/*--------------------------------*- C++ -*----------------------------------*\
| =========                 |                                                 |
| \\      /  F ield         | OpenFOAM: The Open Source CFD Toolbox           |
|  \\    /   O peration     | Version:  2206                                  |
|   \\  /    A nd           | Website:  www.openfoam.com                      |
|    \\/     M anipulation  |                                                 |
\*---------------------------------------------------------------------------*/
FoamFile
{
    version     2.0;
    format      ascii;
    arch        "LSB;label=32;scalar=64";
    class       volScalarField;
    location    "0.3";
    object      k;
}
// * * * * * * * * * * * * * * * * * * * * * * * * * * * * * * * * * * * * * //

dimensions      [0 2 -2 0 0 0 0];

internalField   nonuniform List<scalar> 
67442
(
2.19828e-05
2.46066e-05
2.44657e-05
2.66605e-05
2.66503e-05
2.44628e-05
2.44632e-05
2.66398e-05
2.46153e-05
2.46091e-05
2.46069e-05
2.66572e-05
2.44722e-05
2.49909e-05
4.26251e-05
1.61423e-05
2.43581e-05
4.19418e-05
2.19846e-05
2.19837e-05
2.19864e-05
4.03225e-05
2.28242e-05
3.55134e-05
1.5866e-05
2.26802e-05
4.06577e-05
3.52772e-05
3.20205e-05
3.24948e-05
1.61819e-05
1.58836e-05
3.24971e-05
3.20218e-05
2.49008e-05
4.25565e-05
4.06729e-05
2.26739e-05
3.52896e-05
4.06334e-05
2.26736e-05
3.52691e-05
3.24333e-05
3.19938e-05
1.58312e-05
4.0397e-05
2.28259e-05
3.5524e-05
2.43119e-05
4.19366e-05
2.28244e-05
4.03528e-05
3.55192e-05
2.42627e-05
4.18892e-05
2.28247e-05
4.03104e-05
3.55108e-05
2.42522e-05
4.18863e-05
3.20148e-05
3.2478e-05
1.6155e-05
2.26813e-05
4.06963e-05
3.52778e-05
2.49004e-05
4.25515e-05
2.49213e-05
4.25499e-05
1.58317e-05
1.61751e-05
1.46046e-05
2.49892e-05
3.31227e-05
3.3124e-05
1.46059e-05
1.95014e-05
4.26342e-05
2.12829e-05
4.18069e-05
2.12802e-05
4.18105e-05
1.95059e-05
1.61451e-05
1.91027e-05
4.19739e-05
4.10413e-05
2.08219e-05
1.4189e-05
2.43454e-05
3.22562e-05
3.22457e-05
1.42028e-05
1.42182e-05
2.43881e-05
3.22948e-05
1.90628e-05
4.19432e-05
4.10067e-05
2.07991e-05
4.10016e-05
2.07801e-05
1.90838e-05
1.58526e-05
1.58808e-05
3.86191e-05
3.76625e-05
3.20148e-05
2.34316e-05
3.76858e-05
2.34251e-05
3.86223e-05
3.83478e-05
3.76727e-05
3.2495e-05
2.35159e-05
3.76938e-05
2.35137e-05
3.83505e-05
2.44723e-05
1.36289e-05
1.37023e-05
1.36252e-05
1.36998e-05
2.44902e-05
1.6175e-05
1.58693e-05
1.58971e-05
3.87323e-05
3.76884e-05
3.24941e-05
2.3717e-05
2.37099e-05
3.77098e-05
3.87385e-05
3.82429e-05
3.76164e-05
3.20124e-05
2.32581e-05
2.32463e-05
3.76374e-05
3.82521e-05
2.4486e-05
1.37322e-05
1.36307e-05
1.37252e-05
1.36219e-05
2.45088e-05
1.45534e-05
2.49077e-05
3.30031e-05
3.30121e-05
1.45463e-05
1.94483e-05
4.25695e-05
2.12277e-05
4.16998e-05
2.12327e-05
4.17098e-05
1.94466e-05
3.82607e-05
3.76251e-05
3.2431e-05
2.34912e-05
2.34955e-05
3.76504e-05
3.82702e-05
3.85013e-05
3.75835e-05
3.19926e-05
2.34223e-05
3.76076e-05
2.34142e-05
3.84705e-05
2.45526e-05
1.37231e-05
1.36518e-05
1.37206e-05
1.36472e-05
2.45557e-05
1.58257e-05
1.90919e-05
4.19696e-05
2.08158e-05
4.10177e-05
1.41716e-05
2.42999e-05
3.2201e-05
3.2191e-05
1.41852e-05
1.42012e-05
2.43445e-05
3.22416e-05
1.90517e-05
4.19384e-05
2.07914e-05
4.09816e-05
2.07729e-05
4.0977e-05
1.90725e-05
1.41473e-05
2.42568e-05
3.21503e-05
3.21448e-05
1.41547e-05
1.902e-05
4.1895e-05
4.09311e-05
2.07462e-05
4.09311e-05
2.07331e-05
1.9035e-05
1.41446e-05
2.42462e-05
3.21376e-05
3.21318e-05
1.41524e-05
1.90187e-05
4.18921e-05
2.0743e-05
4.09262e-05
2.073e-05
4.09259e-05
1.9034e-05
3.82087e-05
3.76159e-05
3.20067e-05
2.32981e-05
2.32859e-05
3.76387e-05
3.82124e-05
3.85813e-05
3.76577e-05
3.2479e-05
2.37387e-05
3.76734e-05
2.37326e-05
3.85781e-05
2.46378e-05
1.36946e-05
1.3798e-05
1.36848e-05
1.37914e-05
2.46825e-05
1.61564e-05
1.45519e-05
2.4908e-05
3.29998e-05
3.30083e-05
1.45447e-05
1.94439e-05
4.2564e-05
4.1703e-05
2.12157e-05
4.17127e-05
2.12199e-05
1.94426e-05
1.45539e-05
2.49281e-05
3.30149e-05
3.30228e-05
1.45474e-05
1.94445e-05
4.2562e-05
4.17089e-05
2.12132e-05
4.17176e-05
2.12176e-05
1.94435e-05
1.58255e-05
1.61768e-05
2.16225e-05
2.16384e-05
2.15425e-05
3.65066e-05
3.14984e-05
3.14707e-05
2.6678e-05
3.1538e-05
3.1504e-05
3.64802e-05
3.64969e-05
3.14419e-05
3.15007e-05
2.66683e-05
3.14765e-05
3.15414e-05
3.64692e-05
3.64432e-05
3.14358e-05
3.14636e-05
2.66577e-05
3.15053e-05
3.14669e-05
3.64128e-05
3.6488e-05
3.15099e-05
3.14533e-05
2.66749e-05
3.14848e-05
3.15484e-05
3.64672e-05
2.16255e-05
2.16414e-05
2.15436e-05
2.1638e-05
2.16238e-05
2.15429e-05
2.16408e-05
2.16266e-05
2.15435e-05
3.10019e-05
3.43552e-05
4.03251e-05
3.88094e-05
3.43964e-05
3.88349e-05
3.09651e-05
2.91069e-05
3.55619e-05
3.6905e-05
2.80139e-05
3.69454e-05
2.80609e-05
2.90642e-05
3.07749e-05
3.43079e-05
4.06656e-05
3.88639e-05
3.43331e-05
3.88816e-05
3.07626e-05
2.8817e-05
3.5299e-05
2.76925e-05
3.67494e-05
2.77054e-05
3.67705e-05
2.8807e-05
3.07608e-05
3.42729e-05
4.06781e-05
3.88866e-05
3.89049e-05
3.43003e-05
3.07471e-05
2.88042e-05
3.53113e-05
3.67696e-05
2.76896e-05
3.679e-05
2.7702e-05
2.87936e-05
3.07576e-05
3.42761e-05
4.06409e-05
3.88429e-05
3.88627e-05
3.43036e-05
3.07443e-05
2.8798e-05
3.52914e-05
3.6734e-05
2.76847e-05
3.67554e-05
2.76977e-05
2.87875e-05
3.10234e-05
3.43991e-05
4.03982e-05
3.88621e-05
3.88843e-05
3.44407e-05
3.09868e-05
2.91169e-05
3.55738e-05
3.69297e-05
2.80176e-05
3.69717e-05
2.80644e-05
2.9074e-05
3.10116e-05
3.43668e-05
4.0354e-05
3.88298e-05
3.88514e-05
3.44077e-05
3.0975e-05
2.91107e-05
3.55686e-05
2.80156e-05
3.6913e-05
2.80623e-05
3.69539e-05
2.90676e-05
3.10011e-05
3.43492e-05
4.03149e-05
3.88024e-05
3.43898e-05
3.88268e-05
3.09649e-05
2.9107e-05
3.55592e-05
2.80135e-05
3.68993e-05
2.80603e-05
3.69396e-05
2.90641e-05
3.07861e-05
3.43353e-05
4.07041e-05
3.88736e-05
3.43621e-05
3.88937e-05
3.07737e-05
2.8821e-05
3.52996e-05
2.76932e-05
3.67531e-05
2.77062e-05
3.67741e-05
2.8811e-05
4.76215e-06
1.12859e-06
2.06816e-07
7.34363e-08
4.14611e-07
4.67384e-06
1.1192e-06
2.07252e-07
7.81041e-08
4.50968e-07
4.69516e-06
1.11291e-06
2.04106e-07
7.32342e-08
4.15139e-07
4.63152e-06
1.10916e-06
2.0554e-07
7.80015e-08
4.51441e-07
4.68571e-06
1.12187e-06
2.0772e-07
7.81833e-08
4.51104e-07
4.63639e-06
1.11029e-06
2.0572e-07
7.80119e-08
4.51413e-07
4.7457e-06
1.12493e-06
2.06179e-07
7.33652e-08
4.14585e-07
4.62213e-06
1.10701e-06
2.05189e-07
7.8003e-08
4.51669e-07
4.6868e-06
1.111e-06
2.03784e-07
7.31921e-08
4.15107e-07
4.67642e-06
1.10871e-06
2.03416e-07
7.3188e-08
4.15288e-07
4.67511e-06
1.10839e-06
2.03375e-07
7.31959e-08
4.15346e-07
4.67907e-06
1.12053e-06
2.07508e-07
7.81702e-08
4.51228e-07
4.74665e-06
1.12523e-06
2.06239e-07
7.33837e-08
4.1468e-07
4.75018e-06
1.12604e-06
2.06382e-07
7.33899e-08
4.14659e-07
4.6224e-06
1.10705e-06
2.05192e-07
7.79836e-08
4.51567e-07
4.68371e-06
1.12154e-06
2.0766e-07
7.81578e-08
4.51093e-07
4.57625e-06
1.09692e-06
2.03453e-07
7.75096e-08
4.49102e-07
4.76795e-06
1.13044e-06
2.07169e-07
7.35301e-08
4.15089e-07
4.678e-06
1.12029e-06
2.07443e-07
7.81367e-08
4.51076e-07
4.45517e-06
1.06047e-06
1.95942e-07
7.47425e-08
4.33152e-07
4.56338e-06
1.08792e-06
2.01072e-07
7.60971e-08
4.39906e-07
4.49038e-06
1.0764e-06
1.99857e-07
7.69922e-08
4.47775e-07
4.6974e-06
1.11389e-06
2.04305e-07
7.3259e-08
4.15179e-07
4.70243e-06
1.11474e-06
2.04429e-07
7.32691e-08
4.15167e-07
4.63253e-06
1.10979e-06
2.05669e-07
7.80051e-08
4.51364e-07
4.6375e-06
1.11076e-06
2.05827e-07
7.80305e-08
4.51448e-07
4.64494e-06
1.09988e-06
2.01894e-07
7.35732e-08
4.195e-07
4.64717e-06
1.10063e-06
2.02027e-07
7.35494e-08
4.192e-07
4.656e-06
1.10251e-06
2.02338e-07
7.35653e-08
4.19093e-07
4.65876e-06
1.10332e-06
2.0248e-07
7.35672e-08
4.18992e-07
4.19425e-06
1.00669e-06
1.87872e-07
7.6349e-08
4.51834e-07
4.20583e-06
1.00941e-06
1.88338e-07
7.63799e-08
4.51731e-07
4.19667e-06
1.0075e-06
1.88016e-07
7.6326e-08
4.5153e-07
4.20851e-06
1.01027e-06
1.88489e-07
7.63674e-08
4.51505e-07
4.68781e-06
1.12283e-06
2.07917e-07
7.82313e-08
4.51332e-07
4.63718e-06
1.11087e-06
2.0584e-07
7.80121e-08
4.51315e-07
4.64193e-06
1.1118e-06
2.05992e-07
7.80426e-08
4.51445e-07
4.75075e-06
1.12626e-06
2.06423e-07
7.34347e-08
4.1495e-07
4.64369e-06
1.09976e-06
2.019e-07
7.35769e-08
4.19524e-07
4.64626e-06
1.10051e-06
2.02027e-07
7.35548e-08
4.19241e-07
4.20237e-06
1.0087e-06
1.88226e-07
7.63836e-08
4.51838e-07
4.20405e-06
1.00933e-06
1.88336e-07
7.63648e-08
4.51593e-07
4.62477e-06
1.10789e-06
2.05348e-07
7.79919e-08
4.51449e-07
4.45303e-06
1.05995e-06
1.95857e-07
7.47361e-08
4.33164e-07
4.56207e-06
1.08761e-06
2.01018e-07
7.60897e-08
4.3989e-07
4.48463e-06
1.07501e-06
1.9962e-07
7.69573e-08
4.47739e-07
4.68916e-06
1.11202e-06
2.03987e-07
7.32168e-08
4.15143e-07
4.6945e-06
1.11293e-06
2.04123e-07
7.32267e-08
4.15122e-07
4.67953e-06
1.10966e-06
2.03588e-07
7.31967e-08
4.15218e-07
4.47467e-06
1.07251e-06
1.99183e-07
7.69284e-08
4.47774e-07
4.67809e-06
1.1093e-06
2.03539e-07
7.32021e-08
4.15263e-07
4.68753e-06
1.11007e-06
2.03672e-07
7.37393e-08
4.19352e-07
4.68949e-06
1.11067e-06
2.0378e-07
7.37432e-08
4.19294e-07
4.23822e-06
1.01709e-06
1.89667e-07
7.65311e-08
4.51825e-07
4.68243e-06
1.12146e-06
2.07671e-07
7.82008e-08
4.51341e-07
4.55762e-06
1.09225e-06
2.02634e-07
7.74185e-08
4.49016e-07
4.75154e-06
1.12653e-06
2.0648e-07
7.34553e-08
4.15062e-07
4.55834e-06
1.09244e-06
2.02663e-07
7.74135e-08
4.48978e-07
4.75505e-06
1.12734e-06
2.06623e-07
7.34598e-08
4.15028e-07
4.62483e-06
1.10789e-06
2.05342e-07
7.79703e-08
4.51336e-07
4.68747e-06
1.12258e-06
2.07846e-07
7.81896e-08
4.51198e-07
4.55805e-06
1.09239e-06
2.02647e-07
7.74188e-08
4.49006e-07
4.47525e-06
1.07265e-06
1.99204e-07
7.69186e-08
4.47723e-07
4.48437e-06
1.06747e-06
1.97131e-07
7.46906e-08
4.31888e-07
4.59018e-06
1.09406e-06
2.02081e-07
7.59686e-08
4.38198e-07
4.59286e-06
1.095e-06
2.02264e-07
7.60034e-08
4.3833e-07
4.48179e-06
1.06653e-06
1.96947e-07
7.46492e-08
4.31704e-07
4.57122e-06
1.0952e-06
2.03116e-07
7.7414e-08
4.48598e-07
4.65321e-06
1.10205e-06
2.02286e-07
7.35772e-08
4.19188e-07
4.65536e-06
1.10268e-06
2.02396e-07
7.35733e-08
4.19064e-07
4.21282e-06
1.01111e-06
1.88645e-07
7.64352e-08
4.51847e-07
4.21514e-06
1.01187e-06
1.88778e-07
7.6418e-08
4.51597e-07
4.48939e-06
1.07576e-06
1.99725e-07
7.69911e-08
4.47875e-07
4.44954e-06
1.05932e-06
1.95743e-07
7.46662e-08
4.32689e-07
4.55695e-06
1.08624e-06
2.00774e-07
7.60637e-08
4.39871e-07
4.55738e-06
1.08666e-06
2.00853e-07
7.60122e-08
4.3939e-07
4.44929e-06
1.05893e-06
1.95668e-07
7.47115e-08
4.33117e-07
4.4958e-06
1.07744e-06
2.00025e-07
7.70238e-08
4.47902e-07
4.63486e-06
1.09773e-06
2.01548e-07
7.35232e-08
4.19329e-07
4.63653e-06
1.0985e-06
2.01696e-07
7.35134e-08
4.19129e-07
4.21149e-06
1.01053e-06
1.88514e-07
7.63946e-08
4.51681e-07
4.21319e-06
1.01137e-06
1.88676e-07
7.63802e-08
4.51434e-07
4.68309e-06
1.10864e-06
2.0339e-07
7.36835e-08
4.19178e-07
4.68549e-06
1.10956e-06
2.03569e-07
7.37052e-08
4.19208e-07
4.21778e-06
1.01229e-06
1.88831e-07
7.6407e-08
4.51602e-07
4.21953e-06
1.01305e-06
1.88983e-07
7.64131e-08
4.51528e-07
4.62528e-06
1.09539e-06
2.01137e-07
7.34774e-08
4.19329e-07
4.62707e-06
1.09614e-06
2.01279e-07
7.34677e-08
4.19135e-07
4.19288e-06
1.00629e-06
1.878e-07
7.63208e-08
4.51693e-07
4.19428e-06
1.00697e-06
1.87932e-07
7.63125e-08
4.51517e-07
4.47092e-06
1.06421e-06
1.96561e-07
7.46473e-08
4.31919e-07
4.57831e-06
1.09142e-06
2.01646e-07
7.59533e-08
4.38341e-07
4.58187e-06
1.0924e-06
2.01822e-07
7.59781e-08
4.38399e-07
4.46771e-06
1.06335e-06
1.96409e-07
7.4622e-08
4.31841e-07
4.55264e-06
1.09101e-06
2.02399e-07
7.73472e-08
4.48628e-07
4.44734e-06
1.05879e-06
1.95657e-07
7.46599e-08
4.32703e-07
4.55532e-06
1.08586e-06
2.00708e-07
7.60553e-08
4.39855e-07
4.55586e-06
1.0863e-06
2.00791e-07
7.6004e-08
4.39373e-07
4.44707e-06
1.05839e-06
1.95582e-07
7.47053e-08
4.33132e-07
4.48359e-06
1.07435e-06
1.99485e-07
7.69558e-08
4.47838e-07
4.49022e-06
1.07609e-06
1.99794e-07
7.69889e-08
4.4786e-07
4.47289e-06
1.07177e-06
1.99045e-07
7.69294e-08
4.47942e-07
4.43857e-06
1.05661e-06
1.9527e-07
7.45952e-08
4.32558e-07
4.54521e-06
1.08338e-06
2.00294e-07
7.60059e-08
4.39881e-07
4.54625e-06
1.08389e-06
2.0038e-07
7.59389e-08
4.39267e-07
4.43769e-06
1.05612e-06
1.95187e-07
7.46547e-08
4.33108e-07
4.43855e-06
1.05661e-06
1.95263e-07
7.45996e-08
4.32569e-07
4.5445e-06
1.08323e-06
2.00254e-07
7.60021e-08
4.39855e-07
4.54556e-06
1.08375e-06
2.00341e-07
7.59347e-08
4.39239e-07
4.4377e-06
1.05612e-06
1.95181e-07
7.46604e-08
4.3313e-07
4.47244e-06
1.07166e-06
1.99029e-07
7.69412e-08
4.48003e-07
4.24009e-06
1.01787e-06
1.89818e-07
7.65377e-08
4.51753e-07
4.55251e-06
1.09095e-06
2.02397e-07
7.7345e-08
4.48614e-07
4.46991e-06
1.0639e-06
1.96513e-07
7.46311e-08
4.31856e-07
4.57576e-06
1.09082e-06
2.01543e-07
7.59409e-08
4.3832e-07
4.579e-06
1.09162e-06
2.01682e-07
7.59515e-08
4.38328e-07
4.46679e-06
1.06308e-06
1.96369e-07
7.46145e-08
4.31806e-07
4.55334e-06
1.09118e-06
2.02432e-07
7.73423e-08
4.48591e-07
4.46987e-06
1.06394e-06
1.96514e-07
7.46398e-08
4.31897e-07
4.57532e-06
1.09075e-06
2.01532e-07
7.59414e-08
4.38335e-07
4.57853e-06
1.09154e-06
2.01671e-07
7.59619e-08
4.38386e-07
4.46683e-06
1.06314e-06
1.96373e-07
7.46145e-08
4.31811e-07
2.46095e-05
2.6674e-05
2.44659e-05
2.19844e-05
4.19031e-05
2.28266e-05
3.55648e-05
2.42518e-05
4.1898e-05
2.28251e-05
4.03162e-05
3.55602e-05
1.58208e-05
3.19497e-05
1.90454e-05
4.18969e-05
4.09555e-05
2.07422e-05
4.09554e-05
2.07551e-05
1.90302e-05
1.41525e-05
2.42573e-05
3.21374e-05
3.21412e-05
1.41449e-05
1.9034e-05
4.18923e-05
2.07335e-05
4.093e-05
2.07462e-05
4.09307e-05
1.90187e-05
1.58257e-05
3.81452e-05
3.76197e-05
3.1952e-05
2.32406e-05
3.75978e-05
2.32458e-05
3.81547e-05
3.85037e-05
3.76638e-05
3.76465e-05
3.85059e-05
2.4694e-05
1.36493e-05
1.36472e-05
2.46574e-05
3.64657e-05
2.66561e-05
3.15472e-05
3.14846e-05
3.15081e-05
3.14523e-05
3.64862e-05
2.16391e-05
2.15431e-05
2.16387e-05
2.16245e-05
2.15436e-05
2.90732e-05
3.55156e-05
3.69601e-05
2.80636e-05
3.69186e-05
2.80169e-05
2.91159e-05
3.09726e-05
3.44016e-05
4.0312e-05
3.88356e-05
3.88106e-05
3.43607e-05
3.10096e-05
2.90665e-05
3.55109e-05
2.80614e-05
3.69439e-05
2.80146e-05
3.69026e-05
2.91099e-05
3.07614e-05
3.43294e-05
3.43032e-05
3.07742e-05
2.66666e-05
2.4463e-05
2.46156e-05
2.19834e-05
1.61461e-05
1.58393e-05
3.24464e-05
3.1962e-05
2.49424e-05
4.25992e-05
4.0644e-05
2.26745e-05
3.53044e-05
2.42987e-05
4.03601e-05
1.6144e-05
1.5845e-05
3.87021e-05
3.76924e-05
3.24439e-05
2.36634e-05
2.36645e-05
3.76671e-05
3.86999e-05
3.82152e-05
3.7621e-05
3.19662e-05
2.31997e-05
2.32055e-05
3.75967e-05
3.82103e-05
2.44633e-05
1.36948e-05
1.35916e-05
1.36962e-05
1.3595e-05
2.4446e-05
1.45682e-05
2.49363e-05
3.30719e-05
3.30628e-05
1.45752e-05
1.9467e-05
4.25867e-05
2.12421e-05
4.1768e-05
2.12391e-05
4.17581e-05
1.94676e-05
1.41703e-05
2.43042e-05
3.21934e-05
3.21975e-05
1.41626e-05
3.64524e-05
2.66486e-05
3.14702e-05
3.15355e-05
3.14354e-05
3.14947e-05
3.64833e-05
2.16231e-05
3.07457e-05
3.42918e-05
4.06352e-05
3.8887e-05
3.42637e-05
3.88651e-05
3.07591e-05
2.87941e-05
3.52814e-05
3.67804e-05
2.77022e-05
3.67592e-05
2.7689e-05
2.88037e-05
3.09843e-05
3.44336e-05
4.03556e-05
3.88679e-05
3.43921e-05
3.88414e-05
3.10209e-05
4.67879e-06
1.10943e-06
2.03532e-07
7.31732e-08
4.15148e-07
4.62232e-06
1.10728e-06
2.05233e-07
7.79647e-08
4.51379e-07
4.47239e-06
1.07163e-06
1.99019e-07
7.69214e-08
4.47926e-07
4.67559e-06
1.10848e-06
2.03363e-07
7.31638e-08
4.15208e-07
4.61939e-06
1.10635e-06
2.05069e-07
7.79709e-08
4.51561e-07
4.44001e-06
1.0567e-06
1.95288e-07
7.46852e-08
4.33204e-07
4.54817e-06
1.0844e-06
2.00459e-07
7.59715e-08
4.39371e-07
4.54702e-06
1.08387e-06
2.00371e-07
7.60363e-08
4.39966e-07
4.44092e-06
1.05721e-06
1.95375e-07
7.46256e-08
4.32649e-07
4.43773e-06
1.05615e-06
1.95199e-07
7.46785e-08
4.33217e-07
4.54643e-06
1.084e-06
2.00389e-07
7.59627e-08
4.39354e-07
4.54528e-06
1.08347e-06
2.00301e-07
7.60276e-08
4.39951e-07
4.43864e-06
1.05666e-06
1.95287e-07
7.46193e-08
4.32665e-07
4.4747e-06
1.07249e-06
1.99176e-07
7.69096e-08
4.47701e-07
4.62477e-06
1.09547e-06
2.01161e-07
7.34583e-08
4.19103e-07
4.62089e-06
1.09434e-06
2.00964e-07
7.34783e-08
4.19424e-07
4.19955e-06
1.00787e-06
1.88062e-07
7.63287e-08
4.51499e-07
4.19521e-06
1.00666e-06
1.87855e-07
7.63519e-08
4.51854e-07
4.67818e-06
1.12039e-06
2.07487e-07
7.8188e-08
4.5132e-07
4.62742e-06
1.10845e-06
2.05417e-07
7.79694e-08
4.51302e-07
4.7572e-06
1.12771e-06
2.06691e-07
7.34823e-08
4.15076e-07
4.68716e-06
1.11134e-06
2.03856e-07
7.32136e-08
4.15166e-07
4.6742e-06
1.11933e-06
2.07302e-07
7.81554e-08
4.51206e-07
4.62466e-06
1.10754e-06
2.05257e-07
7.79798e-08
4.51516e-07
4.55982e-06
1.09268e-06
2.02695e-07
7.73828e-08
4.48678e-07
4.75209e-06
1.12638e-06
2.06448e-07
7.34112e-08
4.14698e-07
4.68389e-06
1.11035e-06
2.0368e-07
7.32042e-08
4.1523e-07
4.20875e-06
1.01032e-06
1.88499e-07
7.63632e-08
4.51505e-07
4.18371e-06
1.00432e-06
1.87465e-07
7.62641e-08
4.51494e-07
4.47822e-06
1.07304e-06
1.99258e-07
7.69562e-08
4.4796e-07
4.48052e-06
1.0739e-06
1.99417e-07
7.69442e-08
4.47733e-07
4.67504e-06
1.10693e-06
2.03105e-07
7.36579e-08
4.1919e-07
4.67186e-06
1.10602e-06
2.02947e-07
7.36522e-08
4.19273e-07
4.61676e-06
1.09359e-06
2.00834e-07
7.34224e-08
4.19118e-07
4.61429e-06
1.09279e-06
2.00693e-07
7.34462e-08
4.19424e-07
4.18115e-06
1.00347e-06
1.87317e-07
7.62861e-08
4.51793e-07
4.20576e-06
1.00939e-06
1.88337e-07
7.63712e-08
4.51702e-07
4.47198e-06
1.06428e-06
1.96569e-07
7.46209e-08
4.31773e-07
4.58327e-06
1.09257e-06
2.01837e-07
7.59651e-08
4.38356e-07
4.58011e-06
1.09178e-06
2.01699e-07
7.59402e-08
4.38268e-07
4.47502e-06
1.06509e-06
1.96713e-07
7.46476e-08
4.31868e-07
4.56484e-06
1.09395e-06
2.02929e-07
7.74543e-08
4.49065e-07
2.66569e-05
2.19831e-05
2.46075e-05
2.44603e-05
2.66565e-05
2.66718e-05
2.66478e-05
2.44453e-05
2.44473e-05
2.66409e-05
2.46152e-05
2.46028e-05
2.46064e-05
2.66366e-05
2.44713e-05
3.1989e-05
3.24579e-05
2.66729e-05
3.19706e-05
3.24426e-05
4.23601e-05
2.48903e-05
4.25615e-05
1.61101e-05
1.60415e-05
2.42655e-05
4.18698e-05
2.19824e-05
2.19845e-05
2.19864e-05
4.02983e-05
2.28256e-05
2.46436e-05
3.55085e-05
1.57909e-05
2.26807e-05
4.06394e-05
3.52722e-05
3.19897e-05
3.24562e-05
1.58036e-05
1.57923e-05
1.61469e-05
1.61409e-05
2.66575e-05
3.19701e-05
3.24454e-05
3.19906e-05
3.24574e-05
1.57904e-05
1.58092e-05
1.61386e-05
1.61497e-05
1.6106e-05
1.58113e-05
3.2401e-05
3.19327e-05
4.23408e-05
2.48711e-05
2.47484e-05
4.25379e-05
3.56829e-05
4.06054e-05
2.26413e-05
2.27504e-05
3.52505e-05
3.56741e-05
4.06177e-05
2.26407e-05
2.44853e-05
4.05279e-05
2.27496e-05
3.52419e-05
3.23916e-05
3.19596e-05
2.66479e-05
3.23113e-05
1.57973e-05
4.03299e-05
2.28286e-05
3.55108e-05
2.42263e-05
4.18646e-05
2.28257e-05
4.02849e-05
3.55057e-05
2.42177e-05
4.18668e-05
2.28259e-05
4.02876e-05
3.5506e-05
2.42208e-05
4.18644e-05
3.19152e-05
3.24424e-05
1.61251e-05
2.26818e-05
4.06748e-05
3.52723e-05
2.48795e-05
4.25374e-05
2.48946e-05
4.25365e-05
1.58037e-05
1.61457e-05
2.44549e-05
1.35915e-05
1.36641e-05
1.36042e-05
1.36753e-05
2.44229e-05
3.85758e-05
3.76498e-05
2.33964e-05
3.19702e-05
2.33763e-05
3.85926e-05
3.76608e-05
3.83014e-05
3.76567e-05
2.34744e-05
3.24433e-05
2.34582e-05
3.83174e-05
3.76657e-05
2.44262e-05
1.36035e-05
1.36745e-05
1.35915e-05
1.3664e-05
2.44592e-05
3.85942e-05
2.33779e-05
3.19916e-05
3.76622e-05
2.33975e-05
3.85791e-05
3.76511e-05
3.83183e-05
2.34602e-05
3.24568e-05
3.7666e-05
2.34755e-05
3.83044e-05
3.76577e-05
1.92819e-05
2.09713e-05
4.15118e-05
4.24431e-05
2.10505e-05
4.16021e-05
1.92223e-05
1.45316e-05
2.49198e-05
3.30104e-05
3.30154e-05
1.45411e-05
1.44532e-05
2.48078e-05
3.29051e-05
1.93649e-05
4.24895e-05
2.12003e-05
4.17272e-05
2.11207e-05
4.16626e-05
1.94323e-05
1.61333e-05
1.60962e-05
1.41336e-05
2.42448e-05
3.21569e-05
3.21365e-05
1.41465e-05
1.89957e-05
4.18634e-05
4.09213e-05
2.0725e-05
4.09088e-05
2.07003e-05
1.90203e-05
1.5777e-05
3.8576e-05
3.76495e-05
2.33968e-05
3.19704e-05
3.85904e-05
3.76621e-05
2.33766e-05
3.83043e-05
3.76559e-05
2.34748e-05
3.24397e-05
3.83162e-05
3.76659e-05
2.34586e-05
2.44268e-05
1.36013e-05
1.36728e-05
2.4457e-05
1.35908e-05
1.36635e-05
1.57894e-05
1.58087e-05
1.6139e-05
1.61501e-05
2.44233e-05
1.36038e-05
1.36751e-05
2.44542e-05
1.35927e-05
1.36651e-05
3.85934e-05
3.76608e-05
2.3379e-05
3.19901e-05
3.85752e-05
2.33993e-05
3.76519e-05
3.83168e-05
3.76651e-05
2.34614e-05
3.24598e-05
3.83007e-05
2.34784e-05
3.76577e-05
2.44556e-05
1.35921e-05
1.36646e-05
2.44261e-05
1.36032e-05
1.36747e-05
3.85784e-05
2.33991e-05
3.76525e-05
3.19702e-05
3.85965e-05
2.33797e-05
3.76629e-05
3.83037e-05
2.34777e-05
3.7658e-05
3.24455e-05
3.83206e-05
2.34626e-05
3.76663e-05
1.58052e-05
1.57915e-05
1.6148e-05
1.61403e-05
1.61318e-05
1.60701e-05
1.57982e-05
3.86593e-05
3.76599e-05
3.24088e-05
2.36235e-05
2.36083e-05
3.76682e-05
3.86721e-05
3.81685e-05
3.75879e-05
3.19144e-05
2.31714e-05
2.31522e-05
3.75996e-05
3.81859e-05
3.23788e-05
3.76598e-05
2.44053e-05
1.36703e-05
1.35706e-05
1.36597e-05
1.35593e-05
2.44366e-05
1.92723e-05
2.09638e-05
4.14742e-05
4.2422e-05
2.10419e-05
4.15675e-05
1.92086e-05
1.45003e-05
2.48953e-05
3.29832e-05
3.29515e-05
1.45337e-05
1.44583e-05
3.28217e-05
2.48272e-05
3.29049e-05
1.44139e-05
1.93421e-05
4.24665e-05
2.1191e-05
4.16936e-05
2.11094e-05
4.16142e-05
1.94235e-05
2.45806e-05
1.37049e-05
1.36935e-05
1.36347e-05
3.82054e-05
3.7621e-05
3.23939e-05
2.34517e-05
2.3442e-05
3.76281e-05
3.82324e-05
3.84535e-05
3.75806e-05
3.19444e-05
2.33937e-05
3.75909e-05
2.33708e-05
3.84557e-05
3.81537e-05
2.34625e-05
3.23802e-05
3.76092e-05
2.34937e-05
3.7617e-05
3.81485e-05
3.84888e-05
3.19591e-05
3.75817e-05
2.33902e-05
2.4506e-05
1.36947e-05
1.36283e-05
1.36795e-05
1.36161e-05
2.45261e-05
1.57861e-05
1.58023e-05
1.4118e-05
2.42048e-05
3.21083e-05
3.20884e-05
1.41307e-05
1.89855e-05
4.18574e-05
2.07163e-05
4.08969e-05
2.06923e-05
4.08845e-05
1.90097e-05
1.90056e-05
4.18631e-05
4.0897e-05
2.07178e-05
1.41168e-05
2.41988e-05
3.21068e-05
3.20883e-05
1.4129e-05
1.41261e-05
2.42192e-05
3.21063e-05
1.89847e-05
4.18585e-05
4.08993e-05
2.07176e-05
4.08849e-05
2.06942e-05
1.90092e-05
1.90054e-05
4.18611e-05
2.0715e-05
4.08935e-05
1.41175e-05
2.4202e-05
3.21046e-05
3.2086e-05
1.413e-05
1.41271e-05
2.42218e-05
3.21041e-05
1.89842e-05
4.18562e-05
2.07143e-05
4.08962e-05
2.06909e-05
4.08815e-05
1.9009e-05
3.80973e-05
3.75625e-05
3.18961e-05
2.32003e-05
2.31759e-05
3.75774e-05
3.81034e-05
3.84698e-05
3.75928e-05
3.24295e-05
2.36949e-05
3.7607e-05
2.36681e-05
3.84649e-05
2.45236e-05
1.36241e-05
1.37456e-05
1.36083e-05
1.37241e-05
2.45923e-05
1.61174e-05
1.45259e-05
2.48703e-05
3.29815e-05
3.29729e-05
1.45294e-05
1.94085e-05
4.25336e-05
4.16786e-05
2.11925e-05
4.16719e-05
2.11816e-05
1.94202e-05
1.45278e-05
2.48854e-05
3.29908e-05
3.29813e-05
1.4532e-05
1.9411e-05
4.25334e-05
4.16848e-05
2.11916e-05
4.16773e-05
2.11815e-05
1.94225e-05
1.57903e-05
1.5802e-05
1.61375e-05
3.64861e-05
3.14911e-05
3.14623e-05
2.6674e-05
3.64662e-05
3.15288e-05
3.14936e-05
2.16213e-05
2.16414e-05
2.15449e-05
3.64875e-05
3.14917e-05
3.14627e-05
2.6675e-05
3.64661e-05
3.15298e-05
3.14944e-05
3.64688e-05
2.66582e-05
3.15288e-05
3.14932e-05
3.64863e-05
3.14937e-05
3.14641e-05
3.64712e-05
3.14327e-05
3.14926e-05
2.66661e-05
3.14656e-05
3.15319e-05
3.64488e-05
3.64289e-05
3.14361e-05
3.1465e-05
2.66578e-05
3.15036e-05
3.14633e-05
3.64097e-05
3.64058e-05
3.14694e-05
3.14111e-05
2.66556e-05
3.1442e-05
3.15072e-05
3.63856e-05
3.64677e-05
2.66566e-05
3.15286e-05
3.14934e-05
3.64882e-05
3.14914e-05
3.14627e-05
2.16211e-05
2.16417e-05
2.15453e-05
2.16407e-05
2.16266e-05
2.15449e-05
2.16411e-05
2.16263e-05
2.15449e-05
3.09966e-05
3.43515e-05
4.02912e-05
3.87962e-05
3.43886e-05
3.88085e-05
3.09621e-05
3.09657e-05
4.02966e-05
3.43568e-05
3.8802e-05
2.91048e-05
3.55537e-05
3.68978e-05
2.80127e-05
3.6934e-05
2.80598e-05
2.90623e-05
3.07572e-05
3.42783e-05
4.0636e-05
3.88596e-05
3.43039e-05
3.88595e-05
3.07567e-05
2.88043e-05
3.52926e-05
2.76893e-05
3.67419e-05
2.7701e-05
3.67592e-05
2.88043e-05
3.64887e-05
2.66752e-05
3.14926e-05
3.14635e-05
3.64696e-05
3.15309e-05
3.14948e-05
2.89594e-05
3.70467e-05
2.79697e-05
3.55675e-05
3.69497e-05
2.78726e-05
2.90466e-05
3.07119e-05
3.42621e-05
4.0614e-05
3.88537e-05
3.88474e-05
3.42519e-05
3.07401e-05
3.08929e-05
4.05594e-05
3.8842e-05
3.43049e-05
2.87798e-05
3.53524e-05
3.67288e-05
2.7673e-05
3.67865e-05
2.77e-05
2.87871e-05
2.89548e-05
3.703e-05
2.79672e-05
3.55587e-05
3.69329e-05
2.787e-05
2.90423e-05
3.07129e-05
3.42793e-05
4.06245e-05
3.88433e-05
3.88361e-05
3.42692e-05
3.07413e-05
3.08905e-05
3.88394e-05
4.05945e-05
3.44161e-05
3.88352e-05
3.09899e-05
3.43183e-05
2.87757e-05
3.53437e-05
3.67135e-05
2.76706e-05
3.67705e-05
2.76976e-05
2.87829e-05
3.64148e-05
2.6645e-05
3.14587e-05
3.14944e-05
3.14695e-05
3.14259e-05
3.6428e-05
3.10164e-05
3.43856e-05
4.03258e-05
3.88269e-05
3.88362e-05
3.44244e-05
3.09809e-05
2.91137e-05
3.55568e-05
3.69115e-05
2.80153e-05
3.69485e-05
2.80624e-05
2.9071e-05
3.10001e-05
3.43399e-05
4.02801e-05
3.87925e-05
3.88026e-05
3.43788e-05
3.0964e-05
2.91056e-05
3.55512e-05
2.80129e-05
3.68935e-05
2.80598e-05
3.69298e-05
2.90626e-05
3.09984e-05
3.43428e-05
4.02831e-05
3.879e-05
3.43811e-05
3.88011e-05
3.09626e-05
2.91049e-05
3.55512e-05
2.80122e-05
3.68928e-05
2.80593e-05
3.69288e-05
2.9062e-05
3.07711e-05
3.43259e-05
4.06705e-05
3.88719e-05
3.43509e-05
3.88718e-05
3.07709e-05
2.88083e-05
3.52928e-05
2.76899e-05
3.67456e-05
2.77016e-05
3.67629e-05
2.88083e-05
2.19811e-05
2.46053e-05
2.44648e-05
2.66611e-05
2.19873e-05
2.46098e-05
2.44705e-05
2.66692e-05
2.20188e-05
2.46302e-05
2.44929e-05
2.66792e-05
2.20271e-05
2.4651e-05
2.45107e-05
2.67081e-05
2.20084e-05
2.46503e-05
2.45003e-05
2.67144e-05
2.1992e-05
2.46299e-05
2.44822e-05
2.66874e-05
2.19898e-05
2.46255e-05
2.44779e-05
2.66852e-05
2.19871e-05
2.4614e-05
2.44666e-05
2.66668e-05
2.19857e-05
2.46075e-05
2.4461e-05
2.6655e-05
2.19854e-05
2.46074e-05
2.44609e-05
2.66575e-05
2.19853e-05
2.46075e-05
2.44607e-05
2.66552e-05
2.19854e-05
2.46071e-05
2.44607e-05
2.66568e-05
2.19853e-05
2.46077e-05
2.44608e-05
2.66576e-05
2.19853e-05
2.46073e-05
2.44609e-05
2.66564e-05
2.19853e-05
2.46078e-05
2.4461e-05
2.66567e-05
2.19852e-05
2.46077e-05
2.44612e-05
2.6669e-05
2.44624e-05
2.44624e-05
2.66576e-05
2.46147e-05
2.46081e-05
2.46052e-05
2.46058e-05
2.66742e-05
2.44646e-05
2.4471e-05
2.66783e-05
2.66527e-05
2.66766e-05
2.44628e-05
2.44624e-05
2.44666e-05
2.44646e-05
2.66407e-05
2.66634e-05
2.46151e-05
2.46084e-05
2.4619e-05
2.46117e-05
2.4606e-05
2.46078e-05
2.46089e-05
2.66574e-05
2.66771e-05
2.44712e-05
2.44673e-05
2.44738e-05
2.66857e-05
2.66611e-05
2.66917e-05
2.44706e-05
2.44661e-05
2.4488e-05
2.44814e-05
2.66475e-05
2.66748e-05
2.46229e-05
2.46151e-05
2.46403e-05
2.46314e-05
2.46106e-05
2.46245e-05
2.46246e-05
2.66608e-05
2.6688e-05
2.44755e-05
2.44868e-05
2.44895e-05
2.66947e-05
2.66777e-05
2.67223e-05
2.44944e-05
2.44872e-05
2.45106e-05
2.45041e-05
2.666e-05
2.6703e-05
2.46465e-05
2.46376e-05
2.46629e-05
2.46528e-05
2.46301e-05
2.46473e-05
2.46471e-05
2.66738e-05
2.67156e-05
2.44952e-05
2.45084e-05
2.45119e-05
2.67224e-05
2.67073e-05
2.67267e-05
2.45129e-05
2.45073e-05
2.45101e-05
2.45094e-05
2.66891e-05
2.67142e-05
2.46654e-05
2.4655e-05
2.46633e-05
2.46517e-05
2.46508e-05
2.46532e-05
2.46532e-05
2.67002e-05
2.67177e-05
2.45154e-05
2.4508e-05
2.45169e-05
2.67324e-05
2.67068e-05
2.66974e-05
2.45026e-05
2.45055e-05
2.44875e-05
2.44878e-05
2.66962e-05
2.66894e-05
2.4656e-05
2.4644e-05
2.46401e-05
2.46273e-05
2.46505e-05
2.46324e-05
2.4632e-05
2.66974e-05
2.66869e-05
2.45135e-05
2.4484e-05
2.44955e-05
2.67074e-05
2.66796e-05
2.66956e-05
2.4486e-05
2.44847e-05
2.4483e-05
2.44828e-05
2.66698e-05
2.66863e-05
2.46386e-05
2.46258e-05
2.46358e-05
2.46225e-05
2.4629e-05
2.46271e-05
2.46266e-05
2.66688e-05
2.6684e-05
2.44928e-05
2.44797e-05
2.44902e-05
2.67034e-05
2.66766e-05
2.66742e-05
2.44805e-05
2.44815e-05
2.44712e-05
2.44737e-05
2.66681e-05
2.6669e-05
2.46331e-05
2.46203e-05
2.46232e-05
2.46102e-05
2.46253e-05
2.46168e-05
2.46167e-05
2.66654e-05
2.66643e-05
2.44889e-05
2.44692e-05
2.44811e-05
2.66868e-05
2.66551e-05
2.66629e-05
2.44686e-05
2.44701e-05
2.44637e-05
2.44659e-05
2.66495e-05
2.66565e-05
2.46204e-05
2.46075e-05
2.46157e-05
2.46029e-05
2.46137e-05
2.46081e-05
2.46072e-05
2.6645e-05
2.6653e-05
2.44785e-05
2.44615e-05
2.44729e-05
2.66731e-05
2.66456e-05
2.66657e-05
2.44632e-05
2.44652e-05
2.44633e-05
2.44645e-05
2.6639e-05
2.66566e-05
2.46156e-05
2.46027e-05
2.46162e-05
2.46031e-05
2.46064e-05
2.46075e-05
2.46068e-05
2.66356e-05
2.66546e-05
2.44722e-05
2.44609e-05
2.4472e-05
2.66744e-05
2.66488e-05
2.66633e-05
2.44633e-05
2.44644e-05
2.44631e-05
2.44648e-05
2.66396e-05
2.66568e-05
2.46161e-05
2.4603e-05
2.46156e-05
2.46027e-05
2.4607e-05
2.46073e-05
2.46065e-05
2.66375e-05
2.66536e-05
2.44721e-05
2.44607e-05
2.44719e-05
2.66729e-05
2.66466e-05
2.66647e-05
2.44632e-05
2.44648e-05
2.44634e-05
2.44644e-05
2.66401e-05
2.66556e-05
2.46158e-05
2.46028e-05
2.46158e-05
2.46028e-05
2.46065e-05
2.46071e-05
2.46068e-05
2.66367e-05
2.66537e-05
2.44719e-05
2.44606e-05
2.4472e-05
2.66749e-05
2.66477e-05
2.66643e-05
2.44634e-05
2.44642e-05
2.44632e-05
2.44649e-05
2.66384e-05
2.66572e-05
2.46158e-05
2.46028e-05
2.46158e-05
2.46028e-05
2.46067e-05
2.46075e-05
2.46068e-05
2.66367e-05
2.66536e-05
2.4472e-05
2.44606e-05
2.4472e-05
2.66752e-05
2.66477e-05
2.66641e-05
2.44633e-05
2.44649e-05
2.44632e-05
2.44642e-05
2.66405e-05
2.66555e-05
2.46159e-05
2.46029e-05
2.46157e-05
2.46028e-05
2.46068e-05
2.4607e-05
2.46064e-05
2.66367e-05
2.66537e-05
2.4472e-05
2.44607e-05
2.44717e-05
2.66737e-05
2.66477e-05
2.66638e-05
2.44634e-05
2.44642e-05
2.44631e-05
2.44647e-05
2.66386e-05
2.66571e-05
2.4616e-05
2.46031e-05
2.46154e-05
2.46024e-05
2.46067e-05
2.4607e-05
2.46061e-05
2.66369e-05
2.66535e-05
2.44719e-05
2.44604e-05
2.44716e-05
2.66738e-05
2.66473e-05
2.66639e-05
2.44634e-05
2.44649e-05
2.44628e-05
2.44639e-05
2.66406e-05
2.66556e-05
2.46161e-05
2.46033e-05
2.46149e-05
2.46018e-05
2.4607e-05
2.46063e-05