/*--------------------------------*- C++ -*----------------------------------*\
| =========                 |                                                 |
| \\      /  F ield         | OpenFOAM: The Open Source CFD Toolbox           |
|  \\    /   O peration     | Version:  2206                                  |
|   \\  /    A nd           | Website:  www.openfoam.com                      |
|    \\/     M anipulation  |                                                 |
\*---------------------------------------------------------------------------*/
FoamFile
{
    version     2.0;
    format      ascii;
    arch        "LSB;label=32;scalar=64";
    class       surfaceScalarField;
    location    "0.3";
    object      phi;
}
// * * * * * * * * * * * * * * * * * * * * * * * * * * * * * * * * * * * * * //

dimensions      [0 3 -1 0 0 0 0];

oriented        oriented;

internalField   nonuniform List<scalar> 
198714
(
-6.28042e-13
1.15435e-12
-5.88821e-13
5.14196e-13
-1.10712e-07
1.10712e-07
-3.57932e-11
-1.55856e-12
-8.8126e-13
2.71399e-11
3.67116e-11
-2.22417e-11
-5.61453e-11
5.50017e-11
-5.79593e-11
5.74091e-11
1.08085e-07
-4.0185e-11
-1.01918e-13
2.22634e-13
1.34254e-11
4.08071e-11
-1.38689e-11
4.79089e-12
2.25771e-11
-2.29514e-11
-3.93439e-12
-1.09013e-07
1.09012e-07
2.63654e-11
4.09196e-11
4.97487e-11
3.32064e-11
2.66104e-08
3.25612e-11
3.54233e-11
4.11281e-11
4.123e-11
2.6598e-08
-2.67484e-08
6.12848e-13
7.97177e-12
3.33915e-11
-8.72802e-12
2.45268e-11
2.08164e-11
-2.20366e-11
-2.42757e-11
-1.10016e-07
1.10015e-07
-3.26961e-11
1.11853e-12
1.02128e-12
8.19292e-12
3.30304e-11
-1.34877e-11
2.45195e-11
2.05197e-11
-1.90675e-11
-2.44649e-11
1.10049e-07
4.07e-11
4.1765e-11
2.65989e-08
-8.79319e-13
2.74326e-11
3.67356e-11
-2.70789e-11
-5.62475e-11
5.47847e-11
-5.54028e-11
5.74839e-11
-1.08098e-07
1.08098e-07
-2.61922e-11
-4.92415e-13
-5.01247e-13
2.31557e-11
2.76686e-11
-2.32352e-11
-3.5267e-11
5.35805e-11
-5.45822e-11
3.58782e-11
-1.09097e-07
1.09097e-07
-4.66821e-13
-5.46473e-13
2.33435e-11
2.76726e-11
-2.31517e-11
-3.55727e-11
5.40767e-11
-5.49562e-11
3.60909e-11
1.09093e-07
4.89385e-11
3.38923e-11
2.66049e-08
-2.67541e-08
-4.76648e-15
1.54401e-13
1.34337e-11
4.13269e-11
-1.40486e-11
4.97896e-12
2.23571e-11
-2.29578e-11
-4.17989e-12
1.09051e-07
1.21202e-12
-5.16721e-12
1.60032e-08
-2.34377e-12
-1.66115e-12
-1.59953e-08
6.11938e-14
-1.74245e-11
2.25709e-08
5.71521e-12
2.17561e-12
-2.25614e-08
-1.08365e-12
-2.76195e-12
8.10356e-09
-2.24648e-12
2.126e-12
-1.32091e-11
1.56543e-08
-3.35443e-12
-1.55044e-12
-1.56383e-08
-5.14709e-11
-2.0142e-15
2.19202e-08
4.60986e-12
1.65302e-11
-2.18899e-08
-9.32977e-13
6.3398e-13
1.10712e-07
3.43286e-13
-4.80389e-13
-1.10997e-07
1.10997e-07
2.31623e-13
-6.98749e-13
1.11018e-07
1.15321e-11
1.29717e-11
-2.35057e-11
2.29153e-08
-1.81014e-11
4.40349e-13
-1.4894e-12
-9.68268e-11
1.30973e-10
-1.30224e-10
9.67835e-11
1.09697e-07
5.14412e-11
1.44998e-13
2.49367e-08
1.12271e-11
-9.34726e-11
-2.18983e-12
-5.55971e-12
7.94573e-09
-1.93885e-12
-7.93604e-09
4.91652e-13
1.11538e-12
3.23667e-12
-5.72151e-12
5.8256e-12
-3.68451e-12
1.09072e-07
5.99541e-12
5.2131e-12
-1.01381e-12
2.32868e-08
-1.00747e-11
1.55626e-13
1.70666e-11
2.55119e-08
-1.85871e-11
5.3617e-12
-1.1555e-11
5.5871e-12
-2.33725e-11
2.45908e-08
4.33296e-12
-6.25715e-12
3.25833e-12
-1.50898e-11
2.47231e-08
2.40539e-12
-3.23715e-12
8.10401e-09
-1.97817e-12
-8.09758e-09
-5.7126e-12
7.9471e-09
-1.84533e-12
-7.93742e-09
-6.61254e-12
-1.53095e-11
2.49155e-08
2.48183e-12
-2.48993e-08
-1.13419e-11
-2.33641e-11
2.44048e-08
4.51635e-12
-2.43803e-08
-5.15312e-12
1.60054e-08
-2.05653e-12
-1.72822e-12
-1.74281e-11
2.25742e-08
5.92905e-12
2.16099e-12
-8.21957e-13
2.32781e-08
-1.02902e-11
-2.32788e-08
4.11174e-13
5.23557e-13
2.17406e-11
-6.10333e-12
6.36764e-12
-2.14245e-11
-1.114e-07
1.11399e-07
1.72776e-13
2.55129e-08
5.32803e-12
-1.88431e-11
-2.5517e-08
6.40436e-12
-7.56744e-13
2.32705e-08
-1.00305e-11
7.76056e-13
2.17202e-11
-6.1944e-12
6.33701e-12
-2.15466e-11
1.11415e-07
2.55164e-08
5.27888e-12
-1.84831e-11
-1.53369e-11
2.47822e-08
2.52047e-12
5.6314e-12
-2.36488e-11
2.45377e-08
4.31629e-12
-2.03118e-12
7.94779e-09
-1.87603e-12
-2.32418e-11
2.29031e-08
-1.78382e-11
-2.28866e-08
5.50858e-13
-1.42879e-12
-9.68547e-11
1.31422e-10
-1.30232e-10
9.72133e-11
-1.09694e-07
1.09692e-07
1.67359e-13
2.49353e-08
1.11793e-11
-9.35308e-11
-2.49046e-08
-1.31432e-11
1.56495e-08
-3.43948e-12
-1.55899e-12
-1.56335e-08
-5.15027e-11
2.19167e-08
1.65547e-11
4.5728e-12
-2.18864e-08
-1.68315e-12
-7.81831e-11
1.30665e-10
-1.29916e-10
7.92908e-11
-1.10856e-07
1.10856e-07
1.15977e-11
-2.32027e-11
2.28879e-08
-1.79129e-11
-2.28715e-08
2.49325e-08
-9.35592e-11
1.10722e-11
-2.49014e-08
1.56552e-08
-3.29286e-12
-1.62866e-12
-4.0304e-15
2.19212e-08
4.63717e-12
1.64326e-11
-1.70598e-12
-7.82092e-11
1.30497e-10
-1.29947e-10
7.91157e-11
1.10858e-07
1.31235e-11
-2.32618e-11
2.28997e-08
-1.78379e-11
5.14604e-11
2.49338e-08
-9.34851e-11
1.10608e-11
2.12198e-12
1.56504e-08
-3.38473e-12
-1.63288e-12
2.19173e-08
1.64434e-11
4.56213e-12
-2.31372e-11
2.44579e-08
4.42249e-12
-2.44332e-08
3.18885e-12
-1.5885e-11
2.48565e-08
2.65077e-12
-9.15396e-13
8.10405e-09
-1.99453e-12
1.40066e-12
3.21469e-12
-5.756e-12
5.56099e-12
-3.91843e-12
1.09084e-07
5.39716e-12
-7.01133e-13
2.32792e-08
-1.00911e-11
1.70769e-11
2.5515e-08
-1.85867e-11
5.29587e-12
1.60028e-08
-2.01689e-12
-1.73396e-12
2.31344e-14
2.2569e-08
2.14803e-12
5.49605e-12
9.5835e-13
1.60055e-08
-2.05916e-12
-1.73757e-12
2.2573e-08
2.12931e-12
5.28252e-12
7.94643e-09
-2.01291e-12
8.10425e-09
-2.10722e-12
-1.75478e-13
-6.72848e-09
1.03155e-12
2.51002e-12
6.72511e-09
2.02189e-12
-1.22149e-12
5.41008e-12
1.676e-12
1.59954e-08
2.40599e-08
-7.70436e-14
-3.66046e-12
-1.01144e-11
-2.40484e-08
3.46151e-12
9.92059e-12
2.40484e-08
-1.18889e-12
-2.28941e-12
-6.72508e-09
6.92519e-13
4.227e-12
-1.20491e-08
1.02488e-12
1.20442e-08
-5.45834e-12
-2.1524e-12
2.13406e-13
1.70191e-11
2.25612e-08
1.46239e-08
7.04441e-13
6.82864e-14
-9.37002e-13
-1.4618e-08
2.15877e-08
4.48609e-12
-1.49709e-11
-2.15787e-08
1.60894e-13
1.01695e-12
1.4618e-08
1.45869e-11
2.15786e-08
-8.86647e-13
-1.20442e-08
1.17487e-12
3.16177e-12
1.65783e-12
8.09757e-09
-1.35117e-11
-1.10555e-12
1.94437e-12
-1.16827e-08
-8.56281e-13
1.16963e-08
4.60639e-12
1.64988e-11
-2.18898e-08
-1.0803e-14
2.19201e-08
-5.1409e-11
6.83373e-12
-2.09657e-08
2.09925e-08
-4.24475e-11
-1.41663e-08
-8.5464e-15
-8.48303e-13
1.41825e-08
3.76155e-12
-6.52428e-09
6.51623e-09
2.05371e-12
2.22701e-12
3.39778e-12
1.56384e-08
-2.24136e-12
1.31343e-11
1.62563e-12
2.34492e-08
4.14032e-12
-6.87538e-12
-2.71909e-11
-2.34226e-08
2.34226e-08
6.9513e-12
2.67417e-11
-1.95792e-12
-2.00152e-12
-6.51618e-09
-4.15775e-12
-2.04147e-12
6.52438e-09
-3.34384e-12
2.1219e-12
-1.5544e-12
1.56544e-08
-1.32198e-11
2.34491e-08
-2.71854e-11
1.34401e-11
1.18366e-12
-1.16962e-08
8.75338e-13
-4.55915e-12
-1.65286e-11
-2.25894e-14
5.15273e-11
2.09926e-08
1.35015e-11
-4.24833e-11
-2.09658e-08
1.41824e-08
1.10174e-12
-1.18626e-14
-8.23958e-13
-1.41662e-08
4.26384e-11
-1.6379e-14
8.64648e-13
-8.26317e-13
-1.16827e-08
7.93616e-09
2.22821e-12
5.33976e-12
2.00382e-12
-2.23538e-12
-2.01848e-12
7.9458e-09
-5.38556e-12
2.03185e-11
-1.16046e-11
-2.16697e-08
-1.33976e-11
2.36976e-11
2.16507e-08
2.48189e-08
2.08727e-11
-4.40536e-11
-3.20295e-11
2.31499e-11
-4.42332e-12
-5.5093e-12
1.12722e-11
2.45663e-08
1.5114e-08
-1.18282e-11
2.93163e-12
-1.02695e-12
4.38841e-11
3.12826e-11
2.47872e-08
-2.99173e-12
9.30722e-13
1.51e-08
1.38372e-11
-2.40795e-11
1.7453e-11
-8.70117e-12
-2.07596e-08
-1.37396e-11
1.78663e-11
2.07467e-08
2.42068e-08
1.72012e-11
-3.03496e-11
-2.27924e-11
1.47551e-11
-2.76425e-12
-3.2062e-12
6.39002e-12
2.4708e-08
1.50087e-08
-9.06011e-12
2.42488e-12
-1.06619e-12
2.94223e-11
2.34985e-11
2.4186e-08
-2.59114e-12
9.4111e-13
1.49989e-08
1.37377e-11
-1.87401e-11
-3.55274e-12
-3.17723e-12
-1.76641e-08
1.76437e-08
6.6089e-09
-3.58735e-12
-1.64123e-12
6.65052e-09
-3.30763e-12
-1.69613e-12
1.47949e-12
6.60088e-09
1.52269e-12
6.64323e-09
3.08037e-12
2.02927e-12
8.09768e-09
7.93751e-09
5.27878e-12
2.07034e-12
-1.84724e-12
7.9472e-09
-5.7252e-12
-8.89063e-12
1.72405e-11
-2.17622e-08
-1.29598e-11
2.11546e-11
2.17456e-08
2.50383e-08
1.6677e-11
-3.24741e-11
-2.20354e-11
-2.50158e-08
-2.81978e-12
1.53437e-11
6.7576e-12
2.48993e-08
1.52572e-08
-9.26318e-12
2.19728e-12
-1.01244e-12
-1.52466e-08
-2.31501e-12
1.073e-12
1.52467e-08
3.21088e-11
2.29619e-11
2.50158e-08
1.28943e-11
-2.19017e-11
-2.17457e-08
-1.15094e-11
2.11582e-11
-2.06737e-08
-1.39257e-11
2.01315e-11
2.06578e-08
2.40057e-08
2.17995e-11
-4.05209e-11
-3.21986e-11
-2.39781e-08
-4.41436e-12
2.31479e-11
1.10225e-11
2.43803e-08
1.487e-08
-1.18946e-11
3.0634e-12
-9.20351e-13
-1.48557e-08
-2.83733e-12
1.09161e-12
1.48558e-08
4.03087e-11
3.15255e-11
2.39781e-08
1.45387e-11
-2.03673e-11
-2.06579e-08
-2.87539e-12
-3.56265e-12
-1.76661e-08
1.76457e-08
6.64639e-09
-3.30743e-12
-1.57848e-12
-6.63931e-09
6.61301e-09
-3.7272e-12
-1.47916e-12
-6.60474e-09
1.80008e-12
6.6394e-09
1.77847e-12
6.60483e-09
-1.76457e-08
1.97394e-14
-6.73211e-09
1.06224e-12
2.26229e-12
6.72877e-09
1.79958e-12
5.42074e-12
1.51849e-12
1.59978e-08
2.40698e-08
-1.34925e-13
-3.67993e-12
-1.03753e-11
3.42936e-12
1.00242e-11
2.40582e-08
-1.20349e-12
-2.39811e-12
5.88218e-13
4.51457e-12
-1.20552e-08
8.80074e-13
1.20502e-08
-5.68852e-12
-1.9747e-12
1.68251e-11
2.25652e-08
1.4627e-08
7.26757e-13
-9.74567e-13
2.15959e-08
4.68309e-12
-1.49963e-11
8.91628e-13
1.46212e-08
1.43458e-11
2.15875e-08
-9.42703e-13
1.80417e-11
6.2705e-11
-2.07933e-08
-1.22866e-10
-1.16613e-10
2.0952e-08
2.46007e-08
1.42202e-11
-3.48708e-11
-2.21162e-11
-1.18306e-11
1.01034e-11
6.56504e-12
2.47805e-08
1.49997e-08
-1.12787e-11
1.70877e-13
-1.17928e-12
-2.59434e-11
6.25821e-13
1.50313e-08
-1.56147e-12
2.66884e-11
2.46484e-08
-1.05842e-12
-3.70188e-11
-2.44632e-11
-3.8661e-11
-2.16531e-08
1.0467e-10
1.48021e-10
2.14635e-08
2.44422e-08
2.41804e-11
-3.9485e-11
-3.28034e-11
2.80039e-11
4.83914e-12
-5.12403e-12
1.11528e-11
2.44989e-08
1.51246e-08
-1.09248e-11
5.14753e-12
-9.10896e-13
7.44281e-11
2.8002e-11
2.43433e-08
2.07835e-11
1.17267e-12
1.50689e-08
3.00178e-11
-7.17925e-12
2.06355e-11
-2.62317e-11
-1.76706e-08
1.7658e-08
6.65017e-09
-5.4819e-12
-1.64346e-12
6.60989e-09
-1.78662e-12
-1.48056e-12
1.39839e-12
6.64347e-09
1.79053e-12
6.60265e-09
2.32617e-12
1.86371e-12
7.93848e-09
-1.10516e-12
-1.36054e-11
2.00821e-12
-1.16765e-08
-8.1527e-13
1.169e-08
1.65173e-11
4.57593e-12
-2.18863e-08
2.19166e-08
-5.14322e-11
-1.41628e-08
-8.41342e-13
1.41791e-08
6.97408e-12
-2.09569e-08
2.09835e-08
-4.26673e-11
3.77818e-12
-6.52043e-09
6.5124e-09
2.00504e-12
2.24912e-12
3.32135e-12
1.56336e-08
1.31975e-11
1.60324e-12
2.34375e-08
4.09275e-12
-6.98906e-12
-2.70559e-11
-2.3411e-08
2.3411e-08
6.86505e-12
2.67348e-11
-2.00726e-12
-1.99356e-12
-6.51234e-09
-4.10647e-12
-2.02129e-12
6.52053e-09
-3.45255e-12
-1.56594e-12
1.56495e-08
-1.31488e-11
2.34375e-08
-2.70685e-11
1.1984e-12
1.33216e-11
-1.16899e-08
9.17008e-13
-1.64966e-11
-4.59813e-12
5.14997e-11
1.4179e-08
1.0906e-12
-8.17777e-13
-1.41627e-08
2.09836e-08
1.35943e-11
-4.27063e-11
-2.09569e-08
8.71414e-13
4.23486e-11
-7.85901e-13
-1.16764e-08
3.77547e-12
-6.52425e-09
2.11262e-12
1.91622e-12
6.51644e-09
3.46527e-12
1.29354e-11
1.47348e-12
1.56397e-08
2.34498e-08
3.83243e-12
-6.8159e-12
-2.69006e-11
6.93077e-12
2.63957e-11
2.34237e-08
-1.87807e-12
-2.18339e-12
1.33561e-11
1.22707e-12
-1.16961e-08
6.83817e-13
1.16829e-08
-4.56101e-12
-1.65907e-11
-1.76698e-14
5.12296e-11
2.18912e-08
2.09933e-08
1.31727e-11
-4.21861e-11
1.41824e-08
1.09015e-12
-6.60756e-15
-9.28069e-13
4.21511e-11
2.09669e-08
-7.13709e-15
6.62423e-13
1.41664e-08
-9.23775e-13
4.01386e-12
-6.52058e-09
2.09057e-12
1.94061e-12
6.51254e-09
3.37526e-12
-2.32753e-12
1.32163e-11
1.46072e-12
1.56347e-08
2.34388e-08
3.9988e-12
-6.9621e-12
-2.70299e-11
6.88458e-12
2.66268e-11
2.34127e-08
-1.9753e-12
-2.16179e-12
1.22046e-12
1.34602e-11
-1.16901e-08
7.20381e-13
1.16768e-08
-1.65563e-11
-4.59193e-12
5.12181e-11
2.18873e-08
1.41792e-08
1.08597e-12
-9.23392e-13
2.09842e-08
1.34678e-11
-4.26518e-11
6.68992e-13
1.41632e-08
4.21492e-11
2.09579e-08
-8.83135e-13
-1.14679e-11
2.07338e-11
-2.06739e-08
-1.43918e-11
1.99929e-11
2.06591e-08
2.43806e-08
2.09133e-11
-4.20115e-11
-3.20259e-11
-2.43506e-08
-4.52486e-12
2.32811e-11
1.13805e-11
2.44331e-08
1.48552e-08
-1.19116e-11
2.89663e-12
-8.98698e-13
-1.48409e-08
-2.75316e-12
1.08339e-12
1.48409e-08
4.25399e-11
3.16305e-11
2.43504e-08
1.47767e-11
-1.9983e-11
-2.06597e-08
1.72212e-11
-9.27539e-12
-2.17707e-08
-1.25026e-11
2.18977e-11
2.17533e-08
2.46534e-08
1.71629e-11
-3.18692e-11
-2.24952e-11
-2.46321e-08
1.5194e-11
-2.96786e-12
-2.89231e-12
6.10235e-12
2.48411e-08
1.52704e-08
-9.97252e-12
2.42358e-12
-1.01213e-12
3.06847e-11
2.3114e-11
2.4632e-08
-2.5538e-12
9.92169e-13
1.52597e-08
1.24769e-11
-2.27568e-11
-2.17532e-08
-3.33332e-12
-2.94782e-12
-1.76691e-08
1.76485e-08
6.612e-09
-3.70794e-12
-1.67509e-12
-6.60372e-09
6.64751e-09
-3.3892e-12
-1.35879e-12
1.71156e-12
6.6042e-09
1.84538e-12
6.64017e-09
-1.76489e-08
1.16512e-12
1.9009e-12
8.0981e-09
-1.86473e-13
-6.72775e-09
1.21912e-12
2.2945e-12
6.72442e-09
2.18252e-12
5.16723e-12
1.56518e-12
1.59951e-08
2.4058e-08
-7.10835e-14
-3.43095e-12
-1.01596e-11
3.57469e-12
9.55624e-12
2.40469e-08
-1.0341e-12
-2.46935e-12
4.5366e-12
7.50358e-13
-1.20479e-08
8.33365e-13
1.2043e-08
-2.16012e-12
-5.51467e-12
3.47779e-15
1.67653e-11
2.25599e-08
2.15854e-08
4.41043e-12
-1.43439e-11
1.46222e-08
6.59607e-13
6.51021e-15
-1.05421e-12
1.42261e-11
2.15771e-08
1.16809e-15
8.4088e-13
1.46166e-08
-1.042e-12
3.23762e-15
-6.73159e-09
1.24583e-12
2.31479e-12
6.72803e-09
2.16723e-12
-1.17727e-12
5.39004e-12
1.57075e-12
1.59976e-08
2.40678e-08
1.07037e-13
-3.44233e-12
-1.01238e-11
3.57619e-12
9.50981e-12
2.40569e-08
-1.07938e-12
-2.4799e-12
4.52592e-12
7.34051e-13
-1.2054e-08
8.38717e-13
1.20492e-08
-2.14524e-12
-5.29417e-12
1.6764e-11
2.25637e-08
2.15942e-08
4.41665e-12
-1.43614e-11
1.46255e-08
6.46198e-13
-1.05137e-12
1.41944e-11
2.1586e-08
8.42779e-13
1.46201e-08
-1.03495e-12
1.75035e-12
7.93684e-09
1.80735e-12
8.09806e-09
1.72577e-13
2.90435e-13
-1.14834e-07
1.14833e-07
-5.08789e-13
7.98554e-14
-1.12554e-07
1.12553e-07
2.78581e-13
-1.98912e-13
-1.21306e-07
1.21305e-07
1.64769e-11
1.96489e-11
-2.39007e-08
2.39061e-08
2.60208e-08
1.74776e-11
2.4964e-08
1.99666e-11
-4.9153e-11
-3.15898e-11
2.67601e-08
2.60088e-08
2.49674e-08
1.49947e-11
2.17347e-11
-2.38913e-08
2.38959e-08
2.6111e-08
1.50649e-11
-2.61094e-08
2.48709e-08
2.2662e-11
-2.48654e-08
-3.98902e-11
-4.03976e-11
2.67485e-08
2.61095e-08
2.48654e-08
-2.38959e-08
-2.32174e-11
6.21472e-11
-2.38986e-08
2.38911e-08
2.6061e-08
1.25394e-11
2.49207e-08
2.41942e-11
-4.67148e-11
-3.38934e-11
2.67493e-08
2.4903e-08
2.60742e-08
1.73867e-11
1.81621e-11
-2.38829e-08
2.38892e-08
2.59583e-08
1.90772e-11
-2.59473e-08
2.50026e-08
1.74931e-11
-2.50046e-08
-3.22039e-11
-4.8508e-11
2.67541e-08
2.50046e-08
2.59473e-08
-2.3889e-08
2.44432e-13
1.14837e-07
-8.43482e-13
7.53181e-14
1.12561e-07
-2.19652e-13
1.21309e-07
-8.55201e-13
-1.16028e-07
1.16027e-07
9.4349e-13
2.82789e-13
-1.1054e-07
1.1054e-07
2.89993e-13
-1.2144e-07
1.21439e-07
-1.18313e-12
1.16036e-07
1.04773e-12
1.10544e-07
1.21443e-07
-3.67876e-11
-4.45574e-11
-2.5993e-08
-2.58532e-11
2.60441e-08
2.53293e-08
-3.81696e-11
2.37968e-11
1.70685e-11
2.28985e-08
2.4354e-08
-4.58227e-11
-1.55341e-11
2.52863e-08
1.51384e-11
2.43378e-08
2.47346e-11
-7.16109e-11
1.75418e-11
-2.57061e-08
2.56374e-08
-1.06212e-11
9.29454e-11
-5.91204e-14
2.49057e-08
2.43616e-08
-7.14759e-11
2.64418e-08
1.84199e-11
7.13308e-12
2.43366e-08
-6.77152e-12
2.64288e-08
-2.25299e-11
-3.76851e-12
-2.63344e-08
-5.32684e-11
2.64187e-08
2.56185e-08
-2.20504e-11
-2.55974e-08
1.13144e-12
9.74021e-12
2.32872e-08
2.48284e-08
-5.23136e-12
-6.44552e-12
2.55973e-08
6.81085e-12
2.48371e-08
5.31468e-11
-2.64188e-08
5.53418e-12
-1.20447e-11
-2.60432e-08
2.59997e-08
1.83138e-11
-5.13893e-12
-1.52819e-16
2.55155e-08
2.68828e-08
5.83557e-12
4.28465e-13
2.48599e-08
-1.15856e-11
-1.34352e-13
2.69126e-08
2.48637e-08
-3.70001e-12
-2.62093e-11
-2.63177e-08
8.49513e-12
2.63637e-08
2.56325e-08
-2.57431e-11
-2.56088e-08
9.86094e-12
1.64542e-12
2.32787e-08
2.48281e-08
-4.16693e-12
-1.00478e-11
-2.48343e-08
9.87234e-12
2.48344e-08
2.56088e-08
-8.36173e-12
-2.63635e-08
-1.0773e-11
8.69488e-12
-2.60546e-08
2.6087e-08
-5.17784e-12
1.80763e-11
2.92709e-14
2.5517e-08
2.48618e-08
-1.15683e-11
-2.48699e-08
2.68843e-08
9.0046e-12
4.69335e-13
-2.69187e-08
2.48703e-08
-3.84478e-13
2.69178e-08
-2.6087e-08
-3.38156e-12
-2.6393e-11
-2.63203e-08
8.73974e-12
2.63658e-08
2.55812e-08
-2.54703e-11
9.54792e-12
1.40892e-12
2.32716e-08
2.48339e-08
-4.12947e-12
-1.00326e-11
9.77529e-12
2.48403e-08
2.55639e-08
-8.2918e-12
-1.08118e-11
9.01034e-12
-2.60598e-08
2.6092e-08
-5.11757e-12
1.79103e-11
2.55204e-08
2.48686e-08
-1.15718e-11
2.68879e-08
8.92435e-12
2.48768e-08
2.69208e-08
-4.48012e-11
-3.67115e-11
-2.59887e-08
-2.59544e-11
2.604e-08
2.52749e-08
-3.75862e-11
-2.5238e-08
1.70073e-11
2.36841e-11
2.28866e-08
2.43513e-08
-4.58767e-11
-1.5529e-11
-2.4335e-08
1.52833e-11
2.4335e-08
2.5238e-08
2.50728e-11
-2.60398e-08
-7.21799e-11
1.7517e-11
-2.57049e-08
2.56367e-08
-1.06639e-11
9.32349e-11
-6.59762e-14
2.49043e-08
2.43599e-08
-7.18269e-11
-2.43349e-08
2.64411e-08
1.8335e-11
7.24097e-12
-2.64288e-08
2.4335e-08
-6.849e-12
2.64285e-08
-2.56361e-08
-4.40667e-11
-3.9831e-11
-2.59631e-08
2.85603e-11
2.59832e-08
2.52809e-08
-4.05792e-11
-2.5242e-08
1.69921e-11
2.3934e-11
2.28716e-08
2.43408e-08
-4.47071e-11
-1.87067e-11
-2.43224e-08
1.81339e-11
2.43223e-08
2.52421e-08
-2.94285e-11
-2.59831e-08
2.08226e-11
-7.07288e-11
-2.57057e-08
2.5706e-08
9.32907e-11
-1.08322e-11
2.49015e-08
2.64392e-08
2.14818e-11
-2.64163e-08
2.43521e-08
-7.14433e-11
-2.4331e-08
2.64165e-08
2.4331e-08
-2.57058e-08
-3.95494e-11
-4.35517e-11
-2.59675e-08
2.84233e-11
2.59866e-08
2.53354e-08
-4.08128e-11
2.37575e-11
1.68499e-11
2.28836e-08
2.43431e-08
-4.43821e-11
-1.86746e-11
2.5296e-08
1.79726e-11
2.43251e-08
-2.9443e-11
2.07665e-11
-7.01867e-11
-2.57067e-08
2.57063e-08
9.30213e-11
-1.07708e-11
2.49027e-08
2.64401e-08
2.14635e-11
2.43533e-08
-7.10552e-11
2.64171e-08
2.43325e-08
-2.22373e-11
-3.66604e-12
-2.63376e-08
-5.33033e-11
2.64218e-08
2.55672e-08
-2.17412e-11
9.17965e-13
9.72115e-12
2.32804e-08
2.48339e-08
-5.20836e-12
-6.38986e-12
2.55464e-08
6.83159e-12
2.48427e-08
5.33641e-11
5.636e-12
-1.20061e-11
-2.60481e-08
2.60044e-08
1.83143e-11
-5.18369e-12
2.55186e-08
2.68861e-08
5.63457e-12
2.48659e-08
-1.16075e-11
2.69154e-08
2.48697e-08
-7.82242e-13
2.8946e-14
2.83583e-09
-1.74763e-13
-2.83656e-09
-3.56572e-13
-6.0814e-15
1.54936e-09
-8.24671e-14
-1.5497e-09
-1.3902e-13
-1.25779e-14
7.67982e-10
-3.72062e-14
-7.68149e-10
-3.41063e-14
-8.62024e-15
3.19149e-10
-1.48681e-14
-3.1923e-10
-3.10584e-15
7.59709e-11
-3.64521e-15
-7.59983e-11
-1.15567e-12
-5.62448e-14
5.30313e-09
-6.85449e-14
-5.48333e-13
-1.24621e-14
2.88059e-09
-4.52073e-14
-2.21816e-13
-1.09524e-15
1.42177e-09
-2.59813e-14
-5.55174e-14
1.85549e-15
5.88967e-10
-1.22871e-14
1.14425e-15
1.39908e-10
-3.26956e-15
-7.32891e-13
7.40087e-15
2.83762e-09
-1.33536e-13
-2.83832e-09
-3.33549e-13
-2.0784e-14
1.55047e-09
-5.93749e-14
-1.55079e-09
-1.30228e-13
-1.81915e-14
7.68553e-10
-2.68287e-14
-7.68711e-10
-3.20385e-14
-1.03119e-14
3.19357e-10
-1.11985e-14
-3.19433e-10
-3.32025e-15
7.60106e-11
-2.98856e-15
-7.60364e-11
-9.5423e-13
-2.88868e-14
5.30422e-09
-2.70372e-14
-5.30515e-09
-4.28392e-13
-1.70353e-15
2.88131e-09
-2.55814e-14
-2.88181e-09
-1.65808e-13
3.44991e-15
1.4222e-09
-1.62451e-14
-1.42245e-09
-4.04523e-14
2.86357e-15
5.89183e-10
-7.74016e-15
-5.89303e-10
1.22696e-15
1.39967e-10
-1.97415e-15
-1.40007e-10
-9.37183e-13
5.30315e-09
-6.48457e-14
-5.3041e-09
-4.09431e-13
2.88059e-09
-4.17155e-14
-2.88108e-09
-1.56494e-13
1.4217e-09
-2.41556e-14
-1.42194e-09
-3.82305e-14
5.88945e-10
-1.1438e-14
-5.8906e-10
1.39956e-10
-3.0135e-15
-1.39995e-10
-8.76082e-13
5.30507e-09
-4.25731e-14
-5.30599e-09
-3.84335e-13
2.88174e-09
-3.31588e-14
-2.88221e-09
-1.47912e-13
1.42238e-09
-2.04245e-14
-1.42262e-09
-3.64301e-14
5.892e-10
-9.89261e-15
-5.89312e-10
1.39962e-10
-2.62657e-15
-1.39999e-10
-8.44677e-13
2.83633e-09
-1.87655e-13
-4.0079e-13
1.54969e-09
-9.45487e-14
-1.62376e-13
7.6819e-10
-4.55706e-14
-4.07384e-14
3.19201e-10
-1.92953e-14
7.5974e-11
-4.88935e-15
-9.55668e-13
2.31402e-14
-6.49055e-14
5.30502e-09
-4.54552e-13
4.24528e-14
-4.74262e-14
2.88186e-09
-1.87684e-13
3.05664e-14
-2.90476e-14
1.42249e-09
-4.83483e-14
1.58828e-14
-1.40542e-14
5.89278e-10
4.69132e-15
-3.75797e-15
1.40015e-10
-7.37002e-13
2.83688e-09
-1.5301e-13
-2.83758e-09
-3.3691e-13
1.55016e-09
-7.54698e-14
-1.55049e-09
-1.31929e-13
7.68366e-10
-3.78152e-14
-7.6853e-10
-3.24527e-14
3.1931e-10
-1.69066e-14
-3.1939e-10
7.5986e-11
-4.57701e-15
-7.60127e-11
-8.00373e-13
2.83753e-09
-1.0762e-13
-3.8093e-13
1.55052e-09
-4.06569e-14
-1.54469e-13
7.686e-10
-1.55495e-14
-3.88248e-14
3.19409e-10
-5.76535e-15
7.60266e-11
-1.47958e-15
-8.02857e-13
1.7262e-14
2.83709e-09
-1.41558e-13
-3.82682e-13
-1.28606e-14
1.55017e-09
-6.47118e-14
-1.55171e-13
-1.38763e-14
7.68387e-10
-2.9413e-14
-3.89613e-14
-8.22686e-15
3.19326e-10
-1.20996e-14
-2.68487e-15
7.60162e-11
-3.08597e-15
-9.80119e-13
1.20818e-14
-9.00563e-14
5.30363e-09
-4.55962e-13
4.0149e-14
-5.30577e-14
2.88081e-09
-1.86225e-13
3.29e-14
-3.1914e-14
1.42196e-09
-4.79224e-14
1.85501e-14
-1.63435e-14
5.89048e-10
5.74895e-15
-4.73243e-15
1.39953e-10
-8.4633e-13
2.83596e-09
-1.22889e-13
-4.00993e-13
1.54954e-09
-4.69432e-14
-1.61986e-13
7.6809e-10
-1.57228e-14
-4.06164e-14
3.19175e-10
-4.40429e-15
7.5967e-11
-7.65601e-16
-8.50481e-13
8.23919e-15
2.83655e-09
-1.35243e-13
-4.04212e-13
-1.99776e-14
1.54991e-09
-6.11031e-14
-1.63595e-13
-1.79682e-14
7.68251e-10
-2.70519e-14
-4.10483e-14
-1.02759e-14
3.19264e-10
-1.08473e-14
-3.28863e-15
7.59803e-11
-2.70617e-15
-1.03405e-12
-5.11337e-14
5.30458e-09
-4.91451e-13
-3.72399e-14
2.88145e-09
-2.01194e-13
-2.22969e-14
1.42227e-09
-5.11301e-14
-1.06456e-14
5.8921e-10
-2.83478e-15
1.39974e-10
-1.07009e-12
-7.35401e-14
5.30376e-09
-5.05901e-13
-4.5533e-14
2.88107e-09
-2.06354e-13
-2.53324e-14
1.42197e-09
-5.23889e-14
-1.16621e-14
5.89072e-10
-3.02355e-15
1.39925e-10
1.228e-12
-1.23684e-13
2.12489e-13
-5.28138e-09
5.28257e-09
5.56536e-13
-5.42867e-14
1.14675e-13
-2.86847e-09
2.86908e-09
2.17637e-13
-2.37022e-14
6.1769e-14
-1.41557e-09
1.41587e-09
5.35368e-14
-9.60997e-15
2.88588e-14
-5.86366e-10
5.8651e-10
-2.4865e-15
7.93366e-15
-1.39303e-10
1.39351e-10
7.95395e-13
-1.56211e-14
2.8366e-09
3.64991e-13
1.59042e-14
1.54972e-09
1.43786e-13
1.61043e-14
7.68163e-10
3.55911e-14
9.44331e-15
3.19238e-10
3.06292e-15
7.6001e-11
7.14485e-13
2.40865e-15
1.23421e-14
5.30406e-09
2.92909e-13
-2.94306e-14
1.39324e-14
2.88102e-09
1.10749e-13
-2.47692e-14
1.16415e-14
1.42196e-09
2.79417e-14
-1.40597e-14
6.74843e-15
5.89057e-10
-4.50546e-15
1.92462e-15
1.39938e-10
-4.07859e-13
-9.7196e-14
-3.29474e-09
1.832e-13
3.29421e-09
-1.85189e-13
-5.30475e-14
-1.79639e-09
9.54545e-14
1.79613e-09
-7.41789e-14
-2.75932e-14
-8.8904e-10
4.99346e-14
8.88906e-10
-1.91443e-14
-1.23318e-14
-3.68981e-10
2.26263e-14
3.68916e-10
-3.2121e-15
-8.77665e-11
5.99739e-15
8.77446e-11
-3.89679e-13
-7.51795e-16
-3.59602e-09
3.59547e-09
-1.75176e-13
3.2655e-16
-1.95813e-09
1.95786e-09
-7.02062e-14
4.68943e-16
-9.68199e-10
9.68066e-10
-1.83082e-14
2.85693e-16
-4.01565e-10
4.015e-10
9.05122e-17
-9.54915e-11
9.54699e-11
1.09557e-12
-1.97512e-13
-5.2767e-09
2.5345e-13
5.27777e-09
4.9433e-13
-1.0237e-13
-2.86635e-09
1.40086e-13
2.86692e-09
1.93328e-13
-5.04799e-14
-1.4147e-09
7.4622e-14
1.41497e-09
4.77399e-14
-2.16331e-14
-5.85992e-10
3.39075e-14
5.86125e-10
-5.52826e-15
-1.39218e-10
8.9623e-15
1.39262e-10
7.71244e-13
2.83836e-09
-7.52152e-14
3.51888e-13
1.55081e-09
-2.60611e-14
1.37981e-13
7.68725e-10
-8.49608e-15
3.40641e-14
3.19441e-10
-1.97693e-15
7.60391e-11
1.18592e-16
-7.362e-13
6.06043e-15
-1.30658e-13
2.83766e-09
-3.35573e-13
-2.09888e-14
-5.86642e-14
1.55049e-09
-1.31378e-13
-1.79919e-14
-2.68241e-14
7.68565e-10
-3.24441e-14
-1.01512e-14
-1.12648e-14
3.19363e-10
-3.28483e-15
-3.00503e-15
7.60129e-11
9.4989e-13
5.3052e-09
5.4601e-14
1.62305e-14
4.17868e-13
2.88182e-09
8.29281e-15
1.79096e-14
1.61873e-13
1.42244e-09
-4.36482e-15
1.33801e-14
4.02003e-14
5.89302e-10
-5.22739e-15
7.34216e-15
1.40007e-10
-2.21042e-15
2.15397e-15
-9.8416e-13
-4.67214e-14
5.30424e-09
-2.37448e-14
-4.39686e-13
-9.98085e-15
2.88131e-09
-2.60731e-14
-1.69417e-13
-7.28668e-16
1.42219e-09
-1.82408e-14
-4.12327e-14
1.84979e-15
5.89181e-10
-9.41924e-15
1.17133e-15
1.39968e-10
-2.60238e-15
-5.01049e-13
2.82127e-09
-2.60944e-15
-2.42512e-13
1.54126e-09
-1.22458e-14
-1.01229e-13
7.63901e-10
-8.80177e-15
-2.64442e-14
3.17361e-10
-4.28689e-15
7.55257e-11
-1.15454e-15
3.93879e-13
-2.26366e-14
3.11408e-15
2.82183e-09
1.69084e-13
-3.06305e-15
-4.84765e-15
1.54149e-09
6.5907e-14
1.51731e-15
-4.91322e-15
7.64007e-10
1.70291e-14
1.75805e-15
-2.86732e-15
3.17411e-10
7.34742e-16
-7.60719e-16
7.55427e-11
-5.16973e-13
2.82034e-09
-3.1524e-14
-2.49729e-13
1.54073e-09
-2.37367e-14
-1.03978e-13
7.63613e-10
-1.33828e-14
-2.70887e-14
3.17248e-10
-6.02033e-15
7.54991e-11
-1.57208e-15
3.95159e-13
9.77467e-15
-3.5911e-14
2.82091e-09
1.69167e-13
1.79264e-14
-2.99469e-14
1.54097e-09
6.57568e-14
1.31024e-14
-1.92413e-14
7.63723e-10
1.69923e-14
6.83914e-15
-9.53517e-15
3.173e-10
1.99356e-15
-2.54906e-15
7.55167e-11
-8.5054e-13
1.75133e-14
5.0922e-09
-4.07469e-13
7.46913e-15
2.76938e-09
-1.69546e-13
3.32139e-15
1.36783e-09
-4.40111e-14
1.35156e-15
5.66901e-10
3.28664e-16
1.34707e-10
-8.75999e-13
5.09224e-09
-4.19408e-13
2.76927e-09
-1.74205e-13
1.36786e-09
-4.51131e-14
5.66882e-10
1.34699e-10
6.479e-13
-1.64182e-14
5.09303e-09
2.65138e-13
-1.02563e-14
2.76977e-09
9.99239e-14
-5.83245e-15
1.368e-09
2.52525e-14
-2.74358e-15
5.6698e-10
-7.47626e-16
1.34734e-10
6.6729e-13
5.09309e-09
2.7479e-13
2.76967e-09
1.04093e-13
1.36804e-09
2.63293e-14
5.66963e-10
1.34727e-10
9.74184e-13
2.96899e-14
5.30416e-09
4.34865e-13
2.34965e-14
2.88112e-09
1.69969e-13
1.4632e-14
1.42196e-09
4.2253e-14
7.08321e-15
5.89075e-10
1.84974e-15
1.4e-10
1.00375e-12
5.30606e-09
3.03445e-15
4.48522e-13
2.88226e-09
8.54051e-15
1.74455e-13
1.42264e-09
7.0604e-15
4.2936e-14
5.89325e-10
3.96481e-15
1.40004e-10
1.13869e-15
-8.7743e-13
5.30514e-09
-4.01231e-14
-3.85557e-13
2.88177e-09
-3.16437e-14
-1.48854e-13
1.42241e-09
-1.94233e-14
-3.6793e-14
5.89212e-10
-9.24289e-15
1.39966e-10
-2.36723e-15
6.82056e-13
1.06774e-13
2.83706e-09
3.01676e-13
4.05298e-14
1.55001e-09
1.17005e-13
1.45042e-14
7.68335e-10
2.9114e-14
4.67668e-15
3.1927e-10
9.91626e-16
7.59976e-11
-4.54637e-13
2.82146e-09
2.98584e-14
-2.22887e-13
1.54128e-09
8.84433e-15
-9.4604e-14
7.63893e-10
2.00854e-15
-2.52877e-14
3.17391e-10
-1.97291e-16
7.55325e-11
-4.5663e-16
4.83127e-13
7.57918e-16
-2.17421e-15
2.82215e-09
2.02576e-13
6.61324e-15
-7.1331e-15
1.54156e-09
7.58237e-14
4.34378e-15
-4.02117e-15
7.64019e-10
1.84061e-14
1.61033e-15
-1.62493e-15
3.17448e-10
1.36682e-16
-3.55491e-16
7.55511e-11
-7.68998e-13
5.09302e-09
1.27009e-13
-3.69929e-13
2.76941e-09
8.2403e-14
-1.55824e-13
1.368e-09
4.55305e-14
-4.11312e-14
5.66931e-10
2.04366e-14
1.34714e-10
5.27144e-15
8.88911e-13
7.06477e-14
5.09385e-09
3.93299e-13
4.22594e-14
2.76987e-09
1.50881e-13
2.39877e-14
1.36822e-09
3.66531e-14
1.14847e-14
5.67035e-10
3.3287e-15
1.34748e-10
8.33435e-13
9.1511e-14
5.30595e-09
3.47037e-13
3.77313e-14
2.88231e-09
1.29693e-13
1.50508e-14
1.42269e-09
3.17166e-14
4.76887e-15
5.8937e-10
5.59985e-16
1.40046e-10
-3.86426e-13
-9.92709e-14
-3.2933e-09
2.06322e-13
3.29276e-09
-1.75539e-13
-5.60237e-14
-1.7956e-09
1.11604e-13
1.79534e-09
-7.07062e-14
-2.97875e-14
-8.88606e-10
5.92454e-14
8.88471e-10
-1.84191e-14
-1.3387e-14
-3.68829e-10
2.69257e-14
3.68763e-10
-3.45609e-15
-8.773e-11
7.12656e-15
8.7708e-11
-3.86213e-13
-3.59518e-09
3.59462e-09
-1.7375e-13
-1.95768e-09
1.95741e-09
-6.98046e-14
-9.67978e-10
9.67844e-10
-1.8272e-14
-4.01474e-10
4.01409e-10
-9.54699e-11
9.54483e-11
1.10758e-12
-1.75481e-13
2.39129e-13
-5.2739e-09
5.27498e-09
4.99949e-13
-8.35829e-14
1.28598e-13
-2.86495e-09
2.86551e-09
1.95403e-13
-3.80489e-14
6.72581e-14
-1.41392e-09
1.4142e-09
4.81395e-14
-1.53963e-14
3.02653e-14
-5.85736e-10
5.85869e-10
-3.82257e-15
7.95994e-15
-1.3913e-10
1.39174e-10
7.57737e-13
2.8376e-09
3.46188e-13
1.5505e-09
1.36405e-13
7.68533e-10
3.38031e-14
3.19392e-10
7.60138e-11
-7.40904e-13
-1.67179e-13
2.8369e-09
-3.37279e-13
-8.49908e-14
1.55017e-09
-1.32189e-13
-4.21734e-14
7.6837e-10
-3.26022e-14
-1.83263e-14
3.19313e-10
-4.7977e-15
7.59872e-11
6.60623e-13
2.15777e-13
2.83822e-09
2.90268e-13
1.15163e-13
1.55081e-09
1.11819e-13
5.75719e-14
7.68736e-10
2.76168e-14
2.47479e-14
3.19473e-10
6.31189e-15
7.60485e-11
8.83164e-13
-1.84707e-13
2.41789e-13
-5.27412e-09
5.27512e-09
3.73383e-13
-9.47338e-14
1.31526e-13
-2.86494e-09
2.86541e-09
1.41646e-13
-4.65259e-14
6.94665e-14
-1.41396e-09
1.41416e-09
3.50415e-14
-1.99413e-14
3.13732e-14
-5.8572e-10
5.85816e-10
-5.14253e-15
8.23945e-15
-1.39159e-10
1.39191e-10
6.52768e-13
-6.33715e-14
2.83778e-09
2.86828e-13
-1.98145e-14
1.55047e-09
1.10825e-13
-5.4907e-15
7.68522e-10
2.76481e-14
-7.15116e-16
3.1939e-10
6.41335e-16
7.60381e-11
-4.73356e-13
2.82086e-09
-1.47476e-14
-2.21192e-13
1.54093e-09
-4.92089e-15
-9.09544e-14
7.63721e-10
-3.09744e-15
-2.39143e-14
3.17297e-10
-2.50129e-15
7.55339e-11
-1.07407e-15
4.47741e-13
-1.29979e-14
7.46081e-15
2.82141e-09
2.03868e-13
-8.69031e-15
1.92597e-14
1.54117e-09
8.16136e-14
-2.60504e-15
1.25319e-14
7.63833e-10
2.10499e-14
2.62885e-16
4.93449e-15
3.17352e-10
7.60352e-16
7.79517e-16
7.55534e-11
-6.24068e-13
-1.10619e-14
5.09315e-09
-2.8456e-13
1.42183e-14
2.76957e-09
-1.20268e-13
1.43869e-14
1.36794e-09
-3.30918e-14
7.47327e-15
5.66889e-10
1.8557e-15
1.34731e-10
8.63845e-13
5.19117e-14
5.3046e-09
3.66853e-13
1.59333e-14