/*--------------------------------*- C++ -*----------------------------------*\
| =========                 |                                                 |
| \\      /  F ield         | OpenFOAM: The Open Source CFD Toolbox           |
|  \\    /   O peration     | Version:  2206                                  |
|   \\  /    A nd           | Website:  www.openfoam.com                      |
|    \\/     M anipulation  |                                                 |
\*---------------------------------------------------------------------------*/
FoamFile
{
    version     2.0;
    format      ascii;
    arch        "LSB;label=32;scalar=64";
    class       volVectorField;
    location    "0.3";
    object      wallShearStress;
}
// * * * * * * * * * * * * * * * * * * * * * * * * * * * * * * * * * * * * * //

dimensions      [0 2 -2 0 0 0 0];

internalField   uniform (0 0 0);

boundaryField
{
    topPatch
    {
        type            calculated;
        value           nonuniform List<vector> 0();
    }
    wall
    {
        type            calculated;
        value           nonuniform List<vector> 
7803
(
(-1.66021e-09 -3.24487e-09 -0.000135666)
(6.81812e-09 -3.97316e-10 -0.000141623)
(-2.90857e-09 -1.90311e-09 -0.000135767)
(4.42243e-11 5.46043e-09 -0.000141684)
(-8.10176e-09 1.60902e-09 -0.000141612)
(1.78699e-09 -8.20987e-09 -0.000141692)
(-1.84664e-10 -4.91765e-09 -0.000135677)
(-2.05781e-09 -1.05569e-08 -0.000141711)
(-3.81615e-09 -2.19033e-10 -0.000135769)
(2.98991e-09 -4.11215e-09 -0.000135782)
(3.9232e-09 1.81852e-09 -0.000135787)
(-1.25109e-08 -3.17369e-09 -0.000141645)
(-5.25379e-09 2.73864e-09 -0.000135688)
(2.61681e-09 3.83821e-09 -0.000135688)
(-6.09324e-10 8.17416e-09 -0.000141707)
(8.80682e-09 -8.51185e-10 -0.000141642)
(-9.44644e-09 5.91972e-09 -0.000141279)
(2.73791e-09 3.06536e-09 -0.000135745)
(-7.29806e-09 -1.95118e-09 -0.000141637)
(-2.89508e-09 6.56136e-09 -0.000138681)
(-1.76998e-09 1.91105e-09 -0.00013975)
(6.55017e-09 -1.29089e-08 -0.000141074)
(4.51501e-09 -1.42276e-09 -0.000135773)
(-2.96175e-09 -1.86345e-09 -0.000135772)
(-7.34527e-10 -6.80346e-09 -0.000141672)
(4.02292e-10 6.17684e-09 -0.000141686)
(1.25959e-09 3.5333e-09 -0.000136481)
(-1.13531e-09 -1.47064e-09 -0.000136429)
(3.78575e-09 1.15606e-09 -0.000136415)
(-3.06191e-09 -2.78878e-11 -0.000136395)
(1.70107e-09 2.53916e-09 -0.000141767)
(3.28802e-09 1.14356e-09 -0.000141752)
(-7.43871e-10 -1.50399e-09 -0.000141716)
(-2.95119e-09 4.44302e-10 -0.000141714)
(6.90687e-09 -6.29331e-10 -0.000141648)
(7.29268e-10 4.42225e-09 -0.000141676)
(1.65798e-09 -8.03344e-09 -0.000141697)
(-4.44774e-09 1.4842e-09 -0.000135734)
(6.63769e-10 -4.18208e-09 -0.000136482)
(-2.03192e-09 3.99695e-10 -0.000136433)
(5.18214e-09 1.63676e-09 -0.000141768)
(8.00163e-10 4.18961e-09 -0.000141726)
(-3.24119e-10 3.40527e-09 -0.000141673)
(-2.96946e-09 -7.41611e-09 -0.00013868)
(-1.76697e-09 -2.03614e-09 -0.000139746)
(5.97316e-09 1.06776e-08 -0.000141075)
(3.56023e-09 -9.2628e-10 -0.000135774)
(-4.01232e-09 -7.10438e-10 -0.000135771)
(-4.21457e-09 -2.93673e-09 -0.000135768)
(-5.40145e-09 1.21147e-08 -0.000141068)
(-3.50659e-09 1.14081e-09 -0.00013577)
(-4.31034e-09 3.59575e-10 -0.000136434)
(-1.30585e-10 -2.85581e-09 -0.000136423)
(-4.64519e-10 2.557e-09 -0.000141755)
(2.38938e-09 -1.10396e-09 -0.00014166)
(-1.29526e-08 -6.06673e-09 -0.000141267)
(-9.30272e-10 -3.67231e-09 -0.000135748)
(1.05523e-08 -5.42201e-09 -0.000141263)
(-2.59012e-09 -2.30289e-09 -0.000135747)
(1.34066e-10 -4.11657e-09 -0.000141667)
(-7.09327e-09 1.68555e-09 -0.000141656)
(7.37567e-09 4.52879e-09 -0.000141266)
(-5.72095e-09 -1.34986e-08 -0.000141066)
(-9.80322e-09 3.63633e-09 -0.000138484)
(-1.30599e-09 -1.81017e-09 -0.000139488)
(-5.02551e-09 2.18756e-09 -0.000139508)
(8.37573e-09 -3.01177e-09 -0.000138455)
(1.1223e-08 -5.96206e-09 -0.0001412)
(5.32838e-09 -2.0244e-10 -0.000136419)
(-2.12494e-09 2.27125e-10 -0.000136396)
(8.54151e-09 3.65882e-09 -0.00014175)
(1.34596e-09 2.81315e-09 -0.000141708)
(-5.04109e-09 9.14204e-09 -0.00014109)
(3.52729e-09 -1.00772e-08 -0.000138605)
(-1.60393e-09 2.23591e-09 -0.000139744)
(1.95527e-09 -3.01112e-09 -0.000139666)
(-2.65716e-09 7.2128e-09 -0.000138674)
(-5.27319e-09 8.91379e-09 -0.000141095)
(-4.73289e-10 3.16574e-09 -0.000136441)
(9.34942e-10 -2.85694e-09 -0.000136408)
(6.70514e-10 4.52078e-09 -0.00014174)
(5.55503e-09 3.12259e-09 -0.000141701)
(-3.76142e-09 -9.70532e-11 -0.000136415)
(2.40909e-09 1.48245e-09 -0.000136419)
(-3.96111e-09 7.28367e-10 -0.000141736)
(2.26674e-09 1.3782e-09 -0.000141724)
(-6.01064e-10 -2.76001e-09 -0.000136452)
(1.55325e-09 2.35206e-09 -0.000136419)
(-1.34835e-09 -1.39533e-09 -0.000141744)
(1.0827e-09 2.55339e-09 -0.000141716)
(6.16313e-09 2.40063e-09 -0.00013848)
(-6.8182e-09 -2.7985e-09 -0.0001395)
(-8.86157e-10 1.40404e-09 -0.000139508)
(-1.19018e-08 -4.41229e-09 -0.000138469)
(-1.27969e-08 -7.38339e-09 -0.000141209)
(3.48949e-09 9.42938e-09 -0.000138604)
(-1.59286e-09 -2.25098e-09 -0.00013974)
(1.96894e-09 3.04008e-09 -0.000139662)
(-2.70353e-09 -7.91709e-09 -0.000138674)
(-5.64567e-09 -1.13727e-08 -0.000141092)
(-5.86045e-09 -1.11479e-08 -0.000141095)
(5.71631e-09 7.57894e-09 -0.000141103)
(-2.52878e-09 -9.86087e-09 -0.000138597)
(2.58506e-09 2.17828e-09 -0.000139761)
(-1.05586e-09 -2.85718e-09 -0.00013966)
(3.65008e-09 7.08968e-09 -0.000138689)
(-2.5505e-09 9.62425e-09 -0.000138596)
(2.57823e-09 -2.14061e-09 -0.000139756)
(-1.08824e-09 3.20076e-09 -0.000139654)
(3.67059e-09 -7.64356e-09 -0.000138689)
(6.22084e-09 -9.56134e-09 -0.000141108)
(7.15509e-09 2.75645e-09 -0.000141742)
(7.21394e-09 5.93102e-09 -0.000141205)
(-1.10683e-08 -3.4368e-09 -0.000138474)
(1.93801e-09 3.13627e-09 -0.000139497)
(-2.81772e-09 -1.76417e-09 -0.000139502)
(7.45844e-09 4.24257e-09 -0.000138462)
(-9.4538e-09 6.57574e-09 -0.000141204)
(9.43543e-09 -2.79094e-09 -0.000138477)
(-3.17104e-09 2.84593e-09 -0.0001395)
(2.02645e-09 -1.34951e-09 -0.000139506)
(-9.03019e-09 4.12674e-09 -0.000138465)
(3.49933e-09 1.05527e-09 -0.000135775)
(-1.74649e-09 -6.9504e-09 -0.000141674)
(-6.24299e-09 -9.66003e-09 -0.000141108)
(-3.22156e-09 2.76557e-09 -0.000135788)
(6.07915e-10 7.70048e-09 -0.000141706)
(-3.64236e-09 7.35974e-09 -0.000138691)
(1.09689e-09 -2.78594e-09 -0.000139663)
(-2.3107e-09 2.40814e-09 -0.000139762)
(2.63222e-09 -9.58019e-09 -0.000138598)
(-3.5657e-09 -7.13201e-09 -0.00013869)
(1.11474e-09 3.25457e-09 -0.00013966)
(-2.26638e-09 -1.69425e-09 -0.000139758)
(2.69893e-09 9.54253e-09 -0.000138598)
(5.3559e-09 1.13825e-08 -0.00014107)
(8.2856e-10 -1.04407e-09 -0.000136404)
(1.24009e-09 6.98234e-09 -0.000136459)
(5.23424e-09 4.70371e-09 -0.000141712)
(-1.41538e-13 3.99988e-09 -0.00014177)
(7.01027e-09 -1.71093e-09 -0.000141646)
(-8.95937e-11 4.11484e-09 -0.000141674)
(3.37924e-09 1.92758e-09 -0.000135743)
(3.71327e-09 -1.5902e-09 -0.000135771)
(-7.70365e-09 5.89801e-10 -0.000141631)
(9.30339e-10 -8.1428e-09 -0.00014171)
(1.23959e-08 -7.30051e-09 -0.000141215)
(-9.0642e-10 -4.20454e-09 -0.000135683)
(-3.6638e-09 -1.66755e-09 -0.000135785)
(2.0605e-09 3.0576e-10 -0.000141721)
(1.13412e-10 2.22425e-09 -0.000141713)
(-6.02391e-09 8.91907e-09 -0.000141106)
(5.7704e-09 -1.29162e-08 -0.000141067)
(2.29221e-09 5.1005e-10 -0.000136417)
(-3.69157e-09 -1.03398e-09 -0.000136433)
(8.05088e-10 1.92991e-09 -0.000136417)
(-1.38307e-09 -2.8917e-09 -0.00013647)
(-2.31251e-09 -1.57357e-09 -0.000141763)
(-3.96331e-09 -3.73475e-10 -0.000141755)
(1.17216e-08 -4.45552e-09 -0.000138468)
(1.42197e-09 1.34062e-09 -0.000139514)
(8.45407e-09 -2.64047e-09 -0.000139501)
(-6.63695e-09 2.59705e-09 -0.000138481)
(-7.83e-09 4.80426e-09 -0.000141274)
(3.09673e-10 -4.08066e-09 -0.000135641)
(3.16688e-09 -1.80631e-09 -0.000141582)
(-2.94508e-09 2.69816e-09 -0.000141715)
(-2.66597e-09 -4.25478e-09 -0.000135721)
(3.80373e-10 7.50399e-09 -0.000141645)
(-1.23417e-09 8.28248e-09 -0.000141671)
(-6.24469e-10 -4.70422e-09 -0.000141716)
(7.94614e-09 -1.03094e-09 -0.000141614)
(-6.21168e-09 2.40985e-10 -0.000141692)
(-3.0485e-10 -5.54361e-09 -0.00014173)
(-1.45375e-09 8.82257e-09 -0.000141655)
(-6.91149e-09 7.67011e-10 -0.0001417)
(7.77815e-09 -9.17632e-10 -0.000141603)
(-6.2419e-09 -2.46952e-10 -0.000141586)
(2.39967e-09 -1.0894e-08 -0.00014165)
(-2.13608e-09 -4.50083e-09 -0.000135639)
(-1.1796e-08 5.82281e-10 -0.000135846)
(-3.038e-09 -1.29557e-08 -0.000141653)
(-3.94906e-09 1.13867e-09 -0.000135724)
(2.42437e-09 -6.30459e-09 -0.00013572)
(3.54774e-09 3.33156e-09 -0.000135724)
(-9.54189e-09 -2.06324e-09 -0.000141601)
(-2.59122e-09 3.24445e-09 -0.00013565)
(1.39667e-09 3.70528e-09 -0.000135649)
(-1.92424e-09 1.07104e-08 -0.000141645)
(7.68927e-09 -9.20155e-10 -0.000141598)
(6.42349e-10 3.60957e-09 -0.000136447)
(-1.82971e-09 -1.82054e-09 -0.000136466)
(2.9678e-09 1.12678e-09 -0.000136384)
(-2.14022e-09 -1.57492e-09 -0.000136426)
(7.69393e-10 2.8131e-09 -0.000141729)
(2.77522e-09 8.64052e-10 -0.000141716)
(-2.02139e-09 -1.66217e-09 -0.000136475)
(7.56184e-10 3.2356e-09 -0.000136439)
(-1.92346e-09 -1.78259e-09 -0.000136434)
(2.33046e-09 1.42264e-09 -0.000136378)
(-2.17746e-08 2.85445e-09 -0.000138492)
(-8.01674e-09 3.12446e-09 -0.000139624)
(-6.4588e-09 -8.30373e-10 -0.000139523)
(-3.60274e-08 8.90281e-09 -0.000138589)
(-9.5214e-09 7.04696e-09 -0.000141299)
(1.01025e-08 3.36297e-10 -0.000135789)
(6.101e-09 -1.30224e-09 -0.000141215)
(1.14289e-08 -5.52457e-09 -0.000135678)
(-3.62807e-09 1.34022e-10 -0.000141675)
(2.41632e-09 2.89887e-10 -0.00014159)
(7.78069e-09 -1.29643e-08 -0.000141129)
(6.01471e-09 -2.47097e-09 -0.00013583)
(2.36641e-10 -7.32874e-09 -0.000141723)
(-5.20086e-10 5.54655e-09 -0.000136424)
(-2.11059e-09 -3.30009e-09 -0.000136488)
(2.86151e-09 1.2559e-09 -0.000136365)
(-4.13506e-09 -1.43427e-09 -0.000136447)
(-3.8554e-10 -4.89294e-09 -0.000141706)
(-1.37082e-09 8.07602e-09 -0.000141663)
(-6.40549e-09 4.48083e-10 -0.000141685)
(7.35747e-09 -9.75991e-10 -0.000141608)
(-1.51383e-09 -2.33176e-09 -0.000136489)
(5.95581e-10 3.62194e-09 -0.000136429)
(-2.70047e-09 -1.16294e-09 -0.000136445)
(2.06351e-09 1.67256e-09 -0.00013637)
(-1.9443e-09 -1.61829e-09 -0.000141775)
(-2.64271e-09 -1.07459e-09 -0.000141769)
(5.18367e-10 3.85539e-09 -0.000136431)
(-2.2176e-09 -1.83002e-09 -0.000136482)
(2.68635e-09 1.34801e-09 -0.000136371)
(-2.15747e-09 -1.92087e-09 -0.000136439)
(-1.51802e-09 8.80791e-09 -0.000141653)
(-8.44306e-10 -4.85264e-09 -0.000141722)
(7.24733e-09 -8.11742e-10 -0.000141603)
(-6.44488e-09 1.25929e-10 -0.000141696)
(4.51239e-09 3.76916e-10 -0.000141682)
(-2.8495e-10 -8.19929e-10 -0.000141602)
(3.03821e-09 2.57804e-09 -0.000141729)
(2.3292e-08 3.06201e-09 -0.000138492)
(1.08863e-08 3.29176e-09 -0.000139627)
(7.34258e-09 -8.07331e-10 -0.000139526)
(4.18299e-08 9.95812e-09 -0.00013859)
(-1.09281e-08 -5.15354e-10 -0.000135783)
(-1.06997e-08 -5.45193e-09 -0.000135671)
(-8.63775e-10 -6.63827e-09 -0.000136425)
(-4.55606e-09 -7.51859e-10 -0.000136488)
(-2.5384e-09 -7.20812e-09 -0.000136443)
(1.89574e-09 -2.21781e-09 -0.000141718)
(-2.11152e-10 5.24446e-09 -0.000141774)
(-2.87915e-09 1.91801e-09 -0.000141725)
(-2.59463e-09 -1.06289e-08 -0.000141669)
(4.30558e-09 -1.86725e-09 -0.000135831)
(3.27142e-09 5.60823e-09 -0.000138632)
(2.13035e-09 1.60068e-09 -0.000139706)
(-5.90733e-09 -3.52237e-09 -0.000135823)
(2.459e-09 -3.79702e-09 -0.000135732)
(3.60555e-09 -8.2543e-09 -0.000138632)
(2.21238e-09 -3.38268e-09 -0.000139701)
(-6.58186e-09 9.72168e-09 -0.000141127)
(-4.65403e-09 -8.04451e-11 -0.00013583)
(4.70678e-09 -1.41915e-09 -0.000135737)
(-1.95443e-09 1.72834e-09 -0.000136378)
(2.98679e-09 -2.5971e-09 -0.000136467)
(5.23733e-09 -1.45114e-09 -0.000141704)
(2.42404e-09 -4.08133e-09 -0.000135793)
(9.47886e-09 -6.86206e-09 -0.0001413)
(-3.92873e-09 -3.55948e-09 -0.00013579)
(-1.07307e-09 -5.84665e-09 -0.000141726)
(1.56274e-09 3.94352e-09 -0.000141663)
(-8.30118e-09 1.99403e-10 -0.000141702)
(3.27695e-09 2.61935e-09 -0.00013575)
(-4.93637e-09 6.79129e-10 -0.000141647)
(4.2801e-09 -1.19934e-09 -0.000135777)
(2.67612e-10 -4.71621e-09 -0.000141671)
(-1.10971e-09 -3.72909e-09 -0.000135676)
(3.89935e-09 2.36308e-09 -0.000135754)
(7.52704e-09 8.76232e-10 -0.000141615)
(-7.23634e-09 -1.09679e-09 -0.000141657)
(-3.31726e-09 -1.52999e-09 -0.000135778)
(4.20348e-09 -1.1532e-09 -0.000135783)
(5.58213e-10 6.93836e-09 -0.000141697)
(3.68571e-10 -4.396e-09 -0.000141681)
(-1.06951e-09 -3.80273e-09 -0.000135679)
(3.11465e-09 2.64969e-09 -0.000135756)
(7.3898e-09 7.3846e-10 -0.000141622)
(-4.94108e-09 3.11855e-10 -0.000141659)
(-3.28906e-09 -1.73663e-09 -0.00013578)
(4.21997e-09 -1.24396e-09 -0.000135784)
(3.34848e-10 6.60818e-09 -0.000141701)
(1.67643e-10 -4.72816e-09 -0.000141684)
(-2.04271e-09 -3.36919e-09 -0.000135681)
(2.64588e-09 2.86723e-09 -0.000135759)
(7.42069e-09 8.21787e-10 -0.000141623)
(-7.54894e-09 -1.26461e-09 -0.000141664)
(-3.13747e-09 -2.03137e-09 -0.000135782)
(4.3727e-09 -1.6015e-09 -0.000135787)
(3.57952e-10 6.62015e-09 -0.000141704)
(2.03137e-10 -4.67003e-09 -0.000141686)
(-1.10551e-09 -3.76552e-09 -0.000135685)
(4.0279e-09 2.27365e-09 -0.000135761)
(7.61161e-09 8.7643e-10 -0.000141629)
(-4.55206e-09 5.18019e-10 -0.000141665)
(-3.19904e-09 -1.92612e-09 -0.000135786)
(4.18654e-09 -1.21746e-09 -0.00013579)
(3.72884e-10 6.68899e-09 -0.000141706)
(2.47204e-10 -4.51195e-09 -0.000141687)
(-6.05035e-10 -4.02282e-09 -0.000135683)
(3.78191e-09 2.31047e-09 -0.000135757)
(7.83215e-09 9.76016e-10 -0.000141625)
(-7.31691e-09 -1.23769e-09 -0.000141661)
(-3.37557e-09 -1.62537e-09 -0.000135785)
(4.12121e-09 -1.1796e-09 -0.000135786)
(3.7422e-10 6.82616e-09 -0.000141703)
(9.95656e-11 -4.66719e-09 -0.000141681)
(-1.2466e-09 -3.77831e-09 -0.000135676)
(3.23592e-09 2.55961e-09 -0.00013575)
(7.22237e-09 5.82107e-10 -0.000141619)
(-4.93384e-09 2.78879e-10 -0.000141653)
(-3.28929e-09 -1.85916e-09 -0.000135777)
(4.21348e-09 -1.33529e-09 -0.000135779)
(1.97688e-10 6.4992e-09 -0.000141695)
(4.85e-11 -4.83085e-09 -0.000141675)
(-1.38233e-09 -3.68015e-09 -0.000135672)
(3.301e-09 2.56578e-09 -0.000135748)
(7.53072e-09 8.88007e-10 -0.000141613)
(-7.50316e-09 -1.26402e-09 -0.000141652)
(-3.26176e-09 -1.81629e-09 -0.000135774)
(4.22557e-09 -1.29418e-09 -0.000135777)
(2.85086e-10 6.5725e-09 -0.000141691)
(1.51919e-10 -4.69823e-09 -0.000141673)
(-1.27541e-09 -3.71702e-09 -0.000135671)
(3.35679e-09 2.54139e-09 -0.000135748)
(7.39614e-09 7.4269e-10 -0.000141615)
(-4.73861e-09 4.14733e-10 -0.000141651)
(-3.24174e-09 -1.85328e-09 -0.000135774)
(4.23045e-09 -1.30457e-09 -0.000135777)
(3.38325e-10 6.65872e-09 -0.000141691)
(1.91461e-10 -4.62395e-09 -0.000141672)
(-1.2354e-09 -3.72352e-09 -0.000135671)
(3.4343e-09 2.51382e-09 -0.000135747)
(7.66377e-09 9.30514e-10 -0.000141613)
(-7.40625e-09 -1.21696e-09 -0.000141652)
(-3.25134e-09 -1.81961e-09 -0.000135773)
(4.22672e-09 -1.2985e-09 -0.000135777)
(3.51266e-10 6.68151e-09 -0.000141691)
(1.5259e-10 -4.69311e-09 -0.000141672)
(-1.21183e-09 -3.74093e-09 -0.000135671)
(3.40555e-09 2.5247e-09 -0.000135748)
(7.38086e-09 7.32351e-10 -0.000141615)
(-4.75736e-09 4.08663e-10 -0.000141651)
(-3.25492e-09 -1.82602e-09 -0.000135773)
(4.21464e-09 -1.2588e-09 -0.000135777)
(3.40484e-10 6.66029e-09 -0.000141691)
(1.58633e-10 -4.68983e-09 -0.000141672)
(-1.26427e-09 -3.71229e-09 -0.000135671)
(3.4316e-09 2.51763e-09 -0.000135747)
(7.65775e-09 9.27561e-10 -0.000141613)
(-7.42005e-09 -1.22046e-09 -0.000141652)
(-3.25117e-09 -1.8159e-09 -0.000135773)
(4.22012e-09 -1.27344e-09 -0.000135777)
(3.24601e-10 6.63089e-09 -0.000141691)
(1.47817e-10 -4.70735e-09 -0.000141673)
(-1.16358e-09 -3.76088e-09 -0.000135671)
(3.40841e-09 2.52424e-09 -0.000135748)
(7.35089e-09 7.13757e-10 -0.000141615)
(-4.72836e-09 4.25698e-10 -0.000141651)
(-3.26273e-09 -1.81253e-09 -0.000135773)
(4.22281e-09 -1.27014e-09 -0.000135777)
(3.2574e-10 6.63705e-09 -0.000141691)
(1.5388e-10 -4.70643e-09 -0.000141673)
(-1.17166e-09 -3.75213e-09 -0.000135671)
(3.37636e-09 2.54336e-09 -0.000135748)
(7.61343e-09 8.9919e-10 -0.000141613)
(-7.33942e-09 -1.17094e-09 -0.000141652)
(-3.26428e-09 -1.80354e-09 -0.000135773)
(4.21315e-09 -1.22962e-09 -0.000135778)
(3.2128e-10 6.63806e-09 -0.000141691)
(1.41477e-10 -4.73913e-09 -0.000141674)
(-1.01344e-09 -3.82885e-09 -0.00013567)
(3.16484e-09 2.62873e-09 -0.00013575)
(7.20963e-09 6.27756e-10 -0.000141613)
(-4.58566e-09 5.17513e-10 -0.000141654)
(-3.23923e-09 -1.92349e-09 -0.000135771)
(4.21609e-09 -1.17566e-09 -0.000135781)
(3.06691e-10 6.64533e-09 -0.000141689)
(1.37587e-10 -4.79978e-09 -0.000141677)
(-7.62894e-10 -3.929e-09 -0.000135666)
(2.90189e-09 2.7622e-09 -0.000135756)
(7.3061e-09 7.08911e-10 -0.000141606)
(-7.18647e-09 -1.05351e-09 -0.000141662)
(-3.1958e-09 -2.12665e-09 -0.000135765)
(4.2619e-09 -1.09647e-09 -0.000135791)
(2.93561e-10 6.70497e-09 -0.000141682)
(1.19028e-10 -4.97559e-09 -0.000141687)
(3.92963e-10 -4.43136e-09 -0.000135653)
(1.65492e-09 3.35274e-09 -0.000135775)
(7.07136e-09 4.74694e-10 -0.000141593)
(-5.72411e-09 1.47451e-10 -0.000141684)
(-3.02377e-09 -2.90519e-09 -0.000135748)
(4.58143e-09 -1.39057e-09 -0.000135816)
(3.14183e-10 6.98373e-09 -0.000141666)
(2.11395e-10 -5.22928e-09 -0.00014171)
(6.86313e-09 -8.8568e-10 -0.000141653)
(5.46902e-10 4.44659e-09 -0.000141679)
(6.94263e-09 -1.02456e-09 -0.000141657)
(-8.40641e-09 1.52398e-09 -0.000141619)
(4.33796e-10 4.34183e-09 -0.000141685)
(1.64334e-09 -8.20837e-09 -0.000141699)
(-1.96856e-09 3.41122e-09 -0.000135744)
(3.35946e-09 2.60292e-09 -0.000135753)
(-1.24585e-09 -3.64751e-09 -0.000135672)
(-4.92139e-09 1.87221e-09 -0.000135747)
(1.99898e-09 -3.30747e-09 -0.000135668)
(5.51508e-10 6.55266e-09 -0.00014168)
(-8.557e-09 -1.96101e-09 -0.000141654)
(8.93094e-09 1.90396e-09 -0.000141614)
(-1.41168e-09 2.67797e-09 -0.000141684)
(-1.30888e-09 -7.59952e-09 -0.000141696)
(3.6407e-09 -4.72481e-10 -0.000135776)
(4.13718e-09 -9.7514e-10 -0.000135782)
(-3.24786e-09 -1.35521e-09 -0.000135773)
(4.10604e-09 1.09729e-09 -0.000135785)
(-3.62451e-09 1.92378e-10 -0.000135773)
(-3.92178e-09 2.27147e-10 -0.000135775)
(-4.32041e-09 8.03458e-10 -0.000135778)
(-4.60598e-09 -2.42393e-09 -0.000135779)
(3.43755e-09 -9.7959e-10 -0.000135769)
(-4.05973e-09 1.06848e-09 -0.000135783)
(3.20247e-09 1.59342e-09 -0.000135775)
(6.24046e-09 1.86794e-10 -0.000141672)
(-4.52903e-10 -6.09378e-09 -0.000141685)
(2.81174e-10 5.49861e-09 -0.000141685)
(4.94857e-09 -2.15911e-10 -0.000141669)
(-1.09068e-08 -2.70823e-09 -0.000141638)
(5.95599e-10 -3.98201e-09 -0.000135758)
(-2.73691e-09 -3.20992e-09 -0.000135755)
(1.76037e-09 -3.23493e-09 -0.000135758)
(-3.75675e-09 2.67832e-09 -0.000135678)
(-2.61023e-09 -2.90689e-09 -0.000135759)
(2.47094e-09 3.10744e-09 -0.000135677)
(-7.74971e-10 -4.41358e-09 -0.000141676)
(-7.34102e-09 7.47985e-10 -0.000141664)
(-5.84362e-10 -4.00981e-09 -0.000141681)
(-1.59981e-09 8.20699e-09 -0.000141695)
(-7.0387e-09 9.91051e-10 -0.000141669)
(8.95195e-09 -1.89485e-09 -0.00014163)
(-8.27113e-09 1.39749e-09 -0.000141622)
(7.30092e-09 -1.14588e-09 -0.00014166)
(1.55395e-09 -8.34052e-09 -0.000141702)
(4.3859e-10 4.49546e-09 -0.000141688)
(7.24621e-09 -1.22307e-09 -0.000141662)
(-7.93518e-09 1.26128e-09 -0.000141625)
(3.20204e-10 4.51127e-09 -0.000141689)
(1.55388e-09 -8.25758e-09 -0.000141705)
(-5.15808e-10 -4.37631e-09 -0.000135668)
(-4.05278e-09 2.32898e-09 -0.00013575)
(3.61501e-09 2.46803e-09 -0.000135757)
(-6.50991e-10 -3.88884e-09 -0.000135676)
(-4.03999e-09 2.1988e-09 -0.000135752)
(4.66696e-10 -3.93476e-09 -0.000135672)
(-2.23819e-09 -9.53185e-09 -0.000141702)
(-9.18199e-10 3.59038e-09 -0.000141686)
(-7.77235e-09 -1.4665e-09 -0.000141661)
(8.77532e-09 1.67156e-09 -0.000141618)
(-8.23177e-10 3.63601e-09 -0.000141688)
(-1.7555e-09 -8.57835e-09 -0.000141704)
(-3.90723e-09 1.56325e-10 -0.000135778)
(3.75166e-09 2.35616e-11 -0.000135784)
(4.23569e-09 -1.26253e-09 -0.000135785)
(-3.24421e-09 -1.65656e-09 -0.000135778)
(4.03881e-09 9.54609e-10 -0.000135788)
(-3.51523e-09 8.05841e-10 -0.000135778)
(2.74022e-09 -3.0236e-09 -0.000135773)
(-4.52482e-09 -2.04174e-09 -0.000135782)
(3.35748e-09 1.46067e-09 -0.000135778)
(-4.00761e-09 7.38013e-10 -0.000135785)
(-4.49156e-09 -2.14608e-09 -0.000135784)
(2.8118e-09 -2.68447e-09 -0.000135775)
(-3.98888e-09 9.00693e-10 -0.000135787)
(3.30475e-09 1.47474e-09 -0.00013578)
(-1.1304e-08 -3.195e-09 -0.000141636)
(6.6802e-09 6.97194e-10 -0.000141677)
(-6.4391e-10 -6.38963e-09 -0.000141691)
(3.20081e-10 5.79778e-09 -0.000141692)
(5.71859e-09 2.05429e-10 -0.000141672)
(-1.02223e-08 -2.2922e-09 -0.000141642)
(-4.29772e-09 2.4576e-09 -0.000135679)
(1.63128e-09 -3.32333e-09 -0.000135763)
(2.37046e-09 3.24372e-09 -0.000135679)
(-2.76301e-09 -2.93131e-09 -0.000135761)
(2.45293e-09 -2.93954e-09 -0.000135762)
(-2.72116e-09 3.12086e-09 -0.000135682)
(-2.63278e-09 -2.87697e-09 -0.000135763)
(2.49148e-09 3.14643e-09 -0.000135682)
(-1.51983e-09 8.30119e-09 -0.000141698)
(-6.62e-10 -4.02611e-09 -0.000141683)
(8.99344e-09 -1.79582e-09 -0.000141633)
(-7.02104e-09 8.97164e-10 -0.000141672)
(-4.84385e-10 -4.18751e-09 -0.000141686)
(-1.61089e-09 8.36125e-09 -0.0001417)
(-7.21131e-09 1.08993e-09 -0.000141674)
(9.11101e-09 -1.91196e-09 -0.000141635)
(-8.14951e-09 1.29041e-09 -0.000141627)
(6.75469e-09 -8.71268e-10 -0.000141662)
(1.46694e-09 -8.26247e-09 -0.000141706)
(4.6791e-10 4.39664e-09 -0.000141689)
(6.51753e-09 -8.00384e-10 -0.000141664)
(-8.63419e-09 1.62701e-09 -0.000141627)
(5.09794e-10 4.20352e-09 -0.000141691)
(1.64145e-09 -8.44275e-09 -0.000141706)
(3.36937e-10 -4.05664e-09 -0.000135673)
(-1.72493e-09 3.18064e-09 -0.000135753)
(2.59698e-09 2.89432e-09 -0.000135758)
(-1.59896e-09 -3.52976e-09 -0.000135677)
(-4.85805e-09 1.9002e-09 -0.000135753)
(2.06607e-09 -3.37668e-09 -0.000135674)
(-1.87744e-09 -8.81377e-09 -0.000141706)
(1.03853e-09 6.81465e-09 -0.00014169)
(-8.59129e-09 -1.97519e-09 -0.000141662)
(8.86572e-09 1.75653e-09 -0.000141623)
(-1.55783e-09 2.42963e-09 -0.000141691)
(-1.20641e-09 -7.60397e-09 -0.000141703)
(-4.00136e-09 3.32983e-11 -0.000135781)
(3.65756e-09 -2.07762e-10 -0.000135785)
(4.31517e-09 -1.43222e-09 -0.000135787)
(-3.20696e-09 -1.77154e-09 -0.000135778)
(4.10899e-09 1.0954e-09 -0.00013579)
(-3.56772e-09 6.67425e-10 -0.000135779)
(2.89326e-09 -2.59093e-09 -0.000135777)
(-3.41562e-09 7.58944e-10 -0.000135783)
(3.41374e-09 1.39539e-09 -0.000135782)
(-3.99213e-09 7.63212e-10 -0.000135787)
(-4.74882e-09 -2.75626e-09 -0.000135785)
(3.65938e-09 -6.0559e-10 -0.000135775)
(-4.07633e-09 1.08189e-09 -0.000135789)
(3.31787e-09 1.49392e-09 -0.000135782)
(-1.06519e-08 -2.81997e-09 -0.000141639)
(6.40298e-09 5.65744e-10 -0.000141678)
(-6.50459e-10 -6.42546e-09 -0.000141693)
(1.61039e-10 5.51787e-09 -0.000141695)
(4.51592e-09 -4.65163e-10 -0.000141674)
(-1.08758e-08 -2.63101e-09 -0.000141643)
(-3.76346e-09 2.71647e-09 -0.000135681)
(1.03025e-09 -3.5305e-09 -0.000135764)
(2.34822e-09 3.28267e-09 -0.000135683)
(-2.87282e-09 -2.84273e-09 -0.000135763)
(1.34861e-09 -3.39009e-09 -0.000135763)
(-3.50026e-09 2.83537e-09 -0.000135683)
(-2.63131e-09 -2.89391e-09 -0.000135764)
(2.37257e-09 3.22852e-09 -0.000135683)
(-1.36717e-09 8.05675e-09 -0.000141703)
(-5.01154e-10 -4.26032e-09 -0.000141686)
(8.78144e-09 -1.65305e-09 -0.000141637)
(-7.25539e-09 1.06469e-09 -0.000141674)
(-4.99479e-10 -4.1884e-09 -0.000141688)
(-1.47623e-09 8.16616e-09 -0.000141703)
(-7.05681e-09 1.00275e-09 -0.000141676)
(8.95989e-09 -1.79469e-09 -0.000141637)
(-8.77933e-09 1.66327e-09 -0.000141629)
(6.50556e-09 -7.0907e-10 -0.000141665)
(1.68823e-09 -8.6168e-09 -0.000141708)
(6.86651e-10 4.04266e-09 -0.000141692)
(6.98493e-09 -1.06084e-09 -0.000141667)
(-8.70401e-09 1.68654e-09 -0.00014163)
(5.4987e-10 4.12368e-09 -0.000141694)
(1.81139e-09 -8.72065e-09 -0.000141709)
(-4.47675e-10 -4.35579e-09 -0.000135674)
(-4.09202e-09 2.31666e-09 -0.000135756)
(3.19529e-09 2.65309e-09 -0.000135762)
(-1.81988e-09 -3.41021e-09 -0.000135681)
(-3.89797e-09 2.26999e-09 -0.000135759)
(4.29489e-10 -3.94086e-09 -0.000135677)
(-2.36803e-09 -9.76576e-09 -0.000141709)
(-1.059e-09 3.30733e-09 -0.000141692)
(-7.68653e-09 -1.39863e-09 -0.000141668)
(8.49314e-09 1.52663e-09 -0.000141625)
(-9.50183e-10 3.42404e-09 -0.000141694)
(-1.89354e-09 -8.85766e-09 -0.00014171)
(-3.91719e-09 1.60123e-10 -0.000135783)
(3.74115e-09 -1.9211e-11 -0.000135789)
(4.34477e-09 -1.50785e-09 -0.000135791)
(-3.07263e-09 -2.07001e-09 -0.000135782)
(4.08361e-09 1.03055e-09 -0.000135794)
(-3.49789e-09 8.22589e-10 -0.000135783)
(2.5638e-09 -3.43319e-09 -0.000135779)
(-4.69079e-09 -2.46256e-09 -0.000135787)
(3.3378e-09 1.49395e-09 -0.000135784)
(-4.10744e-09 9.87613e-10 -0.000135791)
(-4.5131e-09 -2.1562e-09 -0.000135789)
(2.68919e-09 -2.98629e-09 -0.00013578)
(-4.12923e-09 1.18897e-09 -0.000135793)
(3.19404e-09 1.74339e-09 -0.000135786)
(-1.18305e-08 -3.48912e-09 -0.000141641)
(5.79017e-09 1.94789e-10 -0.000141681)
(-6.2676e-10 -6.3607e-09 -0.000141695)
(1.94387e-10 5.57222e-09 -0.000141697)
(5.20429e-09 -1.00663e-10 -0.000141678)
(-1.1214e-08 -2.847e-09 -0.000141647)
(-4.90489e-09 2.22331e-09 -0.000135683)
(5.273e-10 -3.76732e-09 -0.000135767)
(2.35949e-09 3.25372e-09 -0.000135685)
(-2.50779e-09 -3.03146e-09 -0.000135766)
(2.02948e-09 -3.13666e-09 -0.000135768)
(-3.79793e-09 2.67285e-09 -0.000135687)
(-2.16087e-09 -3.09381e-09 -0.000135769)
(2.81674e-09 3.01106e-09 -0.000135687)
(-1.41386e-09 8.10066e-09 -0.000141705)
(-6.22271e-10 -4.09411e-09 -0.00014169)
(8.95996e-09 -1.76725e-09 -0.000141639)
(-6.96634e-09 8.70396e-10 -0.000141677)
(-5.60981e-10 -4.09676e-09 -0.000141692)
(-1.61415e-09 8.37923e-09 -0.000141707)
(-6.79748e-09 8.46978e-10 -0.00014168)
(9.28164e-09 -2.00614e-09 -0.000141641)
(-8.10945e-09 1.28238e-09 -0.000141631)
(7.56833e-09 -1.32928e-09 -0.000141666)
(1.65094e-09 -8.56793e-09 -0.000141711)
(5.14361e-10 4.27205e-09 -0.000141694)
(7.6551e-09 -1.49021e-09 -0.000141665)
(-7.65696e-09 1.06506e-09 -0.00014163)
(3.13158e-10 4.42161e-09 -0.000141693)
(1.62035e-09 -8.47401e-09 -0.00014171)
(5.7598e-10 -3.94987e-09 -0.000135679)
(-1.15281e-09 3.39997e-09 -0.00013576)
(4.02895e-09 2.25322e-09 -0.000135761)
(-4.59044e-10 -4.01048e-09 -0.000135683)
(-4.18365e-09 2.1036e-09 -0.000135758)
(2.71395e-09 -3.14342e-09 -0.000135681)
(-1.9497e-09 -8.92371e-09 -0.000141712)
(1.20428e-09 7.10735e-09 -0.000141695)
(-8.13288e-09 -1.78354e-09 -0.000141665)
(9.31146e-09 1.98897e-09 -0.000141629)
(-1.06942e-09 3.22824e-09 -0.000141694)
(-9.61241e-10 -7.18404e-09 -0.000141709)
(-3.95852e-09 1.15172e-10 -0.000135786)
(3.65128e-09 -1.50189e-10 -0.00013579)
(4.1013e-09 -1.04521e-09 -0.00013579)
(-3.28851e-09 -1.65816e-09 -0.000135784)
(3.99323e-09 9.86674e-10 -0.000135793)
(-3.59867e-09 6.86368e-10 -0.000135784)
(2.9171e-09 -2.4783e-09 -0.000135783)
(-3.21908e-09 1.24525e-09 -0.00013579)
(3.3036e-09 1.59761e-09 -0.000135788)
(-3.96015e-09 6.72132e-10 -0.000135794)
(-4.37869e-09 -1.96485e-09 -0.00013579)
(3.89899e-09 -3.195e-11 -0.000135782)
(-3.86863e-09 6.90267e-10 -0.000135793)
(3.40098e-09 1.3169e-09 -0.000135789)
(-1.08412e-08 -2.94818e-09 -0.000141645)
(7.33695e-09 1.06861e-09 -0.000141684)
(-5.8858e-10 -6.16308e-09 -0.000141693)
(2.57093e-10 5.79849e-09 -0.000141697)
(6.47075e-09 6.35613e-10 -0.000141677)
(-9.59578e-09 -1.92368e-09 -0.000141649)
(-3.82761e-09 2.66399e-09 -0.000135688)
(2.10139e-09 -3.10535e-09 -0.000135771)
(2.79999e-09 3.0797e-09 -0.000135689)
(-2.59304e-09 -2.95944e-09 -0.00013577)
(3.01104e-09 -2.68865e-09 -0.000135768)
(-2.17588e-09 3.38206e-09 -0.00013569)
(-2.56191e-09 -2.87078e-09 -0.000135769)
(2.66814e-09 3.11856e-09 -0.00013569)
(-1.42298e-09 8.12046e-09 -0.000141709)
(-4.06703e-10 -4.43585e-09 -0.000141692)
(9.21398e-09 -1.91085e-09 -0.000141643)
(-7.0504e-09 9.47521e-10 -0.00014168)
(-1.77376e-10 -4.66569e-09 -0.000141692)
(-1.31885e-09 7.90468e-09 -0.000141709)
(-7.13848e-09 1.09669e-09 -0.00014168)
(9.05979e-09 -1.84504e-09 -0.000141643)
(-7.65862e-09 9.70741e-10 -0.000141629)
(7.3906e-09 -1.29744e-09 -0.000141661)
(1.44711e-09 -8.32154e-09 -0.000141708)
(3.6277e-10 4.4438e-09 -0.000141688)
(7.16092e-09 -1.2447e-09 -0.000141657)
(-7.95233e-09 1.173e-09 -0.000141624)
(3.01563e-10 4.42618e-09 -0.000141685)
(1.49449e-09 -8.32961e-09 -0.000141704)
(1.519e-10 -4.18863e-09 -0.000135677)
(-3.81119e-09 2.32555e-09 -0.000135754)
(3.3769e-09 2.50369e-09 -0.000135754)
(-8.57861e-10 -3.89741e-09 -0.000135677)
(-4.14615e-09 2.08326e-09 -0.000135751)
(5.62662e-10 -3.99122e-09 -0.000135674)
(-1.86388e-09 -8.96281e-09 -0.000141711)
(-4.85341e-10 4.19149e-09 -0.00014169)
(-7.97856e-09 -1.64999e-09 -0.000141659)
(8.58932e-09 1.4754e-09 -0.00014162)
(-6.12204e-10 3.85248e-09 -0.000141685)
(-1.35867e-09 -8.05831e-09 -0.000141706)
(-4.07332e-09 -2.43643e-11 -0.000135784)
(3.55383e-09 -2.64193e-10 -0.000135786)
(4.20967e-09 -1.34954e-09 -0.000135783)
(-3.31874e-09 -1.6909e-09 -0.000135779)
(3.91747e-09 8.11322e-10 -0.000135786)
(-3.69387e-09 5.71738e-10 -0.000135779)
(2.94967e-09 -2.64906e-09 -0.000135782)
(-4.28853e-09 -1.68197e-09 -0.000135786)
(3.57961e-09 1.06822e-09 -0.000135787)
(-3.8047e-09 4.34707e-10 -0.00013579)
(-4.30353e-09 -1.87007e-09 -0.000135782)
(3.04864e-09 -2.33371e-09 -0.000135778)
(-3.92667e-09 9.13182e-10 -0.000135786)
(3.49797e-09 1.22633e-09 -0.000135783)
(-9.93061e-09 -2.39897e-09 -0.000141644)
(7.26701e-09 1.08765e-09 -0.000141679)
(-7.87656e-10 -6.4953e-09 -0.000141686)
(8.60845e-11 5.57159e-09 -0.000141691)
(5.64013e-09 2.20874e-10 -0.00014167)
(-9.87953e-09 -2.03219e-09 -0.000141643)
(-3.19869e-09 2.96235e-09 -0.000135687)
(1.8657e-09 -3.14669e-09 -0.000135767)
(2.48365e-09 3.26807e-09 -0.000135689)
(-2.74896e-09 -2.84051e-09 -0.000135766)
(2.22685e-09 -2.97258e-09 -0.00013576)
(-2.71758e-09 3.21017e-09 -0.000135684)
(-2.63087e-09 -2.80987e-09 -0.000135762)
(2.56129e-09 3.21116e-09 -0.000135685)
(-1.0659e-09 7.59441e-09 -0.000141707)
(-2.03743e-10 -4.66742e-09 -0.000141688)
(8.85278e-09 -1.64792e-09 -0.000141642)
(-7.23531e-09 1.11823e-09 -0.000141676)
(-2.93385e-10 -4.39258e-09 -0.000141684)
(-1.21245e-09 7.82965e-09 -0.000141703)
(-7.26673e-09 1.20135e-09 -0.000141672)
(8.9181e-09 -1.70194e-09 -0.000141638)
(-8.17625e-09 1.24968e-09 -0.000141621)