/*--------------------------------*- C++ -*----------------------------------*\
| =========                 |                                                 |
| \\      /  F ield         | OpenFOAM: The Open Source CFD Toolbox           |
|  \\    /   O peration     | Version:  2206                                  |
|   \\  /    A nd           | Website:  www.openfoam.com                      |
|    \\/     M anipulation  |                                                 |
\*---------------------------------------------------------------------------*/
FoamFile
{
    version     2.0;
    format      ascii;
    arch        "LSB;label=32;scalar=64";
    class       volScalarField;
    location    "0.2";
    object      k;
}
// * * * * * * * * * * * * * * * * * * * * * * * * * * * * * * * * * * * * * //

dimensions      [0 2 -2 0 0 0 0];

internalField   nonuniform List<scalar> 
67442
(
2.57976e-05
2.58066e-05
2.58113e-05
2.5862e-05
2.58607e-05
2.58101e-05
2.58101e-05
2.58522e-05
2.58097e-05
2.58088e-05
2.58078e-05
2.58608e-05
2.58147e-05
2.09175e-05
3.04207e-05
1.37706e-05
2.04522e-05
3.00517e-05
2.57978e-05
2.57983e-05
2.5799e-05
2.96671e-05
2.57585e-05
2.82193e-05
1.35662e-05
2.57732e-05
2.98812e-05
2.8231e-05
2.50116e-05
2.53353e-05
1.37937e-05
1.35839e-05
2.53473e-05
2.50699e-05
2.08564e-05
3.03739e-05
2.99007e-05
2.57717e-05
2.82385e-05
2.98765e-05
2.57715e-05
2.82287e-05
2.53006e-05
2.50421e-05
1.35438e-05
2.97189e-05
2.57587e-05
2.82259e-05
2.04185e-05
3.0052e-05
2.57577e-05
2.96974e-05
2.82244e-05
2.03776e-05
3.00201e-05
2.57578e-05
2.96628e-05
2.82191e-05
2.03678e-05
3.00195e-05
2.50375e-05
2.53149e-05
1.37716e-05
2.5772e-05
2.99033e-05
2.82323e-05
2.08566e-05
3.03782e-05
2.08639e-05
3.03806e-05
1.35368e-05
1.37879e-05
1.23193e-05
2.09164e-05
2.56781e-05
2.56861e-05
1.23146e-05
1.60942e-05
3.04284e-05
1.7816e-05
3.00367e-05
1.78168e-05
3.00423e-05
1.60966e-05
1.37752e-05
1.57746e-05
3.00888e-05
2.96429e-05
1.73653e-05
1.20246e-05
2.04451e-05
2.51591e-05
2.51505e-05
1.20304e-05
1.20426e-05
2.04766e-05
2.51811e-05
1.57464e-05
3.00558e-05
2.96123e-05
1.73466e-05
2.96085e-05
1.73365e-05
1.57579e-05
1.35605e-05
1.3581e-05
2.81678e-05
2.83542e-05
2.50118e-05
1.98319e-05
2.83632e-05
1.98328e-05
2.81666e-05
2.81001e-05
2.84191e-05
2.53415e-05
1.9885e-05
2.84271e-05
1.98889e-05
2.80987e-05
1.92411e-05
1.19937e-05
1.2026e-05
1.19941e-05
1.20293e-05
1.92516e-05
1.3792e-05
1.3578e-05
1.35977e-05
2.8257e-05
2.84098e-05
2.5353e-05
2.00479e-05
2.00454e-05
2.8425e-05
2.82575e-05
2.80586e-05
2.83709e-05
2.50622e-05
1.97219e-05
1.97167e-05
2.83855e-05
2.80608e-05
1.92502e-05
1.2074e-05
1.19825e-05
1.2068e-05
1.19761e-05
1.92635e-05
1.229e-05
2.08662e-05
2.55939e-05
2.56015e-05
1.22852e-05
1.60654e-05
3.03825e-05
1.77781e-05
2.99789e-05
1.77868e-05
2.99856e-05
1.60626e-05
2.80642e-05
2.83995e-05
2.53058e-05
1.98811e-05
1.98851e-05
2.8409e-05
2.8064e-05
2.81279e-05
2.83321e-05
2.50436e-05
1.98271e-05
2.83422e-05
1.9831e-05
2.81123e-05
1.92591e-05
1.2039e-05
1.19998e-05
1.20404e-05
1.19994e-05
1.92653e-05
1.35437e-05
1.57692e-05
3.00876e-05
1.73626e-05
2.96325e-05
1.20152e-05
2.04123e-05
2.51288e-05
2.51203e-05
1.20209e-05
1.20333e-05
2.04471e-05
2.51516e-05
1.57413e-05
3.00557e-05
1.73433e-05
2.96035e-05
1.73334e-05
2.95993e-05
1.57529e-05
1.19985e-05
2.03788e-05
2.50959e-05
2.50937e-05
1.20009e-05
1.57161e-05
3.00223e-05
2.95621e-05
1.73075e-05
2.95633e-05
1.73032e-05
1.57227e-05
1.19973e-05
2.03682e-05
2.50899e-05
2.50875e-05
1.19994e-05
1.57166e-05
3.00219e-05
1.7306e-05
2.95611e-05
1.73018e-05
2.95622e-05
1.57235e-05
2.80776e-05
2.83693e-05
2.50332e-05
1.97633e-05
1.97572e-05
2.83854e-05
2.80779e-05
2.81972e-05
2.8402e-05
2.53208e-05
2.0033e-05
2.84149e-05
2.00349e-05
2.81875e-05
1.93337e-05
1.20272e-05
1.20936e-05
1.20201e-05
1.2095e-05
1.93566e-05
1.37744e-05
1.22903e-05
2.08651e-05
2.55938e-05
2.56018e-05
1.2285e-05
1.60625e-05
3.03857e-05
2.99806e-05
1.77721e-05
2.99873e-05
1.77798e-05
1.60595e-05
1.22901e-05
2.08729e-05
2.55971e-05
2.56061e-05
1.22848e-05
1.60622e-05
3.03883e-05
2.99816e-05
1.77705e-05
2.99881e-05
1.77783e-05
1.60592e-05
1.35351e-05
1.37926e-05
2.58476e-05
2.58428e-05
2.58715e-05
2.79025e-05
2.6793e-05
2.67931e-05
2.5866e-05
2.68053e-05
2.68046e-05
2.78905e-05
2.79108e-05
2.67886e-05
2.67972e-05
2.58682e-05
2.68029e-05
2.68127e-05
2.78942e-05
2.78617e-05
2.67828e-05
2.67673e-05
2.58557e-05
2.67809e-05
2.67925e-05
2.78486e-05
2.78961e-05
2.68049e-05
2.6782e-05
2.58663e-05
2.6794e-05
2.68185e-05
2.78805e-05
2.58485e-05
2.58434e-05
2.58742e-05
2.58435e-05
2.58484e-05
2.58723e-05
2.58433e-05
2.58487e-05
2.58738e-05
2.67866e-05
2.77124e-05
2.96705e-05
2.90895e-05
2.77254e-05
2.90986e-05
2.67757e-05
2.63558e-05
2.82345e-05
2.85641e-05
2.61721e-05
2.85792e-05
2.61841e-05
2.63399e-05
2.6766e-05
2.77497e-05
2.98879e-05
2.91938e-05
2.7761e-05
2.92003e-05
2.67577e-05
2.6328e-05
2.8238e-05
2.61551e-05
2.8606e-05
2.61587e-05
2.86142e-05
2.63225e-05
2.6762e-05
2.77354e-05
2.99079e-05
2.92133e-05
2.92224e-05
2.77482e-05
2.6753e-05
2.63256e-05
2.82492e-05
2.86175e-05
2.61556e-05
2.86297e-05
2.61601e-05
2.63204e-05
2.67538e-05
2.77409e-05
2.98827e-05
2.91868e-05
2.91933e-05
2.77489e-05
2.67469e-05
2.63219e-05
2.82367e-05
2.8603e-05
2.61556e-05
2.86109e-05
2.61587e-05
2.63166e-05
2.68037e-05
2.77365e-05
2.97216e-05
2.91174e-05
2.91338e-05
2.77535e-05
2.67879e-05
2.63627e-05
2.82454e-05
2.85767e-05
2.61782e-05
2.85959e-05
2.61901e-05
2.63516e-05
2.67937e-05
2.77221e-05
2.96996e-05
2.91029e-05
2.91189e-05
2.77388e-05
2.67777e-05
2.63568e-05
2.82438e-05
2.61763e-05
2.85698e-05
2.61883e-05
2.85888e-05
2.63453e-05
2.67824e-05
2.77081e-05
2.96655e-05
2.90877e-05
2.7721e-05
2.9097e-05
2.67714e-05
2.63527e-05
2.82344e-05
2.61716e-05
2.85626e-05
2.61833e-05
2.85778e-05
2.6337e-05
2.67632e-05
2.77648e-05
2.99097e-05
2.91961e-05
2.77731e-05
2.92025e-05
2.67575e-05
2.63268e-05
2.82393e-05
2.61559e-05
2.86073e-05
2.61592e-05
2.8615e-05
2.63224e-05
4.1002e-06
9.82733e-07
1.85876e-07
8.73539e-08
5.37894e-07
4.09264e-06
9.9173e-07
1.89778e-07
9.39061e-08
5.86543e-07
4.05621e-06
9.72413e-07
1.84125e-07
8.73387e-08
5.39152e-07
4.06351e-06
9.84929e-07
1.88636e-07
9.39091e-08
5.87437e-07
4.0973e-06
9.92789e-07
1.89978e-07
9.39713e-08
5.86787e-07
4.06825e-06
9.85967e-07
1.88797e-07
9.39148e-08
5.8739e-07
4.08935e-06
9.80224e-07
1.85438e-07
8.72963e-08
5.37789e-07
4.05693e-06
9.83464e-07
1.88405e-07
9.39164e-08
5.87575e-07
4.05009e-06
9.71025e-07
1.83893e-07
8.73049e-08
5.39122e-07
4.0439e-06
9.69709e-07
1.83694e-07
8.73152e-08
5.39243e-07
4.04253e-06
9.69377e-07
1.8365e-07
8.73258e-08
5.39322e-07
4.09377e-06
9.92206e-07
1.89891e-07
9.39632e-08
5.8683e-07
4.08981e-06
9.8036e-07
1.8547e-07
8.73118e-08
5.37882e-07
4.09135e-06
9.80741e-07
1.8554e-07
8.73092e-08
5.37855e-07
4.05596e-06
9.83195e-07
1.88351e-07
9.38889e-08
5.87461e-07
4.09874e-06
9.93245e-07
1.90046e-07
9.3945e-08
5.8666e-07
3.95186e-06
9.58321e-07
1.84038e-07
9.34301e-08
5.87124e-07
4.10644e-06
9.84501e-07
1.86215e-07
8.75051e-08
5.3882e-07
4.09585e-06
9.92712e-07
1.8997e-07
9.40051e-08
5.87198e-07
3.80484e-06
9.18065e-07
1.7595e-07
9.0067e-08
5.66761e-07
3.94175e-06
9.53016e-07
1.82426e-07
9.15424e-08
5.73485e-07
3.89649e-06
9.45164e-07
1.81746e-07
9.3119e-08
5.86415e-07
4.06152e-06
9.7407e-07
1.84448e-07
8.74532e-08
5.39794e-07
4.06326e-06
9.74298e-07
1.84463e-07
8.73744e-08
5.39154e-07
4.06587e-06
9.85939e-07
1.88851e-07
9.39933e-08
5.87918e-07
4.06921e-06
9.86435e-07
1.88908e-07
9.39371e-08
5.87425e-07
4.05893e-06
9.73437e-07
1.8448e-07
8.80785e-08
5.44638e-07
4.06073e-06
9.74064e-07
1.84605e-07
8.81291e-08
5.44956e-07
4.06091e-06
9.7383e-07
1.84525e-07
8.79987e-08
5.43976e-07
4.06366e-06
9.74638e-07
1.8468e-07
8.80679e-08
5.44421e-07
3.79599e-06
9.22013e-07
1.77869e-07
9.34536e-08
5.91856e-07
3.79489e-06
9.21617e-07
1.77786e-07
9.34183e-08
5.91653e-07
3.79858e-06
9.22673e-07
1.77991e-07
9.35082e-08
5.92209e-07
3.79772e-06
9.22344e-07
1.77921e-07
9.34816e-08
5.92066e-07
4.10144e-06
9.94229e-07
1.90265e-07
9.40847e-08
5.87447e-07
4.07049e-06
9.86964e-07
1.8901e-07
9.39951e-08
5.8784e-07
4.0739e-06
9.87494e-07
1.89074e-07
9.39453e-08
5.87393e-07
4.09488e-06
9.81712e-07
1.85723e-07
8.74363e-08
5.38703e-07
4.0579e-06
9.73227e-07
1.84461e-07
8.80839e-08
5.44697e-07
4.06024e-06
9.73875e-07
1.84582e-07
8.81332e-08
5.45007e-07
3.7982e-06
9.22556e-07
1.77963e-07
9.34588e-08
5.91827e-07
3.80034e-06
9.23116e-07
1.78071e-07
9.35188e-08
5.92233e-07
4.05979e-06
9.84279e-07
1.88562e-07
9.39864e-08
5.8802e-07
3.8038e-06
9.17805e-07
1.7591e-07
9.00655e-08
5.66779e-07
3.94114e-06
9.52867e-07
1.824e-07
9.15378e-08
5.73465e-07
3.8933e-06
9.44386e-07
1.81613e-07
9.30912e-08
5.86367e-07
4.05564e-06
9.72755e-07
1.84229e-07
8.74203e-08
5.3976e-07
4.0578e-06
9.73064e-07
1.84256e-07
8.73416e-08
5.39112e-07
4.04747e-06
9.70802e-07
1.83908e-07
8.74141e-08
5.39878e-07
3.88747e-06
9.4284e-07
1.81342e-07
9.30882e-08
5.86466e-07
4.04585e-06
9.70403e-07
1.83853e-07
8.74228e-08
5.39947e-07
4.08124e-06
9.78776e-07
1.85411e-07
8.81423e-08
5.44322e-07
4.08288e-06
9.79289e-07
1.85513e-07
8.81953e-08
5.44678e-07
3.81886e-06
9.27239e-07
1.78758e-07
9.35496e-08
5.91854e-07
4.09631e-06
9.93011e-07
1.90053e-07
9.4058e-08
5.87473e-07
3.94135e-06
9.55727e-07
1.83591e-07
9.33801e-08
5.87076e-07
4.09521e-06
9.81838e-07
1.85755e-07
8.74547e-08
5.38815e-07
3.9414e-06
9.55775e-07
1.83596e-07
9.33718e-08
5.87036e-07
4.09675e-06
9.82216e-07
1.85825e-07
8.7451e-08
5.38779e-07
4.05775e-06
9.83805e-07
1.88474e-07
9.39538e-08
5.87892e-07
4.10186e-06
9.94233e-07
1.90242e-07
9.40449e-08
5.87317e-07
3.9411e-06
9.55703e-07
1.83579e-07
9.33794e-08
5.87075e-07
3.88765e-06
9.42864e-07
1.81342e-07
9.30743e-08
5.86405e-07
3.82769e-06
9.2354e-07
1.76859e-07
8.99793e-08
5.65462e-07
3.97852e-06
9.61491e-07
1.83823e-07
9.13882e-08
5.71308e-07
3.98247e-06
9.62766e-07
1.84074e-07
9.14796e-08
5.7182e-07
3.82472e-06
9.22464e-07
1.76645e-07
8.98885e-08
5.649e-07
3.94701e-06
9.56939e-07
1.83772e-07
9.32811e-08
5.86124e-07
4.06119e-06
9.73985e-07
1.84572e-07
8.80236e-08
5.44093e-07
4.0634e-06
9.74709e-07
1.84715e-07
8.80929e-08
5.44545e-07
3.7993e-06
9.22663e-07
1.77979e-07
9.34693e-08
5.91807e-07
3.80141e-06
9.23283e-07
1.78099e-07
9.35292e-08
5.92204e-07
3.89505e-06
9.44317e-07
1.81555e-07
9.30291e-08
5.85841e-07
3.80093e-06
9.17294e-07
1.75828e-07
9.0073e-08
5.66892e-07
3.93609e-06
9.51513e-07
1.82157e-07
9.15154e-08
5.73483e-07
3.93743e-06
9.52124e-07
1.82284e-07
9.15436e-08
5.73578e-07
3.80021e-06
9.16798e-07
1.75722e-07
9.00456e-08
5.66759e-07
3.89975e-06
9.45627e-07
1.81801e-07
9.30561e-08
5.85841e-07
4.05296e-06
9.71914e-07
1.84215e-07
8.80385e-08
5.44516e-07
4.05678e-06
9.73292e-07
1.84493e-07
8.81198e-08
5.44925e-07
3.80105e-06
9.22719e-07
1.7795e-07
9.34423e-08
5.91718e-07
3.80277e-06
9.23593e-07
1.78137e-07
9.3504e-08
5.92041e-07
4.08064e-06
9.78264e-07
1.85286e-07
8.80933e-08
5.44121e-07
4.08542e-06
9.79804e-07
1.85585e-07
8.81835e-08
5.44588e-07
3.8115e-06
9.25336e-07
1.78407e-07
9.34683e-08
5.9166e-07
3.81342e-06
9.26243e-07
1.78604e-07
9.3546e-08
5.92102e-07
4.04455e-06
9.69989e-07
1.83887e-07
8.80095e-08
5.44592e-07
4.04806e-06
9.7122e-07
1.84133e-07
8.80766e-08
5.44912e-07
3.78819e-06
9.19833e-07
1.77469e-07
9.33936e-08
5.91761e-07
3.78967e-06
9.20592e-07
1.77636e-07
9.34582e-08
5.9212e-07
3.82012e-06
9.21635e-07
1.76526e-07
8.99678e-08
5.6555e-07
3.97219e-06
9.60199e-07
1.83623e-07
9.14017e-08
5.71447e-07
3.97553e-06
9.61066e-07
1.83789e-07
9.14786e-08
5.71943e-07
3.81787e-06
9.20962e-07
1.764e-07
8.98924e-08
5.65008e-07
3.93703e-06
9.54557e-07
1.83358e-07
9.32408e-08
5.86091e-07
3.79999e-06
9.17057e-07
1.75792e-07
9.00721e-08
5.66912e-07
3.9354e-06
9.51347e-07
1.82128e-07
9.15104e-08
5.73463e-07
3.93678e-06
9.51964e-07
1.82256e-07
9.15386e-08
5.73557e-07
3.79932e-06
9.16568e-07
1.75686e-07
9.00442e-08
5.66778e-07
3.89178e-06
9.43513e-07
1.81418e-07
9.30008e-08
5.8579e-07
3.89666e-06
9.44869e-07
1.81671e-07
9.30279e-08
5.85787e-07
3.88622e-06
9.42265e-07
1.8122e-07
9.29955e-08
5.85832e-07
3.79306e-06
9.15267e-07
1.75469e-07
9.00122e-08
5.66773e-07
3.92786e-06
9.49614e-07
1.81845e-07
9.14632e-08
5.73393e-07
3.92962e-06
9.50097e-07
1.81934e-07
9.14814e-08
5.73473e-07
3.79178e-06
9.14838e-07
1.75395e-07
8.9994e-08
5.66648e-07
3.79339e-06
9.15342e-07
1.75476e-07
9.00192e-08
5.66787e-07
3.92749e-06
9.49538e-07
1.8182e-07
9.14609e-08
5.73358e-07
3.92926e-06
9.50022e-07
1.81909e-07
9.14789e-08
5.73437e-07
3.79211e-06
9.1491e-07
1.75402e-07
9.00012e-08
5.66669e-07
3.88586e-06
9.42257e-07
1.81227e-07
9.30117e-08
5.85902e-07
3.82179e-06
9.28088e-07
1.78923e-07
9.36244e-08
5.92333e-07
3.93713e-06
9.5454e-07
1.83363e-07
9.32374e-08
5.86065e-07
3.81953e-06
9.21447e-07
1.76496e-07
8.99519e-08
5.65482e-07
3.97134e-06
9.59939e-07
1.8358e-07
9.13935e-08
5.71416e-07
3.97392e-06
9.60666e-07
1.83717e-07
9.14577e-08
5.71875e-07
3.81725e-06
9.20768e-07
1.76373e-07
8.98861e-08
5.6497e-07
3.93712e-06
9.54571e-07
1.83365e-07
9.32301e-08
5.86036e-07
3.81934e-06
9.21454e-07
1.76494e-07
8.99624e-08
5.65532e-07
3.97103e-06
9.59894e-07
1.83572e-07
9.13958e-08
5.7144e-07
3.97355e-06
9.6061e-07
1.83711e-07
9.14723e-08
5.71953e-07
3.81718e-06
9.20802e-07
1.76372e-07
8.98855e-08
5.64972e-07
2.58083e-05
2.58638e-05
2.58107e-05
2.57992e-05
3.00194e-05
2.57593e-05
2.82345e-05
2.0376e-05
3.00207e-05
2.57581e-05
2.9668e-05
2.82331e-05
1.35376e-05
2.49892e-05
1.57299e-05
3.00158e-05
2.95697e-05
1.73074e-05
2.95662e-05
1.73114e-05
1.57226e-05
1.20017e-05
2.03759e-05
2.509e-05
2.50908e-05
1.19986e-05
1.57249e-05
3.00177e-05
1.7303e-05
2.9562e-05
1.73065e-05
2.95589e-05
1.57177e-05
1.35383e-05
2.80284e-05
2.83613e-05
2.4986e-05
1.97185e-05
2.83498e-05
1.97146e-05
2.80363e-05
2.81351e-05
2.83967e-05
2.83867e-05
2.81388e-05
1.93599e-05
1.1998e-05
1.19911e-05
1.93385e-05
2.78702e-05
2.586e-05
2.68099e-05
2.67868e-05
2.67986e-05
2.67762e-05
2.78806e-05
2.58434e-05
2.5872e-05
2.58442e-05
2.58493e-05
2.58729e-05
2.63456e-05
2.82192e-05
2.8582e-05
2.61854e-05
2.85673e-05
2.61732e-05
2.63587e-05
2.67741e-05
2.77278e-05
2.96645e-05
2.90967e-05
2.90857e-05
2.77158e-05
2.67845e-05
2.63393e-05
2.82181e-05
2.61835e-05
2.85751e-05
2.61711e-05
2.85608e-05
2.63527e-05
2.67523e-05
2.77527e-05
2.77454e-05
2.67581e-05
2.5863e-05
2.58095e-05
2.5809e-05
2.57984e-05
1.37685e-05
1.35546e-05
2.52988e-05
2.5033e-05
2.08835e-05
3.03953e-05
2.98733e-05
2.57724e-05
2.82402e-05
2.0409e-05
2.96891e-05
1.37649e-05
1.35549e-05
2.82201e-05
2.84028e-05
2.52908e-05
2.00059e-05
2.00013e-05
2.83924e-05
2.82226e-05
2.8023e-05
2.83639e-05
2.50342e-05
1.96759e-05
1.96732e-05
2.83525e-05
2.80235e-05
1.92329e-05
1.20461e-05
1.19539e-05
1.20421e-05
1.19507e-05
1.92225e-05
1.22971e-05
2.08758e-05
2.56338e-05
2.56236e-05
1.23008e-05
1.60704e-05
3.03878e-05
1.77867e-05
3.00062e-05
1.77811e-05
2.99997e-05
1.60728e-05
1.2011e-05
2.04075e-05
2.51203e-05
2.51213e-05
1.2008e-05
2.78814e-05
2.58584e-05
2.6792e-05
2.68017e-05
2.67806e-05
2.67888e-05
2.78944e-05
2.58483e-05
2.67475e-05
2.77374e-05
2.98662e-05
2.92005e-05
2.77299e-05
2.91937e-05
2.67536e-05
2.63189e-05
2.82336e-05
2.86176e-05
2.61581e-05
2.86103e-05
2.61552e-05
2.63224e-05
2.67841e-05
2.77422e-05
2.9685e-05
2.91112e-05
2.77298e-05
2.91001e-05
2.67943e-05
4.04635e-06
9.70367e-07
1.83804e-07
8.73776e-08
5.39774e-07
4.05825e-06
9.83908e-07
1.88484e-07
9.39584e-08
5.87943e-07
3.88523e-06
9.42042e-07
1.8118e-07
9.29835e-08
5.85807e-07
4.04316e-06
9.69489e-07
1.83642e-07
8.72879e-08
5.39146e-07
4.05627e-06
9.8332e-07
1.88375e-07
9.38929e-08
5.8747e-07
3.79302e-06
9.15231e-07
1.75463e-07
9.00254e-08
5.66773e-07
3.9303e-06
9.50314e-07
1.81961e-07
9.15081e-08
5.73579e-07
3.92861e-06
9.49849e-07
1.81883e-07
9.14955e-08
5.73496e-07
3.7947e-06
9.15694e-07
1.75549e-07
9.00483e-08
5.66889e-07
3.79207e-06
9.14994e-07
1.75427e-07
9.00249e-08
5.66792e-07
3.92949e-06
9.50131e-07
1.81929e-07
9.15028e-08
5.73558e-07
3.92776e-06
9.49661e-07
1.81851e-07
9.14903e-08
5.73475e-07
3.7938e-06
9.15464e-07
1.75514e-07
9.00476e-08
5.66909e-07
3.88727e-06
9.42743e-07
1.81322e-07
9.30667e-08
5.86367e-07
4.04623e-06
9.7047e-07
1.83982e-07
8.80605e-08
5.44867e-07
4.04049e-06
9.68887e-07
1.837e-07
8.79958e-08
5.44537e-07
3.79431e-06
9.21394e-07
1.77748e-07
9.34736e-08
5.92117e-07
3.79008e-06
9.20154e-07
1.77521e-07
9.34187e-08
5.91819e-07
4.09308e-06
9.92014e-07
1.89868e-07
9.40431e-08
5.87446e-07
4.06219e-06
9.84719e-07
1.88603e-07
9.39524e-08
5.87838e-07
4.098e-06
9.82353e-07
1.85839e-07
8.74661e-08
5.38818e-07
4.05253e-06
9.71777e-07
1.84042e-07
8.74114e-08
5.39792e-07
4.09036e-06
9.91212e-07
1.89717e-07
9.39522e-08
5.86799e-07
4.05961e-06
9.84002e-07
1.88473e-07
9.38897e-08
5.87403e-07
3.94078e-06
9.55411e-07
1.83513e-07
9.32611e-08
5.86136e-07
4.09278e-06
9.81037e-07
1.85598e-07
8.73337e-08
5.37904e-07
4.04894e-06
9.70803e-07
1.83863e-07
8.73196e-08
5.39164e-07
3.80568e-06
9.24206e-07
1.78239e-07
9.35077e-08
5.921e-07
3.78203e-06
9.18603e-07
1.7728e-07
9.34207e-08
5.92118e-07
3.88835e-06
9.42816e-07
1.81313e-07
9.30117e-08
5.85854e-07
3.89047e-06
9.43534e-07
1.81457e-07
9.30943e-08
5.86411e-07
4.07565e-06
9.77321e-07
1.85147e-07
8.81391e-08
5.44587e-07
4.07284e-06
9.7658e-07
1.85013e-07
8.80728e-08
5.44133e-07
4.03897e-06
9.68853e-07
1.83709e-07
8.80334e-08
5.44911e-07
4.03675e-06
9.68214e-07
1.83594e-07
8.7987e-08
5.44603e-07
3.77919e-06
9.17933e-07
1.77164e-07
9.33707e-08
5.91774e-07
3.80263e-06
9.23467e-07
1.7811e-07
9.34467e-08
5.91673e-07
3.81937e-06
9.21214e-07
1.76438e-07
8.98736e-08
5.64911e-07
3.97473e-06
9.60772e-07
1.8372e-07
9.14436e-08
5.71823e-07
3.97238e-06
9.60128e-07
1.83602e-07
9.13736e-08
5.71318e-07
3.82176e-06
9.21953e-07
1.76582e-07
8.99554e-08
5.6546e-07
3.94512e-06
9.56663e-07
1.8376e-07
9.34069e-08
5.87121e-07
2.58369e-05
2.57481e-05
2.57666e-05
2.57699e-05
2.58359e-05
2.5839e-05
2.58327e-05
2.57629e-05
2.57671e-05
2.58293e-05
2.57703e-05
2.57663e-05
2.57679e-05
2.58252e-05
2.57743e-05
2.50432e-05
2.53577e-05
2.58391e-05
2.50291e-05
2.53444e-05
3.03789e-05
2.08549e-05
3.04531e-05
1.37663e-05
1.37314e-05
2.03949e-05
3.00878e-05
2.57481e-05
2.5748e-05
2.57485e-05
2.97259e-05
2.57109e-05
2.57724e-05
2.82469e-05
1.35357e-05
2.5724e-05
2.99478e-05
2.82576e-05
2.50456e-05
2.53579e-05
1.35359e-05
1.35296e-05
1.37838e-05
1.37794e-05
2.58404e-05
2.50317e-05
2.53501e-05
2.50377e-05
2.53506e-05
1.35311e-05
1.35393e-05
1.37808e-05
1.37856e-05
1.37571e-05
1.35487e-05
2.53168e-05
2.50228e-05
3.03722e-05
2.08463e-05
2.07966e-05
3.04423e-05
2.83811e-05
2.99279e-05
2.57209e-05
2.57281e-05
2.82519e-05
2.83783e-05
2.99398e-05
2.5721e-05
2.57725e-05
2.99058e-05
2.57276e-05
2.82483e-05
2.53237e-05
2.50285e-05
2.58304e-05
2.52986e-05
1.35353e-05
2.9748e-05
2.57114e-05
2.82476e-05
2.03717e-05
3.00885e-05
2.571e-05
2.97265e-05
2.82465e-05
2.0363e-05
3.0091e-05
2.57103e-05
2.97255e-05
2.82466e-05
2.03679e-05
3.009e-05
2.50082e-05
2.53432e-05
1.37676e-05
2.57239e-05
2.99625e-05
2.82577e-05
2.08462e-05
3.04554e-05
2.08551e-05
3.04541e-05
1.35386e-05
1.37827e-05
1.92358e-05
1.19717e-05
1.20105e-05
1.198e-05
1.20179e-05
1.92145e-05
2.82149e-05
2.84007e-05
1.98254e-05
2.50299e-05
1.9813e-05
2.82272e-05
2.83993e-05
2.81443e-05
2.84617e-05
1.98738e-05
2.5346e-05
1.98634e-05
2.81561e-05
2.84577e-05
1.92162e-05
1.19781e-05
1.20161e-05
1.19705e-05
1.20092e-05
1.92353e-05
2.82232e-05
1.98149e-05
2.50426e-05
2.84043e-05
1.9826e-05
2.82123e-05
2.84018e-05
2.81525e-05
1.98657e-05
2.53537e-05
2.84646e-05
1.98741e-05
2.81426e-05
2.84615e-05
1.59516e-05
1.76365e-05
2.99695e-05
3.03711e-05
1.7666e-05
2.99653e-05
1.59321e-05
1.2272e-05
2.08671e-05
2.56656e-05
2.56139e-05
1.22894e-05
1.22345e-05
2.0831e-05
2.56174e-05
1.60223e-05
3.04517e-05
1.77592e-05
3.0056e-05
1.77328e-05
3.00555e-05
1.60473e-05
1.37861e-05
1.37429e-05
1.20025e-05
2.03814e-05
2.51055e-05
2.51017e-05
1.2007e-05
1.57137e-05
3.00757e-05
2.96346e-05
1.73038e-05
2.9619e-05
1.72883e-05
1.57268e-05
1.35282e-05
2.8216e-05
2.84059e-05
1.98275e-05
2.50305e-05
2.82281e-05
2.84022e-05
1.98129e-05
2.81493e-05
2.8467e-05
1.98769e-05
2.53463e-05
2.81591e-05
2.8464e-05
1.98649e-05
1.92313e-05
1.19781e-05
1.20167e-05
1.92374e-05
1.19716e-05
1.20114e-05
1.35271e-05
1.35379e-05
1.37781e-05
1.37845e-05
1.92149e-05
1.1979e-05
1.20172e-05
1.92343e-05
1.19712e-05
1.20102e-05
2.82287e-05
2.84056e-05
1.98176e-05
2.50411e-05
2.82158e-05
1.98291e-05
2.84036e-05
2.81575e-05
2.84671e-05
1.98692e-05
2.53572e-05
2.81467e-05
1.9879e-05
2.84643e-05
1.92338e-05
1.19716e-05
1.20108e-05
1.9216e-05
1.19789e-05
1.20173e-05
2.82162e-05
1.9827e-05
2.83986e-05
2.50267e-05
2.82263e-05
1.98167e-05
2.84002e-05
2.81464e-05
1.98763e-05
2.84594e-05
2.53467e-05
2.8156e-05
1.98687e-05
2.8461e-05
1.354e-05
1.35309e-05
1.37869e-05
1.37812e-05
1.3771e-05
1.37425e-05
1.35414e-05
2.82718e-05
2.84415e-05
2.53084e-05
1.99911e-05
1.99815e-05
2.84346e-05
2.82818e-05
2.80689e-05
2.84038e-05
2.50211e-05
1.96682e-05
1.9656e-05
2.84009e-05
2.80825e-05
2.53141e-05
2.84317e-05
1.92161e-05
1.20313e-05
1.19432e-05
1.20245e-05
1.19357e-05
1.92253e-05
1.59498e-05
1.76359e-05
2.99573e-05
3.03638e-05
1.76648e-05
2.99528e-05
1.59288e-05
1.22706e-05
2.08717e-05
2.56236e-05
2.56239e-05
1.22753e-05
1.22158e-05
2.55528e-05
2.08012e-05
2.55554e-05
1.2214e-05
1.60165e-05
3.04408e-05
1.77575e-05
3.00406e-05
1.77304e-05
3.00409e-05
1.60456e-05
1.93286e-05
1.20407e-05
1.20259e-05
1.20053e-05
2.80994e-05
2.84488e-05
2.53239e-05
1.98744e-05
1.98657e-05
2.84414e-05
2.81179e-05
2.81759e-05
2.83749e-05
2.50193e-05
1.98239e-05
2.83748e-05
1.98138e-05
2.81691e-05
2.80472e-05
1.98912e-05
2.52959e-05
2.84441e-05
1.98841e-05
2.84401e-05
2.80985e-05
2.82337e-05
2.5038e-05
2.83771e-05
1.9838e-05
1.92556e-05
1.2033e-05
1.19882e-05
1.20206e-05
1.19823e-05
1.92682e-05
1.35275e-05
1.35405e-05
1.1994e-05
2.03587e-05
2.50786e-05
2.50797e-05
1.19986e-05
1.57092e-05
3.00761e-05
1.73003e-05
2.9628e-05
1.72856e-05
2.96122e-05
1.57224e-05
1.57236e-05
3.00839e-05
2.96244e-05
1.73037e-05
1.19897e-05
2.03508e-05
2.50793e-05
2.50658e-05
1.19977e-05
1.19979e-05
2.03648e-05
2.50794e-05
1.57078e-05
3.00773e-05
2.96296e-05
1.73024e-05
2.96145e-05
1.72881e-05
1.57228e-05
1.5724e-05
3.00831e-05
1.73022e-05
2.96237e-05
1.19907e-05
2.03557e-05
2.50794e-05
2.50658e-05
1.19989e-05
1.19998e-05
2.0363e-05
2.50791e-05
1.57079e-05
3.00765e-05
1.73007e-05
2.9629e-05
1.72865e-05
2.96137e-05
1.5723e-05
2.80404e-05
2.8383e-05
2.5015e-05
1.96946e-05
1.96786e-05
2.83803e-05
2.80434e-05
2.8203e-05
2.84234e-05
2.53323e-05
2.00379e-05
2.84202e-05
2.00195e-05
2.81939e-05
1.92732e-05
1.19743e-05
1.20691e-05
1.19639e-05
1.20554e-05
1.9299e-05
1.37668e-05
1.22852e-05
2.08483e-05
2.56331e-05
2.56258e-05
1.22795e-05
1.60487e-05
3.0448e-05
3.00511e-05
1.77659e-05
3.00421e-05
1.77609e-05
1.60505e-05
1.22857e-05
2.08563e-05
2.56374e-05
2.56299e-05
1.22804e-05
1.60506e-05
3.04472e-05
3.0052e-05
1.77641e-05
3.00431e-05
1.77606e-05
1.60521e-05
1.35302e-05
1.35295e-05
1.37818e-05
2.79303e-05
2.68025e-05
2.68014e-05
2.58408e-05
2.79259e-05
2.68105e-05
2.68081e-05
2.57979e-05
2.57924e-05
2.5824e-05
2.7928e-05
2.68034e-05
2.68023e-05
2.58401e-05
2.79243e-05
2.68117e-05
2.68091e-05
2.79281e-05
2.58378e-05
2.68107e-05
2.68082e-05
2.79235e-05
2.68025e-05
2.68015e-05
2.79197e-05
2.67901e-05
2.68008e-05
2.58368e-05
2.67964e-05
2.68087e-05
2.79156e-05
2.78965e-05
2.67954e-05
2.67801e-05
2.58324e-05
2.67867e-05
2.67997e-05
2.78914e-05
2.78831e-05
2.67925e-05
2.67705e-05
2.58288e-05
2.67767e-05
2.68002e-05
2.78792e-05
2.79224e-05
2.58368e-05
2.68106e-05
2.68086e-05
2.79254e-05
2.68026e-05
2.68016e-05
2.57976e-05
2.57924e-05
2.58246e-05
2.57924e-05
2.57973e-05
2.58246e-05
2.57923e-05
2.5797e-05
2.58242e-05
2.67868e-05
2.77354e-05
2.9717e-05
2.9137e-05
2.77436e-05
2.91299e-05
2.67788e-05
2.67818e-05
2.97238e-05
2.77373e-05
2.91292e-05
2.634e-05
2.82587e-05
2.85997e-05
2.61537e-05
2.86086e-05
2.61638e-05
2.63331e-05
2.67548e-05
2.7764e-05
2.99402e-05
2.92395e-05
2.7769e-05
2.92364e-05
2.67551e-05
2.63108e-05
2.82623e-05
2.61334e-05
2.86398e-05
2.61373e-05
2.86433e-05
2.63091e-05
2.79301e-05
2.58422e-05
2.68019e-05
2.6801e-05
2.7925e-05
2.681e-05
2.68079e-05
2.63441e-05
2.87252e-05
2.61844e-05
2.83365e-05
2.87e-05
2.61729e-05
2.63584e-05
2.67414e-05
2.77527e-05
2.99154e-05
2.92377e-05
2.92219e-05
2.77481e-05
2.6747e-05
2.67923e-05
2.9918e-05
2.92316e-05
2.77814e-05
2.63042e-05
2.82889e-05
2.86376e-05
2.6128e-05
2.86541e-05
2.61363e-05
2.63028e-05
2.63431e-05
2.87228e-05
2.61843e-05
2.83334e-05
2.86938e-05
2.61728e-05
2.63577e-05
2.67435e-05
2.77659e-05
2.99424e-05
2.92348e-05
2.92231e-05
2.77611e-05
2.6749e-05
2.67907e-05
2.92272e-05
2.99034e-05
2.78238e-05
2.92184e-05
2.68184e-05
2.7771e-05
2.63033e-05
2.82859e-05
2.8632e-05
2.61276e-05
2.86489e-05
2.61359e-05
2.63018e-05
2.78922e-05
2.5828e-05
2.68071e-05
2.67884e-05
2.67807e-05
2.67907e-05
2.78927e-05
2.67961e-05
2.77551e-05
2.97372e-05
2.91512e-05
2.91481e-05
2.77641e-05
2.67873e-05
2.63435e-05
2.82594e-05
2.86049e-05
2.61557e-05
2.86137e-05
2.61648e-05
2.63369e-05
2.67842e-05
2.77336e-05
2.97156e-05
2.91368e-05
2.91338e-05
2.77424e-05
2.67752e-05
2.6337e-05
2.82581e-05
2.61537e-05
2.85985e-05
2.61629e-05
2.86073e-05
2.63301e-05
2.67834e-05
2.77319e-05
2.97147e-05
2.91364e-05
2.77409e-05
2.91334e-05
2.67744e-05
2.6337e-05
2.82583e-05
2.61537e-05
2.85986e-05
2.61631e-05
2.86074e-05
2.63301e-05
2.67602e-05
2.77861e-05
2.99549e-05
2.92435e-05
2.77911e-05
2.92404e-05
2.676e-05
2.63104e-05
2.82624e-05
2.61334e-05
2.86399e-05
2.6137e-05
2.86434e-05
2.63083e-05
2.5799e-05
2.58083e-05
2.58178e-05
2.58729e-05
2.57736e-05
2.58076e-05
2.5804e-05
2.58803e-05
2.5746e-05
2.57734e-05
2.5776e-05
2.58562e-05
2.57468e-05
2.5773e-05
2.57756e-05
2.5855e-05
2.57464e-05
2.57694e-05
2.57711e-05
2.58457e-05
2.57464e-05
2.5766e-05
2.57687e-05
2.58378e-05
2.57461e-05
2.57662e-05
2.57688e-05
2.58375e-05
2.57461e-05
2.5766e-05
2.57687e-05
2.58373e-05
2.57461e-05
2.57661e-05
2.57687e-05
2.58373e-05
2.57461e-05
2.57662e-05
2.57687e-05
2.58375e-05
2.57461e-05
2.57661e-05
2.57687e-05
2.58372e-05
2.57461e-05
2.57658e-05
2.57687e-05
2.58371e-05
2.57461e-05
2.57662e-05
2.57688e-05
2.58371e-05
2.57461e-05
2.5766e-05
2.57688e-05
2.58372e-05
2.57461e-05
2.57662e-05
2.57687e-05
2.58371e-05
2.5746e-05
2.57662e-05
2.57689e-05
2.588e-05
2.58145e-05
2.5811e-05
2.58641e-05
2.58142e-05
2.58138e-05
2.58073e-05
2.58089e-05
2.58777e-05
2.58157e-05
2.58156e-05
2.58748e-05
2.58803e-05
2.58835e-05
2.58189e-05
2.58153e-05
2.5816e-05
2.58147e-05
2.58652e-05
2.58756e-05
2.5819e-05
2.58176e-05
2.58171e-05
2.58144e-05
2.58132e-05
2.58116e-05
2.58134e-05
2.58773e-05
2.58788e-05
2.58201e-05
2.58166e-05
2.58195e-05
2.58865e-05
2.58735e-05
2.58584e-05
2.58048e-05
2.58111e-05
2.57773e-05
2.57772e-05
2.58719e-05
2.58526e-05
2.58073e-05
2.58024e-05
2.57786e-05
2.57744e-05
2.58111e-05
2.57753e-05
2.57773e-05
2.58699e-05
2.58497e-05
2.58162e-05
2.57763e-05
2.57827e-05
2.58617e-05
2.58592e-05
2.58562e-05
2.57795e-05
2.57779e-05
2.57774e-05
2.57757e-05
2.58528e-05
2.58492e-05
2.57806e-05
2.57764e-05
2.57787e-05
2.57744e-05
2.57778e-05
2.57741e-05
2.57756e-05
2.58504e-05
2.58477e-05
2.57833e-05
2.57772e-05
2.5781e-05
2.58593e-05
2.58565e-05
2.58472e-05
2.5779e-05
2.57781e-05
2.57727e-05
2.57736e-05
2.58498e-05
2.58447e-05
2.57803e-05
2.57761e-05
2.57737e-05
2.57698e-05
2.57778e-05
2.57717e-05
2.57731e-05
2.58481e-05
2.58389e-05
2.57832e-05
2.57732e-05
2.57784e-05
2.58525e-05
2.5843e-05
2.58389e-05
2.57739e-05
2.57748e-05
2.57695e-05
2.57703e-05
2.58399e-05
2.58346e-05
2.57747e-05
2.57708e-05
2.57702e-05
2.57664e-05
2.5774e-05
2.57667e-05
2.57683e-05
2.58361e-05
2.5831e-05
2.57795e-05
2.57692e-05
2.57747e-05
2.5843e-05
2.58397e-05
2.58382e-05
2.57715e-05
2.57724e-05
2.57691e-05
2.57703e-05
2.58354e-05
2.58343e-05
2.57723e-05
2.57686e-05
2.57704e-05
2.57667e-05
2.57702e-05
2.57666e-05
2.57682e-05
2.58318e-05
2.58299e-05
2.57767e-05
2.57691e-05
2.57745e-05
2.58416e-05
2.58391e-05
2.58378e-05
2.57713e-05
2.57724e-05
2.57692e-05
2.57699e-05
2.58349e-05
2.58328e-05
2.57725e-05
2.57687e-05
2.57702e-05
2.57665e-05
2.57703e-05
2.57661e-05
2.57681e-05
2.58308e-05
2.58299e-05
2.57767e-05
2.57691e-05
2.57745e-05
2.58415e-05
2.58388e-05
2.58379e-05
2.57714e-05
2.57722e-05
2.57692e-05
2.57702e-05
2.58339e-05
2.58338e-05
2.57724e-05
2.57687e-05
2.57703e-05
2.57665e-05
2.57703e-05
2.57664e-05
2.57682e-05
2.58307e-05
2.58299e-05
2.57767e-05
2.5769e-05
2.57745e-05
2.58415e-05
2.58389e-05
2.58379e-05
2.57714e-05
2.57724e-05
2.57692e-05
2.577e-05
2.58344e-05
2.58329e-05
2.57725e-05
2.57687e-05
2.57703e-05
2.57665e-05
2.57703e-05
2.57662e-05
2.57683e-05
2.58307e-05
2.58298e-05
2.57767e-05
2.57689e-05
2.57745e-05
2.58416e-05
2.58389e-05
2.5838e-05
2.57714e-05
2.57722e-05
2.57692e-05
2.57702e-05
2.58339e-05
2.5834e-05
2.57725e-05
2.57687e-05
2.57703e-05
2.57666e-05
2.57704e-05
2.57666e-05
2.57681e-05
2.58306e-05
2.58298e-05
2.57766e-05
2.5769e-05
2.57743e-05
2.58414e-05
2.5839e-05
2.58379e-05
2.57715e-05
2.57723e-05
2.57693e-05
2.57699e-05
2.58346e-05
2.58329e-05
2.57725e-05
2.57687e-05
2.57702e-05
2.57666e-05
2.57702e-05
2.57659e-05
2.57681e-05
2.58306e-05
2.58297e-05
2.57765e-05
2.5769e-05
2.57744e-05
2.58413e-05
2.58389e-05
2.58379e-05
2.57715e-05
2.57722e-05
2.57692e-05
2.57702e-05
2.58339e-05
2.5834e-05
2.57724e-05
2.57687e-05
2.57703e-05
2.57666e-05
2.57702e-05
2.57665e-05
2.57682e-05
2.58305e-05
2.58297e-05
2.57766e-05
2.5769e-05
2.57745e-05
2.58413e-05
2.58389e-05
2.58379e-05
2.57714e-05
2.57723e-05
2.57691e-05
2.57698e-05
2.58347e-05
2.58329e-05
2.57725e-05
2.57687e-05
2.57703e-05
2.57666e-05
2.57703e-05
2.57662e-05
2.57682e-05
2.58306e-05
2.58297e-05
2.57767e-05
2.57691e-05
2.57745e-05
2.58413e-05
2.58389e-05
2.58379e-05
2.57713e-05
2.57721e-05
2.57691e-05
2.57702e-05
2.5834e-05
2.58339e-05
2.57725e-05
2.57687e-05
2.57703e-05
2.57666e-05
2.57703e-05
2.57664e-05
2.57681e-05
2.58306e-05
2.58297e-05
2.57766e-05
2.5769e-05
2.57744e-05
2.58412e-05
2.58389e-05
2.58376e-05
2.57713e-05
2.57724e-05
2.5769e-05
2.57699e-05
2.58346e-05
2.58327e-05
2.57725e-05
2.57688e-05
2.57701e-05
2.57663e-05
2.57703e-05
2.57662e-05
2.57679e-05