/*--------------------------------*- C++ -*----------------------------------*\
| =========                 |                                                 |
| \\      /  F ield         | OpenFOAM: The Open Source CFD Toolbox           |
|  \\    /   O peration     | Version:  2206                                  |
|   \\  /    A nd           | Website:  www.openfoam.com                      |
|    \\/     M anipulation  |                                                 |
\*---------------------------------------------------------------------------*/
FoamFile
{
    version     2.0;
    format      ascii;
    arch        "LSB;label=32;scalar=64";
    class       volScalarField;
    location    "0.2";
    object      omega;
}
// * * * * * * * * * * * * * * * * * * * * * * * * * * * * * * * * * * * * * //

dimensions      [0 0 -1 0 0 0 0];

internalField   nonuniform List<scalar> 
67442
(
20.294
20.4361
20.4155
20.8105
20.8143
20.4178
20.4162
20.8163
20.4349
20.4378
20.4373
20.8202
20.4131
222.632
56.4974
370.588
225.512
58.9607
20.2933
20.2937
20.2937
52.2383
20.3242
25.7597
373.747
20.316
50.5861
25.1396
103.837
101.777
371.54
373.798
102.137
104.327
221.788
56.3061
50.7348
20.3154
25.1327
50.6275
20.3157
25.1432
101.755
103.867
372.795
52.2545
20.3238
25.7369
225.613
58.9671
20.3244
52.2945
25.7395
224.765
58.8492
20.3244
52.2404
25.7616
224.859
58.8532
104.128
101.872
370.598
20.3147
50.5613
25.1454
221.808
56.3069
221.822
56.3491
372.844
370.591
398.329
222.924
111.593
111.802
398.142
270.464
56.3869
239.725
66.4552
240.003
66.5465
270.074
370.93
274.99
59.0793
69.5725
244.81
402.311
226.006
115.63
115.905
402.073
402.298
225.985
115.881
274.912
59.2488
69.3995
244.12
69.7259
244.667
274.333
374.054
374.359
65.6515
33.9192
104.108
232.915
34.0271
233.358
65.3234
65.1356
33.3511
102.043
233.305
33.4269
233.727
64.8358
160.54
382.859
382.096
383.11
382.344
160.076
371.807
374.097
374.409
65.4415
33.471
102.266
232.848
233.208
33.5555
65.1612
65.86
33.8766
104.644
235.181
235.581
34.0029
65.5417
161.239
382.799
383.753
383.026
383.993
160.755
397.368
222.16
111.216
111.471
397.063
269.385
56.4422
238.802
66.208
239.15
66.404
268.937
65.1643
33.4058
102.063
233.229
233.673
33.4699
64.8449
65.5084
33.94
104.144
232.93
34.0226
233.336
65.2948
160.766
381.955
382.931
382.074
383.216
160.267
373.147
275.015
59.088
244.805
69.6156
402.318
226.096
115.739
115.996
402.073
402.309
226.08
115.97
274.94
59.2592
244.118
69.4375
244.667
69.7672
274.357
401.351
225.187
115.284
115.61
401.021
273.797
59.0842
69.256
243.363
69.5259
243.758
273.198
401.37
225.256
115.348
115.668
401.038
273.803
59.0958
243.383
69.2525
243.785
69.5265
273.193
65.8074
33.8812
104.49
234.713
235.223
34.0005
65.4561
65.6264
33.5333
102.115
231.875
33.599
232.291
65.3806
161.341
383.523
381.479
383.833
381.895
160.942
370.937
397.416
222.182
111.266
111.518
397.116
269.43
56.4442
66.2118
238.933
66.4083
239.248
268.981
397.422
222.187
111.22
111.478
397.119
269.421
56.4804
66.2207
238.948
66.4153
239.264
268.974
373.206
370.964
20.2874
20.2877
20.282
30.7102
23.0613
22.9585
20.8193
23.0885
22.9787
30.6292
30.7445
22.9738
23.0444
20.8216
23.0037
23.0761
30.6478
30.784
22.9852
23.0921
20.8246
23.1168
22.9972
30.7054
30.847
23.0631
23.0033
20.8277
23.0333
23.0942
30.773
20.2874
20.2874
20.2833
20.2872
20.2874
20.282
20.2873
20.2874
20.2831
22.2564
25.319
52.416
33.8522
25.3751
33.9775
22.2304
21.31
25.826
27.4658
21.0156
27.556
21.0316
21.2933
22.0038
24.9638
50.6987
32.7356
24.9631
32.784
21.9995
21.1427
25.1502
20.9004
26.6987
20.9051
26.7229
21.1404
22.0073
24.9622
50.8018
32.7386
32.793
24.995
22.002
21.1406
25.1545
26.6827
20.9023
26.716
20.9064
21.1395
22.0081
24.9587
50.7372
32.7607
32.8011
24.9751
22.001
21.1448
25.163
26.7057
20.9038
26.7298
20.9085
21.1435
22.2448
25.2788
52.5225
33.8114
33.9548
25.3403
22.2148
21.304
25.8145
27.4338
21.0133
27.528
21.0337
21.2848
22.2516
25.2898
52.5508
33.8416
33.9838
25.3518
22.2206
21.3073
25.819
21.0145
27.4436
21.0349
27.5409
21.287
22.2617
25.3225
52.4217
33.8593
25.377
33.9845
22.2358
21.3116
25.8295
21.0175
27.4689
21.033
27.5591
21.2949
22.006
24.9273
50.6739
32.7393
24.9493
32.7828
22.001
21.1452
25.157
20.9012
26.7044
20.9057
26.7277
21.1443
749.719
1620.61
4410.68
16444.2
116782
738.627
1618.19
4408.37
16449
116912
749.409
1620.64
4410.88
16446.2
116803
738.34
1617.83
4407.91
16446.7
116892
738.513
1617.75
4407.75
16445.1
116862
738.367
1617.89
4408.22
16449
116912
749.851
1620.89
4410.9
16446.2
116803
738.401
1618.03
4407.7
16445.3
116872
749.427
1620.63
4410.86
16446.4
116814
749.54
1620.81
4410.46
16443.5
116781
749.516
1620.84
4410.54
16443.2
116772
738.579
1618.05
4407.81
16446.1
116881
749.825
1620.83
4410.72
16445.1
116795
749.827
1620.83
4410.7
16445.2
116802
738.416
1618.12
4407.97
16446.7
116892
738.605
1618.13
4408.26
16448.5
116912
736.226
1616.19
4405.14
16438.2
116835
749.638
1620.48
4410.51
16444.1
116782
738.454
1617.84
4408.17
16448.9
116912
742.449
1618.7
4406.83
16434.8
116752
743.478
1617.95
4404.81
16429.6
116727
735.94
1616.14
4405.19
16438.9
116840
749.291
1620.5
4410.71
16446
116803
749.561
1620.68
4410.88
16446.2
116803
738.359
1617.75
4407.78
16446.6
116892
738.637
1617.9
4407.91
16446.7
116892
748.551
1620.8
4410.36
16444.6
116795
748.315
1620.45
4410.17
16444.5
116795
748.67
1620.77
4410.38
16444.6
116795
748.456
1620.44
4410.19
16444.5
116795
737.534
1619.39
4410.24
16452.3
116918
737.537
1619.39
4410.17
16452.5
116921
737.3
1619.02
4410.05
16452.2
116918
737.31
1619.02
4409.97
16452.4
116921
738.553
1617.69
4407.63
16445
116862
738.38
1617.81
4408.09
16448.9
116912
738.658
1617.95
4408.22
16449
116912
749.581
1620.51
4410.66
16446
116803
748.55
1620.79
4410.26
16443.7
116789
748.308
1620.45
4410.07
16443.6
116789
737.531
1619.4
4410.13
16452.4
116919
737.307
1619.04
4409.93
16452.3
116919
738.188
1617.67
4407.5
16445.2
116872
742.437
1618.68
4406.8
16434.1
116747
743.474
1617.94
4404.75
16429.4
116725
735.939
1616.13
4405.22
16439
116852
749.312
1620.48
4410.68
16446.2
116814
749.581
1620.66
4410.85
16446.4
116814
749.217
1620.41
4410.21
16443.3
116781
735.702
1616.11
4405.06
16437.8
116831
749.201
1620.45
4410.3
16443.1
116772
748.653
1620.73
4410.05
16441.9
116759
748.436
1620.39
4409.87
16441.8
116759
737.4
1619.39
4410.28
16452
116904
738.413
1617.71
4407.61
16446
116881
736.017
1616.21
4405.15
16438.2
116836
749.568
1620.46
4410.48
16444.9
116795
736.014
1616.18
4405
16438
116840
749.565
1620.45
4410.46
16445.1
116802
738.217
1617.76
4407.77
16446.6
116892
738.452
1617.79
4408.07
16448.4
116912
735.997
1616.17
4405.02
16438.7
116838
735.717
1616.11
4405.01
16438.1
116840
742.728
1618.6
4406.9
16435.1
116768
743.773
1617.92
4404.97
16430.6
116747
743.782
1617.88
4404.88
16430.5
116747
742.738
1618.69
4407
16435.2
116768
736.248
1616.32
4405.28
16438.3
116835
748.657
1620.72
4410.16
16442.8
116776
748.453
1620.39
4409.97
16442.7
116776
737.509
1619.32
4409.81
16449.9
116887
737.246
1618.95
4409.61
16449.8
116887
736.021
1616.29
4405.33
16439
116840
742.236
1618.57
4406.72
16434.7
116752
743.329
1617.93
4404.81
16429.6
116727
743.296
1617.86
4404.71
16429.6
116727
742.307
1618.69
4406.83
16434.8
116752
736.196
1616.34
4405.33
16439
116840
748.391
1620.5
4410.11
16442.9
116778
748.36
1620.41
4409.99
16442.8
116778
737.37
1619.15
4410.32
16453
116918
737.399
1619.07
4410.19
16452.8
116918
748.566
1620.48
4410.13
16443
116776
748.53
1620.39
4410.01
16442.9
116776
737.486
1619.14
4410.24
16453.1
116933
737.496
1619.07
4410.13
16453
116933
748.454
1620.56
4410.28
16444.2
116795
748.404
1620.46
4410.15
16444.1
116795
737.428
1619.12
4410.06
16451.9
116921
737.432
1619.04
4409.94
16451.8
116921
742.535
1618.58
4406.65
16434.6
116751
743.832
1618.16
4404.81
16429.6
116727
743.666
1617.86
4404.65
16429.5
116727
742.808
1618.93
4406.81
16434.7
116751
736.293
1616.57
4405.24
16438.8
116838
742.225
1618.55
4406.7
16434
116747
743.325
1617.91
4404.75
16429.4
116725
743.292
1617.84
4404.65
16429.3
116725
742.296
1618.67
4406.8
16434.1
116747
736.019
1616.29
4405.36
16439.1
116852
736.196
1616.34
4405.36
16439.1
116852
736.066
1616.54
4405.23
16438.2
116840
742.062
1618.67
4407.02
16436
116774
743.44
1618.26
4405.11
16430
116749
743.191
1617.92
4404.94
16429.9
116749
742.414
1619.06
4407.2
16436.1
116774
742.056
1618.65
4407.05
16436.1
116769
743.452
1618.25
4405.12
16430.7
116747
743.204
1617.91
4404.95
16430.6
116747
742.408
1619.04
4407.22
16436.2
116769
736.035
1616.54
4405.29
16437.9
116831
737.239
1619.05
4410.09
16451.9
116904
736.298
1616.61
4405.37
16438.3
116836
742.55
1618.62
4406.87
16434.7
116758
743.867
1618.16
4404.91
16429.4
116725
743.681
1617.87
4404.81
16429.9
116736
742.823
1618.96
4406.98
16434.1
116748
736.297
1616.58
4405.22
16438.2
116840
742.548
1618.6
4406.69
16434.7
116752
743.869
1618.17
4404.81
16429.6
116727
743.683
1617.86
4404.65
16429.5
116727
742.823
1618.95
4406.85
16434.8
116752
20.4373
20.8255
20.4149
20.294
59.1032
20.324
25.8273
225.201
59.1024
20.3246
52.4562
25.8291
373.109
104.079
273.263
58.8021
69.508
243.677
69.1537
243.2
273.746
401.115
224.755
115.638
115.27
401.408
273.272
58.7994
243.7
69.5373
243.269
69.1841
273.763
372.704
65.1848
33.9968
103.725
233.994
33.8695
233.422
65.4834
65.1736
33.605
33.506
65.4999
160.42
382.828
382.467
160.765
30.8052
20.8152
23.1038
23.0283
23.0714
23.005
30.8896
20.2879
20.2822
20.2875
20.2878
20.2823
21.2948
25.7509
27.538
21.0328
27.4492
21.0183
21.3075
22.2351
25.3593
52.2182
33.9807
33.8488
25.3062
22.2542
21.2969
25.753
21.0339
27.5476
21.0193
27.4597
21.3106
21.9952
24.9709
24.9466
21.9964
20.8206
20.4174
20.4346
20.2943
370.862
373.182
102.001
104.301
222.056
56.4101
50.7068
20.3157
25.1528
225.031
52.4203
370.477
372.784
64.9128
33.5521
101.728
232.298
231.85
33.4501
65.2092
65.3095
33.9905
103.97
234.694
234.233
33.8567
65.6336
160.154
382.234
383.223
381.966
382.95
160.547
397.097
221.641
111.268
110.96
397.385
269.038
56.2267
239.127
66.3375
238.759
66.1089
269.454
401.095
224.554
115.502
115.12
401.402
30.6419
20.811
23.0018
23.0835
22.9799
23.0503
30.7416
20.2877
22.0022
24.9911
50.591
32.7474
24.972
32.7031
22.0032
21.1426
25.1298
26.702
20.9059
26.6788
20.9038
21.1396
22.2291
25.3484
52.1894
33.9482
25.2952
33.8165
22.2473
749.14
1620.47
4410.69
16446.2
116814
738.08
1617.72
4407.79
16446.6
116892
736.075
1616.58
4405.45
16439.1
116852
749.568
1620.9
4410.93
16446.4
116814
738.418
1618.12
4407.98
16446.7
116892
742.383
1618.96
4406.91
16434.8
116752
743.085
1617.84
4404.72
16429.6
116727
743.431
1618.21
4404.88
16429.6
116727
742.119
1618.61
4406.72
16434.7
116752
742.372
1618.95
4406.88
16434.1
116747
743.084
1617.83
4404.66
16429.4
116725
743.438
1618.2
4404.83
16429.4
116725
742.109
1618.6
4406.7
16434
116747
735.816
1616.19
4405.22
16439
116852
748.137
1620.4
4410
16442.8
116778
748.497
1620.78
4410.2
16442.9
116778
737.09
1619.05
4410.21
16452.9
116918
737.4
1619.43
4410.39
16452.9
116918
738.278
1617.66
4407.64
16445
116862
738.103
1617.78
4408.1
16448.9
116912
749.464
1620.48
4410.52
16444.1
116782
749.12
1620.49
4410.72
16446
116803
738.589
1618.05
4407.83
16445.1
116862
738.452
1618.18
4408.3
16449
116912
736.27
1616.6
4405.36
16438.3
116835
749.842
1620.88
4410.76
16444.2
116782
749.537
1620.92
4410.96
16446.2
116803
737.245
1619.05
4410.14
16453
116933
737.181
1619.02
4409.95
16451.8
116921
736.073
1616.58
4405.42
16439
116840
735.819
1616.19
4405.19
16438.9
116840
748.335
1620.39
4410.02
16442.9
116776
748.672
1620.75
4410.21
16443
116776
748.207
1620.45
4410.16
16444.1
116795
748.567
1620.83
4410.35
16444.2
116795
737.552
1619.42
4410.14
16451.9
116921
737.606
1619.45
4410.33
16453.1
116933
742.815
1618.97
4407.08
16435.2
116768
743.592
1617.88
4404.9
16430.6
116747
743.877
1618.21
4405.05
16430.6
116747
742.609
1618.65
4406.9
16435.1
116768
736.075
1616.23
4405.14
16438.2
116835
20.8069
20.2611
20.4114
20.3905
20.808
20.8134
20.8093
20.3793
20.3889
20.8138
20.4105
20.4136
20.4137
20.8166
20.3884
105.897
103.866
20.8131
105.834
103.756
59.8264
224.682
57.4181
373.057
374.235
227.688
59.9219
20.2606
20.2608
20.2607
53.2515
20.2933
20.4132
25.919
375.421
20.2837
51.4886
25.2971
105.822
103.826
375.25
375.096
373.087
372.948
20.8044
106.036
103.915
105.568
103.552
375.283
375.06
373.061
372.927
373.039
375.332
103.838
106.025
59.8193
224.718
226.258
57.4366
26.0278
51.576
20.2813
20.2906
25.2499
26.0286
51.5838
20.2814
20.3948
52.8195
20.2907
25.2537
103.805
106.001
20.816
104.624
375.262
53.1504
20.293
25.9146
227.799
59.944
20.2935
53.1887
25.9193
227.834
59.94
20.2935
53.1717
25.9208
227.84
59.9419
105.99
103.766
373.071
20.2831
51.5097
25.2981
224.696
57.3864
224.778
57.3819
375.132
373.009
162.702
384.957
384.188
384.916
384.151
162.393
66.8077
34.3357
236.053
105.605
235.647
66.5576
34.4435
66.2144
33.8095
236.366
103.55
235.98
66.0556
33.7818
162.861
385.099
384.33
384.733
383.955
162.551
66.4844
235.866
105.596
34.4512
235.657
66.5985
34.3272
65.9007
236.183
103.565
33.8331
236.006
66.0571
33.7294
274.088
244.573
70.0178
58.9534
243.654
69.2075
274.307
399.599
223.783
113.329
113.049
399.202
400.992
225.391
114.569
272.647
58.1719
241.923
67.5165
242.604
68.1514
272.215
372.341
373.474
403.209
227.857
117.405
117.598
403.058
276.203
60.1348
70.5679
246.27
70.7998
246.258
276.006
375.427
66.8564
34.3484
236.065
106.01
66.595
34.4722
236.055
66.2335
33.7828
236.409
103.939
65.9822
33.874
236.354
162.832
385.096
384.332
162.573
385.072
384.296
374.862
374.969
372.7
372.874
162.675
384.947
384.181
162.384
384.931
384.161
66.54
34.4712
236.148
105.786
66.8032
235.897
34.3293
66.1621
33.8749
236.493
103.711
66.1508
236.274
33.7663
162.377
385.072
384.301
162.7
385.048
384.289
66.773
235.661
34.3041
105.851
66.4893
235.861
34.4394
66.2953
235.997
33.7294
103.651
66.0205
236.161
33.8411
375.208
375.283
373.009
372.936
372.414
373.526
375.421
66.2826
33.8934
103.513
235.05
235.011
33.9352
66.0356
66.8256
34.2999
106.193
237.331
237.49
34.4238
66.5547
103.733
33.8785
162.85
384.266
385.228
384.211
385.197
162.599
273.686
244.552
70.1413
58.9484
243.59
69.101
274.617
399.765
223.944
113.374
113.094
399.149
400.73
115.578
225.309
114.306
401.83
272.818
58.1949
241.871
67.5268
242.619
68.1884
272.09
162.881
383.446
383.233
384.892
66.2085
33.8207
103.524
236.306
235.938
33.8679
66.0292
66.5819
34.3988
105.704
236.048
34.3875
235.667
66.6007
66.2055
235.744
103.787
34.1502
235.746
33.8255
66.1787
66.0767
105.705
34.3117
235.57
162.857
384.297
385.128
384.092
384.814
162.757
374.958
374.922
403.217
227.891
117.492
117.674
403.067
276.216
60.1608
246.284
70.6147
246.271
70.8516
276.017
276.053
59.9265
70.5488
245.949
403.147
227.457
117.564
117.296
402.998
403.033
227.407
117.246
276.242
60.1641
70.6091
246.274
70.845
246.124
275.996
276.054
59.9172
245.933
70.5509
403.142
227.473
117.569
117.323
402.984
403.022
227.365
117.233
276.245
60.1629
246.28
70.6092
246.132
70.8482
275.996
66.7095
34.3361
106.17
237.194
237.342
34.4536
66.3956
66.3189
33.8767
103.887
234.942
33.9645
234.91
66.075
163.024
385.188
384.15
385.285
384.262
162.771
373.001
399.262
224.604
113.28
113.261
399.215
271.991
57.4728
67.5623
241.944
67.6612
241.859
271.935
399.273
224.682
113.305
113.288
399.223
271.979
57.466
67.557
241.926
67.6466
241.809
271.92
375.339
375.04
373.141
31.0237
23.1364
23.0373
20.8149
30.9344
23.1707
23.0623
20.2541
20.2546
20.2506
31.0405
23.1384
23.0363
20.8122
30.9401
23.1753
23.0673
30.9388
20.8051
23.1754
23.066
31.0372
23.1358
23.0324
31.043
23.058
23.1304
20.8126
23.0882
23.1672
30.9429
31.0531
23.0593
23.1689
20.8201
23.1935
23.0812
31.0067
31.1123
23.1519
23.0855
20.8196
23.1135
23.1869
31.0239
30.9075
20.8067
23.1717
23.0592
30.9937
23.1354
23.0312
20.2535
20.254
20.2505
20.2539
20.2537
20.2505
20.2539
20.2535
20.2503
22.3051
25.459
53.1756
34.2543
25.5171
34.3667
22.275
22.2752
53.0844
25.4717
34.2526
21.3269
26.0041
27.6772
21.0199
27.7775
21.0393
21.3046
22.0492
25.099
51.6144
33.1259
25.139
33.1864
22.0332
21.1584
25.3299
20.9005
26.9108
20.9033
26.9461
21.1512
31.0396
20.8124
23.1307
23.0252
30.9351
23.1701
23.0591
21.2396
27.6969
21.0278
25.7021
27.3628
20.986
21.3
22.0185
25.1337
51.3147
33.1423
33.1426
25.0922
22.0405
22.1787
52.2246
33.8048
25.2458
21.1549
25.4951
26.8548
20.8938
27.0537
20.914
21.1474
21.2348
27.7289
21.0284
25.7038
27.3445
20.9862
21.3037
22.0255
25.1109
51.3125
33.1472
33.1621
25.0714
22.0393
22.0952
34.1556
51.9749
25.4008
33.6344
22.267
25.1347
21.1559
25.5024
26.85
20.8943
27.0888
20.9146
21.1477
31.0126
20.8116
23.1066
23.2018
23.1672
23.0501
31.1042
22.3074
25.4493
53.362
34.2472
34.3867
25.5159
22.2729
21.3262
25.9983
27.6738
21.0227
27.771
21.0411
21.3045
22.3143
25.4628
53.4012
34.273
34.4125
25.5305
22.2786
21.3295
26.0052
21.0238
27.6845
21.0426
27.7852
21.3063
22.3148
25.473
53.3862
34.2671
25.5403
34.4042
22.2793
21.3289
26.0062
21.0219
27.682
21.041
27.7823
21.3058
22.0503
25.0817
51.6296
33.1421
25.12
33.1992
22.035
21.1588
25.3295
20.9007
26.9136
20.9031
26.9487
21.1517
20.2745
20.4282
20.3998
20.8068
20.2598
20.4111
20.3894
20.8068
20.2603
20.4117
20.3897
20.807
20.26
20.4111
20.3896
20.8068
20.26
20.4116
20.3896
20.8069
20.2601
20.4111
20.3896
20.8067
20.2599
20.4116
20.3897
20.8068
20.2601
20.4111
20.3896
20.8068
20.2601
20.4116
20.3897
20.8069
20.2601
20.4111
20.3897
20.8068
20.26
20.4116
20.3897
20.8069
20.2601
20.4112
20.3896
20.8067
20.26
20.4115
20.3896
20.8069
20.2601
20.4111
20.3897
20.8069
20.26
20.4116
20.3897
20.8069
20.26
20.4112
20.3896
20.8133
20.4108
20.4143
20.8231
20.4279
20.4315
20.4338
20.4349
20.8206
20.4101
20.4106
20.8158
20.8039
20.8154
20.4026
20.4088
20.3918
20.3912
20.8137
20.8157
20.4198
20.4235
20.4101
20.4132
20.4295
20.4116
20.4135
20.8105
20.8215
20.4054
20.3894
20.3882
20.813
20.8072
20.816
20.393
20.3918
20.3922
20.3912
20.8073
20.8201
20.4112
20.4142
20.4101
20.4131
20.4142
20.4117
20.4132
20.8132
20.822
20.3889
20.3898
20.3878
20.8134
20.8074
20.8158
20.3935
20.393
20.3921
20.3909
20.8119
20.8165
20.4117
20.4143
20.4101
20.4131
20.415
20.4112
20.4132
20.8134
20.8219
20.3894
20.3897
20.3878
20.8134
20.8073
20.8158
20.3932
20.392
20.3921
20.3913
20.8076
20.8199
20.4115
20.4142
20.41
20.4131
20.4147
20.4116
20.4132
20.8135
20.8219
20.3891
20.3897
20.3878
20.8134
20.8072
20.8158
20.3932
20.3927
20.3921
20.3909
20.8118
20.8169
20.4115
20.4142
20.41
20.4131
20.4147
20.4112
20.4132
20.8134
20.8218
20.389
20.3895
20.3878
20.8133
20.8073
20.8158
20.3933
20.392
20.392
20.3913
20.808
20.8199
20.4115
20.4142
20.41
20.4131
20.4147
20.4116
20.4132
20.8133
20.822
20.3891
20.3897
20.3878
20.8133
20.8072
20.8158
20.3932
20.3926
20.3921
20.391
20.8118
20.8166
20.4114
20.4142
20.41
20.4131
20.4146
20.4112
20.4133
20.8135
20.8219
20.3891
20.3897
20.3878
20.8133
20.8073
20.8158
20.3932
20.3921
20.3921
20.3914
20.8077
20.82
20.4116
20.4142
20.41
20.4131
20.4147
20.4116
20.4132
20.8134
20.8219
20.3891
20.3897
20.3878
20.8134
20.8072
20.8158
20.3932
20.3928
20.392
20.391
20.8118
20.8169
20.4115
20.4142
20.41
20.4131
20.4146
20.4112
20.4132
20.8134
20.822
20.3891
20.3897
20.3878
20.8133
20.8072
20.8158
20.3932
20.3921
20.3921
20.3914
20.808
20.82
20.4115
20.4142
20.41
20.4131
20.4146
20.4116
20.4133
20.8134
20.8219
20.3891
20.3896
20.3878
20.8135
20.8072
20.8158
20.3932
20.3927
20.392
20.3908
20.8118
20.8165
20.4115
20.4142
20.41
20.4131
20.4147
20.4113
20.4132
20.8134
20.8219
20.3891
20.3896
20.3877
20.8133
20.8072
20.8158
20.3932
20.3919
20.392
20.3913
20.8076
20.82
20.4113
20.4142
20.41
20.4131
20.4146
20.4115
20.4133
20.8133
20.8219
20.389
20.3896
20.3878
20.8134
20.8072
20.8158
20.3932
20.3927
20.392
20.3909
20.8117
20.8165
20.4116
20.4142
20.41
20.4131
20.4146
20.4112
20.4132
20.8134
20.822
20.3891
20.3897
20.3878
20.8134
20.8072
20.8158
20.3932
20.392
20.3921
20.3913
20.8076
20.82
20.4115
20.4142
20.4101
20.4131
20.4146
20.4116
20.4132
20.8134
20.822
20.3891
20.3898
20.3878
20.8134
20.8073
20.8158
20.3933
20.3926
20.392
20.3909
20.8118
20.8164
20.4116
20.4142
20.41
20.4131
20.4147
20.4113
20.4132
20.8135
20.8219
20.389
20.3896
20.3877
20.8133
20.8072
20.8154
20.3932
20.392
20.3921
20.3915
20.8077
20.8197
20.4115
20.4142
20.4102
20.4132
20.4146
20.4115
20.4133
20.8134
20.8217
20.389
20.3902
20.3881
56.64
223.447
371.994
59.3283
226.481
20.2873
20.2899
20.2868
20.2902
25.8439
20.4363
52.6558
20.3241
374.606
25.1879
20.4156
20.3159
50.9135
20.8185
104.564
102.546
57.3458
224.662
57.1716
224.56
372.94
372.933
60.0328
227.768
59.5425
227.713
20.2842
20.2763
20.2844
20.26
20.261
20.2602
20.261
25.9091
52.6737
20.3141
20.4216
25.779
53.1587
20.3063
375.315
375.204
25.2815
20.3046
51.116
20.3942
25.1951
20.2962
51.3377
105.244
103.308
20.811
105.578
103.622
57.3851
224.743
57.4296
224.547
373.103
372.939
60.1719
227.849
59.9188
227.62
20.2621
20.2619
20.2621
20.2608
20.2604
20.2605
20.2604
26.003
53.2194
20.2922
20.4121
25.9118
53.2969
20.2941
375.328
375.195
25.3225
20.2825
51.5722
20.3909
25.3173
20.2843
51.5732
105.866
103.866
20.8129
105.823
103.747
57.4124
224.74
57.447
224.533
373.104
372.955
60.1661
227.694
59.9165
227.554
20.2622
20.2623
20.2622
20.2602
20.2604
20.2605
20.2604
25.9962
53.2371
20.2924
20.4127
25.9164
53.3083
20.2941
375.319
375.183
25.3169
20.2828
51.5812
20.3907
25.3134
20.2845
51.5811
105.905
103.84
20.813
105.845
103.726
57.3721
224.749
57.4027
224.548
373.113
372.928
60.1645
227.762
59.9213
227.594
20.2622
20.2622
20.2621
20.2602
20.2605
20.2605
20.2603
25.9959
53.2336
20.2922
20.412
25.9161
53.2907
20.2941
375.319
375.161
25.3164
20.2826
51.5774
20.3907
25.3125
20.2844
51.5733
105.89
103.819
20.813
105.837
103.713
57.4163
224.742
57.4471
224.537
373.107
372.948
60.1649
227.764
59.9211
227.595
20.2622
20.2623
20.2621
20.2603
20.2604
20.2605
20.2604
25.9957
53.2322
20.2923
20.4127
25.9157
53.3065
20.2942
375.304
375.19
25.3164
20.2827
51.5841
20.3906
25.312
20.2844
51.5744
105.903
103.828
20.8128
105.84
103.724
57.4189
224.766
57.4504
224.563
373.114
372.928
60.1646
227.765
59.9208
227.595
20.2622
20.2623
20.2621
20.2601
20.2605
20.2605
20.2604
25.9958
53.2329
20.2922
20.4121
25.9157
53.2898
20.2941
375.329
375.171
25.3176
20.2826
51.5757
20.3906
25.3128
20.2843
51.5852
105.891
103.821
20.8127
105.834
103.713
57.4192
224.744
57.4522
224.537
373.102
372.941
60.165
227.764
59.9212
227.595
20.2622
20.2623
20.2621
20.2603
20.2604
20.2605
20.2604
25.9958
53.2323
20.2923
20.4128
25.9157
53.3075
20.2942
375.307
375.191
25.3183
20.2827
51.5775
20.3907
25.3135
20.2844
51.5821
105.903
103.822
20.8128
105.844
103.72
57.4124
224.757
57.4503
224.559
373.107
372.922
60.1645
227.764
59.9208
227.595
20.2622
20.2623
20.2622
20.2603
20.2605
20.2605
20.2604
25.9957
53.2343
20.2922
20.4121
25.9157
53.2927
20.2941
375.321
375.184
25.3225
20.2827
51.5777
20.3907
25.3161
20.2844
51.5734
105.89
103.819
20.813
105.837
103.713
57.4173
224.742
57.4489
224.536
373.1
372.941
60.1649
227.764
59.9211
227.595
20.2622
20.2623
20.2622
20.2603
20.2604
20.2605
20.2604
25.9958
53.2331
20.2923
20.4129
25.9157
53.3162
20.2942
375.32
375.184
25.3192
20.2826
51.5841
20.3907
25.3156
20.2844
51.575
105.907
103.823
20.8129
105.844
103.72
57.4077
224.757
57.4467
224.559
373.107
372.921
60.1645
227.764
59.9208
227.595
20.2622
20.2622
20.2621
20.2602
20.2605
20.2605
20.2604
25.9958
53.2303
20.2923
20.4121
25.9157
53.2951
20.2942
375.32
375.184
25.3214
20.2826
51.584
20.3907
25.3165
20.2844
51.5729
105.892
103.818
20.8129
105.836
103.713
57.4187
224.742
57.4503
224.536
373.098
372.951
60.1649
227.792
59.9211
227.604
20.2623
20.2622
20.2621
20.2603
20.2604
20.2605
20.2603
25.9958
53.2323
20.2923
20.4129
25.9157
53.3125
20.2942
375.319
375.183
25.3172
20.2827
51.5781
20.3907
25.3131
20.2844
51.5785
105.904
103.839
20.8129
105.84
103.73
57.4197
224.766
57.4514
224.563
373.107
372.921
60.1647
227.772
59.9209
227.596
20.2622
20.2622
20.2621
20.2602
20.2605
20.2605
20.2604
25.9957
53.2304
20.2922
20.4122
25.9156
53.294
20.2941
375.319
375.184
25.3188
20.2826
51.5752
20.3906
25.3115
20.2844
51.5841
105.89
103.83
20.8129
105.834
103.727
57.4193
224.742
57.4517
224.535
373.098
372.95
60.165
227.763
59.921
227.595
20.2622
20.2622
20.2622
20.2604
20.2604
20.2605
20.2604
25.9957
53.2323
20.2922
20.4126
25.9157
53.3124
20.2943
375.319
375.184
25.3187
20.2827
51.5773
20.3907
25.3145
20.2844
51.5783
105.902
103.842
20.8129
105.839
103.733
57.4172
224.757
57.4508
224.559
373.111
372.935
60.1646
227.765
59.9209
227.596
20.2622
20.2622
20.2622
20.2602
20.2605
20.2605
20.2604
25.9958
53.2357
20.2923
20.4121
25.9158
53.2924
20.2942
375.319
375.184
25.3223
20.2826
51.5752
20.3907
25.317
20.2843
51.5842
105.891
103.83
20.8129
105.835
103.727
57.4129
224.741
57.4478
224.538
373.097
372.944
60.1649
227.763
59.9213
227.597
20.2622
20.2623
20.2621
20.2602
20.2604
20.2605
20.2604
25.9959
53.2333
20.2923
20.4127
25.9157
53.3162
20.2942
375.317
375.19
25.3222
20.2827
51.5777
20.3907
25.3168
20.2844
51.5717
105.902
103.842
20.8129
105.84
103.733
57.4197
224.739
57.452
224.555
373.098
372.94
60.1643
227.788
59.9207
227.63
20.2622
20.2622
20.2622
20.261
20.2605
20.2606
20.2605
25.9954
53.2308
20.2922
20.4121
25.9169
53.2952
20.294
375.309
375.215
25.3214
20.2826
51.5847
20.3906
25.317
20.2844
51.5737
372.295
374.657
20.819
102.563
104.947
372.867
372.267
375.239
374.74
20.8104
103.182
105.493
102.374
104.702
56.6561
223.287
25.1725
20.4178
50.9619
20.3158
25.1853
20.4166
50.9236
20.3156
56.5197
224.513
223.368
57.0348
56.5299
223.955
223.152
56.8994
25.1393
20.4159
51.2121
20.3098
50.8392
20.3142
25.2172
25.1509
20.4161
51.0952
20.3124
50.7985
20.3145
25.209
20.8246
102.582
104.736
374.219
372.801
372.143
20.8164
103.013
105.204
102.374
104.585
374.909
374.346
25.8218
20.4347
52.6558
20.3238
59.3352
226.583
25.8263
20.4378
20.3248
52.6894
59.1468
227.721
226.489
59.661
25.7338
20.4329
52.8992
20.3171
52.4363
20.3223
25.8611
59.1543
227.611
226.551
59.6656
25.7381
20.4362
20.3183
52.9269
20.323
52.4704
25.8642
59.3551
226.26
25.846
20.4374
20.3242
52.646
59.359
226.276
25.7507
20.4354
52.8185
20.3207
52.4271
20.3227
25.8601
59.1009
226.97
226.074
59.5189
25.7527
20.4365
20.3212
52.7984
20.3231
52.4191
25.8563
59.1087
227
226.079
59.5289
20.8252
104.828
102.552
371.964
375.23
374.686
20.8163
105.503
103.02
104.801
102.28
372.718
372.18
25.1918
20.4132
20.3146
50.8703
56.666
223.227
56.6847
223.219
25.1498
20.4142
20.3121
51.0734
20.3145
50.775
25.2169
25.154
20.4124
20.3115
51.0799
20.3135
50.7454
25.2135
56.5373
224.12
223.277
56.8933
56.5612
224.141
223.254
56.9021
374.18
372.013
20.8099
105.102
103.067
104.324
102.36
374.858
374.309
372.738
372.217
372.867
372.941
375.219
375.297
103.027
105.274
20.8124
103.678
106.021
372.99
372.935
375.329
375.294
20.8052
103.796
106.166
103.494
105.775
57.3199
223.824
56.7885
224.565
25.2869
51.1032
20.2999
20.3977
25.191
51.5514
20.2928
25.2739
50.9763
20.3063
20.4023
25.1802
51.4391
20.2978
57.2107
224.701
224.519
57.4818
57.1885
224.692
224.533
57.4587
25.2604
20.3924
51.6255
20.2834
51.4278
20.2849
25.3314
25.2478
20.3941
51.6006
20.2841
51.3164
20.2875
25.3312
102.839
104.958
20.8147
103.647
105.721
374.896
375.107
373.019
372.954
20.8064
103.856
105.981
103.462
105.475
375.186
375.075
25.9509
52.7061
20.3069
20.4153
25.7844
53.2322
20.3004
59.9826
227.373
59.429
227.785
25.9483
20.3082
52.7254
20.4183
25.7895
20.3014
53.2559
59.7731
227.993
227.516
60.15
25.8735
20.4106
53.3704
20.2922
53.026
20.2934
25.9994
59.7348
227.973
227.596
60.1349
25.8717
20.4139
20.2929
53.4141
20.2941
53.0529
26.0036
59.8408
226.785
59.2667
227.62
25.9029
20.3156
52.5751
20.4233
25.7651
20.3073
53.0981
59.8339
226.803
59.2795
227.605
25.8312
20.4146
53.3375
20.2927
52.9296
20.2971
25.9891
59.5985
227.807
227.44
60.0831
25.8259
20.4158
20.2936
53.3139
20.297
52.8841
25.9842
59.5957
227.786
227.403
60.082
105.281
102.823
20.8169
105.929
103.529
372.704
372.891
375.266
375.221
20.8096
106.176
103.838
105.915
103.253
372.989
372.889
25.2753
20.306
50.9472
20.399
25.1783
20.2974
51.4063
57.3253
223.96
56.7772
224.564
57.3152
223.963
56.7882
224.56
25.2496
20.39
20.2831
51.6116
20.2875
51.2029
25.3379
25.2439
20.3908
20.2834
51.553
20.287
51.2802
25.329
57.192
224.761
224.475
57.4532
57.1885
224.763
224.406
57.4587
374.847
375.112
372.748
372.968
20.8026
105.929
103.891
105.328
103.421
375.179
375.056
373.007
372.959
372.972
372.975
375.306
375.27
103.608
105.905
20.815
103.863
106.207
373.012
372.956
375.282
375.223
20.8072
103.855
106.171
103.669
105.932
57.505
224.598
57.3273
224.896
25.3209
51.4691
20.285
20.393
25.2916
51.6519
20.2849
25.339
51.4728
20.2852
20.3918
25.2978
51.6846
20.285
57.2508
224.7
224.519
57.4722
57.3675
224.718
224.646
57.511
25.2817
20.3922
51.6365
20.2837
51.5019
20.284
25.333
25.3003
20.3912
51.6195
20.2837
51.5167
20.2839
25.3411
103.686
105.704
20.8155
103.919
106.052
375.171
375.316
373.016
372.931
20.8086
103.82
106.053
103.626
105.817
375.222
375.237
25.996
53.118
20.2938
20.411
25.9044
53.3397
20.2938
60.1501
227.749
59.8587
227.916
25.9995
20.2945
53.1636
20.414
25.9127
20.2944
53.4083
59.8825
227.785
227.418
60.1589
25.902
20.4101
53.3347
20.2924
53.09
20.2927
25.9985
59.8655
227.837
227.699
60.1403
25.9032
20.4131
20.2931
53.3808
20.2931
53.1565
26.0023
60.155
227.625
59.8183
227.899
26.0002
20.2947
53.0677
20.4141
25.8961
20.2945
53.3592
60.1535
227.59
59.8223
227.878
25.9035
20.4117
53.3793
20.2926
53.0472
20.2939
26.0042
59.8706
227.823
227.691
60.137
25.9024
20.4132
20.2933
53.3556
20.2934
53.1034
25.9985
59.8713
227.857
227.664
60.1386
105.895
103.635
20.8201
106.096
103.767
372.967
372.965
375.261
375.167
20.812
106.12
103.851
106.004
103.434
372.991
372.954
25.3321
20.2845
51.4606
20.3887
25.2902
20.2843
51.5682
57.501
224.623
57.321
224.679
57.508
224.65
57.334
224.682
25.2906
20.3902
20.2832
51.6643
20.2842
51.4155
25.3361
25.2956
20.3878
20.283
51.5532
20.2831
51.4123
25.3292
57.3817
224.777
224.594
57.4587
57.394
224.698
224.643
57.4688
375.127
375.194
372.988
373.022
20.8041
106.038
103.918
105.561
103.544
375.181
375.177
373.005
372.992
372.968
372.985
375.272
375.245
103.662
105.9
20.8149
103.894
106.193
373.01