/*--------------------------------*- C++ -*----------------------------------*\
| =========                 |                                                 |
| \\      /  F ield         | OpenFOAM: The Open Source CFD Toolbox           |
|  \\    /   O peration     | Version:  2206                                  |
|   \\  /    A nd           | Website:  www.openfoam.com                      |
|    \\/     M anipulation  |                                                 |
\*---------------------------------------------------------------------------*/
FoamFile
{
    version     2.0;
    format      ascii;
    arch        "LSB;label=32;scalar=64";
    class       surfaceScalarField;
    location    "0.2";
    object      phi;
}
// * * * * * * * * * * * * * * * * * * * * * * * * * * * * * * * * * * * * * //

dimensions      [0 3 -1 0 0 0 0];

oriented        oriented;

internalField   nonuniform List<scalar> 
198714
(
-8.01359e-13
7.07908e-13
-4.69293e-13
6.03285e-13
-1.05901e-07
1.05901e-07
-3.817e-11
-1.16273e-12
-8.31479e-13
2.68159e-11
3.90665e-11
-2.20836e-11
-5.44657e-11
5.43139e-11
-5.73877e-11
5.53787e-11
1.04148e-07
-4.24053e-11
1.39662e-13
1.89241e-13
1.32366e-11
4.29998e-11
-1.36962e-11
5.42067e-12
2.21948e-11
-2.2873e-11
-4.87205e-12
-1.05002e-07
1.05002e-07
2.9239e-11
4.3027e-11
4.54294e-11
2.91577e-11
2.58008e-08
3.52494e-11
3.79453e-11
3.67203e-11
3.71355e-11
2.57891e-08
-2.59361e-08
6.64867e-13
7.84361e-12
3.59379e-11
-8.67238e-12
2.46569e-11
2.04688e-11
-2.17806e-11
-2.46706e-11
-1.05968e-07
1.05968e-07
-3.52617e-11
1.10407e-12
1.1201e-12
8.17973e-12
3.55879e-11
-1.33939e-11
2.46249e-11
2.02425e-11
-1.89398e-11
-2.47462e-11
1.05999e-07
3.64026e-11
3.77781e-11
2.57894e-08
-6.94974e-13
2.70542e-11
3.90775e-11
-2.68687e-11
-5.45406e-11
5.40031e-11
-5.47637e-11
5.53358e-11
-1.0416e-07
1.0416e-07
-2.92096e-11
-9.92507e-14
-2.97892e-13
2.28947e-11
3.04594e-11
-2.3171e-11
-3.38907e-11
5.28357e-11
-5.39492e-11
3.41341e-11
-1.05122e-07
1.05123e-07
-1.27264e-13
-4.41588e-13
2.31281e-11
3.05247e-11
-2.30818e-11
-3.42309e-11
5.34218e-11
-5.4419e-11
3.44508e-11
1.0512e-07
4.4566e-11
2.97833e-11
2.57959e-08
-2.59419e-08
9.78481e-14
1.4278e-13
1.33069e-11
4.35465e-11
-1.39413e-11
5.64466e-12
2.2065e-11
-2.28205e-11
-5.06123e-12
1.05037e-07
1.33006e-12
-5.04742e-12
1.74112e-08
-2.45378e-12
-1.88749e-12
-1.74031e-08
1.95596e-14
-1.60193e-11
2.33354e-08
5.16035e-12
2.15298e-12
-2.33267e-08
-1.18309e-12
-2.73439e-12
8.90468e-09
-2.48626e-12
2.23306e-12
-1.35462e-11
1.70472e-08
-3.39308e-12
-1.78775e-12
-1.70307e-08
-5.03368e-11
-1.15126e-14
2.27104e-08
4.62165e-12
1.66442e-11
-2.26813e-08
-6.65578e-13
6.37431e-13
1.059e-07
4.56871e-13
-3.83893e-13
-1.06173e-07
1.06173e-07
3.00611e-13
-4.27028e-13
1.06193e-07
1.1602e-11
1.33409e-11
-2.4115e-11
2.36237e-08
-1.77807e-11
4.19586e-13
-1.13052e-12
-9.12865e-11
1.22343e-10
-1.21754e-10
9.10908e-11
1.05248e-07
5.03382e-11
1.48061e-13
2.4714e-08
1.07049e-11
-8.80147e-11
-2.28501e-12
-5.73638e-12
8.73529e-09
-2.37351e-12
-8.7249e-09
3.68939e-13
1.13013e-12
5.88084e-12
-9.77607e-12
9.86151e-12
-6.37532e-12
1.04596e-07
5.91669e-12
5.09955e-12
-1.19538e-12
2.39742e-08
-9.6139e-12
1.45904e-13
1.5704e-11
2.52357e-08
-1.36781e-11
4.93885e-12
-1.16292e-11
5.84783e-12
-2.34763e-11
2.62097e-08
4.47108e-12
-6.21309e-12
3.24164e-12
-1.48546e-11
2.63325e-08
2.58805e-12
-3.1441e-12
8.90467e-09
-2.37491e-12
-8.89782e-09
-5.87966e-12
8.73676e-09
-2.27552e-12
-8.72637e-09
-6.52371e-12
-1.50624e-11
2.65343e-08
2.64982e-12
-2.65185e-08
-1.13895e-11
-2.34489e-11
2.60134e-08
4.67529e-12
-2.59891e-08
-5.08185e-12
1.74142e-08
-2.169e-12
-1.86503e-12
-1.60309e-11
2.33391e-08
5.40638e-12
2.16744e-12
-1.0072e-12
2.39649e-08
-9.79634e-12
-2.39657e-08
2.64587e-13
5.50561e-13
2.40267e-11
-1.02426e-11
1.03962e-11
-2.38673e-11
-1.06827e-07
1.06827e-07
1.47157e-13
2.52367e-08
4.92883e-12
-1.38873e-11
-2.52439e-08
6.35214e-12
-1.00556e-12
2.39584e-08
-9.53251e-12
6.83086e-13
2.40422e-11
-1.02634e-11
1.03969e-11
-2.38969e-11
1.06841e-07
2.524e-08
4.84882e-12
-1.35569e-11
-1.51163e-11
2.63955e-08
2.71685e-12
5.83704e-12
-2.3672e-11
2.61533e-08
4.43607e-12
-2.15032e-12
8.73729e-09
-2.17396e-12
-2.38069e-11
2.36119e-08
-1.74967e-11
-2.35955e-08
5.00407e-13
-9.98224e-13
-9.13171e-11
1.22644e-10
-1.21779e-10
9.13774e-11
-1.05244e-07
1.05243e-07
1.69419e-13
2.47128e-08
1.06558e-11
-8.80226e-11
-2.46859e-08
-1.34703e-11
1.70419e-08
-3.45928e-12
-1.79576e-12
-1.70255e-08
-5.03595e-11
2.27067e-08
1.66703e-11
4.55642e-12
-2.26775e-08
-1.22365e-12
-7.30868e-11
1.21894e-10
-1.21469e-10
7.38544e-11
-1.06362e-07
1.06363e-07
1.16766e-11
-2.37831e-11
2.3596e-08
-1.75394e-11
-2.35799e-08
2.471e-08
-8.80588e-11
1.0569e-11
-2.46827e-08
1.70482e-08
-3.34356e-12
-1.78658e-12
-9.25604e-15
2.27116e-08
4.62751e-12
1.66766e-11
-1.3242e-12
-7.3106e-11
1.21864e-10
-1.21483e-10
7.38174e-11
1.06364e-07
1.35083e-11
-2.38639e-11
2.36076e-08
-1.75105e-11
5.03589e-11
2.47111e-08
-8.80264e-11
1.05312e-11
2.2281e-12
1.70429e-08
-3.40024e-12
-1.79323e-12
2.27075e-08
1.66982e-11
4.54198e-12
-2.32469e-11
2.60698e-08
4.53411e-12
-2.60452e-08
3.11012e-12
-1.55272e-11
2.64722e-08
2.85149e-12
-1.0056e-12
8.90465e-09
-2.28196e-12
1.21932e-12
5.87006e-12
-9.79126e-12
9.61033e-12
-6.59393e-12
1.04607e-07
5.33802e-12
-9.44212e-13
2.39674e-08
-9.63527e-12
1.57043e-11
2.52387e-08
-1.36619e-11
4.85882e-12
1.74108e-08
-2.14104e-12
-1.89266e-12
1.63142e-14
2.33341e-08
2.14596e-12
4.99701e-12
1.08261e-12
1.74141e-08
-2.20617e-12
-1.87671e-12
2.33383e-08
2.11124e-12
4.76804e-12
8.73581e-09
-2.27826e-12
8.90512e-09
-2.34775e-12
-3.72734e-13
-7.4202e-09
1.03394e-12
2.91385e-12
7.41662e-09
2.06744e-12
-1.29994e-12
5.43254e-12
1.83889e-12
1.74031e-08
2.57164e-08
-4.1888e-13
-3.68727e-12
-9.66863e-12
-2.5705e-08
3.45348e-12
9.60295e-12
2.5705e-08
-1.2416e-12
-2.80796e-12
-7.41657e-09
6.59049e-13
3.85356e-12
-1.32121e-08
1.24719e-12
1.32074e-08
-5.00025e-12
-2.05648e-12
-3.25673e-15
1.57734e-11
2.33267e-08
1.60106e-08
7.83677e-13
-8.72403e-15
-1.19586e-12
-1.6005e-08
2.25077e-08
4.04242e-12
-1.39034e-11
-2.24993e-08
-2.48029e-14
1.26652e-12
1.6005e-08
1.35886e-11
2.24993e-08
-1.16516e-12
-1.32074e-08
1.14556e-12
3.05413e-12
2.23319e-12
8.89824e-09
-1.36562e-11
-1.17515e-12
2.01092e-12
-1.28174e-08
-1.16069e-12
1.28314e-08
4.63217e-12
1.6672e-11
-2.26813e-08
-2.11023e-14
2.27104e-08
-5.03709e-11
6.92629e-12
-2.19031e-08
2.19291e-08
-4.18923e-11
-1.55167e-08
-1.12134e-14
-1.17732e-12
1.55333e-08
3.84577e-12
-7.20087e-09
7.19217e-09
2.18978e-12
2.66131e-12
3.46934e-12
1.70307e-08
-2.38663e-12
1.35845e-11
1.81191e-12
2.51e-08
4.14166e-12
-6.93554e-12
-2.73057e-11
-2.50733e-08
2.50733e-08
7.02304e-12
2.69942e-11
-2.01449e-12
-2.58713e-12
-7.19213e-09
-4.16444e-12
-2.57308e-12
7.20092e-09
-3.40303e-12
2.2334e-12
-1.78302e-12
1.70472e-08
-1.35642e-11
2.51e-08
-2.73407e-11
1.37311e-11
1.27694e-12
-1.28313e-08
1.10379e-12
-4.56411e-12
-1.68277e-11
-3.72055e-14
5.05427e-11
2.19291e-08
1.36235e-11
-4.18554e-11
-2.19032e-08
1.55333e-08
1.17925e-12
-1.43173e-14
-1.18257e-12
-1.55166e-08
4.21476e-11
-2.04736e-14
1.1238e-12
-1.16934e-12
-1.28173e-08
8.725e-09
2.38894e-12
5.58034e-12
2.3213e-12
-2.31241e-12
-2.44221e-12
8.73535e-09
-5.59161e-12
2.04e-11
-1.1853e-11
-2.25061e-08
-1.37993e-11
2.34888e-11
2.24879e-08
2.50734e-08
2.06154e-11
-4.27617e-11
-3.16127e-11
2.34959e-11
-4.60044e-12
-5.63001e-12
1.15686e-11
2.61849e-08
1.64688e-08
-1.20116e-11
3.09991e-12
-1.18159e-12
4.28707e-11
3.12646e-11
2.50431e-08
-3.09919e-12
1.25425e-12
1.64542e-08
1.40987e-11
-2.36965e-11
1.75182e-11
-8.78019e-12
-2.15574e-08
-1.41704e-11
1.75715e-11
2.15452e-08
2.44437e-08
1.70997e-11
-2.90446e-11
-2.26036e-11
1.48807e-11
-2.83533e-12
-3.14305e-12
6.39683e-12
2.63172e-08
1.635e-08
-9.00593e-12
2.64684e-12
-1.20997e-12
2.85273e-11
2.3532e-11
2.44241e-08
-2.68083e-12
1.25463e-12
1.63398e-08
1.41591e-11
-1.81824e-11
-3.56983e-12
-3.14515e-12
-1.90746e-08
1.90534e-08
7.29954e-09
-3.74212e-12
-1.93574e-12
7.34416e-09
-3.34235e-12
-1.98427e-12
2.08423e-12
7.29079e-09
2.12502e-12
7.33621e-09
3.1802e-12
2.29828e-12
8.89789e-09
8.72643e-09
5.56388e-12
2.37623e-12
-2.26484e-12
8.73683e-09
-5.89552e-12
-8.98375e-12
1.70625e-11
-2.25944e-08
-1.32811e-11
2.0686e-11
2.25789e-08
2.52774e-08
1.65091e-11
-3.111e-11
-2.17745e-11
-2.52561e-08
-2.94998e-12
1.52225e-11
6.74021e-12
2.65184e-08
1.66183e-08
-9.1341e-12
2.3579e-12
-1.25041e-12
-1.66076e-08
-2.52161e-12
1.23436e-12
1.66077e-08
3.08536e-11
2.27124e-11
2.52561e-08
1.32129e-11
-2.13117e-11
-2.25789e-08
-1.17776e-11
2.11666e-11
-2.1475e-08
-1.43585e-11
1.9699e-11
2.14602e-08
2.42571e-08
2.16063e-11
-3.92851e-11
-3.1789e-11
-2.4231e-08
-4.67084e-12
2.32734e-11
1.1274e-11
2.59891e-08
1.62048e-08
-1.19656e-11
3.18331e-12
-1.17344e-12
-1.61901e-08
-3.10787e-12
1.26295e-12
1.61902e-08
3.91099e-11
3.13252e-11
2.42311e-08
1.48355e-11
-1.99113e-11
-2.14603e-08
-2.98875e-12
-3.71874e-12
-1.90767e-08
1.90558e-08
7.34022e-09
-3.27925e-12
-2.02145e-12
-7.33256e-09
7.30354e-09
-3.83731e-12
-1.93938e-12
-7.29458e-09
2.10334e-12
7.33261e-09
2.08729e-12
7.29463e-09
-1.90558e-08
-3.89376e-13
-7.42439e-09
1.06544e-12
2.9268e-12
7.42078e-09
1.80502e-12
5.4643e-12
1.84026e-12
1.74063e-08
2.57276e-08
-4.06206e-13
-3.74742e-12
-9.97057e-12
3.52525e-12
9.87018e-12
2.57156e-08
-1.24997e-12
-2.76597e-12
6.99772e-13
4.08972e-12
-1.32191e-08
1.2591e-12
1.32142e-08
-5.23968e-12
-2.07227e-12
1.57767e-11
2.33307e-08
1.60144e-08
7.74075e-13
-1.18379e-12
2.25164e-08
4.29297e-12
-1.39214e-11
1.27759e-12
1.60086e-08
1.36039e-11
2.25084e-08
-1.1406e-12
1.95183e-11
6.39642e-11
-2.15927e-08
-1.29323e-10
-1.19579e-10
2.17581e-08
2.48391e-08
1.40811e-11
-3.34787e-11
-2.1911e-11
-1.26001e-11
9.95443e-12
6.60182e-12
2.63946e-08
1.63412e-08
-1.1451e-11
1.8637e-13
-1.29636e-12
-2.80892e-11
9.97275e-13
1.63752e-08
-2.45926e-12
2.6596e-11
2.48889e-08
-1.51281e-12
-3.68374e-11
-2.5566e-11
-4.04834e-11
-2.24882e-08
1.1095e-10
1.50409e-10
2.22929e-08
2.46942e-08
2.41306e-11
-3.82282e-11
-3.24008e-11
2.85543e-11
5.39078e-12
-5.25232e-12
1.14435e-11
2.61132e-08
1.648e-08
-1.10485e-11
5.50869e-12
-1.06785e-12
7.32602e-11
2.79789e-11
2.45959e-08
2.27922e-11
1.43392e-12
1.64207e-08
3.11526e-11
-6.43645e-12
2.2747e-11
-2.82234e-11
-1.90818e-08
1.90689e-08
7.344e-09
-5.62559e-12
-1.97413e-12
7.30037e-09
-1.84442e-12
-1.75311e-12
2.03842e-12
7.33662e-09
2.37346e-12
7.29257e-09
2.34788e-12
2.45979e-12
8.72723e-09
-1.16987e-12
-1.37694e-11
2.08394e-12
-1.28105e-08
-1.10792e-12
1.28244e-08
1.66998e-11
4.57662e-12
-2.26776e-08
2.27066e-08
-5.03939e-11
-1.55128e-08
-1.17051e-12
1.55295e-08
7.02841e-12
-2.18938e-08
2.19197e-08
-4.21242e-11
3.87344e-12
-7.19662e-09
7.18794e-09
2.13011e-12
2.68158e-12
3.40859e-12
1.70255e-08
1.36415e-11
1.79408e-12
2.50876e-08
4.06934e-12
-7.02353e-12
-2.71583e-11
-2.50609e-08
2.50609e-08
7.00821e-12
2.6959e-11
-2.07636e-12
-2.58982e-12
-7.18788e-09
-4.09263e-12
-2.56382e-12
7.19668e-09
-3.48178e-12
-1.7947e-12
1.7042e-08
-1.35008e-11
2.50875e-08
-2.72136e-11
1.30064e-12
1.35796e-11
-1.28244e-08
1.16066e-12
-1.68024e-11
-4.65026e-12
5.05312e-11
1.55295e-08
1.16462e-12
-1.17405e-12
-1.55128e-08
2.19196e-08
1.37637e-11
-4.20957e-11
-2.18938e-08
1.12979e-12
4.1824e-11
-1.11447e-12
-1.28104e-08
3.64821e-12
-7.20094e-09
2.14484e-12
2.64966e-12
7.1925e-09
3.4703e-12
1.33798e-11
1.80489e-12
1.70319e-08
2.51011e-08
3.89945e-12
-6.87769e-12
-2.70329e-11
7.04119e-12
2.68036e-11
2.50743e-08
-1.96727e-12
-2.59162e-12
1.35603e-11
1.27502e-12
-1.28315e-08
1.09865e-12
1.28177e-08
-4.60505e-12
-1.68839e-11
-2.98297e-14
5.06056e-11
2.26825e-08
2.19301e-08
1.33433e-11
-4.15742e-11
1.55336e-08
1.19394e-12
-2.07534e-14
-1.16955e-12
4.19522e-11
2.19042e-08
-2.26462e-14
1.12147e-12
1.55169e-08
-1.17043e-12
3.89231e-12
-7.19683e-09
2.13693e-12
2.66855e-12
7.18813e-09
3.4277e-12
-2.38372e-12
1.36708e-11
1.79218e-12
1.70264e-08
2.50892e-08
4.07226e-12
-6.99618e-12
-2.71474e-11
7.02711e-12
2.70301e-11
2.50625e-08
-2.05815e-12
-2.58375e-12
1.30937e-12
1.3616e-11
-1.28248e-08
1.14917e-12
1.28109e-08
-1.68743e-11
-4.66148e-12
5.06034e-11
2.26784e-08
1.553e-08
1.16466e-12
-1.16459e-12
2.19205e-08
1.36636e-11
-4.20445e-11
1.12252e-12
1.55133e-08
4.19083e-11
2.18946e-08
-1.12367e-12
-1.18281e-11
2.07445e-11
-2.14758e-08
-1.48568e-11
1.96462e-11
2.14621e-08
2.46337e-08
2.06546e-11
-4.08405e-11
-3.15498e-11
-2.46052e-08
-4.80161e-12
2.34066e-11
1.16312e-11
2.60452e-08
1.61895e-08
-1.20833e-11
2.89606e-12
-1.12896e-12
-1.61747e-08
-2.98152e-12
1.3029e-12
1.61746e-08
4.12492e-11
3.14321e-11
2.46052e-08
1.50175e-11
-1.96352e-11
-2.14626e-08
1.69783e-11
-9.50698e-12
-2.26022e-08
-1.28203e-11
2.14698e-11
2.25861e-08
2.48906e-08
1.71106e-11
-3.0486e-11
-2.22749e-11
-2.48705e-08
1.53835e-11
-2.9442e-12
-2.9091e-12
6.02224e-12
2.64566e-08
1.66323e-08
-9.85418e-12
2.7361e-12
-1.21908e-12
2.9502e-11
2.29633e-11
2.48705e-08
-2.61776e-12
1.20036e-12
1.66212e-08
1.2847e-11
-2.21098e-11
-2.25857e-08
-3.51121e-12
-3.16318e-12
-1.908e-08
1.9059e-08
7.30257e-09
-3.92415e-12
-2.14931e-12
-7.2936e-09
7.34107e-09
-3.19957e-12
-1.74059e-12
2.02861e-12
7.29405e-09
2.24395e-12
7.33305e-09
-1.90593e-08
1.11253e-12
2.40716e-12
8.89822e-09
-5.70262e-13
-7.41957e-09
1.17046e-12
2.96746e-12
7.416e-09
2.15437e-12
5.24906e-12
1.87502e-12
1.74027e-08
2.57149e-08
-3.55206e-13
-3.52953e-12
-9.69649e-12
3.61935e-12
9.4313e-12
2.57034e-08
-1.09261e-12
-2.83597e-12
4.10945e-12
7.57993e-13
-1.32113e-08
1.22567e-12
1.32064e-08
-2.16921e-12
-5.03538e-12
1.4692e-15
1.57899e-11
2.33255e-08
2.25058e-08
4.02934e-12
-1.33295e-11
1.60095e-08
7.32618e-13
8.30774e-15
-1.23763e-12
1.34912e-11
2.24979e-08
2.68402e-15
1.26634e-12
1.60039e-08
-1.23897e-12
-3.6915e-13
-7.42382e-09
1.20157e-12
2.9836e-12
7.42e-09
2.14566e-12
-1.13513e-12
5.45203e-12
1.89653e-12
1.74057e-08
2.57254e-08
-1.65195e-13
-3.53784e-12
-9.71578e-12
3.64448e-12
9.39971e-12
2.57142e-08
-1.14977e-12
-2.84566e-12
4.09637e-12
7.42594e-13
-1.3218e-08
1.23053e-12
1.32132e-08
-2.16886e-12
-4.80189e-12
1.5801e-11
2.33295e-08
2.2515e-08
4.04768e-12
-1.33582e-11
1.60131e-08
7.20896e-13
-1.23243e-12
1.34736e-11
2.25071e-08
1.26455e-12
1.60078e-08
-1.22677e-12
2.33678e-12
8.72546e-09
2.36469e-12
8.89847e-09
1.38752e-13
6.78104e-14
-1.09644e-07
1.09644e-07
-3.67255e-13
6.03745e-14
-1.07481e-07
1.07481e-07
1.83677e-14
-1.66265e-13
-1.15731e-07
1.15731e-07
1.63777e-11
1.94415e-11
-2.39867e-08
2.39919e-08
2.55696e-08
1.71201e-11
2.45306e-08
1.95772e-11
-4.48734e-11
-2.78975e-11
2.59477e-08
2.55609e-08
2.45367e-08
1.45914e-11
2.14114e-11
-2.39771e-08
2.39815e-08
2.5652e-08
1.46718e-11
-2.56532e-08
2.44452e-08
2.22186e-11
-2.44425e-08
-3.56e-11
-3.63858e-11
2.59361e-08
2.56532e-08
2.44424e-08
-2.39815e-08
-2.2992e-11
6.17238e-11
-2.39839e-08
2.3976e-08
2.56031e-08
1.21886e-11
2.44933e-08
2.37596e-11
-4.27531e-11
-2.99748e-11
2.59368e-08
2.44787e-08
2.5619e-08
1.69803e-11
1.78789e-11
-2.39683e-08
2.39745e-08
2.55089e-08
1.8582e-11
-2.55008e-08
2.4568e-08
1.71698e-11
-2.45726e-08
-2.82609e-11
-4.41234e-11
2.59418e-08
2.45725e-08
2.55007e-08
-2.39743e-08
1.68425e-13
1.09646e-07
-5.01448e-13
4.80159e-14
1.07488e-07
-1.67337e-13
1.15734e-07
-6.93745e-13
-1.10797e-07
1.10797e-07
8.67311e-13
4.99435e-14
-1.05546e-07
1.05545e-07
5.29382e-14
-1.15859e-07
1.15859e-07
-8.38159e-13
1.10805e-07
8.46332e-13
1.05548e-07
1.15862e-07
-3.63305e-11
-4.41798e-11
-2.54747e-08
-2.54351e-11
2.55262e-08
2.51174e-08
-3.73944e-11
2.46644e-11
1.70931e-11
2.36067e-08
2.45893e-08
-4.49359e-11
-1.49197e-11
2.50763e-08
1.47374e-11
2.45743e-08
2.45205e-11
-6.85703e-11
1.69487e-11
-2.50571e-08
2.4992e-08
-1.02308e-11
8.79696e-11
-6.45641e-14
2.46869e-08
2.42836e-08
-6.80228e-11
2.57055e-08
1.76792e-11
6.93552e-12
2.42615e-08
-6.59409e-12
2.56953e-08
-2.21897e-11
-2.67375e-12
-2.57822e-08
-5.18179e-11
2.58643e-08
2.53804e-08
-2.16277e-11
-2.53601e-08
1.68055e-12
9.43262e-12
2.39744e-08
2.50235e-08
-3.63813e-12
-5.8463e-12
2.536e-08
6.29502e-12
2.50334e-08
5.2033e-11
-2.58644e-08
5.36844e-12
-8.69001e-12
-2.53569e-08
2.53143e-08
1.37234e-11
-4.78474e-12
-1.0243e-15
2.52425e-08
2.61032e-08
5.46186e-12
4.21517e-13
2.47317e-08
-8.01859e-12
-1.17836e-13
2.61322e-08
2.4738e-08
-2.1962e-12
-2.57099e-11
-2.57666e-08
8.19841e-12
2.58109e-08
2.53939e-08
-2.51025e-11
-2.53711e-08
9.41944e-12
2.00416e-12
2.39657e-08
2.50231e-08
-2.49715e-12
-9.42645e-12
-2.50306e-08
9.22928e-12
2.50307e-08
2.53711e-08
-7.95884e-12
-2.58109e-08
-7.10661e-12
8.41372e-12
-2.53687e-08
2.53996e-08
-4.73325e-12
1.32573e-11
-6.74867e-15
2.5244e-08
2.47334e-08
-7.86349e-12
-2.4744e-08
2.61055e-08
8.63296e-12
4.60195e-13
-2.61387e-08
2.47444e-08
-2.30081e-13
2.61378e-08
-2.53997e-08
-2.20174e-12
-2.60088e-11
-2.57688e-08
8.50689e-12
2.58131e-08
2.5344e-08
-2.50047e-11
9.2828e-12
2.00256e-12
2.39592e-08
2.5029e-08
-2.49399e-12
-9.40059e-12
9.27161e-12
2.50367e-08
2.53276e-08
-7.96759e-12
-7.42516e-12
8.69696e-12
-2.53732e-08
2.54045e-08
-4.78706e-12
1.32429e-11
2.52473e-08
2.47401e-08
-7.87398e-12
2.61085e-08
8.51563e-12
2.47507e-08
2.61407e-08
-4.41443e-11
-3.60721e-11
-2.54709e-08
-2.56575e-11
2.55223e-08
2.50648e-08
-3.67837e-11
-2.50296e-08
1.69115e-11
2.43308e-11
2.35955e-08
2.45869e-08
-4.49694e-11
-1.49103e-11
-2.45719e-08
1.47542e-11
2.4572e-08
2.50296e-08
2.48687e-11
-2.55222e-08
-6.88357e-11
1.68754e-11
-2.50563e-08
2.49913e-08
-1.01964e-11
8.79385e-11
-7.48439e-14
2.46856e-08
2.42821e-08
-6.83345e-11
-2.42598e-08
2.57052e-08
1.76025e-11
7.04077e-12
-2.56952e-08
2.42599e-08
-6.65355e-12
2.56949e-08
-2.49908e-08
-4.33244e-11
-3.91283e-11
-2.54462e-08
2.7581e-11
2.54672e-08
2.50704e-08
-3.968e-11
-2.50333e-08
1.68721e-11
2.45539e-11
2.35799e-08
2.45762e-08
-4.3754e-11
-1.8083e-11
-2.4559e-08
1.76195e-11
2.45591e-08
2.50334e-08
-2.83192e-11
-2.54672e-08
2.00522e-11
-6.73623e-11
-2.50574e-08
2.50592e-08
8.79848e-11
-1.03464e-11
2.46828e-08
2.57036e-08
2.0617e-11
-2.56834e-08
2.42742e-08
-6.79259e-11
-2.42559e-08
2.56835e-08
2.42559e-08
-2.50592e-08
-3.904e-11
-4.31081e-11
-2.54503e-08
2.76421e-11
2.54706e-08
2.51235e-08
-3.99421e-11
2.46089e-11
1.68722e-11
2.35914e-08
2.45782e-08
-4.34426e-11
-1.80672e-11
2.50859e-08
1.75925e-11
2.45614e-08
-2.83779e-11
2.00723e-11
-6.71216e-11
-2.50581e-08
2.50597e-08
8.80367e-11
-1.03632e-11
2.46839e-08
2.57042e-08
2.05998e-11
2.42753e-08
-6.75842e-11
2.56842e-08
2.42573e-08
-2.20071e-11
-2.6156e-12
-2.57852e-08
-5.19001e-11
2.58674e-08
2.53306e-08
-2.13664e-11
1.42187e-12
9.47468e-12
2.39684e-08
2.50293e-08
-3.6824e-12
-5.77628e-12
2.53107e-08
6.33596e-12
2.50392e-08
5.20421e-11
5.40938e-12
-8.68406e-12
-2.53617e-08
2.53189e-08
1.37402e-11
-4.83052e-12
2.52456e-08
2.61063e-08
5.35649e-12
2.47377e-08
-8.02996e-12
2.61349e-08
2.47439e-08
-8.88643e-13
5.18267e-14
3.16957e-09
-1.97073e-13
-3.17043e-09
-4.05586e-13
7.09919e-15
1.74942e-09
-9.6354e-14
-1.74981e-09
-1.58919e-13
-4.59403e-15
8.71687e-10
-4.42687e-14
-8.71885e-10
-3.91314e-14
-5.28173e-15
3.63088e-10
-1.78115e-14
-3.63185e-10
-2.26782e-15
8.64968e-11
-4.3158e-15
-8.65293e-11
-1.18736e-12
-6.51382e-14
5.93404e-09
-3.67838e-14
-5.26102e-13
-1.44757e-14
3.25666e-09
-2.6738e-14
-2.02095e-13
-1.20765e-15
1.61586e-09
-1.67915e-14
-4.93004e-14
2.6815e-15
6.70932e-10
-8.35262e-15
1.59688e-15
1.59498e-10
-2.23475e-15
-8.45095e-13
3.39925e-15
3.1737e-09
-1.26051e-13
-3.17452e-09
-3.86086e-13
-2.44934e-14
1.75186e-09
-5.41971e-14
-1.75224e-09
-1.51378e-13
-2.02945e-14
8.72921e-10
-2.32943e-14
-8.73112e-10
-3.73894e-14
-1.12267e-14
3.63566e-10
-9.27883e-15
-3.63659e-10
-3.51084e-15
8.65984e-11
-2.38267e-15
-8.66298e-11
-1.17071e-12
-2.33315e-14
5.9371e-09
-3.29646e-14
-5.93824e-09
-5.28366e-13
2.26058e-15
3.25841e-09
-3.15501e-14
-3.25902e-09
-2.05737e-13
6.27679e-15
1.61679e-09
-2.04219e-14
-1.61709e-09
-5.03722e-14
4.17738e-15
6.71352e-10
-9.78746e-15
-6.71502e-10
1.57497e-15
1.59607e-10
-2.43458e-15
-1.59656e-10
-1.13639e-12
5.93382e-09
-4.24207e-14
-5.93497e-09
-5.03589e-13
3.25658e-09
-2.94011e-14
-3.25718e-09
-1.94317e-13
1.61576e-09
-1.76816e-14
-1.61605e-09
-4.77522e-14
6.70898e-10
-8.50911e-15
-6.71041e-10
1.59552e-10
-2.24817e-15
-1.596e-10
-1.09111e-12
5.93801e-09
-4.56497e-14
-5.93915e-09
-4.85153e-13
3.25886e-09
-3.65862e-14
-3.25945e-09
-1.88585e-13
1.61698e-09
-2.26168e-14
-1.61728e-09
-4.66898e-14
6.71365e-10
-1.09071e-14
-6.71507e-10
1.59599e-10
-2.88323e-15
-1.59647e-10
-8.71655e-13
3.1702e-09
-2.01992e-13
-3.95293e-13
1.74981e-09
-9.95875e-14
-1.55189e-13
8.71925e-10
-4.63571e-14
-3.84008e-14
3.63148e-10
-1.89479e-14
8.64999e-11
-4.67923e-15
-1.02246e-12
1.2277e-14
-5.12992e-14
5.93772e-09
-4.50261e-13
3.67323e-14
-3.93853e-14
3.25885e-09
-1.75781e-13
2.81176e-14
-2.50335e-14
1.61702e-09
-4.4155e-14
1.50209e-14
-1.23099e-14
6.71417e-10
4.53719e-15
-3.24812e-15
1.5965e-10
-8.46829e-13
3.1729e-09
-1.45527e-13
-3.17372e-09
-3.88265e-13
1.75153e-09
-6.98772e-14
-1.75192e-09
-1.52539e-13
8.72718e-10
-3.40344e-14
-8.72913e-10
-3.76844e-14
3.63516e-10
-1.48979e-14
-3.63612e-10
8.65712e-11
-3.9878e-15
-8.66033e-11
-8.3791e-13
3.17355e-09
-1.20309e-13
-3.80919e-13
1.75187e-09
-4.86196e-14
-1.49333e-13
8.72951e-10
-1.92777e-14
-3.70015e-14
3.63614e-10
-7.25696e-15
8.66136e-11
-1.8735e-15
-8.4096e-13
5.55951e-15
3.17309e-09
-1.35028e-13
-3.82182e-13
-2.31606e-14
1.7515e-09
-5.93706e-14
-1.49669e-13
-1.97714e-14
8.72715e-10
-2.58158e-14
-3.70047e-14
-1.10508e-14
3.63522e-10
-1.02962e-14
-3.48359e-15
8.66024e-11
-2.6191e-15
-1.04053e-12
-3.2104e-15
-7.20182e-14
5.93422e-09
-4.49059e-13
3.5091e-14
-4.53361e-14
3.25673e-09
-1.73368e-13
3.07906e-14
-2.67729e-14
1.616e-09
-4.34688e-14
1.7634e-14
-1.31441e-14
6.70989e-10
5.55249e-15
-3.61889e-15
1.59542e-10
-8.89107e-13
3.16968e-09
-1.46959e-13
-4.04134e-13
1.74958e-09
-6.09921e-14
-1.58128e-13
8.71785e-10
-2.29374e-14
-3.90697e-14
3.63107e-10
-7.65311e-15
8.64894e-11
-1.67429e-15
-8.78416e-13
2.37087e-14
3.17037e-09
-1.5703e-13
-4.00109e-13
-1.21274e-14
1.75001e-09
-7.18774e-14
-1.56889e-13
-1.56022e-14
8.71973e-10
-3.13464e-14
-3.88169e-14
-9.83732e-15
3.6321e-10
-1.22629e-14
-3.36427e-15
8.65048e-11
-2.98374e-15
-1.07776e-12
-5.06476e-14
5.93729e-09
-4.74993e-13
-3.85318e-14
3.25842e-09
-1.84331e-13
-2.31425e-14
1.61679e-09
-4.57853e-14
-1.09081e-14
6.71349e-10
-2.81565e-15
1.59606e-10
-1.10775e-12
-5.09294e-14
5.9345e-09
-4.87404e-13
-3.51894e-14
3.25708e-09
-1.8877e-13
-2.0816e-14
1.61603e-09
-4.67819e-14
-9.92101e-15
6.71027e-10
-2.60728e-15
1.59511e-10
1.41403e-12
-1.07536e-13
2.20478e-13
-5.92264e-09
5.92403e-09
6.3796e-13
-4.18318e-14
1.1576e-13
-3.25024e-09
3.25094e-09
2.48658e-13
-1.52196e-14
6.03872e-14
-1.61243e-09
1.61278e-09
6.10096e-14
-5.12779e-15
2.73197e-14
-6.69459e-10
6.69624e-10
-1.15047e-15
7.27041e-15
-1.59158e-10
1.59213e-10
8.62696e-13
-3.83889e-15
3.17044e-09
3.91564e-13
2.8539e-14
1.74982e-09
1.53017e-13
2.38097e-14
8.71887e-10
3.7756e-14
1.32035e-14
3.63185e-10
4.09132e-15
8.65293e-11
1.03882e-12
1.44063e-15
1.71937e-14
5.93522e-09
4.52662e-13
-3.11546e-14
1.40542e-14
3.25727e-09
1.74807e-13
-2.55403e-14
1.03437e-14
1.61616e-09
4.35764e-14
-1.40275e-14
5.73578e-15
6.71071e-10
-4.31995e-15
1.60444e-15
1.59544e-10
-5.46756e-13
-1.09344e-13
-3.69841e-09
1.9856e-13
3.69771e-09
-2.4655e-13
-5.88115e-14
-2.03749e-09
1.02016e-13
2.03714e-09
-9.78598e-14
-3.01458e-14
-1.01366e-09
5.25003e-14
1.01349e-09
-2.50219e-14
-1.32968e-14
-4.21667e-10
2.35362e-14
4.21584e-10
-3.41106e-15
-1.00369e-10
6.19495e-15
1.00341e-10
-5.38505e-13
-8.56292e-16
-4.03208e-09
4.03134e-09
-2.41992e-13
7.8634e-16
-2.21754e-09
2.21719e-09
-9.65425e-14
9.0323e-16
-1.10202e-09
1.10184e-09
-2.49608e-14
5.30338e-16
-4.58081e-10
4.57995e-10
1.70802e-16
-1.09007e-10
1.08979e-10
1.29559e-12
-1.89753e-13
-5.92183e-09
2.80411e-13
5.92311e-09
5.81229e-13
-9.6834e-14
-3.25025e-09
1.53053e-13
3.25091e-09
2.26217e-13
-4.6531e-14
-1.61262e-09
8.03884e-14
1.61294e-09
5.56132e-14
-1.94639e-14
-6.69512e-10
3.60531e-14
6.69666e-10
-4.86282e-15
-1.59174e-10
9.42717e-15
1.59225e-10
8.4877e-13
3.17454e-09
-6.69927e-14
3.84047e-13
1.75225e-09
-1.96148e-14
1.49576e-13
8.73114e-10
-4.6642e-15
3.68872e-14
3.63659e-10
-2.46233e-16
8.66297e-11
7.04648e-16
-8.41657e-13
2.27341e-15
-1.2478e-13
3.17372e-09
-3.84145e-13
-2.56577e-14
-5.32493e-14
1.75187e-09
-1.50626e-13
-2.09211e-14
-2.28241e-14
8.72924e-10
-3.72119e-14
-1.14964e-14
-9.10482e-15
3.63566e-10
-3.58292e-15
-2.35034e-15
8.65985e-11
1.08704e-12
5.93829e-09
5.05243e-14
-5.36725e-15
4.73356e-13
3.25902e-09
4.45532e-15
3.10483e-15
1.82392e-13
1.61708e-09
-7.54053e-15
4.46727e-15
4.52769e-14
6.71493e-10
-6.4138e-15
3.04694e-15
1.59654e-10
-2.42694e-15
9.88122e-16
-1.19117e-12
-3.54052e-14
5.93712e-09
-5.16358e-14
-5.3372e-13
-3.64096e-15
3.25841e-09
-4.24006e-14
-2.06836e-13
3.76118e-15
1.61678e-09
-2.64543e-14
-5.06355e-14
3.79612e-15
6.71346e-10
-1.3e-14
1.60951e-15
1.59605e-10
-3.55035e-15
-5.36046e-13
3.15514e-09
-4.34536e-15
-2.41546e-13
1.74129e-09
-1.59107e-14
-9.58941e-14
8.67538e-10
-1.12654e-14
-2.45756e-14
3.61249e-10
-5.50243e-15
8.60347e-11
-1.48657e-15
5.72269e-13
-3.63857e-14
9.78795e-15
3.15585e-09
2.56486e-13
-9.32969e-15
-2.64446e-15
1.74161e-09
1.0062e-13
-1.78534e-15
-4.01771e-15
8.677e-10
2.5465e-14
1.62333e-16
-2.6246e-15
3.61326e-10
3.35654e-16
-7.79388e-16
8.60606e-11
-5.46389e-13
3.15344e-09
-1.13565e-14
-2.46316e-13
1.74036e-09
-1.48504e-14
-9.76991e-14
8.67051e-10
-9.89471e-15
-2.49951e-14
3.61055e-10
-4.88978e-15
8.5989e-11
-1.37611e-15
5.68797e-13
-8.08419e-15
-2.67861e-14
3.15416e-09
2.54706e-13
7.45156e-15
-2.42302e-14
1.74069e-09
9.99279e-14
7.42872e-15
-1.61113e-14
8.67215e-10
2.53052e-14
4.17727e-15
-8.06642e-15
3.61133e-10
1.25552e-15
-2.15195e-15
8.60152e-11
-9.26715e-13
3.99271e-15
5.72271e-09
-4.1112e-13
1.62605e-16
3.14354e-09
-1.61515e-13
-2.60718e-16
1.56049e-09
-4.08245e-14
-1.31613e-16
6.4818e-10
-2.25904e-17
1.54125e-10
-9.46073e-13
5.72202e-09
-4.1953e-13
3.14309e-09
-1.64635e-13
1.5604e-09
-4.1543e-14
6.48108e-10
1.54105e-10
9.89352e-13
-1.58758e-14
5.72378e-09
4.32656e-13
-9.64689e-15
3.1441e-09
1.66709e-13
-5.36898e-15
1.56076e-09
4.13348e-14
-2.46945e-15
6.48308e-10
-6.55136e-16
1.54167e-10
1.00747e-12
5.72311e-09
4.41517e-13
3.14365e-09
1.70442e-13
1.56067e-09
4.2326e-14
6.48238e-10
1.54148e-10
1.08082e-12
2.47108e-14
5.93501e-09
4.74892e-13
2.19331e-14
3.2572e-09
1.83722e-13
1.4274e-14
1.61606e-09
4.5608e-14
7.09395e-15
6.71042e-10
1.89852e-15
1.596e-10
1.13622e-12
5.93919e-09
-6.30754e-15
5.02312e-13
3.25947e-09
4.65517e-15
1.94037e-13
1.61728e-09
5.2089e-15
4.76447e-14
6.71508e-10
3.20461e-15
1.59647e-10
9.69132e-16
-1.08294e-12
5.93806e-09
-4.6887e-14
-4.80681e-13
3.25888e-09
-3.72299e-14
-1.86936e-13
1.61699e-09
-2.27668e-14
-4.639e-14
6.71366e-10
-1.08921e-14
1.596e-10
-2.85931e-15
8.62758e-13
1.09104e-13
3.17107e-09
3.90384e-13
4.25751e-14
1.75021e-09
1.52094e-13
1.53701e-14
8.72123e-10
3.75042e-14
5.13447e-15
3.63244e-10
1.15158e-15
8.65319e-11
-4.85307e-13
3.15533e-09
2.58735e-14
-2.18745e-13
1.74132e-09
4.57381e-15
-8.78995e-14
8.67536e-10
-7.93479e-16
-2.30197e-14
3.61286e-10
-1.77655e-15
8.60433e-11
-8.17118e-16
6.14369e-13
-2.15119e-14
-6.76795e-15
3.15617e-09
2.65341e-13
-8.69795e-16
-8.94376e-15
1.74168e-09
1.00702e-13
4.29057e-16
-5.12685e-15
8.67705e-10
2.45473e-14
-5.38358e-16
-2.56933e-15
3.61366e-10
-5.8961e-16
-8.61672e-16
8.60694e-11
-8.35211e-13
5.72338e-09
6.73583e-14
-3.68934e-13
3.14344e-09
4.45232e-14
-1.46247e-13
1.56062e-09
2.55761e-14
-3.7789e-14
6.48189e-10
1.17589e-14
1.54127e-10
3.08417e-15
1.2123e-12
3.1515e-14
5.72449e-09
5.49934e-13
2.40559e-14
3.14408e-09
2.12775e-13
1.51783e-14
1.56095e-09
5.15698e-14
7.35902e-15
6.48343e-10
2.13552e-15
1.54176e-10
1.17669e-12
7.64389e-14
5.93892e-09
5.17282e-13
2.84131e-14
3.25947e-09
1.98211e-13
9.91128e-15
1.61732e-09
4.85106e-14
2.36502e-15
6.71561e-10
-5.56539e-17
1.59698e-10
-5.18831e-13
-1.11098e-13
-3.69679e-09
2.2566e-13
3.69609e-09
-2.33809e-13
-6.24576e-14
-2.03659e-09
1.2142e-13
2.03625e-09
-9.32249e-14
-3.29859e-14
-1.01317e-09
6.38461e-14
1.01299e-09
-2.40339e-14
-1.46857e-14
-4.21493e-10
2.87888e-14
4.2141e-10
-3.74788e-15
-1.00328e-10
7.58096e-15
1.003e-10
-5.35393e-13
-4.03113e-09
4.03038e-09
-2.40871e-13
-2.21703e-09
2.21667e-09
-9.63343e-14
-1.10176e-09
1.10159e-09
-2.49928e-14
-4.57977e-10
4.57891e-10
-1.08983e-10
1.08954e-10
1.30687e-12
-1.6868e-13
2.63005e-13
-5.91869e-09
5.91997e-09
5.86499e-13
-7.84323e-14
1.38985e-13
-3.24865e-09
3.24931e-09
2.282e-13
-3.43088e-14
7.1409e-14
-1.61173e-09
1.61205e-09
5.60219e-14
-1.33695e-14
3.16485e-14
-6.69219e-10
6.69373e-10
-3.20627e-15
8.20646e-15
-1.59073e-10
1.59124e-10
8.37938e-13
3.17373e-09
3.79999e-13
1.75192e-09
1.48374e-13
8.72907e-10
3.65688e-14
3.63608e-10
8.66021e-11
-8.46691e-13
-1.57811e-13
3.17291e-09
-3.8705e-13
-7.89313e-14
1.75153e-09
-1.51875e-13
-3.82352e-14
8.72714e-10
-3.74486e-14
-1.62483e-14
3.63514e-10
-4.16659e-15
8.65704e-11
8.43773e-13
1.91647e-13
3.1744e-09
3.80126e-13
1.01128e-13
1.75227e-09
1.47502e-13
4.95462e-14
8.73144e-10
3.62272e-14
2.08062e-14
3.63707e-10
5.15193e-15
8.66447e-11
1.29672e-12
-1.77462e-13
2.69313e-13
-5.91891e-09
5.92019e-09
5.7867e-13
-8.92345e-14
1.45614e-13
-3.2486e-09
3.24926e-09
2.24235e-13
-4.24471e-14
7.59879e-14
-1.61174e-09
1.61206e-09
5.50611e-14
-1.76407e-14
3.39564e-14
-6.69188e-10
6.69341e-10
-4.41027e-15
8.83723e-15
-1.59103e-10
1.59153e-10
8.35712e-13
-6.10536e-14
3.17393e-09
3.7647e-13
-1.6633e-14
1.75189e-09
1.46468e-13
-3.19028e-15
8.72906e-10
3.62084e-14
6.08825e-16
3.63615e-10
9.19508e-16
8.66333e-11
-5.32189e-13
3.15375e-09
3.38496e-14
-2.31556e-13
1.74047e-09
2.47242e-14
-8.98182e-14
8.67118e-10
1.45148e-14
-2.29016e-14
3.6109e-10
6.57612e-15
8.60245e-11
1.62661e-15
5.51354e-13
-2.33651e-14
2.3214e-14
3.1544e-09
2.51763e-13
-1.85871e-14
3.14337e-14
1.74075e-09
1.00266e-13
-1.09535e-14
2.12476e-14
8.6726e-10
2.55936e-14
-4.92084e-15
1.00729e-14
3.61159e-10
-1.15101e-15
2.56224e-15
8.60487e-11
-7.65414e-13
6.69003e-14
5.72313e-09
-3.22911e-13
6.57157e-14
3.14345e-09
-1.26991e-13
4.50889e-14
1.5605e-09
-3.34273e-14
2.29542e-14
6.48124e-10
6.43516e-15
1.54143e-10
1.15174e-12