/*--------------------------------*- C++ -*----------------------------------*\
| =========                 |                                                 |
| \\      /  F ield         | OpenFOAM: The Open Source CFD Toolbox           |
|  \\    /   O peration     | Version:  2206                                  |
|   \\  /    A nd           | Website:  www.openfoam.com                      |
|    \\/     M anipulation  |                                                 |
\*---------------------------------------------------------------------------*/
FoamFile
{
    version     2.0;
    format      ascii;
    arch        "LSB;label=32;scalar=64";
    class       volVectorField;
    location    "0.2";
    object      U;
}
// * * * * * * * * * * * * * * * * * * * * * * * * * * * * * * * * * * * * * //

dimensions      [0 1 -1 0 0 0 0];

internalField   nonuniform List<vector> 
67442
(
(-8.65809e-07 1.55936e-07 0.122752)
(8.48626e-07 -2.51605e-08 0.122285)
(2.13306e-06 -7.41575e-07 0.122317)
(-0.000215447 -0.000216146 0.121707)
(0.000214651 0.000216453 0.121707)
(2.29823e-06 1.77176e-06 0.122313)
(-3.18079e-06 2.32817e-06 0.122315)
(-0.000213333 0.000216964 0.121708)
(-2.78719e-07 2.67421e-07 0.122286)
(2.63136e-07 -4.99247e-07 0.122283)
(-2.62686e-07 -5.17331e-07 0.122282)
(0.000214823 -0.000215881 0.121707)
(-1.99754e-06 -5.69023e-07 0.122318)
(3.56992e-06 2.56724e-05 0.0919501)
(1.85779e-07 4.17531e-05 0.112038)
(-6.32989e-06 9.88289e-06 0.0804519)
(2.34456e-05 4.63997e-06 0.0916295)
(4.03459e-05 8.82344e-08 0.111629)
(1.15716e-06 2.32075e-07 0.122752)
(-4.02443e-07 2.57915e-07 0.122752)
(4.31728e-07 2.25874e-07 0.122752)
(-5.65443e-05 1.74579e-05 0.112694)
(2.45018e-06 -1.23511e-06 0.122606)
(-6.90392e-05 -5.94566e-07 0.119212)
(9.05498e-06 -6.42981e-06 0.0803006)
(-1.38822e-06 -1.45836e-06 0.122633)
(2.04702e-05 -5.36565e-05 0.112935)
(-1.27098e-07 -6.6309e-05 0.119398)
(-1.81492e-05 -1.83688e-05 0.1037)
(-2.06459e-05 -1.72763e-05 0.103895)
(6.53658e-06 9.1259e-06 0.0804559)
(8.63101e-06 6.69449e-06 0.0803081)
(2.05724e-05 1.7695e-05 0.103927)
(1.78971e-05 1.83182e-05 0.10367)
(-3.36316e-06 2.56614e-05 0.0919483)
(-1.77443e-07 4.16362e-05 0.112039)
(1.98641e-05 5.37587e-05 0.112932)
(-5.18419e-07 1.08343e-06 0.122635)
(1.21566e-07 6.50591e-05 0.1194)
(-1.95349e-05 5.34132e-05 0.112929)
(3.55546e-07 1.22572e-06 0.122635)
(-2.63682e-07 6.50129e-05 0.1194)
(-2.05421e-05 1.7582e-05 0.103895)
(-1.75357e-05 1.85562e-05 0.103701)
(-8.16107e-06 6.8489e-06 0.0803082)
(5.64873e-05 1.73832e-05 0.11269)
(-2.26424e-06 -1.1049e-06 0.122606)
(6.90288e-05 -5.72664e-07 0.119212)
(2.35902e-05 -4.48749e-06 0.0916269)
(4.02178e-05 -3.62594e-07 0.111629)
(-1.8406e-06 1.16729e-06 0.122606)
(5.69514e-05 -1.73786e-05 0.112686)
(6.89513e-05 2.85839e-07 0.119212)
(-2.34065e-05 4.8148e-06 0.09163)
(-4.03881e-05 1.41256e-07 0.111629)
(1.84502e-06 1.16343e-06 0.122606)
(-5.67702e-05 -1.7563e-05 0.112691)
(-6.89913e-05 2.56002e-07 0.119212)
(-2.35191e-05 -4.66331e-06 0.0916295)
(-4.032e-05 -3.92032e-07 0.111629)
(1.8172e-05 -1.86311e-05 0.103667)
(2.07371e-05 -1.72302e-05 0.103927)
(7.16329e-06 -8.67401e-06 0.0804615)
(1.29671e-06 -1.58792e-06 0.122633)
(-2.03031e-05 -5.34733e-05 0.112931)
(1.07722e-07 -6.63753e-05 0.119398)
(4.28689e-06 -2.5466e-05 0.0919511)
(1.23159e-07 -4.28327e-05 0.112035)
(-4.11014e-06 -2.53705e-05 0.0919509)
(-1.24406e-07 -4.28101e-05 0.112035)
(-8.72773e-06 -6.69251e-06 0.080305)
(-6.81573e-06 -8.97129e-06 0.0804588)
(9.36659e-07 -1.11228e-05 0.0781906)
(-4.37154e-06 -2.44642e-05 0.0919474)
(2.29931e-06 3.0438e-05 0.102715)
(-3.68839e-06 -3.06716e-05 0.102687)
(-2.26817e-06 1.09899e-05 0.0781592)
(2.06597e-06 -1.23236e-05 0.0866483)
(-3.45241e-07 -4.30431e-05 0.111978)
(-8.34171e-07 1.19528e-05 0.0895073)
(6.84876e-07 4.00904e-05 0.110009)
(4.82906e-07 -1.22164e-05 0.0894989)
(-1.33973e-06 -4.1469e-05 0.109951)
(-2.96571e-06 1.19181e-05 0.0866505)
(6.06679e-06 -8.53516e-06 0.0804544)
(1.2118e-05 -1.6965e-06 0.0863169)
(4.02108e-05 7.68783e-08 0.111628)
(3.93119e-05 1.19373e-06 0.109567)
(1.19332e-05 -5.82562e-07 0.0891372)
(-1.12501e-05 2.29132e-06 0.0778013)
(-2.36553e-05 -4.20179e-06 0.091541)
(2.90407e-05 3.094e-06 0.102233)
(-3.00519e-05 -2.44103e-06 0.102074)
(1.06663e-05 -1.07249e-06 0.0778487)
(1.06041e-05 -1.04048e-06 0.0778492)
(2.33618e-05 4.61313e-06 0.0916296)
(2.89133e-05 3.03097e-06 0.102233)
(-1.18391e-05 2.67567e-06 0.0862051)
(-4.00703e-05 -4.46429e-07 0.111397)
(3.94612e-05 1.2604e-06 0.109567)
(1.20688e-05 -6.01238e-07 0.089137)
(-3.86521e-05 -8.43948e-07 0.109338)
(-1.1792e-05 6.77865e-07 0.0890146)
(1.22503e-05 -1.74056e-06 0.0863165)
(-9.51125e-06 5.50175e-06 0.080257)
(9.49276e-06 -6.31049e-06 0.0803011)
(4.74967e-05 2.45009e-05 0.110301)
(-6.60493e-05 -3.54594e-05 0.116617)
(1.86571e-05 1.74658e-05 0.103537)
(-1.31121e-05 -7.87012e-06 0.0909324)
(6.43193e-05 3.53265e-05 0.116462)
(1.39936e-05 7.79767e-06 0.0908306)
(-4.71626e-05 -2.29036e-05 0.110498)
(2.12467e-05 4.80174e-05 0.11034)
(-3.49219e-05 -6.60388e-05 0.116679)
(1.91635e-05 1.71991e-05 0.103807)
(-8.31608e-06 -1.26775e-05 0.0909436)
(3.11304e-05 6.66753e-05 0.116574)
(7.98396e-06 1.31857e-05 0.0908789)
(-2.18205e-05 -4.64219e-05 0.110507)
(1.50368e-05 1.51964e-05 0.0968276)
(-6.557e-06 -5.87723e-06 0.0793774)
(-6.21813e-06 -6.32468e-06 0.0794096)
(7.31336e-06 5.91168e-06 0.0793228)
(6.2218e-06 6.99528e-06 0.0793666)
(-1.47236e-05 -1.43595e-05 0.0969882)
(-6.19533e-06 -8.98305e-06 0.0804533)
(-9.60303e-06 -5.67394e-06 0.0802579)
(8.57668e-06 6.69004e-06 0.0803086)
(-2.26404e-05 -4.77972e-05 0.110394)
(3.58153e-05 6.55339e-05 0.116703)
(-1.87914e-05 -1.70415e-05 0.103838)
(8.57997e-06 1.29289e-05 0.0910488)
(-7.90085e-06 -1.328e-05 0.0909862)
(-3.15707e-05 -6.51147e-05 0.116599)
(2.37256e-05 4.63648e-05 0.110559)
(-4.80712e-05 -2.335e-05 0.110247)
(6.69273e-05 3.41371e-05 0.116596)
(-1.88678e-05 -1.7801e-05 0.103506)
(1.3004e-05 7.50306e-06 0.0908287)
(-1.40177e-05 -7.90996e-06 0.0907241)
(-6.62124e-05 -3.47198e-05 0.116438)
(4.7641e-05 2.08612e-05 0.110446)
(-1.50845e-05 -1.54154e-05 0.0968298)
(6.44843e-06 6.18478e-06 0.0794217)
(6.63753e-06 5.5925e-06 0.0793664)
(-5.99266e-06 -7.13781e-06 0.0793812)
(-7.21292e-06 -6.08311e-06 0.0793104)
(1.50787e-05 1.39117e-05 0.0969892)
(-1.00324e-06 -1.11712e-05 0.078188)
(4.42402e-06 -2.42095e-05 0.091947)
(-2.12117e-06 3.0233e-05 0.102716)
(3.6554e-06 -3.06559e-05 0.102687)
(2.29251e-06 1.09427e-05 0.0781574)
(-2.22367e-06 -1.23255e-05 0.0866485)
(3.06335e-07 -4.30784e-05 0.111978)
(7.65317e-07 1.19313e-05 0.0895097)
(-6.35536e-07 3.99097e-05 0.110011)
(-6.94074e-07 -1.22192e-05 0.0894992)
(1.25135e-06 -4.14688e-05 0.109951)
(2.86845e-06 1.18851e-05 0.0866529)
(2.05026e-05 -4.41793e-05 0.110359)
(-3.58044e-05 6.69118e-05 0.116689)
(1.7895e-05 -1.70306e-05 0.103823)
(-9.3346e-06 1.29968e-05 0.0909472)
(7.25497e-06 -1.29217e-05 0.0908781)
(3.06276e-05 -6.76004e-05 0.116595)
(-2.28904e-05 4.51443e-05 0.110501)
(4.36644e-05 -2.39686e-05 0.110293)
(-6.67036e-05 3.42268e-05 0.116612)
(1.86484e-05 -1.87035e-05 0.103523)
(-1.25785e-05 7.1804e-06 0.0909295)
(6.70054e-05 -3.62554e-05 0.116446)
(1.38376e-05 -8.32127e-06 0.0908313)
(-4.49226e-05 2.12147e-05 0.110509)
(1.37583e-05 -1.63324e-05 0.0968349)
(-7.04437e-06 5.91853e-06 0.079414)
(-6.44173e-06 4.71743e-06 0.0793733)
(5.5461e-06 -8.5498e-06 0.079361)
(7.70862e-06 -6.2845e-06 0.0793303)
(-1.53454e-05 1.35398e-05 0.0969906)
(9.85621e-06 -5.86617e-06 0.0802566)
(1.16922e-05 1.86831e-06 0.0863164)
(4.0097e-05 -3.18063e-07 0.111629)
(1.18681e-05 4.43618e-07 0.0891363)
(3.8459e-05 -9.46722e-07 0.109567)
(-1.12722e-05 -1.84014e-06 0.0778025)
(-2.34556e-05 4.24403e-06 0.0915394)
(2.92717e-05 -2.57991e-06 0.102232)
(-3.00479e-05 2.94779e-06 0.102073)
(1.07311e-05 1.51698e-06 0.0778496)
(1.06664e-05 1.58631e-06 0.0778501)
(2.35473e-05 -4.31543e-06 0.0916269)
(2.91021e-05 -2.43725e-06 0.102232)
(-1.23132e-05 -2.6299e-06 0.0862047)
(-4.01485e-05 7.97144e-08 0.111397)
(1.19906e-05 4.22782e-07 0.0891361)
(3.86187e-05 -1.03592e-06 0.109567)
(-1.18591e-05 -9.16084e-07 0.0890137)
(-3.96297e-05 9.14914e-07 0.109338)
(1.1822e-05 1.85874e-06 0.086316)
(1.11572e-05 2.246e-06 0.0778016)
(2.35428e-05 -4.1456e-06 0.091543)
(-2.90398e-05 3.22845e-06 0.102233)
(2.98142e-05 -2.38309e-06 0.102077)
(-1.06945e-05 -1.05421e-06 0.0778469)
(1.17011e-05 2.6504e-06 0.0862057)
(3.98281e-05 -3.51307e-07 0.111397)
(-3.94047e-05 1.31129e-06 0.109567)
(-1.2198e-05 -6.55639e-07 0.0891372)
(3.8462e-05 -7.36491e-07 0.10934)
(1.16205e-05 6.5413e-07 0.0890149)
(-1.23237e-05 -1.77188e-06 0.0863156)
(1.12197e-05 -1.87384e-06 0.0778022)
(2.33253e-05 4.27934e-06 0.0915407)
(-2.92769e-05 -2.72547e-06 0.102233)
(2.98731e-05 2.82972e-06 0.102074)
(-1.07644e-05 1.4532e-06 0.0778496)
(1.20997e-05 -2.65172e-06 0.0862046)
(3.98499e-05 4.4117e-08 0.111397)
(-1.21703e-05 4.1044e-07 0.0891366)
(-3.86686e-05 -1.17486e-06 0.109568)
(1.16402e-05 -9.19757e-07 0.0890139)
(3.93654e-05 7.60747e-07 0.109339)
(-1.19685e-05 1.81e-06 0.0863164)
(-4.61159e-05 2.43165e-05 0.110269)
(6.90597e-05 -3.6326e-05 0.116603)
(-1.92803e-05 1.66558e-05 0.10352)
(1.33245e-05 -7.55352e-06 0.0908261)
(-1.43103e-05 8.36366e-06 0.0907271)
(-6.48004e-05 3.36305e-05 0.116458)
(4.61938e-05 -2.13923e-05 0.110444)
(-2.19535e-05 4.60688e-05 0.110378)
(3.44859e-05 -6.44822e-05 0.116695)
(-2.03576e-05 1.70539e-05 0.103822)
(8.38288e-06 -1.23093e-05 0.0910492)
(-3.37411e-05 6.76863e-05 0.116581)
(-7.79597e-06 1.25245e-05 0.0909789)
(2.28397e-05 -4.38879e-05 0.110563)
(-1.59628e-05 1.39934e-05 0.0968347)
(6.95849e-06 -6.16251e-06 0.0793604)
(5.31964e-06 -6.17252e-06 0.0794272)
(-7.69617e-06 5.54241e-06 0.0793054)
(-6.55849e-06 6.6712e-06 0.0793876)
(1.40337e-05 -1.47289e-05 0.0969905)
(-6.35876e-06 9.30355e-06 0.0804556)
(1.78992e-06 1.1545e-05 0.0781891)
(-4.25097e-06 2.49706e-05 0.0919499)
(3.18879e-06 -3.02594e-05 0.102715)
(-3.09591e-06 3.15531e-05 0.102688)
(-1.3958e-06 -1.10179e-05 0.0781565)
(2.83457e-06 1.22524e-05 0.0866451)
(-1.62439e-07 4.26748e-05 0.111977)
(1.20312e-06 -4.16637e-05 0.110007)
(-7.44534e-07 -1.22938e-05 0.0895044)
(-5.41605e-07 4.11415e-05 0.109949)
(6.95682e-07 1.21689e-05 0.0894967)
(-2.31401e-06 -1.2503e-05 0.0866472)
(-1.71421e-06 1.15576e-05 0.0781872)
(4.24649e-06 2.52054e-05 0.0919486)
(-3.16839e-06 -3.02203e-05 0.102716)
(3.1086e-06 3.16335e-05 0.102687)
(1.45359e-06 -1.10432e-05 0.078156)
(-2.77353e-06 1.22966e-05 0.0866466)
(1.56671e-07 4.26591e-05 0.111977)
(-1.16349e-06 -4.15861e-05 0.110008)
(8.01912e-07 -1.22525e-05 0.0895053)
(6.07534e-07 4.12295e-05 0.109949)
(-6.65858e-07 1.21703e-05 0.0894988)
(2.38221e-06 -1.24316e-05 0.0866489)
(9.40426e-06 5.64729e-06 0.0802547)
(6.22488e-06 9.25926e-06 0.0804571)
(-2.11108e-07 2.31969e-09 0.122826)
(1.4117e-07 8.9607e-07 0.122822)
(-8.20829e-07 2.80444e-07 0.122848)
(6.34488e-05 6.46344e-05 0.117483)
(-5.59436e-05 -0.000216332 0.120208)
(-0.000212552 -5.43736e-05 0.120219)
(0.000220892 0.000224994 0.121684)
(5.39062e-05 0.000217058 0.120141)
(0.000211061 5.57133e-05 0.120166)
(-6.1968e-05 -6.07284e-05 0.11759)
(-6.42256e-05 -6.4225e-05 0.117484)
(0.000215892 5.53089e-05 0.120234)
(5.44178e-05 0.000213024 0.120192)
(-0.000221339 -0.000224393 0.121685)
(-0.000214149 -5.59428e-05 0.120184)
(-5.40486e-05 -0.000214139 0.120125)
(6.27971e-05 6.01976e-05 0.117591)
(6.66715e-05 -6.55952e-05 0.117485)
(-0.000217183 5.63089e-05 0.120234)
(-5.33112e-05 0.000215502 0.120194)
(0.000220387 -0.000222022 0.121685)
(5.44461e-05 -0.000219144 0.120128)
(0.000216851 -5.54056e-05 0.120184)
(-6.31259e-05 6.14775e-05 0.117595)
(-6.33577e-05 6.65118e-05 0.117485)
(5.70292e-05 -0.000217925 0.120207)
(0.000214429 -5.33054e-05 0.12022)
(-0.000220865 0.000224417 0.121684)
(-0.000213994 5.66527e-05 0.120167)
(-5.35783e-05 0.00021713 0.120142)
(6.25364e-05 -6.18301e-05 0.117592)
(2.35775e-07 4.40918e-08 0.122826)
(-4.04034e-08 8.79875e-07 0.122822)
(8.42243e-07 3.04568e-07 0.122848)
(-3.45586e-07 -9.45442e-07 0.122822)
(-3.83518e-07 -8.96743e-07 0.122825)
(-9.49884e-07 -6.59253e-07 0.122848)
(5.50759e-07 -9.29577e-07 0.122822)
(3.82182e-07 -9.35789e-07 0.122825)
(1.02084e-06 -6.86729e-07 0.122848)
(0.000262865 -5.73962e-06 0.120563)
(-0.00025402 1.39341e-05 0.119193)
(5.57246e-05 -1.91565e-05 0.112523)
(-6.7364e-05 3.63503e-06 0.116645)
(0.000250023 -1.75485e-05 0.119096)
(6.79746e-05 -5.31993e-06 0.116487)
(-0.000258734 2.03547e-06 0.12063)
(0.000257828 -4.08921e-06 0.121196)
(6.71165e-05 -4.63511e-07 0.119072)
(-7.05314e-05 3.50103e-07 0.118523)
(-0.000257473 -4.45505e-07 0.121539)
(6.84758e-05 -1.38087e-06 0.118376)
(0.000257985 -9.42799e-07 0.121475)
(-0.000261621 9.2665e-07 0.121257)
(4.911e-07 0.000257589 0.120723)
(1.31516e-05 -0.000247574 0.11929)
(-2.06005e-05 5.25478e-05 0.112877)
(5.90667e-06 -6.45848e-05 0.116864)
(-9.89405e-06 0.000244614 0.119251)
(-5.11464e-06 6.48185e-05 0.116824)
(6.70279e-07 -0.000252744 0.120732)
(1.44202e-06 0.000251934 0.121352)
(-1.43907e-07 6.56104e-05 0.119367)
(-7.35496e-07 -0.00025206 0.121632)
(1.61181e-06 -6.75422e-05 0.118725)
(9.12047e-07 0.000252425 0.121625)
(-2.59439e-07 6.69459e-05 0.118692)
(-2.31713e-06 -0.000255964 0.121356)
(2.8878e-06 -0.000252712 0.120721)
(1.11528e-05 0.000246744 0.119288)
(-2.00498e-05 -5.1563e-05 0.112876)
(4.46295e-06 6.20582e-05 0.116864)
(-6.03113e-06 -6.19488e-05 0.116823)
(-7.66529e-06 -0.00024172 0.119251)
(-5.99568e-07 0.000251209 0.120732)
(9.32114e-07 -0.000252501 0.121352)
(-2.40348e-07 -6.50841e-05 0.119368)
(9.25862e-07 6.42823e-05 0.118727)
(4.38885e-07 0.000249379 0.121633)
(-1.29501e-06 -6.4866e-05 0.118692)
(-4.47982e-07 -0.000251514 0.121625)
(-2.36536e-07 0.000250336 0.121358)
(-3.57007e-06 -0.000252599 0.120722)
(-1.14847e-05 0.000247038 0.119289)
(1.98883e-05 -5.16936e-05 0.112876)
(-4.37968e-06 6.18804e-05 0.116865)
(6.01458e-06 -6.20079e-05 0.116823)
(6.58054e-06 -0.000241439 0.119253)
(1.03283e-07 0.000251408 0.120733)
(-1.28347e-06 -0.000252606 0.121352)
(2.43094e-07 -6.51089e-05 0.119368)
(-1.01493e-06 6.42224e-05 0.118728)
(-5.95658e-07 0.000249416 0.121633)
(1.20607e-06 -6.49313e-05 0.118693)
(2.70222e-07 -0.000251559 0.121625)
(-2.32548e-08 0.00025041 0.121359)
(-0.000262756 -5.30355e-06 0.120563)
(0.000254069 1.37938e-05 0.119193)
(-5.59964e-05 -1.90937e-05 0.112521)
(6.72553e-05 3.63511e-06 0.116645)
(-6.82875e-05 -5.28911e-06 0.116486)
(-0.00024963 -1.66181e-05 0.119097)
(0.000258659 2.2148e-06 0.12063)
(-0.000257813 -3.80038e-06 0.121195)
(-6.73021e-05 -4.70509e-07 0.119072)
(7.04551e-05 4.10559e-07 0.118523)
(0.000257423 -3.03941e-07 0.121539)
(-6.87443e-05 -1.36102e-06 0.118375)
(-0.000258032 -8.22404e-07 0.121474)
(0.000261595 1.15192e-06 0.121257)
(-0.000260035 5.48649e-06 0.120561)
(0.000253399 -1.51581e-05 0.11919)
(-5.58999e-05 1.88637e-05 0.11252)
(6.84322e-05 -2.90325e-06 0.116644)
(-6.90076e-05 6.13247e-06 0.116485)
(-0.0002476 1.66112e-05 0.119096)
(0.000258523 -2.10577e-06 0.12063)
(-0.000260161 3.40944e-06 0.121195)
(-6.74292e-05 4.65935e-08 0.119072)
(0.000256996 7.92602e-07 0.121538)
(6.96589e-05 -5.49842e-08 0.118524)
(-0.000257172 4.40541e-07 0.121474)
(-7.02337e-05 1.46142e-06 0.118375)
(0.00025791 -4.34888e-07 0.121259)
(0.000259922 5.54956e-06 0.120561)
(-0.000253144 -1.49918e-05 0.11919)
(5.56874e-05 1.905e-05 0.112521)
(-6.83732e-05 -3.1478e-06 0.116645)
(0.000247735 1.73825e-05 0.119095)
(6.86209e-05 5.96393e-06 0.116485)
(-0.000258616 -2.37101e-06 0.120629)
(0.000260021 3.53568e-06 0.121195)
(6.71985e-05 4.54412e-08 0.119072)
(-0.000257151 7.92027e-07 0.121538)
(-6.98003e-05 -2.01315e-07 0.118524)
(0.000257033 4.55827e-07 0.121474)
(6.99262e-05 1.3677e-06 0.118375)
(-0.0002581 -5.82193e-07 0.121259)
(-7.34607e-07 0.000257633 0.120724)
(-1.30158e-05 -0.000247583 0.119289)
(2.04011e-05 5.25779e-05 0.112875)
(-5.83633e-06 -6.44568e-05 0.116864)
(9.09636e-06 0.000244265 0.119252)
(5.07145e-06 6.50287e-05 0.116824)
(-6.25922e-07 -0.000252686 0.120732)
(-1.69902e-06 0.000251926 0.121353)
(1.07802e-07 6.55445e-05 0.119367)
(8.03951e-07 -0.000252087 0.121632)
(-1.61062e-06 -6.74976e-05 0.118725)
(-8.97765e-07 0.000252384 0.121625)
(1.79508e-07 6.70001e-05 0.118692)
(2.20576e-06 -0.000255944 0.121356)
(7.05391e-07 6.55337e-06 0.0570003)
(2.92327e-07 2.9023e-06 0.0395075)
(1.27331e-07 1.23754e-06 0.0249395)
(4.07955e-08 4.06166e-07 0.0132452)
(1.50195e-08 7.5607e-08 0.00404223)
(-3.09567e-06 3.7695e-06 0.058992)
(-1.67916e-06 1.46044e-06 0.0410272)
(-9.45864e-07 4.81777e-07 0.0259608)
(-4.75674e-07 6.71373e-08 0.0138118)
(-1.53458e-07 -1.5628e-08 0.00422241)
(5.91935e-06 1.36293e-06 0.0570747)
(2.55563e-06 7.69378e-07 0.0395595)
(1.05693e-06 4.3155e-07 0.0249717)
(3.25207e-07 1.97755e-07 0.0132616)
(5.51381e-08 5.93595e-08 0.00404699)
(3.54111e-06 -3.12732e-06 0.0590376)
(1.46423e-06 -1.66295e-06 0.041058)
(5.38516e-07 -8.79512e-07 0.0259802)
(1.12554e-07 -4.06831e-07 0.0138223)
(2.55273e-09 -1.20942e-07 0.00422568)
(3.2817e-06 3.3998e-06 0.0589941)
(1.85476e-06 1.25904e-06 0.041029)
(1.07909e-06 3.71571e-07 0.0259623)
(5.53998e-07 1.32938e-08 0.0138134)
(1.79452e-07 -3.05966e-08 0.00422332)
(3.0253e-06 3.52329e-06 0.0590421)
(1.01696e-06 2.10961e-06 0.0410601)
(2.33821e-07 1.27316e-06 0.025981)
(-5.45973e-08 6.6547e-07 0.0138221)
(-5.01419e-08 2.14146e-07 0.00422551)
(-5.66959e-07 6.49315e-06 0.0569988)
(-1.83137e-07 2.86341e-06 0.0395069)
(-4.77378e-08 1.23399e-06 0.0249389)
(8.17016e-09 4.16969e-07 0.0132444)
(2.81292e-09 8.21642e-08 0.00404182)
(-2.64773e-06 3.67716e-06 0.0590412)
(-7.41212e-07 2.3046e-06 0.0410602)
(-6.89365e-08 1.4528e-06 0.0259817)
(1.34162e-07 7.81712e-07 0.0138233)
(7.20153e-08 2.53833e-07 0.00422617)
(5.99477e-06 -1.2437e-06 0.0570748)
(2.62535e-06 -6.23737e-07 0.0395603)
(1.12484e-06 -2.81155e-07 0.0249725)
(3.7284e-07 -8.58718e-08 0.0132616)
(7.29574e-08 -1.52369e-08 0.00404688)
(-5.85943e-06 1.44702e-06 0.0570737)
(-2.47575e-06 8.6476e-07 0.0395596)
(-9.99985e-07 5.27878e-07 0.0249725)
(-2.94243e-07 2.65253e-07 0.0132624)
(-4.53735e-08 8.381e-08 0.00404733)
(-5.94146e-06 -1.33358e-06 0.0570748)
(-2.53676e-06 -7.4322e-07 0.0395598)
(-1.04613e-06 -4.21139e-07 0.0249728)
(-3.2232e-07 -1.96204e-07 0.0132627)
(-5.47547e-08 -5.98935e-08 0.00404763)
(3.96661e-06 -2.69241e-06 0.0589988)
(2.55532e-06 -6.24996e-07 0.0410324)
(1.67497e-06 6.39202e-08 0.0259647)
(9.41413e-07 2.26941e-07 0.0138143)
(3.17211e-07 1.06302e-07 0.00422346)
(1.23533e-06 -6.36155e-06 0.0570026)
(7.61133e-07 -2.70581e-06 0.0395099)
(5.06613e-07 -1.08222e-06 0.024941)
(2.8362e-07 -3.09856e-07 0.0132457)
(1.00397e-07 -4.26909e-08 0.00404217)
(-1.0915e-06 -6.34611e-06 0.0570028)
(-5.9244e-07 -2.73504e-06 0.0395104)
(-3.39047e-07 -1.13541e-06 0.0249415)
(-1.61915e-07 -3.54835e-07 0.0132456)
(-5.38147e-08 -6.09501e-08 0.00404206)
(-3.01748e-06 -3.48547e-06 0.0590396)
(-9.91395e-07 -2.07129e-06 0.0410589)
(-2.23957e-07 -1.24878e-06 0.0259809)
(5.362e-08 -6.53313e-07 0.0138227)
(4.8202e-08 -2.10313e-07 0.00422575)
(-3.49872e-06 -3.18435e-06 0.0589974)
(-2.03337e-06 -1.08439e-06 0.0410315)
(-1.21442e-06 -2.65815e-07 0.0259636)
(-6.37361e-07 3.8437e-08 0.0138134)
(-2.08117e-07 4.56071e-08 0.00422283)
(1.24955e-06 -6.21787e-06 0.0588892)
(1.15123e-06 -3.00828e-06 0.0409953)
(9.24254e-07 -1.36625e-06 0.0259553)
(6.00917e-07 -5.20362e-07 0.0138141)
(2.14921e-07 -1.2874e-07 0.00422447)
(-1.63184e-06 -6.05029e-06 0.0570424)
(-1.02713e-06 -2.52104e-06 0.039542)
(-6.38297e-07 -9.89761e-07 0.0249617)
(-3.31696e-07 -2.76408e-07 0.0132568)
(-1.08433e-07 -3.74157e-08 0.00404571)
(3.21804e-06 -3.01419e-06 0.0590186)
(1.89725e-06 -1.02241e-06 0.0410505)
(1.13954e-06 -2.43392e-07 0.025976)
(5.95629e-07 3.80705e-08 0.0138198)
(1.92755e-07 4.0577e-08 0.00422479)
(3.63092e-06 -1.61275e-06 0.0582852)
(1.67422e-06 -1.24334e-06 0.0404675)
(7.8687e-07 -8.87101e-07 0.0255724)
(3.02726e-07 -5.37405e-07 0.0135903)
(7.88232e-08 -1.85115e-07 0.00415004)
(3.09034e-06 -5.25466e-07 0.058559)
(1.34552e-06 -3.88138e-07 0.0406679)
(6.00387e-07 -2.6246e-07 0.0257065)
(2.09616e-07 -1.52285e-07 0.013666)
(5.05246e-08 -5.02642e-08 0.00417495)
(-5.96621e-06 2.57637e-06 0.0588355)
(-2.98712e-06 2.15523e-06 0.0409653)
(-1.44577e-06 1.60107e-06 0.0259385)
(-5.93617e-07 9.82042e-07 0.0138055)
(-1.57259e-07 3.38227e-07 0.0042219)
(-6.29292e-06 -7.50289e-07 0.0570886)
(-2.78384e-06 -2.0507e-07 0.0395795)
(-1.20595e-06 -2.01847e-08 0.0249862)
(-4.12954e-07 3.98395e-08 0.0132695)
(-8.4552e-08 1.7856e-08 0.00404938)
(5.89952e-06 1.36783e-06 0.0570751)
(2.53793e-06 7.77814e-07 0.0395596)
(1.0474e-06 4.39195e-07 0.0249718)
(3.21487e-07 2.02522e-07 0.0132616)
(5.42521e-08 6.09559e-08 0.00404699)
(-3.50116e-06 2.7476e-06 0.0590453)
(-1.24228e-06 1.62239e-06 0.0410718)
(-3.53838e-07 9.90514e-07 0.0259905)
(-1.12743e-08 5.22002e-07 0.013828)
(2.77553e-08 1.71324e-07 0.00422739)
(3.6499e-06 -3.19912e-06 0.059038)
(1.42925e-06 -1.77692e-06 0.041058)
(4.67976e-07 -1.00911e-06 0.0259801)
(5.51306e-08 -5.10313e-07 0.0138222)
(-2.14011e-08 -1.64419e-07 0.00422563)
(-3.15173e-06 -2.34724e-06 0.0573761)
(-1.20647e-06 -1.20642e-06 0.0397672)
(-4.3901e-07 -6.34537e-07 0.0251016)
(-1.03567e-07 -2.806e-07 0.0133296)
(-1.24878e-08 -8.0039e-08 0.0040676)
(3.75714e-06 2.00528e-06 0.0573739)
(1.58616e-06 8.75178e-07 0.0397752)
(6.55377e-07 3.89723e-07 0.0251085)
(2.09979e-07 1.41593e-07 0.0133336)
(4.25117e-08 3.68074e-08 0.00406878)
(-2.46557e-06 -3.21058e-06 0.0573375)
(-1.20672e-06 -1.27129e-06 0.0397417)
(-6.06551e-07 -4.76216e-07 0.0250857)
(-2.61115e-07 -1.21533e-07 0.0133214)
(-7.44272e-08 -1.71755e-08 0.00406512)
(2.33442e-06 3.55186e-06 0.0573482)
(1.11614e-06 1.43363e-06 0.0397562)
(5.46256e-07 5.42041e-07 0.025096)
(2.28685e-07 1.46786e-07 0.013327)
(6.43014e-08 2.35062e-08 0.00406679)
(-2.78025e-06 -2.48245e-06 0.0593482)
(-1.15498e-06 -1.23923e-06 0.0412567)
(-4.33503e-07 -5.96778e-07 0.0260957)
(-1.10555e-07 -2.37878e-07 0.0138789)
(-1.56769e-08 -6.30802e-08 0.0042415)
(-2.63896e-06 -2.79403e-06 0.0593363)
(-1.27769e-06 -1.18073e-06 0.0412495)
(-6.00843e-07 -4.49385e-07 0.0260917)
(-2.36689e-07 -1.17095e-07 0.0138767)
(-6.30981e-08 -1.67275e-08 0.00424076)
(3.3224e-06 2.39949e-06 0.0593474)
(1.45025e-06 1.06989e-06 0.0412656)
(5.94199e-07 4.53785e-07 0.0261031)
(1.88299e-07 1.53261e-07 0.0138831)
(3.77185e-08 3.66068e-08 0.00424276)
(2.73507e-06 3.14944e-06 0.059341)
(1.3234e-06 1.29329e-06 0.0412612)
(6.25263e-07 4.67018e-07 0.0261007)
(2.51281e-07 1.0955e-07 0.0138816)
(6.87146e-08 1.08977e-08 0.00424224)
(-3.23556e-06 -3.24163e-06 0.0590189)
(-1.88192e-06 -1.12219e-06 0.0410514)
(-1.12129e-06 -2.91656e-07 0.0259772)
(-5.85302e-07 1.9967e-08 0.0138213)
(-1.90147e-07 3.75152e-08 0.00422569)
(-3.76142e-06 -2.61185e-06 0.0590464)
(-1.50983e-06 -1.36188e-06 0.0410722)
(-5.46225e-07 -7.43825e-07 0.0259904)
(-1.1592e-07 -3.60439e-07 0.0138274)
(-3.96044e-09 -1.14279e-07 0.0042271)
(2.99393e-06 3.53397e-06 0.0590425)
(9.92012e-07 2.11998e-06 0.0410603)
(2.20387e-07 1.28156e-06 0.025981)
(-5.96808e-08 6.70951e-07 0.0138222)
(-5.11833e-08 2.16028e-07 0.00422551)
(1.66569e-06 -6.07798e-06 0.0570412)
(1.04866e-06 -2.51387e-06 0.0395416)
(6.57907e-07 -9.73915e-07 0.0249611)
(3.4621e-07 -2.66676e-07 0.0132559)
(1.14104e-07 -3.43199e-08 0.00404528)
(-2.89213e-06 1.97753e-06 0.0573747)
(-1.10041e-06 9.89219e-07 0.0397672)
(-4.08029e-07 5.53409e-07 0.0251023)
(-9.28234e-08 2.65053e-07 0.0133303)
(-9.19336e-09 8.31893e-08 0.00406782)
(4.12323e-06 -2.61209e-06 0.0573734)
(1.71466e-06 -1.12151e-06 0.0397752)
(6.72872e-07 -4.06753e-07 0.0251091)
(2.27768e-07 -1.01544e-07 0.0133341)
(5.51202e-08 -1.25999e-08 0.00406897)
(-3.03603e-06 1.53582e-06 0.0593463)
(-1.51757e-06 5.35406e-07 0.0412558)
(-7.41836e-07 1.34505e-07 0.0260956)
(-2.9987e-07 -8.54802e-09 0.0138787)
(-7.92632e-08 -1.06442e-08 0.00424139)
(3.90737e-06 -3.32999e-06 0.0593515)
(1.59196e-06 -1.63156e-06 0.0412676)
(5.83549e-07 -7.66478e-07 0.0261045)
(1.47622e-07 -2.91457e-07 0.0138836)
(1.6149e-08 -6.75494e-08 0.00424284)
(4.04448e-06 -2.6132e-06 0.0590454)
(1.64935e-06 -1.25842e-06 0.0410726)
(6.10953e-07 -6.50071e-07 0.0259913)
(1.41904e-07 -3.14953e-07 0.0138286)
(8.56656e-09 -1.05107e-07 0.00422777)
(3.48907e-06 1.78475e-06 0.0582858)
(1.62052e-06 1.41544e-06 0.0404677)
(7.7535e-07 1.02247e-06 0.0255725)
(3.06024e-07 6.18965e-07 0.0135906)
(8.2233e-08 2.12485e-07 0.00415011)
(3.06917e-06 4.87274e-07 0.0585585)
(1.33773e-06 3.98643e-07 0.0406674)
(5.99075e-07 2.87447e-07 0.0257062)
(2.10152e-07 1.71662e-07 0.0136658)
(5.10539e-08 5.76707e-08 0.00417487)
(-5.89196e-06 -2.10844e-06 0.0588367)
(-2.89253e-06 -1.7263e-06 0.0409661)
(-1.36487e-06 -1.26694e-06 0.0259392)
(-5.41102e-07 -7.77055e-07 0.0138058)
(-1.38543e-07 -2.6782e-07 0.00422172)
(-6.15321e-06 9.03571e-07 0.0570889)
(-2.66414e-06 4.13585e-07 0.0395804)
(-1.11444e-06 2.21697e-07 0.024987)
(-3.55488e-07 9.819e-08 0.0132695)
(-6.45702e-08 3.28527e-08 0.00404925)
(6.09568e-06 -1.02181e-06 0.057075)
(2.70186e-06 -4.23346e-07 0.0395603)
(1.1713e-06 -1.50659e-07 0.0249723)
(3.95716e-07 -2.277e-08 0.0132615)
(7.88506e-08 8.58499e-10 0.00404684)
(6.31548e-06 -6.60847e-07 0.0570882)
(2.81105e-06 -7.67217e-08 0.03958)
(1.23302e-06 9.16354e-08 0.0249872)
(4.32395e-07 1.06854e-07 0.0132703)
(9.15539e-08 3.88857e-08 0.00404971)
(5.90863e-06 -2.25628e-06 0.0588364)
(2.9203e-06 -1.92072e-06 0.040966)
(1.39368e-06 -1.43826e-06 0.0259391)
(5.64292e-07 -8.86504e-07 0.013806)
(1.48001e-07 -3.05943e-07 0.00422209)
(6.19109e-06 8.21148e-07 0.0570886)
(2.71101e-06 2.54917e-07 0.0395798)
(1.16349e-06 5.74972e-08 0.0249872)
(3.94534e-07 -1.57937e-08 0.0132705)
(8.01822e-08 -9.2549e-09 0.00404997)
(2.41161e-06 -3.40357e-06 0.0573438)
(9.57052e-07 -1.35381e-06 0.0397474)
(4.09015e-07 -5.40629e-07 0.0250901)
(1.58273e-07 -1.66697e-07 0.0133244)
(4.6014e-08 -3.41496e-08 0.00406641)
(-2.36702e-06 3.29134e-06 0.0573499)
(-1.21132e-06 1.33844e-06 0.0397586)
(-5.94972e-07 5.1274e-07 0.0250984)
(-2.34436e-07 1.46864e-07 0.0133289)
(-5.72539e-08 2.84666e-08 0.00406775)
(1.39436e-06 -3.03348e-06 0.0593444)
(1.23342e-07 -1.64952e-06 0.0412537)
(-2.58791e-07 -9.57807e-07 0.0260938)
(-2.71191e-07 -4.86416e-07 0.0138783)
(-1.05318e-07 -1.58208e-07 0.00424147)
(-2.92024e-06 3.72285e-06 0.0590222)
(-1.4454e-06 1.51602e-06 0.0410544)
(-7.42662e-07 5.52713e-07 0.0259793)
(-3.45671e-07 1.23092e-07 0.013822)
(-1.07533e-07 7.69137e-09 0.00422579)
(2.08674e-06 6.54926e-06 0.058888)
(1.86123e-06 3.23485e-06 0.0409942)
(1.43894e-06 1.51289e-06 0.0259547)
(9.00066e-07 6.02994e-07 0.0138136)
(3.12524e-07 1.55781e-07 0.00422431)
(-1.24043e-06 6.33627e-06 0.0570458)
(-6.06854e-07 2.71318e-06 0.0395452)
(-2.95439e-07 1.12691e-06 0.0249637)
(-1.18929e-07 3.60057e-07 0.0132576)
(-3.62496e-08 6.58555e-08 0.0040457)
(-1.91022e-06 6.54377e-06 0.0588868)
(-1.65314e-06 3.19673e-06 0.0409938)
(-1.26032e-06 1.47145e-06 0.0259546)
(-7.86549e-07 5.74018e-07 0.0138135)
(-2.73651e-07 1.453e-07 0.00422416)
(1.40117e-06 6.36437e-06 0.0570456)
(8.23252e-07 2.68005e-06 0.0395454)
(4.97346e-07 1.0697e-06 0.024964)
(2.5517e-07 3.12486e-07 0.0132573)
(8.55087e-08 4.70108e-08 0.00404556)
(3.68869e-06 2.59348e-06 0.0590438)
(1.46686e-06 1.34869e-06 0.041071)
(5.22209e-07 7.36798e-07 0.0259903)
(1.0755e-07 3.58115e-07 0.0138278)
(2.96026e-09 1.13801e-07 0.0042273)
(3.21021e-06 3.41561e-06 0.059023)
(1.84533e-06 1.20003e-06 0.0410545)
(1.09551e-06 3.19289e-07 0.0259787)
(5.73067e-07 -1.14568e-08 0.0138213)
(1.87233e-07 -3.59653e-08 0.00422521)
(-1.32444e-06 -6.27268e-06 0.0588874)
(-1.21465e-06 -3.03171e-06 0.0409946)
(-9.68e-07 -1.37384e-06 0.025955)
(-6.25338e-07 -5.24398e-07 0.0138135)
(-2.22817e-07 -1.30252e-07 0.0042243)
(5.94073e-06 2.56261e-06 0.0588353)
(2.96396e-06 2.17059e-06 0.0409655)
(1.42961e-06 1.61403e-06 0.0259389)
(5.86958e-07 9.84374e-07 0.0138057)
(1.55775e-07 3.36233e-07 0.00422187)
(1.90361e-06 -4.04012e-06 0.0582021)
(1.52189e-06 -1.84808e-06 0.0404177)
(1.11308e-06 -8.53985e-07 0.0255431)
(6.80099e-07 -3.32406e-07 0.0135751)
(2.35157e-07 -8.83647e-08 0.00414523)
(-7.90746e-07 3.1747e-06 0.0584377)
(-6.19066e-07 1.3889e-06 0.040588)
(-4.22763e-07 6.16313e-07 0.0256577)
(-2.39447e-07 2.17714e-07 0.0136405)
(-7.69356e-08 5.42225e-08 0.00416696)
(4.63824e-07 -3.41274e-06 0.0584586)
(3.75793e-07 -1.44797e-06 0.0406061)
(2.73923e-07 -6.23602e-07 0.0256695)
(1.65472e-07 -2.16307e-07 0.0136467)
(5.57034e-08 -5.32135e-08 0.00416882)
(-2.53083e-06 3.83651e-06 0.0581786)
(-1.9675e-06 1.80408e-06 0.0403978)
(-1.39534e-06 8.58788e-07 0.0255301)
(-8.29679e-07 3.44851e-07 0.0135683)
(-2.8087e-07 9.44566e-08 0.00414318)
(-2.42966e-06 6.32074e-06 0.0588429)
(-2.08486e-06 3.18444e-06 0.0409592)
(-1.56857e-06 1.51632e-06 0.0259324)
(-9.65484e-07 6.1339e-07 0.0138021)
(-3.32242e-07 1.60344e-07 0.00422086)
(-2.69333e-06 3.36106e-06 0.0573401)
(-1.34489e-06 1.36612e-06 0.0397433)
(-6.86547e-07 4.87415e-07 0.0250869)
(-3.04539e-07 1.07691e-07 0.0133224)
(-8.78483e-08 8.40125e-09 0.00406557)
(1.54659e-06 -2.87313e-06 0.0573495)
(6.64872e-07 -1.28582e-06 0.0397576)
(3.31992e-07 -5.82674e-07 0.0250973)
(1.41302e-07 -1.86132e-07 0.013328)
(4.65158e-08 -3.54099e-08 0.00406726)
(-3.08317e-06 2.30536e-06 0.0593378)
(-1.68867e-06 7.37608e-07 0.0412498)
(-9.45384e-07 1.04386e-07 0.026092)
(-4.59354e-07 -9.28396e-08 0.0138775)
(-1.41551e-07 -5.44053e-08 0.00424132)
(1.89369e-06 -3.24755e-06 0.0593373)
(7.38943e-07 -1.50751e-06 0.0412595)
(2.0609e-07 -7.06676e-07 0.0261002)
(9.07193e-09 -2.81245e-07 0.0138821)
(-7.98052e-09 -7.51232e-08 0.00424274)
(5.51885e-06 -1.44742e-06 0.0588271)
(2.70345e-06 -1.26025e-06 0.0409492)
(1.26572e-06 -9.77553e-07 0.0259263)
(4.9449e-07 -6.25902e-07 0.0137987)
(1.2577e-07 -2.22564e-07 0.00421985)
(-3.57154e-06 2.46847e-06 0.0582671)
(-1.67506e-06 1.96027e-06 0.0404661)
(-8.17004e-07 1.4057e-06 0.0255741)
(-3.33425e-07 8.41451e-07 0.0135917)
(-9.2498e-08 2.86158e-07 0.00415049)
(3.09283e-06 -5.77765e-07 0.0585587)
(1.36e-06 -4.4106e-07 0.0406677)
(6.07381e-07 -3.01839e-07 0.0257065)
(2.1142e-07 -1.7444e-07 0.013666)
(5.06974e-08 -5.69718e-08 0.00417495)
(-2.90562e-06 6.84331e-07 0.0585393)