/*--------------------------------*- C++ -*----------------------------------*\
| =========                 |                                                 |
| \\      /  F ield         | OpenFOAM: The Open Source CFD Toolbox           |
|  \\    /   O peration     | Version:  2206                                  |
|   \\  /    A nd           | Website:  www.openfoam.com                      |
|    \\/     M anipulation  |                                                 |
\*---------------------------------------------------------------------------*/
FoamFile
{
    version     2.0;
    format      ascii;
    arch        "LSB;label=32;scalar=64";
    class       volScalarField;
    location    "70";
    object      k;
}
// * * * * * * * * * * * * * * * * * * * * * * * * * * * * * * * * * * * * * //

dimensions      [0 2 -2 0 0 0 0];

internalField   nonuniform List<scalar> 
67442
(
2.41461e-05
3.34692e-05
3.32781e-05
3.31947e-05
3.35193e-05
3.35635e-05
3.36652e-05
3.31412e-05
3.3599e-05
3.37239e-05
3.39943e-05
3.34084e-05
3.32892e-05
1.17329e-05
3.07016e-05
7.50993e-06
1.15827e-05
2.98211e-05
2.41998e-05
2.40176e-05
2.41312e-05
3.02769e-05
2.9895e-05
3.58634e-05
7.51496e-06
2.94383e-05
3.01701e-05
3.52288e-05
1.82549e-05
1.81817e-05
7.4033e-06
7.39206e-06
1.83115e-05
1.82269e-05
1.18904e-05
3.09067e-05
3.0291e-05
2.91367e-05
3.55331e-05
3.09522e-05
2.94525e-05
3.50774e-05
1.85586e-05
1.83631e-05
7.44385e-06
3.03339e-05
2.9657e-05
3.56688e-05
1.18177e-05
3.02944e-05
2.97144e-05
3.02651e-05
3.56086e-05
1.17045e-05
3.03943e-05
2.97283e-05
3.04606e-05
3.50973e-05
1.17668e-05
3.0438e-05
1.85262e-05
1.85189e-05
7.46232e-06
2.93403e-05
3.01208e-05
3.52121e-05
1.17819e-05
3.05951e-05
1.17877e-05
3.06501e-05
7.40464e-06
7.36124e-06
6.91355e-06
1.16933e-05
1.765e-05
1.77637e-05
6.91578e-06
9.10744e-06
3.04164e-05
9.96675e-06
2.80661e-05
9.94634e-06
2.81691e-05
9.10291e-06
7.50695e-06
9.0452e-06
3.01825e-05
2.7621e-05
9.91944e-06
6.89808e-06
1.15986e-05
1.74519e-05
1.75285e-05
6.89878e-06
6.87574e-06
1.1655e-05
1.75966e-05
9.02593e-06
3.01574e-05
2.76238e-05
9.82055e-06
2.76634e-05
9.86075e-06
9.04291e-06
7.47342e-06
7.51287e-06
2.83556e-05
3.3593e-05
1.82121e-05
1.15015e-05
3.39569e-05
1.14601e-05
2.86797e-05
2.81013e-05
3.39278e-05
1.81528e-05
1.1283e-05
3.36311e-05
1.12907e-05
2.80677e-05
1.37298e-05
6.55643e-06
6.51504e-06
6.55068e-06
6.51131e-06
1.37194e-05
7.39638e-06
7.39194e-06
7.41933e-06
2.81521e-05
3.35719e-05
1.8359e-05
1.15205e-05
1.14773e-05
3.41274e-05
2.85276e-05
2.81198e-05
3.3467e-05
1.8208e-05
1.14116e-05
1.1316e-05
3.40531e-05
2.84807e-05
1.36375e-05
6.54535e-06
6.55165e-06
6.53569e-06
6.52144e-06
1.37994e-05
6.95417e-06
1.18858e-05
1.78826e-05
1.79237e-05
6.94532e-06
8.98265e-06
3.058e-05
9.98888e-06
2.80512e-05
9.92535e-06
2.79441e-05
9.04997e-06
2.84626e-05
3.44403e-05
1.85118e-05
1.14658e-05
1.14785e-05
3.45071e-05
2.8408e-05
2.85262e-05
3.41204e-05
1.83332e-05
1.15047e-05
3.41847e-05
1.14503e-05
2.85138e-05
1.37348e-05
6.57385e-06
6.53836e-06
6.56617e-06
6.55407e-06
1.37601e-05
7.43064e-06
9.10427e-06
3.02607e-05
9.98364e-06
2.74857e-05
6.9769e-06
1.17473e-05
1.77492e-05
1.76852e-05
6.98713e-06
7.01318e-06
1.19124e-05
1.78914e-05
9.07821e-06
3.03598e-05
9.99077e-06
2.75778e-05
9.95423e-06
2.77228e-05
9.10767e-06
6.96989e-06
1.16431e-05
1.77968e-05
1.77521e-05
6.98502e-06
9.03167e-06
3.05244e-05
2.75996e-05
1.00086e-05
2.78267e-05
9.99355e-06
9.09849e-06
6.89093e-06
1.17115e-05
1.75892e-05
1.74244e-05
6.88799e-06
8.99754e-06
3.04612e-05
9.94126e-06
2.75377e-05
9.93548e-06
2.74624e-05
9.01329e-06
2.82654e-05
3.45134e-05
1.83684e-05
1.15241e-05
1.16245e-05
3.39627e-05
2.86399e-05
2.91325e-05
3.4423e-05
1.84688e-05
1.17277e-05
3.39228e-05
1.16628e-05
2.88507e-05
1.41109e-05
6.69179e-06
6.68349e-06
6.69518e-06
6.70982e-06
1.41433e-05
7.42733e-06
6.96274e-06
1.17917e-05
1.79013e-05
1.78588e-05
6.95177e-06
9.05713e-06
3.05543e-05
2.76323e-05
9.92224e-06
2.80761e-05
9.92177e-06
8.99846e-06
6.93626e-06
1.17931e-05
1.78812e-05
1.78383e-05
6.92418e-06
9.02023e-06
3.06205e-05
2.78866e-05
9.87006e-06
2.78507e-05
9.96953e-06
9.05508e-06
7.36486e-06
7.33198e-06
1.93178e-05
1.96835e-05
1.49181e-05
3.47531e-05
3.54664e-05
3.53843e-05
3.32292e-05
3.55321e-05
3.4916e-05
3.48359e-05
3.43436e-05
3.55237e-05
3.54437e-05
3.33424e-05
3.5619e-05
3.53201e-05
3.48726e-05
3.48234e-05
3.5428e-05
3.55154e-05
3.34867e-05
3.56354e-05
3.58971e-05
3.43196e-05
3.50861e-05
3.57814e-05
3.50583e-05
3.35012e-05
3.55799e-05
3.58387e-05
3.48379e-05
1.93888e-05
1.97776e-05
1.49522e-05
1.96771e-05
1.94549e-05
1.49354e-05
1.96407e-05
1.94426e-05
1.49511e-05
3.52e-05
3.58003e-05
3.00341e-05
3.41711e-05
3.58237e-05
3.41311e-05
3.51743e-05
3.41604e-05
3.57042e-05
3.58234e-05
3.3568e-05
3.59429e-05
3.33135e-05
3.41178e-05
3.45753e-05
3.58264e-05
3.06239e-05
3.41019e-05
3.58423e-05
3.43344e-05
3.46554e-05
3.35027e-05
3.51144e-05
3.28548e-05
3.5153e-05
3.29156e-05
3.53212e-05
3.35594e-05
3.45301e-05
3.54616e-05
3.00485e-05
3.41358e-05
3.42797e-05
3.54449e-05
3.46211e-05
3.36927e-05
3.53997e-05
3.54772e-05
3.30107e-05
3.5412e-05
3.3057e-05
3.37307e-05
3.49161e-05
3.56185e-05
3.09826e-05
3.45966e-05
3.46446e-05
3.54887e-05
3.48633e-05
3.38652e-05
3.56361e-05
3.56949e-05
3.29396e-05
3.57274e-05
3.29438e-05
3.38438e-05
3.42508e-05
3.52275e-05
3.04542e-05
3.35629e-05
3.37076e-05
3.52773e-05
3.45995e-05
3.38094e-05
3.55826e-05
3.53464e-05
3.32367e-05
3.54597e-05
3.3124e-05
3.38313e-05
3.49717e-05
3.62305e-05
3.06487e-05
3.40984e-05
3.43551e-05
3.62964e-05
3.46223e-05
3.35242e-05
3.56915e-05
3.2961e-05
3.57217e-05
3.33287e-05
3.57037e-05
3.34455e-05
3.41993e-05
3.53786e-05
3.05148e-05
3.35832e-05
3.52042e-05
3.41211e-05
3.42578e-05
3.39038e-05
3.55816e-05
3.31491e-05
3.55066e-05
3.34169e-05
3.55443e-05
3.39342e-05
3.44927e-05
3.47683e-05
3.04859e-05
3.36752e-05
3.52323e-05
3.42379e-05
3.44e-05
3.33467e-05
3.51125e-05
3.30413e-05
3.55245e-05
3.30624e-05
3.54817e-05
3.34655e-05
2.13629e-06
4.98511e-07
9.36447e-08
4.70793e-08
2.9455e-07
2.14587e-06
5.14137e-07
9.88988e-08
5.24795e-08
3.33255e-07
2.13915e-06
4.99934e-07
9.39873e-08
4.72076e-08
2.95285e-07
2.16197e-06
5.17644e-07
9.95263e-08
5.26404e-08
3.34039e-07
2.11298e-06
5.05733e-07
9.74041e-08
5.23418e-08
3.33271e-07
2.12619e-06
5.0908e-07
9.80451e-08
5.24653e-08
3.33804e-07
2.16384e-06
5.05012e-07
9.47875e-08
4.72006e-08
2.94638e-07
2.14193e-06
5.13056e-07
9.87332e-08
5.25759e-08
3.34096e-07
2.18289e-06
5.09817e-07
9.56583e-08
4.73816e-08
2.9542e-07
2.15842e-06
5.0368e-07
9.45784e-08
4.72869e-08
2.95468e-07
2.1671e-06
5.05647e-07
9.48757e-08
4.73029e-08
2.95387e-07
2.13283e-06
5.10747e-07
9.83292e-08
5.24493e-08
3.33419e-07
2.14602e-06
5.01094e-07
9.41408e-08
4.7141e-08
2.94651e-07
2.14571e-06
5.00973e-07
9.41185e-08
4.71261e-08
2.9458e-07
2.13161e-06
5.10014e-07
9.81656e-08
5.24859e-08
3.3388e-07
2.09848e-06
5.02145e-07
9.67967e-08
5.22582e-08
3.33144e-07
2.13969e-06
5.12308e-07
9.85985e-08
5.24972e-08
3.33564e-07
2.13675e-06
4.99107e-07
9.38241e-08
4.72044e-08
2.95371e-07
2.14611e-06
5.14191e-07
9.89411e-08
5.2556e-08
3.33825e-07
2.03103e-06
4.78851e-07
9.10737e-08
4.8042e-08
3.0426e-07
2.10165e-06
4.97664e-07
9.48534e-08
4.94683e-08
3.12721e-07
2.15512e-06
5.15542e-07
9.90555e-08
5.2524e-08
3.3348e-07
2.14089e-06
5.00486e-07
9.40829e-08
4.72279e-08
2.95365e-07
2.14717e-06
5.01488e-07
9.42359e-08
4.72238e-08
2.95221e-07
2.16002e-06
5.17755e-07
9.95887e-08
5.26452e-08
3.34005e-07
2.16479e-06
5.18784e-07
9.97832e-08
5.26565e-08
3.3394e-07
2.17405e-06
5.07566e-07
9.53285e-08
4.76653e-08
2.97916e-07
2.17621e-06
5.08294e-07
9.5458e-08
4.76948e-08
2.98048e-07
2.12867e-06
4.96833e-07
9.34843e-08
4.74336e-08
2.97487e-07
2.13138e-06
4.97691e-07
9.36276e-08
4.75045e-08
2.97938e-07
1.96364e-06
4.68807e-07
9.07147e-08
5.1043e-08
3.28087e-07
1.9492e-06
4.65228e-07
9.00453e-08
5.09598e-08
3.27962e-07
1.96354e-06
4.68898e-07
9.07335e-08
5.10554e-08
3.28161e-07
1.94896e-06
4.65391e-07
9.0103e-08
5.09958e-08
3.28188e-07
2.11535e-06
5.06565e-07
9.75844e-08
5.24344e-08
3.33852e-07
2.13043e-06
5.10529e-07
9.83004e-08
5.24874e-08
3.33785e-07
2.13812e-06
5.12054e-07
9.85326e-08
5.25025e-08
3.33748e-07
2.16712e-06
5.05682e-07
9.49165e-08
4.73105e-08
2.9541e-07
2.17706e-06
5.08021e-07
9.54192e-08
4.76868e-08
2.97996e-07
2.17631e-06
5.08499e-07
9.55427e-08
4.77231e-08
2.98172e-07
1.96437e-06
4.69488e-07
9.08598e-08
5.10684e-08
3.28153e-07
1.96772e-06
4.70044e-07
9.09505e-08
5.10951e-08
3.28295e-07
2.14057e-06
5.12932e-07
9.87277e-08
5.25698e-08
3.34037e-07
2.04769e-06
4.82838e-07
9.17816e-08
4.81269e-08
3.04375e-07
2.11345e-06
5.0012e-07
9.52358e-08
4.95066e-08
3.12753e-07
2.18477e-06
5.22792e-07
1.00367e-07
5.26639e-08
3.33574e-07
2.17898e-06
5.09825e-07
9.57342e-08
4.7403e-08
2.95496e-07
2.19807e-06
5.13244e-07
9.62208e-08
4.74231e-08
2.9534e-07
2.15673e-06
5.04328e-07
9.4766e-08
4.73161e-08
2.95522e-07
2.15601e-06
5.15704e-07
9.90944e-08
5.25275e-08
3.33452e-07
2.16777e-06
5.06354e-07
9.50161e-08
4.73241e-08
2.95432e-07
2.20639e-06
5.14808e-07
9.65746e-08
4.77816e-08
2.97806e-07
2.2028e-06
5.14762e-07
9.66322e-08
4.78624e-08
2.98384e-07
2.00275e-06
4.78335e-07
9.236e-08
5.12215e-08
3.28188e-07
2.12894e-06
5.10517e-07
9.83458e-08
5.2523e-08
3.33972e-07
2.15185e-06
5.1435e-07
9.88652e-08
5.25168e-08
3.33565e-07
2.15024e-06
5.02358e-07
9.43862e-08
4.72641e-08
2.9544e-07
2.14525e-06
5.12888e-07
9.86313e-08
5.24899e-08
3.33539e-07
2.15238e-06
5.02471e-07
9.43517e-08
4.72422e-08
2.95347e-07
2.12764e-06
5.09587e-07
9.81307e-08
5.24793e-08
3.3383e-07
2.09619e-06
5.02362e-07
9.68939e-08
5.23416e-08
3.33716e-07
2.14947e-06
5.13857e-07
9.87953e-08
5.2523e-08
3.33646e-07
2.17465e-06
5.20169e-07
9.98915e-08
5.26191e-08
3.33582e-07
2.01899e-06
4.76193e-07
9.05775e-08
4.79637e-08
3.04092e-07
2.07723e-06
4.91466e-07
9.37392e-08
4.92274e-08
3.11708e-07
2.07843e-06
4.92386e-07
9.39516e-08
4.93402e-08
3.12428e-07
2.01386e-06
4.74829e-07
9.03536e-08
4.78441e-08
3.03296e-07
2.13462e-06
5.10513e-07
9.82031e-08
5.23236e-08
3.32514e-07
2.16615e-06
5.05648e-07
9.5012e-08
4.76115e-08
2.97705e-07
2.16922e-06
5.0655e-07
9.51609e-08
4.76759e-08
2.98097e-07
1.96554e-06
4.69464e-07
9.08144e-08
5.10632e-08
3.28119e-07
1.96588e-06
4.69599e-07
9.08477e-08
5.10879e-08
3.28279e-07
2.15061e-06
5.14144e-07
9.88271e-08
5.2496e-08
3.33425e-07
2.02812e-06
4.78086e-07
9.09336e-08
4.79952e-08
3.03982e-07
2.09223e-06
4.96036e-07
9.45896e-08
4.94442e-08
3.12731e-07
2.09232e-06
4.95916e-07
9.45698e-08
4.93954e-08
3.12338e-07
2.02759e-06
4.77873e-07
9.09183e-08
4.80305e-08
3.04276e-07
2.15175e-06
5.14921e-07
9.89888e-08
5.25098e-08
3.33392e-07
2.19264e-06
5.12105e-07
9.61061e-08
4.77622e-08
2.98085e-07
2.20784e-06
5.15114e-07
9.65566e-08
4.7804e-08
2.98096e-07
2.00528e-06
4.78273e-07
9.22484e-08
5.12077e-08
3.28263e-07
2.00525e-06
4.78563e-07
9.23241e-08
5.12132e-08
3.28228e-07
2.16796e-06
5.05471e-07
9.4927e-08
4.75952e-08
2.97648e-07
2.16849e-06
5.06266e-07
9.51127e-08
4.76777e-08
2.9815e-07
1.95853e-06
4.67202e-07
9.03859e-08
5.09774e-08
3.27867e-07
1.9579e-06
4.67806e-07
9.05525e-08
5.1028e-08
3.28107e-07
2.16371e-06
5.04618e-07
9.47698e-08
4.75974e-08
2.97844e-07
2.15784e-06
5.03985e-07
9.47042e-08
4.76087e-08
2.97956e-07
1.95964e-06
4.67534e-07
9.04428e-08
5.10097e-08
3.28071e-07
1.95938e-06
4.68418e-07
9.06634e-08
5.10451e-08
3.28153e-07
1.99797e-06
4.71443e-07
8.98159e-08
4.79069e-08
3.04149e-07
2.07688e-06
4.91401e-07
9.37211e-08
4.92355e-08
3.11763e-07
2.07791e-06
4.92212e-07
9.38863e-08
4.93418e-08
3.12488e-07
1.99978e-06
4.71291e-07
8.97401e-08
4.78028e-08
3.034e-07
2.14486e-06
5.12704e-07
9.85615e-08
5.23698e-08
3.32611e-07
2.04518e-06
4.8251e-07
9.17247e-08
4.8088e-08
3.04103e-07
2.11534e-06
5.00393e-07
9.52652e-08
4.95102e-08
3.12774e-07
2.11022e-06
4.99418e-07
9.51089e-08
4.94467e-08
3.12363e-07
2.05064e-06
4.83574e-07
9.18942e-08
4.81376e-08
3.04394e-07
2.1795e-06
5.21331e-07
1.00108e-07
5.26334e-08
3.33546e-07
2.18932e-06
5.23822e-07
1.0052e-07
5.26659e-08
3.33499e-07
2.1738e-06
5.19585e-07
9.97638e-08
5.2602e-08
3.33564e-07
2.0386e-06
4.81199e-07
9.15088e-08
4.80544e-08
3.04047e-07
2.11616e-06
5.008e-07
9.53688e-08
4.95186e-08
3.12809e-07
2.1158e-06
5.0104e-07
9.54096e-08
4.94696e-08
3.12374e-07
2.04453e-06
4.81937e-07
9.15767e-08
4.80926e-08
3.04337e-07
2.02416e-06
4.77441e-07
9.08361e-08
4.79764e-08
3.03932e-07
2.102e-06
4.97453e-07
9.47836e-08
4.94534e-08
3.12721e-07
2.10245e-06
4.97814e-07
9.48381e-08
4.94058e-08
3.12296e-07
2.02675e-06
4.77937e-07
9.09099e-08
4.80181e-08
3.04241e-07
2.15433e-06
5.15485e-07
9.90644e-08
5.25225e-08
3.33439e-07
2.0079e-06
4.79214e-07
9.25054e-08
5.12791e-08
3.28529e-07
2.14844e-06
5.13573e-07
9.87102e-08
5.23732e-08
3.32542e-07
2.00636e-06
4.73071e-07
9.01186e-08
4.79333e-08
3.04124e-07
2.06735e-06
4.89526e-07
9.34196e-08
4.92121e-08
3.11795e-07
2.06867e-06
4.89943e-07
9.35402e-08
4.93068e-08
3.12451e-07
1.99836e-06
4.71844e-07
8.99254e-08
4.78257e-08
3.03384e-07
2.14269e-06
5.12452e-07
9.85288e-08
5.23509e-08
3.32511e-07
2.00718e-06
4.73593e-07
9.02016e-08
4.7941e-08
3.04115e-07
2.06716e-06
4.90122e-07
9.35823e-08
4.92317e-08
3.11784e-07
2.07761e-06
4.91965e-07
9.38974e-08
4.93517e-08
3.12502e-07
2.00515e-06
4.72837e-07
9.00375e-08
4.78287e-08
3.0336e-07
3.38921e-05
3.32853e-05
3.34423e-05
2.42464e-05
3.02336e-05
2.94095e-05
3.56278e-05
1.18381e-05
3.03301e-05
2.97235e-05
3.07004e-05
3.55071e-05
7.47435e-06
1.85848e-05
9.00544e-06
2.98545e-05
2.72322e-05
9.87968e-06
2.73736e-05
9.88377e-06
8.93897e-06
6.96468e-06
1.18302e-05
1.77662e-05
1.77237e-05
6.96566e-06
9.06157e-06
3.04462e-05
9.88247e-06
2.78682e-05
9.96525e-06
2.77849e-05
9.11515e-06
7.51023e-06
2.88271e-05
3.4523e-05
1.85789e-05
1.15411e-05
3.43046e-05
1.15396e-05
2.89287e-05
2.90762e-05
3.43861e-05
3.4511e-05
2.90639e-05
1.39459e-05
6.65472e-06
6.6527e-06
1.38862e-05
3.52472e-05
3.36339e-05
3.58111e-05
3.52346e-05
3.59349e-05
3.52432e-05
3.53455e-05
1.96058e-05
1.49174e-05
1.96662e-05
1.94438e-05
1.49325e-05
3.34785e-05
3.55931e-05
3.48132e-05
3.28676e-05
3.49089e-05
3.28949e-05
3.34234e-05
3.45278e-05
3.6242e-05
3.02825e-05
3.44416e-05
3.43468e-05
3.57213e-05
3.50202e-05
3.38097e-05
3.54619e-05
3.32601e-05
3.52524e-05
3.33089e-05
3.54889e-05
3.35616e-05
3.43638e-05
3.53381e-05
3.5546e-05
3.41895e-05
3.3502e-05
3.34631e-05
3.32974e-05
2.41495e-05
7.35149e-06
7.34183e-06
1.83241e-05
1.80675e-05
1.17391e-05
3.07142e-05
3.03912e-05
2.93021e-05
3.5483e-05
1.14398e-05
2.9927e-05
7.36696e-06
7.34941e-06
2.87954e-05
3.405e-05
1.8319e-05
1.15332e-05
1.15164e-05
3.41799e-05
2.82781e-05
2.84476e-05
3.37137e-05
1.81482e-05
1.14083e-05
1.13819e-05
3.33785e-05
2.84157e-05
1.36881e-05
6.53639e-06
6.52179e-06
6.51396e-06
6.49988e-06
1.35467e-05
6.89362e-06
1.16264e-05
1.78224e-05
1.75802e-05
6.9227e-06
9.00293e-06
3.04931e-05
9.97381e-06
2.80622e-05
9.85073e-06
2.76872e-05
8.99798e-06
6.86624e-06
1.14804e-05
1.74935e-05
1.74073e-05
6.84097e-06
3.48485e-05
3.34157e-05
3.56299e-05
3.54399e-05
3.55942e-05
3.54223e-05
3.47844e-05
1.9262e-05
3.45698e-05
3.54653e-05
3.02772e-05
3.40948e-05
3.5455e-05
3.42568e-05
3.45911e-05
3.37205e-05
3.5489e-05
3.53668e-05
3.294e-05
3.54223e-05
3.28648e-05
3.366e-05
3.42898e-05
3.51162e-05
3.01261e-05
3.37232e-05
3.51027e-05
3.33285e-05
3.464e-05
2.18681e-06
5.10444e-07
9.5731e-08
4.74031e-08
2.95553e-07
2.15792e-06
5.17091e-07
9.94426e-08
5.26367e-08
3.34067e-07
2.17321e-06
5.19855e-07
9.98501e-08
5.26095e-08
3.33559e-07
2.17833e-06
5.0832e-07
9.53679e-08
4.73506e-08
2.95421e-07
2.16047e-06
5.17532e-07
9.94905e-08
5.26389e-08
3.34065e-07
2.02472e-06
4.77508e-07
9.08643e-08
4.80259e-08
3.04307e-07
2.09563e-06
4.96113e-07
9.45218e-08
4.93918e-08
3.12404e-07
2.08821e-06
4.94187e-07
9.4228e-08
4.94079e-08
3.12741e-07
2.01874e-06
4.7673e-07
9.07731e-08
4.79873e-08
3.04022e-07
2.04336e-06
4.82516e-07
9.17644e-08
4.81295e-08
3.04411e-07
2.1021e-06
4.98346e-07
9.49829e-08
4.9445e-08
3.12429e-07
2.10371e-06
4.97589e-07
9.47909e-08
4.94663e-08
3.12783e-07
2.04996e-06
4.83481e-07
9.1878e-08
4.81065e-08
3.04149e-07
2.17471e-06
5.20195e-07
9.99156e-08
5.26256e-08
3.33622e-07
2.19266e-06
5.11468e-07
9.59736e-08
4.77631e-08
2.98179e-07
2.18721e-06
5.10423e-07
9.58017e-08
4.77378e-08
2.98127e-07
1.99458e-06
4.76199e-07
9.19728e-08
5.11958e-08
3.28329e-07
1.99296e-06
4.7571e-07
9.18968e-08
5.11975e-08
3.2839e-07
2.10352e-06
5.04027e-07
9.71858e-08
5.23986e-08
3.33854e-07
2.11823e-06
5.07163e-07
9.7708e-08
5.24355e-08
3.33823e-07
2.13611e-06
4.98387e-07
9.36334e-08
4.71834e-08
2.954e-07
2.12353e-06
4.96947e-07
9.35462e-08
4.71859e-08
2.95399e-07
2.10352e-06
5.03539e-07
9.70565e-08
5.23086e-08
3.33259e-07
2.11664e-06
5.0693e-07
9.76694e-08
5.24267e-08
3.33792e-07
2.12966e-06
5.09145e-07
9.79482e-08
5.22957e-08
3.32508e-07
2.12521e-06
4.96062e-07
9.32517e-08
4.70382e-08
2.9451e-07
2.12454e-06
4.96423e-07
9.33904e-08
4.715e-08
2.95284e-07
1.9566e-06
4.67126e-07
9.03755e-08
5.10089e-08
3.28121e-07
1.9547e-06
4.66512e-07
9.02554e-08
5.10042e-08
3.28189e-07
2.13932e-06
5.1154e-07
9.83994e-08
5.24575e-08
3.33428e-07
2.13832e-06
5.11808e-07
9.84791e-08
5.24782e-08
3.33513e-07
2.1701e-06
5.06034e-07
9.50443e-08
4.76755e-08
2.98194e-07
2.16377e-06
5.0456e-07
9.47827e-08
4.75798e-08
2.9763e-07
2.16232e-06
5.04238e-07
9.47281e-08
4.76144e-08
2.97993e-07
2.15449e-06
5.02484e-07
9.44144e-08
4.75648e-08
2.97863e-07
1.95105e-06
4.66148e-07
9.02277e-08
5.09931e-08
3.28106e-07
1.95335e-06
4.66704e-07
9.03158e-08
5.09748e-08
3.27906e-07
1.99826e-06
4.71324e-07
8.98034e-08
4.7796e-08
3.03297e-07
2.07814e-06
4.91439e-07
9.3747e-08
4.93212e-08
3.12439e-07
2.05751e-06
4.87748e-07
9.3179e-08
4.91738e-08
3.11695e-07
2.00005e-06
4.72363e-07
9.00364e-08
4.79218e-08
3.04111e-07
2.13556e-06
5.10634e-07
9.82226e-08
5.24551e-08
3.3357e-07
3.36408e-05
2.40787e-05
3.41169e-05
3.35244e-05
3.33796e-05
3.34568e-05
3.32406e-05
3.31865e-05
3.34769e-05
3.33896e-05
3.35266e-05
3.41497e-05
3.39849e-05
3.32464e-05
3.31661e-05
1.79451e-05
1.80619e-05
3.34448e-05
1.79223e-05
1.79247e-05
2.92641e-05
1.17098e-05
3.01675e-05
7.46464e-06
7.33961e-06
1.13982e-05
2.99015e-05
2.43095e-05
2.4251e-05
2.40381e-05
3.04728e-05
2.98265e-05
3.40315e-05
3.53502e-05
7.4202e-06
2.93274e-05
3.00942e-05
3.50943e-05
1.78657e-05
1.80262e-05
7.32476e-06
7.29712e-06
7.33477e-06
7.35902e-06
3.31232e-05
1.79987e-05
1.8033e-05
1.79756e-05
1.81791e-05
7.33019e-06
7.30545e-06
7.35905e-06
7.33204e-06
7.41365e-06
7.24845e-06
1.8171e-05
1.77578e-05
2.94705e-05
1.17131e-05
1.14646e-05
3.02115e-05
3.49407e-05
3.01465e-05
2.92108e-05
2.93528e-05
3.4983e-05
3.49054e-05
3.01404e-05
2.93245e-05
3.35862e-05
2.96223e-05
2.93468e-05
3.51731e-05
1.83624e-05
1.8419e-05
3.34622e-05
1.80028e-05
7.4795e-06
2.96535e-05
2.96858e-05
3.54227e-05
1.1745e-05
3.00071e-05
2.98356e-05
3.06414e-05
3.55925e-05
1.17129e-05
3.00157e-05
2.983e-05
2.99265e-05
3.55616e-05
1.15271e-05
3.01451e-05
1.81277e-05
1.8254e-05
7.3687e-06
2.91234e-05
3.01647e-05
3.53784e-05
1.16271e-05
3.02635e-05
1.16214e-05
2.99616e-05
7.29538e-06
7.33733e-06
1.36508e-05
6.53727e-06
6.51577e-06
6.52908e-06
6.53248e-06
1.36027e-05
2.83272e-05
3.41955e-05
1.13559e-05
1.79048e-05
1.13503e-05
2.86733e-05
3.42338e-05
2.83193e-05
3.39889e-05
1.12963e-05
1.8007e-05
1.13303e-05
2.83132e-05
3.40171e-05
1.35548e-05
6.5438e-06
6.5297e-06
6.50197e-06
6.51809e-06
1.3715e-05
2.82174e-05
1.13726e-05
1.79481e-05
3.39375e-05
1.13728e-05
2.87114e-05
3.37403e-05
2.83001e-05
1.1306e-05
1.80639e-05
3.38448e-05
1.13277e-05
2.80613e-05
3.40756e-05
8.79896e-06
9.42036e-06
2.6807e-05
2.94453e-05
9.61183e-06
2.69875e-05
8.67464e-06
6.85478e-06
1.17036e-05
1.76724e-05
1.73082e-05
6.91588e-06
6.74921e-06
1.1572e-05
1.7236e-05
8.94927e-06
2.96163e-05
9.80571e-06
2.75555e-05
9.76628e-06
2.72587e-05
8.98666e-06
7.46684e-06
7.3875e-06
6.8011e-06
1.13497e-05
1.72642e-05
1.70475e-05
6.79482e-06
8.88937e-06
2.9579e-05
2.72424e-05
9.67918e-06
2.69354e-05
9.68423e-06
8.86747e-06
7.39346e-06
2.81706e-05
3.38061e-05
1.13735e-05
1.7944e-05
2.85205e-05
3.40092e-05
1.12946e-05
2.83256e-05
3.38674e-05
1.13111e-05
1.80165e-05
2.83356e-05
3.37948e-05
1.13154e-05
1.37893e-05
6.53912e-06
6.55347e-06
1.3809e-05
6.55181e-06
6.55242e-06
7.31128e-06
7.31507e-06
7.37096e-06
7.36063e-06
1.37386e-05
6.51597e-06
6.55378e-06
1.37338e-05
6.53991e-06
6.55561e-06
2.84574e-05
3.42027e-05
1.13826e-05
1.79664e-05
2.85408e-05
1.13015e-05
3.41638e-05
2.83422e-05
3.34847e-05
1.13435e-05
1.79517e-05
2.8437e-05
1.13444e-05
3.3913e-05
1.36407e-05
6.5379e-06
6.51896e-06
1.3724e-05
6.52549e-06
6.54104e-06
2.85711e-05
1.13331e-05
3.3838e-05
1.79796e-05
2.85798e-05
1.13542e-05
3.36599e-05
2.83246e-05
1.1303e-05
3.39091e-05
1.81653e-05
2.80124e-05
1.1344e-05
3.39889e-05
7.30716e-06
7.30392e-06
7.32741e-06
7.37036e-06
7.40676e-06
7.36305e-06
7.26722e-06
2.82496e-05
3.4217e-05
1.82635e-05
1.15242e-05
1.1519e-05
3.42212e-05
2.83023e-05
2.79909e-05
3.39202e-05
1.78336e-05
1.10731e-05
1.11321e-05
3.35562e-05
2.8019e-05
1.82082e-05
3.41318e-05
1.36698e-05
6.53886e-06
6.47758e-06
6.55973e-06
6.45021e-06
1.37167e-05
8.84829e-06
9.54002e-06
2.67172e-05
2.92806e-05
9.62033e-06
2.7249e-05
8.76929e-06
6.9843e-06
1.1698e-05
1.77301e-05
1.7873e-05
6.94748e-06
6.89654e-06
1.72931e-05
1.16005e-05
1.75504e-05
6.81211e-06
8.9934e-06
2.98745e-05
9.8252e-06
2.79354e-05
9.78265e-06
2.78789e-05
9.00984e-06
1.38467e-05
6.58196e-06
6.5986e-06
6.63299e-06
2.84445e-05
3.42729e-05
1.83901e-05
1.13175e-05
1.13725e-05
3.4356e-05
2.8125e-05
2.85516e-05
3.44211e-05
1.84568e-05
1.15423e-05
3.45195e-05
1.15987e-05
2.88037e-05
2.83875e-05
1.12924e-05
1.80937e-05
3.40163e-05
1.14094e-05
3.39265e-05
2.83987e-05
2.85627e-05
1.84753e-05
3.42614e-05
1.15748e-05
1.38664e-05
6.59639e-06
6.6224e-06
6.58923e-06
6.633e-06
1.38934e-05
7.5065e-06
7.47454e-06
6.97226e-06
1.17972e-05
1.78023e-05
1.76032e-05
6.96461e-06
9.0259e-06
2.94958e-05
9.81831e-06
2.73901e-05
9.79932e-06
2.77155e-05
9.01783e-06
8.97693e-06
3.01023e-05
2.76145e-05
9.81392e-06
6.97831e-06
1.17163e-05
1.77383e-05
1.76072e-05
6.98632e-06
6.97668e-06
1.16431e-05
1.7765e-05
9.02996e-06
3.00941e-05
2.76808e-05
9.83655e-06
2.73403e-05
9.8334e-06
9.04793e-06
8.90659e-06
2.98391e-05
9.77063e-06
2.73529e-05
6.87658e-06
1.14337e-05
1.75107e-05
1.7352e-05
6.88393e-06
6.8755e-06
1.15133e-05
1.75342e-05
8.93304e-06
3.01029e-05
9.81995e-06
2.71325e-05
9.81072e-06
2.70015e-05
8.95024e-06
2.8276e-05
3.42733e-05
1.821e-05
1.13368e-05
1.13617e-05
3.43602e-05
2.83084e-05
2.86067e-05
3.36637e-05
1.80525e-05
1.14687e-05
3.3861e-05
1.15001e-05
2.87837e-05
1.3882e-05
6.59734e-06
6.61321e-06
6.59993e-06
6.61254e-06
1.39104e-05
7.38603e-06
6.9307e-06
1.1589e-05
1.77349e-05
1.76409e-05
6.93163e-06
9.03294e-06
3.03169e-05
2.77465e-05
9.86526e-06
2.7761e-05
9.91534e-06
9.03966e-06
6.88395e-06
1.15597e-05
1.74902e-05
1.7574e-05
6.85022e-06
8.92926e-06
3.02687e-05
2.73306e-05
9.85743e-06
2.7473e-05
9.86233e-06
8.89373e-06
7.29011e-06
7.30998e-06
7.33579e-06
3.44835e-05
3.58075e-05
3.55084e-05
3.36779e-05
3.44624e-05
3.53545e-05
3.54631e-05
1.9331e-05
1.97011e-05
1.49374e-05
3.50712e-05
3.56691e-05
3.51849e-05
3.34696e-05
3.45893e-05
3.55576e-05
3.56288e-05
3.4397e-05
3.34497e-05
3.56313e-05
3.54978e-05
3.48667e-05
3.5809e-05
3.55452e-05
3.42864e-05
3.50593e-05
3.51632e-05
3.2987e-05
3.54315e-05
3.52406e-05
3.47083e-05
3.49566e-05
3.58425e-05
3.54167e-05
3.3452e-05
3.52464e-05
3.53363e-05
3.50115e-05
3.47544e-05
3.56281e-05
3.55064e-05
3.36627e-05
3.54993e-05
3.55936e-05
3.46968e-05
3.44041e-05
3.33099e-05
3.54192e-05
3.50855e-05
3.49561e-05
3.55975e-05
3.55291e-05
1.93944e-05
1.96852e-05
1.49656e-05
1.97288e-05
1.94209e-05
1.49591e-05
1.97055e-05
1.93272e-05
1.49589e-05
3.48959e-05
3.60135e-05
3.05251e-05
3.43911e-05
3.60888e-05
3.44047e-05
3.52028e-05
3.48169e-05
3.01551e-05
3.58319e-05
3.38055e-05
3.40455e-05
3.53241e-05
3.52141e-05
3.31695e-05
3.5547e-05
3.32779e-05
3.38272e-05
3.44019e-05
3.56045e-05
3.02071e-05
3.40052e-05
3.55604e-05
3.3804e-05
3.46626e-05
3.34881e-05
3.46283e-05
3.24616e-05
3.51904e-05
3.27076e-05
3.48909e-05
3.33839e-05
3.50002e-05
3.35298e-05
3.52711e-05
3.54215e-05
3.49916e-05
3.58096e-05
3.55774e-05
3.36593e-05
3.44051e-05
3.3068e-05
3.47577e-05
3.5173e-05
3.26411e-05
3.3783e-05
3.43628e-05
3.54311e-05
3.01168e-05
3.38741e-05
3.4065e-05
3.55982e-05
3.43634e-05
3.44914e-05
3.00294e-05
3.36325e-05
3.56517e-05
3.32882e-05
3.52997e-05
3.53253e-05
3.2607e-05
3.52824e-05
3.26717e-05
3.34182e-05
3.34326e-05
3.49654e-05
3.29582e-05
3.54282e-05
3.4905e-05
3.29769e-05
3.38485e-05
3.43103e-05
3.54737e-05
2.98107e-05
3.42859e-05
3.41597e-05
3.55988e-05
3.43805e-05
3.47427e-05
3.33997e-05
2.9469e-05
3.50209e-05
3.37735e-05
3.47971e-05
3.54767e-05
3.34523e-05
3.55979e-05
3.52284e-05
3.289e-05
3.56137e-05
3.27888e-05
3.3357e-05
3.50601e-05
3.34808e-05
3.54884e-05
3.55881e-05
3.57083e-05
3.56499e-05
3.50914e-05
3.4661e-05
3.5162e-05
2.98201e-05
3.4001e-05
3.4022e-05
3.49559e-05
3.46603e-05
3.3817e-05
3.50462e-05
3.52297e-05
3.31807e-05
3.5316e-05
3.32679e-05
3.34473e-05
3.47347e-05
3.58956e-05
3.06708e-05
3.45512e-05
3.45588e-05
3.54998e-05
3.48356e-05
3.41405e-05
3.51352e-05
3.30804e-05
3.54718e-05
3.34636e-05
3.54818e-05
3.41194e-05
3.48181e-05
3.56044e-05
3.01299e-05
3.39148e-05
3.50122e-05
3.35574e-05
3.48272e-05
3.37397e-05
3.52785e-05
3.3385e-05
3.54335e-05
3.32432e-05
3.54218e-05
3.39778e-05
3.43463e-05
3.48046e-05
2.98553e-05
3.39073e-05
3.50664e-05
3.35253e-05
3.41411e-05
3.32612e-05
3.54138e-05
3.28083e-05
3.49044e-05
3.24851e-05
3.45274e-05
3.34344e-05
2.39886e-05
3.34946e-05
3.3663e-05
3.3565e-05
2.38754e-05
3.34719e-05
3.34043e-05
3.34823e-05
2.40875e-05
3.38667e-05
3.35085e-05
3.35962e-05
2.40657e-05
3.34211e-05
3.34593e-05
3.31846e-05
2.38788e-05
3.38078e-05
3.34975e-05
3.33682e-05
2.38028e-05
3.35983e-05
3.31708e-05
3.30796e-05
2.39824e-05
3.3579e-05
3.33186e-05
3.33376e-05
2.39933e-05
3.3548e-05
3.33516e-05
3.34649e-05
2.39718e-05
3.39807e-05
3.35282e-05
3.35212e-05
2.41483e-05
3.38606e-05
3.36193e-05
3.33682e-05
2.41204e-05
3.39533e-05
3.35533e-05
3.35202e-05
2.41381e-05
3.37889e-05
3.32093e-05
3.3566e-05
2.41593e-05
3.37594e-05
3.33803e-05
3.34175e-05
2.41899e-05
3.36274e-05
3.33907e-05
3.34487e-05
2.41503e-05
3.36653e-05
3.34312e-05
3.34213e-05
2.41179e-05
3.40376e-05
3.34019e-05
3.31568e-05
3.3595e-05
3.38108e-05
3.36727e-05
3.35378e-05
3.41072e-05
3.38114e-05
3.39414e-05
3.36222e-05
3.3328e-05
3.34854e-05
3.35391e-05
3.34787e-05
3.35364e-05
3.32777e-05
3.37938e-05
3.30141e-05
3.38345e-05
3.35646e-05
3.37726e-05
3.3577e-05
3.40393e-05
3.32737e-05
3.40279e-05
3.38256e-05
3.35994e-05
3.35654e-05
3.34734e-05
3.34752e-05
3.30976e-05
3.35555e-05
3.34034e-05
3.35452e-05
3.35628e-05
3.35508e-05
3.34037e-05
3.38569e-05
3.34756e-05
3.39026e-05
3.36855e-05
3.3764e-05
3.36846e-05
3.39653e-05
3.37241e-05
3.36099e-05
3.34869e-05
3.37752e-05
3.39323e-05
3.38324e-05
3.37728e-05
3.31675e-05
3.32254e-05
3.33955e-05
3.32472e-05
3.36265e-05
3.30954e-05
3.34757e-05
3.35912e-05
3.34269e-05
3.39604e-05
3.34609e-05
3.32187e-05
3.37906e-05
3.39144e-05
3.35128e-05
3.39296e-05
3.37303e-05
3.36826e-05
3.35457e-05
3.37986e-05
3.3853e-05
3.33306e-05
3.35171e-05
3.30086e-05
3.3535e-05
3.33317e-05
3.35159e-05
3.34827e-05
3.38364e-05
3.29523e-05
3.36377e-05
3.3537e-05
3.35531e-05
3.35071e-05
3.36994e-05
3.35824e-05
3.39304e-05
3.34682e-05
3.37959e-05
3.36487e-05
3.35158e-05
3.36626e-05
3.34016e-05
3.35559e-05
3.31043e-05
3.35105e-05
3.35649e-05
3.32287e-05
3.33088e-05
3.37336e-05
3.34092e-05
3.34868e-05
3.36089e-05
3.37694e-05
3.36738e-05
3.40857e-05
3.37213e-05
3.40995e-05
3.35066e-05
3.35428e-05
3.34088e-05
3.34274e-05
3.36056e-05
3.31321e-05
3.34794e-05
3.3498e-05
3.31648e-05
3.31012e-05
3.35304e-05
3.33844e-05
3.33869e-05
3.32878e-05
3.3826e-05
3.34774e-05
3.36318e-05
3.37722e-05
3.40829e-05
3.34323e-05
3.39025e-05
3.36655e-05
3.39973e-05
3.33653e-05
3.34689e-05
3.38251e-05
3.32259e-05
3.35628e-05
3.33636e-05
3.31089e-05
3.3573e-05
3.34507e-05
3.34054e-05
3.36837e-05
3.34879e-05
3.38278e-05
3.37163e-05
3.38455e-05
3.37762e-05
3.4248e-05
3.35116e-05
3.4045e-05
3.37404e-05
3.38658e-05
3.37684e-05
3.33686e-05
3.37059e-05
3.32071e-05
3.34663e-05
3.33571e-05
3.3578e-05
3.34885e-05
3.34769e-05
3.34313e-05
3.37253e-05
3.34245e-05
3.36721e-05
3.38139e-05
3.36531e-05
3.31749e-05
3.41463e-05
3.33179e-05
3.39379e-05
3.37921e-05
3.36588e-05
3.37134e-05
3.3503e-05
3.35416e-05
3.33966e-05
3.34745e-05
3.34251e-05
3.357e-05
3.31088e-05
3.31524e-05
3.33977e-05
3.34024e-05
3.35954e-05
3.3653e-05
3.37448e-05
3.38188e-05
3.37151e-05
3.4069e-05
3.36229e-05
3.42062e-05
3.38218e-05
3.37583e-05
3.38713e-05
3.34035e-05
3.34075e-05
3.34842e-05
3.35644e-05
3.32293e-05
3.31139e-05
3.34979e-05
3.36044e-05
3.31972e-05
3.35952e-05
3.31225e-05
3.33247e-05
3.37347e-05
3.37151e-05
3.36161e-05
3.42412e-05
3.33691e-05
3.41598e-05
3.38567e-05
3.36493e-05
3.38465e-05
3.38054e-05
3.37168e-05
3.32164e-05
3.32144e-05
3.33209e-05
3.35133e-05
3.33328e-05
3.32541e-05
3.34347e-05
3.37318e-05
3.34296e-05
3.35939e-05
3.3622e-05
3.35526e-05
3.37696e-05
3.41912e-05
3.38117e-05
3.40285e-05
3.37624e-05
3.39672e-05
3.37762e-05
3.37755e-05
3.36671e-05
3.34377e-05
3.34531e-05
3.34677e-05
3.35805e-05
3.31763e-05
3.35095e-05
3.37812e-05
3.34433e-05
3.3823e-05
3.37039e-05
3.35043e-05
3.35751e-05
3.34488e-05
3.40848e-05
3.35744e-05
3.4111e-05
3.3362e-05
3.33577e-05
3.33024e-05
3.36084e-05
3.36021e-05
3.35353e-05
3.35843e-05
3.33214e-05
3.3441e-05
3.35348e-05
3.35793e-05
3.35219e-05
3.37533e-05
3.37516e-05
3.33574e-05
3.334e-05
3.3454e-05
3.32793e-05
3.3948e-05
3.37219e-05
3.39314e-05
3.35189e-05
3.38836e-05
3.38179e-05
3.3543e-05
3.3261e-05
3.31906e-05
3.33668e-05
3.33489e-05
3.33972e-05
3.35066e-05
3.30033e-05
3.36577e-05
3.36463e-05
3.33909e-05
3.36686e-05
3.37603e-05
3.36868e-05
3.36662e-05
3.40406e-05
3.36995e-05
3.4125e-05
3.36177e-05
3.34964e-05
3.38299e-05
3.35299e-05
3.32619e-05
3.3158e-05
3.33972e-05
3.32944e-05
3.35176e-05
3.34139e-05
3.35114e-05
3.33925e-05
3.33513e-05
3.35276e-05
3.3558e-05
3.34643e-05
3.37566e-05
3.3779e-05
3.41496e-05
3.37236e-05
3.4152e-05
3.35369e-05
3.39735e-05
3.35699e-05