/*--------------------------------*- C++ -*----------------------------------*\
| =========                 |                                                 |
| \\      /  F ield         | OpenFOAM: The Open Source CFD Toolbox           |
|  \\    /   O peration     | Version:  2206                                  |
|   \\  /    A nd           | Website:  www.openfoam.com                      |
|    \\/     M anipulation  |                                                 |
\*---------------------------------------------------------------------------*/
FoamFile
{
    version     2.0;
    format      ascii;
    arch        "LSB;label=32;scalar=64";
    class       volScalarField;
    location    "70";
    object      nut;
}
// * * * * * * * * * * * * * * * * * * * * * * * * * * * * * * * * * * * * * //

dimensions      [0 2 -1 0 0 0 0];

internalField   nonuniform List<scalar> 
67442
(
1.36448e-06
7.8853e-07
8.00386e-07
7.59016e-07
7.66572e-07
8.0444e-07
8.06448e-07
7.58534e-07
7.90836e-07
7.91135e-07
7.98045e-07
7.63904e-07
8.00423e-07
3.98673e-08
1.75625e-07
1.82973e-08
3.89888e-08
1.6616e-07
1.37211e-06
1.35781e-06
1.36476e-06
1.7857e-07
9.76438e-07
3.88098e-07
1.82839e-08
9.92486e-07
1.81138e-07
3.98566e-07
9.5563e-08
9.58333e-08
1.80825e-08
1.79739e-08
9.67107e-08
9.52344e-08
4.05113e-08
1.76814e-07
1.81844e-07
9.85385e-07
4.02294e-07
1.85849e-07
9.9619e-07
3.97148e-07
9.79261e-08
9.60848e-08
1.80729e-08
1.78728e-07
9.68531e-07
3.85924e-07
3.98521e-08
1.68822e-07
9.71259e-07
1.78492e-07
3.85295e-07
3.96026e-08
1.69416e-07
9.72128e-07
1.79658e-07
3.79831e-07
4.00014e-08
1.69624e-07
9.6887e-08
9.77952e-08
1.81905e-08
9.89211e-07
1.80658e-07
3.98403e-07
4.02043e-08
1.74988e-07
4.0422e-08
1.75312e-07
1.79533e-08
1.79076e-08
1.6221e-08
4.02331e-08
8.83514e-08
8.92472e-08
1.62142e-08
2.77051e-08
1.74528e-07
3.26169e-08
1.46706e-07
3.28257e-08
1.47727e-07
2.77387e-08
1.83218e-08
2.71484e-08
1.68184e-07
1.41159e-07
3.20625e-08
1.60964e-08
3.94727e-08
8.6059e-08
8.71163e-08
1.60738e-08
1.59738e-08
3.92411e-08
8.67721e-08
2.71316e-08
1.69268e-07
1.4117e-07
3.17259e-08
1.42444e-07
3.19662e-08
2.71884e-08
1.81858e-08
1.82439e-08
1.49294e-07
2.59903e-07
9.60651e-08
3.7786e-08
2.6282e-07
3.74096e-08
1.50215e-07
1.50217e-07
2.65645e-07
9.61963e-08
3.69634e-08
2.63364e-07
3.68898e-08
1.49363e-07
5.91754e-08
1.57886e-08
1.56888e-08
1.57804e-08
1.56883e-08
5.95161e-08
1.80381e-08
1.79677e-08
1.80103e-08
1.48707e-07
2.62812e-07
9.74857e-08
3.77102e-08
3.79326e-08
2.67154e-07
1.50028e-07
1.49821e-07
2.58854e-07
9.58677e-08
3.71109e-08
3.69475e-08
2.6351e-07
1.50949e-07
5.8171e-08
1.58436e-08
1.58181e-08
1.58053e-08
1.57305e-08
6.00081e-08
1.62438e-08
4.06056e-08
8.95353e-08
9.00677e-08
1.62024e-08
2.73012e-08
1.75484e-07
3.28979e-08
1.46663e-07
3.24447e-08
1.4655e-07
2.75259e-08
1.51953e-07
2.69479e-07
9.81865e-08
3.74721e-08
3.76093e-08
2.70053e-07
1.51333e-07
1.50456e-07
2.64344e-07
9.66786e-08
3.75565e-08
2.64925e-07
3.74926e-08
1.49304e-07
5.90938e-08
1.5826e-08
1.574e-08
1.58617e-08
1.58153e-08
5.95238e-08
1.80306e-08
2.73313e-08
1.68645e-07
3.22696e-08
1.40515e-07
1.62874e-08
3.98847e-08
8.75508e-08
8.79252e-08
1.62845e-08
1.63171e-08
4.04116e-08
8.82541e-08
2.72944e-08
1.70427e-07
3.22811e-08
1.40993e-07
3.22687e-08
1.42797e-07
2.73917e-08
1.61923e-08
3.92767e-08
8.77798e-08
8.82423e-08
1.62093e-08
2.71914e-08
1.71385e-07
1.41097e-07
3.25062e-08
1.43321e-07
3.22732e-08
2.73846e-08
1.60245e-08
3.94729e-08
8.67383e-08
8.65943e-08
1.59828e-08
2.70622e-08
1.71002e-07
3.21101e-08
1.40719e-07
3.21578e-08
1.41386e-07
2.71042e-08
1.50747e-07
2.66867e-07
9.67688e-08
3.75521e-08
3.81986e-08
2.62746e-07
1.52028e-07
1.54001e-07
2.69986e-07
9.80817e-08
3.85257e-08
2.66074e-07
3.83798e-08
1.51768e-07
6.02729e-08
1.61653e-08
1.61078e-08
1.61591e-08
1.62347e-08
6.14721e-08
1.80877e-08
1.63122e-08
4.0124e-08
8.96176e-08
8.97277e-08
1.62009e-08
2.75313e-08
1.75306e-07
1.44446e-07
3.24523e-08
1.47235e-07
3.2517e-08
2.7358e-08
1.62065e-08
4.00374e-08
8.95066e-08
8.96121e-08
1.61373e-08
2.74119e-08
1.75704e-07
1.45758e-07
3.23365e-08
1.46022e-07
3.25744e-08
2.75359e-08
1.78909e-08
1.78924e-08
1.16275e-06
1.18136e-06
9.29776e-07
3.06382e-07
4.5323e-07
4.58612e-07
7.39818e-07
4.45843e-07
4.46203e-07
3.08138e-07
3.02753e-07
4.57182e-07
4.55817e-07
7.42584e-07
4.5199e-07
4.4591e-07
3.08428e-07
3.07187e-07
4.54788e-07
4.58518e-07
7.46487e-07
4.51551e-07
4.5466e-07
3.03797e-07
3.09706e-07
4.55969e-07
4.55891e-07
7.46064e-07
4.56164e-07
4.48659e-07
3.08481e-07
1.16788e-06
1.18659e-06
9.31817e-07
1.18641e-06
1.17648e-06
9.33378e-07
1.17853e-06
1.17065e-06
9.29274e-07
5.26894e-07
3.86744e-07
1.78159e-07
2.64904e-07
3.82739e-07
2.65009e-07
5.36233e-07
5.796e-07
3.85218e-07
3.48355e-07
6.49803e-07
3.48667e-07
6.27033e-07
5.9231e-07
5.3816e-07
3.94731e-07
1.84493e-07
2.71884e-07
3.92334e-07
2.7389e-07
5.43479e-07
5.96739e-07
3.96735e-07
6.57013e-07
3.55577e-07
6.53545e-07
3.56728e-07
6.01657e-07
5.38918e-07
3.92065e-07
1.80968e-07
2.72177e-07
2.73418e-07
3.89361e-07
5.44441e-07
6.01264e-07
4.00078e-07
3.59087e-07
6.61044e-07
3.57787e-07
6.57372e-07
6.05814e-07
5.44907e-07
3.93448e-07
1.86658e-07
2.76026e-07
2.76508e-07
3.89637e-07
5.48136e-07
6.04384e-07
4.02853e-07
3.61448e-07
6.59763e-07
3.61104e-07
6.55198e-07
6.07839e-07
5.12241e-07
3.79694e-07
1.80466e-07
2.60019e-07
2.61503e-07
3.76094e-07
5.27015e-07
5.73307e-07
3.83733e-07
3.43553e-07
6.43155e-07
3.43759e-07
6.23163e-07
5.87155e-07
5.2453e-07
3.92189e-07
1.81769e-07
2.64366e-07
2.66713e-07
3.88743e-07
5.28841e-07
5.69071e-07
3.84948e-07
6.38528e-07
3.47443e-07
6.27774e-07
3.46326e-07
5.80961e-07
5.12943e-07
3.8329e-07
1.81011e-07
2.60221e-07
3.77311e-07
2.64772e-07
5.23208e-07
5.75823e-07
3.83841e-07
6.42359e-07
3.45202e-07
6.29638e-07
3.44657e-07
5.89813e-07
5.36595e-07
3.82329e-07
1.83455e-07
2.68384e-07
3.84968e-07
2.72987e-07
5.39158e-07
5.94074e-07
3.96737e-07
6.60524e-07
3.59316e-07
6.56305e-07
3.58288e-07
5.9993e-07
2.85533e-09
3.08524e-10
2.11806e-11
2.85717e-12
2.52223e-12
2.93853e-09
3.21949e-10
2.25319e-11
3.1947e-12
2.85049e-12
2.86063e-09
3.09399e-10
2.12573e-11
2.86462e-12
2.52807e-12
2.9694e-09
3.24298e-10
2.26776e-11
3.20495e-12
2.85768e-12
2.8996e-09
3.16823e-10
2.21945e-11
3.18707e-12
2.85183e-12
2.91829e-09
3.18903e-10
2.23384e-11
3.19385e-12
2.85518e-12
2.8868e-09
3.12434e-10
2.14379e-11
2.86418e-12
2.52253e-12
2.93411e-09
3.21311e-10
2.24978e-11
3.20129e-12
2.85864e-12
2.91896e-09
3.15531e-10
2.16355e-11
2.87518e-12
2.52898e-12
2.88096e-09
3.11643e-10
2.13931e-11
2.86992e-12
2.53009e-12
2.89363e-09
3.12864e-10
2.146e-11
2.87095e-12
2.52959e-12
2.92129e-09
3.19859e-10
2.2405e-11
3.19341e-12
2.85265e-12
2.86392e-09
3.1003e-10
2.12925e-11
2.86076e-12
2.5228e-12
2.86301e-09
3.0995e-10
2.12876e-11
2.85986e-12
2.52204e-12
2.91988e-09
3.19391e-10
2.23671e-11
3.19553e-12
2.85631e-12
2.87405e-09
3.14459e-10
2.20537e-11
3.18131e-12
2.84954e-12
2.95119e-09
3.21188e-10
2.24737e-11
3.1974e-12
2.85499e-12
2.85724e-09
3.08972e-10
2.1223e-11
2.86481e-12
2.52926e-12
2.94185e-09
3.22141e-10
2.25435e-11
3.1994e-12
2.85537e-12
2.75975e-09
2.98157e-10
2.06729e-11
2.92103e-12
2.60603e-12
2.86121e-09
3.10897e-10
2.15835e-11
3.01174e-12
2.67909e-12
2.97381e-09
3.23214e-10
2.25774e-11
3.19888e-12
2.85416e-12
2.86262e-09
3.09807e-10
2.12806e-11
2.86591e-12
2.52876e-12
2.86957e-09
3.10389e-10
2.13138e-11
2.86561e-12
2.52752e-12
2.96393e-09
3.24414e-10
2.26931e-11
3.20527e-12
2.85739e-12
2.97352e-09
3.25033e-10
2.27364e-11
3.20593e-12
2.85683e-12
2.90664e-09
3.1423e-10
2.15707e-11
2.89316e-12
2.55076e-12
2.91272e-09
3.14821e-10
2.16017e-11
2.895e-12
2.55188e-12
2.84537e-09
3.0758e-10
2.1153e-11
2.8791e-12
2.54708e-12
2.85226e-09
3.08256e-10
2.11876e-11
2.88346e-12
2.55094e-12
2.69385e-09
2.92931e-10
2.06327e-11
3.10455e-12
2.80614e-12
2.67352e-09
2.90694e-10
2.04808e-11
3.09943e-12
2.80499e-12
2.69687e-09
2.93143e-10
2.06387e-11
3.10534e-12
2.80677e-12
2.67622e-09
2.90944e-10
2.04955e-11
3.10166e-12
2.80693e-12
2.90195e-09
3.17408e-10
2.2237e-11
3.19275e-12
2.8568e-12
2.92245e-09
3.19871e-10
2.23978e-11
3.19523e-12
2.85502e-12
2.9366e-09
3.20807e-10
2.24498e-11
3.19611e-12
2.85471e-12
2.89525e-09
3.13001e-10
2.14692e-11
2.87091e-12
2.52914e-12
2.90935e-09
3.14498e-10
2.15915e-11
2.89465e-12
2.55157e-12
2.91264e-09
3.14951e-10
2.16216e-11
2.8969e-12
2.55308e-12
2.69523e-09
2.93355e-10
2.06661e-11
3.10606e-12
2.80668e-12
2.70308e-09
2.93859e-10
2.06885e-11
3.10773e-12
2.80789e-12
2.93519e-09
3.21389e-10
2.24981e-11
3.20095e-12
2.85813e-12
2.78337e-09
3.00634e-10
2.08336e-11
2.9263e-12
2.60712e-12
2.87682e-09
3.12427e-10
2.16708e-11
3.01411e-12
2.6794e-12
3.01492e-09
3.2776e-10
2.2876e-11
3.20737e-12
2.85467e-12
2.91513e-09
3.15618e-10
2.16544e-11
2.87652e-12
2.52963e-12
2.94097e-09
3.17676e-10
2.1763e-11
2.8777e-12
2.52829e-12
2.88278e-09
3.12196e-10
2.14376e-11
2.87174e-12
2.53056e-12
2.97071e-09
3.23265e-10
2.25867e-11
3.1993e-12
2.85415e-12
2.89778e-09
3.13442e-10
2.14936e-11
2.87228e-12
2.52998e-12
2.94898e-09
3.18708e-10
2.18537e-11
2.90071e-12
2.55061e-12
2.94788e-09
3.18834e-10
2.18691e-11
2.90566e-12
2.55556e-12
2.74804e-09
2.9888e-10
2.10066e-11
3.11542e-12
2.80732e-12
2.91827e-09
3.19865e-10
2.24106e-11
3.19795e-12
2.85738e-12
2.96392e-09
3.22409e-10
2.25343e-11
3.19859e-12
2.85498e-12
2.87179e-09
3.10972e-10
2.13505e-11
2.86829e-12
2.52956e-12
2.95485e-09
3.21503e-10
2.24817e-11
3.19697e-12
2.85467e-12
2.87545e-09
3.11029e-10
2.13427e-11
2.86696e-12
2.52861e-12
2.91903e-09
3.19273e-10
2.23608e-11
3.19516e-12
2.85588e-12
2.87319e-09
3.1474e-10
2.20775e-11
3.18643e-12
2.85443e-12
2.95959e-09
3.22104e-10
2.2519e-11
3.19887e-12
2.85562e-12
2.99597e-09
3.26062e-10
2.27686e-11
3.20482e-12
2.85502e-12
2.74461e-09
2.9653e-10
2.05603e-11
2.91622e-12
2.60424e-12
2.82546e-09
3.06985e-10
2.13285e-11
2.99687e-12
2.66994e-12
2.8256e-09
3.07609e-10
2.13784e-11
3.00378e-12
2.67611e-12
2.73601e-09
2.9562e-10
2.05081e-11
2.9089e-12
2.59742e-12
2.94106e-09
3.19981e-10
2.23819e-11
3.18676e-12
2.84601e-12
2.89452e-09
3.13041e-10
2.15e-11
2.89022e-12
2.54936e-12
2.90268e-09
3.13744e-10
2.15356e-11
2.89418e-12
2.55271e-12
2.69629e-09
2.9335e-10
2.06574e-11
3.10621e-12
2.80715e-12
2.69996e-09
2.93588e-10
2.06666e-11
3.10775e-12
2.80851e-12
2.96388e-09
3.22256e-10
2.25239e-11
3.19713e-12
2.85368e-12
2.75874e-09
2.97724e-10
2.0642e-11
2.91821e-12
2.60366e-12
2.84752e-09
3.09878e-10
2.15234e-11
3.01027e-12
2.67918e-12
2.84877e-09
3.09849e-10
2.15201e-11
3.00733e-12
2.67581e-12
2.75709e-09
2.97543e-10
2.06376e-11
2.92033e-12
2.60618e-12
2.96518e-09
3.22756e-10
2.2561e-11
3.19797e-12
2.8534e-12
2.93588e-09
3.1714e-10
2.17476e-11
2.89934e-12
2.55259e-12
2.95765e-09
3.19081e-10
2.18512e-11
2.90192e-12
2.55269e-12
2.75877e-09
2.98954e-10
2.09812e-11
3.11445e-12
2.80764e-12
2.75741e-09
2.99182e-10
2.09998e-11
3.11481e-12
2.80734e-12
2.90222e-09
3.1304e-10
2.14809e-11
2.8892e-12
2.54888e-12
2.90427e-09
3.13609e-10
2.15247e-11
2.89426e-12
2.55318e-12
2.69472e-09
2.92043e-10
2.05578e-11
3.10039e-12
2.8039e-12
2.69104e-09
2.92471e-10
2.05971e-11
3.10351e-12
2.80595e-12
2.89728e-09
3.12488e-10
2.14445e-11
2.88912e-12
2.55014e-12
2.88907e-09
3.12159e-10
2.14313e-11
2.88986e-12
2.5511e-12
2.69606e-09
2.9228e-10
2.05719e-11
3.10258e-12
2.80593e-12
2.69308e-09
2.92875e-10
2.06233e-11
3.10477e-12
2.80662e-12
2.71256e-09
2.93533e-10
2.03884e-11
2.91286e-12
2.60511e-12
2.81849e-09
3.0684e-10
2.13251e-11
2.99755e-12
2.67088e-12
2.82233e-09
3.07502e-10
2.13647e-11
3.00407e-12
2.6771e-12
2.70956e-09
2.93313e-10
2.03697e-11
2.90649e-12
2.59869e-12
2.94755e-09
3.21235e-10
2.24637e-11
3.18948e-12
2.84677e-12
2.782e-09
3.00481e-10
2.08217e-11
2.92396e-12
2.6048e-12
2.87815e-09
3.12601e-10
2.16774e-11
3.01432e-12
2.67958e-12
2.87331e-09
3.12042e-10
2.1643e-11
3.01049e-12
2.67606e-12
2.78821e-09
3.01091e-10
2.08592e-11
2.92695e-12
2.60729e-12
3.00373e-09
3.2676e-10
2.28157e-11
3.20547e-12
2.85442e-12
3.01729e-09
3.28335e-10
2.29097e-11
3.20745e-12
2.85402e-12
2.98879e-09
3.25554e-10
2.2738e-11
3.20374e-12
2.85487e-12
2.76958e-09
2.99602e-10
2.0771e-11
2.92158e-12
2.60372e-12
2.87383e-09
3.12723e-10
2.16992e-11
3.01472e-12
2.67934e-12
2.87604e-09
3.13022e-10
2.17099e-11
3.01177e-12
2.67561e-12
2.77176e-09
2.9994e-10
2.07852e-11
2.92387e-12
2.6062e-12
2.74988e-09
2.97265e-10
2.06182e-11
2.91681e-12
2.60284e-12
2.85415e-09
3.10633e-10
2.15659e-11
3.01064e-12
2.67861e-12
2.85766e-09
3.1101e-10
2.15799e-11
3.00777e-12
2.67497e-12
2.74764e-09
2.97457e-10
2.06339e-11
2.91932e-12
2.60549e-12
2.96191e-09
3.22982e-10
2.25782e-11
3.19895e-12
2.85404e-12
2.75812e-09
2.99587e-10
2.10414e-11
3.11897e-12
2.81025e-12
2.95447e-09
3.21783e-10
2.24971e-11
3.18979e-12
2.84623e-12
2.72371e-09
2.94538e-10
2.04561e-11
2.91445e-12
2.60473e-12
2.80521e-09
3.05667e-10
2.12561e-11
2.99617e-12
2.67119e-12
2.81016e-09
3.06079e-10
2.12851e-11
3.00186e-12
2.67656e-12
2.70736e-09
2.93651e-10
2.04109e-11
2.90797e-12
2.59864e-12
2.94581e-09
3.21087e-10
2.24565e-11
3.18844e-12
2.84588e-12
2.72502e-09
2.94871e-10
2.04759e-11
2.91491e-12
2.60479e-12
2.80506e-09
3.06041e-10
2.12936e-11
2.99732e-12
2.67107e-12
2.82331e-09
3.0735e-10
2.13672e-11
3.00468e-12
2.67721e-12
2.71679e-09
2.94274e-10
2.0437e-11
2.90804e-12
2.59832e-12
7.9531e-07
7.41393e-07
8.04491e-07
1.37117e-06
1.69688e-07
9.60575e-07
3.84198e-07
4.00855e-08
1.70258e-07
9.71915e-07
1.82083e-07
3.82885e-07
1.81987e-08
9.79125e-08
2.71222e-08
1.66339e-07
1.40212e-07
3.19975e-08
1.39873e-07
3.21764e-08
2.68907e-08
1.61754e-08
4.03609e-08
8.8321e-08
8.74178e-08
1.62432e-08
2.73144e-08
1.69671e-07
3.20066e-08
1.43552e-07
3.24342e-08
1.42032e-07
2.7434e-08
1.82039e-08
1.52744e-07
2.67111e-07
9.71657e-08
3.77264e-08
2.65302e-07
3.79304e-08
1.54266e-07
1.53219e-07
2.69685e-07
2.70674e-07
1.53648e-07
6.01677e-08
1.60635e-08
1.60093e-08
6.01442e-08
3.1204e-07
7.69282e-07
4.48338e-07
4.5169e-07
4.58077e-07
4.58176e-07
3.12003e-07
1.17588e-06
9.2708e-07
1.18444e-06
1.17452e-06
9.23346e-07
5.81041e-07
3.85102e-07
3.37441e-07
6.1847e-07
3.39238e-07
6.36602e-07
5.66895e-07
5.27374e-07
3.882e-07
1.78607e-07
2.67393e-07
2.66289e-07
3.86749e-07
5.25315e-07
5.87291e-07
3.83714e-07
6.26601e-07
3.41916e-07
6.45359e-07
3.45116e-07
5.69735e-07
5.38915e-07
3.86812e-07
3.9158e-07
5.32262e-07
7.46408e-07
8.02108e-07
7.8392e-07
1.36703e-06
1.79628e-08
1.78642e-08
9.72946e-08
9.51223e-08
4.00442e-08
1.7624e-07
1.83044e-07
9.91077e-07
4.01025e-07
3.8882e-08
1.77333e-07
1.79239e-08
1.78037e-08
1.51442e-07
2.66562e-07
9.67442e-08
3.78552e-08
3.8033e-08
2.67596e-07
1.49376e-07
1.50771e-07
2.60866e-07
9.48113e-08
3.73874e-08
3.7196e-08
2.5818e-07
1.51389e-07
5.90515e-08
1.58074e-08
1.57366e-08
1.57e-08
1.563e-08
5.86198e-08
1.61237e-08
3.9959e-08
8.9535e-08
8.79955e-08
1.62406e-08
2.74729e-08
1.74421e-07
3.27336e-08
1.47161e-07
3.24851e-08
1.44714e-07
2.73939e-08
1.59386e-08
3.89549e-08
8.69378e-08
8.58249e-08
1.59447e-08
3.08222e-07
7.64285e-07
4.52208e-07
4.47516e-07
4.5814e-07
4.55602e-07
3.06641e-07
1.15783e-06
5.43634e-07
3.89635e-07
1.81767e-07
2.71963e-07
3.92035e-07
2.73166e-07
5.40011e-07
6.05663e-07
4.01843e-07
3.57305e-07
6.55046e-07
3.58482e-07
6.58226e-07
6.00715e-07
5.22312e-07
3.74424e-07
1.77497e-07
2.61611e-07
3.78366e-07
2.58187e-07
5.18159e-07
2.92476e-09
3.15956e-10
2.16533e-11
2.87653e-12
2.53012e-12
2.96097e-09
3.23948e-10
2.26595e-11
3.20476e-12
2.85792e-12
2.989e-09
3.25722e-10
2.27565e-11
3.20402e-12
2.85454e-12
2.90771e-09
3.14504e-10
2.15696e-11
2.8733e-12
2.52899e-12
2.95886e-09
3.241e-10
2.2669e-11
3.20486e-12
2.85791e-12
2.74591e-09
2.97208e-10
2.0625e-11
2.92004e-12
2.60644e-12
2.85177e-09
3.09938e-10
2.15088e-11
3.00711e-12
2.67637e-12
2.83587e-09
3.08611e-10
2.14409e-11
3.00807e-12
2.67926e-12
2.74089e-09
2.96846e-10
2.06056e-11
2.91773e-12
2.60399e-12
2.77148e-09
3.0033e-10
2.08295e-11
2.92646e-12
2.60743e-12
2.86041e-09
3.11334e-10
2.1614e-11
3.01038e-12
2.67663e-12
2.85685e-09
3.10742e-10
2.15693e-11
3.01166e-12
2.67966e-12
2.78364e-09
3.01056e-10
2.08566e-11
2.92509e-12
2.60518e-12
2.99555e-09
3.26096e-10
2.27734e-11
3.20504e-12
2.85507e-12
2.93626e-09
3.16776e-10
2.17189e-11
2.89944e-12
2.55339e-12
2.92342e-09
3.16003e-10
2.16788e-11
2.89787e-12
2.55295e-12
2.741e-09
2.97652e-10
2.09195e-11
3.11376e-12
2.80821e-12
2.73374e-09
2.97224e-10
2.09006e-11
3.11381e-12
2.80873e-12
2.88623e-09
3.15782e-10
2.21459e-11
3.19057e-12
2.85682e-12
2.90701e-09
3.17727e-10
2.22626e-11
3.19207e-12
2.85535e-12
2.85526e-09
3.08485e-10
2.11797e-11
2.86354e-12
2.52951e-12
2.84033e-09
3.07601e-10
2.1159e-11
2.86336e-12
2.52904e-12
2.88012e-09
3.15343e-10
2.2115e-11
3.18505e-12
2.85173e-12
2.89884e-09
3.1745e-10
2.22525e-11
3.1915e-12
2.85508e-12
2.92804e-09
3.19009e-10
2.23234e-11
3.18506e-12
2.84596e-12
2.83541e-09
3.0691e-10
2.10915e-11
2.85468e-12
2.52189e-12
2.83558e-09
3.07141e-10
2.11223e-11
2.86114e-12
2.52806e-12
2.68931e-09
2.9199e-10
2.05564e-11
3.10234e-12
2.80606e-12
2.68602e-09
2.9163e-10
2.05301e-11
3.10228e-12
2.80694e-12
2.94212e-09
3.20511e-10
2.24261e-11
3.19479e-12
2.85371e-12
2.9453e-09
3.20841e-10
2.24463e-11
3.19609e-12
2.85444e-12
2.90559e-09
3.13428e-10
2.1509e-11
2.89413e-12
2.55356e-12
2.89223e-09
3.12377e-10
2.14479e-11
2.88827e-12
2.54873e-12
2.89584e-09
3.12297e-10
2.14365e-11
2.8902e-12
2.55141e-12
2.87923e-09
3.11075e-10
2.1364e-11
2.88716e-12
2.5503e-12
2.67608e-09
2.9126e-10
2.05223e-11
3.10156e-12
2.80623e-12
2.68149e-09
2.91619e-10
2.05416e-11
3.10024e-12
2.80423e-12
2.7085e-09
2.93335e-10
2.03829e-11
2.90598e-12
2.59743e-12
2.82546e-09
3.06988e-10
2.13315e-11
3.00263e-12
2.67621e-12
2.79186e-09
3.04553e-10
2.12008e-11
2.99362e-12
2.66983e-12
2.714e-09
2.94112e-10
2.04376e-11
2.91367e-12
2.6044e-12
2.9403e-09
3.20106e-10
2.23883e-11
3.19483e-12
2.85504e-12
7.59025e-07
1.35893e-06
7.95656e-07
7.99325e-07
7.44363e-07
7.61658e-07
7.48794e-07
7.92743e-07
7.99353e-07
7.52046e-07
7.81547e-07
7.89666e-07
7.86507e-07
7.41463e-07
7.90381e-07
9.39938e-08
9.52572e-08
7.56748e-07
9.44233e-08
9.4923e-08
1.65411e-07
3.94942e-08
1.7243e-07
1.81873e-08
1.7835e-08
3.81134e-08
1.6686e-07
1.37724e-06
1.37039e-06
1.36182e-06
1.80072e-07
9.59662e-07
8.10776e-07
3.82187e-07
1.8016e-08
9.84706e-07
1.80791e-07
3.96977e-07
9.37069e-08
9.51691e-08
1.78015e-08
1.771e-08
1.78918e-08
1.79387e-08
7.43727e-07
9.47476e-08
9.54335e-08
9.41956e-08
9.59148e-08
1.78244e-08
1.77081e-08
1.79473e-08
1.78481e-08
1.80426e-08
1.75918e-08
9.60931e-08
9.29458e-08
1.66601e-07
3.9448e-08
3.84787e-08
1.72698e-07
3.86203e-07
1.81179e-07
9.91582e-07
9.70895e-07
3.96014e-07
3.85848e-07
1.81048e-07
9.95546e-07
8.01189e-07
1.77044e-07
9.70797e-07
3.98194e-07
9.69923e-08
9.66006e-08
7.59392e-07
9.50982e-08
1.81419e-08
1.7496e-07
9.55636e-07
3.82844e-07
3.93704e-08
1.67506e-07
9.59078e-07
1.80982e-07
3.84804e-07
3.91629e-08
1.67564e-07
9.59199e-07
1.76784e-07
3.84549e-07
3.85627e-08
1.68275e-07
9.49888e-08
9.65239e-08
1.79263e-08
9.77944e-07
1.81095e-07
4.00258e-07
3.91534e-08
1.73153e-07
3.92113e-08
1.71392e-07
1.7702e-08
1.78351e-08
5.7917e-08
1.57987e-08
1.57518e-08
1.57624e-08
1.57834e-08
5.87452e-08
1.49072e-07
2.64516e-07
3.68164e-08
9.43569e-08
3.69642e-08
1.50267e-07
2.65072e-07
1.51343e-07
2.66092e-07
3.66509e-08
9.53801e-08
3.69488e-08
1.50758e-07
2.66495e-07
5.77043e-08
1.58001e-08
1.57654e-08
1.56866e-08
1.57005e-08
5.83756e-08
1.47895e-07
3.69335e-08
9.40221e-08
2.62783e-07
3.69829e-08
1.51049e-07
2.60947e-07
1.50718e-07
3.66741e-08
9.52826e-08
2.65166e-07
3.69106e-08
1.4992e-07
2.66743e-07
2.65076e-08
3.04399e-08
1.38694e-07
1.66968e-07
3.12174e-08
1.40092e-07
2.61388e-08
1.60073e-08
3.96632e-08
8.86121e-08
8.66209e-08
1.61603e-08
1.57383e-08
3.9054e-08
8.60344e-08
2.71294e-08
1.69101e-07
3.18364e-08
1.44058e-07
3.17893e-08
1.42285e-07
2.72205e-08
1.81636e-08
1.79654e-08
1.5836e-08
3.81116e-08
8.53011e-08
8.44834e-08
1.58096e-08
2.66819e-08
1.65628e-07
1.39448e-07
3.1084e-08
1.3832e-07
3.11858e-08
2.66324e-08
1.79312e-08
1.48044e-07
2.61664e-07
3.68866e-08
9.43995e-08
1.49632e-07
2.63123e-07
3.67193e-08
1.51197e-07
2.65257e-07
3.66858e-08
9.53057e-08
1.51038e-07
2.6463e-07
3.6862e-08
5.86908e-08
1.57633e-08
1.57953e-08
5.97256e-08
1.58122e-08
1.58164e-08
1.77167e-08
1.77292e-08
1.79568e-08
1.79309e-08
5.82249e-08
1.57186e-08
1.581e-08
5.92591e-08
1.57545e-08
1.58269e-08
1.4923e-07
2.64756e-07
3.69928e-08
9.41802e-08
1.50046e-07
3.67184e-08
2.64285e-07
1.51017e-07
2.62284e-07
3.68398e-08
9.47399e-08
1.51841e-07
3.68529e-08
2.65525e-07
5.8238e-08
1.5804e-08
1.57455e-08
5.90019e-08
1.57371e-08
1.5783e-08
1.50268e-07
3.6999e-08
2.61783e-07
9.46955e-08
1.49826e-07
3.69533e-08
2.60573e-07
1.513e-07
3.67938e-08
2.65493e-07
9.61751e-08
1.49215e-07
3.70106e-08
2.66261e-07
1.77612e-08
1.77507e-08
1.78678e-08
1.79566e-08
1.80165e-08
1.79248e-08
1.76211e-08
1.4909e-07
2.68002e-07
9.68816e-08
3.74859e-08
3.76232e-08
2.68e-07
1.48981e-07
1.48888e-07
2.6241e-07
9.36428e-08
3.57613e-08
3.60429e-08
2.59572e-07
1.48647e-07
9.61981e-08
2.67342e-07
5.80894e-08
1.57774e-08
1.55837e-08
1.5853e-08
1.55585e-08
5.90321e-08
2.66204e-08
3.08338e-08
1.38255e-07
1.66065e-07
3.12259e-08
1.41476e-07
2.64107e-08
1.63205e-08
3.97123e-08
8.8911e-08
8.94612e-08
1.62283e-08
1.60491e-08
8.60917e-08
3.93004e-08
8.76267e-08
1.58855e-08
2.72197e-08
1.70593e-07
3.19105e-08
1.46056e-07
3.18146e-08
1.4554e-07
2.72978e-08
5.84654e-08
1.59454e-08
1.59503e-08
1.59951e-08
1.51739e-07
2.68161e-07
9.74109e-08
3.67145e-08
3.70187e-08
2.68845e-07
1.49994e-07
1.50482e-07
2.66885e-07
9.71409e-08
3.74075e-08
2.67576e-07
3.77157e-08
1.51081e-07
1.50749e-07
3.66553e-08
9.55617e-08
2.65467e-07
3.72004e-08
2.65335e-07
1.51047e-07
1.5053e-07
9.68925e-08
2.65919e-07
3.75765e-08
5.86467e-08
1.5924e-08
1.59537e-08
1.58667e-08
1.59983e-08
5.9665e-08
1.82392e-08
1.81495e-08
1.62382e-08
3.97176e-08
8.80088e-08
8.72838e-08
1.62154e-08
2.70934e-08
1.65213e-07
3.15426e-08
1.40289e-07
3.16464e-08
1.42422e-07
2.71113e-08
2.69002e-08
1.68153e-07
1.41547e-07
3.15844e-08
1.62466e-08
3.93477e-08
8.76896e-08
8.7314e-08
1.62537e-08
1.62145e-08
3.90844e-08
8.78921e-08
2.70753e-08
1.6858e-07
1.4179e-07
3.16123e-08
1.40506e-07
3.16445e-08
2.71408e-08
2.66949e-08
1.66663e-07
3.14355e-08
1.40147e-07
1.6013e-08
3.84585e-08
8.65336e-08
8.60121e-08
1.60218e-08
1.59789e-08
3.86745e-08
8.67186e-08
2.67988e-08
1.6861e-07
3.15246e-08
1.38926e-07
3.15592e-08
1.38706e-07
2.68574e-08
1.50461e-07
2.65028e-07
9.56811e-08
3.6724e-08
3.69057e-08
2.65597e-07
1.50449e-07
1.50908e-07
2.63985e-07
9.56678e-08
3.72939e-08
2.65436e-07
3.75455e-08
1.51573e-07
5.89697e-08
1.58954e-08
1.59656e-08
1.59237e-08
1.59684e-08
5.99046e-08
1.8017e-08
1.62259e-08
3.93121e-08
8.88747e-08
8.85038e-08
1.62154e-08
2.73819e-08
1.73912e-07
1.45108e-07
3.20456e-08
1.45501e-07
3.2294e-08
2.7431e-08
1.61132e-08
3.92003e-08
8.76388e-08
8.81587e-08
1.60256e-08
2.70672e-08
1.73618e-07
1.42895e-07
3.20257e-08
1.43949e-07
3.2213e-08
2.70066e-08
1.76619e-08
1.77776e-08
1.78876e-08
3.04307e-07
4.55082e-07
4.5836e-07
7.47549e-07
3.04614e-07
4.43784e-07
4.53585e-07
1.16719e-06
1.18601e-06
9.38114e-07
3.09506e-07
4.51257e-07
4.5256e-07
7.45518e-07
3.05721e-07
4.47098e-07
4.56436e-07
3.03942e-07
7.66756e-07
4.51548e-07
4.57093e-07
3.07729e-07
4.57005e-07
4.5982e-07
3.02425e-07
4.49952e-07
4.48362e-07
7.36032e-07
4.50973e-07
4.45903e-07
3.06912e-07
3.08633e-07
4.58516e-07
4.53113e-07
7.46589e-07
4.47337e-07
4.48636e-07
3.09909e-07
3.06884e-07
4.49348e-07
4.58165e-07
7.5002e-07
4.56162e-07
4.46332e-07
3.06847e-07
3.04016e-07
7.64791e-07
4.47784e-07
4.50956e-07
3.08533e-07
4.5468e-07
4.59964e-07
1.17387e-06
1.18924e-06
9.44145e-07
1.19144e-06
1.174e-06
9.44024e-07
1.19377e-06
1.1723e-06
9.46367e-07
5.23095e-07
3.85836e-07
1.80799e-07
2.66787e-07
3.85781e-07
2.66969e-07
5.29813e-07
5.29725e-07
1.78281e-07
3.86869e-07
2.62317e-07
5.76806e-07
3.81109e-07
3.42273e-07
6.28824e-07
3.4484e-07
6.25479e-07
5.76431e-07
5.35792e-07
3.89556e-07
1.81735e-07
2.71063e-07
3.89436e-07
2.69646e-07
5.38462e-07
5.97515e-07
3.91281e-07
6.46431e-07
3.55829e-07
6.48931e-07
3.52609e-07
5.95198e-07
3.08908e-07
7.45113e-07
4.47377e-07
4.56498e-07
3.09268e-07
4.49859e-07
4.55398e-07
5.97417e-07
3.40719e-07
6.4361e-07
3.87945e-07
3.51814e-07
6.44916e-07
5.92745e-07
5.39148e-07
3.90392e-07
1.81336e-07
2.70538e-07
2.71338e-07
3.92671e-07
5.37716e-07
5.36054e-07
1.79968e-07
2.66679e-07
3.91801e-07
5.93532e-07
3.96765e-07
3.57998e-07
6.49429e-07
3.54788e-07
6.47064e-07
5.96327e-07
5.93317e-07
3.46278e-07
6.41392e-07
3.95451e-07
3.49142e-07
6.51403e-07
5.93784e-07
5.38096e-07
3.90193e-07
1.79402e-07
2.73792e-07
2.72059e-07
3.92177e-07
5.37736e-07
5.39783e-07
2.63025e-07
1.76533e-07
3.82043e-07
2.6775e-07
5.34341e-07
3.89261e-07
5.96386e-07
4.00155e-07
3.57032e-07
6.54952e-07
3.58175e-07
6.49246e-07
5.95241e-07
3.103e-07
7.63398e-07
4.50212e-07
4.55594e-07
4.59682e-07
4.56224e-07
3.09765e-07
5.19076e-07
3.75759e-07
1.76349e-07
2.63462e-07
2.63699e-07
3.72888e-07
5.21066e-07
5.72836e-07
3.77986e-07
3.42147e-07
6.28808e-07
3.42308e-07
6.25138e-07
5.69898e-07
5.21146e-07
3.84922e-07
1.81566e-07
2.67967e-07
2.6809e-07
3.8013e-07
5.24631e-07
5.78714e-07
3.79079e-07
6.27566e-07
3.44771e-07
6.29427e-07
3.44176e-07
5.81812e-07
5.22588e-07
3.82315e-07
1.78376e-07
2.62962e-07
3.75362e-07
2.60234e-07
5.24721e-07
5.7219e-07
3.80665e-07
6.3349e-07
3.44396e-07
6.25467e-07
3.43512e-07
5.79609e-07
5.34642e-07
3.80164e-07
1.79485e-07
2.70222e-07
3.8342e-07
2.6734e-07
5.30102e-07
5.93421e-07
4.00252e-07
6.53365e-07
3.5287e-07
6.44441e-07
3.4884e-07
5.96214e-07
1.35153e-06
7.89092e-07
8.09594e-07
7.67528e-07
1.34347e-06
7.88477e-07
8.0329e-07
7.65574e-07
1.35451e-06
7.97776e-07
8.05796e-07
7.68325e-07
1.3514e-06
7.87076e-07
8.0473e-07
7.58762e-07
1.34277e-06
7.96059e-07
8.0565e-07
7.62851e-07
1.33912e-06
7.91015e-07
7.97713e-07
7.56339e-07
1.35427e-06
7.90512e-07
8.01251e-07
7.62136e-07
1.35338e-06
7.89777e-07
8.01959e-07
7.65042e-07
1.35324e-06
8.00016e-07
8.05971e-07
7.66194e-07
1.36363e-06
7.96943e-07
8.07944e-07
7.62252e-07
1.36209e-06
7.98858e-07
8.06007e-07
7.65461e-07
1.3629e-06
7.94473e-07
7.97185e-07
7.6609e-07
1.3647e-06
7.93097e-07
8.00704e-07
7.61828e-07
1.36483e-06
7.89153e-07
8.00034e-07
7.61239e-07
1.36328e-06
7.88819e-07
8.00058e-07
7.58386e-07
1.36262e-06
7.95897e-07
7.9794e-07
7.38307e-07
8.05004e-07
8.10119e-07
7.50645e-07
7.89164e-07
7.99937e-07
7.96632e-07
7.96788e-07
7.48626e-07
8.01529e-07
8.05224e-07
7.46735e-07
7.65539e-07
7.46768e-07
7.97318e-07
8.097e-07
7.90952e-07
8.10715e-07
7.682e-07
7.52792e-07
7.90051e-07
7.98309e-07
7.83002e-07
7.98161e-07
7.93978e-07
7.91507e-07
7.87926e-07
7.65389e-07
7.4545e-07
7.95817e-07
8.07026e-07
8.0314e-07
7.46805e-07
7.6734e-07
7.4705e-07
8.0018e-07
8.11208e-07
8.01922e-07
8.12298e-07
7.7087e-07
7.52444e-07
7.92598e-07
7.96609e-07
7.93602e-07
7.88342e-07
7.86034e-07
7.95636e-07
7.96594e-07
7.73543e-07
7.52087e-07
7.97376e-07
7.99082e-07
8.02941e-07
7.40349e-07
7.68906e-07
7.3697e-07
8.01791e-07
8.04691e-07
8.00586e-07
8.13637e-07
7.65567e-07
7.40208e-07
7.95046e-07
7.95375e-07
7.88556e-07
7.9578e-07
7.91734e-07
7.93384e-07
7.87494e-07
7.7275e-07
7.53905e-07
8.01241e-07
8.06195e-07
7.93631e-07
7.4675e-07
7.62005e-07
7.46266e-07
8.01794e-07
8.10524e-07
7.89101e-07
8.05684e-07
7.67211e-07
7.47556e-07
7.88257e-07
7.9026e-07
7.90153e-07
7.95935e-07
7.85531e-07
7.95985e-07
7.899e-07
7.66205e-07
7.49659e-07
8.0297e-07
8.0727e-07
7.95956e-07
7.46107e-07
7.67317e-07
7.39939e-07
7.97476e-07
8.07829e-07
8.00124e-07
8.02053e-07
7.6881e-07
7.52333e-07
7.9201e-07
7.99415e-07
7.93511e-07
7.99948e-07
7.86342e-07
7.89963e-07
7.84264e-07
7.64165e-07
7.48537e-07
7.96464e-07
8.0541e-07
8.05482e-07
7.38435e-07
7.56659e-07
7.46805e-07
7.99276e-07
7.99486e-07
7.97247e-07
8.10263e-07
7.65648e-07
7.49306e-07
7.94391e-07
7.99253e-07
7.86805e-07
7.95479e-07
7.89969e-07
8.00733e-07
7.83424e-07
7.65194e-07
7.53603e-07
7.98645e-07
8.07569e-07
8.02223e-07
7.37266e-07
7.6753e-07
7.45349e-07
7.99861e-07
8.06607e-07
8.02384e-07
8.10462e-07
7.71211e-07
7.54395e-07
7.94523e-07
8.03105e-07
7.88875e-07
7.98975e-07
7.91769e-07
7.97851e-07
7.93115e-07
7.62891e-07
7.50902e-07
7.98064e-07
8.05412e-07
8.02217e-07
7.47953e-07
7.65736e-07
7.46024e-07
8.00608e-07
8.07562e-07
8.00976e-07
8.06741e-07
7.73497e-07
7.50197e-07
7.80327e-07
8.00588e-07
7.84599e-07
7.96653e-07
7.92891e-07
7.93282e-07
7.92154e-07
7.65784e-07
7.47443e-07
8.02531e-07
8.05707e-07
8.04139e-07
7.4795e-07
7.57062e-07
7.38877e-07
7.9978e-07
7.9977e-07
8.05233e-07
8.06398e-07
7.7194e-07
7.54059e-07
7.93081e-07
7.98498e-07
7.92088e-07
8.03382e-07
7.93501e-07
7.95862e-07
7.9603e-07
7.6341e-07
7.44714e-07
8.0456e-07
8.08036e-07
7.99549e-07
7.37753e-07
7.65872e-07
7.49384e-07
7.9493e-07
8.04257e-07
7.94152e-07
7.98654e-07
7.71445e-07
7.51836e-07
7.90632e-07
8.02369e-07
7.86613e-07
8.02754e-07
7.93827e-07
7.93638e-07
7.95767e-07
7.7245e-07
7.51858e-07
7.9783e-07
7.99895e-07
8.0207e-07
7.46965e-07
7.6218e-07
7.41827e-07
8.00624e-07
8.07408e-07
8.0177e-07
8.05234e-07
7.68771e-07
7.48415e-07
7.94151e-07
8.0074e-07
7.97546e-07
8.00124e-07
7.91034e-07
8.01434e-07
7.947e-07
7.7142e-07
7.51091e-07
8.02787e-07
8.05951e-07
8.05936e-07
7.48901e-07
7.58426e-07
7.48e-07
8.0886e-07
8.00308e-07
8.11527e-07
8.08109e-07
7.65613e-07
7.49193e-07
7.86201e-07
7.97493e-07
7.92479e-07
8.03e-07
7.80972e-07
7.87496e-07
7.84327e-07
7.6698e-07
7.50289e-07
8.04694e-07
8.09687e-07
8.02962e-07
7.46437e-07
7.66053e-07
7.5005e-07
8.02472e-07
8.07523e-07
8.10134e-07
8.00234e-07
7.61573e-07
7.47415e-07
7.8157e-07
7.93396e-07
7.96778e-07
7.99931e-07
7.83685e-07
8.00764e-07
7.97686e-07
7.64657e-07
7.43703e-07
7.95774e-07
8.05107e-07
8.04364e-07
7.46524e-07
7.6447e-07
7.3809e-07
8.0539e-07
8.04776e-07
8.017e-07
8.08052e-07
7.70458e-07
7.5358e-07
7.89776e-07
7.9427e-07
7.97322e-07
8.06225e-07
7.84818e-07
7.92721e-07
7.99784e-07
7.63006e-07
7.45768e-07
7.94135e-07
8.07036e-07
8.04208e-07
7.5139e-07
7.60837e-07
7.51677e-07
7.98537e-07
7.97217e-07
8.05442e-07
8.05801e-07
7.62153e-07
7.57267e-07
7.91167e-07
7.95001e-07
7.99371e-07
8.09382e-07
7.81241e-07
8.05675e-07
7.96153e-07
7.61586e-07