/*--------------------------------*- C++ -*----------------------------------*\
| =========                 |                                                 |
| \\      /  F ield         | OpenFOAM: The Open Source CFD Toolbox           |
|  \\    /   O peration     | Version:  2206                                  |
|   \\  /    A nd           | Website:  www.openfoam.com                      |
|    \\/     M anipulation  |                                                 |
\*---------------------------------------------------------------------------*/
FoamFile
{
    version     2.0;
    format      ascii;
    arch        "LSB;label=32;scalar=64";
    class       volScalarField;
    location    "70";
    object      omega;
}
// * * * * * * * * * * * * * * * * * * * * * * * * * * * * * * * * * * * * * //

dimensions      [0 0 -1 0 0 0 0];

internalField   nonuniform List<scalar> 
67442
(
17.6962
22.672
22.553
24.8553
25.1597
22.6717
22.429
24.7537
22.9893
22.9164
22.7668
24.9877
22.4476
294.3
115.502
410.438
297.078
120.224
17.6317
17.6447
17.6815
105.944
19.8279
43.0331
411.015
19.6077
100.845
42.3465
176.999
171.026
409.419
411.267
177.588
180.875
293.508
110.576
105.906
19.6642
43.1799
97.4222
19.6656
41.8819
171.155
176.435
411.88
108.965
19.9527
45.5666
296.539
119.828
19.923
108.442
45.5339
295.549
113.095
19.8502
100.315
44.2275
294.16
112.246
179.929
174.581
410.233
19.6089
101.783
41.7521
293.051
111.437
291.616
107.334
412.439
411.069
426.209
290.638
188.164
185.445
426.527
328.728
112.457
305.57
132.439
303.004
124.081
328.167
409.729
333.176
119.145
136.902
309.378
428.549
293.837
192.381
186.263
429.194
430.438
297.01
192.489
332.672
116.494
137.8
309.544
133.983
308.474
332.601
410.948
411.802
129.234
63.6929
175.999
304.386
68.7934
306.34
126.561
128.838
65.9066
177.888
305.247
67.6353
306.066
126.974
232.019
415.263
415.268
415.115
415.043
230.516
410.041
411.402
411.949
131.559
68.7462
170.442
305.5
302.572
63.6344
124.891
132.026
69.9302
178.112
307.501
306.272
64.6975
125.323
234.438
413.122
414.186
413.513
414.573
229.96
428.111
292.714
185.329
187.581
428.66
329.021
113.426
303.632
124.889
305.916
133.376
328.78
127.585
63.6409
178.024
305.984
305.205
68.8856
125.17
129.245
67.842
178.553
306.331
66.8046
305.402
126.911
232.423
415.383
415.398
413.963
414.414
231.17
412.113
333.108
119
309.382
136.601
428.361
294.531
191.736
184.757
429.067
429.805
294.776
191.306
332.603
116.317
309.493
137.35
308.48
133.63
332.497
430.444
296.437
188.159
190.396
430.926
332.152
110.583
130.855
307.897
127.896
309.655
332.248
430.026
296.698
189.35
187.837
430.962
332.477
120.063
309.599
134.789
308.96
133.105
332.543
130.279
69.5284
173.402
306.883
304.317
64.2727
127.948
131.022
68.5595
173.114
304.414
63.3459
303.879
124.282
234.117
413.959
414.923
414.33
413.302
230.076
410.628
426.842
293.882
185.896
184.398
429.097
328.975
113.991
129.275
305.749
128.872
305.126
328.916
427.992
294.553
181.216
188.091
429.08
329.063
115.462
124.464
305.229
133.131
306.054
328.846
411.653
409.782
16.6138
16.6618
16.0448
59.4231
34.9843
34.6135
24.929
34.2873
33.9919
55.6502
61.3875
36.2821
36.727
24.6404
35.1124
34.8113
57.2992
60.4294
35.5311
34.5573
24.6715
36.5513
36.0654
59.411
61.0764
36.5347
36.1717
24.2351
34.141
35.811
60.1681
16.6017
16.6677
16.0463
16.5854
16.5365
16.0014
16.6654
16.6084
16.089
32.4788
44.1448
104.393
65.4473
45.1858
63.9098
31.9643
27.9208
42.1491
49.2988
25.6429
50.6265
25.4316
27.5852
32.1167
44.5805
97.9203
63.4791
43.7608
61.6479
31.2782
27.2401
41.5265
24.7743
46.1493
25.4817
49.6259
26.9031
32.0269
44.2397
98.6962
66.3194
61.4399
42.5029
30.9609
27.4989
42.2831
48.663
25.494
45.4222
25.2738
26.8268
31.4722
42.6481
104.864
64.2508
65.8048
43.6694
31.0065
27.1137
41.3746
47.7163
25.269
48.8614
25.0975
26.8418
33.214
45.6556
101.633
70.0222
68.3123
42.8839
32.8167
28.3201
43.6978
52.0332
26.4157
48.6343
25.5715
28.0667
32.7451
45.0969
100.953
69.0273
67.3829
42.2544
32.3045
28.1986
42.905
26.3837
51.5411
25.6244
48.2723
27.9402
32.8558
43.8385
107.807
65.4457
44.9653
63.7938
31.6892
27.9992
43.8447
26.013
47.5942
25.9474
51.3702
27.5863
31.771
42.9403
104.542
64.1729
43.9172
63.0976
31.3728
27.0711
42.7072
24.71
46.6458
25.4987
45.5212
26.843
748.174
1615.79
4421.26
16477.6
116782
730.253
1596.95
4389.28
16427.1
116912
747.789
1615.82
4421.41
16479.5
116802
728.083
1596.2
4388.75
16424.7
116892
728.715
1596.26
4388.67
16423.2
116862
728.575
1596.35
4389.08
16427
116912
749.561
1616.38
4421.5
16479.6
116803
730.009
1596.76
4388.58
16423.4
116872
747.832
1615.74
4421.36
16479.5
116814
749.199
1616.21
4420.97
16476.8
116781
748.92
1616.19
4421.05
16476.4
116772
730.1
1596.79
4388.72
16424.2
116881
749.33
1616.28
4421.31
16478.5
116795
749.46
1616.31
4421.29
16478.4
116802
730.033
1596.83
4388.84
16424.8
116892
730.149
1596.86
4389.15
16426.6
116912
725.025
1595.04
4387.27
16418.8
116835
747.838
1615.38
4420.86
16477.3
116782
729.512
1596.17
4388.91
16426.8
116912
735.945
1606.04
4405.47
16447
116752
734.531
1600.74
4394.71
16425.2
116727
724.7
1595.05
4387.38
16419.5
116840
747.879
1615.48
4421.07
16479.2
116802
748.257
1615.68
4421.35
16479.5
116802
728.766
1595.97
4388.51
16424.6
116892
728.023
1596.1
4388.7
16424.7
116892
747.962
1615.27
4419.36
16475.2
116795
747.14
1614.55
4419
16474.9
116795
748.12
1615.3
4419.44
16475.1
116795
747.26
1614.54
4418.99
16474.9
116795
728.935
1600.4
4396.65
16441.4
116918
729.077
1600.4
4396.57
16441.7
116921
728.082
1599.55
4396.27
16441.2
116918
728.25
1599.59
4396.24
16441.5
116921
728.94
1595.95
4388.37
16423
116862
728.986
1596.05
4388.84
16426.8
116912
728.093
1596.14
4389.02
16427
116912
748.509
1615.59
4421.06
16479.3
116803
748.299
1615.34
4419.29
16474.1
116789
747.196
1614.53
4418.86
16473.8
116789
728.83
1600.41
4396.55
16441.5
116919
727.956
1599.56
4396.18
16441.3
116919
729.28
1595.99
4388.26
16423.2
116872
735.689
1606.07
4405.45
16446.3
116747
734.649
1600.76
4394.67
16425
116725
724.655
1595.05
4387.43
16419.6
116852
747.472
1615.32
4421.01
16479.3
116814
747.396
1615.62
4421.3
16479.5
116814
748.14
1615.42
4420.55
16476.5
116781
725.755
1595.3
4387.29
16418.4
116831
748.081
1615.46
4420.67
16476.2
116772
748.188
1615.3
4419.13
16472.4
116759
747.25
1614.52
4418.67
16472.1
116759
728.794
1600.42
4396.71
16441.3
116904
729.521
1596.04
4388.37
16424
116881
726.014
1595.33
4387.33
16418.7
116836
748.744
1615.44
4420.8
16478.1
116795
726.008
1595.28
4387.18
16418.6
116840
748.536
1615.51
4420.8
16478.1
116802
728.884
1596.08
4388.51
16424.6
116892
729.567
1596.12
4388.81
16426.4
116912
726.273
1595.32
4387.2
16419.2
116838
725.859
1595.31
4387.25
16418.7
116840
735.619
1605.88
4405.47
16447.2
116768
735.185
1600.95
4395.03
16426.3
116747
735.572
1600.69
4394.7
16426
116747
736.059
1606.21
4405.75
16447.5
116768
725.799
1595.45
4387.62
16419.1
116835
748.361
1615.28
4419.16
16473.3
116776
747.315
1614.53
4418.78
16473
116776
728.98
1600.36
4396.22
16439.1
116887
728.115
1599.52
4395.86
16438.9
116887
725.606
1595.45
4387.66
16419.7
116840
735.162
1605.8
4405.28
16446.8
116752
734.756
1600.74
4394.73
16425.2
116727
734.463
1600.51
4394.48
16425
116727
735.409
1606.06
4405.47
16447
116752
725.673
1595.39
4387.6
16419.7
116840
746.844
1614.76
4419.15
16473.5
116778
746.485
1614.37
4418.82
16473.2
116778
726.875
1599.82
4396.72
16442
116918
727.222
1599.57
4396.43
16441.8
116918
747.002
1614.72
4419.14
16473.5
116776
746.656
1614.33
4418.77
16473.2
116776
726.803
1599.78
4396.67
16442.3
116933
727.562
1599.5
4396.37
16442
116933
746.807
1614.84
4419.3
16474.7
116795
746.899
1614.51
4418.97
16474.4
116795
726.853
1599.61
4396.42
16441.1
116921
727.561
1599.38
4396.16
16440.9
116921
736.563
1606.1
4405.25
16446.7
116751
736.875
1601.49
4394.86
16425.2
116727
736.242
1600.68
4394.46
16425
116727
738.045
1606.78
4405.57
16446.9
116751
727.675
1596.04
4387.59
16419.5
116838
735.147
1605.79
4405.25
16446.1
116747
734.964
1600.74
4394.68
16425
116725
734.423
1600.48
4394.44
16424.8
116725
735.468
1606.07
4405.46
16446.3
116747
725.597
1595.45
4387.7
16419.9
116852
725.593
1595.39
4387.66
16419.9
116852
727.319
1596.01
4387.55
16418.9
116840
736.069
1606.13
4405.61
16448.1
116774
736.356
1601.42
4395.04
16425.6
116749
735.666
1600.66
4394.75
16425.4
116749
737.628
1606.78
4405.86
16448.3
116774
736.089
1606.11
4405.64
16448.2
116769
736.471
1601.42
4395.06
16426.2
116747
735.724
1600.64
4394.74
16426
116747
737.631
1606.75
4405.85
16448.4
116769
727.345
1596.02
4387.62
16418.7
116831
727.998
1599.58
4396.36
16441.1
116904
727.182
1596.02
4387.69
16419
116836
736.628
1606.14
4405.46
16446.8
116758
736.966
1601.5
4394.97
16425
116725
736.14
1600.71
4394.63
16425.4
116736
738.121
1606.82
4405.75
16446.4
116747
727.37
1595.99
4387.55
16418.9
116840
736.573
1606.1
4405.27
16446.8
116752
736.938
1601.49
4394.86
16425.2
116727
735.878
1600.66
4394.46
16425
116727
738.059
1606.79
4405.61
16447.1
116752
22.7138
24.8126
22.3395
17.638
117.908
19.8769
44.8902
295.32
117.572
19.8487
106.339
43.2097
410.707
178.047
332.032
111.079
135.48
308.764
128.566
307.174
332.418
430.572
293.111
185.643
186.574
428.836
331.75
110.83
308.763
134.938
307.245
128.054
332.258
412.562
122.981
68.2116
172.586
305.915
63.9949
304.23
121.842
118.562
67.2548
62.9604
127.359
231.785
414.277
415.552
230.882
58.8596
24.2786
34.9197
35.7689
35.2099
34.1499
59.8855
16.6734
16.0907
16.6038
16.5547
16.1722
27.5898
42.4549
49.3368
26.2912
50.1976
25.6249
27.3588
31.5174
44.5279
100.137
64.6319
65.5931
42.1402
31.1706
27.4041
43.603
25.7337
48.6597
25.8528
49.3857
27.1801
31.2939
42.291
42.854
31.1995
24.9674
22.4791
22.7824
17.6657
409.262
410.981
175.457
174.62
293.154
108.498
103.949
19.6007
40.7109
294.218
106.881
411.013
412.802
119.467
67.437
169.653
304.666
302.801
62.9988
128.033
120.125
68.5649
175.483
305.137
305.999
64.191
128.402
231.799
413.501
414.435
414.903
415.86
231.094
427.545
290.959
182.06
183.094
426.259
327.702
109.825
304.696
129.974
303.239
123.407
328.467
430.794
294.71
186.342
187.415
429.042
59.0154
24.374
35.8635
36.3347
34.2191
34.6519
58.4625
16.6363
30.1529
43.6265
98.151
65.0516
41.3623
61.2829
31.5467
26.2963
41.1919
47.8689
24.8443
45.2187
24.9838
27.1828
32.4535
43.4229
101.122
65.7781
43.911
66.8699
32.6569
747.688
1615.55
4421.07
16479.3
116814
728.788
1596.22
4388.57
16424.6
116892
727.071
1596.01
4387.76
16419.8
116852
749.156
1616.26
4421.4
16479.5
116814
730.172
1596.83
4388.82
16424.7
116892
737.356
1606.65
4405.55
16447
116752
734.851
1600.69
4394.56
16425
116727
736.354
1601.33
4394.79
16425.2
116727
736.527
1605.98
4405.26
16446.8
116752
737.28
1606.62
4405.51
16446.3
116747
734.893
1600.68
4394.51
16424.8
116725
736.373
1601.3
4394.71
16424.9
116725
736.432
1605.95
4405.22
16446.1
116747
725.982
1595.22
4387.39
16419.6
116852
746.754
1614.61
4418.89
16473.2
116778
748.171
1615.25
4419.15
16473.4
116778
727.682
1599.85
4396.51
16441.8
116918
729.02
1600.51
4396.85
16442.1
116918
728.81
1596.13
4388.43
16423
116862
728.664
1596.23
4388.89
16426.8
116912
748.131
1615.6
4420.91
16477.3
116782
747.636
1615.56
4421.1
16479.2
116802
730.359
1596.8
4388.72
16423.2
116862
730.167
1596.88
4389.15
16427
116912
727.332
1596.02
4387.69
16419.1
116835
749.525
1616.31
4421.31
16477.6
116782
749.243
1616.27
4421.41
16479.5
116802
727.549
1599.8
4396.46
16442
116933
727.732
1599.67
4396.26
16440.9
116921
727.134
1596.01
4387.72
16419.7
116840
726.01
1595.21
4387.32
16419.5
116840
746.871
1614.51
4418.82
16473.2
116776
748.132
1615.23
4419.2
16473.5
116776
746.699
1614.61
4419.01
16474.4
116795
748.288
1615.31
4419.32
16474.6
116795
729.069
1600.45
4396.56
16441.1
116921
728.456
1600.39
4396.72
16442.2
116933
737.773
1606.77
4405.82
16447.5
116768
735.507
1600.84
4394.76
16426
116747
736.967
1601.52
4395.08
16426.2
116747
736.936
1606.07
4405.44
16447.2
116768
726.306
1595.2
4387.23
16418.7
116835
25.596
17.7188
23.2878
23.0484
25.4959
25.3102
25.7045
23.1387
23.1023
25.4352
23.5755
23.4975
23.5263
25.6807
22.9527
185.056
182.553
25.4209
184.204
181.895
122.29
296.493
120.069
410.431
411.529
299.06
124.976
17.6509
17.6964
17.6515
114.237
20.1334
22.739
47.8506
411.867
19.8501
110.486
45.6143
184.665
183.13
411.47
412.033
409.951
410.233
24.9382
183.394
182.562
179.562
175.336
411.245
412.548
410.036
410.801
410.896
412.037
181.554
184.986
120.905
296.924
297.947
119.137
46.7315
110.806
19.6181
19.7245
44.9901
46.3328
110.115
19.6409
22.9564
111.053
19.7889
45.1628
182.177
184.034
25.4274
182.898
412.278
114.455
20.1769
47.455
298.321
124.046
20.1093
112.922
47.2419
299.082
123.623
20.1449
113.647
48.1588
298.918
125.04
184.356
182.847
411.055
19.8744
110.344
44.9595
296.963
120.054
296.38
120.046
412.123
411.397
235.695
413.785
413.654
414.219
413.882
231.554
133.193
73.6324
308.447
177.883
307.062
131.248
69.5561
132.964
71.746
308.215
177.818
306.649
126.331
67.9249
234.901
414.162
414.179
414.493
415.151
234.944
126.441
307.921
183.226
72.6801
307.514
123.24
68.5065
130.34
308.282
176.69
71.7791
306.897
127.195
67.3085
331.941
309.474
139.725
120.007
307.899
137.685
331.869
428.229
295.075
192.455
189.228
427.955
428.841
296.309
191.115
329.874
112.793
308.003
138.087
307.219
129.865
330.144
411.088
411.208
429.469
297.801
196.336
192.352
429.791
333.161
118.456
143.046
311.388
136.316
310.534
332.958
412.323
133.614
72.862
308.336
180.203
127.499
67.9191
307.593
131.578
72.0615
308.324
178.723
129.724
68.6357
306.965
234.949
414.832
414.901
231.207
414.352
414.279
412.678
412.601
410.483
410.5
235.958
414.539
414.532
231.759
415.113
414.206
135.338
71.9905
307.699
183.335
130.843
307.787
71.8198
133.451
71.4631
307.916
178.354
124.041
307.829
67.395
234.224
413.686
414.02
232.603
414.655
414.437
129.593
306.309
66.5846
178.459
132.138
307.258
71.2064
132.639
307.199
69.7541
180.697
126.404
306.508
68.5313
411.412
411.471
410.089
410.453
411.111
410.776
412.415
133.002
72.1132
178.166
307.427
306.166
70.4781
131.323
132.748
73.1607
180.582
309.641
308.857
68.3034
130.945
179.894
70.6935
235.323
414.445
415.664
413.784
414.578
232.359
332.388
309.402
140.447
118.22
308.088
138.471
332.035
427.947
294.568
192.366
185.311
428.11
429.716
193.778
295.175
192.646
428.826
330.401
114.433
307.899
138.402
307.49
131.821
330.058
236.835
412.782
413.697
414.689
132.989
72.4225
175.012
308.257
307.21
65.5607
126.329
133.741
72.7682
180.805
308.556
69.7389
307.53
131.891
130.703
308.07
181.48
72.1352
306.7
70.849
131.202
126.867
181.957
71.0323
308.031
236.44
414.242
415.101
415.288
414.606
232.857
411.559
411.833
429.373
297.028
196.083
193.26
429.505
333.14
118.221
311.271
141.975
309.65
135.933
332.622
333.713
121.541
140.871
310.72
429.523
297.763
196.549
192.934
429.831
430.274
297.897
193.742
333.513
119.846
142.622
311.162
140.365
310.746
333.37
333.644
123.522
310.815
139.971
429.437
297.299
196.179
192.585
429.66
430.286
297.697
193.458
333.337
123.149
311.501
142.271
310.867
138.126
333.25
132.72
73.2765
179.997
308.704
307.859
68.8943
131.01
132.845
71.8117
179.855
307.521
68.5824
306.298
126.211
235.409
415.049
414.216
414.472
414.102
232.208
409.947
427.139
294.796
192.689
187.522
427.471
329.887
116.81
138.077
307.85
133.13
307.033
329.542
427.224
294.888
192.201
189.6
427.456
329.892
113.424
138.448
307.798
133.582
306.159
329.316
412.76
411.191
410.104
62.3582
37.8922
37.4132
24.6108
58.9403
35.1833
36.0365
16.562
16.6113
15.9228
61.5445
37.7062
37.3556
24.7688
60.6095
36.096
36.0424
62.8512
25.279
36.2002
37.1463
57.7862
36.8003
35.5372
62.6437
37.6975
37.9837
24.9796
36.4745
36.1393
59.4318
62.5159
37.5133
37.5478
24.6186
35.3393
36.1397
61.5992
61.9171
37.9792
37.5099
24.9593
35.5517
35.7838
61.0772
60.2328
25.222
37.5568
37.3474
59.1374
37.1055
35.5882
16.5218
16.5527
15.851
16.5588
16.5426
15.8461
16.5069
16.4865
15.8067
33.7326
47.0669
109.655
72.3798
45.6168
69.2272
32.3728
32.3011
110.901
46.3525
70.1364
28.7235
45.2445
54.0171
26.7803
51.7256
26.0696
27.828
32.7219
46.3206
106.551
70.1097
45.0211
65.5565
31.5059
27.7523
43.4918
26.0309
51.7273
25.5427
50.0094
27.5181
62.3839
24.7648
35.6672
36.6015
58.9708
35.5101
36.0996
28.1012
52.8978
26.5635
43.5599
49.5827
26.1831
27.3973
32.2689
46.0104
106.935
69.6676
67.3513
44.6505
32.0889
32.1911
109.137
69.4373
45.6529
27.547
43.4562
51.5533
26.1423
49.7368
25.3677
27.4742
28.277
52.1563
26.6599
45.2882
50.0483
25.7936
27.6447
32.6105
46.0766
105.63
69.5788
68.3474
43.0213
32.2874
31.9387
70.7455
103.814
46.9755
68.9732
32.4604
46.0959
27.8054
42.3384
51.3469
26.1182
50.5032
25.9286
27.7371
60.1656
25.2613
37.5298
37.4839
37.3198
35.7702
61.2332
33.914
47.7747
108.625
72.697
67.7777
45.4057
32.6353
28.7806
44.7999
54.4416
26.893
51.9441
26.0625
28.5437
33.6846
47.3415
107.331
72.1682
69.6877
45.2491
32.3575
28.5951
44.5374
27.0105
53.7166
26.0952
50.5935
28.2965
33.728
46.9996
106.769
71.3576
44.6076
67.1359
32.5171
28.746
44.9219
27.0159
54.4102
26.4062
50.8242
27.7984
32.5313
46.4162
105.758
69.8134
44.3724
65.6489
32.2505
27.7114
42.3628
26.0941
51.5526
25.572
49.4457
26.9368
17.7493
23.2251
22.8955
25.4065
17.7714
23.3108
22.9112
25.4264
17.7832
23.2506
22.9498
25.7142
17.808
23.3942
23.0487
25.7203
17.7832
23.3279
23.1769
25.6481
17.7749
23.2953
23.1683
25.5789
17.7087
23.3026
23.1097
25.6089
17.7284
23.3061
23.1165
25.6029
17.7143
23.3169
23.0219
25.4991
17.7088
23.3048
23.0039
25.5639
17.7084
23.2943
23.1009
25.6698
17.7109
23.3032
23.036
25.5386
17.7029
23.3146
23.061
25.678
17.7237
23.2572
23.0513
25.5835
17.7148
23.2506
23.0401
25.4788
17.6996
23.2555
23.0842
25.3036
22.897
22.8488
25.3325
23.2215
23.1347
23.1094
23.2716
25.0403
22.368
22.8658
25.2528
24.7219
25.2512
22.5014
22.5045
22.9585
22.9615
24.9386
25.3169
22.9717
22.687
23.2491
23.3006
22.7877
22.7427
23.3906
24.4544
25.2084
22.5277
22.3398
22.9291
25.2667
24.8163
25.3993
22.5653
22.6683
23.0013
23.0299
24.4681
25.3463
22.5822
22.2996
23.2846
23.3513
22.5686
22.6403
23.4708
24.5499
25.3529
22.5267
22.7765
22.9518
25.1278
24.9314
25.5836
22.193
22.8479
23.1601
23.0459
24.9892
25.369
22.5226
23.1057
23.3928
23.3773
23.1378
22.8363
23.4461
25.0834
25.3796
22.6154
22.8634
23.1281
25.1819
24.774
25.5271
22.9451
22.6811
23.1491
23.0457
24.99
25.3378
23.1359
22.8719
23.3687
23.3471
22.6698
23.0304
23.5929
24.6252
25.3324
22.7235
22.651
23.0667
25.5545
24.7294
25.527
22.4644
22.5707
23.2237
23.0204
24.9374
25.4707
23.039
22.3987
23.4079
23.4129
22.7638
23.1303
23.4851
24.7833
25.3095
22.8672
22.6599
23.0151
25.4563
25.1766
25.6004
22.8633
22.3331
23.1183
23.1841
25.0332
25.4536
22.9781
23.1417
23.4443
23.3123
22.7321
23.157
23.4971
24.8553
25.3848
22.5203
22.9805
23.0028
25.029
25.1941
25.4595
22.6357
22.4251
23.0374
23.1269
24.5602
25.418
23.0942
22.9508
23.4419
23.3186
23.2091
23.1397
23.4374
24.7225
25.2901
22.4739
22.5965
22.9395
25.0469
24.7549
25.4939
22.5235
22.7749
23.0891
23.0687
24.9675
25.4129
22.9155
22.4273
23.3917
23.4226
22.5557
23.1599
23.4884
24.774
25.3727
22.5892
22.4446
22.9929
24.8902
25.2318
25.3827
22.5696
22.6743
23.0273
23.0724
24.5814
25.3894
22.8878
23.0642
23.4735
23.3683
23.1489
23.1252
23.4282
24.7321
25.4011
22.4757
22.4542
23.0358
25.3948
24.8011
25.5802
22.2357
22.7058
23.1405
23.03
25.0804
25.4135
22.9337
22.5773
23.3544
23.4259
22.8362
22.8657
23.4562
24.8563
25.2981
22.2727
22.592
22.9945
25.6109
25.184
25.5545
22.8725
22.3154
23.036
23.1633
24.605
25.3679
22.5984
22.5528
23.4631
23.4591
22.868
22.7028
23.3489
24.8447
25.4199
22.7114
22.4585
23.0111
25.3706
25.148
25.4968
22.638
22.8763
23.0405
23.0435
24.9107
25.3546
22.8745
23.1705
23.4191
23.3489
22.9673
23.1764
23.3872
24.9649
25.4007
22.5936
22.7272
22.9921
25.1497
24.6886
25.5402
22.5371
22.2054
23.1282
23.1228
25.0548
25.3257
22.9484
22.5232
23.5653
23.4571
22.5666
23.0697
23.4551
25.0183
25.3436
22.6157
22.8958
22.9114
25.4469
24.8525
25.3781
22.5653
22.8693
23.008
23.0244
24.9298
25.3358
22.5868
23.1751
23.5242
23.3119
23.1981
23.074
23.3986
24.9557
25.4726
22.5606
22.6901
22.9297
25.3211
24.85
25.598
22.6444
22.7414
23.0625
23.0338
24.9821
25.2862
23.17
23.0088
23.4232
23.3339
23.091
23.0665
23.417
25.1102
25.3505
22.5023
22.9696
22.9328
25.4938
25.1322
25.5131
22.3729
22.5539
22.9272
22.9866
24.8618
25.2545
22.8962
22.9044
23.0432
23.4
22.9731
23.0941
22.9162
25.0044
25.0839
22.2734
22.4555
22.712
117.28
294.944
409.484
111.856
297.316
17.744
17.6866
17.6851
17.7077
46.325
22.9104
110.807
19.8036
410.646
44.0635
21.9463
19.5211
108.047
25.2104
181.906
179.745
118.876
295.853
119.958
295.809
409.53
409.826
123.039
299.05
123.783
298.741
17.6608
17.6692
17.692
17.7726
17.7012
17.7188
17.7196
46.443
112.371
20.0703
22.3231
47.3531
111.869
19.8538
412.156
412.438
44.1818
19.8075
110.684
22.6682
44.5081
19.4921
110.376
183.62
181.416
25.3116
183.782
181.362
118.842
296.241
119.431
296.199
409.699
409.862
123.353
298.622
123.816
298.469
17.6886
17.7051
17.7071
17.7868
17.7246
17.7334
17.719
46.4717
112.613
20.043
23.0265
47.364
112.665
19.8071
412.139
411.301
44.649
19.6591
110.562
22.4445
45.2114
19.7117
110.382
184.554
182.579
25.4569
183.426
182.003
118.878
296.669
119.857
296.3
410.11
410.175
123.956
298.934
124.711
298.449
17.7186
17.7223
17.6812
17.7838
17.7187
17.7637
17.7321
47.101
112.747
20.0529
22.51
46.8623
112.805
19.8252
411.434
411.372
44.4357
19.8762
111.225
22.5021
45.3132
19.5754
110.824
184.505
182.722
25.6178
183.702
181.937
119.132
297.008
120.671
296.108
409.704
409.728
123.299
298.664
123.705
298.626
17.6905
17.7513
17.7255
17.7678
17.7206
17.7528
17.7264
47.356
113.27
20.1039
22.5967
47.4348
113.129
19.9679
411.493
411.957
44.7797
19.8775
111.874
22.2784
45.3462
19.8044
110.469
184.769
182.318
25.5613
184.213
181.855
118.219
296.384
120.299
296.091
409.752
409.859
124.178
298.813
123.966
298.65
17.7071
17.7385
17.6809
17.7773
17.7061
17.7264
17.6915
47.1011
113.089
20.1463
22.7348
47.3517
112.979
19.8593
411.287
411.44
44.5663
19.8827
111.457
22.443
45.0105
19.7306
110.443
184.462
182.735
25.458
184.076
182.049
118.934
296.502
120.124
296.157
409.724
410.481
124.282
298.86
125.558
298.526
17.7008
17.6819
17.6885
17.7479
17.7065
17.7186
17.6364
46.8203
113.007
20.0839
22.7063
47.1206
113.048
19.8994
411.188
411.321
44.7371
19.8461
110.45
22.8145
44.8985
19.5773
110.384
184.877
182.357
25.5148
183.611
182.152
119.196
296.713
119.127
295.859
409.727
409.885
123.109
299.042
123.579
298.588
17.6552
17.6556
17.6688
17.7338
17.6961
17.6877
17.663
46.9568
114.356
20.0868
22.6896
47.3988
113.609
19.8532
411.333
412.365
44.1693
19.871
110.813
22.234
45.1624
19.5706
110.504
185
182.622
25.4757
184.168
181.966
118.324
296.492
118.796
296.006
409.952
410.531
123.677
298.581
124.228
298.706
17.6603
17.6495
17.6334
17.7123
17.6988
17.6893
17.6421
47.1918
113.764
20.0819
22.7042
46.9723
113.227
19.8901
411.428
412.372
44.2512
19.8611
110.674
22.8325
44.4608
19.5645
110.465
184.14
182.772
25.5337
183.872
181.96
118.888
296.336
118.831
295.763
409.819
411.093
124.195
298.787
124.794
298.653
17.6654
17.6458
17.6705
17.7153
17.7147
17.6811
17.6703
47.0085
114.341
20.0721
22.7894
47.4593
113.417
19.9232
412.322
412.554
44.4492
19.8604
110.976
22.8443
45.1613
19.5658
110.669
185.399
182.824
25.4903
184.372
182.065
118.701
296.111
120.626
296.187
409.96
409.933
123.152
298.821
123.348
298.374
17.6692
17.6442
17.6588
17.7095
17.7133
17.6864
17.6639
47.1093
113.501
20.0783
22.9162
47.5007
112.979
19.9525
412.293
412.216
44.7152
19.8578
110.652
22.3127
45.3339
19.765
109.916
185.118
182.766
25.5109
184.154
182.167
118.949
296.601
119.403
296.276
409.995
409.975
123.872
298.766
124.588
298.484
17.7025
17.6414
17.6611
17.6943
17.6978
17.6949
17.6784
46.6075
113.427
20.0585
23.0525
47.0814
112.92
19.7587
411.099
411.343
44.4897
19.8231
110.76
22.8273
44.9716
19.7582
109.838
184.751
182.049
25.4981
183.784
181.845
119.305
296.655
119.873
296.321
410.049
410.9
124.338
298.648
124.982
298.42
17.6588
17.6555
17.6614
17.7175
17.6922
17.6965
17.6818
46.832
112.785
20.1144
23.023
46.9646
112.741
20.0082
411.204
411.377
44.3441
19.7894
111.373
22.3984
44.7802
19.5243
110.484
184.916
182.219
25.5379
184.113
182.003
119.207
296.487
119.726
296.433
409.681
409.957
124.236
298.885
124.219
298.326
17.6578
17.6841
17.6589
17.7324
17.6752
17.7002
17.6268
46.6925
112.654
20.0749
22.7765
47.1651
112.604
19.8134
411.287
412.43
44.3118
19.8334
111.803
22.678
44.6576
19.5318
110.895
184.028
181.99
25.5108
183.773
181.713
118.926
296.721
119.675
296.22
409.782
410.95
123.339
298.903
124.473
298.582
17.6578
17.6657
17.5935
17.6862
17.6729
17.7023
17.6444
47.1793
112.687
20.0995
22.6572
47.6704
112.713
19.7922
411.174
411.325
44.8595
19.8237
111.064
22.6522
44.861
19.7324
110.642
184.133
183.02
25.436
183.94
182.174
119.028
296.577
119.608
296.194
410.206
409.898
124.45
299.394
125.754
298.805
17.6526
17.6508
17.6148
17.7036
17.6949
17.6901
17.6394
46.9789
113.88
20.0949
22.7258
46.8473
113.159
19.9476
411.31
412.491
44.6018
19.7907
111.122
22.7317
44.908
19.7146
110.651
184.692
182.779
25.4338
183.882
181.909
118.244
296.365
118.882
296.048
409.933
409.874
123.336
299.297
124.186
298.616
17.6711
17.6467
17.5989
17.7122
17.6283
17.6991
17.6496
46.9085
113.128
20.1008
22.7924
47.6568
112.714
19.8298
411.352
411.285
44.7832
19.7913
111.731
22.6904
44.565
19.5382
110.881
410.093
411.103
25.246
179.434
182.294
410.293
409.441
412.356
411.161
24.9282
179.423
182.962
173.629
174.356
116.01
295.416
43.9192
22.0806
107.95
19.5061
43.5497
22.6257
108.638
19.5704
113.936
295.192
293.247
114.229
107.021
295.224
293.479
118.396
42.9646
22.7463
108.377
19.6683
98.7536
19.4755
43.8904
42.7549
22.6673
108.124
19.7395
105.945
19.6335
43.9932
25.2722
180.097
181.215
410.663
409.711
409.852
24.4452
180.62
182.549
176.973
172.86
410.937
411.38
46.1106
22.7196
110.815
19.7028
116.184
294.545
46.177
22.2688
19.815
110.439
119.491
298.605
297.196
122.482
45.197
22.5961
111.651
20.0404
101.126
19.9831
46.2752
115.183
298.545
297.415
122.974
43.5622
22.9761
20.0074
110.437
19.7798
104.64
46.3363
121.437
297.414
46.4715
22.9923
19.7958
111.63
121.962
297.624
42.9515
22.5849
111.544
19.8378
108.91
19.8702
47.2137
113.003
297.875
294.59
122.399
45.576
23.067
19.9185
112.137
20.0883
102.853
46.9326
119.362
297.68
295.45
122.286
25.057
181.466
179.01
409.338
411.126
410.789
24.3919
182.362
179.6
172.176
175.453
409.55
410.831
43.7963
22.6406
19.5674
107.747
116.485
294.93
116.606
294.958
42.5758
22.6153
19.7692
105.422
19.7714
102.544
42.5156
41.8808
22.6866
19.755
107.918
19.5552
103.146
44.0944
107.504
295.673
293.511
118.769
112.816
295.155
292.84
117.734
411.234
410.27
24.6687
182.193
180.09
179.921
173.404
410.939
412.144
409.285
409.792
410.757
410.654
411.483
412.335
175.439
175.505
25.2093
180.366
183.168
409.627
409.764
412.35
411.553
24.6956
180.334
182.369
173.483
177.948
117.673
293.801
115.605
296.034
44.1854
99.8927
19.6303
22.694
43.1679
109.452
19.6563
43.9447
105.844
19.6396
22.3582
43.2718
108.561
19.7016
109.689
294.129
292.73
113.373
115.342
296.006
294.386
118.401
41.1424
22.8143
108.443
19.8125
106.676
19.6123
44.6088
43.0758
22.7073
109.287
19.7785
100.491
19.7258
44.3001
172.065
174.712
25.1801
181.299
183.294
411.863
411.376
409.661
410.103
24.3613
180.383
182.846
177.81
174.938
410.921
411.986
46.0045
103.121
19.8787
23.1016
43.8105
112.659
19.8472
122.651
297.165
120.331
298.5
46.4787
19.9487
106.647
22.5003
44.4465
19.845
111.378
119.488
297.922
295.184
118.002
43.6569
23.1336
111.256
20.0684
109.56
19.8376
46.419
120.022
298.139
296.799
122.377
45.3756
23.1958
20.0383
111.734
19.8072
108.774
45.4504
122.486
296.656
119.359
298.018
46.486
20.0597
109.291
22.4692
45.3134
19.8847
112.077
122.289
294.918
119.381
297.89
42.9325
23.0143
107.206
19.9872
105.259
19.7853
47.342
113.451
297.73
295.701
123.535
42.3129
23.2605
20.1423
112.116
20.1165
107.513
47.003
113.586
298.292
294.902
123.751
179.385
174.628
25.025
182.25
180.576
410.004
409.458
411.85
411.306
24.4453
181.693
180.017
176.244
174.969
409.494
410.195
43.9591
19.6027
102.166
22.7039
42.5303
19.488
108.721
118.868
293.197
109.455
295.714
117.801
292.505
114.341
295.4
41.0965
22.4524
19.7756
109.293
19.7405
105.029
45.0038
40.9124
22.7952
19.8063
108.433
19.7708
102.653
44.7378
115.441
295.837
293.361
118.509
110.413
295.536
293.117
119.167
412.695
411.478
410.8
409.679
24.8254
184.149
177.951
181.037
174.798
411.127
412.488
409.342
410.683
410.016
410.009
411.277
411.246
175.272
177.076
25.2593
179.816
182.383
409.857
409.741
411.287
411.782
24.9738
180.893
182.591
171.608
177.241
118.309
293.99
115.271
295.87
44.5157
101.801
19.586
22.7597
43.3346
109.17
19.8323
44.3444
100.506
19.5429
22.5006
42.3371
109.993
19.7996
113.585
296.401
293.199
118.841
110.049
296.082
294.362
119.469
40.7784
22.8241
108.604
19.8599
103.865
19.8224
44.8027
41.1058
22.4268
109.606
19.8464
106.581
19.8041
44.8295
175.002
174.836
25.3376
180.886
183.37
411.876
411.458
410.042
410.85
25.0176
181.479
182.572
173.255
176.086
410.886
412.1
46.7686
105.904
19.9957
22.309
44.4879
111.8
19.8872
122.358
296.808
116.487
298.131
46.7162
19.9724
105.086
23.0336
45.936
19.8749
111.699
116.513
298.709
295.739
119.371
45.697
23.1269
111.853
20.0825
103.269
19.8467
46.8174
116.536
298.236
295.42
122.515
44.0683
22.7376
20.0743
111.159
19.8319
104.845
46.9551
123.35
295.704
113.503
298.034
46.7301
19.924
102.715
23.2905
45.705
20.0055
113.207
122.57
297.119
120.527
298.35
43.6112
22.7836
111.554
19.9825
104.035
19.7728
44.4905
113.661
297.809
295.494
124.005
45.4945
22.8974
20.0902
112.49
20.0272
110.712
46.8506
114.184
298.045
297.529
124.238
176.958
174.933
25.258
182.193
180.478
410.972
409.463
411.153
412.415
24.7495
183.304
180.207
174.351
175.028
409.496
411.067
44.4856
19.6492
104.718
22.7158
41.0326
19.583
109.074
117.994
293.598
116.066
295.854
117.981
293.308
115.052
295.647
41.6571
22.2493
19.8512
106.054
19.6517
103.282
45.1616
43.127
22.7706
19.6994
109.272
19.8355
106.493
44.322
115.191
296.171
294.333
117.894
112.089
295.871
294.397
117.649
412.063
411.453
410.493
410.856
24.8324
183.783
182.225
179.489
178.848
411.225
412.414
409.752
410.293
410.23
409.831