/*--------------------------------*- C++ -*----------------------------------*\
| =========                 |                                                 |
| \\      /  F ield         | OpenFOAM: The Open Source CFD Toolbox           |
|  \\    /   O peration     | Version:  2206                                  |
|   \\  /    A nd           | Website:  www.openfoam.com                      |
|    \\/     M anipulation  |                                                 |
\*---------------------------------------------------------------------------*/
FoamFile
{
    version     2.0;
    format      ascii;
    arch        "LSB;label=32;scalar=64";
    class       surfaceScalarField;
    location    "70";
    object      phi;
}
// * * * * * * * * * * * * * * * * * * * * * * * * * * * * * * * * * * * * * //

dimensions      [0 3 -1 0 0 0 0];

oriented        oriented;

internalField   nonuniform List<scalar> 
198714
(
-2.39124e-12
-2.78602e-13
-6.24761e-13
1.42672e-12
-1.1864e-07
1.18642e-07
-3.86428e-11
-5.4738e-13
-7.19386e-13
3.10206e-11
3.97711e-11
-2.7579e-11
-5.63399e-11
5.49386e-11
-5.80126e-11
5.71326e-11
1.12526e-07
-4.39316e-11
2.33505e-12
-2.25821e-13
1.82258e-11
4.39893e-11
-1.97616e-11
-1.59129e-12
2.53089e-11
-2.7004e-11
1.69675e-12
-1.13542e-07
1.13543e-07
2.83771e-11
4.45028e-11
4.6699e-11
3.16489e-11
2.70968e-08
3.58084e-11
3.84829e-11
3.91349e-11
3.80781e-11
2.7085e-08
-2.72365e-08
1.46501e-12
1.33991e-11
3.56809e-11
-1.55728e-11
2.19208e-11
2.36777e-11
-2.59713e-11
-2.272e-11
-1.14605e-07
1.14606e-07
-3.55848e-11
2.03743e-12
2.34948e-12
1.41757e-11
3.57574e-11
-2.0213e-11
2.20689e-11
2.39387e-11
-2.32904e-11
-2.24522e-11
1.14629e-07
3.90306e-11
3.87018e-11
2.70842e-08
-1.5008e-13
3.07204e-11
3.94132e-11
-3.13129e-11
-5.66417e-11
5.40885e-11
-5.59483e-11
5.65386e-11
-1.12546e-07
1.12547e-07
-2.8488e-11
1.38645e-12
1.58889e-12
2.72341e-11
2.91258e-11
-2.86955e-11
-3.74013e-11
5.32153e-11
-5.53401e-11
3.66204e-11
-1.13584e-07
1.13585e-07
1.35857e-13
1.73288e-13
2.71521e-11
2.96261e-11
-2.78614e-11
-3.70204e-11
5.39057e-11
-5.51793e-11
3.70711e-11
1.13592e-07
4.58416e-11
3.20827e-11
2.7089e-08
-2.72393e-08
1.05332e-12
4.21869e-13
1.8226e-11
4.48463e-11
-1.94493e-11
-1.0771e-12
2.53964e-11
-2.65647e-11
1.64826e-12
1.13593e-07
-1.90822e-13
-3.31949e-12
1.43347e-08
-1.26677e-12
-2.72921e-12
-1.43272e-08
-2.89604e-14
-1.35415e-11
2.12139e-08
1.64669e-12
1.61674e-12
-2.12036e-08
2.66126e-13
-1.74295e-12
7.16525e-09
-3.5435e-12
1.94782e-12
-1.14607e-11
1.40218e-08
-3.95362e-12
-2.11856e-12
-1.40062e-08
-4.74109e-11
-1.78581e-13
2.05693e-08
4.64609e-12
1.32737e-11
-2.05397e-08
3.80019e-13
7.84069e-13
1.18631e-07
1.71605e-12
-4.81553e-13
-1.18937e-07
1.1894e-07
1.02376e-12
2.75918e-13
1.18968e-07
8.95904e-12
1.14049e-11
-2.72107e-11
2.17631e-08
-1.49228e-11
4.36409e-13
-6.37513e-13
-9.42716e-11
1.26496e-10
-1.25918e-10
9.39225e-11
1.15618e-07
4.75942e-11
-2.46626e-14
2.43639e-08
1.05738e-11
-9.05028e-11
-1.8578e-12
-4.33288e-12
7.02718e-09
-2.27251e-12
-7.01872e-09
-1.81577e-13
4.15572e-12
-2.21868e-12
-2.42998e-12
1.71353e-12
8.36544e-13
1.15052e-07
2.15306e-12
3.19948e-12
-8.67558e-12
2.21301e-08
-5.89198e-12
1.37094e-13
1.34583e-11
2.49501e-08
-2.05954e-11
4.04159e-12
-8.6307e-12
4.38692e-12
-2.14795e-11
2.25977e-08
3.29e-12
-2.28289e-12
2.16713e-12
-1.38761e-11
2.27268e-08
-8.06477e-15
-2.22843e-12
7.16349e-09
-3.24103e-12
-7.1582e-09
-4.2397e-12
7.02619e-09
-2.29806e-12
-7.01771e-09
-2.4643e-12
-1.38427e-11
2.29035e-08
-5.72e-14
-2.28894e-08
-8.6474e-12
-2.1128e-11
2.24231e-08
3.75851e-12
-2.24012e-08
-3.24507e-12
1.43414e-08
-1.22177e-12
-2.86336e-12
-1.36114e-11
2.12178e-08
1.71334e-12
1.42869e-12
-8.30325e-12
2.21199e-08
-5.9308e-12
-2.21114e-08
-5.80298e-13
2.69695e-12
2.03136e-11
-3.40905e-12
2.26687e-12
-2.11654e-11
-1.17534e-07
1.17535e-07
5.08592e-14
2.49502e-08
4.11726e-12
-2.04697e-11
-2.49474e-08
2.19703e-12
-8.50842e-12
2.21134e-08
-5.59971e-12
1.83791e-12
2.05442e-11
-3.00931e-12
2.67957e-12
-2.06841e-11
1.17546e-07
2.49534e-08
4.04018e-12
-2.038e-11
-1.42185e-11
2.27836e-08
-1.63758e-13
4.2553e-12
-2.17904e-11
2.25503e-08
3.76396e-12
-2.00721e-12
7.02852e-09
-2.14741e-12
-2.65362e-11
2.17496e-08
-1.47242e-11
-2.17285e-08
5.34015e-14
2.71787e-13
-9.47255e-11
1.26183e-10
-1.2638e-10
9.35856e-11
-1.15621e-07
1.15622e-07
-1.41919e-14
2.4363e-08
1.04825e-11
-9.00718e-11
-2.43308e-08
-1.15315e-11
1.40204e-08
-3.751e-12
-2.08012e-12
-1.40049e-08
-4.74597e-11
2.05656e-08
1.3271e-11
4.21038e-12
-2.05358e-08
3.03002e-13
-7.67215e-11
1.2551e-10
-1.26105e-10
7.63589e-11
-1.1686e-07
1.16862e-07
8.58054e-12
-2.66157e-11
2.17356e-08
-1.45214e-11
-2.17145e-08
2.43598e-08
-9.01753e-11
1.01074e-11
-2.43272e-08
1.40257e-08
-4.06884e-12
-2.05721e-12
-1.43068e-13
2.05713e-08
4.62454e-12
1.34132e-11
-9.81672e-13
-7.60451e-11
1.26039e-10
-1.25594e-10
7.6819e-11
1.16864e-07
1.14561e-11
-2.67151e-11
2.17462e-08
-1.45696e-11
4.74861e-11
2.43615e-08
-9.0515e-11
1.02609e-11
1.94869e-12
1.40189e-08
-4.02663e-12
-2.0711e-12
2.0567e-08
1.33595e-11
4.34457e-12
-2.11729e-11
2.24766e-08
3.49374e-12
-2.24546e-08
1.95365e-12
-1.45393e-11
2.28532e-08
3.9215e-13
4.38819e-13
7.16517e-09
-3.32842e-12
2.84746e-12
-2.10909e-12
-2.39105e-12
1.53721e-12
5.99687e-13
1.15068e-07
3.44687e-12
-8.44041e-12
2.21228e-08
-5.82001e-12
1.33461e-11
2.49529e-08
-2.05881e-11
4.07402e-12
1.43373e-08
-1.2788e-12
-2.87055e-12
-5.32715e-14
2.12128e-08
1.5228e-12
1.49061e-12
-3.66066e-13
1.43381e-08
-1.296e-12
-2.8258e-12
2.12168e-08
1.42366e-12
1.23433e-12
7.02606e-09
-2.26155e-12
7.16369e-09
-3.37069e-12
-2.27296e-12
-5.96013e-09
2.59974e-13
4.49457e-12
5.95764e-09
1.40345e-12
-1.85561e-13
3.92061e-12
2.48281e-12
1.43271e-08
2.20216e-08
-2.21594e-12
-2.34829e-12
-7.74315e-12
-2.20105e-08
2.39389e-12
7.87679e-12
2.20104e-08
-1.46394e-13
-4.62665e-12
-5.95756e-09
2.67009e-13
8.69672e-13
-1.058e-08
2.34283e-12
1.05768e-08
-1.79236e-12
-1.57286e-12
4.21147e-14
1.39415e-11
2.12033e-08
1.28651e-08
3.58895e-13
-1.1258e-13
-2.55739e-12
-1.28612e-08
2.01609e-08
7.47129e-13
-1.11836e-11
-2.01512e-08
-1.53895e-13
2.41728e-12
1.28613e-08
1.14219e-11
2.01511e-08
-2.47858e-12
-1.05766e-08
7.24395e-14
2.12719e-12
2.82162e-12
7.16023e-09
-1.06821e-11
-1.22433e-12
1.82772e-12
-1.02502e-08
-1.22378e-12
1.02615e-08
4.7114e-12
1.35219e-11
-2.05394e-08
-1.66514e-13
2.05688e-08
-4.74536e-11
6.91243e-12
-1.95525e-08
1.95785e-08
-3.8847e-11
-1.24471e-08
-1.89037e-13
-1.21079e-12
1.24608e-08
2.08291e-12
-5.79031e-09
5.78334e-09
1.847e-12
3.03854e-12
3.8668e-12
1.40062e-08
-2.06595e-12
1.18943e-11
1.913e-12
2.14566e-08
2.11208e-12
-6.67158e-12
-2.50633e-11
-2.14309e-08
2.14308e-08
6.5938e-12
2.50525e-11
-1.719e-12
-3.12718e-12
-5.78336e-09
-2.00002e-12
-3.10977e-12
5.79027e-09
-4.02142e-12
1.96436e-12
-2.13431e-12
1.40219e-08
-1.1508e-11
2.14568e-08
-2.50996e-11
1.09221e-11
1.0969e-12
-1.02616e-08
1.19705e-12
-4.31048e-12
-1.3602e-11
-1.33495e-13
4.79442e-11
1.95787e-08
1.03968e-11
-3.86963e-11
-1.95525e-08
1.24606e-08
1.26829e-12
-2.12887e-13
-1.38535e-12
-1.2447e-08
3.9413e-11
-1.46686e-13
1.16286e-12
-1.45398e-12
-1.02502e-08
7.01854e-09
2.31934e-12
4.27175e-12
2.05123e-12
-1.79006e-12
-2.77458e-12
7.02701e-09
-3.91258e-12
2.23171e-11
-7.50892e-12
-2.0432e-08
-1.26878e-11
1.80709e-11
2.04118e-08
2.40302e-08
2.21298e-11
-4.13718e-11
-3.32062e-11
2.13971e-11
-3.72908e-12
-4.23438e-12
8.6089e-12
2.25756e-08
1.35149e-08
-7.96474e-12
1.39656e-12
-2.02672e-12
4.15187e-11
3.30075e-11
2.39993e-08
-1.56457e-12
1.95408e-12
1.35033e-08
1.28399e-11
-1.81635e-11
1.82433e-11
-5.38872e-12
-1.95747e-08
-1.19348e-11
1.32662e-11
1.95605e-08
2.34403e-08
1.75291e-11
-2.86541e-11
-2.25672e-11
1.37187e-11
-2.69638e-13
-2.13519e-12
2.57184e-12
2.27129e-08
1.34197e-08
-5.75516e-12
9.21721e-14
-2.36451e-12
2.8259e-11
2.35411e-11
2.34205e-08
-2.23285e-14
2.27088e-12
1.34118e-08
1.20256e-11
-1.36343e-11
-2.50818e-12
-3.15263e-12
-1.59801e-08
1.59611e-08
5.81287e-09
-3.15773e-12
-2.32021e-12
5.8496e-09
-3.52377e-12
-2.53448e-12
2.53036e-12
5.80625e-09
2.7826e-12
5.84365e-09
2.06435e-12
3.01959e-12
7.1582e-09
7.01765e-09
4.35563e-12
2.12496e-12
-2.4741e-12
7.02619e-09
-4.1097e-12
-5.66114e-12
1.77531e-11
-2.05213e-08
-1.12002e-11
1.64594e-11
2.05039e-08
2.42476e-08
1.65505e-11
-3.06613e-11
-2.14023e-11
-2.42259e-08
-5.42193e-13
1.41351e-11
2.9767e-12
2.2889e-08
1.36432e-08
-5.73656e-12
-2.84572e-13
-2.33258e-12
-1.36349e-08
1.08192e-14
2.21226e-12
1.36348e-08
3.08603e-11
2.28312e-11
2.42258e-08
1.06648e-11
-1.68983e-11
-2.05042e-08
-7.90605e-12
2.29963e-11
-1.94892e-08
-1.33724e-11
1.46526e-11
1.94729e-08
2.32382e-08
2.35441e-11
-3.73746e-11
-3.33597e-11
-2.32121e-08
-3.38467e-12
2.14961e-11
8.06785e-12
2.24012e-08
1.32945e-08
-7.67809e-12
1.6825e-12
-2.02602e-12
-1.32827e-08
-1.44646e-12
1.9409e-12
1.32827e-08
3.81785e-11
3.28074e-11
2.32117e-08
1.38353e-11
-1.41093e-11
-1.94731e-08
-3.07737e-12
-3.04677e-12
-1.59813e-08
1.59628e-08
5.84541e-09
-3.38839e-12
-2.71824e-12
-5.83958e-09
5.81686e-09
-2.81939e-12
-2.40934e-12
-5.80997e-09
2.71944e-12
5.83958e-09
2.41921e-12
5.80998e-09
-1.5963e-08
-2.06994e-12
-5.96453e-09
1.5909e-13
4.43421e-12
5.96201e-09
1.08342e-12
3.97903e-12
2.45726e-12
1.43339e-08
2.20352e-08
-2.51712e-12
-2.48799e-12
-7.98554e-12
2.41931e-12
8.1899e-12
2.20235e-08
-2.61754e-13
-4.61987e-12
3.99589e-13
1.12115e-12
-1.0586e-08
2.47922e-12
1.05821e-08
-1.96597e-12
-1.57828e-12
1.36758e-11
2.12077e-08
1.28685e-08
1.02395e-13
-2.58265e-12
2.01703e-08
8.84627e-13
-1.13465e-11
2.41172e-12
1.28644e-08
1.1328e-11
2.0161e-08
-2.34377e-12
1.97866e-11
6.15007e-11
-1.96071e-08
-1.13897e-10
-1.14471e-10
1.97542e-08
2.3821e-08
1.37146e-11
-3.20912e-11
-2.15603e-11
-8.62607e-12
9.31096e-12
2.94471e-12
2.27821e-08
1.34135e-08
-7.73562e-12
-2.00829e-12
-2.35839e-12
-2.10149e-11
1.6651e-12
1.3444e-08
-2.65349e-12
2.703e-11
2.38674e-08
-2.3121e-12
-3.21758e-11
-2.09406e-11
-3.19749e-11
-2.04182e-08
9.65288e-11
1.37902e-10
2.02367e-08
2.36646e-08
2.61211e-11
-3.71089e-11
-3.40627e-11
2.64931e-11
4.79431e-12
-4.03422e-12
8.20118e-12
2.25148e-08
1.35265e-08
-6.90153e-12
3.58309e-12
-1.91615e-12
7.10201e-11
2.95967e-11
2.35695e-08
2.00824e-11
2.56244e-12
1.34767e-08
2.84616e-11
-1.08178e-12
1.80383e-11
-2.30535e-11
-1.59879e-08
1.59755e-08
5.84985e-09
-5.73157e-12
-2.29473e-12
5.8144e-09
-1.30832e-12
-2.20608e-12
2.37339e-12
5.84451e-09
2.9853e-12
5.80843e-09
2.05441e-12
2.18051e-12
7.02024e-09
-1.01831e-12
-1.0873e-11
1.80097e-12
-1.02465e-08
-1.20046e-12
1.02578e-08
1.35879e-11
4.36964e-12
-2.05358e-08
2.05653e-08
-4.75773e-11
-1.24448e-08
-1.17203e-12
1.24583e-08
6.78993e-12
-1.95451e-08
1.9571e-08
-3.91633e-11
2.18487e-12
-5.7881e-09
5.78113e-09
1.86725e-12
2.9112e-12
4.16316e-12
1.40047e-08
1.19714e-11
1.84404e-12
2.14484e-08
2.2421e-12
-6.44514e-12
-2.50433e-11
-2.14229e-08
2.14227e-08
6.80124e-12
2.52757e-11
-1.64255e-12
-3.11541e-12
-5.7811e-09
-1.97179e-12
-3.14297e-12
5.78804e-09
-3.95042e-12
-2.2664e-12
1.40206e-08
-1.14371e-11
2.14486e-08
-2.51063e-11
1.33501e-12
1.0738e-11
-1.0258e-08
1.28342e-12
-1.36559e-11
-4.61141e-12
4.79626e-11
1.24584e-08
9.29202e-13
-1.3688e-12
-1.24449e-08
1.95713e-08
1.07057e-11
-3.9133e-11
-1.95451e-08
1.14293e-12
3.9142e-11
-1.30305e-12
-1.02467e-08
2.21172e-12
-5.79153e-09
1.81966e-12
2.82147e-12
5.78468e-09
3.88048e-12
1.16499e-11
1.79527e-12
1.40105e-08
2.14609e-08
1.94935e-12
-6.7469e-12
-2.49189e-11
6.63652e-12
2.48571e-11
2.14355e-08
-1.78883e-12
-2.9368e-12
1.09685e-11
1.2486e-12
-1.02635e-08
1.13232e-12
1.02519e-08
-4.41409e-12
-1.3754e-11
-1.05682e-13
4.77168e-11
2.05418e-08
1.95815e-08
1.03366e-11
-3.8661e-11
1.2463e-08
1.11228e-12
2.07278e-14
-1.19133e-12
3.91125e-11
1.95556e-08
1.28491e-14
1.00352e-12
1.24495e-08
-1.14509e-12
2.31379e-12
-5.78669e-09
1.82222e-12
2.87011e-12
5.77968e-09
3.97793e-12
-2.23332e-12
1.18484e-11
1.82051e-12
1.40035e-08
2.14465e-08
2.20876e-12
-6.68774e-12
-2.50648e-11
6.71617e-12
2.5067e-11
2.1421e-08
-1.79638e-12
-2.8718e-12
1.29333e-12
1.09337e-11
-1.02561e-08
1.21269e-12
1.02445e-08
-1.37709e-11
-4.56037e-12
4.77477e-11
2.05375e-08
1.24592e-08
9.8944e-13
-1.29082e-12
1.95712e-08
1.07151e-11
-3.91235e-11
9.82432e-13
1.24458e-08
3.90153e-11
1.95453e-08
-1.12542e-12
-7.62936e-12
2.30237e-11
-1.94908e-08
-1.37977e-11
1.45048e-11
1.94747e-08
2.36026e-08
2.26469e-11
-3.94874e-11
-3.3061e-11
-2.35738e-08
-3.63754e-12
2.16817e-11
8.80546e-12
2.2454e-08
1.32849e-08
-7.61685e-12
1.60406e-12
-1.9611e-12
-1.32734e-08
-1.49604e-12
1.80924e-12
1.32733e-08
4.04535e-11
3.33325e-11
2.35735e-08
1.39569e-11
-1.401e-11
-1.94757e-08
1.77794e-11
-6.13365e-12
-2.05316e-08
-1.06227e-11
1.70194e-11
2.05136e-08
2.38725e-08
1.71647e-11
-2.98522e-11
-2.23137e-11
-2.38521e-08
1.43711e-11
-5.77253e-13
-1.95098e-12
2.26819e-12
2.28391e-08
1.36606e-08
-6.09131e-12
-2.28994e-13
-2.43118e-12
2.95528e-11
2.29368e-11
2.38522e-08
4.04072e-14
2.36082e-12
1.36515e-08
1.0431e-11
-1.72506e-11
-2.05138e-08
-2.68726e-12
-3.3662e-12
-1.5989e-08
1.59706e-08
5.81778e-09
-2.80574e-12
-2.55793e-12
-5.81082e-09
5.84862e-09
-3.36849e-12
-2.69686e-12
2.27285e-12
5.81133e-09
2.87233e-12
5.8424e-09
-1.59708e-08
3.71249e-14
3.03917e-12
7.16013e-09
-2.18476e-12
-5.96009e-09
3.5295e-13
4.41516e-12
5.95751e-09
1.36502e-12
3.9525e-12
2.44899e-12
1.43296e-08
2.20219e-08
-2.37637e-12
-2.25626e-12
-8.06669e-12
2.51171e-12
7.97907e-12
2.20106e-08
-7.43792e-14
-4.64235e-12
1.36896e-12
3.99287e-13
-1.05796e-08
2.26473e-12
1.05759e-08
-1.58179e-12
-1.92939e-12
-8.41288e-14
1.39699e-11
2.12024e-08
2.0159e-08
6.38277e-13
-1.08779e-11
1.28645e-08
2.38958e-13
8.47013e-14
-2.57865e-12
1.16901e-11
2.01496e-08
1.21167e-14
2.27945e-12
1.28607e-08
-2.46914e-12
-2.09007e-12
-5.9634e-09
3.96161e-13
4.43998e-12
5.96065e-09
1.42421e-12
-1.30286e-14
3.96316e-12
2.5307e-12
1.43302e-08
2.20301e-08
-2.13458e-12
-2.33539e-12
-8.07223e-12
2.54104e-12
7.89882e-12
2.20189e-08
-1.108e-13
-4.59168e-12
1.32936e-12
4.14516e-13
-1.05844e-08
2.29425e-12
1.05808e-08
-1.60891e-12
-1.68663e-12
1.39746e-11
2.1206e-08
2.01674e-08
6.63731e-13
-1.08847e-11
1.28677e-08
1.46812e-13
-2.6391e-12
1.16863e-11
2.0158e-08
2.27569e-12
1.28641e-08
-2.44518e-12
2.05587e-12
7.01753e-09
3.065e-12
7.15848e-09
1.17947e-12
-1.22042e-12
-1.24459e-07
1.24462e-07
-5.65906e-13
9.49753e-14
-1.21888e-07
1.2189e-07
-1.25973e-12
-3.34058e-13
-1.32915e-07
1.32917e-07
1.86551e-11
2.07856e-11
-2.32781e-08
2.327e-08
2.59454e-08
1.89105e-11
2.48936e-08
2.06055e-11
-4.61284e-11
-3.02659e-11
2.72476e-08
2.59316e-08
2.48929e-08
1.66529e-11
2.32327e-11
-2.32687e-08
2.32599e-08
2.60404e-08
1.57941e-11
-2.60344e-08
2.47969e-08
2.38275e-11
-2.47893e-08
-3.81333e-11
-3.7943e-11
2.72362e-08
2.60342e-08
2.47891e-08
-2.32601e-08
-2.04823e-11
6.0733e-11
-2.32773e-08
2.32604e-08
2.59908e-08
1.39908e-11
2.48463e-08
2.55599e-11
-4.42288e-11
-3.22061e-11
2.72362e-08
2.4825e-08
2.59964e-08
1.90527e-11
2.07187e-11
-2.32598e-08
2.32516e-08
2.5881e-08
2.07953e-11
-2.58682e-08
2.49299e-08
1.86025e-11
-2.4928e-08
-3.10188e-11
-4.56136e-11
2.72387e-08
2.49277e-08
2.58678e-08
-2.32517e-08
8.63995e-13
1.24458e-07
5.91656e-13
2.68315e-14
1.2189e-07
-3.21694e-13
1.32916e-07
-8.65928e-13
-1.25669e-07
1.25672e-07
2.46715e-12
-1.5891e-12
-1.1978e-07
1.19782e-07
-1.42829e-12
-1.33061e-07
1.33063e-07
3.38193e-13
1.25681e-07
2.17375e-12
1.19787e-07
1.33064e-07
-3.71183e-11
-4.65096e-11
-2.59472e-08
-2.61682e-11
2.60007e-08
2.50066e-08
-3.82443e-11
2.76615e-11
1.4065e-11
2.17412e-08
2.35126e-08
-4.70443e-11
-1.38903e-11
2.49687e-08
1.35406e-11
2.34915e-08
2.51353e-11
-7.06294e-11
1.73678e-11
-2.583e-08
2.57628e-08
-9.81083e-12
9.04201e-11
-1.33459e-13
2.43312e-08
2.37155e-08
-6.99312e-11
2.66394e-08
1.8529e-11
7.06947e-12
2.36877e-08
-6.90879e-12
2.66282e-08
-2.15184e-11
-1.09583e-11
-2.63002e-08
-5.38859e-11
2.6385e-08
2.53002e-08
-2.11463e-11
-2.52847e-08
9.7865e-12
5.67774e-12
2.21208e-08
2.39872e-08
-1.13712e-11
-4.03112e-12
2.52844e-08
4.37198e-12
2.39855e-08
5.40584e-11
-2.63851e-08
5.07989e-12
-1.62896e-11
-2.61834e-08
2.61385e-08
2.13805e-11
-3.98991e-12
-1.46106e-14
2.49467e-08
2.70996e-08
5.59309e-12
3.63544e-13
2.42218e-08
-1.48062e-11
-1.94198e-13
2.7128e-08
2.42176e-08
-1.0205e-11
-2.51102e-11
-2.62811e-08
7.88689e-12
2.63305e-08
2.53152e-08
-2.43304e-11
-2.52969e-08
5.83289e-12
9.75718e-12
2.21112e-08
2.39866e-08
-9.94972e-12
-7.38968e-12
-2.39829e-08
7.37378e-12
2.39827e-08
2.52967e-08
-7.61681e-12
-2.63305e-08
-1.4225e-11
8.769e-12
-2.61928e-08
2.62265e-08
-4.04454e-12
2.07395e-11
2.43456e-14
2.49474e-08
2.42235e-08
-1.41855e-11
-2.42237e-08
2.70999e-08
9.0656e-12
3.1348e-13
-2.71332e-08
2.4224e-08
-3.39744e-13
2.7132e-08
-2.62268e-08
-1.01609e-11
-2.55247e-11
-2.62807e-08
8.33885e-12
2.63301e-08
2.52612e-08
-2.4113e-11
5.77244e-12
9.69724e-12
2.21048e-08
2.3991e-08
-1.01072e-11
-7.32337e-12
7.4822e-12
2.39873e-08
2.52491e-08
-7.43427e-12
-1.44062e-11
9.10371e-12
-2.61965e-08
2.62307e-08
-4.0185e-12
2.04293e-11
2.49507e-08
2.42296e-08
-1.45424e-11
2.71029e-08
8.89351e-12
2.423e-08
2.71348e-08
-4.65077e-11
-3.67862e-11
-2.59446e-08
-2.6307e-11
2.59976e-08
2.4953e-08
-3.77093e-11
-2.49211e-08
1.3809e-11
2.75818e-11
2.17282e-08
2.35099e-08
-4.66969e-11
-1.39571e-11
-2.3489e-08
1.35167e-11
2.34887e-08
2.49207e-08
2.5405e-11
-2.59979e-08
-7.09881e-11
1.7413e-11
-2.58303e-08
2.57628e-08
-9.76755e-12
9.062e-11
-1.28739e-13
2.43302e-08
2.37142e-08
-6.97658e-11
-2.36866e-08
2.66398e-08
1.83641e-11
7.14247e-12
-2.66292e-08
2.36864e-08
-7.01454e-12
2.66284e-08
-2.57627e-08
-4.61486e-11
-4.04257e-11
-2.59158e-08
2.86187e-11
2.59363e-08
2.49562e-08
-4.06988e-11
-2.4922e-08
1.41715e-11
2.78579e-11
2.17143e-08
2.34982e-08
-4.5898e-11
-1.66618e-11
-2.34752e-08
1.65688e-11
2.34749e-08
2.49216e-08
-2.89702e-11
-2.59368e-08
2.08805e-11
-6.96839e-11
-2.58294e-08
2.58301e-08
9.06818e-11
-1.00318e-11
2.4327e-08
2.66374e-08
2.12213e-11
-2.66161e-08
2.37052e-08
-6.9694e-11
-2.36812e-08
2.66158e-08
2.36812e-08
-2.58305e-08
-4.02e-11
-4.54433e-11
-2.59222e-08
2.83753e-11
2.59425e-08
2.50123e-08
-4.09626e-11
2.75085e-11
1.39327e-11
2.17252e-08
2.35011e-08
-4.57097e-11
-1.693e-11
2.49775e-08
1.63304e-11
2.34783e-08
-2.90392e-11
2.07111e-11
-6.91428e-11
-2.58318e-08
2.58326e-08
9.04345e-11
-1.00168e-11
2.43287e-08
2.66379e-08
2.13123e-11
2.37082e-08
-6.95837e-11
2.66165e-08
2.36844e-08
-2.15068e-11
-1.08179e-11
-2.63048e-08
-5.38259e-11
2.63899e-08
2.52516e-08
-2.08998e-11
9.23131e-12
5.8114e-12
2.21142e-08
2.39936e-08
-1.14051e-11
-3.96251e-12
2.52363e-08
4.40639e-12
2.39921e-08
5.42546e-11
5.32639e-12
-1.62039e-11
-2.6189e-08
2.61439e-08
2.12894e-11
-4.01344e-12
2.49495e-08
2.71029e-08
5.40819e-12
2.42285e-08
-1.48858e-11
2.71308e-08
2.42244e-08
-1.46448e-12
-2.27252e-13
2.45593e-09
1.7608e-14
-2.457e-09
-6.63681e-13
-1.97476e-13
1.32373e-09
3.90389e-14
-1.32444e-09
-2.11095e-13
-1.36412e-13
6.50441e-10
2.02162e-14
-6.50874e-10
-5.04781e-15
-7.92342e-14
2.68733e-10
2.88788e-16
-2.68971e-10
-1.65978e-14
6.36821e-11
6.03413e-15
-6.37567e-11
-1.96939e-12
1.21963e-13
4.59577e-09
-2.45346e-13
-9.34593e-13
1.07918e-13
2.47215e-09
-1.5871e-13
-3.55699e-13
6.1973e-14
1.21524e-09
-9.37987e-14
-7.36386e-14
2.45136e-14
5.02986e-10
-4.71416e-14
1.19119e-14
1.19619e-10
-9.89639e-15
-1.20153e-12
7.79715e-14
2.45844e-09
-2.1546e-13
-2.45921e-09
-6.12798e-13
1.1131e-14
1.32513e-09
-8.39083e-14
-1.32561e-09
-2.83357e-13
6.57637e-15
6.51147e-10
-2.51663e-14
-6.514e-10
-1.09836e-13
9.32079e-15
2.69017e-10
-1.84362e-15
-2.69129e-10
-3.04412e-15
6.37387e-11
-3.09956e-15
-6.37915e-11
-1.25079e-12
-4.43853e-14
4.59847e-09
9.98214e-14
-4.59956e-09
-5.7427e-13
1.38907e-14
2.4737e-09
5.75038e-14
-2.47446e-09
-2.12483e-13
1.45787e-14
1.21606e-09
3.37797e-14
-1.2165e-09
-5.10791e-14
6.94379e-15
5.03373e-10
1.69171e-14
-5.03586e-10
4.53483e-15
1.19718e-10
4.82519e-15
-1.198e-10
-1.83177e-12
4.59456e-09
-2.29501e-13
-4.59593e-09
-9.34579e-13
2.47159e-09
-1.2286e-13
-2.47248e-09
-4.41562e-13
1.21496e-09
-4.91629e-14
-1.21541e-09
-1.79231e-13
5.02911e-10
-8.71166e-15
-5.03099e-10
1.19642e-10
-6.31516e-15
-1.19738e-10
-1.26138e-12
4.59766e-09
1.08646e-13
-4.59877e-09
-5.51568e-13
2.47322e-09
4.7059e-14
-2.47404e-09
-1.6024e-13
1.21579e-09
1.10056e-14
-1.2163e-09
8.39291e-15
5.03202e-10
-6.61304e-15
-5.03484e-10
1.19674e-10
4.55148e-15
-1.1976e-10
-1.58556e-12
2.45709e-09
-4.02155e-14
-7.81093e-13
1.32437e-09
2.23191e-14
-3.2937e-13
6.50792e-10
3.46241e-14
-1.02623e-13
2.6886e-10
2.61109e-14
6.36988e-11
3.87301e-15
-1.19054e-12
-7.29456e-14
1.5674e-13
4.59871e-09
-5.83675e-13
9.79436e-15
9.82558e-14
2.47391e-09
-2.55291e-13
2.4315e-14
5.88882e-14
1.21618e-09
-9.01305e-14
2.0027e-14
3.10553e-14
5.03407e-10
4.66956e-15
7.46279e-15
1.19745e-10
-1.14488e-12
2.4585e-09
-1.80202e-13
-2.4593e-09
-5.46561e-13
1.32524e-09
-7.43516e-14
-1.32575e-09
-2.16786e-13
6.51165e-10
-3.0553e-14
-6.51446e-10
-6.09167e-14
2.69051e-10
-1.20693e-14
-2.69185e-10
6.37348e-11
-2.88193e-15
-6.37897e-11
-1.12642e-12
2.45891e-09
-2.57031e-13
-5.36131e-13
1.32543e-09
-1.23675e-13
-2.07498e-13
6.51295e-10
-6.26888e-14
-4.83159e-14
2.69094e-10
-3.18257e-14
6.37621e-11
-4.6937e-15
-1.13834e-12
7.49139e-14
2.45808e-09
-2.50302e-13
-5.45185e-13
-7.33493e-17
1.32489e-09
-1.17032e-13
-2.16463e-13
-1.16984e-14
6.50993e-10
-5.38045e-14
-5.78331e-14
-9.29133e-15
2.6898e-10
-2.31091e-14
-3.87852e-15
6.37412e-11
-5.09417e-15
-1.83226e-12
1.98365e-13
-1.61985e-13
4.59599e-09
-9.0304e-13
1.73016e-13
-8.18828e-14
2.47228e-09
-3.93661e-13
1.18766e-13
-3.31363e-14
1.2154e-09
-1.33358e-13
6.72125e-14
-6.75927e-15
5.03077e-10
1.53154e-14
-4.32895e-15
1.19654e-10
-1.56591e-12
2.45643e-09
-2.42221e-14
-7.52656e-13
1.32406e-09
1.34593e-14
-2.91855e-13
6.50618e-10
1.15973e-14
-6.4013e-14
2.68793e-10
1.65995e-15
6.36872e-11
4.39668e-15
-1.56265e-12
-1.82412e-13
2.45669e-09
-6.14552e-15
-7.69553e-13
-1.48666e-13
1.32424e-09
3.61269e-14
-3.22246e-13
-8.69713e-14
6.50697e-10
3.51551e-14
-9.64993e-14
-3.82191e-14
2.68858e-10
2.06912e-14
-1.43985e-14
6.36918e-11
5.39373e-15
-1.24657e-12
9.20915e-14
4.59742e-09
-5.98431e-13
5.96141e-14
2.47305e-09
-2.44531e-13
3.91012e-14
1.21575e-09
-7.15862e-14
2.24524e-14
5.03242e-10
5.48437e-15
1.19688e-10
-1.86982e-12
-2.102e-13
4.59485e-09
-9.03713e-13
-1.30782e-13
2.4718e-09
-3.59085e-13
-7.40675e-14
1.21506e-09
-8.53644e-14
-3.56517e-14
5.02936e-10
-7.19763e-15
1.196e-10
2.55106e-12
-4.0784e-14
1.91405e-13
-4.59249e-09
4.59427e-09
1.28218e-12
-2.69856e-15
1.01262e-13
-2.46844e-09
2.46956e-09
5.66013e-13
3.16929e-15
4.48096e-14
-1.21268e-09
1.21327e-09
1.90035e-13
-4.99699e-16
1.27734e-14
-5.01741e-10
5.0202e-10
3.01453e-15
6.75272e-15
-1.19286e-10
1.19404e-10
1.33461e-12
1.02675e-13
2.45695e-09
6.39912e-13
1.09211e-13
1.32435e-09
2.55313e-13
7.79787e-14
6.50805e-10
6.26843e-14
4.52907e-14
2.68928e-10
1.00231e-14
6.37492e-11
1.50804e-12
-1.3199e-13
1.44174e-13
4.59709e-09
7.13291e-13
-1.21599e-13
8.46061e-14
2.47301e-09
2.84794e-13
-7.63708e-14
5.27198e-14
1.21572e-09
7.18823e-14
-3.74303e-14
2.91695e-14
5.03239e-10
-1.15768e-14
5.25417e-15
1.19711e-10
-6.71034e-13
-1.82084e-13
-2.81249e-09
3.13093e-13
2.81181e-09
-3.23511e-13
-1.06521e-13
-1.51565e-09
1.8538e-13
1.51523e-09
-1.38453e-13
-5.63189e-14
-7.45133e-10
1.0591e-13
7.44908e-10
-5.10048e-14
-2.41347e-14
-3.08133e-10
5.24934e-14
3.0803e-10
-6.94626e-15
-7.31524e-11
1.22898e-14
7.31059e-11
-6.67045e-13
-4.98438e-14
-3.0716e-09
3.07092e-09
-3.21153e-13
-2.77828e-14
-1.65449e-09
1.65406e-09
-1.30201e-13
-1.49067e-14
-8.1368e-10
8.13441e-10
-3.81608e-14
-7.0911e-15
-3.36742e-10
3.36626e-10
-1.46935e-15
-8.00571e-11
8.0009e-11
1.70015e-12
-2.35588e-13
-4.59789e-09
3.38642e-13
4.59913e-09
8.05359e-13
-1.03668e-13
-2.47142e-09
2.01346e-13
2.47224e-09
3.03541e-13
-3.60304e-14
-1.21418e-09
1.10697e-13
1.21464e-09
6.35002e-14
-6.12635e-15
-5.02315e-10
5.14322e-14
5.02553e-10
-4.2791e-15
-1.19436e-10
1.38135e-14
1.19522e-10
1.0249e-12
2.45919e-09
-1.25338e-13
4.92683e-13
1.32556e-09
-3.84529e-14
2.05978e-13
6.51369e-10
-1.48944e-14
6.63182e-14
2.69118e-10
-6.3413e-15
6.37863e-11
9.43744e-16
-1.17456e-12
1.15712e-13
-2.5178e-13
2.45837e-09
-5.67275e-13
2.97798e-14
-1.21226e-13
1.32506e-09
-2.32427e-13
1.0603e-14
-5.64409e-14
6.51098e-10
-6.90233e-14
5.63314e-15
-2.3885e-14
2.68989e-10
-2.19398e-15
-5.15543e-15
6.37325e-11
1.07241e-12
4.59939e-09
1.61853e-13
-1.10249e-13
4.96386e-13
2.47429e-09
4.77033e-14
-6.09014e-14
1.97255e-13
1.21639e-09
1.21378e-14
-2.99822e-14
5.41169e-14
5.0354e-10
4.33155e-16
-1.0495e-14
1.19785e-10
-8.3154e-16
-5.93323e-15
-1.52944e-12
-1.04303e-13
4.59816e-09
7.79708e-14
-7.28284e-13
-2.22331e-14
2.47346e-09
4.08359e-14
-2.89918e-13
-3.13796e-15
1.21593e-09
2.2669e-14
-7.93703e-14
4.5105e-16
5.03311e-10
1.169e-14
2.50048e-15
1.197e-10
2.6619e-15
-1.09549e-12
2.44123e-09
-6.75772e-14
-5.3987e-13
1.31559e-09
-2.22301e-14
-2.1953e-13
6.46465e-10
-9.5715e-15
-5.63787e-14
2.67081e-10
-4.85232e-15
6.32912e-11
-9.14262e-16
1.0145e-12
-5.48087e-14
1.81007e-13
2.44205e-09
4.86319e-13
-4.98337e-14
1.13296e-13
1.31606e-09
1.9519e-13
-2.86054e-14
6.53034e-14
6.46726e-10
5.17383e-14
-1.11482e-14
3.09172e-14
2.67212e-10
-3.86452e-15
9.32547e-15
6.33415e-11
-1.27087e-12
2.43998e-09
-3.4739e-13
-6.31334e-13
1.31498e-09
-1.7694e-13
-2.66657e-13
6.4616e-10
-8.65931e-14
-8.00583e-14
2.66966e-10
-3.4311e-14
6.32613e-11
-1.18417e-14
1.18255e-12
3.39985e-13
-1.75346e-13
2.44089e-09
5.74718e-13
1.77527e-13
-1.05709e-13
1.31549e-09
2.40989e-13
8.85901e-14
-5.97404e-14
6.46438e-10
7.54373e-14
3.70332e-14
-3.00742e-14
2.671e-10
1.10497e-14
-4.90903e-15
6.33184e-11
-1.38497e-12
1.34443e-13
4.39063e-09
-6.97063e-13
7.9677e-14
2.36224e-09
-2.96584e-13
4.69359e-14
1.16083e-09
-8.91907e-14
2.43527e-14
4.80249e-10
5.15102e-15
1.14123e-10
-1.49253e-12
4.39059e-09
-7.42778e-13
2.36209e-09
-3.04685e-13
1.16081e-09
-7.68058e-14
4.80205e-10
1.14114e-10
1.40438e-12
-2.24317e-13
4.39192e-09
6.78343e-13
-1.36122e-13
2.36303e-09
2.82185e-13
-7.66556e-14
1.16125e-09
8.67808e-14
-3.6859e-14
4.80451e-10
-8.50161e-15
1.14205e-10
1.54713e-12
4.39196e-09
7.4717e-13
2.36296e-09
3.04851e-13
1.1613e-09
8.25975e-14
4.80451e-10
1.14203e-10
1.62982e-12
1.21446e-13
4.59588e-09
7.80963e-13
5.99511e-14
2.47242e-09
3.23084e-13
2.1872e-14
1.21539e-09
1.00026e-13
3.17356e-15
5.03108e-10
2.53276e-15
1.19733e-10
1.09981e-12
4.59869e-09
-9.81033e-14
4.95008e-13
2.4739e-09
-6.04861e-14
1.88337e-13
1.21619e-09
-3.21081e-14
4.90559e-14
5.03408e-10
-1.20332e-14
1.19748e-10
-6.53041e-15
-1.34223e-12
4.59752e-09
1.24108e-13
-6.28758e-13
2.47311e-09
7.29613e-14
-2.47372e-13
1.21574e-09
4.04817e-14
-6.60274e-14
5.03182e-10
1.8688e-14
1.19666e-10
6.27792e-15
1.33104e-12
-1.6718e-14
2.45809e-09
6.5413e-13
-5.24838e-14
1.32495e-09
2.77708e-13
-5.05305e-14
6.51099e-10
8.4918e-14
-3.37805e-14
2.69008e-10
-6.09107e-15
6.3762e-11
-1.04054e-12
2.44175e-09
6.68963e-14
-5.0463e-13
1.3158e-09
5.38553e-14
-2.00865e-13
6.46543e-10
2.68296e-14
-5.21953e-14
2.67141e-10
8.97469e-15
6.33042e-11
2.69858e-15
1.31548e-12
7.4138e-14
1.25725e-13
2.44281e-09
6.24002e-13
1.40525e-14
8.67996e-14
1.3164e-09
2.42793e-13
4.26066e-15
6.22823e-14
6.46876e-10
5.84106e-14
3.12525e-15
3.61401e-14
2.67304e-10
-3.21212e-16
9.62579e-15
6.33627e-11
-1.32422e-12
4.39181e-09
3.19517e-13
-6.62515e-13
2.3625e-09
1.96391e-13
-2.82443e-13
1.16109e-09
1.10309e-13
-8.85251e-14
4.80322e-10
5.32801e-14
1.14142e-10
1.12148e-14
1.75143e-12
-5.96907e-14
4.39317e-09
8.61944e-13
-3.46903e-14
2.36341e-09
3.52634e-13
-1.5328e-14
1.16158e-09
9.92742e-14
-5.37917e-15
4.80559e-10
-4.63263e-16
1.14234e-10
1.15335e-12
1.09332e-13
4.59972e-09
5.3819e-13
2.8463e-14
2.47454e-09
2.2157e-13
5.56717e-15
1.21651e-09
7.4052e-14
-3.02186e-15
5.03555e-10
3.59624e-16
1.19815e-10
-6.63699e-13
-1.28941e-13
-2.81182e-09
3.10648e-13
2.8111e-09
-3.20339e-13
-8.3204e-14
-1.51529e-09
1.92823e-13
1.51483e-09
-1.33016e-13
-5.00399e-14
-7.44922e-10
1.13345e-13
7.44673e-10
-4.27503e-14
-2.5608e-14
-3.08071e-10
5.71873e-14
3.07953e-10
-5.54174e-15
-7.31358e-11
1.31997e-14
7.30876e-11
-6.32023e-13
-3.07111e-09
3.07039e-09
-2.9964e-13
-1.65423e-09
1.65379e-09
-1.21866e-13
-8.1355e-10
8.13308e-10
-3.9391e-14
-3.36686e-10
3.36571e-10
-8.00444e-11
7.99961e-11
1.62062e-12
-2.76622e-13
3.37662e-13
-4.59649e-09
4.59771e-09
7.80738e-13
-1.27729e-13
1.8966e-13
-2.47078e-09
2.47155e-09
3.1637e-13
-5.27211e-14
9.68804e-14
-1.2138e-09
1.21422e-09
8.85014e-14
-1.79819e-14
4.07934e-14
-5.02226e-10
5.02431e-10
-4.75168e-15
1.18619e-14
-1.19386e-10
1.19468e-10
9.82976e-13
2.45924e-09
4.6763e-13
1.32567e-09
1.8876e-13
6.51396e-10
5.18951e-14
2.69165e-10
6.37817e-11
-1.26872e-12
-2.69994e-13
2.45841e-09
-6.19748e-13
-1.40025e-13
1.32514e-09
-2.5033e-13
-7.02716e-14
6.51098e-10
-6.61255e-14
-3.19347e-14
2.69018e-10
-6.94911e-15
6.37258e-11
9.51488e-13
2.40461e-13
2.45964e-09
4.42666e-13
1.22875e-13
1.32587e-09
1.73665e-13
6.05922e-14
6.51538e-10
4.59434e-14
2.65155e-14
2.69218e-10
6.58408e-15
6.38098e-11
1.59477e-12
-2.59739e-13
3.333e-13
-4.59533e-09
4.59653e-09
7.72848e-13
-1.275e-13
2.00134e-13
-2.47005e-09
2.4708e-09
3.17087e-13
-5.77747e-14
1.10586e-13
-1.21348e-09
1.21388e-09
8.84288e-14
-2.16657e-14
5.08414e-14
-5.02065e-10
5.0226e-10
-6.77891e-15
1.41404e-14
-1.19379e-10
1.19456e-10
9.68084e-13
-1.48222e-13
2.45882e-09
4.56194e-13
-4.90605e-14
1.32533e-09
1.83452e-13
-1.60747e-14
6.51228e-10
5.21521e-14
-2.44654e-15
2.69096e-10
-6.70606e-16
6.3788e-11
-1.287e-12
2.44143e-09
-3.65746e-13
-6.15955e-13
1.31559e-09
-1.96235e-13
-2.3815e-13
6.46437e-10
-1.10018e-13
-5.22855e-14
2.67074e-10
-5.62507e-14
6.33081e-11
-1.16582e-14
1.25577e-12
-1.40693e-13
3.44135e-13
2.44235e-09
6.07095e-13
-6.9969e-14
1.92285e-13
1.31615e-09
2.38593e-13
-2.59085e-14
1.0678e-13
6.4676e-10
5.53176e-14
-5.12593e-15
5.18982e-14
2.67243e-10
-1.93407e-15
1.1658e-14
6.33689e-11
-1.52893e-12
-2.194e-13
4.39254e-09
-7.53568e-13
-1.11076e-13
2.36296e-09
-3.20537e-13
-4.79428e-14
1.1612e-09
-1.0144e-13
-1.4638e-14
4.80355e-10
-5.75313e-15
1.14169e-10
1.6562e-12
-1.12363e-13
4.5973e-09
8.01507e-13
-1.04135e-13
2.47312e-09
3.35404e-13
-6.71654e-14
1.21585e-09
1.0284e-13