/*--------------------------------*- C++ -*----------------------------------*\
| =========                 |                                                 |
| \\      /  F ield         | OpenFOAM: The Open Source CFD Toolbox           |
|  \\    /   O peration     | Version:  2206                                  |
|   \\  /    A nd           | Website:  www.openfoam.com                      |
|    \\/     M anipulation  |                                                 |
\*---------------------------------------------------------------------------*/
FoamFile
{
    version     2.0;
    format      ascii;
    arch        "LSB;label=32;scalar=64";
    class       volVectorField;
    location    "70";
    object      wallShearStress;
}
// * * * * * * * * * * * * * * * * * * * * * * * * * * * * * * * * * * * * * //

dimensions      [0 2 -2 0 0 0 0];

internalField   uniform (0 0 0);

boundaryField
{
    topPatch
    {
        type            calculated;
        value           nonuniform List<vector> 0();
    }
    wall
    {
        type            calculated;
        value           nonuniform List<vector> 
7803
(
(-2.10052e-08 -1.52174e-09 -0.000113718)
(1.88264e-08 9.2144e-10 -0.000121075)
(-4.19664e-09 -4.79374e-09 -0.000113874)
(-2.91408e-09 3.72894e-09 -0.000121209)
(-1.8248e-08 4.01293e-09 -0.000121056)
(-4.32692e-09 -3.11024e-09 -0.000121175)
(1.52829e-08 -2.46375e-09 -0.000113749)
(4.16374e-09 -2.49332e-09 -0.000121209)
(-4.16355e-09 6.39763e-09 -0.000113904)
(5.0823e-09 -5.43158e-09 -0.000113896)
(4.76809e-09 4.02932e-09 -0.00011388)
(-1.73836e-08 -1.34787e-09 -0.000121093)
(-1.88589e-08 1.99626e-09 -0.000113747)
(1.85952e-08 2.10028e-09 -0.000113738)
(4.27059e-09 2.94092e-09 -0.000121182)
(1.88286e-08 -1.95609e-09 -0.000121057)
(-5.22148e-09 8.91881e-09 -0.000121079)
(1.47931e-08 3.30711e-09 -0.000113875)
(-1.35904e-08 -1.13425e-09 -0.000121176)
(-5.13694e-09 1.39556e-08 -0.000115567)
(-3.64573e-09 5.41527e-09 -0.000117145)
(1.07474e-08 -1.66059e-08 -0.000121063)
(4.95084e-09 3.47718e-09 -0.000113877)
(-4.7337e-09 -2.86214e-09 -0.00011386)
(4.99041e-09 1.56947e-09 -0.000121196)
(-3.63108e-09 5.02838e-09 -0.00012119)
(9.10213e-09 -1.16963e-09 -0.000114373)
(-1.09435e-08 6.46058e-09 -0.00011439)
(1.28331e-08 -3.60208e-10 -0.000114293)
(-1.07815e-08 -2.37666e-12 -0.000114372)
(-4.79488e-10 8.43009e-09 -0.000120108)
(1.94706e-08 -9.26809e-09 -0.000120087)
(-4.20129e-09 -2.02965e-09 -0.000120113)
(-2.00571e-08 1.03704e-08 -0.000120122)
(9.97944e-09 5.1013e-10 -0.000121154)
(5.64772e-09 -1.86633e-09 -0.000121165)
(-4.49205e-09 -8.2036e-10 -0.000121165)
(-1.68076e-08 7.12698e-10 -0.00011389)
(1.06104e-08 4.4819e-09 -0.000114384)
(-1.08508e-08 -4.58758e-09 -0.000114411)
(5.33543e-09 -1.97468e-09 -0.00012012)
(1.76991e-09 1.02259e-08 -0.000120138)
(-7.09206e-09 -5.01936e-09 -0.000121189)
(-5.26821e-09 -1.36656e-08 -0.000115586)
(-2.64412e-09 -1.62789e-09 -0.000117152)
(9.05372e-09 1.44387e-08 -0.000121086)
(4.80379e-09 -2.105e-09 -0.000113909)
(-6.67935e-09 1.85753e-09 -0.000113887)
(-5.74826e-09 7.06679e-10 -0.000113899)
(-1.05866e-08 1.69891e-08 -0.000121055)
(-5.57036e-09 1.44012e-10 -0.000113877)
(-1.10122e-08 1.89375e-09 -0.000114332)
(8.33553e-09 -1.81463e-09 -0.00011444)
(-1.94606e-08 -9.07079e-09 -0.00012012)
(8.34117e-09 -1.58354e-09 -0.000121186)
(-7.036e-09 -1.07046e-08 -0.000121081)
(1.30559e-08 -2.61759e-09 -0.000113895)
(7.64754e-09 -9.39201e-09 -0.000121079)
(-1.4338e-08 -2.02965e-09 -0.000113878)
(-6.37323e-09 4.10191e-09 -0.000121164)
(-1.20476e-08 2.0669e-10 -0.000121157)
(6.91651e-10 9.27319e-09 -0.000121098)
(-9.51413e-09 -1.76025e-08 -0.000121081)
(-8.91479e-09 9.15286e-09 -0.000115536)
(2.6611e-09 -4.33928e-09 -0.000116965)
(-1.27848e-09 6.5568e-09 -0.000117091)
(5.3591e-09 -8.94073e-09 -0.000115385)
(7.66404e-10 -7.77977e-09 -0.000120895)
(1.66853e-08 2.88361e-09 -0.000114324)
(-8.67461e-09 -4.02347e-10 -0.000114392)
(2.46755e-08 1.4201e-08 -0.000120098)
(-1.17114e-08 -4.60614e-09 -0.000120122)
(-9.82341e-09 1.33661e-08 -0.00012106)
(6.49469e-09 -1.61021e-08 -0.000115503)
(-4.19437e-09 6.58638e-09 -0.000117148)
(3.80989e-09 -3.25803e-09 -0.000117065)
(-5.57997e-09 1.29927e-08 -0.00011557)
(-9.67642e-09 1.61327e-08 -0.000121056)
(-9.44999e-09 -2.83354e-09 -0.000114399)
(7.27534e-09 3.2108e-09 -0.000114391)
(-3.56711e-09 4.9419e-09 -0.00012014)
(8.34497e-09 3.23261e-09 -0.000120128)
(-1.339e-08 2.16627e-10 -0.00011431)
(8.90118e-09 2.23355e-09 -0.000114404)
(-1.97926e-08 1.10875e-08 -0.000120077)
(1.78596e-08 -8.81865e-09 -0.000120112)
(-8.40232e-09 3.45841e-09 -0.000114362)
(8.72578e-09 -3.6603e-09 -0.000114372)
(-3.32435e-09 -4.96678e-09 -0.000120105)
(2.58761e-09 4.86574e-09 -0.000120116)
(8.22487e-09 7.02142e-09 -0.000115535)
(-2.07056e-10 -8.58597e-09 -0.000116959)
(5.09265e-09 7.30247e-09 -0.000117095)
(-6.04576e-09 -7.39782e-09 -0.000115403)
(-5.071e-09 -1.09477e-08 -0.000120911)
(6.61011e-09 1.4809e-08 -0.000115526)
(-3.03504e-09 -9.53911e-10 -0.000117158)
(4.2185e-09 6.51393e-09 -0.000117069)
(-5.78096e-09 -1.19455e-08 -0.00011559)
(-9.5727e-09 -1.39547e-08 -0.000121091)
(-1.10983e-08 -1.92923e-08 -0.000121081)
(9.64376e-09 1.50407e-08 -0.000121089)
(-6.07307e-09 -1.63735e-08 -0.00011553)
(2.52492e-09 2.37326e-09 -0.000117177)
(-3.13768e-09 -5.88422e-09 -0.000117083)
(5.37959e-09 1.17625e-08 -0.000115593)
(-6.06261e-09 1.8129e-08 -0.000115502)
(4.23582e-09 -2.41103e-09 -0.000117157)
(-3.60728e-09 6.21016e-09 -0.000117069)
(4.73927e-09 -1.00077e-08 -0.000115574)
(9.80576e-09 -1.5459e-08 -0.00012106)
(2.58401e-08 1.54797e-08 -0.000120175)
(2.20207e-09 1.00222e-08 -0.000120901)
(-1.20475e-08 -7.71234e-09 -0.000115538)
(4.48327e-10 7.64501e-09 -0.000116972)
(-2.89617e-09 -6.7483e-09 -0.000117093)
(4.29299e-09 8.17167e-09 -0.000115395)
(-1.64958e-09 9.41792e-09 -0.000120896)
(1.19468e-08 -8.52389e-09 -0.000115532)
(-2.95918e-09 7.67055e-09 -0.000116967)
(3.71749e-09 -6.06882e-09 -0.000117098)
(-3.16622e-09 8.00525e-09 -0.000115396)
(7.02885e-09 -5.73469e-10 -0.000113922)
(5.44904e-09 8.22927e-10 -0.000121207)
(-8.0161e-09 -1.2763e-08 -0.000121097)
(-3.11036e-09 6.46949e-09 -0.000113907)
(-2.85372e-09 3.28337e-09 -0.000121214)
(-4.05141e-09 1.39413e-08 -0.000115581)
(5.22078e-09 -1.29154e-09 -0.000117082)
(-3.7254e-09 7.35094e-09 -0.000117152)
(5.92271e-09 -1.48517e-08 -0.000115512)
(-5.38983e-09 -1.02331e-08 -0.000115595)
(3.77818e-09 5.38433e-09 -0.000117083)
(-2.9024e-09 -3.10184e-09 -0.000117163)
(6.2184e-09 1.64025e-08 -0.000115536)
(1.10317e-08 1.94391e-08 -0.000121097)
(7.4162e-09 1.47753e-09 -0.000114406)
(-7.59844e-09 -2.73022e-09 -0.000114409)
(4.93306e-09 -4.51492e-10 -0.000120147)
(-8.39403e-09 -1.6114e-09 -0.000120163)
(1.03143e-08 -1.03635e-10 -0.000121153)
(7.64537e-09 -1.53466e-09 -0.000121178)
(1.53173e-08 5.08245e-09 -0.000113884)
(5.31653e-09 2.2909e-10 -0.000113885)
(-1.70052e-08 4.75076e-09 -0.000121059)
(-5.27077e-09 -2.29487e-09 -0.000121173)
(2.18228e-09 -6.39515e-09 -0.000120899)
(-1.97494e-08 -1.43964e-09 -0.000113711)
(-3.22512e-09 -5.06988e-09 -0.000113881)
(1.74382e-08 -1.01255e-08 -0.000120111)
(2.59908e-09 7.02941e-09 -0.000120127)
(-9.3969e-09 1.34368e-08 -0.000121064)
(1.07171e-08 -1.93002e-08 -0.000121072)
(9.81264e-09 3.01195e-09 -0.000114415)
(-1.3402e-08 -3.53448e-10 -0.000114305)
(7.91125e-09 -2.90083e-09 -0.000114378)
(-8.3206e-09 5.7828e-09 -0.000114372)
(-4.64783e-09 -3.63262e-09 -0.000120111)
(-2.17258e-08 1.25986e-08 -0.000120088)
(3.05942e-09 -9.78876e-09 -0.000115386)
(-5.85732e-10 3.74406e-09 -0.000117092)
(1.79742e-09 -6.45267e-09 -0.000116967)
(-1.02953e-08 9.47621e-09 -0.000115544)
(-7.3886e-09 1.0968e-08 -0.000121081)
(-1.14804e-08 -7.96481e-09 -0.000113661)
(1.26091e-08 -4.23037e-09 -0.000120999)
(-2.58061e-08 -4.13146e-09 -0.000121226)
(-7.37783e-09 -9.04967e-09 -0.000113736)
(-7.67422e-09 6.08449e-09 -0.000121082)
(4.6085e-09 5.42557e-09 -0.000121106)
(-6.70294e-09 -3.06444e-10 -0.000121249)
(1.31447e-08 2.27131e-09 -0.000121013)
(-8.18464e-09 -4.37182e-09 -0.000121228)
(-8.5523e-09 -4.57637e-09 -0.000121254)
(4.56564e-09 7.31541e-09 -0.000121083)
(-5.92091e-09 -7.82442e-09 -0.000121231)
(9.9693e-09 3.90385e-09 -0.000121003)
(-1.13057e-08 -3.62123e-09 -0.000121002)
(-5.05409e-09 -1.03131e-08 -0.00012104)
(8.84599e-09 -9.21269e-09 -0.000113659)
(-2.26087e-08 3.00288e-09 -0.000113987)
(6.06897e-09 -8.28674e-09 -0.000121112)
(-7.95877e-09 6.88709e-09 -0.000113786)
(5.68e-09 -1.10642e-08 -0.000113797)
(6.27737e-09 6.99588e-09 -0.000113765)
(-1.15489e-08 4.26209e-09 -0.000121002)
(-1.31575e-08 5.90213e-09 -0.000113667)
(1.18918e-08 5.62564e-09 -0.000113663)
(7.52159e-09 3.13964e-09 -0.000121066)
(1.24551e-08 3.62306e-09 -0.000120985)
(8.83346e-09 1.42299e-10 -0.000114312)
(-1.05279e-08 1.63993e-09 -0.000114463)
(9.97949e-09 3.80219e-09 -0.000114246)
(-5.92524e-09 -5.98472e-09 -0.000114438)
(3.38208e-09 6.94338e-09 -0.000120044)
(1.92758e-08 -6.48625e-09 -0.000120033)
(-1.06973e-08 2.5608e-10 -0.000114474)
(9.01572e-09 2.68585e-09 -0.000114298)
(-7.71111e-09 -6.19864e-09 -0.000114454)
(8.45462e-09 5.04674e-09 -0.000114234)
(1.3241e-08 -8.96635e-09 -0.000115406)
(-3.31853e-09 8.34589e-09 -0.00011721)
(2.02775e-11 -6.53493e-09 -0.000116984)
(-1.47253e-09 9.12834e-09 -0.000115635)
(1.43816e-08 7.86988e-09 -0.000121136)
(3.13217e-08 -9.93722e-10 -0.000113936)
(1.71513e-08 -1.35307e-08 -0.000120898)
(-6.0304e-09 -6.98186e-09 -0.000113698)
(-2.51634e-08 -5.58578e-09 -0.000121205)
(-3.17608e-09 -9.24587e-09 -0.000121011)
(1.39062e-08 -1.13213e-08 -0.000121117)
(7.97849e-09 7.61381e-09 -0.000113929)
(6.41454e-09 -6.90741e-09 -0.00012125)
(1.17212e-08 -9.05625e-10 -0.000114271)
(-1.20649e-08 6.02189e-11 -0.000114458)
(6.40374e-09 6.85269e-09 -0.000114215)
(-8.18046e-09 -6.7216e-09 -0.000114442)
(-7.19268e-09 8.90304e-10 -0.000121237)
(5.23455e-09 5.52382e-09 -0.00012109)
(-7.66395e-09 -3.2829e-09 -0.000121215)
(1.02152e-08 2.98134e-09 -0.000121004)
(-1.10488e-08 5.34344e-10 -0.000114476)
(9.31009e-09 1.57082e-09 -0.000114273)
(-6.14141e-09 -7.17048e-09 -0.000114456)
(7.12199e-09 6.22828e-09 -0.000114218)
(-4.00689e-09 -8.88021e-09 -0.000120208)
(-1.73702e-08 3.1643e-09 -0.000120214)
(8.50703e-09 2.11962e-09 -0.000114288)
(-1.2136e-08 1.46604e-09 -0.000114477)
(6.83393e-09 5.97604e-09 -0.000114232)
(-5.85861e-09 -6.98657e-09 -0.000114455)
(7.05859e-09 4.64717e-09 -0.000121065)
(-8.0313e-09 -1.03901e-09 -0.000121252)
(1.13825e-08 3.9121e-09 -0.000120988)
(-7.14033e-09 -5.58318e-09 -0.000121231)
(2.08452e-08 -2.66429e-09 -0.000121208)
(-1.49536e-09 -6.8768e-09 -0.000121021)
(8.00791e-09 4.69844e-09 -0.000121212)
(-1.63257e-08 -9.56103e-09 -0.00011541)
(4.3576e-09 8.64575e-09 -0.000117214)
(-3.48373e-09 -6.94055e-09 -0.000116989)
(3.84473e-09 1.019e-08 -0.000115642)
(-3.29435e-08 -1.49912e-09 -0.000113939)
(4.54986e-09 -7.60046e-09 -0.000113694)
(8.83766e-09 -3.0402e-09 -0.000114309)
(-9.08914e-09 2.56773e-09 -0.000114494)
(7.10947e-09 -2.8181e-09 -0.000114351)
(1.10471e-09 -1.28512e-08 -0.00012005)
(2.62879e-09 1.78991e-08 -0.000120213)
(-8.22447e-09 4.09057e-09 -0.000121282)
(4.50396e-09 -9.64767e-09 -0.000121139)
(6.46894e-09 -8.59993e-09 -0.00011397)
(9.55027e-09 8.58928e-09 -0.000115493)
(7.87987e-09 6.06975e-09 -0.000117059)
(-7.93375e-09 6.72043e-09 -0.000113982)
(6.45868e-09 -9.29428e-09 -0.000113818)
(1.0105e-08 -1.13892e-08 -0.000115472)
(7.2257e-09 -2.72503e-09 -0.000117051)
(-1.35418e-08 1.17903e-08 -0.000121132)
(-8.66079e-09 -5.314e-09 -0.000113954)
(8.5878e-09 6.94109e-09 -0.000113784)
(-4.09618e-09 8.64095e-09 -0.000114233)
(7.5579e-09 -8.67654e-09 -0.000114485)
(5.25555e-09 -7.76606e-09 -0.000121223)
(1.0258e-08 -7.81673e-09 -0.000113932)
(1.26633e-08 -1.48433e-08 -0.000121111)
(-1.08528e-08 -7.36023e-09 -0.000113928)
(-9.1749e-09 -2.55726e-09 -0.000121235)
(7.51092e-09 4.25271e-09 -0.000121096)
(-7.81942e-09 -6.36815e-09 -0.000121213)
(1.75273e-08 3.75041e-09 -0.00011387)
(-8.23412e-09 3.45552e-09 -0.000121168)
(6.10396e-09 2.44038e-09 -0.000113872)
(5.6994e-09 1.99343e-09 -0.000121181)
(-1.53651e-08 -2.82352e-09 -0.000113711)
(1.80435e-08 2.26795e-09 -0.000113877)
(1.54714e-08 1.15809e-09 -0.000121064)
(-1.74306e-08 -2.01702e-09 -0.000121176)
(-5.11024e-09 -2.03597e-09 -0.00011386)
(7.12674e-09 2.21049e-11 -0.000113874)
(-5.46227e-09 -1.65827e-10 -0.000121195)
(4.49496e-09 -1.87401e-09 -0.000121188)
(-1.44567e-08 -3.23222e-09 -0.000113724)
(1.91527e-08 1.95761e-09 -0.000113884)
(1.71222e-08 2.18335e-09 -0.000121068)
(-1.26912e-08 4.92121e-10 -0.000121172)
(-3.97088e-09 -4.75431e-09 -0.000113863)
(7.17339e-09 -6.65769e-10 -0.000113874)
(-2.85342e-09 3.3331e-09 -0.000121204)
(4.76008e-09 -3.83045e-10 -0.000121194)
(-1.45625e-08 -2.23693e-09 -0.000113727)
(1.77721e-08 2.80385e-09 -0.000113889)
(1.25501e-08 -1.98915e-11 -0.00012107)
(-1.64483e-08 -1.39712e-09 -0.000121179)
(-5.11856e-09 -2.68551e-09 -0.000113865)
(7.2257e-09 -2.36813e-10 -0.000113878)
(-3.95989e-09 6.75468e-10 -0.000121213)
(5.27285e-09 2.00108e-10 -0.0001212)
(-1.64553e-08 -3.10938e-09 -0.000113734)
(1.71893e-08 3.37416e-09 -0.000113895)
(1.77386e-08 2.69968e-09 -0.000121071)
(-1.05382e-08 2.49181e-09 -0.000121176)
(-5.89512e-09 -3.81244e-09 -0.000113871)
(7.08812e-09 5.39604e-10 -0.000113889)
(-3.54031e-09 2.28754e-09 -0.000121216)
(6.20043e-09 1.69611e-09 -0.00012121)
(-1.56314e-08 -2.37214e-09 -0.000113747)
(1.61151e-08 2.33195e-09 -0.000113911)
(1.37728e-08 5.00577e-10 -0.000121077)
(-1.59001e-08 -1.48666e-09 -0.000121194)
(-5.10552e-09 -3.28526e-09 -0.000113885)
(6.53479e-09 8.07903e-10 -0.000113905)
(-3.86769e-09 1.60532e-09 -0.00012122)
(3.60743e-09 -2.37653e-09 -0.000121216)
(-1.6525e-08 -2.33423e-09 -0.000113762)
(1.62286e-08 3.9272e-09 -0.000113924)
(1.69166e-08 2.39496e-09 -0.000121091)
(-7.68278e-09 4.0425e-09 -0.000121196)
(-5.38721e-09 -2.96118e-09 -0.000113899)
(6.09982e-09 9.98258e-10 -0.000113908)
(-5.29567e-09 -9.74008e-10 -0.000121232)
(4.29156e-09 -1.36695e-09 -0.000121219)
(-1.97161e-08 -6.93412e-10 -0.000113765)
(1.31541e-08 3.48314e-09 -0.000113924)
(1.51167e-08 1.27481e-09 -0.000121087)
(-1.63144e-08 -2.49764e-09 -0.000121199)
(-3.38912e-09 -7.10155e-09 -0.000113892)
(7.09926e-09 -1.92004e-09 -0.000113904)
(-4.92568e-09 7.44974e-10 -0.000121233)
(3.34442e-09 -2.09665e-09 -0.000121225)
(-1.6779e-08 -3.35898e-09 -0.000113765)
(1.89789e-08 9.32423e-10 -0.000113924)
(1.60111e-08 1.75712e-09 -0.000121098)
(-8.76448e-09 2.35049e-09 -0.000121205)
(-5.43051e-09 -4.59826e-09 -0.00011389)
(5.1e-09 1.29613e-09 -0.000113901)
(-4.22335e-09 2.60056e-09 -0.00012124)
(4.12029e-09 -7.22555e-10 -0.000121228)
(-1.47387e-08 -2.22237e-09 -0.000113768)
(1.72036e-08 1.7815e-09 -0.000113925)
(1.7362e-08 2.15867e-09 -0.000121099)
(-1.57471e-08 -1.68167e-09 -0.000121209)
(-5.98052e-09 -2.91431e-10 -0.000113892)
(6.07091e-09 3.03468e-09 -0.000113907)
(-4.6259e-09 6.65625e-10 -0.000121242)
(3.8982e-09 -6.79209e-10 -0.000121229)
(-1.38335e-08 -2.53605e-09 -0.000113766)
(1.68512e-08 2.41742e-09 -0.000113922)
(1.49583e-08 1.05447e-09 -0.000121095)
(-9.2037e-09 1.94535e-09 -0.000121195)
(-4.37574e-09 -3.71945e-09 -0.000113886)
(5.9216e-09 1.02751e-09 -0.000113894)
(-2.53474e-09 3.90214e-09 -0.000121231)
(5.16731e-09 5.31555e-10 -0.000121221)
(-1.80532e-08 -2.48633e-09 -0.000113754)
(1.685e-08 1.34043e-09 -0.00011391)
(1.29246e-08 9.28029e-10 -0.00012108)
(-1.5294e-08 -7.42831e-10 -0.000121185)
(-6.60007e-09 4.64918e-10 -0.000113873)
(5.17862e-09 4.50749e-10 -0.00011388)
(-4.12216e-09 -3.5561e-10 -0.000121224)
(4.75849e-09 -1.73516e-09 -0.000121208)
(-1.60698e-08 -1.99597e-09 -0.000113745)
(1.25407e-08 5.06197e-09 -0.000113906)
(1.50986e-08 6.62803e-10 -0.00012107)
(-1.16552e-08 9.15728e-10 -0.000121176)
(-3.58532e-09 -4.40321e-09 -0.000113859)
(6.66398e-09 1.01089e-09 -0.000113874)
(-4.53061e-09 1.88541e-09 -0.000121207)
(4.53182e-09 -3.80558e-10 -0.000121195)
(-1.77774e-08 -8.19627e-10 -0.000113737)
(1.63672e-08 2.35331e-09 -0.000113899)
(1.35601e-08 -2.94493e-11 -0.000121055)
(-1.57209e-08 -1.80174e-09 -0.000121174)
(-4.45591e-09 -3.46106e-09 -0.000113855)
(7.10125e-09 -5.25816e-10 -0.000113876)
(-5.60791e-09 -3.48058e-12 -0.000121195)
(3.03717e-09 -2.98507e-09 -0.000121195)
(-1.59948e-08 -1.72998e-09 -0.000113725)
(1.64679e-08 3.52607e-09 -0.000113902)
(1.79236e-08 2.12015e-09 -0.000121056)
(-8.6543e-09 3.96335e-09 -0.000121185)
(-3.85173e-09 -5.05955e-09 -0.000113845)
(5.77288e-09 2.47027e-09 -0.000113884)
(-4.67512e-09 2.19661e-09 -0.000121185)
(3.73373e-09 -3.74465e-09 -0.000121205)
(-1.29383e-08 -2.8721e-09 -0.000113717)
(1.46581e-08 3.27918e-09 -0.000113922)
(1.50601e-08 8.67093e-10 -0.000121047)
(-1.18662e-08 1.55368e-09 -0.000121209)
(-4.73367e-09 -6.57745e-09 -0.000113825)
(7.05063e-09 1.64111e-09 -0.000113906)
(-5.02447e-09 1.0282e-09 -0.000121167)
(4.21954e-09 -4.11044e-09 -0.000121234)
(-1.42149e-08 -4.21295e-09 -0.000113697)
(1.63211e-08 3.61942e-09 -0.000113959)
(1.87983e-08 2.08518e-09 -0.000121024)
(-1.27615e-08 2.20145e-09 -0.000121239)
(-4.81029e-09 -9.80164e-09 -0.000113789)
(7.28414e-09 5.40744e-09 -0.000113945)
(-4.57016e-09 5.31081e-09 -0.000121129)
(6.15228e-09 -3.29009e-09 -0.000121271)
(1.25195e-08 -2.34779e-10 -0.000121147)
(5.92471e-09 -2.71852e-10 -0.000121157)
(1.28475e-08 -7.8261e-11 -0.000121147)
(-1.5415e-08 1.80946e-09 -0.000121048)
(6.37554e-09 -7.31591e-10 -0.000121157)
(-5.23687e-09 -5.75857e-10 -0.000121168)
(-1.33664e-08 3.36648e-09 -0.000113887)
(1.88076e-08 1.44583e-09 -0.000113867)
(-1.41236e-08 -3.89669e-09 -0.000113712)
(-1.67242e-08 2.58637e-09 -0.000113892)
(1.84941e-08 -1.51673e-09 -0.000113739)
(-2.92401e-09 2.77783e-09 -0.000121189)
(-1.3609e-08 -1.11995e-10 -0.000121171)
(2.08082e-08 4.33423e-09 -0.000121074)
(-6.80803e-09 -2.16047e-09 -0.000121188)
(5.74858e-09 7.55208e-10 -0.000121191)
(5.70785e-09 -2.33606e-09 -0.000113897)
(5.74195e-09 3.3073e-09 -0.00011387)
(-5.32984e-09 -3.07958e-09 -0.00011386)
(4.92892e-09 -5.96237e-09 -0.000113904)
(-5.24342e-09 2.24599e-09 -0.000113889)
(-4.6382e-09 5.22171e-09 -0.000113899)
(-7.02949e-09 -1.68324e-10 -0.000113879)
(-5.67135e-09 2.50458e-09 -0.0001139)
(6.33741e-09 -2.17851e-09 -0.000113882)
(-6.03194e-09 -2.74369e-09 -0.000113878)
(4.89767e-09 4.77915e-09 -0.000113871)
(1.1557e-08 -1.44632e-09 -0.000121183)
(3.69209e-09 -2.06516e-09 -0.000121189)
(-6.72561e-09 -3.57207e-09 -0.000121189)
(1.35447e-08 -2.45187e-10 -0.000121181)
(-2.26024e-08 -4.94992e-09 -0.00012109)
(1.58557e-08 -2.82454e-09 -0.000113895)
(-1.67228e-08 -2.79211e-09 -0.000113879)
(1.95666e-08 -1.07487e-09 -0.000113892)
(-1.87778e-08 2.07692e-09 -0.000113741)
(-2.06748e-08 -5.86169e-10 -0.000113878)
(1.61986e-08 1.83772e-09 -0.000113727)
(-5.61203e-09 8.10985e-10 -0.000121162)
(-1.64012e-08 1.19812e-09 -0.000121154)
(-5.29254e-09 -6.89924e-11 -0.000121162)
(4.1483e-09 6.54594e-10 -0.000121177)
(-1.51327e-08 9.54759e-10 -0.000121151)
(1.35152e-08 -8.89143e-10 -0.00012105)
(-1.56186e-08 1.61365e-09 -0.000121045)
(1.34312e-08 -2.47263e-11 -0.000121158)
(-4.60349e-09 1.10059e-10 -0.000121168)
(7.28876e-09 -3.30189e-09 -0.000121164)
(1.57061e-08 -2.02936e-09 -0.00012116)
(-1.53162e-08 1.51073e-09 -0.000121058)
(6.3677e-09 -2.34284e-09 -0.000121161)
(-2.67623e-09 -4.06638e-09 -0.000121176)
(1.7042e-08 -2.55091e-09 -0.000113734)
(-1.79437e-08 2.65373e-09 -0.000113899)
(1.97319e-08 1.30291e-09 -0.000113878)
(-1.50508e-08 -2.8928e-09 -0.000113721)
(-1.71699e-08 1.83139e-09 -0.000113896)
(1.73255e-08 -1.85582e-09 -0.000113744)
(4.55779e-09 -1.02703e-09 -0.000121198)
(-8.04851e-09 -4.70882e-09 -0.000121193)
(-1.5371e-08 -1.62486e-09 -0.000121176)
(1.63154e-08 2.09537e-09 -0.000121075)
(-8.28585e-09 -6.08508e-09 -0.000121188)
(2.78212e-09 -3.47187e-09 -0.000121206)
(-6.54321e-09 5.23348e-10 -0.000113889)
(7.18868e-09 -1.32871e-09 -0.000113903)
(6.55805e-09 7.68185e-10 -0.00011387)
(-4.20199e-09 -5.48741e-09 -0.000113862)
(6.09502e-09 -1.65119e-09 -0.000113906)
(-4.50932e-09 4.41612e-09 -0.000113894)
(4.72796e-09 -4.69553e-09 -0.000113888)
(-7.48245e-09 -5.59364e-10 -0.000113906)
(4.33404e-09 4.43179e-09 -0.000113869)
(-6.31891e-09 -1.09523e-10 -0.000113881)
(-6.631e-09 2.78998e-10 -0.000113904)
(4.38833e-09 -7.22696e-09 -0.000113894)
(-6.04342e-09 -2.29904e-09 -0.000113879)
(4.71324e-09 5.58396e-09 -0.000113871)
(-1.33044e-08 -4.57905e-11 -0.000121078)
(1.19192e-08 -1.0003e-09 -0.00012119)
(5.48778e-09 1.47455e-09 -0.000121195)
(-7.47514e-09 -5.08864e-09 -0.000121196)
(1.16327e-08 -8.80544e-10 -0.000121187)
(-2.16527e-08 -5.66064e-09 -0.000121097)
(-1.60955e-08 2.99431e-09 -0.000113734)
(1.72275e-08 -2.75107e-09 -0.000113899)
(1.49269e-08 3.28426e-09 -0.000113721)
(-1.9159e-08 -1.42705e-09 -0.000113881)
(1.73342e-08 -2.06715e-09 -0.000113894)
(-1.79506e-08 1.82344e-09 -0.000113745)
(-1.68669e-08 -3.42551e-09 -0.000113882)
(1.54949e-08 3.47405e-09 -0.000113723)
(4.32387e-09 -3.39114e-10 -0.000121174)
(-5.9074e-09 8.72714e-10 -0.000121164)
(1.61226e-08 -1.68389e-09 -0.000121047)
(-1.45012e-08 9.76642e-10 -0.000121155)
(-6.32604e-09 2.59684e-09 -0.00012116)
(4.23801e-09 1.62691e-09 -0.000121175)
(-1.38117e-08 2.39343e-10 -0.000121157)
(1.62504e-08 -1.77346e-09 -0.00012105)
(-1.2866e-08 -5.96308e-11 -0.000121057)
(1.38628e-08 -3.85714e-10 -0.000121168)
(-3.74849e-09 -1.83783e-09 -0.000121173)
(7.35296e-09 -3.81943e-09 -0.000121164)
(1.54196e-08 -7.74073e-10 -0.000121165)
(-1.52093e-08 9.3359e-10 -0.000121065)
(5.75534e-09 -4.0704e-10 -0.000121164)
(-3.58934e-09 -2.33524e-09 -0.000121178)
(1.6365e-08 -2.78763e-09 -0.000113737)
(-1.45241e-08 3.54235e-09 -0.000113894)
(1.94296e-08 1.69103e-09 -0.00011388)
(-1.44026e-08 -3.85476e-09 -0.000113727)
(-1.96701e-08 1.87686e-09 -0.000113894)
(1.6553e-08 -2.25375e-09 -0.000113742)
(3.26531e-09 -2.00009e-09 -0.000121204)
(-1.62571e-09 5.36771e-09 -0.000121199)
(-1.79131e-08 -2.23702e-09 -0.000121176)
(1.50697e-08 1.10519e-09 -0.000121079)
(-7.78072e-09 -3.01641e-09 -0.0001212)
(6.55583e-09 2.84254e-09 -0.000121203)
(-5.49293e-09 3.02261e-09 -0.000113893)
(5.93084e-09 -3.77842e-09 -0.000113908)
(5.74182e-09 4.17416e-09 -0.000113876)
(-4.89783e-09 -4.43667e-09 -0.000113864)
(6.12513e-09 -3.12257e-09 -0.000113914)
(-5.61193e-09 2.01026e-09 -0.000113899)
(4.10865e-09 -5.27225e-09 -0.000113894)
(-4.50023e-09 6.34656e-09 -0.000113913)
(4.66756e-09 5.472e-09 -0.000113869)
(-7.28796e-09 -4.42567e-10 -0.000113881)
(-7.46898e-09 6.21648e-10 -0.000113913)
(6.94657e-09 -1.27991e-09 -0.000113898)
(-6.05468e-09 -1.32251e-09 -0.000113879)
(4.72686e-09 5.22383e-09 -0.000113874)
(-1.59306e-08 -2.51676e-09 -0.000121089)
(1.23554e-08 -4.95006e-10 -0.000121198)
(5.32796e-09 -1.98228e-10 -0.000121202)
(-6.28815e-09 -2.71314e-09 -0.000121203)
(1.32903e-08 -1.44153e-09 -0.000121189)
(-2.1078e-08 -4.47437e-09 -0.000121103)
(-1.8032e-08 1.39648e-09 -0.000113741)
(1.61713e-08 -2.54668e-09 -0.000113901)
(1.82807e-08 1.3745e-09 -0.000113723)
(-1.61651e-08 -2.65547e-09 -0.000113884)
(1.6843e-08 -3.19093e-09 -0.00011389)
(-1.83442e-08 2.18114e-09 -0.000113746)
(-1.70013e-08 -3.22105e-09 -0.000113884)
(1.81192e-08 2.17516e-09 -0.00011373)
(2.78049e-09 3.03243e-09 -0.000121174)
(-6.82583e-09 3.02274e-09 -0.000121162)
(1.78453e-08 -3.40612e-09 -0.000121054)
(-1.30198e-08 -4.1139e-10 -0.00012116)
(-7.02293e-09 3.39131e-09 -0.00012116)
(3.67487e-09 1.81814e-09 -0.000121177)
(-1.31592e-08 -3.01155e-10 -0.00012116)
(1.75544e-08 -2.52533e-09 -0.000121058)
(-1.4108e-08 9.49241e-10 -0.000121063)
(1.35095e-08 8.85033e-10 -0.000121174)
(-4.5651e-09 -5.99061e-10 -0.000121173)
(7.61305e-09 -4.17612e-09 -0.000121167)
(1.29231e-08 -6.16542e-10 -0.000121173)
(-1.74412e-08 2.27743e-09 -0.000121072)
(5.80541e-09 -3.31454e-09 -0.000121168)
(-2.22116e-09 -5.28602e-09 -0.00012118)
(1.43799e-08 -3.14398e-09 -0.000113736)
(-1.81711e-08 1.90437e-09 -0.000113897)
(1.76727e-08 1.4065e-09 -0.000113888)
(-1.61081e-08 -2.75924e-09 -0.000113733)
(-1.74238e-08 1.26561e-09 -0.000113893)
(1.55063e-08 -3.16909e-09 -0.000113739)
(2.57668e-09 -2.98257e-09 -0.000121211)
(-7.34238e-09 -3.83553e-09 -0.000121202)
(-1.39703e-08 -1.00452e-09 -0.000121176)
(1.71525e-08 1.68356e-09 -0.000121074)
(-7.33788e-09 -5.23681e-09 -0.000121201)
(4.13066e-09 -1.7595e-09 -0.000121213)
(-5.33515e-09 2.94479e-09 -0.000113904)
(5.81249e-09 -2.21998e-09 -0.000113916)
(5.7478e-09 2.15448e-09 -0.000113882)
(-4.9643e-09 -5.35098e-09 -0.000113868)
(5.84679e-09 -2.10003e-09 -0.000113919)
(-5.55818e-09 2.99654e-09 -0.000113905)
(3.14457e-09 -6.71216e-09 -0.000113901)
(-7.56971e-09 -1.21952e-09 -0.000113914)
(3.93128e-09 5.28994e-09 -0.00011387)
(-7.61398e-09 -1.04092e-09 -0.000113884)
(-5.74539e-09 1.77797e-09 -0.00011391)
(4.50998e-09 -6.10524e-09 -0.0001139)
(-6.06588e-09 -2.37556e-10 -0.000113879)
(5.38562e-09 4.75629e-09 -0.000113872)
(-1.35973e-08 -8.97353e-10 -0.000121085)
(1.14249e-08 -1.36221e-09 -0.000121191)
(5.15595e-09 1.09901e-09 -0.000121205)
(-6.29254e-09 -1.1573e-09 -0.000121206)
(1.1456e-08 -6.84808e-10 -0.000121179)
(-2.27184e-08 -5.02238e-09 -0.000121092)
(-1.81839e-08 1.06263e-09 -0.000113734)
(1.46336e-08 -3.41652e-09 -0.000113891)
(1.8837e-08 9.9147e-10 -0.000113728)
(-1.56028e-08 -2.96778e-09 -0.000113884)
(1.66301e-08 -2.47119e-09 -0.000113881)
(-1.99407e-08 1.52782e-09 -0.000113733)
(-1.66078e-08 -2.58701e-09 -0.000113882)
(1.75834e-08 2.23856e-09 -0.000113728)
(3.09765e-09 1.94624e-09 -0.000121172)
(-5.48273e-09 -7.54031e-11 -0.000121162)
(1.80615e-08 -3.4524e-09 -0.000121057)
(-1.38924e-08 -1.48211e-10 -0.000121161)
(-6.423e-09 3.73333e-09 -0.00012116)
(4.99053e-09 5.25522e-10 -0.000121174)
(-1.47559e-08 1.18997e-09 -0.000121159)
(1.67487e-08 -1.38452e-09 -0.000121055)
(-1.41151e-08 7.66416e-10 -0.000121073)
(1.39139e-08 9.07742e-12 -0.00012118)
(-4.32185e-09 -1.80868e-09 -0.00012118)
(6.86297e-09 -1.94964e-09 -0.000121175)
(1.611e-08 -6.44414e-10 -0.000121185)
(-1.56727e-08 1.64155e-09 -0.000121079)
(4.97414e-09 6.18534e-10 -0.00012118)
(-3.72628e-09 -1.92921e-09 -0.00012119)
(1.63781e-08 -2.46695e-09 -0.000113736)
(-1.524e-08 3.45243e-09 -0.000113897)
(1.87787e-08 2.00479e-09 -0.000113901)
(-1.48364e-08 -3.32854e-09 -0.000113739)
(-2.0432e-08 1.2253e-09 -0.000113902)
(1.65776e-08 -2.73941e-09 -0.000113745)
(4.03219e-09 -1.35557e-09 -0.000121215)
(-2.17679e-09 4.78711e-09 -0.000121212)
(-1.79151e-08 -2.40677e-09 -0.000121182)
(1.77932e-08 2.56139e-09 -0.000121083)
(-5.49108e-09 3.18758e-10 -0.000121212)
(6.61598e-09 2.66074e-09 -0.000121216)
(-4.79574e-09 5.05918e-09 -0.00011391)
(7.63804e-09 7.99577e-10 -0.000113926)
(5.36074e-09 3.29487e-09 -0.000113893)
(-5.08943e-09 -4.92671e-09 -0.000113878)
(5.73568e-09 -2.81746e-09 -0.000113929)
(-5.46086e-09 4.2148e-09 -0.000113915)
(4.84417e-09 -4.59251e-09 -0.000113901)
(-3.87797e-09 6.21115e-09 -0.00011392)
(3.94545e-09 6.60834e-09 -0.000113868)
(-6.97252e-09 -3.914e-10 -0.000113882)
(-4.83888e-09 4.62038e-09 -0.000113921)
(6.93671e-09 -1.11921e-09 -0.000113904)
(-4.6577e-09 -3.95473e-09 -0.000113885)
(5.01324e-09 4.22446e-09 -0.000113875)
(-1.52845e-08 -1.64028e-09 -0.000121079)
(1.15094e-08 -1.14701e-09 -0.000121188)
(4.9616e-09 -6.91132e-10 -0.000121212)
(-6.36208e-09 -2.2707e-09 -0.000121216)
(1.1039e-08 -2.68525e-09 -0.000121183)
(-2.17069e-08 -4.79735e-09 -0.000121093)
(-2.00222e-08 9.90639e-10 -0.000113727)
(1.63258e-08 -2.34078e-09 -0.000113888)
(1.87128e-08 1.09814e-09 -0.000113726)
(-1.71212e-08 -2.49828e-09 -0.000113889)
(1.57974e-08 -2.76732e-09 -0.000113886)
(-1.75771e-08 2.61696e-09 -0.000113734)
(-1.98196e-08 -1.32313e-09 -0.000113889)
(1.62022e-08 3.0074e-09 -0.000113732)
(2.90633e-09 3.67697e-09 -0.000121172)
(-7.23638e-09 2.39469e-09 -0.000121164)
(1.65465e-08 -2.52157e-09 -0.000121055)
(-1.33063e-08 -4.98942e-10 -0.000121166)
(-5.93004e-09 1.10187e-09 -0.000121164)
(4.48753e-09 9.45589e-10 -0.000121177)
(-1.4341e-08 7.48389e-10 -0.000121165)
(1.6586e-08 -2.16094e-09 -0.000121062)
(-1.30215e-08 2.81588e-10 -0.000121082)
(1.30165e-08 -4.66327e-10 -0.000121194)
(-5.35034e-09 8.72595e-10 -0.000121193)
(5.33651e-09 -2.92742e-10 -0.000121192)
(1.16412e-08 1.81923e-10 -0.000121199)
(-1.77692e-08 2.18648e-09 -0.000121096)
(4.85068e-09 -5.65714e-10 -0.000121196)
(-4.18491e-09 -1.816e-09 -0.000121209)
(1.45225e-08 -3.62192e-09 -0.000113743)
(-1.68618e-08 2.96748e-09 -0.000113913)
(1.80564e-08 1.98e-09 -0.000113915)
(-1.73671e-08 -2.94609e-09 -0.000113756)
(-1.57732e-08 2.93404e-09 -0.000113914)
(1.69991e-08 -2.87707e-09 -0.000113758)
(4.99606e-09 1.09608e-09 -0.000121224)
(-6.76585e-09 -3.88808e-09 -0.00012122)
(-1.51607e-08 -1.87096e-09 -0.000121196)
(1.66177e-08 1.81698e-09 -0.000121094)
(-9.08759e-09 -5.38953e-09 -0.000121221)
(5.20704e-09 -1.66971e-09 -0.000121231)
(-5.30809e-09 3.37799e-09 -0.000113918)
(5.57727e-09 -3.41937e-09 -0.000113936)
(5.16476e-09 3.69944e-09 -0.000113908)
(-4.78533e-09 -4.96839e-09 -0.000113895)
(3.55911e-09 -7.10525e-09 -0.000113938)
(-7.6533e-09 -4.11609e-10 -0.000113925)
(5.18324e-09 -3.14455e-09 -0.00011391)
(-6.22131e-09 -3.93138e-10 -0.000113928)
(4.99667e-09 3.93007e-09 -0.000113876)
(-5.39389e-09 -2.94552e-09 -0.000113891)
(-7.13486e-09 -2.4675e-10 -0.00011393)
(6.15151e-09 -5.04744e-09 -0.000113916)
(-4.65335e-09 -5.58074e-09 -0.000113896)
(6.6708e-09 2.54295e-09 -0.000113882)
(-1.81101e-08 -3.41054e-09 -0.000121082)
(7.44257e-09 -2.07843e-09 -0.000121191)
(3.23619e-09 -2.13278e-09 -0.00012122)
(-8.58421e-09 -5.05862e-09 -0.000121224)
(1.06168e-08 -1.30471e-09 -0.000121193)
(-2.39879e-08 -5.45161e-09 -0.000121099)
(-2.08505e-08 6.98806e-10 -0.000113733)
(1.29383e-08 -3.06908e-09 -0.000113895)
(1.66423e-08 2.98385e-09 -0.000113732)
(-1.69943e-08 -2.12135e-09 -0.000113894)
(1.66873e-08 -2.44679e-09 -0.000113899)
(-2.04366e-08 1.34074e-09 -0.000113743)
(-1.78376e-08 -1.97223e-09 -0.0001139)
(1.6924e-08 2.73094e-09 -0.000113741)
(3.6517e-09 1.33116e-09 -0.000121176)
(-4.8736e-09 6.44237e-10 -0.00012117)
(1.69074e-08 -2.04553e-09 -0.000121062)
(-1.41428e-08 1.09101e-09 -0.000121172)
(-4.19953e-09 -1.59527e-09 -0.000121175)
(5.18046e-09 7.66422e-10 -0.000121184)
(-1.34645e-08 6.76054e-11 -0.000121179)
(1.5574e-08 -8.58574e-10 -0.000121071)
(-1.52696e-08 1.50478e-09 -0.000121098)