/*--------------------------------*- C++ -*----------------------------------*\
| =========                 |                                                 |
| \\      /  F ield         | OpenFOAM: The Open Source CFD Toolbox           |
|  \\    /   O peration     | Version:  2206                                  |
|   \\  /    A nd           | Website:  www.openfoam.com                      |
|    \\/     M anipulation  |                                                 |
\*---------------------------------------------------------------------------*/
FoamFile
{
    version     2.0;
    format      ascii;
    arch        "LSB;label=32;scalar=64";
    class       volScalarField;
    location    "1";
    object      nut;
}
// * * * * * * * * * * * * * * * * * * * * * * * * * * * * * * * * * * * * * //

dimensions      [0 2 -1 0 0 0 0];

internalField   nonuniform List<scalar> 
66616
(
9.48003e-07
7.90888e-07
7.91587e-07
1.00369e-06
1.03677e-06
9.25541e-07
9.24893e-07
1.20232e-06
1.1168e-06
1.03526e-06
1.03446e-06
1.31114e-06
1.21206e-06
1.12908e-06
1.12895e-06
1.38112e-06
1.31513e-06
1.21416e-06
1.21509e-06
1.43624e-06
1.42402e-06
1.29674e-06
1.29892e-06
1.49165e-06
1.53924e-06
1.38276e-06
1.3862e-06
1.5584e-06
1.65935e-06
1.47072e-06
1.47582e-06
1.63454e-06
1.78354e-06
1.56082e-06
1.56809e-06
1.71967e-06
1.91177e-06
1.65304e-06
1.66377e-06
1.81334e-06
2.0447e-06
1.74621e-06
1.76276e-06
1.91217e-06
2.18299e-06
1.83701e-06
1.86454e-06
2.00809e-06
7.4924e-07
6.61525e-07
6.61528e-07
7.4937e-07
6.62861e-07
6.61628e-07
9.84084e-07
9.84057e-07
9.83825e-07
9.83797e-07
6.62984e-07
6.61502e-07
7.49481e-07
6.63004e-07
6.62852e-07
7.49347e-07
1.00332e-06
1.17956e-06
7.92356e-07
7.92172e-07
8.90911e-07
8.90628e-07
1.00312e-06
1.17943e-06
7.90766e-07
7.91702e-07
8.98356e-07
8.95976e-07
7.91797e-07
8.98509e-07
8.96177e-07
1.00339e-06
1.17974e-06
7.91405e-07
8.93707e-07
8.935e-07
1.1797e-06
1.20193e-06
1.27337e-06
9.21744e-07
9.21414e-07
1.00446e-06
1.00419e-06
1.20181e-06
1.27315e-06
9.25075e-07
9.22615e-07
1.00769e-06
1.00511e-06
9.22879e-07
1.00774e-06
1.00528e-06
1.2022e-06
1.27333e-06
9.24408e-07
1.00726e-06
1.00698e-06
1.27334e-06
1.31099e-06
1.34485e-06
1.0315e-06
1.03114e-06
1.10388e-06
1.10341e-06
1.31067e-06
1.34436e-06
1.03491e-06
1.03231e-06
1.10632e-06
1.10377e-06
1.03254e-06
1.1063e-06
1.10391e-06
1.31117e-06
1.34459e-06
1.03392e-06
1.10645e-06
1.10613e-06
1.34455e-06
1.38122e-06
1.39854e-06
1.12617e-06
1.12572e-06
1.19174e-06
1.19123e-06
1.38049e-06
1.39782e-06
1.12877e-06
1.12627e-06
1.19315e-06
1.19083e-06
1.12647e-06
1.19305e-06
1.19092e-06
1.38122e-06
1.39808e-06
1.12838e-06
1.19414e-06
1.19379e-06
1.398e-06
1.43663e-06
1.45204e-06
1.21249e-06
1.21192e-06
1.27567e-06
1.27503e-06
1.43582e-06
1.45117e-06
1.21396e-06
1.21172e-06
1.27586e-06
1.27382e-06
1.21187e-06
1.27567e-06
1.27386e-06
1.43642e-06
1.45136e-06
1.2145e-06
1.27793e-06
1.2776e-06
1.45121e-06
1.49241e-06
1.51674e-06
1.29644e-06
1.29576e-06
1.36251e-06
1.36186e-06
1.49115e-06
1.5157e-06
1.29666e-06
1.29469e-06
1.36175e-06
1.35989e-06
1.29477e-06
1.36143e-06
1.35988e-06
1.49192e-06
1.51581e-06
1.29832e-06
1.36469e-06
1.36443e-06
1.51567e-06
1.55953e-06
1.59139e-06
1.38374e-06
1.38292e-06
1.45204e-06
1.45133e-06
1.55834e-06
1.59029e-06
1.38278e-06
1.38097e-06
1.45058e-06
1.44885e-06
1.38096e-06
1.45017e-06
1.44878e-06
1.55874e-06
1.59017e-06
1.38555e-06
1.45429e-06
1.45411e-06
1.59001e-06
1.63609e-06
1.67569e-06
1.4733e-06
1.47238e-06
1.54424e-06
1.54363e-06
1.63444e-06
1.67448e-06
1.47093e-06
1.46919e-06
1.54264e-06
1.54099e-06
1.46906e-06
1.54219e-06
1.54092e-06
1.63497e-06
1.6744e-06
1.47514e-06
1.54671e-06
1.54666e-06
1.6742e-06
1.72139e-06
1.77055e-06
1.56547e-06
1.56431e-06
1.64031e-06
1.63986e-06
1.71989e-06
1.76923e-06
1.5612e-06
1.55942e-06
1.63951e-06
1.63786e-06
1.55911e-06
1.63908e-06
1.6379e-06
1.72019e-06
1.76941e-06
1.56734e-06
1.64293e-06
1.64303e-06
1.76917e-06
1.81505e-06
1.87622e-06
1.66115e-06
1.65972e-06
1.74057e-06
1.74053e-06
1.81317e-06
1.87459e-06
1.65382e-06
1.652e-06
1.74271e-06
1.74106e-06
1.65143e-06
1.74248e-06
1.74136e-06
1.81386e-06
1.87541e-06
1.66292e-06
1.74354e-06
1.74377e-06
1.87493e-06
1.91353e-06
1.99489e-06
1.76019e-06
1.75808e-06
1.84451e-06
1.84533e-06
1.91224e-06
1.99204e-06
1.74741e-06
1.74552e-06
1.85396e-06
1.85249e-06
1.74452e-06
1.85394e-06
1.85319e-06
1.91235e-06
1.99453e-06
1.76176e-06
1.84825e-06
1.84864e-06
1.99301e-06
2.00806e-06
1.8618e-06
1.85857e-06
2.00774e-06
1.83843e-06
1.83647e-06
1.83494e-06
2.00683e-06
1.86305e-06
1.28083e-06
8.67455e-07
1.14458e-06
1.14636e-06
7.69345e-07
7.44248e-07
2.37035e-07
8.10325e-07
7.68074e-07
7.44407e-07
8.09041e-07
2.36885e-07
7.24042e-07
7.07302e-08
7.05718e-08
5.8753e-07
5.19519e-08
5.52448e-07
7.18926e-08
4.15213e-08
3.50917e-08
5.87414e-07
5.20185e-08
5.52086e-07
7.19475e-08
9.47939e-07
9.47855e-07
9.47842e-07
1.01619e-06
1.01627e-06
1.01331e-06
1.01329e-06
9.07443e-07
4.6547e-07
8.13224e-07
8.27798e-07
8.55166e-07
5.47994e-07
8.19989e-07
4.15564e-08
3.51428e-08
9.04091e-07
8.12357e-07
4.65721e-07
8.29212e-07
8.56742e-07
8.25878e-07
5.46835e-07
2.58035e-07
2.57586e-07
1.12691e-06
2.58819e-07
2.57888e-07
5.33558e-07
8.70284e-08
5.61141e-07
9.1848e-08
4.5511e-08
4.75955e-08
5.18719e-07
8.44218e-08
5.47795e-07
8.95828e-08
1.03668e-06
1.03342e-06
1.0334e-06
1.09386e-06
1.09391e-06
1.09112e-06
1.09109e-06
9.27955e-07
5.139e-07
9.1526e-07
9.50804e-07
9.31663e-07
4.93026e-07
9.37534e-07
4.45821e-08
4.65719e-08
9.39933e-07
9.18893e-07
5.24459e-07
9.50566e-07
9.43588e-07
9.40471e-07
5.02465e-07
2.48254e-07
2.53071e-07
1.22272e-06
2.43042e-07
2.48171e-07
4.85196e-07
9.60529e-08
5.00278e-07
9.65533e-08
4.87108e-08
4.85182e-08
4.71059e-07
9.41043e-08
4.82745e-07
9.45008e-08
1.11662e-06
1.11385e-06
1.11383e-06
1.18796e-06
1.18807e-06
1.1852e-06
1.18518e-06
9.018e-07
4.69731e-07
1.02178e-06
1.05978e-06
9.10287e-07
4.617e-07
1.04948e-06
4.77993e-08
4.77002e-08
9.2045e-07
1.02301e-06
4.80615e-07
1.05953e-06
9.31746e-07
1.05107e-06
4.70898e-07
2.40176e-07
2.44904e-07
1.31331e-06
2.36167e-07
2.40917e-07
4.59538e-07
9.69837e-08
4.67325e-07
9.68477e-08
4.80155e-08
4.75078e-08
4.46311e-07
9.49684e-08
4.51032e-07
9.47528e-08
1.21189e-06
1.20906e-06
1.20901e-06
1.28886e-06
1.28895e-06
1.28596e-06
1.28595e-06
8.79553e-07
4.47944e-07
1.13294e-06
1.15013e-06
8.85298e-07
4.44505e-07
1.1603e-06
4.73267e-08
4.68356e-08
9.0212e-07
1.13333e-06
4.58494e-07
1.1509e-06
9.10774e-07
1.16125e-06
4.53421e-07
2.32279e-07
2.36613e-07
1.3721e-06
2.29135e-07
2.3347e-07
4.48493e-07
9.7118e-08
4.50439e-07
9.73275e-08
4.71382e-08
4.70063e-08
4.35847e-07
9.50898e-08
4.35027e-07
9.52014e-08
1.31484e-06
1.31183e-06
1.31174e-06
1.39659e-06
1.39671e-06
1.39348e-06
1.39349e-06
8.71284e-07
4.37156e-07
1.24343e-06
1.23424e-06
8.71131e-07
4.38383e-07
1.27068e-06
4.64966e-08
4.6338e-08
8.95815e-07
1.24459e-06
4.47449e-07
1.23592e-06
8.98904e-07
1.27249e-06
4.47198e-07
2.28132e-07
2.32239e-07
1.42353e-06
2.27341e-07
2.31591e-07
4.49299e-07
9.85748e-08
4.47212e-07
9.93028e-08
4.72401e-08
4.745e-08
4.36565e-07
9.65293e-08
4.3194e-07
9.71525e-08
1.42367e-06
1.42042e-06
1.42027e-06
1.51053e-06
1.51062e-06
1.50714e-06
1.50721e-06
8.81628e-07
4.38425e-07
1.35169e-06
1.31778e-06
8.75364e-07
4.43071e-07
1.37993e-06
4.66e-08
4.67978e-08
9.08746e-07
1.35482e-06
4.48685e-07
1.32078e-06
9.04463e-07
1.38332e-06
4.52067e-07
2.28956e-07
2.33073e-07
1.48196e-06
2.29703e-07
2.33964e-07
4.59446e-07
1.01769e-07
4.54385e-07
1.03092e-07
4.83684e-08
4.89163e-08
4.46212e-07
9.96404e-08
4.39037e-07
1.00807e-07
1.53876e-06
1.5353e-06
1.53506e-06
1.62989e-06
1.63003e-06
1.62622e-06
1.62639e-06
9.06725e-07
4.4895e-07
1.46117e-06
1.40539e-06
8.96635e-07
4.56237e-07
1.49113e-06
4.77307e-08
4.82321e-08
9.3615e-07
1.46674e-06
4.59496e-07
1.40908e-06
9.27055e-07
1.49579e-06
4.65573e-07
2.34266e-07
2.38399e-07
1.55162e-06
2.36325e-07
2.40709e-07
4.77219e-07
1.0669e-07
4.69742e-07
1.08499e-07
5.04419e-08
5.12425e-08
4.6303e-07
1.04421e-07
4.5358e-07
1.06062e-07
1.65866e-06
1.65504e-06
1.65467e-06
1.75346e-06
1.75371e-06
1.74949e-06
1.74982e-06
9.42183e-07
4.66722e-07
1.57066e-06
1.49534e-06
9.29078e-07
4.76129e-07
1.60373e-06
4.97581e-08
5.0517e-08
9.74051e-07
1.57964e-06
4.778e-07
1.49999e-06
9.61282e-07
1.60914e-06
4.86119e-07
2.43687e-07
2.48056e-07
1.63068e-06
2.47017e-07
2.51663e-07
5.00966e-07
1.12999e-07
4.91643e-07
1.15217e-07
5.32132e-08
5.41953e-08
4.85602e-07
1.10541e-07
4.74401e-07
1.12549e-07
1.78261e-06
1.77878e-06
1.77818e-06
1.8808e-06
1.88125e-06
1.87664e-06
1.87727e-06
9.86472e-07
4.90509e-07
1.67967e-06
1.58984e-06
9.70598e-07
5.01689e-07
1.71888e-06
5.24875e-08
5.34104e-08
1.02073e-06
1.69358e-06
5.02255e-07
1.59418e-06
1.00487e-06
1.72337e-06
5.12357e-07
2.56649e-07
2.61303e-07
1.72025e-06
2.60869e-07
2.65818e-07
5.28833e-07
1.20469e-07
5.18323e-07
1.22979e-07
5.64628e-08
5.75569e-08
5.12048e-07
1.17747e-07
4.99847e-07
1.20026e-07
1.91036e-06
1.90659e-06
1.9056e-06
2.0115e-06
2.01242e-06
2.00733e-06
2.00856e-06
1.03799e-06
5.18707e-07
1.78768e-06
1.68952e-06
1.01966e-06
5.30854e-07
1.83893e-06
5.56621e-08
5.66973e-08
1.07436e-06
1.80937e-06
5.31263e-07
1.6926e-06
1.0562e-06
1.83893e-06
5.42499e-07
2.71934e-07
2.7692e-07
1.82061e-06
2.76595e-07
2.8191e-07
5.58847e-07
1.28602e-07
5.47759e-07
1.31147e-07
6.00554e-08
6.12492e-08
5.39992e-07
1.25577e-07
5.28047e-07
1.27885e-07
2.04254e-06
2.03911e-06
2.03731e-06
2.14363e-06
2.14557e-06
2.13965e-06
2.14205e-06
1.09397e-06
5.49498e-07
1.89294e-06
1.79702e-06
1.07362e-06
5.61711e-07
1.96766e-06
5.91672e-08
6.02864e-08
1.13227e-06
1.92831e-06
5.62863e-07
1.7953e-06
1.11284e-06
1.95558e-06
5.74341e-07
2.88251e-07
2.93595e-07
1.93203e-06
2.9279e-07
2.98522e-07
5.7507e-07
1.36328e-07
5.76437e-07
1.37265e-07
6.36478e-08
6.45063e-08
1.33304e-07
5.57484e-07
2.1793e-06
2.17782e-06
2.17349e-06
1.14911e-06
5.81068e-07
1.99074e-06
1.91375e-06
1.13039e-06
5.91767e-07
2.116e-06
6.27562e-08
1.16829e-06
2.05426e-06
5.93919e-07
1.17301e-06
2.0415e-06
3.04046e-07
3.0947e-07
2.06107e-06
3.08746e-07
3.12039e-07
7.23985e-07
7.0867e-08
7.07459e-08
4.44754e-09
1.61213e-08
4.44328e-09
1.61047e-08
7.22489e-07
1.63043e-07
1.62575e-07
9.00066e-08
8.98847e-08
7.68044e-07
7.47631e-07
2.37427e-07
8.09294e-07
7.67868e-07
7.47612e-07
2.37195e-07
8.0928e-07
5.7085e-07
3.17127e-10
2.96028e-08
4.76548e-07
5.70742e-07
3.18207e-10
2.95843e-08
4.76434e-07
7.18109e-07
7.95079e-07
2.54195e-07
7.82815e-07
2.51929e-07
9.15513e-07
8.23458e-07
7.1795e-07
7.95023e-07
2.53993e-07
7.82811e-07
2.5183e-07
9.15489e-07
8.23299e-07
7.23976e-07
7.08229e-08
7.0605e-08
4.47331e-09
1.61793e-08
7.22331e-07
1.63307e-07
1.62733e-07
9.12104e-08
8.97238e-08
4.43898e-09
1.60789e-08
7.69477e-07
7.44183e-07
2.37294e-07
8.1025e-07
7.69496e-07
7.47641e-07
8.10258e-07
2.3707e-07
5.70478e-07
3.19801e-10
2.95887e-08
4.7622e-07
7.16932e-07
7.97522e-07
2.53906e-07
7.806e-07
2.51748e-07
9.12742e-07
8.24123e-07
5.70484e-07
3.211e-10
2.95669e-08
4.76213e-07
7.16955e-07
7.95168e-07
7.80858e-07
2.5372e-07
9.12782e-07
2.51656e-07
8.24119e-07
1.28081e-06
8.67351e-07
1.14448e-06
1.14648e-06
1.28091e-06
8.67268e-07
1.14586e-06
1.14346e-06
1.28091e-06
8.6722e-07
1.14611e-06
1.14341e-06
1.2811e-06
8.42527e-07
1.07991e-06
1.07625e-06
9.42558e-07
9.37935e-07
1.32074e-06
1.28108e-06
8.42466e-07
1.08011e-06
1.07656e-06
9.42514e-07
9.38045e-07
1.32074e-06
1.28118e-06
8.42427e-07
1.07557e-06
1.07876e-06
9.3779e-07
9.41783e-07
1.32089e-06
1.28118e-06
8.42426e-07
1.07567e-06
1.07871e-06
9.3796e-07
9.41748e-07
1.32091e-06
7.69383e-07
7.4751e-07
8.10354e-07
2.37102e-07
7.16804e-07
7.97452e-07
2.53797e-07
7.80653e-07
2.51463e-07
9.12832e-07
8.24021e-07
5.70234e-07
3.19214e-10
2.95501e-08
4.76058e-07
7.16849e-07
7.95065e-07
7.80889e-07
2.53788e-07
9.12893e-07
2.51681e-07
8.23994e-07
5.70284e-07
3.21213e-10
2.95694e-08
4.76092e-07
7.24127e-07
7.0725e-08
7.05739e-08
4.46853e-09
1.61668e-08
7.22519e-07
1.63134e-07
1.62794e-07
9.11248e-08
8.96995e-08
4.44047e-09
1.60715e-08
7.6809e-07
7.44235e-07
8.09008e-07
2.36726e-07
7.18169e-07
7.97458e-07
7.82591e-07
2.53808e-07
9.15019e-07
2.51365e-07
8.23574e-07
7.18185e-07
7.97427e-07
7.82576e-07
2.53672e-07
9.14977e-07
2.51335e-07
8.23554e-07
5.70845e-07
3.15622e-10
2.9527e-08
4.76516e-07
5.70891e-07
3.17563e-10
2.95137e-08
4.76564e-07
7.22497e-07
1.63391e-07
1.63079e-07
9.11278e-08
9.09504e-08
4.46774e-09
1.61683e-08
4.46731e-09
1.61371e-08
4.14801e-08
3.50782e-08
4.15202e-08
3.51446e-08
2.58044e-07
2.57436e-07
1.12706e-06
2.5846e-07
2.58698e-07
4.38457e-08
3.65144e-08
4.31822e-08
3.64597e-08
1.12849e-06
2.53755e-07
2.47706e-07
2.58143e-07
2.56705e-07
5.87432e-07
5.19146e-08
5.52302e-07
7.18503e-08
9.04105e-07
4.66131e-07
8.11658e-07
8.27889e-07
8.56646e-07
5.47368e-07
8.27515e-07
9.03965e-07
4.65687e-07
8.11637e-07
8.27732e-07
8.56492e-07
5.46847e-07
8.27504e-07
5.80609e-07
8.45053e-08
7.35407e-08
5.69052e-07
5.80517e-07
8.44491e-08
7.34984e-08
5.68977e-07
9.23712e-07
8.66508e-07
5.32137e-07
8.88385e-07
5.42656e-07
8.75128e-07
9.41645e-07
9.23583e-07
8.66263e-07
5.3164e-07
8.88358e-07
5.4214e-07
8.75115e-07
9.41538e-07
2.57937e-07
2.57634e-07
1.127e-06
2.58139e-07
2.58836e-07
4.14907e-08
3.51141e-08
4.38315e-08
3.65203e-08
1.1284e-06
2.53288e-07
2.47901e-07
2.57724e-07
2.56881e-07
4.31474e-08
3.64294e-08
9.07565e-07
4.6559e-07
8.13146e-07
8.27743e-07
8.55228e-07
5.4808e-07
8.20136e-07
5.87414e-07
5.19916e-08
5.5207e-07
7.19029e-08
9.07633e-07
8.12744e-07
4.65209e-07
8.26529e-07
8.55254e-07
8.20266e-07
5.47804e-07
5.80668e-07
8.19255e-08
7.33843e-08
5.62583e-07
9.19572e-07
8.64912e-07
5.23796e-07
8.92295e-07
5.41641e-07
8.65919e-07
9.38607e-07
5.80657e-07
8.18464e-08
7.3324e-08
5.62546e-07
9.19686e-07
8.62389e-07
8.92928e-07
5.23386e-07
8.66706e-07
5.41342e-07
9.38779e-07
5.87306e-07
5.19917e-08
5.5192e-07
7.1916e-08
9.07523e-07
8.12754e-07
4.65323e-07
8.26641e-07
8.55147e-07
8.20262e-07
5.47918e-07
5.87323e-07
5.19969e-08
5.51945e-07
7.18977e-08
9.19446e-07
8.65292e-07
5.23755e-07
8.92124e-07
5.41575e-07
8.6616e-07
9.38533e-07
5.80561e-07
8.18926e-08
7.33557e-08
5.62481e-07
9.19589e-07
8.62627e-07
8.92899e-07
5.235e-07
8.66772e-07
5.41479e-07
9.38669e-07
5.80565e-07
8.18374e-08
7.33253e-08
5.6247e-07
2.57781e-07
2.57704e-07
1.12697e-06
2.5861e-07
2.58198e-07
4.14238e-08
3.50469e-08
4.31346e-08
3.64433e-08
1.12843e-06
2.47445e-07
2.53596e-07
2.56615e-07
2.5787e-07
4.38273e-08
3.64867e-08
9.04112e-07
8.12298e-07
4.65334e-07
8.29131e-07
8.56692e-07
8.25852e-07
5.46425e-07
5.87536e-07
5.18665e-08
5.52432e-07
7.18251e-08
5.8756e-07
5.18413e-08
5.5246e-07
7.18027e-08
9.23591e-07
8.69106e-07
8.86257e-07
5.31765e-07
8.73112e-07
5.42177e-07
9.41146e-07
9.23614e-07
8.68731e-07
8.86356e-07
5.31335e-07
8.72999e-07
5.41742e-07
9.41169e-07
5.80615e-07
8.44598e-08
7.34813e-08
5.68993e-07
5.80642e-07
8.44211e-08
7.34513e-08
5.6901e-07
4.15468e-08
3.512e-08
4.14653e-08
3.50619e-08
1.12848e-06
2.47673e-07
2.53119e-07
2.56854e-07
2.57439e-07
4.31097e-08
3.64223e-08
4.38185e-08
3.64932e-08
4.55255e-08
4.76199e-08
4.46413e-08
4.6645e-08
2.5367e-07
2.48316e-07
1.22268e-06
2.48719e-07
2.43185e-07
4.86214e-08
4.81662e-08
4.77126e-08
4.72501e-08
1.25792e-06
2.45527e-07
2.40166e-07
2.49086e-07
2.43775e-07
5.33501e-07
8.69651e-08
5.61042e-07
9.17853e-08
9.40412e-07
5.24792e-07
9.20024e-07
9.47742e-07
9.4397e-07
5.02665e-07
9.4159e-07
9.40301e-07
5.24264e-07
9.20026e-07
9.47488e-07
9.43872e-07
5.02253e-07
9.41581e-07
5.26331e-07
9.5337e-08
9.33903e-08
5.05328e-07
5.26285e-07
9.52746e-08
9.33258e-08
5.0527e-07
9.41073e-07
9.75848e-07
4.84208e-07
9.94996e-07
4.97866e-07
9.67045e-07
9.31626e-07
9.41004e-07
9.75678e-07
4.83728e-07
9.94968e-07
4.97401e-07
9.67032e-07
9.31526e-07
2.53189e-07
2.48464e-07
1.22252e-06
2.48333e-07
2.43336e-07
4.46059e-08
4.66157e-08
4.86052e-08
4.81382e-08
1.25788e-06
2.45126e-07
2.40315e-07
2.48727e-07
2.43885e-07
4.76809e-08
4.72243e-08
9.28064e-07
5.13928e-07
9.14993e-07
9.50902e-07
9.31691e-07
4.93114e-07
9.3778e-07
5.18678e-07
8.43304e-08
5.47757e-07
8.94838e-08
9.28167e-07
9.15586e-07
5.13508e-07
9.48415e-07
9.3185e-07
9.3835e-07
4.92594e-07
5.08574e-07
9.32976e-08
9.13313e-08
4.90727e-07
9.22253e-07
9.79441e-07
4.74783e-07
9.9261e-07
4.86788e-07
9.64318e-07
9.15695e-07
5.08537e-07
9.31754e-08
9.12256e-08
4.9066e-07
9.22391e-07
9.76861e-07
9.92968e-07
4.74226e-07
9.64775e-07
4.86275e-07
9.15773e-07
5.18646e-07
8.43849e-08
5.47694e-07
8.95494e-08
9.28079e-07
9.15645e-07
5.13624e-07
9.48627e-07
9.31766e-07
9.38292e-07
4.92711e-07
5.18623e-07
8.43231e-08
5.47693e-07
8.94728e-08
9.22156e-07
9.79624e-07
4.74815e-07
9.92383e-07
4.86703e-07
9.64549e-07
9.15648e-07
5.08508e-07
9.32653e-08
9.12993e-08
4.90654e-07
9.22316e-07
9.77117e-07
9.92893e-07
4.74341e-07
9.64835e-07
4.86365e-07
9.15705e-07
5.08497e-07
9.31592e-08
9.12058e-08
4.90615e-07
2.48029e-07
2.53537e-07
1.22275e-06
2.42846e-07
2.48652e-07
4.55119e-08
4.7616e-08
4.76279e-08
4.71727e-08
1.25819e-06
2.398e-07
2.45494e-07
2.43421e-07
2.49018e-07
4.86289e-08
4.81641e-08
9.39905e-07
9.18734e-07
5.24002e-07
9.50347e-07
9.43403e-07
9.40603e-07
5.02042e-07
5.33531e-07
8.69789e-08
5.61064e-07
9.18102e-08
5.33524e-07
8.69385e-08
5.61089e-07
9.17654e-08
9.40602e-07
9.78874e-07
9.94583e-07
4.84127e-07
9.66555e-07
4.97678e-07
9.31175e-07
9.40597e-07
9.78408e-07
9.94686e-07
4.83698e-07
9.66443e-07
4.97274e-07
9.31173e-07
5.26289e-07
9.53084e-08
9.33559e-08
5.05254e-07
5.26306e-07
9.5265e-08
9.33144e-08
5.0525e-07
4.45566e-08
4.65443e-08
4.55004e-08
4.75986e-08
1.25811e-06
2.40035e-07
2.4499e-07
2.43623e-07
2.48534e-07
4.75996e-08
4.7142e-08
4.86085e-08
4.81482e-08
4.87214e-08
4.85327e-08
4.78834e-08
4.77886e-08
2.45444e-07
2.40301e-07
1.31355e-06
2.41475e-07
2.36237e-07
4.80815e-08
4.85195e-08
4.74256e-08
4.78218e-08
1.34955e-06
2.3734e-07
2.32202e-07
2.41211e-07
2.36167e-07
4.85149e-07
9.5982e-08
5.00223e-07
9.6493e-08
9.20949e-07
4.80687e-07
1.02287e-06
1.05694e-06
9.32095e-07
4.70932e-07
1.05098e-06
9.20849e-07
4.80192e-07
1.02284e-06
1.05653e-06
9.32042e-07
4.70455e-07
1.05096e-06
4.81303e-07
9.68607e-08
9.68293e-08
4.7039e-07
4.81282e-07
9.67998e-08
9.67673e-08
4.70338e-07
9.21079e-07
1.08073e-06
4.60843e-07
1.10534e-06
4.68029e-07
1.07784e-06
9.10706e-07
9.21032e-07
1.08032e-06
4.60372e-07
1.10531e-06
4.67541e-07
1.07781e-06
9.10614e-07
2.4503e-07
2.40467e-07
1.31312e-06
2.41032e-07
2.36434e-07
4.78494e-08
4.77608e-08
4.80607e-08
4.85035e-08
1.34901e-06
2.36857e-07
2.32457e-07
2.40754e-07
2.36371e-07
4.74025e-08
4.77926e-08
9.01855e-07
4.6972e-07
1.02151e-06
1.05981e-06
9.10329e-07
4.61638e-07
1.04976e-06
4.70994e-07
9.39719e-08
4.82678e-07
9.43672e-08
9.01898e-07
1.02179e-06
4.69169e-07
1.05721e-06
9.10438e-07
1.04996e-06
4.61057e-07
4.6439e-07
9.47742e-08
9.4839e-08
4.56763e-07
8.96956e-07
1.08376e-06
4.51713e-07
1.1052e-06
4.57261e-07
1.07761e-06
8.89296e-07
4.64328e-07
9.46369e-08
9.47037e-08
4.56681e-07
8.9703e-07
1.08117e-06
1.10527e-06
4.51122e-07
1.07774e-06
4.56688e-07
8.89323e-07
4.7102e-07
9.40686e-08
4.82681e-07
9.44769e-08
9.01852e-07
1.02183e-06
4.6928e-07
1.05737e-06
9.10379e-07
1.04985e-06
4.61189e-07
4.70965e-07
9.39567e-08
4.82652e-07
9.43545e-08
8.96896e-07
1.08404e-06
4.51816e-07
1.10494e-06
4.57296e-07
1.0778e-06
8.89288e-07
4.6435e-07
9.47583e-08
9.48168e-08
4.56722e-07
8.96986e-07
1.08139e-06
1.10515e-06
4.51272e-07
1.07777e-06
4.56821e-07
8.8929e-07
4.64303e-07
9.46319e-08
9.4694e-08
4.5666e-07
2.39936e-07
2.45416e-07
1.3134e-06
2.35887e-07
2.41462e-07
4.87354e-08
4.8554e-08
4.73323e-08
4.77314e-08
1.34964e-06
2.31881e-07
2.3733e-07
2.35819e-07
2.41197e-07
4.81059e-08
4.85418e-08
9.20475e-07
1.02286e-06
4.80209e-07
1.05926e-06
9.31649e-07
1.05122e-06
4.70484e-07
4.85109e-07
9.6021e-08
5.00187e-07
9.65364e-08
4.85107e-07
9.59799e-08
5.00199e-07
9.64894e-08
9.20679e-07
1.08355e-06
1.10601e-06
4.60883e-07
1.07852e-06
4.67998e-07
9.10338e-07
9.20628e-07
1.08303e-06
1.10613e-06
4.60443e-07
1.07841e-06
4.67611e-07
9.10338e-07
4.81242e-07
9.68531e-08
9.68161e-08
4.70319e-07
4.81244e-07
9.68028e-08
9.67695e-08
4.70316e-07
4.77711e-08
4.76824e-08
4.87154e-08
4.85261e-08
1.34948e-06
2.32211e-07
2.36755e-07
2.36103e-07
2.40641e-07
4.73207e-08
4.77147e-08
4.80682e-08
4.85138e-08
4.80383e-08
4.75519e-08
4.74175e-08
4.69247e-08
2.37215e-07
2.32264e-07
1.37257e-06
2.34101e-07
2.29059e-07
4.71735e-08
4.75236e-08
4.65502e-08
4.69237e-08
1.40992e-06
2.32531e-07
2.27425e-07
2.3428e-07
2.29396e-07
4.59504e-07
9.69153e-08
4.67298e-07
9.67831e-08
9.02437e-07
4.58455e-07
1.1321e-06
1.14846e-06
9.11015e-07
4.53363e-07
1.16011e-06
9.02348e-07
4.57968e-07
1.13208e-06
1.14811e-06
9.1098e-07
4.5296e-07
1.1601e-06
4.5714e-07
9.69235e-08
9.69641e-08
4.52185e-07
4.57129e-07
9.68569e-08
9.68973e-08
4.52144e-07
9.03478e-07
1.17007e-06
4.48798e-07
1.21555e-06
4.51467e-07
1.18731e-06
8.97195e-07
9.0344e-07
1.16971e-06
4.48318e-07
1.21553e-06
4.51024e-07
1.18729e-06
8.97107e-07
2.36702e-07
2.32537e-07
1.37192e-06
2.33557e-07
2.29312e-07
4.7396e-08
4.69228e-08
4.71315e-08
4.74784e-08
1.40919e-06
2.31949e-07
2.27686e-07
2.33724e-07
2.29597e-07
4.65441e-08
4.69206e-08
8.79599e-07
4.47872e-07
1.13273e-06
1.15044e-06
8.85309e-07
4.44453e-07
1.16066e-06
4.46233e-07
9.48246e-08
4.50949e-07
9.46114e-08
8.79611e-07
1.13275e-06
4.4729e-07
1.148e-06
8.85367e-07
1.16061e-06
4.43861e-07
4.41315e-07
9.48241e-08
9.49389e-08
4.3943e-07
8.76546e-07
1.17216e-06
4.39977e-07
1.21631e-06
4.41058e-07
1.1883e-06
8.73269e-07
4.41238e-07
9.46839e-08
9.47974e-08
4.39349e-07
8.76589e-07
1.16978e-06
1.21617e-06
4.39401e-07
1.18822e-06
4.40477e-07
8.73276e-07
4.46289e-07
9.49465e-08
4.50986e-07
9.47421e-08
8.79586e-07
1.13275e-06
4.47439e-07
1.14811e-06
8.85334e-07
1.16046e-06
4.44027e-07
4.46219e-07
9.4821e-08
4.50932e-07
9.46124e-08
8.76489e-07
1.17218e-06
4.40099e-07
1.21601e-06
4.4109e-07
1.18843e-06
8.73212e-07
4.4129e-07
9.48192e-08
9.49272e-08
4.39411e-07
8.76565e-07
1.16994e-06
1.216e-06
4.39584e-07
1.18821e-06
4.40643e-07
8.73258e-07
4.41228e-07
9.46888e-08
9.47992e-08
4.39337e-07
2.31947e-07
2.37198e-07
1.37222e-06
2.28775e-07
2.34076e-07
4.80631e-08
4.75766e-08
4.64662e-08
4.6835e-08
1.40981e-06
2.27178e-07
2.32484e-07
2.29116e-07
2.34247e-07
4.71941e-08
4.75475e-08
9.02141e-07
1.13319e-06
4.58076e-07
1.15061e-06
9.10661e-07
1.16143e-06
4.52988e-07
4.59518e-07
9.69728e-08
4.67281e-07
9.68485e-08
4.59511e-07
9.69241e-08
4.67281e-07
9.67945e-08
9.03215e-07
1.17271e-06
1.21722e-06
4.48875e-07
1.18899e-06
4.51512e-07
8.97007e-07
9.03207e-07
1.17217e-06
1.21735e-06
4.48439e-07
1.1889e-06
4.51106e-07
8.96997e-07
4.57149e-07
9.69304e-08
9.69648e-08
4.52195e-07
4.57145e-07
9.68733e-08
9.69123e-08
4.52193e-07
4.73145e-08
4.68331e-08
4.80255e-08
4.75318e-08
1.40959e-06
2.27567e-07
2.31853e-07
2.29479e-07
2.33634e-07
4.64706e-08
4.68341e-08
4.71445e-08
4.75035e-08
4.71798e-08
4.70485e-08
4.65782e-08
4.64163e-08
2.32923e-07
2.27985e-07
1.42429e-06
2.32289e-07
2.2714e-07
4.71524e-08
4.70992e-08
4.65199e-08
4.64941e-08
1.46336e-06
2.32941e-07
2.27746e-07
2.32809e-07
2.27773e-07
4.48462e-07
9.70436e-08
4.50418e-07
9.72596e-08
8.95918e-07
4.47365e-07
1.2424e-06
1.23363e-06
8.99033e-07
4.47115e-07
1.27047e-06
8.9583e-07
4.46857e-07
1.24236e-06
1.23302e-06
8.99004e-07
4.46624e-07
1.27046e-06
4.4724e-07
9.81001e-08
9.76565e-08
4.47611e-07
4.47231e-07
9.80292e-08
9.7586e-08
4.47578e-07
8.991e-07
1.25414e-06
4.48325e-07
1.32528e-06
4.46559e-07
1.29707e-06
9.00018e-07
8.99057e-07
1.2535e-06
4.47834e-07
1.32528e-06
4.46043e-07
1.29702e-06
8.99934e-07
2.32335e-07
2.28248e-07
1.42338e-06
2.31714e-07
2.27433e-07
4.65712e-08
4.64098e-08
4.71093e-08
4.70565e-08
1.4623e-06
2.32353e-07
2.28073e-07
2.32226e-07
2.28072e-07
4.65147e-08
4.6486e-08
8.71348e-07
4.3705e-07
1.24329e-06
1.23442e-06
8.71095e-07
4.38239e-07
1.27105e-06
4.3576e-07
9.49447e-08
4.34934e-07
9.50622e-08
8.71357e-07
1.24311e-06
4.36485e-07
1.23224e-06
8.71137e-07
1.27084e-06
4.37681e-07
4.31939e-07
9.59613e-08
9.55996e-08
4.34917e-07
8.70675e-07
1.25498e-06
4.39425e-07
1.32549e-06
4.36155e-07
1.29746e-06
8.74185e-07
4.31853e-07
9.58227e-08
9.54606e-08
4.34824e-07
8.70711e-07
1.25288e-06
1.32523e-06
4.38889e-07
1.29723e-06
4.35615e-07
8.74194e-07
4.35828e-07
9.508e-08
4.34991e-07
9.51998e-08
8.7134e-07
1.24308e-06
4.36666e-07
1.23231e-06
8.71118e-07
1.27064e-06
4.37873e-07
4.35749e-07
9.4951e-08
4.34925e-07
9.50696e-08
8.70608e-07
1.25505e-06
4.3958e-07
1.32513e-06
4.36261e-07
1.29751e-06
8.74147e-07
4.31916e-07
9.59591e-08
9.55958e-08
4.34897e-07
8.70693e-07
1.25299e-06
1.325e-06
4.39088e-07
1.29717e-06
4.35806e-07
8.74178e-07
4.31846e-07
9.58321e-08
9.54683e-08
4.34816e-07
2.2774e-07
2.3287e-07
1.42373e-06
2.26921e-07
2.32219e-07
4.72003e-08
4.70667e-08
4.64451e-08
4.64164e-08
1.46303e-06
2.2755e-07
2.32855e-07
2.27554e-07
2.32732e-07
4.71682e-08
4.71166e-08
8.95856e-07
1.24445e-06
4.47007e-07
1.23561e-06
8.98874e-07
1.27271e-06
4.46762e-07
4.48568e-07
9.71235e-08
4.50478e-07
9.73413e-08
4.48564e-07
9.70676e-08
4.50477e-07
9.7283e-08
8.9906e-07
1.25662e-06
1.32775e-06
4.48429e-07
1.29958e-06
4.46612e-07
9.00069e-07
8.99059e-07
1.25606e-06
1.32793e-06
4.47981e-07
1.29949e-06
4.46204e-07
9.00072e-07
4.47344e-07
9.81196e-08
9.7671e-08
4.47729e-07
4.47342e-07
9.80606e-08
9.76144e-08
4.47725e-07
4.65002e-08
4.63471e-08
4.71515e-08
4.70151e-08
1.46271e-06
2.27989e-07
2.32231e-07
2.27976e-07
2.32102e-07
4.6457e-08
4.64266e-08
4.71162e-08
4.7066e-08
4.72856e-08
4.7507e-08
4.66714e-08
4.68685e-08
2.33808e-07
2.28713e-07
1.48297e-06
2.34701e-07
2.29433e-07
4.81201e-08
4.7731e-08
4.74646e-08
4.71186e-08
1.5246e-06
2.3752e-07
2.32172e-07
2.35975e-07
2.30802e-07
4.49268e-07
9.84968e-08
4.47183e-07
9.92306e-08
9.08582e-07
4.48606e-07
1.35191e-06
1.31862e-06
9.04325e-07
4.51971e-07
1.38057e-06
9.08491e-07
4.4809e-07
1.35185e-06
1.31812e-06
9.04283e-07
4.5155e-07
1.3806e-06
4.49657e-07
1.00976e-07
9.9939e-08
4.53325e-07
4.49649e-07
1.00901e-07
9.98628e-08
4.53294e-07
9.13828e-07
1.33981e-06
4.57764e-07
1.43639e-06
4.52986e-07
1.40742e-06
9.20686e-07
9.13781e-07
1.3392e-06
4.57262e-07
1.4364e-06
4.52522e-07
1.40736e-06
9.20596e-07
2.33208e-07
2.29047e-07
1.48196e-06
2.34078e-07
2.297e-07
4.66675e-08
4.68725e-08
4.80622e-08
4.76666e-08
1.52336e-06
2.36828e-07
2.3241e-07
2.35343e-07
2.31008e-07
4.7461e-08
4.71213e-08
8.81687e-07
4.38299e-07
1.35164e-06
1.3183e-06
8.7539e-07
4.42991e-07
1.38038e-06
4.36472e-07
9.63883e-08
4.3183e-07
9.7017e-08
8.81691e-07
1.35138e-06
4.37778e-07
1.31636e-06
8.75426e-07
1.3801e-06
4.42476e-07
4.34445e-07
9.87624e-08
9.78827e-08
4.40443e-07
8.84387e-07
1.33945e-06
4.48611e-07
1.43586e-06
4.4257e-07
1.40639e-06
8.9277e-07
4.34352e-07
9.86292e-08
9.77479e-08
4.40342e-07
8.8442e-07
1.33758e-06
1.43557e-06
4.48121e-07
1.40611e-06
4.42069e-07
8.92774e-07
4.36554e-07
9.65223e-08
4.319e-07
9.71514e-08
8.81684e-07
1.35128e-06
4.37975e-07
1.31637e-06
8.75412e-07
1.37986e-06
4.42681e-07
4.36466e-07
9.63982e-08
4.31826e-07
9.70283e-08
8.84328e-07
1.33923e-06
4.48754e-07
1.43548e-06
4.42628e-07
1.40635e-06
8.92752e-07
4.34429e-07
9.8758e-08
9.78787e-08
4.40428e-07
8.84414e-07
1.33762e-06
1.43532e-06
4.48329e-07
1.40596e-06
4.4227e-07
8.92772e-07
4.34349e-07
9.86414e-08
9.77596e-08
4.40336e-07
2.28524e-07
2.33707e-07
1.48218e-06
2.29261e-07
2.34587e-07
4.72988e-08
4.75201e-08
4.73977e-08
4.7049e-08
1.52398e-06
2.32022e-07
2.37389e-07
2.30637e-07
2.35846e-07
4.81305e-08
4.77413e-08
9.08764e-07
1.35468e-06
4.4825e-07
1.32053e-06
9.04405e-07
1.3836e-06
4.51636e-07
4.49476e-07
9.85923e-08
4.47353e-07
9.9332e-08
4.4947e-07
9.85353e-08
4.47351e-07
9.92732e-08
9.14052e-07
1.34223e-06
1.43956e-06
4.57866e-07
1.41066e-06
4.53041e-07
9.21026e-07
9.14034e-07
1.34164e-06
1.4398e-06
4.57444e-07
1.41057e-06
4.5264e-07
9.21002e-07
4.49883e-07
1.01013e-07
9.99678e-08
4.5357e-07
4.4988e-07
1.00956e-07
9.99118e-08
4.53562e-07
4.66113e-08
4.68123e-08
4.72482e-08
4.74685e-08
1.5236e-06
2.32486e-07
2.36781e-07
2.31083e-07
2.35224e-07
4.74128e-08
4.70635e-08
4.808e-08
4.76912e-08
4.84251e-08
4.89711e-08
4.77955e-08
4.82961e-08
2.3917e-07
2.33961e-07
1.55291e-06
2.41469e-07
2.35994e-07
5.00429e-08
4.93543e-08
4.93418e-08
4.87025e-08
1.59673e-06
2.46473e-07
2.40836e-07
2.43502e-07
2.38144e-07
4.59426e-07
1.0169e-07
4.54374e-07
1.03015e-07
9.357e-07
4.59432e-07
1.46312e-06
1.40695e-06
9.26647e-07
4.6548e-07
1.49235e-06
9.35612e-07
4.58911e-07
1.46303e-06
1.40623e-06
9.26598e-07
4.6496e-07
1.49239e-06
4.61141e-07
1.05618e-07
1.04034e-07
4.67489e-07
4.61139e-07
1.05539e-07
1.03953e-07
4.67459e-07
9.4238e-07
1.42829e-06
4.74956e-07
1.54858e-06
4.67736e-07
1.51915e-06
9.53352e-07
9.42328e-07
1.42741e-06
4.74432e-07
1.54864e-06
4.67211e-07
1.51905e-06
9.53263e-07
2.38491e-07
2.34209e-07
1.55174e-06
2.4082e-07
2.36264e-07
4.77871e-08
4.82869e-08
4.99903e-08
4.92991e-08
1.59528e-06
2.45847e-07
2.41151e-07
2.42857e-07
2.38422e-07
4.9332e-08
4.86901e-08
9.06779e-07
4.48837e-07
1.4612e-06
1.4058e-06
8.96655e-07
4.56114e-07
1.49157e-06
4.46108e-07
9.95069e-08
4.38923e-07
1.00678e-07
9.06781e-07
1.46091e-06
4.4836e-07
1.404e-06
8.96684e-07
1.49127e-06
4.55645e-07
4.45417e-07
1.03261e-07
1.01836e-07
4.53809e-07
9.11669e-07
1.42668e-06
4.65328e-07
1.54771e-06
4.56917e-07
1.51612e-06
9.23324e-07
4.45313e-07
1.03135e-07
1.01708e-07
4.53695e-07
9.11698e-07
1.42492e-06
1.54738e-06
4.64883e-07
1.51582e-06
4.5646e-07
9.23328e-07
4.46199e-07
9.96324e-08
4.39005e-07
1.00801e-07
9.06776e-07
1.46071e-06
4.48563e-07
1.40396e-06
8.96679e-07
1.49103e-06
4.55854e-07
4.46099e-07
9.95193e-08
4.38919e-07
1.00691e-07
9.11612e-07
1.42651e-06
4.65444e-07
1.54733e-06
4.56991e-07
1.51595e-06
9.23301e-07
4.45399e-07
1.03249e-07
1.01825e-07
4.5379e-07
9.11694e-07
1.42484e-06
1.54716e-06
4.65095e-07
1.51553e-06
4.56665e-07
9.23323e-07
4.45307e-07
1.03148e-07
1.01721e-07
4.53684e-07
2.33816e-07
2.39027e-07
1.55184e-06
2.35861e-07
2.4132e-07
4.8433e-08
4.89795e-08
4.92805e-08
4.86392e-08
1.59576e-06
2.40723e-07
2.46303e-07
2.38016e-07
2.43337e-07
5.00485e-08
4.93601e-08
9.36161e-07
1.46658e-06
4.59101e-07
1.40891e-06
9.26991e-07
1.49613e-06
4.65176e-07
4.59767e-07
1.01806e-07
4.54677e-07
1.0314e-07
4.59758e-07
1.01752e-07
4.54671e-07
1.03086e-07