/*--------------------------------*- C++ -*----------------------------------*\
| =========                 |                                                 |
| \\      /  F ield         | OpenFOAM: The Open Source CFD Toolbox           |
|  \\    /   O peration     | Version:  2206                                  |
|   \\  /    A nd           | Website:  www.openfoam.com                      |
|    \\/     M anipulation  |                                                 |
\*---------------------------------------------------------------------------*/
FoamFile
{
    version     2.0;
    format      ascii;
    arch        "LSB;label=32;scalar=64";
    class       volScalarField;
    location    "1";
    object      p;
}
// * * * * * * * * * * * * * * * * * * * * * * * * * * * * * * * * * * * * * //

dimensions      [0 2 -2 0 0 0 0];

internalField   nonuniform List<scalar> 
66616
(
-0.000253076
-0.000246267
-0.000246486
-0.00022171
-0.000593521
-0.0005989
-0.000598478
-0.000580517
-0.000808288
-0.000809973
-0.000809999
-0.000798345
-0.00100317
-0.00100417
-0.00100411
-0.000992461
-0.00119139
-0.00119236
-0.00119236
-0.00118106
-0.0013755
-0.00137645
-0.00137648
-0.0013655
-0.00155487
-0.00155577
-0.00155579
-0.00154521
-0.00172935
-0.00173024
-0.00173023
-0.00172006
-0.00189928
-0.00190012
-0.00190007
-0.00189029
-0.00206506
-0.00206583
-0.00206583
-0.00205644
-0.00222734
-0.00222805
-0.00222808
-0.00221894
-0.00238701
-0.00238745
-0.00238764
-0.00237892
-0.00019098
-0.000190635
-0.000190643
-0.00019098
-0.000190781
-0.000190519
-0.000183476
-0.00018348
-0.000183344
-0.000183355
-0.000190782
-0.00019055
-0.00019095
-0.000190832
-0.000190843
-0.000190984
-0.000221724
-0.000540897
-0.000246802
-0.00024681
-0.000516908
-0.000516942
-0.000221698
-0.000540917
-0.000246304
-0.000246528
-0.000517927
-0.000517662
-0.000246538
-0.000517935
-0.000517668
-0.000221699
-0.000540866
-0.000246498
-0.000517085
-0.000517102
-0.000540855
-0.000580606
-0.000774123
-0.000598476
-0.000598547
-0.000762926
-0.000762903
-0.000580647
-0.000774154
-0.000598911
-0.000598782
-0.000762733
-0.000762776
-0.000598788
-0.000762674
-0.000762773
-0.000580529
-0.000774109
-0.000598496
-0.000762809
-0.000762813
-0.000774099
-0.000798334
-0.000968406
-0.000810047
-0.000809994
-0.000955925
-0.000955948
-0.000798309
-0.000968424
-0.000809985
-0.000809993
-0.000955957
-0.000955957
-0.000809989
-0.000955976
-0.000955961
-0.000798348
-0.000968416
-0.000810001
-0.000955909
-0.000955918
-0.000968421
-0.000992434
-0.00115767
-0.00100412
-0.00100417
-0.00114571
-0.00114568
-0.000992447
-0.00115769
-0.00100417
-0.00100418
-0.00114573
-0.00114573
-0.00100418
-0.00114571
-0.00114573
-0.000992456
-0.00115769
-0.00100412
-0.00114574
-0.00114574
-0.00115769
-0.00118103
-0.00134264
-0.00119232
-0.00119227
-0.00133081
-0.00133082
-0.00118103
-0.00134265
-0.00119235
-0.00119234
-0.00133089
-0.00133087
-0.00119234
-0.00133089
-0.00133087
-0.00118106
-0.00134266
-0.00119237
-0.0013309
-0.0013309
-0.00134265
-0.00136549
-0.00152298
-0.00137639
-0.00137641
-0.00151132
-0.0015113
-0.00136549
-0.001523
-0.00137647
-0.00137646
-0.00151141
-0.00151139
-0.00137645
-0.00151142
-0.00151139
-0.0013655
-0.00152298
-0.00137647
-0.00151144
-0.00151144
-0.00152298
-0.00154521
-0.0016984
-0.00155567
-0.00155565
-0.00168694
-0.00168696
-0.00154522
-0.00169842
-0.00155575
-0.00155574
-0.00168708
-0.00168706
-0.00155574
-0.00168709
-0.00168706
-0.00154522
-0.00169841
-0.00155579
-0.00168708
-0.00168709
-0.00169841
-0.00172003
-0.00186919
-0.00173003
-0.00173018
-0.00185797
-0.00185799
-0.00172007
-0.00186923
-0.00173021
-0.00173019
-0.00185809
-0.00185805
-0.0017302
-0.00185811
-0.00185806
-0.00172005
-0.00186918
-0.00173023
-0.00185804
-0.00185804
-0.00186918
-0.00189029
-0.00203574
-0.00190001
-0.00190001
-0.0020247
-0.0020247
-0.00189033
-0.00203574
-0.00190009
-0.00190006
-0.00202485
-0.00202481
-0.00190006
-0.00202485
-0.00202481
-0.00189028
-0.00203575
-0.00190007
-0.00202476
-0.00202477
-0.00203576
-0.00205639
-0.00219865
-0.00206576
-0.00206574
-0.00218777
-0.00218778
-0.00205639
-0.00219866
-0.00206583
-0.0020658
-0.00218793
-0.00218793
-0.00206579
-0.00218797
-0.00218794
-0.00205641
-0.00219861
-0.00206583
-0.00218783
-0.00218784
-0.00219861
-0.00221901
-0.00235862
-0.00222802
-0.00222803
-0.00234787
-0.00234789
-0.00221901
-0.00235865
-0.00222802
-0.00222802
-0.00234814
-0.00234816
-0.00222803
-0.00234814
-0.00234817
-0.00221893
-0.00235858
-0.00222808
-0.00234793
-0.00234794
-0.0023586
-0.00237905
-0.0023876
-0.00238759
-0.00237908
-0.00238746
-0.00238747
-0.00238747
-0.00237889
-0.00238763
-5.52403e-05
-5.6811e-05
-5.63504e-05
-5.64289e-05
-6.35482e-05
-5.23539e-05
-8.57182e-05
-5.14909e-05
-6.31339e-05
-5.23114e-05
-5.14348e-05
-8.56648e-05
-4.99498e-05
-9.12783e-05
-9.12107e-05
-0.000369917
-0.000143341
-0.000186762
-0.000379301
-0.000185068
-0.000370508
-0.000369493
-0.000143264
-0.000186443
-0.000379068
-0.000253074
-0.000252955
-0.000252964
-0.000510352
-0.000510361
-0.000510502
-0.000510507
-0.000368092
-0.000181859
-0.000243451
-0.000329769
-0.000201672
-0.000374496
-0.000327536
-0.000185065
-0.00037027
-0.000368591
-0.000243795
-0.000181723
-0.000330173
-0.000202079
-0.000328002
-0.000374936
-0.000193762
-0.000193401
-0.000359244
-0.000371534
-0.000371947
-0.000676606
-0.000596749
-0.000594873
-0.000675863
-0.000596068
-0.000676092
-0.000676973
-0.000596861
-0.00059556
-0.000676087
-0.000593524
-0.00059357
-0.000593572
-0.00076164
-0.000761618
-0.000761669
-0.000761667
-0.000675636
-0.000592317
-0.000595482
-0.000662983
-0.000588819
-0.000674835
-0.000661052
-0.000596173
-0.000676267
-0.000675391
-0.000594737
-0.000591528
-0.000663041
-0.000586763
-0.000660985
-0.000674647
-0.000593267
-0.000593093
-0.000673908
-0.000674874
-0.000674757
-0.000872922
-0.000800232
-0.000800687
-0.000872678
-0.000800345
-0.000872711
-0.000873142
-0.00080033
-0.000800782
-0.000872773
-0.000808278
-0.000808332
-0.000808332
-0.000954569
-0.000954583
-0.000954633
-0.000954638
-0.000872898
-0.00080002
-0.000809189
-0.000858277
-0.000800652
-0.0008724
-0.00085732
-0.000800405
-0.0008728
-0.000872719
-0.000809195
-0.00080017
-0.000858258
-0.000801066
-0.000857218
-0.000872351
-0.000799843
-0.000799856
-0.000871357
-0.000872476
-0.000872442
-0.00106383
-0.000992527
-0.000992771
-0.00106368
-0.000992496
-0.00106361
-0.00106395
-0.000992504
-0.000992622
-0.00106372
-0.00100318
-0.00100323
-0.00100324
-0.00114485
-0.00114484
-0.00114489
-0.00114489
-0.00106405
-0.000992449
-0.00100373
-0.00105174
-0.000992746
-0.00106363
-0.0010514
-0.000992473
-0.00106367
-0.00106377
-0.00100351
-0.000992572
-0.00105173
-0.000993063
-0.00105124
-0.00106352
-0.000992275
-0.000992311
-0.00106375
-0.00106358
-0.00106355
-0.00125093
-0.00118127
-0.00118129
-0.00125095
-0.00118126
-0.00125092
-0.00125106
-0.00118125
-0.00118119
-0.00125099
-0.00119138
-0.00119141
-0.00119141
-0.00132986
-0.00132986
-0.00132985
-0.00132984
-0.00125098
-0.00118118
-0.00119185
-0.0012388
-0.00118121
-0.00125083
-0.00123827
-0.00118122
-0.00125095
-0.00125069
-0.00119185
-0.0011813
-0.0012388
-0.00118151
-0.00123828
-0.00125072
-0.00118105
-0.00118109
-0.00125069
-0.00125087
-0.00125084
-0.00143379
-0.0013659
-0.00136582
-0.00143388
-0.00136587
-0.00143382
-0.00143391
-0.00136587
-0.00136572
-0.00143391
-0.0013755
-0.00137548
-0.00137548
-0.00151051
-0.00151051
-0.0015105
-0.0015105
-0.00143373
-0.00136576
-0.00137598
-0.00142173
-0.00136559
-0.00143374
-0.00142129
-0.00136585
-0.00143387
-0.00143342
-0.00137599
-0.00136586
-0.00142176
-0.00136586
-0.00142129
-0.0014336
-0.00136571
-0.00136574
-0.00143342
-0.00143383
-0.00143379
-0.00161182
-0.0015458
-0.00154566
-0.00161194
-0.00154579
-0.0016119
-0.00161188
-0.00154574
-0.00154554
-0.00161192
-0.00155487
-0.00155487
-0.00155487
-0.00168619
-0.00168621
-0.00168619
-0.00168619
-0.00161162
-0.00154559
-0.0015553
-0.00159986
-0.0015453
-0.00161171
-0.0015994
-0.00154573
-0.00161189
-0.0016113
-0.00155533
-0.00154567
-0.00159986
-0.00154554
-0.0015994
-0.00161157
-0.00154561
-0.00154564
-0.0016113
-0.00161188
-0.00161183
-0.00178492
-0.00172076
-0.00172057
-0.00178508
-0.00172071
-0.001785
-0.00178498
-0.00172067
-0.00172042
-0.00178506
-0.00172939
-0.00172935
-0.00172935
-0.00185724
-0.00185725
-0.0018572
-0.00185721
-0.00178469
-0.00172047
-0.00172979
-0.00177315
-0.00172012
-0.00178484
-0.00177274
-0.00172065
-0.00178502
-0.00178434
-0.00172977
-0.00172053
-0.00177312
-0.00172033
-0.00177266
-0.00178465
-0.00172056
-0.00172059
-0.00178435
-0.00178504
-0.001785
-0.00195354
-0.001891
-0.0018908
-0.0019537
-0.00189098
-0.00195365
-0.0019536
-0.00189093
-0.00189067
-0.00195368
-0.00189929
-0.00189925
-0.00189925
-0.00202401
-0.00202401
-0.00202398
-0.00202399
-0.00195328
-0.0018907
-0.00189967
-0.00194198
-0.00189031
-0.00195344
-0.00194156
-0.00189091
-0.00195364
-0.00195289
-0.00189963
-0.00189076
-0.0019419
-0.00189049
-0.00194146
-0.00195325
-0.00189085
-0.00189087
-0.00195296
-0.00195369
-0.00195365
-0.0021182
-0.00205705
-0.00205687
-0.00211831
-0.00205702
-0.00211822
-0.00211822
-0.00205699
-0.00205673
-0.00211829
-0.00206505
-0.00206504
-0.00206503
-0.00218712
-0.00218714
-0.00218711
-0.00218712
-0.0021179
-0.00205674
-0.00206542
-0.00210681
-0.00205636
-0.00211805
-0.00210646
-0.00205697
-0.00211824
-0.00211748
-0.0020654
-0.00205681
-0.00210672
-0.00205651
-0.00210631
-0.0021179
-0.00205693
-0.00205697
-0.00211762
-0.00211833
-0.00211831
-0.0022794
-0.00221946
-0.0022193
-0.00227949
-0.00221943
-0.00227943
-0.00227946
-0.00221941
-0.00221919
-0.00227951
-0.00222735
-0.00222733
-0.00222732
-0.00234732
-0.00234735
-0.00234731
-0.00234732
-0.00227916
-0.00221919
-0.00222763
-0.00226835
-0.00221886
-0.00227926
-0.00226804
-0.00221939
-0.00227943
-0.00227873
-0.00222763
-0.00221926
-0.0022682
-0.00221896
-0.00226782
-0.00227914
-0.00221938
-0.00221941
-0.0022789
-0.00227958
-0.00227955
-0.00243824
-0.00237898
-0.00237891
-0.00243823
-0.00237897
-0.0024382
-0.00237905
-0.00237891
-0.00238703
-0.00238696
-0.00238694
-0.00243795
-0.00237891
-0.00238714
-0.00242746
-0.00237874
-0.00243811
-0.00242738
-0.00237902
-0.00243797
-0.00238709
-0.00237895
-0.00237883
-0.00242731
-0.00237904
-0.00237902
-0.0024374
-0.00243845
-0.00243832
-5.00143e-05
-9.10741e-05
-9.10768e-05
-0.000142052
-0.000130496
-0.000142133
-0.000130499
-8.89257e-05
-0.000163039
-0.000162886
-0.000120322
-0.000120306
-6.31608e-05
-5.21523e-05
-8.56985e-05
-5.14756e-05
-6.31599e-05
-5.21462e-05
-8.57723e-05
-5.14757e-05
-0.000108245
-0.000156576
-0.000129351
-0.000177747
-0.000108241
-0.000156516
-0.000129368
-0.000177744
-0.000101764
-8.799e-05
-0.000184926
-0.000176744
-0.000113823
-9.04487e-05
-0.000176914
-0.000101765
-8.79847e-05
-0.000184768
-0.000176735
-0.000113909
-9.04484e-05
-0.000176907
-4.99834e-05
-9.12723e-05
-9.10831e-05
-0.000141923
-0.000130505
-8.89132e-05
-0.000162802
-0.000163092
-0.000119829
-0.000120332
-0.000142234
-0.000130513
-6.35406e-05
-5.235e-05
-8.57091e-05
-5.14854e-05
-6.35403e-05
-5.21483e-05
-5.14795e-05
-8.57701e-05
-0.000108346
-0.000157166
-0.000129338
-0.000177543
-0.000101913
-8.80354e-05
-0.000185141
-0.000176398
-0.00011382
-9.03582e-05
-0.000176657
-0.000108347
-0.000157183
-0.000129341
-0.000177538
-0.000101909
-8.79472e-05
-0.000176412
-0.000185077
-9.03503e-05
-0.000113888
-0.000176654
-5.52408e-05
-5.68112e-05
-5.63509e-05
-5.64328e-05
-5.52278e-05
-5.67888e-05
-5.64217e-05
-5.6311e-05
-5.52282e-05
-5.67827e-05
-5.64262e-05
-5.63106e-05
-8.9671e-05
-8.63595e-05
-0.000182864
-0.000182466
-8.83776e-05
-8.82808e-05
-0.000181963
-8.96722e-05
-8.63602e-05
-0.000182864
-0.000182471
-8.83778e-05
-8.82862e-05
-0.000181963
-8.96596e-05
-8.6321e-05
-0.000182456
-0.000182541
-8.82697e-05
-8.82894e-05
-0.000181847
-8.96606e-05
-8.63168e-05
-0.000182462
-0.000182545
-8.82764e-05
-8.82892e-05
-0.000181848
-6.35512e-05
-5.2145e-05
-5.14859e-05
-8.57916e-05
-0.000101928
-8.80386e-05
-0.000185241
-0.000176412
-0.000113837
-9.03642e-05
-0.000176684
-0.000108356
-0.000157244
-0.000129355
-0.000177574
-0.000101927
-8.79512e-05
-0.000176431
-0.00018518
-9.03576e-05
-0.000113922
-0.000176683
-0.000108362
-0.000157173
-0.000129377
-0.000177568
-4.99678e-05
-9.12598e-05
-9.10337e-05
-0.000142049
-0.00013049
-8.88813e-05
-0.000162834
-0.000163
-0.0001198
-0.000120294
-0.000142047
-0.000130455
-6.31274e-05
-5.23027e-05
-5.14331e-05
-8.57168e-05
-0.000101721
-8.80088e-05
-0.000176594
-0.000184878
-9.03688e-05
-0.000113794
-0.000176854
-0.000101715
-8.79738e-05
-0.000176588
-0.000184675
-9.03686e-05
-0.00011385
-0.000176843
-0.000108196
-0.000156545
-0.000129308
-0.0001777
-0.000108186
-0.000156465
-0.000129293
-0.000177693
-8.88392e-05
-0.000163056
-0.000162693
-0.000119839
-0.00011977
-0.000142062
-0.000130523
-0.000141889
-0.000130431
-0.000185096
-0.000370488
-0.000184925
-0.000370263
-0.000193715
-0.000193566
-0.000359283
-0.00037188
-0.000371598
-0.000566288
-0.000420275
-0.000566141
-0.000420079
-0.000411359
-0.000561538
-0.000561954
-0.000423855
-0.000423703
-0.000369919
-0.000143312
-0.00018676
-0.000379315
-0.000368648
-0.000181771
-0.000244121
-0.000330275
-0.000202108
-0.000374895
-0.000328517
-0.000368651
-0.00018169
-0.000244118
-0.000330294
-0.000202099
-0.000374913
-0.000328522
-0.000434088
-0.000567024
-0.000431274
-0.000563741
-0.000434091
-0.000567035
-0.000431289
-0.000563744
-0.000429646
-0.000423393
-0.000558579
-0.000512418
-0.000430592
-0.000419812
-0.000552787
-0.00042965
-0.000423415
-0.000558585
-0.000512426
-0.000430608
-0.000419819
-0.000552789
-0.000193641
-0.000193503
-0.00035927
-0.000371924
-0.000371561
-0.000185133
-0.000370292
-0.000566309
-0.0004203
-0.000411359
-0.0005616
-0.00056191
-0.000423891
-0.000423687
-0.000566131
-0.000420086
-0.000368084
-0.000181808
-0.000243444
-0.000329791
-0.000201645
-0.000374512
-0.000327534
-0.000369495
-0.000143348
-0.00018644
-0.000379081
-0.000368088
-0.000243548
-0.000181784
-0.000329849
-0.00020164
-0.000327771
-0.000374456
-0.000433746
-0.000567019
-0.00043107
-0.000564434
-0.000428821
-0.00042313
-0.000559434
-0.000513798
-0.000430231
-0.000419176
-0.000553765
-0.000433755
-0.000567012
-0.000431071
-0.000564436
-0.000428828
-0.000422995
-0.000513697
-0.00055942
-0.0004192
-0.00043019
-0.000553769
-0.000369502
-0.000143398
-0.000186475
-0.000379104
-0.000368096
-0.000243563
-0.000181874
-0.000329834
-0.000201666
-0.000327775
-0.00037444
-0.000369502
-0.000143247
-0.000186466
-0.000379083
-0.000428827
-0.00042313
-0.000559446
-0.000513795
-0.000430228
-0.000419175
-0.000553768
-0.000433757
-0.000567024
-0.000431094
-0.000564439
-0.000428833
-0.000422991
-0.000513697
-0.000559427
-0.000419198
-0.00043018
-0.000553772
-0.000433763
-0.000567016
-0.000431075
-0.000564441
-0.000193472
-0.000193649
-0.00035923
-0.000371571
-0.000371911
-0.000185066
-0.000370512
-0.000566129
-0.000420072
-0.000411279
-0.000561939
-0.00056158
-0.000423665
-0.000423908
-0.000566335
-0.000420303
-0.000368595
-0.000243797
-0.000181596
-0.000330202
-0.000202069
-0.000328007
-0.000374958
-0.000369892
-0.000143329
-0.000186743
-0.000379311
-0.000369895
-0.000143367
-0.000186738
-0.000379338
-0.000429619
-0.000423496
-0.00051264
-0.000558651
-0.00041965
-0.000430638
-0.000552983
-0.000429623
-0.00042352
-0.000512644
-0.000558666
-0.000419654
-0.000430661
-0.000552985
-0.000434086
-0.000567087
-0.000431292
-0.000563847
-0.000434088
-0.000567103
-0.000431317
-0.000563849
-0.00018486
-0.000370254
-0.000185187
-0.000370547
-0.000411318
-0.000561913
-0.000561642
-0.000423631
-0.000423951
-0.000566126
-0.00042006
-0.000566359
-0.000420341
-0.00059606
-0.000676115
-0.000596183
-0.000676264
-0.000593024
-0.000593264
-0.000673918
-0.000674695
-0.000674849
-0.000775882
-0.000701589
-0.000776021
-0.000701723
-0.000700225
-0.00077538
-0.000775466
-0.000700624
-0.000700684
-0.000676603
-0.00059676
-0.000594876
-0.000675855
-0.000675198
-0.000591448
-0.000594562
-0.000663206
-0.000586529
-0.000674572
-0.000661209
-0.00067519
-0.000591457
-0.000594558
-0.00066334
-0.000586531
-0.000674594
-0.000661204
-0.000702248
-0.00077577
-0.00070143
-0.000776363
-0.000702245
-0.000775786
-0.000701424
-0.000776365
-0.000702108
-0.000715536
-0.000775463
-0.000762487
-0.000700894
-0.000714843
-0.000776193
-0.000702105
-0.00071562
-0.000775453
-0.000762433
-0.000700921
-0.000714802
-0.000776198
-0.000593047
-0.00059325
-0.000673771
-0.000674689
-0.000674885
-0.000596184
-0.000676289
-0.000775908
-0.000701577
-0.000700053
-0.0007754
-0.000775441
-0.00070061
-0.00070072
-0.000775999
-0.000701738
-0.000675635
-0.000592312
-0.000595473
-0.000663044
-0.000588818
-0.000674852
-0.000661036
-0.000676976
-0.000596852
-0.000595561
-0.000676094
-0.000675642
-0.00059539
-0.000592302
-0.000663054
-0.000588827
-0.000660989
-0.000674875
-0.000702388
-0.000775946
-0.000701585
-0.000776699
-0.00070168
-0.00071523
-0.000775577
-0.000762144
-0.000700926
-0.000714347
-0.000776433
-0.00070239
-0.000775956
-0.000701594
-0.000776702
-0.000701682
-0.000715296
-0.000762124
-0.000775592
-0.000714325
-0.000700945
-0.000776433
-0.000676976
-0.000596863
-0.000595564
-0.000676091
-0.000675644
-0.000595393
-0.000592312
-0.000663056
-0.000588829
-0.00066099
-0.000674879
-0.000676979
-0.000596859
-0.000595566
-0.000676098
-0.000701682
-0.000715148
-0.000775564
-0.000762156
-0.000700915
-0.000714363
-0.000776433
-0.000702389
-0.000775931
-0.000701584
-0.000776699
-0.000701683
-0.000715295
-0.000762117
-0.000775595
-0.000714321
-0.000700944
-0.000776432
-0.000702393
-0.000775959
-0.0007016
-0.000776702
-0.000593261
-0.00059308
-0.000673896
-0.000674864
-0.000674759
-0.000596127
-0.000676204
-0.000776029
-0.00070173
-0.000700217
-0.000775479
-0.000775415
-0.000700698
-0.000700684
-0.000775937
-0.000701673
-0.00067539
-0.00059474
-0.000591533
-0.000663057
-0.000586766
-0.000660985
-0.000674656
-0.000676777
-0.000596827
-0.000594994
-0.000675972
-0.000676777
-0.00059684
-0.000594996
-0.000675977
-0.000702195
-0.00071537
-0.000762279
-0.000775475
-0.000714573
-0.000700964
-0.000776192
-0.000702193
-0.00071538
-0.000762276
-0.000775476
-0.00071457
-0.000700971
-0.000776192
-0.000702407
-0.000775837
-0.000701534
-0.000776437
-0.000702406
-0.000775837
-0.000701536
-0.000776437
-0.000596182
-0.000676274
-0.000596137
-0.000676205
-0.000700219
-0.000775483
-0.000775416
-0.000700706
-0.000700683
-0.000776032
-0.000701738
-0.000775939
-0.000701673
-0.00080032
-0.00087271
-0.000800395
-0.000872792
-0.000799824
-0.00079983
-0.000871317
-0.000872418
-0.00087246
-0.000968549
-0.000896818
-0.000968591
-0.00089684
-0.000895727
-0.000968413
-0.000968439
-0.000896513
-0.000896481
-0.000872922
-0.00080025
-0.000800688
-0.000872678
-0.000872665
-0.000800156
-0.000809274
-0.00085824
-0.000801056
-0.000872332
-0.000857218
-0.000872665
-0.00080015
-0.000809251
-0.000858213
-0.000801062
-0.000872327
-0.000857217
-0.00089699
-0.00096859
-0.000896796
-0.000968837
-0.000896989
-0.000968594
-0.000896797
-0.000968839
-0.000897306
-0.000907131
-0.00096837
-0.000955112
-0.00089676
-0.000906134
-0.00096876
-0.000897308
-0.000907133
-0.000968376
-0.000955132
-0.000896756
-0.000906149
-0.000968762
-0.000799854
-0.000799796
-0.00087131
-0.000872423
-0.000872454
-0.000800378
-0.000872789
-0.000968556
-0.000896819
-0.000895734
-0.000968431
-0.000968426
-0.000896515
-0.000896483
-0.000968591
-0.000896843
-0.000872898
-0.000800035
-0.000809176
-0.000858263
-0.000800651
-0.000872402
-0.000857309
-0.000873145
-0.00080034
-0.000800785
-0.000872782
-0.0008729
-0.000809148
-0.000800046
-0.000858253
-0.000800651
-0.000857275
-0.000872415
-0.000896994
-0.000968635
-0.000896821
-0.000968928
-0.000896908
-0.00090716
-0.000968461
-0.000955347
-0.000896594
-0.000906327
-0.000968954
-0.000896997
-0.000968641
-0.000896829
-0.000968929
-0.000896909
-0.000907153
-0.000955319
-0.000968472
-0.00090629
-0.000896605
-0.000968956
-0.000873143
-0.000800317
-0.00080078
-0.000872772
-0.0008729
-0.000809141
-0.000800048
-0.000858251
-0.000800651
-0.000857271
-0.000872419
-0.000873146
-0.000800343
-0.000800784
-0.000872786
-0.00089691
-0.000907184
-0.000968465
-0.000955342
-0.000896597
-0.00090633
-0.000968957
-0.000896995
-0.000968637
-0.000896823
-0.000968931
-0.00089691
-0.000907154
-0.000955319
-0.000968478
-0.000906287
-0.00089661
-0.000968958
-0.000896998
-0.000968647
-0.000896834
-0.000968933
-0.000799841
-0.000799855
-0.000871353
-0.000872471
-0.000872444
-0.00080037
-0.000872751
-0.000968597
-0.000896848
-0.000895763
-0.000968447
-0.000968414
-0.000896492
-0.00089654
-0.000968561
-0.000896856
-0.000872714
-0.000809195
-0.00080017
-0.000858262
-0.000801065
-0.000857221
-0.000872348
-0.000872983
-0.000800294
-0.000800756
-0.000872723
-0.000872981
-0.000800289
-0.000800754
-0.000872722
-0.000897382
-0.000907137
-0.000955077
-0.000968351
-0.000906061
-0.000896788
-0.000968672
-0.000897377
-0.000907148
-0.000955072
-0.000968359
-0.00090609
-0.000896784
-0.000968674
-0.000897057
-0.000968603
-0.00089684
-0.000968817
-0.000897055
-0.00096861
-0.000896838
-0.000968817
-0.000800408
-0.000872805
-0.000800367
-0.000872749
-0.000895769
-0.000968456
-0.000968419
-0.0008965
-0.00089654
-0.000968605
-0.000896855
-0.000968569
-0.000896855
-0.000992482
-0.00106363
-0.000992467
-0.00106367
-0.000992301
-0.000992259
-0.00106373
-0.00106354
-0.00106357
-0.00115778
-0.00108734
-0.00115782
-0.00108732
-0.00108734
-0.0011577
-0.00115774
-0.00108719
-0.00108715
-0.00106383
-0.000992533
-0.000992771
-0.00106367
-0.00106378
-0.000992591
-0.00100342
-0.00105174
-0.000993213
-0.00106353
-0.00105121
-0.00106378
-0.00099261
-0.00100343
-0.00105182
-0.00099322
-0.00106353
-0.00105121
-0.0010875
-0.00115782
-0.00108738
-0.00115787
-0.0010875
-0.00115783
-0.00108738
-0.00115787
-0.00108783
-0.00109888
-0.00115763
-0.00114519
-0.00108747
-0.00109837
-0.00115771
-0.00108784
-0.00109892
-0.00115765
-0.00114517
-0.00108746
-0.00109835
-0.00115771
-0.000992336
-0.000992234
-0.00106369
-0.0010635
-0.00106362
-0.000992464
-0.00106369
-0.00115781
-0.00108732
-0.00108731
-0.00115774
-0.00115771
-0.00108715
-0.00108718
-0.00115779
-0.00108734
-0.00106405
-0.00099245
-0.00100374
-0.00105178
-0.000992745
-0.00106363
-0.0010514
-0.00106395
-0.000992509
-0.000992623
-0.00106372
-0.00106405
-0.00100372
-0.000992457
-0.00105179
-0.000992745
-0.00105139
-0.00106363
-0.0010874
-0.00115786
-0.00108736
-0.00115799
-0.00108753
-0.0010989
-0.00115774
-0.00114527
-0.00108735
-0.00109849
-0.00115801
-0.0010874
-0.00115786
-0.00108736
-0.00115799
-0.00108753
-0.0010989
-0.00114527
-0.00115774
-0.00109849
-0.00108735
-0.00115801
-0.00106395
-0.000992505
-0.000992625
-0.00106372
-0.00106405
-0.00100372
-0.000992464
-0.00105179
-0.000992747
-0.00105139
-0.00106364
-0.00106395
-0.000992515
-0.000992626
-0.00106372
-0.00108753
-0.00109886
-0.00115773
-0.00114528
-0.00108735
-0.0010985
-0.00115801
-0.0010874
-0.00115784
-0.00108737
-0.00115798
-0.00108753
-0.0010989
-0.00114526
-0.00115774
-0.00109848
-0.00108735
-0.00115801
-0.0010874
-0.00115785
-0.00108737
-0.00115798
-0.000992267
-0.000992302
-0.00106375
-0.00106358
-0.00106354
-0.00099249
-0.00106364
-0.00115782
-0.00108732
-0.00108738
-0.00115774
-0.0011577
-0.00108715
-0.00108719
-0.00115778
-0.00108734
-0.00106377
-0.0010035
-0.000992581
-0.00105173
-0.000993066
-0.00105124
-0.00106352
-0.00106384
-0.000992534
-0.000992729
-0.00106369
-0.00106384
-0.000992541
-0.000992729
-0.00106369
-0.00108784
-0.00109889
-0.00114524
-0.00115762
-0.00109841
-0.00108746
-0.00115772
-0.00108784
-0.00109889
-0.00114524
-0.00115763
-0.00109841
-0.00108747
-0.00115772
-0.0010875
-0.00115782
-0.00108739
-0.00115787
-0.00108751
-0.00115783
-0.00108739
-0.00115787
-0.000992482
-0.00106367
-0.000992497
-0.00106365
-0.00108738
-0.00115773
-0.0011577
-0.00108716
-0.0010872
-0.00115781
-0.00108733
-0.00115779
-0.00108735
-0.00118124
-0.00125092
-0.00118122
-0.00125096
-0.00118109
-0.00118106
-0.00125069
-0.00125085
-0.00125088
-0.00134297
-0.0012741
-0.001343
-0.00127409
-0.00127381
-0.00134292
-0.00134295
-0.00127397
-0.00127394
-0.00125093
-0.00118128
-0.00118129
-0.00125095
-0.0012507
-0.0011813
-0.00119181
-0.00123875
-0.00118149
-0.00125073
-0.00123823
-0.0012507
-0.00118131
-0.00119179
-0.00123871
-0.00118149
-0.00125072
-0.00123823
-0.00127409
-0.001343
-0.00127413
-0.00134294
-0.00127409
-0.001343
-0.00127413
-0.00134294
-0.00127421
-0.00128491
-0.00134276
-0.00133029
-0.00127413
-0.0012844
-0.00134264
-0.00127421
-0.00128491
-0.00134276
-0.0013303
-0.00127413
-0.0012844
-0.00134264
-0.00118113
-0.00118103
-0.00125068
-0.00125085
-0.00125087
-0.0011812
-0.00125094
-0.00134297
-0.0012741
-0.0012738
-0.00134293
-0.00134292
-0.00127397
-0.00127393
-0.00134299
-0.00127408
-0.00125099
-0.0011812
-0.00119184
-0.00123879
-0.00118121
-0.00125084
-0.00123827
-0.00125106
-0.00118125
-0.0011812
-0.00125099
-0.00125099
-0.00119184
-0.0011812
-0.00123877
-0.00118121
-0.00123827
-0.00125085
-0.001274
-0.00134304
-0.00127411
-0.00134307
-0.00127394
-0.00128497
-0.00134288
-0.00133039
-0.00127404
-0.00128446
-0.00134294
-0.001274
-0.00134304
-0.00127411
-0.00134307
-0.00127394
-0.00128495
-0.0013304
-0.00134288
-0.00128446
-0.00127403
-0.00134295
-0.00125105
-0.00118123
-0.00118119
-0.00125097
-0.00125098
-0.00119183
-0.00118119
-0.00123877
-0.0011812
-0.00123826
-0.00125084
-0.00125105
-0.00118124
-0.00118119
-0.00125098
-0.00127394
-0.00128498
-0.00134287
-0.00133038
-0.00127403
-0.00128445
-0.00134294
-0.00127399
-0.00134303
-0.0012741
-0.00134306
-0.00127394
-0.00128494
-0.0013304
-0.00134288
-0.00128445
-0.00127403
-0.00134294
-0.00127399
-0.00134303
-0.0012741
-0.00134306
-0.00118106
-0.00118109
-0.00125069
-0.00125088
-0.00125084
-0.00118124
-0.00125092
-0.001343
-0.00127409
-0.00127383
-0.00134295
-0.00134291
-0.00127394
-0.00127397
-0.00134296
-0.0012741
-0.00125069
-0.00119185
-0.0011813
-0.0012388
-0.00118151
-0.00123828
-0.00125072
-0.00125093
-0.00118127
-0.00118129
-0.00125095
-0.00125093
-0.00118127
-0.00118129
-0.00125095
-0.00127421
-0.00128499
-0.0013304
-0.00134276
-0.00128446
-0.00127413
-0.00134264
-0.00127421
-0.00128499
-0.0013304
-0.00134276
-0.00128446
-0.00127413
-0.00134264
-0.00127409
-0.00134299
-0.00127413
-0.00134294
-0.00127409
-0.00134299
-0.00127413
-0.00134294
-0.00118121
-0.00125094
-0.00118124
-0.00125092
-0.00127382
-0.00134294
-0.0013429
-0.00127393
-0.00127397
-0.00134299
-0.00127408
-0.00134296
-0.0012741
-0.00136586
-0.00143385
-0.00136585
-0.00143388
-0.00136575
-0.00136572
-0.00143342
-0.0014338
-0.00143384
-0.0015235
-0.00145643
-0.00152351
-0.00145641
-0.00145596
-0.00152345
-0.00152349
-0.00145632
-0.00145629
-0.00143379
-0.0013659
-0.00136582
-0.00143387
-0.00143343
-0.00136586
-0.00137591
-0.00142167
-0.00136585
-0.00143361
-0.0014212
-0.00143343
-0.00136587
-0.00137591
-0.00142171
-0.00136585
-0.0014336
-0.00142119
-0.00145636
-0.00152353
-0.00145646
-0.00152341
-0.00145636
-0.00152354
-0.00145646
-0.00152341
-0.00145631
-0.00146664
-0.00152322
-0.00151085
-0.00145639
-0.00146617
-0.00152299
-0.00145631
-0.00146665
-0.00152323
-0.00151083
-0.00145637
-0.00146615
-0.00152299
-0.00136577
-0.00136568
-0.0014334
-0.00143375
-0.0014339
-0.00136583
-0.0014339
-0.00152351
-0.00145642
-0.00145594
-0.00152348
-0.00152345
-0.00145628
-0.00145634
-0.00152349
-0.00145643
-0.00143374
-0.00136578
-0.00137598
-0.00142175
-0.0013656
-0.00143375
-0.00142129
-0.00143391
-0.00136587
-0.00136573
-0.00143391
-0.00143374
-0.001376
-0.00136578
-0.00142174
-0.0013656
-0.00142131
-0.00143375
-0.00145625
-0.00152354
-0.00145643
-0.00152352
-0.00145607
-0.00146672
-0.00152335
-0.00151096
-0.00145632
-0.00146625
-0.0015233
-0.00145626
-0.00152354
-0.00145643
-0.00152352
-0.00145607
-0.0014667
-0.00151098
-0.00152335
-0.00146628
-0.00145632
-0.0015233
-0.00143391
-0.00136586
-0.00136572
-0.00143391
-0.00143374
-0.001376
-0.00136577
-0.00142173
-0.0013656
-0.0014213
-0.00143374
-0.00143391
-0.00136586
-0.00136572
-0.0014339
-0.00145607
-0.0014667
-0.00152334
-0.00151095
-0.00145631
-0.00146625
-0.0015233
-0.00145625
-0.00152353
-0.00145643
-0.00152351
-0.00145607
-0.00146669
-0.00151097
-0.00152335
-0.00146627
-0.00145631
-0.0015233
-0.00145625
-0.00152353
-0.00145643
-0.00152351
-0.00136572
-0.00136574
-0.00143343
-0.00143384
-0.00143379
-0.00136586
-0.00143384
-0.00152351
-0.00145641
-0.00145597
-0.00152348
-0.00152344
-0.00145628
-0.00145631
-0.00152347
-0.00145642
-0.00143342
-0.00137599
-0.00136586
-0.00142176
-0.00136586
-0.00142129
-0.0014336
-0.00143378
-0.00136589
-0.00136582
-0.00143387
-0.00143378
-0.00136589
-0.00136582
-0.00143387
-0.00145631
-0.00146674
-0.00151094
-0.00152321
-0.00146626
-0.00145639
-0.00152298
-0.00145631
-0.00146674
-0.00151095
-0.00152321
-0.00146626
-0.00145639
-0.00152298
-0.00145634
-0.0015235
-0.00145645
-0.00152338
-0.00145634
-0.00152351
-0.00145645
-0.00152338
-0.00136584
-0.00143387
-0.00136585
-0.00143384
-0.00145597
-0.00152348
-0.00152343
-0.00145628
-0.00145631
-0.0015235
-0.0014564
-0.00152347
-0.00145642
-0.00154576
-0.0016119
-0.00154573
-0.0016119
-0.00154566
-0.00154562
-0.0016113
-0.00161186
-0.00161188
-0.00169907
-0.00163385
-0.00169905
-0.0016338
-0.00163322
-0.00169904
-0.00169905
-0.00163375
-0.0016337
-0.00161182
-0.00154581
-0.00154566
-0.00161194
-0.00161136
-0.00154568
-0.0015552
-0.00159974
-0.00154555
-0.0016116
-0.00159925
-0.00161135
-0.00154569
-0.00155519
-0.00159973
-0.00154555
-0.0016116
-0.00159925
-0.00163376
-0.00169912
-0.00163389
-0.00169896
-0.00163375
-0.00169909
-0.00163389
-0.00169895
-0.00163361
-0.00164346
-0.00169874
-0.00168646
-0.00163374
-0.00164291
-0.00169843
-0.00163361
-0.00164347
-0.0016987
-0.00168647
-0.00163374
-0.00164291
-0.00169841
-0.00154569
-0.00154558
-0.0016113
-0.00161187
-0.00161187
-0.00154571
-0.0016119
-0.00169905
-0.00163385
-0.00163322
-0.00169904
-0.00169903
-0.00163375
-0.0016337
-0.00169904
-0.0016338
-0.00161162
-0.0015456
-0.00155531
-0.00159984
-0.00154531
-0.00161172
-0.0015994
-0.00161188
-0.00154574
-0.00154554
-0.00161192
-0.00161163
-0.00155532
-0.00154559
-0.00159983
-0.00154531
-0.00159941