/*--------------------------------*- C++ -*----------------------------------*\
| =========                 |                                                 |
| \\      /  F ield         | OpenFOAM: The Open Source CFD Toolbox           |
|  \\    /   O peration     | Version:  2206                                  |
|   \\  /    A nd           | Website:  www.openfoam.com                      |
|    \\/     M anipulation  |                                                 |
\*---------------------------------------------------------------------------*/
FoamFile
{
    version     2.0;
    format      ascii;
    arch        "LSB;label=32;scalar=64";
    class       surfaceScalarField;
    location    "1";
    object      phi;
}
// * * * * * * * * * * * * * * * * * * * * * * * * * * * * * * * * * * * * * //

dimensions      [0 3 -1 0 0 0 0];

oriented        oriented;

internalField   nonuniform List<scalar> 
198849
(
-1.47879e-07
1.07627e-08
9.87313e-09
7.4405e-10
3.56736e-10
1.26142e-07
-2.81407e-08
1.72368e-09
-9.87489e-09
-5.66358e-09
1.18221e-07
1.86795e-09
1.46549e-09
7.4814e-10
2.81696e-09
1.9917e-09
3.4878e-09
1.37289e-09
-2.74424e-08
-3.38086e-08
-2.87657e-08
-2.81338e-08
1.72309e-09
-9.87384e-09
-5.64481e-09
1.18181e-07
1.86633e-09
1.46389e-09
7.4734e-10
2.81865e-09
1.98972e-09
3.48365e-09
1.37276e-09
-3.38001e-08
-2.74355e-08
-2.87584e-08
-2.76981e-08
-9.55281e-10
-1.7354e-09
1.61073e-09
1.96767e-09
2.68104e-08
-1.23433e-10
-1.33904e-10
-1.26876e-07
1.0177e-10
9.74588e-11
1.26934e-07
-1.1481e-07
-5.66924e-11
1.33225e-10
5.38222e-11
1.14817e-07
1.62764e-11
1.61637e-11
-4.26131e-11
-9.16202e-11
2.85456e-11
2.0995e-11
-8.49903e-11
-1.16101e-07
-6.33132e-11
1.28501e-10
5.52814e-11
1.16103e-07
1.11206e-12
1.98563e-11
-3.4475e-11
-3.05664e-11
1.45144e-12
-2.95871e-11
-5.07947e-11
-2.74918e-08
4.85292e-11
6.31068e-11
2.85239e-11
1.16214e-11
2.734e-08
-6.70623e-11
-6.99214e-11
-1.27112e-07
4.43059e-11
4.10443e-11
1.27164e-07
-1.14899e-07
-4.58457e-11
7.04856e-11
4.24274e-11
1.14915e-07
2.05121e-11
1.74168e-11
-5.18341e-11
-8.27469e-11
4.69204e-11
4.69569e-11
-7.96571e-11
-1.16191e-07
-5.18356e-11
6.70072e-11
4.49175e-11
1.16212e-07
6.02628e-12
2.09358e-11
-3.9673e-11
-2.37637e-11
1.53404e-11
-1.05972e-11
-4.92254e-11
-2.74488e-08
3.64837e-11
5.18103e-11
4.25351e-11
2.63548e-11
2.72917e-08
-2.52942e-11
-2.54293e-11
-1.27231e-07
2.15078e-11
2.0727e-11
1.27239e-07
-1.14933e-07
-3.57744e-11
2.53055e-11
1.84951e-11
1.14937e-07
2.92643e-11
2.3814e-11
-4.12905e-11
-7.33349e-11
6.0457e-11
6.27464e-11
-7.3607e-11
-1.16237e-07
-4.10621e-11
2.54034e-11
2.03265e-11
1.16245e-07
1.57146e-11
2.77674e-11
-3.43205e-11
-1.24413e-11
2.92497e-11
1.17926e-12
-3.97758e-11
-2.7418e-08
2.59889e-11
4.15867e-11
5.07907e-11
3.45601e-11
2.72651e-08
-1.28544e-11
-1.30854e-11
-1.27251e-07
1.48452e-11
1.393e-11
1.27248e-07
-1.14962e-07
-3.27952e-11
1.29116e-11
1.13569e-11
1.14969e-07
3.14474e-11
2.53353e-11
-4.49994e-11
-7.13422e-11
6.34986e-11
6.67355e-11
-6.93352e-11
-1.16272e-07
-3.79675e-11
1.23515e-11
1.32929e-11
1.1628e-07
1.79903e-11
2.91428e-11
-3.32639e-11
-1.0538e-11
3.23349e-11
6.31396e-12
-3.81079e-11
-2.74127e-08
2.28089e-11
3.84893e-11
5.31018e-11
3.66751e-11
2.72616e-08
3.61955e-12
3.1886e-12
-1.2722e-07
5.27388e-12
4.51738e-12
1.27204e-07
-1.14985e-07
-2.88575e-11
-3.2689e-12
2.77187e-12
1.14986e-07
3.53633e-11
2.71599e-11
-3.8043e-11
-6.82379e-11
6.85466e-11
7.22896e-11
-6.85951e-11
-1.16299e-07
-3.42004e-11
-4.60225e-12
5.43092e-12
1.16302e-07
2.2061e-11
3.10948e-11
-3.09341e-11
-7.21694e-12
3.74573e-11
1.25203e-11
-3.49939e-11
-2.74163e-08
1.88075e-11
3.47365e-11
5.6901e-11
4.03451e-11
2.72655e-08
1.94737e-11
1.97566e-11
-1.27135e-07
-4.26122e-12
-4.8493e-12
1.27105e-07
-1.14983e-07
-2.46102e-11
-1.99156e-11
-5.97306e-12
1.14976e-07
4.04951e-11
2.98439e-11
-3.93687e-11
-6.45205e-11
7.44039e-11
7.84631e-11
-6.2211e-11
-1.16297e-07
-2.99172e-11
-2.12102e-11
-2.84583e-12
1.16291e-07
2.69225e-11
3.35306e-11
-2.79295e-11
-3.17031e-12
4.31345e-11
1.8951e-11
-3.1401e-11
-2.74177e-08
1.44587e-11
3.04657e-11
6.16327e-11
4.48088e-11
2.72664e-08
3.48966e-11
3.58134e-11
-1.26995e-07
-1.27306e-11
-1.41728e-11
1.26951e-07
-1.14941e-07
-1.99417e-11
-3.59021e-11
-1.47029e-11
1.14921e-07
4.53137e-11
3.24957e-11
-3.17051e-11
-6.05698e-11
8.04232e-11
8.47904e-11
-6.06658e-11
-1.16254e-07
-2.5382e-11
-3.73383e-11
-1.17414e-11
1.16237e-07
3.20768e-11
3.62691e-11
-2.46513e-11
9.2785e-13
4.91879e-11
2.55577e-11
-2.74477e-11
-2.7412e-08
9.948e-12
2.59187e-11
6.67023e-11
4.97163e-11
2.72597e-08
5.0741e-11
5.06123e-11
-1.26801e-07
-2.08857e-11
-2.33166e-11
1.26743e-07
-1.14853e-07
-1.55725e-11
-5.09143e-11
-2.34403e-11
1.14822e-07
5.08901e-11
3.5457e-11
-3.25701e-11
-5.66165e-11
8.64191e-11
9.09984e-11
-5.41488e-11
-1.16163e-07
-2.0713e-11
-5.27878e-11
-2.00647e-11
1.16133e-07
3.73336e-11
3.92744e-11
-2.11462e-11
3.5704e-12
5.52733e-11
3.20293e-11
-2.32549e-11
-2.7397e-08
5.57295e-12
2.12335e-11
7.18583e-11
5.45561e-11
2.72437e-08
6.62089e-11
6.48538e-11
-1.26552e-07
-2.90757e-11
-3.22092e-11
1.26482e-07
-1.14716e-07
-1.11605e-11
-6.5004e-11
-3.20192e-11
1.14672e-07
5.51713e-11
3.83792e-11
-2.49975e-11
-5.25622e-11
9.209e-11
9.69428e-11
-5.2616e-11
-1.16022e-07
-1.60199e-11
-6.805e-11
-2.92221e-11
1.15981e-07
4.25692e-11
4.24439e-11
-1.74994e-11
6.56331e-12
6.12883e-11
3.8157e-11
-1.88234e-11
-2.73726e-08
1.56457e-12
1.65162e-11
7.69492e-11
5.92328e-11
2.72183e-08
8.07225e-11
7.9218e-11
-1.2625e-07
-3.76036e-11
-4.04865e-11
1.26168e-07
-1.14533e-07
-7.24471e-12
-7.93827e-11
-4.01378e-11
1.14479e-07
6.03961e-11
4.12884e-11
-2.59745e-11
-4.8564e-11
9.75571e-11
1.02622e-10
-4.61101e-11
-1.15834e-07
-1.15963e-11
-8.26677e-11
-3.87837e-11
1.15781e-07
4.74674e-11
4.54589e-11
-1.40389e-11
9.89692e-12
6.71475e-11
4.40976e-11
-1.43504e-11
-2.73391e-08
-3.94306e-12
1.20778e-11
8.21932e-11
6.39428e-11
2.71848e-08
9.25606e-11
9.40899e-11
-1.25896e-07
-5.35417e-11
-4.20195e-11
1.25805e-07
-1.14308e-07
-4.12759e-12
-1.00198e-10
-3.22775e-11
1.14239e-07
6.37328e-11
4.37853e-11
-2.40533e-11
-4.48708e-11
1.02156e-10
1.07546e-10
-4.25029e-11
-1.15596e-07
-7.84098e-12
-2.17607e-10
1.55399e-10
5.1328e-11
4.3758e-11
-1.04561e-11
1.46465e-11
7.21853e-11
4.93945e-11
-1.01072e-11
1.15456e-07
-2.72991e-08
-8.76785e-12
7.7764e-12
8.69308e-11
6.78814e-11
2.71453e-08
-2.45587e-09
-2.50419e-09
2.77032e-08
-2.80077e-08
2.8037e-09
2.46091e-09
-2.56234e-11
2.81038e-08
-3.36852e-08
3.24473e-09
-9.35766e-11
2.45795e-09
-2.65276e-11
2.8106e-08
-3.36862e-08
3.24307e-09
-9.43547e-11
-2.50372e-09
2.7704e-08
-2.8008e-08
2.78467e-09
2.481e-09
8.79449e-11
2.81417e-08
-3.37482e-08
3.10979e-09
-9.54362e-11
-2.60451e-11
2.4578e-09
2.80994e-08
-3.36798e-08
-9.31285e-11
3.24177e-09
-9.42393e-10
-1.02301e-09
-3.7333e-08
-3.45849e-08
-3.61753e-08
-3.61794e-08
-3.4493e-10
-1.33852e-09
8.90072e-10
-3.33352e-10
-1.36463e-09
9.12997e-10
-8.753e-11
1.47882e-07
-9.48429e-10
-1.02232e-09
-3.73331e-08
-3.45855e-08
-3.61756e-08
-3.61796e-08
-3.45263e-10
-1.33824e-09
8.89036e-10
-3.32279e-10
-1.3639e-09
9.14109e-10
-8.79606e-11
1.47847e-07
-9.42465e-10
-1.01234e-09
-3.7328e-08
-3.45788e-08
-3.61704e-08
-3.61734e-08
-3.44983e-10
-1.33872e-09
8.89445e-10
-3.33608e-10
-1.36436e-09
9.12997e-10
2.5794e-11
-8.80387e-11
1.47855e-07
-9.43194e-10
-1.02018e-09
-3.73282e-08
-3.45793e-08
-3.61703e-08
-3.61737e-08
-3.30562e-10
-1.33802e-09
8.91153e-10
-3.47014e-10
-1.36485e-09
9.11969e-10
-3.37484e-08
3.11218e-09
-9.57474e-11
2.45349e-09
2.8098e-08
-3.3678e-08
-9.38153e-11
3.24613e-09
-2.50179e-09
2.76973e-08
-2.80018e-08
2.78364e-09
2.48045e-09
-3.37407e-08
-9.47054e-11
3.11192e-09
2.50594e-09
2.81368e-08
-3.37434e-08
-9.53263e-11
3.10797e-09
-2.8002e-08
2.81615e-09
2.44716e-09
-9.56159e-10
-1.73523e-09
1.60624e-09
1.9729e-09
2.68154e-08
-2.00141e-12
-8.57395e-12
2.74846e-08
-2.732e-08
-7.61597e-11
-7.78884e-11
-5.22254e-09
1.19768e-07
1.26675e-09
1.56522e-09
9.18509e-10
2.81573e-09
1.99831e-09
3.48173e-09
1.37141e-09
-2.75428e-08
-3.37898e-08
-2.87206e-08
9.55865e-10
-1.07673e-08
-5.23016e-09
1.19794e-07
1.27698e-09
1.56677e-09
9.23517e-10
2.81494e-09
1.98766e-09
3.47996e-09
1.36574e-09
-2.7544e-08
-3.37931e-08
-2.87247e-08
1.17198e-07
-6.74001e-10
-1.16783e-07
-7.226e-10
-9.60439e-11
-4.14155e-11
3.9915e-11
3.28733e-10
6.54104e-11
2.39809e-10
4.43267e-10
1.99822e-12
1.17229e-07
-6.73518e-10
-1.16811e-07
-7.24504e-10
-9.5986e-11
-4.19803e-11
4.12001e-11
3.28059e-10
6.53011e-11
2.38081e-10
4.43361e-10
1.59107e-09
1.97967e-09
2.68128e-08
-8.84405e-12
2.74856e-08
-2.73206e-08
-7.55726e-11
-7.86458e-11
-5.66561e-09
1.18228e-07
1.89011e-09
1.45425e-09
7.4167e-10
2.81519e-09
1.98051e-09
3.48542e-09
1.36622e-09
-2.74403e-08
-3.38099e-08
-2.8766e-08
9.56414e-10
-1.07578e-08
-5.22173e-09
1.19748e-07
1.27743e-09
1.56608e-09
9.22849e-10
2.8115e-09
1.98879e-09
3.48272e-09
1.36515e-09
-3.37851e-08
-2.75373e-08
-2.87172e-08
1.14819e-07
2.81839e-10
-1.14783e-07
1.05654e-10
-9.07576e-11
-5.72981e-11
-1.85005e-11
-3.38536e-11
-1.00461e-10
-2.24269e-11
-1.09044e-10
-3.42319e-12
1.15883e-07
2.76761e-10
-1.15849e-07
1.24204e-10
-8.48795e-11
-5.43532e-11
-2.40026e-11
-5.55286e-11
-9.97505e-11
-2.3939e-11
-8.86538e-11
-1.07576e-08
-5.22346e-09
1.19743e-07
1.26666e-09
1.56465e-09
9.18132e-10
2.813e-09
1.99987e-09
1.37148e-09
3.485e-09
-3.37846e-08
-2.75375e-08
-2.87159e-08
2.8175e-10
-1.14774e-07
1.06344e-10
-9.131e-11
-5.6723e-11
-1.91221e-11
-3.40641e-11
-1.00638e-10
-1.08661e-10
-2.22836e-11
-3.26736e-12
1.15879e-07
2.75999e-10
-1.15846e-07
1.24309e-10
-8.48691e-11
-5.3757e-11
-2.4107e-11
-5.54029e-11
-9.96122e-11
-2.3807e-11
-8.85592e-11
1.59129e-09
1.97849e-09
2.6807e-08
-1.15611e-11
2.74871e-08
-2.73235e-08
-8.62007e-11
-6.92287e-11
-9.87579e-09
-5.65692e-09
1.1821e-07
1.88996e-09
1.453e-09
7.4114e-10
2.81724e-09
1.97902e-09
1.36649e-09
3.48173e-09
-3.38039e-08
-2.74378e-08
-2.87625e-08
-6.08425e-10
-1.1567e-07
-8.07551e-10
-1.00585e-10
-4.47864e-11
4.24912e-11
3.51178e-10
6.4052e-11
4.21212e-10
2.40264e-10
1.15167e-11
1.16137e-07
-6.08494e-10
-1.15705e-07
-8.08762e-10
-1.00367e-10
-4.56329e-11
4.37567e-11
3.50783e-10
6.39662e-11
2.39091e-10
4.21624e-10
-2.73286e-08
-8.62955e-11
-6.85944e-11
5.73343e-11
5.66926e-11
2.08901e-11
1.87508e-11
2.7331e-08
-7.91054e-12
-1.37604e-11
2.74404e-08
-2.72962e-08
-6.125e-11
-6.12817e-11
6.19065e-11
1.172e-07
-3.01435e-12
1.04084e-11
-3.04815e-11
-2.52214e-12
-4.16155e-13
-5.32632e-11
-5.00993e-11
-5.74138e-11
1.22454e-10
6.15873e-11
1.17234e-07
-2.66093e-12
1.09089e-11
-3.51825e-11
-2.83387e-12
-6.41604e-13
-5.36672e-11
-4.76145e-11
1.17284e-07
7.41416e-11
-1.17251e-07
5.33682e-11
-4.829e-11
-3.97378e-11
-1.37678e-12
-3.51804e-11
-5.32253e-11
1.05331e-11
-1.66603e-12
8.70563e-12
1.17316e-07
7.53681e-11
-1.17283e-07
5.30567e-11
-4.82383e-11
-4.08995e-11
2.2929e-12
-3.57615e-11
-5.35791e-11
7.45151e-12
-1.60714e-12
2.01385e-11
1.93301e-11
2.73321e-08
-1.4352e-11
2.74422e-08
-2.72973e-08
-5.99749e-11
-6.17955e-11
5.39854e-11
1.14829e-07
1.71484e-11
1.56287e-11
-4.83349e-11
-9.23658e-11
2.85677e-11
2.11877e-11
-8.26972e-11
-4.85246e-11
1.32462e-10
5.91909e-11
1.15889e-07
1.36017e-11
5.70185e-12
-4.41144e-11
-7.17925e-11
2.73553e-11
1.80364e-12
-8.16623e-11
1.14907e-07
7.97299e-11
-1.14879e-07
4.51872e-11
-4.90157e-11
-5.48322e-11
1.99836e-11
4.39895e-11
-8.38032e-11
4.47386e-11
-8.79262e-11
3.71252e-12
1.15969e-07
7.87611e-11
-1.15937e-07
4.83193e-11
-4.038e-11
-5.21112e-11
1.58056e-11
2.22289e-11
-8.33248e-11
4.33029e-11
-6.80117e-11
1.31708e-10
5.93618e-11
1.15886e-07
1.30753e-11
5.68382e-12
-4.35326e-11
-7.17303e-11
2.75617e-11
-8.18132e-11
1.90318e-12
7.93086e-11
-1.14867e-07
4.5354e-11
-4.97131e-11
-5.55464e-11
1.50944e-11
4.38768e-11
-8.40736e-11
-8.7916e-11
4.73387e-11
3.46686e-12
1.15965e-07
7.92783e-11
-1.15934e-07
4.85222e-11
-4.01573e-11
-5.18805e-11
1.55996e-11
2.2646e-11
-8.37921e-11
4.41267e-11
-6.82434e-11
2.82806e-11
1.25972e-11
2.73343e-08
-1.78399e-11
2.74432e-08
-2.73e-08
-6.9055e-11
-5.25632e-11
1.28538e-10
5.48333e-11
1.1614e-07
2.24255e-12
1.98272e-11
-3.49731e-11
-3.04027e-11
9.21778e-13
-5.05311e-11
-3.02611e-11
7.71756e-11
-1.16157e-07
4.69235e-11
-5.52836e-11
-4.27094e-11
4.87552e-12
-1.321e-11
-5.37426e-11
-2.8894e-11
1.29666e-11
1.75632e-11
1.16231e-07
7.66416e-11
-1.16195e-07
4.67339e-11
-5.52736e-11
-4.32098e-11
4.6975e-12
-1.33044e-11
-5.3423e-11
1.27225e-11
-2.90316e-11
-2.73059e-08
-6.99634e-11
-5.19934e-11
4.50617e-11
4.58076e-11
3.42301e-11
3.30373e-11
2.72823e-08
-1.81958e-11
-2.32178e-11
2.74086e-08
-2.7259e-08
-5.40832e-11
-5.40316e-11
5.17451e-11
1.17304e-07
-5.60005e-13
1.11401e-11
-3.66958e-11
2.39441e-12
1.25977e-11
-3.30403e-11
-4.89266e-11
-4.5129e-11
6.60178e-11
5.21855e-11
1.17338e-07
-7.16888e-13
1.15449e-11
-3.76275e-11
2.27499e-12
1.25006e-11
-3.35872e-11
-4.89754e-11
1.17328e-07
3.07766e-11
-1.17322e-07
2.73548e-11
-3.51717e-11
-3.07298e-11
8.72974e-12
-2.11428e-11
-3.99037e-11
2.58573e-11
9.99551e-12
1.84815e-11
1.17363e-07
3.08983e-11
-1.17356e-07
2.67907e-11
-3.53061e-11
-3.11449e-11
9.15488e-12
-2.15321e-11
-3.96207e-11
2.52623e-11
1.03932e-11
3.37761e-11
3.3574e-11
2.72838e-08
-2.34831e-11
2.74105e-08
-2.72603e-08
-5.35857e-11
-5.46518e-11
4.24489e-11
1.14925e-07
2.08775e-11
1.65869e-11
-5.19012e-11
-8.32941e-11
4.61897e-11
4.64092e-11
-7.96341e-11
-3.6449e-11
7.08914e-11
4.48171e-11
1.15986e-07
1.70507e-11
6.55555e-12
-4.88175e-11
-6.28486e-11
4.53045e-11
2.55708e-11
-7.8844e-11
1.14944e-07
3.04705e-11
-1.14939e-07
2.17829e-11
-3.677e-11
-4.65789e-11
2.91856e-11
6.05348e-11
-7.1407e-11
5.84805e-11
-7.39864e-11
1.33847e-11
1.16005e-07
3.11982e-11
-1.16e-07
2.30117e-11
-2.72084e-11
-4.32359e-11
2.53959e-11
3.92961e-11
-7.06101e-11
5.72563e-11
-5.36451e-11
7.01794e-11
4.48884e-11
1.15982e-07
1.65124e-11
6.54793e-12
-4.86054e-11
-6.30719e-11
4.58328e-11
-7.95961e-11
2.59818e-11
3.03159e-11
-1.14928e-07
2.19062e-11
-3.70629e-11
-4.58857e-11
2.83568e-11
6.06518e-11
-7.15406e-11
-7.3895e-11
5.88265e-11
1.3367e-11
1.16001e-07
3.10865e-11
-1.15996e-07
2.31299e-11
-2.72683e-11
-4.3054e-11
2.51531e-11
3.97073e-11
-7.1071e-11
5.78312e-11
-5.38778e-11
4.16058e-11
2.69692e-11
2.72863e-08
-2.72816e-11
2.74119e-08
-2.72633e-08
-6.22858e-11
-4.57216e-11
6.77745e-11
4.47207e-11
1.16251e-07
6.20942e-12
2.09359e-11
-3.98601e-11
-2.35813e-11
1.48018e-11
-4.89076e-11
-1.09447e-11
3.09292e-11
-1.1623e-07
2.33917e-11
-4.2346e-11
-3.44295e-11
1.47113e-11
-7.30831e-13
-4.02179e-11
-1.34085e-11
2.7665e-11
2.78299e-11
1.16277e-07
3.1095e-11
-1.1627e-07
2.32607e-11
-4.28736e-11
-3.43058e-11
1.45695e-11
-8.04227e-13
-3.98871e-11
2.71392e-11
-1.31842e-11
-2.72684e-08
-6.32097e-11
-4.51953e-11
3.37636e-11
3.55878e-11
4.25124e-11
4.11138e-11
2.72556e-08
-1.99596e-11
-2.43126e-11
2.74028e-08
-2.72515e-08
-5.36794e-11
-5.33241e-11
2.36121e-11
1.17335e-07
9.83228e-12
1.87578e-11
-3.06018e-11
1.07689e-11
2.75103e-11
-1.9273e-11
-3.94281e-11
-3.4053e-11
2.52993e-11
2.35834e-11
1.17373e-07
1.00744e-11
1.88709e-11
-3.50776e-11
1.08708e-11
2.6892e-11
-1.99417e-11
-3.65358e-11
1.17361e-07
1.73049e-11
-1.17352e-07
1.77991e-11
-3.11678e-11
-2.97676e-11
1.16427e-11
-1.72603e-11
-3.824e-11
2.97135e-11
1.15315e-11
2.03089e-11
1.17396e-07
1.74181e-11
-1.17388e-07
1.75675e-11
-3.12747e-11
-3.05462e-11
1.59429e-11
-1.77538e-11
-3.80555e-11
2.6247e-11
1.18859e-11
4.17161e-11
4.21257e-11
2.72568e-08
-2.46936e-11
2.74048e-08
-2.72529e-08
-5.30474e-11
-5.38614e-11
1.85831e-11
1.1495e-07
3.01194e-11
2.35907e-11
-4.65937e-11
-7.34679e-11
6.0121e-11
6.26465e-11
-7.10486e-11
-2.59284e-11
2.62166e-11
1.97195e-11
1.16012e-07
2.63627e-11
1.38099e-11
-4.3262e-11
-5.31077e-11
5.88855e-11
4.13527e-11
-7.0267e-11
1.14973e-07
1.66078e-11
-1.14965e-07
1.4701e-11
-3.35747e-11
-4.62293e-11
3.12247e-11
6.53707e-11
-7.0045e-11
6.20405e-11
-7.22444e-11
1.45522e-11
1.16035e-07
1.75191e-11
-1.16027e-07
1.55132e-11
-2.38011e-11
-4.28677e-11
2.75185e-11
4.41001e-11
-6.93113e-11
6.07696e-11
-5.18813e-11
2.60611e-11
1.98564e-11
1.16007e-07
2.61206e-11
1.38021e-11
-4.30713e-11
-5.33452e-11
5.94762e-11
-7.07168e-11
4.17637e-11
1.64995e-11
-1.14953e-07
1.47797e-11
-3.39803e-11
-4.58315e-11
2.6478e-11
6.55115e-11
-7.00656e-11
-7.20554e-11
6.49242e-11
1.4557e-11
1.1603e-07
1.74028e-11
-1.16022e-07
1.55354e-11
-2.38313e-11
-4.26637e-11
2.73003e-11
4.44943e-11
-6.97911e-11
6.1339e-11
-5.21355e-11
4.98539e-11
3.51851e-11
2.72599e-08
-2.86448e-11
2.74065e-08
-2.72561e-08
-6.18833e-11
-4.53839e-11
2.55131e-11
2.01991e-11
1.16286e-07
1.55797e-11
2.83189e-11
-3.41781e-11
-1.25464e-11
2.8736e-11
-3.9436e-11
8.28842e-13
1.69912e-11
-1.16263e-07
1.53098e-11
-3.8862e-11
-3.37831e-11
1.71979e-11
4.51344e-12
-3.88443e-11
-1.16466e-11
3.1304e-11
2.91957e-11
1.16313e-07
1.71113e-11
-1.16304e-07
1.5119e-11
-3.93861e-11
-3.36412e-11
1.70754e-11
4.44423e-12
-3.84742e-11
3.08093e-11
-1.13938e-11
-2.72613e-08
-6.28068e-11
-4.48174e-11
3.01213e-11
3.25862e-11
4.47699e-11
4.35416e-11
2.72518e-08
-2.23972e-11
-2.60711e-11
2.74067e-08
-2.72549e-08
-5.17514e-11
-5.15318e-11
1.52161e-11
1.17368e-07
1.2622e-11
2.05867e-11
-2.90921e-11
1.26793e-11
3.08444e-11
-1.59966e-11
-3.70881e-11
-3.03614e-11
1.30536e-11
1.55317e-11
1.17405e-07
1.27377e-11
2.08958e-11
-2.97956e-11
1.26071e-11
3.01507e-11
-1.66986e-11
-3.70861e-11
1.17385e-07
1.63703e-12
-1.17381e-07
8.10187e-12
-2.68741e-11
-2.69317e-11
1.6187e-11
-1.30601e-11
-3.41899e-11
3.42996e-11
1.46319e-11
2.26661e-11
1.17423e-07
1.84623e-12
-1.17419e-07
7.77276e-12
-2.70884e-11
-2.73771e-11
1.66065e-11
-1.31467e-11
-3.4463e-11
3.43369e-11
1.45694e-11
4.41376e-11
4.43345e-11
2.72532e-08
-2.65663e-11
2.74087e-08
-2.72561e-08
-5.1302e-11
-5.21267e-11
1.16294e-11
1.1498e-07
3.20867e-11
2.49234e-11
-4.55785e-11
-7.14795e-11
6.30671e-11
6.65659e-11
-6.92649e-11
-2.27778e-11
1.40269e-11
1.22868e-11
1.16042e-07
2.84358e-11
1.51755e-11
-4.21652e-11
-5.10895e-11
6.17931e-11
4.53221e-11
-6.85263e-11
1.14997e-07
9.4074e-13
-1.14993e-07
5.9773e-12
-2.94472e-11
-4.39386e-11
3.50438e-11
7.07933e-11
-6.69242e-11
6.69098e-11
-6.92131e-11
1.66064e-11
1.16058e-07
1.60275e-12
-1.16054e-07
6.24082e-12
-1.98583e-11
-4.04391e-11
3.1522e-11
4.96509e-11
-6.61219e-11
6.56726e-11
-4.87082e-11
1.38808e-11
1.23689e-11
1.16037e-07
2.82155e-11
1.51837e-11
-4.1958e-11
-5.13482e-11
6.23717e-11
-6.89995e-11
4.57105e-11
8.39703e-13
-1.14981e-07
6.09642e-12
-3.003e-11
-4.32211e-11
3.43051e-11
7.08394e-11
-6.70947e-11
-6.91732e-11
6.72151e-11
1.66123e-11
1.16053e-07
1.5967e-12
-1.16049e-07
6.2596e-12
-1.98933e-11
-4.02463e-11
3.12912e-11
5.00068e-11
-6.66283e-11
6.62153e-11
-4.89936e-11
5.21584e-11
3.72714e-11
2.72564e-08
-3.05388e-11
2.74101e-08
-2.72592e-08
-6.01208e-11
-4.36229e-11
1.24638e-11
1.31968e-11
1.16322e-07
1.78696e-11
2.97057e-11
-3.31165e-11
-1.06176e-11
3.18492e-11
-3.77317e-11
5.89227e-12
1.17982e-12
-1.16294e-07
7.44181e-12
-3.52e-11
-3.16075e-11
2.10001e-11
1.06063e-11
-3.58794e-11
-8.50938e-12
3.61176e-11
3.10885e-11
1.16341e-07
1.25234e-12
-1.16337e-07
7.36322e-12
-3.57343e-11
-3.14859e-11
2.08582e-11
1.05551e-11
-3.5505e-11
3.56278e-11
-8.23701e-12
-2.72645e-08
-6.10492e-11
-4.30426e-11
2.56897e-11
2.83867e-11
4.87554e-11
4.79209e-11
2.72559e-08
-2.52488e-11
-2.83876e-11
2.74084e-08
-2.72574e-08
-4.88901e-11
-4.85388e-11
5.37809e-12
1.17388e-07
1.74851e-11
2.30969e-11
-2.60791e-11
1.53623e-11
3.57573e-11
-1.18422e-11
-3.32011e-11
-2.59788e-11
-3.56131e-12
5.60146e-12
1.17428e-07
1.77518e-11
2.32246e-11
-3.06078e-11
1.52787e-11
3.57837e-11
-1.19324e-11
-3.08188e-11
1.17383e-07
-1.45727e-11
-1.17387e-07
-1.72275e-12
-2.21165e-11
-2.33635e-11
2.16749e-11
-7.88128e-12
-3.02194e-11
4.02552e-11
1.73162e-11
2.54513e-11
1.17421e-07
-1.41807e-11
-1.17427e-07
-1.55201e-12
-2.24353e-11
-2.38338e-11
2.62091e-11
-8.27155e-12
-3.02947e-11
3.75332e-11
1.74762e-11
4.8116e-11
4.87501e-11
2.7257e-08
-2.88869e-11
2.74105e-08
-2.72586e-08
-4.83539e-11
-4.91746e-11
3.04246e-12
1.14999e-07
3.61402e-11
2.67017e-11
-4.31745e-11
-6.83216e-11
6.82449e-11
7.22466e-11
-6.59872e-11
-1.87746e-11
-2.35481e-12
3.04335e-12
1.16061e-07
3.26978e-11
1.72356e-11
-3.96426e-11
-4.78021e-11
6.70406e-11
5.11636e-11
-6.51857e-11
1.14994e-07
-1.6366e-11
-1.14998e-07
-1.81273e-12
-2.52893e-11
-4.10571e-11
3.95816e-11
7.67888e-11
-6.3163e-11
7.25129e-11
-6.56096e-11
1.88661e-11
1.16056e-07
-1.56779e-11
-1.1606e-07
-2.14354e-12
-1.56753e-11
-3.74541e-11
3.62469e-11
5.58084e-11
-6.23074e-11
7.13498e-11
-4.50121e-11
-2.46501e-12
3.14349e-12
1.16055e-07
3.24647e-11
1.7243e-11
-3.94473e-11
-4.8084e-11
6.76008e-11
-6.56743e-11
5.15211e-11
-1.64699e-11
-1.14986e-07
-1.5759e-12
-2.6103e-11
-4.03912e-11
3.52877e-11
7.68549e-11
-6.32607e-11
-6.55303e-11
7.53341e-11
1.88718e-11
1.1605e-07
-1.55766e-11
-1.16054e-07
-2.17944e-12
-1.57051e-11
-3.72609e-11
3.60174e-11
5.61414e-11
-6.28302e-11
7.18865e-11
-4.53213e-11
5.59813e-11
4.09397e-11
2.72602e-08
-3.28253e-11
2.74115e-08
-2.72614e-08
-5.73793e-11
-4.10612e-11
-4.45869e-12
5.41757e-12
1.16345e-07
2.19199e-11
3.16509e-11
-3.08077e-11
-7.2967e-12
3.69686e-11
-3.46176e-11
1.21376e-11
-1.55559e-11
-1.16302e-07
-2.63578e-13
-3.10784e-11
-2.87491e-11
2.56824e-11
1.69447e-11
-3.24212e-11
-4.75982e-12
4.16268e-11
3.33561e-11
1.1634e-07
-1.55195e-11
-1.16344e-07
-2.10124e-13
-3.16391e-11
-2.86404e-11
2.55265e-11
1.69058e-11
-3.20465e-11
4.11364e-11
-4.45322e-12
-2.72667e-08
-5.83068e-11
-4.04948e-11
2.07999e-11
2.40327e-11
5.37189e-11
5.27709e-11
2.72571e-08
-2.83429e-11
-3.10813e-11
2.74032e-08
-2.7253e-08
-4.56823e-11
-4.50887e-11
-5.02176e-12
1.17377e-07
2.31318e-11
2.60958e-11
-2.23658e-11
1.8175e-11
4.1877e-11
-6.56918e-12
-2.90897e-11
-2.11921e-11
-1.93161e-11
-4.33266e-12
1.17415e-07
2.34637e-11
2.62985e-11
-2.29825e-11
1.83912e-11
4.15475e-11
-6.91376e-12
-2.90925e-11
1.17339e-07
-2.95758e-11
-1.17355e-07
-1.19427e-11
-1.71535e-11
-1.9571e-11
2.74751e-11
-2.8154e-12
-2.61656e-11
4.70132e-11
2.06356e-11
2.85984e-11
1.17377e-07
-2.91695e-11
-1.17394e-07
-1.20831e-11
-1.74269e-11
-2.00008e-11
2.78597e-11
-3.09028e-12
-2.58412e-11
4.64131e-11
2.085e-11
5.29269e-11
5.34804e-11
2.72583e-08
-3.15686e-11
2.74052e-08
-2.72544e-08
-4.4934e-11
-4.5688e-11
-5.6725e-12
1.14988e-07
4.09264e-11
2.92335e-11
-4.0072e-11
-6.45785e-11
7.40187e-11
7.83797e-11
-6.20928e-11
-1.44247e-11
-1.89856e-11
-6.08479e-12
1.16049e-07
3.76641e-11
1.97052e-11
-3.64199e-11
-4.39791e-11
7.28639e-11
5.74271e-11
-6.12448e-11
1.14953e-07
-3.31305e-11
-1.14967e-07
-1.05801e-11
-2.07569e-11
-3.78133e-11
4.46743e-11
8.31933e-11
-5.91217e-11
7.85984e-11
-6.16674e-11
2.14885e-11
1.16013e-07
-3.23523e-11
-1.16028e-07
-1.0917e-11
-1.12002e-11
-3.41167e-11
4.14979e-11
6.22879e-11
-5.82635e-11
7.74392e-11
-4.10292e-11
-1.90645e-11
-5.97211e-12
1.16043e-07
3.74264e-11
1.97076e-11
-3.6232e-11
-4.4277e-11
7.34247e-11
-6.17385e-11
5.77669e-11
-3.32909e-11
-1.14955e-07
-1.04489e-11
-2.13445e-11
-3.70921e-11
4.39879e-11
8.32004e-11
-5.92971e-11
-6.16566e-11
7.89026e-11
2.1495e-11
1.16007e-07
-3.21603e-11
-1.16022e-07
-1.09867e-11
-1.12292e-11
-3.39266e-11
4.12667e-11
6.26033e-11
-5.87836e-11
7.79811e-11
-4.1354e-11
6.07044e-11
4.54222e-11
2.72611e-08
-3.54507e-11
2.74058e-08
-2.72569e-08
-5.40869e-11
-3.7903e-11
-2.10753e-11
-2.81499e-12
1.16334e-07
2.67767e-11
3.40802e-11
-2.78039e-11
-3.24955e-12
4.26389e-11
-3.10276e-11
1.85889e-11
-3.13452e-11
-1.1627e-07
-9.23513e-12
-2.66339e-11
-2.55602e-11
3.07651e-11
2.35392e-11
-2.85625e-11
-3.136e-13
4.76118e-11
3.59823e-11
1.16297e-07
-3.1373e-11
-1.16313e-07
-9.10493e-12
-2.71964e-11
-2.54448e-11
3.06133e-11
2.35203e-11
-2.81764e-11
4.71212e-11
-6.21822e-14
-2.72621e-08
-5.4993e-11
-3.73491e-11
1.58094e-11
1.94616e-11
5.94046e-11
5.78501e-11
2.72507e-08
-3.13004e-11
-3.38254e-11
2.73887e-08
-2.72399e-08
-4.20267e-11
-4.16235e-11
-1.4976e-11
1.17322e-07
2.89335e-11
2.92649e-11
-1.85252e-11
2.15384e-11
4.86459e-11
-1.86989e-12
-2.50052e-11
-1.61247e-11
-3.4904e-11
-1.44716e-11
1.17362e-07
2.91713e-11
2.93816e-11
-2.30581e-11
2.17544e-11
4.80752e-11
-1.69777e-12
-2.22362e-11
1.17247e-07
-4.49706e-11
-1.17276e-07
-2.0875e-11
-1.24696e-11
-1.59477e-11
3.30321e-11
3.508e-12
-2.19611e-11
5.33182e-11
2.38579e-11
3.12994e-11
1.17285e-07
-4.45759e-11
-1.17316e-07
-2.06339e-11
-1.30029e-11
-1.61656e-11
3.77762e-11
3.06344e-12
-2.16451e-11
5.04737e-11
2.40999e-11
5.82265e-11
5.88507e-11
2.7252e-08
-3.42748e-11
2.73906e-08
-2.72414e-08
-4.12297e-11
-4.2433e-11
-1.45565e-11
1.14935e-07
4.60671e-11
3.20216e-11
-3.67565e-11
-6.06092e-11
8.01065e-11
8.47706e-11
-5.80383e-11
-9.91192e-12
-3.49456e-11
-1.5433e-11
1.15995e-07
4.29773e-11
2.24533e-11
-3.2979e-11
-3.99449e-11
7.89664e-11
6.38987e-11
-5.71521e-11
1.14865e-07
-4.90211e-11
-1.14891e-07
-1.86722e-11
-1.62818e-11
-3.45786e-11
4.97378e-11
8.94607e-11
-5.51349e-11
8.45909e-11
-5.77262e-11
2.42518e-11
1.15924e-07
-4.86898e-11
-1.15951e-07
-1.93295e-11
-6.7982e-12
-3.07373e-11
4.67494e-11
6.87201e-11
-5.41502e-11
8.35376e-11
-3.69386e-11
-3.50884e-11
-1.52662e-11
1.15989e-07
4.27283e-11
2.24513e-11
-3.2802e-11
-4.0249e-11
7.95388e-11
-5.76356e-11
6.42278e-11
-4.91573e-11
-1.14878e-07
-1.87857e-11
-1.71286e-11
-3.36524e-11
4.57784e-11
8.94991e-11
-5.52148e-11
-5.76863e-11
8.7413e-11
2.42614e-11
1.15918e-07
-4.83813e-11
-1.15945e-07
-1.94969e-11
-6.82186e-12
-3.05491e-11
4.65162e-11
6.90228e-11
-5.46624e-11
8.409e-11
-3.7272e-11
6.57492e-11
5.03472e-11
2.72544e-08
-3.83281e-11
2.73908e-08
-2.72433e-08
-5.05181e-11
-3.44473e-11
-3.71634e-11
-1.17368e-11
1.1628e-07
3.19472e-11
3.68381e-11
-2.45023e-11
8.7708e-13
4.86863e-11
-2.70734e-11
2.52118e-11
-4.64414e-11
-1.16191e-07
-1.73996e-11
-2.20472e-11
-2.2137e-11
3.60032e-11
3.00902e-11
-2.44151e-11
2.59593e-12
5.37382e-11
3.88624e-11
1.16206e-07
-4.65217e-11
-1.16235e-07
-1.71692e-11
-2.26052e-11
-2.20083e-11
3.58634e-11
3.00745e-11
-2.40296e-11
5.32347e-11
2.79035e-12
-2.72485e-08
-5.13926e-11
-3.39118e-11
1.11842e-11
1.49817e-11
6.44919e-11
6.28358e-11
2.72352e-08
-3.42257e-11
-3.66791e-11
2.73645e-08
-2.72171e-08
-3.83236e-11
-3.81493e-11
-2.43244e-11
1.17217e-07
3.4396e-11
3.22321e-11
-1.49353e-11
2.47153e-11
5.47895e-11
5.40662e-12
-2.08756e-11
-1.17312e-11
-5.07424e-11
-2.3743e-11
1.17256e-07
3.48982e-11
3.23256e-11
-1.54436e-11
2.49657e-11
5.421e-11
4.96693e-12
-2.0554e-11
1.17105e-07
-6.02974e-11
-1.17147e-07
-2.95546e-11
-8.08964e-12
-1.23758e-11
3.82617e-11
1.05507e-11
-1.76464e-11
5.92497e-11
2.722e-11
3.44655e-11
1.17144e-07
-5.9714e-11
-1.17186e-07
-2.95974e-11
-8.3746e-12
-1.27504e-11
3.86745e-11
1.01553e-11
-1.73111e-11
5.86823e-11
2.74671e-11
6.33698e-11
6.34878e-11
2.72365e-08
-3.71642e-11
2.73663e-08
-2.72183e-08
-3.76173e-11
-3.87109e-11
-2.31337e-11
1.14834e-07
5.11043e-11
3.48829e-11
-3.34294e-11
-5.66396e-11
8.60168e-11
9.09524e-11
-5.40369e-11
-5.52802e-12
-4.99786e-11
-2.46557e-11
1.15894e-07
4.82179e-11
2.53623e-11
-2.94928e-11
-3.58145e-11
8.50048e-11
7.02699e-11
-5.30082e-11
1.14728e-07
-6.49619e-11
-1.14766e-07
-2.67745e-11
-1.18919e-11
-3.12679e-11
5.47356e-11
9.557e-11
-5.11072e-11
9.04632e-11
-5.3718e-11
2.71953e-11
1.15786e-07
-6.47035e-11
-1.15824e-07
-2.78635e-11
-2.61654e-12
-2.72881e-11
5.19208e-11
7.49906e-11
-5.00128e-11
8.95163e-11
-3.2791e-11
-5.02309e-11
-2.43771e-11
1.15887e-07
4.79496e-11
2.53488e-11
-2.9335e-11
-3.61177e-11
8.55944e-11
-5.34759e-11
7.0593e-11
-6.51896e-11
-1.14754e-07
-2.64824e-11
-1.25115e-11
-3.05038e-11
5.40416e-11
9.55658e-11
-5.12471e-11
-5.36946e-11
9.07886e-11
2.7216e-11
1.1578e-07
-6.42008e-11
-1.15818e-07
-2.81884e-11
-2.63525e-12
-2.70923e-11
5.168e-11
7.52782e-11
-5.05136e-11
9.00773e-11
-3.31294e-11
7.08737e-11
5.52257e-11
2.72385e-08
-4.13558e-11
2.73665e-08
-2.72202e-08
-4.68424e-11
-3.08506e-11
-5.25866e-11
-2.01533e-11
1.16177e-07
3.72305e-11
3.98672e-11
-2.09585e-11
3.5321e-12
5.47502e-11
-2.28865e-11
3.16859e-11
-6.14826e-11
-1.16063e-07
-2.55324e-11
-1.74686e-11
-1.85827e-11
4.12143e-11
3.63012e-11
-2.00432e-11
5.46945e-12
5.97598e-11
4.18848e-11
1.16066e-07
-6.1742e-11
-1.16107e-07
-2.51457e-11
-1.80308e-11
-1.84319e-11
4.10857e-11
3.629e-11
-1.9656e-11
5.92551e-11
5.69266e-12
-2.72254e-08
-4.76775e-11
-3.03361e-11
6.71122e-12
1.06331e-11
6.94016e-11
6.76683e-11
2.72101e-08
-3.71339e-11
-3.9647e-11
2.73316e-08
-2.71855e-08
-3.46271e-11
-3.47506e-11
-3.40596e-11
1.17064e-07
3.96812e-11
3.53544e-11
-1.12087e-11
2.81235e-11
6.07231e-11
1.21829e-11
-1.64944e-11
-6.97572e-12
-6.61977e-11
-3.33733e-11
1.17104e-07
3.99055e-11
3.55106e-11
-1.57459e-11
2.84181e-11
6.01803e-11
1.18123e-11
-1.36399e-11
1.16916e-07
-7.60947e-11
-1.16969e-07
-3.83373e-11
-3.98859e-12
-8.82075e-12
4.33022e-11
1.71067e-11
-1.30645e-11
6.52239e-11
3.09142e-11
3.70938e-11
1.16954e-07
-7.54385e-11
-1.1701e-07
-3.82635e-11
-4.61138e-12
-8.79848e-12
4.82103e-11
1.70565e-11
-1.28236e-11
6.23099e-11
3.08783e-11
6.82215e-11
6.86068e-11
2.72113e-08
-3.99921e-11
2.73333e-08
-2.71867e-08
-3.39175e-11
-3.55703e-11
-3.17139e-11
1.14686e-07
5.60036e-11
3.7846e-11
-3.00572e-11
-5.25998e-11
9.17613e-11
9.6944e-11
-4.99966e-11
-1.48837e-12
-6.42135e-11
-3.39539e-11
1.15743e-07
5.33296e-11
2.84512e-11
-2.59349e-11
-3.16569e-11
9.08384e-11
7.63989e-11
-4.88646e-11
1.14545e-07
-8.06951e-11
-1.14594e-07
-3.5466e-11
-7.62413e-12
-2.79142e-11
5.96146e-11
1.01511e-10
-4.70424e-11
9.61724e-11
-4.96556e-11
3.01357e-11
1.15601e-07
-8.08444e-11
-1.1565e-07
-3.72872e-11
2.39627e-12
-2.38558e-11
5.70098e-11
8.10372e-11
-4.59635e-11
9.52871e-11
-2.8713e-11
-6.46361e-11
-3.35492e-11
1.15737e-07
5.30273e-11
2.84287e-11
-2.5796e-11
-3.19445e-11
9.14501e-11
-4.93044e-11
7.67216e-11
-8.11074e-11
-1.14581e-07
-3.52766e-11
-8.48195e-12
-2.68949e-11
5.59155e-11
1.01553e-10
-4.70922e-11
-4.96105e-11
9.90101e-11
3.01895e-11
1.15595e-07
-8.01206e-11
-1.15644e-07
-3.78915e-11
2.372e-12
-2.36234e-11
5.67763e-11
8.13203e-11
-4.64505e-11
9.58709e-11
-2.90446e-11
7.59351e-11
5.99438e-11
2.72131e-08
-4.42023e-11
2.7333e-08
-2.71885e-08
-4.31355e-11
-2.70511e-11
-6.77745e-11
-2.95084e-11
1.16025e-07
4.24961e-11
4.30698e-11
-1.7257e-11
6.5276e-12
6.07575e-11
-1.84549e-11
3.78049e-11
-7.67589e-11
-1.15887e-07
-3.40983e-11
-1.31567e-11
-1.51353e-11
4.6199e-11