/*--------------------------------*- C++ -*----------------------------------*\
| =========                 |                                                 |
| \\      /  F ield         | OpenFOAM: The Open Source CFD Toolbox           |
|  \\    /   O peration     | Version:  2206                                  |
|   \\  /    A nd           | Website:  www.openfoam.com                      |
|    \\/     M anipulation  |                                                 |
\*---------------------------------------------------------------------------*/
FoamFile
{
    version     2.0;
    format      ascii;
    arch        "LSB;label=32;scalar=64";
    class       volVectorField;
    location    "1";
    object      U;
}
// * * * * * * * * * * * * * * * * * * * * * * * * * * * * * * * * * * * * * //

dimensions      [0 1 -1 0 0 0 0];

internalField   nonuniform List<vector> 
66616
(
(0.000244723 0.000237226 0.144686)
(-0.000346768 0.000240606 0.131834)
(0.000245437 -0.00035079 0.131824)
(-0.00055818 -0.000567591 0.126086)
(0.000119742 0.000114328 0.147113)
(-9.17866e-05 4.82359e-05 0.134829)
(5.33587e-05 -8.79877e-05 0.135255)
(-0.000276439 -0.00027643 0.129023)
(6.50073e-05 5.83681e-05 0.14739)
(-7.87699e-05 6.28075e-05 0.134922)
(6.89416e-05 -8.06245e-05 0.135369)
(-0.000225217 -0.00022411 0.12883)
(3.19186e-05 2.87027e-05 0.147491)
(-2.40273e-05 3.05309e-05 0.134957)
(3.48698e-05 -2.59355e-05 0.135412)
(-0.000175839 -0.000174136 0.128696)
(2.03063e-05 1.77055e-05 0.147509)
(-9.02271e-06 2.08117e-05 0.134994)
(2.45814e-05 -1.07188e-05 0.135453)
(-0.000160281 -0.000158804 0.128675)
(5.62513e-06 3.56564e-06 0.14747)
(1.08325e-05 7.23413e-06 0.135024)
(1.1972e-05 9.25902e-06 0.135483)
(-0.000141571 -0.000139731 0.128693)
(-7.89555e-06 -9.53036e-06 0.14737)
(2.96984e-05 -6.57586e-06 0.135025)
(-1.84701e-06 2.73975e-05 0.135478)
(-0.000119913 -0.000118299 0.128698)
(-2.0787e-05 -2.22952e-05 0.147207)
(4.9076e-05 -2.17196e-05 0.134983)
(-1.64106e-05 4.6486e-05 0.135424)
(-9.67643e-05 -9.56397e-05 0.128667)
(-3.28814e-05 -3.51398e-05 0.146984)
(6.80627e-05 -3.60304e-05 0.134895)
(-3.15847e-05 6.69379e-05 0.135313)
(-7.28936e-05 -7.2822e-05 0.128591)
(-4.5109e-05 -4.80534e-05 0.146701)
(8.72537e-05 -5.14833e-05 0.134763)
(-4.73213e-05 8.74778e-05 0.135145)
(-4.9033e-05 -5.03009e-05 0.128468)
(-5.77975e-05 -6.05891e-05 0.146358)
(0.000106039 -6.54499e-05 0.134606)
(-6.2228e-05 0.000105851 0.134921)
(-2.58774e-05 -2.89386e-05 0.128298)
(-7.30094e-05 -6.95393e-05 0.14595)
(0.000123384 -7.62935e-05 0.134454)
(-7.54103e-05 0.000121395 0.13464)
(-3.99831e-06 -1.01716e-05 0.128066)
(-7.18571e-06 -1.80593e-05 0.125084)
(0.000307416 0.000306231 0.133087)
(-0.000307138 0.000306429 0.133086)
(7.55113e-06 -1.7241e-05 0.125088)
(0.000312503 0.000307792 0.133051)
(0.000307005 -0.000307195 0.133069)
(0.000219006 0.000221046 0.143508)
(-0.000218786 0.000221108 0.143508)
(0.000217677 -0.000221961 0.143489)
(-0.000217496 -0.000222242 0.143488)
(-0.000312171 0.000308094 0.133051)
(-0.000306703 -0.000307677 0.133067)
(-1.6431e-05 8.7734e-06 0.125069)
(0.000307439 -0.000310195 0.133027)
(-0.000307358 -0.000310818 0.133024)
(1.70675e-05 7.47949e-06 0.125061)
(0.000566442 0.00055898 0.126107)
(-8.14403e-05 -9.92735e-05 0.128788)
(0.000247706 0.000352174 0.131776)
(-0.000248258 0.000352922 0.131775)
(9.57691e-05 0.000153004 0.135049)
(-9.44312e-05 0.000153392 0.13505)
(-0.000565746 0.000559903 0.126102)
(8.04948e-05 -9.99958e-05 0.128791)
(0.000347574 0.000241185 0.131831)
(0.000348006 -0.000242742 0.131748)
(0.000166645 8.21867e-05 0.134605)
(0.000165776 -8.43853e-05 0.134598)
(-0.000347429 -0.000242485 0.131749)
(-0.000166574 8.32909e-05 0.134606)
(-0.000165533 -8.47531e-05 0.134597)
(0.000558898 -0.000566316 0.126085)
(-9.03714e-05 9.3364e-05 0.128769)
(-0.000245725 -0.000351696 0.131822)
(8.96976e-05 -0.000153934 0.135022)
(-8.92969e-05 -0.000154369 0.135021)
(8.98043e-05 9.41516e-05 0.128766)
(0.000282823 0.000272657 0.129044)
(-7.22053e-05 -8.21148e-05 0.128681)
(5.78729e-05 8.84915e-05 0.135282)
(-5.82351e-05 8.91242e-05 0.135284)
(8.08478e-05 9.90031e-05 0.135401)
(-8.01722e-05 9.96478e-05 0.135404)
(-0.000281472 0.000272506 0.129045)
(7.33534e-05 -8.41112e-05 0.128685)
(9.23657e-05 4.91029e-05 0.134828)
(9.24535e-05 -5.14767e-05 0.134822)
(9.48439e-05 7.17288e-05 0.134926)
(9.50061e-05 -7.39516e-05 0.134922)
(-9.22427e-05 -5.18545e-05 0.134822)
(-9.42244e-05 7.07753e-05 0.134926)
(-9.47411e-05 -7.40659e-05 0.13492)
(0.000276641 -0.00027619 0.129026)
(-7.74624e-05 8.12968e-05 0.128665)
(-5.32937e-05 -8.84241e-05 0.135255)
(7.5663e-05 -9.51113e-05 0.135375)
(-7.56539e-05 -9.55199e-05 0.135377)
(7.73046e-05 8.14345e-05 0.128663)
(0.000229996 0.000223107 0.128846)
(-0.000117159 -0.000124222 0.128519)
(7.42208e-05 8.47123e-05 0.135393)
(-7.41518e-05 8.53607e-05 0.135396)
(4.33151e-05 3.55775e-05 0.135414)
(-4.26207e-05 3.62575e-05 0.13542)
(-0.000228617 0.000221984 0.128849)
(0.000116721 -0.000124301 0.128524)
(7.95091e-05 6.38786e-05 0.134922)
(7.9749e-05 -6.59096e-05 0.134918)
(3.07921e-05 3.53906e-05 0.134931)
(3.16058e-05 -3.63746e-05 0.134928)
(-7.94288e-05 -6.59902e-05 0.134916)
(-3.04087e-05 3.55974e-05 0.13493)
(-3.13498e-05 -3.63961e-05 0.134924)
(0.000225633 -0.000223662 0.128831)
(-0.000119955 0.000124994 0.128505)
(-6.89153e-05 -8.10236e-05 0.135371)
(3.90944e-05 -3.23159e-05 0.135393)
(-3.91444e-05 -3.28118e-05 0.135397)
(0.000119793 0.000125019 0.128504)
(0.000178384 0.000174434 0.128708)
(-0.000122011 -0.000126697 0.128488)
(3.88335e-05 2.88937e-05 0.135433)
(-3.93804e-05 2.97549e-05 0.135439)
(3.05334e-05 1.80308e-05 0.135454)
(-3.05378e-05 1.88798e-05 0.135461)
(-0.000177243 0.000174679 0.128712)
(0.000121885 -0.000127419 0.128494)
(2.46219e-05 3.13388e-05 0.134957)
(2.55321e-05 -3.21743e-05 0.134954)
(1.49092e-05 2.60929e-05 0.134965)
(1.61323e-05 -2.66826e-05 0.134962)
(-2.52262e-05 -3.22072e-05 0.134952)
(-1.43608e-05 2.55807e-05 0.134964)
(-1.59127e-05 -2.66861e-05 0.134958)
(0.000176272 -0.000173617 0.128696)
(-0.000123116 0.000127594 0.128475)
(-3.48276e-05 -2.63021e-05 0.135417)
(2.76661e-05 -1.5814e-05 0.135436)
(-2.76206e-05 -1.61655e-05 0.135441)
(0.000122898 0.000127752 0.128475)
(0.00016103 0.000159317 0.128686)
(-0.000129716 -0.000132943 0.128503)
(2.68568e-05 1.24806e-05 0.135471)
(-2.70234e-05 1.31937e-05 0.135477)
(1.58956e-05 -3.39182e-06 0.135485)
(-1.55513e-05 -2.75168e-06 0.135492)
(-0.000160668 0.000159181 0.128691)
(0.000129293 -0.000132599 0.12851)
(9.66958e-06 2.15569e-05 0.134994)
(1.08897e-05 -2.19047e-05 0.134991)
(-4.90518e-06 1.28679e-05 0.13499)
(-3.9006e-06 -1.29885e-05 0.134987)
(-1.06245e-05 -2.18871e-05 0.134988)
(5.15616e-06 1.30052e-05 0.134988)
(3.96496e-06 -1.2932e-05 0.134982)
(0.000160692 -0.000158437 0.128676)
(-0.00012873 0.000133594 0.128491)
(-2.4466e-05 -1.09742e-05 0.135459)
(1.53626e-05 3.91742e-06 0.135468)
(-1.54658e-05 3.62067e-06 0.135474)
(0.000128583 0.000133731 0.128491)
(0.000140152 0.00014003 0.128704)
(-0.000139297 -0.000140767 0.128513)
(1.18371e-05 -9.1543e-06 0.135499)
(-1.24587e-05 -8.5497e-06 0.135508)
(2.66131e-07 -2.38641e-05 0.135486)
(-5.1529e-07 -2.30664e-05 0.135493)
(-0.000139212 0.0001402 0.128708)
(0.000138255 -0.000140826 0.128519)
(-1.04046e-05 7.97729e-06 0.135025)
(-9.60496e-06 -7.94805e-06 0.135022)
(-2.34529e-05 -2.33758e-07 0.134985)
(-2.28485e-05 1.57626e-07 0.134981)
(9.77867e-06 -7.92019e-06 0.135019)
(2.37064e-05 -8.99834e-09 0.134983)
(2.28045e-05 2.25718e-07 0.134975)
(0.000141913 -0.000139359 0.128693)
(-0.000136289 0.00014091 0.1285)
(-1.19891e-05 9.02116e-06 0.13549)
(1.98845e-06 2.19207e-05 0.13547)
(-2.22187e-06 2.16913e-05 0.135476)
(0.000136063 0.000141042 0.1285)
(0.000116444 0.000118018 0.12871)
(-0.000150083 -0.000150631 0.128492)
(-4.29186e-06 -2.99378e-05 0.135493)
(3.86744e-06 -2.94987e-05 0.135502)
(-1.59407e-05 -4.55891e-05 0.13544)
(1.61827e-05 -4.50104e-05 0.135447)
(-0.00011684 0.000118353 0.128715)
(0.00014952 -0.000150386 0.128499)
(-2.92643e-05 -6.23759e-06 0.135025)
(-2.86494e-05 6.42631e-06 0.135022)
(-4.26511e-05 -1.42006e-05 0.134931)
(-4.19114e-05 1.43121e-05 0.134926)
(2.87769e-05 6.44053e-06 0.135019)
(4.27844e-05 -1.38888e-05 0.134928)
(4.17772e-05 1.43985e-05 0.13492)
(0.000120154 -0.000117942 0.128698)
(-0.000145581 0.000149971 0.128477)
(1.78316e-06 2.72003e-05 0.135486)
(-1.20916e-05 4.05042e-05 0.135424)
(1.1774e-05 4.03863e-05 0.13543)
(0.000145376 0.000150103 0.128477)
(9.19516e-05 9.46031e-05 0.128681)
(-0.000160648 -0.000160944 0.12843)
(-2.07333e-05 -5.18091e-05 0.135438)
(1.99774e-05 -5.15145e-05 0.135449)
(-3.05916e-05 -6.66266e-05 0.135338)
(3.04235e-05 -6.61758e-05 0.135345)
(-9.1314e-05 9.45885e-05 0.128686)
(0.000158286 -0.000161062 0.128435)
(-4.87396e-05 -2.12281e-05 0.134983)
(-4.81234e-05 2.17181e-05 0.134979)
(-6.14049e-05 -2.78679e-05 0.134815)
(-6.10639e-05 2.79747e-05 0.13481)
(4.82799e-05 2.16814e-05 0.134976)
(6.14584e-05 -2.67343e-05 0.134812)
(6.08632e-05 2.81374e-05 0.134803)
(9.69954e-05 -9.5298e-05 0.128667)
(-0.000156162 0.000159968 0.128412)
(1.64065e-05 4.63083e-05 0.135433)
(-2.66476e-05 6.0602e-05 0.135322)
(2.62097e-05 6.05494e-05 0.135328)
(0.000156016 0.000160085 0.128411)
(6.83628e-05 7.14838e-05 0.128608)
(-0.000171142 -0.000171931 0.128323)
(-3.56605e-05 -7.24361e-05 0.135328)
(3.52268e-05 -7.22364e-05 0.13534)
(-4.47086e-05 -8.70269e-05 0.135179)
(4.48741e-05 -8.65234e-05 0.135184)
(-6.98187e-05 7.1847e-05 0.128612)
(0.000170547 -0.000171804 0.128328)
(-6.78338e-05 -3.62228e-05 0.134894)
(-6.77392e-05 3.68018e-05 0.13489)
(-8.01797e-05 -4.15278e-05 0.13463)
(-8.02236e-05 4.15862e-05 0.134624)
(6.79448e-05 3.66662e-05 0.134887)
(8.02629e-05 -4.09852e-05 0.134626)
(7.99273e-05 4.18993e-05 0.134617)
(7.31189e-05 -7.24723e-05 0.128591)
(-0.000167481 0.000170896 0.128304)
(3.16964e-05 6.68423e-05 0.135324)
(-4.14617e-05 8.14202e-05 0.135163)
(4.08386e-05 8.13426e-05 0.135167)
(0.000167397 0.00017101 0.128303)
(4.528e-05 4.89416e-05 0.128486)
(-0.000181611 -0.000183484 0.12818)
(-5.08994e-05 -9.23515e-05 0.135161)
(5.02226e-05 -9.22641e-05 0.135174)
(-5.87542e-05 -0.0001066 0.134964)
(5.87677e-05 -0.00010628 0.134967)
(-4.4706e-05 4.92046e-05 0.12849)
(0.000179103 -0.000183196 0.128182)
(-8.70714e-05 -5.12679e-05 0.134763)
(-8.73185e-05 5.21772e-05 0.134759)
(-9.89851e-05 -5.57088e-05 0.134366)
(-9.90451e-05 5.53924e-05 0.13436)
(8.76093e-05 5.18782e-05 0.134756)
(9.9081e-05 -5.43089e-05 0.134362)
(9.86672e-05 5.60415e-05 0.134352)
(4.92114e-05 -4.9942e-05 0.128468)
(-0.0001785 0.000182345 0.12816)
(4.76332e-05 8.7285e-05 0.135158)
(-5.58825e-05 0.000101351 0.134948)
(5.50123e-05 0.000101309 0.13495)
(0.000178517 0.000182503 0.128157)
(2.28727e-05 2.7779e-05 0.128315)
(-0.000191226 -0.000194411 0.12803)
(-6.59892e-05 -0.000109996 0.134937)
(6.58338e-05 -0.000110214 0.134953)
(-7.29804e-05 -0.000125057 0.134703)
(7.28435e-05 -0.00012426 0.134704)
(-2.47885e-05 2.85644e-05 0.128321)
(0.000191212 -0.000194531 0.128027)
(-0.000106014 -6.56151e-05 0.134604)
(-0.000106133 6.63226e-05 0.134601)
(-0.00011742 -7.14387e-05 0.134008)
(-0.000117196 6.96202e-05 0.134002)
(0.000106608 6.56955e-05 0.134598)
(0.000117625 -7.03853e-05 0.134002)
(0.000116624 7.08624e-05 0.133994)
(2.59234e-05 -2.85093e-05 0.128297)
(-0.000189263 0.000193624 0.128013)
(6.28736e-05 0.000105486 0.134936)
(-6.99171e-05 0.000120107 0.134688)
(6.86514e-05 0.00012043 0.134686)
(0.000189555 0.000193939 0.128004)
(1.79064e-06 9.56707e-06 0.128073)
(-7.94928e-05 -0.00012416 0.134659)
(7.92068e-05 -0.000124249 0.134679)
(-2.30058e-06 1.05656e-05 0.128085)
(-0.000123687 -7.57839e-05 0.134452)
(-0.000123322 7.63801e-05 0.13445)
(0.000124053 7.47831e-05 0.134445)
(4.00639e-06 -9.46357e-06 0.128057)
(7.66224e-05 0.000120595 0.134661)
(4.00074e-05 3.96946e-05 0.154829)
(0.000299102 0.000296761 0.138159)
(5.07451e-05 0.00024578 0.147408)
(0.000245858 5.04798e-05 0.147389)
(-0.000719391 4.56753e-05 0.0976256)
(-0.000337128 0.000347188 0.132237)
(-0.000741631 0.000619695 0.0684811)
(-0.000382395 5.23344e-05 0.143004)
(4.58249e-05 -0.000717716 0.0976938)
(0.000346713 -0.000336969 0.132215)
(5.25302e-05 -0.000383519 0.142979)
(0.000618931 -0.000741484 0.0684757)
(-0.000290054 -0.000291402 0.123977)
(-0.000645094 -0.000776582 0.0604026)
(-0.000775577 -0.000644909 0.0603956)
(4.59347e-05 0.000753752 0.0903086)
(0.00121965 -0.00063896 0.0579918)
(-5.56431e-05 0.000420165 0.0863179)
(-0.000147778 0.000283071 0.06831)
(-0.000564993 -0.000418292 0.0536974)
(0.0006863 0.000265908 0.0591736)
(0.000756476 4.61889e-05 0.0901666)
(-0.000650976 0.00122689 0.0580968)
(0.000417635 -5.8872e-05 0.0864004)
(0.000283156 -0.000155229 0.0682633)
(-0.000244661 0.000237197 0.144687)
(0.000242547 -0.000237491 0.144669)
(-0.000242408 -0.000237695 0.144668)
(0.00016862 0.00015727 0.146836)
(-0.000168478 0.000157132 0.146836)
(0.000160966 -0.000162768 0.146817)
(-0.000161005 -0.000162679 0.146816)
(-0.000637849 2.90321e-05 0.108366)
(-0.000379241 0.000657286 0.0870186)
(-0.000365347 0.000110824 0.138071)
(-0.000459065 0.000246635 0.133281)
(-0.000528096 -2.78347e-05 0.104027)
(-0.000712219 3.07114e-05 0.0935361)
(-0.000456322 0.000115429 0.139455)
(-0.000423705 -0.000574786 0.0537546)
(0.000266334 0.000693439 0.0591618)
(2.83844e-05 -0.000628995 0.108473)
(0.000111702 -0.000371117 0.138022)
(0.000655988 -0.000384019 0.0869189)
(0.0002465 -0.00045283 0.133252)
(-2.67789e-05 -0.000533066 0.103915)
(0.000115249 -0.000445877 0.139483)
(3.38585e-05 -0.000705543 0.0935923)
(-0.000297591 -0.000584322 0.0760296)
(-0.000581857 -0.000296892 0.0759962)
(-2.97696e-05 -3.60148e-05 0.127927)
(-0.000481674 3.36435e-05 0.0800216)
(3.0894e-05 -0.000476425 0.0800153)
(-4.76908e-06 0.000174389 0.092814)
(0.000107161 8.98086e-05 0.0688792)
(-1.258e-05 0.000382017 0.0928331)
(0.000122723 -3.34442e-06 0.0685593)
(-4.18036e-05 0.000115666 0.0593447)
(-9.12431e-05 -6.78944e-06 0.0591285)
(0.000187107 -5.6319e-06 0.0918064)
(9.42834e-05 0.000100407 0.0686717)
(0.000372405 -9.16488e-06 0.0923466)
(5.34327e-06 0.00012058 0.0681874)
(-0.000119722 0.000114034 0.147114)
(0.000115928 -0.000118724 0.147095)
(-0.000115934 -0.000118608 0.147096)
(7.03214e-05 6.44651e-05 0.147363)
(-7.07274e-05 6.3492e-05 0.147363)
(6.89058e-05 -6.87383e-05 0.147348)
(-6.88802e-05 -6.85642e-05 0.147347)
(-8.65187e-05 -9.44309e-06 0.11039)
(-0.000256408 6.18398e-05 0.09541)
(-9.00156e-05 5.10968e-05 0.141078)
(-8.48385e-05 5.17e-05 0.134926)
(-0.000263485 -1.24667e-05 0.110919)
(-7.84516e-05 4.8278e-05 0.0949805)
(-6.87848e-05 3.74491e-05 0.141204)
(0.000120237 -3.10826e-05 0.0592702)
(-3.24067e-06 -8.82499e-05 0.058959)
(-1.03148e-05 -7.49963e-05 0.111665)
(5.19545e-05 -8.17702e-05 0.141895)
(7.29034e-05 -0.000257968 0.0957856)
(5.54719e-05 -8.31975e-05 0.135365)
(-1.00023e-05 -0.000286672 0.111597)
(3.79167e-05 -7.10983e-05 0.142041)
(4.58404e-05 -7.59959e-05 0.0956205)
(-0.00015123 -0.00012058 0.0820309)
(-0.000128795 -0.000145779 0.0822155)
(8.6878e-05 8.92124e-05 0.128808)
(-3.1145e-05 -0.000102169 0.0817321)
(-0.000101001 -2.67259e-05 0.0820509)
(5.82117e-06 7.97221e-05 0.0928369)
(0.000122042 1.82499e-05 0.0684043)
(3.70815e-06 0.000156996 0.0930226)
(0.000103056 -1.68224e-05 0.068185)
(-0.000109673 -2.29377e-05 0.0590301)
(-9.34408e-05 -3.40577e-05 0.0588197)
(7.96125e-05 6.05394e-06 0.0918109)
(1.55372e-05 0.000122143 0.0681572)
(0.000147277 2.66283e-06 0.092381)
(-1.81846e-05 0.000107101 0.0677807)
(-6.55729e-05 5.76638e-05 0.147392)
(6.35779e-05 -6.24647e-05 0.147376)
(-6.35436e-05 -6.23194e-05 0.147376)
(3.64645e-05 3.40282e-05 0.147456)
(-3.6571e-05 3.37048e-05 0.147456)
(3.62972e-05 -3.66046e-05 0.147443)
(-3.62912e-05 -3.64689e-05 0.147442)
(-2.6307e-05 2.4219e-06 0.110715)
(-9.4962e-05 8.78729e-05 0.0954355)
(-5.97134e-05 2.45241e-05 0.141284)
(-5.87891e-05 5.24117e-05 0.13491)
(-0.000132171 -2.28723e-06 0.111326)
(-9.11762e-06 7.30547e-05 0.0949361)
(-4.15123e-05 2.02319e-05 0.141272)
(-2.3389e-05 -0.000109311 0.0589256)
(-3.49684e-05 -9.61436e-05 0.0586266)
(1.83697e-06 -1.71523e-05 0.111981)
(2.60435e-05 -6.66136e-05 0.142117)
(9.32237e-05 -9.2556e-05 0.0958288)
(5.72811e-05 -6.10881e-05 0.135366)
(-9.72023e-07 -0.000123748 0.112064)
(2.17817e-05 -4.72401e-05 0.142123)
(7.28782e-05 -6.86556e-06 0.0955924)
(-1.14567e-05 -0.000123116 0.0820068)
(-0.000127643 -8.648e-06 0.082203)
(0.000105789 0.000110827 0.128555)
(1.63134e-05 -9.72126e-05 0.0815315)
(-9.64216e-05 1.72846e-05 0.0818616)
(9.05378e-06 3.51975e-05 0.0929422)
(8.99127e-05 5.815e-06 0.0681902)
(8.21021e-06 9.10951e-05 0.0931033)
(7.59229e-05 -2.00868e-05 0.0680315)
(-8.56327e-05 -2.04301e-05 0.0587605)
(-7.01924e-05 -2.44229e-05 0.0585688)
(3.76179e-05 9.71452e-06 0.0919027)
(1.62585e-06 9.1962e-05 0.0679228)
(8.19983e-05 8.04686e-06 0.092453)
(-2.01495e-05 7.97315e-05 0.067611)
(-3.2157e-05 2.82205e-05 0.147493)
(3.19681e-05 -3.09688e-05 0.147479)
(-3.19249e-05 -3.08569e-05 0.147481)
(2.24716e-05 2.17584e-05 0.147492)
(-2.27474e-05 2.10332e-05 0.147492)
(2.26542e-05 -2.32701e-05 0.147482)
(-2.2608e-05 -2.31685e-05 0.147481)
(-6.42972e-07 6.9155e-06 0.111061)
(-5.30182e-05 8.77464e-05 0.0954203)
(-7.13178e-06 1.01742e-05 0.141343)
(-2.12892e-05 2.97391e-05 0.13495)
(-8.59378e-05 3.64782e-06 0.111674)
(1.27115e-05 6.98747e-05 0.0949246)
(-5.42089e-06 9.41404e-06 0.141319)
(-2.26875e-05 -8.63457e-05 0.0586448)
(-2.54105e-05 -7.25384e-05 0.0583702)
(6.26097e-06 4.85318e-06 0.112329)
(1.14889e-05 -1.0078e-05 0.142175)
(9.27786e-05 -5.23934e-05 0.09582)
(3.25253e-05 -2.28351e-05 0.135417)
(4.56358e-06 -8.73507e-05 0.112409)
(9.74401e-06 -7.44104e-06 0.142177)
(6.83656e-05 1.34831e-05 0.0955907)
(3.60337e-06 -0.000101059 0.081709)
(-0.000105019 3.74017e-06 0.0819085)
(0.000121394 0.000126143 0.128481)
(1.65041e-05 -7.70805e-05 0.081216)
(-7.54216e-05 1.60634e-05 0.0815507)
(8.98095e-06 1.0561e-05 0.0930827)
(6.78793e-05 7.38805e-06 0.0680924)
(9.33433e-06 6.18386e-05 0.0932406)
(5.58644e-05 -1.90519e-05 0.0679465)
(-6.56931e-05 -1.1658e-05 0.0585403)
(-5.13422e-05 -1.76846e-05 0.0583665)
(1.54405e-05 9.62763e-06 0.0920345)
(4.61828e-06 6.91445e-05 0.067813)
(5.62099e-05 9.0996e-06 0.0925834)
(-1.81391e-05 5.90012e-05 0.0675162)
(-2.07004e-05 1.7141e-05 0.147512)
(2.06897e-05 -1.86222e-05 0.1475)
(-2.0622e-05 -1.85918e-05 0.147503)
(7.60271e-06 8.16016e-06 0.147458)
(-7.58582e-06 8.0386e-06 0.147457)
(8.07695e-06 -7.96783e-06 0.14745)
(-8.12653e-06 -7.86213e-06 0.147448)
(1.54331e-05 7.92547e-06 0.111378)
(-4.14202e-05 7.80837e-05 0.0954263)
(5.1934e-06 5.22531e-06 0.14136)
(-4.64601e-06 1.92972e-05 0.134978)
(-6.87982e-05 5.86697e-06 0.11201)
(2.22479e-05 5.78022e-05 0.094923)
(8.81914e-06 4.20666e-06 0.141312)
(-1.29265e-05 -6.56955e-05 0.0584186)
(-1.8134e-05 -5.35724e-05 0.0581592)
(7.15901e-06 2.27442e-05 0.112651)
(5.8353e-06 2.04389e-06 0.142184)
(8.26182e-05 -4.13304e-05 0.0958359)
(2.16309e-05 -6.05122e-06 0.135454)
(6.58216e-06 -6.9055e-05 0.112751)
(4.42317e-06 5.76103e-06 0.142173)
(5.61308e-05 2.27961e-05 0.0955985)
(-1.12348e-06 -8.2615e-05 0.0814058)
(-8.57793e-05 -1.16055e-06 0.0816108)
(0.000125943 0.000130858 0.128481)
(1.37842e-05 -5.88272e-05 0.0809231)
(-5.66313e-05 1.30863e-05 0.0812639)
(7.10064e-06 -1.20204e-05 0.0932547)
(5.10961e-05 3.91784e-06 0.0680507)
(7.67954e-06 3.58258e-05 0.0934061)
(4.15932e-05 -2.18391e-05 0.0679219)
(-4.87924e-05 -8.21912e-06 0.0583831)
(-3.73495e-05 -1.54709e-05 0.0582318)
(-5.93983e-06 7.93675e-06 0.0922024)
(2.00484e-06 5.15025e-05 0.0677624)
(3.17756e-05 7.71216e-06 0.092742)
(-2.00962e-05 4.35811e-05 0.0674862)
(-5.89098e-06 3.17079e-06 0.147474)
(6.17794e-06 -2.68835e-06 0.147463)
(-6.15273e-06 -2.7114e-06 0.147466)
(-6.86112e-06 -4.48847e-06 0.147363)
(6.73094e-06 -4.66145e-06 0.147362)
(-6.40306e-06 5.9156e-06 0.147358)
(6.24654e-06 6.04221e-06 0.147355)
(3.62564e-05 7.07405e-06 0.111664)
(-2.77023e-05 6.28051e-05 0.0954457)
(2.40065e-05 -3.30243e-07 0.141352)
(1.44552e-05 6.08908e-06 0.13499)
(-4.56381e-05 5.53897e-06 0.112305)
(3.41887e-05 4.22971e-05 0.0949481)
(2.69337e-05 -4.72072e-07 0.141272)
(-9.88678e-06 -4.89358e-05 0.0582555)
(-1.57062e-05 -3.8762e-05 0.058023)
(6.14114e-06 4.38421e-05 0.112938)
(8.39006e-07 1.89871e-05 0.142159)
(6.5415e-05 -2.7709e-05 0.0958655)
(8.89448e-06 1.3015e-05 0.135474)
(5.94162e-06 -4.41745e-05 0.113059)
(-2.67246e-07 2.24804e-05 0.142137)
(3.91779e-05 3.4715e-05 0.095631)
(1.58803e-06 -6.28085e-05 0.0811676)
(-6.53897e-05 1.31437e-06 0.0813779)
(0.000132035 0.000136998 0.128498)
(1.70672e-05 -4.03964e-05 0.0807162)
(-3.76562e-05 1.64199e-05 0.0810613)
(4.85663e-06 -3.35882e-05 0.0934582)
(3.86867e-05 -2.2487e-06 0.0680776)
(5.47442e-06 1.17858e-05 0.0936011)
(3.05242e-05 -2.84256e-05 0.0679725)
(-3.68463e-05 -1.00117e-05 0.0583097)
(-2.61509e-05 -1.73617e-05 0.0581934)
(-2.68693e-05 5.6467e-06 0.0924073)
(-3.35145e-06 3.7643e-05 0.0677849)
(8.7426e-06 5.62216e-06 0.0929319)
(-2.54049e-05 3.08378e-05 0.0675351)
(7.55004e-06 -9.97174e-06 0.147375)
(-7.21325e-06 1.17533e-05 0.147365)
(7.2549e-06 1.16802e-05 0.147369)
(-2.11153e-05 -1.67588e-05 0.147202)
(2.12332e-05 -1.66345e-05 0.1472)
(-2.06214e-05 1.93024e-05 0.147198)
(2.03624e-05 1.94644e-05 0.147194)
(5.8736e-05 5.06431e-06 0.111913)
(-1.17992e-05 4.43227e-05 0.0954988)
(4.32374e-05 -4.21348e-06 0.141306)
(3.33595e-05 -7.05068e-06 0.134962)
(-2.00447e-05 3.91241e-06 0.112559)
(4.80626e-05 2.48015e-05 0.0950148)
(4.57927e-05 -4.3366e-06 0.14118)
(-1.02985e-05 -3.5361e-05 0.0581778)
(-1.63953e-05 -2.64969e-05 0.0579788)
(4.53792e-06 6.48717e-05 0.113184)
(-3.23867e-06 3.66602e-05 0.14209)
(4.66485e-05 -1.19982e-05 0.0959266)
(-4.95624e-06 3.11097e-05 0.135454)
(4.35452e-06 -1.86054e-05 0.113323)
(-4.25541e-06 4.04338e-05 0.142051)
(2.13057e-05 4.85436e-05 0.0957011)
(8.16969e-06 -4.3873e-05 0.0810295)
(-4.61738e-05 8.22652e-06 0.0812446)
(0.000140576 0.00014546 0.128493)
(2.38078e-05 -2.26447e-05 0.0806179)
(-1.9808e-05 2.35824e-05 0.0809662)
(2.53364e-06 -5.45577e-05 0.0936936)
(2.83787e-05 -1.07966e-05 0.0681875)
(3.15673e-06 -1.12853e-05 0.0938252)
(2.14939e-05 -3.70622e-05 0.068113)
(-2.602e-05 -1.25795e-05 0.0583327)
(-1.71391e-05 -2.084e-05 0.0582504)
(-4.66409e-05 3.31059e-06 0.0926493)
(-1.09374e-05 2.57605e-05 0.0678916)
(-1.34634e-05 3.27773e-06 0.0931524)
(-3.22165e-05 2.00385e-05 0.0676743)
(2.05471e-05 -2.26673e-05 0.147214)
(-2.01036e-05 2.57603e-05 0.147204)
(2.02417e-05 2.55943e-05 0.14721)
(-3.46794e-05 -2.84757e-05 0.146975)
(3.47587e-05 -2.80396e-05 0.146971)
(-3.46473e-05 3.12485e-05 0.146972)
(3.42329e-05 3.14743e-05 0.146966)
(8.16174e-05 2.80449e-06 0.112127)
(5.30025e-06 2.68423e-05 0.0955909)
(6.26477e-05 -8.44564e-06 0.141218)
(5.23478e-05 -2.10819e-05 0.134878)
(6.08062e-06 1.71685e-06 0.11277)
(6.27139e-05 8.0889e-06 0.095127)
(6.4099e-05 -8.20596e-06 0.141023)
(-1.30361e-05 -2.37295e-05 0.0581968)
(-1.92747e-05 -1.56302e-05 0.058036)
(2.44451e-06 8.55815e-05 0.113388)
(-7.28431e-06 5.58327e-05 0.141967)
(2.81759e-05 4.98859e-06 0.096026)
(-1.93194e-05 5.02825e-05 0.135381)
(2.41295e-06 6.51221e-06 0.113543)
(-8.08891e-06 5.97926e-05 0.141907)
(3.83659e-06 6.28147e-05 0.0958147)
(1.70706e-05 -2.60965e-05 0.0809998)
(-2.83391e-05 1.74202e-05 0.0812196)
(0.000150566 0.000154981 0.12845)
(3.21529e-05 -6.23622e-06 0.0806326)
(-3.09268e-06 3.23102e-05 0.0809827)
(2.56997e-07 -7.4806e-05 0.0939608)
(1.93335e-05 -2.02703e-05 0.0683838)
(7.48811e-07 -3.32964e-05 0.0940778)
(1.34913e-05 -4.56328e-05 0.0683493)
(-1.74011e-05 -1.76281e-05 0.058455)
(-8.17397e-06 -2.48753e-05 0.058415)
(-6.55865e-05 1.02271e-06 0.0929293)
(-1.8885e-05 1.56121e-05 0.0680835)
(-3.42809e-05 9.79677e-07 0.0933992)
(-3.95811e-05 1.07857e-05 0.0679059)
(3.26458e-05 -3.54257e-05 0.146993)
(-3.24392e-05 3.88132e-05 0.146982)
(3.27485e-05 3.85113e-05 0.14699)
(-4.83738e-05 -4.05975e-05 0.146682)
(4.86918e-05 -4.00012e-05 0.146675)
(-4.83876e-05 4.27211e-05 0.14668)
(4.77434e-05 4.31071e-05 0.146671)
(0.000103727 1.7685e-07 0.112311)
(2.23052e-05 9.37215e-06 0.0957231)
(8.18587e-05 -1.24604e-05 0.141087)
(7.0861e-05 -3.40792e-05 0.134728)
(3.14329e-05 -7.75425e-07 0.112939)
(7.72862e-05 -8.11986e-06 0.0952894)
(8.24096e-05 -1.21664e-05 0.140791)
(-1.63256e-05 -1.38095e-05 0.058314)
(-2.25996e-05 -6.47056e-06 0.0581952)
(6.44478e-08 0.00010518 0.113554)
(-1.1357e-05 7.62869e-05 0.14179)
(1.06226e-05 2.11792e-05 0.0961643)
(-3.40131e-05 7.10176e-05 0.13525)
(-6.79635e-08 3.05494e-05 0.113719)
(-1.17442e-05 8.04162e-05 0.141703)
(-1.29851e-05 7.64155e-05 0.0959757)
(2.69002e-05 -9.97244e-06 0.0810768)
(-1.17821e-05 2.73637e-05 0.081301)
(0.000161658 0.000165428 0.128362)
(4.14786e-05 8.77566e-06 0.0807599)
(1.18162e-05 4.17839e-05 0.0811092)
(-1.27066e-06 -9.46802e-05 0.0942627)
(1.21738e-05 -2.91214e-05 0.0686636)
(-1.35961e-06 -5.43749e-05 0.0943552)
(7.22363e-06 -5.33158e-05 0.0686772)
(-9.88873e-06 -2.18179e-05 0.0586704)
(-2.13096e-06 -2.97214e-05 0.0586726)
(-8.41134e-05 -9.34438e-07 0.0932561)
(-2.71271e-05 7.25434e-06 0.0683553)
(-5.34331e-05 -1.02893e-06 0.0936652)
(-4.7931e-05 3.35439e-06 0.0682345)
(4.48902e-05 -4.84429e-05 0.146714)
(-4.42387e-05 5.17092e-05 0.1467)
(4.4817e-05 5.12073e-05 0.146712)
(-6.13805e-05 -5.33125e-05 0.146326)
(6.17898e-05 -5.22377e-05 0.146315)
(-6.12937e-05 5.46722e-05 0.146324)
(6.03336e-05 5.54266e-05 0.146311)
(0.000125304 -2.17958e-06 0.112478)
(3.86653e-05 -5.61289e-06 0.0958895)
(0.000101181 -1.62881e-05 0.140923)
(8.97713e-05 -4.82493e-05 0.134504)
(5.52842e-05 -3.14725e-06 0.113064)
(9.27858e-05 -2.26438e-05 0.09551)
(0.000101203 -1.6226e-05 0.140472)
(-2.05069e-05 -5.53891e-06 0.0585216)
(-2.67963e-05 1.02343e-06 0.0584566)
(-2.57878e-06 0.000124221 0.113688)
(-1.57863e-05 9.71481e-05 0.14156)
(-5.71294e-06 3.77231e-05 0.0963384)
(-4.89032e-05 9.16093e-05 0.135062)
(-2.68091e-06 5.33022e-05 0.113853)
(-1.54288e-05 0.000101347 0.141433)
(-2.68754e-05 9.26457e-05 0.0961884)
(3.72368e-05 4.27819e-06 0.0812514)
(1.98022e-06 3.82502e-05 0.0814814)
(0.000173008 0.000176792 0.128234)
(5.16348e-05 2.23111e-05 0.0809996)
(2.31832e-05 5.2903e-05 0.0813429)
(-2.8106e-06 -0.000110194 0.0946122)
(5.78659e-06 -3.67522e-05 0.0690141)
(-2.93589e-06 -7.34326e-05 0.0946536)
(9.68589e-07 -6.08812e-05 0.0691102)
(-4.5349e-06 -2.73339e-05 0.0589647)
(4.27736e-06 -3.38416e-05 0.0590345)
(-0.000102644 -2.64651e-06 0.0936561)
(-3.49863e-05 1.12918e-06 0.0686932)
(-6.98412e-05 -2.62071e-06 0.0939338)
(-5.73289e-05 -2.6159e-06 0.0686699)
(5.75825e-05 -6.09284e-05 0.146376)
(-5.6572e-05 6.43247e-05 0.146358)
(5.75371e-05 6.34201e-05 0.146375)
(-7.11604e-05 -6.76287e-05 0.145913)
(7.19698e-05 -6.67894e-05 0.145896)
(-7.18835e-05 6.83102e-05 0.145909)
(7.05241e-05 6.9763e-05 0.145889)
(0.000146703 -4.40761e-06 0.112669)
(5.38748e-05 -1.87301e-05 0.0960778)
(0.000119431 -1.95333e-05 0.140741)
(0.000108457 -6.21904e-05 0.134195)
(7.68333e-05 -5.24504e-06 0.113133)
(0.000108306 -3.55313e-05 0.0958143)
(0.000121418 -2.09116e-05 0.140047)
(-2.48351e-05 7.31935e-07 0.0588048)
(-3.19306e-05 6.6649e-06 0.0588226)
(-4.88743e-06 0.000141324 0.113804)
(-2.05728e-05 0.000117841 0.141286)
(-1.80628e-05 5.49258e-05 0.0965313)
(-6.26903e-05 0.000110868 0.134823)
(-5.31314e-06 7.45972e-05 0.11395)
(-1.94314e-05 0.000121504 0.141087)
(-3.73611e-05 0.000109567 0.0964806)
(4.71166e-05 1.5655e-05 0.0815041)
(1.21313e-05 4.98318e-05 0.0817441)
(0.000183991 0.000188259 0.128078)
(6.28034e-05 3.35165e-05 0.0813558)
(3.31571e-05 6.40851e-05 0.0816846)
(-3.68617e-06 -0.000113629 0.0944119)
(8.85378e-08 -4.29263e-05 0.0693975)
(-4.44828e-06 -8.86119e-05 0.0949558)
(-1.14877e-05 -6.10556e-05 0.0694172)
(1.35436e-06 -2.95486e-05 0.059313)
(1.37226e-05 -3.88809e-05 0.0593812)
(-3.9017e-05 -3.04107e-06 0.0690696)
(-8.18389e-05 -3.94341e-06 0.0941618)
(7.24146e-05 -7.00395e-05 0.145975)
(-7.20704e-05 7.3938e-05 0.145952)
(7.34466e-05 7.20062e-05 0.145976)
(0.000163729 -5.98935e-06 0.113)
(6.53835e-05 -2.89537e-05 0.0962421)
(0.000132881 -2.14007e-05 0.140574)
(0.000126202 -7.99635e-05 0.133778)
(9.43999e-05 -6.96074e-06 0.11309)
(0.00012021 -4.32853e-05 0.0962692)
(0.000145773 -2.51459e-05 0.139495)
(-2.6275e-05 4.89548e-06 0.0591401)
(-6.72205e-06 0.000160973 0.113297)
(-2.45816e-05 0.000136623 0.140988)
(-2.93125e-05 7.00049e-05 0.0966872)
(-7.61529e-06 9.50683e-05 0.114031)
(-2.30521e-05 0.00013419 0.140578)
(5.41585e-05 2.38489e-05 0.0817969)
(2.19156e-05 5.89248e-05 0.0820625)
(0.00019586 0.000201827 0.127963)
(7.11027e-05 3.87985e-05 0.0818501)
(3.84316e-05 6.93081e-05 0.0819882)
(0.000291087 0.000290315 0.124001)
(0.000776204 0.000638886 0.0604619)
(0.000638956 0.000776322 0.0604581)
(0.000710323 -0.000542187 0.0342956)
(0.000807523 0.000639423 0.0497874)
(-0.000548624 0.00071379 0.0342642)
(0.000639683 0.000807569 0.049788)
(0.000390194 0.000382597 0.123392)
(9.94666e-05 7.90781e-06 0.0685502)
(6.51305e-06 0.00010613 0.0685226)
(0.000535189 0.000630617 0.0630371)
(0.000630932 0.000533979 0.0630431)
(4.58141e-05 0.000717982 0.0977083)
(0.000347075 0.000336865 0.132213)
(0.000619352 0.000741934 0.0684864)
(5.24296e-05 0.000383277 0.143005)
(-4.58332e-05 0.000717861 0.0977107)
(-0.000347104 0.000336859 0.132212)
(-0.000618857 0.000741894 0.0684885)
(-5.24152e-05 0.000383232 0.143005)
(0.000116856 0.000947608 0.079121)
(0.000954074 -0.00335304 0.0286244)
(0.00078041 0.000709114 0.0541835)
(-6.27194e-05 3.57449e-05 0.0820337)
(-0.000116703 0.000947611 0.0791212)
(-0.000955454 -0.00335658 0.0286246)
(-0.000777083 0.000710755 0.0541904)
(6.22304e-05 3.5694e-05 0.0820357)
(6.80984e-05 0.000677581 0.0986992)
(0.000343716 0.000385199 0.1316)
(0.000683033 -0.000469157 0.0735309)
(8.43453e-05 0.000233655 0.135743)
(0.000524612 0.000714188 0.0709856)
(6.30906e-05 0.000314534 0.139689)
(-1.72032e-05 0.000153598 0.101686)
(-6.79853e-05 0.000677452 0.0987008)
(-0.000343938 0.000385328 0.131599)
(-0.00068173 -0.00046831 0.0735343)
(-8.43446e-05 0.000233719 0.135743)
(-0.000523255 0.000713938 0.0710181)
(-6.3064e-05 0.000314526 0.139689)
(1.68109e-05 0.000153519 0.101688)
(-0.00029131 0.000290253 0.124001)