/*--------------------------------*- C++ -*----------------------------------*\
| =========                 |                                                 |
| \\      /  F ield         | OpenFOAM: The Open Source CFD Toolbox           |
|  \\    /   O peration     | Version:  2206                                  |
|   \\  /    A nd           | Website:  www.openfoam.com                      |
|    \\/     M anipulation  |                                                 |
\*---------------------------------------------------------------------------*/
FoamFile
{
    version     2.0;
    format      ascii;
    arch        "LSB;label=32;scalar=64";
    class       volScalarField;
    location    "40";
    object      p;
}
// * * * * * * * * * * * * * * * * * * * * * * * * * * * * * * * * * * * * * //

dimensions      [0 2 -2 0 0 0 0];

internalField   nonuniform List<scalar> 
66616
(
-0.000393593
-0.00036367
-0.000363571
-0.00031775
-0.00100595
-0.00101973
-0.00101936
-0.000994274
-0.00139247
-0.00139784
-0.00139784
-0.00137942
-0.00168492
-0.00168792
-0.0016879
-0.00167182
-0.00194504
-0.0019451
-0.00194512
-0.00192939
-0.00220744
-0.00220769
-0.00220768
-0.00219128
-0.00247085
-0.00247204
-0.00247201
-0.0024558
-0.00272534
-0.00272643
-0.00272639
-0.00271128
-0.00296921
-0.00296965
-0.00296967
-0.00295521
-0.00320691
-0.00320696
-0.00320704
-0.00319278
-0.00344222
-0.00344207
-0.00344225
-0.00342805
-0.00367674
-0.00367643
-0.00367685
-0.00366272
-0.00026012
-0.000274034
-0.000274042
-0.000260136
-0.000273989
-0.000274045
-0.000277398
-0.000277399
-0.00027739
-0.000277386
-0.000274014
-0.000274072
-0.000260125
-0.000273995
-0.000273993
-0.000260148
-0.000317728
-0.000926775
-0.000363964
-0.000363996
-0.000887941
-0.000887925
-0.00031775
-0.000926764
-0.000363642
-0.000364043
-0.000888411
-0.000888351
-0.000364056
-0.000888421
-0.000888372
-0.000317729
-0.000926769
-0.000363589
-0.000888025
-0.000888021
-0.000926783
-0.000994271
-0.00133674
-0.00101929
-0.00101927
-0.00131482
-0.00131483
-0.00099425
-0.00133676
-0.00101972
-0.00101966
-0.00131488
-0.00131489
-0.00101967
-0.00131491
-0.00131487
-0.000994252
-0.00133677
-0.00101933
-0.00131485
-0.00131486
-0.0013368
-0.00137942
-0.00163704
-0.00139778
-0.00139779
-0.0016206
-0.0016206
-0.00137942
-0.00163701
-0.00139784
-0.00139782
-0.00162063
-0.00162062
-0.00139778
-0.00162062
-0.00162062
-0.00137943
-0.00163703
-0.00139781
-0.00162061
-0.00162062
-0.00163706
-0.00167181
-0.00189624
-0.00168789
-0.00168786
-0.00188099
-0.001881
-0.00167181
-0.00189623
-0.00168791
-0.00168789
-0.00188102
-0.00188101
-0.00168787
-0.00188098
-0.00188103
-0.0016718
-0.00189624
-0.00168786
-0.00188099
-0.00188102
-0.00189626
-0.00192938
-0.00215683
-0.00194505
-0.00194504
-0.00214135
-0.00214137
-0.00192936
-0.00215687
-0.00194509
-0.00194506
-0.00214138
-0.00214139
-0.00194506
-0.00214139
-0.00214144
-0.00192939
-0.00215687
-0.00194507
-0.00214139
-0.00214144
-0.00215692
-0.0021912
-0.00242182
-0.00220761
-0.00220761
-0.0024066
-0.00240663
-0.00219123
-0.00242187
-0.00220763
-0.00220762
-0.00240661
-0.00240662
-0.00220767
-0.00240662
-0.00240665
-0.00219123
-0.00242184
-0.00220767
-0.0024066
-0.00240665
-0.00242188
-0.00245576
-0.00267908
-0.00247199
-0.00247201
-0.00266411
-0.00266414
-0.0024558
-0.0026791
-0.00247198
-0.00247197
-0.0026641
-0.00266407
-0.00247199
-0.0026641
-0.00266409
-0.00245577
-0.00267903
-0.00247199
-0.00266405
-0.00266408
-0.00267907
-0.0027113
-0.00292435
-0.00272641
-0.00272642
-0.0029098
-0.00290982
-0.00271133
-0.00292436
-0.00272637
-0.00272632
-0.00290979
-0.00290976
-0.00272633
-0.00290978
-0.00290976
-0.00271126
-0.00292431
-0.00272635
-0.00290973
-0.00290976
-0.00292432
-0.00295526
-0.00316239
-0.00296967
-0.00296966
-0.00314815
-0.00314816
-0.00295526
-0.00316239
-0.00296962
-0.00296957
-0.00314819
-0.00314819
-0.00296955
-0.00314816
-0.00314818
-0.00295522
-0.0031624
-0.0029696
-0.00314814
-0.00314816
-0.0031624
-0.0031928
-0.00339778
-0.00320699
-0.00320696
-0.00338371
-0.00338371
-0.0031928
-0.00339776
-0.00320693
-0.0032069
-0.0033838
-0.0033838
-0.00320688
-0.00338376
-0.0033838
-0.00319281
-0.00339779
-0.00320697
-0.00338371
-0.00338374
-0.0033978
-0.00342808
-0.00363232
-0.00344219
-0.00344214
-0.00361839
-0.00361838
-0.00342804
-0.00363233
-0.00344207
-0.00344203
-0.00361854
-0.00361854
-0.00344201
-0.00361853
-0.00361858
-0.00342808
-0.00363232
-0.00344217
-0.00361839
-0.00361843
-0.00363235
-0.00366277
-0.00367681
-0.00367677
-0.00366273
-0.00367643
-0.00367641
-0.00367634
-0.00366279
-0.00367677
-0.000166526
-0.000126647
-0.000146924
-0.000146953
-5.58467e-05
-0.0001086
-5.65253e-05
-0.000131219
-5.57666e-05
-0.000108596
-0.000131195
-5.64763e-05
-8.64118e-05
-5.95734e-05
-5.95106e-05
-0.000602641
-0.000131454
-0.000222508
-0.000624986
-0.000208757
-0.000618008
-0.00060288
-0.000131454
-0.000222501
-0.000625147
-0.000393614
-0.000393601
-0.000393613
-0.000874364
-0.00087438
-0.000874389
-0.000874391
-0.000595208
-0.00022174
-0.000372791
-0.000546186
-0.000271533
-0.000606716
-0.000548131
-0.000208787
-0.000618085
-0.000595076
-0.000372595
-0.000221666
-0.000546285
-0.000271562
-0.000548261
-0.000606604
-0.000270775
-0.000270618
-0.000591119
-0.000605653
-0.000605622
-0.00117494
-0.00103889
-0.00102823
-0.00117973
-0.00103946
-0.00118147
-0.00117534
-0.00103884
-0.00102864
-0.00117967
-0.00100591
-0.00100591
-0.00100591
-0.00130839
-0.00130842
-0.00130844
-0.00130842
-0.0011647
-0.00102302
-0.00101338
-0.00112937
-0.00101213
-0.00117054
-0.00112443
-0.00103948
-0.00118139
-0.001164
-0.00101238
-0.00102274
-0.00112909
-0.00101118
-0.00112363
-0.00117028
-0.00102804
-0.00102808
-0.00115663
-0.00117517
-0.00117512
-0.00149937
-0.00138742
-0.00138682
-0.00149994
-0.00138877
-0.00150083
-0.00149953
-0.00138707
-0.00138644
-0.00149991
-0.00139245
-0.00139247
-0.00139245
-0.0016169
-0.00161691
-0.00161692
-0.00161691
-0.00149603
-0.00138562
-0.00139584
-0.00147608
-0.00138398
-0.00149738
-0.00147446
-0.00138842
-0.00150079
-0.00149575
-0.00139557
-0.00138585
-0.00147606
-0.00138422
-0.00147424
-0.00149728
-0.00138586
-0.00138614
-0.00149472
-0.0014987
-0.0014987
-0.00176841
-0.00167407
-0.00167341
-0.0017691
-0.00167431
-0.00176915
-0.00176875
-0.00167401
-0.00167315
-0.0017693
-0.00168486
-0.00168487
-0.00168485
-0.00188047
-0.00188048
-0.0018805
-0.0018805
-0.00176751
-0.00167387
-0.00168685
-0.00175308
-0.00167333
-0.0017681
-0.00175224
-0.00167424
-0.00176933
-0.00176716
-0.00168674
-0.001674
-0.00175306
-0.00167353
-0.00175215
-0.00176785
-0.00167348
-0.00167357
-0.00176846
-0.00176895
-0.00176881
-0.00202526
-0.00192939
-0.00192923
-0.00202546
-0.00192946
-0.00202559
-0.00202562
-0.00192936
-0.00192907
-0.00202563
-0.001945
-0.00194501
-0.00194498
-0.0021414
-0.00214145
-0.00214145
-0.00214147
-0.00202466
-0.0019303
-0.00194485
-0.0020099
-0.00193038
-0.00202483
-0.00200977
-0.00192945
-0.00202577
-0.00202433
-0.00194482
-0.00193043
-0.00200988
-0.00193056
-0.00200971
-0.00202462
-0.00192956
-0.0019296
-0.00202537
-0.00202561
-0.00202545
-0.00228969
-0.00219159
-0.00219153
-0.0022899
-0.0021917
-0.00229002
-0.00229006
-0.00219155
-0.00219138
-0.0022901
-0.00220742
-0.00220742
-0.00220742
-0.00240561
-0.00240564
-0.00240563
-0.00240566
-0.00228885
-0.0021925
-0.00220765
-0.0022742
-0.00219248
-0.00228927
-0.0022741
-0.0021917
-0.0022902
-0.00228849
-0.00220761
-0.00219263
-0.00227417
-0.00219268
-0.00227406
-0.00228901
-0.0021917
-0.00219176
-0.00228963
-0.00228998
-0.00228984
-0.00255152
-0.00245576
-0.00245571
-0.00255171
-0.00245585
-0.00255179
-0.00255183
-0.00245572
-0.00245551
-0.00255186
-0.00247083
-0.00247081
-0.00247082
-0.00266287
-0.00266291
-0.00266287
-0.00266287
-0.00255071
-0.00245663
-0.00247164
-0.00253685
-0.00245658
-0.00255108
-0.00253641
-0.00245577
-0.00255187
-0.00255035
-0.00247162
-0.00245674
-0.00253681
-0.00245679
-0.00253638
-0.00255083
-0.00245578
-0.00245585
-0.00255203
-0.00255171
-0.00255156
-0.00280234
-0.00271097
-0.00271097
-0.00280247
-0.00271098
-0.00280246
-0.00280259
-0.00271085
-0.00271069
-0.00280256
-0.00272531
-0.00272527
-0.00272525
-0.00290912
-0.00290915
-0.00290912
-0.00290913
-0.00280159
-0.00271174
-0.00272601
-0.0027882
-0.00271177
-0.00280187
-0.00278782
-0.00271085
-0.00280253
-0.00280122
-0.00272597
-0.00271184
-0.00278812
-0.00271199
-0.00278777
-0.00280159
-0.00271092
-0.00271098
-0.00280299
-0.00280243
-0.00280229
-0.0030434
-0.00295503
-0.0029551
-0.00304347
-0.00295503
-0.0030435
-0.00304367
-0.00295489
-0.00295481
-0.00304358
-0.00296915
-0.00296913
-0.0029691
-0.00314792
-0.00314795
-0.00314796
-0.00314795
-0.00304266
-0.00295575
-0.00296943
-0.00302945
-0.00295588
-0.00304282
-0.00302926
-0.0029549
-0.00304356
-0.00304237
-0.00296943
-0.00295589
-0.00302942
-0.00295616
-0.00302924
-0.00304266
-0.00295497
-0.00295506
-0.00304387
-0.00304345
-0.00304335
-0.00327995
-0.0031928
-0.00319287
-0.00328001
-0.00319279
-0.00328
-0.0032802
-0.00319269
-0.00319263
-0.00328009
-0.00320684
-0.00320685
-0.00320681
-0.00338363
-0.00338366
-0.00338367
-0.00338367
-0.00327921
-0.00319348
-0.00320685
-0.00326611
-0.00319367
-0.00327937
-0.003266
-0.00319273
-0.00328012
-0.00327896
-0.00320692
-0.00319368
-0.00326606
-0.00319399
-0.00326598
-0.00327921
-0.00319276
-0.00319287
-0.00328027
-0.00328002
-0.00327993
-0.00351487
-0.00342821
-0.00342827
-0.0035149
-0.00342819
-0.00351495
-0.00351504
-0.00342813
-0.00342806
-0.00351495
-0.00344213
-0.00344216
-0.00344212
-0.00361835
-0.00361836
-0.00361838
-0.00361839
-0.00351408
-0.00342888
-0.00344201
-0.00350114
-0.00342906
-0.00351421
-0.00350109
-0.00342816
-0.00351496
-0.00351389
-0.00344214
-0.00342908
-0.00350105
-0.00342935
-0.00350103
-0.0035141
-0.00342819
-0.00342829
-0.00351515
-0.0035149
-0.00351484
-0.00374905
-0.00366284
-0.00366302
-0.00374898
-0.00366282
-0.00374922
-0.00366277
-0.00366273
-0.00367664
-0.00367669
-0.00367662
-0.00374817
-0.00366355
-0.00367628
-0.00373568
-0.00366377
-0.00374837
-0.00373577
-0.00366278
-0.00374817
-0.00367674
-0.00366384
-0.0036641
-0.00373581
-0.0036628
-0.00366291
-0.00374937
-0.00374917
-0.00374908
-8.64391e-05
-5.92853e-05
-5.93091e-05
-8.75562e-05
-8.49595e-05
-8.77295e-05
-8.49994e-05
-0.000120229
-0.000159801
-0.000159623
-7.33795e-05
-7.33947e-05
-5.5788e-05
-0.000108435
-5.64897e-05
-0.000131206
-5.57632e-05
-0.000108427
-5.65664e-05
-0.000131197
-6.78208e-05
-2.23175e-05
-8.82126e-05
-0.00021137
-6.78246e-05
-2.23238e-05
-8.82743e-05
-0.000211371
-9.21712e-05
-0.000138996
-0.000159496
-0.000252802
-7.18332e-05
-0.000166135
-0.000223595
-9.21592e-05
-0.000138979
-0.000159564
-0.000252807
-7.19185e-05
-0.000166123
-0.000223585
-8.64267e-05
-5.95685e-05
-5.93245e-05
-8.77086e-05
-8.48188e-05
-0.000120211
-0.000160123
-0.000159885
-7.32801e-05
-7.34086e-05
-8.77374e-05
-8.5013e-05
-5.58312e-05
-0.000108612
-5.6516e-05
-0.000131207
-5.58223e-05
-0.000108422
-0.000131204
-5.65713e-05
-6.78071e-05
-2.26176e-05
-8.8249e-05
-0.000211482
-9.21533e-05
-0.000139327
-0.000159634
-0.00025275
-7.18489e-05
-0.000166109
-0.000223655
-6.78091e-05
-2.27307e-05
-8.82733e-05
-0.000211482
-9.21496e-05
-0.000138976
-0.00025276
-0.000159784
-0.0001661
-7.19245e-05
-0.000223649
-0.000166519
-0.000126628
-0.000146917
-0.000146961
-0.000166523
-0.000126627
-0.000146948
-0.000146934
-0.000166519
-0.000126636
-0.000146953
-0.000146923
-0.000206363
-0.000154038
-0.000298179
-0.000298096
-0.000180631
-0.000180586
-0.000317507
-0.000206368
-0.000154018
-0.000298182
-0.000298097
-0.00018063
-0.000180596
-0.000317508
-0.000206378
-0.000154016
-0.000298105
-0.000298187
-0.000180585
-0.000180646
-0.000317557
-0.000206378
-0.000154018
-0.0002981
-0.000298188
-0.000180595
-0.000180644
-0.00031756
-5.58322e-05
-0.000108421
-0.000131213
-5.65918e-05
-9.2174e-05
-0.000139302
-0.000159716
-0.000252757
-7.18772e-05
-0.000166116
-0.000223673
-6.78433e-05
-2.26153e-05
-8.82808e-05
-0.000211511
-9.21649e-05
-0.000138971
-0.000252764
-0.000159852
-0.00016611
-7.19602e-05
-0.000223685
-6.78376e-05
-2.2741e-05
-8.83073e-05
-0.000211515
-8.64155e-05
-5.95712e-05
-5.92867e-05
-8.78874e-05
-8.48025e-05
-0.000120202
-0.000160227
-0.000159786
-7.32802e-05
-7.33712e-05
-8.75827e-05
-8.4934e-05
-5.5745e-05
-0.000108589
-0.000131182
-5.65262e-05
-9.21563e-05
-0.000139301
-0.000252827
-0.000159481
-0.000166143
-7.18357e-05
-0.000223583
-9.2145e-05
-0.00013929
-0.000252834
-0.000159531
-0.000166132
-7.19087e-05
-0.000223582
-6.77953e-05
-2.22543e-05
-8.82101e-05
-0.000211379
-6.77897e-05
-2.227e-05
-8.82529e-05
-0.000211375
-0.000120178
-0.000160429
-0.00016009
-7.33093e-05
-7.3237e-05
-8.78822e-05
-8.48686e-05
-8.77272e-05
-8.47874e-05
-0.000208744
-0.000617974
-0.000208795
-0.000618074
-0.000270568
-0.000270447
-0.000591125
-0.000605553
-0.000605618
-0.000980475
-0.000688784
-0.000980692
-0.000688761
-0.000686689
-0.000966655
-0.000967079
-0.000687969
-0.000688004
-0.000602625
-0.000131418
-0.00022252
-0.000625005
-0.000595089
-0.000221663
-0.000372686
-0.00054609
-0.000271553
-0.000606624
-0.000548289
-0.000595088
-0.000221664
-0.000372691
-0.000546094
-0.000271544
-0.000606645
-0.000548293
-0.000697751
-0.000980967
-0.000700349
-0.000967865
-0.000697768
-0.000980994
-0.000700378
-0.000967867
-0.000695502
-0.000727877
-0.000958164
-0.000880729
-0.000699238
-0.000723452
-0.000943573
-0.000695505
-0.000727877
-0.000958212
-0.000880736
-0.000699242
-0.000723464
-0.000943599
-0.000270641
-0.000270595
-0.000591125
-0.000605634
-0.000605625
-0.000208804
-0.000618107
-0.000980519
-0.00068881
-0.000686698
-0.000966725
-0.000967095
-0.000688021
-0.000688039
-0.000980712
-0.000688807
-0.000595203
-0.000221692
-0.00037278
-0.000546161
-0.00027149
-0.000606697
-0.000548118
-0.000602878
-0.000131457
-0.000222503
-0.000625167
-0.000595202
-0.000372805
-0.000221723
-0.000546007
-0.000271487
-0.000548077
-0.000606728
-0.000697688
-0.000981154
-0.000700314
-0.000968797
-0.000695576
-0.000727973
-0.000959085
-0.000881808
-0.000699251
-0.000723751
-0.000944928
-0.000697699
-0.000981188
-0.000700335
-0.000968776
-0.000695585
-0.000727896
-0.000881756
-0.000959137
-0.000723663
-0.000699241
-0.000944923
-0.000602883
-0.000131466
-0.000222543
-0.000625167
-0.00059522
-0.000372814
-0.000221744
-0.000546024
-0.000271525
-0.000548088
-0.00060676
-0.000602889
-0.000131488
-0.000222523
-0.000625187
-0.000695597
-0.000727979
-0.000959112
-0.000881803
-0.000699299
-0.000723736
-0.00094493
-0.000697717
-0.000981203
-0.000700365
-0.000968807
-0.0006956
-0.000727914
-0.000881766
-0.000959133
-0.000723662
-0.000699276
-0.000944915
-0.000697724
-0.000981183
-0.000700364
-0.000968784
-0.000270675
-0.000270547
-0.000591128
-0.000605661
-0.000605572
-0.000208753
-0.000617999
-0.000980703
-0.000688761
-0.000686681
-0.000967101
-0.00096667
-0.000688002
-0.000688022
-0.000980497
-0.000688827
-0.000595071
-0.000372601
-0.000221672
-0.000546283
-0.00027156
-0.000548263
-0.000606617
-0.000602637
-0.00013144
-0.000222526
-0.000624983
-0.000602631
-0.00013144
-0.000222535
-0.000624996
-0.000695537
-0.000727968
-0.000880784
-0.000958162
-0.000723468
-0.000699276
-0.000943567
-0.000695524
-0.000727989
-0.0008808
-0.000958179
-0.000723496
-0.00069927
-0.000943594
-0.000697793
-0.000980986
-0.000700379
-0.000967878
-0.000697786
-0.000980985
-0.000700396
-0.000967879
-0.000208783
-0.000618111
-0.000208795
-0.000618007
-0.000686694
-0.000967061
-0.000966702
-0.000688018
-0.000688022
-0.00098068
-0.000688791
-0.000980513
-0.000688822
-0.00103944
-0.00118149
-0.00103948
-0.00118138
-0.00102805
-0.00102808
-0.00115664
-0.00117509
-0.00117513
-0.00134813
-0.00122614
-0.00134796
-0.00122585
-0.00120616
-0.00134483
-0.00134479
-0.00122124
-0.0012211
-0.00117494
-0.00103889
-0.00102824
-0.00117975
-0.00116402
-0.00102272
-0.0010123
-0.00112903
-0.00101111
-0.00117031
-0.00112359
-0.00116401
-0.00102274
-0.00101229
-0.00112901
-0.00101112
-0.00117029
-0.00112359
-0.00122124
-0.00134659
-0.00122445
-0.00134543
-0.00122124
-0.0013466
-0.00122454
-0.00134542
-0.00121485
-0.00122597
-0.00134251
-0.00131193
-0.00121926
-0.00122199
-0.00133973
-0.00121485
-0.00122598
-0.00134257
-0.00131193
-0.00121924
-0.001222
-0.00133972
-0.00102813
-0.00102805
-0.00115667
-0.00117504
-0.00117517
-0.00103949
-0.00118142
-0.00134816
-0.00122617
-0.00120617
-0.00134489
-0.00134472
-0.00122131
-0.00122108
-0.00134793
-0.00122588
-0.00116472
-0.00102301
-0.00101336
-0.00112936
-0.0010121
-0.00117052
-0.00112441
-0.00117534
-0.00103886
-0.00102866
-0.00117969
-0.00116471
-0.00101332
-0.00102303
-0.00112931
-0.00101211
-0.00112439
-0.0011706
-0.00122105
-0.00134642
-0.00122418
-0.00134551
-0.00121492
-0.00122612
-0.00134258
-0.0013123
-0.00121912
-0.00122255
-0.00133999
-0.00122107
-0.00134642
-0.00122421
-0.0013455
-0.0012149
-0.00122612
-0.0013123
-0.00134258
-0.00122255
-0.00121915
-0.00134003
-0.00117533
-0.00103887
-0.00102869
-0.00117968
-0.00116467
-0.00101333
-0.00102303
-0.00112931
-0.00101213
-0.0011244
-0.00117056
-0.00117535
-0.00103887
-0.00102867
-0.00117968
-0.0012149
-0.00122613
-0.00134246
-0.00131231
-0.00121912
-0.00122256
-0.00133997
-0.00122107
-0.0013464
-0.0012242
-0.00134542
-0.00121492
-0.00122614
-0.0013123
-0.00134257
-0.00122256
-0.0012191
-0.00133998
-0.00122108
-0.00134642
-0.00122417
-0.0013455
-0.00102808
-0.00102805
-0.00115663
-0.00117518
-0.00117511
-0.00103944
-0.0011815
-0.00134794
-0.00122587
-0.00120616
-0.00134479
-0.00134483
-0.00122113
-0.00122133
-0.00134812
-0.00122617
-0.00116397
-0.00101236
-0.00102274
-0.00112908
-0.00101114
-0.00112362
-0.00117033
-0.00117496
-0.00103886
-0.00102825
-0.00117974
-0.00117495
-0.0010389
-0.00102826
-0.00117973
-0.00121488
-0.00122597
-0.00131192
-0.00134244
-0.00122198
-0.00121926
-0.00133975
-0.00121493
-0.00122601
-0.00131193
-0.00134252
-0.001222
-0.00121931
-0.00133976
-0.00122128
-0.00134657
-0.00122454
-0.00134537
-0.0012213
-0.0013466
-0.00122447
-0.00134539
-0.00103948
-0.00118139
-0.00103947
-0.0011815
-0.00120617
-0.00134474
-0.0013448
-0.00122109
-0.0012213
-0.00134792
-0.00122585
-0.00134813
-0.00122614
-0.00138875
-0.00150087
-0.00138844
-0.00150078
-0.00138613
-0.0013859
-0.00149474
-0.00149871
-0.00149872
-0.00164023
-0.00153822
-0.00164028
-0.00153803
-0.00153298
-0.00163903
-0.00163912
-0.00153657
-0.00153643
-0.00149936
-0.00138742
-0.00138687
-0.0014999
-0.00149575
-0.00138592
-0.00139556
-0.00147604
-0.0013842
-0.0014973
-0.00147425
-0.00149575
-0.00138592
-0.00139555
-0.00147607
-0.00138419
-0.00149732
-0.00147424
-0.00153703
-0.00163983
-0.0015375
-0.00163903
-0.00153699
-0.0016398
-0.00153749
-0.00163904
-0.00153594
-0.00155018
-0.00163787
-0.00161927
-0.00153681
-0.00154864
-0.00163672
-0.00153595
-0.00155019
-0.00163786
-0.00161926
-0.00153684
-0.00154865
-0.00163673
-0.00138617
-0.00138585
-0.00149472
-0.0014987
-0.00149868
-0.00138843
-0.00150075
-0.00164019
-0.0015382
-0.00153295
-0.001639
-0.00163907
-0.00153658
-0.00153638
-0.00164026
-0.00153801
-0.00149608
-0.00138567
-0.00139583
-0.00147609
-0.00138394
-0.00149743
-0.00147446
-0.00149953
-0.00138707
-0.00138646
-0.0014999
-0.00149606
-0.00139582
-0.00138566
-0.00147608
-0.00138396
-0.00147447
-0.00149738
-0.00153672
-0.00163995
-0.0015373
-0.00163925
-0.00153574
-0.00155019
-0.00163806
-0.00161942
-0.00153668
-0.00154882
-0.00163707
-0.00153673
-0.00163993
-0.00153729
-0.00163927
-0.00153574
-0.00155022
-0.00161942
-0.00163806
-0.00154884
-0.00153662
-0.00163708
-0.00149949
-0.00138705
-0.0013864
-0.00149987
-0.00149605
-0.00139582
-0.00138566
-0.00147606
-0.00138396
-0.00147446
-0.00149737
-0.00149948
-0.00138706
-0.00138646
-0.00149988
-0.00153574
-0.00155019
-0.00163803
-0.00161939
-0.00153664
-0.00154879
-0.00163704
-0.00153673
-0.00163993
-0.00153729
-0.00163926
-0.00153574
-0.0015502
-0.00161941
-0.00163805
-0.00154882
-0.0015366
-0.00163705
-0.00153674
-0.00163993
-0.00153728
-0.00163928
-0.00138592
-0.0013861
-0.00149473
-0.00149869
-0.00149865
-0.00138875
-0.00150086
-0.00164025
-0.00153803
-0.00153296
-0.0016391
-0.00163898
-0.0015364
-0.00153654
-0.0016402
-0.00153821
-0.00149576
-0.00139556
-0.00138592
-0.00147607
-0.00138421
-0.00147423
-0.00149728
-0.00149937
-0.0013874
-0.00138686
-0.0014999
-0.00149937
-0.00138742
-0.00138687
-0.00149992
-0.00153594
-0.00155017
-0.00161926
-0.00163782
-0.00154861
-0.00153682
-0.00163672
-0.00153594
-0.00155019
-0.00161926
-0.00163785
-0.00154864
-0.00153682
-0.00163674
-0.00153709
-0.00163982
-0.00153749
-0.00163898
-0.00153705
-0.00163982
-0.0015375
-0.00163901
-0.00138842
-0.00150078
-0.00138873
-0.00150086
-0.00153292
-0.00163908
-0.00163898
-0.00153637
-0.00153656
-0.00164024
-0.00153803
-0.00164019
-0.00153821
-0.00167433
-0.00176922
-0.00167427
-0.00176936
-0.0016736
-0.00167353
-0.0017685
-0.00176883
-0.00176896
-0.00189619
-0.00180208
-0.00189632
-0.00180209
-0.0018015
-0.00189609
-0.00189622
-0.00180211
-0.00180207
-0.00176841
-0.00167407
-0.00167344
-0.00176905
-0.00176716
-0.00167401
-0.00168675
-0.00175306
-0.00167346
-0.00176787
-0.00175215
-0.00176717
-0.00167401
-0.00168672
-0.00175303
-0.00167346
-0.00176784
-0.00175214
-0.00180156
-0.00189608
-0.00180205
-0.00189571
-0.00180157
-0.00189609
-0.00180205
-0.0018957
-0.0018026
-0.00181712
-0.00189526
-0.00188057
-0.00180272
-0.00181651
-0.00189487
-0.00180261
-0.00181712
-0.00189526
-0.00188057
-0.00180274
-0.00181652
-0.00189486
-0.00167361
-0.00167347
-0.00176847
-0.00176871
-0.00176905
-0.00167423
-0.00176938
-0.00189619
-0.00180207
-0.00180148
-0.00189612
-0.00189619
-0.00180211
-0.00180204
-0.00189631
-0.00180209
-0.00176753
-0.00167389
-0.00168686
-0.00175307
-0.00167329
-0.00176809
-0.00175225
-0.00176876
-0.00167399
-0.0016732
-0.00176926
-0.00176755
-0.00168685
-0.00167388
-0.00175307
-0.0016733
-0.00175226
-0.0017681
-0.00180139
-0.00189626
-0.00180203
-0.00189607
-0.00180244
-0.00181715
-0.00189548
-0.00188062
-0.00180262
-0.00181658
-0.00189521
-0.0018014
-0.00189628
-0.00180204
-0.00189608
-0.00180244
-0.00181716
-0.00188063
-0.0018955
-0.00181661
-0.00180264
-0.00189525
-0.00176874
-0.00167399
-0.00167321
-0.00176928
-0.00176753
-0.00168684
-0.00167389
-0.00175304
-0.00167331
-0.00175225
-0.00176808
-0.00176874
-0.00167399
-0.00167322
-0.00176924
-0.00180243
-0.00181712
-0.00189547
-0.00188058
-0.00180262
-0.00181653
-0.00189521
-0.00180141
-0.00189627
-0.00180204
-0.00189607
-0.00180245
-0.00181717
-0.00188064
-0.00189549
-0.00181661
-0.00180261
-0.00189524
-0.0018014
-0.00189626
-0.001802
-0.00189608
-0.00167351
-0.00167358
-0.0017685
-0.00176896
-0.0017688
-0.00167432
-0.00176922
-0.00189633
-0.00180208
-0.0018015
-0.00189624
-0.00189608
-0.00180206
-0.0018021
-0.00189619
-0.00180209
-0.00176716
-0.0016867
-0.00167401
-0.00175304
-0.0016735
-0.00175214
-0.00176785
-0.00176839
-0.00167408
-0.00167341
-0.00176908
-0.00176839
-0.00167408
-0.00167346
-0.00176908
-0.00180264
-0.00181711
-0.00188054
-0.00189525
-0.00181646
-0.00180274
-0.00189484
-0.00180262
-0.00181715
-0.00188056
-0.00189525
-0.00181651
-0.00180271
-0.00189488
-0.00180157
-0.0018961
-0.00180206
-0.00189571
-0.00180156
-0.00189608
-0.00180206
-0.0018957
-0.00167424
-0.00176932
-0.0016743
-0.00176921
-0.00180148
-0.00189621
-0.00189606
-0.00180202
-0.00180208
-0.00189631
-0.00180205
-0.00189616
-0.00180208
-0.00192946
-0.00202563
-0.00192945
-0.00202574
-0.0019296
-0.00192956
-0.00202535
-0.00202541
-0.00202554
-0.00215741
-0.00205961
-0.00215751
-0.00205957
-0.00205915
-0.00215714
-0.00215727
-0.00205968
-0.00205962
-0.00202525
-0.00192941
-0.00192923
-0.00202542
-0.00202428
-0.00193039
-0.00194477
-0.00200982
-0.00193049
-0.00202461
-0.0020097
-0.0020243
-0.0019304
-0.00194477
-0.00200982
-0.00193047
-0.00202461
-0.0020097
-0.00205944
-0.00215725
-0.00205951
-0.002157
-0.00205945
-0.00215724
-0.00205951
-0.00215699
-0.00206068
-0.0020753
-0.00215633
-0.00214131
-0.00206049
-0.00207526
-0.00215589
-0.00206069
-0.00207533
-0.00215633
-0.00214133
-0.00206053
-0.00207527
-0.00215589
-0.00192964
-0.00192954
-0.00202536
-0.00202541
-0.00202555
-0.00192944
-0.00202575
-0.0021574
-0.00205959
-0.00205918
-0.00215716
-0.0021573
-0.00205971
-0.00205965
-0.00215757
-0.00205962
-0.00202463
-0.00193031
-0.00194482
-0.00200987
-0.0019303
-0.00202482
-0.00200975
-0.00202562
-0.00192937
-0.0019291
-0.00202565
-0.00202467
-0.00194482
-0.0019303
-0.00200985
-0.00193033
-0.00200976
-0.00202485
-0.00205927
-0.00215742
-0.00205946
-0.00215737
-0.00206046
-0.00207533
-0.00215655
-0.00214135
-0.0020604
-0.00207531
-0.00215621
-0.00205929
-0.00215747
-0.00205951
-0.00215738
-0.00206047
-0.00207535
-0.00214138
-0.00215657
-0.00207535
-0.00206044
-0.00215622
-0.00202565
-0.00192938
-0.00192912
-0.00202564
-0.00202469
-0.00194484
-0.00193032
-0.00200987
-0.00193037
-0.00200976
-0.00202487
-0.00202565
-0.00192936
-0.00192913
-0.00202565
-0.00206052
-0.00207533
-0.00215657
-0.00214138
-0.00206046
-0.00207529
-0.00215625
-0.00205933
-0.00215748
-0.00205953
-0.00215743
-0.00206053
-0.00207539
-0.00214141
-0.00215661
-0.00207535
-0.00206047
-0.00215628
-0.00205934
-0.00215751
-0.00205952
-0.00215744
-0.00192957
-0.00192962
-0.00202538
-0.00202559
-0.00202544
-0.00192946
-0.00202565
-0.00215757
-0.00205961
-0.00205919
-0.00215732
-0.00215718
-0.00205967
-0.00205973
-0.00215746
-0.00205965
-0.00202433
-0.00194477
-0.00193042
-0.00200987
-0.00193053
-0.00200969
-0.00202463
-0.0020253
-0.00192942
-0.00192927
-0.00202548
-0.0020253
-0.00192941
-0.00192926
-0.00202547
-0.00206074
-0.00207532
-0.00214133
-0.00215636
-0.00207524
-0.00206059
-0.00215591
-0.00206074
-0.0020754
-0.00214136
-0.00215639
-0.00207529
-0.00206057
-0.00215594
-0.00205951
-0.00215731
-0.00205958
-0.00215707
-0.00205951
-0.00215732
-0.00205957
-0.00215708
-0.00192944
-0.00202578
-0.00192945
-0.00202564
-0.00205923
-0.00215734
-0.0021572
-0.00205966
-0.00205972
-0.00215761
-0.00205963
-0.00215747
-0.00205964
-0.00219169
-0.00229004
-0.00219165
-0.00229017
-0.00219168
-0.00219164
-0.00228955
-0.00228973
-0.00228987
-0.00242201
-0.00232432
-0.00242214
-0.00232431
-0.00232389
-0.00242175
-0.00242189
-0.00232433
-0.00232429
-0.0022897
-0.00219161
-0.00219155
-0.00228988
-0.00228842
-0.00219256
-0.00220754
-0.00227411
-0.00219255
-0.00228897
-0.00227403
-0.00228843
-0.00219257
-0.00220753
-0.00227412
-0.00219255
-0.00228896
-0.00227402
-0.00232418
-0.0024219
-0.00232427
-0.00242168
-0.0023242
-0.00242194
-0.0023243
-0.00242167
-0.00232521
-0.00234049
-0.00242101
-0.00240632
-0.00232519
-0.00234034
-0.00242049
-0.00232522
-0.00234053
-0.00242105
-0.00240633
-0.00232526
-0.00234035
-0.00242049
-0.00219174
-0.00219164
-0.00228963
-0.00228966
-0.00229002
-0.00219172
-0.00229027
-0.00242205
-0.00232435
-0.00232396
-0.00242181
-0.00242188
-0.00232438
-0.00232434
-0.00242216
-0.00232439
-0.00228878
-0.00219246
-0.00220757
-0.00227413
-0.00219236
-0.0022892
-0.00227403
-0.00229006
-0.0021916
-0.00219141
-0.0022901
-0.00228879
-0.00220757
-0.00219247
-0.00227413
-0.00219236
-0.00227406
-0.0022892
-0.00232401
-0.00242209
-0.00232424
-0.00242201
-0.00232501
-0.00234049
-0.00242123
-0.00240631
-0.00232511
-0.00234032
-0.00242081
-0.00232403
-0.0024221
-0.00232426
-0.002422
-0.00232502
-0.00234052
-0.00240634
-0.00242125
-0.00234037
-0.00232513
-0.00242082
-0.00229013
-0.00219162
-0.00219149
-0.00229017
-0.00228887
-0.00220763
-0.00219254
-0.00227418
-0.00219245
-0.00227411
-0.00228928
-0.00229014
-0.00219165
-0.00219149
-0.00229017
-0.00232511
-0.00234053
-0.00242126
-0.00240634
-0.00232517
-0.00234036
-0.00242085
-0.00232411
-0.00242213
-0.00232433
-0.00242206
-0.00232511
-0.00234058
-0.00240637
-0.00242128
-0.00234042
-0.00232519
-0.00242087
-0.00232412
-0.00242216
-0.00232433
-0.00242207
-0.00219167
-0.00219174
-0.0022896
-0.0022899
-0.00228978
-0.00219175
-0.0022901
-0.00242215
-0.00232433
-0.00232393
-0.00242191
-0.00242177
-0.00232431
-0.00232439
-0.00242204
-0.00232439
-0.0022885
-0.00220758
-0.00219266
-0.00227418
-0.00219264
-0.00227405
-0.00228905
-0.00228977
-0.00219168
-0.00219165
-0.00228996
-0.00228978
-0.00219169
-0.00219165
-0.00228999
-0.00232531
-0.00234051
-0.00240631
-0.00242103
-0.00234032
-0.0023253
-0.0024205
-0.00232531
-0.00234058
-0.00240633
-0.00242105
-0.00234037
-0.0023253
-0.00242052
-0.00232429
-0.00242195
-0.00232436
-0.00242171
-0.00232429
-0.00242197
-0.00232438
-0.00242171
-0.00219175
-0.00229026
-0.00219176
-0.00229014
-0.00232399
-0.00242193
-0.00242179
-0.00232435
-0.00232442
-0.00242219
-0.00232439
-0.00242207
-0.00232442
-0.0024558
-0.00255177
-0.00245577
-0.00255187
-0.0024558
-0.00245575
-0.00255202
-0.00255152
-0.00255164
-0.00267863
-0.0025849
-0.0026787
-0.00258484
-0.00258509
-0.00267845
-0.00267855
-0.00258495
-0.00258488
-0.00255152
-0.00245581
-0.00245574
-0.00255171
-0.00255036
-0.0024567
-0.00247161
-0.0025368
-0.00245669
-0.00255086
-0.0025364
-0.00255036
-0.00245673
-0.0024716
-0.00253684
-0.0024567
-0.00255087
-0.00253641
-0.00258486
-0.00267859
-0.00258492
-0.00267842
-0.00258488
-0.00267861
-0.00258496
-0.00267842
-0.00258592
-0.0026008
-0.00267778
-0.0026637
-0.00258583
-0.00260041
-0.00267736
-0.00258593
-0.00260085
-0.00267779
-0.00266371
-0.00258588
-0.00260043
-0.00267736
-0.00245586
-0.00245576
-0.00255205
-0.00255155
-0.00255167
-0.0024558
-0.0025519
-0.00267864
-0.00258494
-0.00258512
-0.00267847
-0.00267858
-0.00258501
-0.00258492
-0.00267874
-0.00258488
-0.00255067
-0.00245659
-0.00247158
-0.0025368
-0.00245647
-0.00255106
-0.00253638
-0.00255184
-0.00245573
-0.00245554
-0.00255185
-0.00255068
-0.00247158
-0.00245659
-0.0025368
-0.00245647
-0.00253639
-0.00255105
-0.00258462
-0.0026787
-0.00258484
-0.00267868
-0.00258566
-0.00260078
-0.00267794
-0.00266367
-0.0025857
-0.00260037
-0.00267762
-0.00258464
-0.00267871
-0.00258485
-0.00267868
-0.00258566
-0.00260078
-0.00266367
-0.00267794
-0.00260039
-0.0025857
-0.00267764
-0.00255188
-0.00245577
-0.00245561
-0.00255189
-0.00255072
-0.00247162
-0.00245663
-0.00253682
-0.00245654
-0.0025364
-0.00255109
-0.00255188
-0.00245579
-0.00245561
-0.0025519
-0.00258572
-0.00260079
-0.00267798
-0.00266366
-0.00258576
-0.00260035
-0.00267766
-0.00258469
-0.00267876