/*--------------------------------*- C++ -*----------------------------------*\
| =========                 |                                                 |
| \\      /  F ield         | OpenFOAM: The Open Source CFD Toolbox           |
|  \\    /   O peration     | Version:  2206                                  |
|   \\  /    A nd           | Website:  www.openfoam.com                      |
|    \\/     M anipulation  |                                                 |
\*---------------------------------------------------------------------------*/
FoamFile
{
    version     2.0;
    format      ascii;
    arch        "LSB;label=32;scalar=64";
    class       surfaceScalarField;
    location    "40";
    object      phi;
}
// * * * * * * * * * * * * * * * * * * * * * * * * * * * * * * * * * * * * * //

dimensions      [0 3 -1 0 0 0 0];

oriented        oriented;

internalField   nonuniform List<scalar> 
198849
(
-1.21084e-07
8.39422e-09
7.64768e-09
9.0675e-10
5.9698e-10
1.03539e-07
-2.45637e-08
1.36673e-09
-7.64925e-09
-4.52726e-09
1.04369e-07
1.55548e-09
1.22941e-09
6.04015e-10
2.47349e-09
1.6094e-09
2.99823e-09
1.08286e-09
-2.56942e-08
-2.87558e-08
-2.60983e-08
-2.45611e-08
1.3666e-09
-7.64579e-09
-4.51686e-09
1.04345e-07
1.55498e-09
1.22856e-09
6.03917e-10
2.47252e-09
1.60951e-09
2.99815e-09
1.08203e-09
-2.87521e-08
-2.56911e-08
-2.6094e-08
-2.52861e-08
-6.69765e-10
-1.37777e-09
1.27333e-09
1.61776e-09
2.44426e-08
-6.65543e-10
-6.84435e-10
-1.05424e-07
3.5693e-10
3.4382e-10
1.06073e-07
-1.02749e-07
-2.19488e-10
6.83316e-10
3.21402e-10
1.03375e-07
-1.34866e-10
-1.1263e-10
-1.62566e-10
-2.84413e-10
-2.15653e-10
-2.25648e-10
-2.76154e-10
-1.03616e-07
-2.23702e-10
6.74971e-10
3.11374e-10
1.04249e-07
-1.45429e-10
-1.07847e-10
-1.53119e-10
-2.27847e-10
-2.42858e-10
-2.74125e-10
-2.44293e-10
-2.54663e-08
2.19641e-10
2.2334e-10
-1.83463e-10
-1.90595e-10
2.53974e-08
-3.46974e-10
-3.55596e-10
-1.07471e-07
1.78656e-10
1.71743e-10
1.07823e-07
-1.04735e-07
-1.35864e-10
3.55338e-10
1.76512e-10
1.05078e-07
-5.53385e-11
-4.80243e-11
-1.04827e-10
-1.80037e-10
-8.5645e-11
-9.00696e-11
-1.74515e-10
-1.05621e-07
-1.39973e-10
3.50164e-10
1.71592e-10
1.05967e-07
-6.64964e-11
-4.31609e-11
-9.25696e-11
-1.24962e-10
-1.13938e-10
-1.41798e-10
-1.44838e-10
-2.59143e-08
1.31001e-10
1.39699e-10
-7.51324e-11
-8.65941e-11
2.58054e-08
-1.96047e-10
-2.01843e-10
-1.08629e-07
1.00088e-10
9.61757e-11
1.08831e-07
-1.05817e-07
-9.75648e-11
2.01017e-10
1.14943e-10
1.05973e-07
-2.41089e-11
-1.46307e-11
-7.32406e-11
-1.14627e-10
-1.73964e-11
-1.66181e-11
-1.14631e-10
-1.06713e-07
-1.01376e-10
1.9776e-10
1.12026e-10
1.06872e-07
-3.45462e-11
-9.81119e-12
-6.51506e-11
-5.97167e-11
-4.59976e-11
-6.95163e-11
-8.29252e-11
-2.61016e-08
9.06861e-11
1.01851e-10
-1.98928e-11
-3.28969e-11
2.59618e-08
-1.66781e-10
-1.68584e-10
-1.09348e-07
8.37628e-11
8.20726e-11
1.09517e-07
-1.06323e-07
-8.42039e-11
1.68264e-10
8.5739e-11
1.06432e-07
-1.11759e-11
-3.56014e-12
-6.52249e-11
-1.02456e-10
8.69036e-13
7.49868e-13
-9.79905e-11
-1.07224e-07
-8.76843e-11
1.68034e-10
8.23067e-11
1.07334e-07
-2.15106e-11
1.78701e-12
-5.30261e-11
-4.85521e-11
-2.84688e-11
-5.29832e-11
-6.96026e-11
-2.61319e-08
7.67542e-11
8.83847e-11
-4.72006e-12
-1.86456e-11
2.59901e-08
-1.96496e-10
-1.95563e-10
-1.10058e-07
1.01497e-10
1.00975e-10
1.10248e-07
-1.06776e-07
-8.75578e-11
1.94902e-10
9.50326e-11
1.06888e-07
-1.32438e-11
-6.17545e-12
-6.28209e-11
-1.0923e-10
-7.53677e-12
-7.63527e-12
-1.07775e-10
-1.0768e-07
-9.03241e-11
1.96999e-10
8.93826e-11
1.07794e-07
-2.29077e-11
-3.37153e-13
-5.33919e-11
-5.6034e-11
-3.75921e-11
-6.21377e-11
-7.76695e-11
-2.61804e-08
8.00072e-11
9.07515e-11
-6.92939e-12
-2.16241e-11
2.60381e-08
-1.78632e-10
-1.76188e-10
-1.10798e-07
9.54555e-11
9.51206e-11
1.10962e-07
-1.07175e-07
-7.93087e-11
1.74939e-10
9.06467e-11
1.07243e-07
-6.59092e-12
3.37644e-12
-5.94216e-11
-9.92108e-11
1.54731e-12
2.05526e-12
-9.63437e-11
-1.08081e-07
-8.22139e-11
1.78062e-10
8.57829e-11
1.0815e-07
-1.64966e-11
9.0216e-12
-4.70044e-11
-4.60887e-11
-2.87033e-11
-5.26871e-11
-6.86737e-11
-2.61958e-08
7.12118e-11
8.25206e-11
5.14395e-12
-9.79895e-12
2.60467e-08
-1.15532e-10
-1.13236e-10
-1.11355e-07
6.72016e-11
6.66149e-11
1.1145e-07
-1.07357e-07
-6.03888e-11
1.12059e-10
5.79672e-11
1.07367e-07
9.22953e-12
2.08146e-11
-4.14099e-11
-7.81373e-11
2.32374e-11
2.485e-11
-7.8652e-11
-1.08263e-07
-6.43326e-11
1.15083e-10
5.6716e-11
1.08274e-07
-1.76581e-12
2.53832e-11
-3.37086e-11
-2.47892e-11
-6.48003e-12
-2.96382e-11
-4.82782e-11
-2.61694e-08
5.1551e-11
6.46799e-11
2.44456e-11
9.61508e-12
2.60191e-08
-5.7285e-11
-5.68723e-11
-1.11638e-07
3.92313e-11
3.72982e-11
1.11675e-07
-1.07357e-07
-4.66062e-11
5.55719e-11
2.50633e-11
1.07345e-07
2.12906e-11
3.28899e-11
-3.42189e-11
-6.25975e-11
4.01505e-11
4.22846e-11
-6.11954e-11
-1.08259e-07
-5.11824e-11
5.76076e-11
2.69124e-11
1.08246e-07
9.49604e-12
3.67157e-11
-2.38131e-11
-9.05701e-12
1.06148e-11
-1.19841e-11
-3.29878e-11
-2.61428e-08
3.72864e-11
5.16428e-11
3.73569e-11
2.22596e-11
2.59942e-08
-2.39982e-11
-2.50571e-11
-1.11739e-07
2.05013e-11
1.73171e-11
1.1175e-07
-1.07306e-07
-4.0525e-11
2.37422e-11
6.71466e-12
1.07293e-07
2.65902e-11
3.79978e-11
-2.60433e-11
-5.5719e-11
4.77632e-11
5.01806e-11
-5.69003e-11
-1.08201e-07
-4.54364e-11
2.38892e-11
9.81695e-12
1.0819e-07
1.45477e-11
4.14392e-11
-1.95297e-11
-1.95885e-12
1.84738e-11
-3.89321e-12
-2.61259e-11
-2.61281e-08
3.10812e-11
4.60765e-11
4.25061e-11
2.74554e-11
2.59809e-08
-8.91062e-12
-1.12191e-11
-1.11766e-07
1.04835e-11
6.00847e-12
1.1177e-07
-1.0727e-07
-3.87285e-11
1.0324e-11
-3.20512e-13
1.07262e-07
2.81618e-11
3.93989e-11
-2.83367e-11
-5.36434e-11
5.06687e-11
5.30859e-11
-5.24772e-11
-1.08159e-07
-4.3516e-11
8.18829e-12
2.80642e-12
1.08155e-07
1.62554e-11
4.26256e-11
-1.84045e-11
1.95785e-13
2.13106e-11
-1.11477e-12
-2.40788e-11
-2.61214e-08
2.89585e-11
4.41713e-11
4.41723e-11
2.89756e-11
2.59751e-08
-2.59833e-12
-6.43036e-12
-1.11773e-07
3.93748e-13
4.14529e-12
1.11777e-07
-1.07252e-07
-3.79414e-11
-7.0538e-13
1.06693e-11
1.0724e-07
2.8928e-11
3.95308e-11
-2.85889e-11
-5.38361e-11
5.16404e-11
5.4195e-11
-5.27111e-11
-1.08133e-07
-4.3036e-11
-1.11314e-10
1.8783e-10
1.65325e-11
3.76852e-11
-1.83866e-11
1.54904e-12
2.27374e-11
3.24512e-13
-2.42186e-11
1.08064e-07
-2.61183e-08
2.79364e-11
4.32435e-11
4.46673e-11
2.9432e-11
2.5973e-08
-2.09594e-09
-2.13996e-09
2.52875e-08
-2.58099e-08
2.54031e-09
2.21795e-09
6.14513e-11
2.4531e-08
-2.94859e-08
2.81813e-09
-2.06597e-11
2.0977e-09
6.06263e-11
2.45331e-08
-2.9487e-08
2.81675e-09
-2.11737e-11
-2.13945e-09
2.5288e-08
-2.58098e-08
2.52195e-09
2.23701e-09
1.5381e-10
2.45649e-08
-2.95344e-08
2.69675e-09
-2.10558e-11
6.12264e-11
2.09715e-09
2.45311e-08
-2.94857e-08
-2.012e-11
2.81632e-09
-5.81664e-10
-6.43675e-10
-2.98061e-08
-2.89371e-08
-2.95363e-08
-2.95375e-08
-3.8804e-10
-1.18005e-09
6.51415e-10
-3.78169e-10
-1.20228e-09
6.70431e-10
-1.53513e-10
1.21084e-07
-5.86287e-10
-6.43056e-10
-2.98051e-08
-2.89373e-08
-2.9536e-08
-2.95369e-08
-3.88416e-10
-1.17993e-09
6.5045e-10
-3.77316e-10
-1.20163e-09
6.71268e-10
-1.5395e-10
1.21071e-07
-5.80457e-10
-6.3502e-10
-2.98049e-08
-2.89358e-08
-2.95356e-08
-2.95359e-08
-3.88632e-10
-1.18071e-09
6.50439e-10
-3.78297e-10
-1.20193e-09
6.70564e-10
-6.14844e-11
-1.53997e-10
1.21081e-07
-5.80969e-10
-6.41144e-10
-2.98057e-08
-2.89369e-08
-2.95361e-08
-2.95372e-08
-3.7615e-10
-1.18008e-09
6.51887e-10
-3.89977e-10
-1.20245e-09
6.69731e-10
-2.95343e-08
2.6989e-09
-2.13e-11
2.09322e-09
2.45296e-08
-2.9484e-08
-2.0664e-11
2.8204e-09
-2.13861e-09
2.52856e-08
-2.5808e-08
2.52151e-09
2.23663e-09
-2.95319e-08
-2.0218e-11
2.69854e-09
2.14226e-09
2.45643e-08
-2.95349e-08
-2.07025e-11
2.69505e-09
-2.58081e-08
2.55276e-09
2.20469e-09
-6.70883e-10
-1.37687e-09
1.26896e-09
1.6224e-09
2.44439e-08
1.52867e-10
1.40178e-10
2.54558e-08
-2.52201e-08
-2.67862e-10
-2.60799e-10
-4.15121e-09
1.05753e-07
9.88033e-10
1.31797e-09
7.65008e-10
2.4714e-09
1.61795e-09
2.99671e-09
1.08158e-09
-2.57846e-08
-2.87441e-08
-2.60575e-08
6.70633e-10
-8.39774e-09
-4.15839e-09
1.05777e-07
9.97416e-10
1.31914e-09
7.69539e-10
2.47087e-09
1.60837e-09
2.99542e-09
1.07638e-09
-2.57862e-08
-2.87474e-08
-2.60617e-08
1.04571e-07
3.10309e-11
-1.03631e-07
-3.09142e-10
-2.73262e-10
-1.8854e-10
-1.2693e-10
6.29467e-11
-1.66664e-10
-2.03739e-11
2.0404e-10
-1.52982e-10
1.04597e-07
3.19819e-11
-1.03655e-07
-3.10044e-10
-2.73255e-10
-1.90039e-10
-1.26172e-10
6.2416e-11
-1.66411e-10
-2.12427e-11
2.04229e-10
1.25549e-09
1.62816e-09
2.44417e-08
1.39879e-10
2.54561e-08
-2.52202e-08
-2.66392e-10
-2.62411e-10
-4.52946e-09
1.04378e-07
1.57615e-09
1.21891e-09
5.97711e-10
2.47204e-09
1.59955e-09
2.99645e-09
1.0769e-09
-2.56936e-08
-2.87574e-08
-2.60993e-08
6.70509e-10
-8.39316e-09
-4.14658e-09
1.05752e-07
9.97085e-10
1.31852e-09
7.68723e-10
2.47084e-09
1.60784e-09
2.99468e-09
1.07677e-09
-2.87445e-08
-2.5783e-08
-2.60588e-08
1.02759e-07
8.71123e-10
-1.01986e-07
3.96335e-10
-2.64963e-10
-2.00057e-10
-1.82559e-10
-3.00991e-10
-3.26523e-10
-2.91708e-10
-3.33637e-10
-1.59941e-10
1.03711e-07
8.65396e-10
-1.02936e-07
4.37495e-10
-2.67989e-10
-2.03087e-10
-1.92669e-10
-3.19133e-10
-3.26525e-10
-2.93086e-10
-3.14486e-10
-8.39349e-09
-4.14775e-09
1.05746e-07
9.87344e-10
1.31765e-09
7.64831e-10
2.47185e-09
1.61759e-09
1.08229e-09
2.99631e-09
-2.87436e-08
-2.57824e-08
-2.60565e-08
8.71082e-10
-1.01976e-07
3.9668e-10
-2.65262e-10
-1.99254e-10
-1.82115e-10
-3.01141e-10
-3.27463e-10
-3.33334e-10
-2.92289e-10
-1.59723e-10
1.03706e-07
8.64427e-10
-1.02932e-07
4.37531e-10
-2.67873e-10
-2.01626e-10
-1.92227e-10
-3.19137e-10
-3.26969e-10
-2.93912e-10
-3.14406e-10
1.25569e-09
1.62745e-09
2.44396e-08
1.35313e-10
2.54619e-08
-2.52266e-08
-2.75009e-10
-2.55511e-10
-7.64735e-09
-4.52759e-09
1.04372e-07
1.57694e-09
1.21834e-09
5.97758e-10
2.47138e-09
1.59988e-09
1.07623e-09
2.99676e-09
-2.87566e-08
-2.56935e-08
-2.60981e-08
9.39309e-11
-1.02666e-07
-4.10061e-10
-2.69535e-10
-1.86203e-10
-1.19508e-10
8.36629e-11
-1.68259e-10
1.81217e-10
-2.00775e-11
-1.35344e-10
1.03649e-07
9.40721e-11
-1.02697e-07
-4.11027e-10
-2.69322e-10
-1.87791e-10
-1.18862e-10
8.34414e-11
-1.67692e-10
-2.05067e-11
1.81499e-10
-2.52315e-08
-2.76021e-10
-2.53906e-10
2.25598e-10
2.19392e-10
-1.91145e-10
-1.83348e-10
2.53853e-08
6.69396e-11
5.85387e-11
2.59033e-08
-2.57152e-08
-1.58827e-10
-1.54711e-10
3.43167e-10
1.0521e-07
-1.55038e-10
-1.23796e-10
-1.54147e-10
-2.0497e-10
-2.44491e-10
-2.96206e-10
-2.43471e-10
-2.2553e-10
6.65196e-10
3.42824e-10
1.05237e-07
-1.54897e-10
-1.23239e-10
-1.58671e-10
-2.04999e-10
-2.43916e-10
-2.96416e-10
-2.40686e-10
1.06595e-07
3.9464e-10
-1.06196e-07
2.11479e-10
-1.50581e-10
-1.0013e-10
-8.45387e-11
-1.86259e-10
-1.60367e-10
-1.3527e-10
-1.20368e-10
-6.61299e-11
1.0662e-07
3.96342e-10
-1.06225e-07
2.11641e-10
-1.50825e-10
-1.01219e-10
-8.07638e-11
-1.86675e-10
-1.60838e-10
-1.37275e-10
-1.19903e-10
-1.90357e-10
-1.8411e-10
2.53856e-08
5.83578e-11
2.59039e-08
-2.57152e-08
-1.57756e-10
-1.55387e-10
3.20998e-10
1.03387e-07
-1.35272e-10
-1.13043e-10
-1.67294e-10
-2.84834e-10
-2.15011e-10
-2.25561e-10
-2.73286e-10
-2.19699e-10
6.80955e-10
3.48192e-10
1.04342e-07
-1.43541e-10
-1.3062e-10
-1.6844e-10
-2.65588e-10
-2.16307e-10
-2.43615e-10
-2.7291e-10
1.04746e-07
4.06743e-10
-1.04356e-07
1.9784e-10
-1.48463e-10
-1.14002e-10
-6.67666e-11
-1.12253e-10
-1.90286e-10
-1.05272e-10
-1.98629e-10
-7.34791e-11
1.05714e-07
4.03782e-10
-1.05319e-07
2.14154e-10
-1.45322e-10
-1.13628e-10
-7.32582e-11
-1.31503e-10
-1.89961e-10
-1.06815e-10
-1.79494e-10
6.7993e-10
3.48212e-10
1.04339e-07
-1.43391e-10
-1.30538e-10
-1.67133e-10
-2.65551e-10
-2.16987e-10
-2.73504e-10
-2.43668e-10
4.06107e-10
-1.04343e-07
1.97557e-10
-1.49215e-10
-1.13436e-10
-6.98843e-11
-1.12571e-10
-1.90487e-10
-1.98413e-10
-1.03372e-10
-7.37896e-11
1.0571e-07
4.04136e-10
-1.05316e-07
2.14381e-10
-1.4521e-10
-1.12747e-10
-7.30403e-11
-1.31437e-10
-1.90621e-10
-1.06651e-10
-1.79691e-10
-1.82792e-10
-1.90844e-10
2.53921e-08
5.34173e-11
2.59087e-08
-2.5722e-08
-1.65212e-10
-1.48487e-10
6.7554e-10
3.10738e-10
1.04282e-07
-1.45251e-10
-1.0773e-10
-1.54303e-10
-2.28105e-10
-2.42485e-10
-2.43629e-10
-2.74426e-10
4.01858e-10
-1.05228e-07
1.92128e-10
-1.53081e-10
-1.01118e-10
-7.73065e-11
-1.6391e-10
-1.61418e-10
-1.43369e-10
-1.33869e-10
-5.35305e-11
1.05656e-07
4.01392e-10
-1.05261e-07
1.9189e-10
-1.52924e-10
-1.02019e-10
-7.78091e-11
-1.63715e-10
-1.61142e-10
-1.33418e-10
-1.43688e-10
-2.57277e-08
-1.66426e-10
-1.47609e-10
1.3703e-10
1.35471e-10
-8.34118e-11
-7.91747e-11
2.57934e-08
2.79888e-11
2.19504e-11
2.60908e-08
-2.5934e-08
-1.04754e-10
-1.01971e-10
1.8905e-10
1.06943e-07
-7.35029e-11
-5.57135e-11
-9.11697e-11
-1.01638e-10
-1.16182e-10
-1.64687e-10
-1.44015e-10
-1.37098e-10
3.46149e-10
1.88922e-10
1.0697e-07
-7.33802e-11
-5.52951e-11
-9.24673e-11
-1.01729e-10
-1.15644e-10
-1.65108e-10
-1.43863e-10
1.07696e-07
2.25166e-10
-1.07494e-07
1.37247e-10
-1.05095e-10
-6.89981e-11
-4.78129e-11
-1.07345e-10
-9.55012e-11
-6.1964e-11
-5.00305e-11
-2.76442e-11
1.07724e-07
2.25552e-10
-1.07521e-07
1.37147e-10
-1.05361e-10
-6.99834e-11
-4.7693e-11
-1.0778e-10
-9.48522e-11
-6.20768e-11
-4.95749e-11
-8.35985e-11
-7.91461e-11
2.57936e-08
2.16361e-11
2.60908e-08
-2.59333e-08
-1.04065e-10
-1.02637e-10
1.76492e-10
1.0509e-07
-5.58335e-11
-4.83703e-11
-1.05538e-10
-1.8039e-10
-8.58703e-11
-9.04227e-11
-1.74169e-10
-1.31053e-10
3.53756e-10
1.90945e-10
1.0606e-07
-6.15681e-11
-6.25683e-11
-1.04923e-10
-1.60936e-10
-8.70326e-11
-1.09042e-10
-1.73051e-10
1.05827e-07
2.3215e-10
-1.05629e-07
1.2858e-10
-1.05158e-10
-8.4046e-11
-3.04066e-11
-3.16394e-11
-1.25365e-10
-3.22869e-11
-1.28031e-10
-3.44459e-11
1.06808e-07
2.30574e-10
-1.06607e-07
1.38186e-10
-9.92442e-11
-8.24505e-11
-3.591e-11
-5.08663e-11
-1.24472e-10
-3.36252e-11
-1.08704e-10
3.52919e-10
1.91126e-10
1.06057e-07
-6.15799e-11
-6.26771e-11
-1.04362e-10
-1.6101e-10
-8.70222e-11
-1.74354e-10
-1.0898e-10
2.32001e-10
-1.05618e-07
1.28215e-10
-1.05524e-10
-8.30427e-11
-3.06554e-11
-3.18215e-11
-1.25522e-10
-1.27632e-10
-3.25311e-11
-3.4547e-11
1.06804e-07
2.30705e-10
-1.06603e-07
1.38594e-10
-9.9299e-11
-8.18034e-11
-3.5736e-11
-5.08895e-11
-1.25147e-10
-3.35919e-11
-1.08791e-10
-7.57102e-11
-8.66438e-11
2.58e-08
1.68313e-11
2.60958e-08
-2.594e-08
-1.11603e-10
-9.55231e-11
3.51415e-10
1.71426e-10
1.06001e-07
-6.66061e-11
-4.30736e-11
-9.35526e-11
-1.24667e-10
-1.1424e-10
-1.44348e-10
-1.42146e-10
2.2819e-10
-1.06513e-07
1.25081e-10
-1.09476e-10
-7.11683e-11
-4.13488e-11
-8.46572e-11
-9.59449e-11
-7.29777e-11
-6.09783e-11
-1.63823e-11
1.06746e-07
2.28283e-10
-1.06546e-07
1.25218e-10
-1.09958e-10
-7.16087e-11
-4.17632e-11
-8.45526e-11
-9.54766e-11
-6.09753e-11
-7.27072e-11
-2.59448e-08
-1.12737e-10
-9.49176e-11
9.66163e-11
9.71613e-11
-2.80289e-11
-2.57691e-11
2.59508e-08
8.72535e-12
3.97286e-12
2.61212e-08
-2.59703e-08
-8.30625e-11
-8.05103e-11
1.22785e-10
1.07856e-07
-4.08463e-11
-2.05572e-11
-6.26805e-11
-3.67712e-11
-4.73953e-11
-9.21475e-11
-8.22313e-11
-9.69461e-11
1.96193e-10
1.22902e-10
1.07886e-07
-4.06482e-11
-2.01841e-11
-6.72921e-11
-3.65228e-11
-4.73182e-11
-9.28501e-11
-7.92119e-11
1.08213e-07
1.62267e-10
-1.08103e-07
9.39923e-11
-8.29037e-11
-5.13641e-11
-2.85058e-11
-7.46812e-11
-6.74497e-11
-2.82477e-11
-2.46586e-11
-8.52088e-12
1.0824e-07
1.62952e-10
-1.08132e-07
9.47607e-11
-8.31766e-11
-5.25078e-11
-2.49826e-11
-7.4988e-11
-6.71521e-11
-3.11542e-11
-2.39052e-11
-2.82812e-11
-2.56461e-11
2.59502e-08
3.74213e-12
2.61213e-08
-2.59698e-08
-8.27333e-11
-8.10724e-11
1.15089e-10
1.05985e-07
-2.36563e-11
-1.49416e-11
-7.79645e-11
-1.14799e-10
-1.73645e-11
-1.64279e-11
-1.11932e-10
-9.06931e-11
2.00374e-10
1.23915e-10
1.06967e-07
-2.8985e-11
-2.70664e-11
-7.59249e-11
-9.54276e-11
-1.87463e-11
-3.58115e-11
-1.11201e-10
1.06333e-07
1.65038e-10
-1.06225e-07
8.86183e-11
-8.43514e-11
-6.70094e-11
-1.17857e-11
2.0919e-12
-9.68333e-11
1.75888e-12
-1.01286e-10
-1.56069e-11
1.07321e-07
1.64356e-10
-1.07212e-07
9.55477e-11
-7.72593e-11
-6.50538e-11
-1.67938e-11
-1.71559e-11
-9.59239e-11
6.73662e-13
-8.22755e-11
2.00342e-10
1.24008e-10
1.06963e-07
-2.86782e-11
-2.71901e-11
-7.57009e-11
-9.55132e-11
-1.87101e-11
-1.11771e-10
-3.56772e-11
1.65647e-10
-1.06215e-07
8.82744e-11
-8.47608e-11
-6.6118e-11
-1.55564e-11
2.07082e-12
-9.69038e-11
-1.01305e-10
4.18074e-12
-1.56513e-11
1.07318e-07
1.64333e-10
-1.07208e-07
9.53996e-11
-7.73574e-11
-6.46162e-11
-1.6931e-11
-1.71608e-11
-9.64341e-11
7.20215e-13
-8.21612e-11
-2.04933e-11
-3.25905e-11
2.59568e-08
-1.5206e-12
2.61267e-08
-2.59767e-08
-8.94593e-11
-7.46374e-11
1.98354e-10
1.12127e-10
1.06906e-07
-3.48495e-11
-9.41065e-12
-6.56462e-11
-5.96788e-11
-4.62952e-11
-8.22902e-11
-6.95983e-11
1.6471e-10
-1.07116e-07
8.51837e-11
-8.83124e-11
-5.40563e-11
-2.25714e-11
-5.18437e-11
-6.82593e-11
-4.74077e-11
-2.73416e-11
1.81566e-12
1.07258e-07
1.64787e-10
-1.07149e-07
8.56197e-11
-8.9055e-11
-5.4488e-11
-2.29403e-11
-5.19224e-11
-6.78588e-11
-2.7511e-11
-4.72178e-11
-2.5981e-08
-9.0663e-11
-7.40342e-11
8.21992e-11
8.38306e-11
-1.32228e-11
-1.07989e-11
2.59791e-08
1.03742e-11
6.5887e-12
2.61693e-08
-2.60163e-08
-8.67336e-11
-8.32252e-11
9.08244e-11
1.08323e-07
-2.76714e-11
-8.33094e-12
-5.03801e-11
-2.54116e-11
-2.94059e-11
-7.56813e-11
-6.85314e-11
-8.25664e-11
1.67219e-10
9.18704e-11
1.08351e-07
-2.75956e-11
-8.20149e-12
-5.12896e-11
-2.53117e-11
-2.98738e-11
-7.63302e-11
-6.84627e-11
1.08672e-07
1.90749e-10
-1.08554e-07
9.5877e-11
-8.4629e-11
-5.08535e-11
-2.90161e-11
-8.42213e-11
-7.55992e-11
-3.79942e-11
-3.22143e-11
-1.01054e-11
1.08701e-07
1.91334e-10
-1.08582e-07
9.61678e-11
-8.49969e-11
-5.14547e-11
-2.86807e-11
-8.4525e-11
-7.57915e-11
-3.80168e-11
-3.23983e-11
-1.3741e-11
-1.04418e-11
2.59787e-08
5.97547e-12
2.61697e-08
-2.60157e-08
-8.61792e-11
-8.3878e-11
8.58146e-11
1.06442e-07
-1.08491e-11
-3.76267e-12
-6.59642e-11
-1.02385e-10
7.99765e-13
9.66099e-13
-9.79106e-11
-7.66701e-11
1.67746e-10
9.28239e-11
1.07432e-07
-1.60136e-11
-1.5323e-11
-6.40827e-11
-8.33297e-11
-2.25424e-13
-1.82434e-11
-9.69652e-11
1.06786e-07
1.89883e-10
-1.06669e-07
9.15113e-11
-8.65075e-11
-6.68144e-11
-1.2459e-11
-6.43295e-12
-1.04362e-10
-6.3284e-12
-1.08668e-10
-1.79695e-11
1.07781e-07
1.89651e-10
-1.07663e-07
9.9026e-11
-7.96443e-11
-6.51005e-11
-1.77751e-11
-2.57116e-11
-1.03687e-10
-7.51361e-12
-8.96112e-11
1.67643e-10
9.26039e-11
1.07429e-07
-1.61685e-11
-1.53912e-11
-6.36573e-11
-8.32577e-11
-1.55241e-13
-9.74517e-11
-1.83503e-11
1.90438e-10
-1.0666e-07
9.18258e-11
-8.70813e-11
-6.61832e-11
-1.28742e-11
-6.457e-12
-1.04533e-10
-1.08599e-10
-6.33859e-12
-1.78613e-11
1.0778e-07
1.89274e-10
-1.07661e-07
9.86391e-11
-7.97962e-11
-6.47231e-11
-1.80576e-11
-2.55175e-11
-1.0407e-10
-7.30805e-12
-8.96905e-11
-5.07055e-12
-1.82751e-11
2.59856e-08
1.36458e-13
2.61749e-08
-2.60227e-08
-9.21726e-11
-7.80446e-11
1.68647e-10
8.2489e-11
1.07367e-07
-2.18147e-11
2.1811e-12
-5.32373e-11
-4.85545e-11
-2.87402e-11
-6.91958e-11
-5.32555e-11
1.92684e-10
-1.07563e-07
8.63083e-11
-9.00443e-11
-5.33355e-11
-2.26374e-11
-6.1013e-11
-7.66368e-11
-5.55289e-11
-3.62665e-11
5.05435e-13
1.07714e-07
1.92671e-10
-1.07597e-07
8.58229e-11
-9.06677e-11
-5.33076e-11
-2.26954e-11
-6.11733e-11
-7.64289e-11
-3.67143e-11
-5.54376e-11
-2.60273e-08
-9.30943e-11
-7.73393e-11
8.49724e-11
8.69326e-11
-1.66448e-11
-1.27858e-11
2.60269e-08
4.49523e-12
9.98744e-13
2.61839e-08
-2.60379e-08
-7.7353e-11
-7.41016e-11
9.9087e-11
1.08787e-07
-2.9312e-11
-1.04413e-11
-5.0978e-11
-3.30476e-11
-3.94735e-11
-8.56639e-11
-7.67076e-11
-8.53204e-11
1.97081e-10
9.91575e-11
1.08817e-07
-2.89418e-11
-1.01184e-11
-5.50387e-11
-3.32767e-11
-3.95112e-11
-8.60548e-11
-7.43888e-11
1.09078e-07
1.8933e-10
-1.08993e-07
9.93917e-11
-8.01995e-11
-4.72092e-11
-2.58167e-11
-8.06698e-11
-7.20824e-11
-3.51203e-11
-2.80478e-11
-3.95842e-12
1.09107e-07
1.90226e-10
-1.09024e-07
9.87517e-11
-8.02401e-11
-4.76182e-11
-2.17667e-11
-8.14025e-11
-7.19488e-11
-3.77085e-11
-2.79728e-11
-1.69237e-11
-1.25851e-11
2.60264e-08
4.12378e-13
2.6185e-08
-2.60379e-08
-7.68111e-11
-7.45678e-11
9.45481e-11
1.06899e-07
-1.27688e-11
-6.68337e-12
-6.69175e-11
-1.09305e-10
-7.58825e-12
-7.66228e-12
-1.05281e-10
-7.99626e-11
1.9545e-10
1.02284e-10
1.07895e-07
-1.81073e-11
-1.813e-11
-6.51387e-11
-9.03271e-11
-8.80196e-12
-2.70195e-11
-1.04641e-10
1.07185e-07
1.86166e-10
-1.07102e-07
9.5022e-11
-8.24318e-11
-6.30096e-11
-9.17623e-12
-2.53159e-12
-1.00311e-10
-2.8578e-12
-1.03698e-10
-1.20024e-11
1.08187e-07
1.8644e-10
-1.08101e-07
1.01925e-10
-7.51557e-11
-6.11506e-11
-1.43677e-11
-2.19536e-11
-9.98858e-11
-4.23312e-12
-8.48069e-11
1.94479e-10
1.0189e-10
1.07896e-07
-1.83581e-11
-1.80246e-11
-6.47444e-11
-9.02881e-11
-8.5228e-12
-1.04925e-10
-2.66979e-11
1.85608e-10
-1.0709e-07
9.55152e-11
-8.31155e-11
-6.22852e-11
-1.32542e-11
-2.31226e-12
-1.00389e-10
-1.03511e-10
-2.71882e-13
-1.1921e-11
1.08188e-07
1.85051e-10
-1.08103e-07
1.01927e-10
-7.5247e-11
-6.07433e-11
-1.46432e-11
-2.15366e-11
-1.00126e-10
-3.77258e-12
-8.48303e-11
-7.48839e-12
-2.12905e-11
2.60334e-08
-5.54572e-12
2.61898e-08
-2.60447e-08
-8.28066e-11
-6.87329e-11
1.97723e-10
8.85613e-11
1.07829e-07
-2.2795e-11
4.57766e-13
-5.31916e-11
-5.61769e-11
-3.80841e-11
-7.73864e-11
-6.25624e-11
1.90121e-10
-1.07998e-07
8.96445e-11
-8.57509e-11
-4.95749e-11
-1.93051e-11
-5.73959e-11
-7.27909e-11
-5.07764e-11
-3.2967e-11
6.34243e-12
1.08117e-07
1.90168e-10
-1.08033e-07
8.80863e-11
-8.61371e-11
-4.93487e-11
-1.92651e-11
-5.7529e-11
-7.24014e-11
-3.3335e-11
-5.06132e-11
-2.60497e-08
-8.35417e-11
-6.81022e-11
7.65366e-11
7.86853e-11
-4.53662e-12
-1.28418e-12
2.60345e-08
-1.22044e-11
-1.57713e-11
2.61569e-08
-2.60139e-08
-5.84071e-11
-5.65785e-11
9.50728e-11
1.09148e-07
-2.29653e-11
-8.65699e-13
-4.45476e-11
-2.37122e-11
-3.09458e-11
-7.63755e-11
-6.79484e-11
-7.66254e-11
1.79126e-10
9.4197e-11
1.09178e-07
-2.25348e-11
-3.18588e-13
-4.4934e-11
-2.35617e-11
-3.13101e-11
-7.70147e-11
-6.77556e-11
1.09263e-07
1.3319e-10
-1.09239e-07
7.29294e-11
-6.24597e-11
-3.40261e-11
-1.14566e-11
-5.91569e-11
-5.29418e-11
-1.39725e-11
-7.94292e-12
1.26414e-11
1.09297e-07
1.33277e-10
-1.09272e-07
7.12074e-11
-6.26999e-11
-3.44909e-11
-1.11325e-11
-5.965e-11
-5.23372e-11
-1.44956e-11
-7.60645e-12
-4.909e-12
-8.07849e-13
2.60348e-08
-1.64904e-11
2.61585e-08
-2.60148e-08
-5.7499e-11
-5.7106e-11
9.01576e-11
1.07253e-07
-6.14306e-12
2.78032e-12
-6.01049e-11
-9.92836e-11
1.30992e-12
1.8467e-12
-9.62044e-11
-7.12113e-11
1.76496e-10
9.66601e-11
1.08256e-07
-1.11853e-11
-8.01798e-12
-5.81026e-11
-8.04366e-11
-7.12624e-14
-1.75868e-11
-9.57759e-11
1.07367e-07
1.28521e-10
-1.07343e-07
6.84887e-11
-6.46733e-11
-4.94343e-11
5.53108e-12
1.89276e-11
-8.13452e-11
1.75069e-11
-8.36128e-11
5.40962e-12
1.08372e-07
1.29201e-10
-1.08347e-07
7.31382e-11
-5.6626e-11
-4.70599e-11
9.48403e-13
-5.36472e-13
-8.0827e-11
1.62581e-11
-6.48308e-11
1.75009e-10
9.66066e-11
1.08258e-07
-1.1401e-11
-7.86744e-12
-5.76688e-11
-8.04535e-11
4.23406e-13
-9.60213e-11
-1.71727e-11
1.28041e-10
-1.07333e-07
6.85156e-11
-6.51665e-11
-4.87101e-11
5.13981e-12
1.91565e-11
-8.14513e-11
-8.34884e-11
1.77393e-11
5.59604e-12
1.08375e-07
1.28355e-10
-1.0835e-07
7.3252e-11
-5.65915e-11
-4.66983e-11
6.69459e-13
-1.4844e-13
-8.12003e-11
1.66697e-11
-6.493e-11
4.42183e-12
-9.39751e-12
2.60414e-08
-2.15591e-11
2.61625e-08
-2.60208e-08
-6.43924e-11
-5.03832e-11
1.78647e-10
8.41221e-11
1.08186e-07
-1.64061e-11
9.92683e-12
-4.66776e-11
-4.61203e-11
-2.90799e-11
-6.8168e-11
-5.31047e-11
1.33494e-10
-1.0824e-07
6.52534e-11
-6.86947e-11
-3.69246e-11
-5.43652e-12
-3.5698e-11
-5.34857e-11
-3.04801e-11
-1.21159e-11
2.23193e-11
1.083e-07
1.33049e-10
-1.08277e-07
6.33807e-11
-6.91203e-11
-3.66418e-11
-5.43798e-12
-3.57655e-11
-5.2978e-11
-1.24333e-11
-3.02501e-11
-2.60266e-08
-6.52183e-11
-4.9611e-11
5.78143e-11
5.98802e-11
1.59799e-11
1.71522e-11
2.60061e-08
-2.60898e-11
-2.9575e-11
2.613e-08
-2.59862e-08
-4.43215e-11
-4.38543e-11
6.32366e-11
1.09275e-07
-7.56294e-12
1.63528e-11
-3.05165e-11
-2.43503e-12
-8.29401e-12
-5.33539e-11
-4.75854e-11
-5.81077e-11
1.15214e-10
6.18142e-11
1.09312e-07
-7.27061e-12
1.67734e-11
-3.4591e-11
-2.03932e-12
-8.75948e-12
-5.37667e-11
-4.47825e-11
1.09262e-07
7.06771e-11
-1.09272e-07
3.79578e-11
-4.65808e-11
-2.20612e-11
2.0694e-12
-3.89266e-11
-3.52443e-11
5.74838e-12
1.01444e-11
2.6581e-11
1.09302e-07
7.09832e-11
-1.09312e-07
3.68719e-11
-4.67306e-11
-2.25931e-11
5.94458e-12
-3.94399e-11
-3.48311e-11
2.87394e-12
1.04841e-11
1.54386e-11
1.74684e-11
2.60071e-08
-3.02422e-11
2.61321e-08
-2.59875e-08
-4.36593e-11
-4.40768e-11
5.80712e-11
1.07378e-07
9.60886e-12
2.01696e-11
-4.56782e-11
-7.82012e-11
2.30228e-11
2.46319e-11
-7.61527e-11
-5.16515e-11
1.13667e-10
6.23137e-11
1.08383e-07
5.17527e-12
9.978e-12
-4.315e-11
-5.93668e-11
2.18594e-11
5.23337e-12
-7.55667e-11
1.07367e-07
6.61809e-11
-1.07375e-07
3.48861e-11
-4.8855e-11
-3.74722e-11
1.90779e-11
3.85496e-11
-6.44451e-11
3.63542e-11
-6.60223e-11
1.96418e-11
1.08372e-07
6.68918e-11
-1.0838e-07
3.79849e-11
-4.02442e-11
-3.47506e-11
1.49597e-11
1.9239e-11
-6.37148e-11
3.53829e-11
-4.71461e-11
1.12933e-10
6.22667e-11
1.08386e-07
4.96452e-12
1.01882e-11
-4.27763e-11
-5.94376e-11
2.23356e-11
-7.58655e-11
5.64524e-12
6.58339e-11
-1.07365e-07
3.4313e-11
-4.94773e-11
-3.65517e-11
1.52356e-11
3.89112e-11
-6.43077e-11
-6.58144e-11
3.9194e-11
1.97832e-11
1.08374e-07
6.63804e-11
-1.08383e-07
3.78794e-11
-4.02571e-11
-3.43696e-11
1.46761e-11
1.96662e-11
-6.40833e-11
3.58255e-11
-4.72587e-11
2.38004e-11
9.89725e-12
2.60129e-08
-3.467e-11
2.61352e-08
-2.59926e-08
-5.11846e-11
-3.71231e-11
1.15102e-10
5.49156e-11
1.08313e-07
-1.69232e-12
2.626e-11
-3.33111e-11
-2.4684e-11
-6.77959e-12
-4.76496e-11
-2.99057e-11
7.20938e-11
-1.0827e-07
3.37605e-11
-5.36134e-11
-2.56836e-11
7.3828e-12
-1.565e-11
-3.61314e-11
-1.2568e-11
7.27145e-12
3.53236e-11
1.083e-07
7.14581e-11
-1.0831e-07
3.23216e-11
-5.41263e-11
-2.55019e-11
7.29402e-12
-1.56795e-11
-3.56833e-11
6.91465e-12
-1.23134e-11
-2.59992e-08
-5.19177e-11
-3.64955e-11
4.39707e-11
4.60311e-11
2.95666e-11
2.94591e-11
2.5981e-08
-3.25197e-11
-3.57239e-11
2.61157e-08
-2.59706e-08
-3.84523e-11
-3.84479e-11
3.03863e-11
1.09251e-07
4.35118e-12
2.83771e-11
-1.99679e-11
1.34991e-11
9.1471e-12
-3.54876e-11
-3.19198e-11
-4.41674e-11
5.71964e-11
2.96267e-11
1.09292e-07
4.63572e-12
2.88705e-11
-2.04524e-11
1.38672e-11
8.43904e-12
-3.59958e-11
-3.15437e-11
1.09208e-07
3.1933e-11
-1.09222e-07
1.63219e-11
-3.89016e-11
-1.62837e-11
8.81293e-12
-2.8719e-11
-2.64546e-11
1.5715e-11
1.90902e-11
3.30646e-11
1.09252e-07
3.22547e-11
-1.09265e-07
1.53528e-11
-3.9047e-11
-1.6636e-11
9.26345e-12
-2.91837e-11
-2.60716e-11
1.50442e-11
1.94507e-11
2.87183e-11
3.01562e-11
2.59824e-08
-3.65784e-11
2.6118e-08
-2.59721e-08
-3.7661e-11
-3.85837e-11
2.5795e-11
1.07354e-07
2.15645e-11
3.22366e-11
-3.50575e-11
-6.26944e-11
3.96365e-11
4.19379e-11
-6.12376e-11
-3.73195e-11
5.72976e-11
2.87377e-11
1.08359e-07
1.75104e-11
2.24194e-11
-3.22505e-11
-4.38155e-11
3.86945e-11
2.26532e-11
-6.04658e-11
1.07316e-07
2.69265e-11
-1.07327e-07
1.46041e-11
-4.1433e-11
-3.19679e-11
2.55445e-11
4.85557e-11
-5.60909e-11
4.59244e-11
-5.72888e-11
2.61262e-11
1.08319e-07
2.75875e-11
-1.0833e-07
1.66344e-11
-3.24143e-11
-2.89425e-11
2.17773e-11
2.92423e-11
-5.53192e-11
4.50972e-11
-3.85286e-11
5.66651e-11
2.85951e-11
1.08361e-07
1.72869e-11
2.26092e-11
-3.18242e-11
-4.38961e-11
3.91934e-11
-6.07912e-11
2.31019e-11
2.68042e-11
-1.07318e-07
1.37247e-11
-4.18066e-11
-3.09482e-11
2.54533e-11
4.8744e-11
-5.60474e-11
-5.72638e-11
4.63588e-11
2.62503e-11
1.08321e-07
2.76075e-11
-1.08332e-07
1.67132e-11
-3.25057e-11
-2.85999e-11
2.14331e-11
2.94578e-11
-5.57739e-11
4.537e-11
-3.87768e-11
3.66369e-11
2.27243e-11
2.59874e-08
-4.07577e-11
2.61207e-08
-2.59767e-08
-4.56133e-11
-3.14657e-11
5.76168e-11
2.57678e-11
1.08288e-07
9.43731e-12
3.74944e-11
-2.35308e-11
-8.93327e-12
1.02387e-11
-3.24239e-11
-1.22505e-11
3.34238e-11
-1.08217e-07
1.37176e-11
-4.62957e-11
-2.01986e-11
1.37902e-11
-5.53082e-12
-2.7505e-11
-3.68461e-12
1.71189e-11
4.12453e-11
1.08245e-07
3.29294e-11
-1.08259e-07
1.31433e-11
-4.70228e-11
-2.02049e-11
1.34928e-11
-5.59733e-12
-2.71011e-11
1.66636e-11
-3.46025e-12
-2.59833e-08
-4.64289e-11
-3.08472e-11
3.79316e-11
4.01554e-11
3.49389e-11
3.4563e-11
2.59681e-08
-3.45247e-11
-3.74425e-11
2.61094e-08
-2.59637e-08
-3.68308e-11
-3.68805e-11
1.19869e-11
1.09197e-07
9.67524e-12
3.3381e-11
-1.54423e-11
2.05788e-11
1.70596e-11
-2.73704e-11
-2.49878e-11
-3.80583e-11
2.3743e-11
1.12406e-11
1.09243e-07
1.01579e-11
3.39731e-11
-1.93335e-11
2.10565e-11
1.64937e-11
-2.77507e-11
-2.23445e-11
1.09167e-07
1.40127e-11
-1.09176e-07
7.23688e-12
-3.61286e-11
-1.44813e-11
1.12587e-11
-2.50211e-11
-2.36118e-11
1.93574e-11
2.20479e-11
3.50405e-11
1.09211e-07
1.44738e-11
-1.09222e-07
6.95323e-12
-3.63128e-11
-1.49917e-11
1.51186e-11
-2.51083e-11
-2.31923e-11
1.65744e-11
2.21913e-11
3.42785e-11
3.53116e-11
2.59698e-08
-3.82251e-11
2.61115e-08
-2.59652e-08
-3.60617e-11
-3.69552e-11
7.91612e-12
1.07303e-07
2.66931e-11
3.71692e-11
-3.05891e-11
-5.57263e-11
4.73601e-11
5.00052e-11
-5.45979e-11
-3.10281e-11
2.53774e-11
9.5459e-12
1.08305e-07
2.30406e-11
2.77146e-11
-2.7428e-11
-3.69195e-11
4.65077e-11
3.07009e-11
-5.3746e-11
1.0728e-07
7.84718e-12
-1.07284e-07
6.68393e-12
-3.89335e-11
-3.03703e-11
2.7772e-11
5.22279e-11
-5.3482e-11
4.95775e-11
-5.46526e-11
2.79982e-11
1.0828e-07
8.63826e-12
-1.08285e-07
8.03925e-12
-2.9697e-11
-2.7289e-11
2.417e-11
3.28926e-11
-5.28269e-11
4.86755e-11
-3.5942e-11
2.49982e-11
9.57363e-12
1.08307e-07
2.27286e-11
2.78861e-11
-2.70548e-11
-3.70723e-11
4.68406e-11
-5.4115e-11
3.09439e-11
8.21416e-12
-1.07274e-07
5.94889e-12
-3.95331e-11
-2.94114e-11
2.39062e-11
5.24144e-11
-5.3353e-11
-5.45495e-11
5.23595e-11
2.81432e-11
1.08282e-07
9.12301e-12
-1.08287e-07
7.99831e-12
-2.98715e-11
-2.68834e-11
2.37262e-11
3.30645e-11
-5.32185e-11
4.88705e-11
-3.61296e-11
4.19371e-11
2.79584e-11
2.59743e-08