/*--------------------------------*- C++ -*----------------------------------*\
| =========                 |                                                 |
| \\      /  F ield         | OpenFOAM: The Open Source CFD Toolbox           |
|  \\    /   O peration     | Version:  2206                                  |
|   \\  /    A nd           | Website:  www.openfoam.com                      |
|    \\/     M anipulation  |                                                 |
\*---------------------------------------------------------------------------*/
FoamFile
{
    version     2.0;
    format      ascii;
    arch        "LSB;label=32;scalar=64";
    class       volVectorField;
    location    "40";
    object      U;
}
// * * * * * * * * * * * * * * * * * * * * * * * * * * * * * * * * * * * * * //

dimensions      [0 1 -1 0 0 0 0];

internalField   nonuniform List<vector> 
66616
(
(0.000620995 0.000619274 0.118405)
(-0.00108802 0.00058834 0.116228)
(0.000587216 -0.00108893 0.116229)
(-0.0014047 -0.00141568 0.114819)
(0.000482893 0.000472127 0.12263)
(-0.000854399 0.000458243 0.121044)
(0.000456718 -0.000852847 0.121107)
(-0.00109111 -0.00110526 0.119621)
(0.000255411 0.000250413 0.124792)
(-0.000479455 0.000268413 0.123184)
(0.000266769 -0.000479911 0.123252)
(-0.000674316 -0.000684083 0.121652)
(0.00013296 0.000130319 0.126042)
(-0.000292883 0.000188054 0.124345)
(0.000185651 -0.000293153 0.124413)
(-0.00046774 -0.000473979 0.122461)
(0.000118232 0.000117768 0.126847)
(-0.000223459 0.000140105 0.124899)
(0.000137415 -0.00022658 0.124968)
(-0.000409408 -0.00041673 0.122593)
(0.000150798 0.000152176 0.127684)
(-0.00024728 0.00015207 0.125436)
(0.000146924 -0.000253455 0.125504)
(-0.000419212 -0.000430194 0.122822)
(0.000135643 0.000136876 0.128534)
(-0.000229926 0.000148794 0.125886)
(0.000144588 -0.000237937 0.125949)
(-0.000368667 -0.000378639 0.122878)
(8.93811e-05 8.92585e-05 0.129143)
(-0.000146994 9.57888e-05 0.126072)
(9.60133e-05 -0.000154281 0.126127)
(-0.000284123 -0.000289718 0.122748)
(5.08028e-05 4.83585e-05 0.129439)
(-6.56923e-05 4.03848e-05 0.126066)
(4.47031e-05 -7.14678e-05 0.126107)
(-0.000228743 -0.000232333 0.122625)
(2.73359e-05 2.26908e-05 0.129543)
(-2.1784e-05 1.03103e-05 0.126022)
(1.67729e-05 -2.61686e-05 0.12604)
(-0.000207192 -0.000209761 0.122558)
(1.5084e-05 8.2648e-06 0.129575)
(-5.13563e-06 -6.24883e-07 0.126009)
(6.64589e-06 -8.79758e-06 0.125995)
(-0.000200358 -0.000203154 0.122523)
(8.45541e-06 1.71739e-06 0.129584)
(-2.03603e-06 -2.15231e-06 0.126033)
(4.45587e-06 -3.43158e-06 0.125973)
(-0.000198465 -0.00020034 0.12249)
(0.000408381 0.000409679 0.114389)
(0.000636954 0.000606068 0.115649)
(-0.00063731 0.000606213 0.115648)
(-0.000408493 0.000409959 0.114388)
(0.000609956 0.000640629 0.115637)
(0.000606193 -0.000637081 0.115649)
(0.000407514 0.000408239 0.117546)
(-0.000407576 0.000408504 0.117543)
(0.000408634 -0.000408558 0.117543)
(-0.000408586 -0.000408812 0.117545)
(-0.000609727 0.000640895 0.115637)
(-0.000605897 -0.00063732 0.115648)
(0.00041026 -0.000408292 0.114388)
(0.000641554 -0.000610103 0.115635)
(-0.000641821 -0.00061025 0.115635)
(-0.000410101 -0.000408326 0.114383)
(0.0014146 0.00140606 0.114823)
(0.000576601 0.000566542 0.119192)
(0.000595107 0.00109122 0.116222)
(-0.000594702 0.0010915 0.116223)
(0.000546417 0.00101282 0.120262)
(-0.000545567 0.00101286 0.120262)
(-0.00141438 0.00140563 0.114821)
(-0.000576991 0.000566734 0.119192)
(0.00108837 0.000587673 0.116228)
(0.00109077 -0.00059581 0.11622)
(0.00101974 0.000537761 0.120202)
(0.00101832 -0.00054576 0.120201)
(-0.00109029 -0.000596146 0.116218)
(-0.00101972 0.000538348 0.120201)
(-0.00101787 -0.000546186 0.120198)
(0.00140466 -0.0014159 0.114822)
(0.000569088 -0.000574335 0.119192)
(-0.000586595 -0.00108904 0.116229)
(0.000537566 -0.00101585 0.120262)
(-0.000536852 -0.00101597 0.120262)
(-0.000568817 -0.000573712 0.119189)
(0.00109956 0.00109817 0.119623)
(0.000249176 0.00024408 0.121428)
(0.000464458 0.000849553 0.121106)
(-0.000463808 0.000849522 0.121106)
(0.000299934 0.000536584 0.122822)
(-0.000299988 0.000537263 0.122822)
(-0.00109791 0.00109796 0.119622)
(-0.000247562 0.000245088 0.121425)
(0.000854772 0.000457631 0.121045)
(0.000852435 -0.000464069 0.121044)
(0.000540054 0.000296552 0.122759)
(0.000538168 -0.0003007 0.122757)
(-0.000851996 -0.000464431 0.121042)
(-0.000539972 0.000296348 0.122756)
(-0.000537744 -0.000300828 0.122755)
(0.00109251 -0.00110437 0.119623)
(0.000245705 -0.000247654 0.121426)
(-0.00045596 -0.000853058 0.121107)
(0.000294728 -0.000540441 0.122823)
(-0.000294433 -0.000540763 0.122824)
(-0.000244722 -0.000248413 0.121426)
(0.000679503 0.000679415 0.121653)
(6.88118e-05 6.58255e-05 0.122383)
(0.000271443 0.000477251 0.123251)
(-0.000271465 0.000477705 0.12325)
(0.00020719 0.000331027 0.124204)
(-0.00020738 0.000331678 0.124204)
(-0.000677393 0.000680957 0.121651)
(-6.82569e-05 6.56721e-05 0.122379)
(0.000480606 0.000268431 0.123187)
(0.000478635 -0.000272103 0.123185)
(0.00033336 0.000205772 0.124139)
(0.000332566 -0.000208263 0.12414)
(-0.000477924 -0.00027186 0.123183)
(-0.000333036 0.00020562 0.124138)
(-0.000332327 -0.000208604 0.124137)
(0.000676472 -0.000683201 0.121652)
(6.61836e-05 -6.6373e-05 0.122379)
(-0.00026637 -0.000480613 0.123252)
(0.000203476 -0.000332858 0.124205)
(-0.000204067 -0.000333181 0.124205)
(-6.66582e-05 -6.71926e-05 0.122378)
(0.000470249 0.000471453 0.122464)
(-1.57736e-05 -1.65488e-05 0.122536)
(0.000189083 0.000292278 0.124411)
(-0.000189245 0.000292942 0.124411)
(0.000146008 0.000228648 0.124839)
(-0.000147019 0.000229829 0.12484)
(-0.000470028 0.000472594 0.12246)
(1.57153e-05 -1.59486e-05 0.122533)
(0.000293565 0.000187923 0.124346)
(0.000293222 -0.000190294 0.124347)
(0.000227531 0.000146375 0.124771)
(0.000227768 -0.000148251 0.124776)
(-0.000292823 -0.000190087 0.124345)
(-0.000227734 0.000145736 0.124771)
(-0.000227506 -0.000148484 0.124774)
(0.000468471 -0.000473033 0.122461)
(-1.79479e-05 1.5936e-05 0.122534)
(-0.00018584 -0.00029383 0.124413)
(0.000142903 -0.000229634 0.12484)
(-0.000144052 -0.000230007 0.124839)
(1.67646e-05 1.57928e-05 0.122531)
(0.000410402 0.000413892 0.122597)
(-7.89275e-06 -4.77997e-06 0.122757)
(0.000139995 0.000226465 0.124967)
(-0.000141026 0.000227395 0.124967)
(0.00014385 0.00024662 0.125365)
(-0.000144177 0.00024747 0.125364)
(-0.000409948 0.000414997 0.122594)
(7.66654e-06 -5.01033e-06 0.122755)
(0.000224144 0.000140672 0.124899)
(0.000224125 -0.000142343 0.124905)
(0.000241013 0.000146642 0.125295)
(0.00024162 -0.000148026 0.125303)
(-0.000223824 -0.000142175 0.124903)
(-0.000241209 0.000146612 0.125295)
(-0.000241187 -0.000148219 0.125303)
(0.000408935 -0.000415682 0.122596)
(-9.45134e-06 4.51314e-06 0.122757)
(-0.000137783 -0.000227308 0.124967)
(0.000141458 -0.000246631 0.125364)
(-0.000141479 -0.000246927 0.125365)
(9.92392e-06 5.24601e-06 0.122754)
(0.000421388 0.000428772 0.122824)
(-4.69316e-05 -4.32525e-05 0.122843)
(0.000149318 0.000254953 0.125503)
(-0.000149207 0.000255888 0.125504)
(0.000152041 0.000253113 0.125855)
(-0.000151268 0.000254489 0.125855)
(-0.000421366 0.000429162 0.122821)
(4.75278e-05 -4.35176e-05 0.122844)
(0.000248057 0.000151766 0.125437)
(0.000249047 -0.000153049 0.125445)
(0.000243604 0.000155236 0.125783)
(0.000245487 -0.00015614 0.125794)
(-0.000248002 -0.000152873 0.125447)
(-0.000242942 0.000155588 0.125783)
(-0.00024399 -0.000156452 0.125798)
(0.000419797 -0.000429391 0.122824)
(-4.82648e-05 4.38081e-05 0.122845)
(-0.000146151 -0.000254503 0.125504)
(0.000149761 -0.000251126 0.125854)
(-0.00014848 -0.000251562 0.125856)
(4.89432e-05 4.4378e-05 0.122844)
(0.000371054 0.000378257 0.122875)
(-0.000121943 -0.000121494 0.122725)
(0.000147032 0.000241251 0.125951)
(-0.000145833 0.00024224 0.125952)
(0.000112715 0.000182124 0.126103)
(-0.000111157 0.000182453 0.126107)
(-0.00037012 0.000378523 0.122876)
(0.000121749 -0.000122592 0.122729)
(0.00023106 0.000148317 0.125887)
(0.000233244 -0.000149117 0.125898)
(0.000172049 0.000113337 0.126026)
(0.00017442 -0.000114155 0.126039)
(-0.000231578 -0.000148969 0.125903)
(-0.000171748 0.000113462 0.126026)
(-0.000173945 -0.000114605 0.126044)
(0.000369484 -0.000378082 0.122877)
(-0.000123182 0.000121664 0.122725)
(-0.00014272 -0.000238719 0.125951)
(0.000110086 -0.000179456 0.1261)
(-0.000108531 -0.000179247 0.126103)
(0.000123431 0.000123046 0.122729)
(0.000285972 0.000289744 0.122742)
(-0.000174569 -0.000176871 0.122597)
(9.82152e-05 0.000157035 0.126131)
(-9.68402e-05 0.000157044 0.126138)
(5.74195e-05 9.19317e-05 0.126117)
(-5.68506e-05 9.25598e-05 0.126129)
(-0.000286315 0.000289465 0.122746)
(0.000175107 -0.000177341 0.122603)
(0.000147769 9.57698e-05 0.126071)
(0.000149663 -9.66201e-05 0.126085)
(8.5476e-05 5.69597e-05 0.126034)
(8.68558e-05 -5.83172e-05 0.126048)
(-0.000149157 -9.64909e-05 0.126091)
(-8.48807e-05 5.61662e-05 0.126033)
(-8.66557e-05 -5.84201e-05 0.126051)
(0.000284445 -0.000289866 0.122743)
(-0.000175249 0.000176145 0.122596)
(-9.39227e-05 -0.000154059 0.126133)
(5.56266e-05 -9.10607e-05 0.126111)
(-5.48174e-05 -9.0692e-05 0.126117)
(0.000175241 0.000177181 0.122603)
(0.000230138 0.000231408 0.122619)
(-0.000195878 -0.000198874 0.122528)
(4.61845e-05 7.26928e-05 0.126114)
(-4.58343e-05 7.31482e-05 0.126129)
(2.36368e-05 3.67864e-05 0.126055)
(-2.32158e-05 3.76362e-05 0.126071)
(-0.000229408 0.00023186 0.122624)
(0.000196817 -0.000200075 0.122535)
(6.70719e-05 4.12409e-05 0.126065)
(6.80593e-05 -4.28257e-05 0.126078)
(3.297e-05 2.39622e-05 0.12596)
(3.39246e-05 -2.53356e-05 0.125972)
(-6.749e-05 -4.23574e-05 0.126085)
(-3.26001e-05 2.26779e-05 0.125959)
(-3.41915e-05 -2.5602e-05 0.125973)
(0.000228769 -0.000231967 0.122618)
(-0.000196276 0.0001983 0.122525)
(-4.34775e-05 -7.12701e-05 0.126117)
(2.19434e-05 -3.67043e-05 0.126044)
(-2.22626e-05 -3.66402e-05 0.126053)
(0.000195832 0.000199308 0.122532)
(0.000207767 0.000209012 0.122553)
(-0.000201737 -0.000204515 0.122502)
(1.80758e-05 2.69397e-05 0.126052)
(-1.75902e-05 2.72397e-05 0.126071)
(1.04671e-05 1.43458e-05 0.126004)
(-1.08352e-05 1.49954e-05 0.12602)
(-0.000206774 0.000208687 0.12256)
(0.000202797 -0.000205435 0.122507)
(2.31335e-05 1.1913e-05 0.126021)
(2.36366e-05 -1.29664e-05 0.126031)
(1.15624e-05 1.2162e-05 0.12589)
(1.24794e-05 -1.33371e-05 0.125898)
(-2.32073e-05 -1.26286e-05 0.126039)
(-1.13777e-05 1.09111e-05 0.125887)
(-1.31214e-05 -1.35735e-05 0.125899)
(0.00020652 -0.000209023 0.122551)
(-0.000201244 0.000204281 0.122498)
(-1.6251e-05 -2.62098e-05 0.126055)
(9.06185e-06 -1.43911e-05 0.125992)
(-9.96687e-06 -1.4352e-05 0.126002)
(0.000201303 0.00020535 0.122503)
(0.00019991 0.000202155 0.122519)
(-0.000201375 -0.000205041 0.12251)
(7.09126e-06 9.52739e-06 0.126009)
(-7.51275e-06 9.77808e-06 0.126029)
(6.41585e-06 6.44226e-06 0.12598)
(-7.15572e-06 7.26426e-06 0.125993)
(-0.000199591 0.00020302 0.122526)
(0.000202034 -0.000206186 0.122508)
(6.16533e-06 1.10015e-07 0.126007)
(6.96971e-06 -1.20124e-06 0.126016)
(4.31436e-06 7.82104e-06 0.125829)
(5.55356e-06 -8.59506e-06 0.125835)
(-6.63964e-06 -8.03625e-07 0.126024)
(-4.19737e-06 7.3453e-06 0.125824)
(-6.02397e-06 -8.63789e-06 0.125836)
(0.0001996 -0.000201781 0.122516)
(-0.000200589 0.000204927 0.122505)
(-6.04671e-06 -8.82294e-06 0.126011)
(5.1633e-06 -6.17214e-06 0.125968)
(-6.23143e-06 -6.0968e-06 0.125977)
(0.000201664 0.000206742 0.122506)
(0.000197393 0.000199078 0.122482)
(4.18797e-06 4.72966e-06 0.125988)
(-4.86706e-06 4.95442e-06 0.126007)
(-0.000197888 0.000200829 0.122491)
(3.02671e-06 -2.14082e-06 0.126033)
(3.91281e-06 1.57218e-06 0.12604)
(-3.262e-06 2.02377e-06 0.12605)
(0.000197156 -0.000197999 0.122478)
(-3.63843e-06 -3.8049e-06 0.125988)
(8.8538e-06 8.68186e-06 0.119556)
(0.000186158 0.000186595 0.116061)
(1.06681e-05 0.000167294 0.117915)
(0.000168594 1.12174e-05 0.117912)
(-0.000342305 3.12158e-05 0.11022)
(-0.000171482 0.000201269 0.11495)
(-0.000437864 0.000280225 0.0990105)
(-0.000186614 1.00999e-05 0.117074)
(3.10784e-05 -0.00034254 0.110215)
(0.000201265 -0.000171623 0.114949)
(9.82225e-06 -0.000186036 0.117072)
(0.000279854 -0.000438966 0.0990122)
(-0.000162521 -0.000161662 0.113459)
(-0.000475849 -0.000484722 0.0934179)
(-0.000484186 -0.000475754 0.0934278)
(0.0001397 0.00218219 0.11137)
(0.00128631 0.00023557 0.0834864)
(0.000221013 0.00196962 0.10844)
(0.000190485 0.00141206 0.0937408)
(-0.000539974 0.000763826 0.0833701)
(0.000419892 0.00130171 0.0855784)
(0.00218083 0.000140528 0.111304)
(0.000233621 0.00128509 0.0835252)
(0.00196898 0.000219315 0.108487)
(0.00141155 0.000193186 0.0936954)
(-0.000621012 0.000619389 0.118403)
(0.000619708 -0.00061969 0.118404)
(-0.000619672 -0.000619872 0.118406)
(0.000578307 0.000566216 0.121803)
(-0.000578375 0.000566549 0.121802)
(0.000568978 -0.000575865 0.121802)
(-0.00056881 -0.000575891 0.121804)
(-0.00190027 9.15668e-05 0.115194)
(-0.00200552 0.00103969 0.107691)
(-0.00105185 0.000224177 0.117512)
(-0.00118969 0.000604586 0.117729)
(-0.00171823 0.000162672 0.112331)
(-0.00205215 0.000510968 0.111857)
(-0.00116054 0.000273763 0.118868)
(0.000762419 -0.000538106 0.0834087)
(0.00130131 0.000416833 0.0855603)
(9.16654e-05 -0.0019005 0.115214)
(0.000223178 -0.00105052 0.117507)
(0.00103989 -0.00200583 0.10767)
(0.000604663 -0.00118944 0.117724)
(0.000163228 -0.00171931 0.112307)
(0.000274782 -0.00116178 0.11887)
(0.000510399 -0.00205489 0.111897)
(-0.00173367 -0.00103175 0.101162)
(-0.00103371 -0.0017347 0.101171)
(-0.000600538 -0.000609317 0.116923)
(-0.00171997 -0.000378339 0.104342)
(-0.000375419 -0.00172708 0.104366)
(1.53376e-05 0.000982305 0.112611)
(0.000255558 0.000901506 0.0925126)
(3.35353e-05 0.00156517 0.112808)
(0.00016914 0.000474329 0.0913715)
(-0.000151515 0.00076945 0.081366)
(-0.000157645 0.000390071 0.0797428)
(0.000978301 1.66423e-05 0.112087)
(0.000895341 0.00024714 0.0923253)
(0.00156613 3.33299e-05 0.112603)
(0.000464992 0.000166639 0.0910387)
(-0.000482673 0.000472441 0.12263)
(0.00047528 -0.000479287 0.12263)
(-0.000474906 -0.000479639 0.122632)
(0.00029402 0.000288267 0.124359)
(-0.000293956 0.000288607 0.124358)
(0.000288947 -0.000292313 0.124359)
(-0.000288729 -0.000292303 0.12436)
(-0.000854842 2.46927e-05 0.118394)
(-0.00132055 0.000461077 0.112919)
(-0.000817687 0.000182964 0.122035)
(-0.00071812 0.000388652 0.121712)
(-0.00133268 3.79975e-05 0.117908)
(-0.000835201 0.000247081 0.112569)
(-0.000682512 0.000151569 0.122694)
(0.000762674 -0.000147156 0.0812722)
(0.000384676 -0.00015813 0.0795823)
(2.40614e-05 -0.000852373 0.118673)
(0.000183486 -0.000810103 0.122144)
(0.000460305 -0.00132139 0.113115)
(0.000387066 -0.000718474 0.121776)
(3.82216e-05 -0.00132372 0.118023)
(0.000153238 -0.000677848 0.122802)
(0.000242344 -0.000844208 0.112911)
(-0.00114403 -0.000517906 0.105089)
(-0.000518702 -0.00114614 0.105231)
(-0.000377313 -0.000382488 0.120519)
(-0.000734427 -0.000339978 0.104378)
(-0.000335329 -0.000741817 0.10462)
(8.80354e-06 0.000386243 0.111741)
(0.000141862 0.00033539 0.0894845)
(1.21423e-05 0.000720198 0.112056)
(0.000116327 0.000132978 0.0887494)
(-0.000157602 0.000212019 0.077612)
(-0.000133428 8.95124e-05 0.0768868)
(0.000389085 9.78223e-06 0.111128)
(0.000330625 0.000137283 0.0892214)
(0.000720237 1.18084e-05 0.11167)
(0.00013287 0.000119076 0.0883555)
(-0.000255088 0.000250832 0.124792)
(0.00025076 -0.000253368 0.124793)
(-0.000250679 -0.000253759 0.124793)
(0.000157002 0.00015377 0.125792)
(-0.000156895 0.000153804 0.125792)
(0.000153129 -0.000155529 0.125793)
(-0.000153593 -0.000155597 0.125793)
(-0.000378435 1.18118e-05 0.119129)
(-0.000616397 0.000234802 0.112286)
(-0.00044573 9.74706e-05 0.124148)
(-0.000427272 0.000244948 0.12356)
(-0.00066649 1.66215e-05 0.119151)
(-0.000359365 0.000135564 0.111882)
(-0.000394001 8.54835e-05 0.124517)
(0.000210341 -0.000154021 0.0775094)
(9.12719e-05 -0.0001348 0.0767013)
(1.17339e-05 -0.000372255 0.119454)
(0.000100061 -0.000441024 0.124255)
(0.000233069 -0.00061431 0.112528)
(0.000243324 -0.000427361 0.123627)
(1.64527e-05 -0.000656273 0.119323)
(8.8234e-05 -0.000389105 0.124622)
(0.000130635 -0.000361452 0.112268)
(-0.00047171 -0.000309907 0.103378)
(-0.00031116 -0.000469919 0.103561)
(-0.000151469 -0.000152938 0.122055)
(-0.000285394 -0.000223962 0.10266)
(-0.000219384 -0.000284796 0.102945)
(-1.88019e-05 1.62341e-05 0.110958)
(9.98151e-05 5.49562e-05 0.088029)
(-7.97943e-06 0.000225588 0.111304)
(3.95468e-05 -8.1885e-05 0.088088)
(-0.000136062 1.14258e-05 0.0761424)
(-6.603e-05 -4.57373e-05 0.0761056)
(2.40873e-05 -1.78575e-05 0.110304)
(5.62242e-05 9.86494e-05 0.0877213)
(0.000231893 -8.41927e-06 0.110867)
(-7.79975e-05 4.50556e-05 0.0876608)
(-0.000132601 0.000130235 0.126043)
(0.000129463 -0.000131483 0.126044)
(-0.000129677 -0.000131658 0.126044)
(0.000111223 0.000110398 0.126651)
(-0.000111649 0.000110599 0.126652)
(0.000108396 -0.000112296 0.126653)
(-0.000108824 -0.000112294 0.126653)
(-8.51281e-05 -9.05166e-06 0.118775)
(-0.000192918 0.000157837 0.111689)
(-0.000268646 5.42584e-05 0.125305)
(-0.000261202 0.000170148 0.124509)
(-0.000265887 -1.63408e-06 0.119204)
(-1.67142e-05 5.36468e-05 0.11132)
(-0.000242782 4.59221e-05 0.125476)
(1.24583e-05 -0.000133011 0.0760193)
(-4.19508e-05 -6.8007e-05 0.0759008)
(-9.203e-06 -7.93663e-05 0.119119)
(5.69502e-05 -0.000265501 0.125408)
(0.000156638 -0.000188291 0.111948)
(0.000167866 -0.000262023 0.124577)
(-1.83006e-06 -0.000255093 0.119389)
(4.82577e-05 -0.00024046 0.125579)
(4.85341e-05 -1.69302e-05 0.111721)
(-0.000110063 -0.000218559 0.101996)
(-0.000220198 -0.000104199 0.10221)
(-5.55777e-06 -5.33561e-06 0.122478)
(-1.39257e-05 -0.000103234 0.101506)
(-9.83019e-05 -1.26011e-05 0.101817)
(-1.30712e-05 4.13864e-05 0.110013)
(3.568e-06 4.86108e-05 0.0880263)
(-1.63616e-05 0.000152985 0.110383)
(-2.90398e-05 -1.15775e-05 0.0879919)
(-1.57865e-05 3.37556e-05 0.0758691)
(2.60311e-05 1.78533e-05 0.0757998)
(4.62724e-05 -1.13648e-05 0.109348)
(4.94586e-05 3.4379e-06 0.0876974)
(0.000158217 -1.62244e-05 0.10993)
(-1.06395e-05 -2.02769e-05 0.0875476)
(-0.00011866 0.000118023 0.12685)
(0.000115721 -0.000119279 0.126852)
(-0.000115899 -0.000119381 0.126851)
(0.000144736 0.000146913 0.12746)
(-0.000145235 0.000147083 0.127461)
(0.000142557 -0.000148522 0.127463)
(-0.000142291 -0.000148437 0.127463)
(-0.000118829 -3.57531e-06 0.118056)
(-0.000126061 8.78467e-05 0.111134)
(-0.000223011 3.74081e-05 0.125905)
(-0.000226454 0.000138911 0.125026)
(-0.000220203 -7.85505e-06 0.118512)
(-6.3756e-05 5.77014e-06 0.110736)
(-0.00023053 3.79163e-05 0.126045)
(3.20215e-05 -1.67067e-05 0.0757298)
(1.63478e-05 1.72027e-05 0.075581)
(-4.49849e-06 -0.000117461 0.118405)
(3.77664e-05 -0.000223517 0.12601)
(8.69229e-05 -0.000123118 0.111395)
(0.000135297 -0.000230326 0.125095)
(-7.54576e-06 -0.000214115 0.118696)
(3.7711e-05 -0.000232029 0.126151)
(-1.16394e-06 -6.71751e-05 0.111134)
(-7.49234e-05 -8.27856e-05 0.10113)
(-8.24517e-05 -7.27111e-05 0.101354)
(1.4307e-05 1.15228e-05 0.122636)
(-5.68551e-05 -5.88771e-06 0.100739)
(2.98985e-06 -6.09977e-05 0.101051)
(-5.16594e-06 4.65409e-05 0.109185)
(-1.30842e-05 0.000111555 0.0875839)
(-6.06029e-06 0.000182978 0.109497)
(-2.71314e-05 2.2913e-05 0.0874283)
(3.00675e-06 7.18789e-05 0.075403)
(1.98347e-05 3.19831e-05 0.0752815)
(4.73467e-05 -3.08617e-06 0.10853)
(0.000108543 -8.40495e-06 0.087245)
(0.000182754 -5.0983e-06 0.109048)
(2.12917e-05 -1.60902e-05 0.0869816)
(-0.00015089 0.000152535 0.127687)
(0.000148853 -0.000153378 0.127689)
(-0.000148121 -0.000153404 0.12769)
(0.000142701 0.000146233 0.128325)
(-0.000141915 0.000146617 0.128325)
(0.000140464 -0.000147471 0.128328)
(-0.000139041 -0.000147241 0.128328)
(-0.000122576 2.61236e-06 0.117458)
(-0.00018725 6.93108e-05 0.110519)
(-0.00026121 4.41891e-05 0.126514)
(-0.000251075 0.000156049 0.125559)
(-0.000249697 1.71971e-06 0.117893)
(-9.47745e-05 -2.91909e-06 0.11012)
(-0.000268283 4.50216e-05 0.126659)
(6.5498e-05 -2.7126e-06 0.0752687)
(2.9181e-05 1.03044e-05 0.0750799)
(1.32787e-06 -0.000125093 0.11779)
(4.27293e-05 -0.000265844 0.126618)
(6.40273e-05 -0.000188597 0.110767)
(0.000150314 -0.000258493 0.12563)
(1.45442e-06 -0.000249276 0.118055)
(4.35415e-05 -0.000274346 0.126768)
(-1.28108e-05 -0.000101368 0.110505)
(-0.000110578 -5.71334e-05 0.100463)
(-5.1477e-05 -0.00011419 0.100679)
(2.03226e-05 1.49513e-05 0.122836)
(-6.74364e-05 -2.20386e-06 0.100106)
(9.89267e-06 -7.55305e-05 0.100409)
(-2.15242e-06 1.00388e-05 0.108594)
(-9.75297e-07 0.000105055 0.0870262)
(-1.9323e-06 0.000153132 0.108805)
(-1.42182e-05 6.12933e-06 0.0869369)
(-1.15732e-05 6.11514e-05 0.0749173)
(7.69997e-06 1.73025e-05 0.0748479)
(1.01787e-05 -2.74342e-07 0.107955)
(0.000101414 1.80214e-06 0.0866937)
(0.000150998 -1.24975e-06 0.108373)
(5.10315e-06 -6.20542e-06 0.0864968)
(-0.000134749 0.000137097 0.128537)
(0.000133452 -0.000137624 0.128539)
(-0.000131993 -0.000137604 0.128541)
(9.81119e-05 0.000102373 0.129007)
(-9.70207e-05 0.000102148 0.129008)
(9.6188e-05 -0.000103817 0.129011)
(-9.49288e-05 -0.000103425 0.129011)
(-6.87687e-05 2.88746e-06 0.116967)
(-0.000164269 6.05722e-05 0.109974)
(-0.000253027 4.16783e-05 0.127084)
(-0.0002143 0.000140124 0.125942)
(-0.000207328 2.78534e-06 0.117353)
(-5.63749e-05 -1.05811e-05 0.109641)
(-0.000237743 3.82142e-05 0.127168)
(5.65667e-05 -1.28183e-05 0.0748049)
(1.58385e-05 2.39531e-06 0.0746683)
(1.1981e-06 -7.15022e-05 0.117276)
(4.06636e-05 -0.000261248 0.127184)
(5.73623e-05 -0.000166068 0.110207)
(0.00013509 -0.000222542 0.126015)
(2.52794e-06 -0.000209611 0.117487)
(3.75599e-05 -0.000246712 0.127282)
(-1.79155e-05 -6.14937e-05 0.110014)
(-9.0137e-05 -5.449e-05 0.0999203)
(-5.21361e-05 -9.34588e-05 0.100124)
(8.6856e-05 8.43769e-05 0.1228)
(-4.00903e-05 1.67445e-06 0.0996338)
(9.45433e-06 -4.49809e-05 0.0999261)
(-7.35842e-07 -2.90388e-05 0.108288)
(8.5178e-06 7.74446e-05 0.0866791)
(-2.48985e-08 0.000109663 0.108398)
(-7.38622e-06 -1.96815e-05 0.0866748)
(-1.70217e-05 4.11736e-05 0.0745992)
(5.10854e-06 -2.63447e-06 0.0745998)
(-2.75192e-05 -1.91215e-07 0.107659)
(7.51588e-05 7.03286e-06 0.0863524)
(0.000107749 -3.40917e-07 0.107978)
(-1.93155e-05 -3.77021e-06 0.0862383)
(-8.84317e-05 8.88213e-05 0.129148)
(8.78699e-05 -9.05484e-05 0.129149)
(-8.68694e-05 -9.03976e-05 0.129152)
(5.37675e-05 5.88472e-05 0.129367)
(-5.30981e-05 5.87302e-05 0.129369)
(5.29974e-05 -6.12553e-05 0.129372)
(-5.2127e-05 -6.06539e-05 0.12937)
(-5.91624e-06 1.09857e-06 0.116684)
(-0.000111452 4.83164e-05 0.109634)
(-0.000165705 2.62572e-05 0.127407)
(-0.000125684 8.31921e-05 0.126051)
(-0.000140185 2.19421e-06 0.11699)
(-6.12446e-06 -2.24783e-05 0.109382)
(-0.000142726 2.22932e-05 0.127401)
(3.8416e-05 -1.51519e-05 0.0745066)
(-1.17364e-06 2.952e-06 0.074437)
(2.53256e-07 -7.38915e-06 0.11698)
(2.6822e-05 -0.000174854 0.1275)
(4.85126e-05 -0.00011171 0.109859)
(8.14707e-05 -0.000132682 0.126126)
(1.80413e-06 -0.000141718 0.117106)
(2.31406e-05 -0.000151395 0.127524)
(-2.57739e-05 -9.60575e-06 0.109747)
(-5.72013e-05 -4.35417e-05 0.0995852)
(-4.56559e-05 -5.72665e-05 0.09978)
(0.000154351 0.000155458 0.122661)
(-9.33465e-06 1.28254e-05 0.0993801)
(1.73015e-05 -1.21236e-05 0.099663)
(1.41883e-08 -5.10538e-05 0.108174)
(1.08412e-05 5.65804e-05 0.0865291)
(4.87152e-07 7.96269e-05 0.108223)
(-6.81333e-06 -3.55904e-05 0.0865796)
(-1.50072e-05 2.62498e-05 0.0744564)
(8.57429e-06 -1.30657e-05 0.0745098)
(-4.82364e-05 -4.35466e-07 0.107548)
(5.55589e-05 6.48663e-06 0.086203)
(7.95575e-05 -8.20991e-07 0.107807)
(-3.38971e-05 -5.06593e-06 0.0861429)
(-5.03214e-05 4.80409e-05 0.129447)
(5.03998e-05 -5.04824e-05 0.129445)
(-4.96674e-05 -5.01599e-05 0.129448)
(2.38607e-05 3.08335e-05 0.129497)
(-2.35215e-05 3.05246e-05 0.1295)
(2.35434e-05 -3.31107e-05 0.129501)
(-2.33802e-05 -3.26005e-05 0.129498)
(3.26272e-05 -9.53296e-07 0.11657)
(-7.14402e-05 3.70366e-05 0.109483)
(-7.56285e-05 1.23347e-05 0.127503)
(-5.35993e-05 3.6068e-05 0.126)
(-9.00632e-05 -5.29647e-07 0.116821)
(2.48817e-05 -3.06863e-05 0.109284)
(-6.25827e-05 1.00104e-05 0.127427)
(2.50029e-05 -1.23746e-05 0.0743655)
(-1.147e-05 5.77862e-06 0.0743401)
(-7.63883e-07 3.19757e-05 0.116861)
(1.3583e-05 -8.37578e-05 0.127583)
(4.09164e-05 -7.09252e-05 0.109702)
(3.5536e-05 -5.87122e-05 0.126081)
(6.12375e-07 -9.11409e-05 0.116931)
(1.13591e-05 -6.94579e-05 0.127562)
(-3.13246e-05 2.2275e-05 0.109644)
(-3.31638e-05 -3.37471e-05 0.0994376)
(-3.68263e-05 -3.27912e-05 0.0996268)
(0.000189209 0.000192053 0.122562)
(8.84701e-06 2.04866e-05 0.0992837)
(2.39424e-05 6.63223e-06 0.0995634)
(7.07122e-07 -5.9217e-05 0.108146)
(1.0287e-05 4.78413e-05 0.0864741)
(1.34821e-06 6.70224e-05 0.108162)
(-6.9894e-06 -4.2013e-05 0.0865574)
(-1.27518e-05 2.01033e-05 0.0744119)
(1.01241e-05 -1.88313e-05 0.0744976)
(-5.78098e-05 3.76202e-07 0.107528)
(4.67823e-05 6.09543e-06 0.0861463)
(6.69644e-05 -3.78381e-08 0.10774)
(-4.06818e-05 -5.88753e-06 0.0861256)
(-2.69122e-05 2.21587e-05 0.129552)
(2.74747e-05 -2.40197e-05 0.129547)
(-2.71259e-05 -2.39358e-05 0.129553)
(6.28237e-06 1.55639e-05 0.12953)
(-6.69442e-06 1.57073e-05 0.129532)
(6.38187e-06 -1.73624e-05 0.129532)
(-6.81376e-06 -1.71229e-05 0.129528)
(4.82927e-05 -9.43271e-07 0.116543)
(-5.29514e-05 3.30679e-05 0.109427)
(-2.50098e-05 3.92806e-06 0.127516)
(-1.91208e-05 1.49713e-05 0.125922)
(-6.72918e-05 -1.29251e-06 0.116756)
(3.76972e-05 -3.36544e-05 0.10927)
(-2.29471e-05 3.38165e-06 0.127377)
(1.82167e-05 -1.08539e-05 0.0743104)
(-1.70778e-05 7.70319e-06 0.0743256)
(-6.05834e-07 4.82047e-05 0.116829)
(4.7592e-06 -3.21747e-05 0.127572)
(3.72653e-05 -5.19132e-05 0.109645)
(1.37176e-05 -2.25087e-05 0.126016)
(1.48378e-07 -6.72878e-05 0.11687)
(4.18771e-06 -2.71914e-05 0.127529)
(-3.36992e-05 3.56309e-05 0.109624)
(-2.28656e-05 -2.94365e-05 0.0993776)
(-3.34455e-05 -2.1397e-05 0.0995717)
(0.000200273 0.000204084 0.122515)
(1.58109e-05 2.43211e-05 0.0992618)
(2.68723e-05 1.49733e-05 0.0995423)
(-1.85366e-07 -6.22883e-05 0.108162)
(8.55879e-06 4.63867e-05 0.0864376)
(2.84225e-07 6.26895e-05 0.108132)
(-7.87218e-06 -4.56627e-05 0.0865772)
(-1.2451e-05 1.82214e-05 0.0743972)
(1.2427e-05 -1.92968e-05 0.0745181)
(-6.29355e-05 -1.62093e-07 0.107566)
(4.46761e-05 7.19069e-06 0.0861035)
(6.34189e-05 -1.23362e-07 0.107696)
(-4.53176e-05 -6.82747e-06 0.0861503)
(-1.4951e-05 8.04686e-06 0.129584)
(1.57783e-05 -8.53651e-06 0.129576)
(-1.53052e-05 -8.54948e-06 0.129584)
(-9.99949e-07 7.99984e-06 0.129537)
(-1.32739e-07 8.80869e-06 0.129537)
(-6.1276e-07 -9.37965e-06 0.129538)
(3.31265e-07 -9.23305e-06 0.129532)
(5.42325e-05 -2.87824e-07 0.11656)
(-4.67791e-05 3.22498e-05 0.109386)
(-4.78713e-06 1.41964e-07 0.127535)
(-6.64245e-06 8.95375e-06 0.125857)
(-5.99848e-05 -5.20889e-07 0.116714)
(4.32807e-05 -3.49015e-05 0.1093)
(-8.48872e-06 1.10563e-06 0.127309)
(1.71359e-05 -1.06179e-05 0.0742789)
(-1.94504e-05 1.02062e-05 0.0743507)
(-1.09771e-07 5.34042e-05 0.116827)
(1.50768e-07 -1.19592e-05 0.127557)
(3.51454e-05 -4.55617e-05 0.109607)
(6.48836e-06 -9.02183e-06 0.125978)
(-1.34735e-07 -5.87175e-05 0.116845)
(1.23232e-06 -1.03419e-05 0.127488)
(-3.46254e-05 4.04433e-05 0.109654)
(-2.01013e-05 -2.83932e-05 0.099337)
(-3.25317e-05 -1.82581e-05 0.0995405)
(0.00020254 0.00020707 0.122501)
(1.94361e-05 2.76302e-05 0.0992867)
(3.00385e-05 1.71899e-05 0.0995578)
(6.09303e-07 -5.9408e-05 0.107807)
(8.98467e-06 4.92648e-05 0.0863777)
(-3.57826e-07 6.48315e-05 0.108089)
(-1.29336e-05 -4.64789e-05 0.0864267)
(-1.3888e-05 2.03481e-05 0.0743592)
(1.65489e-05 -2.32778e-05 0.0744398)
(4.95102e-05 7.96444e-06 0.0860446)
(6.65122e-05 3.41906e-07 0.107612)
(-8.32523e-06 1.8368e-06 0.129595)
(9.40659e-06 -1.02116e-06 0.129585)
(-8.48674e-06 -7.96881e-07 0.129595)
(5.62222e-05 -3.78326e-07 0.116639)
(-4.80446e-05 3.32953e-05 0.109311)
(-4.59015e-07 -8.35195e-07 0.127586)
(-1.82177e-06 3.37123e-06 0.125792)
(-6.01268e-05 2.82834e-08 0.116645)
(4.48526e-05 -3.52551e-05 0.109392)
(-5.58806e-07 1.06091e-07 0.127229)
(2.24802e-05 -1.07075e-05 0.0742345)
(2.29843e-07 5.48531e-05 0.116593)
(-9.50468e-07 -5.62598e-06 0.127569)
(3.54256e-05 -4.34815e-05 0.109526)
(-6.9524e-07 -5.59784e-05 0.116826)
(7.63333e-07 -2.35566e-06 0.127413)
(-2.22598e-05 -2.85844e-05 0.0992778)
(-3.41587e-05 -1.80047e-05 0.0994971)
(0.000201626 0.000208564 0.122526)
(2.1804e-05 2.84789e-05 0.0993592)
(2.83724e-05 1.7575e-05 0.099476)
(0.000161509 0.00016258 0.113465)
(0.000482828 0.000472989 0.0934634)
(0.000472955 0.000482878 0.0934653)
(0.000622308 -0.000577027 0.0629219)
(0.000570756 0.000592926 0.0841172)
(-0.000582669 0.000624622 0.0629115)
(0.000592977 0.000570695 0.084118)
(0.000395157 0.000388894 0.113511)
(0.000647135 0.000721432 0.0959164)
(0.000718267 0.000654303 0.0959144)
(0.000342862 0.000662651 0.0950889)
(0.000663004 0.00034207 0.0950932)
(3.12796e-05 0.0003421 0.110215)
(0.000198542 0.000170624 0.11495)
(0.000280067 0.000437832 0.099007)
(9.67951e-06 0.000186148 0.117073)
(-3.13652e-05 0.00034227 0.110219)
(-0.000198707 0.000170833 0.11495)
(-0.000280558 0.000437751 0.0990091)
(-9.7691e-06 0.000186234 0.117075)
(9.73332e-06 0.000638104 0.104509)
(0.00191149 -0.00336875 0.0558411)
(0.000520898 0.000550316 0.0887946)
(-0.000141063 0.000943961 0.106755)
(-1.0293e-05 0.000637642 0.104512)
(-0.00191175 -0.00336983 0.0558341)
(-0.000517174 0.000550734 0.0887884)
(0.000140487 0.000944152 0.10676)
(4.66939e-05 0.000589966 0.110228)
(0.000297281 0.00041338 0.115)
(0.00115324 0.00016248 0.0994884)
(0.000128275 0.000614662 0.116468)
(0.000330404 0.000635471 0.100884)
(5.78849e-05 0.000319382 0.116781)
(1.45273e-05 0.000808145 0.111749)
(-4.68395e-05 0.000590053 0.110231)
(-0.000297422 0.000413656 0.115)
(-0.00115429 0.000161143 0.0994948)
(-0.000128643 0.000614686 0.11647)
(-0.00032896 0.000635594 0.100899)
(-5.80804e-05 0.000319465 0.116783)
(-1.50412e-05 0.000808191 0.111752)
(-0.000161712 0.000162566 0.113463)
(-0.000484582 0.000476293 0.0934266)
(-0.000472708 0.000482694 0.0934656)
(-0.000624357 -0.000582458 0.0629388)
(-0.000574402 0.000595349 0.0841604)
(-0.000395091 0.0003896 0.113509)