/*--------------------------------*- C++ -*----------------------------------*\
| =========                 |                                                 |
| \\      /  F ield         | OpenFOAM: The Open Source CFD Toolbox           |
|  \\    /   O peration     | Version:  2206                                  |
|   \\  /    A nd           | Website:  www.openfoam.com                      |
|    \\/     M anipulation  |                                                 |
\*---------------------------------------------------------------------------*/
FoamFile
{
    version     2.0;
    format      ascii;
    arch        "LSB;label=32;scalar=64";
    class       volScalarField;
    location    "70";
    object      k;
}
// * * * * * * * * * * * * * * * * * * * * * * * * * * * * * * * * * * * * * //

dimensions      [0 2 -2 0 0 0 0];

internalField   nonuniform List<scalar> 
66616
(
3.57693e-05
3.70208e-05
3.70134e-05
3.78163e-05
3.43044e-05
3.62998e-05
3.62192e-05
3.76061e-05
3.2998e-05
3.51538e-05
3.50936e-05
3.63173e-05
3.16835e-05
3.37964e-05
3.36842e-05
3.39442e-05
3.03536e-05
3.2409e-05
3.23337e-05
3.1592e-05
2.90153e-05
3.12195e-05
3.11654e-05
3.06776e-05
2.77367e-05
3.06632e-05
3.02524e-05
3.02921e-05
2.66685e-05
3.07966e-05
3.04619e-05
3.05346e-05
2.58109e-05
3.09069e-05
3.06056e-05
3.07848e-05
2.51741e-05
3.12854e-05
3.07367e-05
3.11594e-05
2.48968e-05
3.12927e-05
3.10664e-05
3.1343e-05
2.4909e-05
3.19747e-05
3.16978e-05
3.19922e-05
3.78364e-05
3.69628e-05
3.69646e-05
3.78374e-05
3.69621e-05
3.69657e-05
3.60791e-05
3.60811e-05
3.60818e-05
3.60817e-05
3.69626e-05
3.69684e-05
3.78366e-05
3.69664e-05
3.69667e-05
3.78332e-05
3.78151e-05
3.76032e-05
3.70291e-05
3.70302e-05
3.64159e-05
3.64087e-05
3.7815e-05
3.76016e-05
3.70271e-05
3.70356e-05
3.6478e-05
3.64867e-05
3.70385e-05
3.65e-05
3.64949e-05
3.78144e-05
3.76062e-05
3.70285e-05
3.64273e-05
3.641e-05
3.76113e-05
3.75981e-05
3.65287e-05
3.62519e-05
3.62568e-05
3.54186e-05
3.54282e-05
3.75965e-05
3.65625e-05
3.63332e-05
3.63436e-05
3.54617e-05
3.55003e-05
3.63358e-05
3.55077e-05
3.55056e-05
3.76002e-05
3.65605e-05
3.62482e-05
3.54335e-05
3.54182e-05
3.65468e-05
3.63227e-05
3.42483e-05
3.51559e-05
3.51532e-05
3.40702e-05
3.41014e-05
3.63512e-05
3.43074e-05
3.5196e-05
3.52092e-05
3.41144e-05
3.41389e-05
3.5193e-05
3.41556e-05
3.41384e-05
3.63351e-05
3.42872e-05
3.51215e-05
3.40666e-05
3.40838e-05
3.42807e-05
3.39798e-05
3.1875e-05
3.37915e-05
3.37637e-05
3.27465e-05
3.27321e-05
3.40078e-05
3.18901e-05
3.37984e-05
3.38213e-05
3.27508e-05
3.27737e-05
3.38653e-05
3.27589e-05
3.2783e-05
3.39911e-05
3.19004e-05
3.3741e-05
3.26831e-05
3.27132e-05
3.19036e-05
3.16052e-05
3.06783e-05
3.24236e-05
3.24004e-05
3.14772e-05
3.14569e-05
3.15825e-05
3.06563e-05
3.24426e-05
3.24433e-05
3.15222e-05
3.1523e-05
3.24901e-05
3.15111e-05
3.15546e-05
3.15893e-05
3.06463e-05
3.23869e-05
3.14192e-05
3.14372e-05
3.06966e-05
3.0655e-05
3.05432e-05
3.12184e-05
3.12033e-05
3.05132e-05
3.05829e-05
3.0457e-05
3.04556e-05
3.12627e-05
3.12513e-05
3.0766e-05
3.07458e-05
3.12604e-05
3.08527e-05
3.07436e-05
3.06183e-05
3.0507e-05
3.11884e-05
3.04509e-05
3.04578e-05
3.04476e-05
3.0321e-05
3.06258e-05
3.0624e-05
3.05915e-05
3.0645e-05
3.05942e-05
3.04848e-05
3.06537e-05
3.05922e-05
3.07156e-05
3.06095e-05
3.06397e-05
3.07288e-05
3.0757e-05
3.06235e-05
3.03043e-05
3.02721e-05
3.05375e-05
3.0471e-05
3.04802e-05
3.03941e-05
3.06655e-05
3.0768e-05
3.06744e-05
3.0571e-05
3.07495e-05
3.05633e-05
3.05939e-05
3.07e-05
3.08079e-05
3.06462e-05
3.07809e-05
3.07285e-05
3.05141e-05
3.08707e-05
3.06275e-05
3.02906e-05
3.09125e-05
3.02992e-05
3.03482e-05
3.04033e-05
3.05764e-05
3.10162e-05
3.11945e-05
3.07973e-05
3.06295e-05
3.09334e-05
3.0886e-05
3.09589e-05
3.12653e-05
3.07193e-05
3.07888e-05
3.08867e-05
3.10764e-05
3.05682e-05
3.09746e-05
3.08396e-05
3.09004e-05
3.10481e-05
3.06738e-05
3.07591e-05
3.07594e-05
3.11798e-05
3.12087e-05
3.15599e-05
3.10475e-05
3.09218e-05
3.11715e-05
3.11624e-05
3.11015e-05
3.15338e-05
3.12059e-05
3.09579e-05
3.12524e-05
3.13142e-05
3.10499e-05
3.12561e-05
3.11608e-05
3.09826e-05
3.16678e-05
3.07249e-05
3.08081e-05
3.10355e-05
3.1401e-05
3.14747e-05
3.21269e-05
3.12333e-05
3.13097e-05
3.14608e-05
3.14902e-05
3.15164e-05
3.19052e-05
3.12864e-05
3.14984e-05
3.15072e-05
3.17026e-05
3.12264e-05
3.1779e-05
3.16295e-05
3.17473e-05
3.21792e-05
3.1383e-05
3.13165e-05
3.15352e-05
3.19578e-05
3.2153e-05
3.15788e-05
3.12984e-05
3.21484e-05
3.19747e-05
3.16258e-05
3.16696e-05
3.19938e-05
3.15626e-05
3.64821e-05
3.676e-05
3.65606e-05
3.65602e-05
3.81803e-05
3.70447e-05
4.21377e-05
3.66883e-05
3.8174e-05
3.70441e-05
3.66902e-05
4.21498e-05
3.74549e-05
4.43239e-05
4.42935e-05
4.42068e-05
1.82998e-05
4.50512e-05
1.48289e-05
2.12475e-05
1.28187e-05
4.41565e-05
1.8313e-05
4.5008e-05
1.47967e-05
3.57645e-05
3.57655e-05
3.57688e-05
3.46357e-05
3.46415e-05
3.46408e-05
3.46408e-05
4.02672e-05
4.25458e-05
3.63063e-05
3.6832e-05
4.00836e-05
3.9842e-05
3.59741e-05
2.12838e-05
1.28193e-05
4.02992e-05
3.63093e-05
4.25071e-05
3.6843e-05
4.01713e-05
3.59719e-05
3.99065e-05
3.67178e-05
3.67231e-05
3.76619e-05
3.14926e-05
3.1466e-05
3.65827e-05
9.97344e-06
3.97365e-05
9.23542e-06
8.15952e-06
7.6747e-06
3.59416e-05
9.79629e-06
3.95813e-05
9.08332e-06
3.42975e-05
3.43e-05
3.43029e-05
3.33111e-05
3.3319e-05
3.33197e-05
3.3321e-05
3.88256e-05
3.36993e-05
3.50844e-05
3.60791e-05
4.00006e-05
3.02087e-05
3.48016e-05
8.12155e-06
7.60893e-06
3.88454e-05
3.49746e-05
3.39098e-05
3.60053e-05
3.99039e-05
3.46821e-05
3.05905e-05
2.35261e-05
2.36989e-05
3.72837e-05
2.04855e-05
2.07294e-05
3.04478e-05
9.19796e-06
3.2414e-05
9.27968e-06
7.28104e-06
7.03122e-06
2.9839e-05
9.04726e-06
3.19011e-05
9.05408e-06
3.29913e-05
3.29958e-05
3.29987e-05
3.20071e-05
3.20136e-05
3.20136e-05
3.2016e-05
3.47885e-05
2.69537e-05
3.38566e-05
3.48414e-05
3.62455e-05
2.56433e-05
3.35236e-05
7.21325e-06
6.94125e-06
3.50235e-05
3.37436e-05
2.72168e-05
3.47586e-05
3.65028e-05
3.34166e-05
2.59371e-05
1.79108e-05
1.81777e-05
3.54765e-05
1.68755e-05
1.7125e-05
2.70126e-05
9.30259e-06
2.80003e-05
9.31549e-06
6.73154e-06
6.63867e-06
2.6533e-05
9.07753e-06
2.73906e-05
9.13368e-06
3.16792e-05
3.16772e-05
3.16878e-05
3.0687e-05
3.06885e-05
3.0687e-05
3.06929e-05
3.18712e-05
2.45505e-05
3.24807e-05
3.3446e-05
3.27093e-05
2.45029e-05
3.21262e-05
6.61848e-06
6.44127e-06
3.19613e-05
3.23817e-05
2.47633e-05
3.33652e-05
3.29907e-05
3.20387e-05
2.46959e-05
1.57665e-05
1.61592e-05
3.30483e-05
1.55082e-05
1.59592e-05
2.69255e-05
9.492e-06
2.67173e-05
9.59086e-06
6.52562e-06
6.5277e-06
2.65011e-05
9.21805e-06
2.63109e-05
9.36121e-06
3.03466e-05
3.03431e-05
3.03564e-05
2.93506e-05
2.93465e-05
2.93451e-05
2.93514e-05
3.13776e-05
2.45159e-05
3.10871e-05
3.20971e-05
3.14043e-05
2.47656e-05
3.07417e-05
6.35141e-06
6.35091e-06
3.14039e-05
3.09948e-05
2.46917e-05
3.20086e-05
3.13939e-05
3.06582e-05
2.49929e-05
1.5345e-05
1.56466e-05
3.10022e-05
1.53246e-05
1.57151e-05
2.74779e-05
9.71985e-06
2.70894e-05
9.9367e-06
6.56139e-06
6.62445e-06
2.70557e-05
9.5334e-06
2.66923e-05
9.72117e-06
2.90054e-05
2.90045e-05
2.90117e-05
2.80488e-05
2.80447e-05
2.80349e-05
2.80437e-05
3.17312e-05
2.51496e-05
2.98346e-05
3.09716e-05
3.15883e-05
2.51278e-05
2.95554e-05
6.39075e-06
6.44603e-06
3.19117e-05
2.9705e-05
2.56331e-05
3.08863e-05
3.1508e-05
2.94217e-05
2.58339e-05
1.55266e-05
1.58111e-05
3.03985e-05
1.55489e-05
1.58732e-05
2.84658e-05
1.03218e-05
2.8155e-05
1.05151e-05
6.82415e-06
6.90651e-06
2.8034e-05
1.01253e-05
2.75365e-05
1.03535e-05
2.773e-05
2.77142e-05
2.77381e-05
2.6917e-05
2.69098e-05
2.68934e-05
2.69085e-05
3.2569e-05
2.60638e-05
2.88765e-05
3.07067e-05
3.20214e-05
2.62127e-05
2.87196e-05
6.65877e-06
6.73608e-06
3.24987e-05
2.86906e-05
2.59845e-05
3.03948e-05
3.23047e-05
2.85128e-05
2.66727e-05
1.58019e-05
1.61225e-05
3.03937e-05
1.615e-05
1.64856e-05
2.88479e-05
1.08707e-05
2.84767e-05
1.10693e-05
7.0059e-06
7.03289e-06
2.85341e-05
1.07826e-05
2.87158e-05
1.09167e-05
2.66515e-05
2.66263e-05
2.66456e-05
2.60138e-05
2.59933e-05
2.59717e-05
2.59825e-05
3.29754e-05
2.69194e-05
2.84863e-05
3.07877e-05
3.2844e-05
2.72509e-05
2.84917e-05
6.91051e-06
6.97488e-06
3.28163e-05
2.82147e-05
2.74199e-05
3.03549e-05
3.25654e-05
2.81232e-05
2.78296e-05
1.64838e-05
1.67854e-05
3.06465e-05
1.67004e-05
1.68809e-05
2.88211e-05
1.12081e-05
2.86139e-05
1.12716e-05
7.01078e-06
6.99226e-06
2.87275e-05
1.09188e-05
2.86036e-05
1.0982e-05
2.57929e-05
2.57646e-05
2.57761e-05
2.53215e-05
2.53161e-05
2.52845e-05
2.52876e-05
3.32523e-05
2.81689e-05
2.85043e-05
3.08949e-05
3.29922e-05
2.8381e-05
2.85091e-05
7.07996e-06
7.0709e-06
3.3353e-05
2.81261e-05
2.80855e-05
3.06317e-05
3.28987e-05
2.81317e-05
2.79726e-05
1.68465e-05
1.70335e-05
3.0917e-05
1.69246e-05
1.68476e-05
2.86492e-05
1.12531e-05
2.89098e-05
1.12172e-05
6.98087e-06
6.98151e-06
2.8804e-05
1.09076e-05
2.85997e-05
1.09332e-05
2.51791e-05
2.51308e-05
2.51439e-05
2.49169e-05
2.49398e-05
2.48402e-05
2.4912e-05
3.37007e-05
2.81644e-05
2.85358e-05
3.10412e-05
3.36797e-05
2.8523e-05
2.85386e-05
7.09176e-06
7.05502e-06
3.37632e-05
2.81839e-05
2.8379e-05
3.07635e-05
3.32714e-05
2.81393e-05
2.8261e-05
1.69016e-05
1.70311e-05
3.13245e-05
1.67854e-05
1.71275e-05
2.88976e-05
1.12657e-05
2.8736e-05
1.12297e-05
7.00287e-06
7.00167e-06
2.84921e-05
1.09095e-05
2.88495e-05
1.09498e-05
2.492e-05
2.4784e-05
2.48959e-05
2.49052e-05
2.48591e-05
2.48593e-05
2.48814e-05
3.41678e-05
2.86886e-05
2.853e-05
3.14634e-05
3.39865e-05
2.87842e-05
2.86724e-05
7.10781e-06
7.10867e-06
3.42336e-05
2.8185e-05
2.87874e-05
3.09792e-05
3.37943e-05
2.83568e-05
2.87339e-05
1.67663e-05
1.72206e-05
3.17292e-05
1.67595e-05
1.7244e-05
2.8385e-05
1.11325e-05
2.91416e-05
1.09491e-05
7.08987e-06
7.04128e-06
1.09858e-05
2.87499e-05
2.48086e-05
2.48479e-05
2.48617e-05
3.45153e-05
2.87919e-05
2.86431e-05
3.20199e-05
3.4302e-05
2.8938e-05
2.89177e-05
7.18407e-06
3.38915e-05
2.85061e-05
2.87901e-05
3.44602e-05
2.8614e-05
1.69047e-05
1.73463e-05
3.22116e-05
1.69465e-05
1.71477e-05
3.74511e-05
4.43708e-05
4.43777e-05
8.5739e-06
4.0928e-05
8.56515e-06
4.09148e-05
3.7581e-05
3.64818e-05
3.64835e-05
4.60932e-05
4.61077e-05
3.81734e-05
3.70422e-05
4.21514e-05
3.66903e-05
3.81804e-05
3.70435e-05
4.214e-05
3.6688e-05
4.04083e-05
4.04506e-06
4.44409e-05
4.50339e-05
4.04173e-05
4.07715e-06
4.44465e-05
4.50098e-05
3.87483e-05
3.70057e-05
4.33123e-05
3.66116e-05
4.39313e-05
3.65861e-05
3.99189e-05
3.87386e-05
3.70069e-05
4.32583e-05
3.6612e-05
4.39589e-05
3.65841e-05
3.99121e-05
3.74526e-05
4.43327e-05
4.43545e-05
8.56935e-06
4.08749e-05
3.75825e-05
3.64585e-05
3.64869e-05
4.61319e-05
4.61038e-05
8.56358e-06
4.08701e-05
3.81838e-05
3.70438e-05
4.21621e-05
3.66906e-05
3.81862e-05
3.70415e-05
3.669e-05
4.21375e-05
4.04191e-05
4.03449e-06
4.45091e-05
4.49606e-05
3.87242e-05
3.70068e-05
4.33037e-05
3.66149e-05
4.39342e-05
3.6586e-05
3.99589e-05
4.04202e-05
4.05284e-06
4.44153e-05
4.50358e-05
3.87284e-05
3.70051e-05
3.66137e-05
4.33215e-05
3.65855e-05
4.3942e-05
3.99599e-05
3.64841e-05
3.67586e-05
3.6557e-05
3.65604e-05
3.64841e-05
3.67585e-05
3.65576e-05
3.65582e-05
3.6484e-05
3.67601e-05
3.65594e-05
3.65604e-05
3.62704e-05
3.66035e-05
3.58455e-05
3.58417e-05
3.63871e-05
3.63858e-05
3.56737e-05
3.62718e-05
3.66024e-05
3.58451e-05
3.58434e-05
3.63847e-05
3.63868e-05
3.56739e-05
3.62719e-05
3.66025e-05
3.58403e-05
3.58487e-05
3.63838e-05
3.63869e-05
3.56739e-05
3.62718e-05
3.66041e-05
3.58416e-05
3.58495e-05
3.63853e-05
3.63888e-05
3.56739e-05
3.81852e-05
3.7044e-05
3.66885e-05
4.21466e-05
3.87368e-05
3.70078e-05
4.3318e-05
3.66164e-05
4.39578e-05
3.65895e-05
3.99639e-05
4.0413e-05
4.04658e-06
4.44079e-05
4.50326e-05
3.87286e-05
3.70075e-05
3.66144e-05
4.33265e-05
3.65805e-05
4.39509e-05
3.99585e-05
4.04217e-05
4.0443e-06
4.44782e-05
4.50255e-05
3.74525e-05
4.42988e-05
4.43491e-05
8.56261e-06
4.08628e-05
3.75822e-05
3.6467e-05
3.64765e-05
4.61372e-05
4.60657e-05
8.56716e-06
4.08505e-05
3.81806e-05
3.70464e-05
3.66883e-05
4.21333e-05
3.87469e-05
3.70118e-05
3.66165e-05
4.33026e-05
3.65835e-05
4.39407e-05
3.99166e-05
3.87386e-05
3.70095e-05
3.66149e-05
4.33004e-05
3.65848e-05
4.39435e-05
3.99207e-05
4.0413e-05
4.05378e-06
4.44438e-05
4.50114e-05
4.04221e-05
4.05142e-06
4.44718e-05
4.50129e-05
3.75807e-05
3.64726e-05
3.64566e-05
4.61512e-05
4.61308e-05
8.56695e-06
4.09035e-05
8.57116e-06
4.0866e-05
2.12429e-05
1.28714e-05
2.12662e-05
1.2875e-05
3.67428e-05
3.6734e-05
3.76602e-05
3.14661e-05
3.14779e-05
8.40928e-06
1.06835e-05
8.33088e-06
1.07127e-05
3.76641e-05
2.49444e-05
2.46977e-05
2.97861e-05
2.97939e-05
4.42093e-05
1.82513e-05
4.50421e-05
1.48221e-05
4.03037e-05
4.25307e-05
3.63131e-05
3.68349e-05
4.01753e-05
3.98598e-05
3.59638e-05
4.03034e-05
4.24993e-05
3.6311e-05
3.68309e-05
4.01715e-05
3.98463e-05
3.59638e-05
4.36474e-05
1.03943e-05
1.29496e-05
4.05944e-05
4.36575e-05
1.03829e-05
1.29498e-05
4.059e-05
4.0479e-05
3.66395e-05
3.51873e-05
3.52719e-05
3.88208e-05
3.56502e-05
4.00877e-05
4.04785e-05
3.66426e-05
3.51286e-05
3.52711e-05
3.87768e-05
3.56488e-05
4.00892e-05
3.67305e-05
3.67532e-05
3.76347e-05
3.1434e-05
3.14633e-05
2.12718e-05
1.28492e-05
8.39522e-06
1.06666e-05
3.7663e-05
2.48917e-05
2.46767e-05
2.97798e-05
2.98024e-05
8.31214e-06
1.06985e-05
4.02669e-05
4.25343e-05
3.63126e-05
3.68211e-05
4.00846e-05
3.98309e-05
3.59697e-05
4.41847e-05
1.8314e-05
4.50327e-05
1.47948e-05
4.02649e-05
3.63135e-05
4.25535e-05
3.6825e-05
4.00852e-05
3.59667e-05
3.98321e-05
4.36162e-05
1.01558e-05
1.29872e-05
4.0389e-05
4.04247e-05
3.6659e-05
3.48363e-05
3.53692e-05
3.88833e-05
3.56519e-05
4.0198e-05
4.36468e-05
1.01651e-05
1.2987e-05
4.04131e-05
4.04459e-05
3.66628e-05
3.53655e-05
3.48568e-05
3.56497e-05
3.88713e-05
4.01997e-05
4.41914e-05
1.83107e-05
4.5031e-05
1.47962e-05
4.02657e-05
3.63127e-05
4.2543e-05
3.68283e-05
4.00837e-05
3.59692e-05
3.98389e-05
4.41844e-05
1.83169e-05
4.50226e-05
1.4796e-05
4.04446e-05
3.66359e-05
3.48275e-05
3.53754e-05
3.8889e-05
3.56451e-05
4.02233e-05
4.36569e-05
1.0156e-05
1.29945e-05
4.04371e-05
4.045e-05
3.66649e-05
3.53685e-05
3.48441e-05
3.5649e-05
3.88759e-05
4.02161e-05
4.36498e-05
1.01608e-05
1.29893e-05
4.0426e-05
3.67399e-05
3.67449e-05
3.76367e-05
3.14478e-05
3.14835e-05
2.12379e-05
1.28605e-05
8.30851e-06
1.06863e-05
3.76648e-05
2.46437e-05
2.49533e-05
2.97818e-05
2.97939e-05
8.41179e-06
1.06741e-05
4.02996e-05
3.63123e-05
4.25129e-05
3.68329e-05
4.01317e-05
3.59688e-05
3.98647e-05
4.42104e-05
1.82771e-05
4.50441e-05
1.48325e-05
4.42057e-05
1.82781e-05
4.50441e-05
1.48164e-05
4.04743e-05
3.66235e-05
3.5285e-05
3.51722e-05
3.56521e-05
3.87865e-05
4.00885e-05
4.04761e-05
3.66439e-05
3.52809e-05
3.51857e-05
3.56562e-05
3.88071e-05
4.00851e-05
4.36565e-05
1.04013e-05
1.29459e-05
4.05735e-05
4.36549e-05
1.03916e-05
1.29459e-05
4.05656e-05
2.1237e-05
1.28619e-05
2.12166e-05
1.28736e-05
3.76688e-05
2.47186e-05
2.49458e-05
2.97724e-05
2.97758e-05
8.32077e-06
1.06926e-05
8.41882e-06
1.06875e-05
8.14824e-06
7.66595e-06
8.12395e-06
7.62483e-06
2.37213e-05
2.35878e-05
3.72813e-05
2.06726e-05
2.04724e-05
7.29314e-06
7.58859e-06
7.24675e-06
7.56341e-06
3.71695e-05
1.85222e-05
1.82727e-05
2.01581e-05
1.99676e-05
3.65156e-05
9.97675e-06
3.97699e-05
9.22591e-06
3.88295e-05
3.3906e-05
3.49709e-05
3.59935e-05
3.98957e-05
3.05042e-05
3.46675e-05
3.88151e-05
3.39571e-05
3.49694e-05
3.59904e-05
3.9891e-05
3.05175e-05
3.46666e-05
3.56621e-05
9.17933e-06
9.16036e-06
3.31352e-05
3.57e-05
9.20431e-06
9.15527e-06
3.29034e-05
3.84347e-05
3.57697e-05
2.78197e-05
3.40524e-05
2.98472e-05
3.4372e-05
3.692e-05
3.84369e-05
3.57735e-05
2.78585e-05
3.40514e-05
2.98532e-05
3.43697e-05
3.69121e-05
2.37383e-05
2.35995e-05
3.72842e-05
2.06821e-05
2.04456e-05
8.11679e-06
7.61201e-06
7.31149e-06
7.59855e-06
3.71638e-05
1.85454e-05
1.82711e-05
2.01943e-05
2.00372e-05
7.24998e-06
7.56155e-06
3.87836e-05
3.37375e-05
3.5093e-05
3.60505e-05
3.9994e-05
3.0154e-05
3.47951e-05
3.59926e-05
9.78169e-06
3.95931e-05
9.07365e-06
3.87758e-05
3.50889e-05
3.36745e-05
3.60688e-05
4.00054e-05
3.47906e-05
3.01359e-05
3.5267e-05
9.03735e-06
9.01686e-06
3.25302e-05
3.83923e-05
3.58367e-05
2.74155e-05
3.41805e-05
2.95478e-05
3.4504e-05
3.67669e-05
3.52593e-05
9.00625e-06
9.00876e-06
3.24382e-05
3.83947e-05
3.58474e-05
3.41756e-05
2.73669e-05
3.44977e-05
2.95733e-05
3.67427e-05
3.60231e-05
9.79074e-06
3.96131e-05
9.07976e-06
3.88085e-05
3.50887e-05
3.36731e-05
3.60791e-05
4.00104e-05
3.47941e-05
3.00747e-05
3.60041e-05
9.78671e-06
3.96235e-05
9.07305e-06
3.83863e-05
3.57964e-05
2.73963e-05
3.41849e-05
2.95137e-05
3.44961e-05
3.67693e-05
3.53049e-05
9.03144e-06
9.00343e-06
3.23705e-05
3.83882e-05
3.58341e-05
3.41779e-05
2.72695e-05
3.44982e-05
2.94055e-05
3.67559e-05
3.53666e-05
9.00016e-06
8.99483e-06
3.2451e-05
2.35834e-05
2.37241e-05
3.72832e-05
2.04058e-05
2.06918e-05
8.14591e-06
7.67751e-06
7.24421e-06
7.56174e-06
3.71622e-05
1.82373e-05
1.84651e-05
2.00325e-05
2.00776e-05
7.29321e-06
7.57953e-06
3.88192e-05
3.49797e-05
3.39302e-05
3.59887e-05
3.99059e-05
3.46788e-05
3.05606e-05
3.65315e-05
9.95961e-06
3.97995e-05
9.24181e-06
3.64514e-05
9.97325e-06
3.98012e-05
9.22843e-06
3.84229e-05
3.57178e-05
3.40682e-05
2.77609e-05
3.43789e-05
2.97618e-05
3.69586e-05
3.84543e-05
3.57521e-05
3.40656e-05
2.78825e-05
3.43823e-05
2.9779e-05
3.6922e-05
3.57476e-05
9.17405e-06
9.17418e-06
3.30013e-05
3.5769e-05
9.18832e-06
9.18652e-06
3.30129e-05
8.09926e-06
7.60782e-06
8.15178e-06
7.69121e-06
3.7147e-05
1.82573e-05
1.84799e-05
1.98952e-05
2.00685e-05
7.20487e-06
7.53356e-06
7.30345e-06
7.58362e-06
7.23418e-06
6.98848e-06
7.20579e-06
6.93214e-06
1.82363e-05
1.80459e-05
3.54488e-05
1.71331e-05
1.70278e-05
6.70589e-06
6.92226e-06
6.66514e-06
6.89855e-06
3.51915e-05
1.62197e-05
1.62158e-05
1.70006e-05
1.69161e-05
3.04414e-05
9.22687e-06
3.25053e-05
9.25148e-06
3.50039e-05
2.73405e-05
3.37363e-05
3.47771e-05
3.651e-05
2.61149e-05
3.34001e-05
3.50043e-05
2.72816e-05
3.37331e-05
3.47938e-05
3.64399e-05
2.61728e-05
3.33998e-05
2.99746e-05
9.2988e-06
9.28702e-06
2.84994e-05
3.01163e-05
9.31699e-06
9.28372e-06
2.85778e-05
3.46188e-05
3.44856e-05
2.50446e-05
3.27131e-05
2.57038e-05
3.30663e-05
3.33251e-05
3.45982e-05
3.44702e-05
2.50778e-05
3.2714e-05
2.56544e-05
3.30637e-05
3.33099e-05
1.8407e-05
1.81087e-05
3.55114e-05
1.73042e-05
1.70395e-05
7.21208e-06
6.9503e-06
6.75811e-06
6.98087e-06
3.52333e-05
1.65225e-05
1.61836e-05
1.71645e-05
1.70477e-05
6.68206e-06
6.92597e-06
3.4777e-05
2.69693e-05
3.38655e-05
3.48185e-05
3.63082e-05
2.56165e-05
3.35228e-05
2.99392e-05
9.07888e-06
3.19644e-05
9.07954e-06
3.48057e-05
3.38588e-05
2.7077e-05
3.48368e-05
3.63047e-05
3.35155e-05
2.57309e-05
2.93672e-05
9.09901e-06
9.10447e-06
2.79205e-05
3.44388e-05
3.45051e-05
2.46428e-05
3.28284e-05
2.5367e-05
3.31884e-05
3.3131e-05
2.95787e-05
9.05819e-06
9.09988e-06
2.79807e-05
3.44553e-05
3.45267e-05
3.28195e-05
2.47907e-05
3.31792e-05
2.53586e-05
3.31226e-05
2.97291e-05
9.06918e-06
3.19175e-05
9.08601e-06
3.47992e-05
3.38589e-05
2.68262e-05
3.48506e-05
3.63188e-05
3.35134e-05
2.55453e-05
2.98148e-05
9.06006e-06
3.20543e-05
9.07498e-06
3.43454e-05
3.44844e-05
2.46689e-05
3.28279e-05
2.53237e-05
3.31793e-05
3.31432e-05
2.94784e-05
9.11674e-06
9.11789e-06
2.78385e-05
3.4365e-05
3.45615e-05
3.28173e-05
2.45218e-05
3.3179e-05
2.52714e-05
3.30718e-05
2.94662e-05
9.05727e-06
9.10416e-06
2.77855e-05
1.81038e-05
1.81093e-05
3.54871e-05
1.70481e-05
1.71382e-05
7.21194e-06
6.95618e-06
6.66525e-06
6.92025e-06
3.52151e-05
1.62271e-05
1.63446e-05
1.7069e-05
1.71296e-05
6.71728e-06
6.92469e-06
3.50595e-05
3.3749e-05
2.74009e-05
3.47623e-05
3.64799e-05
3.3417e-05
2.6021e-05
3.04454e-05
9.14292e-06
3.2442e-05
9.19966e-06
3.05476e-05
9.26805e-06
3.24373e-05
9.27896e-06
3.46455e-05
3.43997e-05
3.27317e-05
2.47116e-05
3.3075e-05
2.55815e-05
3.34114e-05
3.46469e-05
3.44429e-05
3.27336e-05
2.5092e-05
3.30814e-05
2.582e-05
3.34416e-05
3.00242e-05
9.25495e-06
9.26862e-06
2.8412e-05
3.01235e-05
9.28423e-06
9.29446e-06
2.86036e-05
7.16233e-06
6.89453e-06
7.24893e-06
6.97244e-06
3.51882e-05
1.61049e-05
1.6391e-05
1.68333e-05
1.7133e-05
6.60985e-06
6.85203e-06
6.74389e-06
6.92584e-06
6.64243e-06
6.5474e-06
6.65464e-06
6.54433e-06
1.62436e-05
1.62416e-05
3.30563e-05
1.59896e-05
1.5946e-05
6.41568e-06
6.47643e-06
6.36052e-06
6.4868e-06
3.27711e-05
1.54669e-05
1.54498e-05
1.57403e-05
1.56712e-05
2.70573e-05
9.34646e-06
2.80759e-05
9.32398e-06
3.19198e-05
2.49251e-05
3.2372e-05
3.34209e-05
3.3003e-05
2.47122e-05
3.20213e-05
3.18945e-05
2.50613e-05
3.23706e-05
3.34311e-05
3.30215e-05
2.4868e-05
3.20205e-05
2.68944e-05
9.46494e-06
9.41204e-06
2.66947e-05
2.70105e-05
9.53209e-06
9.38437e-06
2.69383e-05
3.16126e-05
3.31055e-05
2.48436e-05
3.13223e-05
2.48854e-05
3.16758e-05
3.12777e-05
3.17064e-05
3.30943e-05
2.50488e-05
3.13201e-05
2.48304e-05
3.16768e-05
3.14459e-05
1.65359e-05
1.61528e-05
3.30647e-05
1.61797e-05
1.57543e-05
6.61344e-06
6.49242e-06
6.53715e-06
6.59899e-06
3.27781e-05
1.58892e-05
1.55361e-05
1.62477e-05
1.57134e-05
6.39407e-06
6.44999e-06
3.19691e-05
2.44783e-05
3.24924e-05
3.34381e-05
3.28499e-05
2.43645e-05
3.21337e-05
2.65197e-05
9.12026e-06
2.76296e-05
9.12356e-06
3.17279e-05
3.24821e-05
2.46508e-05
3.34643e-05
3.28856e-05
3.21246e-05
2.44047e-05
2.6445e-05
9.21536e-06
9.2084e-06
2.64849e-05
3.18763e-05
3.31137e-05
2.4382e-05
3.14369e-05
2.42729e-05
3.17954e-05
3.13544e-05
2.6664e-05
9.17618e-06
9.18472e-06
2.64777e-05
3.1572e-05
3.31301e-05
3.14261e-05
2.4306e-05
3.17875e-05
2.43862e-05
3.13747e-05
2.63679e-05
9.12446e-06
2.74712e-05
9.1456e-06
3.16435e-05
3.24792e-05
2.44884e-05
3.34763e-05
3.27456e-05
3.2119e-05
2.42087e-05
2.62465e-05
9.1058e-06
2.74272e-05
9.10569e-06
3.17841e-05
3.30988e-05
2.44729e-05
3.14224e-05
2.44891e-05
3.17823e-05
3.12585e-05
2.6275e-05
9.21858e-06
9.17993e-06
2.61933e-05
3.13774e-05
3.31716e-05
3.14134e-05
2.43111e-05
3.17782e-05
2.4284e-05
3.12122e-05
2.62241e-05
9.21042e-06
9.17867e-06
2.60838e-05
1.60904e-05
1.62573e-05
3.3064e-05
1.5575e-05
1.59322e-05
6.66282e-06
6.51501e-06
6.3399e-06
6.3914e-06
3.27807e-05
1.5314e-05
1.5651e-05
1.54932e-05
1.58385e-05
6.46627e-06
6.4936e-06
3.20792e-05
3.23917e-05
2.48779e-05
3.341e-05
3.3067e-05
3.20446e-05
2.48342e-05
2.71837e-05
9.35725e-06
2.81182e-05
9.32801e-06
2.72518e-05
9.27616e-06
2.82221e-05
9.34152e-06
3.16808e-05
3.30223e-05
3.13451e-05
2.48683e-05
3.16891e-05
2.47917e-05
3.1517e-05
3.17623e-05
3.30768e-05
3.13486e-05
2.48662e-05
3.17007e-05
2.47937e-05
3.14608e-05
2.71766e-05
9.38171e-06
9.33003e-06
2.70274e-05
2.71964e-05
9.5105e-06
9.39789e-06
2.70572e-05
6.55456e-06
6.38039e-06
6.65078e-06
6.54485e-06
3.27537e-05
1.53929e-05
1.57301e-05
1.5542e-05
1.59542e-05
6.32898e-06
6.3618e-06
6.49907e-06
6.51222e-06
6.41055e-06
6.41096e-06
6.35929e-06
6.3683e-06
1.5557e-05
1.54258e-05
3.10263e-05
1.55507e-05
1.54959e-05
6.42563e-06
6.41182e-06
6.38533e-06
6.37643e-06
3.09472e-05
1.57126e-05
1.55559e-05
1.56208e-05
1.55349e-05
2.69467e-05
9.54899e-06
2.69547e-05
9.65556e-06
3.13389e-05
2.48795e-05
3.09799e-05
3.20782e-05
3.14901e-05
2.49828e-05
3.06351e-05
3.11312e-05
2.50933e-05
3.09814e-05
3.20593e-05
3.12337e-05
2.51842e-05
3.06329e-05
2.70753e-05
9.69045e-06
9.59142e-06
2.71502e-05
2.70705e-05
9.74444e-06
9.66323e-06
2.70795e-05
3.11223e-05
3.17855e-05
2.54051e-05
2.99854e-05
2.51474e-05
3.03044e-05
3.13218e-05
3.13133e-05
3.17695e-05
2.54353e-05
2.99855e-05
2.53223e-05
3.0307e-05
3.12347e-05
1.58823e-05
1.55317e-05
3.07997e-05
1.5842e-05
1.55252e-05
6.39395e-06
6.39168e-06
6.5453e-06
6.52047e-06
3.08128e-05
1.5939e-05
1.56152e-05
1.5839e-05
1.55201e-05
6.42401e-06
6.40249e-06
3.15061e-05
2.44346e-05
3.11055e-05
3.21076e-05
3.15064e-05
2.46735e-05
3.07589e-05
2.64516e-05
9.27694e-06
2.63496e-05
9.31603e-06
3.12623e-05
3.10956e-05
2.43813e-05
3.21244e-05
3.12188e-05
3.07456e-05
2.45612e-05
2.6697e-05
9.45198e-06
9.38809e-06
2.66741e-05
3.13773e-05
3.18233e-05
2.48301e-05
3.01308e-05
2.47526e-05
3.04587e-05
3.13723e-05
2.66001e-05
9.47646e-06
9.33436e-06
2.66749e-05
3.12632e-05
3.1815e-05
3.01196e-05
2.484e-05
3.04502e-05
2.46046e-05
3.15033e-05
2.62834e-05
9.27771e-06
2.62843e-05
9.34162e-06
3.12667e-05
3.10778e-05
2.43356e-05
3.21387e-05
3.11908e-05
3.07256e-05
2.44262e-05
2.62673e-05
9.26997e-06
2.61595e-05
9.34785e-06
3.12226e-05
3.17788e-05
2.51746e-05
3.01142e-05
2.48303e-05
3.04336e-05
3.14588e-05
2.65798e-05
9.4988e-06
9.41457e-06
2.67418e-05
3.13137e-05
3.18503e-05
3.00877e-05
2.49089e-05
3.04167e-05
2.4675e-05
3.13681e-05
2.62338e-05
9.44165e-06
9.38223e-06
2.64271e-05
1.54198e-05
1.57613e-05
3.08501e-05
1.54266e-05
1.5685e-05
6.45749e-06
6.44945e-06
6.37463e-06
6.36437e-06
3.06831e-05
1.54902e-05
1.57543e-05
1.54645e-05
1.57729e-05
6.48728e-06
6.46258e-06
3.156e-05
3.10055e-05
2.49181e-05
3.20404e-05
3.1431e-05
3.06637e-05
2.50287e-05
2.71638e-05
9.47031e-06
2.6926e-05
9.48401e-06
2.70637e-05
9.51058e-06
2.70934e-05
9.52951e-06
3.16517e-05
3.17065e-05
3.00096e-05
2.55373e-05
3.03192e-05
2.5132e-05
3.15434e-05
3.15954e-05
3.17591e-05
3.00165e-05
2.54171e-05
3.03321e-05
2.51049e-05
3.14142e-05
2.7206e-05
9.72987e-06
9.5505e-06
2.75372e-05
2.73446e-05
9.72011e-06
9.59887e-06
2.75533e-05
6.31608e-06
6.32233e-06
6.47106e-06
6.47723e-06
3.08943e-05
1.54077e-05
1.58155e-05
1.54314e-05
1.56897e-05
6.33125e-06
6.33833e-06
6.49192e-06
6.46526e-06
6.44646e-06
6.53361e-06
6.4263e-06
6.48018e-06
1.57297e-05
1.57024e-05
3.056e-05
1.59129e-05
1.57424e-05
6.69267e-06
6.56999e-06
6.61462e-06
6.52443e-06
3.0526e-05
1.62842e-05
1.59432e-05
1.59365e-05
1.58903e-05
2.78013e-05
9.81732e-06
2.73831e-05
1.00083e-05
3.09611e-05
2.56139e-05
2.96857e-05
3.0983e-05
3.12919e-05
2.57402e-05
2.94058e-05
3.16692e-05
2.57109e-05
2.9688e-05
3.09713e-05
3.13421e-05
2.56005e-05
2.94088e-05
2.75529e-05
1.02751e-05
1.00252e-05
2.81107e-05
2.80246e-05
1.0324e-05
1.01187e-05
2.81537e-05
3.12233e-05
3.07357e-05
2.6258e-05
2.88891e-05
2.56674e-05
2.91348e-05
3.16309e-05
3.17307e-05
3.07026e-05
2.66472e-05
2.89047e-05
2.57857e-05
2.91352e-05
3.19559e-05
1.60278e-05
1.5807e-05
3.0581e-05
1.60494e-05
1.5896e-05
6.43732e-06
6.51368e-06
6.77207e-06
6.66549e-06
3.05229e-05
1.63514e-05
1.59974e-05
1.60881e-05
1.59634e-05
6.63033e-06
6.5461e-06
3.14996e-05
2.50448e-05
2.98525e-05
3.10494e-05
3.13906e-05
2.52535e-05
2.95666e-05
2.69839e-05
9.54672e-06
2.67722e-05
9.71031e-06
3.18028e-05
2.98448e-05
2.49456e-05
3.10185e-05
3.14712e-05
2.95569e-05
2.52098e-05
2.7172e-05
1.00219e-05
9.82269e-06
2.74239e-05
3.19135e-05
3.07712e-05
2.55629e-05
2.9088e-05
2.57226e-05
2.93251e-05
3.22752e-05
2.72636e-05
1.00331e-05
9.82585e-06
2.77338e-05
3.18844e-05
3.07625e-05
2.9076e-05
2.58733e-05
2.93213e-05
2.5284e-05
3.21796e-05
2.70482e-05
9.57639e-06
2.69465e-05
9.68848e-06
3.13989e-05
2.98091e-05
2.48946e-05
3.10594e-05
3.12894e-05
2.95072e-05
2.52003e-05
2.64987e-05
9.48694e-06
2.63813e-05
9.65873e-06
3.17259e-05
3.09217e-05
2.59954e-05
2.90797e-05
2.52925e-05
2.9314e-05
3.20277e-05
2.73024e-05
1.00265e-05
9.81587e-06
2.75586e-05
3.17525e-05
3.07099e-05
2.90089e-05
2.53384e-05
2.92816e-05
2.5086e-05
3.20168e-05
2.67085e-05
9.98199e-06
9.76433e-06
2.69669e-05
1.55457e-05
1.5928e-05
3.05347e-05
1.56901e-05
1.58371e-05
6.52589e-06
6.54169e-06
6.59052e-06
6.48716e-06
3.05349e-05
1.58702e-05
1.60478e-05
1.5656e-05
1.60252e-05
6.67577e-06
6.58863e-06
3.20168e-05
2.97173e-05
2.53107e-05
3.09455e-05
3.16849e-05
2.94312e-05
2.55293e-05
2.78894e-05
9.81544e-06
2.77038e-05
9.94972e-06
2.79631e-05
9.79556e-06
2.76934e-05
9.9869e-06
3.19517e-05
3.07067e-05
2.89133e-05
2.59309e-05
2.91536e-05
2.56891e-05
3.19617e-05
3.20386e-05
3.07036e-05
2.89188e-05
2.60908e-05
2.91715e-05
2.57699e-05
3.20995e-05
2.78405e-05
1.02696e-05
1.00604e-05
2.83698e-05
2.78277e-05
1.03269e-05
1.01185e-05
2.82861e-05
6.37167e-06
6.40504e-06
6.50432e-06
6.55667e-06
3.03949e-05
1.57024e-05
1.6018e-05
1.57565e-05
1.58462e-05
6.54093e-06
6.45985e-06
6.69448e-06
6.59372e-06
6.72502e-06
6.8043e-06
6.67071e-06
6.78099e-06
1.62134e-05
1.6038e-05
3.0489e-05
1.63348e-05
1.62657e-05
6.94553e-06
6.83765e-06
6.95135e-06
6.84768e-06
3.05487e-05
1.66431e-05
1.66338e-05
1.63843e-05
1.6401e-05
2.83452e-05
1.04204e-05
2.81992e-05
1.06264e-05
3.21717e-05
2.63417e-05
2.86868e-05
3.06002e-05
3.17789e-05
2.66919e-05
2.84662e-05
3.21369e-05
2.68036e-05
2.86832e-05
3.05858e-05
3.19927e-05
2.7134e-05
2.85072e-05
2.85344e-05
1.08328e-05
1.0604e-05
2.87118e-05
2.87895e-05
1.08757e-05
1.07153e-05
2.86417e-05
3.21358e-05
3.06373e-05
2.6954e-05
2.81272e-05
2.66116e-05
2.83631e-05
3.19642e-05
3.22319e-05
3.06015e-05
2.73902e-05
2.82975e-05
2.70794e-05
2.83184e-05
3.24009e-05
1.64378e-05
1.6117e-05
3.05413e-05
1.66535e-05
1.62432e-05
6.68495e-06
6.76398e-06
6.99372e-06
6.9408e-06
3.05601e-05
1.69045e-05
1.669e-05
1.67747e-05
1.6382e-05
6.91701e-06
6.8206e-06
3.22632e-05
2.5624e-05
2.8886e-05
3.07264e-05
3.22947e-05
2.59976e-05
2.87237e-05
2.83286e-05
1.01631e-05
2.79307e-05
1.03498e-05
3.22168e-05
2.88758e-05
2.62664e-05
3.06523e-05
3.21286e-05
2.87212e-05
2.61118e-05
2.81821e-05
1.07464e-05
1.05123e-05
2.86959e-05
3.23575e-05
3.07365e-05
2.6653e-05
2.84134e-05
2.62495e-05
2.85465e-05
3.28914e-05
2.83495e-05
1.05997e-05
1.04257e-05
2.87041e-05
3.2549e-05
3.06749e-05
2.85246e-05
2.64266e-05
2.85006e-05
2.61273e-05
3.2615e-05
2.82569e-05
1.01361e-05
2.77716e-05
1.03164e-05
3.21181e-05
2.88547e-05
2.55962e-05
3.06671e-05
3.17914e-05
2.86393e-05
2.62045e-05
2.79039e-05
1.01223e-05
2.71896e-05
1.03189e-05
3.26447e-05
3.07386e-05
2.67586e-05
2.8401e-05
2.65923e-05
2.85542e-05
3.27958e-05
2.84205e-05
1.06122e-05
1.04326e-05
2.85227e-05
3.20327e-05
3.06683e-05
2.84192e-05
2.68739e-05
2.85016e-05
2.64877e-05
3.25749e-05
2.79579e-05
1.06166e-05
1.04265e-05
2.82816e-05
1.60201e-05
1.61674e-05
3.03682e-05
1.61252e-05
1.65252e-05
6.72787e-06
6.8422e-06
6.86071e-06
6.78227e-06
3.0211e-05
1.63934e-05
1.68484e-05
1.62277e-05
1.66766e-05
6.9704e-06
6.89521e-06
3.24394e-05
2.87159e-05
2.62898e-05
3.04174e-05
3.20708e-05
2.85204e-05
2.71381e-05
2.8907e-05
1.03955e-05
2.83752e-05
1.05649e-05
2.87386e-05
1.04597e-05
2.83441e-05
1.06419e-05
3.25417e-05
3.0291e-05