/*--------------------------------*- C++ -*----------------------------------*\
| =========                 |                                                 |
| \\      /  F ield         | OpenFOAM: The Open Source CFD Toolbox           |
|  \\    /   O peration     | Version:  2206                                  |
|   \\  /    A nd           | Website:  www.openfoam.com                      |
|    \\/     M anipulation  |                                                 |
\*---------------------------------------------------------------------------*/
FoamFile
{
    version     2.0;
    format      ascii;
    arch        "LSB;label=32;scalar=64";
    class       volScalarField;
    location    "70";
    object      nut;
}
// * * * * * * * * * * * * * * * * * * * * * * * * * * * * * * * * * * * * * //

dimensions      [0 2 -1 0 0 0 0];

internalField   nonuniform List<scalar> 
66616
(
1.65973e-06
1.68672e-06
1.6865e-06
1.70894e-06
1.6706e-06
1.64141e-06
1.65275e-06
1.67536e-06
1.66677e-06
1.51246e-06
1.52044e-06
1.43225e-06
1.6593e-06
1.46007e-06
1.47732e-06
1.30777e-06
1.6416e-06
1.30328e-06
1.33745e-06
1.1767e-06
1.61133e-06
1.14217e-06
1.17403e-06
1.03411e-06
1.56484e-06
1.01838e-06
1.0345e-06
9.22682e-07
1.5175e-06
9.41569e-07
9.58411e-07
8.54361e-07
1.46872e-06
8.87229e-07
9.03577e-07
8.11665e-07
1.43019e-06
8.50077e-07
8.58436e-07
7.82029e-07
1.41339e-06
8.07404e-07
8.2415e-07
7.51486e-07
1.4107e-06
7.8975e-07
8.05869e-07
7.37109e-07
1.31616e-06
1.66744e-06
1.66753e-06
1.31616e-06
1.66999e-06
1.66743e-06
1.65548e-06
1.65631e-06
1.65621e-06
1.65602e-06
1.67022e-06
1.66607e-06
1.31602e-06
1.67003e-06
1.66809e-06
1.31448e-06
1.71102e-06
1.68924e-06
1.68737e-06
1.68743e-06
1.67658e-06
1.67609e-06
1.71022e-06
1.68881e-06
1.68757e-06
1.68771e-06
1.66955e-06
1.67048e-06
1.68761e-06
1.67186e-06
1.67008e-06
1.71035e-06
1.68832e-06
1.68752e-06
1.67678e-06
1.67594e-06
1.68826e-06
1.67604e-06
1.44177e-06
1.65695e-06
1.6597e-06
1.55006e-06
1.55133e-06
1.67793e-06
1.47496e-06
1.649e-06
1.64873e-06
1.52655e-06
1.52866e-06
1.64672e-06
1.53534e-06
1.52874e-06
1.67651e-06
1.47223e-06
1.65909e-06
1.56199e-06
1.54993e-06
1.47376e-06
1.44111e-06
1.33307e-06
1.55423e-06
1.55272e-06
1.48821e-06
1.48653e-06
1.45447e-06
1.32614e-06
1.53904e-06
1.51858e-06
1.47465e-06
1.468e-06
1.52835e-06
1.48838e-06
1.47644e-06
1.42849e-06
1.32735e-06
1.54032e-06
1.49115e-06
1.49551e-06
1.33817e-06
1.36075e-06
1.18391e-06
1.52414e-06
1.50261e-06
1.38302e-06
1.38195e-06
1.32921e-06
1.18441e-06
1.4862e-06
1.48209e-06
1.35055e-06
1.34756e-06
1.48968e-06
1.35074e-06
1.34861e-06
1.34129e-06
1.18435e-06
1.50622e-06
1.38444e-06
1.38542e-06
1.1849e-06
1.17725e-06
1.02887e-06
1.33741e-06
1.33565e-06
1.21277e-06
1.21105e-06
1.17622e-06
1.02789e-06
1.30493e-06
1.30122e-06
1.18442e-06
1.18121e-06
1.30348e-06
1.18403e-06
1.18296e-06
1.17646e-06
1.02733e-06
1.33917e-06
1.21379e-06
1.21408e-06
1.02921e-06
1.03371e-06
9.22904e-07
1.17296e-06
1.17124e-06
1.06747e-06
1.06882e-06
1.0263e-06
9.19742e-07
1.14386e-06
1.14029e-06
1.05002e-06
1.04641e-06
1.14094e-06
1.05325e-06
1.04695e-06
1.03214e-06
9.21238e-07
1.17431e-06
1.06822e-06
1.06793e-06
9.19431e-07
9.24256e-07
8.46584e-07
1.04427e-06
1.04189e-06
9.81441e-07
9.79028e-07
9.28674e-07
8.47045e-07
1.01592e-06
1.01715e-06
9.58122e-07
9.56404e-07
1.0179e-06
9.63087e-07
9.56495e-07
9.23408e-07
8.36346e-07
1.04346e-06
9.78973e-07
9.78768e-07
8.39844e-07
8.58503e-07
8.00496e-07
9.62005e-07
9.57832e-07
9.20625e-07
9.14722e-07
8.55809e-07
7.98628e-07
9.41903e-07
9.34186e-07
9.02876e-07
8.98635e-07
9.30512e-07
9.05838e-07
8.96597e-07
8.47628e-07
8.04084e-07
9.52547e-07
9.11854e-07
9.13234e-07
7.95494e-07
8.17862e-07
7.74814e-07
9.05968e-07
9.0046e-07
8.75492e-07
8.74314e-07
8.16278e-07
7.76731e-07
8.8184e-07
8.81024e-07
8.58819e-07
8.61194e-07
8.75192e-07
8.61777e-07
8.55863e-07
8.14591e-07
7.71009e-07
9.05032e-07
8.73911e-07
8.73839e-07
7.74452e-07
7.82957e-07
7.53621e-07
8.63754e-07
8.60014e-07
8.3761e-07
8.37687e-07
7.80748e-07
7.52555e-07
8.47712e-07
8.38051e-07
8.27191e-07
8.25917e-07
8.41207e-07
8.27962e-07
8.23373e-07
7.77102e-07
7.56072e-07
8.57587e-07
8.31161e-07
8.37382e-07
7.49364e-07
7.53754e-07
7.47192e-07
8.25249e-07
8.26989e-07
8.08854e-07
8.09771e-07
7.55963e-07
7.4009e-07
8.07049e-07
8.09514e-07
7.99896e-07
8.01892e-07
8.03237e-07
8.0752e-07
8.01548e-07
7.59928e-07
7.48328e-07
8.32061e-07
8.08361e-07
8.14068e-07
7.41294e-07
7.38479e-07
7.99708e-07
7.92047e-07
7.4125e-07
7.89477e-07
7.78012e-07
7.79469e-07
7.34382e-07
8.01843e-07
1.64585e-06
1.65535e-06
1.64814e-06
1.64818e-06
7.32132e-07
1.66555e-06
2.12361e-07
1.6528e-06
7.31872e-07
1.66546e-06
1.65279e-06
2.12473e-07
1.32694e-06
1.62885e-07
1.62794e-07
3.77696e-07
2.61527e-08
3.50962e-07
3.27344e-08
4.01864e-08
2.25792e-08
3.76504e-07
2.61692e-08
3.5125e-07
3.26664e-08
1.65909e-06
1.65917e-06
1.65954e-06
1.66647e-06
1.66805e-06
1.66781e-06
1.66755e-06
1.00992e-06
2.86097e-07
1.68003e-06
1.68793e-06
8.71142e-07
3.45804e-07
1.68422e-06
4.0304e-08
2.25853e-08
1.01757e-06
1.67933e-06
2.85588e-07
1.68866e-06
8.68928e-07
1.68506e-06
3.46519e-07
1.84072e-07
1.83978e-07
1.72073e-06
1.5466e-07
1.54391e-07
2.75995e-07
2.9014e-08
3.15718e-07
2.88443e-08
1.82133e-08
1.77426e-08
2.63913e-07
2.83111e-08
3.07783e-07
2.81767e-08
1.66968e-06
1.67001e-06
1.67028e-06
1.66669e-06
1.66848e-06
1.66824e-06
1.66851e-06
7.87444e-07
2.55028e-07
1.68756e-06
1.61324e-06
9.16937e-07
2.34451e-07
1.6849e-06
1.80576e-08
1.7522e-08
8.33769e-07
1.68998e-06
2.6311e-07
1.62736e-06
9.46931e-07
1.68913e-06
2.40739e-07
1.14124e-07
1.15941e-07
1.58541e-06
1.03634e-07
1.05355e-07
2.05468e-07
2.99993e-08
2.25986e-07
3.05046e-08
1.71759e-08
1.66501e-08
1.96108e-07
2.92278e-08
2.16193e-07
2.95012e-08
1.66628e-06
1.6662e-06
1.66638e-06
1.65988e-06
1.66019e-06
1.6597e-06
1.66099e-06
5.77701e-07
1.96386e-07
1.64714e-06
1.5134e-06
6.5174e-07
1.81802e-07
1.64373e-06
1.69399e-08
1.63516e-08
6.15532e-07
1.65922e-06
2.02017e-07
1.51438e-06
6.87187e-07
1.65586e-06
1.87129e-07
9.33743e-08
9.53067e-08
1.36825e-06
8.92402e-08
9.15861e-08
1.69246e-07
3.07458e-08
1.79233e-07
3.09479e-08
1.60567e-08
1.58821e-08
1.6214e-07
2.97673e-08
1.70465e-07
3.01137e-08
1.6571e-06
1.65658e-06
1.65934e-06
1.64635e-06
1.6472e-06
1.64646e-06
1.64579e-06
4.58024e-07
1.65426e-07
1.61715e-06
1.44353e-06
4.99693e-07
1.62049e-07
1.61314e-06
1.57118e-08
1.53344e-08
4.85739e-07
1.63392e-06
1.69968e-07
1.4781e-06
5.28151e-07
1.62915e-06
1.66118e-07
8.39276e-08
8.73678e-08
1.29127e-06
8.31096e-08
8.65944e-08
1.60553e-07
3.1601e-08
1.61361e-07
3.20182e-08
1.56713e-08
1.57137e-08
1.54358e-07
3.04361e-08
1.54675e-07
3.10096e-08
1.64113e-06
1.64022e-06
1.63886e-06
1.61998e-06
1.62019e-06
1.61744e-06
1.61848e-06
4.04885e-07
1.55965e-07
1.5802e-06
1.26374e-06
4.24106e-07
1.55718e-07
1.57138e-06
1.52028e-08
1.52308e-08
4.27814e-07
1.59292e-06
1.59957e-07
1.29545e-06
4.44446e-07
1.58086e-06
1.597e-07
8.23025e-08
8.45251e-08
1.09424e-06
8.21415e-08
8.46651e-08
1.59382e-07
3.24827e-08
1.57838e-07
3.32984e-08
1.58411e-08
1.60113e-08
1.53473e-07
3.15996e-08
1.51531e-07
3.22953e-08
1.60888e-06
1.60654e-06
1.61189e-06
1.57634e-06
1.57856e-06
1.57484e-06
1.58115e-06
3.82823e-07
1.53731e-07
1.52746e-06
1.10939e-06
3.91729e-07
1.52925e-07
1.51864e-06
1.53698e-08
1.55294e-08
4.05796e-07
1.53635e-06
1.59511e-07
1.13739e-06
4.09566e-07
1.52535e-06
1.5975e-07
8.17464e-08
8.38296e-08
9.67149e-07
8.21167e-08
8.42402e-08
1.63892e-07
3.46251e-08
1.61792e-07
3.53288e-08
1.65177e-08
1.6734e-08
1.57914e-07
3.36296e-08
1.54247e-07
3.44738e-08
1.56607e-06
1.5625e-06
1.56991e-06
1.52977e-06
1.52782e-06
1.52477e-06
1.53034e-06
3.80395e-07
1.56338e-07
1.48337e-06
1.00135e-06
3.80094e-07
1.57722e-07
1.47194e-06
1.60775e-08
1.62745e-08
3.99635e-07
1.48638e-06
1.58648e-07
1.01783e-06
4.01872e-07
1.47558e-06
1.63003e-07
8.25397e-08
8.48114e-08
8.74752e-07
8.49655e-08
8.7159e-08
1.65936e-07
3.64809e-08
1.63323e-07
3.72532e-08
1.70028e-08
1.70757e-08
1.60581e-07
3.59505e-08
1.60538e-07
3.64206e-08
1.51394e-06
1.51022e-06
1.51603e-06
1.48009e-06
1.47999e-06
1.47681e-06
1.4789e-06
3.76242e-07
1.60733e-07
1.34991e-06
9.31014e-07
3.7984e-07
1.63445e-07
1.33367e-06
1.67225e-08
1.68884e-08
3.93682e-07
1.40368e-06
1.66641e-07
9.40931e-07
3.94729e-07
1.37e-06
1.69518e-07
8.61222e-08
8.83262e-08
8.19307e-07
8.79489e-08
8.9345e-08
1.65595e-07
3.76655e-08
1.63962e-07
3.80012e-08
1.70511e-08
1.70094e-08
1.61497e-07
3.64344e-08
1.59738e-07
3.66984e-08
1.46868e-06
1.46443e-06
1.46615e-06
1.43744e-06
1.44212e-06
1.43732e-06
1.43879e-06
3.71678e-07
1.67627e-07
1.24688e-06
8.82092e-07
3.72896e-07
1.69607e-07
1.2403e-06
1.7162e-08
1.71037e-08
3.9129e-07
1.2907e-06
1.70063e-07
8.94377e-07
3.89453e-07
1.26775e-06
1.69709e-07
8.80932e-08
8.97044e-08
7.85228e-07
8.91835e-08
8.92079e-08
1.64458e-07
3.78706e-08
1.65471e-07
3.78126e-08
1.69971e-08
1.69638e-08
1.61758e-07
3.64273e-08
1.59573e-07
3.66014e-08
1.43296e-06
1.42635e-06
1.42928e-06
1.41451e-06
1.41847e-06
1.40989e-06
1.41566e-06
3.70677e-07
1.66936e-07
1.16278e-06
8.42174e-07
3.73391e-07
1.69788e-07
1.16299e-06
1.72018e-08
1.71253e-08
3.89294e-07
1.20419e-06
1.7119e-07
8.51212e-07
3.86098e-07
1.18114e-06
1.70845e-07
8.8432e-08
8.97356e-08
7.61906e-07
8.84624e-08
9.07214e-08
1.65828e-07
3.79397e-08
1.64365e-07
3.78791e-08
1.70238e-08
1.70612e-08
1.59782e-07
3.6466e-08
1.60926e-07
3.66281e-08
1.41659e-06
1.40655e-06
1.41518e-06
1.41061e-06
1.41144e-06
1.40968e-06
1.41229e-06
3.71877e-07
1.69596e-07
1.08652e-06
8.15222e-07
3.71615e-07
1.70853e-07
1.09981e-06
1.72678e-08
1.72646e-08
3.90338e-07
1.12614e-06
1.73171e-07
8.16389e-07
3.86647e-07
1.11353e-06
1.73216e-07
8.77777e-08
9.07916e-08
7.45078e-07
8.82733e-08
9.13245e-08
1.60341e-07
3.7525e-08
1.66492e-07
3.68048e-08
1.72587e-08
1.71204e-08
3.67625e-08
1.60546e-07
1.40921e-06
1.40949e-06
1.41136e-06
3.73128e-07
1.70093e-07
1.02744e-06
8.00657e-07
3.72177e-07
1.712e-07
1.05644e-06
1.74637e-08
3.74984e-07
1.07725e-06
1.72923e-07
3.91149e-07
1.04149e-06
8.86216e-08
9.15118e-08
7.41875e-07
8.90449e-08
9.04649e-08
1.32961e-06
1.62616e-07
1.62617e-07
7.73079e-09
1.14246e-07
7.72117e-09
1.14188e-07
1.26181e-06
1.42868e-07
1.42753e-07
1.72281e-07
1.72292e-07
7.31848e-07
1.6654e-06
2.12481e-07
1.65281e-06
7.32239e-07
1.6654e-06
2.12285e-07
1.65259e-06
3.81114e-07
2.35636e-09
1.18985e-07
2.951e-07
3.8117e-07
2.37727e-09
1.18969e-07
2.94971e-07
7.10214e-07
1.66837e-06
1.90603e-07
1.67285e-06
2.41169e-07
1.65389e-06
7.84162e-07
7.10247e-07
1.66839e-06
1.90317e-07
1.67351e-06
2.41491e-07
1.65397e-06
7.84266e-07
1.32882e-06
1.6294e-07
1.62512e-07
7.71692e-09
1.13954e-07
1.26114e-06
1.42705e-07
1.42853e-07
1.71396e-07
1.72266e-07
7.71746e-09
1.14054e-07
7.3238e-07
1.66547e-06
2.12508e-07
1.65292e-06
7.32411e-07
1.66539e-06
1.65275e-06
2.12342e-07
3.81373e-07
2.35026e-09
1.19155e-07
2.9417e-07
7.09324e-07
1.66847e-06
1.90414e-07
1.67241e-06
2.41146e-07
1.65369e-06
7.82206e-07
3.81309e-07
2.36004e-09
1.1887e-07
2.94611e-07
7.09365e-07
1.66839e-06
1.6724e-06
1.9047e-07
1.65362e-06
2.41464e-07
7.82135e-07
1.64587e-06
1.65525e-06
1.6478e-06
1.64808e-06
1.64571e-06
1.65528e-06
1.64798e-06
1.648e-06
1.64575e-06
1.65534e-06
1.64799e-06
1.64786e-06
1.64492e-06
1.65604e-06
1.64718e-06
1.64713e-06
1.64799e-06
1.648e-06
1.64265e-06
1.64483e-06
1.65614e-06
1.64769e-06
1.64754e-06
1.64804e-06
1.6481e-06
1.64259e-06
1.64501e-06
1.65609e-06
1.64733e-06
1.64758e-06
1.64799e-06
1.64806e-06
1.64292e-06
1.64499e-06
1.65611e-06
1.64745e-06
1.64782e-06
1.64806e-06
1.64819e-06
1.64283e-06
7.32425e-07
1.66546e-06
1.65273e-06
2.12314e-07
7.09373e-07
1.66859e-06
1.90517e-07
1.67246e-06
2.41259e-07
1.65401e-06
7.82086e-07
3.81028e-07
2.35626e-09
1.1887e-07
2.94553e-07
7.09398e-07
1.6684e-06
1.67247e-06
1.90508e-07
1.65339e-06
2.41424e-07
7.82098e-07
3.81099e-07
2.35461e-09
1.19032e-07
2.94525e-07
1.32881e-06
1.62837e-07
1.62528e-07
7.71711e-09
1.13923e-07
1.26115e-06
1.42735e-07
1.4278e-07
1.71413e-07
1.72186e-07
7.72132e-09
1.1401e-07
7.32104e-07
1.66555e-06
1.65252e-06
2.12329e-07
7.1021e-07
1.6687e-06
1.67309e-06
1.90589e-07
1.65394e-06
2.41241e-07
7.84131e-07
7.10163e-07
1.66853e-06
1.67344e-06
1.90547e-07
1.65391e-06
2.41505e-07
7.84376e-07
3.80967e-07
2.36052e-09
1.1898e-07
2.94929e-07
3.81035e-07
2.35933e-09
1.19042e-07
2.94955e-07
1.25974e-06
1.42829e-07
1.42625e-07
1.71418e-07
1.714e-07
7.71882e-09
1.14032e-07
7.72296e-09
1.13933e-07
4.00099e-08
2.2818e-08
4.0056e-08
2.28227e-08
1.84478e-07
1.84343e-07
1.72473e-06
1.54401e-07
1.54367e-07
1.83718e-08
1.97107e-08
1.81447e-08
1.97592e-08
1.72256e-06
1.21631e-07
1.19194e-07
1.44003e-07
1.43904e-07
3.77751e-07
2.5869e-08
3.50925e-07
3.26987e-08
1.01783e-06
2.85742e-07
1.68009e-06
1.68779e-06
8.68894e-07
3.46126e-07
1.68372e-06
1.01812e-06
2.85353e-07
1.67919e-06
1.68769e-06
8.69002e-07
3.4582e-07
1.68461e-06
3.59479e-07
2.92746e-08
3.04149e-08
3.29113e-07
3.59595e-07
2.92379e-08
3.04265e-08
3.29087e-07
1.0075e-06
1.68177e-06
2.79074e-07
1.68939e-06
3.26892e-07
1.68813e-06
9.74834e-07
1.00761e-06
1.68205e-06
2.80161e-07
1.69014e-06
3.26096e-07
1.68716e-06
9.74996e-07
1.84213e-07
1.84654e-07
1.71946e-06
1.53926e-07
1.54469e-07
4.0254e-08
2.27647e-08
1.83374e-08
1.97013e-08
1.72458e-06
1.21144e-07
1.1918e-07
1.43821e-07
1.4408e-07
1.81061e-08
1.97311e-08
1.01009e-06
2.85917e-07
1.68095e-06
1.68732e-06
8.71422e-07
3.45592e-07
1.68293e-06
3.76709e-07
2.61482e-08
3.51386e-07
3.26437e-08
1.01008e-06
1.68087e-06
2.8601e-07
1.68757e-06
8.71429e-07
1.68249e-06
3.4563e-07
3.59959e-07
2.84258e-08
3.04988e-08
3.23161e-07
1.01314e-06
1.69181e-06
2.70745e-07
1.69081e-06
3.26567e-07
1.68946e-06
9.45711e-07
3.60175e-07
2.8455e-08
3.05167e-08
3.23332e-07
1.01364e-06
1.69064e-06
1.68984e-06
2.70553e-07
1.68948e-06
3.26801e-07
9.45735e-07
3.76719e-07
2.61561e-08
3.51303e-07
3.26537e-08
1.01017e-06
1.68069e-06
2.85984e-07
1.6874e-06
8.71405e-07
1.68315e-06
3.45794e-07
3.76689e-07
2.61915e-08
3.51259e-07
3.26617e-08
1.01334e-06
1.68786e-06
2.70472e-07
1.69155e-06
3.26175e-07
1.68868e-06
9.46198e-07
3.60213e-07
2.84183e-08
3.05343e-08
3.23512e-07
1.01375e-06
1.69154e-06
1.69057e-06
2.7055e-07
1.68895e-06
3.26681e-07
9.46218e-07
3.6017e-07
2.84467e-08
3.05243e-08
3.23433e-07
1.84276e-07
1.84634e-07
1.72469e-06
1.54019e-07
1.54525e-07
4.01751e-08
2.27834e-08
1.80971e-08
1.97358e-08
1.72342e-06
1.18735e-07
1.21663e-07
1.43809e-07
1.4398e-07
1.83743e-08
1.96861e-08
1.01774e-06
1.67943e-06
2.85534e-07
1.68771e-06
8.68186e-07
1.68431e-06
3.45964e-07
3.77695e-07
2.60952e-08
3.50903e-07
3.27273e-08
3.77674e-07
2.60926e-08
3.50914e-07
3.27013e-08
1.00724e-06
1.6813e-06
1.69082e-06
2.80191e-07
1.68765e-06
3.25563e-07
9.74348e-07
1.00744e-06
1.68203e-06
1.69031e-06
2.80524e-07
1.68801e-06
3.26777e-07
9.74281e-07
3.59539e-07
2.92819e-08
3.04214e-08
3.28909e-07
3.59543e-07
2.92729e-08
3.04231e-08
3.28854e-07
4.00336e-08
2.28049e-08
3.99793e-08
2.28193e-08
1.72487e-06
1.1943e-07
1.2148e-07
1.43871e-07
1.43742e-07
1.81254e-08
1.97287e-08
1.83833e-08
1.97156e-08
1.81527e-08
1.77253e-08
1.80257e-08
1.75624e-08
1.16101e-07
1.14338e-07
1.58703e-06
1.05979e-07
1.02988e-07
1.71438e-08
1.76311e-08
1.69574e-08
1.74921e-08
1.56805e-06
9.91201e-08
9.53363e-08
1.04264e-07
1.02436e-07
2.75487e-07
2.89915e-08
3.16007e-07
2.87548e-08
8.33884e-07
2.61931e-07
1.69162e-06
1.62425e-06
9.47225e-07
2.40148e-07
1.68575e-06
8.3363e-07
2.63549e-07
1.69116e-06
1.62394e-06
9.47205e-07
2.42137e-07
1.68619e-06
2.63547e-07
2.99002e-08
2.91529e-08
2.34897e-07
2.63859e-07
2.99481e-08
2.90304e-08
2.33236e-07
8.0316e-07
1.59563e-06
2.09739e-07
1.66681e-06
2.32905e-07
1.67748e-06
7.10609e-07
8.03297e-07
1.60021e-06
2.09899e-07
1.66706e-06
2.32816e-07
1.67662e-06
7.10479e-07
1.16483e-07
1.14576e-07
1.59291e-06
1.05671e-07
1.0314e-07
1.80155e-08
1.75282e-08
1.72001e-08
1.76556e-08
1.57698e-06
1.00216e-07
9.55025e-08
1.04877e-07
1.03542e-07
1.69898e-08
1.74893e-08
7.86594e-07
2.55074e-07
1.68962e-06
1.60362e-06
9.17141e-07
2.32918e-07
1.6827e-06
2.64285e-07
2.82093e-08
3.07852e-07
2.80959e-08
7.86516e-07
1.68933e-06
2.54345e-07
1.60756e-06
9.17396e-07
1.68118e-06
2.3506e-07
2.53382e-07
2.92186e-08
2.84343e-08
2.2449e-07
7.6698e-07
1.57765e-06
2.02906e-07
1.65969e-06
2.26218e-07
1.671e-06
6.68239e-07
2.53328e-07
2.91611e-08
2.83936e-08
2.23851e-07
7.67003e-07
1.58227e-06
1.65782e-06
2.02553e-07
1.6697e-06
2.26434e-07
6.6782e-07
2.645e-07
2.82472e-08
3.0799e-07
2.80871e-08
7.87272e-07
1.68904e-06
2.54327e-07
1.60582e-06
9.17459e-07
1.68132e-06
2.31151e-07
2.64372e-07
2.82263e-08
3.08086e-07
2.80817e-08
7.66704e-07
1.57684e-06
2.02884e-07
1.65848e-06
2.26062e-07
1.66723e-06
6.68238e-07
2.53658e-07
2.92053e-08
2.83762e-08
2.23377e-07
7.66864e-07
1.58039e-06
1.65732e-06
2.01917e-07
1.66947e-06
2.25214e-07
6.68074e-07
2.54117e-07
2.91184e-08
2.83611e-08
2.23956e-07
1.14425e-07
1.16093e-07
1.58935e-06
1.0302e-07
1.04976e-07
1.81444e-08
1.77463e-08
1.69597e-08
1.74987e-08
1.57273e-06
9.52234e-08
9.69922e-08
1.03568e-07
1.03491e-07
1.71466e-08
1.75994e-08
8.33231e-07
1.69238e-06
2.62903e-07
1.62327e-06
9.47149e-07
1.68695e-06
2.39959e-07
2.75569e-07
2.89323e-08
3.16201e-07
2.8854e-08
2.74967e-07
2.89633e-08
3.16234e-07
2.87563e-08
8.02453e-07
1.58709e-06
1.66827e-06
2.09257e-07
1.67681e-06
2.32193e-07
7.10922e-07
8.0323e-07
1.59882e-06
1.66865e-06
2.10033e-07
1.67857e-06
2.32192e-07
7.10214e-07
2.64172e-07
2.99826e-08
2.91045e-08
2.339e-07
2.64343e-07
3.00669e-08
2.91974e-08
2.33993e-07
1.79782e-08
1.75192e-08
1.81569e-08
1.7772e-08
1.56597e-06
9.59928e-08
9.78028e-08
1.01064e-07
1.03496e-07
1.68789e-08
1.74156e-08
1.71856e-08
1.76079e-08
1.70315e-08
1.65332e-08
1.68923e-08
1.6339e-08
9.81195e-08
9.53008e-08
1.36641e-06
9.12065e-08
9.01913e-08
1.59539e-08
1.64142e-08
1.57996e-08
1.6284e-08
1.3929e-06
8.75419e-08
8.66314e-08
9.28699e-08
9.1286e-08
2.05413e-07
3.03199e-08
2.26634e-07
3.03835e-08
6.1555e-07
2.02968e-07
1.65932e-06
1.51512e-06
6.87708e-07
1.88446e-07
1.65201e-06
6.15531e-07
2.02388e-07
1.65989e-06
1.51112e-06
6.86385e-07
1.8874e-07
1.65284e-06
1.99439e-07
3.07359e-08
3.07658e-08
1.84678e-07
2.00377e-07
3.08477e-08
3.07469e-08
1.85181e-07
5.97763e-07
1.50506e-06
1.7407e-07
1.63689e-06
1.82966e-07
1.64349e-06
5.42221e-07
5.97438e-07
1.50375e-06
1.74196e-07
1.6385e-06
1.82478e-07
1.6446e-06
5.41903e-07
1.01622e-07
9.75095e-08
1.37081e-06
9.24993e-08
9.03739e-08
1.69267e-08
1.63919e-08
1.60871e-08
1.65624e-08
1.37063e-06
8.97111e-08
8.69269e-08
9.37951e-08
9.36535e-08
1.58476e-08
1.63512e-08
5.77476e-07
1.96383e-07
1.65148e-06
1.50013e-06
6.53092e-07
1.8148e-07
1.64438e-06
1.96776e-07
2.94483e-08
2.1663e-07
2.96099e-08
5.77965e-07
1.64889e-06
1.97188e-07
1.4964e-06
6.5297e-07
1.64144e-06
1.8232e-07
1.89935e-07
2.98425e-08
2.99026e-08
1.76325e-07
5.67535e-07
1.48999e-06
1.6818e-07
1.62983e-06
1.7708e-07
1.63539e-06
5.09222e-07
1.91327e-07
2.96481e-08
2.97706e-08
1.76727e-07
5.6775e-07
1.48701e-06
1.62685e-06
1.69216e-07
1.63298e-06
1.77046e-07
5.09048e-07
1.95388e-07
2.93872e-08
2.16315e-07
2.97913e-08
5.7786e-07
1.64796e-06
1.9544e-07
1.5323e-06
6.53207e-07
1.64068e-06
1.81089e-07
1.95976e-07
2.93537e-08
2.17258e-07
2.97231e-08
5.65863e-07
1.49402e-06
1.6849e-07
1.62621e-06
1.76894e-07
1.63213e-06
5.09398e-07
1.90668e-07
2.98916e-08
2.98691e-08
1.75817e-07
5.66252e-07
1.49412e-06
1.62482e-06
1.67471e-07
1.63223e-06
1.76528e-07
5.08282e-07
1.90598e-07
2.9746e-08
2.98074e-08
1.75487e-07
9.80887e-08
9.65568e-08
1.37682e-06
9.05323e-08
9.25824e-08
1.69713e-08
1.64652e-08
1.57935e-08
1.63395e-08
1.38555e-06
8.62652e-08
8.79524e-08
9.41617e-08
9.52543e-08
1.59893e-08
1.6409e-08
6.16199e-07
1.66211e-06
2.03251e-07
1.52027e-06
6.8679e-07
1.65476e-06
1.87595e-07
2.05413e-07
3.00301e-08
2.26161e-07
3.02438e-08
2.06105e-07
3.0417e-08
2.26133e-07
3.05353e-08
5.97981e-07
1.50152e-06
1.64126e-06
1.71705e-07
1.64572e-06
1.82053e-07
5.43363e-07
5.97989e-07
1.51807e-06
1.64058e-06
1.74228e-07
1.64689e-06
1.83632e-07
5.43852e-07
1.99734e-07
3.06393e-08
3.07644e-08
1.84065e-07
2.00415e-07
3.06843e-08
3.08816e-08
1.8532e-07
1.68035e-08
1.62581e-08
1.70701e-08
1.6503e-08
1.37008e-06
8.58595e-08
8.91541e-08
9.21134e-08
9.5693e-08
1.56981e-08
1.61736e-08
1.60662e-08
1.64115e-08
1.58261e-08
1.56575e-08
1.58023e-08
1.5587e-08
8.99736e-08
8.93847e-08
1.29193e-06
8.82472e-08
8.53594e-08
1.53845e-08
1.5491e-08
1.51858e-08
1.54516e-08
1.28163e-06
8.40221e-08
8.31165e-08
8.57494e-08
8.4958e-08
1.69517e-07
3.12196e-08
1.79721e-07
3.10419e-08
4.85365e-07
1.71138e-07
1.63175e-06
1.4762e-06
5.28562e-07
1.66285e-07
1.62242e-06
4.84959e-07
1.71948e-07
1.63235e-06
1.47649e-06
5.28875e-07
1.67263e-07
1.62373e-06
1.66723e-07
3.15761e-08
3.15548e-08
1.62715e-07
1.67445e-07
3.17815e-08
3.17448e-08
1.64202e-07
4.74082e-07
1.42866e-06
1.6259e-07
1.60202e-06
1.65641e-07
1.61264e-06
4.4828e-07
4.75515e-07
1.42791e-06
1.63858e-07
1.60255e-06
1.65177e-07
1.61339e-06
4.50649e-07
9.19229e-08
8.83996e-08
1.28882e-06
8.82191e-08
8.43435e-08
1.57026e-08
1.54549e-08
1.56812e-08
1.58101e-08
1.28165e-06
8.65923e-08
8.35862e-08
8.90418e-08
8.52404e-08
1.52897e-08
1.53755e-08
4.59499e-07
1.64809e-07
1.62522e-06
1.44339e-06
5.01941e-07
1.61017e-07
1.61601e-06
1.62086e-07
3.03321e-08
1.71977e-07
3.00045e-08
4.56013e-07
1.62287e-06
1.66005e-07
1.44023e-06
5.02436e-07
1.6149e-06
1.61315e-07
1.59469e-07
3.04551e-08
3.0722e-08
1.57586e-07
4.55915e-07
1.39506e-06
1.56764e-07
1.59461e-06
1.58431e-07
1.60541e-06
4.25124e-07
1.60818e-07
3.0319e-08
3.06513e-08
1.57554e-07
4.5153e-07
1.39157e-06
1.59479e-06
1.56303e-07
1.60454e-06
1.59204e-07
4.25365e-07
1.61139e-07
3.01454e-08
1.70979e-07
3.01811e-08
4.54783e-07
1.61912e-06
1.64998e-07
1.44156e-06
5.00279e-07
1.60934e-06
1.60108e-07
1.60402e-07
3.0183e-08
1.7071e-07
2.99273e-08
4.54512e-07
1.39404e-06
1.57487e-07
1.5913e-06
1.59956e-07
1.60037e-06
4.23766e-07
1.58444e-07
3.04015e-08
3.04005e-08
1.55832e-07
4.4873e-07
1.39382e-06
1.58662e-06
1.56428e-07
1.59788e-06
1.58625e-07
4.23138e-07
1.58147e-07
3.04465e-08
3.06937e-08
1.5519e-07
8.715e-08
9.04417e-08
1.29152e-06
8.35363e-08
8.68851e-08
1.58732e-08
1.55793e-08
1.51448e-08
1.52363e-08
1.28178e-06
8.24294e-08
8.53861e-08
8.40173e-08
8.67843e-08
1.55261e-08
1.55345e-08
4.8759e-07
1.63597e-06
1.70649e-07
1.48007e-06
5.29384e-07
1.62687e-06
1.66944e-07
1.70286e-07
3.14143e-08
1.79959e-07
3.09908e-08
1.70727e-07
3.08654e-08
1.80638e-07
3.10386e-08
4.74899e-07
1.42939e-06
1.60685e-06
1.62694e-07
1.61661e-06
1.64943e-07
4.5148e-07
4.76193e-07
1.43147e-06
1.60511e-06
1.62576e-07
1.61595e-06
1.64861e-07
4.50696e-07
1.68456e-07
3.12344e-08
3.11355e-08
1.64726e-07
1.68591e-07
3.17498e-08
3.15245e-08
1.6492e-07
1.55635e-08
1.51903e-08
1.58599e-08
1.56359e-08
1.28098e-06
8.34088e-08
8.56791e-08
8.44152e-08
8.72779e-08
1.51386e-08
1.51593e-08
1.56189e-08
1.55795e-08
1.53991e-08
1.54333e-08
1.51934e-08
1.52797e-08
8.42064e-08
8.2575e-08
1.09535e-06
8.39375e-08
8.29064e-08
1.55111e-08
1.54322e-08
1.53566e-08
1.52929e-08
1.09704e-06
8.40618e-08
8.25096e-08
8.36671e-08
8.23033e-08
1.60679e-07
3.2038e-08
1.62809e-07
3.22549e-08
4.27124e-07
1.61241e-07
1.59257e-06
1.29465e-06
4.46034e-07
1.59684e-07
1.58072e-06
4.24264e-07
1.6254e-07
1.59371e-06
1.29315e-06
4.42372e-07
1.60915e-07
1.58106e-06
1.60182e-07
3.26168e-08
3.21895e-08
1.59211e-07
1.60161e-07
3.26313e-08
3.24961e-08
1.588e-07
4.20095e-07
1.25214e-06
1.59315e-07
1.5542e-06
1.59355e-07
1.56744e-06
4.10059e-07
4.22675e-07
1.25051e-06
1.59458e-07
1.55343e-06
1.60394e-07
1.56747e-06
4.08911e-07
8.58548e-08
8.32861e-08
1.0871e-06
8.53935e-08
8.32143e-08
1.52893e-08
1.5323e-08
1.57988e-08
1.5698e-08
1.09172e-06
8.51535e-08
8.29795e-08
8.47419e-08
8.23579e-08
1.54441e-08
1.5344e-08
4.06598e-07
1.5532e-07
1.58469e-06
1.26429e-06
4.25544e-07
1.54993e-07
1.57375e-06
1.54073e-07
3.09781e-08
1.54912e-07
3.08492e-08
4.0344e-07
1.58578e-06
1.55009e-07
1.26146e-06
4.21641e-07
1.57284e-06
1.54313e-07
1.53815e-07
3.15715e-08
3.14248e-08
1.52893e-07
4.03981e-07
1.22149e-06
1.53079e-07
1.5393e-06
1.53876e-07
1.55518e-06
3.8929e-07
1.5326e-07
3.14543e-08
3.11217e-08
1.52898e-07
4.02517e-07
1.21777e-06
1.5411e-06
1.53162e-07
1.56029e-06
1.52983e-07
3.90914e-07
1.53069e-07
3.09702e-08
1.54498e-07
3.09577e-08
4.03437e-07
1.57596e-06
1.54811e-07
1.26259e-06
4.21222e-07
1.56309e-06
1.53564e-07
1.52973e-07
3.08029e-08
1.53766e-07
3.09998e-08
4.01921e-07
1.21949e-06
1.55336e-07
1.54125e-06
1.54488e-07
1.5588e-06
3.90324e-07
1.53116e-07
3.15023e-08
3.1409e-08
1.53261e-07
4.03077e-07
1.21941e-06
1.53195e-06
1.53678e-07
1.55038e-06
1.53513e-07
3.89156e-07
1.51118e-07
3.13349e-08
3.1508e-08
1.51438e-07
8.25759e-08
8.52757e-08
1.08862e-06
8.25643e-08
8.46334e-08
1.54994e-08
1.55137e-08
1.53265e-08
1.52734e-08
1.08744e-06
8.2186e-08
8.4258e-08
8.19609e-08
8.44485e-08
1.56517e-08
1.55558e-08
4.2998e-07
1.59366e-06
1.61332e-07
1.29638e-06
4.44987e-07
1.58061e-06
1.59831e-07
1.61974e-07
3.18278e-08
1.62619e-07
3.16552e-08
1.61389e-07
3.20441e-08
1.63645e-07
3.18706e-08
4.2712e-07
1.25235e-06
1.55134e-06
1.60103e-07
1.56454e-06
1.5919e-07
4.12823e-07
4.26398e-07
1.25394e-06
1.55301e-06
1.59249e-07
1.56609e-06
1.58934e-07
4.11166e-07
1.60968e-07
3.2572e-08
3.21368e-08
1.61501e-07
1.61797e-07
3.25397e-08
3.24831e-08
1.61602e-07
1.51058e-08
1.51621e-08
1.55419e-08
1.55832e-08
1.09498e-06
8.18718e-08
8.44556e-08
8.19109e-08
8.38756e-08
1.52247e-08
1.5194e-08
1.56885e-08
1.55455e-08
1.55564e-08
1.57994e-08
1.54582e-08
1.56056e-08
8.3556e-08
8.25168e-08
9.7278e-07
8.46065e-08
8.29906e-08
1.62101e-08
1.58839e-08
1.59622e-08
1.57055e-08
9.78485e-07
8.63084e-08
8.37897e-08
8.41922e-08
8.30568e-08
1.61264e-07
3.31168e-08
1.59561e-07
3.3539e-08
3.93836e-07
1.59453e-07
1.54366e-06
1.13793e-06
4.06837e-07
1.59212e-07
1.52625e-06
4.02866e-07
1.5999e-07
1.54258e-06
1.1365e-06
4.07526e-07
1.58338e-07
1.52531e-06
1.59023e-07
3.4677e-08
3.39611e-08
1.62166e-07
1.61767e-07
3.46631e-08
3.41484e-08
1.62408e-07
3.95465e-07
1.09996e-06
1.61131e-07
1.50205e-06
1.57832e-07
1.51295e-06
3.94655e-07
4.01942e-07
1.09756e-06
1.63492e-07
1.50167e-06
1.58538e-07
1.51331e-06
3.98693e-07
8.50659e-08
8.31829e-08
9.73152e-07
8.52781e-08
8.38969e-08
1.54733e-08
1.56788e-08
1.6376e-08
1.60949e-08
9.77704e-07
8.65595e-08
8.42194e-08
8.49872e-08
8.34921e-08
1.59897e-08
1.57714e-08
3.80106e-07
1.52978e-07
1.5306e-06
1.11207e-06
3.89385e-07
1.53602e-07
1.51509e-06
1.5307e-07
3.18442e-08
1.5199e-07
3.23055e-08
3.83747e-07
1.53021e-06
1.52396e-07
1.10795e-06
3.90374e-07
1.5153e-06
1.53352e-07
1.52855e-07
3.35142e-08
3.28093e-08
1.54748e-07
3.85683e-07
1.07228e-06
1.54265e-07
1.49079e-06
1.55227e-07
1.50212e-06
3.82217e-07
1.53378e-07
3.34088e-08
3.28848e-08
1.56511e-07
3.85308e-07
1.069e-06
1.48814e-06
1.5616e-07
1.50462e-06
1.52599e-07
3.81059e-07
1.53414e-07
3.21983e-08
1.52956e-07
3.2197e-08
3.78824e-07
1.5217e-06
1.52175e-07
1.11004e-06
3.88032e-07
1.51009e-06
1.5338e-07
1.5027e-07
3.16356e-08
1.49725e-07
3.21244e-08
3.83321e-07
1.07741e-06
1.56992e-07
1.49302e-06
1.52713e-07
1.50573e-06
3.79218e-07
1.53572e-07
3.33734e-08
3.30683e-08
1.555e-07
3.83646e-07
1.06747e-06
1.48031e-06
1.53001e-07
1.49407e-06
1.51485e-07
3.7907e-07
1.50203e-07
3.33016e-08
3.27459e-08
1.52128e-07
8.17215e-08
8.45741e-08
9.71335e-07
8.2742e-08
8.41727e-08
1.57422e-08
1.58033e-08
1.5904e-08
1.56184e-08
9.78265e-07
8.34322e-08
8.50183e-08
8.186e-08
8.46228e-08
1.61688e-08
1.59416e-08
4.07192e-07
1.54105e-06
1.57415e-07
1.13919e-06
4.11903e-07
1.52861e-06
1.57786e-07
1.61793e-07
3.33497e-08
1.61449e-07
3.33556e-08
1.6223e-07
3.30933e-08
1.61396e-07
3.35216e-08
4.04592e-07
1.10187e-06
1.49657e-06
1.59065e-07
1.50873e-06
1.57908e-07
3.98638e-07
4.05733e-07
1.10109e-06
1.49835e-06
1.59978e-07
1.5118e-06
1.58338e-07
4.00322e-07
1.60717e-07
3.44896e-08
3.42163e-08
1.63676e-07
1.60649e-07
3.47111e-08
3.42163e-08
1.6319e-07
1.53008e-08
1.54243e-08
1.56939e-08
1.58407e-08
9.73666e-07
8.26652e-08
8.47425e-08
8.25073e-08
8.35601e-08
1.58046e-08
1.55429e-08
1.62219e-08
1.5913e-08
1.62932e-08
1.65e-08
1.60764e-08
1.63519e-08
8.54463e-08
8.36267e-08
8.7797e-07
8.65204e-08
8.54364e-08
1.68628e-08
1.65716e-08
1.68129e-08
1.65424e-08
8.89408e-07
8.82109e-08
8.74184e-08
8.63297e-08
8.55065e-08
1.63206e-07
3.52189e-08
1.62054e-07
3.56774e-08
3.95704e-07
1.60911e-07
1.48863e-06
1.02169e-06
3.95453e-07
1.63192e-07
1.47885e-06
3.95306e-07
1.63687e-07
1.48837e-06
1.02026e-06
3.98123e-07
1.65839e-07
1.47982e-06
1.63724e-07
3.65822e-08
3.59942e-08
1.65211e-07
1.6522e-07
3.6568e-08
3.64257e-08
1.64822e-07
3.94478e-07
9.99156e-07
1.64533e-07
1.43865e-06
1.62076e-07
1.47198e-06
3.88237e-07
3.95717e-07
9.96867e-07
1.671e-07
1.44726e-06
1.64857e-07
1.46734e-06
3.93599e-07
8.65304e-08
8.41756e-08
8.79059e-07
8.80936e-08
8.54583e-08
1.61298e-08
1.63549e-08
1.69437e-08
1.68016e-08
8.89059e-07
8.94465e-08
8.78654e-08
8.82866e-08
8.55292e-08
1.67174e-08
1.64725e-08
3.76894e-07
1.53605e-07
1.47611e-06
1.00168e-06
3.83395e-07
1.56328e-07
1.46736e-06
1.59587e-07
3.40431e-08
1.56472e-07
3.45085e-08
3.76338e-07
1.47931e-06
1.57473e-07
9.9651e-07
3.81397e-07
1.47048e-06
1.57007e-07
1.57639e-07
3.59167e-08
3.54303e-08
1.61561e-07
3.78985e-07
9.76626e-07
1.60006e-07
1.38804e-06
1.56893e-07
1.41815e-06
3.79682e-07
1.58587e-07
3.54049e-08
3.49307e-08
1.61619e-07
3.81222e-07
9.71975e-07
1.39492e-06
1.58627e-07
1.41735e-06
1.56154e-07
3.76514e-07
1.59169e-07
3.39628e-08
1.55556e-07
3.4432e-08
3.75065e-07
1.48014e-06
1.53528e-07
9.97606e-07
3.77339e-07
1.46184e-06
1.57651e-07
1.57143e-07
3.40445e-08
1.52258e-07
3.44343e-08
3.82276e-07
9.76809e-07
1.60737e-07
1.38754e-06
1.5902e-07
1.41792e-06
3.78475e-07
1.5897e-07
3.54625e-08
3.50918e-08
1.60586e-07
3.75048e-07
9.7199e-07
1.39012e-06
1.61392e-07
1.41684e-06
1.58395e-07
3.759e-07
1.56354e-07
3.54129e-08
3.49484e-08
1.59206e-07
8.3561e-08
8.51622e-08
8.73913e-07
8.47182e-08
8.74921e-08
1.62776e-08
1.65942e-08
1.65913e-08
1.63843e-08
8.79065e-07
8.61729e-08
8.92537e-08
8.46233e-08
8.78277e-08
1.69101e-08
1.67061e-08
3.98896e-07
1.49008e-06
1.60448e-07
1.01809e-06
3.98955e-07
1.47815e-06
1.65777e-07
1.66452e-07
3.53362e-08
1.63077e-07
3.5482e-08
1.65494e-07
3.56459e-08