/*--------------------------------*- C++ -*----------------------------------*\
| =========                 |                                                 |
| \\      /  F ield         | OpenFOAM: The Open Source CFD Toolbox           |
|  \\    /   O peration     | Version:  2206                                  |
|   \\  /    A nd           | Website:  www.openfoam.com                      |
|    \\/     M anipulation  |                                                 |
\*---------------------------------------------------------------------------*/
FoamFile
{
    version     2.0;
    format      ascii;
    arch        "LSB;label=32;scalar=64";
    class       volScalarField;
    location    "70";
    object      omega;
}
// * * * * * * * * * * * * * * * * * * * * * * * * * * * * * * * * * * * * * //

dimensions      [0 0 -1 0 0 0 0];

internalField   nonuniform List<scalar> 
66616
(
21.5512
21.9484
21.9469
21.9651
20.5342
22.115
21.9145
22.4466
19.7975
23.2429
23.0812
25.3569
19.0945
23.1471
22.8009
25.9557
18.4903
22.7983
22.4465
25.2184
18.0071
22.6175
22.3035
25.2903
17.7249
22.599
22.3087
25.3237
17.574
22.7726
22.4741
25.5186
17.5737
22.9389
22.613
25.5059
17.6019
23.0604
22.7217
25.5879
17.6151
23.189
22.8107
25.7929
17.6572
23.2692
22.9713
25.7044
22.094
21.8828
21.8812
22.0982
21.8824
21.8807
21.7938
21.784
21.7858
21.7882
21.8804
21.8819
22.0941
21.8811
21.8817
22.0981
21.9529
22.2604
21.9449
21.9448
21.7204
21.7224
21.9393
22.2652
21.9411
21.9443
21.849
21.842
21.9472
21.832
21.8521
21.9431
22.2743
21.9425
21.7245
21.7252
22.2782
22.4327
25.336
21.8787
21.8454
22.8498
22.8374
22.4065
24.7889
22.0335
22.0434
23.2299
23.2232
22.0656
23.127
23.2254
22.4277
24.8334
21.8483
22.6849
22.8515
24.7984
25.2046
25.6913
22.6195
22.6398
22.8934
22.9404
24.9927
25.8701
22.8688
23.1856
23.1339
23.2554
23.0269
22.9482
23.1221
25.436
25.8314
22.8014
22.8458
22.7908
25.6175
24.9713
25.2517
22.1709
22.4701
22.4553
22.5993
25.5849
25.3936
22.7415
22.82
22.6764
22.8362
22.4599
22.7884
22.8059
25.3422
25.2635
22.4012
22.4969
22.4683
25.1032
24.7088
24.9623
22.2034
22.2475
22.2321
22.3003
24.8792
25.1614
22.3068
22.4046
22.4718
22.6981
22.3297
22.3292
22.6594
24.7976
25.0038
22.1428
22.2584
22.2928
25.222
24.6241
25.0089
21.98
22.1045
22.2097
22.3638
24.4716
25.2988
22.2314
22.4247
22.5263
22.6152
22.4812
22.4827
22.6689
24.5907
25.0155
21.8571
22.2002
22.2885
25.1973
24.778
25.2202
22.0589
21.9833
22.363
22.5783
25.0183
25.4102
22.3025
22.2194
22.6715
22.8221
22.4331
22.5966
22.8101
24.6503
25.1171
22.0432
22.1203
22.4269
25.0304
24.9793
25.3632
22.1374
22.4173
22.5535
22.7117
25.068
25.3923
22.4485
22.6589
22.8763
22.8853
22.5771
22.7681
22.9633
24.3913
25.1527
21.9326
22.4462
22.632
24.9818
25.0785
25.5265
22.4002
22.4659
22.7881
22.8182
24.9509
25.3418
22.7031
22.6605
23.114
23.0657
22.7443
22.894
23.1761
24.8074
25.2783
22.4426
22.5495
22.7565
25.4251
25.1552
25.5794
22.4779
22.5682
22.868
22.9338
24.5499
25.4699
22.6423
22.4028
23.2657
23.2647
22.973
22.9972
23.318
24.9342
25.2277
22.4175
22.6487
22.8405
25.724
25.1789
25.5097
22.5817
22.6876
22.9792
22.9891
25.0744
25.4191
22.4983
22.9593
23.4432
23.2553
22.9137
22.9203
23.3167
24.7856
25.2991
22.5647
22.8911
23.01
25.5469
25.1901
22.6473
22.5391
24.8526
23.2051
22.8553
22.9801
24.5414
22.6163
22.1661
22.2067
22.1829
22.1822
22.6772
22.2418
33.4132
22.1976
22.6849
22.2425
22.199
33.5067
22.3288
62.4346
62.4582
86.7719
699.732
69.8279
453.006
528.723
567.72
87.255
699.792
69.9633
452.964
21.5566
21.5562
21.5535
20.7839
20.7677
20.7702
20.7735
29.2106
112.996
21.6105
21.8208
25.822
113.728
21.3595
528.083
567.595
29.1043
21.6212
113.036
21.8179
25.8306
21.3476
113.787
199.475
199.605
21.8872
203.624
203.807
125.744
343.745
115.864
320.181
447.998
432.557
130.464
346.022
118.812
322.37
20.5414
20.5388
20.5372
19.9864
19.9697
19.9729
19.9705
46.2444
132.14
20.79
22.3644
39.2517
128.848
20.6549
449.759
434.249
43.297
20.6952
128.88
22.125
37.2383
20.5326
127.069
206.145
204.405
23.5167
197.671
196.758
123.573
306.606
125.819
304.206
423.911
422.293
123.376
309.543
130.456
306.905
19.7994
19.8031
19.8026
19.2828
19.2831
19.2887
19.2752
50.2961
122.092
20.5549
23.022
51.6465
115.39
20.3949
425.815
424.5
47.8812
20.3371
120.14
22.9524
48.6824
20.1808
115.89
191.817
190.728
25.9284
189.102
186.983
120.865
302.565
122.1
301.005
419.236
417.998
125.18
304.95
127.346
303.307
19.1172
19.122
19.0966
18.6394
18.6308
18.6382
18.6493
47.4954
115.711
20.0852
22.872
49.109
114.002
19.9154
421.243
420.054
45.4549
19.8185
113.387
22.2469
46.5656
19.6659
111.504
187.858
184.956
25.5332
186.599
184.298
120.294
300.37
121.422
299.544
416.407
415.414
124.815
302.866
126.132
301.881
18.4913
18.4995
18.5229
18.1179
18.113
18.1429
18.1351
46.6939
114.051
19.6728
22.4505
46.8775
113.7
19.5635
417.779
416.977
44.3921
19.4579
111.839
22.213
44.6374
19.3934
110.635
186.377
183.368
25.1801
185.492
183.384
119.325
299.232
120.223
298.414
414.201
413.736
124.678
301.693
125.335
301.009
18.0283
18.054
17.9985
17.7936
17.7659
17.8017
17.7363
46.5007
113.726
19.5322
22.2967
46.309
113.27
19.4618
415.798
415.087
43.8731
19.3347
110.904
22.0291
44.3013
19.2885
110.33
186.502
183.4
25.2165
185.183
183.108
120.002
298.101
120.86
297.635
413.141
412.723
124.039
301.081
124.66
300.329
17.7067
17.7371
17.6685
17.5955
17.6132
17.6377
17.5834
46.9403
113.583
19.4669
22.3242
46.4712
112.622
19.462
414.167
413.905
43.9152
19.3023
110.254
21.8762
44.35
19.3231
110.341
184.701
183.299
25.2386
184.537
182.366
119.432
297.983
120.313
297.138
412.043
411.864
124.098
299.929
125.426
299.739
17.6041
17.6308
17.5759
17.5758
17.5632
17.5864
17.5689
46.7716
113.326
19.6093
22.5082
47.0656
112.859
19.5865
413.246
412.998
44.4811
19.3911
111.056
22.0392
44.6049
19.3428
110.489
184.884
183.775
25.4586
184.515
182.557
118.948
297.57
120.447
296.613
411.162
411.081
124.038
299.683
124.91
299.25
17.5619
17.5937
17.5808
17.6156
17.5548
17.5915
17.5756
47.1543
113.97
19.7228
22.5632
46.8653
113.416
19.6348
412.537
413.413
44.3569
19.491
110.612
22.2861
44.4328
19.4401
110.671
183.455
183.245
25.5102
184.225
181.991
119.466
297.147
119.812
296.652
410.71
411.554
124.886
299.435
126.095
298.708
17.5713
17.619
17.592
17.6153
17.5822
17.6186
17.5975
47.0782
113.291
19.844
22.6611
46.9751
113.35
19.7842
412.268
411.965
44.5897
19.5857
110.952
22.3776
45.4659
19.5257
110.441
185.251
182.257
25.5792
184.077
182.325
119.592
296.937
119.478
296.462
411.357
410.385
124.29
299.169
124.92
298.946
17.5915
17.6204
17.592
17.6556
17.6126
17.6347
17.6178
47.1362
113.46
19.9747
22.8821
47.4516
113.212
19.7924
411.623
411.747
44.4694
19.6759
110.371
22.4269
44.9647
19.5881
110.294
184.78
182.577
25.6182
184.315
182.39
123.23
296.669
120
297.491
410.801
411.281
298.831
123.745
17.6046
17.629
17.6154
46.9563
113.591
20.0163
22.9551
47.3745
112.736
19.7942
411.372
46.3919
19.5483
110.38
45.0516
19.9827
185.029
182.702
25.6455
184.194
183.39
22.3262
63.9418
63.3945
1109.06
258.347
1109.31
260.061
22.326
255.353
255.572
69.6648
69.2518
22.6863
22.2423
33.5693
22.1987
22.6236
22.243
33.6924
22.2003
26.8477
1716.66
158.617
74.8574
26.4321
1715.06
155.863
75.0579
22.9379
22.1808
188.87
21.8857
37.1424
22.1213
25.2564
23.2148
22.1812
190.485
21.8773
36.694
22.119
25.2959
22.3275
64.6095
62.0756
1110.46
260.326
22.3255
255.482
255.416
69.566
68.4926
1109.64
260.39
22.6266
22.2422
33.5382
22.1974
22.6276
22.2419
22.1994
33.209
26.3933
1716.61
154.225
75.0689
23.1987
22.1801
189.022
21.8935
36.1257
22.1238
25.2858
26.3715
1717.27
159.579
75.0409
23.2
22.1802
21.8929
188.96
22.1245
36.4127
25.2917
22.1671
22.2073
22.1854
22.1837
22.1692
22.2068
22.1833
22.1834
22.1686
22.207
22.1842
22.1865
22.05
22.103
21.7617
21.7601
22.0796
22.0788
21.7172
22.0521
22.101
21.7548
21.7557
22.0776
22.0781
21.718
22.0496
22.1018
21.7567
21.7584
22.0776
22.0786
21.7137
22.0498
22.1025
21.7557
21.7557
22.0777
22.078
21.7148
22.6247
22.2425
22.1987
33.1166
22.9454
22.1792
188.833
21.8937
36.4767
22.1217
25.2785
26.8331
1717.38
156.199
75.1029
23.201
22.1814
21.8925
188.691
22.1245
36.5174
25.3285
26.3963
1717.61
159.117
75.0998
22.3279
62.4432
64.3926
1109.56
260.118
22.3251
255.488
255.473
67.8634
70.0656
1109.55
260.875
22.625
22.2428
22.2014
33.1436
22.9467
22.18
21.8855
188.84
22.119
37.4478
25.2805
23.2059
22.1809
21.8799
188.738
22.1202
36.2304
25.3392
26.8664
1717.33
158.607
75.1376
26.4018
1717.19
158.584
75.0959
22.3254
255.359
255.612
68.0912
67.8345
1109.88
259.938
1109.83
259.968
530.942
564.092
530.912
564.129
199.172
199.27
21.8354
203.795
203.916
457.726
542.018
459.136
542.162
21.8652
205.083
207.206
206.843
207.04
86.8791
705.525
68.9302
453.294
29.2265
112.945
21.6138
21.8243
25.7654
113.791
21.3598
29.2269
112.812
21.6241
21.8232
25.7129
114.042
21.3484
96.2569
355.06
425.766
112.221
95.6738
355.116
425.61
113.078
30.9539
21.7862
126.086
20.8786
118.757
21.1182
36.3762
30.9873
21.7845
125.387
20.8688
118.912
21.1294
36.2589
199.392
199.038
21.8876
204.215
203.686
528.44
564.437
457.819
541.417
21.839
205.472
207.054
207.062
206.846
459.079
542.216
29.173
112.825
21.6025
21.8222
25.7029
113.825
21.3733
87.4659
700.391
68.9041
453.219
29.3378
21.604
112.657
21.8213
25.7086
21.3771
113.827
95.292
357.274
425.827
115.925
31.0073
21.6685
128.668
20.9185
119.067
21.1026
37.7031
95.0735
357.233
425.57
115.706
30.871
21.6857
20.9283
128.836
21.101
118.945
37.6775
87.4699
700.054
68.8871
453.125
29.3707
21.6059
112.941
21.8255
25.7027
21.3701
113.774
87.3872
699.343
68.9764
453.009
30.9729
21.7055
128.766
20.9129
119.227
21.1083
37.9255
94.9331
357.376
425.57
115.857
30.7998
21.6755
20.9211
128.79
21.1071
119.003
37.8443
94.9358
357.188
425.542
115.734
199.374
199.015
21.8223
204.181
203.743
528.633
564.467
459.107
541.466
21.8547
207.551
205.101
207.093
206.931
457.801
542.215
29.3423
21.6218
112.693
21.8242
25.7112
21.3552
113.733
86.8558
700.4
68.9433
453.213
87.5214
700.508
68.9987
453.085
31.1289
21.7828
20.8687
125.529
21.1253
119.137
36.3626
30.9394
21.7856
20.8725
125.429
21.1233
118.757
36.316
96.0133
355.211
425.553
112.693
95.3794
354.99
425.529
113.339
530.48
563.999
530.69
564.153
21.8387
206.971
205.348
206.938
207.147
459.067
541.985
457.96
542.081
448.873
432.486
450.687
434.156
204.316
206.299
23.4913
195.063
198.785
425.409
430.409
427.351
432.389
23.7043
186.866
191.666
193.336
194.928
126.633
344.127
115.019
320.848
42.8297
129.446
20.673
22.16
37.2497
127.023
20.5651
43.1005
128.846
20.6778
22.1624
37.3103
126.034
20.5591
125.145
306.998
314.218
122.767
126.104
307.342
315.368
125.436
43.9554
22.4173
117.742
20.4297
122.553
20.4902
47.8955
44.4831
22.3555
119.574
20.426
122.9
20.4993
48.1646
203.793
205.973
23.4063
195.721
198.231
450.545
434.271
425.085
430.376
23.5665
185.054
191.315
192.552
193.516
426.724
432.353
45.7298
132.266
20.7697
22.4807
39.2354
129.462
20.6782
130.936
346.754
119.263
322.952
46.5786
20.7709
132.397
22.437
39.3571
20.6942
127.456
126.012
309.301
317.112
127.348
47.0502
22.7152
120.112
20.5945
122.777
20.6488
49.332
129.281
308.845
317.282
127.208
46.7808
22.6557
20.6148
118.706
20.661
125.595
50.5797
130.729
346.609
118.976
323.271
46.6757
20.7744
132.401
22.4677
39.2113
20.6945
130.108
130.219
346.724
118.462
323.095
49.0246
22.7013
120.006
20.6121
127.451
20.6906
51.5985
130.522
309.239
317.288
131.434
47.661
22.6742
20.6224
122.532
20.6642
128.551
50.7418
128.496
309.089
317.154
130.944
206.103
204.355
23.4582
198.075
197.109
448.949
432.626
427.142
432.132
23.6291
191.521
190.377
193.424
194.004
425.344
430.67
43.3819
20.669
129.06
22.1705
37.3465
20.5572
127.357
125.888
344.239
115.018
320.295
126.235
344.341
115.253
320.918
44.7322
22.5052
20.4213
121.011
20.5025
124.666
47.2277
45.0511
22.3616
20.415
112.803
20.4831
123.283
47.9948
125.701
305.98
315.215
126.26
122.047
305.596
314.635
126.05
450.505
434.256
448.963
432.771
23.7213
190.194
188.951
196.858
193.906
426.856
432.575
424.974
430.693
424.754
422.694
426.573
424.268
185.858
189.357
25.943
187.85
188.797
420.33
421.723
421.856
423.64
25.265
185.28
187.181
183.059
185.309
123.253
304.317
117.809
304.49
47.9654
115.096
20.3314
22.9534
46.0284
113.712
20.2178
46.9625
114.986
20.3224
23.0251
47.7411
114.473
20.2075
120.652
302.539
301.862
121.013
115.242
302.032
301.94
123.389
46.281
22.9132
111.439
19.9849
112.529
20.1196
46.502
46.5522
22.9229
112.468
19.9658
111.265
20.1044
46.5361
181.132
185.712
25.9054
187.074
188.544
426.078
424.007
420.095
421.49
25.7059
184.174
186.175
183
182.029
421.644
423.576
49.6992
119.524
20.5061
23.2103
50.2429
116.648
20.3863
126.191
308.299
123.963
306.639
49.5867
20.5343
113.419
23.2804
48.7859
20.4184
115.872
125.502
304.901
304.471
123.208
47.1166
23.1579
114.992
20.1423
111.427
20.2938
48.2023
122.295
305.523
305.666
125.877
47.2416
23.2188
20.1736
113.096
20.3182
115.548
48.6311
128.888
308.61
125.468
304.989
50.7317
20.5459
119.69
22.7439
49.7291
20.4266
118.305
129.321
308.651
123.656
305.318
47.5238
23.0816
115.433
20.1868
114.131
20.3288
49.1575
120.276
304.994
305.261
127.215
49.3129
23.1317
20.1974
115.044
20.3273
114.895
49.1171
125.252
304.487
305.433
126.67
184.565
187.55
25.7746
188.31
185.113
424.949
422.479
422.025
423.528
25.4159
188.107
185.834
181.273
179.83
420.112
422.005
47.525
20.3049
115.182
22.8658
46.9173
20.1944
114.281
124.053
304.459
120.495
304.184
122.325
304.699
119.161
303.877
44.5268
22.9099
19.9431
109.726
20.0976
112.06
46.4218
45.6854
22.6886
19.9524
113.894
20.0872
111.294
46.4097
119.164
302.062
301.277
121.788
117.443
302.572
300.971
120.803
426.241
424.068
424.657
422.494
25.6833
187.572
183.85
182.745
179.042
421.061
423.657
419.756
422.012
419.713
418.163
421.119
419.86
180.537
179.523
25.5781
181.191
186.81
417.022
418.077
418.846
419.814
25.1495
184.082
185.882
183.561
184.289
121.431
299.378
120.754
300.367
46.2268
106.664
19.8388
22.4646
45.3229
111.64
19.7367
45.9332
109.332
19.8307
22.3166
43.9761
111.102
19.7203
117.419
299.75
298.276
120.409
116.627
299.926
295.619
120.319
44.7545
22.2119
111.204
19.5518
107.428
19.6423
44.1938
44.4059
22.617
109.374
19.5439
105.103
19.6337
43.6918
177.422
182.725
25.655
183.403
186.788
421.169
420.088
416.878
417.392
25.1402
183.139
185.869
175.495
181.916
418.194
419.498
47.2338
111.183
19.9927
22.7288
46.0236
114.32
19.8846
124
300.68
120.238
304.073
47.8527
20.0152
108.518
22.8542
45.3936
19.8927
110.434
118.749
302.589
299.733
120.761
44.7085
22.6501
113.416
19.7145
112.006
19.8052
46.8533
115.807
302.654
299.652
119.136
45.4707
22.7937
19.7055
113.679
19.811
112.215
46.8339
125.349
302.681
124.102
303.025
48.0345
20.0598
108.472
22.7835
47.3336
19.9579
115.8
125.595
301.686
122.238
304.26
43.48
22.8271
112.747
19.7464
109.459
19.8593
46.5119
122.316
303.228
301.966
123.824
45.6285
22.5486
19.799
114.347
19.8878
107.037
47.4272
116.29
302.511
299.041
125.538
184.628
178.846
25.5546
186.446
183.371
419.752
418.184
418.62
419.485
25.0514
185.784
182.665
182.742
179.739
416.477
418.012
45.4887
19.7997
110.243
22.1822
43.7453
19.6971
111.858
120.531
297.866
114.398
300.993
120.4
300.536
116.959
300.964
43.1957
22.4803
19.5072
111.337
19.6021
103.891
44.1885
43.8629
22.47
19.5305
110.634
19.6174
108.57
44.7315
114.914
300.365
299.658
119.349
116.859
299.545
298.114
119.983
421.15
420.032
419.346
418.578
24.5995
184.468
182.067
179.074
176.313
418.069
419.664
416.102
417.999
416.293
415.397
418.556
416.783
175.273
179.504
25.0225
183.141
184.551
414.26
415.482
415.804
416.953
24.6095
181.186
183.84
177.405
178.084
119.699
298.052
117.187
299.352
45.0947
106.668
19.4528
22.1988
42.225
109.703
19.3805
44.9517
103.74
19.4397
22.034
44.681
109.844
19.3749
111.518
297.1
297.967
118.833
114.669
298.623
297.366
119.186
43.4784
22.1853
108.324
19.2932
103.479
19.3337
44.6506
41.4422
22.2112
109.879
19.3027
100.221
19.3349
44.7315
179.531
183.095
25.1254
182.234
184.605
418.199
417.13
414.291
415.37
24.7906
181.811
184.101
177.113
182.125
415.951
417.264
46.6154
106.943
19.6288
22.3803
45.0314
112.632
19.545
123.971
299.467
122.172
301.986
46.5458
19.609
106.711
22.2911
44.8553
19.5478
114.518
115.17
299.383
298.748
119.872
45.0448
22.3927
112.662
19.5744
108.184
19.5853
46.4963
116.753
301.277
299.931
123.272
44.5515
22.6638
19.5442
113.24
19.5157
110.317
46.5287
123.535
299.569
119.925
301.755
47.1008
19.72
105.693
22.6414
45.3435
19.6569
114.051
125.18
300.945
116.099
301.545
45.1401
22.3543
113.054
19.5388
111.477
19.5237
45.9457
114.772
301.527
299.742
124.507
45.4968
22.377
19.6401
113.33
19.6188
111.444
46.8691
121.205
301.314
297.773
124.307
177.699
177.639
25.0816
185.359
182.491
416.629
415.726
415.923
416.696
24.6615
184.499
181.875
181.941
174.75
414.477
415.444
44.2499
19.4555
105.245
21.9487
43.1373
19.4
110.005
119.077
297.549
113.358
299.603
119.05
296.796
117.516
299.007
42.6672
22.0251
19.3443
105.749
19.379
103.589
43.9065
42.9534
22.251
19.3279
109.169
19.3681
104.362
44.1937
109.764
298.719
297.183
120.092
116.879
298.715
295.503
119.842
418.123
416.982
416.363
415.655
24.6024
181.998
178.632
179.76
180.768
415.854
417.16
413.8
415.892
414.392
413.535
415.721
415.247
175.47
178.86
24.9545
181.617
183.836
412.87
413.625
414.394
415.423
24.624
180.837
184.578
175.485
175.73
119.346
296.446
111.084
298.407
44.5598
102.639
19.2308
21.9033
43.9618
108.937
19.2667
44.1944
107.111
19.2457
21.9811
43.7162
109.751
19.2806
111.076
296.309
295.197
119.985
111.768
297.839
296.315
119.196
42.5721
21.9252
108.332
19.2332
102.882
19.257
44.1749
43.1626
22.2229
109.954
19.2484
104.799
19.2526
44.3302
177.272
176.303
25.1607
182.319
184.692
416.027
415.444
413.535
414.138
24.5043
182.565
184.098
179.172
181.883
414.662
415.062
47.0358
108.739
19.5038
22.3542
43.5645
112.233
19.5147
123.262
299.794
117.26
300.578
46.8008
19.5038
107.609
22.3065
43.5304
19.5056
111.956
121.369
299.034
299.387
123.314
43.8332
22.4075
112.95
19.5118
104.217
19.5224
47.1367
113.227
300.313
298.796
124.074
43.0372
22.302
19.5384
111.559
19.4875
106.556
47.07
123.802
297.419
115.517
300.913
46.1673
19.5894
110.775
22.5373
44.0252
19.54
112.543
122.871
299.882
118.071
300.666
45.3998
22.1762
112.884
19.4772
109.983
19.4683
44.5582
120.395
300.434
296.836
123.316
43.6078
22.5777
19.5965
112.087
19.5985
110.042
46.3999
117.26
299.745
298.185
122.905
179.333
178.133
24.9665
183.584
181.431
414.547
413.943
414.393
415.353
24.6507
183.177
181.152
177.843
175.151
412.879
413.298
43.7368
19.2838
103.745
22.2032
42.2719
19.2536
109.023
118.65
294.319
115.84
298.292
118.735
295.998
116.196
297.925
42.194
22.127
19.3197
108.883
19.3233
101.529
44.0704
41.7255
22.1036
19.3004
109.226
19.2959
104.526
43.7567
113.723
297.761
294.023
118.503
110.403
297.509
295.722
119.572
416.427
415.257
414.448
413.912
24.9933
183.501
182.764
176.928
180.863
413.862
415.614
412.682
414.362
412.749
412.383
414.937
414.692
175.607
177.159
25.1478
180.552
184.345
411.883
412.612
413.453
413.948
24.9127
180.437
183.429
175.208
179.157
119.112
295.876
113.175
297.847
45.0883
103.054
19.2706
22.1729
42.1325
109.036
19.2488
44.2481
101.451
19.2715
22.4096
42.1628
111.254
19.264
117.417
296.123
294.604
119.234
114.574
297.41
294.168
119.313
43.9098
22.2077
108.408
19.299
103.061
19.2687
44.7059
42.8239
22.2091
110.064
19.3307
108.473
19.2991
44.7959
179.679
180.7
25.326
182.236
183.486
414.448
413.574
412.764
413.102
25.0618
183.154
183.12
176.147
178.332
413.761
414.059
46.7981
108.972
19.569
22.4392
46.078
112.279
19.5751
123.77
298.536
114.28
299.92
46.6354
19.5198
106.231
22.652
46.0112
19.5319
111.567
120.191
299.203
296.704
119.99
43.9625
22.5028
111.624
19.6402
106.2
19.5585
46.6337
114.083
299.384
298.467
124.203
45.8741
22.4284
19.6469
111.417
19.6165
106.403
46.8652
123.82
298.446
112.932
299.617
46.3391
19.4946
103.96
22.5777
44.0252
19.5912
113.254
122.821
297.325
117.452
299.671
45.6673
22.4871
112.499
19.5226
106.556
19.5018
45.0277
120.436
299.252
297.294
122.725
44.3443
22.6415
19.6511
113.02
19.5589
104.12
46.5309
117.345
299.796
298.342
122.929
177.952
175.882
24.9506
182.967
181.445
413.32
412.325
413.514
413.95
24.196
183.309
181.388
178.513
172.124
412.203
412.735
43.6998
19.2714
104.94
21.9002
41.902
19.2947
109.192
118.718
294.189
108.119
297.753
118.624
293.435
109.809
297.557
42.2898
22.2564
19.3569
105.755
19.3091
107.997
44.1364
40.4311
22.3133
19.3353
109.124
19.3165
106.832
44.5254
115.393
297.186
296.651
118.157
109.403
296.86
296.175
119.315
415.012
414.3
413.155
413.021
24.7738
183.65
179.369
182.313
179.57
413.219
414.967
411.921
412.798
412.474
411.391
413.387
413.313
173.403
178.088
25.2089
180.681
183.264
411.21
411.543
413.266
413.885
24.4408
180.704
183.316
176.318
178.614
118.396
295.588
111.921
297.337
44.6756
103.008
19.3657
22.3055
43.7968
109.001
19.3769
44.7946
107.845
19.3363
22.5492
43.6582
110.12
19.3891
117.224
297.404
293.646
119.39
111.148
296.822
295.244
119.358
41.7794
22.3684
108.527
19.458
103.052
19.434
45.1478
44.0107
22.5597
110.555
19.4741
108.299
19.4167
45.2612
176.538
174.674
25.3849
182.46
184.58
413.28
413.724
412.118
412.605
24.8358
182.576
183.296
180.335
182.073
412.58
413.364
46.4784
107.359
19.6351
22.619
43.9343
112.324
19.6225
123.509
295.456
119.958
299.561
46.7385
19.6199
102.072
22.4641
45.1319
19.5968
112.994
117.249
299.121
298.665
124.209
44.119
22.6866
112.742
19.7662
109.07
19.6405
47.033
117.584
299.195
295.589
123.382
44.3849
22.6089
19.7503
112.054
19.6771
110.161
47.0876
123.197
296.859
119.742
298.928
46.581
19.6282
109.68
22.7514
43.9225
19.6711
112.31
123.092
298.691
117.502
299.313
44.2608
22.6688
108.774
19.6636
105.805
19.6359
44.6832
120.263
299.084
295.318
123.061
44.3059
22.7936
19.734
112.478
19.6986
109.995
46.7416
117.585
299.309
295.896
123.018
175.009
178.568
25.2175
184.322
180.833
412.137
412.069
412.66
413.668
24.9157
183.526
180.816
180.779
178.695
410.948
411.75
44.1711
19.3237
106.826
22.3665
42.9204
19.3688
109.346
118.283
295.947
114.59
296.866
118.666
293.304
110.966
297.098
43.4535
22.4791
19.4521
109.295
19.4415
107.605
42.8486
42.2003
22.2141
19.4322
110.244
19.3962
101.465
44.2218
110.069
296.65
295.648
117.97
115.713
296.528
295.768
119.117
413.914
413.126
412.227
411.848
24.8314
181.809
182.635
177.611
175.375
412.331
413.633
411.163
412.357
411.323
410.904
413.571
412.439
177.042
178.54
25.4444
180.949
183.272
410.755
411.053
413.145
412.882
24.5982
180.92
183.237
177.142
177.876
118.436
294.34
114.483
296.406
44.8267
103.656
19.421
22.5548
43.7474
108.805
19.5511
44.799
104.041
19.4486
22.6065
41.5383
109.871
19.5051
113.31
296.795
293.467
114.354
115.36
296.637
293.27
118.262
43.0344
22.6518
109.281
19.5744
104.478
19.5486
44.4754
43.6815
22.6923
109.244
19.5787
103.143
19.543
44.5081
174.883
175.701
25.3644
182.261
183.896
413.225
412.603
411.535
411.287
24.937
181.773
183.637
175.035
175.335
411.991
413.072
46.7676
106.528
19.7542
22.8629
44.1166
113.559
19.7312
123.4
295.745
119.193
298.718
47.1628
19.727
103.914
22.8376
43.1133
19.7251
113.435
120.539
299.177
296.4
120.829
43.1113
22.973
112.005
19.8825
107.515
19.7417
47.5913
120.288
299.049
296.895
123.235
46.1789
22.8816
19.8944
111.993
19.7539
106.557
47.2942
122.642
297.835
116.574
298.831
46.6753
19.6157
110.441
22.6524
44.2254
19.7766
113.109
123.809
297.982
113.207
298.793
45.8402
22.4607
111.987
19.7723
104.363
19.683
46.2424
116.514
299.005
297.608
123.958
42.8413
22.8641
19.8074
112.23
19.8269
107.545
47.4508
114.733
298.598
297.677
124.294
175.082
173.204
25.163
184.658
181.576
411.995
411.565
412.266
412.516
24.3388
184.128
180.708
177.729
174.259
410.958
411.14
44.3195
19.3484
107.094
22.5774
42.7493
19.476
109.707
117.965
295.045
111.57
296.694
118.693
295.151
115.8
296.716
41.3171
22.4525
19.5258
105.516
19.4938
103.137
45.2945
42.7716
22.5977
19.5616
109.004
19.4518
104.174
44.4924
112.072
297.216
295.904
118.273
108.444
296.372
292.907
119.259
413.187
412.656
411.846
411.082
24.7242
184.834
180.86
177.516
174.553
412.155
413.265
410.334
411.566
410.845
410.59
412.357
412.116
178.655
177.658
25.3814
180.865
183.705
410.187
411.175
411.905
412.431
24.603
180.918
183.37
178.293
177.596
118.45
294.597
114.809
296.556
44.4949
103.926
19.5064
22.642
42.4685
109.799
19.4914
44.6919
103.679
19.4504
22.4368
43.8788
110.055
19.6121
110.278
295.196
294.102
117.974
113.851
296.652
295.296
118.664
42.3659
22.6894
110.092
19.6412
100.191
19.5566
44.3568
41.0695
22.4087
109.248
19.6387
103.816
19.6299
44.7747
177.462
179.751
25.4157
182.015
183.154
412.678
412.086
410.498
410.395
24.5496
181.696
182.784
172.785
177.735
411.631
412.744
47.0782
104.003
19.8575
22.3989
46.1821
113.887
19.8002
124.124
295.849
114.488
298.605
47.3252
19.8476
106.173
22.9963
45.5364
19.7862
112.525
121.595
298.802
296.885
119.467
43.68
23.1156
113.257
19.9797
108.305
19.8111
47.505
114.55
298.236
296.383
124.313
45.9934
22.7333
20.0051
111.758
19.9876
105.522
47.2791
123.189
296.205
114.855
298.557
47.1373
19.8619
106.801
22.7314
43.2895
19.8019
112.191
123.658
296.467
114.1
298.91
45.418
22.8763
112.565
19.7824
106.87
19.795
45.5718
119.172
298.541
297.079
123.034
43.0654
23.137
19.9513
112.149
19.7986
107.074
47.1787
120.198
298.323
296.168
122.797
179.12
175.506
25.2086
183.375
180.714
411.652
410.161
411.575
412.016
24.5591
182.652
180.39
176.942
175.39
409.865
411.532
44.4321
19.5521
104.867
22.6026
43.5819
19.5067
109.64
118.547
296.074
113.378
296.699
118.364
295.118
116.312
296.124
42.803
22.5513
19.6286
109.063
19.5917
101.471
42.9717
41.3359
22.6539
19.6516
109.334
19.5148
105.839
45.0769
113.21
296.549
295.689
118.167
110.157
296.075
293.406
119.614
412.911
412.149
411.841
410.73
24.7937
183.664
181.392
179.936
180.073
411.586
412.954
409.937
411.499
411.362
410.115
412.173
412.945
178.523
177.894
25.4501
180.684
183.814
410.192
410.411
411.647
411.536
25.076
181.673
183.763
173.316
174.524
119.12
295.058
108.994
296.394
44.8323
102.541
19.4646
22.7425
40.9949
110.083
19.6451
44.2433
103.627
19.5939
22.8272
42.2677
109.769
19.5025
117.147
296.305
295.353
115.587
116.063
296.105
294.749
118.476
43.4501
22.8362
109.575
19.7412
106.324
19.5818
44.702
42.497
22.8258
107.267
19.7297
101.345
19.6942
44.4206
179.301
175.738
25.3922
181.291
182.953
412.425
412.663
410.263
410.553
24.8138
180.808
182.543
175.947
177.908
411.494
411.917
47.1403
109.293
19.9147
23.1318
46.2074
113.659
19.9615
123.961
295.752
114.389
298.116
47.0951
19.8814
105.998
23.08
46.3114
19.7511
112.691
114.77
298.171
296.337
122.393
46.2605
22.8869
112.746
20.0437
109.842
20.0001
47.2274
120.866
298.112
295.95
123.502
43.7733
23.0893
20.0024
111.489
19.945
106.169
47.7209
123.339
297.18
112.476
298.696
46.6935
19.8884
106.594
23.0686
45.72
19.8041
112.04
122.824
296.141
120.353
298.28
45.499
22.7589
112.927
19.9559
109.878
19.906
47.039
113.822
298.475
297.069
124.039
43.6113
23.1322
20.022
111.66
20.0426
106.031
47.6512
114.188
298.075
296.131
124.188
177.791
175.398
25.2427
182.652
180.308
411.118
410.047
411.483
412.173
24.8054
183.034
180.411
179.029
175.722
409.8
410.715
44.5739
19.4906
103.779
22.3941
43.753
19.6654
109.272
118.253
294.777
109.78
296.056
119.198
294.335
111.196
295.973
41.2234
22.334
19.7399
109.169
19.5627
102.004
43.987
42.3718
22.8426
19.7394
109.444
19.5854
104.45
44.2826
113.303
296.16
294.482
117.935
114.835
295.934
294.02
118.221
412.984
411.686
410.713
410.448
24.8221
184.544
179.963
176.876
176.901
411.426
412.501
409.992
411.135
410.468
411.938
178.69
180.333
122.273
293.727
116.642
297.659
47.0512
106.84
19.6693
22.4484
42.7953
111.348
19.7446
46.6427
107.489
19.5939
22.6387
43.2792
112.564
19.6175
176.037
177.647
25.3855
182.012
182.575
412.978
412.255
106.228
19.9379
43.2138
295.173
117.679
19.8098
106.068
46.505
124.026
296.906
114.09
298.571
46.9867
19.8146
107.198
22.961
45.9809
19.8753
112.419
124
295.982
114.111
298.719
43.9532
19.7934
120.583
45.4124
22.4842
19.5757
108.985
120.644
296.334
175.263
175.127
411.189
46.1797
19.6595
103.753
22.5458
41.3044
19.7806
111.503
122.278
293.855
114.589
121.248
293.578
111.986
296.98
412.36
411.853
410.834
411.834
25.3887
176.838
179.255
412.447
411.642
24.3451
187.564
268.115
24.2969
187.335
267.746
260.519
267.039
24.3303
187.29
267.449
24.292
187.216
24.3314
186.562
24.2942
187.81
267.917
24.3253
187.629
24.3014
188.099
267.414
267.314
22.1811
22.1797
22.1834
22.1956
22.1957
22.1853
22.1812
22.1866
22.1826
22.1808
22.1862
22.1811
23.2658
22.3881
22.3726
22.3681
22.2177
22.3148
23.6947
22.5699
22.4681
22.2948
22.2044
22.3006
22.3884
23.4124
22.3749
22.2162
22.3684
22.3135
22.2971
22.2053
22.3003
23.1422
22.5678
22.4688
9460.84
9461.89
48.1462
22.5762
22.5749
24.2073
6233.37
22.8273
27.7187
6234.33
22.6681
28.0751
507.861
82.2109
395.898
143.442
390.454
139.655
494.965
655.074
456.907
515.565
1278.88
332.055
508.016
74.1028
352.412
145.012
652.771
358.356
130.217
685.925
299.468
487.609
314.797
668.739
531.575
566.862
508.049
82.2289
143.645
395.968
139.769
390.559
495
655.245
457.094
515.431
1278.16
332.24
508.21
74.2445
144.985
352.639
652.517
130.304
358.523
686.153
299.61
487.589
314.903
668.831
531.727
566.832
218.321
490.423
489.801
466.084
465.486
223.589
68.0715
35.8974
331.279
194.209
62.888
38.7142
334.873
68.1845
35.9258
331.635
194.389
63.0049
38.6271
335.722
206.572
382.936
383.319
204.297
442.97
443.023
79.6833
351.294
201.348
45.5958
43.1949
344.929
85.1158
79.4476
352.465
201.496
45.7201
42.9716
345.752
85.3431
362.065
120.73
326.922
152.059
333.049
156.865
355.796
466.292
249.678
333.963
476.161
241.125
368.35
119.397
345.407
158.897
378.995
337.857
157.962
461.69
226.005
327.345
233.376
456.217
441.223
436.637
365.433
127.584
160.356
330.705
162.331
336.39
359.29
468.529
252.848
336.501
478.065
244.638
371.75
125.714
164.295
347.668
381.52
164.599
341.427
464.395
229.181
329.603
237.523
458.583
442.804
438.644
242.133
434.027
434.065
436.935
436.872
239.879
120.111
63.8378
329.52
202.816
116.454
66.7526
325.336
120.098
62.6615
329.425
201.834
115.176
66.0499
325.349
241.746
443.421
443.27
241.43
439.155
439.035
124.011
319.269
202.078
73.2602
68.5243
322.628
126.15
123.096
319.573
199.502