/*--------------------------------*- C++ -*----------------------------------*\
| =========                 |                                                 |
| \\      /  F ield         | OpenFOAM: The Open Source CFD Toolbox           |
|  \\    /   O peration     | Version:  2206                                  |
|   \\  /    A nd           | Website:  www.openfoam.com                      |
|    \\/     M anipulation  |                                                 |
\*---------------------------------------------------------------------------*/
FoamFile
{
    version     2.0;
    format      ascii;
    arch        "LSB;label=32;scalar=64";
    class       volScalarField;
    location    "70";
    object      p;
}
// * * * * * * * * * * * * * * * * * * * * * * * * * * * * * * * * * * * * * //

dimensions      [0 2 -2 0 0 0 0];

internalField   nonuniform List<scalar> 
66616
(
-0.000316961
-0.000289316
-0.000289217
-0.000248538
-0.000860745
-0.000872307
-0.000872059
-0.0008484
-0.00121847
-0.00122173
-0.00122176
-0.00120394
-0.00151388
-0.00151529
-0.0015153
-0.00149837
-0.00178967
-0.00179075
-0.00179075
-0.00177433
-0.0020493
-0.00205079
-0.00205079
-0.0020352
-0.0022897
-0.00229108
-0.00229113
-0.00227664
-0.00251612
-0.00251669
-0.00251675
-0.00250294
-0.00273744
-0.00273757
-0.00273763
-0.00272404
-0.00295692
-0.00295699
-0.00295705
-0.00294349
-0.00317451
-0.00317475
-0.0031749
-0.00316149
-0.0033882
-0.0033885
-0.00338898
-0.00337603
-0.000203493
-0.000215824
-0.000215845
-0.000203516
-0.000215816
-0.000215836
-0.000219442
-0.00021945
-0.000219435
-0.000219443
-0.000215844
-0.000215865
-0.000203502
-0.000215822
-0.000215832
-0.000203523
-0.000248516
-0.000788085
-0.000289642
-0.000289682
-0.000754083
-0.000754077
-0.000248544
-0.000788091
-0.000289281
-0.000289709
-0.000754523
-0.000754462
-0.000289736
-0.00075455
-0.000754491
-0.000248516
-0.000788092
-0.000289249
-0.000754183
-0.000754184
-0.000788097
-0.000848397
-0.00116371
-0.000871976
-0.000871963
-0.00114308
-0.0011431
-0.000848404
-0.00116371
-0.000872287
-0.000872238
-0.00114315
-0.00114313
-0.000872249
-0.00114314
-0.00114311
-0.000848406
-0.00116369
-0.000872047
-0.00114313
-0.00114313
-0.00116371
-0.00120396
-0.0014618
-0.00122171
-0.00122168
-0.00144405
-0.00144405
-0.00120392
-0.00146173
-0.00122172
-0.00122168
-0.00144408
-0.00144405
-0.00122169
-0.00144405
-0.00144404
-0.00120391
-0.00146177
-0.00122174
-0.00144408
-0.00144408
-0.00146176
-0.00149837
-0.00173971
-0.00151525
-0.00151525
-0.00172328
-0.00172328
-0.00149834
-0.00173971
-0.00151528
-0.00151526
-0.0017233
-0.00172329
-0.00151524
-0.00172328
-0.00172327
-0.00149835
-0.00173972
-0.00151529
-0.0017233
-0.0017233
-0.0017397
-0.00177435
-0.00200276
-0.00179074
-0.00179072
-0.00198753
-0.00198751
-0.00177434
-0.00200274
-0.00179075
-0.00179072
-0.00198755
-0.00198752
-0.00179071
-0.00198754
-0.00198753
-0.00177435
-0.00200274
-0.00179074
-0.00198751
-0.00198752
-0.00200275
-0.00203522
-0.00224685
-0.00205078
-0.00205076
-0.00223295
-0.00223296
-0.00203521
-0.00224684
-0.00205078
-0.00205076
-0.00223296
-0.00223297
-0.00205076
-0.00223296
-0.00223297
-0.00203521
-0.00224685
-0.00205077
-0.00223296
-0.00223296
-0.00224685
-0.00227665
-0.00247447
-0.00229109
-0.00229108
-0.00246113
-0.00246113
-0.00227664
-0.00247445
-0.00229108
-0.00229107
-0.00246116
-0.00246116
-0.00229105
-0.00246114
-0.00246117
-0.00227666
-0.00247448
-0.00229109
-0.00246115
-0.00246116
-0.00247448
-0.00250293
-0.00269588
-0.00251669
-0.00251668
-0.00268271
-0.00268274
-0.00250291
-0.00269591
-0.00251667
-0.00251666
-0.00268277
-0.00268277
-0.00251667
-0.00268276
-0.00268278
-0.00250294
-0.0026959
-0.00251671
-0.00268272
-0.00268275
-0.00269592
-0.00272402
-0.00291543
-0.0027376
-0.00273759
-0.00290247
-0.00290249
-0.00272403
-0.00291547
-0.00273754
-0.00273752
-0.00290255
-0.00290255
-0.00273753
-0.00290257
-0.00290256
-0.00272401
-0.00291544
-0.00273761
-0.00290246
-0.0029025
-0.00291547
-0.00294349
-0.00313367
-0.00295704
-0.00295704
-0.00312092
-0.00312096
-0.0029435
-0.00313372
-0.00295695
-0.00295691
-0.00312106
-0.00312103
-0.00295692
-0.00312107
-0.00312107
-0.00294348
-0.00313365
-0.00295704
-0.0031209
-0.00312092
-0.0031337
-0.00316153
-0.0033486
-0.00317491
-0.0031749
-0.00333614
-0.00333615
-0.00316152
-0.00334867
-0.00317471
-0.00317467
-0.00333637
-0.00333636
-0.00317469
-0.0033364
-0.0033364
-0.0031615
-0.00334859
-0.00317488
-0.00333611
-0.00333613
-0.00334862
-0.00337611
-0.00338896
-0.00338895
-0.00337605
-0.00338846
-0.00338845
-0.00338843
-0.0033761
-0.00338893
-0.000124786
-9.53339e-05
-0.000109923
-0.000109976
-4.14306e-05
-8.05727e-05
-5.83602e-05
-9.59636e-05
-4.12782e-05
-8.05608e-05
-9.59261e-05
-5.82911e-05
-6.32161e-05
-6.47339e-05
-6.46569e-05
-0.00049471
-8.82961e-05
-0.000159947
-0.000511848
-0.000156371
-0.000505761
-0.000494893
-8.83051e-05
-0.000159904
-0.000511982
-0.000316984
-0.000316963
-0.000316985
-0.00074262
-0.000742636
-0.000742649
-0.000742653
-0.00048961
-0.000157659
-0.00029742
-0.000448676
-0.000205916
-0.000499548
-0.000451187
-0.000156387
-0.000505784
-0.000489538
-0.000297261
-0.000157515
-0.000448802
-0.000205978
-0.000451379
-0.00049948
-0.000205654
-0.000205503
-0.000487589
-0.00049745
-0.000497466
-0.00101067
-0.000883657
-0.000876648
-0.00101349
-0.000883772
-0.00101471
-0.00101103
-0.000883597
-0.000876798
-0.0010135
-0.00086071
-0.000860721
-0.000860718
-0.00113853
-0.00113856
-0.00113858
-0.00113857
-0.00100286
-0.00087185
-0.000867078
-0.000971671
-0.000863451
-0.00100675
-0.000967667
-0.000883747
-0.00101473
-0.00100216
-0.000866331
-0.00087182
-0.000971467
-0.000862886
-0.000967028
-0.00100652
-0.000875088
-0.000875228
-0.000996174
-0.00101003
-0.00100997
-0.0013188
-0.00120924
-0.00120894
-0.00131907
-0.00121025
-0.00131984
-0.00131899
-0.00120889
-0.00120842
-0.00131908
-0.00121845
-0.00121848
-0.00121844
-0.00144248
-0.0014425
-0.00144252
-0.0014425
-0.00131691
-0.00120822
-0.00122038
-0.00129762
-0.00120756
-0.00131719
-0.00129658
-0.00120995
-0.00131983
-0.00131659
-0.00122021
-0.00120855
-0.00129764
-0.00120798
-0.00129648
-0.00131707
-0.00120795
-0.00120821
-0.0013163
-0.00131815
-0.00131811
-0.00160322
-0.00149968
-0.00149954
-0.00160363
-0.00150007
-0.00160391
-0.00160363
-0.00149952
-0.00149918
-0.00160379
-0.00151389
-0.00151389
-0.00151387
-0.0017222
-0.0017222
-0.00172221
-0.00172221
-0.00160206
-0.00149979
-0.00151484
-0.00158557
-0.00149982
-0.00160239
-0.00158519
-0.00149993
-0.00160407
-0.00160165
-0.00151476
-0.00150006
-0.00158557
-0.00150026
-0.00158511
-0.00160211
-0.0014989
-0.00149906
-0.00160259
-0.00160296
-0.00160282
-0.00187393
-0.00177546
-0.00177528
-0.0018743
-0.00177563
-0.00187446
-0.0018744
-0.00177537
-0.00177501
-0.00187451
-0.00178964
-0.00178964
-0.00178964
-0.00198613
-0.00198614
-0.00198613
-0.00198613
-0.00187284
-0.00177581
-0.00179046
-0.00185738
-0.00177565
-0.00187325
-0.00185707
-0.00177557
-0.00187461
-0.00187234
-0.00179041
-0.00177601
-0.00185736
-0.00177598
-0.00185701
-0.00187297
-0.00177485
-0.00177496
-0.00187322
-0.0018738
-0.00187362
-0.00212801
-0.00203636
-0.00203624
-0.00212832
-0.00203641
-0.00212833
-0.00212847
-0.00203627
-0.00203598
-0.00212853
-0.00204928
-0.00204927
-0.00204926
-0.00223138
-0.00223139
-0.0022314
-0.00223139
-0.00212697
-0.00203675
-0.00205043
-0.0021129
-0.00203656
-0.00212749
-0.00211248
-0.00203634
-0.00212852
-0.00212645
-0.00205036
-0.00203693
-0.00211285
-0.00203688
-0.00211239
-0.00212716
-0.00203586
-0.00203597
-0.00212738
-0.00212797
-0.00212782
-0.00236181
-0.0022774
-0.00227715
-0.00236221
-0.00227739
-0.00236225
-0.0023623
-0.00227729
-0.00227686
-0.00236247
-0.00228967
-0.00228969
-0.00228967
-0.00246031
-0.00246032
-0.00246034
-0.00246034
-0.00236104
-0.00227783
-0.00229064
-0.00234847
-0.00227755
-0.00236157
-0.00234804
-0.00227732
-0.00236244
-0.00236056
-0.00229062
-0.00227804
-0.00234847
-0.00227792
-0.002348
-0.0023613
-0.00227714
-0.00227725
-0.00236201
-0.0023622
-0.00236201
-0.00258521
-0.00250319
-0.00250297
-0.00258551
-0.00250323
-0.00258553
-0.0025857
-0.00250312
-0.00250274
-0.00258575
-0.00251609
-0.00251611
-0.0025161
-0.00268241
-0.00268244
-0.00268243
-0.00268245
-0.0025846
-0.00250379
-0.00251642
-0.00257232
-0.00250361
-0.00258501
-0.00257206
-0.00250324
-0.00258581
-0.00258406
-0.00251639
-0.00250399
-0.00257227
-0.002504
-0.00257198
-0.00258469
-0.00250316
-0.00250326
-0.00258557
-0.0025856
-0.00258541
-0.00280582
-0.00272438
-0.00272432
-0.00280601
-0.00272449
-0.00280613
-0.00280622
-0.00272431
-0.00272404
-0.00280621
-0.0027374
-0.00273741
-0.0027374
-0.00290228
-0.00290231
-0.00290229
-0.0029023
-0.00280513
-0.00272503
-0.00273745
-0.00279277
-0.00272499
-0.00280545
-0.00279265
-0.00272442
-0.00280622
-0.00280462
-0.00273745
-0.00272519
-0.00279269
-0.00272534
-0.00279257
-0.00280517
-0.00272438
-0.00272446
-0.0028058
-0.00280605
-0.00280588
-0.00302492
-0.00294403
-0.00294399
-0.00302506
-0.00294408
-0.00302511
-0.00302525
-0.00294391
-0.0029437
-0.00302519
-0.0029569
-0.00295688
-0.00295687
-0.00312052
-0.00312055
-0.00312052
-0.00312053
-0.00302423
-0.0029446
-0.00295693
-0.00301204
-0.00294462
-0.00302457
-0.00301193
-0.00294397
-0.00302519
-0.00302374
-0.00295698
-0.00294481
-0.00301188
-0.00294501
-0.00301183
-0.00302423
-0.00294391
-0.00294404
-0.00302482
-0.00302504
-0.0030249
-0.00324168
-0.00316197
-0.00316197
-0.00324179
-0.00316201
-0.00324188
-0.00324191
-0.00316187
-0.00316166
-0.00324188
-0.00317448
-0.00317447
-0.00317446
-0.00333547
-0.00333549
-0.00333547
-0.00333549
-0.00324093
-0.00316254
-0.00317463
-0.00322929
-0.00316254
-0.00324124
-0.00322909
-0.00316192
-0.00324186
-0.00324053
-0.00317475
-0.00316274
-0.00322904
-0.00316293
-0.00322892
-0.00324096
-0.00316183
-0.00316193
-0.00324174
-0.00324176
-0.00324165
-0.00345346
-0.00337609
-0.00337617
-0.00345358
-0.00337612
-0.00345381
-0.00337608
-0.00337594
-0.00338816
-0.00338817
-0.00338814
-0.00345262
-0.00337677
-0.0033882
-0.003442
-0.00337688
-0.00345308
-0.00344189
-0.00337613
-0.00345238
-0.00338873
-0.00337703
-0.00337719
-0.00344179
-0.00337602
-0.00337611
-0.00345394
-0.00345374
-0.00345359
-6.32716e-05
-6.42841e-05
-6.43308e-05
-6.20554e-05
-8.90036e-05
-6.2327e-05
-8.90438e-05
-9.32796e-05
-0.000111324
-0.000111214
-7.17483e-05
-7.17658e-05
-4.12927e-05
-8.0445e-05
-5.83079e-05
-9.59424e-05
-4.12855e-05
-8.04322e-05
-5.84045e-05
-9.59389e-05
-6.00953e-05
-2.54827e-05
-8.43551e-05
-0.000159332
-6.00918e-05
-2.55325e-05
-8.43924e-05
-0.000159337
-7.45901e-05
-0.000106748
-0.000124242
-0.000199146
-6.81348e-05
-0.000127733
-0.00017298
-7.45845e-05
-0.000106744
-0.000124323
-0.000199148
-6.82308e-05
-0.000127728
-0.000172977
-6.32511e-05
-6.4689e-05
-6.43282e-05
-6.21777e-05
-8.88533e-05
-9.32597e-05
-0.00011166
-0.000111467
-7.1416e-05
-7.17731e-05
-6.23531e-05
-8.90627e-05
-4.14186e-05
-8.05728e-05
-5.83572e-05
-9.59573e-05
-4.1416e-05
-8.04276e-05
-9.59568e-05
-5.84448e-05
-6.00888e-05
-2.61064e-05
-8.43844e-05
-0.000159424
-7.45613e-05
-0.000107036
-0.000124548
-0.000199086
-6.81983e-05
-0.000127711
-0.000172993
-6.00835e-05
-2.6201e-05
-8.44111e-05
-0.000159427
-7.45569e-05
-0.000106742
-0.000199099
-0.000124722
-0.000127705
-6.82124e-05
-0.000173
-0.000124781
-9.53284e-05
-0.000109917
-0.000109975
-0.000124783
-9.53205e-05
-0.000109972
-0.000109912
-0.000124784
-9.53104e-05
-0.000109972
-0.000109909
-0.000158936
-0.000116283
-0.000237451
-0.000237333
-0.000137426
-0.00013737
-0.000253507
-0.000158938
-0.000116282
-0.000237457
-0.000237346
-0.000137429
-0.000137375
-0.00025351
-0.00015895
-0.000116277
-0.000237342
-0.000237454
-0.000137372
-0.000137428
-0.000253551
-0.000158949
-0.000116266
-0.000237352
-0.000237457
-0.000137371
-0.000137427
-0.000253556
-4.14309e-05
-8.04127e-05
-9.59571e-05
-5.84588e-05
-7.45852e-05
-0.000107024
-0.000124664
-0.000199107
-6.81888e-05
-0.000127716
-0.000173027
-6.01134e-05
-2.61594e-05
-8.44157e-05
-0.000159455
-7.4581e-05
-0.000106728
-0.000199118
-0.000124821
-0.000127715
-6.8246e-05
-0.000173038
-6.01077e-05
-2.62484e-05
-8.44335e-05
-0.000159469
-6.32396e-05
-6.47253e-05
-6.42717e-05
-6.24401e-05
-8.88776e-05
-9.32517e-05
-0.00011179
-0.000111313
-7.14304e-05
-7.173e-05
-6.20702e-05
-8.89961e-05
-4.12744e-05
-8.05351e-05
-9.59194e-05
-5.83788e-05
-7.45875e-05
-0.000107015
-0.000199164
-0.000124234
-0.000127733
-6.81271e-05
-0.000172963
-7.45832e-05
-0.000106999
-0.000199161
-0.000124298
-0.000127734
-6.81876e-05
-0.000172955
-6.00793e-05
-2.54686e-05
-8.43584e-05
-0.000159331
-6.00757e-05
-2.54756e-05
-8.4362e-05
-0.000159327
-9.32222e-05
-0.000112033
-0.000111655
-7.14566e-05
-7.13683e-05
-6.24687e-05
-8.89143e-05
-6.21792e-05
-8.88151e-05
-0.000156323
-0.000505727
-0.000156379
-0.000505771
-0.000205422
-0.000205355
-0.000487579
-0.000497379
-0.000497388
-0.000830603
-0.000570342
-0.000830827
-0.000570207
-0.000572858
-0.000820132
-0.000820558
-0.000571241
-0.000571202
-0.000494707
-8.83168e-05
-0.000159961
-0.000511874
-0.00048954
-0.000157508
-0.00029736
-0.000448628
-0.000205981
-0.000499491
-0.00045142
-0.00048954
-0.000157549
-0.000297372
-0.000448648
-0.00020598
-0.000499516
-0.000451429
-0.000580211
-0.000831505
-0.000580229
-0.000822587
-0.000580219
-0.000831535
-0.000580252
-0.00082259
-0.00057914
-0.000610602
-0.000814049
-0.000748143
-0.000581807
-0.00060741
-0.000802318
-0.000579148
-0.000610618
-0.000814078
-0.000748149
-0.00058181
-0.000607424
-0.000802327
-0.000205536
-0.000205444
-0.000487591
-0.000497455
-0.000497387
-0.000156364
-0.0005058
-0.000830638
-0.000570367
-0.000572874
-0.000820203
-0.000820521
-0.000571287
-0.000571224
-0.000830822
-0.000570237
-0.000489592
-0.000157614
-0.000297399
-0.000448639
-0.000205873
-0.000499515
-0.000451168
-0.000494892
-8.83313e-05
-0.00015991
-0.000512002
-0.000489596
-0.000297434
-0.000157674
-0.000448509
-0.000205876
-0.000451143
-0.000499568
-0.000580011
-0.00083174
-0.000580072
-0.000823543
-0.000579108
-0.000610651
-0.000814987
-0.000749136
-0.000581737
-0.000607589
-0.000803599
-0.000580017
-0.000831743
-0.000580091
-0.000823544
-0.00057911
-0.000610589
-0.000749091
-0.000815012
-0.000607516
-0.000581733
-0.000803617
-0.000494909
-8.83143e-05
-0.00015994
-0.000512009
-0.000489623
-0.000297456
-0.000157695
-0.000448539
-0.000205916
-0.00045116
-0.000499604
-0.000494914
-8.83597e-05
-0.000159945
-0.000512034
-0.000579128
-0.000610678
-0.000814995
-0.000749133
-0.000581779
-0.000607588
-0.000803608
-0.000580032
-0.000831752
-0.000580106
-0.00082354
-0.000579128
-0.000610615
-0.000749095
-0.000814998
-0.000607522
-0.000581771
-0.000803621
-0.00058004
-0.000831737
-0.000580119
-0.000823546
-0.000205587
-0.000205381
-0.000487583
-0.000497434
-0.000497395
-0.000156319
-0.000505759
-0.000830826
-0.000570215
-0.000572855
-0.000820565
-0.00082015
-0.000571209
-0.00057129
-0.000830628
-0.000570383
-0.000489541
-0.000297273
-0.000157576
-0.00044882
-0.000205971
-0.000451387
-0.000499502
-0.000494716
-8.82798e-05
-0.000159966
-0.000511853
-0.000494725
-8.83277e-05
-0.00015996
-0.000511887
-0.000579182
-0.000610699
-0.0007482
-0.000814031
-0.000607424
-0.000581843
-0.000802337
-0.000579184
-0.000610722
-0.00074821
-0.000814059
-0.000607448
-0.000581848
-0.000802342
-0.000580241
-0.000831533
-0.000580251
-0.000822602
-0.000580245
-0.000831538
-0.000580289
-0.000822604
-0.000156369
-0.000505823
-0.000156394
-0.000505786
-0.000572862
-0.000820519
-0.000820188
-0.000571231
-0.000571322
-0.000830799
-0.00057025
-0.000830645
-0.000570405
-0.000883748
-0.00101475
-0.000883747
-0.00101471
-0.000875179
-0.000875127
-0.000996168
-0.00100996
-0.00101003
-0.0011715
-0.00105631
-0.00117138
-0.00105605
-0.00104143
-0.00116891
-0.00116891
-0.00105265
-0.00105244
-0.00101066
-0.000883666
-0.000876672
-0.00101348
-0.00100219
-0.0008718
-0.000866269
-0.000971382
-0.000862837
-0.00100652
-0.000966991
-0.00100218
-0.000871818
-0.000866267
-0.000971369
-0.000862848
-0.00100651
-0.000966998
-0.00105331
-0.00117035
-0.00105509
-0.00116962
-0.00105332
-0.00117036
-0.00105509
-0.00116961
-0.00104892
-0.00106036
-0.00116726
-0.00114099
-0.0010516
-0.00105727
-0.00116565
-0.00104894
-0.00106036
-0.00116728
-0.00114098
-0.00105166
-0.00105728
-0.00116565
-0.000875245
-0.000875092
-0.000996176
-0.00100989
-0.00101011
-0.000883747
-0.00101476
-0.00117154
-0.0010563
-0.00104144
-0.00116896
-0.00116885
-0.00105266
-0.00105245
-0.00117137
-0.00105608
-0.00100289
-0.000871864
-0.00086707
-0.000971652
-0.000863448
-0.00100674
-0.000967654
-0.00101105
-0.00088361
-0.000876826
-0.00101355
-0.00100289
-0.000867036
-0.00087187
-0.000971612
-0.000863458
-0.000967639
-0.00100678
-0.00105296
-0.00117027
-0.00105479
-0.00116974
-0.00104879
-0.00106052
-0.00116739
-0.00114123
-0.00105138
-0.00105772
-0.00116598
-0.00105297
-0.00117028
-0.00105481
-0.00116974
-0.0010488
-0.00106048
-0.00114126
-0.00116739
-0.00105772
-0.00105145
-0.00116598
-0.00101103
-0.000883619
-0.000876826
-0.00101354
-0.00100286
-0.000867039
-0.000871866
-0.000971622
-0.000863456
-0.000967646
-0.00100673
-0.00101104
-0.000883607
-0.00087683
-0.00101352
-0.00104881
-0.00106048
-0.00116733
-0.00114125
-0.00105143
-0.00105771
-0.00116597
-0.00105297
-0.00117026
-0.00105481
-0.00116973
-0.0010488
-0.00106047
-0.00114127
-0.00116741
-0.00105772
-0.00105142
-0.001166
-0.00105297
-0.00117028
-0.00105481
-0.00116974
-0.00087514
-0.0008752
-0.00099618
-0.00101006
-0.00100996
-0.000883769
-0.00101475
-0.0011714
-0.00105606
-0.00104144
-0.00116892
-0.00116891
-0.00105246
-0.00105265
-0.00117151
-0.00105632
-0.00100216
-0.000866318
-0.000871818
-0.000971461
-0.000862883
-0.000967027
-0.0010065
-0.00101068
-0.000883674
-0.000876693
-0.00101349
-0.00101068
-0.000883678
-0.000876701
-0.00101347
-0.00104894
-0.0010604
-0.00114097
-0.00116724
-0.00105726
-0.00105166
-0.00116566
-0.00104894
-0.00106042
-0.00114096
-0.00116724
-0.00105728
-0.00105164
-0.00116566
-0.00105333
-0.00117035
-0.00105511
-0.00116962
-0.00105334
-0.00117035
-0.0010551
-0.00116962
-0.000883733
-0.00101471
-0.000883782
-0.00101474
-0.00104145
-0.00116891
-0.00116891
-0.00105244
-0.00105265
-0.00117139
-0.00105605
-0.0011715
-0.00105632
-0.00121023
-0.00131985
-0.00120993
-0.00131982
-0.0012082
-0.00120797
-0.00131633
-0.00131811
-0.00131815
-0.00146367
-0.00135723
-0.00146373
-0.00135703
-0.00135426
-0.00146233
-0.00146242
-0.0013559
-0.00135572
-0.0013188
-0.00120925
-0.00120896
-0.00131906
-0.00131658
-0.00120854
-0.00122021
-0.0012976
-0.00120797
-0.00131709
-0.0012965
-0.00131659
-0.00120856
-0.00122019
-0.0012976
-0.00120798
-0.00131709
-0.0012965
-0.00135651
-0.00146317
-0.00135659
-0.00146285
-0.00135651
-0.00146315
-0.00135659
-0.00146284
-0.00135683
-0.00137155
-0.00146155
-0.0014434
-0.00135671
-0.00137071
-0.00146124
-0.00135683
-0.00137156
-0.00146154
-0.00144341
-0.00135672
-0.00137072
-0.00146125
-0.00120822
-0.00120792
-0.0013163
-0.00131812
-0.00131811
-0.00120993
-0.00131981
-0.00146367
-0.00135723
-0.00135425
-0.00146232
-0.00146237
-0.00135591
-0.0013557
-0.00146368
-0.00135703
-0.00131691
-0.00120826
-0.00122035
-0.00129761
-0.00120756
-0.00131721
-0.00129661
-0.00131899
-0.00120892
-0.00120844
-0.00131908
-0.00131693
-0.00122037
-0.00120824
-0.00129757
-0.00120757
-0.0012966
-0.00131722
-0.00135606
-0.00146327
-0.00135635
-0.00146314
-0.00135643
-0.00137156
-0.00146173
-0.0014435
-0.00135645
-0.0013708
-0.00146159
-0.00135606
-0.00146327
-0.00135635
-0.00146313
-0.00135642
-0.00137153
-0.00144352
-0.00146174
-0.00137082
-0.00135645
-0.00146161
-0.00131897
-0.0012089
-0.00120843
-0.00131907
-0.00131696
-0.00122037
-0.00120824
-0.00129756
-0.00120758
-0.00129657
-0.00131722
-0.00131898
-0.00120891
-0.00120844
-0.00131908
-0.0013564
-0.00137154
-0.00146169
-0.00144349
-0.00135644
-0.00137077
-0.00146157
-0.00135604
-0.00146324
-0.00135635
-0.00146311
-0.00135643
-0.00137151
-0.0014435
-0.00146173
-0.00137081
-0.00135642
-0.0014616
-0.00135605
-0.00146324
-0.00135635
-0.00146311
-0.00120797
-0.0012082
-0.00131632
-0.00131815
-0.0013181
-0.00121024
-0.00131988
-0.0014637
-0.00135703
-0.00135425
-0.00146243
-0.00146231
-0.00135572
-0.0013559
-0.00146365
-0.00135725
-0.00131658
-0.0012202
-0.00120856
-0.00129763
-0.00120798
-0.00129648
-0.00131707
-0.00131881
-0.00120925
-0.00120898
-0.00131908
-0.00131881
-0.00120924
-0.00120897
-0.00131907
-0.00135687
-0.00137156
-0.00144341
-0.00146152
-0.00137068
-0.00135673
-0.00146121
-0.00135687
-0.00137159
-0.0014434
-0.00146154
-0.0013707
-0.00135672
-0.00146123
-0.00135653
-0.00146315
-0.00135661
-0.00146284
-0.00135653
-0.00146315
-0.0013566
-0.00146284
-0.00120993
-0.00131982
-0.00121021
-0.00131987
-0.00135423
-0.0014624
-0.00146231
-0.00135569
-0.0013559
-0.00146368
-0.00135703
-0.00146365
-0.00135725
-0.00150009
-0.00160395
-0.00149996
-0.00160405
-0.00149904
-0.00149893
-0.0016026
-0.00160282
-0.00160296
-0.00174096
-0.00163949
-0.0017411
-0.00163942
-0.00163816
-0.00174001
-0.00174019
-0.00163868
-0.0016386
-0.00160322
-0.00149967
-0.00149956
-0.0016036
-0.00160165
-0.00150005
-0.00151474
-0.00158553
-0.00150028
-0.00160211
-0.00158514
-0.00160165
-0.00150006
-0.00151473
-0.0015855
-0.00150029
-0.00160207
-0.00158512
-0.00163904
-0.00174073
-0.00163927
-0.00174034
-0.00163905
-0.00174073
-0.00163928
-0.00174032
-0.00163978
-0.00165484
-0.00173934
-0.00172298
-0.00163975
-0.00165451
-0.00173873
-0.00163978
-0.00165482
-0.00173935
-0.00172298
-0.00163975
-0.00165451
-0.00173873
-0.00149907
-0.00149887
-0.00160261
-0.00160271
-0.00160305
-0.00149992
-0.00160408
-0.00174097
-0.0016395
-0.00163816
-0.00174006
-0.0017401
-0.0016387
-0.00163859
-0.00174106
-0.00163943
-0.00160207
-0.00149984
-0.00151484
-0.00158556
-0.00149984
-0.00160236
-0.0015852
-0.00160363
-0.00149952
-0.00149919
-0.0016038
-0.00160209
-0.00151485
-0.00149984
-0.00158553
-0.00149985
-0.00158522
-0.00160236
-0.00163878
-0.00174094
-0.00163916
-0.00174077
-0.00163943
-0.00165485
-0.00173962
-0.00172302
-0.00163957
-0.00165456
-0.00173918
-0.00163878
-0.00174093
-0.00163917
-0.00174077
-0.00163946
-0.00165483
-0.00172305
-0.00173961
-0.00165459
-0.00163956
-0.00173919
-0.0016036
-0.0014995
-0.00149917
-0.0016038
-0.00160207
-0.00151483
-0.00149983
-0.00158551
-0.00149983
-0.00158522
-0.00160235
-0.0016036
-0.00149949
-0.00149917
-0.00160378
-0.00163944
-0.00165482
-0.00173958
-0.00172301
-0.00163956
-0.00165453
-0.00173917
-0.00163876
-0.0017409
-0.00163915
-0.00174074
-0.00163944
-0.00165481
-0.00172305
-0.00173961
-0.00165458
-0.00163955
-0.00173919
-0.00163876
-0.00174093
-0.00163915
-0.00174075
-0.00149893
-0.00149905
-0.00160263
-0.00160298
-0.00160282
-0.00150007
-0.00160397
-0.0017411
-0.00163944
-0.00163817
-0.00174017
-0.00174
-0.00163861
-0.0016387
-0.00174098
-0.00163953
-0.00160165
-0.00151474
-0.00150007
-0.00158555
-0.00150027
-0.00158512
-0.00160211
-0.00160323
-0.00149968
-0.00149956
-0.00160364
-0.00160323
-0.00149968
-0.00149956
-0.00160362
-0.0016398
-0.00165485
-0.00172295
-0.00173933
-0.00165447
-0.00163977
-0.00173872
-0.00163981
-0.00165485
-0.00172296
-0.00173932
-0.0016545
-0.00163976
-0.00173872
-0.00163907
-0.00174074
-0.00163931
-0.00174033
-0.00163906
-0.00174072
-0.00163928
-0.00174032
-0.0014999
-0.00160405
-0.00150005
-0.00160395
-0.00163813
-0.00174016
-0.00174
-0.00163858
-0.0016387
-0.0017411
-0.00163943
-0.00174096
-0.00163951
-0.00177563
-0.00187447
-0.00177557
-0.00187462
-0.00177496
-0.00177489
-0.00187323
-0.00187364
-0.00187381
-0.00200392
-0.00190817
-0.00200407
-0.00190811
-0.00190691
-0.00200323
-0.00200339
-0.00190763
-0.00190755
-0.00187393
-0.00177546
-0.00177528
-0.00187428
-0.00187235
-0.001776
-0.00179043
-0.00185736
-0.00177598
-0.001873
-0.00185704
-0.00187236
-0.00177599
-0.00179042
-0.00185734
-0.00177599
-0.00187299
-0.00185703
-0.00190788
-0.00200381
-0.00190806
-0.00200349
-0.00190788
-0.00200378
-0.00190806
-0.00200349
-0.00190858
-0.00192295
-0.00200258
-0.00198715
-0.00190864
-0.00192261
-0.00200192
-0.00190859
-0.00192293
-0.0020026
-0.00198715
-0.00190864
-0.00192261
-0.00200191
-0.00177499
-0.00177484
-0.00187322
-0.00187365
-0.00187378
-0.00177554
-0.0018746
-0.0020039
-0.00190816
-0.00190689
-0.00200323
-0.00200334
-0.00190764
-0.00190752
-0.00200404
-0.0019081
-0.00187284
-0.00177584
-0.00179046
-0.00185739
-0.00177567
-0.00187328
-0.00185708
-0.00187441
-0.00177537
-0.00177504
-0.00187449
-0.00187285
-0.00179048
-0.00177582
-0.00185736
-0.00177568
-0.0018571
-0.00187326
-0.00190761
-0.00200402
-0.00190797
-0.00200397
-0.00190826
-0.00192296
-0.00200288
-0.00198722
-0.00190847
-0.00192266
-0.00200243
-0.00190763
-0.00200401
-0.00190796
-0.00200396
-0.00190827
-0.00192293
-0.00198723
-0.00200287
-0.00192268
-0.00190845
-0.00200243
-0.0018744
-0.00177535
-0.00177501
-0.00187449
-0.00187285
-0.00179047
-0.00177582
-0.00185736
-0.00177566
-0.00185709
-0.00187327
-0.0018744
-0.00177536
-0.00177502
-0.00187449
-0.00190826
-0.00192295
-0.00200285
-0.0019872
-0.00190845
-0.00192263
-0.00200242
-0.00190762
-0.00200399
-0.00190797
-0.00200393
-0.00190827
-0.00192293
-0.00198723
-0.00200287
-0.00192266
-0.00190845
-0.00200244
-0.00190763
-0.00200399
-0.00190795
-0.00200394
-0.00177488
-0.00177495
-0.00187321
-0.0018738
-0.00187361
-0.00177563
-0.00187446
-0.00200405
-0.0019081
-0.00190688
-0.00200338
-0.00200319
-0.00190754
-0.00190762
-0.0020039
-0.00190816
-0.00187234
-0.00179039
-0.001776
-0.00185735
-0.00177599
-0.001857
-0.00187297
-0.00187395
-0.00177547
-0.0017753
-0.00187428
-0.00187395
-0.00177546
-0.0017753
-0.00187428
-0.00190858
-0.00192293
-0.00198712
-0.00200257
-0.00192256
-0.00190864
-0.00200189
-0.0019086
-0.00192294
-0.00198713
-0.00200256
-0.00192257
-0.00190864
-0.00200189
-0.00190789
-0.0020038
-0.00190806
-0.00200348
-0.00190789
-0.00200378
-0.00190805
-0.00200348
-0.00177556
-0.00187461
-0.00177561
-0.00187445
-0.00190689
-0.00200337
-0.00200319
-0.00190752
-0.00190761
-0.00200404
-0.00190809
-0.00200388
-0.00190814
-0.00203641
-0.00212837
-0.00203635
-0.00212852
-0.00203597
-0.0020359
-0.00212739
-0.0021278
-0.00212797
-0.00224749
-0.00215953
-0.00224763
-0.00215945
-0.00215846
-0.00224712
-0.00224727
-0.00215923
-0.00215914
-0.00212801
-0.00203635
-0.00203626
-0.00212831
-0.00212644
-0.00203693
-0.00205037
-0.00211285
-0.00203688
-0.00212717
-0.00211241
-0.00212644
-0.00203693
-0.00205036
-0.00211282
-0.00203687
-0.00212713
-0.00211241
-0.00215934
-0.00224747
-0.00215954
-0.00224709
-0.00215933
-0.00224748
-0.00215955
-0.00224707
-0.00215995
-0.00217348
-0.00224643
-0.00223248
-0.00216011
-0.00217303
-0.00224566
-0.00215996
-0.00217349
-0.00224643
-0.00223247
-0.00216013
-0.00217304
-0.00224566
-0.00203599
-0.00203585
-0.00212739
-0.00212771
-0.00212809
-0.00203633
-0.00212857
-0.00224751
-0.00215952
-0.00215847
-0.00224715
-0.0022472
-0.00215924
-0.00215916
-0.00224761
-0.00215948
-0.00212696
-0.00203677
-0.00205042
-0.00211287
-0.00203655
-0.00212746
-0.00211247
-0.00212846
-0.00203626
-0.002036
-0.00212853
-0.00212697
-0.00205043
-0.00203674
-0.00211285
-0.00203657
-0.00211248
-0.00212746
-0.00215905
-0.00224767
-0.00215942
-0.00224753
-0.00215964
-0.00217348
-0.0022467
-0.00223252
-0.00215993
-0.00217307
-0.00224615
-0.00215906
-0.00224768
-0.00215945
-0.00224753
-0.00215963
-0.00217347
-0.00223254
-0.00224673
-0.0021731
-0.00215993
-0.00224617
-0.00212848
-0.00203626
-0.00203598
-0.00212857
-0.00212698
-0.00205044
-0.00203674
-0.00211286
-0.00203657
-0.00211248
-0.00212746
-0.00212848
-0.00203625
-0.00203599
-0.00212853
-0.00215965
-0.00217347
-0.00224668
-0.00223252
-0.00215993
-0.00217306
-0.00224615
-0.00215908
-0.00224766
-0.00215946
-0.00224752
-0.00215965
-0.00217348
-0.00223254
-0.0022467
-0.0021731
-0.00215992
-0.00224616
-0.00215907
-0.00224769
-0.00215943
-0.00224752
-0.00203588
-0.00203596
-0.00212738
-0.00212798
-0.0021278
-0.0020364
-0.00212836
-0.00224764
-0.00215946
-0.00215846
-0.00224727
-0.0022471
-0.00215916
-0.00215923
-0.0022475
-0.00215952
-0.00212645
-0.00205035
-0.00203693
-0.00211285
-0.00203689
-0.00211239
-0.00212717
-0.00212801
-0.00203636
-0.00203626
-0.00212832
-0.00212801
-0.00203636
-0.00203626
-0.00212834
-0.00215998
-0.00217347
-0.00223246
-0.00224641
-0.002173
-0.00216013
-0.00224566
-0.00215999
-0.00217349
-0.00223247
-0.00224642
-0.00217302
-0.00216013
-0.00224565
-0.00215934
-0.00224748
-0.00215954
-0.00224709
-0.00215934
-0.00224747
-0.00215956
-0.00224708
-0.00203633
-0.00212851
-0.00203639
-0.00212838
-0.00215846
-0.00224726
-0.00224709
-0.00215912
-0.00215925
-0.00224764
-0.00215945
-0.00224749
-0.00215953
-0.00227738
-0.00236227
-0.00227731
-0.00236245
-0.00227724
-0.00227713
-0.002362
-0.002362
-0.00236217
-0.00247454
-0.00239139
-0.00247472
-0.00239135
-0.00239091
-0.00247433
-0.00247453
-0.00239137
-0.00239128
-0.00236181
-0.00227739
-0.00227716
-0.0023622
-0.00236054
-0.00227804
-0.00229061
-0.00234845
-0.00227789
-0.00236128
-0.002348
-0.00236052
-0.00227802
-0.0022906
-0.00234844
-0.00227789
-0.00236126
-0.002348
-0.00239108
-0.00247446
-0.00239137
-0.00247408
-0.00239109
-0.00247443
-0.00239135
-0.00247408
-0.00239198
-0.00240497
-0.00247359
-0.00246077
-0.00239209
-0.00240456
-0.0024729
-0.00239198
-0.00240497
-0.00247361
-0.00246077
-0.0023921
-0.00240458
-0.00247289
-0.00227725
-0.0022771
-0.00236199
-0.00236199
-0.00236214
-0.0022773
-0.00236241
-0.00247451
-0.00239137
-0.00239091
-0.00247433
-0.0024745
-0.00239135
-0.00239126
-0.00247471
-0.00239133
-0.00236104
-0.00227784
-0.00229064
-0.00234846
-0.00227753
-0.00236157
-0.00234804
-0.0023623
-0.00227729
-0.00227689
-0.00236245
-0.00236106
-0.00229064
-0.00227785
-0.00234846
-0.00227755
-0.00234806
-0.0023616
-0.00239082
-0.0024747
-0.00239131
-0.00247459
-0.00239162
-0.00240494
-0.00247392
-0.00246083
-0.00239193
-0.0024046
-0.00247344
-0.00239083
-0.00247473
-0.0023913
-0.00247459
-0.00239163
-0.00240495
-0.00246086
-0.00247393
-0.00240463
-0.00239195
-0.00247345
-0.0023623
-0.00227729
-0.0022769
-0.00236243
-0.00236104
-0.00229064
-0.00227783
-0.00234845
-0.00227755
-0.00234806
-0.00236159
-0.00236229
-0.00227731
-0.00227689
-0.00236247
-0.00239162
-0.00240491