/*--------------------------------*- C++ -*----------------------------------*\
| =========                 |                                                 |
| \\      /  F ield         | OpenFOAM: The Open Source CFD Toolbox           |
|  \\    /   O peration     | Version:  2206                                  |
|   \\  /    A nd           | Website:  www.openfoam.com                      |
|    \\/     M anipulation  |                                                 |
\*---------------------------------------------------------------------------*/
FoamFile
{
    version     2.0;
    format      ascii;
    arch        "LSB;label=32;scalar=64";
    class       volVectorField;
    location    "70";
    object      wallShearStress;
}
// * * * * * * * * * * * * * * * * * * * * * * * * * * * * * * * * * * * * * //

dimensions      [0 2 -2 0 0 0 0];

internalField   uniform (0 0 0);

boundaryField
{
    topPatch
    {
        type            calculated;
        value           uniform (0 0 0);
    }
    wall
    {
        type            calculated;
        value           nonuniform List<vector> 
7742
(
(1.99413e-05 1.04724e-05 -0.000155718)
(1.5971e-05 5.51154e-05 -5.38891e-05)
(-1.99456e-05 1.0478e-05 -0.00015573)
(1.04442e-05 1.99598e-05 -0.000155829)
(5.52672e-05 1.60003e-05 -5.33883e-05)
(1.04389e-05 -1.99454e-05 -0.000155804)
(-1.04411e-05 1.99538e-05 -0.000155792)
(-1.04426e-05 -1.99472e-05 -0.000155824)
(1.99407e-05 -1.04737e-05 -0.000155699)
(1.59675e-05 -5.51115e-05 -5.38907e-05)
(-1.99326e-05 -1.04788e-05 -0.00015571)
(-1.59622e-05 -5.51099e-05 -5.38978e-05)
(-1.90748e-06 1.25558e-05 -0.000169073)
(2.60338e-05 2.91094e-05 -0.000119623)
(-5.65383e-07 -3.83764e-06 -0.000189525)
(1.25523e-05 -1.9173e-06 -0.0001691)
(2.91009e-05 2.60275e-05 -0.000119636)
(-3.83389e-06 -5.62435e-07 -0.000189543)
(7.66131e-06 3.81373e-07 -0.000150007)
(-7.65589e-06 3.79288e-07 -0.000150012)
(2.05144e-06 1.2555e-05 -0.00016899)
(5.16223e-07 -3.879e-06 -0.000189419)
(-2.57969e-05 2.91674e-05 -0.000120149)
(-1.25552e-05 -1.9203e-06 -0.000169098)
(-2.9106e-05 2.60233e-05 -0.000119632)
(3.83502e-06 -5.70973e-07 -0.000189539)
(3.99105e-07 7.70423e-06 -0.000150053)
(3.99689e-07 -7.70404e-06 -0.000150022)
(-3.94435e-07 7.7008e-06 -0.000150027)
(-3.99722e-07 -7.69969e-06 -0.00015005)
(1.25562e-05 2.05616e-06 -0.000169063)
(-3.87685e-06 5.15897e-07 -0.000189478)
(2.91539e-05 -2.58004e-05 -0.000120194)
(-1.90256e-06 -1.25572e-05 -0.000169094)
(2.60407e-05 -2.91216e-05 -0.000119624)
(-5.69519e-07 3.83926e-06 -0.00018955)
(7.66124e-06 -3.80635e-07 -0.000150022)
(-7.65459e-06 -3.74759e-07 -0.000150011)
(-1.2552e-05 2.05872e-06 -0.000169025)
(3.87486e-06 5.13808e-07 -0.000189432)
(-2.9144e-05 -2.57854e-05 -0.000120177)
(2.03664e-06 -1.25593e-05 -0.00016902)
(5.16959e-07 3.8823e-06 -0.00018946)
(-2.58088e-05 -2.9166e-05 -0.000120155)
(1.12261e-05 -1.1416e-05 -0.000137105)
(-1.12253e-05 -1.14075e-05 -0.000137085)
(-8.40057e-06 -9.59941e-06 -0.000159535)
(-1.13819e-05 1.12185e-05 -0.000137104)
(-1.20707e-06 -3.46522e-06 -0.000180409)
(-1.13592e-05 -1.12082e-05 -0.000137112)
(-9.54572e-06 -8.39321e-06 -0.00015958)
(1.13706e-05 1.12125e-05 -0.000137067)
(1.13636e-05 -1.12087e-05 -0.000137118)
(9.54825e-06 -8.39562e-06 -0.00015957)
(1.21192e-06 3.47396e-06 -0.000180417)
(1.12302e-05 1.14077e-05 -0.000137072)
(8.41418e-06 9.60779e-06 -0.000159522)
(-1.12278e-05 1.14023e-05 -0.000137082)
(-1.59667e-05 5.51013e-05 -5.3892e-05)
(5.52743e-05 -1.60006e-05 -5.33786e-05)
(-5.52694e-05 -1.60006e-05 -5.33969e-05)
(8.40437e-06 -9.60861e-06 -0.000159551)
(-9.55571e-06 8.40172e-06 -0.000159569)
(-5.52655e-05 1.5999e-05 -5.33705e-05)
(9.54871e-06 8.39741e-06 -0.000159554)
(1.20747e-06 -3.46891e-06 -0.000180412)
(-3.45387e-06 1.23144e-06 -0.000180327)
(-8.41522e-06 9.60639e-06 -0.000159538)
(3.45402e-06 1.22892e-06 -0.000180338)
(5.63319e-06 -2.02946e-05 -0.000208828)
(-3.45775e-06 -1.22638e-06 -0.000180332)
(-5.62291e-06 -2.02981e-05 -0.000208831)
(3.46729e-06 -1.22631e-06 -0.000180321)
(-2.03084e-05 5.63423e-06 -0.000208931)
(-2.02824e-05 -5.62926e-06 -0.000208875)
(-1.2132e-06 3.47777e-06 -0.00018044)
(2.02976e-05 5.63161e-06 -0.000208858)
(2.02891e-05 -5.63166e-06 -0.000208902)
(5.63118e-06 2.02945e-05 -0.000208794)
(-5.61611e-06 2.02944e-05 -0.00020882)
(-1.9388e-06 -1.22903e-05 -0.000310116)
(-1.17453e-06 -2.33683e-06 -0.000195969)
(1.50322e-06 -2.81338e-05 -0.000215453)
(-2.39985e-06 -2.97264e-06 -0.000195902)
(-1.23418e-05 -1.9563e-06 -0.000310512)
(-2.33431e-06 -1.1859e-06 -0.000196079)
(-2.81013e-05 1.48046e-06 -0.000215437)
(-2.97501e-06 -2.40993e-06 -0.000195998)
(-1.27349e-06 2.75086e-07 -0.000144804)
(-8.49338e-07 2.71074e-07 -0.000138194)
(9.01679e-07 2.37908e-07 -0.000154829)
(5.24855e-07 2.03198e-07 -0.000147632)
(2.7499e-07 -1.2763e-06 -0.000144926)
(2.78883e-07 -8.68464e-07 -0.00013825)
(2.42948e-07 9.11352e-07 -0.00015494)
(2.09668e-07 5.3833e-07 -0.000147682)
(-4.52962e-07 1.29156e-07 -0.000132677)
(-2.68821e-07 8.96841e-08 -0.000130923)
(2.6344e-07 8.61448e-08 -0.000141736)
(1.42531e-07 5.14219e-08 -0.000139752)
(1.18899e-07 -4.20887e-07 -0.000132939)
(8.49115e-08 -2.59242e-07 -0.00013105)
(7.04675e-08 2.29883e-07 -0.000141949)
(4.30215e-08 1.30209e-07 -0.000139848)
(-1.5769e-07 2.40963e-08 -0.000128046)
(-8.11867e-08 2.06067e-08 -0.00012688)
(1.04079e-07 1.55374e-08 -0.000136663)
(5.34047e-08 1.0953e-08 -0.000135304)
(1.69233e-08 -1.3587e-07 -0.000128259)
(2.26027e-08 -9.08332e-08 -0.000126933)
(3.78157e-09 7.78914e-08 -0.000136835)
(8.31371e-09 5.32392e-08 -0.000135335)
(-7.63294e-08 -3.79471e-09 -0.000124526)
(-3.26057e-08 2.56063e-09 -0.000123508)
(5.5641e-08 -7.17337e-09 -0.000132784)
(1.74614e-08 -6.92047e-09 -0.000131601)
(-4.85451e-09 -6.77184e-08 -0.000124675)
(8.41699e-09 -5.34481e-08 -0.000123506)
(-1.01075e-08 4.57826e-08 -0.000132889)
(3.25711e-09 3.98546e-08 -0.000131575)
(-6.87216e-08 -7.45862e-09 -0.000121369)
(-1.71104e-08 -4.98181e-09 -0.000120535)
(6.11379e-08 -3.57113e-09 -0.000129309)
(2.56276e-08 -3.34145e-09 -0.000128298)
(-7.35136e-09 -6.57629e-08 -0.000121478)
(2.23459e-09 -4.2027e-08 -0.000120496)
(-3.14438e-09 5.67795e-08 -0.000129378)
(6.71558e-09 4.83692e-08 -0.000128248)
(8.59803e-09 -3.06709e-08 -0.000119046)
(8.02428e-08 -3.16818e-08 -0.000118756)
(2.14251e-09 -2.75989e-08 -0.000126664)
(-6.41818e-08 -3.97411e-08 -0.000126222)
(-2.84291e-08 8.06032e-09 -0.00011914)
(-2.30309e-08 4.98691e-08 -0.000118702)
(-2.6315e-08 1.26718e-09 -0.000126721)
(-2.69889e-08 -3.6037e-08 -0.000126166)
(6.96034e-08 -4.45434e-08 -0.00011802)
(9.90035e-08 -3.43818e-08 -0.000117945)
(-6.44038e-08 -5.1971e-08 -0.000125422)
(-9.66777e-08 -4.95242e-08 -0.000125264)
(-3.99135e-08 6.21021e-08 -0.000118093)
(-2.31806e-08 6.44781e-08 -0.00011788)
(-4.58628e-08 -5.64691e-08 -0.00012549)
(-3.27556e-08 -6.02532e-08 -0.000125234)
(4.54024e-08 -3.28563e-08 -0.000117309)
(6.72671e-08 -2.05529e-08 -0.000117243)
(-5.5745e-08 -4.56956e-08 -0.000124653)
(-7.14208e-08 -3.50834e-08 -0.000124536)
(-2.86583e-08 3.87403e-08 -0.000117379)
(-1.20219e-08 4.09202e-08 -0.00011719)
(-3.72634e-08 -4.49889e-08 -0.000124757)
(-1.97943e-08 -4.00976e-08 -0.000124552)
(2.16391e-08 -2.44283e-08 -0.000116592)
(4.77433e-08 -1.18684e-08 -0.000116553)
(-2.39376e-08 -2.69062e-08 -0.000123944)
(-4.83434e-08 -2.14598e-08 -0.000123843)
(-2.23896e-08 2.263e-08 -0.000116675)
(-6.8681e-09 3.08845e-08 -0.000116527)
(-2.43251e-08 -2.32944e-08 -0.000124064)
(-1.27078e-08 -2.98214e-08 -0.000123894)
(1.40036e-08 -2.26552e-08 -0.000115839)
(4.05135e-08 -1.05606e-08 -0.00011584)
(-9.74005e-09 -2.19049e-08 -0.000123185)
(-4.33237e-08 -2.11649e-08 -0.000123116)
(-2.42154e-08 1.99592e-08 -0.000115927)
(-9.75167e-09 3.72945e-08 -0.000115851)
(-2.3275e-08 -1.35845e-08 -0.000123296)
(-1.27741e-08 -2.76043e-08 -0.000123198)
(1.93688e-08 -2.70106e-08 -0.000115048)
(3.79091e-08 -7.7757e-09 -0.000115145)
(-4.49079e-09 -2.03716e-08 -0.000122408)
(-4.54418e-08 -2.12391e-08 -0.000122374)
(-2.60104e-08 1.99863e-08 -0.000115136)
(-2.36027e-08 -1.02619e-08 -0.000122491)
(-5.47659e-06 8.76312e-06 -0.00019692)
(8.84055e-06 -5.5367e-06 -0.000196705)
(6.55503e-06 4.07921e-05 -0.000105524)
(-6.55297e-06 4.07914e-05 -0.000105527)
(5.43955e-06 8.76343e-06 -0.00019695)
(-8.82694e-06 -5.53977e-06 -0.000196676)
(4.09477e-05 6.56883e-06 -0.000105154)
(4.09592e-05 -6.57326e-06 -0.000105158)
(-4.09429e-05 6.56672e-06 -0.000105155)
(-4.09516e-05 -6.57167e-06 -0.000105144)
(8.82651e-06 5.49973e-06 -0.000196698)
(-5.47485e-06 -8.76481e-06 -0.000196967)
(6.56079e-06 -4.07805e-05 -0.000105564)
(-6.56525e-06 -4.07883e-05 -0.00010557)
(-8.80763e-06 5.50664e-06 -0.000196638)
(5.43111e-06 -8.76718e-06 -0.000196959)
(-1.52852e-06 -2.81174e-05 -0.000215447)
(2.39158e-06 -2.96606e-06 -0.000195915)
(-2.80903e-05 -1.5113e-06 -0.000215444)
(-2.96598e-06 2.39423e-06 -0.000196024)
(-1.03735e-06 1.78915e-07 -0.00015987)
(-7.48295e-07 -1.83351e-06 -0.000194544)
(1.8688e-07 -1.05714e-06 -0.000159899)
(-1.84745e-06 -7.25206e-07 -0.000194733)
(1.93898e-06 -1.2288e-05 -0.00031009)
(1.16845e-06 -2.33957e-06 -0.000195958)
(-1.33135e-06 1.66053e-07 -0.000149757)
(-8.32037e-07 -1.95294e-06 -0.000186716)
(1.32658e-06 1.6245e-07 -0.000149756)
(8.27971e-07 -1.95556e-06 -0.000186713)
(2.80868e-05 -1.51399e-06 -0.00021543)
(2.96836e-06 2.3957e-06 -0.000196007)
(1.03269e-06 1.76345e-07 -0.000159872)
(7.44428e-07 -1.836e-06 -0.00019454)
(-1.87628e-07 -1.05651e-06 -0.000159881)
(1.8506e-06 -7.18474e-07 -0.00019472)
(-1.23325e-05 1.96124e-06 -0.000310558)
(-2.33751e-06 1.18522e-06 -0.000196088)
(1.75428e-07 -1.35763e-06 -0.000149775)
(-1.95908e-06 -8.21334e-07 -0.000186894)
(1.74619e-07 1.35726e-06 -0.000149774)
(-1.95881e-06 8.20073e-07 -0.000186907)
(1.23394e-05 -1.96253e-06 -0.000310507)
(2.3345e-06 -1.18812e-06 -0.000196071)
(1.23322e-05 1.95685e-06 -0.000310519)
(2.33703e-06 1.18335e-06 -0.000196071)
(-1.75393e-07 -1.359e-06 -0.000149764)
(1.95875e-06 -8.20903e-07 -0.000186892)
(-1.75994e-07 1.36061e-06 -0.000149763)
(1.96074e-06 8.1854e-07 -0.000186888)
(-1.53241e-06 2.81232e-05 -0.000215483)
(2.38817e-06 2.96759e-06 -0.00019594)
(1.85795e-07 1.05323e-06 -0.000159884)
(-1.85456e-06 7.12006e-07 -0.000194715)
(-1.03651e-06 -1.77115e-07 -0.000159886)
(-7.48385e-07 1.83327e-06 -0.000194567)
(-1.94598e-06 1.22959e-05 -0.000310115)
(-1.17402e-06 2.33676e-06 -0.000195976)
(1.94212e-06 1.22925e-05 -0.000310129)
(1.16907e-06 2.34017e-06 -0.00019598)
(-1.33025e-06 -1.64067e-07 -0.000149769)
(-8.30675e-07 1.95494e-06 -0.000186726)
(1.32577e-06 -1.63148e-07 -0.000149765)
(8.28106e-07 1.95533e-06 -0.000186729)
(2.80913e-05 1.48309e-06 -0.000215373)
(2.97444e-06 -2.40901e-06 -0.000195957)
(1.50112e-06 2.81351e-05 -0.000215481)
(-2.40097e-06 2.9732e-06 -0.000195933)
(-1.8458e-07 1.0521e-06 -0.000159858)
(1.85512e-06 7.07983e-07 -0.00019467)
(1.03337e-06 -1.75272e-07 -0.000159881)
(7.42805e-07 1.83744e-06 -0.000194562)
(-9.02111e-07 2.3843e-07 -0.000154837)
(-5.24848e-07 2.02044e-07 -0.00014763)
(2.44989e-07 -9.13833e-07 -0.000154953)
(2.1013e-07 -5.38669e-07 -0.000147695)
(-2.77303e-07 1.10336e-07 -0.000142783)
(-4.81079e-07 1.73639e-07 -0.000145929)
(1.02147e-07 -2.6317e-07 -0.000142907)
(1.66093e-07 -4.63614e-07 -0.000146113)
(1.26775e-06 2.71751e-07 -0.000144795)
(8.48156e-07 2.70969e-07 -0.000138196)
(-4.85058e-07 1.63368e-07 -0.000133718)
(-7.77482e-07 2.29317e-07 -0.000136548)
(4.81534e-07 1.62461e-07 -0.000133723)
(7.7612e-07 2.28745e-07 -0.000136547)
(-2.42711e-07 -9.10494e-07 -0.000154939)
(-2.07372e-07 -5.33918e-07 -0.00014768)
(2.72431e-07 1.0774e-07 -0.000142796)
(4.78922e-07 1.72059e-07 -0.000145932)
(-1.0423e-07 -2.64616e-07 -0.000142891)
(-1.66846e-07 -4.62576e-07 -0.000146097)
(2.75271e-07 1.27519e-06 -0.000144931)
(2.77467e-07 8.66506e-07 -0.00013825)
(1.60473e-07 -4.781e-07 -0.00013385)
(2.28099e-07 -7.65343e-07 -0.000136754)
(1.60722e-07 4.77971e-07 -0.000133846)
(2.27719e-07 7.64167e-07 -0.000136751)
(-2.74358e-07 -1.27781e-06 -0.000144917)
(-2.77085e-07 -8.64604e-07 -0.000138243)
(-2.75828e-07 1.27795e-06 -0.000144918)
(-2.80028e-07 8.69895e-07 -0.000138243)
(-1.60965e-07 -4.79211e-07 -0.000133841)
(-2.27323e-07 -7.6226e-07 -0.000136742)
(-1.60829e-07 4.78717e-07 -0.000133834)
(-2.28263e-07 7.66217e-07 -0.000136742)
(-9.00455e-07 -2.36675e-07 -0.000154845)
(-5.22536e-07 -2.01399e-07 -0.000147643)
(1.01754e-07 2.63622e-07 -0.000142894)
(1.66359e-07 4.63794e-07 -0.0001461)
(-2.7559e-07 -1.09849e-07 -0.000142798)
(-4.77797e-07 -1.72489e-07 -0.000145941)
(-1.27134e-06 -2.73052e-07 -0.000144808)
(-8.48268e-07 -2.7109e-07 -0.000138208)
(1.2668e-06 -2.72509e-07 -0.00014481)
(8.46249e-07 -2.70724e-07 -0.000138207)
(-4.86348e-07 -1.63732e-07 -0.000133732)
(-7.75486e-07 -2.29578e-07 -0.00013656)
(4.8557e-07 -1.62797e-07 -0.000133729)
(7.75926e-07 -2.29267e-07 -0.00013656)
(-2.42503e-07 9.10274e-07 -0.000154914)
(-2.09202e-07 5.36863e-07 -0.000147661)
(8.99048e-07 -2.36379e-07 -0.00015484)
(5.19905e-07 -1.99785e-07 -0.000147642)
(-1.01951e-07 2.63587e-07 -0.000142868)
(-1.65494e-07 4.61411e-07 -0.000146076)
(2.75978e-07 -1.09911e-07 -0.000142801)
(4.7875e-07 -1.72334e-07 -0.000145942)
(-2.66184e-07 8.8104e-08 -0.000141735)
(-1.43878e-07 5.18712e-08 -0.000139739)
(6.9758e-08 -2.2827e-07 -0.000141964)
(4.3512e-08 -1.30383e-07 -0.000139856)
(-7.88078e-08 2.09897e-08 -0.00013736)
(-1.54802e-07 3.83021e-08 -0.000138927)
(1.7827e-08 -7.52572e-08 -0.000137454)
(2.13305e-08 -1.21099e-07 -0.000139145)
(4.48559e-07 1.27662e-07 -0.000132677)
(2.67083e-07 8.8214e-08 -0.000130925)
(-1.45147e-07 4.36158e-08 -0.000128761)
(-2.64589e-07 6.35904e-08 -0.000130106)
(1.44413e-07 4.33604e-08 -0.000128763)
(2.64102e-07 6.32469e-08 -0.000130107)
(-6.92765e-08 -2.2786e-07 -0.000141946)
(-4.19293e-08 -1.28314e-07 -0.000139845)
(7.81543e-08 2.13483e-08 -0.000137378)
(1.56404e-07 3.93407e-08 -0.000138939)
(-1.72757e-08 -7.43708e-08 -0.000137444)
(-1.7784e-08 -1.14745e-07 -0.00013913)
(1.1886e-07 4.19861e-07 -0.000132935)
(8.34046e-08 2.59487e-07 -0.000131046)
(4.18058e-08 -1.44901e-07 -0.000128853)
(5.35642e-08 -2.36225e-07 -0.000130353)
(4.29324e-08 1.46654e-07 -0.000128853)
(5.26782e-08 2.3293e-07 -0.000130353)
(-1.18973e-07 -4.21694e-07 -0.000132927)
(-8.3632e-08 -2.57764e-07 -0.000131045)
(-1.19284e-07 4.21865e-07 -0.000132921)
(-8.34689e-08 2.57207e-07 -0.000131032)
(-4.17243e-08 -1.4437e-07 -0.000128852)
(-5.21677e-08 -2.31629e-07 -0.00013035)
(-4.12076e-08 1.4269e-07 -0.000128841)
(-5.1988e-08 2.31033e-07 -0.000130338)
(-2.66683e-07 -8.75831e-08 -0.000141747)
(-1.41152e-07 -5.056e-08 -0.000139749)
(1.93201e-08 7.66505e-08 -0.000137444)
(2.07341e-08 1.20628e-07 -0.000139134)
(-7.6936e-08 -2.10792e-08 -0.000137375)
(-1.52938e-07 -3.66261e-08 -0.000138936)
(-4.55564e-07 -1.30059e-07 -0.000132687)
(-2.67213e-07 -8.82362e-08 -0.000130936)
(4.55924e-07 -1.30643e-07 -0.000132688)
(2.69526e-07 -9.06674e-08 -0.000130935)
(-1.46336e-07 -4.47085e-08 -0.000128775)
(-2.64199e-07 -6.35399e-08 -0.000130119)
(1.47772e-07 -4.42089e-08 -0.000128769)
(2.64867e-07 -6.3502e-08 -0.000130115)
(-6.89773e-08 2.27885e-07 -0.000141922)
(-4.14736e-08 1.28851e-07 -0.000139817)
(2.67368e-07 -8.89175e-08 -0.000141752)
(1.44164e-07 -5.18189e-08 -0.000139756)
(-1.65271e-08 7.2857e-08 -0.000137416)
(-1.90767e-08 1.17466e-07 -0.000139101)
(8.05001e-08 -2.26465e-08 -0.000137375)
(1.56084e-07 -3.88344e-08 -0.000138939)
(-1.00006e-07 1.31385e-08 -0.000136652)
(-4.6665e-08 6.5391e-09 -0.000135284)
(8.40432e-10 -7.51324e-08 -0.000136841)
(8.90685e-09 -5.4283e-08 -0.000135344)
(-2.67558e-08 -2.48936e-09 -0.000133378)
(-7.35832e-08 1.5732e-09 -0.000134638)
(4.60521e-09 -4.2071e-08 -0.00013341)
(-4.29497e-09 -5.94773e-08 -0.000134798)
(1.5746e-07 2.47341e-08 -0.000128044)
(8.58971e-08 2.23176e-08 -0.000126885)
(-4.75605e-08 8.07429e-09 -0.000125149)
(-1.06466e-07 5.95435e-09 -0.00012622)
(4.69381e-08 7.50218e-09 -0.00012516)
(1.06902e-07 6.5158e-09 -0.000126226)
(4.9929e-10 -7.24029e-08 -0.000136837)
(-4.60174e-09 -4.71726e-08 -0.000135343)
(2.7697e-08 -2.8118e-09 -0.000133402)
(7.52924e-08 2.58048e-09 -0.000134654)
(-3.23485e-09 -3.95775e-08 -0.000133407)
(6.1008e-09 -5.57584e-08 -0.000134795)
(1.89888e-08 1.40314e-07 -0.000128258)
(2.14757e-08 8.92467e-08 -0.000126933)
(1.24732e-08 -6.31333e-08 -0.00012517)
(2.84975e-09 -9.3931e-08 -0.000126398)
(1.10498e-08 6.04164e-08 -0.000125169)
(8.53865e-10 8.94774e-08 -0.000126399)
(-1.80256e-08 -1.37751e-07 -0.000128259)
(-1.98035e-08 -8.33434e-08 -0.00012694)
(-1.75124e-08 1.37346e-07 -0.000128249)
(-1.95614e-08 8.46649e-08 -0.000126924)
(-9.91004e-09 -5.86503e-08 -0.000125172)
(-6.03755e-11 -8.51463e-08 -0.000126402)
(-9.50198e-09 5.59822e-08 -0.00012516)
(1.47704e-09 8.42398e-08 -0.000126391)
(-9.97091e-08 -1.30304e-08 -0.000136663)
(-4.67894e-08 -6.31698e-09 -0.000135296)
(3.16014e-09 4.11951e-08 -0.000133397)
(-5.30616e-09 5.79166e-08 -0.000134787)
(-2.6554e-08 2.63206e-09 -0.000133387)
(-7.26225e-08 -1.24979e-09 -0.000134645)
(-1.60058e-07 -2.57235e-08 -0.000128057)
(-8.16427e-08 -2.10173e-08 -0.000126891)
(1.64859e-07 -2.64133e-08 -0.000128055)
(8.27749e-08 -2.12205e-08 -0.000126891)
(-4.54075e-08 -7.32385e-09 -0.000125156)
(-1.0487e-07 -5.66389e-09 -0.000126227)
(4.73317e-08 -8.07127e-09 -0.00012516)
(1.06462e-07 -5.51951e-09 -0.00012623)
(-8.57946e-10 7.29605e-08 -0.00013681)
(-5.40106e-09 4.92351e-08 -0.00013531)
(1.04643e-07 -1.60933e-08 -0.000136669)
(4.94349e-08 -7.94054e-09 -0.0001353)
(-9.22376e-10 3.79758e-08 -0.000133377)
(8.47164e-09 5.1335e-08 -0.000134763)
(2.90366e-08 1.15544e-09 -0.000133392)
(7.61323e-08 -3.08457e-09 -0.000134652)
(-5.34633e-08 -7.38115e-09 -0.000132767)
(-1.63419e-08 -7.58565e-09 -0.00013157)
(-1.04932e-08 -4.45063e-08 -0.000132898)
(1.23595e-09 -3.66536e-08 -0.00013158)
(-2.52878e-08 -4.97918e-09 -0.000129841)
(-4.80004e-08 -9.52626e-09 -0.000130987)
(6.41437e-09 -4.95325e-08 -0.000129833)
(-9.59931e-09 -4.47352e-08 -0.000131098)
(7.60737e-08 -4.46022e-09 -0.000124532)
(3.55379e-08 4.2984e-09 -0.000123525)
(-3.47967e-08 6.53418e-10 -0.000121938)
(-6.6851e-08 -6.8265e-09 -0.000122909)
(3.55463e-08 1.80245e-09 -0.000121956)
(7.10958e-08 -6.42366e-09 -0.000122919)
(1.14978e-08 -4.31717e-08 -0.0001329)
(-8.22219e-10 -3.68651e-08 -0.000131585)
(2.42286e-08 -4.83489e-09 -0.000129874)
(5.32034e-08 -6.57845e-09 -0.000131011)
(-7.74731e-09 -5.10719e-08 -0.000129839)
(1.23838e-08 -4.13344e-08 -0.000131102)
(-6.37062e-09 6.64981e-08 -0.000124674)
(9.88704e-09 5.57947e-08 -0.000123506)
(7.96269e-09 -5.71798e-08 -0.000121915)
(-6.67452e-09 -6.36383e-08 -0.000123037)
(9.02199e-09 5.90317e-08 -0.000121916)
(-5.87299e-09 6.62723e-08 -0.000123038)
(6.65731e-09 -6.6739e-08 -0.000124676)
(-8.12239e-09 -5.48715e-08 -0.000123509)
(8.34165e-09 6.33957e-08 -0.000124664)
(-7.17586e-09 5.07563e-08 -0.000123495)
(-9.0826e-09 -5.86328e-08 -0.000121917)
(6.66128e-09 -6.45292e-08 -0.000123039)
(-8.73626e-09 5.55721e-08 -0.000121907)
(8.35965e-09 6.05585e-08 -0.000123027)
(-5.45741e-08 7.54428e-09 -0.000132774)
(-1.94757e-08 6.0194e-09 -0.000131591)
(6.96139e-09 5.00673e-08 -0.000129828)
(-8.30902e-09 4.75206e-08 -0.000131094)
(-2.59049e-08 3.76874e-09 -0.00012986)
(-5.17326e-08 8.00574e-09 -0.000131002)
(-7.61871e-08 4.12943e-09 -0.000124528)
(-3.76994e-08 -3.68158e-09 -0.00012352)
(7.8421e-08 3.13837e-09 -0.000124533)
(3.852e-08 -4.85969e-09 -0.000123523)
(-3.67232e-08 -2.31446e-09 -0.000121949)
(-7.18737e-08 5.52555e-09 -0.000122916)
(3.86879e-08 -3.40685e-09 -0.000121956)
(7.36148e-08 4.86685e-09 -0.00012292)
(1.33629e-08 4.06986e-08 -0.000132869)
(4.99751e-10 3.35092e-08 -0.000131558)
(5.77227e-08 5.27663e-09 -0.00013278)
(2.13722e-08 5.02253e-09 -0.000131592)
(-5.05938e-09 4.68755e-08 -0.000129816)
(1.24635e-08 4.03839e-08 -0.000131077)
(2.95606e-08 1.81073e-09 -0.000129864)
(5.46352e-08 5.49081e-09 -0.000131004)
(-5.71401e-08 -5.35658e-09 -0.000129287)
(-1.97089e-08 -7.24455e-09 -0.000128278)
(-5.1272e-09 -5.53177e-08 -0.000129383)
(4.80985e-09 -4.53978e-08 -0.000128256)
(1.7446e-08 -2.35311e-08 -0.000127036)
(-4.47772e-08 -1.0385e-08 -0.00012779)
(-9.282e-09 -1.25066e-08 -0.000127008)
(-9.10766e-09 -4.37598e-08 -0.000127875)
(6.89036e-08 -7.58459e-09 -0.000121379)
(2.30089e-08 -3.80462e-09 -0.000120541)
(3.09575e-08 -2.05542e-08 -0.000119447)
(-4.03266e-08 -1.71701e-08 -0.00012003)
(-2.70025e-08 -1.91437e-08 -0.000119458)
(4.50337e-08 -1.52617e-08 -0.000120039)
(5.58363e-09 -5.24973e-08 -0.000129389)
(-3.05654e-09 -4.44049e-08 -0.000128258)
(-1.63779e-08 -2.26489e-08 -0.000127057)
(4.48872e-08 -1.05787e-08 -0.000127806)
(7.92578e-09 -1.42304e-08 -0.000127003)
(7.06282e-09 -4.91774e-08 -0.000127874)
(-6.24897e-09 6.79432e-08 -0.00012148)
(3.25341e-09 4.49475e-08 -0.000120494)
(-1.16365e-08 4.14662e-09 -0.000119404)
(-1.45605e-08 -4.23786e-08 -0.000120128)
(-1.11536e-08 -3.67262e-09 -0.000119398)
(-1.41823e-08 4.4016e-08 -0.000120127)
(6.22724e-09 -6.69136e-08 -0.00012148)
(-1.21838e-09 -3.90572e-08 -0.000120494)
(7.19464e-09 6.55114e-08 -0.000121469)
(-2.91993e-09 4.34469e-08 -0.000120481)
(9.45409e-09 -6.05015e-10 -0.000119396)
(1.56896e-08 -4.13155e-08 -0.000120121)
(1.06452e-08 -2.57333e-09 -0.000119384)
(1.39255e-08 4.2753e-08 -0.000120115)
(-5.81808e-08 4.57757e-09 -0.000129299)
(-2.16378e-08 5.70674e-09 -0.000128289)
(-9.45354e-09 1.00988e-08 -0.000126997)
(-7.4216e-09 4.80049e-08 -0.000127865)
(1.48838e-08 2.28145e-08 -0.000127044)
(-4.76941e-08 9.53655e-09 -0.000127796)
(-7.11197e-08 6.36463e-09 -0.000121375)
(-2.12514e-08 3.55949e-09 -0.000120542)
(7.26278e-08 6.11528e-09 -0.000121383)
(1.99809e-08 5.1231e-09 -0.000120545)
(2.88357e-08 1.89478e-08 -0.000119454)
(-4.69135e-08 1.46523e-08 -0.000120035)
(-2.7359e-08 1.80665e-08 -0.000119462)
(4.45553e-08 1.53167e-08 -0.000120041)
(5.88625e-09 5.21696e-08 -0.000129366)
(-4.93616e-09 4.55203e-08 -0.000128233)
(6.25251e-08 2.49698e-09 -0.000129304)
(2.30778e-08 5.66032e-09 -0.00012829)
(8.88616e-09 1.20934e-08 -0.000126981)
(9.65005e-09 4.39466e-08 -0.00012785)
(-1.49389e-08 2.14007e-08 -0.00012705)
(4.73748e-08 9.49709e-09 -0.000127798)
(1.11719e-09 -2.86753e-08 -0.000126655)
(6.77582e-08 -4.20141e-08 -0.000126219)
(-2.46836e-08 -3.67414e-09 -0.000126735)
(-2.4534e-08 3.34293e-08 -0.000126181)
(9.52089e-08 -5.11128e-08 -0.000125691)
(4.59637e-08 -4.55125e-08 -0.000125928)
(-3.41297e-08 5.8877e-08 -0.000125642)
(-4.00995e-08 3.74824e-08 -0.000125995)
(-5.03189e-09 -2.86616e-08 -0.000119051)
(-7.44333e-08 -2.96983e-08 -0.000118757)
(1.04763e-07 -3.75599e-08 -0.000118306)
(5.43292e-08 -4.21652e-08 -0.000118431)
(-9.75995e-08 -3.55566e-08 -0.0001183)
(-4.86801e-08 -4.02634e-08 -0.00011843)
(2.35699e-08 -4.88207e-09 -0.000126731)
(2.25552e-08 2.85452e-08 -0.000126181)
(-9.60838e-08 -5.25595e-08 -0.00012568)
(-4.14783e-08 -4.33195e-08 -0.000125923)
(2.96673e-08 4.97855e-08 -0.000125642)
(3.90988e-08 3.72065e-08 -0.000125996)
(-2.78987e-08 -8.19814e-09 -0.000119134)
(-2.32367e-08 -5.05189e-08 -0.000118695)
(-2.60897e-08 7.044e-08 -0.000118246)
(-3.80412e-08 4.94894e-08 -0.000118517)
(-2.73559e-08 -7.11543e-08 -0.000118239)
(-3.91019e-08 -4.98511e-08 -0.000118513)
(2.54484e-08 2.24882e-09 -0.000119131)
(1.98265e-08 4.3463e-08 -0.000118696)
(2.74163e-08 -6.54994e-09 -0.000119118)
(2.18854e-08 -4.7278e-08 -0.000118675)
(2.50223e-08 6.66841e-08 -0.000118241)
(3.64662e-08 4.53066e-08 -0.000118511)
(2.59319e-08 -6.75219e-08 -0.000118215)
(3.7423e-08 -4.61672e-08 -0.000118491)
(-8.49207e-10 2.777e-08 -0.000126659)
(6.54633e-08 4.07939e-08 -0.000126219)
(-3.4141e-08 -5.78748e-08 -0.000125627)
(-4.14871e-08 -4.13931e-08 -0.000125983)
(9.20532e-08 5.05783e-08 -0.000125681)
(4.5008e-08 4.52274e-08 -0.000125924)
(7.85116e-09 3.06539e-08 -0.000119046)
(7.70753e-08 3.13035e-08 -0.000118756)
(-5.34262e-09 2.85939e-08 -0.000119057)
(-7.34799e-08 2.89683e-08 -0.000118761)
(9.98352e-08 3.55622e-08 -0.0001183)
(5.11201e-08 4.07754e-08 -0.000118429)
(-9.58998e-08 3.48326e-08 -0.000118304)
(-4.63526e-08 3.91722e-08 -0.000118436)
(2.46362e-08 3.71101e-09 -0.000126704)
(2.50581e-08 -3.19165e-08 -0.000126145)
(4.48835e-09 2.61707e-08 -0.000126664)
(-6.13939e-08 3.83196e-08 -0.000126221)
(3.34156e-08 -5.78178e-08 -0.000125605)
(3.99599e-08 -3.83069e-08 -0.000125961)
(-8.8125e-08 4.83016e-08 -0.000125682)
(-3.96665e-08 4.23451e-08 -0.000125925)
(6.87956e-08 -5.34149e-08 -0.000125445)
(9.68371e-08 -5.03239e-08 -0.000125295)
(-4.6971e-08 5.87726e-08 -0.000125502)
(-3.25942e-08 6.08563e-08 -0.000125243)
(8.55561e-08 -4.42138e-08 -0.000124935)
(6.49425e-08 -5.04306e-08 -0.000125062)
(-2.61015e-08 4.93354e-08 -0.000124885)
(-4.28998e-08 5.44032e-08 -0.000125117)
(-6.49178e-08 -4.30989e-08 -0.000118004)
(-9.34559e-08 -3.1127e-08 -0.000117929)
(8.3542e-08 -2.79001e-08 -0.000117592)
(6.19465e-08 -4.05912e-08 -0.000117662)
(-8.83098e-08 -2.92583e-08 -0.000117565)
(-5.95802e-08 -3.91776e-08 -0.000117644)
(4.43407e-08 5.49788e-08 -0.000125505)
(3.30853e-08 5.89094e-08 -0.00012525)
(-8.99949e-08 -4.67844e-08 -0.000124893)
(-6.85994e-08 -5.21433e-08 -0.00012503)
(2.52099e-08 4.74919e-08 -0.000124888)
(3.90366e-08 4.7027e-08 -0.000125126)
(-4.03568e-08 -6.3733e-08 -0.000118091)
(-2.45067e-08 -6.85024e-08 -0.000117883)
(-1.69869e-08 5.24611e-08 -0.00011753)
(-3.46019e-08 5.23263e-08 -0.000117733)
(-1.96602e-08 -5.5924e-08 -0.000117539)
(-3.65421e-08 -5.68274e-08 -0.000117741)
(3.82302e-08 5.92848e-08 -0.000118092)
(2.40085e-08 6.65439e-08 -0.000117887)
(3.89522e-08 -5.9096e-08 -0.000118066)
(2.29281e-08 -6.62492e-08 -0.000117853)
(1.69443e-08 5.14e-08 -0.000117537)
(3.44821e-08 5.19166e-08 -0.00011774)
(1.92141e-08 -5.47413e-08 -0.0001175)
(3.60832e-08 -5.47638e-08 -0.000117708)
(6.56814e-08 5.15766e-08 -0.000125431)
(9.6132e-08 5.01374e-08 -0.000125281)
(-2.81915e-08 -5.17478e-08 -0.000124881)
(-4.24115e-08 -5.32667e-08 -0.000125111)
(8.33842e-08 4.20263e-08 -0.00012492)
(6.34669e-08 4.95507e-08 -0.000125047)
(6.5182e-08 4.21519e-08 -0.000118008)
(9.50543e-08 3.26654e-08 -0.000117937)
(-6.29201e-08 4.19069e-08 -0.000118013)
(-9.50736e-08 3.27596e-08 -0.000117938)
(8.22135e-08 2.66307e-08 -0.000117582)
(5.71228e-08 3.80711e-08 -0.000117654)
(-8.25898e-08 2.71537e-08 -0.000117579)
(-5.82141e-08 3.95605e-08 -0.000117655)
(4.62541e-08 -5.86769e-08 -0.000125467)
(3.31886e-08 -6.08232e-08 -0.000125204)
(-6.10394e-08 4.95765e-08 -0.00012543)
(-9.36724e-08 4.89773e-08 -0.000125276)
(2.77938e-08 -5.08052e-08 -0.000124843)
(4.42322e-08 -5.59664e-08 -0.000125078)
(-8.41659e-08 4.36372e-08 -0.000124906)
(-6.13583e-08 4.88257e-08 -0.00012504)
(5.30131e-08 -4.33541e-08 -0.000124702)
(6.91673e-08 -3.39586e-08 -0.000124591)
(-3.6673e-08 4.28838e-08 -0.000124758)
(-1.85359e-08 3.77599e-08 -0.000124548)
(5.49042e-08 -2.6235e-08 -0.000124247)
(3.67639e-08 -3.36939e-08 -0.000124352)
(-1.50508e-08 3.20409e-08 -0.000124218)
(-2.88594e-08 3.02517e-08 -0.000124411)
(-4.96087e-08 -3.5092e-08 -0.000117275)
(-7.19311e-08 -2.25848e-08 -0.000117207)
(5.72539e-08 -1.60972e-08 -0.000116896)
(3.17164e-08 -2.75334e-08 -0.000116951)
(-5.9713e-08 -1.71189e-08 -0.000116861)
(-3.42785e-08 -2.89332e-08 -0.000116918)
(3.52797e-08 4.18338e-08 -0.000124766)
(1.76876e-08 3.54494e-08 -0.000124554)
(-6.06926e-08 -2.88202e-08 -0.000124194)
(-3.30918e-08 -3.17671e-08 -0.000124299)
(1.2145e-08 2.68194e-08 -0.000124218)
(2.95588e-08 3.19573e-08 -0.000124424)
(-3.05895e-08 -4.17064e-08 -0.000117391)
(-1.21627e-08 -4.02588e-08 -0.000117206)
(-9.46853e-09 3.46708e-08 -0.000116855)
(-2.42994e-08 2.80457e-08 -0.000117028)
(-9.31382e-09 -3.53428e-08 -0.000116874)
(-2.43325e-08 -2.8851e-08 -0.000117047)
(2.81278e-08 3.70728e-08 -0.000117388)
(1.02932e-08 3.6149e-08 -0.000117197)
(3.02295e-08 -4.18394e-08 -0.000117355)
(1.33857e-08 -4.26489e-08 -0.000117164)
(8.31083e-09 3.33315e-08 -0.000116861)
(2.31791e-08 2.58169e-08 -0.000117043)
(8.1415e-09 -3.39008e-08 -0.000116832)
(2.47429e-08 -3.09086e-08 -0.000117015)
(5.06993e-08 4.20166e-08 -0.000124683)
(6.71623e-08 3.26897e-08 -0.000124575)
(-1.44169e-08 -3.17741e-08 -0.000124222)
(-2.89725e-08 -3.10198e-08 -0.000124416)
(5.28705e-08 2.44178e-08 -0.000124234)
(3.37954e-08 3.22587e-08 -0.000124335)
(4.36342e-08 3.22769e-08 -0.000117292)
(6.47216e-08 1.92209e-08 -0.000117232)
(-4.35992e-08 3.3181e-08 -0.000117294)
(-6.90893e-08 2.06994e-08 -0.000117229)
(5.35515e-08 1.43569e-08 -0.000116885)
(2.83999e-08 2.58027e-08 -0.00011694)
(-5.86543e-08 1.67324e-08 -0.000116879)
(-3.35665e-08 2.83919e-08 -0.000116939)
(3.75689e-08 -4.52412e-08 -0.000124721)
(2.08539e-08 -4.21472e-08 -0.000124512)
(-5.1139e-08 4.21344e-08 -0.000124674)
(-6.97078e-08 3.42086e-08 -0.000124559)
(1.41387e-08 -3.09105e-08 -0.00012418)
(3.11584e-08 -3.55733e-08 -0.000124383)
(-5.55647e-08 2.61175e-08 -0.000124211)
(-3.5556e-08 3.31445e-08 -0.000124321)
(2.44444e-08 -2.70339e-08 -0.000123993)
(4.5915e-08 -2.06605e-08 -0.000123903)
(-2.57701e-08 2.3879e-08 -0.000124057)
(-1.12683e-08 2.6794e-08 -0.000123887)
(3.78994e-08 -1.73664e-08 -0.000123547)
(1.57865e-08 -2.28314e-08 -0.000123626)
(-1.15108e-08 2.62871e-08 -0.000123543)
(-2.21832e-08 1.73391e-08 -0.000123691)
(-2.31258e-08 -2.47824e-08 -0.000116559)
(-5.00198e-08 -1.2174e-08 -0.000116515)
(4.30607e-08 -1.1333e-08 -0.000116197)
(1.60096e-08 -2.19459e-08 -0.000116228)
(-5.03253e-08 -1.48729e-08 -0.000116159)
(-1.73328e-08 -2.25975e-08 -0.0001162)
(2.54371e-08 2.61417e-08 -0.000124073)
(1.47862e-08 3.12151e-08 -0.000123889)
(-4.49326e-08 -2.1264e-08 -0.000123485)
(-2.06865e-08 -2.59369e-08 -0.000123578)
(1.18914e-08 2.64525e-08 -0.000123533)
(2.2564e-08 1.67188e-08 -0.000123711)
(-2.22273e-08 -2.12796e-08 -0.000116695)
(-7.31611e-09 -3.21516e-08 -0.000116549)
(-9.2371e-09 3.54235e-08 -0.000116191)
(-2.18289e-08 1.83837e-08 -0.000116313)
(-1.02377e-08 -3.49482e-08 -0.000116209)
(-2.18938e-08 -1.91538e-08 -0.000116337)
(2.15882e-08 2.15349e-08 -0.000116692)
(1.04572e-08 3.69909e-08 -0.000116534)
(2.17369e-08 -2.11603e-08 -0.000116663)
(6.7087e-09 -2.90298e-08 -0.000116505)
(1.02751e-08 3.52714e-08 -0.000116186)
(2.27961e-08 2.2032e-08 -0.000116336)
(8.11183e-09 -3.03643e-08 -0.000116162)
(2.10468e-08 -1.70994e-08 -0.000116309)