/*--------------------------------*- C++ -*----------------------------------*\
| =========                 |                                                 |
| \\      /  F ield         | OpenFOAM: The Open Source CFD Toolbox           |
|  \\    /   O peration     | Version:  2206                                  |
|   \\  /    A nd           | Website:  www.openfoam.com                      |
|    \\/     M anipulation  |                                                 |
\*---------------------------------------------------------------------------*/
FoamFile
{
    version     2.0;
    format      ascii;
    arch        "LSB;label=32;scalar=64";
    class       volScalarField;
    location    "100";
    object      k;
}
// * * * * * * * * * * * * * * * * * * * * * * * * * * * * * * * * * * * * * //

dimensions      [0 2 -2 0 0 0 0];

internalField   nonuniform List<scalar> 
66621
(
2.03202e-05
5.79697e-05
2.05523e-05
7.40092e-05
6.0064e-05
5.33114e-05
1.35102e-05
7.21919e-05
6.55438e-05
5.21007e-05
5.96145e-05
6.64677e-05
3.46489e-05
3.3954e-05
1.31703e-05
1.30357e-05
6.70132e-05
3.44333e-05
3.37232e-05
6.53135e-05
5.8969e-05
3.464e-05
1.34902e-05
7.30106e-05
6.67983e-05
5.8613e-05
5.28418e-05
5.79774e-05
2.13372e-05
7.31102e-05
6.67807e-05
5.31342e-05
6.0413e-05
5.8145e-05
2.11521e-05
7.35546e-05
6.72072e-05
5.3369e-05
5.96176e-05
5.82698e-05
2.07506e-05
6.8418e-05
3.50314e-05
3.4832e-05
1.3385e-05
7.29927e-05
6.55782e-05
5.2248e-05
5.95526e-05
5.86682e-05
2.09078e-05
5.80775e-05
2.10253e-05
1.32572e-05
1.32264e-05
3.18361e-05
1.21236e-05
1.6328e-05
5.20337e-05
1.78917e-05
5.78753e-05
5.22194e-05
1.79286e-05
1.64294e-05
1.23982e-05
3.25511e-05
2.05298e-05
3.22937e-05
1.24214e-05
1.34496e-05
2.60693e-05
1.20291e-05
1.19678e-05
1.20241e-05
1.19538e-05
2.60511e-05
5.75085e-05
2.09264e-05
3.46094e-05
7.10883e-05
7.08657e-05
2.09104e-05
5.73436e-05
5.62991e-05
2.0606e-05
3.41475e-05
7.01658e-05
7.02717e-05
2.06044e-05
5.64343e-05
1.30059e-05
2.53772e-05
1.18482e-05
1.17199e-05
1.18051e-05
1.17179e-05
2.55768e-05
5.58996e-05
2.0769e-05
7.02279e-05
2.08885e-05
5.61784e-05
5.5177e-05
2.016e-05
3.41165e-05
6.93632e-05
2.03311e-05
5.47396e-05
6.99902e-05
1.20337e-05
2.58806e-05
2.09996e-05
7.15906e-05
5.70168e-05
1.66713e-05
1.80566e-05
5.31027e-05
5.77986e-05
1.8178e-05
5.33005e-05
1.67726e-05
1.27643e-05
3.33464e-05
2.13468e-05
3.36919e-05
1.28029e-05
5.23265e-05
1.81377e-05
1.6721e-05
3.32735e-05
1.26878e-05
1.80861e-05
5.23281e-05
1.65341e-05
3.26937e-05
1.25004e-05
2.61839e-05
1.20055e-05
1.20523e-05
1.19767e-05
1.20285e-05
2.62256e-05
5.57007e-05
2.06708e-05
3.47132e-05
7.10785e-05
2.07003e-05
7.11284e-05
5.58058e-05
5.64402e-05
2.11055e-05
3.43975e-05
7.03865e-05
7.0391e-05
2.10693e-05
5.72799e-05
1.32556e-05
1.64605e-05
5.29217e-05
1.8234e-05
5.90123e-05
5.25225e-05
1.81932e-05
1.65791e-05
1.24771e-05
3.30396e-05
2.09702e-05
3.30111e-05
1.24864e-05
1.66148e-05
5.2902e-05
1.82311e-05
5.86589e-05
5.30426e-05
1.81255e-05
1.66028e-05
1.25412e-05
3.29653e-05
2.10281e-05
3.32118e-05
1.25345e-05
1.3239e-05
4.1744e-05
2.98581e-05
3.11691e-05
1.95232e-05
4.21896e-05
2.99298e-05
3.14707e-05
1.95555e-05
4.2275e-05
3.13183e-05
2.98905e-05
1.94409e-05
4.15805e-05
3.14056e-05
2.99389e-05
1.95e-05
6.92822e-05
7.33355e-05
6.69651e-05
7.31509e-05
7.36516e-05
6.67299e-05
6.94836e-05
7.06176e-05
7.49395e-05
7.28523e-05
6.72063e-05
6.39448e-05
7.22276e-05
7.31284e-05
6.39202e-05
7.21739e-05
6.73488e-05
7.09606e-05
6.89832e-05
5.95527e-05
7.34834e-05
7.39766e-05
6.96643e-05
7.11787e-05
7.36506e-05
6.72246e-05
7.52579e-05
7.44674e-05
7.41589e-05
7.44232e-05
7.3785e-05
7.16891e-05
6.67582e-05
7.3765e-05
7.43355e-05
7.07156e-05
7.43382e-05
7.41162e-05
6.89882e-05
7.42955e-05
7.12522e-05
6.73595e-05
7.27127e-05
6.59268e-05
7.23287e-05
7.16781e-05
6.55964e-05
6.7718e-05
6.94596e-05
6.88515e-05
5.8924e-05
7.27497e-05
6.90723e-05
7.28421e-05
7.04234e-05
6.89638e-05
6.63944e-05
7.43755e-05
7.29828e-05
6.6055e-05
7.4261e-05
6.93317e-05
7.10609e-05
7.09088e-05
5.97893e-05
7.42833e-05
7.08657e-05
7.2157e-05
7.45094e-05
6.88829e-05
6.68717e-05
7.33888e-05
7.36067e-05
6.67881e-05
7.34424e-05
6.90838e-05
7.194e-05
6.96585e-05
5.96754e-05
7.28387e-05
7.36298e-05
6.89685e-05
7.20728e-05
7.25936e-05
6.82547e-05
7.54727e-05
7.47985e-05
7.47315e-05
7.51981e-05
7.28405e-05
6.65774e-05
6.4329e-05
7.28018e-05
7.32311e-05
6.43993e-05
7.22044e-05
6.61403e-05
7.05006e-05
6.94397e-05
5.92816e-05
7.30371e-05
7.36479e-05
6.84088e-05
7.07826e-05
3.74924e-06
8.72688e-07
1.55793e-07
4.74536e-08
2.52115e-07
3.7595e-06
8.70946e-07
1.55238e-07
4.7307e-08
2.51453e-07
3.86665e-06
9.17456e-07
1.66481e-07
5.2607e-08
2.84275e-07
3.76973e-06
8.96082e-07
1.62948e-07
5.2304e-08
2.84492e-07
3.73569e-06
8.87359e-07
1.61358e-07
5.20517e-08
2.83799e-07
3.86494e-06
9.17846e-07
1.66738e-07
5.26866e-08
2.8457e-07
3.90928e-06
9.05432e-07
1.61051e-07
4.7908e-08
2.51881e-07
3.87724e-06
8.98139e-07
1.59792e-07
4.78063e-08
2.52017e-07
3.81353e-06
8.84458e-07
1.57568e-07
4.757e-08
2.51772e-07
3.79213e-06
8.99427e-07
1.63472e-07
5.23172e-08
2.84205e-07
3.78546e-06
8.76969e-07
1.56242e-07
4.74215e-08
2.51654e-07
3.80186e-06
8.8033e-07
1.56795e-07
4.74724e-08
2.51631e-07
3.80081e-06
9.02404e-07
1.63995e-07
5.23532e-08
2.84141e-07
3.75197e-06
8.90205e-07
1.61869e-07
5.21309e-08
2.84003e-07
3.65608e-06
8.56602e-07
1.53987e-07
4.8176e-08
2.59145e-07
3.79043e-06
8.91896e-07
1.60838e-07
4.97002e-08
2.65848e-07
3.78894e-06
8.91839e-07
1.60842e-07
4.9737e-08
2.66149e-07
3.67187e-06
8.58967e-07
1.5425e-07
4.81719e-08
2.58971e-07
3.75614e-06
8.70403e-07
1.55145e-07
4.72888e-08
2.51385e-07
3.85543e-06
9.15574e-07
1.66277e-07
5.26101e-08
2.84416e-07
3.91747e-06
9.06187e-07
1.61148e-07
4.81691e-08
2.53917e-07
3.91165e-06
9.05e-07
1.60968e-07
4.81451e-08
2.53847e-07
3.84987e-06
8.9093e-07
1.58619e-07
4.79145e-08
2.53757e-07
3.84814e-06
8.90327e-07
1.58477e-07
4.78512e-08
2.53389e-07
3.73064e-06
8.86399e-07
1.61261e-07
5.2063e-08
2.83929e-07
3.57915e-06
8.47544e-07
1.54097e-07
5.07218e-08
2.78771e-07
3.96664e-06
9.19505e-07
1.63614e-07
4.84731e-08
2.54314e-07
3.73256e-06
8.74785e-07
1.57151e-07
4.85278e-08
2.59488e-07
3.82451e-06
8.99782e-07
1.62185e-07
4.98444e-08
2.65961e-07
3.82939e-06
9.00501e-07
1.62268e-07
4.98843e-08
2.66246e-07
3.74709e-06
8.76921e-07
1.57388e-07
4.85184e-08
2.59282e-07
3.90657e-06
9.04717e-07
1.60929e-07
4.78906e-08
2.51834e-07
3.85373e-06
9.0841e-07
1.63755e-07
5.00081e-08
2.6611e-07
3.74373e-06
8.7686e-07
1.57424e-07
4.85109e-08
2.59281e-07
3.83455e-06
9.03391e-07
1.62901e-07
4.9918e-08
2.66021e-07
3.69835e-06
8.66883e-07
1.55708e-07
4.83312e-08
2.59131e-07
3.56987e-06
8.4409e-07
1.53391e-07
5.06394e-08
2.78692e-07
3.94015e-06
9.10771e-07
1.61924e-07
4.82764e-08
2.54098e-07
3.9279e-06
9.08798e-07
1.61614e-07
4.81967e-08
2.53683e-07
3.77527e-06
8.96775e-07
1.63095e-07
5.22393e-08
2.83845e-07
3.63335e-06
8.51111e-07
1.53064e-07
4.79987e-08
2.58456e-07
3.77859e-06
8.88057e-07
1.60099e-07
4.95984e-08
2.65669e-07
3.7722e-06
8.86586e-07
1.59864e-07
4.95435e-08
2.65396e-07
3.64145e-06
8.52341e-07
1.53255e-07
4.80736e-08
2.58918e-07
3.78436e-06
8.76711e-07
1.56168e-07
4.7339e-08
2.51053e-07
3.6502e-06
8.53963e-07
1.53472e-07
4.80345e-08
2.58486e-07
3.78502e-06
8.899e-07
1.60377e-07
4.96206e-08
2.65678e-07
3.77381e-06
8.8838e-07
1.60199e-07
4.95735e-08
2.65412e-07
3.65095e-06
8.54547e-07
1.53616e-07
4.81059e-08
2.58929e-07
3.79748e-06
8.79176e-07
1.56562e-07
4.73682e-08
2.50996e-07
3.7536e-06
8.90507e-07
1.61883e-07
5.20793e-08
2.83611e-07
3.56979e-06
8.43779e-07
1.53278e-07
5.05963e-08
2.78525e-07
3.54538e-06
8.38027e-07
1.52297e-07
5.05007e-08
2.78512e-07
3.76851e-06
8.96592e-07
1.63151e-07
5.23245e-08
2.84438e-07
3.84201e-06
9.10959e-07
1.65391e-07
5.24461e-08
2.83771e-07
3.84693e-06
9.1207e-07
1.65567e-07
5.24538e-08
2.83703e-07
3.56585e-06
8.43428e-07
1.53295e-07
5.06072e-08
2.78531e-07
3.91068e-06
9.06351e-07
1.61339e-07
4.81952e-08
2.5387e-07
3.90774e-06
9.05257e-07
1.61148e-07
4.81809e-08
2.53894e-07
3.56476e-06
8.42585e-07
1.53081e-07
5.05791e-08
2.7854e-07
3.53998e-06
8.36764e-07
1.5207e-07
5.04631e-08
2.78403e-07
3.51674e-06
8.31933e-07
1.5134e-07
5.0378e-08
2.78253e-07
3.90529e-06
9.04308e-07
1.6089e-07
4.81568e-08
2.53956e-07
3.90967e-06
9.04961e-07
1.60968e-07
4.81253e-08
2.53667e-07
3.48853e-06
8.2617e-07
1.50412e-07
5.02905e-08
2.78227e-07
3.80514e-06
8.8148e-07
1.57083e-07
4.77402e-08
2.53522e-07
3.81451e-06
8.82188e-07
1.57095e-07
4.77284e-08
2.53476e-07
3.50956e-06
8.30916e-07
1.51197e-07
5.03725e-08
2.78307e-07
3.48825e-06
8.25882e-07
1.50345e-07
5.03027e-08
2.78371e-07
3.96425e-06
9.40323e-07
1.70529e-07
5.3001e-08
2.84225e-07
3.97221e-06
9.4195e-07
1.70766e-07
5.30108e-08
2.84148e-07
3.93568e-06
9.33214e-07
1.69229e-07
5.28632e-08
2.84157e-07
3.88421e-06
9.21952e-07
1.67243e-07
5.26407e-08
2.8395e-07
3.55872e-06
8.41873e-07
1.5304e-07
5.05974e-08
2.7865e-07
3.56324e-06
8.42645e-07
1.53138e-07
5.05934e-08
2.78531e-07
3.82203e-06
9.05846e-07
1.64481e-07
5.22784e-08
2.83138e-07
3.82623e-06
9.06848e-07
1.64672e-07
5.23891e-08
2.8387e-07
3.84188e-06
9.10362e-07
1.65241e-07
5.23521e-08
2.83166e-07
3.84685e-06
9.11817e-07
1.6551e-07
5.24699e-08
2.83904e-07
1.30875e-05
1.29707e-05
6.6243e-05
3.41255e-05
3.39148e-05
5.80518e-05
2.05509e-05
7.23379e-05
6.52966e-05
5.89714e-05
5.24651e-05
5.74455e-05
2.13017e-05
7.30309e-05
6.55425e-05
5.27921e-05
6.04168e-05
6.6053e-05
5.90649e-05
2.07336e-05
1.34185e-05
6.85616e-05
3.50176e-05
3.48831e-05
1.33142e-05
7.31468e-05
6.56707e-05
5.14828e-05
5.92536e-05
7.32798e-05
6.41067e-05
5.20256e-05
5.97673e-05
5.80768e-05
2.07863e-05
5.89211e-05
2.09863e-05
6.7563e-05
3.46676e-05
3.41399e-05
1.32772e-05
1.32066e-05
1.18705e-05
1.17306e-05
2.57957e-05
2.06181e-05
7.02767e-05
5.63494e-05
2.0213e-05
6.93172e-05
5.48767e-05
1.64505e-05
5.18521e-05
1.80681e-05
5.84104e-05
1.6425e-05
5.22622e-05
1.82578e-05
1.25024e-05
3.25812e-05
2.07906e-05
1.24214e-05
3.29096e-05
1.68977e-05
1.81349e-05
5.27199e-05
5.87223e-05
1.67531e-05
1.8372e-05
5.38166e-05
1.29278e-05
3.37703e-05
2.15642e-05
1.2819e-05
3.40327e-05
1.26335e-05
3.25193e-05
2.11053e-05
1.24165e-05
3.32533e-05
1.35914e-05
2.60959e-05
1.19944e-05
1.20186e-05
2.61339e-05
1.19901e-05
1.2109e-05
5.59789e-05
2.09473e-05
7.00585e-05
3.51998e-05
7.10579e-05
5.59292e-05
2.10127e-05
5.72605e-05
2.09707e-05
7.03226e-05
3.51573e-05
5.69634e-05
2.13166e-05
7.03221e-05
1.34523e-05
1.66241e-05
5.25508e-05
1.82205e-05
5.89289e-05
1.65548e-05
5.33543e-05
1.82577e-05
1.25074e-05
3.31042e-05
2.09262e-05
1.2463e-05
3.33787e-05
1.66462e-05
5.32662e-05
1.82757e-05
5.89139e-05
1.65652e-05
5.33601e-05
1.82897e-05
1.255e-05
3.32574e-05
2.12152e-05
1.25408e-05
3.34942e-05
2.634e-05
1.20135e-05
1.1961e-05
2.63628e-05
1.20944e-05
1.20137e-05
5.74889e-05
2.09473e-05
7.12826e-05
3.47565e-05
5.75222e-05
7.04125e-05
2.10958e-05
5.64558e-05
2.05609e-05
6.93972e-05
3.42876e-05
5.63645e-05
7.02846e-05
2.0757e-05
1.33657e-05
1.32745e-05
4.23806e-05
3.08605e-05
2.97955e-05
1.97145e-05
4.28545e-05
3.09431e-05
3.02686e-05
1.96112e-05
4.15474e-05
2.99526e-05
2.92555e-05
1.92623e-05
4.00341e-05
2.95128e-05
3.003e-05
1.91853e-05
7.3257e-05
7.44171e-05
7.1541e-05
6.77566e-05
7.18212e-05
6.59395e-05
7.36495e-05
6.77771e-05
7.27015e-05
6.49659e-05
7.10182e-05
6.819e-05
7.26183e-05
5.94201e-05
7.39133e-05
7.07907e-05
6.95083e-05
6.89723e-05
6.64218e-05
7.41833e-05
7.44013e-05
6.90876e-05
6.62472e-05
7.44911e-05
7.24049e-05
7.04907e-05
7.54911e-05
6.09821e-05
7.26036e-05
7.05379e-05
7.5448e-05
7.12585e-05
7.01166e-05
7.34463e-05
5.99554e-05
7.06912e-05
6.97889e-05
7.26241e-05
7.24383e-05
6.85815e-05
7.53545e-05
7.40183e-05
7.56688e-05
7.27918e-05
7.50453e-05
6.75076e-05
6.28651e-05
7.21112e-05
7.25429e-05
6.74655e-05
6.36916e-05
7.32427e-05
7.04975e-05
7.01298e-05
7.42004e-05
6.00991e-05
7.05316e-05
7.41488e-05
6.99517e-05
6.63566e-05
6.36879e-05
7.31855e-05
7.305e-05
6.72381e-05
6.31802e-05
7.23843e-05
7.05209e-05
6.95812e-05
7.42251e-05
6.00041e-05
7.03625e-05
6.98062e-05
7.40992e-05
7.34064e-05
6.72661e-05
7.5031e-05
7.41535e-05
7.3656e-05
7.51061e-05
7.4258e-05
4.21074e-05
6.68452e-05
4.21494e-05
6.74829e-05
6.50265e-05
6.72898e-05
6.69077e-05
6.7353e-05
6.54243e-05
6.59416e-05
6.52557e-05
6.60495e-05
6.65849e-05
6.8125e-05
6.67285e-05
6.64833e-05
6.65053e-05
6.63554e-05
6.77622e-05
6.76496e-05
6.65588e-05
6.7484e-05
6.56132e-05
6.57064e-05
6.70269e-05
6.64757e-05
6.64227e-05
6.58269e-05
6.80629e-05
6.61036e-05
5.96688e-05
2.10976e-05
2.11571e-05
5.88999e-05
1.35049e-05
1.35412e-05
5.86012e-05
2.05897e-05
2.0677e-05
5.83181e-05
4.26544e-05
4.25991e-05
4.28166e-05
4.2089e-05
4.27696e-05
4.28417e-05
4.27428e-05
7.42181e-05
6.01027e-05
5.34986e-05
6.66775e-05
6.02513e-05
5.36718e-05
7.40987e-05
5.92097e-05
2.11095e-05
5.9262e-05
2.10909e-05
1.35591e-05
1.35245e-05
5.82132e-05
2.0698e-05
5.85893e-05
2.07635e-05
4.26375e-05
4.25311e-05
4.27809e-05
7.42794e-05
5.96991e-05
5.4144e-05
6.6711e-05
7.42287e-05
5.97899e-05
5.35834e-05
1.3656e-05
1.36575e-05
7.33305e-05
5.2394e-05
5.99635e-05
6.58774e-05
5.21977e-05
5.98366e-05
7.29151e-05
3.42981e-05
3.46677e-05
6.78452e-05
3.43735e-05
3.45326e-05
1.34318e-05
1.33566e-05
1.31746e-05
1.31904e-05
3.45632e-05
3.40734e-05
6.62635e-05
3.48403e-05
3.38509e-05
1.3343e-05
1.34654e-05
1.31724e-05
1.31798e-05
6.73549e-05
3.48391e-05
3.38182e-05
3.50045e-05
3.4191e-05
5.98794e-05
2.13012e-05
2.14245e-05
5.98126e-05
7.39177e-05
5.99686e-05
5.1727e-05
6.52018e-05
5.9561e-05
5.18021e-05
7.36045e-05
7.44065e-05
6.04683e-05
5.1238e-05
6.6128e-05
6.0501e-05
5.21232e-05
7.29855e-05
5.97716e-05
2.11256e-05
2.10195e-05
5.93466e-05
5.93892e-05
2.14392e-05
2.12864e-05
5.9899e-05
7.36527e-05
6.44101e-05
5.90657e-05
5.16797e-05
5.93599e-05
5.18308e-05
7.33107e-05
7.42208e-05
6.51385e-05
6.04298e-05
5.18781e-05
5.99431e-05
5.12534e-05
7.40175e-05
3.47479e-05
3.49351e-05
6.77225e-05
3.50481e-05
3.50483e-05
1.35119e-05
1.35295e-05
1.35343e-05
1.35146e-05
6.69555e-05
3.49297e-05
3.51161e-05
3.50828e-05
3.51765e-05
1.35663e-05
1.35616e-05
7.42602e-05
5.86967e-05
5.32032e-05
6.68553e-05
5.85032e-05
5.36769e-05
7.3207e-05
5.89011e-05
2.13188e-05
5.91019e-05
2.10862e-05
7.38532e-05
5.39148e-05
5.98295e-05
6.75401e-05
5.37221e-05
7.42702e-05
6.04401e-05
5.88437e-05
2.06276e-05
2.06955e-05
5.88495e-05
7.4387e-05
6.6581e-05
5.79632e-05
5.36504e-05
5.87665e-05
5.3748e-05
7.40672e-05
5.89697e-05
2.13914e-05
5.89835e-05
2.13534e-05
7.41929e-05
6.72063e-05
5.36934e-05
6.07012e-05
5.29207e-05
7.41483e-05
6.02917e-05
5.84262e-05
2.10775e-05
2.10276e-05
5.89225e-05
7.36017e-05
5.35748e-05
5.90801e-05
6.66947e-05
5.36044e-05
7.40092e-05
5.90031e-05
5.87364e-05
2.08463e-05
5.84437e-05
2.08215e-05
7.36298e-05
6.65179e-05
6.00183e-05
5.3811e-05
6.01878e-05
5.41729e-05
7.44342e-05
5.87648e-05
2.12195e-05
2.12929e-05
5.85137e-05
7.29087e-05
6.73711e-05
5.35758e-05
5.91653e-05
5.36505e-05
7.33886e-05
5.86426e-05
5.89386e-05
2.09237e-05
5.83441e-05
2.08613e-05
1.33011e-05
1.3406e-05
1.32303e-05
1.3232e-05
3.48877e-05
3.4361e-05
6.66247e-05
3.49025e-05
3.41452e-05
5.93382e-05
2.12555e-05
5.99947e-05
2.13175e-05
7.29334e-05
5.9736e-05
5.18615e-05
6.56445e-05
7.25351e-05
5.97808e-05
5.0916e-05
7.3374e-05
5.9593e-05
5.21127e-05
6.56133e-05
7.40979e-05
5.92382e-05
5.2198e-05
3.5097e-05
3.5111e-05
6.77206e-05
3.4753e-05
3.50103e-05
1.35407e-05
1.35371e-05
7.36894e-05
5.85614e-05
5.33603e-05
6.63168e-05
7.39032e-05
5.85616e-05
5.33223e-05
5.89233e-05
2.13514e-05
5.87514e-05
2.13872e-05
7.39184e-05
5.29249e-05
6.09693e-05
6.61544e-05
7.36177e-05
5.36559e-05
5.9769e-05
5.83889e-05
2.10902e-05
5.86844e-05
2.11755e-05
7.41781e-05
5.33752e-05
5.94641e-05
6.67876e-05
7.33384e-05
5.32407e-05
5.86818e-05
5.87953e-05
2.07933e-05
5.8561e-05
2.09311e-05
3.49684e-05
3.50435e-05
6.81728e-05
3.50452e-05
3.48716e-05
1.35533e-05
1.35394e-05
3.51213e-05
1.35219e-05
7.25528e-05
5.2586e-05
6.04741e-05
6.57483e-05
5.20203e-05
5.99498e-05
7.3352e-05
5.93296e-05
2.10949e-05
2.12447e-05
5.89024e-05
5.88515e-05
2.10776e-05
2.12048e-05
5.96287e-05
7.25909e-05
5.99488e-05
7.36564e-05
6.0171e-05
5.86833e-05
2.12081e-05
5.92734e-05
2.11487e-05
1.32951e-05
1.33099e-05
1.33766e-05
1.33639e-05
3.43088e-05
1.33435e-05
1.67287e-05
1.83844e-05
5.26463e-05
5.96522e-05
1.82874e-05
5.32589e-05
1.66136e-05
1.26157e-05
2.11498e-05
3.31202e-05
3.33235e-05
1.25396e-05
1.26289e-05
3.33117e-05
2.10223e-05
3.32954e-05
1.26108e-05
1.65786e-05
5.94002e-05
1.84125e-05
5.33013e-05
1.84024e-05
5.33561e-05
1.66883e-05
1.3478e-05
1.35086e-05
1.66731e-05
5.26134e-05
1.82631e-05
5.86907e-05
5.2737e-05
1.83512e-05
1.66377e-05
1.23902e-05
2.05733e-05
3.25563e-05
3.21732e-05
1.24805e-05
1.25469e-05
3.25383e-05
2.07012e-05
3.27416e-05
1.25002e-05
1.64463e-05
5.79263e-05
5.25321e-05
1.82974e-05
5.19285e-05
1.80965e-05
1.66244e-05
1.6704e-05
5.93182e-05
1.82234e-05
5.31654e-05
1.84117e-05
5.32325e-05
1.65723e-05
1.26432e-05
3.32637e-05
2.11153e-05
1.26324e-05
3.32855e-05
1.65511e-05
5.94576e-05
1.8326e-05
5.26075e-05
1.66651e-05
1.83837e-05
5.30998e-05
1.26386e-05
3.33151e-05
2.10543e-05
3.32621e-05
1.26453e-05
1.35529e-05
1.35858e-05
1.66557e-05
5.80028e-05
5.23723e-05
1.81688e-05
5.26924e-05
1.81577e-05
1.64867e-05
1.24979e-05
3.26625e-05
2.06494e-05
1.25217e-05
3.23249e-05
1.64784e-05
5.85247e-05
5.26314e-05
1.83592e-05
1.66446e-05
5.2087e-05
1.83215e-05
1.25302e-05
3.26966e-05
2.07555e-05
3.28419e-05
1.25395e-05
1.36343e-05
1.35882e-05
2.60254e-05
1.20019e-05
1.18696e-05
1.19752e-05
1.19521e-05
2.57128e-05
5.68119e-05
6.98037e-05
3.4418e-05
2.09911e-05
7.09417e-05
2.09881e-05
5.67321e-05
5.60141e-05
6.972e-05
3.43e-05
2.07467e-05
7.0034e-05
2.07369e-05
5.55905e-05
5.65028e-05
2.09594e-05
3.4195e-05
7.03199e-05
6.98963e-05
2.08303e-05
5.65403e-05
5.52702e-05
2.07363e-05
3.47283e-05
6.95782e-05
6.91197e-05
2.07606e-05
5.5698e-05
2.61008e-05
1.19866e-05
1.19903e-05
1.20524e-05
1.19873e-05
2.58714e-05
1.3428e-05
1.34092e-05
1.32064e-05
1.32465e-05
2.56329e-05
1.18551e-05
1.18186e-05
1.18932e-05
1.18073e-05
2.55783e-05
5.60458e-05
6.95241e-05
3.48137e-05
2.09107e-05
2.07243e-05
7.06612e-05
5.62968e-05
5.48432e-05
6.97866e-05
3.4142e-05
2.04414e-05
2.04385e-05
6.9285e-05
5.52381e-05
5.65452e-05
2.08834e-05
3.49002e-05
6.96731e-05
2.0988e-05
5.65644e-05
7.0461e-05
5.48246e-05
2.05364e-05
3.42683e-05
6.91303e-05
2.05342e-05
5.55206e-05
6.92282e-05
2.55633e-05
1.19183e-05
1.17727e-05
1.18654e-05
1.17954e-05
2.57044e-05
1.34266e-05
1.34323e-05
1.31872e-05
1.32205e-05
2.54574e-05
1.1811e-05
1.17596e-05
2.55025e-05
1.18979e-05
1.17997e-05
5.65989e-05
7.05204e-05
3.48965e-05
2.10149e-05
2.10021e-05
7.06657e-05
5.67384e-05
5.49099e-05
6.88987e-05
3.42567e-05
2.0451e-05
2.04235e-05
6.99114e-05
5.51735e-05
5.60235e-05
2.09346e-05
7.06418e-05
3.4977e-05
5.65339e-05
2.09657e-05
7.05589e-05
5.54957e-05
2.05256e-05
6.91541e-05
3.42858e-05
5.54959e-05
2.05503e-05
7.00971e-05
2.54772e-05
1.19157e-05
1.18242e-05
1.19015e-05
1.18272e-05
2.57362e-05
1.67979e-05
1.85411e-05
5.33903e-05
5.94005e-05
1.85251e-05
5.38921e-05
1.69142e-05
1.27817e-05
2.13802e-05
3.35545e-05
3.36954e-05
1.27113e-05
1.27457e-05
3.34281e-05
2.1445e-05
3.33825e-05
1.2775e-05
1.68363e-05
5.98804e-05
1.84845e-05
5.37843e-05
1.85193e-05
5.34629e-05
1.6758e-05
1.66718e-05
1.83539e-05
5.33229e-05
5.97747e-05
1.67266e-05
1.83035e-05
5.30937e-05
1.26028e-05
2.10023e-05
3.33294e-05
1.26477e-05
3.32906e-05
1.26417e-05
3.30166e-05
2.11759e-05
1.26294e-05
3.33031e-05
1.65399e-05
5.98259e-05
1.84858e-05
5.3173e-05
1.6717e-05
1.84947e-05
5.2578e-05
1.68662e-05
1.8475e-05
5.40844e-05
5.96664e-05
1.68845e-05
1.8452e-05
5.38988e-05
1.27402e-05
2.1297e-05
3.35038e-05
3.37887e-05
1.27689e-05
1.28197e-05
3.36586e-05
2.14919e-05
1.27856e-05
3.3824e-05
1.68466e-05
5.98939e-05
1.84801e-05
5.3946e-05
1.84259e-05
5.39981e-05
1.68988e-05
2.60515e-05
1.19551e-05
1.19652e-05
1.19806e-05
1.2031e-05
2.60198e-05
5.62091e-05
6.97416e-05
3.45707e-05
2.07057e-05
2.07565e-05
7.10409e-05
5.62655e-05
5.6666e-05
7.1611e-05
3.49984e-05
2.1034e-05
7.16673e-05
2.10378e-05
5.6864e-05
5.57822e-05
2.07625e-05
3.5094e-05
7.07061e-05
2.06944e-05
7.03897e-05
5.53381e-05
5.69854e-05
2.10027e-05
3.51437e-05
6.9831e-05
7.08761e-05
2.11256e-05
5.68352e-05
2.60728e-05
1.19802e-05
1.20216e-05
1.19488e-05
1.19427e-05
2.61116e-05
1.35183e-05
1.35562e-05
1.35571e-05
1.34432e-05
2.60356e-05
1.20085e-05
1.20754e-05
2.60952e-05
1.19506e-05
1.20482e-05
5.57719e-05
7.11542e-05
3.5016e-05
2.09008e-05
7.03958e-05
2.08702e-05
5.62971e-05
5.62103e-05
7.10895e-05
3.52022e-05
2.11669e-05
2.1181e-05
7.11063e-05
5.62978e-05
5.57729e-05
2.08709e-05
7.01283e-05
3.51184e-05
7.09992e-05
5.60513e-05
2.06951e-05
5.59032e-05
2.11708e-05
7.05184e-05
3.51015e-05
5.64034e-05
2.1126e-05
6.98981e-05
2.61631e-05
1.20426e-05
1.20767e-05
1.19529e-05
1.20876e-05
2.60882e-05
1.35413e-05
1.35484e-05
1.68075e-05
1.8289e-05
5.86632e-05
5.31591e-05
1.84452e-05
5.29625e-05
1.68157e-05
1.27764e-05
3.3449e-05
2.13423e-05
3.31755e-05
1.27762e-05
1.69111e-05
5.91221e-05
1.84632e-05
5.33818e-05
1.82297e-05
5.33761e-05
1.68434e-05
1.28049e-05
3.33503e-05
2.13184e-05
3.35807e-05
1.27241e-05
1.66466e-05
5.28522e-05
1.83694e-05
5.87452e-05
1.66952e-05
5.27595e-05
1.83477e-05
1.24962e-05
2.06766e-05
3.27208e-05
1.2552e-05
3.27696e-05
1.2502e-05
3.27342e-05
2.0717e-05
1.25291e-05
3.25904e-05
1.65668e-05
5.88463e-05
5.27234e-05
1.83923e-05
1.66755e-05
5.27693e-05
1.84082e-05
1.67728e-05
1.84713e-05
5.8196e-05
5.34084e-05
1.67757e-05
1.83748e-05
5.33532e-05
1.27074e-05
3.32703e-05
2.14106e-05
3.3361e-05
1.2752e-05
1.68371e-05
5.90558e-05
1.846e-05
5.30066e-05
1.84934e-05
5.32241e-05
1.66352e-05
1.27644e-05
3.31551e-05
2.13242e-05
1.27601e-05
3.34228e-05
1.66855e-05
5.27317e-05
1.83146e-05
5.85031e-05
5.29111e-05
1.8378e-05
1.65574e-05
1.26598e-05
2.10858e-05
3.28843e-05
3.31363e-05
1.2614e-05
1.26912e-05
3.31999e-05
2.12163e-05
3.32591e-05
1.26596e-05
1.64597e-05
5.89635e-05
5.26479e-05
1.83865e-05
5.2232e-05
1.81651e-05
1.66455e-05
1.6661e-05
1.83171e-05
5.88961e-05
5.25374e-05
1.83679e-05
5.25922e-05
1.66086e-05
1.2462e-05
3.26396e-05
2.06149e-05
3.22446e-05
1.25194e-05
1.65907e-05
5.86415e-05
1.82832e-05
5.23905e-05
1.80976e-05
5.2441e-05
1.66232e-05
1.25432e-05
3.26472e-05
2.08719e-05
3.27515e-05
1.24502e-05
1.66652e-05
5.30323e-05
1.83665e-05
5.86597e-05
1.67322e-05
5.24797e-05
1.83262e-05
1.27484e-05
2.10865e-05
3.33381e-05
3.33779e-05
1.27431e-05
1.27018e-05
3.33573e-05
2.12575e-05
1.27405e-05
3.32291e-05
1.67248e-05
5.85884e-05
5.30024e-05
1.8322e-05
5.30887e-05
1.83728e-05
1.67e-05
1.66212e-05
1.83924e-05
5.88587e-05
5.27718e-05
1.66833e-05
1.83617e-05
5.26139e-05
1.25077e-05
3.28246e-05
2.09388e-05
3.29017e-05
1.25826e-05
1.67048e-05
5.82399e-05
1.83193e-05
5.28304e-05
1.84157e-05
5.2837e-05
1.67133e-05
1.254e-05
3.28001e-05
2.08275e-05
1.25443e-05
3.26019e-05
1.3375e-05
1.34236e-05
1.31873e-05
1.32399e-05
2.54936e-05
1.18067e-05
1.17919e-05
1.18719e-05
1.18054e-05
2.5342e-05
5.57174e-05
7.05084e-05
2.09805e-05
3.47623e-05
5.64544e-05
2.09797e-05
7.06052e-05
5.53021e-05
6.98604e-05
2.03766e-05
3.40581e-05
5.54137e-05
2.03026e-05
6.98483e-05
2.55984e-05
1.1894e-05
1.17683e-05
2.55346e-05
1.18876e-05
1.18092e-05
5.65146e-05
2.0997e-05
3.48924e-05
7.07328e-05
2.10005e-05
5.64941e-05
7.074e-05
5.51882e-05
2.0485e-05
3.43853e-05
6.97935e-05
2.05459e-05
5.5189e-05
6.99133e-05
1.69178e-05
6.01428e-05
1.8357e-05
5.33771e-05
1.85476e-05
5.41686e-05
1.67416e-05
1.27754e-05
3.3388e-05
2.14338e-05
1.27542e-05
3.3865e-05
1.68664e-05
6.00261e-05
1.83924e-05
5.36738e-05
1.8476e-05
1.68688e-05
5.35275e-05
1.27489e-05
3.38649e-05
2.13453e-05
3.3874e-05
1.28459e-05
2.59825e-05
1.20163e-05
1.2009e-05
1.20142e-05
1.20321e-05
2.60453e-05
5.60488e-05
7.12369e-05
2.07385e-05
3.4842e-05
2.09025e-05
5.57588e-05
7.1396e-05
5.61751e-05
7.01072e-05
2.10354e-05
3.50157e-05
7.0846e-05
5.61678e-05
2.10629e-05
2.61382e-05
1.19837e-05
1.20751e-05
1.20638e-05
2.6108e-05
1.20788e-05
5.63049e-05
2.09241e-05
3.52223e-05
7.05933e-05
2.09687e-05
7.08054e-05
5.57638e-05
5.62574e-05
2.10101e-05
3.51813e-05
7.12916e-05
7.12551e-05
2.11061e-05
5.68505e-05
1.34502e-05
1.35659e-05
1.68477e-05
5.90669e-05
1.84058e-05
5.33345e-05
1.84371e-05
5.34409e-05
1.68305e-05
1.27372e-05
3.32863e-05
2.13218e-05
1.27374e-05
3.30466e-05
1.66101e-05
5.89073e-05
1.83209e-05
5.33484e-05
1.82457e-05
1.67676e-05
5.31966e-05
1.2721e-05
3.32808e-05
2.14191e-05
3.34969e-05
1.27165e-05
1.67652e-05
5.80207e-05
5.30554e-05
1.83151e-05
5.31676e-05
1.83311e-05
1.67481e-05
1.27342e-05
3.34553e-05
2.10847e-05
3.34303e-05
1.27625e-05
1.66905e-05
5.81765e-05
5.31114e-05
1.83583e-05
5.30048e-05
1.67585e-05
1.82993e-05
1.27057e-05
3.34586e-05
2.11951e-05
3.35357e-05
1.2789e-05
1.66158e-05
5.88358e-05
1.81638e-05
5.28697e-05
1.8228e-05
5.2657e-05
1.65099e-05
1.25884e-05
3.29741e-05
2.09236e-05
1.26051e-05
3.2756e-05
1.67386e-05
5.85078e-05
1.83164e-05
5.31825e-05
1.66403e-05
1.831e-05
5.31462e-05
1.26129e-05
3.28272e-05
2.09948e-05
3.30254e-05
1.25817e-05
2.63291e-05
1.21885e-05
1.21859e-05
1.22033e-05
1.21405e-05
2.62884e-05
5.664e-05
7.1425e-05
3.47976e-05
2.111e-05
2.11238e-05
7.12396e-05
5.65042e-05
5.73448e-05
7.13494e-05
3.52057e-05
2.12979e-05
7.04669e-05
2.10536e-05
5.74803e-05
5.66704e-05
2.1115e-05
3.51853e-05
7.12395e-05
2.11113e-05
7.15485e-05
5.61622e-05
5.7501e-05
2.12187e-05
3.52846e-05
7.14334e-05
7.15111e-05
2.12224e-05
5.72559e-05
2.65476e-05
1.22386e-05
1.21968e-05
1.22358e-05
1.22218e-05
2.65505e-05
1.3546e-05
1.35292e-05
1.21447e-05
2.10897e-05
1.67498e-05
5.31781e-05
1.84495e-05
5.92053e-05
5.29272e-05
1.83741e-05
1.67805e-05
1.27034e-05
2.12471e-05
3.33194e-05
3.30617e-05
1.27093e-05
1.27042e-05
3.34795e-05
2.12423e-05
3.33903e-05
1.27296e-05
1.67774e-05
5.83741e-05
5.33241e-05
1.83448e-05
5.34077e-05
1.81978e-05
1.67569e-05
1.67812e-05
5.3253e-05
1.8262e-05
5.9671e-05
5.35845e-05
1.84574e-05
1.65808e-05
1.25563e-05
2.12525e-05
3.34892e-05
3.3157e-05
1.26536e-05
1.26638e-05
3.33005e-05
2.10548e-05
3.34557e-05
1.26147e-05
1.66003e-05
5.90788e-05
5.30938e-05
1.8412e-05
5.33304e-05
1.83952e-05
1.67324e-05
5.28733e-05
1.82885e-05
1.65535e-05
3.3464e-05
1.26251e-05
5.3397e-05
1.82123e-05
1.65834e-05
3.33379e-05
1.25375e-05
1.32958e-05
1.32936e-05
1.32847e-05
1.33859e-05
1.19801e-05
2.0768e-05
2.98456e-05
3.11354e-05
4.16736e-05
2.9941e-05
3.13045e-05
1.91444e-05
1.9325e-05
2.96984e-05
3.12953e-05
4.22284e-05
2.9529e-05
3.13007e-05
1.9408e-05
1.91338e-05
7.29173e-05
7.49369e-05
7.41418e-05
6.76662e-05
7.52582e-05
7.43563e-05
7.19252e-05
7.16654e-05
7.34046e-05
7.42699e-05
6.64505e-05
7.33001e-05
7.33799e-05
7.1741e-05
7.14128e-05
6.75651e-05
7.376e-05
7.41356e-05
7.44665e-05
7.34102e-05
7.19768e-05
7.27519e-05
7.4901e-05
7.51966e-05
6.63901e-05
7.53104e-05
7.50795e-05
7.27846e-05
7.2914e-05
6.7182e-05
7.49303e-05
7.3802e-05
7.48818e-05
7.51704e-05
7.2547e-05
7.10377e-05
7.36873e-05
7.38297e-05
6.7366e-05
7.13833e-05
7.34972e-05
7.38528e-05
7.28834e-05
7.5092e-05
7.45094e-05
6.75914e-05
7.39576e-05
7.27722e-05
7.50473e-05
7.35718e-05
7.44975e-05
7.48257e-05
6.82743e-05
7.4144e-05
7.54502e-05
7.34678e-05
3.01919e-05
3.17208e-05
4.26403e-05
3.02637e-05
3.15303e-05
1.95704e-05
1.96046e-05
3.1412e-05
2.99399e-05
4.26769e-05
3.15137e-05
3.04097e-05
1.95453e-05
1.96201e-05
3.15569e-05
3.00174e-05
4.28446e-05
3.13997e-05
3.02344e-05
1.9578e-05
1.96139e-05
4.13605e-05
2.98806e-05
3.14468e-05
2.98606e-05
3.13709e-05
1.92279e-05
1.92739e-05
4.25615e-05
3.03384e-05
3.16536e-05
3.02869e-05
3.1537e-05
1.9607e-05
1.95605e-05
4.21675e-05
3.16095e-05
3.04287e-05
3.15422e-05
3.03947e-05
1.92953e-05
1.95013e-05
4.21982e-05
3.13871e-05
3.03685e-05
3.10885e-05
2.98535e-05
1.95609e-05
1.96227e-05
6.9247e-05
7.38495e-05
6.63774e-05
7.32152e-05
7.34582e-05
6.55339e-05
6.911e-05
7.25303e-05
7.52616e-05
5.95972e-05
6.99419e-05
7.53551e-05
7.09578e-05
7.24352e-05
7.15555e-05
7.00344e-05
6.03056e-05
7.45533e-05
7.45314e-05
6.98053e-05
7.0529e-05
6.83535e-05
7.34688e-05
7.42598e-05
6.62215e-05
7.43619e-05
6.65094e-05
6.85903e-05
2.99281e-05
3.17091e-05
4.20297e-05
3.03182e-05
3.17631e-05
1.95627e-05
1.95795e-05
3.16086e-05
2.99114e-05
4.25444e-05
3.16374e-05
3.03064e-05
1.93525e-05
1.94261e-05
3.13475e-05
3.02496e-05
4.23763e-05
3.14639e-05
3.02795e-05
1.96801e-05
1.96529e-05
6.87922e-05
7.44712e-05
7.38063e-05
6.61692e-05
7.3857e-05
6.52477e-05
6.80741e-05
7.24091e-05
7.42587e-05
6.99516e-05
5.90711e-05
7.22457e-05
7.47559e-05
7.03031e-05
6.90432e-05
7.34141e-05
7.29688e-05
6.67404e-05
6.86704e-05
7.2635e-05
6.65153e-05
7.12425e-05
6.93347e-05
6.0057e-05
7.43251e-05
7.46759e-05
6.99084e-05
7.19746e-05
6.69184e-05
6.47001e-05
7.25391e-05
7.3404e-05
6.45984e-05
7.30562e-05
6.58442e-05
7.16434e-05
7.48017e-05
5.99046e-05
6.98618e-05
7.49721e-05
6.97342e-05
7.05667e-05
7.14316e-05
7.00169e-05
6.01527e-05
7.45745e-05
7.46665e-05
7.00312e-05
7.15223e-05
6.7491e-05
7.21329e-05
6.42127e-05
7.1722e-05
6.42648e-05
7.2636e-05
6.63224e-05
7.23368e-05
6.704e-05
7.51931e-05
7.41973e-05
7.42863e-05
7.44886e-05
7.23086e-05
7.17982e-05
6.64217e-05
7.34793e-05
7.42406e-05
7.21138e-05
7.39129e-05
7.43286e-05
7.2358e-05
6.75078e-05
7.30731e-05
7.41195e-05
7.22679e-05
7.44093e-05
7.44254e-05
6.73107e-05
7.32428e-05
6.4645e-05
7.31633e-05
7.32661e-05
6.47699e-05
6.66619e-05
6.98244e-05
7.36642e-05
6.0108e-05
7.00184e-05
7.01003e-05
7.37713e-05
7.06961e-05
7.08111e-05
6.97464e-05
5.93197e-05
7.27754e-05
6.93287e-05
7.24317e-05
7.04918e-05
6.72258e-05
7.38766e-05
7.31022e-05
6.4475e-05
7.31727e-05
6.45063e-05
6.62758e-05
6.77364e-05
7.3791e-05
6.51383e-05
7.43429e-05
7.39817e-05
6.50597e-05
6.68275e-05
7.19045e-05
7.33803e-05
5.99169e-05
7.07897e-05
7.09167e-05
7.47422e-05
7.17489e-05
7.19689e-05
7.0486e-05
6.07525e-05
7.44686e-05
7.05182e-05
7.10716e-05
7.39064e-05
6.80608e-05
7.42779e-05
7.42758e-05
6.37662e-05
7.33712e-05
6.49319e-05
6.79419e-05
6.71296e-05
7.33759e-05
6.47489e-05
7.26958e-05
6.69297e-05
7.33495e-05
6.37956e-05
7.0629e-05
7.23508e-05
5.97224e-05
6.83489e-05
7.26307e-05
6.86289e-05
7.02668e-05
6.96948e-05
6.8797e-05
7.14994e-05
5.91484e-05