/*--------------------------------*- C++ -*----------------------------------*\
| =========                 |                                                 |
| \\      /  F ield         | OpenFOAM: The Open Source CFD Toolbox           |
|  \\    /   O peration     | Version:  2206                                  |
|   \\  /    A nd           | Website:  www.openfoam.com                      |
|    \\/     M anipulation  |                                                 |
\*---------------------------------------------------------------------------*/
FoamFile
{
    version     2.0;
    format      ascii;
    arch        "LSB;label=32;scalar=64";
    class       volScalarField;
    location    "100";
    object      nut;
}
// * * * * * * * * * * * * * * * * * * * * * * * * * * * * * * * * * * * * * //

dimensions      [0 2 -1 0 0 0 0];

internalField   nonuniform List<scalar> 
66621
(
6.83e-08
3.05013e-07
6.88644e-08
6.37313e-07
3.29581e-07
1.33432e-06
3.34373e-08
6.42809e-07
1.19004e-06
1.3341e-06
3.30904e-07
1.14873e-06
1.79884e-07
1.77001e-07
3.25359e-08
3.2147e-08
1.145e-06
1.79632e-07
1.74691e-07
1.1638e-06
3.25917e-07
1.79818e-07
3.32305e-08
6.28096e-07
1.18853e-06
3.20926e-07
1.32415e-06
3.05193e-07
7.15567e-08
6.29441e-07
1.19191e-06
1.33288e-06
3.31421e-07
3.06236e-07
7.08577e-08
6.33278e-07
1.19997e-06
1.33923e-06
3.26935e-07
3.06774e-07
6.96065e-08
1.18423e-06
1.81694e-07
1.81882e-07
3.32782e-08
6.49973e-07
1.18957e-06
1.33769e-06
3.30321e-07
3.14712e-07
7.06032e-08
3.11512e-07
7.10072e-08
3.27371e-08
3.27963e-08
1.57352e-07
2.86926e-08
4.926e-08
2.55907e-07
5.77346e-08
3.04044e-07
2.56518e-07
5.77599e-08
4.96751e-08
2.9305e-08
1.59927e-07
6.88064e-08
1.58785e-07
2.94519e-08
3.31875e-08
1.08961e-07
2.95742e-08
2.94219e-08
2.94906e-08
2.93193e-08
1.09172e-07
2.86241e-07
6.81179e-08
1.79494e-07
4.75653e-07
4.75126e-07
6.80557e-08
2.8537e-07
2.84437e-07
6.71102e-08
1.77949e-07
4.73982e-07
4.7562e-07
6.69949e-08
2.85043e-07
3.21102e-08
1.06302e-07
2.91683e-08
2.87843e-08
2.89752e-08
2.86892e-08
1.07719e-07
2.78534e-07
6.78012e-08
4.7346e-07
6.81923e-08
2.80597e-07
2.7748e-07
6.54558e-08
1.76498e-07
4.64278e-07
6.5965e-08
2.75715e-07
4.69003e-07
2.9426e-08
1.07705e-07
6.82284e-08
4.80655e-07
2.85362e-07
5.03172e-08
5.83166e-08
2.61491e-07
3.03784e-07
5.86375e-08
2.62139e-07
5.07464e-08
3.01739e-08
1.6411e-07
7.16262e-08
1.65825e-07
3.02659e-08
2.57634e-07
5.84882e-08
5.04994e-08
1.63867e-07
2.99409e-08
5.82692e-08
2.57506e-07
4.99483e-08
1.60928e-07
2.96076e-08
1.09351e-07
2.95152e-08
2.96599e-08
2.92703e-08
2.95016e-08
1.09917e-07
2.80886e-07
6.71954e-08
1.7989e-07
4.75382e-07
6.72601e-08
4.76807e-07
2.80739e-07
2.81638e-07
6.8878e-08
1.79526e-07
4.75903e-07
4.76844e-07
6.86673e-08
2.86341e-07
3.28946e-08
5.01491e-08
2.64585e-07
5.949e-08
3.15849e-07
2.62247e-07
5.923e-08
5.05462e-08
2.96565e-08
1.64237e-07
7.08102e-08
1.64176e-07
2.97013e-08
5.06183e-08
2.64489e-07
5.95188e-08
3.13937e-07
2.64847e-07
5.90931e-08
5.0697e-08
2.98042e-08
1.63901e-07
7.09683e-08
1.65198e-07
2.97879e-08
3.27655e-08
1.62791e-06
1.80064e-06
1.8289e-06
1.23874e-06
1.64238e-06
1.80981e-06
1.84076e-06
1.24491e-06
1.64841e-06
1.85316e-06
1.80741e-06
1.23675e-06
1.62377e-06
1.86073e-06
1.81567e-06
1.24085e-06
8.96035e-07
5.84121e-07
9.60562e-07
6.31981e-07
5.88548e-07
9.62249e-07
8.95759e-07
4.74212e-07
6.4763e-07
8.50273e-07
8.89318e-07
9.42789e-07
5.92733e-07
6.52281e-07
9.46145e-07
5.93143e-07
8.92043e-07
8.49514e-07
4.72553e-07
3.30665e-07
6.4502e-07
6.49142e-07
4.77596e-07
8.54518e-07
5.48339e-07
1.15876e-06
7.31398e-07
7.33502e-07
7.23894e-07
7.35221e-07
5.47579e-07
5.3331e-07
1.14884e-06
7.16431e-07
7.26055e-07
5.24504e-07
7.28954e-07
7.28169e-07
4.67738e-07
6.46714e-07
8.36279e-07
8.70503e-07
5.78165e-07
9.45205e-07
6.24209e-07
5.71804e-07
9.45469e-07
8.72303e-07
8.11168e-07
4.61414e-07
3.22496e-07
6.26699e-07
4.63613e-07
6.28624e-07
8.20274e-07
8.92589e-07
9.53234e-07
5.92623e-07
6.30192e-07
9.53555e-07
5.93612e-07
8.94314e-07
8.33991e-07
4.7631e-07
3.27893e-07
6.44179e-07
4.76689e-07
8.44676e-07
6.47026e-07
8.91949e-07
9.6024e-07
5.84316e-07
6.3582e-07
9.64103e-07
5.86836e-07
8.91542e-07
8.4416e-07
4.67357e-07
3.27163e-07
6.31812e-07
6.39702e-07
4.63499e-07
8.4361e-07
5.40868e-07
1.17787e-06
7.32212e-07
7.39158e-07
7.40925e-07
7.32472e-07
5.40858e-07
8.80743e-07
9.48214e-07
5.97273e-07
6.53287e-07
9.53091e-07
5.93396e-07
8.75708e-07
8.43118e-07
4.75469e-07
3.28943e-07
6.39934e-07
6.44904e-07
4.68785e-07
8.48859e-07
5.05758e-09
5.41826e-10
3.52558e-11
2.87987e-12
2.15886e-12
5.07483e-09
5.40733e-10
3.51285e-11
2.87064e-12
2.1528e-12
5.36739e-09
5.76717e-10
3.79539e-11
3.20292e-12
2.43195e-12
5.22922e-09
5.63269e-10
3.71496e-11
3.18479e-12
2.43442e-12
5.18459e-09
5.57777e-10
3.67833e-11
3.16868e-12
2.42747e-12
5.36179e-09
5.76993e-10
3.80147e-11
3.20803e-12
2.43488e-12
5.27692e-09
5.62145e-10
3.64441e-11
2.90707e-12
2.15626e-12
5.22915e-09
5.57694e-10
3.61634e-11
2.9014e-12
2.15802e-12
5.14673e-09
5.49163e-10
3.56593e-11
2.88713e-12
2.15609e-12
5.26158e-09
5.65387e-10
3.72693e-11
3.1854e-12
2.43158e-12
5.10644e-09
5.44471e-10
3.53573e-11
2.87777e-12
2.15466e-12
5.12932e-09
5.46555e-10
3.54826e-11
2.88085e-12
2.15433e-12
5.27084e-09
5.67213e-10
3.73872e-11
3.18747e-12
2.43079e-12
5.20467e-09
5.59551e-10
3.69002e-11
3.17359e-12
2.42921e-12
5.01162e-09
5.34896e-10
3.49689e-11
2.92912e-12
2.21962e-12
5.20932e-09
5.58984e-10
3.66167e-11
3.02583e-12
2.27753e-12
5.20182e-09
5.58795e-10
3.66152e-11
3.02803e-12
2.28011e-12
5.03715e-09
5.36573e-10
3.50313e-11
2.92891e-12
2.21813e-12
5.06532e-09
5.40228e-10
3.51048e-11
2.86949e-12
2.15222e-12
5.34483e-09
5.75365e-10
3.79051e-11
3.20306e-12
2.43316e-12
5.29475e-09
5.6296e-10
3.64831e-11
2.9237e-12
2.17404e-12
5.28182e-09
5.6205e-10
3.64394e-11
2.9222e-12
2.17344e-12
5.20284e-09
5.53483e-10
3.59103e-11
2.90826e-12
2.17266e-12
5.19499e-09
5.52937e-10
3.58753e-11
2.90437e-12
2.16951e-12
5.17177e-09
5.5702e-10
3.67592e-11
3.16933e-12
2.42858e-12
4.97412e-09
5.31596e-10
3.50699e-11
3.08517e-12
2.38463e-12
5.35919e-09
5.71238e-10
3.70425e-11
2.94245e-12
2.17776e-12
5.116e-09
5.46238e-10
3.56873e-11
2.95061e-12
2.22264e-12
5.256e-09
5.63927e-10
3.69236e-11
3.03464e-12
2.27853e-12
5.25696e-09
5.64224e-10
3.69402e-11
3.03703e-12
2.28097e-12
5.14013e-09
5.47778e-10
3.57439e-11
2.95008e-12
2.22088e-12
5.26823e-09
5.61528e-10
3.64135e-11
2.90597e-12
2.15586e-12
5.29228e-09
5.69322e-10
3.72788e-11
3.0445e-12
2.27934e-12
5.13384e-09
5.47673e-10
3.57494e-11
2.94929e-12
2.22036e-12
5.26415e-09
5.66172e-10
3.70843e-11
3.03889e-12
2.2786e-12
5.07129e-09
5.41455e-10
3.53594e-11
2.93834e-12
2.21917e-12
4.96636e-09
5.29471e-10
3.49078e-11
3.08006e-12
2.38394e-12
5.32412e-09
5.65821e-10
3.66613e-11
2.93071e-12
2.17626e-12
5.30166e-09
5.64402e-10
3.65879e-11
2.92581e-12
2.17271e-12
5.23253e-09
5.63563e-10
3.71811e-11
3.18062e-12
2.42851e-12
4.9766e-09
5.31429e-10
3.4757e-11
2.9181e-12
2.21339e-12
5.18853e-09
5.56519e-10
3.64458e-11
3.01929e-12
2.27559e-12
5.17449e-09
5.55466e-10
3.63906e-11
3.01592e-12
2.27325e-12
4.99093e-09
5.32373e-10
3.48027e-11
2.92268e-12
2.21735e-12
5.09925e-09
5.44135e-10
3.53375e-11
2.87271e-12
2.14951e-12
5.00002e-09
5.33207e-10
3.48497e-11
2.9203e-12
2.21356e-12
5.19751e-09
5.57676e-10
3.65094e-11
3.02076e-12
2.27564e-12
5.17661e-09
5.56592e-10
3.6467e-11
3.01786e-12
2.27336e-12
5.00422e-09
5.33747e-10
3.4885e-11
2.92468e-12
2.21735e-12
5.11876e-09
5.45678e-10
3.54271e-11
2.87448e-12
2.14889e-12
5.20051e-09
5.59591e-10
3.69011e-11
3.17041e-12
2.42586e-12
4.96568e-09
5.29276e-10
3.48826e-11
3.07741e-12
2.38223e-12
4.93067e-09
5.25662e-10
3.46598e-11
3.07155e-12
2.38206e-12
5.24864e-09
5.6392e-10
3.72059e-11
3.18685e-12
2.43452e-12
5.34817e-09
5.72765e-10
3.77127e-11
3.19406e-12
2.42871e-12
5.3604e-09
5.73714e-10
3.77562e-11
3.19457e-12
2.42813e-12
4.95978e-09
5.2905e-10
3.48853e-11
3.07796e-12
2.38228e-12
5.286e-09
5.63059e-10
3.65274e-11
2.92558e-12
2.17396e-12
5.27692e-09
5.62223e-10
3.64816e-11
2.92467e-12
2.17417e-12
4.95195e-09
5.28367e-10
3.48353e-11
3.07632e-12
2.38236e-12
4.91661e-09
5.24711e-10
3.46057e-11
3.06922e-12
2.38113e-12
4.89221e-09
5.21829e-10
3.44406e-11
3.06398e-12
2.3796e-12
5.27752e-09
5.61801e-10
3.64259e-11
2.92325e-12
2.17473e-12
5.27772e-09
5.6204e-10
3.6441e-11
2.9213e-12
2.17226e-12
4.85299e-09
5.18223e-10
3.42311e-11
3.05887e-12
2.37962e-12
5.14275e-09
5.47603e-10
3.55631e-11
2.89777e-12
2.17065e-12
5.1494e-09
5.47872e-10
3.5563e-11
2.89701e-12
2.17026e-12
4.87658e-09
5.21057e-10
3.44062e-11
3.06361e-12
2.38007e-12
4.84661e-09
5.17902e-10
3.42139e-11
3.05958e-12
2.38085e-12
5.51788e-09
5.91216e-10
3.88836e-11
3.22781e-12
2.43235e-12
5.53407e-09
5.92492e-10
3.89411e-11
3.22845e-12
2.43168e-12
5.4846e-09
5.87019e-10
3.85926e-11
3.21966e-12
2.43203e-12
5.41248e-09
5.79898e-10
3.81393e-11
3.20617e-12
2.43044e-12
4.94391e-09
5.27906e-10
3.4825e-11
3.07732e-12
2.38331e-12
4.95062e-09
5.28396e-10
3.48478e-11
3.07721e-12
2.38256e-12
5.31742e-09
5.69543e-10
3.75058e-11
3.184e-12
2.4234e-12
5.32821e-09
5.70411e-10
3.75526e-11
3.1908e-12
2.42966e-12
5.34547e-09
5.72398e-10
3.76803e-11
3.18849e-12
2.42354e-12
5.35675e-09
5.73543e-10
3.7745e-11
3.19572e-12
2.42986e-12
3.24932e-08
3.20469e-08
1.12624e-06
1.7731e-07
1.75646e-07
3.05248e-07
6.90221e-08
6.25177e-07
1.1411e-06
3.23135e-07
1.27713e-06
3.02178e-07
7.16425e-08
6.31627e-07
1.13597e-06
1.28125e-06
3.31757e-07
1.14524e-06
3.24189e-07
6.95895e-08
3.32146e-08
1.1444e-06
1.81775e-07
1.82085e-07
3.30517e-08
6.52297e-07
1.17035e-06
1.30667e-06
3.2927e-07
6.53623e-07
1.14168e-06
1.31862e-06
3.31877e-07
3.10719e-07
7.03111e-08
3.15245e-07
7.11822e-08
1.12689e-06
1.79992e-07
1.78056e-07
3.27778e-08
3.27211e-08
2.91628e-08
2.87734e-08
1.07325e-07
6.72605e-08
4.731e-07
2.806e-07
6.5626e-08
4.65057e-07
2.76109e-07
4.98111e-08
2.54918e-07
5.83499e-08
3.0811e-07
4.96095e-08
2.57634e-07
5.91202e-08
2.97486e-08
1.6038e-07
7.00591e-08
2.94666e-08
1.62181e-07
5.12155e-08
5.85768e-08
2.59486e-07
3.09895e-07
5.06122e-08
5.94741e-08
2.65634e-07
3.07857e-08
1.66408e-07
7.26859e-08
3.03642e-08
1.67894e-07
3.00574e-08
1.60129e-07
7.10302e-08
2.93633e-08
1.63919e-07
3.37615e-08
1.08072e-07
2.94536e-08
2.95458e-08
1.0823e-07
2.94708e-08
2.98643e-08
2.81299e-07
6.81322e-08
4.7005e-07
1.82901e-07
4.75764e-07
2.80936e-07
6.86428e-08
2.87541e-07
6.85305e-08
4.77227e-07
1.83691e-07
2.85737e-07
6.98547e-08
4.76464e-07
3.34875e-08
5.08545e-08
2.62331e-07
5.94805e-08
3.16173e-07
5.061e-08
2.66852e-07
5.96324e-08
2.99241e-08
1.64736e-07
7.0891e-08
2.96791e-08
1.6609e-07
5.09136e-08
2.65924e-07
5.96779e-08
3.16092e-07
5.05836e-08
2.66909e-07
5.97227e-08
3.00223e-08
1.65507e-07
7.21927e-08
2.98867e-08
1.66681e-07
1.09252e-07
2.94722e-08
2.93542e-08
1.0939e-07
2.9798e-08
2.95749e-08
2.86598e-07
6.82302e-08
4.78567e-07
1.80689e-07
2.8653e-07
4.71803e-07
6.89855e-08
2.85629e-07
6.70463e-08
4.70099e-07
1.78934e-07
2.84969e-07
4.75343e-07
6.78895e-08
3.32312e-08
3.31347e-08
1.664e-06
1.84125e-06
1.80417e-06
1.2467e-06
1.68116e-06
1.85054e-06
1.83925e-06
1.24602e-06
1.64762e-06
1.8173e-06
1.76959e-06
1.22839e-06
1.58879e-06
1.79852e-06
1.82229e-06
1.2307e-06
7.17002e-07
7.25056e-07
5.32571e-07
8.61239e-07
5.7384e-07
9.2963e-07
6.35249e-07
8.59922e-07
5.79469e-07
9.16849e-07
8.21209e-07
4.58138e-07
6.21689e-07
3.25884e-07
6.33582e-07
8.16336e-07
4.66857e-07
8.77053e-07
9.37222e-07
5.93735e-07
6.42139e-07
8.77369e-07
9.35746e-07
5.94806e-07
8.39737e-07
4.74704e-07
6.49429e-07
3.3519e-07
8.39708e-07
4.74895e-07
6.5005e-07
8.2594e-07
4.71689e-07
6.31814e-07
3.2933e-07
8.17216e-07
4.69307e-07
6.25683e-07
5.38671e-07
1.1614e-06
7.27829e-07
7.29066e-07
7.29449e-07
5.42675e-07
7.38288e-07
8.91994e-07
9.26746e-07
5.92673e-07
6.45681e-07
8.88966e-07
9.33749e-07
6.01121e-07
8.40747e-07
4.81131e-07
6.46722e-07
3.33954e-07
8.35344e-07
6.4779e-07
4.79794e-07
8.76188e-07
9.3859e-07
6.01477e-07
6.50299e-07
8.85832e-07
9.26016e-07
5.93966e-07
8.40055e-07
4.77127e-07
6.45692e-07
3.33178e-07
8.3277e-07
4.78629e-07
6.46192e-07
5.45577e-07
1.13785e-06
7.25633e-07
7.28257e-07
5.48772e-07
7.24974e-07
7.28469e-07
1.66032e-06
1.17012e-06
1.66607e-06
1.17848e-06
1.16492e-06
1.14864e-06
1.14755e-06
1.14023e-06
1.16833e-06
1.17738e-06
1.17019e-06
1.18426e-06
1.14286e-06
1.15406e-06
1.16702e-06
1.15868e-06
1.17837e-06
1.17185e-06
1.18274e-06
1.19982e-06
1.17722e-06
1.15209e-06
1.17109e-06
1.17253e-06
1.14512e-06
1.15974e-06
1.15488e-06
1.14553e-06
1.16189e-06
1.18391e-06
3.20464e-07
7.1119e-08
7.13884e-08
3.15382e-07
3.35884e-08
3.37002e-08
3.09567e-07
6.88703e-08
6.92215e-08
3.05709e-07
1.67961e-06
1.67321e-06
1.68533e-06
1.6426e-06
1.66824e-06
1.66731e-06
1.66692e-06
6.40284e-07
3.28826e-07
1.30395e-06
1.18104e-06
3.31608e-07
1.33074e-06
6.39447e-07
3.18024e-07
7.12252e-08
3.1723e-07
7.11863e-08
3.37596e-08
3.36755e-08
3.06964e-07
6.92602e-08
3.07383e-07
6.95467e-08
1.68316e-06
1.6738e-06
1.68792e-06
6.40572e-07
3.26828e-07
1.31438e-06
1.18482e-06
6.40674e-07
3.28591e-07
1.33532e-06
3.3834e-08
3.38868e-08
6.54015e-07
1.33989e-06
3.32885e-07
1.18622e-06
1.32657e-06
3.32796e-07
6.50623e-07
1.75607e-07
1.7939e-07
1.15296e-06
1.7675e-07
1.78967e-07
3.34133e-08
3.32366e-08
3.26372e-08
3.26949e-08
1.79733e-07
1.74807e-07
1.11916e-06
1.81077e-07
1.73835e-07
3.32394e-08
3.34287e-08
3.26716e-08
3.2529e-08
1.15323e-06
1.81973e-07
1.73834e-07
1.82434e-07
1.76459e-07
3.21687e-07
7.1767e-08
7.22817e-08
3.20378e-07
6.59693e-07
3.32688e-07
1.32279e-06
1.1688e-06
3.31397e-07
1.31983e-06
6.57617e-07
6.64121e-07
3.35586e-07
1.30994e-06
1.1851e-06
3.36703e-07
1.32777e-06
6.52364e-07
3.20044e-07
7.1277e-08
7.09755e-08
3.18755e-07
3.18085e-07
7.23915e-08
7.19289e-08
3.21792e-07
6.58016e-07
1.14978e-06
3.28568e-07
1.31563e-06
3.29385e-07
1.32607e-06
6.54229e-07
6.63288e-07
1.1627e-06
3.36208e-07
1.32093e-06
3.32674e-07
1.31112e-06
6.6078e-07
1.80513e-07
1.79443e-07
1.14487e-06
1.82114e-07
1.80244e-07
3.34512e-08
3.35695e-08
3.37059e-08
3.3559e-08
1.14739e-06
1.82014e-07
1.80805e-07
1.82652e-07
1.8194e-07
3.36971e-08
3.35465e-08
6.40548e-07
3.20482e-07
1.2962e-06
1.18297e-06
3.21304e-07
1.33015e-06
6.31694e-07
3.11271e-07
7.1383e-08
3.09982e-07
7.06432e-08
6.3712e-07
1.31333e-06
3.275e-07
1.19126e-06
1.33107e-06
6.41032e-07
3.32753e-07
3.08565e-07
6.90715e-08
6.93176e-08
3.107e-07
6.41774e-07
1.16291e-06
3.18246e-07
1.33244e-06
3.20926e-07
1.30695e-06
6.38743e-07
3.09317e-07
7.17196e-08
3.11495e-07
7.16251e-08
6.4023e-07
1.16972e-06
1.33338e-06
3.34039e-07
1.2866e-06
6.39672e-07
3.30123e-07
3.08653e-07
7.05745e-08
7.04652e-08
3.08919e-07
6.34924e-07
1.30662e-06
3.22928e-07
1.17813e-06
1.32968e-06
6.38545e-07
3.24323e-07
3.1028e-07
6.97773e-08
3.06389e-07
6.97607e-08
6.35397e-07
1.16323e-06
3.30169e-07
1.33701e-06
3.2937e-07
1.318e-06
6.4226e-07
3.08168e-07
7.11379e-08
7.13903e-08
3.08923e-07
6.28972e-07
1.17402e-06
1.33182e-06
3.25188e-07
1.30625e-06
6.33097e-07
3.20541e-07
3.09034e-07
7.01466e-08
3.08007e-07
6.98644e-08
3.3057e-08
3.33639e-08
3.27419e-08
3.27981e-08
1.81853e-07
1.77451e-07
1.13186e-06
1.82137e-07
1.75274e-07
3.18811e-07
7.18507e-08
3.21297e-07
7.19672e-08
6.51083e-07
3.31519e-07
1.32807e-06
1.17786e-06
6.47953e-07
3.32407e-07
1.29591e-06
6.55083e-07
3.308e-07
1.33445e-06
1.17712e-06
6.62081e-07
3.29445e-07
1.32845e-06
1.82811e-07
1.81698e-07
1.15112e-06
1.8075e-07
1.80993e-07
3.3542e-08
3.35721e-08
6.35139e-07
3.20013e-07
1.29521e-06
1.177e-06
6.37696e-07
3.2122e-07
1.32841e-06
3.10842e-07
7.16485e-08
3.08338e-07
7.17081e-08
6.37346e-07
1.28424e-06
3.34007e-07
1.17056e-06
6.35395e-07
1.33626e-06
3.28588e-07
3.07993e-07
7.07559e-08
3.07918e-07
7.10094e-08
6.39522e-07
1.29685e-06
3.2534e-07
1.18322e-06
6.32927e-07
1.32741e-06
3.22296e-07
3.10108e-07
6.9714e-08
3.07261e-07
7.01986e-08
1.79354e-07
1.81821e-07
1.15882e-06
1.80328e-07
1.81328e-07
3.36509e-08
3.37089e-08
1.83041e-07
3.35628e-08
6.47037e-07
1.3448e-06
3.35315e-07
1.18345e-06
1.32256e-06
3.32992e-07
6.5462e-07
3.1867e-07
7.11523e-08
7.17011e-08
3.15266e-07
3.16071e-07
7.10966e-08
7.15372e-08
3.19199e-07
6.48298e-07
3.32875e-07
6.57921e-07
3.3374e-07
3.13906e-07
7.15949e-08
3.17022e-07
7.13996e-08
3.29197e-08
3.30149e-08
3.32017e-08
3.32842e-08
1.78575e-07
3.31615e-08
5.11017e-08
6.00149e-08
2.63544e-07
3.19397e-07
5.96707e-08
2.65893e-07
5.07087e-08
3.01534e-08
7.14056e-08
1.63736e-07
1.66054e-07
2.98678e-08
3.01227e-08
1.65215e-07
7.09982e-08
1.65436e-07
3.00881e-08
5.06374e-08
3.19003e-07
6.00541e-08
2.6611e-07
6.0023e-08
2.67148e-07
5.09452e-08
3.35126e-08
3.36063e-08
5.04322e-08
2.59746e-07
5.89485e-08
3.07715e-07
2.58425e-07
5.91892e-08
5.02752e-08
2.94449e-08
6.89251e-08
1.57537e-07
1.58107e-07
2.95359e-08
2.97609e-08
1.58383e-07
6.93233e-08
1.60533e-07
2.9663e-08
4.97493e-08
3.06082e-07
2.57384e-07
5.90047e-08
2.56419e-07
5.82778e-08
5.02484e-08
5.09185e-08
3.17497e-07
5.9464e-08
2.66049e-07
6.00469e-08
2.65856e-07
5.06477e-08
3.022e-08
1.64539e-07
7.1278e-08
3.00949e-08
1.65734e-07
5.05593e-08
3.19382e-07
5.97461e-08
2.62702e-07
5.0888e-08
5.98698e-08
2.65757e-07
3.01483e-08
1.65394e-07
7.11382e-08
1.65426e-07
3.0167e-08
3.36634e-08
3.38315e-08
5.02836e-08
3.04465e-07
2.58142e-07
5.86061e-08
2.58542e-07
5.85086e-08
4.9884e-08
2.97145e-08
1.58132e-07
6.92243e-08
2.96545e-08
1.59154e-07
4.98809e-08
3.08874e-07
2.58111e-07
5.91941e-08
5.02581e-08
2.56911e-07
5.9028e-08
2.97334e-08
1.59457e-07
6.95603e-08
1.6124e-07
2.97557e-08
3.3758e-08
3.3614e-08
1.07231e-07
2.95564e-08
2.92223e-08
2.94805e-08
2.93899e-08
1.06382e-07
2.83355e-07
4.67136e-07
1.78572e-07
6.83202e-08
4.75304e-07
6.82918e-08
2.81728e-07
2.83569e-07
4.71598e-07
1.79193e-07
6.75616e-08
4.73942e-07
6.74695e-08
2.80309e-07
2.8068e-07
6.81944e-08
1.77034e-07
4.71078e-07
4.67794e-07
6.77068e-08
2.81828e-07
2.78756e-07
6.74867e-08
1.80729e-07
4.70608e-07
4.67577e-07
6.75009e-08
2.81837e-07
1.08119e-07
2.94936e-08
2.94955e-08
2.95836e-08
2.94632e-08
1.07073e-07
3.33809e-08
3.33321e-08
3.27029e-08
3.28022e-08
1.05766e-07
2.92558e-08
2.90862e-08
2.93081e-08
2.90365e-08
1.06729e-07
2.80327e-07
4.69507e-07
1.82335e-07
6.82528e-08
6.7642e-08
4.77673e-07
2.8021e-07
2.76934e-07
4.67144e-07
1.77496e-07
6.63832e-08
6.62908e-08
4.64571e-07
2.77339e-07
2.81482e-07
6.81549e-08
1.81877e-07
4.70925e-07
6.83748e-08
2.82919e-07
4.7581e-07
2.75286e-07
6.67111e-08
1.76848e-07
4.63631e-07
6.66721e-08
2.80327e-07
4.63242e-07
1.05507e-07
2.9354e-08
2.89236e-08
2.91446e-08
2.89073e-08
1.06595e-07
3.34474e-08
3.33449e-08
3.26947e-08
3.26798e-08
1.05173e-07
2.90628e-08
2.88419e-08
1.05621e-07
2.93103e-08
2.90004e-08
2.81815e-07
4.76598e-07
1.81888e-07
6.87082e-08
6.85639e-08
4.77237e-07
2.8371e-07
2.75827e-07
4.62002e-07
1.76861e-07
6.64206e-08
6.63315e-08
4.67898e-07
2.7845e-07
2.80194e-07
6.82745e-08
4.77123e-07
1.83177e-07
2.81451e-07
6.85103e-08
4.76877e-07
2.80188e-07
6.6639e-08
4.62876e-07
1.78198e-07
2.7871e-07
6.678e-08
4.70026e-07
1.05931e-07
2.93738e-08
2.90936e-08
2.93044e-08
2.90656e-08
1.07089e-07
5.13279e-08
6.05024e-08
2.67451e-07
3.18161e-07
6.04486e-08
2.69239e-07
5.16149e-08
3.0565e-08
7.21942e-08
1.66086e-07
1.67975e-07
3.02918e-08
3.03985e-08
1.66379e-07
7.24214e-08
1.65938e-07
3.0506e-08
5.14728e-08
3.21712e-07
6.02368e-08
2.68665e-07
6.02796e-08
2.67821e-07
5.10961e-08
5.08408e-08
5.98785e-08
2.6623e-07
3.21051e-07
5.10475e-08
5.96698e-08
2.65773e-07
2.99807e-08
7.0916e-08
1.66015e-07
3.01977e-08
1.65463e-07
3.01703e-08
1.64076e-07
7.15041e-08
3.01186e-08
1.65917e-07
5.04451e-08
3.20337e-07
6.02994e-08
2.66162e-07
5.10987e-08
6.02814e-08
2.62517e-07
5.14517e-08
6.02393e-08
2.70226e-07
3.20518e-07
5.15685e-08
6.01426e-08
2.69965e-07
3.03988e-08
7.19726e-08
1.66753e-07
1.68026e-07
3.04549e-08
3.0613e-08
1.67334e-07
7.26677e-08
3.05115e-08
1.68592e-07
5.14259e-08
3.20774e-07
6.02209e-08
2.70161e-07
6.00509e-08
2.69803e-07
5.1648e-08
1.07723e-07
2.94597e-08
2.94971e-08
2.95045e-08
2.9556e-08
1.08695e-07
2.85008e-07
4.71179e-07
1.8086e-07
6.74533e-08
6.75729e-08
4.8041e-07
2.83925e-07
2.82783e-07
4.8038e-07
1.82343e-07
6.84641e-08
4.81679e-07
6.83903e-08
2.82212e-07
2.81532e-07
6.7601e-08
1.82688e-07
4.78054e-07
6.73017e-08
4.75507e-07
2.80562e-07
2.82797e-07
6.83041e-08
1.81758e-07
4.69396e-07
4.75348e-07
6.8733e-08
2.83606e-07
1.07978e-07
2.94777e-08
2.9504e-08
2.9333e-08
2.9388e-08
1.08231e-07
3.33994e-08
3.36185e-08
3.37686e-08
3.33627e-08
1.07624e-07
2.9511e-08
2.969e-08
1.08102e-07
2.94061e-08
2.95816e-08
2.81625e-07
4.81058e-07
1.82346e-07
6.80974e-08
4.75621e-07
6.79894e-08
2.8537e-07
2.79008e-07
4.77817e-07
1.82119e-07
6.89318e-08
6.90075e-08
4.76942e-07
2.80871e-07
2.8277e-07
6.79719e-08
4.73749e-07
1.83714e-07
4.80023e-07
2.82938e-07
6.74823e-08
2.78948e-07
6.88658e-08
4.73049e-07
1.81925e-07
2.79935e-07
6.88503e-08
4.69697e-07
1.09413e-07
2.96558e-08
2.97417e-08
2.94049e-08
2.97623e-08
1.08012e-07
3.35256e-08
3.35005e-08
5.08454e-08
5.89764e-08
3.07709e-07
2.62695e-07
5.94812e-08
2.59799e-07
5.08145e-08
3.03372e-08
1.62318e-07
7.15778e-08
1.64045e-07
3.0318e-08
5.11795e-08
3.12559e-07
5.95497e-08
2.61824e-07
5.87219e-08
2.63869e-07
5.09572e-08
3.0278e-08
1.6262e-07
7.14418e-08
1.64381e-07
3.02437e-08
5.03355e-08
2.59032e-07
5.92478e-08
3.10282e-07
5.04417e-08
2.60435e-07
5.91281e-08
2.96064e-08
6.92757e-08
1.58596e-07
2.97749e-08
1.60746e-07
2.96816e-08
1.60511e-07
6.94514e-08
2.97195e-08
1.5949e-07
5.00302e-08
3.08658e-07
2.60152e-07
5.93479e-08
5.04285e-08
2.58702e-07
5.93602e-08
5.07287e-08
5.95554e-08
3.07459e-07
2.62007e-07
5.06851e-08
5.92879e-08
2.63605e-07
3.00951e-08
1.62544e-07
7.18206e-08
1.6378e-07
3.02907e-08
5.08801e-08
3.09838e-07
5.9505e-08
2.61735e-07
5.96414e-08
2.61174e-07
5.03071e-08
3.03181e-08
1.62725e-07
7.15896e-08
3.02898e-08
1.64546e-07
5.0401e-08
2.60415e-07
5.91024e-08
3.06768e-07
2.59359e-07
5.92765e-08
4.99885e-08
3.00713e-08
7.06702e-08
1.59538e-07
1.63759e-07
2.99046e-08
3.00671e-08
1.61748e-07
7.10587e-08
1.62632e-07
3.00447e-08
4.98064e-08
3.11622e-07
2.58044e-07
5.93057e-08
2.58017e-07
5.85254e-08
5.03188e-08
5.03218e-08
5.90526e-08
3.08777e-07
2.59366e-07
5.92243e-08
2.57709e-07
5.0148e-08
2.96094e-08
1.5783e-07
6.9009e-08
1.57794e-07
2.96316e-08
5.0224e-08
3.0986e-07
5.89527e-08
2.56704e-07
5.82831e-08
2.58955e-07
5.01759e-08
2.97485e-08
1.58734e-07
6.99478e-08
1.60596e-07
2.95443e-08
5.03698e-08
2.60003e-07
5.92457e-08
3.09859e-07
5.06186e-08
2.59132e-07
5.91092e-08
3.02428e-08
7.06421e-08
1.62765e-07
1.63816e-07
3.0238e-08
3.01631e-08
1.63664e-07
7.12695e-08
3.02305e-08
1.6349e-07
5.04308e-08
3.07326e-07
2.61623e-07
5.91376e-08
2.6038e-07
5.92613e-08
5.05779e-08
5.01982e-08
5.93322e-08
3.10881e-07
2.58656e-07
5.0364e-08
5.91973e-08
2.59715e-07
2.96036e-08
1.59748e-07
7.02203e-08
1.61409e-07
2.98608e-08
5.03802e-08
3.05475e-07
5.90627e-08
2.60715e-07
5.93849e-08
2.59083e-07
5.06187e-08
2.97736e-08
1.60851e-07
6.97967e-08
2.97514e-08
1.59663e-07
3.32759e-08
3.3399e-08
3.26794e-08
3.28037e-08
1.05179e-07
2.91023e-08
2.9007e-08
2.92429e-08
2.9034e-08
1.05386e-07
2.78539e-07
4.76227e-07
6.85062e-08
1.81953e-07
2.8114e-07
6.8532e-08
4.77139e-07
2.79053e-07
4.67732e-07
6.61594e-08
1.76473e-07
2.78426e-07
6.59771e-08
4.68117e-07
1.05784e-07
2.92438e-08
2.8879e-08
1.0537e-07
2.92671e-08
2.89625e-08
2.81503e-07
6.85347e-08
1.81929e-07
4.77912e-07
6.85478e-08
2.82349e-07
4.77902e-07
2.7738e-07
6.65077e-08
1.77665e-07
4.67727e-07
6.66722e-08
2.78345e-07
4.68052e-07
5.15878e-08
3.22038e-07
5.98935e-08
2.67239e-07
6.05192e-08
2.70687e-07
5.11891e-08
3.05289e-08
1.66061e-07
7.24781e-08
3.03413e-08
1.68694e-07
5.15441e-08
3.22507e-07
5.99558e-08
2.68176e-07
6.02061e-08
5.15235e-08
2.68051e-07
3.041e-08
1.6862e-07
7.21464e-08
1.68539e-07
3.07166e-08
1.07015e-07
2.96158e-08
2.95978e-08
2.96195e-08
2.95242e-08
1.07576e-07
2.83497e-07
4.81359e-07
6.75957e-08
1.82217e-07
6.81463e-08
2.81587e-07
4.82619e-07
2.80775e-07
4.70426e-07
6.84645e-08
1.82255e-07
4.75983e-07
2.78933e-07
6.86233e-08
1.08406e-07
2.93669e-08
2.96618e-08
2.97166e-08
1.08269e-07
2.96624e-08
2.83072e-07
6.82194e-08
1.83644e-07
4.76812e-07
6.8275e-08
4.78311e-07
2.81168e-07
2.8077e-07
6.83108e-08
1.82043e-07
4.79233e-07
4.78453e-07
6.8653e-08
2.84875e-07
3.33437e-08
3.36104e-08
5.09607e-08
3.10157e-07
5.94163e-08
2.63086e-07
5.94981e-08
2.62415e-07
5.08411e-08
3.02458e-08
1.63443e-07
7.15896e-08
3.02193e-08
1.6246e-07
5.0243e-08
3.10966e-07
5.90156e-08
2.61824e-07
5.88289e-08
5.06246e-08
2.62575e-07
3.01419e-08
1.6281e-07
7.18771e-08
1.64578e-07
3.0176e-08
5.07023e-08
3.0463e-07
2.61644e-07
5.91723e-08
2.61027e-07
5.91461e-08
5.05487e-08
3.02885e-08
1.64245e-07
7.07625e-08
1.65066e-07
3.02142e-08
5.0491e-08
3.07061e-07
2.60589e-07
5.92157e-08
2.61554e-07
5.06871e-08
5.90664e-08
3.01352e-08
1.63585e-07
7.11367e-08
1.64553e-07
3.03709e-08
5.01282e-08
3.08894e-07
5.85913e-08
2.60657e-07
5.87879e-08
2.5846e-07
4.99307e-08
2.99119e-08
1.61813e-07
7.01527e-08
2.98475e-08
1.60613e-07
5.05344e-08
3.08782e-07
5.90691e-08
2.60877e-07
5.02654e-08
5.90543e-08
2.62208e-07
2.99088e-08
1.60493e-07
7.04562e-08
1.62166e-07
2.9867e-08
1.08656e-07
2.99839e-08
3.00292e-08
2.99834e-08
2.98869e-08
1.08839e-07
2.86488e-07
4.78642e-07
1.80765e-07
6.85892e-08
6.86044e-08
4.77774e-07
2.84704e-07
2.87025e-07
4.83364e-07
1.84332e-07
6.94662e-08
4.77668e-07
6.86105e-08
2.86498e-07
2.85628e-07
6.84843e-08
1.82154e-07
4.77754e-07
6.84731e-08
4.79437e-07
2.83326e-07
2.86697e-07
6.92145e-08
1.83983e-07
4.84187e-07
4.84522e-07
6.91377e-08
2.87021e-07
1.10218e-07
3.00776e-08
3.00377e-08
3.00448e-08
3.00734e-08
1.10147e-07
3.37253e-08
3.365e-08
2.98719e-08
6.88248e-08
5.117e-08
2.66141e-07
6.02004e-08
3.16856e-07
2.64363e-07
5.99334e-08
5.11423e-08
3.03534e-08
7.17609e-08
1.65256e-07
1.64631e-07
3.03358e-08
3.0273e-08
1.66245e-07
7.1756e-08
1.66072e-07
3.03855e-08
5.1262e-08
3.13505e-07
2.66293e-07
5.98337e-08
2.67345e-07
5.93407e-08
5.11831e-08
5.12584e-08
2.66469e-07
5.95443e-08
3.19377e-07
2.67573e-07
6.02058e-08
5.05419e-08
2.989e-08
7.16975e-08
1.65773e-07
1.65071e-07
3.01265e-08
3.0204e-08
1.65034e-07
7.10196e-08
1.66317e-07
3.01258e-08
5.07148e-08
3.17303e-07
2.65114e-07
6.00222e-08
2.66886e-07
5.99353e-08
5.10197e-08
2.6397e-07
5.95665e-08
5.04797e-08
1.66491e-07
3.01039e-08
2.66503e-07
5.93091e-08
5.05509e-08
1.65816e-07
2.98934e-08
3.28474e-08
3.29779e-08
3.30392e-08
3.32271e-08
2.94739e-08
6.76833e-08
1.80662e-06
1.87226e-06
1.62874e-06
1.81399e-06
1.84755e-06
1.22624e-06
1.23179e-06
1.80017e-06
1.88144e-06
1.64625e-06
1.79027e-06
1.82776e-06
1.24282e-06
1.22374e-06
5.41643e-07
7.28291e-07
7.33e-07
1.13434e-06
7.23327e-07
7.27925e-07
5.35052e-07
5.32186e-07
7.20771e-07
7.28717e-07
1.11328e-06
7.1144e-07
7.09498e-07
5.33386e-07
5.30852e-07
1.16724e-06
7.16987e-07
7.2105e-07
7.30861e-07
7.22309e-07
5.34479e-07
5.41211e-07
7.3418e-07
7.40779e-07
1.11321e-06
7.31211e-07
7.27433e-07
5.42117e-07
5.43037e-07
1.16126e-06
7.26901e-07
7.20725e-07
7.33389e-07
7.42776e-07
5.39807e-07
5.27431e-07
7.22834e-07
7.22136e-07
1.12971e-06
5.30746e-07
7.14041e-07
7.144e-07
5.42105e-07
7.35006e-07
7.31804e-07
1.13424e-06
7.18252e-07
5.42036e-07
7.27658e-07
5.47619e-07
7.22527e-07
7.42163e-07
1.14539e-06
7.28416e-07
7.23854e-07
5.47607e-07
1.82436e-06
1.90765e-06
1.66475e-06
1.82869e-06
1.85839e-06
1.25411e-06
1.25388e-06
1.89211e-06
1.81191e-06
1.66303e-06
1.86125e-06
1.84223e-06
1.2537e-06
1.25661e-06
1.89992e-06
1.81632e-06
1.67282e-06
1.85803e-06
1.83064e-06
1.25574e-06
1.25613e-06
1.63223e-06
1.81046e-06
1.84739e-06
1.80918e-06
1.88674e-06
1.22691e-06
1.2314e-06
1.67754e-06
1.83666e-06
1.85753e-06
1.8327e-06
1.89637e-06
1.24855e-06
1.24323e-06
1.65736e-06
1.85839e-06
1.84514e-06
1.90151e-06
1.84361e-06
1.2298e-06
1.23964e-06
1.66272e-06
1.84927e-06
1.83753e-06
1.87569e-06
1.80602e-06
1.24764e-06
1.24848e-06
8.97077e-07
5.89394e-07
9.39286e-07
6.31665e-07
5.86213e-07
9.46884e-07
8.81143e-07
8.33911e-07
6.49231e-07
3.28014e-07
4.69575e-07
6.44734e-07
4.77526e-07
8.44294e-07
8.38666e-07
4.71241e-07
3.29947e-07
6.40999e-07
6.45653e-07
4.68601e-07
8.16341e-07
8.60972e-07
6.33494e-07
5.92758e-07
9.44742e-07
5.93393e-07
9.28296e-07
8.78719e-07
1.8134e-06
1.91336e-06
1.6367e-06
1.83646e-06
1.8541e-06
1.25559e-06
1.25528e-06
1.90289e-06
1.81501e-06
1.65311e-06
1.85009e-06
1.83776e-06
1.23869e-06
1.23863e-06
1.89101e-06
1.83081e-06
1.65068e-06
1.84381e-06
1.8326e-06
1.26041e-06
1.25123e-06
8.90583e-07
6.42756e-07
5.88618e-07
9.43598e-07
5.89627e-07
9.42159e-07
8.73469e-07
8.33053e-07
6.38922e-07
4.6982e-07
3.24773e-07
8.38795e-07
6.39675e-07
4.72798e-07
8.69839e-07
6.32958e-07
5.82501e-07
9.46293e-07
8.74848e-07
5.79334e-07
9.28971e-07
8.34299e-07
4.66188e-07
3.28897e-07
6.40762e-07
6.46573e-07
4.69688e-07
8.36866e-07
8.87319e-07
9.55109e-07
5.95187e-07
6.55017e-07
9.57549e-07
6.01378e-07
8.71589e-07
8.53443e-07
6.55478e-07
3.33257e-07
4.7953e-07
6.54784e-07
4.78006e-07
8.42821e-07
8.53168e-07
4.79683e-07
3.33993e-07
6.51813e-07
6.5435e-07
4.80802e-07
8.53018e-07
8.88906e-07
6.43005e-07
9.46744e-07
5.90203e-07
9.43048e-07
5.96078e-07
8.75694e-07
5.38111e-07
1.15705e-06
7.28166e-07
7.26867e-07
7.26077e-07
7.36024e-07
5.36915e-07
5.33695e-07
1.14798e-06
7.13847e-07
7.21057e-07
5.35595e-07
7.25684e-07
7.31634e-07
5.37345e-07
1.13121e-06
7.17189e-07
7.26157e-07
5.37316e-07
7.22551e-07
7.19674e-07
8.94206e-07
6.01708e-07
9.53823e-07
6.53687e-07
6.02958e-07
9.61012e-07
8.81903e-07
8.31958e-07
6.48244e-07
3.34487e-07
4.80251e-07
4.80806e-07
6.45738e-07
8.47465e-07
8.49032e-07
4.78343e-07
3.2914e-07
6.37379e-07
4.75497e-07
6.37588e-07
8.40958e-07
8.86699e-07
6.59201e-07
6.0171e-07
9.53888e-07
6.01125e-07
9.48665e-07
8.7835e-07
8.99743e-07
6.06659e-07
9.61118e-07
6.64381e-07
6.09392e-07
9.65321e-07
8.83934e-07
8.57223e-07
6.4562e-07
3.33506e-07
4.86015e-07
4.86868e-07
6.54124e-07
8.60515e-07
8.63321e-07
4.83793e-07
3.37144e-07
6.52093e-07
4.84125e-07
8.48266e-07
6.50386e-07
8.97897e-07
6.62978e-07
6.11989e-07
9.43448e-07
6.03356e-07
9.55076e-07
9.00649e-07
8.85619e-07
6.03978e-07
9.57226e-07
6.48653e-07
8.86148e-07
6.02567e-07
9.3819e-07
8.46385e-07
6.34054e-07
3.3142e-07
4.68583e-07
6.38911e-07
4.70763e-07
8.38899e-07
8.30852e-07