/*--------------------------------*- C++ -*----------------------------------*\
| =========                 |                                                 |
| \\      /  F ield         | OpenFOAM: The Open Source CFD Toolbox           |
|  \\    /   O peration     | Version:  2206                                  |
|   \\  /    A nd           | Website:  www.openfoam.com                      |
|    \\/     M anipulation  |                                                 |
\*---------------------------------------------------------------------------*/
FoamFile
{
    version     2.0;
    format      ascii;
    arch        "LSB;label=32;scalar=64";
    class       volScalarField;
    location    "100";
    object      omega;
}
// * * * * * * * * * * * * * * * * * * * * * * * * * * * * * * * * * * * * * //

dimensions      [0 0 -1 0 0 0 0];

internalField   nonuniform List<scalar> 
66621
(
297.514
137.002
298.447
54.0847
121.493
20.7709
404.045
52.5896
24.5395
20.4922
121.552
27.2223
192.085
190.87
404.793
405.504
27.5355
188.031
191.779
24.1121
116.557
190.168
405.957
54.2912
24.4752
124.474
20.8615
136.505
298.186
54.2042
25.0995
20.4553
125.096
126.821
298.515
54.7618
25.1093
20.5602
125.082
132.131
298.113
27.452
191.704
190.297
402.214
51.7809
24.5607
20.5741
123.268
132.619
296.131
131.984
296.101
404.96
403.288
199.582
422.534
331.466
155.223
309.896
134.617
153.546
310.4
330.737
423.077
203.538
298.37
203.026
421.752
405.26
239.254
406.742
406.764
407.728
407.711
238.624
140.066
307.209
190.668
83.0776
80.9281
307.254
147.329
142.406
307.048
190.255
83.1509
81.8985
307.552
141.009
405.038
238.726
406.201
407.164
407.423
408.444
237.439
142.771
306.322
78.6036
306.317
142.272
143.261
307.994
188.262
83.4236
308.21
143.042
81.3485
408.949
240.292
307.783
79.7068
145.195
331.323
309.63
154.213
134.171
310.006
151.944
330.518
423.024
203.196
298.031
202.288
423.015
151.826
310.11
331.114
201.537
423.762
310.389
150.46
331.025
199.431
422.202
239.45
406.756
406.351
409.175
407.724
238.594
142.907
307.622
190.246
83.2181
307.766
75.96
145.619
143.436
306.419
188.614
81.5834
76.4188
306.831
141.192
402.97
328.231
150.643
306.505
131.042
148.89
307.163
327.999
420.72
199.517
296.146
198.556
420.4
328.238
151.226
306.309
129.965
150.154
306.728
327.491
420.786
199.402
296.302
198.741
420.791
404.052
17.8749
16.5819
16.6563
15.7605
17.9683
16.5375
16.61
15.7084
17.9052
16.5938
16.5378
15.7193
17.8611
16.5718
16.4892
15.7151
29.9941
62.6421
29.0251
51.0914
61.598
28.421
31.8101
80.3451
52.477
34.7083
29.0067
28.426
59.6774
51.6114
28.1597
54.7107
30.9011
34.2751
79.7353
117.147
53.3641
48.8608
77.9248
36.6783
70.0413
26.0554
42.7118
43.0207
39.1895
42.3835
68.8686
69.7371
27.1614
43.3743
43.1275
71.8795
42.57
42.0849
74.5238
49.1415
36.7889
31.3285
62.7475
29.1139
53.042
61.6986
28.4829
31.6647
36.9729
82.3612
118.254
54.8947
80.6669
53.8071
37.6745
31.1976
29.1746
61.9373
52.8995
28.8388
60.4275
30.352
36.5553
83.2177
122.629
54.0716
81.8041
36.4501
49.3526
30.9011
29.2627
62.0827
53.6903
27.9603
59.9106
31.5777
36.6603
81.8083
122.782
53.9644
52.7339
79.9701
37.4043
66.7997
27.1111
43.2728
42.4566
41.4284
42.3077
72.8959
28.9891
28.3315
59.9896
50.4787
28.1223
59.1604
30.6909
35.6054
79.6129
121.95
53.6569
53.0012
78.0949
36.1827
741.312
1610.64
4418.95
16477.7
116782
740.814
1610.68
4419.14
16479.6
116802
720.397
1590.82
4386.39
16424.7
116892
720.898
1590.86
4386.25
16423
116862
720.537
1590.89
4386.71
16426.9
116912
720.831
1590.74
4386.14
16423.3
116872
740.826
1610.67
4419.13
16479.8
116814
741.466
1610.45
4418.62
16477
116781
740.961
1610.56
4418.71
16476.5
116772
720.72
1590.82
4386.23
16424
116881
741.311
1610.68
4418.93
16478.6
116795
741.201
1610.69
4418.93
16478.6
116802
721.101
1590.94
4386.4
16424.7
116892
720.885
1590.93
4386.68
16426.5
116912
729.52
1601.44
4403.55
16447.3
116752
727.624
1595.56
4392.48
16425.3
116727
728.387
1596
4392.76
16425.5
116727
728.959
1600.84
4403.2
16447
116752
741.54
1611.18
4419.49
16479.9
116802
721.339
1591.29
4386.66
16424.9
116892
739.879
1609.68
4417.06
16475.4
116795
740.587
1610.18
4417.41
16475.6
116795
739.955
1609.68
4417.08
16475.3
116795
740.741
1610.18
4417.43
16475.6
116795
721.347
1591.32
4386.97
16427.1
116912
719.553
1594.34
4393.99
16440.5
116904
740.156
1609.67
4416.94
16473.8
116777
729.587
1601.47
4403.55
16446.7
116747
727.646
1595.56
4392.44
16425.1
116725
728.441
1596
4392.72
16425.4
116725
728.987
1600.87
4403.22
16446.5
116747
741.535
1611.17
4419.49
16480.1
116814
728.179
1595.6
4392.71
16425.7
116749
729.225
1601.07
4403.56
16448.4
116774
728.427
1595.61
4392.72
16426.4
116747
729.272
1601.03
4403.56
16448.5
116769
718.811
1594.22
4394.16
16441
116904
740.056
1609.64
4416.75
16472.6
116759
740.88
1610.2
4417.15
16472.9
116759
721.5
1591.26
4386.51
16424.3
116881
730.086
1601.55
4403.83
16448.6
116769
728.258
1595.74
4392.79
16427.2
116747
729
1596.11
4393
16427.3
116747
729.614
1601.02
4403.53
16448.4
116769
742.14
1611.2
4419.32
16478.9
116795
730.036
1601.56
4403.82
16448.5
116774
728.237
1595.73
4392.77
16426.5
116749
729.011
1596.11
4392.99
16426.7
116749
729.574
1601.03
4403.51
16448.3
116774
741.875
1611.16
4419.28
16478.9
116802
721.776
1591.35
4386.94
16426.7
116912
718.892
1594.21
4394.12
16441.2
116918
719.047
1594.23
4394.05
16441.4
116921
717.997
1589.93
4385.09
16418.9
116835
718.38
1590.46
4385.55
16419.9
116840
717.659
1589.76
4385.16
16419.6
116840
718.953
1594.23
4394.27
16441.8
116918
739.817
1609.69
4416.93
16473.7
116777
740.534
1610.14
4417.23
16474
116777
719.869
1594.7
4394.42
16441.4
116918
720.003
1594.71
4394.36
16441.7
116921
718.845
1594.26
4394.23
16442
116933
739.986
1609.66
4416.9
16473.7
116776
740.788
1610.14
4417.21
16473.9
116776
718.841
1594.24
4394.03
16440.9
116921
739.904
1609.71
4417.03
16474.8
116795
740.768
1610.21
4417.37
16475.1
116795
719.676
1594.67
4394.46
16442.2
116933
719.729
1594.67
4394.28
16441.1
116921
718.437
1590.49
4385.62
16420.1
116852
717.773
1589.81
4385.23
16419.9
116852
717.587
1589.75
4385.01
16418.9
116840
717.639
1589.85
4385.06
16418.6
116831
719.819
1594.74
4394.56
16442
116918
719.756
1594.72
4394.49
16441.3
116904
718.775
1590.48
4385.49
16419.1
116835
718.108
1589.82
4385.1
16418.8
116835
718.718
1590.44
4385.34
16419.1
116840
718.131
1589.8
4384.97
16418.8
116840
402.777
404.742
26.7951
187.049
189.696
131.028
297.743
51.9947
25.6582
118.878
20.4285
130.825
297.333
51.0569
25.245
20.8726
119.576
24.4899
119.529
297.941
403.994
26.7274
188.842
185.472
402.831
49.6817
24.8857
20.3449
115.788
49.3069
24.0215
20.3574
118.538
128.25
295.633
127.652
294.825
27.0396
189.162
186.953
405.067
403.613
407.041
407.687
240.352
306.541
81.7912
143.237
308.002
78.4252
143.388
330.258
147.143
309.65
133.73
331.085
153.171
308.825
420.267
200.411
296.759
421.541
199.132
329.934
309.591
148.74
133.77
331.009
308.907
151.617
419.929
197.107
296.677
422.176
200.648
420.311
197.957
297.132
422.856
202.26
402.572
241.468
407.231
406.78
241.467
406.846
405.468
147.058
307.451
81.7855
190.172
82.6387
145.593
306.117
148.141
306.005
80.0127
189.347
147.428
305.156
81.2735
401.711
326.896
146.232
306.327
126.983
327.104
148.486
306.172
417.97
194.693
295.189
419.925
198.284
326.949
142.26
306.238
130.597
327.481
149.894
306.244
418.023
193.888
293.87
419.61
198.084
241.093
407.621
407.471
240.999
405.88
406.212
148.494
307.01
78.3703
190.335
147.272
80.8865
305.801
148.003
306.667
79.2391
186.608
147.825
75.4811
305.747
402.205
400.622
18.2329
16.7606
16.5148
15.8134
18.0158
16.7211
16.457
15.739
17.6954
16.4819
16.5324
15.681
17.6417
16.4095
16.4792
15.5888
41.7746
40.8835
72.4159
31.9889
56.4107
27.7458
50.6316
31.7825
60.8611
26.9124
38.4054
77.7225
52.941
124.612
51.4477
37.947
76.942
32.2884
28.412
58.9966
50.5636
32.2887
28.0216
58.5122
38.7045
76.1269
53.4311
118.796
36.8425
81.5014
51.1611
38.485
75.4419
50.992
123.331
37.8292
81.3316
52.6959
73.5873
27.0434
41.4747
40.4541
40.3942
72.8572
41.6019
31.2357
27.6756
58.3865
50.9456
30.8107
27.2956
59.3959
38.0569
73.8105
50.1436
122.226
36.2144
53.794
79.965
31.0196
27.4307
54.2564
49.2964
30.1272
27.9035
59.2973
37.0874
74.8824
49.4719
116.545
36.5312
77.3673
48.1913
73.3543
27.1084
42.1999
40.9632
69.3236
40.9621
40.4404
18.2726
26.4014
18.2416
26.2484
25.8111
28.6946
28.4692
28.2096
26.1475
26.0286
26.1606
26.0684
28.564
28.2694
26.7558
26.5167
26.5537
26.4762
26.8636
25.9117
26.5893
27.0008
25.7361
25.7087
27.1177
25.6027
26.144
26.1703
28.5111
26.3255
136.038
296.653
296.366
136.356
402.069
401.815
140.918
298.963
298.707
142.264
18.2913
18.2619
18.2128
18.1887
18.1981
18.1773
18.2185
57.4907
129.941
21.5861
25.2141
129.898
21.2312
57.5304
136.171
296.377
137.736
296.278
401.638
401.614
138.443
298.844
142.994
298.554
18.0359
17.8846
17.998
57.1762
129.743
21.5134
25.2833
57.4414
129.419
21.0171
403.617
403.034
54.5504
21.0937
127.827
25.3319
20.8257
126.846
54.9013
195.311
193.254
28.4275
194.475
192.955
401.989
401.863
403.668
403.439
192.303
194.92
28.3513
192.406
194.73
401.421
402.809
403.175
405.17
27.0235
191.452
194.543
188.072
191.819
136.507
296.811
296.403
137.719
54.1728
126.813
21.0685
25.3387
126.832
20.3525
54.4353
53.9244
128.406
21.0842
24.8891
127.229
20.3697
54.7607
132.68
296.387
296.152
132.398
133.222
296.156
295.937
135.49
52.1253
24.9581
125.643
21.067
120.55
20.9559
52.4954
50.4586
24.7672
125.97
21.0821
124.017
20.983
53.7638
192.495
194.687
28.4302
192.452
194.449
403.928
403.029
401.54
402.713
27.7238
191.906
194.222
190.889
189.342
402.595
404.264
57.3695
131.147
21.5148
24.7848
130.369
20.7562
58.6142
140.883
298.654
141.104
298.489
57.5609
21.6558
129.631
25.2914
21.2045
57.7927
129.39
134.612
298.641
298.56
138.002
51.7925
26.2641
129.779
21.5419
127.7
21.4619
57.7967
132.266
298.265
141.492
298.127
52.0772
25.1593
21.4726
128.308
20.9537
57.9281
122.921
140.616
298.655
298.41
140.873
57.4539
21.5533
131.38
25.6994
20.8437
57.9675
130.525
140.847
298.754
141.249
298.47
51.6945
24.7634
128.137
21.3764
125.142
21.37
56.7196
132.784
298.287
298.26
140.132
51.7795
25.3226
21.5501
129.204
21.4967
57.7263
127.295
132.259
298.286
141.294
298.597
402.37
401.813
404.078
403.439
188.618
189.386
28.2664
191.628
194.811
135.526
295.829
132.763
296.211
53.8778
118.249
20.6734
25.8471
52.0488
125.511
20.8403
53.6106
118.671
20.6858
25.8279
50.8135
126.339
20.8456
186.975
191.981
28.2565
192.271
193.435
403.695
403.223
56.8898
127.017
21.0981
25.9817
55.8233
129.062
21.2658
140.136
298.002
134.813
298.254
56.7257
21.2277
123.155
26.249
55.8452
21.371
128.241
139.499
298.07
133.813
298.207
57.1973
21.0616
120.815
26.289
51.5151
21.2398
129.652
139.811
298.266
138.032
298.17
194.969
192.736
28.3357
194.342
192.312
402.76
401.657
189.078
402.884
53.9574
21.1936
127.745
25.2672
20.8112
127.107
55.1895
136.14
296.475
296.295
136.538
136.026
296.463
296.416
136.944
51.6554
123.42
51.0451
118.837
133.599
296.224
131.296
296.202
403.864
403.147
402.89
401.508
189.097
402.379
327.361
306.33
154.06
129.63
306.472
148.575
327.629
418.385
296.193
202.279
199.127
419.836
419.249
201.626
296.095
198.394
419.13
327.399
130.707
306.598
154.947
306.589
151.515
327.574
402.176
401.968
330.605
158.45
309.815
139.147
152.874
310.043
330.933
420.792
298.488
206.658
203.49
422.554
421.589
205.441
298.619
202.511
421.409
330.583
135.387
159.572
310.101
154.618
310.522
330.844
328.054
134.828
306.461
153.71
306.622
152.702
327.207
418.371
202.163
296.239
419.752
199.846
327.361
130.778
306.731
155.896
327.485
307.061
149.373
419.214
201.429
295.964
198.744
419.178
402.6
401.574
331.236
141.116
158.142
310.016
156.697
310.343
330.501
420.599
206.552
298.297
422.253
203.104
330.354
140.642
159.194
310.153
331.182
152.557
310.387
421.419
205.049
298.382
202.177
421.414
403.885
404.243
242.705
406.068
406.183
406.209
406.676
241.702
151.452
88.3954
192.741
307.246
80.001
307.33
145.773
150.597
86.7711
190.869
307.078
79.3753
307.352
145.155
148.988
307.348
191.39
87.4515
86.0153
307.654
149.601
148.257
307.265
189.796
86.5078
85.2923
307.561
148.541
241.409
406.415
406.513
407.401
406.857
241.623
402.268
402.291
403.83
403.83
242.356
405.221
406.33
405.8
406.637
239.656
150.429
87.0976
187.437
306.371
306.382
79.8932
148.634
150.877
89.021
190.205
307.931
308.317
85.4115
149.189
144.557
306.411
191.471
86.6551
306.955
147.278
85.4417
144.771
307.84
193.695
87.9411
307.988
144.764
82.9545
242.289
406.018
407.027
407.121
408.042
241.141
401.426
402.831
403.345
404.547
242.054
406.396
407.727
241.453
405.928
406.879
151.239
85.2151
190.209
305.858
306.314
83.4786
143.259
151.786
87.8939
192.109
307.901
307.901
82.7715
146.67
149.641
306.623
80.2189
187.183
144.938
306.023
79.1185
150.965
308.013
79.7428
191.434
145.529
307.731
85.8838
240.508
405.655
406.418
406.134
406.913
240.326
327.267
306.453
152.869
130.876
306.461
150.857
327.7
418.182
296.148
202.031
196.321
419.628
419.288
200.916
296.114
199.978
418.772
327.09
134.038
306.865
154.841
307.223
146.127
327.971
327.922
306.519
150.38
130.783
327.667
306.746
152.1
420.362
296.158
199.327
418.831
200.366
419.011
200.286
296.15
419.323
200.603
327.878
132.417
306.567
151.347
327.152
306.806
152.257
327.807
306.693
147.518
130.078
327.419
306.804
150.195
419.103
295.904
200.918
199.644
419.273
418.766
197.486
295.757
419.043
199.233
327.59
130.868
306.872
153.01
306.839
150.897
327.191
241.838
405.813
405.641
406.062
407.06
239.384
150.128
86.7489
189.022
306.963
307.172
78.1897
145.023
151.579
88.1188
191.533
307.227
84.7687
307.614
145.78
146.838
307.133
188.83
85.9948
307.487
84.4129
147.482
142.288
307.488
191.297
87.758
82.2726
307.357
148.827
241.464
406.415
407.456
407.35
406.38
241.257
404.745
403.235
401.47
402.942
241.913
406.916
406.716
241.394
406.4
407.286
150.67
85.2022
188.355
306.925
83.4763
306.963
146.974
151.828
86.6897
191.092
307.071
306.938
80.8517
146.553
145.498
307.051
80.1448
189.282
79.0243
147.255
306.675
150.267
307.422
84.7231
192.945
149.989
306.84
82.4653
239.122
406.078
406.054
406.493
406.139
241.531
403.908
404.425
330.561
310.108
134.818
158.524
310.102
152.675
330.923
421.148
206.071
298.17
201.37
421.407
330.426
135.913
310.047
158.47
310.441
153.641
330.541
422.91
205.082
298.402
204.286
420.72
330.713
150.453
310.044
137.646
330.98
156.745
310.303
422.078
298.468
206.316
421.564
203.462
421.203
200.649
298.296
421.579
204.341
331.136
138.154
157.793
309.906
330.676
157.529
310.11
330.636
310.153
138.777
150.275
330.978
309.925
156.325
422.241
204.685
298.112
203.418
420.989
330.918
135.822
310.226
158.783
310.077
153.613
330.672
421.014
201.615
297.867
421.268
203.122
331.055
157.869
309.879
138.58
156.009
310.039
331.225
420.991
298.369
206.123
201.141
421.806
422.097
205.257
298.575
204.505
421.357
330.474
133.732
159.427
310.029
151.298
310.38
330.801
331.09
310.183
134.922
158.092
310.141
156.125
331.192
420.882
206.802
298.728
204.346
422.501
330.334
136.045
310.134
159.803
310.512
151.759
331.299
421.642
205.673
298.393
203.066
421.408
330.856
152.235
310.007
139.727
330.554
155.071
310.04
421.535
298.497
204.824
203.622
421.427
421.105
201.75
298.27
421.444
203.248
331.639
137.327
157.693
309.819
155.518
310.03
330.184
331.111
309.99
138.779
152.544
331.255
310.177
155.149
422.507
205.477
298.187
202.64
421.376
331.575
135.733
310.168
157.606
310.108
155.453
330.181
421.176
200.902
298.403
421.639
204.192
401.943
401.917
403.535
403.611
242.382
405.696
406.518
405.977
406.606
240.469
151.335
78.5863
306.256
190.111
149.776
306.131
84.7331
151.419
83.7038
307.993
192.993
145.568
307.721
85.0943
241.987
406.719
407.505
242.332
406.175
407.743
146.782
306.37
190.368
85.4332
306.363
148.514
81.8193
149.125
308.009
191.672
86.9746
308.163
149.502
85.2119
327.942
129.861
306.494
152.628
306.475
150.992
327.053
418.468
197.712
295.728
420.357
195.578
327.222
130.936
306.766
147.727
306.879
327.401
146.32
419.232
200.627
295.861
199.979
418.208
242.795
405.738
405.739
405.619
407.533
242.112
150.482
79.8218
306.802
190.661
306.73
145.092
77.1636
151.846
84.4966
307.245
190.335
82.0192
145.922
306.935
241.114
408.068
407.092
405.963
241.14
407.208
148.298
306.718
189.183
85.656
307.121
84.3691
148.62
149.69
307.566
189.926
86.7651
81.0914
307.431
149.99
403.379
403.622
330.602
138.298
309.777
158.179
309.878
153.073
331.041
421.124
202.426
297.834
421.501
203.414
330.596
133.199
310.443
149.787
310.148
331.215
156.036
422.037
204.415
297.996
203.088
421.412
330.66
137.451
158.672
309.522
153.476
309.928
331.326
420.431
201.756
297.964
199.708
422.4
330.564
132.605
154.687
310.023
154.316
330.627
309.809
421.625
204.533
297.949
203.799
421.093
331.466
133.783
310.009
158.209
310.063
152.865
330.657
420.85
203.519
298.258
422.316
203.944
331.232
135.63
310.085
148.602
331.048
310.053
155.6
421.711
204.54
297.983
203.314
421.256
242.317
406.501
405.802
407.002
406.215
241.535
150.425
87.3038
192.502
307.774
307.908
82.2828
144.507
150.63
86.7035
188.314
306.593
81.3825
306.856
149.096
148.234
308.318
191.331
87.3801
308.315
81.7116
148.92
146.157
306.565
191.606
86.1406
80.832
306.958
147.976
240.864
406.9
406.051
407.251
406.398
241.045
401.657
402.057
406.56
306.425
327.337
154.111
306.468
129.761
148.241
306.575
328.113
418.516
296.082
201.623
197.24
418.952
419.653
201.386
296.035
200.478
418.935
327.287
130.688
154.766
306.597
149.291
306.667
327.392
327.383
154.16
306.696
134.485
148.576
306.571
328.06
420.083
296.419
202.018
198.299
420.015
419.275
201.78
296.465
201.156
418.734
327.326
130.534
154.502
306.753
149.718
306.917
327.96
149.601
307.026
327.924
199.196
419.386
148.985
307.074
328.054
199.201
419.407
404.774
403.105
402.088
402.86
406.465
306.841
16.5201
16.6299
18.0033
16.5056
16.6202
15.6122
15.6885
16.4976
16.6337
18.0014
16.4942
16.6352
15.6161
15.6354
76.2125
45.72
45.2083
27.5284
43.0653
42.735
71.1422
76.0401
45.3727
45.6401
26.7828
43.9045
42.0375
71.3268
76.699
27.7657
44.5388
44.791
41.6404
43.8814
70.1621
75.1605
45.2825
45.3467
27.728
42.7528
41.5313
75.489
77.0495
26.9787
44.4795
45.3428
43.5498
42.5351
73.9942
76.6352
42.1045
42.3565
26.4304
75.5526
40.3641
43.6782
76.6864
41.6968
42.1889
26.376
40.6823
71.9649
40.3123
76.1462
45.7302
44.8478
27.7192
42.3505
44.1243
71.5596
16.5493
16.6282
17.8817
16.5494
16.5987
15.605
15.6352
16.6016
16.524
18.1513
16.6041
16.507
15.5901
15.6135
16.6096
16.5265
17.8893
16.6009
16.5158
15.5908
15.6145
17.9527
16.5044
16.6376
16.505
16.627
15.6718
15.652
18.1504
16.5183
16.6202
16.5259
16.6302
15.7039
15.7336
18.1673
16.6138
16.4913
16.588
16.4866
15.6898
15.7314
18.1635
16.5894
16.5268
16.5744
16.53
15.6783
15.7173
33.428
65.0158
30.2977
53.1734
63.8323
28.8299
30.6122
39.5182
57.6033
121.974
86.9713
55.687
78.9034
37.1132
38.4406
86.1864
128.277
57.4897
53.8472
84.8974
36.8287
33.3432
54.0437
65.7861
30.5872
61.0074
29.4234
31.8112
16.5039
16.5725
18.1201
16.509
16.6096
15.5805
15.5978
16.6109
16.48
18.2082
16.6244
16.491
15.6234
15.6836
16.5771
16.5226
18.1014
16.576
16.5227
15.614
15.7068
32.9667
52.9925
65.1498
30.1888
60.7127
28.8875
31.0281
39.5131
57.4911
87.1993
124.086
37.2843
52.8439
78.9667
32.6727
53.9992
65.9191
30.4001
32.4857
62.3104
29.6627
38.3426
85.9462
123.593
57.2993
56.5898
84.6362
38.7056
31.908
29.0692
62.2634
50.5437
27.8136
57.8827
31.1352
37.7419
55.9625
122.008
83.9769
50.018
79.0274
37.176
36.3222
83.6693
120.785
55.2779
54.3124
78.4393
36.9433
30.5082
51.3099
29.2122
62.78
28.1201
59.1919
31.053
74.599
27.1982
45.5411
45.1118
42.6421
42.3136
75.3125
69.1205
27.9844
45.2724
45.5906
74.5656
42.5464
44.9712
75.682
26.8539
43.7882
42.1098
75.4668
42.5998
41.7694
31.9426
61.9417
28.8532
50.3192
57.8089
28.5314
30.4519
37.5453
55.9819
118.938
83.8596
79.3291
51.1133
37.4789
36.7476
83.627
125.428
56.1229
78.4516
55.3951
36.8888
31.7937
51.1848
63.0348
29.0303
59.8651
27.7354
31.6445
31.9841
61.8189
28.8437
52.9924
57.7035
27.7094
29.911
37.9518
56.3307
124.147
83.9162
79.3158
50.3588
35.8567
36.8065
83.1904
121.566
55.585
78.0713
36.1322
54.6425
30.6729
50.9351
62.5262
29.241
58.9714
28.0202
31.2978
31.7068
55.9888
27.7386
50.3992
30.076
60.6634
28.2708
38.6012
55.6118
123.63
83.6372
53.1245
82.7395
35.7254
36.451
82.0598
53.2505
123.011
52.8787
36.5734
82.6606
30.8198
54.4834
62.1874
28.8845
58.6063
28.4951
30.2844
31.9353
59.649
28.2903
51.9919
31.6442
57.9513
28.5988
38.6337
55.6941
119.789
83.3568
78.679
54.9023
37.3086
36.6132
76.1029
52.8853
121.466
36.7458
81.69
54.139
29.7745
52.5445
62.1935
28.9703
62.5078
28.6718
31.4524
72.6209
27.206
45.0632
45.2724
42.3081
44.591
69.2955
72.9173
27.2823
42.0181
41.2663
43.1797
74.8735
44.3598
32.9725
64.6771
30.3664
53.5023
63.1627
28.9387
30.6781
39.2562
58.1614
125.528
86.7881
79.8937
52.5953
38.522
37.3731
86.7571
124.564
55.0994
85.4666
56.637
38.209
32.6969
55.053
65.857
30.6236
59.9968
29.4841
32.6694
33.467
30.2577
53.496
65.755
29.8149
61.3638
32.3762
39.5269
57.0749
86.8671
121.322
83.8456
37.2067
52.1282
32.2158
54.6551
30.4943
66.174
28.9283
63.977
32.721
36.2075
86.405
127.763
57.2018
81.3449
38.7405
56.2491
33.1338
60.7235
29.8268
56.0902
32.5784
62.8688
29.2098
40.0682
58.2327
123.737
86.3961
57.7286
86.5307
37.7491
39.5344
79.2186
52.2503
125.407
57.7652
37.3383
85.594
30.3379
53.9832
64.7054
30.3411
63.2087
28.8132
32.2951
33.2895
28.7955
56.23
63.3988
31.5937
28.3216
61.4441
39.698
56.4587
85.4343
126.06
80.5107
37.5057
55.1842
32.3054
54.1307
30.2986
64.9379
30.0001
60.2219
31.5084
39.2539
83.8942
53.1723
125.413
39.083
81.8161
54.8377
33.3114
30.1655
53.247
65.7281
29.7891
61.3072
31.2628
39.8375
58.1177
88.157
127.311
81.0222
52.0028
37.84
31.915
54.6857
30.5473
66.4957
29.0806
62.546
31.7899
36.5756
87.1856
124.751
57.2739
86.0571
39.0271
56.0714
33.1077
61.7546
29.7284
56.0533
32.6018
63.2735
28.5714
39.9792
54.3007
127.834
86.6109
37.7206
55.6439
85.795
39.5092
80.9464
55.7747
126.76
39.4779
55.9171
80.8795
30.2064
56.288
65.5105
29.2811
32.2858
61.6879
29.7673
33.3434
28.7078
55.9433
63.7265
33.0117
28.2009
61.595
40.1401
56.9428
85.9063
123.191
84.2135
37.0017
55.5346
31.2879
53.9352
30.152
64.7621
29.8596
60.4652
30.5137
38.1136
81.1057
53.5349
124.85
38.5419
80.3138
55.1959
73.1119
27.9551
44.8197
45.0196
74.6295
44.173
44.0739
31.9676
52.9598
61.7352
28.9112
58.1732
28.735
30.3406
38.4309
50.5387
79.6829
124.999
78.2544
38.0309
54.7312
30.5396
52.8595
56.0752
28.148
60.6685
30.6968
28.5202
36.5061
82.5777
123.616
55.9937
79.0822
52.8773
37.1413
32.2504
52.5558
61.8948
28.8027
61.016
28.5185
30.7991
38.4579
53.1304
75.5363
125.034
36.3796
81.2044
52.0374
32.0149
52.2571
60.1729
27.9084
31.7886
58.1422
28.4316
37.2493
83.1644
120.866
55.2078
78.8131
37.509
51.6108
75.073
27.9457
44.8596
45.2902
44.5797
44.2763
75.6138
33.1527
52.9247
64.3781
30.2738
63.0955
28.8463
31.4111
39.9951
54.9087
84.1726
124.269
84.1532
37.5482
53.7623
32.801
54.2809
60.5825
29.8669
59.8644
32.627
29.4124
38.9604
87.0932
123.115
56.9137
82.3686
53.0941
39.193
33.1294
52.755
30.4424
64.7325
29.1416
60.1177
31.6441
39.5756
52.6426
83.3011
125.779
37.1975
81.2729
50.878
33.0229
54.188
29.2982
63.3718
31.1495
29.8328
61.8767
38.7535
85.5387
126.748
56.5931
80.2404
38.8862
55.8343
33.3616
53.4005
29.4797
65.288
29.9086
61.1683
32.1155
39.9572
54.5629
80.937
127.127
54.0577
39.4022
83.405
31.9782
55.7618
29.0874
58.9059
28.8615
32.714
63.9286
38.0179
85.5639
124.335
57.1908
53.5706
83.7974
38.6356
74.0304
27.1311
45.587
44.8981
41.9438
42.7128
74.866
32.2452
28.9714
62.4516
52.7064
27.8721
58.5101
30.8044
38.146
56.6376
119.768
84.0975
50.7234
76.1717
36.1517
37.3787
83.288
125.911
55.82
55.1424
82.0303
37.4089
32.1168
49.9678
29.3529
62.8576
28.3418
60.8319
31.9324
58.629
78.9008
58.6066
77.7021
18.2956
25.9127
25.5403
28.1152
18.2221
26.0858
25.9237
28.5275
18.2902
26.1804
25.9649
28.4172
18.3128
26.4681
25.8295
28.549
18.2927
26.3493
25.9342
28.6021
18.2934
26.5432
25.815
28.8308
18.246
26.5384
25.825
28.8053
18.2461
26.3994
25.8541
28.5484
18.3186
26.3939
25.8742
28.6958
18.2688
26.3726
25.9454
28.5344
18.24
26.4316
25.9863
28.5091
18.227
26.2698
25.8893
28.6222
18.2244
26.2495
25.7987
28.4657
18.2967
26.2832
25.8344
28.6385
18.2628
26.3315
25.7759
28.5089
25.7639
28.6576
28.062
25.8561
25.0113
28.1238
26.1131
25.5176
24.5605
26.3655
27.7947
25.1634
25.7049
26.9673
26.445
28.0934
24.4517
24.7742
25.9563
25.7674
27.2854
27.9075
26.0651
25.8332
26.6054
26.4148
26.3345
25.7195
26.66
26.1103
28.0473
25.6972
24.8188
26.0636
28.2816
26.9993
28.369
25.1231
24.1562
25.8339
26.0012
26.4157
28.0088
25.2925
25.2488
26.4113
26.2523
26.1776
25.8398
26.6039
26.7709
28.1352
25.5121
24.8734
25.8619
28.1656
27.077
28.1923
24.8509
24.4773
25.8961
25.9851
26.9276
27.9738
25.2087
24.6589
26.2928
26.5284
25.5015
25.2742
26.3866
26.3821
28.2064
24.4081
24.5999
25.7517
27.4586
26.9656
28.2007
24.1437
24.8994
26.1802
25.981
26.9603
28.0959
24.8198
24.8727
26.4364
26.4741
25.5212
25.0664
26.356
26.9361
28.2135
24.2172
25.6422
26.0459
28.4147
27.0602
28.1679
25.6408
24.0585
25.9327
26.0893
27.5087
28.187
25.5961
24.8845
26.4053
26.4095
24.781
25.3972
26.848
27.5126
28.1208
25.3438
25.4703
25.9397
27.7168
27.265
28.2158
25.283
25.5614
26.0017
25.9434
27.6204
28.3799
25.2186
24.6627
26.5074
26.5829
26.1241
25.3755
26.6772
26.9384
28.0296
25.0614
25.5458
26.1483
28.7055
27.4046
28.4751
24.9612
24.521
25.971
25.8744
27.6808
28.2411
25.2645
25.9415
26.4121
26.3662
25.7304
26.0801
26.5906
26.9656
27.9534
24.1052
24.6325
26.0694
28.2576
27.658
28.3862
24.2519
25.2059
26.2008
25.9931
27.2722
28.3484
24.7028
25.6817
26.7564
26.3058
25.585
25.2136
26.4588
27.0811
27.9888
25.3809
25.5866
25.9306
27.6371
27.2057
28.523
25.4848
25.3172
26.0288
25.8653
27.6286
28.1536
26.195
25.5326
26.5094
26.3484
24.5835
25.0838
26.6858
27.088
28.0595
25.0685
24.8205
26.0683
28.2694
27.7947
28.4383
24.4591
25.2881
26.1389
25.872
26.7218
28.1886
25.6934
25.1514
26.5453
26.4865
25.9902
25.9913
26.5588
27.0596
28.0134
25.0906
24.8799
25.9014
28.242
26.9281
28.2728
24.5696
25.2172
26.1386
25.9401
27.3409
28.439
24.6602
25.4078
26.7383
26.3855
24.8599
25.9252
26.664
27.0105
28.2836
25.0397
25.5629
26.0483
27.4524
26.727
28.4671
24.5563
24.8936
25.8947
25.9191
27.6006
28.3917
25.9801
24.6386
26.525
26.7501
26.0572
25.9087
26.4863
27.4245
28.1424
25.1552
24.9332
25.8005
28.165
27.6738
28.5009
24.3896
24.4828
25.9063
26.0955
26.5507
28.2379
25.3849
26.1481
26.4172
26.517
24.7269
25.927
26.7305
27.2513
27.9955
25.3568
25.5138
25.9584
27.5235
27.7594
28.3084
25.316
24.5237
26.1592
25.864
26.5749
28.1601
25.4586
24.6313
26.4179
26.5835
25.9717
25.5456
26.517
26.7616
28.0808
25.3645
25.4287
25.9341
28.2194
27.0218
27.8168
25.1277
24.3675
25.5768
25.7513
26.5841
27.417
25.5801
24.9564
26.5844
26.2525
24.8536
25.0669
26.6714
26.8272
27.9342
24.3795
24.8792
25.8786
27.5539
26.9258
27.3256
24.4018
24.5672
26.1571
28.4752
18.266
17.9107
18.2388
18.2423
135.223
296.944
137.864
295.894
403.554
401.255
139.909
298.066
140.657
298.184
18.1833
18.2354
18.2333
18.3109
18.2084
18.271
18.2729
56.3503
128.931
21.3065
24.8717
55.2588
129.3
20.9072
402.963
402.941
53.8033
20.8789
125.028
23.8854
53.9251
20.222
126.027
192.195
191.773
28.0748
193.74
191.853
136.205
296.307
136.394
296.295
401.284
401.303
141.047
298.481
140.754
298.412
17.8683
17.949
17.8969
18.0859
18.074
18.2257
18.1673
56.9045
129.769
21.3409
24.8942
57.3986
129.689
21.0802
403.101
403.005
53.7402
21.0381
128.28
24.1973
53.8
20.3111
127.174
194.741
192.836
28.2437
194.566
192.665
135.681
296.462
136.796
296.3
401.331
401.385
140.322
298.711
140.586
298.516
17.8495
17.9573
18.0624
18.3168
18.1969
18.1932
18.1772
57.1851
130.448
21.3484
24.3568
56.9765
129.752
21.1807
403.999
402.971
53.5597
21.0833
126.696
25.3813
54.0496
20.8366
126.244
195.426
192.141
28.3144
194.684
192.702
136.202
296.945
137.424
296.445
401.359
401.467
141.325
298.87
142.673
298.621
18.0601
18.1361
17.8633
18.3045
18.183
18.1842
18.108
57.1575
131.172
21.4288
25.8989
57.7055
130.004
20.7235
403.03
403.211
54.5856
20.9947
127.131
25.2801
54.8628
20.4171
127.446
195.284
193.261
28.4794
194.373
192.94
136.214
296.696
135.82
296.492
401.091
401.413
140.905
298.74
141.071
298.517
18.0801
18.1224
18.1316
18.2892
18.0387
18.1805
18.223
56.8233
130.613
21.566
24.6761
57.7011
129.657
20.7273
403.04
403.207
54.7331
21.0379
127.935
24.8617
54.7363
20.718
127.51
195.044
192.832
28.3856
194.301
192.94
136.684
296.43
136.981
296.307
401.702
401.346
140.791
298.506
140.932
298.396
17.9885
18.091
17.943
18.0396
18.0815
18.2373
18.2798
57.0842
129.718
21.5693
24.6355
56.7635
129.719
20.7226
402.999
403.055
53.9539
20.9472
126.95
24.8602
54.5955
20.392
126.852
195.117
193.344
28.5665
194.844
192.937
135.879
296.566
136.991
296.264
401.69
401.331
141.471
298.804
141.207
298.62
17.8091
18.0572
17.8985
18.2247
18.2172
18.1079
18.218
57.3294
129.902
21.5662
25.7216
57.4382
129.529
20.7057
404.526
403.095
53.489
20.9406
127.752
25.0132
54.2764
20.5413
126.75
194.965
193.306
28.3809
194.705
192.87
136.337
296.484
137.627
296.3
401.118
401.406
141.65
298.768
141.816
298.601
18.1193
17.856
17.8837
18.1174
18.1995
18.1972
18.2411
57.1929
130.006
21.5442
25.4842
58.0668
129.822
21.2729
402.711
402.713
54.4283
20.9765
126.852
25.3158
54.7915
20.472
127.016
195.044
193.735
28.4707
194.99
192.741
135.746
296.45
136.614
296.422
401.68
401.337
140.836
298.914
142.255
298.64
18.1306
17.959
18.0742
18.2347
18.0508
18.1745
18.2467
56.8749
130.54
21.4744
25.9589
57.3806
129.94
21.2942
403.166
402.987
54.2474
20.9504
127.799
23.9578
54.5336
20.5157
127.01
194.966
193.197
28.4284
194.871
192.795
136.636
296.546
137.58
296.424
401.625
401.763
141.066
299.001
141.121
298.591
18.0763
18.0848
17.8942
18.0454
18.1034
18.1484
18.2158
57.1085
130.6
21.4623
24.878
57.2806
129.841
21.202
403.081
403.085
54.2265
20.9538
127.785
24.205
54.406
20.6359
126.734
195.267
193.184
28.3854
194.807
192.789
135.597
296.586
137.114
296.381
401.462
401.629
141.576
298.765
142.566
298.579
17.8708
18.0835
18.0777
18.2951
18.0807
18.2241
18.1032
56.8492
131.138
21.4665
25.0597
57.3548
129.625
20.9479
403.226
403.034
53.6774
21.0038
127.031