/*--------------------------------*- C++ -*----------------------------------*\
| =========                 |                                                 |
| \\      /  F ield         | OpenFOAM: The Open Source CFD Toolbox           |
|  \\    /   O peration     | Version:  2206                                  |
|   \\  /    A nd           | Website:  www.openfoam.com                      |
|    \\/     M anipulation  |                                                 |
\*---------------------------------------------------------------------------*/
FoamFile
{
    version     2.0;
    format      ascii;
    arch        "LSB;label=32;scalar=64";
    class       surfaceScalarField;
    location    "100";
    object      phi;
}
// * * * * * * * * * * * * * * * * * * * * * * * * * * * * * * * * * * * * * //

dimensions      [0 3 -1 0 0 0 0];

oriented        oriented;

internalField   nonuniform List<scalar> 
196294
(
-8.84494e-12
7.95515e-11
8.95785e-12
3.14878e-12
1.31813e-08
4.77395e-11
6.62641e-14
-4.22997e-12
-1.2317e-11
-1.96231e-08
1.95918e-08
-1.6954e-12
1.09616e-11
3.69758e-12
-1.31132e-08
2.50003e-12
1.30977e-08
-4.83734e-11
-2.32579e-13
-1.00643e-11
9.57109e-11
-2.40377e-08
2.40007e-08
-1.20451e-11
-1.15207e-11
1.41358e-11
2.89786e-11
2.08115e-08
8.54428e-12
-7.13945e-12
1.02955e-10
-1.38683e-10
1.36311e-10
-1.05829e-10
1.19193e-07
1.52177e-12
3.16122e-12
-6.56296e-09
3.21273e-12
6.55507e-09
-2.76445e-13
-1.56415e-11
2.52021e-11
-4.59161e-12
-2.4666e-08
2.46613e-08
-3.35216e-12
3.7179e-11
-3.32031e-13
9.09389e-12
-3.64135e-11
3.2685e-11
-9.54983e-12
-3.80537e-11
-2.1577e-11
2.45491e-11
1.15991e-07
-3.89437e-11
3.75842e-12
6.99378e-12
-4.24341e-12
3.99059e-12
-9.17304e-12
1.1882e-07
-3.24399e-12
-4.2258e-12
6.41409e-12
-2.11999e-08
1.30577e-11
2.11879e-08
-2.08545e-11
-3.72309e-11
-2.74988e-08
-5.27898e-11
-3.56509e-11
2.76453e-08
8.31204e-12
-3.45291e-12
-2.54487e-12
-2.1247e-08
2.14199e-11
2.12232e-08
3.77797e-12
-1.26356e-12
-7.67314e-13
-2.13682e-08
1.3501e-11
2.1353e-08
2.8261e-11
4.43328e-12
6.59345e-09
2.7233e-12
-6.55799e-09
3.18556e-12
6.55039e-09
-3.4661e-11
-2.76587e-11
-2.74864e-08
-4.36171e-11
-4.44342e-11
2.76367e-08
5.28848e-11
-1.72495e-11
1.1806e-10
2.13496e-08
8.78212e-12
-3.55269e-12
-2.10769e-08
2.12132e-11
2.10532e-08
1.04676e-09
-3.03736e-11
-1.04565e-10
1.86734e-11
-3.47683e-10
-4.49281e-10
1.16886e-07
6.81497e-11
1.99626e-10
2.09257e-08
-3.33672e-12
-4.19792e-11
-5.22054e-12
2.117e-08
1.24284e-12
3.24836e-12
6.55838e-09
-1.90671e-14
-1.00452e-11
9.49767e-11
-2.40389e-08
2.40017e-08
1.66157e-10
-9.99742e-11
-3.19867e-11
-3.797e-11
3.69973e-11
6.55338e-11
-6.35809e-11
6.18997e-11
-6.43131e-11
1.14798e-07
1.41158e-11
-2.08193e-08
3.03693e-11
2.07945e-08
3.59577e-11
-9.40397e-11
1.02984e-10
-1.38422e-10
1.36637e-10
-1.03903e-10
1.19453e-07
4.7774e-11
-1.23339e-11
-4.26588e-12
-1.96213e-08
1.95902e-08
1.13773e-11
3.21626e-12
-1.31211e-08
2.55452e-12
1.31055e-08
9.5139e-11
-9.72457e-12
-2.40346e-08
2.39969e-08
-2.52974e-13
2.05089e-11
-4.42904e-12
4.52221e-11
-6.06861e-11
-4.64815e-11
6.08622e-11
-2.15424e-11
-3.93326e-11
3.36721e-11
1.15918e-07
-9.00024e-12
8.59067e-11
-1.37911e-10
1.36214e-10
-8.69997e-11
1.2052e-07
-8.70291e-12
1.38074e-11
-2.08084e-08
3.06147e-11
2.0784e-08
-2.15519e-13
-4.08993e-12
-1.27239e-11
1.95954e-08
3.02695e-12
2.5902e-12
1.31105e-08
-4.84576e-11
9.581e-11
-1.01116e-11
-2.4036e-08
2.39985e-08
-1.32578e-13
-4.42869e-12
-2.18469e-11
-3.53844e-11
3.35808e-11
4.49531e-11
-6.30372e-11
6.10987e-11
-4.65954e-11
1.15934e-07
-6.31237e-12
8.55856e-11
-1.38397e-10
1.35952e-10
-8.73339e-11
1.20499e-07
-1.14922e-11
1.39909e-11
-2.08191e-08
3.07151e-11
2.07942e-08
-1.27969e-11
-4.49923e-12
1.95908e-08
-1.09175e-12
3.13782e-12
2.55391e-12
1.31006e-08
-2.74909e-08
-4.58786e-11
-4.24506e-11
2.76369e-08
-1.06536e-11
-2.11312e-08
1.63284e-11
2.112e-08
-1.48902e-12
6.98947e-12
-2.14886e-08
1.91249e-11
2.14608e-08
-4.98274e-13
-6.69037e-09
3.47849e-12
6.68591e-09
-1.59705e-11
2.51822e-11
-4.71516e-12
-2.46691e-08
2.46643e-08
-2.38712e-12
-1.28428e-14
-3.86152e-11
-2.58821e-11
2.43404e-11
8.71859e-12
-3.36145e-11
3.23318e-11
-9.25822e-12
1.16047e-07
2.18686e-12
7.0836e-12
-4.21062e-12
4.20845e-12
-8.87162e-12
1.1876e-07
-4.20918e-12
6.80245e-12
-2.11914e-08
1.26595e-11
2.11799e-08
-1.68649e-13
-1.67983e-12
-3.02361e-12
-2.02522e-08
2.02415e-08
9.0957e-13
-1.34107e-08
2.56618e-12
1.34025e-08
-2.06011e-12
-2.89425e-12
-2.02566e-08
2.02454e-08
2.89025e-13
1.25403e-12
-1.34121e-08
2.71184e-12
1.34037e-08
3.36075e-12
6.55339e-09
-6.68875e-09
3.63539e-12
6.68415e-09
-2.27835e-11
1.42649e-10
2.02602e-08
5.95168e-12
5.43137e-09
-8.99988e-12
-7.54612e-13
9.60477e-09
9.12194e-13
-2.43741e-12
-1.86059e-08
-9.5539e-12
-6.43258e-12
3.91332e-11
1.85786e-08
-1.16586e-08
-1.08296e-12
1.49823e-14
2.09215e-12
1.16452e-08
4.25988e-12
1.21118e-11
6.37428e-14
-4.7938e-11
5.66473e-12
-3.88947e-11
-6.5602e-14
-2.30341e-12
-1.50089e-12
2.16031e-12
9.59347e-09
-8.36853e-13
5.40683e-09
-4.54728e-12
-2.0148e-08
-4.81225e-13
2.42704e-11
2.01214e-08
-2.77919e-12
8.97176e-13
-1.09125e-11
-2.8064e-12
-2.48426e-11
4.26714e-12
5.40059e-09
-1.15906e-12
-2.67792e-12
-3.86131e-12
9.53444e-13
2.54404e-12
1.50057e-08
-1.23871e-11
-1.06183e-11
-5.42303e-09
1.92525e-12
4.61813e-13
3.58044e-12
5.41707e-09
-5.45684e-09
1.61682e-12
3.72107e-14
3.64872e-12
5.45154e-09
-1.31022e-12
-3.89373e-12
8.35023e-13
-3.91129e-12
1.15164e-11
1.16306e-11
1.49861e-08
-2.20226e-11
7.1938e-12
1.9522e-08
-2.01472e-11
-1.26511e-08
7.61414e-12
2.42997e-12
1.2639e-08
-2.05625e-11
3.84106e-12
-9.53152e-12
-2.33355e-08
-2.13528e-11
4.41398e-11
3.23786e-11
2.33018e-08
-4.32101e-11
-3.31876e-11
-2.5209e-12
2.04854e-11
1.94993e-08
-1.66254e-11
6.11538e-12
1.87007e-08
-1.62908e-11
-1.2558e-08
5.00925e-12
2.56163e-12
1.25497e-08
-1.41791e-11
-8.38554e-13
1.85047e-12
-2.63514e-12
-2.27709e-08
-1.8136e-11
2.93537e-11
2.38172e-11
2.27493e-08
-3.06884e-11
-2.21288e-11
-2.61202e-12
1.48154e-11
1.86844e-08
-2.91265e-12
-3.81034e-12
2.42095e-12
2.39221e-12
1.50007e-08
-1.01167e-11
-1.25798e-11
-5.45181e-09
4.01342e-12
-8.4645e-13
2.53136e-12
5.44611e-09
-5.42407e-09
2.6894e-12
1.54494e-12
2.20786e-12
5.41763e-09
-2.25318e-13
-3.20756e-12
-8.46254e-13
-3.3327e-12
1.14444e-11
1.34333e-11
1.49825e-08
6.18727e-12
1.96074e-08
-1.92711e-11
-1.27683e-08
3.9492e-11
2.32498e-12
1.27084e-08
-4.70259e-11
1.48331e-10
1.41599e-10
2.34504e-08
-2.04642e-12
1.94827e-11
1.95918e-08
8.21323e-12
1.86135e-08
-2.19586e-11
-1.67802e-11
-1.24365e-08
8.37761e-12
2.13405e-12
1.2424e-08
2.78606e-12
-2.12546e-11
-8.55147e-12
-2.20104e-11
-2.25637e-08
4.08338e-11
3.2507e-11
2.25335e-08
-2.46919e-12
1.80174e-11
1.85953e-08
-4.05841e-11
-3.31457e-11
-4.83952e-11
5.3569e-11
2.07225e-12
5.42042e-09
2.35303e-10
1.50011e-08
-6.25386e-11
1.8751e-12
1.26166e-08
-1.52377e-10
5.40977e-11
2.28817e-08
1.93317e-08
-9.00639e-13
-9.35745e-12
9.60639e-09
1.17829e-12
-2.2246e-12
-1.16582e-08
-9.38362e-13
2.15965e-12
1.16446e-08
-1.86041e-08
-9.24662e-12
-5.91417e-12
3.88265e-11
1.85762e-08
1.21189e-11
4.15718e-12
-4.80318e-11
-2.21849e-12
6.11843e-12
-3.94073e-11
-1.12799e-12
2.30561e-12
9.59503e-09
-6.01237e-13
5.40864e-09
-4.58641e-12
-2.01507e-08
-8.10101e-13
2.45896e-11
2.01243e-08
-3.2053e-12
-1.10572e-11
-2.6987e-12
-2.47578e-11
4.30746e-12
5.4024e-09
-9.56306e-12
-5.89111e-12
3.93718e-11
1.85847e-08
-7.13024e-13
-1.58067e-13
2.08869e-12
1.16515e-08
-1.0042e-12
2.15174e-12
9.6002e-09
-8.85585e-13
2.47835e-11
2.0134e-08
4.11671e-12
5.4051e-09
-9.97882e-13
2.09005e-12
1.16467e-08
-9.64388e-12
-6.13674e-12
3.95255e-11
1.85753e-08
-1.24028e-12
2.12071e-12
9.59259e-09
-9.18108e-13
2.49992e-11
2.01188e-08
4.13724e-12
5.39952e-09
3.17785e-12
3.90008e-13
1.50126e-08
7.00975e-13
-2.46493e-11
-5.42667e-09
-1.79021e-11
2.04403e-11
3.06008e-12
5.42107e-09
-5.45478e-09
2.11202e-11
-2.05318e-11
4.06268e-12
5.45013e-09
8.06565e-13
-3.71708e-12
-1.02106e-12
-4.19378e-12
1.0975e-10
-9.27045e-11
1.49988e-08
8.95605e-12
-1.90121e-11
1.86445e-08
-3.46493e-11
-1.24344e-08
-1.6261e-11
1.79497e-12
1.24586e-08
2.82568e-12
-2.06255e-11
-8.9508e-12
-2.2924e-08
-6.32769e-11
3.58927e-11
1.12779e-11
2.29564e-08
-2.48471e-12
-3.30067e-11
-4.43743e-11
-1.05083e-10
1.87798e-08
-2.00439e-11
4.63871e-12
1.95936e-08
-2.65773e-12
-1.27812e-08
2.88688e-11
3.10978e-12
1.27357e-08
-1.47406e-11
-2.81495e-14
1.43175e-12
-2.98285e-12
-2.3189e-08
2.47334e-11
1.9463e-11
6.31247e-11
2.31008e-08
-2.26371e-11
-2.95915e-11
-2.77053e-12
1.36303e-10
1.94182e-08
6.8164e-13
-3.94551e-12
-1.33028e-12
-5.06039e-13
9.90161e-09
1.38141e-13
-2.29834e-12
-1.91702e-08
-2.08442e-12
-2.67211e-12
1.3154e-11
1.91602e-08
-1.20331e-08
-2.69546e-13
-7.46812e-14
1.81719e-12
1.20286e-08
2.1354e-12
2.8837e-12
-7.42713e-14
-1.58003e-11
2.50035e-12
-1.26136e-11
-2.49678e-13
-1.99748e-12
-1.96147e-13
2.03484e-12
9.89742e-09
2.37702e-12
5.566e-09
-4.66088e-12
-2.06844e-08
2.09689e-12
8.66849e-12
2.06719e-08
-8.86978e-13
-4.0765e-12
-2.85338e-12
-9.02185e-12
4.36247e-12
5.56354e-09
-1.49116e-12
-4.47363e-13
9.90689e-09
9.86581e-14
-2.26964e-12
-1.91782e-08
-2.01731e-12
-2.90532e-12
1.33609e-11
1.91677e-08
-1.20355e-08
-4.59984e-13
1.79535e-12
1.20312e-08
1.78401e-12
2.86082e-12
-1.62514e-11
2.35789e-12
-1.29551e-11
-1.84413e-12
-4.13892e-13
1.99734e-12
9.90282e-09
2.15558e-12
5.56954e-09
-4.73552e-12
-2.06914e-08
2.15707e-12
8.51059e-12
2.06791e-08
-5.86026e-13
-8.58914e-13
-4.25667e-12
-2.82022e-12
-8.86101e-12
4.44497e-12
5.56685e-09
-3.92736e-12
-1.90653e-10
4.47026e-10
1.23709e-07
3.14175e-10
-4.36936e-10
1.33321e-07
-3.7193e-10
4.20375e-11
1.27847e-07
-3.73786e-10
9.74404e-12
1.3966e-07
3.97263e-10
-4.93552e-12
1.23535e-07
3.58823e-12
1.33323e-07
4.37796e-12
1.10018e-11
1.27024e-07
7.40905e-12
1.38932e-07
-5.18601e-12
-4.5347e-12
1.23305e-07
-7.02196e-12
1.3104e-07
2.59478e-11
-4.14561e-10
1.25368e-07
-3.83336e-10
1.39936e-07
-1.57814e-11
3.13213e-12
1.23344e-07
2.18885e-13
1.31007e-07
-1.95223e-11
1.24535e-07
1.39061e-07
7.52687e-11
-1.83268e-11
2.60505e-08
-2.32694e-08
7.50397e-11
-1.33677e-11
2.32371e-08
-2.69903e-08
-1.83524e-11
-7.10351e-12
2.69728e-08
1.01755e-11
-9.62359e-11
-2.52395e-14
7.02544e-12
2.616e-11
2.59752e-08
5.11299e-11
2.28062e-08
3.83615e-11
2.4624e-08
2.59938e-08
-6.02764e-12
1.98586e-11
2.64622e-08
-5.3855e-11
-2.75193e-08
-6.48815e-12
-6.02002e-13
2.75473e-08
-2.381e-08
2.04824e-11
-5.13014e-12
2.38032e-08
-2.61276e-11
4.875e-12
4.35015e-14
-2.62685e-14
4.81967e-12
5.33095e-11
2.64137e-08
2.12792e-11
1.6949e-11
2.63458e-08
-2.33242e-08
1.53014e-11
2.33188e-08
-1.356e-11
-6.45485e-12
-2.49869e-08
2.18627e-11
2.49611e-08
2.64267e-08
-2.50164e-11
-2.58325e-11
2.27439e-08
5.34561e-11
3.85281e-11
-2.58628e-08
-2.31944e-11
2.58419e-08
-2.48179e-08
-2.54686e-11
2.48112e-08
2.27305e-08
2.27359e-08
-2.03004e-11
-2.88866e-11
4.65155e-11
4.39885e-11
-2.18609e-11
-2.59681e-08
2.59901e-08
-2.71159e-11
-2.4713e-08
2.46985e-08
2.27244e-08
3.03057e-10
2.2951e-08
1.64536e-10
2.48006e-08
2.61325e-08
7.5523e-11
-1.81136e-11
2.60553e-08
-2.55785e-11
-2.3269e-08
7.4535e-11
-1.35139e-11
2.3237e-08
-2.69936e-08
-1.85075e-11
-6.89661e-12
2.69756e-08
1.00665e-11
-9.69701e-11
5.18442e-14
1.34948e-11
7.13538e-12
2.2487e-11
2.5985e-08
5.20514e-11
3.75378e-11
2.5948e-08
-2.2828e-08
4.98869e-11
2.2803e-08
-1.46039e-11
-3.09309e-11
-2.46167e-08
3.6933e-11
2.4579e-08
2.5993e-08
-2.1765e-11
7.58615e-11
2.60491e-08
2.93547e-11
-2.69889e-08
-2.09682e-11
2.69602e-08
-2.32591e-08
7.35059e-11
-1.58395e-11
2.32306e-08
-9.69706e-11
1.01138e-11
1.67949e-11
-2.83328e-11
2.6043e-08
5.15778e-11
2.59139e-08
4.07258e-11
-2.28171e-08
4.98527e-11
2.27898e-08
-1.49363e-11
-3.10744e-11
4.00933e-11
-2.46183e-08
2.4584e-08
2.5929e-08
-2.16896e-11
7.51658e-11
2.60528e-08
2.92224e-11
-2.69887e-08
-2.10604e-11
2.69601e-08
-2.3263e-08
7.39175e-11
-1.63195e-11
2.32348e-08
-9.66279e-11
1.00126e-11
1.64383e-11
-2.84123e-11
2.60467e-08
4.06239e-11
5.09085e-11
2.59225e-08
-2.28216e-08
5.00813e-11
2.27942e-08
-3.10005e-11
-1.46776e-11
-2.46756e-08
3.98814e-11
2.46357e-08
2.59375e-08
-2.76616e-11
-2.35465e-11
2.27271e-08
3.89546e-11
5.29693e-11
-2.57999e-08
-6.69514e-11
2.57929e-08
-2.4856e-08
1.83252e-11
2.48368e-08
2.27096e-08
-5.80197e-12
2.00362e-11
2.64676e-08
-5.42271e-11
-2.75225e-08
-6.52654e-12
2.75494e-08
-2.38156e-08
2.03572e-11
-5.2166e-12
2.38091e-08
-2.61466e-11
4.50789e-12
4.61632e-12
5.3207e-11
2.64193e-08
2.08255e-11
1.68607e-11
2.63499e-08
-2.33283e-08
1.51129e-11
2.33233e-08
-1.33503e-11
-6.25347e-12
-2.49368e-08
2.19879e-11
2.49177e-08
2.64309e-08
1.6624e-12
5.86469e-13
-4.17072e-13
2.28727e-09
7.94722e-13
3.88045e-13
-3.02251e-13
1.23016e-09
3.24484e-13
2.12648e-13
-1.79906e-13
6.03873e-10
9.61071e-14
9.12365e-14
-8.73558e-14
2.49405e-10
2.59919e-14
-1.94147e-14
5.91037e-11
1.38115e-12
-2.35077e-13
-2.28626e-09
3.27404e-13
2.28728e-09
6.66543e-13
-1.07025e-13
-1.22949e-09
1.59435e-13
1.23013e-09
2.75209e-13
-4.92717e-14
-6.03477e-10
6.59844e-14
6.03819e-10
8.4867e-14
-2.06422e-14
-2.49184e-10
2.0596e-14
2.4934e-10
-2.34206e-15
-5.90193e-11
6.8121e-15
5.90759e-11
1.71012e-12
1.32625e-13
-4.27629e-09
-1.4204e-13
4.2778e-09
7.69883e-13
4.21768e-14
-2.29516e-09
-7.59716e-14
2.29615e-09
2.72677e-13
1.33041e-14
-1.12702e-09
-3.2277e-14
1.12757e-09
5.00818e-14
4.75419e-15
-4.66248e-10
-1.09594e-14
4.66515e-10
-2.3288e-15
-1.10853e-10
-2.88056e-15
1.10934e-10
2.2946e-12
7.50496e-13
4.27594e-09
1.03651e-12
4.97704e-13
2.29521e-09
3.8111e-13
2.81224e-13
1.12709e-09
8.75395e-14
1.2869e-13
4.6633e-10
3.15667e-14
1.10936e-10
1.65084e-12
-4.27305e-09
-2.33127e-13
4.2746e-09
7.16842e-13
-2.29347e-09
-1.38697e-13
2.29447e-09
2.47818e-13
-1.12622e-09
-7.16425e-14
1.12676e-09
5.3256e-14
-4.65889e-10
-3.06596e-14
4.66141e-10
-1.1076e-10
-7.9017e-15
1.10844e-10
1.62486e-12
9.53175e-14
-1.05467e-13
4.27965e-09
6.75834e-13
2.7753e-14
-7.24317e-14
2.29723e-09
2.18608e-13
4.07467e-15
-2.96098e-14
1.1281e-09
4.19336e-14
-2.68339e-15
-5.61525e-15
4.66706e-10
-2.15853e-15
-4.34222e-15
1.11003e-10
1.42277e-12
-2.28804e-09
2.17316e-13
2.28908e-09
6.85207e-13
-1.23046e-09
9.82855e-14
1.23113e-09
2.73493e-13
-6.03897e-10
4.05898e-14
6.0426e-10
7.21507e-14
-2.49375e-10
1.5191e-14
2.49546e-10
-5.90529e-11
2.94098e-15
5.91104e-11
1.44144e-12
1.73252e-13
2.28959e-09
6.94573e-13
7.36895e-14
1.23143e-09
2.78521e-13
2.41272e-14
6.04456e-10
7.33147e-14
4.33883e-15
2.49621e-10
2.16991e-15
5.91445e-11
1.40811e-12
-3.70447e-14
1.80087e-13
2.28815e-09
6.726e-13
6.58749e-15
7.68642e-14
1.23058e-09
2.71277e-13
7.50804e-15
2.74246e-14
6.04011e-10
7.824e-14
3.04694e-15
6.09674e-15
2.49448e-10
2.97032e-15
3.6807e-15
5.91098e-11
1.82259e-12
-2.37919e-13
2.03213e-13
-4.27329e-09
4.27499e-09
8.2004e-13
-1.77556e-13
1.27452e-13
-2.29357e-09
2.29464e-09
2.99125e-13
-1.02026e-13
6.1689e-14
-1.12631e-09
1.1269e-09
6.48944e-14
-4.72507e-14
2.38944e-14
-4.65943e-10
4.66229e-10
-1.28499e-14
4.1467e-15
-1.10789e-10
1.10882e-10
1.39447e-12
-2.28506e-09
-1.01466e-13
2.28609e-09
6.76315e-13
-1.22897e-09
-9.90062e-14
1.22959e-09
2.76426e-13
-6.03219e-10
-6.7087e-14
6.0356e-10
7.42395e-14
-2.49087e-10
-3.43402e-14
2.49253e-10
-5.89955e-11
-8.62632e-15
5.90547e-11
1.48988e-12
1.26176e-13
-2.2854e-09
1.18572e-15
2.2865e-09
7.21625e-13
1.04314e-13
-1.22911e-09
-2.58556e-14
1.22979e-09
2.95021e-13
6.02929e-14
-6.03284e-10
-2.21433e-14
6.03654e-10
8.42179e-14
2.77055e-14
-2.49133e-10
-1.27335e-14
2.49309e-10
8.43926e-15
-5.89998e-11
-2.38774e-15
5.90646e-11
1.79321e-12
-1.7081e-15
4.27664e-09
8.08871e-13
2.80818e-16
2.29553e-09
2.9785e-13
-5.18533e-16
1.12729e-09
7.10884e-14
-2.25643e-17
4.66393e-10
-2.58612e-15
1.10912e-10
1.92352e-12
9.17977e-14
-4.27214e-09
4.27389e-09
8.79678e-13
5.79413e-14
-2.2931e-09
2.29421e-09
3.32536e-13
2.93364e-14
-1.12599e-09
1.12659e-09
8.40125e-14
1.19906e-14
-4.65824e-10
4.6611e-10
2.34264e-15
-1.10736e-10
1.10836e-10
-1.45324e-12
-9.32948e-14
2.61726e-09
1.63171e-13
-7.3916e-13
-5.06633e-14
1.40689e-09
8.77443e-14
-3.11299e-13
-2.52357e-14
6.90814e-10
4.78995e-14
-8.48791e-14
-1.03518e-14
2.85487e-10
2.33011e-14
-3.18191e-15
6.77308e-11
5.52095e-15
1.13967e-12
-2.85742e-09
-2.02372e-13
9.44062e-15
2.85856e-09
5.23153e-13
-1.53531e-09
-1.14715e-13
6.11575e-15
1.53605e-09
1.8875e-13
-7.54137e-10
-5.80623e-14
4.3686e-15
7.54546e-10
3.8875e-14
-3.11894e-10
-2.40835e-14
3.57665e-15
3.12089e-10
-7.41039e-11
-6.78451e-15
-4.59289e-16
7.41664e-11
-1.35875e-12
-1.30912e-14
-6.67521e-13
-1.10385e-14
-2.63255e-13
-1.0232e-14
-6.52179e-14
-7.51385e-15
-8.52581e-16
1.23874e-12
-3.75327e-13
2.61834e-09
6.02683e-13
-2.166e-13
1.40761e-09
2.41205e-13
-1.15544e-13
6.91209e-10
6.41868e-14
-5.24599e-14
2.8567e-10
-1.28561e-14
6.77918e-11
-1.63578e-12
-3.47825e-14
-9.29933e-14
-8.21669e-13
-5.52004e-14
-1.6097e-14
-3.42446e-13
-3.70389e-14
6.33601e-15
-9.37227e-14
-1.79089e-14
7.92957e-15
-6.74928e-15
7.07453e-16
-2.16243e-12
-7.57473e-14
8.14653e-14
-1.0091e-12
-1.46602e-14
3.81695e-14
-3.79914e-13
-1.11332e-15
1.55062e-14
-8.87283e-14
1.23431e-15
3.44356e-15
1.99508e-15
4.02563e-15
1.2992e-12
-2.2718e-09
1.13415e-13
2.2728e-09
6.21728e-13
-1.22132e-09
5.73546e-14
1.22193e-09
2.46492e-13
-5.99434e-10
2.74334e-14
5.99762e-10
6.70361e-14
-2.47508e-10
1.10691e-14
2.4766e-10
-5.86314e-11
2.9926e-15
5.86874e-11
-1.40478e-12
2.33885e-13
-6.82816e-13
1.50007e-13
-2.71509e-13
8.13575e-14
-7.19317e-14
3.6679e-14
7.84842e-15
1.36657e-12
-2.27006e-09
1.83405e-13
2.27115e-09
6.56302e-13
-1.22046e-09
1.001e-13
1.22112e-09
2.62819e-13
-5.99014e-10
5.12637e-14
5.99375e-10
7.14434e-14
-2.47344e-10
2.20424e-14
2.47515e-10
-5.85923e-11
6.55214e-15
5.86534e-11
-1.44955e-12
3.65113e-13
-4.87877e-13
-7.12181e-13
2.09086e-13
-2.60516e-13
-2.90991e-13
1.05732e-13
-1.26849e-13
-8.24688e-14
4.47353e-14
-5.09109e-14
9.54372e-15
-1.42053e-14
-2.15735e-12
6.49128e-15
-1.01677e-12
-1.5644e-14
-3.9013e-13
-2.03821e-14
-9.75597e-14
-1.52427e-14
-1.03246e-15
9.42538e-13
2.68731e-14
4.0814e-09
3.70361e-13
5.32679e-14
2.19059e-09
1.23221e-13
3.87233e-14
1.07545e-09
3.40312e-14
1.90656e-14
4.44667e-10
5.09363e-15
1.05677e-10
9.39715e-13
2.274e-09
4.20881e-13
1.22249e-09
1.60697e-13
6.00012e-10
4.42877e-14
2.47777e-10
5.87201e-11
-1.30213e-12
-1.49418e-13
2.61795e-09
2.39708e-13
-6.40124e-13
-9.19587e-14
1.40722e-09
1.34082e-13
-2.55127e-13
-5.33547e-14
6.9092e-10
7.31252e-14
-6.38096e-14
-2.71238e-14
2.85544e-10
3.46624e-14
-5.13972e-15
6.77439e-11
8.22942e-15
1.20503e-12
-2.85745e-09
-1.74561e-13
2.85858e-09
5.74728e-13
-1.53533e-09
-1.05242e-13
1.53607e-09
2.26412e-13
-7.54149e-10
-5.96807e-14
7.5455e-10
6.32539e-14
-3.11903e-10
-2.83461e-14
3.12087e-10
-7.41038e-11
-7.21298e-15
7.41662e-11
-1.31211e-12
-6.46374e-13
-2.56048e-13
-6.63903e-14
1.30647e-12
-2.49965e-13
2.61903e-09
6.24925e-13
-1.38016e-13
1.40794e-09
2.44316e-13
-7.155e-14
6.91318e-10
6.29149e-14
-3.19011e-14
2.85732e-10
-7.76816e-15
6.7805e-11
-1.55166e-12
-2.08345e-13
-7.61437e-13
-9.40693e-14
-3.05015e-13
-3.5495e-14
-7.93917e-14
-8.80121e-15
-4.86235e-15
1.1644e-12
-1.11822e-13
-3.79975e-14
2.86038e-09
5.37661e-13
-6.49957e-14
-2.02545e-14
1.53701e-09
1.95613e-13
-3.10363e-14
-1.15822e-14
7.54909e-10
4.21534e-14
-1.08647e-14
-6.53507e-15
3.12323e-10
-4.96416e-15
-3.53323e-16
7.41947e-11
1.2433e-12
-2.05087e-13
2.62025e-09
6.0863e-13
-1.18136e-13
1.40857e-09
2.457e-13
-6.11586e-14
6.91636e-10
6.56169e-14
-2.57801e-14
2.85877e-10
-7.78308e-15
6.78249e-11
1.19227e-12
-1.99522e-13
2.85907e-09
5.77485e-13
-1.17936e-13
1.53641e-09
2.2683e-13
-6.12999e-14
7.54655e-10
5.41644e-14
-2.61779e-14
3.12175e-10
-7.29805e-15
7.41675e-11
1.20099e-12
-2.75136e-13
2.61825e-09
5.73198e-13
-1.56154e-13
1.40757e-09
2.24795e-13
-8.1557e-14
6.91154e-10
5.8225e-14
-3.56562e-14
2.85668e-10
-9.64816e-15
6.77795e-11
2.28971e-12
-3.58239e-13
2.63458e-13
-4.07887e-09
4.08074e-09
1.08958e-12
-1.94492e-13
1.5938e-13
-2.18922e-09
2.19046e-09
4.2172e-13
-9.9888e-14
9.07842e-14
-1.07464e-09
1.07532e-09
9.93338e-14
-4.22488e-14
4.31112e-14
-4.44302e-10
4.44629e-10
-1.24331e-14
1.21348e-14
-1.0557e-10
1.05673e-10
1.65092e-12
-2.27157e-09
2.27286e-09
7.95967e-13
-1.2211e-09
1.22188e-09
3.16275e-13
-5.99309e-10
5.99734e-10
8.06611e-14
-2.47466e-10
2.47669e-10
-5.86372e-11
5.87048e-11
-1.59279e-12
2.01445e-13
-3.23319e-13
-7.93907e-13
9.87094e-14
-1.60568e-13
-3.23679e-13
4.34013e-14
-7.60966e-14
-8.69435e-14
1.61577e-14
-3.08853e-14
2.28846e-15
-8.54306e-15
-2.21949e-12
1.8687e-13
-1.05133e-12
1.16393e-13
-4.07853e-13
5.51256e-14
-1.04681e-13
2.0172e-14
7.67533e-15
-1.28641e-12
-1.61438e-13
2.61391e-09
1.68984e-13
-6.37713e-13
-1.09326e-13
1.40516e-09
1.14694e-13
-2.68545e-13
-6.45646e-14
6.89948e-10
7.47835e-14
-7.91048e-14
-2.98083e-14
2.85149e-10
3.94751e-14
-9.4276e-15
6.76396e-11
1.10464e-14
9.24402e-13
-2.85391e-09
-3.51833e-14
-3.48152e-14
2.85488e-09
4.2644e-13
-1.53353e-09
-1.61302e-14
-2.36939e-14
1.53408e-09
1.63393e-13
-7.53286e-10
-6.97113e-15
-1.47618e-14
7.53584e-10
4.11461e-14
-3.11541e-10
-7.6072e-16
-8.29041e-15
3.11687e-10
-7.40102e-11
-3.70074e-15
-6.35366e-16
7.40662e-11
-1.09473e-12
-7.75146e-14
-5.32261e-13
-5.17033e-14
-2.16146e-13
-3.32998e-14
-5.70526e-14
-1.89322e-14
-2.70624e-15
1.11149e-12
-1.03525e-13
2.61489e-09
5.33583e-13
-5.29814e-14
1.40576e-09
2.16189e-13
-3.23704e-14
6.90269e-10
6.45236e-14
-1.87003e-14
2.853e-10
-3.9753e-15
6.76993e-11
-1.59842e-12
2.69544e-14
-7.79365e-13
3.15336e-14
-3.16067e-13
1.95839e-14
-8.80267e-14
9.95084e-15
3.0578e-16
-1.25899e-12
-1.26214e-13
2.61528e-09
1.37864e-13
-6.16117e-13
-8.65819e-14
1.40585e-09
9.40807e-14
-2.54221e-13
-5.43344e-14
6.90284e-10
6.2708e-14
-7.28145e-14
-2.79455e-14
2.85305e-10
3.46955e-14
-7.6722e-15
6.76713e-11
8.14382e-15
9.3215e-13
-2.85473e-09
-1.02896e-13
2.85566e-09
4.48054e-13
-1.53392e-09
-6.35175e-14
1.53444e-09
1.82749e-13
-7.53444e-10
-3.75824e-14
7.53728e-10
4.86038e-14
-3.11653e-10
-1.75638e-14
3.11793e-10
-7.40286e-11
-6.31924e-15
7.40827e-11
-9.87653e-13
-4.70496e-13
-1.89511e-13
-5.6086e-14
1.08837e-12
-1.83455e-13
2.61627e-09
5.24325e-13
-1.08708e-13
1.40645e-09
2.13835e-13
-6.54854e-14
6.90613e-10
6.13039e-14
-3.36045e-14
2.85465e-10
-9.01896e-15
6.77308e-11
-1.58022e-12
-2.72556e-13
8.08244e-14
-7.77002e-13
-1.80587e-13
6.75335e-14
-3.1941e-13
-9.58138e-14
4.30672e-14
-9.01403e-14
-4.1191e-14
2.25841e-14
-1.21068e-14
3.0696e-15
-2.1887e-12
-1.03824e-12
-4.07776e-13
-1.09863e-13
1.9404e-12
-2.45915e-14
-4.07832e-09
4.0801e-09
9.02076e-13
-1.63326e-14
-2.18913e-09
2.19024e-09
3.49912e-13
-1.0719e-14
-1.07456e-09
1.07515e-09
9.42438e-14
-6.2913e-15
-4.4431e-10
4.4458e-10
-1.33125e-15
-1.05549e-10
1.05644e-10
1.96768e-12
-4.07791e-09
4.07977e-09
9.06394e-13
-2.18881e-09
2.18997e-09
3.42603e-13
-1.07447e-09
1.07509e-09
8.31103e-14
-4.44247e-10
4.44537e-10
-1.05534e-10
1.05632e-10
3.18037e-12
4.27592e-09
1.48542e-12
2.29339e-09
5.69575e-13
1.12557e-09
1.3874e-13
4.65518e-10
1.10681e-10
-2.58224e-12
4.27541e-09
-1.22149e-12
2.29282e-09
-4.6927e-13
1.12518e-09
-1.14707e-13
4.65242e-10
1.10579e-10
2.32489e-12
4.27734e-09
1.07139e-12
2.29406e-09
4.04895e-13
1.12585e-09
1.0054e-13
4.65558e-10
1.10681e-10
1.5495e-12
9.31175e-14
-4.07898e-09
4.08067e-09
6.85524e-13
4.88932e-14
-2.18927e-09
2.19026e-09
2.51386e-13
2.65568e-14
-1.07466e-09
1.07518e-09
5.64243e-14
1.25718e-14
-4.44334e-10
4.44577e-10
2.28827e-15
-1.05564e-10
1.05642e-10
9.7478e-13
-2.27149e-09
2.27225e-09
4.68961e-13
-1.22117e-09
1.22163e-09
1.89512e-13
-5.99361e-10
5.99615e-10
5.08398e-14
-2.475e-10
2.47623e-10
-5.86368e-11
5.86811e-11
-1.35313e-12
9.36486e-15
-6.51918e-13
1.93897e-14
-2.58107e-13
1.41374e-14
-6.89492e-14
7.65009e-15
1.7499e-15
-2.25552e-12
3.85317e-13
-1.0854e-12
2.20216e-13
-4.28802e-13
1.12803e-13
-1.12566e-13
4.82759e-14
1.20011e-14
-2.26586e-12
-1.08586e-12
-4.26648e-13
-1.12326e-13
1.25014e-12
-7.864e-13
4.60621e-13
-4.07666e-09
4.07827e-09
5.51193e-13
-4.84085e-13
2.93243e-13
-2.18813e-09
2.18904e-09
2.04475e-13
-2.66949e-13
1.62891e-13
-1.07414e-09
1.07462e-09
4.90316e-14
-1.20553e-13
7.45344e-14
-4.44164e-10
4.44386e-10
-3.07035e-14
1.7332e-14
-1.05499e-10
1.05575e-10
1.20337e-12
-2.2713e-09
2.27236e-09
5.82828e-13
-1.22099e-09
1.22159e-09
2.37832e-13
-5.99259e-10
5.99579e-10
6.34272e-14
-2.47461e-10
2.47611e-10
-5.86286e-11
5.86822e-11
-1.15166e-12
-9.86659e-14
-5.64101e-13
2.18997e-14
-2.28628e-13
4.70655e-14
-6.29752e-14
3.33394e-14
8.08872e-15
1.18548e-12
1.40921e-13
-4.07697e-09
4.07831e-09
5.29118e-13
1.13607e-13
-2.18812e-09
2.18897e-09
1.91483e-13
6.46661e-14
-1.07417e-09
1.07463e-09
4.2792e-14
2.98341e-14
-4.4418e-10
4.44399e-10
5.24005e-15
-1.05511e-10
1.05586e-10
1.13613e-12
-2.27e-09
2.2709e-09
5.43983e-13
-1.22032e-09
1.22086e-09
2.17621e-13
-5.98962e-10
5.99256e-10
5.92339e-14
-2.47348e-10
2.47484e-10
-5.85908e-11
5.86409e-11
-1.41185e-12
-8.26785e-14
-7.00366e-13
-5.0531e-14
-2.82871e-13
-3.31605e-14
-7.48878e-14
-1.69292e-14
-5.59253e-15
-1.87747e-12
-1.1898e-14
-9.03452e-13
3.82085e-14
-3.60154e-13
4.26107e-14
-1.01709e-13
2.76584e-14
6.5808e-15
-1.97527e-12
-9.59201e-13
-3.79154e-13
-9.90836e-14
-2.63925e-12
4.27717e-09
-1.27687e-12
2.29377e-09
-5.00697e-13
1.12553e-09
-1.18299e-13
4.65427e-10
1.10601e-10
2.36632e-12
4.27909e-09
1.1048e-12
2.29501e-09
4.22459e-13
1.12621e-09
1.01962e-13
4.65747e-10
1.107e-10
2.19638e-12
4.28082e-09
9.93684e-13
2.29592e-09
3.6947e-13
1.12676e-09
9.57264e-14
4.65959e-10
1.10765e-10
2.25871e-12
4.27691e-09
1.05179e-12
2.29381e-09
4.02006e-13
1.1257e-09
9.92603e-14
4.65528e-10
1.10674e-10
-2.12043e-12
1.64648e-13
-1.00653e-12
8.79596e-14
-3.93343e-13
4.59912e-14
-1.05841e-13
2.08914e-14
5.44983e-15
-2.45211e-12
-1.18756e-12
-4.68298e-13
-1.20195e-13
-2.6153e-12
4.27093e-09
-1.24085e-12
2.29047e-09
-4.86761e-13
1.12397e-09
-1.28971e-13
4.64789e-10
1.10466e-10
2.40493e-12
4.27271e-09
1.13853e-12
2.29162e-09
4.47894e-13
1.12461e-09
1.14509e-13
4.65102e-10
1.10572e-10
-2.65311e-12
4.27336e-09
-1.27218e-12
2.29177e-09
-5.01445e-13
1.12469e-09
-1.24879e-13
4.65071e-10
1.10526e-10
2.4645e-12
4.27517e-09
1.17252e-12
2.29296e-09
4.62241e-13
1.12534e-09
1.18611e-13
4.65393e-10
1.10636e-10
2.31744e-11
9.61704e-12
6.56272e-09
-2.07358e-12
-3.13946e-12
-1.07099e-12
6.55796e-09
-3.35984e-12
2.6823e-11
-1.45527e-10
4.32236e-11
1.89201e-10
2.7523e-08
-1.90718e-11
9.33876e-11
4.69412e-11
2.12515e-08
-8.76125e-12
3.52343e-12
-2.15293e-11
2.10768e-08
-4.85158e-11
-8.01566e-14
4.21893e-12
1.27929e-11
1.96234e-08
-1.14626e-11
-3.04184e-12
1.3114e-08
-2.8733e-12
2.34759e-13
1.05002e-11
-9.50011e-11
2.40374e-08
-3.09802e-10
-1.66636e-09
3.89164e-11
4.83424e-10
6.26669e-11
3.085e-10
6.54499e-11
1.1547e-07
1.54318e-10
2.17026e-10
-1.47804e-11
-2.993e-11
2.0819e-08
2.11551e-10
-4.08888e-09
6.17635e-10
1.38448e-10
1.03994e-10
7.16304e-10
1.21444e-07
-4.85347e-11
1.284e-11
4.19991e-12
1.96216e-08
-1.14404e-11
1.41008e-12
-3.75368e-12
1.31221e-08
-2.82003e-12
-9.49808e-11
1.05414e-11
2.4033e-08
-8.11226e-10
-2.38168e-11
-1.93665e-09
4.87594e-10
7.38422e-11
4.68447e-11
2.96211e-10
4.33429e-10
1.12262e-11
2.53588e-10
1.17087e-07
-3.93624e-09
6.24529e-10
1.37609e-10
8.73196e-11
7.16379e-10
1.22291e-07
6.0063e-12
-1.56336e-11
-3.20839e-11
2.08143e-08
-2.01912e-11
-1.93916e-09
4.88928e-10
6.17739e-11
4.59901e-11
3.10067e-10
4.29628e-10
3.44066e-11
2.29802e-10
1.17098e-07
-8.0561e-10
1.15391e-11
9.64988e-12
-1.51059e-11
-2.98187e-11
2.08179e-08
1.57347e-12
-3.39273e-12
1.31168e-08
-2.87153e-12
-2.55308e-12
6.56266e-09
-3.63128e-12
3.27783e-11
2.74951e-08
8.38654e-11
1.39369e-12
-3.62837e-11
-4.80487e-11
2.12078e-08
1.91927e-12
-6.30301e-12
4.04439e-11
1.2768e-11
2.14119e-08
8.85388e-13
6.69074e-09
-3.7977e-12
-9.82489e-14
-1.33305e-11
3.31654e-11
1.02633e-13
2.46415e-08
-5.21398e-10
-1.25483e-09
4.3137e-10
4.79287e-11
1.67531e-10
3.06535e-10
1.94562e-11
9.24151e-12
2.40783e-10
1.16578e-07
-1.9996e-10
-7.80167e-10
2.08073e-10
-9.50287e-11
-3.82579e-11
9.56838e-11
1.19108e-07
4.30633e-12
-6.30874e-12
-1.01958e-11
2.11938e-08
-1.32642e-11
3.33441e-11
-4.22724e-13
2.46446e-08
-4.83129e-10
-3.71613e-11
-1.23973e-09
3.00394e-10
3.30359e-11
9.72887e-12
2.2666e-10
4.36162e-10
2.48572e-11
1.91899e-10
1.16584e-07
-7.67387e-10
2.03143e-10
-9.54619e-11
-3.87748e-11
9.59316e-11
1.1868e-07
4.62854e-12
2.75362e-12
-6.17914e-12
-1.25732e-11
2.11913e-08
-1.17371e-13
-5.69789e-14
-6.23152e-12
2.02345e-08
-8.47668e-13
1.34116e-08
-3.08671e-12
-3.55847e-13
-6.56495e-12
2.0239e-08
-1.03131e-12
-4.61859e-13
1.34127e-08
-2.95476e-12
2.74991e-08
5.21772e-11
3.6741e-11
2.63011e-12
4.03793e-12
-2.11478e-11
2.12474e-08
2.23188e-12
-5.1205e-13
-1.48422e-11
2.13688e-08
6.56103e-09
-3.44888e-12
6.68902e-09
-3.67086e-12
1.40193e-11
1.21318e-11
5.42216e-09
-2.20587e-12
-2.48254e-12
-1.24657e-12
5.42439e-09
-3.03714e-12
8.60362e-12
-1.32366e-11
1.49987e-08
5.15474e-11
1.26518e-08
-1.8167e-12
-7.82257e-11
1.85775e-10
2.33253e-08
1.10926e-10
5.79793e-11
1.95158e-08
-8.32118e-12
1.2437e-08
-2.44547e-12
2.29561e-11
-4.07705e-11
-3.37788e-11
2.25636e-08
-1.71824e-11
1.86139e-08
-9.60566e-09
-4.85262e-11
-1.74499e-12
3.93315e-12
9.65113e-09
8.69862e-13
9.72069e-12
1.86067e-08
5.93467e-12
-3.9604e-11
8.40067e-13
1.16598e-08
-5.49049e-14
-2.55487e-12
1.14859e-11
5.7551e-11
-1.05763e-13
-1.84203e-10
1.97387e-08
9.2294e-13
-2.54959e-12
1.74683e-11
-1.59985e-10
1.87122e-08
4.47681e-14
1.17146e-08
9.10665e-13
-5.40676e-09
-2.33373e-11
5.4324e-09
1.6355e-12
1.03158e-12
2.01486e-08
-2.53452e-11
-5.42952e-12
-6.58459e-11
8.50414e-12
1.31752e-08
1.5892e-12
-4.22537e-12
-1.14043e-10
2.02514e-08
-9.60707e-09
-1.77959e-12
-4.88279e-11
4.1737e-12
9.65256e-09
9.48362e-13
8.55046e-13
1.16591e-08
-2.53718e-12
1.01092e-11
1.86039e-08
6.41226e-12
-4.00736e-11
5.76554e-11
1.16164e-11
-1.8395e-10
1.97362e-08
1.24906e-12
-2.33274e-12
1.17141e-08
8.70482e-13
1.78393e-11
-1.59977e-10
1.87089e-08
-5.40859e-09
-2.33083e-11
5.43421e-09
1.86191e-12
8.05452e-13
2.01515e-08
-2.53523e-11
-6.24331e-12
8.90254e-12
-6.56755e-11
1.31835e-08
1.62937e-12
-4.13785e-12
-1.14327e-10
2.02541e-08
-5.40555e-09
-2.28493e-11
-4.16358e-12
5.43103e-09
1.52981e-12
2.39028e-13
2.01462e-08
-2.49309e-11
-6.12573e-12