/*--------------------------------*- C++ -*----------------------------------*\
| =========                 |                                                 |
| \\      /  F ield         | OpenFOAM: The Open Source CFD Toolbox           |
|  \\    /   O peration     | Version:  2206                                  |
|   \\  /    A nd           | Website:  www.openfoam.com                      |
|    \\/     M anipulation  |                                                 |
\*---------------------------------------------------------------------------*/
FoamFile
{
    version     2.0;
    format      ascii;
    arch        "LSB;label=32;scalar=64";
    class       volVectorField;
    location    "100";
    object      U;
}
// * * * * * * * * * * * * * * * * * * * * * * * * * * * * * * * * * * * * * //

dimensions      [0 1 -1 0 0 0 0];

internalField   nonuniform List<vector> 
66621
(
(-1.60167e-05 -2.50289e-05 0.070661)
(-4.36182e-05 5.80902e-07 0.096292)
(-3.16518e-05 -2.42508e-06 0.0704575)
(4.32765e-05 -4.61512e-07 0.115817)
(3.12554e-05 -2.3936e-05 0.0993095)
(7.71352e-07 -1.41727e-06 0.138481)
(-1.37165e-05 4.40941e-06 0.0603149)
(-9.3322e-07 4.54603e-05 0.116618)
(1.68912e-06 -2.77602e-06 0.134905)
(-3.06972e-06 -4.46163e-06 0.139193)
(-2.83789e-05 3.08708e-05 0.0998852)
(0.000155111 0.000158351 0.129779)
(1.26208e-05 1.82098e-05 0.0839871)
(2.00897e-05 1.29723e-05 0.0843004)
(-1.69183e-05 -1.03462e-05 0.0603887)
(-1.46091e-05 -3.65907e-06 0.0602658)
(-0.000158842 -0.000162523 0.12971)
(-2.25121e-05 -3.23161e-06 0.0841642)
(-1.36378e-05 -1.51643e-05 0.0839182)
(7.4579e-06 3.94866e-06 0.135101)
(-2.57581e-05 -2.01713e-05 0.0995298)
(1.27143e-05 -1.65619e-05 0.0840042)
(1.36592e-05 -5.56156e-06 0.0603358)
(-4.73421e-05 -4.61746e-07 0.115827)
(-2.29705e-06 5.14693e-06 0.134594)
(-3.31336e-05 -2.22121e-05 0.0992788)
(-2.57158e-06 -1.22262e-06 0.138507)
(-4.44629e-05 -8.38174e-07 0.0963009)
(-3.07677e-05 3.7858e-06 0.0705176)
(-4.60546e-05 7.64658e-07 0.115818)
(1.50126e-06 -5.69272e-06 0.134521)
(-1.13356e-06 1.22783e-06 0.138498)
(-3.31985e-05 2.30626e-05 0.0992887)
(4.21379e-05 1.19902e-07 0.096303)
(3.11176e-05 -5.09479e-06 0.0705216)
(4.26965e-05 -1.68316e-07 0.115822)
(-2.02462e-06 -5.2676e-06 0.134543)
(-2.59124e-07 1.7074e-06 0.138506)
(3.04128e-05 2.39917e-05 0.0992925)
(4.19153e-05 -2.01873e-06 0.0962976)
(3.11793e-05 4.82491e-06 0.0704877)
(-0.000156589 0.000157861 0.129767)
(-1.40185e-05 1.5539e-05 0.0839537)
(-2.20858e-05 1.28708e-05 0.084347)
(-9.8541e-06 1.23453e-05 0.0604852)
(-2.62637e-08 4.54381e-05 0.116618)
(-3.01697e-06 -3.08424e-06 0.134928)
(2.76344e-06 -3.86121e-06 0.1392)
(2.67931e-05 3.22625e-05 0.0998719)
(-6.71473e-07 4.47831e-05 0.0971703)
(-9.06811e-06 3.10941e-05 0.0708817)
(-7.27587e-07 4.40449e-05 0.0971733)
(8.0326e-06 3.17215e-05 0.0708734)
(1.33237e-05 7.05899e-06 0.0602963)
(8.56953e-06 1.38275e-05 0.060468)
(-4.87369e-06 -3.06069e-05 0.0822651)
(-5.21799e-06 -1.96217e-05 0.0585476)
(1.61182e-05 5.79231e-08 0.0645851)
(-4.31409e-05 1.48853e-06 0.0928222)
(-1.28647e-05 9.6098e-07 0.0668387)
(4.40145e-05 -1.04076e-06 0.0964062)
(4.34358e-05 2.38131e-08 0.0929032)
(1.40511e-05 -7.81211e-07 0.0668764)
(-1.38844e-05 2.41088e-06 0.0645576)
(1.60882e-05 1.24601e-06 0.0584345)
(-3.63384e-05 4.05561e-07 0.0819854)
(3.18024e-05 5.95212e-06 0.0704386)
(3.46189e-05 3.55223e-06 0.0820085)
(-1.61255e-05 2.78803e-06 0.058439)
(1.52455e-05 -6.63799e-06 0.0603147)
(-2.16613e-05 -1.17361e-05 0.0762413)
(8.60461e-06 1.25265e-05 0.0589611)
(1.32724e-05 8.37239e-06 0.0590044)
(-1.22337e-05 -9.09328e-06 0.0589452)
(-1.80838e-05 -4.55627e-06 0.0589728)
(1.61183e-05 1.52585e-05 0.0762303)
(-5.81667e-05 -1.09845e-05 0.0957599)
(1.59568e-05 1.27267e-05 0.069827)
(-1.67063e-05 -1.41789e-05 0.0840091)
(5.46432e-05 1.48317e-05 0.108436)
(-5.90836e-05 -1.31543e-05 0.108488)
(-1.8176e-05 -8.30486e-06 0.0698034)
(5.4943e-05 1.54483e-05 0.0957523)
(-1.88548e-05 -4.93729e-05 0.0957747)
(1.45569e-05 1.65056e-05 0.0698647)
(-2.59387e-05 -1.10636e-05 0.0842428)
(1.54625e-05 5.67296e-05 0.108654)
(-2.22624e-05 -5.29261e-05 0.108637)
(-1.88579e-05 -1.19544e-05 0.069791)
(1.4058e-05 5.4754e-05 0.0957976)
(1.42292e-05 7.55094e-06 0.060262)
(1.63669e-05 1.31004e-05 0.0762778)
(-1.65893e-05 1.4131e-06 0.0589662)
(-6.17476e-06 -7.21441e-06 0.0589079)
(1.26772e-05 4.54077e-06 0.058984)
(6.56057e-06 1.16284e-05 0.0589378)
(-1.27637e-05 -6.49807e-06 0.0761273)
(2.05011e-05 4.90703e-05 0.0959471)
(-1.90021e-05 -4.88561e-06 0.069917)
(-1.50944e-05 -4.6562e-05 0.108572)
(1.29684e-05 1.21352e-05 0.0699455)
(-1.44469e-05 -4.52495e-05 0.0957822)
(5.35664e-05 1.2951e-05 0.0957083)
(-1.41571e-05 -9.10673e-06 0.0696722)
(1.40654e-05 1.79787e-05 0.0839413)
(-5.55388e-05 -1.53272e-05 0.108343)
(1.38582e-05 1.15224e-05 0.0696642)
(-5.10362e-05 -1.10107e-05 0.0955695)
(5.49571e-05 1.45216e-05 0.10842)
(4.32345e-06 -8.81512e-06 0.0589646)
(1.35544e-05 -8.69366e-06 0.0761778)
(1.36279e-05 -1.22581e-05 0.0698378)
(5.50412e-05 -1.80939e-05 0.108398)
(5.36836e-05 -1.7429e-05 0.0957068)
(1.48944e-05 9.56109e-07 0.0646305)
(-1.26766e-05 -8.29828e-07 0.0668516)
(-4.38786e-05 -4.39512e-07 0.0928533)
(4.21223e-05 6.73429e-07 0.0964122)
(1.45003e-05 6.33474e-07 0.06689)
(4.16921e-05 4.77527e-07 0.092935)
(-1.50801e-05 -9.93226e-07 0.0646029)
(1.63899e-05 6.52913e-07 0.0584902)
(-3.54847e-05 2.30394e-06 0.0820354)
(3.18045e-05 -4.50844e-06 0.0705018)
(3.51375e-05 -1.22925e-06 0.0820603)
(-1.57938e-05 -2.44547e-07 0.0584929)
(4.15032e-05 -2.68524e-08 0.0928518)
(1.1924e-05 -1.02416e-07 0.0668747)
(1.38906e-05 -1.61408e-07 0.0646028)
(3.415e-05 -2.07329e-06 0.082034)
(1.52119e-05 -2.76613e-07 0.0584849)
(1.1689e-05 -1.38743e-06 0.0668612)
(4.15673e-05 -1.63003e-06 0.0928419)
(1.41861e-05 -1.34699e-06 0.0645849)
(3.47647e-05 1.638e-06 0.0820064)
(1.54913e-05 -7.63679e-07 0.0584592)
(1.9279e-05 -1.4025e-05 0.0762504)
(-1.06025e-05 7.97063e-06 0.0589526)
(-1.71098e-05 6.17047e-06 0.0590302)
(9.53506e-06 -1.0785e-05 0.0589584)
(1.70158e-05 -6.87458e-06 0.0589787)
(-2.03996e-05 1.17972e-05 0.076244)
(5.68266e-05 -1.25336e-05 0.0956649)
(-1.68118e-05 9.2071e-06 0.0696947)
(1.5781e-05 -1.79123e-05 0.0839818)
(-5.67997e-05 1.30638e-05 0.108393)
(1.6707e-05 -1.18257e-05 0.0697122)
(5.86892e-05 -1.42584e-05 0.108441)
(-5.78471e-05 1.06669e-05 0.0956606)
(1.75264e-05 -5.04344e-05 0.0958819)
(-1.66987e-05 1.56613e-05 0.070017)
(2.38272e-05 -1.18927e-05 0.0842896)
(-1.83576e-05 5.53203e-05 0.108698)
(2.01999e-05 -5.24681e-05 0.108685)
(1.72706e-05 -1.37675e-05 0.069906)
(-1.91562e-05 5.3077e-05 0.0959091)
(1.10837e-05 -1.30689e-05 0.0604201)
(-1.98992e-07 -1.56396e-05 0.0649136)
(-1.1116e-06 4.37348e-05 0.0936832)
(-4.27781e-07 1.20029e-05 0.0672784)
(-1.5245e-06 -4.46807e-05 0.0972407)
(5.07756e-07 -4.49085e-05 0.0936614)
(-2.10575e-06 -1.24525e-05 0.0672629)
(-2.89652e-07 1.32773e-05 0.064967)
(2.31126e-06 -1.60607e-05 0.0585979)
(-5.37068e-06 3.65195e-05 0.0826635)
(9.19969e-06 -3.14701e-05 0.0707639)
(6.15272e-06 -3.59597e-05 0.0825518)
(-1.84751e-06 1.5055e-05 0.058692)
(7.95161e-08 -1.48214e-05 0.0649184)
(-3.82825e-07 4.32107e-05 0.0936797)
(-3.53772e-07 1.21479e-05 0.0672771)
(5.92483e-07 -4.29032e-05 0.0972449)
(-2.07945e-06 -4.55264e-05 0.0936673)
(4.26257e-07 -1.23316e-05 0.0672627)
(-7.68797e-07 1.37478e-05 0.0649673)
(-2.74246e-06 -1.59791e-05 0.058603)
(4.67521e-06 3.71329e-05 0.0826545)
(-1.007e-05 -3.19405e-05 0.0707598)
(-6.71597e-06 -3.66951e-05 0.0825493)
(6.48354e-07 1.54541e-05 0.0586926)
(-1.23118e-05 -1.25332e-05 0.0604006)
(-7.89214e-06 4.10982e-06 0.142506)
(-2.13099e-06 1.90457e-06 0.145568)
(-1.18241e-05 3.19798e-06 0.144915)
(-8.31401e-06 6.83113e-06 0.147904)
(5.67232e-06 3.23722e-06 0.142486)
(1.79895e-06 1.18951e-06 0.145561)
(1.05411e-05 2.35009e-06 0.144903)
(7.79113e-06 6.94368e-06 0.147901)
(-7.65285e-06 4.83327e-07 0.142308)
(-8.72649e-06 7.82567e-07 0.144888)
(-4.38752e-06 -2.47435e-06 0.145305)
(-7.03124e-06 1.58407e-06 0.147734)
(7.27346e-06 7.83798e-07 0.142326)
(7.80667e-06 8.67576e-07 0.144894)
(4.24626e-06 -3.01803e-06 0.145308)
(6.86719e-06 2.46707e-06 0.147733)
(-0.000185351 -4.87607e-07 0.126013)
(4.49406e-05 -1.86936e-06 0.113459)
(0.000180226 4.83593e-07 0.127579)
(-4.78764e-05 -6.68344e-07 0.115924)
(-4.91312e-05 7.01158e-07 0.113522)
(-0.000179355 -1.10028e-06 0.12759)
(0.000184338 -1.974e-06 0.126064)
(4.16127e-05 -8.69218e-06 0.10821)
(0.000175669 -1.21635e-05 0.117021)
(0.000188041 -6.61467e-06 0.12287)
(-2.05903e-06 -0.000186787 0.126584)
(1.69284e-06 0.00018298 0.12822)
(-1.45045e-06 4.51444e-05 0.114271)
(-1.29415e-06 -4.54859e-05 0.116703)
(-2.62584e-06 -0.000178885 0.128228)
(1.52453e-06 -4.89644e-05 0.114246)
(3.8416e-06 0.000182723 0.126699)
(4.99561e-06 -0.000180914 0.123281)
(-1.06182e-05 4.30214e-05 0.108953)
(2.86478e-05 -3.10747e-05 0.099753)
(-1.09004e-05 0.000175233 0.117486)
(1.39032e-05 -0.000175637 0.117387)
(1.12658e-05 -4.1207e-05 0.108812)
(-2.62276e-06 0.000188144 0.12346)
(-5.436e-05 -4.78637e-05 0.111377)
(-0.00014952 -0.000146124 0.129621)
(4.82832e-05 0.000155175 0.121581)
(0.00015312 5.08264e-05 0.121635)
(-5.18155e-05 -0.000151348 0.121505)
(-0.000152188 -4.36246e-05 0.121534)
(5.37762e-05 5.49875e-05 0.111451)
(5.60901e-05 4.96712e-05 0.111496)
(0.000154507 0.000147835 0.129689)
(-0.00015537 -4.54975e-05 0.121626)
(-4.53047e-05 -0.0001564 0.121433)
(-5.17503e-05 -5.10925e-05 0.111339)
(0.000162998 4.45821e-05 0.121713)
(4.78324e-05 0.000152073 0.121494)
(-1.12901e-05 -3.53943e-05 0.108448)
(-1.10836e-05 -0.000168841 0.117195)
(-7.15349e-06 -0.000183573 0.12308)
(0.000186366 -6.19208e-07 0.126039)
(-4.73776e-05 -1.6959e-06 0.113463)
(-0.000182275 8.40575e-07 0.127597)
(4.47204e-05 -8.1194e-07 0.115934)
(4.8724e-05 1.55707e-06 0.113528)
(0.000178947 -1.0258e-06 0.12761)
(-0.000185952 -2.04609e-06 0.126092)
(0.000184123 1.33346e-06 0.122831)
(-4.52728e-05 -8.51866e-06 0.108205)
(3.27973e-05 2.11449e-05 0.0992699)
(-0.000178058 -1.04751e-05 0.117028)
(4.23546e-05 6.41025e-06 0.108224)
(0.000180137 7.60819e-06 0.117029)
(-0.000192409 -6.7506e-06 0.122898)
(0.000180356 9.97448e-07 0.126005)
(-0.000181471 5.79628e-07 0.127581)
(-4.96629e-05 3.4664e-06 0.113448)
(4.62135e-05 -3.73966e-08 0.115927)
(0.000177625 1.3935e-06 0.127595)
(4.6455e-05 -7.82097e-07 0.113517)
(-0.00018688 2.59182e-06 0.126053)
(0.000182805 -2.12921e-06 0.122786)
(-4.41241e-05 1.02513e-05 0.108196)
(3.27639e-05 -1.98813e-05 0.0992841)
(-0.000174941 9.65637e-06 0.117006)
(4.23096e-05 -4.70555e-06 0.108218)
(-0.000188097 5.64528e-06 0.122846)
(0.000178551 -7.40232e-06 0.117008)
(-0.000182092 8.21746e-07 0.126018)
(0.000179704 6.551e-07 0.127579)
(4.53869e-05 1.30576e-06 0.113463)
(-4.76714e-05 3.30534e-08 0.115927)
(-0.000178659 1.85208e-06 0.127591)
(-4.7896e-05 -1.61775e-06 0.11353)
(0.000186046 2.67725e-06 0.12607)
(-0.000184046 -2.99257e-06 0.122808)
(4.04396e-05 8.16904e-06 0.108209)
(-3.41922e-05 -1.94107e-05 0.099291)
(0.000177808 1.15385e-05 0.117031)
(-0.000177754 -7.36149e-06 0.117033)
(-4.41772e-05 -6.68941e-06 0.108229)
(0.000188372 5.75216e-06 0.12287)
(5.25994e-05 -4.85364e-05 0.111382)
(0.000148032 -0.000146155 0.129606)
(-5.08443e-05 0.000154417 0.121576)
(-0.000154851 4.94709e-05 0.121642)
(0.000150685 -4.43939e-05 0.121538)
(5.09987e-05 -0.00015172 0.121492)
(-5.73872e-05 5.31906e-05 0.111461)
(1.05654e-06 -0.00018667 0.126589)
(-2.98868e-06 0.0001832 0.12822)
(7.90196e-07 4.61445e-05 0.114268)
(8.83424e-07 -4.52479e-05 0.116704)
(1.25454e-06 -0.000179542 0.128228)
(-3.16341e-06 -4.73701e-05 0.114247)
(-4.58269e-06 0.000182709 0.126701)
(-6.16396e-06 -0.0001816 0.12329)
(9.67326e-06 4.44363e-05 0.108944)
(-2.91634e-05 -3.01034e-05 0.0997362)
(8.76312e-06 0.000175559 0.11748)
(-1.47544e-05 -0.00017584 0.11738)
(-1.22165e-05 -4.14813e-05 0.108809)
(1.12139e-06 0.000187858 0.123465)
(-1.06304e-05 -9.08302e-06 0.0411673)
(-7.61467e-06 -3.29713e-06 0.0278058)
(-4.95738e-06 -6.86125e-07 0.017292)
(-2.73581e-06 1.20344e-07 0.00910516)
(-8.62006e-07 1.54885e-07 0.00276346)
(-1.00757e-05 -2.67586e-07 0.0411324)
(-4.9665e-06 8.54673e-08 0.0277787)
(-2.2862e-06 1.1926e-07 0.0172731)
(-8.91284e-07 5.60291e-08 0.00909399)
(-1.60275e-07 3.82377e-08 0.00275975)
(-6.45404e-06 1.89756e-06 0.0425274)
(-3.16267e-06 7.19833e-07 0.0289264)
(-1.32741e-06 2.43601e-07 0.0181141)
(-3.73205e-07 1.64411e-08 0.0096015)
(-5.6671e-08 4.36626e-08 0.00293552)
(-1.33091e-05 -3.6799e-06 0.0425249)
(-9.39584e-06 4.81961e-08 0.0289275)
(-6.02527e-06 1.3073e-06 0.0181164)
(-3.22452e-06 1.18852e-06 0.0096039)
(-1.05201e-06 4.69761e-07 0.00293672)
(-6.85769e-06 -8.45811e-07 0.0424915)
(-3.48601e-06 2.24954e-07 0.0289023)
(-1.61437e-06 5.20208e-07 0.0180992)
(-6.18033e-07 4.53605e-07 0.00959347)
(-1.36286e-07 1.33263e-07 0.00293306)
(6.21705e-06 -2.09533e-06 0.042544)
(2.8594e-06 -6.11365e-07 0.0289381)
(1.09217e-06 -1.86348e-07 0.0181216)
(2.44364e-07 -1.02037e-07 0.00960558)
(4.51292e-08 1.17684e-08 0.00293696)
(-9.80477e-06 1.61841e-06 0.0411742)
(-4.74612e-06 9.23296e-07 0.027806)
(-2.08694e-06 4.6534e-07 0.0172894)
(-7.24228e-07 1.56417e-07 0.00910219)
(-9.70552e-08 8.718e-08 0.00276203)
(9.73303e-06 -2.17978e-06 0.041176)
(4.63294e-06 -1.28116e-06 0.0278089)
(1.9894e-06 -7.79528e-07 0.0172921)
(6.22548e-07 -4.29876e-07 0.0091041)
(1.04715e-07 -1.16584e-07 0.00276286)
(9.54719e-06 2.32367e-06 0.0411552)
(4.4538e-06 1.39905e-06 0.0277943)
(1.90882e-06 7.94146e-07 0.017283)
(6.78507e-07 4.09724e-07 0.00909958)
(7.89229e-08 8.69424e-08 0.00276156)
(-6.3751e-06 4.73362e-06 0.0425184)
(-3.87989e-06 1.71772e-06 0.0289207)
(-2.14664e-06 4.13623e-07 0.018111)
(-1.0049e-06 -4.75994e-08 0.00960016)
(-2.65772e-07 -7.76544e-08 0.00293519)
(-5.75415e-06 7.92639e-06 0.0411474)
(-4.23933e-06 3.31703e-06 0.0277895)
(-2.83535e-06 1.13441e-06 0.01728)
(-1.59196e-06 1.82268e-07 0.00909797)
(-5.06043e-07 -5.21517e-08 0.00276088)
(4.8196e-06 9.04369e-06 0.041145)
(3.27872e-06 4.08665e-06 0.0277876)
(2.02072e-06 1.61472e-06 0.0172789)
(1.06561e-06 4.57114e-07 0.0090971)
(3.2622e-07 4.01186e-08 0.00276065)
(5.81724e-06 3.77915e-06 0.042515)
(2.68617e-06 1.91818e-06 0.0289187)
(1.07941e-06 8.74975e-07 0.0181097)
(3.13927e-07 3.14881e-07 0.00959919)
(4.84361e-08 6.24791e-08 0.00293489)
(5.16678e-06 5.74916e-06 0.0425055)
(2.97699e-06 2.44326e-06 0.0289119)
(1.5938e-06 8.45134e-07 0.0181051)
(7.31278e-07 1.66126e-07 0.00959669)
(2.12671e-07 -1.97248e-08 0.00293404)
(8.93454e-06 -4.03197e-07 0.0412524)
(4.73235e-06 -5.32638e-07 0.0279508)
(2.19939e-06 -5.16395e-07 0.0174344)
(7.92446e-07 -3.81557e-07 0.00920571)
(1.86719e-07 -1.39234e-07 0.0028025)
(-6.82697e-06 9.59041e-07 0.0414953)
(-3.18037e-06 8.11817e-07 0.028157)
(-1.29347e-06 5.9478e-07 0.0175926)
(-3.67826e-07 3.65585e-07 0.00930558)
(-6.51097e-08 1.10575e-07 0.00283871)
(7.59958e-06 -5.55849e-07 0.041508)
(3.93642e-06 -5.12683e-07 0.0281671)
(1.71774e-06 -4.3652e-07 0.0176004)
(5.61234e-07 -3.02972e-07 0.00931052)
(1.0191e-07 -9.33331e-08 0.00284045)
(-8.16964e-06 2.67485e-06 0.041248)
(-4.22809e-06 2.35708e-06 0.0279476)
(-1.95508e-06 1.77277e-06 0.0174313)
(-7.30258e-07 1.08405e-06 0.00920337)
(-1.67743e-07 3.73297e-07 0.00280155)
(1.02278e-05 3.67343e-06 0.0411111)
(5.07446e-06 2.60068e-06 0.0277666)
(2.18e-06 1.61737e-06 0.0172673)
(6.71744e-07 8.30283e-07 0.00909192)
(9.44827e-08 2.4796e-07 0.00275939)
(7.33713e-06 -3.86967e-06 0.0425258)
(3.55075e-06 -2.06171e-06 0.0289275)
(1.42667e-06 -9.95127e-07 0.0181165)
(3.86786e-07 -4.18185e-07 0.00960353)
(5.96523e-08 -6.9883e-08 0.00293644)
(7.68335e-06 5.69432e-06 0.041325)
(3.69963e-06 2.74956e-06 0.0279035)
(1.57194e-06 1.13722e-06 0.0173511)
(5.40083e-07 3.68868e-07 0.00913614)
(1.23451e-07 2.55645e-08 0.00277327)
(-1.05339e-05 -2.57273e-06 0.0413032)
(-5.91959e-06 -3.62076e-07 0.0278916)
(-2.9767e-06 5.19917e-07 0.0173457)
(-1.28321e-06 5.77202e-07 0.00913424)
(-3.31228e-07 2.72884e-07 0.00277298)
(6.86152e-06 7.3658e-06 0.0413067)
(3.64217e-06 3.3753e-06 0.0278922)
(1.73622e-06 1.29609e-06 0.0173446)
(6.96346e-07 3.66311e-07 0.00913304)
(1.73803e-07 3.80443e-08 0.00277233)
(-9.98522e-06 -5.62197e-06 0.0412579)
(-5.89965e-06 -2.32096e-06 0.027863)
(-3.12589e-06 -6.00699e-07 0.0173286)
(-1.41463e-06 5.14541e-09 0.00912552)
(-3.88384e-07 8.94724e-08 0.00277037)
(6.75888e-06 4.79857e-06 0.0424883)
(3.15296e-06 2.86583e-06 0.0289029)
(1.13553e-06 1.59869e-06 0.0181015)
(2.17388e-07 7.88719e-07 0.00959566)
(-1.14681e-09 2.0439e-07 0.00293396)
(2.36402e-06 -3.25393e-06 0.0423093)
(1.60032e-06 -7.44868e-07 0.0287459)
(1.07499e-06 2.99986e-07 0.0179803)
(6.54101e-07 4.62769e-07 0.00951968)
(2.51196e-07 2.25453e-07 0.00290688)
(6.29786e-06 -2.74823e-06 0.0413502)
(3.28501e-06 -6.4844e-07 0.0279212)
(1.52653e-06 2.56958e-09 0.0173628)
(5.65423e-07 8.27927e-08 0.00914285)
(1.80285e-07 9.37098e-08 0.00277538)
(8.20854e-06 1.20761e-06 0.0412824)
(4.27384e-06 1.22819e-06 0.0279705)
(1.93798e-06 1.07755e-06 0.0174463)
(7.09453e-07 7.66669e-07 0.009212)
(1.25617e-07 2.26846e-07 0.00280439)
(-7.12986e-06 -8.60155e-07 0.0415054)
(-3.44037e-06 -8.24359e-07 0.0281638)
(-1.49237e-06 -6.69733e-07 0.0175968)
(-5.29352e-07 -4.2158e-07 0.00930781)
(-9.65909e-08 -1.70752e-07 0.00283935)
(7.32892e-06 6.7075e-07 0.0415174)
(3.81742e-06 5.88314e-07 0.0281729)
(1.68593e-06 4.4113e-07 0.0176037)
(5.77283e-07 2.73154e-07 0.00931216)
(1.03882e-07 8.02272e-08 0.00284091)
(-8.47263e-06 -1.66823e-06 0.0412771)
(-4.28678e-06 -1.59783e-06 0.027966)
(-1.914e-06 -1.27863e-06 0.0174422)
(-6.76086e-07 -8.30465e-07 0.00920898)
(-1.46443e-07 -2.8066e-07 0.00280321)
(1.04018e-05 -2.11277e-06 0.0411544)
(5.19804e-06 -1.24393e-06 0.0277949)
(2.28273e-06 -6.63402e-07 0.0172844)
(7.62359e-07 -3.23035e-07 0.00910046)
(1.10528e-07 -3.93957e-08 0.00276184)
(6.90366e-06 2.9804e-07 0.0415203)
(3.24139e-06 3.74414e-07 0.0281736)
(1.312e-06 2.79145e-07 0.0176032)
(4.12269e-07 1.25721e-07 0.00931137)
(3.26522e-08 1.1404e-07 0.00284015)
(7.87086e-06 9.90116e-07 0.0412786)
(4.02423e-06 1.09324e-06 0.0279678)
(1.82954e-06 8.55013e-07 0.0174439)
(6.69734e-07 4.9388e-07 0.00920986)
(1.37021e-07 2.37533e-07 0.00280333)
(7.05462e-06 -1.33734e-06 0.041513)
(3.44491e-06 -1.13292e-06 0.0281694)
(1.49865e-06 -8.30944e-07 0.0176006)
(4.85867e-07 -5.05681e-07 0.00930992)
(9.87714e-08 -1.57913e-07 0.00283977)
(7.83694e-06 -2.03729e-06 0.041266)
(3.95752e-06 -1.88007e-06 0.0279594)
(1.78583e-06 -1.42495e-06 0.0174385)
(6.72159e-07 -8.57298e-07 0.00920717)
(1.20888e-07 -3.22752e-07 0.00280253)
(-1.07524e-05 3.22153e-06 0.0423166)
(-6.40068e-06 5.38757e-07 0.028747)
(-3.69821e-06 -6.08383e-07 0.0179795)
(-1.83827e-06 -7.77244e-07 0.00951897)
(-5.90766e-07 -3.71741e-07 0.00290657)
(-9.65257e-06 8.46417e-06 0.0413401)
(-5.32704e-06 3.6584e-06 0.0279112)
(-2.60088e-06 1.2417e-06 0.0173557)
(-1.05293e-06 2.58066e-07 0.00913906)
(-2.654e-07 -1.36993e-08 0.00277424)
(8.81062e-06 -7.59189e-06 0.0412781)
(4.7879e-06 -3.7398e-06 0.0278763)
(2.28203e-06 -1.49027e-06 0.0173372)
(9.00657e-07 -4.29419e-07 0.00913057)
(2.01699e-07 -4.84621e-08 0.00277205)
(6.90692e-06 -5.91814e-06 0.0424744)
(3.92211e-06 -2.73861e-06 0.0288947)
(1.96798e-06 -1.02118e-06 0.0180971)
(8.09965e-07 -2.52064e-07 0.00959377)
(2.31044e-07 4.12356e-09 0.00293357)
(-1.07678e-06 -8.28437e-06 0.0411956)
(-1.44796e-06 -4.31178e-06 0.0279135)
(-1.39807e-06 -2.03298e-06 0.0174115)
(-9.77709e-07 -8.24571e-07 0.0091937)
(-3.89684e-07 -1.93888e-07 0.00279873)
(-4.41529e-07 5.44427e-06 0.0414741)
(-2.59366e-07 2.56236e-06 0.0281454)
(-1.31519e-07 1.05293e-06 0.0175861)
(-9.3057e-08 3.11438e-07 0.00930226)
(6.68534e-08 9.4957e-08 0.00283773)
(-1.85623e-06 -6.36393e-06 0.0414483)
(-1.69591e-06 -3.24874e-06 0.0281275)
(-1.35565e-06 -1.43534e-06 0.0175758)
(-8.72734e-07 -5.13035e-07 0.00929735)
(-2.84595e-07 -1.03955e-07 0.00283635)
(7.96518e-08 7.02096e-06 0.0412402)
(3.20755e-07 3.53951e-06 0.0279436)
(4.23941e-07 1.56138e-06 0.0174292)
(3.3524e-07 5.97804e-07 0.00920242)
(1.75501e-07 1.28804e-07 0.00280121)
(5.29674e-06 -9.57574e-06 0.0410773)
(3.41174e-06 -4.56117e-06 0.0277461)
(1.91418e-06 -1.87404e-06 0.0172555)
(9.03514e-07 -5.83966e-07 0.00908596)
(2.61619e-07 -5.74808e-08 0.00275764)
(8.79902e-07 -8.10971e-06 0.0411984)
(1.26085e-06 -4.18206e-06 0.0279155)
(1.27869e-06 -1.92845e-06 0.017413)
(9.52587e-07 -7.71654e-07 0.00919446)
(3.25354e-07 -1.67281e-07 0.00279894)
(-3.829e-07 5.42711e-06 0.0414742)
(-4.37847e-07 2.64285e-06 0.0281457)
(-4.21203e-07 1.1652e-06 0.0175868)
(-3.0534e-07 3.93768e-07 0.00930287)
(-1.13524e-07 1.06227e-07 0.00283782)
(4.44574e-07 -5.71844e-06 0.0414502)
(4.99986e-07 -2.86472e-06 0.0281285)
(4.30897e-07 -1.23846e-06 0.0175767)
(2.63885e-07 -4.684e-07 0.00929788)
(1.41423e-07 -8.65098e-08 0.00283647)
(-1.02213e-06 6.94488e-06 0.041241)
(-1.17014e-06 3.57457e-06 0.0279442)
(-1.10902e-06 1.63975e-06 0.0174298)
(-7.82606e-07 6.46585e-07 0.00920272)
(-3.15338e-07 1.53175e-07 0.00280125)
(-5.95816e-06 -9.17215e-06 0.0410736)
(-4.03968e-06 -4.2337e-06 0.027743)
(-2.45613e-06 -1.65505e-06 0.0172534)
(-1.27432e-06 -4.32088e-07 0.00908464)
(-3.68607e-07 -4.20662e-08 0.00275715)
(-8.46754e-06 -5.00051e-06 0.0424599)
(-5.38283e-06 -1.87719e-06 0.0288847)
(-3.1246e-06 -3.75365e-07 0.0180904)
(-1.54946e-06 1.33651e-07 0.00958983)
(-4.63788e-07 1.20567e-07 0.00293219)
(4.26397e-06 7.11319e-06 0.0423029)
(1.70977e-06 3.88508e-06 0.028739)
(4.45995e-07 1.97722e-06 0.0179747)
(-2.1174e-08 8.63595e-07 0.0095162)
(-7.57638e-08 2.39945e-07 0.0029057)
(7.62927e-06 3.98374e-06 0.0423025)
(4.24286e-06 1.43844e-06 0.0287384)
(2.22953e-06 2.01971e-07 0.0179743)
(1.02308e-06 -2.12796e-07 0.00951587)
(2.95634e-07 -1.43641e-07 0.00290556)
(-5.29342e-06 -1.22014e-05 0.0425154)
(-3.88044e-06 -5.37764e-06 0.028924)
(-2.43526e-06 -1.90644e-06 0.0181157)
(-1.28437e-06 -4.19671e-07 0.00960361)
(-3.40757e-07 -5.08283e-08 0.00293647)
(1.01901e-05 3.95011e-07 0.0424722)
(5.2222e-06 -1.09472e-07 0.0288927)
(2.27831e-06 -3.61708e-07 0.0180956)
(7.72025e-07 -3.45629e-07 0.00959272)
(1.62187e-07 -1.65229e-07 0.00293315)
(-1.02726e-05 3.15305e-06 0.0424803)
(-5.3441e-06 2.79404e-06 0.0288962)
(-2.45895e-06 2.09807e-06 0.0180959)
(-9.19804e-07 1.25367e-06 0.00959184)
(-2.24545e-07 4.61386e-07 0.00293262)
(-4.99826e-06 3.51934e-06 0.0423013)
(-2.62987e-06 1.48726e-06 0.0287383)
(-1.28622e-06 3.7656e-07 0.0179746)
(-5.3644e-07 -6.56012e-08 0.00951635)
(-1.51261e-07 -5.64192e-08 0.0029057)
(-6.48988e-06 2.36457e-06 0.0413093)
(-3.38252e-06 8.80933e-07 0.0278961)
(-1.62476e-06 2.37863e-07 0.0173478)
(-6.40782e-07 -1.49974e-08 0.00913511)
(-1.45295e-07 -3.2685e-08 0.00277299)
(8.53855e-06 -4.66627e-06 0.0413043)
(4.52966e-06 -2.06964e-06 0.0278923)
(2.05585e-06 -6.60187e-07 0.0173464)
(7.76255e-07 -1.15691e-07 0.00913495)
(1.82939e-07 8.29209e-08 0.00277325)
(-8.06899e-06 -4.26133e-06 0.0422902)
(-4.59904e-06 -1.68758e-06 0.0287331)
(-2.27729e-06 -3.93239e-07 0.0179728)
(-9.46291e-07 6.99689e-08 0.00951603)
(-2.07721e-07 6.88658e-08 0.00290589)
(-1.16546e-05 -1.73732e-06 0.04228)
(-7.14539e-06 1.07502e-07 0.0287261)
(-4.00167e-06 8.56898e-07 0.0179686)
(-1.92671e-06 7.81983e-07 0.00951372)
(-5.74807e-07 3.61286e-07 0.00290518)
(-1.10515e-05 2.56035e-06 0.0422758)
(-7.44293e-06 3.13929e-06 0.0287231)
(-4.72297e-06 2.78488e-06 0.0179662)
(-2.57957e-06 1.84025e-06 0.0095121)
(-8.04532e-07 6.19341e-07 0.0029043)
(-1.30443e-05 -1.83009e-06 0.0413147)
(-9.24761e-06 9.7448e-07 0.0278989)
(-5.97242e-06 1.85145e-06 0.0173499)
(-3.26124e-06 1.50127e-06 0.00913658)
(-1.01893e-06 5.44034e-07 0.00277358)
(4.70305e-06 6.93429e-06 0.0412884)
(1.24232e-06 4.12757e-06 0.0278797)
(-3.59394e-07 2.39841e-06 0.0173382)
(-6.86355e-07 1.23771e-06 0.00913065)
(-3.52956e-07 3.77223e-07 0.00277199)
(-4.59466e-06 -2.1148e-06 0.0422734)
(-2.93891e-06 -9.28892e-08 0.0287212)
(-1.66272e-06 4.99115e-07 0.0179651)
(-7.86802e-07 5.0718e-07 0.00951154)
(-2.03427e-07 1.20305e-07 0.00290416)
(-8.35057e-06 -2.68585e-06 0.0412857)
(-4.56632e-06 -5.13261e-07 0.0278789)
(-2.27104e-06 2.81995e-07 0.0173371)
(-9.766e-07 3.9606e-07 0.00912933)
(-2.344e-07 1.46181e-07 0.00277113)
(8.30895e-06 5.61191e-06 0.0412685)
(4.22618e-06 2.97931e-06 0.0278694)
(1.72973e-06 1.44065e-06 0.0173329)
(5.05441e-07 6.18999e-07 0.00912792)
(7.4783e-08 1.02027e-07 0.00277098)
(7.05844e-06 3.6681e-06 0.0422789)
(3.24728e-06 2.24648e-06 0.0287241)
(1.10233e-06 1.23195e-06 0.0179672)
(1.79086e-07 6.28242e-07 0.00951296)
(3.18533e-09 1.10717e-07 0.00290476)
(4.17165e-06 7.04007e-06 0.0422823)
(1.65592e-06 4.27157e-06 0.028726)
(1.86044e-07 2.45931e-06 0.0179685)
(-3.1173e-07 1.24856e-06 0.00951385)
(-1.85804e-07 3.63185e-07 0.00290506)
(1.07681e-05 1.14439e-06 0.0425135)
(5.74057e-06 1.3409e-06 0.0289194)
(2.64101e-06 1.21125e-06 0.0181116)
(9.43894e-07 8.13731e-07 0.00960085)
(2.18044e-07 3.38976e-07 0.00293543)
(-9.85713e-06 -1.15817e-06 0.0425206)
(-5.04311e-06 -1.24498e-06 0.0289227)
(-2.26862e-06 -1.0613e-06 0.018112)
(-8.05948e-07 -7.20533e-07 0.00960017)
(-1.80926e-07 -2.42641e-07 0.00293492)
(9.19747e-06 8.28407e-07 0.0425153)
(4.5434e-06 1.07067e-06 0.0289199)
(1.97443e-06 9.13043e-07 0.0181107)
(7.15548e-07 5.50638e-07 0.00959973)
(1.35718e-07 2.58563e-07 0.00293492)
(9.4973e-06 -1.53582e-06 0.0424977)
(4.86274e-06 -1.58231e-06 0.0289085)
(2.21341e-06 -1.28123e-06 0.0181039)
(8.24174e-07 -7.84041e-07 0.00959651)
(1.74429e-07 -3.4004e-07 0.002934)
(5.81374e-06 -6.23249e-06 0.0423013)
(2.8991e-06 -3.22665e-06 0.0287394)
(1.18247e-06 -1.42608e-06 0.0179766)
(3.81884e-07 -5.16063e-07 0.00951804)
(3.98115e-08 -9.64494e-08 0.00290654)
(1.02884e-05 -3.90699e-06 0.0422836)
(5.94711e-06 -1.47646e-06 0.0287296)
(3.16976e-06 -1.24917e-07 0.0179711)
(1.46263e-06 3.08776e-07 0.00951555)
(4.17415e-07 2.05245e-07 0.00290589)
(1.28061e-06 -1.0164e-05 0.0424204)
(1.9253e-07 -5.24139e-06 0.0288586)
(-4.27514e-07 -2.34541e-06 0.0180749)
(-4.92951e-07 -8.81309e-07 0.00958206)
(-2.65465e-07 -1.87416e-07 0.0029299)
(-1.43306e-06 9.33661e-06 0.0424909)
(-9.21323e-07 4.56067e-06 0.0289036)
(-4.51977e-07 1.90843e-06 0.0181008)
(-1.46861e-07 6.26075e-07 0.00959482)
(-3.40833e-08 1.01615e-07 0.00293349)
(-1.71536e-06 -1.02512e-05 0.042423)
(-5.78915e-07 -5.23904e-06 0.0288604)
(7.54769e-08 -2.31449e-06 0.0180759)
(2.61091e-07 -8.05996e-07 0.00958238)
(1.55473e-07 -1.75011e-07 0.00292994)
(2.5873e-07 9.84106e-06 0.0424922)
(-2.39922e-07 5.02385e-06 0.0289051)
(-5.0834e-07 2.24555e-06 0.0181019)
(-4.58069e-07 8.15117e-07 0.00959516)
(-2.03867e-07 1.78084e-07 0.00293362)
(5.51522e-06 9.6157e-06 0.0603047)
(1.36895e-05 6.31656e-06 0.0602638)
(0.000155216 0.000159658 0.129648)
(2.52116e-05 1.39431e-05 0.0840764)
(1.15702e-05 1.61614e-05 0.083912)
(4.09879e-05 -1.09565e-06 0.0963601)
(3.03232e-05 4.92169e-06 0.0704193)
(4.31027e-05 -1.31423e-06 0.115872)
(2.01469e-06 -2.89204e-06 0.135152)
(2.97523e-05 2.01424e-05 0.0992241)
(1.9937e-07 -1.58943e-06 0.139283)
(4.09872e-05 5.80238e-08 0.0963678)
(3.14988e-05 -2.90962e-06 0.0704825)
(4.27192e-05 9.08235e-07 0.115864)
(1.37432e-06 -4.51771e-08 0.135171)
(5.77534e-09 2.59242e-07 0.139286)
(3.01666e-05 -1.76532e-05 0.0992405)
(-1.11481e-06 1.05714e-06 0.135197)
(-3.07148e-05 -1.76336e-05 0.0992399)
(-3.08338e-05 -3.3407e-06 0.0704552)
(1.61238e-05 -4.53414e-06 0.0603144)
(0.000154362 -0.000154941 0.129524)
(1.35169e-05 -1.28609e-05 0.0839524)
(2.59695e-05 -7.99864e-06 0.0842759)
(1.18364e-05 -1.25825e-05 0.0604237)
(-1.92848e-06 -4.51318e-05 0.1167)
(2.36676e-06 -2.27175e-07 0.135345)
(2.54892e-07 -1.48528e-06 0.139342)
(2.85228e-05 -2.98608e-05 0.0997244)
(-2.04216e-07 -4.57889e-05 0.1167)
(-2.99477e-06 -5.97797e-07 0.135362)
(-7.46211e-07 -8.70994e-07 0.139347)
(-2.90016e-05 -2.94909e-05 0.0997082)
(-1.2775e-06 -4.32226e-05 0.0972398)
(9.73551e-06 -3.14365e-05 0.0707525)
(9.79289e-08 -4.41089e-05 0.0972441)
(-1.09496e-05 -3.09047e-05 0.0707474)
(-0.000155476 -0.000155638 0.129538)
(-1.42359e-05 -1.35694e-05 0.0839815)
(-2.48799e-05 -9.0338e-06 0.0842238)
(-1.55411e-05 -3.37957e-06 0.060297)
(-1.23552e-05 -1.17436e-05 0.0604051)
(9.53117e-06 4.55741e-06 0.0589802)
(6.65054e-06 9.84347e-06 0.0589392)
(1.52256e-05 1.13642e-05 0.0762689)
(1.01571e-05 1.3816e-05 0.0698522)
(2.70377e-05 5.48219e-05 0.108556)
(2.10604e-05 5.15673e-05 0.0958632)
(1.30294e-05 9.258e-06 0.0696462)
(5.4427e-05 1.18513e-05 0.108367)
(5.29615e-05 9.0385e-06 0.0956746)
(-6.87833e-06 5.06749e-06 0.0645796)
(4.19267e-05 -3.30279e-07 0.0928612)
(1.27416e-05 -6.62878e-07 0.0668626)
(-3.854e-05 8.74752e-07 0.0963463)
(1.43627e-05 1.39165e-07 0.0645696)
(-3.69021e-05 3.07399e-06 0.0928758)
(-5.68216e-06 1.56515e-06 0.0668614)
(-7.80677e-06 5.15331e-06 0.0584265)
(3.34304e-05 2.4266e-06 0.0819773)
(-2.56594e-05 2.99714e-06 0.070482)
(1.56999e-05 5.95347e-07 0.058439)
(-2.99549e-05 7.96386e-07 0.0820226)
(-7.46101e-06 -4.55701e-06 0.0646231)
(1.25798e-05 -2.95007e-08 0.0668744)
(4.01146e-05 1.2343e-06 0.0928869)
(-3.67608e-05 -1.4267e-06 0.096353)
(1.29133e-05 8.50494e-07 0.064614)
(-5.97224e-06 -1.40035e-06 0.0668729)
(-3.72304e-05 -2.20097e-06 0.0929031)
(-8.43237e-06 -3.39471e-06 0.0584806)
(3.34487e-05 6.62977e-07 0.0820297)
(-2.46049e-05 -5.16123e-07 0.0705441)
(1.59441e-05 1.87903e-06 0.0584948)
(-2.92756e-05 2.01726e-06 0.0820729)
(6.93134e-06 -3.13997e-06 0.0584438)
(-3.47687e-05 -1.14543e-06 0.0820053)
(2.40042e-05 -1.58787e-07 0.0705101)
(-1.7936e-05 1.34971e-06 0.0584627)
(2.75925e-05 1.22852e-06 0.0820464)
(-8.62469e-06 6.44147e-07 0.0603039)
(-1.34316e-05 9.69264e-06 0.0762828)
(8.82258e-06 -1.32501e-05 0.0589788)
(1.28027e-05 -7.02454e-06 0.0589728)
(1.62669e-05 -1.14615e-05 0.0762281)
(-4.21914e-06 6.08189e-06 0.0589462)
(-9.97347e-06 -8.5674e-07 0.0590085)
(-4.85095e-05 6.32472e-06 0.095712)
(1.68615e-05 -1.3151e-05 0.0697357)
(5.71235e-05 -9.256e-06 0.108386)
(-1.08199e-05 1.43685e-05 0.0839895)
(-5.12588e-05 1.12077e-05 0.108439)
(5.66595e-05 -1.30794e-05 0.0956218)
(-1.17508e-05 4.12665e-06 0.0697496)
(-1.91092e-05 5.24798e-05 0.095962)
(1.49473e-05 -1.03793e-05 0.0698616)
(2.38103e-05 -5.25964e-05 0.108647)
(-2.33951e-05 7.01606e-06 0.0843761)