/*--------------------------------*- C++ -*----------------------------------*\
| =========                 |                                                 |
| \\      /  F ield         | OpenFOAM: The Open Source CFD Toolbox           |
|  \\    /   O peration     | Version:  2206                                  |
|   \\  /    A nd           | Website:  www.openfoam.com                      |
|    \\/     M anipulation  |                                                 |
\*---------------------------------------------------------------------------*/
FoamFile
{
    version     2.0;
    format      ascii;
    arch        "LSB;label=32;scalar=64";
    class       volVectorField;
    location    "100";
    object      wallShearStress;
}
// * * * * * * * * * * * * * * * * * * * * * * * * * * * * * * * * * * * * * //

dimensions      [0 2 -2 0 0 0 0];

internalField   uniform (0 0 0);

boundaryField
{
    topPatch
    {
        type            calculated;
        value           nonuniform List<vector> 0();
    }
    wall
    {
        type            calculated;
        value           nonuniform List<vector> 
7709
(
(3.43769e-08 -2.79227e-09 -0.000105583)
(8.81663e-09 -4.38585e-10 -0.000105451)
(3.56567e-09 -2.4363e-09 -0.00011221)
(4.1396e-08 -1.62496e-08 -0.000112242)
(6.54507e-09 -4.3905e-09 -0.000112125)
(-2.75727e-09 1.38638e-10 -0.000112256)
(6.23863e-09 -4.33667e-09 -0.000105543)
(-6.73445e-09 5.52355e-09 -0.00010556)
(-5.37615e-09 -4.22144e-09 -0.000105507)
(1.07441e-08 2.0296e-09 -0.000112192)
(2.02047e-08 -1.88915e-11 -0.000105491)
(-1.35387e-08 -4.18702e-09 -0.000105485)
(-3.46101e-09 -3.24398e-09 -0.000112186)
(-8.99088e-09 -7.07606e-10 -0.000112163)
(-1.00381e-08 4.94215e-09 -0.000107061)
(3.9549e-09 -4.19569e-09 -0.000108433)
(-5.87332e-09 3.53901e-09 -0.000108499)
(8.76064e-09 -1.40122e-08 -0.000107025)
(-6.81096e-09 -1.07491e-08 -0.000105437)
(-4.05163e-09 3.61859e-09 -0.000112245)
(-6.76268e-09 -2.39728e-09 -0.000105964)
(1.46631e-08 -9.09403e-09 -0.000105953)
(-8.12624e-09 -3.50779e-09 -0.000105928)
(1.64698e-08 -1.28241e-09 -0.000105853)
(-1.87877e-09 -8.93497e-09 -0.00011216)
(-9.92153e-09 -8.47936e-09 -0.000111121)
(-7.99512e-09 -2.86378e-09 -0.000106037)
(-6.6071e-09 -8.4592e-09 -0.000107131)
(5.69824e-09 6.48267e-09 -0.000108457)
(-5.91034e-09 -2.97283e-09 -0.000108516)
(7.98597e-09 1.04326e-08 -0.000107086)
(-6.65223e-09 2.4584e-09 -0.000105536)
(-2.37536e-09 -4.32075e-09 -0.000108498)
(-7.45617e-09 -8.82909e-09 -0.000107103)
(-5.63751e-09 6.00369e-09 -0.000108483)
(-6.38336e-09 1.21072e-08 -0.00010707)
(2.42881e-08 1.23751e-08 -0.000111109)
(1.19932e-08 -2.0583e-09 -0.000105985)
(-9.46853e-09 4.29856e-09 -0.000105901)
(-9.85389e-09 1.67513e-09 -0.00011213)
(1.46854e-08 9.34727e-09 -0.000106925)
(-2.5137e-09 -4.58584e-09 -0.000108405)
(1.09053e-08 4.95633e-09 -0.000108352)
(-6.49266e-09 -6.48663e-09 -0.00010702)
(-1.10217e-08 4.81249e-09 -0.000105367)
(-1.22585e-08 8.10124e-09 -0.000106935)
(4.32913e-09 -4.99661e-09 -0.000108409)
(-5.39518e-09 4.13623e-09 -0.000108357)
(1.18859e-08 -7.2881e-09 -0.000107024)
(1.52397e-08 4.42772e-09 -0.000105352)
(1.88176e-08 -2.78644e-09 -0.000112092)
(1.21214e-09 -1.06145e-08 -0.000111082)
(-1.25624e-08 4.06348e-09 -0.000111079)
(1.38974e-08 4.99369e-09 -0.000112219)
(-8.78965e-09 5.6227e-09 -0.000112095)
(1.10388e-08 -1.70372e-08 -0.000112074)
(6.7731e-09 1.40646e-09 -0.000111083)
(6.75661e-09 4.35322e-10 -0.000105945)
(-8.76433e-09 -1.93597e-09 -0.000105956)
(9.76945e-09 -1.181e-09 -0.00011109)
(2.34708e-08 -1.22204e-08 -0.000111064)
(3.13393e-08 -2.32999e-08 -0.000111036)
(4.03847e-08 -1.91051e-08 -0.000105967)
(1.25283e-08 -1.58911e-08 -0.000105906)
(8.65032e-09 -3.95753e-09 -0.000111025)
(1.06694e-08 -4.46509e-09 -0.000105882)
(-4.91623e-09 -5.39406e-09 -0.000105877)
(-1.28786e-09 -5.69848e-09 -0.000111054)
(5.52332e-09 -1.53044e-08 -0.00011106)
(-1.10127e-08 -1.22748e-08 -0.000112188)
(9.56422e-09 8.59593e-09 -0.000112168)
(-7.23736e-09 -9.38075e-09 -0.000112162)
(-8.83456e-09 1.24644e-08 -0.000112123)
(-3.14332e-09 4.99522e-09 -0.000111115)
(-1.76909e-08 -5.93313e-09 -0.000111083)
(9.57057e-09 9.40263e-09 -0.000111968)
(1.84451e-09 -5.88586e-09 -0.000112105)
(-5.35063e-09 9.06079e-09 -0.000111972)
(7.23631e-09 -9.03789e-09 -0.000112113)
(-1.04396e-08 2.12668e-09 -0.000112175)
(-2.59648e-09 -8.41383e-10 -0.000112212)
(-4.67692e-09 -5.4106e-09 -0.000105495)
(-7.309e-09 -2.27802e-09 -0.000105595)
(5.03616e-09 -7.97001e-10 -0.000105556)
(-9.04732e-09 -9.10932e-09 -0.000112292)
(-2.23447e-08 -6.26553e-09 -0.000112161)
(-1.73107e-08 3.31035e-09 -0.000105384)
(2.21444e-08 -1.16706e-09 -0.000105388)
(7.24748e-09 -8.14647e-09 -0.000112273)
(2.23479e-08 -7.67279e-09 -0.000112135)
(1.07171e-10 -1.78343e-08 -0.000106935)
(-3.44984e-09 5.50135e-09 -0.000108565)
(-5.26117e-09 6.82686e-09 -0.000107134)
(-2.63366e-09 -3.66048e-09 -0.000108343)
(4.09894e-09 -2.41921e-08 -0.000111997)
(3.84746e-09 -8.85669e-09 -0.000105369)
(-4.4343e-11 1.98882e-08 -0.000106997)
(-3.41756e-09 -2.98826e-10 -0.000108586)
(-4.27802e-09 -8.05961e-09 -0.000107201)
(-2.57563e-09 5.6519e-09 -0.000108363)
(2.04993e-09 5.79364e-09 -0.000105462)
(-3.62984e-09 1.72832e-08 -0.000112032)
(-2.00088e-09 5.35857e-10 -0.00010542)
(4.542e-09 1.09525e-08 -0.000112142)
(-1.06179e-08 -4.13047e-09 -0.000111151)
(-1.58214e-08 -4.63839e-09 -0.000105969)
(2.09314e-08 1.4913e-08 -0.000105936)
(2.77938e-08 1.42241e-08 -0.00011215)
(-3.56857e-10 -4.20386e-09 -0.000107)
(2.18586e-09 3.63612e-09 -0.000108352)
(7.5349e-09 6.6333e-09 -0.00010694)
(2.90367e-09 -2.84203e-09 -0.000108401)
(2.75984e-08 6.11299e-09 -0.000105446)
(-1.87829e-09 -3.81473e-09 -0.000107006)
(-3.77102e-09 5.12903e-09 -0.000108353)
(-4.51711e-09 6.04356e-09 -0.000106947)
(-3.46799e-09 -3.33292e-09 -0.000108406)
(-4.98064e-09 -2.73051e-09 -0.000112078)
(-1.99463e-08 4.511e-09 -0.000105441)
(-2.94541e-10 2.72375e-10 -0.000111032)
(-1.47572e-08 1.20122e-08 -0.000111036)
(1.22445e-08 -1.07235e-08 -0.000106006)
(-5.26562e-09 5.52578e-09 -0.000105903)
(1.86252e-08 -6.49468e-09 -0.000105901)
(-1.10082e-08 4.29874e-09 -0.000105883)
(-6.00856e-10 2.90189e-09 -0.000112119)
(-1.39266e-08 6.41415e-09 -0.000112126)
(3.80089e-09 1.0808e-08 -0.000111146)
(6.84908e-09 -3.46146e-09 -0.000111152)
(2.44419e-08 -1.68808e-08 -0.000111121)
(-1.06471e-08 5.66468e-09 -0.000111076)
(-2.88311e-09 -3.25197e-09 -0.000105942)
(-2.61959e-09 -2.3045e-09 -0.000111088)
(-9.9435e-09 5.66187e-09 -0.000105917)
(-6.17276e-09 8.28943e-09 -0.000112162)
(4.29838e-09 1.97505e-08 -0.000112092)
(-8.97689e-09 -1.57986e-08 -0.000112254)
(7.95263e-09 -1.20165e-08 -0.000112203)
(-1.31385e-08 -7.61838e-09 -0.000105971)
(9.90841e-09 9.84857e-09 -0.000105875)
(-2.9931e-09 -4.69273e-09 -0.000111035)
(1.01036e-08 1.16199e-08 -0.00011105)
(6.84757e-09 -2.03493e-09 -0.000112071)
(4.35248e-09 8.80419e-09 -0.000111986)
(2.10106e-09 6.13815e-09 -0.000111997)
(-1.31869e-08 -1.29224e-09 -0.000105395)
(1.41244e-08 1.99089e-09 -0.000105532)
(1.12288e-08 3.58114e-10 -0.000112157)
(-2.35274e-08 -7.56823e-09 -0.000112243)
(-4.41762e-09 1.78387e-10 -0.000105497)
(3.07545e-09 4.28282e-09 -0.000105499)
(-1.21226e-08 -4.19267e-09 -0.00010535)
(2.87243e-08 -2.26947e-10 -0.000105559)
(1.93838e-08 4.70526e-09 -0.000112113)
(-1.52261e-08 -9.21781e-10 -0.000112258)
(-2.91206e-09 -7.77678e-09 -0.000105445)
(4.69457e-09 6.57439e-09 -0.000105543)
(3.07242e-09 1.53498e-08 -0.00011226)
(4.20375e-09 -3.41907e-09 -0.000112342)
(-1.36345e-08 2.29589e-09 -0.000112136)
(1.61799e-08 -3.69557e-09 -0.000112222)
(-3.98352e-09 2.35325e-09 -0.000112206)
(2.46207e-09 1.85262e-09 -0.000112192)
(1.5191e-08 -1.48774e-09 -0.000112239)
(-1.72973e-08 4.42226e-09 -0.000112119)
(4.30728e-09 4.88031e-10 -0.000112216)
(-1.7349e-10 -6.34797e-09 -0.000112182)
(1.10619e-08 -2.64307e-09 -0.000105428)
(-1.83726e-08 -4.87669e-10 -0.000105563)
(1.1705e-08 3.83827e-09 -0.00010555)
(-1.67859e-08 -5.79936e-10 -0.00010538)
(-1.69979e-08 1.80305e-09 -0.000105574)
(1.46244e-08 -9.8204e-10 -0.000105409)
(1.35429e-09 -2.39914e-09 -0.000112298)
(-2.8108e-09 3.0259e-10 -0.000112282)
(-2.1027e-08 -5.27495e-09 -0.000112258)
(1.27404e-08 1.47772e-09 -0.000112142)
(-4.45244e-09 4.93938e-10 -0.000112305)
(1.07905e-09 -5.6896e-09 -0.000112267)
(-4.43273e-09 -1.35005e-09 -0.000105597)
(2.88502e-09 -3.61643e-09 -0.000105603)
(5.19713e-09 2.33042e-09 -0.000105526)
(-2.68644e-09 -6.53855e-09 -0.000105472)
(4.8625e-09 -3.42351e-10 -0.000105614)
(-1.97571e-09 6.13618e-09 -0.000105576)
(3.24091e-09 -3.40564e-09 -0.00010557)
(-3.28283e-09 1.99098e-09 -0.000105575)
(1.12203e-09 7.87296e-09 -0.00010552)
(-5.02588e-09 -8.12621e-10 -0.000105531)
(-6.72612e-09 -7.17097e-10 -0.000105601)
(2.14826e-09 -8.40721e-09 -0.000105546)
(-5.10627e-09 -2.92333e-09 -0.000105542)
(2.44947e-09 7.44027e-09 -0.000105502)
(-2.18439e-08 5.21754e-09 -0.00011209)
(2.54509e-08 -7.91164e-09 -0.00011224)
(6.75353e-10 -1.04365e-08 -0.000112152)
(4.30612e-09 3.85746e-09 -0.000112228)
(1.27789e-08 -3.24093e-09 -0.000105376)
(-1.53731e-08 3.28968e-09 -0.000105577)
(5.54302e-10 -6.08768e-09 -0.000112245)
(1.51455e-09 1.10828e-08 -0.000112326)
(-5.36295e-10 1.47633e-08 -0.000105535)
(8.08435e-09 6.20875e-10 -0.000105634)
(6.93664e-10 -1.36985e-08 -0.000105522)
(-4.70607e-09 1.18845e-08 -0.000105625)
(2.7602e-09 1.12957e-08 -0.000105464)
(-7.95353e-09 -4.91699e-09 -0.000105574)
(-1.89784e-08 -5.18604e-09 -0.000112159)
(2.1514e-08 3.99236e-09 -0.000112309)
(-1.82092e-08 -3.07975e-09 -0.000112171)
(-1.92833e-08 -5.06788e-11 -0.0001054)
(2.05909e-08 -1.86748e-09 -0.000105599)
(1.1514e-08 3.20574e-09 -0.000105349)
(-2.0631e-08 -1.78945e-09 -0.000105552)
(-6.4126e-09 6.24494e-09 -0.000105393)
(9.56432e-09 5.95265e-09 -0.000105342)
(-1.11199e-09 1.03213e-08 -0.000112181)
(-5.66014e-09 9.38603e-10 -0.000112268)
(1.89858e-08 -4.13768e-09 -0.00011208)
(-1.97532e-08 2.91275e-09 -0.000112228)
(1.85773e-08 -2.51623e-09 -0.000112083)
(5.24445e-09 -5.48868e-09 -0.000106968)
(-1.32861e-10 4.27612e-09 -0.000108501)
(1.95397e-09 -5.33139e-09 -0.000108377)
(-7.42538e-09 6.58783e-09 -0.000107097)
(1.68275e-08 -1.218e-09 -0.000105516)
(-1.66743e-08 -5.77551e-11 -0.000105387)
(-2.34624e-08 -7.61772e-09 -0.000112231)
(9.01462e-09 3.02098e-10 -0.000112152)
(-5.54565e-09 1.90941e-08 -0.000107134)
(1.67554e-09 5.50412e-09 -0.000108512)
(-3.02937e-09 1.38523e-08 -0.000108571)
(3.42821e-09 -6.50987e-09 -0.000107094)
(5.22647e-09 -8.28026e-09 -0.00011214)
(2.85196e-09 3.00523e-09 -0.000105494)
(-8.98254e-09 1.61261e-08 -0.000112135)
(-3.31128e-09 -4.35824e-09 -0.000105487)
(1.55242e-08 -8.86641e-09 -0.000106938)
(4.49611e-10 6.1008e-09 -0.000108499)
(4.32426e-09 -6.5107e-09 -0.000108344)
(3.38853e-09 7.01783e-09 -0.000107096)
(3.42839e-09 5.47771e-09 -0.000112188)
(2.13689e-08 1.15944e-10 -0.000105548)
(1.90935e-08 -1.22427e-08 -0.000111989)
(-2.02677e-09 -8.80238e-09 -0.00010534)
(-2.20927e-08 -5.46454e-09 -0.000112265)
(1.4759e-08 9.90877e-10 -0.000112097)
(-7.03153e-09 1.58909e-08 -0.000107077)
(4.58225e-09 -2.51085e-09 -0.000108548)
(-3.02526e-09 3.95586e-09 -0.000108513)
(6.89664e-09 -6.95146e-09 -0.000107135)
(8.8004e-09 -8.91577e-09 -0.00011219)
(5.18681e-09 5.30345e-09 -0.000105536)
(-3.80724e-09 -9.76545e-09 -0.000105438)
(4.29381e-09 -2.47083e-09 -0.000112332)
(2.70436e-09 1.56245e-08 -0.000112251)
(1.74734e-10 8.9984e-09 -0.000105941)
(-8.75735e-09 8.97287e-10 -0.000106014)
(9.42014e-09 -3.21302e-11 -0.000105869)
(-1.75914e-08 6.54697e-09 -0.000105953)
(-1.04943e-08 2.39913e-09 -0.000106029)
(-1.92281e-09 1.37291e-08 -0.000105936)
(-1.56614e-08 2.5956e-09 -0.000105958)
(1.35596e-08 -3.76045e-09 -0.000105868)
(-2.03656e-09 7.92187e-09 -0.000111105)
(1.58192e-08 -6.8686e-09 -0.000111056)
(1.4077e-08 -3.96188e-09 -0.000112209)
(-1.48008e-08 3.18622e-09 -0.000112128)
(1.34309e-09 2.42479e-09 -0.000112187)
(-1.21673e-09 -3.74701e-09 -0.000112197)
(-1.92783e-08 5.37883e-09 -0.00011211)
(1.5664e-08 -2.70745e-09 -0.000112231)
(1.09042e-09 -9.32186e-09 -0.000112162)
(2.9929e-09 8.78212e-10 -0.000112199)
(-6.91271e-09 -6.95424e-09 -0.000107001)
(4.20373e-09 5.0234e-09 -0.000108518)
(1.3841e-09 -4.5491e-09 -0.000108396)
(5.09277e-09 5.71279e-09 -0.000107128)
(-2.12995e-08 -1.2938e-09 -0.000105555)
(-1.20242e-09 -6.80849e-09 -0.000112057)
(1.27513e-08 -1.10596e-09 -0.000105426)
(-4.18175e-09 7.74556e-09 -0.000107108)
(5.47428e-09 -5.17269e-09 -0.000108372)
(5.88686e-09 -6.70303e-09 -0.000106963)
(2.47141e-09 5.50195e-09 -0.000108514)
(-1.87845e-08 1.74921e-10 -0.000105372)
(1.2984e-08 2.03343e-09 -0.000105541)
(7.5064e-09 7.7451e-09 -0.000107139)
(4.49974e-09 -4.01293e-09 -0.000108391)
(-6.70282e-09 -5.69029e-09 -0.000106999)
(5.47061e-09 6.2346e-09 -0.000108528)
(-3.61894e-09 -7.12438e-09 -0.00011204)
(1.28357e-08 -1.32536e-09 -0.000105395)
(-1.74362e-08 1.51415e-09 -0.000105568)
(7.01588e-09 5.00799e-09 -0.000106027)
(-4.97271e-09 -2.94955e-10 -0.000106028)
(-3.75527e-09 1.19033e-09 -0.000106033)
(6.42047e-09 1.824e-09 -0.000106018)
(7.06411e-09 3.67053e-09 -0.000111165)
(-3.13381e-09 -7.57209e-10 -0.000112275)
(1.79493e-09 -3.88462e-09 -0.000112286)
(1.60546e-08 3.64387e-09 -0.000112129)
(-2.41928e-08 -7.14957e-09 -0.000112251)
(2.47304e-09 -2.21799e-09 -0.000111141)
(-4.76619e-09 3.84961e-09 -0.000106056)
(7.94163e-09 3.25068e-09 -0.000105983)
(6.11949e-09 1.40831e-09 -0.000106)
(-4.18755e-09 4.01939e-09 -0.000106048)
(1.16274e-09 -5.30045e-09 -0.000111121)
(1.14104e-09 -3.16887e-09 -0.000112256)
(-4.33861e-09 2.7804e-10 -0.000112294)
(-2.80599e-09 -4.76737e-09 -0.000107186)
(3.17792e-09 1.14219e-08 -0.000108534)
(-1.60301e-09 7.76566e-09 -0.000108591)
(5.11205e-09 1.67803e-08 -0.000107146)
(1.68135e-09 -7.0248e-09 -0.000105583)
(-6.30492e-09 -9.08219e-09 -0.000112217)
(-2.52481e-09 2.9953e-09 -0.000105587)
(5.98229e-09 -7.98552e-09 -0.000107107)
(-3.01224e-09 9.40745e-09 -0.000108557)
(-5.07963e-09 1.47109e-08 -0.000107121)
(3.19295e-09 7.93849e-10 -0.000108524)
(-2.55173e-09 -8.37956e-09 -0.000105456)
(3.26101e-09 5.8574e-09 -0.000105508)
(5.28338e-09 1.46707e-08 -0.00010715)
(-1.8829e-09 4.82034e-09 -0.000108576)
(-4.16144e-09 -4.79192e-09 -0.000107171)
(4.36729e-09 7.30788e-09 -0.00010854)
(-2.64032e-09 9.62018e-09 -0.000105556)
(4.05911e-09 -1.99911e-09 -0.000105609)
(4.54335e-09 1.00059e-08 -0.000107153)
(-2.05874e-09 -4.69259e-09 -0.000108522)
(2.88154e-09 3.11218e-09 -0.000108577)
(-4.36614e-09 -1.45551e-08 -0.000107115)
(-3.81745e-09 9.18844e-10 -0.000105566)
(7.17876e-09 1.03591e-08 -0.000112189)
(3.14148e-09 -6.47667e-09 -0.000105561)
(3.86701e-09 -7.35679e-09 -0.000107144)
(-2.00816e-09 1.00226e-09 -0.000108512)
(2.66421e-09 -1.66524e-09 -0.00010857)
(-4.32226e-09 1.24655e-08 -0.000107102)
(-4.63203e-09 4.14977e-10 -0.000105512)
(4.91106e-09 -4.93798e-09 -0.000112151)
(-3.18839e-10 1.0684e-08 -0.000105516)
(-5.86782e-09 -1.14195e-08 -0.000107126)
(3.62461e-09 1.49644e-09 -0.000108563)
(4.25269e-09 8.511e-09 -0.00010714)
(-3.55129e-09 -5.03059e-09 -0.00010853)
(-2.99079e-10 -1.20726e-08 -0.000105536)
(-6.37161e-09 -1.02594e-09 -0.000105587)
(-4.7161e-09 1.00973e-08 -0.000107108)
(3.48459e-09 -6.69099e-09 -0.000108556)
(5.97986e-09 -1.14275e-08 -0.000107124)
(-2.99898e-09 -1.42513e-09 -0.000108519)
(2.1377e-09 8.69377e-09 -0.00010548)
(-4.44963e-09 -2.40113e-09 -0.000105535)
(1.75455e-08 -3.97061e-09 -0.000112238)
(-1.76512e-08 2.6472e-09 -0.00011208)
(4.09763e-09 3.63367e-09 -0.000112224)
(-6.27737e-10 -9.87098e-09 -0.000112142)
(-1.20817e-08 -8.08278e-09 -0.000106963)
(-2.44266e-09 5.90468e-09 -0.00010851)
(-4.35397e-09 -7.11627e-09 -0.000108357)
(3.30915e-10 7.49139e-09 -0.00010712)
(-1.58792e-08 3.4893e-09 -0.00010558)
(-1.38061e-08 -1.09898e-08 -0.000112019)
(1.04547e-08 -4.95953e-09 -0.000105367)
(-4.1179e-09 -1.26497e-09 -0.000111173)
(6.50695e-09 -3.729e-10 -0.000105974)
(-4.52192e-09 5.2691e-09 -0.000106058)
(4.89248e-10 8.81262e-09 -0.000106077)
(2.16765e-09 -6.62896e-09 -0.000105997)
(-3.05529e-09 3.20033e-09 -0.000112315)
(-1.6716e-09 -1.36748e-08 -0.000112241)
(-5.81151e-09 -7.17815e-09 -0.000107108)
(5.36464e-09 5.13647e-09 -0.00010856)
(-4.85879e-09 -4.85433e-09 -0.000108519)
(7.30058e-09 1.67404e-08 -0.000107163)
(7.54629e-09 2.39589e-09 -0.000105622)
(-7.44735e-09 -1.7452e-09 -0.000112143)
(-4.16161e-10 1.61105e-08 -0.00010553)
(5.88955e-09 9.49809e-09 -0.000107105)
(-5.85267e-09 -2.05629e-10 -0.000108571)
(4.37298e-09 5.72136e-09 -0.000108524)
(-9.17575e-09 -1.24103e-08 -0.000107169)
(-6.08898e-09 2.89929e-09 -0.00010561)
(7.4047e-09 7.8877e-09 -0.000112141)
(4.44645e-09 -8.88896e-09 -0.000105512)
(5.83136e-09 -9.82258e-09 -0.000107091)
(-6.21007e-09 5.84309e-09 -0.000108562)
(3.79792e-09 2.5486e-09 -0.000108516)
(-8.95991e-09 9.41272e-09 -0.000107155)
(-7.47349e-09 -4.4601e-09 -0.000105559)
(7.29131e-09 -1.28862e-08 -0.000112098)
(3.60702e-09 9.43369e-09 -0.000105461)
(-9.60559e-09 -1.1615e-10 -0.00010596)
(1.61261e-08 2.49215e-09 -0.00010608)
(1.53857e-08 1.25235e-09 -0.000106069)
(-1.19565e-08 1.21879e-10 -0.000105956)
(-1.15667e-08 -4.49555e-09 -0.000111141)
(1.62231e-08 1.8412e-09 -0.000112315)
(-1.87557e-08 -2.84851e-09 -0.000112151)
(-8.54643e-10 4.72996e-09 -0.000111165)
(-7.41381e-09 5.14037e-10 -0.000105994)
(1.92811e-09 7.95055e-09 -0.000106942)
(-4.88741e-10 -5.42176e-09 -0.000108489)
(3.02496e-09 7.96047e-09 -0.000108338)
(-1.03701e-08 -7.63421e-09 -0.0001071)
(1.10781e-08 -4.41646e-09 -0.000105603)
(2.01188e-09 8.77575e-09 -0.000112008)
(-1.2524e-08 3.66979e-09 -0.000105389)
(-7.12667e-09 7.67171e-09 -0.000106932)
(1.32638e-09 -5.69684e-09 -0.000108489)
(-1.82763e-09 7.33452e-09 -0.000108338)
(4.28663e-09 -6.9229e-09 -0.000107086)
(-1.85685e-08 -1.0408e-09 -0.000105548)
(-7.76209e-09 1.03248e-08 -0.000111978)
(1.00907e-08 4.47944e-09 -0.000105338)
(6.84985e-09 4.56852e-09 -0.000108339)
(1.7389e-08 8.55742e-09 -0.000106941)
(-1.09666e-08 5.50007e-09 -0.000108338)
(-2.23769e-08 1.00284e-08 -0.000106923)
(-3.58686e-09 -2.52049e-09 -0.000112255)
(-1.92726e-09 1.33911e-08 -0.000112178)
(-1.88643e-08 3.65415e-09 -0.000112229)
(2.32104e-08 -5.46383e-09 -0.000112069)
(8.66235e-09 8.11409e-10 -0.000105877)
(-2.43162e-08 1.37446e-09 -0.000105418)
(2.08056e-08 -2.38958e-09 -0.000105463)
(2.43723e-08 8.82959e-09 -0.000112169)
(-2.28846e-08 -8.68642e-09 -0.00011213)
(-3.19463e-09 2.37437e-09 -0.0001055)
(2.58869e-09 6.08897e-10 -0.000105403)
(-4.9908e-09 -7.51731e-09 -0.000112296)
(1.24551e-09 -1.32261e-09 -0.000112183)
(-8.78572e-09 -3.04255e-09 -0.000105382)
(2.01791e-08 -3.01089e-09 -0.000105436)
(6.35779e-09 -2.20333e-09 -0.00011211)
(-2.20353e-08 -8.5002e-09 -0.000112108)
(-1.01177e-09 -5.95957e-09 -0.00010552)
(3.18092e-09 1.29198e-09 -0.000105425)
(-1.81083e-09 1.3992e-10 -0.000112325)
(1.38686e-09 -4.53428e-10 -0.000112204)
(-1.85635e-08 1.77672e-09 -0.000105372)
(1.92361e-08 -1.86938e-09 -0.000105432)
(1.71838e-08 4.59289e-09 -0.000112107)
(-1.18377e-08 -1.89508e-09 -0.00011211)
(-3.13159e-09 1.43413e-09 -0.000105544)
(1.46109e-09 1.17326e-09 -0.000105435)
(-5.47445e-09 -6.12e-09 -0.000112333)
(5.26809e-09 6.37491e-09 -0.0001122)
(-1.46396e-08 3.21153e-10 -0.000105372)
(1.75617e-08 -2.27506e-09 -0.000105432)
(1.25816e-08 2.736e-09 -0.000112121)
(-1.513e-08 -4.83169e-09 -0.000112136)
(-5.39557e-09 6.46067e-09 -0.000105557)
(2.24801e-09 1.28144e-10 -0.000105443)
(-1.02096e-09 7.26679e-10 -0.000112336)
(5.86407e-09 8.95973e-09 -0.000112205)
(-1.9686e-08 1.18211e-09 -0.000105369)
(1.78167e-08 -1.18815e-09 -0.000105425)
(2.77404e-08 1.01109e-08 -0.000112134)
(-7.29761e-09 7.47491e-11 -0.000112135)
(-1.5129e-09 -3.21993e-09 -0.000105552)
(3.50519e-09 -2.41206e-09 -0.00010544)
(1.95054e-09 6.30369e-09 -0.000112327)
(4.20922e-09 6.43184e-09 -0.0001122)
(-1.78739e-08 5.06987e-11 -0.000105353)
(1.53442e-08 -1.7568e-09 -0.000105413)
(1.82659e-08 5.17921e-09 -0.000112135)
(-1.16968e-08 -2.99476e-09 -0.000112134)
(-4.82571e-09 3.8443e-09 -0.000105543)
(2.22113e-09 -3.27101e-10 -0.00010544)
(-4.21287e-09 -6.21559e-09 -0.000112342)
(-3.44333e-10 -2.11925e-09 -0.000112208)
(-1.8978e-08 3.85856e-10 -0.000105355)
(1.6496e-08 -1.53551e-09 -0.000105416)
(1.90242e-08 6.05753e-09 -0.000112133)
(-1.10818e-08 -2.83484e-09 -0.000112136)
(-3.66181e-09 3.14318e-09 -0.000105549)
(7.44669e-10 1.61224e-09 -0.000105433)
(-2.14558e-09 -1.82628e-09 -0.000112338)
(4.78824e-09 6.23028e-09 -0.000112206)
(-2.62509e-08 3.47624e-09 -0.000105359)
(1.38826e-08 -1.30548e-11 -0.000105425)
(1.46637e-08 3.49222e-09 -0.000112144)
(-1.48191e-08 -5.01121e-09 -0.000112149)
(-3.58886e-09 2.85061e-09 -0.000105539)
(2.28948e-09 1.64598e-09 -0.000105427)
(-1.80039e-09 -4.83316e-10 -0.000112339)
(1.55856e-09 1.95071e-09 -0.000112204)
(-1.33039e-08 3.04356e-10 -0.000105375)
(1.77075e-08 -1.46461e-09 -0.000105436)
(2.89277e-08 1.04449e-08 -0.000112151)
(-3.83176e-09 3.56869e-09 -0.000112161)
(-3.0754e-09 3.01826e-09 -0.000105537)
(2.18299e-09 1.09928e-09 -0.000105417)
(-2.41218e-09 -3.04145e-09 -0.000112339)
(4.67775e-09 6.20532e-09 -0.000112209)
(-1.85902e-08 1.04251e-09 -0.000105379)
(1.54529e-08 -8.41219e-10 -0.000105445)
(1.8256e-08 6.02179e-09 -0.000112163)
(-1.13062e-08 -2.40689e-09 -0.000112171)
(-2.29526e-09 -3.19439e-09 -0.000105529)
(2.48675e-09 -2.54498e-10 -0.000105421)
(9.59686e-10 4.58404e-09 -0.000112341)
(3.95987e-09 5.82337e-09 -0.000112216)
(-1.94695e-08 1.36342e-09 -0.000105396)
(1.3889e-08 -5.64089e-10 -0.000105461)
(2.14066e-08 5.79058e-09 -0.000112165)
(-1.15765e-08 -1.89565e-09 -0.000112167)
(-1.44505e-09 -4.12333e-09 -0.000105544)
(3.60642e-09 -1.47815e-09 -0.000105439)
(-7.18469e-09 -9.80635e-09 -0.000112357)
(-1.32944e-09 -4.86774e-09 -0.000112224)
(-1.60834e-08 4.5963e-10 -0.000105404)
(1.98097e-08 -2.70013e-09 -0.000105468)
(1.57132e-08 2.33608e-09 -0.000112177)
(-1.56492e-08 -5.51604e-09 -0.000112184)
(-1.50518e-09 -3.87787e-09 -0.000105541)
(7.20396e-09 -1.10886e-08 -0.000105432)
(-3.24007e-09 -2.20283e-09 -0.000112354)
(4.86104e-09 6.41252e-09 -0.000112227)
(-2.18849e-08 1.24692e-09 -0.000105414)
(1.38864e-08 -1.24282e-10 -0.000105478)
(1.99739e-08 4.75394e-09 -0.000112177)
(-1.04044e-08 -5.33665e-10 -0.000112196)
(-1.27422e-09 -3.63701e-09 -0.000105543)
(2.82773e-09 -5.33087e-10 -0.000105447)
(-2.18419e-09 1.77751e-10 -0.000112356)
(4.14836e-09 6.32074e-09 -0.000112241)
(-1.98248e-08 2.43004e-09 -0.000105407)
(1.30343e-08 -6.05296e-11 -0.000105486)
(2.34228e-08 8.14132e-09 -0.000112183)
(-1.15593e-08 -1.19842e-09 -0.00011221)
(-1.91241e-09 -3.87234e-09 -0.000105545)
(3.90215e-09 -3.0188e-09 -0.000105459)
(-2.81825e-09 -2.56552e-09 -0.000112355)
(2.42077e-09 -1.41431e-10 -0.000112253)
(-1.44776e-08 -1.95756e-10 -0.000105403)
(1.76602e-08 -3.81221e-10 -0.000105503)
(2.15757e-08 7.20468e-09 -0.000112171)
(-6.57622e-09 1.5598e-09 -0.000112215)
(-2.63448e-09 -4.76098e-09 -0.000105527)
(3.92627e-09 -8.59746e-11 -0.000105467)
(-1.38027e-09 1.72748e-09 -0.000112338)
(3.57919e-09 -9.77075e-11 -0.000112271)
(-4.8216e-09 -1.30251e-09 -0.000112314)
(3.42912e-09 -2.07608e-09 -0.000112308)
(9.22855e-09 -2.40462e-09 -0.000112215)
(3.62157e-09 -4.59501e-09 -0.000112097)
(5.24969e-09 3.25024e-09 -0.000105514)
(-9.26055e-09 -4.79238e-09 -0.000105433)
(-2.40122e-09 6.12753e-09 -0.000105521)
(2.4688e-08 -2.06342e-09 -0.000105443)
(-1.34989e-08 -4.30674e-09 -0.000112218)
(2.50825e-08 9.91201e-09 -0.000112197)
(-7.24334e-09 -1.14765e-08 -0.000112225)
(4.56889e-09 3.94056e-09 -0.000112328)
(3.0304e-09 1.23815e-10 -0.00010542)
(8.74913e-10 -4.05366e-09 -0.000105521)
(-7.22898e-09 -7.70022e-09 -0.000105523)
(6.91102e-09 -1.16673e-10 -0.000105593)
(2.24266e-09 -9.92095e-09 -0.000105468)
(-4.24902e-10 -2.0418e-09 -0.000112192)
(1.52723e-08 4.92999e-09 -0.000112164)
(1.93307e-08 2.1197e-09 -0.000105465)
(-1.79671e-08 1.22304e-09 -0.000105469)
(2.1414e-09 -4.31311e-09 -0.000112157)
(-1.66841e-08 5.64505e-09 -0.000112154)
(-2.60463e-08 8.75779e-09 -0.000112167)
(2.28201e-08 -8.72138e-09 -0.000112148)
(-1.86523e-09 3.07158e-10 -0.000112199)
(4.94551e-09 -7.4004e-09 -0.000112088)
(2.24143e-08 -8.47713e-09 -0.000112137)
(-4.93583e-09 -1.3449e-09 -0.000112134)
(8.65748e-09 -1.15501e-08 -0.000112104)
(1.50206e-09 -4.86411e-09 -0.000112214)
(2.66725e-08 4.43057e-09 -0.000105423)
(-1.69072e-08 -7.02915e-10 -0.000105454)
(2.77706e-08 -5.60451e-09 -0.000105451)
(-8.34677e-09 -2.23486e-09 -0.000105402)
(-3.38667e-08 -7.99515e-09 -0.00010545)
(7.75776e-09 -2.01893e-09 -0.000105397)
(2.02153e-09 1.76906e-09 -0.000112326)
(-2.97809e-09 -6.03775e-09 -0.000112196)
(-2.91586e-08 -1.19883e-08 -0.000112126)
(-2.21484e-10 -4.6274e-09 -0.000112115)
(-5.67529e-09 -8.9157e-09 -0.000112198)
(-2.97975e-09 -6.07918e-09 -0.000112323)
(-3.77514e-09 -4.08953e-09 -0.000105604)
(7.25919e-10 -5.23731e-09 -0.000105498)
(6.61277e-09 -9.70012e-09 -0.000105412)
(-1.88873e-09 -2.49432e-09 -0.00010551)
(1.14716e-09 -9.32013e-10 -0.000105509)
(-4.86239e-09 -6.6441e-09 -0.00010561)
(1.11654e-09 -5.08835e-09 -0.000105603)
(-2.90185e-09 -2.68765e-10 -0.000105488)
(8.74357e-09 -1.06531e-08 -0.000105542)
(-2.56979e-10 -5.51153e-09 -0.000105428)
(-4.06061e-09 -4.63857e-09 -0.000105493)
(-2.97989e-10 -5.85679e-09 -0.000105595)
(-3.7392e-09 3.38073e-09 -0.000105435)
(4.51493e-09 -4.60754e-09 -0.000105537)
(-1.82795e-08 -6.92275e-09 -0.000112145)
(9.36361e-09 1.2756e-09 -0.000112157)
(3.95085e-09 4.78585e-09 -0.000112198)
(-4.09418e-09 -5.9762e-09 -0.00011231)
(5.61528e-09 -1.3389e-09 -0.000112165)
(-2.2272e-08 -8.39672e-09 -0.000112149)
(-1.86698e-08 -2.24224e-09 -0.000105387)
(1.01297e-08 -1.85376e-09 -0.00010545)
(1.43581e-08 8.91715e-10 -0.000105386)
(-1.765e-08 2.56582e-09 -0.000105449)
(9.16446e-09 -1.14015e-09 -0.00010546)
(-2.4766e-08 -4.94356e-09 -0.00010539)
(-1.38764e-08 5.46493e-10 -0.000105458)
(1.84981e-08 -1.16528e-09 -0.000105389)
(8.50699e-09 -9.26596e-09 -0.00011225)
(-1.93824e-09 4.53254e-10 -0.00011213)
(1.45886e-08 -3.40353e-09 -0.000112124)
(-1.42668e-08 4.36949e-09 -0.000112137)
(-5.99069e-09 7.96149e-09 -0.000112138)
(2.58418e-09 -3.10405e-09 -0.000112257)
(-1.20815e-08 2.21404e-09 -0.000112149)
(1.93261e-08 -6.1057e-09 -0.00011213)
(-1.31428e-08 2.35207e-09 -0.000112126)
(1.72675e-08 -5.39157e-09 -0.000112129)
(1.62865e-09 -5.22161e-09 -0.000112232)
(1.9901e-09 -4.33711e-10 -0.00011211)
(1.70799e-08 -4.37635e-09 -0.000112126)
(-1.62563e-08 3.68265e-09 -0.000112113)
(3.16109e-09 -2.91838e-09 -0.000112124)
(-3.71266e-09 3.95857e-09 -0.000112234)
(-1.3048e-11 -6.03171e-09 -0.000105379)
(-2.56294e-08 -6.17192e-09 -0.000105424)
(1.53563e-08 -6.64866e-10 -0.000105431)
(-1.50511e-08 -1.00458e-09 -0.000105365)
(-1.99612e-08 -3.01444e-09 -0.000105419)
(1.34027e-08 -2.62143e-10 -0.000105357)
(4.54062e-10 -2.38162e-09 -0.000112323)
(-6.26875e-09 -8.63068e-09 -0.000112209)
(-2.12818e-08 -7.56947e-09 -0.000112114)
(1.56878e-08 4.33366e-09 -0.0001121)
(-5.85314e-09 -9.6471e-09 -0.000112206)
(1.69891e-09 -4.31785e-10 -0.000112328)
(-3.75474e-09 -1.04123e-10 -0.000105618)
(3.55251e-09 2.47271e-09 -0.000105509)
(2.47194e-09 1.20662e-09 -0.000105436)
(-3.37233e-09 2.24263e-09 -0.000105531)
(1.33624e-09 -2.66297e-09 -0.000105509)
(-2.86984e-09 1.04559e-09 -0.000105614)
(2.07675e-09 -4.54544e-09 -0.000105599)
(-3.84004e-09 -3.39082e-09 -0.0001055)
(1.00207e-09 6.09697e-09 -0.000105547)
(-4.56979e-09 5.70437e-09 -0.00010544)
(-4.06815e-09 -4.16234e-09 -0.000105502)
(1.88023e-09 -2.36781e-09 -0.000105607)
(-3.89533e-09 6.56378e-09 -0.000105444)
(9.5407e-12 5.44506e-09 -0.000105553)
(-2.78557e-08 -1.12956e-08 -0.000112156)
(1.27287e-08 3.37968e-09 -0.000112166)
(-1.0689e-09 -3.22439e-09 -0.000112205)
(-4.59945e-09 -5.10928e-09 -0.000112327)
(1.70814e-08 5.77626e-09 -0.000112171)
(-1.75008e-08 -5.853e-09 -0.00011216)
(-2.38629e-08 -2.91971e-09 -0.000105396)
(1.51905e-08 6.75479e-10 -0.000105465)
(1.94306e-08 -1.87617e-09 -0.000105398)
(-1.41053e-08 2.33261e-10 -0.000105455)
(1.71352e-08 1.42329e-09 -0.000105467)
(-1.99724e-08 -2.90548e-09 -0.000105406)
(-2.14771e-08 3.00997e-09 -0.000105458)
(2.00068e-08 -2.43941e-09 -0.000105395)
(-7.36785e-10 3.77282e-09 -0.000112269)
(-6.89602e-09 1.0038e-08 -0.000112143)
(1.99986e-08 -6.80999e-09 -0.000112143)
(-1.31182e-08 2.91789e-09 -0.000112149)
(-7.41858e-09 1.19495e-08 -0.000112148)
(-1.3302e-09 4.16745e-09 -0.00011227)
(-1.53508e-08 4.80866e-09 -0.000112147)
(1.96597e-08 -6.7313e-09 -0.000112138)
(-1.40971e-08 4.5995e-09 -0.000112122)
(1.60268e-08 -5.06242e-09 -0.000112129)
(-2.71568e-09 2.56271e-09 -0.000112251)
(3.14446e-09 -4.2253e-09 -0.000112124)
(1.61517e-08 -5.44297e-09 -0.00011213)
(-1.72674e-08 4.35633e-09 -0.000112116)
(8.3834e-10 2.62983e-09 -0.000112139)
(-2.87833e-09 3.18237e-09 -0.000112246)
(1.31192e-08 -9.20448e-10 -0.000105357)
(-1.53e-08 -2.02749e-10 -0.000105414)
(1.95892e-08 -2.4339e-09 -0.000105431)
(-1.69339e-08 5.02999e-10 -0.000105366)
(-2.6615e-08 -5.96585e-09 -0.000105424)
(1.6349e-08 2.01768e-09 -0.000105359)
(3.02953e-09 1.77383e-09 -0.000112333)
(3.76828e-10 1.13145e-09 -0.000112217)
(-1.92047e-08 -7.04155e-09 -0.000112127)
(1.32131e-08 3.71809e-09 -0.000112107)
(-2.77766e-09 -1.76618e-09 -0.000112222)
(6.24456e-10 2.58297e-10 -0.000112342)
(-3.38301e-09 -2.76238e-09 -0.00010562)
(3.68499e-09 4.09851e-09 -0.0001055)
(1.53986e-09 4.7851e-09 -0.00010545)
(-3.45358e-09 1.94138e-10 -0.000105539)
(3.03471e-09 2.10518e-10 -0.000105507)
(-2.17075e-09 3.07643e-09 -0.000105605)
(2.34162e-09 -4.20434e-09 -0.000105609)
(5.90176e-10 5.89907e-09 -0.000105511)
(3.08915e-10 5.45159e-09 -0.000105558)
(-3.17769e-09 1.4455e-09 -0.000105455)
(-3.59376e-09 -1.18683e-09 -0.000105516)
(2.59184e-09 6.31056e-10 -0.000105617)
(-3.69764e-09 1.08683e-09 -0.000105461)
(2.90491e-09 -9.97459e-10 -0.000105566)
(-1.6216e-08 -4.29225e-09 -0.000112161)
(1.49941e-08 4.62084e-09 -0.000112164)
(4.87106e-09 6.42065e-09 -0.000112202)
(-6.25202e-10 2.70063e-09 -0.000112321)
(1.1716e-08 1.13142e-09 -0.000112177)
(-1.82162e-08 -5.99586e-09 -0.000112157)
(-1.90256e-08 -1.55512e-09 -0.000105401)
(1.73492e-08 7.09244e-10 -0.000105462)
(1.29119e-08 -7.02509e-10 -0.000105401)
(-1.82288e-08 1.93761e-09 -0.000105468)
(1.64587e-08 6.60584e-10 -0.000105471)