/*--------------------------------*- C++ -*----------------------------------*\
| =========                 |                                                 |
| \\      /  F ield         | OpenFOAM: The Open Source CFD Toolbox           |
|  \\    /   O peration     | Version:  2206                                  |
|   \\  /    A nd           | Website:  www.openfoam.com                      |
|    \\/     M anipulation  |                                                 |
\*---------------------------------------------------------------------------*/
FoamFile
{
    version     2.0;
    format      ascii;
    arch        "LSB;label=32;scalar=64";
    class       volScalarField;
    location    "20";
    object      k;
}
// * * * * * * * * * * * * * * * * * * * * * * * * * * * * * * * * * * * * * //

dimensions      [0 2 -2 0 0 0 0];

internalField   nonuniform List<scalar> 
66701
(
6.34991e-06
5.67528e-06
9.13806e-06
1.15247e-05
6.73316e-06
1.65499e-05
1.53912e-05
7.29205e-06
5.8123e-06
9.51858e-06
1.17886e-05
6.76063e-06
1.65404e-05
7.33812e-06
1.56188e-05
6.53573e-06
2.05114e-06
5.26156e-07
1.21372e-07
1.27493e-07
8.75955e-07
2.00888e-06
5.15664e-07
1.19872e-07
1.28073e-07
8.81274e-07
1.90764e-06
4.76911e-07
1.08095e-07
1.12394e-07
7.67059e-07
1.99048e-06
4.97321e-07
1.11773e-07
1.12771e-07
7.67255e-07
2.10254e-06
5.38522e-07
1.23836e-07
1.27823e-07
8.76475e-07
2.05347e-06
5.28836e-07
1.22356e-07
1.28383e-07
8.81765e-07
1.74404e-06
4.44387e-07
1.04599e-07
1.18398e-07
8.17095e-07
1.78132e-06
4.55942e-07
1.07493e-07
1.2055e-07
8.3217e-07
1.75126e-06
4.47218e-07
1.05227e-07
1.18435e-07
8.16865e-07
1.79193e-06
4.58419e-07
1.07914e-07
1.20635e-07
8.32502e-07
6.43221e-06
6.36149e-06
2.91577e-05
1.21452e-05
1.19805e-05
9.27393e-06
2.92008e-05
1.82247e-05
1.67521e-05
9.05132e-06
2.4244e-05
2.91801e-05
1.7875e-05
2.86348e-05
1.66554e-05
9.49838e-06
2.41243e-05
2.9261e-05
2.86606e-05
1.80523e-05
6.53095e-06
2.9339e-05
1.19126e-05
6.40286e-06
8.71555e-06
5.71654e-06
5.59024e-06
8.59597e-06
5.78538e-06
5.61554e-06
1.6291e-05
9.06798e-06
2.13858e-05
1.21521e-05
1.63132e-05
9.02869e-06
2.17221e-05
1.58678e-05
8.69928e-06
2.12702e-05
1.1784e-05
1.59266e-05
8.71856e-06
2.13808e-05
6.79272e-06
1.55247e-05
7.30226e-06
1.6655e-05
6.87273e-06
1.56234e-05
7.29816e-06
5.75284e-06
1.15137e-05
9.15692e-06
5.69839e-06
1.15317e-05
6.77263e-06
7.31588e-06
1.5505e-05
1.65928e-05
6.82763e-06
7.33687e-06
1.57632e-05
5.82223e-06
1.18022e-05
9.53401e-06
5.81774e-06
1.17988e-05
6.53419e-06
9.07041e-06
5.89456e-06
5.82419e-06
1.63174e-05
2.13677e-05
1.19489e-05
2.13305e-05
9.04128e-06
1.62828e-05
1.19423e-05
9.00634e-06
2.13503e-05
6.26938e-06
2.62734e-05
2.52155e-05
2.50636e-05
2.3682e-05
2.6056e-05
2.52064e-05
2.53925e-05
2.38969e-05
2.49618e-05
2.37856e-05
2.52487e-05
2.39775e-05
2.23661e-05
2.9119e-05
2.65703e-05
2.66724e-05
2.23422e-05
2.66043e-05
2.66882e-05
2.73064e-05
2.2124e-05
2.54268e-05
1.83145e-05
2.52914e-05
2.73867e-05
2.20114e-05
2.80946e-05
2.32999e-05
2.89401e-05
2.42105e-05
2.81327e-05
2.32657e-05
2.87232e-05
2.6995e-05
2.13172e-05
2.48607e-05
1.78649e-05
2.48024e-05
2.70577e-05
2.13655e-05
2.81206e-05
2.85587e-05
2.33226e-05
2.41691e-05
2.83431e-05
2.85802e-05
2.33781e-05
2.71485e-05
2.16218e-05
2.52827e-05
1.81897e-05
2.71563e-05
2.13201e-05
2.49881e-05
2.26919e-05
2.91671e-05
2.67053e-05
2.70265e-05
2.66669e-05
2.07447e-06
5.3243e-07
1.22595e-07
1.27716e-07
8.76676e-07
2.04581e-06
5.24263e-07
1.21291e-07
1.27486e-07
8.75873e-07
1.92174e-06
4.78918e-07
1.08432e-07
1.12353e-07
7.66673e-07
1.89367e-06
4.73557e-07
1.07732e-07
1.12363e-07
7.6704e-07
1.98662e-06
4.95587e-07
1.11541e-07
1.1276e-07
7.67261e-07
2.10405e-06
5.3713e-07
1.23393e-07
1.2779e-07
8.76515e-07
2.0566e-06
5.27411e-07
1.21852e-07
1.28014e-07
8.79608e-07
1.75411e-06
4.4705e-07
1.05125e-07
1.1877e-07
8.19713e-07
1.78157e-06
4.5567e-07
1.07387e-07
1.20525e-07
8.32086e-07
1.77064e-06
4.48454e-07
1.05162e-07
1.18439e-07
8.17064e-07
1.78268e-06
4.56347e-07
1.07658e-07
1.20985e-07
8.35443e-07
1.90737e-06
4.76845e-07
1.08282e-07
1.12777e-07
7.69992e-07
1.7679e-06
4.48703e-07
1.05455e-07
1.18867e-07
8.20086e-07
1.78778e-06
4.55659e-07
1.07361e-07
1.20574e-07
8.32387e-07
1.75739e-06
4.45136e-07
1.04729e-07
1.18382e-07
8.16783e-07
1.79519e-06
4.5888e-07
1.08049e-07
1.20973e-07
8.35096e-07
1.99872e-06
4.99107e-07
1.12174e-07
1.13219e-07
7.70507e-07
2.1158e-06
5.39674e-07
1.23976e-07
1.28271e-07
8.79929e-07
1.91306e-06
4.77903e-07
1.08591e-07
1.13684e-07
7.76859e-07
2.00147e-06
5.1288e-07
1.191e-07
1.2758e-07
8.78357e-07
1.95028e-06
5.00979e-07
1.16844e-07
1.26994e-07
8.75221e-07
1.95208e-06
4.87714e-07
1.10161e-07
1.13477e-07
7.74272e-07
1.9436e-06
4.8388e-07
1.09394e-07
1.13863e-07
7.77842e-07
1.92294e-06
4.93522e-07
1.1556e-07
1.26723e-07
8.74286e-07
1.89109e-06
4.72128e-07
1.07605e-07
1.13293e-07
7.74508e-07
1.8861e-06
4.71789e-07
1.07663e-07
1.13636e-07
7.77313e-07
1.96762e-06
5.03106e-07
1.17303e-07
1.27407e-07
8.78226e-07
1.91123e-06
4.9209e-07
1.15444e-07
1.27198e-07
8.78067e-07
2.00581e-06
5.14761e-07
1.19883e-07
1.28628e-07
8.85551e-07
1.99833e-06
5.1245e-07
1.19243e-07
1.28027e-07
8.81275e-07
2.06004e-06
5.30297e-07
1.22715e-07
1.28879e-07
8.85452e-07
2.05175e-06
5.27137e-07
1.21971e-07
1.28344e-07
8.81776e-07
1.95791e-06
4.9038e-07
1.10933e-07
1.14011e-07
7.77664e-07
2.01571e-06
5.18835e-07
1.20318e-07
1.27758e-07
8.78485e-07
1.98845e-06
5.11418e-07
1.18871e-07
1.27549e-07
8.78044e-07
2.91625e-05
2.90968e-05
2.63998e-05
2.92215e-05
2.92596e-05
2.93293e-05
2.61344e-05
2.9244e-05
2.94605e-05
2.92879e-05
2.61158e-05
2.91971e-05
2.93875e-05
2.90873e-05
2.60437e-05
2.93002e-05
2.94108e-05
2.90537e-05
2.59807e-05
2.92965e-05
2.92825e-05
2.92887e-05
2.60232e-05
2.92932e-05
2.94038e-05
2.92534e-05
2.60851e-05
2.92835e-05
2.93561e-05
2.94365e-05
2.62233e-05
2.9216e-05
2.92841e-05
2.91156e-05
2.63701e-05
2.9382e-05
2.92403e-05
2.92957e-05
2.60813e-05
2.94456e-05
2.93034e-05
2.9268e-05
2.6256e-05
2.95477e-05
2.92252e-05
2.94875e-05
2.59915e-05
2.93246e-05
2.9447e-05
2.92091e-05
2.61255e-05
2.95754e-05
2.94237e-05
2.93857e-05
2.5957e-05
2.94324e-05
2.93993e-05
2.93897e-05
2.60038e-05
2.94036e-05
2.91863e-05
2.94067e-05
2.60379e-05
2.94522e-05
2.92205e-05
2.92002e-05
2.92144e-05
2.92738e-05
2.91415e-05
2.92528e-05
2.93721e-05
2.92562e-05
2.91928e-05
2.92047e-05
2.94184e-05
2.93904e-05
2.93229e-05
2.93583e-05
2.92635e-05
2.93174e-05
2.92843e-05
2.95009e-05
2.92209e-05
2.93675e-05
2.94038e-05
2.9286e-05
2.94612e-05
2.92394e-05
2.93909e-05
2.92061e-05
2.93283e-05
2.92717e-05
2.92106e-05
2.93268e-05
2.91535e-05
2.94395e-05
2.93476e-05
2.93869e-05
2.94354e-05
2.951e-05
2.93274e-05
2.92787e-05
2.93216e-05
2.92699e-05
2.94711e-05
2.93841e-05
2.92096e-05
2.93563e-05
2.92827e-05
2.94458e-05
2.92699e-05
2.93289e-05
2.94252e-05
2.91113e-05
2.91565e-05
2.91695e-05
2.93358e-05
2.94218e-05
2.9283e-05
2.93691e-05
2.91566e-05
2.92081e-05
2.92846e-05
2.93011e-05
2.92724e-05
2.92796e-05
2.94656e-05
2.92794e-05
2.93512e-05
2.92584e-05
2.91806e-05
2.92515e-05
2.94405e-05
2.94826e-05
2.90696e-05
2.91365e-05
2.92313e-05
2.92827e-05
2.93737e-05
2.92943e-05
2.93951e-05
2.92326e-05
2.93698e-05
2.94436e-05
2.92993e-05
2.92427e-05
2.92729e-05
2.9417e-05
2.92967e-05
2.92137e-05
2.91478e-05
2.90791e-05
2.9426e-05
2.94809e-05
2.92644e-05
2.93041e-05
2.92439e-05
2.94837e-05
2.93567e-05
2.95053e-05
2.94614e-05
2.94508e-05
2.93213e-05
2.91945e-05
2.93929e-05
2.93822e-05
2.91985e-05
2.932e-05
2.93674e-05
2.93193e-05
2.96699e-05
2.9069e-05
2.91695e-05
2.9309e-05
2.92557e-05
2.9313e-05
2.92808e-05
2.95819e-05
2.92546e-05
2.96586e-05
2.93871e-05
2.9411e-05
2.93605e-05
2.91708e-05
2.91665e-05
2.92503e-05
2.94801e-05
2.92345e-05
2.92982e-05
2.95537e-05
2.94571e-05
2.95228e-05
2.92657e-05
2.9318e-05
2.94588e-05
2.92324e-05
2.95698e-05
2.96134e-05
2.91198e-05
2.9087e-05
2.93829e-05
2.93585e-05
2.93569e-05
2.93987e-05
2.91549e-05
2.91456e-05
2.9241e-05
2.93426e-05
2.93754e-05
2.93599e-05
2.95897e-05
2.9243e-05
2.93973e-05
2.92217e-05
2.92069e-05
2.93807e-05
2.92927e-05
2.93281e-05
2.91453e-05
2.91236e-05
2.92316e-05
2.95013e-05
2.93405e-05
2.94039e-05
2.94575e-05
2.91335e-05
2.91331e-05
2.95479e-05
2.94066e-05
2.93086e-05
2.93608e-05
2.94993e-05
2.9268e-05
2.93235e-05
2.92692e-05
2.91654e-05
2.92984e-05
2.92527e-05
2.92436e-05
2.90838e-05
2.93218e-05
2.9358e-05
2.93891e-05
2.93262e-05
2.94745e-05
2.92549e-05
2.93955e-05
2.91474e-05
2.93154e-05
2.93743e-05
2.92982e-05
2.94e-05
2.94473e-05
2.94882e-05
2.95123e-05
2.91587e-05
2.92846e-05
2.92259e-05
2.92521e-05
2.93727e-05
2.91758e-05
2.93848e-05
2.91888e-05
2.93151e-05
2.94531e-05
2.93113e-05
2.93451e-05
2.91267e-05
2.91958e-05
2.92758e-05
2.94758e-05
2.93988e-05
2.92673e-05
2.93977e-05
2.93776e-05
2.94462e-05
2.92142e-05
2.9196e-05
2.93647e-05
2.94077e-05
2.92723e-05
2.91953e-05
2.91758e-05
2.91389e-05
2.93356e-05
2.93094e-05
2.94769e-05
2.9329e-05
2.91503e-05
2.91831e-05
2.92282e-05
2.93617e-05
2.93303e-05
2.937e-05
2.92796e-05
2.9313e-05
2.92736e-05
2.91506e-05
2.93633e-05
2.94263e-05
2.92814e-05
2.92322e-05
2.92132e-05
2.92453e-05
2.90978e-05
2.94269e-05
2.95125e-05
2.92816e-05
2.93524e-05
2.91611e-05
2.93571e-05
2.93861e-05
2.94017e-05
2.92971e-05
2.92771e-05
2.93118e-05
2.945e-05
2.94162e-05
2.91643e-05
2.91609e-05
2.92728e-05
2.92802e-05
2.92447e-05
2.93012e-05
2.90946e-05
2.92936e-05
2.93426e-05
2.94755e-05
2.94183e-05
2.93198e-05
2.92818e-05
2.91717e-05
2.91176e-05
2.94008e-05
2.92337e-05
2.92333e-05
2.9415e-05
2.93352e-05
2.95549e-05
2.93395e-05
2.91776e-05
2.93534e-05
2.9275e-05
2.92742e-05
2.94002e-05
2.90955e-05
2.90969e-05
2.94592e-05
2.94637e-05
2.93268e-05
2.93049e-05
2.91357e-05
2.92103e-05
2.92905e-05
2.93742e-05
2.91062e-05
2.94598e-05
2.93739e-05
2.92768e-05
2.93354e-05
2.91709e-05
2.93919e-05
2.92718e-05
2.93585e-05
2.94085e-05
2.92529e-05
2.93403e-05
2.91512e-05
2.92821e-05
2.93265e-05
2.92262e-05
2.92833e-05
2.91183e-05
2.92325e-05
2.91364e-05
2.92896e-05
2.90974e-05
2.9286e-05
2.93614e-05
2.93672e-05
2.93282e-05
2.91721e-05
2.92121e-05
2.94502e-05
2.92688e-05
2.94441e-05
2.9371e-05
2.93814e-05
2.92082e-05
2.90983e-05
2.94657e-05
2.93183e-05
2.94275e-05
2.93073e-05
6.48292e-06
6.60558e-06
2.47393e-05
2.86545e-05
1.82626e-05
2.918e-05
1.82903e-05
2.48265e-05
2.86335e-05
1.17404e-05
1.20042e-05
2.92995e-05
1.19877e-05
1.18314e-05
1.70537e-05
9.34117e-06
9.39246e-06
1.73168e-05
6.3563e-06
6.42085e-06
1.7073e-05
9.40264e-06
9.38102e-06
1.69125e-05
2.61018e-05
2.65221e-05
2.61714e-05
2.61795e-05
2.60703e-05
2.64231e-05
2.61709e-05
2.42011e-05
1.8168e-05
2.87678e-05
2.92195e-05
1.8042e-05
2.87819e-05
2.42707e-05
6.45379e-06
6.50284e-06
2.47914e-05
2.86876e-05
1.81423e-05
2.92681e-05
2.47428e-05
2.86919e-05
1.83151e-05
1.20796e-05
1.19618e-05
2.91644e-05
1.21333e-05
1.18432e-05
1.71199e-05
9.30793e-06
1.70216e-05
9.34367e-06
6.46613e-06
6.48019e-06
1.70668e-05
9.38599e-06
1.69049e-05
9.39998e-06
2.61194e-05
2.61885e-05
2.60918e-05
2.6173e-05
2.62008e-05
2.61489e-05
2.60324e-05
2.41991e-05
1.79608e-05
2.88038e-05
2.92248e-05
2.4211e-05
1.79575e-05
2.87614e-05
6.42594e-06
6.36788e-06
2.43253e-05
2.89188e-05
1.82313e-05
2.93046e-05
2.44246e-05
2.88084e-05
1.84647e-05
1.20258e-05
1.19019e-05
2.92705e-05
1.16576e-05
1.20769e-05
1.72558e-05
9.36872e-06
1.70952e-05
9.35417e-06
6.45327e-06
6.43995e-06
1.68381e-05
9.06861e-06
1.6805e-05
9.01851e-06
2.61402e-05
2.61217e-05
2.60153e-05
2.62545e-05
2.60631e-05
2.62679e-05
2.59541e-05
2.41752e-05
1.78526e-05
2.87955e-05
2.92471e-05
2.41122e-05
1.80115e-05
2.89179e-05
6.3634e-06
6.3972e-06
2.46152e-05
2.88168e-05
1.8303e-05
2.95515e-05
2.46661e-05
2.88233e-05
1.81949e-05
1.16818e-05
1.18868e-05
2.91094e-05
1.14269e-05
1.19742e-05
1.71799e-05
9.21388e-06
1.72711e-05
9.30251e-06
6.41316e-06
6.41865e-06
1.67406e-05
9.09335e-06
1.66067e-05
9.21313e-06
2.60254e-05
2.60642e-05
2.59303e-05
2.59794e-05
2.60171e-05
2.60234e-05
2.59282e-05
2.42934e-05
1.78496e-05
2.90087e-05
2.93322e-05
2.43399e-05
1.78508e-05
2.88612e-05
6.40755e-06
6.4309e-06
2.44911e-05
2.88066e-05
1.81167e-05
2.9482e-05
2.45169e-05
2.89036e-05
1.7886e-05
1.15149e-05
1.19739e-05
2.93552e-05
1.16859e-05
1.1956e-05
1.70902e-05
9.25045e-06
1.73157e-05
9.23209e-06
6.42348e-06
6.34482e-06
1.68436e-05
9.13958e-06
1.67347e-05
9.07913e-06
2.62555e-05
2.60391e-05
2.59276e-05
2.60113e-05
2.61969e-05
2.61057e-05
2.61664e-05
2.42657e-05
1.82851e-05
2.90239e-05
2.93538e-05
2.42611e-05
1.79261e-05
2.89113e-05
6.46083e-06
6.5108e-06
2.43778e-05
2.8838e-05
1.78392e-05
2.92695e-05
2.46289e-05
2.88495e-05
1.78176e-05
1.15911e-05
1.18025e-05
2.94457e-05
1.19696e-05
1.19443e-05
1.70281e-05
9.21479e-06
1.69524e-05
9.20103e-06
6.29457e-06
6.28936e-06
1.69795e-05
8.95034e-06
1.66263e-05
9.11621e-06
2.61491e-05
2.60957e-05
2.6062e-05
2.61582e-05
2.62415e-05
2.60818e-05
2.62846e-05
2.43195e-05
1.82789e-05
2.88759e-05
2.94926e-05
2.41627e-05
1.82036e-05
2.89974e-05
6.47802e-06
6.44327e-06
2.44954e-05
2.87966e-05
1.7874e-05
2.92398e-05
2.44681e-05
2.87812e-05
1.79856e-05
1.17244e-05
1.1871e-05
2.92903e-05
1.18565e-05
1.19237e-05
1.71221e-05
9.24109e-06
1.70838e-05
9.21537e-06
6.33618e-06
6.38615e-06
1.72626e-05
8.903e-06
1.69817e-05
9.01856e-06
2.62104e-05
2.61152e-05
2.61553e-05
2.61363e-05
2.60604e-05
2.62493e-05
2.60588e-05
2.4307e-05
1.7923e-05
2.89201e-05
2.93054e-05
2.43451e-05
1.78811e-05
2.90382e-05
6.46221e-06
6.498e-06
2.45241e-05
2.8807e-05
1.79715e-05
2.94757e-05
2.46149e-05
2.88447e-05
1.80765e-05
1.15891e-05
1.18941e-05
2.93713e-05
1.161e-05
1.17044e-05
1.69905e-05
9.05619e-06
1.72171e-05
9.06341e-06
6.28633e-06
6.33536e-06
1.67317e-05
9.23858e-06
1.67766e-05
9.14066e-06
2.61183e-05
2.60449e-05
2.63059e-05
2.61638e-05
2.63982e-05
2.60557e-05
2.62871e-05
2.43159e-05
1.76591e-05
2.89512e-05
2.9277e-05
2.41749e-05
1.76971e-05
2.88197e-05
6.43012e-06
6.44945e-06
2.45135e-05
2.88523e-05
1.82278e-05
2.94293e-05
2.46968e-05
2.88412e-05
1.79734e-05
1.16647e-05
1.18094e-05
2.91646e-05
1.17534e-05
1.1724e-05
1.71775e-05
9.00391e-06
1.69121e-05
9.13988e-06
6.30804e-06
6.40809e-06
1.69678e-05
9.0127e-06
1.69066e-05
8.90138e-06
2.62266e-05
2.60338e-05
2.63458e-05
2.61059e-05
2.61038e-05
2.60299e-05
2.62801e-05
2.43898e-05
1.78711e-05
2.89956e-05
2.95065e-05
2.41379e-05
1.81173e-05
2.90378e-05
6.39932e-06
6.47763e-06
2.44318e-05
2.8829e-05
1.78348e-05
2.92699e-05
2.47088e-05
2.88868e-05
1.77996e-05
1.18256e-05
1.16483e-05
2.93404e-05
1.18826e-05
1.15788e-05
1.73651e-05
9.26751e-06
1.73003e-05
9.29643e-06
6.51035e-06
6.58663e-06
1.65084e-05
8.95795e-06
1.65859e-05
9.03273e-06
2.60801e-05
2.62705e-05
2.62627e-05
2.62141e-05
2.61508e-05
2.60964e-05
2.60521e-05
2.41367e-05
1.81801e-05
2.89088e-05
2.94843e-05
2.40728e-05
1.80746e-05
2.8863e-05
6.47354e-06
6.43856e-06
2.47773e-05
2.8875e-05
1.77034e-05
2.94091e-05
2.46102e-05
2.88304e-05
1.8026e-05
1.15779e-05
1.16714e-05
2.92121e-05
1.1578e-05
1.17175e-05
1.74443e-05
9.31226e-06
1.72619e-05
9.38641e-06
6.62116e-06
6.60001e-06
1.6727e-05
9.1338e-06
1.65582e-05
9.12026e-06
2.6279e-05
2.61372e-05
2.60392e-05
2.60124e-05
2.61057e-05
2.58922e-05
2.60272e-05
2.43091e-05
1.82085e-05
2.8869e-05
2.93957e-05
2.41005e-05
1.79826e-05
2.90323e-05
6.4771e-06
6.39183e-06
2.48606e-05
2.87412e-05
1.80952e-05
2.93833e-05
2.44419e-05
2.87207e-05
1.80825e-05
1.1538e-05
1.19962e-05
2.95117e-05
1.1772e-05
1.17562e-05
1.74079e-05
9.30508e-06
1.71194e-05
9.27367e-06
6.56748e-06
6.59421e-06
1.66017e-05
9.04142e-06
1.68279e-05
9.05925e-06
2.60771e-05
2.59061e-05
2.60066e-05
2.5996e-05
2.60325e-05
2.5933e-05
2.62343e-05
2.4274e-05
1.77057e-05
2.88509e-05
2.93494e-05
2.43046e-05
1.78884e-05
2.88906e-05
6.38068e-06
6.40155e-06
2.46724e-05
2.88405e-05
1.82563e-05
2.93028e-05
2.4429e-05
2.88093e-05
1.80839e-05
1.18839e-05
1.17833e-05
2.92396e-05
1.1795e-05
1.19501e-05
1.69848e-05
9.22861e-06
1.70028e-05
9.27296e-06
6.60043e-06
6.58733e-06
1.64637e-05
9.32829e-06
1.65777e-05
9.28175e-06
2.60803e-05
2.61112e-05
2.60339e-05
2.59824e-05
2.60314e-05
2.59869e-05
2.61526e-05
2.4287e-05
1.81752e-05
2.89436e-05
2.9418e-05
2.46219e-05
1.80091e-05
2.89522e-05
6.40655e-06
6.42829e-06
2.47556e-05
2.89181e-05
1.82908e-05
2.92594e-05
2.44774e-05
2.87921e-05
1.8086e-05
1.17259e-05
1.18347e-05
2.92126e-05
1.17002e-05
1.16702e-05
1.74029e-05
9.19029e-06
1.70344e-05
9.35337e-06
6.57438e-06
6.59809e-06
1.65999e-05
9.07236e-06
1.65613e-05
9.14562e-06
2.60671e-05
2.59557e-05
2.61296e-05
2.62037e-05
2.6085e-05
2.61693e-05
2.61215e-05
2.41813e-05
1.77768e-05
2.8858e-05
2.94254e-05
2.41465e-05
1.77736e-05
2.90064e-05
6.38094e-06
6.38225e-06
2.43411e-05
2.88252e-05
1.82666e-05
2.92938e-05
2.4288e-05
2.89426e-05
1.82302e-05
1.17083e-05
1.16969e-05
2.91593e-05
1.18627e-05
1.16999e-05
1.71551e-05
9.22582e-06
1.71261e-05
9.23588e-06
6.53489e-06
6.64447e-06
1.66196e-05
8.98948e-06
1.65682e-05
9.0223e-06
2.61358e-05
2.60095e-05
2.61601e-05
2.60413e-05
2.60482e-05
2.58544e-05
2.60974e-05
2.42827e-05
1.78433e-05
2.87921e-05
2.95572e-05
2.42527e-05
1.77892e-05
2.88256e-05
6.39712e-06
6.41529e-06
2.42479e-05
2.89142e-05
1.79978e-05
2.92596e-05
2.44171e-05
2.88576e-05
1.79229e-05
1.17622e-05
1.15963e-05
2.91991e-05
1.19487e-05
1.15813e-05
6.51532e-06
9.05336e-06
1.66222e-05
2.60324e-05
2.59076e-05
2.63252e-05
1.84096e-05
2.87269e-05
2.47117e-05
6.4222e-06
2.88461e-05
1.84007e-05
2.4273e-05
1.18304e-05
1.17652e-05
1.17798e-05
1.21411e-05
2.93669e-05
1.21865e-05
1.21079e-05
6.47476e-06
6.4589e-06
6.49935e-06
6.62551e-06
2.93232e-05
1.19319e-05
1.21119e-05
1.22235e-05
1.21102e-05
6.37181e-06
6.45467e-06
2.47405e-05
2.87134e-05
1.83196e-05
2.91698e-05
1.83075e-05
2.48249e-05
2.87339e-05
1.7415e-05
9.34864e-06
9.41691e-06
1.73978e-05
1.73437e-05
9.10052e-06
9.09097e-06
1.77911e-05
2.4716e-05
2.93089e-05
2.88039e-05
1.80719e-05
1.8479e-05
2.47263e-05
2.86392e-05
2.4756e-05
2.92847e-05
2.86626e-05
1.84603e-05
1.8092e-05
2.4587e-05
2.8805e-05
1.75149e-05
9.23e-06
9.33592e-06
1.74261e-05
1.73106e-05
9.07806e-06
9.12027e-06
1.71089e-05
6.41138e-06
6.41606e-06
6.40643e-06
6.35497e-06
2.93637e-05
1.23188e-05
1.21741e-05
1.19631e-05
1.18418e-05
6.47062e-06
6.40932e-06
6.35286e-06
6.36083e-06
6.44335e-06
6.45652e-06
6.4862e-06
6.47674e-06
1.19846e-05
1.20419e-05
2.93109e-05
1.21619e-05
1.21367e-05
6.44376e-06
6.45773e-06
6.38043e-06
6.52295e-06
2.92627e-05
1.21063e-05
1.17711e-05
1.21193e-05
1.1989e-05
1.69518e-05
9.25996e-06
9.32393e-06
1.71673e-05
2.47229e-05
1.83655e-05
2.88104e-05
2.94466e-05
1.83282e-05
2.86649e-05
2.48918e-05
2.44459e-05
1.81686e-05
2.88143e-05
2.95392e-05
1.82614e-05
2.88686e-05
2.4526e-05
1.7038e-05
9.35973e-06
9.33499e-06
1.72029e-05
1.69636e-05
9.47471e-06
9.4572e-06
1.70472e-05
2.46749e-05
2.94911e-05
1.84956e-05
2.8814e-05
1.83129e-05
2.86844e-05
2.44446e-05
2.43988e-05
2.93752e-05
1.84402e-05
2.88143e-05
1.86062e-05
2.87128e-05
2.44058e-05
1.17465e-05
1.21011e-05
2.93076e-05
1.2023e-05
1.22123e-05
6.48281e-06
6.51892e-06
6.5159e-06
6.50898e-06
2.93212e-05
1.217e-05
1.20395e-05
1.20589e-05
1.22958e-05
6.38072e-06
6.48203e-06
2.44241e-05
1.82256e-05
2.87054e-05
2.91994e-05
1.81643e-05
2.88494e-05
2.44346e-05
1.67995e-05
9.38543e-06
9.3615e-06
1.68215e-05
2.44395e-05
2.88757e-05
1.83338e-05
2.93305e-05
2.87359e-05
1.82407e-05
2.45282e-05
1.70372e-05
9.37838e-06
9.39231e-06
1.69474e-05
2.46422e-05
2.92109e-05
1.84983e-05
2.88198e-05
1.81666e-05
2.87733e-05
2.44669e-05
1.67947e-05
9.32412e-06
9.41306e-06
1.70442e-05
2.46902e-05
2.94203e-05
2.88752e-05
1.81801e-05
2.87639e-05
1.82141e-05
2.42895e-05
1.6824e-05
9.17952e-06
9.12837e-06
1.69923e-05
2.43317e-05
2.89724e-05
1.82336e-05
2.93755e-05
2.88052e-05
1.84312e-05
2.44195e-05
1.68999e-05
9.30956e-06
9.3157e-06
1.71458e-05
2.44517e-05
2.93988e-05
1.79754e-05
2.88555e-05
1.80991e-05
2.87516e-05
2.44715e-05
1.68345e-05
9.09764e-06
9.16734e-06
1.68068e-05
2.46285e-05
2.93407e-05
2.8868e-05
1.80807e-05
2.88719e-05
1.81652e-05
2.43009e-05
1.69446e-05
9.35184e-06
9.35974e-06
1.68102e-05
1.197e-05
1.22163e-05
2.93129e-05
1.19199e-05
1.22694e-05
6.43814e-06
6.44682e-06
6.40714e-06
6.42084e-06
2.93894e-05
1.19394e-05
1.23037e-05
1.1893e-05
1.20699e-05
6.47396e-06
6.49859e-06
2.47595e-05
2.86543e-05
1.82086e-05
2.92626e-05
2.48846e-05
2.86398e-05
1.80951e-05
1.7142e-05
9.34565e-06
1.71952e-05
9.42384e-06
1.71807e-05
9.08988e-06
1.74209e-05
9.12776e-06
2.45063e-05
2.92711e-05
2.87512e-05
1.83262e-05
2.87445e-05
1.8119e-05
2.44161e-05
2.44521e-05
2.94321e-05
2.87242e-05
1.82463e-05
2.86594e-05
1.80514e-05
2.4385e-05
1.71833e-05
9.34979e-06
9.35034e-06
1.72826e-05
1.72032e-05
9.0748e-06
9.11152e-06
1.6917e-05
6.44595e-06
6.45669e-06
6.36595e-06
6.38673e-06
2.913e-05
1.18638e-05
1.19298e-05
1.22669e-05
1.19264e-05
6.4485e-06
6.46958e-06
6.38721e-06
6.37625e-06
6.51215e-06
6.43337e-06
6.3709e-06
6.38155e-06
1.20836e-05
1.18112e-05
2.92872e-05
1.2073e-05
1.18422e-05
6.47347e-06
6.48102e-06
6.33374e-06
6.29155e-06
2.92121e-05
1.20673e-05
1.15395e-05
1.20467e-05
1.17809e-05
1.71024e-05
9.41726e-06
1.69741e-05
9.34525e-06
2.43573e-05
1.82567e-05
2.86838e-05
2.9361e-05
2.43905e-05
1.83053e-05
2.86807e-05
2.44483e-05
1.86024e-05
2.87831e-05
2.93821e-05
2.46321e-05
1.83272e-05
2.89115e-05
1.70933e-05
9.43051e-06
9.4166e-06
1.70489e-05
1.69053e-05
9.38962e-06
9.44365e-06
1.71453e-05
2.4672e-05
2.93742e-05
1.84284e-05
2.89243e-05
1.83421e-05
2.88112e-05
2.46316e-05
2.43976e-05
2.93896e-05
1.82008e-05
2.88218e-05
1.83337e-05
2.87769e-05
2.44083e-05
1.21177e-05
1.2124e-05
2.9276e-05
1.22568e-05
1.20266e-05
6.42846e-06
6.37408e-06
6.49268e-06
6.58966e-06
2.92014e-05
1.19992e-05
1.22065e-05
1.20749e-05
1.20143e-05
6.40438e-06
6.39449e-06
2.43674e-05
1.82934e-05
2.88256e-05
2.94025e-05
2.44844e-05
1.79696e-05
2.8999e-05
1.67296e-05
9.3436e-06
1.68142e-05
9.24655e-06
2.42146e-05
2.89362e-05
1.81576e-05
2.9333e-05
2.42902e-05
2.8783e-05
1.79492e-05
1.68338e-05
9.15974e-06
9.37588e-06
1.6878e-05
2.43502e-05
2.92466e-05
1.80767e-05
2.88361e-05
1.79301e-05
2.8877e-05
2.41827e-05
1.67454e-05
9.26746e-06
9.32257e-06
1.70622e-05
2.41993e-05
2.94059e-05
2.9022e-05
1.81326e-05
2.89046e-05
1.8103e-05
2.45236e-05
1.68644e-05
9.13376e-06
1.68596e-05
9.08734e-06
2.4317e-05
2.8982e-05
1.80555e-05
2.93784e-05
2.43001e-05
2.89273e-05
1.80149e-05
1.69801e-05
9.37642e-06
1.70667e-05
9.26648e-06
2.41713e-05
2.92096e-05
1.81522e-05
2.88304e-05
1.82013e-05
2.89287e-05
2.41066e-05
1.66582e-05
9.02225e-06
9.0164e-06
1.66692e-05
2.42555e-05
2.93329e-05
2.89673e-05
1.78564e-05
2.89398e-05
1.80035e-05
2.42422e-05
1.70416e-05
9.19156e-06
9.29618e-06
1.66682e-05
1.19174e-05
1.20838e-05
2.91892e-05
1.18944e-05
1.20271e-05
6.46745e-06
6.45823e-06
6.36269e-06
6.3891e-06
2.93777e-05
1.18119e-05
1.17756e-05
1.18447e-05
1.21033e-05
6.36627e-06
6.38085e-06
2.43347e-05
2.87009e-05
1.80106e-05
2.92728e-05
2.43873e-05
2.88211e-05
1.83558e-05
1.72376e-05
9.36279e-06
1.73007e-05
9.26997e-06
1.69737e-05
9.09514e-06
1.71108e-05
9.13327e-06
2.45914e-05
2.93449e-05
2.88674e-05
1.81617e-05
2.87684e-05
1.85012e-05
2.43347e-05
2.43736e-05
2.93632e-05
2.87446e-05
1.83486e-05
2.87435e-05
1.81252e-05
2.44029e-05
1.70413e-05
9.20074e-06
9.2776e-06
1.69395e-05
1.69414e-05
9.11704e-06
9.15352e-06
1.71718e-05
6.42686e-06
6.36398e-06
6.39846e-06
6.35662e-06
2.94236e-05
1.16304e-05
1.19214e-05
1.17044e-05
1.19141e-05
6.23659e-06
6.32779e-06
6.39141e-06
6.36142e-06
6.4703e-06
6.49084e-06
6.24705e-06
6.22257e-06
1.20673e-05
1.17454e-05
2.92302e-05
1.22683e-05
1.15898e-05
6.413e-06
6.44344e-06
6.31261e-06
6.28396e-06
2.91709e-05
1.21757e-05
1.1653e-05
1.22676e-05
1.18189e-05
1.72444e-05
9.42223e-06
1.71449e-05
9.33059e-06
2.44271e-05
1.8178e-05
2.87979e-05
2.94514e-05
2.44066e-05
1.81499e-05
2.88357e-05
2.44361e-05
1.82575e-05
2.89127e-05
2.94618e-05
2.45265e-05
1.81369e-05
2.89039e-05
1.73709e-05
9.34291e-06
9.32355e-06
1.73255e-05
1.71787e-05
9.25635e-06
9.33356e-06
1.71118e-05
2.44679e-05
2.93018e-05
1.85633e-05
2.88391e-05
1.81413e-05
2.86943e-05
2.47955e-05
2.44412e-05
2.94335e-05
1.81723e-05
2.87616e-05
1.84109e-05
2.8923e-05
2.44626e-05
1.2046e-05
1.20763e-05
2.92528e-05
1.20281e-05
1.23133e-05
6.44096e-06
6.4662e-06
6.45878e-06
6.43696e-06
2.92645e-05
1.19642e-05
1.21415e-05
1.19633e-05
1.2296e-05
6.53112e-06
6.52945e-06
2.41602e-05
1.78607e-05
2.8974e-05
2.93008e-05
2.41848e-05
1.77475e-05
2.88832e-05
1.68188e-05
9.3362e-06
1.72612e-05
9.32621e-06
2.43916e-05
2.88809e-05
1.79168e-05
2.92952e-05
2.46138e-05
2.88342e-05
1.80627e-05
1.69703e-05
9.10615e-06
9.03658e-06
1.66393e-05
2.44086e-05
2.92465e-05
1.77169e-05
2.88843e-05
1.76956e-05
2.88635e-05
2.41943e-05
1.6805e-05
9.37558e-06
9.4673e-06
1.6685e-05
2.46881e-05
2.93009e-05
2.88708e-05
1.82422e-05
2.88711e-05
1.80274e-05
2.44661e-05
1.65201e-05
9.07312e-06
1.66713e-05
9.09394e-06
2.41947e-05
2.87884e-05
1.77981e-05
2.92958e-05
2.45007e-05
2.87655e-05
1.78443e-05
1.66231e-05
9.19571e-06
1.66592e-05
9.16891e-06
2.41289e-05
2.92471e-05
1.78778e-05
2.8903e-05
1.78201e-05
2.87958e-05
2.42547e-05
1.6472e-05
9.06174e-06
9.0407e-06
1.65848e-05
2.42401e-05
2.92765e-05
2.87267e-05
1.78396e-05
2.87395e-05
1.78514e-05
2.42192e-05
1.66625e-05
9.11175e-06
9.07816e-06
1.65722e-05
1.20471e-05
1.1759e-05
2.92617e-05
1.18207e-05
1.19272e-05
6.2986e-06
6.28483e-06
6.42055e-06
6.46569e-06
2.92436e-05
1.18377e-05
1.18691e-05
1.18882e-05
1.17938e-05
6.29502e-06
6.33464e-06
2.44259e-05
2.8792e-05
1.81546e-05
2.93514e-05
2.46359e-05
2.89343e-05
1.81624e-05
1.69954e-05
9.27975e-06
1.69645e-05
9.11928e-06
1.70806e-05
9.20997e-06
1.70316e-05
9.1617e-06
2.47142e-05
2.93873e-05
2.88828e-05
1.79249e-05
2.87903e-05
1.79599e-05
2.45567e-05
2.44845e-05
2.95248e-05
2.87852e-05
1.86527e-05
2.87905e-05
1.84024e-05
2.47547e-05
1.7042e-05
9.18447e-06
9.12564e-06
1.71786e-05
1.70326e-05
9.26881e-06
9.20823e-06
1.70969e-05
6.2568e-06
6.21604e-06
6.43165e-06
6.34246e-06
2.91041e-05
1.17643e-05
1.20848e-05
1.14441e-05
1.22234e-05
6.18322e-06
6.18646e-06
6.38123e-06
6.41271e-06
6.39157e-06
6.37082e-06
6.40764e-06
6.36971e-06
1.19351e-05
1.19446e-05
2.92266e-05
1.20422e-05
1.17885e-05
6.40531e-06
6.42829e-06
6.35674e-06
6.39743e-06
2.91905e-05
1.20094e-05
1.18273e-05
1.19015e-05
1.20012e-05
1.70033e-05
9.26893e-06
1.70679e-05
9.15054e-06
2.48621e-05
1.82735e-05
2.8736e-05
2.92776e-05
2.45013e-05
1.82506e-05
2.8722e-05
2.44398e-05
1.81551e-05
2.87422e-05
2.93469e-05
2.44452e-05
1.80672e-05
2.88451e-05
1.7475e-05
9.31524e-06
9.38249e-06
1.72546e-05
1.70229e-05
9.15523e-06
9.25358e-06
1.70056e-05
2.45731e-05
2.92905e-05
1.80877e-05
2.88624e-05
1.81592e-05
2.87501e-05
2.47094e-05
2.44559e-05
2.9485e-05
1.80507e-05
2.88286e-05
1.8043e-05
2.87143e-05
2.4683e-05
1.19703e-05
1.21866e-05
2.95529e-05
1.1979e-05
1.22419e-05
6.45285e-06
6.4971e-06
6.43436e-06
6.43284e-06
2.93292e-05
1.19346e-05
1.19261e-05
1.21568e-05
1.22929e-05
6.44372e-06
6.45479e-06
2.41128e-05
1.77467e-05
2.8956e-05
2.93074e-05
2.41536e-05
1.78402e-05
2.87908e-05
1.64927e-05
9.39856e-06
1.66742e-05
9.34896e-06
2.41077e-05
2.89852e-05
1.80629e-05
2.93779e-05
2.45598e-05
2.8818e-05
1.80996e-05
1.67629e-05
9.2108e-06
9.26212e-06
1.7045e-05
2.41419e-05
2.92972e-05
1.81431e-05
2.88449e-05
1.78428e-05
2.87773e-05
2.43675e-05
1.64895e-05
9.32782e-06
9.4509e-06
1.63784e-05
2.41393e-05
2.94475e-05
2.8837e-05
1.80495e-05
2.89066e-05
1.81569e-05
2.40787e-05
1.66735e-05
9.12094e-06
1.66525e-05
9.20243e-06
2.41611e-05
2.87071e-05
1.77697e-05
2.92384e-05
2.43052e-05
2.87185e-05
1.77828e-05
1.6673e-05
9.08286e-06
1.67741e-05
8.98653e-06
2.43142e-05
2.92878e-05
1.80006e-05
2.88307e-05
1.78643e-05
2.89721e-05
2.43321e-05
1.65064e-05
9.08668e-06
9.242e-06
1.65542e-05
2.44645e-05
2.92258e-05
2.88441e-05
1.77706e-05
2.88333e-05
1.77806e-05
2.41491e-05
1.67297e-05
8.93457e-06
9.05617e-06
1.64436e-05
1.18796e-05
1.19306e-05
2.93369e-05
1.18499e-05
1.22083e-05
6.35278e-06
6.36424e-06
6.47057e-06
6.50422e-06
2.91902e-05
1.20166e-05
1.20248e-05
1.18389e-05
1.19888e-05
6.43623e-06
6.35974e-06
2.44469e-05
2.87782e-05
1.84195e-05
2.94349e-05
2.44922e-05
2.87813e-05
1.81657e-05
1.70984e-05
9.23965e-06
1.73928e-05
9.06372e-06
1.71673e-05
9.3044e-06
1.71502e-05
9.12808e-06
2.45631e-05
2.94538e-05
2.88335e-05
1.7838e-05
2.88652e-05
1.7868e-05
2.46758e-05
2.44239e-05
2.94614e-05
2.87865e-05
1.83954e-05
2.8778e-05
1.81821e-05
2.45147e-05
1.73408e-05
9.04682e-06
9.0643e-06
1.69302e-05
1.71943e-05
9.07785e-06
9.14274e-06
1.69414e-05
6.19232e-06
6.19464e-06
6.41636e-06
6.38165e-06
2.94799e-05
1.15899e-05
1.17933e-05
1.15194e-05
1.19302e-05
6.17554e-06
6.17088e-06
6.29383e-06
6.37318e-06
6.42467e-06
6.38052e-06
6.40165e-06
6.32608e-06
1.22059e-05
1.18641e-05
2.9244e-05
1.20641e-05
1.2171e-05
6.4243e-06
6.40863e-06
6.2539e-06
6.34891e-06
2.92368e-05
1.21366e-05
1.19043e-05
1.21981e-05
1.20109e-05
1.71785e-05
9.17553e-06
1.71895e-05
9.14812e-06
2.45182e-05
1.82967e-05
2.8931e-05
2.94091e-05
2.46266e-05
1.80565e-05
2.8782e-05
2.46742e-05
1.8272e-05
2.87995e-05
2.95845e-05
2.45807e-05
1.8124e-05
2.87794e-05
1.71407e-05
9.36138e-06
9.32962e-06
1.69918e-05
1.69412e-05
9.09301e-06
9.22331e-06
1.696e-05
2.45232e-05
2.94184e-05
1.82444e-05
2.8952e-05
1.81229e-05
2.87668e-05
2.45222e-05
2.47383e-05
2.94871e-05
1.78421e-05
2.88538e-05
1.7875e-05
2.88558e-05
2.43785e-05
1.19167e-05
1.19522e-05
2.92394e-05
1.20141e-05
1.19158e-05
6.36903e-06
6.38948e-06
6.37439e-06
6.34728e-06
2.92572e-05
1.19802e-05
1.21227e-05
1.18116e-05
1.1927e-05
6.46652e-06
6.41307e-06
2.4349e-05
1.79195e-05
2.89121e-05
2.92759e-05
2.41292e-05
1.78359e-05
2.87502e-05
1.64293e-05
9.48958e-06
1.63664e-05
9.45334e-06
2.41374e-05
2.89525e-05
1.80302e-05
2.95169e-05
2.40965e-05
2.87893e-05
1.82745e-05
1.6638e-05
8.96802e-06
9.11968e-06
1.66287e-05
2.42754e-05
2.9366e-05
1.79299e-05
2.88585e-05
1.80634e-05
2.88681e-05
2.43858e-05
1.66853e-05
9.38305e-06
9.46745e-06
1.66957e-05
2.41358e-05
2.93736e-05
2.89148e-05
1.81018e-05
2.87881e-05
1.81717e-05
2.42242e-05
1.6785e-05
9.14897e-06
1.66341e-05
9.17026e-06
2.4439e-05
2.88963e-05
1.7784e-05
2.92197e-05
2.43891e-05
2.87367e-05
1.79728e-05
1.65085e-05
9.00943e-06
1.64354e-05
8.99169e-06
2.43771e-05
2.94875e-05
1.82598e-05
2.90397e-05
1.81668e-05
2.89832e-05
2.41603e-05
1.65791e-05