/*--------------------------------*- C++ -*----------------------------------*\
| =========                 |                                                 |
| \\      /  F ield         | OpenFOAM: The Open Source CFD Toolbox           |
|  \\    /   O peration     | Version:  2206                                  |
|   \\  /    A nd           | Website:  www.openfoam.com                      |
|    \\/     M anipulation  |                                                 |
\*---------------------------------------------------------------------------*/
FoamFile
{
    version     2.0;
    format      ascii;
    arch        "LSB;label=32;scalar=64";
    class       volScalarField;
    location    "20";
    object      omega;
}
// * * * * * * * * * * * * * * * * * * * * * * * * * * * * * * * * * * * * * //

dimensions      [0 0 -1 0 0 0 0];

internalField   nonuniform List<scalar> 
66701
(
390.386
413.541
256.433
147.856
303.36
84.387
97.1015
274.9
413.437
254.733
147.285
302.464
84.056
274.828
96.4739
389.617
744.59
1618.56
4402.17
16430.5
116912
742.106
1618.73
4400.99
16423.3
116840
762.901
1636.69
4433.23
16482.5
116803
762.673
1636.32
4433.22
16482.7
116814
744.588
1619.32
4401.95
16428.2
116892
742.072
1618.6
4401.03
16423.4
116852
754.65
1629.17
4418.47
16450.3
116752
752.731
1623.39
4407.61
16428.6
116727
754.407
1629.43
4418.44
16449.8
116748
752.982
1623.98
4407.67
16428.4
116725
391.19
392.843
22.6749
137.21
140.283
257.265
20.7535
75.0204
85.6586
258.711
35.1593
20.9271
76.5239
19.3542
85.4143
258.126
35.2149
20.8236
19.3301
76.2961
391.792
22.5554
138.757
389.952
191.157
400.959
401.594
189.88
396.777
397.819
90.4049
267.125
48.797
134.527
89.5382
262.663
47.0613
91.2765
269.881
50.1496
135.194
88.3093
264.467
48.4934
298.871
98.2969
277.352
83.7487
300.841
94.384
273.413
412.331
150.003
255.698
413.081
147.557
301.451
277.383
97.8975
83.3438
301.369
273.392
96.2732
412.779
149.146
253.242
412.743
147.072
389.242
190.911
398.833
397.817
91.0108
49.6036
133.749
48.5591
265.452
89.8469
135.434
264.362
49.0717
388.476
18.0414
17.4446
17.5578
17.2642
17.9166
17.3807
17.452
17.0601
17.5041
17.1379
17.4233
17.0165
43.9514
22.4897
29.0022
29.4534
43.774
28.366
28.6533
26.5463
46.0598
34.1552
71.2729
33.0482
26.5162
45.2333
24.3787
38.799
23.4173
34.1359
24.0518
37.578
23.1515
27.0935
49.4656
34.7315
73.723
33.7548
26.9586
48.0063
24.2812
23.3842
38.2358
34.3978
23.9659
23.1908
37.4584
26.7924
49.0923
34.4757
73.5359
26.3262
47.7188
33.5195
43.5493
22.3325
29.0269
28.3975
28.9164
744.999
1618.86
4402.25
16430.2
116912
745.041
1619.35
4402.2
16430.4
116912
763.19
1636.97
4433.43
16483.4
116814
763.129
1636.86
4433.3
16482.5
116803
763.012
1636.82
4433.28
16482.7
116814
744.831
1619.29
4401.91
16428.2
116892
744.989
1619.15
4401.83
16430
116912
754.078
1629.28
4418.09
16449.9
116752
752.989
1623.88
4407.68
16428.6
116727
754.561
1629.72
4418.55
16450.3
116752
752.796
1623.85
4407.3
16428.2
116727
762.962
1636.44
4432.73
16482.1
116803
754.221
1629.08
4418.11
16449.3
116748
752.977
1623.89
4407.63
16428.3
116725
754.812
1629.75
4418.5
16449.7
116748
752.576
1623.78
4407.15
16427.9
116725
762.689
1636.64
4432.75
16482.1
116814
744.792
1619.26
4401.52
16427.8
116892
761.99
1635.62
4430.54
16475
116759
744.986
1618.99
4401.36
16427.2
116881
746.148
1624.06
4410.13
16443.6
116901
762.092
1635.94
4431.12
16475.8
116776
762.032
1635.85
4430.63
16475.3
116776
746.13
1624.14
4410.04
16444.5
116921
762.195
1636.11
4431.32
16477.8
116795
761.972
1635.98
4430.85
16477.3
116795
746.116
1623.77
4409.69
16443.1
116901
746.176
1624.16
4409.63
16444.1
116921
741.771
1618.42
4400.55
16422.7
116840
742.6
1618.93
4401.02
16423.3
116840
741.866
1618.15
4400.55
16422.9
116852
742.072
1618.9
4401.11
16423.4
116852
761.699
1635.68
4430.68
16476.1
116778
745.716
1623.87
4409.95
16445.1
116918
745.594
1623.87
4409.84
16444.4
116904
20.5929
22.5424
18.0173
20.9088
20.7139
22.5891
17.9932
20.909
20.7312
22.7079
17.9712
20.9491
20.7472
22.7606
17.9363
20.9212
20.7496
22.7363
17.9467
20.9004
20.7705
22.7304
17.9456
20.8763
20.7654
22.7536
17.8998
20.8882
20.7401
22.7553
17.9202
20.9098
20.7855
22.7339
17.926
20.9133
20.7653
22.7025
17.9278
20.9004
20.7234
22.6832
17.9526
20.8948
20.717
22.6839
17.9455
20.9035
20.7202
22.7187
17.9838
20.9216
20.7432
22.7405
17.9893
20.934
20.7487
22.6795
17.9795
20.9374
20.7531
22.6765
17.9973
20.6777
20.548
22.5198
22.3352
22.4719
20.7772
20.7203
20.7757
22.4382
22.4941
22.6197
20.6762
20.7903
20.7617
20.7767
22.6048
22.5723
20.9315
20.8727
20.944
20.9369
20.8681
20.8736
20.9082
22.1725
22.5139
20.7025
20.6917
20.7711
22.5155
22.4365
22.6409
20.6938
20.6786
20.7244
20.7289
22.308
22.5941
20.8866
20.8537
20.972
20.924
20.8675
20.9147
20.9128
22.3697
22.5315
20.6644
20.6424
20.7721
22.7154
22.4728
22.6685
20.5719
20.6412
20.6496
20.7252
22.3005
22.5658
20.8902
20.8412
20.9699
20.8757
20.8598
20.8886
20.9415
22.3596
22.5047
20.7002
20.7187
20.7667
22.5402
22.3914
22.528
20.6737
20.657
20.7121
20.7434
22.4322
22.5956
20.8338
20.8001
20.9211
20.8745
20.8664
20.8689
20.9282
22.2275
22.5412
20.6926
20.7404
20.7606
22.6709
22.3482
22.6335
20.6269
20.7013
20.7154
20.7932
22.469
22.5939
20.8179
20.7797
20.9177
20.8669
20.8329
20.8443
20.9431
22.2502
22.506
20.6435
20.7377
20.802
22.5444
22.4768
22.6463
20.6517
20.6814
20.7277
20.8532
22.4483
22.6113
20.8468
20.7256
20.9081
20.8246
20.8737
20.8425
20.9587
22.3406
22.3972
20.7509
20.7087
20.7845
22.5467
22.5065
22.741
20.5926
20.7446
20.7723
20.8295
22.4764
22.6586
20.7542
20.7124
20.9304
20.8005
20.8837
20.867
20.9207
22.2563
22.5007
20.714
20.687
20.7657
22.6824
22.6197
22.6644
20.6895
20.7501
20.7767
20.8126
22.5092
22.6548
20.8699
20.7518
20.9311
20.8293
20.8449
20.7957
20.9095
22.2752
22.4964
20.7034
20.7734
20.731
22.5016
22.5101
22.6419
20.7097
20.718
20.7606
20.7581
22.3737
22.6336
20.8281
20.7435
20.9276
20.838
20.8296
20.7808
20.9178
22.2106
22.483
20.6486
20.6998
20.7131
22.6065
22.4789
22.6666
20.6955
20.6716
20.7402
20.6852
22.3287
22.599
20.7871
20.7343
20.951
20.8268
20.8805
20.836
20.9383
22.3677
22.4742
20.6351
20.6301
20.715
22.607
22.4487
22.5837
20.6717
20.5227
20.7281
20.6908
22.4889
22.6628
20.8777
20.7662
20.9293
20.855
20.8665
20.8059
20.9546
22.2764
22.4951
20.6282
20.6998
20.706
22.513
22.4129
22.6464
20.6556
20.6496
20.7473
20.6836
22.3837
22.6144
20.8199
20.7567
20.9289
20.8433
20.865
20.8203
20.9596
22.2956
22.4528
20.6335
20.7026
20.6943
22.6982
22.4168
22.6536
20.6913
20.5858
20.7945
20.6618
22.409
22.6179
20.837
20.7423
20.9423
20.862
20.9012
20.8212
20.981
22.3032
22.5413
20.6158
20.7194
20.7033
22.6159
22.4096
22.6603
20.6503
20.5621
20.8082
20.654
22.4179
22.5438
20.8914
20.7006
20.9663
20.873
20.9206
20.8143
20.9406
22.2564
22.518
20.6194
20.718
20.6897
22.6303
22.505
22.6963
20.6723
20.5212
20.9242
20.8312
22.3862
22.5746
20.8726
20.8132
20.7522
20.6498
20.8292
20.7004
20.7473
22.3557
22.3107
20.626
20.6263
20.538
22.4335
20.7743
22.3815
20.6458
20.5347
20.609
22.3027
20.44
389.335
389.074
33.1935
19.2047
72.7125
20.5367
72.4894
33.3854
19.2437
138.092
136.029
22.5052
135.731
137.972
81.2753
255.351
255.09
82.0258
390.293
390.007
84.0095
258.198
257.772
84.2797
18.0751
18.094
17.9731
18.1108
18.0489
18.054
18.0063
34.9101
76.4974
19.3285
20.7939
76.2677
19.3376
34.6983
392.258
392.059
33.5246
19.2335
74.059
20.6627
33.652
19.2601
74.3256
139.67
137.149
22.6709
139.099
136.619
80.9559
255.296
81.6233
254.174
390.61
389.889
84.3402
258.687
84.4689
258.322
18.1777
18.1884
18.059
18.0806
18.0145
18.001
17.9686
35.039
76.3149
19.3333
20.768
34.9674
76.4723
19.3177
391.488
391.887
33.4882
19.232
74.8673
20.6764
33.7586
19.2357
75.0211
140.471
136.985
22.6963
140.021
137.177
80.8577
255.668
80.6736
254.959
390.046
389.635
84.8164
258.657
85.0437
258.31
18.0917
18.0665
18.0527
18.0606
17.9708
17.97
17.9691
34.7523
76.8412
19.3089
20.8425
34.881
76.373
19.3037
391.907
391.682
33.6695
19.1945
74.7615
20.6497
33.6745
19.2181
74.9667
139.999
137.856
22.7014
139.668
137.665
80.9548
255.914
80.9266
254.977
390.375
390.138
85.0826
257.271
85.5442
258.122
18.042
18.0793
18.1518
17.9902
17.9144
17.9589
17.9292
34.9079
76.0193
19.2876
20.8144
35.0663
75.7659
19.3094
391.521
391.814
33.7123
19.1917
74.868
20.653
33.8759
19.2351
74.3219
140.21
137.779
22.6825
139.098
137.382
81.0043
255.212
80.7942
254.96
389.887
390.101
84.7349
258.776
85.7579
257.81
18.0092
18.042
17.9848
17.9913
17.9075
17.9705
17.9553
34.8397
76.7653
19.3062
20.7691
35.1364
76.7321
19.3223
392.243
391.441
33.6119
19.2254
75.1537
20.6806
33.6514
19.2606
75.1935
139.326
138.336
22.6918
139.316
137.626
81.274
255.652
81.6481
254.968
390.116
390.199
84.3681
258.694
84.2071
258.051
17.9772
18.0265
18.0269
17.9289
17.8955
17.9316
17.9416
34.4344
76.5552
19.2942
20.7202
34.5847
76.5811
19.3098
392.066
391.6
33.6679
19.2232
75.1226
20.6264
33.7338
19.2377
74.894
139.912
138.41
22.7067
139.501
137.614
81.4478
255.333
81.4435
255.648
390.807
390.392
84.8913
259.04
84.8499
257.804
18.0129
17.9697
18.0506
17.9683
17.9351
17.9272
17.9186
34.6443
76.6483
19.3047
20.805
34.5156
77.1982
19.3277
391.876
391.561
33.4982
19.2095
75.3736
20.5977
33.8723
19.2192
75.334
139.764
138.928
22.7068
139.216
137.937
80.9732
256.223
81.7764
255.221
389.893
390.318
84.3717
257.289
84.7729
258.338
18.022
18.0994
18.0298
17.9733
17.9018
17.9337
17.8916
34.7491
77.2155
19.3111
20.8335
34.903
76.8119
19.3185
391.364
391.793
33.3745
19.1922
75.6452
20.6542
33.2066
19.2211
75.5741
140.034
137.968
22.655
139.222
137.774
81.3034
255.674
81.6092
254.844
389.593
389.371
84.8086
258.488
84.7747
258.276
17.936
17.9803
17.9459
17.9712
17.8853
17.883
17.8796
34.8963
76.3764
19.2793
20.8588
34.8745
76.5971
19.2843
391.869
391.918
33.2229
19.1688
75.3137
20.6187
33.4669
19.1894
75.1699
139.489
138.218
22.6581
139.639
137.899
80.9699
254.898
81.4252
254.822
390.416
389.739
85.0498
258.624
85.015
258.06
18.0667
17.9832
17.9316
17.9819
17.8776
17.8995
17.9126
34.5415
76.5998
19.2689
20.8293
34.7847
76.6732
19.284
392.396
391.938
33.4355
19.1689
75.0201
20.6452
33.2069
19.1895
74.9343
139.948
138.284
22.6589
139.742
137.662
81.0807
255.364
81.292
254.726
390.12
389.791
84.9781
257.935
85.0101
258.313
17.9379
18.0281
17.9689
18.0659
17.8865
17.9621
17.9413
34.6949
76.9013
19.2739
20.7412
34.5459
76.7463
19.2842
392.222
391.841
33.3184
19.1558
75.0294
20.6597
33.6716
19.191
74.7346
139.058
138.761
22.6641
138.992
138.007
81.2411
255.584
81.5583
255.314
390.186
389.458
84.8907
257.752
85.1223
257.917
17.9289
18.1424
18.1016
18.0273
17.8843
17.9817
17.9411
34.9419
76.5103
19.2757
20.7628
35.0212
76.6761
19.2907
391.712
391.812
33.4891
19.1409
74.5104
20.6442
33.4808
19.1661
74.3207
139.169
138.671
22.6797
138.98
137.191
81.7633
256.429
82.2365
255.506
389.849
389.441
85.2736
258.015
85.298
257.957
17.9528
18.0713
18.1072
18.0863
17.8566
17.9941
17.9671
35.0608
77.2549
19.2562
20.7456
35.0646
76.9575
19.2484
391.627
391.912
33.8758
19.1837
74.9157
20.6758
33.6953
19.1706
74.8673
140.37
137.822
22.6778
139.604
137.721
80.7227
255.946
81.207
255.136
389.405
389.644
85.3788
258.875
85.1277
258.021
17.9587
18.1083
18.0174
18.1017
17.8933
17.991
17.9047
34.6127
77.1053
19.2455
20.8736
34.968
76.8227
19.2797
392.353
391.69
33.8658
19.167
74.7678
20.6481
33.9739
19.155
74.9227
139.446
138.434
22.6512
139.099
137.718
82.1683
255.761
80.6114
255.767
389.851
389.23
85.6425
258.803
86.0515
258.38
18.0333
18.093
18.0688
18.0405
17.9354
17.9469
17.8574
34.2868
77.041
19.2838
20.8105
34.4047
76.8351
19.3066
392.008
391.636
33.8325
19.1282
75.1974
20.6463
34.0511
19.181
75.8003
140.174
137.789
22.6585
139.807
137.393
391.446
258.168
84.5574
18.0734
18.123
17.9343
75.5771
19.2082
34.0024
390.72
19.1809
75.2169
34.1466
139.125
137.61
137.097
134.991
22.213
134.068
136.291
387.661
388.086
387.655
385.646
22.1822
137.868
135.698
128.106
135.428
389.365
386.27
33.1826
19.2318
73.7746
20.6535
74.2392
33.0657
19.2936
80.851
253.414
253.557
81.0703
80.6739
255.398
255.071
80.2691
32.5462
20.5203
19.2401
73.4233
70.6303
33.4794
19.2467
32.7714
20.7492
19.2499
74.5892
70.826
33.6495
19.2597
77.3022
254.325
251.208
81.833
79.0058
255.93
245.219
81.8585
391.024
391.283
388.677
389.231
22.4287
139.133
136.546
132.144
131.398
391.357
387.477
388.923
386.355
389.899
389.195
391.694
391.574
136.492
139.169
22.562
135.994
139.012
389.729
381.796
391.921
386.816
22.4191
134.837
139.495
134.035
133.205
81.968
255.181
255.02
81.5709
33.3775
74.5325
19.2213
20.7557
74.348
19.2614
33.5239
33.6241
73.9237
19.1917
20.6646
74.2364
19.2274
33.7189
79.125
254.673
246.122
81.2487
79.3703
254.458
251.782
81.6137
32.8953
20.6887
73.1977
19.2228
71.2962
19.2314
33.3132
32.5975
20.7577
73.3303
19.196
73.1225
19.2107
33.5739
137.752
138.454
22.5803
136.815
138.393
391.934
391.767
386.213
387.288
22.4527
136.103
138.531
129.984
131.713
390.409
384.313
34.5301
76.1611
19.4159
20.8929
76.3757
19.4153
34.7136
84.5278
257.965
257.448
85.0806
34.7782
19.4157
75.7474
20.7773
19.4418
76.4299
35.071
81.8481
253.13
254.092
83.8679
33.6419
20.8996
75.7238
19.3895
73.0152
19.4145
34.5534
81.5629
257.89
248.588
84.032
33.8664
20.9013
19.4159
75.7305
19.445
75.1181
34.5779
84.8721
258.84
257.857
84.3907
34.4091
19.3074
75.3291
20.8216
19.3254
76.1694
34.4309
84.0811
257.18
257.894
84.067
33.6041
20.7676
75.7423
19.3511
72.3484
19.3462
34.7633
82.2186
258.161
249.193
85.0536
33.3282
20.7859
19.3256
75.8739
19.3432
74.8072
34.7281
82.8976
256.972
251.293
84.6878
130.842
131.36
22.5131
138.859
135.022
386.38
389.139
390.409
384.972
22.4163
138.851
136.439
136.497
132.016
389.925
381.276
33.5498
19.2947
70.7343
20.7356
32.3645
19.2927
74.7038
81.8472
247.255
78.0192
255.259
81.5249
252.428
77.7761
255.063
32.7289
20.6857
19.2668
72.8137
19.2715
72.8691
33.0731
32.4414
20.742
19.2563
74.6764
19.2717
70.8981
33.4177
80.1917
254.244
249.234
81.1618
80.0327
256.368
247.229
81.0691
385.149
391.609
384.892
386.825
22.4157
139.754
135.993
134.704
134.204
391.48
387.437
386.553
388.908
386.284
389.135
389.814
391.738
128.896
136.855
22.61
136.113
138.779
390.024
386.551
390.969
389.15
22.4208
136.249
139.823
134.026
137.63
81.3653
249.021
79.8362
253.758
33.4797
69.3072
19.2079
20.703
32.382
73.6414
19.1971
33.603
72.1017
19.218
20.6989
32.7836
73.5928
19.21
79.6096
255.041
245.916
79.1595
78.0893
253.95
248.399
80.883
32.8273
20.7067
73.8413
19.1577
69.9932
19.2025
33.0909
32.9395
20.7055
73.5586
19.1659
72.1727
19.2042
33.2125
133.772
132.117
22.5895
135.995
139.082
389.812
391.411
387.339
386.567
22.4799
136.081
138.636
134.463
132.236
391.827
382.729
34.4954
73.7391
19.3662
20.9147
33.8337
76.8087
19.3656
84.181
254.235
81.0901
256.878
34.5695
19.4188
74.2694
20.8828
34.0423
19.4299
75.4778
82.8058
257.399
253.218
82.5141
33.9538
20.9358
76.6632
19.3493
73.2442
19.3639
34.5845
80.6053
257.244
249.333
84.6645
33.7133
20.894
19.3919
75.8993
19.4262
74.3307
34.6807
85.3774
254.494
82.986
258.4
34.9416
19.3313
73.3643
20.8051
34.2134
19.3321
76.1477
85.1722
253.081
83.0062
257.763
33.6282
20.9018
76.7272
19.3209
72.5737
19.3139
34.7818
81.2824
258.481
255.097
85.2621
33.6556
20.8322
19.298
76.4499
19.3241
73.8565
34.8825
80.9154
257.579
253.357
84.9053
136.028
131.061
22.5154
138.509
137.26
386.617
389.498
389.889
388.793
22.3231
138.327
137.158
134.675
134.18
389.665
386.988
33.1789
19.2773
72.6707
20.6111
32.6629
19.2598
74.1446
81.1619
248.958
79.8573
254.693
80.9355
253.323
76.2721
255.732
32.731
20.6457
19.2072
74.2201
19.2096
72.1371
33.423
32.4984
20.7393
19.2333
73.9791
19.2482
71.7486
33.4092
79.1078
254.414
250.104
81.0761
79.4001
254.552
247.958
81.1231
388.573
391.923
387.666
390.655
22.4164
136.27
136.775
137.705
130.863
391.028
388.916
388.916
387.49
383.025
389.506
389.222
392.348
131.144
135.599
22.6839
136.681
139.545
390.134
382.705
386.974
388.705
22.5533
133.678
138.844
131.174
132.035
80.9932
249.075
76.5687
254.004
32.9542
70.361
19.1493
20.695
32.3255
74.3163
19.1513
33.1245
71.7469
19.1634
20.6025
32.673
73.9789
19.1586
76.7941
255.363
247.464
78.0675
77.0781
255.174
250.002
80.4036
32.2991
20.7084
73.8153
19.1162
73.1447
19.1487
32.9647
32.7536
20.7269
74.0629
19.1455
70.2995
19.1541
33.1893
134.302
131.088
22.6003
135.876
137.689
384.029
387.635
385.958
383.064
22.4837
135.544
138.098
133.37
130.779
390.695
391.029
34.7298
72.7462
19.3524
20.8425
33.3058
75.9115
19.3393
84.745
251.369
82.8634
256.415
34.7629
19.3815
73.2191
20.8559
33.9572
19.3654
75.2754
83.1062
252.821
250.36
83.0507
34.3533
20.9089
76.5389
19.3315
75.7702
19.3406
34.7755
82.7387
256.765
252.333
85.0689
34.2633
20.852
19.3319
74.7534
19.3593
72.0816
35.0893
85.0563
254.539
80.686
259.021
34.587
19.283
75.0113
20.8152
33.815
19.2788
77.3443
84.8815
250.1
83.1992
258.728
33.938
20.8759
75.4407
19.2923
74.8696
19.2982
34.9997
83.2156
257.324
256.431
84.8199
33.8039
20.8704
19.27
77.1727
19.2782
76.1386
34.9368
83.4817
257.621
252.537
85.2028
134.092
131.291
22.4971
137.642
137.206
386.053
389.948
390.635
388.885
22.2092
138.274
136.669
130.786
134.812
390.374
382.97
33.6085
19.2488
72.1156
20.7238
32.9719
19.2529
74.4244
81.7412
249.324
79.1424
254.48
82.0067
249.381
78.7946
255.09
33.0418
20.6236
19.1976
74.3671
19.1931
73.2836
33.1564
33.1287
20.7361
19.2152
74.0912
19.2585
73.282
33.8846
78.478
254.637
248.758
82.2197
81.4565
254.74
248.211
82.5375
387.135
391.422
387.095
390.132
22.5622
138.885
133.985
133.254
133.936
391.065
387.433
389.738
386.777
382.446
389.782
390.159
391.889
136.098
132.343
22.5798
137.109
139.244
389.721
386.045
392.325
387.506
22.3501
135.442
138.729
133.531
133.198
80.5117
252.336
78.4406
255.613
33.0121
71.7382
19.1482
20.6872
32.1725
74.2355
19.1282
33.0538
70.4599
19.1897
20.6712
32.4016
74.6889
19.1616
78.0897
253.862
248.889
79.8841
77.9714
254.556
250.385
80.771
32.317
20.6787
73.4867
19.1214
71.2861
19.1527
33.131
32.348
20.6201
74.4093
19.1592
70.9126
19.1745
33.3113
129.795
135.452
22.5501
136.684
137.752
388.603
392.167
389.481
386.536
22.4215
136.8
138.54
130.27
132.134
391.433
385.043
34.7122
74.2277
19.3362
20.7404
33.9781
76.425
19.3333
85.3467
253.121
83.5574
257.411
34.465
19.3242
73.0798
20.8301
34.7378
19.328
75.1195
82.231
258.224
249.409
83.2807
33.8651
20.8947
76.1712
19.3002
74.3914
19.3203
34.8247
83.9721
257.549
253.325
85.3461
34.8278
20.8405
19.3126
75.7434
19.3257
74.8685
35.1568
85.1587
249.17
83.0622
257.616
34.9723
19.2791
75.4947
20.8969
34.1003
19.2808
76.8319
85.5373
253.064
83.7708
258.164
34.0094
20.8404
76.5455
19.3113
72.5784
19.3078
34.5064
82.6212
258.177
254.487
85.0485
34.5267
20.8954
19.2697
76.0484
19.2811
73.9806
34.9882
84.0793
257.933
254.377
85.7254
134.059
134.422
22.5895
138.849
136.002
383.053
389.715
391.137
387.699
22.4509
138.677
136.397
134.936
133.795
390.021
383.352
33.9827
19.225
72.9147
20.7141
32.8935
19.2052
74.312
82.1755
249.517
81.0375
254.753
82.292
249.41
81.5561
254.729
32.8511
20.6468
19.2326
74.7189
19.2255
72.2271
33.5028
33.4666
20.7199
19.1914
74.641
19.1915
70.9764
33.734
78.7733
256.049
248.525
81.6272
80.6007
254.894
249.941
81.9433
387.306
387.475
383.465
389.708
22.5626
138.366
137.921
133.643
131.921
391.844
391.358
389.147
383.792
387.237
389.872
385.401
392.37
130.062
134.798
22.5284
136.373
139.28
389.386
386.368
391.901
386.798
22.422
136.219
138.832
133.738
134.422
81.2398
249.148
79.5071
254.504
33.1115
71.7094
19.151
20.6596
32.3413
73.6236
19.1322
32.9477
70.734
19.1814
20.7358
32.9759
74.7016
19.1939
78.2472
254.989
246.268
79.0034
78.8643
254.927
250.015
80.7859
32.6146
20.6726
73.5722
19.1155
72.5406
19.1432
33.1836
33.3116
20.7469
74.5475
19.1575
73.4899
19.1679
33.4618
134.808
135.891
22.6021
136.628
138.029
388.812
391.702
385.196
387.145
22.4432
136.929
137.314
130.573
133.276
390.714
386.55
34.6729
74.5426
19.2868
20.8568
34.1327
76.6457
19.2815
84.5573
254.859
83.2495
256.898
34.8538
19.318
73.4325
20.824
34.4479
19.3214
75.6044
81.0589
258.053
251.878
81.3835
33.1791
20.8776
76.9775
19.2727
76.0299
19.281
34.4589
80.1429
257.189
254.305
83.3258
33.8344
20.8269
19.2949
75.2745
19.3161
73.3515
34.3305
84.8716
249.171
82.0708
258.641
34.9592
19.2859
71.8782
20.8851
34.4398
19.2849
76.4439
84.6557
254.977
84.0301
257.72
33.5056
20.753
74.4608
19.304
75.2125
19.3042
34.0257
81.0924
258.04
250.56
83.5221
33.9409
20.8981
19.2755
76.505
19.2859
73.7467
34.4834
82.952
258.348
247.935
83.8506
135.782
134.83
22.5248
138.54
136.745
385.361
389.401
387.714
383.818
22.4074
138.192
136.141
135.756
132.094
389.12
383.208
33.5853
19.194
72.8048
20.7573
33.2752
19.1922
74.5972
81.6523
248.916
77.4278
255.399
81.5235
248.999
78.6562
255.74
33.1166
20.7182
19.2515
74.7548
19.257
73.0186
33.095
32.5699
20.6981
19.1617
74.5811
19.1686
72.6281
33.5299
79.889
256.165
247.013
81.4703
79.6006
256.012
245.561
81.4029
387.827
391.512
381.975
386.274
22.589
138.904
138.03
135.515
132.31
391.014
383.856
389.448
389.746
381.681
385.84
384.008
391.866
132.393
135.843
22.6722
135.879
139.184
389.749
389.146
388.256
384.946
22.3203
135.891
138.597
132.014
136.688
80.8468
250.9
79.0233
254.837
33.112
70.3827
19.1312
20.6847
32.8249
74.1585
19.1548
33.3384
73.602
19.2041
20.8044
32.3103
74.9104
19.1754
79.7695
253.861
246.871
80.5136
78.3936
255.093
247.44
81.3573
32.7251
20.6974
74.0161
19.1241
73.1619
19.1303
33.2127
32.8513
20.7524
74.3264
19.1454
73.8994
19.1747
33.4145
131.506
133.042
22.597
137.529
137.618
383.475
387.999
386.492
382.56
22.4172
136.899
138.858
135.553
132.194
392.248
391.169
34.6161
74.3137
19.2741
20.8777
33.2229
76.9372
19.2704
83.1016
251.028
81.4258
256.824
34.2275
19.2911
72.2335
20.686
33.6521
19.2909
74.908
82.8946
258.474
249.807
84.2689
34.1337
20.8715
76.5368
19.2606
74.8853
19.2673
34.5922
80.5697
256.246
250.143
83.4663
33.7182
20.8135
19.269
75.2352
19.2794
72.6442
34.3557
83.2489
250.126
80.1209
258.667
34.6448
19.2876
73.976
20.8501
33.3716
19.2792
76.924
83.9027
249.27
82.5262
258.688
33.1054
20.8388
76.0094
19.3153
72.4764
19.2985
34.3171
80.3361
258.904
250.84
83.7805
33.9889
20.8441
19.2678
76.1195
19.2802
73.9966
34.4158
80.0132
257.54
255.584
84.1836
133.578
132.471
22.3867
137.792
135.704
382.077
389.925
391.924
383.248
22.2434
137.652
136.187
133.461
128.836
389.8
382.684
33.6288
19.1884
71.3475
20.6937
32.9368
19.183
74.6094
81.9361
252.909
77.4169
257.398
82.0875
247.36
77.4289
254.669
32.6432
20.7212
19.2251
73.2684
19.2304
71.9472
33.829
32.6448
20.7266
19.1721
74.5496
19.1833
72.5754
33.6399
80.2489
255.842
246.99
81.4193
80.8811
256.871
248.337
81.9448
389.236
388.457
381.912
389.387
22.4239
136.176
138.508
133.907
132.162
391.087
390.81
390.618
387.861
386.09
390.181
391.194
391.963
130.62
132.675
22.6258
138.121
139.202
390.439
387.308
390.924
384.374
22.362
136.94
139.254
136.555
132.567
81.7233
249.519
79.3343
254.537
33.5538
72.4428
19.1723
20.7347
32.3354
74.8564
19.1571
33.8275
71.1314
19.181
20.671
33.0465
74.5482
19.1578
80.2486
255.714
253.569
81.4185
80.1583
255.251
250.708
81.7654
33.2593
20.724
74.8943
19.1332
71.7
19.1618
33.519
33.4213
20.7973
74.8813
19.1512
71.4384
19.1738
33.7607
134.699
135.746
22.6231
137.98
138.815
388.556
391.948
388.95
381.85
22.5299
137.541
138.994
134.757
135.851
391.986
384.173
35.001
74.5629
19.2682
20.8812
33.9978
76.1467
19.2664
84.4143
249.918
79.4353
256.693
34.7055
19.2959
71.9527
20.6702
33.3172
19.28
75.6911
81.1916
253.728
250.713
83.4272
34.5786
20.815
76.0251
19.261
75.0638
19.2644
34.9731
79.9116
256.107
250.184
84.4063
34.2371
20.716
19.2678
75.3175
19.2892
73.7597
34.6791
83.9144
250.941
80.8291
257.321
34.3976
19.2789
73.6857
20.9027
33.8875
19.2739
76.1921
81.0258
249.315
82.1864
259.231
33.9903
20.8421
75.1424
19.3212
74.9541
19.3231
34.7921
82.292
258.155
255.411
84.4588
33.1638
20.9022
19.2571
75.8024
19.2748
74.2976
34.7246
81.4506
257.802
255.251
84.7162
132.389
134.06
22.3958
138.388
136.21
385.5
389.661
391.151
387.822
22.2609
137.599
136.5
134.173
133.752
389.557
387.319
33.5594
19.1919
73.471
20.6617
32.8424
19.1807
74.7342
80.8406
247.309
79.1844
256.72
81.4051
252.885
79.4204
256.39
32.2308
20.7056
19.2024
73.4802
19.2084
72.3981
32.5588
32.7405
20.7232
19.1629
74.2986
19.1724
72.1035
33.5705
79.0183
256.191
248.032
80.6996
78.9942
256.207
248.021
81.3546
384.196
391.7
388.459
390.228
22.5473
136.364
137.155
134.555
135.32
391.61
383.896
390.03
382.455
383.5
389.768
385.827
392.529
134.242
133.054
22.7042
136.198
140.062
389.843
381.647
392.313
389.188
22.5465
136.226
139.592
129.046
134.506
81.0062
247.449
79.1641
255.976
33.2742
72.1815
19.159
20.7302
32.1202
74.4579
19.1393
33.6925
71.705
19.1638
20.7838
33.299
75.1358
19.192
79.1614
255.001
249.004
78.9634
78.8574
255.782
253.792
80.8539
32.8127
20.7376
73.8262
19.115
71.677
19.1411
33.215
33.2549
20.7869
74.6643
19.149
73.4843
19.1641
33.2926
133.88
134.661
22.6827
137.163
138.162
384.248
391.304
388.605
381.625
22.5162
136.567
138.003
130.412
132.798
391.124
388.853
34.7437
72.8345
19.267
20.7872
34.385
76.815
19.2691
84.5387
250.763
83.0521
257.143
34.6706
19.2737
73.3276
20.7901
34.4213
19.2863
75.7445
80.6816
257.4
249.399
84.1625
34.0663
20.9154
74.5464
19.2588
75.2184
19.2711
34.6568
83.1741
257.72
253.744
84.0928
33.6652
20.8019
19.2612
75.1774
19.2736
72.9202
34.8166
84.8924
254.215
80.3189
258.385
34.6579
19.2611
74.5452
20.7811
34.2831
19.2688
76.0114
84.6363
251.252
83.6456
258.156
34.03
20.8069
75.8013
19.2977
74.2483
19.3096
34.7977
83.2007
257.736
249.27
84.5094
33.9357
20.8702
19.2549
76.2697
19.2718
74.9116
34.7668
80.8577
257.577
250.275
85.1392
131.578
133.464
22.5687
138.148
137.01
382.521
390.042
391.5
384.866
22.4506
139.47
136.533
136.646
134.116
389.464
386.22
33.5496
19.1851
70.3325
20.7205
32.542
19.1916
74.9382
81.2812
250.336
78.7878
256.045
82.0385
246.956
80.0033
256.107
32.2654
20.7681
19.2007
74.9104
19.1946
72.6053
32.77
32.8171
20.7143
19.1616
74.7168
19.1844
71.1633
33.4397
80.1874
255.436
251.078
81.0466
80.3754
255.928
246.835
81.459
385.096
391.51
382.717
389.86
22.3455
138.467
134.583
136.687
135.809
389.39
387.833
387.602
383.856
383.032
389.566
388.716
391.822
133.839
135.645
22.6451
135.268
139.476
389.517
385.725
391.62
387.635
22.4123
135.444
139.197
132.286
135.96
81.3101
251.046
76.5938
254.388
33.1681
69.9511
19.1323
20.7313
32.8908
73.9296
19.1326
33.486
72.7772
19.1755
20.743
32.2055
73.8972
19.1604
79.6411
253.557
245.874
78.8181
79.7403
253.582
248.725
81.1301
32.8382
20.7374
73.3017
19.1258
70.5129
19.1357
33.146
33.1139
20.7392
72.6836
19.1359
70.5768
19.157
33.3045
134.066
134.619
22.5953
131.713
138.198
386.579
390.899
385.915
381.154
22.3542
136.054
138.291
129.332
135.264
391.985
386.998
34.8296
75.5623
19.2686
20.7963
33.6293
76.7661
19.2687
84.3459
250.556
79.5821
257.793
34.6685
19.2748
71.599
20.6815
33.4185
19.2631
76.2089
83.3019
254.876
249.62
84.2757
33.7575
20.7991
76.4392
19.2664
74.4405
19.2696
34.8645
82.8726
256.817
250.325
84.2245
34.2662
20.8186
19.2494
75.8927
19.2583
75.0458
34.7267
84.7171
248.696
82.9509
257.633
34.7233
19.2737
73.3609
20.7942
34.3214
19.289
76.5281
85.0826
251.521
83.1838
258.433
34.3763
20.7948
76.0068
19.276
75.2054
19.2768
34.1121
83.3769
257.937
255.463
85.0279
34.5867
20.8115
19.2811
76.475
19.2769
73.8238
35.0074
83.6074
258.486
252.417
82.7424
137.122
132.424
22.4671
138.855
136.211
386.089
389.411
391.802
388.901
22.3632
138.831
136.04
137.371
132.573
389.959
380.365
33.3993
19.1924
71.1564
20.677
32.9093
19.1746
74.6649
80.6528
250.902
78.856
255.699
80.8866
252.677
78.8789
255.251
32.1277
20.6616
19.1799
72.9614
19.1814
72.2354
32.5223
32.6326
20.6858
19.1417
74.4136
19.1723
70.7327
33.4001
78.0968
255.849
248.024
81.0599
78.5231
255.459
246.298
81.1522
390.386
392.363
384
390.678
22.4697
136.118
134.378
137.158
131.539
392.047
389.893
385.903
387.464
381.616
389.826
389.301
391.707
128.643
137.599
22.6522
136.184
139.22
389.756
387.147
391.42
383.957
22.5426
135.427
138.801
133.864
133.543
81.2584
247.286
76.8901
254.124
33.3088
70.8959
19.1666
20.7061
32.8919
73.3374
19.1617
33.3467
70.204
19.1643
20.6782
32.9554
72.6488
19.1466
78.1429
254.63
248.383
80.7682
79.7002
254.315
249.08
80.4922
32.9692
20.7029
73.4249
19.1517
69.638
19.1646
33.2353
32.8938
20.6659
72.6431
19.1129
70.4454
19.1474
33.4118
134.77
133.235
22.6237
136.174
138.18
385.005
392.44
385.417
386.826
22.4734
135.711
139.541
129.277
132.673
392.482
384.638
34.6453
73.8342
19.2809
20.9105
33.8151
76.1567
19.2831
84.686
250.411
82.2968
257.792
34.7666
19.2567
73.0272
20.6998
34.4374
19.2532
75.9089
80.8682
255.469
251.597
84.2542
34.044
20.843
75.6877
19.2796
73.2733
19.2849
34.7656
83.0022
256.974
252.531
83.9595
33.4638
20.7381
19.2339
75.1508
19.2511
72.7421
34.3636
84.1913
252.749
83.4771
257.576
34.9032
19.3006
74.7855
20.8252
33.5314
19.2911
76.8109
84.8938
255.32
83.7819
258.92
33.1341
20.7944
74.6085
19.2812
73.0592
19.2994
34.2895
82.7545
257.474
251.012
84.2074
34.2993
20.893
19.2692
76.5337
19.288
72.7415
34.7936
83.4897
258.019
249.737
85.1941
133.172
132.838
22.4543
138.488
136.093
386.551
389.359
391.92
388.493
22.2735
135.855
136.523
132.822
128.822
390.061
380.982
33.6662
19.1539
70.6145
20.6717
33.0095
19.1768
74.6792
81.2059
245.871
79.1566
252.256
81.5958
251.776
78.9514
256.447
32.3081
20.6205
19.1675
72.7781
19.1868
71.8335
32.9744
32.8346
20.6756
19.149
74.3578
19.156
72.9929
33.6564
77.6219
255.263
249.977
81.9854
77.5826
255.209
251.51
81.8375
388.836
391.589
389.316
390.276
22.53
138.229
135.129
136.822
134.833
388.331
389.526
389.808
382.326
382.655
389.169
388.929
392.114
133.494
132.441
22.6001
134.98
139.641
388.743
384.811
390.321
384.145
22.4263
134.687
138.721
132.287
136.692
80.3513
250.925
77.2926
254.312
33.2102
71.0572
19.1719
20.7057
32.2323
73.8635
19.1637
33.0304
70.0348
19.1328
20.6438
32.3517
73.3401
19.1312
79.5045
254.231
249.927
81.0014
77.9676
254.143
248.238
81.0923
32.0517
20.696
73.6172
19.1515
71.4394
19.1605
33.268
32.5396
20.5772
72.2407
19.1222
70.713
19.1326
32.7773
130.067
136.834
22.5958
136.076
138.203
386.135
387.447
386.092
382.01
22.4966
135.142
138
131.876
134.435
391.517
390.334
34.8419
74.4438
19.2979
20.9007
34.2774
76.9413
19.3116