/*--------------------------------*- C++ -*----------------------------------*\
| =========                 |                                                 |
| \\      /  F ield         | OpenFOAM: The Open Source CFD Toolbox           |
|  \\    /   O peration     | Version:  2206                                  |
|   \\  /    A nd           | Website:  www.openfoam.com                      |
|    \\/     M anipulation  |                                                 |
\*---------------------------------------------------------------------------*/
FoamFile
{
    version     2.0;
    format      ascii;
    arch        "LSB;label=32;scalar=64";
    class       volScalarField;
    location    "20";
    object      p;
}
// * * * * * * * * * * * * * * * * * * * * * * * * * * * * * * * * * * * * * //

dimensions      [0 2 -2 0 0 0 0];

internalField   nonuniform List<scalar> 
66701
(
-0.0106037
-0.0106039
-0.0106037
-0.0106037
-0.0106039
-0.0106038
-0.0106038
-0.0106038
-0.010604
-0.0106038
-0.0106038
-0.0106039
-0.0106038
-0.0106039
-0.0106038
-0.0106038
-0.0106038
-0.0106038
-0.0106038
-0.0106038
-0.0106038
-0.0106039
-0.0106039
-0.0106039
-0.0106039
-0.0106039
-0.0106039
-0.0106039
-0.0106039
-0.0106039
-0.0106039
-0.010604
-0.010604
-0.010604
-0.010604
-0.010604
-0.0106039
-0.0106039
-0.0106039
-0.0106039
-0.0106039
-0.0106039
-0.0106039
-0.010604
-0.010604
-0.010604
-0.0106038
-0.0106038
-0.0106039
-0.0106039
-0.0106039
-0.0106038
-0.0106038
-0.0106038
-0.0106039
-0.0106039
-0.0106038
-0.0106039
-0.0106039
-0.0106039
-0.0106039
-0.0106039
-0.0106039
-0.0106039
-0.0106039
-0.0106039
-0.010523
-0.0105233
-0.0105232
-0.0105232
-0.0105234
-0.0105232
-0.0105421
-0.010524
-0.0105234
-0.0105233
-0.0105245
-0.0105424
-0.0105243
-0.0105424
-0.0105235
-0.0105235
-0.0105246
-0.0105425
-0.0105424
-0.0105244
-0.0105235
-0.0105234
-0.0105236
-0.0105618
-0.0105617
-0.0105232
-0.0105233
-0.010523
-0.0105615
-0.0105616
-0.0105614
-0.0105234
-0.0105227
-0.0105613
-0.0105232
-0.0105613
-0.0105616
-0.0105615
-0.0105235
-0.010523
-0.0105616
-0.0105234
-0.0105615
-0.0105618
-0.0105617
-0.0105234
-0.0105235
-0.0105618
-0.0105235
-0.0105618
-0.0105617
-0.0105616
-0.0105233
-0.0105618
-0.0105236
-0.0105618
-0.0105618
-0.0105236
-0.0105234
-0.0105618
-0.0105236
-0.0105617
-0.0105618
-0.0105617
-0.0105234
-0.0105619
-0.0105237
-0.0105619
-0.010562
-0.010562
-0.0105618
-0.0105618
-0.0105617
-0.0105232
-0.0105618
-0.010562
-0.0105616
-0.0105617
-0.0105617
-0.0105616
-0.0105621
-0.010562
-0.0105424
-0.0105424
-0.0105426
-0.0105427
-0.0105424
-0.0105423
-0.0105425
-0.0105427
-0.0105426
-0.0105427
-0.0105426
-0.0105427
-0.0105598
-0.0105614
-0.0105236
-0.0105238
-0.0105249
-0.0105607
-0.0105609
-0.0105615
-0.010524
-0.0105223
-0.0105602
-0.0105618
-0.0105224
-0.0105599
-0.0105622
-0.0105245
-0.0105227
-0.0105605
-0.0105227
-0.0105605
-0.0105622
-0.0105621
-0.0105244
-0.0105226
-0.0105608
-0.0105622
-0.0105227
-0.0105606
-0.0105622
-0.0105227
-0.0105245
-0.0105605
-0.0105228
-0.0105622
-0.0105606
-0.0105622
-0.0105245
-0.0105228
-0.0105609
-0.0105228
-0.0105607
-0.0105623
-0.0105601
-0.0105616
-0.010524
-0.0105611
-0.0105611
-0.0105228
-0.0105228
-0.0105228
-0.0105228
-0.0105228
-0.0105234
-0.0105234
-0.0105234
-0.0105235
-0.0105235
-0.0105229
-0.0105229
-0.0105229
-0.010523
-0.010523
-0.0105235
-0.0105235
-0.0105235
-0.0105236
-0.0105236
-0.0105237
-0.0105237
-0.0105237
-0.0105237
-0.0105237
-0.0105236
-0.0105236
-0.0105236
-0.0105236
-0.0105236
-0.0105617
-0.0105617
-0.0105617
-0.0105617
-0.0105617
-0.0105618
-0.0105618
-0.0105618
-0.0105618
-0.0105618
-0.0105236
-0.0105236
-0.0105236
-0.0105236
-0.0105236
-0.0105235
-0.0105235
-0.0105235
-0.0105236
-0.0105236
-0.0105618
-0.0105618
-0.0105618
-0.0105618
-0.0105618
-0.0105617
-0.0105617
-0.0105617
-0.0105617
-0.0105617
-0.0105618
-0.0105618
-0.0105618
-0.0105618
-0.0105618
-0.0105236
-0.0105236
-0.0105236
-0.0105236
-0.0105236
-0.0105236
-0.0105236
-0.0105236
-0.0105236
-0.0105236
-0.0105618
-0.0105618
-0.0105618
-0.0105618
-0.0105618
-0.0105618
-0.0105618
-0.0105618
-0.0105618
-0.0105618
-0.0105619
-0.0105619
-0.0105619
-0.0105619
-0.0105618
-0.0105618
-0.0105619
-0.0105619
-0.0105618
-0.0105618
-0.0105619
-0.0105619
-0.0105619
-0.0105619
-0.0105619
-0.0105231
-0.0105231
-0.0105231
-0.0105231
-0.0105231
-0.0105231
-0.0105231
-0.0105231
-0.0105231
-0.0105231
-0.0105613
-0.0105613
-0.0105612
-0.0105612
-0.0105612
-0.0105233
-0.0105233
-0.0105233
-0.0105234
-0.0105234
-0.0105234
-0.0105234
-0.0105234
-0.0105234
-0.0105234
-0.0105617
-0.0105617
-0.0105617
-0.0105617
-0.0105617
-0.0105616
-0.0105616
-0.0105616
-0.0105616
-0.0105616
-0.0105616
-0.0105615
-0.0105615
-0.0105615
-0.0105615
-0.0105617
-0.0105617
-0.0105617
-0.0105617
-0.0105616
-0.0105236
-0.0105236
-0.0105236
-0.0105236
-0.0105236
-0.0105618
-0.0105618
-0.0105618
-0.0105617
-0.0105617
-0.0105236
-0.0105236
-0.0105237
-0.0105237
-0.0105237
-0.0105618
-0.0105619
-0.0105618
-0.0105618
-0.0105618
-0.0105618
-0.0105618
-0.0105618
-0.0105618
-0.0105618
-0.0105619
-0.0105619
-0.0105619
-0.0105618
-0.0105618
-0.00522903
-0.00521015
-0.00555236
-0.0055525
-0.00555249
-0.00553326
-0.00587498
-0.00587517
-0.00587505
-0.00585595
-0.00619742
-0.00619748
-0.00619749
-0.00617827
-0.00651929
-0.00651931
-0.00651937
-0.00650011
-0.00684084
-0.00684085
-0.00684091
-0.00682166
-0.00716206
-0.00716203
-0.00716211
-0.00714286
-0.00748318
-0.00748307
-0.00748321
-0.00746385
-0.00780464
-0.00780448
-0.00780466
-0.00778526
-0.00812686
-0.00812672
-0.00812687
-0.00810749
-0.00844929
-0.00844924
-0.00844936
-0.00843003
-0.0087718
-0.0087718
-0.00877189
-0.00875261
-0.00909406
-0.00909412
-0.00909414
-0.00907494
-0.00941551
-0.00941563
-0.00941558
-0.0093964
-0.00973719
-0.00973727
-0.00973719
-0.009718
-0.0100596
-0.0100597
-0.0100596
-0.0100403
-0.0103815
-0.0103816
-0.0103816
-0.0103624
-0.00521001
-0.0054912
-0.00522941
-0.00547217
-0.00547182
-0.00549098
-0.00553323
-0.00581363
-0.00555247
-0.0055525
-0.00579447
-0.00579457
-0.00553324
-0.00581376
-0.00555236
-0.00555236
-0.00579442
-0.00579439
-0.00555249
-0.00579457
-0.00579458
-0.00553323
-0.00581358
-0.00555257
-0.00579446
-0.00579454
-0.00581375
-0.00585579
-0.00613612
-0.00587504
-0.00587512
-0.00611692
-0.00611691
-0.00585594
-0.0061361
-0.005875
-0.00587495
-0.0061169
-0.00611686
-0.00587514
-0.00611694
-0.00611693
-0.00585575
-0.00613609
-0.00587517
-0.00611694
-0.00611694
-0.00613613
-0.00617823
-0.00645804
-0.0061975
-0.0061975
-0.00643891
-0.0064389
-0.00617823
-0.00645809
-0.00619749
-0.00619747
-0.00643888
-0.00643891
-0.00619751
-0.00643891
-0.00643886
-0.00617822
-0.00645808
-0.00619749
-0.00643894
-0.00643891
-0.00645807
-0.00650008
-0.00677971
-0.00651935
-0.00651934
-0.00676055
-0.00676054
-0.00650009
-0.00677968
-0.00651932
-0.00651936
-0.00676056
-0.00676054
-0.00651931
-0.00676052
-0.00676048
-0.00650012
-0.00677971
-0.00651936
-0.00676057
-0.00676054
-0.00677969
-0.00682168
-0.00710098
-0.00684091
-0.00684091
-0.00708183
-0.00708181
-0.00682164
-0.0071009
-0.00684092
-0.0068409
-0.00708185
-0.00708182
-0.00684086
-0.00708179
-0.00708175
-0.00682171
-0.00710098
-0.0068409
-0.00708186
-0.00708182
-0.00710093
-0.00714291
-0.00742209
-0.00716213
-0.00716209
-0.00740296
-0.00740284
-0.00714283
-0.00742193
-0.00716214
-0.00716211
-0.00740296
-0.00740292
-0.00716204
-0.00740283
-0.00740278
-0.00714289
-0.00742207
-0.0071621
-0.00740294
-0.00740283
-0.0074219
-0.00746401
-0.00774337
-0.00748324
-0.00748313
-0.00772424
-0.00772411
-0.00746385
-0.0077432
-0.00748322
-0.00748322
-0.00772425
-0.00772423
-0.00748306
-0.00772407
-0.00772404
-0.00746399
-0.00774336
-0.00748312
-0.00772425
-0.00772411
-0.0077432
-0.00778544
-0.00806547
-0.00780468
-0.00780457
-0.00804629
-0.00804615
-0.00778526
-0.00806528
-0.0078047
-0.0078047
-0.00804632
-0.0080463
-0.00780449
-0.00804612
-0.0080461
-0.00778544
-0.00806548
-0.00780457
-0.00804629
-0.00804616
-0.00806528
-0.00810763
-0.00838791
-0.00812688
-0.00812676
-0.00836871
-0.0083686
-0.00810748
-0.00838779
-0.00812693
-0.0081269
-0.00836874
-0.00836875
-0.00812674
-0.00836863
-0.00836861
-0.00810763
-0.00838795
-0.00812678
-0.00836877
-0.00836867
-0.00838782
-0.00843008
-0.00871039
-0.00844933
-0.00844925
-0.00869117
-0.00869114
-0.00843
-0.00871033
-0.00844934
-0.00844939
-0.00869119
-0.00869119
-0.00844926
-0.00869116
-0.00869113
-0.00843013
-0.0087104
-0.00844933
-0.00869123
-0.00869117
-0.00871038
-0.00875258
-0.00903281
-0.00877184
-0.00877182
-0.00901363
-0.00901363
-0.00875253
-0.0090328
-0.00877185
-0.00877186
-0.00901362
-0.00901361
-0.00877182
-0.00901362
-0.00901359
-0.00875261
-0.00903281
-0.00877187
-0.00901365
-0.00901362
-0.00903281
-0.00907488
-0.0093543
-0.00909414
-0.00909415
-0.00933519
-0.00933524
-0.00907489
-0.00935441
-0.00909411
-0.0090941
-0.00933517
-0.00933515
-0.00909413
-0.00933526
-0.00933523
-0.00907489
-0.0093543
-0.00909415
-0.00933523
-0.00933524
-0.00935438
-0.00939634
-0.00967578
-0.00941559
-0.00941565
-0.00965669
-0.00965673
-0.00939642
-0.00967588
-0.00941555
-0.00941554
-0.00965667
-0.00965662
-0.00941562
-0.00965677
-0.00965672
-0.00939629
-0.00967577
-0.00941562
-0.00965671
-0.00965673
-0.00967587
-0.0097179
-0.00999809
-0.00973721
-0.00973728
-0.00997896
-0.009979
-0.009718
-0.00999814
-0.00973718
-0.00973716
-0.00997888
-0.00997884
-0.00973726
-0.00997899
-0.00997893
-0.00971787
-0.00999803
-0.0097373
-0.00997892
-0.00997893
-0.00999812
-0.0100403
-0.0103203
-0.0100597
-0.0100597
-0.0103015
-0.0103015
-0.0100404
-0.0103204
-0.0100596
-0.0100595
-0.0103011
-0.010301
-0.0100596
-0.0103012
-0.0103012
-0.0100402
-0.0103203
-0.0100596
-0.0103011
-0.0103012
-0.0103204
-0.0103815
-0.0103625
-0.0103815
-0.0103815
-0.0103816
-0.0103623
-0.0103817
-0.00520985
-0.0053296
-0.00532837
-0.00522937
-0.00521107
-0.00531027
-0.0053286
-0.00521147
-0.0053104
-0.00521027
-0.00521045
-0.00532949
-0.00532944
-0.00532947
-0.00565235
-0.00553328
-0.00565238
-0.00553337
-0.00553325
-0.00565255
-0.00565238
-0.00553328
-0.0056523
-0.00553341
-0.00555244
-0.00555234
-0.00555245
-0.00579442
-0.00579451
-0.0057944
-0.0057945
-0.00565139
-0.00553416
-0.00555248
-0.00563327
-0.00565164
-0.00563324
-0.0055344
-0.0055333
-0.00565231
-0.00565113
-0.0055524
-0.00553428
-0.00563319
-0.00553457
-0.00563308
-0.0056514
-0.00553332
-0.00553342
-0.00565247
-0.00565246
-0.00565235
-0.00597489
-0.00585589
-0.005856
-0.00597496
-0.00585594
-0.00597505
-0.0059749
-0.00585571
-0.00585575
-0.00597494
-0.00587506
-0.00587497
-0.00587506
-0.00611689
-0.00611685
-0.00611684
-0.00611686
-0.00597387
-0.00585689
-0.00587509
-0.0059558
-0.00585709
-0.00597415
-0.00595571
-0.0058557
-0.00597497
-0.00597364
-0.005875
-0.00585681
-0.00595571
-0.00585712
-0.00595564
-0.00597394
-0.0058561
-0.00585611
-0.00597496
-0.00597495
-0.00597486
-0.00629711
-0.00617832
-0.00617843
-0.00629719
-0.00617828
-0.00629725
-0.00629723
-0.00617829
-0.00617831
-0.00629725
-0.00619746
-0.00619745
-0.00619747
-0.00643886
-0.00643884
-0.00643885
-0.00643882
-0.00629605
-0.0061792
-0.00619745
-0.00627799
-0.00617937
-0.00629634
-0.00627794
-0.00617825
-0.00629728
-0.00629587
-0.00619742
-0.00617928
-0.00627801
-0.00617953
-0.00627794
-0.00629621
-0.00617837
-0.00617843
-0.00629714
-0.00629714
-0.00629706
-0.00661886
-0.00650021
-0.00650032
-0.00661897
-0.00650016
-0.00661895
-0.00661903
-0.0065002
-0.0065002
-0.00661905
-0.00651931
-0.00651933
-0.00651932
-0.00676053
-0.00676046
-0.00676049
-0.00676046
-0.00661776
-0.00650104
-0.00651929
-0.00659975
-0.00650125
-0.00661807
-0.00659971
-0.00650012
-0.00661904
-0.00661766
-0.00651933
-0.00650112
-0.00659979
-0.00650141
-0.00659974
-0.00661803
-0.00650023
-0.00650027
-0.00661892
-0.00661884
-0.00661879
-0.00694026
-0.00682181
-0.0068219
-0.00694041
-0.0068217
-0.00694037
-0.00694047
-0.0068218
-0.0068218
-0.00694046
-0.00684084
-0.00684087
-0.00684085
-0.00708181
-0.00708174
-0.00708178
-0.00708173
-0.00693919
-0.00682259
-0.0068408
-0.0069212
-0.00682278
-0.00693943
-0.00692113
-0.00682177
-0.00694053
-0.00693908
-0.00684085
-0.00682276
-0.00692125
-0.00682299
-0.00692119
-0.00693945
-0.0068218
-0.00682187
-0.00694035
-0.00694026
-0.0069402
-0.00726138
-0.00714301
-0.00714308
-0.00726154
-0.00714288
-0.00726144
-0.00726163
-0.00714301
-0.00714303
-0.00726165
-0.00716204
-0.0071621
-0.00716205
-0.00740293
-0.00740281
-0.00740289
-0.00740279
-0.00726024
-0.00714375
-0.007162
-0.0072423
-0.00714396
-0.00726051
-0.00724226
-0.00714299
-0.00726166
-0.0072602
-0.00716208
-0.00714396
-0.0072424
-0.00714421
-0.00724235
-0.00726057
-0.00714294
-0.00714301
-0.00726143
-0.00726131
-0.00726128
-0.00758239
-0.00746399
-0.00746408
-0.00758253
-0.00746384
-0.00758239
-0.0075827
-0.00746409
-0.00746411
-0.00758271
-0.00748312
-0.00748321
-0.00748312
-0.00772422
-0.00772408
-0.0077242
-0.00772407
-0.00758122
-0.00746468
-0.00748305
-0.00756336
-0.0074649
-0.00758143
-0.00756333
-0.00746399
-0.00758269
-0.00758124
-0.00748314
-0.00746495
-0.0075635
-0.0074652
-0.00756342
-0.00758159
-0.00746385
-0.00746397
-0.00758243
-0.00758224
-0.00758222
-0.00790415
-0.00778545
-0.00778549
-0.00790431
-0.0077852
-0.00790416
-0.00790443
-0.00778551
-0.00778551
-0.00790443
-0.00780455
-0.00780466
-0.00780456
-0.00804629
-0.00804613
-0.00804624
-0.00804613
-0.00790294
-0.00778605
-0.00780446
-0.00788499
-0.00778624
-0.00790319
-0.00788493
-0.00778541
-0.00790445
-0.00790296
-0.00780459
-0.00778639
-0.00788516
-0.0077866
-0.00788508
-0.00790334
-0.00778522
-0.00778536
-0.00790413
-0.00790398
-0.00790401
-0.00822654
-0.00810764
-0.00810766
-0.00822669
-0.00810743
-0.00822658
-0.00822679
-0.00810765
-0.00810767
-0.00822679
-0.00812677
-0.00812688
-0.00812679
-0.0083687
-0.00836859
-0.0083687
-0.00836861
-0.00822535
-0.00810825
-0.00812671
-0.00820734
-0.00810848
-0.00822558
-0.00820732
-0.00810762
-0.00822681
-0.00822536
-0.00812681
-0.00810858
-0.0082075
-0.0081088
-0.00820743
-0.00822571
-0.00810743
-0.00810757
-0.00822653
-0.00822641
-0.00822639
-0.00854903
-0.00843014
-0.0084302
-0.00854917
-0.00843002
-0.00854919
-0.00854925
-0.00843017
-0.0084302
-0.0085493
-0.00844925
-0.00844934
-0.00844929
-0.00869117
-0.0086911
-0.00869115
-0.0086911
-0.00854794
-0.00843088
-0.0084492
-0.00852986
-0.00843108
-0.00854822
-0.00852981
-0.00843012
-0.00854932
-0.00854788
-0.00844931
-0.00843113
-0.00852997
-0.00843135
-0.0085299
-0.00854824
-0.00843008
-0.00843016
-0.00854907
-0.00854906
-0.00854902
-0.00887163
-0.00875271
-0.00875276
-0.00887174
-0.0087526
-0.00887173
-0.00887183
-0.0087527
-0.0087527
-0.00887182
-0.00877179
-0.00877184
-0.00877182
-0.00901359
-0.00901355
-0.00901356
-0.00901354
-0.00887057
-0.00875348
-0.00877176
-0.00885243
-0.00875367
-0.00887078
-0.00885238
-0.00875266
-0.00887186
-0.00887045
-0.00877181
-0.00875366
-0.0088525
-0.00875389
-0.00885244
-0.00887082
-0.0087527
-0.00875279
-0.00887165
-0.00887162
-0.00887158
-0.00919357
-0.00907492
-0.00907505
-0.00919373
-0.00907489
-0.00919377
-0.00919371
-0.00907492
-0.00907496
-0.00919377
-0.00909408
-0.00909409
-0.0090941
-0.00933517
-0.00933518
-0.00933514
-0.00933516
-0.00919256
-0.00907585
-0.00909407
-0.00917455
-0.00907606
-0.00919284
-0.00917448
-0.00907489
-0.00919378
-0.0091924
-0.0090941
-0.0090759
-0.00917455
-0.0090762
-0.0091745
-0.00919274
-0.00907502
-0.00907506
-0.00919369
-0.00919365
-0.00919358
-0.00951491
-0.0093964
-0.00939651
-0.00951498
-0.0093964
-0.00951507
-0.00951495
-0.00939633
-0.00939634
-0.00951497
-0.00941559
-0.00941554
-0.0094156
-0.00965672
-0.00965674
-0.00965667
-0.00965672
-0.00951397
-0.00939734
-0.0094156
-0.00949599
-0.00939753
-0.0095142
-0.00949594
-0.00939632
-0.009515
-0.00951374
-0.00941554
-0.00939735
-0.00949591
-0.00939761
-0.00949587
-0.00951404
-0.00939653
-0.00939656
-0.00951508
-0.00951502
-0.00951492
-0.00983683
-0.00971788
-0.00971806
-0.00983691
-0.00971792
-0.00983697
-0.00983684
-0.00971777
-0.00971779
-0.00983684
-0.00973728
-0.00973722
-0.00973729
-0.00997891
-0.00997896
-0.00997884
-0.00997888
-0.00983583
-0.00971887
-0.00973724
-0.00981778
-0.00971909
-0.00983612
-0.00981773
-0.00971772
-0.00983683
-0.00983561
-0.00973719
-0.00971884
-0.00981773
-0.00971919
-0.00981771
-0.00983588
-0.00971805
-0.00971806
-0.00983694
-0.00983688
-0.00983677
-0.0101596
-0.0100405
-0.0100407
-0.0101593
-0.0100406
-0.0101595
-0.0101593
-0.0100403
-0.0100403
-0.0101593
-0.0100597
-0.0100595
-0.0100596
-0.0103011
-0.0103011
-0.0103009
-0.0103009
-0.0101582
-0.0100414
-0.0100596
-0.0101402
-0.0100415
-0.0101586
-0.0101401
-0.0100402
-0.0101593
-0.010158
-0.0100595
-0.0100413
-0.0101401
-0.0100416
-0.0101401
-0.0101583
-0.0100405
-0.0100405
-0.0101593
-0.0101593
-0.0101592
-0.0103624
-0.0103624
-0.0103623
-0.0103817
-0.0103817
-0.0103818
-0.0103633
-0.0103816
-0.0103636
-0.0103624
-0.0103817
-0.0103634
-0.0103638
-0.0103626
-0.0103626
-0.00521007
-0.00521036
-0.00532941
-0.00532941
-0.0053295
-0.00521019
-0.00532964
-0.00549132
-0.00537191
-0.00537242
-0.00549113
-0.00549102
-0.00537209
-0.00537209
-0.00549124
-0.0053719
-0.00532837
-0.00522946
-0.00521124
-0.00531031
-0.00532865
-0.00521152
-0.00531035
-0.00532952
-0.00521032
-0.00532963
-0.00521035
-0.00532952
-0.00521037
-0.00532961
-0.00521038
-0.00537314
-0.00539131
-0.00547192
-0.00549018
-0.00537291
-0.00548981
-0.00539115
-0.00537314
-0.00539108
-0.00547183
-0.00549009
-0.00537278
-0.00548976
-0.00539109
-0.00537202
-0.00549113
-0.00537193
-0.00549098
-0.00537201
-0.00549106
-0.00537186
-0.00549095
-0.00521017
-0.00532961
-0.00521033
-0.00532958
-0.00537176
-0.00549094
-0.00549095
-0.00537185
-0.00537188
-0.00549108
-0.00537172
-0.00549111
-0.00537175
-0.00553325
-0.00565238
-0.00553323
-0.00565231
-0.0055334
-0.0055334
-0.00565235
-0.00565223
-0.00565221
-0.00581368
-0.00569452
-0.0058136
-0.00569438
-0.00569457
-0.00581352
-0.0058135
-0.00569465
-0.00569454
-0.00565237
-0.00553329
-0.00565251
-0.00553338
-0.00565119
-0.00553426
-0.00555247
-0.00563317
-0.00565142
-0.0056332
-0.00553454
-0.0056512
-0.00553423
-0.00555249
-0.00563326
-0.00565152
-0.00563323
-0.00553453
-0.00569474
-0.00581366
-0.00569459
-0.00581362
-0.00569475
-0.0058138
-0.00569474
-0.00581362
-0.00569584
-0.00571387
-0.00581271
-0.00579444
-0.00569553
-0.00571387
-0.0058124
-0.00569585
-0.00571395
-0.00581285
-0.00579446
-0.00569562
-0.0057139
-0.0058124
-0.0055334
-0.00553336
-0.00565247
-0.00565237
-0.00565245
-0.0055332
-0.00565258
-0.00581385
-0.00569472
-0.00569469
-0.0058137
-0.00581378
-0.00569482
-0.00569479
-0.00581392
-0.00569471
-0.0056512
-0.00553429
-0.0055523
-0.0056331
-0.00565142
-0.00563309
-0.00553447
-0.0056524
-0.0055333
-0.00565231
-0.0055334
-0.00565123
-0.00555231
-0.00553423
-0.0056331
-0.00563311
-0.00565145
-0.00553446
-0.00569445
-0.00581358
-0.00569441
-0.00581359
-0.00569553
-0.00571382
-0.00581272
-0.00579433
-0.00569538
-0.00571377
-0.0058124
-0.00569446
-0.00581362
-0.00569441
-0.00581359
-0.00569556
-0.0057138
-0.00579434
-0.00581269
-0.0057138
-0.00569537
-0.0058124
-0.00565257
-0.00553324
-0.00565257
-0.00553327
-0.0056514
-0.00555248
-0.00553414
-0.00563325
-0.00563329
-0.00565162
-0.00553438
-0.00565257
-0.00553324
-0.00565258
-0.00553325
-0.00569576
-0.00571395
-0.00581295
-0.0057945
-0.00569561
-0.00571392
-0.00581267
-0.00569471
-0.00581389
-0.00569473
-0.00581385
-0.00569578
-0.00571396
-0.00579454
-0.00581298
-0.00571399
-0.0056956
-0.00581267
-0.00569471
-0.00581389
-0.00569472
-0.00581385
-0.00553342
-0.00553343
-0.00565234
-0.00565221
-0.00565223
-0.00553331
-0.00565238
-0.00581363
-0.00569438
-0.00569456
-0.00581349
-0.0058135
-0.00569451
-0.00569463
-0.00581365
-0.00569448
-0.00565115
-0.00555245
-0.00553425
-0.00563326
-0.00553457
-0.00563311
-0.0056515
-0.00565231
-0.00553334
-0.00553339
-0.00565238
-0.00565233
-0.00553332
-0.0055334
-0.00565247
-0.00569579
-0.00571387
-0.00579439
-0.00581268
-0.00571377
-0.00569549
-0.00581238
-0.00569583
-0.00571391
-0.00579438
-0.00581282
-0.00571376
-0.00569564
-0.0058124
-0.00569467
-0.00581361
-0.00569456
-0.00581356
-0.00569471
-0.00581379
-0.00569469
-0.00581361
-0.00553319
-0.00565259
-0.00553326
-0.00565253
-0.00569467
-0.00581379
-0.0058137
-0.0056948
-0.00569482
-0.00581392
-0.00569469
-0.00581385
-0.00569468
-0.00585582
-0.00597499
-0.00585568
-0.00597496
-0.00585593
-0.00585584
-0.00597489
-0.00597483
-0.0059748
-0.00613617
-0.00601711
-0.0061362
-0.00601701
-0.0060171
-0.00613601
-0.00613606
-0.00601724
-0.00601715
-0.00597489
-0.00585598
-0.00585599
-0.00597503
-0.0059737
-0.00585679
-0.00587502
-0.00595571
-0.00585715
-0.005974
-0.00595567
-0.00597371
-0.00585692
-0.00587504
-0.00595577
-0.00585715
-0.00597401
-0.00595568
-0.00601726
-0.00613614
-0.00601716
-0.00613607
-0.00601724
-0.00613615
-0.00601718
-0.00613606
-0.00601834
-0.00603634
-0.00613519
-0.00611687
-0.00601809
-0.0060363
-0.00613488
-0.00601833
-0.00603637
-0.0061352
-0.00611686
-0.00601808
-0.00603629
-0.00613487
-0.00585611
-0.00585604
-0.00597498
-0.00597481
-0.00597504
-0.00585595
-0.00597512
-0.0061362
-0.00601715
-0.00601716
-0.00613605
-0.0061361
-0.00601725
-0.00601726
-0.00613626
-0.00601713
-0.00597373
-0.00585668
-0.00587493
-0.00595568
-0.00585689
-0.00597399
-0.00595561
-0.00597491
-0.00585573
-0.00585574
-0.00597496
-0.00597373
-0.00587493
-0.00585663
-0.00595564
-0.00585689
-0.00595563
-0.00597399
-0.00601705
-0.00613618
-0.00601707
-0.0061362
-0.00601815
-0.00603633
-0.00613524
-0.00611685
-0.00601798
-0.00603626
-0.006135
-0.00601705
-0.0061362
-0.00601704
-0.00613618
-0.00601815
-0.00603626
-0.00611685
-0.00613524
-0.00603625
-0.00601793
-0.00613501
-0.00597506
-0.00585597
-0.00585597
-0.0059751
-0.00597387
-0.00587509
-0.0058569
-0.00595576
-0.00585712
-0.00595574
-0.00597412
-0.00597506
-0.00585599
-0.00585598
-0.00597509
-0.00601821
-0.00603638
-0.0061353
-0.00611688
-0.00601806
-0.00603631
-0.00613502
-0.00601716
-0.00613621
-0.00601717
-0.00613622
-0.00601821
-0.00603635
-0.00611689
-0.00613529
-0.00603632
-0.00601804
-0.00613501
-0.00601715
-0.00613619
-0.00601713
-0.00613622
-0.00585581
-0.00585595
-0.00597488
-0.00597484
-0.00597477
-0.00585578
-0.00597494
-0.00613622
-0.00601701
-0.00601708
-0.00613606
-0.00613601
-0.00601713
-0.00601717
-0.00613615
-0.00601702
-0.00597366
-0.00587504
-0.00585692
-0.00595578
-0.00585714
-0.00595568
-0.00597401
-0.00597483
-0.00585583
-0.00585596
-0.00597491
-0.00597484
-0.00585598
-0.00585599
-0.005975
-0.00601831
-0.00603635
-0.00611686
-0.00613513
-0.00603628
-0.00601804
-0.00613484
-0.00601833
-0.00603636
-0.00611687
-0.00613518
-0.00603627
-0.00601809
-0.00613482
-0.0060172
-0.00613612
-0.00601708
-0.00613602
-0.00601721
-0.00613613
-0.00601714
-0.00613602
-0.00585595
-0.00597511
-0.00585592
-0.00597504
-0.00601711
-0.00613609
-0.00613601
-0.00601723
-0.00601725
-0.00613621
-0.00601712
-0.00613616
-0.00601712
-0.00617825
-0.00629721
-0.00617823
-0.00629728
-0.00617839
-0.00617835
-0.0062972
-0.00629706
-0.00629711
-0.00645812
-0.00633924
-0.00645815
-0.00633926
-0.00633926
-0.00645796
-0.00645801
-0.00633939
-0.00633934
-0.00629711
-0.00617833
-0.00617841
-0.00629723
-0.00629591
-0.00617924
-0.00619747
-0.00627802
-0.00617956
-0.00629623
-0.00627798
-0.00629589
-0.00617926
-0.00619749
-0.00627802
-0.00617955
-0.00629622
-0.00627799
-0.0063394
-0.00645809
-0.00633931
-0.006458
-0.0063394
-0.00645807
-0.00633934
-0.00645799
-0.00634049
-0.00635847
-0.00645715
-0.00643888
-0.00634025
-0.00635842
-0.00645684
-0.00634049
-0.00635845
-0.00645713
-0.00643887
-0.00634025
-0.00635842
-0.00645682
-0.00617843
-0.00617837
-0.00629715
-0.00629709
-0.00629715
-0.0061783
-0.00629731
-0.00645811
-0.00633929
-0.00633923
-0.00645796
-0.00645801
-0.00633942
-0.00633934
-0.00645812
-0.00633927
-0.00629604
-0.00617919
-0.00619745
-0.00627803
-0.00617942
-0.00629629
-0.00627796
-0.00629724
-0.00617828
-0.00617828
-0.00629728
-0.00629605
-0.00619746
-0.00617914
-0.00627799
-0.00617942
-0.00627798
-0.00629635
-0.00633927
-0.00645814
-0.00633927
-0.00645815
-0.00634037
-0.00635847
-0.00645718
-0.00643884
-0.00634018
-0.0063584
-0.00645694
-0.00633927
-0.00645812
-0.00633927
-0.00645814
-0.00634037
-0.00635844
-0.00643885
-0.00645719
-0.00635841
-0.00634016
-0.00645695
-0.00629724
-0.0061783
-0.00617826
-0.0062973
-0.00629607
-0.00619749
-0.00617919
-0.00627798
-0.0061794
-0.00627797
-0.00629631
-0.00629725
-0.00617827
-0.00617829
-0.00629729
-0.00634037
-0.00635846
-0.00645719
-0.00643886
-0.00634016
-0.0063584
-0.00645693
-0.00633929
-0.00645811
-0.0063393
-0.00645811
-0.00634038
-0.00635842
-0.00643885
-0.00645722
-0.00635841
-0.00634018
-0.00645694
-0.00633928
-0.00645812
-0.00633927
-0.00645812
-0.00617836
-0.00617841
-0.00629717
-0.00629714
-0.00629707
-0.00617826
-0.00629725
-0.00645813
-0.00633926
-0.00633925
-0.00645799
-0.0064579
-0.00633934
-0.0063394
-0.0064581
-0.00633927
-0.00629588
-0.00619746
-0.00617929
-0.00627799
-0.00617955
-0.00627795
-0.00629621
-0.00629707
-0.0061783
-0.00617837
-0.00629722
-0.00629707
-0.00617831
-0.00617838
-0.00629724
-0.00634047
-0.00635849
-0.00643887
-0.00645706
-0.00635842
-0.00634024
-0.00645678
-0.00634049
-0.00635844
-0.00643884
-0.00645711
-0.0063584
-0.00634025
-0.00645677
-0.00633937
-0.00645805
-0.00633932
-0.00645796
-0.00633938
-0.00645807
-0.00633933
-0.00645796
-0.00617822
-0.00629728
-0.00617823
-0.00629726
-0.00633921
-0.006458
-0.00645794
-0.00633937
-0.00633942
-0.00645812
-0.00633926
-0.00645808
-0.00633928
-0.00650014
-0.00661904
-0.00650015
-0.00661907
-0.0065003
-0.00650025
-0.00661895
-0.00661889
-0.00661893
-0.00677979
-0.00666105
-0.00677984
-0.00666102
-0.00666098
-0.00677966
-0.00677971
-0.00666116
-0.00666115
-0.00661887
-0.00650021
-0.00650029
-0.00661893
-0.00661769
-0.00650117
-0.00651935
-0.00659979
-0.00650147
-0.00661803
-0.00659977
-0.00661768
-0.00650114
-0.00651935
-0.00659981
-0.00650146
-0.00661796
-0.00659979
-0.00666113
-0.00677975
-0.00666106
-0.00677962
-0.00666112
-0.00677969
-0.00666103
-0.0067796
-0.00666224
-0.00668019
-0.00677881
-0.0067605
-0.00666201
-0.00668014
-0.00677842
-0.00666222
-0.00668019
-0.00677872
-0.00676048
-0.00666194
-0.00668014
-0.0067784
-0.0065003
-0.00650019
-0.00661891
-0.00661871
-0.00661893
-0.00650007
-0.00661898
-0.00677972
-0.00666097
-0.00666095
-0.00677956
-0.00677965
-0.00666107
-0.00666104
-0.00677977
-0.00666088
-0.00661783
-0.00650108
-0.00651932
-0.0065998
-0.00650132
-0.0066181
-0.00659975
-0.00661903
-0.00650015
-0.00650018
-0.00661905
-0.00661783
-0.00651935
-0.00650104
-0.00659979
-0.00650131
-0.00659979
-0.00661808
-0.00666105
-0.00677981
-0.00666105
-0.0067798
-0.00666212
-0.00668019
-0.00677889
-0.0067605
-0.00666198
-0.00668013
-0.00677861
-0.00666104
-0.00677982
-0.00666102
-0.00677981
-0.00666213
-0.00668018
-0.00676051
-0.00677889
-0.00668015
-0.00666192
-0.0067786
-0.00661896
-0.00650011
-0.00650011
-0.00661898
-0.00661777
-0.00651934
-0.00650105
-0.00659974
-0.00650128
-0.00659974
-0.00661802
-0.00661897
-0.00650014
-0.00650014
-0.00661899
-0.00666202
-0.00668017
-0.00677881
-0.00676045
-0.00666184
-0.0066801
-0.00677848
-0.00666095
-0.00677973
-0.00666092
-0.00677967
-0.00666205
-0.0066801
-0.00676046
-0.00677878
-0.00668009
-0.00666187
-0.00677849
-0.00666095
-0.00677973
-0.00666095
-0.00677967
-0.00650021
-0.00650023
-0.00661892
-0.00661892
-0.00661885
-0.00650012
-0.006619
-0.00677986
-0.00666099
-0.00666098
-0.00677972
-0.00677962
-0.00666111
-0.00666114
-0.00677979
-0.00666098
-0.00661765
-0.00651933
-0.00650114
-0.00659979
-0.00650144
-0.00659976
-0.00661796
-0.00661882
-0.00650016
-0.00650025
-0.00661897
-0.00661883
-0.00650017
-0.00650027
-0.00661892
-0.00666222
-0.0066802
-0.00676051
-0.00677876
-0.00668013
-0.006662
-0.00677839
-0.00666222
-0.00668016
-0.00676047
-0.00677873
-0.00668012
-0.00666194
-0.00677839
-0.00666111
-0.00677973
-0.00666103
-0.00677958
-0.0066611
-0.0067797
-0.00666099
-0.00677959
-0.00650008
-0.00661899
-0.00650011
-0.00661892
-0.00666092
-0.00677961
-0.00677957
-0.00666107
-0.0066611
-0.00677978
-0.00666093
-0.00677972
-0.00666093
-0.00682176
-0.00694044
-0.00682176
-0.00694047
-0.0068219
-0.00682189
-0.0069404
-0.00694028
-0.00694033
-0.00710101
-0.00698237
-0.00710106
-0.00698235
-0.00698238
-0.00710087
-0.00710094
-0.00698251
-0.00698249
-0.00694026
-0.00682177
-0.00682187
-0.00694035
-0.00693909
-0.00682273
-0.00684088
-0.00692125
-0.00682303
-0.00693942
-0.0069212
-0.00693908
-0.00682269
-0.00684088
-0.00692126
-0.00682301
-0.00693936
-0.00692121
-0.00698247
-0.00710097
-0.00698241
-0.00710086
-0.00698245
-0.00710093
-0.00698236
-0.00710083
-0.00698357
-0.00700155
-0.00710002
-0.00708178
-0.00698333
-0.0070015
-0.00709968
-0.00698357
-0.00700154
-0.00709997
-0.00708177
-0.00698331
-0.00700148
-0.00709964
-0.00682185
-0.00682181
-0.00694035
-0.00694021
-0.00694028
-0.00682169
-0.00694043
-0.00710095
-0.00698232
-0.00698231
-0.00710081
-0.0071008
-0.00698245
-0.00698239
-0.00710094
-0.00698227
-0.00693929
-0.0068227
-0.00684087
-0.00692126
-0.00682291
-0.00693951
-0.00692119
-0.00694048
-0.0068218
-0.00682179
-0.00694052
-0.00693929
-0.00684089
-0.00682266
-0.00692125
-0.0068229
-0.00692121
-0.00693959
-0.00698241
-0.00710107
-0.00698238
-0.00710106
-0.00698348
-0.00700157
-0.00710014
-0.00708178
-0.00698334
-0.00700149
-0.00709987
-0.00698241
-0.00710109
-0.00698241
-0.00710106
-0.00698349
-0.00700154
-0.00708179
-0.00710016
-0.00700149
-0.00698334
-0.00709988
-0.00694036
-0.00682171
-0.00682165
-0.00694041
-0.00693919
-0.00684084
-0.00682258
-0.0069212
-0.00682281
-0.00692117
-0.00693943
-0.00694037
-0.00682172
-0.00682166
-0.00694036
-0.00698336
-0.00700151
-0.00709999
-0.00708173
-0.00698317
-0.00700144
-0.00709973
-0.00698227
-0.00710089
-0.00698232
-0.00710088
-0.00698339
-0.00700146
-0.00708172
-0.00710005
-0.00700143
-0.0069832
-0.00709973
-0.00698229
-0.00710091
-0.00698227
-0.00710089
-0.00682188
-0.00682191
-0.00694039
-0.0069404
-0.00694031
-0.00682175
-0.00694046
-0.00710112
-0.00698239
-0.00698236
-0.00710099
-0.0071009
-0.00698251
-0.00698255
-0.00710105
-0.00698239
-0.00693907
-0.00684085
-0.00682273
-0.00692125
-0.00682301
-0.00692119
-0.00693935
-0.00694027