/*--------------------------------*- C++ -*----------------------------------*\
| =========                 |                                                 |
| \\      /  F ield         | OpenFOAM: The Open Source CFD Toolbox           |
|  \\    /   O peration     | Version:  2206                                  |
|   \\  /    A nd           | Website:  www.openfoam.com                      |
|    \\/     M anipulation  |                                                 |
\*---------------------------------------------------------------------------*/
FoamFile
{
    version     2.0;
    format      ascii;
    arch        "LSB;label=32;scalar=64";
    class       volVectorField;
    location    "20";
    object      wallShearStress;
}
// * * * * * * * * * * * * * * * * * * * * * * * * * * * * * * * * * * * * * //

dimensions      [0 2 -2 0 0 0 0];

internalField   uniform (0 0 0);

boundaryField
{
    topPatch
    {
        type            calculated;
        value           nonuniform List<vector> 0();
    }
    wall
    {
        type            calculated;
        value           nonuniform List<vector> 
7718
(
(1.34658e-08 -2.05547e-08 -0.000187601)
(-4.1106e-09 8.90583e-09 -0.000188135)
(-1.06939e-08 -2.59083e-08 -0.00017499)
(-1.08211e-08 1.28622e-08 -0.000175041)
(-5.13958e-09 6.42328e-09 -0.000187621)
(-1.92863e-08 -2.03964e-08 -0.000188165)
(-1.57465e-08 5.96686e-09 -0.000180899)
(-3.5094e-09 -1.20419e-09 -0.000182627)
(-8.66713e-09 -1.26732e-08 -0.000180905)
(-1.20701e-08 -4.85287e-09 -0.00018263)
(6.69026e-09 -4.15147e-08 -0.000187611)
(1.59995e-08 -2.52644e-08 -0.00018758)
(1.90473e-09 -4.65212e-09 -0.000175034)
(-8.70487e-09 -3.04753e-08 -0.000174999)
(-1.0504e-08 1.4843e-08 -0.000175046)
(-1.82473e-09 1.00985e-08 -0.000187621)
(9.50658e-09 -8.27875e-09 -0.000187952)
(2.60877e-08 -2.62221e-08 -0.000181239)
(-5.66834e-09 -5.48518e-09 -0.000182607)
(-1.48583e-08 3.75082e-09 -0.000180904)
(1.35173e-08 -1.18284e-08 -0.000182961)
(2.16163e-08 4.57301e-09 -0.000175388)
(1.60165e-08 1.48858e-08 -0.000181248)
(-1.16684e-08 -5.26973e-09 -0.000182619)
(-1.23619e-08 -1.17433e-08 -0.000180887)
(1.40434e-08 2.5167e-10 -0.000182942)
(1.33019e-08 -1.87676e-08 -0.000175434)
(7.99217e-09 -7.91883e-09 -0.000187986)
(1.89182e-09 -1.01603e-08 -0.000176169)
(1.19418e-08 -1.09643e-08 -0.000187808)
(2.5339e-09 -4.45889e-08 -0.000187672)
(4.002e-08 -2.16459e-08 -0.000175954)
(2.90239e-08 -1.8671e-08 -0.000176287)
(3.41123e-08 -3.45886e-08 -0.000187641)
(-7.31277e-09 -2.78259e-08 -0.000175921)
(3.77276e-08 -7.12389e-09 -0.000176315)
(6.23291e-08 -2.44592e-08 -0.000188074)
(2.01439e-08 -8.38357e-09 -0.000188015)
(1.76198e-08 -2.02186e-08 -0.000188572)
(-1.13175e-08 2.16498e-09 -0.000188117)
(1.87201e-08 7.50782e-09 -0.000188587)
(-1.71127e-08 -1.26728e-08 -0.000188171)
(2.25723e-08 -6.88002e-09 -0.000176324)
(4.17637e-09 -1.12273e-08 -0.000188055)
(2.11039e-08 -6.56995e-09 -0.000188031)
(-1.55457e-08 -2.77695e-09 -0.000187661)
(-1.54419e-09 -2.6179e-08 -0.000188005)
(2.69904e-09 -1.50949e-08 -0.000174744)
(1.87135e-08 7.63491e-09 -0.00017522)
(1.0204e-08 -1.08848e-08 -0.000187517)
(-1.70775e-08 5.86853e-09 -0.000187906)
(-6.1613e-09 -2.09929e-08 -0.000174936)
(9.4297e-09 1.64685e-08 -0.000175454)
(-6.14164e-09 1.64529e-08 -0.000187541)
(1.08859e-08 -1.08118e-08 -0.000187999)
(-2.06719e-08 -1.01992e-08 -0.000174839)
(2.05056e-08 5.63359e-09 -0.000175262)
(1.16407e-08 -1.08786e-08 -0.000187541)
(-5.35537e-09 9.3275e-09 -0.000187932)
(-1.03249e-08 -1.84174e-08 -0.000175101)
(5.71789e-09 1.75905e-08 -0.000175506)
(-8.88504e-09 1.41027e-08 -0.000187687)
(9.67248e-09 -5.55312e-09 -0.000188045)
(-1.53289e-08 -1.19837e-08 -0.000174843)
(1.93434e-08 6.57832e-09 -0.000175257)
(1.24329e-08 -1.07707e-08 -0.000187561)
(-9.35415e-09 8.90434e-09 -0.000187929)
(-1.07117e-08 -1.72575e-08 -0.000175083)
(6.61087e-09 1.80356e-08 -0.000175495)
(-8.92186e-09 1.8967e-08 -0.000187701)
(1.05957e-08 -7.08131e-09 -0.00018805)
(-1.84505e-08 -1.02704e-08 -0.000174849)
(2.04696e-08 7.8829e-09 -0.00017526)
(1.49016e-08 -1.08169e-08 -0.000187557)
(-6.85488e-09 1.09452e-08 -0.000187922)
(-8.37922e-09 -2.05257e-08 -0.000175104)
(9.13002e-09 1.23461e-08 -0.000175505)
(-6.5405e-09 1.96254e-08 -0.000187707)
(9.47391e-09 -7.54904e-09 -0.000188078)
(-1.85045e-08 -9.89389e-09 -0.000174839)
(2.06862e-08 8.07546e-09 -0.000175247)
(1.2386e-08 -1.15076e-08 -0.000187537)
(-1.42809e-08 9.26062e-09 -0.000187894)
(-8.08932e-09 -1.85299e-08 -0.000175088)
(9.38806e-09 1.22809e-08 -0.000175487)
(-8.41213e-09 1.41847e-08 -0.000187713)
(7.41115e-09 -1.45399e-08 -0.000188055)
(-1.78766e-08 -8.52378e-09 -0.000174834)
(2.30539e-08 7.27618e-09 -0.00017524)
(7.35605e-09 -1.21855e-08 -0.000187515)
(-1.29438e-08 1.07819e-08 -0.000187884)
(-8.12754e-09 -1.87722e-08 -0.000175086)
(1.01938e-08 2.00893e-08 -0.00017548)
(-9.17418e-09 9.18222e-09 -0.000187703)
(1.01713e-08 -1.18115e-08 -0.000188047)
(-1.44629e-08 -7.11817e-09 -0.0001748)
(2.33963e-08 7.91477e-09 -0.000175207)
(1.55819e-08 -4.24587e-09 -0.000187499)
(-1.27232e-08 1.00978e-08 -0.00018787)
(-9.35403e-09 -1.5037e-08 -0.000175052)
(1.06323e-08 1.78258e-08 -0.00017546)
(-7.78658e-09 1.50016e-08 -0.000187688)
(1.39161e-08 -9.49271e-09 -0.00018803)
(-1.15691e-08 -9.10382e-09 -0.000174787)
(2.41115e-08 8.12434e-09 -0.000175199)
(1.32747e-08 -5.57684e-09 -0.000187502)
(-9.27312e-09 1.20724e-08 -0.00018787)
(-8.93227e-09 -1.16604e-08 -0.000175062)
(9.4737e-09 1.79463e-08 -0.00017546)
(-6.58007e-09 1.48581e-08 -0.00018768)
(1.00833e-08 -1.06293e-08 -0.000188029)
(-1.87807e-08 -1.0008e-08 -0.000174797)
(2.51971e-08 5.42158e-09 -0.000175229)
(1.70651e-08 -7.61367e-09 -0.000187516)
(-7.30229e-09 1.20516e-08 -0.000187899)
(-8.84176e-09 -1.7877e-08 -0.000175053)
(5.74799e-09 1.80244e-08 -0.000175468)
(-8.34531e-09 1.46735e-08 -0.000187669)
(7.29325e-09 -1.20128e-08 -0.000188034)
(-1.96606e-08 -8.50399e-09 -0.000174822)
(2.01975e-08 8.86988e-09 -0.000175234)
(1.7535e-08 -5.82654e-09 -0.00018754)
(-1.1488e-08 9.07919e-09 -0.000187904)
(-9.24685e-09 -1.37769e-08 -0.00017506)
(7.80808e-09 1.52876e-08 -0.000175465)
(-8.28656e-09 1.33197e-08 -0.000187672)
(6.70711e-09 -1.57865e-08 -0.000188019)
(-1.41287e-08 -1.16511e-08 -0.000174825)
(2.06277e-08 6.1703e-09 -0.00017525)
(9.79262e-09 -1.04413e-08 -0.000187546)
(-8.73599e-09 1.01373e-08 -0.000187924)
(-8.51179e-09 -1.65e-08 -0.000175067)
(6.06415e-09 1.49559e-08 -0.000175479)
(-7.84287e-09 1.37228e-08 -0.000187668)
(8.23923e-09 -6.46514e-09 -0.000188033)
(-1.81263e-08 -1.302e-08 -0.000174819)
(2.01474e-08 5.82387e-09 -0.000175245)
(1.23522e-08 -1.17274e-08 -0.000187557)
(-9.77117e-09 9.19122e-09 -0.000187922)
(-1.20205e-08 -1.72286e-08 -0.00017507)
(6.21767e-09 1.86875e-08 -0.000175484)
(-1.16973e-08 1.09451e-08 -0.000187682)
(9.5549e-09 -9.57879e-09 -0.00018804)
(-2.11913e-08 -5.31395e-09 -0.000174828)
(2.1006e-08 1.05976e-08 -0.000175226)
(6.58927e-09 -1.06115e-08 -0.000187557)
(-1.49534e-08 1.04059e-08 -0.000187907)
(-7.99882e-09 -1.29098e-08 -0.000175095)
(1.21275e-08 1.86343e-08 -0.000175477)
(-7.07869e-09 1.28339e-08 -0.000187685)
(1.2799e-08 -1.08436e-08 -0.000188019)
(-1.1572e-08 -8.48365e-09 -0.000174816)
(1.78963e-08 1.19821e-08 -0.000175249)
(1.60875e-08 -4.35628e-09 -0.000187541)
(-8.00141e-09 1.352e-08 -0.000187936)
(-6.69219e-09 -1.34052e-08 -0.00017507)
(1.2362e-08 1.45084e-08 -0.000175479)
(-4.62697e-09 1.25265e-08 -0.00018767)
(1.16847e-08 -1.16532e-08 -0.000188039)
(-2.2705e-08 -6.99789e-09 -0.000174798)
(3.34416e-09 1.50517e-08 -0.000175255)
(1.75473e-08 -5.6139e-09 -0.000187519)
(5.22207e-09 1.72528e-08 -0.000187923)
(-1.03862e-08 -9.45936e-09 -0.000175055)
(8.43381e-09 1.89808e-08 -0.000175441)
(-7.46164e-09 1.34174e-08 -0.000187679)
(1.08044e-08 -8.93089e-09 -0.00018801)
(1.53999e-08 1.22576e-09 -0.00018754)
(-1.19533e-08 -1.29211e-08 -0.000175058)
(-6.91564e-09 1.39523e-08 -0.000187665)
(-3.44973e-08 -3.38776e-09 -0.000187484)
(-4.05449e-09 -1.45447e-08 -0.000187839)
(1.33741e-08 -4.60375e-09 -0.000187879)
(-1.66786e-08 9.32537e-09 -0.000187605)
(2.61778e-08 5.84589e-10 -0.000187793)
(-1.55047e-08 9.07195e-09 -0.000187447)
(-4.80475e-08 -8.4815e-10 -0.000174802)
(6.21239e-09 -1.22011e-08 -0.000175181)
(2.46499e-08 6.11585e-09 -0.000174786)
(-2.76624e-09 -1.12335e-08 -0.000175179)
(3.85193e-08 -3.01251e-10 -0.000175154)
(-2.01063e-08 1.04002e-08 -0.000174756)
(-1.39516e-08 -8.13458e-09 -0.000175206)
(3.32453e-08 3.90293e-09 -0.000174768)
(8.03528e-09 1.34267e-08 -0.000187642)
(-6.15211e-09 -1.38467e-08 -0.000187999)
(1.62338e-08 7.77289e-09 -0.000187478)
(4.35825e-10 -1.56283e-08 -0.000187844)
(-1.28921e-08 -2.57528e-09 -0.000188012)
(1.23239e-08 8.6971e-09 -0.00018764)
(-1.37384e-08 -8.20495e-09 -0.00018787)
(2.54138e-08 3.27723e-09 -0.00018748)
(5.36212e-09 -1.80319e-08 -0.000187447)
(1.40059e-08 8.67139e-09 -0.000187881)
(-1.63617e-09 -1.97538e-08 -0.000187549)
(1.07047e-08 7.04345e-09 -0.000188004)
(6.02838e-09 1.07785e-08 -0.000187905)
(-1.63241e-08 -7.26563e-09 -0.000187525)
(8.32806e-09 1.0206e-08 -0.000188031)
(-6.79111e-09 -1.57399e-08 -0.000187663)
(1.25333e-08 -1.13335e-08 -0.00017481)
(-2.64104e-08 3.95091e-09 -0.000175242)
(1.58025e-08 9.23375e-09 -0.000175248)
(-2.06666e-08 -8.46938e-09 -0.000174815)
(-2.18866e-08 5.01099e-09 -0.00017524)
(8.8547e-09 -1.33902e-08 -0.000174825)
(9.57482e-09 -1.14246e-08 -0.000187668)
(-7.1866e-09 1.20659e-08 -0.000188032)
(-1.49868e-08 5.59572e-09 -0.000187917)
(1.01464e-08 -1.13606e-08 -0.000187536)
(-6.83334e-09 1.11156e-08 -0.000188012)
(1.041e-08 -1.09233e-08 -0.000187672)
(-6.51357e-09 1.71465e-08 -0.000174936)
(9.72674e-09 -1.73177e-08 -0.000175447)
(9.19338e-09 1.49298e-08 -0.000175504)
(-9.87607e-09 -1.52459e-08 -0.000175073)
(6.40741e-09 -1.85969e-08 -0.000175504)
(-9.34258e-09 1.2357e-08 -0.000175076)
(1.15277e-08 -1.37036e-08 -0.000175077)
(-7.45033e-09 1.76466e-08 -0.000175488)
(9.28045e-09 1.59171e-08 -0.000175097)
(-7.22119e-09 -1.29208e-08 -0.000175498)
(-5.90267e-09 1.86522e-08 -0.000175473)
(1.19347e-08 -1.37251e-08 -0.000175082)
(-5.31837e-09 -1.65298e-08 -0.000175487)
(1.16543e-08 1.39644e-08 -0.000175094)
(-1.67909e-09 1.49324e-08 -0.000187432)
(1.38829e-08 -9.14213e-09 -0.000187868)
(7.34994e-09 -1.09245e-08 -0.000188044)
(-7.2221e-09 1.24832e-08 -0.000187661)
(1.04383e-08 -9.58576e-09 -0.000187903)
(-1.21936e-08 8.84393e-09 -0.000187513)
(-1.89164e-09 1.57237e-08 -0.000174745)
(2.40635e-08 -6.58731e-09 -0.000175229)
(1.97734e-08 8.71489e-09 -0.00017479)
(-2.48621e-08 -3.92134e-09 -0.000175218)
(1.56787e-08 -7.8946e-09 -0.00017526)
(-1.65496e-08 8.49861e-09 -0.000174818)
(-2.38305e-08 -4.99735e-09 -0.000175223)
(9.86955e-09 1.28532e-08 -0.000174808)
(6.98695e-09 1.4931e-08 -0.000187659)
(-9.42253e-09 -7.90478e-09 -0.000188016)
(1.34154e-08 9.04614e-09 -0.000187498)
(-1.41226e-08 -7.54926e-09 -0.000187889)
(-6.69871e-09 -1.23932e-08 -0.000187996)
(9.87648e-09 1.23081e-08 -0.000187647)
(-1.42046e-08 -5.72824e-09 -0.000187885)
(9.71847e-09 1.07806e-08 -0.000187512)
(-1.5489e-08 -8.85873e-09 -0.000187541)
(1.42101e-08 6.23232e-09 -0.000187917)
(-1.09334e-08 -1.11742e-08 -0.00018767)
(5.75332e-09 1.40818e-08 -0.000188029)
(1.47748e-08 5.65728e-09 -0.000187915)
(-1.08813e-08 -1.14626e-08 -0.000187544)
(8.88682e-09 9.3374e-09 -0.000188029)
(-9.85763e-09 -1.22761e-08 -0.000187669)
(1.76138e-08 -1.1184e-08 -0.000174829)
(-1.47387e-08 8.51311e-09 -0.00017525)
(1.95174e-08 7.74744e-09 -0.000175257)
(-1.74624e-08 -1.19529e-08 -0.000174843)
(-1.45999e-08 8.19564e-09 -0.000175257)
(2.29505e-08 -1.00258e-08 -0.000174842)
(1.11433e-08 -1.32192e-08 -0.000187661)
(-6.55047e-09 1.28306e-08 -0.00018803)
(-1.44027e-08 5.41304e-09 -0.000187938)
(1.65333e-08 -6.73375e-09 -0.000187552)
(-8.85921e-09 9.34883e-09 -0.000188052)
(1.01653e-08 -1.41359e-08 -0.000187684)
(-1.08435e-08 1.7035e-08 -0.00017511)
(5.91987e-09 -1.51669e-08 -0.000175517)
(7.86434e-09 1.6274e-08 -0.00017549)
(-1.05755e-08 -1.76103e-08 -0.000175096)
(5.86232e-09 -1.28532e-08 -0.000175524)
(-1.02406e-08 1.86109e-08 -0.000175114)
(1.13652e-08 -1.67085e-08 -0.00017507)
(-5.62628e-09 1.63128e-08 -0.000175487)
(1.09029e-08 1.51331e-08 -0.000175089)
(-3.63713e-09 -1.95348e-08 -0.000175487)
(-6.89334e-09 1.57603e-08 -0.000175491)
(1.1122e-08 -1.72451e-08 -0.000175078)
(-8.15272e-09 -1.20903e-08 -0.000175496)
(1.21737e-08 1.37252e-08 -0.000175092)
(-1.34248e-08 1.12735e-08 -0.000187532)
(1.60207e-08 -5.58246e-09 -0.000187908)
(1.01371e-08 -6.88914e-09 -0.000188051)
(-5.57938e-09 1.87441e-08 -0.000187695)
(1.62844e-08 -5.06933e-09 -0.0001879)
(-9.19635e-09 1.26693e-08 -0.000187533)
(-1.91586e-08 9.94993e-09 -0.000174838)
(2.15236e-08 -3.90515e-09 -0.000175262)
(1.63759e-08 1.15495e-08 -0.000174806)
(-2.45819e-08 -2.22813e-09 -0.000175232)
(1.9141e-08 -6.16876e-09 -0.000175246)
(-1.91116e-08 1.06611e-08 -0.000174837)
(-1.51941e-08 -6.80143e-09 -0.000175251)
(1.51493e-08 1.14451e-08 -0.000174816)
(1.08924e-08 9.09678e-09 -0.000187631)
(-5.18068e-09 -1.44537e-08 -0.000187999)
(1.02889e-08 1.03842e-08 -0.000187512)
(-1.2312e-08 -7.45112e-09 -0.000187893)
(-7.0404e-09 -1.2257e-08 -0.000188014)
(1.27793e-08 6.24614e-09 -0.000187638)
(-9.35732e-09 -9.213e-09 -0.000187913)
(1.42919e-08 9.57036e-09 -0.000187525)
(-5.80211e-09 -1.29371e-08 -0.000187543)
(1.31656e-08 7.21576e-09 -0.000187912)
(-9.31392e-09 -1.35796e-08 -0.000187671)
(8.59133e-09 9.38719e-09 -0.000188038)
(1.38192e-08 5.72914e-09 -0.000187918)
(-1.06983e-08 -1.07424e-08 -0.00018754)
(8.61558e-09 9.51077e-09 -0.000188058)
(-8.3334e-09 -1.73804e-08 -0.000187676)
(2.27881e-08 -9.94463e-09 -0.000174846)
(-1.60858e-08 8.68246e-09 -0.000175254)
(1.86191e-08 7.37582e-09 -0.000175268)
(-2.03737e-08 -1.07173e-08 -0.000174842)
(-1.9444e-08 6.04951e-09 -0.000175257)
(1.92117e-08 -1.15103e-08 -0.000174832)
(1.11933e-08 -1.28164e-08 -0.000187699)
(-1.21173e-08 4.23753e-09 -0.000188059)
(-1.38585e-08 6.29312e-09 -0.000187925)
(1.33282e-08 -8.47538e-09 -0.000187553)
(-1.22143e-08 3.50175e-09 -0.000188062)
(6.69319e-09 -1.803e-08 -0.000187699)
(-9.27061e-09 2.01607e-08 -0.000175119)
(7.04373e-09 -1.52464e-08 -0.000175515)
(9.52826e-09 1.11079e-08 -0.000175514)
(-1.26111e-08 -1.45868e-08 -0.000175084)
(7.5302e-09 -1.40374e-08 -0.000175531)
(-1.09813e-08 1.54314e-08 -0.000175117)
(1.1424e-08 -1.50855e-08 -0.000175092)
(-7.36967e-09 1.70421e-08 -0.000175495)
(9.46407e-09 2.04824e-08 -0.000175096)
(-6.68769e-09 -1.60199e-08 -0.000175495)
(-9.96747e-09 9.12346e-09 -0.000175502)
(9.79381e-09 -1.79728e-08 -0.000175093)
(-6.68766e-09 -1.35649e-08 -0.000175496)
(1.11047e-08 1.28217e-08 -0.000175089)
(-8.88863e-09 1.3245e-08 -0.000187523)
(1.44053e-08 -5.74068e-09 -0.000187885)
(9.90248e-09 -7.08108e-09 -0.000188065)
(-7.61189e-09 1.67581e-08 -0.000187689)
(1.0205e-08 -8.66651e-09 -0.000187898)
(-1.04782e-08 1.15833e-08 -0.000187513)
(-1.76442e-08 1.17821e-08 -0.000174826)
(2.59018e-08 -3.76221e-09 -0.000175239)
(2.6035e-08 7.89021e-09 -0.00017483)
(-1.65613e-08 -7.04231e-09 -0.000175247)
(2.13211e-08 -5.86463e-09 -0.000175252)
(-1.29835e-08 1.29751e-08 -0.000174817)
(-1.77425e-08 -7.44474e-09 -0.000175246)
(1.91224e-08 1.11519e-08 -0.000174825)
(9.85692e-09 1.12683e-08 -0.000187657)
(-9.73965e-09 -9.17814e-09 -0.000188015)
(1.91285e-08 6.21591e-09 -0.000187545)
(-4.68071e-09 -1.14899e-08 -0.000187915)
(-8.28968e-09 -1.15663e-08 -0.000188014)
(1.07686e-08 9.99812e-09 -0.000187655)
(-1.10413e-08 -7.84871e-09 -0.000187918)
(1.85697e-08 7.37527e-09 -0.000187534)
(-1.01616e-08 -1.15124e-08 -0.000187546)
(1.52311e-08 6.04615e-09 -0.000187916)
(-8.85438e-09 -1.62879e-08 -0.000187695)
(9.29489e-09 9.97609e-09 -0.00018805)
(9.66896e-09 9.4945e-09 -0.000187909)
(-1.00873e-08 -1.03627e-08 -0.000187545)
(1.13146e-08 9.71894e-09 -0.000188036)
(-8.16792e-09 -1.4899e-08 -0.000187688)
(1.99079e-08 -1.02749e-08 -0.000174832)
(-1.28899e-08 1.01189e-08 -0.000175251)
(1.71224e-08 1.00749e-08 -0.000175255)
(-1.82058e-08 -9.36658e-09 -0.000174845)
(-1.63803e-08 7.76279e-09 -0.000175248)
(2.42745e-08 -7.66179e-09 -0.000174826)
(6.01664e-09 -2.00264e-08 -0.000187702)
(-9.99695e-09 9.89043e-09 -0.000188058)
(-1.28379e-08 8.64824e-09 -0.000187909)
(1.66005e-08 -7.53521e-09 -0.000187553)
(-1.39731e-08 4.30617e-09 -0.000188052)
(6.19246e-09 -1.6061e-08 -0.000187696)
(-8.82598e-09 2.05722e-08 -0.000175138)
(1.02116e-08 -1.17644e-08 -0.000175537)
(1.08111e-08 1.22811e-08 -0.000175499)
(-6.81238e-09 -2.17769e-08 -0.000175099)
(9.69263e-09 -1.31247e-08 -0.000175536)
(-9.5184e-09 1.98766e-08 -0.000175141)
(6.11444e-09 -2.44345e-08 -0.000175106)
(-9.8682e-09 1.29063e-08 -0.000175506)
(8.67802e-09 1.80643e-08 -0.000175093)
(-6.99014e-09 -1.41438e-08 -0.000175492)
(-1.08449e-08 9.22824e-09 -0.000175507)
(6.78552e-09 -2.10952e-08 -0.000175103)
(-7.83554e-09 -1.80669e-08 -0.000175491)
(9.34309e-09 1.7651e-08 -0.000175092)
(-1.40762e-08 9.97039e-09 -0.000187533)
(1.69954e-08 -6.47433e-09 -0.000187916)
(9.13866e-09 -1.08712e-08 -0.000188073)
(-7.18209e-09 1.51077e-08 -0.000187715)
(1.29633e-08 -8.68614e-09 -0.000187911)
(-1.12942e-08 1.06049e-08 -0.000187546)
(-1.75481e-08 9.4759e-09 -0.000174834)
(2.30554e-08 -6.6352e-09 -0.000175259)
(2.00641e-08 9.35039e-09 -0.000174836)
(-1.77339e-08 -7.85257e-09 -0.000175246)
(1.86543e-08 -8.10052e-09 -0.000175248)
(-1.62658e-08 1.00481e-08 -0.000174836)
(-2.25943e-08 -7.20703e-09 -0.000175246)
(2.05571e-08 9.71011e-09 -0.000174832)
(8.97187e-09 1.35198e-08 -0.000187669)
(-1.05665e-08 -8.69692e-09 -0.000188017)
(1.59552e-08 6.61654e-09 -0.000187543)
(-1.03044e-08 -8.42208e-09 -0.000187918)
(-1.03416e-08 -9.69594e-09 -0.000188014)
(7.93756e-09 1.44094e-08 -0.000187667)
(-1.63533e-08 -7.27156e-09 -0.000187902)
(1.26958e-08 8.76594e-09 -0.00018754)
(-1.21414e-08 -8.60489e-09 -0.000187537)
(7.95268e-09 1.00517e-08 -0.000187896)
(-8.17206e-09 -1.47077e-08 -0.000187671)
(1.15117e-08 8.71218e-09 -0.00018802)
(9.65566e-09 1.22139e-08 -0.000187898)
(-1.80226e-08 -5.744e-09 -0.000187526)
(1.23231e-08 1.02464e-08 -0.00018802)
(-6.24067e-09 -1.70165e-08 -0.00018766)
(1.87757e-08 -8.61954e-09 -0.000174821)
(-2.10364e-08 4.91842e-09 -0.00017523)
(1.63107e-08 9.06626e-09 -0.000175252)
(-1.89219e-08 -1.02705e-08 -0.000174831)
(-2.39158e-08 6.3005e-09 -0.000175229)
(1.63324e-08 -1.0041e-08 -0.000174811)
(7.96752e-09 -1.50258e-08 -0.000187692)
(-1.15827e-08 8.03642e-09 -0.000188036)
(-1.8668e-08 6.96899e-09 -0.000187889)
(1.12331e-08 -1.06242e-08 -0.000187518)
(-1.12632e-08 1.10263e-08 -0.000188032)
(5.6313e-09 -1.61477e-08 -0.000187677)
(-8.46111e-09 1.81307e-08 -0.000175132)
(6.64006e-09 -2.05402e-08 -0.000175521)
(1.07034e-08 1.19628e-08 -0.000175489)
(-7.49261e-09 -2.15221e-08 -0.000175083)
(9.14763e-09 -1.79688e-08 -0.000175527)
(-1.01169e-08 1.38254e-08 -0.000175124)
(8.37631e-09 -1.9675e-08 -0.000175102)
(-9.18053e-09 1.4724e-08 -0.000175496)
(9.24227e-09 1.48059e-08 -0.000175091)
(-8.16048e-09 -1.66971e-08 -0.000175485)
(-1.12826e-08 1.42505e-08 -0.000175494)
(9.78809e-09 -1.71419e-08 -0.000175088)
(-1.14964e-08 -1.09288e-08 -0.000175486)
(8.87509e-09 1.57928e-08 -0.000175089)
(-1.28338e-08 9.78988e-09 -0.000187538)
(1.19628e-08 -1.04549e-08 -0.000187896)
(6.76755e-09 -1.64643e-08 -0.000188052)
(-8.38469e-09 9.47973e-09 -0.000187702)
(1.32963e-08 -1.07469e-08 -0.00018789)
(-1.30444e-08 8.02089e-09 -0.000187519)
(-2.32675e-08 7.00461e-09 -0.000174829)
(1.90691e-08 -8.53937e-09 -0.000175233)
(1.55208e-08 9.88344e-09 -0.000174822)
(-2.15034e-08 -6.95949e-09 -0.00017523)
(1.96664e-08 -7.81131e-09 -0.000175231)
(-1.8138e-08 8.88213e-09 -0.000174812)
(-2.3407e-08 -7.55968e-09 -0.000175228)
(1.77657e-08 9.55343e-09 -0.000174808)
(8.17315e-09 1.40811e-08 -0.000187659)
(-1.02285e-08 -1.09632e-08 -0.000188019)
(1.19982e-08 9.0673e-09 -0.000187527)
(-1.27192e-08 -9.36435e-09 -0.000187887)
(-1.13413e-08 -1.08373e-08 -0.000188015)
(8.74348e-09 1.20915e-08 -0.000187656)
(-1.2624e-08 -1.05971e-08 -0.000187886)
(1.34794e-08 7.95645e-09 -0.000187516)
(-1.24623e-08 -7.9088e-09 -0.000187524)
(1.36087e-08 1.12254e-08 -0.000187883)
(-7.22703e-09 -1.29618e-08 -0.000187656)
(9.18677e-09 1.30861e-08 -0.000188007)
(1.71095e-08 9.82957e-09 -0.000187867)
(-1.25385e-08 -8.60622e-09 -0.000187503)
(1.04915e-08 1.03955e-08 -0.000187994)
(-7.1126e-09 -1.16475e-08 -0.00018764)
(1.4661e-08 -1.08063e-08 -0.000174808)
(-2.31145e-08 7.88563e-09 -0.000175228)
(2.42302e-08 7.77637e-09 -0.00017522)
(-1.63495e-08 -8.24374e-09 -0.000174815)
(-2.45925e-08 9.82942e-09 -0.000175224)
(1.31295e-08 -8.74778e-09 -0.000174808)
(7.3588e-09 -1.24036e-08 -0.000187674)
(-1.11236e-08 1.21876e-08 -0.000188029)
(-1.22685e-08 1.01392e-08 -0.000187879)
(1.0104e-08 -8.84764e-09 -0.000187511)
(-1.35426e-08 9.58468e-09 -0.000188022)
(5.77986e-09 -1.17401e-08 -0.00018766)
(-8.95264e-09 1.64476e-08 -0.000175126)
(8.35318e-09 -1.70821e-08 -0.000175519)
(1.0293e-08 1.82718e-08 -0.000175464)
(-9.98186e-09 -1.4746e-08 -0.000175067)
(8.79747e-09 -1.53742e-08 -0.00017552)
(-7.1817e-09 1.504e-08 -0.000175116)
(8.18295e-09 -1.85478e-08 -0.00017509)
(-8.98689e-09 2.07062e-08 -0.000175485)
(5.76564e-09 2.27673e-08 -0.000175082)
(-9.43249e-09 -1.53489e-08 -0.000175478)
(-1.21594e-08 1.61598e-08 -0.000175472)
(8.43407e-09 -1.47953e-08 -0.000175078)
(-1.11617e-08 -2.05397e-08 -0.000175477)
(5.50604e-09 1.68871e-08 -0.000175076)
(-1.14374e-08 9.59458e-09 -0.000187516)
(1.8162e-08 -8.82253e-09 -0.0001879)
(1.00904e-08 -1.36376e-08 -0.000188046)
(-7.9829e-09 1.25739e-08 -0.000187692)
(1.38174e-08 -1.08306e-08 -0.000187886)
(-9.23426e-09 8.59919e-09 -0.000187519)
(-1.82476e-08 9.45488e-09 -0.000174814)
(2.72917e-08 -6.20833e-09 -0.000175236)
(1.62069e-08 8.96822e-09 -0.000174809)
(-2.18718e-08 -7.83006e-09 -0.000175224)
(2.14827e-08 -1.04772e-08 -0.00017522)
(-1.31986e-08 9.5846e-09 -0.000174808)
(-2.19783e-08 -9.55576e-09 -0.000175214)
(1.68552e-08 6.5892e-09 -0.000174803)
(5.94323e-09 1.51419e-08 -0.000187653)
(-1.12912e-08 -1.05199e-08 -0.000188005)
(1.38529e-08 7.91678e-09 -0.000187516)
(-1.7862e-08 -8.39017e-09 -0.000187891)
(-1.13446e-08 -1.3437e-08 -0.000187995)
(7.03312e-09 1.11711e-08 -0.000187641)
(-1.69026e-08 -9.1874e-09 -0.000187877)
(1.02402e-08 8.97929e-09 -0.00018751)
(-9.4527e-09 -1.07609e-08 -0.000187489)
(1.33678e-08 1.01911e-08 -0.000187861)
(-6.73121e-09 -1.51398e-08 -0.000187631)
(1.1935e-08 7.38908e-09 -0.000187992)
(1.70781e-08 9.4327e-09 -0.000187871)
(-1.26469e-08 -8.21129e-09 -0.00018749)
(1.05418e-08 1.31854e-08 -0.000188007)
(-4.91036e-09 -1.84195e-08 -0.000187634)
(1.33544e-08 -9.90912e-09 -0.000174799)
(-2.16746e-08 1.03257e-08 -0.000175208)
(2.32834e-08 9.28219e-09 -0.000175209)
(-1.56704e-08 -9.51047e-09 -0.000174788)
(-1.66646e-08 1.33474e-08 -0.000175211)
(1.7904e-08 -7.26583e-09 -0.000174791)
(7.22309e-09 -1.01093e-08 -0.000187654)
(-1.17026e-08 1.06618e-08 -0.000188006)
(-1.0249e-08 1.16035e-08 -0.00018788)
(1.39216e-08 -6.74255e-09 -0.000187497)
(-1.18458e-08 1.25009e-08 -0.000188018)
(7.01366e-09 -1.35694e-08 -0.000187649)
(-6.46454e-09 1.94939e-08 -0.000175112)
(1.01076e-08 -1.3514e-08 -0.000175505)
(1.06828e-08 1.79669e-08 -0.000175471)
(-7.80631e-09 -1.71785e-08 -0.000175051)
(1.2549e-08 -9.70389e-09 -0.000175506)
(-3.74759e-09 2.01234e-08 -0.000175099)
(6.79496e-09 -1.65857e-08 -0.000175073)
(-1.00241e-08 1.81925e-08 -0.000175461)
(6.79647e-09 1.34988e-08 -0.000175068)
(-1.04139e-08 -1.96565e-08 -0.000175465)
(-1.01471e-08 1.84234e-08 -0.000175472)
(7.32254e-09 -1.48684e-08 -0.000175061)
(-1.19352e-08 -1.63973e-08 -0.000175476)
(6.96528e-09 1.37021e-08 -0.000175067)
(-1.44104e-08 4.95225e-09 -0.000187508)
(1.00103e-08 -9.9468e-09 -0.000187879)
(1.32628e-08 -9.60257e-09 -0.000188036)
(-5.27681e-09 1.70847e-08 -0.000187679)
(9.3144e-09 -1.22269e-08 -0.000187884)
(-1.48359e-08 5.80077e-09 -0.000187505)
(-1.89103e-08 7.02244e-09 -0.000174797)
(1.87866e-08 -1.15055e-08 -0.000175212)
(1.77029e-08 6.58551e-09 -0.000174793)
(-1.88648e-08 -1.14834e-08 -0.000175202)
(1.46065e-08 -1.31278e-08 -0.000175213)
(-2.07831e-08 6.84169e-09 -0.000174792)
(-1.40601e-08 -1.4411e-08 -0.000175208)
(1.78006e-08 5.56737e-09 -0.000174786)
(4.9738e-09 1.30285e-08 -0.000187635)
(-1.32828e-08 -9.33799e-09 -0.000187992)
(1.27134e-08 7.3192e-09 -0.000187493)
(-1.22046e-08 -1.18251e-08 -0.000187868)
(-1.23398e-08 -1.16671e-08 -0.000188011)
(6.56595e-09 1.28125e-08 -0.000187638)
(-9.8e-09 -1.31894e-08 -0.000187871)
(1.41692e-08 6.55791e-09 -0.000187491)
(-8.11929e-09 -9.00523e-09 -0.000187495)
(1.52306e-08 8.41968e-09 -0.00018786)
(-9.14452e-09 -8.71184e-09 -0.00018764)
(7.58215e-09 1.60962e-08 -0.000187994)
(4.85165e-09 1.24644e-08 -0.000187876)
(-9.88594e-09 -9.89261e-09 -0.000187486)
(1.19554e-08 4.74991e-09 -0.000187994)
(-1.00206e-08 -9.93919e-09 -0.000187627)
(1.8975e-08 -6.7831e-09 -0.000174791)
(-1.6568e-08 1.0683e-08 -0.000175202)
(1.7885e-08 8.73717e-09 -0.000175211)
(-1.64162e-08 -9.88602e-09 -0.000174783)
(-1.83273e-08 7.06385e-09 -0.000175216)
(1.90235e-08 -7.24355e-09 -0.000174787)
(7.33454e-09 -1.18588e-08 -0.000187661)
(-1.06435e-08 1.23613e-08 -0.000188013)
(-8.20811e-09 1.06847e-08 -0.000187884)
(1.33348e-08 -8.5425e-09 -0.000187496)
(-1.0843e-08 9.33568e-09 -0.000188022)
(6.25122e-09 -1.54907e-08 -0.000187656)
(-4.72803e-09 2.12617e-08 -0.000175096)
(1.00646e-08 -1.35807e-08 -0.000175498)
(9.66011e-09 1.27952e-08 -0.000175461)
(-9.34332e-09 -1.6129e-08 -0.000175053)
(9.64619e-09 -1.29035e-08 -0.000175494)
(-8.14294e-09 1.82357e-08 -0.000175093)
(7.6718e-09 -1.39717e-08 -0.000175068)
(-9.484e-09 1.85691e-08 -0.000175468)
(6.22535e-09 1.51503e-08 -0.000175078)
(-9.81644e-09 -1.4678e-08 -0.000175468)
(-8.20767e-09 1.71637e-08 -0.000175472)
(8.93204e-09 -1.64226e-08 -0.000175061)
(-1.0175e-08 -1.46703e-08 -0.000175474)
(8.45256e-09 1.59895e-08 -0.000175066)
(-1.46105e-08 5.15265e-09 -0.000187506)
(1.0372e-08 -1.03477e-08 -0.000187872)
(9.66523e-09 -8.41102e-09 -0.000188029)
(-7.01232e-09 1.52837e-08 -0.000187667)
(8.52711e-09 -1.00453e-08 -0.000187877)
(-1.38267e-08 8.14468e-09 -0.000187491)
(-2.29689e-08 5.41123e-09 -0.000174799)
(1.8175e-08 -1.08433e-08 -0.000175205)
(2.55294e-08 3.91641e-09 -0.000174789)
(-1.30708e-08 -1.25377e-08 -0.000175206)
(2.01308e-08 -7.23779e-09 -0.000175212)
(-1.89435e-08 8.86367e-09 -0.000174786)
(-1.07184e-08 -1.12619e-08 -0.000175212)
(2.47497e-08 5.49386e-09 -0.000174789)
(5.8881e-09 1.24371e-08 -0.000187654)
(-1.2133e-08 -8.81505e-09 -0.000188006)
(2.05762e-08 2.43961e-09 -0.0001875)
(-7.79279e-09 -1.30292e-08 -0.000187869)
(-9.04672e-09 -1.2207e-08 -0.000188009)
(8.26114e-09 1.28149e-08 -0.000187638)
(-4.34334e-09 -1.44864e-08 -0.000187866)
(1.76547e-08 6.41766e-09 -0.000187493)
(-1.89089e-08 -5.9802e-09 -0.000187505)
(1.00869e-08 9.32754e-09 -0.000187891)
(-6.7477e-09 -1.74264e-08 -0.000187632)
(7.81217e-09 1.29147e-08 -0.000188003)
(9.04408e-09 9.41912e-09 -0.00018791)
(-1.3072e-08 -8.28995e-09 -0.000187524)
(8.17685e-09 1.28558e-08 -0.000188007)
(-1.06106e-08 -1.1127e-08 -0.000187642)
(1.78692e-08 -9.96825e-09 -0.000174799)
(-1.97504e-08 5.83587e-09 -0.000175229)
(1.83731e-08 8.95274e-09 -0.000175241)
(-1.28118e-08 -1.27235e-08 -0.000174819)
(-1.62309e-08 9.16099e-09 -0.000175249)
(1.70163e-08 -1.01952e-08 -0.00017482)
(8.94906e-09 -1.18792e-08 -0.000187665)
(-9.52446e-09 1.13129e-08 -0.000188027)
(-4.77989e-09 1.21505e-08 -0.000187917)
(1.8335e-08 -4.54832e-09 -0.000187533)
(-9.62108e-09 1.07856e-08 -0.000188025)
(9.26114e-09 -1.25295e-08 -0.000187669)
(-8.53447e-09 1.92797e-08 -0.000175097)
(6.76969e-09 -1.82579e-08 -0.000175497)
(7.15835e-09 1.87529e-08 -0.000175471)
(-1.1749e-08 -1.5422e-08 -0.000175063)
(7.91869e-09 -1.68241e-08 -0.000175501)
(-1.09828e-08 1.5296e-08 -0.000175104)
(1.08872e-08 -1.17987e-08 -0.00017507)
(-6.76041e-09 1.87243e-08 -0.000175479)
(7.39272e-09 1.92019e-08 -0.000175071)
(-7.64419e-09 -1.28159e-08 -0.000175464)
(-8.82338e-09 1.29789e-08 -0.000175483)
(1.04754e-08 -1.58483e-08 -0.000175074)
(-8.42971e-09 -1.57546e-08 -0.000175463)
(9.54417e-09 1.65336e-08 -0.000175064)
(-1.56713e-08 7.98844e-09 -0.000187507)
(1.17738e-08 -8.04533e-09 -0.000187885)
(8.31432e-09 -1.0914e-08 -0.000188035)
(-8.44558e-09 1.30357e-08 -0.000187673)
(1.43602e-08 -6.70195e-09 -0.00018789)
(-1.28521e-08 9.14247e-09 -0.000187518)
(-1.72842e-08 1.15475e-08 -0.000174794)
(2.10493e-08 -6.56204e-09 -0.000175221)
(2.44271e-08 6.30326e-09 -0.000174794)
(-1.7826e-08 -6.63878e-09 -0.000175223)
(2.20896e-08 -7.30282e-09 -0.000175227)
(-1.92723e-08 9.36689e-09 -0.000174808)
(-2.26605e-08 -7.22149e-09 -0.00017523)
(1.5258e-08 1.09357e-08 -0.000174807)
(7.54422e-09 1.3299e-08 -0.000187646)
(-8.53787e-09 -1.12176e-08 -0.000187995)
(2.34923e-08 3.1823e-09 -0.000187496)
(-8.76343e-09 -1.13378e-08 -0.000187867)
(-9.28192e-09 -1.08814e-08 -0.000187987)
(1.05913e-08 1.03689e-08 -0.000187629)
(-1.23388e-08 -8.87058e-09 -0.000187873)
(1.54982e-08 7.77942e-09 -0.000187498)
(-1.2381e-08 -7.04595e-09 -0.000187535)
(1.45234e-08 7.98213e-09 -0.000187902)
(-8.5989e-09 -1.13851e-08 -0.000187645)
(1.07271e-08 1.1748e-08 -0.000188007)
(1.0946e-08 8.34227e-09 -0.000187908)
(-1.27882e-08 -7.53351e-09 -0.000187529)
(1.14133e-08 9.61801e-09 -0.000188014)
(-6.86317e-09 -1.66893e-08 -0.000187646)
(2.10857e-08 -7.1807e-09 -0.000174837)
(-2.04257e-08 7.8941e-09 -0.000175247)
(2.18523e-08 7.97997e-09 -0.000175242)
(-1.7912e-08 -8.61815e-09 -0.000174817)
(-1.77184e-08 8.99624e-09 -0.000175259)
(1.57764e-08 -9.58098e-09 -0.000174836)
(9.50245e-09 -1.12042e-08 -0.000187665)
(-8.80461e-09 1.38562e-08 -0.000188005)
(-1.48749e-08 7.9191e-09 -0.000187914)
(9.16593e-09 -9.71519e-09 -0.00018753)
(-1.08342e-08 8.2811e-09 -0.000188012)
(6.95096e-09 -1.23409e-08 -0.000187645)
(-8.57096e-09 1.70651e-08 -0.000175099)
(9.46908e-09 -1.56357e-08 -0.000175487)
(1.11713e-08 1.2617e-08 -0.000175475)
(-6.93841e-09 -1.86794e-08 -0.000175059)
(8.85746e-09 -1.49482e-08 -0.000175491)
(-9.78599e-09 1.39226e-08 -0.00017509)
(6.20301e-09 -2.22542e-08 -0.000175077)
(-9.74718e-09 1.58849e-08 -0.000175468)
(7.89854e-09 1.78791e-08 -0.000175056)
(-5.66724e-09 -1.88842e-08 -0.000175449)
(-1.07943e-08 1.51207e-08 -0.000175472)