/*--------------------------------*- C++ -*----------------------------------*\
| =========                 |                                                 |
| \\      /  F ield         | OpenFOAM: The Open Source CFD Toolbox           |
|  \\    /   O peration     | Version:  2206                                  |
|   \\  /    A nd           | Website:  www.openfoam.com                      |
|    \\/     M anipulation  |                                                 |
\*---------------------------------------------------------------------------*/
FoamFile
{
    version     2.0;
    format      ascii;
    arch        "LSB;label=32;scalar=64";
    class       surfaceScalarField;
    location    "0.2";
    object      phi;
}
// * * * * * * * * * * * * * * * * * * * * * * * * * * * * * * * * * * * * * //

dimensions      [0 3 -1 0 0 0 0];

oriented        oriented;

internalField   nonuniform List<scalar> 
198849
(
-1.26387e-07
9.67994e-09
8.8905e-09
5.40538e-10
2.21139e-10
1.07055e-07
-2.58658e-08
1.65008e-09
-8.89221e-09
-5.21803e-09
1.09032e-07
1.87917e-09
1.44112e-09
7.90917e-10
2.88304e-09
2.1159e-09
3.60436e-09
1.38833e-09
-2.70677e-08
-3.02497e-08
-2.74918e-08
-2.58624e-08
1.64916e-09
-8.89212e-09
-5.20249e-09
1.0901e-07
1.87782e-09
1.44e-09
7.90314e-10
2.88122e-09
2.11582e-09
3.60394e-09
1.38725e-09
-3.02459e-08
-2.70645e-08
-2.74883e-08
-2.66573e-08
-9.23391e-10
-1.66106e-09
1.62e-09
1.97339e-09
2.56484e-08
-3.58257e-11
-4.81353e-11
-1.07081e-07
3.97738e-11
3.96155e-11
1.07086e-07
-1.05212e-07
-4.4573e-11
4.65832e-11
-1.10041e-11
1.05249e-07
2.65836e-11
3.59654e-11
-1.63402e-11
-6.83903e-11
3.23066e-11
2.1037e-11
-5.90058e-11
-1.06091e-07
-5.09628e-11
4e-11
-7.49511e-12
1.0612e-07
1.26321e-11
3.93694e-11
-8.97477e-12
-5.12563e-12
6.26665e-12
-3.04468e-11
-2.47138e-11
-2.61565e-08
3.58225e-11
5.06045e-11
3.17619e-11
1.48913e-11
2.60234e-08
8.55147e-11
9.39216e-11
-1.06942e-07
-4.63997e-11
-4.53439e-11
1.06854e-07
-1.05213e-07
-1.34842e-11
-9.39915e-11
-5.5778e-11
1.05143e-07
5.89442e-11
5.56998e-11
-2.27578e-12
-2.96798e-11
8.88931e-11
8.55002e-11
-2.38183e-11
-1.06076e-07
-1.7393e-11
-8.91978e-11
-5.48527e-11
1.06005e-07
4.56041e-11
6.01813e-11
7.39949e-12
2.52339e-11
5.82057e-11
2.76025e-11
7.98944e-12
-2.61663e-08
3.97874e-12
1.72396e-11
7.62473e-11
5.79142e-11
2.60109e-08
1.60567e-10
1.65785e-10
-1.06402e-07
-7.94754e-11
-7.65605e-11
1.06232e-07
-1.04759e-07
-2.93268e-14
-1.65998e-10
-8.59559e-11
1.04603e-07
7.15675e-11
7.33456e-11
1.32443e-11
7.05328e-12
1.17831e-10
1.21894e-10
3.47983e-12
-1.05618e-07
-3.64029e-12
-1.63119e-10
-8.26385e-11
1.0546e-07
6.01413e-11
7.72438e-11
1.95584e-11
5.97381e-11
8.97341e-11
6.71072e-11
3.41285e-11
-2.60656e-08
-1.46084e-11
3.99337e-12
9.43783e-11
7.76676e-11
2.59041e-08
3.96008e-11
3.71831e-11
-1.05883e-07
-1.49639e-11
-1.51668e-11
1.05836e-07
-1.04239e-07
-2.49539e-11
-3.76704e-11
-2.43118e-11
1.04181e-07
4.02439e-11
4.96022e-11
-1.56104e-11
-3.7852e-11
7.29083e-11
7.45918e-11
-3.88749e-11
-1.05092e-07
-2.99807e-11
-4.09566e-11
-2.47157e-11
1.05032e-07
2.63835e-11
5.26339e-11
-2.56844e-12
2.03931e-11
4.39687e-11
1.7908e-11
-2.58537e-12
-2.59611e-08
1.61481e-11
3.05046e-11
6.09684e-11
4.52518e-11
2.58083e-08
-1.65069e-11
-1.70681e-11
-1.0583e-07
8.66763e-12
8.74244e-12
1.05847e-07
-1.04136e-07
-3.94897e-11
1.69058e-11
3.71051e-12
1.04137e-07
2.56697e-11
3.78885e-11
-2.19586e-11
-5.95871e-11
4.8774e-11
4.9369e-11
-6.21272e-11
-1.04988e-07
-4.41096e-11
1.57822e-11
5.80755e-12
1.0499e-07
1.24378e-11
4.15765e-11
-1.45575e-11
1.85646e-12
1.61032e-11
-9.25424e-12
-2.80206e-11
-2.59463e-08
3.06096e-11
4.46055e-11
4.38016e-11
2.75648e-11
2.57997e-08
-7.75226e-12
-5.75257e-12
-1.05886e-07
2.7366e-12
4.12604e-12
1.05892e-07
-1.04148e-07
-3.91623e-11
5.27125e-12
2.01566e-12
1.04149e-07
2.61354e-11
3.86344e-11
-2.69128e-11
-5.62244e-11
5.24391e-11
5.30641e-11
-5.63341e-11
-1.05e-07
-4.37356e-11
7.02728e-12
3.95734e-12
1.05001e-07
1.23302e-11
4.20947e-11
-1.48271e-11
4.22032e-12
1.95845e-11
-6.73053e-12
-2.4987e-11
-2.59484e-08
3.02602e-11
4.42268e-11
4.43324e-11
2.80053e-11
2.58015e-08
-1.88112e-12
1.7113e-13
-1.059e-07
-4.10195e-13
1.36812e-12
1.05901e-07
-1.0415e-07
-3.83882e-11
-4.0141e-13
-1.7152e-13
1.04148e-07
2.61843e-11
3.89674e-11
-2.17141e-11
-5.45798e-11
5.40486e-11
5.51015e-11
-5.74914e-11
-1.05002e-07
-4.27326e-11
1.16966e-12
7.66635e-13
1.05002e-07
1.31606e-11
4.29333e-11
-1.41325e-11
5.51492e-12
2.18117e-11
-5.09729e-12
-2.31452e-11
-2.59479e-08
2.94146e-11
4.32101e-11
4.52813e-11
2.89668e-11
2.5801e-08
-1.27911e-12
1.20754e-12
-1.05901e-07
-1.06781e-12
1.1439e-12
1.05901e-07
-1.0415e-07
-3.82215e-11
-1.71805e-12
-6.91122e-13
1.0415e-07
2.68573e-11
3.93856e-11
-2.63231e-11
-5.44195e-11
5.43245e-11
5.53411e-11
-5.47966e-11
-1.05002e-07
-4.25661e-11
5.38121e-13
1.48849e-13
1.05001e-07
1.33201e-11
4.30536e-11
-1.40173e-11
5.64752e-12
2.20679e-11
-4.91331e-12
-2.29612e-11
-2.59477e-08
2.92709e-11
4.30489e-11
4.54146e-11
2.9119e-11
2.58009e-08
-1.54551e-12
1.39854e-12
-1.05901e-07
-1.36738e-12
1.35003e-12
1.05901e-07
-1.0415e-07
-3.82285e-11
-1.71563e-12
-4.52942e-13
1.04148e-07
2.63302e-11
3.90463e-11
-2.16486e-11
-5.44553e-11
5.43113e-11
5.54056e-11
-5.74035e-11
-1.05002e-07
-4.2537e-11
6.88715e-13
6.78562e-14
1.05001e-07
1.33593e-11
4.30368e-11
-1.4042e-11
5.62286e-12
2.2108e-11
-4.89387e-12
-2.30051e-11
-2.59477e-08
2.925e-11
4.3021e-11
4.54552e-11
2.91552e-11
2.58008e-08
-1.98149e-12
1.71524e-12
-1.05901e-07
-1.87073e-12
1.52203e-12
1.05902e-07
-1.0415e-07
-3.81775e-11
-2.39328e-12
-6.49153e-13
1.0415e-07
2.69435e-11
3.93593e-11
-2.64246e-11
-5.45571e-11
5.45141e-11
5.55445e-11
-5.49255e-11
-1.05002e-07
-4.25082e-11
9.71515e-13
-8.49496e-14
1.05001e-07
1.33954e-11
4.29871e-11
-1.41326e-11
5.57846e-12
2.21195e-11
-4.92136e-12
-2.3121e-11
-2.59478e-08
2.92409e-11
4.29838e-11
4.55363e-11
2.918e-11
2.58008e-08
-4.75756e-12
2.75455e-12
-1.05901e-07
-6.92311e-12
5.42824e-12
1.05904e-07
-1.0415e-07
-3.86069e-11
-9.50587e-12
1.3187e-11
1.04147e-07
2.67992e-11
3.90474e-11
-2.72313e-11
-5.48621e-11
5.45442e-11
5.55672e-11
-5.53163e-11
-1.04993e-07
-4.24591e-11
-1.03468e-10
1.75815e-10
1.34603e-11
3.93358e-11
-1.31238e-11
7.529e-12
2.18822e-11
-5.2034e-12
-2.26134e-11
1.04922e-07
-2.59479e-08
2.96118e-11
4.24181e-11
4.56845e-11
2.90997e-11
2.5801e-08
-2.36507e-09
-2.41236e-09
2.66597e-08
-2.72714e-08
2.86587e-09
2.52326e-09
-8.40176e-11
2.58318e-08
-3.11611e-08
3.16851e-09
-1.20224e-10
2.36707e-09
-8.48528e-11
2.58336e-08
-3.11617e-08
3.16684e-09
-1.2095e-10
-2.4118e-09
2.66601e-08
-2.72712e-08
2.8466e-09
2.54336e-09
1.34354e-11
2.5867e-08
-3.1211e-08
3.04003e-09
-1.21848e-10
-8.43014e-11
2.36693e-09
2.58293e-08
-3.11577e-08
-1.202e-10
3.16592e-09
-9.02659e-10
-9.66988e-10
-3.11076e-08
-3.04796e-08
-3.09882e-08
-3.0988e-08
-2.63364e-10
-1.09838e-09
8.45964e-10
-2.53507e-10
-1.121e-09
8.65978e-10
-1.31449e-11
1.26389e-07
-9.0773e-10
-9.66338e-10
-3.11076e-08
-3.048e-08
-3.09883e-08
-3.0988e-08
-2.63719e-10
-1.0982e-09
8.4501e-10
-2.5254e-10
-1.12038e-09
8.6697e-10
-1.34737e-11
1.26368e-07
-9.01623e-10
-9.60808e-10
-3.11046e-08
-3.04764e-08
-3.09845e-08
-3.09855e-08
-2.6383e-10
-1.09871e-09
8.45207e-10
-2.53322e-10
-1.12072e-09
8.66427e-10
8.39153e-11
-1.36065e-11
1.26375e-07
-9.02269e-10
-9.67215e-10
-3.11049e-08
-3.0477e-08
-3.09845e-08
-3.0986e-08
-2.50888e-10
-1.09815e-09
8.46757e-10
-2.65414e-10
-1.12123e-09
8.65457e-10
-3.12109e-08
3.04224e-09
-1.22101e-10
2.36276e-09
2.5828e-08
-3.11561e-08
-1.20758e-10
3.17007e-09
-2.41048e-09
2.66561e-08
-2.72676e-08
2.84576e-09
2.54317e-09
-3.12075e-08
-1.20997e-10
3.04219e-09
2.41442e-09
2.58654e-08
-3.12101e-08
-1.21603e-10
3.0383e-09
-2.72683e-08
2.87842e-09
2.50977e-09
-9.23584e-10
-1.6607e-09
1.61576e-09
1.97784e-09
2.56504e-08
-1.4951e-11
-2.12448e-11
2.61466e-08
-2.59667e-08
-7.09369e-11
-7.27085e-11
-4.81734e-09
1.1048e-07
1.28307e-09
1.53819e-09
9.64513e-10
2.88111e-09
2.12514e-09
3.60248e-09
1.38683e-09
-2.7165e-08
-3.02394e-08
-2.74518e-08
9.23389e-10
-9.68381e-09
-4.82413e-09
1.10503e-07
1.29314e-09
1.53948e-09
9.69471e-10
2.88056e-09
2.11408e-09
3.60074e-09
1.38097e-09
-2.71659e-08
-3.02422e-08
-2.74553e-08
1.07069e-07
-6.29657e-10
-1.06768e-07
-6.71798e-10
-8.83049e-11
-2.62383e-11
4.02455e-11
3.14057e-10
7.42801e-11
2.29788e-10
4.41798e-10
1.51065e-11
1.07095e-07
-6.29139e-10
-1.06792e-07
-6.73699e-10
-8.8152e-11
-2.67254e-11
4.14917e-11
3.1344e-10
7.42224e-11
2.28222e-10
4.42027e-10
1.60074e-09
1.98464e-09
2.56482e-08
-2.1582e-11
2.6147e-08
-2.59667e-08
-7.04549e-11
-7.31917e-11
-5.22028e-09
1.09041e-07
1.9011e-09
1.43059e-09
7.84657e-10
2.88155e-09
2.10451e-09
3.60212e-09
1.38155e-09
-2.70665e-08
-3.02511e-08
-2.74928e-08
9.24086e-10
-9.67401e-09
-4.81861e-09
1.10465e-07
1.29357e-09
1.53911e-09
9.69061e-10
2.88091e-09
2.1135e-09
3.60013e-09
1.38138e-09
-3.02357e-08
-2.716e-08
-2.7449e-08
1.05221e-07
2.13662e-10
-1.05099e-07
5.7805e-11
-8.3877e-11
-4.26209e-11
-1.66163e-11
-4.43085e-11
-9.33751e-11
-3.50245e-11
-9.93961e-11
1.09939e-11
1.0619e-07
2.07577e-10
-1.06071e-07
7.36036e-11
-7.79237e-11
-3.90149e-11
-2.18767e-11
-6.54313e-11
-9.23769e-11
-3.59995e-11
-7.86571e-11
-9.67423e-09
-4.81993e-09
1.1046e-07
1.28308e-09
1.53769e-09
9.64129e-10
2.88217e-09
2.12478e-09
1.38771e-09
3.6023e-09
-3.0235e-08
-2.71603e-08
-2.74474e-08
2.12943e-10
-1.05089e-07
5.79067e-11
-8.43413e-11
-4.19074e-11
-1.69976e-11
-4.44942e-11
-9.34396e-11
-9.9016e-11
-3.48596e-11
1.10858e-11
1.06187e-07
2.06621e-10
-1.06069e-07
7.35549e-11
-7.78522e-11
-3.82692e-11
-2.18256e-11
-6.53107e-11
-9.21499e-11
-3.58467e-11
-7.85753e-11
1.60067e-09
1.98412e-09
2.56446e-08
-2.38142e-11
2.61517e-08
-2.5972e-08
-8.1068e-11
-6.38388e-11
-8.89375e-09
-5.21349e-09
1.09037e-07
1.90138e-09
1.42937e-09
7.83832e-10
2.88017e-09
2.10478e-09
1.38089e-09
3.60224e-09
-3.02496e-08
-2.70665e-08
-2.74923e-08
-5.71577e-10
-1.05772e-07
-7.4438e-10
-9.3149e-11
-3.0743e-11
4.25695e-11
3.35103e-10
7.17322e-11
4.18628e-10
2.29183e-10
2.38562e-11
1.06123e-07
-5.71673e-10
-1.05803e-07
-7.45592e-10
-9.28659e-11
-3.16847e-11
4.38709e-11
3.34757e-10
7.16886e-11
2.28131e-10
4.19129e-10
-2.59773e-08
-8.1063e-11
-6.32344e-11
4.42604e-11
4.43974e-11
2.3455e-11
2.26521e-11
2.60118e-08
-4.52956e-11
-4.7777e-11
2.61556e-08
-2.60176e-08
-2.20173e-11
-2.28919e-11
-5.78694e-12
1.07099e-07
8.76774e-12
3.14727e-11
-1.86869e-12
1.59334e-11
5.88527e-12
-5.40315e-11
-2.20913e-11
-4.40266e-11
3.61331e-11
-5.41953e-12
1.07124e-07
9.24818e-12
3.22224e-11
-5.81521e-12
1.59928e-11
5.80529e-12
-5.44542e-11
-1.8974e-11
1.07054e-07
-6.89553e-11
-1.07088e-07
-5.48947e-11
-1.40123e-11
6.05143e-12
3.87343e-11
-6.53796e-12
1.92201e-12
5.1014e-11
3.54975e-11
4.55955e-11
1.0708e-07
-6.81649e-11
-1.07119e-07
-5.54469e-11
-1.45703e-11
6.71597e-12
4.50693e-11
-6.65335e-12
1.63786e-12
4.85455e-11
3.56928e-11
2.27384e-11
2.3509e-11
2.60122e-08
-4.77125e-11
2.61568e-08
-2.60184e-08
-2.1594e-11
-2.3471e-11
-1.0697e-11
1.0526e-07
2.73746e-11
3.56118e-11
-2.28707e-11
-6.89812e-11
3.23295e-11
2.12235e-11
-5.65598e-11
-3.58547e-11
4.34047e-11
-8.58099e-12
1.06225e-07
2.46744e-11
2.66066e-11
-1.72981e-11
-4.82791e-11
3.15324e-11
4.17283e-12
-5.55202e-11
1.05222e-07
-7.07287e-11
-1.05254e-07
-5.21429e-11
-1.77893e-11
-1.22689e-11
5.43423e-11
7.73974e-11
-3.42429e-11
8.30859e-11
-4.25432e-11
3.85354e-11
1.06189e-07
-7.23604e-11
-1.06218e-07
-5.4906e-11
-9.27127e-12
-7.27855e-12
5.1852e-11
5.66304e-11
-3.35606e-11
8.18178e-11
-2.16811e-11
4.2414e-11
-8.61099e-12
1.06223e-07
2.42465e-11
2.65922e-11
-1.66102e-11
-4.82335e-11
3.17532e-11
-5.55752e-11
4.24034e-12
-7.20291e-11
-1.05243e-07
-5.24315e-11
-1.87945e-11
-1.10082e-11
5.21846e-11
7.70877e-11
-3.47471e-11
-4.29687e-11
8.55124e-11
3.82018e-11
1.06185e-07
-7.21847e-11
-1.06216e-07
-5.47673e-11
-9.14928e-12
-6.89961e-12
5.16524e-11
5.70185e-11
-3.38548e-11
8.27583e-11
-2.1901e-11
3.13795e-11
1.58286e-11
2.60177e-08
-5.21728e-11
2.61605e-08
-2.60237e-08
-3.03321e-11
-1.58148e-11
4.0086e-11
-8.48692e-12
1.06153e-07
1.34186e-11
3.9485e-11
-9.54676e-12
-4.76337e-12
5.94199e-12
-2.43929e-11
-3.10959e-11
-6.88154e-11
-1.0611e-07
-5.13054e-11
-2.29168e-11
1.60751e-12
4.14225e-11
1.76354e-11
-4.77329e-13
1.39934e-11
5.13839e-11
5.20449e-11
1.0611e-07
-6.9463e-11
-1.06144e-07
-5.17515e-11
-2.26665e-11
1.29632e-12
4.14243e-11
1.76127e-11
-2.51158e-13
5.11522e-11
1.39304e-11
-2.60296e-08
-3.08697e-11
-1.55746e-11
8.62177e-12
1.29044e-11
6.78748e-11
6.65862e-11
2.59996e-08
-7.26394e-11
-7.3597e-11
2.60548e-08
-2.59232e-08
8.6008e-12
6.0893e-12
-5.93182e-11
1.06981e-07
4.32972e-11
5.4168e-11
1.2536e-11
4.71683e-11
5.74959e-11
1.86892e-12
9.80963e-12
-8.97856e-12
-8.75024e-11
-5.94004e-11
1.07009e-07
4.46781e-11
5.43284e-11
1.24521e-11
4.70406e-11
5.74469e-11
1.42692e-12
9.5706e-12
1.06592e-07
-1.67877e-10
-1.06744e-07
-9.69401e-11
8.62114e-12
2.70994e-11
6.09459e-11
4.15957e-11
3.61024e-11
9.04031e-11
8.00504e-11
7.30361e-11
1.0662e-07
-1.67572e-10
-1.06773e-07
-9.68322e-11
8.4477e-12
2.6882e-11
6.14707e-11
4.11964e-11
3.61128e-11
8.96624e-11
8.05051e-11
6.66119e-11
6.71546e-11
2.60005e-08
-7.39436e-11
2.60559e-08
-2.59237e-08
8.7932e-12
6.00385e-12
-5.58021e-11
1.05154e-07
5.80378e-11
5.54194e-11
-3.1326e-12
-2.99041e-11
8.83398e-11
8.52548e-11
-2.36593e-11
-3.8914e-12
-9.30447e-11
-5.94198e-11
1.06118e-07
5.60434e-11
4.67212e-11
1.84899e-12
-7.72411e-12
8.75258e-11
6.52065e-11
-2.26447e-11
1.04771e-07
-1.73768e-10
-1.04919e-07
-9.16523e-11
9.96009e-13
1.08046e-11
7.53477e-11
1.21359e-10
6.41897e-12
1.18561e-10
6.73881e-12
6.60315e-11
1.05734e-07
-1.73897e-10
-1.05883e-07
-9.73043e-11
1.56127e-11
1.52937e-11
7.35215e-11
1.01245e-10
7.39483e-12
1.17964e-10
2.34772e-11
-9.40417e-11
-5.94406e-11
1.06116e-07
5.5602e-11
4.67024e-11
1.99316e-12
-7.95501e-12
8.82082e-11
-2.32268e-11
6.56031e-11
-1.74387e-10
-1.04908e-07
-9.14741e-11
5.28748e-13
1.14291e-11
7.46021e-11
1.21489e-10
6.55777e-12
6.8666e-12
1.19077e-10
6.59829e-11
1.05731e-07
-1.74336e-10
-1.0588e-07
-9.74165e-11
1.5486e-11
1.5415e-11
7.32374e-11
1.01667e-10
7.28138e-12
1.1879e-10
2.33307e-11
7.49635e-11
5.87922e-11
2.60055e-08
-7.77854e-11
2.60595e-08
-2.593e-08
1.3842e-12
1.29121e-11
-8.85799e-11
-5.51606e-11
1.06039e-07
4.58942e-11
6.02942e-11
7.32942e-12
2.54301e-11
5.76542e-11
8.14688e-12
2.72646e-11
-1.69602e-10
-1.05769e-07
-8.79478e-11
-3.137e-12
2.09295e-11
6.29644e-11
6.60237e-11
3.45251e-11
5.82258e-11
9.05552e-11
7.83905e-11
1.05653e-07
-1.69419e-10
-1.05804e-07
-8.80338e-11
-3.43722e-12
2.11203e-11
6.29955e-11
6.59817e-11
3.46134e-11
8.98869e-11
5.84227e-11
-2.59352e-08
9.99004e-13
1.30432e-11
-7.80038e-12
-4.58411e-13
8.69143e-11
8.38383e-11
2.58923e-08
-5.38217e-11
-5.60571e-11
2.59497e-08
-2.58101e-08
-1.37016e-11
-1.60367e-11
-9.10414e-11
1.06431e-07
5.79791e-11
7.20177e-11
2.55272e-11
8.15028e-11
8.94424e-11
4.25653e-11
3.55106e-11
7.68357e-12
-1.60512e-10
-9.03559e-11
1.0646e-07
5.85391e-11
7.24733e-11
2.21739e-11
8.1783e-11
8.87763e-11
4.19181e-11
3.79604e-11
1.06062e-07
-7.21346e-11
-1.06153e-07
-4.27013e-11
-1.39846e-11
8.36155e-12
3.25177e-11
6.21163e-12
9.56378e-12
5.73882e-11
5.2775e-11
5.42113e-11
1.0609e-07
-7.24565e-11
-1.06184e-07
-4.24147e-11
-1.3726e-11
8.31095e-12
3.76135e-11
5.77814e-12
9.64862e-12
5.42073e-11
5.32613e-11
8.59954e-11
8.46992e-11
2.58929e-08
-5.66971e-11
2.59512e-08
-2.58112e-08
-1.27855e-11
-1.62615e-11
-8.63861e-11
1.04616e-07
7.25803e-11
7.29739e-11
9.38726e-12
6.92775e-12
1.1734e-10
1.21758e-10
5.33274e-12
1.47319e-11
-1.65535e-10
-9.15298e-11
1.05577e-07
7.06641e-11
6.55564e-11
1.38031e-11
2.39979e-11
1.16782e-10
1.0161e-10
6.35877e-12
1.0425e-07
-7.08015e-11
-1.04342e-07
-3.95371e-11
-1.75579e-11
-8.93817e-12
4.93408e-11
8.8778e-11
-2.64008e-11
8.58279e-11
-2.53979e-11
4.77496e-11
1.0521e-07
-7.11475e-11
-1.05303e-07
-4.27216e-11
-8.46702e-12
-3.8592e-12
4.65171e-11
6.80653e-11
-2.53288e-11
8.50086e-11
-3.35103e-12
-1.65791e-10
-9.17002e-11
1.05574e-07
7.03701e-11
6.55295e-11
1.39214e-11
2.38154e-11
1.1757e-10
6.19793e-12
1.02004e-10
-7.14972e-11
-1.04331e-07
-3.98297e-11
-1.73781e-11
-7.44769e-12
4.50943e-11
8.88313e-11
-2.64043e-11
-2.53579e-11
8.87848e-11
4.77208e-11
1.05207e-07
-7.11607e-11
-1.053e-07
-4.26596e-11
-8.47127e-12
-3.58317e-12
4.61518e-11
6.84142e-11
-2.57506e-11
8.55869e-11
-3.72944e-12
9.30848e-11
7.85782e-11
2.58989e-08
-5.95233e-11
2.59551e-08
-2.58165e-08
-2.42115e-11
-7.11582e-12
-1.62976e-10
-8.25021e-11
1.05495e-07
6.01525e-11
7.77942e-11
1.97137e-11
5.96716e-11
8.90898e-11
3.42379e-11
6.67711e-11
-7.45456e-11
-1.05186e-07
-3.82499e-11
-2.23759e-11
3.51226e-12
3.569e-11
3.29842e-11
8.05102e-12
3.14428e-11
5.74786e-11
5.9993e-11
1.05127e-07
-7.44226e-11
-1.05221e-07
-3.80863e-11
-2.28686e-11
3.57431e-12
3.55748e-11
3.29758e-11
8.27577e-12
5.69807e-11
3.16752e-11
-2.58217e-08
-2.5063e-11
-6.66887e-12
2.1645e-11
2.48515e-11
5.38268e-11
5.24099e-11
2.5797e-08
-3.54867e-11
-3.85362e-11
2.59352e-08
-2.57879e-08
-3.60955e-11
-3.71523e-11
-2.81731e-11
1.06001e-07
2.27292e-11
4.64992e-11
2.81319e-12
4.13484e-11
4.34946e-11
-6.52764e-12
-1.20775e-13
-2.19948e-11
-3.97531e-11
-2.73067e-11
1.0603e-07
2.31763e-11
4.65887e-11
2.51248e-12
4.12896e-11
4.28155e-11
-7.08637e-12
-2.93669e-13
1.05954e-07
1.28103e-11
-1.05956e-07
3.69508e-12
-3.55012e-11
-7.99173e-12
8.15312e-12
-2.82388e-11
-2.47139e-11
1.64164e-11
2.21972e-11
3.5632e-11
1.05984e-07
1.30669e-11
-1.05985e-07
3.3812e-12
-3.56615e-11
-8.33273e-12
8.42431e-12
-2.82806e-11
-2.51043e-11
1.6524e-11
2.21677e-11
5.31641e-11
5.32997e-11
2.57978e-08
-3.90031e-11
2.59362e-08
-2.5788e-08
-3.59069e-11
-3.76358e-11
-2.42387e-11
1.04193e-07
4.03073e-11
4.93118e-11
-1.64611e-11
-3.78071e-11
7.26101e-11
7.46176e-11
-3.87459e-11
-1.60867e-11
-3.73702e-11
-2.56446e-11
1.05153e-07
3.68466e-11
4.07259e-11
-1.20684e-11
-1.67957e-11
7.17153e-11
5.39048e-11
-3.77525e-11
1.04147e-07
1.43464e-11
-1.04149e-07
1.26096e-12
-3.78014e-11
-2.65654e-11
2.76308e-11
5.12403e-11
-5.82635e-11
5.013e-11
-5.81604e-11
3.013e-11
1.05108e-07
1.45099e-11
-1.0511e-07
1.78951e-12
-2.93892e-11
-2.27853e-11
2.35963e-11
2.99743e-11
-5.73388e-11
4.91316e-11
-3.76095e-11
-3.74112e-11
-2.55792e-11
1.0515e-07
3.65977e-11
4.07061e-11
-1.18626e-11
-1.71041e-11
7.22783e-11
-3.81682e-11
5.42285e-11
1.40089e-11
-1.04138e-07
1.26066e-12
-3.83439e-11
-2.55388e-11
2.68586e-11
5.12506e-11
-5.83528e-11
-5.81102e-11
5.03586e-11
3.01585e-11
1.05105e-07
1.43954e-11
-1.05107e-07
1.72534e-12
-2.94029e-11
-2.25248e-11
2.33575e-11
3.03355e-11
-5.77983e-11
4.96643e-11
-3.78887e-11
5.99709e-11
4.59556e-11
2.58031e-08
-4.2635e-11
2.59404e-08
-2.57939e-08
-4.46845e-11
-2.90337e-11
-4.08455e-11
-2.45057e-11
1.05067e-07
2.63153e-11
5.31122e-11
-2.44534e-12
2.03424e-11
4.34881e-11
-2.18936e-12
1.75559e-11
1.19751e-11
-1.0499e-07
2.63015e-12
-4.27077e-11
-1.33668e-11
1.37683e-11
-7.82611e-12
-2.62854e-11
2.67066e-12
1.84112e-11
4.31136e-11
1.05023e-07
1.20355e-11
-1.05025e-07
2.64777e-12
-4.32192e-11
-1.32972e-11
1.36549e-11
-7.81661e-12
-2.591e-11
1.79849e-11
2.94915e-12
-2.5799e-08
-4.55198e-11
-2.85358e-11
3.68695e-11
3.89469e-11
3.52144e-11
3.54493e-11
2.57887e-08
-3.46104e-11
-3.77787e-11
2.59371e-08
-2.57904e-08
-3.68274e-11
-3.75253e-11
6.99784e-12
1.05957e-07
6.72995e-12
3.44378e-11
-9.2599e-12
2.08548e-11
1.42189e-11
-2.99526e-11
-2.63874e-11
-3.71391e-11
1.67292e-11
7.22116e-12
1.05989e-07
6.58488e-12
3.41916e-11
-1.36064e-11
2.08062e-11
1.42724e-11
-3.00615e-11
-2.40341e-11
1.05966e-07
1.07887e-11
-1.05964e-07
6.40452e-12
-3.68976e-11
-9.74522e-12
6.32424e-12
-2.78723e-11
-2.43938e-11
1.64656e-11
2.21836e-11
3.46833e-11
1.05995e-07
1.09588e-11
-1.05994e-07
6.30007e-12
-3.72708e-11
-1.05408e-11
1.14854e-11
-2.82233e-11
-2.45437e-11
1.36206e-11
2.23306e-11
3.45315e-11
3.64526e-11
2.57886e-08
-3.83745e-11
2.59381e-08
-2.57903e-08
-3.65624e-11
-3.82292e-11
3.64158e-12
1.04149e-07
2.667e-11
3.77168e-11
-2.74235e-11
-5.96713e-11
4.84979e-11
4.93024e-11
-5.95273e-11
-3.05967e-11
1.71778e-11
4.48077e-12
1.05111e-07
2.25979e-11
2.92694e-11
-2.36585e-11
-3.91135e-11
4.74962e-11
2.79854e-11
-5.85948e-11
1.04159e-07
9.13064e-12
-1.04157e-07
3.41405e-12
-3.90142e-11
-2.78921e-11
2.63736e-11
5.17176e-11
-5.7248e-11
5.09669e-11
-5.73765e-11
2.94057e-11
1.05121e-07
9.41628e-12
-1.05118e-07
3.75547e-12
-3.06075e-11
-2.40394e-11
2.23749e-11
3.048e-11
-5.63406e-11
4.99335e-11
-3.67485e-11
1.70811e-11
4.4694e-12
1.05108e-07
2.23557e-11
2.92947e-11
-2.34088e-11
-3.94045e-11
4.80245e-11
-5.9063e-11
2.83376e-11
8.65275e-12
-1.04145e-07
3.17739e-12
-3.97739e-11
-2.69109e-11
2.21948e-11
5.18276e-11
-5.72111e-11
-5.72476e-11
5.39135e-11
2.94175e-11
1.05118e-07
9.39384e-12
-1.05115e-07
3.8487e-12
-3.06333e-11
-2.38268e-11
2.20991e-11
3.08105e-11
-5.68467e-11
5.04233e-11
-3.70617e-11
4.28999e-11
2.81041e-11
2.57947e-08
-4.17026e-11
2.59425e-08
-2.57965e-08
-4.52016e-11
-2.96806e-11
1.58945e-11
5.94357e-12
1.05025e-07
1.23299e-11
4.20689e-11
-1.44849e-11
1.83672e-12
1.56525e-11
-2.76554e-11
-9.50398e-12
1.00939e-11
-1.04997e-07
5.4275e-12
-4.41799e-11
-1.50852e-11
1.20117e-11
-7.89759e-12
-2.60186e-11
3.25847e-12
1.83236e-11
4.21952e-11
1.05034e-07
1.01147e-11
-1.05032e-07
5.41913e-12
-4.46728e-11
-1.49888e-11
1.19182e-11
-7.8897e-12
-2.56302e-11
1.79026e-11
3.43672e-12
-2.58015e-08
-4.6078e-11
-2.91552e-11
3.64418e-11
3.86742e-11
3.55443e-11
3.60808e-11
2.57904e-08
-3.57167e-11
-3.86253e-11
2.59366e-08
-2.57897e-08
-3.61027e-11
-3.65234e-11
4.58549e-12
1.05967e-07
6.69741e-12
3.50091e-11
-9.45805e-12
2.30144e-11
1.76869e-11
-2.68336e-11
-2.34002e-11
-3.69242e-11
8.29184e-12
5.30719e-12
1.05997e-07
6.80413e-12
3.51344e-11
-1.03401e-11
2.32124e-11
1.74105e-11
-2.71753e-11
-2.34839e-11
1.05968e-07
2.32717e-12
-1.05968e-07
1.95089e-12
-3.55636e-11
-8.84824e-12
7.49522e-12
-2.51378e-11
-2.21191e-11
1.99573e-11
2.43612e-11
3.5894e-11
1.05997e-07
2.47774e-12
-1.05997e-07
1.4929e-12
-3.56967e-11
-9.10162e-12
7.81636e-12
-2.54248e-11
-2.18375e-11
1.94288e-11
2.45805e-11
3.48706e-11
3.67337e-11
2.57904e-08
-3.91121e-11
2.59376e-08
-2.579e-08
-3.55437e-11
-3.70467e-11
2.28477e-12
1.0416e-07
2.6576e-11
3.8075e-11
-2.7733e-11
-5.63213e-11
5.20669e-11
5.29776e-11
-5.63201e-11
-3.0236e-11
6.16161e-12
2.60845e-12
1.05122e-07
2.26046e-11
2.97264e-11
-2.38584e-11
-3.56873e-11
5.10116e-11
3.17562e-11
-5.54354e-11
1.04161e-07
8.76979e-13
-1.04161e-07
3.98426e-13
-3.80023e-11
-2.73367e-11
2.70545e-11
5.48388e-11
-5.50571e-11
5.36131e-11
-5.48352e-11
3.03055e-11
1.05123e-07
1.42013e-12
-1.05123e-07
4.02215e-13
-2.95233e-11
-2.34508e-11
2.31058e-11
3.36424e-11
-5.41967e-11
5.2533e-11
-3.41932e-11
6.1401e-12
2.73295e-12
1.05119e-07
2.23292e-11
2.97388e-11
-2.36455e-11
-3.60054e-11
5.15093e-11
-5.59326e-11
3.20813e-11
6.25476e-13
-1.0415e-07
3.25576e-13
-3.85405e-11
-2.63001e-11
2.62711e-11
5.4851e-11
-5.51421e-11
-5.47901e-11
5.38472e-11
3.03314e-11
1.0512e-07
1.39677e-12
-1.0512e-07
4.36156e-13
-2.95381e-11
-2.32226e-11
2.28395e-11
3.39647e-11
-5.47023e-11
5.30214e-11
-3.45112e-11
4.34624e-11
2.85245e-11
2.57965e-08
-4.2833e-11
2.59421e-08
-2.57961e-08
-4.41406e-11
-2.86279e-11
7.07681e-12
4.02613e-12
1.05036e-07
1.22469e-11
4.25885e-11
-1.47278e-11
4.1852e-12
1.91549e-11
-2.46123e-11
-6.94505e-12
1.60041e-12
-1.05002e-07
1.37101e-12
-4.28552e-11
-1.4219e-11
1.3052e-11
-5.47593e-12
-2.33184e-11
5.17119e-12
2.15972e-11
4.33401e-11
1.05037e-07
1.54681e-12
-1.05036e-07
1.27906e-12
-4.33339e-11
-1.40992e-11
1.29823e-11
-5.45057e-12
-2.29134e-11
2.11833e-11
5.36915e-12
-2.58011e-08
-4.50088e-11
-2.80869e-11
3.54482e-11
3.78869e-11
3.67875e-11
3.6955e-11
2.57896e-08
-3.59234e-11
-3.88135e-11
2.59365e-08
-2.57894e-08
-3.592e-11
-3.63949e-11
1.23455e-12
1.05968e-07
7.5986e-12
3.58073e-11
-8.77183e-12
2.44967e-11
2.0154e-11
-2.49613e-11
-2.19715e-11
-3.56924e-11
2.0685e-12
1.80853e-12
1.05999e-07
7.55724e-12
3.55879e-11
-1.30934e-11
2.46768e-11
1.95715e-11
-2.52925e-11
-1.92064e-11
1.05968e-07
6.58848e-13
-1.05968e-07
9.88473e-13
-3.52905e-11
-8.64922e-12
7.75151e-12
-2.47268e-11
-2.17451e-11
2.04277e-11
2.46877e-11
3.60217e-11
1.05997e-07
8.32336e-13
-1.05998e-07
7.54634e-13
-3.56693e-11
-9.37736e-12
1.28684e-11
-2.50319e-11
-2.15183e-11
1.73248e-11
2.4906e-11
3.59134e-11
3.79349e-11
2.57897e-08
-3.94325e-11
2.59374e-08
-2.57897e-08
-3.52109e-11
-3.7058e-11
-1.48253e-14
1.04161e-07
2.71541e-11
3.87177e-11
-2.72484e-11
-5.465e-11
5.37886e-11
5.50515e-11
-5.48945e-11
-2.94046e-11
4.30762e-13
1.30265e-13
1.05123e-07
2.32025e-11
3.04023e-11
-2.33649e-11
-3.40047e-11
5.27108e-11
3.38635e-11
-5.4036e-11
1.0416e-07
-8.98991e-14
-1.04161e-07
-4.34653e-13
-3.77548e-11
-2.71626e-11
2.72717e-11
5.52267e-11
-5.48235e-11
5.3924e-11
-5.45561e-11
3.04942e-11
1.05123e-07
4.4405e-13
-1.05123e-07
-4.46027e-13
-2.92776e-11
-2.32808e-11
2.33161e-11
3.40348e-11
-5.39709e-11
5.28367e-11
-3.39145e-11
4.01925e-13
1.82546e-13
1.0512e-07
2.29442e-11
3.04281e-11
-2.31341e-11
-3.43251e-11
5.32117e-11
-5.45308e-11
3.41856e-11
-4.24261e-13
-1.0415e-07
-5.95073e-13
-3.84413e-11
-2.61478e-11
2.31827e-11
5.52818e-11
-5.48296e-11
-5.44733e-11
5.68207e-11
3.05188e-11
1.0512e-07
4.54771e-13
-1.0512e-07
-4.20179e-13
-2.92902e-11
-2.30508e-11
2.30573e-11
3.43543e-11
-5.4479e-11
5.33248e-11
-3.42364e-11
4.44013e-11
2.94719e-11
2.5796e-08
-4.30408e-11
2.59419e-08
-2.57959e-08
-4.3995e-11
-2.84453e-11
1.18177e-12
7.86881e-13
1.05036e-07
1.30969e-11
4.34374e-11
-1.40165e-11
5.48477e-12
2.13958e-11
-2.27503e-11
-5.2988e-12
5.50539e-14
-1.05002e-07
5.51616e-13
-4.2581e-11
-1.40216e-11
1.33032e-11
-5.11993e-12
-2.29276e-11
5.44788e-12
2.20852e-11
4.35426e-11
1.05036e-07
2.43406e-14
-1.05036e-07
4.36695e-13
-4.30631e-11
-1.39065e-11
1.32324e-11
-5.0965e-12
-2.25146e-11
2.16833e-11
5.64522e-12
-2.58009e-08
-4.48655e-11
-2.79066e-11
3.52879e-11
3.77336e-11
3.69612e-11
3.70864e-11
2.57894e-08
-3.59067e-11
-3.88166e-11
2.59365e-08
-2.57894e-08
-3.59342e-11
-3.64368e-11
6.43003e-13
1.05968e-07
7.75413e-12
3.59186e-11
-8.66676e-12
2.46451e-11
2.03934e-11
-2.47533e-11
-2.18059e-11
-3.57663e-11
1.84292e-12
1.05784e-12
1.05997e-07
7.89808e-12
3.60664e-11
-9.49976e-12
2.48989e-11
1.98222e-11
-2.50441e-11
-2.15358e-11
1.05968e-07
2.44918e-13
-1.05967e-07
1.01469e-12
-3.52606e-11
-8.66763e-12
7.79199e-12
-2.4672e-11
-2.17247e-11
2.05062e-11
2.47074e-11
3.605e-11
1.05997e-07
4.61293e-13
-1.05996e-07
8.20021e-13
-3.54218e-11
-8.9693e-12
8.06752e-12
-2.4966e-11
-2.14431e-11
1.99634e-11
2.49264e-11
3.59603e-11
3.77107e-11
2.57897e-08
-3.93085e-11
2.59374e-08
-2.57897e-08
-3.53608e-11
-3.69734e-11
-4.27582e-13
1.04161e-07
2.72853e-11
3.88256e-11
-2.71489e-11
-5.44887e-11
5.39874e-11
5.52909e-11
-5.47564e-11
-2.9256e-11
-5.42758e-13
-2.05757e-13
1.05123e-07
2.3332e-11
3.05042e-11
-2.32677e-11
-3.38454e-11
5.28996e-11
3.4102e-11
-5.39043e-11
1.0416e-07
-2.70597e-15
-1.04161e-07
-6.30164e-13
-3.77215e-11
-2.71595e-11
2.73163e-11
5.5274e-11
-5.48627e-11
5.39671e-11
-5.45961e-11
3.05049e-11
1.05123e-07
5.85307e-13
-1.05123e-07
-6.74042e-13
-2.92311e-11
-2.3269e-11
2.33751e-11
3.40754e-11
-5.4022e-11
5.28723e-11
-3.39694e-11
-6.40565e-13
-1.11115e-13
1.0512e-07
2.30703e-11
3.05279e-11
-2.30405e-11
-3.41623e-11
5.34019e-11
-5.43961e-11
3.44244e-11
-1.36831e-13
-1.0415e-07
-6.89069e-13
-3.82605e-11
-2.61176e-11
2.6534e-11
5.52814e-11
-5.49536e-11
-5.45503e-11
5.42001e-11
3.05419e-11
1.0512e-07
6.90341e-13
-1.0512e-07
-7.58031e-13
-2.92464e-11
-2.3027e-11
2.31097e-11
3.43898e-11
-5.45279e-11
5.33574e-11
-3.42882e-11
4.45395e-11
2.96312e-11
2.57959e-08
-4.30343e-11
2.59419e-08
-2.57958e-08
-4.40276e-11
-2.84484e-11
5.16566e-13
1.61582e-13
1.05036e-07
1.32529e-11
4.35547e-11
-1.39069e-11
5.6203e-12
2.1663e-11
-2.25573e-11
-5.11117e-12
-4.10207e-13
-1.05001e-07
5.27237e-13
-4.25421e-11
-1.40272e-11
1.335e-11
-5.06312e-12
-2.29004e-11
5.47087e-12
2.21738e-11
4.35268e-11
1.05036e-07
-4.25938e-13
-1.05036e-07
5.17563e-13
-4.30378e-11
-1.39273e-11
1.32608e-11
-5.04373e-12
-2.24916e-11
2.17668e-11
5.66572e-12
-2.58009e-08
-4.49018e-11
-2.79053e-11
3.52653e-11
3.77075e-11
3.69989e-11
3.71275e-11
2.57894e-08
-3.5871e-11
-3.87507e-11
2.59365e-08
-2.57893e-08
-3.60079e-11
-3.65411e-11
5.562e-13
1.05967e-07
7.78716e-12
3.58931e-11
-8.70611e-12
2.46007e-11
2.04067e-11
-2.47513e-11
-2.18715e-11
-3.55008e-11
1.69039e-12
9.78012e-13
1.05999e-07
7.75944e-12
3.56933e-11
-1.30005e-11
2.47948e-11
1.98228e-11
-2.50811e-11
-1.90819e-11
1.05968e-07
-2.50382e-15
-1.05968e-07
1.02094e-12
-3.52008e-11
-8.72407e-12
7.88378e-12
-2.46226e-11
-2.17309e-11
2.06062e-11
2.47386e-11
3.59647e-11
1.05997e-07
1.05785e-13
-1.05998e-07
9.12044e-13
-3.56103e-11
-9.46193e-12
1.2951e-11
-2.46821e-11
-2.14777e-11
1.7481e-11
2.47253e-11
3.60935e-11
3.80912e-11
2.57895e-08
-3.93925e-11
2.59374e-08
-2.57896e-08
-3.52555e-11
-3.71862e-11
-3.53364e-13
1.04161e-07
2.73136e-11
3.88105e-11
-2.71689e-11
-5.45266e-11
5.40587e-11
5.53648e-11
-5.47922e-11
-2.92152e-11
-7.81071e-13
-2.05306e-13
1.05123e-07
2.33779e-11
3.05021e-11
-2.32764e-11
-3.38811e-11
5.29742e-11
3.41791e-11
-5.39353e-11
1.0416e-07
1.77114e-13
-1.04161e-07
-5.82026e-13
-3.77093e-11
-2.72487e-11
2.73459e-11
5.53604e-11
-5.50079e-11
5.40359e-11
-5.47455e-11
3.04216e-11
1.05123e-07
8.77259e-13
-1.05123e-07
-4.7881e-13
-2.92231e-11
-2.3386e-11
2.33974e-11
3.41608e-11
-5.418e-11
5.29339e-11
-3.41391e-11
-9.21298e-13
3.49529e-14
1.0512e-07
2.30891e-11
3.05141e-11
-2.30613e-11
-3.41903e-11
5.34734e-11
-5.44219e-11
3.44967e-11
2.59835e-14
-1.0415e-07
-6.75996e-13
-3.84016e-11
-2.62315e-11
2.32658e-11
5.54045e-11
-5.50005e-11
-5.46419e-11
5.6925e-11
3.05005e-11
1.0512e-07
8.65227e-13
-1.0512e-07
-8.3056e-13
-2.92359e-11
-2.30826e-11
2.31381e-11
3.44671e-11
-5.46548e-11
5.34138e-11
-3.44252e-11
4.45863e-11
2.96781e-11
2.57958e-08
-4.29928e-11
2.59419e-08
-2.57958e-08
-4.41319e-11
-2.85264e-11
7.05667e-13
2.92686e-14
1.05036e-07
1.32892e-11
4.35458e-11
-1.39247e-11
5.59351e-12
2.16969e-11
-2.26058e-11
-5.09636e-12
-5.91039e-13
-1.05001e-07
6.46946e-13
-4.24971e-11
-1.40806e-11
1.34146e-11
-5.01573e-12
-2.2927e-11
5.48012e-12
2.22675e-11
4.35097e-11
1.05036e-07
-7.49424e-13
-1.05036e-07