/*--------------------------------*- C++ -*----------------------------------*\
| =========                 |                                                 |
| \\      /  F ield         | OpenFOAM: The Open Source CFD Toolbox           |
|  \\    /   O peration     | Version:  2206                                  |
|   \\  /    A nd           | Website:  www.openfoam.com                      |
|    \\/     M anipulation  |                                                 |
\*---------------------------------------------------------------------------*/
FoamFile
{
    version     2.0;
    format      ascii;
    arch        "LSB;label=32;scalar=64";
    class       volVectorField;
    location    "0.2";
    object      U;
}
// * * * * * * * * * * * * * * * * * * * * * * * * * * * * * * * * * * * * * //

dimensions      [0 1 -1 0 0 0 0];

internalField   nonuniform List<vector> 
66616
(
(9.20149e-05 8.20328e-05 0.123173)
(-0.000171264 0.00014432 0.121974)
(0.000148459 -0.000172195 0.121975)
(-0.000441254 -0.000445308 0.1209)
(2.5089e-05 2.17321e-05 0.124137)
(-1.18778e-05 -4.93565e-05 0.123584)
(-4.18649e-05 -1.10555e-05 0.123625)
(-0.000246944 -0.000246783 0.122704)
(-7.50959e-05 -7.19896e-05 0.123925)
(0.000107545 -9.04604e-05 0.123505)
(-9.15685e-05 0.000102495 0.12354)
(-8.59379e-05 -9.18007e-05 0.122715)
(-0.000123043 -0.00011591 0.123248)
(0.000199796 -0.000138873 0.12292)
(-0.000143501 0.000205811 0.122954)
(-1.55873e-05 -1.43528e-05 0.122225)
(-2.48036e-05 -2.39986e-05 0.122692)
(5.12229e-05 -4.26752e-05 0.122344)
(-4.37117e-05 5.59374e-05 0.122374)
(-0.000153859 -0.000152986 0.121753)
(1.4063e-05 1.28046e-05 0.122678)
(-2.0629e-05 3.91097e-06 0.122269)
(7.00793e-06 -2.33466e-05 0.122301)
(-0.000222461 -0.000222532 0.121701)
(4.38687e-06 5.04525e-06 0.122739)
(-7.30365e-06 3.58807e-06 0.122284)
(6.87349e-06 -1.16484e-05 0.122315)
(-0.00022053 -0.000220794 0.12171)
(-6.42274e-07 1.01505e-06 0.122751)
(-4.24088e-08 6.17101e-07 0.122285)
(2.85098e-06 -2.21662e-06 0.122317)
(-0.000216282 -0.000216991 0.121708)
(-1.52811e-06 6.8411e-07 0.122752)
(1.05571e-06 2.17789e-07 0.122286)
(2.08948e-06 -1.05782e-06 0.122317)
(-0.00021565 -0.000216363 0.121707)
(-1.72205e-06 9.57718e-07 0.122753)
(1.13262e-06 1.68332e-07 0.122287)
(2.04721e-06 -1.23528e-06 0.122317)
(-0.000215527 -0.000216226 0.121707)
(-2.01684e-06 1.02232e-06 0.122754)
(1.56744e-06 -4.27821e-09 0.122292)
(2.23914e-06 -1.91463e-06 0.122318)
(-0.000215268 -0.000216238 0.121705)
(-3.08311e-06 3.03485e-06 0.122755)
(9.86747e-07 2.1882e-06 0.122307)
(-1.24261e-07 -4.5824e-06 0.122319)
(-0.000214702 -0.00021754 0.121698)
(-0.000150902 -0.000157488 0.120788)
(9.84042e-05 2.94361e-05 0.122019)
(-9.80479e-05 3.00287e-05 0.122017)
(0.000151256 -0.000156246 0.120787)
(3.51871e-05 9.87018e-05 0.122004)
(3.08084e-05 -9.68184e-05 0.122008)
(2.1244e-05 1.99875e-05 0.123017)
(-2.10619e-05 2.01752e-05 0.123017)
(1.83442e-05 -2.10227e-05 0.123008)
(-1.81711e-05 -2.1167e-05 0.123008)
(-3.48741e-05 9.92031e-05 0.122003)
(-3.06965e-05 -9.75591e-05 0.122007)
(-0.000154568 0.000153808 0.12078)
(9.96323e-05 -3.22567e-05 0.121998)
(-9.97494e-05 -3.32891e-05 0.121996)
(0.00015459 0.000152582 0.120778)
(0.000445911 0.000440251 0.12091)
(-0.000141209 -0.000154029 0.122549)
(0.000153904 0.000174583 0.121973)
(-0.000154837 0.000175389 0.121971)
(2.68172e-05 0.000104871 0.123339)
(-2.42741e-05 0.000104654 0.123337)
(-0.000445215 0.000441202 0.120907)
(0.00014106 -0.000154668 0.122548)
(0.000171984 0.00014479 0.121974)
(0.000172969 -0.000148495 0.121956)
(0.000130383 1.24122e-05 0.1233)
(0.000129669 -1.48508e-05 0.123288)
(-0.000172411 -0.000147782 0.121956)
(-0.000129916 1.25917e-05 0.1233)
(-0.000129365 -1.49537e-05 0.123287)
(0.000441608 -0.000444392 0.120901)
(-0.000145457 0.000151299 0.122542)
(-0.0001483 -0.000172939 0.121973)
(2.17398e-05 -0.000109641 0.123339)
(-2.07957e-05 -0.000109879 0.123337)
(0.000145299 0.000152064 0.122541)
(0.000249304 0.000246434 0.122711)
(-0.000240329 -0.000240846 0.122743)
(-4.02041e-05 5.02301e-06 0.123624)
(3.98232e-05 5.60899e-06 0.123623)
(-7.70088e-05 -7.52881e-05 0.12365)
(7.72881e-05 -7.57786e-05 0.123652)
(-0.000245938 0.000246992 0.12271)
(0.000238542 -0.000239874 0.122744)
(1.21818e-05 -4.8938e-05 0.123584)
(1.28555e-05 4.78971e-05 0.123574)
(-7.30862e-05 -7.60924e-05 0.123615)
(-7.4481e-05 7.56751e-05 0.123605)
(-1.2571e-05 4.776e-05 0.123573)
(7.30374e-05 -7.38394e-05 0.123615)
(7.50047e-05 7.58119e-05 0.123604)
(0.000247841 -0.000246602 0.122705)
(-0.000238407 0.000237443 0.122738)
(4.26421e-05 -1.13449e-05 0.123624)
(-7.41036e-05 6.9295e-05 0.123652)
(7.43274e-05 6.89998e-05 0.123652)
(0.000238998 0.000237089 0.122739)
(8.35512e-05 8.90601e-05 0.122719)
(-0.000360882 -0.000364276 0.122284)
(-9.44567e-05 -0.000107476 0.123539)
(9.3733e-05 -0.000107072 0.123541)
(-0.000154375 -0.00021845 0.123132)
(0.000153894 -0.000217731 0.123133)
(-8.3719e-05 9.10301e-05 0.12272)
(0.000361075 -0.000365047 0.122285)
(-0.000107425 -9.17117e-05 0.123506)
(-0.0001069 9.25271e-05 0.123495)
(-0.000209373 -0.000148205 0.1231)
(-0.0002113 0.000147664 0.123092)
(0.000107517 9.26618e-05 0.123494)
(0.000210066 -0.000148149 0.123099)
(0.00021183 0.00014773 0.123091)
(8.71158e-05 -9.08858e-05 0.122715)
(-0.000357318 0.000364909 0.122282)
(9.1774e-05 0.000102132 0.123541)
(-0.000151126 0.000214771 0.123134)
(0.000151127 0.000214371 0.123135)
(0.000357415 0.000364971 0.122283)
(1.28299e-05 1.51312e-05 0.122228)
(-0.00029253 -0.000296148 0.121763)
(-0.000146583 -0.000208271 0.122951)
(0.000146483 -0.000208432 0.122953)
(-7.4405e-05 -0.000100925 0.122455)
(7.29908e-05 -0.00010065 0.122457)
(-1.16359e-05 1.6022e-05 0.122229)
(0.000292036 -0.000299079 0.121768)
(-0.000199366 -0.000139637 0.122922)
(-0.000200844 0.000138805 0.122914)
(-9.21004e-05 -7.08465e-05 0.122426)
(-9.16339e-05 7.17612e-05 0.12242)
(0.000201112 0.000138928 0.122913)
(9.20861e-05 -6.77065e-05 0.122426)
(9.17461e-05 7.15714e-05 0.122419)
(1.64463e-05 -1.36052e-05 0.122225)
(-0.000289436 0.000294503 0.121762)
(0.000143258 0.000205477 0.122955)
(-6.98174e-05 9.67209e-05 0.122459)
(6.94349e-05 9.64509e-05 0.122461)
(0.000288615 0.000294873 0.121763)
(0.000150708 0.000150883 0.121754)
(-0.000218501 -0.000222755 0.121677)
(-4.70492e-05 -5.72075e-05 0.122374)
(4.53187e-05 -5.65207e-05 0.122376)
(8.38163e-07 1.67442e-05 0.122295)
(-3.53981e-07 1.72635e-05 0.122297)
(-0.000150426 0.00014992 0.121758)
(0.000217418 -0.000222508 0.121678)
(-5.10742e-05 -4.40729e-05 0.122345)
(-5.10358e-05 4.47876e-05 0.122339)
(1.69835e-05 -4.24996e-07 0.122268)
(1.69959e-05 3.35915e-07 0.122264)
(5.12546e-05 4.483e-05 0.122338)
(-1.65475e-05 -1.27311e-07 0.122266)
(-1.6735e-05 3.84792e-07 0.122262)
(0.000154174 -0.000152373 0.121752)
(-0.000218762 0.000222498 0.121676)
(4.32921e-05 5.55134e-05 0.122376)
(1.1134e-06 -1.62497e-05 0.122299)
(-1.2548e-06 -1.63852e-05 0.1223)
(0.000218317 0.000222844 0.121676)
(0.000222077 0.000222368 0.121702)
(-0.000216303 -0.000220208 0.121688)
(6.53315e-06 2.35799e-05 0.122298)
(-8.40771e-06 2.43601e-05 0.1223)
(8.07404e-06 1.66186e-05 0.122311)
(-6.93757e-06 1.70869e-05 0.122312)
(-0.000220156 0.000223212 0.121703)
(0.000214404 -0.000221512 0.121688)
(2.12867e-05 3.79394e-06 0.12227)
(2.12438e-05 -3.78823e-06 0.122266)
(1.22004e-05 4.86592e-06 0.122283)
(1.23678e-05 -4.77144e-06 0.12228)
(-2.10487e-05 -3.77133e-06 0.122265)
(-1.16262e-05 4.64789e-06 0.122282)
(-1.23215e-05 -4.88307e-06 0.122279)
(0.00022289 -0.000222228 0.121701)
(-0.000216203 0.000220207 0.121687)
(-7.09189e-06 -2.35043e-05 0.122302)
(8.44145e-06 -1.63813e-05 0.122313)
(-8.46248e-06 -1.63e-05 0.122315)
(0.000215797 0.000220534 0.121687)
(0.000219829 0.000221025 0.121711)
(-0.000220709 -0.000223765 0.121686)
(6.6328e-06 1.21994e-05 0.122313)
(-7.05378e-06 1.27559e-05 0.122313)
(3.42861e-06 4.12709e-06 0.122314)
(-2.57348e-06 4.39872e-06 0.122316)
(-0.000220388 0.00022081 0.121711)
(0.000219593 -0.000223496 0.121687)
(7.94776e-06 3.71974e-06 0.122285)
(8.28715e-06 -3.68396e-06 0.122282)
(1.63081e-06 1.38866e-06 0.122287)
(2.17913e-06 -1.59602e-06 0.122284)
(-8.2552e-06 -3.76953e-06 0.122281)
(-1.30102e-06 1.40407e-06 0.122285)
(-2.12962e-06 -1.63336e-06 0.122282)
(0.000220957 -0.000220474 0.12171)
(-0.000220572 0.000223966 0.121686)
(-6.88431e-06 -1.1683e-05 0.122317)
(3.34671e-06 -3.11838e-06 0.122317)
(-3.29493e-06 -2.97835e-06 0.122318)
(0.00022021 0.000224341 0.121685)
(0.000215627 0.000217479 0.121709)
(-0.000221391 -0.000224456 0.121685)
(3.04644e-06 3.36873e-06 0.122314)
(-4.53109e-06 3.85445e-06 0.122316)
(2.35559e-06 1.76102e-06 0.122314)
(-1.15627e-06 2.08831e-06 0.122315)
(-0.000213726 0.000218135 0.121709)
(0.000219474 -0.000225876 0.121685)
(4.68843e-07 7.84668e-07 0.122287)
(1.07081e-06 -1.08067e-06 0.122284)
(2.05556e-07 3.98332e-07 0.122286)
(8.18623e-07 -6.67685e-07 0.122283)
(-1.03777e-06 -1.10554e-06 0.122282)
(1.8257e-07 3.27806e-07 0.122286)
(-8.00282e-07 -6.71502e-07 0.122282)
(0.000216757 -0.000216731 0.121708)
(-0.000221257 0.000224652 0.121685)
(-2.80374e-06 -2.22801e-06 0.122318)
(2.14408e-06 -6.72424e-07 0.122317)
(-2.11784e-06 -6.09706e-07 0.122318)
(0.000220877 0.000225017 0.121685)
(0.000214968 0.000216799 0.121708)
(-0.00022125 -0.000224424 0.121685)
(2.44106e-06 2.32767e-06 0.122314)
(-2.62483e-06 2.75908e-06 0.122315)
(2.25425e-06 1.30702e-06 0.122313)
(-1.76071e-06 1.67e-06 0.122315)
(-0.000215552 0.000216561 0.121708)
(0.000220084 -0.000224194 0.121686)
(-5.33133e-07 2.84234e-07 0.122287)
(8.10821e-08 -5.79598e-07 0.122284)
(2.52483e-07 2.46241e-07 0.122285)
(9.79928e-07 -4.7082e-07 0.122282)
(-2.01156e-08 -5.86172e-07 0.122282)
(1.48692e-08 2.41879e-07 0.122284)
(-9.89446e-07 -4.01274e-07 0.122281)
(0.000216094 -0.00021607 0.121707)
(-0.000221168 0.00022465 0.121685)
(-2.03844e-06 -1.06158e-06 0.122318)
(2.05356e-06 -2.99596e-07 0.122316)
(-2.12336e-06 -2.56266e-07 0.122318)
(0.000220768 0.000225048 0.121685)
(0.000214854 0.000216681 0.121707)
(-0.000220927 -0.000224202 0.121687)
(2.39839e-06 2.64062e-06 0.122314)
(-3.58504e-06 3.03317e-06 0.122316)
(2.02882e-06 7.03961e-07 0.122312)
(-1.18803e-06 1.01152e-06 0.122314)
(-0.000213008 0.000217343 0.121708)
(0.000219127 -0.000225718 0.121687)
(-7.24902e-07 2.41729e-07 0.122288)
(-1.69797e-07 -4.41179e-07 0.122285)
(5.96205e-07 5.93963e-07 0.122282)
(1.43655e-06 -9.48241e-07 0.122279)
(2.29328e-07 -6.62245e-07 0.122284)
(-1.35365e-07 4.30598e-07 0.122281)
(-1.33587e-06 -5.37713e-07 0.122278)
(0.000215943 -0.000215901 0.121707)
(-0.000220866 0.000224382 0.121686)
(-1.95942e-06 -1.25538e-06 0.122318)
(1.90972e-06 1.09842e-07 0.122315)
(-1.90984e-06 3.13931e-07 0.122317)
(0.000220584 0.000224899 0.121686)
(0.000214542 0.000216547 0.121705)
(-0.000222068 -0.000223473 0.121694)
(2.81659e-06 3.46384e-06 0.122315)
(-2.50539e-06 3.8911e-06 0.122316)
(-1.51084e-07 -1.95014e-07 0.12231)
(2.7925e-08 3.13455e-08 0.122311)
(-0.000215249 0.000216457 0.121705)
(0.000222012 -0.000223983 0.121693)
(-1.09021e-06 -2.94059e-08 0.122293)
(-6.05526e-07 -8.48146e-08 0.12229)
(1.05036e-06 8.58183e-07 0.122272)
(1.67041e-06 -1.03323e-06 0.122269)
(6.209e-07 -6.4847e-07 0.122289)
(-6.03486e-07 9.80243e-07 0.122271)
(-1.78566e-06 -5.58759e-07 0.122267)
(0.000215683 -0.00021575 0.121704)
(-0.000222434 0.000223909 0.121693)
(-2.07452e-06 -2.08021e-06 0.122319)
(3.99472e-07 1.42005e-06 0.122313)
(2.62153e-08 1.5067e-06 0.122315)
(0.000222133 0.000224471 0.121691)
(0.000213807 0.000217578 0.121696)
(1.73549e-07 6.88294e-06 0.122316)
(-2.52284e-07 7.44792e-06 0.122318)
(-0.000213375 0.000218643 0.121699)
(-8.17001e-07 1.81518e-06 0.122308)
(-1.05897e-06 -1.44726e-06 0.122305)
(5.37678e-07 -3.29146e-06 0.122304)
(0.000215001 -0.000216153 0.121695)
(8.28421e-07 -5.62415e-06 0.12232)
(1.40975e-07 -3.31735e-07 0.123357)
(7.17257e-05 7.11718e-05 0.122524)
(5.04318e-06 3.43066e-05 0.123239)
(3.52649e-05 5.02916e-06 0.123225)
(-0.000368954 7.93082e-05 0.116122)
(-6.28147e-05 0.000103374 0.121821)
(-0.000667404 0.00042594 0.0872133)
(-5.99146e-05 6.70837e-06 0.123154)
(7.91885e-05 -0.000368821 0.116125)
(0.000103423 -6.2355e-05 0.121815)
(6.84574e-06 -6.01e-05 0.123154)
(0.000426018 -0.000667409 0.0872163)
(-7.83014e-05 -7.77429e-05 0.120453)
(-0.000741864 -0.000563266 0.0772197)
(-0.00056285 -0.000741898 0.077226)
(7.33467e-05 0.000822437 0.11084)
(0.00168701 -0.00140061 0.0740105)
(-0.00012289 6.49738e-05 0.107886)
(-0.000337234 0.000220654 0.0865042)
(-0.00071048 -0.000732469 0.0699755)
(0.00101772 0.000299622 0.0763888)
(0.000818126 7.36599e-05 0.11075)
(-0.00140463 0.00168615 0.0740482)
(6.29364e-05 -0.000124053 0.107929)
(0.000218883 -0.000343183 0.086457)
(-9.17803e-05 8.20385e-05 0.123172)
(8.75509e-05 -8.30096e-05 0.123165)
(-8.72358e-05 -8.30353e-05 0.123165)
(9.70076e-05 8.61928e-05 0.123893)
(-9.64201e-05 8.60613e-05 0.123893)
(8.94441e-05 -8.97831e-05 0.123888)
(-8.92157e-05 -8.94987e-05 0.123888)
(-0.000767237 5.97783e-05 0.120021)
(-0.000214001 0.000535137 0.106236)
(-0.000151142 3.12268e-05 0.122923)
(-0.000445176 0.000204753 0.122391)
(-0.000288896 -3.34048e-05 0.118392)
(-0.000927355 -0.000136451 0.111707)
(-0.000396598 6.72293e-05 0.12314)
(-0.000735271 -0.000710986 0.0699989)
(0.00029917 0.00102186 0.0763663)
(5.94523e-05 -0.000763779 0.120043)
(3.30329e-05 -0.000156069 0.122925)
(0.00053511 -0.000215433 0.106215)
(0.000206558 -0.000438271 0.122388)
(-3.29234e-05 -0.000292022 0.118383)
(6.55622e-05 -0.000385173 0.123145)
(-0.000132683 -0.000926102 0.111746)
(-0.00022947 -0.000360485 0.0938888)
(-0.000360504 -0.00023127 0.0939054)
(-8.36946e-06 -8.13964e-06 0.121727)
(-0.000580621 0.000253892 0.0983573)
(0.000249848 -0.000577999 0.0983715)
(-6.86769e-05 1.9554e-05 0.112681)
(-1.22623e-05 4.36593e-05 0.0882638)
(-6.40085e-05 0.000381814 0.112756)
(-1.64062e-05 -0.000114145 0.0885505)
(0.000184232 0.000200683 0.0771057)
(9.70067e-05 4.59596e-06 0.0773897)
(3.14952e-05 -6.64818e-05 0.112045)
(4.10393e-05 -1.3283e-05 0.0880407)
(0.000351501 -6.08808e-05 0.112434)
(-0.000109643 -2.17524e-05 0.0882195)
(-2.46512e-05 2.20343e-05 0.124136)
(2.34227e-05 -2.26712e-05 0.12413)
(-2.30403e-05 -2.24922e-05 0.124129)
(-6.31398e-05 -6.08979e-05 0.124075)
(6.43236e-05 -5.99449e-05 0.124076)
(-6.35782e-05 6.53104e-05 0.12407)
(6.39418e-05 6.55165e-05 0.124069)
(6.43206e-05 -3.92145e-05 0.120782)
(-0.000276516 -0.000101891 0.112994)
(3.251e-05 4.42007e-06 0.124158)
(4.15646e-05 -7.00742e-05 0.123704)
(-0.000250363 -2.95248e-05 0.121008)
(5.18704e-05 -0.000177325 0.112686)
(9.08777e-05 -1.20952e-05 0.124251)
(0.000198454 0.000184437 0.0770089)
(3.25952e-06 9.90907e-05 0.0772343)
(-3.758e-05 6.99412e-05 0.121126)
(4.98376e-06 3.84684e-05 0.12419)
(-8.13103e-05 -0.000288867 0.113259)
(-6.42071e-05 3.5654e-05 0.123744)
(-2.70521e-05 -0.000282416 0.121195)
(-1.30095e-05 8.27933e-05 0.124283)
(-0.00018308 4.94388e-05 0.113087)
(-0.000161982 6.55072e-05 0.101028)
(6.29445e-05 -0.000162621 0.101219)
(0.000206367 0.000206333 0.122825)
(4.78963e-05 0.000136035 0.101312)
(0.000142567 4.9555e-05 0.101585)
(-4.26121e-05 -0.000224625 0.112335)
(-1.8564e-06 -0.000113619 0.0889845)
(-5.2616e-05 -5.35018e-05 0.112503)
(3.6923e-05 -0.000214346 0.0892311)
(4.47533e-05 -8.01957e-05 0.077885)
(-7.96051e-06 -0.000163187 0.0782248)
(-0.000226415 -4.14065e-05 0.111692)
(-0.000113712 -6.01507e-06 0.0887359)
(-4.57455e-05 -5.21063e-05 0.112042)
(-0.000215713 3.40127e-05 0.0888795)
(7.62679e-05 -7.19289e-05 0.123924)
(-7.59719e-05 7.65241e-05 0.123919)
(7.63217e-05 7.66347e-05 0.123919)
(-0.000130627 -0.000122207 0.123445)
(0.000131318 -0.000122559 0.123445)
(-0.000129082 0.000126286 0.123442)
(0.000129389 0.000126247 0.123442)
(0.000278551 -3.73548e-05 0.120333)
(5.25224e-05 -0.000146182 0.112725)
(0.000143058 -3.04461e-05 0.12397)
(0.000149241 -0.000117264 0.12338)
(6.10323e-05 -3.83652e-05 0.120661)
(0.00023608 -0.000175013 0.112462)
(0.000185891 -3.70041e-05 0.123821)
(-7.86162e-05 4.70577e-05 0.077787)
(-0.000160591 -3.5078e-06 0.0780612)
(-3.71373e-05 0.000279058 0.120676)
(-3.0611e-05 0.000142901 0.123996)
(-0.000148195 6.22625e-05 0.112998)
(-0.000117763 0.000148842 0.123414)
(-3.93181e-05 6.67853e-05 0.1209)
(-3.47873e-05 0.000183881 0.123845)
(-0.000170273 0.000239855 0.112852)
(0.000100203 0.00013017 0.102084)
(0.000128481 0.000105836 0.102285)
(0.00031036 0.000313115 0.122536)
(0.000202728 0.000145084 0.102208)
(0.00014033 0.000207427 0.102484)
(-2.29241e-05 -0.000361718 0.11244)
(7.19537e-05 -0.000247148 0.0899409)
(-2.21562e-05 -0.000295806 0.112405)
(1.42154e-05 -0.000232452 0.0905583)
(-8.07638e-05 -0.000200914 0.0790657)
(-2.75893e-05 -0.000149899 0.0796045)
(-0.000356028 -2.2415e-05 0.111825)
(-0.000239446 6.39317e-05 0.0896699)
(-0.000293243 -2.08144e-05 0.111952)
(-0.000224314 5.61109e-06 0.0901903)
(0.000123388 -0.00011605 0.123248)
(-0.000121549 0.0001198 0.123245)
(0.000121752 0.000119767 0.123245)
(-5.19683e-05 -4.76769e-05 0.122758)
(5.24771e-05 -4.7591e-05 0.122758)
(-5.15055e-05 5.31329e-05 0.122755)
(5.15035e-05 5.30618e-05 0.122755)
(0.000365902 -1.92058e-05 0.119818)
(0.000221123 -8.5696e-05 0.112615)
(0.000241453 -3.62275e-05 0.123303)
(0.000170245 -0.000120792 0.122727)
(0.000257564 -2.66904e-05 0.120144)
(0.000314912 -0.000100209 0.112456)
(0.000209874 -2.92924e-05 0.123087)
(-0.000193801 -7.04706e-05 0.0789476)
(-0.0001421 -1.70728e-05 0.0794241)
(-1.92877e-05 0.000375364 0.120134)
(-3.56566e-05 0.000242156 0.123323)
(-8.09699e-05 0.000231291 0.112875)
(-0.000123777 0.000177923 0.122758)
(-2.64552e-05 0.000270655 0.120365)
(-2.7115e-05 0.000209055 0.123107)
(-9.16643e-05 0.000323096 0.112829)
(0.000255544 2.61758e-05 0.102847)
(1.66442e-05 0.000264669 0.103042)
(0.000343669 0.000353206 0.121984)
(0.00025042 5.39756e-05 0.102967)
(4.29192e-05 0.000261697 0.103239)
(-3.22642e-05 -0.000102934 0.112352)
(-2.30059e-05 -4.57355e-05 0.0915248)
(-4.21972e-05 -0.000100464 0.112535)
(-3.21462e-05 -4.93793e-05 0.0918076)
(2.64019e-05 -1.52732e-05 0.0801569)
(4.22835e-05 -9.21407e-06 0.0802946)
(-9.13736e-05 -3.17731e-05 0.111753)
(-4.20088e-05 -2.35955e-05 0.0912171)
(-9.27254e-05 -4.15095e-05 0.112105)
(-4.43173e-05 -3.39473e-05 0.0913977)
(2.53619e-05 -2.39938e-05 0.122692)
(-2.46048e-05 2.79549e-05 0.12269)
(2.45758e-05 2.79518e-05 0.12269)
(1.27476e-05 1.14606e-05 0.122659)
(-1.23005e-05 1.1669e-05 0.122659)
(1.2749e-05 -1.04684e-05 0.122659)
(-1.27489e-05 -1.04476e-05 0.122659)
(0.000113771 -1.87305e-05 0.119413)
(5.95643e-05 -3.90247e-05 0.112772)
(6.35974e-05 -6.82631e-06 0.122666)
(1.7486e-05 -2.18017e-05 0.122297)
(6.08111e-05 -2.12252e-05 0.119699)
(0.000101141 -5.88096e-05 0.112661)
(2.34461e-05 -2.06726e-06 0.122611)
(-1.20295e-05 2.79975e-05 0.0800117)
(-9.27166e-06 4.13484e-05 0.0800896)
(-1.7618e-05 0.000107545 0.11971)
(-6.84949e-06 7.01753e-05 0.122683)
(-2.93996e-05 7.50556e-05 0.113019)
(-2.44277e-05 2.36356e-05 0.122326)
(-2.01344e-05 6.44138e-05 0.11989)
(-3.47188e-06 2.9349e-05 0.122631)
(-5.79128e-05 0.000106374 0.113025)
(5.68787e-05 2.86139e-05 0.103546)
(2.0028e-05 6.61896e-05 0.103746)
(0.000240008 0.000244209 0.121684)
(3.73145e-05 5.90964e-05 0.103497)
(5.89879e-05 3.81866e-05 0.103775)
(-3.81386e-06 -4.35723e-05 0.112057)
(-1.39269e-05 2.31995e-05 0.0919316)
(-8.94853e-06 3.5201e-05 0.112195)
(-1.30599e-05 -2.42738e-05 0.0919397)
(8.04539e-06 1.00311e-05 0.0803975)
(1.10479e-05 -9.31644e-06 0.0804321)
(-4.17292e-05 -3.21217e-06 0.111469)
(2.11542e-05 -9.99303e-06 0.0916027)
(3.43477e-05 -8.04546e-06 0.111777)
(-2.52399e-05 -9.37246e-06 0.0915279)
(-1.38726e-05 1.30625e-05 0.122678)
(1.40599e-05 -1.18184e-05 0.122677)
(-1.40251e-05 -1.18658e-05 0.122677)
(7.09311e-06 7.23193e-06 0.122729)
(-6.88747e-06 6.82285e-06 0.122729)
(7.32145e-06 -6.34836e-06 0.122729)
(-7.29677e-06 -6.44217e-06 0.122729)
(5.57822e-05 -1.84888e-06 0.119152)
(-6.06705e-05 -1.82012e-07 0.112799)
(-2.34644e-05 4.02151e-06 0.122577)
(-1.96265e-05 4.98093e-06 0.122274)
(-7.8403e-05 -5.93035e-06 0.119362)
(5.05118e-05 -2.78673e-05 0.11258)
(-2.30386e-05 4.08519e-06 0.122584)
(7.66129e-06 4.45168e-06 0.0802507)
(-1.12897e-05 7.76385e-06 0.0802321)
(-1.73819e-06 5.83541e-05 0.11945)
(5.41517e-06 -3.47446e-05 0.122603)
(1.82155e-06 -5.53938e-05 0.113046)
(9.50532e-06 -2.41777e-05 0.122306)
(-5.44881e-06 -7.13888e-05 0.119551)
(5.64539e-06 -3.60534e-05 0.12261)
(-3.03629e-05 4.83228e-05 0.112942)
(-1.95947e-05 -1.08132e-06 0.103706)
(-8.36594e-07 -1.93042e-05 0.103907)
(0.000213554 0.000218658 0.121684)
(1.92669e-05 2.43556e-05 0.103544)
(2.7833e-05 1.6874e-05 0.103817)
(-6.41714e-07 -4.22079e-05 0.111985)
(1.94057e-06 2.61111e-05 0.0919504)
(-6.33359e-07 4.29257e-05 0.112057)
(-4.85151e-06 -2.38669e-05 0.0919472)
(-6.03138e-06 9.5142e-06 0.0804494)
(6.14126e-06 -8.6669e-06 0.0804548)
(-3.9849e-05 -5.19326e-07 0.111402)
(2.27685e-05 4.68695e-06 0.0916267)
(4.05943e-05 -2.96832e-07 0.111645)
(-2.38489e-05 -3.86628e-06 0.0915401)
(-4.25707e-06 5.06147e-06 0.122739)
(4.7359e-06 -4.2753e-06 0.122738)
(-4.70856e-06 -4.34478e-06 0.122738)
(4.42228e-07 1.2571e-06 0.12275)
(-1.21309e-07 1.38065e-06 0.12275)
(1.00709e-06 -7.37711e-07 0.12275)
(-9.90458e-07 -7.29451e-07 0.12275)
(6.4749e-05 -4.1887e-07 0.11908)
(-5.83357e-05 1.60878e-05 0.112708)
(-8.47076e-06 1.30991e-06 0.122602)
(-4.48646e-06 2.82854e-06 0.122285)
(-7.41943e-05 -6.00011e-07 0.119233)
(5.50133e-05 -1.94719e-05 0.112527)
(-4.70598e-06 3.17947e-07 0.122604)
(7.98939e-06 -7.47895e-06 0.0803019)
(-9.69346e-06 5.15376e-06 0.0802535)
(-2.02842e-07 6.3943e-05 0.119376)
(2.24818e-06 -1.80191e-05 0.122627)
(1.82979e-05 -5.58286e-05 0.112948)
(5.34146e-06 -7.73741e-06 0.122316)
(-3.10785e-07 -6.97078e-05 0.119422)
(1.19407e-06 -1.24777e-05 0.12263)
(-2.10995e-05 5.15454e-05 0.112884)
(-1.7356e-05 -1.80992e-05 0.103703)
(-1.93441e-05 -1.74081e-05 0.103899)
(0.00021871 0.000222979 0.121687)
(1.90468e-05 1.7304e-05 0.103539)
(1.95049e-05 1.70997e-05 0.103809)
(-2.69844e-07 -4.2832e-05 0.111978)
(3.59396e-06 2.58997e-05 0.0919506)
(1.48023e-07 4.20112e-05 0.112039)
(-4.23192e-06 -2.42261e-05 0.0919467)
(-6.18244e-06 1.00116e-05 0.08045)
(6.04402e-06 -8.71876e-06 0.0804525)
(-3.98173e-05 -3.95228e-07 0.111396)
(2.34741e-05 4.7392e-06 0.0916294)
(4.05372e-05 1.40867e-07 0.111629)
(-2.3523e-05 -4.11195e-06 0.0915409)
(7.18798e-07 1.12542e-06 0.122751)
(-5.69e-08 -6.1809e-07 0.122751)
(1.01439e-07 -6.10871e-07 0.122751)
(-2.66748e-07 -1.08321e-07 0.122752)
(3.41545e-07 -2.06168e-07 0.122752)
(2.96785e-07 4.3325e-07 0.122752)
(-3.36209e-07 4.4187e-07 0.122752)
(6.68567e-05 -3.68046e-07 0.119072)
(-5.69612e-05 1.7951e-05 0.112695)
(1.33523e-06 -7.24928e-07 0.122606)
(9.69632e-09 1.97733e-07 0.122285)
(-6.96645e-05 -4.93114e-07 0.119213)
(5.57983e-05 -1.88681e-05 0.112523)
(1.30736e-06 -9.5252e-07 0.122606)
(8.78902e-06 -6.85904e-06 0.0803045)
(-9.34332e-06 5.57099e-06 0.0802541)
(-7.06991e-08 6.53661e-05 0.119367)
(-7.91926e-07 -4.11045e-06 0.122633)
(2.03283e-05 -5.38409e-05 0.112933)
(2.46517e-06 -1.28373e-06 0.122317)
(-8.13459e-08 -6.6715e-05 0.1194)
(-6.53872e-07 -2.79047e-06 0.122633)
(-2.04088e-05 5.24431e-05 0.112878)
(-1.81957e-05 -1.84841e-05 0.1037)
(-2.05863e-05 -1.74444e-05 0.103895)
(0.000220738 0.000224852 0.121685)
(1.86395e-05 1.7418e-05 0.103537)
(1.91616e-05 1.71783e-05 0.103807)
(-3.01644e-07 -4.26543e-05 0.111978)
(3.6656e-06 2.57385e-05 0.0919496)
(1.83621e-07 4.1656e-05 0.112038)
(-4.16862e-06 -2.42337e-05 0.0919479)
(-6.50373e-06 9.55456e-06 0.0804511)
(5.97898e-06 -8.71835e-06 0.080455)
(-3.97331e-05 -3.87531e-07 0.111398)
(2.34874e-05 4.7075e-06 0.091629)
(4.04372e-05 1.58537e-07 0.111628)
(-2.35104e-05 -4.1551e-06 0.0915421)
(1.85207e-06 8.75442e-07 0.122752)
(-1.01649e-06 -3.15666e-07 0.122752)
(1.14984e-06 -2.42052e-07 0.122752)
(-1.60158e-07 -6.02193e-07 0.122751)
(1.34516e-07 -4.1763e-07 0.122752)
(4.76039e-07 8.4032e-07 0.122751)
(-6.91773e-07 8.45709e-07 0.122752)
(6.68781e-05 -4.12542e-07 0.119072)
(-5.65923e-05 1.72772e-05 0.112694)
(2.5801e-06 -1.04603e-06 0.122607)
(1.78283e-07 3.3238e-07 0.122285)
(-6.90616e-05 -5.87668e-07 0.119211)
(5.54763e-05 -1.93182e-05 0.112524)
(2.04083e-06 -1.47604e-06 0.122606)
(8.84453e-06 -6.77949e-06 0.0803041)
(-9.3382e-06 5.62878e-06 0.0802548)
(-6.85245e-08 6.53221e-05 0.119367)
(-1.50358e-06 -2.02677e-06 0.122633)
(2.03512e-05 -5.35391e-05 0.112932)
(2.07657e-06 -4.32271e-07 0.122316)
(-6.20248e-08 -6.62584e-05 0.119398)
(-8.26401e-07 -1.63053e-06 0.122633)
(-2.02924e-05 5.24364e-05 0.112879)
(-1.81786e-05 -1.84536e-05 0.103699)
(-2.06351e-05 -1.73254e-05 0.103894)
(0.00022082 0.000225027 0.121685)
(1.85356e-05 1.74883e-05 0.103539)
(1.90753e-05 1.71636e-05 0.103808)
(-1.99637e-07 -4.16565e-05 0.111982)
(3.50959e-06 2.56271e-05 0.0919471)
(1.95987e-07 4.1028e-05 0.112036)
(-3.90782e-06 -2.39766e-05 0.0919528)
(-6.13643e-06 9.89344e-06 0.0804485)
(5.94659e-06 -8.54816e-06 0.0804557)
(-3.93277e-05 -3.42025e-07 0.111407)
(2.33688e-05 4.66497e-06 0.0916252)
(4.01611e-05 1.70317e-07 0.111622)
(-2.33676e-05 -4.09951e-06 0.0915491)
(2.09289e-06 1.07074e-06 0.122752)
(-1.23701e-06 -4.72943e-07 0.122753)
(1.45994e-06 -4.60401e-07 0.122753)
(-3.31003e-08 -5.99788e-07 0.12275)
(-8.2778e-08 -6.9738e-07 0.122751)
(6.92414e-07 7.11641e-07 0.12275)
(-7.74315e-07 8.39393e-07 0.122751)
(6.64875e-05 -3.23368e-07 0.119077)
(-5.6482e-05 1.76327e-05 0.112689)
(2.51174e-06 -8.11035e-07 0.122608)
(1.2502e-07 -1.52163e-07 0.122283)
(-6.87441e-05 -5.49426e-07 0.119209)
(5.54445e-05 -1.86801e-05 0.112533)
(2.10985e-06 -1.36103e-06 0.122604)
(8.77773e-06 -6.73434e-06 0.0803014)
(-9.24432e-06 5.55905e-06 0.0802601)
(8.59099e-09 6.47511e-05 0.119368)
(-1.6803e-06 -1.82288e-06 0.122634)
(2.00784e-05 -5.32457e-05 0.112929)
(1.96799e-06 -1.44856e-07 0.122316)
(-1.11386e-07 -6.58664e-05 0.119397)
(-6.44418e-07 -1.59354e-06 0.122632)
(-1.98133e-05 5.21724e-05 0.112885)
(-1.79765e-05 -1.84163e-05 0.103694)
(-2.05042e-05 -1.71288e-05 0.103891)
(0.000220681 0.000224976 0.121685)
(1.83022e-05 1.74538e-05 0.103547)
(1.89092e-05 1.6873e-05 0.103813)
(-1.34303e-07 -3.8695e-05 0.112001)
(3.1496e-06 2.51704e-05 0.0919345)
(1.20549e-07 3.89845e-05 0.112025)
(-3.50344e-06 -2.30677e-05 0.0919742)
(-6.3025e-06 9.21783e-06 0.0804416)
(5.82715e-06 -8.13836e-06 0.0804718)
(-3.86371e-05 -2.83237e-07 0.111441)
(2.33205e-05 4.63895e-06 0.0916096)
(3.96125e-05 1.35468e-07 0.111601)
(-2.34314e-05 -3.98548e-06 0.0915731)
(2.69234e-06 1.2613e-06 0.122753)
(-1.64559e-06 -3.83838e-07 0.122754)
(1.90243e-06 -5.08133e-07 0.122753)
(1.45819e-06 2.3512e-08 0.12275)
(-1.76709e-06 3.01469e-07 0.12275)
(2.25246e-06 -2.31846e-07 0.122749)
(-2.40337e-06 -2.55553e-07 0.12275)
(6.57902e-05 -2.56343e-07 0.119093)
(-5.59673e-05 1.69484e-05 0.11267)
(2.44614e-06 -6.44467e-07 0.122612)
(-3.14021e-07 6.50298e-07 0.122277)
(-6.81268e-05 -6.43998e-07 0.119199)
(5.48618e-05 -1.87528e-05 0.112562)
(2.2374e-06 -1.88014e-06 0.1226)
(8.76229e-06 -6.63706e-06 0.0802895)
(-9.40132e-06 5.3744e-06 0.0802781)
(2.73278e-07 6.2967e-05 0.119371)
(-2.18109e-06 -1.54539e-06 0.122636)
(1.90852e-05 -5.26169e-05 0.112913)
(1.8113e-06 6.27276e-07 0.122314)
(-2.46356e-07 -6.47017e-05 0.119395)
(4.18994e-08 -2.00058e-06 0.122629)
(-1.82027e-05 5.16716e-05 0.112911)
(-1.7765e-05 -1.84435e-05 0.103677)
(-2.01855e-05 -1.66774e-05 0.103879)
(0.000220679 0.000224781 0.121688)
(1.8201e-05 1.73218e-05 0.103574)
(1.84006e-05 1.63159e-05 0.103832)
(-3.17461e-07 -3.7801e-05 0.111694)
(2.80956e-06 2.07278e-05 0.0918847)
(3.00565e-08 3.23341e-05 0.111985)
(-1.07113e-05 -2.46917e-05 0.0918569)
(-5.68821e-06 7.83547e-06 0.0804074)
(9.79889e-06 -1.20474e-05 0.0804113)
(2.3305e-05 4.87434e-06 0.0915634)
(3.82396e-05 -1.6286e-08 0.111535)
(4.26753e-06 4.08139e-06 0.122755)
(-3.13312e-06 -1.92873e-06 0.122755)
(3.62111e-06 -2.54535e-06 0.122755)
(6.32242e-05 4.51691e-08 0.119155)
(-5.52902e-05 1.68974e-05 0.112611)
(5.1791e-07 7.67031e-07 0.122624)
(-6.15241e-07 1.86274e-06 0.12226)
(-6.72325e-05 -4.6236e-07 0.119162)
(5.30192e-05 -1.59991e-05 0.112649)
(2.74247e-06 -1.37166e-06 0.122588)
(9.3854e-06 -6.8923e-06 0.0802579)
(4.20164e-07 6.9015e-05 0.119207)
(-4.97513e-06 -1.12287e-06 0.12264)
(1.45672e-05 -4.99648e-05 0.112853)
(-5.26949e-07 -5.79038e-05 0.119392)
(-1.83096e-06 -7.07639e-06 0.122616)
(-1.73824e-05 -1.80735e-05 0.103627)
(-1.70934e-05 -1.55204e-05 0.103844)
(0.000226098 0.000225952 0.1217)
(1.6868e-05 1.46685e-05 0.103645)
(1.8449e-05 1.57593e-05 0.103769)
(7.79704e-05 7.76135e-05 0.120467)
(0.000562429 0.000744079 0.0773248)
(0.000744165 0.00056256 0.0773153)
(0.0010092 -0.000899021 0.0469733)
(0.000736705 0.000689565 0.0644368)
(-0.000901907 0.00100779 0.0469582)
(0.00068991 0.000736698 0.0644292)
(0.00014192 0.000135454 0.1204)
(-8.84428e-06 -0.000300589 0.0862958)
(-0.000301055 -5.60896e-06 0.0862847)
(0.000341205 0.000630517 0.0806586)
(0.000631121 0.000340753 0.0806512)
(7.93177e-05 0.000369081 0.116138)
(0.000102171 6.23955e-05 0.121831)
(0.000425903 0.000667662 0.087219)
(6.70082e-06 6.02806e-05 0.12317)
(-7.92857e-05 0.000368891 0.116139)
(-0.000102292 6.25696e-05 0.121828)
(-0.000427012 0.000666042 0.0872043)
(-6.72846e-06 6.02756e-05 0.12317)
(5.7077e-05 0.000459614 0.101712)
(0.00121588 -0.0043681 0.0406873)
(0.000653873 0.000683679 0.0704401)
(-0.000164713 -0.000388327 0.104012)
(-5.65455e-05 0.000459713 0.101715)
(-0.00121616 -0.00437098 0.0406887)
(-0.000649961 0.000684461 0.070438)
(0.000164164 -0.000388228 0.104019)
(4.70562e-05 0.000284788 0.115714)
(0.000119455 0.000121791 0.121855)
(0.000634241 -0.00100243 0.0934783)
(2.10338e-06 -7.28785e-05 0.122637)
(0.000347708 0.000571143 0.0909802)
(9.45589e-06 2.56638e-05 0.123008)
(-6.8553e-05 -0.000182535 0.117636)
(-4.69885e-05 0.000284613 0.115715)
(-0.000119757 0.00012204 0.121853)
(-0.000632021 -0.00100114 0.0934721)
(-2.20824e-06 -7.28326e-05 0.122636)
(-0.000344378 0.000570546 0.0909942)
(-9.49686e-06 2.56695e-05 0.123007)
(6.81765e-05 -0.000182447 0.117637)
(-7.80129e-05 7.78153e-05 0.120464)
(-0.000562939 0.000741789 0.0772329)
(-0.000743951 0.0005624 0.077322)
(-0.00100997 -0.00090524 0.046976)