/*--------------------------------*- C++ -*----------------------------------*\
| =========                 |                                                 |
| \\      /  F ield         | OpenFOAM: The Open Source CFD Toolbox           |
|  \\    /   O peration     | Version:  2206                                  |
|   \\  /    A nd           | Website:  www.openfoam.com                      |
|    \\/     M anipulation  |                                                 |
\*---------------------------------------------------------------------------*/
FoamFile
{
    version     2.0;
    format      ascii;
    arch        "LSB;label=32;scalar=64";
    class       volScalarField;
    location    "0.1";
    object      nut;
}
// * * * * * * * * * * * * * * * * * * * * * * * * * * * * * * * * * * * * * //

dimensions      [0 2 -1 0 0 0 0];

internalField   nonuniform List<scalar> 
66616
(
1.62791e-06
1.62485e-06
1.6247e-06
1.63303e-06
1.58438e-06
1.54563e-06
1.54972e-06
1.52677e-06
1.51746e-06
1.49182e-06
1.49385e-06
1.45724e-06
1.50779e-06
1.49178e-06
1.49347e-06
1.46034e-06
1.50775e-06
1.4945e-06
1.4961e-06
1.46541e-06
1.50776e-06
1.49458e-06
1.49619e-06
1.46558e-06
1.50776e-06
1.49459e-06
1.49619e-06
1.46558e-06
1.50776e-06
1.49458e-06
1.49619e-06
1.46557e-06
1.50775e-06
1.49459e-06
1.49618e-06
1.46557e-06
1.50775e-06
1.49458e-06
1.49619e-06
1.46557e-06
1.50775e-06
1.49459e-06
1.49619e-06
1.46557e-06
1.50776e-06
1.49459e-06
1.49662e-06
1.46553e-06
1.63935e-06
1.6346e-06
1.63462e-06
1.63934e-06
1.63442e-06
1.63458e-06
1.62838e-06
1.62839e-06
1.62838e-06
1.6284e-06
1.63446e-06
1.63455e-06
1.63932e-06
1.63447e-06
1.63446e-06
1.6393e-06
1.63307e-06
1.54274e-06
1.62423e-06
1.62419e-06
1.5764e-06
1.57653e-06
1.63306e-06
1.54293e-06
1.62482e-06
1.62432e-06
1.57138e-06
1.57205e-06
1.62436e-06
1.57131e-06
1.57198e-06
1.63304e-06
1.54285e-06
1.62464e-06
1.57557e-06
1.57571e-06
1.54302e-06
1.52654e-06
1.46164e-06
1.55037e-06
1.55053e-06
1.50227e-06
1.50238e-06
1.5268e-06
1.46133e-06
1.54567e-06
1.54634e-06
1.50007e-06
1.50028e-06
1.54624e-06
1.49999e-06
1.50017e-06
1.52674e-06
1.46175e-06
1.54983e-06
1.50212e-06
1.50233e-06
1.46181e-06
1.4572e-06
1.45804e-06
1.49387e-06
1.49395e-06
1.49132e-06
1.49139e-06
1.45682e-06
1.45803e-06
1.49182e-06
1.49199e-06
1.48959e-06
1.48967e-06
1.49189e-06
1.48955e-06
1.48957e-06
1.4573e-06
1.45811e-06
1.49396e-06
1.49135e-06
1.49147e-06
1.45806e-06
1.46008e-06
1.46502e-06
1.49325e-06
1.49333e-06
1.4958e-06
1.49583e-06
1.46004e-06
1.4647e-06
1.49173e-06
1.49173e-06
1.49443e-06
1.49434e-06
1.49164e-06
1.49434e-06
1.49427e-06
1.46015e-06
1.46499e-06
1.49346e-06
1.49592e-06
1.49605e-06
1.46498e-06
1.46523e-06
1.46529e-06
1.49584e-06
1.49587e-06
1.49602e-06
1.49608e-06
1.4649e-06
1.46516e-06
1.49448e-06
1.49438e-06
1.49467e-06
1.49457e-06
1.49432e-06
1.49457e-06
1.49451e-06
1.46521e-06
1.46528e-06
1.49609e-06
1.49616e-06
1.49628e-06
1.46525e-06
1.4654e-06
1.46529e-06
1.49592e-06
1.49598e-06
1.49602e-06
1.49605e-06
1.46526e-06
1.46495e-06
1.49457e-06
1.49447e-06
1.49467e-06
1.49457e-06
1.49441e-06
1.4946e-06
1.4945e-06
1.46539e-06
1.46527e-06
1.49618e-06
1.49616e-06
1.49628e-06
1.46524e-06
1.46539e-06
1.46528e-06
1.49592e-06
1.49596e-06
1.49602e-06
1.49608e-06
1.46509e-06
1.46516e-06
1.49457e-06
1.49447e-06
1.49467e-06
1.49457e-06
1.49441e-06
1.49456e-06
1.4945e-06
1.46539e-06
1.46528e-06
1.49618e-06
1.49617e-06
1.49628e-06
1.46523e-06
1.46539e-06
1.46528e-06
1.49592e-06
1.49598e-06
1.49602e-06
1.49604e-06
1.46525e-06
1.46494e-06
1.49457e-06
1.49447e-06
1.49467e-06
1.49457e-06
1.49441e-06
1.49459e-06
1.4945e-06
1.46539e-06
1.46526e-06
1.49618e-06
1.49614e-06
1.49628e-06
1.46524e-06
1.46539e-06
1.46528e-06
1.49592e-06
1.49595e-06
1.49602e-06
1.49608e-06
1.46508e-06
1.46515e-06
1.49457e-06
1.49447e-06
1.49467e-06
1.49457e-06
1.4944e-06
1.49456e-06
1.4945e-06
1.46538e-06
1.46527e-06
1.49618e-06
1.49616e-06
1.49628e-06
1.46524e-06
1.46539e-06
1.46529e-06
1.49592e-06
1.49598e-06
1.49603e-06
1.49605e-06
1.46524e-06
1.46494e-06
1.49457e-06
1.49447e-06
1.49467e-06
1.49457e-06
1.4944e-06
1.49459e-06
1.4945e-06
1.46538e-06
1.46527e-06
1.49618e-06
1.49616e-06
1.49628e-06
1.46524e-06
1.4654e-06
1.4653e-06
1.49592e-06
1.49595e-06
1.496e-06
1.49605e-06
1.46509e-06
1.46518e-06
1.49457e-06
1.49447e-06
1.49467e-06
1.49457e-06
1.49441e-06
1.49458e-06
1.4945e-06
1.46539e-06
1.46528e-06
1.49618e-06
1.49613e-06
1.49626e-06
1.46525e-06
1.46536e-06
1.49636e-06
1.49643e-06
1.46527e-06
1.49462e-06
1.4945e-06
1.49445e-06
1.46536e-06
1.49659e-06
1.63281e-06
1.6334e-06
1.63234e-06
1.63235e-06
1.62239e-06
1.63666e-06
2.09447e-07
1.6336e-06
1.62265e-06
1.63661e-06
1.63359e-06
2.09406e-07
1.64182e-06
1.55656e-07
1.55384e-07
4.97854e-07
2.57812e-08
4.33414e-07
3.25689e-08
3.89052e-08
2.21955e-08
4.97478e-07
2.57861e-08
4.33833e-07
3.25424e-08
1.62784e-06
1.62784e-06
1.62785e-06
1.60543e-06
1.60545e-06
1.60545e-06
1.60546e-06
1.30735e-06
3.23203e-07
1.63239e-06
1.61507e-06
1.485e-06
3.49248e-07
1.62917e-06
3.88611e-08
2.21748e-08
1.30596e-06
1.63228e-06
3.23109e-07
1.61497e-06
1.48506e-06
1.62932e-06
3.49311e-07
1.9057e-07
1.9051e-07
1.60905e-06
1.65808e-07
1.65669e-07
3.80596e-07
3.07954e-08
3.69447e-07
3.65364e-08
1.81983e-08
1.98254e-08
3.60661e-07
2.9915e-08
3.60414e-07
3.55587e-08
1.58433e-06
1.58432e-06
1.58433e-06
1.5272e-06
1.52723e-06
1.52722e-06
1.52726e-06
1.03e-06
2.75954e-07
1.58135e-06
1.52549e-06
1.04681e-06
3.34033e-07
1.55773e-06
1.79096e-08
1.94505e-08
1.06627e-06
1.5833e-06
2.85477e-07
1.52831e-06
1.07701e-06
1.5595e-06
3.46656e-07
1.37508e-07
1.3947e-07
1.49076e-06
1.49801e-07
1.52877e-07
4.43231e-07
4.62951e-08
4.13164e-07
6.23929e-08
2.32874e-08
2.94393e-08
4.18718e-07
4.53804e-08
3.90886e-07
6.09544e-08
1.51732e-06
1.51732e-06
1.51733e-06
1.5081e-06
1.50811e-06
1.50811e-06
1.50812e-06
1.14239e-06
4.2764e-07
1.51167e-06
1.48842e-06
1.12575e-06
4.8226e-07
1.50583e-06
2.29498e-08
2.902e-08
1.17231e-06
1.51323e-06
4.43996e-07
1.49036e-06
1.15252e-06
1.50731e-06
5.0141e-07
1.80956e-07
1.84403e-07
1.45264e-06
2.08821e-07
2.13068e-07
5.21199e-07
8.65326e-08
5.06057e-07
9.10346e-08
3.71702e-08
3.85416e-08
4.92576e-07
8.46634e-08
4.79744e-07
8.89771e-08
1.50764e-06
1.50764e-06
1.50765e-06
1.5077e-06
1.50771e-06
1.50771e-06
1.50772e-06
1.20337e-06
5.64468e-07
1.50368e-06
1.49313e-06
1.19438e-06
5.80707e-07
1.50392e-06
3.66174e-08
3.7911e-08
1.23305e-06
1.50474e-06
5.84848e-07
1.49478e-06
1.21935e-06
1.50488e-06
6.0331e-07
2.51762e-07
2.5709e-07
1.46389e-06
2.60466e-07
2.66345e-07
5.26573e-07
9.22164e-08
5.25292e-07
9.24012e-08
3.88754e-08
3.89435e-08
4.97586e-07
9.01122e-08
4.97109e-07
9.03444e-08
1.50759e-06
1.50759e-06
1.5076e-06
1.50773e-06
1.50772e-06
1.50772e-06
1.50773e-06
1.20905e-06
5.85344e-07
1.50451e-06
1.49446e-06
1.21203e-06
5.8645e-07
1.50441e-06
3.8245e-08
3.83251e-08
1.23894e-06
1.50538e-06
6.07299e-07
1.49606e-06
1.2384e-06
1.50527e-06
6.09222e-07
2.62882e-07
2.6886e-07
1.46552e-06
2.6365e-07
2.69658e-07
5.26619e-07
9.23041e-08
5.25666e-07
9.2419e-08
3.8911e-08
3.89549e-08
4.97506e-07
9.01885e-08
4.97453e-07
9.03423e-08
1.5076e-06
1.5076e-06
1.5076e-06
1.50773e-06
1.50772e-06
1.50772e-06
1.50773e-06
1.20901e-06
5.85897e-07
1.50455e-06
1.49449e-06
1.21251e-06
5.86339e-07
1.50441e-06
3.82714e-08
3.83293e-08
1.23909e-06
1.50543e-06
6.07755e-07
1.49609e-06
1.23898e-06
1.50529e-06
6.09327e-07
2.63193e-07
2.69129e-07
1.46554e-06
2.63675e-07
2.69702e-07
5.26642e-07
9.23e-08
5.25677e-07
9.24171e-08
3.88994e-08
3.8949e-08
4.97557e-07
9.01835e-08
4.97438e-07
9.0347e-08
1.5076e-06
1.5076e-06
1.5076e-06
1.50773e-06
1.50772e-06
1.50773e-06
1.50774e-06
1.20906e-06
5.85787e-07
1.50455e-06
1.49449e-06
1.2125e-06
5.86474e-07
1.50441e-06
3.82778e-08
3.83263e-08
1.23895e-06
1.50542e-06
6.07759e-07
1.49609e-06
1.23915e-06
1.50529e-06
6.09313e-07
2.632e-07
2.69137e-07
1.46554e-06
2.63691e-07
2.69719e-07
5.26595e-07
9.2296e-08
5.25631e-07
9.24172e-08
3.89098e-08
3.89528e-08
4.97563e-07
9.01805e-08
4.97428e-07
9.0348e-08
1.50759e-06
1.5076e-06
1.50761e-06
1.50773e-06
1.50773e-06
1.50772e-06
1.50773e-06
1.20906e-06
5.85898e-07
1.50455e-06
1.49449e-06
1.21249e-06
5.86362e-07
1.50442e-06
3.82724e-08
3.83289e-08
1.23907e-06
1.50543e-06
6.07756e-07
1.49609e-06
1.23894e-06
1.50529e-06
6.0932e-07
2.63197e-07
2.69123e-07
1.46554e-06
2.63668e-07
2.69707e-07
5.26592e-07
9.22935e-08
5.25635e-07
9.24081e-08
3.88967e-08
3.89452e-08
4.97557e-07
9.01793e-08
4.97422e-07
9.03453e-08
1.5076e-06
1.5076e-06
1.50761e-06
1.50772e-06
1.50772e-06
1.50772e-06
1.50773e-06
1.20906e-06
5.85784e-07
1.50456e-06
1.49448e-06
1.21247e-06
5.86475e-07
1.5044e-06
3.82781e-08
3.83285e-08
1.23906e-06
1.50542e-06
6.07753e-07
1.49608e-06
1.23896e-06
1.50529e-06
6.09306e-07
2.63168e-07
2.69127e-07
1.46553e-06
2.63654e-07
2.69714e-07
5.26571e-07
9.22961e-08
5.25626e-07
9.24158e-08
3.89076e-08
3.89526e-08
4.97552e-07
9.01792e-08
4.97422e-07
9.03471e-08
1.5076e-06
1.5076e-06
1.5076e-06
1.50773e-06
1.50772e-06
1.50772e-06
1.50773e-06
1.20906e-06
5.85895e-07
1.50454e-06
1.49449e-06
1.21248e-06
5.86355e-07
1.50441e-06
3.82757e-08
3.83257e-08
1.23907e-06
1.50543e-06
6.07756e-07
1.49609e-06
1.23898e-06
1.50529e-06
6.09299e-07
2.6319e-07
2.69119e-07
1.46554e-06
2.6367e-07
2.69701e-07
5.26831e-07
9.23162e-08
5.25564e-07
9.24269e-08
3.88981e-08
3.89465e-08
4.97665e-07
9.01837e-08
4.97394e-07
9.03396e-08
1.50759e-06
1.5076e-06
1.5076e-06
1.50772e-06
1.50772e-06
1.50772e-06
1.50773e-06
1.20906e-06
5.85728e-07
1.50455e-06
1.49449e-06
1.21248e-06
5.86669e-07
1.50441e-06
3.82735e-08
3.8326e-08
1.23904e-06
1.50543e-06
6.07663e-07
1.49609e-06
1.23897e-06
1.50529e-06
6.09559e-07
2.63213e-07
2.69123e-07
1.46554e-06
2.63695e-07
2.69738e-07
5.11272e-07
9.23315e-08
5.23939e-07
9.1653e-08
3.89282e-08
3.87229e-08
9.02127e-08
4.96984e-07
1.50761e-06
1.50761e-06
1.50762e-06
1.20981e-06
5.84992e-07
1.50455e-06
1.49391e-06
1.21248e-06
5.87839e-07
1.50415e-06
3.82901e-08
1.21392e-06
1.50566e-06
6.0663e-07
1.24021e-06
1.50451e-06
2.63144e-07
2.68942e-07
1.46555e-06
2.63726e-07
2.67824e-07
1.64183e-06
1.55402e-07
1.55287e-07
7.32397e-09
8.35242e-08
7.31985e-09
8.32519e-08
1.64058e-06
1.43961e-07
1.43717e-07
1.63952e-07
1.6383e-07
1.62233e-06
1.6366e-06
2.09566e-07
1.63359e-06
1.62279e-06
1.63661e-06
2.09455e-07
1.63353e-06
4.60155e-07
2.57364e-09
1.02362e-07
3.22845e-07
4.60232e-07
2.57301e-09
1.02298e-07
3.22875e-07
1.65497e-06
1.63422e-06
1.99688e-07
1.63135e-06
2.40482e-07
1.63327e-06
1.53237e-06
1.65498e-06
1.63423e-06
1.99608e-07
1.63131e-06
2.40621e-07
1.63322e-06
1.5324e-06
1.6418e-06
1.55637e-07
1.55079e-07
7.30413e-09
8.30815e-08
1.64057e-06
1.43511e-07
1.437e-07
1.62969e-07
1.63612e-07
7.30797e-09
8.27652e-08
1.62267e-06
1.63659e-06
2.09515e-07
1.63358e-06
1.62256e-06
1.63663e-06
1.6335e-06
2.0938e-07
4.60213e-07
2.57407e-09
1.02338e-07
3.22816e-07
1.65495e-06
1.63424e-06
1.99673e-07
1.63125e-06
2.40427e-07
1.63323e-06
1.53242e-06
4.60198e-07
2.57097e-09
1.02184e-07
3.22797e-07
1.65502e-06
1.63426e-06
1.63121e-06
1.99572e-07
1.63316e-06
2.4053e-07
1.5325e-06
1.63276e-06
1.63336e-06
1.6322e-06
1.63232e-06
1.63276e-06
1.63335e-06
1.63227e-06
1.63228e-06
1.63274e-06
1.63339e-06
1.63229e-06
1.63224e-06
1.63158e-06
1.6321e-06
1.62755e-06
1.62754e-06
1.63133e-06
1.63133e-06
1.62752e-06
1.63154e-06
1.6321e-06
1.62752e-06
1.6275e-06
1.63124e-06
1.63131e-06
1.62751e-06
1.63154e-06
1.6321e-06
1.62749e-06
1.62754e-06
1.63127e-06
1.6313e-06
1.62751e-06
1.63154e-06
1.63212e-06
1.62753e-06
1.62752e-06
1.63129e-06
1.63126e-06
1.62752e-06
1.62278e-06
1.63658e-06
1.63347e-06
2.09413e-07
1.65474e-06
1.6343e-06
1.99625e-07
1.63119e-06
2.40319e-07
1.63321e-06
1.5318e-06
4.60167e-07
2.57137e-09
1.02152e-07
3.22688e-07
1.65493e-06
1.63423e-06
1.63122e-06
1.99609e-07
1.63315e-06
2.40571e-07
1.53201e-06
4.60212e-07
2.5734e-09
1.02255e-07
3.2278e-07
1.64179e-06
1.55542e-07
1.55002e-07
7.30003e-09
8.29667e-08
1.64056e-06
1.43396e-07
1.43712e-07
1.62872e-07
1.63536e-07
7.30337e-09
8.25671e-08
1.6227e-06
1.6366e-06
1.63345e-06
2.09284e-07
1.65481e-06
1.63424e-06
1.63127e-06
1.99578e-07
1.63323e-06
2.40258e-07
1.53187e-06
1.65501e-06
1.63423e-06
1.63131e-06
1.99508e-07
1.63317e-06
2.40388e-07
1.53218e-06
4.60191e-07
2.56642e-09
1.02009e-07
3.22862e-07
4.6023e-07
2.56505e-09
1.01853e-07
3.2297e-07
1.64061e-06
1.43542e-07
1.43263e-07
1.62974e-07
1.62704e-07
7.30317e-09
8.3101e-08
7.2878e-09
8.24458e-08
3.89565e-08
2.22051e-08
3.89271e-08
2.22069e-08
1.91093e-07
1.90889e-07
1.6091e-06
1.65797e-07
1.65883e-07
1.79117e-08
1.93947e-08
1.76442e-08
1.94272e-08
1.59157e-06
1.39432e-07
1.36263e-07
1.55981e-07
1.55893e-07
4.97889e-07
2.57764e-08
4.33507e-07
3.25509e-08
1.30615e-06
3.23225e-07
1.63225e-06
1.61489e-06
1.48567e-06
3.49563e-07
1.62939e-06
1.30605e-06
3.23042e-07
1.6322e-06
1.61483e-06
1.48563e-06
3.49575e-07
1.62936e-06
4.68023e-07
2.99046e-08
3.08399e-08
3.80985e-07
4.681e-07
2.98986e-08
3.086e-08
3.8141e-07
1.23353e-06
1.5988e-06
2.87855e-07
1.60545e-06
3.26393e-07
1.62132e-06
1.09426e-06
1.23366e-06
1.59889e-06
2.87963e-07
1.60543e-06
3.26529e-07
1.62129e-06
1.09483e-06
1.90736e-07
1.90836e-07
1.60905e-06
1.65751e-07
1.65707e-07
3.88745e-08
2.21687e-08
1.79185e-08
1.93903e-08
1.59153e-06
1.39274e-07
1.3669e-07
1.55963e-07
1.55731e-07
1.76264e-08
1.94007e-08
1.3074e-06
3.23235e-07
1.63235e-06
1.6151e-06
1.48575e-06
3.49503e-07
1.62926e-06
4.97445e-07
2.57796e-08
4.33838e-07
3.25273e-08
1.30744e-06
1.63228e-06
3.23043e-07
1.61547e-06
1.48577e-06
1.62923e-06
3.49324e-07
4.67585e-07
2.90102e-08
3.08847e-08
3.75522e-07
1.23122e-06
1.59661e-06
2.79969e-07
1.60412e-06
3.26522e-07
1.62159e-06
1.06985e-06
4.67506e-07
2.90101e-08
3.09025e-08
3.75211e-07
1.23112e-06
1.59712e-06
1.60386e-06
2.79966e-07
1.62141e-06
3.26424e-07
1.06929e-06
4.97378e-07
2.57712e-08
4.33723e-07
3.25166e-08
1.30746e-06
1.63231e-06
3.23106e-07
1.61548e-06
1.48562e-06
1.62925e-06
3.49327e-07
4.97428e-07
2.5781e-08
4.338e-07
3.2527e-08
1.23124e-06
1.59654e-06
2.79944e-07
1.60402e-06
3.26303e-07
1.62167e-06
1.06813e-06
4.6743e-07
2.90063e-08
3.08974e-08
3.74611e-07
1.23154e-06
1.59709e-06
1.60386e-06
2.79981e-07
1.62144e-06
3.26422e-07
1.06918e-06
4.67573e-07
2.90131e-08
3.0909e-08
3.75175e-07
1.90517e-07
1.90952e-07
1.60906e-06
1.65681e-07
1.65678e-07
3.88879e-08
2.21804e-08
1.7632e-08
1.9401e-08
1.59146e-06
1.36549e-07
1.39241e-07
1.55729e-07
1.55862e-07
1.79043e-08
1.93816e-08
1.30613e-06
1.63223e-06
3.22948e-07
1.61494e-06
1.48581e-06
1.62938e-06
3.49352e-07
4.97934e-07
2.57628e-08
4.33519e-07
3.25371e-08
4.98076e-07
2.57643e-08
4.33655e-07
3.25377e-08
1.23364e-06
1.59783e-06
1.6056e-06
2.87688e-07
1.62148e-06
3.26229e-07
1.09458e-06
1.234e-06
1.59796e-06
1.60562e-06
2.87903e-07
1.6214e-06
3.26351e-07
1.09548e-06
4.68065e-07
2.98873e-08
3.08457e-08
3.81278e-07
4.6836e-07
2.98894e-08
3.08476e-08
3.81868e-07
3.88433e-08
2.21645e-08
3.8833e-08
2.21781e-08
1.59148e-06
1.36757e-07
1.39169e-07
1.5582e-07
1.55791e-07
1.76262e-08
1.93945e-08
1.79156e-08
1.93813e-08
1.82015e-08
1.98012e-08
1.79243e-08
1.94348e-08
1.40087e-07
1.36978e-07
1.49027e-06
1.53122e-07
1.48922e-07
2.20116e-08
2.0246e-08
2.15641e-08
1.99039e-08
1.48104e-06
1.80911e-07
1.75823e-07
1.62331e-07
1.58139e-07
3.80823e-07
3.08035e-08
3.7029e-07
3.65334e-08
1.06721e-06
2.85953e-07
1.58308e-06
1.52872e-06
1.07741e-06
3.46784e-07
1.55932e-06
1.06727e-06
2.85868e-07
1.58306e-06
1.52887e-06
1.0779e-06
3.46647e-07
1.55931e-06
3.97859e-07
4.33657e-08
3.84937e-08
4.09159e-07
3.98499e-07
4.33739e-08
3.85049e-08
4.09322e-07
1.08911e-06
1.51451e-06
4.30365e-07
1.52348e-06
3.81976e-07
1.53897e-06
1.14021e-06
1.0894e-06
1.51465e-06
4.30188e-07
1.52348e-06
3.82167e-07
1.53897e-06
1.14028e-06
1.39638e-07
1.37757e-07
1.49059e-06
1.52588e-07
1.49881e-07
1.79102e-08
1.94382e-08
2.20115e-08
2.0261e-08
1.48132e-06
1.80205e-07
1.76792e-07
1.61843e-07
1.59056e-07
2.1616e-08
1.99138e-08
1.03082e-06
2.75947e-07
1.58141e-06
1.52541e-06
1.04923e-06
3.33334e-07
1.55771e-06
3.60724e-07
2.99392e-08
3.60432e-07
3.55883e-08
1.03099e-06
1.58117e-06
2.76133e-07
1.52601e-06
1.04857e-06
1.55754e-06
3.33928e-07
3.79598e-07
4.23204e-08
3.7674e-08
3.86555e-07
1.05892e-06
1.51203e-06
4.13293e-07
1.52198e-06
3.69116e-07
1.53742e-06
1.10866e-06
3.79966e-07
4.23905e-08
3.77055e-08
3.86539e-07
1.05935e-06
1.51239e-06
1.52188e-06
4.13624e-07
1.53729e-06
3.69899e-07
1.10874e-06
3.60173e-07
2.99359e-08
3.59747e-07
3.55612e-08
1.03068e-06
1.58113e-06
2.76165e-07
1.52587e-06
1.04869e-06
1.55752e-06
3.33907e-07
3.60579e-07
2.99425e-08
3.60338e-07
3.55835e-08
1.05912e-06
1.51215e-06
4.13913e-07
1.52197e-06
3.69885e-07
1.53748e-06
1.10855e-06
3.79731e-07
4.23589e-08
3.76881e-08
3.86374e-07
1.05957e-06
1.51226e-06
1.52185e-06
4.13843e-07
1.53727e-06
3.6984e-07
1.10872e-06
3.79931e-07
4.2379e-08
3.77023e-08
3.86474e-07
1.37546e-07
1.39853e-07
1.49075e-06
1.49674e-07
1.53039e-07
1.81924e-08
1.97956e-08
2.16262e-08
1.99209e-08
1.48144e-06
1.76385e-07
1.80716e-07
1.58824e-07
1.62374e-07
2.1994e-08
2.02353e-08
1.06665e-06
1.58326e-06
2.85887e-07
1.52843e-06
1.07876e-06
1.55946e-06
3.46529e-07
3.80211e-07
3.07849e-08
3.70137e-07
3.64705e-08
3.8058e-07
3.0786e-08
3.70729e-07
3.64682e-08
1.08861e-06
1.51441e-06
1.52353e-06
4.30289e-07
1.53908e-06
3.82146e-07
1.1397e-06
1.08905e-06
1.51446e-06
1.52358e-06
4.30103e-07
1.5391e-06
3.82152e-07
1.13995e-06
3.97902e-07
4.33032e-08
3.84562e-08
4.09189e-07
3.98205e-07
4.33081e-08
3.84645e-08
4.09346e-07
1.79075e-08
1.94257e-08
1.82036e-08
1.98116e-08
1.4815e-06
1.7682e-07
1.80223e-07
1.58819e-07
1.62033e-07
2.16055e-08
1.99113e-08
2.19969e-08
2.02415e-08
2.33043e-08
2.94344e-08
2.2874e-08
2.89304e-08
1.85138e-07
1.79885e-07
1.45243e-06
2.13822e-07
2.07529e-07
3.62485e-08
3.15709e-08
3.5694e-08
3.10973e-08
1.45302e-06
2.52287e-07
2.45403e-07
2.25226e-07
2.19032e-07
4.43394e-07
4.63168e-08
4.13372e-07
6.24265e-08
1.17261e-06
4.44188e-07
1.51304e-06
1.49036e-06
1.15415e-06
5.01727e-07
1.50727e-06
1.17267e-06
4.43941e-07
1.51304e-06
1.49042e-06
1.15413e-06
5.01433e-07
1.50728e-06
4.58079e-07
8.36677e-08
6.8762e-08
4.97844e-07
4.58301e-07
8.36949e-08
6.88192e-08
4.97914e-07
1.18277e-06
1.49045e-06
5.75215e-07
1.50463e-06
5.22634e-07
1.50508e-06
1.21142e-06
1.18285e-06
1.49053e-06
5.75157e-07
1.50463e-06
5.22249e-07
1.50508e-06
1.21119e-06
1.84358e-07
1.80958e-07
1.45218e-06
2.12958e-07
2.08898e-07
2.29413e-08
2.90012e-08
3.62925e-08
3.15759e-08
1.45294e-06
2.51791e-07
2.46246e-07
2.24387e-07
2.20283e-07
3.57018e-08
3.11521e-08
1.14246e-06
4.27032e-07
1.51155e-06
1.48842e-06
1.1272e-06
4.81326e-07
1.50582e-06
4.18843e-07
4.55095e-08
3.90893e-07
6.11395e-08
1.1427e-06
1.51147e-06
4.27399e-07
1.48858e-06
1.12709e-06
1.50576e-06
4.82134e-07
4.34275e-07
8.1795e-08
6.72958e-08
4.7074e-07
1.15662e-06
1.48859e-06
5.53411e-07
1.50354e-06
5.03072e-07
1.50383e-06
1.183e-06
4.34434e-07
8.18489e-08
6.74837e-08
4.70842e-07
1.1569e-06
1.48872e-06
1.5035e-06
5.53675e-07
1.50379e-06
5.03792e-07
1.18303e-06
4.18675e-07
4.5459e-08
3.90717e-07
6.10528e-08
1.14262e-06
1.51146e-06
4.27629e-07
1.48849e-06
1.12731e-06
1.50576e-06
4.82332e-07
4.18727e-07
4.54875e-08
3.90824e-07
6.10953e-08
1.15676e-06
1.4885e-06
5.53952e-07
1.50354e-06
5.03941e-07
1.5037e-06
1.18279e-06
4.34339e-07
8.18107e-08
6.73952e-08
4.70906e-07
1.15692e-06
1.48863e-06
1.50349e-06
5.53925e-07
1.50378e-06
5.0397e-07
1.18303e-06
4.3436e-07
8.18268e-08
6.74429e-08
4.70858e-07
1.80533e-07
1.84928e-07
1.45254e-06
2.08409e-07
2.13719e-07
2.32822e-08
2.94413e-08
3.57282e-08
3.11692e-08
1.45313e-06
2.45809e-07
2.52294e-07
2.19805e-07
2.25148e-07
3.62775e-08
3.15875e-08
1.17247e-06
1.51312e-06
4.43842e-07
1.49046e-06
1.15415e-06
1.50733e-06
5.01133e-07
4.4304e-07
4.62261e-08
4.13173e-07
6.22863e-08
4.43177e-07
4.623e-08
4.13347e-07
6.22778e-08
1.18258e-06
1.49036e-06
1.50466e-06
5.75269e-07
1.50497e-06
5.22368e-07
1.21072e-06
1.18268e-06
1.49057e-06
1.50467e-06
5.74974e-07
1.50512e-06
5.22119e-07
1.21115e-06
4.57944e-07
8.3652e-08
6.86955e-08
4.97652e-07
4.58069e-07
8.36573e-08
6.86974e-08
4.977e-07
2.29339e-08
2.89792e-08
2.32827e-08
2.94356e-08
1.4532e-06
2.46316e-07
2.5166e-07
2.20192e-07
2.24448e-07
3.56884e-08
3.11335e-08
3.62797e-08
3.15844e-08
3.71521e-08
3.85065e-08
3.66082e-08
3.79026e-08
2.57823e-07
2.50986e-07
1.46371e-06
2.67021e-07
2.59669e-07
3.88815e-08
3.86589e-08
3.82713e-08
3.806e-08
1.46439e-06
2.69774e-07
2.62299e-07
2.67959e-07
2.6065e-07
5.21153e-07
8.65686e-08
5.06205e-07
9.1022e-08
1.23319e-06
5.84948e-07
1.50456e-06
1.49465e-06
1.22057e-06
6.03322e-07
1.50484e-06
1.23255e-06
5.84602e-07
1.50455e-06
1.49472e-06
1.22024e-06
6.03067e-07
1.50484e-06
5.22487e-07
9.22681e-08
9.15174e-08
5.25968e-07
5.22468e-07
9.22404e-08
9.1493e-08
5.25789e-07
1.23652e-06
1.49544e-06
6.0853e-07
1.50528e-06
6.04458e-07
1.50512e-06
1.2377e-06
1.23603e-06
1.49545e-06
6.08473e-07
1.50528e-06
6.04033e-07
1.50514e-06
1.23713e-06
2.5727e-07
2.51773e-07
1.4636e-06
2.66684e-07
2.60083e-07
3.66094e-08
3.7885e-08
3.88921e-08
3.8691e-08
1.46428e-06
2.69257e-07
2.62896e-07
2.67558e-07
2.61062e-07
3.82611e-08
3.80388e-08
1.20348e-06
5.64023e-07
1.50353e-06
1.49322e-06
1.19498e-06
5.80552e-07
1.50395e-06
4.92628e-07
8.46962e-08
4.79817e-07
8.89291e-08
1.20343e-06
1.5035e-06
5.6417e-07
1.49316e-06
1.19487e-06
1.50391e-06
5.80453e-07
4.947e-07
9.0178e-08
8.94732e-08
4.96919e-07
1.20967e-06
1.49406e-06
5.85451e-07
1.50445e-06
5.82565e-07
1.50429e-06
1.20866e-06
4.94744e-07
9.00951e-08
8.94156e-08
4.96871e-07
1.20954e-06
1.49398e-06
1.5044e-06
5.85273e-07
1.50425e-06
5.82431e-07
1.20827e-06
4.92704e-07
8.46713e-08
4.79883e-07
8.89261e-08
1.20351e-06
1.50349e-06
5.6443e-07
1.49308e-06
1.19492e-06
1.5039e-06
5.80759e-07
4.92661e-07
8.46811e-08
4.79845e-07
8.89185e-08
1.2097e-06
1.49393e-06
5.85709e-07
1.50443e-06
5.82857e-07
1.50421e-06
1.20825e-06
4.94805e-07
9.01029e-08
8.94152e-08
4.96927e-07
1.20975e-06
1.49392e-06
1.5044e-06
5.85633e-07
1.50425e-06
5.82748e-07
1.20837e-06
4.94777e-07
9.00884e-08
8.94068e-08
4.96894e-07
2.51318e-07
2.57769e-07
1.46368e-06
2.59875e-07
2.66888e-07
3.71741e-08
3.8515e-08
3.8268e-08
3.80667e-08
1.46438e-06
2.62467e-07
2.69709e-07
2.60841e-07
2.67762e-07
3.88899e-08
3.86665e-08
1.23272e-06
1.50459e-06
5.84704e-07
1.49488e-06
1.22034e-06
1.50489e-06
6.03102e-07
5.21055e-07
8.65378e-08
5.05981e-07
9.10037e-08
5.2106e-07
8.65525e-08
5.06024e-07
9.10276e-08
1.23618e-06
1.49554e-06
1.5053e-06
6.08559e-07
1.50511e-06
6.04381e-07
1.23733e-06
1.23601e-06
1.49569e-06
1.50533e-06
6.08367e-07
1.50519e-06
6.04203e-07
1.23761e-06
5.22372e-07
9.22241e-08
9.14949e-08
5.25757e-07
5.22385e-07
9.22561e-08
9.15014e-08
5.25752e-07
3.65981e-08
3.78781e-08
3.71818e-08
3.85302e-08
1.46455e-06
2.63175e-07
2.69219e-07
2.61488e-07
2.67251e-07
3.82519e-08
3.80382e-08
3.89142e-08
3.86843e-08
3.88718e-08
3.89287e-08
3.82537e-08
3.83276e-08
2.69462e-07
2.62037e-07
1.46536e-06
2.70178e-07
2.62724e-07
3.8935e-08
3.89007e-08
3.83316e-08
3.82865e-08
1.46544e-06
2.70235e-07
2.62782e-07
2.69675e-07
2.62275e-07
5.26424e-07
9.2203e-08
5.25211e-07
9.23667e-08
1.2388e-06
6.07419e-07
1.5052e-06
1.4959e-06
1.23956e-06
6.09166e-07
1.50522e-06
1.23819e-06
6.07222e-07
1.5052e-06
1.49594e-06
1.23894e-06
6.08923e-07
1.50523e-06
5.25644e-07
9.24157e-08
9.23042e-08
5.26667e-07
5.25549e-07
9.23894e-08
9.22715e-08
5.2656e-07
1.23991e-06
1.496e-06
6.09196e-07
1.50535e-06
6.07758e-07
1.50531e-06
1.23846e-06
1.23955e-06
1.49604e-06
6.09059e-07
1.50536e-06
6.07356e-07
1.50532e-06
1.23795e-06
2.68936e-07
2.62629e-07
1.46508e-06
2.69658e-07
2.63349e-07
3.82399e-08
3.83119e-08
3.89469e-08
3.89184e-08
1.46521e-06
2.6969e-07
2.63389e-07
2.69124e-07
2.6291e-07
3.83164e-08
3.82678e-08
1.20919e-06
5.85221e-07
1.50438e-06
1.49455e-06
1.21271e-06
5.86242e-07
1.50441e-06
4.97572e-07
9.00438e-08
4.9707e-07
9.02599e-08
1.20913e-06
1.50433e-06
5.85035e-07
1.49445e-06
1.21232e-06
1.50436e-06
5.86043e-07
4.97457e-07
9.03488e-08
9.02148e-08
4.97673e-07
1.21292e-06
1.49466e-06
5.86268e-07
1.50454e-06
5.85668e-07
1.5045e-06
1.2096e-06
4.97457e-07
9.02911e-08
9.01321e-08
4.97645e-07
1.21284e-06
1.49455e-06
1.50449e-06
5.86106e-07
1.50446e-06
5.85479e-07
1.20924e-06
4.97627e-07
9.00509e-08
4.97118e-07
9.02751e-08
1.20923e-06
1.50433e-06
5.85398e-07
1.49439e-06
1.21249e-06
1.50436e-06
5.8643e-07
4.97595e-07
9.00407e-08
4.97092e-07
9.02582e-08
1.21294e-06
1.4945e-06
5.86485e-07
1.50455e-06
5.85912e-07
1.50445e-06
1.20921e-06
4.97505e-07
9.02989e-08
9.01493e-08
4.97706e-07
1.21303e-06
1.49449e-06
1.50449e-06
5.86519e-07
1.50446e-06
5.85865e-07
1.20933e-06
4.97481e-07
9.02923e-08
9.01326e-08
4.97674e-07
2.62208e-07
2.69393e-07
1.46533e-06
2.62893e-07
2.70187e-07
3.88842e-08
3.89439e-08
3.83218e-08
3.82836e-08
1.46544e-06
2.6295e-07
2.70293e-07
2.62447e-07
2.69679e-07
3.8956e-08
3.89174e-08
1.23852e-06
1.50525e-06
6.07207e-07
1.49616e-06
1.23943e-06
1.50528e-06
6.09064e-07
5.26415e-07
9.21935e-08
5.25157e-07
9.23755e-08
5.264e-07
9.22173e-08
5.25172e-07
9.24002e-08
1.23986e-06
1.4961e-06
1.5054e-06
6.09329e-07
1.50531e-06
6.07759e-07
1.23829e-06
1.23963e-06
1.49626e-06
1.50541e-06
6.09157e-07
1.50538e-06
6.07634e-07
1.2385e-06
5.25533e-07
9.24007e-08
9.22789e-08
5.26585e-07
5.25531e-07
9.2419e-08
9.23018e-08
5.2657e-07
3.82369e-08
3.83044e-08
3.89068e-08
3.89658e-08
1.46559e-06
2.63722e-07
2.69723e-07
2.63222e-07
2.6915e-07
3.83226e-08
3.8267e-08
3.8973e-08
3.8938e-08
3.8902e-08
3.89329e-08
3.82823e-08
3.83215e-08
2.69701e-07
2.62282e-07
1.46538e-06
2.70203e-07
2.6273e-07
3.89355e-08
3.89024e-08
3.83266e-08
3.82782e-08
1.46545e-06
2.70215e-07
2.62759e-07
2.69675e-07
2.62253e-07
5.26513e-07
9.22825e-08
5.25628e-07
9.23949e-08
1.23894e-06
6.07763e-07
1.50523e-06
1.49593e-06
1.24003e-06
6.092e-07
1.50523e-06
1.23828e-06
6.0732e-07
1.50523e-06
1.49598e-06
1.23946e-06
6.08891e-07
1.50524e-06
5.25657e-07
9.24114e-08
9.23156e-08
5.2666e-07
5.25578e-07
9.23936e-08
9.22933e-08
5.26572e-07
1.24e-06
1.496e-06
6.09174e-07
1.50535e-06
6.07769e-07
1.50531e-06
1.2385e-06
1.23967e-06
1.49601e-06
6.0912e-07
1.50536e-06
6.07322e-07
1.50532e-06
1.23823e-06
2.69137e-07
2.62887e-07
1.46524e-06
2.69821e-07
2.63158e-07
3.82601e-08
3.83042e-08
3.89391e-08
3.89291e-08
1.46531e-06
2.69687e-07
2.63351e-07
2.69296e-07
2.62651e-07
3.8317e-08
3.82566e-08
1.2091e-06
5.85584e-07
1.50441e-06
1.49458e-06
1.21318e-06
5.86192e-07
1.50441e-06
4.97504e-07
9.01435e-08
4.97423e-07
9.0289e-08
1.20905e-06
1.50436e-06
5.85438e-07
1.49448e-06
1.21279e-06
1.50436e-06
5.86042e-07
4.97325e-07
9.03374e-08
9.0207e-08
4.97606e-07
1.21276e-06
1.49465e-06
5.86223e-07
1.50453e-06
5.85577e-07
1.50449e-06
1.20953e-06
4.9734e-07
9.02956e-08
9.01546e-08
4.97575e-07
1.21269e-06
1.49456e-06
1.50448e-06
5.86083e-07
1.50445e-06
5.85431e-07
1.20918e-06
4.97582e-07
9.01511e-08
4.97482e-07
9.02882e-08
1.20917e-06
1.50436e-06
5.85848e-07
1.49441e-06
1.21297e-06
1.50436e-06
5.8644e-07
4.97545e-07
9.0148e-08
4.97455e-07
9.02815e-08
1.21284e-06
1.49453e-06
5.86496e-07
1.50453e-06
5.85881e-07
1.50443e-06
1.20916e-06
4.9741e-07
9.02927e-08
9.01519e-08
4.97641e-07
1.21291e-06
1.49449e-06
1.50448e-06
5.86488e-07
1.50445e-06
5.85816e-07
1.20928e-06
4.97383e-07
9.0304e-08
9.01433e-08
4.97606e-07
2.62458e-07
2.69742e-07
1.46536e-06
2.62922e-07
2.70317e-07
3.89257e-08
3.89596e-08
3.83289e-08
3.82868e-08
1.46545e-06
2.62954e-07
2.70334e-07
2.6245e-07
2.69764e-07
3.89592e-08
3.89285e-08
1.23866e-06
1.50528e-06
6.07648e-07
1.49619e-06
1.24001e-06
1.50529e-06
6.0914e-07
5.26548e-07
9.22972e-08
5.25637e-07
9.24093e-08
5.26525e-07
9.23122e-08
5.25645e-07
9.24084e-08
1.23991e-06
1.49611e-06
1.5054e-06
6.0934e-07
1.50531e-06
6.0783e-07
1.2384e-06
1.23972e-06
1.49627e-06
1.50541e-06
6.09143e-07
1.50538e-06
6.0767e-07
1.23851e-06
5.25595e-07
9.2396e-08
9.23051e-08
5.26601e-07
5.25591e-07
9.24123e-08
9.2303e-08
5.26558e-07
3.82767e-08
3.83178e-08
3.89408e-08
3.897e-08
1.46559e-06
2.63718e-07
2.6973e-07
2.63213e-07
2.69172e-07
3.83171e-08
3.82757e-08
3.89722e-08
3.89396e-08
3.89031e-08
3.89338e-08
3.82803e-08
3.83243e-08
2.69683e-07
2.62274e-07
1.46537e-06
2.70208e-07
2.62748e-07
3.89364e-08
3.89026e-08
3.83254e-08
3.82801e-08
1.46544e-06
2.70219e-07
2.62756e-07
2.69675e-07
2.62267e-07
5.26604e-07
9.2285e-08
5.25664e-07
9.23975e-08
1.23898e-06
6.07742e-07
1.50523e-06
1.49593e-06
1.24004e-06
6.09203e-07
1.50523e-06
1.23871e-06
6.0758e-07
1.50523e-06
1.49597e-06
1.23968e-06
6.08967e-07
1.50524e-06
5.25682e-07
9.24088e-08
9.23132e-08
5.26637e-07
5.25684e-07
9.23843e-08
9.22939e-08
5.26632e-07
1.23999e-06
1.496e-06
6.0917e-07
1.50535e-06
6.0776e-07
1.50531e-06
1.2383e-06
1.23996e-06
1.49606e-06
6.09043e-07
1.50536e-06
6.07396e-07
1.50533e-06
1.2381e-06
2.69135e-07
2.62869e-07
1.46509e-06
2.697e-07
2.63404e-07
3.82687e-08
3.83166e-08
3.89462e-08
3.8922e-08
1.46521e-06
2.69686e-07
2.63373e-07
2.69147e-07
2.62933e-07
3.83148e-08
3.82693e-08
1.20915e-06
5.85579e-07
1.50441e-06
1.49457e-06
1.21317e-06
5.86215e-07
1.50441e-06
4.97563e-07
9.01444e-08
4.97403e-07
9.02715e-08
1.2091e-06
1.50436e-06
5.85448e-07
1.49447e-06
1.21279e-06
1.50436e-06
5.86044e-07
4.97358e-07
9.03332e-08
9.02108e-08
4.97592e-07
1.21278e-06
1.49466e-06
5.86222e-07
1.50453e-06
5.85589e-07
1.50449e-06
1.20951e-06
4.97384e-07
9.02867e-08
9.01334e-08
4.97564e-07
1.21271e-06
1.49455e-06
1.50448e-06
5.86068e-07
1.50445e-06
5.85413e-07
1.20914e-06
4.97638e-07
9.01461e-08
4.9746e-07
9.02925e-08
1.20921e-06
1.50436e-06
5.85855e-07
1.49441e-06
1.21296e-06
1.50437e-06
5.8647e-07
4.97603e-07
9.01588e-08
4.97432e-07
9.02924e-08
1.21288e-06
1.4945e-06
5.8645e-07
1.50454e-06
5.85886e-07
1.50444e-06
1.20915e-06
4.97456e-07
9.02918e-08
9.01568e-08
4.97635e-07
1.21293e-06
1.49449e-06
1.50448e-06
5.86508e-07
1.50445e-06
5.85838e-07
1.20926e-06
4.97431e-07
9.03082e-08
9.01556e-08
4.976e-07
2.62473e-07
2.69769e-07
1.46536e-06
2.6293e-07
2.70318e-07
3.89271e-08
3.89568e-08
3.83213e-08
3.82826e-08
1.46544e-06
2.62934e-07
2.70348e-07
2.62444e-07
2.6976e-07
3.89571e-08
3.89248e-08
1.23865e-06
1.50528e-06
6.07636e-07
1.49619e-06
1.24002e-06
1.50529e-06
6.09146e-07
5.26589e-07
9.22892e-08
5.25668e-07
9.23892e-08
5.26547e-07
9.23052e-08
5.25635e-07
9.24075e-08
1.23983e-06
1.49611e-06