/*--------------------------------*- C++ -*----------------------------------*\
| =========                 |                                                 |
| \\      /  F ield         | OpenFOAM: The Open Source CFD Toolbox           |
|  \\    /   O peration     | Version:  2206                                  |
|   \\  /    A nd           | Website:  www.openfoam.com                      |
|    \\/     M anipulation  |                                                 |
\*---------------------------------------------------------------------------*/
FoamFile
{
    version     2.0;
    format      ascii;
    arch        "LSB;label=32;scalar=64";
    class       surfaceScalarField;
    location    "0.1";
    object      phi;
}
// * * * * * * * * * * * * * * * * * * * * * * * * * * * * * * * * * * * * * //

dimensions      [0 3 -1 0 0 0 0];

oriented        oriented;

internalField   nonuniform List<scalar> 
198849
(
-1.18622e-07
9.11397e-09
8.37059e-09
5.12479e-10
2.12918e-10
1.00412e-07
-2.45029e-08
1.56669e-09
-8.37225e-09
-4.88623e-09
1.03232e-07
1.80627e-09
1.3514e-09
7.48697e-10
2.77633e-09
2.02738e-09
3.44898e-09
1.36541e-09
-2.58865e-08
-2.8524e-08
-2.61515e-08
-2.45002e-08
1.56594e-09
-8.37622e-09
-4.87153e-09
1.03215e-07
1.80512e-09
1.34998e-09
7.47899e-10
2.77596e-09
2.02763e-09
3.44875e-09
1.36495e-09
-2.85207e-08
-2.58839e-08
-2.61482e-08
-2.54345e-08
-8.73423e-10
-1.57712e-09
1.54069e-09
1.87985e-09
2.44645e-08
1.53071e-11
1.42061e-11
-1.00433e-07
1.79673e-11
1.85775e-11
1.00367e-07
-9.94e-08
-2.25474e-11
-1.48344e-11
-4.79054e-11
9.92687e-08
5.17714e-11
7.02477e-11
2.34298e-11
-1.35404e-11
4.93494e-11
3.82539e-11
-2.85041e-12
-1.00186e-07
-2.82406e-11
-1.37566e-11
-4.26982e-11
1.0005e-07
3.77435e-11
7.32744e-11
2.91913e-11
3.80283e-11
2.51215e-11
-7.09729e-12
2.46219e-11
-2.48938e-08
1.39185e-11
2.78591e-11
5.86441e-11
4.27453e-11
2.47506e-08
1.00327e-10
1.02678e-10
-9.99974e-08
-4.75578e-11
-4.64048e-11
9.98884e-08
-9.87454e-08
-2.07391e-11
-1.02431e-10
-4.57929e-11
9.86092e-08
4.16378e-11
6.71426e-11
5.18496e-12
5.02977e-12
9.32947e-11
9.09428e-11
1.91385e-12
-9.9525e-08
-2.4157e-11
-1.0329e-10
-4.3561e-11
9.93925e-08
2.97228e-11
7.10805e-11
1.46188e-11
5.45661e-11
6.64837e-11
3.77897e-11
2.92143e-11
-2.47001e-08
1.16324e-11
2.40739e-11
6.81723e-11
5.34839e-11
2.45428e-08
7.07493e-12
6.46339e-12
-9.97789e-08
-5.32479e-12
-5.30402e-12
9.9776e-08
-9.84783e-08
-4.25469e-11
-6.74178e-12
-2.39887e-12
9.84725e-08
1.76697e-11
4.67438e-11
-8.55365e-12
-3.94699e-11
4.51659e-11
4.27164e-11
-4.6809e-11
-9.92625e-08
-4.65954e-11
-8.02912e-12
-2.7437e-12
9.92584e-08
4.01526e-12
5.04299e-11
-8.42138e-13
1.61779e-11
1.38919e-11
-1.15797e-11
-1.06113e-11
-2.46376e-08
3.42681e-11
4.70787e-11
3.6323e-11
2.09583e-11
2.4499e-08
-7.74466e-13
1.8053e-13
-9.97771e-08
-3.6681e-13
4.78937e-13
9.97776e-08
-9.84756e-08
-4.44345e-11
-5.03118e-13
1.03588e-13
9.84759e-08
1.6007e-11
4.56632e-11
-1.62014e-11
-4.07011e-11
4.40321e-11
4.11316e-11
-4.53268e-11
-9.92588e-08
-4.84672e-11
2.42204e-13
3.1758e-13
9.92589e-08
1.75807e-12
4.90369e-11
-2.21602e-12
1.45603e-11
1.11556e-11
-1.38037e-11
-1.26575e-11
-2.46387e-08
3.64126e-11
4.89308e-11
3.40512e-11
1.86882e-11
2.45006e-08
-5.97843e-13
5.11716e-13
-9.97781e-08
-4.99523e-13
4.88942e-13
9.97782e-08
-9.84768e-08
-4.47201e-11
-7.94387e-13
-7.93996e-14
9.84745e-08
1.55433e-11
4.5218e-11
-1.03907e-11
-4.04892e-11
4.4248e-11
4.13507e-11
-4.76284e-11
-9.92592e-08
-4.84345e-11
1.29436e-13
9.58794e-14
9.9259e-08
1.78552e-12
4.90676e-11
-2.19596e-12
1.46504e-11
1.13138e-11
-1.36907e-11
-1.253e-11
-2.46388e-08
3.63362e-11
4.8892e-11
3.41288e-11
1.87942e-11
2.45007e-08
-5.37437e-13
5.95129e-13
-9.97782e-08
-5.61665e-13
4.49147e-13
9.97783e-08
-9.84765e-08
-4.43194e-11
-9.28953e-13
-2.44971e-13
9.84763e-08
1.61279e-11
4.57707e-11
-1.6082e-11
-4.05472e-11
4.42389e-11
4.13246e-11
-4.5169e-11
-9.92591e-08
-4.84258e-11
6.31431e-14
4.896e-14
9.92589e-08
1.79346e-12
4.90761e-11
-2.18873e-12
1.4668e-11
1.13422e-11
-1.36702e-11
-1.25058e-11
-2.46388e-08
3.63187e-11
4.88899e-11
3.41318e-11
1.88113e-11
2.45007e-08
-5.2969e-13
5.82407e-13
-9.97781e-08
-5.31005e-13
4.41235e-13
9.97781e-08
-9.84768e-08
-4.46936e-11
-8.65942e-13
-1.54939e-13
9.84745e-08
1.55715e-11
4.52469e-11
-1.0361e-11
-4.04712e-11
4.42691e-11
4.1369e-11
-4.76087e-11
-9.9259e-08
-4.84274e-11
6.39044e-14
5.30211e-14
9.92588e-08
1.79101e-12
4.9076e-11
-2.18968e-12
1.46677e-11
1.13379e-11
-1.3672e-11
-1.2507e-11
-2.46388e-08
3.63187e-11
4.88876e-11
3.41357e-11
1.88124e-11
2.45007e-08
-5.47989e-13
5.96936e-13
-9.97781e-08
-5.35868e-13
4.56486e-13
9.97782e-08
-9.84764e-08
-4.43215e-11
-9.3434e-13
-2.30536e-13
9.84763e-08
1.6123e-11
4.57691e-11
-1.60833e-11
-4.05511e-11
4.42318e-11
4.1316e-11
-4.51728e-11
-9.9259e-08
-4.84354e-11
9.08643e-14
5.91346e-14
9.92589e-08
1.78479e-12
4.90656e-11
-2.19654e-12
1.46592e-11
1.13242e-11
-1.36819e-11
-1.25222e-11
-2.46388e-08
3.63244e-11
4.88984e-11
3.41245e-11
1.88004e-11
2.45007e-08
-8.33805e-13
1.19382e-12
-9.97781e-08
-1.21679e-12
7.67489e-13
9.97782e-08
-9.84767e-08
-4.46764e-11
-1.51484e-12
-9.22203e-14
9.84747e-08
1.5587e-11
4.52559e-11
-1.03347e-11
-4.04301e-11
4.43076e-11
4.14064e-11
-4.75655e-11
-9.9259e-08
-4.84441e-11
3.74812e-13
-6.62039e-14
9.92589e-08
1.7653e-12
4.90593e-11
-2.21167e-12
1.45961e-11
1.12898e-11
-1.37024e-11
-1.2601e-11
-2.46388e-08
3.63083e-11
4.88999e-11
3.4128e-11
1.88077e-11
2.45007e-08
-2.32484e-12
2.97277e-12
-9.9778e-08
-3.56448e-12
2.1401e-12
9.97787e-08
-9.84757e-08
-4.4248e-11
-3.90672e-12
2.77012e-14
9.84774e-08
1.62275e-11
4.57769e-11
-1.6086e-11
-4.04316e-11
4.44698e-11
4.15489e-11
-4.50619e-11
-9.92591e-08
-4.84693e-11
1.53009e-12
-4.68789e-13
9.92588e-08
1.75427e-12
4.90338e-11
-2.28152e-12
1.44856e-11
1.12768e-11
-1.37395e-11
-1.28353e-11
-2.46389e-08
3.62883e-11
4.89248e-11
3.41636e-11
1.88434e-11
2.45007e-08
-6.49203e-12
3.67783e-12
-9.97779e-08
-7.78035e-12
6.2617e-12
9.97822e-08
-9.84764e-08
-4.50601e-11
-1.05422e-11
1.30603e-11
9.8474e-08
1.613e-11
4.53443e-11
-1.6862e-11
-4.06451e-11
4.46341e-11
4.16738e-11
-4.53231e-11
-9.9251e-08
-4.8446e-11
-9.61854e-11
1.6727e-10
1.81229e-12
4.58066e-11
-1.36389e-12
1.67668e-11
1.09186e-11
-1.43606e-11
-1.25277e-11
9.91814e-08
-2.4639e-08
3.68239e-11
4.83806e-11
3.43868e-11
1.85386e-11
2.45009e-08
-2.26535e-09
-2.30922e-09
2.54357e-08
-2.60816e-08
2.77528e-09
2.44512e-09
-9.44273e-11
2.44698e-08
-2.955e-08
3.03029e-09
-1.20959e-10
2.26722e-09
-9.526e-11
2.44718e-08
-2.95509e-08
3.02876e-09
-1.21523e-10
-2.30887e-09
2.54363e-08
-2.60816e-08
2.7569e-09
2.46446e-09
-5.41716e-13
2.4504e-08
-2.95985e-08
2.90752e-09
-1.21671e-10
-9.49179e-11
2.26706e-09
2.44684e-08
-2.95481e-08
-1.20524e-10
3.02812e-09
-8.51473e-10
-9.13545e-10
-2.91403e-08
-2.87097e-08
-2.90896e-08
-2.90899e-08
-2.43195e-10
-1.02246e-09
8.00679e-10
-2.33714e-10
-1.04356e-09
8.19381e-10
1.00827e-12
1.18625e-07
-8.56124e-10
-9.13115e-10
-2.91403e-08
-2.87101e-08
-2.90898e-08
-2.90899e-08
-2.43522e-10
-1.02228e-09
7.99794e-10
-2.32858e-10
-1.04296e-09
8.203e-10
7.83613e-13
1.18608e-07
-8.50135e-10
-9.08445e-10
-2.91382e-08
-2.87075e-08
-2.90874e-08
-2.90882e-08
-2.43569e-10
-1.02257e-09
7.9987e-10
-2.33608e-10
-1.04352e-09
8.19917e-10
9.46145e-11
7.19217e-13
1.18615e-07
-8.50805e-10
-9.14543e-10
-2.91385e-08
-2.87083e-08
-2.90874e-08
-2.90888e-08
-2.31391e-10
-1.022e-09
8.0137e-10
-2.44923e-10
-1.04396e-09
8.19065e-10
-2.95985e-08
2.90969e-09
-1.21993e-10
2.26323e-09
2.44673e-08
-2.9547e-08
-1.21088e-10
3.03214e-09
-2.30777e-09
2.54331e-08
-2.60788e-08
2.75605e-09
2.46449e-09
-2.95957e-08
-1.21148e-10
2.90967e-09
2.31156e-09
2.45031e-08
-2.95984e-08
-1.21725e-10
2.90613e-09
-2.60798e-08
2.7875e-09
2.4326e-09
-8.73525e-10
-1.5768e-09
1.53632e-09
1.88406e-09
2.44657e-08
-5.19414e-11
-5.81257e-11
2.48828e-08
-2.47248e-08
-2.02699e-11
-2.76713e-11
-4.50897e-09
1.04611e-07
1.23318e-09
1.44202e-09
9.13717e-10
2.77481e-09
2.03691e-09
3.44782e-09
1.3646e-09
-2.59786e-08
-2.85135e-08
-2.61126e-08
8.73381e-10
-9.11752e-09
-4.51597e-09
1.04633e-07
1.24308e-09
1.44336e-09
9.18761e-10
2.77431e-09
2.0264e-09
3.4463e-09
1.35892e-09
-2.598e-08
-2.85163e-08
-2.61161e-08
1.01107e-07
-6.31896e-10
-1.00951e-07
-6.70018e-10
-6.85984e-11
1.88601e-11
6.28138e-11
2.96458e-10
1.05472e-10
2.21336e-10
4.57201e-10
5.2011e-11
1.01131e-07
-6.3116e-10
-1.00974e-07
-6.70612e-10
-6.8521e-11
1.825e-11
6.40227e-11
2.95796e-10
1.05343e-10
2.19739e-10
4.5741e-10
1.52195e-09
1.89062e-09
2.44638e-08
-5.84915e-11
2.48833e-08
-2.47251e-08
-1.96562e-11
-2.81181e-11
-4.88891e-09
1.03241e-07
1.82744e-09
1.3413e-09
7.42697e-10
2.77503e-09
2.01653e-09
3.44699e-09
1.35892e-09
-2.58855e-08
-2.85255e-08
-2.61525e-08
8.74112e-10
-9.10516e-09
-4.5088e-09
1.04595e-07
1.24351e-09
1.44353e-09
9.18623e-10
2.7739e-09
2.02585e-09
3.4459e-09
1.35936e-09
-2.85113e-08
-2.5975e-08
-2.61113e-08
9.94088e-08
1.52055e-10
-9.94037e-08
1.78354e-11
-6.50626e-11
6.94636e-12
4.72826e-12
-4.41291e-11
-4.9389e-11
-3.18167e-11
-5.4364e-11
4.92923e-11
1.00328e-07
1.43222e-10
-1.00328e-07
3.20584e-11
-5.87186e-11
1.09204e-11
1.55801e-12
-6.42801e-11
-4.81205e-11
-3.24332e-11
-3.34028e-11
-9.10544e-09
-4.51033e-09
1.04591e-07
1.23321e-09
1.44253e-09
9.13967e-10
2.77505e-09
2.03664e-09
1.36553e-09
3.44787e-09
-2.85109e-08
-2.59754e-08
-2.61099e-08
1.51509e-10
-9.93944e-08
1.76892e-11
-6.55383e-11
7.30448e-12
4.25127e-12
-4.42409e-11
-4.9436e-11
-5.40661e-11
-3.15848e-11
4.9313e-11
1.00326e-07
1.42237e-10
-1.00327e-07
3.21269e-11
-5.8675e-11
1.14686e-11
1.48521e-12
-6.41488e-11
-4.77456e-11
-3.22684e-11
-3.3331e-11
1.5221e-09
1.89005e-09
2.4461e-08
-5.93335e-11
2.4889e-08
-2.47311e-08
-3.34183e-11
-1.58581e-11
-8.37776e-09
-4.88219e-09
1.03241e-07
1.82762e-09
1.34008e-09
7.41856e-10
2.77503e-09
2.01716e-09
1.3588e-09
3.44728e-09
-2.85243e-08
-2.58863e-08
-2.61523e-08
-5.78936e-10
-1.00013e-07
-7.35025e-10
-7.36105e-11
1.39117e-11
6.42185e-11
3.16857e-10
1.03202e-10
4.35323e-10
2.21227e-10
5.93901e-11
1.00217e-07
-5.78874e-10
-1.00042e-07
-7.36216e-10
-7.32996e-11
1.33176e-11
6.55612e-11
3.16503e-10
1.03029e-10
2.20201e-10
4.35781e-10
-2.47364e-08
-3.31362e-11
-1.55581e-11
2.11603e-11
2.21607e-11
5.22441e-11
4.89795e-11
2.47383e-08
-6.94722e-11
-7.03901e-11
2.46896e-08
-2.45723e-08
1.27936e-11
9.79526e-12
-4.55779e-11
1.00972e-07
3.55219e-11
6.77409e-11
3.55261e-11
5.84847e-11
2.42375e-11
-3.07157e-11
2.64734e-11
-2.08177e-11
-1.56576e-11
-4.63886e-11
1.00997e-07
3.63407e-11
6.84035e-11
3.25424e-11
5.8515e-11
2.40383e-11
-3.11163e-11
2.84659e-11
1.00442e-07
-1.14355e-10
-1.00612e-07
-5.28438e-11
-1.24297e-11
2.3649e-11
3.42002e-11
2.13949e-11
4.15174e-11
7.59543e-11
8.38483e-11
6.98343e-11
1.00466e-07
-1.13825e-10
-1.0064e-07
-5.22237e-11
-1.27849e-11
2.36579e-11
3.9571e-11
2.103e-11
4.11175e-11
7.35515e-11
8.40706e-11
5.17025e-11
4.95518e-11
2.47387e-08
-7.05414e-11
2.46908e-08
-2.45733e-08
1.32281e-11
9.65054e-12
-4.78711e-11
9.92784e-08
5.23457e-11
6.96934e-11
1.96528e-11
-1.4057e-11
4.92863e-11
3.84194e-11
-7.19773e-13
-1.37913e-11
-1.49348e-11
-4.8362e-11
1.00191e-07
5.12071e-11
6.21156e-11
2.48738e-11
5.8201e-12
4.88178e-11
2.1301e-11
3.77412e-13
9.87528e-08
-1.17654e-10
-9.89231e-08
-5.08086e-11
-1.69983e-11
8.15887e-12
4.77011e-11
9.93689e-11
1.21026e-11
1.03852e-10
1.41896e-11
6.33803e-11
9.96659e-08
-1.18039e-10
-9.98348e-08
-5.20216e-11
-8.53459e-12
1.23529e-11
4.6001e-11
7.96447e-11
1.2955e-11
1.03108e-10
3.00536e-11
-1.56492e-11
-4.82085e-11
1.00189e-07
5.07796e-11
6.19747e-11
2.53391e-11
5.81824e-12
4.90904e-11
4.51556e-13
2.13667e-11
-1.18469e-10
-9.8913e-08
-5.08677e-11
-1.79283e-11
8.83801e-12
4.4871e-11
9.89046e-11
1.18098e-11
1.3901e-11
1.06051e-10
6.30697e-11
9.96634e-08
-1.17611e-10
-9.98333e-08
-5.19881e-11
-8.48038e-12
1.26139e-11
4.58274e-11
7.99818e-11
1.27642e-11
1.03993e-10
2.98239e-11
5.80093e-11
4.39382e-11
2.4745e-08
-7.49625e-11
2.46948e-08
-2.45788e-08
5.39112e-12
1.697e-11
-1.3595e-11
-4.32174e-11
1.00081e-07
3.85014e-11
7.33615e-11
2.87617e-11
3.82583e-11
2.47297e-11
2.47361e-11
-7.75193e-12
-1.14919e-10
-9.96945e-08
-4.82913e-11
-2.0838e-11
1.81338e-11
3.61558e-11
4.54985e-11
3.95081e-11
6.3002e-11
7.6324e-11
7.47676e-11
9.95573e-08
-1.15392e-10
-9.97257e-08
-4.81719e-11
-2.06804e-11
1.76426e-11
3.60282e-11
4.54742e-11
3.96366e-11
7.60975e-11
6.29658e-11
-2.45844e-08
5.10507e-12
1.70371e-11
1.60422e-11
2.03613e-11
6.13738e-11
5.99205e-11
2.45319e-08
-4.60005e-11
-4.89685e-11
2.46266e-08
-2.44889e-08
-2.01976e-11
-2.25524e-11
-4.79421e-11
1.00309e-07
2.72168e-11
6.60045e-11
1.97962e-11
7.50631e-11
6.556e-11
1.20754e-11
3.08875e-11
-1.64302e-11
-1.0167e-10
-4.73839e-11
1.00335e-07
2.77092e-11
6.61269e-11
1.92946e-11
7.5002e-11
6.55712e-11
1.16081e-11
3.07179e-11
1.00179e-07
-1.76007e-11
-1.00193e-07
-7.23436e-12
-3.71933e-11
4.76868e-12
1.93755e-12
-2.64836e-11
-5.41718e-12
1.78755e-11
3.79826e-11
4.61916e-11
1.00205e-07
-1.74583e-11
-1.00219e-07
-8.34294e-12
-3.73299e-11
4.60637e-12
2.02541e-12
-2.6789e-11
-5.33784e-12
1.74462e-11
3.83746e-11
6.05243e-11
6.03483e-11
2.45328e-08
-4.92353e-11
2.46274e-08
-2.44891e-08
-1.99924e-11
-2.28748e-11
-4.6329e-11
9.86194e-08
4.10287e-11
6.66131e-11
4.77788e-12
4.85076e-12
9.28326e-11
9.07452e-11
1.97719e-12
-1.15339e-11
-1.02372e-10
-4.7156e-11
9.95311e-08
3.92712e-11
5.95663e-11
8.65534e-12
2.07859e-11
9.28565e-11
7.1736e-11
2.99218e-12
9.84874e-08
-1.54726e-11
-9.85011e-08
-6.58936e-12
-3.96711e-11
-1.27769e-11
2.18514e-11
4.67335e-11
-4.1493e-11
4.85703e-11
-3.64616e-11
4.09851e-11
9.93986e-08
-1.50867e-11
-9.9412e-08
-7.02294e-12
-3.17695e-11
-8.41383e-12
1.76854e-11
2.59214e-11
-4.05319e-11
4.76297e-11
-1.59409e-11
-1.0305e-10
-4.7374e-11
9.95297e-08
3.88146e-11
5.9553e-11
8.87396e-12
2.05515e-11
9.34378e-11
2.42134e-12
7.20904e-11
-1.59459e-11
-9.84917e-08
-7.04968e-12
-3.98826e-11
-1.14707e-11
2.09358e-11
4.67415e-11
-4.15386e-11
-3.64255e-11
4.8758e-11
4.10036e-11
9.93967e-08
-1.52363e-11
-9.94102e-08
-6.93217e-12
-3.17363e-11
-8.10331e-12
1.74573e-11
2.62326e-11
-4.09706e-11
4.80609e-11
-1.62782e-11
6.70135e-11
5.42682e-11
2.45378e-08
-5.23332e-11
2.4632e-08
-2.44952e-08
-2.93523e-11
-1.41451e-11
-1.02646e-10
-4.34682e-11
9.94244e-08
2.99122e-11
7.10617e-11
1.43884e-11
5.47983e-11
6.60454e-11
2.93897e-11
3.74976e-11
-1.86074e-11
-9.92768e-08
-8.02134e-12
-4.39262e-11
1.08048e-12
7.92258e-12
-8.01747e-12
-6.51716e-12
1.90048e-11
1.90559e-11
5.27777e-11
9.92941e-08
-1.85328e-11
-9.93086e-08
-8.05677e-12
-4.44409e-11
1.1376e-12
7.79431e-12
-7.98872e-12
-6.11929e-12
1.871e-11
1.92425e-11
-2.45e-08
-3.00992e-11
-1.37435e-11
4.0094e-11
4.22319e-11
2.807e-11
2.82719e-11
2.4488e-08
-4.25417e-11
-4.53677e-11
2.46276e-08
-2.44893e-08
-2.45515e-11
-2.58482e-11
-2.0527e-12
1.00174e-07
-8.47916e-13
4.39382e-11
3.50058e-12
3.48285e-11
1.25284e-11
-3.04326e-11
-9.71291e-12
-4.03763e-11
-6.98713e-12
-6.61234e-13
1.00201e-07
-1.29866e-12
4.35858e-11
6.98009e-13
3.49411e-11
1.20585e-11
-3.09927e-11
-6.54312e-12
1.00174e-07
5.80093e-13
-1.00174e-07
1.22228e-12
-4.20013e-11
2.09176e-12
-2.25449e-12
-3.3244e-11
-1.18129e-11
9.61652e-12
3.27285e-11
4.3075e-11
1.002e-07
6.32894e-13
-1.002e-07
8.76263e-13
-4.19687e-11
1.50435e-12
1.5259e-12
-3.33905e-11
-1.15322e-11
5.84021e-12
3.33069e-11
2.70176e-11
2.91155e-11
2.44883e-08
-4.61112e-11
2.46283e-08
-2.44895e-08
-2.35096e-11
-2.61094e-11
-2.77572e-12
9.8484e-08
1.90876e-11
4.70266e-11
-1.50359e-11
-3.95408e-11
4.49606e-11
4.26761e-11
-4.42708e-11
-3.42437e-11
-5.68835e-12
-2.74379e-12
9.93951e-08
1.46525e-11
3.91043e-11
-1.07067e-11
-1.90927e-11
4.39385e-11
2.16369e-11
-4.33487e-11
9.84851e-08
-2.65494e-13
-9.84846e-08
4.86952e-14
-4.44236e-11
-1.6846e-11
1.68354e-11
4.10657e-11
-4.5293e-11
4.37664e-11
-4.07618e-11
3.7493e-11
9.93961e-08
3.35451e-13
-9.93955e-08
5.5562e-14
-3.63472e-11
-1.25509e-11
1.24211e-11
1.9973e-11
-4.43994e-11
4.26962e-11
-2.02806e-11
-5.75905e-12
-2.67175e-12
9.93931e-08
1.4421e-11
3.91138e-11
-1.04407e-11
-1.94209e-11
4.43737e-11
-4.37784e-11
2.19559e-11
-5.0758e-13
-9.8475e-08
-2.86206e-13
-4.4555e-11
-1.58836e-11
1.2863e-11
4.11053e-11
-4.53052e-11
-4.07215e-11
4.65058e-11
3.75089e-11
9.93942e-08
3.17398e-13
-9.93936e-08
2.04963e-13
-3.63687e-11
-1.22943e-11
1.21209e-11
2.02953e-11
-4.48485e-11
4.31171e-11
-2.06101e-11
3.54962e-11
2.14711e-11
2.44942e-08
-4.90633e-11
2.46331e-08
-2.44956e-08
-3.27975e-11
-1.80923e-11
-7.97881e-12
-2.73403e-12
9.92902e-08
3.95165e-12
5.0899e-11
-7.93943e-13
1.61734e-11
1.35273e-11
-1.02334e-11
-1.17837e-11
5.97886e-14
-9.92582e-08
4.17851e-13
-4.8414e-11
-2.17858e-12
1.8152e-12
-1.40499e-11
-1.26928e-11
1.43116e-11
1.112e-11
4.95349e-11
9.92904e-08
7.67267e-14
-9.929e-08
3.62787e-13
-4.88801e-11
-2.10929e-12
1.76287e-12
-1.40394e-11
-1.2335e-11
1.07509e-11
1.4525e-11
-2.45004e-08
-3.35981e-11
-1.76118e-11
4.20458e-11
4.44839e-11
2.52612e-11
2.63415e-11
2.44895e-08
-4.25536e-11
-4.51718e-11
2.46281e-08
-2.44899e-08
-2.4453e-11
-2.60572e-11
9.3452e-13
1.00174e-07
-2.26706e-12
4.25285e-11
2.06948e-12
3.32326e-11
9.6395e-12
-3.30075e-11
-1.14215e-11
-4.22437e-11
1.26818e-12
1.61292e-12
1.002e-07
-2.34069e-12
4.28547e-11
1.44899e-12
3.33034e-11
9.1677e-12
-3.34305e-11
-1.14586e-11
1.00173e-07
6.39472e-13
-1.00174e-07
1.00591e-12
-4.20095e-11
2.11903e-12
-2.25284e-12
-3.33886e-11
-1.09496e-11
9.0991e-12
3.33164e-11
4.2739e-11
1.00201e-07
6.97721e-13
-1.002e-07
2.78103e-13
-4.2137e-11
2.13738e-12
-2.24994e-12
-3.34031e-11
-1.15419e-11
9.36581e-12
3.32237e-11
2.4911e-11
2.70581e-11
2.44897e-08
-4.56423e-11
2.46289e-08
-2.44898e-08
-2.42632e-11
-2.64436e-11
-1.22998e-13
9.84856e-08
1.67727e-11
4.5348e-11
-1.68765e-11
-4.06993e-11
4.38508e-11
4.11364e-11
-4.5229e-11
-3.64001e-11
3.81909e-13
2.57556e-14
9.93965e-08
1.23595e-11
3.74732e-11
-1.25823e-11
-2.02009e-11
4.2792e-11
2.00534e-11
-4.43326e-11
9.84859e-08
-4.74955e-13
-9.84859e-08
-2.78309e-13
-4.41564e-11
-1.67672e-11
1.68701e-11
4.12921e-11
-4.50953e-11
4.40214e-11
-4.05793e-11
3.75362e-11
9.93969e-08
1.0718e-13
-9.93969e-08
-2.18961e-13
-3.63393e-11
-1.25021e-11
1.24494e-11
2.02217e-11
-4.42087e-11
4.29601e-11
-2.00687e-11
3.66088e-13
8.88709e-15
9.93947e-08
1.20708e-11
3.74982e-11
-1.23216e-11
-2.05309e-11
4.32233e-11
-4.47702e-11
2.03729e-11
-7.70406e-13
-9.84766e-08
-6.83318e-13
-4.46349e-11
-1.54224e-11
1.59311e-11
4.13018e-11
-4.51723e-11
-4.05531e-11
4.41979e-11
3.75638e-11
9.93951e-08
8.4696e-14
-9.9395e-08
-1.93814e-13
-3.63524e-11
-1.2234e-11
1.21565e-11
2.055e-11
-4.46472e-11
4.33881e-11
-2.0389e-11
3.32558e-11
1.91422e-11
2.44958e-08
-4.90634e-11
2.46333e-08
-2.44959e-08
-3.27323e-11
-1.8001e-11
2.4711e-13
3.48124e-13
9.92907e-08
1.71299e-12
4.95075e-11
-2.15539e-12
1.45474e-11
1.07732e-11
-1.2296e-11
-1.40278e-11
1.74955e-13
-9.9259e-08
2.0766e-13
-4.84387e-11
-2.19579e-12
1.7905e-12
-1.39368e-11
-1.25399e-11
1.44129e-11
1.12828e-11
4.95417e-11
9.92908e-08
1.48144e-13
-9.92908e-08
1.41842e-13
-4.88977e-11
-2.11938e-12
1.74576e-12
-1.3925e-11
-1.21718e-11
1.09225e-11
1.46297e-11
-2.45007e-08
-3.35255e-11
-1.75119e-11
4.19974e-11
4.41383e-11
2.54004e-11
2.6705e-11
2.44899e-08
-4.25583e-11
-4.52159e-11
2.46281e-08
-2.44899e-08
-2.44112e-11
-2.60532e-11
7.35441e-13
1.00174e-07
-2.25714e-12
4.25596e-11
2.11116e-12
3.33348e-11
9.11475e-12
-3.3375e-11
-1.09275e-11
-4.23324e-11
7.98498e-13
1.74629e-12
1.00201e-07
-2.48605e-12
4.22162e-11
-7.1022e-13
3.32034e-11
9.3542e-12
-3.34403e-11
-8.49726e-12
1.00173e-07
5.20126e-13
-1.00173e-07
9.33157e-13
-4.19961e-11
2.10986e-12
-2.25459e-12
-3.31003e-11
-1.08987e-11
9.16411e-12
3.31135e-11
4.3077e-11
1.002e-07
5.92312e-13
-1.00201e-07
6.26089e-13
-4.19839e-11
1.52068e-12
1.52237e-12
-3.32391e-11
-1.09559e-11
6.11249e-12
3.34655e-11
2.43248e-11
2.74906e-11
2.449e-08
-4.61919e-11
2.46288e-08
-2.44898e-08
-2.3409e-11
-2.63162e-11
-4.47182e-13
9.8486e-08
1.68718e-11
4.51915e-11
-1.67662e-11
-4.05611e-11
4.40349e-11
4.13076e-11
-4.50807e-11
-3.63272e-11
6.54167e-14
-2.50649e-13
9.9397e-08
1.24539e-11
3.7547e-11
-1.2494e-11
-2.00514e-11
4.29737e-11
2.02371e-11
-4.41947e-11
9.8486e-08
-5.90448e-13
-9.84861e-08
-3.85291e-13
-4.41105e-11
-1.67368e-11
1.69053e-11
4.1332e-11
-4.50599e-11
4.40633e-11
-4.05465e-11
3.75684e-11
9.9397e-08
-1.09781e-14
-9.9397e-08
-3.08128e-13
-3.63041e-11
-1.2464e-11
1.24921e-11
2.02599e-11
-4.41769e-11
4.29974e-11
-2.00361e-11
4.96151e-14
-2.20738e-13
9.93951e-08
1.21675e-11
3.75725e-11
-1.22335e-11
-2.0375e-11
4.34142e-11
-4.46227e-11
2.05644e-11
-8.44654e-13
-9.84764e-08
-7.05019e-13
-4.44977e-11
-1.57676e-11
1.2966e-11
4.13794e-11
-4.5085e-11
-4.0505e-11
4.68038e-11
3.75873e-11
9.93951e-08
-1.75309e-14
-9.93951e-08
-1.92357e-13
-3.63219e-11
-1.22037e-11
1.21949e-11
2.05833e-11
-4.46229e-11
4.34226e-11
-2.03665e-11
3.33237e-11
1.92438e-11
2.44959e-08
-4.90778e-11
2.46332e-08
-2.44959e-08
-3.27184e-11
-1.79694e-11
1.28911e-13
1.0491e-13
9.92908e-08
1.74477e-12
4.95422e-11
-2.13295e-12
1.46397e-11
1.09402e-11
-1.21613e-11
-1.39122e-11
7.50017e-14
-9.92589e-08
1.26909e-13
-4.84233e-11
-2.18377e-12
1.80349e-12
-1.39048e-11
-1.24999e-11
1.44406e-11
1.13279e-11
4.955e-11
9.92907e-08
7.91356e-14
-9.92907e-08
7.75192e-14
-4.88882e-11
-2.11435e-12
1.75151e-12
-1.38951e-11
-1.21392e-11
1.09644e-11
1.46518e-11
-2.45007e-08
-3.35178e-11
-1.74884e-11
4.19905e-11
4.41159e-11
2.54238e-11
2.67087e-11
2.44899e-08
-4.25598e-11
-4.5217e-11
2.46281e-08
-2.44896e-08
-2.47146e-11
-2.60465e-11
6.08878e-13
1.00173e-07
-2.25354e-12
4.25696e-11
2.11988e-12
3.31154e-11
9.15412e-12
-3.31066e-11
-1.0898e-11
-4.22061e-11
1.01387e-12
1.23432e-12
1.002e-07
-2.33043e-12
4.28912e-11
1.47838e-12
3.34288e-11
9.02149e-12
-3.32873e-11
-1.09409e-11
1.00173e-07
5.26018e-13
-1.00173e-07
9.27815e-13
-4.19823e-11
2.10493e-12
-2.2483e-12
-3.31068e-11
-1.12541e-11
9.51216e-12
3.31059e-11
4.27569e-11
1.00201e-07
5.84085e-13
-1.002e-07
2.54313e-13
-4.21212e-11
2.15708e-12
-2.24652e-12
-3.33676e-11
-1.11454e-11
9.06442e-12
3.32621e-11
2.50613e-11
2.74241e-11
2.44898e-08
-4.56825e-11
2.46289e-08
-2.44898e-08
-2.42226e-11
-2.64275e-11
-4.98103e-13
9.8486e-08
1.68925e-11
4.52121e-11
-1.6745e-11
-4.0542e-11
4.40568e-11
4.13285e-11
-4.506e-11
-3.63049e-11
-6.57551e-15
-3.04699e-13
9.9397e-08
1.24811e-11
3.75673e-11
-1.24697e-11
-2.00327e-11
4.29935e-11
2.02575e-11
-4.41768e-11
9.84859e-08
-6.02901e-13
-9.8486e-08
-3.79404e-13
-4.41161e-11
-1.67353e-11
1.69041e-11
4.13309e-11
-4.50589e-11
4.40616e-11
-4.05445e-11
3.75705e-11
9.93969e-08
-2.78121e-14
-9.93969e-08
-3.14848e-13
-3.63028e-11
-1.24612e-11
1.24949e-11
2.02633e-11
-4.41743e-11
4.29984e-11
-2.00319e-11
-1.89644e-14
-3.02328e-13
9.93951e-08
1.21922e-11
3.75891e-11
-1.22111e-11
-2.03633e-11
4.34268e-11
-4.46121e-11
2.05777e-11
-9.03998e-13
-9.84767e-08
-7.91032e-13
-4.45918e-11
-1.53803e-11
1.59775e-11
4.13405e-11
-4.51363e-11
-4.05189e-11
4.42394e-11
3.75941e-11
9.9395e-08
-4.91921e-14
-9.9395e-08
-2.76609e-13
-3.63203e-11
-1.21976e-11
1.21963e-11
2.05916e-11
-4.46116e-11
4.34282e-11
-2.03527e-11
3.33336e-11
1.92681e-11
2.44959e-08
-4.9078e-11
2.46332e-08
-2.44959e-08
-3.27181e-11
-1.79685e-11
6.02413e-14
8.12097e-14
9.92907e-08
1.74595e-12
4.95445e-11
-2.13189e-12
1.46527e-11
1.09637e-11
-1.2142e-11
-1.38947e-11
7.48022e-14
-9.92589e-08
1.26212e-13
-4.84244e-11
-2.1844e-12
1.80261e-12
-1.39039e-11
-1.25012e-11
1.44411e-11
1.13269e-11
4.9553e-11
9.92906e-08
5.10195e-14
-9.92907e-08
7.70211e-14
-4.88872e-11
-2.1124e-12
1.75288e-12
-1.3892e-11
-1.21355e-11
1.09652e-11
1.46559e-11
-2.45007e-08
-3.35132e-11
-1.7485e-11
4.19844e-11
4.41161e-11
2.57272e-11
2.67082e-11
2.44896e-08
-4.25485e-11
-4.52118e-11
2.46281e-08
-2.44896e-08
-2.47206e-11
-2.60543e-11
7.01346e-13
1.00173e-07
-2.25448e-12
4.25585e-11
2.09798e-12
3.31085e-11
9.50257e-12
-3.31111e-11
-1.12554e-11
-4.2322e-11
7.11037e-13
1.70121e-12
1.00201e-07
-2.48425e-12
4.22306e-11
-6.99683e-13
3.32309e-11
9.04097e-12
-3.34157e-11
-8.45168e-12
1.00173e-07
5.3335e-13
-1.00173e-07
8.99958e-13
-4.199e-11
2.09241e-12
-2.25236e-12
-3.31018e-11
-1.12593e-11
9.51315e-12
3.31089e-11
4.30776e-11
1.002e-07
5.98902e-13
-1.00201e-07
6.32657e-13
-4.19853e-11
1.51781e-12
1.51928e-12
-3.32446e-11
-1.0956e-11
6.11374e-12
3.34645e-11
2.43524e-11
2.74969e-11
2.449e-08
-4.61902e-11
2.46288e-08
-2.44898e-08
-2.34074e-11
-2.63185e-11
-4.99497e-13
9.8486e-08
1.68914e-11
4.52156e-11
-1.67443e-11
-4.05422e-11
4.40559e-11
4.1328e-11
-4.50611e-11
-3.63058e-11
-1.31148e-14
-3.07475e-13
9.93969e-08
1.24805e-11
3.75679e-11
-1.24695e-11
-2.00302e-11
4.29943e-11
2.02598e-11
-4.41751e-11
9.84859e-08
-5.41124e-13
-9.8486e-08
-3.71907e-13
-4.41171e-11
-1.67426e-11
1.68968e-11
4.13209e-11
-4.50691e-11
4.40524e-11
-4.05561e-11
3.75618e-11
9.93969e-08
2.61256e-14
-9.93969e-08
-2.95115e-13
-3.63103e-11
-1.247e-11
1.2485e-11
2.02516e-11
-4.41862e-11
4.2989e-11
-2.00445e-11
-2.29847e-14
-2.6459e-13
9.9395e-08
1.21896e-11
3.75897e-11
-1.22121e-11
-2.0355e-11
4.34343e-11
-4.4603e-11
2.05858e-11
-8.03366e-13
-9.84763e-08
-7.08431e-13
-4.44988e-11
-1.57739e-11
1.29608e-11
4.13675e-11
-4.50948e-11
-4.05145e-11
4.67926e-11
3.75804e-11
9.9395e-08
8.16223e-15
-9.9395e-08
-1.75142e-13
-3.6329e-11
-1.22102e-11
1.21869e-11
2.05753e-11
-4.46289e-11
4.34154e-11
-2.03723e-11
3.33324e-11
1.92669e-11
2.44959e-08
-4.90732e-11
2.46332e-08
-2.44959e-08
-3.27256e-11
-1.7976e-11
7.5593e-14
6.81251e-14
9.92906e-08
1.74695e-12
4.95488e-11
-2.12933e-12
1.46532e-11
1.09611e-11
-1.21428e-11
-1.38945e-11
8.83614e-14
-9.92588e-08
1.42857e-13
-4.84287e-11
-2.18569e-12
1.79888e-12
-1.3909e-11
-1.25058e-11
1.44387e-11
1.13206e-11
4.95469e-11
9.92906e-08
9.46002e-14
-9.92906e-08
8.8484e-14
-4.88925e-11
-2.11529e-12
1.74748e-12
-1.38996e-11
-1.2145e-11
1.09541e-11
1.46508e-11
-2.45007e-08
-3.35223e-11
-1.74957e-11
4.19897e-11
4.41206e-11
2.57186e-11
2.67007e-11
2.44896e-08
-4.25677e-11
-4.51956e-11
2.46281e-08
-2.44896e-08
-2.47244e-11
-2.60511e-11
6.75294e-13
1.00173e-07
-2.25266e-12
4.25524e-11
2.09501e-12
3.31038e-11
9.49427e-12
-3.31136e-11
-1.1268e-11
-4.22135e-11
1.02572e-12
1.24403e-12
1.002e-07
-2.32944e-12
4.28831e-11
1.47085e-12
3.34204e-11
9.01069e-12
-3.32972e-11
-1.0952e-11
1.00173e-07
4.20489e-13
-1.00173e-07
9.38193e-13
-4.19719e-11
2.1204e-12
-2.24441e-12
-3.30945e-11
-1.12435e-11
9.52809e-12
3.31109e-11
4.27626e-11
1.00201e-07
4.93672e-13
-1.002e-07
2.73841e-13
-4.21111e-11
2.16974e-12
-2.24152e-12
-3.33585e-11
-1.11243e-11
9.07795e-12
3.32745e-11
2.50506e-11
2.74185e-11
2.44898e-08
-4.56514e-11
2.46289e-08
-2.44898e-08
-2.42354e-11
-2.64355e-11
-4.79813e-13
9.8486e-08
1.68854e-11
4.52097e-11
-1.67473e-11
-4.05487e-11
4.40483e-11
4.13194e-11
-4.50652e-11
-3.63106e-11
-5.24119e-15
-2.78296e-13
9.93969e-08
1.2474e-11
3.7562e-11
-1.24736e-11
-2.00383e-11
4.29868e-11
2.02497e-11
-4.41828e-11
9.84858e-08
-1.46709e-13
-9.8486e-08
-4.37369e-13
-4.41293e-11
-1.67611e-11
1.68837e-11
4.12917e-11
-4.51121e-11
4.40232e-11
-4.05975e-11
3.75496e-11
9.93968e-08
3.31641e-13
-9.93969e-08
-3.33357e-13
-3.63185e-11
-1.24894e-11
1.24708e-11
2.02184e-11
-4.42218e-11
4.29637e-11
-2.0082e-11
-2.7293e-14
-2.75876e-13
9.93951e-08
1.21855e-11
3.75844e-11
-1.22142e-11
-2.03665e-11
4.34224e-11
-4.46154e-11
2.0571e-11
-4.72696e-13
-9.84767e-08
-7.96522e-13
-4.46135e-11
-1.5414e-11
1.59494e-11
4.1303e-11
-4.51873e-11
-4.05681e-11
4.42035e-11
3.75731e-11
9.9395e-08
3.11402e-13
-9.93951e-08
-3.05414e-13
-3.63373e-11
-1.22262e-11
1.21692e-11
2.0551e-11
-4.46564e-11
4.33981e-11
-2.03977e-11
3.33253e-11
1.92577e-11
2.44959e-08
-4.9077e-11
2.46332e-08
-2.44959e-08
-3.27273e-11
-1.79782e-11
9.13431e-14
8.82014e-14
9.92907e-08
1.73823e-12
4.95353e-11
-2.13848e-12
1.46451e-11
1.09447e-11
-1.21574e-11
-1.39057e-11
9.42467e-15
-9.92589e-08
2.2993e-13
-4.84208e-11
-2.17719e-12
1.80402e-12
-1.38945e-11
-1.24915e-11
1.4443e-11
1.13387e-11
4.95554e-11
9.92906e-08
-3.062e-14
-9.92907e-08
1.45524e-13
-4.88809e-11
-2.10277e-12
1.75561e-12
-1.38829e-11
-1.21192e-11
1.09793e-11
1.46622e-11
-2.45007e-08
-3.35192e-11
-1.74918e-11
4.20106e-11
4.41058e-11
2.57186e-11
2.66985e-11
2.44896e-08
-4.25922e-11
-4.51684e-11
2.46282e-08
-2.44896e-08
-2.47647e-11
-2.607e-11
7.0744e-13
1.00173e-07
-2.26799e-12
4.25314e-11
2.06622e-12
3.30338e-11
9.44793e-12
-3.31428e-11
-1.13568e-11
-4.23401e-11
9.98358e-13
1.6734e-12
1.00201e-07
-2.4948e-12
4.22058e-11
-7.27581e-13
3.31649e-11
8.98123e-12
-3.34526e-11
-8.55163e-12
1.00174e-07
-6.78461e-13
-1.00173e-07
1.22748e-12
-4.19184e-11
2.15079e-12
-2.23669e-12
-3.29743e-11
-1.12045e-11
9.71915e-12
3.31519e-11
4.30448e-11
1.002e-07
-5.84826e-13
-1.00201e-07
1.05903e-12
-4.19384e-11
1.48666e-12
1.565e-12
-3.28926e-11
-1.09167e-11
6.31902e-12
3.32588e-11
2.43426e-11
2.74916e-11
2.449e-08
-4.60997e-11
2.46288e-08
-2.44898e-08
-2.34842e-11
-2.63857e-11
-3.45151e-13
9.84862e-08
1.68957e-11
4.52154e-11
-1.67361e-11
-4.05052e-11
4.40894e-11
4.13614e-11
-4.50214e-11
-3.62971e-11
-6.06279e-13
-1.25916e-13
9.93971e-08
1.24856e-11
3.75684e-11
-1.24609e-11
-1.99861e-11
4.30291e-11
2.02938e-11
-4.41291e-11
9.84855e-08
1.33398e-12
-9.84864e-08
-7.87513e-13
-4.41309e-11
-1.68075e-11
1.68925e-11
4.12524e-11
-4.52693e-11
4.39845e-11
-4.07533e-11
3.75164e-11
9.93965e-08
1.95748e-12
-9.93973e-08
-6.83239e-13
-3.63154e-11
-1.25455e-11
1.24865e-11
2.01584e-11
-4.43945e-11
4.29177e-11
-2.02666e-11
-6.69553e-13
-6.26682e-14
9.93952e-08
1.21977e-11
3.75953e-11
-1.21964e-11
-2.03102e-11
4.34714e-11
-4.45579e-11
2.06216e-11
1.3092e-12
-9.8477e-08
-7.12043e-13
-4.45195e-11
-1.59038e-11
1.29345e-11
4.13157e-11
-4.53081e-11
-4.07171e-11
4.67565e-11
3.75342e-11
9.93946e-08
2.1257e-12
-9.93955e-08
-7.04952e-13
-3.63421e-11
-1.22827e-11
1.21759e-11
2.04847e-11
-4.48415e-11
4.33477e-11
-2.05945e-11
3.33206e-11
1.92634e-11
2.44959e-08
-4.91077e-11
2.46333e-08
-2.44959e-08
-3.27329e-11
-1.80205e-11
3.7916e-13
-1.98529e-14
9.92907e-08
1.72745e-12
4.95345e-11
-2.14772e-12
1.45849e-11
1.09118e-11
-1.22343e-11
-1.39267e-11
-1.02916e-12
-9.9259e-08
6.60401e-13
-4.8371e-11
-2.14073e-12
1.84815e-12
-1.37759e-11
-1.24595e-11
1.44787e-11
1.15398e-11
4.95873e-11
9.92907e-08
-9.47717e-13
-9.92907e-08
4.67388e-13