/*--------------------------------*- C++ -*----------------------------------*\
| =========                 |                                                 |
| \\      /  F ield         | OpenFOAM: The Open Source CFD Toolbox           |
|  \\    /   O peration     | Version:  2206                                  |
|   \\  /    A nd           | Website:  www.openfoam.com                      |
|    \\/     M anipulation  |                                                 |
\*---------------------------------------------------------------------------*/
FoamFile
{
    version     2.0;
    format      ascii;
    arch        "LSB;label=32;scalar=64";
    class       volVectorField;
    location    "0.1";
    object      U;
}
// * * * * * * * * * * * * * * * * * * * * * * * * * * * * * * * * * * * * * //

dimensions      [0 1 -1 0 0 0 0];

internalField   nonuniform List<vector> 
66616
(
(8.41366e-05 7.43643e-05 0.115538)
(-0.000225897 0.000131818 0.115559)
(0.000135726 -0.000223761 0.115557)
(-0.000533702 -0.000537782 0.115268)
(-5.39481e-06 -4.37131e-06 0.116539)
(8.91287e-05 -0.000132891 0.116788)
(-0.000127451 9.167e-05 0.116775)
(-0.000153089 -0.00015352 0.116757)
(-7.30087e-05 -6.56469e-05 0.115806)
(0.000124202 -8.52645e-05 0.115818)
(-9.41687e-05 0.000135485 0.115818)
(-0.000149404 -0.000149009 0.115795)
(-8.68189e-06 -9.53357e-06 0.115649)
(4.78141e-06 -6.14749e-06 0.115621)
(-7.03631e-06 5.60574e-06 0.115626)
(-0.00025793 -0.000257522 0.115553)
(-1.11907e-06 -4.32702e-07 0.115653)
(-6.64988e-07 1.60604e-06 0.115625)
(2.11829e-06 -1.53633e-06 0.115628)
(-0.000266096 -0.000267385 0.11556)
(-1.1746e-06 -5.20875e-07 0.115654)
(-3.77131e-08 1.25319e-06 0.115625)
(2.16035e-06 -1.2864e-06 0.115628)
(-0.000265861 -0.000267054 0.115561)
(-1.23761e-06 -5.84552e-07 0.115654)
(-6.94441e-08 1.2669e-06 0.115625)
(2.10633e-06 -1.19324e-06 0.115628)
(-0.000265852 -0.000266993 0.115561)
(-1.2094e-06 -6.09714e-07 0.115654)
(5.03324e-08 1.15519e-06 0.115625)
(2.11023e-06 -1.19399e-06 0.115628)
(-0.000265841 -0.00026698 0.115561)
(-1.24341e-06 -6.099e-07 0.115654)
(-5.57549e-08 1.2484e-06 0.115625)
(2.17752e-06 -1.26785e-06 0.115628)
(-0.000265878 -0.000267035 0.115561)
(-1.86303e-06 -5.15901e-07 0.115654)
(5.63692e-07 8.75532e-07 0.115625)
(2.39591e-06 -1.81334e-06 0.115627)
(-0.000265844 -0.000267007 0.115561)
(-4.15276e-06 1.0551e-06 0.115654)
(1.68138e-06 6.07939e-07 0.115625)
(3.00265e-06 -3.16916e-06 0.115628)
(-0.000265736 -0.000266944 0.115561)
(-4.62415e-06 4.1195e-06 0.115656)
(1.08394e-06 3.3413e-06 0.115628)
(9.0109e-07 -7.27269e-06 0.115627)
(-0.000265152 -0.000269079 0.11556)
(-0.000217952 -0.00022349 0.115335)
(7.24276e-05 -3.63408e-05 0.115572)
(-7.22457e-05 -3.58784e-05 0.115571)
(0.000217982 -0.000222968 0.115334)
(-3.06839e-05 7.33315e-05 0.115566)
(-3.54742e-05 -7.05662e-05 0.115564)
(-4.95385e-06 -4.06192e-06 0.115514)
(5.02414e-06 -4.15138e-06 0.115514)
(-7.56618e-06 3.58689e-06 0.115509)
(7.76748e-06 3.65456e-06 0.115509)
(3.09825e-05 7.31802e-05 0.115566)
(3.58844e-05 -7.04832e-05 0.115564)
(-0.00022085 0.000221055 0.11533)
(7.43152e-05 3.27222e-05 0.115565)
(-7.39503e-05 3.22513e-05 0.115563)
(0.000220785 0.000220346 0.11533)
(0.000537989 0.000533947 0.115273)
(-0.000326841 -0.000347736 0.116676)
(0.000141384 0.000226397 0.115559)
(-0.000140911 0.000226812 0.115559)
(-7.10092e-05 -1.23385e-05 0.1166)
(7.16322e-05 -1.18694e-05 0.116599)
(-0.000537318 0.000534701 0.115273)
(0.00032671 -0.000348973 0.116676)
(0.000226276 0.000131323 0.115559)
(0.00022647 -0.00013507 0.115552)
(2.247e-05 -8.4907e-05 0.116617)
(1.82655e-05 8.33561e-05 0.116611)
(-0.000225951 -0.000134414 0.115553)
(-2.22377e-05 -8.49868e-05 0.116617)
(-1.79781e-05 8.29734e-05 0.116612)
(0.000534311 -0.000537214 0.115269)
(-0.000331844 0.00034479 0.116676)
(-0.000135576 -0.000224051 0.115556)
(-7.45697e-05 9.97651e-06 0.116603)
(7.5575e-05 9.49012e-06 0.116602)
(0.000331872 0.000345078 0.116676)
(0.000155675 0.000151768 0.116757)
(-0.000376175 -0.00037969 0.115891)
(-0.000128291 -9.41926e-05 0.11677)
(0.000130375 -9.41767e-05 0.116769)
(-0.000108711 -0.000162095 0.116001)
(0.000106566 -0.000161725 0.116001)
(-0.000153953 0.000152347 0.116756)
(0.000375061 -0.000379884 0.115893)
(-8.93503e-05 -0.000133592 0.116787)
(-9.09891e-05 0.000131905 0.116783)
(-0.000152295 -0.00010155 0.116004)
(-0.00015401 0.00010077 0.116)
(9.10904e-05 0.000131571 0.116783)
(0.000152803 -9.94596e-05 0.116003)
(0.000154321 0.000100955 0.116)
(0.00015438 -0.000152376 0.116757)
(-0.000372978 0.000381091 0.11589)
(0.000127747 9.13662e-05 0.116774)
(-0.000108488 0.000157854 0.116003)
(0.000108183 0.000157352 0.116003)
(0.000373026 0.000380973 0.11589)
(0.000146089 0.000149911 0.115796)
(-0.000284385 -0.000291777 0.115554)
(-9.61898e-05 -0.000139306 0.115815)
(9.42592e-05 -0.000138525 0.115816)
(-1.76049e-05 -1.5584e-05 0.115633)
(1.8889e-05 -1.50512e-05 0.115633)
(-0.000146028 0.000150886 0.115798)
(0.000283388 -0.000291718 0.115553)
(-0.000123644 -8.63342e-05 0.115818)
(-0.000127152 8.59416e-05 0.115815)
(-1.41479e-05 -1.58423e-05 0.115628)
(-1.39058e-05 1.56148e-05 0.115626)
(0.000127612 8.61645e-05 0.115815)
(1.46193e-05 -1.63732e-05 0.115628)
(1.40271e-05 1.54083e-05 0.115626)
(0.000150432 -0.000147919 0.115795)
(-0.000285226 0.00028947 0.115554)
(9.39657e-05 0.000135117 0.115818)
(-1.75924e-05 1.6239e-05 0.115634)
(1.76206e-05 1.61514e-05 0.115634)
(0.000284664 0.000289787 0.115554)
(0.000257813 0.000257621 0.115553)
(-0.00027189 -0.000275701 0.115558)
(-6.73435e-06 -4.77224e-06 0.115625)
(3.58343e-06 -3.60117e-06 0.115625)
(2.39148e-06 2.20647e-06 0.115626)
(-3.69098e-07 1.37776e-06 0.115625)
(-0.000255986 0.000259011 0.115554)
(0.000271867 -0.000279684 0.115558)
(-4.28156e-06 -6.95046e-06 0.115621)
(-3.94213e-06 6.924e-06 0.11562)
(1.03612e-06 6.46164e-07 0.115624)
(1.4884e-06 -9.03185e-07 0.115622)
(4.00313e-06 6.83012e-06 0.115619)
(-7.91587e-07 3.04883e-07 0.115624)
(-1.48336e-06 -9.74216e-07 0.115622)
(0.000258263 -0.000257117 0.115553)
(-0.000272562 0.000275097 0.115558)
(7.05622e-06 5.51674e-06 0.115626)
(1.72127e-06 -1.49278e-06 0.115627)
(-1.70365e-06 -1.48599e-06 0.115628)
(0.000272156 0.000275483 0.115558)
(0.000265871 0.000269055 0.115561)
(-0.000272108 -0.000275904 0.115559)
(2.6185e-06 2.26593e-06 0.115626)
(-2.92512e-06 2.49325e-06 0.115626)
(2.74726e-06 2.05224e-06 0.115626)
(-1.34749e-06 2.26493e-06 0.115627)
(-0.000265173 0.000267324 0.11556)
(0.00027109 -0.00027547 0.115559)
(9.34009e-07 8.47365e-07 0.115625)
(1.36513e-06 -1.11194e-06 0.115623)
(4.60156e-07 6.19346e-07 0.115625)
(9.00769e-07 -9.24744e-07 0.115624)
(-1.34565e-06 -1.123e-06 0.115623)
(-2.44651e-07 1.36189e-07 0.115625)
(-8.44041e-07 -9.4215e-07 0.115623)
(0.000266551 -0.000267067 0.11556)
(-0.000272701 0.0002753 0.115559)
(-2.12299e-06 -1.55223e-06 0.115628)
(2.19304e-06 -1.37107e-06 0.115628)
(-2.16161e-06 -1.31001e-06 0.115628)
(0.000272332 0.000275726 0.115559)
(0.00026564 0.000268595 0.115561)
(-0.000272135 -0.0002761 0.115559)
(2.72021e-06 2.01737e-06 0.115626)
(-5.66812e-06 2.82443e-06 0.115627)
(2.77654e-06 1.9099e-06 0.115626)
(-8.44098e-07 1.11343e-06 0.115625)
(-0.000263927 0.000270308 0.115562)
(0.000272063 -0.000279988 0.115559)
(4.20021e-07 5.60496e-07 0.115625)
(8.46054e-07 -8.59327e-07 0.115624)
(3.02263e-07 4.62808e-07 0.115625)
(7.31926e-07 -7.72083e-07 0.115624)
(-8.07422e-07 -8.75306e-07 0.115623)
(-6.29152e-08 1.80195e-07 0.115625)
(-7.35739e-07 -8.02685e-07 0.115623)
(0.00026635 -0.00026676 0.115561)
(-0.000272747 0.000275422 0.115559)
(-2.15001e-06 -1.29107e-06 0.115628)
(2.11484e-06 -1.22358e-06 0.115628)
(-2.10573e-06 -1.22052e-06 0.115628)
(0.000272352 0.000275809 0.115559)
(0.000265628 0.000268483 0.115561)
(-0.000272147 -0.000276122 0.115559)
(2.60913e-06 1.93246e-06 0.115626)
(-2.99319e-06 2.15686e-06 0.115626)
(2.67478e-06 1.93617e-06 0.115626)
(-1.28673e-06 2.14269e-06 0.115626)
(-0.000264961 0.000266796 0.115561)
(0.00027116 -0.000275638 0.115559)
(3.26698e-07 4.79707e-07 0.115625)
(7.46685e-07 -7.62369e-07 0.115624)
(3.03497e-07 4.6437e-07 0.115625)
(7.19135e-07 -7.62946e-07 0.115624)
(-7.35334e-07 -7.51123e-07 0.115623)
(-8.19921e-08 -2.35217e-08 0.115625)
(-6.7522e-07 -7.93917e-07 0.115623)
(0.000266315 -0.000266662 0.115561)
(-0.000272746 0.000275428 0.115559)
(-2.12823e-06 -1.21491e-06 0.115628)
(2.11396e-06 -1.22204e-06 0.115628)
(-2.10137e-06 -1.17846e-06 0.115628)
(0.000272367 0.000275834 0.115559)
(0.000265625 0.00026849 0.115561)
(-0.00027213 -0.000276102 0.115559)
(2.69557e-06 1.94882e-06 0.115626)
(-5.62215e-06 2.69184e-06 0.115627)
(2.78387e-06 1.9092e-06 0.115626)
(-8.37132e-07 1.09226e-06 0.115625)
(-0.000263891 0.000270186 0.115561)
(0.000272066 -0.00027999 0.115559)
(3.28477e-07 4.69049e-07 0.115625)
(7.36387e-07 -7.60278e-07 0.115624)
(3.58422e-07 5.02036e-07 0.115625)
(7.79276e-07 -8.07856e-07 0.115624)
(-7.05553e-07 -7.8878e-07 0.115623)
(-1.17119e-07 1.9936e-07 0.115625)
(-7.69437e-07 -8.43487e-07 0.115623)
(0.00026632 -0.000266666 0.115561)
(-0.000272725 0.000275397 0.115559)
(-2.11535e-06 -1.21741e-06 0.115628)
(2.12909e-06 -1.23097e-06 0.115628)
(-2.1177e-06 -1.22821e-06 0.115628)
(0.00027234 0.000275783 0.115559)
(0.000265649 0.000268527 0.115561)
(-0.000272129 -0.000276074 0.115559)
(2.68452e-06 1.98349e-06 0.115626)
(-3.04555e-06 2.20339e-06 0.115626)
(2.49823e-06 1.64332e-06 0.115626)
(-1.13512e-06 1.84464e-06 0.115627)
(-0.000264977 0.000266822 0.115561)
(0.000271134 -0.000275573 0.115559)
(3.24135e-07 4.73531e-07 0.115625)
(7.41524e-07 -7.63015e-07 0.115624)
(6.84596e-07 6.24889e-07 0.115625)
(1.12997e-06 -9.35681e-07 0.115623)
(-7.19019e-07 -7.46218e-07 0.115623)
(-4.61707e-07 2.05938e-07 0.115625)
(-1.05682e-06 -9.87302e-07 0.115623)
(0.000266348 -0.000266701 0.115561)
(-0.000272706 0.000275388 0.115559)
(-2.19235e-06 -1.29343e-06 0.115628)
(2.01297e-06 -9.94345e-07 0.115628)
(-1.99522e-06 -9.30913e-07 0.115628)
(0.000272344 0.000275804 0.115559)
(0.00026564 0.000268527 0.115561)
(-0.000272076 -0.00027601 0.115559)
(3.05088e-06 2.51426e-06 0.115625)
(-5.88749e-06 3.28012e-06 0.115626)
(1.99584e-06 5.73856e-07 0.115626)
(-6.39933e-07 -2.34113e-07 0.115625)
(-0.000263896 0.000270221 0.115561)
(0.000271806 -0.000279771 0.115559)
(-1.62906e-07 3.27657e-07 0.115626)
(2.76522e-07 -6.38351e-07 0.115624)
(1.87982e-06 8.01688e-07 0.115625)
(2.42477e-06 -1.10535e-06 0.115624)
(-2.51602e-07 -6.29248e-07 0.115624)
(-1.60168e-06 9.42907e-07 0.115625)
(-2.42518e-06 -1.19087e-06 0.115623)
(0.000266339 -0.000266688 0.115561)
(-0.00027274 0.000275295 0.115559)
(-2.35921e-06 -1.83772e-06 0.115627)
(1.61667e-06 1.17122e-08 0.115628)
(-1.51391e-06 -4.93679e-08 0.115628)
(0.000272345 0.000275701 0.115559)
(0.000265567 0.000268417 0.115561)
(-0.000274145 -0.000275726 0.11556)
(3.84104e-06 3.96773e-06 0.115626)
(-3.0741e-06 4.01067e-06 0.115626)
(-8.40898e-07 -3.82191e-07 0.115625)
(3.10584e-07 4.0163e-07 0.115625)
(-0.000264728 0.000266624 0.115561)
(0.000273836 -0.000275941 0.11556)
(-1.31529e-06 2.5798e-07 0.115625)
(-8.83208e-07 -5.81262e-07 0.115623)
(1.88226e-06 8.82271e-07 0.115625)
(2.53079e-06 -7.31093e-07 0.115623)
(9.97965e-07 -5.82932e-07 0.115623)
(-1.69588e-06 9.75848e-07 0.115625)
(-3.09135e-06 -1.18261e-06 0.115623)
(0.000266284 -0.000266537 0.115561)
(-0.000274954 0.000275308 0.11556)
(-3.07373e-06 -3.11572e-06 0.115628)
(-5.78786e-07 5.96058e-07 0.115626)
(1.2973e-06 8.58014e-08 0.115627)
(0.000274417 0.000275706 0.11556)
(0.000264953 0.000269717 0.11556)
(1.23373e-06 9.53967e-06 0.115625)
(-8.82168e-07 9.56176e-06 0.115625)
(-0.000263776 0.000270269 0.11556)
(-1.02438e-06 2.55777e-06 0.115628)
(-1.83221e-06 -2.63262e-06 0.115627)
(1.62352e-06 -3.51894e-06 0.115626)
(0.000265893 -0.000267905 0.11556)
(-6.09714e-07 -7.56406e-06 0.115627)
(-2.65918e-06 -2.90712e-06 0.115345)
(1.89029e-05 1.8396e-05 0.115535)
(-1.38108e-07 5.15915e-06 0.115446)
(5.94735e-06 -2.26324e-07 0.115438)
(-0.000192871 5.02331e-05 0.11487)
(1.8326e-05 4.03635e-05 0.115602)
(-0.000467846 0.000345279 0.0997656)
(-1.21142e-05 -2.4828e-07 0.115612)
(5.02041e-05 -0.00019248 0.114872)
(4.04378e-05 1.87171e-05 0.115599)
(-1.46633e-07 -1.1907e-05 0.115611)
(0.000345662 -0.000467684 0.0997669)
(2.24537e-05 2.21296e-05 0.115289)
(-0.000615279 -0.000435755 0.0909731)
(-0.000435893 -0.000615043 0.0909793)
(0.000111473 0.00100933 0.11442)
(0.00159593 -0.00127393 0.0851866)
(-9.47072e-05 0.000126131 0.112959)
(-0.000515605 0.000514777 0.0972458)
(-0.00049548 -0.000613166 0.0828367)
(0.00132977 0.000429702 0.0885963)
(0.000999068 0.000111462 0.114388)
(-0.00127284 0.00159467 0.0851815)
(0.000126835 -9.42892e-05 0.112959)
(0.000510989 -0.000519669 0.0972291)
(-8.38926e-05 7.452e-05 0.115538)
(8.11254e-05 -7.48529e-05 0.115532)
(-8.08151e-05 -7.48779e-05 0.115532)
(7.35568e-05 6.19984e-05 0.116299)
(-7.31135e-05 6.19848e-05 0.116299)
(6.71011e-05 -6.87786e-05 0.116294)
(-6.68441e-05 -6.86603e-05 0.116293)
(-0.000863896 7.44673e-05 0.116184)
(-0.000278192 0.000561351 0.111333)
(-0.000214599 3.07723e-05 0.11567)
(-0.00050071 0.000166535 0.115796)
(-0.00031336 -1.29346e-05 0.115061)
(-0.00107368 -0.000185976 0.114727)
(-0.00046108 7.47558e-05 0.115824)
(-0.000613146 -0.000495165 0.0828335)
(0.000427773 0.00133339 0.088583)
(7.50375e-05 -0.000860879 0.116195)
(3.19672e-05 -0.000214006 0.115669)
(0.000559831 -0.000279147 0.111334)
(0.000171825 -0.000496011 0.115803)
(-1.30801e-05 -0.000316256 0.115061)
(7.43629e-05 -0.00045094 0.115834)
(-0.000178871 -0.00107496 0.114738)
(-0.000335761 -7.74894e-05 0.10309)
(-7.67092e-05 -0.000337108 0.10311)
(8.011e-05 8.11252e-05 0.1159)
(-0.000712787 0.000539944 0.10712)
(0.000533147 -0.00071202 0.107137)
(-9.5978e-05 -0.000510156 0.114812)
(-0.00012081 -5.42941e-05 0.0990676)
(-5.70707e-05 9.24116e-05 0.115363)
(-6.10662e-05 -0.000499226 0.0998949)
(0.00034322 1.86546e-05 0.0897161)
(-6.03015e-05 -0.00041797 0.0908125)
(-0.000525115 -9.32713e-05 0.114576)
(-7.58073e-05 -0.000118782 0.0989028)
(5.52491e-05 -4.85486e-05 0.115207)
(-0.00050368 -5.99054e-05 0.0996912)
(5.85832e-06 -4.2748e-06 0.116539)
(-4.22939e-06 4.35093e-06 0.116538)
(4.61859e-06 4.33071e-06 0.116538)
(-7.62438e-05 -6.93037e-05 0.115957)
(7.67312e-05 -6.92434e-05 0.115957)
(-7.52079e-05 7.29731e-05 0.115957)
(7.52615e-05 7.30457e-05 0.115956)
(0.000457865 -5.67075e-05 0.116557)
(-0.000112102 -0.000167624 0.114944)
(0.000115237 2.36279e-05 0.116717)
(0.000124943 -0.000116801 0.116628)
(-1.57744e-05 -2.38805e-05 0.117055)
(0.000443094 -0.00024872 0.11425)
(0.000165988 6.88043e-06 0.116591)
(1.50227e-05 0.000342074 0.089626)
(-0.000415157 -5.73667e-05 0.0906941)
(-5.34346e-05 0.000452065 0.11661)
(2.36589e-05 0.000118363 0.116693)
(-0.000136633 -0.000127047 0.115092)
(-0.000117411 0.000123873 0.11662)
(-2.22586e-05 -5.17725e-05 0.117069)
(1.01723e-05 0.000155308 0.116574)
(-0.000242271 0.000437693 0.114409)
(2.62724e-05 0.000292567 0.10939)
(0.000276335 2.39425e-05 0.109511)
(0.000365017 0.000368316 0.116482)
(0.000467229 0.000222659 0.109688)
(0.000220095 0.000467465 0.109831)
(-1.95888e-05 -0.000191993 0.113044)
(-1.51332e-05 -0.000409889 0.102171)
(-8.59037e-05 -0.000238928 0.113421)
(-2.05728e-05 -0.000207494 0.102757)
(-4.84133e-05 -0.000271003 0.0927092)
(4.64863e-05 -7.77842e-05 0.0932488)
(-0.000189499 -1.87445e-05 0.112857)
(-0.000400433 -1.81436e-05 0.101985)
(-0.000240564 -8.56218e-05 0.11326)
(-0.000201911 -2.39106e-05 0.10254)
(7.31254e-05 -6.59569e-05 0.115806)
(-7.11156e-05 6.97728e-05 0.115806)
(7.11264e-05 6.98265e-05 0.115806)
(-1.7375e-05 -1.81364e-05 0.115656)
(1.7653e-05 -1.82265e-05 0.115656)
(-1.65432e-05 1.92497e-05 0.115656)
(1.66818e-05 1.91576e-05 0.115656)
(0.000211218 -1.75565e-05 0.115151)
(0.000285916 -3.64984e-05 0.113458)
(0.000151898 -6.65398e-06 0.115847)
(7.92329e-05 -5.82395e-05 0.115711)
(0.000175669 -5.27593e-05 0.115456)
(0.000194654 -5.46787e-05 0.11329)
(0.000100311 -5.00595e-06 0.115749)
(-0.000262608 -4.21606e-05 0.0925923)
(-7.3265e-05 5.03378e-05 0.0930998)
(-1.81707e-05 0.00020771 0.115216)
(-2.89766e-06 0.000153307 0.115846)
(-3.18121e-05 0.000295709 0.113556)
(-6.53748e-05 8.70683e-05 0.115714)
(-4.9124e-05 0.000182697 0.115504)
(-1.78828e-06 0.000102584 0.115748)
(-4.39225e-05 0.000202827 0.113407)
(0.000296786 -3.27502e-05 0.10974)
(-3.87557e-05 0.00030721 0.109853)
(0.000327063 0.00033148 0.115619)
(0.000108059 4.60676e-05 0.109697)
(3.88068e-05 0.000116891 0.109828)
(-5.60557e-08 -5.77673e-05 0.112951)
(-9.0951e-07 2.93953e-05 0.102788)
(1.98676e-06 3.91999e-05 0.11296)
(-8.54623e-06 -3.51343e-05 0.102816)
(4.42708e-06 1.73931e-05 0.0934164)
(1.26215e-05 -1.07553e-05 0.0934748)
(-5.4061e-05 -3.32982e-08 0.11277)
(2.90888e-05 2.05253e-06 0.102588)
(3.92567e-05 1.99702e-06 0.112821)
(-3.41619e-05 -8.27665e-06 0.10259)
(8.84468e-06 -9.61736e-06 0.115649)
(-7.74721e-06 1.02554e-05 0.115649)
(7.86009e-06 1.01568e-05 0.115649)
(-1.3485e-06 -8.33478e-07 0.115653)
(1.44323e-06 -5.25936e-07 0.115653)
(-6.21329e-07 1.25841e-06 0.115652)
(6.64963e-07 1.20519e-06 0.115652)
(8.53922e-05 -4.63192e-07 0.115053)
(-6.83195e-05 1.45688e-05 0.113226)
(1.02544e-05 1.06985e-06 0.115651)
(8.19018e-07 -3.08917e-06 0.115621)
(-7.41018e-05 -4.69391e-07 0.115077)
(6.85967e-05 -2.55433e-05 0.113183)
(4.40858e-06 4.86601e-07 0.115649)
(1.63369e-05 2.09164e-06 0.0932773)
(-1.18856e-05 1.17151e-05 0.0933162)
(-5.69637e-07 8.16735e-05 0.115115)
(1.51431e-06 6.81936e-06 0.115651)
(1.87375e-05 -6.09682e-05 0.113313)
(-1.95879e-06 1.02179e-06 0.115625)
(1.85853e-07 -6.80789e-05 0.11512)
(8.25017e-07 8.84215e-07 0.115647)
(-2.58532e-05 6.77286e-05 0.113297)
(-2.66884e-05 -1.57186e-05 0.109804)
(-1.77178e-05 -2.48528e-05 0.109909)
(0.000273933 0.000277948 0.115554)
(2.44961e-05 2.70136e-05 0.109783)
(2.82683e-05 2.34357e-05 0.109911)
(-4.3915e-07 -5.60867e-05 0.112946)
(4.78311e-06 3.75483e-05 0.102773)
(4.1789e-07 5.59696e-05 0.112953)
(-6.09267e-06 -3.57657e-05 0.102809)
(-8.39464e-06 1.40782e-05 0.0934389)
(8.72878e-06 -1.2738e-05 0.0934788)
(-5.28049e-05 -5.13248e-07 0.112765)
(3.60357e-05 6.93166e-06 0.102573)
(5.41601e-05 4.83524e-07 0.112813)
(-3.50354e-05 -6.68755e-06 0.102585)
(1.32261e-06 3.8375e-07 0.115653)
(-4.08452e-07 8.16614e-07 0.115653)
(4.28412e-07 8.16065e-07 0.115653)
(-1.15193e-06 -4.63887e-07 0.115654)
(1.46859e-06 -3.81342e-07 0.115654)
(-5.79055e-07 7.9352e-07 0.115654)
(5.84565e-07 8.07484e-07 0.115654)
(8.43603e-05 -6.02486e-07 0.115053)
(-7.11468e-05 2.29774e-05 0.113206)
(1.47795e-06 -1.02093e-06 0.115649)
(-6.65694e-07 5.13736e-07 0.115625)
(-8.67775e-05 -1.84422e-07 0.115074)
(6.95184e-05 -2.36814e-05 0.113177)
(1.56051e-06 -1.35591e-06 0.115649)
(1.32824e-05 -1.0037e-05 0.0932989)
(-1.32314e-05 8.96243e-06 0.0933195)
(-8.00726e-07 8.07441e-05 0.115115)
(-1.10013e-06 -1.93736e-06 0.115647)
(2.3898e-05 -7.03978e-05 0.113294)
(2.22638e-06 -1.52182e-06 0.115628)
(5.85817e-07 -8.22654e-05 0.115118)
(-1.38218e-06 -1.61469e-06 0.115648)
(-2.42017e-05 6.73514e-05 0.113292)
(-2.59029e-05 -2.62997e-05 0.10982)
(-2.67032e-05 -2.61166e-05 0.109925)
(0.000272211 0.000275539 0.115559)
(2.57219e-05 2.43469e-05 0.109785)
(2.54591e-05 2.46512e-05 0.109913)
(-5.36949e-07 -5.63263e-05 0.112945)
(5.06727e-06 3.70372e-05 0.102772)
(3.60428e-07 5.53481e-05 0.112951)
(-6.01296e-06 -3.5947e-05 0.102808)
(-8.85406e-06 1.39915e-05 0.0934375)
(8.63813e-06 -1.26499e-05 0.0934766)
(-5.30602e-05 -5.38925e-07 0.112764)
(3.55932e-05 6.94898e-06 0.102572)
(5.36063e-05 4.31021e-07 0.112812)
(-3.52185e-05 -6.72455e-06 0.102585)
(1.37492e-06 -4.79587e-07 0.115654)
(-6.28149e-07 8.32056e-07 0.115654)
(6.32104e-07 8.43533e-07 0.115654)
(-1.20214e-06 -5.95656e-07 0.115654)
(1.30962e-06 -2.71862e-07 0.115654)
(-6.84824e-07 9.15001e-07 0.115654)
(7.06019e-07 9.08591e-07 0.115654)
(8.46602e-05 -5.69268e-07 0.115052)
(-7.02421e-05 2.2902e-05 0.113205)
(1.74812e-06 -1.21231e-06 0.11565)
(-1.4723e-07 -1.6492e-07 0.115625)
(-8.61597e-05 -2.20098e-07 0.115073)
(7.03465e-05 -2.34586e-05 0.113177)
(1.67607e-06 -1.20102e-06 0.115649)
(1.30838e-05 -1.00763e-05 0.0932986)
(-1.33116e-05 8.99855e-06 0.0933194)
(-8.26362e-07 8.11502e-05 0.115114)
(-1.69068e-06 -1.18927e-06 0.115648)
(2.39767e-05 -6.978e-05 0.113293)
(2.15629e-06 -1.28872e-06 0.115628)
(5.22526e-07 -8.14303e-05 0.115117)
(-1.72991e-06 -1.09677e-06 0.115648)
(-2.42021e-05 6.76503e-05 0.113291)
(-2.55951e-05 -2.61776e-05 0.109819)
(-2.69291e-05 -2.55934e-05 0.109924)
(0.000272331 0.000275773 0.115559)
(2.5837e-05 2.44933e-05 0.109785)
(2.54078e-05 2.48832e-05 0.109912)
(-4.11566e-07 -5.64262e-05 0.112945)
(5.12648e-06 3.69782e-05 0.102772)
(4.24785e-07 5.52531e-05 0.112951)
(-5.97087e-06 -3.59766e-05 0.102808)
(-8.78056e-06 1.36622e-05 0.0934382)
(8.64594e-06 -1.29136e-05 0.0934781)
(-5.30784e-05 -5.4148e-07 0.112765)
(3.55606e-05 6.93272e-06 0.102572)
(5.35565e-05 4.18812e-07 0.112812)
(-3.52209e-05 -6.72024e-06 0.102585)
(1.46625e-06 2.23766e-07 0.115654)
(-6.9088e-07 9.14594e-07 0.115654)
(7.02362e-07 9.35464e-07 0.115654)
(-1.2229e-06 -6.00949e-07 0.115654)
(1.55127e-06 -5.19384e-07 0.115654)
(-7.00404e-07 9.16061e-07 0.115654)
(6.96337e-07 9.24469e-07 0.115654)
(8.46563e-05 -6.38817e-07 0.115053)
(-7.05735e-05 2.27831e-05 0.113205)
(1.94835e-06 -1.32918e-06 0.115649)
(-2.52516e-07 1.99416e-07 0.115625)
(-8.61845e-05 -2.38648e-07 0.115073)
(6.97553e-05 -2.38565e-05 0.113177)
(1.90726e-06 -1.50814e-06 0.11565)
(1.30951e-05 -1.00507e-05 0.0932987)
(-1.32883e-05 8.99542e-06 0.0933195)
(-8.44098e-07 8.1216e-05 0.115114)
(-1.7691e-06 -1.073e-06 0.115648)
(2.39778e-05 -6.96953e-05 0.113293)
(2.12037e-06 -1.22919e-06 0.115628)
(4.98579e-07 -8.13451e-05 0.115117)
(-1.7779e-06 -1.01617e-06 0.115648)
(-2.41976e-05 6.76911e-05 0.113291)
(-2.55871e-05 -2.61452e-05 0.109819)
(-2.69476e-05 -2.55321e-05 0.109924)
(0.000272338 0.000275806 0.115559)
(2.58263e-05 2.44813e-05 0.109785)
(2.53817e-05 2.48978e-05 0.109912)
(-4.96514e-07 -5.6323e-05 0.112945)
(5.11351e-06 3.70262e-05 0.102772)
(3.91164e-07 5.52792e-05 0.112951)
(-5.98574e-06 -3.59401e-05 0.102808)
(-8.80856e-06 1.39475e-05 0.0934375)
(8.70407e-06 -1.27012e-05 0.0934766)
(-5.30687e-05 -5.37386e-07 0.112765)
(3.55633e-05 6.93587e-06 0.102572)
(5.35527e-05 4.26611e-07 0.112812)
(-3.5206e-05 -6.7239e-06 0.102585)
(1.42236e-06 -5.55998e-07 0.115654)
(-6.95109e-07 9.11782e-07 0.115654)
(6.91096e-07 9.11948e-07 0.115654)
(-1.17295e-06 -5.65573e-07 0.115654)
(1.29342e-06 -2.40343e-07 0.115654)
(-6.5835e-07 8.81407e-07 0.115654)
(6.8892e-07 8.75475e-07 0.115654)
(8.46751e-05 -5.7704e-07 0.115053)
(-7.01997e-05 2.28387e-05 0.113205)
(1.82928e-06 -1.23742e-06 0.115649)
(-1.19776e-07 -2.20389e-07 0.115625)
(-8.61005e-05 -2.3565e-07 0.115073)
(7.03418e-05 -2.34756e-05 0.113177)
(1.71212e-06 -1.22445e-06 0.115649)
(1.30863e-05 -1.00584e-05 0.0932988)
(-1.32951e-05 9.00259e-06 0.0933196)
(-8.34891e-07 8.11789e-05 0.115114)
(-1.76541e-06 -1.0524e-06 0.115648)
(2.39696e-05 -6.97071e-05 0.113293)
(2.13456e-06 -1.24319e-06 0.115628)
(5.03548e-07 -8.13225e-05 0.115117)
(-1.76116e-06 -1.02024e-06 0.115648)
(-2.4199e-05 6.76652e-05 0.113291)
(-2.55708e-05 -2.61406e-05 0.109819)
(-2.69383e-05 -2.55496e-05 0.109924)
(0.000272339 0.000275796 0.115559)
(2.58273e-05 2.44998e-05 0.109785)
(2.54005e-05 2.48889e-05 0.109912)
(-4.11514e-07 -5.63434e-05 0.112945)
(5.10785e-06 3.70379e-05 0.102771)
(4.29312e-07 5.53134e-05 0.112951)
(-5.92868e-06 -3.59618e-05 0.102808)
(-8.77017e-06 1.36755e-05 0.0934383)
(8.63067e-06 -1.29173e-05 0.0934781)
(-5.30309e-05 -5.41598e-07 0.112765)
(3.55991e-05 6.94833e-06 0.102572)
(5.35931e-05 4.178e-07 0.112812)
(-3.51763e-05 -6.71721e-06 0.102585)
(1.47089e-06 2.04125e-07 0.115654)
(-6.85817e-07 9.22316e-07 0.115654)
(7.05797e-07 9.42623e-07 0.115654)
(-8.15415e-07 -5.32716e-07 0.115654)
(1.14195e-06 -4.33478e-07 0.115654)
(-2.82151e-07 8.28687e-07 0.115654)
(2.60362e-07 8.44406e-07 0.115654)
(8.46136e-05 -6.36703e-07 0.115053)
(-7.06087e-05 2.28053e-05 0.113205)
(1.94223e-06 -1.29075e-06 0.115649)
(-4.0477e-07 2.88281e-07 0.115625)
(-8.62158e-05 -2.3732e-07 0.115073)
(6.97112e-05 -2.38314e-05 0.113177)
(1.80476e-06 -1.58735e-06 0.115649)
(1.31106e-05 -1.00688e-05 0.0932988)
(-1.32718e-05 8.99053e-06 0.0933195)
(-8.31663e-07 8.11443e-05 0.115114)
(-1.8017e-06 -1.17117e-06 0.115648)
(2.39813e-05 -6.97463e-05 0.113293)
(2.11443e-06 -1.20445e-06 0.115628)
(5.03155e-07 -8.13719e-05 0.115117)
(-1.6541e-06 -9.11525e-07 0.115648)
(-2.41603e-05 6.76398e-05 0.113291)
(-2.56077e-05 -2.61751e-05 0.109819)
(-2.69587e-05 -2.5579e-05 0.109924)
(0.000272313 0.000275768 0.115559)
(2.57936e-05 2.446e-05 0.109785)
(2.53487e-05 2.48767e-05 0.109912)
(-5.07222e-07 -5.55595e-05 0.112945)
(4.99694e-06 3.70363e-05 0.102772)
(3.7639e-07 5.50981e-05 0.112952)
(-5.9205e-06 -3.57257e-05 0.102808)
(-8.71549e-06 1.40101e-05 0.0934376)
(8.56618e-06 -1.26792e-05 0.093476)
(-5.29347e-05 -5.21525e-07 0.112765)
(3.56e-05 6.92968e-06 0.102572)
(5.35939e-05 4.23548e-07 0.112812)
(-3.51637e-05 -6.67439e-06 0.102584)
(2.15686e-06 -5.01618e-07 0.115654)
(-1.30956e-06 7.98013e-07 0.115654)
(1.42325e-06 8.08956e-07 0.115654)
(1.24325e-06 -1.63877e-06 0.115654)
(-1.67286e-06 -1.24577e-06 0.115654)
(1.88965e-06 1.56805e-06 0.115654)
(-2.27768e-06 1.46842e-06 0.115654)
(8.44936e-05 -5.44312e-07 0.115053)
(-7.02238e-05 2.28164e-05 0.113205)
(2.0803e-06 -8.47173e-07 0.11565)
(-9.90253e-07 2.68238e-07 0.115625)
(-8.61219e-05 -2.37708e-07 0.115073)
(7.02049e-05 -2.32759e-05 0.113177)
(1.3019e-06 -1.77452e-06 0.11565)
(1.31131e-05 -1.00424e-05 0.0932987)
(-1.33238e-05 8.92117e-06 0.0933194)
(-8.21969e-07 8.056e-05 0.115114)
(-2.30307e-06 -1.81139e-06 0.115648)
(2.39296e-05 -6.97115e-05 0.113293)
(1.87584e-06 -5.87023e-07 0.115628)
(5.2487e-07 -8.12014e-05 0.115118)
(-7.89808e-07 -3.0733e-07 0.115648)
(-2.41193e-05 6.73453e-05 0.113291)
(-2.56137e-05 -2.6152e-05 0.109819)
(-2.68489e-05 -2.56167e-05 0.109925)
(0.000272337 0.000275753 0.115559)
(2.58241e-05 2.43549e-05 0.109785)
(2.52344e-05 2.47885e-05 0.109912)
(-3.78696e-07 -5.25432e-05 0.112948)
(4.97984e-06 3.5935e-05 0.10277)
(4.40262e-07 5.29854e-05 0.11295)
(-5.81872e-06 -3.41166e-05 0.102813)
(-8.5378e-06 1.32589e-05 0.0934376)
(8.4993e-06 -1.21068e-05 0.0934816)
(-5.19953e-05 -4.34489e-07 0.112769)
(3.51168e-05 6.95188e-06 0.102571)
(5.28514e-05 3.76304e-07 0.11281)
(-3.45998e-05 -6.51769e-06 0.10259)
(5.3809e-06 1.82153e-06 0.115654)
(-3.72395e-06 -2.74784e-07 0.115654)
(4.40947e-06 -1.41527e-07 0.115654)
(2.97039e-06 -1.6231e-06 0.115654)
(-4.29832e-06 -1.13636e-06 0.115655)
(3.75208e-06 1.188e-06 0.115654)
(-4.56076e-06 8.03128e-07 0.115655)
(8.37349e-05 -5.2062e-07 0.115055)
(-7.00312e-05 2.22627e-05 0.113204)
(2.30574e-06 -7.50881e-08 0.115649)
(-2.11045e-06 9.79357e-07 0.115626)
(-8.56648e-05 -2.6802e-07 0.115073)
(6.89087e-05 -2.28196e-05 0.113182)
(1.78745e-06 -2.59724e-06 0.11565)
(1.29913e-05 -9.96728e-06 0.0932979)
(-1.32087e-05 8.70312e-06 0.0933232)
(-6.39733e-07 7.88399e-05 0.115114)
(-3.56276e-06 -1.23487e-06 0.115648)
(2.32579e-05 -6.87199e-05 0.113292)
(8.79127e-07 5.16196e-07 0.115627)
(4.71801e-07 -7.98205e-05 0.115117)
(2.29167e-07 -1.51457e-06 0.115647)
(-2.28887e-05 6.61664e-05 0.113295)
(-2.52061e-05 -2.59277e-05 0.109817)
(-2.61944e-05 -2.5016e-05 0.109922)
(0.000272725 0.000275643 0.11556)
(2.5297e-05 2.3886e-05 0.109791)
(2.42752e-05 2.39033e-05 0.109918)
(-4.68004e-07 -4.91446e-05 0.112826)
(3.91161e-06 3.07682e-05 0.102745)
(3.97184e-07 4.42434e-05 0.112934)
(-1.45686e-05 -3.47851e-05 0.102753)
(-6.88062e-06 1.14364e-05 0.0934154)
(1.35551e-05 -1.53456e-05 0.093438)
(3.4245e-05 7.14881e-06 0.102551)
(5.11265e-05 2.92428e-07 0.112792)
(6.70132e-06 5.33955e-06 0.115655)
(-4.14718e-06 -2.34227e-06 0.115656)
(5.37099e-06 -3.48013e-06 0.115655)
(8.12082e-05 -2.3445e-07 0.115072)
(-6.88069e-05 2.19088e-05 0.113186)
(2.06196e-07 5.67946e-07 0.115653)
(-1.94441e-06 3.15248e-06 0.115623)
(-8.45626e-05 -1.83592e-07 0.115066)
(6.72698e-05 -1.99995e-05 0.113219)
(1.6477e-06 -8.12335e-07 0.11565)
(1.28501e-05 -1.01421e-05 0.0932829)
(4.64676e-07 8.679e-05 0.115073)
(-4.4353e-06 -5.37936e-06 0.115646)
(1.85351e-05 -6.48419e-05 0.113273)
(-4.05207e-07 -7.19346e-05 0.115122)
(-1.84987e-06 -1.01035e-05 0.115646)
(-2.39989e-05 -2.60593e-05 0.109796)
(-2.22965e-05 -2.34992e-05 0.109903)
(0.000279264 0.000279203 0.115562)
(2.40667e-05 2.10464e-05 0.109831)
(2.5763e-05 2.27742e-05 0.109887)
(-2.19103e-05 -2.29717e-05 0.115296)
(0.000434734 0.000616199 0.0910541)
(0.000616494 0.000434638 0.0910413)
(0.00111711 -0.00108003 0.0600008)
(0.000569919 0.00057464 0.0784173)
(-0.00108145 0.00111401 0.0599999)
(0.000575333 0.000570019 0.0784037)
(7.04856e-05 6.33136e-05 0.115316)
(-0.000111059 -0.000422754 0.0971055)
(-0.000423161 -0.000111539 0.0970997)
(0.000290926 0.000480845 0.0938072)
(0.000481357 0.000290937 0.0937963)
(5.0339e-05 0.000192793 0.114881)
(3.91298e-05 -1.90892e-05 0.115606)
(0.000345684 0.0004678 0.0997726)
(-2.43596e-07 1.19312e-05 0.115621)
(-5.03053e-05 0.00019273 0.114881)
(-3.92424e-05 -1.89727e-05 0.115604)
(-0.000346327 0.000466811 0.0997653)
(2.3683e-07 1.19218e-05 0.115621)
(3.37248e-05 0.000169581 0.109605)
(0.00115914 -0.00420344 0.055919)
(0.000551628 0.00057805 0.0845412)
(-0.000196465 -0.000411193 0.110781)
(-3.37701e-05 0.000169528 0.109605)
(-0.00115783 -0.00420463 0.0559199)
(-0.000548319 0.000578076 0.0845419)
(0.000195472 -0.00041086 0.110783)
(6.20373e-06 9.67256e-05 0.114741)
(6.53135e-05 7.63875e-05 0.115637)
(0.000548426 -0.00131605 0.102809)
(-1.14881e-05 -8.65826e-05 0.11571)
(0.000271544 0.000315747 0.102458)
(1.24732e-06 -6.35591e-06 0.115691)
(-8.72852e-05 -0.000233651 0.114995)
(-6.1946e-06 9.67074e-05 0.114741)
(-6.55131e-05 7.65766e-05 0.115636)
(-0.000546172 -0.00131444 0.102806)
(1.13267e-05 -8.64743e-05 0.11571)
(-0.000269108 0.000314806 0.10247)
(-1.28731e-06 -6.33595e-06 0.11569)
(8.67559e-05 -0.000233493 0.114994)
(2.18162e-05 -2.28905e-05 0.115295)
(-0.000435798 0.000615039 0.0909858)
(-0.000616303 0.000434415 0.0910505)
(-0.00111782 -0.00108557 0.0600057)
(-0.000569429 0.000579181 0.0784919)