/*--------------------------------*- C++ -*----------------------------------*\
| =========                 |                                                 |
| \\      /  F ield         | OpenFOAM: The Open Source CFD Toolbox           |
|  \\    /   O peration     | Version:  2206                                  |
|   \\  /    A nd           | Website:  www.openfoam.com                      |
|    \\/     M anipulation  |                                                 |
\*---------------------------------------------------------------------------*/
FoamFile
{
    version     2.0;
    format      ascii;
    arch        "LSB;label=32;scalar=64";
    class       volScalarField;
    location    "40";
    object      k;
}
// * * * * * * * * * * * * * * * * * * * * * * * * * * * * * * * * * * * * * //

dimensions      [0 2 -2 0 0 0 0];

internalField   nonuniform List<scalar> 
66928
(
2.55804e-05
2.62793e-05
2.61781e-05
2.63095e-05
2.56865e-05
2.62581e-05
2.55667e-05
2.55638e-05
2.21928e-05
2.22096e-05
5.60182e-06
5.50481e-06
1.15689e-05
1.1479e-05
8.63905e-06
1.79686e-05
8.38152e-06
1.70489e-05
1.77532e-05
2.56783e-05
2.19483e-05
8.57383e-06
1.7061e-05
2.57145e-05
1.81081e-05
2.20705e-05
5.59078e-06
1.16234e-05
1.15267e-05
5.55115e-06
1.77785e-05
8.53374e-06
5.6168e-06
5.63718e-06
5.52784e-06
5.55496e-06
1.16958e-05
1.15133e-05
2.55615e-05
1.1714e-05
1.15773e-05
5.70139e-06
5.64918e-06
5.58869e-06
5.58624e-06
2.55605e-05
1.17587e-05
1.16227e-05
1.16947e-05
1.16376e-05
5.60479e-06
1.63765e-05
2.01329e-05
1.16033e-05
8.19472e-06
8.19669e-06
2.01495e-05
1.639e-05
1.61446e-05
1.99522e-05
1.15057e-05
8.0824e-06
8.09725e-06
1.99672e-05
1.61483e-05
8.43859e-06
4.73735e-06
4.72361e-06
4.73589e-06
4.72393e-06
8.43419e-06
8.63268e-06
1.15015e-05
1.15051e-05
5.03485e-06
1.12469e-05
4.92699e-06
1.59025e-05
6.54178e-06
6.05227e-06
1.14463e-05
5.02973e-06
6.60205e-06
1.61972e-05
6.1496e-06
1.66242e-05
2.02858e-05
1.15596e-05
8.25656e-06
2.02853e-05
8.25854e-06
1.66148e-05
1.68088e-05
2.00769e-05
1.15425e-05
8.31716e-06
8.32277e-06
2.00847e-05
1.68264e-05
8.79686e-06
4.87717e-06
4.88877e-06
4.86891e-06
4.8832e-06
8.78462e-06
5.556e-06
8.53565e-06
1.13565e-05
1.13581e-05
4.96929e-06
5.61585e-06
5.63551e-06
5.52859e-06
5.5559e-06
8.4449e-06
4.77984e-06
4.74134e-06
4.77508e-06
4.74383e-06
8.53183e-06
1.64535e-05
2.01788e-05
8.20865e-06
1.16771e-05
1.64583e-05
8.21798e-06
2.00791e-05
1.61591e-05
2.00166e-05
8.10123e-06
1.14911e-05
1.62097e-05
8.09312e-06
2.00201e-05
8.48261e-06
4.75771e-06
4.73763e-06
8.48919e-06
4.761e-06
4.73548e-06
1.63685e-05
8.24271e-06
1.17208e-05
2.02005e-05
8.24459e-06
1.64183e-05
2.01772e-05
1.63256e-05
8.1262e-06
1.15918e-05
2.00676e-05
8.13612e-06
1.63379e-05
2.00683e-05
5.70106e-06
5.66127e-06
5.59715e-06
5.58626e-06
8.48922e-06
4.80545e-06
4.75466e-06
8.49205e-06
4.80608e-06
4.75115e-06
1.64426e-05
2.01753e-05
1.17837e-05
8.34422e-06
8.33394e-06
2.01972e-05
1.65294e-05
1.62994e-05
2.00492e-05
1.16605e-05
8.17161e-06
8.1732e-06
2.01401e-05
1.62862e-05
1.65106e-05
8.28457e-06
2.02111e-05
1.1723e-05
1.64858e-05
8.29603e-06
2.01493e-05
1.62761e-05
8.1537e-06
2.01072e-05
1.16274e-05
1.62952e-05
8.15302e-06
2.01069e-05
8.52235e-06
4.82247e-06
4.77376e-06
4.82144e-06
4.7775e-06
8.51613e-06
2.07897e-05
2.55664e-05
2.38266e-05
2.36512e-05
2.37894e-05
2.36729e-05
2.08099e-05
2.10275e-05
2.5669e-05
2.39781e-05
2.38367e-05
2.39983e-05
2.38736e-05
2.10074e-05
2.06312e-05
2.38264e-05
2.36681e-05
2.55676e-05
2.0764e-05
2.37975e-05
2.36324e-05
2.07315e-05
2.55614e-05
2.38273e-05
2.37033e-05
2.38448e-05
2.37325e-05
2.06868e-05
2.04703e-05
2.0513e-05
2.41628e-05
2.27287e-05
1.79715e-05
2.0168e-05
2.27209e-05
2.00969e-05
2.41747e-05
2.39624e-05
2.25402e-05
1.77591e-05
1.99904e-05
2.25955e-05
1.99977e-05
2.39628e-05
2.47456e-05
2.19453e-05
2.13689e-05
2.51239e-05
2.13613e-05
2.51138e-05
2.47446e-05
2.42077e-05
2.28417e-05
1.81187e-05
2.03977e-05
2.04013e-05
2.28488e-05
2.42141e-05
2.49203e-05
2.2079e-05
2.51821e-05
2.1627e-05
2.5168e-05
2.16606e-05
2.49247e-05
2.40484e-05
2.26224e-05
1.78481e-05
1.99885e-05
2.26535e-05
2.00746e-05
2.40471e-05
2.07447e-05
2.55753e-05
2.37902e-05
2.36656e-05
2.07745e-05
2.38072e-05
2.37012e-05
2.06611e-05
2.5562e-05
2.38273e-05
2.37127e-05
2.07471e-05
2.37948e-05
2.36794e-05
2.22463e-05
2.62431e-05
2.62563e-05
2.56046e-05
2.22126e-05
2.62692e-05
2.62657e-05
2.56471e-05
2.21618e-05
2.62941e-05
2.6289e-05
2.57114e-05
2.21537e-05
2.62959e-05
2.62935e-05
2.56371e-05
2.21107e-05
2.62947e-05
2.63056e-05
2.55711e-05
2.21127e-05
2.6247e-05
2.6302e-05
2.5524e-05
2.21082e-05
2.62345e-05
2.63204e-05
2.55802e-05
2.20975e-05
2.62497e-05
2.63241e-05
2.55467e-05
2.21056e-05
2.62975e-05
2.63063e-05
2.55541e-05
2.22183e-05
2.62891e-05
2.62907e-05
2.55206e-05
2.21778e-05
2.63147e-05
2.63001e-05
2.55096e-05
2.2101e-05
2.62989e-05
2.63073e-05
2.55067e-05
2.20568e-05
2.62918e-05
2.63393e-05
2.55111e-05
2.2063e-05
2.62884e-05
2.634e-05
2.5539e-05
2.20333e-05
2.62693e-05
2.6321e-05
2.55482e-05
2.20854e-05
2.62972e-05
2.62959e-05
2.55556e-05
2.20544e-05
2.63206e-05
2.63011e-05
2.55989e-05
2.62879e-05
2.6312e-05
2.63071e-05
2.63385e-05
2.55845e-05
2.56081e-05
2.61821e-05
2.63257e-05
2.61882e-05
2.63697e-05
2.63071e-05
2.628e-05
2.6331e-05
2.56979e-05
2.57443e-05
2.62522e-05
2.62681e-05
2.63124e-05
2.56475e-05
2.55661e-05
2.5586e-05
2.63257e-05
2.63632e-05
2.63224e-05
2.63734e-05
2.5618e-05
2.56642e-05
2.61902e-05
2.63901e-05
2.62033e-05
2.64097e-05
2.63468e-05
2.63017e-05
2.63655e-05
2.57399e-05
2.57564e-05
2.63447e-05
2.6288e-05
2.63473e-05
2.57226e-05
2.55854e-05
2.56102e-05
2.6333e-05
2.63831e-05
2.63368e-05
2.63892e-05
2.56517e-05
2.56621e-05
2.6217e-05
2.64141e-05
2.62362e-05
2.64144e-05
2.63719e-05
2.63084e-05
2.63528e-05
2.57551e-05
2.57505e-05
2.6357e-05
2.62948e-05
2.63343e-05
2.56668e-05
2.56054e-05
2.56067e-05
2.6339e-05
2.64031e-05
2.63356e-05
2.64156e-05
2.56622e-05
2.56452e-05
2.62475e-05
2.64204e-05
2.6231e-05
2.64289e-05
2.63512e-05
2.62995e-05
2.634e-05
2.57499e-05
2.57811e-05
2.6329e-05
2.63097e-05
2.63156e-05
2.55844e-05
2.56058e-05
2.56588e-05
2.6359e-05
2.64236e-05
2.63802e-05
2.64059e-05
2.56442e-05
2.56044e-05
2.6219e-05
2.64349e-05
2.62136e-05
2.64316e-05
2.63388e-05
2.62509e-05
2.63235e-05
2.57746e-05
2.57717e-05
2.63086e-05
2.63066e-05
2.62624e-05
2.55256e-05
2.56629e-05
2.56413e-05
2.63991e-05
2.64053e-05
2.63965e-05
2.64008e-05
2.56102e-05
2.5591e-05
2.62392e-05
2.64507e-05
2.6236e-05
2.6481e-05
2.63259e-05
2.62606e-05
2.63182e-05
2.57677e-05
2.5765e-05
2.62883e-05
2.63196e-05
2.62778e-05
2.5586e-05
2.5638e-05
2.55592e-05
2.63755e-05
2.64203e-05
2.63736e-05
2.64017e-05
2.55994e-05
2.55829e-05
2.62447e-05
2.6468e-05
2.62209e-05
2.64348e-05
2.63176e-05
2.62485e-05
2.62902e-05
2.57719e-05
2.57181e-05
2.62598e-05
2.63075e-05
2.62255e-05
2.5552e-05
2.55551e-05
2.56038e-05
2.63684e-05
2.64166e-05
2.63433e-05
2.64072e-05
2.55645e-05
2.56063e-05
2.62163e-05
2.64268e-05
2.6193e-05
2.63879e-05
2.62682e-05
2.62803e-05
2.62584e-05
2.56979e-05
2.56781e-05
2.62401e-05
2.63283e-05
2.62203e-05
2.55579e-05
2.55935e-05
2.55432e-05
2.63399e-05
2.6429e-05
2.63165e-05
2.64356e-05
2.56473e-05
2.56385e-05
2.61917e-05
2.63827e-05
2.62004e-05
2.63572e-05
2.62669e-05
2.63087e-05
2.62653e-05
2.56726e-05
2.57191e-05
2.62244e-05
2.6298e-05
2.62563e-05
2.55412e-05
2.5523e-05
2.55358e-05
2.63174e-05
2.64436e-05
2.63025e-05
2.64406e-05
2.56367e-05
2.56463e-05
2.62172e-05
2.63572e-05
2.61864e-05
2.63691e-05
2.62758e-05
2.63315e-05
2.62559e-05
2.57196e-05
2.56743e-05
2.62529e-05
2.62915e-05
2.62503e-05
2.5533e-05
2.55376e-05
2.55279e-05
2.6302e-05
2.64344e-05
2.62974e-05
2.64292e-05
2.56602e-05
2.5607e-05
2.61771e-05
2.63567e-05
2.61828e-05
2.63565e-05
2.62578e-05
2.63283e-05
2.62525e-05
2.56715e-05
2.56678e-05
2.62635e-05
2.63159e-05
2.62685e-05
2.55173e-05
2.55362e-05
2.54688e-05
2.63039e-05
2.64312e-05
2.62679e-05
2.64193e-05
2.56046e-05
2.56197e-05
2.61809e-05
2.63612e-05
2.61541e-05
2.63835e-05
2.62565e-05
2.63042e-05
2.62762e-05
2.56649e-05
2.56659e-05
2.62599e-05
2.63064e-05
2.62652e-05
2.55174e-05
2.54664e-05
2.54702e-05
2.6269e-05
2.64195e-05
2.62685e-05
2.64138e-05
2.56082e-05
2.56143e-05
2.61516e-05
2.63717e-05
2.61526e-05
2.6378e-05
2.62818e-05
2.62844e-05
2.6286e-05
2.56665e-05
2.56602e-05
2.62788e-05
2.63572e-05
2.62854e-05
2.55426e-05
2.54688e-05
2.54986e-05
2.6249e-05
2.64241e-05
2.62313e-05
2.6408e-05
2.56119e-05
2.56247e-05
2.6152e-05
2.63832e-05
2.61502e-05
2.63676e-05
2.62808e-05
2.62859e-05
2.62813e-05
2.56577e-05
2.56769e-05
2.62783e-05
2.63233e-05
2.62852e-05
2.55742e-05
2.54975e-05
2.54725e-05
2.62349e-05
2.64242e-05
2.62163e-05
2.64222e-05
2.56138e-05
2.5632e-05
2.6156e-05
2.63689e-05
2.61637e-05
2.6375e-05
2.62943e-05
2.63022e-05
2.62749e-05
2.56763e-05
2.5697e-05
2.62827e-05
2.63157e-05
2.6282e-05
2.55599e-05
2.54773e-05
2.54424e-05
2.62136e-05
2.64311e-05
2.62168e-05
2.64059e-05
2.56449e-05
2.56292e-05
2.61496e-05
2.63916e-05
2.61545e-05
2.63894e-05
2.62803e-05
2.63201e-05
2.62693e-05
2.56929e-05
2.56878e-05
2.62854e-05
2.62851e-05
2.63241e-05
2.56075e-05
2.54436e-05
2.62182e-05
2.64022e-05
2.5627e-05
2.61736e-05
2.63917e-05
2.62742e-05
2.62276e-05
2.56817e-05
2.63056e-05
2.63197e-05
2.55072e-05
1.74175e-05
8.64939e-06
1.72599e-05
8.68065e-06
5.75469e-06
5.76177e-06
1.70522e-05
8.39675e-06
1.70775e-05
8.47369e-06
2.22422e-05
2.21791e-05
2.21879e-05
2.2198e-05
2.22359e-05
2.21621e-05
2.22305e-05
2.22986e-05
1.78335e-05
2.58433e-05
2.62538e-05
1.79442e-05
2.58611e-05
2.23089e-05
5.63265e-06
5.64557e-06
2.20843e-05
2.58774e-05
1.79216e-05
2.62773e-05
2.58426e-05
1.79237e-05
2.19857e-05
1.15023e-05
1.14999e-05
2.56292e-05
1.15187e-05
1.15074e-05
1.75053e-05
8.75518e-06
1.74507e-05
8.84025e-06
5.80214e-06
5.83551e-06
1.7171e-05
8.5636e-06
1.71163e-05
8.5612e-06
2.22306e-05
2.21579e-05
2.23108e-05
2.21662e-05
2.22967e-05
2.22296e-05
2.22844e-05
2.24336e-05
1.8102e-05
2.58712e-05
2.62871e-05
2.24377e-05
1.80719e-05
2.59072e-05
5.72126e-06
5.75849e-06
2.21383e-05
2.5857e-05
1.80049e-05
2.62861e-05
2.21012e-05
2.58572e-05
1.80002e-05
1.14742e-05
1.16243e-05
2.56777e-05
1.14698e-05
1.16196e-05
1.79137e-05
8.88996e-06
1.79012e-05
8.89004e-06
5.85108e-06
5.85016e-06
1.7156e-05
8.5615e-06
1.71079e-05
8.58547e-06
2.22238e-05
2.21767e-05
2.22216e-05
2.21696e-05
2.22197e-05
2.21607e-05
2.23074e-05
2.23987e-05
1.80788e-05
2.59049e-05
2.6293e-05
2.24507e-05
1.818e-05
2.59156e-05
5.7823e-06
5.79655e-06
2.22266e-05
2.58741e-05
1.81267e-05
2.62932e-05
2.21207e-05
2.58734e-05
1.80204e-05
1.14628e-05
1.14862e-05
2.56871e-05
1.13996e-05
1.15545e-05
1.78688e-05
8.89761e-06
1.80419e-05
8.88443e-06
5.85405e-06
5.85457e-06
1.72057e-05
8.58762e-06
1.70984e-05
8.56951e-06
2.22289e-05
2.21625e-05
2.22641e-05
2.2168e-05
2.21947e-05
2.21485e-05
2.22527e-05
2.22125e-05
1.8022e-05
2.58601e-05
2.63113e-05
2.22714e-05
1.79985e-05
2.58726e-05
5.79822e-06
5.77819e-06
2.22852e-05
2.58475e-05
1.81784e-05
2.63026e-05
2.2241e-05
2.58416e-05
1.81411e-05
1.13109e-05
1.15565e-05
2.56246e-05
1.13774e-05
1.15165e-05
1.76937e-05
8.7817e-06
1.77602e-05
8.76629e-06
5.81858e-06
5.80669e-06
1.7291e-05
8.52796e-06
1.72404e-05
8.51303e-06
2.2209e-05
2.21327e-05
2.22835e-05
2.21167e-05
2.21333e-05
2.21952e-05
2.21804e-05
2.22939e-05
1.80527e-05
2.58788e-05
2.62636e-05
2.23152e-05
1.80054e-05
2.58689e-05
5.74028e-06
5.73443e-06
2.22984e-05
2.58497e-05
1.8182e-05
2.63067e-05
2.23409e-05
2.58599e-05
1.80567e-05
1.13186e-05
1.14555e-05
2.554e-05
1.13893e-05
1.14493e-05
1.76037e-05
8.73671e-06
1.77016e-05
8.73467e-06
5.76973e-06
5.74925e-06
1.72824e-05
8.49339e-06
1.72962e-05
8.52701e-06
2.21368e-05
2.22393e-05
2.21913e-05
2.21093e-05
2.21026e-05
2.21849e-05
2.21594e-05
2.22099e-05
1.79807e-05
2.58805e-05
2.6246e-05
2.22638e-05
1.79193e-05
2.59118e-05
5.68969e-06
5.66692e-06
2.22567e-05
2.58424e-05
1.81708e-05
2.63218e-05
2.227e-05
2.58423e-05
1.81409e-05
1.14007e-05
1.14533e-05
2.55552e-05
1.13746e-05
1.13959e-05
1.74755e-05
8.68953e-06
1.76725e-05
8.66328e-06
5.73917e-06
5.73362e-06
1.72291e-05
8.5236e-06
1.72869e-05
8.5392e-06
2.21113e-05
2.2183e-05
2.21627e-05
2.21373e-05
2.21882e-05
2.22225e-05
2.21431e-05
2.22514e-05
1.78665e-05
2.58566e-05
2.62405e-05
2.22393e-05
1.78373e-05
2.58922e-05
5.63779e-06
5.61751e-06
2.22177e-05
2.58655e-05
1.81149e-05
2.63265e-05
2.21935e-05
2.59087e-05
1.81031e-05
1.14242e-05
1.14222e-05
2.5549e-05
1.13186e-05
1.13885e-05
1.75602e-05
8.61513e-06
1.75346e-05
8.60426e-06
5.72599e-06
5.71699e-06
1.72214e-05
8.57311e-06
1.7233e-05
8.5319e-06
2.21195e-05
2.21498e-05
2.21797e-05
2.21727e-05
2.21777e-05
2.22377e-05
2.21941e-05
2.22969e-05
1.79073e-05
2.59074e-05
2.62368e-05
2.22666e-05
1.79962e-05
2.58621e-05
5.59544e-06
5.59844e-06
2.22439e-05
2.59013e-05
1.80104e-05
2.63134e-05
2.22526e-05
2.59084e-05
1.79894e-05
1.14336e-05
1.14223e-05
2.55755e-05
1.14218e-05
1.1475e-05
1.75417e-05
8.55833e-06
1.75236e-05
8.54744e-06
5.71284e-06
5.7139e-06
1.71324e-05
8.44197e-06
1.70848e-05
8.48079e-06
2.22869e-05
2.21628e-05
2.2132e-05
2.21558e-05
2.22193e-05
2.21176e-05
2.22332e-05
2.22448e-05
1.79702e-05
2.58525e-05
2.63015e-05
2.22757e-05
1.8015e-05
2.58573e-05
5.5833e-06
5.57517e-06
2.22618e-05
2.58921e-05
1.79973e-05
2.63101e-05
2.22902e-05
2.58985e-05
1.79715e-05
1.14729e-05
1.14701e-05
2.55501e-05
1.14964e-05
1.14654e-05
1.75442e-05
8.54608e-06
1.75186e-05
8.58131e-06
5.70232e-06
5.69936e-06
1.70108e-05
8.42676e-06
1.71155e-05
8.4561e-06
2.22934e-05
2.21975e-05
2.2154e-05
2.21712e-05
2.22425e-05
2.2158e-05
2.21538e-05
2.22827e-05
1.80618e-05
2.58597e-05
2.62988e-05
2.22558e-05
1.80003e-05
2.58603e-05
5.54091e-06
5.5456e-06
2.23258e-05
2.58815e-05
1.80481e-05
2.62953e-05
2.23041e-05
2.58723e-05
1.794e-05
1.14546e-05
1.14096e-05
2.55351e-05
1.13274e-05
1.14294e-05
1.75831e-05
8.57845e-06
1.75846e-05
8.61351e-06
5.65944e-06
5.67518e-06
1.71026e-05
8.44294e-06
1.71791e-05
8.46736e-06
2.224e-05
2.22515e-05
2.21427e-05
2.20835e-05
2.22768e-05
2.21755e-05
2.21088e-05
2.22518e-05
1.79441e-05
2.58714e-05
2.63193e-05
2.22523e-05
1.78433e-05
2.58768e-05
5.55451e-06
5.57751e-06
2.22969e-05
2.58668e-05
1.80164e-05
2.62953e-05
2.23158e-05
2.5878e-05
1.80274e-05
1.13143e-05
1.13555e-05
2.55121e-05
1.13742e-05
1.14244e-05
1.75577e-05
8.62223e-06
1.75603e-05
8.58092e-06
5.69137e-06
5.70868e-06
1.71192e-05
8.41383e-06
1.70911e-05
8.42307e-06
2.22931e-05
2.22097e-05
2.21702e-05
2.21365e-05
2.22116e-05
2.21493e-05
2.21961e-05
2.23049e-05
1.78977e-05
2.58828e-05
2.62984e-05
2.22661e-05
1.79565e-05
2.58821e-05
5.61226e-06
5.62423e-06
2.23655e-05
2.59606e-05
1.79928e-05
2.63056e-05
2.23855e-05
2.59228e-05
1.8028e-05
1.13349e-05
1.13826e-05
2.55098e-05
1.13632e-05
1.14253e-05
1.73981e-05
8.62586e-06
1.75693e-05
8.5784e-06
5.71411e-06
5.73737e-06
1.71715e-05
8.46703e-06
1.70605e-05
8.46971e-06
2.22855e-05
2.21437e-05
2.2132e-05
2.20644e-05
2.22002e-05
2.22249e-05
2.22081e-05
2.22052e-05
1.80373e-05
2.58926e-05
2.63052e-05
2.22954e-05
1.79312e-05
2.58826e-05
5.5994e-06
5.59332e-06
2.23843e-05
2.58989e-05
1.80455e-05
2.63287e-05
2.23416e-05
2.59375e-05
1.8056e-05
1.13598e-05
1.13776e-05
2.55408e-05
1.13716e-05
1.14023e-05
1.73695e-05
8.48443e-06
1.74852e-05
8.50046e-06
5.7287e-06
5.72493e-06
1.72518e-05
8.44342e-06
1.72212e-05
8.43533e-06
2.2193e-05
2.21868e-05
2.21817e-05
2.20431e-05
2.22237e-05
2.21542e-05
2.21757e-05
2.22275e-05
1.78966e-05
2.58658e-05
2.62824e-05
2.22191e-05
1.78669e-05
2.58801e-05
5.60697e-06
5.6271e-06
2.23487e-05
2.60048e-05
1.80806e-05
2.6339e-05
2.2319e-05
2.5952e-05
1.79654e-05
1.13808e-05
1.141e-05
2.55769e-05
1.14322e-05
1.13892e-05
1.74694e-05
8.45845e-06
1.7343e-05
8.49294e-06
5.69754e-06
5.66262e-06
1.72968e-05
8.44515e-06
1.71703e-05
8.42446e-06
2.2217e-05
2.21695e-05
2.2165e-05
2.20379e-05
2.22076e-05
2.21784e-05
2.21935e-05
2.22794e-05
1.78854e-05
2.5913e-05
2.62839e-05
2.2288e-05
1.79176e-05
2.59064e-05
5.59407e-06
5.59391e-06
2.22463e-05
2.5969e-05
1.80261e-05
2.6328e-05
2.22909e-05
2.5983e-05
1.79449e-05
1.14238e-05
1.13752e-05
2.55606e-05
1.1409e-05
1.14415e-05
1.73707e-05
8.50882e-06
1.74557e-05
8.55703e-06
5.62059e-06
5.62013e-06
1.7331e-05
8.42591e-06
1.72674e-05
8.45763e-06
2.21987e-05
2.22289e-05
2.22011e-05
2.20726e-05
2.21973e-05
2.2167e-05
2.21659e-05
2.22591e-05
1.80462e-05
2.59236e-05
2.6313e-05
2.2263e-05
1.80688e-05
2.59064e-05
5.59522e-06
5.58592e-06
2.22665e-05
2.59407e-05
1.79778e-05
2.62926e-05
2.22851e-05
2.59452e-05
1.79667e-05
1.13522e-05
1.14241e-05
2.55812e-05
1.12284e-05
1.13791e-05
1.73784e-05
8.59802e-06
1.74312e-05
8.60126e-06
5.61915e-06
5.62226e-06
1.72427e-05
8.45023e-06
1.7332e-05
8.46336e-06
2.22219e-05
2.22161e-05
2.2172e-05
2.21728e-05
2.23081e-05
1.79707e-05
2.59231e-05
2.63046e-05
2.22814e-05
1.79043e-05
2.58758e-05
5.5941e-06
5.60386e-06
2.21905e-05
2.59362e-05
1.79493e-05
2.62908e-05
2.21621e-05
2.5907e-05
1.78381e-05
1.13715e-05
1.13624e-05
2.55639e-05
1.13389e-05
1.13381e-05
1.75598e-05
8.86683e-06
8.86473e-06
1.73143e-05
2.23184e-05
1.79275e-05
2.57967e-05
2.6295e-05
2.58052e-05
2.22062e-05
1.79936e-05
2.24221e-05
1.83624e-05
2.57971e-05
2.63318e-05
1.8283e-05
2.58259e-05
2.23115e-05
1.74684e-05
8.73674e-06
1.73775e-05
8.69888e-06
1.75148e-05
8.93517e-06
8.88637e-06
1.76116e-05
2.23687e-05
2.63009e-05
1.80104e-05
2.58181e-05
2.58323e-05
2.24389e-05
1.79528e-05
2.24773e-05
2.63366e-05
1.83216e-05
2.58542e-05
1.82856e-05
2.58353e-05
2.25729e-05
1.18611e-05
1.14873e-05
2.55812e-05
1.19173e-05
1.15188e-05
5.56675e-06
5.59466e-06
5.80089e-06
5.76769e-06
2.55749e-05
1.19905e-05
1.16653e-05
1.19652e-05
1.16291e-05
5.64774e-06
5.61547e-06
2.19937e-05
1.77187e-05
2.56944e-05
2.61878e-05
2.56981e-05
2.20075e-05
1.7753e-05
1.71173e-05
8.6169e-06
8.65184e-06
1.70756e-05
2.21654e-05
2.57419e-05
1.8172e-05
2.63588e-05
2.5758e-05
1.81759e-05
2.21124e-05
1.70868e-05
8.56281e-06
1.7008e-05
8.51892e-06
2.2089e-05
2.61917e-05
1.80189e-05
2.57632e-05
2.5728e-05
2.20821e-05
1.79426e-05
1.7203e-05
8.72437e-06
8.68702e-06
1.72049e-05
2.21663e-05
2.63708e-05
2.58342e-05
1.82225e-05
2.57611e-05
1.83007e-05
2.21454e-05
1.73344e-05
8.52724e-06
8.59892e-06
1.73066e-05
2.234e-05
2.58245e-05
1.79054e-05
2.63218e-05
2.5798e-05
1.79623e-05
2.22687e-05
1.74516e-05
8.58412e-06
8.59976e-06
1.73593e-05
2.2397e-05
2.62603e-05
1.80127e-05
2.58686e-05
1.80259e-05
2.58585e-05
2.24394e-05
1.73751e-05
8.6663e-06
8.63397e-06
1.74932e-05
2.23974e-05
2.63229e-05
2.58067e-05
1.80423e-05
2.58087e-05
1.79458e-05
2.24175e-05
1.73797e-05
8.61646e-06
8.61878e-06
1.75334e-05
1.15821e-05
1.15895e-05
2.57246e-05
1.16935e-05
1.16823e-05
5.5703e-06
5.59885e-06
5.70753e-06
5.65986e-06
2.57184e-05
1.17961e-05
1.17592e-05
1.17644e-05
1.17019e-05
5.63655e-06
5.6042e-06
2.21352e-05
2.5879e-05
1.79855e-05
2.62818e-05
2.58859e-05
1.79673e-05
2.21756e-05
1.72636e-05
8.57138e-06
8.58814e-06
1.72378e-05
1.73924e-05
8.68571e-06
8.73154e-06
1.72906e-05
2.209e-05
2.62692e-05
2.58712e-05
1.80152e-05
2.58316e-05
1.79519e-05
2.20361e-05
2.21672e-05
2.62999e-05
2.58555e-05
1.81406e-05
2.58976e-05
1.81248e-05
2.22112e-05
1.72886e-05
8.62109e-06
8.59963e-06
1.72395e-05
1.74341e-05
8.76795e-06
8.75098e-06
1.73912e-05
5.56708e-06
5.56485e-06
5.58327e-06
5.60319e-06
2.56349e-05
1.14911e-05
1.16178e-05
1.1508e-05
1.16197e-05
5.55907e-06
5.57011e-06
5.62511e-06
5.62176e-06
5.72216e-06
5.77225e-06
5.60862e-06
5.62167e-06
1.18643e-05
1.16539e-05
2.55807e-05
1.19334e-05
1.16793e-05
5.80356e-06
5.79233e-06
5.61472e-06
5.63295e-06
2.558e-05
1.20397e-05
1.17132e-05
1.20071e-05
1.17371e-05
1.77447e-05
8.9584e-06
1.76243e-05
9.03964e-06
2.2582e-05
1.81669e-05
2.58823e-05
2.63189e-05
2.2536e-05
1.83329e-05
2.58677e-05
2.27233e-05
1.84471e-05
2.58651e-05
2.63675e-05
2.26632e-05
1.8519e-05
2.58773e-05
1.76098e-05
8.89517e-06
8.88439e-06
1.7901e-05
1.78469e-05
9.10797e-06
9.07723e-06
1.80092e-05
2.26394e-05
2.63344e-05
1.84373e-05
2.58851e-05
1.8338e-05
2.59217e-05
2.27031e-05
2.2721e-05
2.63812e-05
1.86186e-05
2.58861e-05
1.84908e-05
2.58821e-05
2.28004e-05
1.20167e-05
1.17453e-05
2.56603e-05
1.20382e-05
1.1804e-05
5.67e-06
5.67725e-06
5.85396e-06
5.84592e-06
2.56569e-05
1.20335e-05
1.18208e-05
1.20391e-05
1.18749e-05
5.67862e-06
5.69594e-06
2.21305e-05
1.79123e-05
2.57472e-05
2.61938e-05
2.21521e-05
1.79236e-05
2.57567e-05
1.73494e-05
8.77171e-06
1.73167e-05
8.80835e-06
2.22024e-05
2.58118e-05
1.84009e-05
2.64078e-05
2.21693e-05
2.58782e-05
1.83969e-05
1.71598e-05
8.56803e-06
8.59128e-06
1.71619e-05
2.21426e-05
2.62018e-05
1.79382e-05
2.57537e-05
1.80127e-05
2.57892e-05
2.20576e-05
1.72992e-05
8.83978e-06
8.82922e-06
1.72913e-05
2.22202e-05
2.64065e-05
2.58604e-05
1.83143e-05
2.58632e-05
1.82735e-05
2.21996e-05
1.75886e-05
8.66496e-06
1.75123e-05
8.65746e-06
2.24993e-05
2.58562e-05
1.80957e-05
2.63524e-05
2.24807e-05
2.58869e-05
1.80788e-05
1.76192e-05
8.65246e-06
1.75869e-05
8.65017e-06
2.24149e-05
2.63052e-05
1.81317e-05
2.59439e-05
1.80815e-05
2.59215e-05
2.2466e-05
1.75953e-05
8.67035e-06
8.69678e-06
1.75778e-05
2.25327e-05
2.63625e-05
2.58946e-05
1.80171e-05
2.59101e-05
1.80541e-05
2.25189e-05
1.76008e-05
8.64282e-06
8.66871e-06
1.75899e-05
1.18341e-05
1.17089e-05
2.57536e-05
1.19396e-05
1.17703e-05
5.64366e-06
5.65971e-06
5.77929e-06
5.76968e-06
2.57506e-05
1.1959e-05
1.18529e-05
1.19478e-05
1.18574e-05
5.69997e-06
5.66839e-06
2.22593e-05
2.59005e-05
1.81244e-05
2.63391e-05
2.22379e-05
2.58782e-05
1.81773e-05
1.72489e-05
8.63864e-06
1.72325e-05
8.66108e-06
1.74279e-05
8.78335e-06
1.74785e-05
8.78288e-06
2.21451e-05
2.62775e-05
2.59176e-05
1.80366e-05
2.58657e-05
1.79663e-05
2.21825e-05
2.22729e-05
2.6341e-05
2.59172e-05
1.81219e-05
2.5906e-05
1.80939e-05
2.21656e-05
1.73706e-05
8.71254e-06
8.68446e-06
1.72544e-05
1.75031e-05
8.79325e-06
8.79322e-06
1.74761e-05
5.5558e-06
5.53215e-06
5.62785e-06
5.62703e-06
2.56853e-05
1.14612e-05
1.15783e-05
1.15332e-05
1.16434e-05
5.53272e-06
5.55226e-06
5.63426e-06
5.64532e-06
5.80938e-06
5.80956e-06
5.62155e-06
5.59278e-06
1.20695e-05
1.16778e-05
2.55994e-05
1.20633e-05
1.16355e-05
5.82173e-06
5.81247e-06
5.58202e-06
5.59388e-06
2.56026e-05
1.20741e-05
1.1582e-05
1.20505e-05
1.16535e-05
1.80284e-05
9.12523e-06
1.80244e-05
9.11923e-06
2.26993e-05
1.84979e-05
2.58925e-05
2.63432e-05
2.27038e-05
1.83593e-05
2.59101e-05
2.27846e-05
1.86321e-05
2.5893e-05
2.63862e-05
2.28076e-05
1.86188e-05
2.59019e-05
1.80671e-05
8.92437e-06
8.92729e-06
1.80561e-05
1.79785e-05
9.11622e-06
9.13418e-06
1.80338e-05
2.27244e-05
2.63406e-05
1.84806e-05
2.58903e-05
1.832e-05
2.58938e-05
2.26412e-05
2.27635e-05
2.63921e-05
1.86376e-05
2.58671e-05
1.87066e-05
2.59111e-05
2.26719e-05
1.20367e-05
1.18303e-05
2.56617e-05
1.20035e-05
1.17179e-05
5.68622e-06
5.66421e-06
5.85761e-06
5.86641e-06
2.56535e-05
1.20557e-05
1.17293e-05
1.20624e-05
1.17916e-05
5.65134e-06
5.6736e-06
2.21644e-05
1.80624e-05
2.57634e-05
2.62304e-05
2.21621e-05
1.80561e-05
2.57581e-05
1.71307e-05
8.86914e-06
1.73219e-05
8.86312e-06
2.20804e-05
2.58612e-05
1.84705e-05
2.64175e-05
2.22267e-05
2.58452e-05
1.84002e-05
1.72088e-05
8.59244e-06
8.58895e-06
1.71903e-05
2.2132e-05
2.62356e-05
1.78878e-05
2.58297e-05
1.80383e-05
2.57828e-05
2.2142e-05
1.7272e-05
8.87582e-06
8.88981e-06
1.71144e-05
2.21737e-05
2.64168e-05
2.58278e-05
1.84972e-05
2.5837e-05
1.85156e-05
2.20887e-05
1.73792e-05
8.69581e-06
1.75867e-05
8.68728e-06
2.24176e-05
2.5919e-05
1.805e-05
2.63726e-05
2.25136e-05
2.59146e-05
1.79271e-05
1.75067e-05
8.66323e-06
1.76282e-05
8.59439e-06
2.23827e-05
2.62912e-05
1.80417e-05
2.58651e-05
1.81814e-05
2.58684e-05
2.23291e-05
1.7406e-05
8.66242e-06
8.70493e-06
1.72976e-05
2.24192e-05
2.6376e-05
2.59347e-05
1.79425e-05
2.59079e-05
1.79852e-05
2.23927e-05
1.74415e-05
8.52982e-06
8.60273e-06
1.74942e-05
1.20313e-05
1.18964e-05
2.57555e-05
1.20428e-05
1.184e-05
5.71428e-06
5.69265e-06
5.81207e-06
5.81856e-06
2.5757e-05
1.20948e-05
1.18205e-05
1.20989e-05
1.19176e-05
5.67741e-06
5.70374e-06
2.22907e-05
2.59163e-05
1.81359e-05
2.63408e-05
2.22487e-05
2.58972e-05
1.81264e-05
1.7474e-05
8.72263e-06
1.74436e-05
8.69988e-06
1.75536e-05
8.8123e-06
1.75214e-05
8.79372e-06
2.22044e-05
2.62948e-05
2.58417e-05
1.81044e-05
2.5886e-05
1.81096e-05
2.22875e-05
2.22754e-05
2.63422e-05
2.59118e-05
1.80781e-05
2.58783e-05
1.8135e-05
2.22832e-05
1.75311e-05
8.7289e-06
8.72388e-06
1.74474e-05
1.75525e-05
8.76215e-06
8.80282e-06
1.74386e-05
5.52599e-06
5.50741e-06
5.63456e-06
5.61421e-06
2.56915e-05
1.13879e-05
1.15778e-05
1.14358e-05
1.15822e-05
5.48839e-06
5.52016e-06
5.61282e-06
5.61924e-06
5.82235e-06
5.81489e-06
5.59846e-06
5.5896e-06
1.20872e-05
1.15852e-05
2.56237e-05
1.20513e-05
1.16156e-05
5.78597e-06
5.82151e-06
5.57858e-06
5.59393e-06
2.56098e-05
1.20442e-05
1.16009e-05
1.20799e-05
1.15933e-05
1.79181e-05
9.13251e-06
1.79758e-05
9.09483e-06
2.2528e-05
1.8427e-05
2.58899e-05
2.63374e-05
2.26421e-05
1.8434e-05
2.58438e-05
2.2648e-05
1.85994e-05
2.58615e-05
2.64029e-05
2.27514e-05
1.85839e-05
2.58586e-05
1.78119e-05
8.8222e-06
8.90714e-06
1.77866e-05
1.78046e-05
9.06877e-06
9.09513e-06
1.78772e-05
2.26086e-05
2.63508e-05
1.83281e-05
2.5857e-05
1.84063e-05
2.58836e-05
2.25134e-05
2.25923e-05
2.64043e-05
1.86342e-05
2.58728e-05
1.87232e-05
2.5898e-05
2.25422e-05
1.20216e-05
1.17184e-05
2.5664e-05
1.20568e-05
1.16311e-05
5.65459e-06
5.61748e-06
5.82569e-06
5.85011e-06
2.56623e-05
1.19484e-05
1.16349e-05
1.20153e-05
1.17109e-05
5.60867e-06
5.62231e-06
2.21393e-05
1.79966e-05
2.58266e-05
2.62332e-05
2.21682e-05
1.7994e-05
2.58145e-05
1.72718e-05
8.87404e-06
1.72905e-05
8.86853e-06
2.21644e-05
2.58243e-05
1.84995e-05
2.64262e-05
2.20879e-05
2.58518e-05
1.84738e-05
1.72747e-05
8.53535e-06
8.59342e-06
1.73169e-05
2.21411e-05
2.62272e-05
1.80444e-05
2.57922e-05
1.79758e-05
2.57962e-05
2.21462e-05
1.73365e-05
8.80969e-06
8.88851e-06
1.72886e-05
2.21076e-05
2.64305e-05
2.58585e-05
1.83956e-05
2.58133e-05
1.84544e-05
2.21572e-05
1.73724e-05
8.67144e-06
1.73801e-05
8.62161e-06
2.23416e-05
2.59861e-05
1.78721e-05
2.63521e-05
2.23574e-05
2.59474e-05
1.78815e-05
1.74643e-05
8.5601e-06
1.74316e-05
8.55969e-06
2.23223e-05
2.62954e-05
1.79598e-05
2.58571e-05
1.801e-05
2.587e-05
2.23195e-05
1.74315e-05
8.62736e-06
8.63999e-06
1.74176e-05
2.22603e-05
2.63479e-05
2.59247e-05
1.7904e-05
2.59299e-05
1.79267e-05
2.23345e-05
1.74241e-05
8.56673e-06
8.57783e-06
1.74526e-05
1.21222e-05
1.19003e-05
2.57664e-05
1.19474e-05
1.18166e-05
5.69376e-06
5.6865e-06
5.74031e-06
5.78021e-06
2.57607e-05
1.18882e-05
1.18751e-05
1.19743e-05
1.18922e-05
5.69079e-06
5.69852e-06
2.21865e-05
2.58859e-05
1.80479e-05
2.6331e-05
2.22467e-05
2.58765e-05
1.80663e-05
1.7546e-05
8.74571e-06
1.7381e-05
8.71304e-06
1.74814e-05
8.76833e-06
1.75072e-05
8.72245e-06
2.23014e-05
2.632e-05
2.58553e-05
1.81919e-05
2.58439e-05
1.81893e-05
2.23371e-05
2.22767e-05
2.63265e-05
2.58979e-05
1.79126e-05
2.58719e-05
1.80419e-05
2.22824e-05
1.74828e-05
8.72681e-06
8.73105e-06
1.75427e-05
1.74404e-05
8.71121e-06
8.73064e-06
1.75161e-05
5.49015e-06
5.49087e-06
5.61503e-06
5.595e-06
2.56136e-05
1.13847e-05
1.15072e-05
1.14067e-05
1.14889e-05
5.49188e-06
5.50466e-06
5.56302e-06
5.58869e-06
5.78809e-06
5.754e-06
5.57616e-06
5.56786e-06
1.202e-05
1.15998e-05
2.56374e-05
1.19695e-05
1.1552e-05
5.71836e-06
5.75363e-06
5.56772e-06
5.57238e-06
2.56331e-05
1.19149e-05
1.1555e-05
1.19814e-05
1.15297e-05
1.78062e-05
9.0648e-06
1.79081e-05
9.04005e-06
2.25007e-05
1.83615e-05
2.58527e-05
2.63902e-05
2.24492e-05
1.82423e-05
2.58954e-05
2.24821e-05
1.85938e-05
2.58945e-05
2.6411e-05
2.24889e-05
1.85657e-05
2.58996e-05
1.77412e-05
8.76754e-06
8.77442e-06
1.77059e-05
1.77441e-05
8.93438e-06
9.04649e-06
1.76798e-05
2.24587e-05
2.63822e-05
1.82018e-05
2.59169e-05
1.82406e-05
2.58859e-05
2.24545e-05
2.25512e-05
2.64112e-05
1.84342e-05
2.59205e-05
1.85401e-05
2.59353e-05
2.25311e-05
1.19763e-05
1.17145e-05
2.56013e-05
1.19105e-05
1.16007e-05
5.61097e-06
5.58904e-06
5.77507e-06
5.81172e-06
2.55956e-05
1.1949e-05
1.14677e-05
1.18845e-05
1.16603e-05
5.54322e-06
5.59754e-06
2.21182e-05
1.79562e-05
2.58124e-05
2.62163e-05
2.21749e-05
1.79403e-05
2.57713e-05
1.73709e-05
8.82242e-06
1.73465e-05
8.74688e-06
2.21703e-05
2.58365e-05
1.83953e-05
2.64338e-05
2.21277e-05
2.58447e-05
1.82899e-05
1.73524e-05
8.51547e-06
8.53055e-06
1.73474e-05
2.2128e-05
2.62173e-05
1.79862e-05
2.57598e-05
1.78966e-05
2.58013e-05
2.21445e-05
1.74171e-05
8.75825e-06
8.76763e-06
1.7276e-05
2.21897e-05
2.64344e-05
2.58069e-05
1.82623e-05
2.58538e-05
1.83371e-05
2.21576e-05
1.73112e-05
8.63649e-06
1.73826e-05
8.61464e-06
2.2276e-05
2.59124e-05
1.79175e-05
2.6332e-05
2.23342e-05
2.59445e-05
1.79004e-05
1.74431e-05
8.58728e-06
1.74055e-05
8.48276e-06
2.22223e-05
2.62569e-05
1.80278e-05
2.59154e-05
1.80636e-05
2.58615e-05
2.22598e-05
1.73247e-05
8.54945e-06
8.62292e-06
1.73029e-05
2.22429e-05
2.63325e-05
2.58832e-05
1.77924e-05
2.59027e-05
1.79151e-05
2.23037e-05
1.74875e-05
8.5288e-06
8.5174e-06
1.74191e-05
1.1925e-05
1.19016e-05
2.57921e-05
1.19139e-05
1.18987e-05
5.69038e-06
5.69188e-06
5.70692e-06
5.7432e-06
2.57771e-05
1.18468e-05
1.18337e-05
1.19338e-05
1.19299e-05
5.69373e-06
5.69908e-06
2.22771e-05
2.59136e-05
1.80408e-05
2.62936e-05
2.22728e-05
2.58812e-05
1.79046e-05
1.76055e-05
8.73934e-06
1.76001e-05
8.69503e-06
1.74173e-05
8.71986e-06
1.75143e-05
8.64246e-06
2.22476e-05
2.63029e-05
2.58443e-05
1.81551e-05
2.58885e-05
1.8055e-05
2.23128e-05
2.22745e-05
2.62911e-05
2.58757e-05
1.79668e-05
2.58757e-05
1.79593e-05
2.22839e-05
1.76345e-05
8.69538e-06
8.7243e-06
1.74629e-05
1.74778e-05
8.65648e-06
8.65683e-06
1.74708e-05
5.4918e-06
5.48808e-06
5.54821e-06
5.53609e-06
2.55295e-05
1.13763e-05
1.14625e-05
1.14322e-05
1.15024e-05
5.50383e-06
5.49853e-06
5.56181e-06
5.54186e-06
5.72157e-06
5.67652e-06
5.57701e-06
5.5618e-06
1.18457e-05
1.1581e-05
2.5674e-05
1.17065e-05
1.15406e-05
5.6436e-06
5.67738e-06
5.56139e-06
5.56464e-06
2.5675e-05
1.16849e-05
1.15407e-05
1.17395e-05
1.15467e-05
1.77791e-05
8.93871e-06
1.77045e-05
8.91945e-06
2.23939e-05
1.82409e-05
2.59341e-05
2.63894e-05
2.23816e-05
1.80992e-05
2.58844e-05
2.24155e-05
1.83688e-05
2.59184e-05
2.63965e-05
2.25167e-05
1.83949e-05
2.5901e-05
1.76575e-05
8.70543e-06
8.72907e-06