/*--------------------------------*- C++ -*----------------------------------*\
| =========                 |                                                 |
| \\      /  F ield         | OpenFOAM: The Open Source CFD Toolbox           |
|  \\    /   O peration     | Version:  2206                                  |
|   \\  /    A nd           | Website:  www.openfoam.com                      |
|    \\/     M anipulation  |                                                 |
\*---------------------------------------------------------------------------*/
FoamFile
{
    version     2.0;
    format      ascii;
    arch        "LSB;label=32;scalar=64";
    class       volScalarField;
    location    "40";
    object      p;
}
// * * * * * * * * * * * * * * * * * * * * * * * * * * * * * * * * * * * * * //

dimensions      [0 2 -2 0 0 0 0];

internalField   nonuniform List<scalar> 
66928
(
-0.00809631
-0.00808214
-0.00808213
-0.00808228
-0.00809647
-0.00808246
-0.00812664
-0.00833128
-0.00808205
-0.00808239
-0.00809627
-0.00809663
-0.00809619
-0.00809644
-0.00809625
-0.00809543
-0.00809665
-0.00809672
-0.00809577
-0.00808212
-0.00809556
-0.00809671
-0.00809673
-0.0080822
-0.00809587
-0.00809559
-0.0080967
-0.00809654
-0.00809647
-0.00809658
-0.0080957
-0.00809653
-0.00812686
-0.00821398
-0.00812688
-0.00821389
-0.00812703
-0.00812703
-0.00821394
-0.00821377
-0.00821374
-0.00833134
-0.0082445
-0.00833114
-0.0082442
-0.00824426
-0.00833118
-0.00833108
-0.0082446
-0.00824435
-0.00806788
-0.00806804
-0.0080965
-0.00806798
-0.00809613
-0.0080681
-0.00806773
-0.00809632
-0.00806807
-0.00809673
-0.00806803
-0.00809627
-0.00806821
-0.00806773
-0.00809643
-0.00806787
-0.00809637
-0.00809647
-0.00806809
-0.00806807
-0.00809666
-0.00806789
-0.00809622
-0.00806777
-0.00809589
-0.00809671
-0.00809654
-0.00809672
-0.00809665
-0.00809664
-0.00809675
-0.00809657
-0.00809665
-0.00809672
-0.00809664
-0.00806832
-0.00809683
-0.00806819
-0.00809643
-0.00806794
-0.00806844
-0.0080966
-0.0080684
-0.00809676
-0.00806835
-0.00809635
-0.00806852
-0.00806806
-0.00809652
-0.00806815
-0.00809659
-0.00809654
-0.00806833
-0.00806837
-0.00809681
-0.00806824
-0.00806813
-0.00809651
-0.00806809
-0.00809638
-0.00815521
-0.00818563
-0.00815527
-0.00818544
-0.00818539
-0.00821388
-0.00821384
-0.00818566
-0.00818558
-0.0082141
-0.00815503
-0.00812654
-0.00812717
-0.00815512
-0.00812687
-0.00815501
-0.00815527
-0.00815508
-0.00812652
-0.00812715
-0.00815521
-0.00812685
-0.00815503
-0.00815541
-0.0081553
-0.00812695
-0.00812692
-0.00812666
-0.00815514
-0.00815516
-0.00818566
-0.00821367
-0.00818562
-0.00821412
-0.00818581
-0.00821384
-0.00818533
-0.00818558
-0.00821363
-0.00818545
-0.00821417
-0.00818569
-0.00821386
-0.00818519
-0.00830309
-0.00827273
-0.00830274
-0.00827255
-0.00827271
-0.00824437
-0.00824428
-0.00824412
-0.00827253
-0.00827249
-0.00830302
-0.00833148
-0.00830316
-0.00833102
-0.00830323
-0.00830279
-0.00833117
-0.00830291
-0.00833146
-0.00830287
-0.00833095
-0.00830305
-0.00830256
-0.00833117
-0.0082725
-0.00824465
-0.00824415
-0.00827261
-0.00824441
-0.00827242
-0.00827282
-0.0082725
-0.00824448
-0.00824397
-0.00827253
-0.00824433
-0.00827235
-0.00827283
-0.00830273
-0.00833118
-0.00833113
-0.00830301
-0.0083029
-0.00833138
-0.00806958
-0.00806806
-0.00809569
-0.00809581
-0.00806854
-0.0080685
-0.00809476
-0.00806984
-0.00806828
-0.00809596
-0.00809589
-0.00806873
-0.00806878
-0.00809496
-0.00815354
-0.00812718
-0.00812712
-0.00815497
-0.00812826
-0.00815442
-0.00815452
-0.00830451
-0.00830299
-0.00833069
-0.00833073
-0.00830353
-0.00830338
-0.00832971
-0.00808213
-0.00808229
-0.00806758
-0.00809679
-0.00806872
-0.00809521
-0.0080675
-0.00806867
-0.00809649
-0.00806755
-0.00809704
-0.00806879
-0.00809563
-0.00806745
-0.00806896
-0.00809685
-0.00806757
-0.00806915
-0.00809558
-0.00809696
-0.0080691
-0.00806766
-0.00809684
-0.00806768
-0.00809714
-0.00806889
-0.00809571
-0.00806903
-0.0080676
-0.00809691
-0.00806764
-0.00806917
-0.00809698
-0.00809561
-0.0080677
-0.00806912
-0.00809689
-0.00806796
-0.00809703
-0.00806904
-0.0080955
-0.00806781
-0.00806919
-0.00809674
-0.00818716
-0.00818556
-0.00821334
-0.00821339
-0.00821234
-0.00818611
-0.00818601
-0.008271
-0.00827256
-0.00824481
-0.00824467
-0.00824581
-0.00827198
-0.00827202
-0.00814075
-0.00814083
-0.0081409
-0.00812672
-0.00837576
-0.0083757
-0.00837569
-0.00836142
-0.00861042
-0.00861041
-0.00861041
-0.0085962
-0.00884478
-0.00884477
-0.00884484
-0.00883064
-0.00907916
-0.00907918
-0.00907924
-0.00906503
-0.00931359
-0.00931361
-0.00931363
-0.00929943
-0.00954784
-0.00954789
-0.00954788
-0.0095337
-0.00978167
-0.00978168
-0.00978169
-0.00976749
-0.0100152
-0.0100152
-0.0100152
-0.010001
-0.0102486
-0.0102486
-0.0102486
-0.0102345
-0.0104818
-0.0104819
-0.0104819
-0.0104677
-0.0107151
-0.0107151
-0.0107151
-0.010701
-0.0109485
-0.0109485
-0.0109485
-0.0109343
-0.0111822
-0.0111822
-0.0111822
-0.011168
-0.0114162
-0.0114162
-0.0114162
-0.011402
-0.0116505
-0.0116505
-0.0116506
-0.0116363
-0.0118853
-0.0118855
-0.0118854
-0.0118713
-0.00814084
-0.00814079
-0.00831728
-0.00831728
-0.00812669
-0.00833125
-0.00814086
-0.00814091
-0.00831718
-0.0083171
-0.0081408
-0.00831713
-0.00831712
-0.00812674
-0.00833118
-0.00814089
-0.00831717
-0.00831723
-0.00833117
-0.00836159
-0.00856595
-0.00837577
-0.00837573
-0.00855188
-0.00855188
-0.00836156
-0.00856594
-0.00837569
-0.00837559
-0.00855183
-0.00855177
-0.00837553
-0.00855179
-0.00855177
-0.00836149
-0.00856588
-0.00837554
-0.00855178
-0.0085518
-0.00856588
-0.00859627
-0.00880032
-0.00861042
-0.00861039
-0.00878624
-0.00878623
-0.00859625
-0.00880029
-0.0086104
-0.00861033
-0.00878626
-0.00878627
-0.0086103
-0.0087862
-0.00878625
-0.00859622
-0.00880036
-0.00861034
-0.00878626
-0.00878628
-0.00880035
-0.00883063
-0.00903468
-0.00884476
-0.00884471
-0.0090206
-0.0090206
-0.0088306
-0.00903469
-0.00884478
-0.00884477
-0.00902061
-0.00902065
-0.00884474
-0.0090206
-0.00902065
-0.00883067
-0.00903476
-0.00884477
-0.00902066
-0.00902068
-0.00903475
-0.00906497
-0.00926914
-0.00907912
-0.0090791
-0.00925504
-0.00925506
-0.00906498
-0.00926916
-0.00907914
-0.00907915
-0.00925505
-0.00925506
-0.00907915
-0.00925503
-0.00925507
-0.00906504
-0.00926918
-0.00907917
-0.00925507
-0.0092551
-0.00926918
-0.00929941
-0.00950347
-0.00931357
-0.00931355
-0.00948939
-0.0094894
-0.00929942
-0.0095035
-0.00931357
-0.00931355
-0.00948938
-0.00948938
-0.00931355
-0.00948939
-0.0094894
-0.00929943
-0.00950349
-0.00931357
-0.00948938
-0.00948942
-0.00950351
-0.00953369
-0.00973738
-0.00954784
-0.00954782
-0.00972331
-0.00972331
-0.00953371
-0.00973737
-0.00954783
-0.0095478
-0.00972329
-0.00972327
-0.00954781
-0.00972327
-0.00972327
-0.00953369
-0.00973736
-0.00954783
-0.00972327
-0.0097233
-0.00973736
-0.00976753
-0.00997097
-0.00978167
-0.00978164
-0.00995692
-0.0099569
-0.00976752
-0.00997095
-0.00978166
-0.00978161
-0.00995691
-0.00995687
-0.00978159
-0.00995685
-0.00995685
-0.00976751
-0.00997095
-0.00978161
-0.00995687
-0.00995688
-0.00997092
-0.0100011
-0.0102044
-0.0100152
-0.0100152
-0.0101903
-0.0101903
-0.010001
-0.0102044
-0.0100152
-0.0100151
-0.0101903
-0.0101903
-0.0100151
-0.0101903
-0.0101903
-0.010001
-0.0102044
-0.0100151
-0.0101903
-0.0101903
-0.0102044
-0.0102345
-0.0104376
-0.0102486
-0.0102486
-0.0104236
-0.0104236
-0.0102345
-0.0104376
-0.0102486
-0.0102485
-0.0104236
-0.0104236
-0.0102485
-0.0104236
-0.0104236
-0.0102345
-0.0104376
-0.0102485
-0.0104236
-0.0104236
-0.0104376
-0.0104677
-0.0106708
-0.0104818
-0.0104818
-0.0106568
-0.0106568
-0.0104677
-0.0106708
-0.0104818
-0.0104818
-0.0106568
-0.0106568
-0.0104818
-0.0106568
-0.0106568
-0.0104677
-0.0106708
-0.0104818
-0.0106568
-0.0106568
-0.0106708
-0.0107009
-0.0109042
-0.010715
-0.010715
-0.0108902
-0.0108902
-0.010701
-0.0109042
-0.010715
-0.010715
-0.0108902
-0.0108902
-0.010715
-0.0108901
-0.0108902
-0.0107009
-0.0109042
-0.010715
-0.0108902
-0.0108902
-0.0109042
-0.0109344
-0.0111378
-0.0109485
-0.0109484
-0.0111238
-0.0111238
-0.0109344
-0.0111378
-0.0109485
-0.0109484
-0.0111238
-0.0111237
-0.0109484
-0.0111237
-0.0111237
-0.0109344
-0.0111378
-0.0109485
-0.0111237
-0.0111238
-0.0111378
-0.011168
-0.0113718
-0.0111822
-0.0111821
-0.0113577
-0.0113577
-0.011168
-0.0113718
-0.0111822
-0.0111821
-0.0113577
-0.0113577
-0.0111821
-0.0113577
-0.0113577
-0.011168
-0.0113718
-0.0111821
-0.0113577
-0.0113577
-0.0113717
-0.011402
-0.011606
-0.0114162
-0.0114161
-0.0115919
-0.0115919
-0.011402
-0.011606
-0.0114162
-0.0114161
-0.0115919
-0.0115919
-0.0114161
-0.0115919
-0.0115919
-0.011402
-0.011606
-0.0114161
-0.0115919
-0.011592
-0.011606
-0.0116363
-0.0118408
-0.0116505
-0.0116505
-0.0118267
-0.0118268
-0.0116363
-0.0118408
-0.0116505
-0.0116505
-0.0118267
-0.0118268
-0.0116505
-0.0118267
-0.0118267
-0.0116363
-0.0118408
-0.0116505
-0.0118267
-0.0118268
-0.0118409
-0.0118712
-0.0118853
-0.0118854
-0.0118712
-0.0118853
-0.0118853
-0.0118855
-0.0120621
-0.0118712
-0.0118855
-0.0120621
-0.0120762
-0.00821387
-0.00812685
-0.00812692
-0.00821395
-0.00812678
-0.00821392
-0.00821398
-0.00812689
-0.00812679
-0.00821388
-0.00814071
-0.0081408
-0.00814077
-0.00831723
-0.00831728
-0.00831719
-0.00831727
-0.0082128
-0.00812749
-0.00814077
-0.00819953
-0.00821305
-0.00819945
-0.00812765
-0.00812692
-0.00821386
-0.00821255
-0.00814085
-0.0081279
-0.0081996
-0.00819929
-0.00821286
-0.00812802
-0.00812687
-0.00812707
-0.00821368
-0.00821367
-0.00821356
-0.00844862
-0.0083618
-0.00836191
-0.00844866
-0.00836176
-0.00844867
-0.00844862
-0.00836138
-0.00836129
-0.00844857
-0.0083756
-0.00837555
-0.00837544
-0.0085518
-0.00855184
-0.00855179
-0.00855179
-0.00844756
-0.0083622
-0.00837559
-0.00843434
-0.00836234
-0.00844777
-0.00843426
-0.00836133
-0.0084485
-0.00844726
-0.00837561
-0.00836234
-0.00843429
-0.00836267
-0.00843423
-0.00844754
-0.00836141
-0.00836153
-0.00844847
-0.00844838
-0.00844827
-0.00868297
-0.00859641
-0.00859647
-0.00868304
-0.00859638
-0.008683
-0.00868327
-0.00859622
-0.00859612
-0.00868316
-0.00861034
-0.00861031
-0.00861028
-0.00878622
-0.00878625
-0.00878628
-0.00878627
-0.00868219
-0.00859696
-0.00861033
-0.00866898
-0.00859712
-0.00868237
-0.00866893
-0.00859622
-0.00868315
-0.0086819
-0.00861033
-0.00859714
-0.008669
-0.00859743
-0.00866894
-0.00868219
-0.00859624
-0.00859635
-0.00868313
-0.00868301
-0.00868291
-0.00891736
-0.00883065
-0.0088307
-0.00891744
-0.00883063
-0.00891748
-0.00891774
-0.00883062
-0.00883055
-0.00891766
-0.0088447
-0.00884474
-0.0088447
-0.00902058
-0.00902061
-0.00902066
-0.00902066
-0.00891662
-0.00883133
-0.00884474
-0.00890334
-0.00883153
-0.00891679
-0.00890331
-0.00883065
-0.00891768
-0.00891636
-0.00884476
-0.00883157
-0.0089034
-0.00883187
-0.00890334
-0.00891668
-0.00883068
-0.00883078
-0.00891754
-0.00891753
-0.0089174
-0.00915169
-0.00906495
-0.00906503
-0.00915174
-0.00906496
-0.00915176
-0.00915202
-0.00906489
-0.00906485
-0.00915191
-0.00907909
-0.00907913
-0.00907911
-0.00925502
-0.00925506
-0.00925507
-0.00925508
-0.00915102
-0.00906573
-0.00907913
-0.00913777
-0.00906594
-0.0091512
-0.00913773
-0.00906495
-0.00915192
-0.00915074
-0.00907917
-0.00906593
-0.0091378
-0.00906625
-0.00913776
-0.009151
-0.00906507
-0.00906517
-0.00915196
-0.00915187
-0.00915175
-0.00938614
-0.00929948
-0.00929955
-0.00938619
-0.00929951
-0.00938625
-0.00938641
-0.00929937
-0.0092993
-0.00938632
-0.00931352
-0.00931353
-0.0093135
-0.00948933
-0.00948938
-0.00948938
-0.00948939
-0.00938539
-0.00930018
-0.00931355
-0.00937216
-0.00930035
-0.00938556
-0.00937212
-0.0092994
-0.00938631
-0.0093851
-0.00931357
-0.00930037
-0.00937217
-0.00930067
-0.00937213
-0.00938538
-0.0092995
-0.00929961
-0.00938634
-0.00938625
-0.00938614
-0.00962029
-0.00953379
-0.00953387
-0.00962035
-0.00953379
-0.00962034
-0.00962054
-0.00953368
-0.0095336
-0.00962047
-0.00954778
-0.00954777
-0.00954776
-0.00972326
-0.00972329
-0.00972328
-0.00972329
-0.00961951
-0.00953447
-0.00954781
-0.00960634
-0.00953466
-0.00961971
-0.00960627
-0.00953371
-0.00962045
-0.00961921
-0.00954781
-0.00953464
-0.00960631
-0.00953495
-0.00960627
-0.00961949
-0.00953379
-0.00953389
-0.00962048
-0.00962035
-0.00962023
-0.00985404
-0.00976763
-0.00976771
-0.00985412
-0.00976762
-0.00985415
-0.00985431
-0.00976751
-0.00976742
-0.00985422
-0.00978159
-0.00978158
-0.00978155
-0.00995687
-0.00995688
-0.00995688
-0.00995687
-0.00985323
-0.00976827
-0.0097816
-0.00984005
-0.00976845
-0.00985341
-0.00983999
-0.00976752
-0.00985422
-0.00985295
-0.00978161
-0.00976846
-0.00984006
-0.00976875
-0.00984001
-0.00985325
-0.00976756
-0.00976768
-0.00985419
-0.00985409
-0.00985398
-0.0100875
-0.0100012
-0.0100012
-0.0100876
-0.0100012
-0.0100876
-0.0100878
-0.0100011
-0.010001
-0.0100877
-0.0100151
-0.0100151
-0.0100151
-0.0101903
-0.0101903
-0.0101903
-0.0101903
-0.0100867
-0.0100018
-0.0100151
-0.0100735
-0.010002
-0.0100869
-0.0100735
-0.010001
-0.0100877
-0.0100864
-0.0100151
-0.010002
-0.0100736
-0.0100023
-0.0100735
-0.0100867
-0.0100011
-0.0100012
-0.0100877
-0.0100876
-0.0100875
-0.0103208
-0.0102346
-0.0102347
-0.0103209
-0.0102346
-0.0103209
-0.0103211
-0.0102345
-0.0102344
-0.010321
-0.0102485
-0.0102485
-0.0102485
-0.0104235
-0.0104236
-0.0104236
-0.0104236
-0.0103201
-0.0102352
-0.0102485
-0.0103069
-0.0102354
-0.0103202
-0.0103068
-0.0102345
-0.010321
-0.0103197
-0.0102485
-0.0102354
-0.0103069
-0.0102357
-0.0103068
-0.01032
-0.0102345
-0.0102346
-0.010321
-0.0103209
-0.0103208
-0.010554
-0.0104678
-0.0104678
-0.0105541
-0.0104678
-0.0105541
-0.0105543
-0.0104676
-0.0104676
-0.0105542
-0.0104818
-0.0104818
-0.0104817
-0.0106568
-0.0106568
-0.0106568
-0.0106568
-0.0105533
-0.0104685
-0.0104818
-0.0105401
-0.0104687
-0.0105535
-0.0105401
-0.0104677
-0.0105542
-0.010553
-0.0104818
-0.0104686
-0.0105401
-0.0104689
-0.0105401
-0.0105532
-0.0104678
-0.0104679
-0.0105542
-0.0105541
-0.010554
-0.0107873
-0.010701
-0.0107011
-0.0107873
-0.010701
-0.0107874
-0.0107875
-0.0107008
-0.0107008
-0.0107874
-0.010715
-0.010715
-0.010715
-0.0108902
-0.0108902
-0.0108902
-0.0108902
-0.0107865
-0.0107017
-0.010715
-0.0107734
-0.0107019
-0.0107867
-0.0107733
-0.0107009
-0.0107874
-0.0107862
-0.010715
-0.0107018
-0.0107734
-0.0107022
-0.0107733
-0.0107865
-0.010701
-0.0107011
-0.0107875
-0.0107874
-0.0107872
-0.0110207
-0.0109344
-0.0109345
-0.0110208
-0.0109344
-0.0110208
-0.011021
-0.0109343
-0.0109342
-0.0110209
-0.0109484
-0.0109484
-0.0109484
-0.0111238
-0.0111238
-0.0111238
-0.0111238
-0.01102
-0.0109351
-0.0109484
-0.0110068
-0.0109353
-0.0110202
-0.0110068
-0.0109343
-0.0110209
-0.0110197
-0.0109485
-0.0109353
-0.0110069
-0.0109356
-0.0110068
-0.01102
-0.0109344
-0.0109345
-0.0110209
-0.0110208
-0.0110207
-0.0112545
-0.0111681
-0.0111681
-0.0112546
-0.011168
-0.0112546
-0.0112548
-0.0111679
-0.0111679
-0.0112547
-0.0111821
-0.0111821
-0.0111821
-0.0113577
-0.0113577
-0.0113577
-0.0113577
-0.0112538
-0.0111687
-0.0111821
-0.0112406
-0.0111689
-0.0112539
-0.0112406
-0.0111679
-0.0112547
-0.0112535
-0.0111821
-0.0111689
-0.0112406
-0.0111692
-0.0112406
-0.0112537
-0.011168
-0.0111681
-0.0112547
-0.0112546
-0.0112545
-0.0114886
-0.011402
-0.0114021
-0.0114887
-0.011402
-0.0114887
-0.0114889
-0.0114019
-0.0114018
-0.0114888
-0.0114161
-0.0114161
-0.0114161
-0.0115919
-0.011592
-0.0115919
-0.011592
-0.0114879
-0.0114027
-0.0114161
-0.0114747
-0.0114029
-0.011488
-0.0114747
-0.0114019
-0.0114888
-0.0114876
-0.0114161
-0.0114029
-0.0114747
-0.0114032
-0.0114747
-0.0114878
-0.011402
-0.0114021
-0.0114888
-0.0114887
-0.0114886
-0.0117231
-0.0116363
-0.0116364
-0.0117232
-0.0116363
-0.0117232
-0.0117234
-0.0116362
-0.0116362
-0.0117233
-0.0116505
-0.0116505
-0.0116505
-0.0118266
-0.0118268
-0.0118268
-0.0118268
-0.0117224
-0.011637
-0.0116505
-0.0117092
-0.0116372
-0.0117226
-0.0117092
-0.0116362
-0.0117233
-0.0117221
-0.0116505
-0.0116372
-0.0117092
-0.0116375
-0.0117092
-0.0117224
-0.0116363
-0.0116364
-0.0117234
-0.0117233
-0.0117231
-0.0119583
-0.0118712
-0.0118713
-0.0119584
-0.0118712
-0.0119584
-0.0119586
-0.0118711
-0.011871
-0.0119585
-0.0118854
-0.0118852
-0.0118854
-0.0120622
-0.0119575
-0.0118719
-0.0118855
-0.0119442
-0.0118721
-0.0119577
-0.0119442
-0.0118712
-0.0119585
-0.0119572
-0.0118854
-0.0118721
-0.0119442
-0.0118724
-0.0119443
-0.0119575
-0.0118712
-0.0118713
-0.0119585
-0.0119584
-0.0119583
-0.00821387
-0.00812679
-0.00821392
-0.00812692
-0.00821273
-0.00812768
-0.0081408
-0.00819969
-0.00819953
-0.0081279
-0.00821304
-0.00821272
-0.00812761
-0.00814074
-0.00819949
-0.00821299
-0.00819946
-0.00812789
-0.00824456
-0.00833133
-0.00833128
-0.00824458
-0.00824456
-0.00833135
-0.00824451
-0.00833127
-0.00824556
-0.00825853
-0.00833045
-0.0083173
-0.00825851
-0.00833022
-0.00824535
-0.00824555
-0.00825849
-0.00833048
-0.0083173
-0.00824527
-0.00825852
-0.00833022
-0.00812691
-0.00812677
-0.00821376
-0.00821366
-0.00821381
-0.00812676
-0.00821387
-0.00833136
-0.00824443
-0.00824421
-0.00833123
-0.00833104
-0.00824452
-0.00824422
-0.00833113
-0.00824413
-0.00821293
-0.00812765
-0.00814082
-0.00819972
-0.00819968
-0.00812763
-0.00821309
-0.00821398
-0.00812693
-0.00821385
-0.00812678
-0.00821294
-0.00814085
-0.00812768
-0.00819967
-0.00819967
-0.00821307
-0.00812764
-0.00824406
-0.00833115
-0.0083312
-0.00824422
-0.00824507
-0.00825847
-0.0083304
-0.00831711
-0.00825844
-0.00833022
-0.00824502
-0.00824406
-0.0083311
-0.00824418
-0.00833118
-0.00824507
-0.00825841
-0.0083171
-0.00833035
-0.00825845
-0.00824496
-0.00833022
-0.00821388
-0.00812675
-0.00821384
-0.00812666
-0.00821281
-0.00814073
-0.00812754
-0.00819936
-0.00819936
-0.00821299
-0.00812767
-0.00821388
-0.00812678
-0.00821379
-0.00812666
-0.008245
-0.00825836
-0.00833038
-0.00831709
-0.00824488
-0.00825833
-0.0083302
-0.00824395
-0.00833115
-0.00824413
-0.00833117
-0.008245
-0.00825832
-0.00831712
-0.00833034
-0.00825836
-0.00824484
-0.00833021
-0.00824395
-0.00833109
-0.00824406
-0.00833118
-0.00812706
-0.0081271
-0.00821388
-0.00821371
-0.00821359
-0.008127
-0.00821377
-0.00833108
-0.00824416
-0.00824415
-0.008331
-0.00833091
-0.00824429
-0.00824441
-0.00833101
-0.00824424
-0.00821253
-0.0081408
-0.00812784
-0.00819928
-0.00819915
-0.00821281
-0.00812801
-0.00821364
-0.00812712
-0.00821371
-0.0081271
-0.00821364
-0.00812701
-0.00821368
-0.0081271
-0.00824533
-0.0082584
-0.00831721
-0.00833017
-0.00825831
-0.00824518
-0.00832993
-0.00824532
-0.00825837
-0.00831726
-0.00833017
-0.00825839
-0.0082451
-0.00832994
-0.00824432
-0.008331
-0.00824432
-0.00833091
-0.00824432
-0.00833098
-0.00824425
-0.00833092
-0.0081268
-0.00821379
-0.00812696
-0.00821373
-0.00824408
-0.00833098
-0.00833087
-0.00824415
-0.00824432
-0.00833105
-0.00824406
-0.00833099
-0.00824418
-0.00836175
-0.00844868
-0.0083614
-0.00844856
-0.00836181
-0.00836152
-0.00844858
-0.00844849
-0.00844845
-0.008566
-0.00847916
-0.008566
-0.00847891
-0.00847894
-0.00856586
-0.0085659
-0.00847926
-0.00847904
-0.00844862
-0.00836182
-0.00836194
-0.00844864
-0.00844752
-0.00836257
-0.00837572
-0.0084344
-0.00836286
-0.00844777
-0.00843439
-0.00844752
-0.00836259
-0.00837568
-0.0084344
-0.00836287
-0.00844777
-0.00843439
-0.00847924
-0.00856597
-0.0084792
-0.00856589
-0.00847926
-0.00856598
-0.00847922
-0.00856588
-0.00848025
-0.00849318
-0.00856512
-0.00855187
-0.00847999
-0.0084932
-0.00856484
-0.00848026
-0.00849322
-0.00856513
-0.00855187
-0.00848001
-0.00849324
-0.00856485
-0.00836185
-0.00836151
-0.00844859
-0.0084485
-0.00844844
-0.00836141
-0.00844856
-0.00856599
-0.00847917
-0.00847895
-0.00856587
-0.00856587
-0.00847927
-0.00847904
-0.00856597
-0.00847892
-0.00844757
-0.00836221
-0.00837558
-0.00843432
-0.00836232
-0.00844777
-0.00843425
-0.00844861
-0.00836134
-0.00836132
-0.0084485
-0.00844758
-0.00837555
-0.00836212
-0.00843425
-0.00836232
-0.00843425
-0.00844773
-0.00847874
-0.008566
-0.0084789
-0.00856604
-0.00847978
-0.00849311
-0.00856521
-0.00855176
-0.00847969
-0.00849306
-0.008565
-0.00847875
-0.00856599
-0.00847887
-0.00856603
-0.00847978
-0.00849307
-0.00855177
-0.00856519
-0.00849309
-0.00847965
-0.00856501
-0.0084486
-0.00836141
-0.00836135
-0.00844854
-0.00844756
-0.0083755
-0.00836212
-0.00843422
-0.00836231
-0.00843421
-0.00844771
-0.00844859
-0.00836134
-0.00836134
-0.00844848
-0.00847977
-0.00849307
-0.00856518
-0.00855173
-0.0084797
-0.00849302
-0.00856499
-0.00847874
-0.00856598
-0.00847892
-0.00856599
-0.00847976
-0.00849309
-0.00855176
-0.00856515
-0.00849308
-0.00847962
-0.008565
-0.00847873
-0.00856593
-0.00847884
-0.008566
-0.00836143
-0.00836156
-0.00844848
-0.00844838
-0.00844828
-0.00836144
-0.00844844
-0.00856597
-0.00847886
-0.00847885
-0.00856587
-0.00856575
-0.00847897
-0.00847908
-0.00856588
-0.00847895
-0.00844726
-0.00837548
-0.00836232
-0.00843423
-0.00836263
-0.00843419
-0.00844754
-0.00844832
-0.00836148
-0.00836163
-0.00844839
-0.00844832
-0.00836147
-0.00836162
-0.00844837
-0.00848008
-0.00849303
-0.00855173
-0.00856499
-0.008493
-0.00847984
-0.00856468
-0.00848007
-0.00849313
-0.00855176
-0.00856498
-0.00849309
-0.00847982
-0.0085647
-0.00847901
-0.00856586
-0.008479
-0.00856573
-0.00847902
-0.00856583
-0.00847898
-0.00856572
-0.00836133
-0.00844849
-0.00836142
-0.00844842
-0.00847888
-0.00856581
-0.0085657
-0.00847893
-0.00847904
-0.00856591
-0.00847884
-0.00856584
-0.00847892
-0.00859638
-0.00868306
-0.00859625
-0.00868315
-0.00859647
-0.00859634
-0.00868315
-0.00868292
-0.00868303
-0.00880023
-0.00871347
-0.00880038
-0.00871342
-0.00871343
-0.00880013
-0.00880027
-0.00871361
-0.00871355
-0.00868296
-0.00859642
-0.00859652
-0.00868299
-0.00868193
-0.00859722
-0.00861037
-0.00866898
-0.00859746
-0.00868221
-0.00866895
-0.00868193
-0.00859721
-0.00861034
-0.00866895
-0.00859747
-0.00868216
-0.00866894
-0.00871353
-0.00880019
-0.00871352
-0.00880007
-0.00871354
-0.00880019
-0.0087135
-0.00880006
-0.0087146
-0.00872762
-0.00879938
-0.00878622
-0.00871435
-0.00872762
-0.00879908
-0.00871461
-0.00872763
-0.00879937
-0.00878622
-0.00871437
-0.00872764
-0.00879908
-0.00859649
-0.00859628
-0.00868314
-0.00868279
-0.00868309
-0.00859621
-0.00868314
-0.00880022
-0.00871344
-0.00871341
-0.00880013
-0.00880017
-0.0087136
-0.00871349
-0.00880029
-0.00871338
-0.00868222
-0.00859701
-0.00861031
-0.00866897
-0.0085971
-0.00868238
-0.00866893
-0.00868326
-0.00859622
-0.00859616
-0.00868315
-0.00868223
-0.00861029
-0.00859696
-0.00866895
-0.0085971
-0.00866893
-0.00868238
-0.0087133
-0.00880038
-0.00871342
-0.00880046
-0.00871435
-0.00872762
-0.0087996
-0.00878624
-0.00871422
-0.00872762
-0.00879944
-0.00871332
-0.0088004
-0.00871343
-0.00880045
-0.00871436
-0.00872765
-0.00878626
-0.00879964
-0.00872766
-0.00871422
-0.00879945
-0.00868321
-0.0085962
-0.00859614
-0.00868311
-0.0086822
-0.00861027
-0.00859693
-0.00866893
-0.00859709
-0.00866891
-0.00868234
-0.00868321
-0.00859617
-0.00859614
-0.0086831
-0.00871433
-0.00872758
-0.00879954
-0.0087862
-0.00871418
-0.00872757
-0.0087994
-0.00871327
-0.00880031
-0.00871339
-0.00880039
-0.00871432
-0.00872764
-0.00878623
-0.00879959
-0.00872763
-0.00871417
-0.00879942
-0.00871327
-0.00880036
-0.00871339
-0.00880041
-0.00859629
-0.00859638
-0.00868315
-0.00868303
-0.00868292
-0.00859628
-0.00868305
-0.00880039
-0.00871343
-0.00871344
-0.0088003
-0.00880018
-0.00871355
-0.00871365
-0.0088003
-0.00871349
-0.00868191
-0.00861028
-0.00859713
-0.00866896
-0.0085974
-0.00866892
-0.00868218
-0.00868295
-0.00859632
-0.00859643
-0.00868301
-0.00868295
-0.0085963
-0.00859643
-0.008683
-0.00871466
-0.00872762
-0.00878622
-0.00879943
-0.00872758
-0.00871441
-0.00879914
-0.00871465
-0.00872767
-0.00878625
-0.00879941
-0.00872764
-0.00871438
-0.00879915
-0.00871357
-0.00880028
-0.00871355
-0.00880015
-0.00871357
-0.00880025
-0.00871353
-0.00880015
-0.00859617
-0.0086831
-0.00859625
-0.00868304
-0.00871344
-0.00880025
-0.00880013
-0.00871348
-0.0087136
-0.00880035
-0.00871338
-0.00880026
-0.00871347
-0.00883064
-0.0089175
-0.00883064
-0.00891766
-0.00883075
-0.00883071
-0.00891752
-0.00891734
-0.0089175
-0.00903457
-0.00894792
-0.00903471
-0.00894793
-0.00894779
-0.00903449
-0.00903462
-0.00894805
-0.00894802
-0.00891735
-0.00883066
-0.00883073
-0.00891743
-0.0089163
-0.0088315
-0.00884469
-0.00890331
-0.00883172
-0.00891661
-0.00890327
-0.00891629
-0.00883147
-0.00884466
-0.00890329
-0.00883172
-0.00891659
-0.00890326
-0.00894794
-0.00903453
-0.00894794
-0.00903443
-0.00894795
-0.00903455
-0.00894796
-0.00903443
-0.00894898
-0.00896197
-0.00903374
-0.00902057
-0.00894877
-0.00896195
-0.00903344
-0.00894898
-0.00896198
-0.00903375
-0.00902057
-0.00894878
-0.00896197
-0.00903344
-0.00883075
-0.00883063
-0.0089175
-0.00891733
-0.00891746
-0.00883056
-0.00891762
-0.00903459
-0.00894792
-0.00894778
-0.00903449
-0.00903463
-0.00894806
-0.00894799
-0.00903475
-0.0089479
-0.00891666
-0.0088314
-0.00884472
-0.00890333
-0.00883153
-0.00891684
-0.0089033
-0.00891775
-0.00883064
-0.00883059
-0.00891767
-0.00891668
-0.00884472
-0.0088314
-0.00890335
-0.00883154
-0.00890333
-0.00891688
-0.00894778
-0.00903472
-0.00894792
-0.00903481
-0.00894879
-0.00896199
-0.00903396
-0.00902059
-0.00894868
-0.00896198
-0.00903379
-0.0089478
-0.00903477
-0.00894795
-0.0090348
-0.0089488
-0.00896204
-0.00902063
-0.00903401
-0.00896203
-0.00894872
-0.00903381
-0.00891771
-0.00883055
-0.00883055
-0.00891761
-0.00891664
-0.00884471
-0.00883137
-0.00890334
-0.00883152
-0.00890331
-0.00891684
-0.00891772
-0.0088306
-0.00883056
-0.00891764
-0.00894878
-0.00896195
-0.00903397
-0.00902058
-0.00894867
-0.00896194
-0.00903382
-0.00894778
-0.00903478
-0.00894792
-0.00903484
-0.00894879
-0.00896204
-0.00902063
-0.00903402
-0.00896202
-0.00894868
-0.00903385
-0.00894779
-0.0090348
-0.00894793
-0.00903485
-0.00883073
-0.00883082
-0.00891758
-0.00891755
-0.00891742
-0.00883073
-0.00891759
-0.00903476
-0.00894795
-0.00894785
-0.00903468
-0.00903458
-0.00894805
-0.00894815
-0.0090347
-0.00894803
-0.00891636
-0.00884471
-0.00883156
-0.00890337
-0.00883184
-0.00890331
-0.00891665
-0.00891745
-0.00883075
-0.00883085
-0.00891753
-0.00891745
-0.00883072
-0.00883085
-0.0089175
-0.00894911
-0.00896202
-0.00902062
-0.00903383
-0.00896198
-0.0089489
-0.00903355
-0.0089491
-0.00896207
-0.00902064
-0.00903383
-0.00896203
-0.00894886
-0.00903356
-0.00894807
-0.00903467
-0.00894808
-0.00903457
-0.00894807
-0.00903467
-0.00894804
-0.00903457
-0.00883062
-0.00891766
-0.00883069
-0.00891756
-0.00894786
-0.00903468
-0.00903456
-0.00894801
-0.0089481
-0.00903479
-0.00894793
-0.00903469
-0.00894799
-0.00906494
-0.00915179
-0.0090649
-0.00915189
-0.00906506
-0.009065
-0.00915191
-0.00915166
-0.00915177
-0.00926908
-0.00918226
-0.00926916
-0.00918221
-0.00918218
-0.00926897
-0.00926907
-0.00918241
-0.00918232
-0.00915169
-0.00906498
-0.00906506
-0.00915172
-0.00915065
-0.00906582
-0.00907906
-0.0091377
-0.00906606
-0.00915094
-0.00913767
-0.00915065
-0.00906583
-0.00907903
-0.0091377
-0.00906606
-0.00915091
-0.00913766
-0.00918231
-0.00926904
-0.00918229
-0.00926896
-0.00918233
-0.00926908
-0.00918231
-0.00926895
-0.00918338
-0.00919639
-0.00926822
-0.00925503
-0.00918314
-0.00919638
-0.00926793
-0.00918339
-0.00919642
-0.00926826
-0.00925503
-0.00918318
-0.00919641
-0.00926794
-0.0090651
-0.00906501
-0.00915193
-0.00915156
-0.00915191
-0.00906495
-0.00915198
-0.00926913
-0.00918227
-0.00918221
-0.00926903
-0.00926906
-0.00918244
-0.00918235
-0.00926918
-0.00918227
-0.00915097
-0.0090657
-0.00907908
-0.00913771
-0.00906585
-0.00915113
-0.00913769
-0.00915202
-0.00906495
-0.0090649
-0.00915191
-0.00915099
-0.00907908
-0.00906572
-0.00913774
-0.00906587
-0.00913771
-0.00915116
-0.00918209
-0.00926918
-0.00918222
-0.00926925
-0.00918312
-0.00919639
-0.0092684
-0.00925502
-0.00918299
-0.00919639
-0.00926824
-0.00918211
-0.00926919
-0.00918224
-0.00926924
-0.00918314
-0.00919645
-0.00925504
-0.00926844
-0.00919644
-0.00918302
-0.00926825
-0.00915207
-0.00906497
-0.00906496
-0.00915196
-0.00915103
-0.00907911
-0.00906576
-0.00913775
-0.00906592
-0.00913773
-0.0091512
-0.00915208
-0.00906499
-0.00906496
-0.00915197
-0.00918319
-0.00919639
-0.00926842
-0.00925501
-0.00918304
-0.00919637
-0.00926825
-0.00918216
-0.00926921
-0.00918229
-0.00926927
-0.00918318
-0.00919647
-0.00925505
-0.00926845
-0.00919645
-0.00918305
-0.00926827
-0.00918217
-0.00926923
-0.00918229
-0.00926927
-0.00906505
-0.00906517
-0.00915197
-0.00915181
-0.00915171
-0.00906505
-0.00915186
-0.00926918
-0.00918223
-0.00918224
-0.0092691
-0.009269
-0.00918235
-0.00918247
-0.00926912
-0.00918233
-0.00915075
-0.00907912
-0.00906595
-0.00913779
-0.00906623
-0.00913774
-0.00915102
-0.00915179
-0.0090651
-0.00906524
-0.00915182
-0.0091518
-0.0090651
-0.00906523
-0.00915184
-0.0091835
-0.00919643
-0.00925504
-0.00926826
-0.0091964
-0.00918324
-0.00926798
-0.0091835
-0.0091965
-0.00925506
-0.00926827
-0.00919646
-0.00918325
-0.00926798
-0.00918244
-0.0092691
-0.00918239
-0.00926901
-0.00918244
-0.00926912
-0.0091824
-0.009269
-0.00906499
-0.00915199
-0.00906506
-0.0091519
-0.00918226
-0.00926911
-0.009269
-0.00918237
-0.00918247
-0.00926921
-0.00918229
-0.00926914
-0.00918235
-0.00929946
-0.00938622
-0.00929938
-0.0093863
-0.00929957
-0.00929947
-0.00938632
-0.00938608
-0.00938618
-0.00950341
-0.00941665
-0.0095035
-0.00941658
-0.00941656
-0.0095033
-0.0095034
-0.00941679
-0.00941669
-0.00938613
-0.00929952
-0.0092996
-0.0093862
-0.00938508
-0.00930032
-0.00931351
-0.00937212
-0.00930056
-0.00938536
-0.00937209
-0.00938509
-0.00930034
-0.00931349
-0.00937213
-0.00930057
-0.00938538
-0.00937209
-0.00941673
-0.00950337
-0.00941669
-0.0095033
-0.00941675
-0.0095034
-0.00941675
-0.00950329
-0.00941778
-0.00943078
-0.00950256
-0.00948936
-0.00941753
-0.00943077
-0.00950227
-0.0094178
-0.00943081
-0.00950258
-0.00948938
-0.00941758
-0.0094308
-0.00950228
-0.00929962
-0.00929948
-0.00938634
-0.00938611
-0.00938621
-0.00929941
-0.00938633
-0.00950343
-0.0094167
-0.00941659
-0.00950332
-0.00950341
-0.00941684
-0.00941673
-0.00950351
-0.00941662
-0.00938537
-0.00930017
-0.0093135
-0.00937211
-0.00930029
-0.00938553
-0.00937207
-0.00938642
-0.00929939
-0.00929935
-0.00938631