/*--------------------------------*- C++ -*----------------------------------*\
| =========                 |                                                 |
| \\      /  F ield         | OpenFOAM: The Open Source CFD Toolbox           |
|  \\    /   O peration     | Version:  2206                                  |
|   \\  /    A nd           | Website:  www.openfoam.com                      |
|    \\/     M anipulation  |                                                 |
\*---------------------------------------------------------------------------*/
FoamFile
{
    version     2.0;
    format      ascii;
    arch        "LSB;label=32;scalar=64";
    class       volVectorField;
    location    "40";
    object      U;
}
// * * * * * * * * * * * * * * * * * * * * * * * * * * * * * * * * * * * * * //

dimensions      [0 1 -1 0 0 0 0];

internalField   nonuniform List<vector> 
66928
(
(-0.000208962 -0.00020897 0.122466)
(2.14673e-06 4.72183e-06 0.125978)
(3.35099e-08 3.68311e-07 0.125905)
(1.42169e-06 -1.41286e-07 0.125907)
(-0.000206601 0.000210766 0.122454)
(2.19992e-06 -2.20137e-06 0.125953)
(0.000200053 0.000203841 0.122502)
(-0.000208146 -0.000209744 0.122466)
(-6.3994e-07 9.33282e-07 0.129591)
(3.16247e-07 8.08428e-07 0.129585)
(-1.23536e-05 -1.10373e-05 0.0744932)
(-2.09846e-05 -5.33855e-06 0.0742968)
(-3.06438e-05 -1.21463e-05 0.0995232)
(-2.12786e-05 -2.31623e-05 0.0992003)
(-8.99531e-06 -3.86102e-05 0.0864899)
(-3.62481e-05 -3.76363e-05 0.109598)
(-4.3967e-05 -3.9083e-06 0.0860978)
(-6.0691e-05 -3.34186e-08 0.107495)
(-4.48677e-05 -3.22013e-05 0.109231)
(-2.05785e-06 -7.89549e-07 0.127421)
(-5.50172e-05 6.21856e-08 0.116502)
(-4.26911e-05 5.6723e-06 0.0861152)
(-6.08035e-05 -2.2453e-08 0.107495)
(-2.15709e-06 1.07855e-06 0.127431)
(-4.39493e-05 3.27077e-05 0.109231)
(-5.55992e-05 4.52543e-07 0.1165)
(-1.86922e-05 7.72754e-06 0.0743101)
(-1.94865e-05 2.53932e-05 0.0992194)
(-2.98599e-05 1.57533e-05 0.099556)
(-1.32819e-05 1.72161e-05 0.0744874)
(-3.69102e-05 3.96352e-05 0.109597)
(-1.15202e-05 4.35281e-05 0.0865223)
(8.13942e-06 2.38553e-05 0.0744248)
(-1.40415e-05 -1.37654e-05 0.0744825)
(1.31332e-05 1.24188e-05 0.0743014)
(-2.15393e-05 -5.81717e-06 0.074305)
(2.66931e-05 2.27919e-05 0.0995674)
(1.54175e-05 2.90203e-05 0.0993333)
(-0.000210239 -0.000209336 0.122467)
(-3.22741e-05 -1.37402e-05 0.0995315)
(-2.19182e-05 -2.41014e-05 0.0992009)
(-9.4765e-06 -1.60512e-05 0.0744825)
(9.24763e-06 2.05933e-05 0.0744169)
(-1.74835e-05 -7.03457e-06 0.0743124)
(1.30987e-05 1.07737e-05 0.0743108)
(0.000198953 0.000202838 0.122502)
(-2.94955e-05 -1.75923e-05 0.0995406)
(-2.0279e-05 -2.55937e-05 0.0992044)
(2.64748e-05 2.02547e-05 0.099575)
(1.53963e-05 2.77911e-05 0.0993346)
(9.12784e-06 2.1028e-05 0.0744312)
(2.31003e-05 7.47376e-05 0.107002)
(-2.14261e-05 -6.7248e-05 0.114052)
(2.74489e-05 2.16921e-05 0.0995695)
(-2.15218e-05 -1.37123e-05 0.0854621)
(1.74045e-05 2.13314e-05 0.0854448)
(2.45578e-05 7.51354e-05 0.114186)
(-2.44656e-05 -6.99178e-05 0.106852)
(7.40015e-05 1.90216e-05 0.106892)
(-7.39427e-05 -1.84869e-05 0.113881)
(1.69629e-05 2.8289e-05 0.099341)
(-2.13085e-05 -1.45706e-05 0.0852051)
(1.54917e-05 1.65933e-05 0.0852397)
(7.50147e-05 2.06822e-05 0.114087)
(-7.58004e-05 -1.741e-05 0.106703)
(1.91182e-05 2.02145e-05 0.0919929)
(-2.17878e-05 -9.93061e-07 0.0733772)
(-1.11984e-05 -1.36938e-05 0.0733184)
(1.42177e-05 8.32871e-06 0.0733598)
(4.22782e-06 1.78346e-05 0.073313)
(-2.25257e-05 -1.42593e-05 0.091858)
(8.48944e-06 4.68353e-05 0.0864147)
(-1.11323e-05 -4.42393e-05 0.0981777)
(3.66981e-06 5.08632e-05 0.0981219)
(-3.03431e-06 -1.20921e-05 0.0725417)
(-4.97144e-05 -2.22648e-06 0.097638)
(-1.91123e-05 2.23608e-06 0.0722553)
(-5.9515e-05 -5.8757e-07 0.105291)
(-1.65669e-05 1.26328e-07 0.0827741)
(-1.71407e-05 1.76175e-06 0.0796937)
(-4.83262e-05 3.9998e-06 0.0976498)
(-1.83567e-05 4.79747e-08 0.0722721)
(-1.65645e-05 -5.95242e-07 0.0827792)
(-6.00136e-05 9.62321e-07 0.105294)
(-1.73373e-05 -8.62457e-07 0.0797121)
(7.38525e-05 -1.85064e-05 0.106889)
(-7.24778e-05 2.02982e-05 0.113891)
(1.85381e-05 -2.68143e-05 0.0993614)
(-1.85208e-05 1.65265e-05 0.0852161)
(7.49217e-05 -2.10499e-05 0.114097)
(1.71668e-05 -1.43351e-05 0.0852466)
(-7.29674e-05 1.91729e-05 0.106701)
(2.30666e-05 -7.39574e-05 0.107001)
(-2.02474e-05 7.09886e-05 0.114027)
(2.94528e-05 -1.82862e-05 0.0995967)
(-2.05048e-05 1.71278e-05 0.0854985)
(1.70555e-05 -1.84154e-05 0.0854739)
(2.40622e-05 -7.26524e-05 0.114161)
(-2.27802e-05 7.24414e-05 0.106854)
(2.04286e-05 -1.79758e-05 0.0920117)
(-8.11298e-06 1.50362e-05 0.0733346)
(-1.91831e-05 5.17186e-06 0.0733995)
(5.94388e-06 -1.44676e-05 0.0733342)
(1.66259e-05 -5.34996e-06 0.0733796)
(-2.06521e-05 1.66228e-05 0.0918787)
(9.60007e-06 -1.59058e-05 0.0744191)
(7.35821e-06 -4.44409e-05 0.0864549)
(-6.6866e-06 4.98271e-05 0.0982487)
(6.97749e-06 -4.85996e-05 0.098222)
(-9.73068e-07 2.28946e-05 0.0725147)
(-1.33444e-05 -8.13269e-06 0.074487)
(8.09629e-06 2.34438e-05 0.0744192)
(-1.79039e-05 -4.20876e-06 0.0743008)
(1.32932e-05 1.17664e-05 0.0743057)
(1.65199e-05 1.96563e-05 0.0919983)
(-2.16235e-05 -3.67498e-06 0.0733824)
(-1.0973e-05 -1.37325e-05 0.073325)
(1.47017e-05 8.84455e-06 0.0733608)
(2.99515e-06 1.83989e-05 0.0733215)
(-2.32732e-05 -1.57868e-05 0.0918591)
(-2.55133e-05 -7.15249e-05 0.106852)
(2.37523e-05 7.55672e-05 0.114184)
(1.57881e-05 2.26861e-05 0.0854411)
(-3.18288e-05 -1.22702e-05 0.099529)
(2.14954e-05 7.50883e-05 0.107006)
(-2.05574e-05 -1.41258e-05 0.0854673)
(-2.2345e-05 -6.92727e-05 0.114051)
(-7.82941e-05 -1.70754e-05 0.106702)
(7.38208e-05 2.08721e-05 0.114088)
(1.51819e-05 1.70697e-05 0.0852338)
(-2.18874e-05 -2.31234e-05 0.0992019)
(7.2692e-05 1.91703e-05 0.106896)
(-2.27278e-05 -1.20122e-05 0.085209)
(-7.69334e-05 -1.82934e-05 0.113882)
(-2.41925e-05 -1.51994e-05 0.09186)
(1.38586e-05 1.12044e-05 0.0733601)
(4.48898e-06 1.86169e-05 0.0733175)
(1.776e-05 2.10568e-05 0.0919984)
(-2.03846e-05 -1.83827e-06 0.0733806)
(-1.17551e-05 -1.11106e-05 0.0733229)
(2.06533e-05 7.37346e-05 0.107003)
(-2.27026e-05 -1.47492e-05 0.0854688)
(2.60524e-05 2.19941e-05 0.0995799)
(-2.27409e-05 -6.80829e-05 0.11405)
(1.64995e-05 2.15669e-05 0.0854512)
(-2.58029e-05 -7.08838e-05 0.106852)
(2.27949e-05 7.38637e-05 0.114183)
(7.13365e-05 1.89054e-05 0.106894)
(-2.21296e-05 -1.47547e-05 0.0852094)
(1.50057e-05 2.84358e-05 0.0993427)
(-7.52809e-05 -1.874e-05 0.113883)
(1.45444e-05 1.80558e-05 0.0852422)
(-7.68359e-05 -1.75405e-05 0.106704)
(7.19214e-05 2.04441e-05 0.114089)
(1.17381e-05 1.92984e-05 0.0744159)
(-1.09475e-05 -1.30136e-05 0.0744828)
(1.49406e-05 1.02334e-05 0.0743133)
(-1.77912e-05 -5.59885e-06 0.0743109)
(-2.24766e-05 -1.73063e-05 0.0918629)
(1.55614e-05 8.39852e-06 0.0733651)
(5.43669e-06 1.68417e-05 0.0733257)
(1.75358e-05 1.87156e-05 0.0920012)
(-1.86105e-05 -5.15401e-06 0.073384)
(-9.15936e-06 -1.36007e-05 0.0733255)
(2.18859e-05 7.18351e-05 0.107003)
(-2.13307e-05 -7.13916e-05 0.114048)
(2.80669e-05 1.83691e-05 0.0995814)
(-1.82798e-05 -1.82843e-05 0.085477)
(1.86157e-05 1.85715e-05 0.0854547)
(2.38384e-05 7.20942e-05 0.114181)
(-2.40916e-05 -7.37951e-05 0.106851)
(7.24959e-05 1.72405e-05 0.106896)
(-7.4987e-05 -1.998e-05 0.113883)
(1.62677e-05 2.72065e-05 0.0993383)
(-2.02385e-05 -1.51067e-05 0.085214)
(1.6484e-05 1.63348e-05 0.0852421)
(7.31327e-05 1.96747e-05 0.11409)
(-7.61972e-05 -1.94902e-05 0.106705)
(-2.50662e-05 -7.26571e-05 0.106853)
(1.61992e-05 2.06296e-05 0.0854497)
(2.28548e-05 7.38941e-05 0.114183)
(-3.085e-05 -1.57827e-05 0.0995362)
(2.11134e-05 7.37672e-05 0.107004)
(-1.95165e-05 -1.63407e-05 0.0854736)
(-2.22929e-05 -7.03501e-05 0.114049)
(-7.73455e-05 -1.84523e-05 0.106706)
(1.57526e-05 1.64069e-05 0.0852393)
(7.32641e-05 2.01538e-05 0.11409)
(-2.12634e-05 -2.42847e-05 0.0992028)
(7.22277e-05 1.80918e-05 0.106895)
(-2.11113e-05 -1.35839e-05 0.0852121)
(-7.59558e-05 -1.9306e-05 0.113883)
(1.90145e-05 1.75125e-05 0.0920022)
(-1.73759e-05 -7.42008e-06 0.0733862)
(-8.16919e-06 -1.53582e-05 0.0733263)
(1.77772e-05 5.96473e-06 0.0733663)
(6.28194e-06 1.59074e-05 0.0733259)
(-2.12314e-05 -1.8897e-05 0.0918638)
(7.1179e-05 6.76658e-05 0.115267)
(0.000200811 0.000203938 0.122495)
(-0.000209129 -5.58472e-05 0.119334)
(-5.94347e-05 -0.000207215 0.119266)
(0.00021019 6.03529e-05 0.119422)
(5.91851e-05 0.00020661 0.119387)
(-7.26228e-05 -6.67364e-05 0.115138)
(6.93404e-05 -6.81504e-05 0.115259)
(0.000200072 -0.000200738 0.122486)
(-5.81567e-05 0.000208765 0.119278)
(-0.000203498 5.79503e-05 0.119293)
(5.98849e-05 -0.000208935 0.119398)
(0.000207977 -5.78861e-05 0.119388)
(-6.95452e-05 6.98268e-05 0.115128)
(-7.43492e-05 -6.7371e-05 0.115138)
(0.000209849 6.07437e-05 0.119426)
(5.79433e-05 0.000207003 0.119391)
(-0.000209543 -0.000208862 0.122465)
(6.93599e-05 6.73769e-05 0.115267)
(-0.000209597 -5.65673e-05 0.119332)
(-6.14211e-05 -0.000206897 0.119266)
(6.91724e-05 6.54498e-05 0.115267)
(0.0001998 0.000202521 0.1225)
(-0.000208306 -5.81369e-05 0.119331)
(-5.98623e-05 -0.000207018 0.119266)
(0.000209342 5.87698e-05 0.119422)
(5.76923e-05 0.000206362 0.119391)
(-7.307e-05 -6.9059e-05 0.115137)
(5.89324e-07 1.40057e-06 0.130684)
(5.06828e-07 -6.30369e-07 0.130698)
(3.36079e-06 0.000244872 0.119768)
(-9.45672e-06 -0.000235817 0.117823)
(3.42412e-05 4.64345e-05 0.109636)
(-1.39597e-05 -4.9561e-05 0.114034)
(1.30553e-05 0.000247792 0.117889)
(9.57865e-06 5.72537e-05 0.114068)
(-2.38701e-06 -0.000239918 0.119759)
(0.00024954 2.80302e-06 0.119721)
(-0.000246593 -1.22694e-05 0.117651)
(4.46224e-05 3.23207e-05 0.109408)
(-5.61069e-05 -9.073e-06 0.113673)
(0.000251807 1.14171e-05 0.117819)
(5.48531e-05 8.67377e-06 0.113872)
(-0.000255023 -4.59494e-06 0.119578)
(0.000245186 2.80798e-07 0.120661)
(5.71762e-05 -4.82278e-07 0.116725)
(-5.80102e-05 -1.87843e-06 0.115734)
(-0.000237111 1.2791e-06 0.120856)
(5.9535e-05 1.95329e-06 0.115949)
(0.000234907 -8.13343e-07 0.121048)
(-0.000242624 -9.73265e-07 0.120493)
(0.000247628 -2.73843e-06 0.119704)
(-0.000243334 1.29924e-05 0.117641)
(4.50024e-05 -3.18266e-05 0.10941)
(-5.57291e-05 1.04118e-05 0.11367)
(5.50844e-05 -8.27955e-06 0.113867)
(0.000249078 -1.11485e-05 0.117808)
(-0.000250283 5.04825e-06 0.119567)
(0.000240091 -1.02685e-07 0.120652)
(5.65611e-05 -7.19564e-08 0.116722)
(-0.00023602 -6.35248e-07 0.120854)
(-5.91328e-05 2.65572e-06 0.115729)
(0.00023369 1.16496e-06 0.121044)
(5.79781e-05 -2.19646e-06 0.115943)
(-0.000244327 1.48955e-06 0.120489)
(3.85268e-06 -0.000242388 0.119766)
(-9.70451e-06 0.000240557 0.117808)
(3.51867e-05 -4.48942e-05 0.109634)
(-1.09128e-05 5.23924e-05 0.114015)
(1.26022e-05 -0.00024634 0.117875)
(1.2188e-05 -5.42902e-05 0.114053)
(-1.04677e-06 0.000247713 0.119743)
(6.84611e-05 6.69391e-05 0.115268)
(0.000199429 0.000203618 0.122497)
(-0.000210231 -5.61627e-05 0.119334)
(-6.08806e-05 -0.000207054 0.119268)
(-7.38838e-05 -6.70295e-05 0.115139)
(0.000208926 6.00152e-05 0.119422)
(5.66585e-05 0.00020669 0.119389)
(-7.43613e-05 -6.85188e-05 0.115138)
(-0.000209397 -0.000209415 0.122467)
(0.000208621 5.99133e-05 0.119425)
(5.72895e-05 0.000206477 0.119393)
(6.87203e-05 6.65015e-05 0.115268)
(-0.000209463 -5.74013e-05 0.119333)
(-6.10114e-05 -0.00020687 0.119268)
(-5.6661e-07 7.01201e-07 0.129585)
(5.60706e-07 2.08689e-06 0.125901)
(5.04243e-06 -1.17021e-06 0.125948)
(-0.000202254 -0.000201585 0.122494)
(-1.07476e-06 2.62213e-07 0.129589)
(8.07985e-08 8.96519e-07 0.125899)
(3.06436e-06 -1.62891e-06 0.125951)
(-0.000201901 -0.000201988 0.122491)
(-2.88455e-07 -1.59945e-06 0.129588)
(-3.7214e-08 -1.06486e-06 0.125894)
(3.05405e-06 -1.14955e-06 0.12595)
(-0.000200607 -0.000201105 0.12249)
(-1.70969e-07 -1.48443e-06 0.129586)
(2.01045e-07 -8.40459e-07 0.125889)
(2.54162e-06 -1.29593e-06 0.125947)
(-0.000200564 -0.000201774 0.12249)
(-1.15196e-07 -1.25347e-07 0.129584)
(1.14207e-06 1.18081e-06 0.12589)
(2.75327e-06 -1.19401e-06 0.125944)
(-0.000201035 -0.000202247 0.122491)
(-1.24352e-07 7.37561e-07 0.129584)
(2.3445e-06 2.18838e-06 0.125893)
(3.42234e-06 -9.22252e-07 0.125944)
(-0.00020095 -0.000201647 0.122492)
(-8.32381e-07 1.09069e-06 0.129585)
(2.16235e-06 2.69776e-06 0.125897)
(3.39562e-06 -1.11364e-06 0.125945)
(-0.000200399 -0.000201376 0.122494)
(-1.18483e-06 1.39224e-06 0.129586)
(1.4914e-06 1.87925e-06 0.1259)
(3.10239e-06 -1.48966e-06 0.125946)
(-0.000200888 -0.000201533 0.122495)
(-1.62264e-06 1.03725e-06 0.129587)
(7.80924e-07 1.14361e-06 0.1259)
(2.70652e-06 -1.19594e-06 0.125948)
(-0.000201363 -0.00020137 0.122495)
(-1.66412e-06 6.15273e-07 0.129586)
(5.7307e-07 6.892e-07 0.125898)
(2.32982e-06 -1.25166e-06 0.125951)
(-0.000201372 -0.000201811 0.122495)
(-1.2792e-06 4.47182e-07 0.129586)
(7.60143e-07 1.23927e-06 0.125897)
(2.33774e-06 -1.05907e-06 0.125953)
(-0.000200884 -0.000201892 0.122495)
(-8.62771e-07 6.15821e-07 0.129586)
(1.10716e-06 1.24833e-06 0.125898)
(3.05627e-06 -1.20687e-06 0.125953)
(-0.000200727 -0.00020194 0.122495)
(-6.67853e-07 4.17871e-07 0.129588)
(9.64181e-07 1.20639e-06 0.125898)
(3.46602e-06 -1.31584e-06 0.125953)
(-0.000200763 -0.000201767 0.122495)
(-5.74762e-07 3.06348e-08 0.12959)
(8.14479e-07 1.00265e-06 0.125898)
(3.32178e-06 -1.59594e-06 0.125954)
(-0.000201047 -0.000201738 0.122496)
(-8.40121e-07 -3.1465e-07 0.129591)
(4.78325e-07 7.19772e-07 0.125897)
(2.75554e-06 -1.72454e-06 0.125954)
(-0.000200837 -0.000202124 0.122497)
(-7.59844e-07 -5.07351e-07 0.129592)
(5.39907e-07 8.16348e-07 0.125897)
(3.09053e-06 -1.76901e-06 0.125955)
(-0.000200868 -0.000202301 0.122497)
(-8.99537e-07 -6.56559e-07 0.129591)
(9.85726e-07 1.22563e-06 0.125897)
(3.49495e-06 -1.47299e-06 0.125955)
(-0.00020121 -0.000201985 0.122499)
(4.01642e-06 4.16386e-06 0.125976)
(-4.19194e-06 5.17517e-06 0.125975)
(2.36232e-06 3.85844e-06 0.12598)
(-3.60502e-06 4.37615e-06 0.125979)
(-0.000200915 0.000204168 0.1225)
(0.000206949 -0.000209513 0.122466)
(-1.79428e-06 1.50066e-06 0.125901)
(4.25984e-07 -1.27128e-06 0.125902)
(-1.46091e-06 7.07957e-07 0.125904)
(5.62639e-07 -1.22703e-06 0.125902)
(-2.84578e-06 -1.95206e-06 0.125912)
(-2.94065e-09 1.88462e-07 0.125901)
(-1.68156e-06 -1.21761e-06 0.125911)
(0.000200537 -0.000200632 0.122489)
(-0.000206762 0.000210276 0.122451)
(-5.44447e-06 -3.51925e-06 0.125961)
(1.80661e-06 -1.80337e-06 0.125951)
(-3.76004e-06 -2.23489e-06 0.125961)
(0.000205407 0.000210865 0.122457)
(0.000200798 0.000201885 0.122499)
(-0.000206578 -0.000213491 0.122462)
(3.45019e-06 3.79033e-06 0.12598)
(-4.6277e-06 3.94414e-06 0.125978)
(3.58105e-06 -4.59859e-08 0.125978)
(-4.21256e-06 7.08239e-07 0.125976)
(-0.000201014 0.00020229 0.122499)
(0.000206058 -0.000213887 0.122462)
(-5.43874e-07 1.03677e-06 0.125904)
(8.18682e-07 -1.87497e-06 0.125901)
(-8.27429e-07 -1.50488e-06 0.125901)
(2.30889e-07 -9.02548e-07 0.125899)
(-1.64281e-06 -1.71783e-06 0.125909)
(1.36975e-07 -1.9624e-06 0.125896)
(-6.92257e-07 -7.5821e-07 0.125907)
(0.000200514 -0.000200833 0.122485)
(-0.000207158 0.00021106 0.122447)
(-4.17449e-06 -2.39091e-06 0.125961)
(1.99298e-06 -1.19277e-06 0.125951)
(-2.75924e-06 -1.24396e-06 0.125959)
(0.000206933 0.000212064 0.122455)
(0.000202213 0.000198649 0.122495)
(-0.000207358 -0.00021288 0.12246)
(4.72235e-06 1.75213e-07 0.125977)
(-5.0641e-06 6.1226e-07 0.125975)
(3.79353e-06 -3.82033e-07 0.125974)
(-4.50427e-06 1.36051e-07 0.125972)
(-0.000201965 0.000198206 0.122495)
(0.000206824 -0.000212382 0.122459)
(4.60235e-08 -9.17874e-07 0.125901)
(6.77547e-07 -1.8417e-06 0.125898)
(-4.36572e-07 -1.93305e-06 0.125897)
(2.42526e-07 -1.36922e-06 0.125895)
(-9.14394e-07 -1.25547e-06 0.125906)
(-5.77169e-08 -2.38605e-06 0.125891)
(-5.82212e-07 -8.24686e-07 0.125905)
(0.000200245 -0.000200364 0.122482)
(-0.000207385 0.000210271 0.122445)
(-3.07122e-06 -1.52774e-06 0.125958)
(1.64965e-06 -1.32818e-06 0.125948)
(-2.22978e-06 -1.30076e-06 0.125957)
(0.00020744 0.000211741 0.122455)
(0.000201218 0.000199699 0.122494)
(-0.000208817 -0.000209841 0.122461)
(4.4718e-06 5.3913e-07 0.125974)
(-5.14235e-06 1.00226e-06 0.125971)
(2.86228e-06 1.31231e-06 0.125972)
(-3.31344e-06 2.39485e-06 0.12597)
(-0.000200953 0.000200519 0.122492)
(0.000208759 -0.000209628 0.12246)
(-2.06367e-07 -9.63437e-07 0.125897)
(3.32678e-07 -2.08203e-06 0.125893)
(-1.28286e-06 -5.34117e-07 0.125895)
(7.76569e-08 -8.99649e-07 0.125892)
(-6.52707e-07 -1.43793e-06 0.125905)
(6.69227e-07 -4.87371e-07 0.12589)
(-5.02854e-07 -1.1863e-06 0.125905)
(0.000199891 -0.000200996 0.122479)
(-0.000207033 0.000210201 0.122446)
(-2.56905e-06 -1.49988e-06 0.125956)
(1.54983e-06 -1.29713e-06 0.125945)
(-2.04675e-06 -1.41352e-06 0.125956)
(0.000207189 0.000211418 0.122456)
(0.000199815 0.000202665 0.122495)
(-0.000208751 -0.000208532 0.122462)
(3.55204e-06 2.60642e-06 0.125972)
(-3.51544e-06 3.37163e-06 0.12597)
(2.22293e-06 3.10084e-06 0.125971)
(-1.3635e-06 4.22882e-06 0.125971)
(-0.00019914 0.000203166 0.122493)
(0.000210205 -0.000208166 0.122465)
(-7.98628e-07 8.98446e-07 0.125895)
(5.46003e-07 -1.58437e-06 0.125892)
(-1.34974e-06 1.3529e-06 0.125896)
(7.12662e-07 -1.47217e-07 0.125893)
(-7.00583e-07 -1.72448e-06 0.125905)
(2.08911e-06 7.7828e-07 0.125893)
(-2.40749e-07 -8.39887e-07 0.125906)
(0.000200284 -0.000200856 0.12248)
(-0.000206393 0.000210832 0.122449)
(-2.59615e-06 -1.55133e-06 0.125956)
(2.2584e-06 -1.03728e-06 0.125945)
(-2.19586e-06 -1.24319e-06 0.125957)
(0.000206967 0.000211689 0.122457)
(0.000200123 0.00020367 0.122496)
(-0.000208151 -0.000209195 0.122463)
(3.01867e-06 4.00393e-06 0.125971)
(-1.82766e-06 4.89145e-06 0.125971)
(2.09023e-06 3.61048e-06 0.125972)
(-1.08266e-06 4.6677e-06 0.125972)
(-0.000197834 0.000204228 0.122499)
(0.000208794 -0.000209074 0.122467)
(-7.51198e-07 2.49105e-06 0.125896)
(1.12913e-06 -8.36728e-07 0.125893)
(-1.08333e-06 2.10158e-06 0.125897)
(7.05403e-07 1.83968e-07 0.125896)
(-2.64179e-07 -1.15166e-06 0.125907)
(2.20296e-06 1.50693e-06 0.125897)
(3.86144e-09 -4.45334e-07 0.125908)
(0.000200876 -0.000200336 0.122484)
(-0.000206785 0.000210841 0.122453)
(-2.54427e-06 -1.32724e-06 0.125958)
(2.37143e-06 -1.09131e-06 0.125945)
(-1.78876e-06 -9.06724e-07 0.125959)
(0.000207567 0.00021211 0.122459)
(0.000201027 0.000203309 0.122497)
(-0.000207722 -0.000209629 0.122461)
(3.03382e-06 4.27187e-06 0.125972)
(-2.03382e-06 4.96412e-06 0.125972)
(2.59211e-06 3.29043e-06 0.125972)
(-2.40289e-06 4.2194e-06 0.125972)
(-0.000199627 0.000203278 0.122501)
(0.000208248 -0.000209829 0.122467)
(-5.14443e-07 2.94485e-06 0.125898)
(9.44305e-07 -7.35438e-07 0.125896)
(-8.25447e-07 1.84772e-06 0.125898)
(5.21945e-07 -4.02899e-07 0.125899)
(-7.58004e-08 -1.00027e-06 0.125909)
(1.4926e-06 8.93832e-07 0.1259)
(-1.37415e-07 -4.49747e-07 0.12591)
(0.000200623 -0.000200672 0.122488)
(-0.000207076 0.000210576 0.122454)
(-2.4438e-06 -1.16236e-06 0.125959)
(2.14118e-06 -1.49732e-06 0.125946)
(-2.03389e-06 -1.10495e-06 0.125961)
(0.000207226 0.000211946 0.122459)
(0.000201498 0.000202923 0.122495)
(-0.00020828 -0.000210492 0.122461)
(3.5167e-06 3.7404e-06 0.125972)
(-3.44302e-06 4.42143e-06 0.125971)
(2.62067e-06 2.69251e-06 0.125971)
(-3.29479e-06 3.17264e-06 0.12597)
(-0.000200052 0.000202648 0.1225)
(0.000206829 -0.000210942 0.122466)
(-1.45148e-07 2.66507e-06 0.125899)
(8.24567e-07 -1.3695e-06 0.1259)
(-6.70705e-07 1.14787e-06 0.1259)
(2.93991e-07 -4.58851e-07 0.125904)
(-3.30308e-07 -8.93302e-07 0.125911)
(7.70215e-07 1.81459e-07 0.125901)
(-5.29856e-07 -4.43382e-07 0.125911)
(0.000200642 -0.000201083 0.122489)
(-0.000207395 0.000210783 0.122456)
(-2.6004e-06 -1.26448e-06 0.125961)
(1.75839e-06 -1.35089e-06 0.125949)
(-2.68353e-06 -1.08024e-06 0.125963)
(0.000206901 0.00021234 0.12246)
(0.000200822 0.000202055 0.122494)
(-0.000208678 -0.000210672 0.122462)
(3.31784e-06 3.15561e-06 0.125971)
(-4.19383e-06 3.28764e-06 0.125969)
(2.15033e-06 2.1976e-06 0.125971)
(-3.76702e-06 2.54877e-06 0.125967)
(-0.000201126 0.000201092 0.122499)
(0.000207069 -0.000210497 0.122465)
(-1.94809e-07 1.77812e-06 0.125901)
(5.48377e-07 -1.33859e-06 0.125904)
(-1.22636e-06 4.09608e-07 0.125902)
(-1.47057e-07 -5.61913e-07 0.125905)
(-6.796e-07 -8.5167e-07 0.125912)
(4.11576e-07 -4.94043e-07 0.125899)
(-5.88846e-07 -3.98765e-07 0.125912)
(0.000200187 -0.00020081 0.122491)
(-0.000207571 0.000210585 0.122458)
(-3.33661e-06 -1.18569e-06 0.125963)
(1.21916e-06 -1.26631e-06 0.12595)
(-2.98185e-06 -1.06351e-06 0.125963)
(0.000206916 0.000211991 0.12246)
(0.00020062 0.000202012 0.122496)
(-0.000208441 -0.000210314 0.122464)
(2.90259e-06 2.74455e-06 0.125971)
(-4.52754e-06 3.05346e-06 0.125966)
(2.0679e-06 1.91558e-06 0.125971)
(-3.18019e-06 2.69109e-06 0.125966)
(-0.000200519 0.000201695 0.122499)
(0.000207353 -0.000210274 0.122466)
(-7.7767e-07 1.23887e-06 0.125903)
(1.14815e-07 -1.47482e-06 0.125906)
(-1.25997e-06 4.52109e-07 0.125904)
(-2.14583e-07 -6.26108e-07 0.125908)
(-7.70802e-07 -9.63477e-07 0.125912)
(5.20275e-07 -3.566e-08 0.125898)
(-4.38931e-07 -6.73602e-07 0.125913)
(0.000200001 -0.000200984 0.122493)
(-0.000207648 0.000210551 0.12246)
(-3.43279e-06 -1.33412e-06 0.125962)
(1.16639e-06 -1.14849e-06 0.125953)
(-2.51306e-06 -1.17674e-06 0.125962)
(0.000207076 0.000211601 0.12246)
(0.000200685 0.000202222 0.122498)
(-0.000208309 -0.000210253 0.122462)
(3.15436e-06 2.65458e-06 0.125971)
(-3.8727e-06 3.20537e-06 0.125965)
(2.77526e-06 2.24494e-06 0.12597)
(-2.90827e-06 2.98833e-06 0.125965)
(-0.000200074 0.000201586 0.122499)
(0.000208103 -0.000209728 0.122465)
(-6.34281e-07 1.54936e-06 0.125905)
(8.14778e-08 -1.43234e-06 0.125908)
(-8.55628e-07 1.04331e-06 0.125905)
(2.03898e-07 -7.16295e-07 0.12591)
(-4.92815e-07 -1.26891e-06 0.125913)
(8.71264e-07 5.20951e-08 0.125898)
(-3.85883e-07 -1.0118e-06 0.125914)
(0.000199867 -0.00020086 0.122494)
(-0.000207136 0.000210871 0.122459)
(-2.94174e-06 -1.52537e-06 0.125962)
(1.82818e-06 -1.33806e-06 0.125954)
(-2.33071e-06 -1.48666e-06 0.125962)
(0.00020718 0.000211513 0.122461)
(0.000201096 0.000202536 0.122495)
(-0.000207793 -0.000210633 0.122462)
(3.68695e-06 2.87766e-06 0.12597)
(-3.56462e-06 3.39409e-06 0.125965)
(3.0106e-06 2.52614e-06 0.125969)
(-2.94451e-06 3.09477e-06 0.125965)
(-0.000199504 0.000202234 0.122499)
(0.000207583 -0.000210353 0.122465)
(-3.35354e-07 1.91085e-06 0.125906)
(6.17126e-07 -1.53079e-06 0.125909)
(-5.84672e-07 9.24858e-07 0.125906)
(4.58674e-07 -7.30307e-07 0.125909)
(-5.17927e-07 -1.58847e-06 0.125914)
(8.45847e-07 8.35536e-08 0.125899)
(-5.24614e-07 -9.60968e-07 0.125915)
(0.000200388 -0.000200533 0.122494)
(-0.000206982 0.000210814 0.122458)
(-2.84726e-06 -1.72296e-06 0.125962)
(2.34848e-06 -1.4532e-06 0.125953)
(-2.32725e-06 -1.34761e-06 0.125962)
(0.000207105 0.000211572 0.12246)
(0.00020154 0.000202001 0.122495)
(-0.000207923 -0.000211037 0.122462)
(3.87688e-06 2.98183e-06 0.12597)
(-3.70867e-06 3.49328e-06 0.125965)
(2.99556e-06 2.15449e-06 0.12597)
(-3.76721e-06 3.1227e-06 0.125965)
(-0.000200033 0.000201457 0.122498)
(0.000207501 -0.00020998 0.122464)
(-1.33282e-07 1.38814e-06 0.125908)
(6.18106e-07 -1.42538e-06 0.125909)
(-6.35505e-07 2.33966e-07 0.125907)
(5.91837e-07 -1.05375e-06 0.125908)
(-5.85364e-07 -1.47301e-06 0.125915)
(7.53203e-07 -2.05713e-07 0.125899)
(-5.4705e-07 -9.79635e-07 0.125916)
(0.000200595 -0.00020069 0.122492)
(-0.000206984 0.00021038 0.122457)
(-2.73525e-06 -1.6391e-06 0.125962)
(2.41561e-06 -1.74248e-06 0.125953)
(-2.40612e-06 -1.49917e-06 0.125963)
(0.000206765 0.000211577 0.122461)
(0.000201332 0.000201678 0.122496)
(-0.000208323 -0.000211346 0.122464)
(3.8175e-06 2.61451e-06 0.125972)
(-4.54174e-06 3.56886e-06 0.125964)
(2.78575e-06 1.84833e-06 0.125972)
(-3.75204e-06 2.53675e-06 0.125966)
(-0.000200358 0.000202103 0.122497)
(0.000206765 -0.000211024 0.122464)
(-2.38096e-07 9.17073e-07 0.125908)
(7.25402e-07 -1.83971e-06 0.125909)
(-7.47883e-07 -1.43613e-07 0.125907)
(2.89316e-07 -1.15344e-06 0.125907)
(-8.37737e-07 -1.64576e-06 0.125915)
(5.53357e-07 -4.63377e-07 0.125899)
(-4.71442e-07 -1.01171e-06 0.125916)
(0.000200512 -0.000201172 0.122491)
(-0.000207441 0.000210344 0.122457)
(-3.00811e-06 -1.72826e-06 0.125962)
(1.89425e-06 -1.77714e-06 0.125952)
(-2.51998e-06 -1.6667e-06 0.125963)
(0.000207162 0.000211464 0.122462)
(0.000201098 0.00020156 0.122498)
(-0.000208524 -0.000211642 0.122466)
(3.51391e-06 2.33512e-06 0.125975)
(-4.56592e-06 2.89655e-06 0.125964)
(2.72968e-06 1.62245e-06 0.125975)
(-3.75624e-06 2.40228e-06 0.125966)
(-0.000200971 0.000200945 0.122498)
(0.000207106 -0.000210396 0.122464)
(-2.7183e-07 6.49926e-07 0.125908)
(5.59457e-07 -2.08944e-06 0.125908)
(-1.03108e-06 -5.15234e-07 0.125907)
(2.69864e-07 -1.0948e-06 0.125907)
(-6.90678e-07 -1.63454e-06 0.125915)
(4.7445e-07 -6.36636e-07 0.125898)
(-4.2072e-07 -1.03222e-06 0.125917)
(0.000200186 -0.000201433 0.122492)
(-0.000207072 0.000210307 0.122458)
(-3.08917e-06 -1.98892e-06 0.125962)
(2.03813e-06 -1.69524e-06 0.125953)
(-2.26421e-06 -1.92016e-06 0.125963)
(0.000207218 0.000211246 0.122462)
(0.000201229 0.000201584 0.122499)
(-0.000208224 -0.000210894 0.122465)
(3.79513e-06 2.3878e-06 0.125977)
(-4.40925e-06 2.77421e-06 0.125966)
(3.21215e-06 2.05983e-06 0.125978)
(-3.80622e-06 3.1009e-06 0.12597)
(-0.000200661 0.000201903 0.122497)
(0.000206904 -0.000210324 0.122465)
(-2.50275e-07 7.37106e-07 0.125909)
(6.79436e-07 -2.08262e-06 0.125908)
(-7.86012e-07 3.64745e-07 0.125909)
(7.62129e-07 -1.0775e-06 0.125909)
(-4.94773e-07 -1.4484e-06 0.125916)
(2.46346e-07 -3.68612e-07 0.125898)
(-6.30694e-07 -8.52797e-07 0.125917)
(0.000200562 -0.000201517 0.122492)
(-0.000206761 0.000210532 0.122459)
(-2.96381e-06 -2.07195e-06 0.125963)
(2.49588e-06 -2.28194e-06 0.125956)
(-2.49599e-06 -1.71518e-06 0.125964)
(0.000206875 0.000211691 0.122463)
(0.000201335 0.00020213 0.122498)
(3.99403e-06 1.85859e-06 0.125979)
(-3.46923e-06 2.91938e-06 0.12597)
(-0.000200664 0.000201975 0.122498)
(-8.50309e-07 1.07882e-06 0.12591)
(4.99371e-07 -1.48409e-06 0.125911)
(-5.48261e-07 -1.49165e-06 0.125917)
(-1.51682e-06 -7.95951e-07 0.125919)
(0.000200572 -0.000201373 0.122492)
(-3.09804e-06 -1.67689e-06 0.125965)
(-2.71982e-06 -2.34641e-06 0.125967)
(0.000206549 0.000211276 0.122463)
(-8.49082e-07 -5.98328e-05 0.108113)
(8.33448e-06 4.97077e-05 0.0864209)
(5.01121e-07 6.69628e-05 0.108131)
(-9.94152e-06 -3.93297e-05 0.0864931)
(-7.48038e-06 2.45772e-05 0.0744352)
(1.3011e-05 -1.29173e-05 0.0744948)
(-6.29905e-05 2.81715e-07 0.107499)
(4.03605e-05 7.70722e-06 0.0861466)
(5.94997e-05 -2.26321e-07 0.107736)
(-4.56416e-05 -4.24308e-06 0.0861053)
(8.77108e-07 1.21483e-06 0.129585)
(2.42713e-06 1.17354e-06 0.129581)
(-1.86483e-06 1.09579e-06 0.129589)
(-1.68906e-06 3.85124e-07 0.129588)
(1.88845e-10 1.17776e-06 0.129588)
(-1.16451e-07 -9.00654e-08 0.129584)
(-1.09821e-06 -8.53762e-08 0.129588)
(5.7038e-05 -1.77759e-07 0.116498)
(-4.37619e-05 3.24163e-05 0.109416)
(1.68928e-06 -5.98723e-08 0.12741)
(1.37994e-06 7.74538e-07 0.125902)
(4.54143e-05 -3.42527e-05 0.109236)
(2.59861e-06 -8.32821e-07 0.12741)
(-5.69557e-05 -1.86346e-07 0.116726)
(1.47681e-05 -9.38427e-06 0.0743155)
(-1.99137e-05 8.70491e-06 0.0743152)
(-1.36054e-06 5.57197e-05 0.116802)
(3.87818e-07 -3.83687e-06 0.12751)
(3.50234e-05 -4.45607e-05 0.109631)
(1.61084e-06 -9.03761e-07 0.12595)
(-1.99626e-06 -1.60928e-06 0.127513)
(-3.68424e-05 4.16347e-05 0.109595)
(-6.59664e-08 -5.90575e-05 0.116843)
(-1.82401e-05 -2.58103e-05 0.0993767)
(-2.99671e-05 -1.77632e-05 0.0995671)
(0.000207309 0.00021248 0.122459)
(2.00344e-05 2.60024e-05 0.0992402)
(2.93941e-05 1.79498e-05 0.0995214)
(-1.14085e-06 -6.52322e-05 0.108122)
(9.93038e-06 4.37649e-05 0.0864346)
(-6.63496e-07 6.14812e-05 0.108144)
(-6.31594e-06 -4.59002e-05 0.0865134)
(-1.22151e-05 1.74021e-05 0.0744226)
(8.27935e-06 -2.08177e-05 0.0744988)
(-6.17187e-05 -7.39088e-07 0.1075)
(4.12867e-05 4.97188e-06 0.0861563)
(6.0261e-05 -6.43791e-07 0.107738)
(-4.31891e-05 -7.15815e-06 0.086116)
(1.19399e-07 7.28917e-07 0.129589)
(-6.28685e-08 3.48905e-07 0.129584)
(-8.97313e-07 -4.75748e-08 0.129588)
(-7.61134e-07 -1.57506e-06 0.129589)
(-2.18409e-08 -1.52471e-06 0.129586)
(-2.68364e-07 -1.87781e-07 0.129582)
(-3.66897e-08 2.31751e-07 0.129584)
(5.56123e-05 -1.19688e-06 0.116492)
(-4.48925e-05 3.08395e-05 0.109411)
(1.15735e-06 -8.74888e-07 0.127408)
(6.52124e-07 -9.5754e-07 0.1259)
(-5.734e-05 -6.97362e-07 0.116719)
(4.31356e-05 -3.58129e-05 0.109231)
(1.92994e-06 -1.95102e-06 0.127409)
(1.50556e-05 -8.1465e-06 0.0743273)
(-1.82245e-05 8.84672e-06 0.0743273)
(-1.24503e-06 5.69282e-05 0.116797)
(-1.77969e-06 -2.66092e-06 0.127509)
(3.46134e-05 -4.24291e-05 0.10963)
(1.77909e-06 -9.82128e-07 0.125953)
(1.80467e-07 -5.723e-05 0.11684)
(-2.62088e-06 -1.73374e-06 0.127512)
(-3.63386e-05 4.31441e-05 0.109593)
(-1.86677e-05 -2.56096e-05 0.0993715)
(-3.0689e-05 -1.67411e-05 0.0995627)
(0.000207162 0.000212285 0.122457)
(1.86506e-05 2.60428e-05 0.0992362)
(2.85965e-05 1.85828e-05 0.0995205)
(-3.62483e-07 -6.81071e-05 0.108129)
(1.26168e-05 4.00591e-05 0.0864578)
(3.41317e-07 5.78645e-05 0.108149)
(-5.51095e-06 -4.75894e-05 0.0865371)
(-1.5178e-05 1.43687e-05 0.0744358)
(6.83762e-06 -2.26795e-05 0.0745126)
(-6.09287e-05 -1.06413e-06 0.107496)
(4.34828e-05 2.7635e-06 0.0861567)
(6.16021e-05 -1.41971e-06 0.107734)
(-4.19619e-05 -7.37179e-06 0.0861118)
(3.87074e-08 -1.63016e-06 0.129587)
(4.72757e-08 -1.59232e-07 0.129582)
(-6.63542e-08 1.05888e-07 0.129585)
(-2.17528e-07 -1.77931e-06 0.129587)
(-3.94553e-07 -1.63668e-06 0.129584)
(8.15961e-09 -8.39485e-07 0.129579)
(-5.82504e-08 -3.47864e-07 0.129582)
(5.44071e-05 -1.87513e-06 0.116491)
(-4.66528e-05 2.90695e-05 0.109408)
(1.59663e-06 -2.05531e-06 0.127405)
(-7.38488e-08 -2.48995e-06 0.125894)
(-5.83399e-05 -2.01123e-06 0.116716)
(4.16851e-05 -3.67373e-05 0.109228)
(1.68901e-06 -2.66762e-06 0.127406)
(1.57963e-05 -8.46143e-06 0.074333)
(-1.78772e-05 8.25067e-06 0.0743285)
(-1.52077e-06 5.61101e-05 0.116793)
(-1.33745e-06 -1.83574e-06 0.127509)
(3.52021e-05 -4.22286e-05 0.109629)
(1.96802e-06 -1.09999e-06 0.125951)
(8.76563e-08 -5.66879e-05 0.116834)
(-1.73561e-06 -1.69277e-06 0.127509)
(-3.5914e-05 4.22672e-05 0.109593)
(-1.87564e-05 -2.6213e-05 0.0993675)