/*--------------------------------*- C++ -*----------------------------------*\
| =========                 |                                                 |
| \\      /  F ield         | OpenFOAM: The Open Source CFD Toolbox           |
|  \\    /   O peration     | Version:  2206                                  |
|   \\  /    A nd           | Website:  www.openfoam.com                      |
|    \\/     M anipulation  |                                                 |
\*---------------------------------------------------------------------------*/
FoamFile
{
    version     2.0;
    format      ascii;
    arch        "LSB;label=32;scalar=64";
    class       volScalarField;
    location    "110";
    object      k;
}
// * * * * * * * * * * * * * * * * * * * * * * * * * * * * * * * * * * * * * //

dimensions      [0 2 -2 0 0 0 0];

internalField   nonuniform List<scalar> 
66940
(
5.47396e-05
8.59888e-05
8.42523e-05
8.70057e-05
5.52762e-05
8.7133e-05
8.55948e-05
8.74495e-05
5.53193e-05
8.68332e-05
8.51982e-05
8.5999e-05
5.45761e-05
8.79694e-05
8.59255e-05
8.76261e-05
5.47925e-05
8.82729e-05
8.4983e-05
8.7779e-05
5.39948e-05
8.7995e-05
8.62767e-05
8.7355e-05
5.48063e-05
8.79327e-05
8.61217e-05
8.71679e-05
5.55318e-05
8.61544e-05
8.59033e-05
8.74262e-05
5.38999e-05
8.78016e-05
8.60094e-05
8.7251e-05
5.50307e-05
8.79936e-05
8.63649e-05
8.78935e-05
5.53926e-05
8.76536e-05
8.61626e-05
8.82629e-05
5.67863e-05
8.80597e-05
8.70387e-05
8.67701e-05
8.74477e-05
8.34303e-05
8.52205e-05
8.84727e-05
8.66064e-05
8.72028e-05
8.79023e-05
8.70986e-05
8.87056e-05
8.5063e-05
8.49941e-05
8.6719e-05
8.76441e-05
8.76013e-05
8.25763e-05
8.43662e-05
8.43984e-05
8.46792e-05
8.84851e-05
8.87821e-05
8.53218e-05
8.65468e-05
8.68632e-05
8.79492e-05
8.53649e-05
8.72192e-05
8.70767e-05
8.85134e-05
8.87358e-05
8.39055e-05
8.59772e-05
8.49935e-05
8.77364e-05
8.79016e-05
8.78377e-05
8.42235e-05
8.63007e-05
8.47893e-05
8.62968e-05
8.86787e-05
8.7263e-05
8.69131e-05
8.79925e-05
8.50536e-05
8.71629e-05
8.59109e-05
8.75853e-05
8.6788e-05
8.89882e-05
8.88772e-05
8.37537e-05
8.52221e-05
8.40894e-05
8.70545e-05
8.79462e-05
8.80862e-05
8.39117e-05
8.6475e-05
8.54804e-05
8.63272e-05
8.87311e-05
8.81611e-05
8.6441e-05
8.77294e-05
8.721e-05
8.84297e-05
8.56793e-05
8.65906e-05
8.69669e-05
8.90973e-05
8.96132e-05
8.54111e-05
8.49159e-05
8.55032e-05
8.76628e-05
8.65369e-05
8.67467e-05
8.56036e-05
8.61055e-05
8.51309e-05
8.60173e-05
8.93401e-05
8.84944e-05
8.73082e-05
8.8571e-05
8.74143e-05
8.69667e-05
8.62385e-05
8.82441e-05
8.71722e-05
8.9726e-05
8.85754e-05
8.55206e-05
8.54418e-05
8.53762e-05
8.77841e-05
8.79835e-05
8.78828e-05
8.47583e-05
8.5913e-05
8.54795e-05
8.56654e-05
8.64918e-05
8.83578e-05
8.75752e-05
8.77059e-05
8.65679e-05
8.80543e-05
8.71332e-05
8.8208e-05
8.72698e-05
8.87835e-05
8.78215e-05
8.52377e-05
8.50798e-05
8.54162e-05
8.61527e-05
8.66137e-05
8.65304e-05
8.54187e-05
8.57864e-05
8.54354e-05
8.47745e-05
8.71515e-05
8.8373e-05
8.64785e-05
8.69796e-05
8.63355e-05
8.75652e-05
8.6692e-05
8.68684e-05
8.68798e-05
8.80406e-05
8.7274e-05
8.41685e-05
8.61304e-05
8.3654e-05
8.75325e-05
8.71775e-05
8.78108e-05
8.50578e-05
8.62114e-05
8.51796e-05
8.6483e-05
8.70034e-05
8.64277e-05
8.56044e-05
8.78344e-05
8.57773e-05
8.759e-05
8.7028e-05
8.61486e-05
8.70361e-05
8.63471e-05
8.68632e-05
8.4736e-05
8.62364e-05
8.54751e-05
8.74875e-05
8.80045e-05
8.78597e-05
8.52467e-05
8.63026e-05
8.53073e-05
8.56343e-05
8.77402e-05
8.82546e-05
8.60179e-05
8.64071e-05
8.61189e-05
8.69443e-05
8.5917e-05
8.73473e-05
8.57648e-05
8.82142e-05
8.77781e-05
8.5763e-05
8.56995e-05
8.5872e-05
8.78799e-05
8.76702e-05
8.84357e-05
8.55572e-05
8.59104e-05
8.48385e-05
8.54071e-05
8.80861e-05
8.78649e-05
8.54674e-05
8.73765e-05
8.65678e-05
8.74527e-05
8.69992e-05
8.6847e-05
8.57917e-05
8.73071e-05
8.82316e-05
8.60059e-05
8.60481e-05
8.51474e-05
8.7701e-05
8.76892e-05
8.7536e-05
8.42132e-05
8.42915e-05
8.52322e-05
8.55874e-05
8.9131e-05
9.00715e-05
8.69917e-05
8.66599e-05
8.72605e-05
8.81732e-05
8.49639e-05
8.79012e-05
8.56442e-05
8.87039e-05
8.97535e-05
8.53674e-05
8.63658e-05
8.58243e-05
8.801e-05
8.89611e-05
8.92323e-05
8.45976e-05
8.4589e-05
8.73362e-05
8.77681e-05
9.01522e-05
8.99239e-05
8.72656e-05
8.78979e-05
8.86039e-05
8.93938e-05
8.51462e-05
8.92346e-05
8.78563e-05
9.02226e-05
9.07987e-05
8.4568e-05
8.80016e-05
8.73262e-05
8.9029e-05
8.73646e-05
8.63204e-05
8.69201e-05
8.78138e-05
8.71912e-05
8.8176e-05
5.75076e-05
5.76031e-05
5.70691e-05
8.66882e-05
8.84935e-05
8.62477e-05
1.65719e-05
5.43197e-05
5.59101e-05
5.55717e-05
5.46458e-05
9.39376e-05
8.72871e-05
7.37059e-05
6.94263e-05
8.73395e-05
4.27006e-05
4.29838e-05
7.27497e-05
2.61077e-05
7.23493e-05
2.60853e-05
1.68423e-05
1.68547e-05
7.19704e-05
2.59808e-05
7.14972e-05
2.59408e-05
5.57878e-05
5.49821e-05
5.49438e-05
5.52209e-05
5.55105e-05
5.57298e-05
5.43607e-05
9.43035e-05
7.47211e-05
6.82267e-05
8.68403e-05
9.38008e-05
7.41029e-05
6.93627e-05
1.70323e-05
1.70275e-05
9.12942e-05
6.71447e-05
7.50456e-05
8.45995e-05
9.09768e-05
6.57564e-05
7.49396e-05
4.27328e-05
4.28499e-05
8.75936e-05
4.28442e-05
4.27529e-05
7.2862e-05
2.63128e-05
7.29744e-05
2.63589e-05
1.67278e-05
1.69155e-05
7.17443e-05
2.6217e-05
7.16099e-05
2.61982e-05
5.58509e-05
5.59395e-05
5.53874e-05
5.43142e-05
5.58086e-05
5.59534e-05
5.52694e-05
9.43094e-05
7.49443e-05
6.92535e-05
8.71818e-05
9.32864e-05
7.37201e-05
7.04389e-05
1.71446e-05
1.71588e-05
9.25195e-05
6.66109e-05
7.41914e-05
8.57191e-05
9.24694e-05
6.6104e-05
7.39302e-05
4.27342e-05
4.27769e-05
8.73464e-05
4.27975e-05
4.27255e-05
7.31449e-05
2.63476e-05
7.29332e-05
2.59531e-05
1.69018e-05
1.68732e-05
7.12516e-05
2.62696e-05
7.20962e-05
2.62378e-05
5.59901e-05
5.5968e-05
5.46721e-05
5.50247e-05
5.58531e-05
5.53314e-05
5.55063e-05
9.43915e-05
7.45557e-05
6.89349e-05
8.68067e-05
9.39738e-05
7.44908e-05
6.98687e-05
1.71424e-05
1.71326e-05
9.30883e-05
6.62323e-05
7.45863e-05
8.54199e-05
9.31333e-05
6.71324e-05
7.43982e-05
4.24815e-05
4.29572e-05
8.727e-05
4.25904e-05
4.21404e-05
7.29135e-05
2.62361e-05
7.2335e-05
2.62003e-05
1.69506e-05
1.68764e-05
7.02793e-05
2.6285e-05
7.10862e-05
2.61199e-05
5.60499e-05
5.53279e-05
5.56335e-05
5.40931e-05
5.50352e-05
5.62546e-05
5.46146e-05
9.37957e-05
7.40292e-05
7.03449e-05
8.70425e-05
9.29763e-05
7.42618e-05
7.02019e-05
1.7209e-05
1.7144e-05
9.1521e-05
6.71964e-05
7.4621e-05
8.60809e-05
9.23473e-05
6.77931e-05
7.391e-05
4.25764e-05
4.23358e-05
8.66892e-05
4.2413e-05
4.21877e-05
7.27934e-05
2.61395e-05
7.19064e-05
2.62434e-05
1.68701e-05
1.6788e-05
7.07136e-05
2.61995e-05
7.08734e-05
2.61691e-05
5.59852e-05
5.63465e-05
5.5642e-05
5.49661e-05
5.54913e-05
5.62489e-05
5.54946e-05
9.41183e-05
7.41623e-05
7.00498e-05
8.81431e-05
9.30298e-05
7.32945e-05
6.95622e-05
1.71107e-05
1.70854e-05
9.2747e-05
6.79945e-05
7.46404e-05
8.45804e-05
9.27898e-05
6.68841e-05
7.42844e-05
4.21148e-05
4.23135e-05
8.74009e-05
4.2411e-05
4.24522e-05
7.25436e-05
2.60576e-05
7.20125e-05
2.62787e-05
1.6765e-05
1.67173e-05
7.06512e-05
2.60345e-05
7.04538e-05
2.60706e-05
5.49436e-05
5.5651e-05
5.56451e-05
5.45933e-05
5.61451e-05
5.62207e-05
5.57854e-05
9.36279e-05
7.39043e-05
6.94391e-05
8.67548e-05
9.2877e-05
7.40968e-05
7.05808e-05
1.69353e-05
1.69475e-05
9.26714e-05
6.72356e-05
7.39399e-05
8.59938e-05
9.13445e-05
6.7615e-05
7.45073e-05
4.23804e-05
4.25281e-05
8.63987e-05
4.20736e-05
4.1887e-05
7.23549e-05
2.60566e-05
7.19129e-05
2.60044e-05
1.67324e-05
1.68062e-05
7.03679e-05
2.59445e-05
7.06904e-05
2.58869e-05
5.51456e-05
5.62707e-05
5.58521e-05
5.5506e-05
5.48944e-05
5.60013e-05
5.48798e-05
9.19453e-05
7.38882e-05
7.06549e-05
8.77007e-05
9.2428e-05
7.40918e-05
7.02918e-05
1.70013e-05
1.70123e-05
9.19624e-05
6.66802e-05
7.46608e-05
8.57803e-05
9.28163e-05
6.71567e-05
7.34044e-05
4.21394e-05
4.21537e-05
8.74334e-05
4.2425e-05
4.25022e-05
7.24123e-05
2.6086e-05
7.16726e-05
2.60129e-05
1.68662e-05
1.68932e-05
7.08948e-05
2.58129e-05
7.07654e-05
2.57166e-05
5.6022e-05
5.58633e-05
5.58513e-05
5.41709e-05
5.53519e-05
5.52294e-05
5.61384e-05
9.3756e-05
7.42114e-05
6.98259e-05
8.6567e-05
9.3103e-05
7.38766e-05
7.00184e-05
1.69829e-05
1.69939e-05
9.19259e-05
6.73911e-05
7.39028e-05
8.47987e-05
9.19686e-05
6.75691e-05
7.40937e-05
4.24108e-05
4.20503e-05
8.75091e-05
4.21771e-05
4.20084e-05
7.22392e-05
2.6051e-05
7.16219e-05
2.61711e-05
1.68276e-05
1.68027e-05
7.08023e-05
2.58341e-05
7.01753e-05
2.56276e-05
5.60347e-05
5.64151e-05
5.62654e-05
5.49446e-05
5.54541e-05
5.65342e-05
5.57496e-05
9.38245e-05
7.39399e-05
7.0152e-05
8.79405e-05
9.2447e-05
7.40238e-05
7.06438e-05
1.69657e-05
1.69973e-05
9.24564e-05
6.7883e-05
7.43419e-05
8.64301e-05
9.2425e-05
6.81075e-05
7.43721e-05
4.20592e-05
4.22395e-05
8.79623e-05
4.19911e-05
4.21948e-05
7.20554e-05
2.61427e-05
7.239e-05
2.61814e-05
1.68061e-05
1.69705e-05
7.05044e-05
2.5932e-05
7.03475e-05
2.58594e-05
5.57976e-05
5.67328e-05
5.49338e-05
5.55225e-05
5.57907e-05
5.65406e-05
5.59141e-05
9.36979e-05
7.38924e-05
7.12049e-05
8.71601e-05
9.25698e-05
7.38705e-05
7.14049e-05
1.69611e-05
1.71411e-05
9.23319e-05
6.76747e-05
7.34991e-05
8.55965e-05
9.17984e-05
6.85402e-05
7.30384e-05
4.22264e-05
4.26821e-05
8.74937e-05
4.24563e-05
4.27388e-05
6.96368e-05
2.63053e-05
7.01451e-05
2.58824e-05
1.71158e-05
1.74903e-05
7.13129e-05
2.64701e-05
7.14915e-05
2.62171e-05
5.58795e-05
5.55802e-05
5.59056e-05
6.17837e-05
6.20028e-05
6.26703e-05
6.18789e-05
9.31851e-05
7.4967e-05
7.13589e-05
8.82966e-05
9.21768e-05
7.36084e-05
7.07751e-05
1.7267e-05
1.77516e-05
9.01757e-05
6.88808e-05
7.38435e-05
8.7162e-05
8.99082e-05
6.98583e-05
7.23369e-05
4.27586e-05
4.32721e-05
8.92779e-05
4.28664e-05
4.30742e-05
5.99524e-05
4.24746e-06
5.34512e-05
1.98369e-05
4.14343e-06
1.55342e-05
6.14421e-05
4.28605e-06
5.48857e-05
2.0009e-05
2.76404e-05
3.77361e-05
3.77266e-05
6.01989e-05
2.6872e-05
4.10791e-05
4.09312e-05
7.73266e-05
4.53617e-05
6.95493e-05
7.90849e-05
8.10418e-05
4.32514e-05
6.51558e-05
4.1694e-06
1.57444e-05
7.66317e-05
6.80134e-05
4.46292e-05
7.90054e-05
8.01045e-05
6.41833e-05
4.26049e-05
2.67155e-05
2.65589e-05
8.02229e-05
2.84897e-05
2.84707e-05
1.65222e-05
1.6357e-05
1.65692e-05
1.65604e-05
8.72548e-05
4.27198e-05
4.24286e-05
4.24551e-05
4.23251e-05
2.61971e-05
8.56725e-05
7.44157e-05
7.11308e-05
2.59238e-05
2.58587e-05
7.16988e-05
7.14303e-05
2.6558e-05
2.62543e-05
7.26362e-05
9.12636e-05
8.32361e-05
7.39094e-05
6.59958e-05
7.33512e-05
6.59504e-05
9.25136e-05
9.26536e-05
8.38882e-05
7.45337e-05
6.54937e-05
7.45874e-05
6.62988e-05
9.28715e-05
8.82798e-05
4.28693e-05
4.34732e-05
1.69113e-05
1.68704e-05
1.66617e-05
8.82885e-05
4.34762e-05
4.35814e-05
4.33902e-05
4.36317e-05
1.70339e-05
1.69884e-05
7.17275e-05
2.59593e-05
2.58181e-05
7.20149e-05
9.35961e-05
8.66428e-05
7.29618e-05
6.98315e-05
7.30375e-05
6.85169e-05
9.31814e-05
7.22441e-05
2.66418e-05
2.65314e-05
7.26186e-05
9.39696e-05
8.78744e-05
6.92074e-05
7.50471e-05
6.88387e-05
7.44914e-05
9.32339e-05
7.22558e-05
2.61538e-05
9.28633e-05
8.71745e-05
6.91738e-05
7.36823e-05
7.20071e-05
2.58411e-05
9.33504e-05
8.65036e-05
7.48277e-05
6.93365e-05
7.44141e-05
6.9151e-05
9.39503e-05
7.23404e-05
2.61891e-05
2.65561e-05
7.25142e-05
9.17901e-05
8.70062e-05
6.96947e-05
7.41773e-05
6.84526e-05
7.39387e-05
9.3234e-05
7.1841e-05
2.62419e-05
2.62417e-05
7.17441e-05
1.69849e-05
1.69772e-05
8.70525e-05
4.33596e-05
4.35093e-05
4.33373e-05
4.3578e-05
1.69405e-05
1.68491e-05
9.20322e-05
8.49371e-05
6.70817e-05
7.53428e-05
6.69897e-05
7.40725e-05
9.19005e-05
9.18697e-05
8.38848e-05
6.61285e-05
7.39811e-05
6.53028e-05
7.38073e-05
9.16701e-05
7.16877e-05
2.68908e-05
2.60219e-05
7.19083e-05
7.10095e-05
2.63089e-05
2.58399e-05
7.17575e-05
1.66362e-05
1.65829e-05
8.61379e-05
4.29977e-05
4.32451e-05
4.30433e-05
4.31198e-05
1.67661e-05
1.67359e-05
1.67844e-05
1.65911e-05
1.65895e-05
1.65626e-05
1.66456e-05
1.66614e-05
4.2719e-05
4.2636e-05
8.77913e-05
4.26912e-05
4.25665e-05
1.66938e-05
1.66797e-05
1.66947e-05
1.67469e-05
8.67075e-05
4.3026e-05
4.27189e-05
4.27321e-05
4.29328e-05
7.33936e-05
2.65886e-05
7.23633e-05
2.65644e-05
9.22988e-05
7.40961e-05
6.61921e-05
8.40838e-05
9.2946e-05
7.33546e-05
6.56401e-05
9.31349e-05
7.39274e-05
6.66406e-05
8.40809e-05
9.30593e-05
7.44699e-05
6.6261e-05
7.31337e-05
2.63643e-05
2.62744e-05
7.31351e-05
7.37488e-05
2.65356e-05
2.65265e-05
7.31036e-05
9.34672e-05
8.42699e-05
7.41898e-05
6.52332e-05
7.32956e-05
6.57996e-05
9.29765e-05
9.36694e-05
8.48017e-05
7.48189e-05
6.60021e-05
7.46747e-05
6.63592e-05
9.37779e-05
4.34906e-05
4.37169e-05
8.84471e-05
4.29999e-05
4.37278e-05
1.7079e-05
1.70934e-05
1.68086e-05
1.68739e-05
8.72562e-05
4.30743e-05
4.3562e-05
4.3335e-05
4.39485e-05
1.69893e-05
1.71446e-05
9.29389e-05
7.3531e-05
6.9877e-05
8.67807e-05
9.26132e-05
7.3266e-05
6.99791e-05
7.19508e-05
2.67573e-05
7.27236e-05
2.67738e-05
9.40332e-05
6.86779e-05
7.53956e-05
8.80855e-05
9.43313e-05
6.99425e-05
7.53302e-05
7.22202e-05
2.61125e-05
2.61234e-05
7.20312e-05
9.19241e-05
8.68396e-05
7.35693e-05
6.97204e-05
7.30055e-05
6.96562e-05
9.32009e-05
7.18866e-05
2.6765e-05
2.6852e-05
7.21626e-05
9.28796e-05
8.68146e-05
7.00797e-05
7.52042e-05
6.99889e-05
7.48612e-05
9.30214e-05
7.29222e-05
2.65763e-05
7.27997e-05
2.65158e-05
9.27756e-05
6.96657e-05
7.45148e-05
8.6407e-05
9.34069e-05
6.97102e-05
7.45833e-05
7.21268e-05
2.64116e-05
7.28414e-05
2.61777e-05
9.46188e-05
8.56085e-05
7.50068e-05
7.00325e-05
7.50912e-05
6.97748e-05
9.40913e-05
7.32187e-05
2.63996e-05
2.6753e-05
7.30766e-05
9.3612e-05
8.57348e-05
6.9366e-05
7.44177e-05
6.92907e-05
7.46375e-05
9.36583e-05
7.19261e-05
2.61613e-05
2.64469e-05
7.20567e-05
4.34191e-05
4.41226e-05
8.86093e-05
4.33963e-05
4.40481e-05
1.71043e-05
1.70695e-05
1.7082e-05
1.70362e-05
8.85174e-05
4.36691e-05
4.40569e-05
4.3675e-05
4.36466e-05
1.70932e-05
1.7079e-05
9.13894e-05
6.64296e-05
7.33933e-05
8.5224e-05
9.1853e-05
6.58076e-05
7.35132e-05
7.21149e-05
2.68299e-05
7.23539e-05
2.67058e-05
7.14596e-05
2.63357e-05
7.26395e-05
2.60369e-05
9.25493e-05
8.43477e-05
6.66688e-05
7.50622e-05
6.66335e-05
7.52645e-05
9.26733e-05
9.179e-05
8.52171e-05
6.69099e-05
7.37855e-05
6.64741e-05
7.33217e-05
9.19818e-05
7.17243e-05
2.66704e-05
2.67434e-05
7.22088e-05
7.05939e-05
2.62753e-05
2.6304e-05
7.08525e-05
1.67946e-05
1.67875e-05
1.67351e-05
1.66922e-05
8.75076e-05
4.28041e-05
4.27595e-05
4.30307e-05
4.28454e-05
1.67857e-05
1.68159e-05
1.66642e-05
1.66604e-05
1.66449e-05
1.6779e-05
1.67529e-05
1.6761e-05
4.29896e-05
4.29644e-05
8.75365e-05
4.31882e-05
4.29426e-05
1.67575e-05
1.6695e-05
1.68091e-05
1.68064e-05
8.74888e-05
4.31372e-05
4.30195e-05
4.3289e-05
4.3109e-05
7.3434e-05
2.63615e-05
7.34054e-05
2.64955e-05
9.38324e-05
7.35855e-05
6.49444e-05
8.36473e-05
9.21043e-05
7.46394e-05
6.62833e-05
9.23318e-05
7.42395e-05
6.57e-05
8.61531e-05
9.30344e-05
7.44085e-05
6.69879e-05
7.26122e-05
2.6068e-05
2.63936e-05
7.30109e-05
7.36744e-05
2.66227e-05
2.6416e-05
7.38035e-05
9.3749e-05
8.50929e-05
7.40741e-05
6.66001e-05
7.41331e-05
6.63232e-05
9.27463e-05
9.33625e-05
8.63489e-05
7.44542e-05
6.73608e-05
7.50284e-05
6.71649e-05
9.35185e-05
4.35186e-05
4.33429e-05
8.88611e-05
4.3484e-05
4.36179e-05
1.70679e-05
1.69375e-05
1.68603e-05
1.68658e-05
8.84022e-05
4.32943e-05
4.36105e-05
4.30619e-05
4.37847e-05
1.706e-05
1.70909e-05
9.29148e-05
7.32478e-05
6.95651e-05
8.69158e-05
9.19679e-05
7.37462e-05
6.89533e-05
7.24217e-05
2.69451e-05
7.2503e-05
2.68947e-05
9.37279e-05
6.93579e-05
7.55129e-05
8.77638e-05
9.21865e-05
6.96314e-05
7.49691e-05
7.12318e-05
2.63332e-05
2.62944e-05
7.19924e-05
9.31158e-05
8.635e-05
7.41565e-05
6.89197e-05
7.41519e-05
7.01291e-05
9.33592e-05
7.29058e-05
2.67332e-05
2.69323e-05
7.23658e-05
9.4111e-05
8.60915e-05
6.94723e-05
7.50397e-05
6.95956e-05
7.45391e-05
9.26096e-05
7.33731e-05
2.67501e-05
7.33526e-05
2.64743e-05
9.44598e-05
6.91968e-05
7.40431e-05
8.72024e-05
9.40549e-05
6.85436e-05
7.43872e-05
7.2239e-05
2.64736e-05
7.2496e-05
2.64524e-05
9.41507e-05
8.76267e-05
7.4613e-05
7.03464e-05
7.44992e-05
7.0335e-05
9.42814e-05
7.36367e-05
2.67063e-05
2.66697e-05
7.26916e-05
9.46713e-05
8.73007e-05
6.91087e-05
7.4356e-05
6.98657e-05
7.42765e-05
9.3802e-05
7.26778e-05
2.62911e-05
2.64278e-05
7.26024e-05
4.3904e-05
4.41803e-05
8.91079e-05
4.37811e-05
4.4017e-05
1.70689e-05
1.7088e-05
1.70975e-05
1.71927e-05
8.82406e-05
4.31617e-05
4.38818e-05
4.38516e-05
4.42105e-05
1.70441e-05
1.71005e-05
9.19489e-05
6.69423e-05
7.3715e-05
8.52211e-05
9.221e-05
6.64736e-05
7.39426e-05
7.23295e-05
2.64432e-05
7.25174e-05
2.65684e-05
7.21368e-05
2.631e-05
7.19238e-05
2.63041e-05
9.24728e-05
8.52134e-05
6.72453e-05
7.48346e-05
6.59113e-05
7.5059e-05
9.31562e-05
9.1722e-05
8.52437e-05
6.72311e-05
7.42712e-05
6.60045e-05
7.40617e-05
9.31594e-05
7.23341e-05
2.65664e-05
2.64181e-05
7.25786e-05
7.22316e-05
2.62836e-05
2.62689e-05
7.23855e-05
1.67562e-05
1.67286e-05
1.66848e-05
1.66451e-05
8.58622e-05
4.28816e-05
4.29121e-05
4.26019e-05
4.29412e-05
1.67392e-05
1.67476e-05
1.67429e-05
1.66942e-05
1.67969e-05
1.67738e-05
1.67471e-05
1.68059e-05
4.33981e-05
4.31772e-05
8.67018e-05
4.336e-05
4.30742e-05
1.67285e-05
1.67395e-05
1.68226e-05
1.68591e-05
8.68448e-05
4.33563e-05
4.30882e-05
4.36029e-05
4.32332e-05
7.35213e-05
2.66202e-05
7.33946e-05
2.65708e-05
9.29133e-05
7.42785e-05
6.678e-05
8.54263e-05
9.23294e-05
7.42175e-05
6.6888e-05
9.25766e-05
7.40661e-05
6.73469e-05
8.65673e-05
9.38655e-05
7.4379e-05
6.65583e-05
7.23376e-05
2.60642e-05
2.62779e-05
7.29036e-05
7.28914e-05
2.66092e-05
2.65636e-05
7.25241e-05
9.17219e-05
8.5264e-05
7.40149e-05
6.67355e-05
7.44785e-05
6.58152e-05
9.298e-05
9.19015e-05
8.62817e-05
7.50545e-05
6.62574e-05
7.48391e-05
6.65383e-05
9.32395e-05
4.35009e-05
4.38447e-05
8.90306e-05
4.32335e-05
4.33494e-05
1.71036e-05
1.69916e-05
1.69088e-05
1.68589e-05
8.9054e-05
4.34613e-05
4.30507e-05
4.34413e-05
4.31515e-05
1.68801e-05
1.69893e-05
9.22927e-05
7.45074e-05
6.97662e-05
8.68982e-05
9.34711e-05
7.44943e-05
7.00909e-05
7.21967e-05
2.6835e-05
7.22984e-05
2.67669e-05
9.34934e-05
6.9857e-05
7.44981e-05
8.79401e-05
9.38073e-05
6.98809e-05
7.49407e-05
7.14801e-05
2.62538e-05
2.63972e-05
7.08291e-05
9.33656e-05
8.68743e-05
7.4521e-05
7.01408e-05
7.47169e-05
7.00615e-05
9.29851e-05
7.24708e-05
2.65776e-05
2.69284e-05
7.15869e-05
9.33065e-05
8.70856e-05
7.01841e-05
7.48984e-05
6.88767e-05
7.47071e-05
9.34428e-05
7.25075e-05
2.67328e-05
7.21919e-05
2.66202e-05
9.38028e-05
6.95407e-05
7.40862e-05
8.69584e-05
9.4623e-05
6.95774e-05
7.40166e-05
7.28755e-05
2.6406e-05
7.31109e-05
2.63745e-05
9.36768e-05
8.68961e-05
7.42398e-05
7.02598e-05
7.47926e-05
7.01891e-05
9.43394e-05
7.28311e-05
2.62035e-05
2.64454e-05
7.12643e-05
9.35546e-05
8.58748e-05
6.99424e-05
7.38494e-05
6.95488e-05
7.36633e-05
9.4104e-05
7.31205e-05
2.62195e-05
2.644e-05
7.25195e-05
4.37784e-05
4.38843e-05
8.80507e-05
4.35508e-05
4.37681e-05
1.69937e-05
1.69596e-05
1.7172e-05
1.71815e-05
8.92022e-05
4.38826e-05
4.38147e-05
4.39005e-05
4.3869e-05
1.70137e-05
1.70436e-05
9.26078e-05
6.73664e-05
7.44088e-05
8.54689e-05
9.23593e-05
6.74963e-05
7.37053e-05
7.22276e-05
2.64209e-05
7.24555e-05
2.63926e-05
7.22817e-05
2.63119e-05
7.24108e-05
2.60627e-05
9.2179e-05
8.64073e-05
6.77215e-05
7.46707e-05
6.65964e-05
7.38239e-05
9.2783e-05
9.28767e-05
8.42294e-05
6.736e-05
7.37852e-05
6.723e-05
7.33881e-05
9.29873e-05
7.25875e-05
2.6609e-05
2.65698e-05
7.26045e-05
7.27748e-05
2.59954e-05
2.62834e-05
7.19604e-05
1.67468e-05
1.66934e-05
1.66618e-05
1.65376e-05
8.71391e-05
4.26201e-05
4.21925e-05
4.27674e-05
4.2645e-05
1.66012e-05
1.67498e-05
1.65749e-05
1.66744e-05
1.67554e-05
1.67676e-05
1.68461e-05
1.6737e-05
4.30513e-05
4.33038e-05
8.62248e-05
4.32776e-05
4.2542e-05
1.67627e-05
1.67141e-05
1.67212e-05
1.67894e-05
8.72921e-05
4.32709e-05
4.2956e-05
4.32369e-05
4.32077e-05
7.26929e-05
2.65249e-05
7.33149e-05
2.67378e-05
9.30011e-05
7.39069e-05
6.71328e-05
8.55993e-05
9.29633e-05
7.40552e-05
6.69677e-05
9.33133e-05
7.47599e-05
6.75955e-05
8.60057e-05
9.31504e-05
7.50592e-05
6.76834e-05
7.30367e-05
2.61468e-05
2.61611e-05
7.25898e-05
7.35584e-05
2.63979e-05
2.66903e-05
7.3298e-05
9.26795e-05
8.48918e-05
7.45578e-05
6.71866e-05
7.36241e-05
6.70017e-05
9.26199e-05
9.20556e-05
8.4722e-05
7.48196e-05
6.78037e-05
7.46181e-05
6.77688e-05
9.32618e-05
4.31953e-05
4.33247e-05
8.88332e-05
4.34956e-05
4.3255e-05
1.69238e-05
1.69129e-05
1.67734e-05
1.68528e-05
8.88507e-05
4.30608e-05
4.27341e-05
4.35157e-05
4.30516e-05
1.68476e-05
1.68572e-05
9.21663e-05
7.45302e-05
6.99463e-05
8.66381e-05
9.16383e-05
7.39198e-05
7.01949e-05
7.06049e-05
2.67242e-05
7.20943e-05
2.62638e-05
9.26118e-05
7.01145e-05
7.42916e-05
8.88165e-05
9.35522e-05
7.04242e-05
7.48044e-05
7.10918e-05
2.62129e-05
2.62821e-05
7.10056e-05
9.23794e-05
8.60919e-05
7.40591e-05
6.91262e-05
7.43158e-05
6.98756e-05
9.12935e-05
7.14173e-05
2.64188e-05
2.65163e-05
7.15548e-05
9.17847e-05
8.87567e-05
7.06309e-05
7.4689e-05
7.05281e-05
7.46705e-05
9.21091e-05
7.21208e-05
2.65058e-05
7.19642e-05
2.64494e-05
9.27263e-05
7.01296e-05
7.36819e-05
8.61078e-05
9.41948e-05
6.92274e-05
7.42524e-05
7.14065e-05
2.63083e-05
7.20312e-05
2.62914e-05
9.4214e-05
8.81987e-05
7.41686e-05
7.06912e-05
7.42187e-05
7.0529e-05
9.40239e-05
7.21789e-05
2.61973e-05
2.65342e-05
7.20105e-05
9.40813e-05
8.57708e-05
7.01157e-05
7.37989e-05
7.03984e-05
7.44837e-05
9.3901e-05
7.19053e-05
2.59261e-05
2.63661e-05
7.19279e-05
4.41222e-05
4.37612e-05
8.80451e-05
4.40082e-05
4.38878e-05
1.70625e-05
1.70245e-05
1.70411e-05
1.7168e-05
8.82101e-05
4.38096e-05
4.38231e-05
4.41838e-05
4.3618e-05
1.70259e-05
1.70066e-05
9.12002e-05
6.72894e-05
7.37456e-05
8.48824e-05
9.30109e-05
6.65089e-05
7.38461e-05
7.22999e-05
2.64439e-05
7.28713e-05
2.64165e-05
7.25546e-05
2.62538e-05
7.20758e-05
2.62257e-05
9.16593e-05
8.45506e-05
6.79704e-05
7.4748e-05
6.78975e-05
7.47451e-05
9.27239e-05
9.20433e-05
8.41112e-05
6.74005e-05
7.38762e-05
6.76421e-05
7.33214e-05
9.16448e-05
7.27642e-05
2.64535e-05
2.64732e-05
7.18032e-05
7.21471e-05
2.61224e-05
2.62165e-05
7.2266e-05
1.66788e-05
1.66662e-05
1.65017e-05
1.64827e-05
8.77303e-05
4.24534e-05
4.27014e-05
4.22132e-05
4.25955e-05
1.66313e-05
1.66654e-05
1.6605e-05
1.6582e-05
1.67137e-05
1.66485e-05
1.6745e-05
1.66569e-05
4.34559e-05
4.29933e-05
8.80801e-05
4.28856e-05
4.25329e-05
1.68222e-05
1.68063e-05
1.66787e-05
1.66917e-05
8.81371e-05
4.34034e-05
4.24782e-05
4.34994e-05
4.27365e-05
7.29708e-05
2.66473e-05
7.31521e-05
2.63301e-05
9.25769e-05
7.46437e-05
6.69921e-05
8.52917e-05
9.29049e-05
7.45972e-05
6.70795e-05
9.35336e-05
7.44e-05
6.78351e-05
8.57682e-05
9.31574e-05
7.49934e-05
6.77854e-05
7.29491e-05
2.62353e-05
2.60768e-05
7.27161e-05
7.31964e-05
2.62457e-05
2.64663e-05
7.23809e-05
9.15384e-05
8.52488e-05
7.39357e-05
6.61724e-05
7.41074e-05
6.71111e-05
9.2251e-05
9.35405e-05
8.60958e-05
7.38191e-05
6.76712e-05
7.47093e-05
6.77853e-05
9.31746e-05
4.3558e-05
4.29921e-05
8.74915e-05
4.32664e-05
4.31364e-05
1.68824e-05
1.6835e-05
1.67499e-05
1.67756e-05
8.71243e-05
4.29498e-05
4.32704e-05
4.32912e-05
4.32814e-05
1.69064e-05
1.69201e-05
9.09582e-05
7.36067e-05
6.91597e-05
8.70884e-05
9.27225e-05
7.40959e-05
6.8778e-05
7.15173e-05
2.67426e-05
7.1115e-05
2.67059e-05
9.2356e-05
7.0649e-05
7.47731e-05
8.77754e-05
9.35019e-05
7.06949e-05
7.46289e-05
7.09882e-05
2.6131e-05
2.62348e-05
7.07576e-05
9.21383e-05
8.54721e-05
7.38251e-05
7.01059e-05
7.43082e-05
7.00396e-05
9.22851e-05
7.16917e-05
2.65419e-05
2.68012e-05
7.16173e-05
9.3354e-05
8.81756e-05
6.96715e-05
7.49196e-05
7.06872e-05
7.50339e-05
9.29897e-05
7.24539e-05
2.65123e-05
7.25663e-05
2.64322e-05
9.38545e-05
6.88167e-05
7.33689e-05
8.72471e-05
9.38841e-05
6.97176e-05
7.396e-05
7.16701e-05
2.62289e-05
7.20049e-05
2.61449e-05
9.41837e-05
8.69384e-05
7.34002e-05
7.05441e-05
7.43097e-05
7.08064e-05
9.33302e-05
7.26117e-05
2.64471e-05
2.65141e-05
7.2007e-05
9.35919e-05
8.7276e-05
7.03519e-05
7.36043e-05
6.91295e-05
7.31004e-05
9.34168e-05
7.12214e-05
2.62276e-05
2.62558e-05
7.14309e-05
4.34955e-05
4.38943e-05
8.85992e-05
4.33263e-05
4.38723e-05
1.69526e-05
1.7013e-05
1.69867e-05
1.70002e-05
8.68585e-05
4.31323e-05
4.37697e-05
4.391e-05
4.36379e-05
1.69979e-05
1.6912e-05
9.25705e-05
6.74903e-05
7.41555e-05
8.43773e-05
9.28904e-05
6.73041e-05
7.37884e-05
7.26504e-05
2.64718e-05
7.26137e-05
2.64632e-05
7.21218e-05
2.6062e-05
7.19357e-05
2.59526e-05
9.25962e-05
8.60661e-05
6.73711e-05
7.46403e-05
6.74723e-05
7.37199e-05
9.18056e-05
9.25956e-05
8.56939e-05
6.76673e-05
7.28943e-05
6.75267e-05
7.38289e-05
9.14895e-05
7.26992e-05
2.64845e-05
2.64912e-05
7.20426e-05
7.23266e-05
2.60816e-05
2.62143e-05
7.21313e-05
1.65031e-05
1.65942e-05
1.65481e-05
1.64801e-05
8.73344e-05
4.24679e-05
4.21863e-05
4.2609e-05
4.25504e-05
1.66298e-05
1.66309e-05
1.65792e-05
1.65384e-05
1.67964e-05
1.67605e-05
1.66132e-05
1.67006e-05
4.35543e-05
4.26461e-05
8.72331e-05
4.34599e-05
4.2646e-05
1.68205e-05
1.67819e-05
1.66831e-05
1.67448e-05
8.6862e-05
4.34601e-05
4.26674e-05
4.35582e-05
4.29947e-05
7.24037e-05
2.63422e-05
7.32376e-05
2.60682e-05
9.27586e-05
7.3404e-05
6.72916e-05
8.405e-05
9.30264e-05
7.44961e-05
6.70921e-05
9.21361e-05
7.41918e-05
6.76887e-05
8.57276e-05
9.3098e-05
7.43211e-05
6.7363e-05
7.24707e-05
2.62407e-05
2.62289e-05
7.27327e-05
7.30033e-05
2.63906e-05
2.62427e-05
7.24524e-05
9.17575e-05
8.54248e-05
7.32969e-05
6.73723e-05
7.40716e-05
6.73171e-05
9.29302e-05
9.34196e-05
8.55756e-05
7.46574e-05
6.64237e-05
7.45926e-05
6.71995e-05
9.27015e-05
4.31246e-05
4.34348e-05
8.73787e-05
4.29883e-05
4.27552e-05
1.69263e-05
1.68362e-05
1.67506e-05
1.66306e-05
8.8469e-05
4.26871e-05
4.28333e-05
4.32126e-05
4.33972e-05
1.67593e-05
1.68777e-05
9.28058e-05
7.29128e-05
7.02036e-05
8.67509e-05
9.27147e-05
7.3556e-05
6.98834e-05
7.13267e-05
2.67238e-05
7.17734e-05
2.65254e-05
9.18282e-05
7.07554e-05
7.51346e-05
8.83799e-05
9.32935e-05
7.06037e-05
7.47605e-05
7.08274e-05
2.60379e-05
2.61645e-05
7.06406e-05
9.28824e-05
8.62345e-05
7.31375e-05
6.87753e-05
7.39978e-05
6.91316e-05
9.21593e-05
7.12268e-05
2.65864e-05
2.64399e-05
7.04677e-05
9.24758e-05
8.76894e-05
7.0853e-05
7.46808e-05
7.07628e-05
7.48685e-05
9.14442e-05
7.21135e-05
2.61664e-05
7.21929e-05
2.63029e-05
9.39032e-05
7.00269e-05
7.37174e-05
8.67625e-05
9.29754e-05
6.99957e-05
7.35697e-05
7.23698e-05
2.62478e-05
7.17378e-05
2.59921e-05
9.38724e-05
8.80596e-05
7.39547e-05
6.95898e-05
7.41211e-05
7.05747e-05
9.34158e-05
7.17654e-05
2.61843e-05
2.63758e-05
7.20323e-05
9.40203e-05
8.70889e-05
6.99784e-05
7.37514e-05
7.01895e-05
7.32144e-05
9.34299e-05
7.25932e-05
2.60615e-05
2.617e-05
7.18319e-05
4.34975e-05
4.38645e-05
8.81246e-05
4.33236e-05
4.37097e-05
1.70154e-05
1.70031e-05
1.69488e-05
1.69917e-05
8.77531e-05
4.33556e-05
4.33629e-05
4.35072e-05
4.38618e-05
1.69839e-05
1.69635e-05
9.24752e-05
6.74418e-05
7.38513e-05
8.55014e-05
9.06703e-05
6.76484e-05
7.3308e-05
7.24519e-05
2.64369e-05
7.29358e-05
2.64945e-05
7.15955e-05
2.61054e-05
7.22425e-05
2.59723e-05
9.31676e-05
8.64915e-05
6.79316e-05
7.3899e-05
6.77781e-05
7.46933e-05
9.32653e-05
9.27389e-05
8.50197e-05
6.71758e-05
7.35751e-05
6.65069e-05
7.39771e-05
9.27007e-05
7.18756e-05
2.6447e-05
2.63671e-05
7.23032e-05
7.22956e-05
2.60218e-05
2.62239e-05
7.19701e-05
1.65478e-05
1.65825e-05
1.65593e-05
1.64638e-05
8.75184e-05
4.24902e-05
4.24579e-05
4.24946e-05
4.24974e-05
1.6621e-05
1.65891e-05
1.65954e-05
1.65718e-05
1.68292e-05
1.67443e-05
1.67014e-05
1.65698e-05
4.35465e-05
4.28138e-05
8.72767e-05
4.31708e-05
4.21952e-05
1.66269e-05
1.66397e-05
1.66116e-05
1.6593e-05
8.72912e-05
4.3056e-05
4.23442e-05
4.32443e-05
4.24303e-05
7.25503e-05
2.63515e-05
7.19173e-05
2.6481e-05
9.19328e-05
7.40129e-05
6.64801e-05
8.54362e-05
9.27792e-05
7.3964e-05
6.75877e-05
9.2488e-05
7.47257e-05
6.75477e-05
8.60468e-05
9.25738e-05
7.42976e-05
6.72591e-05
7.24504e-05
2.60232e-05
2.58486e-05
7.24643e-05
7.21638e-05
2.6362e-05
2.63815e-05
7.19927e-05
9.08998e-05
8.52831e-05
7.39895e-05
6.69974e-05
7.41707e-05
6.76246e-05
9.16944e-05
9.29664e-05
8.6378e-05
7.42989e-05
6.67233e-05
7.41417e-05
6.73848e-05
9.20566e-05
4.30716e-05
4.32045e-05
8.82572e-05
4.29322e-05
4.31904e-05
1.68513e-05
1.68876e-05
1.69068e-05
1.68409e-05
8.82136e-05
4.3394e-05
4.30317e-05
4.34356e-05
4.29102e-05
1.68789e-05
1.67774e-05
9.19597e-05
7.24609e-05
7.00476e-05
8.6971e-05
9.24203e-05
7.31127e-05
6.99452e-05
7.13908e-05
2.65523e-05
7.1419e-05
2.66062e-05
9.30563e-05
7.09349e-05
7.42473e-05
8.77229e-05
9.27658e-05
7.09896e-05
7.38451e-05
7.12279e-05
2.58924e-05
2.59693e-05
7.08497e-05
9.2666e-05
8.68515e-05
7.24631e-05
7.03646e-05
7.31138e-05
7.02425e-05
9.22972e-05
7.15476e-05
2.66377e-05
2.66891e-05
7.11336e-05
9.30628e-05
8.77781e-05
7.07986e-05
7.45291e-05
7.10029e-05
7.46716e-05
9.32651e-05
7.23785e-05
2.6375e-05
7.23461e-05
2.64158e-05
9.26255e-05
7.00139e-05
7.37931e-05
8.70189e-05
9.40314e-05
6.96772e-05
7.39605e-05
7.06958e-05
2.61635e-05
7.11946e-05
2.6156e-05
9.19998e-05
8.77372e-05
7.38136e-05
7.01342e-05
7.4325e-05
6.90891e-05
9.28884e-05
7.2542e-05
2.64408e-05
2.64967e-05
7.21989e-05
9.19649e-05
8.70571e-05
6.9638e-05
7.28697e-05
6.98389e-05
7.38816e-05
9.21158e-05
7.18149e-05
2.60175e-05
2.59113e-05
7.15135e-05
4.35604e-05
4.38698e-05
8.7912e-05
4.3473e-05
4.37212e-05
1.68898e-05
1.69772e-05
1.69656e-05
1.69774e-05
8.82044e-05
4.31913e-05
4.34958e-05
4.32282e-05
4.38441e-05
1.69818e-05
1.68698e-05
9.12091e-05
6.73006e-05
7.4267e-05
8.43943e-05
9.25029e-05
6.65568e-05
7.32331e-05
7.27219e-05
2.63181e-05
7.24208e-05
2.63746e-05
7.2384e-05
2.58932e-05
7.18541e-05
2.59669e-05
9.17388e-05
8.49743e-05
6.72978e-05
7.35781e-05
6.60564e-05
7.39776e-05
9.30766e-05
9.22278e-05
8.41129e-05
6.67988e-05
7.29725e-05
6.71529e-05
7.35932e-05
9.24673e-05
7.25411e-05
2.63974e-05
2.6204e-05
7.26412e-05
7.22852e-05
2.59725e-05
2.57984e-05
7.21011e-05
1.65284e-05
1.6568e-05
1.6559e-05
1.65607e-05
8.7388e-05
4.19785e-05
4.2411e-05
4.25818e-05
4.2098e-05
1.65552e-05
1.65908e-05
1.6506e-05
1.64754e-05
1.66408e-05
1.67286e-05
1.65057e-05
1.66008e-05
4.28251e-05
4.27939e-05
8.78032e-05
4.30698e-05
4.24554e-05
1.67711e-05
1.6709e-05
1.65916e-05
1.65594e-05
8.79588e-05
4.32873e-05
4.22131e-05