/*--------------------------------*- C++ -*----------------------------------*\
| =========                 |                                                 |
| \\      /  F ield         | OpenFOAM: The Open Source CFD Toolbox           |
|  \\    /   O peration     | Version:  2206                                  |
|   \\  /    A nd           | Website:  www.openfoam.com                      |
|    \\/     M anipulation  |                                                 |
\*---------------------------------------------------------------------------*/
FoamFile
{
    version     2.0;
    format      ascii;
    arch        "LSB;label=32;scalar=64";
    class       surfaceScalarField;
    location    "110";
    object      phi;
}
// * * * * * * * * * * * * * * * * * * * * * * * * * * * * * * * * * * * * * //

dimensions      [0 3 -1 0 0 0 0];

oriented        oriented;

internalField   nonuniform List<scalar> 
199822
(
-3.83705e-12
-2.0622e-12
-1.23871e-07
2.19087e-12
3.46422e-12
1.23871e-07
-1.15015e-07
-3.11453e-11
3.80562e-13
-2.34158e-12
1.15012e-07
3.81524e-11
3.22343e-11
-3.38476e-11
-6.52531e-11
6.36182e-11
6.64768e-11
-6.55194e-11
-1.16188e-07
-3.68504e-11
6.11858e-12
-2.777e-12
1.16187e-07
2.50515e-11
3.68572e-11
-2.55631e-11
-1.07053e-11
3.35494e-11
1.04931e-11
-3.55597e-11
-2.76578e-08
-1.30819e-10
1.77414e-10
-6.94558e-11
1.7408e-10
2.75066e-08
-6.60979e-12
-4.02228e-12
-1.23867e-07
4.58734e-12
6.02961e-12
1.23867e-07
-1.15012e-07
-3.0864e-11
3.05857e-12
-5.96283e-12
1.15012e-07
3.83397e-11
3.27733e-11
-3.70404e-11
-6.58482e-11
6.32899e-11
6.63815e-11
-6.38547e-11
-1.16183e-07
-3.62462e-11
6.30472e-12
-6.03758e-12
1.16183e-07
2.54862e-11
3.73158e-11
-2.54996e-11
-1.0743e-11
3.40415e-11
1.07609e-11
-3.49999e-11
-2.7658e-08
4.32721e-11
1.62664e-11
6.84562e-11
2.41287e-11
2.75059e-08
-1.02686e-11
-8.03057e-12
-1.23862e-07
9.24542e-12
9.40642e-12
1.23862e-07
-1.15003e-07
-3.11543e-11
7.35554e-12
-6.65692e-12
1.15e-07
3.81436e-11
3.26802e-11
-3.33562e-11
-6.61051e-11
6.24966e-11
6.60452e-11
-6.66435e-11
-1.16181e-07
-3.62323e-11
1.18004e-11
-1.04422e-11
1.1618e-07
2.56166e-11
3.74021e-11
-2.47731e-11
-1.12204e-11
3.39192e-11
1.02159e-11
-3.55694e-11
-2.76578e-08
-1.30933e-10
1.77078e-10
-6.96189e-11
1.74479e-10
2.75068e-08
-1.62905e-11
-1.46343e-11
-1.23862e-07
1.50657e-11
1.48976e-11
1.23863e-07
-1.14997e-07
-3.07182e-11
1.43883e-11
-1.38063e-11
1.14998e-07
3.83531e-11
3.30475e-11
-3.70567e-11
-6.72612e-11
6.20268e-11
6.53557e-11
-6.51657e-11
-1.16177e-07
-3.60345e-11
1.93898e-11
-1.60655e-11
1.16177e-07
2.54196e-11
3.78899e-11
-2.50756e-11
-1.186e-11
3.27608e-11
9.71848e-12
-3.67437e-11
-2.76572e-08
4.29652e-11
1.60226e-11
6.81484e-11
2.46449e-11
2.75054e-08
-2.95495e-11
-2.41026e-11
-1.23863e-07
2.73992e-11
2.68122e-11
1.23862e-07
-1.14997e-07
-3.08467e-11
2.34642e-11
-2.17738e-11
1.15001e-07
3.83878e-11
3.26232e-11
-3.33726e-11
-6.89511e-11
6.09927e-11
6.41612e-11
-6.87429e-11
-1.16179e-07
-3.55418e-11
3.46899e-11
-2.91847e-11
1.16181e-07
2.60909e-11
3.80266e-11
-2.4518e-11
-1.39539e-11
3.20311e-11
8.27055e-12
-3.776e-11
-2.76577e-08
-1.31328e-10
1.76453e-10
-6.94455e-11
1.74833e-10
2.75072e-08
-4.83926e-11
-4.39252e-11
-1.23866e-07
4.93783e-11
4.80673e-11
1.23861e-07
-1.15003e-07
-2.97539e-11
4.08326e-11
-4.01903e-11
1.15013e-07
3.97822e-11
3.34205e-11
-3.5596e-11
-7.12871e-11
5.93643e-11
6.2883e-11
-6.89593e-11
-1.16177e-07
-3.48392e-11
5.63836e-11
-4.87088e-11
1.16183e-07
2.72409e-11
3.83847e-11
-2.38808e-11
-1.69254e-11
3.03364e-11
7.10703e-12
-4.08381e-11
-2.76565e-08
4.21414e-11
1.50327e-11
6.87944e-11
2.50399e-11
2.75055e-08
-8.22846e-11
-7.31359e-11
-1.23874e-07
8.86291e-11
8.86397e-11
1.23852e-07
-1.15004e-07
-2.78368e-11
6.70812e-11
-7.20314e-11
1.15024e-07
4.21079e-11
3.55179e-11
-2.9643e-11
-7.63608e-11
5.69486e-11
6.00846e-11
-7.57977e-11
-1.16173e-07
-3.31191e-11
9.41324e-11
-8.77609e-11
1.16191e-07
2.91974e-11
3.99462e-11
-2.20147e-11
-2.2381e-11
2.6864e-11
3.45108e-12
-4.59504e-11
-2.76552e-08
-1.3385e-10
1.7419e-10
-6.82353e-11
1.76242e-10
2.75068e-08
-1.27365e-10
-1.10929e-10
-1.2389e-07
1.47589e-10
1.51005e-10
1.2383e-07
-1.14989e-07
-2.56122e-11
1.03304e-10
-1.34859e-10
1.15052e-07
4.57562e-11
3.97511e-11
-2.81189e-11
-8.41784e-11
5.00475e-11
5.27308e-11
-8.12938e-11
-1.16163e-07
-3.12261e-11
1.43944e-10
-1.57845e-10
1.16218e-07
3.24955e-11
4.34415e-11
-1.7313e-11
-3.05946e-11
1.98695e-11
-3.92426e-12
-5.42316e-11
-2.76524e-08
3.77059e-11
1.15213e-11
6.96957e-11
2.73315e-11
2.75062e-08
-1.59157e-10
-1.25626e-10
-1.23918e-07
2.02491e-10
2.16773e-10
1.23783e-07
-1.14929e-07
-2.41286e-11
1.13344e-10
-2.5366e-10
1.15127e-07
4.87571e-11
5.17316e-11
-1.1095e-11
-9.47073e-11
3.33793e-11
3.49399e-11
-9.59619e-11
-1.16117e-07
-3.08415e-11
1.868e-10
-2.928e-10
1.16299e-07
3.53638e-11
5.42329e-11
-5.15556e-12
-4.24951e-11
3.06582e-12
-2.2784e-11
-6.73595e-11
-2.76441e-08
-1.36244e-10
1.71308e-10
-7.05649e-11
1.73357e-10
2.75062e-08
-1.62239e-11
3.81447e-11
-1.239e-07
4.72362e-11
8.45411e-11
1.23746e-07
-1.14736e-07
-3.7552e-11
-5.81358e-11
-4.56125e-10
1.15371e-07
3.81868e-11
8.94859e-11
2.22359e-11
-9.7849e-11
-1.10847e-11
-1.66339e-11
-1.07789e-10
-1.15935e-07
-4.50367e-11
6.37908e-11
-5.1065e-10
1.16534e-07
2.49722e-11
8.88584e-11
2.9802e-11
-4.7905e-11
-4.28184e-11
-7.65019e-11
-8.30115e-11
-2.76285e-08
5.22299e-11
2.62811e-11
4.24749e-11
3.36438e-12
2.75041e-08
4.21936e-10
1.40075e-09
-1.23175e-07
-1.28821e-09
-1.58136e-09
1.24222e-07
-1.13983e-07
-9.25033e-11
-1.45135e-09
-6.20044e-10
1.15883e-07
-9.47285e-12
2.92861e-10
1.85293e-10
5.51727e-11
-8.69831e-11
-1.32257e-10
-4.11806e-11
-1.15204e-07
-9.99088e-11
-4.11338e-10
2.35037e-10
1.16721e-07
-1.95998e-11
2.8193e-10
1.07935e-10
-3.49784e-10
-2.55733e-10
-6.80443e-10
-3.24238e-10
-2.75874e-08
-6.17621e-11
2.41027e-10
-1.59034e-10
8.2744e-11
2.74845e-08
1.02772e-09
1.13226e-09
-1.34876e-07
-9.7538e-09
-9.83668e-09
3.19014e-08
3.16277e-08
3.18929e-08
3.19e-08
2.25882e-09
5.65921e-09
4.59871e-09
2.30053e-09
5.61065e-09
4.5567e-09
-2.74451e-08
-3.1109e-09
-2.87381e-10
-3.36944e-09
1.75866e-09
3.24541e-08
-2.62678e-08
-1.12671e-09
-2.65042e-09
9.4848e-10
-2.94215e-09
3.20386e-08
-2.752e-08
2.65221e-09
2.65458e-09
-2.79788e-09
-2.4923e-09
2.75034e-08
-2.84241e-11
-3.2135e-11
2.76441e-08
-2.74927e-08
-4.59391e-11
-4.48729e-11
1.17295e-07
-3.58302e-12
-1.17297e-07
1.52181e-12
-2.74557e-11
-2.10494e-11
2.14035e-11
-1.23247e-11
-3.27443e-11
3.3733e-11
1.44276e-11
2.77988e-11
1.17301e-07
-2.44847e-12
-1.17303e-07
1.40107e-12
-2.77936e-11
-2.23693e-11
2.19842e-11
-1.20517e-11
-3.31205e-11
3.37471e-11
1.43934e-11
-3.23668e-11
2.764e-08
-2.74884e-08
-4.57978e-11
-4.56486e-11
1.15059e-07
-4.44115e-12
-1.15061e-07
1.66324e-12
-3.10791e-11
-3.73377e-11
3.78099e-11
6.65679e-11
-6.20201e-11
6.34842e-11
-6.44742e-11
2.13303e-11
1.16088e-07
-3.11521e-12
-1.16091e-07
1.74859e-12
-2.06321e-11
-3.48185e-11
3.8508e-11
4.67385e-11
-6.15689e-11
6.01381e-11
-4.51656e-11
-3.7055e-12
-1.15017e-07
1.61738e-12
-3.13515e-11
-3.73079e-11
3.80198e-11
6.7042e-11
-6.26536e-11
-6.50934e-11
6.36844e-11
4.50197e-11
1.16071e-07
5.08401e-11
-1.16124e-07
-2.56723e-11
-1.86005e-11
-3.3918e-11
3.4193e-11
4.6472e-11
-6.12591e-11
6.24946e-11
-4.63585e-11
-3.70515e-11
2.76418e-08
-2.74914e-08
-5.31995e-11
-3.882e-11
-3.43949e-12
-1.16188e-07
2.18288e-12
-3.69308e-11
-2.5719e-11
2.1613e-11
1.20022e-11
-3.42306e-11
-9.86663e-12
3.77195e-11
1.65591e-11
1.16309e-07
-7.46144e-11
-1.1625e-07
3.49002e-11
-3.87703e-11
-2.54937e-11
2.54025e-11
1.18748e-11
-3.50046e-11
3.43709e-11
-8.84612e-12
-2.75058e-08
-6.75538e-11
-2.29279e-11
2.79088e-11
3.10682e-11
4.73461e-11
4.58823e-11
2.74919e-08
-2.8523e-11
-3.19773e-11
2.7642e-08
-2.74905e-08
-4.62714e-11
-4.47766e-11
-1.26392e-12
1.17294e-07
2.09649e-11
2.85143e-11
-2.13765e-11
1.35443e-11
3.27282e-11
-1.38795e-11
-3.36707e-11
-2.81081e-11
5.31323e-12
-1.11784e-12
1.17302e-07
2.13853e-11
2.79023e-11
-2.64191e-11
1.32143e-11
3.22613e-11
-1.38104e-11
-3.14412e-11
1.17288e-07
-3.55641e-12
-1.1729e-07
4.62438e-12
-2.78266e-11
-2.15216e-11
2.04618e-11
-1.35929e-11
-3.25423e-11
3.30446e-11
1.42063e-11
2.80457e-11
1.17296e-07
-3.90122e-12
-1.17298e-07
6.06375e-12
-2.7863e-11
-2.25994e-11
2.11195e-11
-1.33085e-11
-3.28388e-11
3.24701e-11
1.40484e-11
4.71578e-11
4.60626e-11
2.74875e-08
-3.20864e-11
2.76379e-08
-2.74859e-08
-4.62709e-11
-4.55402e-11
-2.63985e-12
1.15057e-07
3.78465e-11
3.21704e-11
-3.74919e-11
-6.54791e-11
6.32812e-11
6.66198e-11
-6.30804e-11
-2.04104e-11
2.92327e-12
-1.33594e-12
1.16086e-07
3.46214e-11
2.11025e-11
-3.4643e-11
-4.61996e-11
6.19575e-11
4.62769e-11
-6.26588e-11
1.15053e-07
-6.17639e-12
-1.15054e-07
3.17794e-12
-3.12333e-11
-3.74627e-11
3.76651e-11
6.69144e-11
-6.21439e-11
6.33445e-11
-6.461e-11
2.15333e-11
1.16084e-07
-5.43465e-12
-1.16086e-07
3.06209e-12
-2.02832e-11
-3.49342e-11
3.84177e-11
4.66034e-11
-6.17492e-11
5.98383e-11
-4.51973e-11
4.84139e-10
-1.4642e-10
1.15296e-07
8.25052e-11
1.93041e-10
6.025e-11
-4.86391e-11
6.20656e-11
-8.99378e-11
4.71868e-11
-5.83559e-12
-1.15012e-07
1.74366e-12
-3.14472e-11
-3.75607e-11
3.78325e-11
6.68841e-11
-6.26357e-11
-6.45676e-11
6.34368e-11
-1.29157e-10
1.16064e-07
-4.84524e-10
-1.15294e-07
1.47745e-10
-1.91615e-10
-8.28297e-11
-5.73771e-11
4.94186e-11
-6.22689e-11
8.70304e-11
-4.66592e-11
5.39247e-11
3.97178e-11
2.74909e-08
-3.68236e-11
2.76404e-08
-2.74902e-08
-5.3393e-11
-3.84539e-11
-5.7667e-10
1.75705e-10
1.17133e-07
-2.13306e-11
-1.28523e-10
-1.24354e-10
-7.22211e-12
3.30731e-11
-5.90082e-12
8.99281e-12
-5.85881e-12
-1.16183e-07
6.00411e-12
-3.68722e-11
-2.58198e-11
2.15233e-11
1.11436e-11
-3.42342e-11
-9.70688e-12
3.69729e-11
1.77567e-10
1.16321e-07
5.72906e-10
-1.17138e-07
-1.76607e-10
1.28261e-10
2.07906e-11
1.20531e-10
7.29324e-12
-3.32176e-11
7.71336e-12
-8.4038e-12
-2.75067e-08
6.93595e-11
-1.72198e-10
2.76638e-11
3.09516e-11
4.70602e-11
4.6064e-11
2.74903e-08
-2.82476e-11
-3.18807e-11
2.76419e-08
-2.74904e-08
-4.60777e-11
-4.52852e-11
-4.21625e-12
1.17287e-07
2.10034e-11
2.88514e-11
-2.10787e-11
1.32091e-11
3.2431e-11
-1.40078e-11
-3.38589e-11
-2.73549e-11
7.09946e-12
-4.66739e-12
1.17296e-07
2.19223e-11
2.88275e-11
-2.19135e-11
1.27256e-11
3.21486e-11
-1.41175e-11
-3.43418e-11
1.17284e-07
-7.27318e-12
-1.17285e-07
7.4788e-12
-2.82727e-11
-2.14069e-11
2.08203e-11
-1.35114e-11
-3.25582e-11
3.28651e-11
1.43878e-11
2.80752e-11
1.17293e-07
-8.09577e-12
-1.17295e-07
8.1226e-12
-2.79981e-11
-2.25762e-11
2.13666e-11
-1.31162e-11
-3.22311e-11
3.303e-11
1.46036e-11
4.71767e-11
4.64212e-11
2.7486e-08
-3.21441e-11
2.76373e-08
-2.74854e-08
-4.61433e-11
-4.55024e-11
-4.70731e-12
1.15052e-07
3.82784e-11
3.23604e-11
-3.70087e-11
-6.58507e-11
6.24516e-11
6.60833e-11
-6.36362e-11
-2.01627e-11
4.52079e-12
-4.11296e-12
1.16083e-07
3.50175e-11
2.14425e-11
-3.45911e-11
-4.60959e-11
6.15018e-11
4.62597e-11
-6.27666e-11
1.15049e-07
-9.11501e-12
-1.1505e-07
7.00366e-12
-3.1464e-11
-3.81126e-11
3.72895e-11
6.68252e-11
-6.20288e-11
6.34747e-11
-6.4315e-11
2.15048e-11
1.1608e-07
-7.86341e-12
-1.16083e-07
6.09076e-12
-2.00833e-11
-3.50931e-11
3.84834e-11
4.64499e-11
-6.15301e-11
5.97847e-11
-4.51428e-11
-4.86583e-11
2.28006e-11
1.16115e-07
3.3876e-11
1.99412e-11
-3.41071e-11
-4.62508e-11
6.12366e-11
-6.3057e-11
4.66345e-11
-8.17788e-12
-1.15007e-07
6.90053e-12
-3.14479e-11
-3.77375e-11
3.78886e-11
6.6867e-11
-6.23546e-11
-6.44876e-11
6.39123e-11
4.52123e-11
1.1606e-07
4.48891e-11
-1.16113e-07
-2.19644e-11
-1.83534e-11
-3.43919e-11
3.36885e-11
4.70276e-11
-6.0888e-11
6.30519e-11
-4.52564e-11
5.42803e-11
3.98222e-11
2.74899e-08
-3.68439e-11
2.76398e-08
-2.74897e-08
-5.34175e-11
-3.83777e-11
7.73632e-11
-3.92593e-11
1.16261e-07
2.53998e-11
3.92923e-11
-2.48445e-11
-1.03932e-11
3.4488e-11
-3.4992e-11
9.56494e-12
-9.42726e-12
-1.16181e-07
8.16889e-12
-3.65994e-11
-2.57498e-11
2.14583e-11
1.11229e-11
-3.37146e-11
-9.57205e-12
3.68534e-11
1.67035e-11
1.16318e-07
-8.09942e-11
-1.16259e-07
4.13189e-11
-3.90913e-11
-2.50404e-11
2.5345e-11
1.11206e-11
-3.40554e-11
3.44463e-11
-8.77391e-12
-2.75057e-08
-6.78239e-11
-2.23297e-11
2.7458e-11
3.0774e-11
4.72008e-11
4.61372e-11
2.74903e-08
-2.81144e-11
-3.17559e-11
2.76415e-08
-2.74903e-08
-4.62225e-11
-4.51179e-11
-7.56545e-12
1.17284e-07
2.08227e-11
2.89478e-11
-2.09228e-11
1.28074e-11
3.20034e-11
-1.44092e-11
-3.45135e-11
-2.76142e-11
1.12062e-11
-7.31759e-12
1.17294e-07
2.17415e-11
2.87184e-11
-2.5935e-11
1.25432e-11
3.18464e-11
-1.4222e-11
-3.18949e-11
1.17283e-07
-1.38704e-11
-1.17284e-07
1.27474e-11
-2.81243e-11
-2.21226e-11
2.00822e-11
-1.28881e-11
-3.20949e-11
3.34407e-11
1.50512e-11
2.78421e-11
1.17292e-07
-1.36705e-11
-1.17293e-07
1.38341e-11
-2.81372e-11
-2.29972e-11
2.11427e-11
-1.29208e-11
-3.22838e-11
3.30609e-11
1.51644e-11
4.69534e-11
4.63154e-11
2.74852e-08
-3.1988e-11
2.76367e-08
-2.7485e-08
-4.6195e-11
-4.56952e-11
-7.77933e-12
1.15048e-07
3.79159e-11
3.25279e-11
-3.71446e-11
-6.61356e-11
6.22711e-11
6.56608e-11
-6.39924e-11
-2.01859e-11
8.83826e-12
-5.68809e-12
1.16078e-07
3.47867e-11
2.16234e-11
-3.47249e-11
-4.63628e-11
6.13302e-11
4.57444e-11
-6.33485e-11
1.15042e-07
-1.34472e-11
-1.15045e-07
1.23193e-11
-3.13802e-11
-3.83767e-11
3.71885e-11
6.70329e-11
-6.16108e-11
6.34711e-11
-6.41234e-11
2.09713e-11
1.16073e-07
-1.218e-11
-1.16076e-07
1.06005e-11
-2.0806e-11
-3.52625e-11
3.81945e-11
4.67567e-11
-6.10408e-11
6.04133e-11
-4.46334e-11
4.89434e-10
-1.50769e-10
1.15286e-07
8.24032e-11
1.93211e-10
6.05537e-11
-4.96345e-11
6.16227e-11
-9.03459e-11
4.68582e-11
-1.31159e-11
-1.14999e-07
9.49152e-12
-3.16506e-11
-3.83489e-11
3.74701e-11
6.72652e-11
-6.16606e-11
-6.39574e-11
6.41733e-11
-1.29505e-10
1.16058e-07
-4.94524e-10
-1.15287e-07
1.53799e-10
-1.91638e-10
-8.33003e-11
-5.76661e-11
5.00082e-11
-6.09571e-11
8.77864e-11
-4.55409e-11
5.39656e-11
3.99025e-11
2.74895e-08
-3.65147e-11
2.7638e-08
-2.74883e-08
-5.32576e-11
-3.89445e-11
-5.68213e-10
1.69818e-10
1.17139e-07
-2.064e-11
-1.28203e-10
-1.23647e-10
-7.80487e-12
3.28979e-11
-6.21842e-12
8.4779e-12
-1.69443e-11
-1.16177e-07
1.59051e-11
-3.71218e-11
-2.6627e-11
2.0873e-11
1.14924e-11
-3.29823e-11
-8.18552e-12
3.72014e-11
1.76852e-10
1.16321e-07
5.63312e-10
-1.17139e-07
-1.66574e-10
1.27984e-10
2.03875e-11
1.20304e-10
8.04153e-12
-3.27114e-11
7.84153e-12
-7.07187e-12
-2.75064e-08
6.87557e-11
-1.72185e-10
2.72924e-11
3.06114e-11
4.75097e-11
4.60451e-11
2.749e-08
-2.76894e-11
-3.11544e-11
2.76422e-08
-2.74914e-08
-4.65109e-11
-4.542e-11
-1.40913e-11
1.17286e-07
2.12208e-11
2.92226e-11
-2.03378e-11
1.1908e-11
3.11676e-11
-1.5217e-11
-3.5659e-11
-2.71825e-11
1.77456e-11
-1.46537e-11
1.17294e-07
2.19654e-11
2.9168e-11
-2.13466e-11
1.16633e-11
3.08704e-11
-1.51352e-11
-3.56814e-11
1.17284e-07
-2.2886e-11
-1.17287e-07
2.25858e-11
-2.8058e-11
-2.2568e-11
2.03339e-11
-1.24125e-11
-3.13488e-11
3.37942e-11
1.6093e-11
2.73237e-11
1.17293e-07
-2.32554e-11
-1.17295e-07
2.46274e-11
-2.84377e-11
-2.4476e-11
2.03837e-11
-1.24705e-11
-3.13348e-11
3.38933e-11
1.59301e-11
4.70865e-11
4.65234e-11
2.74852e-08
-3.14754e-11
2.76376e-08
-2.74863e-08
-4.66962e-11
-4.57445e-11
-1.3272e-11
1.15043e-07
3.77178e-11
3.25905e-11
-3.72072e-11
-6.71599e-11
6.18966e-11
6.51452e-11
-6.46029e-11
-2.02844e-11
1.49598e-11
-1.10079e-11
1.16073e-07
3.50705e-11
2.17097e-11
-3.46172e-11
-4.73972e-11
6.06893e-11
4.49431e-11
-6.42351e-11
1.15042e-07
-2.38406e-11
-1.15044e-07
1.98054e-11
-3.14888e-11
-3.90825e-11
3.7015e-11
6.7773e-11
-6.07976e-11
6.41375e-11
-6.29105e-11
2.09409e-11
1.16074e-07
-2.32861e-11
-1.16075e-07
1.67963e-11
-2.05409e-11
-3.5928e-11
3.81047e-11
4.77073e-11
-5.99548e-11
6.08369e-11
-4.32943e-11
-3.82736e-11
1.414e-11
1.16111e-07
3.36792e-11
2.03627e-11
-3.36221e-11
-4.7653e-11
6.00998e-11
-6.42852e-11
4.57796e-11
-2.27153e-11
-1.14998e-07
1.81226e-11
-3.18349e-11
-3.90721e-11
3.7263e-11
6.78644e-11
-6.1378e-11
-6.3216e-11
6.43879e-11
4.40756e-11
1.16061e-07
3.05114e-11
-1.16113e-07
-9.40732e-12
-1.88459e-11
-3.57755e-11
3.28172e-11
4.7677e-11
-5.93779e-11
6.37453e-11
-4.38528e-11
5.43988e-11
3.96129e-11
2.74877e-08
-3.59651e-11
2.76383e-08
-2.74888e-08
-5.38238e-11
-3.87309e-11
8.95599e-11
-5.01e-11
1.16262e-07
2.58716e-11
3.96046e-11
-2.41887e-11
-1.21044e-11
3.33514e-11
-3.60901e-11
8.72761e-12
-2.70184e-11
-1.16179e-07
2.37579e-11
-3.73429e-11
-2.6967e-11
2.09936e-11
1.22201e-11
-3.21963e-11
-7.83939e-12
3.81917e-11
1.56551e-11
1.16321e-07
-9.91379e-11
-1.16263e-07
5.73841e-11
-3.95493e-11
-2.64017e-11
2.47665e-11
1.25073e-11
-3.23082e-11
3.57522e-11
-6.7724e-12
-2.75064e-08
-6.85763e-11
-2.2914e-11
2.67801e-11
3.00807e-11
4.76623e-11
4.63838e-11
2.74913e-08
-2.63874e-11
-3.00564e-11
2.7641e-08
-2.74916e-08
-4.70905e-11
-4.57943e-11
-2.48772e-11
1.17286e-07
2.2119e-11
2.95382e-11
-1.9811e-11
1.01383e-11
3.03559e-11
-1.61051e-11
-3.66867e-11
-2.70363e-11
3.03585e-11
-2.44924e-11
1.17299e-07
2.18785e-11
2.89946e-11
-2.51847e-11
1.01952e-11
2.97385e-11
-1.6308e-11
-3.45114e-11
1.17281e-07
-4.00902e-11
-1.17287e-07
4.00978e-11
-2.8692e-11
-2.4848e-11
1.9521e-11
-1.0724e-11
-2.89736e-11
3.53198e-11
1.84491e-11
2.61293e-11
1.17299e-07
-4.28606e-11
-1.17302e-07
4.02564e-11
-2.89382e-11
-2.59576e-11
1.99186e-11
-1.07081e-11
-2.84073e-11
3.57196e-11
1.82102e-11
4.6885e-11
4.65738e-11
2.74863e-08
-3.03007e-11
2.76373e-08
-2.74873e-08
-4.70794e-11
-4.64876e-11
-2.48205e-11
1.15045e-07
3.88877e-11
3.29924e-11
-3.63011e-11
-6.8232e-11
6.11853e-11
6.46968e-11
-6.58966e-11
-1.96634e-11
2.46308e-11
-2.00737e-11
1.16075e-07
3.55955e-11
2.18567e-11
-3.40184e-11
-4.88393e-11
5.99516e-11
4.43619e-11
-6.53371e-11
1.15045e-07
-4.11295e-11
-1.15049e-07
3.43605e-11
-3.19604e-11
-4.03711e-11
3.65429e-11
6.98216e-11
-5.82405e-11
6.58853e-11
-6.09205e-11
1.98642e-11
1.16078e-07
-4.00584e-11
-1.1608e-07
3.12953e-11
-2.12565e-11
-3.70596e-11
3.75359e-11
4.89988e-11
-5.81555e-11
6.21362e-11
-4.12203e-11
5.06564e-10
-1.65311e-10
1.1529e-07
8.29511e-11
1.93719e-10
6.10405e-11
-5.19521e-11
6.01188e-11
-9.2989e-11
4.52452e-11
-3.62596e-11
-1.15008e-07
3.33811e-11
-3.25296e-11
-4.07407e-11
3.67636e-11
6.92451e-11
-5.96562e-11
-6.14153e-11
6.55647e-11
-1.31215e-10
1.16059e-07
-5.18825e-10
-1.15292e-07
1.78868e-10
-1.92558e-10
-8.59458e-11
-5.86399e-11
5.24392e-11
-5.84587e-11
8.97325e-11
-4.23699e-11
5.44793e-11
4.0091e-11
2.74885e-08
-3.48426e-11
2.7638e-08
-2.74895e-08
-5.42903e-11
-3.94331e-11
-5.46746e-10
1.51324e-10
1.17143e-07
-1.97922e-11
-1.27497e-10
-1.2265e-10
-1.01613e-11
3.1294e-11
-8.82293e-12
7.13324e-12
-4.78487e-11
-1.1618e-07
4.35022e-11
-3.7973e-11
-2.9013e-11
1.99489e-11
1.41174e-11
-2.93904e-11
-5.24657e-12
3.97877e-11
1.75354e-10
1.1632e-07
5.31449e-10
-1.17143e-07
-1.39175e-10
1.27351e-10
1.84897e-11
1.19947e-10
1.07517e-11
-2.83082e-11
1.07587e-11
-3.53497e-12
-2.75074e-08
6.78882e-11
-1.72831e-10
2.63159e-11
2.9539e-11
4.76344e-11
4.69082e-11
2.74906e-08
-2.43462e-11
-2.82089e-11
2.76381e-08
-2.74911e-08
-4.78044e-11
-4.67091e-11
-4.32972e-11
1.17289e-07
2.2571e-11
2.98523e-11
-1.92797e-11
7.64631e-12
2.8936e-11
-1.72642e-11
-3.94256e-11
-2.64718e-11
5.08535e-11
-4.43857e-11
1.17309e-07
2.31625e-11
2.93737e-11
-2.05929e-11
7.03728e-12
2.8366e-11
-1.78179e-11
-3.97229e-11
1.17276e-07
-7.0556e-11
-1.17292e-07
7.14263e-11
-2.95926e-11
-2.83068e-11
1.83203e-11
-7.20101e-12
-2.46547e-11
3.90304e-11
2.26278e-11
2.44252e-11
1.17302e-07
-7.28112e-11
-1.17316e-07
7.06136e-11
-2.9385e-11
-2.85342e-11
1.98904e-11
-7.11298e-12
-2.4596e-11
3.87262e-11
2.27896e-11
4.7711e-11
4.70253e-11
2.74863e-08
-2.89746e-11
2.7637e-08
-2.7489e-08
-4.74096e-11
-4.71659e-11
-4.10983e-11
1.15052e-07
4.02084e-11
3.34378e-11
-3.52456e-11
-7.14415e-11
5.92049e-11
6.28445e-11
-6.89787e-11
-1.90852e-11
4.31309e-11
-3.68434e-11
1.16085e-07
3.66216e-11
2.22277e-11
-3.30543e-11
-5.18887e-11
5.80141e-11
4.26532e-11
-6.87683e-11
1.15042e-07
-6.63753e-11
-1.15055e-07
6.30761e-11
-3.27689e-11
-4.33924e-11
3.60205e-11
7.22127e-11
-5.49358e-11
6.87578e-11
-5.75263e-11
1.85422e-11
1.16081e-07
-6.55101e-11
-1.16092e-07
5.72138e-11
-2.10871e-11
-4.00319e-11
3.72913e-11
5.20348e-11
-5.47654e-11
6.49623e-11
-3.78391e-11
-8.47395e-12
-1.02238e-11
1.16117e-07
3.52146e-11
2.08976e-11
-3.25743e-11
-5.20773e-11
5.75187e-11
-6.86422e-11
4.31779e-11
-6.32517e-11
-1.15018e-07
5.94216e-11
-3.25973e-11
-4.31427e-11
3.62991e-11
7.23369e-11
-5.51808e-11
-5.73152e-11
6.87024e-11
4.16664e-11
1.16055e-07
-1.1295e-11
-1.16119e-07
3.31634e-11
-1.95638e-11
-3.99765e-11
3.19444e-11
5.21972e-11
-5.36557e-11
6.755e-11
-3.85714e-11
5.44955e-11
4.05469e-11
2.7489e-08
-3.29702e-11
2.76368e-08
-2.74906e-08
-5.52892e-11
-3.94662e-11
1.27642e-10
-8.13671e-11
1.16265e-07
2.73522e-11
4.05423e-11
-2.32129e-11
-1.65887e-11
3.077e-11
-4.09642e-11
5.88866e-12
-8.09609e-11
-1.16184e-07
7.53346e-11
-3.84261e-11
-3.15552e-11
1.94051e-11
1.72806e-11
-2.54821e-11
-1.05133e-12
4.28833e-11
1.26354e-11
1.16314e-07
-1.5286e-10
-1.16266e-07
1.07261e-10
-4.08372e-11
-3.06517e-11
2.3742e-11
1.7562e-11
-2.55132e-11
4.05021e-11
3.19393e-13
-2.75071e-08
-7.0032e-11
-2.37883e-11
2.48997e-11
2.76159e-11
4.8694e-11
4.74392e-11
2.74895e-08
-2.02517e-11
-2.40261e-11
2.76341e-08
-2.74926e-08
-4.88718e-11
-4.83822e-11
-7.86472e-11
1.17298e-07
2.43237e-11
3.11193e-11
-1.73451e-11
2.2819e-12
2.51222e-11
-2.11808e-11
-4.4643e-11
-2.48038e-11
8.5237e-11
-7.9784e-11
1.17324e-07
2.56928e-11
3.11303e-11
-2.17106e-11
1.54464e-12
2.4529e-11
-2.1503e-11
-4.26288e-11
1.17261e-07
-1.14669e-10
-1.17307e-07
1.31124e-10
-3.09909e-11
-3.40072e-11
1.69872e-11
-1.45378e-12
-1.67684e-11
4.43563e-11
3.10716e-11
2.07905e-11
1.17288e-07
-1.19083e-10
-1.17331e-07
1.27899e-10
-3.00387e-11
-3.41289e-11
1.84087e-11
-1.19654e-12
-1.59767e-11
4.48489e-11
3.16735e-11
4.8914e-11
4.78443e-11
2.74876e-08
-2.44631e-11
2.7633e-08
-2.74907e-08
-4.865e-11
-4.83642e-11
-7.35842e-11
1.15061e-07
4.19248e-11
3.5179e-11
-3.33745e-11
-7.64198e-11
5.62259e-11
5.93732e-11
-7.33374e-11
-1.70739e-11
7.29383e-11
-6.87321e-11
1.16098e-07
3.85399e-11
2.39644e-11
-3.0684e-11
-5.69061e-11
5.49183e-11
3.94177e-11
-7.28521e-11
1.15024e-07
-1.01617e-10
-1.15068e-07
1.18292e-10
-3.44767e-11
-4.9469e-11
3.45678e-11
7.7576e-11
-4.82474e-11
7.37486e-11
-5.02561e-11
1.46653e-11
1.1607e-07
-1.00444e-10
-1.16109e-07
1.09593e-10
-2.24099e-11
-4.5808e-11
3.60459e-11
5.71121e-11
-4.82509e-11
6.98707e-11
-3.10229e-11
5.54931e-10
-2.13092e-10
1.15299e-07
8.61484e-11
1.9571e-10
6.38135e-11
-5.98345e-11
5.51619e-11
-1.00829e-10
4.05481e-11
-9.62459e-11
-1.15035e-07
1.12015e-10
-3.42316e-11
-4.92959e-11
3.47937e-11
7.82249e-11
-4.78591e-11
-4.99531e-11
7.43432e-11
-1.35997e-10
1.16043e-07
-5.832e-10
-1.15311e-07
2.56302e-10
-1.94014e-10
-9.39742e-11
-6.04085e-11
6.05526e-11
-4.74106e-11
9.75042e-11
-3.14314e-11
5.53351e-11
4.17587e-11
2.74895e-08
-2.83918e-11
2.76346e-08
-2.74938e-08
-5.71443e-11
-4.06532e-11
-4.8638e-10
9.52916e-11
1.17151e-07
-1.68929e-11
-1.25908e-10
-1.20215e-10
-1.95449e-11
2.58998e-11
-1.70825e-11
1.7679e-12
-1.3275e-10
-1.162e-07
1.38639e-10
-4.04532e-11
-3.76366e-11
1.75239e-11
2.36381e-11
-1.72748e-11
8.10482e-12
4.86227e-11
1.69364e-10
1.16304e-07
4.4799e-10
-1.17161e-07
-4.59195e-11
1.24792e-10
9.9414e-12
1.17253e-10
1.99894e-11
-1.58406e-11
1.94393e-11
9.73311e-12
-2.75105e-08
6.56143e-11
-1.74191e-10
2.29059e-11
2.51785e-11
4.94631e-11
4.7799e-11
2.74888e-08
-1.46934e-11
-1.77504e-11
2.76266e-08
-2.74976e-08
-4.83782e-11
-4.81556e-11
-1.48455e-10
1.17323e-07
2.80868e-11
3.51347e-11
-1.22891e-11
-5.90932e-12
1.81823e-11
-2.8201e-11
-5.26793e-11
-2.34536e-11
1.33379e-10
-1.46375e-10
1.17348e-07
2.85402e-11
3.4338e-11
-1.38495e-11
-7.09909e-12
1.74194e-11
-2.88954e-11
-5.37977e-11
1.17207e-07
-1.60447e-10
-1.17351e-07
2.44579e-10
-3.45209e-11
-4.40389e-11
1.31358e-11
7.77735e-12
-2.57382e-13
5.4096e-11
4.86318e-11
1.60279e-11
1.17239e-07
-1.69628e-10
-1.17378e-07
2.39272e-10
-3.39881e-11
-4.34493e-11
1.42928e-11
8.88918e-12
1.84347e-12
5.50109e-11
5.05183e-11
4.9355e-11
4.82755e-11
2.74863e-08
-1.87419e-11
2.76258e-08
-2.74954e-08
-4.78139e-11
-4.78305e-11
-1.36356e-10
1.15081e-07
4.53996e-11
3.96447e-11
-2.80772e-11
-8.40552e-11
4.93386e-11
5.29029e-11
-8.15795e-11
-1.49826e-11
1.11652e-10
-1.29846e-10
1.16123e-07
4.21142e-11
2.76934e-11
-2.5977e-11
-6.42516e-11
4.82439e-11
3.31766e-11
-8.0983e-11
1.14968e-07
-1.34814e-10
-1.15108e-07
2.21507e-10
-3.87468e-11
-5.94135e-11
3.03485e-11
8.68816e-11
-3.31528e-11
8.35635e-11
-3.45212e-11
8.73421e-12
1.16015e-07
-1.31824e-10
-1.16151e-07
2.14294e-10
-2.62604e-11
-5.62057e-11
3.1969e-11
6.53043e-11
-3.32546e-11
7.90275e-11
-1.60437e-11
5.95127e-11
-1.05603e-10
1.1615e-07
4.10816e-11
2.63945e-11
-2.58269e-11
-6.47057e-11
4.78944e-11
-8.08543e-11
3.33882e-11
-1.24862e-10
-1.15079e-07
2.17739e-10
-3.88371e-11
-5.88221e-11
3.08603e-11
8.74809e-11
-3.29957e-11
-3.38078e-11
8.39691e-11
3.21396e-11
1.15991e-07
-8.21483e-11
-1.16178e-07
1.89744e-10
-2.48105e-11
-5.59898e-11
2.64917e-11
6.61329e-11
-3.20479e-11
8.20881e-11
-1.52973e-11
5.57049e-11
4.24692e-11
2.74902e-08
-2.26153e-11
2.7627e-08
-2.74984e-08
-5.69211e-11
-4.03156e-11
2.14469e-10
-1.89195e-10
1.163e-07
3.27666e-11
4.50173e-11
-1.68733e-11
-3.0895e-11
2.01016e-11
-5.47062e-11
-4.94419e-12
-1.89438e-10
-1.16247e-07
2.55137e-10
-4.44418e-11
-4.75133e-11
1.37049e-11
3.37376e-11
-1.73389e-13
2.6733e-11
5.92649e-11
2.92008e-12
1.16257e-07
-2.58551e-10
-1.16329e-07
2.83394e-10
-4.67017e-11
-4.5767e-11
1.81046e-11
3.35827e-11
9.91471e-14
5.67516e-11
2.81936e-11
-2.75136e-08
-7.13735e-11
-2.39929e-11
2.29492e-11
2.39087e-11
4.63802e-11
4.49367e-11
2.74884e-08
-1.78071e-11
-1.88936e-11
2.76087e-08
-2.7508e-08
-3.12393e-11
-3.28104e-11
-2.80517e-10
1.17402e-07
3.078e-11
4.54891e-11
3.14296e-13
-1.6991e-11
1.29787e-12
-4.69176e-11
-6.5063e-11
-2.36752e-11
1.68749e-10
-2.73955e-10
1.1743e-07
3.05695e-11
4.4594e-11
-5.58648e-12
-1.93481e-11
3.46298e-13
-4.80917e-11
-6.45226e-11
1.17019e-07
-1.3442e-10
-1.17492e-07
4.39693e-10
-4.50625e-11
-4.83872e-11
3.44012e-12
2.39529e-11
4.28956e-11
7.55723e-11
9.78676e-11
2.09719e-11
1.17052e-07
-1.51169e-10
-1.17515e-07
4.27016e-10
-4.42628e-11
-4.54753e-11
4.70099e-12
2.57757e-11
4.68361e-11
7.70587e-11
1.0138e-10
4.65307e-11
4.51038e-11
2.74863e-08
-1.99669e-11
2.76089e-08
-2.75061e-08
-3.03886e-11
-3.14441e-11
-2.60017e-10
1.15159e-07
4.8709e-11
5.1535e-11
-1.49626e-11
-9.39836e-11
3.41579e-11
3.49634e-11
-9.27892e-11
-1.4501e-11
1.26249e-10
-2.52516e-10
1.16199e-07
4.54325e-11
3.90823e-11
-1.26951e-11
-7.31604e-11
3.37082e-11
1.63416e-11
-9.16957e-11
1.14781e-07
-8.54571e-11
-1.15247e-07
4.04251e-10
-5.12381e-11
-6.5362e-11
2.03903e-11
1.02812e-10
6.57733e-12
1.04206e-10
1.09097e-11
9.27578e-12
1.15827e-07
-8.23558e-11
-1.16288e-07
4.02213e-10
-3.77128e-11
-6.26829e-11
2.15199e-11
8.04568e-11
4.05746e-12
9.85043e-11
2.74294e-11
6.09197e-10
-3.99966e-10
1.15406e-07
9.24804e-11
2.11666e-10
8.21064e-11
-7.70845e-11
3.29519e-11
-1.19435e-10
1.69979e-11
-7.00361e-11
-1.15218e-07
3.97597e-10
-5.1719e-11
-6.43507e-11
2.05116e-11
1.04258e-10
8.37222e-12
1.22018e-11
1.05764e-10
-1.39347e-10
1.15814e-07
-5.72979e-10
-1.15501e-07
5.4733e-10
-2.09909e-10
-1.10843e-10
-7.488e-11
8.47402e-11
6.61184e-12
1.27322e-10
2.8532e-11
5.25727e-11
3.94795e-11
2.74896e-08
-2.51945e-11
2.76089e-08
-2.75086e-08
-4.08354e-11
-2.49588e-11
-3.93708e-10
-1.06407e-10
1.17259e-07
-1.09332e-11
-1.11479e-10
-1.03596e-10
-4.04569e-11
1.14848e-12
-3.948e-11
-2.53811e-11
-1.80292e-10
-1.16384e-07
4.54693e-10
-5.54968e-11
-5.16332e-11
4.21785e-12
5.03552e-11
4.38281e-11
7.63664e-11
8.10304e-11
1.67901e-10
1.16076e-07
4.07591e-10
-1.17345e-07
2.60048e-10
1.09642e-10
-2.01842e-12
1.03987e-10
4.62125e-11
4.55548e-11
5.20082e-11
7.85727e-11
-2.75266e-08
8.30631e-11
-1.56359e-10
3.8897e-11
3.68636e-11
2.30774e-11
2.33934e-11
2.74865e-08
-1.50808e-10
-1.41125e-10
2.75679e-08
-2.75278e-08
1.30947e-10
1.20844e-10
-4.96929e-10
1.17646e-07
1.97593e-11
8.00025e-11
3.61583e-11
-2.01058e-11
-4.49692e-11
-1.00269e-10
-7.8671e-11
-4.15983e-11
3.39137e-11
-4.79893e-10
1.17668e-07
1.77581e-11
7.75456e-11
3.30981e-11
-2.4885e-11
-4.63397e-11
-1.01831e-10
-8.3014e-11
1.1627e-07
1.0096e-10
-1.17894e-07
4.71878e-10
-5.08024e-11
6.90511e-11
1.76562e-11
9.79412e-11
2.50874e-10
1.83277e-10
3.32437e-10
1.58577e-10
1.16308e-07
7.31394e-11
-1.17909e-07
4.41168e-10
-5.0222e-11
7.72806e-11
1.91586e-11
1.01018e-10
2.57027e-10
1.85268e-10
3.38367e-10
2.32274e-11
2.27394e-11
2.74838e-08
-1.43364e-10
2.75674e-08
-2.75245e-08
1.31827e-10
1.27183e-10
-4.63431e-10
1.15398e-07
3.91382e-11
8.89244e-11
2.11297e-11
-9.59698e-11
-9.54841e-12
-1.55994e-11
-1.07003e-10
-2.78397e-11
-3.76827e-11
-4.65987e-10
1.16439e-07
3.58332e-11
7.61867e-11
2.52371e-11
-7.32052e-11
-8.5964e-12
-3.25423e-11
-1.03138e-10
1.14054e-07
1.43557e-10
-1.15637e-07
4.46786e-10
-6.55765e-11
4.39016e-11
3.03528e-11
1.80905e-10
2.07719e-10
2.13969e-10
2.40161e-10
1.34594e-10
1.15082e-07
1.63575e-10
-1.16682e-07
4.56933e-10
-4.75928e-11
4.85083e-11
3.35487e-11
1.54931e-10
2.0103e-10
2.05267e-10
2.49514e-10
-8.53242e-11
-4.36975e-10
1.16481e-07
3.27706e-11
7.57124e-11
2.40417e-11
-7.46669e-11
-1.06095e-11
-1.05182e-10
-3.40391e-11
1.80815e-10
-1.15614e-07
4.3906e-10
-6.58787e-11
4.66129e-11
2.98874e-11
1.83659e-10
2.1369e-10
2.43733e-10
2.16045e-10
1.63906e-10
1.15075e-07
2.03931e-10
-1.16728e-07
4.24297e-10
-4.83942e-11
5.20227e-11
2.91383e-11
1.55814e-10
2.07167e-10
2.0972e-10
2.55118e-10
3.07143e-11
1.84794e-11
2.74868e-08
-1.4904e-10
2.75672e-08
-2.75275e-08
1.16608e-10
1.27272e-10
1.31204e-10
-5.3539e-10
1.16616e-07
2.48084e-11
9.1197e-11
3.11529e-11
-4.92997e-11
-4.43423e-11
-8.43838e-11
-7.90138e-11
2.59603e-11
-1.16767e-07
4.95418e-10
-6.39024e-11
5.83815e-11
1.54273e-11
1.27438e-10
2.52405e-10
3.12629e-10
1.8995e-10
1.33206e-10
1.1535e-07
-3.95186e-11
-1.16855e-07
5.0773e-10
-6.7928e-11
6.42635e-11
1.935e-11
1.2768e-10
2.5509e-10
1.8731e-10
3.17694e-10
-2.75456e-08
1.06698e-10
1.48628e-10
9.84905e-11
9.1902e-11
-4.7395e-11
-3.84713e-11
2.74634e-08
-6.13785e-10
1.84687e-10
2.75125e-08
-2.68743e-08
1.31358e-10
-3.40469e-10
1.58258e-10
1.17872e-07