/*--------------------------------*- C++ -*----------------------------------*\
| =========                 |                                                 |
| \\      /  F ield         | OpenFOAM: The Open Source CFD Toolbox           |
|  \\    /   O peration     | Version:  2206                                  |
|   \\  /    A nd           | Website:  www.openfoam.com                      |
|    \\/     M anipulation  |                                                 |
\*---------------------------------------------------------------------------*/
FoamFile
{
    version     2.0;
    format      ascii;
    arch        "LSB;label=32;scalar=64";
    class       volScalarField;
    location    "1";
    object      k;
}
// * * * * * * * * * * * * * * * * * * * * * * * * * * * * * * * * * * * * * //

dimensions      [0 2 -2 0 0 0 0];

internalField   nonuniform List<scalar> 
66701
(
2.66811e-05
2.47987e-05
4.18637e-05
6.19574e-05
3.46562e-05
0.000105548
9.63153e-05
3.81319e-05
2.47814e-05
4.18355e-05
6.19059e-05
3.46357e-05
0.000105523
3.81207e-05
9.62559e-05
2.66696e-05
7.73137e-06
1.82867e-06
3.19702e-07
6.55307e-08
2.85313e-07
7.76946e-06
1.8379e-06
3.21354e-07
6.55302e-08
2.83912e-07
7.93895e-06
1.85878e-06
3.22624e-07
6.32206e-08
2.64873e-07
7.93403e-06
1.85767e-06
3.22443e-07
6.31945e-08
2.64854e-07
7.72841e-06
1.82807e-06
3.19625e-07
6.55315e-08
2.85347e-07
7.76418e-06
1.83663e-06
3.21145e-07
6.54993e-08
2.83869e-07
7.97351e-06
1.87483e-06
3.26316e-07
6.50975e-08
2.77007e-07
8.26112e-06
1.94601e-06
3.38952e-07
6.6947e-08
2.82241e-07
7.96904e-06
1.87372e-06
3.26135e-07
6.50793e-08
2.76992e-07
8.25877e-06
1.94545e-06
3.38857e-07
6.69357e-08
2.82223e-07
2.68581e-05
2.66887e-05
0.000147644
6.40089e-05
6.33414e-05
4.2264e-05
0.000145486
0.000107615
0.000105573
4.18568e-05
0.000141109
0.000146089
0.000107041
0.00013063
0.000105549
4.183e-05
0.000141065
0.000146214
0.000130737
0.000106959
2.66782e-05
0.000147628
6.33507e-05
2.66373e-05
4.93152e-05
2.43731e-05
2.42734e-05
4.94198e-05
2.43349e-05
2.42298e-05
0.000101764
4.23128e-05
0.000127514
6.41418e-05
0.000101872
4.22523e-05
0.000127483
0.000100371
4.15646e-05
0.000126433
6.32166e-05
0.00010053
4.14862e-05
0.000126268
3.4566e-05
9.63329e-05
3.81101e-05
0.000105396
3.46339e-05
9.61586e-05
3.80342e-05
2.47503e-05
6.19579e-05
4.17762e-05
2.48006e-05
6.18287e-05
3.45461e-05
3.80996e-05
9.6275e-05
0.000105372
3.46141e-05
3.80235e-05
9.61001e-05
2.47333e-05
6.19078e-05
4.17486e-05
2.47838e-05
6.17778e-05
2.66264e-05
4.93434e-05
2.4235e-05
2.43809e-05
0.000100409
0.000126743
6.32244e-05
0.000126576
4.14566e-05
0.000101855
6.42265e-05
4.23415e-05
0.000127212
2.70426e-05
0.000107901
8.17446e-05
8.40914e-05
5.41181e-05
0.000107914
8.18881e-05
8.42982e-05
5.39758e-05
8.38804e-05
5.38096e-05
8.40547e-05
5.38748e-05
0.000132988
0.000147624
0.000147248
0.000146778
0.000133082
0.000147242
0.000146746
0.000145859
0.000127462
0.000140508
0.000108377
0.000140694
0.000145787
0.00012814
0.000146739
0.000137126
0.000146255
0.000141004
0.000146712
0.000137006
0.000146274
0.000145454
0.000126738
0.000140259
0.00010686
0.000140191
0.000145471
0.000126569
0.000146664
0.00014622
0.000137032
0.000140961
0.000146641
0.000146238
0.00013691
0.00014532
0.000126624
0.000140156
0.000106776
0.000145343
0.000126454
0.000140083
0.000133046
0.000147615
0.000147357
0.00014735
0.000146656
7.75736e-06
1.83495e-06
3.2081e-07
6.56894e-08
2.85745e-07
7.7333e-06
1.8291e-06
3.19774e-07
6.55472e-08
2.85391e-07
7.98008e-06
1.86842e-06
3.24273e-07
6.34263e-08
2.65311e-07
7.93828e-06
1.8587e-06
3.22617e-07
6.32316e-08
2.64966e-07
7.93362e-06
1.85766e-06
3.22449e-07
6.32077e-08
2.64955e-07
7.7305e-06
1.82854e-06
3.19704e-07
6.55492e-08
2.85429e-07
7.7252e-06
1.82777e-06
3.19561e-07
6.54351e-08
2.84623e-07
7.96095e-06
1.87255e-06
3.25944e-07
6.49554e-08
2.76115e-07
8.25675e-06
1.94504e-06
3.38796e-07
6.6948e-08
2.82367e-07
7.96881e-06
1.87382e-06
3.26156e-07
6.50977e-08
2.77127e-07
8.24822e-06
1.94367e-06
3.38574e-07
6.67992e-08
2.81303e-07
7.93108e-06
1.85764e-06
3.22454e-07
6.31287e-08
2.6424e-07
7.95658e-06
1.87147e-06
3.25766e-07
6.49378e-08
2.76102e-07
8.25454e-06
1.94452e-06
3.38706e-07
6.69377e-08
2.82352e-07
7.96453e-06
1.87276e-06
3.25982e-07
6.50809e-08
2.77118e-07
8.24596e-06
1.94313e-06
3.38482e-07
6.67883e-08
2.81286e-07
7.92627e-06
1.85656e-06
3.2228e-07
6.31036e-08
2.64223e-07
7.72237e-06
1.8272e-06
3.1949e-07
6.54368e-08
2.8466e-07
8.15431e-06
1.90427e-06
3.30073e-07
6.41933e-08
2.6706e-07
7.7844e-06
1.84192e-06
3.22023e-07
6.5767e-08
2.85367e-07
7.38295e-06
1.75009e-06
3.06876e-07
6.41809e-08
2.82822e-07
8.14281e-06
1.90063e-06
3.29426e-07
6.41946e-08
2.6763e-07
8.13687e-06
1.90007e-06
3.29358e-07
6.41183e-08
2.67047e-07
7.36571e-06
1.74606e-06
3.06241e-07
6.41252e-08
2.82703e-07
8.05935e-06
1.88225e-06
3.26357e-07
6.38335e-08
2.67081e-07
8.05131e-06
1.88095e-06
3.26149e-07
6.37193e-08
2.66295e-07
7.37627e-06
1.74893e-06
3.06643e-07
6.4052e-08
2.82126e-07
7.35863e-06
1.74487e-06
3.05998e-07
6.39852e-08
2.81956e-07
7.76199e-06
1.83677e-06
3.21177e-07
6.54262e-08
2.83183e-07
7.77189e-06
1.83859e-06
3.21481e-07
6.55591e-08
2.84048e-07
7.75681e-06
1.83552e-06
3.20971e-07
6.53959e-08
2.83144e-07
7.76678e-06
1.83736e-06
3.21279e-07
6.55295e-08
2.84012e-07
8.04717e-06
1.88003e-06
3.25999e-07
6.37141e-08
2.66319e-07
7.36089e-06
1.74529e-06
3.0604e-07
6.39999e-08
2.82005e-07
7.39065e-06
1.75215e-06
3.07111e-07
6.40904e-08
2.82193e-07
0.000139781
0.000145281
0.000101496
0.000146123
0.000144431
0.000149364
0.000105896
0.000150298
0.0001487
0.000153057
0.000110714
0.000154266
0.000152778
0.000156425
0.000115772
0.000157938
0.00015659
0.000159486
0.000120701
0.000161129
0.000159934
0.000162154
0.000125109
0.000163792
0.000162675
0.00016441
0.000128737
0.00016594
0.000164875
0.00016623
0.00013147
0.000167526
0.000166543
0.000167602
0.000133224
0.00016838
0.000167485
0.000168293
0.00013362
0.000168427
0.000167552
0.000168291
0.000132641
0.000166819
0.000165942
0.000166554
0.000128979
0.00016279
0.000161921
0.000162621
0.000123169
0.000157227
0.000156376
0.000157482
0.000116751
0.000151889
0.000151057
0.000152682
0.00011161
0.000148376
0.000147527
0.000149523
0.000108567
0.000146231
0.000145428
0.00014801
0.000145226
0.000148834
0.00014042
0.000143474
0.000143871
0.000149064
0.000149186
0.0001526
0.00014478
0.000145107
0.000148007
0.000148264
0.000149431
0.00015286
0.000145457
0.000145611
0.000148797
0.000148986
0.000146253
0.000149264
0.000149429
0.000149129
0.000152531
0.000144757
0.000147639
0.000147899
0.000152775
0.000152877
0.000155995
0.000149056
0.000149301
0.000152132
0.00015235
0.000153137
0.000156241
0.000149872
0.000150061
0.000152975
0.000153171
0.000150455
0.000153289
0.000153461
0.000152813
0.000155945
0.000148929
0.000151768
0.000151983
0.000156163
0.000156251
0.000159082
0.000153127
0.000153341
0.000156009
0.000156217
0.000156495
0.000159309
0.00015397
0.000154164
0.000156826
0.000157029
0.000154427
0.000157052
0.000157229
0.000156208
0.000159047
0.000152974
0.000155662
0.000155857
0.000159234
0.000159316
0.000161816
0.000156924
0.000157132
0.000159494
0.000159686
0.000159541
0.000161995
0.000157724
0.000157929
0.00016022
0.000160435
0.000158109
0.000160374
0.000160564
0.0001593
0.000161798
0.000156769
0.000159146
0.000159326
0.000161947
0.00016202
0.000164129
0.000160275
0.000160464
0.000162391
0.00016257
0.000162196
0.000164269
0.000160982
0.000161189
0.000163067
0.000163254
0.000161306
0.00016317
0.000163342
0.000162007
0.000164125
0.000160101
0.000162035
0.000162209
0.000164243
0.0001643
0.000166022
0.000163023
0.000163197
0.000164724
0.000164882
0.000164438
0.000166121
0.000163697
0.000163871
0.00016538
0.000165536
0.000163949
0.000165447
0.000165595
0.000164295
0.000166006
0.000162835
0.000164369
0.000164531
0.000166099
0.000166158
0.000167488
0.000165221
0.000165376
0.000166524
0.000166654
0.000166256
0.000167542
0.000165871
0.000166017
0.000167161
0.000167292
0.000166071
0.000167186
0.000167316
0.000166138
0.000167457
0.000165024
0.000166174
0.000166321
0.000167517
0.00016758
0.000168299
0.000166878
0.000166999
0.00016766
0.00016775
0.00016763
0.000168305
0.000167517
0.000167645
0.000168293
0.000168426
0.000167655
0.000168252
0.000168399
0.000167545
0.000168251
0.000166677
0.000167341
0.000167469
0.000168289
0.000168282
0.000168356
0.000167791
0.000167878
0.000167892
0.000167981
0.000168292
0.000168376
0.000168423
0.000168556
0.000168518
0.00016866
0.000168523
0.000168464
0.000168626
0.000168232
0.000168305
0.000167606
0.000167589
0.00016772
0.000168346
0.000168268
0.000167022
0.000167839
0.000167932
0.000166841
0.000166953
0.000168291
0.000167067
0.000168467
0.000168611
0.00016747
0.000167634
0.00016858
0.000167442
0.000167627
0.00016822
0.000166949
0.000167673
0.000166561
0.00016671
0.000167013
0.000166543
0.000163414
0.000166173
0.000166279
0.000163373
0.000163492
0.000166591
0.000163473
0.000166797
0.000166947
0.000163987
0.000164157
0.000166946
0.000163979
0.000164166
0.000166471
0.000163326
0.000166038
0.000163099
0.000163249
0.000163398
0.000162611
0.000158375
0.000162138
0.000162252
0.000158067
0.000158183
0.000162672
0.000158422
0.000162751
0.000162903
0.000158671
0.000158841
0.000162915
0.00015867
0.000158854
0.000162531
0.000158311
0.000162013
0.000157806
0.000157947
0.000158373
0.000157453
0.000153388
0.000156585
0.000156694
0.000152501
0.000152609
0.000157498
0.000153427
0.000157185
0.000157334
0.000153102
0.000153284
0.000157346
0.000153094
0.000153287
0.000157402
0.000153377
0.000156462
0.000152249
0.000152378
0.000153419
0.000152623
0.00014988
0.000151271
0.000151377
0.000148363
0.000148468
0.000152663
0.000149904
0.000151868
0.000152033
0.000148935
0.000149133
0.000152034
0.000148917
0.000149128
0.000152622
0.000149902
0.000151145
0.000148081
0.000148202
0.000149938
0.000149446
0.000148174
0.000147675
0.000147779
0.000146239
0.000146374
0.000149469
0.0001482
0.000148365
0.000148572
0.000146658
0.000146731
0.000148566
0.00014664
0.000146768
0.00014947
0.000148195
0.000147624
0.000145784
0.000145901
0.000148234
0.000146326
0.000147997
0.000146277
0.000146379
0.000146348
0.000147953
0.000145548
2.77261e-05
2.8368e-05
0.000144599
0.00011944
0.000111255
0.000140995
0.000112274
0.0001432
0.000120744
6.57247e-05
6.63526e-05
0.000147045
6.69484e-05
6.62058e-05
0.000113056
4.55326e-05
4.59035e-05
0.000112376
2.89722e-05
2.92261e-05
0.000110759
4.48237e-05
4.51389e-05
0.000110246
0.000101159
0.000101297
0.000100876
0.000104741
0.000104614
0.000104556
0.000104367
0.000146051
0.000112158
0.000127045
0.000147172
0.000112734
0.000128143
0.000145191
2.87155e-05
2.89352e-05
0.000147651
0.000124199
0.00011342
0.000145488
0.000146527
0.000125327
0.000114053
6.75991e-05
6.82439e-05
0.000150952
6.79594e-05
6.86864e-05
0.000115104
4.67479e-05
0.000114557
4.70266e-05
2.97851e-05
2.99743e-05
0.000112662
4.59931e-05
0.000112273
4.62081e-05
0.000105798
0.000105714
0.000105578
0.000109466
0.000109488
0.000109341
0.000109325
0.000148571
0.000114324
0.000131554
0.000151302
0.000147873
0.000114741
0.000132683
2.94778e-05
2.96338e-05
0.00015025
0.000128734
0.000115532
0.000149719
0.000149302
0.000129867
0.000116017
6.90403e-05
6.97593e-05
0.000154503
6.93027e-05
7.00601e-05
0.00011674
4.76957e-05
0.00011633
4.78861e-05
3.0423e-05
3.05617e-05
0.000114148
4.68719e-05
0.000113886
4.70055e-05
0.000110741
0.000110586
0.000110596
0.000114492
0.00011458
0.000114405
0.000114467
0.000150654
0.000116013
0.000136164
0.000155209
0.000150098
0.000116296
0.000137302
3.00574e-05
3.0161e-05
0.000152459
0.000133385
0.000117217
0.000153746
0.000151672
0.00013454
0.000117566
7.01719e-05
7.08914e-05
0.000157734
7.03365e-05
7.10953e-05
0.000118
4.8382e-05
0.000117716
4.84988e-05
3.0892e-05
3.0969e-05
0.000115286
4.75048e-05
0.000115126
4.75679e-05
0.000115853
0.00011568
0.000115752
0.000119493
0.000119603
0.000119432
0.000119524
0.000152393
0.000117296
0.000140715
0.000158782
0.000151956
0.000117461
0.000141791
3.04764e-05
3.05332e-05
0.000154299
0.000138022
0.000118504
0.000157465
0.000153675
0.000139122
0.000118741
7.09994e-05
7.17252e-05
0.000160635
7.10741e-05
7.1839e-05
0.00011892
4.88499e-05
0.000118729
4.89076e-05
3.12014e-05
3.12441e-05
0.000116131
4.79299e-05
0.000116057
4.79372e-05
0.000120797
0.00012063
0.000120726
0.00012406
0.000124174
0.000124008
0.000124112
0.000153791
0.000118232
0.000144889
0.00016184
0.000153472
0.000118305
0.000145823
3.07597e-05
3.07805e-05
0.000155789
0.000142299
0.000119466
0.000160663
0.000155309
0.000143257
0.000119619
7.15669e-05
7.2298e-05
0.000163147
7.15764e-05
7.2347e-05
0.000119617
4.91395e-05
0.000119489
4.91443e-05
3.13839e-05
3.13786e-05
0.000116746
4.8191e-05
0.000116737
4.81504e-05
0.000125204
0.000125043
0.000125145
0.0001279
0.000128005
0.000127851
0.000127951
0.000154919
0.000118907
0.000148407
0.000164374
0.00015468
0.000118916
0.00014915
3.09381e-05
3.09219e-05
0.000157018
0.000145915
0.000120184
0.000163261
0.000156637
0.000146682
0.000120275
7.19523e-05
7.26887e-05
0.000165216
7.19131e-05
7.26904e-05
0.000120101
4.9258e-05
0.000120049
4.91864e-05
3.14386e-05
3.13891e-05
0.000117183
4.8293e-05
0.000117232
4.81793e-05
0.000128824
0.000128672
0.000128771
0.000130861
0.000130951
0.00013081
0.000130904
0.000155851
0.000119401
0.000151154
0.000166387
0.000155678
0.000119349
0.000151705
3.10029e-05
3.09312e-05
0.000158056
0.000148772
0.000120728
0.000165331
0.000157758
0.000149352
0.000120763
7.21754e-05
7.29297e-05
0.000166861
7.20667e-05
7.28749e-05
0.00012025
4.91442e-05
0.000120334
4.89438e-05
3.13405e-05
3.11904e-05
0.000117299
4.81672e-05
0.000117509
4.79162e-05
0.000131535
0.000131406
0.000131494
0.000132892
0.000132927
0.000132845
0.000132905
0.000156504
0.000119641
0.00015313
0.000167815
0.000156441
0.000119454
0.000153487
3.08994e-05
3.07376e-05
0.000158815
0.000150873
0.00012106
0.00016685
0.000158641
0.000151266
0.000120965
7.215e-05
7.29462e-05
0.000168008
7.19079e-05
7.27573e-05
0.00011979
4.8682e-05
0.000120152
4.82708e-05
3.09916e-05
3.0708e-05
0.000116746
4.76818e-05
0.000117253
4.72319e-05
0.000133236
0.000133169
0.000133222
0.000133624
0.00013365
0.000133601
0.00013365
0.000156549
0.000119427
0.000154225
0.000168447
0.000156781
0.000118964
0.000154316
3.05485e-05
3.02482e-05
0.000158988
0.000152118
0.000120909
0.00016756
0.000159064
0.000152232
0.00012054
7.17491e-05
7.2576e-05
0.000168379
7.12571e-05
7.21329e-05
0.000118233
4.76754e-05
0.000119143
4.70306e-05
3.02815e-05
2.98351e-05
0.000115217
4.67101e-05
0.000116201
4.60374e-05
0.000133637
0.000133589
0.000133638
0.000133097
0.000133149
0.000133094
0.00013316
0.000155691
0.000118459
0.000154332
0.000168279
0.000156326
0.000117501
0.000154229
2.98565e-05
2.94118e-05
0.000158088
0.000152262
0.00012
0.000167398
0.000158718
0.000152156
0.00011909
7.07015e-05
7.15464e-05
0.000167999
6.98647e-05
7.07344e-05
0.00011552
4.62061e-05
0.00011683
4.54939e-05
2.92714e-05
2.88056e-05
0.00011254
4.52807e-05
0.000113977
4.45248e-05
0.000132639
0.000132569
0.000132636
0.000130069
0.000130153
0.00013008
0.000130167
0.000153005
0.00011626
0.00015296
0.00016598
0.00015446
0.000114795
0.000152163
2.88753e-05
2.8392e-05
0.000155429
0.000150902
0.000117738
0.000165094
0.000156715
0.000150094
0.000116377
6.8894e-05
6.96974e-05
0.000165437
6.78384e-05
6.86915e-05
0.000112521
4.47136e-05
0.000113824
4.41228e-05
2.82858e-05
2.79016e-05
0.000109562
4.38038e-05
0.000110985
4.31745e-05
0.000128998
0.000128911
0.000128994
0.000124685
0.000124772
0.000124714
0.0001248
0.000149167
0.000113143
0.000149073
0.000161453
0.000150954
0.000111634
0.000147732
2.78987e-05
2.75065e-05
0.000151644
0.000147035
0.000114652
0.000160575
0.000153212
0.00014568
0.000113242
6.67805e-05
6.75863e-05
0.000160958
6.58203e-05
6.66739e-05
0.000110159
4.35968e-05
0.000111113
4.32217e-05
2.7567e-05
2.73385e-05
0.000107221
4.26976e-05
0.000108281
4.22867e-05
0.000123186
0.000123107
0.000123187
0.000118183
0.000118257
0.000118221
0.000118297
0.00014545
0.000110213
0.00014341
0.00015577
0.000147029
0.00010905
0.000141868
2.71863e-05
2.69398e-05
0.000147966
0.0001414
0.000111749
0.000154913
0.000149324
0.00013983
0.000110674
6.50383e-05
6.58531e-05
0.000155768
6.43683e-05
6.52219e-05
0.000108798
4.29753e-05
0.000109335
4.27882e-05
2.71831e-05
2.70656e-05
0.000105883
4.20809e-05
0.000106503
4.18583e-05
0.000116759
0.000116711
0.00011678
0.000112394
0.000112438
0.000112393
0.00011246
0.00014285
0.000108211
0.000137625
0.000150745
0.000143889
0.00010752
0.000136285
2.68006e-05
2.66753e-05
0.00014538
0.000135629
0.000109779
0.000149897
0.000146248
0.000134248
0.000109159
6.39774e-05
6.47988e-05
0.000151422
6.35961e-05
6.44541e-05
0.000107895
4.27287e-05
0.000108474
4.27081e-05
2.70314e-05
2.70273e-05
0.000105338
4.18419e-05
0.000105655
4.17271e-05
0.000111644
0.000111658
0.000111723
0.00010938
0.000109456
0.00010799
0.000108046
0.000141534
0.000107224
0.000133483
0.00014758
0.000142053
0.000106875
0.000132317
2.66594e-05
2.65968e-05
0.000144073
0.000131408
0.000108808
0.000146733
0.000144475
0.000130422
0.000108526
6.35122e-05
6.43337e-05
0.000148897
6.33148e-05
6.41691e-05
2.67771e-05
4.21937e-05
0.000106246
0.000108644
0.00010695
0.000106999
0.000107757
0.000130014
0.000141629
2.67936e-05
0.000128838
0.000109063
0.000143748
6.39739e-05
6.46453e-05
6.59579e-05
6.66819e-05
0.000146617
6.77866e-05
6.74258e-05
2.80551e-05
2.852e-05
2.85075e-05
2.84003e-05
0.000146988
6.71412e-05
6.79917e-05
6.79264e-05
6.72719e-05
2.88387e-05
2.86736e-05
0.000144602
0.000119775
0.00011074
0.000141637
0.000111565
0.0001432
0.000120805
0.000110686
4.43089e-05
4.4859e-05
0.000109889
0.00011068
4.40659e-05
4.45185e-05
0.000109886
0.000144937
0.000141978
0.000122991
0.000112901
0.000112699
0.000146192
0.000121531
0.000144943
0.000142665
0.000122968
0.000112846
0.000112123
0.000146194
0.000121919
0.000111178
4.52563e-05
4.51257e-05
0.000111899
0.000111175
4.52331e-05
4.48303e-05
0.000111893
2.76665e-05
2.79717e-05
2.79885e-05
2.8297e-05
0.000147363
6.7173e-05
6.7825e-05
6.73645e-05
6.6705e-05
2.84636e-05
2.82056e-05
2.87835e-05
2.84921e-05
2.90147e-05
2.92617e-05
2.87267e-05
2.89452e-05
6.84111e-05
6.75625e-05
0.000150781
6.88197e-05
6.79191e-05
2.96501e-05
2.94329e-05
2.93185e-05
2.91321e-05
0.000151069
6.95257e-05
6.86066e-05
6.91817e-05
6.83109e-05
0.000113047
4.55032e-05
4.58715e-05
0.000112366
0.000147647
0.000113361
0.000124009
0.000145869
0.000114
0.000125102
0.000146497
0.000147641
0.000113334
0.00012391
0.000146166
0.000113987
0.000125021
0.00014649
0.000113514
4.64977e-05
4.61756e-05
0.000114131
0.000113507
4.6469e-05
4.61442e-05
0.000114123
0.000147964
0.000146952
0.00011505
0.000127355
0.000114481
0.000126228
0.000149019
0.000147958
0.000147227
0.000115054
0.000127302
0.000114474
0.00012616
0.000149015
6.82649e-05
6.75729e-05
0.000151037
6.86864e-05
6.79547e-05
2.86671e-05
2.89021e-05
2.96248e-05
2.94008e-05
0.000151327
6.94163e-05
6.86854e-05
6.90566e-05
6.83633e-05
2.93003e-05
2.90967e-05
0.000145891
0.000112268
0.000127274
0.000146585
0.000112789
0.000128317
0.000145044
0.000110736
4.47959e-05
4.51118e-05
0.000110222
0.000145862
0.000127353
0.000112197
0.000146751
0.000128398
0.00011272
0.000145013
0.000111306
4.57098e-05
4.54503e-05
0.000111763
0.000146419
0.000147708
0.000113788
0.000130478
0.000113328
0.000129394
0.000147201
0.000111284
4.56829e-05
4.54232e-05
0.000111743
0.000146392
0.000147886
0.000130558
0.000113721
0.000129473
0.00011326
0.000147174
0.000110597
4.47316e-05
4.50576e-05
0.000110016
0.000146034
0.000127146
0.000112111
0.000147318
0.000128249
0.000112679
0.000145172
0.000110582
4.47181e-05
4.50391e-05
0.00011
0.000146586
0.000148238
0.000113801
0.000130405
0.000113302
0.000129285
0.000147371
0.000111178
4.56593e-05
4.53787e-05
0.000111682
0.00014657
0.000148385
0.000130498
0.000113734
0.000129374
0.000113241
0.000147352
0.000111164
4.56358e-05
4.53586e-05
0.00011167
6.75804e-05
6.83958e-05
0.000150716
6.79376e-05
6.88052e-05
2.90256e-05
2.92737e-05
2.9307e-05
2.91218e-05
0.000151005
6.86214e-05
6.95087e-05
6.83292e-05
6.91685e-05
2.9661e-05
2.94446e-05
0.000147653
0.000124177
0.000113369
0.000145799
0.000146522
0.000125333
0.000114018
0.000113071
4.55557e-05
0.00011241
4.59256e-05
0.000113066
4.55235e-05
0.000112403
4.58872e-05
0.000147963
0.000146584
0.000127583
0.000115091
0.000126465
0.000114531
0.000149007
0.000147964
0.000146857
0.000127599
0.000115083
0.000126468
0.000114506
0.000149008
0.000113521
4.65168e-05
4.61973e-05
0.00011412
0.000113517
4.64833e-05
4.61604e-05
0.000114117
2.86693e-05
2.88933e-05
2.89765e-05
2.92363e-05
0.000151244
6.86699e-05
6.94235e-05
6.83588e-05
6.90624e-05
2.92809e-05
2.90842e-05
2.96401e-05
2.94141e-05
2.98091e-05
2.99981e-05
2.94902e-05
2.96471e-05
6.98582e-05
6.89672e-05
0.00015434
7.0153e-05
6.92096e-05
3.0302e-05
3.0142e-05
2.9933e-05
2.98029e-05
0.000154605
7.0703e-05
6.97329e-05
7.04564e-05
6.95399e-05
0.000115098
4.67216e-05
0.00011455
4.70053e-05
0.000150276
0.000115495
0.000128497
0.000150096
0.000149313
0.000115991
0.00012965
0.000150272
0.000115506
0.000128454
0.000150329
0.000149308
0.000116014
0.000129618
0.000115497
4.749e-05
4.7256e-05
0.000115973
0.000115491
4.74778e-05
4.72391e-05
0.000115968
0.000150556
0.000151128
0.000116827
0.000131993
0.000116401
0.000130823
0.000151427
0.000150552
0.000151352
0.000116865
0.000131977
0.000116429
0.000130799
0.000151426
6.97545e-05
6.90605e-05
0.000154594
7.00643e-05
6.93212e-05
2.94799e-05
2.96589e-05
3.02893e-05
3.01212e-05
0.000154858
7.06251e-05
6.98863e-05
7.03579e-05
6.96805e-05
2.99612e-05
2.98211e-05
0.000148404
0.000114289
0.000131577
0.000150928
0.000147699
0.000114678
0.00013269
0.000112645
4.59669e-05
0.000112254
4.61814e-05
0.000148375
0.000131657
0.000114222
0.000151117
0.000147672
0.000132772
0.000114612
0.000113132
4.66383e-05
4.64662e-05
0.000113455
0.000148867
0.000151969
0.000115461
0.000134953
0.000115138
0.000133822
0.000149489
0.000113115
4.6612e-05
4.64397e-05
0.000113438
0.000148838
0.000152157
0.000135036
0.000115395
0.000133904
0.000115072
0.000149459
0.000112646
4.5956e-05
0.000112217
4.61947e-05
0.000148554
0.000131633
0.000114253
0.000151471
0.000147852
0.000132776
0.000114671
0.000112634
4.59316e-05
0.000112205
4.61676e-05
0.000149036
0.000152318
0.000115573
0.000135
0.000115223
0.000133853
0.000149663
0.000113137
4.66603e-05
4.64658e-05
0.000113492
0.000149018
0.000152477
0.000135087
0.000115497
0.000133935
0.000115148
0.000149641
0.000113126
4.66319e-05
4.64387e-05
0.000113482
6.89805e-05
6.98386e-05
0.000154276
6.92186e-05
7.01278e-05
2.98175e-05
3.00044e-05
2.99177e-05
2.97889e-05
0.00015455
6.97372e-05
7.067e-05
6.95476e-05
7.04286e-05
3.03046e-05
3.01465e-05
0.000150259
0.000128743
0.000115533
0.000149954
0.000149299
0.000129897
0.000116035
0.000115076
4.67656e-05
0.000114539
4.70397e-05
0.000115073
4.67359e-05
0.000114536
4.7016e-05
0.000150531
0.000150763
0.000132204
0.000116843
0.000131046
0.000116423
0.000151404
0.000150539
0.000150975
0.000132238
0.000116879
0.00013107
0.000116449
0.000151414
0.000115464
4.74968e-05
4.72669e-05
0.000115935
0.000115462
4.74836e-05
4.72477e-05
0.000115934
2.94591e-05
2.96279e-05
2.98011e-05
2.99938e-05
0.000154774
6.98584e-05
7.06149e-05
6.96454e-05
7.03654e-05
2.99335e-05
2.97911e-05
3.03014e-05
3.01393e-05
3.04314e-05
3.05635e-05
3.00736e-05
3.01781e-05
7.09801e-05
7.00362e-05
0.000157575
7.11818e-05
7.01856e-05
3.07825e-05
3.0678e-05
3.03844e-05
3.03042e-05
0.000157821
7.15884e-05
7.05731e-05
7.1432e-05
7.04644e-05
0.000116737
4.7688e-05
0.000116327
4.78816e-05
0.000152479
0.000117205
0.000133169
0.000154111
0.00015169
0.000117564
0.000134346
0.00015248
0.00011725
0.000133159
0.000154321
0.000151688
0.000117619
0.000134344
0.000117069
4.82218e-05
4.80688e-05
0.000117419
0.000117067
4.82248e-05
4.80688e-05
0.000117417
0.000152734
0.000155075
0.000118202
0.00013669
0.000117904
0.000135527
0.000153437
0.000152734
0.000155285
0.000118271
0.000136697
0.000117966
0.000135529
0.00015344
7.09142e-05
7.01988e-05
0.000157813
7.11313e-05
7.03637e-05
3.01071e-05
3.02216e-05
3.07895e-05
3.06806e-05
0.000158058
7.15562e-05
7.07726e-05
7.13899e-05
7.06514e-05
3.0441e-05
3.03521e-05
0.000150475
0.000115885
0.000136087
0.000154948
0.000149919
0.00011615
0.000137224
0.000114132
4.68463e-05
0.00011387
4.69794e-05
0.000150443
0.00013617
0.000115819
0.00015514
0.00014989
0.000137309
0.000116084
0.000114546
4.73141e-05
4.72175e-05
0.000114757
0.00015088
0.000155907
0.000116757
0.000139484
0.000116543
0.000138363
0.000151382
0.00011453
4.72877e-05
4.71912e-05
0.000114741
0.000150848
0.000156098
0.00013957
0.00011669
0.000138447
0.000116477
0.00015135
0.000114232
4.69056e-05
0.000113942
4.70568e-05
0.000150633
0.000136241
0.000115935
0.00015538
0.000150074
0.000137392
0.000116221
0.000114221
4.68777e-05
0.000113932
4.70283e-05
0.000151063
0.000156154
0.000116926
0.000139589
0.0001167
0.000138464
0.000151569
0.000114645
4.73879e-05
4.72773e-05
0.000114874
0.000151041
0.000156317
0.000139677
0.000116848
0.000138546
0.000116623
0.000151542
0.000114634
4.73597e-05
4.72496e-05
0.000114862
7.00394e-05
7.0944e-05
0.000157535
7.01851e-05
7.1141e-05
3.04324e-05
3.05618e-05
3.0365e-05
3.02862e-05
0.00015779
7.05667e-05
7.15402e-05
7.04624e-05
7.13887e-05
3.07771e-05
3.06749e-05
0.000152474
0.00013341
0.00011726
0.000153954
0.000151679
0.000134583
0.000117621
0.000116701
4.77008e-05
0.000116291
4.78874e-05
0.000116702
4.7692e-05
0.000116291
4.78833e-05
0.000152717
0.000154727
0.000136871
0.000118199
0.000135725
0.000117904
0.000153429
0.000152731
0.000154918
0.000136912
0.000118263
0.000135757
0.000117964
0.000153442
0.00011703
4.82198e-05
4.80694e-05
0.000117382
0.000117032
4.82233e-05
4.8069e-05
0.000117385
3.00805e-05
3.01947e-05
3.04319e-05
3.05643e-05
0.000157986
7.07403e-05
7.15025e-05
7.06228e-05
7.13455e-05
3.0413e-05
3.03257e-05
3.07846e-05
3.06799e-05
3.08822e-05
3.09626e-05
3.04968e-05
3.05547e-05
7.1812e-05
7.08287e-05
0.000160499
7.19262e-05
7.09001e-05
3.11087e-05
3.1049e-05
3.0693e-05
3.06547e-05
0.000160721
7.22064e-05
7.11743e-05
7.21271e-05
7.11354e-05
0.000117998
4.83892e-05
0.000117714
4.85078e-05
0.0001543
0.000118508
0.000137837
0.000157819
0.000153677
0.00011875
0.000138961
0.000154304
0.000118582
0.000137849
0.000158022
0.000153679
0.00011883
0.000138977
0.000118261
4.87263e-05
4.86395e-05
0.000118493
0.00011826
4.87408e-05
4.86527e-05
0.000118491
0.00015453
0.000158681
0.000119221
0.000141126
0.000119026
0.000140064
0.000155076
0.000154533
0.000158876
0.000119304
0.000141148
0.000119106
0.000140082
0.000155081
7.17832e-05
7.10341e-05
0.000160707
7.19056e-05
7.11085e-05
3.05569e-05
3.0627e-05
3.11236e-05
3.10587e-05
0.000160923
7.21852e-05
7.1389e-05
7.2093e-05
7.13583e-05
3.07637e-05
3.07271e-05
0.000152221
0.000117121
0.000140592
0.000158595
0.00015177
0.000117286
0.000141678
0.000115269
4.74786e-05
0.000115109
4.75418e-05
0.000152186
0.000140678
0.000117053
0.0001588
0.000151737
0.000141766
0.000117215
0.000115626
4.77739e-05
4.77402e-05
0.000115741
0.000152583
0.000159432
0.000117742
0.000143768
0.000117621
0.000142743
0.000152966
0.000115608
4.77489e-05
4.77144e-05
0.000115722
0.000152547
0.000159638
0.000143857
0.000117667
0.00014283
0.000117549
0.000152928
0.000115423
4.75851e-05
0.000115252
4.76579e-05
0.000152366
0.000140793
0.000117215
0.000158961
0.000151927
0.000141883
0.000117382
0.00011541
4.75577e-05
0.000115239
4.76302e-05
0.000152751
0.000159606
0.000117921
0.000143889
0.000117802
0.00014287
0.000153133
0.000115767
4.78723e-05
4.78336e-05
0.000115887
0.000152724
0.00015978
0.000143979
0.000117836
0.000142952
0.000117718
0.000153101
0.000115754
4.78468e-05
4.78073e-05
0.000115873
7.08204e-05
7.17609e-05
0.000160473
7.08868e-05
7.18699e-05
3.08755e-05
3.09536e-05
3.06706e-05
3.06327e-05
0.0001607
7.11549e-05
7.21429e-05
7.11202e-05
7.20682e-05
3.10966e-05
3.1039e-05
0.000154315
0.000138052
0.000118572
0.000157655
0.000153684
0.000139168
0.000118815
0.000117972
4.83803e-05
0.000117681
4.84959e-05
0.000117976
4.83869e-05
0.000117684
4.85057e-05
0.000154534
0.000158334
0.000141272
0.000119214
0.000140227
0.000119018
0.000155087
0.000154548
0.000158508
0.000141315
0.000119292
0.000140261
0.000119094
0.000155101
0.000118236
4.87239e-05
4.86375e-05
0.000118472
0.00011824
4.87384e-05
4.86501e-05
0.000118477
3.05286e-05
3.0591e-05
3.08853e-05
3.09655e-05
0.000160858
7.13497e-05
7.2117e-05
7.13106e-05
7.20388e-05
3.07339e-05
3.06931e-05
3.11118e-05
3.10528e-05
3.11834e-05
3.12237e-05
3.0782e-05
3.08025e-05
7.23879e-05
7.13916e-05
0.000163027
7.24377e-05
7.14031e-05
3.13105e-05
3.12882e-05
3.08854e-05
3.08823e-05
0.000163215
7.26286e-05
7.15934e-05
7.26038e-05
7.16059e-05
0.000118919
4.88665e-05
0.000118727
4.89245e-05
0.000155771
0.000119472
0.000142151
0.000161025
0.000155291
0.000119627
0.000143135
0.000155775
0.000119558
0.000142174
0.000161211
0.000155294
0.000119714
0.000143163
0.000119133
4.90462e-05
4.90148e-05
0.000119293
0.000119132
4.90625e-05
4.90319e-05
0.00011929
0.000155979
0.000161732
0.000119976
0.000144968
0.000119855
0.000144079
0.000156401
0.000155983
0.000161915
0.000120063
0.000144999
0.000119943
0.000144107
0.000156406
7.23741e-05
7.16033e-05
0.000163187
7.24298e-05
7.16105e-05
3.08514e-05
3.0871e-05
3.13316e-05
3.13088e-05
0.000163373
7.26211e-05
7.17942e-05
7.25969e-05
7.1811e-05
3.09509e-05
3.09494e-05
0.000153643
0.000118054
0.000144755
0.000161716
0.000153304
0.000118138
0.000145703
0.000116112
4.79053e-05
0.000116037
4.79141e-05
0.000153601
0.000144843
0.000117978
0.000161912
0.000153265
0.000145793
0.00011806
0.000116423
4.8063e-05
4.80786e-05
0.000116462
0.00015396
0.000162414
0.000118482
0.000147469
0.00011843
0.000146612
0.000154248
0.000116403
4.80409e-05
4.8056e-05
0.000116441
0.000153918
0.000162601
0.000147557
0.000118402
0.0001467
0.000118352
0.000154205
0.000116278
4.80287e-05
0.000116203
4.80371e-05
0.00015376
0.00014497
0.000118145
0.00016202
0.000153435
0.000145919
0.000118223
0.000116263
4.80052e-05
0.000116189
4.80151e-05
0.000154102
0.000162532
0.000118636
0.00014759
0.000118593
0.000146743
0.000154386
0.000116569
4.81596e-05
4.81771e-05
0.000116605