/*--------------------------------*- C++ -*----------------------------------*\
| =========                 |                                                 |
| \\      /  F ield         | OpenFOAM: The Open Source CFD Toolbox           |
|  \\    /   O peration     | Version:  2206                                  |
|   \\  /    A nd           | Website:  www.openfoam.com                      |
|    \\/     M anipulation  |                                                 |
\*---------------------------------------------------------------------------*/
FoamFile
{
    version     2.0;
    format      ascii;
    arch        "LSB;label=32;scalar=64";
    class       volScalarField;
    location    "1";
    object      nut;
}
// * * * * * * * * * * * * * * * * * * * * * * * * * * * * * * * * * * * * * //

dimensions      [0 2 -1 0 0 0 0];

internalField   nonuniform List<scalar> 
66701
(
6.65664e-08
5.84662e-08
1.415e-07
2.9227e-07
1.05671e-07
5.95715e-07
5.05858e-07
1.24214e-07
5.84268e-08
1.41399e-07
2.92022e-07
1.05606e-07
5.95587e-07
1.24177e-07
5.05576e-07
6.65418e-08
1.06456e-08
1.12813e-09
7.08396e-11
3.81691e-12
2.44042e-12
1.07248e-08
1.1343e-09
7.12415e-11
3.81921e-12
2.42993e-12
1.06956e-08
1.14224e-09
7.14148e-11
3.68293e-12
2.2677e-12
1.06889e-08
1.14156e-09
7.13751e-11
3.68136e-12
2.26731e-12
1.06419e-08
1.12783e-09
7.08281e-11
3.81749e-12
2.44112e-12
1.07178e-08
1.13353e-09
7.11948e-11
3.81737e-12
2.4293e-12
1.08717e-08
1.15439e-09
7.23078e-11
3.79493e-12
2.37262e-12
1.124e-08
1.19866e-09
7.51421e-11
3.90397e-12
2.41797e-12
1.08659e-08
1.15372e-09
7.2268e-11
3.79401e-12
2.37257e-12
1.12369e-08
1.19833e-09
7.51219e-11
3.90336e-12
2.41784e-12
6.70936e-08
6.6587e-08
2.43474e-06
3.20396e-07
3.15657e-07
1.43094e-07
2.29376e-06
6.29516e-07
5.95779e-07
1.41479e-07
1.2647e-06
2.28591e-06
6.20745e-07
2.63362e-06
5.95658e-07
1.41385e-07
1.26483e-06
2.28157e-06
2.63339e-06
6.20545e-07
6.65654e-08
2.42889e-06
3.15773e-07
6.64837e-08
2.01587e-07
5.99411e-08
5.96102e-08
2.02081e-07
5.98734e-08
5.95223e-08
5.4161e-07
1.4089e-07
9.01695e-07
3.21613e-07
5.402e-07
1.40712e-07
9.01723e-07
5.39569e-07
1.37719e-07
8.88979e-07
3.14728e-07
5.37821e-07
1.37492e-07
8.87989e-07
1.05436e-07
5.05881e-07
1.24159e-07
5.98831e-07
1.05616e-07
5.08503e-07
1.23941e-07
5.83832e-08
2.92312e-07
1.41237e-07
5.84775e-08
2.91597e-07
1.05373e-07
1.24124e-07
5.05604e-07
5.98703e-07
1.05553e-07
1.23905e-07
5.08228e-07
5.83447e-08
2.92074e-07
1.41139e-07
5.84395e-08
2.91354e-07
6.64611e-08
2.01757e-07
5.95381e-08
5.99782e-08
5.40293e-07
8.89977e-07
3.14836e-07
8.88794e-07
1.37406e-07
5.42045e-07
3.22822e-07
1.4095e-07
9.02394e-07
6.77203e-08
3.00703e-06
3.30584e-06
3.22982e-06
3.01155e-06
3.00497e-06
3.30534e-06
3.23459e-06
3.00531e-06
3.21712e-06
2.99881e-06
3.22116e-06
3.00226e-06
1.02657e-06
2.37601e-06
1.42597e-06
1.42607e-06
1.03027e-06
1.41016e-06
1.40386e-06
1.70723e-06
9.101e-07
1.23997e-06
6.36911e-07
1.23922e-06
1.6995e-06
9.1582e-07
1.76335e-06
1.14453e-06
1.99164e-06
1.26008e-06
1.79358e-06
1.14097e-06
1.94984e-06
1.65801e-06
8.94148e-07
1.22453e-06
6.22578e-07
1.21143e-06
1.68336e-06
8.93245e-07
1.76605e-06
1.99579e-06
1.14448e-06
1.2602e-06
1.79645e-06
1.95394e-06
1.14093e-06
1.66146e-06
8.93799e-07
1.22908e-06
6.22357e-07
1.68684e-06
8.92943e-07
1.21592e-06
1.02819e-06
2.36867e-06
1.41658e-06
1.39536e-06
1.41967e-06
1.06756e-08
1.13172e-09
7.10805e-11
3.82621e-12
2.44411e-12
1.06482e-08
1.12839e-09
7.08552e-11
3.81787e-12
2.44109e-12
1.07468e-08
1.14805e-09
7.17771e-11
3.69472e-12
2.27123e-12
1.06947e-08
1.14218e-09
7.14129e-11
3.68357e-12
2.2685e-12
1.06884e-08
1.14155e-09
7.1376e-11
3.68213e-12
2.26818e-12
1.06448e-08
1.1281e-09
7.08451e-11
3.81852e-12
2.44183e-12
1.06395e-08
1.12762e-09
7.08076e-11
3.81135e-12
2.43452e-12
1.08573e-08
1.15307e-09
7.2226e-11
3.78665e-12
2.36498e-12
1.1234e-08
1.19805e-09
7.5107e-11
3.90402e-12
2.41905e-12
1.08654e-08
1.15377e-09
7.2272e-11
3.79493e-12
2.37365e-12
1.12252e-08
1.1973e-09
7.5059e-11
3.89535e-12
2.40993e-12
1.0688e-08
1.14164e-09
7.13788e-11
3.67759e-12
2.26228e-12
1.08516e-08
1.15241e-09
7.21871e-11
3.78577e-12
2.36495e-12
1.12311e-08
1.19774e-09
7.5088e-11
3.90347e-12
2.41895e-12
1.08598e-08
1.15312e-09
7.22338e-11
3.7941e-12
2.37365e-12
1.12222e-08
1.19698e-09
7.50394e-11
3.89477e-12
2.40982e-12
1.06814e-08
1.14099e-09
7.13405e-11
3.67608e-12
2.26192e-12
1.06361e-08
1.12733e-09
7.07973e-11
3.81198e-12
2.43525e-12
1.10013e-08
1.17049e-09
7.30802e-11
3.74056e-12
2.28728e-12
1.07099e-08
1.13596e-09
7.13541e-11
3.83135e-12
2.44152e-12
1.02292e-08
1.08353e-09
6.82024e-11
3.74999e-12
2.41933e-12
1.09852e-08
1.16818e-09
7.29321e-11
3.74054e-12
2.29182e-12
1.09787e-08
1.16791e-09
7.29182e-11
3.73611e-12
2.28682e-12
1.02081e-08
1.08137e-09
6.80883e-11
3.74848e-12
2.4179e-12
1.08761e-08
1.1569e-09
7.22522e-11
3.71906e-12
2.28675e-12
1.08678e-08
1.15618e-09
7.22071e-11
3.71241e-12
2.28001e-12
1.02221e-08
1.0828e-09
6.8135e-11
3.7407e-12
2.41337e-12
1.02005e-08
1.08059e-09
6.80154e-11
3.73821e-12
2.41152e-12
1.07172e-08
1.13366e-09
7.12029e-11
3.81316e-12
2.42369e-12
1.07283e-08
1.13472e-09
7.12695e-11
3.8209e-12
2.43109e-12
1.07103e-08
1.13291e-09
7.11568e-11
3.81136e-12
2.42309e-12
1.07216e-08
1.13399e-09
7.12243e-11
3.81914e-12
2.43052e-12
1.08626e-08
1.15565e-09
7.21766e-11
3.71241e-12
2.28057e-12
1.02029e-08
1.08074e-09
6.80169e-11
3.73887e-12
2.412e-12
1.02401e-08
1.08446e-09
6.82146e-11
3.74137e-12
2.41389e-12
2.07975e-06
2.25885e-06
2.61799e-06
2.17592e-06
2.1856e-06
2.37532e-06
2.78016e-06
2.28898e-06
2.29984e-06
2.49046e-06
2.96622e-06
2.40294e-06
2.41696e-06
2.60195e-06
3.17223e-06
2.51261e-06
2.53073e-06
2.70449e-06
3.38658e-06
2.61058e-06
2.63318e-06
2.79157e-06
3.59196e-06
2.69135e-06
2.71764e-06
2.85999e-06
3.77214e-06
2.75179e-06
2.78118e-06
2.90724e-06
3.91402e-06
2.7894e-06
2.82195e-06
2.9325e-06
4.00602e-06
2.8011e-06
2.83674e-06
2.93339e-06
4.03477e-06
2.7895e-06
2.82575e-06
2.91348e-06
4.00285e-06
2.74114e-06
2.77677e-06
2.85568e-06
3.86599e-06
2.64618e-06
2.68014e-06
2.75634e-06
3.64071e-06
2.52429e-06
2.55624e-06
2.63918e-06
3.3856e-06
2.41164e-06
2.44138e-06
2.53647e-06
3.17404e-06
2.33789e-06
2.36589e-06
2.47131e-06
3.04078e-06
2.31205e-06
2.33055e-06
2.46318e-06
2.23888e-06
2.29546e-06
2.07811e-06
2.16748e-06
2.16364e-06
2.30556e-06
2.36556e-06
2.41347e-06
2.18233e-06
2.18565e-06
2.26817e-06
2.2713e-06
2.37522e-06
2.41996e-06
2.16361e-06
2.15939e-06
2.25014e-06
2.24672e-06
2.17129e-06
2.26042e-06
2.2565e-06
2.3648e-06
2.41205e-06
2.18879e-06
2.27073e-06
2.27375e-06
2.41889e-06
2.48433e-06
2.52468e-06
2.29714e-06
2.3003e-06
2.38506e-06
2.38778e-06
2.49094e-06
2.53033e-06
2.2791e-06
2.27574e-06
2.36623e-06
2.36291e-06
2.28499e-06
2.37449e-06
2.37069e-06
2.48347e-06
2.52343e-06
2.30258e-06
2.38754e-06
2.39015e-06
2.52926e-06
2.59672e-06
2.62758e-06
2.41427e-06
2.41697e-06
2.50012e-06
2.50269e-06
2.60277e-06
2.63304e-06
2.39494e-06
2.39157e-06
2.47889e-06
2.47558e-06
2.39898e-06
2.48589e-06
2.48213e-06
2.59608e-06
2.62635e-06
2.4193e-06
2.50286e-06
2.50518e-06
2.63154e-06
2.69969e-06
2.71673e-06
2.52776e-06
2.53033e-06
2.60614e-06
2.60836e-06
2.70502e-06
2.72128e-06
2.50576e-06
2.5025e-06
2.58143e-06
2.57825e-06
2.50875e-06
2.58743e-06
2.58376e-06
2.69927e-06
2.71539e-06
2.53279e-06
2.60893e-06
2.61096e-06
2.71987e-06
2.78791e-06
2.78703e-06
2.63028e-06
2.63244e-06
2.69537e-06
2.69732e-06
2.79271e-06
2.79113e-06
2.60468e-06
2.60137e-06
2.66761e-06
2.66401e-06
2.60673e-06
2.67282e-06
2.66893e-06
2.78711e-06
2.78614e-06
2.63498e-06
2.69821e-06
2.70004e-06
2.79003e-06
2.85661e-06
2.83611e-06
2.71454e-06
2.71641e-06
2.76378e-06
2.76534e-06
2.86018e-06
2.83941e-06
2.68621e-06
2.68248e-06
2.73386e-06
2.73e-06
2.68726e-06
2.73856e-06
2.73445e-06
2.85614e-06
2.8362e-06
2.71924e-06
2.76721e-06
2.76877e-06
2.83952e-06
2.90355e-06
2.8638e-06
2.77753e-06
2.77901e-06
2.80992e-06
2.81089e-06
2.90665e-06
2.86616e-06
2.74706e-06
2.74312e-06
2.77816e-06
2.77407e-06
2.7475e-06
2.78207e-06
2.77785e-06
2.90397e-06
2.86482e-06
2.78249e-06
2.81375e-06
2.81491e-06
2.86732e-06
2.92868e-06
2.8676e-06
2.81779e-06
2.81855e-06
2.83077e-06
2.83082e-06
2.93041e-06
2.86863e-06
2.78574e-06
2.78166e-06
2.79792e-06
2.79402e-06
2.78515e-06
2.80039e-06
2.79665e-06
2.93007e-06
2.86927e-06
2.82283e-06
2.83549e-06
2.83612e-06
2.87113e-06
2.92911e-06
2.84985e-06
2.83178e-06
2.83171e-06
2.82481e-06
2.82463e-06
2.92995e-06
2.85095e-06
2.79874e-06
2.79492e-06
2.79157e-06
2.78782e-06
2.79739e-06
2.79355e-06
2.79008e-06
2.93114e-06
2.85173e-06
2.83719e-06
2.82995e-06
2.83045e-06
2.85344e-06
2.90896e-06
2.80067e-06
2.82047e-06
2.82035e-06
2.78755e-06
2.78776e-06
2.90975e-06
2.80193e-06
2.7872e-06
2.78356e-06
2.7547e-06
2.75127e-06
2.78585e-06
2.75694e-06
2.75388e-06
2.91127e-06
2.80196e-06
2.82606e-06
2.7929e-06
2.79365e-06
2.8039e-06
2.85177e-06
2.70786e-06
2.7708e-06
2.77097e-06
2.70145e-06
2.70178e-06
2.85295e-06
2.70937e-06
2.73806e-06
2.73456e-06
2.66977e-06
2.66648e-06
2.73725e-06
2.67218e-06
2.66917e-06
2.85339e-06
2.70861e-06
2.77664e-06
2.70676e-06
2.70755e-06
2.71058e-06
2.75272e-06
2.59253e-06
2.67425e-06
2.67452e-06
2.58102e-06
2.58132e-06
2.75396e-06
2.59358e-06
2.64289e-06
2.63961e-06
2.55141e-06
2.54821e-06
2.64232e-06
2.55368e-06
2.55072e-06
2.75403e-06
2.59341e-06
2.67998e-06
2.58639e-06
2.58706e-06
2.59512e-06
2.63529e-06
2.48716e-06
2.55068e-06
2.55094e-06
2.45977e-06
2.45992e-06
2.63616e-06
2.48818e-06
2.52128e-06
2.51823e-06
2.43252e-06
2.42955e-06
2.52073e-06
2.43447e-06
2.43169e-06
2.63716e-06
2.48792e-06
2.55602e-06
2.46505e-06
2.46555e-06
2.48928e-06
2.53193e-06
2.41986e-06
2.43675e-06
2.43691e-06
2.37091e-06
2.37105e-06
2.53248e-06
2.42055e-06
2.4091e-06
2.40672e-06
2.34493e-06
2.34212e-06
2.40887e-06
2.34657e-06
2.34397e-06
2.53489e-06
2.41825e-06
2.44123e-06
2.37543e-06
2.37583e-06
2.41961e-06
2.46422e-06
2.40723e-06
2.36135e-06
2.36154e-06
2.3035e-06
2.30408e-06
2.46459e-06
2.40802e-06
2.33563e-06
2.33457e-06
2.31029e-06
2.30492e-06
2.33655e-06
2.3117e-06
2.30725e-06
2.47011e-06
2.39983e-06
2.36592e-06
2.3345e-06
2.33459e-06
2.40201e-06
2.28735e-06
2.43286e-06
2.31095e-06
2.30138e-06
2.30237e-06
2.46293e-06
2.33006e-06
6.93115e-08
7.11427e-08
1.29819e-06
2.28988e-06
6.55636e-07
2.11921e-06
6.65967e-07
1.28056e-06
2.33863e-06
3.2976e-07
3.35521e-07
2.24765e-06
3.38468e-07
3.32004e-07
6.58613e-07
1.55281e-07
1.56462e-07
6.51788e-07
7.24659e-08
7.30755e-08
6.37121e-07
1.51831e-07
1.52823e-07
6.2847e-07
2.60832e-06
2.60987e-06
2.59984e-06
2.73705e-06
2.73257e-06
2.72529e-06
2.7207e-06
1.30349e-06
6.57102e-07
2.39914e-06
2.20379e-06
6.65276e-07
2.43289e-06
1.29079e-06
7.1555e-08
7.20805e-08
1.34845e-06
2.425e-06
6.73032e-07
2.21377e-06
1.33391e-06
2.45772e-06
6.8008e-07
3.39035e-07
3.45047e-07
2.36197e-06
3.40561e-07
3.47011e-07
6.74156e-07
1.59208e-07
6.68529e-07
1.60095e-07
7.43926e-08
7.48526e-08
6.51544e-07
1.55561e-07
6.44134e-07
1.5624e-07
2.77629e-06
2.76826e-06
2.76484e-06
2.91716e-06
2.91635e-06
2.90639e-06
2.90566e-06
1.34615e-06
6.74656e-07
2.5384e-06
2.317e-06
1.33633e-06
6.81303e-07
2.57441e-06
7.33482e-08
7.3725e-08
1.39337e-06
2.5657e-06
6.90702e-07
2.32873e-06
1.38144e-06
2.60304e-06
6.96326e-07
3.45892e-07
3.52261e-07
2.47463e-06
3.46811e-07
3.53463e-07
6.86156e-07
1.6225e-07
6.81804e-07
1.62851e-07
7.59035e-08
7.62421e-08
6.62249e-07
1.58347e-07
6.56172e-07
1.58769e-07
2.96541e-06
2.95517e-06
2.955e-06
3.11892e-06
3.11979e-06
3.10869e-06
3.10983e-06
1.382e-06
6.88136e-07
2.68753e-06
2.43088e-06
1.37552e-06
6.93476e-07
2.7256e-06
7.47083e-08
7.49674e-08
1.4323e-06
2.72063e-06
7.04465e-07
2.44574e-06
1.42327e-06
2.7603e-06
7.0864e-07
3.51089e-07
3.57512e-07
2.58172e-06
3.51493e-07
3.58198e-07
6.94652e-07
1.64435e-07
6.91552e-07
1.64804e-07
7.70186e-08
7.72211e-08
6.69627e-07
1.60345e-07
6.64688e-07
1.60547e-07
3.1729e-06
3.16169e-06
3.16306e-06
3.33268e-06
3.3345e-06
3.32264e-06
3.32469e-06
1.41062e-06
6.97755e-07
2.84186e-06
2.53799e-06
1.4076e-06
7.01726e-07
2.87972e-06
7.56997e-08
7.58576e-08
1.4638e-06
2.88191e-06
7.14274e-07
2.55748e-06
1.45817e-06
2.92169e-06
7.17198e-07
3.54779e-07
3.61272e-07
2.67773e-06
3.54731e-07
3.61497e-07
6.99877e-07
1.6592e-07
6.97826e-07
1.66109e-07
7.77683e-08
7.78952e-08
6.74145e-07
1.61684e-07
6.70162e-07
1.61717e-07
3.388e-06
3.37608e-06
3.37828e-06
3.54187e-06
3.54414e-06
3.53165e-06
3.53433e-06
1.43127e-06
7.03908e-07
2.99109e-06
2.63242e-06
1.43182e-06
7.06891e-07
3.02578e-06
7.63862e-08
7.64696e-08
1.48687e-06
3.03913e-06
7.20679e-07
2.65586e-06
1.48484e-06
3.0758e-06
7.22579e-07
3.57231e-07
3.63764e-07
2.75734e-06
3.56865e-07
3.63668e-07
7.02676e-07
1.66844e-07
7.01408e-07
1.66873e-07
7.82308e-08
7.82584e-08
6.76371e-07
1.62511e-07
6.73128e-07
1.62403e-07
3.59373e-06
3.58123e-06
3.5839e-06
3.72974e-06
3.73227e-06
3.71936e-06
3.72221e-06
1.44442e-06
7.07243e-07
3.1234e-06
2.70787e-06
1.44802e-06
7.09336e-07
3.15221e-06
7.68433e-08
7.68484e-08
1.50208e-06
3.17955e-06
7.24322e-07
2.73528e-06
1.50324e-06
3.2104e-06
7.25422e-07
3.58835e-07
3.65399e-07
2.81729e-06
3.58249e-07
3.65089e-07
7.0333e-07
1.6723e-07
7.02806e-07
1.67019e-07
7.8408e-08
7.83311e-08
6.76769e-07
1.62845e-07
6.74145e-07
1.62507e-07
3.77417e-06
3.76126e-06
3.76416e-06
3.88214e-06
3.88477e-06
3.87185e-06
3.87481e-06
1.45096e-06
7.08415e-07
3.22989e-06
2.7632e-06
1.45719e-06
7.09838e-07
3.25124e-06
7.70455e-08
7.69229e-08
1.51036e-06
3.29368e-06
7.25827e-07
2.79325e-06
1.51415e-06
3.31674e-06
7.26197e-07
3.59717e-07
3.66375e-07
2.85609e-06
3.5883e-07
3.65819e-07
7.01324e-07
1.6687e-07
7.01855e-07
1.66234e-07
7.82218e-08
7.79024e-08
6.74668e-07
1.62446e-07
6.73168e-07
1.61658e-07
3.91591e-06
3.90344e-06
3.90618e-06
3.98802e-06
3.98898e-06
3.97845e-06
3.98021e-06
1.45071e-06
7.07108e-07
3.30498e-06
2.79403e-06
1.45956e-06
7.07383e-07
3.31766e-06
7.68474e-08
7.65051e-08
1.51154e-06
3.37541e-06
7.25091e-07
2.82784e-06
1.51819e-06
3.38992e-06
7.24352e-07
3.59459e-07
3.66323e-07
2.87251e-06
3.57962e-07
3.65144e-07
6.95218e-07
1.65356e-07
6.97556e-07
1.6401e-07
7.74155e-08
7.67564e-08
6.68273e-07
1.60862e-07
6.6859e-07
1.5941e-07
4.00607e-06
3.99645e-06
3.99787e-06
4.03216e-06
4.03263e-06
4.02391e-06
4.02501e-06
1.44163e-06
7.02428e-07
3.34312e-06
2.79957e-06
1.45425e-06
7.00965e-07
3.34546e-06
7.60394e-08
7.53511e-08
1.50365e-06
3.42025e-06
7.20706e-07
2.8356e-06
1.51387e-06
3.42383e-06
7.18094e-07
3.57419e-07
3.64424e-07
2.86431e-06
3.54733e-07
3.6202e-07
6.82541e-07
1.62005e-07
6.8802e-07
1.59866e-07
7.57001e-08
7.4633e-08
6.56203e-07
1.57649e-07
6.59156e-07
1.55445e-07
4.03479e-06
4.02653e-06
4.0276e-06
4.01888e-06
4.02012e-06
4.01142e-06
4.0132e-06
1.42203e-06
6.92843e-07
3.34349e-06
2.7814e-06
1.43892e-06
6.88434e-07
3.33776e-06
7.4376e-08
7.3322e-08
1.48278e-06
3.42307e-06
7.11319e-07
2.8181e-06
1.49917e-06
3.41771e-06
7.05453e-07
3.52228e-07
3.59288e-07
2.83509e-06
3.47871e-07
3.55071e-07
6.64049e-07
1.57079e-07
6.71375e-07
1.54705e-07
7.32212e-08
7.20927e-08
6.38374e-07
1.52889e-07
6.4345e-07
1.50399e-07
4.00229e-06
3.9937e-06
3.99551e-06
3.90759e-06
3.90998e-06
3.90051e-06
3.90305e-06
1.38492e-06
6.76355e-07
3.29752e-06
2.71977e-06
1.4088e-06
6.69476e-07
3.27248e-06
7.19775e-08
7.0818e-08
1.44433e-06
3.37663e-06
6.94153e-07
2.75506e-06
1.46665e-06
3.35117e-06
6.86041e-07
3.43292e-07
3.50076e-07
2.76143e-06
3.37876e-07
3.44913e-07
6.45506e-07
1.52059e-07
6.52143e-07
1.5009e-07
7.07854e-08
6.98587e-08
6.20298e-07
1.47955e-07
6.24675e-07
1.45885e-07
3.86621e-06
3.85743e-06
3.85976e-06
3.70067e-06
3.70291e-06
3.69392e-06
3.69632e-06
1.33983e-06
6.55753e-07
3.18225e-06
2.61463e-06
1.3647e-06
6.49224e-07
3.14126e-06
6.95728e-08
6.86327e-08
1.39795e-06
3.25759e-06
6.73421e-07
2.64866e-06
1.42127e-06
3.21588e-06
6.65714e-07
3.3284e-07
3.39555e-07
2.6534e-06
3.27912e-07
3.34871e-07
6.32114e-07
1.48299e-07
6.36241e-07
1.47054e-07
6.90059e-08
6.84579e-08
6.07168e-07
1.44256e-07
6.09038e-07
1.42915e-07
3.64077e-06
3.63303e-06
3.63516e-06
3.44474e-06
3.44636e-06
3.43807e-06
3.43998e-06
1.30045e-06
6.37869e-07
3.01817e-06
2.49138e-06
1.32084e-06
6.33964e-07
2.9704e-06
6.78135e-08
6.72314e-08
1.35747e-06
3.08692e-06
6.5545e-07
2.52298e-06
1.37659e-06
3.03876e-06
6.50297e-07
3.24224e-07
3.30916e-07
2.53872e-06
3.20739e-07
3.27644e-07
6.25245e-07
1.46209e-07
6.26675e-07
1.45593e-07
6.80544e-08
6.77834e-08
6.00275e-07
1.42195e-07
5.996e-07
1.41483e-07
3.38535e-06
3.37988e-06
3.38147e-06
3.21224e-06
3.21265e-06
3.20388e-06
3.20546e-06
1.27536e-06
6.2651e-07
2.85173e-06
2.3847e-06
1.28891e-06
6.25468e-07
2.8076e-06
6.68608e-08
6.65775e-08
1.33181e-06
2.91226e-06
6.44173e-07
2.41459e-06
1.34457e-06
2.86976e-06
6.41897e-07
3.18985e-07
3.25668e-07
2.4487e-06
3.1692e-07
3.23818e-07
6.1834e-07
1.45391e-07
6.22213e-07
1.45407e-07
6.76823e-08
6.77166e-08
5.97623e-07
1.41401e-07
5.95732e-07
1.41044e-07
3.1747e-06
3.17259e-06
3.17385e-06
3.067e-06
3.06531e-06
3.05557e-06
3.05276e-06
1.26341e-06
6.21567e-07
2.73076e-06
2.31835e-06
1.27223e-06
6.22165e-07
2.6892e-06
6.65137e-08
6.63836e-08
1.32054e-06
2.78163e-06
6.39289e-07
2.34646e-06
1.32814e-06
2.7517e-06
6.38579e-07
3.16701e-07
3.23362e-07
2.40074e-06
3.15551e-07
3.22418e-07
6.67993e-08
1.43081e-07
6.0176e-07
3.03948e-06
3.01983e-06
3.01496e-06
6.2714e-07
2.66468e-06
1.27857e-06
6.70019e-08
2.69058e-06
6.42979e-07
1.32271e-06
3.2037e-07
3.2599e-07
3.31928e-07
3.38149e-07
2.29781e-06
3.4515e-07
3.41755e-07
7.04004e-08
7.1598e-08
7.10727e-08
7.1001e-08
2.33611e-06
3.36801e-07
3.44162e-07
3.45421e-07
3.3954e-07
7.2163e-08
7.18746e-08
1.29775e-06
2.29796e-06
6.50578e-07
2.10788e-06
6.59201e-07
1.28048e-06
2.33077e-06
6.39983e-07
1.51572e-07
1.53506e-07
6.3258e-07
6.39871e-07
1.50421e-07
1.51912e-07
6.32525e-07
1.30834e-06
2.13362e-06
2.39217e-06
6.70492e-07
6.68369e-07
1.32337e-06
2.34876e-06
1.30818e-06
2.13458e-06
2.38976e-06
6.69591e-07
6.61991e-07
1.32326e-06
2.36037e-06
6.42695e-07
1.54367e-07
1.54335e-07
6.49308e-07
6.42644e-07
1.54259e-07
1.52947e-07
6.49263e-07
6.90476e-08
6.97855e-08
7.0117e-08
7.08637e-08
2.31657e-06
3.36742e-07
3.42843e-07
3.40768e-07
3.34634e-07
7.09601e-08
7.03283e-08
7.20211e-08
7.13247e-08
7.25783e-08
7.31676e-08
7.15771e-08
7.20996e-08
3.4633e-07
3.38835e-07
2.35583e-06
3.48017e-07
3.40185e-07
7.40896e-08
7.35668e-08
7.29807e-08
7.25294e-08
2.42613e-06
3.51345e-07
3.4335e-07
3.49941e-07
3.42295e-07
6.58527e-07
1.55155e-07
1.56344e-07
6.51727e-07
1.34844e-06
6.73006e-07
2.41894e-06
2.21089e-06
6.80058e-07
2.45313e-06
1.33357e-06
1.34822e-06
6.72197e-07
2.41775e-06
2.21398e-06
6.79327e-07
2.4521e-06
1.33341e-06
6.60564e-07
1.58388e-07
1.57357e-07
6.66812e-07
6.6052e-07
1.58283e-07
1.57242e-07
6.66738e-07
1.35846e-06
2.23955e-06
6.88697e-07
2.52381e-06
6.82354e-07
2.48827e-06
1.37194e-06
1.35832e-06
2.24267e-06
6.88116e-07
2.52314e-06
6.81676e-07
2.48739e-06
1.37182e-06
3.45204e-07
3.38926e-07
2.363e-06
3.47076e-07
3.40504e-07
7.14315e-08
7.19977e-08
7.40209e-08
7.34824e-08
2.43341e-06
3.50552e-07
3.4394e-07
3.49048e-07
3.42695e-07
7.29397e-08
7.24462e-08
1.30138e-06
6.57898e-07
2.40359e-06
2.19259e-06
6.65614e-07
2.43669e-06
1.28881e-06
6.36997e-07
1.51737e-07
1.52732e-07
6.28345e-07
1.30141e-06
2.40143e-06
6.57828e-07
2.18881e-06
2.43657e-06
6.6554e-07
1.2888e-06
6.36711e-07
1.54652e-07
1.53828e-07
6.44786e-07
1.31201e-06
2.22141e-06
6.73663e-07
2.50367e-06
6.66551e-07
2.46989e-06
1.32329e-06
6.36587e-07
1.54561e-07
1.53736e-07
6.44669e-07
1.31209e-06
2.21776e-06
2.50381e-06
6.73568e-07
2.47017e-06
6.66473e-07
1.32341e-06
6.36228e-07
1.51476e-07
1.5253e-07
6.27259e-07
1.30359e-06
2.39963e-06
6.57232e-07
2.19959e-06
2.43516e-06
6.6531e-07
1.2909e-06
6.36151e-07
1.51426e-07
1.52463e-07
6.27194e-07
1.31421e-06
2.23227e-06
6.73859e-07
2.50251e-06
6.66381e-07
2.46769e-06
1.32563e-06
6.36008e-07
1.5447e-07
1.53568e-07
6.44312e-07
1.31439e-06
2.22799e-06
2.50437e-06
6.73766e-07
2.46984e-06
6.66409e-07
1.32581e-06
6.35942e-07
1.54386e-07
1.53495e-07
6.44241e-07
3.39064e-07
3.46218e-07
2.35442e-06
3.40402e-07
3.47905e-07
7.26021e-08
7.31963e-08
7.2957e-08
7.25093e-08
2.42523e-06
3.4353e-07
3.51187e-07
3.42503e-07
3.49825e-07
7.4113e-08
7.35929e-08
1.34835e-06
2.42475e-06
6.72182e-07
2.21688e-06
1.33376e-06
2.45808e-06
6.79264e-07
6.58624e-07
1.55357e-07
6.51957e-07
1.56538e-07
6.58581e-07
1.55217e-07
6.51919e-07
1.56394e-07
1.35839e-06
2.24222e-06
2.52853e-06
6.88706e-07
2.49276e-06
6.82357e-07
1.37162e-06
1.3583e-06
2.24513e-06
2.52908e-06
6.88077e-07
2.49303e-06
6.81635e-07
1.37158e-06
6.60542e-07
1.58451e-07
1.5743e-07
6.66684e-07
6.60519e-07
1.58327e-07
1.57294e-07
6.66656e-07
7.14381e-08
7.19785e-08
7.24711e-08
7.30935e-08
2.43282e-06
3.43896e-07
3.50494e-07
3.42724e-07
3.48999e-07
7.2894e-08
7.24179e-08
7.40512e-08
7.35082e-08
7.44602e-08
7.49143e-08
7.3373e-08
7.37534e-08
3.53119e-07
3.45304e-07
2.46979e-06
3.54252e-07
3.4607e-07
7.56332e-08
7.52469e-08
7.44262e-08
7.41073e-08
2.54146e-06
3.56774e-07
3.48412e-07
3.55899e-07
3.479e-07
6.74094e-07
1.59111e-07
6.68496e-07
1.60019e-07
1.39399e-06
6.90732e-07
2.56033e-06
2.32639e-06
1.38181e-06
6.96394e-07
2.59761e-06
1.3939e-06
6.90215e-07
2.55978e-06
2.32976e-06
1.38175e-06
6.96011e-07
2.59717e-06
6.75622e-07
1.61583e-07
1.60843e-07
6.80612e-07
6.75595e-07
1.61539e-07
1.60783e-07
6.80552e-07
1.40375e-06
2.35586e-06
7.03127e-07
2.67472e-06
6.98168e-07
2.636e-06
1.41447e-06
1.40373e-06
2.35869e-06
7.02782e-07
2.67442e-06
6.97799e-07
2.63558e-06
1.4144e-06
3.52323e-07
3.45905e-07
2.47549e-06
3.53523e-07
3.46671e-07
7.33519e-08
7.37827e-08
7.5595e-08
7.51909e-08
2.5476e-06
3.56144e-07
3.49354e-07
3.55097e-07
3.487e-07
7.45009e-08
7.41529e-08
1.34377e-06
6.74334e-07
2.53848e-06
2.30824e-06
1.33391e-06
6.80782e-07
2.5742e-06
6.51445e-07
1.55472e-07
6.44021e-07
1.56148e-07
1.34394e-06
2.53836e-06
6.74236e-07
2.30484e-06
1.33407e-06
2.57386e-06
6.80673e-07
6.50623e-07
1.57605e-07
1.57063e-07
6.57355e-07
1.35434e-06
2.33742e-06
6.86938e-07
2.64806e-06
6.8117e-07
2.61094e-06
1.36251e-06
6.50527e-07
1.57514e-07
1.56972e-07
6.57263e-07
1.35455e-06
2.33402e-06
2.64727e-06
6.86827e-07
2.61035e-06
6.81062e-07
1.36272e-06
6.51415e-07
1.55425e-07
6.43807e-07
1.5619e-07
1.34642e-06
2.53959e-06
6.74575e-07
2.31355e-06
1.33656e-06
2.57546e-06
6.81236e-07
6.51351e-07
1.55338e-07
6.43747e-07
1.56095e-07
1.35677e-06
2.34613e-06
6.87928e-07
2.64926e-06
6.81878e-07
2.61185e-06
1.36498e-06
6.50626e-07
1.5768e-07
1.57059e-07
6.57545e-07
1.35709e-06
2.34222e-06
2.64945e-06
6.87727e-07
2.61229e-06
6.81754e-07
1.36527e-06
6.50573e-07
1.57581e-07
1.56964e-07
6.57489e-07
3.45468e-07
3.52939e-07
2.46842e-06
3.46207e-07
3.54043e-07
7.44747e-08
7.49243e-08
7.43928e-08
7.4077e-08
2.54066e-06
3.48525e-07
3.56521e-07
3.48027e-07
3.55669e-07
7.56338e-08
7.52514e-08
1.39342e-06
2.56608e-06
6.90166e-07
2.33162e-06
1.38138e-06
2.60378e-06
6.95873e-07
6.73917e-07
1.59265e-07
6.68364e-07
1.60136e-07
6.73893e-07
1.59155e-07
6.68351e-07
1.60048e-07
1.40309e-06
2.35834e-06
2.68076e-06
7.02988e-07
2.6419e-06
6.98063e-07
1.41373e-06
1.40315e-06
2.3609e-06
2.6815e-06
7.02669e-07
2.64246e-06
6.97694e-07
1.4138e-06
6.75354e-07
1.61603e-07
1.60876e-07
6.80287e-07
6.75345e-07
1.61552e-07
1.60804e-07
6.80271e-07
7.33027e-08
7.37137e-08
7.44248e-08
7.48887e-08
2.54684e-06
3.49344e-07
3.56019e-07
3.4871e-07
3.55114e-07
7.44365e-08
7.40862e-08
7.56174e-08
7.5225e-08
7.5931e-08
7.6254e-08
7.47435e-08
7.50059e-08
3.58286e-07
3.50119e-07
2.57744e-06
3.58934e-07
3.50423e-07
7.67755e-08
7.65157e-08
7.54971e-08
7.52885e-08
2.64966e-06
3.60745e-07
3.52132e-07
3.60334e-07
3.5204e-07
6.86113e-07
1.62222e-07
6.81781e-07
1.62834e-07
1.43313e-06
7.04627e-07
2.71417e-06
2.44331e-06
1.424e-06
7.08874e-07
2.75392e-06
1.43308e-06
7.04367e-07
2.71391e-06
2.44596e-06
1.424e-06
7.08645e-07
2.75379e-06
6.87108e-07
1.63923e-07
1.6344e-07
6.90862e-07
6.871e-07
1.6393e-07
1.6344e-07
6.90821e-07
1.44245e-06
2.47203e-06
7.1365e-07
2.83441e-06
7.10076e-07
2.79424e-06
1.44992e-06
1.44247e-06
2.47467e-06
7.13535e-07
2.83445e-06
7.09945e-07
2.79415e-06
1.4499e-06
3.57725e-07
3.51124e-07
2.58294e-06
3.58459e-07
3.51544e-07
7.48314e-08
7.51182e-08
7.6786e-08
7.65152e-08
2.65543e-06
3.60384e-07
3.53397e-07
3.59907e-07
3.53196e-07
7.56417e-08
7.54118e-08
1.37944e-06
6.8706e-07
2.68571e-06
2.4234e-06
1.37297e-06
6.92185e-07
2.72372e-06
6.62166e-07
1.58258e-07
6.5608e-07
1.58678e-07
1.37968e-06
2.6847e-06
6.8695e-07
2.41995e-06
1.37322e-06
2.72256e-06
6.92075e-07
6.60826e-07
1.59745e-07
1.59441e-07
6.66326e-07
1.3898e-06
2.4515e-06
6.96598e-07
2.80055e-06
6.92063e-07
2.76219e-06
1.39462e-06
6.60743e-07
1.59651e-07
1.59349e-07
6.66242e-07
1.39007e-06
2.44806e-06
2.79906e-06
6.96484e-07
2.76083e-06
6.91955e-07
1.39489e-06
6.62739e-07
1.58463e-07
6.56479e-07
1.58945e-07
1.38235e-06
2.68722e-06
6.87962e-07
2.42705e-06
1.37584e-06
2.72527e-06
6.93265e-07
6.62687e-07
1.58365e-07
6.56433e-07
1.58846e-07
1.39244e-06
2.45884e-06
6.981e-07
2.80305e-06
6.93395e-07
2.76459e-06
1.3973e-06
6.61411e-07
1.59997e-07
1.59645e-07
6.67043e-07
1.39282e-06
2.45486e-06
2.80216e-06
6.97884e-07
2.76382e-06
6.93229e-07
1.39763e-06
6.61368e-07
1.59898e-07
1.59548e-07
6.66992e-07
3.50223e-07
3.58017e-07
2.57628e-06
3.50507e-07
3.58647e-07
7.59266e-08
7.6243e-08
7.54529e-08
7.52479e-08
2.6491e-06
3.52182e-07
3.60421e-07
3.52113e-07
3.60032e-07
7.67558e-08
7.6501e-08
1.43242e-06
2.72116e-06
7.04222e-07
2.44828e-06
1.42332e-06
2.76119e-06
7.08457e-07
6.85794e-07
1.62263e-07
6.81464e-07
1.62852e-07
6.85787e-07
1.62229e-07
6.81462e-07
1.62833e-07
1.44164e-06
2.47473e-06
2.8412e-06
7.13367e-07
2.80098e-06
7.09827e-07
1.4491e-06
1.44176e-06
2.47701e-06
2.84206e-06
7.13264e-07
2.80168e-06
7.0971e-07
1.44922e-06
6.86738e-07
1.63913e-07
1.63439e-07
6.90469e-07
6.86747e-07
1.6392e-07
1.63434e-07
6.90475e-07
7.47697e-08
7.50556e-08
7.59175e-08
7.6241e-08
2.65455e-06
3.53272e-07
3.60016e-07
3.53141e-07
3.59596e-07
7.55758e-08
7.53502e-08
7.67666e-08
7.65058e-08
7.70019e-08
7.72084e-08
7.57463e-08
7.59072e-08
3.62012e-07
3.53637e-07
2.67426e-06
3.62219e-07
3.53545e-07
7.75646e-08
7.74033e-08
7.62456e-08
7.61271e-08
2.74605e-06
3.63422e-07
3.54717e-07
3.63397e-07
3.54976e-07
6.94619e-07
1.64459e-07
6.91547e-07
1.64833e-07
1.46464e-06
7.14571e-07
2.87478e-06
2.55481e-06
1.45893e-06
7.17528e-07
2.91476e-06
1.46462e-06
7.14546e-07
2.87486e-06
2.55757e-06
1.45898e-06
7.17608e-07
2.91496e-06
6.95071e-07
1.6553e-07
1.65254e-07
6.9761e-07
6.95073e-07
1.65574e-07
1.65298e-07
6.97572e-07
1.47337e-06
2.58108e-06
7.20603e-07
2.99355e-06
7.18197e-07
2.95462e-06
1.47723e-06
1.47343e-06
2.58341e-06
7.20647e-07
2.99388e-06
7.18239e-07
2.95484e-06
1.47722e-06
3.61623e-07
3.54843e-07
2.6785e-06
3.61878e-07
3.54676e-07
7.58999e-08
7.60839e-08
7.75946e-08
7.74238e-08
2.75123e-06
3.63084e-07
3.55969e-07
3.62939e-07
3.56177e-07
7.64218e-08
7.63036e-08
1.40804e-06
6.96245e-07
2.83895e-06
2.53195e-06
1.40491e-06
7.00201e-07
2.87698e-06
6.69545e-07
1.60253e-07
6.64601e-07
1.60453e-07
1.40833e-06
2.83729e-06
6.96131e-07
2.52864e-06
1.4052e-06
2.87522e-06
7.0008e-07
6.67769e-07
1.61199e-07
1.61088e-07
6.72205e-07
1.41812e-06
2.55729e-06
7.03051e-07
2.95163e-06
6.99619e-07
2.91477e-06
1.41939e-06
6.67686e-07
1.61108e-07
1.60996e-07
6.72115e-07
1.41843e-06
2.55401e-06
2.9496e-06
7.0292e-07
2.91284e-06
6.99496e-07
1.4197e-06
6.70496e-07
1.60619e-07
6.65463e-07
1.60852e-07
1.411e-06
2.84056e-06
6.97577e-07
2.53462e-06
1.40797e-06
2.8785e-06
7.016e-07
6.70443e-07
1.60523e-07
6.6542e-07
1.60755e-07
1.42068e-06
2.56353e-06
7.04726e-07
2.95466e-06
7.01211e-07
2.91787e-06
1.42195e-06
6.68673e-07
1.6153e-07
1.61404e-07
6.73164e-07
1.42111e-06
2.55971e-06
2.95299e-06
7.04506e-07
2.91624e-06
7.01042e-07
1.42232e-06
6.6863e-07
1.61441e-07
1.61312e-07
6.73106e-07
3.53676e-07
3.61676e-07
2.67299e-06
3.5356e-07
3.6186e-07
7.69784e-08
7.71799e-08
7.61935e-08
7.60759e-08
2.74533e-06
3.54701e-07
3.63023e-07
3.54979e-07
3.63022e-07
7.75288e-08
7.73717e-08
1.46393e-06
2.88254e-06
7.14226e-07
2.55969e-06
1.45826e-06
2.92269e-06
7.17168e-07
6.94269e-07
1.64428e-07
6.91167e-07
1.64793e-07
6.94285e-07
1.64446e-07
6.91188e-07
1.64821e-07
1.47257e-06
2.58389e-06
3.00065e-06
7.20257e-07
2.96185e-06
7.17851e-07
1.4764e-06
1.47271e-06
2.58584e-06
3.00164e-06
7.20268e-07
2.96261e-06
7.1787e-07
1.47651e-06
6.94697e-07
1.65519e-07
1.65245e-07
6.97226e-07
6.94729e-07
1.65563e-07
1.65284e-07
6.97253e-07
7.58328e-08
7.60039e-08
7.69954e-08
7.72019e-08
2.75003e-06
3.55901e-07
3.62689e-07
3.56165e-07
3.62666e-07
7.63526e-08
7.62284e-08
7.75593e-08
7.73989e-08
7.77314e-08
7.78517e-08
7.64389e-08
7.65209e-08
3.64508e-07
3.56064e-07
2.75445e-06
3.64402e-07
3.55682e-07
7.80757e-08
7.79943e-08
7.67366e-08
7.66922e-08
2.82489e-06
3.65188e-07
3.56467e-07
3.6543e-07
3.56972e-07
6.99842e-07
1.65975e-07
6.97822e-07
1.66161e-07
1.48775e-06
7.21036e-07
3.03181e-06
2.65331e-06
1.48563e-06
7.22943e-07
3.06889e-06
1.48772e-06
7.2112e-07
3.03217e-06
2.65543e-06
1.48568e-06
7.23041e-07
3.06938e-06
6.99898e-07
1.66554e-07
1.66448e-07
7.01547e-07
6.99905e-07
1.66603e-07
1.66501e-07
7.01506e-07
1.49587e-06
2.67511e-06
7.24639e-07
3.13949e-06
7.23187e-07
3.10505e-06
1.49631e-06
1.49592e-06
2.67717e-06
7.24755e-07
3.1401e-06
7.23277e-07
3.10557e-06
1.49627e-06
3.64215e-07
3.57316e-07
2.75865e-06
3.64142e-07
3.56942e-07
7.66118e-08
7.66912e-08
7.81203e-08
7.80373e-08
2.82916e-06
3.6496e-07
3.57731e-07
3.65175e-07
3.58218e-07
7.68994e-08
7.68589e-08
1.42887e-06
7.02268e-07
2.98773e-06
2.62691e-06
1.42923e-06
7.05246e-07
3.02268e-06
6.74051e-07
1.61597e-07
6.70064e-07
1.61632e-07
1.42918e-06
2.98555e-06
7.02135e-07
2.62339e-06
1.42955e-06
3.02044e-06
7.05103e-07
6.71914e-07
1.62118e-07
1.62156e-07
6.75506e-07
1.43845e-06
2.64798e-06
7.06851e-07
3.08898e-06
7.04283e-07
3.05665e-06
1.43644e-06
6.71821e-07
1.62036e-07
1.62073e-07
6.75401e-07
1.43879e-06
2.64435e-06
3.08658e-06
7.06695e-07
3.0543e-06
7.0414e-07
1.43677e-06
6.75142e-07
1.62019e-07
6.71128e-07
1.62054e-07
1.43169e-06
2.98907e-06
7.03725e-07
2.62861e-06
1.43219e-06
3.02395e-06
7.0669e-07
6.75076e-07
1.61936e-07
6.7108e-07
1.61975e-07
1.44081e-06
2.65346e-06
7.08442e-07
3.09219e-06
7.05859e-07
3.06005e-06
1.43874e-06
6.72905e-07