/*--------------------------------*- C++ -*----------------------------------*\
| =========                 |                                                 |
| \\      /  F ield         | OpenFOAM: The Open Source CFD Toolbox           |
|  \\    /   O peration     | Version:  2206                                  |
|   \\  /    A nd           | Website:  www.openfoam.com                      |
|    \\/     M anipulation  |                                                 |
\*---------------------------------------------------------------------------*/
FoamFile
{
    version     2.0;
    format      ascii;
    arch        "LSB;label=32;scalar=64";
    class       volScalarField;
    location    "1";
    object      omega;
}
// * * * * * * * * * * * * * * * * * * * * * * * * * * * * * * * * * * * * * //

dimensions      [0 0 -1 0 0 0 0];

internalField   nonuniform List<scalar> 
66701
(
400.819
424.154
295.857
211.987
327.964
159.805
173.752
306.986
424.144
295.868
211.99
327.971
159.803
306.988
173.754
400.795
726.249
1620.97
4513.04
17168.5
116912
724.438
1620.3
4510.77
17158
116840
742.261
1627.32
4517.61
17165.8
116802
742.271
1627.3
4517.59
17166.1
116814
726.222
1620.88
4512.68
17166.1
116892
724.417
1620.27
4510.8
17158.2
116852
733.416
1624.08
4512.88
17153.8
116752
734.978
1623.49
4510.82
17148.5
116727
733.4
1624.07
4512.86
17153.1
116747
734.97
1623.47
4510.76
17148.2
116725
400.309
400.81
46.3235
199.78
200.665
295.359
36.6404
149.585
159.773
295.852
86.5954
37.2011
150.718
28.7331
159.768
295.86
86.5798
37.2295
28.7595
150.676
400.781
46.3903
200.621
400.659
244.635
406.617
407.203
244.555
406.439
407.071
168.564
300.325
115.54
199.438
168.322
300.274
115.563
168.301
301.807
116.388
200.861
168.016
301.736
116.643
327.839
173.722
306.946
160.048
327.923
173.984
306.873
423.928
211.958
295.789
424.105
212.035
327.846
306.948
173.719
160.044
327.93
306.875
173.985
423.917
211.959
295.798
424.094
212.037
400.632
244.568
407.05
406.495
168.318
116.445
200.817
116.694
301.708
168.607
198.953
300.402
115.441
399.327
23.5407
19.7828
19.9602
17.9702
23.5371
19.7868
19.9691
17.9601
19.9574
17.9437
19.9704
17.9448
107.145
46.4166
72.8814
73.3857
106.886
73.0614
73.6282
63.6674
113.946
85.5751
148.834
85.226
64.3307
113.152
55.5914
95.416
50.1245
86.9121
55.3586
95.7193
50.3429
65.2952
115.191
86.9135
150.995
87.2143
65.0829
115.484
55.5628
50.1116
95.3852
86.8962
55.3246
50.3288
95.6906
65.2461
115.152
86.7929
150.956
65.0278
115.448
87.0921
107.184
46.5064
73.4649
73.7045
72.8332
726.644
1621.38
4513.34
17168.3
116912
726.254
1620.98
4513.07
17168.5
116912
742.551
1627.47
4517.79
17166.8
116814
742.262
1627.33
4517.62
17165.9
116802
742.267
1627.31
4517.61
17166.1
116814
726.225
1620.89
4512.71
17166.1
116892
726.085
1620.91
4513.09
17168.5
116912
733.233
1623.97
4512.83
17153.8
116752
734.978
1623.5
4510.84
17148.5
116727
733.414
1624.09
4512.9
17153.8
116752
734.795
1623.38
4510.78
17148.4
116727
742.055
1627.16
4517.51
17165.8
116802
733.217
1623.96
4512.81
17153.1
116747
734.97
1623.48
4510.79
17148.3
116725
733.398
1624.08
4512.88
17153.2
116747
734.787
1623.36
4510.72
17148.2
116725
742.062
1627.15
4517.49
17166
116814
726.055
1620.82
4512.74
17166.1
116892
741.215
1626.91
4516.59
17161.4
116759
726.844
1621.47
4513.03
17165.5
116881
721.754
1615.17
4499.49
17115
116901
741.255
1627.01
4516.88
17161.8
116776
741.148
1626.89
4516.82
17161.8
116776
721.557
1614.68
4497.7
17107
116921
741.017
1626.98
4516.91
17163.9
116795
740.841
1626.87
4516.86
17163.8
116795
721.598
1615.19
4500.53
17123
116901
721.399
1614.74
4498.95
17116.5
116921
724.256
1620.21
4510.72
17158
116840
724.427
1620.3
4510.77
17158
116840
724.235
1620.18
4510.76
17158.2
116852
724.406
1620.27
4510.8
17158.2
116852
740.817
1626.82
4516.68
17162.5
116777
721.449
1614.91
4499.48
17117.5
116918
721.738
1615.68
4502.14
17130.2
116904
36.0933
46.2101
23.7639
36.8529
36.1998
45.8976
23.6307
36.674
35.9993
45.869
23.5223
36.6514
35.9342
45.977
23.4008
36.6496
35.8949
46.067
23.308
36.685
35.9191
46.1426
23.2457
36.7448
35.9756
46.213
23.2124
36.8265
36.0596
46.2795
23.2039
36.9237
36.1562
46.3331
23.216
36.9939
36.2376
46.3663
23.2456
37.0582
36.3072
46.3823
23.2897
37.1021
36.3562
46.3867
23.3377
37.1275
36.3857
46.3842
23.3832
37.1427
36.3996
46.3799
23.4207
37.1491
36.4057
46.3747
23.445
37.1505
36.4049
46.3727
23.5387
36.8011
35.9945
45.7099
45.7717
45.9881
36.5382
36.2719
36.2748
46.0147
45.8896
45.96
36.2938
36.2307
36.1119
36.0543
45.8383
45.8675
36.9722
36.9708
36.8108
36.8256
36.8627
36.6946
36.7296
45.8764
45.9906
36.137
36.0202
35.9935
45.9541
45.8577
46.0637
36.0742
36.0136
36.0256
35.9797
45.7618
45.9728
36.7745
36.7862
36.7337
36.752
36.7022
36.6525
36.695
45.8891
46.0946
35.954
35.9458
35.9101
46.0597
45.9651
46.1212
36.0001
35.9574
35.9684
35.9448
45.8781
46.0828
36.7063
36.721
36.6702
36.6935
36.6764
36.643
36.6774
45.9963
46.1564
35.8904
35.8966
35.8982
46.1487
46.0163
46.1851
35.9599
35.9427
35.9811
35.9839
45.9859
46.187
36.6477
36.6685
36.6515
36.6843
36.6754
36.6721
36.699
46.0522
46.2198
35.8885
35.9093
35.9094
46.2317
46.0833
46.2462
35.985
35.9888
36.0274
36.037
46.0876
46.2587
36.6583
36.6875
36.7126
36.7417
36.7002
36.7219
36.747
46.1172
46.2795
35.9118
35.9553
35.9603
46.2995
46.1459
46.3143
36.0399
36.0473
36.1064
36.1137
46.1577
46.3234
36.7259
36.7516
36.7911
36.818
36.7569
36.801
36.824
46.1796
46.3471
35.9703
36.0342
36.0398
46.3682
46.2097
46.3674
36.125
36.1307
36.1974
36.2067
46.2185
46.3779
36.8106
36.8344
36.8833
36.9174
36.8404
36.8906
36.923
46.2437
46.4047
36.0553
36.125
36.1304
46.4246
46.2598
46.4001
36.2197
36.2268
36.2967
36.3039
46.2718
46.406
36.9033
36.9169
36.966
36.9892
36.9225
36.9573
36.9943
46.2978
46.4382
36.1492
36.2046
36.2286
46.4599
46.2893
46.4151
36.3035
36.304
36.3636
36.3697
46.2948
46.4231
36.98
36.9969
37.0375
37.061
37.002
37.0307
37.0651
46.3294
46.4588
36.2273
36.2811
36.294
46.4784
46.3021
46.4186
36.3664
36.3699
36.419
36.423
46.3107
46.4233
37.0369
37.0582
37.0886
37.1132
37.0621
37.0846
37.1157
46.347
46.465
36.2924
36.34
36.3485
46.4845
46.3038
46.4165
36.4146
36.4177
36.4548
36.4588
46.3077
46.4211
37.0838
37.106
37.1219
37.1467
37.1082
37.1148
37.148
46.3513
46.4649
36.342
36.3771
36.383
46.4834
46.3006
46.4115
36.4461
36.4498
36.4745
36.4754
46.3058
46.4141
37.1131
37.1352
37.1407
37.166
37.1366
37.1343
37.1663
46.3497
46.4608
36.3723
36.3946
36.4022
46.4793
46.2953
46.4073
36.4625
36.4627
36.4838
36.4862
46.2973
46.4107
37.1291
37.1519
37.1503
37.1759
37.152
37.1446
37.1757
46.3453
46.4564
36.3887
36.4039
36.4105
46.4745
46.2913
46.4026
36.469
36.4716
36.4754
36.4774
46.2956
46.4054
37.1364
37.1591
37.1541
37.1802
37.159
37.1493
37.1802
46.3406
46.4527
36.3952
36.4044
36.4149
46.472
46.288
46.4038
36.4615
36.4625
37.1435
37.2159
46.2902
46.4133
37.1382
37.161
36.9802
36.9534
37.1608
36.802
36.9431
46.3374
46.2998
36.3977
36.2598
36.2781
46.3208
37.211
46.3041
36.6046
36.5251
36.5374
45.6647
35.9909
400.022
398.748
82.6919
28.1213
145.45
35.9372
145.257
82.6351
28.0517
199.31
197.76
46.1433
197.798
199.413
154.546
293.228
293.384
154.358
399.804
399.944
157.987
295.221
295.367
157.652
23.6821
23.7664
23.6722
23.6575
23.5871
23.6707
23.6099
85.4428
148.415
28.7196
36.771
148.728
28.6419
85.1622
401.306
401.43
82.577
27.8966
146.083
36.0982
82.4657
27.8387
146.284
199.387
197.782
45.9452
199.551
197.938
154.824
293.629
154.583
293.742
400.377
400.445
158.34
295.66
157.9
295.752
23.5589
23.6466
23.5915
23.5521
23.5066
23.5837
23.5501
85.6036
148.626
28.5215
36.6507
85.2041
149.026
28.4768
401.888
401.951
82.6493
27.6973
146.273
35.9661
82.47
27.6435
146.552
199.601
198.033
46.0064
199.828
198.21
155.147
293.965
154.896
294.048
400.812
400.85
158.711
296.008
158.306
296.062
23.4827
23.553
23.5259
23.4317
23.4206
23.4696
23.4668
85.8118
148.959
28.4116
36.6384
85.4562
149.342
28.3722
402.33
402.321
82.7807
27.5527
146.594
35.9068
82.5979
27.5061
146.875
199.869
198.291
46.1037
200.108
198.481
155.494
294.232
155.23
294.281
401.099
401.044
159.015
296.266
158.602
296.287
23.3911
23.4377
23.439
23.3307
23.3367
23.3746
23.3808
85.9931
149.294
28.3195
36.649
85.5972
149.694
28.2957
402.596
402.507
82.9476
27.4404
146.927
35.885
82.7489
27.4115
147.214
200.123
198.536
46.199
200.361
198.726
155.841
294.419
155.581
294.431
401.209
401.105
159.334
296.443
158.919
296.427
23.3048
23.3507
23.3566
23.2598
23.2708
23.3086
23.3155
86.1525
149.648
28.2724
36.6903
85.7912
150.035
28.2575
402.687
402.52
83.1275
27.3818
147.276
35.9228
82.933
27.3685
147.561
200.338
198.75
46.2571
200.57
198.937
156.151
294.523
155.902
294.501
401.171
400.961
159.652
296.54
159.26
296.488
23.2476
23.2913
23.298
23.2219
23.2338
23.265
23.2716
86.3735
149.988
28.2625
36.7553
85.9845
150.366
28.2651
402.612
402.375
83.3174
27.373
147.61
35.9858
83.1205
27.3735
147.886
200.516
198.93
46.3308
200.735
199.103
156.401
294.552
156.174
294.496
400.961
400.723
159.905
296.559
159.53
296.475
23.2151
23.2536
23.2593
23.2093
23.2202
23.2446
23.2505
86.5533
150.289
28.2913
36.8402
86.1709
150.639
28.2973
402.397
402.107
83.49
27.3973
147.9
36.0727
83.3017
27.4029
148.159
200.645
199.058
46.3916
200.838
199.21
156.579
294.506
156.382
294.428
400.662
400.378
160.082
296.511
159.739
296.404
23.2057
23.2366
23.2422
23.2183
23.2261
23.2462
23.2543
86.7114
150.523
28.3439
36.9283
86.3446
150.847
28.3537
402.088
401.772
83.6345
27.4492
148.13
36.1677
83.4613
27.4589
148.36
200.718
199.131
46.4352
200.881
199.257
156.675
294.408
156.508
294.316
400.327
400.07
160.182
296.415
159.869
296.293
23.2154
23.2514
23.2569
23.2451
23.2524
23.2738
23.2778
86.833
150.684
28.4119
36.9997
86.4806
150.973
28.424
401.746
401.429
83.7438
27.5182
148.284
36.2428
83.5861
27.531
148.483
200.742
199.153
46.4636
200.876
199.251
156.697
294.283
156.558
294.188
400.019
399.757
160.213
296.292
159.927
296.165
23.246
23.2809
23.2842
23.2884
23.2936
23.313
23.3173
86.9101
150.769
28.4864
37.0555
86.5745
151.034
28.4993
401.426
401.133
83.8096
27.5937
148.363
36.304
83.6682
27.6072
148.534
200.726
199.134
46.4749
200.835
199.212
156.674
294.158
156.549
294.069
399.767
399.563
160.194
296.167
159.925
296.044
23.2888
23.3217
23.3246
23.3366
23.3413
23.3612
23.3645
86.9484
150.793
28.5586
37.095
86.6279
151.036
28.5691
401.172
400.915
83.8439
27.6704
148.382
36.3487
83.7145
27.6826
148.538
200.686
199.092
46.4769
200.779
199.156
156.63
294.055
156.514
293.976
399.6
399.401
160.152
296.061
159.89
295.95
23.3369
23.3681
23.3709
23.3827
23.3881
23.4084
23.4117
86.9561
150.776
28.6209
37.1186
86.6463
151.014
28.6247
401
400.778
83.849
27.7384
148.363
36.375
83.733
27.7445
148.511
200.638
199.044
46.4731
200.726
199.103
156.587
293.98
156.468
293.916
399.487
399.348
160.11
295.985
159.846
295.887
23.3824
23.4129
23.4148
23.4204
23.4271
23.4477
23.4504
86.9487
150.747
28.6639
37.1315
86.6444
150.98
28.6621
400.898
400.703
83.8338
27.7854
148.33
36.3874
83.7279
27.7834
148.477
200.597
199.002
46.4696
200.687
199.064
156.557
293.931
156.433
293.888
399.432
399.295
160.079
295.938
159.811
295.854
23.4191
23.4475
23.4499
23.4463
23.4526
23.4737
23.4763
86.9356
150.718
28.6903
37.1383
86.6314
150.958
28.6868
400.842
400.665
83.8226
27.8175
148.299
36.3924
83.7121
27.8131
148.451
200.565
198.972
46.4652
200.669
199.044
157.215
293.888
156.44
293.715
399.386
399.124
160.062
295.91
159.786
295.844
23.4463
23.4697
23.4721
23.5357
23.5426
23.3358
23.34
86.9273
150.7
28.7021
37.1391
86.6216
150.943
28.7002
400.81
400.653
83.806
27.8327
148.279
36.3896
83.6984
27.8256
148.437
200.543
198.953
46.463
200.649
199.024
400.859
294.894
158.41
23.5384
23.179
23.1832
149.367
28.3016
85.2034
399.893
27.7466
147.385
83.6872
199.688
198.304
198.711
197.197
44.9086
196.398
197.293
398.508
398.335
401.103
399.999
45.141
199.349
197.558
196.648
198.127
399.633
398.939
82.6942
28.1888
146.274
36.4325
146.373
82.6391
28.0981
154.544
292.329
292.23
154.402
154.552
292.95
293.054
154.404
82.5162
35.9664
27.9594
146.248
145.142
82.5995
27.9446
82.5256
36.3353
27.9642
146.369
146.184
82.622
28.0322
154.414
293.173
292.387
154.603
154.421
293.229
293.111
154.617
400.687
400.824
399.169
399.316
45.9803
199.479
197.831
197.684
199.337
401.121
401.057
399.653
399.47
399.77
399.927
401.339
401.462
197.532
199.397
45.9612
197.748
199.653
400.193
400.084
401.729
401.659
45.847
197.885
199.815
197.695
199.568
154.554
293.276
293.401
154.363
82.456
146.048
27.8935
36.2014
146.261
27.822
82.3409
82.4515
146.135
27.8826
36.1465
146.342
27.8114
82.3444
154.43
293.568
293.445
154.667
154.438
293.581
293.46
154.677
82.3115
36.1502
146.365
27.7262
146.103
27.7715
82.4734
82.3082
36.1
146.439
27.7139
146.182
27.7614
82.4739
197.752
199.374
45.8888
197.9
199.571
401.323
401.431
400.221
400.107
45.7726
198.02
199.701
197.842
199.487
401.706
401.632
85.5452
148.42
28.8263
36.8944
148.738
28.7396
85.2343
157.986
295.221
295.366
157.656
85.5327
28.8351
148.361
36.9005
28.7509
148.68
85.2278
157.724
295.565
295.462
158.132
85.228
36.8471
148.884
28.6476
148.485
28.6895
85.5813
157.723
295.566
295.462
158.125
85.2159
36.8566
28.6669
148.83
28.7056
148.427
85.5689
157.974
295.305
295.401
157.633
85.424
28.7249
148.377
36.7959
28.6621
148.691
85.1461
157.965
295.313
295.41
157.624
85.1215
36.7423
148.857
28.5554
148.472
28.6082
85.4751
157.715
295.587
295.496
158.118
85.1038
36.7597
28.5732
148.82
28.6164
148.436
85.4557
157.707
295.595
295.505
158.112
199.314
197.551
45.9789
199.58
197.77
399.79
399.934
401.702
401.629
45.8705
199.754
197.925
199.499
197.723
400.213
400.101
82.5784
27.886
146.19
36.061
82.4686
27.8442
146.376
154.641
293.233
154.463
293.384
154.645
293.289
154.477
293.406
82.4251
36.0611
27.7355
146.401
27.7959
146.126
82.5757
82.4262
36.0219
27.7366
146.469
27.7919
146.209
82.5745
154.525
293.573
293.446
154.756
154.529
293.589
293.466
154.759
401.317
401.415
399.835
399.985
45.8316
199.682
198.073
199.457
197.887
401.691
401.616
400.265
400.148
400.336
400.432
401.921
401.976
197.832
199.729
46.0087
198.031
199.987
400.644
400.574
402.184
402.159
45.9126
198.173
200.145
197.967
199.885
154.83
293.642
154.571
293.749
82.5457
146.217
27.6792
36.0573
82.3427
146.507
27.6435
82.5451
146.288
27.6668
36
82.3454
146.566
27.6314
154.72
293.904
293.802
154.979
154.724
293.909
293.807
154.983
82.4213
36.0454
146.663
27.5812
146.363
27.6139
82.628
82.4223
35.9907
146.714
27.573
146.419
27.6036
82.6291
197.985
199.652
45.907
198.189
199.963
401.897
401.976
400.679
400.596
45.8125
198.305
200.044
198.137
199.829
402.159
402.158
85.7138
148.652
28.6022
36.7581
85.2866
149.09
28.5706
158.331
295.661
157.885
295.754
85.6959
28.6251
148.599
36.7697
85.2746
28.5937
149.04
158.102
295.92
295.844
158.542
85.4328
36.748
149.284
28.5148
148.86
28.5439
85.86
158.094
295.924
295.846
158.533
85.415
36.7639
28.5368
149.237
28.5676
148.811
85.8426
158.299
295.679
157.873
295.759
85.5743
28.5294
148.577
36.6932
85.1595
28.5009
148.98
158.292
295.688
157.868
295.766
85.3155
36.6479
149.192
28.4349
148.785
28.4637
85.7276
158.054
295.918
295.85
158.471
85.2881
36.6965
28.4576
149.144
28.4814
148.741
85.6998
158.047
295.924
295.856
158.463
199.673
197.877
46.0392
199.934
198.077
400.37
400.463
402.159
402.134
45.944
200.092
198.221
199.834
198.017
400.675
400.611
82.627
27.6824
146.319
35.9356
82.4417
27.6415
146.61
154.888
293.634
154.646
293.749
154.888
293.649
154.65
293.762
82.517
35.9603
27.5829
146.717
27.6232
146.408
82.7034
82.498
35.9228
27.5771
146.766
27.6102
146.465
82.6915
154.782
293.911
293.81
155.035
154.784
293.921
293.821
155.038
401.882
401.932
400.418
400.512
45.9089
199.97
198.346
199.723
198.149
402.134
402.114
400.72
400.655
400.777
400.812
402.357
402.343
198.11
200.036
46.1009
198.315
200.288
400.942
400.937
402.458
402.508
45.9992
198.446
200.417
198.238
200.16
155.148
293.967
154.879
294.052
82.7103
146.522
27.5389
35.9928
82.5034
146.827
27.5077
82.7097
146.57
27.5333
35.9532
82.5059
146.873
27.5037
155.045
294.174
294.106
155.309
155.047
294.179
294.107
155.318
82.5862
35.9811
146.999
27.4562
146.688
27.4831
82.7896
82.5872
35.9451
147.045
27.4534
146.731
27.4806
82.794
198.236
199.926
46.0304
198.436
200.156
402.333
402.32
400.978
400.975
45.935
198.556
200.264
198.356
200.034
402.437
402.485
85.95
149.047
28.4726
36.6964
85.5701
149.445
28.4378
158.702
296.012
158.289
296.069
85.9305
28.4948
148.999
36.7116
85.5537
28.4595
149.401
158.454
296.185
296.144
158.847
85.6358
36.6838
149.6
28.3673
149.201
28.4027
85.9396
158.447
296.194
296.151
158.838
85.6165
36.7041
28.3878
149.559
28.4246
149.157
85.9211
158.628
296.004
158.22
296.057
85.7808
28.4233
148.9
36.6745
85.4051
28.3983
149.293
158.62
296.01
158.214
296.063
85.5023
36.6425
149.519
28.3355
149.1
28.3611
85.8692
158.377
296.18
296.141
158.796
85.475
36.6727
28.3579
149.47
28.3786
149.051
85.8421
158.37
296.188
296.146
158.789
199.985
198.158
46.1314
200.238
198.36
400.814
400.847
402.437
402.486
46.0303
200.37
198.491
200.113
198.284
400.975
400.974
82.7646
27.5375
146.623
35.8869
82.5644
27.5098
146.928
155.201
293.971
154.933
294.054
155.203
293.98
154.936
294.063
82.6522
35.9044
27.4601
147.048
27.4907
146.734
82.8501
82.6408
35.8953
27.4634
147.099
27.4886
146.787
82.8501
155.102
294.18
294.112
155.37
155.105
294.188
294.119
155.375
402.308
402.298
400.855
400.891
46.0031
200.243
198.609
199.984
198.405
402.417
402.463
401.016
401.015
401.058
401.026
402.617
402.527
198.369
200.287
46.1429
198.571
200.541
401.068
401.133
402.554
402.678
46.044
198.685
200.651
198.48
200.395
155.501
294.233
155.219
294.284
82.8786
146.863
27.4246
35.9594
82.6652
147.178
27.4087
82.8848
146.906
27.4246
35.9558
82.6722
147.224
27.4104
155.396
294.366
294.332
155.664
155.403
294.374
294.334
155.677
82.7576
35.974
147.356
27.383
147.042
27.397
82.9753
82.7659
35.9769
147.408
27.3865
147.088
27.3996
82.9871
198.503
200.185
46.1352
198.701
200.489
402.595
402.543
401.106
401.152
46.0402
198.811
200.549
198.637
200.345
402.552
402.695
86.0175
149.362
28.326
36.643
85.6233
149.78
28.3052
159.008
296.273
158.586
296.296
85.9967
28.3478
149.321
36.6646
85.6055
28.327
149.741
158.765
296.367
296.361
159.167
85.7316
36.6431
149.943
28.2765
149.542
28.2944
86.1173
158.759
296.379
296.371
159.16
85.7118
36.6704
28.299
149.908
28.3172
149.503
86.1009
158.977
296.26
158.551
296.284
85.9548
28.3314
149.237
36.6797
85.5457
28.3186
149.654
158.968
296.268
158.544
296.29
85.6971
36.6658
149.876
28.2808
149.452
28.2924
86.0733
158.728
296.367
296.36
159.135
85.6625
36.6941
28.2993
149.823
28.3113
149.414
86.046
158.719
296.374
296.366
159.129
200.241
198.412
46.1809
200.494
198.612
401.093
401.058
402.535
402.66
46.0819
200.606
198.728
200.35
198.523
401.097
401.167
82.9407
27.4349
146.96
35.8902
82.7275
27.4197
147.27
155.549
294.235
155.272
294.284
155.553
294.242
155.278
294.292
82.8246
35.8995
27.3902
147.397
27.4051
147.076
83.0338
82.8204
35.9
27.3945
147.444
27.4087
147.131
83.0353
155.452
294.37
294.336
155.718
155.457
294.379
294.343
155.724
402.577
402.493
401.131
401.098
46.0975
200.476
198.84
200.218
198.637
402.526
402.647
401.136
401.205
401.168
401.066
402.701
402.537
198.591
200.502
46.2073
198.785
200.75
401.027
401.16
402.486
402.679
46.1053
198.88
200.842
198.681
200.592
155.85
294.421
155.577
294.44
83.0739
147.22
27.367
35.9957
82.8549
147.526
27.3619
83.0863
147.27
27.3721
36.0031
82.8691
147.58
27.3675
155.741
294.477
294.475
155.996
155.75
294.488
294.485
156.008
82.9535
36.0152
147.697
27.3589
147.388
27.3587
83.1667
82.9672
36.0226
147.749
27.3649
147.443
27.3652
83.1806
198.713
200.392
46.2218
198.905
200.623
402.698
402.536
401.068
401.202
46.122
198.984
200.693
198.8
200.467
402.485
402.678
86.1442
149.701
28.2537
36.6778
85.8027
150.11
28.2469
159.324
296.45
158.905
296.439
86.1239
28.2767
149.665
36.6985
85.7875
28.2695
150.074
159.088
296.469
296.496
159.508
85.8476
36.6999
150.295
28.2432
149.876
28.2419
86.2876
159.079
296.482
296.507
159.501
85.8266
36.7219
28.2653
150.26
28.2645
149.839
86.2683
159.301
296.439
158.884
296.426
86.1194
28.2824
149.584
36.7084
85.7429
28.2778
149.993
159.293
296.446
158.878
296.435
85.8514
36.7118
150.216
28.2569
149.792
28.2558
86.2514
159.053
296.469
296.497
159.469
85.8207
36.7297
28.2753
150.166
28.274
149.754
86.2215
159.045
296.478
296.504
159.461
200.458
198.633
46.2409
200.705
198.826
401.2
401.091
402.468
402.662
46.1392
200.798
198.921
200.549
198.723
401.049
401.188
83.1248
27.3805
147.304
35.9219
82.9136
27.3765
147.612
155.887
294.418
155.619
294.433
155.891
294.427
155.626
294.444
83.0051
35.9437
27.3699
147.732
27.3693
147.42
83.2197
83.0042
35.9435
27.3733
147.783
27.3738
147.473
83.2206
155.788
294.479
294.478
156.045
155.793
294.491
294.489
156.05
402.675
402.516
401.236
401.131
46.1551
200.663
199.031
200.416
198.836
402.468
402.66
401.088
401.226
401.115
400.944
402.622
402.393
198.771
200.678
46.2828
198.952
200.91
400.841
401.034
402.276
402.526
46.1804
199.016
200.972
198.838
200.742
156.16
294.53
155.905
294.509
83.261
147.557
27.3555
36.0672
83.0456
147.854
27.3596
83.2743
147.609
27.3617
36.0751
83.0615
147.902
27.3653
156.047
294.507
294.538
156.277
156.054
294.518
294.549
156.29
83.1401
36.0896
148.001
27.3749
147.711
27.3698
83.3486
83.1544
36.0979
148.052
27.379
147.762
27.3751
83.3626
198.907
200.576
46.2934
199.07
200.865
402.621
402.431
400.873
401.053
46.1925
199.138
200.87
198.99
200.707
402.288
402.564
86.3949
150.053
28.244
36.7551
86.0035
150.442
28.2539
159.643
296.547
159.247
296.5
86.3769
28.2662
150.018
36.7748
85.9867
28.2758
150.407
159.395
296.491
296.55
159.784
86.0869
36.7759
150.59
28.2717
150.197
28.2652
86.4647
159.386
296.505
296.563
159.776
86.0685
36.7969
28.293
150.556
28.2878
150.162
86.4454
159.62
296.536
159.218
296.491
86.3379
28.2763
149.925
36.7807
85.9307
28.2861
150.325
159.612
296.544
159.211
296.498
86.0687
36.7884
150.525
28.2829
150.118
28.2783
86.4448
159.363
296.494
296.556
159.752
86.0388
36.8039
28.3024
150.472
28.2984
150.081
86.4176
159.355
296.502
296.562
159.744
200.635
198.812
46.3165
200.868
198.991
401.141
400.967
402.257
402.509
46.2149
200.928
199.056
200.699
198.876
400.859
401.054
83.3138
27.3704
147.642
35.9937
83.1
27.3752
147.939
156.195
294.52
155.942
294.502
156.2
294.533
155.949
294.515
83.1947
36.0189
27.3879
148.029
27.3834
147.74
83.4037
83.1934
36.0175
27.3911
148.087
27.3871
147.796
83.4058
156.092
294.508
294.541
156.327
156.097
294.521
294.553
156.332
402.607
402.38
401.178
401.007
46.2274
200.795
199.166
200.57
198.991
402.263
402.515
400.896
401.092
400.929
400.706
402.404
402.13
198.899
200.8
46.3395
199.064
201.017
400.557
400.787
401.973
402.258
46.2353
199.091
201.042
198.936
200.838
156.411
294.552
156.179
294.501
83.4322
147.855
27.3791
36.1544
83.2253
148.126
27.3911
83.4469
147.908
27.3838
36.1603
83.2416
148.18
27.3961
156.291
294.469
294.527
156.495
156.299
294.475
294.533
156.507
83.3099
36.1773
148.238
27.4181
147.977
27.4057
83.5148
83.3254
36.1839
148.294
27.4222
148.033
27.4108
83.5301
199.016
200.696
46.3464
199.178
200.889
402.416
402.134
400.568
400.802
46.2439
199.191
200.902
199.05
200.718
401.973
402.263
86.5693
150.343
28.2767
36.8409
86.17
150.716
28.2902
159.896
296.564
159.515
296.487
86.5493
28.2982
150.309
36.8556
86.152
28.3114
150.683
159.639
296.447
296.533
160.002
86.2674
36.8608
150.83
28.3185
150.465
28.3046
86.6435
159.632
296.461
296.546
159.993
86.2476
36.8873
28.339
150.798
28.3265
150.431
86.6251
159.874
296.555
159.492
296.476
86.5147
28.307
150.224
36.8613
86.1185
28.3193
150.601
159.866
296.563
159.485
296.485
86.2484
36.8732
150.766
28.3271
150.383
28.3181
86.6227
159.61
296.448
296.536
159.972
86.2156
36.8935
28.3475
150.715
28.3355
150.35
86.5956
159.602
296.457
296.544
159.964
200.76
198.936
46.3746
200.975
199.101
400.942
400.721
401.948
402.235
46.2724
201
199.132
200.796
198.974
400.572
400.802
83.4883
27.3963
147.94
36.0811
83.2835
27.4089
148.208
156.443
294.544
156.217
294.495
156.448
294.557
156.224
294.508
83.3651
36.1079
27.4323
148.266
27.4236
148.004
83.5673
83.3655
36.1048
27.4354
148.324
27.4243
148.058
83.5683
156.332
294.469
294.528
156.538
156.337
294.482
294.54
156.544
402.395
402.115
400.977
400.759
46.2864
200.868
199.241
200.669
199.088
401.955
402.246
400.607
400.837
400.634
400.389
402.099
401.797
198.971
200.874
46.3817
199.11
201.06
400.228
400.467
401.629
401.927
46.2742
199.109
201.06
198.98
200.885
156.588
294.503
156.388
294.429
83.5868
148.085
27.4304
36.2423
83.3901
148.327
27.4467
83.6008
148.139
27.4349
36.2511
83.4072
148.376
27.451
156.459
294.376
294.451
156.632
156.467
294.379
294.455
156.644
83.4603
36.2703
148.402
27.4832
148.169
27.4646
83.6477
83.4745
36.2804
148.454
27.4859
148.219
27.4693
83.6624
199.101
200.765
46.3935
199.218
201.02
402.098
401.833
400.237
400.464
46.2862
199.227
200.961
199.131
200.846
401.633
401.961
86.7225
150.574
28.3297
36.9262
86.341
150.919
28.3478
160.074
296.516
159.722
296.416
86.7023
28.3503
150.541
36.9264
86.3239
28.3677
150.886
159.807
296.353
296.458
160.141
86.4176
36.9409
150.995
28.3851
150.659
28.3651
86.7829
159.8
296.366
296.47
160.131
86.3973
36.9497
28.4044
150.963
28.3854
150.625
86.7642
160.054
296.505
159.702
296.406
86.6734
28.3583
150.458
36.932
86.2931
28.3754
150.806
160.046
296.512
159.695
296.412
86.4011
36.9396
150.937
28.3907
150.582
28.3798
86.7625
159.781
296.352
296.46
160.112
86.3684
36.9556
28.412
150.883
28.394
150.545
86.7344
159.772
296.36
296.466
160.104
200.833
199.009
46.4171
201.019
199.148
400.651
400.408
401.602
401.901
46.3107
201.018
199.152
200.844
199.019
400.247
400.487
83.6352
27.4484
148.169
36.1685
83.4429
27.4648
148.412
156.615
294.498
156.419
294.426
156.621
294.511
156.427
294.438
83.5066
36.1886
27.4964
148.431
27.4858
148.193
83.6979
83.5087
36.2006
27.5002
148.488
27.4838
148.254
83.6982
156.495
294.377
294.453
156.671
156.5
294.387
294.464
156.677
402.085
401.78
400.684
400.443
46.3264
200.885
199.26
200.716
199.135
401.607
401.911
400.279
400.52
400.304
400.062
401.759
401.456
198.991
200.898
46.4047
199.104
201.056
399.917
400.145
401.305
401.591
46.2943
199.083
201.036
198.977
200.888
156.684
294.401
156.515
294.316
83.6983
148.238
27.499
36.313
83.5183
148.45
27.5157
83.7136
148.29
27.5021
36.3135
83.5353
148.505
27.5191
156.546
294.253
294.337
156.69
156.553
294.253
294.337
156.701
83.5674
36.3343
148.487
27.5582
148.283
27.5361
83.7386
83.5826
36.3397
148.543
27.5614
148.338
27.5403
83.7525
199.106
200.793
46.4097
199.217
200.928
401.761
401.451
399.919
400.151
46.3014
199.186
200.895
199.092
200.769
401.292
401.586
86.8406
150.729
28.4001
36.9937
86.4747
151.046
28.418
160.174
296.418
159.852
296.304
86.8207
28.4199
150.697
37.0066
86.4576
28.4376
151.014
159.899
296.23
296.345
160.206
86.531
37.0141
151.086
28.4615
150.778
28.4377
86.8816
159.892
296.243
296.357
160.196
86.5111
37.0304
28.4799
151.054
28.4576
150.745
86.8631
160.156
296.405
159.834
296.287
86.7946
28.4271
150.617
37.0115
86.4276
28.4447
150.935
160.147
296.412
159.827
296.296
86.5166
37.009
151.029
28.4633
150.7
28.4515
86.8611
159.873
296.223
296.341
160.176
86.4841
37.0354
28.4865
150.974
28.465
150.665
86.833
159.865
296.232
296.349
160.169
200.858
199.033
46.445
201.014
199.144
400.326
400.085
401.276
401.564
46.3362
200.995
199.127
200.848
199.019
399.938
400.166
83.7451
27.5169
148.323
36.2359
83.5686
27.5342
148.532
156.708
294.402
156.542
294.317
156.714
294.411
156.55
294.325
83.6125
36.2541
27.5707
148.52
27.5596
148.307
83.7872
83.614
36.262
27.5765
148.571
27.5558
148.364
83.787
156.579
294.256
294.34
156.727
156.584
294.262
294.348
156.733
401.739
401.432
400.356
400.116
46.3519
200.86
199.235
200.719
199.135
401.275
401.568
399.967
400.196
400
399.778
401.441
401.161
198.969
200.884
46.4136
199.063
201.017
399.665
399.867
401.046
401.304
46.3011
199.032
200.988
198.942
200.86
156.708
294.274
156.564
294.184
83.7661
148.315
27.5747
36.3738
83.6046
148.502
27.5904
83.782
148.371
27.5782
36.3809
83.6204
148.555
27.5937
156.56
294.127
294.209
156.685
156.569
294.124
294.206
156.698
83.6302
36.3992
148.51
27.6355
148.327
27.6123
83.7853
83.6466
36.4046
148.566
27.6381
148.382
27.6159
83.8022
199.097
200.77
46.4236
199.176
200.978
401.426
401.181
399.663
399.852
46.3116
199.15
200.885
199.092
200.805
401.033
401.32
86.9181
150.813
28.4762
37.0459
86.5683
151.104
28.492
160.206
296.295
159.909
296.176
86.8981
28.4955
150.78
37.0664
86.5512
28.5117
151.071
159.923
296.103
296.218
160.21
86.6037
37.07
151.114
28.5376
150.828
28.5129
86.9395
159.917
296.115
296.23
160.2
86.5836
37.0909
28.5558
151.083
28.5325
150.795
86.9209
160.186
296.276
159.89
296.157
86.8722
28.5014
150.7
37.0702
86.521
28.5169
150.992
160.178
296.285
159.883
296.164
86.5883
37.0643
151.06
28.5366
150.753
28.5231
86.9184
159.897
296.092
296.211
160.179
86.5563
37.0947
28.5603
151.002
28.5377
150.716
86.8897
159.889
296.101
296.218
160.172
200.844
199.013
46.4573
200.976
199.105
400.023
399.802
401.016
401.274
46.346
200.946
199.078
200.821
198.987
399.69
399.891
83.813
27.5933
148.399
36.3004
83.6522
27.609
148.586
156.732
294.279
156.59
294.191
156.738
294.285
156.598
294.196
83.674
36.3144
27.6453
148.546
27.6309
148.353
83.8368
83.6774
36.3258
27.6532
148.597
27.6311
148.412
83.8368
156.596
294.132
294.215
156.724
156.601
294.135
294.219
156.731
401.413
401.129
400.05
399.831
46.361
200.809
199.185
200.689
199.102
401.008
401.272
399.716
399.919
399.757
399.565
401.19
400.945
198.925
200.846
46.4135
199.007
200.963
399.491
399.662
400.871
401.094
46.2998
198.975
200.932
198.892
200.816
156.685
294.146
156.555
294.063
83.7983
148.332
27.6488
36.4215
83.6474
148.503
27.6616
83.8152
148.388
27.6518
36.4245
83.6663
148.56
27.6646
156.535
294.019
294.093
156.653
156.544
294.014
294.089
156.664
83.6599
36.4426
148.495
27.7056
148.325
27.6838
83.808
83.6765
36.4458
148.551
27.7081
148.382
27.6872
83.8233
199.041
200.737
46.4168
199.12
200.831
401.175
400.923
399.487
399.66
46.3047
199.078
200.789
199.008
200.694
400.844
401.072
86.9557
150.835
28.5486
37.0907
86.6215
151.108
28.5609
160.187
296.171
159.908