/*--------------------------------*- C++ -*----------------------------------*\
| =========                 |                                                 |
| \\      /  F ield         | OpenFOAM: The Open Source CFD Toolbox           |
|  \\    /   O peration     | Version:  2206                                  |
|   \\  /    A nd           | Website:  www.openfoam.com                      |
|    \\/     M anipulation  |                                                 |
\*---------------------------------------------------------------------------*/
FoamFile
{
    version     2.0;
    format      ascii;
    arch        "LSB;label=32;scalar=64";
    class       surfaceScalarField;
    location    "1";
    object      phi;
}
// * * * * * * * * * * * * * * * * * * * * * * * * * * * * * * * * * * * * * //

dimensions      [0 3 -1 0 0 0 0];

oriented        oriented;

internalField   nonuniform List<scalar> 
196491
(
-2.18586e-12
-8.26704e-13
-6.59159e-09
-4.62562e-12
-1.58735e-12
-9.96972e-13
-5.41688e-09
-3.01961e-12
-7.77254e-13
-1.31643e-08
-6.33631e-12
-2.00804e-08
-1.34754e-11
-9.06072e-13
-3.46675e-13
-9.81651e-09
4.25478e-12
1.64805e-11
1.74303e-14
-1.9499e-08
-1.85051e-08
9.1446e-15
-3.25967e-13
-1.19382e-08
-4.52314e-12
-1.62883e-12
-1.03816e-12
-5.41352e-09
-3.08167e-12
2.17352e-12
-8.21543e-13
-1.31602e-08
-6.41781e-12
-2.00699e-08
-9.30131e-13
-1.34555e-11
-3.52885e-13
-9.81084e-09
1.64562e-11
4.29443e-12
-1.94957e-08
-3.31548e-13
-1.19351e-08
-1.84964e-08
-9.10715e-13
-6.59054e-09
-4.20509e-13
-3.59267e-14
-4.3106e-09
-1.91771e-13
-1.22314e-14
-2.3121e-09
-7.32594e-14
-2.02728e-15
-1.13388e-09
-1.6936e-14
1.81893e-15
-4.68391e-10
1.52464e-15
-1.11181e-10
-5.21298e-13
1.29384e-13
-7.34151e-14
-4.29612e-09
-2.41777e-13
6.75869e-14
-3.29743e-14
-2.30368e-09
-9.27264e-14
3.19684e-14
-1.43391e-14
-1.12948e-09
-2.12782e-14
1.30566e-14
-5.40195e-15
-4.66517e-10
3.35309e-15
-1.08812e-15
-1.10747e-10
-3.90715e-13
-2.31705e-09
-1.83781e-13
-1.24994e-09
-7.30946e-14
-6.1554e-10
-1.79649e-14
-2.55051e-10
-6.06572e-11
-4.15355e-13
3.55058e-14
-1.35355e-13
-2.31645e-09
-1.95598e-13
9.83288e-15
-6.90766e-14
-1.2497e-09
-7.77286e-14
6.51507e-16
-3.25336e-14
-6.15393e-10
-1.88837e-14
-2.7631e-15
-1.33567e-14
-2.55016e-10
-1.69665e-15
-3.45062e-15
-6.06381e-11
-4.65421e-13
-4.30997e-09
-2.14216e-13
-2.31181e-09
-8.16911e-14
-1.13375e-09
-1.88187e-14
-4.68387e-10
-1.11188e-10
-5.4363e-13
-8.37619e-14
-4.29372e-09
-2.52161e-13
-3.74972e-14
-2.30249e-09
-9.64766e-14
-1.64403e-14
-1.12883e-09
-2.20395e-14
-6.29387e-15
-4.663e-10
-1.31734e-15
-1.10673e-10
-1.93227e-13
-4.43135e-14
-2.69472e-09
-9.63289e-14
-1.84239e-14
-1.45025e-09
-3.92107e-14
-7.56359e-15
-7.12902e-10
-9.61745e-15
-2.96229e-15
-2.94998e-10
-7.78972e-16
-7.01023e-11
-1.89724e-13
1.81555e-15
-2.94596e-09
-9.51204e-14
7.59658e-16
-1.58331e-09
-3.80225e-14
3.37023e-16
-7.77607e-10
-8.94399e-15
1.29279e-16
-3.21555e-10
2.69054e-17
-7.63915e-11
-1.97455e-13
-4.96912e-14
-2.69342e-09
-9.8321e-14
-2.06247e-14
-1.44955e-09
-3.98782e-14
-8.49744e-15
-7.12524e-10
-9.72521e-15
-3.29986e-15
-2.94864e-10
-8.3458e-16
-7.00703e-11
-1.93003e-13
-2.94522e-09
-9.66365e-14
-1.58292e-09
-3.85857e-14
-7.77418e-10
-9.06953e-15
-3.21477e-10
-7.63733e-11
-2.86308e-11
-1.07016e-11
-2.97045e-12
-6.63824e-09
-5.70756e-12
-2.23454e-12
6.60043e-09
-6.45756e-13
-6.59184e-09
2.77954e-11
2.00752e-11
2.70817e-08
5.18412e-11
5.11721e-11
-2.72325e-08
-5.53072e-11
1.9872e-11
-1.17869e-10
2.13532e-08
-2.12285e-08
-1.15754e-11
4.732e-12
-2.42128e-11
2.09559e-08
-2.09306e-08
-8.0601e-11
-1.88639e-12
-1.32604e-08
-1.0266e-09
1.78232e-11
1.09266e-10
-2.83261e-11
4.8737e-10
3.53277e-10
9.36816e-11
4.55778e-10
-1.15649e-07
-6.90769e-11
-2.03001e-10
2.07618e-08
-2.06256e-08
-5.25382e-11
-5.37767e-16
4.30503e-12
1.65845e-11
1.95319e-08
-1.95002e-08
-1.43231e-11
-3.02686e-12
1.31806e-08
-7.68867e-13
-1.31647e-08
1.06891e-13
1.05316e-11
-1.02886e-10
2.36641e-08
-2.36244e-08
-1.75718e-10
1.15913e-10
2.21256e-11
4.16246e-11
-4.43997e-11
-7.76198e-11
6.82237e-11
-7.31604e-11
7.11749e-11
-1.13446e-07
-1.70574e-11
-3.42327e-11
2.05083e-08
-2.04829e-08
-3.60026e-11
1.2041e-10
-1.18543e-10
1.46376e-10
1.1056e-10
-1.53418e-10
-1.1914e-07
-5.2478e-11
1.6563e-11
4.27143e-12
1.95286e-08
-1.94969e-08
-1.44223e-11
2.22856e-12
-3.0702e-12
1.31767e-08
-7.89558e-13
-1.31606e-08
-1.02777e-10
1.03097e-11
2.36608e-08
-2.36207e-08
7.9577e-12
-7.02837e-11
-5.70069e-11
6.82767e-11
5.15778e-11
-7.36308e-11
6.68861e-11
1.81675e-11
-2.17184e-11
-1.14644e-07
5.10946e-13
2.73596e-11
-1.00076e-10
1.45433e-10
9.31144e-11
-1.53181e-10
-1.20166e-07
1.17103e-11
-1.68186e-11
-3.40859e-11
2.04945e-08
-2.04697e-08
-5.8815e-12
6.59956e-09
-6.83267e-13
-6.59076e-09
2.72806e-08
1.04589e-10
-2.73324e-08
-1.49293e-10
2.61888e-11
-2.45689e-11
2.10021e-08
-2.0976e-08
4.27218e-12
5.8248e-12
2.57042e-12
4.3671e-13
-1.50113e-08
-3.61703e-12
-4.27465e-12
1.40088e-11
1.44766e-11
-3.63447e-12
5.49589e-09
-1.82423e-12
-1.37134e-12
-5.48906e-09
-3.4641e-12
5.46757e-09
-3.11986e-12
-6.245e-13
-5.46036e-09
-1.28479e-11
-1.40753e-11
-1.49915e-08
3.43148e-12
-1.14135e-13
3.14436e-12
2.04284e-13
-1.93753e-08
-1.05756e-11
1.9026e-11
2.57808e-11
-4.26285e-11
1.28307e-08
-8.60098e-13
-1.27692e-08
4.6323e-11
2.31414e-08
-1.50277e-10
-1.38351e-10
-2.30169e-08
-4.40219e-12
-3.20806e-11
-3.916e-11
-2.51491e-11
-1.93593e-08
8.23529e-14
3.92567e-11
-1.07646e-11
-1.83865e-08
-1.32361e-11
2.26022e-11
2.48208e-11
-1.23317e-11
1.24974e-08
-3.86369e-13
-1.2483e-08
2.15468e-11
2.21348e-08
-4.42347e-11
-3.18878e-11
-2.21045e-08
-4.7361e-12
2.48936e-11
1.21778e-11
-2.34296e-11
-1.83679e-08
2.10146e-13
4.61543e-11
3.30535e-11
-9.82972e-09
1.43263e-11
1.08296e-12
-2.08083e-12
-1.15633e-13
1.36086e-11
1.85338e-08
6.34759e-12
-4.34819e-11
-1.85059e-08
9.80407e-13
1.19544e-08
2.98636e-15
-3.70237e-13
-1.19384e-08
-4.42011e-12
-1.74131e-11
7.93737e-15
5.46622e-11
1.57355e-12
-3.81845e-13
-9.81632e-09
-6.78924e-12
4.53638e-11
8.42412e-15
-2.32135e-13
-5.42455e-09
5.27721e-12
3.04472e-13
4.89202e-12
2.01083e-08
-2.81962e-11
-2.00817e-08
3.07408e-12
1.53152e-11
4.81351e-13
-7.25567e-13
-5.41735e-09
2.94074e-11
-9.82406e-09
1.05859e-12
1.43417e-11
-2.05414e-12
-1.26621e-13
9.86815e-13
1.19513e-08
-3.73231e-13
-1.19353e-08
1.35881e-11
1.85253e-08
6.40787e-12
-4.36831e-11
-1.84974e-08
-1.74406e-11
-4.40498e-12
5.47242e-11
1.6204e-12
-3.84331e-13
-9.81072e-09
-2.43084e-13
-6.7505e-12
4.56158e-11
-5.42119e-09
5.35694e-12
2.64225e-13
4.79741e-12
2.0098e-08
-2.82316e-11
-2.00712e-08
3.02174e-12
-2.60802e-12
1.56297e-11
4.45586e-13
-7.63856e-13
-5.41401e-09
2.97412e-11
5.99564e-12
4.12956e-13
-4.19705e-12
-3.41528e-12
1.34848e-11
1.4637e-11
-1.50159e-08
3.02251e-12
2.72414e-13
-5.4673e-09
2.81709e-12
3.71048e-13
-5.49722e-09
1.6816e-11
-1.33026e-11
3.00885e-11
-1.83844e-08
2.2495e-08
-2.97966e-11
-5.23239e-11
-2.2453e-08
1.55522e-11
2.52537e-11
-4.29709e-12
1.24654e-11
3.12441e-11
5.45603e-11
1.91724e-13
-1.24836e-08
-1.0209e-11
3.19398e-11
1.5881e-11
-1.93907e-08
-5.35948e-12
1.33623e-11
-3.26969e-12
-2.13728e-08
1.47264e-11
2.62065e-13
-1.28484e-08
5.32534e-12
-2.27729e-08
6.67414e-11
5.32869e-13
-6.73845e-09
2.09346e-12
2.74205e-10
-4.9206e-10
-1.24599e-07
-3.39719e-10
4.6709e-10
-1.35766e-07
4.46631e-10
-4.15851e-11
-1.30281e-07
4.11991e-10
-4.59526e-12
-1.44147e-07
-3.93798e-10
2.5947e-11
-1.24425e-07
2.59036e-11
-1.35855e-07
4.1572e-12
-7.8989e-12
-1.29329e-07
-1.02641e-12
-1.43359e-07
2.39676e-11
-1.3343e-07
-3.17693e-11
4.13835e-10
-1.44402e-07
-4.82285e-12
1.1693e-11
-1.33382e-07
-3.33913e-11
-1.43457e-07
-4.72413e-11
-2.23051e-08
2.93493e-11
3.54836e-11
-5.54684e-11
-5.41908e-11
2.71638e-11
2.55168e-08
-2.55331e-08
3.37431e-11
2.427e-08
-2.42552e-08
-2.22928e-08
1.06575e-10
-2.57952e-08
3.84735e-10
-3.07162e-10
2.27372e-08
-2.25763e-08
2.4498e-08
-1.60933e-10
-2.43251e-08
-1.89423e-10
-7.85754e-11
-2.56711e-08
-2.5665e-08
-8.57078e-11
1.83194e-11
2.41281e-11
-8.14509e-11
2.28759e-08
1.45879e-11
-2.2842e-08
1.86655e-11
2.66531e-08
6.90135e-12
-2.66352e-08
-1.04849e-11
1.07385e-10
-4.62282e-14
-2.11864e-11
-2.55961e-08
-1.48715e-11
-7.03208e-12
-3.73194e-11
-2.54686e-08
-5.97151e-11
-5.69971e-11
2.24336e-08
-2.24072e-08
2.41252e-08
-3.71177e-11
-2.40859e-08
3.67423e-11
1.71627e-11
-2.55127e-08
-2.56615e-08
2.1767e-11
-8.48012e-11
-3.0016e-11
2.13147e-11
2.66487e-08
-2.66205e-08
-8.08563e-11
2.28669e-08
1.72267e-11
-2.28366e-08
1.07224e-10
-1.06017e-11
2.84728e-11
-2.56564e-08
-1.76136e-11
-2.54389e-08
-5.93668e-11
-4.03435e-11
-5.6174e-11
2.24226e-08
-2.23942e-08
-3.9416e-11
2.41315e-08
-2.40877e-08
1.71084e-11
3.73465e-11
-2.54545e-08
-4.44685e-12
7.14882e-11
-2.23066e-08
-1.04824e-10
-2.82267e-11
1.44347e-10
2.5421e-08
-2.53442e-08
-6.29189e-12
2.07942e-10
-2.45767e-08
-1.42465e-12
2.67662e-13
-2.60605e-13
-4.31506e-09
-6.23622e-13
2.07693e-13
-1.68373e-13
-2.31481e-09
-2.23382e-13
1.28735e-13
-9.84514e-14
-1.13521e-09
-4.71767e-14
6.19574e-14
-4.67114e-14
-4.68979e-10
1.65206e-14
-1.25534e-14
-1.11318e-10
-4.12828e-13
-5.10869e-14
4.31039e-09
4.00125e-14
-4.31062e-09
-2.26832e-13
-3.36092e-14
2.31202e-09
3.04739e-14
-2.3122e-09
-9.69655e-14
-1.76898e-14
1.13385e-09
1.62362e-14
-1.13398e-09
-2.36377e-14
-6.69341e-15
4.68382e-10
6.51964e-15
-4.68455e-10
-1.002e-15
1.11177e-10
1.57662e-15
-1.11201e-10
-8.81512e-13
-2.31992e-09
-3.92225e-13
-1.25159e-09
-1.42389e-13
-6.16348e-10
-3.02277e-14
-2.55391e-10
-6.0731e-11
-4.5406e-13
2.31682e-09
-1.54287e-13
-2.31704e-09
-2.39179e-13
1.24986e-09
-9.58146e-14
-1.25002e-09
-1.00046e-13
6.15514e-10
-5.23344e-14
-6.15618e-10
-2.46394e-14
2.55041e-10
-2.37193e-14
-2.55099e-10
6.06529e-11
-6.47227e-15
-6.06721e-11
-4.66708e-13
4.07775e-14
2.31623e-09
-1.5242e-13
-2.31644e-09
-2.45739e-13
2.20329e-14
1.24963e-09
-8.96608e-14
-1.24978e-09
-1.02618e-13
9.85083e-15
6.1537e-10
-4.75494e-14
-6.15475e-10
-2.5206e-14
2.94811e-15
2.55007e-10
-2.12869e-14
-2.55066e-10
3.40254e-17
6.06342e-11
-5.82277e-15
-6.06536e-11
-4.38369e-13
4.30976e-09
-4.30997e-09
5.8391e-15
-2.40064e-13
2.31172e-09
-2.3119e-09
1.67886e-15
-1.02112e-13
1.13372e-09
-1.13385e-09
-1.19164e-15
-2.47884e-14
4.68378e-10
-4.68452e-10
-1.27931e-15
1.11184e-10
-1.11209e-10
-3.74783e-16
1.67393e-13
6.24825e-15
5.38746e-14
5.53932e-14
-1.10249e-14
3.67601e-14
1.89174e-14
-7.91701e-15
1.90323e-14
5.21554e-15
-3.33155e-15
7.72246e-15
-6.91754e-16
1.76965e-15
-1.20044e-13
-2.69462e-09
9.0619e-14
-1.81344e-13
-7.44015e-14
-1.45025e-09
5.87504e-14
-1.07665e-13
-3.049e-14
-7.12919e-10
3.47618e-14
-6.13439e-14
-6.41783e-15
-2.9501e-10
1.66462e-14
-2.94427e-14
-7.0105e-11
4.4497e-15
-8.25482e-15
-3.06832e-13
6.712e-14
2.94591e-09
-2.60424e-15
-2.94604e-09
-1.83137e-13
3.02737e-14
1.58333e-09
-2.50804e-15
-1.58348e-09
-7.91361e-14
1.17185e-14
7.77637e-10
-1.53075e-15
-7.77751e-10
-1.88768e-14
3.83986e-15
3.21572e-10
-6.92858e-16
-3.21635e-10
8.05146e-16
7.63959e-11
-1.7302e-16
-7.64154e-11
-2.94597e-13
9.91792e-14
-2.69474e-09
-1.71888e-13
5.07908e-14
-1.45039e-09
-7.44969e-14
2.25351e-14
-7.13027e-10
-1.82387e-14
8.04887e-15
-2.9507e-10
1.40689e-15
-7.01238e-11
-1.88683e-13
2.8803e-16
-1.08259e-13
-3.58118e-16
-4.28973e-14
-2.28129e-16
-8.82115e-15
-8.29404e-17
-1.41232e-17
1.93202e-13
7.10079e-14
7.43222e-14
2.8618e-14
2.67347e-14
1.35259e-14
6.66487e-15
6.24592e-15
1.68647e-15
-1.26787e-13
-2.69333e-09
8.85617e-14
-1.7352e-13
-7.79314e-14
-1.44955e-09
5.90782e-14
-1.05536e-13
-3.18438e-14
-7.12544e-10
3.52458e-14
-6.08456e-14
-6.69375e-15
-2.94877e-10
1.69139e-14
-2.9334e-14
-7.00733e-11
4.53382e-15
-8.23378e-15
-3.0886e-13
6.58389e-14
2.94518e-09
-2.94531e-09
-1.84236e-13
2.70778e-14
1.58295e-09
-1.5831e-09
-7.9605e-14
9.39915e-15
7.7745e-10
-7.77566e-10
-1.89915e-14
2.69762e-15
3.21496e-10
-3.2156e-10
5.01301e-16
7.63779e-11
-7.63976e-11
-2.97262e-13
1.05595e-13
-2.69346e-09
-1.7351e-13
5.12437e-14
-1.4497e-09
-7.51811e-14
2.18535e-14
-7.12655e-10
-1.83935e-14
7.57927e-15
-2.94939e-10
1.27765e-15
-7.00924e-11
-1.94786e-13
-1.11354e-13
-4.41189e-14
-9.09967e-15
1.73839e-13
-1.5011e-14
7.00029e-14
6.48391e-14
2.80994e-15
3.14664e-14
2.31871e-14
2.51982e-15
1.58469e-14
5.91882e-15
8.02044e-16
7.39802e-15
2.97613e-17
1.98636e-15
1.52077e-13
3.20311e-14
4.72355e-14
1.98084e-14
1.56541e-14
9.36974e-15
4.51534e-15
3.48905e-15
7.39228e-16
9.25743e-14
3.97971e-14
-5.04611e-14
-2.30342e-09
3.22686e-14
2.27375e-14
-2.69274e-14
-1.24235e-09
1.20661e-14
1.17886e-14
-1.39754e-14
-6.1172e-10
3.63761e-15
5.11661e-15
-6.12866e-15
-2.53424e-10
1.2838e-15
-1.54398e-15
-6.02784e-11
2.04345e-13
-4.31373e-09
8.29875e-14
7.25356e-14
-2.31377e-09
3.37316e-14
2.69427e-14
-1.13474e-09
1.47445e-14
7.77277e-15
-4.68762e-10
5.75635e-15
-1.11286e-10
1.28869e-15
-6.56869e-13
1.74787e-13
-1.26078e-13
4.11998e-09
-4.12075e-09
-2.95448e-13
1.16698e-13
-7.28512e-14
2.21154e-09
-2.21194e-09
-1.09778e-13
6.77722e-14
-3.83856e-14
1.08507e-09
-1.08529e-09
-2.4277e-14
3.14869e-14
-1.64467e-14
4.48481e-10
-4.48581e-10
8.18096e-15
-4.00625e-15
1.06499e-10
-1.06528e-10
-3.98477e-13
2.30358e-09
-2.30413e-09
-1.78854e-13
1.24256e-09
-1.24283e-09
-6.65694e-14
6.11726e-10
-6.11869e-10
-1.48408e-14
2.53473e-10
-2.5354e-10
6.02728e-11
-6.0292e-11
7.58157e-14
-1.06641e-13
5.65141e-14
-6.34153e-14
3.07876e-14
-3.36623e-14
9.90421e-15
-1.39405e-14
-2.81851e-15
-3.76859e-13
-7.0613e-14
4.11967e-09
-4.11997e-09
-1.97165e-13
-4.05341e-14
2.21109e-09
-2.21131e-09
-8.17018e-14
-1.98179e-14
1.08496e-09
-1.0851e-09
-1.96591e-14
-7.45634e-15
4.48422e-10
-4.48493e-10
-1.381e-15
1.06465e-10
-1.06487e-10
-2.5125e-13
2.30108e-09
-2.30125e-09
-1.39526e-13
1.24104e-09
-1.24116e-09
-5.99283e-14
6.11087e-10
-6.11171e-10
-1.49742e-14
2.53179e-10
-2.53225e-10
6.01994e-11
-6.02142e-11
7.34158e-14
3.91252e-14
2.46515e-14
2.92069e-14
9.01178e-15
1.52502e-14
2.6834e-15
6.09272e-15
1.27993e-15
-9.164e-14
-5.03409e-14
-4.26703e-14
-2.545e-14
-1.19608e-14
-1.09357e-14
-9.63957e-16
-3.86488e-15
-9.47574e-16
6.74329e-14
1.94719e-14
8.30376e-15
3.40187e-15
1.20494e-13
-4.29605e-09
4.15791e-14
-2.30368e-09
1.61455e-14
-1.1295e-09
5.19762e-15
-4.6653e-10
-1.10749e-10
-4.16705e-13
-4.29641e-09
-2.18843e-13
-2.30392e-09
-9.26041e-14
-1.12966e-09
-2.26268e-14
-4.66615e-10
-1.10776e-10
9.72453e-14
-4.29365e-09
3.03721e-14
-2.3025e-09
1.19806e-14
-1.12885e-09
4.32988e-15
-4.66314e-10
-1.10675e-10
-4.38907e-13
-4.29402e-09
-2.2994e-13
-2.30274e-09
-9.69176e-14
-1.12901e-09
-2.3565e-14
-4.66402e-10
-1.10704e-10
5.57734e-14
1.89878e-14
-2.30081e-09
1.38381e-14
1.18973e-14
-1.24098e-09
4.3812e-15
4.8375e-15
-6.11057e-10
1.62912e-15
1.30222e-15
-2.53163e-10
7.03224e-17
-6.02051e-11
1.04649e-13
3.2105e-14
-4.11955e-09
3.33229e-14
1.70473e-14
-2.21116e-09
1.1736e-14
7.81597e-15
-1.08495e-09
3.63485e-15
2.94979e-15
-4.48376e-10
6.27972e-16
-1.06473e-10
1.55447e-13
-4.12061e-09
5.69387e-14
-2.2117e-09
2.08313e-14
-1.08521e-09
5.7592e-15
-4.48464e-10
-1.06507e-10
3.59327e-10
2.03284e-10
1.14364e-07
2.36455e-10
2.70691e-10
1.41007e-10
4.71384e-11
2.86347e-10
8.52919e-11
1.49338e-10
-1.15211e-07
-9.32211e-10
-6.53051e-11
1.08831e-10
5.81975e-11
2.70629e-08
-2.72218e-08
5.71978e-11
1.14741e-10
1.09888e-10
-1.61901e-11
-9.59408e-11
1.24517e-07
-1.2463e-07
1.63521e-12
-1.12237e-10
-6.92281e-11
1.13438e-07
6.9059e-11
4.7209e-11
-2.0079e-11
-4.06336e-11
1.08036e-10
-3.88e-11
1.13587e-10
-1.13497e-07
-1.14371e-07
5.42399e-11
3.95324e-10
-9.01969e-10
1.14599e-07
5.94813e-11
4.98607e-11
-7.50236e-12
1.62611e-11
7.6051e-11
3.69105e-11
-7.09692e-12
-2.71816e-08
3.82951e-11
-4.68826e-11
9.37069e-11
7.25084e-11
2.7024e-08
1.12626e-10
1.14811e-10
-1.24189e-07
-6.16721e-11
-5.88216e-11
1.24082e-07
-1.13259e-07
1.64196e-13
-1.15472e-10
-5.71434e-11
1.13204e-07
6.79123e-11
4.60202e-11
-1.72008e-11
-4.28435e-11
1.0568e-10
1.11502e-10
-4.35009e-11
-1.1451e-07
-4.53769e-12
-1.14511e-10
-5.59634e-11
1.14455e-07
5.4621e-11
5.03317e-11
-8.82206e-12
1.42141e-11
7.52913e-11
5.33341e-11
-8.93946e-12
-2.71416e-08
-1.46162e-11
4.78398e-12
8.99367e-11
7.19586e-11
2.69896e-08
1.04149e-10
1.06462e-10
-1.23777e-07
-5.85064e-11
-5.59389e-11
1.23681e-07
-1.13063e-07
-1.88203e-12
-1.07291e-10
-5.33152e-11
1.13023e-07
6.58199e-11
4.35059e-11
-2.42066e-11
-4.69984e-11
1.01805e-10
1.07591e-10
-4.50307e-11
-1.1431e-07
-6.43949e-12
-1.06209e-10
-5.19177e-11
1.14269e-07
5.231e-11
4.73771e-11
-1.19471e-11
1.07952e-11
7.1367e-11
4.92687e-11
-1.31886e-11
-2.71217e-08
-1.17513e-11
6.7951e-12
8.66292e-11
6.89813e-11
2.6971e-08
9.25214e-11
9.36975e-11
-1.23413e-07
-5.36921e-11
-5.15622e-11
1.23333e-07
-1.12925e-07
-4.6635e-12
-9.47046e-11
-4.6296e-11
1.12899e-07
6.18913e-11
3.98629e-11
-2.36966e-11
-5.23088e-11
9.64751e-11
1.02394e-10
-5.26699e-11
-1.14167e-07
-9.62279e-12
-9.47813e-11
-4.44557e-11
1.14141e-07
4.86648e-11
4.37147e-11
-1.57812e-11
6.69218e-12
6.60915e-11
4.39291e-11
-1.86184e-11
-2.71139e-08
-7.30799e-12
9.95825e-12
8.21605e-11
6.47257e-11
2.69644e-08
7.69014e-11
7.69194e-11
-1.23117e-07
-4.68498e-11
-4.52648e-11
1.23056e-07
-1.1285e-07
-8.61647e-12
-7.78075e-11
-3.73023e-11
1.12842e-07
5.76913e-11
3.5512e-11
-3.23997e-11
-5.84978e-11
9.02492e-11
9.61012e-11
-5.61177e-11
-1.14087e-07
-1.38776e-11
-7.86303e-11
-3.42653e-11
1.14076e-07
4.40138e-11
3.91171e-11
-2.04822e-11
2.29867e-12
5.96135e-11
3.76858e-11
-2.48985e-11
-2.7117e-08
-1.07597e-12
1.42263e-11
7.65822e-11
5.93743e-11
2.69679e-08
5.66814e-11
5.65393e-11
-1.22903e-07
-3.74452e-11
-3.61244e-11
1.22863e-07
-1.12836e-07
-1.31003e-11
-5.7049e-11
-2.56212e-11
1.12839e-07
5.25283e-11
3.0703e-11
-3.2947e-11
-6.52035e-11
8.34089e-11
8.90659e-11
-6.50262e-11
-1.14065e-07
-1.84804e-11
-5.71413e-11
-2.23474e-11
1.14069e-07
3.90954e-11
3.45024e-11
-2.51458e-11
-4.91914e-12
5.23995e-11
3.02861e-11
-3.17606e-11
-2.71287e-08
3.43745e-12
1.89368e-11
7.14441e-11
5.41725e-11
2.69807e-08
3.29463e-11
3.32325e-11
-1.22779e-07
-2.55829e-11
-2.39326e-11
1.22762e-07
-1.12875e-07
-1.83224e-11
-3.3254e-11
-1.3037e-11
1.12892e-07
4.69189e-11
2.57734e-11
-4.18698e-11
-7.22196e-11
7.62952e-11
8.16332e-11
-6.91664e-11
-1.14099e-07
-2.30392e-11
-3.27462e-11
-1.22326e-11
1.14116e-07
3.43336e-11
3.01428e-11
-2.95172e-11
-1.27395e-11
4.52679e-11
2.24923e-11
-3.835e-11
-2.71483e-08
8.17868e-12
2.36061e-11
6.63071e-11
4.90441e-11
2.70012e-08
8.02374e-12
8.88013e-12
-1.22747e-07
-1.18272e-11
-1.06168e-11
1.22752e-07
-1.12959e-07
-2.33509e-11
-9.10254e-12
-5.12786e-13
1.12984e-07
4.19415e-11
2.10143e-11
-4.20107e-11
-7.88966e-11
6.94318e-11
7.444e-11
-7.7947e-11
-1.14181e-07
-2.77767e-11
-8.30048e-12
-1.38574e-12
1.14207e-07
2.94965e-11
2.58177e-11
-3.37953e-11
-1.95552e-11
3.85465e-11
1.49994e-11
-4.44558e-11
-2.71733e-08
1.30483e-11
2.83563e-11
6.11508e-11
4.41234e-11
2.70266e-08
-1.51166e-11
-1.42324e-11
-1.22799e-07
2.25547e-12
3.09153e-12
1.22823e-07
-1.13076e-07
-2.78215e-11
1.42376e-11
1.00697e-11
1.13108e-07
3.76697e-11
1.73471e-11
-4.99876e-11
-8.45872e-11
6.35303e-11
6.81336e-11
-8.07418e-11
-1.14297e-07
-3.19953e-11
1.45415e-11
8.11737e-12
1.1433e-07
2.53648e-11
2.22121e-11
-3.72687e-11
-2.51136e-11
3.27505e-11
8.24405e-12
-4.94965e-11
-2.72009e-08
1.73737e-11
3.2632e-11
5.67289e-11
4.00179e-11
2.70542e-08
-3.34709e-11
-3.17678e-11
-1.22916e-07
1.32572e-11
1.45545e-11
1.22954e-07
-1.13209e-07
-3.12362e-11
3.24969e-11
1.81045e-11
1.13243e-07
3.46353e-11
1.44369e-11
-4.81374e-11
-8.87852e-11
5.89189e-11
6.32611e-11
-8.71899e-11
-1.14433e-07
-3.52733e-11
3.20129e-11
1.53737e-11
1.1447e-07
2.2229e-11
1.96102e-11
-3.96708e-11
-2.90052e-11
2.84203e-11
2.64332e-12
-5.3035e-11
-2.72288e-08
2.07707e-11
3.6066e-11
5.32799e-11
3.68718e-11
2.70818e-08
-4.68534e-11
-4.46676e-11
-1.23083e-07
2.12306e-11
2.26927e-11
1.2313e-07
-1.13353e-07
-3.37449e-11
4.60669e-11
2.38378e-11
1.13388e-07
3.21922e-11
1.29579e-11
-5.39156e-11
-9.11782e-11
5.57867e-11
5.97785e-11
-8.6895e-11
-1.14582e-07
-3.75853e-11
4.60316e-11
2.07602e-11
1.14619e-07
2.01441e-11
1.80818e-11
-4.09028e-11
-3.16448e-11
2.51086e-11
-1.12817e-12
-5.53552e-11
-2.72555e-08
2.34377e-11
3.8515e-11
5.11515e-11
3.45926e-11
2.71078e-08
-5.66427e-11
-5.47e-11
-1.23282e-07
2.90819e-11
3.01753e-11
1.23334e-07
-1.13483e-07
-3.48184e-11
5.59714e-11
2.7325e-11
1.13508e-07
3.17442e-11
1.2494e-11
-4.96311e-11
-9.16057e-11
5.48813e-11
5.84279e-11
-8.94829e-11
-1.14718e-07
-3.86018e-11
5.67718e-11
2.37162e-11
1.14746e-07
1.95198e-11
1.78741e-11
-4.0743e-11
-3.23419e-11
2.38886e-11
-2.26325e-12
-5.57266e-11
-2.72754e-08
2.46529e-11
3.95049e-11
5.09087e-11
3.41023e-11
2.71263e-08
-6.02095e-11
-5.7655e-11
-1.23488e-07
3.39979e-11
3.53227e-11
1.23537e-07
-1.13569e-07
-3.41013e-11
5.84719e-11
2.63821e-11
1.13581e-07
3.27785e-11
1.39987e-11
-5.21338e-11
-8.95914e-11
5.67424e-11
5.99424e-11
-8.48387e-11
-1.14808e-07
-3.77011e-11
6.03183e-11
2.28218e-11
1.14822e-07
2.08666e-11
1.93617e-11
-3.89966e-11
-3.04845e-11
2.56466e-11
-1.48786e-12
-5.3682e-11
-2.72829e-08
2.38183e-11
3.8471e-11
5.27915e-11
3.58045e-11
2.7132e-08
-5.44032e-11
-5.12201e-11
-1.23668e-07
3.38838e-11
3.52342e-11
1.23705e-07
-1.13595e-07
-3.15448e-11
5.15439e-11
2.17457e-11
1.13591e-07
3.57097e-11
1.65082e-11
-4.51068e-11
-8.58126e-11
6.05784e-11
6.37934e-11
-8.35593e-11
-1.14838e-07
-3.5256e-11
5.39732e-11
1.76146e-11
1.14837e-07
2.35388e-11
2.19782e-11
-3.63639e-11
-2.65381e-11
2.97079e-11
2.59515e-12
-4.99406e-11
-2.72772e-08
2.13337e-11
3.58879e-11
5.60493e-11
3.88816e-11
2.7125e-08
-4.04107e-11
-3.78008e-11
-1.23794e-07
2.48982e-11
3.15629e-11
1.23816e-07
-1.13572e-07
-2.85564e-11
3.78408e-11
1.41527e-11
1.13563e-07
3.8636e-11
1.93865e-11
-4.67532e-11
-8.16625e-11
6.47419e-11
6.82681e-11
-7.71576e-11
-1.14816e-07
-3.25564e-11
3.86684e-11
1.13521e-11
1.14807e-07
2.61931e-11
2.4494e-11
-3.39942e-11
-2.17907e-11
3.4093e-11
8.3231e-12
-4.59109e-11
-2.72635e-08
1.83769e-11
3.31231e-11
5.91141e-11
4.18942e-11
2.7111e-08
-2.46801e-11
-1.24639e-07
2.03213e-11
2.02927e-11
-2.81439e-11
1.24652e-07
-1.14463e-07
-3.22047e-11
2.23032e-11
9.29664e-12
1.09337e-10
2.65753e-11
-1.13856e-10
-4.83066e-10
3.53655e-10
4.77445e-10
-3.59978e-10
-1.15382e-07
2.74025e-10
2.61403e-11
6.85842e-12
2.06788e-10
-2.76089e-10
-2.09441e-10
-1.34004e-10
2.5775e-10
1.28097e-10
-2.63303e-10
1.15365e-07
-2.74226e-08
-2.9565e-10
-2.7435e-10
3.31887e-10
2.72511e-10
2.73882e-08
3.63713e-10
3.02639e-10
2.73466e-08
-2.73867e-08
-2.66889e-10
-3.43912e-12
2.71823e-08
-2.70369e-08
-3.676e-11
-1.45277e-11
-9.07121e-11
1.30366e-10
1.14489e-07
5.9886e-11
-3.16556e-12
-1.58084e-11
3.47944e-11
7.85774e-11
1.37861e-12
3.81735e-11
-1.14704e-07
-1.74171e-10
-1.14894e-07
1.43366e-10
-3.31034e-10
-1.20353e-11
-1.48035e-10
-2.64861e-10
-4.95528e-12
3.10536e-11
-1.75651e-10
1.28135e-09
6.37293e-12
1.14357e-07
-1.14291e-07
-3.1806e-10
5.09113e-11
-1.18496e-11
6.2695e-11
3.47908e-11
-4.67213e-12
7.1623e-11
3.19214e-11
9.77781e-12
-2.70333e-08
-3.78575e-11
-1.41378e-11
-8.99564e-11
-7.3559e-12
-1.32003e-12
8.38254e-11
8.10575e-11
2.70165e-08
-2.71727e-08
-4.34871e-11
-4.64739e-11
2.71348e-08
-2.6988e-08
-2.8298e-11
-2.85283e-11
-6.07426e-11
1.15777e-07
5.28621e-11
4.34058e-11
-1.34255e-12
3.77849e-11
7.57989e-11
-5.42374e-12
2.96134e-11
-1.15841e-07
7.28553e-12
-1.18489e-10
-5.90441e-11
1.15818e-07
5.33496e-11
4.43001e-11
-8.14831e-13
3.92111e-11
7.62606e-11
-3.43668e-12
2.97809e-11
-1.15886e-07
1.15593e-07
-1.14033e-10
-1.15653e-07
-6.21752e-11
7.15274e-12
-1.58693e-12
5.23901e-11
2.86667e-11
-5.99529e-12
7.49445e-11
3.71068e-11
4.369e-11
1.15631e-07
-1.14319e-10
-1.15691e-07
-6.2494e-11
6.81465e-12
-1.81076e-12
5.30512e-11
2.86922e-11
-5.48316e-12
7.45989e-11
3.70948e-11
8.25608e-11
8.1106e-11
2.701e-08
-2.71647e-08
-4.64436e-11
2.71339e-08
-2.69862e-08
-2.82706e-11
-2.93021e-11
-6.56874e-11
1.13465e-07
6.8643e-11
4.62156e-11
-2.09155e-11
-4.14995e-11
1.06416e-10
-3.95552e-11
1.12682e-10
-1.13523e-07
-4.49791e-11
-4.74681e-10
6.27168e-10
1.14648e-07
6.19754e-11
3.83303e-11
-1.70663e-11
-2.17178e-11
1.06513e-10
-3.87451e-11
1.07055e-10
-1.14992e-07
1.13286e-07
-1.15417e-10
-1.13344e-07
-5.70439e-11
1.02888e-12
-2.09074e-11
6.85943e-11
1.12106e-10
-4.00481e-11
1.05879e-10
-4.20067e-11
3.69169e-11
1.14341e-07
-1.14898e-10
-1.14401e-07
-6.17565e-11
1.52994e-11
-1.71497e-11
6.63118e-11
9.13558e-11
-3.94342e-11
1.04589e-10
-2.14543e-11
-4.6123e-10
6.42232e-10
1.14635e-07
6.39841e-11
4.12159e-11
-1.54129e-11
-2.14794e-11
1.07318e-10
-3.89196e-11
1.07999e-10
-1.15022e-07
-1.16054e-10
-1.13316e-07
-5.74195e-11
4.76207e-13
-2.10284e-11
6.84476e-11
1.12121e-10
-4.02877e-11
-4.21101e-11
1.06306e-10
3.6612e-11
1.14324e-07
-1.13959e-10
-1.14384e-07
-6.10803e-11
1.5004e-11
-1.7284e-11
6.58785e-11
9.16025e-11
-4.00222e-11
1.05165e-10
-2.19443e-11
9.58893e-11
7.22775e-11
2.70234e-08
-5.08542e-11
2.71369e-08
-2.69922e-08
-3.62739e-11
-2.06172e-11
3.80858e-10
-9.26039e-10
1.14637e-07
5.84738e-11
4.63869e-11
-8.87515e-12
1.62305e-11
7.57591e-11
-6.11479e-12
3.6281e-11
-1.16032e-10
-1.14568e-07
-5.59672e-11
-4.2096e-12
-8.2874e-12
5.50043e-11
5.36455e-11
-8.07568e-12
1.48819e-11
7.58836e-11
5.10239e-11
1.14554e-07
-1.16541e-10
-1.14612e-07
-5.64143e-11
-4.46575e-12
-8.30835e-12
5.54137e-11
5.37473e-11
-7.66392e-12
7.5484e-11
1.5101e-11
-2.69961e-08
-3.73513e-11
-2.05293e-11
-6.70879e-12
-6.36553e-13
8.19746e-11
7.91181e-11
2.69811e-08
-4.11317e-11
-4.40099e-11
2.71141e-08
-2.69653e-08
-3.16939e-11
-3.19614e-11
-6.18303e-11
1.15536e-07
5.20653e-11
4.29826e-11
-2.26015e-12
3.6392e-11
7.44273e-11
2.80456e-11
-6.86014e-12
6.44083e-12
-1.11771e-10
-6.16956e-11
1.15574e-07
5.25235e-11
4.32794e-11
-6.93701e-12
3.64624e-11
7.42234e-11
2.79837e-11
-3.52217e-12
1.15386e-07
-1.06524e-10
-1.15433e-07
-5.8693e-11
4.46165e-12
-4.51156e-12
5.02338e-11
2.50631e-11
-9.92389e-12
7.16379e-11
3.38314e-11
4.14544e-11
1.15421e-07
-1.06746e-10
-1.15468e-07
-5.92619e-11
4.1433e-12
-4.63485e-12
5.12564e-11
2.51559e-11
-9.78417e-12
7.15811e-11
3.38494e-11
8.08262e-11
7.98817e-11
2.69798e-08
-4.42501e-11
2.71143e-08
-2.69648e-08
-3.13783e-11
-3.23875e-11
-5.68363e-11
1.13231e-07
6.8251e-11
4.5919e-11
-2.1467e-11
-4.28804e-11
1.05289e-10
1.11523e-10
-4.09045e-11
1.48577e-11
-1.13878e-10
-6.11597e-11
1.14284e-07
6.59777e-11
3.63839e-11
-1.76979e-11
-2.23261e-11
1.03989e-10
9.07576e-11
-4.02831e-11
1.13087e-07
-1.08805e-10
-1.13132e-07
-5.36161e-11
-1.14769e-12
-2.34212e-11
6.63244e-11
1.08495e-10
-4.38862e-11
1.02285e-10
-4.59488e-11
3.4398e-11
1.14137e-07
-1.08015e-10
-1.14182e-07
-5.78764e-11
1.26782e-11
-1.97365e-11
6.40107e-11
8.77526e-11
-4.32745e-11
1.01014e-10
-2.54618e-11
-1.13999e-10
-6.07658e-11
1.14268e-07
6.55341e-11
3.62062e-11
-1.76948e-11
-2.2665e-11
1.04555e-10
-4.07156e-11
9.09945e-11
-1.09598e-10
-1.13107e-07
-5.43092e-11
-1.34648e-12
-2.33394e-11
6.67608e-11
1.0873e-10
-4.38948e-11
-4.58456e-11
1.02948e-10
3.43273e-11
1.14121e-07
-1.0868e-10
-1.14166e-07
-5.79792e-11
1.26266e-11
-1.96532e-11
6.37665e-11
8.82984e-11
-4.35835e-11
1.01873e-10
-2.56381e-11
8.90015e-11
7.29623e-11
2.69852e-08
-4.81096e-11
2.71157e-08
-2.69695e-08
-3.98623e-11
-2.38616e-11
-1.14929e-10
-5.59175e-11
1.145e-07
5.49725e-11
5.05885e-11
-8.79944e-12
1.44764e-11
7.47953e-11
-8.48537e-12
5.30577e-11
-1.08479e-10
-1.14355e-07
-5.309e-11
-5.82825e-12
-1.1175e-11
5.30392e-11
5.04021e-11
-1.20482e-11
1.1721e-11
7.24537e-11
4.87683e-11
1.14353e-07
-1.08811e-10
-1.14398e-07
-5.34859e-11
-6.19048e-12
-1.07774e-11
5.31892e-11
5.02122e-11
-1.15774e-11
7.20463e-11
1.2e-11
-2.69745e-08
-4.05707e-11
-2.34922e-11
-3.52917e-12
1.64909e-12
7.85464e-11
7.56859e-11
2.69617e-08
-3.79123e-11
-4.06551e-11
2.7106e-08
-2.69556e-08
-3.56728e-11
-3.60815e-11
-5.73694e-11
1.15343e-07
4.95296e-11
4.0444e-11
-5.30944e-12
3.28468e-11
7.05861e-11
2.38918e-11
-1.10381e-11
3.28395e-12
-1.04103e-10
-5.78185e-11
1.15378e-07
5.03638e-11
4.08058e-11
-5.52317e-12
3.28489e-11
7.04376e-11
2.39126e-11
-1.09597e-11
1.15238e-07
-9.5718e-11
-1.15269e-07
-5.19035e-11
1.78257e-13
-8.09766e-12
4.70113e-11
1.98888e-11
-1.4845e-11
6.69261e-11
2.96674e-11
3.83602e-11
1.15272e-07
-9.55782e-11
-1.15303e-07
-5.26103e-11
1.3871e-13
-8.20464e-12
4.77939e-11
1.9843e-11
-1.47787e-11
6.66976e-11
2.96544e-11
7.77104e-11
7.66258e-11
2.69614e-08
-4.08931e-11
2.71066e-08
-2.69554e-08
-3.55553e-11
-3.64079e-11
-5.26963e-11
1.13047e-07
6.56031e-11
4.32837e-11
-2.41758e-11
-4.70974e-11
1.01196e-10
1.07386e-10
-4.50004e-11
1.18208e-11
-1.05575e-10
-5.65204e-11
1.14095e-07
6.32633e-11
3.36501e-11
-2.05101e-11
-2.66151e-11
9.99252e-11
8.66393e-11
-4.43684e-11
1.12949e-07
-9.73625e-11
-1.12978e-07
-4.78392e-11
-3.64505e-12
-2.6895e-11
6.2987e-11
1.0357e-10
-4.8794e-11
9.73505e-11
-5.10385e-11
3.09683e-11
1.13993e-07
-9.62192e-11
-1.14023e-07
-5.11513e-11
8.6438e-12
-2.33032e-11
6.05608e-11
8.28347e-11
-4.81066e-11
9.61131e-11
-3.05475e-11
-1.06271e-10
-5.65772e-11
1.14079e-07
6.29922e-11
3.35671e-11
-2.04503e-11
-2.6798e-11
1.00783e-10
-4.46893e-11
8.71802e-11
-9.81825e-11
-1.12954e-07
-4.83439e-11
-3.8791e-12
-2.68808e-11
6.30099e-11
1.03782e-10
-4.88058e-11
-5.08874e-11
9.79193e-11
3.09016e-11
1.13979e-07
-9.70036e-11
-1.14008e-07
-5.11423e-11
8.56921e-12
-2.32364e-11
6.02631e-11
8.3382e-11
-4.84013e-11
9.69557e-11
-3.06933e-11
8.5409e-11
6.97607e-11
2.6966e-08
-4.47379e-11
2.71079e-08
-2.69599e-08
-4.42417e-11
-2.80727e-11
-1.06385e-10
-5.23054e-11
1.14311e-07
5.24589e-11
4.80445e-11
-1.15545e-11
1.10418e-11
7.09253e-11
-1.27633e-11
4.90445e-11
-9.80629e-11
-1.14197e-07
-4.65214e-11
-8.70771e-12
-1.47171e-11
4.9689e-11
4.53726e-11
-1.71404e-11
7.73212e-12
6.75503e-11
4.54379e-11
1.1421e-07
-9.81087e-11
-1.1424e-07
-4.71489e-11
-9.04764e-12
-1.4316e-11
4.98451e-11
4.50836e-11
-1.67606e-11
6.70662e-11
7.95789e-12
-2.6965e-08
-4.49017e-11
-2.76715e-11
8.48213e-13
4.46091e-12
7.39648e-11
7.15789e-11
2.69551e-08
-3.34981e-11
-3.64016e-11
2.71089e-08
-2.69576e-08
-4.05893e-11
-4.07742e-11
-4.97664e-11
1.15211e-07
4.60095e-11
3.69051e-11
-9.17624e-12
2.85072e-11
6.55173e-11
1.83783e-11
-1.6254e-11
-8.60639e-13
-9.22052e-11
-5.02322e-11
1.15246e-07
4.66616e-11
3.72993e-11
-1.34775e-11
2.85051e-11
6.52751e-11
1.83341e-11
-1.34046e-11
1.15154e-07
-8.12896e-11
-1.15169e-07
-4.19678e-11