/*--------------------------------*- C++ -*----------------------------------*\
| =========                 |                                                 |
| \\      /  F ield         | OpenFOAM: The Open Source CFD Toolbox           |
|  \\    /   O peration     | Version:  2206                                  |
|   \\  /    A nd           | Website:  www.openfoam.com                      |
|    \\/     M anipulation  |                                                 |
\*---------------------------------------------------------------------------*/
FoamFile
{
    version     2.0;
    format      ascii;
    arch        "LSB;label=32;scalar=64";
    class       volVectorField;
    location    "1";
    object      U;
}
// * * * * * * * * * * * * * * * * * * * * * * * * * * * * * * * * * * * * * //

dimensions      [0 1 -1 0 0 0 0];

internalField   nonuniform List<vector> 
66701
(
(3.22547e-06 3.13285e-06 0.0607387)
(4.75019e-06 -8.65853e-07 0.058714)
(1.03299e-05 1.50609e-06 0.0709338)
(1.26624e-05 -5.13012e-08 0.0820113)
(4.04057e-06 -8.81786e-07 0.0662056)
(1.50814e-05 -2.69658e-07 0.0961534)
(1.55538e-05 -5.35079e-07 0.0927397)
(3.42717e-06 -4.00964e-07 0.0686855)
(4.9775e-06 1.12961e-06 0.0587129)
(1.08701e-05 -1.46639e-06 0.0709315)
(1.31302e-05 3.51374e-07 0.0820077)
(4.12575e-06 1.10453e-06 0.0662027)
(1.52012e-05 5.1906e-07 0.0961529)
(3.48901e-06 5.12193e-07 0.0686837)
(1.5637e-05 8.59941e-07 0.0927364)
(3.58502e-06 -3.16164e-06 0.0607359)
(9.73461e-07 1.45622e-06 0.0428996)
(3.23411e-07 9.19954e-07 0.029155)
(3.76681e-08 6.21644e-07 0.0182321)
(-7.43169e-08 3.64079e-07 0.00964987)
(-4.80425e-08 1.28487e-07 0.00294537)
(2.33781e-06 -1.18854e-06 0.0427208)
(1.22371e-06 -9.61809e-07 0.02905)
(6.15045e-07 -6.78966e-07 0.018174)
(2.48166e-07 -4.02382e-07 0.00962236)
(5.86491e-08 -1.36269e-07 0.00293799)
(2.95437e-06 -2.33808e-07 0.0417099)
(1.42697e-06 -2.95641e-07 0.0282507)
(6.66934e-07 -2.03772e-07 0.0176232)
(2.38501e-07 -1.13006e-07 0.00931029)
(4.45682e-08 -3.23894e-08 0.0028365)
(3.11937e-06 1.85819e-07 0.0417098)
(1.49757e-06 2.44953e-07 0.0282512)
(6.93918e-07 1.73718e-07 0.0176236)
(2.45658e-07 1.01493e-07 0.00931026)
(4.48606e-08 3.0603e-08 0.0028364)
(1.10294e-06 -1.58833e-06 0.0428978)
(3.54865e-07 -1.04892e-06 0.0291543)
(3.39597e-08 -7.09276e-07 0.018232)
(-8.55774e-08 -4.09517e-07 0.0096502)
(-5.39523e-08 -1.41641e-07 0.00294555)
(2.47162e-06 1.34537e-06 0.0427202)
(1.29343e-06 1.056e-06 0.0290497)
(6.49384e-07 7.39333e-07 0.0181739)
(2.62821e-07 4.37463e-07 0.00962229)
(6.23078e-08 1.48195e-07 0.00293777)
(1.08705e-06 -4.5718e-07 0.042519)
(5.60131e-07 -1.70268e-07 0.0288353)
(2.69918e-07 -4.63548e-08 0.018003)
(9.03694e-08 -8.39156e-09 0.009517)
(1.44571e-08 8.73789e-10 0.00290138)
(9.47245e-07 -3.32177e-07 0.0428379)
(4.97956e-07 -2.44524e-07 0.0290684)
(2.48089e-07 -1.70716e-07 0.0181576)
(8.53069e-08 -1.03422e-07 0.00960243)
(1.38182e-08 -3.6591e-08 0.00292864)
(1.12504e-06 5.51664e-07 0.0425177)
(5.81277e-07 2.22377e-07 0.0288342)
(2.79702e-07 7.67419e-08 0.0180023)
(9.41468e-08 2.43768e-08 0.00951678)
(1.52546e-08 3.94782e-09 0.00290131)
(9.6584e-07 3.7219e-07 0.0428369)
(5.07581e-07 2.64995e-07 0.0290676)
(2.52174e-07 1.81854e-07 0.018157)
(8.65858e-08 1.08431e-07 0.00960213)
(1.39665e-08 3.75846e-08 0.00292855)
(8.83367e-06 7.67152e-06 0.0608055)
(2.39218e-06 2.84362e-06 0.0607417)
(0.000119556 0.000112533 0.127857)
(1.27953e-05 8.63385e-06 0.0838027)
(7.00068e-06 7.95904e-06 0.0836188)
(6.80762e-06 1.29327e-05 0.0710492)
(1.43009e-05 1.8729e-05 0.133675)
(1.10538e-05 3.22252e-05 0.0981198)
(1.54268e-05 -3.10249e-07 0.096158)
(9.90761e-06 1.26889e-06 0.0709365)
(3.9381e-05 -5.75413e-07 0.114345)
(1.55367e-05 7.4151e-06 0.133285)
(3.02897e-05 6.69704e-06 0.098009)
(2.36183e-05 3.68571e-06 0.138488)
(1.55026e-05 4.37194e-07 0.0961577)
(1.01395e-05 -1.28027e-06 0.0709348)
(3.95052e-05 8.9163e-07 0.114342)
(1.81532e-05 -9.52985e-06 0.133292)
(2.49553e-05 -1.35098e-06 0.138465)
(3.04606e-05 -6.83293e-06 0.098007)
(2.58701e-06 -2.87932e-06 0.0607391)
(0.000118184 -0.000115085 0.127892)
(6.87877e-06 -8.04445e-06 0.0836236)
(-2.3354e-06 -1.49347e-06 0.0605565)
(-3.97581e-06 -4.07831e-06 0.0760939)
(5.78318e-06 1.88922e-06 0.0595223)
(3.25132e-06 1.01964e-06 0.0594778)
(7.73821e-06 5.40784e-06 0.076401)
(8.57887e-07 -1.12134e-06 0.0593662)
(-7.29795e-07 -1.3788e-06 0.059303)
(-7.15151e-06 -1.76532e-05 0.0945264)
(8.37881e-06 4.27553e-06 0.0703581)
(2.48082e-05 3.49543e-05 0.106821)
(-3.26884e-06 -5.99874e-06 0.0836939)
(1.41299e-05 2.00512e-05 0.0949124)
(1.28265e-06 -4.54967e-06 0.0701665)
(-1.24582e-05 -2.82637e-05 0.106525)
(-1.71507e-05 -6.94067e-06 0.0942404)
(5.42563e-06 1.87431e-06 0.0701278)
(3.44525e-05 1.81004e-05 0.10655)
(-4.76025e-06 -5.78365e-06 0.0832535)
(2.23137e-05 8.46344e-06 0.0946803)
(-3.08098e-06 -2.47235e-06 0.0698703)
(-2.77171e-05 -1.31944e-05 0.106061)
(-1.23923e-06 2.45167e-06 0.065942)
(1.58256e-05 -5.81577e-07 0.0927432)
(3.19213e-06 -5.02591e-07 0.0686873)
(-9.3271e-06 8.38555e-07 0.0956174)
(3.77946e-06 -1.33542e-06 0.0662061)
(-1.05778e-05 1.94557e-06 0.0922376)
(-4.95215e-07 6.55255e-07 0.0684002)
(-2.25207e-06 2.97359e-06 0.0585258)
(1.21964e-05 2.90206e-07 0.082016)
(-8.39504e-06 -6.38587e-07 0.0706724)
(3.75237e-06 -8.90148e-07 0.0587196)
(-9.96167e-06 1.88799e-06 0.0816383)
(-1.14659e-06 -2.24291e-06 0.0659392)
(3.21266e-06 5.46641e-07 0.0686858)
(1.57837e-05 9.08735e-07 0.0927406)
(-9.18885e-06 -6.07245e-07 0.0956169)
(3.83352e-06 1.55644e-06 0.0662036)
(-4.23777e-07 -5.66049e-07 0.0683984)
(-1.05322e-05 -1.63246e-06 0.0922344)
(-2.02643e-06 -2.69531e-06 0.0585247)
(1.24213e-05 4.21463e-08 0.0820129)
(-7.88524e-06 6.50795e-07 0.07067)
(3.99518e-06 1.18484e-06 0.0587187)
(-9.61225e-06 -1.55499e-06 0.0816348)
(-2.21423e-06 1.43074e-06 0.0605536)
(-3.96823e-06 4.5108e-06 0.0761078)
(-1.07748e-06 1.45456e-06 0.0593049)
(-9.833e-07 1.90298e-06 0.0593823)
(-1.73005e-05 7.13423e-06 0.0942352)
(3.2526e-05 -1.92995e-05 0.10658)
(-4.5788e-06 5.55043e-06 0.0832576)
(-2.70193e-05 1.26899e-05 0.106092)
(-2.98993e-06 2.44162e-06 0.0698619)
(-6.19197e-06 1.88487e-05 0.0945493)
(-5.25771e-06 5.556e-06 0.0837277)
(-1.79523e-06 4.22004e-06 0.070196)
(-1.02121e-05 2.83411e-05 0.106494)
(-6.32303e-07 3.15974e-06 0.0608297)
(2.06456e-05 1.87351e-05 0.143591)
(7.29623e-06 2.67801e-05 0.148265)
(2.73979e-05 1.06906e-05 0.147848)
(1.29343e-05 1.53932e-05 0.152653)
(-1.96325e-05 1.98906e-05 0.143586)
(-7.33677e-06 2.82026e-05 0.148272)
(-2.7287e-05 1.12171e-05 0.147834)
(-1.10666e-05 1.49934e-05 0.152655)
(2.74723e-05 -9.15507e-06 0.147896)
(1.25451e-05 -1.21524e-05 0.152634)
(-2.66229e-05 -9.94406e-06 0.147886)
(-1.21126e-05 -1.35968e-05 0.152626)
(-2.59074e-05 -2.65966e-05 0.109091)
(-9.86294e-05 -0.000104642 0.127713)
(0.000132948 3.45767e-05 0.119688)
(3.63705e-05 0.000125776 0.119454)
(3.49933e-05 2.94476e-05 0.109506)
(-0.000116777 -2.51983e-05 0.119381)
(-2.41356e-05 -0.000119171 0.119078)
(1.01438e-05 -0.000136819 0.121062)
(4.56936e-06 3.93284e-05 0.106678)
(1.2461e-05 0.000151416 0.115051)
(-1.41743e-06 -2.53603e-05 0.0981944)
(9.25377e-07 -0.000134582 0.115041)
(5.10762e-06 0.000151069 0.120818)
(2.25097e-06 -3.069e-05 0.106789)
(-0.000132712 1.91579e-06 0.123946)
(3.98295e-05 -8.89462e-07 0.111835)
(0.000149757 4.05153e-07 0.126192)
(-2.4671e-05 1.51432e-06 0.113753)
(0.000155402 9.62028e-07 0.124359)
(-2.6343e-05 2.84573e-06 0.111275)
(-0.000126288 1.78261e-06 0.125742)
(-0.000139503 2.6058e-06 0.120387)
(3.68902e-05 3.60932e-07 0.106581)
(0.000152589 9.36448e-06 0.114889)
(-2.26231e-05 -4.43479e-06 0.097546)
(-0.000136519 -4.16796e-06 0.11444)
(0.000154949 2.25619e-06 0.120756)
(-2.81909e-05 2.55974e-06 0.106069)
(-0.000132051 -1.5864e-06 0.123923)
(0.000150235 2.9452e-07 0.126177)
(3.97598e-05 9.88357e-07 0.111828)
(-2.45493e-05 -1.00961e-06 0.11375)
(0.000154813 -1.11768e-06 0.124337)
(-0.000124913 -1.12065e-06 0.125728)
(-2.65733e-05 -2.49795e-06 0.111267)
(-0.000136529 -2.35281e-06 0.120356)
(3.72885e-05 -3.13638e-07 0.106574)
(0.000152933 -1.03577e-05 0.114875)
(-2.21536e-05 4.31504e-06 0.0975426)
(0.000155289 -3.00284e-06 0.120729)
(-2.82357e-05 -2.18114e-06 0.106061)
(-0.000134034 4.34014e-06 0.114427)
(-2.47305e-05 2.71598e-05 0.109098)
(-0.000100887 0.000103618 0.127723)
(3.4016e-05 -0.00012992 0.119531)
(-2.51657e-05 0.000117768 0.119162)
(-0.000112662 2.67887e-05 0.119286)
(6.4591e-06 3.43868e-06 0.0429157)
(4.44086e-06 7.16453e-07 0.0291728)
(2.85743e-06 -3.77246e-07 0.018245)
(1.57717e-06 -5.22875e-07 0.00965706)
(5.08063e-07 -2.38631e-07 0.00294758)
(8.24145e-07 1.12406e-06 0.0429012)
(6.1111e-07 6.12493e-07 0.0291567)
(3.08418e-07 3.42291e-07 0.0182337)
(7.76617e-08 1.74976e-07 0.00965096)
(-5.31965e-09 5.87378e-08 0.00294579)
(5.66362e-06 5.05124e-06 0.0417313)
(4.53614e-06 1.55308e-06 0.0282722)
(3.21509e-06 -1.03212e-08 0.0176379)
(1.88584e-06 -3.8573e-07 0.00931797)
(6.33668e-07 -2.11513e-07 0.00283881)
(3.14807e-06 -4.20745e-07 0.0417112)
(1.90279e-06 -5.56545e-07 0.0282526)
(1.01928e-06 -5.15652e-07 0.0176251)
(4.14887e-07 -3.55726e-07 0.00931164)
(9.04195e-08 -1.29608e-07 0.00283702)
(3.18987e-06 2.74686e-07 0.0417114)
(1.88154e-06 3.78888e-07 0.0282533)
(9.82111e-07 3.65823e-07 0.0176257)
(3.84938e-07 2.62362e-07 0.00931173)
(7.8302e-08 9.77538e-08 0.00283696)
(8.18202e-07 -1.33397e-06 0.0428994)
(5.20614e-07 -8.86572e-07 0.029156)
(2.09775e-07 -5.74388e-07 0.0182337)
(8.50872e-09 -3.18896e-07 0.00965135)
(-3.06285e-08 -1.07674e-07 0.00294599)
(-2.46938e-07 -7.7405e-07 0.0428137)
(8.67347e-08 -5.63976e-07 0.0291093)
(1.0761e-07 -3.63931e-07 0.0182072)
(7.10125e-08 -1.85936e-07 0.00963762)
(1.85423e-08 -5.59332e-08 0.00294178)
(5.52447e-07 2.05571e-06 0.0424087)
(2.40202e-07 1.70216e-06 0.0287755)
(1.92668e-08 1.28553e-06 0.0179703)
(-5.66426e-08 7.96177e-07 0.0095009)
(-4.19063e-08 2.7993e-07 0.00289667)
(1.29101e-06 -3.66859e-07 0.0428402)
(9.6754e-07 -2.54431e-07 0.0290714)
(5.15002e-07 -1.71158e-07 0.0181603)
(1.78194e-07 -1.01114e-07 0.00960428)
(2.20123e-08 -3.52745e-08 0.00292931)
(1.49501e-06 -8.70871e-07 0.0425206)
(1.03347e-06 -4.1426e-07 0.0288379)
(5.32405e-07 -1.45155e-07 0.0180056)
(1.79914e-07 -2.73582e-08 0.00951875)
(2.16315e-08 5.83081e-09 0.00290203)
(1.14961e-06 5.53568e-07 0.0427239)
(6.5879e-07 4.24316e-07 0.0290065)
(2.67901e-07 2.98247e-07 0.0181236)
(7.37726e-08 1.74842e-07 0.00958568)
(-8.9751e-10 5.81945e-08 0.00292372)
(-1.35048e-06 -1.62595e-07 0.0416227)
(-4.30483e-07 -2.18551e-07 0.0282057)
(-1.54496e-07 -1.65647e-07 0.0175991)
(-4.13299e-08 -7.8464e-08 0.00929855)
(-1.04465e-08 -2.05752e-08 0.00283308)
(5.96707e-07 -2.00212e-06 0.0424074)
(2.67956e-07 -1.69273e-06 0.0287745)
(2.93267e-08 -1.28807e-06 0.0179697)
(-5.43335e-08 -7.99641e-07 0.00950072)
(-4.19759e-08 -2.81435e-07 0.0028966)
(1.29965e-06 2.92562e-07 0.0428393)
(9.69504e-07 1.66463e-07 0.0290708)
(5.14623e-07 1.02245e-07 0.0181599)
(1.77136e-07 6.04369e-08 0.00960403)
(2.14518e-08 2.18082e-08 0.00292924)
(1.51639e-06 9.13399e-07 0.0425196)
(1.0424e-06 4.01054e-07 0.028837)
(5.34295e-07 1.20076e-07 0.0180051)
(1.79054e-07 9.148e-09 0.00951862)
(2.08471e-08 -1.23395e-08 0.00290199)
(1.18239e-06 -5.53288e-07 0.0427229)
(6.77265e-07 -4.41219e-07 0.0290057)
(2.75111e-07 -3.11991e-07 0.0181231)
(7.57014e-08 -1.82288e-07 0.0095854)
(-8.10995e-10 -6.05609e-08 0.00292364)
(-1.24964e-06 5.82492e-08 0.0416226)
(-4.1015e-07 9.42312e-08 0.0282062)
(-1.62227e-07 6.87488e-08 0.0175996)
(-5.41316e-08 2.25895e-08 0.00929856)
(-1.67182e-08 2.82688e-09 0.00283299)
(-2.87859e-07 6.00832e-07 0.0428119)
(1.39392e-08 3.64696e-07 0.0291085)
(4.06792e-08 2.0897e-07 0.0182072)
(2.75622e-08 9.5494e-08 0.00963799)
(3.22999e-09 2.67228e-08 0.00294197)
(1.2984e-07 8.91774e-07 0.0418486)
(2.5023e-07 4.162e-07 0.0283563)
(1.98455e-07 2.42076e-07 0.0176922)
(1.2315e-07 1.24298e-07 0.00934747)
(3.86614e-08 4.33772e-08 0.0028481)
(-3.52668e-08 8.79386e-07 0.0428707)
(9.52853e-08 3.51594e-07 0.0291461)
(9.05872e-08 1.73111e-07 0.0182297)
(5.89061e-08 7.61973e-08 0.0096496)
(1.65211e-08 2.64366e-08 0.00294558)
(3.31681e-06 6.65131e-07 0.0427617)
(2.1099e-06 -1.09041e-07 0.029048)
(1.23531e-06 -3.83595e-07 0.0181598)
(6.15421e-07 -3.29467e-07 0.00960981)
(1.8032e-07 -1.30324e-07 0.00293261)
(3.85095e-06 9.453e-07 0.041922)
(2.59319e-06 -1.54862e-07 0.0283968)
(1.6999e-06 -5.31569e-07 0.0177143)
(9.54984e-07 -4.67437e-07 0.00935862)
(3.12733e-07 -1.90143e-07 0.00285119)
(1.90857e-06 -1.31107e-06 0.0418474)
(1.3883e-06 -1.37909e-06 0.0283574)
(1.05805e-06 -9.90217e-07 0.0176928)
(6.58211e-07 -5.59196e-07 0.00934795)
(2.26391e-07 -1.83421e-07 0.00284804)
(1.64375e-06 4.59261e-09 0.0427596)
(1.04818e-06 -5.45684e-08 0.0290451)
(5.69218e-07 -8.4465e-08 0.0181578)
(2.34129e-07 -7.5664e-08 0.00960841)
(5.05531e-08 -2.92862e-08 0.00293201)
(1.66313e-06 -1.30957e-08 0.0418841)
(1.17685e-06 -1.18503e-07 0.0283693)
(6.72405e-07 -1.59379e-07 0.0176975)
(2.84935e-07 -1.31408e-07 0.0093493)
(6.44969e-08 -5.09851e-08 0.00284834)
(-3.48389e-08 -8.04731e-07 0.0417907)
(2.11674e-07 -5.5959e-07 0.0283185)
(1.63133e-07 -3.54098e-07 0.0176692)
(9.10166e-08 -1.75928e-07 0.00933511)
(2.26588e-08 -5.13081e-08 0.00284409)
(8.03021e-07 8.37633e-08 0.0426824)
(2.59019e-07 1.67475e-08 0.0290044)
(2.72471e-08 4.45894e-08 0.0181354)
(-5.28699e-08 5.53337e-08 0.00959761)
(-4.16762e-08 2.59342e-08 0.00292897)
(1.97221e-07 -4.87883e-07 0.0426735)
(2.54312e-07 -4.03427e-07 0.0289982)
(2.01028e-07 -2.76864e-07 0.0181317)
(1.19257e-07 -1.56732e-07 0.00959533)
(3.56688e-08 -5.4014e-08 0.0029281)
(-9.66014e-07 2.18726e-06 0.0426281)
(-5.63135e-07 1.53448e-06 0.029001)
(-3.52254e-07 1.07617e-06 0.0181474)
(-1.98007e-07 6.54347e-07 0.00960935)
(-7.17217e-08 2.30146e-07 0.00293419)
(1.83455e-06 -1.55767e-06 0.0427253)
(1.21374e-06 -1.34782e-06 0.029054)
(7.04507e-07 -9.85591e-07 0.0181771)
(3.13263e-07 -5.90832e-07 0.00962437)
(7.89207e-08 -2.00916e-07 0.00293871)
(-8.46227e-07 -2.06271e-06 0.0426277)
(-5.08968e-07 -1.48764e-06 0.0290007)
(-3.29087e-07 -1.05957e-06 0.0181474)
(-1.90691e-07 -6.47808e-07 0.00960932)
(-7.07901e-08 -2.28176e-07 0.00293398)
(1.95883e-06 1.67467e-06 0.042725)
(1.26524e-06 1.36832e-06 0.0290538)
(7.21546e-07 9.74464e-07 0.0181772)
(3.16091e-07 5.783e-07 0.00962439)
(7.82119e-08 1.96101e-07 0.00293852)
(-1.07483e-07 4.88589e-07 0.0417886)
(9.58265e-08 2.73505e-07 0.0283175)
(6.9628e-08 1.54926e-07 0.0176687)
(3.26644e-08 6.92565e-08 0.0093352)
(2.17582e-09 1.99039e-08 0.00284422)
(-1.11825e-07 3.7228e-07 0.0426753)
(-7.9352e-09 1.76149e-07 0.0289993)
(-6.9869e-09 6.60081e-08 0.018132)
(-1.11545e-08 1.277e-08 0.00959553)
(-1.06686e-08 8.06425e-10 0.00292835)
(5.652e-08 7.96059e-07 0.0426904)
(1.72777e-07 4.30105e-07 0.0290086)
(1.52334e-07 2.49147e-07 0.0181375)
(9.8199e-08 1.24796e-07 0.00959859)
(3.03089e-08 4.06962e-08 0.00292932)
(-8.82657e-05 0.000149661 0.134262)
(1.79405e-05 2.24129e-05 0.127706)
(-9.07053e-05 -8.7056e-05 0.144396)
(0.000145416 -9.45687e-05 0.133228)
(-8.64555e-05 0.000141732 0.133639)
(1.91585e-05 2.05671e-05 0.12752)
(-9.09613e-05 -9.02858e-05 0.143889)
(0.000140202 -9.19055e-05 0.132945)
(-8.67177e-05 0.000140607 0.133359)
(1.37481e-05 1.37587e-05 0.127368)
(-8.56515e-05 -8.43009e-05 0.143417)
(0.000126781 -8.40615e-05 0.132723)
(-7.98911e-05 0.000128754 0.133133)
(1.97703e-06 2.39225e-06 0.127275)
(-7.7758e-05 -7.5609e-05 0.143004)
(0.000108191 -7.19575e-05 0.132571)
(-6.80132e-05 0.000111277 0.132975)
(-1.50667e-05 -1.44292e-05 0.127239)
(-6.66881e-05 -6.48833e-05 0.142672)
(8.50928e-05 -5.53023e-05 0.132493)
(-5.17947e-05 8.62697e-05 0.132891)
(-3.70129e-05 -3.53975e-05 0.127254)
(-5.21026e-05 -5.06427e-05 0.142436)
(5.87233e-05 -3.72442e-05 0.132483)
(-3.33487e-05 5.74384e-05 0.132874)
(-5.94169e-05 -5.82597e-05 0.127311)
(-3.43007e-05 -3.26526e-05 0.142305)
(2.98783e-05 -1.72154e-05 0.132536)
(-1.64685e-05 2.85835e-05 0.132921)
(-8.16206e-05 -8.17675e-05 0.127405)
(-1.47765e-05 -1.4408e-05 0.142279)
(1.82127e-06 1.06067e-06 0.13264)
(6.33214e-07 7.33218e-07 0.133022)
(-0.000104072 -0.000104547 0.127523)
(5.94611e-06 5.25835e-06 0.142351)
(-2.46009e-05 1.7801e-05 0.13278)
(1.64093e-05 -2.49163e-05 0.133161)
(-0.000123673 -0.000123872 0.127654)
(2.22773e-05 2.1461e-05 0.142494)
(-4.47046e-05 2.97992e-05 0.132938)
(2.85179e-05 -4.36446e-05 0.133322)
(-0.000139284 -0.000138817 0.127785)
(3.30691e-05 3.31125e-05 0.142693)
(-5.97195e-05 3.94261e-05 0.133107)
(3.71534e-05 -5.95056e-05 0.133495)
(-0.000149985 -0.000150378 0.127911)
(4.28088e-05 4.31204e-05 0.142926)
(-6.79807e-05 4.32996e-05 0.133254)
(4.10997e-05 -6.92353e-05 0.133648)
(-0.000153885 -0.000155279 0.128003)
(4.83711e-05 4.92316e-05 0.143162)
(-6.60776e-05 4.14148e-05 0.133345)
(3.80893e-05 -6.74902e-05 0.133743)
(-0.000148837 -0.000151067 0.128035)
(4.70388e-05 4.79554e-05 0.143362)
(-5.32966e-05 3.20307e-05 0.133362)
(2.92037e-05 -5.45565e-05 0.133766)
(-0.00013699 -0.00013981 0.128006)
(3.87569e-05 3.93038e-05 0.1435)
(-3.53319e-05 2.14765e-05 0.133323)
(1.90835e-05 -3.61197e-05 0.133729)
(-0.00012452 -0.000126907 0.127935)
(2.60471e-05 3.11355e-05 0.143582)
(-2.11656e-05 1.43494e-05 0.133642)
(7.51612e-06 -2.01448e-05 0.13397)
(-0.000114398 -0.000118686 0.128149)
(-2.21054e-05 2.68193e-05 0.127774)
(-0.000206442 0.000206596 0.12743)
(8.44723e-05 0.000145333 0.133988)
(-8.92008e-05 0.000141784 0.133723)
(8.83204e-05 0.000146811 0.13373)
(0.000206218 0.000209166 0.127395)
(-1.87979e-05 -1.77488e-05 0.127566)
(-0.000203403 -0.000204795 0.127265)
(-8.92318e-05 -0.000142195 0.133675)
(9.15234e-05 -0.000147147 0.133688)
(-9.08439e-05 -0.000145109 0.133455)
(9.20623e-05 -0.000145258 0.133465)
(1.91496e-05 -1.83102e-05 0.127528)
(0.000202295 -0.000202964 0.127258)
(-0.000139527 -8.95396e-05 0.133248)
(-0.000139526 8.62271e-05 0.133263)
(-0.000141787 -9.25454e-05 0.13303)
(-0.000140277 9.14462e-05 0.133038)
(0.00014445 8.86615e-05 0.133246)
(0.000142092 -9.29562e-05 0.133011)
(0.000140491 9.05061e-05 0.133021)
(-1.84659e-05 1.81793e-05 0.127551)
(-0.000202502 0.000204358 0.127249)
(8.74643e-05 0.000146771 0.13365)
(-8.7515e-05 0.000142573 0.133423)
(8.79361e-05 0.00014285 0.133433)
(0.000201498 0.000203113 0.127244)
(-1.48381e-05 -1.50084e-05 0.127388)
(-0.000191815 -0.00019321 0.127166)
(-9.01925e-05 -0.000143357 0.133389)
(9.06728e-05 -0.000143085 0.133398)
(-8.59296e-05 -0.000135392 0.133209)
(8.69529e-05 -0.000135731 0.133216)
(1.52518e-05 -1.36276e-05 0.127381)
(0.000191472 -0.000192985 0.127164)
(-0.000139538 -9.13993e-05 0.132965)
(-0.00013801 9.035e-05 0.132971)
(-0.000129744 -8.59528e-05 0.13279)
(-0.000128214 8.47605e-05 0.132793)
(0.000138461 8.97985e-05 0.132954)
(0.000130575 -8.61953e-05 0.132773)
(0.000129133 8.47661e-05 0.132777)
(-1.38967e-05 1.47836e-05 0.127373)
(-0.000190163 0.000192896 0.12715)
(8.70711e-05 0.000140939 0.133368)
(-8.19911e-05 0.000132052 0.133183)
(8.2485e-05 0.000132473 0.133192)
(0.000190337 0.000192581 0.127149)
(-2.78774e-06 -2.804e-06 0.127291)
(-0.000177108 -0.000178004 0.127127)
(-8.4008e-05 -0.000132268 0.133157)
(8.48648e-05 -0.000132344 0.133164)
(-7.65339e-05 -0.00012071 0.133028)
(7.76051e-05 -0.000120679 0.133034)
(3.30262e-06 -2.49807e-06 0.127289)
(0.000177486 -0.000177731 0.127126)
(-0.000126005 -8.37253e-05 0.13274)
(-0.000124489 8.2505e-05 0.132742)
(-0.000112431 -7.51795e-05 0.132618)
(-0.000111052 7.39344e-05 0.132617)
(0.00012533 8.24164e-05 0.132726)
(0.000113193 -7.54031e-05 0.132602)
(0.000111926 7.38219e-05 0.132602)
(-1.10197e-06 2.72041e-06 0.127276)
(-0.000174387 0.000177651 0.127111)
(8.04053e-05 0.000128973 0.133141)
(-7.15075e-05 0.000116463 0.133008)
(7.21214e-05 0.000116576 0.133015)
(0.000174747 0.000177374 0.12711)
(1.32389e-05 1.37807e-05 0.127255)
(-0.000158515 -0.000159607 0.127139)
(-7.31941e-05 -0.000115761 0.132995)
(7.36833e-05 -0.000115658 0.133001)
(-6.10606e-05 -9.81198e-05 0.132923)
(6.19175e-05 -9.80257e-05 0.132928)
(-1.15757e-05 1.37172e-05 0.127254)
(0.000158082 -0.000159665 0.127139)
(-0.000107227 -7.16772e-05 0.132587)
(-0.000105997 7.06004e-05 0.132585)
(-9.03423e-05 -5.95847e-05 0.13252)
(-8.95726e-05 5.99835e-05 0.132516)
(0.000106867 7.0486e-05 0.13257)
(9.10833e-05 -5.93461e-05 0.132506)
(9.03105e-05 5.99079e-05 0.132502)
(1.60952e-05 -1.40741e-05 0.12724)
(-0.000154414 0.000158706 0.127122)
(6.8665e-05 0.000111332 0.132982)
(-5.60718e-05 9.30671e-05 0.132905)
(5.67638e-05 9.31695e-05 0.132912)
(0.000154773 0.000158531 0.127122)
(3.35947e-05 3.39548e-05 0.127271)
(-0.000138001 -0.000139216 0.127194)
(-5.65572e-05 -9.16263e-05 0.132908)
(5.74326e-05 -9.14202e-05 0.132913)
(-4.23244e-05 -7.10574e-05 0.132889)
(4.27966e-05 -7.10119e-05 0.132893)
(-3.31536e-05 3.40685e-05 0.127271)
(0.000138124 -0.000139173 0.127194)
(-8.43464e-05 -5.5221e-05 0.132507)
(-8.37811e-05 5.62597e-05 0.132502)
(-6.51589e-05 -4.15245e-05 0.132493)
(-6.54913e-05 4.31926e-05 0.132488)
(8.44647e-05 5.61891e-05 0.132489)
(6.54926e-05 -4.14948e-05 0.13248)
(6.59049e-05 4.32268e-05 0.132476)
(3.803e-05 -3.51067e-05 0.127254)
(-0.000134245 0.000137961 0.127175)
(5.24375e-05 8.63317e-05 0.132898)
(-3.7922e-05 6.46649e-05 0.132872)
(3.83152e-05 6.46673e-05 0.132879)
(0.000134248 0.000138033 0.127175)
(5.63653e-05 5.66921e-05 0.127329)
(-0.000117141 -0.000117447 0.12728)
(-3.73707e-05 -6.39956e-05 0.132891)
(3.75902e-05 -6.3836e-05 0.132896)
(-2.24332e-05 -4.07895e-05 0.13292)
(2.24063e-05 -4.0791e-05 0.132925)
(-5.55049e-05 5.6385e-05 0.127328)
(0.000116094 -0.000117841 0.127281)
(-5.8343e-05 -3.67204e-05 0.132496)
(-5.90127e-05 3.8398e-05 0.132492)
(-3.72142e-05 -2.18546e-05 0.132529)
(-3.82902e-05 2.36613e-05 0.132527)
(5.92627e-05 3.84824e-05 0.13248)
(3.69942e-05 -2.18407e-05 0.132518)
(3.81395e-05 2.36886e-05 0.132515)
(5.99815e-05 -5.81242e-05 0.127311)
(-0.000115345 0.000117242 0.127266)
(3.35895e-05 5.74546e-05 0.132881)
(-2.06146e-05 3.57469e-05 0.132904)
(2.0441e-05 3.57715e-05 0.132911)
(0.000114892 0.000117349 0.127265)
(8.02585e-05 8.15048e-05 0.127418)
(-9.52656e-05 -9.62274e-05 0.127391)
(-1.75147e-05 -3.2488e-05 0.132937)
(1.75147e-05 -3.23453e-05 0.132942)
(-2.41443e-06 -7.94307e-06 0.133007)
(2.11422e-06 -7.80583e-06 0.133013)
(-8.05611e-05 8.14515e-05 0.127419)
(9.48349e-05 -9.60851e-05 0.127392)
(-3.00381e-05 -1.6895e-05 0.132547)
(-3.1057e-05 1.87558e-05 0.132545)
(-8.6838e-06 -2.84384e-06 0.132621)
(-9.22303e-06 4.51585e-06 0.13262)
(3.08721e-05 1.86882e-05 0.132533)
(8.4684e-06 -2.46038e-06 0.132611)
(9.08392e-06 4.29492e-06 0.132609)
(8.1738e-05 -8.15945e-05 0.127405)
(-9.61119e-05 9.76136e-05 0.127382)
(1.62398e-05 2.85674e-05 0.132928)
(-3.63393e-06 7.5687e-06 0.132993)
(3.4246e-06 7.43538e-06 0.132999)
(9.56313e-05 9.75795e-05 0.127381)
(0.000105416 0.000105821 0.127532)
(-7.60543e-05 -7.82899e-05 0.127515)
(2.70103e-06 -5.13766e-08 0.133035)
(-2.46481e-06 2.51269e-07 0.133042)
(1.70552e-05 2.27027e-05 0.133136)
(-1.72641e-05 2.27895e-05 0.133142)
(-0.000105284 0.00010568 0.127532)
(7.53549e-05 -7.89359e-05 0.127516)
(-1.74393e-06 1.65371e-06 0.13265)
(-2.03087e-06 -1.71709e-07 0.132649)
(1.84019e-05 1.44775e-05 0.132753)
(1.89954e-05 -1.35188e-05 0.132753)
(1.88251e-06 -4.12538e-07 0.132638)
(-1.85595e-05 1.44062e-05 0.132745)
(-1.92505e-05 -1.35566e-05 0.132743)
(0.000104154 -0.000104282 0.127524)
(-7.94713e-05 8.07102e-05 0.127512)
(-8.46044e-07 5.72737e-07 0.133028)
(1.27924e-05 -1.91463e-05 0.133124)
(-1.31011e-05 -1.91928e-05 0.133131)
(7.88418e-05 8.09545e-05 0.12751)
(0.000127089 0.000126565 0.127658)
(-6.31002e-05 -6.45956e-05 0.127642)
(2.09796e-05 2.97561e-05 0.133172)
(-2.12614e-05 2.98665e-05 0.133178)
(3.06933e-05 4.7706e-05 0.13329)
(-3.20723e-05 4.74324e-05 0.133296)
(-0.000127319 0.000126262 0.127658)
(6.17322e-05 -6.50083e-05 0.127643)
(2.44897e-05 1.82886e-05 0.132789)
(2.52326e-05 -1.74522e-05 0.132789)
(3.97375e-05 2.81215e-05 0.132908)
(4.10259e-05 -2.76507e-05 0.132909)
(-2.55773e-05 -1.73974e-05 0.132779)
(-4.05526e-05 2.81826e-05 0.1329)
(-4.17871e-05 -2.7237e-05 0.132898)
(0.000123522 -0.000123891 0.127655)
(-6.73787e-05 6.8237e-05 0.127642)
(-1.68234e-05 -2.48941e-05 0.133167)
(2.57747e-05 -3.9438e-05 0.133281)
(-2.66939e-05 -3.89923e-05 0.133287)
(6.6167e-05 6.89698e-05 0.12764)
(0.000142693 0.000143086 0.127787)
(-5.58802e-05 -5.65086e-05 0.127767)
(3.36281e-05 5.26128e-05 0.133329)
(-3.48985e-05 5.25843e-05 0.133335)
(4.02124e-05 6.50498e-05 0.133462)
(-4.22483e-05 6.46611e-05 0.133466)
(-0.000143562 0.000142498 0.127786)
(5.40459e-05 -5.79067e-05 0.127766)
(4.40466e-05 3.11845e-05 0.132948)
(4.54639e-05 -3.09122e-05 0.132948)
(5.53033e-05 3.83355e-05 0.133079)
(5.65895e-05 -3.86674e-05 0.13308)
(-4.64008e-05 -3.04342e-05 0.132937)
(-5.64862e-05 3.75465e-05 0.133069)
(-5.78842e-05 -3.80733e-05 0.133068)
(0.000138476 -0.000139299 0.127788)
(-6.03435e-05 5.9675e-05 0.127769)
(-2.96731e-05 -4.314e-05 0.133327)
(3.53385e-05 -5.57437e-05 0.133455)
(-3.69986e-05 -5.51813e-05 0.13346)
(5.84877e-05 6.05627e-05 0.127765)
(0.000152854 0.000154123 0.127913)
(-5.53123e-05 -5.51571e-05 0.127863)
(4.21032e-05 6.8578e-05 0.1335)
(-4.41404e-05 6.82443e-05 0.133504)
(4.499e-05 7.61329e-05 0.133625)
(-4.71106e-05 7.57897e-05 0.133628)
(-0.000154283 0.000153144 0.127911)
(5.33798e-05 -5.56513e-05 0.12786)
(5.85308e-05 4.0348e-05 0.133119)
(5.97186e-05 -4.08559e-05 0.133119)
(6.54657e-05 4.3946e-05 0.13324)
(6.62844e-05 -4.46641e-05 0.133242)
(-6.10958e-05 -4.02788e-05 0.133106)
(-6.69366e-05 4.38227e-05 0.133227)
(-6.76472e-05 -4.41013e-05 0.133228)
(0.00014859 -0.000150984 0.127915)
(-5.94592e-05 5.78825e-05 0.127865)
(-3.89123e-05 -5.89572e-05 0.1335)
(4.06137e-05 -6.76205e-05 0.133618)
(-4.22931e-05 -6.71384e-05 0.133622)
(5.76339e-05 5.86991e-05 0.12786)
(0.000156525 0.000158621 0.128006)
(-6.21664e-05 -6.17032e-05 0.127903)
(4.57604e-05 7.76798e-05 0.133652)
(-4.73997e-05 7.76364e-05 0.133655)
(4.39094e-05 7.79301e-05 0.133741)
(-4.53249e-05 7.79382e-05 0.133743)
(-0.000157707 0.000158008 0.128001)
(6.089e-05 -6.27121e-05 0.127898)
(6.68429e-05 4.47263e-05 0.133268)
(6.76287e-05 -4.54221e-05 0.133269)
(6.67961e-05 4.30894e-05 0.133354)
(6.77859e-05 -4.38953e-05 0.133357)
(-6.896e-05 -4.49361e-05 0.133254)
(-6.77e-05 4.25374e-05 0.133339)
(-6.8742e-05 -4.35475e-05 0.133341)
(0.000152608 -0.000155779 0.128009)
(-6.62488e-05 6.467e-05 0.127904)
(-4.2682e-05 -6.88118e-05 0.133651)
(3.93855e-05 -6.90203e-05 0.133733)
(-4.05035e-05 -6.88163e-05 0.133736)
(6.49484e-05 6.51894e-05 0.127897)
(0.000152018 0.000154341 0.128039)
(-7.43824e-05 -7.45261e-05 0.127882)
(4.32241e-05 7.6504e-05 0.133747)
(-4.44365e-05 7.65882e-05 0.133748)
(3.65201e-05 6.85913e-05 0.133787)
(-3.74285e-05 6.87779e-05 0.133789)
(-0.000152763 0.000153812 0.128034)
(7.34823e-05 -7.44808e-05 0.127876)
(6.53581e-05 4.20065e-05 0.133361)
(6.65142e-05 -4.27497e-05 0.133361)
(5.72486e-05 3.52439e-05 0.133398)
(5.89889e-05 -3.66004e-05 0.1334)
(-6.74015e-05 -4.25286e-05 0.133344)
(-5.77685e-05 3.54832e-05 0.133382)
(-5.94309e-05 -3.64233e-05 0.133383)
(0.000148132 -0.000151236 0.128043)
(-7.8684e-05 7.74088e-05 0.127881)
(-3.90549e-05 -6.73416e-05 0.133746)
(3.16027e-05 -5.86078e-05 0.133779)
(-3.20903e-05 -5.85633e-05 0.133782)
(7.79738e-05 7.77009e-05 0.127874)
(0.00014081 0.000142488 0.128009)
(-8.74919e-05 -8.82383e-05 0.127834)
(3.46492e-05 6.38263e-05 0.133766)
(-3.51796e-05 6.41738e-05 0.133768)
(2.59781e-05 5.00445e-05 0.133772)
(-2.6088e-05 5.03179e-05 0.133773)
(-0.000140966 0.000142326 0.128002)
(8.68538e-05 -8.87624e-05 0.127828)
(5.30285e-05 3.27333e-05 0.13338)
(5.47443e-05 -3.38664e-05 0.133379)
(4.09795e-05 2.45847e-05 0.133384)
(4.27294e-05 -2.63717e-05 0.133385)
(-5.52215e-05 -3.39009e-05 0.133361)
(-4.09854e-05 2.46918e-05 0.133367)
(-4.27379e-05 -2.62965e-05 0.133368)
(0.00013688 -0.000139756 0.128014)
(-9.07172e-05 9.04075e-05 0.127823)
(-2.95939e-05 -5.44748e-05 0.133769)
(2.1342e-05 -4.18453e-05 0.133764)
(-2.14743e-05 -4.18645e-05 0.133766)
(9.04031e-05 9.04807e-05 0.127816)
(0.000127393 0.000128264 0.127931)
(-9.99193e-05 -9.70386e-05 0.127772)
(2.22848e-05 4.22691e-05 0.133728)
(-2.27808e-05 4.25974e-05 0.133729)
(1.66374e-05 2.97859e-05 0.133351)
(-1.60082e-05 2.93374e-05 0.133349)
(-0.000127451 0.000128264 0.127924)
(0.000100727 -9.68837e-05 0.127765)
(3.52128e-05 2.15087e-05 0.13334)
(3.62236e-05 -2.22176e-05 0.133337)
(2.73752e-05 1.5363e-05 0.133349)
(2.57663e-05 -1.68503e-05 0.13335)
(-3.64343e-05 -2.24452e-05 0.133318)
(-2.60831e-05 1.57893e-05 0.133333)
(-2.47542e-05 -1.66477e-05 0.133335)
(0.000124667 -0.000126666 0.127944)
(-0.000103278 0.000103654 0.127778)
(-1.91754e-05 -3.61022e-05 0.133732)
(1.21573e-05 -2.387e-05 0.133728)
(-1.19267e-05 -2.31492e-05 0.133729)
(0.000103527 0.000103055 0.127777)
(-1.40254e-05 2.636e-05 0.133326)
(-0.000115748 0.000121217 0.127836)
(2.23732e-05 1.28434e-05 0.133654)
(2.05362e-05 -1.26919e-05 0.133716)
(-1.9253e-05 -1.28114e-05 0.133696)
(0.000115146 -0.000118715 0.128165)
(-6.44664e-06 -1.90028e-05 0.133971)
(-2.82669e-05 8.44225e-06 0.0601482)
(-3.82916e-05 1.59482e-05 0.0603027)
(-9.54972e-06 0.000169109 0.114124)
(-2.34396e-05 0.000160949 0.140147)
(-3.36061e-05 8.33685e-05 0.0976252)
(-8.90742e-05 0.000149215 0.134158)
(-4.90064e-05 0.000127167 0.0976735)
(-1.12014e-05 0.000113131 0.11422)
(-2.62868e-05 0.000159881 0.139949)
(6.2598e-05 3.34744e-05 0.0828031)
(2.92287e-05 6.58494e-05 0.0830362)
(0.000208415 0.000208249 0.127483)
(4.74432e-05 7.3577e-05 0.0829737)
(7.32264e-05 4.13552e-05 0.0826246)
(-4.63891e-06 -0.000114163 0.0961533)
(-7.57055e-06 -3.98205e-05 0.0710082)
(-9.82865e-06 -5.77536e-05 0.0710567)
(-4.94156e-06 -8.76451e-05 0.0962024)
(7.7897e-06 -2.86233e-05 0.0607119)
(1.33815e-05 -3.2405e-05 0.0607604)
(-0.000105335 -4.23352e-06 0.0951458)
(-4.028e-05 -1.325e-05 0.070688)
(-5.54593e-05 -1.2131e-05 0.0705932)
(-8.87931e-05 -5.56233e-06 0.0955197)
(9.04736e-05 -9.13433e-05 0.14439)
(-9.09544e-05 8.78595e-05 0.144391)
(9.09009e-05 9.28403e-05 0.144393)
(-9.16162e-05 -9.11315e-05 0.144013)
(9.17045e-05 -9.0648e-05 0.144007)
(-9.07861e-05 9.28896e-05 0.144005)