/*--------------------------------*- C++ -*----------------------------------*\
| =========                 |                                                 |
| \\      /  F ield         | OpenFOAM: The Open Source CFD Toolbox           |
|  \\    /   O peration     | Version:  2206                                  |
|   \\  /    A nd           | Website:  www.openfoam.com                      |
|    \\/     M anipulation  |                                                 |
\*---------------------------------------------------------------------------*/
FoamFile
{
    version     2.0;
    format      ascii;
    arch        "LSB;label=32;scalar=64";
    class       volScalarField;
    location    "120";
    object      k;
}
// * * * * * * * * * * * * * * * * * * * * * * * * * * * * * * * * * * * * * //

dimensions      [0 2 -2 0 0 0 0];

internalField   nonuniform List<scalar> 
67442
(
7.19881e-05
0.000109379
0.000107581
0.000108302
0.000108909
0.000106958
0.000106601
0.0001096
0.000108874
0.000109147
0.000108553
0.000110706
0.000106219
3.12267e-05
8.3265e-05
2.02713e-05
3.1303e-05
8.27036e-05
7.27423e-05
7.28629e-05
7.24645e-05
8.55208e-05
9.07957e-05
0.000111348
2.02924e-05
8.54673e-05
8.54788e-05
0.000109766
4.95361e-05
4.95073e-05
1.99604e-05
2.00797e-05
5.00789e-05
4.9975e-05
3.1497e-05
8.32565e-05
8.54806e-05
8.58494e-05
0.000110564
8.63436e-05
8.7078e-05
0.000110585
5.05847e-05
4.97785e-05
2.00523e-05
8.57597e-05
9.01172e-05
0.000110448
3.17525e-05
8.29748e-05
8.94396e-05
8.61911e-05
0.000110533
3.14225e-05
8.36246e-05
9.03845e-05
8.51429e-05
0.000111794
3.13763e-05
8.37401e-05
5.03229e-05
5.03591e-05
2.00735e-05
8.51112e-05
8.5574e-05
0.00010974
3.13394e-05
8.32319e-05
3.12692e-05
8.3281e-05
1.99497e-05
1.98374e-05
1.85083e-05
3.11728e-05
4.74559e-05
4.72779e-05
1.85037e-05
2.46042e-05
8.31935e-05
2.69856e-05
7.52511e-05
2.68121e-05
7.50038e-05
2.45284e-05
2.02372e-05
2.47932e-05
8.26235e-05
7.48432e-05
2.71626e-05
1.86644e-05
3.12702e-05
4.74746e-05
4.74239e-05
1.86962e-05
1.87279e-05
3.13935e-05
4.76021e-05
2.47268e-05
8.21156e-05
7.47675e-05
2.71085e-05
7.46812e-05
2.70209e-05
2.47976e-05
2.02499e-05
2.03169e-05
8.09707e-05
0.000102403
4.93952e-05
3.11155e-05
0.000102777
3.10018e-05
8.09319e-05
7.97102e-05
0.000101363
4.94503e-05
3.06314e-05
0.000101333
3.04279e-05
7.9628e-05
3.78345e-05
1.79715e-05
1.78789e-05
1.79374e-05
1.78475e-05
3.79528e-05
1.99409e-05
2.00558e-05
2.01262e-05
8.16104e-05
0.000103254
4.99873e-05
3.12568e-05
3.12164e-05
0.0001036
8.17386e-05
8.04576e-05
0.000102836
4.99642e-05
3.09619e-05
3.08652e-05
0.000103559
8.04912e-05
3.80566e-05
1.80698e-05
1.80578e-05
1.80469e-05
1.80291e-05
3.82828e-05
1.86848e-05
3.13669e-05
4.79921e-05
4.77714e-05
1.86985e-05
2.47275e-05
8.33037e-05
2.70723e-05
7.53756e-05
2.70675e-05
7.5755e-05
2.47343e-05
8.05695e-05
0.000103224
5.05177e-05
3.12013e-05
3.113e-05
0.000103451
8.03442e-05
8.08528e-05
0.000102682
4.95577e-05
3.1214e-05
0.000102755
3.1152e-05
8.09122e-05
3.77322e-05
1.80204e-05
1.80201e-05
1.79938e-05
1.79408e-05
3.80249e-05
2.002e-05
2.49671e-05
8.31225e-05
2.72736e-05
7.5367e-05
1.88862e-05
3.1692e-05
4.78594e-05
4.78684e-05
1.89228e-05
1.89429e-05
3.18075e-05
4.80447e-05
2.48457e-05
8.24752e-05
2.72231e-05
7.5237e-05
2.71394e-05
7.49211e-05
2.4913e-05
1.88852e-05
3.13387e-05
4.79104e-05
4.77854e-05
1.89239e-05
2.51097e-05
8.35027e-05
7.56974e-05
2.76394e-05
7.56038e-05
2.7556e-05
2.51943e-05
1.87897e-05
3.13253e-05
4.76835e-05
4.7614e-05
1.8827e-05
2.48727e-05
8.35839e-05
2.76047e-05
7.54491e-05
2.75431e-05
7.50916e-05
2.49598e-05
8.12391e-05
0.00010414
5.02944e-05
3.13656e-05
3.12086e-05
0.000103634
8.12343e-05
8.2065e-05
0.000103323
5.02618e-05
3.16516e-05
0.000103409
3.15185e-05
8.20512e-05
3.83768e-05
1.82412e-05
1.82815e-05
1.82069e-05
1.82565e-05
3.85886e-05
2.00734e-05
1.85931e-05
3.13025e-05
4.79273e-05
4.7688e-05
1.86369e-05
2.46396e-05
8.30798e-05
7.52006e-05
2.70379e-05
7.49463e-05
2.70197e-05
2.46193e-05
1.86074e-05
3.1227e-05
4.78607e-05
4.75846e-05
1.86501e-05
2.46071e-05
8.2894e-05
7.4921e-05
2.68701e-05
7.52663e-05
2.69218e-05
2.46138e-05
1.99204e-05
1.98073e-05
5.26746e-05
5.43226e-05
3.37395e-05
0.00010637
0.00011499
0.000112986
0.00010735
0.000115224
0.000112804
0.000106369
0.000107564
0.000115412
0.000115746
0.000108805
0.000115484
0.000115768
0.00010762
0.000106753
0.000115257
0.000115487
0.000109999
0.000115404
0.00011457
0.000107065
0.000107748
0.00011679
0.000115447
0.000109965
0.000114795
0.000116794
0.00010778
5.18935e-05
5.49263e-05
3.40364e-05
5.47261e-05
5.28784e-05
3.35582e-05
5.41818e-05
5.27953e-05
3.37013e-05
0.000112436
0.000111279
8.51454e-05
0.000101314
0.000112224
0.000101877
0.000112377
0.000110303
0.000111624
0.000109606
0.000105961
0.000109169
0.000107423
0.000109187
0.000111085
0.000111709
8.53743e-05
0.000101529
0.000111987
0.000101615
0.000110715
0.00010687
0.000109294
0.000103347
0.00010834
0.000103118
0.000107849
0.000106975
0.00011041
0.00011136
8.565e-05
0.000101234
0.000101544
0.000110789
0.000110503
0.000106386
0.000110863
0.000108435
0.000104554
0.000108552
0.000104608
0.000107662
0.000111238
0.000111678
8.62199e-05
0.000102071
0.000102097
0.000111544
0.000110168
0.000107431
0.000109915
0.00010861
0.000104574
0.000108877
0.000103121
0.000107015
0.00011227
0.000112393
8.58223e-05
0.00010174
0.000101664
0.000112583
0.000112057
0.000108844
0.000110951
0.000108021
0.000106948
0.000108187
0.000106621
0.000108333
0.000111705
0.000112274
8.64029e-05
0.000101745
0.000101646
0.000112198
0.000111995
0.000109478
0.000111513
0.000106766
0.000108371
0.000106489
0.000108504
0.000109369
0.000111701
0.000111623
8.51189e-05
0.000100756
0.000111698
0.000101033
0.000111678
0.000108947
0.000111684
0.000106237
0.000108633
0.00010754
0.00010809
0.000109445
0.000110437
0.000110367
8.54937e-05
0.000101248
0.000110354
0.000101153
0.000109821
0.000105293
0.000109521
0.000102459
0.000107771
0.000103524
0.000107199
0.000106397
5.69945e-06
1.32217e-06
2.31598e-07
5.33348e-08
2.42565e-07
5.80535e-06
1.38095e-06
2.46671e-07
5.90298e-08
2.74219e-07
5.78682e-06
1.34269e-06
2.35067e-07
5.37554e-08
2.43487e-07
5.85054e-06
1.3912e-06
2.4834e-07
5.92845e-08
2.75045e-07
5.70958e-06
1.35788e-06
2.42652e-07
5.86401e-08
2.74064e-07
5.78947e-06
1.37685e-06
2.45888e-07
5.90105e-08
2.74707e-07
5.7732e-06
1.34141e-06
2.34958e-07
5.36683e-08
2.42861e-07
5.78371e-06
1.37601e-06
2.4589e-07
5.9064e-08
2.74959e-07
5.87221e-06
1.36241e-06
2.38407e-07
5.40708e-08
2.43762e-07
5.81354e-06
1.34927e-06
2.36256e-07
5.39028e-08
2.43775e-07
5.80152e-06
1.34659e-06
2.35831e-07
5.38468e-08
2.43601e-07
5.75072e-06
1.36886e-06
2.44761e-07
5.88755e-08
2.74279e-07
5.72756e-06
1.32844e-06
2.32693e-07
5.34519e-08
2.42716e-07
5.70717e-06
1.32433e-06
2.32066e-07
5.33782e-08
2.4261e-07
5.76202e-06
1.37142e-06
2.45094e-07
5.89461e-08
2.74699e-07
5.67297e-06
1.34908e-06
2.41141e-07
5.84571e-08
2.73836e-07
5.73002e-06
1.36356e-06
2.43737e-07
5.8714e-08
2.73805e-07
5.70981e-06
1.32605e-06
2.32332e-07
5.34058e-08
2.426e-07
5.79866e-06
1.37957e-06
2.46405e-07
5.89714e-08
2.73988e-07
5.58688e-06
1.30964e-06
2.31328e-07
5.45384e-08
2.51495e-07
5.77629e-06
1.35985e-06
2.40965e-07
5.63532e-08
2.58349e-07
5.84087e-06
1.3889e-06
2.47915e-07
5.91062e-08
2.73909e-07
5.7962e-06
1.34593e-06
2.3562e-07
5.37014e-08
2.42742e-07
5.81122e-06
1.34893e-06
2.36144e-07
5.38443e-08
2.43459e-07
5.84965e-06
1.39225e-06
2.48582e-07
5.91952e-08
2.74142e-07
5.86027e-06
1.39459e-06
2.49054e-07
5.93605e-08
2.75043e-07
5.89324e-06
1.3664e-06
2.39159e-07
5.43798e-08
2.45479e-07
5.88662e-06
1.36568e-06
2.39028e-07
5.42751e-08
2.44792e-07
5.795e-06
1.34426e-06
2.35465e-07
5.39848e-08
2.44888e-07
5.77894e-06
1.34249e-06
2.35301e-07
5.39336e-08
2.44574e-07
5.38127e-06
1.2748e-06
2.27493e-07
5.65007e-08
2.68948e-07
5.34511e-06
1.26652e-06
2.2611e-07
5.63423e-08
2.68754e-07
5.37509e-06
1.27363e-06
2.27278e-07
5.63858e-08
2.68199e-07
5.34071e-06
1.26603e-06
2.26052e-07
5.62628e-08
2.68145e-07
5.72011e-06
1.36109e-06
2.43208e-07
5.86572e-08
2.73798e-07
5.79579e-06
1.37926e-06
2.46326e-07
5.89363e-08
2.73795e-07
5.81008e-06
1.38236e-06
2.46886e-07
5.91004e-08
2.74657e-07
5.76232e-06
1.33955e-06
2.34731e-07
5.36556e-08
2.42884e-07
5.90901e-06
1.37061e-06
2.39875e-07
5.44509e-08
2.45574e-07
5.90895e-06
1.37182e-06
2.40075e-07
5.43809e-08
2.4495e-07
5.39907e-06
1.27938e-06
2.28317e-07
5.65979e-08
2.69078e-07
5.3832e-06
1.2764e-06
2.27838e-07
5.64708e-08
2.68409e-07
5.78043e-06
1.37569e-06
2.45832e-07
5.89477e-08
2.74084e-07
5.62547e-06
1.31874e-06
2.32925e-07
5.4721e-08
2.51728e-07
5.79752e-06
1.36462e-06
2.41767e-07
5.64387e-08
2.58442e-07
5.91208e-06
1.40571e-06
2.50855e-07
5.9415e-08
2.74175e-07
5.86787e-06
1.36217e-06
2.38382e-07
5.39662e-08
2.43005e-07
5.88633e-06
1.36617e-06
2.39043e-07
5.41245e-08
2.43762e-07
5.80719e-06
1.34844e-06
2.36117e-07
5.37895e-08
2.43015e-07
5.87746e-06
1.39731e-06
2.49395e-07
5.92704e-08
2.74068e-07
5.80031e-06
1.34651e-06
2.35779e-07
5.37402e-08
2.42858e-07
5.96712e-06
1.38384e-06
2.42136e-07
5.46419e-08
2.45501e-07
5.9613e-06
1.38335e-06
2.42055e-07
5.46115e-08
2.45338e-07
5.46849e-06
1.29681e-06
2.31324e-07
5.69187e-08
2.693e-07
5.75697e-06
1.37028e-06
2.44924e-07
5.88606e-08
2.74079e-07
5.76601e-06
1.37216e-06
2.45135e-07
5.88502e-08
2.73916e-07
5.72368e-06
1.3284e-06
2.32693e-07
5.34568e-08
2.42765e-07
5.76705e-06
1.37195e-06
2.45067e-07
5.88412e-08
2.73915e-07
5.70719e-06
1.32446e-06
2.32054e-07
5.33807e-08
2.42649e-07
5.75186e-06
1.36891e-06
2.44626e-07
5.87903e-08
2.73817e-07
5.6677e-06
1.34804e-06
2.4095e-07
5.84089e-08
2.73607e-07
5.78654e-06
1.37578e-06
2.45738e-07
5.89389e-08
2.74155e-07
5.9053e-06
1.40412e-06
2.5059e-07
5.94141e-08
2.74333e-07
5.46989e-06
1.28397e-06
2.27159e-07
5.40113e-08
2.50318e-07
5.65556e-06
1.3329e-06
2.36518e-07
5.57768e-08
2.56999e-07
5.64463e-06
1.33242e-06
2.36598e-07
5.57962e-08
2.57025e-07
5.46466e-06
1.28257e-06
2.26875e-07
5.39701e-08
2.50225e-07
5.72466e-06
1.36142e-06
2.43321e-07
5.865e-08
2.73642e-07
5.91931e-06
1.37342e-06
2.40312e-07
5.44562e-08
2.45339e-07
5.90676e-06
1.37042e-06
2.39786e-07
5.4358e-08
2.44935e-07
5.40301e-06
1.28169e-06
2.28759e-07
5.66421e-08
2.69058e-07
5.39223e-06
1.27887e-06
2.28269e-07
5.65165e-08
2.68405e-07
5.83909e-06
1.38776e-06
2.47702e-07
5.92025e-08
2.74832e-07
5.5757e-06
1.30697e-06
2.30798e-07
5.43525e-08
2.50457e-07
5.76704e-06
1.35776e-06
2.40599e-07
5.63214e-08
2.58371e-07
5.75865e-06
1.35647e-06
2.40388e-07
5.61499e-08
2.57179e-07
5.58559e-06
1.30885e-06
2.31123e-07
5.45202e-08
2.51537e-07
5.854e-06
1.39234e-06
2.48596e-07
5.92887e-08
2.74798e-07
5.95617e-06
1.38014e-06
2.41342e-07
5.46025e-08
2.45801e-07
5.93669e-06
1.37675e-06
2.4082e-07
5.44524e-08
2.44995e-07
5.46164e-06
1.29374e-06
2.30721e-07
5.68633e-08
2.69384e-07
5.46722e-06
1.29653e-06
2.31265e-07
5.68135e-08
2.68559e-07
5.88469e-06
1.36369e-06
2.38633e-07
5.43057e-08
2.45252e-07
5.88167e-06
1.3634e-06
2.3861e-07
5.4262e-08
2.44925e-07
5.39744e-06
1.27824e-06
2.28049e-07
5.65378e-08
2.68871e-07
5.39551e-06
1.27815e-06
2.28027e-07
5.6458e-08
2.68264e-07
5.88205e-06
1.36366e-06
2.38654e-07
5.43297e-08
2.45462e-07
5.87044e-06
1.36199e-06
2.3845e-07
5.42197e-08
2.44738e-07
5.40644e-06
1.28104e-06
2.28555e-07
5.66147e-08
2.691e-07
5.40359e-06
1.28109e-06
2.2859e-07
5.65216e-08
2.68323e-07
5.49766e-06
1.28982e-06
2.28025e-07
5.41168e-08
2.50539e-07
5.66835e-06
1.3351e-06
2.36835e-07
5.58171e-08
2.57081e-07
5.67155e-06
1.3357e-06
2.36932e-07
5.58334e-08
2.57145e-07
5.50592e-06
1.29186e-06
2.28376e-07
5.41409e-08
2.50483e-07
5.78572e-06
1.37549e-06
2.4565e-07
5.89085e-08
2.73983e-07
5.60793e-06
1.31524e-06
2.32318e-07
5.45267e-08
2.50652e-07
5.78944e-06
1.36277e-06
2.41434e-07
5.64067e-08
2.58441e-07
5.78029e-06
1.36128e-06
2.41192e-07
5.62353e-08
2.57273e-07
5.615e-06
1.31636e-06
2.32512e-07
5.46827e-08
2.51731e-07
5.91993e-06
1.40715e-06
2.51102e-07
5.95566e-08
2.75115e-07
5.92345e-06
1.4082e-06
2.51332e-07
5.95809e-08
2.75108e-07
5.91317e-06
1.40565e-06
2.50856e-07
5.95532e-08
2.75233e-07
5.66796e-06
1.32909e-06
2.34641e-07
5.47592e-08
2.50881e-07
5.88467e-06
1.38569e-06
2.45456e-07
5.6818e-08
2.58813e-07
5.87439e-06
1.38403e-06
2.45204e-07
5.66493e-08
2.57675e-07
5.67795e-06
1.33107e-06
2.34998e-07
5.49295e-08
2.51954e-07
5.62136e-06
1.31895e-06
2.32945e-07
5.45818e-08
2.50692e-07
5.87674e-06
1.38394e-06
2.45147e-07
5.67786e-08
2.58716e-07
5.87123e-06
1.38315e-06
2.44993e-07
5.66137e-08
2.57563e-07
5.64262e-06
1.32405e-06
2.33822e-07
5.47933e-08
2.51732e-07
5.88404e-06
1.39875e-06
2.49679e-07
5.9416e-08
2.7499e-07
5.46511e-06
1.29666e-06
2.31373e-07
5.68707e-08
2.6885e-07
5.77034e-06
1.37257e-06
2.45165e-07
5.88277e-08
2.73736e-07
5.47772e-06
1.28482e-06
2.27151e-07
5.40032e-08
2.50321e-07
5.66394e-06
1.33394e-06
2.3655e-07
5.57692e-08
2.56958e-07
5.66175e-06
1.3337e-06
2.36542e-07
5.57723e-08
2.56996e-07
5.47448e-06
1.28412e-06
2.27014e-07
5.39853e-08
2.50269e-07
5.77951e-06
1.37473e-06
2.45465e-07
5.88529e-08
2.73778e-07
5.46862e-06
1.28261e-06
2.26752e-07
5.39729e-08
2.50362e-07
5.64697e-06
1.33121e-06
2.36139e-07
5.57336e-08
2.56976e-07
5.6469e-06
1.33068e-06
2.36041e-07
5.57311e-08
2.57016e-07
5.47148e-06
1.28322e-06
2.26809e-07
5.39636e-08
2.50298e-07
0.000109093
0.00011074
0.000107325
7.17245e-05
8.20571e-05
8.89265e-05
0.00011079
3.16771e-05
8.30679e-05
8.91714e-05
8.64808e-05
0.000110852
2.02521e-05
5.03975e-05
2.47906e-05
8.24696e-05
7.45682e-05
2.7e-05
7.49116e-05
2.69918e-05
2.47245e-05
1.89293e-05
3.17323e-05
4.78014e-05
4.80464e-05
1.88865e-05
2.49319e-05
8.30733e-05
2.71484e-05
7.51032e-05
2.7159e-05
7.52747e-05
2.48419e-05
2.02746e-05
8.15137e-05
0.00010431
5.03977e-05
3.12443e-05
0.000103647
3.131e-05
8.15512e-05
8.18362e-05
0.000102669
0.000102576
8.17543e-05
3.84326e-05
1.81769e-05
1.81919e-05
3.83346e-05
0.00010765
0.000109476
0.000115743
0.000115546
0.000115774
0.000115184
0.000108002
5.47306e-05
3.3735e-05
5.46709e-05
5.27065e-05
3.39241e-05
0.000108763
0.000110443
0.000107793
0.000106932
0.000108188
0.000105697
0.000109043
0.000112011
0.000112359
8.639e-05
0.000101147
0.000101837
0.000111769
0.000111056
0.000108427
0.000110889
0.000105966
0.000108405
0.00010692
0.000107808
0.000108151
0.000110636
0.000110687
0.000110986
0.000109748
0.000109199
0.000105608
0.000108585
7.22216e-05
1.99341e-05
2.00292e-05
5.0035e-05
4.98172e-05
3.11886e-05
8.32446e-05
8.57403e-05
8.60075e-05
0.000110759
3.12034e-05
8.57895e-05
1.99558e-05
2.00785e-05
8.10982e-05
0.000103258
5.00891e-05
3.11745e-05
3.1207e-05
0.000102552
8.09759e-05
8.00801e-05
0.000103005
4.9925e-05
3.08704e-05
3.10384e-05
0.000102534
8.01613e-05
3.81782e-05
1.8018e-05
1.8006e-05
1.80377e-05
1.80511e-05
3.80757e-05
1.85406e-05
3.10405e-05
4.72634e-05
4.76237e-05
1.8526e-05
2.45597e-05
8.31025e-05
2.69962e-05
7.52948e-05
2.70015e-05
7.50942e-05
2.46137e-05
1.86892e-05
3.13073e-05
4.7346e-05
4.74211e-05
1.86512e-05
0.000107293
0.000108229
0.000114405
0.000114772
0.000114838
0.00011481
0.000107524
5.16601e-05
0.000109938
0.000111376
8.55601e-05
0.000101321
0.000110383
0.000101184
0.000110502
0.00010686
0.000110666
0.000108517
0.000104654
0.000108137
0.000104434
0.000106507
0.000111705
0.000112391
8.57525e-05
0.000100934
0.000112237
0.000101084
0.000112131
5.86255e-06
1.36038e-06
2.38007e-07
5.39292e-08
2.42968e-07
5.83964e-06
1.38837e-06
2.47832e-07
5.91176e-08
2.74097e-07
5.92039e-06
1.40732e-06
2.51157e-07
5.9565e-08
2.7512e-07
5.8675e-06
1.36132e-06
2.38202e-07
5.4054e-08
2.4376e-07
5.8431e-06
1.38916e-06
2.48015e-07
5.92591e-08
2.75062e-07
5.5877e-06
1.3098e-06
2.31337e-07
5.45463e-08
2.51561e-07
5.7545e-06
1.3556e-06
2.40229e-07
5.61385e-08
2.57217e-07
5.7725e-06
1.36027e-06
2.41134e-07
5.63819e-08
2.58424e-07
5.57651e-06
1.30732e-06
2.3086e-07
5.43592e-08
2.50473e-07
5.61479e-06
1.3169e-06
2.32536e-07
5.4683e-08
2.51762e-07
5.77919e-06
1.361e-06
2.41126e-07
5.62286e-08
2.57289e-07
5.79311e-06
1.36511e-06
2.41967e-07
5.64648e-08
2.58472e-07
5.60297e-06
1.31392e-06
2.32055e-07
5.44999e-08
2.50656e-07
5.91423e-06
1.40624e-06
2.5095e-07
5.94212e-08
2.74159e-07
5.94141e-06
1.37757e-06
2.40937e-07
5.44583e-08
2.44984e-07
5.94739e-06
1.37866e-06
2.41155e-07
5.45916e-08
2.45824e-07
5.44652e-06
1.29019e-06
2.30101e-07
5.67037e-08
2.68574e-07
5.44807e-06
1.29048e-06
2.30184e-07
5.68235e-08
2.69459e-07
5.70449e-06
1.35659e-06
2.42403e-07
5.85792e-08
2.73775e-07
5.77926e-06
1.3744e-06
2.45443e-07
5.88523e-08
2.73784e-07
5.69454e-06
1.32116e-06
2.31389e-07
5.33144e-08
2.42582e-07
5.77077e-06
1.33916e-06
2.34452e-07
5.35993e-08
2.42716e-07
5.70932e-06
1.35818e-06
2.42674e-07
5.86388e-08
2.74069e-07
5.78993e-06
1.37674e-06
2.45874e-07
5.90149e-08
2.74743e-07
5.73157e-06
1.36256e-06
2.43341e-07
5.86373e-08
2.73627e-07
5.69098e-06
1.32151e-06
2.3151e-07
5.33226e-08
2.42557e-07
5.77983e-06
1.34089e-06
2.34761e-07
5.37307e-08
2.43502e-07
5.38733e-06
1.27635e-06
2.2774e-07
5.64345e-08
2.68272e-07
5.3971e-06
1.27859e-06
2.28109e-07
5.64781e-08
2.68344e-07
5.83599e-06
1.38661e-06
2.47491e-07
5.91846e-08
2.74848e-07
5.82841e-06
1.38513e-06
2.47219e-07
5.9036e-08
2.73876e-07
5.87749e-06
1.36264e-06
2.38467e-07
5.42476e-08
2.4492e-07
5.88254e-06
1.36383e-06
2.38703e-07
5.43128e-08
2.45246e-07
5.87378e-06
1.36227e-06
2.38397e-07
5.42106e-08
2.44745e-07
5.89458e-06
1.36634e-06
2.39073e-07
5.43651e-08
2.45479e-07
5.40489e-06
1.28009e-06
2.28376e-07
5.66002e-08
2.69113e-07
5.38964e-06
1.2767e-06
2.27818e-07
5.65186e-08
2.68881e-07
5.46288e-06
1.28187e-06
2.26702e-07
5.39456e-08
2.50192e-07
5.66207e-06
1.33444e-06
2.36737e-07
5.57949e-08
2.57019e-07
5.65685e-06
1.33301e-06
2.36515e-07
5.57729e-08
2.56999e-07
5.47334e-06
1.28406e-06
2.27078e-07
5.3994e-08
2.50296e-07
5.73225e-06
1.3628e-06
2.43479e-07
5.86715e-08
2.73753e-07
0.000108701
7.22781e-05
0.000109422
0.000107413
0.000109388
0.000108109
0.000109758
0.000106447
0.000107885
0.000110252
0.000108768
0.000109387
0.000109232
0.000108818
0.000106952
4.938e-05
4.93e-05
0.000109469
4.92975e-05
4.94647e-05
7.9531e-05
3.11554e-05
8.25623e-05
2.0033e-05
1.96497e-05
3.05837e-05
8.22181e-05
7.28363e-05
7.28259e-05
7.17871e-05
8.59684e-05
9.12829e-05
0.000109405
0.000111216
2.00745e-05
8.64257e-05
8.53037e-05
0.000109158
4.9171e-05
4.95142e-05
1.98573e-05
1.98423e-05
1.9819e-05
1.98762e-05
0.000109747
4.92393e-05
4.95603e-05
4.90827e-05
4.95398e-05
1.97885e-05
1.97388e-05
1.9884e-05
1.98729e-05
1.99298e-05
1.9676e-05
4.98382e-05
4.90224e-05
8.00712e-05
3.13506e-05
3.02615e-05
8.25388e-05
0.000108079
8.56437e-05
8.63844e-05
8.69953e-05
0.00010915
0.000108802
8.57893e-05
8.68634e-05
0.000108208
8.36497e-05
8.77377e-05
0.000109818
4.98942e-05
5.02861e-05
0.000109524
4.89922e-05
2.01969e-05
8.45551e-05
9.09384e-05
0.000110635
3.14833e-05
8.27004e-05
9.13925e-05
8.5719e-05
0.000111128
3.12972e-05
8.24541e-05
9.03776e-05
8.49088e-05
0.000110229
3.09635e-05
8.25352e-05
4.95514e-05
4.98081e-05
1.98922e-05
8.71523e-05
8.6039e-05
0.000109913
3.11322e-05
8.29973e-05
3.13312e-05
8.29916e-05
1.97502e-05
1.98845e-05
3.80907e-05
1.79825e-05
1.79425e-05
1.80184e-05
1.79693e-05
3.79611e-05
8.11033e-05
0.000102644
3.10892e-05
4.90246e-05
3.10841e-05
8.12964e-05
0.000102316
8.02415e-05
0.00010172
3.08019e-05
4.93545e-05
3.07684e-05
7.98753e-05
0.000102012
3.80232e-05
1.80185e-05
1.79779e-05
1.79799e-05
1.79289e-05
3.81069e-05
8.12995e-05
3.08948e-05
4.93673e-05
0.000102297
3.11408e-05
8.10799e-05
0.00010253
8.01897e-05
3.06527e-05
4.95396e-05
0.000102014
3.07571e-05
7.98102e-05
0.000102208
2.3828e-05
2.57199e-05
7.14023e-05
8.07504e-05
2.62252e-05
7.28468e-05
2.36818e-05
1.84285e-05
3.11679e-05
4.74178e-05
4.68427e-05
1.84527e-05
1.81323e-05
3.06267e-05
4.59351e-05
2.42823e-05
8.17482e-05
2.66901e-05
7.4887e-05
2.65676e-05
7.39255e-05
2.44124e-05
1.99762e-05
1.99519e-05
1.84036e-05
3.07251e-05
4.65296e-05
4.65672e-05
1.83966e-05
2.45816e-05
8.16523e-05
7.40606e-05
2.69162e-05
7.42946e-05
2.69673e-05
2.45845e-05
2.00712e-05
8.1233e-05
0.000102668
3.10804e-05
4.88356e-05
8.13014e-05
0.000102888
3.09566e-05
8.01894e-05
0.000102177
3.0757e-05
4.95506e-05
8.02976e-05
0.000101527
3.07988e-05
3.78342e-05
1.79951e-05
1.79698e-05
3.80916e-05
1.79537e-05
1.79516e-05
1.9855e-05
1.98514e-05
1.97349e-05
1.98781e-05
3.8041e-05
1.80157e-05
1.79534e-05
3.81025e-05
1.7967e-05
1.78583e-05
8.09808e-05
0.000102783
3.08331e-05
4.92716e-05
8.11114e-05
3.10493e-05
0.000102862
7.98847e-05
0.000102309
3.07631e-05
4.93061e-05
8.03615e-05
3.05087e-05
0.000102224
3.80274e-05
1.79328e-05
1.7874e-05
3.80146e-05
1.79873e-05
1.79175e-05
8.13301e-05
3.10611e-05
0.000102909
4.91258e-05
8.09316e-05
3.10652e-05
0.00010295
8.00597e-05
3.04871e-05
0.000102288
4.94314e-05
8.00826e-05
3.05711e-05
0.000102327
1.97759e-05
1.97686e-05
1.9876e-05
1.97863e-05
1.99613e-05
1.97329e-05
1.96583e-05
8.10055e-05
0.000103664
4.95296e-05
3.11222e-05
3.12427e-05
0.000103633
8.11725e-05
7.91113e-05
0.00010211
4.89612e-05
3.0456e-05
3.04461e-05
0.000101444
7.97684e-05
4.94672e-05
0.000103322
3.75702e-05
1.79189e-05
1.77878e-05
1.79034e-05
1.77577e-05
3.76558e-05
2.39968e-05
2.60284e-05
7.21326e-05
8.06554e-05
2.61342e-05
7.30154e-05
2.36733e-05
1.84206e-05
3.10886e-05
4.7622e-05
4.69699e-05
1.8581e-05
1.82773e-05
4.60062e-05
3.08273e-05
4.65741e-05
1.80911e-05
2.43627e-05
8.18827e-05
2.67331e-05
7.47187e-05
2.66051e-05
7.42127e-05
2.4479e-05
3.80245e-05
1.79605e-05
1.79831e-05
1.81674e-05
8.03518e-05
0.000102894
5.00367e-05
3.09942e-05
3.09907e-05
0.000103479
8.04519e-05
8.15532e-05
0.000104137
5.02447e-05
3.1452e-05
0.000104165
3.15303e-05
8.1516e-05
8.0587e-05
3.0656e-05
4.97408e-05
0.000102271
3.10983e-05
0.000102806
8.05447e-05
8.17089e-05
5.01531e-05
0.000103996
3.1498e-05
3.81517e-05
1.80586e-05
1.81909e-05
1.7982e-05
1.80987e-05
3.82038e-05
2.01986e-05
2.01547e-05
1.88497e-05
3.14457e-05
4.77722e-05
4.77656e-05
1.88802e-05
2.49527e-05
8.26064e-05
2.72029e-05
7.52819e-05
2.71627e-05
7.48381e-05
2.49332e-05
2.48123e-05
8.26786e-05
7.50764e-05
2.69045e-05
1.87288e-05
3.14168e-05
4.76067e-05
4.74978e-05
1.87113e-05
1.86251e-05
3.1347e-05
4.73702e-05
2.47645e-05
8.27789e-05
7.4945e-05
2.7103e-05
7.50521e-05
2.69555e-05
2.4773e-05
2.47407e-05
8.25515e-05
2.70857e-05
7.47284e-05
1.85748e-05
3.07196e-05
4.68682e-05
4.68669e-05
1.85352e-05
1.85561e-05
3.08989e-05
4.69855e-05
2.47915e-05
8.2549e-05
2.71313e-05
7.48432e-05
2.71142e-05
7.48288e-05
2.47111e-05
8.0121e-05
0.000102601
4.97931e-05
3.09442e-05
3.09431e-05
0.000103265
8.05232e-05
8.1516e-05
0.000103256
4.9841e-05
3.12143e-05
0.000102765
3.13562e-05
8.1703e-05
3.80747e-05
1.80211e-05
1.80813e-05
1.80059e-05
1.80333e-05
3.8166e-05
1.98687e-05
1.85563e-05
3.11489e-05
4.7411e-05
4.74598e-05
1.85449e-05
2.4609e-05
8.27505e-05
7.51118e-05
2.69715e-05
7.47635e-05
2.70774e-05
2.45862e-05
1.85687e-05
3.11224e-05
4.75341e-05
4.73937e-05
1.85627e-05
2.46144e-05
8.28906e-05
7.47019e-05
2.70686e-05
7.50698e-05
2.70523e-05
2.46144e-05
1.97204e-05
1.97243e-05
1.98801e-05
0.000107533
0.000114861
0.000114382
0.000109503
0.00010752
0.000114882
0.00011428
5.2496e-05
5.53543e-05
3.42342e-05
0.000107526
0.000114903
0.000114744
0.000109237
0.000107501
0.000114615
0.000114459
0.000106859
0.000109079
0.000115189
0.000114493
0.000107574
0.000115321
0.000113866
0.000105988
0.000115213
0.000114519
0.000109952
0.000113997
0.000113909
0.000106739
0.000107831
0.000116468
0.00011635
0.000110531
0.000116549
0.00011672
0.000107846
0.000107461
0.000115753
0.000115109
0.000109785
0.000115259
0.000116105
0.000107597
0.000107455
0.000109668
0.00011593
0.000113911
0.000107368
0.000115899
0.000114247
5.30238e-05
5.53262e-05
3.41918e-05
5.51292e-05
5.31794e-05
3.40748e-05
5.5222e-05
5.3264e-05
3.43221e-05
0.00011257
0.000112284
8.59103e-05
0.000101942
0.000112405
0.000101971
0.000112394
0.000112734
8.5477e-05
0.000112038
0.000102026
0.000110352
0.000111416
0.000108714
0.000107091
0.00010951
0.000106525
0.000110235
0.000109701
0.000111741
8.53817e-05
0.000100448
0.000111828
0.00010053
0.000110196
0.000107192
0.000109365
0.000103102
0.000106782
0.000104416
0.000107383
0.00010706
0.000107312
0.000109498
0.000116106
0.000113632
0.000107507
0.000114888
0.00011466
0.000108039
0.000106585
0.000104851
0.00010899
0.00010676
0.000104894
0.000108238
0.000110644
0.000111992
8.47477e-05
0.000101253
9.99554e-05
0.000112018
0.000111389
0.000110793
8.43262e-05
9.92763e-05
0.00011188
0.000106986
0.000109198
0.00010763
0.000104647
0.000106612
0.000104872
0.000107221
0.000106899
0.0001065
0.000105003
0.000108963
0.000107186
0.00010465
0.000106826
0.00011114
0.000112134
8.54799e-05
0.000101492
0.000101373
0.000112275
0.000110218
0.000110843
9.932e-05
8.41859e-05
0.00011087
0.000100142
0.000110734
0.000111667
0.000106458
0.000109671
0.000107307
0.000104476
0.000107538
0.000104638
0.000106508
0.000107843
0.000110205
0.000115276
0.000116392
0.000116548
0.000116
0.000107359
0.000111181
0.000110925
8.45198e-05
0.00010043
0.000100469
0.000110742
0.000111001
0.000109365
0.000110843
0.000108228
0.000107102
0.000107541
0.000107332
0.000109403
0.000112663
0.000112059
8.58909e-05
0.000101781
0.000101905
0.00011249
0.000112423
0.000108709
0.00011121
0.00010673
0.00010914
0.000107141
0.000108715
0.000109275
0.000111669
0.000111736
8.49341e-05
0.000100973
0.000111285
0.000100491
0.00011157
0.000109556
0.000110369
0.0001066
0.000108322
0.000105299
0.000108604
0.000108415
0.000109992
0.000111715
8.59923e-05
0.000101634
0.000111072
0.000101541
0.000110705
0.000107226
0.000109919
0.000103745
0.000107992
0.000103802
0.000108005
0.000107381
7.11612e-05
0.000109573
0.000108021
0.000108119
7.28706e-05
0.000109632
0.000107284
0.000108417
7.24958e-05
0.000107766
0.000107614
0.000109273
7.27853e-05
0.000107945
0.000107024
0.000109296
7.32542e-05
0.000108347
0.000107179
0.00010802
7.197e-05
0.000108382
0.000107124
0.000110381
7.28191e-05
0.000109591
0.000107751
0.000109721
7.28678e-05
0.000109226
0.000107607
0.000109968
7.26523e-05
0.000109736
0.000107862
0.000110199
7.25425e-05
0.000108426
0.000106505
0.000108883
7.27221e-05
0.000108605
0.00010675
0.00010927
7.22283e-05
0.000109051
0.000105685
0.000108972
7.29517e-05
0.000108993
0.000105763
0.000109027
7.26578e-05
0.000107904
0.00010737
0.00010956
7.3187e-05
0.000106789
0.00010781
0.000109956
7.34197e-05
0.000109236
0.000106494
0.000109336
0.000106295
0.000106216
0.000108872
0.000108734
0.000109414
0.000109404
0.000106847
0.000110444
0.000107917
0.00010461
0.000108313
0.000110581
0.000110596
0.000107703
0.000107389
0.00010824
0.000107643
0.000109438
0.000109754
0.000107783
0.000109635
0.00010951
0.000108332
0.000108346
0.000109775
0.000107614
0.000110689
0.000111067
0.00010583
0.000106935
0.000105873
0.000109509
0.000109735
0.000110879
0.000108375
0.000107305
0.000107681
0.000108213
0.000109486
0.000108753
0.000109586
0.000109403
0.000107969
0.000110367
0.000108038
0.000108618
0.000109018
0.000110753
0.000109776
0.000106065
0.000106585
0.00010628
0.000109516
0.000110843
0.000110344
0.000107745
0.000108255
0.000107144
0.000106559
0.000110058
0.000110179
0.00010813
0.000110574
0.000109171
0.000108918
0.000109319
0.000108663
0.000108439
0.000110589
0.000110911
0.000105981
0.00010778
0.000106348
0.000109738
0.000110038
0.000110036
0.000105732
0.00010773
0.000106493
0.000107341
0.000109092
0.000109999
0.000108108
0.000110053
0.000108228
0.000109291
0.000106997
0.000109112
0.000108116
0.00011042
0.000110334
0.000105416
0.000107311
0.000105613
0.000108142
0.000109932
0.000109939
0.000106321
0.000106426
0.00010732
0.000107994
0.000110373
0.000109366
0.000107729
0.000109199
0.000107651
0.000109668
0.000108224
0.000108911
0.000108679
0.000110452
0.000110179
0.000106888
0.000107454
0.000106826
0.000110303
0.00010995
0.000108996
0.000105793
0.000107181
0.000106018
0.000106161
0.000109948
0.000110303
0.000108971
0.000109954
0.000107506
0.00010985
0.000108598
0.000108292
0.000107369
0.000110147
0.000110676
0.000105947
0.000107616
0.000106909
0.000108938
0.000109741
0.000108728
0.000107437
0.000106759
0.000106634
0.000107959
0.000110487
0.0001096
0.000108199
0.000108835
0.000108285
0.000108241
0.000108527
0.000108358
0.000108112
0.000110544
0.000109849
0.000107304
0.000106377
0.000107654
0.00010952
0.000109737
0.000109651
0.000107906
0.000107955
0.000107559
0.000108142
0.000110589
0.00010985
0.000106871
0.000108414
0.000107724
0.000109557
0.000108013
0.00010973
0.000107614
0.00011001
0.000110228
0.000107393
0.000106786
0.000107749
0.000110369
0.000108863
0.000110171
0.00010726
0.000108202
0.000106523
0.000106729
0.000110172
0.00011026
0.000107794
0.000109476
0.000107554
0.000109783
0.000108827
0.000107646
0.000109155
0.000110332
0.000110319
0.000107564
0.000105916
0.000106933
0.000109527
0.000110044
0.000109326
0.00010624
0.000107187
0.000106802
0.000106141
0.000109846
0.000110495
0.000107951
0.000109052
0.000108579
0.000109655
0.000109125
0.00010904
0.000109278
0.000109407
0.000109541
0.000106141
0.000106423
0.000106736
0.000110126
0.000109696
0.000110197
0.000105887
0.000107638
0.000106818
0.000106039
0.000109212
0.000108485
0.000108851
0.000109839
0.000109273
0.000108009
0.000108297
0.000108601
0.00010921
0.000109807
0.000110471
0.000107372
0.000104551
0.000106198
0.000108961
0.000109932
0.000109703
0.000106317
0.000107161
0.000107621
0.000107558
0.000109512
0.000109531
0.000109337
0.000109327
0.000108037
0.000109146
0.00010768
0.0001081
0.000107982
0.000110102
0.000110551
0.000106343
0.000106823
0.000106492
0.000109017
0.000109545
0.000109763
0.000107247
0.000107582
0.000107451
0.000107565
0.000108831
0.00011015
0.000109331
0.000108438
0.000108708
0.000109066
0.000107056
0.00010881
0.000107794
0.000110526
0.000109802
0.000106432
0.000107318
0.000107175
0.00011004
0.000109943
0.000109715
0.000107485
0.000107462
0.000107371
0.000106711
0.000109968
0.000109154
0.00010845
0.000108347
0.000108992
0.00010944
0.000108255
0.000107831
0.000109141
0.000109419
0.000110498
0.000107031
0.000107773
0.000106358
0.000110088
0.00010925
0.000109321
0.000107545
0.000106058
0.00010636
0.00010714
0.000108776
0.000110193
0.000108896
0.000108408
0.000109068
0.000108564
0.000109416
0.000108934
0.00010899
0.000109819
0.000109699