/*--------------------------------*- C++ -*----------------------------------*\
| =========                 |                                                 |
| \\      /  F ield         | OpenFOAM: The Open Source CFD Toolbox           |
|  \\    /   O peration     | Version:  2206                                  |
|   \\  /    A nd           | Website:  www.openfoam.com                      |
|    \\/     M anipulation  |                                                 |
\*---------------------------------------------------------------------------*/
FoamFile
{
    version     2.0;
    format      ascii;
    arch        "LSB;label=32;scalar=64";
    class       volScalarField;
    location    "120";
    object      nut;
}
// * * * * * * * * * * * * * * * * * * * * * * * * * * * * * * * * * * * * * //

dimensions      [0 2 -1 0 0 0 0];

internalField   nonuniform List<scalar> 
67442
(
2.34039e-06
1.73896e-06
1.73899e-06
1.73085e-06
1.74123e-06
1.72304e-06
1.71739e-06
1.75515e-06
1.72722e-06
1.72701e-06
1.71868e-06
1.77154e-06
1.71534e-06
1.05821e-07
4.47318e-07
5.10339e-08
1.05333e-07
4.35976e-07
2.3666e-06
2.36261e-06
2.35683e-06
4.69277e-07
1.96322e-06
9.24155e-07
5.08919e-08
1.91691e-06
4.75067e-07
9.35212e-07
2.45124e-07
2.4663e-07
5.02665e-08
5.03509e-08
2.49159e-07
2.4627e-07
1.06772e-07
4.47396e-07
4.75002e-07
1.92785e-06
9.42958e-07
4.80213e-07
1.95565e-06
9.4351e-07
2.52079e-07
2.46753e-07
5.02933e-08
4.70375e-07
1.94754e-06
9.1621e-07
1.06899e-07
4.37555e-07
1.93193e-06
4.73363e-07
9.1705e-07
1.05782e-07
4.41512e-07
1.95388e-06
4.67197e-07
9.28402e-07
1.05613e-07
4.41999e-07
2.48224e-07
2.51329e-07
5.0552e-08
1.90908e-06
4.75003e-07
9.35171e-07
1.06229e-07
4.47047e-07
1.05998e-07
4.47368e-07
5.00405e-08
4.99493e-08
4.46544e-08
1.05714e-07
2.26863e-07
2.27478e-07
4.46195e-08
7.57484e-08
4.48255e-07
8.84983e-08
3.78626e-07
8.79607e-08
3.78535e-07
7.54961e-08
5.0973e-08
7.55149e-08
4.35522e-07
3.70366e-07
8.81048e-08
4.47708e-08
1.0531e-07
2.23423e-07
2.241e-07
4.48191e-08
4.49008e-08
1.05729e-07
2.24601e-07
7.53507e-08
4.36386e-07
3.70043e-07
8.79152e-08
3.72599e-07
8.76635e-08
7.55426e-08
5.0811e-08
5.0971e-08
4.07533e-07
6.75993e-07
2.4486e-07
1.01817e-07
6.7908e-07
1.0152e-07
4.04994e-07
4.06999e-07
6.74777e-07
2.46052e-07
1.00308e-07
6.74684e-07
9.96923e-08
4.04584e-07
1.54213e-07
4.46893e-08
4.44662e-08
4.46254e-08
4.44082e-08
1.5453e-07
5.02416e-08
5.03273e-08
5.04896e-08
4.11847e-07
6.87246e-07
2.49623e-07
1.02568e-07
1.025e-07
6.89729e-07
4.10539e-07
4.10115e-07
6.80088e-07
2.4801e-07
1.01152e-07
1.00912e-07
6.85418e-07
4.08004e-07
1.55029e-07
4.49914e-08
4.48578e-08
4.49548e-08
4.48091e-08
1.55884e-07
4.50525e-08
1.06369e-07
2.29638e-07
2.28483e-07
4.50699e-08
7.60804e-08
4.48941e-07
8.8734e-08
3.79624e-07
8.87423e-08
3.827e-07
7.60955e-08
4.11125e-07
6.87153e-07
2.51986e-07
1.02199e-07
1.02012e-07
6.88733e-07
4.08909e-07
4.07593e-07
6.79011e-07
2.4444e-07
1.02129e-07
6.8014e-07
1.01971e-07
4.04753e-07
1.53608e-07
4.48164e-08
4.48024e-08
4.47763e-08
4.46262e-08
1.54792e-07
5.02364e-08
7.60622e-08
4.38339e-07
8.84831e-08
3.73232e-07
4.53065e-08
1.06775e-07
2.25455e-07
2.26681e-07
4.53675e-08
4.54146e-08
1.07156e-07
2.26511e-07
7.57316e-08
4.38483e-07
8.83041e-08
3.72572e-07
8.80661e-08
3.74058e-07
7.59134e-08
4.52918e-08
1.05519e-07
2.26634e-07
2.25252e-07
4.53591e-08
7.65287e-08
4.44467e-07
3.75108e-07
8.96468e-08
3.77705e-07
8.93967e-08
7.67553e-08
4.50614e-08
1.05469e-07
2.24726e-07
2.24675e-07
4.51253e-08
7.57827e-08
4.44802e-07
8.9509e-08
3.73569e-07
8.93395e-08
3.74883e-07
7.60251e-08
4.14697e-07
6.88502e-07
2.48876e-07
1.02522e-07
1.02062e-07
6.85544e-07
4.12516e-07
4.14402e-07
6.89315e-07
2.50583e-07
1.03897e-07
6.90146e-07
1.03534e-07
4.12198e-07
1.56271e-07
4.53095e-08
4.55294e-08
4.5246e-08
4.54819e-08
1.57044e-07
5.05687e-08
4.48448e-08
1.06133e-07
2.29754e-07
2.29086e-07
4.49288e-08
7.58049e-08
4.47501e-07
3.78471e-07
8.86256e-08
3.78323e-07
8.85844e-08
7.57389e-08
4.48817e-08
1.05878e-07
2.29977e-07
2.27778e-07
4.49688e-08
7.57163e-08
4.4659e-07
3.77073e-07
8.80729e-08
3.79954e-07
8.8253e-08
7.57328e-08
4.99941e-08
4.98897e-08
2.73268e-06
2.66447e-06
2.20198e-06
7.72198e-07
1.05893e-06
1.05209e-06
1.67051e-06
1.04357e-06
1.03667e-06
7.73786e-07
7.81709e-07
1.0684e-06
1.07392e-06
1.69461e-06
1.05495e-06
1.05639e-06
7.83927e-07
7.75698e-07
1.06415e-06
1.07531e-06
1.71631e-06
1.05665e-06
1.04415e-06
7.79796e-07
7.84339e-07
1.07445e-06
1.08023e-06
1.71424e-06
1.06026e-06
1.0569e-06
7.8623e-07
2.68919e-06
2.69087e-06
2.21902e-06
2.68578e-06
2.74782e-06
2.19003e-06
2.66416e-06
2.75113e-06
2.19574e-06
1.22013e-06
9.23096e-07
4.69847e-07
6.71779e-07
9.20854e-07
6.76284e-07
1.23992e-06
1.28187e-06
9.24401e-07
8.50192e-07
1.39607e-06
8.45458e-07
1.38043e-06
1.29416e-06
1.23822e-06
9.37316e-07
4.75837e-07
6.85202e-07
9.32584e-07
6.85216e-07
1.24477e-06
1.28464e-06
9.28982e-07
1.39374e-06
8.6062e-07
1.37964e-06
8.54593e-07
1.29505e-06
1.23417e-06
9.37967e-07
4.77254e-07
6.8304e-07
6.84817e-07
9.26249e-07
1.24597e-06
1.28187e-06
9.43345e-07
8.62016e-07
1.41281e-06
8.60776e-07
1.40223e-06
1.30681e-06
1.24371e-06
9.40443e-07
4.80892e-07
6.89829e-07
6.89574e-07
9.32344e-07
1.24255e-06
1.29429e-06
9.35397e-07
8.64186e-07
1.41347e-06
8.6426e-07
1.38239e-06
1.29839e-06
1.21746e-06
9.30619e-07
4.73306e-07
6.74225e-07
6.74412e-07
9.22132e-07
1.23538e-06
1.26413e-06
9.18087e-07
8.37341e-07
1.4093e-06
8.37112e-07
1.37023e-06
1.28338e-06
1.21543e-06
9.34289e-07
4.77094e-07
6.74823e-07
6.75103e-07
9.23709e-07
1.23825e-06
1.27278e-06
9.23052e-07
1.40819e-06
8.4047e-07
1.36953e-06
8.40212e-07
1.29696e-06
1.21416e-06
9.2897e-07
4.6968e-07
6.67664e-07
9.19595e-07
6.70246e-07
1.23425e-06
1.26744e-06
9.25056e-07
1.40144e-06
8.42374e-07
1.38368e-06
8.36708e-07
1.29903e-06
1.22891e-06
9.23533e-07
4.75878e-07
6.82954e-07
9.16191e-07
6.81681e-07
1.23308e-06
1.2647e-06
9.30982e-07
1.38044e-06
8.5593e-07
1.38382e-06
8.4915e-07
1.2873e-06
7.71091e-09
8.20408e-10
5.2291e-11
3.22445e-12
2.07708e-12
8.0967e-09
8.6839e-10
5.61739e-11
3.58705e-12
2.34553e-12
7.83191e-09
8.32935e-10
5.30479e-11
3.24714e-12
2.0846e-12
8.16285e-09
8.74862e-10
5.65569e-11
3.60283e-12
2.35299e-12
7.96456e-09
8.54055e-10
5.52759e-11
3.56536e-12
2.34519e-12
8.07807e-09
8.65886e-10
5.60009e-11
3.58633e-12
2.3497e-12
7.80943e-09
8.32092e-10
5.30158e-11
3.24106e-12
2.07924e-12
8.07036e-09
8.65448e-10
5.60094e-11
3.59039e-12
2.35264e-12
7.9458e-09
8.44853e-10
5.37671e-11
3.26267e-12
2.08675e-12
7.8687e-09
8.3708e-10
5.33155e-11
3.25557e-12
2.08744e-12
7.85267e-09
8.35416e-10
5.32201e-11
3.25245e-12
2.08612e-12
8.02124e-09
8.60908e-10
5.5751e-11
3.5788e-12
2.34666e-12
7.74897e-09
8.24301e-10
5.25316e-11
3.23049e-12
2.07813e-12
7.72183e-09
8.218e-10
5.23954e-11
3.22656e-12
2.07709e-12
8.04042e-09
8.62554e-10
5.58272e-11
3.58311e-12
2.35002e-12
7.91347e-09
8.48542e-10
5.49307e-11
3.55382e-12
2.34225e-12
8.02463e-09
8.58086e-10
5.55343e-11
3.57034e-12
2.34351e-12
7.7274e-09
8.22926e-10
5.24544e-11
3.22816e-12
2.07738e-12
8.08915e-09
8.67598e-10
5.61149e-11
3.58356e-12
2.34355e-12
7.6929e-09
8.18043e-10
5.24651e-11
3.30835e-12
2.15409e-12
7.96314e-09
8.52149e-10
5.47693e-11
3.42134e-12
2.21329e-12
8.18348e-09
8.73912e-10
5.64729e-11
3.59285e-12
2.3443e-12
7.84749e-09
8.35007e-10
5.3164e-11
3.24264e-12
2.07822e-12
7.8657e-09
8.3678e-10
5.32805e-11
3.25135e-12
2.08436e-12
8.16376e-09
8.75569e-10
5.66093e-11
3.59703e-12
2.34526e-12
8.17706e-09
8.77004e-10
5.67169e-11
3.60714e-12
2.35298e-12
7.9877e-09
8.48097e-10
5.39769e-11
3.28333e-12
2.10179e-12
7.98068e-09
8.47654e-10
5.3941e-11
3.27634e-12
2.09591e-12
7.8552e-09
8.34643e-10
5.31753e-11
3.26282e-12
2.09673e-12
7.83528e-09
8.33574e-10
5.31341e-11
3.25931e-12
2.09404e-12
7.52741e-09
8.00301e-10
5.17497e-11
3.43351e-12
2.30032e-12
7.4756e-09
7.95111e-10
5.14374e-11
3.42398e-12
2.2986e-12
7.52059e-09
7.99608e-10
5.17007e-11
3.42647e-12
2.29391e-12
7.47118e-09
7.94844e-10
5.14239e-11
3.41909e-12
2.29339e-12
7.98103e-09
8.56139e-10
5.54027e-11
3.56624e-12
2.34291e-12
8.08904e-09
8.67441e-10
5.6098e-11
3.58145e-12
2.3419e-12
8.10768e-09
8.69355e-10
5.62254e-11
3.59147e-12
2.34928e-12
7.79686e-09
8.31051e-10
5.29692e-11
3.24048e-12
2.07944e-12
8.00884e-09
8.50648e-10
5.41328e-11
3.28714e-12
2.10271e-12
8.01078e-09
8.51401e-10
5.41696e-11
3.28197e-12
2.09737e-12
7.55205e-09
8.0314e-10
5.19367e-11
3.43927e-12
2.30142e-12
7.53174e-09
8.01328e-10
5.18286e-11
3.43154e-12
2.29569e-12
8.06785e-09
8.65278e-10
5.59945e-11
3.58309e-12
2.34516e-12
7.7458e-09
8.23668e-10
5.28212e-11
3.3189e-12
2.15617e-12
7.99243e-09
8.55115e-10
5.49485e-11
3.42619e-12
2.21411e-12
8.28238e-09
8.84371e-10
5.71312e-11
3.6105e-12
2.34634e-12
7.94306e-09
8.44799e-10
5.37558e-11
3.25541e-12
2.08027e-12
7.96592e-09
8.47186e-10
5.39024e-11
3.265e-12
2.08676e-12
7.86219e-09
8.3657e-10
5.3278e-11
3.24805e-12
2.08094e-12
8.23431e-09
8.79176e-10
5.68068e-11
3.60254e-12
2.34586e-12
7.85327e-09
8.35391e-10
5.32026e-11
3.24534e-12
2.07975e-12
8.0843e-09
8.58521e-10
5.46086e-11
3.29539e-12
2.10264e-12
8.07843e-09
8.58297e-10
5.45915e-11
3.29355e-12
2.10124e-12
7.64841e-09
8.14036e-10
5.26152e-11
3.4584e-12
2.30359e-12
8.03169e-09
8.61863e-10
5.57891e-11
3.57788e-12
2.34495e-12
8.07422e-09
8.63455e-10
5.58492e-11
3.5783e-12
2.34445e-12
7.74594e-09
8.24384e-10
5.25347e-11
3.23091e-12
2.07855e-12
8.0761e-09
8.6336e-10
5.58367e-11
3.57784e-12
2.34437e-12
7.72415e-09
8.21995e-10
5.23953e-11
3.22677e-12
2.07743e-12
8.02821e-09
8.61004e-10
5.57191e-11
3.57353e-12
2.34248e-12
7.90778e-09
8.47946e-10
5.48883e-11
3.55091e-12
2.34029e-12
8.10248e-09
8.65743e-10
5.59876e-11
3.58349e-12
2.34645e-12
8.27295e-09
8.83419e-10
5.70762e-11
3.61082e-12
2.34793e-12
7.52883e-09
8.02111e-10
5.15284e-11
3.27737e-12
2.14372e-12
7.7912e-09
8.35303e-10
5.37687e-11
3.38753e-12
2.20133e-12
7.77787e-09
8.35094e-10
5.37883e-11
3.38861e-12
2.20155e-12
7.52019e-09
8.01186e-10
5.14637e-11
3.27496e-12
2.14292e-12
8.01538e-09
8.56668e-10
5.54389e-11
3.56651e-12
2.34212e-12
8.0216e-09
8.52292e-10
5.42251e-11
3.2869e-12
2.10093e-12
8.00647e-09
8.50538e-10
5.41076e-11
3.28116e-12
2.09747e-12
7.55622e-09
8.04619e-10
5.2041e-11
3.44242e-12
2.30187e-12
7.54297e-09
8.02883e-10
5.19294e-11
3.43476e-12
2.29628e-12
8.17872e-09
8.73167e-10
5.64273e-11
3.59906e-12
2.35221e-12
7.67919e-09
8.16407e-10
5.23442e-11
3.29695e-12
2.14521e-12
7.95003e-09
8.50836e-10
5.46879e-11
3.41964e-12
2.21347e-12
7.94063e-09
8.50079e-10
5.46367e-11
3.40871e-12
2.20326e-12
7.6911e-09
8.17571e-10
5.24206e-11
3.30742e-12
2.15446e-12
8.20006e-09
8.76053e-10
5.66284e-11
3.60394e-12
2.35192e-12
8.07213e-09
8.56321e-10
5.44466e-11
3.29495e-12
2.10487e-12
8.04899e-09
8.54381e-10
5.43298e-11
3.28562e-12
2.09796e-12
7.63847e-09
8.12084e-10
5.24776e-11
3.45499e-12
2.30405e-12
7.64812e-09
8.13882e-10
5.26003e-11
3.45174e-12
2.29699e-12
7.97385e-09
8.46359e-10
5.38611e-11
3.27963e-12
2.1002e-12
7.9726e-09
8.46329e-10
5.38581e-11
3.27677e-12
2.09739e-12
7.54913e-09
8.02398e-10
5.18737e-11
3.43549e-12
2.29937e-12
7.54818e-09
8.02399e-10
5.18689e-11
3.43058e-12
2.29417e-12
7.97287e-09
8.46343e-10
5.38665e-11
3.28109e-12
2.10165e-12
7.95995e-09
8.4541e-10
5.38176e-11
3.27378e-12
2.09545e-12
7.56183e-09
8.04168e-10
5.19909e-11
3.44037e-12
2.30156e-12
7.55965e-09
8.04243e-10
5.19985e-11
3.43461e-12
2.29492e-12
7.56631e-09
8.05759e-10
5.17264e-11
3.28375e-12
2.14592e-12
7.80895e-09
8.36731e-10
5.38448e-11
3.39021e-12
2.20242e-12
7.81504e-09
8.3719e-10
5.38691e-11
3.39123e-12
2.20297e-12
7.5765e-09
8.0699e-10
5.18043e-11
3.28504e-12
2.14545e-12
8.09961e-09
8.65482e-10
5.59658e-11
3.58159e-12
2.34497e-12
7.72327e-09
8.21503e-10
5.2682e-11
3.30693e-12
2.14696e-12
7.98087e-09
8.5395e-10
5.48745e-11
3.42446e-12
2.21411e-12
7.9705e-09
8.53076e-10
5.48166e-11
3.41355e-12
2.20409e-12
7.73136e-09
8.22201e-10
5.27299e-11
3.31679e-12
2.1562e-12
8.29127e-09
8.8525e-10
5.719e-11
3.61936e-12
2.35438e-12
8.29671e-09
8.85937e-10
5.72421e-11
3.6207e-12
2.35432e-12
8.28179e-09
8.84362e-10
5.71385e-11
3.61952e-12
2.35564e-12
7.80462e-09
8.29967e-10
5.31939e-11
3.31957e-12
2.14842e-12
8.11114e-09
8.68097e-10
5.57623e-11
3.44688e-12
2.21684e-12
8.09857e-09
8.67044e-10
5.56986e-11
3.43592e-12
2.20709e-12
7.81729e-09
8.31265e-10
5.328e-11
3.33027e-12
2.15762e-12
7.74092e-09
8.23738e-10
5.2817e-11
3.30958e-12
2.1469e-12
8.10011e-09
8.67028e-10
5.56934e-11
3.44445e-12
2.21603e-12
8.09398e-09
8.66469e-10
5.56511e-11
3.43371e-12
2.20615e-12
7.76881e-09
8.26915e-10
5.30173e-11
3.32245e-12
2.1558e-12
8.24167e-09
8.80083e-10
5.68745e-11
3.61159e-12
2.35375e-12
7.64524e-09
8.13979e-10
5.26261e-11
3.45539e-12
2.29974e-12
8.07861e-09
8.63649e-10
5.58549e-11
3.57687e-12
2.34291e-12
7.53918e-09
8.02648e-10
5.1528e-11
3.27709e-12
2.14392e-12
7.8031e-09
8.36021e-10
5.37794e-11
3.38746e-12
2.2014e-12
7.8016e-09
8.35934e-10
5.37784e-11
3.3875e-12
2.20151e-12
7.53348e-09
8.0218e-10
5.14972e-11
3.27616e-12
2.14368e-12
8.09176e-09
8.65039e-10
5.59255e-11
3.57843e-12
2.3432e-12
7.52685e-09
8.013e-10
5.14416e-11
3.27543e-12
2.14439e-12
7.7799e-09
8.34336e-10
5.36899e-11
3.38543e-12
2.20152e-12
7.7812e-09
8.34071e-10
5.36695e-11
3.38536e-12
2.20186e-12
7.52957e-09
8.0164e-10
5.14534e-11
3.27485e-12
2.14384e-12
1.72685e-06
1.72628e-06
1.73507e-06
2.32758e-06
4.36138e-07
1.92247e-06
9.16787e-07
1.06706e-07
4.41717e-07
1.92742e-06
4.77576e-07
9.17339e-07
5.08162e-08
2.49808e-07
7.549e-08
4.34762e-07
3.7213e-07
8.76026e-08
3.7078e-07
8.7506e-08
7.53638e-08
4.53725e-08
1.06862e-07
2.25499e-07
2.27342e-07
4.53048e-08
7.59441e-08
4.38096e-07
8.81036e-08
3.75004e-07
8.80675e-08
3.72765e-07
7.57431e-08
5.08497e-08
4.13124e-07
6.9013e-07
2.4943e-07
1.02193e-07
6.85152e-07
1.02387e-07
4.16222e-07
4.11816e-07
6.85128e-07
6.84216e-07
4.12848e-07
1.56355e-07
4.51693e-08
4.51932e-08
1.56007e-07
7.8497e-07
1.75186e-06
1.04743e-06
1.06706e-06
1.06525e-06
1.07734e-06
7.86133e-07
2.68731e-06
2.19607e-06
2.6865e-06
2.74299e-06
2.21271e-06
1.28845e-06
9.16071e-07
8.33942e-07
1.37419e-06
8.38424e-07
1.39292e-06
1.26642e-06
1.23851e-06
9.25046e-07
4.74406e-07
6.71667e-07
6.75372e-07
9.30275e-07
1.20786e-06
1.28578e-06
9.19968e-07
1.36321e-06
8.39114e-07
1.41073e-06
8.35884e-07
1.25735e-06
1.24376e-06
9.21547e-07
9.3101e-07
1.22325e-06
1.70037e-06
1.7017e-06
1.72265e-06
2.35062e-06
5.02187e-08
5.02456e-08
2.50278e-07
2.45895e-07
1.05737e-07
4.48488e-07
4.77803e-07
1.93192e-06
9.42496e-07
1.05042e-07
4.73196e-07
5.02519e-08
5.03491e-08
4.07298e-07
6.87418e-07
2.50243e-07
1.02349e-07
1.0241e-07
6.82536e-07
4.0863e-07
4.05915e-07
6.81797e-07
2.47235e-07
1.00887e-07
1.01392e-07
6.78128e-07
4.08588e-07
1.55545e-07
4.48771e-08
4.47449e-08
4.49073e-08
4.48358e-08
1.5521e-07
4.46932e-08
1.0521e-07
2.26262e-07
2.2853e-07
4.46869e-08
7.5536e-08
4.46425e-07
8.85375e-08
3.8002e-07
8.85254e-08
3.77796e-07
7.57861e-08
4.4789e-08
1.05341e-07
2.23104e-07
2.23992e-07
4.47329e-08
7.81474e-07
1.73047e-06
1.04512e-06
1.04731e-06
1.06294e-06
1.06505e-06
7.81546e-07
2.6818e-06
1.2396e-06
9.31053e-07
4.75407e-07
6.83213e-07
9.2969e-07
6.82667e-07
1.235e-06
1.29716e-06
9.44162e-07
8.60551e-07
1.40327e-06
8.59529e-07
1.4116e-06
1.28361e-06
1.23114e-06
9.20516e-07
4.70346e-07
6.69576e-07
9.2931e-07
6.69832e-07
1.21574e-06
7.93513e-09
8.43652e-10
5.36745e-11
3.25375e-12
2.07996e-12
8.14939e-09
8.73118e-10
5.64404e-11
3.59255e-12
2.34488e-12
8.29168e-09
8.85362e-10
5.72026e-11
3.61985e-12
2.35443e-12
7.94068e-09
8.4431e-10
5.37271e-11
3.26195e-12
2.08673e-12
8.15284e-09
8.73624e-10
5.64849e-11
3.60139e-12
2.35314e-12
7.69385e-09
8.18171e-10
5.24688e-11
3.3089e-12
2.15466e-12
7.93439e-09
8.49493e-10
5.46005e-11
3.40818e-12
2.20359e-12
7.95777e-09
8.52443e-10
5.4808e-11
3.42296e-12
2.21393e-12
7.68037e-09
8.16652e-10
5.2359e-11
3.29734e-12
2.14534e-12
7.73119e-09
8.22579e-10
5.27373e-11
3.31691e-12
2.15647e-12
7.96829e-09
8.52837e-10
5.48005e-11
3.41322e-12
2.20424e-12
7.98581e-09
8.55373e-10
5.4993e-11
3.42756e-12
2.21437e-12
7.71672e-09
8.20731e-10
5.26254e-11
3.30551e-12
2.14699e-12
8.28555e-09
8.84746e-10
5.7154e-11
3.61083e-12
2.3462e-12
8.05421e-09
8.54728e-10
5.43506e-11
3.28565e-12
2.09787e-12
8.06155e-09
8.55508e-10
5.44102e-11
3.29449e-12
2.10506e-12
7.61893e-09
8.09888e-10
5.23368e-11
3.44527e-12
2.29712e-12
7.61975e-09
8.10057e-10
5.23566e-11
3.45266e-12
2.30469e-12
7.95874e-09
8.53299e-10
5.52203e-11
3.5617e-12
2.34272e-12
8.06548e-09
8.64367e-10
5.58986e-11
3.57661e-12
2.34181e-12
7.7064e-09
8.19915e-10
5.2249e-11
3.22357e-12
2.07723e-12
7.81252e-09
8.30825e-10
5.2909e-11
3.23764e-12
2.07801e-12
7.96423e-09
8.54264e-10
5.52821e-11
3.56533e-12
2.34523e-12
8.07887e-09
8.65839e-10
5.59987e-11
3.58662e-12
2.35001e-12
8.02458e-09
8.57388e-10
5.5444e-11
3.5658e-12
2.34199e-12
7.7e-09
8.2007e-10
5.2274e-11
3.22385e-12
2.07702e-12
7.82325e-09
8.31922e-10
5.29845e-11
3.246e-12
2.08474e-12
7.5364e-09
8.0125e-10
5.18035e-11
3.4292e-12
2.29424e-12
7.55025e-09
8.02667e-10
5.18893e-11
3.43205e-12
2.29509e-12
8.17404e-09
8.72462e-10
5.63803e-11
3.59805e-12
2.35234e-12
8.16586e-09
8.7158e-10
5.63174e-11
3.58882e-12
2.34403e-12
7.96615e-09
8.45779e-10
5.38224e-11
3.276e-12
2.09735e-12
7.97181e-09
8.4652e-10
5.38771e-11
3.27993e-12
2.10014e-12
7.9637e-09
8.45524e-10
5.38048e-11
3.27352e-12
2.09551e-12
7.99071e-09
8.48092e-10
5.39611e-11
3.28287e-12
2.10179e-12
7.55955e-09
8.03587e-10
5.19509e-11
3.43952e-12
2.30167e-12
7.53813e-09
8.01453e-10
5.18219e-11
3.43436e-12
2.29945e-12
7.51736e-09
8.00749e-10
5.14255e-11
3.27356e-12
2.14263e-12
7.80157e-09
8.36342e-10
5.38202e-11
3.38867e-12
2.2015e-12
7.79331e-09
8.35432e-10
5.37708e-11
3.3874e-12
2.20133e-12
7.53362e-09
8.0221e-10
5.15119e-11
3.2764e-12
2.14353e-12
8.0276e-09
8.57643e-10
5.54775e-11
3.56788e-12
2.34306e-12
1.7179e-06
2.36627e-06
1.72112e-06
1.7207e-06
1.70915e-06
1.71691e-06
1.73054e-06
1.70982e-06
1.73286e-06
1.7408e-06
1.70961e-06
1.70522e-06
1.70416e-06
1.70159e-06
1.71153e-06
2.42064e-07
2.43749e-07
1.72799e-06
2.41937e-07
2.44843e-07
4.23185e-07
1.05541e-07
4.43132e-07
5.04232e-08
4.93665e-08
1.02836e-07
4.34486e-07
2.37913e-06
2.36656e-06
2.33721e-06
4.73073e-07
1.9428e-06
1.75908e-06
9.23183e-07
5.03356e-08
1.93189e-06
4.74358e-07
9.29725e-07
2.41082e-07
2.44807e-07
4.97984e-08
4.97782e-08
4.98921e-08
5.00527e-08
1.7269e-06
2.41582e-07
2.4601e-07
2.41522e-07
2.46525e-07
4.96381e-08
4.94998e-08
5.0071e-08
5.00303e-08
5.01817e-08
4.93317e-08
2.47236e-07
2.40185e-07
4.26119e-07
1.06166e-07
1.02056e-07
4.43086e-07
9.03495e-07
4.76496e-07
1.94989e-06
1.91102e-06
9.30948e-07
9.09805e-07
4.77363e-07
1.95999e-06
1.73751e-06
4.63155e-07
1.92653e-06
9.3686e-07
2.46898e-07
2.46797e-07
1.73772e-06
2.41157e-07
5.06466e-08
4.64107e-07
1.93802e-06
9.17672e-07
1.05918e-07
4.37331e-07
1.94072e-06
4.71605e-07
9.21893e-07
1.05291e-07
4.36051e-07
1.92017e-06
4.66805e-07
9.14621e-07
1.04166e-07
4.36365e-07
2.43276e-07
2.46593e-07
5.00837e-08
1.94763e-06
4.78216e-07
9.36278e-07
1.0545e-07
4.45922e-07
1.06154e-07
4.45921e-07
4.95247e-08
5.00549e-08
1.5487e-07
4.47373e-08
4.4644e-08
4.48113e-08
4.46953e-08
1.54707e-07
4.08137e-07
6.77645e-07
1.0169e-07
2.4116e-07
1.01713e-07
4.07138e-07
6.76434e-07
4.09678e-07
6.77298e-07
1.00817e-07
2.45464e-07
1.00769e-07
4.06142e-07
6.79746e-07
1.54664e-07
4.48091e-08
4.47187e-08
4.47271e-08
4.4605e-08
1.55209e-07
4.07237e-07
1.01081e-07
2.43324e-07
6.764e-07
1.01872e-07
4.07861e-07
6.76735e-07
4.07802e-07
1.00385e-07
2.45467e-07
6.79836e-07
1.00698e-07
4.07304e-07
6.80406e-07
7.28868e-08
8.3745e-08
3.56251e-07
4.311e-07
8.54704e-08
3.64709e-07
7.23645e-08
4.43734e-08
1.05599e-07
2.25496e-07
2.22957e-07
4.44632e-08
4.35832e-08
1.03493e-07
2.17594e-07
7.45173e-08
4.38248e-07
8.74073e-08
3.7688e-07
8.68837e-08
3.71305e-07
7.50421e-08
5.03026e-08
5.01592e-08
4.41172e-08
1.03345e-07
2.17969e-07
2.18712e-07
4.40857e-08
7.48476e-08
4.32718e-07
3.67312e-07
8.7244e-08
3.69553e-07
8.74347e-08
7.48447e-08
5.03428e-08
4.08047e-07
6.78555e-07
1.0166e-07
2.40567e-07
4.07859e-07
6.79102e-07
1.01305e-07
4.0872e-07
6.81e-07
1.00685e-07
2.45912e-07
4.08869e-07
6.75738e-07
1.00849e-07
1.53869e-07
4.47518e-08
4.46972e-08
1.54984e-07
4.46588e-08
4.46604e-08
4.98082e-08
4.97869e-08
4.96921e-08
5.00419e-08
1.54707e-07
4.48032e-08
4.46571e-08
1.55072e-07
4.46971e-08
4.44344e-08
4.06015e-07
6.79039e-07
1.0088e-07
2.42701e-07
4.07637e-07
1.01585e-07
6.79153e-07
4.06536e-07
6.81391e-07
1.00733e-07
2.44799e-07
4.0981e-07
9.98966e-08
6.80759e-07
1.54899e-07
4.46092e-08
4.4471e-08
1.54754e-07
4.47316e-08
4.45674e-08
4.09035e-07
1.01634e-07
6.79645e-07
2.41645e-07
4.05548e-07
1.01671e-07
6.8036e-07
4.08485e-07
9.98181e-08
6.81289e-07
2.46106e-07
4.07368e-07
1.00136e-07
6.81764e-07
4.95963e-08
4.95861e-08
5.00397e-08
4.98177e-08
5.02815e-08
4.9636e-08
4.92989e-08
4.08129e-07
6.90262e-07
2.46323e-07
1.02088e-07
1.02522e-07
6.89505e-07
4.07934e-07
4.0222e-07
6.74953e-07
2.4065e-07
9.94277e-08
9.94208e-08
6.69882e-07
4.04607e-07
2.45325e-07
6.88061e-07
1.52705e-07
4.46157e-08
4.41867e-08
4.45893e-08
4.41236e-08
1.53147e-07
7.34091e-08
8.47184e-08
3.6009e-07
4.30674e-07
8.51762e-08
3.65744e-07
7.23338e-08
4.43543e-08
1.05327e-07
2.26573e-07
2.23922e-07
4.4769e-08
4.39238e-08
2.17055e-07
1.0417e-07
2.21003e-07
4.34649e-08
7.47828e-08
4.39066e-07
8.75328e-08
3.76191e-07
8.69688e-08
3.7292e-07
7.52578e-08
1.54382e-07
4.47398e-08
4.47927e-08
4.51492e-08
4.09408e-07
6.85307e-07
2.48424e-07
1.0146e-07
1.01505e-07
6.88557e-07
4.09954e-07
4.10842e-07
6.90207e-07
2.47031e-07
1.02877e-07
6.90003e-07
1.03148e-07
4.08823e-07
4.08816e-07
1.00447e-07
2.46658e-07
6.7887e-07
1.01861e-07
6.84551e-07
4.09177e-07
4.11851e-07
2.46384e-07
6.8994e-07
1.03022e-07
1.54992e-07
4.49129e-08
4.52279e-08
4.47401e-08
4.50019e-08
1.55426e-07
5.06637e-08
5.05391e-08
4.51923e-08
1.0584e-07
2.24417e-07
2.24886e-07
4.52555e-08
7.60124e-08
4.38109e-07
8.81917e-08
3.73984e-07
8.80771e-08
3.72793e-07
7.59555e-08
7.55395e-08
4.37625e-07
3.73155e-07
8.72348e-08
4.48947e-08
1.05709e-07
2.23431e-07
2.23309e-07
4.4842e-08
4.46293e-08
1.05471e-07
2.22591e-07
7.54183e-08
4.39076e-07
3.72184e-07
8.78634e-08
3.73752e-07
8.7404e-08
7.54436e-08
7.53161e-08
4.36894e-07
8.78122e-08
3.71243e-07
4.45232e-08
1.03322e-07
2.19601e-07
2.19997e-07
4.44153e-08
4.4465e-08
1.04005e-07
2.20739e-07
7.54907e-08
4.37764e-07
8.79598e-08
3.7146e-07
8.7916e-08
3.7246e-07
7.52487e-08
4.0767e-07
6.78277e-07
2.452e-07
1.01079e-07
1.01098e-07
6.81634e-07
4.09395e-07
4.10372e-07
6.88999e-07
2.47761e-07
1.02369e-07
6.84743e-07
1.02875e-07
4.10813e-07
1.54798e-07
4.47713e-08
4.50224e-08
4.47419e-08
4.49086e-08
1.55233e-07
5.00338e-08
4.47419e-08
1.05537e-07
2.25515e-07
2.26627e-07
4.47012e-08
7.56947e-08
4.45546e-07
3.78162e-07
8.84097e-08
3.77014e-07
8.87599e-08
7.5621e-08
4.47769e-08
1.05448e-07
2.26482e-07
2.26454e-07
4.47543e-08
7.57101e-08
4.46288e-07
3.7608e-07
8.87047e-08
3.78571e-07
8.86636e-08
7.57069e-08
4.94574e-08
4.94775e-08
5.00543e-08
7.81577e-07
1.05315e-06
1.06198e-06
1.69808e-06
7.82137e-07
1.0405e-06
1.05092e-06
2.76322e-06
2.77825e-06
2.23077e-06
7.80699e-07
1.04884e-06
1.06212e-06
1.69839e-06
7.8251e-07
1.03862e-06
1.05353e-06
7.77158e-07
1.75027e-06
1.05271e-06
1.05963e-06
7.81487e-07
1.06148e-06
1.05925e-06
7.69448e-07
1.06354e-06
1.0536e-06
1.71322e-06
1.04295e-06
1.03927e-06
7.7701e-07
7.84274e-07
1.07322e-06
1.07537e-06
1.72462e-06
1.06831e-06
1.06669e-06
7.86441e-07
7.81078e-07
1.05461e-06
1.06983e-06
1.70849e-06
1.06527e-06
1.05034e-06
7.84201e-07
7.81412e-07
1.76132e-06
1.0574e-06
1.05261e-06
7.80437e-07
1.06776e-06
1.06342e-06
2.78867e-06
2.77276e-06
2.23223e-06
2.74728e-06
2.75147e-06
2.22443e-06
2.75946e-06
2.76069e-06
2.24291e-06
1.22139e-06
9.24953e-07
4.73494e-07
6.76893e-07
9.21861e-07
6.76264e-07
1.22649e-06
1.24418e-06
4.70714e-07
9.3062e-07
6.77865e-07
1.27795e-06
9.21892e-07
8.43877e-07
1.38425e-06
8.47403e-07
1.36467e-06
1.28482e-06
1.2216e-06
9.31453e-07
4.74926e-07
6.7742e-07
9.30433e-07
6.7705e-07
1.22786e-06
1.28998e-06
9.29364e-07
1.38501e-06
8.47607e-07
1.39587e-06
8.50399e-07
1.28998e-06
7.79814e-07
1.69913e-06
1.06261e-06
1.05364e-06
7.82173e-07
1.04087e-06
1.05494e-06
1.29869e-06
8.31834e-07
1.3778e-06
9.19919e-07
8.41362e-07
1.40027e-06
1.28526e-06
1.24091e-06
9.40716e-07
4.71771e-07
6.84378e-07
6.72597e-07
9.38718e-07
1.25057e-06
1.23743e-06
4.6803e-07
6.67005e-07
9.37644e-07
1.2882e-06
9.24228e-07
8.56546e-07
1.40767e-06
8.41086e-07
1.4014e-06
1.29396e-06
1.28516e-06
8.31813e-07
1.38022e-06
9.19985e-07
8.45256e-07
1.39714e-06
1.26863e-06
1.24735e-06
9.41349e-07
4.75893e-07
6.86271e-07
6.82677e-07
9.40652e-07
1.23769e-06
1.23921e-06
6.63217e-07
4.67375e-07
9.22087e-07
6.73411e-07
1.22124e-06
9.35739e-07
1.2821e-06
9.28444e-07
8.54215e-07
1.40577e-06
8.48921e-07
1.39829e-06
1.28542e-06
7.86346e-07
1.7609e-06
1.05285e-06
1.07601e-06
1.08357e-06
1.06945e-06
7.8024e-07
1.20357e-06
9.10354e-07
4.64571e-07
6.65294e-07
6.64655e-07
9.04983e-07
1.20852e-06
1.26556e-06
9.1614e-07
8.38519e-07
1.38381e-06
8.30335e-07
1.37458e-06
1.27447e-06
1.22325e-06
9.24343e-07
4.73137e-07
6.7606e-07
6.75952e-07
9.24525e-07
1.22727e-06
1.25887e-06
9.19623e-07
1.38003e-06
8.46896e-07
1.37339e-06
8.40844e-07
1.27335e-06
1.21233e-06
9.22094e-07
4.67555e-07
6.69795e-07
9.14819e-07
6.65691e-07
1.21816e-06
1.26934e-06
9.1278e-07
1.37847e-06
8.40124e-07
1.34933e-06
8.39715e-07
1.26427e-06
1.22342e-06
9.29484e-07
4.78114e-07
6.85599e-07
9.22403e-07
6.84045e-07
1.23258e-06
1.28974e-06
9.34062e-07
1.39308e-06
8.57308e-07
1.38689e-06
8.55446e-07
1.29348e-06
2.31368e-06
1.74092e-06
1.7454e-06
1.72787e-06
2.36895e-06
1.74103e-06
1.73365e-06
1.733e-06
2.35742e-06
1.71091e-06
1.73988e-06
1.74716e-06
2.36678e-06
1.71437e-06
1.73008e-06
1.74768e-06
2.38186e-06
1.72084e-06
1.73327e-06
1.7278e-06
2.34038e-06
1.72212e-06
1.73258e-06
1.76689e-06
2.36916e-06
1.74207e-06
1.74266e-06
1.75569e-06
2.37249e-06
1.73538e-06
1.73993e-06
1.75885e-06
2.36575e-06
1.74323e-06
1.7433e-06
1.76264e-06
2.36191e-06
1.72164e-06
1.72022e-06
1.74063e-06
2.36765e-06
1.72463e-06
1.72411e-06
1.74661e-06
2.35168e-06
1.73053e-06
1.70651e-06
1.74051e-06
2.37653e-06
1.72786e-06
1.70716e-06
1.73905e-06
2.36647e-06
1.70795e-06
1.7315e-06
1.74531e-06
2.38635e-06
1.6878e-06
1.7359e-06
1.74759e-06
2.39772e-06
1.72354e-06
1.71087e-06
1.70292e-06
1.71253e-06
1.71066e-06
1.69712e-06
1.72512e-06
1.73094e-06
1.73859e-06
1.69117e-06
1.72088e-06
1.74401e-06
1.68934e-06
1.68582e-06
1.76835e-06
1.72339e-06
1.73536e-06
1.72932e-06
1.7443e-06
1.73375e-06
1.75139e-06
1.71068e-06
1.7099e-06
1.73418e-06
1.73803e-06
1.71381e-06
1.71489e-06
1.74369e-06
1.70336e-06
1.76973e-06
1.73092e-06
1.70872e-06
1.72789e-06
1.70901e-06
1.7048e-06
1.75502e-06
1.72798e-06
1.74622e-06
1.72813e-06
1.73478e-06
1.74256e-06
1.75189e-06
1.69462e-06
1.73941e-06
1.73053e-06
1.7138e-06
1.74676e-06
1.71005e-06
1.72464e-06
1.72623e-06
1.7717e-06
1.71163e-06
1.71191e-06
1.72354e-06
1.71608e-06
1.70542e-06
1.773e-06
1.71934e-06
1.73543e-06
1.74292e-06
1.72608e-06
1.71637e-06
1.76058e-06
1.71784e-06
1.71614e-06
1.74974e-06
1.73267e-06
1.72338e-06
1.73084e-06
1.72591e-06
1.71697e-06
1.76966e-06
1.72949e-06
1.71114e-06
1.74293e-06
1.71781e-06
1.70919e-06
1.75941e-06
1.71487e-06
1.70289e-06
1.73516e-06
1.71589e-06
1.72916e-06
1.74558e-06
1.71573e-06
1.71516e-06
1.74124e-06
1.71739e-06
1.7298e-06
1.6935e-06
1.73345e-06
1.71211e-06
1.76657e-06
1.72072e-06
1.70225e-06
1.73591e-06
1.70642e-06
1.68433e-06
1.75802e-06
1.71254e-06
1.7128e-06
1.71424e-06
1.7293e-06
1.74001e-06
1.76759e-06
1.70678e-06
1.70912e-06
1.72783e-06
1.70829e-06
1.73549e-06
1.71329e-06
1.73094e-06
1.72151e-06
1.768e-06
1.71793e-06
1.7266e-06
1.73872e-06
1.72656e-06
1.72015e-06
1.75766e-06
1.69799e-06
1.70419e-06
1.7265e-06
1.70882e-06
1.71065e-06
1.76044e-06
1.72104e-06
1.72885e-06
1.73942e-06
1.7063e-06
1.73883e-06
1.71944e-06
1.72216e-06
1.70107e-06
1.76178e-06
1.72632e-06
1.71166e-06
1.7417e-06
1.72818e-06
1.69843e-06
1.75469e-06
1.69431e-06
1.73107e-06
1.71987e-06
1.71939e-06
1.7401e-06
1.76934e-06
1.71024e-06
1.71637e-06
1.7216e-06
1.7198e-06
1.71316e-06
1.71832e-06
1.72296e-06
1.71345e-06
1.7692e-06
1.71315e-06
1.73384e-06
1.72154e-06
1.74044e-06
1.70747e-06
1.7549e-06
1.70934e-06
1.73926e-06
1.7394e-06
1.73456e-06
1.7428e-06
1.77076e-06
1.71365e-06
1.69601e-06
1.71409e-06
1.71102e-06
1.73404e-06
1.7102e-06
1.74502e-06
1.70602e-06
1.75991e-06
1.71869e-06
1.73446e-06
1.72779e-06
1.74189e-06
1.72108e-06
1.74101e-06
1.71774e-06
1.72851e-06
1.74276e-06
1.71773e-06
1.72002e-06
1.76373e-06
1.72106e-06
1.71017e-06
1.73015e-06
1.70853e-06
1.73841e-06
1.72264e-06
1.71179e-06
1.73098e-06
1.76361e-06
1.72028e-06
1.73689e-06
1.71365e-06
1.72921e-06
1.70732e-06
1.75965e-06
1.70488e-06
1.71172e-06
1.72586e-06
1.72184e-06
1.71118e-06
1.75782e-06
1.72518e-06
1.7126e-06
1.7233e-06
1.72558e-06
1.73713e-06
1.72691e-06
1.7349e-06
1.7336e-06
1.74924e-06
1.70911e-06
1.71383e-06
1.72246e-06
1.72709e-06
1.71765e-06
1.75308e-06
1.71892e-06
1.70528e-06
1.73366e-06
1.72307e-06
1.71029e-06
1.74847e-06
1.69257e-06
1.72597e-06
1.73502e-06
1.73738e-06
1.71195e-06
1.71269e-06
1.72857e-06
1.73324e-06
1.75485e-06
1.7249e-06
1.73355e-06
1.69338e-06
1.71867e-06
1.70029e-06
1.75641e-06
1.71135e-06
1.71243e-06
1.72586e-06
1.73667e-06
1.73478e-06
1.75082e-06
1.70988e-06
1.73312e-06
1.72569e-06
1.71878e-06
1.73232e-06
1.70132e-06
1.72132e-06
1.71438e-06
1.75898e-06
1.72818e-06
1.71541e-06
1.73228e-06
1.72398e-06
1.70135e-06
1.74939e-06
1.71378e-06
1.72727e-06
1.73156e-06
1.73456e-06
1.73453e-06
1.73915e-06
1.72042e-06
1.73219e-06
1.71037e-06
1.73112e-06
1.73393e-06
1.68936e-06
1.73334e-06
1.71467e-06
1.76499e-06
1.71875e-06
1.71538e-06
1.7418e-06
1.73709e-06
1.72012e-06
1.75463e-06
1.71477e-06
1.73018e-06
1.72791e-06
1.73349e-06
1.72114e-06
1.75507e-06
1.70654e-06
1.71672e-06
1.70699e-06
1.73857e-06
1.74365e-06
1.70646e-06
1.71945e-06
1.73996e-06
1.745e-06
1.73284e-06
1.72397e-06
1.75154e-06
1.72726e-06
1.7248e-06
1.74049e-06
1.71232e-06
1.72993e-06
1.70466e-06
1.71792e-06
1.73005e-06
1.73379e-06
1.72784e-06
1.72155e-06
1.70399e-06
1.74327e-06
1.73539e-06
1.72091e-06
1.7415e-06
1.74313e-06
1.74611e-06
1.72767e-06