/*--------------------------------*- C++ -*----------------------------------*\
| =========                 |                                                 |
| \\      /  F ield         | OpenFOAM: The Open Source CFD Toolbox           |
|  \\    /   O peration     | Version:  2206                                  |
|   \\  /    A nd           | Website:  www.openfoam.com                      |
|    \\/     M anipulation  |                                                 |
\*---------------------------------------------------------------------------*/
FoamFile
{
    version     2.0;
    format      ascii;
    arch        "LSB;label=32;scalar=64";
    class       volScalarField;
    location    "120";
    object      omega;
}
// * * * * * * * * * * * * * * * * * * * * * * * * * * * * * * * * * * * * * //

dimensions      [0 0 -1 0 0 0 0];

internalField   nonuniform List<scalar> 
67442
(
21.3972
34.1803
33.6923
36.57
37.5478
34.2736
33.6693
36.5386
35.021
35.0719
34.684
37.2997
33.5945
295.089
156.077
397.213
297.182
160.736
20.8299
21.4844
20.7538
148.598
25.2855
74.1382
398.736
24.989
144.101
70.7497
202.086
200.735
397.092
398.796
200.992
202.928
294.994
155.49
147.009
25.2302
73.0841
143.342
24.4812
72.1255
200.67
201.734
398.708
149.763
26.2034
77.3038
297.032
160.326
26.2068
149.211
76.9426
297.049
159.376
25.0861
146.705
75.7504
297.088
159.651
202.732
200.371
397.086
25.0659
146.041
72.7226
295.018
155.484
294.999
155.515
398.671
397.15
414.478
294.877
209.183
207.834
414.699
324.815
152.487
304.927
171.315
304.819
169.932
324.897
397.018
328.322
160.15
174.881
308.299
416.887
296.934
212.488
211.62
417.149
417.095
296.925
211.941
328.156
159.717
175.413
308.349
174.652
308.234
328.26
398.532
398.596
169.839
107.328
201.728
305.601
110.729
305.376
169.05
168.068
107.607
200.975
305.374
108.758
305.218
167.198
245.34
402.142
402.077
401.954
401.897
245.601
396.899
398.508
398.621
169.067
109.23
200.251
304.743
304.55
107.351
168.354
168.608
110.447
201.46
306.093
305.862
108.543
167.845
245.481
401.628
402.558
401.446
402.353
245.586
414.734
294.887
208.99
209.081
414.878
325.019
154.412
305.094
170.467
305.012
171.228
325.043
167.727
105.753
200.479
305.299
305.16
109.293
166.97
169.329
110.009
202.739
305.634
110.727
305.499
168.509
245.639
402.094
402.213
401.86
402.024
245.652
398.515
328.246
159.813
308.235
174.57
416.854
296.811
212.279
211.17
417.101
417.111
296.833
212.108
328.075
159.461
308.288
175.02
308.171
174.295
328.176
416.968
296.996
211.399
212.143
417.202
328.108
160.078
173.631
308.315
172.862
308.244
328.242
416.98
297.011
212.185
211.924
417.216
328.211
159.161
308.401
174.536
308.297
174.204
328.311
168.903
110.304
202.086
305.941
305.782
108.408
168.154
168.651
109.098
200.579
304.643
107.06
304.427
167.869
245.578
402.592
401.531
402.397
401.402
245.718
396.952
414.61
294.938
208.603
208.166
414.811
325.04
154.715
169.679
305.08
171.813
305.016
325.055
414.589
294.933
208.111
208.908
414.734
324.991
156.401
170.43
305.09
171.196
305.053
325.008
398.456
397.021
17.3313
17.5615
15.3224
99.6164
62.0441
61.1663
37.0752
61.1562
60.1722
98.6207
99.4108
62.406
62.8982
35.1731
60.989
61.4954
98.2901
99.2798
59.6776
62.7967
37.072
63.5246
62.8486
98.0651
99.43
62.6164
62.0752
36.3227
60.6636
59.0244
98.4124
17.2439
17.5627
15.3385
17.611
17.3673
15.3231
17.366
17.2191
15.3485
53.9843
76.326
149.237
107.89
77.7323
108.606
53.0893
44.5845
77.6244
85.3166
39.6817
86.5864
40.0838
43.8028
52.5842
75.7981
146.67
104.614
71.7791
103.582
51.0065
42.6808
74.0139
36.5372
79.2581
38.3882
82.7575
42.1171
52.3316
75.8156
145.374
105.924
103.948
74.326
51.5808
42.9731
69.0879
82.8874
37.9311
81.2083
35.8159
42.0081
51.773
74.2082
146.131
104.164
105.34
75.5018
50.8188
42.533
71.1115
81.4847
37.5278
82.8286
37.0861
41.8668
55.1327
77.7341
148.117
108.923
105.024
74.8301
52.769
45.3441
73.1457
86.7814
40.3983
83.9129
39.483
43.8558
54.4847
77.4356
147.679
108.613
104.448
75.9355
52.6821
45.214
74.0823
40.0876
86.4192
38.5499
83.4681
43.6879
54.62
75.8286
149.421
106.946
77.3005
105.534
52.9242
44.7172
75.2205
39.1097
83.2623
39.7954
86.9651
44.0041
52.9965
75.462
145.327
105.235
76.4889
104.07
52.4534
42.6511
71.9006
36.5711
82.3368
38.4163
81.188
42.0084
739.141
1611.59
4429.03
16540.8
116782
717.002
1590.24
4391.2
16456.4
116912
738.877
1612
4431.22
16554.7
116802
716.728
1590.19
4390.97
16455
116892
716.874
1589.92
4389.82
16447.2
116862
716.689
1590.11
4390.78
16454.3
116912
739.26
1612.1
4431.85
16558.9
116803
716.66
1589.94
4390.15
16450.6
116872
739.033
1612.61
4434.07
16572.6
116814
738.818
1611.88
4431.29
16557.1
116781
738.796
1611.89
4431.24
16555.8
116772
716.936
1590.02
4390.26
16451.2
116881
739.138
1611.6
4429.58
16546.1
116795
739.095
1611.5
4429.13
16543.4
116802
716.632
1589.95
4390.23
16451.1
116892
716.875
1589.88
4389.91
16449.1
116911
714.054
1589.07
4388.95
16444.9
116835
738.904
1611.38
4429.21
16543.7
116782
716.844
1590.11
4391.07
16456.1
116912
726.238
1600.94
4409.17
16485.1
116752
725.378
1595.79
4399.64
16471.1
116727
713.739
1589.29
4389.98
16451
116840
738.606
1611.88
4431.95
16561
116802
738.805
1612.04
4432.09
16560.6
116802
716.539
1590.11
4391.18
16456.7
116892
716.672
1590.17
4391.18
16456.4
116892
737.789
1611.14
4430.77
16562.4
116795
737.609
1611.13
4431.28
16565.8
116795
737.728
1610.58
4428.09
16545.4
116795
737.555
1610.52
4428.44
16547.5
116795
714.89
1592.9
4396.02
16455.7
116918
715.007
1592.88
4395.83
16455.2
116921
714.716
1592.82
4396.03
16455.9
116918
714.842
1592.81
4395.85
16455.5
116921
716.713
1589.8
4389.83
16447.9
116862
716.499
1590.03
4391
16456
116912
716.614
1590.09
4391.01
16455.8
116912
739.056
1611.87
4431.47
16557.9
116803
737.81
1611.26
4431.24
16564.8
116789
737.625
1611.25
4431.9
16569.6
116789
714.914
1592.98
4396.06
16456.4
116919
714.735
1592.85
4395.98
16456.4
116919
716.477
1589.88
4390.28
16451.6
116872
726.261
1601.06
4409.69
16487.7
116747
725.377
1595.83
4399.88
16472.7
116725
713.815
1589.51
4390.85
16456.2
116852
738.742
1612.41
4434.54
16577.4
116814
738.939
1612.6
4434.73
16577.2
116814
738.623
1611.86
4431.8
16560.5
116781
713.777
1589.34
4390.23
16452.4
116831
738.586
1611.84
4431.71
16559.2
116772
738.113
1611.89
4434.03
16581.3
116759
737.928
1611.74
4433.93
16581.4
116759
714.984
1593.07
4396.52
16458.1
116904
716.782
1589.9
4390.19
16451.3
116881
714.127
1589.15
4389.22
16446.4
116836
738.927
1611.38
4429.32
16545.4
116795
714.089
1589.09
4389
16446
116840
738.876
1611.28
4428.9
16543.1
116802
716.457
1589.9
4390.34
16451.6
116892
716.725
1589.77
4389.83
16449
116911
714.17
1589.14
4389.15
16447.3
116838
713.809
1589.41
4390.45
16454.4
116840
726.525
1600.74
4408.42
16480.1
116768
725.891
1595.71
4398.81
16465.3
116747
725.731
1595.53
4398.69
16465.8
116747
726.665
1600.84
4408.44
16479.6
116768
714.21
1589.2
4388.99
16444.6
116835
737.921
1611.44
4431.76
16567.6
116776
737.748
1611.23
4431.66
16566.7
116776
715.042
1592.92
4395.74
16454.2
116887
714.868
1592.85
4395.76
16454.3
116887
713.937
1589.34
4389.75
16449.5
116840
726.079
1600.88
4409.25
16485.7
116752
725.411
1595.79
4399.49
16470
116727
725.213
1595.7
4399.76
16472.5
116727
726.241
1600.9
4409.01
16484.2
116752
713.898
1589.34
4389.96
16451.1
116840
737.869
1611.71
4432.64
16571.6
116777
737.57
1611.4
4432.55
16572.9
116777
715.017
1593.11
4396.55
16458.3
116918
714.846
1593.02
4396.65
16459.3
116918
737.999
1611.25
4430.53
16558.5
116776
737.735
1610.96
4430.34
16559.6
116776
714.975
1593.02
4396.25
16457
116933
714.81
1592.91
4396.21
16457.3
116933
737.758
1611.23
4430.47
16558.4
116795
737.498
1611.04
4430.7
16561.8
116795
714.964
1593.01
4396.07
16456
116921
714.794
1592.91
4396.08
16456.5
116921
726.598
1600.75
4408.29
16480.2
116751
725.878
1595.61
4398.47
16464.2
116727
725.722
1595.45
4398.3
16464.1
116727
726.711
1600.83
4408.43
16481
116751
714.321
1589.28
4389.29
16447.6
116838
726.108
1601.02
4409.82
16488.6
116747
725.414
1595.84
4399.74
16471.7
116725
725.211
1595.73
4399.99
16474.2
116725
726.262
1601.01
4409.49
16486.6
116747
713.995
1589.55
4390.67
16455
116852
713.952
1589.5
4390.69
16455.6
116852
713.996
1589.45
4390.31
16453.3
116840
726.232
1601.38
4411.04
16495.8
116774
725.505
1596.24
4401.82
16483.9
116749
725.362
1596.27
4402.33
16487.4
116749
726.332
1601.26
4410.62
16494
116774
726.187
1601.18
4410.41
16492.1
116769
725.513
1596.19
4401.72
16484.1
116747
725.382
1596.3
4402.3
16487.6
116747
726.318
1601.19
4410.29
16491.9
116769
713.939
1589.33
4390
16451.5
116831
714.838
1592.99
4396.55
16458.5
116904
714.274
1589.26
4389.32
16446.7
116836
726.568
1600.72
4408.31
16479
116758
725.858
1595.58
4398.53
16463.4
116725
725.717
1595.46
4398.47
16464.2
116736
726.687
1600.79
4408.28
16478.2
116747
714.246
1589.21
4389.14
16446.6
116840
726.549
1600.66
4407.96
16478.1
116752
725.841
1595.53
4398.21
16462.8
116727
725.71
1595.4
4398.04
16462.4
116727
726.666
1600.74
4408.04
16478.2
116752
34.6545
35.5298
33.2439
21.3191
158.405
25.9785
74.3176
296.863
157.926
26.0053
146.584
76.0879
398.536
201.745
328.395
159.029
173.559
308.21
174.03
308.457
328.069
417.198
296.946
211.98
211.339
416.877
328.293
158.489
308.142
173.058
308.389
173.489
327.976
398.716
167.265
107.038
202.051
305.739
107.742
305.801
166.525
166.621
105.847
106.75
165.988
245.804
402.417
402.535
245.724
97.5883
35.77
61.8733
59.3504
59.4226
59.9641
98.5878
17.358
15.3615
17.5509
17.3293
15.3315
44.593
75.0344
86.0253
38.7199
83.4254
39.1727
43.8916
53.4938
74.496
146.981
107.769
105.111
75.3461
52.5857
44.5278
73.5221
39.6702
85.7015
38.1483
83.0475
43.8814
51.5948
74.9361
72.3785
50.7891
35.7438
33.8938
34.6525
21.1794
396.946
398.627
199.918
202.596
294.964
155.219
144.398
25.0042
72.0564
297.055
147.392
397.114
398.786
167.364
105.849
200.162
304.589
304.725
106.512
166.635
166.886
107.217
201.933
305.991
306.122
107.807
166.177
245.447
401.497
402.416
401.664
402.604
245.317
414.842
295.035
208.888
208.391
414.573
325.139
153.061
304.913
169.373
305.013
170.11
324.779
417.273
297.199
212.215
211.709
416.946
97.4792
36.0784
59.6942
60.1904
60.4347
60.688
98.2507
17.2788
50.5875
72.7049
145.054
102.81
73.5626
103.943
49.4885
41.1004
69.4445
79.7715
37.457
80.8138
35.9924
42.7989
51.5934
76.987
148.093
107.992
74.4112
105.169
54.1962
738.809
1612.49
4434.26
16574.5
116814
716.574
1590.13
4391.04
16455.6
116892
714.016
1589.54
4390.66
16455.1
116852
738.917
1612.35
4433.56
16571
116814
716.695
1590.11
4390.82
16454.5
116892
726.256
1600.89
4409.05
16484.7
116752
725.261
1595.78
4399.76
16471.7
116727
725.392
1595.74
4399.62
16471.7
116727
726.073
1600.83
4409.18
16485.8
116752
726.251
1600.94
4409.34
16486.1
116747
725.274
1595.85
4400.06
16473.7
116725
725.425
1595.92
4399.95
16473.8
116725
726.082
1600.92
4409.56
16487.6
116747
713.801
1589.43
4390.76
16456.4
116852
737.677
1611.71
4433.02
16574.6
116777
737.747
1611.51
4432.17
16570.6
116777
714.867
1593.04
4396.55
16458.4
116918
714.994
1593.07
4396.46
16457.9
116918
716.758
1589.82
4389.74
16447
116862
716.543
1590.06
4390.87
16454.8
116912
738.936
1611.34
4428.58
16539
116782
738.657
1611.85
4431.24
16555.1
116802
716.87
1589.88
4389.74
16446.9
116862
716.675
1590.06
4390.71
16454.2
116912
714.252
1589.2
4388.95
16444.3
116835
739.089
1611.46
4428.78
16540
116782
738.801
1611.8
4430.75
16552.9
116802
714.842
1592.94
4396.23
16457.1
116933
714.825
1592.93
4396.06
16456.1
116921
713.966
1589.31
4389.67
16449.1
116840
713.753
1589.22
4389.75
16450
116840
737.808
1611.11
4430.63
16559.1
116776
737.918
1611.1
4430.51
16559.1
116776
737.568
1611.15
4430.78
16560.4
116795
737.678
1611.08
4430.47
16560.2
116795
714.975
1592.97
4396.01
16455.8
116921
714.984
1592.98
4396.17
16456.8
116933
726.702
1600.83
4408.36
16479.2
116768
725.76
1595.57
4398.66
16465.1
116747
725.86
1595.59
4398.57
16464.8
116747
726.522
1600.66
4408.26
16479.7
116768
714.068
1589.01
4388.79
16444.4
116835
39.0477
22.1738
35.9695
34.9231
39.5767
39.2502
39.424
35.5446
35.4844
38.9627
36.1323
36.4452
36.3571
39.1811
35.1593
203.996
202.257
38.9125
203.761
202.026
161.363
295.198
158.733
397.298
398.038
297.403
163.017
22.0082
22.1947
22.1713
152.465
26.6276
34.0341
79.9475
398.812
25.6919
149.741
77.5341
203.96
202.258
398.753
398.613
397.236
397.105
36.6169
203.82
201.457
203.223
200.952
398.656
398.765
397.116
397.217
397.152
398.852
201.581
204.102
161.754
295.297
296.52
158.767
78.8918
148.758
25.9679
25.584
76.8558
79.5311
149.619
26.0349
35.1704
150.929
26.1935
76.8164
202.084
203.755
38.7089
203.155
398.781
152.32
26.8652
79.8728
297.243
162.691
26.9885
151.611
80.1308
297.245
162.425
27.2455
152.291
80.7798
297.252
162.317
203.684
201.985
397.179
25.9784
149.443
77.2867
295.231
158.065
295.148
158.519
398.794
397.254
245.953
401.958
401.901
402.095
402.041
245.374
171.318
114.495
305.725
203.287
305.606
169.339
110.514
169.452
112.178
305.523
201.066
305.336
168.867
107.768
245.844
402.117
402.023
401.992
401.949
245.52
170.186
305.644
202.887
113.908
305.684
170.016
113.105
167.332
305.352
201.818
111.785
305.44
166.188
110.798
326.918
307.122
176.078
160.131
306.833
173.474
327.257
415.305
295.154
210.282
210.097
415.011
416.04
295.93
211.105
325.861
156.632
305.353
173.611
305.783
173.757
325.316
397.12
397.772
417.153
297.307
213.469
212.916
417.291
328.421
160.71
177.624
308.516
175.895
308.428
328.473
398.69
171.054
113.923
305.729
203.002
170.51
110.134
305.579
169.506
112.648
305.478
201.497
167.594
111.061
305.395
245.886
402.109
402.033
245.778
402.019
401.958
398.628
398.728
397.144
397.229
245.891
402.108
402.029
245.708
401.973
401.904
171.128
113.384
305.642
203.014
169.416
305.649
110.289
169.754
110.018
305.392
201.415
168.335
305.403
110.45
245.498
401.998
401.924
245.645
402.116
402.032
169.149
305.616
110.048
203.297
168.953
305.547
110.299
168.102
305.427
108.214
200.854
168.901
305.294
108.014
398.738
398.672
397.204
397.174
396.99
397.552
398.758
170.55
111.522
201.076
304.856
304.741
109.804
168.572
170.522
113.828
203.454
306.313
306.234
111.006
168.801
201.639
110.456
246.031
401.628
402.56
401.517
402.454
245.881
326.891
307.234
176.187
158.53
306.825
173.284
327.278
415.306
295.164
210.183
209.76
415.042
416.114
211.957
295.932
210.739
416.222
325.78
158.428
305.407
173.322
305.915
172.528
325.269
246.302
401.443
401.473
402.386
170.008
113.152
201.417
305.481
305.313
111.025
169.411
171.315
112.974
203.395
305.726
111.012
305.681
169.232
168.476
305.194
201.659
113.157
305.301
109.659
169.221
170.221
203.557
111.988
305.741
246.152
402.08
402.206
401.921
402.175
245.8
398.681
398.795
417.1
297.107
212.872
212.399
417.192
328.272
161.508
308.452
176.492
308.397
175.315
328.261
328.468
161.755
176.367
308.415
417.172
297.2
213.072
212.7
417.271
417.33
297.21
212.812
328.362
161.852
176.81
308.467
175.431
308.401
328.365
328.492
161.886
308.45
176.432
417.193
297.319
213.425
213.034
417.316
417.318
297.09
212.855
328.405
160.57
308.451
177.105
308.41
176.36
328.393
170.334
112.948
203.072
306.139
306.069
111.337
168.498
170.281
112.709
201.166
304.92
109.055
304.799
169.515
245.963
402.514
401.606
402.44
401.556
245.863
397.105
414.741
295.147
210.234
209.418
414.864
325.109
156.785
173.444
305.074
171.837
305.063
325.124
414.695
295.144
209.88
209.286
414.77
325.114
157.292
173.523
305.154
172.157
305.112
325.128
398.735
398.652
397.17
100.847
65.465
64.672
37.4451
99.6444
63.3173
61.1066
17.5299
17.9104
15.3464
100.968
65.4808
64.4888
37.1536
97.8822
62.6183
61.5226
101.394
37.7714
64.7931
63.7441
98.5033
64.5345
63.6419
101.646
65.4069
66.1253
37.3771
63.8639
62.5885
100.791
101.909
65.033
64.9947
37.4804
62.8959
61.6881
98.862
101.75
65.7363
64.6466
37.2228
62.959
63.4272
98.7542
98.7781
37.0836
65.564
64.5967
98.7431
62.7697
63.8078
17.59
17.861
15.3174
17.9895
17.6112
15.3185
17.9467
17.645
15.3025
56.6135
80.8768
151.605
112.45
78.8957
111.326
55.7856
53.4584
151.531
79.4777
111.228
46.2118
76.7566
89.5452
41.8821
86.3791
40.0396
45.1614
54.3836
79.0794
147.678
109.566
75.9382
107.722
53.7133
44.0671
74.5538
39.9556
86.2787
38.4184
84.5918
43.4948
100.512
38.4302
61.3193
62.4598
100.464
64.357
63.2874
45.6126
87.6874
41.2305
77.0835
86.2611
39.0466
43.7397
54.8675
78.8072
148.345
108.98
107.697
77.9688
52.4251
53.2217
149.405
109.27
78.626
44.5471
76.3429
85.8147
40.3502
84.7719
39.5729
44.3062
45.8184
88.052
41.0865
75.6642
86.2545
40.0903
44.2392
54.6822
79.0992
148.111
108.838
107.473
76.3716
52.077
54.2104
110.495
147.522
80.0301
107.942
54.9333
76.1282
44.6602
76.1139
86.0091
40.1501
84.6628
39.7637
44.3071
100.719
37.0113
65.0843
64.9442
62.5005
64.302
100.977
56.6879
81.3411
150.206
112.499
109.852
78.3603
56.0046
46.5088
76.3754
90.2904
42.1341
87.2889
40.1414
45.6983
56.1041
80.1147
149.139
111.948
109.019
76.9177
55.4342
46.4664
77.2344
42.5542
89.5169
40.7822
86.1795
45.748
56.4255
80.8751
149.793
112.232
77.3165
109.078
55.675
46.3271
77.7992
42.1046
89.5985
40.1615
85.9416
45.6339
54.5103
79.1948
148.289
109.235
77.9986
107.621
52.0977
44.3074
74.5022
40.6328
86.6272
38.7945
85.1849
43.6981
21.4131
35.9099
33.8981
38.4382
21.6904
36.1784
34.3289
39.2384
21.9293
35.6789
34.6869
39.2359
21.9138
35.5363
35.0365
39.3256
21.8654
35.5119
35.1261
39.7696
21.9606
35.6001
35.274
39.2392
21.8146
35.7525
34.9955
39.3847
22.1382
35.659
35.1424
39.3169
21.9885
35.6645
34.9578
39.0223
22.0168
35.8881
34.7903
39.4993
21.861
35.7082
34.6894
39.5231
21.8509
35.7817
34.7745
39.486
21.8618
35.7886
34.7113
39.3521
21.9415
35.7814
34.7941
39.7082
21.9112
35.8982
34.9604
39.5274
21.9561
35.9023
35.0826
37.7727
34.4038
34.6045
37.7694
35.1555
35.2467
34.4361
35.5967
37.753
33.3298
34.689
36.6608
36.4753
38.3051
33.7485
32.5416
34.6555
34.9812
35.6617
38.0108
34.042
33.42
35.4478
35.4775
33.5081
35.8743
35.9897
35.4855
38.0526
33.5306
33.7095
34.7332
38.7434
37.1464
38.4844
33.5963
34.423
34.7753
35.4239
36.2983
38.3591
33.4427
34.351
36.0023
35.5895
35.2744
35.188
35.8492
37.1246
38.3903
33.8002
34.1184
35.211
38.6806
37.2806
38.2663
33.5229
33.8404
35.1331
35.0261
36.357
38.5023
35.3878
33.4374
35.9919
36.1391
33.6575
35.0452
36.2413
37.703
38.4305
34.3765
33.6267
35.4037
38.822
36.5576
38.6197
34.0743
34.123
35.2634
35.2719
37.4134
38.4596
34.9282
35.2513
36.0959
36.0557
35.418
35.0349
36.3572
37.8156
38.5774
34.7949
33.7666
35.4162
38.2173
37.2262
38.4449
33.1736
34.3247
35.5032
35.1494
36.1324
38.2083
35.5448
34.6379
36.2668
36.1053
35.0658
35.0954
36.2817
35.8165
38.7011
34.1718
33.9247
35.2743
37.597
37.164
38.5133
34.8164
33.9208
35.4852
35.2132
35.9382
38.6483
34.8128
34.1617
35.914
36.0551
34.9932
34.9451
36.2315
37.6108
38.6231
32.9858
34.5617
35.4042
38.8419
37.4092
38.7634
34.1159
34.0493
35.2075
35.1998
36.4744
38.2004
34.9658
35.243
36.1235
36.0863
35.2329
34.302
36.3353
37.5236
38.5309
34.7996
33.7594
35.3588
38.7807
37.4014
38.5464
34.4097
34.2054
35.3682
35.2853
36.8894
38.1872
34.8233
34.8121
35.9098
36.0636
35.2565
34.328
35.899
35.9379
38.6996
34.5817
34.5413
35.3713
38.5055
36.4207
38.7949
34.5373
34.1704
35.2862
35.3368
36.0978
38.3043
34.1403
35.0926
36.4993
36.0745
34.9923
34.4727
35.9647
37.4785
38.5859
33.6047
34.2509
35.3307
39.2566
37.5594
38.687
33.9563
34.3022
35.2365
35.2506
36.6615
38.3495
35.4354
33.8953
36.0603
35.9991
35.0742
34.2479
36.0933
37.3101
38.2972
34.5207
34.1995
35.1515
37.8991
37.7356
38.4469
33.3453
34.065
35.5107
35.0935
37.1369
38.6089
34.7196
34.7988
36.0121
36.0859
35.1048
34.6231
36.2901
36.0121
38.4769
34.1269
34.2135
35.2263
39.2512
37.2125
38.3485
34.8063
33.2561
35.3495
35.4051
37.2307
38.4069
35.1284
34.3309
36.224
36.2391
35.1739
35.2974
36.1307
37.2249
38.3553
34.4118
34.2236
35.2383
38.8076
36.3947
38.9015
34.5188
34.1086
35.503
35.3349
37.2569
38.5807
34.6352
34.8731
35.9895
36.1882
34.9372
35.217
36.368
37.2468
38.4289
33.5183
34.2272
35.6833
38.1344
37.7499
38.7019
34.9504
33.0898
35.4226
35.4344
37.6584
38.611
34.7965
34.9795
35.9982
36.0682
35.137
35.3008
36.2423
37.4791
38.1945
34.9007
34.3261
35.1297
39.2673
36.0512
38.8179
34.3985
34.6728
35.4629
35.3674
37.5334
38.1738
35.0092
35.0335
35.9621
35.9533
34.9699
34.436
36.0513
36.5132
38.4362
34.2456
33.6767
35.2544
38.4557
37.3523
38.8602
34.1769
34.0686
35.2434
33.9603
37.1743
38.4455
35.1519
35.0102
35.3991
35.8766
33.9357
35.5804
35.7942
37.3571
38.5785
34.0342
33.8238
34.2627
156.482
294.84
397.024
158.544
296.851
21.2002
21.7176
21.5094
21.8011
78.0155
34.7144
150.222
26.2135
398.443
75.5011
32.2635
24.5589
147.218
37.7736
202.906
201.246
157.66
294.968
157.581
294.91
397.144
397.033
161.954
297.058
162.089
297.043
21.0835
20.7935
20.9645
21.4563
21.8381
21.681
21.8979
79.5812
150.564
26.6712
35.1283
78.8002
151.123
26.0049
398.582
398.513
76.4286
25.629
148.363
32.6523
76.3893
24.8435
148.779
203.369
201.777
38.5093
203.345
201.745
158.207
295.083
158.75
295.031
397.125
397.002
162.474
297.2
162.547
297.101
21.2341
21.3641
21.5402
21.7846
21.8576
21.8703
21.9632
79.8566
151.516
26.4653
34.7056
79.7997
151.627
26.1609
398.686
398.557
76.264
25.5711
149.671
33.1073
77.1301
24.837
149.227
203.751
201.868
39.0381
203.677
201.755
158.033
295.114
157.995
295.025
397.191
397.105
162.242
297.218
162.363
297.201
21.4846
21.4939
21.1807
21.5645
22.0375
21.9604
22.0666
79.44
151.295
26.4987
34.1396
79.7274
151.464
26.089
398.711
398.563
76.8289
25.6462
149.282
32.6262
77.2973
24.9916
149.256
203.804
201.979
39.0411
203.736
202.001
158.571
295.198
158.883
295.113
397.261
397.109
162.592
297.232
162.436
297.132
21.048
21.5435
21.6699
21.6971
21.9791
21.8889
22.0967
79.296
152.287
26.4906
34.0639
78.9981
151.88
26.136
398.7
398.559
76.7909
25.7932
149.955
32.9087
76.919
25.3205
149.564
203.651
202.226
39.148
203.558
202.058
158.64
295.248
159.089
295.224
397.15
397.05
162.31
297.34
162.393
297.189
21.7067
21.7042
21.5177
21.3904
21.9138
21.9816
22.0377
79.4331
151.585
26.5115
34.0481
79.7516
151.676
26.178
398.733
398.585
76.2493
25.8732
149.311
33.235
76.6242
25.3537
149.337
203.786
202.22
39.2386
203.841
201.964
158.501
295.246
158.813
295.112
397.181
397.061
161.927
297.312
162.472
297.132
20.9543
21.6338
21.4273
21.4162
22.0257
21.5774
22.0028
79.7812
152.249
26.5357
34.5355
79.9962
152.11
25.3506
398.698
398.591
76.68
25.8357
149.692
34.1948
77.039
25.0053
149.447
203.912
202.186
39.1319
203.884
202.062
158.64
295.139
158.903
295.082
397.222
397.093
162.563
297.298
162.842
297.126
21.2168
21.867
21.6076
22.0581
22.1521
22.0629
22.1832
80.3192
152.035
26.6708
34.9329
79.8702
151.943
26.2252
398.698
398.556
76.7764
25.6811
149.897
32.6604
77.5968
24.671
149.48
203.786
202.184
39.1668
203.793
202.087
158.401
295.189
159.24
295.047
397.2
397.039
162.066
297.218
162.132
297.184
21.2807
21.1909
21.6184
21.4518
21.8971
22.1279
21.9204
79.3093
152.24
26.524
35.0274
80.3563
151.801
25.3813
398.726
398.572
76.7363
25.7415
149.678
34.1895
77.1048
24.874
149.249
203.943
202.134
39.092
203.662
201.876
158.399
295.217
158.61
295.131
397.188
397.053
162.373
297.194
162.363
297.134
21.2786
21.2719
21.1339
21.8404
21.8475
21.9337
22.1232
79.6506
152.526
26.6557
33.6563
79.475
152.098
26.1899
398.757
398.614
76.7485
25.6121
149.988
33.4911
77.1664
24.8294
149.486
203.311
202.037
39.0038
203.491
201.94
158.751
295.186
159.031
295.052
397.167
397.055
162.334
297.317
162.183
297.183
21.0156
21.325
21.6936
21.706
22.1214
21.8859
21.9968
79.831
152.559
26.5684
35.0895
80.0466
152.107
26.2483
398.741
398.597
76.6062
25.6054
150.058
33.3813
77.3145
24.9007
149.611
203.539
202.297
38.9293
203.739
202.171
158.424
295.155
158.463
295.153
397.194
397.097
162.566
297.232
162.404
297.144
21.7432
21.4033
21.3455
21.6457
22.013
21.9777
22.0042
80.2828
151.874
26.5467
35.1386
80.1739
151.851
25.5285
398.734
398.605
76.602
25.6299
149.365
33.3168
76.9108
24.952
149.333
203.85
202.343
39.1613
203.714
202.195
157.903
295.262
158.589
295.106
397.161
397.014
162.43
297.204
162.081
297.121
21.4233
21.0455
21.3233
21.6668
22.0502
21.9715
21.8249
79.4084
151.827
26.9179
34.8363
80.0882
151.678
26.2868
398.775
398.616
76.6309
25.6582
150.032
33.4082
77.4759
24.8986
149.506
203.867
202.174
39.04
203.802
201.91
158.326
295.212
158.876
295.169
397.168
397.009
162.408
297.339
162.802
297.268
21.7411
21.2005
21.0222
21.3807
22.1627
21.9199
22.1814
80.0714
152.192
26.6668
34.3913
79.2228
151.915
25.6659
398.74
398.615
76.3166
25.5982
149.731
33.3463
76.4816
24.819
149.517
203.696
202.144
39.1268
203.658
202.029
158.233
295.243
157.914
295.121
397.109
397.019
162.564
297.342
162.881
297.146
21.3932
21.4265
21.147
21.7431
21.9847
21.9962
22.1438
79.9395
151.813
26.4546
34.7602
79.5782
151.63
25.389
398.75
398.579
76.4836
25.5805
150.103
33.8893
76.745
24.8786
149.576
203.772
202.2
39.1359
203.641
202.094
158.172
295.242
158.397
295.145
397.185
397.066
162.593
297.36
162.322
297.279
21.3678
21.777
21.2847
21.3666
21.9045
22.0239
22.1948
80.1395
151.759
26.6097
33.5237
80.0544
151.778
26.0005
398.669
398.584
76.9875
25.6044
150.047
32.7559
76.9165
25.1117
149.483
203.757
202.266
38.9731
203.744
202.151
158.537
295.182
158.884
295.138
397.16
397.078
162.698
297.334
163.034
297.248
21.4209
21.2728
21.249
21.5551
21.8715
22.1098
21.7078
79.5626
152.337
26.7498
34.9152
79.9001
151.679
25.7115
398.803
398.691
75.9146
25.8245
149.823
34.2881
76.4042
24.8796
149.63
396.861
398.426
37.5035
201.007
202.826
396.873
396.935
398.457
398.516
35.82
201.044
202.92
200.399
201.694
157.22
294.971
73.9011
33.1035
147.241
24.1921
74.3879
34.036
147.809
25.3576
153.962
294.915
294.825
156.71
155.575
294.968
295.04
157.314
71.0587
32.8084
147.65
25.3501
143.528
25.098
74.5137
72.6393
34.2089
147.32
25.4898
145.868
25.3
74.8231
37.7593
201.352
203.246
398.505
397.026
397.072
35.9799
201.203
203.128
200.369
201.702
398.414
398.649
77.4578
32.9463
149.995
25.514
156.999
296.764
77.4171
33.8711
24.9854
149.658
157.858
296.968
296.844
160.442
75.0985
34.6466
150.292
26.3035
146.308
25.3857
78.3599
159.542
296.904
296.743
161.328
76.3229
33.5805
26.2223
150.092
25.9689
145.913
78.2531
160.98
296.882
78.2985
34.0757
25.9995
149.78
161.303
296.937
72.9388
34.8416
149.762
26.4959
148.099
26.3543
77.7208
159.589
296.904
297.016
160.908
76.8465
34.9622
26.4582
149.787
25.6262
147.116
78.6532
160.214
296.878
296.992
161.067
37.6016
202.784
200.915
396.906
398.444
398.49
36.7497
203.038
201.278
201.38
199.921
396.921
397.045
75.1012
32.9807
24.8389
147.841
157.276
294.928
157.375
294.878
73.9505
31.9095
25.4238
147.494
25.4249
145.776
75.5762
73.3185
34.2322
25.5731
147.811
24.8071
146.233
75.1005
154.259
294.942
294.948
157.661
155.721
294.938
295.048
157.663
398.412
396.948
36.4771
203.176
200.959
201.78
200.34
398.439
398.603
396.922
397.068
396.964
396.904
398.607
398.532
200.62
202.287
37.8312
201.191
203.184
396.958
396.977
398.558
398.673
35.3109
201.324
203.309
200.419
202.439
157.357
294.9
155.711
294.955
75.0413
144.35
24.3527
34.1682
72.0628
147.993
25.3154
75.4704
145.435
24.7363
34.2277
73.1721
148.003
25.1282
155.659
295.021
295.02
157.096
155.775
294.964
294.879
157.698
72.2445
34.2548
147.764
25.4922
146.151
25.2589
75.357
73.636
33.4411
147.464
25.4865
145.44
25.1971
75.3161
200.68
202.09
38.2619
201.527
202.936
398.603
398.427
397.019
397.11
36.445
201.415
203.167
201.08
202.113
398.438
398.604
78.6966
147.187
25.9977
34.635
76.059
150.597
25.5715
161.724
296.886
159.95
296.919
79.0322
25.3699
148.817
35.1499
77.2741
25.8051
150.412
158.913
297.081
297.052
162.342
76.4903
34.9918
150.473
26.387
148.755
25.8237
79.0937
159.602
297.046
297.062
161.543
76.8465
34.6043
26.3304
150.211
25.9673
148.817
78.6738
161.746
296.923
160.265
296.918
78.7115
25.9384
147.323
35.182
77.2767
26.158
150.438
161.861
296.913
160.395
296.892
75.1815
34.6448
150.721
25.6473
149.922
25.7168
79.0002
158.32
297.026
297.002
162.117
74.4878
34.4723
26.5139
151.154
26.1989
148.775
79.7674
161.05
297.042
296.975
161.68
201.656
200.684
38.1002
203.098
201.203
397.055
396.951
398.556
398.65
37.1966
203.063
201.6
202.2
200.007
396.994
397.093
75.8674
24.6056
145.891
34.1017
70.6194
25.4838
147.931
157.918
294.961
155.247
294.978
158.09
294.935
156.874
294.917
74.565
33.3608
25.281
149.297
25.1692
145.88
74.7481
74.4825
34.1512
25.5353
148.218
25.1936
144.137
75.8799
156.113
295.102
295.032
157.692
155.363
294.977
294.909
157.772
398.632
398.461
397.102
396.997
36.2728
203.616
201.724
202.499
201.135
398.537
398.68
397.019
397.157
397.037
396.947
398.703
398.522
200.635
202.695
38.1375
201.375
203.217
396.978
397.024
398.55
398.632
35.4637
201.343
203.311
200.361
202.433
157.889
294.889
156.169
294.929
75.5517
145.26
24.4594
33.2729
72.3746
147.936
25.3813
75.9881
144.355
24.9666
33.6234
73.2442
147.795
24.8601
156.949
295.032
294.964
157.441
155.254
294.95
294.87
157.989
73.0682
33.8119
148.041
25.6632
145.203
24.8297
75.6535
72.4022
35.1977
147.927
25.7203
145.938
25.2899
76.1869
200.824
202.146
38.342
201.45
203.085
398.633
398.493
397.059
397.076
36.9786
201.491
203.202
200.703
202.316
398.463
398.682
79.6837
148.751
25.9985
35.1481
77.2893
150.565
25.7648
161.739
296.989
159.249
297.038
80.0834
25.9016
147.598
34.988
74.9559
25.8533
150.769
161.177
297.115
297.036
161.843
78.0175
34.4601
150.666
26.6493
148.28
25.7506
79.1356
159.643
296.975
297.025
161.647
78.3858
35.0067
26.7527
150.706
25.9008
148.755
79.4254
161.82
297.079
161.053
296.981
79.4644
25.996
149.607
34.3008
78.015
26.3123
150.827
161.335
297.103
159.408
297.048
75.079
35.0536
149.751
25.9369
150.162
25.8231
78.9684
158.544
297.03
297.199
161.24
77.2943
35.244
26.7207
151.113
26.5116
147.744
79.0687
159.075
297.107
297.043
161.316
201.815
200.918
37.9982
203.248
201.36
397.136
397.004
398.557
398.637
37.196
203.331
201.583
201.827
200.084
397.006
397.15
75.5434
25.0453
144.77
33.4296
72.1695
24.973
148.161
157.532
295.111
155.543
295.056
157.373
295.003
155.458
294.973
72.9991
32.7202
25.3764
148.533
24.6649
145.503
74.6903
72.2456
34.6402
25.811
148.312
25.0145
146.464
75.3005
154.739
295.108
295.154
157.786
155.745
295.03
295.014
157.851
398.718
398.569
397.148
397.035
38.1402
203.684
201.657
203.259
200.876
398.59
398.774
397.036
397.196
397.062