/*--------------------------------*- C++ -*----------------------------------*\
| =========                 |                                                 |
| \\      /  F ield         | OpenFOAM: The Open Source CFD Toolbox           |
|  \\    /   O peration     | Version:  2206                                  |
|   \\  /    A nd           | Website:  www.openfoam.com                      |
|    \\/     M anipulation  |                                                 |
\*---------------------------------------------------------------------------*/
FoamFile
{
    version     2.0;
    format      ascii;
    arch        "LSB;label=32;scalar=64";
    class       surfaceScalarField;
    location    "120";
    object      phi;
}
// * * * * * * * * * * * * * * * * * * * * * * * * * * * * * * * * * * * * * //

dimensions      [0 3 -1 0 0 0 0];

oriented        oriented;

internalField   nonuniform List<scalar> 
198714
(
4.87074e-14
2.56027e-12
-1.40022e-12
9.29448e-13
-1.2441e-07
1.24408e-07
-2.9316e-11
-4.22992e-12
-5.78961e-13
3.93905e-11
2.96449e-11
-3.54332e-11
-6.73392e-11
6.50797e-11
-6.74788e-11
6.92598e-11
1.1499e-07
-3.39344e-11
-2.00796e-12
-4.82117e-15
2.7084e-11
3.50382e-11
-2.72035e-11
-1.23022e-11
3.63403e-11
-3.59485e-11
1.34677e-11
-1.16204e-07
1.16204e-07
1.81167e-11
3.51363e-11
5.66797e-11
4.0864e-11
2.74697e-08
2.4926e-11
2.86727e-11
4.9283e-11
4.83947e-11
2.74531e-08
-2.76044e-08
4.75372e-13
2.28879e-11
2.62913e-11
-2.29282e-11
1.14481e-11
3.48642e-11
-3.53225e-11
-1.11712e-11
-1.17294e-07
1.17292e-07
-2.52372e-11
1.39143e-12
-6.1782e-13
2.36643e-11
2.60652e-11
-2.742e-11
1.0942e-11
3.4245e-11
-3.30623e-11
-1.17467e-11
1.17311e-07
4.88189e-11
4.82245e-11
2.74546e-08
2.54088e-13
3.96459e-11
2.95458e-11
-3.91351e-11
-6.72362e-11
6.54388e-11
-6.43117e-11
6.91519e-11
-1.15007e-07
1.15005e-07
-1.71637e-11
-3.51566e-12
-3.39168e-12
3.72924e-11
1.97273e-11
-3.56573e-11
-4.78406e-11
6.48011e-11
-6.33507e-11
4.88967e-11
-1.16065e-07
1.16065e-07
-8.54762e-13
-1.60673e-12
3.61482e-11
1.91604e-11
-3.60638e-11
-4.8259e-11
6.37682e-11
-6.48753e-11
4.88629e-11
1.16093e-07
5.6493e-11
4.24014e-11
2.74557e-08
-2.76057e-08
-1.9616e-12
-1.17483e-12
2.61825e-11
3.53306e-11
-2.75267e-11
-1.17644e-11
3.59702e-11
-3.59435e-11
1.29714e-11
1.16278e-07
5.95989e-13
-7.14037e-12
1.32129e-08
-1.23974e-12
-1.25015e-12
-1.32039e-08
-9.32054e-14
-1.8756e-11
1.99573e-08
5.01198e-12
2.00395e-12
-1.99455e-08
-3.68722e-13
-3.85962e-12
6.59662e-09
-1.41717e-12
2.69149e-12
-1.5376e-11
1.29324e-08
-3.72644e-12
-4.11417e-13
-1.29155e-08
-5.29429e-11
2.43109e-13
1.93397e-08
4.76266e-12
1.68911e-11
-1.93086e-08
-2.86944e-12
9.28923e-13
1.24389e-07
-2.11772e-12
-1.64919e-12
-1.24719e-07
1.24717e-07
-1.56576e-12
-1.3737e-12
1.24768e-07
1.17227e-11
1.54165e-11
-3.52485e-11
2.05164e-08
-1.69274e-11
1.62276e-12
-3.87386e-12
-1.06257e-10
1.40697e-10
-1.39846e-10
1.06655e-10
1.20064e-07
5.27486e-11
3.01239e-13
2.38067e-08
1.06579e-11
-1.00528e-10
-2.9847e-12
-6.78376e-12
6.47164e-09
5.07828e-13
-6.46238e-09
2.10709e-12
-7.53172e-13
-1.20145e-11
9.04945e-12
-8.35855e-12
1.23582e-11
1.19793e-07
4.63932e-12
6.95065e-12
-1.70334e-11
2.08745e-08
-7.54902e-12
-2.62282e-13
1.82961e-11
2.44503e-08
-3.0177e-11
4.34674e-12
-1.15884e-11
6.56325e-12
-2.41921e-11
2.08995e-08
5.14704e-12
-4.87931e-12
4.52685e-12
-1.70464e-11
2.10127e-08
1.49103e-12
-4.35624e-12
6.59273e-09
-1.03573e-12
-6.58674e-09
-6.66268e-12
6.46873e-09
2.73315e-13
-6.45964e-09
-5.41652e-12
-1.74214e-11
2.1184e-08
1.33709e-12
-2.11669e-08
-1.13289e-11
-2.47918e-11
2.07408e-08
5.34237e-12
-2.07167e-08
-6.82955e-12
1.32242e-08
-1.0874e-12
-1.44125e-12
-1.87971e-11
1.99615e-08
5.24663e-12
1.98535e-12
-1.703e-11
2.08654e-08
-7.99465e-12
-2.08529e-08
1.2073e-12
8.99733e-13
1.09958e-11
8.43688e-12
-7.77588e-12
-9.92037e-12
-1.22379e-07
1.22375e-07
1.85075e-13
2.44505e-08
4.67035e-12
-3.01797e-11
-2.4444e-08
4.94003e-12
-1.64782e-11
2.08603e-08
-7.41265e-12
3.515e-14
1.01595e-11
8.44388e-12
-7.58274e-12
-1.04975e-11
1.22382e-07
2.44522e-08
4.69967e-12
-2.99367e-11
-1.72806e-11
2.10749e-08
1.23837e-12
6.44791e-12
-2.45679e-11
2.08564e-08
5.16616e-12
-2.7949e-12
6.47046e-09
1.74475e-13
-3.522e-11
2.05022e-08
-1.63917e-11
-2.04772e-08
3.1012e-12
-3.44987e-12
-1.05758e-10
1.41604e-10
-1.38738e-10
1.07785e-10
-1.20077e-07
1.20073e-07
-1.22966e-14
2.381e-08
1.08794e-11
-1.01105e-10
-2.37727e-08
-1.56454e-11
1.29353e-08
-4.11317e-12
-2.98151e-13
-1.29182e-08
-5.31883e-11
1.93363e-08
1.70369e-11
5.06776e-12
-1.93049e-08
-4.29278e-12
-8.77203e-11
1.41007e-10
-1.38216e-10
8.96818e-11
-1.21363e-07
1.21363e-07
1.18973e-11
-3.55361e-11
2.04909e-08
-1.66792e-11
-2.04663e-08
2.38049e-08
-1.01243e-10
1.0787e-11
-2.37677e-08
1.29368e-08
-3.74267e-12
-3.18573e-13
1.06848e-13
1.93423e-08
4.68907e-12
1.71643e-11
-3.77722e-12
-8.79334e-11
1.40007e-10
-1.39208e-10
8.9184e-11
1.21367e-07
1.53405e-11
-3.44919e-11
2.05008e-08
-1.67794e-11
5.2377e-11
2.38052e-08
-1.00286e-10
1.08043e-11
2.86005e-12
1.29289e-08
-3.95577e-12
-2.87372e-13
1.93395e-08
1.69014e-11
4.78571e-12
-2.50363e-11
2.07952e-08
5.6852e-12
-2.07708e-08
4.2081e-12
-1.80933e-11
2.11393e-08
1.52715e-12
-4.26245e-13
6.5955e-09
-1.19391e-12
-2.19141e-12
-1.2074e-11
9.09078e-12
-8.77345e-12
1.24322e-11
1.19819e-07
7.42163e-12
-1.66231e-11
2.08632e-08
-7.27137e-12
1.82702e-11
2.44512e-08
-3.00679e-11
3.72872e-12
1.32161e-08
-1.56477e-12
-1.42316e-12
-3.83297e-13
1.99541e-08
2.048e-12
4.66068e-12
3.05448e-13
1.32149e-08
-9.12356e-13
-1.26916e-12
1.99582e-08
1.29772e-12
4.47763e-12
6.46732e-09
2.62801e-13
6.59096e-09
-1.00793e-12
6.72032e-13
-5.48926e-09
1.25855e-13
2.12539e-12
5.48634e-09
7.0742e-13
-3.79509e-13
7.1296e-12
1.20278e-12
1.32043e-08
2.03566e-08
4.21592e-13
-3.10072e-12
-1.1773e-11
-2.03434e-08
2.28289e-12
1.14749e-11
2.03443e-08
-7.95751e-13
-2.01612e-12
-5.48602e-09
-8.4801e-15
3.44584e-12
-9.77627e-09
1.11224e-12
9.77185e-09
-4.58631e-12
-1.41469e-12
-1.98779e-13
1.81776e-11
1.99453e-08
1.18811e-08
6.22868e-13
-3.10295e-13
-1.07995e-12
-1.18753e-08
1.88861e-08
4.09356e-12
-1.65039e-11
-1.88748e-08
-3.29803e-13
1.02066e-12
1.18758e-08
1.53266e-11
1.88751e-08
-9.18748e-13
-9.77144e-09
4.31733e-13
4.43841e-12
7.49186e-13
6.591e-09
-1.41621e-11
-1.32263e-12
2.29284e-12
-9.47802e-09
5.03113e-13
9.49071e-09
4.7395e-12
1.72876e-11
-1.93094e-08
4.14186e-14
1.93402e-08
-5.28938e-11
7.10081e-12
-1.83104e-08
1.83377e-08
-4.38365e-11
-1.1503e-08
1.59831e-13
7.73416e-13
1.1518e-08
4.98942e-12
-5.33685e-09
5.32941e-09
2.31887e-12
1.30254e-13
4.20889e-12
1.29158e-08
-2.97655e-12
1.49626e-11
3.7999e-13
1.98445e-08
5.23344e-12
-7.02696e-12
-2.90763e-11
-1.98174e-08
1.98179e-08
7.3513e-12
2.84849e-11
-2.26695e-12
-4.81042e-14
-5.32929e-09
-5.32394e-12
-8.51212e-15
5.33703e-09
-3.99784e-12
2.88484e-12
-3.60023e-13
1.29328e-08
-1.55269e-11
1.98449e-08
-2.9209e-11
1.39898e-11
1.51917e-12
-9.49076e-09
-4.55911e-13
-4.83893e-12
-1.69145e-11
1.8965e-13
5.18695e-11
1.83371e-08
1.39465e-11
-4.40797e-11
-1.83093e-08
1.15181e-08
1.18841e-12
1.63992e-13
5.26675e-13
-1.15031e-08
4.32479e-11
3.32227e-13
-6.16073e-13
4.68465e-13
-9.47836e-09
6.46275e-09
2.95515e-12
6.1519e-12
-2.21282e-13
-3.13172e-12
5.45534e-13
6.47206e-09
-6.72909e-12
2.32715e-11
-1.14646e-11
-1.92392e-08
-1.47304e-11
2.43628e-11
1.92177e-08
2.30279e-08
2.40187e-11
-4.63709e-11
-3.4133e-11
2.46583e-11
-5.19659e-12
-6.29185e-12
1.12058e-11
2.08751e-08
1.24687e-08
-1.12024e-11
3.10169e-12
-3.76565e-13
4.68935e-11
3.36447e-11
2.29953e-08
-3.26375e-12
2.8591e-13
1.2455e-08
1.49447e-11
-2.3749e-11
1.85189e-11
-9.40386e-12
-1.84251e-08
-1.34166e-11
1.97076e-11
1.84097e-08
2.24679e-08
1.82327e-11
-3.36023e-11
-2.311e-11
1.70879e-11
-1.18942e-12
-4.28544e-12
4.77851e-12
2.09963e-08
1.23748e-08
-9.23237e-12
1.38967e-12
-7.36505e-13
3.36502e-11
2.35249e-11
2.24464e-08
-1.41003e-12
7.34257e-13
1.23649e-08
1.30936e-11
-1.96784e-11
-3.97663e-12
-4.82025e-12
-1.4783e-08
1.47636e-08
5.34515e-09
-3.86673e-12
-1.28881e-13
5.37788e-09
-4.70855e-12
-3.54684e-13
-6.82592e-14
5.33798e-09
2.45397e-13
5.37139e-09
4.58688e-12
6.77482e-13
6.58708e-09
6.4598e-09
6.29028e-12
-3.392e-13
4.17753e-13
6.46901e-09
-6.7428e-12
-9.25524e-12
1.82719e-11
-1.93284e-08
-1.28332e-11
2.23499e-11
1.93099e-08
2.32497e-08
1.78945e-11
-3.63736e-11
-2.24851e-11
-2.32262e-08
-1.94752e-12
1.73836e-11
5.12062e-12
2.1168e-08
1.25886e-08
-9.76096e-12
1.20627e-12
-7.5695e-13
-1.2578e-08
-1.67752e-12
6.09545e-13
1.25785e-08
3.61796e-11
2.27967e-11
2.32264e-08
1.26431e-11
-2.34917e-11
-1.93094e-08
-1.11159e-11
2.38641e-11
-1.8347e-08
-1.49163e-11
2.01685e-11
1.8329e-08
2.22619e-08
2.43947e-11
-4.32167e-11
-3.40302e-11
-2.22339e-08
-5.18198e-12
2.40235e-11
1.12104e-11
2.0717e-08
1.22664e-08
-1.16767e-11
3.4354e-12
-2.31979e-13
-1.22526e-08
-3.10413e-12
3.07999e-13
1.22529e-08
4.22838e-11
3.35573e-11
2.2234e-08
1.56391e-11
-2.08442e-11
-1.8329e-08
-4.41696e-12
-4.36473e-12
-1.47883e-08
1.47694e-08
5.37612e-09
-4.79749e-12
-3.80902e-13
-5.36973e-09
5.35038e-09
-3.98888e-12
4.8186e-14
-5.343e-09
1.35654e-13
5.36988e-09
-1.5257e-13
5.34307e-09
-1.47689e-08
6.87745e-13
-5.49614e-09
3.06992e-13
2.09938e-12
5.49305e-09
6.73404e-13
7.34855e-12
1.15136e-12
1.32154e-08
2.03761e-08
2.97301e-15
-3.01809e-12
-1.15558e-11
2.44269e-12
1.20101e-11
2.0363e-08
-7.09117e-13
-2.49608e-12
3.49343e-13
3.75919e-12
-9.78563e-09
1.13102e-12
9.7807e-09
-4.59245e-12
-1.49597e-12
1.79456e-11
1.99495e-08
1.18846e-08
4.26809e-13
-1.06454e-12
1.88968e-08
3.99498e-12
-1.58855e-11
1.20435e-12
1.18788e-08
1.56459e-11
1.88858e-08
-1.11901e-12
1.41708e-11
5.943e-11
-1.84596e-08
-1.0854e-10
-1.02729e-10
1.85973e-08
2.28367e-08
1.53431e-11
-3.71046e-11
-2.23836e-11
-9.05387e-12
1.27958e-11
5.13484e-12
2.10704e-08
1.23755e-08
-1.09723e-11
-5.76558e-13
-7.94755e-13
-2.08614e-11
4.43215e-14
1.24015e-08
3.44277e-12
2.67034e-11
2.28788e-08
1.56291e-14
-3.72734e-11
-1.79488e-11
-3.39585e-11
-1.92276e-08
8.7395e-11
1.38271e-10
1.90539e-08
2.26767e-08
2.72795e-11
-4.22174e-11
-3.49157e-11
2.90266e-11
2.27318e-12
-5.8403e-12
1.1131e-11
2.08198e-08
1.24803e-08
-1.01867e-11
4.78302e-12
-4.4e-13
7.50547e-11
3.04942e-11
2.25822e-08
1.65815e-11
9.12242e-13
1.24311e-08
2.91149e-11
-8.18051e-12
1.46183e-11
-2.27701e-11
-1.47935e-08
1.47805e-08
5.38025e-09
-6.50427e-12
-3.67228e-13
5.34748e-09
-2.16715e-12
-3.29935e-13
-2.27987e-13
5.37423e-09
3.7638e-13
5.34092e-09
2.80673e-12
-1.12278e-13
6.46193e-09
-1.68681e-12
-1.43843e-11
2.59021e-12
-9.47598e-09
6.04877e-13
9.48886e-09
1.7434e-11
5.13947e-12
-1.93059e-08
1.93364e-08
-5.30579e-11
-1.15019e-08
8.26405e-13
1.1517e-08
7.66395e-12
-1.83025e-08
1.83299e-08
-4.43252e-11
5.49161e-12
-5.33621e-09
5.32885e-09
1.94403e-12
-8.22124e-14
4.07892e-12
1.29189e-08
1.48783e-11
3.60847e-13
1.98389e-08
4.90243e-12
-7.45482e-12
-2.91382e-11
-1.98113e-08
1.9813e-08
6.79225e-12
2.86603e-11
-2.51216e-12
-7.59809e-14
-5.32871e-09
-5.25934e-12
1.11643e-13
5.33659e-09
-4.34285e-12
-2.42437e-13
1.29361e-08
-1.57093e-11
1.98406e-08
-2.95194e-11
8.77986e-13
1.39588e-11
-9.4884e-09
-4.73955e-13
-1.68119e-11
-4.32889e-12
5.17432e-11
1.1517e-08
1.6982e-12
6.65194e-13
-1.15021e-08
1.83291e-08
1.38579e-11
-4.41936e-11
-1.83011e-08
-5.67124e-13
4.30202e-11
4.00857e-13
-9.47575e-09
4.41582e-12
-5.34046e-09
2.5055e-12
3.04958e-13
5.33323e-09
4.12859e-12
1.45484e-11
4.5416e-13
1.29205e-08
1.98507e-08
5.35507e-12
-6.92669e-12
-2.90965e-11
7.45397e-12
2.79291e-11
1.98238e-08
-2.03175e-12
-3.72285e-14
1.38581e-11
1.55165e-12
-9.49821e-09
-5.17655e-13
9.48581e-09
-4.9182e-12
-1.70056e-11
-3.8855e-14
5.24323e-11
1.93118e-08
1.83404e-08
1.38458e-11
-4.34327e-11
1.15279e-08
1.06829e-12
3.31772e-13
7.21477e-13
4.33183e-11
1.83135e-08
1.60074e-13
-6.05624e-13
1.15129e-08
4.65159e-13
4.80234e-12
-5.335e-09
2.30997e-12
3.47613e-13
5.32754e-09
3.90031e-12
-2.86981e-12
1.50729e-11
3.98221e-13
1.29124e-08
1.9835e-08
5.50191e-12
-7.01478e-12
-2.91857e-11
7.20263e-12
2.8425e-11
1.98081e-08
-2.15082e-12
3.66296e-14
1.35915e-12
1.38823e-11
-9.49006e-09
-4.25414e-13
9.47756e-09
-1.69092e-11
-4.61201e-12
5.22433e-11
1.93087e-08
1.15241e-08
1.30778e-12
4.74599e-13
1.83306e-08
1.41566e-11
-4.3748e-11
-6.19158e-13
1.15093e-08
4.33345e-11
1.83037e-08
4.24343e-13
-1.04633e-11
2.30398e-11
-1.83529e-08
-1.47789e-11
1.95711e-11
1.83355e-08
2.26166e-08
2.49452e-11
-4.55266e-11
-3.4934e-11
-2.25861e-08
-4.96658e-12
2.38831e-11
1.12155e-11
2.07712e-08
1.22613e-08
-1.17426e-11
3.75815e-12
-3.73948e-14
-1.22476e-08
-2.83521e-12
4.03562e-13
1.22483e-08
4.43285e-11
3.3095e-11
2.25861e-08
1.65731e-11
-2.02768e-11
-1.8336e-08
1.81922e-11
-9.44555e-12
-1.93412e-08
-1.21154e-11
2.25778e-11
1.9322e-08
2.2889e-08
1.82191e-11
-3.60617e-11
-2.28423e-11
-2.28664e-08
1.72554e-11
-1.9467e-12
-4.07042e-12
4.75536e-12
2.11233e-08
1.26073e-08
-1.02685e-11
1.08536e-12
-8.28347e-13
3.41314e-11
2.31138e-11
2.28672e-08
-1.48633e-12
8.84943e-13
1.25965e-08
1.21635e-11
-2.46894e-11
-1.93208e-08
-3.73433e-12
-4.35834e-12
-1.47995e-08
1.47807e-08
5.35272e-09
-4.06127e-12
2.63866e-13
-5.34516e-09
5.38072e-09
-5.23222e-12
-1.59686e-13
1.97391e-13
5.34596e-09
6.56102e-13
5.37421e-09
-1.478e-08
1.9377e-13
1.01884e-12
6.5902e-09
7.24928e-13
-5.49031e-09
1.48191e-13
2.15743e-12
5.48728e-09
4.47124e-13
7.13608e-12
1.20908e-12
1.32075e-08
2.03586e-08
6.78067e-14
-2.98546e-12
-1.1902e-11
2.41727e-12
1.16192e-11
2.03457e-08
-8.69499e-13
-2.34089e-12
4.13711e-12
-1.88005e-13
-9.7762e-09
9.83502e-13
9.77142e-09
-1.43821e-12
-4.87801e-12
-5.42418e-13
1.83606e-11
1.99426e-08
1.88835e-08
3.64777e-12
-1.55347e-11
1.18788e-08
9.59435e-13
-3.9664e-13
-1.09523e-12
1.58818e-11
1.88727e-08
-4.21449e-13
1.09071e-12
1.18731e-08
-1.19624e-12
2.90137e-13
-5.49352e-09
6.70493e-13
2.42005e-12
5.49014e-09
9.21262e-13
-1.75205e-13
6.94724e-12
1.41105e-12
1.32058e-08
2.03646e-08
6.66229e-13
-2.55062e-12
-1.19163e-11
3.00505e-12
1.1328e-11
2.03515e-08
-4.76165e-13
-2.2049e-12
3.91216e-12
6.86697e-13
-9.78104e-09
1.04551e-12
9.77607e-09
-2.13858e-12
-4.71003e-12
1.84675e-11
1.9946e-08
1.88902e-08
3.99588e-12
-1.59081e-11
1.18814e-08
9.36785e-14
-1.13189e-12
1.57808e-11
1.88792e-08
1.02788e-12
1.1876e-08
-1.08034e-12
-2.72971e-13
6.45842e-09
1.20803e-12
6.58528e-09
1.64702e-12
8.04512e-13
-1.31969e-07
1.31966e-07
-1.91659e-12
1.60809e-12
-1.29083e-07
1.29081e-07
2.80493e-13
1.72172e-12
-1.42216e-07
1.42214e-07
2.74864e-11
2.92304e-11
-2.2476e-08
2.24634e-08
2.56913e-08
2.8199e-11
2.46544e-08
2.86145e-11
-5.63459e-11
-4.01741e-11
2.76207e-08
2.56732e-08
2.46496e-08
2.46344e-11
3.16388e-11
-2.24677e-08
2.24539e-08
2.57966e-08
2.54239e-11
-2.57863e-08
2.45418e-08
3.27255e-11
-2.45297e-08
-4.84816e-11
-4.67244e-11
2.76041e-08
2.57861e-08
2.45299e-08
-2.24539e-08
-1.12933e-11
6.79364e-11
-2.24775e-08
2.24564e-08
2.57485e-08
2.36787e-11
2.45963e-08
3.39929e-11
-5.35482e-11
-4.27639e-11
2.76066e-08
2.45711e-08
2.57497e-08
2.66846e-11
2.86135e-11
-2.24615e-08
2.24484e-08
2.56243e-08
3.10227e-11
-2.5607e-08
2.46899e-08
2.72995e-11
-2.46838e-08
-3.99913e-11
-5.48778e-11
2.76054e-08
2.46835e-08
2.56067e-08
-2.24482e-08
1.02436e-12
1.31963e-07
-3.35098e-12
1.20423e-12
1.29078e-07
1.78316e-12
1.42212e-07
-1.82976e-12
-1.33104e-07
1.33101e-07
-6.4671e-13
1.00115e-12
-1.26993e-07
1.2699e-07
4.27546e-14
-1.42368e-07
1.42368e-07
-2.98395e-12
1.33115e-07
-2.0503e-12
1.27007e-07
1.42374e-07
-3.79911e-11
-5.4788e-11
-2.57821e-08
-2.48567e-11
2.58324e-08
2.44227e-08
-3.87409e-11
3.4761e-11
1.59196e-11
2.04914e-08
2.2532e-08
-5.61749e-11
-1.43664e-11
2.43825e-08
1.4624e-11
2.25065e-08
2.43136e-11
-7.93628e-11
1.86511e-11
-2.59712e-08
2.59008e-08
-1.0727e-11
1.00268e-10
1.43927e-13
2.37695e-08
2.30106e-08
-7.91883e-11
2.69612e-08
1.90603e-11
7.48092e-12
2.29784e-08
-6.42727e-12
2.69467e-08
-2.16352e-11
-1.96837e-11
-2.61941e-08
-5.36978e-11
2.62768e-08
2.47432e-08
-2.10215e-11
-2.47257e-08
1.70324e-11
7.30068e-12
2.08621e-08
2.30216e-08
-2.06797e-11
-4.70054e-12
2.47258e-08
4.71587e-12
2.30161e-08
5.44028e-11
-2.62767e-08
5.62373e-12
-2.44132e-11
-2.64102e-08
2.63633e-08
3.00495e-11
-4.14337e-12
-2.4472e-13
2.4443e-08
2.75263e-08
5.50638e-12
4.72422e-13
2.35587e-08
-2.42732e-11
-6.79837e-14
2.75537e-08
2.35508e-08
-1.87948e-11
-2.46506e-11
-2.61743e-08
7.74118e-12
2.62215e-08
2.47568e-08
-2.48814e-11
-2.47366e-08
6.86732e-12
1.69721e-11
2.08538e-08
2.30215e-08
-1.93109e-11
-8.36552e-12
-2.30136e-08
7.12443e-12
2.3014e-08
2.47366e-08
-7.91329e-12
-2.62218e-08
-2.24839e-11
8.94055e-12
-2.64186e-08
2.64509e-08
-3.98913e-12
2.94868e-11
6.14486e-14
2.44432e-08
2.35616e-08
-2.38356e-11
-2.3558e-08
2.75244e-08
9.38635e-12
5.12473e-13
-2.7556e-08
2.35576e-08
-2.92701e-13
2.75553e-08
-2.64509e-08
-1.9324e-11
-2.50367e-11
-2.61703e-08
8.12583e-12
2.62175e-08
2.47018e-08
-2.44056e-11
7.14714e-12
1.72799e-11
2.08483e-08
2.3025e-08
-1.87468e-11
-8.14899e-12
7.65223e-12
2.30172e-08
2.46877e-08
-7.97809e-12
-2.32451e-11
9.22422e-12
-2.64196e-08
2.64519e-08
-3.79996e-12
2.91664e-11
2.44448e-08
2.35644e-08
-2.32858e-11
2.75267e-08
9.36796e-12
2.35606e-08
2.75572e-08
-5.46907e-11
-3.74549e-11
-2.57765e-08
-2.53319e-11
2.58267e-08
2.43655e-08
-3.833e-11
-2.4331e-08
1.608e-11
3.42652e-11
2.0478e-08
2.25287e-08
-5.63317e-11
-1.47539e-11
-2.25031e-08
1.44158e-11
2.25042e-08
2.43316e-08
2.43748e-11
-2.58263e-08
-7.89282e-11
1.82977e-11
-2.5972e-08
2.59016e-08
-1.02259e-11
9.913e-11
-9.29014e-14
2.37731e-08
2.30115e-08
-8.0297e-11
-2.29792e-08
2.69637e-08
1.9149e-11
7.11743e-12
-2.69495e-08
2.298e-08
-7.02963e-12
2.69495e-08
-2.5901e-08
-5.42791e-11
-4.02743e-11
-2.57462e-08
2.92458e-11
2.57637e-08
2.43698e-08
-4.2114e-11
-2.43333e-08
1.58654e-11
3.41517e-11
2.0467e-08
2.25176e-08
-5.54904e-11
-1.78922e-11
-2.249e-08
1.68319e-11
2.2491e-08
2.43334e-08
-3.03921e-11
-2.57645e-08
2.16096e-11
-7.78154e-11
-2.59698e-08
2.59676e-08
9.8971e-11
-1.01843e-11
2.37678e-08
2.69602e-08
2.20607e-11
-2.69354e-08
2.30017e-08
-7.97624e-11
-2.29732e-08
2.69356e-08
2.29736e-08
-2.59683e-08
-4.06096e-11
-5.41899e-11
-2.57562e-08
2.89645e-11
2.57738e-08
2.44268e-08
-4.16458e-11
3.5021e-11
1.56673e-11
2.04763e-08
2.2521e-08
-5.47589e-11
-1.75929e-11
2.43899e-08
1.70103e-11
2.24938e-08
-3.03772e-11
2.11991e-11
-7.82121e-11
-2.59738e-08
2.59719e-08
9.99738e-11
-1.03937e-11
2.3768e-08
2.69586e-08
2.24695e-11
2.30052e-08
-7.86803e-11
2.69342e-08
2.2977e-08
-2.14168e-11
-1.94699e-11
-2.61989e-08
-5.40958e-11
2.62821e-08
2.46943e-08
-2.09338e-11
1.66268e-11
7.48497e-12
2.08509e-08
2.30251e-08
-2.01883e-11
-4.30858e-12
2.46771e-08
5.24488e-12
2.30192e-08
5.41e-11
5.49007e-12
-2.44705e-11
-2.6416e-08
2.63688e-08
3.00476e-11
-4.65361e-12
2.4444e-08
2.75293e-08
5.79613e-12
2.35633e-08
-2.44204e-11
2.7556e-08
2.35552e-08
-6.65065e-13
-1.99402e-13
2.2517e-09
2.01154e-14
-2.25211e-09
-3.06307e-13
-1.43822e-13
1.21008e-09
2.38579e-14
-1.21033e-09
-1.08026e-13
-8.69041e-14
5.93743e-10
1.44263e-14
-5.93892e-10
-1.70988e-14
-4.36804e-14
2.45155e-10
4.92722e-15
-2.45235e-10
-1.156e-14
5.80723e-11
3.19283e-15
-5.81003e-11
-7.68887e-13
1.8468e-13
4.21165e-09
-3.12469e-13
-3.55563e-13
1.36098e-13
2.25908e-09
-1.92272e-13
-1.31835e-13
8.16973e-14
1.10892e-09
-1.08974e-13
-2.82663e-14
3.9603e-14
4.58698e-10
-5.29382e-14
1.14213e-14
1.0904e-10
-1.13491e-14
-2.33437e-13
2.42868e-14
2.25545e-09
-1.74929e-13
-2.25547e-09
-1.0781e-13
-7.1381e-15
1.21206e-09
-9.71029e-14
-1.21209e-09
-3.48887e-14
-9.48641e-15
5.94692e-10
-5.29269e-14
-5.94717e-10
4.71338e-16
-7.19701e-15
2.45519e-10
-2.62646e-14
-2.45537e-10
-1.56766e-15
5.8155e-11
-5.57964e-15
-5.8159e-11
2.7988e-13
-1.16363e-13
4.21522e-09
1.26057e-13
-4.215e-09
1.38785e-13
-5.116e-14
2.26097e-09
7.50166e-14
-2.26086e-09
5.82646e-14
-2.51969e-14
1.10987e-09
4.32705e-14
-1.10981e-09
1.68938e-14
-1.17425e-14
4.59109e-10
2.08459e-14
-4.59084e-10
-5.43486e-16
1.09152e-10
5.54251e-15
-1.09145e-10
-5.57286e-13
4.20887e-09
-2.87854e-13
-4.20925e-09
-2.75152e-13
2.25765e-09
-1.62655e-13
-2.2579e-09
-1.24452e-13
1.1082e-09
-7.94044e-14
-1.10832e-09
-4.75039e-14
4.5841e-10
-2.97354e-14
-4.58466e-10
1.09021e-10
-1.00349e-14
-1.09049e-10
1.46977e-13
4.21324e-09
9.6883e-14
-4.21318e-09
6.48069e-14
2.25993e-09
5.90935e-14
-2.2599e-09
2.11799e-14
1.10935e-09
3.28716e-14
-1.10934e-09
4.96566e-15
4.58853e-10
1.42879e-14
-4.58845e-10
1.09088e-10
5.9404e-15
-1.09085e-10
-7.83336e-13
2.25391e-09
2.46569e-14
-3.75145e-13
1.21128e-09
4.34111e-14
-1.53654e-13
5.94348e-10
3.93205e-14
-4.62105e-14
2.4538e-10
2.55051e-14
5.8114e-11
4.50495e-15
9.38045e-14
-4.36581e-14
7.82717e-14
4.21411e-09
6.93144e-14
-1.97265e-14
4.28046e-14
2.26054e-09
5.08957e-14
-1.89632e-14
1.6588e-14
1.10968e-09
3.2809e-14
-1.50739e-14
1.14525e-15
4.5901e-10
-3.2182e-16
5.67136e-15
1.09153e-10
-1.58229e-13
2.25631e-09
-2.76845e-13
-2.25629e-09
-6.70785e-14
1.21258e-09
-1.5007e-13
-1.21258e-09
-2.50942e-14
5.94921e-10
-7.41305e-14
-5.94912e-10
-1.03114e-14
2.45645e-10
-3.11479e-14
-2.45639e-10
5.81696e-11
-7.84902e-15
-5.81721e-11
-1.82588e-13
2.25636e-09
-1.27654e-13
-8.32553e-14
1.21266e-09
-5.72217e-14
-4.11443e-14
5.95017e-10
-1.98104e-14
-2.57666e-14
2.45687e-10
-2.25999e-15
5.81931e-11
-4.35107e-15
-1.24643e-13
5.14325e-14
2.2552e-09
-1.89954e-13
-2.05963e-14
2.31278e-15
1.21193e-09
-1.10339e-13
1.65805e-14
-9.06873e-15
5.9461e-10
-6.41182e-14
1.58341e-14
-1.05005e-14
2.45518e-10
-3.36491e-14
-1.00734e-16
5.81628e-11
-6.70451e-15
-6.95853e-13
1.37021e-13
-2.61601e-13
4.21109e-09
-3.53325e-13
9.92312e-14
-1.40691e-13
2.25877e-09
-1.59266e-13
6.24843e-14
-6.79536e-14
1.10884e-09
-5.56545e-14
3.33202e-14
-2.49866e-14
4.58666e-10
8.90251e-15
-8.96955e-15
1.09053e-10
-7.82325e-13
2.25248e-09
-9.16103e-14
-3.73815e-13
1.21056e-09
-5.54108e-14
-1.44453e-13
5.93983e-10
-3.44215e-14
-3.06192e-14
2.45236e-10
-2.07642e-14
5.80839e-11
-1.00992e-15
-6.66534e-13
-2.28244e-13
2.25244e-09
5.87739e-14
-2.97086e-13
-1.58132e-13
1.21058e-09
3.78461e-14
-9.72829e-14
-1.00562e-13
5.93978e-10
1.72078e-14
-5.95973e-15
-5.62316e-14
2.45252e-10
3.10948e-15
-1.03693e-14
5.80849e-11
4.06288e-15
1.70542e-13
5.44612e-14
4.21233e-09
1.06635e-13
2.91627e-14
2.25946e-09
4.6198e-14
1.87082e-14
1.10917e-09
-3.27821e-16
1.02421e-14
4.58835e-10
3.6817e-15
1.09086e-10
-5.20816e-13
-2.50215e-13
4.20805e-09
-2.34936e-13
-1.27514e-13
2.25736e-09
-1.01249e-13
-5.73546e-14
1.1081e-09
-4.40989e-14
-2.04583e-14
4.58381e-10
-6.08296e-15
1.08965e-10
1.1309e-12
1.82974e-13
-8.47641e-14
-4.20951e-09
4.2104e-09
5.27428e-13
1.37592e-13
-6.8001e-14
-2.25602e-09
2.25654e-09
2.17387e-13
8.27133e-14
-4.26286e-14
-1.10671e-09
1.10696e-09
7.46248e-14
3.79896e-14
-2.16742e-14
-4.57587e-10
4.57691e-10
1.13603e-14
-4.33243e-15
-1.0875e-10
1.08801e-10
6.18681e-13
3.18852e-13
2.25215e-09
2.76982e-13
2.22312e-13
1.21035e-09
1.06435e-13
1.31097e-13
5.9388e-10
3.02533e-14
6.32207e-14
2.45219e-10
1.73683e-14
5.80985e-11
3.59564e-13
-2.50257e-13
2.86312e-13
4.21201e-09
1.35885e-13
-1.76723e-13
1.73924e-13
2.25931e-09
4.55185e-14
-1.03144e-13
9.84869e-14
1.10903e-09
2.08607e-14
-4.86803e-14
4.58361e-14
4.58733e-10
-1.40451e-14
1.2747e-14
1.09067e-10
2.77663e-13
-1.39714e-13
-2.58521e-09
2.63427e-13
2.58531e-09
1.4897e-13
-9.32306e-14
-1.38855e-09
1.64567e-13
1.38861e-09
6.46491e-14
-5.43784e-14
-6.81508e-10
9.25284e-14
6.81551e-10
1.03394e-14
-2.49138e-14
-2.81587e-10
4.24014e-14
2.8162e-10
-8.03265e-15
-6.68068e-11
1.24192e-14
6.68095e-11
4.28349e-13
3.20492e-14
-2.82261e-09
2.82278e-09
2.17992e-13
1.04931e-14
-1.51544e-09
1.51554e-09
8.78507e-14
2.51071e-15
-7.44051e-10
7.44124e-10
1.51583e-14
6.93921e-16
-3.07663e-10
3.07711e-10
-8.55024e-16
-7.30982e-11
7.31062e-11
5.99333e-14
-2.34092e-13
-4.21764e-09
2.71267e-13
4.21767e-09
2.44192e-14
-1.15565e-13
-2.2604e-09
1.53644e-13
2.26038e-09
1.58642e-14
-5.4199e-14
-1.10888e-09
7.97411e-14
1.10884e-09
1.54005e-14
-2.24259e-14
-4.58447e-10
3.41451e-14
4.58418e-10
-5.73926e-15
-1.08965e-10
9.62362e-15
1.08964e-10
1.93946e-13
2.25553e-09
-1.18329e-13
7.74411e-14
1.21211e-09
-4.07834e-14
2.75255e-14
5.94709e-10
-1.29257e-14
9.91691e-15
2.45523e-10
-2.30365e-15
5.81593e-11
8.41705e-17
-1.99468e-13
8.38951e-14
-2.16616e-13
2.2555e-09
-8.09503e-14
3.43728e-14
-1.19404e-13
1.21207e-09
-2.70628e-14
1.50602e-14
-6.21396e-14
5.94698e-10
-1.17554e-14
5.47264e-15
-2.8383e-14
2.45526e-10
2.83168e-16
-6.56593e-15
5.81518e-11
-1.97305e-13
4.21522e-09
1.06407e-13
-1.30743e-13
-1.34676e-13
2.26095e-09
3.66472e-14
-7.73859e-14
-6.23611e-14
1.10983e-09
1.31846e-14
-4.30451e-14
-7.9791e-15
4.5907e-10
3.55388e-15
-2.02195e-14
1.09148e-10
1.32814e-16
-6.40418e-15
2.97021e-13
-1.3873e-13
4.21549e-09
1.18246e-13
1.57129e-13
-5.63754e-14
2.26109e-09
5.62805e-14
6.48955e-14
-2.14961e-14
1.10991e-09
2.52017e-14
7.91108e-15
-6.00906e-15
4.59122e-10
9.10785e-15
-9.59081e-16
1.09153e-10
3.1438e-15
-1.74491e-13
2.23934e-09
-3.30122e-15
-7.00579e-14
1.20304e-09
-3.29641e-15
-2.79462e-14
5.90258e-10
-9.36125e-16
-1.70829e-14
2.43696e-10
2.46825e-16
5.77282e-11
8.59292e-17
1.07067e-13
-1.16776e-13
1.80543e-13
2.23946e-09
3.15173e-14
-9.0616e-14
1.1568e-13
1.2031e-09
8.06685e-15
-5.67525e-14
6.75925e-14
5.90273e-10
7.82154e-15
-2.92704e-14
3.32771e-14
2.43695e-10
-5.65776e-15
8.46523e-15
5.77349e-11
-3.48833e-13
2.23706e-09
-3.45676e-13
-1.45498e-13
1.2019e-09
-1.84042e-13
-5.10878e-14
5.89699e-10
-9.51332e-14
-1.56183e-14
2.43469e-10
-4.34026e-14
5.76767e-11
-1.02786e-14
3.54824e-13
4.25132e-13
-3.5683e-13
2.23739e-09
1.58029e-13
2.59039e-13
-2.25721e-13
1.20209e-09
5.53899e-14
1.48562e-13
-1.23677e-13
5.89802e-10
8.81881e-15
7.26216e-14
-5.45201e-14
2.43521e-10
1.65416e-14
-1.49197e-14
5.76954e-11
-5.90978e-14
1.87204e-13
4.0176e-09
-3.4971e-15
9.0798e-14
2.15512e-09
7.01087e-15
3.82566e-14
1.05751e-09
-3.21672e-15
1.14152e-14
4.37222e-10
5.71902e-15
1.03865e-10
-1.67902e-13
4.01677e-09
-5.00459e-14
2.1546e-09
-1.57048e-14
1.05734e-09
-2.08983e-14
4.37132e-10
1.03841e-10
-4.42767e-14
-2.67112e-13
4.01774e-09
-3.82375e-14
-1.69538e-13
2.15521e-09
-1.86439e-14
-9.73813e-14
1.05755e-09
1.26961e-15
-4.70321e-14
4.37231e-10
-1.07693e-14
1.03875e-10
1.35202e-13
4.01703e-09
5.68809e-14
2.15475e-09
2.56492e-14
1.0574e-09
1.61035e-14
4.37147e-10
1.03857e-10
2.94493e-13
2.32373e-13
4.20933e-09
1.08797e-13
1.43975e-13
2.25791e-09
3.90762e-14
8.0418e-14
1.10831e-09
1.63491e-14
3.74524e-14
4.5845e-10
8.87612e-15
1.09045e-10
-2.58297e-13
4.21317e-09
-1.3161e-13
-1.6179e-13
2.25986e-09
-7.72138e-14
-7.4129e-14
1.1093e-09
-4.41973e-14
-1.43763e-14
4.58813e-10
-2.245e-14
1.09082e-10
-5.07454e-15
2.31399e-13
4.21331e-09
1.29075e-13
1.32066e-13
2.25992e-09
8.23014e-14
5.93812e-14
1.10933e-09
4.63652e-14
8.13024e-15
4.58845e-10
2.08435e-14
1.0908e-10
7.18106e-15
6.10418e-13
-1.25099e-13
2.25433e-09
2.83259e-13
-9.79096e-14
1.21151e-09
1.15581e-13
-6.51427e-14
5.94461e-10
4.0112e-14
-3.5055e-14
2.45425e-10
-7.23688e-15
5.81409e-11
-2.63173e-13
2.24003e-09
9.84011e-14
-1.28875e-13
1.20334e-09
6.93066e-14
-5.57422e-14
5.90389e-10
4.22427e-14
-2.54523e-14
2.43778e-10
2.13624e-14
5.77448e-11
3.94662e-15
4.48425e-13
-6.18372e-14
1.79811e-13
2.24037e-09
2.05538e-13
-6.81233e-14
1.07173e-13
1.20352e-09
8.45198e-14
-4.42983e-14
6.15196e-14
5.90465e-10
3.41735e-14
-2.27133e-14
2.80472e-14
2.43797e-10
-5.11644e-15
1.0405e-14
5.77603e-11
-1.9322e-13
4.01941e-09
3.39122e-13
-7.78622e-14
2.15576e-09
1.97657e-13
-2.58539e-14
1.05794e-09
1.02722e-13
-1.15217e-14
4.37368e-10
4.44113e-14
1.03898e-10
1.11355e-14
2.89236e-13
-1.43121e-13
4.01959e-09
1.3801e-13
-8.2947e-14
2.15594e-09
5.29038e-14
-3.6066e-14
1.05804e-09
2.02881e-14
-1.04019e-14
4.37403e-10
-3.84074e-15
1.03919e-10
-1.48277e-13
1.12573e-13
4.21424e-09
-1.2387e-13
4.75515e-14
2.26061e-09
-6.90718e-14
2.51864e-14
1.10971e-09
-1.93218e-14
1.30517e-14
4.59017e-10
7.88639e-16
1.09157e-10
3.30036e-13
-2.34266e-13
-2.58502e-09
3.4484e-13
2.58518e-09
1.70531e-13
-1.364e-13
-1.38844e-09
2.00349e-13
1.38853e-09
7.18565e-14
-7.32126e-14
-6.81413e-10
1.08141e-13
6.81469e-10
1.45047e-14
-3.34717e-14
-2.81565e-10
4.95672e-14
2.81599e-10
-7.98595e-15
-6.68016e-11
1.1974e-14
6.68077e-11
4.56495e-13
-2.82245e-09
2.82261e-09
2.31691e-13
-1.51536e-09
1.51546e-09
9.50772e-14
-7.44013e-10
7.44077e-10
1.98716e-14
-3.07648e-10
3.07688e-10
-7.3094e-11
7.3102e-11
-7.60259e-14
-1.89236e-13
1.15798e-13
-4.21771e-09
4.2178e-09
-6.06094e-14
-9.51695e-14
7.03129e-14
-2.26053e-09
2.26053e-09
-2.82619e-14
-4.57244e-14
4.04578e-14
-1.10886e-09
1.10883e-09
1.86609e-15
-1.94176e-14
1.95124e-14
-4.58496e-10
4.58461e-10
-5.27767e-15
5.73285e-15
-1.08951e-10
1.08949e-10
1.73262e-13
2.25642e-09
6.0084e-14
1.21264e-09
1.76052e-14
5.9493e-10
8.49583e-15
2.45638e-10
5.81739e-11
-1.41067e-13
-2.85998e-13
2.25646e-09
-5.75039e-14
-1.55294e-13
1.21265e-09
-1.87205e-14
-7.74836e-14
5.94938e-10
-7.44535e-15
-3.30384e-14
2.45646e-10
-8.56105e-15
5.81703e-11
2.24646e-13
2.61904e-13
2.25642e-09
8.85486e-14
1.27949e-13
1.21268e-09
3.49887e-14
5.25091e-14
5.95003e-10
2.23087e-14
1.46552e-14
2.45664e-10
7.06846e-15
5.81975e-11
2.22932e-13
-2.05488e-13
2.70068e-13
-4.21659e-09
4.21664e-09
1.27396e-13
-1.07441e-13
1.49709e-13
-2.25982e-09
2.25982e-09
8.03549e-14
-5.62509e-14
7.48378e-14
-1.10856e-09
1.10853e-09
5.47898e-14
-2.77673e-14
2.95116e-14
-4.58354e-10
4.58309e-10
-5.07951e-15
9.93034e-15
-1.08942e-10
1.08945e-10
2.05767e-13
-8.46726e-14
2.2553e-09
7.802e-14
-1.98755e-14
1.212e-09
2.38208e-14
3.17506e-16
5.94646e-10
6.28243e-15
5.48097e-15
2.45533e-10
7.32579e-16
5.81696e-11
-4.43052e-13
2.24028e-09
-4.57576e-13
-2.12776e-13
1.20343e-09
-2.55232e-13
-8.14962e-14
5.90407e-10
-1.37794e-13
-1.55817e-14
2.43755e-10
-6.43197e-14
5.77589e-11
-1.59303e-14
4.56382e-13
-2.0384e-13
2.89296e-13
2.24063e-09
2.0361e-13
-1.16195e-13
1.70349e-13
1.20364e-09
7.17862e-14
-5.73303e-14
9.73186e-14
5.90522e-10
1.69848e-14
-2.27444e-14
4.80056e-14
2.43807e-10
-5.61591e-15
1.10166e-14
5.77814e-11
-8.97245e-14
-3.65049e-13
4.02151e-09
-4.90585e-14
-2.01019e-13
2.15693e-09
-2.9587e-14
-1.00323e-13
1.0584e-09
-1.83056e-14
-4.08456e-14
4.37536e-10
-1.1633e-14
1.03957e-10
4.96316e-13
-3.33852e-13
4.21172e-09
2.07447e-13
-2.29499e-13
2.25913e-09
8.06401e-14
-1.34374e-13