/*--------------------------------*- C++ -*----------------------------------*\
| =========                 |                                                 |
| \\      /  F ield         | OpenFOAM: The Open Source CFD Toolbox           |
|  \\    /   O peration     | Version:  2206                                  |
|   \\  /    A nd           | Website:  www.openfoam.com                      |
|    \\/     M anipulation  |                                                 |
\*---------------------------------------------------------------------------*/
FoamFile
{
    version     2.0;
    format      ascii;
    arch        "LSB;label=32;scalar=64";
    class       volVectorField;
    location    "120";
    object      U;
}
// * * * * * * * * * * * * * * * * * * * * * * * * * * * * * * * * * * * * * //

dimensions      [0 1 -1 0 0 0 0];

internalField   nonuniform List<vector> 
67442
(
(-2.57752e-06 -1.03738e-07 0.14421)
(3.64832e-06 -9.44828e-08 0.135011)
(2.89473e-07 1.46307e-06 0.135363)
(-0.000128819 -0.000126895 0.129637)
(0.000125556 0.000126731 0.129617)
(3.98503e-07 1.37072e-07 0.135383)
(-1.87353e-07 2.21385e-06 0.135368)
(-0.000127341 0.000128312 0.129622)
(-3.0527e-06 -2.30058e-07 0.135016)
(-4.86326e-06 3.52081e-06 0.13501)
(-3.51293e-07 1.62241e-07 0.135045)
(0.000125779 -0.000123382 0.129594)
(-1.12709e-06 1.32179e-06 0.135406)
(5.08714e-06 1.78535e-05 0.0698204)
(-5.55311e-07 3.04192e-05 0.0958747)
(-6.9842e-06 4.20851e-06 0.0596438)
(1.25588e-05 -1.35068e-06 0.0696154)
(1.91394e-05 -1.33488e-06 0.0952641)
(4.13196e-06 4.48622e-07 0.144183)
(-2.62447e-06 2.84238e-06 0.144197)
(1.50461e-06 2.00986e-06 0.144225)
(-1.56976e-05 7.79305e-06 0.0980368)
(3.60612e-06 -2.78843e-07 0.139863)
(-3.04136e-05 -1.40721e-06 0.115102)
(9.38871e-08 3.61499e-07 0.0595745)
(3.38743e-07 1.21516e-07 0.140453)
(2.0367e-05 -2.04303e-05 0.0983973)
(-1.65002e-07 -3.64329e-05 0.115736)
(-1.68964e-06 -7.16594e-06 0.0828172)
(-1.60401e-05 -1.58863e-06 0.0829846)
(6.74035e-06 2.91752e-06 0.0596094)
(4.40278e-07 8.54693e-07 0.0595411)
(1.57303e-05 3.58326e-07 0.0830458)
(-8.1783e-07 6.05479e-06 0.0827826)
(-5.20669e-06 1.86768e-05 0.0698673)
(1.98887e-07 3.00366e-05 0.0958826)
(1.82061e-05 1.91911e-05 0.0983892)
(4.64449e-07 1.55699e-06 0.140487)
(8.87224e-08 3.61685e-05 0.115734)
(-1.9867e-05 2.18015e-05 0.0983926)
(1.63886e-06 -3.53256e-07 0.140471)
(4.32958e-07 3.5726e-05 0.115728)
(-1.66814e-05 1.5141e-06 0.0830377)
(-9.63989e-07 6.16212e-06 0.0828179)
(-2.19073e-07 6.51891e-07 0.0595517)
(1.62976e-05 9.54156e-06 0.0980121)
(-4.97306e-06 1.30367e-06 0.139885)
(2.8271e-05 -2.69868e-06 0.115122)
(1.1831e-05 2.61645e-06 0.0696513)
(1.68471e-05 3.04397e-06 0.0952627)
(-5.55253e-06 3.7542e-06 0.139897)
(1.48713e-05 -7.97089e-06 0.098022)
(2.90817e-05 1.25833e-06 0.115113)
(-1.15461e-05 -1.89425e-06 0.0696363)
(-1.7918e-05 -1.2527e-06 0.095271)
(3.86351e-06 2.5814e-06 0.139896)
(-1.70087e-05 -8.07166e-06 0.0980274)
(-3.06573e-05 2.64711e-06 0.115107)
(-1.25783e-05 2.4517e-06 0.0696159)
(-2.04281e-05 2.21789e-06 0.095278)
(-1.44365e-06 -5.00828e-06 0.0828272)
(1.58121e-05 -8.68095e-07 0.0830574)
(7.17079e-06 -3.0295e-06 0.0596365)
(3.03603e-06 2.76506e-06 0.140467)
(-2.05025e-05 -2.08464e-05 0.0983732)
(-2.78255e-06 -3.70266e-05 0.115726)
(4.36955e-06 -1.89563e-05 0.0698393)
(-1.40434e-06 -3.23065e-05 0.0958637)
(-6.15198e-06 -1.68644e-05 0.0698215)
(-2.12151e-06 -3.25991e-05 0.0958672)
(-2.33613e-07 -4.57868e-07 0.0595317)
(-7.30674e-06 -2.13511e-06 0.0595943)
(-3.23969e-06 -7.1711e-06 0.0578148)
(-6.68867e-06 -1.70966e-05 0.0697203)
(2.8852e-06 2.15256e-05 0.0813528)
(-5.83693e-06 -2.20795e-05 0.0812252)
(-3.7586e-07 7.24894e-06 0.057843)
(-2.05567e-06 -8.37205e-06 0.0640848)
(-1.55269e-06 -3.26874e-05 0.0956907)
(-1.68088e-06 7.01838e-06 0.0664449)
(-4.23504e-07 2.79128e-05 0.0923612)
(-1.64867e-06 -7.82e-06 0.0663836)
(-2.97874e-06 -3.22919e-05 0.0921865)
(-1.54873e-06 7.00723e-06 0.0641388)
(6.40767e-06 -1.87181e-06 0.0595487)
(-2.69504e-06 -3.74943e-06 0.0639458)
(1.77069e-05 -1.77942e-06 0.0952667)
(1.90905e-05 -4.19694e-06 0.0918061)
(-4.44762e-06 -9.90574e-07 0.0662065)
(-1.39533e-06 4.06869e-06 0.0575665)
(-1.30859e-05 2.87287e-06 0.0693198)
(1.49946e-05 -2.69159e-06 0.0809643)
(-1.52171e-05 4.89792e-06 0.0805423)
(7.20856e-07 -3.55808e-06 0.0577807)
(4.21799e-07 -3.61818e-06 0.0577821)
(1.22383e-05 -2.46844e-06 0.069616)
(1.45579e-05 -3.4107e-06 0.0809646)
(2.59761e-06 4.33711e-06 0.0636438)
(-2.04778e-05 2.02497e-06 0.0946308)
(1.84615e-05 -4.23534e-06 0.0918031)
(-2.85272e-06 -5.16944e-07 0.0662074)
(-2.02661e-05 5.11378e-06 0.091219)
(4.13767e-06 2.6032e-06 0.0658785)
(-1.57357e-06 -3.47876e-06 0.0639477)
(-1.55914e-06 -6.05375e-07 0.059363)
(2.24215e-07 1.0014e-06 0.0595782)
(3.48697e-05 4.29483e-06 0.0941182)
(-4.14839e-05 -6.3003e-06 0.107306)
(3.45894e-07 5.55137e-06 0.0824142)
(-3.80565e-06 -3.3905e-07 0.0689307)
(3.72768e-05 7.74812e-06 0.106736)
(3.08806e-06 3.17883e-07 0.0686692)
(-3.7905e-05 -1.73009e-06 0.0946004)
(8.91705e-06 3.12846e-05 0.0941614)
(-1.62353e-05 -3.63928e-05 0.107395)
(1.64149e-05 1.37233e-07 0.0827405)
(-8.17695e-06 -1.60079e-06 0.0688911)
(1.40778e-05 3.69484e-05 0.106988)
(8.84e-06 6.36959e-07 0.0687126)
(-1.0439e-05 -3.24529e-05 0.0945706)
(6.41896e-06 4.88703e-07 0.0749306)
(-1.0794e-07 -1.58727e-06 0.0581925)
(-7.85915e-06 3.75287e-06 0.0582084)
(-1.38478e-07 7.01587e-07 0.0580085)
(7.39423e-06 -4.33194e-06 0.0580503)
(-7.84818e-06 -6.7594e-07 0.0752631)
(-6.83578e-06 -1.69851e-06 0.0595149)
(-1.33772e-06 7.98028e-07 0.0593299)
(7.97633e-08 1.41469e-07 0.0595432)
(-1.04186e-05 -3.32523e-05 0.094292)
(1.74193e-05 3.64182e-05 0.107485)
(-1.41721e-05 -3.25788e-07 0.0828108)
(8.88389e-06 4.7014e-07 0.0690285)
(-6.63233e-06 -2.04795e-06 0.0688529)
(-1.3945e-05 -3.57068e-05 0.107085)
(1.12318e-05 3.03e-05 0.0946961)
(-3.65975e-05 -2.67311e-06 0.0940208)
(3.87696e-05 6.58766e-06 0.107206)
(-8.6054e-07 -5.47026e-06 0.0823835)
(1.71326e-06 -8.33147e-07 0.0688392)
(-3.83418e-06 -8.00536e-07 0.0685751)
(-4.10949e-05 -6.76002e-06 0.106641)
(3.56989e-05 5.74713e-09 0.0944995)
(-5.82502e-06 -2.03316e-06 0.0749523)
(8.28328e-06 -4.54563e-06 0.0582284)
(2.43406e-07 1.29301e-07 0.0582095)
(-5.71115e-06 3.24406e-06 0.0580744)
(1.17418e-06 -1.59232e-06 0.0580245)
(7.88219e-06 -6.5431e-07 0.0752825)
(2.32177e-06 -7.07179e-06 0.057851)
(5.78931e-06 -1.7206e-05 0.0697659)
(-3.19232e-06 2.40369e-05 0.0813982)
(5.00231e-06 -2.18093e-05 0.0812643)
(-5.43159e-08 8.52872e-06 0.0578838)
(8.88107e-07 -8.4067e-06 0.0641115)
(2.16374e-07 -3.32692e-05 0.0956927)
(-7.66547e-07 7.20053e-06 0.0664522)
(-5.5225e-08 3.04877e-05 0.0923792)
(-1.11735e-06 -8.93826e-06 0.066386)
(3.08725e-06 -3.14201e-05 0.0922021)
(1.25366e-06 7.50603e-06 0.0641696)
(8.3669e-06 -3.34366e-05 0.0941894)
(-1.753e-05 3.93024e-05 0.107433)
(1.5025e-05 -5.96336e-07 0.0827935)
(-9.81445e-06 1.1908e-06 0.0689527)
(6.28695e-06 -1.02121e-06 0.0687354)
(1.34931e-05 -3.56829e-05 0.107029)
(-1.02298e-05 3.25177e-05 0.0945927)
(3.49806e-05 -5.62682e-06 0.0941431)
(-4.04723e-05 4.80948e-06 0.107282)
(1.42974e-06 -5.90697e-06 0.0824182)
(-4.08614e-06 8.9659e-08 0.0689297)
(3.92879e-05 -9.33428e-06 0.106717)
(4.1538e-06 -1.66275e-06 0.0687049)
(-3.65207e-05 1.98064e-07 0.0946181)
(4.36586e-06 -3.29503e-06 0.0749617)
(-8.85e-06 -4.87604e-06 0.0582435)
(-1.59708e-06 1.03774e-06 0.0582027)
(4.29537e-06 3.26577e-06 0.0580681)
(-8.83795e-07 -3.26464e-06 0.0580385)
(-8.89121e-06 -1.94675e-07 0.0752887)
(2.46394e-06 3.08467e-07 0.0593432)
(-3.0984e-06 5.72215e-06 0.0639674)
(1.78961e-05 2.61166e-06 0.0952642)
(-5.01942e-06 2.62539e-06 0.0662168)
(1.74993e-05 6.44156e-06 0.0918058)
(1.84576e-08 -1.99327e-06 0.0575937)
(-1.30933e-05 -3.06019e-06 0.0693543)
(1.44406e-05 4.95583e-06 0.0809786)
(-1.48986e-05 -2.81581e-06 0.0805603)
(1.6868e-06 5.38078e-06 0.0578088)
(5.06818e-07 5.34109e-06 0.0578128)
(1.16838e-05 3.51301e-06 0.0696551)
(1.33141e-05 5.7882e-06 0.0809858)
(2.76989e-06 -1.24257e-06 0.0636632)
(-2.06794e-05 -1.93172e-07 0.094631)
(-2.86234e-06 2.64526e-06 0.0662161)
(1.83758e-05 5.64744e-06 0.0918017)
(3.85592e-06 6.776e-07 0.0658876)
(-2.05612e-05 -2.54771e-06 0.0912196)
(-9.06687e-07 5.69512e-06 0.0639647)
(2.25744e-06 5.73612e-06 0.0576056)
(1.4317e-05 2.0419e-06 0.0693403)
(-1.35462e-05 -2.37208e-06 0.0809856)
(1.73166e-05 5.16257e-06 0.0805655)
(-2.36426e-07 -2.07138e-06 0.0578174)
(-2.58925e-06 5.19947e-06 0.0636938)
(1.96211e-05 1.49879e-06 0.0946393)
(-1.9171e-05 -3.92183e-06 0.0918138)
(3.78521e-06 3.91761e-07 0.0662624)
(1.99377e-05 5.92978e-06 0.0912323)
(-3.94684e-06 2.17206e-06 0.0659329)
(1.91248e-06 -2.45681e-06 0.0639953)
(2.01381e-06 -3.98375e-06 0.057578)
(1.33816e-05 -1.85221e-06 0.0693158)
(-1.43875e-05 3.08406e-06 0.0809624)
(1.67047e-05 -3.78883e-06 0.0805356)
(-7.79496e-08 2.79136e-06 0.057795)
(-1.94464e-06 -4.24714e-06 0.0636721)
(1.91476e-05 -1.32606e-06 0.0946401)
(3.12445e-06 2.23591e-06 0.0662545)
(-1.95342e-05 3.90489e-06 0.0918083)
(-3.41539e-06 -9.03143e-07 0.065927)
(2.08153e-05 -4.31711e-06 0.0912209)
(2.7338e-06 2.83271e-06 0.063974)
(-3.95649e-05 6.66994e-06 0.0940549)
(3.74522e-05 -4.05585e-06 0.107259)
(-2.4915e-06 6.4515e-06 0.0824208)
(1.69478e-06 2.53419e-06 0.0688868)
(-5.51038e-06 2.12671e-06 0.0685993)
(-4.19036e-05 8.18862e-06 0.106696)
(3.48002e-05 3.85979e-06 0.0945327)
(-9.5824e-06 3.33529e-05 0.0943207)
(1.5374e-05 -3.34236e-05 0.107448)
(-1.50735e-05 1.18101e-06 0.0828248)
(9.6407e-06 -4.34213e-07 0.0690569)
(-1.57876e-05 3.93122e-05 0.107052)
(-7.40056e-06 2.80871e-06 0.0689094)
(1.1839e-05 -2.85318e-05 0.0947163)
(-9.13646e-06 1.61019e-06 0.0750016)
(2.20576e-07 1.71619e-06 0.0582421)
(9.28757e-06 6.30101e-06 0.0582682)
(-9.1842e-07 1.61636e-06 0.0580498)
(-7.6292e-06 -2.60137e-06 0.0581297)
(7.41611e-06 2.3543e-06 0.075325)
(-6.88764e-06 3.0865e-06 0.0595442)
(-3.07203e-06 7.03325e-06 0.0578279)
(-7.4375e-06 1.74436e-05 0.0697399)
(2.65406e-06 -2.39295e-05 0.0813682)
(-6.04724e-06 2.21002e-05 0.0812338)
(-7.11553e-07 -8.16666e-06 0.0578588)
(-2.63382e-06 6.94764e-06 0.0640842)
(-2.18858e-06 3.23545e-05 0.0956783)
(3.79401e-07 -3.23689e-05 0.0923548)
(-2.68708e-06 -8.14558e-06 0.0664373)
(-2.18741e-06 2.99987e-05 0.0921777)
(-2.50236e-06 6.89516e-06 0.0663712)
(-2.8719e-06 -8.68381e-06 0.0641422)
(6.82649e-07 8.37439e-06 0.0578265)
(6.53029e-06 1.9739e-05 0.0697176)
(-4.49411e-06 -2.21008e-05 0.0813608)
(4.00996e-06 2.40799e-05 0.0812235)
(-1.26839e-06 -7.46757e-06 0.0578601)
(-1.48651e-06 7.77849e-06 0.0640841)
(-1.98359e-06 3.1027e-05 0.0956791)
(-2.79958e-06 -3.06357e-05 0.0923518)
(-1.56084e-06 -7.74632e-06 0.0664364)
(-3.42936e-07 3.10434e-05 0.092172)
(-1.80288e-06 7.38283e-06 0.0663735)
(-7.91545e-07 -7.42206e-06 0.0641427)
(1.65112e-06 -6.59314e-07 0.0593216)
(7.61311e-06 3.613e-06 0.0594973)
(-5.56844e-07 4.55835e-07 0.147837)
(-2.6665e-06 1.31268e-06 0.147509)
(-1.74372e-06 1.79762e-06 0.150964)
(3.99639e-05 3.70302e-05 0.109866)
(-4.18971e-05 -0.000134068 0.120938)
(-0.000137605 -3.79174e-05 0.120949)
(0.000132435 0.000134185 0.129471)
(3.92532e-05 0.000135927 0.120511)
(0.000131902 3.54797e-05 0.120597)
(-4.27395e-05 -3.609e-05 0.110315)
(-4.36995e-05 -3.74283e-05 0.109872)
(0.000136205 3.6498e-05 0.121033)
(3.84093e-05 0.000130914 0.120822)
(-0.000134391 -0.000131876 0.129456)
(-0.000136607 -3.71484e-05 0.120688)
(-4.23423e-05 -0.00013315 0.120401)
(3.99012e-05 3.2549e-05 0.110317)
(4.15892e-05 -3.85724e-05 0.109894)
(-0.000135244 3.71532e-05 0.121032)
(-4.0258e-05 0.000132462 0.120856)
(0.000132493 -0.000130937 0.129459)
(4.09179e-05 -0.000134435 0.120434)
(0.000135455 -3.66469e-05 0.120688)
(-4.06313e-05 3.34689e-05 0.110335)
(-4.16243e-05 4.16452e-05 0.109885)
(3.97116e-05 -0.000130694 0.120906)
(0.000133789 -3.2117e-05 0.120937)
(-0.000133978 0.00013533 0.129433)
(-0.000134589 4.00999e-05 0.120591)
(-4.24777e-05 0.000136423 0.120489)
(4.10875e-05 -2.99073e-05 0.110323)
(2.27101e-06 3.57174e-07 0.147823)
(4.17227e-06 1.06949e-06 0.14749)
(2.91948e-06 1.0096e-06 0.150949)
(-2.58153e-06 1.92027e-06 0.147552)
(-6.47393e-07 1.61619e-06 0.147786)
(-1.50897e-06 1.00925e-06 0.150962)
(3.32151e-06 1.3396e-06 0.14755)
(2.18652e-06 1.99538e-06 0.147794)
(2.47516e-06 2.40787e-06 0.150954)
(0.000167454 -1.11353e-06 0.12183)
(-0.000157818 2.90915e-06 0.116115)
(1.89422e-05 -1.23343e-05 0.0975081)
(-2.72449e-05 5.60936e-07 0.107085)
(0.000154587 -4.90306e-06 0.115586)
(2.88039e-05 -1.38021e-06 0.106489)
(-0.000159604 -2.1844e-06 0.122268)
(0.000162293 1.34609e-06 0.125395)
(2.75197e-05 1.97776e-06 0.114381)
(-3.20579e-05 -1.51955e-06 0.112547)
(-0.000157775 -1.53196e-06 0.127711)
(2.89435e-05 3.44188e-06 0.11188)
(0.000157165 2.94431e-06 0.127159)
(-0.000164879 -3.03582e-06 0.12589)
(-3.45983e-06 0.000160168 0.122597)
(1.22638e-05 -0.000151996 0.116419)
(-2.06216e-05 1.95164e-05 0.098158)
(9.17361e-06 -3.04996e-05 0.107566)
(-9.95153e-06 0.000152085 0.116145)
(-9.92988e-06 3.33391e-05 0.107358)
(6.77994e-06 -0.000155011 0.122712)
(4.30826e-07 0.00015625 0.126346)
(-1.46714e-06 3.52382e-05 0.115532)
(1.25832e-07 -0.000151467 0.128306)
(4.19003e-06 -3.71345e-05 0.113144)
(6.09941e-07 0.000153028 0.1282)
(-3.53002e-06 3.62642e-05 0.112947)
(2.12399e-06 -0.000156841 0.126432)
(-5.2369e-06 -0.000157422 0.122582)
(9.88787e-06 0.000151151 0.11642)
(-2.1845e-05 -2.04771e-05 0.0981544)
(7.06912e-06 3.17552e-05 0.107568)
(-1.25406e-05 -3.29733e-05 0.107359)
(-1.01734e-05 -0.000148388 0.116146)
(4.35574e-06 0.000155147 0.122703)
(-1.28827e-06 -0.000159233 0.126335)
(-9.77324e-07 -3.62596e-05 0.11553)
(1.51241e-06 3.48658e-05 0.113152)
(-3.81214e-07 0.000148002 0.128286)
(-5.80811e-06 -3.78877e-05 0.112954)
(9.11898e-08 -0.000152502 0.12818)
(5.40222e-07 0.000151863 0.126421)
(3.92666e-06 -0.000154953 0.122553)
(-1.18261e-05 0.000152769 0.116393)
(1.97782e-05 -1.8807e-05 0.0981524)
(-8.32008e-06 3.3409e-05 0.10756)
(9.75036e-06 -3.0823e-05 0.107349)
(8.21704e-06 -0.000147151 0.116115)
(-5.74107e-06 0.000157573 0.122676)
(5.70312e-07 -0.00015393 0.126315)
(2.16593e-06 -3.77339e-05 0.115521)
(-1.82101e-06 3.6705e-05 0.113135)
(6.5124e-07 0.000148489 0.128282)
(5.41375e-06 -3.73085e-05 0.112937)
(-1.9708e-07 -0.000153162 0.128175)
(-3.7554e-07 0.000155414 0.126405)
(-0.000167766 -1.36442e-06 0.121823)
(0.000154735 2.5604e-06 0.116084)
(-1.85686e-05 -1.05316e-05 0.0974899)
(2.65565e-05 1.19439e-07 0.107077)
(-2.90017e-05 -8.40245e-07 0.106486)
(-0.000157215 -5.0354e-06 0.115561)
(0.00016028 -2.68055e-06 0.122257)
(-0.000165 8.73273e-07 0.125403)
(-3.12043e-05 2.23995e-07 0.114405)
(3.02199e-05 -2.86652e-06 0.112558)
(0.000155284 -2.48273e-06 0.127723)
(-3.1661e-05 1.53938e-06 0.111892)
(-0.000162906 1.17653e-06 0.127174)
(0.000160379 -4.05577e-06 0.125898)
(-0.000163114 1.82287e-06 0.121788)
(0.000152829 1.03319e-06 0.116075)
(-1.99669e-05 1.11989e-05 0.0974992)
(2.59765e-05 1.44686e-06 0.107071)
(-2.84108e-05 2.29548e-06 0.106478)
(-0.000155627 7.45844e-06 0.115553)
(0.00016086 3.79641e-06 0.122232)
(-0.000165346 -9.93749e-07 0.125382)
(-3.19904e-05 -6.24511e-07 0.114391)
(0.000153486 1.088e-06 0.127715)
(2.9244e-05 3.75861e-06 0.112549)
(-0.000163074 -1.44909e-06 0.127163)
(-3.30408e-05 -7.33421e-08 0.111879)
(0.000158839 3.81061e-06 0.125883)
(0.000164324 1.99756e-06 0.121816)
(-0.000159443 -3.57124e-06 0.116104)
(1.68473e-05 1.19153e-05 0.0974972)
(-2.681e-05 1.27741e-06 0.107082)
(0.000152488 4.92742e-06 0.115574)
(2.73979e-05 2.74659e-06 0.106481)
(-0.000161403 2.75526e-06 0.12226)
(0.000164762 5.84434e-07 0.125399)
(2.94817e-05 -1.97698e-07 0.114388)
(-0.00015926 3.80165e-06 0.127704)
(-3.12736e-05 2.40474e-06 0.112563)
(0.000157764 1.07755e-06 0.127154)
(2.90352e-05 -1.99412e-06 0.111889)
(-0.000162118 4.36293e-06 0.125898)
(4.34248e-06 0.000162248 0.122606)
(-1.12395e-05 -0.000152562 0.11642)
(2.06072e-05 2.0096e-05 0.0981275)
(-1.09251e-05 -3.31055e-05 0.107559)
(9.14688e-06 0.000152486 0.116141)
(8.26822e-06 3.32628e-05 0.107347)
(-5.62165e-06 -0.000155887 0.122721)
(6.86237e-07 0.000155533 0.126351)
(-5.02946e-07 3.62191e-05 0.115523)
(9.41586e-07 -0.00015171 0.128304)
(-5.99684e-06 -3.70997e-05 0.113139)
(1.26261e-07 0.000151636 0.128198)
(1.13383e-06 3.59533e-05 0.11294)
(1.25453e-07 -0.000155166 0.126436)
(2.93763e-06 3.55345e-06 0.0405138)
(2.26161e-06 1.36263e-06 0.0273404)
(1.54827e-06 3.48326e-07 0.0169951)
(8.41181e-07 -1.40733e-07 0.00894717)
(3.2909e-07 -5.14767e-08 0.00271516)
(-4.74503e-06 7.03816e-07 0.0418963)
(-3.3536e-06 -2.23005e-07 0.0284763)
(-2.27394e-06 -5.38447e-07 0.0178259)
(-1.30775e-06 -5.43055e-07 0.00944762)
(-4.31773e-07 -1.52728e-07 0.00288812)
(1.54488e-06 -8.01771e-07 0.0406122)
(7.07975e-07 -3.17314e-07 0.0274015)
(3.61445e-07 -1.28807e-07 0.0170306)
(6.09849e-08 -9.6477e-08 0.0089648)
(2.94637e-08 -4.85966e-09 0.00272031)
(-1.25993e-06 6.28735e-07 0.0419669)
(-6.03656e-07 3.49091e-07 0.0285211)
(-1.85883e-07 1.6564e-07 0.0178528)
(-5.13258e-08 1.06713e-07 0.00946156)
(4.51225e-10 -1.60335e-08 0.00289242)
(4.51141e-06 -1.84443e-07 0.0418715)
(3.16801e-06 -5.73208e-07 0.0284604)
(2.10561e-06 -5.41221e-07 0.0178165)
(1.1803e-06 -3.425e-07 0.00944327)
(4.15279e-07 -1.67738e-07 0.00288731)
(-1.11891e-06 1.71583e-07 0.0419428)
(-5.53709e-07 1.62079e-07 0.028505)
(-1.9742e-07 1.77189e-07 0.0178427)
(-8.81019e-08 1.38421e-07 0.00945593)
(8.68584e-09 3.75417e-09 0.00289073)
(-3.169e-06 4.33751e-06 0.0405457)
(-2.48233e-06 1.76524e-06 0.0273617)
(-1.8059e-06 5.43033e-07 0.0170077)
(-1.12495e-06 3.34718e-08 0.00895333)
(-3.40451e-07 -5.01492e-08 0.0027168)
(8.4875e-07 1.70404e-07 0.0419517)
(3.9167e-07 9.52732e-09 0.0285123)
(1.56897e-07 -6.56628e-08 0.0178477)
(1.52344e-07 -1.1426e-07 0.00945915)
(-5.16585e-08 -3.24732e-08 0.00289192)
(1.59434e-06 2.13924e-06 0.0406384)
(8.26597e-07 1.35048e-06 0.0274192)
(5.13166e-07 8.06906e-07 0.0170417)
(2.64693e-07 4.37428e-07 0.00897047)
(5.78991e-08 1.01526e-07 0.00272181)
(-1.24191e-06 -1.0184e-06 0.0406303)
(-5.94762e-07 -4.94846e-07 0.0274154)
(-3.91633e-07 -2.49096e-07 0.0170399)
(-3.03758e-07 -8.72169e-08 0.00896991)
(-7.02074e-09 -6.35507e-08 0.00272195)
(-1.11346e-06 1.47466e-06 0.0406162)
(-3.60097e-07 8.20491e-07 0.0274046)
(-1.1185e-07 4.72447e-07 0.0170331)
(5.49807e-08 2.65658e-07 0.00896647)
(-1.87782e-08 8.07593e-08 0.00272097)
(4.27536e-06 -4.49466e-07 0.0418918)
(2.79897e-06 2.14841e-08 0.0284741)
(1.78845e-06 1.9707e-07 0.017825)
(9.86126e-07 1.66232e-07 0.0094474)
(3.41448e-07 1.32067e-07 0.00288829)
(2.04837e-06 -4.74006e-06 0.0405286)
(1.37408e-06 -2.17755e-06 0.0273506)
(8.3512e-07 -8.70978e-07 0.0170012)
(3.80872e-07 -1.695e-07 0.00895008)
(2.09261e-07 -1.97321e-08 0.00271587)
(-3.34149e-06 -3.46845e-06 0.0405195)
(-2.42315e-06 -1.25268e-06 0.0273449)
(-1.64474e-06 -2.28218e-07 0.0169978)
(-9.17948e-07 2.73007e-07 0.00894812)
(-3.13142e-07 4.60383e-08 0.00271535)
(1.02218e-06 2.5162e-08 0.041936)
(5.67839e-07 3.56971e-09 0.0285012)
(2.36275e-07 -4.06126e-08 0.0178409)
(5.73376e-08 -9.28589e-08 0.00945532)
(-1.2277e-08 3.46037e-08 0.00289066)
(-4.37296e-06 1.95818e-07 0.0418605)
(-2.83989e-06 5.08862e-07 0.0284534)
(-1.85861e-06 5.03261e-07 0.0178121)
(-1.13379e-06 3.17745e-07 0.00944029)
(-2.87744e-07 1.31498e-07 0.00288613)
(-2.28548e-06 -3.9315e-06 0.0418384)
(-1.74664e-06 -1.73524e-06 0.0284456)
(-1.18844e-06 -6.34665e-07 0.0178091)
(-6.81264e-07 -2.11534e-07 0.00943923)
(-2.10287e-07 -5.97021e-09 0.00288585)
(-4.54699e-06 -2.60779e-06 0.0405)
(-3.69045e-06 -5.59383e-07 0.0273381)
(-2.66752e-06 1.75535e-07 0.0169949)
(-1.58052e-06 3.09759e-07 0.0089471)
(-5.60336e-07 1.70687e-07 0.0027152)
(4.44455e-06 9.90207e-07 0.0418571)
(3.3327e-06 1.19863e-06 0.0284576)
(2.37694e-06 1.03934e-06 0.0178161)
(1.435e-06 6.58855e-07 0.00944265)
(5.12783e-07 2.60498e-07 0.00288675)
(-1.44627e-06 -3.1575e-06 0.0408054)
(-5.9847e-07 -2.53315e-06 0.0276175)
(-1.55402e-07 -1.82776e-06 0.0172158)
(1.44178e-08 -1.07231e-06 0.00908751)
(5.65267e-08 -4.08399e-07 0.00276588)
(-2.61322e-06 -8.98755e-07 0.0410612)
(-1.31242e-06 -8.40601e-07 0.0278334)
(-5.27856e-07 -6.64773e-07 0.017381)
(-1.37249e-07 -3.98409e-07 0.00919153)
(-1.78268e-08 -1.78634e-07 0.00280353)
(-1.0367e-06 3.6902e-06 0.0418413)
(-7.61808e-07 2.70054e-06 0.0284508)
(-5.49016e-07 1.82725e-06 0.0178131)
(-3.48633e-07 1.03506e-06 0.00944128)
(-1.03537e-07 3.70788e-07 0.00288652)
(-1.78567e-06 1.79372e-06 0.0405107)
(-7.74683e-07 9.34946e-07 0.0273477)
(-3.84224e-07 4.3952e-07 0.0170012)
(-1.43105e-07 1.79383e-07 0.00895009)
(-4.60476e-08 4.12567e-08 0.00271607)
(1.55683e-06 -1.53525e-06 0.0406127)
(7.7995e-07 -8.55682e-07 0.0274016)
(4.13353e-07 -4.81476e-07 0.0170305)
(1.81291e-07 -2.55004e-07 0.00896463)
(4.32695e-08 -4.77564e-08 0.00272022)
(3.48211e-07 -1.28979e-06 0.0418604)
(1.50545e-07 -9.79669e-07 0.0284619)
(-3.8102e-08 -6.14689e-07 0.0178195)
(-1.02114e-07 -3.09734e-07 0.00944474)
(-4.4039e-08 -1.08337e-07 0.00288751)
(-1.16108e-06 9.17218e-07 0.0419688)
(-6.34321e-07 3.83775e-07 0.028522)
(-2.99891e-07 3.64724e-08 0.0178529)
(-1.27608e-07 -9.63921e-08 0.00946136)
(-2.68417e-08 -3.15124e-08 0.0028924)
(-1.40352e-06 -1.20864e-07 0.0407646)
(-6.6509e-07 5.64469e-08 0.0275007)
(-3.45641e-07 1.51824e-07 0.0170935)
(-2.3243e-07 1.06797e-07 0.00899924)
(-4.66319e-08 8.0678e-08 0.00273149)
(2.02353e-06 -1.45778e-06 0.0406713)
(1.3925e-06 -1.51777e-06 0.0274505)
(9.51824e-07 -1.25385e-06 0.0170657)
(6.26888e-07 -7.99359e-07 0.00898551)
(1.54555e-07 -2.63182e-07 0.00272741)
(-4.25241e-06 -2.27891e-07 0.0407029)
(-2.53536e-06 3.8998e-07 0.0274625)
(-1.4225e-06 4.99553e-07 0.0170709)
(-7.10371e-07 3.46563e-07 0.00898769)
(-2.28176e-07 1.26907e-07 0.00272813)
(5.30268e-06 -5.44462e-07 0.0406515)
(3.79806e-06 -1.16243e-06 0.0274376)
(2.53525e-06 -1.19429e-06 0.0170582)
(1.42341e-06 -8.88912e-07 0.00898171)
(4.65769e-07 -2.67763e-07 0.00272633)
(3.07973e-07 -4.67283e-07 0.0417082)
(2.89687e-07 -3.18745e-07 0.0283108)
(2.53407e-07 -2.50397e-07 0.0176997)
(1.86672e-07 -1.90614e-07 0.00936926)
(1.3595e-08 -3.45299e-08 0.00286059)
(-4.52858e-06 3.15659e-06 0.0416911)
(-2.909e-06 2.25361e-06 0.0283001)
(-1.82055e-06 1.47458e-06 0.0176934)
(-1.03431e-06 7.53606e-07 0.0093659)
(-3.37386e-07 3.09181e-07 0.00285961)
(2.27085e-07 -8.05207e-07 0.0416152)
(5.51001e-07 -9.03472e-07 0.0282602)
(5.55162e-07 -7.48487e-07 0.0176718)
(4.22786e-07 -4.92604e-07 0.00935544)
(1.04111e-07 -1.20644e-07 0.00285646)
(4.82706e-06 -3.6484e-06 0.0416131)
(3.59312e-06 -2.83077e-06 0.0282581)
(2.56535e-06 -2.06746e-06 0.0176703)
(1.5944e-06 -1.26925e-06 0.00935456)
(4.70624e-07 -3.98687e-07 0.00285617)
(-4.56981e-06 1.20296e-06 0.0418313)
(-3.38545e-06 1.37118e-06 0.0284406)
(-2.41253e-06 1.09682e-06 0.017806)
(-1.45838e-06 6.90774e-07 0.00943805)
(-4.91812e-07 2.34669e-07 0.00288576)
(6.05296e-07 1.30836e-06 0.0418367)
(2.97966e-07 9.20243e-07 0.0284459)
(4.58185e-08 5.42227e-07 0.0178094)
(-4.14661e-08 2.80914e-07 0.00943918)
(-3.53582e-08 5.55135e-08 0.00288581)
(-9.89767e-07 -7.11299e-07 0.0419426)
(-3.7561e-07 -6.236e-07 0.0285042)
(-5.71375e-08 -4.10489e-07 0.0178418)
(3.95724e-08 -2.11826e-07 0.00945529)
(4.02606e-08 -7.83078e-08 0.0028905)
(3.62232e-06 -2.81608e-06 0.04053)
(2.89224e-06 -8.91177e-07 0.0273578)
(2.08664e-06 -9.91653e-08 0.0170066)
(1.2825e-06 1.04191e-07 0.00895274)
(3.94586e-07 1.06884e-07 0.00271673)
(-2.31029e-06 -2.47728e-07 0.0407682)
(-1.37954e-06 -4.63012e-07 0.0275045)
(-7.95672e-07 -4.22924e-07 0.0170966)
(-4.24186e-07 -2.17916e-07 0.0090012)
(-1.35232e-07 -1.65145e-07 0.00273203)
(4.22747e-06 -3.97002e-07 0.0406874)
(2.46767e-06 5.96714e-07 0.0274597)
(1.39231e-06 8.66798e-07 0.0170712)
(7.98897e-07 6.06369e-07 0.00898835)
(2.08356e-07 3.05242e-07 0.00272824)
(-1.36847e-06 -6.42156e-07 0.0417179)
(-1.05149e-06 -7.88841e-07 0.0283181)
(-6.87449e-07 -6.11192e-07 0.0177047)
(-3.74985e-07 -3.67858e-07 0.00937199)
(-1.02282e-07 -9.17153e-08 0.00286132)
(5.60598e-07 -1.14999e-06 0.0416349)
(4.04681e-07 -3.59432e-07 0.0282724)
(1.54255e-07 -1.70523e-07 0.0176791)
(1.80485e-08 -1.24734e-07 0.00935906)
(-1.52024e-08 -2.00558e-08 0.00285751)
(-1.61449e-07 1.12276e-06 0.0418479)
(-7.4496e-08 9.51404e-07 0.0284548)
(8.3763e-08 7.12117e-07 0.0178156)
(1.08893e-07 4.48596e-07 0.00944297)
(7.58554e-08 1.50594e-07 0.00288721)
(-1.65078e-06 4.38327e-06 0.0408219)
(-6.63976e-07 3.24903e-06 0.0276285)
(-1.51932e-07 2.23024e-06 0.0172225)
(4.78628e-08 1.30315e-06 0.00909101)
(3.02194e-08 4.06153e-07 0.00276701)
(-2.74553e-06 1.85478e-06 0.0410684)
(-1.35719e-06 1.31815e-06 0.0278381)
(-5.47887e-07 8.77138e-07 0.0173838)
(-1.53024e-07 5.10113e-07 0.00919291)
(-1.99385e-08 1.38982e-07 0.00280396)
(-1.37772e-07 -2.449e-06 0.0418642)
(-2.35879e-07 -1.93586e-06 0.0284661)
(-2.5378e-07 -1.39542e-06 0.0178226)
(-2.10899e-07 -8.36001e-07 0.00944626)
(-7.65646e-08 -3.058e-07 0.00288776)
(-1.5786e-06 -1.67008e-06 0.0405359)
(-6.17089e-07 -8.67329e-07 0.0273645)
(-2.97885e-07 -4.19e-07 0.0170115)
(-1.44864e-07 -1.67632e-07 0.00895539)
(-1.13011e-08 -5.29735e-08 0.00271741)
(1.50653e-06 2.53632e-06 0.0406409)
(8.54586e-07 1.56269e-06 0.0274205)
(5.08324e-07 9.09569e-07 0.017042)
(2.35513e-07 4.58028e-07 0.00897039)
(6.7963e-08 1.42008e-07 0.00272183)
(1.93508e-06 1.6013e-06 0.0405278)
(8.15548e-07 8.43911e-07 0.02736)
(4.04977e-07 3.62489e-07 0.0170092)
(2.39796e-07 6.52518e-08 0.00895459)
(7.53446e-09 5.6579e-08 0.00271744)
(1.4966e-06 -3.51075e-06 0.0418512)
(1.11335e-06 -2.57507e-06 0.0284576)
(7.80533e-07 -1.76949e-06 0.0178175)
(5.56971e-07 -1.00434e-06 0.00944384)
(9.90191e-08 -3.67538e-07 0.00288731)
(1.61564e-06 -1.2226e-06 0.0405134)
(6.31398e-07 -5.57935e-07 0.0273502)
(2.78009e-07 -2.17769e-07 0.0170034)
(8.56506e-08 -8.14375e-08 0.00895183)
(2.81952e-09 -4.72036e-09 0.00271671)
(5.07118e-06 -2.03456e-07 0.0407534)
(3.31019e-06 4.15183e-07 0.0274944)
(2.03645e-06 6.21957e-07 0.0170902)
(1.03554e-06 5.30784e-07 0.00899822)
(3.74764e-07 1.98276e-07 0.00273132)
(-3.90659e-06 1.32467e-06 0.0407167)
(-2.36616e-06 2.64985e-07 0.0274784)
(-1.32832e-06 -1.99715e-07 0.0170822)
(-6.54145e-07 -2.80426e-07 0.00899423)
(-1.87862e-07 -7.86813e-08 0.00273028)
(5.95178e-06 4.89122e-06 0.0417323)
(4.13741e-06 3.39496e-06 0.0283269)
(2.75372e-06 2.20758e-06 0.0177096)
(1.5741e-06 1.21981e-06 0.00937465)
(5.17365e-07 4.18659e-07 0.00286227)
(-4.57962e-06 -3.48523e-07 0.0418555)
(-3.19374e-06 -7.87459e-07 0.0284571)
(-2.12177e-06 -7.26682e-07 0.0178161)
(-1.23636e-06 -4.51222e-07 0.00944294)
(-3.73581e-07 -1.71689e-07 0.00288706)
(-2.49626e-06 3.99232e-06 0.0418489)
(-1.97871e-06 1.77377e-06 0.0284522)
(-1.42926e-06 6.191e-07 0.017813)
(-9.26357e-07 1.76654e-07 0.00944118)
(-1.8622e-07 -8.81078e-09 0.0028864)
(-5.14442e-06 2.38034e-06 0.0405151)
(-4.13741e-06 3.88267e-07 0.0273488)
(-2.99385e-06 -3.13972e-07 0.0170014)
(-1.83036e-06 -3.95651e-07 0.00895022)
(-5.59468e-07 -1.73057e-07 0.00271605)
(5.44545e-07 5.21496e-06 0.0418489)
(2.99683e-07 2.78694e-06 0.0284534)
(7.9134e-08 1.32871e-06 0.0178141)
(-1.72824e-08 5.70218e-07 0.00944172)
(-2.03236e-08 9.19732e-08 0.00288657)
(4.45165e-06 3.5648e-06 0.0405052)
(3.61449e-06 1.14853e-06 0.027343)
(2.56182e-06 9.98293e-08 0.0169983)
(1.47074e-06 -2.62821e-07 0.0089486)
(5.26772e-07 -1.26481e-07 0.00271556)
(-4.49603e-07 -1.31828e-06 0.0418316)
(-1.44611e-07 -9.88315e-07 0.0284434)
(5.79383e-08 -6.1686e-07 0.0178087)
(1.2584e-07 -3.00348e-07 0.0094393)
(4.4836e-08 -1.16994e-07 0.00288587)
(5.81894e-06 -4.78465e-07 0.0418217)
(4.49509e-06 -1.09697e-06 0.0284354)
(3.17193e-06 -1.07546e-06 0.017803)
(1.85187e-06 -7.57892e-07 0.00943603)
(6.28732e-07 -2.87124e-07 0.00288483)
(1.53206e-06 -4.13565e-06 0.0418664)
(1.02027e-06 -1.98259e-06 0.0284647)
(6.17919e-07 -7.55551e-07 0.0178208)
(3.10119e-07 -1.50214e-07 0.00944508)
(9.81227e-08 -4.08005e-08 0.00288764)
(1.74172e-06 5.11518e-06 0.0418718)
(1.21353e-06 3.84852e-06 0.0284721)
(7.32674e-07 2.6637e-06 0.0178267)
(2.77606e-07 1.56754e-06 0.00944849)
(1.70603e-07 5.24515e-07 0.00288867)
(-1.5237e-06 -3.41262e-06 0.0406721)
(-1.18094e-06 -1.50261e-06 0.0275394)
(-7.90988e-07 -5.55454e-07 0.017171)
(-4.25283e-07 -1.09251e-07 0.00906476)
(-1.3709e-07 -3.19917e-08 0.00275908)
(-1.79822e-06 3.46617e-06 0.0409281)
(-1.49336e-06 1.86071e-06 0.0277504)
(-1.05396e-06 9.695e-07 0.0173322)
(-6.06727e-07 5.31731e-07 0.00916654)
(-1.91275e-07 9.73943e-08 0.00279594)
(-1.60332e-06 -2.93923e-06 0.0409186)
(-1.34229e-06 -1.29642e-06 0.0277491)
(-9.81945e-07 -5.32476e-07 0.0173324)
(-6.02661e-07 -2.22053e-07 0.00916671)
(-1.65635e-07 -4.4353e-08 0.00279601)
(-2.02876e-06 3.33452e-06 0.0406782)
(-1.74357e-06 1.7701e-06 0.027538)
(-1.28203e-06 8.23485e-07 0.0171691)
(-7.80306e-07 2.54497e-07 0.00906366)
(-2.46547e-07 9.73405e-08 0.00275866)
(-6.63952e-07 4.55138e-06 0.0418375)
(-7.30617e-07 2.47466e-06 0.0284397)
(-6.34763e-07 1.20566e-06 0.0178045)
(-4.07908e-07 5.00013e-07 0.00943679)
(-1.64622e-07 1.28029e-07 0.00288509)
(-5.18296e-06 -3.42537e-07 0.0407437)
(-3.47382e-06 -9.37877e-07 0.0274885)
(-2.24417e-06 -1.01e-06 0.0170869)
(-1.29356e-06 -7.26431e-07 0.00899653)
(-3.95388e-07 -2.13942e-07 0.00273067)
(2.47423e-06 2.36195e-06 0.0406758)
(2.04882e-06 1.83818e-06 0.0274552)
(1.54654e-06 1.22097e-06 0.0170693)
(9.69056e-07 6.31881e-07 0.00898787)
(3.54065e-07 2.4843e-07 0.0027282)
(-5.88163e-06 -4.25469e-06 0.0417144)
(-4.11881e-06 -3.30292e-06 0.0283148)
(-2.75419e-06 -2.29047e-06 0.0177024)
(-1.56955e-06 -1.33105e-06 0.00937111)
(-5.27507e-07 -4.17946e-07 0.00286119)
(2.49193e-06 3.79268e-06 0.0416267)
(1.92483e-06 2.51848e-06 0.028268)
(1.25667e-06 1.49428e-06 0.0176768)
(7.04701e-07 6.74428e-07 0.00935835)
(2.64126e-07 2.53242e-07 0.00285748)
(7.53814e-07 -3.48485e-06 0.0419514)
(7.7147e-07 -2.75749e-06 0.0285113)
(6.35567e-07 -2.00744e-06 0.0178468)
(3.95967e-07 -1.24284e-06 0.00945819)
(1.25431e-07 -4.05793e-07 0.00289149)
(1.21054e-06 3.49574e-06 0.0406749)
(5.23813e-07 2.61967e-06 0.0275451)
(1.2543e-07 1.80074e-06 0.0171754)
(-2.41842e-09 1.05759e-06 0.00906733)
(-2.93133e-08 3.24155e-07 0.00276003)
(-1.81747e-06 -3.40784e-07 0.0410615)