/*--------------------------------*- C++ -*----------------------------------*\
| =========                 |                                                 |
| \\      /  F ield         | OpenFOAM: The Open Source CFD Toolbox           |
|  \\    /   O peration     | Version:  2206                                  |
|   \\  /    A nd           | Website:  www.openfoam.com                      |
|    \\/     M anipulation  |                                                 |
\*---------------------------------------------------------------------------*/
FoamFile
{
    version     2.0;
    format      ascii;
    arch        "LSB;label=32;scalar=64";
    class       volScalarField;
    location    "0.3";
    object      Co;
}
// * * * * * * * * * * * * * * * * * * * * * * * * * * * * * * * * * * * * * //

dimensions      [0 0 0 0 0 0 0];

internalField   nonuniform List<scalar> 
186046
(
0.146102
0.147831
0.146498
0.147533
0.147427
0.146942
0.147585
0.147939
0.146166
0.146378
0.147494
0.148515
0.146931
0.148332
0.147626
0.147468
0.14661
0.148019
0.147427
0.148064
0.147022
0.146985
0.148328
0.147572
0.147562
0.147615
0.148485
0.147427
0.147786
0.147548
0.147461
0.148317
0.147898
0.1473
0.147563
0.14765
0.147718
0.148261
0.147687
0.148091
0.147768
0.146816
0.147529
0.147774
0.147838
0.147506
0.148405
0.147651
0.148006
0.147399
0.147237
0.147191
0.147786
0.147889
0.148875
0.14765
0.146185
0.147597
0.147294
0.146562
0.147326
0.148014
0.147433
0.146792
0.146469
0.14693
0.145975
0.147856
0.14728
0.147594
0.14781
0.147537
0.147618
0.147794
0.146386
0.147998
0.14765
0.146677
0.147075
0.146546
0.147223
0.147239
0.147362
0.147213
0.14813
0.146839
0.146976
0.146797
0.14714
0.147087
0.14741
0.146371
0.146413
0.147807
0.146363
0.14759
0.146043
0.146691
0.146333
0.148181
0.146327
0.146139
0.147584
0.147017
0.146411
0.146185
0.147937
0.147389
0.147458
0.147463
0.147871
0.147786
0.147407
0.148161
0.147004
0.147696
0.147149
0.147643
0.147643
0.147355
0.146759
0.146389
0.1459
0.146179
0.14667
0.146488
0.146916
0.146501
0.148313
0.148042
0.147795
0.147671
0.147945
0.148409
0.147441
0.145814
0.145791
0.147706
0.148299
0.147945
0.147349
0.14782
0.146441
0.14745
0.147463
0.14825
0.14794
0.147674
0.147665
0.147595
0.146543
0.147712
0.146935
0.145899
0.146487
0.147318
0.146336
0.146054
0.148127
0.147427
0.147822
0.147711
0.147706
0.147672
0.147875
0.14577
0.146996
0.145938
0.147115
0.146115
0.146284
0.14595
0.146803
0.146071
0.147904
0.147713
0.146382
0.145963
0.146737
0.147394
0.146059
0.146463
0.148335
0.146552
0.147524
0.146332
0.146216
0.145921
0.146393
0.147094
0.147525
0.147318
0.14793
0.145951
0.146348
0.147358
0.145872
0.148335
0.147427
0.147459
0.145797
0.147735
0.147218
0.147425
0.147342
0.147134
0.147918
0.147673
0.146961
0.147468
0.14682
0.147231
0.147361
0.147998
0.148131
0.14822
0.147567
0.147632
0.147581
0.147482
0.147694
0.147699
0.147945
0.148203
0.147781
0.147893
0.146248
0.14758
0.1474
0.147807
0.148048
0.147544
0.14741
0.147551
0.147553
0.147623
0.147532
0.147213
0.147011
0.147385
0.147582
0.147405
0.147372
0.147252
0.147548
0.147386
0.147689
0.147686
0.147239
0.147385
0.147814
0.147801
0.147442
0.147602
0.14735
0.147781
0.14773
0.147254
0.14762
0.147254
0.147592
0.147472
0.147506
0.147493
0.147349
0.147553
0.147394
0.14757
0.147454
0.147592
0.147291
0.147586
0.147586
0.147174
0.148003
0.14794
0.147358
0.147528
0.146159
0.147202
0.14676
0.146442
0.146895
0.146288
0.146191
0.147149
0.147945
0.147603
0.148127
0.147206
0.14794
0.147697
0.147499
0.147259
0.147389
0.147859
0.146169
0.147539
0.147796
0.147689
0.147942
0.147867
0.147867
0.147441
0.14759
0.147939
0.147845
0.147164
0.14783
0.146153
0.147755
0.147658
0.147441
0.148131
0.148268
0.147384
0.146168
0.147346
0.147538
0.147453
0.147393
0.147729
0.147308
0.147493
0.147714
0.148044
0.147601
0.147816
0.147688
0.147327
0.147685
0.147676
0.147797
0.147437
0.146957
0.147305
0.147843
0.147332
0.147746
0.148501
0.147252
0.147812
0.147463
0.147361
0.146138
0.147264
0.147348
0.147403
0.148401
0.147583
0.147394
0.147586
0.147768
0.14697
0.147182
0.146383
0.147821
0.147981
0.147333
0.147775
0.147634
0.148154
0.1462
0.14631
0.148363
0.147565
0.147714
0.14794
0.147488
0.14757
0.147952
0.147138
0.146715
0.146503
0.146264
0.148288
0.147998
0.147403
0.147266
0.146082
0.147551
0.147848
0.147603
0.147351
0.146314
0.146575
0.146297
0.146995
0.147386
0.147472
0.146186
0.147336
0.147481
0.148106
0.147383
0.147738
0.147623
0.147463
0.147512
0.147741
0.147442
0.147883
0.147483
0.146346
0.147346
0.147454
0.14778
0.147308
0.147809
0.147576
0.147491
0.147809
0.147311
0.148043
0.147032
0.147535
0.147538
0.14711
0.146582
0.147795
0.147296
0.146605
0.147575
0.147615
0.147714
0.147165
0.14735
0.147246
0.147405
0.147909
0.146213
0.145947
0.147945
0.147877
0.147788
0.147725
0.147222
0.147371
0.147636
0.147311
0.147729
0.147512
0.147863
0.145705
0.147474
0.147676
0.147693
0.147633
0.147633
0.148124
0.147526
0.14794
0.147382
0.148057
0.147886
0.147766
0.147713
0.147593
0.14837
0.148468
0.147631
0.147805
0.146165
0.148048
0.147333
0.147461
0.147296
0.147945
0.147729
0.147089
0.147808
0.147693
0.148255
0.148028
0.147624
0.147981
0.147591
0.147591
0.147998
0.147761
0.147761
0.147736
0.148003
0.147255
0.14735
0.148212
0.147822
0.147383
0.148237
0.147896
0.147488
0.147109
0.147345
0.1475
0.147313
0.147348
0.147593
0.146539
0.147301
0.147638
0.147693
0.147485
0.147281
0.147278
0.147293
0.147335
0.14809
0.147676
0.147392
0.147249
0.147992
0.147616
0.147405
0.148069
0.147884
0.147846
0.147403
0.147672
0.147661
0.147475
0.147859
0.147495
0.147886
0.148647
0.148152
0.148259
0.14799
0.147568
0.147451
0.147452
0.147768
0.147916
0.147815
0.147736
0.147594
0.147362
0.147564
0.147939
0.148014
0.148307
0.14796
0.148253
0.148305
0.147967
0.147973
0.148071
0.148128
0.147891
0.147892
0.148833
0.148441
0.148616
0.148211
0.148105
0.148026
0.148533
0.147983
0.147983
0.147999
0.147975
0.148099
0.148142
0.147721
0.14765
0.147978
0.148103
0.148176
0.147673
0.147994
0.147764
0.147619
0.147375
0.147456
0.147456
0.147932
0.147609
0.147879
0.147748
0.148173
0.148149
0.147847
0.147239
0.147585
0.147252
0.147718
0.147453
0.147415
0.147483
0.14762
0.147464
0.147578
0.147399
0.147483
0.147484
0.14735
0.148068
0.1478
0.1478
0.147888
0.147264
0.147291
0.147205
0.147137
0.147399
0.147434
0.147574
0.147839
0.14724
0.147479
0.14767
0.147594
0.148213
0.147698
0.147855
0.147624
0.147548
0.147809
0.147648
0.147683
0.14816
0.148015
0.147862
0.147798
0.147678
0.147843
0.148274
0.148087
0.147754
0.147953
0.147582
0.147951
0.147535
0.147784
0.1475
0.147849
0.147523
0.147526
0.147509
0.147696
0.147994
0.147789
0.147432
0.147705
0.147581
0.147974
0.148014
0.148556
0.148478
0.148293
0.147923
0.148382
0.148236
0.148036
0.147766
0.147887
0.148092
0.148009
0.147737
0.147733
0.147733
0.1477
0.148134
0.147846
0.147779
0.148354
0.147789
0.147512
0.147895
0.147617
0.147617
0.147602
0.147706
0.147615
0.14783
0.147571
0.147571
0.147769
0.148136
0.147876
0.147877
0.147777
0.148266
0.147997
0.147997
0.148145
0.148145
0.148395
0.148395
0.148031
0.147912
0.147865
0.14828
0.148
0.148204
0.147963
0.147963
0.148039
0.147959
0.147922
0.147829
0.148039
0.147809
0.147423
0.147385
0.147637
0.147974
0.147864
0.147706
0.147362
0.147617
0.147808
0.147808
0.147776
0.147858
0.147743
0.147743
0.147461
0.14733
0.147208
0.14734
0.147498
0.147498
0.147395
0.147737
0.147442
0.147462
0.147612
0.147412
0.147443
0.147443
0.147295
0.147083
0.14775
0.14785
0.147775
0.147308
0.147415
0.147287
0.14736
0.147008
0.147341
0.147504
0.147361
0.147437
0.147536
0.147536
0.147595
0.147745
0.147633
0.147809
0.147624
0.147505
0.147372
0.147372
0.147433
0.147852
0.147986
0.14785
0.14785
0.147472
0.148078
0.147969
0.147815
0.147652
0.147498
0.147892
0.147487
0.147487
0.147294
0.147305
0.147512
0.147547
0.147549
0.147296
0.147553
0.147573
0.147926
0.147844
0.147882
0.148098
0.14842
0.147869
0.147944
0.147875
0.147938
0.147841
0.147649
0.147689
0.147795
0.147724
0.147561
0.147994
0.147785
0.147474
0.147671
0.147669
0.147798
0.147865
0.147573
0.147863
0.147728
0.147728
0.147594
0.147581
0.147606
0.147606
0.14754
0.147667
0.147737
0.148271
0.147934
0.14773
0.147695
0.147695
0.148046
0.147833
0.147888
0.147981
0.147932
0.148479
0.148351
0.148352
0.148522
0.148242
0.148206
0.147732
0.147822
0.147847
0.147751
0.148194
0.148084
0.147863
0.148049
0.148049
0.148137
0.148186
0.148055
0.147579
0.147345
0.147625
0.147675
0.147675
0.147759
0.147397
0.147273
0.148256
0.147946
0.147907
0.147868
0.147868
0.147839
0.147733
0.147789
0.147305
0.147256
0.147267
0.147581
0.147343
0.147448
0.147643
0.14751
0.14738
0.147289
0.147209
0.1474
0.1474
0.147639
0.14752
0.14766
0.147818
0.147573
0.147367
0.147389
0.147606
0.147306
0.147308
0.147472
0.147472
0.147729
0.147357
0.147568
0.147636
0.147836
0.147837
0.147722
0.147795
0.147455
0.147187
0.14748
0.147833
0.147698
0.147893
0.147708
0.14799
0.148021
0.147697
0.148098
0.147798
0.147659
0.147803
0.147828
0.147395
0.147471
0.147471
0.1476
0.147254
0.147469
0.147469
0.147559
0.147594
0.147611
0.147844
0.147697
0.147932
0.14747
0.148089
0.147935
0.147766
0.147937
0.148107
0.14786
0.147599
0.147658
0.147939
0.14767
0.14766
0.147606
0.147642
0.147405
0.14744
0.147483
0.147484
0.147829
0.14789
0.147985
0.14775
0.147703
0.147578
0.147507
0.147506
0.147536
0.147744
0.147563
0.147881
0.147937
0.147725
0.147899
0.147915
0.148065
0.147964
0.148016
0.148267
0.148333
0.147966
0.147874
0.148382
0.14867
0.148631
0.148289
0.148189
0.14806
0.147717
0.14786
0.14786
0.148018
0.14808
0.147753
0.148408
0.148108
0.148286
0.148058
0.147973
0.147954
0.147623
0.147778
0.147524
0.147693
0.148142
0.147479
0.147479
0.147573
0.147635
0.147513
0.147999
0.147875
0.147875
0.147693
0.147693
0.14772
0.147328
0.147223
0.147462
0.147785
0.147233
0.147481
0.147482
0.147387
0.147404
0.147403
0.147668
0.147894
0.147887
0.147475
0.147668
0.147626
0.147838
0.147467
0.147201
0.147399
0.147551
0.147362
0.147354
0.147641
0.147548
0.147539
0.147734
0.147643
0.14758
0.147596
0.147509
0.147416
0.147397
0.147194
0.147194
0.147361
0.147588
0.147695
0.147705
0.14781
0.147708
0.147643
0.148485
0.148485
0.14769
0.147583
0.147952
0.14774
0.147233
0.147162
0.147323
0.147307
0.147307
0.147562
0.14765
0.14757
0.14757
0.147677
0.147956
0.147632
0.147587
0.147883
0.147649
0.147501
0.147615
0.147861
0.148117
0.14777
0.147717
0.147667
0.147667
0.147621
0.14755
0.147565
0.147609
0.147439
0.147439
0.147442
0.147868
0.147725
0.147725
0.147655
0.147716
0.147774
0.147489
0.147429
0.147429
0.147741
0.147581
0.147404
0.147727
0.147601
0.147712
0.14782
0.148243
0.14811
0.147517
0.147915
0.147756
0.14791
0.148
0.147955
0.148038
0.148164
0.148073
0.148413
0.148293
0.148262
0.147492
0.147757
0.148296
0.148187
0.148187
0.147861
0.148031
0.148263
0.147877
0.147804
0.147769
0.147589
0.147589
0.147526
0.147792
0.147635
0.147381
0.147439
0.148023
0.147722
0.147722
0.147588
0.147445
0.147872
0.147819
0.147649
0.14768
0.1475
0.1475
0.147314
0.147326
0.147421
0.147537
0.147478
0.147694
0.147554
0.147559
0.147431
0.147721
0.147335
0.147262
0.147408
0.148045
0.148055
0.147621
0.147428
0.147284
0.147771
0.147513
0.147475
0.147327
0.14716
0.147334
0.147435
0.147435
0.147492
0.147492
0.14744
0.147674
0.147413
0.147436
0.147225
0.147225
0.147397
0.147397
0.147706
0.147809
0.147952
0.147608
0.147681
0.148138
0.148061
0.147689
0.147567
0.147567
0.147431
0.147338
0.147283
0.147366
0.147351
0.147358
0.147599
0.147683
0.14759
0.1476
0.147814
0.147859
0.147459
0.148001
0.147566
0.147566
0.147802
0.14765
0.147664
0.147664
0.147791
0.147654
0.147893
0.147791
0.147618
0.147568
0.147893
0.147517
0.147891
0.147392
0.147446
0.147406
0.147533
0.147956
0.14777
0.14777
0.147595
0.147595
0.147706
0.147417
0.147719
0.147719
0.147745
0.147817
0.147723
0.147773
0.147762
0.147762
0.148197
0.147815
0.147638
0.147563
0.147862
0.147889
0.147894
0.147872
0.147886
0.14845
0.148242
0.148242
0.147781
0.147724
0.14756
0.147988
0.148266
0.148266
0.147798
0.148106
0.148118
0.148153
0.14803
0.147813
0.147679
0.147542
0.147375
0.147376
0.147831
0.147741
0.147502
0.147972
0.147962
0.147902
0.147642
0.147823
0.147928
0.147928
0.147794
0.147741
0.147512
0.147491
0.147373
0.147373
0.147431
0.14743
0.147763
0.147759
0.147592
0.14753
0.147639
0.147303
0.147526
0.14736
0.147505
0.147979
0.147796
0.147726
0.147682
0.147428
0.147333
0.147405
0.147181
0.146991
0.147306
0.147306
0.147345
0.147476
0.147426
0.147426
0.147412
0.147412
0.147639
0.147243
0.147384
0.147227
0.14728
0.147551
0.147709
0.147709
0.147859
0.147651
0.147832
0.148022
0.147849
0.147469
0.147431
0.147556
0.147366
0.147366
0.147327
0.147326
0.147401
0.147568
0.147813
0.147766
0.147689
0.147985
0.147978
0.147904
0.147867
0.147535
0.147462
0.148033
0.147813
0.147644
0.147725
0.147699
0.147497
0.147618
0.147922
0.147922
0.147609
0.147609
0.147551
0.147551
0.147498
0.147533
0.147487
0.147394
0.147458
0.147531
0.147839
0.14784
0.147751
0.147751
0.147595
0.148098
0.147976
0.147703
0.147772
0.148087
0.147604
0.147862
0.148014
0.147583
0.147503
0.14762
0.147777
0.147777
0.14775
0.147609
0.147982
0.148252
0.148351
0.148011
0.147872
0.148315
0.14816
0.148203
0.148043
0.14803
0.147582
0.148211
0.148346
0.148144
0.148136
0.147723
0.148044
0.148113
0.148356
0.147658
0.147879
0.147479
0.147308
0.147871
0.147676
0.147656
0.14762
0.147829
0.147613
0.147764
0.14796
0.147752
0.148364
0.147956
0.147773
0.147773
0.147577
0.147496
0.147617
0.147361
0.147449
0.147528
0.147521
0.147604
0.147613
0.147833
0.147453
0.147284
0.147566
0.147288
0.147573
0.147725
0.14749
0.147277
0.147142
0.147191
0.147218
0.14739
0.147134
0.147126
0.147243
0.147243
0.147407
0.147407
0.147386
0.147551
0.147503
0.147503
0.147419
0.147419
0.147345
0.147361
0.147542
0.147459
0.147753
0.147804
0.147779
0.148128
0.147925
0.147925
0.147617
0.147617
0.147632
0.147433
0.147319
0.147385
0.147431
0.147554
0.147453
0.147754
0.147754
0.147581
0.147506
0.147632
0.147918
0.147767
0.147642
0.147642
0.147532
0.147445
0.147552
0.147578
0.147913
0.1477
0.147542
0.147728
0.147975
0.147976
0.148258
0.147773
0.147633
0.147791
0.14769
0.14769
0.147637
0.147732
0.147777
0.147567
0.147945
0.14815
0.147866
0.147866
0.147806
0.148206
0.147551
0.148239
0.148047
0.147824
0.148002
0.147805
0.14777
0.148289
0.148141
0.147634
0.147486
0.147829
0.147909
0.148126
0.147941
0.148022
0.147999
0.147999
0.148282
0.148102
0.148668
0.147904
0.147923
0.148179
0.148162
0.148162
0.147754
0.147803
0.147786
0.147853
0.147896
0.147715
0.148249
0.148249
0.147737
0.147656
0.14786
0.147632
0.14772
0.147327
0.147466
0.147884
0.147645
0.147645
0.147521
0.147521
0.147748
0.148241
0.14801
0.147847
0.14815
0.14766
0.14749
0.147497
0.147432
0.147432
0.147518
0.147418
0.147521
0.147395
0.147522
0.147726
0.147867
0.14744
0.147385
0.147295
0.147614
0.147507
0.147561
0.147287
0.147124
0.147124
0.147319
0.147319
0.14723
0.146816
0.147082
0.147403
0.14751
0.14751
0.147726
0.147362
0.147481
0.147363
0.14746
0.14746
0.147328
0.147328
0.147434
0.14754
0.147682
0.147678
0.147645
0.147862
0.147942
0.14792
0.148011
0.147593
0.147492
0.147492
0.147238
0.147257
0.147382
0.14731
0.147445
0.147401
0.147443
0.147443
0.147544
0.147694
0.147725
0.147701
0.147629
0.147479
0.147643
0.147643
0.147545
0.147528
0.147736
0.147736
0.148047
0.147467
0.147695
0.148077
0.147959
0.148081
0.14776
0.147428
0.147544
0.147522
0.147816
0.14791
0.147625
0.14749
0.147896
0.148058
0.147833
0.147926
0.148059
0.147754
0.147783
0.147717
0.147776
0.14804
0.147643
0.147889
0.147697
0.147477
0.147911
0.147762
0.147607
0.147496
0.147846
0.147846
0.147923
0.147949
0.147986
0.147902
0.148069
0.148596
0.148179
0.148146
0.147983
0.147983
0.14802
0.14814
0.148396
0.147657
0.148004
0.148201
0.147738
0.148262
0.148282
0.148233
0.147972
0.147925
0.147509
0.147509
0.14767
0.147558
0.147598
0.147683
0.147892
0.147858
0.147521
0.147559
0.147792
0.147795
0.148152
0.148165
0.147801
0.147373
0.147435
0.147395
0.147361
0.147454
0.147573
0.147599
0.147576
0.147597
0.147448
0.147571
0.147454
0.147534
0.147403
0.14721
0.14741
0.14732
0.147392
0.147392
0.147335
0.147112
0.14715
0.14715
0.146927
0.146926
0.147126
0.147186
0.147419
0.147422
0.147452
0.147452
0.14782
0.147424
0.14742
0.14755
0.147502
0.147706
0.1476
0.147781
0.147925
0.147449
0.147783
0.147715
0.147772
0.147771
0.147948
0.147664
0.147802
0.147497
0.147218
0.147137
0.147335
0.147313
0.1474
0.147596
0.147493
0.147453
0.147475
0.147475
0.147615
0.147637
0.148018
0.147323
0.147558
0.147558
0.147754
0.147518
0.147731
0.147825
0.14762
0.14762
0.147714
0.148107
0.147903
0.147899
0.148115
0.147614
0.147321
0.147759
0.147723
0.147737
0.147681
0.147611
0.148233
0.147855
0.147974
0.148049
0.147744
0.147871
0.147642
0.147802
0.147866
0.14741
0.147334
0.147465
0.147633
0.147633
0.147862
0.147808
0.147841
0.147702
0.147775
0.147697
0.14801
0.148173
0.147824
0.147707
0.147987
0.148327
0.148117
0.14848
0.148205
0.148205
0.148209
0.148479
0.148195
0.148158
0.148158
0.147702
0.147848
0.14773
0.148654
0.148064
0.147869
0.147869
0.147793
0.148178
0.147624
0.147686
0.147769
0.147769
0.147508
0.147701
0.147729
0.147777
0.148006
0.148191
0.147889
0.147895
0.147806
0.147376
0.147354
0.147454
0.147539
0.147537
0.147613
0.14767
0.147605
0.147588
0.147315
0.147509
0.147458
0.147458
0.14719
0.14719
0.147292
0.147438
0.147443
0.147443
0.147247
0.147247
0.147355
0.147294
0.147052
0.147404
0.147358
0.147359
0.14752
0.147719
0.147657
0.147566
0.147676
0.147676
0.14791
0.147686
0.147539
0.147703
0.14812
0.147949
0.147638
0.147872
0.147869
0.147354
0.147494
0.147579
0.147738
0.147738
0.147913
0.147522
0.147928
0.147029
0.14732
0.147319
0.14743
0.14743
0.147576
0.147539
0.147878
0.147489
0.147477
0.147477
0.147448
0.147448
0.14753
0.147836
0.147669
0.147744
0.147815
0.147815
0.147553
0.147514
0.147839
0.147842
0.147735
0.148072
0.147682
0.147682
0.147787
0.147313
0.147639
0.147639
0.14797
0.147721
0.147534
0.147591
0.147878
0.14787
0.147743
0.147571
0.147571
0.147707
0.147647
0.147658
0.1475
0.147667
0.147607
0.147607
0.147932
0.147759
0.147608
0.147598
0.147695
0.148044
0.14807
0.14807
0.147999
0.148107
0.148209
0.148154
0.147987
0.148606
0.148384
0.148138
0.14813
0.148155
0.147777
0.148139
0.147668
0.147668
0.14801
0.148354
0.148325
0.147937
0.147937
0.147937
0.147655
0.147655
0.147524
0.148423
0.147945
0.147917
0.147677
0.147584
0.147684
0.147957
0.147555
0.147707
0.14774
0.147699
0.147826
0.147532
0.147287
0.147489
0.147598
0.147598
0.147729
0.147724
0.147629
0.14749
0.147441
0.1474
0.147454
0.147454
0.147581
0.147234
0.147398
0.147622
0.147472
0.147579
0.147449
0.147274
0.14731
0.14731
0.147446
0.147101
0.147457
0.147414
0.147655
0.147785
0.147547
0.147525
0.147876
0.14756
0.147738
0.147876
0.147907
0.148049
0.147584
0.14734
0.147723
0.147653
0.147702
0.147499
0.147794
0.147654
0.147565
0.147565
0.147513
0.147513
0.147447
0.147304
0.147474
0.147488
0.14753
0.14753
0.14757
0.14757
0.147613
0.147613
0.148005
0.147699
0.147478
0.147478
0.147596
0.14762
0.147644
0.147644
0.147873
0.147873
0.14763
0.148079
0.148165
0.147858
0.147911
0.147958
0.147836
0.147532
0.147503
0.147503
0.147547
0.147547
0.147863
0.147526
0.147797
0.147543
0.147789
0.147876
0.147638
0.147758
0.147366
0.147479
0.147677
0.147677
0.147772
0.147469
0.147546
0.148285
0.148125
0.147847
0.147673
0.147615
0.147865
0.147707
0.14815
0.148007
0.148247
0.147843
0.148202
0.148037
0.148026
0.148212
0.148102
0.148006
0.148331
0.148258
0.147925
0.147753
0.147743
0.147729
0.147851
0.147895
0.148026
0.14805
0.147946
0.148104
0.147668
0.147693
0.147464
0.147636
0.148049
0.147987
0.147907
0.147706
0.147677
0.147611
0.147609
0.14765
0.147498
0.147605
0.147635
0.147653
0.147461
0.147584
0.147752
0.147924
0.147873
0.147998
0.148137
0.147457
0.14735
0.147327
0.147581
0.147362
0.147384
0.147487
0.147465
0.147125
0.147313
0.147391
0.147486
0.147349
0.14725
0.14725
0.147224
0.147574
0.147408
0.147218
0.147532
0.147446
0.147992
0.147803
0.147558
0.147848
0.148281
0.147874
0.147979
0.147528
0.147543
0.1478
0.147478
0.147556
0.147745
0.147328
0.147588
0.147588
0.147677
0.147771
0.147479
0.147692
0.147354
0.147416
0.147571
0.14785
0.147726
0.147726
0.147757
0.147666
0.147505
0.147505
0.147544
0.147544
0.147414
0.14754
0.147694
0.147758
0.14763
0.148231
0.148223
0.148039
0.147786
0.148079
0.148455
0.147869
0.147991
0.148188
0.147895
0.147792
0.147495
0.147495
0.147613
0.147613
0.147554
0.147627
0.147649
0.147735
0.147803
0.147846
0.147914
0.14765
0.147376
0.147281
0.147713
0.148028
0.147504
0.147504
0.147645
0.147927
0.148653
0.149296
0.148812
0.14781
0.148196
0.147762
0.147698
0.147648
0.148041
0.147979
0.147843
0.148009
0.147981
0.147963
0.148088
0.148173
0.147738
0.147939
0.148297
0.148372
0.148142
0.147881
0.147822
0.147632
0.147709
0.147709
0.147744
0.147792
0.147671
0.147671
0.14788
0.147714
0.147628
0.147972
0.147777
0.147808
0.147649
0.147715
0.147616
0.147767
0.147721
0.147659
0.147471
0.14774
0.147745
0.147745
0.147583
0.147791
0.147541
0.147624
0.148075
0.147654
0.147539
0.147474
0.147884
0.147657
0.147435
0.147111
0.147269
0.147269
0.14746
0.147297
0.147311
0.147528
0.147403
0.147399
0.147535
0.147356
0.147304
0.147377
0.147242
0.147399
0.147836
0.147793
0.147759
0.147582
0.147659
0.148153
0.148029
0.148034
0.147889
0.147297
0.147796
0.147438
0.147535
0.147953
0.147624
0.147411
0.147541
0.147496
0.147523
0.147523
0.147588
0.147459
0.147487
0.147808
0.147666
0.148006
0.147981
0.147921
0.14785
0.14785
0.147643
0.147652
0.14781
0.147616
0.147801
0.147802
0.148026
0.147807
0.147957
0.147915
0.148326
0.148015
0.14802
0.148661
0.148106
0.147561
0.147875
0.147716
0.147625
0.147328
0.14738
0.147485
0.147781
0.147545
0.147623
0.14752
0.147776
0.147765
0.147894
0.147798
0.147806
0.147541
0.147473
0.147805
0.147268
0.147463
0.147519
0.147686
0.147752
0.148174
0.148053
0.148821
0.148647
0.147555
0.147486
0.147773
0.147817
0.14798
0.147846
0.147482
0.147894
0.147894
0.147879
0.148462
0.148319
0.148198
0.148369
0.147951
0.148357
0.148249
0.14802
0.147781
0.147622
0.147805
0.147857
0.147839
0.147746
0.147687
0.147626
0.147626
0.147483
0.147483
0.147738
0.147932
0.147793
0.147368
0.147559
0.14753
0.147363
0.147618
0.147704
0.147711
0.147675
0.147515
0.147607
0.147837
0.147584
0.147594
0.147511
0.14793
0.147605
0.147591
0.147449
0.147449
0.147506
0.147506
0.14763
0.147164
0.147272
0.147661
0.147326
0.147239
0.147562
0.147474
0.147186
0.147236
0.147429
0.147429
0.147254
0.147268
0.147364
0.147899
0.147654
0.147431
0.147524
0.147545
0.147625
0.147624
0.147591
0.147853
0.147736
0.147584
0.147697
0.147561
0.147587
0.147587
0.147283
0.147216
0.147362
0.147362
0.147428
0.147428
0.147487
0.147487
0.147434
0.1476
0.147909
0.147911
0.147694
0.147571
0.147763
0.147808
0.147909
0.147821
0.147903
0.147863
0.147551
0.147615
0.148048
0.147876
0.147876
0.148344
0.147801
0.147818
0.147781
0.147674
0.147967
0.147731
0.147624
0.14792
0.147622
0.147622
0.147299
0.147542
0.147553
0.147583
0.147654
0.148092
0.148026
0.148026
0.147971
0.147916
0.147514
0.147959
0.147538
0.147534
0.147569
0.147458
0.147343
0.148059
0.148312
0.147593
0.148173
0.148589
0.148635
0.14753
0.147582
0.147668
0.147644
0.147647
0.147709
0.147758
0.147998
0.147998
0.147949
0.147865
0.148022
0.148022
0.148302
0.148152
0.148
0.148496
0.148199
0.147991
0.147626
0.147626
0.147662
0.147709
0.14795
0.147572
0.147545
0.147527
0.147548
0.147535
0.147657
0.147669
0.147786
0.147569
0.147475
0.147466
0.147439
0.147327
0.147591
0.147724
0.148055
0.147617
0.147618
0.147863
0.147863
0.147674
0.147669
0.147473
0.147581
0.147581
0.14742
0.147397
0.147496
0.147496
0.147259
0.147259
0.147368
0.147455
0.147201
0.147487
0.147553
0.147553
0.147435
0.147282
0.147442
0.147442
0.147652
0.147377
0.14755
0.147479
0.147398
0.147602
0.14728
0.147627
0.147928
0.147605
0.147665
0.147579
0.1474
0.1474
0.147295
0.147633
0.147608
0.147506
0.147466
0.147129
0.147278
0.147355
0.147554
0.147554
0.14747
0.14754
0.147451
0.147524
0.147612
0.147612
0.147636
0.14762
0.147724
0.14794
0.147763
0.147649
0.147631
0.147671
0.147873
0.147999
0.147788
0.147826
0.148378
0.147715
0.147859
0.147965
0.147632
0.147864
0.147634
0.147634
0.14774
0.147556
0.147797
0.147532
0.147208
0.147282
0.147673
0.147938
0.147762
0.147866
0.147962
0.148123
0.148021
0.148062
0.14824
0.147517
0.147392
0.147913
0.147623
0.147643
0.147636
0.148179
0.147529
0.147364
0.148094
0.14859
0.148574
0.147715
0.147799
0.147799
0.14759
0.148428
0.148536
0.1481
0.148328
0.148302
0.148139
0.148139
0.147921
0.148274
0.148337
0.148337
0.148251
0.148314
0.148163
0.148182
0.148016
0.147956
0.148027
0.147951
0.14788
0.147898
0.147789
0.14746
0.147552
0.147552
0.147586
0.148006
0.147655
0.147636
0.147551
0.147562
0.147491
0.147491
0.147686
0.148094
0.147821
0.147728
0.147699
0.147937
0.147717
0.147562
0.147469
0.147614
0.147752
0.147578
0.147482
0.147409
0.147545
0.147427
0.14737
0.147685
0.147894
0.147488
0.147158
0.147311
0.147541
0.147486
0.147309
0.14729
0.14723
0.147249
0.14751
0.147914
0.147428
0.147234
0.147501
0.147279
0.147442
0.1477
0.147643
0.147462
0.147693
0.147601
0.147374
0.147413
0.147272
0.147272
0.147406
0.147406
0.147574
0.147279
0.147245
0.147417
0.147514
0.147514
0.147423
0.147378
0.147479
0.147479
0.147466
0.147769
0.147772
0.147772
0.147716
0.147716
0.147705
0.147628
0.147776
0.147712
0.147738
0.148011
0.148169
0.148177
0.147711
0.14808
0.148085
0.148069
0.147919
0.147572
0.14748
0.147607
0.147716
0.147716
0.147673
0.14768
0.147626
0.147303
0.147633
0.147843
0.148217
0.147616
0.148024
0.147998
0.148052
0.14809
0.147832
0.147832
0.147548
0.14749
0.147543
0.147541
0.147556
0.147556
0.147449
0.147509
0.147794
0.148115
0.148404
0.147882
0.147955
0.147829
0.147693
0.14843
0.148081
0.148064
0.148291
0.148439
0.14863
0.148012
0.147954
0.148193
0.148259
0.14828
0.148305
0.148305
0.148072
0.148135
0.148324
0.148157
0.147915
0.147879
0.148005
0.147758
0.147733
0.147551
0.147726
0.147725
0.147763
0.147601
0.147574
0.147911
0.147628
0.147728
0.147637
0.147474
0.147632
0.147632
0.147699
0.147989
0.147944
0.147691
0.147449
0.147442
0.147478
0.147463
0.147604
0.14736
0.147256
0.147256
0.147448
0.147448
0.147812
0.147763
0.147568
0.147298
0.147614
0.14721
0.147348
0.147348
0.147479
0.147248
0.14728
0.147383
0.147635
0.147635
0.147935
0.147405
0.147221
0.147573
0.147625
0.147806
0.147582
0.147549
0.147685
0.147619
0.147539
0.147361
0.147337
0.147163
0.147212
0.147212
0.147398
0.147376
0.147726
0.147099
0.147343
0.147421
0.147478
0.147438
0.147608
0.147608
0.147685
0.147718
0.147914
0.147743
0.147844
0.147844
0.147749
0.148039
0.148039
0.147607
0.147691
0.147664
0.147699
0.147778
0.147455
0.147617
0.147698
0.147606
0.147728
0.147639
0.14752
0.147912
0.147704
0.147681
0.147606
0.147606
0.147591
0.147419
0.147667
0.147942
0.147733
0.148109
0.148109
0.147822
0.147797
0.148021
0.147794
0.147743
0.147649
0.147674
0.147479
0.14757
0.147664
0.147432
0.147273
0.147273
0.147751
0.147751
0.147849
0.147757
0.147959
0.147957
0.147901
0.147904
0.147878
0.148058
0.148021
0.148378
0.148005
0.147772
0.148003
0.148
0.148235
0.148659
0.148539
0.148452
0.148065
0.148159
0.148088
0.14785
0.147831
0.148081
0.147663
0.147905
0.147655
0.147707
0.147725
0.147781
0.1478
0.1478
0.14763
0.147738
0.147738
0.147528
0.147596
0.147492
0.147652
0.147652
0.147698
0.147698
0.147883
0.147669
0.14742
0.147393
0.147484
0.147484
0.147646
0.147647
0.14747
0.147333
0.147387
0.147563
0.147649
0.147651
0.147318
0.147547
0.147373
0.147316
0.147448
0.147646
0.147659
0.147146
0.147294
0.147598
0.147684
0.147495
0.147523
0.147667
0.147031
0.14706
0.147568
0.147568
0.14812
0.147503
0.147533
0.147532
0.147455
0.147408
0.147386
0.147223
0.147332
0.147414
0.147446
0.14771
0.147417
0.147385
0.14732
0.1477
0.14746
0.14746
0.147543
0.147543
0.147658
0.147829
0.147665
0.147925
0.148127
0.147835
0.147698
0.147852
0.147896
0.147753
0.147662
0.147492
0.147639
0.147639
0.147861
0.147726
0.147456
0.148038
0.147615
0.147615
0.147627
0.147649
0.147635
0.147767
0.14759
0.14759
0.14753
0.147654
0.147799
0.147522
0.147738
0.147938
0.147746
0.147523
0.147922
0.147974
0.14797
0.14773
0.147614
0.147614
0.147453
0.147453
0.147313
0.147827
0.147528
0.14757
0.147897
0.147897
0.148399
0.148688
0.148893
0.147809
0.14776
0.148025
0.147828
0.147782
0.147924
0.147941
0.147986
0.148002
0.148089
0.148087
0.148735
0.148549
0.148818
0.148446
0.148682
0.148368
0.147936
0.14825
0.148193
0.147801
0.147696
0.14784
0.147504
0.147465
0.147645
0.147767
0.147821
0.147716
0.147604
0.147794
0.147773
0.14739
0.147413
0.147876
0.147917
0.147744
0.147957
0.147816
0.147895
0.147922
0.147497
0.147746
0.147728
0.147513
0.147583
0.147583
0.147855
0.147478
0.147382
0.147758
0.147724
0.147586
0.148029
0.147663
0.147156
0.147451
0.147935
0.14735
0.147305
0.147217
0.147323
0.147446
0.147511
0.147476
0.147576
0.147575
0.14727
0.147166
0.147486
0.147829
0.147713
0.147712
0.147591
0.147547
0.147415
0.147415
0.147207
0.147085
0.147337
0.147337
0.147472
0.1475
0.147412
0.147339
0.147433
0.14727
0.147472
0.147472
0.147546
0.148181
0.148017
0.147777
0.148004
0.148139
0.148028
0.147675
0.147673
0.147673
0.147439
0.147429
0.147689
0.147689
0.147474
0.14796
0.147751
0.147751
0.147492
0.147492
0.147626
0.147702
0.147895
0.147795
0.147703
0.147462
0.147716
0.147733
0.147684
0.147998
0.147882
0.147565
0.1477
0.147924
0.147922
0.147627
0.147973
0.147973
0.148018
0.147699
0.147779
0.147842
0.147853
0.147574
0.147263
0.147457
0.147562
0.147821
0.14801
0.148197
0.148791
0.149223
0.149282
0.147747
0.147583
0.147667
0.147764
0.147901
0.147935
0.147992
0.147853
0.147853
0.148227
0.148905
0.148719
0.148412
0.149006
0.148588
0.1484
0.148417
0.147942
0.148036
0.147886
0.147837
0.147758
0.147687
0.147752
0.147469
0.14766
0.147765
0.147819
0.147746
0.147903
0.147726
0.147557
0.147557
0.147593
0.147815
0.147674
0.14795
0.14795
0.147627
0.147825
0.147827
0.148054
0.14768
0.147606
0.147838
0.148082
0.14775
0.14754
0.147607
0.147324
0.147461
0.147348
0.148048
0.147666
0.147667
0.14771
0.148117
0.147677
0.147263
0.147315
0.147299
0.147312
0.147373
0.147477
0.147477
0.14748
0.14749
0.147847
0.147223
0.147192
0.147572
0.147708
0.147754
0.148048
0.147615
0.147394
0.147394
0.147059
0.14755