/*--------------------------------*- C++ -*----------------------------------*\
| =========                 |                                                 |
| \\      /  F ield         | OpenFOAM: The Open Source CFD Toolbox           |
|  \\    /   O peration     | Version:  2206                                  |
|   \\  /    A nd           | Website:  www.openfoam.com                      |
|    \\/     M anipulation  |                                                 |
\*---------------------------------------------------------------------------*/
FoamFile
{
    version     2.0;
    format      ascii;
    arch        "LSB;label=32;scalar=64";
    class       volVectorField;
    location    "0.3";
    object      wallShearStress;
}
// * * * * * * * * * * * * * * * * * * * * * * * * * * * * * * * * * * * * * //

dimensions      [0 2 -2 0 0 0 0];

internalField   uniform (0 0 0);

boundaryField
{
    wall
    {
        type            calculated;
        value           nonuniform List<vector> 
8060
(
(-9.20642e-07 -3.17331e-07 -0.000316505)
(6.06565e-07 2.78114e-07 -0.000316516)
(-2.14082e-07 -3.29703e-08 -0.000317644)
(-7.39556e-07 -3.12781e-07 -0.000317054)
(-3.7346e-07 -1.43056e-07 -0.000317424)
(2.21312e-07 1.59732e-07 -0.000317267)
(6.87735e-07 3.01584e-07 -0.000317652)
(-5.32477e-08 -1.46971e-08 -0.000317094)
(-7.33844e-08 2.09338e-09 -0.000317187)
(-3.85718e-07 -1.26555e-07 -0.000316963)
(-2.36631e-07 -1.18739e-08 -0.000316753)
(-2.01489e-07 -3.5909e-08 -0.000317122)
(-5.94666e-07 -2.09983e-07 -0.000316546)
(3.90381e-07 1.55114e-07 -0.000316598)
(1.05721e-07 1.08336e-07 -0.000316841)
(-2.7184e-07 -1.00845e-07 -0.000316756)
(7.53685e-08 4.85007e-08 -0.000316566)
(1.61765e-08 4.20517e-08 -0.000316712)
(-2.1081e-07 -7.43723e-08 -0.00031571)
(1.47064e-07 7.13822e-08 -0.000316194)
(-1.00021e-07 -2.80599e-09 -0.000316947)
(-3.1131e-07 -8.18121e-08 -0.000316768)
(-1.62809e-07 -4.76524e-08 -0.00031701)
(-1.28836e-07 -3.49106e-08 -0.000317113)
(-3.71297e-07 -1.30735e-07 -0.000316651)
(-4.49977e-07 -1.43892e-07 -0.000317044)
(1.63278e-07 7.73905e-08 -0.000317119)
(1.7124e-07 1.12656e-07 -0.000317276)
(-1.2116e-07 1.16772e-08 -0.0003181)
(-6.38961e-07 -2.44431e-07 -0.000317255)
(-4.56597e-07 -1.37138e-07 -0.000317321)
(-4.7604e-08 3.26709e-09 -0.000316597)
(1.83496e-07 1.55999e-07 -0.000316709)
(-4.26048e-07 -1.39594e-07 -0.000316806)
(-4.56332e-07 -1.50483e-07 -0.000317053)
(1.47792e-08 4.43952e-08 -0.000317256)
(1.20886e-07 8.62659e-08 -0.000317188)
(4.66384e-08 9.50192e-08 -0.000317294)
(-4.06264e-07 -1.67319e-07 -0.000317166)
(-2.07711e-07 -2.429e-08 -0.00031713)
(-5.89954e-08 -2.3706e-08 -0.000317477)
(-3.13846e-07 -9.40221e-08 -0.000317385)
(-1.84428e-07 -1.17253e-07 -0.000317294)
(-2.63593e-07 -2.92421e-08 -0.000318131)
(-1.43408e-07 -2.25361e-08 -0.000317045)
(3.96361e-07 1.79131e-07 -0.000316965)
(-5.79916e-07 -2.17104e-07 -0.000317138)
(1.7948e-07 8.51923e-08 -0.00031695)
(1.52569e-07 8.76295e-08 -0.000317592)
(-7.72459e-08 6.71489e-09 -0.000317336)
(5.42941e-07 2.035e-07 -0.000317756)
(-3.75037e-07 -1.34861e-07 -0.000317131)
(3.495e-07 1.81244e-07 -0.00031698)
(3.83494e-07 1.8279e-07 -0.000317787)
(-7.48718e-07 -2.34459e-07 -0.000316811)
(-2.6702e-08 4.06328e-08 -0.000317817)
(3.10185e-07 3.59823e-08 -0.000303154)
(-2.2191e-07 -1.44766e-07 -0.000302239)
(-3.49067e-07 -1.34031e-07 -0.000303454)
(2.35279e-07 2.96124e-08 -0.000303215)
(-1.02797e-06 -3.15594e-07 -0.000303036)
(-6.00513e-07 -1.99761e-07 -0.000304232)
(-5.23289e-08 -6.74928e-08 -0.000303314)
(-1.95085e-07 -9.97141e-08 -0.00030362)
(6.1641e-07 1.99682e-07 -0.000303916)
(-2.63163e-07 -1.56732e-07 -0.000302216)
(-2.73991e-07 -1.25687e-07 -0.000303557)
(-7.39857e-07 -2.32917e-07 -0.000302518)
(-3.36442e-07 -8.08077e-08 -0.000304371)
(-1.14935e-06 -3.30005e-07 -0.000302519)
(-8.61865e-07 -1.88463e-07 -0.000302267)
(3.17674e-08 -5.25569e-08 -0.00030189)
(6.39322e-07 1.67819e-07 -0.000302412)
(-8.95776e-08 -8.32361e-08 -0.000302439)
(-7.60548e-07 -2.2595e-07 -0.000302412)
(3.40837e-07 8.25592e-08 -0.000303359)
(8.37536e-07 2.1162e-07 -0.000302749)
(3.31338e-08 -3.98561e-08 -0.000301887)
(-2.42064e-07 -1.20347e-07 -0.000302293)
(-6.73176e-07 -1.8662e-07 -0.000302136)
(-1.93285e-07 -5.47855e-08 -0.000302647)
(-3.92304e-07 -1.3253e-07 -0.000302586)
(-5.25608e-07 -1.73743e-07 -0.000302392)
(2.70899e-07 4.00326e-08 -0.000302227)
(5.73149e-07 1.26949e-07 -0.000301517)
(-2.84835e-07 -1.08659e-07 -0.000302127)
(-2.42851e-08 -4.90608e-08 -0.000302178)
(1.78885e-07 3.14463e-08 -0.000301539)
(-3.66035e-07 -1.35129e-07 -0.000301643)
(-2.72041e-07 -1.28335e-07 -0.000301217)
(4.41418e-08 -2.43636e-09 -0.000301769)
(-5.86514e-07 -1.76706e-07 -0.000302434)
(-3.12185e-08 -5.87521e-09 -0.000302406)
(3.20669e-07 5.5225e-08 -0.00030223)
(-3.95331e-07 -1.5588e-07 -0.000302292)
(-2.67274e-07 -1.13364e-07 -0.000302434)
(6.71158e-07 1.63283e-07 -0.000302805)
(1.59285e-07 1.09228e-10 -0.000302187)
(-4.48317e-07 -1.23215e-07 -0.000302416)
(-3.37234e-07 -1.10912e-07 -0.000303145)
(-1.4379e-07 -6.14553e-08 -0.000302925)
(-6.21979e-09 7.12346e-09 -0.000302175)
(-2.79347e-07 -9.93612e-08 -0.000301434)
(-3.29937e-07 -1.41918e-07 -0.000302232)
(-1.30978e-07 -4.64267e-08 -0.000302449)
(1.17055e-07 4.35383e-08 -0.000302301)
(-1.39721e-07 -7.52765e-08 -0.000302319)
(4.87436e-07 1.4049e-07 -0.000302975)
(-3.40253e-07 -1.36591e-07 -0.000301772)
(-1.96675e-07 -6.13975e-08 -0.000302732)
(-6.17655e-07 -2.32094e-07 -0.000302467)
(-6.24652e-07 -1.88577e-07 -0.000303095)
(4.66471e-08 -1.86102e-08 -0.000302452)
(5.33897e-08 -2.35757e-08 -0.00030306)
(1.00064e-07 1.62251e-08 -0.000303404)
(1.12842e-07 -4.95926e-08 -0.000302437)
(-6.49023e-07 -1.75116e-07 -0.000302229)
(3.11615e-07 7.67986e-08 -0.000303212)
(2.2308e-08 -2.86624e-08 -0.00030165)
(3.24343e-07 7.21625e-08 -0.000303573)
(4.53754e-07 6.95501e-08 -0.00030301)
(-2.81973e-07 -1.34619e-07 -0.000302592)
(5.76524e-07 1.94153e-07 -0.000302341)
(9.2188e-08 -4.78446e-08 -0.00030238)
(-2.3318e-07 -8.47346e-08 -0.00030209)
(-1.72998e-07 -6.54676e-08 -0.000302581)
(4.99124e-08 3.98369e-08 -0.000317352)
(-3.91517e-07 -1.26079e-07 -0.000317598)
(-3.69414e-07 -4.79966e-08 -0.000318003)
(6.07462e-07 1.88997e-07 -0.000317869)
(-1.6574e-07 -2.43798e-08 -0.00031771)
(-3.06824e-08 4.2871e-08 -0.000319028)
(-9.05699e-07 -2.42459e-07 -0.000317975)
(-1.75238e-07 2.0969e-08 -0.0003178)
(5.66639e-08 4.62925e-08 -0.000318039)
(-3.39855e-08 -3.33335e-08 -0.000317669)
(2.64392e-07 1.08781e-07 -0.000318052)
(4.61943e-07 2.08687e-07 -0.000318313)
(-6.60133e-07 -1.68957e-07 -0.000317326)
(2.69191e-08 8.55773e-08 -0.000317464)
(-1.49674e-06 -3.72864e-07 -0.00031747)
(-1.43055e-06 -4.10254e-07 -0.000316247)
(3.78799e-07 1.43359e-07 -0.000316991)
(8.10994e-08 9.16828e-08 -0.000317285)
(-2.27166e-07 -6.26203e-08 -0.000317487)
(-5.85718e-07 -1.00602e-07 -0.000317636)
(3.17664e-07 1.14499e-07 -0.00031717)
(-7.53287e-08 -6.86788e-09 -0.000316824)
(-6.35623e-07 -1.41068e-07 -0.0003169)
(-1.85446e-07 -3.00441e-08 -0.000317263)
(2.53775e-08 3.53204e-08 -0.000317332)
(1.45192e-07 6.68958e-08 -0.000317009)
(-3.072e-07 -4.39169e-08 -0.000317249)
(-1.00955e-07 -1.2959e-08 -0.000316445)
(-6.9772e-08 1.75731e-08 -0.000316699)
(-7.50477e-07 -1.72961e-07 -0.000316981)
(-4.98736e-07 -9.44262e-08 -0.000316389)
(5.79575e-08 9.84739e-08 -0.000316467)
(-4.66201e-07 -1.52314e-07 -0.000316008)
(-4.18157e-07 -7.83334e-08 -0.00031628)
(-1.10189e-07 2.64846e-08 -0.000316827)
(-2.17316e-07 -2.99436e-08 -0.000317028)
(-4.11045e-07 -5.55096e-08 -0.000317059)
(-1.37539e-07 1.67823e-08 -0.000316937)
(2.04251e-07 7.05208e-08 -0.000316718)
(7.66995e-08 3.70009e-08 -0.000317261)
(-2.84484e-07 -6.08514e-08 -0.000317213)
(2.63915e-07 1.15395e-07 -0.000317123)
(2.87693e-07 1.25883e-07 -0.000317621)
(-6.31212e-07 -1.75117e-07 -0.000317389)
(-5.69714e-07 -8.37265e-08 -0.000317433)
(-4.56967e-07 -5.026e-08 -0.000316626)
(-6.43364e-07 -1.87962e-07 -0.000316394)
(-3.2227e-07 -4.12323e-08 -0.000316666)
(-9.71029e-08 5.23353e-08 -0.000317144)
(-4.93225e-08 4.29253e-08 -0.000317194)
(-2.08983e-07 -2.01109e-08 -0.000317104)
(-2.81501e-07 -5.45854e-08 -0.000317039)
(-2.75688e-07 -1.09855e-08 -0.000317089)
(-8.29103e-07 -1.93387e-07 -0.000317156)
(-4.06e-07 -9.10297e-08 -0.000317486)
(-5.24914e-08 2.83587e-08 -0.000317658)
(-2.78977e-07 -4.34537e-08 -0.00031739)
(3.95287e-07 1.46168e-07 -0.000317894)
(-5.96172e-07 -1.30394e-07 -0.000317505)
(-7.50442e-08 6.86969e-10 -0.000316643)
(1.28659e-07 6.30477e-08 -0.000317345)
(2.24509e-07 9.69112e-08 -0.000317199)
(8.20337e-07 2.53842e-07 -0.000317483)
(-8.31589e-09 4.85271e-08 -0.000317623)
(4.05191e-07 7.43833e-08 -0.00031709)
(3.13808e-07 1.70066e-07 -0.000317411)
(-6.86092e-07 -1.86568e-07 -0.000316791)
(1.98172e-07 6.37523e-08 -0.000316784)
(-7.2424e-07 -1.58124e-07 -0.000317544)
(-5.22427e-07 -1.25749e-07 -0.000317605)
(3.72264e-07 3.85206e-08 -0.000303213)
(5.33275e-08 8.76489e-09 -0.000302086)
(-4.98696e-07 -1.15367e-07 -0.000302915)
(2.15894e-07 -1.96083e-08 -0.000303588)
(1.18728e-07 1.47277e-08 -0.000302523)
(-3.78241e-07 -1.30188e-07 -0.000304188)
(-1.43659e-07 -5.14582e-08 -0.000303723)
(-5.62187e-07 -1.52056e-07 -0.000303713)
(-2.05877e-07 -5.38012e-08 -0.00030446)
(7.72282e-07 1.20598e-07 -0.000302869)
(2.33957e-07 1.17691e-08 -0.000302856)
(2.52917e-07 -1.13308e-09 -0.000302423)
(-5.64817e-07 -1.22181e-07 -0.00030376)
(6.40796e-08 -5.45787e-08 -0.000303246)
(-1.34227e-06 -2.38109e-07 -0.000302255)
(-1.14816e-06 -2.04399e-07 -0.000302526)
(-3.7722e-07 -1.02023e-07 -0.000303271)
(4.13366e-07 7.89942e-08 -0.000302511)
(-9.09886e-08 -2.6988e-08 -0.000302292)
(-4.76166e-07 -8.08428e-08 -0.000303156)
(1.61645e-07 -2.93165e-09 -0.000303217)
(-4.44944e-07 -1.63381e-07 -0.000301778)
(-3.10537e-07 -7.16533e-08 -0.000302266)
(-1.16458e-07 -8.21896e-08 -0.000302532)
(-5.843e-08 -3.57847e-08 -0.000302766)
(-2.25376e-08 -2.78153e-08 -0.000302462)
(-2.92672e-07 -6.38602e-08 -0.000302136)
(-1.29377e-07 -7.446e-08 -0.000302355)
(-8.89024e-08 -3.0799e-08 -0.000301668)
(-3.20484e-07 -1.00151e-07 -0.000302125)
(-3.49752e-07 -5.62308e-08 -0.000302237)
(9.03706e-08 -2.35549e-08 -0.000301839)
(-4.12817e-07 -1.2747e-07 -0.000301799)
(-5.07445e-07 -8.54142e-08 -0.000301448)
(1.00084e-07 -3.13192e-08 -0.000302244)
(-3.51792e-07 -9.26844e-08 -0.000302615)
(-9.03289e-07 -1.89367e-07 -0.00030227)
(8.9635e-08 -2.91353e-08 -0.000302918)
(5.33449e-07 6.12593e-08 -0.000302565)
(-1.9517e-07 -4.23225e-08 -0.000302097)
(-1.76815e-07 -4.44855e-08 -0.000302735)
(8.63799e-07 1.38485e-07 -0.00030261)
(-6.49351e-08 -5.60218e-08 -0.000301912)
(-1.03857e-06 -2.00434e-07 -0.00030248)
(-4.95395e-07 -6.49142e-08 -0.000303087)
(6.17095e-08 -4.30632e-08 -0.000302512)
(-1.02674e-06 -2.10216e-07 -0.000300974)
(-7.06056e-07 -1.19649e-07 -0.000302161)
(-2.81089e-07 -5.34063e-08 -0.000302389)
(3.55225e-07 1.2712e-08 -0.000302644)
(2.01793e-07 -1.66559e-08 -0.000302347)
(-5.76562e-07 -1.17454e-07 -0.00030247)
(-9.41651e-09 -4.24855e-08 -0.000302289)
(-7.35034e-07 -1.49176e-07 -0.000302581)
(-1.92565e-08 -1.44189e-08 -0.000302977)
(-1.33114e-07 -6.52537e-08 -0.000303277)
(-4.97418e-07 -1.25383e-07 -0.000302195)
(-4.21125e-08 -4.81257e-08 -0.000303155)
(-7.26555e-07 -1.48749e-07 -0.000303148)
(3.2489e-07 9.42973e-08 -0.000302628)
(-3.9539e-07 -8.352e-08 -0.000301852)
(2.20827e-07 2.76073e-08 -0.000303105)
(5.21691e-07 4.23479e-08 -0.000301622)
(-5.60154e-08 -2.36813e-08 -0.000302837)
(1.93526e-07 -9.28347e-09 -0.000303159)
(3.90509e-07 3.86085e-08 -0.000302436)
(-6.02298e-07 -1.29216e-07 -0.000301936)
(2.03626e-07 -1.80816e-09 -0.000302953)
(-3.6402e-07 -7.4244e-08 -0.000301794)
(-3.36577e-07 -1.32228e-07 -0.000302518)
(4.02868e-07 1.0236e-07 -0.000317253)
(2.7778e-07 9.84435e-08 -0.000317481)
(-5.56356e-07 -3.59859e-08 -0.000318122)
(-7.88684e-08 -1.46789e-08 -0.000317925)
(-4.41248e-07 -8.5082e-08 -0.000317404)
(3.2922e-07 8.88062e-08 -0.000318379)
(-9.90475e-08 7.382e-09 -0.00031883)
(5.76612e-08 -4.24914e-09 -0.000318167)
(7.75923e-07 1.44566e-07 -0.000318118)
(9.03007e-07 2.28314e-07 -0.000317454)
(2.87875e-07 7.65401e-08 -0.000317929)
(3.62005e-07 1.88156e-08 -0.000318168)
(-6.09396e-07 -9.24889e-08 -0.000317854)
(-2.20208e-07 -1.4101e-08 -0.000316839)
(-9.78886e-09 5.62564e-08 -0.00031762)
(-1.10142e-06 -1.23124e-07 -0.000317526)
(-2.88878e-07 -1.77653e-08 -0.000317179)
(5.75797e-07 1.43704e-07 -0.00031729)
(6.81232e-07 1.49338e-07 -0.000317013)
(1.43617e-07 1.10129e-07 -0.00031805)
(-3.4533e-07 -7.60276e-08 -0.000317314)
(-8.44606e-08 -3.77345e-08 -0.000316741)
(-5.03371e-07 -7.19335e-08 -0.000317232)
(-4.07927e-07 -3.86408e-08 -0.000317296)
(2.09824e-07 5.9304e-08 -0.000317519)
(-1.47703e-07 3.2536e-08 -0.000316654)
(7.26328e-08 5.97908e-08 -0.000317085)
(-3.63247e-07 -7.785e-08 -0.000316695)
(-7.84934e-08 -1.07217e-08 -0.000316605)
(-5.65428e-07 -4.73882e-08 -0.00031716)
(-7.05109e-07 -8.93486e-08 -0.00031672)
(-1.4636e-07 -4.80059e-08 -0.000316616)
(-7.0296e-09 1.35093e-08 -0.000316279)
(3.1633e-07 5.57372e-08 -0.000316751)
(-1.15015e-07 -1.30891e-08 -0.000317056)
(3.62815e-07 8.41328e-08 -0.000317148)
(-1.40445e-07 -2.06114e-08 -0.00031742)
(-2.68887e-07 -1.71237e-08 -0.000317317)
(3.70657e-07 9.66298e-08 -0.000316695)
(9.82725e-07 1.99944e-07 -0.000316822)
(5.55932e-07 1.44789e-07 -0.000317343)
(-5.2479e-08 3.81127e-08 -0.000317061)
(-1.84923e-07 5.41273e-09 -0.000317107)
(-4.80418e-07 -5.46392e-08 -0.000317523)
(-7.40816e-07 -5.44528e-08 -0.000317169)
(-7.80455e-07 -1.06972e-07 -0.00031664)
(-1.23436e-06 -2.09328e-07 -0.000316712)
(-9.78514e-07 -1.40673e-07 -0.00031692)
(-1.44118e-07 -1.0785e-08 -0.000317145)
(-1.19623e-07 -1.89225e-08 -0.000317197)
(-1.9177e-07 1.95599e-08 -0.00031706)
(-6.32211e-07 -1.0321e-07 -0.000317105)
(-3.09014e-07 -5.73387e-08 -0.00031701)
(-1.8064e-07 3.2285e-08 -0.000317398)
(-1.72313e-07 1.22379e-08 -0.000317622)
(2.12725e-07 2.37289e-08 -0.000317441)
(-4.3834e-07 -9.61887e-09 -0.000317915)
(-4.6738e-07 -1.26182e-07 -0.000317435)
(8.16914e-08 9.76061e-08 -0.000317798)
(-4.62043e-07 -5.55384e-08 -0.000316953)
(2.06475e-07 7.10434e-08 -0.000317063)
(-2.7264e-07 -1.12523e-08 -0.000317304)
(1.33662e-07 7.97282e-08 -0.000316787)
(-1.35553e-07 9.13259e-09 -0.000317715)
(-1.49784e-07 -1.60222e-08 -0.000316974)
(6.61787e-07 1.55024e-07 -0.000316573)
(4.28942e-08 7.07865e-08 -0.000317312)
(-2.5234e-07 -3.60061e-08 -0.00031633)
(-8.98738e-08 4.43237e-08 -0.000317504)
(-9.68092e-07 -1.23967e-07 -0.000317773)
(-4.1378e-08 -2.74002e-08 -0.000303281)
(3.70927e-07 3.62594e-08 -0.00030218)
(-5.96558e-08 -3.16122e-08 -0.000302758)
(2.47142e-07 7.54397e-09 -0.000304075)
(-1.40457e-07 -1.86497e-08 -0.000302633)
(-3.36542e-07 -8.05652e-08 -0.000304175)
(7.80882e-08 3.78822e-09 -0.000303851)
(1.36669e-07 -5.76661e-10 -0.000303482)
(-2.67262e-07 -2.5581e-08 -0.000303988)
(6.2405e-07 2.20505e-08 -0.000302668)
(6.12505e-07 2.36885e-08 -0.000302491)
(1.44362e-06 1.27009e-08 -0.000303199)
(-4.73594e-07 -1.14818e-07 -0.000303098)
(-4.42299e-07 -9.29984e-08 -0.000303433)
(-4.19286e-07 -9.16065e-08 -0.000302754)
(-3.9562e-07 -5.18228e-08 -0.000302671)
(-2.66755e-08 -1.31851e-08 -0.000303417)
(-8.2389e-08 -6.48449e-08 -0.000302457)
(7.03743e-07 -6.49143e-09 -0.000302536)
(7.49996e-08 -2.52019e-09 -0.000302512)
(-2.13249e-07 -4.42049e-08 -0.000303085)
(-3.33264e-08 -3.61336e-08 -0.000302186)
(-6.40058e-07 -9.94976e-08 -0.000302085)
(9.61977e-09 2.14318e-09 -0.000302834)
(3.4452e-07 -3.41112e-08 -0.000303117)
(2.02644e-08 2.13378e-08 -0.000302153)
(-3.00974e-07 -7.22017e-08 -0.000302136)
(9.82712e-08 -1.51407e-08 -0.000302625)
(-3.86235e-07 -5.12652e-08 -0.000301623)
(-3.80286e-07 -2.4451e-08 -0.00030195)
(-4.38991e-08 -1.92493e-08 -0.000302546)
(-3.98799e-07 -7.01608e-08 -0.000301888)
(3.42301e-07 -2.02424e-08 -0.000302105)
(1.34053e-07 -5.92405e-08 -0.000301567)
(-1.21271e-07 -1.07789e-08 -0.000301736)
(5.30918e-07 -8.07599e-09 -0.000302892)
(-4.06191e-07 -6.15153e-08 -0.000301805)
(-7.17239e-07 -5.2234e-08 -0.000302497)
(4.60679e-07 -9.66563e-10 -0.000303043)
(9.20794e-07 3.38599e-09 -0.000302118)
(7.20057e-08 -4.30781e-09 -0.000301993)
(1.69223e-08 -1.00446e-08 -0.000302607)
(2.21376e-07 -4.59422e-08 -0.000302382)
(-4.92337e-07 -7.92757e-08 -0.000302543)
(-1.23675e-06 -2.79804e-08 -0.000302431)
(-1.30917e-06 -1.20497e-07 -0.000302464)
(-9.16716e-07 -1.23968e-07 -0.00030169)
(-6.49727e-07 -7.42413e-08 -0.000302525)
(-6.61019e-07 -5.10672e-08 -0.000302417)
(-5.25106e-07 -5.10631e-08 -0.000302676)
(5.32815e-07 2.01152e-08 -0.000302807)
(-4.85061e-07 -6.98925e-08 -0.000302216)
(-3.69763e-07 -3.25462e-08 -0.000302437)
(-3.39296e-10 -3.83525e-08 -0.000302803)
(-9.63212e-08 -3.48787e-08 -0.000302735)
(1.80735e-07 -6.32824e-08 -0.000303539)
(9.65739e-08 -1.35184e-09 -0.000302101)
(-2.0667e-07 -2.10195e-08 -0.000303057)
(5.7072e-08 -4.71356e-08 -0.000303588)
(-4.04247e-07 -6.3648e-08 -0.000302414)
(-1.90681e-07 -3.73383e-08 -0.000302189)
(-5.15931e-07 -5.48729e-08 -0.000302942)
(4.10416e-07 -1.74139e-08 -0.00030225)
(-5.423e-07 -6.90831e-08 -0.00030249)
(-2.56418e-07 1.64179e-08 -0.000303126)
(1.51142e-07 2.08489e-08 -0.00030245)
(-1.64142e-07 -3.26513e-08 -0.000301675)
(-1.69224e-07 -6.42092e-08 -0.00030305)
(-5.09037e-07 -4.76607e-08 -0.000301995)
(-3.63849e-07 -2.97173e-08 -0.000302611)
(3.41306e-07 6.01632e-08 -0.000317316)
(6.65128e-07 7.61082e-08 -0.000317168)
(1.85147e-07 7.40751e-08 -0.00031793)
(1.47221e-07 7.8273e-08 -0.000317651)
(5.03435e-07 4.82895e-08 -0.000318159)
(1.81376e-07 6.30348e-08 -0.000317784)
(8.38709e-07 1.00372e-07 -0.000318831)
(-2.08504e-07 5.97423e-08 -0.000318251)
(1.41034e-07 5.77132e-08 -0.000317766)
(9.25715e-10 5.02562e-08 -0.00031713)
(2.83821e-07 2.19848e-08 -0.00031748)
(3.52353e-07 1.00779e-09 -0.000317729)
(-3.03407e-07 -5.86649e-09 -0.000318026)
(-7.0004e-07 -7.82913e-08 -0.000317508)
(3.93138e-07 5.33315e-08 -0.000316919)
(5.45461e-07 9.3154e-08 -0.000317936)
(-5.4444e-07 -2.11653e-08 -0.000317521)
(-2.36598e-07 -1.95992e-08 -0.000317449)
(3.05828e-08 3.77421e-08 -0.000316761)
(5.54724e-07 8.71866e-08 -0.000317363)
(-4.55287e-07 -5.29437e-09 -0.00031755)
(1.63671e-07 3.69967e-08 -0.000316545)
(-1.63726e-07 1.47668e-08 -0.000317199)
(-3.86547e-07 1.87702e-08 -0.000317384)
(1.42258e-07 2.44389e-08 -0.000317366)
(2.41935e-07 3.90411e-08 -0.000317032)
(2.03885e-07 3.83839e-08 -0.000316787)
(-1.49161e-07 1.32198e-08 -0.000316674)
(2.57901e-07 6.24552e-08 -0.000316471)
(2.18716e-07 3.86259e-08 -0.000316956)
(-2.56755e-07 3.2749e-08 -0.000316798)
(-2.22559e-07 -1.52339e-09 -0.000316715)
(-9.01306e-08 -1.55292e-08 -0.000316208)
(4.93698e-07 6.27334e-08 -0.000316248)
(2.95068e-07 4.11254e-08 -0.000317057)
(4.99111e-08 3.57165e-08 -0.000316855)
(4.80779e-07 6.26149e-08 -0.000317102)
(-1.29061e-07 4.34205e-08 -0.000317554)
(-1.50375e-07 5.7662e-09 -0.000317129)
(-1.31593e-07 3.60984e-08 -0.000316394)
(6.47735e-07 6.95942e-08 -0.000316868)
(3.47813e-07 3.93098e-08 -0.00031725)
(-1.26207e-07 1.04713e-08 -0.00031724)
(-1.12959e-07 7.57657e-08 -0.000317419)
(-9.59316e-07 -2.92233e-08 -0.000317219)
(-1.30577e-06 -1.13053e-07 -0.000316902)
(-1.06818e-06 -1.82728e-09 -0.00031695)
(-9.42682e-07 2.00122e-08 -0.000317327)
(-4.94082e-07 -5.58211e-09 -0.000317287)
(-1.111e-08 4.77457e-09 -0.000317293)
(-3.20948e-08 2.36587e-08 -0.00031707)
(1.12484e-07 5.92899e-08 -0.000317101)
(-3.64292e-07 2.63213e-09 -0.00031722)
(-1.54059e-07 2.73629e-08 -0.000317468)
(-6.83986e-07 -6.98399e-09 -0.000317648)
(-2.07971e-07 9.6944e-09 -0.00031695)
(7.16951e-07 8.75286e-08 -0.00031807)
(-4.1167e-07 -2.45807e-08 -0.000317721)
(4.79743e-07 9.99339e-08 -0.000317341)
(-5.52279e-07 1.66902e-08 -0.00031743)
(-4.62539e-07 7.32821e-12 -0.000316836)
(-5.99116e-07 -7.92778e-09 -0.000317379)
(-5.05223e-07 -2.18214e-08 -0.000317111)
(-2.10422e-07 4.50509e-08 -0.000317725)
(2.7755e-07 6.15178e-08 -0.000317595)
(5.73871e-07 7.29e-08 -0.000316451)
(4.90774e-07 6.64503e-08 -0.00031726)
(-1.00221e-06 -6.05214e-08 -0.000316749)
(2.15493e-07 7.89713e-08 -0.000317178)
(2.60576e-07 8.79331e-08 -0.000318202)
(1.20075e-07 -4.17716e-08 -0.000303438)
(1.28132e-07 -7.53111e-09 -0.00030217)
(-1.55777e-07 -1.82981e-08 -0.00030239)
(1.69146e-07 1.80455e-09 -0.000303755)
(1.38229e-07 -6.4204e-08 -0.000302707)
(6.88794e-08 -1.76012e-08 -0.000303513)
(2.08382e-08 -4.52069e-08 -0.000303807)
(4.21522e-07 7.86709e-09 -0.000303327)
(1.32485e-07 -7.68861e-08 -0.000304292)
(1.65967e-07 -6.28873e-08 -0.000302933)
(-4.65531e-07 -5.48269e-08 -0.000302687)
(2.30354e-07 -4.05259e-08 -0.000303556)
(4.83133e-07 -2.69067e-08 -0.000303095)
(-6.80066e-08 -1.74247e-08 -0.000303196)
(1.01462e-07 -2.51778e-08 -0.000302502)
(8.04948e-08 -3.27941e-08 -0.000302476)
(9.1091e-08 -3.94371e-08 -0.000303367)
(-4.63772e-07 -4.0998e-08 -0.000302518)
(2.3844e-07 2.08365e-08 -0.000302552)
(2.17073e-08 -6.11454e-08 -0.000302518)
(-5.65892e-07 1.01959e-08 -0.000302549)
(2.87308e-07 -3.21697e-08 -0.000302568)
(1.22079e-08 2.35487e-09 -0.00030192)
(-3.1802e-07 -8.13967e-09 -0.000302662)
(6.93764e-07 -3.46747e-08 -0.000303515)
(4.24867e-07 -1.11684e-07 -0.000302229)
(-1.06528e-07 1.46915e-08 -0.000301715)
(-3.54791e-07 -3.40199e-08 -0.000302365)
(6.40519e-07 -8.21138e-08 -0.00030199)
(-2.10358e-08 -2.78882e-08 -0.000301545)
(-2.18674e-07 -1.71511e-08 -0.00030228)
(-3.63079e-08 -3.00503e-08 -0.000301991)
(-3.59853e-07 -2.68744e-08 -0.000301893)
(7.67548e-07 -6.60016e-08 -0.000301941)
(3.05201e-07 -6.74244e-08 -0.000301444)
(3.22153e-07 -3.21102e-08 -0.000302654)
(7.85114e-07 -8.52048e-08 -0.000302236)
(1.55699e-07 -1.55773e-08 -0.0003023)
(-3.36997e-07 1.42481e-08 -0.000302952)
(2.20767e-08 -8.20836e-09 -0.000302284)
(4.948e-07 -1.0506e-07 -0.000302605)
(-4.20018e-07 -1.0402e-08 -0.000302195)
(-5.37328e-07 -8.65217e-09 -0.000301881)
(2.28864e-07 -6.96383e-09 -0.000302705)
(-4.61288e-07 -5.44462e-08 -0.000302635)
(-1.54095e-06 3.33555e-08 -0.000302536)
(-1.22428e-06 6.87132e-08 -0.000301918)
(-7.42391e-07 4.7093e-08 -0.000302704)
(-1.40889e-07 -4.18452e-08 -0.000302973)
(-3.59453e-07 8.60211e-09 -0.000302779)
(-5.39068e-07 -5.86704e-09 -0.000302505)
(1.18753e-08 -3.58694e-08 -0.000302391)
(-2.79372e-07 -1.93976e-08 -0.000302311)
(1.55907e-07 -2.2555e-08 -0.000303209)
(-7.13666e-07 6.21545e-09 -0.000302549)
(1.60548e-07 -8.02376e-09 -0.000303758)
(4.63817e-07 -4.75143e-08 -0.000302436)
(2.35623e-08 1.44534e-08 -0.000302377)
(7.14583e-07 -2.57836e-08 -0.000303556)
(-3.38204e-07 -7.37533e-09 -0.000301919)
(-3.65427e-07 -1.19871e-08 -0.000302314)
(-1.10278e-06 3.87655e-08 -0.000302714)
(-5.02772e-07 1.04636e-08 -0.000302711)
(-4.0188e-08 2.7069e-08 -0.000302723)
(2.7577e-07 -2.70515e-08 -0.000303141)
(1.13483e-07 -4.72204e-08 -0.000302197)
(-6.09541e-08 -4.83531e-08 -0.000301999)
(-8.00868e-07 2.49004e-08 -0.00030251)
(-2.59486e-08 -1.54721e-08 -0.000302335)
(4.04475e-07 -2.16036e-08 -0.000302967)
(-7.31495e-07 3.81293e-08 -0.000305255)
(1.53096e-07 2.09013e-08 -0.000317473)
(6.62057e-07 -2.25166e-08 -0.000317335)
(5.10577e-07 -8.03521e-09 -0.000317927)
(-4.90996e-07 8.59913e-08 -0.000317569)
(5.59643e-07 1.95857e-08 -0.000318243)
(-1.84465e-07 5.04382e-08 -0.000317976)
(5.86666e-07 -3.07086e-08 -0.000318408)
(-1.74402e-07 4.94187e-08 -0.000318449)
(2.52966e-07 1.1348e-09 -0.000317698)
(2.93497e-09 1.25318e-08 -0.000317889)
(3.63008e-08 -8.12922e-09 -0.000317565)
(4.48264e-07 3.28688e-08 -0.000317531)
(5.98055e-07 3.46061e-08 -0.000317452)
(1.27173e-07 5.24228e-08 -0.000317807)
(-4.31176e-07 2.32119e-08 -0.000316898)
(8.97377e-07 -3.66278e-09 -0.000317098)
(5.58658e-09 4.43148e-08 -0.000317591)
(1.2054e-07 1.92677e-08 -0.00031753)
(-3.12966e-07 2.38713e-08 -0.000317509)
(3.26522e-09 7.01831e-09 -0.00031701)
(-3.60885e-07 7.57352e-08 -0.000317622)
(-3.14269e-07 2.13386e-08 -0.000316721)
(6.41895e-07 2.70521e-08 -0.000316858)
(3.70558e-07 3.37499e-08 -0.000317556)
(1.49531e-07 7.13063e-09 -0.000317048)
(-3.96337e-10 3.51876e-08 -0.000317174)
(2.1828e-07 -2.21102e-08 -0.000316662)
(-1.85751e-07 1.86055e-08 -0.00031679)
(-1.85898e-07 4.83845e-08 -0.000316466)
(6.28376e-10 2.49322e-08 -0.000316533)
(-1.59355e-07 3.39032e-08 -0.000316976)
(-3.23593e-07 6.53658e-08 -0.000316655)
(-2.9241e-07 9.37194e-09 -0.00031651)
(-1.56901e-08 5.97394e-08 -0.000316068)
(4.28133e-07 -2.81726e-08 -0.000316723)
(-3.89778e-07 3.80994e-08 -0.000317047)
(2.58767e-07 1.63075e-08 -0.000316762)
(7.44206e-07 3.9827e-08 -0.000317291)
(5.4805e-07 -5.97899e-09 -0.000317346)
(2.2025e-07 -1.83446e-08 -0.000317151)
(1.86602e-07 9.67273e-09 -0.000316763)
(7.44058e-07 1.45818e-08 -0.000317031)
(-2.61772e-07 2.26492e-08 -0.000317251)
(-1.05155e-09 -8.66435e-09 -0.000317062)
(-2.71979e-07 6.40323e-08 -0.000317016)
(-6.71065e-07 5.26194e-08 -0.000317109)
(-7.34254e-07 6.6061e-08 -0.000317202)
(-3.39313e-07 5.14807e-08 -0.00031761)
(-5.99105e-07 8.35673e-08 -0.000317554)
(-1.0354e-07 2.69233e-08 -0.000317146)
(-2.62877e-08 5.03712e-08 -0.000317401)
(1.32857e-07 2.61673e-09 -0.000316897)
(-1.15493e-07 5.42661e-08 -0.000317222)
(8.69607e-08 1.58996e-08 -0.000317342)
(4.98564e-07 1.7993e-08 -0.000318133)
(-2.26063e-07 3.92524e-08 -0.000317439)
(1.21625e-06 -1.44899e-08 -0.000317548)
(3.91737e-07 6.774e-08 -0.000317669)
(-9.9757e-10 5.26451e-09 -0.000316507)
(4.10171e-07 2.40014e-08 -0.000317266)
(-5.50432e-07 3.68267e-08 -0.000317347)
(-4.36402e-07 5.88955e-08 -0.00031713)
(-4.07709e-07 5.47278e-08 -0.000317546)
(5.56114e-08 8.52962e-08 -0.000317745)
(-3.05005e-07 4.94568e-08 -0.000317637)
(-8.26781e-07 2.55793e-08 -0.000316652)
(7.12041e-07 -1.27301e-08 -0.000316588)
(2.21014e-07 5.05137e-08 -0.000317341)
(-2.85706e-07 5.42504e-08 -0.000317218)
(8.14327e-07 3.03377e-08 -0.000317426)
(-2.01454e-07 9.51678e-08 -0.000321079)
(6.97255e-07 -1.16654e-07 -0.000303158)
(5.91822e-07 -1.65142e-07 -0.000302242)
(2.95324e-07 -5.46398e-08 -0.000302311)
(-6.49787e-07 7.96786e-08 -0.000303052)
(2.93184e-07 -1.97402e-08 -0.000303106)
(2.8229e-07 -9.10422e-08 -0.000303557)
(9.16888e-08 -4.68773e-08 -0.000303843)
(-4.20728e-07 8.09683e-08 -0.000302799)
(3.96748e-07 -5.56562e-08 -0.000304347)
(1.29102e-07 -3.10748e-09 -0.000302665)
(2.7826e-07 -6.43427e-08 -0.000302519)
(-3.31778e-07 2.54452e-08 -0.000302849)
(-4.54777e-08 -1.81156e-08 -0.000302887)
(3.15647e-07 -8.15539e-08 -0.000303033)
(2.52068e-07 -4.19918e-08 -0.00030238)
(3.05445e-07 -1.1498e-07 -0.000302731)
(-2.5966e-07 5.39365e-08 -0.000302734)
(4.77586e-07 -1.01201e-07 -0.000302735)
(1.49851e-07 -8.61887e-08 -0.000302794)
(-6.56762e-09 -1.85113e-08 -0.000302672)
(-6.70275e-07 4.44161e-08 -0.000302411)
(4.2423e-08 -4.46975e-08 -0.000303089)
(4.48522e-07 -1.36886e-07 -0.000302255)
(1.66894e-07 -1.17809e-08 -0.000302213)
(-3.81538e-07 2.64038e-08 -0.00030303)
(4.7088e-07 -7.94203e-08 -0.000302488)
(7.09974e-07 -1.41254e-07 -0.000302171)
(-4.9805e-07 6.21773e-08 -0.000301549)
(9.63121e-10 -2.01982e-08 -0.00030219)
(7.14448e-08 -8.58336e-08 -0.000301847)
(-5.33506e-07 6.15944e-08 -0.000302144)
(2.20115e-08 -1.04443e-08 -0.000302252)
(-3.578e-07 1.50872e-08 -0.000302106)
(2.89879e-08 -2.30161e-09 -0.000302157)
(2.22129e-07 -8.06658e-08 -0.000301847)
(-8.64991e-07 1.28536e-07 -0.000301998)
(3.02802e-07 -3.94106e-08 -0.000302485)
(1.17119e-06 -2.07167e-07 -0.000302631)
(9.89423e-07 -1.91548e-07 -0.000302715)
(-2.32926e-07 -2.46966e-08 -0.000301676)
(1.97395e-07 -2.10764e-08 -0.00030233)
(6.61413e-07 -1.46014e-07 -0.000302613)
(-1.43939e-07 -1.08044e-08 -0.000301423)
(-3.84103e-07 3.67814e-08 -0.000302511)
(-2.12414e-07 -1.39578e-08 -0.000302556)
(-1.78675e-07 2.09529e-09 -0.000302433)
(-1.93724e-07 6.78478e-09 -0.000302135)
(-5.14915e-07 4.06562e-08 -0.000302843)
(-3.61674e-07 4.36663e-08 -0.000302966)
(1.77494e-07 -6.38837e-08 -0.00030339)
(-9.25402e-08 -2.06499e-08 -0.000302365)
(-1.28123e-07 -3.96121e-08 -0.000302573)
(-3.93327e-07 1.91904e-09 -0.000302385)
(1.39631e-07 -3.00762e-08 -0.00030344)
(3.28568e-07 -7.68481e-08 -0.000302792)
(1.99063e-07 -2.64771e-08 -0.000303519)
(1.15072e-06 -2.22035e-07 -0.000302961)
(3.92293e-07 -8.67924e-08 -0.00030187)
(-1.42949e-07 -1.58117e-09 -0.000302934)
(-4.38974e-07 8.54068e-10 -0.000301995)
(3.45551e-08 -3.18632e-08 -0.000302364)
(-5.03469e-07 4.60753e-08 -0.000302314)
(-5.69885e-07 2.34597e-08 -0.000302668)
(4.03761e-09 -1.71818e-09 -0.000303092)
(-1.87708e-07 -9.52874e-09 -0.000303197)
(-1.58854e-07 -1.02558e-08 -0.000302288)
(5.49477e-07 -7.45123e-08 -0.000302202)
(6.83684e-08 -3.64505e-08 -0.000302043)
(2.78416e-07 -9.3111e-08 -0.000302445)
(5.80247e-07 -8.88791e-08 -0.000302921)
(-2.35912e-07 -1.40212e-08 -0.000304718)
(-1.31265e-07 6.11438e-08 -0.000317056)
(-3.50626e-07 8.80132e-08 -0.000317273)
(4.70408e-07 -5.25847e-08 -0.00031735)
(2.99134e-08 6.84824e-08 -0.000317949)
(1.86952e-07 -4.00789e-08 -0.000317947)
(-5.98297e-07 1.82433e-07 -0.000318233)
(-2.07473e-09 3.28539e-08 -0.00031777)
(7.97598e-08 6.99432e-08 -0.000318606)
(-5.80795e-07 1.15338e-07 -0.000317274)
(6.32234e-07 -3.10848e-08 -0.000317662)
(-1.0615e-07 4.07509e-08 -0.000317616)
(-2.1148e-07 3.1761e-08 -0.00031775)
(-2.68226e-08 2.78426e-08 -0.000317274)
(1.23605e-07 -1.40412e-09 -0.000317285)
(1.23506e-07 2.94307e-08 -0.000317426)
(3.75492e-07 -6.43321e-08 -0.000316876)
(5.44941e-07 -6.32122e-09 -0.000317495)
(1.09888e-07 2.6433e-09 -0.000316837)
(-3.17228e-08 5.01945e-08 -0.000317617)
(6.01436e-08 2.26428e-09 -0.000317035)
(1.37431e-07 6.8588e-09 -0.000317539)
(-2.19066e-07 3.0178e-08 -0.000317455)
(1.8103e-07 -3.00518e-09 -0.000316977)
(8.19376e-07 -5.91215e-08 -0.000317211)
(-3.27815e-08 1.4637e-08 -0.000317)
(-2.49367e-10 5.92748e-08 -0.000317172)
(9.04254e-08 2.0167e-08 -0.000316414)
(-2.4941e-07 6.9575e-08 -0.000316445)
(-2.97754e-07 4.56963e-08 -0.000316927)
(-4.29845e-07 7.98947e-08 -0.000316692)
(3.58398e-07 -8.69574e-09 -0.000316941)
(-1.65481e-07 3.97169e-08 -0.000316884)
(-1.81783e-08 2.54931e-08 -0.000316613)
(2.3527e-07 -3.29998e-09 -0.000316717)
(7.69369e-07 -1.11103e-07 -0.000316506)
(6.66931e-07 -7.42839e-09 -0.000317189)
(-3.11967e-07 7.15601e-08 -0.000317005)
(2.9743e-07 -4.76101e-08 -0.000317108)
(6.20808e-07 -2.82012e-08 -0.000316675)