/*--------------------------------*- C++ -*----------------------------------*\
| =========                 |                                                 |
| \\      /  F ield         | OpenFOAM: The Open Source CFD Toolbox           |
|  \\    /   O peration     | Version:  2206                                  |
|   \\  /    A nd           | Website:  www.openfoam.com                      |
|    \\/     M anipulation  |                                                 |
\*---------------------------------------------------------------------------*/
FoamFile
{
    version     2.0;
    format      ascii;
    arch        "LSB;label=32;scalar=64";
    class       volScalarField;
    location    "0.3";
    object      nut;
}
// * * * * * * * * * * * * * * * * * * * * * * * * * * * * * * * * * * * * * //

dimensions      [0 2 -1 0 0 0 0];

internalField   nonuniform List<scalar> 
67442
(
1.09178e-06
1.20877e-06
1.20339e-06
1.2784e-06
1.27743e-06
1.20306e-06
1.20338e-06
1.27703e-06
1.20908e-06
1.20856e-06
1.20868e-06
1.27739e-06
1.20405e-06
8.94998e-08
2.88336e-07
4.20591e-08
8.67372e-08
2.76396e-07
1.09192e-06
1.09184e-06
1.09199e-06
2.86465e-07
1.13085e-06
5.54282e-07
4.10788e-08
1.12446e-06
2.94576e-07
5.76905e-07
1.85434e-07
1.89664e-07
4.21173e-08
4.11188e-08
1.90061e-07
1.85052e-07
8.91817e-08
2.87852e-07
2.94781e-07
1.12413e-06
5.775e-07
2.94254e-07
1.12413e-06
5.76999e-07
1.89397e-07
1.85164e-07
4.10318e-08
2.86833e-07
1.13092e-06
5.54522e-07
8.65631e-08
2.76358e-07
1.1308e-06
2.86542e-07
5.5453e-07
8.64033e-08
2.76041e-07
1.13086e-06
2.86434e-07
5.54332e-07
8.63577e-08
2.76024e-07
1.85093e-07
1.89847e-07
4.20922e-08
1.12458e-06
2.94679e-07
5.76878e-07
8.91824e-08
2.87782e-07
8.926e-08
2.87773e-07
4.10295e-08
4.21455e-08
3.56846e-08
8.96725e-08
1.78093e-07
1.7852e-07
3.57024e-08
6.64008e-08
2.8869e-07
7.62043e-08
2.52863e-07
7.63497e-08
2.53274e-07
6.62696e-08
4.2057e-08
6.43296e-08
2.76615e-07
2.42501e-07
7.3872e-08
3.43627e-08
8.71215e-08
1.70193e-07
1.71061e-07
3.44094e-08
3.44221e-08
8.68447e-08
1.70401e-07
6.45857e-08
2.77341e-07
2.42289e-07
7.37904e-08
2.43314e-07
7.41593e-08
6.4265e-08
4.10199e-08
4.10618e-08
2.39238e-07
3.82982e-07
1.86353e-07
7.98848e-08
3.81392e-07
8.0275e-08
2.38693e-07
2.41185e-07
3.87995e-07
1.903e-07
8.0207e-08
3.86563e-07
8.05043e-08
2.40762e-07
1.18101e-07
3.46117e-08
3.48581e-08
3.46049e-08
3.48539e-08
1.1747e-07
4.20756e-08
4.10584e-08
4.1098e-08
2.40867e-07
3.88512e-07
1.90682e-07
8.10158e-08
8.13095e-08
3.86907e-07
2.40493e-07
2.39553e-07
3.82264e-07
1.8596e-07
7.91577e-08
7.9537e-08
3.80549e-07
2.3906e-07
1.18168e-07
3.49193e-08
3.45777e-08
3.48878e-08
3.45419e-08
1.17552e-07
3.56123e-08
8.93759e-08
1.77438e-07
1.77895e-07
3.5598e-08
6.6217e-08
2.88255e-07
7.60107e-08
2.52201e-07
7.61771e-08
2.52653e-07
6.60709e-08
2.40252e-07
3.8695e-07
1.89985e-07
8.01558e-08
8.04702e-08
3.85803e-07
2.40333e-07
2.38939e-07
3.82681e-07
1.86141e-07
7.9828e-08
3.80898e-07
8.02127e-08
2.37674e-07
1.185e-07
3.49195e-08
3.46644e-08
3.49292e-08
3.46525e-08
1.17801e-07
4.10105e-08
6.42907e-08
2.76583e-07
7.38491e-08
2.42341e-07
3.43201e-08
8.69494e-08
1.69895e-07
1.70767e-07
3.43665e-08
3.43801e-08
8.66793e-08
1.70113e-07
6.45458e-08
2.77305e-07
7.37619e-08
2.42121e-07
7.41323e-08
2.43157e-07
6.42247e-08
3.43117e-08
8.68008e-08
1.69636e-07
1.70518e-07
3.43301e-08
6.44368e-08
2.77038e-07
2.41836e-07
7.36079e-08
2.42904e-07
7.39888e-08
6.41067e-08
3.43049e-08
8.67555e-08
1.69571e-07
1.70451e-07
3.43246e-08
6.44316e-08
2.77016e-07
7.35953e-08
2.41801e-07
7.39764e-08
2.42866e-07
6.41002e-08
2.39383e-07
3.81715e-07
1.85962e-07
7.93105e-08
7.96609e-08
3.80259e-07
2.38923e-07
2.39922e-07
3.8865e-07
1.90538e-07
8.10862e-08
3.86867e-07
8.14018e-08
2.39384e-07
1.18909e-07
3.47599e-08
3.51548e-08
3.47157e-08
3.51234e-08
1.18397e-07
4.20865e-08
3.56062e-08
8.93771e-08
1.77429e-07
1.77878e-07
3.5592e-08
6.62021e-08
2.8819e-07
2.52212e-07
7.59691e-08
2.52652e-07
7.61289e-08
6.606e-08
3.56106e-08
8.94526e-08
1.77508e-07
1.77947e-07
3.55982e-08
6.6204e-08
2.88188e-07
2.52256e-07
7.59614e-08
2.52684e-07
7.61207e-08
6.60639e-08
4.10053e-08
4.21365e-08
1.07448e-06
1.07525e-06
1.07083e-06
4.35441e-07
6.73447e-07
6.83162e-07
1.24711e-06
6.58628e-07
6.71351e-07
4.39198e-07
4.35327e-07
6.79409e-07
6.76909e-07
1.2474e-06
6.67397e-07
6.61715e-07
4.39266e-07
4.34909e-07
6.7677e-07
6.78729e-07
1.24681e-06
6.63092e-07
6.6542e-07
4.38648e-07
4.35414e-07
6.71403e-07
6.85739e-07
1.2476e-06
6.73118e-07
6.56833e-07
4.39356e-07
1.07464e-06
1.07541e-06
1.07081e-06
1.07525e-06
1.07455e-06
1.07084e-06
1.07539e-06
1.07469e-06
1.07082e-06
7.84172e-07
5.69631e-07
2.87119e-07
3.87318e-07
5.61444e-07
3.86487e-07
8.02897e-07
9.7925e-07
5.47706e-07
4.98208e-07
1.17224e-06
4.93656e-07
1.12668e-06
1.01157e-06
8.22095e-07
5.83499e-07
2.94839e-07
4.00658e-07
5.78387e-07
4.00151e-07
8.29908e-07
1.04586e-06
5.74246e-07
1.22572e-06
5.17793e-07
1.21195e-06
5.15643e-07
1.05621e-06
8.2347e-07
5.85045e-07
2.95001e-07
4.00925e-07
4.00425e-07
5.80158e-07
8.31292e-07
1.04732e-06
5.74517e-07
5.18304e-07
1.22841e-06
5.16057e-07
1.21426e-06
1.05829e-06
8.23128e-07
5.83772e-07
2.94565e-07
4.00343e-07
3.99967e-07
5.79344e-07
8.30721e-07
1.04713e-06
5.74275e-07
5.17717e-07
1.22801e-06
5.15631e-07
1.21388e-06
1.05797e-06
7.84164e-07
5.69248e-07
2.87444e-07
3.87849e-07
3.8684e-07
5.61085e-07
8.03137e-07
9.79244e-07
5.47704e-07
4.98625e-07
1.17234e-06
4.93813e-07
1.12663e-06
1.01189e-06
7.85537e-07
5.70591e-07
2.87172e-07
3.87481e-07
3.86533e-07
5.62745e-07
8.04279e-07
9.80616e-07
5.47712e-07
1.17422e-06
4.98454e-07
1.12837e-06
4.93717e-07
1.01338e-06
7.85731e-07
5.71385e-07
2.87106e-07
3.87249e-07
5.63432e-07
3.86417e-07
8.04336e-07
9.80712e-07
5.4775e-07
1.17419e-06
4.9823e-07
1.12846e-06
4.93684e-07
1.01327e-06
8.21942e-07
5.82663e-07
2.94943e-07
4.00698e-07
5.77828e-07
4.00218e-07
8.29657e-07
1.04594e-06
5.74261e-07
1.2257e-06
5.17841e-07
1.21195e-06
5.15678e-07
1.05636e-06
6.37389e-09
6.99278e-10
4.69322e-11
4.46596e-12
3.55031e-12
6.3465e-09
6.94702e-10
4.70596e-11
4.74852e-12
3.85734e-12
6.28721e-09
6.89567e-10
4.63154e-11
4.45315e-12
3.55419e-12
6.29318e-09
6.88621e-10
4.66756e-11
4.74294e-12
3.86205e-12
6.36508e-09
6.96538e-10
4.71724e-11
4.75444e-12
3.86013e-12
6.29959e-09
6.893e-10
4.67132e-11
4.74291e-12
3.86115e-12
6.34948e-09
6.96902e-10
4.67856e-11
4.46111e-12
3.54945e-12
6.27848e-09
6.87206e-10
4.65983e-11
4.74343e-12
3.86464e-12
6.27585e-09
6.88397e-10
4.62427e-11
4.45054e-12
3.55358e-12
6.25968e-09
6.86909e-10
4.61634e-11
4.45107e-12
3.55612e-12
6.25807e-09
6.86697e-10
4.61532e-11
4.45162e-12
3.55688e-12
6.35399e-09
6.95586e-10
4.71237e-11
4.75336e-12
3.86059e-12
6.35081e-09
6.97108e-10
4.68009e-11
4.46254e-12
3.55048e-12
6.35554e-09
6.97612e-10
4.68337e-11
4.46286e-12
3.55008e-12
6.27843e-09
6.87195e-10
4.65961e-11
4.74185e-12
3.86311e-12
6.36006e-09
6.96177e-10
4.71533e-11
4.75191e-12
3.85842e-12
6.23798e-09
6.81766e-10
4.62314e-11
4.71547e-12
3.84389e-12
6.38224e-09
7.00486e-10
4.70139e-11
4.4717e-12
3.5544e-12
6.35484e-09
6.95524e-10
4.71047e-11
4.75052e-12
3.85827e-12
6.02559e-09
6.58097e-10
4.45069e-11
4.54807e-12
3.71002e-12
6.16341e-09
6.75403e-10
4.56928e-11
4.63194e-12
3.76869e-12
6.12377e-09
6.69052e-10
4.54139e-11
4.68379e-12
3.83237e-12
6.29118e-09
6.90253e-10
4.63623e-11
4.4547e-12
3.55454e-12
6.29575e-09
6.90692e-10
4.63887e-11
4.45527e-12
3.55444e-12
6.29479e-09
6.8906e-10
4.67063e-11
4.74319e-12
3.86139e-12
6.2994e-09
6.896e-10
4.67408e-11
4.74471e-12
3.86211e-12
6.22518e-09
6.81457e-10
4.58195e-11
4.47421e-12
3.59176e-12
6.23122e-09
6.82075e-10
4.58514e-11
4.47279e-12
3.58918e-12
6.23883e-09
6.83092e-10
4.59198e-11
4.47373e-12
3.58827e-12
6.24536e-09
6.83732e-10
4.59539e-11
4.47387e-12
3.5874e-12
5.70821e-09
6.24536e-10
4.26427e-11
4.64092e-12
3.86455e-12
5.7239e-09
6.26229e-10
4.2749e-11
4.64272e-12
3.86357e-12
5.71455e-09
6.25185e-10
4.2677e-11
4.63954e-12
3.86195e-12
5.73054e-09
6.26906e-10
4.27851e-11
4.64198e-12
3.86163e-12
6.36796e-09
6.97169e-10
4.72181e-11
4.75739e-12
3.86209e-12
6.30094e-09
6.89707e-10
4.67417e-11
4.74295e-12
3.86032e-12
6.30523e-09
6.90222e-10
4.67751e-11
4.74478e-12
3.86142e-12
6.3593e-09
6.97881e-10
4.68432e-11
4.46537e-12
3.55257e-12
6.22353e-09
6.81389e-10
4.58217e-11
4.47469e-12
3.59214e-12
6.2301e-09
6.81999e-10
4.58523e-11
4.47336e-12
3.58971e-12
5.71939e-09
6.25785e-10
4.27239e-11
4.64298e-12
3.86455e-12
5.72458e-09
6.26317e-10
4.27508e-11
4.64186e-12
3.86246e-12
6.28505e-09
6.87913e-10
4.66363e-11
4.74278e-12
3.86276e-12
6.02278e-09
6.57778e-10
4.4488e-11
4.54786e-12
3.71027e-12
6.16167e-09
6.75217e-10
4.5681e-11
4.63155e-12
3.76861e-12
6.11593e-09
6.68189e-10
4.53597e-11
4.68165e-12
3.83167e-12
6.27996e-09
6.89099e-10
4.62904e-11
4.45208e-12
3.55389e-12
6.28497e-09
6.89582e-10
4.63195e-11
4.45265e-12
3.5537e-12
6.26744e-09
6.87669e-10
4.62049e-11
4.45164e-12
3.55552e-12
6.10329e-09
6.66641e-10
4.5262e-11
4.68022e-12
3.83267e-12
6.26556e-09
6.87427e-10
4.61927e-11
4.45204e-12
3.55617e-12
6.28121e-09
6.87796e-10
4.62261e-11
4.48503e-12
3.59161e-12
6.28667e-09
6.88307e-10
4.62523e-11
4.48529e-12
3.59112e-12
5.76912e-09
6.30988e-10
4.30496e-11
4.65205e-12
3.86491e-12
6.36113e-09
6.96305e-10
4.71625e-11
4.75524e-12
3.86156e-12
6.21337e-09
6.78848e-10
4.6045e-11
4.70993e-12
3.84313e-12
6.36042e-09
6.98072e-10
4.68581e-11
4.46693e-12
3.55376e-12
6.21437e-09
6.78983e-10
4.60532e-11
4.70966e-12
3.84269e-12
6.36512e-09
6.98575e-10
4.68907e-11
4.46716e-12
3.55325e-12
6.28482e-09
6.87871e-10
4.6632e-11
4.74106e-12
3.86113e-12
6.36767e-09
6.9697e-10
4.71974e-11
4.75387e-12
3.85932e-12
6.21415e-09
6.78954e-10
4.60493e-11
4.70981e-12
3.84297e-12
6.104e-09
6.66729e-10
4.52674e-11
4.67955e-12
3.83193e-12
6.06271e-09
6.62466e-10
4.47761e-11
4.5448e-12
3.69868e-12
6.19692e-09
6.79215e-10
4.592e-11
4.62384e-12
3.7534e-12
6.20057e-09
6.79825e-10
4.59625e-11
4.62597e-12
3.75453e-12
6.05896e-09
6.61848e-10
4.47334e-11
4.54226e-12
3.6971e-12
6.23069e-09
6.80643e-10
4.61533e-11
4.70962e-12
3.83958e-12
6.23528e-09
6.82825e-10
4.59104e-11
4.47493e-12
3.58966e-12
6.24093e-09
6.83356e-10
4.59371e-11
4.47472e-12
3.58861e-12
5.73368e-09
6.27308e-10
4.28223e-11
4.64682e-12
3.86567e-12
5.73994e-09
6.27922e-10
4.28542e-11
4.6458e-12
3.86354e-12
6.12136e-09
6.68585e-10
4.53825e-11
4.68369e-12
3.83323e-12
6.01985e-09
6.57443e-10
4.44628e-11
4.54344e-12
3.70605e-12
6.15584e-09
6.74371e-10
4.56251e-11
4.6299e-12
3.76839e-12
6.15691e-09
6.74676e-10
4.56442e-11
4.62679e-12
3.76427e-12
6.01857e-09
6.57145e-10
4.44448e-11
4.54618e-12
3.70972e-12
6.12883e-09
6.69617e-10
4.54506e-11
4.68568e-12
3.83346e-12
6.21448e-09
6.80248e-10
4.57433e-11
4.47162e-12
3.59084e-12
6.21717e-09
6.8077e-10
4.57782e-11
4.47105e-12
3.58912e-12
5.73447e-09
6.27008e-10
4.27875e-11
4.64349e-12
3.86324e-12
5.73701e-09
6.27571e-10
4.28254e-11
4.64264e-12
3.86113e-12
6.27744e-09
6.87008e-10
4.61611e-11
4.48134e-12
3.5896e-12
6.28103e-09
6.8762e-10
4.62029e-11
4.48268e-12
3.58985e-12
5.74234e-09
6.28103e-10
4.28602e-11
4.64422e-12
3.86207e-12
5.74493e-09
6.28619e-10
4.28956e-11
4.64461e-12
3.86144e-12
6.20108e-09
6.78774e-10
4.56483e-11
4.46849e-12
3.59029e-12
6.20406e-09
6.79286e-10
4.56818e-11
4.46793e-12
3.58863e-12
5.70876e-09
6.24395e-10
4.26279e-11
4.6393e-12
3.86324e-12
5.71096e-09
6.24856e-10
4.2659e-11
4.63881e-12
3.86174e-12
6.04537e-09
6.60448e-10
4.46492e-11
4.54232e-12
3.69948e-12
6.17892e-09
6.7748e-10
4.58232e-11
4.62319e-12
3.75529e-12
6.18619e-09
6.78214e-10
4.58645e-11
4.62472e-12
3.75578e-12
6.03819e-09
6.59781e-10
4.46132e-11
4.54077e-12
3.69882e-12
6.20353e-09
6.77944e-10
4.59911e-11
4.70542e-12
3.83974e-12
6.01698e-09
6.57119e-10
4.44436e-11
4.54325e-12
3.70632e-12
6.15367e-09
6.74141e-10
4.56106e-11
4.62945e-12
3.7683e-12
6.15489e-09
6.74461e-10
4.56305e-11
4.62635e-12
3.76417e-12
6.01566e-09
6.56818e-10
4.44255e-11
4.54599e-12
3.70999e-12
6.11344e-09
6.67711e-10
4.53276e-11
4.68153e-12
3.83251e-12
6.12121e-09
6.68777e-10
4.53979e-11
4.68354e-12
3.8327e-12
6.09688e-09
6.66015e-10
4.52291e-11
4.68018e-12
3.8338e-12
6.00553e-09
6.55712e-10
4.43523e-11
4.53877e-12
3.70422e-12
6.13744e-09
6.72464e-10
4.5513e-11
4.62629e-12
3.76775e-12
6.14216e-09
6.72927e-10
4.55341e-11
4.62222e-12
3.7625e-12
6.00064e-09
6.55257e-10
4.43319e-11
4.54237e-12
3.70893e-12
6.00553e-09
6.55718e-10
4.43506e-11
4.53901e-12
3.70447e-12
6.13638e-09
6.72376e-10
4.55039e-11
4.62587e-12
3.76759e-12
6.14113e-09
6.72842e-10
4.55251e-11
4.62178e-12
3.7623e-12
6.00071e-09
6.55266e-10
4.43304e-11
4.54269e-12
3.70927e-12
6.09649e-09
6.65947e-10
4.5225e-11
4.68097e-12
3.83464e-12
5.77409e-09
6.3161e-10
4.30856e-11
4.65247e-12
3.8643e-12
6.20325e-09
6.77887e-10
4.59893e-11
4.70542e-12
3.83969e-12
6.04388e-09
6.60247e-10
4.46359e-11
4.54132e-12
3.69871e-12
6.17527e-09
6.77106e-10
4.57987e-11
4.6225e-12
3.75516e-12
6.18218e-09
6.7773e-10
4.5831e-11
4.62299e-12
3.75486e-12
6.03685e-09
6.59605e-10
4.46025e-11
4.54046e-12
3.69863e-12
6.20439e-09
6.7804e-10
4.59988e-11
4.7053e-12
3.83937e-12
6.04384e-09
6.6028e-10
4.4638e-11
4.54183e-12
3.69926e-12
6.17465e-09
6.77065e-10
4.57973e-11
4.62246e-12
3.75523e-12
6.18154e-09
6.77683e-10
4.58303e-11
4.62373e-12
3.75567e-12
6.03689e-09
6.5965e-10
4.46045e-11
4.54028e-12
3.69852e-12
1.20882e-06
1.2474e-06
1.20364e-06
1.09187e-06
2.77084e-07
1.13099e-06
5.47686e-07
8.67743e-08
2.77047e-07
1.13088e-06
2.86916e-07
5.47699e-07
4.10029e-08
1.85635e-07
6.41404e-08
2.7609e-07
2.43046e-07
7.40212e-08
2.41982e-07
7.36387e-08
6.44724e-08
3.43192e-08
8.63738e-08
1.70479e-07
1.69586e-07
3.43056e-08
6.40997e-08
2.76055e-07
7.3989e-08
2.42884e-07
7.36062e-08
2.41817e-07
6.44314e-08
4.10246e-08
2.3812e-07
3.80071e-07
1.84754e-07
7.95042e-08
3.81473e-07
7.91549e-08
2.39045e-07
2.39376e-07
3.8677e-07
3.88567e-07
2.3949e-07
1.18473e-07
3.46822e-08
3.46809e-08
1.18994e-07
4.39134e-07
1.27786e-06
6.56745e-07
6.73083e-07
6.71175e-07
6.85034e-07
4.3541e-07
1.07527e-06
1.07085e-06
1.07527e-06
1.07456e-06
1.07086e-06
1.01169e-06
5.54282e-07
4.93755e-07
1.12659e-06
4.98383e-07
1.17216e-06
9.79276e-07
8.04034e-07
5.6269e-07
2.86241e-07
3.86423e-07
3.87236e-07
5.70429e-07
7.85578e-07
1.01316e-06
5.54285e-07
1.12831e-06
4.93687e-07
1.17402e-06
4.98221e-07
9.80647e-07
8.299e-07
5.78237e-07
5.83381e-07
8.21846e-07
1.24708e-06
1.20328e-06
1.20932e-06
1.09181e-06
4.20679e-08
4.10432e-08
1.90399e-07
1.85664e-07
8.95013e-08
2.88466e-07
2.94767e-07
1.12418e-06
5.745e-07
8.69511e-08
2.87186e-07
4.20747e-08
4.10669e-08
2.4026e-07
3.8678e-07
1.89754e-07
8.1146e-08
8.08423e-08
3.88225e-07
2.40673e-07
2.38823e-07
3.80434e-07
1.84735e-07
7.93733e-08
7.89842e-08
3.82004e-07
2.39356e-07
1.1734e-07
3.48546e-08
3.45072e-08
3.48563e-08
3.45134e-08
1.17967e-07
3.56507e-08
8.93102e-08
1.78236e-07
1.77776e-07
3.56679e-08
6.61425e-08
2.88047e-07
7.62116e-08
2.53024e-07
7.60526e-08
2.52564e-07
6.62834e-08
3.43642e-08
8.65508e-08
1.7078e-07
1.69889e-07
3.43491e-08
4.3898e-07
1.27777e-06
6.67388e-07
6.61721e-07
6.79119e-07
6.76632e-07
4.35253e-07
1.0745e-06
8.3109e-07
5.80066e-07
2.94487e-07
4.00288e-07
5.84764e-07
4.00652e-07
8.23511e-07
1.05803e-06
5.77155e-07
5.16019e-07
1.21403e-06
5.18059e-07
1.22811e-06
1.04727e-06
8.02908e-07
5.61032e-07
2.86522e-07
3.86724e-07
5.69027e-07
3.87592e-07
7.84206e-07
6.2669e-09
6.87488e-10
4.61871e-11
4.44943e-12
3.55393e-12
6.28227e-09
6.87502e-10
4.66072e-11
4.74073e-12
3.86151e-12
6.09617e-09
6.6591e-10
4.5221e-11
4.67943e-12
3.83327e-12
6.25829e-09
6.86721e-10
4.61464e-11
4.44882e-12
3.55444e-12
6.27462e-09
6.86764e-10
4.65682e-11
4.74108e-12
3.86307e-12
6.00386e-09
6.55656e-10
4.43578e-11
4.54458e-12
3.71046e-12
6.14548e-09
6.73269e-10
4.55544e-11
4.62431e-12
3.7641e-12
6.13993e-09
6.72788e-10
4.5533e-11
4.62824e-12
3.7692e-12
6.00831e-09
6.56114e-10
4.43792e-11
4.54097e-12
3.70571e-12
6.00086e-09
6.55318e-10
4.43378e-11
4.54436e-12
3.71072e-12
6.14314e-09
6.73026e-10
4.55391e-11
4.62384e-12
3.76401e-12
6.13773e-09
6.72544e-10
4.55177e-11
4.62777e-12
3.76913e-12
6.00532e-09
6.5578e-10
4.43595e-11
4.54078e-12
3.70599e-12
6.10256e-09
6.66607e-10
4.52589e-11
4.67875e-12
3.83134e-12
6.20264e-09
6.78893e-10
4.56568e-11
4.4677e-12
3.5889e-12
6.19366e-09
6.78039e-10
4.56103e-11
4.46889e-12
3.59165e-12
5.71965e-09
6.25396e-10
4.26857e-11
4.63951e-12
3.86169e-12
5.71045e-09
6.24501e-10
4.26372e-11
4.6409e-12
3.86472e-12
6.3562e-09
6.95654e-10
4.71204e-11
4.75475e-12
3.86198e-12
6.28901e-09
6.88201e-10
4.66456e-11
4.74035e-12
3.8602e-12
6.36875e-09
6.98788e-10
4.69053e-11
4.46879e-12
3.5543e-12
6.27829e-09
6.88662e-10
4.62603e-11
4.45194e-12
3.55442e-12
6.3473e-09
6.94841e-10
4.70768e-11
4.75274e-12
3.861e-12
6.2815e-09
6.87475e-10
4.66075e-11
4.74096e-12
3.86203e-12
6.21356e-09
6.78968e-10
4.6057e-11
4.70772e-12
3.84026e-12
6.35813e-09
6.97801e-10
4.6848e-11
4.46443e-12
3.55106e-12
6.26966e-09
6.87875e-10
4.6218e-11
4.45133e-12
3.55498e-12
5.73119e-09
6.26918e-10
4.27858e-11
4.64158e-12
3.86124e-12
5.69749e-09
6.23205e-10
4.25529e-11
4.63587e-12
3.86154e-12
6.10413e-09
6.66784e-10
4.52758e-11
4.68157e-12
3.83395e-12
6.11048e-09
6.67483e-10
4.53139e-11
4.68087e-12
3.83201e-12
6.26803e-09
6.85984e-10
4.60975e-11
4.4798e-12
3.5897e-12
6.26018e-09
6.85275e-10
4.60599e-11
4.47943e-12
3.59041e-12
6.19117e-09
6.77705e-10
4.55807e-11
4.46517e-12
3.58848e-12
6.18411e-09
6.77052e-10
4.55471e-11
4.46659e-12
3.59111e-12
5.69034e-09
6.2253e-10
4.25175e-11
4.63719e-12
3.8641e-12
5.72349e-09
6.26194e-10
4.27474e-11
4.64204e-12
3.86292e-12
6.04373e-09
6.60346e-10
4.46468e-11
4.54054e-12
3.69769e-12
6.18843e-09
6.78309e-10
4.58655e-11
4.62364e-12
3.75475e-12
6.18094e-09
6.77682e-10
4.58326e-11
4.62211e-12
3.754e-12
6.05035e-09
6.60975e-10
4.46811e-11
4.54219e-12
3.69851e-12
6.2229e-09
6.79908e-10
4.61122e-11
4.71211e-12
3.84357e-12
1.27481e-06
1.09355e-06
1.20986e-06
1.20442e-06
1.25681e-06
1.2705e-06
1.26733e-06
1.20446e-06
1.20389e-06
1.26695e-06
1.21033e-06
1.20948e-06
1.20965e-06
1.25588e-06
1.20512e-06
1.85334e-07
1.89509e-07
1.26122e-06
1.85949e-07
1.8988e-07
2.82044e-07
8.92523e-08
2.87439e-07
4.17861e-08
4.14869e-08
8.65489e-08
2.76181e-07
1.09354e-06
1.09364e-06
1.09374e-06
2.86481e-07
1.13254e-06
1.21165e-06
5.5198e-07
4.07355e-08
1.12617e-06
2.94535e-07
5.76601e-07
1.85535e-07
1.89654e-07
4.07801e-08
4.0768e-08
4.18803e-08
4.18776e-08
1.26797e-06
1.85836e-07
1.89811e-07
1.85416e-07
1.8956e-07
4.07433e-08
4.08122e-08
4.18598e-08
4.1899e-08
4.17767e-08
4.07932e-08
1.89615e-07
1.84812e-07
2.8191e-07
8.91827e-08
8.84001e-08
2.87285e-07
5.63231e-07
2.94165e-07
1.12437e-06
1.12908e-06
5.75472e-07
5.63061e-07
2.94054e-07
1.12433e-06
1.20519e-06
2.91323e-07
1.12903e-06
5.75335e-07
1.89277e-07
1.85232e-07
1.2695e-06
1.88514e-07
4.07621e-08
2.86536e-07
1.13269e-06
5.52072e-07
8.63995e-08
2.76143e-07
1.13251e-06
2.86241e-07
5.52078e-07
8.63816e-08
2.76144e-07
1.13253e-06
2.86454e-07
5.52035e-07
8.63826e-08
2.7613e-07
1.84805e-07
1.8985e-07
4.18268e-08
1.12626e-06
2.94627e-07
5.76583e-07
8.91865e-08
2.8773e-07
8.92422e-08
2.87728e-07
4.07906e-08
4.18832e-08
1.17384e-07
3.43964e-08
3.46391e-08
3.44262e-08
3.46656e-08
1.17748e-07
2.38884e-07
3.82622e-07
7.98036e-08
1.85982e-07
8.00576e-08
2.38571e-07
3.81374e-07
2.40816e-07
3.87635e-07
8.00948e-08
1.8991e-07
8.02741e-08
2.40607e-07
3.86476e-07
1.17794e-07
3.44125e-08
3.46515e-08
3.44049e-08
3.46483e-08
1.17382e-07
2.38606e-07
8.00477e-08
1.8538e-07
3.8148e-07
7.98202e-08
2.38872e-07
3.82576e-07
2.40633e-07
8.02683e-08
1.89526e-07
3.86552e-07
8.01086e-08
2.40806e-07
3.87593e-07
6.53281e-08
7.4699e-08
2.47699e-07
2.84089e-07
7.5122e-08
2.4944e-07
6.50087e-08
3.54021e-08
8.92467e-08
1.7764e-07
1.77278e-07
3.54603e-08
3.50999e-08
8.88286e-08
1.76067e-07
6.5748e-08
2.86302e-07
7.58972e-08
2.52173e-07
7.55449e-08
2.51228e-07
6.60136e-08
4.1901e-08
4.17074e-08
3.41595e-08
8.65914e-08
1.69946e-07
1.70137e-07
3.4201e-08
6.42276e-08
2.76488e-07
2.4209e-07
7.36484e-08
2.4239e-07
7.37301e-08
6.41598e-08
4.06881e-08
2.38689e-07
3.82439e-07
7.98886e-08
1.85755e-07
2.38729e-07
3.81558e-07
7.99565e-08
2.40668e-07
3.87461e-07
8.01636e-08
1.89709e-07
2.40748e-07
3.86666e-07
8.01922e-08
1.17609e-07
3.44073e-08
3.46478e-08
1.17524e-07
3.43783e-08
3.46243e-08
4.07733e-08
4.08142e-08
4.18883e-08
4.19045e-08
1.1772e-07
3.44268e-08
3.46662e-08
1.17409e-07
3.44e-08
3.46427e-08
2.38685e-07
3.8156e-07
8.00059e-08
1.85467e-07
2.3875e-07
7.98672e-08
3.82463e-07
2.40696e-07
3.86632e-07
8.02357e-08
1.89617e-07
2.407e-07
8.01516e-08
3.87483e-07
1.1746e-07
3.43884e-08
3.46308e-08
1.17681e-07
3.44168e-08
3.46567e-08
2.3883e-07
7.98423e-08
3.82547e-07
1.85899e-07
2.38656e-07
8.00344e-08
3.81501e-07
2.4077e-07
8.01296e-08
3.87557e-07
1.8986e-07
2.40679e-07
8.02608e-08
3.86586e-07
4.07857e-08
4.07462e-08
4.18881e-08
4.18696e-08
4.18971e-08
4.16281e-08
4.07476e-08
2.40249e-07
3.87842e-07
1.90051e-07
8.07669e-08
8.0877e-08
3.86875e-07
2.40216e-07
2.38881e-07
3.81552e-07
1.85051e-07
7.89698e-08
7.9084e-08
3.80586e-07
2.38818e-07
1.89288e-07
3.87629e-07
1.17624e-07
3.46508e-08
3.4316e-08
3.46263e-08
3.42877e-08
1.17326e-07
6.52951e-08
7.46729e-08
2.47467e-07
2.8395e-07
7.50914e-08
2.49231e-07
6.49617e-08
3.5312e-08
8.91602e-08
1.77481e-07
1.76912e-07
3.54461e-08
3.5135e-08
1.7482e-07
8.8898e-08
1.7606e-07
3.49402e-08
6.56691e-08
2.8614e-07
7.58637e-08
2.51967e-07
7.55049e-08
2.50921e-07
6.59827e-08
1.18089e-07
3.4806e-08
3.47906e-08
3.45017e-08
2.39736e-07
3.86549e-07
1.89628e-07
8.00907e-08
8.02059e-08
3.85922e-07
2.40233e-07
2.38467e-07
3.82289e-07
1.85531e-07
7.98307e-08
3.81133e-07
7.99379e-08
2.37744e-07
2.38759e-07
8.02903e-08
1.89171e-07
3.84425e-07
8.03321e-08
3.86088e-07
2.3867e-07
2.39054e-07
1.85198e-07
3.82571e-07
7.97693e-08
1.18123e-07
3.47074e-08
3.44729e-08
3.46874e-08
3.44598e-08
1.17778e-07
4.07501e-08
4.07994e-08
3.41211e-08
8.64398e-08
1.69683e-07
1.69881e-07
3.4162e-08
6.4191e-08
2.76448e-07
7.36165e-08
2.41927e-07
7.37005e-08
2.42239e-07
6.41222e-08
6.41535e-08
2.76217e-07
2.42039e-07
7.36681e-08
3.41238e-08
8.64251e-08
1.69676e-07
1.69885e-07
3.41609e-08
3.41532e-08
8.64362e-08
1.6977e-07
6.41878e-08
2.76485e-07
2.41944e-07
7.36256e-08
2.42273e-07
7.37067e-08
6.41264e-08
6.41498e-08
2.76205e-07
7.36567e-08
2.42008e-07
3.4126e-08
8.64323e-08
1.69663e-07
1.69881e-07
3.41646e-08
3.41566e-08
8.64412e-08
1.69766e-07
6.41852e-08
2.76468e-07
7.36126e-08
2.41919e-07
7.3694e-08
2.42247e-07
6.41228e-08
2.3838e-07
3.80704e-07
1.84965e-07
7.91067e-08
7.91399e-08
3.79992e-07
2.38455e-07
2.38952e-07
3.87525e-07
1.89968e-07
8.10342e-08
3.86605e-07
8.10461e-08
2.38855e-07
1.18079e-07
3.44591e-08
3.4854e-08
3.44108e-08
3.47894e-08
1.18185e-07
4.18084e-08
3.54198e-08
8.91419e-08
1.77478e-07
1.77499e-07
3.54314e-08
6.60457e-08
2.87948e-07
2.52135e-07
7.58993e-08
2.52328e-07
7.59708e-08
6.60098e-08
3.54234e-08
8.92007e-08
1.77525e-07
1.77539e-07
3.54372e-08
6.60556e-08
2.87957e-07
2.5218e-07
7.58974e-08
2.52364e-07
7.5971e-08
6.60171e-08
4.07375e-08
4.07999e-08
4.18493e-08
4.35719e-07
6.70532e-07
6.80762e-07
1.24895e-06
4.38535e-07
6.60012e-07
6.72654e-07
1.07618e-06
1.07715e-06
1.0726e-06
4.36424e-07
6.66416e-07
6.77416e-07
1.25651e-06
4.379e-07
6.62766e-07
6.75193e-07
4.38067e-07
1.27785e-06
6.64451e-07
6.7614e-07
4.36253e-07
6.70037e-07
6.79917e-07
4.3579e-07
6.7622e-07
6.70823e-07
1.25343e-06
6.69893e-07
6.65183e-07
4.38285e-07
4.35516e-07
6.73767e-07
6.72922e-07
1.25349e-06
6.66678e-07
6.68094e-07
4.37888e-07
4.35632e-07
6.63593e-07
6.78971e-07
1.25592e-06
6.76411e-07
6.60301e-07
4.37111e-07
4.38401e-07
1.27769e-06
6.6226e-07
6.74315e-07
4.35947e-07
6.71338e-07
6.81116e-07
1.0762e-06
1.07719e-06
1.07262e-06
1.07714e-06
1.07646e-06
1.0726e-06
1.07716e-06
1.07646e-06
1.07261e-06
7.89583e-07
5.65244e-07
2.86641e-07
3.86784e-07
5.63656e-07
3.866e-07
7.92781e-07
7.96536e-07
2.86527e-07
5.66997e-07
3.86817e-07
9.87438e-07
5.49818e-07
4.96588e-07
1.14938e-06
4.95071e-07
1.13713e-06
9.94727e-07
8.25034e-07
5.79534e-07
2.9449e-07
4.00295e-07
5.79807e-07
4.0026e-07
8.2281e-07
1.04992e-06
5.74478e-07
1.22107e-06
5.17129e-07
1.21355e-06
5.16198e-07
1.05036e-06
4.36046e-07
1.25144e-06
6.68869e-07
6.79397e-07
4.38292e-07
6.61196e-07
6.73742e-07
1.03763e-06
5.06236e-07
1.17737e-06
5.69228e-07
5.11377e-07
1.19909e-06
1.023e-06
8.2791e-07
5.81961e-07
2.9461e-07
4.00476e-07
3.99722e-07
5.82329e-07
8.26262e-07
8.20729e-07
2.92925e-07
3.96829e-07
5.80512e-07
1.04773e-06
5.72546e-07
5.1727e-07
1.2233e-06
5.14282e-07
1.21003e-06
1.05287e-06
1.03745e-06
5.05986e-07
1.17723e-06
5.69081e-07
5.1114e-07
1.19894e-06
1.02283e-06
8.27644e-07
5.81085e-07
2.94475e-07
4.00324e-07
3.99461e-07
5.81684e-07
8.26048e-07
8.20374e-07
3.93508e-07
2.93016e-07
5.76574e-07
3.96757e-07
8.11433e-07
5.79572e-07
1.04779e-06
5.72376e-07
5.17052e-07
1.22334e-06
5.14031e-07
1.21005e-06
1.05288e-06
4.37668e-07
1.27663e-06
6.67464e-07
6.70891e-07
6.7433e-07
6.73509e-07
4.3572e-07
7.895e-07
5.64622e-07
2.86694e-07
3.87106e-07
3.86723e-07
5.63162e-07
7.92836e-07
9.87583e-07
5.4972e-07
4.96835e-07
1.14937e-06
4.95093e-07
1.13719e-06
9.94859e-07
7.90419e-07
5.65549e-07
2.86396e-07
3.86723e-07
3.86407e-07
5.64506e-07
7.93597e-07
9.88816e-07
5.49732e-07
1.15115e-06
4.96643e-07
1.13884e-06
4.94984e-07
9.96212e-07
7.90764e-07
5.66732e-07
2.86647e-07
3.86743e-07
5.65529e-07
3.86521e-07
7.93994e-07
9.88972e-07
5.49872e-07
1.15137e-06
4.96613e-07
1.13897e-06
4.95102e-07
9.96391e-07
8.24999e-07
5.7918e-07
2.94575e-07
4.00404e-07
5.79567e-07
4.00321e-07
8.22892e-07
1.04989e-06
5.74466e-07
1.22118e-06
5.17212e-07
1.21352e-06
5.16204e-07
1.05064e-06
1.09237e-06
1.20867e-06
1.20384e-06
1.27803e-06
1.09382e-06
1.21e-06
1.20499e-06
1.27837e-06
1.09536e-06
1.21097e-06
1.20606e-06
1.2788e-06
1.09579e-06
1.21203e-06
1.20695e-06
1.28019e-06
1.09487e-06
1.21197e-06
1.20644e-06
1.28049e-06
1.09405e-06
1.21099e-06
1.20555e-06
1.2792e-06
1.09395e-06
1.21075e-06
1.20533e-06
1.2791e-06
1.0938e-06
1.21022e-06
1.20478e-06
1.27823e-06
1.09373e-06
1.20987e-06
1.2045e-06
1.27765e-06
1.09372e-06
1.20989e-06
1.2045e-06
1.27778e-06
1.09372e-06
1.20986e-06
1.20449e-06
1.27766e-06
1.09372e-06
1.20987e-06
1.20449e-06
1.27775e-06
1.09372e-06
1.20988e-06
1.20449e-06
1.27777e-06
1.09371e-06
1.20988e-06
1.2045e-06
1.27772e-06
1.09372e-06
1.20987e-06
1.2045e-06
1.27772e-06
1.09371e-06
1.20989e-06
1.20451e-06
1.24723e-06
1.20319e-06
1.20314e-06
1.24679e-06
1.2092e-06
1.20862e-06
1.2085e-06
1.20844e-06
1.24752e-06
1.20342e-06
1.20384e-06
1.24723e-06
1.27781e-06
1.24745e-06
1.20363e-06
1.2033e-06
1.20459e-06
1.2045e-06
1.27665e-06
1.24693e-06
1.20964e-06
1.20903e-06
1.21053e-06
1.20993e-06
1.20862e-06
1.20982e-06
1.20975e-06
1.27752e-06
1.24757e-06
1.20401e-06
1.20482e-06
1.2052e-06
1.24739e-06
1.27794e-06
1.24828e-06
1.20475e-06
1.2046e-06
1.20564e-06
1.20539e-06
1.2773e-06
1.2475e-06
1.21069e-06
1.21007e-06
1.21159e-06
1.21092e-06
1.20984e-06
1.2107e-06
1.21058e-06
1.27749e-06
1.2482e-06
1.20529e-06
1.20576e-06
1.20605e-06
1.24795e-06
1.27868e-06
1.24967e-06
1.20589e-06
1.20559e-06
1.20675e-06
1.20652e-06
1.27755e-06
1.24886e-06
1.21182e-06
1.21118e-06
1.2127e-06
1.21197e-06
1.21077e-06
1.21183e-06
1.21168e-06
1.27806e-06
1.24948e-06
1.20626e-06
1.20683e-06
1.20715e-06
1.24925e-06
1.2801e-06
1.24969e-06
1.20682e-06
1.20664e-06
1.20673e-06
1.20675e-06
1.27919e-06
1.2492e-06
1.21276e-06
1.21204e-06
1.21272e-06
1.21192e-06
1.21181e-06
1.21211e-06
1.21198e-06
1.27933e-06
1.24945e-06
1.20727e-06
1.20681e-06
1.20739e-06
1.24958e-06
1.28008e-06
1.24813e-06
1.20632e-06
1.2065e-06
1.20562e-06
1.20571e-06
1.27929e-06
1.24786e-06
1.2123e-06
1.2115e-06
1.21158e-06
1.21072e-06
1.2118e-06
1.2111e-06
1.21094e-06
1.2792e-06
1.24782e-06
1.20718e-06
1.20564e-06
1.20634e-06
1.24818e-06
1.27878e-06
1.2482e-06
1.20549e-06
1.20553e-06
1.2054e-06
1.20544e-06
1.27824e-06
1.24772e-06
1.21145e-06
1.21061e-06
1.21138e-06
1.21049e-06
1.21074e-06
1.21083e-06
1.21068e-06
1.27784e-06
1.24782e-06
1.20616e-06
1.20542e-06
1.20608e-06
1.24805e-06
1.27864e-06
1.24752e-06
1.20523e-06
1.20532e-06
1.20482e-06
1.20502e-06
1.27795e-06
1.2473e-06
1.21118e-06
1.21034e-06
1.21076e-06
1.20988e-06
1.21056e-06
1.21034e-06
1.21019e-06
1.27767e-06
1.24722e-06
1.20597e-06
1.20491e-06
1.20564e-06
1.24761e-06
1.27761e-06
1.24709e-06
1.20464e-06
1.20481e-06
1.20445e-06
1.20461e-06
1.27729e-06
1.24679e-06
1.21055e-06
1.20971e-06
1.21039e-06
1.20952e-06
1.20998e-06
1.2099e-06
1.20972e-06
1.2767e-06
1.2468e-06
1.20546e-06
1.20453e-06
1.20523e-06
1.2471e-06
1.27716e-06
1.24721e-06
1.20438e-06
1.20451e-06
1.20443e-06
1.20457e-06
1.27655e-06
1.24687e-06
1.21031e-06
1.20948e-06
1.21041e-06
1.20954e-06
1.20963e-06
1.20987e-06
1.20971e-06
1.27625e-06
1.24689e-06
1.20514e-06
1.20449e-06
1.20518e-06
1.24715e-06
1.27731e-06
1.24711e-06
1.20439e-06
1.20453e-06
1.20442e-06
1.20456e-06
1.27681e-06
1.24681e-06
1.21033e-06
1.20949e-06
1.21038e-06
1.20952e-06
1.20966e-06
1.20986e-06
1.20969e-06
1.27634e-06
1.24685e-06
1.20514e-06
1.20449e-06
1.20518e-06
1.24709e-06
1.27721e-06
1.24722e-06
1.20438e-06
1.20449e-06
1.20444e-06
1.20457e-06
1.27661e-06
1.24686e-06
1.21032e-06
1.20948e-06
1.2104e-06
1.20952e-06
1.20963e-06
1.20986e-06
1.20971e-06
1.2763e-06
1.24691e-06
1.20513e-06
1.20449e-06
1.20519e-06
1.24723e-06
1.27726e-06
1.24737e-06
1.20439e-06
1.20453e-06
1.20443e-06
1.20456e-06
1.27677e-06
1.24703e-06
1.21033e-06
1.20948e-06
1.2104e-06
1.20952e-06
1.20965e-06
1.20987e-06
1.2097e-06
1.2763e-06
1.24714e-06
1.20514e-06
1.20448e-06
1.20519e-06
1.24747e-06
1.27726e-06
1.24785e-06
1.20438e-06
1.20449e-06
1.20443e-06
1.20456e-06
1.27663e-06
1.24753e-06
1.21033e-06
1.20949e-06
1.21039e-06
1.20952e-06
1.20965e-06
1.20985e-06
1.20969e-06
1.2763e-06
1.24786e-06
1.20514e-06
1.20448e-06
1.20517e-06
1.24814e-06
1.27726e-06
1.24919e-06
1.20438e-06
1.20452e-06
1.20442e-06
1.20455e-06
1.27678e-06
1.2489e-06
1.21033e-06
1.2095e-06
1.21038e-06
1.20951e-06
1.20965e-06
1.20985e-06
1.20967e-06
1.2763e-06
1.2499e-06
1.20513e-06
1.20447e-06
1.20517e-06
1.2502e-06
1.27723e-06
1.25268e-06
1.20439e-06
1.20451e-06
1.20441e-06
1.20455e-06
1.27663e-06
1.25246e-06
1.21033e-06
1.2095e-06
1.21036e-06
1.20948e-06
1.20965e-06
1.20983e-06
1.20965e-06
1.27631e-06