/*--------------------------------*- C++ -*----------------------------------*\
| =========                 |                                                 |
| \\      /  F ield         | OpenFOAM: The Open Source CFD Toolbox           |
|  \\    /   O peration     | Version:  2206                                  |
|   \\  /    A nd           | Website:  www.openfoam.com                      |
|    \\/     M anipulation  |                                                 |
\*---------------------------------------------------------------------------*/
FoamFile
{
    version     2.0;
    format      ascii;
    arch        "LSB;label=32;scalar=64";
    class       volScalarField;
    location    "0.3";
    object      omega;
}
// * * * * * * * * * * * * * * * * * * * * * * * * * * * * * * * * * * * * * //

dimensions      [0 0 -1 0 0 0 0];

internalField   nonuniform List<scalar> 
67442
(
20.1347
20.3567
20.3306
20.8545
20.8623
20.3338
20.3288
20.8607
20.3587
20.3623
20.3585
20.8686
20.3248
239.792
64.8298
383.802
242.638
67.6675
20.1339
20.1345
20.1343
59.7306
20.1832
27.2632
386.235
20.1699
57.8158
26.4809
116.791
114.611
384.211
386.285
115.06
117.411
239.135
64.4212
58.1208
20.1703
26.5144
57.8717
20.1698
26.4847
114.588
116.834
385.827
59.9299
20.1835
27.2861
242.757
67.662
20.1843
59.9726
27.2868
242.11
67.3808
20.1835
59.7388
27.2644
242.216
67.3858
117.175
114.701
383.8
20.1688
57.793
26.4906
239.162
64.4178
239.155
64.4628
385.861
383.793
409.269
240.103
125.517
125.801
409.1
286.37
64.7652
256.105
76.6274
256.38
76.862
285.986
383.885
290.789
67.8742
80.2769
261.137
412.919
243.133
129.856
130.255
412.758
413.054
243.243
130.186
290.592
68.0028
80.0037
260.408
80.3827
260.89
290.071
386.461
386.755
75.3497
37.5228
117.108
250.806
37.713
251.1
74.9219
74.7023
36.8566
114.907
251.132
37.0099
251.423
74.3049
175.767
393.766
393.088
393.736
393.065
175.343
384.428
386.507
386.809
75.2958
37.1
115.31
250.529
250.867
37.217
74.9412
75.7019
37.6048
117.773
252.776
253.138
37.7856
75.2953
176.527
393.255
394.206
393.41
394.358
176.036
408.663
239.403
125.079
125.35
408.626
285.44
64.647
255.406
76.2
255.656
76.4739
285.18
74.7488
36.9234
114.953
251.089
251.379
37.0752
74.3026
75.2151
37.5439
117.125
250.824
37.7051
251.07
74.8785
175.976
392.992
393.828
392.811
393.83
175.513
385.895
290.81
67.8787
261.133
80.3156
412.925
243.212
129.976
130.343
412.763
413.063
243.353
130.29
290.615
68.002
260.415
80.0317
260.886
80.4127
290.091
412.316
242.412
129.454
129.799
412.311
289.692
67.7088
79.6904
259.874
80.0615
260.141
289.335
412.321
242.496
129.521
129.862
412.311
289.696
67.7204
259.898
79.6863
260.168
80.0609
289.334
75.631
37.606
117.628
252.323
252.794
37.782
75.1999
75.4678
37.1584
114.966
249.771
37.2519
250.062
75.1424
176.607
393.976
392.493
394.196
392.657
176.167
383.885
408.689
239.426
125.13
125.397
408.651
285.479
64.6429
76.2058
255.521
76.4796
255.742
285.215
408.696
239.424
125.083
125.358
408.655
285.476
64.6863
76.2155
255.545
76.4883
255.764
285.218
385.937
383.913
20.1236
20.1241
20.1177
33.4799
23.7885
23.6649
20.8657
23.8441
23.7108
33.3303
33.5938
23.7073
23.7997
20.8745
23.7509
23.8529
33.447
33.5744
23.6961
23.823
20.8721
23.876
23.732
33.422
33.7154
23.8216
23.7368
20.8811
23.7826
23.8731
33.5868
20.1236
20.1238
20.1189
20.1237
20.1237
20.1178
20.1237
20.1236
20.1187
22.775
26.6937
60.0004
37.5302
26.788
37.734
22.7286
21.5353
27.3762
29.4944
21.1334
29.6392
21.1576
21.5055
22.4609
26.2847
58.0315
36.1612
26.3245
36.2874
22.4446
21.3134
26.5256
20.974
28.5314
20.9811
28.6032
21.3027
22.469
26.283
58.2353
36.2607
36.3514
26.346
22.4489
21.3189
26.5608
28.5697
20.9796
28.6395
20.9882
21.3127
22.4558
26.2492
58.0844
36.1995
36.314
26.2982
22.4332
21.3156
26.5396
28.5405
20.9771
28.6117
20.9852
21.3052
22.7793
26.6981
60.2423
37.5964
37.8002
26.7926
22.7328
21.5366
27.4036
29.5241
21.1332
29.6658
21.158
21.5082
22.7861
26.7063
60.2688
37.6297
37.8329
26.8009
22.7385
21.5398
27.4058
21.134
29.5329
21.159
29.6755
21.5104
22.7818
26.6962
60.0129
37.5393
26.7926
37.7433
22.7355
21.5377
27.3794
21.1346
29.4975
21.1591
29.6429
21.5072
22.4532
26.2151
58.0174
36.1697
26.2714
36.2906
22.4327
21.3165
26.5346
20.9755
28.5393
20.9825
28.6099
21.3067
747.134
1613.93
4406.71
16443.6
116782
736.443
1611.05
4404.03
16448.1
116912
746.78
1613.92
4406.88
16445.5
116802
735.958
1610.7
4403.58
16445.8
116892
736.159
1610.64
4403.43
16444.3
116862
735.983
1610.75
4403.89
16448.1
116912
747.415
1614.19
4406.9
16445.5
116803
736.187
1610.88
4403.35
16444.4
116872
746.8
1613.9
4406.85
16445.7
116814
747.069
1614.06
4406.43
16442.8
116781
747.053
1614.1
4406.52
16442.5
116772
736.398
1610.92
4403.47
16445.3
116881
747.408
1614.13
4406.73
16444.4
116795
747.408
1614.13
4406.71
16444.6
116802
736.236
1610.96
4403.62
16445.8
116892
736.425
1611
4403.93
16447.6
116912
733.611
1608.94
4400.77
16437.3
116835
747.065
1613.79
4406.54
16443.4
116782
736.131
1610.71
4403.86
16448
116912
739.375
1611.42
4402.5
16433.9
116752
740.398
1610.77
4400.52
16428.8
116727
733.27
1608.84
4400.79
16438
116840
746.665
1613.75
4406.7
16445.3
116802
746.922
1613.94
4406.87
16445.5
116802
735.932
1610.58
4403.45
16445.7
116892
736.182
1610.74
4403.58
16445.8
116892
746.153
1614.01
4406.29
16443.8
116795
745.787
1613.66
4406.12
16443.8
116795
746.295
1614
4406.33
16443.8
116795
745.955
1613.67
4406.16
16443.8
116795
734.776
1611.89
4405.73
16451.3
116918
734.783
1611.89
4405.66
16451.6
116921
734.383
1611.52
4405.56
16451.2
116918
734.399
1611.52
4405.49
16451.5
116921
736.155
1610.55
4403.32
16444.2
116862
735.951
1610.64
4403.77
16448
116912
736.203
1610.79
4403.89
16448.1
116912
747.056
1613.83
4406.69
16445.4
116803
746.151
1614
4406.2
16442.9
116789
745.776
1613.65
4406.03
16442.8
116789
734.759
1611.9
4405.63
16451.4
116919
734.387
1611.53
4405.44
16451.3
116919
735.837
1610.51
4403.17
16444.3
116872
739.364
1611.4
4402.48
16433.2
116747
740.395
1610.75
4400.46
16428.6
116725
733.27
1608.84
4400.82
16438.1
116852
746.686
1613.73
4406.68
16445.5
116814
746.941
1613.92
4406.84
16445.7
116814
746.642
1613.66
4406.21
16442.6
116781
733.157
1608.83
4400.67
16436.9
116831
746.634
1613.7
4406.29
16442.4
116772
746.279
1613.96
4406
16441.2
116759
745.941
1613.63
4405.83
16441.1
116759
734.64
1611.89
4405.77
16451.1
116904
736.1
1610.58
4403.3
16445.2
116881
733.518
1608.97
4400.77
16437.3
116836
747.049
1613.77
4406.51
16444.2
116795
733.516
1608.94
4400.63
16437.2
116840
747.049
1613.77
4406.49
16444.4
116802
735.872
1610.6
4403.44
16445.7
116892
736.136
1610.66
4403.76
16447.6
116912
733.495
1608.92
4400.65
16437.8
116838
733.168
1608.83
4400.61
16437.2
116840
739.664
1611.35
4402.6
16434.3
116768
740.72
1610.77
4400.7
16429.8
116747
740.716
1610.71
4400.62
16429.7
116747
739.696
1611.44
4402.69
16434.4
116768
733.662
1609.06
4400.89
16437.4
116835
746.271
1613.95
4406.1
16442.1
116776
745.941
1613.63
4405.94
16442
116776
734.749
1611.82
4405.3
16448.9
116887
734.353
1611.45
4405.13
16448.8
116887
733.398
1609
4400.93
16438.1
116840
739.144
1611.27
4402.4
16433.8
116752
740.264
1610.75
4400.52
16428.8
116727
740.206
1610.64
4400.42
16428.7
116727
739.261
1611.41
4402.5
16433.9
116752
733.55
1609.04
4400.92
16438.1
116840
745.816
1613.72
4406.06
16442.2
116778
745.763
1613.61
4405.94
16442.1
116778
734.417
1611.67
4405.83
16452
116918
734.389
1611.55
4405.71
16451.9
116918
746.019
1613.73
4406.1
16442.3
116776
745.975
1613.62
4405.98
16442.2
116776
734.506
1611.66
4405.75
16452.1
116933
734.479
1611.55
4405.64
16452
116933
745.883
1613.78
4406.23
16443.5
116795
745.813
1613.66
4406.11
16443.4
116795
734.465
1611.63
4405.56
16450.9
116921
734.427
1611.52
4405.45
16450.9
116921
739.561
1611.34
4402.35
16433.7
116751
740.956
1611
4400.53
16428.8
116727
740.661
1610.7
4400.39
16428.7
116727
739.908
1611.66
4402.48
16433.8
116751
733.878
1609.29
4400.83
16437.9
116838
739.132
1611.26
4402.37
16433.2
116747
740.261
1610.73
4400.46
16428.6
116725
740.201
1610.63
4400.36
16428.5
116725
739.248
1611.4
4402.47
16433.2
116747
733.398
1609
4400.96
16438.2
116852
733.551
1609.03
4400.95
16438.2
116852
733.635
1609.23
4400.8
16437.3
116840
739.081
1611.39
4402.7
16435.1
116774
740.571
1611.07
4400.81
16429.1
116749
740.172
1610.72
4400.65
16429.1
116749
739.535
1611.76
4402.85
16435.2
116774
739.076
1611.37
4402.72
16435.2
116769
740.584
1611.05
4400.82
16429.8
116747
740.184
1610.7
4400.66
16429.7
116747
739.53
1611.74
4402.88
16435.3
116769
733.609
1609.23
4400.86
16437
116831
734.331
1611.55
4405.6
16451
116904
733.891
1609.34
4400.96
16437.4
116836
739.576
1611.37
4402.57
16433.8
116758
740.982
1611
4400.63
16428.6
116725
740.677
1610.71
4400.55
16429.1
116736
739.922
1611.69
4402.65
16433.3
116748
733.89
1609.31
4400.82
16437.3
116840
739.574
1611.35
4402.39
16433.8
116752
740.984
1611
4400.52
16428.8
116727
740.678
1610.7
4400.38
16428.7
116727
739.923
1611.68
4402.53
16433.9
116752
20.3583
20.8732
20.3267
20.1346
67.7032
20.1829
27.3721
242.446
67.6968
20.1835
60.046
27.3734
385.846
117.057
289.36
67.3178
80.0039
260.042
79.5691
259.731
289.644
412.378
242.123
129.825
129.446
412.32
289.377
67.3165
260.098
80.0289
259.815
79.607
289.664
385.76
74.7078
37.6746
116.682
251.74
37.4711
251.322
75.1377
74.6692
37.1907
37.0186
75.0862
175.642
393.553
393.506
175.966
33.5295
20.8599
23.86
23.7657
23.801
23.7146
33.6793
20.1243
20.1179
20.1239
20.124
20.118
21.506
27.248
29.6171
21.1578
29.47
21.1331
21.5336
22.7351
26.7735
59.7131
37.733
37.525
26.6777
22.7758
21.5089
27.2509
21.1588
29.6278
21.1344
29.4832
21.5375
22.4252
26.2834
26.2326
22.4372
20.868
20.3302
20.3549
20.1348
383.81
385.919
114.852
117.319
239.279
64.6217
58.0325
20.1698
26.5233
242.267
60.0083
383.698
385.834
74.4672
37.1244
114.546
250.089
249.784
36.9524
74.8612
74.8665
37.676
116.965
252.405
252.099
37.4695
75.2413
175.411
392.911
393.877
392.933
393.906
175.808
408.637
238.949
125.144
124.828
408.636
285.227
64.3092
255.613
76.3784
255.35
76.0764
285.495
412.355
241.922
129.669
129.272
412.314
33.3476
20.8555
23.7368
23.837
23.6872
23.7782
33.5087
20.1239
22.4354
26.3141
57.8104
36.2422
26.2586
36.1279
22.4453
21.3052
26.4656
28.5737
20.983
28.5066
20.9758
21.312
22.7287
26.7652
59.6794
37.6949
26.6693
37.4858
22.7685
746.589
1613.74
4406.69
16445.5
116814
735.772
1610.58
4403.46
16445.7
116892
733.639
1609.27
4401.02
16438.2
116852
747.103
1614.16
4406.91
16445.7
116814
736.203
1610.96
4403.63
16445.8
116892
739.526
1611.67
4402.56
16433.9
116752
740.084
1610.65
4400.43
16428.7
116727
740.565
1611.02
4400.58
16428.8
116727
739.129
1611.31
4402.4
16433.8
116752
739.515
1611.66
4402.54
16433.2
116747
740.083
1610.63
4400.38
16428.5
116725
740.548
1611
4400.52
16428.6
116725
739.118
1611.3
4402.37
16433.2
116747
733.249
1608.88
4400.82
16438.1
116852
745.613
1613.61
4405.95
16442.1
116778
746.067
1613.97
4406.11
16442.2
116778
734.232
1611.57
4405.73
16451.9
116918
734.655
1611.94
4405.88
16451.9
116918
736.003
1610.55
4403.33
16444.2
116862
735.794
1610.64
4403.78
16448
116912
746.961
1613.8
4406.55
16443.4
116782
746.567
1613.76
4406.71
16445.3
116802
736.408
1610.91
4403.5
16444.3
116862
736.235
1611.03
4403.96
16448.1
116912
733.85
1609.32
4400.96
16437.4
116835
747.404
1614.18
4406.76
16443.6
116782
747.072
1614.17
4406.93
16445.5
116802
734.359
1611.57
4405.65
16452
116933
734.307
1611.54
4405.46
16450.9
116921
733.637
1609.27
4400.99
16438.1
116840
733.251
1608.88
4400.79
16438
116840
745.855
1613.63
4405.99
16442.2
116776
746.282
1613.98
4406.15
16442.3
116776
745.7
1613.67
4406.12
16443.4
116795
746.153
1614.04
4406.28
16443.5
116795
734.779
1611.92
4405.63
16450.9
116921
734.825
1611.95
4405.82
16452.1
116933
739.937
1611.7
4402.75
16434.4
116768
740.62
1610.73
4400.64
16429.7
116747
741.005
1611.05
4400.77
16429.8
116747
739.63
1611.39
4402.6
16434.3
116768
733.555
1608.97
4400.76
16437.3
116835
20.8626
20.1025
20.3391
20.3089
20.8638
20.8725
20.8652
20.2956
20.307
20.8708
20.3376
20.3416
20.3417
20.8736
20.3062
119.037
116.908
20.8737
118.962
116.776
68.5277
241.776
65.8078
385.537
386.665
244.711
68.8062
20.1019
20.1023
20.1021
61.0654
20.1544
20.3389
27.5219
387.644
20.1396
59.0385
26.73
118.943
116.849
387.532
387.37
385.549
385.432
20.862
119.167
116.942
118.689
116.563
387.558
387.364
385.54
385.443
385.526
387.595
116.87
119.21
68.5187
241.824
243.371
65.8527
27.6133
59.1452
20.1369
20.1494
26.6589
27.6147
59.1436
20.137
20.3166
60.4881
20.1497
26.6652
116.848
119.139
20.8756
117.691
387.548
60.9678
20.1543
27.5202
244.85
68.8152
20.1549
61.0058
27.5213
244.898
68.809
20.1548
60.9781
27.5223
244.889
68.8108
119.142
116.771
385.521
20.139
59.0558
26.7334
241.76
65.8276
241.822
65.8245
387.435
385.495
177.961
395.145
394.469
395.17
394.493
177.668
76.7968
38.1436
253.571
118.734
253.257
76.5107
38.2642
76.1302
37.5278
253.877
116.572
253.55
75.8967
37.4748
178.123
395.306
394.628
395.044
394.362
177.82
76.4541
253.402
118.725
38.2968
253.257
76.6396
38.1422
75.7871
253.686
116.576
37.5573
253.544
75.861
37.4347
289.753
260.856
80.5977
67.5397
259.923
79.6764
290.233
410.471
241.049
127.366
127.112
410.068
411.772
242.523
128.644
288.413
66.652
258.172
77.8505
258.886
78.4781
287.962
385.033
385.932
413.753
244.877
131.727
131.93
413.629
291.839
69.024
81.3676
262.381
81.6005
262.503
291.665
387.755
76.8537
38.1551
253.525
119.143
76.5446
38.2998
253.678
76.0681
37.493
253.872
116.977
75.7902
37.5977
253.872
178.088
395.302
394.623
177.827
395.329
394.622
387.249
387.333
385.286
385.402
177.926
395.153
394.479
177.646
395.136
394.458
76.51
38.3042
253.624
118.905
76.7662
253.419
38.1389
75.9865
37.6048
253.94
116.728
75.9509
253.727
37.4748
177.634
395.252
394.579
177.959
395.249
394.577
76.7982
253.227
38.1154
118.979
76.5037
253.448
38.2732
76.1349
253.544
37.4245
116.68
75.834
253.709
37.5585
387.519
387.559
385.502
385.49
385.035
386.04
387.708
76.2022
37.6047
116.534
252.61
252.606
37.6576
75.9332
76.7402
38.125
119.387
254.799
254.928
38.2647
76.4439
116.725
37.5838
178.104
394.516
395.46
394.489
395.457
177.858
289.464
260.83
80.7152
67.5247
259.865
79.5559
290.39
410.633
241.123
127.402
127.151
410.022
411.507
129.708
242.399
128.357
412.531
288.599
66.6455
258.136
77.8552
258.911
78.5852
287.825
178.124
393.751
393.596
395.19
76.0327
37.5402
116.55
253.8
253.478
37.5896
75.8208
76.5618
38.2153
118.84
253.552
38.1848
253.285
76.5687
76.0044
253.252
116.795
37.9318
253.252
37.5501
76.0017
75.9268
118.821
38.1082
253.139
178.113
394.575
395.335
394.367
395.131
178.02
387.388
387.316
413.761
244.995
131.823
132.006
413.639
291.852
69.0386
262.401
81.4021
262.532
81.6389
291.679
291.662
68.7562
81.2924
262.094
413.694
244.602
131.895
131.635
413.6
413.61
244.476
131.543
291.874
69.0419
81.3957
262.412
81.6341
262.339
291.655
291.665
68.747
262.104
81.2935
413.687
244.63
131.898
131.662
413.586
413.597
244.412
131.519
291.879
69.0401
262.422
81.3962
262.371
81.6372
291.656
76.591
38.1596
119.343
254.625
254.789
38.2963
76.2474
76.215
37.5837
116.9
252.429
37.6816
252.534
75.9406
178.256
395.369
394.375
395.465
394.493
178.001
385.505
410.108
241.74
127.355
127.345
410.071
287.76
65.9196
77.9249
258.166
78.0145
258.069
287.707
410.119
241.787
127.38
127.363
410.078
287.736
65.9054
77.9138
258.137
78.009
258.039
287.675
387.612
387.304
385.61
33.9145
23.9157
23.7924
20.8733
33.7941
23.9603
23.8293
20.0907
20.0914
20.0867
33.9328
23.9184
23.7948
20.8761
33.8034
23.967
23.8351
33.8032
20.8617
23.9661
23.833
33.917
23.9164
23.7906
33.9344
23.8191
23.9127
20.8771
23.8565
23.9603
33.8073
33.9626
23.8215
23.9516
20.8801
23.9896
23.8518
33.8843
34.011
23.9376
23.8506
20.8857
23.8859
23.9826
33.8951
33.7738
20.8631
23.9662
23.8336
33.8896
23.9174
23.7949
20.0902
20.0909
20.0867
20.0909
20.0904
20.0866
20.0908
20.0903
20.0864
22.8541
26.9193
60.9491
38.1357
26.9903
38.2568
22.8129
22.8116
60.8668
26.9386
38.1301
21.57
27.6258
29.8343
21.1501
29.9518
21.1762
21.5395
22.5211
26.4735
59.1614
36.7611
26.5221
36.8226
22.5012
21.3436
26.7669
20.9857
28.8714
20.9949
28.9096
21.3348
33.9352
20.8725
23.9111
23.7865
33.8113
23.9624
23.8277
21.4406
29.8091
21.1677
27.2217
29.409
21.089
21.5398
22.4804
26.5112
58.8233
36.7753
36.733
26.4551
22.5089
22.6943
59.7965
37.5042
26.6431
21.3409
26.9698
28.7862
20.9776
29.0414
21.0081
21.3325
21.4323
29.8486
21.1682
27.2244
29.3883
21.0893
21.5451
22.4962
26.4871
58.8207
36.769
36.7876
26.4333
22.5088
22.5773
37.9509
59.5324
26.841
37.3447
22.8042
26.5157
21.3461
26.9789
28.7823
20.9785
29.0837
21.0094
21.3326
33.8837
20.8714
23.8909
24.0014
23.9594
23.8173
33.998
22.8578
26.9131
61.195
38.1294
38.2884
26.9977
22.8118
21.5704
27.6237
29.834
21.1523
29.9519
21.1788
21.5396
22.8644
26.9248
61.2341
38.159
38.3147
27.0091
22.8171
21.5732
27.6264
21.153
29.8423
21.1797
29.9612
21.541
22.8649
26.9324
61.2054
38.1522
27.0173
38.3054
22.8177
21.5724
27.6269
21.1509
29.8391
21.1776
29.9574
21.5404
22.5248
26.4549
59.1846
36.7786
26.5041
36.8413
22.506
21.3446
26.7673
20.9866
28.8749
20.9955
28.9121
21.3359
20.1224
20.3573
20.3222
20.8611
20.1013
20.3387
20.3077
20.8618
20.1019
20.3392
20.3081
20.8627
20.1015
20.3386
20.308
20.8626
20.1015
20.3391
20.308
20.8627
20.1016
20.3386
20.3079
20.8625
20.1014
20.339
20.308
20.8624
20.1016
20.3385
20.308
20.8624
20.1015
20.3391
20.308
20.8626
20.1015
20.3385
20.308
20.8624
20.1014
20.339
20.308
20.8626
20.1015
20.3386
20.3079
20.8624
20.1014
20.339
20.3079
20.8625
20.1016
20.3386
20.308
20.8625
20.1015
20.3391
20.3081
20.8626
20.1015
20.3387
20.308
20.8711
20.3313
20.3322
20.8805
20.3562
20.3604
20.3601
20.3616
20.8795
20.3292
20.3275
20.8726
20.858
20.8739
20.3243
20.3294
20.3111
20.3109
20.8677
20.8735
20.3491
20.3538
20.3374
20.3414
20.3587
20.3401
20.3421
20.8666
20.8811
20.3247
20.3078
20.3069
20.8714
20.8626
20.8754
20.3117
20.3106
20.3113
20.31
20.8624
20.8796
20.3379
20.3418
20.3372
20.3411
20.342
20.3391
20.3411
20.8698
20.8823
20.3068
20.3082
20.3056
20.873
20.8635
20.8753
20.3124
20.3115
20.3112
20.3098
20.8681
20.8764
20.3384
20.3418
20.3372
20.3411
20.3425
20.3389
20.3412
20.8705
20.8823
20.3068
20.3081
20.3057
20.873
20.8634
20.8752
20.3119
20.3103
20.3112
20.3102
20.8642
20.8796
20.3382
20.3418
20.3371
20.341
20.3421
20.339
20.3412
20.8704
20.8822
20.3065
20.3081
20.3057
20.8731
20.8633
20.8751
20.3119
20.3112
20.3111
20.3098
20.868
20.8766
20.3382
20.3417
20.3371
20.341
20.3421
20.3389
20.3412
20.8703
20.8821
20.3065
20.308
20.3056
20.8728
20.8633
20.8751
20.312
20.3104
20.3111
20.3102
20.8644
20.8793
20.3382
20.3417
20.337
20.341
20.3422
20.339
20.3411
20.8702
20.8822
20.3065
20.308
20.3056
20.8727
20.8632
20.8751
20.3119
20.3112
20.3111
20.3098
20.8678
20.8763
20.3381
20.3416
20.337
20.341
20.3421
20.3388
20.3411
20.8703
20.882
20.3064
20.308
20.3056
20.8727
20.8632
20.875
20.3119
20.3104
20.3111
20.3102
20.8641
20.8795
20.3383
20.3416
20.337
20.341
20.3423
20.339
20.3411
20.8702
20.8821
20.3064
20.308
20.3056
20.8729
20.8632
20.8751
20.3119
20.3114
20.311
20.3098
20.8679
20.8764
20.3382
20.3416
20.337
20.341
20.3421
20.3389
20.3411
20.8703
20.8822
20.3064
20.308
20.3056
20.8728
20.8632
20.8751
20.3118
20.3104
20.3111
20.3102
20.8643
20.8794
20.3382
20.3416
20.337
20.3409
20.3421
20.339
20.3412
20.8703
20.882
20.3064
20.308
20.3056
20.8729
20.8632
20.875
20.3119
20.3113
20.311
20.3096
20.8679
20.8762
20.3382
20.3416
20.337
20.341
20.3422
20.3389
20.3411
20.8702
20.8821
20.3064
20.308
20.3055
20.8727
20.8631
20.875
20.3118
20.3102
20.311
20.3101
20.8639
20.8794
20.3381
20.3416
20.337
20.341
20.342
20.3389
20.3411
20.8702
20.8821
20.3064
20.308
20.3056
20.8729
20.8632
20.875
20.3118
20.3114
20.3111
20.3097
20.8679
20.8761
20.3383
20.3416
20.337
20.3409
20.3422
20.3388
20.3411
20.8703
20.8821
20.3064
20.308
20.3056
20.8727
20.8632
20.875
20.3119
20.3103
20.3111
20.3101
20.8639
20.8794
20.3382
20.3416
20.337
20.3409
20.3421
20.339
20.3411
20.8704
20.882
20.3064
20.3081
20.3055
20.8728
20.8633
20.8749
20.3119
20.3111
20.311
20.3097
20.8679
20.876
20.3383
20.3417
20.3369
20.3408
20.3422
20.3387
20.3409
20.8704
20.8818
20.3065
20.3079
20.3054
20.8725
20.8634
20.8754
20.3119
20.3104
20.311
20.3101
20.8641
20.8796
20.3382
20.3418
20.3369
20.3407
20.3421
20.3386
20.3407
20.8705
20.8822
20.3065
20.3082
20.3055
65.0327
240.731
384.571
68.1549
243.686
20.1316
20.132
20.1315
20.1323
27.4375
20.3603
60.3905
20.1836
386.955
26.5947
20.3313
20.1703
58.372
20.8732
117.674
115.597
65.7214
241.678
65.5135
241.621
385.373
385.38
68.8423
244.747
68.3249
244.715
20.1292
20.1235
20.1294
20.102
20.1041
20.1023
20.1041
27.4928
60.4437
20.1785
20.3518
27.365
60.9135
20.1724
387.531
387.422
26.6899
20.1643
58.5998
20.3153
26.6092
20.1572
58.7697
118.326
116.287
20.8685
118.616
116.583
65.8241
241.789
65.8489
241.594
385.566
385.41
69.0365
244.906
68.7846
244.674
20.1043
20.1036
20.1043
20.1023
20.1019
20.102
20.1018
27.6216
61.0138
20.1537
20.3391
27.4945
61.106
20.1552
387.605
387.434
26.7572
20.1388
59.0866
20.3089
26.7445
20.1402
59.0812
118.956
116.881
20.8744
118.919
116.764
65.8523
241.79
65.868
241.576
385.57
385.435
69.0236
244.784
68.7992
244.609
20.1039
20.1038
20.1039
20.1016
20.1019
20.102
20.1019
27.6133
61.0509
20.1536
20.34
27.5168
61.1215
20.1551
387.603
387.422
26.7541
20.1388
59.1308
20.3088
26.7506
20.1404
59.1013
119.042
116.896
20.8745
118.969
116.751
65.7973
241.795
65.8556
241.59
385.582
385.402
69.0235
244.826
68.8056
244.641
20.1037
20.1038
20.1037
20.1016
20.102
20.102
20.1018
27.6125
61.051
20.1534
20.3391
27.5177
61.1086
20.1552
387.604
387.418
26.7534
20.1386
59.1229
20.3088
26.7488
20.1404
59.1033
119.031
116.875
20.8743
118.959
116.74
65.8565
241.793
65.8629
241.593
385.579
385.426
69.024
244.832
68.8056
244.645
20.1038
20.1038
20.1036
20.1016
20.1019
20.102
20.1019
27.6121
61.0437
20.1534
20.3401
27.5175
61.1195
20.1553
387.588
387.431
26.7529
20.1386
59.1312
20.3086
26.7478
20.1404
59.1067
119.042
116.877
20.8742
118.97
116.747
65.8629
241.811
65.8816
241.61
385.584
385.403
69.0237
244.833
68.8057
244.647
20.1037
20.1038
20.1036
20.1015
20.102
20.102
20.1019
27.6119
61.0508
20.1534
20.3391
27.5173
61.1078
20.1552
387.615
387.432
26.7539
20.1385
59.1209
20.3087
26.749
20.1403
59.1071
119.032
116.876
20.874
118.956
116.741
65.8637
241.798
65.8835
241.582
385.575
385.42
69.0244
244.834
68.8062
244.647
20.1038
20.1038
20.1036
20.1016
20.1019
20.102
20.1019
27.6117
61.0438
20.1534
20.3401
27.5169
61.1205
20.1553
387.59
387.432
26.7547
20.1386
59.1234
20.3088
26.7497
20.1403
59.1119
119.041
116.874
20.8741
118.969
116.746
65.8583
241.803
65.8814
241.605
385.578
385.397
69.0238
244.833
68.8061
244.647
20.1037
20.1038
20.1037
20.1016
20.102
20.102
20.1019
27.6116
61.0521
20.1533
20.339
27.5169
61.1108
20.155
387.608
387.425
26.7575
20.1386
59.1236
20.3087
26.753
20.1404
59.1032
119.032
116.873
20.8741
118.96
116.74
65.8616
241.795
65.877
241.582
385.573
385.42
69.0244
244.833
68.8061
244.647
20.1038
20.1038
20.1037
20.1016
20.1019
20.102
20.1019
27.6117
61.0445
20.1534
20.3401
27.5169
61.1297
20.1552
387.607
387.425
26.7559
20.1386
59.131
20.3088
26.7523
20.1404
59.1067
119.047
116.876
20.8742
118.976
116.746
65.8533
241.803
65.8788
241.605
385.578
385.397
69.0238
244.833
68.806
244.647
20.1037
20.1038
20.1037
20.1015
20.102
20.102
20.1019
27.6116
61.0516
20.1534
20.339
27.517
61.1125
20.1552
387.607
387.425
26.7576
20.1386
59.1314
20.3088
26.7532
20.1404
59.1023
119.034
116.872
20.8741
118.96
116.74
65.8627
241.795
65.8799
241.594
385.571
385.432
69.0244
244.856
68.8062
244.654
20.1038
20.1038
20.1037
20.1016
20.102
20.102
20.1019
27.6117
61.0472
20.1534
20.3401
27.517
61.1263
20.1553
387.606
387.424
26.7537
20.1386
59.1243
20.3088
26.7497
20.1404
59.1044
119.043
116.879
20.8742
118.971
116.769
65.8642
241.813
65.8833
241.611
385.577
385.396
69.0241
244.849
68.8061
244.65
20.1037
20.1038
20.1036
20.1015
20.102
20.102
20.1019
27.6116
61.0511
20.1534
20.3391
27.5169
61.1116
20.1552
387.606
387.425
26.7529
20.1385
59.1224
20.3086
26.747
20.1403
59.1052
119.032
116.889
20.8741
118.957
116.752
65.8636
241.795
65.8836
241.582
385.571
385.432
69.0244
244.833
68.806
244.647
20.1038
20.1038
20.1037
20.1017
20.1019
20.102
20.1019
27.6116
61.0473
20.1534
20.3399
27.517
61.1263
20.1553
387.606
387.425
26.7553
20.1387
59.1229
20.3088
26.7514
20.1405
59.1043
119.041
116.884
20.8741
118.964
116.772
65.8629
241.803
65.8846
241.608
385.581
385.413
69.0239
244.833
68.8061
244.649
20.1037
20.1038
20.1037
20.1015
20.102
20.102
20.1019
27.6117
61.0553
20.1534
20.339
27.5171
61.1109
20.1552
387.605
387.428
26.7585
20.1385
59.1224
20.3088
26.7536
20.1402
59.1052
119.033
116.89
20.8741
118.958
116.753
65.8576
241.792
65.8777
241.603
385.562
385.427
69.0246
244.83
68.8061
244.654
20.1038
20.1038
20.1037
20.1016
20.102
20.102
20.1019
27.6115
61.0446
20.1535
20.34
27.5172
61.1301
20.1552
387.6
387.437
26.7586
20.1386
59.1234
20.3088
26.7544
20.1404
59.1036
119.04
116.882
20.874
118.972
116.773
65.8628
241.791
65.8813
241.627
385.565
385.422
69.0245
244.828
68.8056
244.684
20.1037
20.1038
20.1036
20.1025
20.1019
20.1021
20.102
27.6117
61.0521
20.1534
20.3389
27.5186
61.1139
20.1552
387.587
387.479
26.7577
20.1386
59.1317
20.3087
26.7544
20.1403
59.1019
384.881
387.005
20.8754
115.616
118.195
385.296
384.888
387.424
387.117
20.8628
116.103
118.592
115.414
117.951
65.0458
240.473
26.5912
20.3343
58.4524
20.1718
26.5978
20.3325
58.3914
20.1701
64.8818
241.5
240.619
65.4066
64.8935
241.061
240.387
65.2806
26.5442
20.3337
58.6974
20.168
58.3145
20.1707
26.6331
26.5539
20.3327
58.6155
20.1688
58.2407
20.1699
26.6304
20.88
115.596
117.861
386.564
385.24
384.807
20.8689
116.061
118.348
115.402
117.712
387.153
386.829
27.4271
20.3592
60.4778
20.1849
68.1623
243.781
27.4317
20.3629
20.1856
60.5076
67.9782
244.652
243.708
68.5115
27.3099
20.3585
60.6748
20.1809
60.2281
20.1838
27.4581
67.9907
244.597
243.719
68.5076
27.3159
20.3626
20.182
60.7061
20.1847
60.2573
27.4625
68.1517
243.399
27.4399
20.362
20.1839
60.3844
68.1548
243.418
27.3208
20.3605
60.6412
20.182
60.1493
20.183
27.4712
67.8828
244.043
243.279
68.3968
27.3237
20.3622
20.1827
60.5993
20.1836
60.1462
27.4648
67.8912
244.062
243.287
68.4065
20.8826
118.003
115.559
384.544
387.399
387.065
20.8703
118.592
116.048
117.978
115.299
385.2
384.818
26.6002
20.3278
20.1691
58.3381
65.058
240.395
65.076
240.393
26.5446
20.3308
20.1685
58.5864
20.1698
58.2094
26.6405
26.5511
20.3281
20.1677
58.6049
20.1688
58.1869
26.6374
64.9041
241.268
240.475
65.279
64.9261
241.283
240.461
65.2915
386.543
384.596
20.8619
118.247
116.14
117.448
115.417
387.112
386.751
385.224
384.861
385.31
385.391
387.453
387.502
115.927
118.352
20.8688
116.615
119.097
385.436
385.389
387.545
387.53
20.8582
116.79
119.314
116.42
118.853
65.6857
240.928
65.1315
241.574
26.6979
58.5611
20.1611
20.3188
26.5907
59.0328
20.1531
26.6844
58.4691
20.1658
20.3238
26.5855
58.8954
20.1586
65.5569
241.759
241.591
65.8591
65.5283
241.766
241.615
65.8446
26.655
20.3128
59.1663
20.1402
58.8944
20.1434
26.7574
26.6432
20.3154
59.1137
20.1415
58.746
20.1471
26.7518
115.862
118.096
20.874
116.568
118.734
387.17
387.342
385.467
385.403
20.8609
116.852
119.074
116.389
118.495
387.416
387.37
27.5376
60.4397
20.173
20.344
27.346
60.9804
20.1653
68.7829
244.427
68.2242
244.766
27.5344
20.1745
60.4622
20.348
27.3522
20.1666
61.0089
68.5526
245.007
244.566
69.0382
27.4342
20.3386
61.1778
20.1539
60.7453
20.1565
27.6141
68.5042
244.966
244.617
68.9941
27.4317
20.3428
20.1548
61.2158
20.1575
60.7703
27.6146
68.6408
243.889
68.1014
244.581
27.4893
20.1799
60.3353
20.3535
27.3421
20.1731
60.8626
68.6369
243.892
68.1163
244.575
27.3802
20.3441
61.1395
20.1553
60.6587
20.1617
27.5882
68.3595
244.808
244.447
68.9102
27.3777
20.3457
20.1562
61.0831
20.1618
60.6119
27.5817
68.3612
244.803
244.42
68.9058
118.351
115.839
20.8747
118.977
116.419
385.202
385.345
387.496
387.452
20.8638
119.336
116.857
118.972
116.16
385.455
385.361
26.6844
20.165
58.4446
20.3195
26.5856
20.1581
58.8591
65.6858
241.178
65.1256
241.578
65.676
241.165
65.1412
241.574
26.6408
20.3091
20.1405
59.1192
20.1468
58.6108
26.7569
26.6364
20.3112
20.1408
59.0784
20.1466
58.7047
26.7519
65.5302
241.834
241.465
65.8417
65.5261
241.833
241.43
65.8451
387.137
387.342
385.227
385.424
20.8564
118.995
116.889
118.366
116.383
387.419
387.359
385.463
385.432
385.426
385.429
387.565
387.513
116.601
119.055
20.8753
116.871
119.393
385.459
385.439
387.517
387.529
20.8633
116.876
119.353
116.675
119.114
65.9421
241.673
65.6847
241.946
26.7621
58.9979
20.1412
20.3117
26.7082
59.2054
20.141
26.7776
58.9622
20.1418
20.3107
26.708
59.2528
20.1413
65.665
241.759
241.557
65.8996
65.7874
241.808
241.808
65.9588
26.7091
20.3113
59.193
20.1397
59.0363
20.1399
26.7692
26.7281
20.31
59.1884
20.1397
59.073
20.1397
26.7839
116.676
118.805
20.8755
116.961
119.204
387.438
387.54
385.472
385.413
20.864
116.874
119.186
116.672
118.971
387.457
387.562
27.6171
60.9102
20.1551
20.3379
27.4955
61.1943
20.155
69.0307
244.791
68.6915
244.96
27.6236
20.1559
60.9483
20.3418
27.5003
20.1558
61.2596
68.7143
244.894
244.513
69.0679
27.4912
20.3371
61.1683
20.1536
60.9071
20.1537
27.6216
68.717
244.898
244.766
69.0267
27.4968
20.3411
20.1543
61.2203
20.1544
60.9721
27.6228
69.0247
244.665
68.6164
244.916
27.618
20.1565
60.8146
20.342
27.4682
20.1561
61.1838
69.0226
244.647
68.6187
244.905
27.4935
20.3389
61.215
20.1538
60.8296
20.1549
27.6285
68.7139
244.865
244.741
69.023
27.4926
20.3411
20.1545
61.1825
20.1545
60.898
27.6207
68.7167
244.901
244.723
69.0273
119.061
116.654
20.8817
119.274
116.788
385.467
385.427
387.506
387.469
20.8695
119.282
116.896
119.164
116.461
385.452
385.44
26.7706
20.141
58.9798
20.3066
26.7015
20.1405
59.1266
65.9451
241.744
65.6789
241.794
65.9474
241.773
65.692
241.745
26.705
20.3085
20.139
59.2326
20.1399
58.9088
26.7881
26.7176
20.3057
20.1389
59.1105
20.1389
58.952
26.7774
65.8055
241.863
241.644
65.911
65.8195
241.761
241.74
65.9244
387.444
387.439
385.464
385.48
20.8616
119.173
116.95
118.662
116.559
387.423
387.459
385.463
385.497
385.459
385.438
387.517
387.495
116.677
119.079
20.875