/*--------------------------------*- C++ -*----------------------------------*\
| =========                 |                                                 |
| \\      /  F ield         | OpenFOAM: The Open Source CFD Toolbox           |
|  \\    /   O peration     | Version:  2206                                  |
|   \\  /    A nd           | Website:  www.openfoam.com                      |
|    \\/     M anipulation  |                                                 |
\*---------------------------------------------------------------------------*/
FoamFile
{
    version     2.0;
    format      ascii;
    arch        "LSB;label=32;scalar=64";
    class       volScalarField;
    location    "70";
    object      omega;
}
// * * * * * * * * * * * * * * * * * * * * * * * * * * * * * * * * * * * * * //

dimensions      [0 0 -1 0 0 0 0];

internalField   nonuniform List<scalar> 
401248
(
17.6962
22.672
22.553
24.8553
25.1597
22.6717
22.429
24.7537
22.9893
22.9164
22.7668
24.9877
22.4476
294.3
115.502
410.438
297.078
120.224
17.6317
17.6447
17.6815
105.944
19.8279
43.0331
411.015
19.6077
100.845
42.3465
176.999
171.026
409.419
411.267
177.588
180.875
293.508
110.576
105.906
19.6642
43.1799
97.4222
19.6656
41.8819
171.155
176.435
411.88
108.965
19.9527
45.5666
296.539
119.828
19.923
108.442
45.5339
295.549
113.095
19.8502
100.315
44.2275
294.16
112.246
179.929
174.581
410.233
19.6089
101.783
41.7521
293.051
111.437
291.616
107.334
412.439
411.069
426.209
290.638
188.164
185.445
426.527
328.728
112.457
305.57
132.439
303.004
124.081
328.167
409.729
333.176
119.145
136.902
309.378
428.549
293.837
192.381
186.263
429.194
430.438
297.01
192.489
332.672
116.494
137.8
309.544
133.983
308.474
332.601
410.948
411.802
129.234
63.6929
175.999
304.386
68.7934
306.34
126.561
128.838
65.9066
177.888
305.247
67.6353
306.066
126.974
232.019
415.263
415.268
415.115
415.043
230.516
410.041
411.402
411.949
131.559
68.7462
170.442
305.5
302.572
63.6344
124.891
132.026
69.9302
178.112
307.501
306.272
64.6975
125.323
234.438
413.122
414.186
413.513
414.573
229.96
428.111
292.714
185.329
187.581
428.66
329.021
113.426
303.632
124.889
305.916
133.376
328.78
127.585
63.6409
178.024
305.984
305.205
68.8856
125.17
129.245
67.842
178.553
306.331
66.8046
305.402
126.911
232.423
415.383
415.398
413.963
414.414
231.17
412.113
333.108
119
309.382
136.601
428.361
294.531
191.736
184.757
429.067
429.805
294.776
191.306
332.603
116.317
309.493
137.35
308.48
133.63
332.497
430.444
296.437
188.159
190.396
430.926
332.152
110.583
130.855
307.897
127.896
309.655
332.248
430.026
296.698
189.35
187.837
430.962
332.477
120.063
309.599
134.789
308.96
133.105
332.543
130.279
69.5284
173.402
306.883
304.317
64.2727
127.948
131.022
68.5595
173.114
304.414
63.3459
303.879
124.282
234.117
413.959
414.923
414.33
413.302
230.076
410.628
426.842
293.882
185.896
184.398
429.097
328.975
113.991
129.275
305.749
128.872
305.126
328.916
427.992
294.553
181.216
188.091
429.08
329.063
115.462
124.464
305.229
133.131
306.054
328.846
411.653
409.782
16.6138
16.6618
16.0448
59.4231
34.9843
34.6135
24.929
34.2873
33.9919
55.6502
61.3875
36.2821
36.727
24.6404
35.1124
34.8113
57.2992
60.4294
35.5311
34.5573
24.6715
36.5513
36.0654
59.411
61.0764
36.5347
36.1717
24.2351
34.141
35.811
60.1681
16.6017
16.6677
16.0463
16.5854
16.5365
16.0014
16.6654
16.6084
16.089
32.4788
44.1448
104.393
65.4473
45.1858
63.9098
31.9643
27.9208
42.1491
49.2988
25.6429
50.6265
25.4316
27.5852
32.1167
44.5805
97.9203
63.4791
43.7608
61.6479
31.2782
27.2401
41.5265
24.7743
46.1493
25.4817
49.6259
26.9031
32.0269
44.2397
98.6962
66.3194
61.4399
42.5029
30.9609
27.4989
42.2831
48.663
25.494
45.4222
25.2738
26.8268
31.4722
42.6481
104.864
64.2508
65.8048
43.6694
31.0065
27.1137
41.3746
47.7163
25.269
48.8614
25.0975
26.8418
33.214
45.6556
101.633
70.0222
68.3123
42.8839
32.8167
28.3201
43.6978
52.0332
26.4157
48.6343
25.5715
28.0667
32.7451
45.0969
100.953
69.0273
67.3829
42.2544
32.3045
28.1986
42.905
26.3837
51.5411
25.6244
48.2723
27.9402
32.8558
43.8385
107.807
65.4457
44.9653
63.7938
31.6892
27.9992
43.8447
26.013
47.5942
25.9474
51.3702
27.5863
31.771
42.9403
104.542
64.1729
43.9172
63.0976
31.3728
27.0711
42.7072
24.71
46.6458
25.4987
45.5212
26.843
748.174
1615.79
4421.26
16477.6
116782
730.253
1596.95
4389.28
16427.1
116912
747.789
1615.82
4421.41
16479.5
116802
728.083
1596.2
4388.75
16424.7
116892
728.715
1596.26
4388.67
16423.2
116862
728.575
1596.35
4389.08
16427
116912
749.561
1616.38
4421.5
16479.6
116803
730.009
1596.76
4388.58
16423.4
116872
747.832
1615.74
4421.36
16479.5
116814
749.199
1616.21
4420.97
16476.8
116781
748.92
1616.19
4421.05
16476.4
116772
730.1
1596.79
4388.72
16424.2
116881
749.33
1616.28
4421.31
16478.5
116795
749.46
1616.31
4421.29
16478.4
116802
730.033
1596.83
4388.84
16424.8
116892
730.149
1596.86
4389.15
16426.6
116912
725.025
1595.04
4387.27
16418.8
116835
747.838
1615.38
4420.86
16477.3
116782
729.512
1596.17
4388.91
16426.8
116912
735.945
1606.04
4405.47
16447
116752
734.531
1600.74
4394.71
16425.2
116727
724.7
1595.05
4387.38
16419.5
116840
747.879
1615.48
4421.07
16479.2
116802
748.257
1615.68
4421.35
16479.5
116802
728.766
1595.97
4388.51
16424.6
116892
728.023
1596.1
4388.7
16424.7
116892
747.962
1615.27
4419.36
16475.2
116795
747.14
1614.55
4419
16474.9
116795
748.12
1615.3
4419.44
16475.1
116795
747.26
1614.54
4418.99
16474.9
116795
728.935
1600.4
4396.65
16441.4
116918
729.077
1600.4
4396.57
16441.7
116921
728.082
1599.55
4396.27
16441.2
116918
728.25
1599.59
4396.24
16441.5
116921
728.94
1595.95
4388.37
16423
116862
728.986
1596.05
4388.84
16426.8
116912
728.093
1596.14
4389.02
16427
116912
748.509
1615.59
4421.06
16479.3
116803
748.299
1615.34
4419.29
16474.1
116789
747.196
1614.53
4418.86
16473.8
116789
728.83
1600.41
4396.55
16441.5
116919
727.956
1599.56
4396.18
16441.3
116919
729.28
1595.99
4388.26
16423.2
116872
735.689
1606.07
4405.45
16446.3
116747
734.649
1600.76
4394.67
16425
116725
724.655
1595.05
4387.43
16419.6
116852
747.472
1615.32
4421.01
16479.3
116814
747.396
1615.62
4421.3
16479.5
116814
748.14
1615.42
4420.55
16476.5
116781
725.755
1595.3
4387.29
16418.4
116831
748.081
1615.46
4420.67
16476.2
116772
748.188
1615.3
4419.13
16472.4
116759
747.25
1614.52
4418.67
16472.1
116759
728.794
1600.42
4396.71
16441.3
116904
729.521
1596.04
4388.37
16424
116881
726.014
1595.33
4387.33
16418.7
116836
748.744
1615.44
4420.8
16478.1
116795
726.008
1595.28
4387.18
16418.6
116840
748.536
1615.51
4420.8
16478.1
116802
728.884
1596.08
4388.51
16424.6
116892
729.567
1596.12
4388.81
16426.4
116912
726.273
1595.32
4387.2
16419.2
116838
725.859
1595.31
4387.25
16418.7
116840
735.619
1605.88
4405.47
16447.2
116768
735.185
1600.95
4395.03
16426.3
116747
735.572
1600.69
4394.7
16426
116747
736.059
1606.21
4405.75
16447.5
116768
725.799
1595.45
4387.62
16419.1
116835
748.361
1615.28
4419.16
16473.3
116776
747.315
1614.53
4418.78
16473
116776
728.98
1600.36
4396.22
16439.1
116887
728.115
1599.52
4395.86
16438.9
116887
725.606
1595.45
4387.66
16419.7
116840
735.162
1605.8
4405.28
16446.8
116752
734.756
1600.74
4394.73
16425.2
116727
734.463
1600.51
4394.48
16425
116727
735.409
1606.06
4405.47
16447
116752
725.673
1595.39
4387.6
16419.7
116840
746.844
1614.76
4419.15
16473.5
116778
746.485
1614.37
4418.82
16473.2
116778
726.875
1599.82
4396.72
16442
116918
727.222
1599.57
4396.43
16441.8
116918
747.002
1614.72
4419.14
16473.5
116776
746.656
1614.33
4418.77
16473.2
116776
726.803
1599.78
4396.67
16442.3
116933
727.562
1599.5
4396.37
16442
116933
746.807
1614.84
4419.3
16474.7
116795
746.899
1614.51
4418.97
16474.4
116795
726.853
1599.61
4396.42
16441.1
116921
727.561
1599.38
4396.16
16440.9
116921
736.563
1606.1
4405.25
16446.7
116751
736.875
1601.49
4394.86
16425.2
116727
736.242
1600.68
4394.46
16425
116727
738.045
1606.78
4405.57
16446.9
116751
727.675
1596.04
4387.59
16419.5
116838
735.147
1605.79
4405.25
16446.1
116747
734.964
1600.74
4394.68
16425
116725
734.423
1600.48
4394.44
16424.8
116725
735.468
1606.07
4405.46
16446.3
116747
725.597
1595.45
4387.7
16419.9
116852
725.593
1595.39
4387.66
16419.9
116852
727.319
1596.01
4387.55
16418.9
116840
736.069
1606.13
4405.61
16448.1
116774
736.356
1601.42
4395.04
16425.6
116749
735.666
1600.66
4394.75
16425.4
116749
737.628
1606.78
4405.86
16448.3
116774
736.089
1606.11
4405.64
16448.2
116769
736.471
1601.42
4395.06
16426.2
116747
735.724
1600.64
4394.74
16426
116747
737.631
1606.75
4405.85
16448.4
116769
727.345
1596.02
4387.62
16418.7
116831
727.998
1599.58
4396.36
16441.1
116904
727.182
1596.02
4387.69
16419
116836
736.628
1606.14
4405.46
16446.8
116758
736.966
1601.5
4394.97
16425
116725
736.14
1600.71
4394.63
16425.4
116736
738.121
1606.82
4405.75
16446.4
116747
727.37
1595.99
4387.55
16418.9
116840
736.573
1606.1
4405.27
16446.8
116752
736.938
1601.49
4394.86
16425.2
116727
735.878
1600.66
4394.46
16425
116727
738.059
1606.79
4405.61
16447.1
116752
25.0808
22.0794
22.7238
22.5918
24.9654
21.9915
24.5352
25.2074
17.6918
17.7418
409.359
412.47
178.162
179.559
294.681
104.159
295.255
115.017
109.034
19.6832
45.6969
293.908
111.482
19.7617
108.022
45.3295
412.546
180.26
177.165
410.25
105.181
294.126
409.528
409.359
411.807
410.945
173.936
175.756
25.0606
178.753
181.153
409.573
409.635
412.091
411.389
24.4268
179.991
181.895
172.552
175.933
409.587
411.196
119.549
68.385
176.912
305.814
303.73
67.1277
127.976
124.688
69.5885
177.479
307.475
307.525
68.064
127.339
231.515
413.645
414.151
415.13
416.589
232.281
293.8
190.034
188.911
425.998
429.848
298.098
187.689
194.684
430.5
333.589
121.899
128.504
307.411
139.744
310.611
332.732
429.914
297.825
187.619
194.522
431.255
333.872
123.01
308.668
133.029
310.879
139.42
332.244
411.387
124.558
69.3336
178.692
306.793
67.9554
306.27
127.241
119.198
68.3343
175.143
305.349
304.891
66.8638
127.681
227.851
414.576
413.698
415.701
414.946
233.367
410.594
293.59
186.916
185.065
427.912
409.069
409.925
410.609
411.507
235.466
413.091
414.048
413.488
414.394
233.164
132.1
65.2243
304.777
172.553
125.243
305.448
67.0048
130.814
66.5034
305.908
177.974
128.268
305.533
64.6376
231.854
413.904
414.484
232.106
413.375
414.143
129.125
306.298
172.535
69.2849
305.784
130.067
67.5855
123.13
308.114
178.598
71.0902
306.405
131.269
69.8304
410.221
409.625
411.958
411.029
235.583
413.737
414.786
231.813
414.461
414.507
133.375
69.7275
174.978
306.39
305.714
68.2637
124.172
132.938
70.7879
180.094
307.969
306.97
69.4
127.059
127.419
303.739
65.9046
178.771
129.82
305.836
67.6441
131.355
306.214
66.2735
175.073
131.092
307.634
65.7371
229.765
413.134
414.175
413.254
414.623
234.338
58.0284
24.9079
36.073
36.2913
35.6006
35.7134
59.4998
57.82
24.2737
36.3544
35.9991
35.865
35.4222
57.0833
61.2255
34.8406
35.4007
24.7838
59.9967
35.5642
35.201
63.1112
24.9784
36.5583
37.1151
36.0187
36.6553
59.9681
16.8074
16.7546
31.1213
43.8146
98.5069
64.8249
42.983
62.8052
31.385
32.1693
45.4038
107.503
69.2397
44.857
68.1353
31.8935
27.3755
44.9691
50.2158
26.3473
50.5885
26.147
27.1134
31.6565
45.148
105.859
68.2826
63.0082
44.6643
32.1517
27.2608
44.4524
25.3812
51.737
25.5303
50.8887
26.936
31.7921
44.3504
102.949
66.5138
43.6266
65.3058
31.9956
57.0757
24.8435
36.4277
36.9152
61.4624
35.8214
35.2735
62.7478
24.4278
35.0941
36.1396
59.8647
35.8554
36.6105
17.7126
23.163
22.6837
25.0724
17.7626
23.2178
23.0391
25.3514
17.7542
23.2621
22.9365
25.5185
17.754
23.3976
22.9378
25.6099
17.7589
23.3649
23.0525
25.6905
17.7699
23.4746
22.9992
25.669
17.7609
23.4509
23.0672
25.6821
17.7487
23.2908
23.1132
25.6737
17.7356
23.3143
23.0771
25.602
17.7363
23.3239
22.9599
25.4875
17.7314
23.331
22.949
25.4878
17.7511
23.3266
22.9743
25.5796
17.7448
23.3561
23.0565
25.6347
17.7175
23.2888
23.0419
25.7339
17.7461
23.2969
23.0902
25.7205
17.722
23.2916
23.0125
25.7178
17.7206
23.2823
22.9767
25.6034
22.745
22.7506
22.9452
22.9212
25.221
25.161
22.6993
22.7965
23.3972
23.1814
23.1433
22.6011
23.3132
24.2866
25.1111
22.5863
22.9162
22.8055
25.0031
24.5803
25.2814
22.5718
22.6868
23.0049
22.8544
24.3885
25.245
22.869
22.4778
23.2616
23.3812
22.8914
22.648
23.3709
24.7984
25.1251
22.1528
22.7939
22.903
25.3538
24.6203
25.2773
22.6372
22.1744
22.9985
23.0733
24.3719
25.3205
22.5312
23.0186
23.3813
23.3048
23.1625
23.2318
23.4367
24.5802
25.1322
22.6053
22.7854
22.9464
25.0419
24.8052
25.414
22.5327
22.5118
23.0664
22.9956
24.4159
25.4465
23.1022
22.7807
23.4202
23.2424
22.9658
23.0353
23.388
24.6704
25.274
22.1501
22.5172
23.1503
25.0981
24.9691
25.4595
22.6197
22.4616
23.1956
22.9394
24.6376
25.6273
22.5283
22.4746
23.5133
23.4076
22.8334
22.9273
23.4482
24.9495
25.2715
22.9117
22.4289
23.0834
25.5651
24.8881
25.4449
22.7569
22.245
23.1165
23.0097
25.2539
25.4132
23.2227
22.6314
23.3986
23.4052
22.9576
22.8824
23.5035
24.4491
25.3588
22.878
22.9241
23.1094
25.1353
24.9117
25.4585
22.4699
22.5128
23.2008
22.9433
24.6148
25.4908
23.0893
22.6376
23.3853
23.4533
23.0381
23.1405
23.3409
24.8551
25.4699
22.69
22.5329
23.0428
25.1056
24.9383
25.5173
22.6518
22.4068
23.1283
23.0239
24.5773
25.5094
22.8952
23.1652
23.3848
23.441
22.5311
23.1216
23.5175
25.0676
25.4217
22.5754
22.966
23.0266
25.4566
25.1678
25.5188
22.5294
22.4595
23.1231
22.9266
24.7823
25.4455
22.6572
22.5238
23.5231
23.4798
23.2277
23.1569
23.4115
24.984
25.3269
22.2463
22.8216
23.0844
25.2993
24.8778
25.5241
22.2211
22.2307
23.1607
23.1
24.6637
25.509
23.2275
23.1565
23.4317
23.373
22.7069
23.1586
23.4994
24.709
25.2479
22.5279
22.806
22.9923
25.2981
25.199
25.4943
22.9302
22.762
23.1179
23.0046
24.7232
25.3371
22.581
22.8171
23.515
23.2995
22.7404
22.9438
23.5243
24.6953
25.1758
22.3833
22.4057
22.9879
25.0023
24.695
25.621
22.6503
22.4863
23.1598
22.9174
24.7703
25.3758
23.2215
22.4281
23.3691
23.4012
22.9395
22.7504
23.4607
24.4405
25.2817
22.5393
22.5479
23.0655
25.5586
24.688
25.5015
22.7038
22.2268
23.1384
22.9758
25.0869
25.3731
22.9988
23.0527
23.3883
23.3228
22.9742
23.1338
23.4341
24.9599
25.3928
22.2059
22.9041
23.1071
25.1625
25.1672
25.4632
22.7864
22.7074
23.0812
22.9857
25.082
25.4589
22.9093
22.5306
23.3328
23.3635
23.004
23.1289
23.4346
24.4943
25.3547
22.5756
22.5734
23.0473
25.648
25.0621
25.5438
22.8359
22.6434
23.1109
23.0206
25.1492
25.4007
22.8507
23.003
23.3379
23.3324
22.9611
23.108
23.4558
25.0626
25.2797
22.1686
22.4378
23.0969
25.6178
25.1379
25.4969
22.6645
22.2011
23.0494
23.0962
25.1419
25.4602
22.4895
22.8394
23.458
23.2786
22.9916
23.1421
23.3911
25.0214
25.23
22.8417
22.4218
23.0137
25.4486
25.0162
22.5722
22.4545
24.5253
23.1334
22.7816
22.7138
22.8387
23.4623
24.6575
24.8126
22.7379
22.3395
23.0413
25.4277
118.417
292.202
118.295
295.043
409.607
410.42
123.28
295.84
117.89
297.973
17.6224
17.7312
17.6661
17.7643
17.6861
17.7616
17.7037
46.3258
111.532
20.0288
22.7712
111.244
19.804
46.9639
410.891
412.052
44.2641
19.6962
97.6205
22.8018
19.6385
108.862
43.8405
184.368
178.362
25.2117
183.757
179.964
118.971
296.086
119.252
295.931
409.459
409.711
123.479
298.825
124.019
298.362
17.692
17.7329
17.691
17.7422
17.716
17.7377
17.7486
46.8682
113.255
20.0578
23.042
46.5867
112.437
19.8946
411.177
411.172
44.4295
19.7876
108.872
22.4328
44.8923
19.7493
109.48
184.142
182.12
25.4435
183.391
181.657
118.305
296.289
118.952
296.087
409.566
409.817
123.954
298.935
123.867
298.438
17.7175
17.7187
17.719
17.7523
17.7479
17.7173
17.7701
47.0548
112.496
20.1129
23.019
46.8432
112.722
19.9974
411.865
411.261
44.4442
19.8559
110.379
22.3602
44.2193
19.7277
110.152
184.975
182.221
25.4827
184.171
181.791
118.603
296.373
118.826
296.164
410.295
409.614
124.342
298.906
124.438
298.573
17.7139
17.6992
17.7504
17.744
17.7464
17.6865
17.7895
46.9387
113.1
20.1642
23.0067
46.731
112.828
19.9922
411.125
411.205
44.8657
19.8538
111.089
22.1257
44.2547
19.5992
109.772
184.875
183.227
25.5881
183.639
182.094
118.373
296.553
119.165
296.296
409.579
409.84
123.27
299.165
124.336
298.75
17.7064
17.6524
17.7559
17.7715
17.728
17.6947
17.7507
47.1012
113.512
20.1514
22.5719
47.1856
113.071
19.8487
411.273
411.885
45.0705
19.9007
111.279
22.785
45.4605
19.8063
110.276
184.153
182.343
25.6016
183.779
181.866
119.173
296.767
119.018
296.069
409.915
409.982
123.294
298.604
125.271
298.479
17.686
17.6684
17.773
17.763
17.6741
17.6744
17.7149
47.0235
113.114
20.1892
22.667
47.0925
112.821
19.9176
411.205
411.907
45.0361
19.8603
110.503
22.7538
45.2325
19.8026
110.217
184.725
182.807
25.5489
184.001
182.11
118.877
296.583
119.617
296.379
409.948
409.734
124.038
298.774
123.861
298.158
17.6733
17.6506
17.7286
17.746
17.6714
17.7108
17.7048
46.6494
113.79
20.0754
22.8279
46.7326
113.227
19.9054
411.504
412.472
44.855
19.8333
110.935
22.6562
44.7375
19.5788
109.791
185.179
182.897
25.5228
184.015
182.056
118.228
297.199
119.751
296.408
409.872
410.023
124.082
298.525
124.842
298.61
17.6603
17.7095
17.6584
17.7379
17.6496
17.7239
17.6935
47.1262
113.709
20.057
22.7664
47.6209
113.321
19.7545
411.491
412.657
44.6033
19.8483
110.941
22.8471
44.6425
19.5876
110.426
184.201
182.514
25.573
183.819
181.684
118.531
296.291
120.386
296.329
410.02
409.889
124.155
299.36
124.914
298.692
17.5979
17.6965
17.652
17.7411
17.6428
17.7047
17.7028
46.9463
113.232
20.1281
22.8476
46.9764
113.168
20.0363
411.388
412.32
44.7904
19.8715
111.203
22.4407
45.1725
19.7014
110.409
184.251
182.859
25.5677
184.01
182.05
118.391
296.996
119.729
296.289
409.74
409.989
123.979
299.178
124.279
298.694
17.6022
17.6913
17.6622
17.7315
17.6541
17.6987
17.6994
46.726
113.055
20.0799
22.8464
47.0812
112.922
19.968
411.414
411.37
44.7821
19.8122
110.861
22.4975
44.4468
19.7433
110.415
184.784
182.787
25.5133
183.607
182.037
119.393
296.489
119.97
295.939
410.127
409.87
123.908
298.773
124.574
298.467
17.6399
17.6763
17.6856
17.7252
17.6641
17.6829
17.6908
46.8583
113.313
20.0761
22.9523
47.2013
112.959
19.9146
411.365
412.387
44.7237
19.7793
111.468
22.5952
44.9063
19.5232
110.652
183.782
182.737
25.5375
183.814
181.773
118.771
296.785
118.938
296.246
410.008
409.866
123.424
298.765
124.848
298.683
17.6478
17.6711
17.6745
17.7417
17.6598
17.6864
17.7025
46.7539
113.356
20.0701
23.0689
47.2536
112.444
19.7551
411.215
412.551
44.312
19.8355
110.657
22.2309
44.8104
19.6233
110.548
183.918
182.914
25.544
183.746
181.685
119.607
296.141
120.046
296.172
409.791
410.217
124.012
298.786
125.03
298.464
17.6324
17.6491
17.6773
17.755
17.6386
17.6931
17.7004
46.9497
114.178
20.1134
22.8335
46.7243
113.228
19.8138
411.658
412.698
44.3736
19.7736
110.695
22.7219
44.8036
19.552
110.224
184.395
182.699
25.4602
183.837
182.098
119.517
296.512
119.983
296.306
409.952
410.813
123.212
298.836
123.932
298.702
17.6132
17.6702
17.6704
17.7266
17.6591
17.689
17.7132
46.9119
113.175
20.1356
22.6764
47.38
113.318
19.993
411.632
412.305
44.5655
19.7726
110.229
22.1969
44.9755
19.6123
110.271
185.236
181.957
25.6218
184.285
181.99
118.974
296.534
119.355
296.302
409.752
410.754
123.455
299.044
124.207
298.655
17.6171
17.6491
17.6832
17.7292
17.6706
17.6853
17.729
46.8473
113.459
20.0972
22.7834
47.103
113.131
19.8401
411.532
412.329
44.8218
19.7907
110.618
22.8259
44.8235
19.5524
109.783
184.664
183.156
25.5832
183.922
182.258
119.008
296.354
119.39
296.267
409.843
410.005
122.954
299.208
124.373
298.634
17.6583
17.6703
17.6841
17.7028
17.6658
17.6626
17.7158
46.9789
113.576
20.0628
22.8166
47.2662
112.927
19.8643
411.354
411.442
44.74
19.8282
110.616
22.8238
45.2392
19.6828
110.333
184.399
183.164
25.5626
183.974
182.444
118.181
297.038
119.137
296.286
410.627
409.896
124.123
299.184
124.797
298.791
17.6217
17.6293
17.6972
17.638
17.6813
46.8109
113.154
20.0537
22.8264
47.3852
112.969
19.7591
411.174
412.371
44.8587
19.8195
111.634
22.8303
44.9819
19.7397
110.906
185.036
182.369
25.5304
184.108
181.965
118.47
295.553
295.398
118.48
44.3712
99.4982
19.6055
22.7692
19.7245
44.3561
108.322
44.2918
108.693
19.7225
22.5644
108.288
19.6423
44.3392
109.896
295.377
117.823
292.982
114.559
295.652
292.541
118.081
43.4629
22.7989
108.031
19.792
19.7551
44.2387
104.535
43.2706
22.3445
108.022
19.6385
102.036
19.6814
44.1108
179.799
181.063
25.2695
179.925
182.171
410.857
411.536
410.445
409.676
24.6175
179.746
182.082
174.372
176.875
410.636
412.223
46.4398
104.276
19.9763
22.5517
20.0441
44.4304
110.058
123.254
296.288
297.882
119.44
46.6147
19.6902
99.2054
22.8541
20.0201
111.007
44.2548
118.621
298.158
122.517
296.399
44.3378
23.3232
110.559
20.1251
20.0845
46.5344
105.164
116.199
297.945
293.97
122.927
45.2761
22.565
20.1297
111.202
19.9232
101.808
46.7161
122.367
297.411
297.732
122.215
46.1614
19.9779
113.537
22.4508
19.7152
113.132
46.0073
121.3
297.907
298.073
120.849
43.7755
22.6684
112.647
19.993
103.303
19.7899
45.9024
119.629
297.957
294.837
122.016
43.8163
23.1556
20.0629
111.655
20.011
106.491
46.2369
115.593
297.921
297.135
121.638
176.038
170.677
25.1808
180.915
179.456
410.424
410.074
411.09
410.999
24.8103
181.406
179.43
175.654
175.964
410.057
409.572
43.7528
19.5434
106.755
21.9531
19.6972
108.589
43.5349
117.957
292.417
294.995
116.501
117.602
294.187
294.856
116.191
41.3233
22.6515
19.6184
106.676
19.592
105.105
44.711
41.5677
22.6442
19.7527
108.257
19.7068
106.247
44.1363
110.112
295.349
294.181
117.856
115.026
295.127
292.674
117.841
411.223
411.449
409.184
409.134
24.7288
183.424
177.489
180.432
174.027
411.104
412.237
409.274
410.772
409.857
409.576
412.521
412.338
176.007
178.041
25.2742
179.811
182.826
410.736
409.971
411.178
411.504
24.5741
179.63
182.635
174.22
179.703
117.465
293.645
111.632
295.404
44.6494
102.189
19.5761
22.7602
41.2289
108.661
19.4851
44.3957
99.0401
19.5961
22.3808
43.4828
109.375
19.6486
116.652
295.6
293.288
112.935
111.206
295.474
293.178
118.163
43.4531
22.8647
109.229
19.7937
98.9705
19.7593
44.1885
43.2569
22.492
109.139
19.7185
106.713
19.6637
44.3393
174.525
176.871
25.1132
179.777
182.474
411.645
411.27
409.512
410.629
24.1836
180.679
181.881
171.536
176.207
410.871
411.94
46.391
105.437
19.7716
23.0635
43.8949
111.046
20.0493
122.148
296.674
115.406
298.05
46.3416
20.0441
108.048
23.1649
44.0321
19.903
111.026
116.715
297.208
297.166
117.817
44.6764
23.0886
112.453
20.1463
103.954
19.9305
46.7767
116.227
297.84
296.19
122.306
44.5168
22.8169
20.0675
110.923
19.9122
107.572
46.8301
123.566
297.331
112.957
298.735
46.0721
19.8264
105.682
22.7946
43.5264
20.0189
111.966
123.497
296.657
114.176
297.985
45.5334
22.787
111.135
20.0373
103.499
19.9902
44.5349
119.118
297.99
296.675
122.813
43.5067
22.9044
20.0889
111.571
20.0733
105.68
46.5326
114.646
297.992
295.497
123.019
177.451
174.292
25.1006
182.191
179.533
409.492
410.241
411.217
411.43
24.4992
182.116
180.196
178.365
176.41
409.343
411.06
44.2235
19.6332
100.351
22.7592
40.3183
19.6108
109.583
118.378
292.7
107.948
296.2
118.479
293.856
108.837
295.715
43.1133
22.2881
19.8566
104.998
19.6742
107.046
42.0267
40.7441
22.3904
19.8137
109.554
19.6111
101.622
44.3965
109.773
295.369
294.005
118.19
115.37
295.479
294.131
117.553
412.547
411.202
410.541
409.991
25.147
184.454
181.453
176.493
178.419
411.344
412.301
409.526
411.421
409.425
409.568
411.66
412.625
171.291
175.298
25.2707
181.137
183.991
409.678
410.042
411.78
411.38
24.5196
180.311
183.641
178.382
175.785
117.68
293.614
111.902
295.959
44.2685
106.479
19.6072
22.4715
43.3521
108.806
19.6982
44.1076
102.356
19.5747
22.8317
41.9192
108.621
19.6691
113.588
295.689
294.899
117.366
111.83
295.523
294.03
118.302
42.2676
22.4081
109.952
19.8009
106.043
19.7503
44.3287
40.8194
22.5318
108.777
19.7667
103.911
19.7062
44.6314
173.705
178.296
25.2839
180.756
183.066
411.969
411.466
409.694
410.403
24.8739
180.125
183.43
175.014
175.26
411.117
412.211
46.9264
103.488
19.8151
23.2402
45.6231
112.945
20.0905
122.801
296.351
117.23
297.9
47.1769
19.761
105.201
23.1487
45.7657
20.0417
111.027
118.827
297.376
296.058
122.843
45.1815
22.7944
111.6
20.1643
109.827
19.9481
46.9774
117.329
297.95
294.824
123.003
44.9682
23.1449
20.1346
111.384
19.9185
107.35
47.1341
123.012
295.43
117.182
298.024
46.5195
19.9915
105.834
22.8163
44.0729
19.8508
112.355
122.451
295.466
116.989
297.954
44.5336
23.1491
111.909
20.1221
104.535
20.0723
46.2114
115.212
298.101
296.347
123.81
44.3712
23.2201
20.173
112.169
20.1533
107.46
46.7269
116.186
298.431
296.98
123.14
177.182
177.374
25.0843
182.173
180.598
410.888
409.911
411.045
411.785
24.4582
182.076
180.84
177.053
177.899
409.682
410.746
44.5998
19.7657
104.101
22.7716
40.9142
19.7865
109.342
118.061
293.372
113.341
295.617
118.919
292.847
110.304
295.56
41.1615
22.2614
19.8146
110.479
19.7532
106.841
42.8799
41.3865
22.7818
19.8467
108.97
19.8022
104.32
44.5067
110.077
296.392
292.961
118.125
109.631
295.537
293.217
119.457
412.384
411.698
411.17
410.022
24.987
184.317
178.864
177.533
178.961
411.211
413.05
410.051
410.919
410.078
409.668
411.47
411.52
178.004
175.403
25.3389
180.184
183.959
410.534
410.053
412.372
412.284
25.0004
181.267
183.489
173.616
181.079
117.38
293.376
110.95
295.687
44.6276
107.242
19.6744
22.165
40.5796
109.947
19.6496
44.092
105.599
19.6356
22.115
43.5497
108.559
19.5853
115.466
295.907
294.418
117.99
111.992
295.38
293.001
117.652
43.593
22.9333
109.895
19.845
106.046
19.653
44.5405
43.2827
22.8695
108.836
19.8338
106.136
19.8377
44.3515
174.899
180.497
25.435
179.968
182.615
412.42
411.297
409.7
410.115
25.1455
180.261
183.183
175.744
175.99
411.111
412.908
47.3117
103.609
19.9275
22.7417
45.1655
112.971
19.7799
123.446
295.75
119.006
297.748
47.0723
20.0409
108.159
23.0208
45.5923
19.9293
111.539
121.363
297.346
296.917
118.871
46.2298
23.3005
112.794
20.1492
103.844
20.1065
47.2444
119.669
298.116
295.612
122.828
45.3205
23.0594
20.1055
112.354
19.8903
108.574
47.3333
123.112
295.848
119.413
297.765
46.4682
19.9857
109.327
23.1521
44.0191
20.0755
111.893
122.458
297.523
116.585
298.302
45.6593
22.8708
108.284
20.0902
105.415
20.0598
45.023
114.582
297.966
296.307
122.771
44.1216
23.2032
20.1602
112.811
20.1234
103.691
46.6758
117.036
297.947
296.176
122.681
176.657
177.068
25.1582
182.665
180.991
410.614
410.039
411.36
411.486
24.2743
182.671
180.515
177.442
178.902
409.557
411.338
44.7621
19.5913
106.212
22.844
41.6871
19.8478
109.5
119.125
295.321
109.17
296.077
119.439
293.57
111.4
295.681
43.4966
22.7672
19.7157
110.679
19.8346
101.984
43.5468
41.4126
22.5891
19.9024
109.481
19.8875
106.339
45.2119
115.313
296.278
292.983
118.379
116.885
296.089
294.679
119.158
412.281
411.479
411.278
410.138
25.2432
183.07
181.556
176.358
178.789
410.819
412.951
409.754
411.768
410.117
409.986
411.932
412.41
178.528
181.421
25.4101
180.556
183.82
409.842
410.384
412.553
411.897
25.0188
181.123
183.563
172.654
181.615
117.574
293.39
111.755
295.663
44.1881
104.038
19.6203
22.4279
42.3397
109.793
19.8427
44.4604
106.162
19.7131
22.7041
43.6652
109.698
19.6554
110.372
296.626
293.501
117.49
111.626
296.113
293.186
118.78
42.1466
23.1069
109.094
19.8889
103.467
19.7115
44.2913
43.2999
22.7574
109.67
19.8119
105.608
19.6243
44.5833
172.257
179.153
25.5821
181.476
182.891
412.138
411.531
409.7
410.961
24.742
180.659
183.698
178.004
175.091
411.183
412.261
46.9922
109.782
19.9299
23.2234
43.4005
112.176
20.0242
122.854
295.876
119.168
297.984
46.6277
19.9174
107.262
23.2
46.1288
19.7668
112.37
114.686
297.961
297.461
124.808
45.3219
22.9402
112.049
20.1312
110.016
20.0611
46.9562
116.41
298.072
296.399
123.244
45.6712
22.8166
20.1257
111.413
20.0853
106.164
46.8746
123.354
295.509
119.41
297.989
46.8606
20.0171
109.371
22.5211
45.1058
20.0675
111.975
122.661
295.956
117.26
298.57
45.3739
23.2323
111.84
19.9845
104.195
20.1236
45.1579
120.952
296.848
295.469
123.347
44.0867
23.3259
20.1249
112.058
20.0972
109.584
46.8246
116.307
298.234
297.218
122.875
175.631
178.151
25.2419
183.042
180.848
410.361
410.631
412.152
412.489
24.8774
182.554
180.286
178.057
177.63
410.099
410.126
44.9747
19.7908
103.297
22.6247
41.6069
19.7034
109.346
118.152
295.155
111.507
296.199
118.88
294.623
111.119
295.893
41.7784
22.5574
19.6596
105.175
19.7223
103.618
44.3884
43.2568
22.5179
19.9543
108.552
19.9447
103.16
44.6703
110
295.634
295.112
118.264
112.563
295.888
294.562
118.012
411.86
412.362
410.771
411.12
24.9394
184.242
182.305
176.468
175.203
411.047
411.839
409.857
410.515
410.247
410.768
411.644
412.303
178.251
181.046
25.4076
180.449
183.308
410.522
410.082
411.49
411.743
24.8727
180.374
183.191
176.651
180.931
118.281
293.784
113.829
295.774
44.6878
103.538
19.7768
22.5977
40.9515
109.767
19.669
44.2963
107.271
19.7581
22.9312
42.2483
109.16
19.6241
116.886
296.031
294.32
118.575
114.906
295.8
292.718
118.036
41.4839
22.5327
108.643
19.8163
103.004
19.6193
44.8423
41.9806
22.8425
108.61
19.8376
106.694
19.8144
44.3985
175.696
180.78
25.4802
180.837
182.788
412.916
411.986
409.704
410.301
24.7743
180.554
182.797
177.427
180.574
411.16
412.951
46.725
103.935
19.8014
22.9202
44.2761
113.474
20.0794
122.291
296.55
115.681
298.27
46.826
19.8705
102.049
23.3149
45.5741
19.7555
113.069
116.103
298.447
295.713
122.582
44.3354
22.7938
112.492
20.174
109.936
19.9524
46.7534
115.894
298.372
294.497
123.023
44.4577
22.8042
20.1219
113.01
20.082
110.672
46.6559
123.562
298.028
113.792
298.339
46.3782
19.9373
103.7
22.7307
44.0155
20.0197
113.08
122.09
296.591
116.099
298.194
43.0823
23.3252
108.434
20.0222
105.569
19.8246
46.2858
119.803
296.856
296.741
122.418
44.2063
23.3951
20.1307
111.862
19.9258
109.982
46.5055
116.659
298.197
295.136
122.306
177.825
173.189
25.3445
182.655
181.028
410.619
409.696
412.129
412.619
24.952
184.063
180.951
179.808
177.109
409.641
410.699
44.6245
19.6236
99.5792
22.5001
41.6827
19.8661
110.146
118.342
294.405
113.042
295.535
117.93
292.666
112.035
295.65
43.8585
22.8819
19.7212
110.397
19.7041
106.8
43.5189
42.2413
22.969
19.8742
109.937
19.7283
107.842
44.8518
114.212
296.2
294.875
118.751
112
296.165
294.76
119.11
412.837
411.497
410.755
410.25
25.1517
180.89
182.321
181.151
179.236
410.918
412.391
409.75
411.817
410.985
409.903
412.205
412.224
175.426
180.876
25.4324
180.598
183.274
410.941
410.532
412.395
412.801
24.8959
181.169
183.329
177.5
181.027
118.936
294.53
110.718
295.965
44.6358
100.951
19.5746
23.109
41.241
109.315