/*--------------------------------*- C++ -*----------------------------------*\
| =========                 |                                                 |
| \\      /  F ield         | OpenFOAM: The Open Source CFD Toolbox           |
|  \\    /   O peration     | Version:  2206                                  |
|   \\  /    A nd           | Website:  www.openfoam.com                      |
|    \\/     M anipulation  |                                                 |
\*---------------------------------------------------------------------------*/
FoamFile
{
    version     2.0;
    format      ascii;
    arch        "LSB;label=32;scalar=64";
    class       surfaceScalarField;
    location    "0.5";
    object      phi;
}
// * * * * * * * * * * * * * * * * * * * * * * * * * * * * * * * * * * * * * //

dimensions      [0 3 -1 0 0 0 0];

oriented        oriented;

internalField   nonuniform List<scalar> 
198849
(
-4.22486e-07
2.85143e-07
-5.15788e-07
3.72685e-07
-1.98426e-07
4.78872e-07
4.84756e-08
-3.47883e-08
-6.8313e-08
1.67243e-07
-1.49373e-07
-2.69695e-08
-4.031e-08
-3.46634e-08
-3.58561e-09
2.10815e-09
3.08679e-09
-3.97666e-09
4.86547e-08
5.51384e-08
3.72733e-08
2.39727e-08
4.36625e-08
-6.46168e-08
-9.31827e-08
-3.91364e-08
1.81965e-08
5.43654e-08
6.6703e-08
2.29181e-09
-7.14009e-09
7.20816e-09
-6.27445e-09
-1.66449e-08
1.79995e-08
-7.40414e-09
5.5712e-08
-7.23872e-09
2.23556e-08
-2.2909e-08
1.56993e-09
-4.94898e-08
-7.02481e-08
-2.72505e-07
-4.32466e-07
2.2831e-07
2.06201e-07
3.40708e-07
4.09994e-08
-1.03406e-08
-6.21684e-08
5.80657e-08
-3.38531e-08
-5.61965e-09
-1.49494e-08
-1.30886e-08
7.40872e-09
1.31631e-08
1.31653e-08
7.21751e-09
-7.94264e-08
3.14014e-08
-3.45519e-08
-1.4263e-07
2.08227e-07
3.06278e-08
1.17713e-08
1.49297e-08
-2.33888e-08
7.62937e-14
-7.96992e-09
-8.99028e-09
2.69961e-08
-8.99286e-09
-1.1e-08
7.62537e-09
4.51006e-09
-1.91386e-08
-7.66767e-08
-2.20541e-08
-1.81816e-07
5.20252e-08
4.57081e-08
1.82813e-07
3.77737e-09
-3.76808e-09
-2.02404e-08
2.71798e-08
4.15543e-09
-3.44727e-09
-5.57564e-09
-5.88155e-09
-3.50622e-10
2.39033e-09
1.42638e-09
3.34281e-10
-4.04965e-07
-3.06157e-09
4.5388e-08
-4.42894e-09
4.1894e-07
6.87808e-10
-5.03612e-09
-2.25252e-09
-1.89971e-08
-2.41569e-09
-1.95274e-08
-4.33148e-09
1.09329e-09
-9.32472e-09
1.0079e-09
-1.26918e-09
7.41508e-09
1.07763e-09
2.29603e-08
-2.84686e-08
-2.05699e-07
7.52663e-08
-4.90056e-08
1.84947e-07
-2.86128e-08
-1.91986e-09
-3.30729e-08
1.07921e-08
4.00227e-08
-9.85384e-10
-3.46834e-09
-3.19047e-09
4.34961e-09
5.78797e-09
6.51758e-09
3.77977e-09
-4.37267e-07
5.09657e-09
4.47979e-08
4.89169e-09
4.21507e-07
5.20366e-09
3.68247e-09
4.77035e-09
-1.43874e-08
-1.26495e-08
-1.48962e-08
-1.07496e-08
-1.04226e-08
-1.35539e-08
-3.11439e-09
1.45814e-09
1.30721e-08
1.25606e-08
2.42059e-08
-1.58134e-08
-1.09785e-07
2.51754e-08
-3.23813e-08
1.08599e-07
-7.10828e-08
1.58742e-09
-1.64135e-08
-8.33027e-09
8.00018e-08
1.76704e-09
1.09268e-09
1.17277e-09
2.01282e-09
3.04258e-09
3.31139e-09
1.83809e-09
-3.60858e-07
6.07283e-09
-3.72835e-09
3.81933e-08
2.51284e-07
8.77252e-09
5.2319e-09
7.95135e-09
1.2315e-08
1.15931e-08
1.30213e-08
1.01514e-08
-3.34745e-08
-5.42621e-09
-1.34459e-08
9.40528e-09
7.5852e-09
3.53562e-08
6.81636e-09
-2.09317e-09
-1.12708e-07
2.17857e-09
-8.4219e-09
1.14228e-07
-1.00675e-07
1.57025e-09
-3.6251e-09
-8.59782e-09
1.04911e-07
1.53053e-09
1.27591e-09
1.27279e-09
3.21272e-10
7.92917e-10
7.80663e-10
4.42028e-10
-1.11673e-07
1.61878e-09
3.53482e-09
-1.1076e-08
1.15326e-07
1.72797e-09
2.05324e-09
1.98736e-09
-7.02852e-10
-1.10837e-09
-6.43083e-10
-1.04547e-09
-2.99241e-08
5.13159e-09
-5.87291e-09
5.26726e-09
-4.00881e-09
2.9407e-08
1.70811e-09
-1.4212e-10
-1.17223e-07
1.65084e-10
-2.16528e-09
1.17657e-07
-1.10955e-07
3.85638e-10
-4.11737e-10
-2.04028e-09
1.11684e-07
4.22927e-10
3.84625e-10
2.96799e-10
-4.29266e-11
1.47816e-10
1.19436e-10
9.12157e-12
-1.16175e-07
2.90609e-10
2.1754e-09
-1.5508e-09
1.15466e-07
3.06301e-10
3.33201e-10
2.41776e-10
-2.66275e-10
-2.50031e-10
-3.11598e-10
-2.58991e-10
-2.7947e-08
6.28673e-10
-3.3921e-10
4.22778e-10
-4.51931e-10
2.76867e-08
3.38665e-10
-1.17239e-11
-1.18175e-07
2.45483e-11
-3.96549e-10
1.1822e-07
-1.12502e-07
4.08527e-11
-6.11996e-11
-3.51709e-10
1.12573e-07
1.02388e-10
1.02674e-10
3.75456e-11
-4.98964e-11
7.93134e-11
7.51566e-11
-4.61432e-11
-1.14259e-07
-1.25239e-11
2.81333e-10
-6.35566e-11
1.14082e-07
4.43442e-11
6.48959e-11
5.33238e-12
-3.29302e-11
-1.34844e-11
-3.76948e-11
-5.80489e-11
-2.74959e-08
9.26754e-11
3.26671e-12
9.75322e-11
-2.2648e-11
2.7325e-08
8.24494e-11
2.24082e-11
-1.18227e-07
-9.00566e-12
-7.91696e-11
1.1821e-07
-1.12618e-07
-1.6353e-11
-3.69654e-11
-7.1481e-11
1.12612e-07
5.00356e-11
5.22261e-11
-1.41629e-11
-5.12862e-11
7.10438e-11
7.30355e-11
-5.03552e-11
-1.13814e-07
-2.98091e-11
1.13647e-11
-2.15312e-11
1.13772e-07
2.77848e-11
4.91788e-11
-9.0456e-12
4.5106e-12
3.11792e-11
2.89778e-12
-2.40795e-11
-2.74174e-08
2.75874e-11
2.69928e-11
6.62445e-11
3.43204e-11
2.72623e-08
4.00082e-11
2.97338e-11
-1.18146e-07
-1.85489e-11
-2.95513e-11
1.18124e-07
-1.12598e-07
-2.69797e-11
-3.35636e-11
-2.76004e-11
1.12595e-07
3.81442e-11
4.4329e-11
-1.80075e-11
-5.2875e-11
6.57975e-11
6.9007e-11
-5.5744e-11
-1.13706e-07
-3.29832e-11
-2.64085e-11
-2.06129e-11
1.13699e-07
2.41689e-11
4.74337e-11
-1.10928e-11
7.5363e-12
3.3563e-11
6.42061e-12
-2.07909e-11
-2.74101e-08
2.02193e-11
3.27366e-11
5.83537e-11
3.94107e-11
2.72594e-08
3.85032e-11
3.6206e-11
-1.18056e-07
-2.56812e-11
-2.5967e-11
1.18033e-07
-1.12613e-07
-2.98297e-11
-3.74167e-11
-2.20105e-11
1.12623e-07
3.52049e-11
4.38559e-11
-2.3948e-11
-5.27216e-11
6.31113e-11
6.68079e-11
-5.37829e-11
-1.13704e-07
-3.43381e-11
-3.76208e-11
-2.24471e-11
1.13713e-07
2.21214e-11
4.79216e-11
-1.09459e-11
8.77568e-12
3.21998e-11
5.31337e-12
-2.00558e-11
-2.74302e-08
2.03611e-11
3.47704e-11
5.51134e-11
3.82664e-11
2.72817e-08
3.75768e-11
3.81703e-11
-1.17956e-07
-3.34425e-11
-2.25993e-11
1.17936e-07
-1.12674e-07
-3.27094e-11
-4.49021e-11
-3.63247e-12
1.12691e-07
3.23027e-11
4.3111e-11
-2.55046e-11
-5.38502e-11
6.01233e-11
6.40319e-11
-5.54859e-11
-1.1375e-07
-3.64111e-11
-1.57339e-10
1.72692e-10
1.98745e-11
4.35888e-11
-1.01655e-11
1.03597e-11
2.91827e-11
1.35816e-12
-2.08188e-11
1.13697e-07
-2.74669e-08
2.27313e-11
3.65822e-11
5.23647e-11
3.5513e-11
2.73198e-08
1.86868e-07
-1.86962e-07
1.02636e-07
-8.14529e-08
1.62795e-07
-1.83885e-07
-9.3661e-08
5.32609e-08
-3.83164e-08
9.09343e-08
1.7465e-07
1.10507e-08
4.6984e-08
-5.02107e-08
5.66545e-08
-4.72229e-08
-1.72556e-08
4.37746e-08
-5.28235e-08
4.96729e-08
-3.81224e-08
8.54911e-09
1.19209e-07
1.50544e-07
-1.41496e-07
-1.34405e-07
-1.80813e-07
-5.65932e-08
-7.76335e-09
8.32602e-09
-2.94842e-09
2.8035e-08
3.09439e-08
1.67704e-07
-2.38405e-07
-6.0689e-08
-8.92777e-08
-7.34505e-08
-1.07364e-07
9.55093e-08
4.41575e-08
5.06067e-08
-1.00767e-07
-5.36148e-08
-3.13473e-08
2.08821e-09
-2.86913e-07
-8.85022e-08
2.09688e-07
8.52121e-08
8.25106e-08
8.75673e-08
8.68229e-08
-3.86526e-08
-5.02834e-08
-5.2576e-08
8.20624e-09
-2.59712e-09
4.41299e-09
1.05748e-08
-2.91134e-07
1.01394e-07
-1.89279e-07
3.89166e-08
1.28116e-07
1.80339e-08
-2.69144e-08
6.20138e-08
5.03064e-08
5.16868e-08
-2.28165e-09
-9.59689e-09
1.57109e-09
-2.06787e-08
3.83567e-09
-2.68629e-07
-7.28185e-08
1.20203e-07
7.22908e-08
6.73231e-08
7.16032e-08
6.96469e-08
-1.31154e-08
-2.17818e-08
-2.05785e-08
5.09513e-09
5.21353e-09
2.39078e-09
6.21441e-08
-6.07919e-09
3.82734e-08
5.81026e-09
-4.987e-08
5.28769e-08
-2.01571e-09
-2.74802e-08
-4.10221e-08
-3.20785e-08
5.24557e-08
3.72685e-08
-2.43869e-08
1.97425e-08
-3.06244e-08
4.40728e-09
-1.92737e-08
-6.21514e-08
6.62205e-08
2.23531e-08
-3.31274e-09
5.55727e-08
-1.78855e-08
4.56132e-09
1.79e-07
-1.80978e-07
1.59549e-07
-1.87262e-07
1.32326e-07
7.94466e-08
-2.07836e-09
1.14512e-07
-1.30171e-07
1.16912e-08
-7.34009e-08
7.52842e-07
3.43095e-07
-2.0843e-07
-1.98804e-07
-1.97732e-07
3.57091e-08
4.94644e-08
1.93757e-08
4.18068e-08
-5.51979e-08
-2.97908e-08
-3.49341e-08
2.82224e-08
2.06392e-07
-2.4094e-07
-1.70975e-07
2.13022e-08
2.05598e-08
1.52817e-08
-3.76572e-08
-1.38723e-08
-2.14363e-08
-2.90475e-08
5.29768e-08
6.11385e-08
5.78443e-08
3.52845e-07
6.71087e-08
-3.95815e-07
3.00564e-07
-9.35212e-08
-7.73975e-08
-9.35746e-08
7.25637e-09
3.3923e-10
5.46744e-09
6.17438e-09
2.2591e-08
-5.50826e-08
8.36995e-08
9.31679e-08
-1.44887e-07
2.81107e-08
2.24885e-08
2.78578e-08
-1.6452e-08
-2.46226e-08
-1.15903e-08
-2.52804e-08
-3.20688e-08
1.43537e-08
-4.16744e-08
2.04092e-08
-2.31306e-08
2.58754e-08
-1.86113e-08
1.80482e-08
-9.59785e-07
9.39775e-07
2.40152e-07
1.65112e-07
2.0139e-07
-1.17648e-07
-1.47162e-07
-6.03496e-08
-1.50854e-07
-2.15927e-07
-2.23707e-07
-2.17218e-07
-3.80738e-08
-2.25381e-07
3.82033e-07
-1.24421e-07
-4.60288e-08
-3.99963e-08
-4.70714e-08
8.81663e-09
4.69958e-08
6.80745e-09
1.90129e-08
5.96272e-09
2.90633e-08
3.06068e-08
7.02042e-07
4.12697e-07
-8.21176e-07
-5.23599e-08
1.13312e-08
3.14561e-09
1.81503e-08
-7.26482e-08
-6.81236e-08
-7.66132e-08
-5.85237e-08
-5.83519e-09
-4.11862e-08
-1.36495e-07
1.17552e-07
7.66432e-08
-1.03764e-09
-4.87999e-09
6.25049e-09
-3.9973e-09
6.54966e-09
4.68115e-10
-1.40325e-08
8.60396e-08
-6.08462e-08
-1.54383e-07
3.76146e-09
2.77979e-09
-5.48278e-09
-2.21426e-08
-9.1979e-09
-2.10383e-08
-1.04936e-08
5.4329e-08
4.26506e-08
3.69153e-08
-7.58762e-08
5.74997e-08
8.62736e-08
-1.47069e-08
-1.65155e-08
-1.08189e-08
1.09966e-08
6.66798e-09
7.94483e-09
9.94351e-09
-3.47964e-09
-7.17502e-09
7.47651e-09
5.77421e-08
-3.14956e-08
8.90192e-09
-1.5104e-09
5.77885e-09
-4.20928e-09
-1.21666e-08
-7.13276e-09
-1.27301e-08
2.80065e-08
-2.58233e-08
-2.86729e-08
-1.44653e-08
-3.59354e-08
4.40244e-08
7.6939e-09
-7.15281e-09
-3.54536e-08
1.381e-07
-2.45679e-07
-1.50677e-08
-2.16983e-08
-1.30149e-08
-1.54755e-08
-5.63331e-09
-1.07651e-08
-7.1232e-09
7.05785e-08
6.461e-08
5.68264e-08
-5.58234e-08
-3.81226e-09
-1.65827e-07
3.11499e-08
1.12719e-08
3.76915e-08
4.66057e-09
1.29757e-08
-1.05146e-09
3.48726e-08
4.37283e-10
-1.13091e-07
3.35699e-09
1.65694e-07
-3.14253e-08
1.11657e-08
2.20191e-09
1.51505e-08
-1.49721e-08
-1.53698e-08
-2.87545e-09
-2.02728e-08
2.87629e-08
-6.58157e-10
-4.15105e-09
5.63535e-08
1.22428e-08
7.03957e-09
-5.64695e-08
9.53459e-08
1.46455e-09
4.4739e-09
8.15748e-08
-7.78654e-08
-9.25e-09
-3.97921e-10
1.79423e-07
3.31466e-07
-5.78285e-08
-4.43022e-08
-4.84041e-08
-7.18979e-09
-3.58402e-09
-3.44413e-09
-7.18621e-09
2.38253e-08
6.60133e-08
-1.00951e-07
-2.61441e-08
2.30908e-08
1.72249e-08
1.74849e-08
-2.16148e-08
-1.30378e-08
-2.29079e-08
-1.80666e-08
3.21523e-07
9.42696e-08
-3.3624e-07
2.99725e-08
-2.98337e-09
-5.57024e-09
-7.38437e-09
-2.07419e-08
-2.58077e-08
-2.53717e-08
-2.0201e-08
5.89994e-09
1.61813e-08
2.6435e-08
-4.65921e-09
-3.68523e-08
9.00009e-09
5.64593e-09
8.47804e-09
-8.5916e-09
-7.02337e-09
-5.56211e-09
-8.95167e-09
-1.20677e-08
1.98042e-08
-1.73825e-08
6.70528e-09
-9.18074e-10
2.14507e-09
-5.78369e-09
3.75135e-09
1.0599e-07
5.65891e-07
-1.29626e-08
-1.07193e-08
-1.59018e-08
-3.81049e-08
-5.58918e-08
-4.6139e-08
-5.03816e-08
6.8863e-09
-9.96988e-08
-5.06598e-09
7.84726e-08
1.97834e-08
-3.21475e-09
5.69786e-09
-2.03571e-08
2.72276e-09
-9.56452e-09
-1.68478e-08
2.63983e-07
2.44074e-08
-3.17953e-07
5.06423e-08
-3.02972e-09
2.74921e-09
8.88299e-09
-7.53934e-09
-3.48392e-09
-7.1116e-09
-7.07371e-09
1.10608e-08
2.54724e-07
-6.10862e-09
-2.49948e-07
-1.88101e-08
1.12131e-08
7.30009e-09
5.93009e-09
-5.37723e-09
-2.29702e-09
-1.95079e-09
-5.73623e-09
3.6613e-09
-2.46999e-08
2.47729e-08
7.90014e-09
-1.05267e-09
1.07638e-09
-1.08078e-08
-4.25769e-09
-8.67437e-09
-4.08617e-09
-2.07971e-08
1.50384e-08
3.02761e-08
-4.56594e-09
-6.57435e-09
-3.79246e-09
2.49441e-09
-1.89269e-09
-1.18435e-09
1.48063e-09
6.02666e-09
7.58039e-09
9.37523e-09
-1.54495e-08
-2.60901e-08
1.05179e-08
6.58121e-09
1.00169e-08
-8.38764e-10
-3.22607e-09
-6.16205e-10
-3.87761e-09
2.28742e-08
-8.26412e-10
-1.96955e-08
3.22073e-09
1.85545e-08
-1.42461e-08
-6.6712e-09
1.02029e-08
-9.43374e-09
-2.83936e-08
-7.2728e-08
1.29967e-08
3.58226e-09
1.91534e-09
-1.24722e-08
7.58902e-12
-9.95248e-09
-9.61313e-09
4.49812e-08
-3.72387e-07
-1.86835e-08
-3.24196e-09
5.0928e-10
1.42679e-09
-2.43628e-08
-3.62681e-09
-2.28691e-08
-3.49122e-09
-3.28465e-09
9.50104e-09
-2.64098e-08
1.34169e-08
9.14205e-09
1.13114e-10
-4.0056e-09
9.15716e-10
9.83464e-11
2.51246e-10
2.74777e-09
-2.48617e-09
2.42046e-09
-3.22124e-09
4.63608e-09
-2.48761e-09
4.84539e-09
-1.23888e-08
3.19018e-09
8.84157e-08
-1.96832e-09
1.40425e-08
6.55318e-08
-7.5071e-08
-1.40628e-08
1.15279e-08
1.72771e-08
3.0824e-07
-1.43759e-09
1.44831e-09
-8.0316e-10
-1.65422e-08
-2.67571e-08
-1.7838e-08
-2.12291e-08
7.99711e-09
1.84624e-08
-3.57073e-08
2.03518e-08
7.29402e-09
5.66887e-09
5.20664e-09
-4.20159e-09
-1.95974e-09
-3.13625e-09
-3.79469e-09
1.95691e-07
-8.73884e-09
-2.43159e-07
5.32121e-08
-1.13219e-11
-3.48447e-09
-3.73217e-09
2.50851e-09
1.4437e-10
-5.16716e-10
6.11809e-09
7.52706e-09
3.94812e-08
1.42394e-08
-3.0043e-08
-5.69612e-08
9.94776e-09
6.99223e-09
9.41583e-09
1.21124e-09
-1.67718e-09
1.53895e-09
-1.67229e-09
-3.11358e-09
6.2885e-09
1.36042e-10
4.5945e-09
6.32014e-09
-5.77456e-09
-3.54447e-09
5.93145e-09
4.72483e-09
2.65415e-07
4.52321e-09
-9.57026e-09
-2.58629e-09
-7.59959e-09
-1.23378e-09
-4.26368e-09
-2.63424e-09
1.15678e-08
6.13444e-10
1.88993e-08
2.10631e-07
9.66558e-09
9.85932e-09
8.32922e-09
-7.02699e-09
-6.04546e-10
-6.91297e-09
-2.96597e-10
3.69517e-07
2.2883e-08
-3.4732e-07
-4.65509e-08
-1.18553e-08
5.65626e-09
6.02501e-09
-3.37563e-09
1.05011e-08
1.14506e-08
-2.88862e-09
-3.50034e-09
5.41805e-08
-1.46516e-08
-3.94201e-08
3.55832e-08
1.63353e-09
-6.6124e-09
-2.8258e-09
-7.7678e-09
-4.60857e-09
-1.63261e-09
-1.0378e-08
-5.23466e-10
-3.09292e-08
1.14949e-08
8.60292e-09
6.48802e-09
5.56777e-09
-2.24373e-09
1.12331e-09
-1.77052e-09
4.45711e-10
-3.33005e-08
-1.81068e-08
1.57971e-08
-2.60899e-09
-4.41715e-09
-1.77628e-09
6.53595e-09
3.78843e-09
4.30915e-09
5.76082e-09
1.09585e-08
3.80415e-08
-2.55438e-08
-2.87658e-08
-3.99497e-08
1.20465e-08
8.62441e-09
1.17708e-08
3.53463e-09
1.71528e-09
6.47426e-09
1.09339e-09
-4.33105e-09
9.99516e-09
2.13966e-08
8.72175e-11
5.39398e-08
-4.76264e-08
-5.13692e-10
-9.38724e-09
-2.86315e-08
1.22672e-08
2.58636e-08
-5.85914e-10
-3.32021e-09
-4.45958e-09
1.8975e-10
4.01022e-09
1.81862e-09
3.3568e-09
4.10366e-08
-4.37164e-07
1.80563e-08
-3.01281e-10
2.46754e-10
1.57127e-09
-1.52962e-08
-1.4918e-08
-1.68583e-08
-1.35527e-08
7.78555e-10
9.79361e-08
-3.43591e-08
-7.27863e-08
-1.70559e-08
2.39752e-09
1.51775e-09
5.36907e-09
3.39499e-09
4.58866e-09
7.46011e-09
7.58524e-10
-9.42508e-09
-7.37145e-10
1.14767e-08
-2.62379e-09
1.10445e-08
-1.20784e-08
1.2512e-08
5.66774e-08
3.94774e-09
-8.78188e-09
2.34491e-08
-2.42845e-08
7.13789e-09
-1.46833e-09
5.23411e-08
1.40181e-07
-2.76549e-09
8.27682e-10
-2.0989e-09
8.40501e-09
5.16681e-09
8.18108e-09
5.78949e-09
8.98476e-09
1.0291e-08
-4.89618e-08
5.03749e-08
8.58261e-09
6.84141e-09
6.05402e-09
-2.12777e-09
1.10001e-09
2.05805e-11
-1.67859e-09
9.347e-08
-2.62102e-08
-9.44877e-08
2.50713e-08
-3.65623e-09
-3.97936e-09
-3.09355e-09
4.78494e-09
3.31242e-09
4.38986e-09
4.3463e-09
3.523e-09
7.74902e-08
-5.07673e-09
-6.93011e-08
-2.2332e-08
4.77722e-09
3.01182e-09
4.49689e-09
1.1119e-09
5.58112e-10
1.41289e-09
3.27769e-10
-1.94346e-09
6.98604e-09
8.34246e-09
-2.27325e-10
1.68543e-08
-1.60294e-08
-2.42722e-11
2.94964e-09
-4.79977e-08
3.50706e-07
9.99292e-09
-8.99868e-09
9.39157e-09
7.55234e-09
1.57898e-08
2.01108e-09
1.36458e-08
-6.3043e-09
-5.37673e-08
5.03705e-08
7.92965e-08
-3.76254e-09
-9.37341e-09
-5.45634e-09
-2.41786e-09
3.70619e-09
9.06858e-10
9.82287e-10
1.32873e-07
2.10786e-08
-1.81693e-07
-2.9676e-08
9.22565e-09
8.60428e-09
9.23597e-09
8.19222e-09
3.26917e-09
5.4335e-09
4.67451e-09
6.41068e-09
1.15532e-07
-2.76635e-09
-1.08038e-07
-3.45206e-08
8.14666e-09
7.54525e-09
9.56895e-09
-5.6715e-10
-8.129e-10
1.34838e-09
-1.84693e-09
-3.72408e-08
-3.87056e-08
4.66219e-08
1.30442e-08
1.31496e-08
1.00226e-08
2.60028e-09
7.47419e-09
3.01043e-09
4.51098e-09
-2.13161e-08
-6.13802e-08
-4.78398e-09
1.11742e-09
4.49402e-10
1.40769e-09
4.25227e-09
2.38995e-09
2.68723e-09
3.86625e-09
8.76913e-09
7.15517e-08
-5.16189e-08
-6.29111e-08
-6.23664e-09
1.03663e-08
3.44357e-09
6.86459e-09
5.40479e-09
4.26912e-09
6.15774e-09
3.9396e-09
4.41598e-09
-8.74456e-09
5.70606e-08
-1.33803e-09
2.36348e-08
-2.54235e-08
2.60644e-09
6.93091e-09
-4.64819e-08
-1.78786e-08
1.23207e-07
7.70905e-09
1.95268e-09
4.04832e-09
2.14262e-09
9.23818e-09
6.42082e-09
4.46362e-09
-3.81466e-09
-4.01717e-07
1.02307e-08
2.28371e-09
4.17198e-09
4.91042e-09
3.98506e-09
5.09963e-09
5.27671e-09
7.37698e-09
1.17827e-08
2.00943e-07
-5.12386e-08
-1.7386e-07
-4.90277e-08
1.19129e-08
1.4896e-08
1.73097e-08
2.60932e-09
4.52282e-09
8.98075e-09
1.16895e-09
-3.08851e-08
8.15067e-09
9.81176e-09
3.11143e-09
-8.03057e-09
6.42081e-09
-1.59319e-09
2.35406e-08
1.0398e-09
-2.36734e-09
2.59208e-08
-2.5564e-08
1.83796e-09
-8.67284e-10
1.77409e-08
9.71315e-08
-2.57855e-09
-3.22248e-09
-3.17171e-09
3.78465e-09
3.83397e-09
4.1652e-09
3.10387e-09
3.65581e-09
-7.61988e-09
-1.65355e-08
8.51367e-08
3.38663e-09
2.60907e-09
2.24498e-09
8.6268e-10
1.49944e-09
1.31335e-09
9.3692e-10
1.07219e-07
-9.27971e-09
-1.04493e-07
4.44351e-09
-1.13465e-09
-1.0211e-09
-9.72935e-10
1.76794e-09
1.31337e-09
1.60428e-09
1.59392e-09
7.82664e-10
1.0294e-07
-8.29924e-09
-9.79951e-08
-5.16807e-09
1.2426e-09
7.69493e-10
1.16464e-09
1.27628e-09
9.94597e-10
1.32304e-09
9.68663e-10
9.73136e-10
2.84056e-09
1.82839e-08
-1.50486e-09
2.41941e-08
-2.36121e-08
1.15352e-09
5.52065e-10
-3.462e-08
1.15593e-07
7.84874e-09
7.39321e-09
7.12361e-09
7.4394e-10
1.70561e-09
2.39542e-09
8.45052e-10
7.40856e-09
7.74625e-09
-4.65622e-08
1.19593e-07
8.85511e-09
6.31426e-09
7.40496e-09
1.05322e-09
1.47079e-09
1.28623e-09
9.61346e-10
1.09491e-07
4.13411e-09
-1.09412e-07
-1.27777e-08
2.68677e-09
2.12058e-09
2.54796e-09
-2.76847e-10
-3.03666e-10
-1.31892e-10
-4.45494e-10
9.09625e-10
1.11446e-07
-1.90534e-09
-1.12622e-07
-5.35952e-09
1.42845e-09
1.17571e-09
1.89516e-09
8.28999e-10
6.54339e-10
9.47382e-10
6.01035e-10
-4.09603e-08
6.84194e-09
8.00298e-08
1.3811e-09
2.90683e-09
-1.82375e-09
3.62227e-09
5.42085e-09
3.87281e-09
4.83395e-09
-5.59233e-09
-9.49873e-08
-1.04161e-08
1.8714e-09
1.47402e-09
1.82483e-09
1.21135e-09
6.59428e-10
5.90968e-10
1.1841e-09
-6.49535e-09
1.07676e-07
-1.65133e-08
-9.93192e-08
2.07156e-08
-6.69778e-09
-5.81418e-09
-6.25035e-09
3.55493e-09
2.56324e-09
3.34731e-09
3.23261e-09
4.54682e-09
7.21908e-09
2.53503e-08
-3.1232e-10
2.60518e-08
-2.58534e-08
5.17791e-10
5.05688e-10
-3.05281e-08
-6.43445e-08
2.18504e-07
1.66697e-08
1.31558e-08
1.41711e-08
3.7687e-09
7.21502e-09
5.79264e-09
3.0923e-09
-3.68726e-09
-1.16253e-07
1.28067e-08
-6.09865e-11
3.56371e-10
2.49193e-10
-4.8082e-10
-2.07315e-09
-1.19158e-09
-1.65004e-09
8.00432e-09
1.55033e-07
2.82436e-08
-1.83885e-07
-3.72572e-08
8.6022e-09
7.46431e-09
8.36754e-09
2.27326e-09
4.72226e-10
1.60258e-09
1.07989e-09
-3.01429e-08
6.59949e-09
-4.87172e-09
6.92138e-10
-1.77808e-09
1.57713e-09
-5.79048e-10
2.60087e-08
1.05581e-10
-5.32793e-10
2.70852e-08
-2.68543e-08
3.65684e-10
-1.69403e-10
2.51886e-09
1.09417e-07
-5.67106e-10
-6.08527e-10
-6.16615e-10
1.16499e-09
1.17299e-09
1.28156e-09
9.63825e-10
7.68445e-10
-6.94581e-09
-3.24474e-09
1.0677e-07
7.45303e-10
4.71184e-10
4.94268e-10
8.22715e-10
1.10997e-09
1.07678e-09
8.72725e-10
1.13257e-07
-2.50446e-09
-1.12379e-07
4.82263e-10
-1.65826e-10
-1.35159e-10
-1.00618e-10
4.49406e-10
3.33196e-10
4.4758e-10
4.20953e-10
8.00505e-11
1.12744e-07
-2.67309e-09
-1.11472e-07
-6.42876e-10
1.01576e-10
7.96831e-11
1.57192e-10
4.33433e-10
3.46414e-10
4.63024e-10
3.82354e-10
1.20524e-09
5.54819e-10
2.47727e-08
-5.52894e-10
2.68984e-08
-2.66133e-08
3.60676e-10
-1.27716e-11
-8.16432e-09
1.10007e-07
1.68085e-09
1.59022e-09
1.38449e-09
-3.45454e-10
-9.91217e-11
-2.10881e-10
-2.22641e-10
-1.34392e-10
-4.72414e-09
1.11721e-09
1.12543e-07
1.43579e-10
-4.47056e-10
-2.308e-10
7.24343e-10
8.96506e-10
8.59693e-10
6.98423e-10
1.11822e-07
2.44515e-10
-1.1132e-07
-2.59033e-09
5.46794e-10
4.16739e-10
5.56497e-10
-2.25939e-11
-7.76002e-11
2.48313e-11
-1.34462e-10
-5.80253e-10
1.14538e-07
-1.63082e-09
-1.14378e-07
2.62913e-09
-6.81821e-10
-4.89684e-10
-5.37215e-10
3.90356e-10
1.87817e-10
3.00283e-10
2.52619e-10
-1.11375e-08
1.55834e-08
1.12357e-07
-4.42133e-09
-4.50958e-09
-3.90582e-09
2.16925e-09
2.30656e-09
1.80057e-09
2.56559e-09
-7.39214e-10
-1.09751e-07
-3.09807e-09
5.86438e-10
4.61004e-10
6.05393e-10
1.76633e-10
5.45078e-11
-1.49712e-11
2.11517e-10
-8.85201e-10
1.14715e-07
-1.94656e-09
-1.14776e-07
4.06058e-09
-1.07623e-09
-8.20413e-10
-9.10178e-10
5.61471e-10
2.67387e-10
4.30623e-10
3.79621e-10
1.26131e-09
-2.98886e-11
2.63048e-08
-6.46442e-10
2.77991e-08
-2.76477e-08
3.96772e-10
-4.8198e-10
2.33248e-08
-2.40287e-08
1.36037e-07
5.50347e-09
5.12637e-09
4.64377e-09
-4.16873e-10
-3.28728e-10
-7.43555e-10
4.20561e-11
3.44277e-09
-1.16869e-07
-3.67783e-09
6.75027e-10
5.36274e-10
6.37834e-10
-4.44265e-10
-3.64908e-10
-3.99745e-10
-3.5763e-10
6.5713e-10
1.17544e-07
4.78254e-09
-1.20409e-07
-2.53363e-09
7.3954e-10
5.07044e-10
6.34411e-10
-5.24056e-10
-4.65763e-10
-4.53133e-10
-4.7823e-10
-2.79388e-08
4.6713e-10
-7.03392e-10
1.13805e-10
-3.60257e-10
3.8604e-10
-5.2745e-11
2.69984e-08
-1.89801e-11
-1.3588e-10
2.73588e-08
-2.71885e-08
4.43052e-11
-5.97652e-11
2.90407e-10
1.13846e-07
-5.7936e-11
-5.44748e-11
-8.05543e-11
2.93801e-10
3.17773e-10
3.03676e-10
2.2031e-10
3.49893e-11
-1.80161e-09
-3.61334e-10
1.13564e-07
9.24606e-11
5.37069e-11
3.4821e-11
2.76977e-10
3.29854e-10
2.93295e-10
2.26976e-10
1.14612e-07
-5.07239e-10
-1.14467e-07
5.86638e-11
-4.59313e-11
-2.21398e-11
1.73782e-12
7.61224e-11
5.46945e-11
1.12998e-10
1.07223e-10
4.11099e-11
1.14583e-07
-5.14603e-10
-1.14393e-07
-7.91792e-11
-1.89598e-11
1.48343e-12
3.26024e-11
7.08646e-11
5.47823e-11
1.19452e-10
1.02608e-10
3.8462e-10
7.19249e-11
2.68625e-08
-1.36626e-10
2.73393e-08
-2.71631e-08
4.20006e-11
-4.05068e-11
-1.75621e-09
1.1217e-07
3.88325e-10
3.71222e-10
2.71946e-10
-1.09281e-10
3.96985e-11
1.00774e-11
-6.59094e-11
-4.68249e-10
-8.82364e-10
1.83395e-09
1.14465e-07
-3.62847e-10
-3.65891e-10
-3.33177e-10
1.34774e-10
2.06861e-10
2.27956e-10
8.12024e-11
1.12608e-07
3.08801e-11
-1.12531e-07
-5.0601e-10
7.61516e-11
6.17197e-11
1.27143e-10
5.42878e-11
-5.51627e-11
6.18457e-11
-6.43283e-11
-5.80848e-11
1.14028e-07
-1.48944e-10
-1.14156e-07
4.88966e-10
-1.32374e-10
-1.05498e-10
-7.09495e-11
8.65699e-11
-2.86308e-11
9.16669e-11
5.294e-12
-1.06031e-09
2.46916e-09
1.14504e-07
-5.16479e-10
-4.97595e-10
-4.69651e-10
2.01104e-10
2.49179e-10
1.24732e-10
3.39179e-10
-8.60724e-11
-1.12362e-07
-5.44908e-10
7.9703e-11
6.46111e-11
1.39971e-10
7.55829e-11
-3.96006e-11
-4.93755e-11
8.38332e-11
-6.83931e-11
1.13991e-07
-2.19679e-10
-1.1412e-07
5.46828e-10
-1.4315e-10
-1.12526e-10
-8.18992e-11
1.01115e-10
-1.45064e-11
1.01828e-10
2.00126e-11
3.69069e-10
-3.22102e-10
2.75745e-08
-8.04086e-11
2.74951e-08
-2.73637e-08
-5.5311e-12
-1.03557e-10
2.69021e-09
-1.09785e-09
1.1598e-07
2.90971e-10
3.45507e-10
2.36619e-10
-3.02202e-10
-2.92539e-10
-3.00362e-10
-3.46448e-10
4.806e-10
-1.1452e-07
-1.2427e-10
3.49676e-12
1.71383e-11
6.00034e-11
-7.05502e-11
-8.28638e-11
-6.09559e-11
-4.20766e-11
9.55632e-11
1.14306e-07
5.23531e-10
-1.14607e-07
-1.53845e-10
1.52788e-11
2.87878e-11
6.36415e-11
-7.61659e-11
-8.50977e-11
-4.55762e-11
-6.47699e-11
-2.73641e-08
8.04878e-12
-1.12614e-10
3.77832e-11
-3.97614e-11
1.15952e-10
3.30784e-11
2.72117e-08
-3.54686e-11
-5.79995e-11
2.73889e-08
-2.72348e-08
-2.06473e-11
-4.0029e-11
2.9814e-11
1.14693e-07
9.13773e-12
2.54407e-11
-1.68393e-11
8.02423e-11
8.99622e-11
4.60045e-11
3.09085e-11
-2.0144e-11
-3.40328e-10
-5.53274e-11
1.14691e-07
2.82386e-11
4.01349e-11
-6.09977e-12
7.6906e-11
9.15559e-11
4.45628e-11
3.28568e-11
1.14758e-07
-1.11829e-10
-1.14754e-07
-7.45966e-12
-2.72441e-11
-8.67365e-12
1.80787e-11
1.27723e-12
-3.60817e-13
5.27286e-11
4.32775e-11
3.99303e-11
1.14783e-07
-1.10378e-10
-1.14776e-07
-3.10846e-11
-2.23618e-11
-4.15143e-12
2.88395e-11
1.11615e-13
-3.89701e-13
5.02632e-11
4.23188e-11
1.13587e-10
5.05024e-11
2.71959e-08
-5.76596e-11
2.73871e-08
-2.72318e-08
-2.08767e-11
-3.68767e-11
-3.33565e-10
1.12644e-07
9.95774e-11
1.02853e-10
3.21915e-11
-6.00144e-11
6.46965e-11
6.07825e-11
-5.37168e-11
-8.75559e-11
-9.12931e-11
3.01842e-10
1.13928e-07
-3.17214e-11
-2.31296e-11
-7.4836e-11
-9.02018e-12
8.1502e-11
7.20975e-11
-3.76432e-11
1.12646e-07
-1.86153e-11
-1.12654e-07
-1.00144e-10
-9.21789e-12
-8.77001e-12
5.59919e-11
6.89569e-11
-5.22087e-11
6.74268e-11
-5.39301e-11
1.9775e-11
1.1375e-07
-4.01036e-11
-1.13794e-07
5.94021e-11
-3.30398e-11
-3.41946e-11
1.91871e-11
5.5533e-11
-4.76035e-11
7.06293e-11
-2.55367e-11
-1.44026e-10
3.28116e-10
1.13894e-07
-3.63493e-11
-2.83239e-11
-7.82969e-11
3.81408e-12
9.02667e-11
-2.84714e-11
8.26967e-11
-4.01605e-11
-1.12618e-07
-1.02432e-10
-9.87127e-12
-7.76579e-12
5.33183e-11
7.38257e-11
-4.93603e-11
-5.09643e-11
7.50888e-11
1.84119e-11
1.13731e-07
-5.88687e-11
-1.13771e-07
6.23966e-11
-3.39254e-11
-3.46601e-11
1.85302e-11
6.00157e-11
-4.49708e-11
7.48505e-11
-2.2355e-11
8.56125e-11
-1.63502e-11
2.73257e-08
-5.0341e-11
2.74139e-08
-2.72674e-08
-3.89058e-11
-3.75513e-11
3.03347e-10
-9.91259e-11
1.14117e-07
4.99032e-11
7.64491e-11
1.38477e-11
-3.62089e-11
-1.50512e-11
-5.89779e-11
-4.16202e-11
3.95598e-11
-1.13874e-07
-2.23477e-11
-2.8347e-11
-7.77536e-12
2.91889e-11
-2.24708e-12
-2.73818e-11
1.68277e-12
2.71715e-11
5.48276e-11
1.13848e-07
4.30842e-11
-1.13907e-07
-4.09331e-11
-2.41672e-11
-3.42788e-12
3.26653e-11
-3.22967e-12
-2.73493e-11
2.64083e-11
8.64131e-13
-2.72697e-08
-3.61327e-11
-3.8408e-11
2.58798e-11
1.55125e-11
6.28903e-11
4.75188e-11
2.72371e-08
-3.90946e-11
-4.48003e-11
2.73978e-08
-2.72436e-08
-3.32033e-11
-3.70414e-11
-1.3497e-11
1.14757e-07
1.9262e-11
3.71753e-11
-7.19964e-12
3.83512e-11
4.68493e-11
-3.96578e-12
-7.0754e-12
-2.2783e-11
-8.12308e-11
-2.92668e-11
1.14785e-07
2.33884e-11
4.02992e-11
-4.67169e-12
3.77357e-11
4.65619e-11
-4.7396e-12
-7.0543e-12
1.14743e-07
-4.47405e-11
-1.14747e-07
-1.9266e-11
-2.49861e-11
-5.66731e-12
1.94675e-11
-1.23846e-11
-1.56836e-11
3.69645e-11
3.11919e-11
4.02893e-11
1.14776e-07
-4.40098e-11
-1.14779e-07
-2.45946e-11
-2.4062e-11
-4.87786e-12
2.08558e-11
-1.28946e-11
-1.54275e-11
3.63891e-11
3.12243e-11
6.11159e-11
5.15253e-11
2.72354e-08
-4.50863e-11
2.73986e-08
-2.72437e-08
-3.2784e-11
-3.67061e-11
-7.0733e-11
1.12636e-07
4.98634e-11
5.23622e-11
-1.47729e-11
-5.3282e-11
6.74021e-11
6.96941e-11
-5.22105e-11
-2.70227e-11
-3.54718e-11
2.85447e-11
1.13716e-07
2.55107e-11
2.50683e-11
-2.89687e-11
-2.75429e-11
6.90185e-11
5.32657e-11
-4.89588e-11
1.12614e-07
-2.92935e-11
-1.12618e-07
-3.19079e-11
-2.49071e-11
-2.26791e-11
4.06453e-11
6.87167e-11
-5.31238e-11
6.55049e-11
-5.32208e-11
3.13868e-11
1.13665e-07
-3.26079e-11
-1.13675e-07
-8.37496e-12
-2.05613e-11
-2.28079e-11
3.19214e-11
4.85068e-11
-5.15775e-11
6.51475e-11
-3.08585e-11
-4.8594e-11
3.03202e-11
1.13701e-07
2.50304e-11
2.41978e-11
-2.92056e-11
-2.55256e-11
7.2298e-11
-4.73246e-11
5.65784e-11
-3.42064e-11
-1.12601e-07
-3.18294e-11
-2.56473e-11
-2.17158e-11
3.99097e-11
6.98369e-11
-5.26762e-11
-5.25824e-11
6.68298e-11
3.12017e-11
1.13655e-07
-3.69979e-11
-1.13664e-07
-8.20733e-12
-2.07224e-11
-2.26955e-11
3.16068e-11
4.9944e-11
-5.15304e-11
6.67074e-11
-3.05303e-11
6.20984e-11
3.57375e-11
2.72593e-08
-4.74273e-11
2.74047e-08
-2.72527e-08
-4.37976e-11
-2.93502e-11
1.37303e-11
-3.47331e-11
1.13808e-07
3.02716e-11
5.25592e-11
-5.99494e-12
3.71977e-12
3.05862e-11
-2.39323e-11
1.22099e-12
-2.21852e-11
-1.1372e-07
-1.91616e-11
-3.25212e-11
-1.09733e-11
2.47891e-11
6.30496e-12
-2.09149e-11
7.06516e-12
3.38733e-11
4.89406e-11
1.13745e-07
-2.16898e-11
-1.13758e-07
-2.37098e-11
-3.19303e-11
-9.92577e-12
2.56655e-11
5.99654e-12
-2.05666e-11
3.3399e-11
7.05481e-12
-2.72571e-08
-4.37714e-11
-2.9066e-11
2.50676e-11
2.6325e-11
5.12375e-11
4.79644e-11
2.72472e-08
-4.00137e-11
-4.31006e-11
2.74198e-08
-2.72636e-08
-3.57862e-11
-3.72599e-11
-2.16015e-11
1.14742e-07
1.91678e-11
3.949e-11
-5.40653e-12
3.0184e-11
3.49744e-11
-1.39901e-11
-1.69915e-11
-2.44484e-11
-3.90247e-11
-2.48346e-11
1.14777e-07
2.00034e-11
4.0306e-11
-9.16229e-12
3.03329e-11
3.44496e-11
-1.44268e-11
-1.40696e-11
1.14754e-07
-3.84436e-11
-1.14747e-07
-2.22212e-11
-2.58611e-11
-5.13452e-12
1.77389e-11
-1.62745e-11
-1.80592e-11
3.19239e-11
2.973e-11
4.04221e-11
1.14789e-07
-3.78302e-11
-1.14785e-07
-2.32546e-11
-2.60526e-11
-5.4344e-12
2.28521e-11
-1.6251e-11
-1.76007e-11
2.90837e-11
2.98252e-11
4.9969e-11
4.96172e-11
2.72476e-08
-4.3745e-11
2.74212e-08
-2.72644e-08
-3.49946e-11
-3.76431e-11
-2.77857e-11
1.12612e-07
3.91033e-11
4.40369e-11
-2.35325e-11
-5.33558e-11
6.48037e-11
6.82221e-11
-5.34508e-11
-2.00487e-11
-3.21142e-11
-1.34908e-11
1.13659e-07
3.23892e-11
3.2321e-11
-2.19842e-11
-3.13674e-11
6.42216e-11
4.75385e-11
-5.20939e-11
1.12626e-07
-3.48192e-11
-1.12618e-07
-2.22138e-11
-2.86719e-11
-2.46625e-11
3.62265e-11
6.67923e-11
-5.37294e-11
6.29772e-11
-5.30138e-11
3.35265e-11
1.1367e-07
-3.52139e-11
-1.13662e-07
-1.9909e-11
-1.99634e-11
-2.10655e-11
3.1874e-11
4.55027e-11
-5.26627e-11
6.2075e-11
-3.15787e-11
-3.52661e-11
-1.30026e-11
1.13651e-07
3.20268e-11
3.2176e-11
-2.18726e-11
-3.12213e-11
6.5476e-11
-5.2186e-11
4.86292e-11
-3.6336e-11
-1.12604e-07
-2.22394e-11
-2.93745e-11
-2.36618e-11
3.1948e-11
6.70749e-11
-5.36001e-11
-5.27522e-11
6.61286e-11
3.3605e-11
1.13663e-07
-3.62732e-11
-1.13655e-07
-2.02858e-11
-2.00567e-11
-2.07687e-11
3.15691e-11
4.60658e-11
-5.29954e-11
6.28438e-11
-3.16879e-11
5.66955e-11
4.02195e-11
2.72547e-08
-4.74829e-11
2.74241e-08
-2.72693e-08
-4.51026e-11
-2.86887e-11
-2.58825e-11
-2.39518e-11
1.13739e-07
2.475e-11
4.86759e-11
-1.02696e-11
7.33162e-12
3.30735e-11
-2.0448e-11
5.79289e-12
-3.59306e-11
-1.13698e-07
-1.99006e-11
-3.42297e-11
-1.12792e-11
2.23791e-11
5.29787e-12