/*--------------------------------*- C++ -*----------------------------------*\
| =========                 |                                                 |
| \\      /  F ield         | OpenFOAM: The Open Source CFD Toolbox           |
|  \\    /   O peration     | Version:  2206                                  |
|   \\  /    A nd           | Website:  www.openfoam.com                      |
|    \\/     M anipulation  |                                                 |
\*---------------------------------------------------------------------------*/
FoamFile
{
    version     2.0;
    format      ascii;
    arch        "LSB;label=32;scalar=64";
    class       volScalarField;
    location    "120";
    object      k;
}
// * * * * * * * * * * * * * * * * * * * * * * * * * * * * * * * * * * * * * //

dimensions      [0 2 -2 0 0 0 0];

internalField   nonuniform List<scalar> 
66616
(
3.59193e-05
3.80664e-05
3.80595e-05
3.92268e-05
3.5073e-05
3.88695e-05
3.87132e-05
4.05462e-05
3.46193e-05
3.98837e-05
3.97071e-05
4.23874e-05
3.43273e-05
4.05091e-05
4.033e-05
4.31929e-05
3.41966e-05
4.10042e-05
4.08089e-05
4.3647e-05
3.42182e-05
4.18314e-05
4.15495e-05
4.46023e-05
3.43858e-05
4.29375e-05
4.26094e-05
4.59732e-05
3.47475e-05
4.42513e-05
4.39694e-05
4.74659e-05
3.53067e-05
4.59008e-05
4.5661e-05
4.89286e-05
3.5662e-05
4.80523e-05
4.74677e-05
5.16988e-05
3.65391e-05
5.10371e-05
4.99646e-05
5.35981e-05
3.76661e-05
5.32737e-05
5.33247e-05
5.6348e-05
3.91151e-05
3.77319e-05
3.77337e-05
3.91166e-05
3.77396e-05
3.77314e-05
3.61298e-05
3.61288e-05
3.61298e-05
3.61318e-05
3.77407e-05
3.77356e-05
3.91171e-05
3.77435e-05
3.77464e-05
3.91194e-05
3.92239e-05
4.03419e-05
3.8074e-05
3.80742e-05
3.84399e-05
3.84381e-05
3.92257e-05
4.03316e-05
3.80687e-05
3.80814e-05
3.85739e-05
3.85768e-05
3.80801e-05
3.85734e-05
3.85875e-05
3.92253e-05
4.03378e-05
3.80704e-05
3.84383e-05
3.8438e-05
4.03456e-05
4.05473e-05
4.22786e-05
3.87268e-05
3.87266e-05
3.94703e-05
3.94852e-05
4.054e-05
4.22763e-05
3.88755e-05
3.88911e-05
3.96732e-05
3.96946e-05
3.88867e-05
3.96909e-05
3.96961e-05
4.05456e-05
4.22805e-05
3.87272e-05
3.94948e-05
3.94836e-05
4.22822e-05
4.23942e-05
4.31408e-05
3.97263e-05
3.9745e-05
4.02519e-05
4.02505e-05
4.23892e-05
4.31966e-05
3.9932e-05
3.99488e-05
4.04077e-05
4.04602e-05
3.99497e-05
4.04277e-05
4.04325e-05
4.23867e-05
4.31953e-05
3.97239e-05
4.02238e-05
4.02432e-05
4.31814e-05
4.31537e-05
4.3566e-05
4.04107e-05
4.03912e-05
4.0729e-05
4.07777e-05
4.32264e-05
4.35837e-05
4.05319e-05
4.05967e-05
4.08722e-05
4.09458e-05
4.05359e-05
4.08988e-05
4.08703e-05
4.32803e-05
4.37068e-05
4.03709e-05
4.0711e-05
4.07181e-05
4.36051e-05
4.36155e-05
4.45689e-05
4.0898e-05
4.09599e-05
4.14072e-05
4.1429e-05
4.3639e-05
4.44368e-05
4.10556e-05
4.11196e-05
4.15911e-05
4.16152e-05
4.10775e-05
4.1637e-05
4.15894e-05
4.37413e-05
4.45158e-05
4.08969e-05
4.14022e-05
4.14172e-05
4.45301e-05
4.46901e-05
4.59493e-05
4.16799e-05
4.16862e-05
4.23921e-05
4.24313e-05
4.45408e-05
4.59803e-05
4.18957e-05
4.19062e-05
4.2618e-05
4.26309e-05
4.1858e-05
4.26614e-05
4.25563e-05
4.465e-05
4.60257e-05
4.17061e-05
4.2393e-05
4.2425e-05
4.5778e-05
4.60235e-05
4.73742e-05
4.2747e-05
4.27646e-05
4.36251e-05
4.36448e-05
4.60604e-05
4.72733e-05
4.30043e-05
4.30366e-05
4.38737e-05
4.39367e-05
4.29341e-05
4.3898e-05
4.38127e-05
4.62546e-05
4.73357e-05
4.28319e-05
4.36645e-05
4.39387e-05
4.72188e-05
4.77083e-05
4.8378e-05
4.39986e-05
4.40698e-05
4.49593e-05
4.5017e-05
4.74854e-05
4.88643e-05
4.4275e-05
4.4397e-05
4.52068e-05
4.53819e-05
4.4233e-05
4.55189e-05
4.518e-05
4.76968e-05
4.90114e-05
4.44125e-05
4.51974e-05
4.61165e-05
4.87975e-05
4.85716e-05
5.10629e-05
4.54732e-05
4.5443e-05
4.67874e-05
4.66392e-05
4.90739e-05
5.09979e-05
4.57357e-05
4.5893e-05
4.69382e-05
4.71615e-05
4.57444e-05
4.73041e-05
4.69119e-05
4.9219e-05
5.14248e-05
4.65896e-05
4.70487e-05
4.78136e-05
5.12054e-05
5.14327e-05
5.34248e-05
4.74958e-05
4.72027e-05
4.93551e-05
4.88744e-05
5.12971e-05
5.44104e-05
4.75368e-05
4.78241e-05
4.89527e-05
4.94252e-05
4.75307e-05
5.0194e-05
4.88777e-05
5.21672e-05
5.35937e-05
4.76476e-05
4.94581e-05
4.86642e-05
5.30113e-05
5.3769e-05
5.75378e-05
5.01777e-05
4.96036e-05
5.30881e-05
5.25213e-05
5.43636e-05
5.62979e-05
4.97367e-05
5.03387e-05
5.19188e-05
5.33748e-05
4.94488e-05
5.33643e-05
5.13763e-05
5.38925e-05
5.75869e-05
4.93674e-05
5.24301e-05
5.15607e-05
5.61306e-05
5.76592e-05
5.33075e-05
5.30985e-05
5.68766e-05
5.24233e-05
5.40054e-05
5.18543e-05
5.83335e-05
5.27313e-05
3.59442e-05
3.66839e-05
3.61813e-05
3.61813e-05
3.92885e-05
3.73228e-05
4.61552e-05
3.65368e-05
3.92846e-05
3.73229e-05
3.65425e-05
4.61567e-05
3.79911e-05
4.76644e-05
4.76346e-05
4.93178e-05
2.03924e-05
4.93173e-05
1.72638e-05
2.24924e-05
1.42543e-05
4.93383e-05
2.04128e-05
4.93272e-05
1.72112e-05
3.59184e-05
3.59194e-05
3.59214e-05
3.52365e-05
3.52352e-05
3.52348e-05
3.52373e-05
4.39319e-05
4.68988e-05
3.69938e-05
3.81444e-05
4.28507e-05
4.54854e-05
3.69056e-05
2.25149e-05
1.42499e-05
4.39194e-05
3.70151e-05
4.68975e-05
3.81549e-05
4.28735e-05
3.69304e-05
4.55616e-05
3.96045e-05
3.95768e-05
3.94771e-05
3.55848e-05
3.55369e-05
4.54463e-05
1.28526e-05
4.74605e-05
1.23757e-05
1.02571e-05
9.92418e-06
4.47787e-05
1.26048e-05
4.72517e-05
1.21743e-05
3.50747e-05
3.50766e-05
3.50797e-05
3.47122e-05
3.47145e-05
3.47186e-05
3.47206e-05
4.63834e-05
4.20127e-05
3.68839e-05
3.91575e-05
4.58937e-05
3.94481e-05
3.69169e-05
1.0195e-05
9.85358e-06
4.61255e-05
3.66579e-05
4.22378e-05
3.89891e-05
4.56414e-05
3.6679e-05
3.9838e-05
2.90326e-05
2.92525e-05
4.14087e-05
2.61439e-05
2.64669e-05
4.03555e-05
1.23432e-05
4.21821e-05
1.23929e-05
9.5355e-06
9.26168e-06
3.94562e-05
1.22409e-05
4.15629e-05
1.22334e-05
3.46175e-05
3.46284e-05
3.46297e-05
3.4401e-05
3.44029e-05
3.44069e-05
3.44132e-05
4.54327e-05
3.65729e-05
3.71082e-05
4.01067e-05
4.61423e-05
3.51813e-05
3.71601e-05
9.47303e-06
9.1792e-06
4.55209e-05
3.6774e-05
3.68884e-05
3.99077e-05
4.6154e-05
3.68297e-05
3.55709e-05
2.37351e-05
2.40095e-05
4.29062e-05
2.2542e-05
2.28701e-05
3.76854e-05
1.24611e-05
3.85081e-05
1.24695e-05
8.9849e-06
8.81771e-06
3.68319e-05
1.23001e-05
3.76372e-05
1.22888e-05
3.43264e-05
3.43414e-05
3.43368e-05
3.41708e-05
3.4179e-05
3.41777e-05
3.42202e-05
4.48291e-05
3.41153e-05
3.73365e-05
4.06364e-05
4.47926e-05
3.38458e-05
3.74e-05
8.8879e-06
8.71426e-06
4.51812e-05
3.69751e-05
3.43885e-05
4.0455e-05
4.515e-05
3.70732e-05
3.41474e-05
2.15932e-05
2.18501e-05
4.33192e-05
2.10677e-05
2.14104e-05
3.73418e-05
1.26437e-05
3.72518e-05
1.27078e-05
8.72038e-06
8.71778e-06
3.65409e-05
1.24511e-05
3.65577e-05
1.25199e-05
3.42086e-05
3.42019e-05
3.41943e-05
3.42018e-05
3.4247e-05
3.42143e-05
3.42528e-05
4.55904e-05
3.40744e-05
3.76977e-05
4.12096e-05
4.51633e-05
3.42935e-05
3.78291e-05
8.59994e-06
8.56499e-06
4.5882e-05
3.74694e-05
3.4336e-05
4.10002e-05
4.5604e-05
3.75523e-05
3.45612e-05
2.08226e-05
2.11527e-05
4.40229e-05
2.06992e-05
2.11141e-05
3.81344e-05
1.29815e-05
3.7829e-05
1.31579e-05
8.79398e-06
8.84405e-06
3.72571e-05
1.28055e-05
3.70268e-05
1.29159e-05
3.42586e-05
3.42336e-05
3.42878e-05
3.43283e-05
3.44778e-05
3.43667e-05
3.44144e-05
4.7037e-05
3.49494e-05
3.81735e-05
4.20922e-05
4.65033e-05
3.54277e-05
3.83189e-05
8.62051e-06
8.66342e-06
4.74209e-05
3.77586e-05
3.52287e-05
4.18631e-05
4.69755e-05
3.78072e-05
3.56418e-05
2.0948e-05
2.13469e-05
4.50829e-05
2.10393e-05
2.14735e-05
3.95015e-05
1.36048e-05
3.91017e-05
1.38027e-05
8.99182e-06
9.08074e-06
3.84383e-05
1.33465e-05
3.80622e-05
1.3548e-05
3.45074e-05
3.45215e-05
3.45721e-05
3.46524e-05
3.45741e-05
3.45563e-05
3.46108e-05
4.93225e-05
3.64028e-05
3.89667e-05
4.32297e-05
4.87775e-05
3.69777e-05
3.91607e-05
8.82439e-06
8.92555e-06
4.94683e-05
3.80991e-05
3.68309e-05
4.29744e-05
4.86739e-05
3.82486e-05
3.7403e-05
2.14534e-05
2.19042e-05
4.68731e-05
2.168e-05
2.215e-05
4.10481e-05
1.41609e-05
4.05043e-05
1.4305e-05
9.2835e-06
9.38313e-06
4.02066e-05
1.39143e-05
3.97574e-05
1.40606e-05
3.4665e-05
3.46273e-05
3.47264e-05
3.52365e-05
3.5046e-05
3.48952e-05
3.50933e-05
5.1773e-05
3.81401e-05
3.97278e-05
4.46248e-05
5.10015e-05
3.87026e-05
3.96503e-05
9.18092e-06
9.27004e-06
5.18926e-05
3.86968e-05
3.84214e-05
4.43235e-05
5.07535e-05
3.89022e-05
3.92021e-05
2.24094e-05
2.27489e-05
4.82012e-05
2.26697e-05
2.30135e-05
4.35123e-05
1.48803e-05
4.24505e-05
1.51866e-05
9.6548e-06
9.80779e-06
4.19166e-05
1.45844e-05
4.13694e-05
1.48203e-05
3.52275e-05
3.50491e-05
3.52627e-05
3.56006e-05
3.58983e-05
3.55556e-05
3.59632e-05
5.4787e-05
4.04648e-05
4.01498e-05
4.64033e-05
5.37976e-05
4.12154e-05
4.03749e-05
9.55681e-06
9.6985e-06
5.45105e-05
3.95738e-05
4.10011e-05
4.61134e-05
5.412e-05
3.99173e-05
4.18546e-05
2.34251e-05
2.37258e-05
4.99471e-05
2.37378e-05
2.41275e-05
4.57936e-05
1.5834e-05
4.50381e-05
1.61229e-05
1.02192e-05
1.03864e-05
4.44608e-05
1.54176e-05
4.36263e-05
1.57485e-05
3.58931e-05
3.57146e-05
3.58872e-05
3.62681e-05
3.62962e-05
3.62542e-05
3.64334e-05
5.79853e-05
4.29067e-05
4.13341e-05
4.87256e-05
5.76223e-05
4.38456e-05
4.16511e-05
1.00603e-05
1.02328e-05
5.87799e-05
4.08096e-05
4.35265e-05
4.80897e-05
5.70745e-05
4.11693e-05
4.40292e-05
2.48002e-05
2.50516e-05
5.22574e-05
2.51694e-05
2.54652e-05
4.87515e-05
1.6924e-05
4.7805e-05
1.72857e-05
1.07262e-05
1.09493e-05
4.72495e-05
1.65249e-05
4.65248e-05
1.67931e-05
3.65935e-05
3.64732e-05
3.66676e-05
3.75823e-05
3.76046e-05
3.73714e-05
3.73714e-05
6.23768e-05
4.6019e-05
4.30701e-05
5.20084e-05
6.08014e-05
4.68409e-05
4.367e-05
1.0602e-05
1.08154e-05
6.16836e-05
4.23345e-05
4.61924e-05
5.09311e-05
6.07596e-05
4.29295e-05
4.7372e-05
2.61255e-05
2.65813e-05
5.50561e-05
2.66235e-05
2.71767e-05
5.1311e-05
1.79924e-05
5.09294e-05
1.82085e-05
1.14048e-05
1.16621e-05
1.74822e-05
4.91331e-05
3.79344e-05
3.75272e-05
3.73018e-05
6.51875e-05
4.9248e-05
4.50583e-05
5.39986e-05
6.4714e-05
5.08285e-05
4.56843e-05
1.12757e-05
6.57297e-05
4.32285e-05
4.92322e-05
6.42808e-05
4.37616e-05
2.78945e-05
2.83587e-05
5.76681e-05
2.84601e-05
2.88364e-05
3.7987e-05
4.76902e-05
4.76974e-05
8.48885e-06
3.75488e-05
8.46845e-06
3.75454e-05
3.83409e-05
3.88053e-05
3.88258e-05
4.93447e-05
4.93507e-05
3.92867e-05
3.73196e-05
4.61627e-05
3.65424e-05
3.9285e-05
3.73207e-05
4.61599e-05
3.65403e-05
4.29139e-05
3.52367e-06
4.25494e-05
4.88338e-05
4.29135e-05
3.51364e-06
4.24969e-05
4.88256e-05
4.022e-05
3.74032e-05
4.74113e-05
3.71156e-05
4.83136e-05
3.64746e-05
4.25034e-05
4.02231e-05
3.74043e-05
4.73944e-05
3.71146e-05
4.82989e-05
3.64724e-05
4.2489e-05
3.79886e-05
4.76604e-05
4.76715e-05
8.46572e-06
3.74972e-05
3.83426e-05
3.87645e-05
3.87927e-05
4.93395e-05
4.93122e-05
8.48438e-06
3.75078e-05
3.92853e-05
3.73222e-05
4.6168e-05
3.65423e-05
3.92882e-05
3.73192e-05
3.65415e-05
4.6154e-05
4.29114e-05
3.52816e-06
4.25553e-05
4.88625e-05
4.02151e-05
3.74035e-05
4.74371e-05
3.71166e-05
4.83199e-05
3.64745e-05
4.24975e-05
4.29127e-05
3.52248e-06
4.25323e-05
4.88551e-05
4.02178e-05
3.74034e-05
3.71168e-05
4.74128e-05
3.64734e-05
4.82961e-05
4.24988e-05
3.59454e-05
3.66827e-05
3.61785e-05
3.61818e-05
3.59454e-05
3.6683e-05
3.61798e-05
3.61797e-05
3.59457e-05
3.66853e-05
3.61816e-05
3.61812e-05
3.57665e-05
3.66915e-05
3.56011e-05
3.55931e-05
3.60576e-05
3.60553e-05
3.52406e-05
3.57675e-05
3.66905e-05
3.55994e-05
3.55932e-05
3.60553e-05
3.60557e-05
3.52409e-05
3.57674e-05
3.66908e-05
3.5589e-05
3.56049e-05
3.60528e-05
3.60582e-05
3.52408e-05
3.57676e-05
3.66932e-05
3.55899e-05
3.56058e-05
3.6054e-05
3.60597e-05
3.52412e-05
3.92879e-05
3.7322e-05
3.65401e-05
4.61663e-05
4.02183e-05
3.74047e-05
4.74084e-05
3.71498e-05
4.83073e-05
3.65025e-05
4.24969e-05
4.29141e-05
3.53047e-06
4.25422e-05
4.8855e-05
4.02171e-05
3.74064e-05
3.71172e-05
4.7416e-05
3.64734e-05
4.83077e-05
4.2497e-05
4.2914e-05
3.52884e-06
4.25464e-05
4.88445e-05
3.79886e-05
4.76406e-05
4.76517e-05
8.4682e-06
3.74808e-05
3.83428e-05
3.87951e-05
3.8791e-05
4.92959e-05
4.93013e-05
8.47662e-06
3.74781e-05
3.92847e-05
3.73256e-05
3.65416e-05
4.61514e-05
4.0224e-05
3.74047e-05
3.71159e-05
4.73945e-05
3.6475e-05
4.83066e-05
4.24766e-05
4.02247e-05
3.74072e-05
3.71167e-05
4.74074e-05
3.64742e-05
4.82919e-05
4.24922e-05
4.29178e-05
3.52016e-06
4.25255e-05
4.88236e-05
4.29193e-05
3.5234e-06
4.25125e-05
4.88387e-05
3.83448e-05
3.87862e-05
3.87414e-05
4.93234e-05
4.92859e-05
8.46139e-06
3.75169e-05
8.47176e-06
3.74805e-05
2.2481e-05
1.4262e-05
2.25343e-05
1.42653e-05
3.96333e-05
3.96468e-05
3.94748e-05
3.55996e-05
3.5605e-05
1.03781e-05
1.22119e-05
1.02833e-05
1.22478e-05
3.96749e-05
3.02038e-05
2.99075e-05
3.43429e-05
3.43443e-05
4.93538e-05
2.04028e-05
4.93239e-05
1.72626e-05
4.3924e-05
4.69196e-05
3.70141e-05
3.81432e-05
4.2867e-05
4.55582e-05
3.69281e-05
4.39286e-05
4.69176e-05
3.70131e-05
3.81441e-05
4.28772e-05
4.55424e-05
3.6927e-05
4.91513e-05
1.31588e-05
1.54069e-05
4.79084e-05
4.91886e-05
1.31615e-05
1.54002e-05
4.78874e-05
4.4473e-05
3.82775e-05
4.29229e-05
3.66203e-05
4.49997e-05
3.6807e-05
4.53983e-05
4.44752e-05
3.82801e-05
4.29066e-05
3.66174e-05
4.49964e-05
3.68053e-05
4.53878e-05
3.96103e-05
3.9628e-05
3.94766e-05
3.5558e-05
3.55857e-05
2.24749e-05
1.42382e-05
1.03837e-05
1.22154e-05
3.96788e-05
3.02077e-05
2.98971e-05
3.43467e-05
3.43197e-05
1.02657e-05
1.2222e-05
4.39359e-05
4.69282e-05
3.70165e-05
3.81421e-05
4.28579e-05
4.54975e-05
3.69113e-05
4.93836e-05
2.04168e-05
4.93415e-05
1.72286e-05
4.39392e-05
3.70159e-05
4.69346e-05
3.81445e-05
4.28584e-05
3.69089e-05
4.55206e-05
4.91746e-05
1.28554e-05
1.54608e-05
4.76878e-05
4.44721e-05
3.82733e-05
4.26036e-05
3.68596e-05
4.50894e-05
3.68353e-05
4.55828e-05
4.92203e-05
1.28611e-05
1.54593e-05
4.7721e-05
4.4473e-05
3.82801e-05
3.68387e-05
4.26059e-05
3.68257e-05
4.50724e-05
4.55865e-05
4.93794e-05
2.03987e-05
4.93306e-05
1.72076e-05
4.39319e-05
3.70161e-05
4.69265e-05
3.8153e-05
4.28591e-05
3.69095e-05
4.55053e-05
4.93715e-05
2.04053e-05
4.93283e-05
1.72243e-05
4.44725e-05
3.82717e-05
4.26089e-05
3.6849e-05
4.50811e-05
3.68277e-05
4.55947e-05
4.92206e-05
1.28592e-05
1.54502e-05
4.77421e-05
4.44721e-05
3.82761e-05
3.68562e-05
4.2618e-05
3.68275e-05
4.50792e-05
4.55862e-05
4.9209e-05
1.28612e-05
1.54599e-05
4.77223e-05
3.96409e-05
3.96341e-05
3.9478e-05
3.55834e-05
3.55742e-05
2.24554e-05
1.42484e-05
1.02726e-05
1.22364e-05
3.96783e-05
2.98999e-05
3.02267e-05
3.43468e-05
3.43334e-05
1.0382e-05
1.22003e-05
4.3939e-05
3.70164e-05
4.69219e-05
3.81463e-05
4.28853e-05
3.69302e-05
4.55491e-05
4.93592e-05
2.03827e-05
4.9327e-05
1.72656e-05
4.93841e-05
2.03928e-05
4.93445e-05
1.72634e-05
4.44752e-05
3.82733e-05
3.66568e-05
4.29555e-05
3.6812e-05
4.50009e-05
4.54051e-05
4.4488e-05
3.82875e-05
3.66367e-05
4.29222e-05
3.68179e-05
4.50113e-05
4.53994e-05
4.91977e-05
1.31655e-05
1.53965e-05
4.7908e-05
4.92208e-05
1.31615e-05
1.54012e-05
4.79302e-05
2.24768e-05
1.42358e-05
2.24303e-05
1.42446e-05
3.96791e-05
2.99086e-05
3.02197e-05
3.43136e-05
3.42878e-05
1.02673e-05
1.22181e-05
1.03921e-05
1.22018e-05
1.02464e-05
9.92e-06
1.01967e-05
9.86293e-06
2.92473e-05
2.90316e-05
4.1406e-05
2.64134e-05
2.61351e-05
9.56569e-06
9.86965e-06
9.52332e-06
9.83015e-06
4.15627e-05
2.42387e-05
2.3977e-05
2.59594e-05
2.57383e-05
4.5419e-05
1.28416e-05
4.75309e-05
1.23597e-05
4.61181e-05
4.22689e-05
3.66244e-05
3.89822e-05
4.56271e-05
3.98727e-05
3.66409e-05
4.61276e-05
4.22509e-05
3.66243e-05
3.89721e-05
4.56285e-05
3.98787e-05
3.66259e-05
4.48644e-05
1.23076e-05
1.23247e-05
4.27626e-05
4.49218e-05
1.23211e-05
1.23234e-05
4.27118e-05
4.61914e-05
3.92458e-05
3.73358e-05
3.67952e-05
3.92589e-05
3.66781e-05
4.62737e-05
4.63205e-05
3.92539e-05
3.73238e-05
3.67166e-05
3.9282e-05
3.66611e-05
4.62032e-05
2.92588e-05
2.90163e-05
4.1398e-05
2.6403e-05
2.61238e-05
1.01799e-05
9.84872e-06
9.58299e-06
9.87589e-06
4.15589e-05
2.42679e-05
2.39641e-05
2.59827e-05
2.57205e-05
9.50784e-06
9.81723e-06
4.63121e-05
4.2033e-05
3.68907e-05
3.9158e-05
4.58816e-05
3.94668e-05
3.69292e-05
4.47924e-05
1.25986e-05
4.72856e-05
1.2161e-05
4.62891e-05
3.68701e-05
4.20214e-05
3.91653e-05
4.58863e-05
3.69109e-05
3.93908e-05
4.43439e-05
1.2159e-05
1.21628e-05
4.19743e-05
4.6502e-05
3.94461e-05
3.68857e-05
3.70408e-05
3.89316e-05
3.69935e-05
4.63275e-05
4.43563e-05
1.21659e-05
1.21437e-05
4.19946e-05
4.64874e-05
3.94643e-05
3.70576e-05
3.68475e-05
3.6986e-05
3.894e-05
4.63775e-05
4.48247e-05
1.25974e-05
4.73091e-05
1.21408e-05
4.63783e-05
3.68876e-05
4.20177e-05
3.91746e-05
4.58879e-05
3.69476e-05
3.94547e-05
4.48108e-05
1.26082e-05
4.72896e-05
1.21404e-05
4.64835e-05
3.94221e-05
3.68944e-05
3.70375e-05
3.89172e-05
3.69819e-05
4.62534e-05
4.43862e-05
1.21798e-05
1.21398e-05
4.20053e-05
4.64844e-05
3.9461e-05
3.702e-05
3.68269e-05
3.69619e-05
3.89505e-05
4.6352e-05
4.43766e-05
1.21319e-05
1.21307e-05
4.20425e-05
2.90457e-05
2.92524e-05
4.14057e-05
2.61141e-05
2.64208e-05
1.02456e-05
9.91814e-06
9.51158e-06
9.82067e-06
4.15688e-05
2.39672e-05
2.42315e-05
2.57333e-05
2.59635e-05
9.56867e-06
9.8701e-06
4.61316e-05
3.66459e-05
4.22677e-05
3.89689e-05
4.56392e-05
3.66606e-05
3.98813e-05
4.54443e-05
1.28356e-05
4.75551e-05
1.23353e-05
4.54434e-05
1.28418e-05
4.75343e-05
1.23515e-05
4.63575e-05
3.92498e-05
3.67152e-05
3.72912e-05
3.66821e-05
3.92378e-05
4.61723e-05
4.62532e-05
3.92386e-05
3.67598e-05
3.73683e-05
3.67216e-05
3.92911e-05
4.62455e-05
4.49421e-05
1.23142e-05
1.23293e-05
4.27567e-05
4.49313e-05
1.23667e-05
1.23495e-05
4.26666e-05
1.01822e-05
9.84952e-06
1.02597e-05
9.94127e-06
4.15678e-05
2.39565e-05
2.42672e-05
2.57452e-05
2.59735e-05
9.49813e-06
9.81521e-06
9.59292e-06
9.89089e-06
9.51678e-06
9.24089e-06
9.48263e-06
9.18095e-06
2.4002e-05
2.37648e-05
4.29038e-05
2.28727e-05
2.25871e-05
8.98693e-06
9.20001e-06
8.89805e-06
9.14725e-06
4.29519e-05
2.20234e-05
2.16826e-05
2.27445e-05
2.2467e-05
4.02863e-05
1.23672e-05
4.21971e-05
1.24017e-05
4.56708e-05
3.68697e-05
3.68311e-05
3.99203e-05
4.62304e-05
3.56081e-05
3.6825e-05
4.55934e-05
3.68882e-05
3.67924e-05
3.99149e-05
4.61666e-05
3.56086e-05
3.68284e-05
3.98865e-05
1.24184e-05
1.239e-05
3.87401e-05
3.9934e-05
1.24409e-05
1.24287e-05
3.86683e-05
4.53739e-05
4.01177e-05
3.46237e-05
3.69068e-05
3.53409e-05
3.68543e-05
4.4957e-05
4.54043e-05
4.01329e-05
3.46433e-05
3.69149e-05
3.53716e-05
3.69179e-05
4.49347e-05
2.40326e-05
2.37537e-05
4.29007e-05
2.29023e-05
2.25947e-05
9.4663e-06
9.17644e-06
9.01634e-06
9.22138e-06
4.29739e-05
2.20826e-05
2.17283e-05
2.27746e-05
2.24748e-05
8.9076e-06
9.14085e-06
4.55049e-05
3.65638e-05
3.71053e-05
4.01e-05
4.61955e-05
3.51207e-05
3.71766e-05
3.95025e-05
1.22175e-05
4.15677e-05
1.22337e-05
4.54754e-05
3.71037e-05
3.65145e-05
4.01188e-05
4.62014e-05
3.71635e-05
3.51535e-05
3.91732e-05
1.22641e-05
1.2288e-05
3.78142e-05
4.52727e-05
4.03003e-05
3.4095e-05
3.72876e-05
3.49599e-05
3.72409e-05
4.47713e-05
3.92239e-05
1.22799e-05
1.22837e-05
3.78947e-05
4.52824e-05
4.03183e-05
3.73848e-05
3.4155e-05
3.72723e-05
3.49749e-05
4.47856e-05
3.95826e-05
1.2229e-05
4.16169e-05
1.22511e-05
4.55735e-05
3.70868e-05
3.65121e-05
4.01164e-05
4.62291e-05
3.7153e-05
3.5096e-05
3.96625e-05
1.22151e-05
4.16624e-05
1.22372e-05
4.52471e-05
4.02542e-05
3.42661e-05
3.72706e-05
3.50128e-05
3.72243e-05
4.48432e-05
3.93025e-05
1.2278e-05
1.22884e-05
3.7938e-05
4.53477e-05
4.03067e-05
3.72662e-05
3.40739e-05
3.72089e-05
3.49125e-05
4.48669e-05
3.93616e-05
1.22542e-05
1.22734e-05
3.79929e-05
2.37627e-05
2.40015e-05
4.28784e-05
2.26046e-05
2.28184e-05
9.52308e-06
9.23458e-06
8.91115e-06
9.14579e-06
4.29634e-05
2.17274e-05
2.18756e-05
2.24872e-05
2.26759e-05
8.94757e-06
9.18997e-06
4.56052e-05
3.68633e-05
3.69313e-05
3.99065e-05
4.61713e-05
3.68607e-05
3.56668e-05
4.03824e-05
1.23774e-05
4.22998e-05
1.23941e-05
4.02491e-05
1.23453e-05
4.21552e-05
1.23568e-05
4.5369e-05
4.00695e-05
3.69151e-05
3.45873e-05
3.68612e-05
3.53138e-05
4.51984e-05
4.54176e-05
4.01116e-05
3.69272e-05
3.46884e-05
3.68832e-05
3.54534e-05
4.50933e-05
4.00038e-05
1.24117e-05
1.24212e-05
3.87338e-05
3.99508e-05
1.24295e-05
1.23974e-05
3.86968e-05
9.45585e-06
9.15512e-06
9.54029e-06
9.2583e-06
4.29721e-05
2.1664e-05
2.1955e-05
2.24181e-05
2.27172e-05
8.87362e-06
9.11795e-06
8.98415e-06
9.21605e-06
8.95759e-06
8.79329e-06
8.87715e-06
8.7134e-06
2.19486e-05
2.16281e-05
4.32994e-05
2.14637e-05
2.1164e-05
8.67854e-06
8.77802e-06
8.61179e-06
8.70566e-06
4.33317e-05
2.115e-05
2.0911e-05
2.14354e-05
2.11541e-05
3.77784e-05
1.24293e-05
3.85073e-05
1.24546e-05
4.49808e-05
3.4549e-05
3.70297e-05
4.04985e-05
4.49786e-05
3.42889e-05
3.71922e-05
4.4946e-05
3.45563e-05
3.69906e-05
4.05009e-05
4.49311e-05
3.43715e-05
3.70788e-05
3.75893e-05
1.2577e-05
1.24936e-05
3.73285e-05
3.77022e-05
1.25899e-05
1.25043e-05
3.73387e-05
4.50736e-05
4.06491e-05
3.44574e-05
3.73972e-05
3.43384e-05
3.73657e-05
4.51927e-05
4.50111e-05
4.06784e-05
3.46068e-05
3.73535e-05
3.44566e-05
3.72894e-05
4.52855e-05
2.20062e-05
2.16696e-05
4.33426e-05
2.15093e-05
2.11666e-05
8.88459e-06
8.70959e-06
8.71833e-06
8.79786e-06
4.33632e-05
2.12419e-05
2.08513e-05
2.14873e-05
2.11489e-05
8.59438e-06
8.70107e-06
4.47715e-05
3.4041e-05
3.73718e-05
4.06267e-05
4.47499e-05
3.37872e-05
3.7419e-05
3.70057e-05
1.23088e-05
3.77836e-05
1.23123e-05
4.4795e-05
3.74698e-05
3.40965e-05
4.06849e-05
4.47464e-05
3.75757e-05
3.38009e-05
3.68094e-05
1.23802e-05
1.23433e-05
3.65102e-05
4.48271e-05
4.07801e-05
3.39584e-05
3.75589e-05
3.38396e-05
3.75014e-05
4.50799e-05
3.69598e-05
1.23845e-05
1.23541e-05
3.66133e-05
4.48477e-05
4.08535e-05
3.77806e-05
3.38761e-05
3.77491e-05
3.38543e-05
4.5139e-05
3.69245e-05
1.23063e-05
3.77898e-05
1.23068e-05
4.4838e-05
3.73481e-05
3.40089e-05
4.06248e-05
4.48351e-05
3.74064e-05
3.36478e-05
3.70126e-05
1.22798e-05
3.7849e-05
1.22727e-05
4.49006e-05
4.075e-05
3.39396e-05
3.75976e-05
3.38779e-05
3.75047e-05
4.50924e-05
3.6881e-05
1.23878e-05
1.23502e-05
3.65047e-05
4.48885e-05
4.07885e-05
3.75644e-05
3.37417e-05
3.75012e-05
3.36959e-05
4.50376e-05
3.69613e-05
1.23433e-05
1.23121e-05
3.64714e-05
2.16647e-05
2.17955e-05
4.35679e-05
2.11741e-05
2.13109e-05
8.91457e-06
8.74345e-06
8.59599e-06
8.70344e-06
4.37418e-05
2.08567e-05
2.10566e-05
2.11587e-05
2.12929e-05
8.6467e-06
8.7266e-06
4.51528e-05
3.70109e-05
3.46186e-05
4.04766e-05
4.51153e-05
3.70881e-05
3.44407e-05
3.77867e-05
1.24279e-05
3.85446e-05
1.2445e-05
3.77865e-05
1.24634e-05
3.85092e-05
1.24757e-05
4.52075e-05
4.05586e-05
3.73531e-05
3.42815e-05
3.71495e-05
3.4177e-05
4.55366e-05
4.51952e-05
4.06324e-05
3.72793e-05
3.44814e-05
3.71873e-05
3.44762e-05
4.54294e-05
3.77051e-05
1.25623e-05
1.24951e-05
3.73438e-05
3.77128e-05
1.26074e-05
1.25318e-05
3.73844e-05
8.85115e-06
8.66596e-06
8.95143e-06
8.79046e-06
4.33404e-05
2.08043e-05
2.119e-05
2.10632e-05
2.14031e-05
8.55791e-06
8.65526e-06
8.69609e-06
8.77849e-06
8.67129e-06
8.62716e-06
8.61486e-06
8.58095e-06
2.11571e-05
2.09321e-05
4.39946e-05
2.10336e-05
2.08325e-05
8.64339e-06
8.63272e-06
8.61772e-06
8.59935e-06
4.40822e-05
2.11082e-05
2.09882e-05
2.10604e-05
2.09278e-05
3.7402e-05
1.26563e-05
3.73477e-05
1.27634e-05
4.55933e-05
3.45951e-05
3.73615e-05
4.1024e-05
4.52963e-05
3.47599e-05
3.73875e-05
4.56338e-05
3.47335e-05
3.73647e-05
4.10807e-05
4.5397e-05
3.49994e-05
3.74419e-05
3.74781e-05
1.28889e-05
1.27724e-05
3.77543e-05
3.75432e-05
1.29757e-05
1.28408e-05
3.77954e-05
4.57852e-05
4.12721e-05
3.52233e-05
3.75434e-05
3.49255e-05
3.74488e-05
4.64714e-05
4.58424e-05
4.12975e-05
3.54979e-05
3.7631e-05
3.5171e-05
3.75299e-05
4.63404e-05
2.12626e-05
2.08736e-05
4.3929e-05
2.12412e-05
2.07799e-05
8.59701e-06
8.55906e-06
8.76046e-06
8.73645e-06
4.40001e-05
2.13869e-05
2.08914e-05
2.13218e-05
2.08373e-05
8.58241e-06
8.57287e-06
4.5717e-05
3.41238e-05
3.76687e-05
4.11934e-05
4.52379e-05
3.43081e-05
3.77782e-05
3.66073e-05
1.24471e-05
3.66831e-05
1.25092e-05
4.55049e-05
3.77515e-05
3.39871e-05
4.12349e-05
4.52707e-05
3.77846e-05
3.41316e-05
3.66571e-05
1.27061e-05
1.26052e-05
3.68408e-05
4.5905e-05
4.14429e-05
3.48618e-05
3.80102e-05
3.45196e-05
3.79014e-05
4.62691e-05
3.67059e-05
1.26903e-05
1.25943e-05
3.68543e-05
4.56633e-05
4.14622e-05
3.7991e-05
3.46619e-05
3.78984e-05
3.43327e-05
4.61919e-05
3.65017e-05
1.24527e-05
3.65484e-05
1.25217e-05
4.54854e-05
3.768e-05
3.39145e-05
4.12001e-05
4.51397e-05
3.77863e-05
3.41069e-05
3.64572e-05
1.2407e-05
3.65222e-05
1.24791e-05
4.57534e-05
4.13873e-05
3.47539e-05
3.80656e-05
3.44887e-05
3.79677e-05
4.63648e-05
3.66634e-05
1.26837e-05
1.26016e-05
3.68581e-05
4.57311e-05
4.14529e-05
3.81653e-05
3.46455e-05
3.7991e-05
3.43018e-05
4.63432e-05
3.66397e-05
1.26676e-05
1.25654e-05
3.68083e-05
2.08845e-05
2.10623e-05
4.40245e-05
2.07897e-05
2.1006e-05
8.64626e-06
8.62421e-06
8.58589e-06
8.57802e-06
4.40988e-05
2.08854e-05
2.11805e-05
2.08312e-05
2.11056e-05
8.65806e-06
8.63925e-06
4.60026e-05
3.73898e-05
3.45986e-05
4.10395e-05
4.56151e-05
3.7483e-05
3.47994e-05
3.73862e-05
1.26088e-05
3.73476e-05
1.26681e-05
3.74745e-05
1.26783e-05
3.73964e-05
1.27346e-05
4.60799e-05
4.1143e-05
3.7794e-05
3.5103e-05
3.77474e-05
3.4721e-05
4.67958e-05
4.61847e-05
4.12545e-05
3.78086e-05
3.5394e-05
3.75819e-05
3.49973e-05
4.68175e-05
3.75356e-05
1.28142e-05
1.27274e-05
3.78058e-05
3.76181e-05
1.29584e-05
1.28118e-05
3.79273e-05
8.56071e-06
8.51712e-06
8.69269e-06
8.67438e-06
4.40977e-05
2.08262e-05
2.12506e-05
2.0746e-05
2.11768e-05
8.54509e-06
8.53046e-06
8.7196e-06
8.69e-06
8.67349e-06
8.73246e-06
8.65626e-06
8.69814e-06
2.12318e-05
2.11448e-05
4.53283e-05
2.13613e-05
2.12609e-05
8.88472e-06
8.78403e-06
8.8189e-06
8.75141e-06
4.56013e-05
2.17887e-05
2.15788e-05
2.15329e-05
2.14315e-05
3.82134e-05
1.3067e-05
3.79197e-05
1.32186e-05
4.70717e-05
3.54443e-05
3.76347e-05
4.18856e-05
4.67468e-05
3.58817e-05
3.77897e-05
4.74082e-05
3.57027e-05
3.7752e-05
4.18917e-05
4.65573e-05
3.60997e-05
3.78511e-05
3.83602e-05
1.34856e-05
1.32758e-05
3.89172e-05
3.84445e-05
1.34796e-05
1.33175e-05
3.87721e-05
4.73771e-05
4.22051e-05
3.67368e-05
3.813e-05
3.61674e-05
3.79753e-05
4.82249e-05
4.76646e-05
4.22162e-05
3.68781e-05
3.81724e-05
3.63794e-05
3.80099e-05
4.81939e-05
2.15199e-05
2.10429e-05
4.51299e-05
2.16309e-05
2.11808e-05
8.61829e-06
8.66862e-06
8.94503e-06
8.88456e-06
4.53094e-05
2.1921e-05
2.15105e-05
2.17853e-05
2.13241e-05
8.78442e-06
8.72323e-06
4.70318e-05
3.51249e-05
3.81172e-05
4.20806e-05
4.64099e-05
3.54776e-05
3.83653e-05
3.73169e-05
1.28e-05
3.70839e-05
1.29307e-05
4.72406e-05
3.81585e-05
3.49592e-05
4.21048e-05
4.65858e-05
3.82732e-05
3.53999e-05
3.75249e-05
1.32002e-05
1.30339e-05
3.78766e-05
4.73592e-05
4.24263e-05
3.62184e-05
3.87406e-05
3.57427e-05
3.85688e-05
4.81533e-05
3.75966e-05
1.31663e-05
1.30441e-05
3.79331e-05
4.74048e-05
4.24366e-05
3.85218e-05
3.61007e-05
3.8429e-05
3.56907e-05
4.8139e-05
3.73939e-05
1.27746e-05
3.7094e-05
1.29057e-05
4.68441e-05
3.82999e-05
3.49542e-05
4.20405e-05
4.66e-05
3.84843e-05
3.53489e-05
3.72981e-05
1.27723e-05
3.70612e-05
1.28958e-05
4.73388e-05
4.23701e-05
3.61561e-05
3.86401e-05
3.57326e-05
3.84963e-05
4.8364e-05
3.76458e-05
1.3169e-05
1.30307e-05
3.8083e-05
4.70542e-05
4.23667e-05
3.88142e-05
3.58986e-05
3.87549e-05
3.55507e-05
4.80557e-05
3.75621e-05
1.31178e-05
1.30016e-05
3.79723e-05
2.09903e-05
2.12791e-05
4.53735e-05
2.11299e-05
2.14091e-05
8.68307e-06
8.72633e-06
8.76309e-06
8.70786e-06
4.55512e-05
2.14318e-05
2.18013e-05
2.1255e-05
2.15713e-05
8.86358e-06
8.77518e-06
4.73554e-05
3.79575e-05
3.56633e-05
4.18844e-05
4.70336e-05
3.80454e-05
3.61235e-05
3.82539e-05
1.2872e-05
3.80081e-05
1.30077e-05
3.83575e-05
1.3061e-05
3.80784e-05
1.32185e-05
4.74982e-05
4.20635e-05
3.79983e-05
3.66003e-05
3.78773e-05
3.58876e-05
4.83335e-05
4.75313e-05
4.21914e-05
3.83532e-05
3.68359e-05
3.83045e-05
3.63788e-05
4.83032e-05
3.84462e-05
1.33335e-05
1.31173e-05
3.88993e-05
3.85271e-05
1.34541e-05
1.33126e-05
3.89431e-05
8.58267e-06
8.61697e-06
8.75286e-06
8.7976e-06
4.518e-05
2.12997e-05
2.17705e-05
2.11551e-05
2.16068e-05
8.70242e-06
8.65606e-06
8.88733e-06
8.83131e-06
8.94959e-06
9.05516e-06
8.88999e-06
8.98149e-06
2.20029e-05
2.18035e-05
4.67265e-05
2.23159e-05
2.20252e-05
9.20244e-06
9.11509e-06
9.12506e-06
9.05335e-06
4.69654e-05
2.27571e-05
2.24501e-05
2.25134e-05
2.22567e-05
3.9538e-05
1.35967e-05
3.90169e-05
1.38065e-05
4.95084e-05
3.70993e-05
3.83289e-05
4.3005e-05
4.87226e-05
3.78013e-05
3.84911e-05
4.93052e-05
3.7198e-05
3.8365e-05
4.2988e-05
4.83719e-05
3.79241e-05
3.85035e-05
3.97206e-05
1.41037e-05
1.39195e-05
4.02828e-05
3.98623e-05
1.41206e-05
1.39375e-05
4.04558e-05
4.95843e-05
4.33962e-05
3.86828e-05
3.8763e-05
3.81512e-05
3.86403e-05
5.0436e-05
4.98369e-05
4.33716e-05
3.86866e-05
3.89932e-05
3.82625e-05
3.8714e-05
5.06342e-05
2.20782e-05
2.17012e-05
4.63275e-05
2.23195e-05
2.19033e-05
8.84791e-06
8.92729e-06
9.22924e-06
9.14184e-06
4.6454e-05
2.27258e-05
2.2377e-05
2.25183e-05
2.21447e-05
9.08855e-06
9.00122e-06
4.90133e-05
3.66325e-05
3.90355e-05
4.32489e-05
4.85978e-05
3.7364e-05
3.93585e-05
3.86465e-05
1.33009e-05
3.82292e-05
1.34726e-05
4.93801e-05
3.87127e-05
3.64444e-05
4.32571e-05
4.85235e-05
3.88446e-05
3.7061e-05
3.87723e-05
1.38314e-05
1.36942e-05
3.94075e-05
4.92131e-05
4.3659e-05
3.80841e-05
3.94127e-05
3.77692e-05
3.94307e-05
5.00549e-05
3.89538e-05
1.38074e-05
1.36301e-05
3.95002e-05
4.95622e-05
4.37002e-05
3.93117e-05
3.8141e-05
3.90934e-05
3.75166e-05
5.02884e-05
3.88529e-05
1.32957e-05
3.83959e-05
1.34602e-05
4.93338e-05
3.88352e-05
3.62155e-05
4.31675e-05
4.86029e-05
3.87924e-05
3.68505e-05
3.87775e-05
1.32504e-05
3.83184e-05
1.34275e-05
4.95991e-05
4.35532e-05
3.79092e-05
3.9664e-05
3.73459e-05
3.92949e-05
5.07622e-05
3.91639e-05
1.37639e-05
1.36093e-05
3.96051e-05
4.94283e-05
4.35851e-05
3.90801e-05
3.80367e-05
3.89442e-05
3.72869e-05
5.02941e-05
3.91224e-05
1.37991e-05
1.35901e-05
3.96636e-05
2.16313e-05
2.19861e-05
4.66163e-05
2.19241e-05
2.22213e-05
8.92263e-06
9.00768e-06
9.10851e-06
9.00767e-06
4.66676e-05
2.24345e-05
2.2632e-05
2.21683e-05
2.23837e-05
9.14547e-06
9.05505e-06
4.9609e-05
3.82837e-05
3.7145e-05
4.31433e-05
4.87311e-05
3.83599e-05
3.7795e-05
3.96938e-05
1.3454e-05
3.92173e-05
1.36487e-05
3.97609e-05
1.35608e-05
3.92121e-05
1.37555e-05
4.97175e-05