/*--------------------------------*- C++ -*----------------------------------*\
| =========                 |                                                 |
| \\      /  F ield         | OpenFOAM: The Open Source CFD Toolbox           |
|  \\    /   O peration     | Version:  2206                                  |
|   \\  /    A nd           | Website:  www.openfoam.com                      |
|    \\/     M anipulation  |                                                 |
\*---------------------------------------------------------------------------*/
FoamFile
{
    version     2.0;
    format      ascii;
    arch        "LSB;label=32;scalar=64";
    class       volScalarField;
    location    "120";
    object      nut;
}
// * * * * * * * * * * * * * * * * * * * * * * * * * * * * * * * * * * * * * //

dimensions      [0 2 -1 0 0 0 0];

internalField   nonuniform List<scalar> 
66616
(
1.6494e-06
1.21886e-06
1.2196e-06
1.17499e-06
1.66855e-06
1.37468e-06
1.40008e-06
1.37356e-06
1.69898e-06
1.28573e-06
1.31099e-06
1.29383e-06
1.71378e-06
1.20969e-06
1.23471e-06
1.20893e-06
1.74257e-06
1.14018e-06
1.16449e-06
1.1302e-06
1.77143e-06
1.0859e-06
1.1078e-06
1.07377e-06
1.8105e-06
1.04379e-06
1.06452e-06
1.0338e-06
1.83959e-06
1.0108e-06
1.03304e-06
1.00216e-06
1.87143e-06
9.89039e-07
1.01235e-06
9.74598e-07
1.86229e-06
9.80502e-07
9.977e-07
9.76105e-07
1.82147e-06
9.90361e-07
9.99414e-07
9.6383e-07
1.79213e-06
9.86653e-07
1.01985e-06
9.67328e-07
8.85682e-07
1.12058e-06
1.12058e-06
8.85942e-07
1.12207e-06
1.12046e-06
1.64757e-06
1.64757e-06
1.64756e-06
1.64762e-06
1.12222e-06
1.11965e-06
8.8576e-07
1.12192e-06
1.12088e-06
8.85117e-07
1.17591e-06
1.3986e-06
1.22018e-06
1.22008e-06
1.40205e-06
1.40178e-06
1.17551e-06
1.39877e-06
1.21894e-06
1.2189e-06
1.39245e-06
1.38822e-06
1.21825e-06
1.3928e-06
1.38828e-06
1.17556e-06
1.39835e-06
1.21916e-06
1.40642e-06
1.40539e-06
1.39813e-06
1.3738e-06
1.28915e-06
1.39616e-06
1.39607e-06
1.32766e-06
1.32792e-06
1.3736e-06
1.28958e-06
1.37456e-06
1.3712e-06
1.30744e-06
1.30446e-06
1.37076e-06
1.30858e-06
1.30455e-06
1.37387e-06
1.28914e-06
1.39976e-06
1.33265e-06
1.33137e-06
1.28912e-06
1.29391e-06
1.1984e-06
1.30755e-06
1.30796e-06
1.25216e-06
1.25175e-06
1.2941e-06
1.20061e-06
1.28675e-06
1.28382e-06
1.23041e-06
1.22845e-06
1.28387e-06
1.23158e-06
1.22798e-06
1.29384e-06
1.19967e-06
1.31073e-06
1.25509e-06
1.25484e-06
1.19944e-06
1.20776e-06
1.11644e-06
1.23342e-06
1.23252e-06
1.18013e-06
1.1812e-06
1.21001e-06
1.11753e-06
1.2099e-06
1.20843e-06
1.1584e-06
1.15728e-06
1.20692e-06
1.15983e-06
1.1556e-06
1.21139e-06
1.12005e-06
1.23514e-06
1.18333e-06
1.18254e-06
1.11721e-06
1.12956e-06
1.05998e-06
1.16334e-06
1.16474e-06
1.12062e-06
1.12077e-06
1.1307e-06
1.05733e-06
1.14098e-06
1.13972e-06
1.10039e-06
1.09814e-06
1.13888e-06
1.10247e-06
1.09812e-06
1.13303e-06
1.05856e-06
1.16599e-06
1.12404e-06
1.12341e-06
1.05871e-06
1.07621e-06
1.01929e-06
1.10781e-06
1.10745e-06
1.07464e-06
1.0751e-06
1.07262e-06
1.02066e-06
1.08682e-06
1.08434e-06
1.05592e-06
1.05365e-06
1.08358e-06
1.05804e-06
1.05259e-06
1.07517e-06
1.02117e-06
1.11092e-06
1.07803e-06
1.07799e-06
1.01542e-06
1.03496e-06
9.8587e-07
1.06465e-06
1.06443e-06
1.03934e-06
1.03923e-06
1.03638e-06
9.84648e-07
1.04444e-06
1.04275e-06
1.02184e-06
1.02085e-06
1.04079e-06
1.02355e-06
1.01875e-06
1.04042e-06
9.85504e-07
1.06921e-06
1.04365e-06
1.04956e-06
9.83003e-07
1.00678e-06
9.50343e-07
1.03038e-06
1.03131e-06
1.01034e-06
1.0115e-06
1.00268e-06
9.60913e-07
1.01047e-06
1.01091e-06
9.94138e-07
9.95526e-07
1.00751e-06
1.0022e-06
9.92099e-07
1.00708e-06
9.63285e-07
1.04273e-06
1.019e-06
1.03974e-06
9.59264e-07
9.66678e-07
9.54361e-07
1.00485e-06
1.00369e-06
9.96157e-07
9.92649e-07
9.77991e-07
9.53113e-07
9.84613e-07
9.85521e-07
9.79254e-07
9.81499e-07
9.8283e-07
9.87935e-07
9.77076e-07
9.79953e-07
9.61323e-07
1.03248e-06
1.00525e-06
1.02091e-06
9.5631e-07
9.71199e-07
9.56218e-07
9.94848e-07
9.8776e-07
1.00014e-06
9.90182e-07
9.69295e-07
9.73721e-07
9.693e-07
9.72753e-07
9.73314e-07
9.80626e-07
9.66813e-07
9.99552e-07
9.70432e-07
9.85159e-07
9.59467e-07
1.00022e-06
1.00583e-06
9.88734e-07
9.47438e-07
9.65852e-07
9.96661e-07
1.0003e-06
9.87946e-07
1.02817e-06
1.01748e-06
9.78763e-07
9.71967e-07
9.64024e-07
9.73664e-07
9.89421e-07
1.01512e-06
9.56221e-07
1.01814e-06
9.77475e-07
9.67872e-07
9.97818e-07
9.86163e-07
1.01921e-06
1.00146e-06
9.69017e-07
9.86888e-07
1.01571e-06
1.01085e-06
9.76929e-07
9.7044e-07
9.97636e-07
9.57196e-07
9.98181e-07
1.00703e-06
1.62328e-06
1.64855e-06
1.63136e-06
1.6314e-06
5.11315e-07
1.22627e-06
1.9424e-07
1.64373e-06
5.10902e-07
1.22616e-06
1.64396e-06
1.94269e-07
8.82928e-07
1.6004e-07
1.59926e-07
3.39494e-07
3.05366e-08
3.09016e-07
4.00237e-08
4.3296e-08
2.61898e-08
3.39223e-07
3.0583e-08
3.094e-07
3.99075e-08
1.64966e-06
1.64965e-06
1.64972e-06
1.66379e-06
1.66359e-06
1.66344e-06
1.66357e-06
6.94571e-07
2.64358e-07
1.65409e-06
1.31696e-06
6.04701e-07
3.16893e-07
1.68188e-06
4.33555e-08
2.61859e-08
6.96981e-07
1.65155e-06
2.64222e-07
1.31777e-06
6.02903e-07
1.68289e-06
3.17269e-07
1.86445e-07
1.85781e-07
1.39843e-06
1.69908e-07
1.69236e-07
2.96253e-07
3.8976e-08
3.18548e-07
3.92358e-08
2.3879e-08
2.36556e-08
2.85654e-07
3.79594e-08
3.11049e-07
3.83463e-08
1.6707e-06
1.67099e-06
1.67083e-06
1.69464e-06
1.69459e-06
1.69518e-06
1.6944e-06
6.50036e-07
2.86824e-07
1.71265e-06
1.35309e-06
6.92735e-07
2.63469e-07
1.72212e-06
2.36467e-08
2.33991e-08
6.76239e-07
1.71734e-06
2.92796e-07
1.37796e-06
7.10022e-07
1.72702e-06
2.69837e-07
1.39822e-07
1.42015e-07
1.33843e-06
1.27193e-07
1.29798e-07
2.45547e-07
4.002e-08
2.61579e-07
4.04472e-08
2.29373e-08
2.23577e-08
2.35156e-07
3.94248e-08
2.51448e-07
3.9645e-08
1.70195e-06
1.70265e-06
1.70262e-06
1.71762e-06
1.71784e-06
1.71847e-06
1.71782e-06
5.64627e-07
2.34432e-07
1.71229e-06
1.26888e-06
6.02201e-07
2.22727e-07
1.71006e-06
2.26987e-08
2.20829e-08
5.91553e-07
1.71458e-06
2.40233e-07
1.29274e-06
6.25593e-07
1.71487e-06
2.28287e-07
1.16045e-07
1.18347e-07
1.24552e-06
1.1024e-07
1.12697e-07
2.19156e-07
4.08127e-08
2.2659e-07
4.09149e-08
2.17673e-08
2.14171e-08
2.10056e-07
3.99922e-08
2.16167e-07
4.00577e-08
1.7191e-06
1.72069e-06
1.71939e-06
1.73223e-06
1.73891e-06
1.73935e-06
1.74025e-06
5.09417e-07
2.09114e-07
1.66682e-06
1.19378e-06
5.29278e-07
2.05842e-07
1.65994e-06
2.14528e-08
2.10906e-08
5.36463e-07
1.69471e-06
2.14158e-07
1.21784e-06
5.54349e-07
1.7191e-06
2.1047e-07
1.05404e-07
1.07448e-07
1.15474e-06
1.02758e-07
1.05362e-07
2.10516e-07
4.15586e-08
2.11498e-07
4.18515e-08
2.12455e-08
2.12873e-08
2.02272e-07
4.06522e-08
2.02751e-07
4.09634e-08
1.75115e-06
1.75144e-06
1.75206e-06
1.77255e-06
1.78493e-06
1.78761e-06
1.78645e-06
4.82455e-07
2.01884e-07
1.59985e-06
1.12887e-06
4.9334e-07
2.02347e-07
1.58793e-06
2.08702e-08
2.08386e-08
5.06668e-07
1.66856e-06
2.06641e-07
1.15144e-06
5.17583e-07
1.65127e-06
2.06514e-07
1.01447e-07
1.03885e-07
1.08593e-06
1.00767e-07
1.03729e-07
2.10342e-07
4.28066e-08
2.09516e-07
4.34728e-08
2.15265e-08
2.16976e-08
2.02014e-07
4.19413e-08
2.00468e-07
4.2384e-08
1.78304e-06
1.77988e-06
1.80046e-06
1.81266e-06
1.80817e-06
1.79625e-06
1.80705e-06
4.6992e-07
2.01738e-07
1.52737e-06
1.07808e-06
4.7683e-07
2.0418e-07
1.51747e-06
2.10236e-08
2.11771e-08
4.93486e-07
1.5901e-06
2.06485e-07
1.09957e-06
5.00163e-07
1.57117e-06
2.07919e-07
1.01933e-07
1.04609e-07
1.03466e-06
1.02237e-07
1.05167e-07
2.14479e-07
4.50025e-08
2.1276e-07
4.5763e-08
2.21078e-08
2.2367e-08
2.05337e-07
4.38434e-08
2.02573e-07
4.45886e-08
1.83427e-06
1.83948e-06
1.8399e-06
1.85047e-06
1.82304e-06
1.82526e-06
1.82656e-06
4.70113e-07
2.05946e-07
1.46732e-06
1.03906e-06
4.74975e-07
2.0932e-07
1.46164e-06
2.16203e-08
2.19149e-08
4.90324e-07
1.51408e-06
2.11509e-07
1.05896e-06
4.91728e-07
1.49938e-06
2.14163e-07
1.04116e-07
1.07146e-07
1.00655e-06
1.0524e-07
1.08462e-07
2.20278e-07
4.69736e-08
2.17522e-07
4.75326e-08
2.29158e-08
2.32041e-08
2.12522e-07
4.58419e-08
2.09034e-07
4.64086e-08
1.85964e-06
1.84207e-06
1.84841e-06
1.87377e-06
1.8541e-06
1.84862e-06
1.8542e-06
4.74815e-07
2.12438e-07
1.40708e-06
1.01049e-06
4.75938e-07
2.15982e-07
1.3954e-06
2.25836e-08
2.28479e-08
4.93974e-07
1.45052e-06
2.17131e-07
1.02849e-06
4.90905e-07
1.43818e-06
2.21237e-07
1.08784e-07
1.11165e-07
9.74572e-07
1.09932e-07
1.12531e-07
2.31619e-07
4.94999e-08
2.25824e-07
5.05879e-08
2.39154e-08
2.43336e-08
2.19826e-07
4.81861e-08
2.15583e-07
4.90549e-08
1.89182e-06
1.87508e-06
1.88801e-06
1.86957e-06
1.88544e-06
1.86298e-06
1.88609e-06
4.86998e-07
2.22753e-07
1.33829e-06
9.94551e-07
4.84848e-07
2.27651e-07
1.34233e-06
2.3592e-08
2.39852e-08
5.01783e-07
1.40024e-06
2.28955e-07
1.01154e-06
5.04916e-07
1.39286e-06
2.33659e-07
1.1356e-07
1.15842e-07
9.56307e-07
1.15141e-07
1.17919e-07
2.42334e-07
5.28051e-08
2.38059e-07
5.38476e-08
2.54017e-08
2.58537e-08
2.31914e-07
5.10708e-08
2.26044e-07
5.22609e-08
1.87334e-06
1.86044e-06
1.86976e-06
1.81196e-06
1.81385e-06
1.80784e-06
1.81963e-06
5.02677e-07
2.34095e-07
1.29897e-06
9.93028e-07
5.04721e-07
2.40124e-07
1.31257e-06
2.49201e-08
2.53851e-08
5.27366e-07
1.36499e-06
2.40769e-07
1.00206e-06
5.17212e-07
1.35714e-06
2.43571e-07
1.20303e-07
1.22427e-07
9.53476e-07
1.2209e-07
1.24526e-07
2.5721e-07
5.65779e-08
2.51636e-07
5.78647e-08
2.67344e-08
2.73244e-08
2.45475e-07
5.48709e-08
2.40308e-07
5.58506e-08
1.823e-06
1.81398e-06
1.82382e-06
1.7817e-06
1.78532e-06
1.76896e-06
1.77191e-06
5.31619e-07
2.49566e-07
1.27819e-06
1.01327e-06
5.21479e-07
2.55001e-07
1.30907e-06
2.63299e-08
2.69013e-08
5.43144e-07
1.34107e-06
2.53779e-07
1.01201e-06
5.38679e-07
1.33881e-06
2.60487e-07
1.26603e-07
1.29917e-07
9.66126e-07
1.29178e-07
1.33091e-07
2.67268e-07
6.02878e-08
2.67585e-07
6.08676e-08
2.84948e-08
2.91061e-08
5.81948e-08
2.54076e-07
1.80407e-06
1.78222e-06
1.76892e-06
5.4876e-07
2.66632e-07
1.26396e-06
1.0109e-06
5.48058e-07
2.75436e-07
1.30735e-06
2.80734e-08
5.60809e-07
1.30125e-06
2.69673e-07
5.6235e-07
1.26356e-06
1.35474e-07
1.38922e-07
9.83571e-07
1.38304e-07
1.40769e-07
8.84027e-07
1.59561e-07
1.59582e-07
7.84082e-09
1.02014e-07
7.8207e-09
1.01979e-07
8.3762e-07
1.43516e-07
1.43561e-07
1.67328e-07
1.67317e-07
5.1093e-07
1.23237e-06
1.9428e-07
1.64386e-06
5.11032e-07
1.2321e-06
1.94174e-07
1.64379e-06
3.0015e-07
2.12035e-09
1.13678e-07
2.6639e-07
3.00148e-07
2.11343e-09
1.1351e-07
2.66366e-07
4.93643e-07
1.30679e-06
1.88021e-07
1.57952e-06
2.16708e-07
1.64338e-06
5.48847e-07
4.93797e-07
1.3065e-06
1.87919e-07
1.57951e-06
2.16846e-07
1.6432e-06
5.48757e-07
8.83812e-07
1.6001e-07
1.59476e-07
7.81921e-09
1.01804e-07
8.37369e-07
1.43213e-07
1.43291e-07
1.66105e-07
1.67176e-07
7.83418e-09
1.01884e-07
5.11379e-07
1.22644e-06
1.94298e-07
1.64391e-06
5.11416e-07
1.23184e-06
1.64376e-06
1.94183e-07
3.00211e-07
2.12096e-09
1.13674e-07
2.662e-07
4.93176e-07
1.31048e-06
1.87984e-07
1.57617e-06
2.16707e-07
1.64324e-06
5.47365e-07
3.00189e-07
2.11985e-09
1.1357e-07
2.66138e-07
4.93201e-07
1.30637e-06
1.57611e-06
1.87874e-07
1.6431e-06
2.16838e-07
5.47326e-07
1.62322e-06
1.64853e-06
1.63112e-06
1.63132e-06
1.62318e-06
1.64855e-06
1.63129e-06
1.63129e-06
1.62326e-06
1.6486e-06
1.63131e-06
1.6312e-06
1.62266e-06
1.65357e-06
1.63053e-06
1.63047e-06
1.63128e-06
1.63124e-06
1.62049e-06
1.62265e-06
1.65364e-06
1.63044e-06
1.63039e-06
1.63118e-06
1.63125e-06
1.62058e-06
1.62264e-06
1.65362e-06
1.63033e-06
1.63045e-06
1.63116e-06
1.63126e-06
1.6206e-06
1.62261e-06
1.65363e-06
1.63019e-06
1.63049e-06
1.63114e-06
1.63123e-06
1.62043e-06
5.1141e-07
1.23078e-06
1.64369e-06
1.94223e-07
4.93108e-07
1.31025e-06
1.87909e-07
1.57775e-06
2.16648e-07
1.64449e-06
5.4724e-07
3.00105e-07
2.12456e-09
1.13636e-07
2.6611e-07
4.93189e-07
1.30534e-06
1.57599e-06
1.87911e-07
1.64325e-06
2.16871e-07
5.47284e-07
3.00104e-07
2.12419e-09
1.1362e-07
2.66068e-07
8.83697e-07
1.5995e-07
1.59419e-07
7.81632e-09
1.01714e-07
8.37318e-07
1.43543e-07
1.43442e-07
1.65928e-07
1.67182e-07
7.8287e-09
1.01637e-07
5.10938e-07
1.22494e-06
1.64376e-06
1.94191e-07
4.9371e-07
1.30993e-06
1.57893e-06
1.87981e-07
1.64325e-06
2.16706e-07
5.48516e-07
4.93764e-07
1.30887e-06
1.57848e-06
1.88015e-07
1.64322e-06
2.16876e-07
5.48775e-07
3.00108e-07
2.11836e-09
1.1361e-07
2.66335e-07
3.00106e-07
2.12011e-09
1.13553e-07
2.66428e-07
8.36856e-07
1.43481e-07
1.43027e-07
1.66028e-07
1.65937e-07
7.81156e-09
1.01826e-07
7.82299e-09
1.01735e-07
4.32674e-08
2.62084e-08
4.33912e-08
2.62127e-08
1.86904e-07
1.87033e-07
1.39972e-06
1.69898e-07
1.6977e-07
2.37496e-08
2.37845e-08
2.34616e-08
2.38465e-08
1.31757e-06
1.46291e-07
1.43217e-07
1.63583e-07
1.63406e-07
3.39755e-07
3.06324e-08
3.09078e-07
4.00482e-08
6.97135e-07
2.6433e-07
1.65148e-06
1.3149e-06
6.02775e-07
3.17308e-07
1.68126e-06
6.973e-07
2.64215e-07
1.65141e-06
1.31491e-06
6.03005e-07
3.17049e-07
1.68104e-06
3.31729e-07
3.8835e-08
3.83538e-08
3.25433e-07
3.32002e-07
3.88454e-08
3.83341e-08
3.25279e-07
7.02103e-07
1.37194e-06
3.0105e-07
1.69947e-06
3.10172e-07
1.69065e-06
7.15042e-07
7.02209e-07
1.37195e-06
3.00762e-07
1.69979e-06
3.09993e-07
1.69078e-06
7.1488e-07
1.86533e-07
1.86962e-07
1.39972e-06
1.69369e-07
1.69721e-07
4.32606e-08
2.61615e-08
2.37554e-08
2.37824e-08
1.31752e-06
1.46117e-07
1.43277e-07
1.63315e-07
1.63383e-07
2.34267e-08
2.37962e-08
6.94742e-07
2.6443e-07
1.65499e-06
1.31678e-06
6.04947e-07
3.16847e-07
1.68024e-06
3.39511e-07
3.05438e-08
3.09466e-07
3.99558e-08
6.94788e-07
1.65403e-06
2.64466e-07
1.31382e-06
6.04924e-07
1.67982e-06
3.17107e-07
3.3227e-07
3.77111e-08
3.84806e-08
3.20559e-07
7.04873e-07
1.36808e-06
2.95259e-07
1.70813e-06
3.10474e-07
1.69311e-06
6.98856e-07
3.32557e-07
3.77333e-08
3.84703e-08
3.20751e-07
7.04878e-07
1.36407e-06
1.70706e-06
2.95318e-07
1.69288e-06
3.10432e-07
6.98891e-07
3.39453e-07
3.0505e-08
3.09356e-07
3.9899e-08
6.94711e-07
1.65382e-06
2.64479e-07
1.31363e-06
6.04946e-07
1.68005e-06
3.17094e-07
3.39419e-07
3.04705e-08
3.0936e-07
3.99442e-08
7.04766e-07
1.36822e-06
2.95421e-07
1.70583e-06
3.10552e-07
1.69049e-06
6.98918e-07
3.32539e-07
3.77226e-08
3.84469e-08
3.20886e-07
7.04907e-07
1.36343e-06
1.70812e-06
2.95541e-07
1.69134e-06
3.10596e-07
6.98915e-07
3.32471e-07
3.77354e-08
3.84725e-08
3.20757e-07
1.87103e-07
1.87127e-07
1.39916e-06
1.69526e-07
1.69501e-07
4.32138e-08
2.61764e-08
2.3439e-08
2.38202e-08
1.31733e-06
1.4318e-07
1.46414e-07
1.63367e-07
1.63656e-07
2.37565e-08
2.37566e-08
6.97354e-07
1.65109e-06
2.6429e-07
1.31674e-06
6.03106e-07
1.68107e-06
3.17062e-07
3.39778e-07
3.04998e-08
3.09088e-07
4.00369e-08
3.39958e-07
3.05399e-08
3.09202e-07
4.00295e-08
7.02019e-07
1.37532e-06
1.69921e-06
3.01193e-07
1.69086e-06
3.10115e-07
7.14783e-07
7.0227e-07
1.37498e-06
1.70005e-06
3.00818e-07
1.69096e-06
3.10063e-07
7.14695e-07
3.32055e-07
3.88575e-08
3.83259e-08
3.25414e-07
3.32221e-07
3.88462e-08
3.83369e-08
3.2557e-07
4.32506e-08
2.61639e-08
4.31483e-08
2.61677e-08
1.31686e-06
1.43407e-07
1.46234e-07
1.63407e-07
1.62998e-07
2.34331e-08
2.37947e-08
2.37733e-08
2.37577e-08
2.38504e-08
2.36487e-08
2.36392e-08
2.34185e-08
1.42212e-07
1.39711e-07
1.33862e-06
1.29617e-07
1.27017e-07
2.29937e-08
2.35773e-08
2.28023e-08
2.33946e-08
1.33525e-06
1.19746e-07
1.17215e-07
1.27781e-07
1.25405e-07
2.96076e-07
3.88973e-08
3.19032e-07
3.9192e-08
6.76495e-07
2.93088e-07
1.71471e-06
1.37351e-06
7.10162e-07
2.70144e-07
1.72462e-06
6.76659e-07
2.92787e-07
1.71374e-06
1.37326e-06
7.10191e-07
2.70072e-07
1.72681e-06
2.88434e-07
3.98271e-08
3.92691e-08
2.68232e-07
2.88826e-07
3.98658e-08
3.92687e-08
2.67902e-07
6.6675e-07
1.34975e-06
2.45676e-07
1.72945e-06
2.62958e-07
1.73294e-06
6.35419e-07
6.68698e-07
1.34991e-06
2.45456e-07
1.72127e-06
2.62989e-07
1.72022e-06
6.34392e-07
1.42053e-07
1.39776e-07
1.33881e-06
1.29452e-07
1.26922e-07
2.36049e-08
2.33883e-08
2.30338e-08
2.35831e-08
1.33516e-06
1.19907e-07
1.17304e-07
1.27905e-07
1.25419e-07
2.27701e-08
2.33532e-08
6.49076e-07
2.86829e-07
1.71106e-06
1.35285e-06
6.9268e-07
2.63497e-07
1.71844e-06
2.85732e-07
3.79006e-08
3.11252e-07
3.83012e-08
6.48805e-07
1.70965e-06
2.86789e-07
1.34947e-06
6.92745e-07
1.7167e-06
2.63013e-07
2.78094e-07
3.90749e-08
3.84916e-08
2.57759e-07
6.46256e-07
1.32912e-06
2.39195e-07
1.70953e-06
2.5651e-07
1.7227e-06
6.07886e-07
2.78166e-07
3.90936e-08
3.84351e-08
2.57873e-07
6.46111e-07
1.32606e-06
1.70903e-06
2.38963e-07
1.72171e-06
2.56581e-07
6.08568e-07
2.85938e-07
3.78989e-08
3.11402e-07
3.82462e-08
6.5009e-07
1.71618e-06
2.86896e-07
1.34965e-06
6.92826e-07
1.71356e-06
2.63587e-07
2.8585e-07
3.79328e-08
3.11285e-07
3.82459e-08
6.45958e-07
1.32854e-06
2.39373e-07
1.71495e-06
2.56503e-07
1.71214e-06
6.06869e-07
2.7836e-07
3.91525e-08
3.84228e-08
2.57938e-07
6.46115e-07
1.32579e-06
1.71768e-06
2.38967e-07
1.71516e-06
2.56783e-07
6.08253e-07
2.78303e-07
3.89911e-08
3.83967e-08
2.58171e-07
1.39756e-07
1.422e-07
1.33829e-06
1.26789e-07
1.29622e-07
2.38447e-08
2.36412e-08
2.27769e-08
2.3357e-08
1.33541e-06
1.17267e-07
1.19751e-07
1.25408e-07
1.27722e-07
2.29965e-08
2.3575e-08
6.76342e-07
1.71479e-06
2.92865e-07
1.37671e-06
7.10035e-07
1.72855e-06
2.69986e-07
2.96233e-07
3.8877e-08
3.19187e-07
3.91069e-08
2.96227e-07
3.89014e-08
3.19064e-07
3.91603e-08
6.68841e-07
1.35399e-06
1.72224e-06
2.4531e-07
1.71837e-06
2.62753e-07
6.3361e-07
6.67343e-07
1.35286e-06
1.73063e-06
2.45691e-07
1.72296e-06
2.62974e-07
6.34593e-07
2.88948e-07
3.98437e-08
3.92858e-08
2.68178e-07
2.88887e-07
4.00214e-08
3.93536e-08
2.67608e-07
2.36146e-08
2.33975e-08
2.3874e-08
2.3694e-08
1.3353e-06
1.17122e-07
1.19627e-07
1.25565e-07
1.27659e-07
2.27458e-08
2.33531e-08
2.30513e-08
2.36141e-08
2.28879e-08
2.23154e-08
2.27109e-08
2.2083e-08
1.18665e-07
1.1631e-07
1.2456e-06
1.12882e-07
1.10264e-07
2.17666e-08
2.22223e-08
2.14703e-08
2.20124e-08
1.25338e-06
1.08648e-07
1.05828e-07
1.12368e-07
1.10249e-07
2.45115e-07
4.00936e-08
2.6168e-07
4.04811e-08
5.93902e-07
2.40166e-07
1.72973e-06
1.28925e-06
6.27008e-07
2.28575e-07
1.72354e-06
5.92864e-07
2.40146e-07
1.7315e-06
1.28903e-06
6.26126e-07
2.28448e-07
1.72714e-06
2.40295e-07
4.0661e-08
4.04693e-08
2.29943e-07
2.40593e-07
4.07381e-08
4.05993e-08
2.29505e-07
5.83815e-07
1.27054e-06
2.17529e-07
1.71608e-06
2.2477e-07
1.71216e-06
5.57318e-07
5.84247e-07
1.27072e-06
2.17524e-07
1.71575e-06
2.24835e-07
1.71598e-06
5.56985e-07
1.18976e-07
1.16243e-07
1.24587e-06
1.12948e-07
1.10516e-07
2.26789e-08
2.20837e-08
2.18345e-08
2.22723e-08
1.25412e-06
1.08903e-07
1.06262e-07
1.12525e-07
1.09916e-07
2.15016e-08
2.19979e-08
5.65505e-07
2.34263e-07
1.70927e-06
1.26813e-06
6.02957e-07
2.22207e-07
1.7177e-06
2.35434e-07
3.93323e-08
2.51469e-07
3.96574e-08
5.65182e-07
1.71071e-06
2.33957e-07
1.26541e-06
6.03049e-07
1.71185e-06
2.22443e-07
2.30294e-07
3.9872e-08
3.98431e-08
2.1998e-07
5.60429e-07
1.24887e-06
2.11153e-07
1.68696e-06
2.18682e-07
1.68956e-06
5.30553e-07
2.30594e-07
3.99301e-08
3.98476e-08
2.20452e-07
5.60594e-07
1.24594e-06
1.69172e-06
2.11562e-07
1.68619e-06
2.18797e-07
5.30733e-07
2.35921e-07
3.93881e-08
2.51776e-07
3.97209e-08
5.66473e-07
1.72273e-06
2.34071e-07
1.2655e-06
6.03461e-07
1.69546e-06
2.22199e-07
2.36405e-07
3.93368e-08
2.52062e-07
3.96681e-08
5.60123e-07
1.24784e-06
2.12347e-07
1.69029e-06
2.19127e-07
1.69913e-06
5.31457e-07
2.31069e-07
3.99364e-08
3.98705e-08
2.20715e-07
5.61473e-07
1.24574e-06
1.68114e-06
2.11173e-07
1.6855e-06
2.18522e-07
5.31769e-07
2.31424e-07
3.98491e-08
3.98121e-08
2.21043e-07
1.16462e-07
1.18492e-07
1.24454e-06
1.10697e-07
1.12591e-07
2.29024e-08
2.22969e-08
2.15004e-08
2.20118e-08
1.25361e-06
1.06074e-07
1.07699e-07
1.09972e-07
1.12241e-07
2.16724e-08
2.22037e-08
5.9269e-07
1.74342e-06
2.40388e-07
1.29213e-06
6.25846e-07
1.71925e-06
2.2877e-07
2.45699e-07
4.01226e-08
2.62313e-07
4.04627e-08
2.44878e-07
4.00243e-08
2.61419e-07
4.03422e-08
5.83464e-07
1.27277e-06
1.69917e-06
2.17236e-07
1.70462e-06
2.24552e-07
5.59975e-07
5.84104e-07
1.27339e-06
1.71577e-06
2.17761e-07
1.70976e-06
2.25324e-07
5.58648e-07
2.41015e-07
4.06485e-08
4.0585e-08
2.29889e-07
2.40692e-07
4.07063e-08
4.05014e-08
2.29667e-07
2.26687e-08
2.20339e-08
2.29403e-08
2.23546e-08
1.25397e-06
1.05877e-07
1.0801e-07
1.0961e-07
1.12212e-07
2.1423e-08
2.19441e-08
2.17588e-08
2.22654e-08
2.16998e-08
2.13597e-08
2.14253e-08
2.10873e-08
1.08873e-07
1.05781e-07
1.15438e-06
1.05986e-07
1.03268e-07
2.11333e-08
2.13278e-08
2.0895e-08
2.10717e-08
1.16602e-06
1.03953e-07
1.01975e-07
1.06052e-07
1.03423e-07
2.19696e-07
4.07107e-08
2.26585e-07
4.08773e-08
5.34382e-07
2.15217e-07
1.73306e-06
1.21544e-06
5.52498e-07
2.11413e-07
1.72825e-06
5.33929e-07
2.15135e-07
1.72914e-06
1.21543e-06
5.51911e-07
2.1184e-07
1.72347e-06
2.16898e-07
4.13499e-08
4.10082e-08
2.13426e-07
2.17564e-07
4.13949e-08
4.10614e-08
2.13483e-07
5.31185e-07
1.19768e-06
2.08996e-07
1.69264e-06
2.10057e-07
1.71298e-06
5.16785e-07
5.30459e-07
1.19825e-06
2.09795e-07
1.69064e-06
2.10689e-07
1.70972e-06
5.1779e-07
1.08911e-07
1.05999e-07
1.15615e-06
1.05942e-07
1.03269e-07
2.1444e-08
2.10801e-08
2.12307e-08
2.13784e-08
1.16714e-06
1.04647e-07
1.01528e-07
1.06307e-07
1.03725e-07
2.08585e-08
2.10581e-08
5.08703e-07
2.0854e-07
1.67777e-06
1.19305e-06
5.28758e-07
2.05382e-07
1.66104e-06
2.11063e-07
4.0028e-08
2.17013e-07
4.01245e-08
5.09003e-07
1.68191e-06
2.08915e-07
1.19155e-06
5.28711e-07
1.66808e-06
2.05507e-07
2.07396e-07
4.04261e-08
4.02354e-08
2.04851e-07
5.08149e-07
1.17449e-06
2.03104e-07
1.62185e-06
2.03576e-07
1.63836e-06
4.93331e-07
2.08258e-07
4.0439e-08
4.02714e-08
2.05443e-07
5.08401e-07
1.17335e-06
1.63087e-06
2.02642e-07
1.64905e-06
2.03696e-07
4.94004e-07
2.10605e-07
4.00361e-08
2.17061e-07
4.01241e-08
5.09553e-07
1.676e-06
2.08486e-07
1.19021e-06
5.29832e-07
1.66026e-06
2.0468e-07
2.11117e-07
3.99363e-08
2.1741e-07
3.99912e-08
5.09025e-07
1.17399e-06
2.03114e-07
1.62316e-06
2.03897e-07
1.63801e-06
4.93479e-07
2.07816e-07
4.04483e-08
4.02509e-08
2.0483e-07
5.08924e-07
1.17178e-06
1.62162e-06
2.01947e-07
1.63779e-06
2.02846e-07
4.92906e-07
2.08277e-07
4.03018e-08
4.0128e-08
2.04645e-07
1.0608e-07
1.07487e-07
1.16138e-06
1.03307e-07
1.04971e-07
2.15996e-08
2.12353e-08
2.08546e-08
2.10658e-08
1.17713e-06
1.01613e-07
1.03584e-07
1.03536e-07
1.05474e-07
2.10618e-08
2.12016e-08
5.36122e-07
1.73471e-06
2.15491e-07
1.21782e-06
5.53905e-07
1.72038e-06
2.1218e-07
2.19732e-07
4.0704e-08
2.268e-07
4.08436e-08
2.1973e-07
4.08267e-08
2.26593e-07
4.09493e-08
5.32521e-07
1.19863e-06
1.68731e-06
2.07835e-07
1.69958e-06
2.08994e-07
5.20418e-07
5.32379e-07
1.19994e-06
1.68395e-06
2.08969e-07
1.70141e-06
2.10743e-07
5.19183e-07
2.17569e-07
4.12931e-08
4.10137e-08
2.1349e-07
2.17616e-07
4.14526e-08
4.11423e-08
2.13733e-07
2.13675e-08
2.09774e-08
2.16869e-08
2.13553e-08
1.16609e-06
1.01452e-07
1.04502e-07
1.03202e-07
1.05999e-07
2.07722e-08
2.09509e-08
2.11799e-08
2.13284e-08
2.1119e-08
2.10634e-08
2.0906e-08
2.08748e-08
1.04234e-07
1.02253e-07
1.08546e-06
1.03361e-07
1.01526e-07
2.11535e-08
2.10793e-08
2.10169e-08
2.09229e-08
1.10041e-06
1.0372e-07
1.02222e-07
1.03737e-07
1.02324e-07
2.10855e-07
4.16294e-08
2.12052e-07
4.20411e-08
5.0372e-07
2.08301e-07
1.66687e-06
1.14848e-06
5.1433e-07
2.07805e-07
1.64683e-06
5.04146e-07
2.09022e-07
1.66719e-06
1.14986e-06
5.15465e-07
2.09138e-07
1.64987e-06
2.09931e-07
4.25076e-08
4.20705e-08
2.10345e-07
2.10308e-07
4.282e-08
4.23165e-08
2.10571e-07
5.0267e-07
1.13474e-06
2.07913e-07
1.60828e-06
2.0737e-07
1.62593e-06
4.97708e-07
5.03329e-07
1.13499e-06
2.09437e-07
1.61216e-06
2.08719e-07
1.62986e-06
4.96227e-07
1.05263e-07
1.02131e-07
1.08431e-06
1.04639e-07
1.01282e-07
2.08635e-08
2.0827e-08
2.14408e-08
2.13436e-08
1.09854e-06
1.05139e-07
1.01799e-07
1.05808e-07
1.01986e-07
2.09371e-08
2.08602e-08
4.83784e-07
2.02067e-07
1.59898e-06
1.1277e-06
4.94173e-07
2.02305e-07
1.58575e-06
2.02654e-07
4.06349e-08
2.03456e-07
4.09101e-08
4.81515e-07
1.60224e-06
2.0128e-07
1.12599e-06
4.94534e-07
1.58611e-06
2.01284e-07
2.00649e-07
4.1625e-08
4.12382e-08
2.01654e-07
4.85028e-07
1.11266e-06
2.03036e-07
1.55004e-06
2.01598e-07
1.56318e-06
4.74975e-07
2.00929e-07
4.15732e-08
4.1198e-08
2.01734e-07
4.82435e-07
1.11029e-06
1.54895e-06
2.01883e-07
1.56313e-06
2.00515e-07
4.74186e-07
2.02063e-07
4.06688e-08
2.02706e-07
4.09597e-08
4.81354e-07
1.59906e-06
2.00954e-07
1.12555e-06
4.93119e-07
1.58615e-06
2.01243e-07
2.01813e-07
4.05218e-08
2.02561e-07
4.08246e-08
4.8343e-07
1.11179e-06
2.02514e-07
1.55202e-06
2.01519e-07
1.56554e-06
4.7602e-07
2.00691e-07
4.15522e-08
4.12263e-08
2.01755e-07
4.83211e-07
1.11044e-06
1.55638e-06
2.01897e-07
1.56666e-06
2.00438e-07
4.75785e-07
2.00558e-07
4.15136e-08
4.11129e-08
2.01477e-07
1.01983e-07
1.03844e-07
1.08611e-06
1.01299e-07
1.03328e-07
2.10642e-08
2.10592e-08
2.09351e-08
2.08701e-08
1.10083e-06
1.01641e-07
1.04126e-07
1.01631e-07
1.04049e-07
2.11951e-08
2.10997e-08
5.08027e-07
1.66491e-06
2.08158e-07
1.15172e-06
5.17711e-07
1.64819e-06
2.0787e-07
2.10739e-07
4.14526e-08
2.12031e-07
4.17196e-08
2.11256e-07
4.16856e-08
2.12326e-07
4.19373e-08
5.05732e-07
1.1347e-06
1.61577e-06
2.07086e-07
1.63579e-06
2.06038e-07
5.00944e-07
5.06902e-07
1.13676e-06
1.61627e-06
2.08761e-07
1.62836e-06
2.07631e-07
5.01158e-07
2.10242e-07
4.22558e-08
4.19038e-08
2.10599e-07
2.10728e-07
4.27538e-08
4.21989e-08
2.11307e-07
2.07779e-08
2.07239e-08
2.11741e-08
2.11794e-08
1.10055e-06
1.01496e-07
1.04575e-07
1.01205e-07
1.04593e-07
2.08468e-08
2.07552e-08
2.13437e-08
2.12232e-08
2.12331e-08
2.14233e-08
2.11163e-08
2.12648e-08
1.04522e-07
1.03749e-07
1.04064e-06
1.04964e-07
1.03454e-07
2.18455e-08
2.15568e-08
2.16036e-08
2.13936e-08
1.06088e-06
1.07011e-07
1.04911e-07
1.06217e-07
1.04589e-07
2.10783e-07
4.31188e-08
2.10027e-07
4.36981e-08
4.90063e-07
2.07874e-07
1.58803e-06
1.09675e-06
4.97917e-07
2.09431e-07
1.57331e-06
4.93608e-07
2.09291e-07
1.59322e-06
1.09658e-06
4.95855e-07
2.10652e-07
1.57642e-06
2.10419e-07
4.46136e-08
4.38963e-08
2.12857e-07
2.10898e-07
4.46023e-08
4.40159e-08
2.12043e-07
4.90849e-07
1.08575e-06
2.12316e-07
1.54241e-06
2.09815e-07
1.55758e-06
4.8939e-07
4.93892e-07
1.08543e-06
2.13058e-07
1.54425e-06
2.10987e-07
1.55927e-06
4.89016e-07
1.06034e-07
1.03016e-07
1.03647e-06
1.06288e-07
1.0322e-07
2.10232e-08
2.11946e-08
2.19888e-08
2.18048e-08
1.05413e-06
1.07566e-07
1.04686e-07
1.07661e-07
1.04303e-07
2.15262e-08
2.13265e-08
4.69792e-07
2.02662e-07
1.52559e-06
1.077e-06
4.7582e-07
2.04376e-07
1.51933e-06
2.02349e-07
4.19335e-08
2.00786e-07
4.24342e-08
4.71958e-07
1.52716e-06
2.01712e-07
1.075e-06
4.77666e-07
1.51571e-06
2.03949e-07
2.01293e-07
4.33715e-08
4.2775e-08
2.03729e-07
4.72559e-07
1.06479e-06
2.0666e-07
1.48951e-06
2.04032e-07
1.49826e-06
4.69278e-07
2.01688e-07
4.32672e-08
4.28212e-08
2.04051e-07
4.73046e-07
1.0624e-06
1.48067e-06
2.05986e-07
1.4928e-06
2.03744e-07
4.6917e-07
2.02778e-07
4.18501e-08
2.00843e-07
4.23474e-08
4.67921e-07
1.53284e-06
2.01791e-07
1.07408e-06
4.77823e-07
1.52459e-06
2.0376e-07
2.02241e-07
4.18651e-08
2.00657e-07
4.23309e-08
4.72401e-07
1.064e-06
2.06398e-07
1.48531e-06
2.04045e-07
1.49485e-06
4.71421e-07
2.01969e-07
4.32764e-08
4.27666e-08
2.04883e-07
4.69488e-07
1.06115e-06
1.49243e-06
2.04934e-07
1.5055e-06
2.03046e-07
4.68373e-07
2.01502e-07
4.31168e-08
4.26791e-08
2.04276e-07
1.02613e-07
1.049e-07
1.04154e-06
1.02836e-07
1.05172e-07
2.1257e-08
2.14094e-08
2.14662e-08
2.12877e-08
1.05963e-06
1.0424e-07
1.06986e-07
1.03852e-07
1.06288e-07
2.17947e-08
2.15319e-08
4.92799e-07
1.59819e-06
2.09e-07
1.09931e-06
5.00767e-07
1.58092e-06
2.10687e-07
2.10979e-07
4.24586e-08
2.10492e-07
4.29588e-08
2.11582e-07
4.30799e-08
2.10917e-07
4.36768e-08
4.91936e-07
1.08539e-06
1.53369e-06
2.11411e-07
1.55036e-06
2.08067e-07
4.9031e-07
4.92292e-07
1.08778e-06
1.54767e-06
2.12714e-07
1.56745e-06
2.10882e-07
4.90019e-07
2.10885e-07
4.40998e-08
4.33378e-08
2.12738e-07
2.11363e-07
4.45106e-08
4.39941e-08
2.13001e-07
2.0937e-08
2.10669e-08
2.1424e-08
2.15799e-08
1.0506e-06
1.03807e-07
1.06595e-07
1.03357e-07
1.06545e-07
2.13243e-08
2.11605e-08
2.18471e-08
2.16642e-08
2.20132e-08
2.23142e-08
2.17773e-08
2.20483e-08
1.08907e-07
1.06327e-07
1.00332e-06
1.09524e-07
1.06919e-07
2.27199e-08
2.24627e-08
2.24458e-08
2.22224e-08
1.02259e-06
1.11758e-07
1.09033e-07
1.10828e-07
1.08311e-07
2.14677e-07
4.50205e-08
2.12286e-07
4.57581e-08
4.90799e-07
2.13174e-07
1.52689e-06
1.05639e-06
4.9235e-07
2.16578e-07
1.51249e-06
4.88779e-07
2.13663e-07
1.52845e-06
1.05557e-06
4.8874e-07
2.17209e-07
1.51338e-06
2.14602e-07
4.67923e-08
4.61389e-08
2.17352e-07
2.15387e-07
4.68563e-08
4.61952e-08
2.18296e-07
4.8969e-07
1.04777e-06
2.19916e-07
1.47936e-06
2.17377e-07
1.4957e-06
4.89561e-07
4.92258e-07
1.04643e-06
2.19839e-07
1.48802e-06
2.17936e-07
1.49852e-06
4.91436e-07
1.08583e-07
1.0594e-07
9.95147e-07
1.09407e-07
1.06504e-07
2.1679e-08
2.19209e-08
2.2777e-08
2.25242e-08
1.01174e-06
1.11348e-07
1.08736e-07
1.10963e-07
1.08495e-07
2.23618e-08
2.21017e-08
4.67026e-07
2.07176e-07
1.47062e-06
1.03836e-06
4.73157e-07
2.11431e-07
1.46915e-06
2.06482e-07
4.3727e-08
2.03486e-07
4.43551e-08
4.70635e-07
1.45821e-06
2.06095e-07
1.03619e-06
4.72451e-07
1.44984e-06
2.09694e-07
2.04979e-07
4.55782e-08
4.50752e-08
2.09328e-07
4.68465e-07
1.02756e-06
2.13877e-07
1.42841e-06
2.11864e-07
1.44112e-06
4.67398e-07
2.05968e-07
4.55207e-08
4.48931e-08
2.09837e-07
4.71875e-07
1.02605e-06
1.42443e-06
2.14202e-07
1.42873e-06
2.10423e-07
4.69662e-07
2.07636e-07
4.36934e-08
2.04405e-07
4.43189e-08
4.70196e-07
1.4626e-06
2.04896e-07
1.03485e-06
4.73282e-07
1.44815e-06
2.08601e-07
2.07229e-07
4.35596e-08
2.03989e-07
4.42117e-08
4.72295e-07
1.02594e-06
2.12999e-07
1.4372e-06
2.09546e-07
1.4354e-06
4.74134e-07
2.07133e-07
4.5366e-08
4.47854e-08
2.10433e-07
4.70605e-07
1.02382e-06
1.41631e-06
2.1374e-07
1.42291e-06
2.09231e-07
4.69656e-07
2.06909e-07
4.54974e-08
4.47489e-08
2.10755e-07
1.05986e-07
1.08489e-07
1.00092e-06
1.06554e-07
1.09085e-07
2.19408e-08
2.21951e-08
2.24081e-08
2.21185e-08
1.01616e-06
1.09021e-07
1.10969e-07
1.08564e-07
1.10772e-07
2.258e-08
2.23155e-08
4.91756e-07
1.52102e-06
2.13262e-07
1.0625e-06
4.92336e-07
1.50358e-06
2.16359e-07
2.15532e-07
4.45112e-08
2.1339e-07
4.52128e-08
2.1592e-07
4.48769e-08