/*--------------------------------*- C++ -*----------------------------------*\
| =========                 |                                                 |
| \\      /  F ield         | OpenFOAM: The Open Source CFD Toolbox           |
|  \\    /   O peration     | Version:  2206                                  |
|   \\  /    A nd           | Website:  www.openfoam.com                      |
|    \\/     M anipulation  |                                                 |
\*---------------------------------------------------------------------------*/
FoamFile
{
    version     2.0;
    format      ascii;
    arch        "LSB;label=32;scalar=64";
    class       volScalarField;
    location    "120";
    object      p;
}
// * * * * * * * * * * * * * * * * * * * * * * * * * * * * * * * * * * * * * //

dimensions      [0 2 -2 0 0 0 0];

internalField   nonuniform List<scalar> 
66616
(
-0.000270674
-0.00024658
-0.000246506
-0.00021014
-0.000749722
-0.00075909
-0.000758963
-0.000737286
-0.00107408
-0.0010766
-0.00107661
-0.00105959
-0.00134934
-0.00135027
-0.0013503
-0.00133401
-0.00160967
-0.00161034
-0.00161037
-0.00159463
-0.00186031
-0.0018609
-0.00186092
-0.00184569
-0.00210288
-0.00210339
-0.00210341
-0.00208857
-0.00233858
-0.00233897
-0.00233901
-0.00232459
-0.0025681
-0.00256844
-0.00256852
-0.00255436
-0.00279202
-0.00279218
-0.00279239
-0.00277857
-0.00301008
-0.00301034
-0.0030105
-0.0029972
-0.00322147
-0.0032213
-0.00322208
-0.00320927
-0.000174469
-0.000185239
-0.000185258
-0.000174497
-0.000185277
-0.000185259
-0.000187577
-0.000187565
-0.000187554
-0.000187549
-0.000185325
-0.000185286
-0.000174493
-0.000185311
-0.0001853
-0.000174499
-0.000210111
-0.000684188
-0.000246924
-0.000246954
-0.0006546
-0.000654571
-0.000210121
-0.000684184
-0.000246526
-0.000246982
-0.000655023
-0.00065494
-0.000247007
-0.000655041
-0.000654946
-0.000210109
-0.000684196
-0.000246512
-0.000654708
-0.000654673
-0.000684171
-0.000737273
-0.00102278
-0.000758823
-0.000758793
-0.00100429
-0.00100428
-0.00073728
-0.00102278
-0.000759023
-0.000758961
-0.00100436
-0.0010043
-0.000758967
-0.00100433
-0.00100428
-0.000737285
-0.00102278
-0.000758889
-0.00100432
-0.0010043
-0.00102275
-0.00105961
-0.00129998
-0.00107653
-0.0010765
-0.00128366
-0.00128364
-0.00105961
-0.00129997
-0.00107656
-0.0010765
-0.00128366
-0.00128361
-0.00107649
-0.00128364
-0.0012836
-0.00105961
-0.00129997
-0.00107653
-0.00128367
-0.00128365
-0.00129994
-0.00133402
-0.00156202
-0.00135023
-0.0013502
-0.00154646
-0.00154645
-0.00133403
-0.00156201
-0.00135022
-0.00135016
-0.00154648
-0.00154644
-0.00135016
-0.00154647
-0.00154644
-0.00133402
-0.00156202
-0.00135022
-0.00154649
-0.00154646
-0.001562
-0.00159464
-0.00181426
-0.0016103
-0.00161026
-0.00179926
-0.00179923
-0.00159464
-0.00181424
-0.00161031
-0.00161026
-0.00179929
-0.00179926
-0.00161025
-0.00179929
-0.00179926
-0.00159464
-0.00181428
-0.00161029
-0.00179928
-0.00179925
-0.00181424
-0.00184568
-0.00205818
-0.00186085
-0.0018608
-0.00204364
-0.00204366
-0.00184568
-0.00205821
-0.00186087
-0.00186082
-0.00204368
-0.00204364
-0.00186082
-0.00204367
-0.00204364
-0.0018457
-0.00205819
-0.00186086
-0.00204365
-0.00204362
-0.00205815
-0.00208859
-0.00229508
-0.00210335
-0.00210336
-0.00228096
-0.00228089
-0.00208863
-0.00229503
-0.00210333
-0.0021033
-0.00228099
-0.00228094
-0.00210327
-0.00228095
-0.00228093
-0.00208861
-0.00229506
-0.00210332
-0.00228093
-0.00228091
-0.00229504
-0.00232461
-0.00252568
-0.00233901
-0.00233895
-0.0025119
-0.00251192
-0.00232458
-0.00252571
-0.00233897
-0.0023389
-0.00251198
-0.00251193
-0.00233891
-0.00251197
-0.00251193
-0.00232459
-0.00252567
-0.00233896
-0.00251189
-0.00251189
-0.00252562
-0.00255443
-0.00275062
-0.00256845
-0.00256844
-0.00273714
-0.00273714
-0.00255443
-0.00275058
-0.00256838
-0.00256834
-0.00273728
-0.00273727
-0.00256835
-0.00273723
-0.00273724
-0.00255442
-0.00275063
-0.00256845
-0.0027372
-0.00273717
-0.00275058
-0.00277864
-0.00296993
-0.00279229
-0.00279226
-0.00295693
-0.00295693
-0.00277858
-0.00297003
-0.00279219
-0.00279216
-0.00295706
-0.00295705
-0.00279214
-0.00295716
-0.00295713
-0.00277864
-0.00296992
-0.00279232
-0.00295687
-0.0029569
-0.00297
-0.00299721
-0.00318258
-0.00301052
-0.00301049
-0.00317007
-0.00317012
-0.00299724
-0.00318269
-0.00301021
-0.00301019
-0.00317051
-0.00317043
-0.00301022
-0.00317045
-0.00317044
-0.0029972
-0.00318259
-0.00301048
-0.00317011
-0.00317007
-0.00318267
-0.0032093
-0.00322199
-0.00322194
-0.00320923
-0.00322137
-0.00322136
-0.00322129
-0.00320932
-0.00322195
-9.84012e-05
-7.87727e-05
-8.81626e-05
-8.82445e-05
-3.78015e-05
-6.58495e-05
-6.51754e-05
-7.55749e-05
-3.75442e-05
-6.58336e-05
-7.55305e-05
-6.50914e-05
-5.14829e-05
-7.33709e-05
-7.32855e-05
-0.000423489
-7.98996e-05
-0.000133766
-0.000436611
-0.000136522
-0.000431985
-0.000423645
-7.98892e-05
-0.000133748
-0.000436733
-0.000270646
-0.000270635
-0.000270661
-0.000645336
-0.000645295
-0.000645314
-0.000645292
-0.000420005
-0.000129628
-0.000252349
-0.000384731
-0.000173663
-0.000428171
-0.000387294
-0.000136506
-0.000431979
-0.000419977
-0.000252245
-0.000129471
-0.000384887
-0.000173774
-0.000387508
-0.00042813
-0.000174954
-0.000174824
-0.000418753
-0.000426179
-0.000426232
-0.000881391
-0.000764681
-0.000760504
-0.000882599
-0.000764408
-0.000883346
-0.000881858
-0.000764655
-0.000760551
-0.00088273
-0.000749594
-0.000749606
-0.00074959
-0.00100078
-0.00100074
-0.00100075
-0.00100072
-0.000875411
-0.000756132
-0.000754946
-0.000847959
-0.000749996
-0.000877939
-0.000844865
-0.000764374
-0.00088345
-0.000874647
-0.000754421
-0.000756273
-0.00084778
-0.000749696
-0.000844363
-0.000877623
-0.000758027
-0.000758186
-0.000869716
-0.00088016
-0.000880043
-0.00116609
-0.00106357
-0.00106374
-0.00116615
-0.00106416
-0.00116659
-0.00116635
-0.00106328
-0.00106324
-0.00116619
-0.00107394
-0.00107395
-0.00107392
-0.00128258
-0.00128254
-0.00128255
-0.00128253
-0.00116453
-0.00106294
-0.00107562
-0.00114687
-0.00106276
-0.00116467
-0.0011462
-0.00106391
-0.0011666
-0.00116409
-0.00107547
-0.00106327
-0.00114687
-0.00106322
-0.00114609
-0.00116448
-0.00106256
-0.00106279
-0.00116405
-0.00116544
-0.00116536
-0.00143304
-0.00133535
-0.00133538
-0.00143329
-0.00133556
-0.00143344
-0.00143343
-0.00133514
-0.00133493
-0.00143345
-0.00134921
-0.00134921
-0.00134919
-0.0015458
-0.00154576
-0.00154577
-0.00154575
-0.00143203
-0.0013355
-0.00134992
-0.00141628
-0.0013355
-0.00143231
-0.00141598
-0.00133539
-0.00143359
-0.00143155
-0.00134986
-0.00133578
-0.00141628
-0.00133601
-0.00141592
-0.00143202
-0.00133469
-0.00133487
-0.00143231
-0.00143283
-0.00143269
-0.00168976
-0.00159577
-0.00159561
-0.00169013
-0.00159589
-0.00169026
-0.00169024
-0.00159564
-0.00159528
-0.00169035
-0.00160954
-0.00160956
-0.00160953
-0.00179868
-0.00179864
-0.00179865
-0.00179863
-0.00168887
-0.00159604
-0.00161009
-0.00167381
-0.00159589
-0.00168924
-0.00167357
-0.00159577
-0.00169042
-0.00168834
-0.00161007
-0.0015963
-0.00167381
-0.00159636
-0.00167354
-0.00168897
-0.00159527
-0.00159541
-0.00168923
-0.0016898
-0.00168964
-0.00193766
-0.00184685
-0.00184662
-0.00193805
-0.00184692
-0.00193811
-0.00193814
-0.00184671
-0.0018463
-0.00193825
-0.00186019
-0.0018602
-0.00186018
-0.00204314
-0.00204312
-0.00204311
-0.00204309
-0.0019368
-0.00184711
-0.00186067
-0.00192227
-0.00184688
-0.00193727
-0.00192203
-0.00184685
-0.0019383
-0.00193623
-0.00186065
-0.00184738
-0.00192223
-0.00184737
-0.001922
-0.00193692
-0.00184641
-0.00184654
-0.00193714
-0.00193777
-0.00193759
-0.0021779
-0.0020898
-0.00208956
-0.00217829
-0.00208984
-0.00217841
-0.00217837
-0.00208966
-0.00208919
-0.00217851
-0.00210277
-0.00210277
-0.00210275
-0.00228049
-0.00228043
-0.00228043
-0.0022804
-0.00217707
-0.00209003
-0.00210318
-0.00216299
-0.00208975
-0.00217753
-0.00216277
-0.00208975
-0.00217857
-0.00217651
-0.00210317
-0.0020903
-0.00216294
-0.00209023
-0.00216273
-0.00217726
-0.0020894
-0.00208955
-0.00217739
-0.00217811
-0.00217793
-0.00241164
-0.00232576
-0.00232559
-0.00241201
-0.00232583
-0.00241201
-0.0024121
-0.00232559
-0.00232519
-0.00241218
-0.00233845
-0.00233845
-0.00233842
-0.00251148
-0.00251145
-0.00251143
-0.00251144
-0.00241083
-0.002326
-0.0023388
-0.00239707
-0.00232571
-0.00241135
-0.00239686
-0.0023257
-0.0024122
-0.00241024
-0.00233877
-0.00232626
-0.00239696
-0.00232623
-0.00239677
-0.00241102
-0.00232539
-0.00232553
-0.00241107
-0.00241183
-0.00241165
-0.00263941
-0.0025557
-0.00255545
-0.00263975
-0.00255572
-0.00263984
-0.00263981
-0.00255552
-0.00255504
-0.00263992
-0.00256798
-0.00256798
-0.00256799
-0.0027368
-0.00273676
-0.00273678
-0.00273681
-0.00263857
-0.00255583
-0.00256826
-0.00262521
-0.00255555
-0.00263903
-0.002625
-0.00255561
-0.00263993
-0.00263797
-0.00256828
-0.0025561
-0.00262512
-0.00255611
-0.00262493
-0.00263873
-0.00255533
-0.0025555
-0.0026388
-0.00263957
-0.00263941
-0.00286165
-0.00277995
-0.00277977
-0.00286195
-0.00277998
-0.00286196
-0.00286207
-0.00277981
-0.00277942
-0.00286211
-0.00279191
-0.00279193
-0.00279196
-0.00295646
-0.00295644
-0.00295642
-0.00295646
-0.00286091
-0.00278012
-0.00279211
-0.00284782
-0.00277985
-0.00286137
-0.00284765
-0.00277989
-0.00286209
-0.00286039
-0.0027922
-0.00278038
-0.00284765
-0.00278036
-0.00284752
-0.00286104
-0.0027796
-0.00277972
-0.00286104
-0.00286179
-0.00286168
-0.0030778
-0.00299862
-0.00299846
-0.00307812
-0.00299864
-0.00307817
-0.00307809
-0.00299851
-0.00299816
-0.0030782
-0.00301
-0.00300997
-0.00301002
-0.00316971
-0.00316964
-0.00316961
-0.0031696
-0.00307718
-0.0029988
-0.00301019
-0.00306462
-0.00299857
-0.00307753
-0.00306446
-0.00299856
-0.00307817
-0.00307644
-0.00301038
-0.002999
-0.00306423
-0.00299895
-0.0030642
-0.00307717
-0.00299828
-0.0029984
-0.00307721
-0.00307801
-0.00307788
-0.00328663
-0.0032103
-0.00321014
-0.00328685
-0.00321035
-0.00328709
-0.00321037
-0.00321004
-0.00322132
-0.00322137
-0.00322128
-0.00328563
-0.00321065
-0.00322117
-0.0032743
-0.00321037
-0.00328635
-0.00327442
-0.0032104
-0.00328526
-0.00322182
-0.00321086
-0.00321071
-0.00327405
-0.00321017
-0.00321027
-0.00328613
-0.00328702
-0.00328684
-5.15548e-05
-7.27943e-05
-7.28488e-05
-6.58069e-05
-9.7155e-05
-6.61339e-05
-9.72006e-05
-8.16006e-05
-9.6836e-05
-9.67734e-05
-7.92318e-05
-7.92436e-05
-3.75571e-05
-6.57312e-05
-6.51108e-05
-7.55407e-05
-3.75535e-05
-6.57279e-05
-6.5245e-05
-7.55376e-05
-6.60456e-05
-5.14959e-05
-9.0081e-05
-0.000137301
-6.60532e-05
-5.15478e-05
-9.0097e-05
-0.000137297
-7.00503e-05
-9.10532e-05
-0.000117059
-0.000171074
-7.42468e-05
-0.000107448
-0.000149841
-7.00462e-05
-9.10509e-05
-0.000117114
-0.000171072
-7.43247e-05
-0.000107452
-0.000149836
-5.15187e-05
-7.33168e-05
-7.28407e-05
-6.58965e-05
-9.7047e-05
-8.15855e-05
-9.71494e-05
-9.70185e-05
-7.87274e-05
-7.92578e-05
-6.61761e-05
-9.72119e-05
-3.77841e-05
-6.58435e-05
-6.51733e-05
-7.55605e-05
-3.77841e-05
-6.57225e-05
-7.55584e-05
-6.52977e-05
-6.60376e-05
-5.23196e-05
-9.01078e-05
-0.000137401
-6.99768e-05
-9.13109e-05
-0.000117505
-0.000171026
-7.42897e-05
-0.000107434
-0.000149843
-6.60442e-05
-5.24247e-05
-9.01256e-05
-0.000137399
-6.99721e-05
-9.1043e-05
-0.000171043
-0.000117672
-0.000107438
-7.43326e-05
-0.000149851
-9.83829e-05
-7.87509e-05
-8.81384e-05
-8.82331e-05
-9.83841e-05
-7.87421e-05
-8.82217e-05
-8.81382e-05
-9.83694e-05
-7.87535e-05
-8.8231e-05
-8.81346e-05
-0.000129817
-9.55739e-05
-0.000202066
-0.00020192
-0.000112113
-0.000112049
-0.000215148
-0.000129838
-9.55936e-05
-0.000202061
-0.000201936
-0.00011213
-0.000112049
-0.000215142
-0.000129849
-9.55867e-05
-0.000201921
-0.000202069
-0.000112064
-0.000112109
-0.000215177
-0.000129865
-9.55756e-05
-0.000201933
-0.000202062
-0.00011206
-0.00011212
-0.000215181
-3.77992e-05
-6.57033e-05
-7.55497e-05
-6.53163e-05
-6.99908e-05
-9.12954e-05
-0.00011761
-0.000171056
-7.43012e-05
-0.000107424
-0.000149872
-6.60556e-05
-5.23687e-05
-9.01287e-05
-0.000137409
-6.9987e-05
-9.10403e-05
-0.000171069
-0.000117772
-0.00010745
-7.43592e-05
-0.000149888
-6.60629e-05
-5.24662e-05
-9.01482e-05
-0.000137429
-5.15074e-05
-7.33586e-05
-7.27626e-05
-6.62462e-05
-9.70903e-05
-8.15775e-05
-9.73184e-05
-9.6852e-05
-7.87457e-05
-7.92073e-05
-6.58345e-05
-9.7138e-05
-3.75376e-05
-6.58075e-05
-7.55041e-05
-6.52217e-05
-7.00468e-05
-9.12894e-05
-0.000171102
-0.000117048
-0.000107434
-7.4237e-05
-0.000149837
-7.00423e-05
-9.1284e-05
-0.000171093
-0.000117094
-0.000107457
-7.42921e-05
-0.000149832
-6.60406e-05
-5.14905e-05
-9.00765e-05
-0.000137297
-6.60499e-05
-5.14882e-05
-9.00828e-05
-0.000137295
-8.15417e-05
-9.75332e-05
-9.71314e-05
-7.87789e-05
-7.8693e-05
-6.62808e-05
-9.71146e-05
-6.58904e-05
-9.7023e-05
-0.000136474
-0.000431963
-0.000136486
-0.000431974
-0.000174772
-0.000174735
-0.000418749
-0.000426149
-0.000426125
-0.000717173
-0.000488903
-0.000717394
-0.00048871
-0.000494113
-0.000709392
-0.000709816
-0.00049079
-0.000490709
-0.000423487
-7.99396e-05
-0.000133793
-0.000436626
-0.000419974
-0.000129451
-0.000252291
-0.000384735
-0.000173764
-0.000428139
-0.000387564
-0.000419978
-0.000129489
-0.000252303
-0.000384772
-0.000173769
-0.000428154
-0.000387585
-0.000498963
-0.000718346
-0.000497167
-0.000712619
-0.000498984
-0.000718357
-0.000497187
-0.000712614
-0.000499139
-0.000527603
-0.000704984
-0.000649738
-0.000500339
-0.00052524
-0.000696047
-0.00049915
-0.00052762
-0.000705001
-0.000649719
-0.00050034
-0.000525261
-0.000696053
-0.000174892
-0.000174777
-0.000418751
-0.000426207
-0.000426117
-0.000136464
-0.000431989
-0.000717184
-0.000488915
-0.000494109
-0.000709431
-0.000709771
-0.000490816
-0.000490723
-0.000717383
-0.000488726
-0.000419989
-0.000129601
-0.000252294
-0.000384712
-0.000173637
-0.000428154
-0.000387301
-0.000423647
-7.99397e-05
-0.000133768
-0.000436737
-0.000420001
-0.000252333
-0.000129656
-0.000384616
-0.000173645
-0.000387296
-0.000428191
-0.00049868
-0.000718615
-0.000496944
-0.000713622
-0.000499023
-0.000527625
-0.000705959
-0.000650667
-0.000500224
-0.000525346
-0.000697314
-0.0004987
-0.000718632
-0.000496956
-0.000713622
-0.00049903
-0.00052758
-0.000650606
-0.000706001
-0.000525292
-0.000500221
-0.000697336
-0.000423657
-7.99116e-05
-0.000133787
-0.000436742
-0.000420022
-0.000252355
-0.000129667
-0.000384639
-0.000173669
-0.000387294
-0.000428219
-0.00042367
-7.99491e-05
-0.000133793
-0.000436773
-0.000499043
-0.0005276
-0.000705958
-0.000650654
-0.000500239
-0.000525282
-0.000697339
-0.000498719
-0.000718629
-0.000496974
-0.000713631
-0.00049905
-0.000527598
-0.000650605
-0.000705986
-0.000525281
-0.000500256
-0.000697341
-0.000498727
-0.000718635
-0.00049699
-0.000713639
-0.000174948
-0.000174737
-0.00041875
-0.000426163
-0.000426166
-0.000136481
-0.000431995
-0.000717387
-0.0004887
-0.000494098
-0.000709817
-0.000709401
-0.000490701
-0.00049084
-0.000717195
-0.000488945
-0.000419984
-0.000252222
-0.000129516
-0.000384931
-0.000173773
-0.000387531
-0.000428147
-0.000423507
-7.9917e-05
-0.000133808
-0.00043662
-0.000423518
-7.99441e-05
-0.000133803
-0.000436653
-0.000499193
-0.000527655
-0.000649779
-0.000704977
-0.000525203
-0.000500361
-0.000696089
-0.000499203
-0.000527722
-0.000649777
-0.000704972
-0.000525279
-0.00050039
-0.000696079
-0.000499022
-0.000718365
-0.000497203
-0.000712645
-0.000499031
-0.000718372
-0.000497238
-0.000712648
-0.000136481
-0.000432017
-0.000136532
-0.000432027
-0.000494118
-0.000709768
-0.000709406
-0.000490707
-0.000490847
-0.000717373
-0.000488734
-0.000717204
-0.000488962
-0.000764395
-0.000883381
-0.000764379
-0.00088344
-0.000758191
-0.000758097
-0.00086969
-0.000880029
-0.000880141
-0.00102823
-0.000921521
-0.00102821
-0.000921326
-0.000910677
-0.00102646
-0.00102651
-0.000919076
-0.000918905
-0.000881391
-0.000764718
-0.000760568
-0.000882576
-0.000874635
-0.000756287
-0.0007543
-0.000847704
-0.000749638
-0.00087763
-0.000844328
-0.000874641
-0.000756297
-0.000754275
-0.000847717
-0.00074965
-0.000877601
-0.00084435
-0.000920232
-0.00102751
-0.000920788
-0.00102736
-0.000920258
-0.00102751
-0.000920804
-0.00102735
-0.00091711
-0.000928514
-0.00102515
-0.00100271
-0.000918731
-0.000926201
-0.00102418
-0.000917122
-0.00092855
-0.00102516
-0.0010027
-0.000918759
-0.000926238
-0.00102419
-0.000758231
-0.000758059
-0.000869697
-0.000879943
-0.000880235
-0.000764375
-0.000883484
-0.00102824
-0.000921518
-0.000910687
-0.00102651
-0.00102645
-0.000919085
-0.000918908
-0.00102818
-0.000921345
-0.00087539
-0.000756162
-0.000754877
-0.000847922
-0.000749981
-0.000877901
-0.000844846
-0.000881864
-0.000764691
-0.000760621
-0.00088274
-0.000875414
-0.000754826
-0.00075618
-0.000847917
-0.00075
-0.000844857
-0.000877938
-0.00091989
-0.00102754
-0.000920552
-0.00102763
-0.000916901
-0.000928653
-0.00102531
-0.00100295
-0.000918493
-0.000926587
-0.00102466
-0.000919919
-0.00102755
-0.000920584
-0.00102763
-0.000916922
-0.000928648
-0.00100294
-0.00102534
-0.000926625
-0.000918522
-0.00102468
-0.000881859
-0.000764691
-0.000760634
-0.000882749
-0.000875421
-0.000754838
-0.000756171
-0.000847924
-0.000750003
-0.00084486
-0.000877924
-0.000881867
-0.000764692
-0.000760638
-0.000882732
-0.00091692
-0.000928607
-0.00102528
-0.00100293
-0.000918474
-0.000926528
-0.00102467
-0.00091992
-0.00102753
-0.000920573
-0.00102761
-0.000916929
-0.000928646
-0.00100293
-0.00102531
-0.000926614
-0.000918497
-0.00102467
-0.000919924
-0.00102754
-0.000920565
-0.00102762
-0.000758099
-0.00075821
-0.000869703
-0.00088017
-0.000880035
-0.000764423
-0.000883403
-0.00102822
-0.00092134
-0.000910681
-0.00102653
-0.00102645
-0.000918926
-0.000919092
-0.00102823
-0.000921543
-0.000874651
-0.000754338
-0.000756301
-0.000847819
-0.000749696
-0.000844377
-0.000877618
-0.000881408
-0.000764728
-0.000760608
-0.000882607
-0.000881407
-0.000764734
-0.000760609
-0.000882599
-0.000917154
-0.00092852
-0.00100269
-0.00102513
-0.000926143
-0.000918739
-0.00102419
-0.000917163
-0.00092861
-0.00100268
-0.00102513
-0.000926234
-0.000918747
-0.00102418
-0.000920288
-0.00102751
-0.00092082
-0.00102736
-0.000920281
-0.00102751
-0.000920812
-0.00102737
-0.000764362
-0.000883438
-0.000764422
-0.000883397
-0.000910707
-0.00102648
-0.00102643
-0.000918874
-0.000919067
-0.00102819
-0.000921312
-0.00102822
-0.000921528
-0.00106415
-0.00116661
-0.00106391
-0.0011666
-0.00106283
-0.00106262
-0.00116407
-0.00116537
-0.00116543
-0.00130145
-0.00120151
-0.0013015
-0.0012013
-0.00119928
-0.00130051
-0.00130061
-0.00120066
-0.00120047
-0.00116609
-0.0010636
-0.0010638
-0.00116612
-0.0011641
-0.0010633
-0.00107542
-0.00114684
-0.00106321
-0.00116451
-0.0011461
-0.00116411
-0.0010633
-0.00107539
-0.00114686
-0.00106322
-0.0011645
-0.00114612
-0.00120126
-0.00130116
-0.00120119
-0.00130097
-0.00120128
-0.00130116
-0.00120119
-0.00130096
-0.00120163
-0.00121588
-0.00129983
-0.00128323
-0.00120147
-0.00121537
-0.00129938
-0.00120163
-0.00121589
-0.00129984
-0.00128322
-0.00120147
-0.0012154
-0.00129939
-0.00106286
-0.00106258
-0.00116404
-0.00116537
-0.0011654
-0.0010639
-0.00116659
-0.00130145
-0.0012015
-0.00119925
-0.00130053
-0.00130057
-0.00120066
-0.00120045
-0.00130149
-0.00120129
-0.00116452
-0.00106299
-0.00107557
-0.00114687
-0.00106277
-0.00116467
-0.0011462
-0.00116635
-0.00106331
-0.0010633
-0.00116619
-0.00116454
-0.00107554
-0.00106298
-0.00114684
-0.00106279
-0.00114621
-0.00116468
-0.00120077
-0.00130126
-0.00120092
-0.00130129
-0.00120114
-0.00121588
-0.00130003
-0.00128327
-0.00120116
-0.00121541
-0.0012998
-0.00120079
-0.00130127
-0.00120093
-0.00130128
-0.00120115
-0.00121586
-0.00128327
-0.00130005
-0.00121546
-0.00120116
-0.00129982
-0.00116635
-0.0010633
-0.00106329
-0.00116618
-0.00116454
-0.00107555
-0.00106297
-0.00114685
-0.00106277
-0.00114622
-0.00116468
-0.00116636
-0.0010633
-0.0010633
-0.00116619
-0.00120113
-0.00121582
-0.00130002
-0.00128326
-0.00120115
-0.00121535
-0.00129983
-0.00120079
-0.00130126
-0.00120093
-0.00130129
-0.00120115
-0.00121587
-0.00128327
-0.00130004
-0.00121545
-0.00120116
-0.00129983
-0.0012008
-0.00130127
-0.00120094
-0.0013013
-0.00106262
-0.00106282
-0.00116403
-0.00116544
-0.00116533
-0.00106415
-0.00116657
-0.0013015
-0.00120129
-0.00119923
-0.00130062
-0.00130049
-0.00120046
-0.00120063
-0.00130143
-0.00120148
-0.00116409
-0.00107538
-0.0010633
-0.0011469
-0.00106323
-0.00114609
-0.00116448
-0.00116608
-0.00106359
-0.00106381
-0.00116611
-0.00116608
-0.00106359
-0.00106382
-0.00116612
-0.00120163
-0.00121584
-0.00128319
-0.0012998
-0.00121528
-0.00120145
-0.00129939
-0.00120164
-0.00121593
-0.00128319
-0.00129981
-0.00121536
-0.00120147
-0.00129938
-0.00120128
-0.00130115
-0.00120117
-0.00130097
-0.00120128
-0.00130116
-0.00120119
-0.00130097
-0.0010639
-0.00116661
-0.00106414
-0.00116659
-0.00119928
-0.00130059
-0.00130048
-0.00120043
-0.00120064
-0.0013015
-0.00120129
-0.00130143
-0.00120149
-0.00133555
-0.00143348
-0.0013354
-0.00143359
-0.0013349
-0.00133475
-0.00143229
-0.00143267
-0.00143282
-0.00156305
-0.00146695
-0.00156319
-0.00146684
-0.00146571
-0.00156237
-0.00156253
-0.00146645
-0.00146633
-0.00143303
-0.00133538
-0.00133543
-0.00143327
-0.00143154
-0.0013358
-0.00134983
-0.00141623
-0.001336
-0.00143202
-0.00141593
-0.00143154
-0.00133582
-0.00134979
-0.00141624
-0.00133601
-0.00143198
-0.00141594
-0.00146672
-0.0015629
-0.00146685
-0.00156253
-0.00146674
-0.00156292
-0.00146688
-0.00156253
-0.00146741
-0.00148171
-0.00156171
-0.00154622
-0.00146737
-0.00148149
-0.00156109
-0.00146742
-0.00148174
-0.00156174
-0.00154621
-0.00146739
-0.00148151
-0.00156111
-0.00133493
-0.00133471
-0.00143231
-0.00143258
-0.00143291
-0.00133539
-0.00143363
-0.00156309
-0.00146695
-0.00146573
-0.00156243
-0.00156246
-0.00146646
-0.00146633
-0.00156316
-0.00146684
-0.001432
-0.00133553
-0.00134987
-0.00141625
-0.00133549
-0.00143226
-0.00141598
-0.00143343
-0.00133516
-0.00133499
-0.00143344
-0.00143203
-0.00134986
-0.00133553
-0.00141625
-0.00133551
-0.00141601
-0.00143228
-0.00146634
-0.0015631
-0.00146669
-0.00156298
-0.00146695
-0.00148171
-0.001562
-0.00154625
-0.00146713
-0.00148151
-0.00156162
-0.00146636
-0.0015631
-0.00146669
-0.00156297
-0.00146697
-0.00148172
-0.00154626
-0.00156201
-0.00148157
-0.00146713
-0.00156164
-0.00143343
-0.00133517
-0.001335
-0.00143346
-0.00143204
-0.00134987
-0.00133553
-0.00141625
-0.00133552
-0.00141601
-0.00143227
-0.00143344
-0.00133517
-0.001335
-0.00143345
-0.00146696
-0.00148168
-0.00156196
-0.00154624
-0.00146711
-0.00148146
-0.00156162
-0.00146636
-0.00156308
-0.0014667
-0.00156296
-0.00146698
-0.00148172
-0.00154625
-0.00156199
-0.00148156
-0.00146712
-0.00156163
-0.00146636
-0.0015631
-0.00146669
-0.00156297
-0.00133474
-0.00133489
-0.00143231
-0.00143282
-0.00143267
-0.00133555
-0.00143349
-0.00156319
-0.00146683
-0.00146572
-0.00156253
-0.00156236
-0.00146633
-0.00146645
-0.00156307
-0.00146696
-0.00143155
-0.00134978
-0.00133582
-0.00141629
-0.00133602
-0.00141592
-0.00143201
-0.00143305
-0.00133537
-0.00133544
-0.00143329
-0.00143305
-0.00133538
-0.00133545
-0.0014333
-0.00146744
-0.00148171
-0.00154619
-0.00156172
-0.00148141
-0.00146737
-0.00156113
-0.00146745
-0.00148178
-0.0015462
-0.00156172
-0.00148149
-0.00146739
-0.00156111
-0.00146676
-0.00156292
-0.00146687
-0.00156255
-0.00146676
-0.00156292
-0.00146687
-0.00156256
-0.00133539
-0.00143359
-0.00133555
-0.0014335
-0.00146573
-0.00156251
-0.00156236
-0.0014663
-0.00146645
-0.00156319
-0.00146683
-0.00156306
-0.00146696
-0.00159586
-0.00169026
-0.00159578
-0.00169042
-0.00159542
-0.00159532
-0.0016892
-0.00168962
-0.0016898
-0.00181526
-0.00172251
-0.00181542
-0.00172244
-0.00172135
-0.0018147
-0.00181487
-0.00172214
-0.00172205
-0.00168976
-0.00159581
-0.00159567
-0.00169012
-0.00168831
-0.00159629
-0.00161002
-0.00167377
-0.00159633
-0.00168896
-0.00167354
-0.00168831
-0.0015963
-0.00160999
-0.00167379
-0.00159635
-0.00168894
-0.00167356
-0.00172222
-0.00181514
-0.00172245
-0.00181471
-0.00172223
-0.00181513
-0.00172246
-0.00181471
-0.00172291
-0.00173681
-0.00181404
-0.00179905
-0.001723
-0.00173663
-0.0018133
-0.00172292
-0.00173683
-0.00181404
-0.00179904
-0.00172299
-0.00173666
-0.00181331
-0.00159545
-0.00159528
-0.0016892
-0.00168962
-0.00168976
-0.00159576
-0.00169039
-0.00181526
-0.00172251
-0.00172134
-0.00181472
-0.00181483
-0.00172215
-0.00172202
-0.0018154
-0.00172241
-0.00168888
-0.00159608
-0.00161004
-0.0016738
-0.00159591
-0.00168926
-0.00167357
-0.00169024
-0.00159565
-0.00159532
-0.00169034
-0.00168889
-0.00161005
-0.00159607
-0.00167382
-0.00159592
-0.00167362
-0.00168926
-0.00172189
-0.00181536
-0.00172233
-0.0018152
-0.00172251
-0.00173681
-0.00181433
-0.00179909
-0.0017228
-0.00173664
-0.00181385
-0.00172191
-0.00181539
-0.00172234
-0.00181522
-0.00172252
-0.00173683
-0.00179909
-0.00181438
-0.00173669
-0.0017228
-0.00181388
-0.00169023
-0.00159565
-0.00159532
-0.00169032
-0.00168888
-0.00161004
-0.00159606
-0.00167382
-0.00159591
-0.00167359
-0.00168925
-0.00169024
-0.00159566
-0.00159533
-0.00169035
-0.00172249
-0.00173676
-0.0018143
-0.00179906
-0.00172278
-0.00173658
-0.00181386
-0.0017219
-0.00181535
-0.00172232
-0.00181519
-0.00172251
-0.00173684
-0.00179909
-0.00181433
-0.00173667
-0.00172277
-0.00181388
-0.00172191
-0.00181536
-0.00172234
-0.00181519
-0.00159531
-0.00159543
-0.00168922
-0.00168981
-0.00168963
-0.00159589
-0.00169029
-0.00181545
-0.00172244
-0.00172135
-0.00181491
-0.00181471
-0.00172206
-0.00172217
-0.00181529
-0.00172254
-0.00168834
-0.00160999
-0.00159633
-0.00167383
-0.00159638
-0.00167354
-0.00168896
-0.00168979
-0.00159582
-0.0015957
-0.00169015
-0.00168979
-0.00159582
-0.00159571
-0.00169016
-0.00172296
-0.0017368
-0.00179903
-0.00181405
-0.00173656
-0.00172303
-0.00181333
-0.00172297
-0.00173687
-0.00179902
-0.00181402
-0.00173663
-0.00172302
-0.00181331
-0.00172227
-0.00181516
-0.0017225
-0.00181474
-0.00172227
-0.00181516
-0.0017225
-0.00181473
-0.00159577
-0.00169042
-0.00159588
-0.00169029
-0.00172137
-0.00181485
-0.00181468
-0.00172201
-0.00172215
-0.00181541
-0.00172243
-0.00181526
-0.00172253
-0.00184692
-0.00193816
-0.00184683
-0.0019383
-0.00184656
-0.00184646
-0.0019371
-0.0019376
-0.00193778
-0.00205919
-0.00196934
-0.00205933
-0.00196923
-0.00196814
-0.0020587
-0.00205888
-0.00196902
-0.00196892
-0.00193767
-0.00184686
-0.00184668
-0.00193802
-0.00193623
-0.00184738
-0.0018606
-0.00192219
-0.00184735
-0.00193691
-0.00192198
-0.00193623
-0.00184739
-0.00186058
-0.00192218
-0.00184735
-0.0019369
-0.00192199
-0.00196903
-0.00205909
-0.00196929
-0.00205867
-0.00196904
-0.00205908
-0.00196929
-0.00205864
-0.00196972
-0.00198315
-0.00205803
-0.00204347
-0.0019698
-0.00198299
-0.00205722
-0.00196974
-0.00198318
-0.00205801
-0.00204347
-0.00196984
-0.00198302
-0.00205724
-0.0018466
-0.00184643
-0.00193711
-0.0019375
-0.00193788
-0.00184682
-0.00193835
-0.00205918
-0.00196931
-0.00196816
-0.00205872
-0.00205878
-0.00196902
-0.00196891
-0.00205928
-0.00196924
-0.00193679
-0.00184715
-0.00186063
-0.00192224
-0.0018469
-0.00193722
-0.00192202
-0.00193813
-0.00184676
-0.00184636
-0.00193825
-0.00193681
-0.00186062
-0.00184718
-0.00192224
-0.00184693
-0.00192206
-0.00193722
-0.00196868
-0.0020593
-0.00196914
-0.00205914
-0.00196927
-0.00198314
-0.00205834
-0.00204349
-0.0019696
-0.00198299
-0.00205783
-0.00196868
-0.00205928
-0.00196914
-0.00205913
-0.00196927
-0.00198315
-0.00204349
-0.00205833
-0.00198305
-0.00196958
-0.00205783
-0.00193813
-0.00184673
-0.00184633
-0.00193828
-0.0019368
-0.00186063
-0.00184715
-0.00192227
-0.00184692
-0.00192207
-0.00193723
-0.00193812
-0.00184672
-0.00184633
-0.00193823
-0.00196927
-0.00198311
-0.00205829
-0.00204348
-0.00196957
-0.00198294
-0.00205782
-0.0019687
-0.00205926
-0.00196915
-0.00205912
-0.00196927
-0.00198316
-0.0020435
-0.00205831
-0.00198304
-0.00196958
-0.00205781
-0.0019687
-0.00205929
-0.00196912
-0.00205915
-0.00184649
-0.00184659
-0.00193711
-0.00193779
-0.0019376
-0.00184694
-0.00193815
-0.00205933
-0.00196922
-0.00196814
-0.00205887
-0.00205869
-0.00196891
-0.00196903
-0.00205918
-0.00196933
-0.00193624
-0.00186059
-0.00184739
-0.00192226
-0.00184736
-0.001922
-0.00193692
-0.00193764
-0.00184688
-0.00184669
-0.00193804
-0.00193764
-0.00184688
-0.00184669
-0.00193802
-0.00196973
-0.00198313
-0.00204344
-0.00205801
-0.00198293
-0.00196982
-0.00205722
-0.00196975
-0.0019832
-0.00204344
-0.00205803
-0.00198299
-0.00196983
-0.00205723
-0.00196904
-0.00205909
-0.0019693
-0.00205867
-0.00196905
-0.00205909
-0.00196927
-0.00205868
-0.00184681
-0.00193828
-0.00184691
-0.00193813
-0.00196816
-0.00205884
-0.00205868
-0.00196887
-0.001969
-0.00205932
-0.0019692
-0.00205918
-0.0019693
-0.00208985
-0.00217839
-0.00208976
-0.00217854
-0.00208956
-0.00208946
-0.00217738
-0.00217793
-0.00217809
-0.00229598
-0.00220863
-0.0022961
-0.00220853
-0.00220748
-0.00229555
-0.00229569
-0.00220839
-0.00220826
-0.00217793
-0.0020898
-0.00208959
-0.00217831
-0.00217652
-0.00209031
-0.00210314
-0.00216292
-0.00209022
-0.00217725
-0.00216274
-0.00217651
-0.00209028
-0.00210313
-0.00216294
-0.00209023
-0.00217726
-0.00216275
-0.00220834
-0.0022959
-0.00220859
-0.00229554
-0.00220838
-0.00229592
-0.00220862
-0.00229552
-0.00220904
-0.00222211
-0.00229491
-0.00228075
-0.00220913
-0.00222194
-0.00229416
-0.00220904
-0.00222208
-0.00229496
-0.00228075
-0.00220916
-0.00222197
-0.00229417
-0.00208956
-0.00208939
-0.00217736
-0.00217794
-0.00217806
-0.00208972
-0.00217853
-0.00229601
-0.00220865
-0.00220744
-0.00229561
-0.00229571
-0.00220841
-0.00220825
-0.00229613
-0.00220853
-0.00217708
-0.00209009
-0.00210314
-0.00216296
-0.00208981
-0.00217755
-0.00216277
-0.00217839
-0.00208966
-0.00208925
-0.00217854
-0.00217712
-0.00210311
-0.00209007
-0.00216294
-0.00208982
-0.00216277
-0.00217758
-0.00220797
-0.00229608
-0.00220844
-0.00229599
-0.00220853
-0.00222207
-0.00229519
-0.00228079
-0.00220889
-0.00222194
-0.00229469
-0.002208
-0.00229612
-0.0022085
-0.00229599
-0.00220858
-0.00222203
-0.00228081
-0.00229521
-0.00222196
-0.00220892
-0.00229469
-0.00217838
-0.00208964
-0.00208922
-0.0021785
-0.00217708
-0.00210314
-0.00209007
-0.00216294