/*--------------------------------*- C++ -*----------------------------------*\
| =========                 |                                                 |
| \\      /  F ield         | OpenFOAM: The Open Source CFD Toolbox           |
|  \\    /   O peration     | Version:  2206                                  |
|   \\  /    A nd           | Website:  www.openfoam.com                      |
|    \\/     M anipulation  |                                                 |
\*---------------------------------------------------------------------------*/
FoamFile
{
    version     2.0;
    format      ascii;
    arch        "LSB;label=32;scalar=64";
    class       surfaceScalarField;
    location    "120";
    object      phi;
}
// * * * * * * * * * * * * * * * * * * * * * * * * * * * * * * * * * * * * * //

dimensions      [0 3 -1 0 0 0 0];

oriented        oriented;

internalField   nonuniform List<scalar> 
198849
(
-1.31295e-07
9.37608e-09
8.57106e-09
8.22911e-10
4.84544e-10
1.12041e-07
-2.62047e-08
1.54049e-09
-8.57312e-09
-5.02689e-09
1.10812e-07
1.70397e-09
1.37448e-09
7.1198e-10
2.7093e-09
1.8141e-09
3.2757e-09
1.25491e-09
-2.69141e-08
-3.08944e-08
-2.75841e-08
-2.62012e-08
1.54012e-09
-8.56928e-09
-5.01421e-09
1.10783e-07
1.7029e-09
1.37357e-09
7.1193e-10
2.70879e-09
1.81353e-09
3.27471e-09
1.25404e-09
-3.08897e-08
-2.69098e-08
-2.75788e-08
-2.66359e-08
-8.0593e-10
-1.55194e-09
1.44749e-09
1.80311e-09
2.57432e-08
-4.90059e-10
-5.04993e-10
-1.13195e-07
2.73999e-10
2.624e-10
1.13654e-07
-1.08226e-07
-1.67728e-10
5.02905e-10
2.36557e-10
1.08638e-07
-8.90193e-11
-7.22791e-11
-1.27119e-10
-2.18159e-10
-1.29927e-10
-1.36806e-10
-2.10989e-10
-1.09221e-07
-1.729e-10
4.95752e-10
2.30115e-10
1.0964e-07
-1.00658e-10
-6.77387e-11
-1.18142e-10
-1.61415e-10
-1.57429e-10
-1.87222e-10
-1.79314e-10
-2.65792e-08
1.64692e-10
1.72572e-10
-1.11446e-10
-1.21104e-10
2.64745e-08
-3.0122e-10
-3.09543e-10
-1.14699e-07
1.61159e-10
1.53897e-10
1.14994e-07
-1.09578e-07
-1.20771e-10
3.08785e-10
1.52605e-10
1.09842e-07
-4.24126e-11
-3.68905e-11
-9.6628e-11
-1.58834e-10
-5.65206e-11
-5.94244e-11
-1.53152e-10
-1.10594e-07
-1.25805e-10
3.02454e-10
1.49688e-10
1.10863e-07
-5.47163e-11
-3.22577e-11
-8.45944e-11
-1.02889e-10
-8.48768e-11
-1.12254e-10
-1.23845e-10
-2.68459e-08
1.14622e-10
1.257e-10
-5.26866e-11
-6.40871e-11
2.67223e-08
-2.60687e-10
-2.69819e-10
-1.15809e-07
1.38982e-10
1.32868e-10
1.16068e-07
-1.10559e-07
-1.08005e-10
2.68401e-10
1.32153e-10
1.10782e-07
-3.29599e-11
-2.55915e-11
-8.46862e-11
-1.45223e-10
-4.11985e-11
-4.22871e-11
-1.43102e-10
-1.11595e-07
-1.13244e-10
2.62755e-10
1.30164e-10
1.11824e-07
-4.51551e-11
-2.15325e-11
-7.70201e-11
-8.86761e-11
-6.93041e-11
-9.53282e-11
-1.11081e-10
-2.70379e-08
1.01431e-10
1.13704e-10
-3.74673e-11
-4.89658e-11
2.69092e-08
-2.41537e-10
-2.49938e-10
-1.16808e-07
1.29423e-10
1.235e-10
1.17047e-07
-1.11411e-07
-1.01613e-10
2.48453e-10
1.20473e-10
1.11608e-07
-2.69506e-11
-1.93094e-11
-8.3018e-11
-1.37901e-10
-3.15433e-11
-3.30412e-11
-1.32882e-10
-1.12465e-07
-1.06833e-10
2.43094e-10
1.19091e-10
1.12668e-07
-3.93551e-11
-1.52016e-11
-7.19082e-11
-8.12998e-11
-5.99363e-11
-8.65006e-11
-1.0338e-10
-2.7205e-08
9.44776e-11
1.07384e-10
-2.89702e-11
-4.06038e-11
2.70727e-08
-2.25876e-10
-2.33571e-10
-1.17733e-07
1.21802e-10
1.16114e-10
1.17955e-07
-1.12163e-07
-9.65541e-11
2.32251e-10
1.11469e-10
1.12336e-07
-2.1609e-11
-1.45909e-11
-7.50891e-11
-1.31757e-10
-2.31894e-11
-2.50336e-11
-1.28791e-10
-1.13235e-07
-1.01807e-10
2.26973e-10
1.10307e-10
1.13414e-07
-3.40386e-11
-1.0393e-11
-6.75057e-11
-7.52859e-11
-5.15908e-11
-7.88796e-11
-9.68089e-11
-2.73484e-08
8.90645e-11
1.02377e-10
-2.1881e-11
-3.38064e-11
2.72126e-08
-2.12474e-10
-2.20012e-10
-1.18594e-07
1.15803e-10
1.09876e-10
1.188e-07
-1.12827e-07
-9.21088e-11
2.18308e-10
1.03294e-10
1.1298e-07
-1.67731e-11
-1.03903e-11
-7.49621e-11
-1.2653e-10
-1.56012e-11
-1.77881e-11
-1.20688e-10
-1.13916e-07
-9.74256e-11
2.132e-10
1.02854e-10
1.14074e-07
-2.93228e-11
-6.25361e-12
-6.38815e-11
-7.01599e-11
-4.42342e-11
-7.20387e-11
-9.14102e-11
-2.74686e-08
8.43001e-11
9.80736e-11
-1.55757e-11
-2.78331e-11
2.73296e-08
-1.99417e-10
-2.07232e-10
-1.19398e-07
1.10051e-10
1.03351e-10
1.19591e-07
-1.13412e-07
-8.80384e-11
2.06544e-10
9.65619e-11
1.13545e-07
-1.23708e-11
-7.04865e-12
-6.81489e-11
-1.21946e-10
-8.69441e-12
-1.09852e-11
-1.182e-10
-1.14518e-07
-9.33563e-11
2.00674e-10
9.60601e-11
1.14658e-07
-2.47544e-11
-2.76863e-12
-6.06067e-11
-6.556e-11
-3.7566e-11
-6.55424e-11
-8.67923e-11
-2.75679e-08
7.99603e-11
9.41272e-11
-9.98726e-12
-2.25262e-11
2.74263e-08
-1.88271e-10
-1.96271e-10
-1.20149e-07
1.06326e-10
9.80526e-11
1.20329e-07
-1.13924e-07
-8.39871e-11
1.95061e-10
8.90255e-11
1.14039e-07
-7.91767e-12
-3.99562e-12
-6.87556e-11
-1.17487e-10
-2.03102e-12
-4.12821e-12
-1.11372e-10
-1.15046e-07
-8.95419e-11
1.89259e-10
9.09303e-11
1.15168e-07
-2.05884e-11
-1.2843e-13
-5.80365e-11
-6.14587e-11
-3.11594e-11
-5.92687e-11
-8.25693e-11
-2.76484e-08
7.60361e-11
9.02846e-11
-4.54223e-12
-1.75844e-11
2.75042e-08
-1.77312e-10
-1.84869e-10
-1.20848e-07
1.02313e-10
9.27642e-11
1.21015e-07
-1.14368e-07
-7.99414e-11
1.84986e-10
8.51145e-11
1.14462e-07
-4.11181e-12
-1.43844e-12
-6.29606e-11
-1.13366e-10
4.37888e-12
2.74291e-12
-1.09747e-10
-1.15506e-07
-8.53437e-11
1.76337e-10
8.54771e-11
1.15612e-07
-1.66502e-11
2.53443e-12
-5.59693e-11
-5.73186e-11
-2.45972e-11
-5.25382e-11
-7.82223e-11
-2.77103e-08
7.15162e-11
8.63009e-11
6.7798e-13
-1.25358e-11
2.75644e-08
-1.61088e-10
-1.73211e-10
-1.21492e-07
9.79074e-11
8.43299e-11
1.21644e-07
-1.14737e-07
-7.53518e-11
1.70456e-10
7.87262e-11
1.14813e-07
-8.30804e-14
1.42883e-12
-6.43836e-11
-1.07636e-10
1.19419e-11
1.17058e-11
-1.02367e-10
-1.15892e-07
-8.06485e-11
1.61639e-10
8.27838e-11
1.15977e-07
-1.22796e-11
4.50798e-12
-5.38721e-11
-5.20024e-11
-1.71651e-11
-4.42605e-11
-7.37619e-11
-2.7754e-08
6.65554e-11
8.16535e-11
7.06776e-12
-6.73765e-12
2.76055e-08
-1.42012e-10
-1.54818e-10
-1.22064e-07
8.20518e-11
7.89788e-11
1.222e-07
-1.15022e-07
-6.95855e-11
1.46206e-10
8.84787e-11
1.15063e-07
5.83392e-12
4.47986e-12
-6.13527e-11
-1.01695e-10
2.14291e-11
2.17461e-11
-9.65063e-11
-1.1618e-07
-7.46483e-11
1.99245e-11
2.77597e-10
-7.1999e-12
2.57774e-12
-5.08934e-11
-4.48104e-11
-8.0695e-12
-3.3771e-11
-6.86869e-11
1.16168e-07
-2.77703e-08
6.01752e-11
7.50026e-11
1.51841e-11
-8.49146e-14
2.762e-08
-2.29355e-09
-2.33968e-09
2.66386e-08
-2.71162e-08
2.72393e-09
2.38692e-09
6.15633e-12
2.61717e-08
-3.14664e-08
3.06727e-09
-7.22556e-11
2.29545e-09
5.27623e-12
2.61734e-08
-3.1467e-08
3.0657e-09
-7.28208e-11
-2.33911e-09
2.6639e-08
-2.71161e-08
2.70469e-09
2.40694e-09
1.05444e-10
2.62062e-08
-3.15175e-08
2.93891e-09
-7.27227e-11
5.8324e-12
2.29463e-09
2.61709e-08
-3.14652e-08
-7.15192e-11
3.06532e-09
-7.47171e-10
-8.14235e-10
-3.25606e-08
-3.12485e-08
-3.20877e-08
-3.2089e-08
-3.6336e-10
-1.22348e-09
7.64998e-10
-3.52861e-10
-1.24727e-09
7.8559e-10
-1.05069e-10
1.31296e-07
-7.52276e-10
-8.135e-10
-3.25602e-08
-3.12487e-08
-3.20875e-08
-3.20886e-08
-3.63816e-10
-1.22335e-09
7.63968e-10
-3.51964e-10
-1.24654e-09
7.86493e-10
-1.05585e-10
1.3128e-07
-7.46031e-10
-8.04897e-10
-3.25593e-08
-3.12466e-08
-3.20867e-08
-3.2087e-08
-3.64022e-10
-1.22406e-09
7.63974e-10
-3.53005e-10
-1.24693e-09
7.85699e-10
-6.06946e-12
-1.05652e-10
1.31289e-07
-7.46494e-10
-8.11606e-10
-3.25599e-08
-3.12476e-08
-3.20869e-08
-3.20879e-08
-3.50648e-10
-1.22334e-09
7.65518e-10
-3.6553e-10
-1.24746e-09
7.84795e-10
-3.1517e-08
2.94117e-09
-7.30134e-11
2.29034e-09
2.61694e-08
-3.14634e-08
-7.20365e-11
3.06964e-09
-2.33834e-09
2.66358e-08
-2.71134e-08
2.70421e-09
2.40633e-09
-3.15137e-08
-7.20623e-11
2.94062e-09
2.34211e-09
2.62042e-08
-3.15164e-08
-7.25267e-11
2.9369e-09
-2.71131e-08
2.73667e-09
2.37297e-09
-8.06897e-10
-1.55119e-09
1.44313e-09
1.80794e-09
2.57457e-08
9.95239e-11
8.90651e-11
2.65697e-08
-2.63659e-08
-1.98557e-10
-1.93844e-10
-4.62638e-09
1.12278e-07
1.11416e-09
1.46996e-09
8.8188e-10
2.70754e-09
1.82224e-09
3.27293e-09
1.25369e-09
-2.70104e-08
-3.08818e-08
-2.75413e-08
8.06594e-10
-9.38009e-09
-4.63391e-09
1.12301e-07
1.12404e-09
1.4713e-09
8.86992e-10
2.70695e-09
1.81183e-09
3.27137e-09
1.24794e-09
-2.70113e-08
-3.08847e-08
-2.7545e-08
1.10235e-07
-2.41446e-10
-1.09523e-07
-4.67118e-10
-2.05145e-10
-1.38925e-10
-6.44653e-11
1.86332e-10
-8.06582e-11
9.53542e-11
3.0341e-10
-9.95953e-11
1.10261e-07
-2.40221e-10
-1.09547e-07
-4.68354e-10
-2.0527e-10
-1.39976e-10
-6.35076e-11
1.85657e-10
-8.03758e-11
9.39572e-11
3.03615e-10
1.42878e-09
1.81419e-09
2.57432e-08
8.85259e-11
2.657e-08
-2.63658e-08
-1.97225e-10
-1.95127e-10
-5.02938e-09
1.10822e-07
1.72553e-09
1.36341e-09
7.05706e-10
2.70802e-09
1.80358e-09
3.27388e-09
1.24863e-09
-2.69134e-08
-3.08961e-08
-2.75853e-08
8.06655e-10
-9.37478e-09
-4.62257e-09
1.12274e-07
1.12408e-09
1.47058e-09
8.85976e-10
2.70615e-09
1.81194e-09
3.2715e-09
1.24827e-09
-3.08814e-08
-2.70079e-08
-2.75419e-08
1.08238e-07
6.45818e-10
-1.07739e-07
2.89402e-10
-1.9953e-10
-1.52791e-10
-1.23535e-10
-1.90327e-10
-2.43764e-10
-1.83574e-10
-2.51939e-10
-1.06724e-10
1.09241e-07
6.41809e-10
-1.08744e-07
3.22172e-10
-1.98737e-10
-1.53222e-10
-1.31353e-10
-2.09629e-10
-2.43637e-10
-1.85046e-10
-2.32392e-10
-9.37512e-09
-4.62387e-09
1.12268e-07
1.1139e-09
1.4696e-09
8.81504e-10
2.70726e-09
1.82232e-09
1.25425e-09
3.27326e-09
-3.08806e-08
-2.70074e-08
-2.75397e-08
6.45831e-10
-1.07727e-07
2.89542e-10
-1.9977e-10
-1.52055e-10
-1.2336e-10
-1.90554e-10
-2.44286e-10
-2.51566e-10
-1.83888e-10
-1.06506e-10
1.09236e-07
6.40806e-10
-1.0874e-07
3.22178e-10
-1.98573e-10
-1.52085e-10
-1.31051e-10
-2.09588e-10
-2.43895e-10
-1.85379e-10
-2.32372e-10
1.42881e-09
1.8135e-09
2.57403e-08
8.38538e-11
2.65751e-08
-2.63716e-08
-2.0591e-10
-1.8811e-10
-8.57072e-09
-5.02572e-09
1.1081e-07
1.72596e-09
1.36286e-09
7.05785e-10
2.70771e-09
1.80312e-09
1.24782e-09
3.27309e-09
-3.08938e-08
-2.69115e-08
-2.75827e-08
-1.77664e-10
-1.08495e-07
-5.62327e-10
-2.05055e-10
-1.39057e-10
-5.95139e-11
2.08334e-10
-8.22117e-11
2.80047e-10
9.55735e-11
-8.40027e-11
1.09255e-07
-1.77616e-10
-1.08527e-07
-5.63477e-10
-2.04948e-10
-1.40309e-10
-5.85643e-11
2.07922e-10
-8.19085e-11
9.47246e-11
2.80508e-10
-2.63763e-08
-2.06587e-10
-1.86803e-10
1.71847e-10
1.67631e-10
-1.18549e-10
-1.14447e-10
2.64632e-08
5.00418e-11
4.20785e-11
2.68359e-08
-2.66589e-08
-1.36345e-10
-1.32795e-10
2.53839e-10
1.10656e-07
-1.08574e-10
-8.22212e-11
-1.17281e-10
-1.37577e-10
-1.59067e-10
-2.10504e-10
-1.7826e-10
-1.71848e-10
4.89058e-10
2.53183e-10
1.10684e-07
-1.08212e-10
-8.1564e-11
-1.21532e-10
-1.3753e-10
-1.58731e-10
-2.10799e-10
-1.75388e-10
1.11619e-07
3.20902e-10
-1.1133e-07
1.75718e-10
-1.27883e-10
-8.67038e-11
-6.63367e-11
-1.44741e-10
-1.28976e-10
-9.45998e-11
-8.64234e-11
-4.93319e-11
1.11646e-07
3.22818e-10
-1.11359e-07
1.75467e-10
-1.28284e-10
-8.75381e-11
-6.2481e-11
-1.45169e-10
-1.29161e-10
-9.68364e-11
-8.62401e-11
-1.18102e-10
-1.14985e-10
2.64635e-08
4.17638e-11
2.6837e-08
-2.66593e-08
-1.35289e-10
-1.33553e-10
2.36295e-10
1.08651e-07
-8.90978e-11
-7.28805e-11
-1.3175e-10
-2.18675e-10
-1.29391e-10
-1.36529e-10
-2.08348e-10
-1.64838e-10
5.02508e-10
2.56412e-10
1.09655e-07
-9.56962e-11
-8.88331e-11
-1.31031e-10
-1.99045e-10
-1.30716e-10
-1.55439e-10
-2.07757e-10
1.0959e-07
3.31483e-10
-1.09309e-07
1.63179e-10
-1.26351e-10
-1.0086e-10
-4.7732e-11
-6.88065e-11
-1.58954e-10
-6.475e-11
-1.65903e-10
-5.65257e-11
1.10604e-07
3.30021e-10
-1.10318e-07
1.76349e-10
-1.21553e-10
-1.0002e-10
-5.37769e-11
-8.86643e-11
-1.58669e-10
-6.62978e-11
-1.46564e-10
5.01445e-10
2.56405e-10
1.09651e-07
-9.57247e-11
-8.86748e-11
-1.29948e-10
-1.9901e-10
-1.30938e-10
-2.08247e-10
-1.55411e-10
3.31012e-10
-1.09295e-07
1.62996e-10
-1.2699e-10
-1.00343e-10
-5.09176e-11
-6.89652e-11
-1.59529e-10
-1.65996e-10
-6.2546e-11
-5.67883e-11
1.10598e-07
3.30356e-10
-1.10313e-07
1.76424e-10
-1.21275e-10
-9.93805e-11
-5.36638e-11
-8.83425e-11
-1.59294e-10
-6.58425e-11
-1.46786e-10
-1.10983e-10
-1.21035e-10
2.64693e-08
3.69754e-11
2.68409e-08
-2.66651e-08
-1.4306e-10
-1.26263e-10
4.96292e-10
2.29226e-10
1.09673e-07
-1.00198e-10
-6.76199e-11
-1.18884e-10
-1.61018e-10
-1.57391e-10
-1.78467e-10
-1.87772e-10
3.26417e-10
-1.10309e-07
1.59485e-10
-1.31791e-10
-8.81814e-11
-5.93634e-11
-1.21392e-10
-1.30285e-10
-1.10192e-10
-9.30167e-11
-3.72925e-11
1.10631e-07
3.25946e-10
-1.10343e-07
1.59019e-10
-1.31804e-10
-8.90889e-11
-5.97975e-11
-1.21532e-10
-1.29828e-10
-9.29834e-11
-1.10444e-10
-2.66703e-08
-1.44248e-10
-1.25353e-10
1.21757e-10
1.20446e-10
-6.00381e-11
-5.74599e-11
2.67112e-08
3.52317e-11
2.81307e-11
2.70274e-08
-2.68542e-08
-1.19749e-10
-1.16803e-10
1.64965e-10
1.11888e-07
-6.15899e-11
-4.4659e-11
-8.29724e-11
-7.89386e-11
-8.66066e-11
-1.35878e-10
-1.22607e-10
-1.21888e-10
2.9984e-10
1.6458e-10
1.11917e-07
-6.13997e-11
-4.42094e-11
-8.37167e-11
-7.89693e-11
-8.63083e-11
-1.36273e-10
-1.22451e-10
1.12627e-07
2.67108e-10
-1.12389e-07
1.47605e-10
-1.1083e-10
-7.67278e-11
-5.39385e-11
-1.2183e-10
-1.12804e-10
-7.31938e-11
-6.78689e-11
-3.49174e-11
1.12657e-07
2.68058e-10
-1.12419e-07
1.47263e-10
-1.11065e-10
-7.75177e-11
-5.37655e-11
-1.22248e-10
-1.12412e-10
-7.34672e-11
-6.73889e-11
-6.01906e-11
-5.7468e-11
2.6712e-08
2.77664e-11
2.70282e-08
-2.68543e-08
-1.18969e-10
-1.17582e-10
1.52611e-10
1.09854e-07
-4.28805e-11
-3.74428e-11
-9.73047e-11
-1.59117e-10
-5.6876e-11
-5.98203e-11
-1.52746e-10
-1.14598e-10
3.08385e-10
1.64911e-10
1.10869e-07
-4.85024e-11
-5.12185e-11
-9.60464e-11
-1.39117e-10
-5.77727e-11
-7.90676e-11
-1.52047e-10
1.10574e-07
2.75453e-10
-1.10342e-07
1.36391e-10
-1.09961e-10
-9.09501e-11
-3.4618e-11
-4.5246e-11
-1.42888e-10
-4.39266e-11
-1.47843e-10
-4.15925e-11
1.11595e-07
2.74962e-10
-1.11362e-07
1.47537e-10
-1.03768e-10
-8.98222e-11
-4.05976e-11
-6.4922e-11
-1.42179e-10
-4.50949e-11
-1.28102e-10
3.07371e-10
1.64982e-10
1.10864e-07
-4.87206e-11
-5.11924e-11
-9.54521e-11
-1.39274e-10
-5.75433e-11
-1.52928e-10
-7.87039e-11
2.75568e-10
-1.10329e-07
1.36473e-10
-1.10132e-10
-8.99784e-11
-3.46521e-11
-4.51215e-11
-1.43197e-10
-1.47723e-10
-4.38896e-11
-4.1528e-11
1.11589e-07
2.74386e-10
-1.11356e-07
1.4745e-10
-1.03809e-10
-8.92524e-11
-4.05567e-11
-6.45541e-11
-1.42782e-10
-4.48117e-11
-1.28278e-10
-5.30974e-11
-6.39598e-11
2.67175e-08
2.35601e-11
2.70324e-08
-2.68602e-08
-1.2718e-10
-1.10174e-10
3.03672e-10
1.49243e-10
1.10899e-07
-5.47649e-11
-3.21095e-11
-8.50164e-11
-1.02628e-10
-8.49723e-11
-1.2313e-10
-1.12599e-10
2.70694e-10
-1.1136e-07
1.33857e-10
-1.15193e-10
-7.85598e-11
-4.67447e-11
-9.83923e-11
-1.13571e-10
-9.15392e-11
-7.19958e-11
-2.29808e-11
1.11633e-07
2.70979e-10
-1.11397e-07
1.33435e-10
-1.15788e-10
-7.89061e-11
-4.71154e-11
-9.8509e-11
-1.13179e-10
-7.22696e-11
-9.14834e-11
-2.68648e-08
-1.28285e-10
-1.09325e-10
1.0864e-10
1.07778e-10
-4.45382e-11
-4.2946e-11
2.68985e-08
2.79923e-11
2.12529e-11
2.71942e-08
-2.70232e-08
-1.1147e-10
-1.08748e-10
1.43306e-10
1.12856e-07
-5.22706e-11
-3.29852e-11
-7.50348e-11
-6.48387e-11
-7.04615e-11
-1.18772e-10
-1.10162e-10
-1.08837e-10
2.60692e-10
1.43135e-10
1.12888e-07
-5.20682e-11
-3.25965e-11
-7.9389e-11
-6.45475e-11
-7.06581e-11
-1.1944e-10
-1.07194e-10
1.13503e-07
2.45946e-10
-1.13293e-07
1.34217e-10
-1.03202e-10
-7.11643e-11
-4.76833e-11
-1.12381e-10
-1.04512e-10
-6.32839e-11
-5.96982e-11
-2.75556e-11
1.13534e-07
2.46902e-10
-1.13325e-07
1.34004e-10
-1.03309e-10
-7.19865e-11
-4.37611e-11
-1.12892e-10
-1.04248e-10
-6.6169e-11
-5.93131e-11
-4.45644e-11
-4.27428e-11
2.68987e-08
2.09121e-11
2.71954e-08
-2.70237e-08
-1.10811e-10
-1.0937e-10
1.31963e-10
1.10797e-07
-3.2812e-11
-2.58492e-11
-8.91185e-11
-1.45169e-10
-4.12172e-11
-4.23585e-11
-1.40315e-10
-1.01427e-10
2.68449e-10
1.42931e-10
1.1182e-07
-3.87542e-11
-3.91363e-11
-8.79028e-11
-1.25306e-10
-4.22997e-11
-6.20329e-11
-1.39482e-10
1.11425e-07
2.53224e-10
-1.11221e-07
1.24331e-10
-1.02691e-10
-8.54858e-11
-2.82129e-11
-3.52573e-11
-1.34689e-10
-3.39556e-11
-1.39891e-10
-3.43448e-11
1.12455e-07
2.52744e-10
-1.12249e-07
1.34225e-10
-9.59976e-11
-8.42095e-11
-3.41208e-11
-5.50721e-11
-1.33991e-10
-3.51531e-11
-1.19999e-10
2.67691e-10
1.42813e-10
1.11815e-07
-3.87271e-11
-3.90505e-11
-8.73384e-11
-1.25449e-10
-4.19948e-11
-1.40046e-10
-6.1654e-11
2.53014e-10
-1.11206e-07
1.24131e-10
-1.03082e-10
-8.44521e-11
-3.21202e-11
-3.50981e-11
-1.34899e-10
-1.39737e-10
-3.13586e-11
-3.4299e-11
1.1245e-07
2.522e-10
-1.12244e-07
1.34312e-10
-9.60327e-11
-8.37031e-11
-3.41484e-11
-5.47227e-11
-1.34546e-10
-3.48173e-11
-1.20238e-10
-3.79778e-11
-4.87877e-11
2.69045e-08
1.65821e-11
2.71996e-08
-2.70295e-08
-1.18905e-10
-1.02076e-10
2.63397e-10
1.29787e-10
1.11861e-07
-4.54576e-11
-2.07586e-11
-7.71619e-11
-8.86714e-11
-6.94699e-11
-1.10477e-10
-9.5639e-11
2.48904e-10
-1.12258e-07
1.2176e-10
-1.0806e-10
-7.31847e-11
-4.06665e-11
-8.87841e-11
-1.05384e-10
-8.35094e-11
-6.2104e-11
-1.60792e-11
1.12503e-07
2.49193e-10
-1.12295e-07
1.21334e-10
-1.08719e-10
-7.34318e-11
-4.09445e-11
-8.88001e-11
-1.04903e-10
-6.23e-11
-8.33487e-11
-2.70341e-08
-1.20093e-10
-1.01168e-10
1.01826e-10
1.01291e-10
-3.59434e-11
-3.46547e-11
2.70617e-08
2.27705e-11
1.66411e-11
2.73373e-08
-2.71689e-08
-1.05078e-10
-1.02771e-10
1.3106e-10
1.13705e-07
-4.63133e-11
-2.64606e-11
-6.9769e-11
-5.71019e-11
-6.10546e-11
-1.10159e-10
-1.02107e-10
-1.01997e-10
2.41577e-10
1.31104e-10
1.13737e-07
-4.61054e-11
-2.60273e-11
-7.05159e-11
-5.71807e-11
-6.14137e-11
-1.10895e-10
-1.0202e-10
1.14277e-07
2.30115e-10
-1.14092e-07
1.24501e-10
-9.76805e-11
-6.64893e-11
-4.21611e-11
-1.05189e-10
-9.73174e-11
-5.54587e-11
-5.28644e-11
-2.24246e-11
1.14311e-07
2.31026e-10
-1.14125e-07
1.24161e-10
-9.79992e-11
-6.72921e-11
-4.19955e-11
-1.05354e-10
-9.75904e-11
-5.51926e-11
-5.3035e-11
-3.62252e-11
-3.43076e-11
2.70623e-08
1.59927e-11
2.7339e-08
-2.71695e-08
-1.04418e-10
-1.03463e-10
1.20543e-10
1.11622e-07
-2.67101e-11
-1.96325e-11
-8.39332e-11
-1.37851e-10
-3.16548e-11
-3.31606e-11
-1.32558e-10
-9.44932e-11
2.4853e-10
1.30333e-10
1.12654e-07
-3.25871e-11
-3.26066e-11
-8.26098e-11
-1.17888e-10
-3.28032e-11
-5.29055e-11
-1.31668e-10
1.12177e-07
2.3594e-10
-1.11997e-07
1.15473e-10
-9.72146e-11
-8.10853e-11
-2.27657e-11
-2.70942e-11
-1.27964e-10
-2.5373e-11
-1.33525e-10
-2.92205e-11
1.13215e-07
2.35665e-10
-1.13033e-07
1.24345e-10
-9.04506e-11
-7.95803e-11
-2.84817e-11
-4.70427e-11
-1.27215e-10
-2.64955e-11
-1.13701e-10
2.47979e-10
1.3034e-10
1.12648e-07
-3.26083e-11
-3.25157e-11
-8.20199e-11
-1.1809e-10
-3.24277e-11
-1.32239e-10
-5.25619e-11
2.35728e-10
-1.11983e-07
1.15244e-10
-9.77832e-11
-8.0205e-11
-2.29808e-11
-2.69869e-11
-1.28149e-10
-1.33405e-10
-2.51839e-11
-2.91439e-11
1.13211e-07
2.35005e-10
-1.13028e-07
1.24146e-10
-9.04932e-11
-7.9108e-11
-2.85831e-11
-4.66668e-11
-1.27859e-10
-2.627e-11
-1.13823e-10
-2.94027e-11
-4.04861e-11
2.70681e-08
1.15147e-11
2.73428e-08
-2.71752e-08
-1.12407e-10
-9.58509e-11
2.43648e-10
1.18819e-10
1.12705e-07
-3.95647e-11
-1.4529e-11
-7.19716e-11
-8.12829e-11
-6.00449e-11
-1.02666e-10
-8.67682e-11
2.32548e-10
-1.13051e-07
1.12646e-10
-1.02854e-10
-6.86978e-11
-3.52794e-11
-8.09091e-11
-9.87038e-11
-7.71748e-11
-5.35985e-11
-1.095e-11
1.13273e-07
2.32966e-10
-1.13089e-07
1.12244e-10
-1.03492e-10
-6.89084e-11
-3.55446e-11
-8.12002e-11
-9.81624e-11
-5.38163e-11
-7.72594e-11
-2.718e-08
-1.13579e-10
-9.49508e-11
9.64946e-11
9.59596e-11
-2.88742e-11
-2.75497e-11
2.72013e-08
1.83719e-11
1.25463e-11
2.7457e-08
-2.72908e-08
-9.9734e-11
-9.73196e-11
1.21493e-10
1.14457e-07
-4.0909e-11
-2.14595e-11
-6.5264e-11
-5.10945e-11
-5.34064e-11
-1.03402e-10
-9.53143e-11
-9.67803e-11
2.2605e-10
1.21523e-10
1.14492e-07
-4.06765e-11
-2.10735e-11
-6.96643e-11
-5.11112e-11
-5.31068e-11
-1.03454e-10
-9.30608e-11
1.14965e-07
2.165e-10
-1.14801e-07
1.1641e-10
-9.29553e-11
-6.26363e-11
-3.72351e-11
-9.81094e-11
-9.17919e-11
-4.80068e-11
-4.79704e-11
-1.79726e-11
1.14998e-07
2.17168e-10
-1.14835e-07
1.15842e-10
-9.3106e-11
-6.32496e-11
-3.3208e-11
-9.85603e-11
-9.15983e-11
-5.03321e-11
-4.77679e-11
-2.91168e-11
-2.72889e-11
2.72021e-08
1.18871e-11
2.74592e-08
-2.7292e-08
-9.90641e-11
-9.80301e-11
1.1142e-10
1.1235e-07
-2.13881e-11
-1.51709e-11
-7.96054e-11
-1.31739e-10
-2.31638e-11
-2.50972e-11
-1.25868e-10
-8.90496e-11
2.32533e-10
1.20215e-10
1.1339e-07
-2.69281e-11
-2.76241e-11
-7.79892e-11
-1.11684e-10
-2.43829e-11
-4.49718e-11
-1.25175e-10
1.1284e-07
2.20841e-10
-1.12681e-07
1.08248e-10
-9.27966e-11
-7.72217e-11
-1.78973e-11
-1.97768e-11
-1.22358e-10
-1.77164e-11
-1.28248e-10
-2.49634e-11
1.13886e-07
2.20606e-10
-1.13725e-07
1.16222e-10
-8.56941e-11
-7.56969e-11
-2.34899e-11
-3.96908e-11
-1.21358e-10
-1.86832e-11
-1.08328e-10
2.31897e-10
1.2015e-10
1.13386e-07
-2.7134e-11
-2.74393e-11
-7.74957e-11
-1.11921e-10
-2.41079e-11
-1.25757e-10
-4.47043e-11
2.2057e-10
-1.12667e-07
1.07796e-10
-9.3465e-11
-7.6266e-11
-2.18248e-11
-1.96537e-11
-1.2239e-10
-1.281e-10
-1.50181e-11
-2.49082e-11
1.13883e-07
2.20098e-10
-1.13722e-07
1.16098e-10
-8.56861e-11
-7.52032e-11
-2.35676e-11
-3.94243e-11
-1.21869e-10
-1.83771e-11
-1.08541e-10
-2.22348e-11
-3.36702e-11
2.72078e-08
7.32183e-12
2.74625e-08
-2.72973e-08
-1.0697e-10
-9.04515e-11
2.27539e-10
1.09895e-10
1.13452e-07
-3.42585e-11
-9.62716e-12
-6.75103e-11
-7.52376e-11
-5.17784e-11
-9.62317e-11
-7.9237e-11
2.18547e-10
-1.13754e-07
1.05192e-10
-9.83797e-11
-6.47947e-11
-3.03577e-11
-7.40102e-11
-9.29794e-11
-7.19811e-11
-4.60131e-11
-6.81304e-12
1.13955e-07
2.19281e-10
-1.13792e-07
1.04809e-10
-9.90693e-11
-6.50016e-11
-3.06932e-11
-7.41419e-11
-9.25414e-11
-4.63376e-11
-7.18495e-11
-2.73026e-08
-1.08111e-10
-8.96036e-11
9.19919e-11
9.15999e-11
-2.28648e-11
-2.15942e-11
2.73178e-08
1.46523e-11
9.15397e-12
2.75561e-08
-2.73917e-08
-9.53663e-11
-9.27885e-11
1.13919e-10
1.15124e-07
-3.61442e-11
-1.73061e-11
-6.15479e-11
-4.62824e-11
-4.62434e-11
-9.64666e-11
-9.01487e-11
-9.21349e-11
2.12311e-10
1.13348e-10
1.15159e-07
-3.58634e-11
-1.68274e-11
-6.22199e-11
-4.61984e-11
-4.621e-11
-9.69167e-11
-8.99489e-11
1.15574e-07
2.04102e-10
-1.15429e-07
1.08822e-10
-8.86948e-11
-5.92516e-11
-3.27383e-11
-9.16309e-11
-8.71539e-11
-4.09221e-11
-4.32574e-11
-1.45652e-11
1.15607e-07
2.05618e-10
-1.15463e-07
1.095e-10
-8.90622e-11
-6.00321e-11
-3.25257e-11
-9.20994e-11
-8.67087e-11
-4.11531e-11
-4.3053e-11
-2.30912e-11
-2.12014e-11
2.73192e-08
8.6706e-12
2.75577e-08
-2.73929e-08
-9.44346e-11
-9.36192e-11
1.03773e-10
1.12992e-07
-1.64888e-11
-1.10884e-11
-7.5692e-11
-1.26619e-10
-1.58629e-11
-1.79192e-11
-1.20601e-10
-8.42826e-11
2.18733e-10
1.11615e-10
1.1404e-07
-2.18668e-11
-2.3255e-11
-7.40337e-11
-1.0666e-10
-1.67478e-11
-3.78452e-11
-1.19648e-10
1.13426e-07
2.07103e-10
-1.13284e-07
1.01821e-10
-8.88799e-11
-7.4263e-11
-1.36284e-11
-1.29675e-11
-1.17415e-10
-1.07219e-11
-1.235e-10
-2.15958e-11
1.14477e-07
2.07295e-10
-1.14334e-07
1.1007e-10
-8.1459e-11
-7.26394e-11
-1.89949e-11
-3.28635e-11
-1.16527e-10
-1.19084e-11
-1.0358e-10
2.18159e-10
1.11915e-10
1.14037e-07
-2.20403e-11
-2.32035e-11
-7.35646e-11
-1.06835e-10
-1.6385e-11
-1.19989e-10
-3.75922e-11
2.07295e-10
-1.13272e-07
1.02097e-10
-8.94243e-11
-7.34263e-11
-1.37683e-11
-1.27527e-11
-1.17498e-10
-1.23435e-10
-1.05911e-11
-2.135e-11
1.14474e-07
2.06676e-10
-1.14331e-07
1.09533e-10
-8.13921e-11
-7.19254e-11
-1.89435e-11
-3.28263e-11
-1.1704e-10
-1.15027e-11
-1.03908e-10
-1.59927e-11
-2.76453e-11
2.73244e-08
3.8504e-12
2.75615e-08
-2.73985e-08
-1.02346e-10
-8.60453e-11
2.14075e-10
1.02975e-10
1.14112e-07
-2.9564e-11
-5.64677e-12
-6.37732e-11
-7.01439e-11
-4.44117e-11
-9.06948e-11
-7.24327e-11
2.06221e-10
-1.14375e-07
9.85567e-11
-9.43594e-11
-6.15801e-11
-2.59386e-11
-6.74248e-11
-8.81983e-11
-6.72473e-11
-3.9149e-11
-3.31407e-12
1.14556e-07
2.06887e-10
-1.14412e-07
9.84132e-11
-9.50912e-11
-6.18633e-11
-2.64353e-11
-6.74901e-11
-8.7876e-11
-3.96313e-11
-6.71086e-11
-2.7404e-08
-1.03436e-10
-8.51342e-11
8.76319e-11
8.75232e-11
-1.69969e-11
-1.61529e-11
2.74141e-08
1.15676e-11
6.47642e-12
2.76364e-08
-2.74743e-08
-9.13131e-11
-8.88418e-11
1.05837e-10
1.15717e-07
-3.15471e-11
-1.35307e-11
-5.81512e-11
-4.17773e-11
-3.90825e-11
-9.00905e-11
-8.56149e-11
-8.80123e-11
2.00214e-10
1.06859e-10
1.15749e-07
-3.14262e-11
-1.35151e-11
-6.26626e-11
-4.13084e-11
-3.9431e-11
-9.03907e-11
-8.28703e-11
1.1611e-07
1.93621e-10
-1.15985e-07
1.03407e-10
-8.44565e-11
-5.62147e-11
-2.81078e-11
-8.54743e-11
-8.32633e-11
-3.46377e-11
-3.92248e-11
-1.1141e-11
1.16143e-07
1.93921e-10
-1.16017e-07
1.02889e-10
-8.45668e-11
-5.69485e-11
-2.41505e-11
-8.61156e-11
-8.27935e-11
-3.73276e-11
-3.89575e-11
-1.74381e-11
-1.58613e-11
2.74149e-08
5.72417e-12
2.76382e-08
-2.74754e-08
-9.03658e-11
-8.93234e-11
9.62285e-11
1.1356e-07
-1.22269e-11
-7.47038e-12
-7.26961e-11
-1.21909e-10
-8.962e-12
-1.10063e-11
-1.15658e-10
-8.00165e-11
2.06237e-10
1.0423e-10
1.14611e-07
-1.74345e-11
-1.97912e-11
-7.088e-11
-1.01887e-10
-9.75521e-12
-3.10194e-11
-1.14565e-10
1.13942e-07
1.94287e-10
-1.13817e-07
9.69631e-11
-8.5108e-11
-7.18366e-11
-9.53774e-12
-6.17069e-12
-1.13157e-10
-4.21643e-12
-1.19212e-10
-1.88103e-11
1.14997e-07
1.94344e-10
-1.14872e-07
1.04958e-10
-7.75584e-11
-7.01463e-11
-1.48509e-11
-2.6309e-11
-1.12398e-10
-5.27987e-12
-9.9504e-11
2.05921e-10
1.03858e-10
1.14609e-07
-1.74296e-11
-1.94985e-11
-7.01849e-11
-1.02049e-10
-9.70458e-12
-1.15376e-10
-3.07064e-11
1.94487e-10
-1.13799e-07
9.642e-11
-8.55358e-11
-7.06277e-11
-1.34442e-11
-6.12713e-12
-1.13235e-10
-1.19093e-10
-1.56572e-12
-1.86327e-11
1.14994e-07
1.93968e-10
-1.14869e-07
1.04529e-10
-7.74873e-11
-6.96473e-11
-1.5051e-11
-2.59499e-11
-1.12686e-10
-5.05016e-12
-9.94962e-11
-1.03505e-11
-2.23289e-11
2.74208e-08
9.58029e-13
2.76412e-08
-2.74806e-08
-9.8326e-11
-8.20697e-11
2.0129e-10
9.64444e-11
1.14696e-07
-2.52436e-11
-2.19303e-12
-6.07073e-11
-6.56743e-11
-3.78538e-11
-8.60952e-11
-6.59405e-11
1.95877e-10
-1.14922e-07
9.36947e-11
-9.04638e-11
-5.89827e-11
-2.18308e-11
-6.11721e-11
-8.40248e-11
-6.31861e-11
-3.2964e-11
-3.06894e-13
1.15086e-07
1.95649e-10
-1.14961e-07
9.27651e-11
-9.11949e-11
-5.91791e-11
-2.21275e-11
-6.12258e-11
-8.34967e-11
-3.315e-11
-6.29095e-11
-2.74868e-08
-9.92415e-11
-8.12693e-11
8.34347e-11
8.3511e-11
-1.16599e-11
-1.09409e-11
2.7492e-08
9.08865e-12
4.29835e-12
2.76991e-08
-2.75392e-08
-8.79859e-11
-8.5232e-11
1.00756e-10
1.16234e-07
-2.70079e-11
-1.07006e-11
-5.52171e-11
-3.76186e-11
-3.28797e-11
-8.38532e-11
-8.15138e-11
-8.35195e-11
1.88044e-10
1.00138e-10
1.16267e-07
-2.68961e-11
-1.02355e-11
-5.60816e-11
-3.72503e-11
-3.33351e-11
-8.42095e-11
-8.12499e-11
1.16572e-07
1.84331e-10
-1.16465e-07
9.82907e-11
-8.01497e-11
-5.42637e-11
-2.41319e-11
-7.90312e-11
-7.93505e-11
-2.82836e-11
-3.51724e-11
-8.96703e-12
1.16608e-07
1.83917e-10
-1.165e-07
9.8422e-11
-8.07864e-11
-5.49812e-11
-2.41152e-11
-7.93591e-11
-7.8723e-11
-2.85913e-11
-3.47911e-11
-1.22803e-11
-1.02233e-11
2.74932e-08
3.68585e-12
2.77003e-08
-2.754e-08
-8.68815e-11
-8.60843e-11
9.03197e-11
1.14057e-07
-7.98837e-12
-4.60131e-12
-6.99741e-11
-1.17542e-10
-2.38046e-12
-4.13579e-12
-1.11379e-10
-7.5773e-11
1.95848e-10
9.78277e-11
1.15113e-07
-1.31023e-11
-1.67828e-11
-6.80081e-11
-9.78526e-11
-3.42427e-12
-2.44723e-11
-1.10582e-10
1.14385e-07
1.80948e-10
-1.14277e-07
9.3e-11
-8.11752e-11
-6.9378e-11
-5.34457e-12
6.04175e-13
-1.08917e-10
2.53674e-12
-1.15407e-10
-1.62783e-11
1.15446e-07
1.81494e-10
-1.15337e-07
9.99303e-11
-7.31811e-11
-6.78991e-11
-1.06341e-11
-1.96515e-11
-1.08415e-10
1.26352e-12
-9.55809e-11
1.95177e-10
9.73564e-11
1.15111e-07
-1.34312e-11
-1.67328e-11
-6.77042e-11
-9.76392e-11
-2.99014e-12
-1.10782e-10
-2.39827e-11
1.82063e-10
-1.14262e-07
9.39482e-11
-8.17734e-11
-6.89129e-11
-5.84993e-12
4.44327e-13
-1.0961e-10
-1.15334e-10
2.15022e-12
-1.61023e-11
1.15444e-07
1.82043e-10
-1.15335e-07
1.00232e-10
-7.33847e-11
-6.7532e-11
-1.09237e-11
-1.95529e-11
-1.09188e-10
1.08347e-12
-9.57524e-11
-5.03548e-12
-1.71834e-11
2.74981e-08
-1.56841e-12
2.77043e-08
-2.75457e-08
-9.48124e-11
-7.84843e-11
1.89174e-10
9.04796e-11
1.1521e-07
-2.11608e-11
5.85555e-13
-5.81103e-11
-6.13115e-11
-3.14184e-11
-8.19574e-11
-5.94215e-11
1.84549e-10
-1.15399e-07
8.85602e-11
-8.63338e-11
-5.68202e-11
-1.76691e-11
-5.48752e-11
-8.01662e-11
-5.93676e-11
-2.67618e-11
2.13516e-12
1.1555e-07
1.84199e-10
-1.15442e-07
8.8328e-11
-8.74103e-11
-5.68266e-11
-1.82641e-11
-5.47875e-11
-7.97308e-11
-2.68299e-11
-5.90453e-11
-2.75508e-08
-9.58639e-11
-7.76269e-11
7.90192e-11
7.92476e-11
-6.53119e-12
-5.36968e-12
2.75527e-08
7.21001e-12
2.29864e-12
2.77407e-08
-2.75845e-08
-8.37686e-11
-8.1956e-11
9.54814e-11
1.16677e-07
-2.31211e-11
-8.22212e-12
-5.3479e-11
-3.33157e-11
-2.64107e-11
-7.70326e-11
-7.76409e-11
-7.95135e-11
1.76537e-10
9.5682e-11
1.16716e-07
-2.28611e-11
-7.86665e-12
-5.76016e-11
-3.31413e-11
-2.65797e-11
-7.75915e-11
-7.47684e-11
1.16959e-07
1.70587e-10
-1.16872e-07
9.42463e-11
-7.593e-11
-5.23833e-11
-1.99417e-11
-7.11823e-11
-7.4693e-11
-2.09003e-11
-3.00037e-11
-6.04967e-12
1.16996e-07
1.71716e-10
-1.1691e-07
9.34793e-11
-7.58153e-11
-5.28505e-11
-1.60321e-11
-7.14488e-11
-7.46091e-11
-2.40467e-11
-3.02256e-11
-7.01933e-12
-5.21363e-12
2.7553e-08
1.35743e-12
2.77436e-08
-2.7586e-08
-8.29359e-11
-8.19796e-11
8.39275e-11
1.14481e-07
-3.48859e-12
-1.98486e-12
-6.72254e-11
-1.13152e-10
4.57536e-12
2.98581e-12
-1.07259e-10
-7.11658e-11
1.84536e-10
9.05938e-11
1.15544e-07
-8.83383e-12
-1.36991e-11
-6.55734e-11
-9.32544e-11
3.15333e-12
-1.72746e-11
-1.06669e-10
1.14755e-07
1.67359e-10
-1.14666e-07
9.09078e-11
-7.69034e-11
-6.80867e-11
-1.67051e-12
8.49476e-12
-1.05185e-10
9.20113e-12
-1.10937e-10
-1.42418e-11
1.15823e-07
1.67176e-10
-1.15732e-07
9.60423e-11
-6.88339e-11
-6.60847e-11
-6.58219e-12
-1.15484e-11
-1.04007e-10
8.40954e-12
-9.08854e-11
1.84966e-10
9.14278e-11
1.15542e-07
-9.2872e-12
-1.36479e-11
-6.52503e-11
-9.36086e-11
3.28915e-12
-1.06949e-10
-1.71347e-11
1.66415e-10
-1.14646e-07
8.96083e-11
-7.77274e-11
-6.70042e-11
-5.7774e-12
8.69012e-12
-1.05378e-10
-1.10211e-10
1.16897e-11
-1.38558e-11