/*--------------------------------*- C++ -*----------------------------------*\
| =========                 |                                                 |
| \\      /  F ield         | OpenFOAM: The Open Source CFD Toolbox           |
|  \\    /   O peration     | Version:  2206                                  |
|   \\  /    A nd           | Website:  www.openfoam.com                      |
|    \\/     M anipulation  |                                                 |
\*---------------------------------------------------------------------------*/
FoamFile
{
    version     2.0;
    format      ascii;
    arch        "LSB;label=32;scalar=64";
    class       volVectorField;
    location    "120";
    object      U;
}
// * * * * * * * * * * * * * * * * * * * * * * * * * * * * * * * * * * * * * //

dimensions      [0 1 -1 0 0 0 0];

internalField   nonuniform List<vector> 
66616
(
(0.000431569 0.000429637 0.128282)
(-0.000719039 0.000385118 0.12354)
(0.000385245 -0.000719417 0.123539)
(-0.000991461 -0.00100005 0.120965)
(0.000358235 0.000348336 0.131517)
(-0.000611103 0.00033931 0.127335)
(0.000340121 -0.00060898 0.127496)
(-0.000812307 -0.00082124 0.124791)
(0.000233535 0.000226852 0.133134)
(-0.000398002 0.000235525 0.128821)
(0.000236687 -0.000396795 0.128994)
(-0.000592946 -0.000597555 0.126021)
(0.000204072 0.000198089 0.134397)
(-0.0003448 0.000206099 0.12995)
(0.000207828 -0.000342646 0.130133)
(-0.000527889 -0.000529897 0.126918)
(0.000190904 0.000185029 0.135546)
(-0.000317296 0.000188712 0.130938)
(0.00019138 -0.000315394 0.131133)
(-0.00049481 -0.000495858 0.1277)
(0.000180103 0.000174242 0.13661)
(-0.000294777 0.000174932 0.131814)
(0.00017786 -0.000293081 0.132017)
(-0.000468812 -0.00046966 0.128372)
(0.000171474 0.000164764 0.137603)
(-0.000274813 0.000161929 0.132591)
(0.000166194 -0.000273889 0.132799)
(-0.000446096 -0.000446822 0.128934)
(0.000163313 0.000155106 0.138532)
(-0.000256932 0.000150969 0.133281)
(0.000155728 -0.000257006 0.133492)
(-0.000425549 -0.000426137 0.129399)
(0.000157475 0.000146954 0.1394)
(-0.000240056 0.00013823 0.133894)
(0.00014695 -0.000240738 0.134099)
(-0.000404915 -0.000407064 0.129774)
(0.000150936 0.000138523 0.140209)
(-0.000223214 0.000129945 0.134437)
(0.000137827 -0.000224305 0.134628)
(-0.000383722 -0.000385529 0.13006)
(0.000143726 0.000125395 0.140954)
(-0.000204022 0.000120108 0.134909)
(0.000131602 -0.000206012 0.135066)
(-0.000358584 -0.000361235 0.130247)
(0.00012669 0.000112095 0.141612)
(-0.000181384 0.000112666 0.135305)
(0.000121583 -0.000182947 0.135394)
(-0.000324592 -0.000329488 0.130275)
(0.000154284 0.000155957 0.120449)
(0.000416571 0.000378335 0.123607)
(-0.000417002 0.000378594 0.123605)
(-0.00015395 0.000156146 0.120449)
(0.0003812 0.000420441 0.123579)
(0.000378201 -0.000417371 0.123605)
(0.000271176 0.000272201 0.12751)
(-0.00027125 0.000272466 0.12751)
(0.000272427 -0.000272092 0.127508)
(-0.000272345 -0.000272315 0.127508)
(-0.000380886 0.000420683 0.123577)
(-0.000377722 -0.000418004 0.123603)
(0.000155543 -0.000154615 0.120446)
(0.000420618 -0.000381513 0.123572)
(-0.000421331 -0.000381665 0.12357)
(-0.000155082 -0.000154991 0.120437)
(0.00100019 0.00099265 0.120975)
(0.000345815 0.000336689 0.124477)
(0.000391461 0.000721504 0.123524)
(-0.000390964 0.000721651 0.123522)
(0.000392883 0.000712292 0.126938)
(-0.000392008 0.000713126 0.126936)
(-0.00100017 0.000991557 0.120972)
(-0.00034642 0.000335262 0.124477)
(0.00071949 0.000384354 0.12354)
(0.000721366 -0.000390882 0.123517)
(0.000715282 0.000384737 0.126773)
(0.000715666 -0.000390938 0.126773)
(-0.000720872 -0.00039125 0.123515)
(-0.000715387 0.000385135 0.12677)
(-0.000715283 -0.000391743 0.12677)
(0.000991493 -0.00100078 0.120969)
(0.000337998 -0.000343568 0.124472)
(-0.000384533 -0.000719486 0.123536)
(0.000385531 -0.000713662 0.126928)
(-0.000385299 -0.000713941 0.126928)
(-0.000338554 -0.000342257 0.124466)
(0.000819769 0.000815247 0.1248)
(0.000176695 0.00017165 0.125813)
(0.000346183 0.000608161 0.127503)
(-0.000345116 0.00060802 0.127502)
(0.000254975 0.000424049 0.128674)
(-0.000254776 0.00042515 0.128674)
(-0.000819506 0.000814442 0.124798)
(-0.000176181 0.000171775 0.125814)
(0.000611684 0.000338572 0.127337)
(0.000610851 -0.000343589 0.127336)
(0.000426857 0.000250025 0.128497)
(0.000426762 -0.000253504 0.128495)
(-0.000610356 -0.000344074 0.127334)
(-0.000426848 0.000249729 0.128492)
(-0.000426393 -0.000253767 0.128491)
(0.00081281 -0.000821345 0.124795)
(0.000173495 -0.000174483 0.125809)
(-0.00033927 -0.000609019 0.127495)
(0.000250312 -0.000425956 0.128668)
(-0.000250385 -0.000426387 0.12867)
(-0.000173394 -0.000174327 0.125805)
(0.000596957 0.000593901 0.126029)
(0.000111313 0.000105891 0.126719)
(0.000240789 0.000395671 0.128998)
(-0.000240284 0.000396029 0.128998)
(0.000216563 0.000351641 0.129861)
(-0.000216376 0.000352796 0.129862)
(-0.000595763 0.0005945 0.126028)
(-0.000111436 0.000105583 0.12672)
(0.000398733 0.000235472 0.128824)
(0.000397882 -0.000238295 0.128823)
(0.000355336 0.000212509 0.129673)
(0.00035538 -0.00021514 0.129671)
(-0.000397311 -0.000238508 0.128819)
(-0.00035521 0.00021248 0.129668)
(-0.000354715 -0.000215337 0.129666)
(0.00059375 -0.000596753 0.126025)
(0.000109407 -0.000108198 0.126714)
(-0.000236226 -0.000397075 0.128995)
(0.000213011 -0.000353176 0.129858)
(-0.000212992 -0.000353895 0.12986)
(-0.000109301 -0.000107706 0.126711)
(0.000530916 0.000527078 0.126924)
(7.86314e-05 7.33947e-05 0.127504)
(0.000210885 0.000341881 0.130135)
(-0.000210429 0.000342242 0.130137)
(0.00019799 0.000322037 0.130887)
(-0.000197796 0.000323444 0.130888)
(-0.000530229 0.000526913 0.126924)
(-7.81684e-05 7.32364e-05 0.127506)
(0.000345724 0.000205821 0.129954)
(0.000344964 -0.000208063 0.129952)
(0.000325702 0.000194955 0.130685)
(0.00032579 -0.000196838 0.130683)
(-0.000344063 -0.000208177 0.129948)
(-0.000325248 0.000194432 0.130679)
(-0.000325113 -0.000197249 0.130678)
(0.000528556 -0.000529308 0.12692)
(7.6586e-05 -7.51425e-05 0.1275)
(-0.000207274 -0.00034316 0.130136)
(0.000195078 -0.000323125 0.130885)
(-0.000195191 -0.000323689 0.130888)
(-7.70492e-05 -7.46318e-05 0.127496)
(0.000497312 0.000493467 0.127706)
(5.54416e-05 5.06771e-05 0.128176)
(0.000193772 0.000314998 0.131132)
(-0.000193386 0.000315568 0.131134)
(0.000183834 0.000299795 0.131795)
(-0.000183733 0.000301173 0.131797)
(-0.000496479 0.000493945 0.127708)
(-5.53532e-05 5.03084e-05 0.128181)
(0.000318373 0.000188833 0.130942)
(0.00031773 -0.000190615 0.130941)
(0.000302616 0.000181666 0.131575)
(0.000302791 -0.000183137 0.131575)
(-0.000316843 -0.000190718 0.130938)
(-0.000302237 0.000181504 0.131569)
(-0.000302349 -0.000183377 0.13157)
(0.000494961 -0.00049545 0.127704)
(5.33311e-05 -5.22122e-05 0.128174)
(-0.000190977 -0.000315618 0.131135)
(0.000181415 -0.000300367 0.131794)
(-0.000181236 -0.000301073 0.131797)
(-5.35695e-05 -5.14265e-05 0.128171)
(0.000471058 0.000467488 0.128375)
(3.60458e-05 3.18424e-05 0.12874)
(0.000179869 0.000293061 0.132015)
(-0.000179719 0.000293697 0.13202)
(0.000172053 0.00028101 0.132598)
(-0.000171693 0.000282509 0.1326)
(-0.000470756 0.000467843 0.128378)
(-3.60627e-05 3.17377e-05 0.128746)
(0.000295723 0.000174833 0.131817)
(0.000295187 -0.000175871 0.131818)
(0.000282833 0.000170776 0.132357)
(0.000283014 -0.000171759 0.132358)
(-0.000294597 -0.000176182 0.131816)
(-0.000282413 0.000169925 0.132352)
(-0.000282292 -0.000171945 0.132355)
(0.000468814 -0.000469306 0.128374)
(3.44802e-05 -3.33057e-05 0.128738)
(-0.000177252 -0.000293543 0.13202)
(0.00016965 -0.00028117 0.132598)
(-0.000169543 -0.000281788 0.132601)
(-3.49816e-05 -3.27109e-05 0.128737)
(0.000448735 0.000445538 0.128935)
(1.97685e-05 1.62761e-05 0.129206)
(0.000168591 0.000274747 0.132798)
(-0.000168178 0.000275656 0.132803)
(0.000161699 0.000264163 0.133311)
(-0.000161732 0.000265248 0.133312)
(-0.000447725 0.000445452 0.128942)
(-2.1222e-05 1.6661e-05 0.129211)
(0.000276266 0.0001623 0.132593)
(0.000275382 -0.000163232 0.132595)
(0.000265459 0.000161713 0.133042)
(0.000265793 -0.000162665 0.133043)
(-0.000274597 -0.000163284 0.132596)
(-0.000265104 0.000161698 0.133037)
(-0.000265424 -0.000162377 0.133039)
(0.000445978 -0.000446271 0.128935)
(1.87991e-05 -1.83657e-05 0.129205)
(-0.000166105 -0.00027464 0.132803)
(0.00015956 -0.000264047 0.133308)
(-0.000159684 -0.000265157 0.13331)
(-1.92507e-05 -1.68591e-05 0.129205)
(0.000427173 0.000424953 0.1294)
(6.59647e-06 3.97671e-06 0.129587)
(0.000157789 0.00025738 0.133493)
(-0.000157925 0.000257622 0.133497)
(0.000152414 0.000248515 0.133938)
(-0.000152366 0.000249792 0.133937)
(-0.000427203 0.000424504 0.129402)
(-6.4216e-06 3.51672e-06 0.129591)
(0.000258167 0.000150785 0.133284)
(0.000257282 -0.000151431 0.133285)
(0.000248705 0.000153948 0.133637)
(0.000249559 -0.000155812 0.133638)
(-0.000257171 -0.000151093 0.133287)
(-0.000248949 0.00015299 0.133627)
(-0.000248906 -0.000155534 0.133634)
(0.00042451 -0.00042606 0.129398)
(6.05407e-06 -5.45427e-06 0.129582)
(-0.000155743 -0.000257482 0.133495)
(0.000150897 -0.000248557 0.133932)
(-0.000150553 -0.000248635 0.133935)
(-5.74495e-06 -4.50867e-06 0.129585)
(0.000406212 0.000405003 0.129773)
(-3.35595e-06 -5.53706e-06 0.129889)
(0.000148708 0.000241875 0.134103)
(-0.000147651 0.000241817 0.134109)
(0.000144022 0.000234833 0.134479)
(-0.00014484 0.00023466 0.134482)
(-0.000404725 0.000404729 0.129779)
(2.45954e-06 -6.45318e-06 0.129889)
(0.000240759 0.000139568 0.133901)
(0.00024102 -0.000140955 0.133902)
(0.000232047 0.000146944 0.134136)
(0.000233656 -0.000148564 0.134139)
(-0.000239874 -0.000141153 0.133904)
(-0.000233721 0.000148742 0.134129)
(-0.000234429 -0.000149226 0.134136)
(0.000404226 -0.000405502 0.129769)
(-4.28885e-06 5.57947e-06 0.129886)
(-0.000146277 -0.00024 0.134105)
(0.000141809 -0.000233076 0.134476)
(-0.000142202 -0.000232345 0.134483)
(4.2467e-06 6.91239e-06 0.129882)
(0.000383602 0.000383588 0.130059)
(-1.14493e-05 -1.63971e-05 0.130109)
(0.000140167 0.000226518 0.134628)
(-0.000140043 0.000225768 0.134639)
(0.00013821 0.000216266 0.134937)
(-0.000137493 0.000217725 0.134939)
(-0.00038409 0.000383521 0.130063)
(1.49839e-05 -1.7612e-05 0.130108)
(0.000223128 0.000128305 0.134444)
(0.000224052 -0.000129731 0.134446)
(0.000216421 0.000143686 0.134537)
(0.00021682 -0.000143386 0.134544)
(-0.000223664 -0.000130623 0.13445)
(-0.000216407 0.000142368 0.134526)
(-0.000216743 -0.00014262 0.134541)
(0.00038204 -0.000383412 0.130057)
(-1.39672e-05 1.5158e-05 0.130112)
(-0.000138304 -0.00022378 0.134638)
(0.00013579 -0.000214823 0.134937)
(-0.00013533 -0.000216533 0.134948)
(1.42453e-05 1.69765e-05 0.130104)
(0.000358042 0.000358228 0.13023)
(-2.67878e-05 -2.9333e-05 0.130244)
(0.000132871 0.000207283 0.135065)
(-0.000131922 0.000207323 0.135078)
(0.000127784 0.000191374 0.135298)
(-0.000130011 0.000195352 0.1353)
(-0.000357886 0.000359653 0.130251)
(2.66524e-05 -3.06507e-05 0.13023)
(0.000205388 0.000120824 0.134916)
(0.000205001 -0.000120692 0.134922)
(0.000192247 0.000133871 0.134805)
(0.000194103 -0.000134604 0.134816)
(-0.0002039 -0.0001198 0.134929)
(-0.00018921 0.000131502 0.134806)
(-0.000191417 -0.000133595 0.134816)
(0.000355605 -0.000358948 0.130234)
(-2.5888e-05 2.82399e-05 0.130252)
(-0.000130009 -0.000206511 0.135079)
(0.000126842 -0.000191012 0.135296)
(-0.000128055 -0.000194322 0.135305)
(3.07344e-05 3.22418e-05 0.130226)
(0.000321772 0.000326169 0.130236)
(0.000122643 0.000182548 0.135392)
(-0.000123256 0.00018489 0.135411)
(-0.000326662 0.000330417 0.130275)
(0.000184742 0.00011468 0.135308)
(0.000184845 -0.000115011 0.135314)
(-0.000181919 -0.000113243 0.135324)
(0.000322033 -0.000326766 0.130244)
(-0.000120821 -0.000184749 0.135399)
(1.23791e-05 1.23103e-05 0.132079)
(0.000197926 0.000198238 0.1253)
(1.35054e-05 0.000182802 0.128885)
(0.000184017 1.3964e-05 0.128879)
(-0.000452267 2.65231e-05 0.110908)
(-0.00018511 0.000220232 0.122992)
(-0.000361888 0.000277107 0.0857312)
(-0.000199763 1.27228e-05 0.127236)
(2.58999e-05 -0.000451343 0.110911)
(0.000220039 -0.0001855 0.122987)
(1.2537e-05 -0.0001992 0.127231)
(0.000276425 -0.000362529 0.0857316)
(-0.000182297 -0.000179378 0.119537)
(-0.000245267 -0.000428802 0.0763598)
(-0.000427528 -0.000245045 0.0763669)
(5.8283e-05 0.00132511 0.10572)
(0.000944786 -0.000538028 0.0696838)
(0.000124589 0.00103947 0.102449)
(-4.28717e-05 0.000681343 0.0814531)
(-0.000397053 -0.000104906 0.0679375)
(0.000513953 0.000741879 0.0722513)
(0.00132701 6.00558e-05 0.10558)
(-0.000545684 0.000946699 0.0697807)
(0.00103573 0.000120013 0.102565)
(0.000682148 -3.90836e-05 0.081379)
(-0.000431584 0.000429842 0.12828)
(0.000430285 -0.000430551 0.128279)
(-0.000430164 -0.000430747 0.12828)
(0.000418512 0.000409382 0.130935)
(-0.000418926 0.000409815 0.130936)
(0.000411734 -0.000417519 0.130934)
(-0.000411511 -0.000417314 0.130934)
(-0.00131862 5.19973e-05 0.11697)
(-0.000958073 0.00059989 0.101357)
(-0.000708581 0.000144498 0.126058)
(-0.000805895 0.000409854 0.124882)
(-0.00117342 0.000114596 0.114046)
(-0.00127505 0.000210086 0.106938)
(-0.000802098 0.000185354 0.127262)
(-0.000109581 -0.000398838 0.0680036)
(0.000742159 0.00051055 0.072226)
(5.14452e-05 -0.00131468 0.117037)
(0.000144175 -0.000707183 0.126046)
(0.000601897 -0.000962346 0.10129)
(0.000408699 -0.000805471 0.124873)
(0.000117072 -0.00117757 0.113962)
(0.000185651 -0.000802396 0.127268)
(0.000205559 -0.001274 0.107013)
(-0.000616351 -0.000547998 0.0899111)
(-0.000548931 -0.000618193 0.0898984)
(-0.000304976 -0.000312862 0.122841)
(-0.000897124 -1.51252e-05 0.0934327)
(-8.84459e-06 -0.000902541 0.0934607)
(-1.11912e-05 0.000625891 0.106482)
(0.000128593 0.000471855 0.0813477)
(-7.92065e-06 0.00101254 0.106941)
(0.000107562 0.000210306 0.0806272)
(-5.37838e-05 0.000438618 0.0703827)
(-8.18148e-05 0.00018709 0.0695392)
(0.000625342 -1.04528e-05 0.105606)
(0.000469163 0.000116695 0.0811434)
(0.00101046 -9.83119e-06 0.106614)
(0.000207884 0.000110092 0.0802263)
(-0.00035758 0.000348174 0.131518)
(0.000352192 -0.000353748 0.131515)
(-0.000351845 -0.000353866 0.131516)
(0.000248166 0.000242212 0.132773)
(-0.000248461 0.000242676 0.132774)
(0.000244635 -0.000246145 0.132773)
(-0.000244399 -0.000245969 0.132773)
(-0.000618897 5.04612e-06 0.118817)
(-0.000841244 0.000237988 0.107719)
(-0.00059326 0.00012755 0.129621)
(-0.000527125 0.000299339 0.127772)
(-0.000959089 9.27781e-06 0.119065)
(-0.00051522 0.000119286 0.10696)
(-0.00050936 0.000107878 0.130071)
(0.00043626 -4.42648e-05 0.0703103)
(0.000185879 -8.49491e-05 0.0693568)
(4.83937e-06 -0.000618078 0.119538)
(0.000127727 -0.000587047 0.129899)
(0.000243827 -0.000840688 0.108017)
(0.000300111 -0.000525914 0.12794)
(1.19343e-05 -0.000956322 0.119362)
(0.000109066 -0.000504787 0.130355)
(0.000112939 -0.000520773 0.107523)
(-0.000600956 -0.000230672 0.0945271)
(-0.000238208 -0.000600073 0.0947078)
(-0.000240008 -0.000242542 0.125253)
(-0.000361598 -0.000150702 0.0938434)
(-0.000144442 -0.000365815 0.0941807)
(1.7196e-06 0.000380965 0.105175)
(0.000111552 0.000196344 0.0794294)
(-1.69547e-06 0.000559204 0.105739)
(8.16911e-05 8.82487e-05 0.0788217)
(-0.000108019 0.000110241 0.0683818)
(-7.81107e-05 6.07006e-05 0.0678176)
(0.000382784 2.4331e-06 0.104194)
(0.000191919 0.000103028 0.0791926)
(0.000549527 -3.9483e-06 0.105204)
(9.01575e-05 8.54811e-05 0.0783889)
(-0.000233085 0.000227004 0.133134)
(0.000229853 -0.000229611 0.133133)
(-0.000229534 -0.000229747 0.133133)
(0.000207224 0.000202687 0.134081)
(-0.000207708 0.000203463 0.134082)
(0.00020476 -0.000205958 0.134081)
(-0.000204279 -0.000205748 0.134081)
(-0.000426129 1.12354e-05 0.118964)
(-0.000444694 0.000168745 0.106636)
(-0.000383072 7.88883e-05 0.131172)
(-0.000378809 0.000225935 0.12911)
(-0.0005861 5.74592e-06 0.119431)
(-0.000315646 0.000107281 0.105885)
(-0.000365731 7.38965e-05 0.131475)
(0.000109151 -0.000100498 0.0683004)
(6.2959e-05 -8.08174e-05 0.0676177)
(1.05293e-05 -0.00042248 0.119779)
(8.05633e-05 -0.000378762 0.131453)
(0.000176775 -0.000445579 0.106963)
(0.000226399 -0.000377336 0.129293)
(7.9598e-06 -0.000583274 0.119818)
(7.54436e-05 -0.000360593 0.131769)
(0.000101313 -0.000317944 0.106496)
(-0.000264387 -0.000183886 0.0932529)
(-0.000193655 -0.00026226 0.0934567)
(-0.000133288 -0.000132755 0.126277)
(-0.00020211 -0.000129135 0.0924283)
(-0.000124571 -0.000202515 0.0927948)
(7.45343e-06 0.000288858 0.103978)
(8.31267e-05 0.000157151 0.0778606)
(6.88795e-06 0.000437947 0.104511)
(5.66684e-05 6.83766e-05 0.0773585)
(-9.04997e-05 8.32448e-05 0.0669416)
(-6.19202e-05 4.87555e-05 0.0664652)
(0.000292336 7.98768e-06 0.102914)
(0.000155424 7.32953e-05 0.0775986)
(0.000429227 4.32966e-06 0.103913)
(7.23699e-05 6.02287e-05 0.0768969)
(-0.000203726 0.000198239 0.134397)
(0.000201337 -0.000200502 0.134397)
(-0.000200738 -0.000200482 0.134397)
(0.00019129 0.000188006 0.135249)
(-0.000191444 0.000188608 0.135249)
(0.000188944 -0.0001908 0.13525)
(-0.000188662 -0.000190673 0.13525)
(-0.000361773 1.54642e-05 0.118951)
(-0.00035193 0.00016766 0.105651)
(-0.000337555 6.60459e-05 0.132381)
(-0.000337651 0.000202455 0.130191)
(-0.000499127 1.21131e-05 0.119525)
(-0.000250458 0.000103208 0.104899)
(-0.000332055 6.37063e-05 0.132639)
(8.42099e-05 -8.11056e-05 0.0668422)
(5.35491e-05 -6.3215e-05 0.0662457)
(1.47004e-05 -0.000358577 0.119852)
(6.74679e-05 -0.000332706 0.132666)
(0.000177968 -0.000351571 0.106005)
(0.000202983 -0.000335268 0.130389)
(1.45191e-05 -0.000496062 0.119956)
(6.51368e-05 -0.000327765 0.132943)
(9.9347e-05 -0.000251453 0.105549)
(-0.000203324 -0.00016282 0.091796)
(-0.000175328 -0.000199451 0.0920167)
(-9.01294e-05 -8.79582e-05 0.127118)
(-0.000162758 -0.000108666 0.0909617)
(-0.000105695 -0.000161933 0.0913497)
(8.77679e-06 0.000228525 0.102884)
(6.31251e-05 0.000142904 0.076562)
(9.48924e-06 0.000367483 0.10339)
(3.9921e-05 5.83706e-05 0.0761224)
(-7.36838e-05 7.69382e-05 0.0657245)
(-4.50369e-05 4.59554e-05 0.0653055)
(0.000232998 9.66817e-06 0.101761)
(0.000141077 5.37303e-05 0.076278)
(0.000358637 6.88825e-06 0.102742)
(6.23064e-05 4.45056e-05 0.0756386)
(-0.00019034 0.000185054 0.135546)
(0.000188088 -0.00018693 0.135546)
(-0.000187892 -0.000187028 0.135547)
(0.000179261 0.000177406 0.136328)
(-0.000179428 0.0001779 0.136329)
(0.000177402 -0.000179743 0.136331)
(-0.000176756 -0.000179722 0.13633)
(-0.000314233 1.6046e-05 0.118821)
(-0.000301455 0.000154319 0.104725)
(-0.000315982 5.94405e-05 0.13347)
(-0.000312286 0.000187572 0.13114)
(-0.000445622 1.39686e-05 0.119485)
(-0.000209448 9.0292e-05 0.103969)
(-0.000312398 5.77896e-05 0.133691)
(7.78878e-05 -6.42138e-05 0.0656047)
(4.89967e-05 -4.84723e-05 0.0650638)
(1.48229e-05 -0.000311939 0.119805)
(6.04163e-05 -0.000311333 0.133757)
(0.000166977 -0.000301149 0.105104)
(0.000187953 -0.000310183 0.131356)
(1.58872e-05 -0.00044399 0.119965)
(5.87136e-05 -0.00030773 0.134009)
(8.65347e-05 -0.000210082 0.104654)
(-0.000175091 -0.000138282 0.0904036)
(-0.000151618 -0.00017117 0.0906378)
(-6.36656e-05 -6.14828e-05 0.127848)
(-0.000139543 -8.68074e-05 0.0896018)
(-8.35914e-05 -0.000139112 0.0900066)
(8.85528e-06 0.000184513 0.101881)
(4.88081e-05 0.000130673 0.0754352)
(9.84024e-06 0.000315574 0.102364)
(2.86053e-05 4.86236e-05 0.075038)
(-5.77381e-05 7.18182e-05 0.0646684)
(-3.29129e-05 4.05219e-05 0.0642921)
(0.000188778 9.93937e-06 0.100715)
(0.000127473 4.0865e-05 0.075136)
(0.000305456 8.18009e-06 0.101678)
(5.24617e-05 3.43551e-05 0.0745392)
(-0.000179725 0.000174425 0.136611)
(0.000177962 -0.000175769 0.136612)
(-0.000177448 -0.00017592 0.136613)
(0.000168052 0.000167794 0.13733)
(-0.000167967 0.000167943 0.137331)
(0.000166307 -0.000169804 0.137335)
(-0.000166188 -0.000170532 0.137332)
(-0.000274707 1.5317e-05 0.118597)
(-0.000263121 0.000137042 0.103847)
(-0.000297802 5.46573e-05 0.134469)
(-0.000291138 0.000175628 0.131975)
(-0.000400047 1.39646e-05 0.119332)
(-0.000178935 7.52567e-05 0.103089)
(-0.000295664 5.34004e-05 0.134649)
(7.10609e-05 -5.04192e-05 0.0645345)
(4.35422e-05 -3.68951e-05 0.0640404)
(1.47601e-05 -0.00027289 0.119656)
(5.52438e-05 -0.000293895 0.134761)
(0.000149275 -0.000263779 0.104249)
(0.000175099 -0.000289263 0.13221)
(1.56554e-05 -0.000400548 0.119861)
(5.39038e-05 -0.000291672 0.134988)
(7.0842e-05 -0.000179186 0.103802)
(-0.000152718 -0.000115948 0.0891454)
(-0.000128658 -0.000149792 0.0893898)
(-4.27432e-05 -4.04943e-05 0.128468)
(-0.000120935 -6.85499e-05 0.0883852)
(-6.39807e-05 -0.000120841 0.0888004)
(9.39898e-06 0.000151598 0.100966)
(3.94283e-05 0.000119144 0.0744401)
(9.04824e-06 0.000275203 0.101424)
(1.99903e-05 4.18344e-05 0.074078)
(-4.86614e-05 6.47029e-05 0.0637458)
(-2.44931e-05 3.73392e-05 0.0634063)
(0.000156694 9.40524e-06 0.0997669)
(0.000116287 3.19196e-05 0.0741296)
(0.000265314 7.79724e-06 0.100711)
(4.49391e-05 2.7433e-05 0.0735723)
(-0.000170807 0.000164397 0.137605)
(0.000169381 -0.000166318 0.137606)
(-0.000168817 -0.000166472 0.137605)
(0.000157529 0.000159065 0.138265)
(-0.00015823 0.000160588 0.138266)
(0.000156548 -0.00016156 0.138271)
(-0.000155917 -0.000161695 0.138267)
(-0.000241388 1.47308e-05 0.118306)
(-0.000233101 0.000120868 0.103014)
(-0.000282321 5.07231e-05 0.135389)
(-0.000272518 0.000165643 0.132708)
(-0.000360723 1.29199e-05 0.119095)
(-0.000154896 6.2394e-05 0.10226)
(-0.000281788 4.9659e-05 0.13552)
(6.4164e-05 -4.02283e-05 0.0636031)
(3.91628e-05 -2.9747e-05 0.0631487)
(1.34271e-05 -0.000239522 0.119428)
(5.1187e-05 -0.000280024 0.135685)
(0.000133899 -0.000234312 0.103434)
(0.000164419 -0.000271009 0.132966)
(1.51245e-05 -0.000363389 0.119669)
(5.03919e-05 -0.000278665 0.135888)
(5.83132e-05 -0.000154794 0.102996)
(-0.000133771 -9.83722e-05 0.0880262)
(-0.000110732 -0.000132004 0.0882765)
(-2.55729e-05 -2.32937e-05 0.128982)
(-0.000104283 -5.55245e-05 0.0873059)
(-4.93116e-05 -0.000105216 0.0877286)
(8.05824e-06 0.000124833 0.10014)
(3.512e-05 0.00010847 0.0735476)
(8.42784e-06 0.00024395 0.100567)
(1.68465e-05 3.47865e-05 0.07322)
(-4.05408e-05 5.95986e-05 0.0629295)
(-1.99436e-05 3.1233e-05 0.0626205)
(0.000130717 9.40936e-06 0.0989215)
(0.000104507 2.79102e-05 0.0732314)
(0.000233161 7.66397e-06 0.0998263)
(3.68859e-05 2.42113e-05 0.0727083)
(-0.000164106 0.000156561 0.138535)
(0.000161547 -0.000157023 0.138534)
(-0.000161392 -0.000157244 0.138535)
(0.00014825 0.000152582 0.139139)
(-0.000148481 0.000152413 0.139137)
(0.0001466 -0.000155249 0.139144)
(-0.000146044 -0.000154481 0.139138)
(-0.000212565 1.40419e-05 0.117982)
(-0.00020777 0.000107634 0.102231)
(-0.000266568 4.73824e-05 0.136242)
(-0.000255859 0.000157732 0.133345)
(-0.000326193 1.2586e-05 0.118799)
(-0.000134527 5.28397e-05 0.101489)
(-0.000268649 4.6735e-05 0.136311)
(5.68094e-05 -3.47915e-05 0.0627875)
(3.36063e-05 -2.58556e-05 0.0623668)
(1.30106e-05 -0.000211193 0.119161)
(4.72672e-05 -0.000266223 0.136537)
(0.00011955 -0.000209568 0.102666)
(0.000154726 -0.000255581 0.133632)
(1.52586e-05 -0.000329942 0.119421)
(4.72896e-05 -0.000266244 0.136713)
(4.77516e-05 -0.0001343 0.102241)
(-0.000117269 -8.594e-05 0.0870293)
(-9.76523e-05 -0.000117189 0.0872858)
(-1.16287e-05 -9.11119e-06 0.129406)
(-9.19812e-05 -4.63012e-05 0.0863484)
(-4.01419e-05 -9.19672e-05 0.0867716)
(8.03167e-06 0.000101243 0.0993955)
(3.14477e-05 9.75471e-05 0.0727618)
(8.50783e-06 0.000215075 0.0997864)
(1.71568e-05 2.52318e-05 0.0724791)
(-3.89571e-05 5.23497e-05 0.0622092)
(-1.71553e-05 2.79718e-05 0.061938)
(0.000107813 8.77594e-06 0.0981695)
(9.38634e-05 2.47337e-05 0.0724317)
(0.000204561 6.87275e-06 0.0990244)
(3.01408e-05 2.39459e-05 0.0719568)
(-0.000157265 0.000147187 0.139404)
(0.000156103 -0.000149626 0.139403)
(-0.000155727 -0.000149383 0.139406)
(0.000137689 0.000146389 0.13995)
(-0.000138055 0.000146081 0.139946)
(0.000136199 -0.000147426 0.139953)
(-0.000136125 -0.00014703 0.13995)
(-0.000185653 1.3799e-05 0.117643)
(-0.000184558 9.58821e-05 0.101492)
(-0.000252468 4.46118e-05 0.13703)
(-0.0002406 0.000150251 0.13389)
(-0.000293829 1.19918e-05 0.118464)
(-0.000115849 4.48319e-05 0.100777)
(-0.000256945 4.42994e-05 0.137016)
(5.096e-05 -3.17276e-05 0.0620599)
(2.92377e-05 -2.32794e-05 0.0616836)
(1.35698e-05 -0.000184728 0.118864)
(4.51952e-05 -0.000253445 0.137319)
(0.000107054 -0.000188633 0.101942)
(0.00014622 -0.000240288 0.134214)
(1.46855e-05 -0.000298626 0.119134)
(4.5142e-05 -0.000253337 0.137463)
(3.90073e-05 -0.000116402 0.10154)
(-0.000103127 -7.53042e-05 0.086142)
(-8.54514e-05 -0.000102181 0.0864004)
(-2.63676e-07 2.08267e-06 0.129741)
(-7.87502e-05 -3.82251e-05 0.085505)
(-3.18495e-05 -7.94737e-05 0.0859301)
(9.25035e-06 8.06323e-05 0.0987669)
(3.05327e-05 8.92609e-05 0.0720605)
(7.95794e-06 0.000190772 0.0991018)
(1.68869e-05 1.93079e-05 0.0718245)
(-3.62976e-05 4.64239e-05 0.0615746)
(-1.82937e-05 2.17271e-05 0.0613388)
(8.65709e-05 9.90454e-06 0.0975571)
(8.23915e-05 2.72842e-05 0.0717148)
(0.000181422 6.80499e-06 0.0982965)
(2.19441e-05 2.23885e-05 0.071316)
(-0.000151373 0.000138258 0.140215)
(0.0001489 -0.000138593 0.140212)
(-0.00014948 -0.000138747 0.14022)
(0.000126547 0.000137601 0.140698)
(-0.000125544 0.000138428 0.140692)
(0.000124806 -0.000138804 0.140702)
(-0.000123622 -0.000139466 0.140701)
(-0.000156398 1.33258e-05 0.117324)
(-0.000165566 9.03998e-05 0.100793)
(-0.000236787 4.36005e-05 0.137762)
(-0.000224583 0.000145707 0.134341)
(-0.000263235 1.18664e-05 0.11809)
(-9.82432e-05 4.08214e-05 0.100147)
(-0.000243825 4.42075e-05 0.137636)
(4.50204e-05 -3.10752e-05 0.0614148)
(2.32924e-05 -2.23971e-05 0.061099)
(1.20377e-05 -0.000154254 0.118554)
(4.2532e-05 -0.00024218 0.138038)
(0.000100436 -0.000167069 0.101256)
(0.000138337 -0.000223478 0.134719)
(1.20516e-05 -0.000269217 0.11881)
(4.35472e-05 -0.000240018 0.138138)
(3.69542e-05 -9.74576e-05 0.100914)
(-9.0135e-05 -7.10687e-05 0.0853398)
(-8.07163e-05 -8.84381e-05 0.0856017)
(1.09441e-05 1.24844e-05 0.130004)
(-6.68893e-05 -3.53117e-05 0.0847699)
(-3.02884e-05 -6.68335e-05 0.0851848)
(5.43533e-06 4.98332e-05 0.0982792)
(3.2774e-05 7.89909e-05 0.0714253)
(6.25019e-06 0.000161457 0.0985116)
(1.60865e-05 8.20005e-06 0.071305)
(-3.66122e-05 4.16741e-05 0.0609918)
(-1.29667e-05 1.6516e-05 0.0608334)
(5.20375e-05 7.28007e-06 0.097121)
(7.76139e-05 2.61684e-05 0.0710784)
(0.000156562 8.12347e-06 0.0976659)
(1.07618e-05 2.03864e-05 0.0708066)
(-0.000141192 0.00012599 0.140962)
(0.000141813 -0.000126989 0.140958)
(-0.000140044 -0.000126406 0.140974)
(0.00011256 0.000124825 0.141368)
(-0.000113418 0.000125012 0.141357)
(0.000112175 -0.000126003 0.14137)
(-0.000110558 -0.00012646 0.141369)
(-0.00011137 1.07019e-05 0.117087)
(-0.000141754 8.37107e-05 0.100138)
(-0.000217653 4.09464e-05 0.138435)
(-0.000202561 0.000138091 0.134685)
(-0.00022531 1.07869e-05 0.117711)
(-7.03947e-05 3.10079e-05 0.0996365)
(-0.000223737 4.17178e-05 0.13815)
(3.97459e-05 -3.21855e-05 0.0608232)
(1.51383e-05 -1.91346e-05 0.0606101)
(1.16259e-05 -0.000111422 0.118266)
(4.2322e-05 -0.000223971 0.138686)
(9.0346e-05 -0.000144354 0.100608)
(0.000132189 -0.000204661 0.13513)
(1.20535e-05 -0.000226767 0.118491)
(4.39619e-05 -0.000217729 0.138722)
(2.65892e-05 -7.10337e-05 0.10041)
(-7.65923e-05 -6.81835e-05 0.0846022)
(-7.80202e-05 -7.5587e-05 0.0848886)
(2.35929e-05 2.51816e-05 0.130176)
(-4.99617e-05 -2.86624e-05 0.0841507)
(-2.02653e-05 -5.21328e-05 0.0845617)
(1.80956e-06 2.17413e-05 0.097263)
(1.82369e-05 7.67896e-05 0.0709036)
(2.42797e-06 0.000130693 0.0980109)
(-1.04885e-05 1.35562e-06 0.0707147)
(-2.73553e-05 3.97724e-05 0.060513)
(1.03233e-05 1.14239e-05 0.0603635)
(7.32305e-05 2.0646e-05 0.0705409)
(0.000128414 3.00949e-06 0.0970895)
(-0.00012676 0.000111936 0.14162)
(0.000125614 -0.000112587 0.141615)
(-0.000124643 -0.000112737 0.141636)
(-7.18723e-05 4.69428e-06 0.11692)
(-0.000120977 6.55518e-05 0.0995267)
(-0.000192899 3.95747e-05 0.139036)
(-0.000175461 0.000121805 0.134884)
(-0.000180066 6.53272e-06 0.117251)
(-4.50974e-05 5.83939e-06 0.099322)
(-0.00019224 3.92243e-05 0.138532)
(4.13855e-05 -2.53495e-05 0.0603267)
(4.08782e-06 -7.14876e-05 0.117342)
(3.70448e-05 -0.000201585 0.139262)
(7.09341e-05 -0.000122011 0.0999707)
(5.00679e-06 -0.000182786 0.118141)
(3.89776e-05 -0.000190453 0.139132)
(-6.64548e-05 -5.43774e-05 0.0839677)
(-6.08394e-05 -6.31649e-05 0.0842869)
(3.97467e-05 4.29623e-05 0.130277)
(-3.22513e-05 -8.84441e-06 0.0837455)
(1.79822e-06 -4.39729e-05 0.0839607)
(0.000178774 0.000182938 0.119549)
(0.000426666 0.000236433 0.0764422)
(0.000236849 0.000427183 0.0764412)
(0.00046692 -0.000802622 0.0465078)
(0.000423307 0.000168418 0.0631978)
(-0.000810645 0.00047487 0.046474)
(0.000169137 0.000423752 0.0632002)
(0.000345373 0.000338265 0.119401)
(0.000245957 -6.57081e-05 0.082684)
(-7.00725e-05 0.000258959 0.0826662)
(7.44149e-05 0.0004112 0.0790187)
(0.000411792 7.32595e-05 0.0790257)
(2.60076e-05 0.000451174 0.110915)
(0.000217553 0.00018531 0.122998)
(0.000276461 0.000361836 0.0857313)
(1.24723e-05 0.000199309 0.127235)
(-2.61866e-05 0.000451291 0.110918)
(-0.000217859 0.000185454 0.122996)
(-0.000274594 0.000362345 0.0857239)
(-1.25079e-05 0.000199256 0.127235)
(9.07247e-06 0.000606781 0.0972686)
(0.00173396 -0.00361563 0.0381897)
(0.000350341 -4.57714e-06 0.0692968)
(-0.000161609 0.000121585 0.0993162)
(-9.37312e-06 0.00060658 0.0972721)
(-0.00173473 -0.00361649 0.0381873)
(-0.000346002 -3.18591e-06 0.0692908)
(0.000160778 0.000121787 0.0993208)
(6.7192e-05 0.000518986 0.110773)
(0.000256672 0.000357366 0.122908)
(0.000851512 -0.000411756 0.0892054)
(8.48402e-05 0.000363721 0.12492)
(0.000239567 0.000573922 0.0889215)
(4.96215e-05 0.000268587 0.126342)
(-3.74997e-05 0.000389153 0.112987)
(-6.72406e-05 0.00051903 0.110775)
(-0.000256871 0.000357562 0.122906)
(-0.000852933 -0.000413251 0.0892044)
(-8.51834e-05 0.000363851 0.12492)
(-0.000239603 0.000573463 0.0889366)
(-4.97472e-05 0.000268577 0.126343)
(3.69478e-05 0.00038934 0.112989)
(-0.000178977 0.000182886 0.119547)
(-0.000427663 0.000245372 0.0763689)
(-0.000236653 0.000427191 0.0764453)
(-0.000467438 -0.000807407 0.0465191)