/*--------------------------------*- C++ -*----------------------------------*\
| =========                 |                                                 |
| \\      /  F ield         | OpenFOAM: The Open Source CFD Toolbox           |
|  \\    /   O peration     | Version:  2206                                  |
|   \\  /    A nd           | Website:  www.openfoam.com                      |
|    \\/     M anipulation  |                                                 |
\*---------------------------------------------------------------------------*/
FoamFile
{
    version     2.0;
    format      ascii;
    arch        "LSB;label=32;scalar=64";
    class       volVectorField;
    location    "120";
    object      wallShearStress;
}
// * * * * * * * * * * * * * * * * * * * * * * * * * * * * * * * * * * * * * //

dimensions      [0 2 -2 0 0 0 0];

internalField   uniform (0 0 0);

boundaryField
{
    topPatch
    {
        type            calculated;
        value           uniform (0 0 0);
    }
    wall
    {
        type            calculated;
        value           nonuniform List<vector> 
7742
(
(1.64999e-05 8.06228e-06 -0.000134296)
(1.53477e-05 5.03691e-05 -4.2622e-05)
(-1.65016e-05 8.06474e-06 -0.000134299)
(8.03192e-06 1.65153e-05 -0.000134404)
(5.05722e-05 1.53906e-05 -4.19926e-05)
(8.02998e-06 -1.65078e-05 -0.000134397)
(-8.03078e-06 1.65139e-05 -0.000134389)
(-8.03115e-06 -1.65066e-05 -0.000134403)
(1.65013e-05 -8.0619e-06 -0.000134279)
(1.53445e-05 -5.03659e-05 -4.26384e-05)
(-1.64952e-05 -8.06588e-06 -0.000134286)
(-1.53399e-05 -5.03645e-05 -4.26411e-05)
(-3.55258e-06 1.10179e-05 -0.000143056)
(1.96046e-05 2.40762e-05 -0.000104739)
(-6.72981e-07 -3.66389e-06 -0.000159975)
(1.10169e-05 -3.5643e-06 -0.000143088)
(2.40659e-05 1.95982e-05 -0.000104756)
(-3.6609e-06 -6.75097e-07 -0.000160002)
(6.05009e-06 2.15846e-07 -0.000128407)
(-6.04617e-06 2.13585e-07 -0.000128402)
(3.69217e-06 1.10188e-05 -0.000143005)
(6.53081e-07 -3.69226e-06 -0.000159894)
(-1.93804e-05 2.41123e-05 -0.000105238)
(-1.10177e-05 -3.5655e-06 -0.000143091)
(-2.40691e-05 1.95959e-05 -0.000104757)
(3.65946e-06 -6.78566e-07 -0.000160003)
(2.33523e-07 6.10093e-06 -0.000128457)
(2.33814e-07 -6.09963e-06 -0.000128458)
(-2.29177e-07 6.09939e-06 -0.000128454)
(-2.34011e-07 -6.09772e-06 -0.000128466)
(1.10209e-05 3.70401e-06 -0.000143063)
(-3.68653e-06 6.48801e-07 -0.000159946)
(2.41006e-05 -1.93767e-05 -0.000105282)
(-3.54804e-06 -1.1018e-05 -0.000143078)
(1.96098e-05 -2.40827e-05 -0.000104741)
(-6.7622e-07 3.66377e-06 -0.000159996)
(6.05086e-06 -2.13856e-07 -0.000128418)
(-6.04382e-06 -2.10598e-07 -0.000128408)
(-1.1018e-05 3.7059e-06 -0.000143047)
(3.68495e-06 6.47767e-07 -0.000159926)
(-2.40933e-05 -1.9367e-05 -0.000105277)
(3.68298e-06 -1.10218e-05 -0.000143026)
(6.516e-07 3.69266e-06 -0.000159926)
(-1.93867e-05 -2.41127e-05 -0.000105246)
(1.02006e-05 -7.35832e-06 -0.000114273)
(-1.01984e-05 -7.35439e-06 -0.000114261)
(-5.59335e-06 -5.22474e-06 -0.00013863)
(-7.30267e-06 1.01832e-05 -0.000114287)
(2.87745e-07 -5.21945e-06 -0.000159635)
(-7.28604e-06 -1.01789e-05 -0.000114313)
(-5.15775e-06 -5.58407e-06 -0.000138693)
(7.29668e-06 1.01841e-05 -0.000114277)
(7.28621e-06 -1.01776e-05 -0.000114312)
(5.15914e-06 -5.58472e-06 -0.000138684)
(-2.86219e-07 5.22677e-06 -0.00015964)
(1.02054e-05 7.35793e-06 -0.000114255)
(5.60823e-06 5.23276e-06 -0.000138614)
(-1.02023e-05 7.35612e-06 -0.000114253)
(-1.53427e-05 5.03635e-05 -4.26253e-05)
(5.05755e-05 -1.53917e-05 -4.19979e-05)
(-5.05741e-05 -1.53927e-05 -4.20021e-05)
(5.60057e-06 -5.23083e-06 -0.000138638)
(-5.16626e-06 5.58829e-06 -0.000138681)
(-5.05691e-05 1.53898e-05 -4.19931e-05)
(5.1638e-06 5.58966e-06 -0.000138674)
(-2.87712e-07 -5.21859e-06 -0.000159636)
(-5.20433e-06 -2.61429e-07 -0.000159523)
(-5.60466e-06 5.22819e-06 -0.000138625)
(5.20923e-06 -2.65458e-07 -0.00015953)
(5.57632e-06 -1.60833e-05 -0.000174888)
(-5.2072e-06 2.66327e-07 -0.000159532)
(-5.56586e-06 -1.60891e-05 -0.000174888)
(5.21871e-06 2.6519e-07 -0.000159518)
(-1.60814e-05 5.57558e-06 -0.000175007)
(-1.60623e-05 -5.57411e-06 -0.000174994)
(2.84034e-07 5.22975e-06 -0.000159655)
(1.60764e-05 5.57587e-06 -0.000174974)
(1.60647e-05 -5.57461e-06 -0.000174998)
(5.57572e-06 1.60878e-05 -0.000174865)
(-5.56495e-06 1.60915e-05 -0.000174875)
(-1.41713e-06 -1.39392e-05 -0.000271257)
(-4.42807e-07 -2.20435e-06 -0.000173408)
(3.98845e-07 -2.38605e-05 -0.000184695)
(-2.44519e-06 -2.85585e-06 -0.000173996)
(-1.40197e-05 -1.45152e-06 -0.000271766)
(-2.20241e-06 -4.5115e-07 -0.000173546)
(-2.38272e-05 3.71623e-07 -0.000184689)
(-2.86339e-06 -2.46438e-06 -0.000174102)
(-1.19489e-06 3.00948e-07 -0.000132575)
(-8.03946e-07 2.74809e-07 -0.00012782)
(8.3481e-07 2.64135e-07 -0.000141569)
(5.03517e-07 2.17539e-07 -0.000136378)
(2.99254e-07 -1.18947e-06 -0.000132728)
(2.83514e-07 -8.28339e-07 -0.000127846)
(2.63804e-07 8.32957e-07 -0.000141699)
(2.25939e-07 5.20933e-07 -0.000136415)
(-4.30467e-07 1.32553e-07 -0.000123918)
(-2.53131e-07 8.88161e-08 -0.000122709)
(2.6453e-07 1.02393e-07 -0.000132257)
(1.44201e-07 6.15849e-08 -0.000130845)
(1.25296e-07 -4.06109e-07 -0.000124146)
(8.79736e-08 -2.53555e-07 -0.000122787)
(8.97479e-08 2.36464e-07 -0.000132443)
(5.87554e-08 1.42782e-07 -0.000130902)
(-1.54728e-07 3.20397e-08 -0.00012066)
(-7.7111e-08 2.32064e-08 -0.000119836)
(1.07608e-07 2.65103e-08 -0.000128621)
(4.97374e-08 1.52302e-08 -0.000127611)
(2.44196e-08 -1.28835e-07 -0.000120862)
(2.40075e-08 -8.47356e-08 -0.000119863)
(1.21744e-08 7.78471e-08 -0.000128774)
(1.36017e-08 5.21306e-08 -0.000127624)
(-7.45657e-08 2.92832e-09 -0.000118138)
(-2.38481e-08 3.40771e-09 -0.000117432)
(5.29695e-08 1.02984e-09 -0.000125781)
(6.40107e-09 -6.69819e-09 -0.000124923)
(-2.32397e-09 -5.57842e-08 -0.000118289)
(6.48963e-09 -3.72273e-08 -0.000117413)
(-7.12133e-09 3.41431e-08 -0.000125893)
(-9.49381e-10 2.10929e-08 -0.000124896)
(-4.07563e-08 -7.26273e-09 -0.000115941)
(-1.49145e-09 -2.15536e-09 -0.000115333)
(2.95201e-08 -8.32385e-09 -0.000123348)
(-7.32947e-09 -1.13557e-08 -0.000122603)
(-9.40176e-09 -2.8698e-08 -0.000116057)
(2.4082e-09 -1.94278e-08 -0.000115278)
(-1.50985e-08 1.3205e-08 -0.000123423)
(-5.69387e-09 6.08791e-09 -0.000122545)
(-2.76033e-08 -1.05276e-08 -0.000114023)
(1.27349e-08 -5.86951e-09 -0.00011349)
(2.15121e-08 -1.0266e-08 -0.000121247)
(-1.51878e-08 -1.42189e-08 -0.000120594)
(-1.32755e-08 -1.44078e-08 -0.000114113)
(-1.92262e-10 -1.10339e-08 -0.000113415)
(-1.72201e-08 4.33845e-09 -0.000121298)
(-5.56483e-09 4.84985e-09 -0.000120518)
(-2.91401e-08 -8.69476e-09 -0.000112327)
(1.1557e-08 -6.95192e-09 -0.000111863)
(1.67332e-08 -9.74066e-09 -0.000119402)
(-1.41697e-08 -1.14773e-08 -0.000118825)
(-1.16945e-08 -1.56251e-08 -0.000112401)
(-1.56778e-09 -8.62551e-09 -0.000111774)
(-1.40246e-08 4.98263e-09 -0.000119449)
(-4.71994e-09 3.14071e-09 -0.000118755)
(-2.41192e-08 -8.55221e-09 -0.000110828)
(5.7107e-09 -2.65726e-09 -0.000110435)
(2.45221e-08 -3.99517e-09 -0.000117775)
(-1.29341e-08 -1.05346e-08 -0.000117271)
(-1.17079e-08 -9.8449e-09 -0.000110882)
(2.88063e-09 -1.39227e-08 -0.000110334)
(-1.20647e-08 5.30996e-09 -0.000117804)
(-1.74221e-09 6.65266e-09 -0.000117188)
(-2.90914e-08 -6.32343e-09 -0.000109486)
(-1.10503e-10 1.33234e-10 -0.000109155)
(2.74638e-08 -1.74403e-09 -0.000116311)
(-2.77808e-09 -4.02288e-09 -0.000115866)
(-5.58531e-09 -2.31378e-08 -0.000109521)
(2.39121e-09 -1.04145e-08 -0.000109061)
(-8.11997e-09 1.41384e-08 -0.000116329)
(9.26296e-10 1.02856e-08 -0.000115809)
(-3.18978e-08 -3.91759e-09 -0.000108219)
(6.36845e-09 -1.38924e-09 -0.00010798)
(2.79535e-08 -2.46505e-09 -0.000114916)
(-1.45832e-08 -1.01997e-08 -0.000114561)
(-9.86026e-09 -1.38561e-08 -0.000108228)
(1.47193e-09 -5.37228e-09 -0.00010789)
(-5.76389e-09 1.82741e-08 -0.000114919)
(-5.14765e-10 3.80971e-09 -0.000114527)
(5.15451e-09 -2.06676e-08 -0.000107087)
(4.04155e-08 -1.26707e-08 -0.000107035)
(4.81315e-09 -1.47175e-08 -0.000113705)
(-5.57752e-08 -3.04754e-08 -0.000113475)
(-1.61829e-08 -6.9258e-09 -0.000107076)
(-1.49726e-08 6.12777e-09 -0.000113668)
(-5.56387e-06 7.99481e-06 -0.000163338)
(8.08672e-06 -5.65492e-06 -0.000163091)
(4.73823e-06 3.66066e-05 -8.74087e-05)
(-4.7334e-06 3.66065e-05 -8.74106e-05)
(5.53499e-06 7.99774e-06 -0.000163365)
(-8.06673e-06 -5.65116e-06 -0.00016306)
(3.68026e-05 4.75012e-06 -8.69431e-05)
(3.68122e-05 -4.75399e-06 -8.6942e-05)
(-3.68e-05 4.75137e-06 -8.69453e-05)
(-3.68045e-05 -4.7532e-06 -8.69324e-05)
(8.07283e-06 5.62078e-06 -0.000163077)
(-5.56008e-06 -7.99329e-06 -0.000163365)
(4.74595e-06 -3.66003e-05 -8.74427e-05)
(-4.74256e-06 -3.66016e-05 -8.74531e-05)
(-8.05216e-06 5.62047e-06 -0.000163029)
(5.52628e-06 -7.99967e-06 -0.000163377)
(-4.17902e-07 -2.38467e-05 -0.000184688)
(2.43795e-06 -2.85111e-06 -0.000174002)
(-2.38168e-05 -4.00322e-07 -0.000184701)
(-2.85571e-06 2.45021e-06 -0.000174129)
(-9.32239e-07 2.08653e-07 -0.000145337)
(-5.36091e-07 -1.6635e-06 -0.000173116)
(2.13777e-07 -9.46069e-07 -0.00014537)
(-1.6863e-06 -4.96581e-07 -0.000173331)
(1.41679e-06 -1.39393e-05 -0.00027124)
(4.3615e-07 -2.20466e-06 -0.000173402)
(-1.2365e-06 2.10701e-07 -0.000136299)
(-5.40434e-07 -1.76651e-06 -0.000166312)
(1.23224e-06 2.09832e-07 -0.000136301)
(5.36323e-07 -1.76799e-06 -0.000166308)
(2.38131e-05 -4.00952e-07 -0.000184674)
(2.85642e-06 2.45139e-06 -0.000174107)
(9.27421e-07 2.06517e-07 -0.000145339)
(5.32292e-07 -1.66643e-06 -0.000173115)
(-2.15098e-07 -9.45909e-07 -0.000145352)
(1.68828e-06 -4.91592e-07 -0.000173313)
(-1.40144e-05 1.45398e-06 -0.000271809)
(-2.20469e-06 4.48911e-07 -0.00017355)
(2.19793e-07 -1.25969e-06 -0.000136321)
(-1.77601e-06 -5.20945e-07 -0.00016653)
(2.19489e-07 1.25942e-06 -0.000136321)
(-1.7751e-06 5.19848e-07 -0.000166539)
(1.40199e-05 -1.45494e-06 -0.000271765)
(2.20136e-06 -4.52863e-07 -0.000173535)
(1.40137e-05 1.45005e-06 -0.000271775)
(2.20399e-06 4.48791e-07 -0.000173534)
(-2.20942e-07 -1.26131e-06 -0.000136312)
(1.77604e-06 -5.21228e-07 -0.000166521)
(-2.19742e-07 1.26127e-06 -0.000136309)
(1.77699e-06 5.17638e-07 -0.000166521)
(-4.21014e-07 2.38497e-05 -0.000184706)
(2.43441e-06 2.84991e-06 -0.000174022)
(2.12769e-07 9.41575e-07 -0.000145357)
(-1.69305e-06 4.84451e-07 -0.000173313)
(-9.31671e-07 -2.07227e-07 -0.000145347)
(-5.37507e-07 1.66201e-06 -0.000173133)
(-1.42194e-06 1.39449e-05 -0.000271259)
(-4.41293e-07 2.20244e-06 -0.000173415)
(1.42061e-06 1.39416e-05 -0.000271256)
(4.36252e-07 2.20653e-06 -0.000173414)
(-1.2349e-06 -2.10436e-07 -0.000136309)
(-5.38822e-07 1.76747e-06 -0.000166318)
(1.22958e-06 -2.08709e-07 -0.000136305)
(5.34255e-07 1.76732e-06 -0.00016632)
(2.382e-05 3.72001e-07 -0.000184635)
(2.86249e-06 -2.46277e-06 -0.000174066)
(3.99047e-07 2.38614e-05 -0.000184719)
(-2.44664e-06 2.85616e-06 -0.000174018)
(-2.11285e-07 9.40412e-07 -0.000145331)
(1.69335e-06 4.8228e-07 -0.000173271)
(9.28054e-07 -2.0536e-07 -0.000145341)
(5.30628e-07 1.66707e-06 -0.000173127)
(-8.32685e-07 2.63512e-07 -0.00014157)
(-5.01046e-07 2.16229e-07 -0.000136376)
(2.64733e-07 -8.35298e-07 -0.000141706)
(2.26606e-07 -5.22924e-07 -0.000136425)
(-2.69064e-07 1.2034e-07 -0.000132988)
(-4.64651e-07 1.89643e-07 -0.000135184)
(1.19763e-07 -2.70227e-07 -0.00013307)
(1.85438e-07 -4.51712e-07 -0.000135359)
(1.19175e-06 2.99695e-07 -0.000132568)
(8.06356e-07 2.75491e-07 -0.00012782)
(-4.5724e-07 1.6293e-07 -0.000124663)
(-7.37333e-07 2.34964e-07 -0.000126634)
(4.55588e-07 1.62222e-07 -0.000124668)
(7.37819e-07 2.34899e-07 -0.000126636)
(-2.63051e-07 -8.31607e-07 -0.000141693)
(-2.23971e-07 -5.17803e-07 -0.000136414)
(2.67411e-07 1.191e-07 -0.000132997)
(4.63018e-07 1.88335e-07 -0.000135186)
(-1.20303e-07 -2.70852e-07 -0.000133056)
(-1.85556e-07 -4.52017e-07 -0.000135344)
(2.98343e-07 1.19019e-06 -0.000132726)
(2.8314e-07 8.27419e-07 -0.000127845)
(1.63671e-07 -4.62335e-07 -0.000124741)
(2.34194e-07 -7.29123e-07 -0.000126822)
(1.62943e-07 4.60479e-07 -0.000124739)
(2.33779e-07 7.27451e-07 -0.000126823)
(-2.99111e-07 -1.19207e-06 -0.000132716)
(-2.81661e-07 -8.24865e-07 -0.000127841)
(-2.98113e-07 1.19218e-06 -0.000132713)
(-2.83437e-07 8.27173e-07 -0.000127835)
(-1.63942e-07 -4.62266e-07 -0.000124736)
(-2.33352e-07 -7.26743e-07 -0.000126815)
(-1.6347e-07 4.6135e-07 -0.000124729)
(-2.33924e-07 7.27587e-07 -0.000126812)
(-8.3198e-07 -2.62709e-07 -0.000141577)
(-4.99495e-07 -2.15127e-07 -0.000136385)
(1.19792e-07 2.70491e-07 -0.000133059)
(1.84649e-07 4.50766e-07 -0.000135349)
(-2.67471e-07 -1.19573e-07 -0.000132998)
(-4.633e-07 -1.88654e-07 -0.000135191)
(-1.19424e-06 -3.00527e-07 -0.000132578)
(-8.02641e-07 -2.74153e-07 -0.00012783)
(1.19165e-06 -2.98298e-07 -0.000132574)
(8.00746e-07 -2.74192e-07 -0.000127828)
(-4.55896e-07 -1.63421e-07 -0.000124677)
(-7.37042e-07 -2.34469e-07 -0.000126643)
(4.56848e-07 -1.63196e-07 -0.000124674)
(7.36196e-07 -2.33626e-07 -0.00012664)
(-2.6371e-07 8.31881e-07 -0.000141674)
(-2.25858e-07 5.20055e-07 -0.000136393)
(8.31239e-07 -2.62594e-07 -0.000141573)
(4.9796e-07 -2.14361e-07 -0.000136385)
(-1.189e-07 2.68869e-07 -0.000133036)
(-1.83098e-07 4.4822e-07 -0.000135324)
(2.68365e-07 -1.20123e-07 -0.000133002)
(4.63135e-07 -1.88581e-07 -0.00013519)
(-2.63173e-07 1.01628e-07 -0.00013225)
(-1.44289e-07 6.1088e-08 -0.000130837)
(8.80327e-08 -2.34524e-07 -0.000132451)
(5.79666e-08 -1.41546e-07 -0.000130913)
(-8.02962e-08 2.94781e-08 -0.000129123)
(-1.58894e-07 5.18859e-08 -0.000130262)
(2.76123e-08 -8.05577e-08 -0.000129176)
(3.73019e-08 -1.27309e-07 -0.000130453)
(4.29489e-07 1.31981e-07 -0.000123915)
(2.51625e-07 8.90375e-08 -0.000122711)
(-1.37754e-07 4.65107e-08 -0.000121182)
(-2.52244e-07 6.80819e-08 -0.00012212)
(1.36459e-07 4.6643e-08 -0.000121189)
(2.51711e-07 6.80486e-08 -0.000122122)
(-8.90453e-08 -2.34862e-07 -0.000132437)
(-5.78212e-08 -1.41489e-07 -0.000130902)
(7.84831e-08 2.82653e-08 -0.000129133)
(1.61498e-07 5.3451e-08 -0.000130268)
(-2.83798e-08 -8.25428e-08 -0.000129165)
(-3.55202e-08 -1.24367e-07 -0.00013044)
(1.25585e-07 4.05622e-07 -0.000124142)
(8.76355e-08 2.52794e-07 -0.000122782)
(4.53825e-08 -1.39458e-07 -0.000121238)
(5.95919e-08 -2.2574e-07 -0.000122343)
(4.58419e-08 1.40527e-07 -0.000121236)
(5.97997e-08 2.25219e-07 -0.000122342)
(-1.26217e-07 -4.07189e-07 -0.000124137)
(-8.82045e-08 -2.53767e-07 -0.000122784)
(-1.25342e-07 4.06276e-07 -0.000124132)
(-8.72392e-08 2.5212e-07 -0.000122773)
(-4.53601e-08 -1.40062e-07 -0.000121234)
(-5.97654e-08 -2.24681e-07 -0.00012234)
(-4.48208e-08 1.39298e-07 -0.000121225)
(-5.90193e-08 2.23596e-07 -0.000122332)
(-2.63183e-07 -1.02075e-07 -0.000132258)
(-1.42511e-07 -6.03922e-08 -0.000130845)
(2.81304e-08 8.21718e-08 -0.000129166)
(3.77541e-08 1.29222e-07 -0.000130442)
(-7.93138e-08 -2.8239e-08 -0.000129128)
(-1.57732e-07 -5.18218e-08 -0.000130269)
(-4.31649e-07 -1.33144e-07 -0.000123923)
(-2.52997e-07 -9.03695e-08 -0.000122723)
(4.31892e-07 -1.32961e-07 -0.000123924)
(2.52407e-07 -8.93389e-08 -0.000122722)
(-1.3853e-07 -4.72625e-08 -0.000121195)
(-2.54369e-07 -6.91859e-08 -0.00012213)
(1.38587e-07 -4.70162e-08 -0.000121194)
(2.53207e-07 -6.84396e-08 -0.000122131)
(-8.79157e-08 2.3382e-07 -0.000132419)
(-5.65103e-08 1.40068e-07 -0.000130881)
(2.65703e-07 -1.03492e-07 -0.000132266)
(1.4394e-07 -6.0664e-08 -0.000130853)
(-2.62848e-08 7.98856e-08 -0.000129143)
(-3.61578e-08 1.25778e-07 -0.000130419)
(8.11491e-08 -2.94583e-08 -0.000129135)
(1.59965e-07 -5.26194e-08 -0.000130274)
(-1.03051e-07 2.41184e-08 -0.000128613)
(-4.50439e-08 1.15359e-08 -0.000127605)
(1.08347e-08 -7.55053e-08 -0.000128779)
(1.332e-08 -5.16706e-08 -0.000127633)
(-2.49117e-08 1.64482e-09 -0.00012621)
(-7.41478e-08 1.10824e-08 -0.000127142)
(5.9154e-09 -3.61772e-08 -0.000126215)
(6.57447e-10 -5.18338e-08 -0.000127285)
(1.55014e-07 3.16859e-08 -0.000120657)
(8.22343e-08 2.48327e-08 -0.000119836)
(-4.42508e-08 1.08908e-08 -0.000118591)
(-1.03305e-07 1.2877e-08 -0.00011935)
(4.07658e-08 9.82684e-09 -0.000118598)
(1.04949e-07 1.31536e-08 -0.000119351)
(-9.50313e-09 -7.30595e-08 -0.00012877)
(-1.06246e-08 -4.70404e-08 -0.000127629)
(2.31361e-08 1.25319e-09 -0.000126219)
(7.33651e-08 1.06331e-08 -0.000127147)
(-6.519e-09 -3.62965e-08 -0.000126211)
(-1.02655e-09 -5.26115e-08 -0.000127278)
(2.45742e-08 1.3115e-07 -0.000120857)
(2.41503e-08 8.57092e-08 -0.00011986)
(1.25045e-08 -5.47671e-08 -0.000118592)
(6.65058e-09 -8.30946e-08 -0.000119523)
(1.23569e-08 5.37827e-08 -0.000118593)
(6.5476e-09 8.31034e-08 -0.000119525)
(-2.4836e-08 -1.31344e-07 -0.000120855)
(-2.22327e-08 -8.15772e-08 -0.000119861)
(-2.42612e-08 1.30806e-07 -0.000120847)
(-2.34607e-08 8.26382e-08 -0.000119851)
(-1.36975e-08 -5.55339e-08 -0.000118594)
(-5.38628e-09 -8.13403e-08 -0.000119519)
(-1.18345e-08 5.20348e-08 -0.000118583)
(-4.87758e-09 7.90536e-08 -0.000119514)
(-1.03014e-07 -2.37335e-08 -0.000128616)
(-4.45473e-08 -1.14562e-08 -0.000127607)
(5.39192e-09 3.44172e-08 -0.000126207)
(1.0332e-09 5.2022e-08 -0.000127278)
(-2.26854e-08 -1.00364e-09 -0.000126212)
(-7.37384e-08 -1.04235e-08 -0.000127141)
(-1.57941e-07 -3.30387e-08 -0.000120665)
(-7.84343e-08 -2.35498e-08 -0.000119844)
(1.57788e-07 -3.28338e-08 -0.000120666)
(7.67339e-08 -2.35729e-08 -0.000119843)
(-4.16433e-08 -1.06103e-08 -0.0001186)
(-1.03895e-07 -1.24887e-08 -0.000119354)
(4.31825e-08 -1.1015e-08 -0.000118603)
(1.02751e-07 -1.20352e-08 -0.000119355)
(-1.04471e-08 7.51609e-08 -0.00012875)
(-1.10799e-08 4.80426e-08 -0.000127605)
(1.07092e-07 -2.61069e-08 -0.000128623)
(4.53036e-08 -1.12449e-08 -0.000127611)
(-4.25162e-09 3.2442e-08 -0.000126188)
(2.48119e-09 4.65363e-08 -0.000127256)
(2.39745e-08 -1.67838e-09 -0.000126217)
(7.45779e-08 -1.0573e-08 -0.000127144)
(-5.26449e-08 9.00052e-10 -0.000125777)
(-6.2286e-09 -6.81632e-09 -0.000124914)
(-7.04684e-09 -3.4836e-08 -0.000125899)
(-8.20748e-10 -2.15891e-08 -0.000124903)
(4.13924e-09 -1.03479e-08 -0.000123709)
(-3.79042e-08 -4.65452e-09 -0.000124515)
(-2.77487e-09 -1.35471e-08 -0.000123686)
(-1.138e-08 -2.26325e-08 -0.000124623)
(7.05183e-08 1.70079e-09 -0.000118137)
(2.18976e-08 3.04872e-09 -0.000117437)
(-7.71848e-09 -1.00731e-09 -0.000116344)
(-5.58656e-08 -3.12676e-09 -0.000117003)
(5.28205e-09 -1.53463e-09 -0.000116354)
(5.47595e-08 -3.90345e-09 -0.000117007)
(6.94094e-09 -3.46766e-08 -0.000125894)
(-1.951e-10 -2.26207e-08 -0.0001249)
(-7.18915e-09 -1.19384e-08 -0.000123726)
(4.08209e-08 -3.43193e-09 -0.000124524)
(4.38144e-10 -1.64824e-08 -0.000123683)
(1.23349e-08 -2.05327e-08 -0.000124616)
(-1.76897e-09 5.59462e-08 -0.000118288)
(6.59758e-09 3.77882e-08 -0.000117411)
(3.24702e-09 -2.52098e-08 -0.000116307)
(-7.44956e-09 -3.94707e-08 -0.000117135)
(1.90164e-09 2.23851e-08 -0.000116306)
(-7.86686e-09 3.95738e-08 -0.000117137)
(1.24119e-09 -5.78803e-08 -0.000118285)
(-7.60766e-09 -3.96426e-08 -0.000117412)
(1.8635e-09 5.59544e-08 -0.000118276)
(-7.01639e-09 3.79314e-08 -0.0001174)
(-3.90505e-09 -2.57729e-08 -0.000116307)
(6.75129e-09 -4.13138e-08 -0.000117133)
(-1.87454e-09 2.23986e-08 -0.000116294)
(7.40144e-09 3.91727e-08 -0.000117125)
(-5.11706e-08 2.64131e-11 -0.000125775)
(-4.49962e-09 7.74749e-09 -0.000124918)
(-3.73795e-09 1.26338e-08 -0.000123675)
(-1.1257e-08 2.21631e-08 -0.000124617)
(6.72705e-09 1.14558e-08 -0.000123716)
(-3.66268e-08 5.84077e-09 -0.000124516)
(-7.24481e-08 -2.20891e-09 -0.000118137)
(-2.13477e-08 -2.61877e-09 -0.000117436)
(7.50093e-08 -3.53438e-09 -0.000118144)
(2.43971e-08 -4.13915e-09 -0.000117445)
(-6.32044e-09 8.48695e-10 -0.000116344)
(-5.37766e-08 4.07229e-09 -0.000117002)
(1.05791e-08 2.96088e-11 -0.000116357)
(5.7222e-08 2.82065e-09 -0.000117014)
(8.42621e-09 3.20253e-08 -0.000125874)
(1.79997e-09 1.97592e-08 -0.000124878)
(5.45533e-08 -2.14113e-09 -0.000125785)
(8.3939e-09 5.59337e-09 -0.000124928)
(4.19261e-09 1.1362e-08 -0.000123659)
(1.27114e-08 1.95091e-08 -0.000124597)
(-4.99663e-10 7.8875e-09 -0.000123724)
(4.13349e-08 2.9429e-09 -0.000124525)
(-2.64395e-08 -9.767e-09 -0.000123335)
(9.79233e-09 -1.38696e-08 -0.000122592)
(-1.51299e-08 -1.28676e-08 -0.000123431)
(-5.5322e-09 -8.19372e-09 -0.000122556)
(1.54307e-08 -1.47646e-08 -0.000121557)
(-2.03476e-08 -1.0456e-08 -0.000122251)
(-6.15793e-09 -4.29069e-09 -0.000121511)
(-1.55133e-08 -8.17698e-09 -0.000122337)
(4.00653e-08 -7.96416e-09 -0.000115943)
(5.23522e-09 -9.54965e-10 -0.000115332)
(6.33914e-09 -6.08012e-09 -0.000114381)
(-3.49693e-08 -8.47566e-09 -0.000114953)
(-2.26855e-09 -4.8265e-09 -0.000114387)
(3.78342e-08 -7.84635e-09 -0.000114954)
(1.62114e-08 -1.07123e-08 -0.000123427)
(7.27217e-09 -6.70705e-09 -0.000122556)
(-1.29908e-08 -1.40495e-08 -0.000121572)
(1.8932e-08 -1.21277e-08 -0.00012226)
(4.45339e-09 -6.5203e-09 -0.000121508)
(1.32779e-08 -1.18206e-08 -0.000122333)
(-1.09843e-08 2.72681e-08 -0.000116053)
(2.32659e-09 1.8599e-08 -0.000115274)
(-1.61016e-09 -1.13014e-08 -0.000114314)
(-1.07323e-08 -2.36012e-08 -0.000115052)
(-1.62293e-09 1.24524e-08 -0.000114309)
(-1.07161e-08 2.25335e-08 -0.000115052)
(9.97914e-09 -3.03625e-08 -0.000116053)
(-1.05244e-09 -1.63722e-08 -0.000115279)
(1.0968e-08 2.70927e-08 -0.000116042)
(-2.14787e-09 1.79321e-08 -0.000115267)
(-8.97983e-10 -1.6885e-08 -0.000114315)
(1.10519e-08 -2.31761e-08 -0.000115051)
(-4.76166e-11 1.50289e-08 -0.000114302)
(1.10835e-08 2.26375e-08 -0.000115045)
(-2.45297e-08 1.06637e-08 -0.000123338)
(1.07891e-08 1.36796e-08 -0.000122599)
(-7.8986e-09 2.23595e-09 -0.000121496)
(-1.67025e-08 6.18267e-09 -0.000122325)
(1.23543e-08 1.26986e-08 -0.00012156)
(-2.10728e-08 9.92939e-09 -0.000122255)
(-4.22197e-08 7.36211e-09 -0.000115931)
(-7.12938e-10 1.92701e-09 -0.000115327)
(4.58313e-08 5.42099e-09 -0.000115948)
(3.08248e-09 1.28161e-09 -0.000115343)
(2.60782e-09 4.56829e-09 -0.000114373)
(-3.54267e-08 8.17106e-09 -0.000114943)
(-1.82525e-09 4.51545e-09 -0.000114387)
(3.67915e-08 7.79232e-09 -0.00011496)
(1.61429e-08 1.05897e-08 -0.000123406)
(7.00522e-09 4.74511e-09 -0.000122535)
(3.224e-08 6.29754e-09 -0.000123347)
(-8.87366e-09 1.23223e-08 -0.000122607)
(6.34211e-09 3.94168e-09 -0.000121484)
(1.77085e-08 4.32814e-09 -0.000122313)
(-1.06197e-08 1.22047e-08 -0.000121562)
(2.31602e-08 9.51067e-09 -0.00012226)
(-1.56319e-08 -1.30331e-08 -0.000121234)
(1.89513e-08 -1.60652e-08 -0.000120586)
(-1.68297e-08 -5.07857e-09 -0.000121309)
(-5.80727e-09 -4.29042e-09 -0.000120532)
(1.41938e-08 -1.31243e-08 -0.00011968)
(-1.43208e-08 -1.2692e-08 -0.000120286)
(-4.87424e-09 -5.16387e-09 -0.000119621)
(-1.53362e-08 -4.45334e-09 -0.000120355)
(3.24093e-08 -9.19608e-09 -0.000114027)
(-7.18505e-09 -4.62398e-09 -0.000113495)
(4.3333e-09 -3.714e-09 -0.000112649)
(-2.46098e-08 -1.06976e-08 -0.000113147)
(-8.79048e-09 -4.99298e-09 -0.000112658)
(2.81499e-08 -9.35026e-09 -0.000113155)
(1.65419e-08 -6.38638e-09 -0.000121307)
(5.4412e-09 -5.82851e-09 -0.000120534)
(-2.08263e-08 -1.6836e-08 -0.000119687)
(1.96609e-08 -9.20844e-09 -0.000120296)
(6.34794e-09 -2.45042e-09 -0.000119622)
(1.779e-08 -1.3659e-09 -0.000120355)
(-1.32472e-08 1.62786e-08 -0.00011411)
(-4.43814e-10 9.86728e-09 -0.000113412)
(1.2275e-09 -1.43166e-08 -0.000112568)
(-1.13096e-08 -1.67635e-08 -0.00011323)
(6.43434e-10 1.24259e-08 -0.000112565)
(-1.23858e-08 1.46503e-08 -0.000113228)
(1.11418e-08 -2.16544e-08 -0.000114111)
(-1.03449e-09 -1.3792e-08 -0.000113416)
(1.0796e-08 2.02203e-08 -0.000114101)
(-6.60621e-10 1.22277e-08 -0.000113402)
(6.15762e-10 -8.28216e-09 -0.000112571)
(1.20447e-08 -1.50854e-08 -0.000113231)
(-8.23686e-10 1.2372e-08 -0.000112561)
(1.15287e-08 1.54271e-08 -0.000113221)
(-2.11174e-08 1.05401e-08 -0.000121232)
(1.49965e-08 1.35226e-08 -0.000120591)
(-4.96796e-09 4.72778e-09 -0.000119607)
(-1.46934e-08 6.40951e-09 -0.000120342)
(1.2125e-08 1.23188e-08 -0.000119687)
(-1.8141e-08 1.01243e-08 -0.000120291)
(-3.43574e-08 8.78897e-09 -0.000114009)
(2.66014e-09 2.52077e-09 -0.000113485)
(3.53747e-08 7.64923e-09 -0.000114025)
(-5.59928e-09 3.40148e-09 -0.000113496)
(5.99512e-09 3.76547e-09 -0.00011265)
(-3.15872e-08 7.18141e-09 -0.000113142)
(-1.99081e-09 2.12391e-09 -0.000112658)
(2.94305e-08 7.69557e-09 -0.000113156)
(1.65781e-08 5.65959e-09 -0.000121284)
(4.0968e-09 6.54276e-09 -0.000120505)
(2.39141e-08 9.0015e-09 -0.000121235)
(-1.26895e-08 1.23567e-08 -0.000120589)
(3.73167e-09 7.89068e-09 -0.000119593)
(1.42225e-08 6.82339e-09 -0.000120327)
(-9.80231e-09 1.08926e-08 -0.000119681)
(2.05803e-08 8.92755e-09 -0.000120287)
(-1.74658e-08 -9.52506e-09 -0.000119401)
(1.53828e-08 -1.34956e-08 -0.000118835)
(-1.45836e-08 -4.18701e-09 -0.00011946)
(-5.2746e-09 -3.11389e-09 -0.000118765)
(1.20965e-08 -1.10416e-08 -0.000118037)
(-1.65703e-08 -1.03433e-08 -0.00011857)
(-4.81292e-09 -3.11623e-09 -0.000117961)
(-1.44529e-08 -4.51666e-09 -0.000118618)
(2.52106e-08 -1.04122e-08 -0.00011233)
(-4.17784e-09 -3.33969e-09 -0.000111866)
(1.0389e-08 -5.91605e-09 -0.000111123)
(-2.10883e-08 -1.1168e-08 -0.000111557)
(-5.12515e-09 -3.42176e-09 -0.000111131)
(2.95319e-08 -7.34647e-09 -0.000111564)
(1.93543e-08 4.68521e-09 -0.000119465)
(6.73453e-09 -1.81081e-09 -0.000118772)
(-8.23972e-09 -9.23213e-09 -0.000118029)
(1.59567e-08 -9.57318e-09 -0.000118564)
(-8.85312e-10 -1.34119e-08 -0.000117958)
(1.11118e-08 -1.14075e-08 -0.000118622)
(-1.05023e-08 1.76559e-08 -0.0001124)
(8.18044e-10 1.38083e-08 -0.000111776)
(-1.2755e-09 -5.76191e-09 -0.00011103)
(-1.21817e-08 -1.17644e-08 -0.00011162)
(-2.22119e-10 7.29637e-09 -0.000111033)
(-1.04976e-08 1.64782e-08 -0.000111624)
(1.22465e-08 -1.21074e-08 -0.000112408)
(2.15227e-09 -6.60595e-09 -0.000111781)
(1.04006e-08 1.72031e-08 -0.0001124)
(6.57308e-10 1.08052e-08 -0.000111773)
(-1.79542e-09 -1.61533e-08 -0.000111028)
(1.15861e-08 -1.42354e-08 -0.000111625)
(2.99129e-11 9.54871e-09 -0.000111022)
(1.13444e-08 1.36439e-08 -0.000111625)
(-1.92784e-08 8.72029e-09 -0.000119403)
(1.50109e-08 1.31467e-08 -0.000118839)
(-4.70095e-09 2.64303e-09 -0.000117944)
(-1.44137e-08 3.81106e-09 -0.000118607)
(1.3784e-08 1.21074e-08 -0.000118036)
(-1.68693e-08 1.04436e-08 -0.000118568)
(-2.92509e-08 8.34904e-09 -0.000112325)
(9.87435e-09 6.36455e-09 -0.000111866)
(3.57943e-08 5.7347e-09 -0.000112333)
(-9.34144e-10 2.73878e-09 -0.000111868)
(1.09727e-08 5.91132e-09 -0.000111126)
(-2.32623e-08 1.06062e-08 -0.000111556)
(-1.00087e-08 5.31301e-09 -0.000111126)
(3.10314e-08 7.08977e-09 -0.000111562)
(1.36331e-08 6.72258e-09 -0.000119439)
(6.63201e-09 2.17086e-09 -0.000118745)
(2.44132e-08 6.42702e-09 -0.000119397)
(-1.02847e-08 1.06326e-08 -0.000118828)
(5.87991e-09 2.03563e-09 -0.000117934)
(1.58298e-08 1.72451e-09 -0.000118603)
(-1.49983e-08 1.3063e-08 -0.000118021)
(2.22537e-08 6.1937e-09 -0.000118561)
(-1.91709e-08 -6.90083e-09 -0.000117781)
(7.38661e-09 -7.04242e-09 -0.000117293)
(-1.34111e-08 -3.87648e-09 -0.00011782)
(-3.91034e-10 -9.2619e-09 -0.000117207)
(7.17056e-09 -6.77981e-09 -0.000116583)
(-2.38127e-08 -3.33954e-09 -0.000117044)
(5.05349e-09 -1.665e-08 -0.000116493)
(-5.60936e-09 -1.528e-08 -0.000117067)
(2.84908e-08 -6.97329e-09 -0.000110834)
(-8.96574e-09 -3.68517e-09 -0.000110434)
(1.76336e-09 -2.0021e-09 -0.000109777)
(-2.77989e-08 -6.46849e-09 -0.000110145)
(-7.2703e-09 -3.10633e-09 -0.000109776)
(2.44959e-08 -7.22758e-09 -0.000110147)
(7.25218e-09 -1.27977e-08 -0.000117828)
(-8.50756e-10 -9.89309e-09 -0.000117221)
(-1.23396e-08 -9.6093e-09 -0.00011656)
(2.17229e-08 -4.04187e-09 -0.00011703)
(-1.44207e-09 -1.10291e-08 -0.0001165)
(1.02044e-08 -5.92726e-09 -0.000117089)
(-1.10479e-08 1.13328e-08 -0.000110885)
(-5.16228e-11 6.55812e-09 -0.000110336)
(5.33953e-09 -1.88276e-08 -0.000109679)
(-6.62674e-09 -2.20346e-08 -0.000110185)
(4.7903e-10 8.37577e-09 -0.000109683)
(-1.02901e-08 1.06111e-08 -0.000110192)
(6.87799e-09 -2.12234e-08 -0.000110891)
(-3.99438e-09 -1.68782e-08 -0.000110348)
(9.41353e-09 1.48849e-08 -0.000110882)
(-2.97086e-09 1.30208e-08 -0.000110325)
(-9.60469e-10 -8.96085e-09 -0.000109684)
(7.46171e-09 -1.77727e-08 -0.000110211)
(-1.78949e-12 7.77353e-09 -0.000109661)
(8.70862e-09 1.54147e-08 -0.000110189)
(-1.78468e-08 6.88054e-09 -0.00011778)
(9.89231e-09 8.22753e-09 -0.000117294)
(2.91696e-10 9.20642e-09 -0.000116485)
(-8.73977e-09 8.90117e-09 -0.000117051)
(6.46793e-09 5.55761e-09 -0.000116582)
(-2.24496e-08 3.30913e-09 -0.000117044)
(-2.35598e-08 8.22305e-09 -0.000110829)
(5.00996e-09 1.93885e-09 -0.000110441)
(2.52792e-08 8.11349e-09 -0.000110829)
(-6.03486e-09 2.41596e-09 -0.00011043)
(-3.20838e-09 -1.05552e-09 -0.00010978)
(-2.88083e-08 5.6349e-09 -0.000110149)
(3.22139e-09 -1.36226e-09 -0.000109782)
(3.00604e-08 5.06635e-09 -0.000110146)
(1.36015e-08 2.53442e-09 -0.000117802)
(2.21422e-09 5.55483e-09 -0.000117182)
(1.88177e-08 6.97632e-09 -0.000117766)
(-8.22131e-09 7.80487e-09 -0.000117266)
(1.0734e-09 7.70946e-09 -0.000116466)
(1.01106e-08 6.74487e-09 -0.000117054)
(-5.21651e-09 5.00793e-09 -0.000116563)
(2.52449e-08 1.82212e-09 -0.000117024)
(-2.00875e-08 -5.36758e-09 -0.000116325)
(6.67184e-09 -6.98113e-09 -0.000115897)
(-3.6844e-09 -1.86174e-08 -0.000116338)
(9.77407e-10 -1.07435e-08 -0.000115817)
(-3.42213e-09 1.31735e-10 -0.000115239)
(-2.43914e-08 -3.14575e-09 -0.000115625)
(-3.97853e-10 -6.37464e-09 -0.000115165)
(-6.15754e-09 -1.53537e-08 -0.000115636)
(2.96281e-08 -5.60529e-09 -0.000109487)
(5.35103e-09 1.48347e-09 -0.000109143)
(-7.06723e-09 4.0296e-09 -0.000108551)
(-3.23762e-08 -4.45049e-09 -0.000108847)
(-3.50945e-09 -9.77786e-10 -0.000108531)
(3.72015e-08 -2.37011e-09 -0.000108849)
(9.08717e-09 -9.3934e-09 -0.000116361)
(-1.89477e-09 -1.44273e-08 -0.000115819)
(-6.82912e-09 -6.7758e-09 -0.0001152)
(2.44951e-08 -2.843e-09 -0.00011561)
(-3.64544e-09 -1.36443e-08 -0.000115154)
(-3.79054e-10 -2.66776e-08 -0.000115662)
(-9.05593e-09 1.66521e-08 -0.000109524)
(5.00818e-09 1.7567e-08 -0.000109063)
(3.30744e-10 -3.81852e-09 -0.000108458)
(-8.09103e-09 -1.74333e-08 -0.000108874)
(5.28088e-09 1.67225e-08 -0.000108461)
(-4.30967e-09 2.66359e-08 -0.000108878)
(8.45959e-09 -1.71519e-08 -0.000109542)
(-2.155e-09 -1.31906e-08 -0.000109063)
(8.59165e-09 1.63182e-08 -0.000109521)
(-5.58004e-09 2.00262e-08 -0.00010904)
(-4.65709e-09 -1.57906e-08 -0.000108455)
(5.67633e-09 -2.48985e-08 -0.000108897)