/*--------------------------------*- C++ -*----------------------------------*\
| =========                 |                                                 |
| \\      /  F ield         | OpenFOAM: The Open Source CFD Toolbox           |
|  \\    /   O peration     | Version:  2206                                  |
|   \\  /    A nd           | Website:  www.openfoam.com                      |
|    \\/     M anipulation  |                                                 |
\*---------------------------------------------------------------------------*/
FoamFile
{
    version     2.0;
    format      ascii;
    arch        "LSB;label=32;scalar=64";
    class       volScalarField;
    location    "0.4";
    object      omega;
}
// * * * * * * * * * * * * * * * * * * * * * * * * * * * * * * * * * * * * * //

dimensions      [0 0 -1 0 0 0 0];

internalField   nonuniform List<scalar> 
401248
(
18.6867
25.2848
24.8209
32.2417
32.2009
24.8488
24.8402
32.2041
25.2791
25.2856
25.2948
32.2423
24.811
299.925
148.397
410.374
302.065
152.24
18.6872
18.6871
18.6866
140.552
20.5763
68.9313
411.859
20.1433
137.894
65.9228
199.195
197.523
410.297
411.881
197.311
199.423
299.943
148.404
137.873
20.1443
65.9015
137.927
20.143
65.8989
197.511
199.306
411.821
140.62
20.577
68.9444
302.083
152.242
20.5835
140.621
68.9368
302.051
152.235
20.583
140.546
68.9201
302.063
152.23
199.393
197.469
410.348
20.142
137.929
65.9243
299.935
148.427
299.938
148.431
411.803
410.383
431.168
299.889
208.485
208.505
431.302
332.139
148.544
310.198
164.481
310.157
164.633
332.19
410.257
335.273
152.22
168.339
313.396
434.027
301.995
212.208
212.333
434.259
434.26
302.066
212.209
335.157
152.545
168.347
313.396
168.648
313.296
335.272
411.69
411.871
161.379
100.328
199.369
308.215
100.607
308.134
161.077
159.872
99.0152
197.63
308.45
99.2295
308.386
159.6
246.348
417.878
417.359
417.699
417.194
246.356
410.184
411.707
411.881
160.727
99.0528
197.423
307.578
307.513
99.276
160.456
160.576
100.335
199.599
309.09
309.01
100.621
160.274
246.348
417.247
417.993
417.083
417.814
246.358
431.175
299.906
208.508
208.528
431.31
332.134
148.552
310.197
164.495
310.156
164.647
332.185
159.954
99.0742
197.578
308.374
308.318
99.3156
159.733
161.174
100.317
199.42
308.238
100.561
308.176
161.012
246.441
417.291
417.894
417.042
417.754
246.399
411.643
335.285
152.228
313.4
168.351
434.027
302.013
212.223
212.344
434.26
434.259
302.085
212.222
335.169
152.552
313.4
168.358
313.301
168.662
335.285
434.026
301.98
212.215
212.329
434.259
335.158
152.551
168.351
313.396
168.655
313.297
335.273
434.02
301.993
212.214
212.335
434.252
335.167
152.546
313.398
168.344
313.299
168.653
335.282
160.689
100.34
199.545
308.921
308.906
100.635
160.428
160.489
99.0735
197.53
307.628
99.285
307.537
160.193
246.485
417.954
417.208
417.782
417.083
246.52
410.224
431.17
299.898
208.503
208.524
431.306
332.149
148.57
164.508
310.209
164.658
310.167
332.2
431.176
299.902
208.504
208.529
431.311
332.141
148.573
164.51
310.206
164.661
310.164
332.192
411.631
410.271
17.8803
17.9214
17.6995
89.8075
54.1986
53.7719
32.3152
54.4054
53.9391
89.5502
89.8221
53.7362
54.2301
32.2715
53.9086
54.4404
89.553
89.8682
53.7322
54.2444
32.2755
54.4569
53.9072
89.6171
89.8809
54.1955
53.7845
32.3143
53.962
54.4068
89.6133
17.8805
17.9217
17.6997
17.9207
17.8822
17.701
17.9206
17.8804
17.6995
47.8323
67.7372
140.856
100.28
67.9962
100.581
47.6537
39.4984
69.2542
78.2172
35.3384
78.5334
35.5203
39.3229
46.053
66.1878
138.083
97.2163
66.3446
97.3747
45.9832
37.7958
66.045
33.8387
75.0516
33.8868
75.1844
37.764
46.0152
66.1047
138.057
97.1631
97.3152
66.2692
45.941
37.7423
66.022
75.0221
33.8288
75.1526
33.8766
37.7012
46.0257
66.1219
138.116
97.1748
97.3363
66.2967
45.9478
37.7522
66.0254
75.0249
33.8262
75.1636
33.8759
37.7073
47.8344
67.7714
140.924
100.293
100.598
68.0392
47.6577
39.4975
69.2577
78.2215
35.3474
78.5331
35.5229
39.3272
47.8283
67.7055
140.926
100.306
100.613
67.9757
47.6456
39.4951
69.2516
35.345
78.2129
35.5204
78.529
39.3189
47.8134
67.672
140.855
100.273
67.9402
100.583
47.629
39.488
69.2413
35.3349
78.1935
35.514
78.5137
39.3098
46.0598
66.1889
138.116
97.1802
66.3531
97.3419
45.9907
37.7978
66.0496
33.8406
75.0518
33.8896
75.1897
37.7652
744.209
1606.82
4403.61
16443.3
116782
731.228
1602.86
4400.58
16447.7
116912
743.772
1606.75
4403.76
16445.1
116802
730.881
1602.73
4400.16
16445.3
116892
731.177
1602.72
4400.04
16443.8
116862
730.894
1602.78
4400.47
16447.6
116912
744.216
1606.83
4403.76
16445.2
116803
730.857
1602.64
4399.87
16444
116872
743.777
1606.73
4403.73
16445.3
116814
743.755
1606.63
4403.26
16442.5
116781
743.748
1606.68
4403.34
16442.2
116772
731.195
1602.74
4400.01
16444.8
116881
744.206
1606.77
4403.58
16444.1
116795
744.209
1606.77
4403.56
16444.3
116802
730.873
1602.73
4400.15
16445.4
116892
731.222
1602.81
4400.47
16447.2
116912
728.238
1600.89
4397.34
16436.9
116835
744.044
1606.65
4403.46
16443.1
116782
731.099
1602.74
4400.47
16447.6
116912
735.39
1603.67
4399.16
16433.5
116752
736.754
1603.06
4397.17
16428.4
116727
727.756
1600.73
4397.35
16437.6
116840
743.532
1606.54
4403.59
16445
116802
743.774
1606.75
4403.76
16445.1
116802
730.696
1602.57
4400.04
16445.2
116892
730.889
1602.73
4400.17
16445.3
116892
742.824
1606.51
4403.08
16443.5
116795
742.624
1606.35
4402.97
16443.4
116795
742.973
1606.52
4403.13
16443.5
116795
742.807
1606.38
4403.02
16443.4
116795
728.605
1603.19
4402.09
16450.7
116918
728.65
1603.2
4402.03
16451
116921
728.42
1603.04
4401.99
16450.7
116918
728.478
1603.06
4401.92
16450.9
116921
731.048
1602.6
4399.93
16443.7
116862
730.705
1602.63
4400.36
16447.5
116912
730.895
1602.78
4400.48
16447.6
116912
744.051
1606.66
4403.6
16445.1
116803
742.806
1606.5
4402.99
16442.6
116789
742.611
1606.34
4402.87
16442.5
116789
728.583
1603.2
4401.99
16450.9
116919
728.412
1603.05
4401.87
16450.8
116919
730.668
1602.48
4399.76
16443.9
116872
735.377
1603.66
4399.14
16432.8
116747
736.748
1603.05
4397.12
16428.1
116725
727.756
1600.73
4397.38
16437.7
116852
743.539
1606.52
4403.57
16445.2
116814
743.779
1606.73
4403.73
16445.3
116814
743.515
1606.42
4403.09
16442.3
116781
727.736
1600.69
4397.22
16436.5
116831
743.507
1606.46
4403.18
16442.1
116772
743.019
1606.49
4402.8
16440.9
116759
742.856
1606.35
4402.69
16440.8
116759
728.629
1603.22
4402.13
16450.5
116904
731.063
1602.61
4399.91
16444.7
116881
728.24
1600.89
4397.34
16436.9
116836
744.04
1606.6
4403.42
16444
116795
728.238
1600.86
4397.2
16436.7
116840
744.041
1606.6
4403.4
16444.2
116802
730.684
1602.57
4400.03
16445.3
116892
731.093
1602.69
4400.36
16447.1
116912
728.233
1600.85
4397.22
16437.4
116838
727.747
1600.69
4397.16
16436.8
116840
735.788
1603.65
4399.28
16433.9
116768
737.253
1603.12
4397.37
16429.4
116747
737.149
1603.03
4397.3
16429.3
116747
735.892
1603.75
4399.37
16434
116768
728.362
1601.02
4397.47
16437
116835
742.953
1606.47
4402.9
16441.8
116776
742.79
1606.34
4402.8
16441.7
116776
728.619
1603.13
4401.66
16448.4
116887
728.431
1602.99
4401.56
16448.3
116887
727.973
1600.91
4397.48
16437.7
116840
735.178
1603.52
4399.06
16433.4
116752
736.753
1603.06
4397.17
16428.4
116727
736.541
1602.91
4397.08
16428.3
116727
735.389
1603.67
4399.16
16433.5
116752
727.974
1600.91
4397.48
16437.7
116840
742.731
1606.46
4402.9
16441.8
116778
742.535
1606.31
4402.79
16441.7
116778
728.596
1603.26
4402.26
16451.4
116918
728.408
1603.11
4402.14
16451.3
116918
742.997
1606.51
4402.96
16442
116776
742.832
1606.37
4402.85
16441.9
116776
728.653
1603.25
4402.18
16451.5
116933
728.484
1603.11
4402.08
16451.4
116933
742.768
1606.51
4403.07
16443.1
116795
742.568
1606.35
4402.96
16443
116795
728.593
1603.22
4401.99
16450.4
116921
728.408
1603.07
4401.88
16450.3
116921
735.777
1603.61
4399.02
16433.3
116751
737.242
1603.09
4397.14
16428.4
116727
737.137
1603
4397.06
16428.3
116727
735.883
1603.71
4399.1
16433.4
116751
728.359
1600.99
4397.35
16437.5
116838
735.166
1603.5
4399.03
16432.7
116747
736.746
1603.04
4397.11
16428.1
116725
736.535
1602.89
4397.02
16428.1
116725
735.376
1603.66
4399.13
16432.8
116747
727.973
1600.91
4397.51
16437.7
116852
727.973
1600.91
4397.51
16437.7
116852
727.962
1600.87
4397.3
16436.8
116840
735.194
1603.6
4399.35
16434.7
116774
736.752
1603.11
4397.4
16428.7
116749
736.54
1602.96
4397.31
16428.7
116749
735.405
1603.76
4399.45
16434.8
116774
735.192
1603.59
4399.38
16434.8
116769
736.758
1603.1
4397.41
16429.4
116747
736.546
1602.94
4397.32
16429.3
116747
735.403
1603.74
4399.48
16434.9
116769
727.953
1600.87
4397.35
16436.6
116831
728.475
1603.1
4402.04
16450.4
116904
728.366
1601.03
4397.48
16437
116836
735.784
1603.64
4399.24
16433.4
116758
737.241
1603.09
4397.24
16428.1
116725
737.139
1603
4397.22
16428.7
116736
735.89
1603.73
4399.27
16432.9
116748
728.366
1601
4397.33
16436.8
116840
735.782
1603.62
4399.06
16433.4
116752
737.237
1603.09
4397.13
16428.4
116727
737.134
1603
4397.06
16428.3
116727
735.889
1603.72
4399.15
16433.5
116752
32.3128
24.9751
25.3705
25.3758
32.3362
24.912
32.2351
32.2914
18.7442
18.7302
410.084
411.707
197.725
199.595
299.848
137.985
301.967
152.492
140.856
20.6509
69.2215
301.984
152.492
20.6646
140.855
69.2163
411.688
199.549
197.479
410.227
138.019
299.882
410.245
410.176
411.882
411.705
197.539
199.416
32.3032
197.54
199.59
410.189
410.303
411.694
411.876
32.2253
197.493
199.592
197.406
199.416
410.14
411.875
160.378
99.2739
197.711
307.469
307.508
99.0499
160.659
160.26
100.592
199.417
309.007
309.083
100.302
160.56
246.364
417.072
417.81
417.238
417.984
246.354
299.917
209.208
209.48
431.226
434.218
302.028
212.277
212.132
434.001
335.226
152.161
168.603
313.262
168.282
313.347
335.125
434.223
302.046
212.289
212.146
434.004
335.239
152.159
313.266
168.61
313.351
168.288
335.137
411.856
160.257
100.594
199.37
308.982
100.302
309.058
160.552
160.394
99.2203
197.372
307.539
307.598
98.9954
160.665
246.304
417.782
417.127
417.954
417.283
246.303
410.339
299.911
208.499
208.468
431.171
410.15
410.288
411.708
411.881
246.365
417.075
417.811
417.244
417.993
246.355
160.686
99.0557
307.553
197.607
160.407
307.499
99.276
160.567
100.315
309.089
199.592
160.272
309.011
100.604
246.355
417.242
417.993
246.365
417.077
417.814
160.431
307.507
197.453
99.2798
307.57
160.706
99.0592
160.277
309.011
199.417
100.617
309.092
160.57
100.329
410.308
410.186
411.87
411.7
246.353
417.239
417.987
246.364
417.07
417.805
160.459
99.3064
197.386
307.501
307.567
99.079
160.729
160.278
100.634
199.419
309.001
309.086
100.349
160.57
160.72
307.571
99.0657
197.509
160.447
307.506
99.2895
160.57
309.09
100.341
199.591
160.278
309.008
100.626
246.36
417.064
417.799
417.234
417.981
246.346
89.5494
32.2369
53.81
54.4314
53.6134
54.2053
89.8185
89.5328
32.2619
54.3315
53.8114
54.0915
53.6016
89.8017
89.8258
53.6511
54.2221
32.308
89.5574
53.847
54.4435
89.5728
32.2188
53.9145
54.4633
53.7313
54.2481
89.8385
17.9493
17.9461
46.1251
65.9756
137.785
97.1355
65.7578
96.9778
46.1671
47.6747
67.9218
140.543
100.53
67.6168
100.203
47.8565
39.2559
68.8954
78.4792
35.5097
78.1521
35.3255
39.4461
47.664
67.8634
140.54
100.538
100.21
67.5583
47.8516
39.2473
68.8898
35.5078
78.4739
35.3236
78.1445
39.4436
45.9914
66.2503
137.828
97.293
66.0619
97.1265
46.06
89.5661
32.2302
53.8793
54.456
89.8332
53.6873
54.235
89.8358
32.2975
53.7149
54.2454
89.571
53.9012
54.4626
18.7368
25.3636
24.8954
32.2783
18.709
25.3306
24.8591
32.2751
18.6997
25.261
24.8031
32.2001
18.7034
25.2862
24.81
32.2054
18.6932
25.297
24.8187
32.2076
18.6882
25.2903
24.8244
32.2362
18.6875
25.2922
24.822
32.2341
18.688
25.2931
24.8255
32.2403
18.6883
25.2937
24.8255
32.2422
18.6881
25.2888
24.8226
32.236
18.6877
25.2865
24.8193
32.2329
18.687
25.283
24.816
32.2287
18.6868
25.2848
24.816
32.2308
18.6869
25.2832
24.8163
32.2296
18.6869
25.285
24.8164
32.2315
18.6868
25.2834
24.8162
32.2273
18.6868
25.2849
24.8169
32.232
24.9556
24.945
24.9021
24.9
32.237
32.3003
25.3569
25.3614
25.326
25.3311
25.3753
25.3414
25.3493
32.2594
32.3291
24.87
24.8627
24.8493
32.3513
32.2141
32.2615
24.893
24.8866
24.8528
24.8375
32.2257
32.2205
25.3208
25.3269
25.2854
25.2927
25.3429
25.2655
25.2881
32.2536
32.3086
24.8466
24.8206
24.8096
32.2966
32.1691
32.1918
24.8358
24.8316
24.8287
24.846
32.1339
32.273
25.2646
25.2712
25.2519
25.2568
25.2723
25.2837
25.2825
32.2139
32.2281
24.7921
24.7987
24.7896
32.2541
32.1435
32.2574
24.8393
24.8457
24.846
24.842
32.2038
32.2658
25.2663
25.2703
25.2762
25.2794
25.2914
25.2914
25.2922
32.1775
32.2913
24.8007
24.8178
24.8087
32.2866
32.1756
32.2817
24.8467
24.8424
24.8493
24.8461
32.2001
32.2786
25.2766
25.2798
25.2863
25.2915
25.295
25.2925
25.2989
32.2079
32.3231
24.8108
24.8246
24.8144
32.3206
32.2023
32.2634
24.8485
24.8422
24.8443
24.8375
32.1959
32.2699
25.2859
25.2913
25.2809
25.286
25.2965
25.2909
25.2962
32.2431
32.3036
24.8123
24.8218
24.8111
32.3102
32.1842
32.274
24.8447
24.8378
24.8467
24.8443
32.1942
32.2807
25.2811
25.2862
25.2853
25.2905
25.2967
25.294
25.3
32.2244
32.3156
24.8112
24.8254
24.814
32.3171
32.1937
32.2756
24.8471
24.8422
24.8481
24.8393
32.1986
32.2748
25.2857
25.2907
25.2871
25.2912
25.3
25.2936
25.3003
32.2349
32.3158
24.8141
24.8262
24.8154
32.3187
32.1957
32.2737
24.8485
24.8395
24.849
24.8461
32.1983
32.2801
25.2868
25.2907
25.2846
25.2882
25.2992
25.2909
25.2964
32.2351
32.311
24.8147
24.8236
24.8128
32.3134
32.1929
32.2688
24.849
24.8441
24.8474
24.8386
32.1974
32.2681
25.2837
25.2873
25.2814
25.2849
25.2952
25.2867
25.2936
32.2301
32.3069
24.8117
24.8205
24.8105
32.3104
32.1876
32.2635
24.8467
24.8384
24.8442
24.8424
32.1909
32.2727
25.2798
25.2836
25.2764
25.2804
25.2919
25.2841
25.29
32.2256
32.3016
24.809
24.8166
24.8063
32.306
32.1831
32.2627
24.844
24.8401
24.8431
24.8367
32.1903
32.2658
25.2757
25.2798
25.2756
25.2797
25.2891
25.2842
25.29
32.2209
32.3025
24.8054
24.8162
24.8062
32.3072
32.183
32.2645
24.8434
24.8368
24.8438
24.8424
32.1891
32.2728
25.2755
25.2797
25.2764
25.2806
25.2899
25.2844
25.2902
32.2221
32.3036
24.8058
24.8167
24.8062
32.3067
32.1843
32.263
24.8439
24.8402
24.8435
24.837
32.1904
32.2661
25.276
25.2803
25.2759
25.2803
25.2894
25.2845
25.2905
32.2231
32.3023
24.8056
24.8165
24.8064
32.3073
32.1835
32.2641
24.8438
24.8369
24.8435
24.8421
32.1894
32.2728
25.2759
25.2804
25.2763
25.2805
25.2901
25.2845
25.2898
32.2222
32.3032
24.806
24.8166
24.8055
32.3042
32.1836
32.2644
24.8435
24.84
24.8434
24.8366
32.1905
32.2655
25.2758
25.2801
25.2763
25.2805
25.2895
25.2843
25.2907
32.2221
32.3043
24.8052
24.8167
24.8068
32.3094
32.1846
24.8437
24.8367
32.1887
25.2762
25.2798
25.2842
25.2899
25.2921
32.2239
32.3202
24.806
24.8202
24.8078
32.3118
148.323
299.901
148.035
299.887
410.277
410.186
152.534
302.045
152.184
301.987
18.7326
18.7245
18.7234
18.7147
18.7157
18.7085
18.7091
69.2641
140.522
20.6502
25.3528
140.856
20.639
68.9393
411.866
411.685
66.0358
20.1567
137.845
24.8806
20.1559
138.042
65.9322
199.223
197.541
32.3506
199.372
197.638
148.55
299.931
148.374
299.881
410.327
410.207
152.573
302.054
152.247
301.962
18.7089
18.705
18.7052
18.7003
18.6981
18.6989
18.6976
69.2278
140.556
20.6161
25.3091
68.9832
140.723
20.6048
411.845
411.652
66.021
20.1525
137.877
24.8535
65.9285
20.1513
138.03
199.155
197.516
32.3477
199.278
197.567
148.575
299.904
148.36
299.868
410.319
410.175
152.289
302.004
152.085
301.939
18.6987
18.6985
18.6976
18.7027
18.7066
18.7024
18.704
69.0424
140.329
20.5765
25.263
68.6448
140.752
20.5772
411.815
411.649
65.8126
20.1409
137.671
24.7945
65.7621
20.1406
137.845
199.082
197.401
32.2263
199.287
197.53
148.561
299.91
148.423
299.873
410.315
410.205
152.514
302.033
152.169
301.969
18.7068
18.7031
18.7047
18.6968
18.6988
18.6968
18.6981
69.1441
140.5
20.5869
25.2861
68.9362
140.798
20.5834
411.842
411.674
65.977
20.15
137.76
24.816
65.8071
20.1514
137.966
199.142
197.463
32.3136
199.329
197.592
148.575
299.911
148.434
299.872
410.315
410.172
152.528
302.046
152.158
301.98
18.6952
18.6933
18.6945
18.6887
18.6893
18.6891
18.6889
69.2457
140.539
20.583
25.2976
68.938
140.846
20.5828
411.855
411.682
66.0184
20.1482
137.815
24.822
65.8708
20.147
138.017
199.166
197.491
32.3087
199.35
197.609
148.54
299.907
148.398
299.871
410.31
410.208
152.509
302.051
152.201
301.981
18.6885
18.6887
18.6882
18.6874
18.6881
18.6881
18.6878
69.2108
140.518
20.5794
25.2899
68.9093
140.843
20.5788
411.854
411.679
66.0164
20.1451
137.837
24.8239
65.8993
20.1447
138.026
199.167
197.492
32.2946
199.348
197.608
148.516
299.915
148.362
299.882
410.335
410.201
152.507
302.054
152.197
301.986
18.6882
18.6881
18.6879
18.6879
18.6887
18.6888
18.6885
69.2192
140.519
20.5797
25.2933
68.9238
140.85
20.5801
411.855
411.682
66.0044
20.1441
137.831
24.8235
65.8963
20.1445
138.028
199.166
197.492
32.3016
199.348
197.609
148.524
299.928
148.362
299.894
410.353
410.245
152.507
302.059
152.204
301.988
18.6887
18.689
18.6886
18.6882
18.6886
18.689
18.6887
69.224
140.529
20.5813
25.2931
68.9236
140.853
20.5809
411.858
411.683
66.007
20.1456
137.835
24.8263
65.9076
20.1458
138.033
199.167
197.495
32.3023
199.349
197.613
148.534
299.934
148.366
299.895
410.36
410.214
152.509
302.058
152.209
301.987
18.6886
18.689
18.6886
18.6882
18.6886
18.6885
18.688
69.2219
140.524
20.5807
25.2935
68.9215
140.853
20.5799
411.857
411.681
66.0062
20.1454
137.838
24.8256
65.9068
20.1453
138.033
199.168
197.497
32.3009
199.351
197.612
148.532
299.931
148.373
299.892
410.351
410.24
152.511
302.059
152.209
301.989
18.6884
18.6884
18.6879
18.6878
18.688
18.688
18.6876
69.218
140.531
20.579
25.2879
68.9179
140.858
20.5784
411.857
411.682
66.0008
20.1444
137.839
24.8226
65.9063
20.1443
138.036
199.172
197.499
32.2947
199.356
197.615
148.53
299.927
148.372
299.89
410.362
410.221
152.515
302.061
152.212
301.992
18.6879
18.6878
18.6874
18.6871
18.6876
18.6872
18.6868
69.2199
140.533
20.577
25.2863
68.916
140.863
20.5763
411.858
411.683
66.001
20.1431
137.843
24.8191
65.9044
20.1428
138.039
199.176
197.503
32.2906
199.358
197.618
148.529
299.924
148.371
299.886
410.362
410.255
152.517
302.063
152.216
301.993
18.6875
18.6871
18.6867
18.6868
18.6874
18.6869
18.6867
69.2196
140.538
20.5758
25.283
68.9168
140.862
20.5755
411.858
411.683
66.0016
20.1415
137.846
24.8164
65.9045
20.1414
138.041
199.177
197.504
32.2879
199.359
197.619
148.526
299.923
148.361
299.887
410.372
410.228
152.517
302.063
152.216
301.993
18.6874
18.6869
18.6867
18.6869
18.6876
18.687
18.6867
69.22
140.534
20.576
25.2851
68.9172
140.864
20.5759
411.857
411.683
66.002
20.1412
137.846
24.8166
65.9041
20.1412
138.041
199.177
197.504
32.2907
199.358
197.618
148.529
299.923
148.369
299.887
410.367
410.256
152.517
302.063
152.217
301.992
18.6875
18.687
18.6867
18.6868
18.6874
18.6869
18.6867
69.2202
140.537
20.576
25.2833
68.9166
140.862
20.5757
411.858
411.683
65.9995
20.1412
137.846
24.8167
65.9029
20.1412
138.042
199.177
197.504
32.2885
199.358
197.618
148.528
299.923
148.366
299.887
410.371
410.228
152.517
302.063
152.216
301.992
18.6875
18.687
18.6867
18.6869
18.6876
18.687
18.6866
69.2194
140.534
20.5762
25.2852
68.9169
140.863
20.576
411.858
411.684
66.0005
20.1411
137.847
24.8169
65.9025
20.1412
138.042
199.177
197.503
32.2915
199.358
197.616
148.527
299.923
148.367
299.887
410.367
410.256
152.517
302.063
152.216
301.993
18.6875
18.6869
18.6866
18.6868
18.6874
18.6869
18.6867
69.22
140.538
20.576
25.2833
68.9172
140.862
20.5758
411.857
411.684
65.9994
20.1411
137.848
24.8166
65.903
20.1411
138.044
199.177
197.504
32.2898
199.359
197.619
148.53
299.923
148.369
299.886
410.37
410.222
152.516
302.063
152.216
301.992
18.6874
18.6869
18.6867
18.687
18.6867
69.22
140.534
20.5761
25.2844
68.9166
140.865
20.5759
411.863
411.663
66.0015
20.1412
137.849
24.8153
65.904
20.1412
138.046
199.177
197.503
32.2889
199.36
197.619
148.337
299.901
299.886
148.048
65.9368
137.824
20.3056
24.9347
20.2779
65.7752
138.06
65.9465
137.873
20.3125
24.9254
138.11
20.2826
65.7845
148.231
299.895
148.488
299.93
148.241
299.891
299.928
148.497
65.8265
24.9147
138.12
20.2315
20.2529
65.9933
137.897
65.8362
24.915
138.175
20.234
137.952
20.2566
66.0003
197.73
199.329
32.3055
197.742
199.524
411.835
411.67
410.202
410.298
32.2301
197.676
199.48
197.669
199.37
411.638
411.854
69.2462
140.566
20.6421
25.3446
20.6333
68.9158
140.891
152.531
302.062
302.002
152.185
69.2421
20.6533
140.564
25.3489
20.6429
140.889
68.9113
152.229
301.987
152.562
302.06
68.9434
25.3339
140.918
20.6167
20.6244
69.2797
140.599
152.226
302.003
302.075
152.563
68.9388
25.3384
20.6246
140.915
20.6331
140.595
69.2751
152.529
302.038
301.967
152.193
69.257
20.6557
140.503
25.3631
20.6451
140.829
68.9272
152.524
302.047
301.98
152.187
68.9584
25.3461
140.867
20.6242
140.562
20.6307
69.2942
152.22
301.944
302.035
152.54
68.9517
25.3549
20.6297
140.846
20.6367
140.534
69.2817
152.215
301.966
302.049
152.538
199.37
197.369
32.3316
199.543
197.472
410.341
410.22
411.675
411.858
32.2559
199.546
197.471
199.369
197.364
410.208
410.332
66.0434
20.1586
137.895
24.8606
20.1568
138.098
65.935
148.576
299.924
299.892
148.434
148.579
299.932
299.901
148.439
65.9116
24.8691
20.1534
138.055
20.1545
137.863
66.0543
65.9173
24.8535
20.1533
138.113
20.1548
137.92
66.0552
148.436
299.885
299.929
148.573
148.44
299.893
299.937
148.574
411.818
411.628
410.398
410.277
32.2754
199.346
197.635
199.198
197.531
411.61
411.797
410.263
410.386
410.306
410.173
411.862
411.671
197.366
199.412
32.2867
197.421
199.538
410.16
410.286
411.66
411.839
32.2096
197.352
199.47
197.283
199.34
148.557
299.927
148.381
299.88
66.0672
137.95
20.2133
24.886
65.8879
138.128
20.1983
66.0691
137.998
20.2144
24.8719
65.8933
138.142
20.198
148.397
299.867
299.914
148.496
148.402
299.875
299.916
148.5
65.9504
24.8729
137.991
20.1755
137.922
20.1857
66.0135
65.9522
24.8531
138.073
20.1751
137.938
20.1849
66.0156
197.523
199.264
32.2938
197.581
199.322
411.794
411.598
410.201
410.321
32.208
197.545
199.285
197.455
199.156
411.603
411.773
69.2846
140.623
20.6105
25.3151
68.9722
140.914
20.6063
152.57
302.07
152.249
301.978
69.2809
20.6182
140.62
25.3221
68.9682
20.6137
140.913
152.251
301.936
302.024
152.464
68.9715
25.3039
140.781
20.5952
140.598
20.6016
69.2447
152.246
301.952
302.041
152.462
68.9669
25.3114
20.6021
140.781
20.6089
140.596
69.2383
152.402
302.008
152.209
301.919
69.2363
20.6224
140.546
25.331
68.9711
20.6129
140.8
152.433
302.03
152.211
301.943
68.8647
25.2836
140.611
20.5806
140.37
20.5914
68.9883
152.028
301.923
301.989
152.279
68.8851
25.3111
20.5899
140.633
20.6011
140.461
69.0138
152.063
301.938
302.01
152.274
199.366
197.356
32.3322
199.493
197.409
410.318
410.186
411.64
411.821
32.2566
199.425
197.347
199.295
197.278
410.176
410.296
66.0277
20.1524
137.931
24.8421
65.9316
20.1513
138.079
148.527
299.917
148.423
299.855
148.531
299.924
148.427
299.865
65.8863
24.8403
20.1438
137.87
20.1481
137.816
65.928
65.8924
24.8301
20.144
137.928
20.1484
137.866
65.9355
148.356
299.833
299.883
148.381
148.361
299.843
299.894
148.385
411.777
411.593
410.37
410.24
32.2682
199.257
197.514
199.091
197.437
411.595
411.765
410.233
410.348
410.276
410.16
411.836
411.672
197.233
199.287
32.1872
197.354
199.476
410.163
410.277
411.687
411.85
32.1036
197.38
199.521
197.246
199.308
148.581
299.913
148.363
299.875
65.9686
137.792
20.168
24.827
65.858
137.957
20.1639
65.9745
137.884
20.1687
24.834
65.8605
138.079
20.1658
148.445
299.871
299.906
148.575
148.448
299.876
299.912
148.578
65.8662
24.8255
138.016
20.1605
137.787
20.1622
66.035
65.8732
24.844
138.093
20.1622
137.909
20.1644
66.0395
197.455
199.171
32.2054
197.578
199.428
411.782
411.651
410.191
410.28
32.1495
197.606
199.48
197.525
199.284
411.659
411.846
69.023
140.43
20.5864
25.2507
68.8957
140.664
20.5786
152.286
302.021
152.085
301.957
69.0178
20.5932
140.428
25.2565
68.8896
20.5851
140.661
151.987
301.958
302.014
152.442
68.664
25.248
140.789
20.5762
140.377
20.5753
69.0237
151.983
301.978
302.033
152.438
68.6584
25.2533
20.5824
140.784
20.5817
140.372
69.016
152.461
301.999
151.993
301.943
69.0095
20.584
140.318
25.2684
68.6552
20.5839
140.685
152.442
302.012
151.975
301.956
68.7981
25.2733
140.808
20.5866
140.485
20.5815
69.2538
152.177
301.955
302.019
152.488
68.7637
25.2711
20.5936
140.807
20.5872
140.425
69.2449
152.166
301.971
302.032
152.492
199.241
197.234
32.2277
199.431
197.361
410.293
410.187
411.664
411.827
32.1433
199.475
197.401
199.261
197.26
410.201
410.307
65.8175
20.141
137.728
24.7843
65.7701
20.1404
137.894
148.353
299.871
148.218
299.843
148.355
299.88
148.223
299.851
65.6892
24.794
20.1466
137.928
20.1419
137.688
65.8935
65.6928
24.7842
20.1458
137.973
20.1415
137.728
65.8927
148.232
299.86
299.886
148.453
148.235
299.868
299.892
148.454
411.77
411.607
410.348
410.245
32.1467
199.318
197.568
199.121
197.429
411.617
411.783
410.257
410.362
410.279
410.164
411.866
411.699
197.271
199.352
32.269
197.393
199.546
410.163
410.278
411.706
411.876
32.1983
197.397
199.558
197.28
199.37
148.567
299.914
148.425
299.879
65.9703
137.842
20.1574
24.846
65.9032
138.034
20.1533
65.9697
137.905
20.1582
24.8437
65.9052
138.087
20.1536
148.423
299.873
299.911
148.577
148.431
299.88
299.917
148.592
65.841
24.8464
138.03
20.1464
137.849
20.1494
66.0055
65.8431
24.8419
138.105
20.1467
137.911
20.1496
66.0165
197.477
199.29
32.2657
197.584
199.414
411.826
411.644
410.2
410.318
32.1839
197.57
199.386
197.471
199.257
411.644
411.821
69.2621
140.527
20.5808
25.2759
68.7801
140.855
20.5854
152.509
302.054
152.165
301.991
69.2541
20.5869
140.522
25.2795
68.772
20.5914
140.855
152.175
301.974
302.04
152.463
68.9537
25.2773
140.829
20.5802
140.544
20.5851
69.1546
152.17
301.999
302.064
152.459
68.9461
25.2807
20.5862
140.831
20.5911
140.543
69.1473
152.468
302.028
152.154
301.961
69.1448
20.595
140.503
25.2928
68.9384
20.592
140.769
152.46
302.044
152.155
301.977
68.8195
25.2871
140.834
20.582
140.507
20.5815
69.2161
152.166
301.966
302.034
152.525
68.8105
25.2919
20.5879
140.81
20.5881
140.469
69.1937
152.157
301.984
302.05
152.518
199.305
197.297
32.3052
199.5
197.426
410.319
410.209
411.68
411.85
32.2346
199.513
197.441
199.322
197.319
410.214
410.327
65.9783
20.1493
137.807
24.8064
65.8077
20.1507
138.022
148.481
299.901
148.322
299.871
148.483
299.908
148.325
299.88
65.854
24.8175
20.1503
137.987
20.1513
137.788
65.9859
65.8555
24.8078
20.1498
138.051
20.1508
137.848
65.9867
148.345
299.879
299.911
148.515
148.348
299.887
299.92
148.516
411.791
411.623
410.373
410.265
32.2366
199.342
197.601
199.155
197.484
411.627
411.797
410.268
410.38
410.277
410.162
411.883
411.709
197.285
199.385
32.2608
197.399
199.573
410.163
410.275
411.708
411.885
32.1953
197.394
199.573
197.285
199.397
148.583
299.919
148.446
299.879
66.0163
137.852
20.1443
24.8492
65.895
138.044
20.143
66.0227
137.924
20.1446
24.8472
65.9059
138.104
20.1433
148.43
299.869
299.909
148.547
148.438
299.878
299.916
148.566
65.8894
24.8499
138.029
20.1414
137.86
20.1421
66.0155
65.8956
24.8492
138.089
20.1419
137.922
20.1425
66.0261
197.482
199.261
32.295
197.593
199.483
411.822
411.677
410.188
410.274
32.2219
197.603
199.498
197.536
199.328
411.672
411.869
69.1929
140.539
20.5774
25.28
68.8188
140.884
20.5778
152.525
302.073
152.155
302.006
69.1862
20.5835
140.541
25.2837
68.8116
20.5839
140.891
152.223
301.98
302.051
152.531
68.9181
25.285
140.885
20.5811
140.591
20.5793
69.2653
152.218
302.006
302.078
152.53
68.911
25.2897
20.5875
140.897
20.5855
140.599
69.2578
152.512
302.038
152.211
301.967
69.2435
20.5888
140.524
25.2994
68.9204
20.5891
140.835
152.512
302.057
152.206
301.987
68.912
25.2958
140.821
20.5801
140.543
20.5811
69.2115
152.193
301.968
302.039
152.516
68.9109
25.3003
20.5867
140.815
20.5878
140.528
69.2051
152.192
301.985
302.057
152.511
199.337
197.333
32.2951
199.529
197.451
410.331
410.215
411.68
411.856
32.2322
199.529
197.449
199.351
197.341
410.213
410.33
66.0208
20.1479
137.874
24.8139
65.8724
20.1467
138.072
148.533
299.918
148.38
299.882
148.535
299.925
148.383
299.89
65.8987
24.8243
20.1456
138.017
20.146
137.837
66.0248
65.9019
24.815
20.1455
138.074
20.146
137.892
66.0298
148.392
299.882
299.92
148.538
148.396
299.89
299.928
148.541
411.8
411.628
410.381
410.268
32.244
199.346
197.604
199.173
197.498
411.626
411.801
410.266
410.381
410.278
410.17
411.883
411.702
197.28
199.394
32.2672
197.391
199.571
410.18
410.286
411.702
411.877
32.1922
197.39
199.57
197.276
199.394
148.546
299.917
148.414
299.879
65.9943
137.844
20.141
24.848
65.8893
138.017
20.1408
66.0044
137.904
20.1414
24.8405
65.9015
138.08
20.1412
148.393
299.875
299.91
148.508
148.399
299.882
299.918
148.527
65.8695
24.8461
138.004
20.1409
137.83
20.1408
65.9984
65.8773
24.8382
138.072
20.1413
137.894
20.1412
66.0069
197.473
199.307
32.2636
197.574
199.423
411.838
411.649
410.216
410.322
32.1914
197.559
199.385
197.459
199.264
411.643
411.825
69.2146
140.582
20.581
25.284
68.9425
140.881
20.5796
152.511
302.077
152.204
302.004
69.2151
20.5877
140.593
25.2894
68.9368
20.5865
140.886
152.2
301.982
302.052
152.524
68.8974
25.282
140.872
20.578
140.579
20.5783
69.22
152.197
302.003
302.074
152.52
68.8971
25.2872
20.5847
140.873
20.5852
140.581
69.2112
152.506
302.04
152.197
301.97
69.2046
20.586
140.516
25.2957
68.9016
20.5853
140.825
152.503
302.056
152.192
301.985
68.8894
25.2903
140.822
20.5791
140.548
20.5786
69.2225
152.192
301.97
302.042
152.524
68.8847
25.2959
20.5854
140.816
20.5851
140.523
69.2133
152.19
301.983
302.055
152.52
199.348
197.338
32.3059
199.526
197.449
410.329
410.213
411.68
411.854
32.2309
199.526
197.448
199.346
197.337
410.213
410.328
66.0219
20.1449
137.889
24.8111
65.9056
20.1444
138.065
148.535
299.92
148.395
299.883
148.537
299.927
148.4
299.89
65.8936
24.8226
20.1442
138.01
20.1443
137.842
66.023
65.8977
24.811
20.1439
138.068
20.144
137.881
66.0238
148.392
299.883
299.92
148.532
148.396
299.89
299.927
148.533
411.799
411.626
410.379
410.267
32.2213
199.346
197.605
199.171
197.497
411.625
411.799
410.267
410.38
410.298
410.192
411.876
411.702
197.278
199.393
32.2621
197.396
199.574
410.201
410.31
411.701
411.876
32.1934
197.401
199.575
197.282
199.397
148.521
299.921
148.378
299.885
65.9805
137.825
20.1412
24.8465
65.872