/*--------------------------------*- C++ -*----------------------------------*\
| =========                 |                                                 |
| \\      /  F ield         | OpenFOAM: The Open Source CFD Toolbox           |
|  \\    /   O peration     | Version:  2206                                  |
|   \\  /    A nd           | Website:  www.openfoam.com                      |
|    \\/     M anipulation  |                                                 |
\*---------------------------------------------------------------------------*/
FoamFile
{
    version     2.0;
    format      ascii;
    arch        "LSB;label=32;scalar=64";
    class       volVectorField;
    location    "0.4";
    object      wallShearStress;
}
// * * * * * * * * * * * * * * * * * * * * * * * * * * * * * * * * * * * * * //

dimensions      [0 2 -2 0 0 0 0];

internalField   uniform (0 0 0);

boundaryField
{
    topPatch
    {
        type            calculated;
        value           uniform (0 0 0);
    }
    wall
    {
        type            calculated;
        value           nonuniform List<vector> 
46496
(
(-1.59322e-09 -3.12774e-09 -0.000125094)
(6.97697e-09 9.101e-10 -0.000130473)
(-2.69309e-09 -1.93488e-09 -0.000125153)
(7.13998e-10 6.39465e-09 -0.000130516)
(-8.1818e-09 1.78513e-09 -0.000130485)
(1.84025e-09 -7.98908e-09 -0.000130524)
(2.77898e-10 -3.69057e-09 -0.000125086)
(-2.71932e-09 -9.43685e-09 -0.000130527)
(-3.55462e-09 -4.21271e-11 -0.000125154)
(2.02791e-09 -3.6546e-09 -0.000125152)
(2.83825e-09 1.64654e-09 -0.000125156)
(-1.11502e-08 -3.58657e-09 -0.000130501)
(-5.00549e-09 1.81124e-09 -0.0001251)
(3.13611e-09 2.5847e-09 -0.000125099)
(-1.62894e-09 7.71897e-09 -0.000130524)
(9.10659e-09 -2.23515e-09 -0.000130496)
(-7.50513e-09 5.05675e-09 -0.000130009)
(3.69841e-09 2.15784e-09 -0.00012514)
(-6.93232e-09 -1.27614e-09 -0.000130476)
(-2.68155e-09 6.51774e-09 -0.000127612)
(-1.61506e-09 2.12527e-09 -0.000128652)
(6.0688e-09 -1.26842e-08 -0.00012973)
(3.98854e-09 -1.34798e-09 -0.00012511)
(-2.82888e-09 -1.70509e-09 -0.000125153)
(-6.01805e-10 -5.58439e-09 -0.000130456)
(8.30543e-10 6.67504e-09 -0.000130513)
(3.49459e-10 3.10298e-09 -0.000125786)
(-1.74505e-09 -1.25094e-09 -0.00012571)
(4.01071e-09 -1.72015e-10 -0.000125737)
(-3.01641e-09 -5.28264e-10 -0.0001257)
(5.93499e-10 2.22562e-09 -0.000130226)
(3.74474e-09 -6.17732e-10 -0.000130221)
(-1.32132e-09 -1.4957e-09 -0.000130155)
(-2.66301e-09 -3.61473e-10 -0.000130164)
(6.77476e-09 -1.06111e-09 -0.000130488)
(5.42296e-10 3.83628e-09 -0.000130461)
(1.71248e-09 -7.83351e-09 -0.000130525)
(-4.30924e-09 1.90856e-09 -0.000125131)
(2.69953e-10 -3.17251e-09 -0.000125782)
(-2.48806e-09 6.93071e-10 -0.000125713)
(4.06874e-09 1.94898e-09 -0.000130225)
(3.9298e-10 4.42732e-09 -0.000130166)
(-7.73955e-10 3.43138e-09 -0.000130467)
(-2.73498e-09 -7.19458e-09 -0.000127611)
(-1.60946e-09 -2.13111e-09 -0.00012865)
(5.53525e-09 1.06625e-08 -0.000129731)
(3.09891e-09 -8.1463e-10 -0.00012511)
(-3.79346e-09 -6.14807e-10 -0.000125152)
(-4.40997e-09 -2.51508e-09 -0.000125111)
(-5.76864e-09 1.15992e-08 -0.00012973)
(-3.76342e-09 9.06285e-10 -0.000125112)
(-3.41332e-09 7.44149e-12 -0.000125765)
(2.3952e-09 -1.41198e-09 -0.000125741)
(1.40524e-09 3.17204e-09 -0.000130227)
(4.13827e-09 -5.65687e-10 -0.000130506)
(-1.14003e-08 -6.16935e-09 -0.00013)
(4.55504e-10 -3.52491e-09 -0.000125149)
(9.84376e-09 -5.74305e-09 -0.000129996)
(-2.79005e-09 -2.60489e-09 -0.000125146)
(-4.93994e-10 -3.76837e-09 -0.000130461)
(-6.76845e-09 1.02362e-09 -0.000130499)
(7.44873e-09 5.06631e-09 -0.000129999)
(-6.09304e-09 -1.29076e-08 -0.000129727)
(-7.79882e-09 3.11002e-09 -0.000127415)
(2.75549e-09 -1.82356e-09 -0.000128412)
(-1.62473e-09 1.82736e-09 -0.000128407)
(8.99273e-09 -3.18385e-09 -0.000127413)
(1.12129e-08 -6.01092e-09 -0.000129962)
(4.94279e-09 7.71054e-10 -0.000125741)
(-2.36753e-09 3.53051e-10 -0.000125695)
(8.51095e-09 5.07727e-09 -0.000130215)
(1.6019e-09 3.49779e-09 -0.000130153)
(-4.86844e-09 8.4238e-09 -0.000129799)
(3.05793e-09 -9.98165e-09 -0.000127487)
(-1.57964e-09 2.08203e-09 -0.000128652)
(1.51553e-09 -2.95435e-09 -0.000128519)
(-2.62194e-09 6.40115e-09 -0.000127612)
(-4.93904e-09 8.58374e-09 -0.0001298)
(3.26298e-13 3.64982e-09 -0.000125758)
(9.94838e-10 -1.84047e-09 -0.000125669)
(2.56519e-09 6.38906e-09 -0.000130217)
(6.77408e-09 5.20011e-09 -0.000130134)
(-3.99586e-09 1.54332e-10 -0.000125764)
(2.45327e-09 9.32572e-10 -0.000125729)
(-4.40419e-09 1.21594e-09 -0.000130217)
(2.09099e-09 8.95851e-10 -0.000130164)
(-4.95808e-10 -2.74032e-09 -0.000125762)
(1.38431e-09 1.83891e-09 -0.000125684)
(-1.29958e-09 -1.30701e-09 -0.000130223)
(7.01742e-10 2.26185e-09 -0.000130152)
(8.55929e-09 3.24887e-09 -0.000127412)
(-2.12464e-09 -1.787e-09 -0.000128415)
(2.83076e-09 1.87117e-09 -0.000128408)
(-8.90238e-09 -3.20714e-09 -0.000127413)
(-1.18304e-08 -6.17402e-09 -0.000129954)
(3.02635e-09 9.36025e-09 -0.000127486)
(-1.55902e-09 -2.09915e-09 -0.00012865)
(1.52629e-09 2.96333e-09 -0.000128516)
(-2.67821e-09 -7.10253e-09 -0.000127611)
(-5.42144e-09 -1.0481e-08 -0.000129801)
(-5.44995e-09 -1.05195e-08 -0.0001298)
(4.71836e-09 7.62512e-09 -0.000129794)
(-3.08461e-09 -1.02979e-08 -0.000127484)
(1.61653e-09 2.16216e-09 -0.000128651)
(-1.49266e-09 -2.96826e-09 -0.000128517)
(2.63615e-09 6.16231e-09 -0.000127607)
(-3.11106e-09 1.00535e-08 -0.000127483)
(1.58929e-09 -1.88705e-09 -0.000128647)
(-1.51685e-09 3.32791e-09 -0.000128513)
(2.63173e-09 -6.58156e-09 -0.000127608)
(5.15654e-09 -9.37532e-09 -0.0001298)
(9.68524e-09 5.07989e-09 -0.00013019)
(7.28374e-09 5.05259e-09 -0.00012995)
(-1.10248e-08 -3.95245e-09 -0.000127405)
(2.10382e-09 2.23485e-09 -0.000128404)
(-2.76417e-09 -2.24168e-09 -0.000128401)
(6.83987e-09 3.3637e-09 -0.000127402)
(-8.71423e-09 5.43574e-09 -0.000129948)
(9.76091e-09 -3.37116e-09 -0.000127408)
(-2.79068e-09 1.92947e-09 -0.000128408)
(2.09434e-09 -1.82227e-09 -0.000128405)
(-7.68828e-09 3.16205e-09 -0.000127406)
(3.02362e-08 -1.37851e-08 -0.000130539)
(3.43082e-09 -1.71895e-09 -0.000130453)
(2.5435e-09 2.75674e-09 -0.00012521)
(4.96885e-09 -3.81922e-09 -0.0001251)
(2.35427e-09 -2.45427e-09 -0.0001251)
(-4.85381e-10 -5.37794e-09 -0.000130447)
(6.09294e-09 7.49195e-10 -0.000130498)
(2.52593e-09 -2.70059e-09 -0.000125144)
(1.50268e-08 -1.13271e-08 -0.000130523)
(2.09827e-08 -9.40766e-09 -0.000130487)
(4.69427e-09 -1.3303e-08 -0.000130518)
(2.69587e-09 -1.79932e-10 -0.000130461)
(1.21681e-08 -4.35905e-09 -0.000130464)
(3.31553e-09 -4.97894e-09 -0.000130475)
(1.39478e-09 2.35956e-09 -0.000130468)
(3.63359e-09 -1.12853e-08 -0.000130526)
(8.07531e-09 -6.54423e-09 -0.000130542)
(4.47522e-09 -1.31622e-08 -0.000130515)
(-1.05515e-08 6.92796e-10 -0.000125173)
(-4.50408e-09 6.42854e-09 -0.000129812)
(-2.37527e-09 -3.1365e-09 -0.000125142)
(-4.62425e-09 -2.70702e-09 -0.000125144)
(5.27591e-10 6.21703e-09 -0.000130512)
(2.11129e-09 -1.09725e-09 -0.000125721)
(-5.10762e-09 -6.51788e-10 -0.000125759)
(1.26577e-09 -1.46318e-09 -0.000130165)
(-5.5184e-09 -2.0375e-09 -0.000130223)
(-9.63215e-09 -2.28323e-09 -0.000130495)
(-2.34522e-09 3.12007e-09 -0.000125097)
(2.78213e-08 -1.3202e-08 -0.000130512)
(9.14343e-09 -8.36724e-09 -0.000130495)
(3.20395e-09 -1.0199e-09 -0.000130458)
(4.27645e-09 -1.24826e-08 -0.000130523)
(-8.91021e-10 -2.58312e-09 -0.000130464)
(1.58286e-08 -6.39745e-09 -0.000130473)
(2.94116e-09 -9.9176e-09 -0.00013053)
(1.98495e-09 1.2646e-09 -0.000130465)
(5.28061e-09 -6.61301e-09 -0.000125149)
(1.28004e-08 -2.38803e-09 -0.000125136)
(-1.77318e-08 -1.311e-08 -0.000130512)
(-1.89539e-08 -8.07465e-09 -0.000130474)
(-1.49232e-09 -4.77055e-09 -0.000125146)
(5.33668e-09 -4.71255e-09 -0.000125109)
(1.07741e-09 6.72205e-09 -0.00013051)
(4.36074e-10 -4.05188e-09 -0.000130453)
(4.62719e-09 -5.86006e-09 -0.000125056)
(5.48889e-09 1.24476e-09 -0.000125096)
(4.33376e-09 -8.28663e-10 -0.000130448)
(-5.53434e-09 -5.91118e-10 -0.000130449)
(-2.37033e-09 -2.61102e-09 -0.000125158)
(3.86439e-09 -9.16968e-10 -0.000125119)
(2.24342e-09 8.68476e-09 -0.000130525)
(1.13824e-09 -2.72409e-09 -0.000130467)
(-3.76856e-09 -2.30119e-09 -0.00012505)
(-3.15403e-10 3.69583e-09 -0.000125099)
(1.19805e-08 3.5972e-09 -0.000130443)
(-3.60642e-11 2.73807e-09 -0.00013045)
(-3.6157e-09 5.41286e-10 -0.000125167)
(2.73987e-09 1.94022e-09 -0.000125127)
(2.61332e-09 9.3834e-09 -0.000130536)
(1.24361e-09 -2.49396e-09 -0.000130476)
(-7.39053e-09 -8.46691e-10 -0.000125059)
(-3.23479e-09 4.86245e-09 -0.000125108)
(1.1558e-08 3.37833e-09 -0.000130452)
(-1.13483e-09 1.98016e-09 -0.00013046)
(-4.502e-09 2.68608e-09 -0.000125171)
(2.09635e-09 3.33653e-09 -0.000125127)
(2.3801e-09 9.1126e-09 -0.000130539)
(1.01905e-09 -2.74809e-09 -0.000130474)
(-7.74351e-09 -6.56146e-10 -0.000125069)
(-2.21772e-09 4.52046e-09 -0.00012512)
(1.56533e-08 5.63799e-09 -0.000130461)
(2.54971e-09 4.17575e-09 -0.000130468)
(-4.453e-09 2.4838e-09 -0.000125165)
(2.57441e-09 2.1391e-09 -0.00012512)
(2.15995e-09 8.79174e-09 -0.000130531)
(7.17282e-10 -3.30732e-09 -0.000130466)
(-5.2874e-09 -1.55377e-09 -0.000125084)
(9.02259e-10 3.35583e-09 -0.000125137)
(1.01265e-08 2.65967e-09 -0.000130472)
(-5.61113e-09 -3.88136e-10 -0.000130482)
(-3.18947e-09 -7.21765e-10 -0.000125161)
(4.05225e-09 -1.52316e-09 -0.000125118)
(1.82374e-09 8.09651e-09 -0.000130527)
(2.11438e-10 -4.30142e-09 -0.000130464)
(-1.8191e-09 -2.94848e-09 -0.0001251)
(4.2885e-09 1.972e-09 -0.000125149)
(6.96438e-09 9.79868e-10 -0.000130482)
(-6.82898e-09 -8.91353e-10 -0.000130487)
(-1.95235e-09 -3.81008e-09 -0.000125162)
(4.98456e-09 -3.92854e-09 -0.000125119)
(1.16975e-09 6.8422e-09 -0.000130528)
(-3.44449e-10 -5.30634e-09 -0.000130465)
(-5.02197e-11 -3.73024e-09 -0.000125105)
(5.07302e-09 1.58153e-09 -0.00012515)
(3.11975e-09 -1.18471e-09 -0.000130484)
(-9.88016e-09 -2.76357e-09 -0.000130488)
(-1.80295e-09 -4.31077e-09 -0.000125161)
(4.73779e-09 -3.43816e-09 -0.000125118)
(1.01299e-09 6.60858e-09 -0.000130527)
(-2.38374e-10 -5.04977e-09 -0.000130463)
(-4.54173e-10 -3.62601e-09 -0.000125101)
(4.27378e-09 1.85943e-09 -0.000125145)
(7.39933e-09 1.11443e-09 -0.00013048)
(-4.64965e-09 1.75955e-10 -0.000130481)
(-2.35562e-09 -2.96967e-09 -0.000125158)
(4.18195e-09 -2.04404e-09 -0.000125113)
(1.46178e-09 7.48087e-09 -0.000130523)
(2.58209e-10 -4.15824e-09 -0.000130459)
(-1.39903e-09 -3.25189e-09 -0.000125096)
(3.90357e-09 2.1417e-09 -0.000125139)
(6.47531e-09 5.75654e-10 -0.000130475)
(-7.48147e-09 -1.89354e-09 -0.00013048)
(-2.69565e-09 -2.08039e-09 -0.000125154)
(3.97794e-09 -1.44826e-09 -0.00012511)
(1.71005e-09 7.90216e-09 -0.000130519)
(4.13743e-10 -3.91008e-09 -0.000130456)
(-1.85645e-09 -2.82571e-09 -0.000125093)
(3.91931e-09 2.4207e-09 -0.000125141)
(8.86835e-09 1.71153e-09 -0.000130476)
(-4.06529e-09 5.00536e-10 -0.000130478)
(-2.7842e-09 -1.78533e-09 -0.000125152)
(3.92332e-09 -1.25855e-09 -0.000125109)
(1.7344e-09 7.90724e-09 -0.000130518)
(3.71713e-10 -4.0073e-09 -0.000130455)
(-1.85424e-09 -3.06203e-09 -0.000125093)
(3.39663e-09 2.26068e-09 -0.000125139)
(6.92068e-09 2.02818e-10 -0.000130474)
(-7.49341e-09 -1.5055e-09 -0.000130479)
(-2.75375e-09 -1.84932e-09 -0.000125152)
(3.98696e-09 -1.41615e-09 -0.000125109)
(1.71378e-09 7.87109e-09 -0.000130518)
(4.02878e-10 -3.95705e-09 -0.000130455)
(-1.79316e-09 -3.07417e-09 -0.000125094)
(3.37282e-09 2.26872e-09 -0.000125139)
(8.43098e-09 1.69786e-09 -0.000130473)
(-4.35789e-09 3.50274e-10 -0.000130476)
(-2.7493e-09 -1.87775e-09 -0.000125152)
(3.98388e-09 -1.4084e-09 -0.000125109)
(1.72965e-09 7.90764e-09 -0.000130518)
(4.03271e-10 -3.96578e-09 -0.000130456)
(-1.83693e-09 -3.06248e-09 -0.000125094)
(3.36637e-09 2.26413e-09 -0.000125139)
(6.34299e-09 5.32517e-10 -0.000130473)
(-7.49212e-09 -1.48889e-09 -0.000130478)
(-2.71484e-09 -1.95239e-09 -0.000125152)
(3.9826e-09 -1.4337e-09 -0.000125109)
(1.65315e-09 7.77466e-09 -0.000130518)
(4.05476e-10 -3.94491e-09 -0.000130456)
(-1.76354e-09 -3.0834e-09 -0.000125094)
(3.47016e-09 2.22261e-09 -0.000125139)
(8.45832e-09 1.71862e-09 -0.000130473)
(-4.31206e-09 3.74314e-10 -0.000130476)
(-2.7171e-09 -1.95336e-09 -0.000125152)
(3.99867e-09 -1.46895e-09 -0.000125109)
(1.66523e-09 7.78225e-09 -0.000130517)
(5.0948e-10 -3.76008e-09 -0.000130457)
(-1.6818e-09 -3.13663e-09 -0.000125094)
(3.49837e-09 2.19684e-09 -0.000125139)
(6.28405e-09 4.92776e-10 -0.000130473)
(-7.30619e-09 -1.39133e-09 -0.000130478)
(-2.73489e-09 -1.92984e-09 -0.000125152)
(3.98258e-09 -1.47131e-09 -0.000125109)
(1.65516e-09 7.81343e-09 -0.000130516)
(2.59428e-10 -4.24795e-09 -0.000130458)
(-1.67299e-09 -3.13179e-09 -0.000125094)
(3.55824e-09 2.16268e-09 -0.000125139)
(8.03756e-09 1.52332e-09 -0.000130474)
(-4.33268e-09 4.24811e-10 -0.000130479)
(-2.71014e-09 -1.97398e-09 -0.000125153)
(3.91192e-09 -1.29231e-09 -0.000125109)
(1.44471e-09 7.76208e-09 -0.000130515)
(1.90277e-09 -1.53345e-09 -0.00013045)
(-8.04342e-09 -7.75249e-09 -0.000125142)
(-1.16714e-08 -1.91034e-09 -0.000125127)
(1.04564e-08 -8.9336e-10 -0.000125104)
(7.37222e-09 -7.39291e-09 -0.000125078)
(-8.83372e-09 -2.38967e-10 -0.000125098)
(-6.06136e-09 -6.77494e-09 -0.000125071)
(-6.20212e-09 -1.57111e-08 -0.000130522)
(-1.43649e-09 2.16329e-09 -0.000130473)
(-1.26774e-08 -4.77347e-09 -0.00013046)
(-4.61275e-09 -5.39164e-09 -0.000130464)
(-2.58864e-09 5.53344e-10 -0.000130476)
(-4.32902e-09 -1.2747e-08 -0.000130536)
(-3.79069e-09 -1.06455e-09 -0.000125145)
(3.80889e-09 7.581e-10 -0.000125108)
(4.50988e-09 -2.53845e-09 -0.000125114)
(-1.52649e-09 -4.81611e-09 -0.000125153)
(3.98862e-09 1.25987e-09 -0.000125114)
(-2.72197e-09 1.73289e-09 -0.000125153)
(7.47866e-10 -6.75032e-09 -0.000125145)
(-5.03421e-09 -3.71588e-09 -0.000125113)
(2.88173e-09 1.34576e-09 -0.000125148)
(-4.41959e-09 2.23656e-09 -0.000125112)
(-4.8835e-09 -3.37663e-09 -0.000125118)
(1.91776e-09 -3.80093e-09 -0.000125156)
(-3.92757e-09 1.00659e-09 -0.00012512)
(2.25718e-09 2.80634e-09 -0.000125158)
(-9.37948e-09 -2.47619e-09 -0.000130494)
(5.9617e-09 5.06963e-10 -0.000130503)
(8.92463e-10 -3.23874e-09 -0.00013046)
(1.80495e-09 7.88079e-09 -0.000130518)
(6.51847e-09 8.0702e-10 -0.00013051)
(-9.28642e-09 -2.46851e-09 -0.000130499)
(-3.71384e-09 2.24197e-09 -0.000125097)
(1.78595e-09 -3.06525e-09 -0.000125148)
(2.70613e-09 2.68416e-09 -0.000125091)
(-2.02431e-09 -3.01186e-09 -0.000125143)
(2.77752e-09 -2.71077e-09 -0.000125155)
(-3.85485e-09 2.1481e-09 -0.000125101)
(-1.43716e-09 -3.2347e-09 -0.00012515)
(3.68004e-09 2.2165e-09 -0.000125098)
(-2.35914e-09 8.86329e-09 -0.000130517)
(-1.13632e-09 -2.83957e-09 -0.000130462)
(8.85911e-09 -2.08158e-09 -0.000130486)
(-5.38972e-09 1.49337e-10 -0.000130495)
(-4.56948e-10 -4.03667e-09 -0.000130469)
(-2.11705e-09 8.3979e-09 -0.000130527)
(-4.69723e-09 -1.95673e-10 -0.000130503)
(1.02441e-08 -2.99442e-09 -0.000130493)
(-4.08452e-09 -8.02318e-10 -0.000130457)
(6.52366e-09 -1.16548e-09 -0.000130456)
(2.37891e-09 -8.90045e-09 -0.000130533)
(2.35825e-10 4.45241e-09 -0.000130475)
(3.43089e-09 6.59837e-10 -0.000130455)
(-9.35903e-09 2.19729e-09 -0.000130451)
(-6.90284e-10 6.18189e-09 -0.000130478)
(1.22647e-09 -6.82258e-09 -0.000130539)
(-3.81033e-09 -5.52149e-09 -0.000125048)
(-4.5039e-09 1.69128e-09 -0.000125089)
(1.94277e-09 2.8004e-09 -0.000125094)
(-7.22526e-10 -3.63826e-09 -0.000125049)
(-1.92313e-09 2.82576e-09 -0.000125088)
(1.41035e-09 -3.3562e-09 -0.000125042)
(-3.51415e-09 -1.06312e-08 -0.000130542)
(-7.68997e-10 3.40929e-09 -0.000130485)
(-4.24664e-09 1.87024e-10 -0.000130451)
(1.14197e-08 3.29316e-09 -0.000130442)
(-2.64554e-10 4.34542e-09 -0.000130484)
(-9.95585e-10 -6.43566e-09 -0.000130548)
(-2.55866e-09 2.15716e-09 -0.000125159)
(4.26259e-09 2.03282e-09 -0.00012512)
(3.23077e-09 7.8534e-10 -0.000125123)
(-2.97501e-09 -1.1112e-09 -0.000125163)
(4.47074e-09 2.50328e-09 -0.000125124)
(-2.28428e-09 2.94277e-09 -0.000125164)
(1.64091e-09 -4.35604e-09 -0.000125163)
(-4.2264e-09 -1.96933e-09 -0.000125126)
(2.80121e-09 1.48497e-09 -0.000125165)
(-3.8225e-09 9.46007e-10 -0.000125125)
(-3.68574e-09 -6.27795e-10 -0.000125127)
(2.57456e-09 -2.17981e-09 -0.000125168)
(-4.34004e-09 2.25516e-09 -0.000125128)
(2.69146e-09 1.96256e-09 -0.000125169)
(-8.73854e-09 -2.11775e-09 -0.000130507)
(7.07995e-09 1.13534e-09 -0.000130516)
(1.32033e-09 -2.43057e-09 -0.000130472)
(2.45951e-09 9.14274e-09 -0.000130531)
(7.24442e-09 1.18993e-09 -0.00013052)
(-8.33832e-09 -1.88871e-09 -0.000130512)
(-2.77706e-09 2.5935e-09 -0.000125108)
(3.00796e-09 -2.60653e-09 -0.00012516)
(4.2636e-09 2.00921e-09 -0.000125105)
(-1.92608e-09 -3.02132e-09 -0.000125156)
(2.94605e-09 -2.64309e-09 -0.000125164)
(-2.86902e-09 2.5728e-09 -0.000125113)
(-2.87668e-09 -2.65028e-09 -0.00012516)
(3.42189e-09 2.38755e-09 -0.00012511)
(-1.49134e-09 7.28747e-09 -0.000130533)
(-4.87405e-10 -3.8708e-09 -0.000130475)
(1.105e-08 -3.37533e-09 -0.000130501)
(-5.4863e-09 2.72845e-10 -0.000130511)
(-1.13013e-09 -2.67831e-09 -0.000130477)
(-1.70054e-09 7.77338e-09 -0.000130538)
(-6.77062e-09 9.46102e-10 -0.000130514)
(9.86134e-09 -2.68373e-09 -0.000130508)
(-1.19541e-08 3.77094e-09 -0.000130452)
(1.63288e-09 1.7005e-09 -0.00013046)
(4.39339e-10 -5.29643e-09 -0.000130542)
(-1.38808e-09 7.39009e-09 -0.000130481)
(5.40921e-10 2.30715e-09 -0.000130465)
(-1.36248e-08 4.69819e-09 -0.000130458)
(-2.0851e-09 8.64009e-09 -0.00013048)
(-2.70434e-10 -4.11613e-09 -0.000130544)
(3.11818e-09 -2.57812e-09 -0.000125043)
(1.7062e-09 4.24418e-09 -0.000125091)
(-1.9324e-09 4.36234e-09 -0.000125104)
(-6.0868e-09 -1.3812e-09 -0.000125055)
(3.73764e-10 3.70888e-09 -0.000125096)
(6.92356e-09 -1.00843e-09 -0.000125047)
(-8.19372e-10 -5.91449e-09 -0.000130548)
(3.24186e-09 1.06154e-08 -0.000130488)
(-3.86948e-09 3.23102e-10 -0.000130459)
(1.14126e-08 3.7411e-09 -0.000130448)
(7.25383e-10 6.4737e-09 -0.000130481)
(-4.44488e-11 -4.98417e-09 -0.000130549)
(-2.1724e-09 3.14967e-09 -0.000125169)
(4.48487e-09 2.63896e-09 -0.000125128)
(2.30459e-09 3.00018e-09 -0.000125128)
(-4.02854e-09 1.52556e-09 -0.00012517)
(4.50455e-09 2.74058e-09 -0.000125128)
(-2.10166e-09 3.4565e-09 -0.000125172)
(3.032e-09 -9.71986e-10 -0.00012517)
(-2.05139e-09 3.6369e-09 -0.00012513)
(2.24897e-09 3.04469e-09 -0.000125172)
(-4.45641e-09 2.61229e-09 -0.00012513)
(-2.60351e-09 2.16303e-09 -0.000125127)
(4.71819e-09 3.07687e-09 -0.000125171)
(-4.6926e-09 3.26337e-09 -0.00012513)
(2.10175e-09 3.48767e-09 -0.000125174)
(-8.16546e-09 -1.82883e-09 -0.000130516)
(7.48273e-09 1.3597e-09 -0.000130523)
(1.15302e-09 -2.59419e-09 -0.000130476)
(2.48161e-09 9.22816e-09 -0.000130539)
(7.05972e-09 1.1782e-09 -0.000130523)
(-8.06274e-09 -1.72306e-09 -0.000130518)
(-2.7631e-09 2.59787e-09 -0.000125116)
(3.21602e-09 -2.49739e-09 -0.000125167)
(2.52401e-09 2.72103e-09 -0.000125114)
(-3.8299e-09 -2.23765e-09 -0.000125164)
(2.91162e-09 -2.56522e-09 -0.000125167)
(-2.71386e-09 2.67621e-09 -0.000125119)
(-3.33054e-09 -2.41486e-09 -0.000125163)
(2.05273e-09 2.96093e-09 -0.000125117)
(-2.3445e-09 8.95965e-09 -0.00013054)
(-1.29369e-09 -2.32812e-09 -0.000130479)
(8.69127e-09 -2.09028e-09 -0.000130511)
(-7.92099e-09 1.59673e-09 -0.000130518)
(-1.52822e-09 -1.85201e-09 -0.000130478)
(-2.4392e-09 9.19501e-09 -0.000130541)
(-7.62579e-09 1.46198e-09 -0.000130517)
(7.79761e-09 -1.56937e-09 -0.000130514)
(-1.45859e-08 5.23402e-09 -0.000130463)
(-2.92856e-10 2.74933e-09 -0.00013047)
(-9.21358e-10 -2.94785e-09 -0.000130543)
(-2.37071e-09 9.0922e-09 -0.000130478)
(-1.78871e-10 2.7035e-09 -0.000130474)
(-1.52273e-08 5.56754e-09 -0.000130468)
(-2.30999e-09 9.0024e-09 -0.000130474)
(-1.1181e-09 -2.66875e-09 -0.00013054)
(4.57065e-09 -1.99084e-09 -0.00012505)
(1.24113e-09 4.09957e-09 -0.000125098)
(-3.03909e-09 4.82677e-09 -0.000125113)
(-8.50021e-09 -4.10688e-10 -0.000125064)
(2.82006e-09 4.77389e-09 -0.000125103)
(6.84594e-09 -1.05287e-09 -0.000125053)
(-5.56255e-10 -5.36939e-09 -0.000130545)
(1.65115e-09 7.72257e-09 -0.000130481)
(-3.29088e-10 2.4055e-09 -0.000130467)
(1.5557e-08 5.70008e-09 -0.000130455)
(1.47326e-09 7.48847e-09 -0.000130475)
(1.20662e-09 -2.48908e-09 -0.000130543)
(-2.21209e-09 3.2418e-09 -0.000125172)
(4.3826e-09 2.59131e-09 -0.000125127)
(2.20358e-09 3.09035e-09 -0.000125123)
(-4.55875e-09 2.69508e-09 -0.000125169)
(4.34026e-09 2.46786e-09 -0.000125122)
(-2.20733e-09 3.37332e-09 -0.000125169)
(3.7668e-09 7.24333e-10 -0.00012517)
(-2.56991e-09 2.03452e-09 -0.000125127)
(2.03724e-09 3.71236e-09 -0.000125173)
(-4.27693e-09 2.32916e-09 -0.000125127)
(-2.64203e-09 1.91644e-09 -0.000125124)
(4.05402e-09 1.47305e-09 -0.000125169)
(-4.14452e-09 1.93849e-09 -0.000125124)
(2.39808e-09 2.86465e-09 -0.00012517)
(-8.46461e-09 -1.89058e-09 -0.000130517)
(7.07032e-09 1.22982e-09 -0.000130521)
(9.44756e-10 -2.8784e-09 -0.000130469)
(2.26903e-09 8.99077e-09 -0.000130535)
(7.04808e-09 1.2206e-09 -0.000130517)
(-8.41787e-09 -1.83615e-09 -0.000130515)
(-2.87188e-09 2.66687e-09 -0.000125119)
(2.95327e-09 -2.50101e-09 -0.000125166)
(2.54008e-09 2.79409e-09 -0.000125116)
(-3.25814e-09 -2.38365e-09 -0.000125162)
(2.83506e-09 -2.55276e-09 -0.000125162)
(-2.96447e-09 2.66156e-09 -0.000125116)
(-2.45727e-09 -2.71788e-09 -0.000125158)
(2.80222e-09 2.73416e-09 -0.000125114)
(-2.56952e-09 9.49396e-09 -0.00013054)
(-1.06054e-09 -2.6508e-09 -0.000130475)
(8.24308e-09 -1.78289e-09 -0.000130513)
(-7.40591e-09 1.39698e-09 -0.000130516)
(-7.90179e-10 -3.18495e-09 -0.000130472)
(-2.03143e-09 8.5411e-09 -0.000130537)
(-6.67504e-09 9.97273e-10 -0.000130512)
(8.53254e-09 -1.89578e-09 -0.000130511)
(-1.48095e-08 5.35474e-09 -0.000130472)
(7.88893e-10 2.19358e-09 -0.000130479)
(-9.69028e-10 -2.9236e-09 -0.000130536)
(-1.72344e-09 7.92417e-09 -0.000130471)
(2.4364e-09 1.35242e-09 -0.000130485)
(-1.37075e-08 4.78118e-09 -0.000130477)
(-7.24199e-10 6.12909e-09 -0.000130469)
(-2.09892e-10 -4.30436e-09 -0.000130533)
(7.39174e-09 -7.93957e-10 -0.000125059)
(4.88927e-09 5.59045e-09 -0.00012511)
(-8.65034e-10 4.03421e-09 -0.000125128)
(-6.92541e-09 -9.49047e-10 -0.000125076)
(3.87663e-10 3.82883e-09 -0.000125119)
(9.18864e-09 -4.25531e-12 -0.000125067)
(6.87136e-10 -3.23271e-09 -0.000130538)
(3.82128e-09 1.16849e-08 -0.000130477)
(-4.22028e-09 2.01156e-10 -0.000130479)
(1.33402e-08 4.81333e-09 -0.000130467)
(-2.46314e-10 4.74165e-09 -0.000130471)
(2.17816e-10 -4.47013e-09 -0.000130537)
(-2.40102e-09 2.86309e-09 -0.000125165)
(4.06535e-09 1.78437e-09 -0.000125119)
(3.30752e-09 3.76086e-10 -0.000125118)
(-3.90981e-09 1.09177e-09 -0.000125163)
(3.9259e-09 1.36216e-09 -0.000125118)
(-2.55154e-09 2.46429e-09 -0.000125162)
(3.90384e-09 1.19197e-09 -0.000125165)
(-1.88714e-09 3.94221e-09 -0.000125122)
(2.59569e-09 2.33149e-09 -0.000125167)
(-3.73806e-09 9.38326e-10 -0.000125122)
(-3.4772e-09 -6.16186e-11 -0.000125117)
(4.60711e-09 2.75363e-09 -0.000125162)
(-3.7992e-09 9.91926e-10 -0.00012512)
(2.88815e-09 1.62865e-09 -0.000125164)
(-8.36143e-09 -1.80382e-09 -0.000130511)
(7.31824e-09 1.34862e-09 -0.000130515)
(6.23426e-10 -3.53789e-09 -0.000130464)
(1.96583e-09 8.3964e-09 -0.000130528)
(6.91816e-09 1.10038e-09 -0.000130513)
(-8.20405e-09 -1.74546e-09 -0.000130509)
(-2.8379e-09 2.70335e-09 -0.000125113)
(3.17349e-09 -2.43379e-09 -0.00012516)
(3.30208e-09 2.51847e-09 -0.000125111)
(-2.70524e-09 -2.62123e-09 -0.000125157)
(2.74854e-09 -2.63588e-09 -0.000125159)
(-2.78403e-09 2.70246e-09 -0.000125111)
(-2.3718e-09 -2.7902e-09 -0.000125156)
(3.15476e-09 2.56248e-09 -0.000125109)
(-1.80676e-09 8.10552e-09 -0.000130533)
(-3.97629e-10 -3.8857e-09 -0.000130469)
(9.13453e-09 -2.22511e-09 -0.000130508)
(-6.85701e-09 1.09088e-09 -0.000130511)
(-5.04885e-10 -3.76167e-09 -0.000130468)
(-1.48295e-09 7.4911e-09 -0.000130531)
(-6.51019e-09 8.70823e-10 -0.000130509)
(8.92915e-09 -2.12566e-09 -0.000130506)
(-1.19554e-08 3.86441e-09 -0.000130483)
(4.31858e-09 3.14585e-10 -0.000130491)
(9.02342e-10 -6.24665e-09 -0.000130533)
(4.95007e-10 3.91838e-09 -0.00013047)
(6.39647e-09 -8.13115e-10 -0.000130495)
(-1.00184e-08 2.81386e-09 -0.000130489)
(1.38717e-09 2.25698e-09 -0.000130471)
(2.00916e-09 -8.2945e-09 -0.000130533)
(3.27067e-09 -2.36846e-09 -0.000125074)
(-2.95951e-09 2.57556e-09 -0.000125126)
(2.8028e-09 2.60513e-09 -0.000125144)
(-3.70705e-09 -2.18166e-09 -0.000125093)
(-5.0023e-09 1.74699e-09 -0.000125134)
(1.47943e-09 -3.07077e-09 -0.000125082)
(-2.0036e-09 -7.97241e-09 -0.000130535)
(-1.1522e-09 2.61331e-09 -0.000130473)
(-8.43247e-09 -1.9562e-09 -0.000130488)
(1.00361e-08 2.77133e-09 -0.000130476)
(-2.52186e-09 1.22537e-10 -0.00013047)
(-1.96001e-09 -8.24553e-09 -0.000130535)
(-2.81908e-09 1.74127e-09 -0.000125161)
(3.59227e-09 4.61995e-10 -0.000125118)
(4.67708e-09 -3.06311e-09 -0.000125118)
(-2.42094e-09 -2.65173e-09 -0.000125161)
(3.37841e-09 -1.54721e-10 -0.000125119)
(-3.06334e-09 1.0962e-09 -0.000125161)
(2.60378e-09 -2.20646e-09 -0.00012516)
(-4.50695e-09 -2.84018e-09 -0.000125118)
(2.90128e-09 1.50422e-09 -0.000125163)
(-3.51383e-09 2.86185e-10 -0.00012512)
(-5.21497e-09 -4.57334e-09 -0.000125117)
(1.93158e-09 -3.97036e-09 -0.000125159)
(-3.60666e-09 4.77771e-10 -0.00012512)
(3.11088e-09 1.01017e-09 -0.000125163)
(-8.64065e-09 -2.00634e-09 -0.000130508)
(6.58715e-09 9.1871e-10 -0.000130514)
(-6.82908e-11 -4.84552e-09 -0.000130464)
(1.40126e-09 7.27826e-09 -0.000130527)
(6.1101e-09 6.53307e-10 -0.000130514)
(-8.99138e-09 -2.20033e-09 -0.000130508)
(-3.07502e-09 2.56016e-09 -0.00012511)
(2.53324e-09 -2.72097e-09 -0.000125159)
(3.22898e-09 2.50277e-09 -0.000125109)
(-2.94989e-09 -2.55269e-09 -0.000125157)
(2.04395e-09 -2.91727e-09 -0.000125159)
(-3.49058e-09 2.39047e-09 -0.000125111)
(-2.78118e-09 -2.63085e-09 -0.000125157)
(2.84527e-09 2.6657e-09 -0.000125109)
(-1.59244e-09 7.63464e-09 -0.00013053)
(-2.73556e-10 -4.16037e-09 -0.000130468)
(9.23674e-09 -2.32097e-09 -0.000130505)
(-6.94133e-09 1.10426e-09 -0.00013051)
(-3.92969e-10 -3.98302e-09 -0.000130468)
(-1.35214e-09 7.20029e-09 -0.00013053)
(-6.90827e-09 1.07082e-09 -0.00013051)
(8.7401e-09 -2.0521e-09 -0.000130506)
(-7.94707e-09 1.68491e-09 -0.000130492)
(8.00764e-09 -1.71852e-09 -0.000130498)
(2.79382e-09 -9.77033e-09 -0.000130534)
(1.93454e-09 1.1719e-09 -0.000130472)
(8.83401e-09 -2.17774e-09 -0.000130498)
(-6.57855e-09 9.30874e-10 -0.000130495)
(2.00455e-09 1.01782e-09 -0.000130471)
(3.25649e-09 -1.07144e-08 -0.000130534)
(-6.73387e-10 -3.97693e-09 -0.00012509)
(-3.73442e-09 2.16642e-09 -0.000125139)
(5.03347e-09 1.64779e-09 -0.00012515)
(-7.99234e-10 -3.40966e-09 -0.000125104)
(-6.62501e-09 1.00128e-09 -0.000125142)
(1.34526e-09 -3.15296e-09 -0.000125095)
(-3.40671e-09 -1.07481e-08 -0.000130534)
(-2.31253e-10 4.22894e-09 -0.000130476)
(-1.19972e-08 -4.06964e-09 -0.000130493)
(3.91651e-09 -2.53959e-10 -0.000130484)
(-3.54783e-09 -1.47845e-09 -0.000130471)
(-3.76134e-09 -1.18552e-08 -0.000130537)
(-3.37421e-09 3.08252e-10 -0.000125162)
(3.15118e-09 -6.41404e-10 -0.00012512)
(5.00539e-09 -4.02258e-09 -0.000125118)
(-1.66554e-09 -4.61932e-09 -0.000125162)
(3.2272e-09 -4.46474e-10 -0.000125119)
(-3.43814e-09 2.23102e-10 -0.000125163)
(1.29767e-09 -5.42016e-09 -0.000125159)
(-4.46055e-09 -2.59756e-09 -0.000125119)
(3.07852e-09 1.05239e-09 -0.000125164)
(-3.36897e-09 -6.2861e-11 -0.000125121)
(-5.35799e-09 -4.93031e-09 -0.000125116)
(2.16952e-09 -3.47725e-09 -0.000125159)
(-3.46026e-09 1.65549e-10 -0.00012512)
(3.24855e-09 7.12161e-10 -0.000125164)
(-9.35719e-09 -2.39481e-09 -0.000130509)
(6.27193e-09 7.58401e-10 -0.000130514)
(-3.07562e-10 -5.23413e-09 -0.000130464)
(9.39837e-10 6.45681e-09 -0.000130528)
(6.23701e-09 7.47267e-10 -0.000130513)
(-9.17444e-09 -2.28274e-09 -0.000130509)
(-3.68613e-09 2.31836e-09 -0.000125111)
(2.27685e-09 -2.80946e-09 -0.00012516)
(2.9026e-09 2.6393e-09 -0.00012511)
(-3.29704e-09 -2.40307e-09 -0.000125157)
(2.18717e-09 -2.83611e-09 -0.000125159)
(-3.62231e-09 2.35595e-09 -0.000125111)
(-2.77998e-09 -2.60237e-09 -0.000125156)
(2.67837e-09 2.75317e-09 -0.000125109)
(-1.49735e-09 7.45464e-09 -0.000130531)
(-1.42825e-10 -4.37582e-09 -0.000130469)
(8.83618e-09 -2.10955e-09 -0.000130506)
(-7.3958e-09 1.3598e-09 -0.00013051)
(-1.79836e-10 -4.31619e-09 -0.000130468)
(-1.2254e-09 6.99546e-09 -0.000130531)
(-6.99498e-09 1.14667e-09 -0.000130508)
(8.39415e-09 -1.85354e-09 -0.000130505)
(-5.96313e-09 5.75734e-10 -0.000130495)
(8.74496e-09 -2.17881e-09 -0.000130497)
(3.21552e-09 -1.06656e-08 -0.000130534)
(1.7079e-09 1.49486e-09 -0.00013047)
(8.2119e-09 -1.90342e-09 -0.000130495)
(-6.20407e-09 6.56594e-10 -0.000130493)
(1.2408e-09 2.38891e-09 -0.000130467)
(2.85756e-09 -1.00724e-08 -0.000130532)
(-2.68154e-09 -4.80132e-09 -0.000125095)
(-6.45074e-09 1.07213e-09 -0.000125139)
(4.74879e-09 1.69696e-09 -0.000125147)
(-3.01137e-10 -3.67783e-09 -0.000125104)
(-5.032e-09 1.61174e-09 -0.000125137)
(-9.63168e-10 -4.15518e-09 -0.000125093)
(-4.79437e-09 -1.3242e-08 -0.000130535)
(-2.62645e-09 -2.24664e-10 -0.000130473)
(-8.84367e-09 -2.26357e-09 -0.000130488)
(6.79165e-09 9.34316e-10 -0.000130481)
(-2.16209e-09 7.18543e-10 -0.000130468)
(-2.96928e-09 -1.02474e-08 -0.000130535)
(-3.44239e-09 2.13226e-10 -0.000125162)
(3.27627e-09 -2.55008e-10 -0.000125118)
(4.46293e-09 -2.73406e-09 -0.000125115)
(-2.01646e-09 -3.85641e-09 -0.00012516)
(3.55003e-09 4.32629e-10 -0.000125115)
(-3.2534e-09 7.61937e-10 -0.00012516)
(9.66357e-10 -6.43856e-09 -0.000125159)
(-5.35285e-09 -5.10843e-09 -0.000125117)
(3.22243e-09 7.59217e-10 -0.000125164)
(-3.30085e-09 -2.13304e-10 -0.000125119)
(-4.98532e-09 -4.10563e-09 -0.000125115)
(1.3901e-09 -5.44294e-09 -0.000125159)
(-3.54792e-09 4.0134e-10 -0.000125117)
(3.28185e-09 6.65019e-10 -0.000125162)
(-9.17332e-09 -2.26813e-09 -0.000130508)
(6.63043e-09 9.83655e-10 -0.000130512)
(1.11535e-10 -4.41125e-09 -0.000130461)
(1.14025e-09 6.87983e-09 -0.000130525)
(6.69877e-09 1.02372e-09 -0.000130509)
(-8.78895e-09 -2.03831e-09 -0.000130506)
(-3.45336e-09 2.43968e-09 -0.00012511)
(2.68994e-09 -2.6123e-09 -0.000125157)
(3.03157e-09 2.62068e-09 -0.000125108)
(-3.00038e-09 -2.49517e-09 -0.000125154)
(2.63318e-09 -2.63778e-09 -0.000125155)
(-3.18471e-09 2.56468e-09 -0.000125108)
(-2.34234e-09 -2.76692e-09 -0.000125152)
(3.00586e-09 2.65048e-09 -0.000125106)
(-1.26969e-09 7.08137e-09 -0.000130531)