/*--------------------------------*- C++ -*----------------------------------*\
| =========                 |                                                 |
| \\      /  F ield         | OpenFOAM: The Open Source CFD Toolbox           |
|  \\    /   O peration     | Version:  2206                                  |
|   \\  /    A nd           | Website:  www.openfoam.com                      |
|    \\/     M anipulation  |                                                 |
\*---------------------------------------------------------------------------*/
FoamFile
{
    version     2.0;
    format      ascii;
    arch        "LSB;label=32;scalar=64";
    class       volScalarField;
    location    "150";
    object      div(phi);
}
// * * * * * * * * * * * * * * * * * * * * * * * * * * * * * * * * * * * * * //

dimensions      [0 0 -1 0 0 0 0];

internalField   nonuniform List<scalar> 
10720
(
5.23318e-05
-4.35394e-05
-1.46894e-05
-0.000145996
-1.14196e-05
-7.26638e-05
6.67744e-05
6.49197e-07
-5.96574e-06
-2.25935e-05
-1.65474e-05
-5.33727e-06
2.92029e-06
5.05728e-06
4.15031e-06
2.43463e-06
5.21067e-06
8.32842e-06
1.33145e-05
1.83642e-05
2.81643e-05
2.55888e-05
4.0919e-05
2.59332e-05
4.06665e-05
5.58521e-05
5.92191e-05
1.13636e-05
-2.9498e-05
-5.13853e-05
2.60493e-05
2.48165e-05
1.60437e-05
-1.08369e-06
6.50069e-05
7.49163e-05
9.75574e-05
0.000290263
0.00420723
5.98727e-05
0.000152671
1.1041e-05
7.52872e-05
-4.16195e-05
-2.52892e-05
1.46891e-05
9.31125e-05
9.17645e-05
7.21349e-05
5.12141e-05
3.72751e-05
2.56716e-05
2.06912e-05
1.70178e-05
1.64141e-05
1.47598e-05
1.4756e-05
1.29098e-05
1.46637e-05
1.94776e-06
4.9787e-06
-3.2146e-05
-3.27727e-05
-2.37298e-05
-1.83132e-05
-1.33391e-05
-1.01624e-05
1.14722e-05
-4.93641e-06
-6.33956e-06
3.28491e-06
-7.51876e-07
7.32597e-07
-6.67826e-06
-1.46663e-05
-3.23459e-05
-0.000204125
0.000134899
-0.000105906
-2.19221e-05
-6.24783e-05
-0.00010071
-3.32424e-08
2.08708e-05
2.46208e-05
4.10873e-05
-1.74541e-05
-2.28506e-05
-1.49345e-05
-2.49852e-06
5.14758e-06
8.71722e-06
9.21855e-06
1.14106e-05
1.6117e-05
2.19146e-05
2.83602e-05
3.46796e-05
4.19163e-05
4.90322e-05
5.64217e-05
5.89647e-05
5.71992e-05
4.79796e-05
2.30725e-05
-1.91903e-05
-4.14196e-05
-4.4395e-05
4.57653e-05
-5.13853e-05
-2.70876e-05
1.65355e-05
4.87521e-05
9.2273e-05
0.000121363
0.000272398
0.00245336
0.000103966
2.67544e-05
6.07389e-05
8.07987e-06
-1.62413e-05
-2.05274e-05
2.56632e-05
5.41799e-05
5.95574e-05
5.31106e-05
4.228e-05
3.25689e-05
2.33607e-05
1.90342e-05
1.41585e-05
1.46928e-05
1.18184e-05
1.55763e-05
1.237e-05
1.38394e-05
-3.54561e-07
-8.48456e-06
-4.33721e-05
-5.35627e-05
-4.72219e-05
-2.37227e-05
2.09099e-06
2.29676e-05
4.0122e-05
2.2634e-05
2.93707e-05
2.18341e-05
1.55979e-05
2.96837e-06
4.07981e-06
-1.00902e-05
-3.6459e-05
-0.000268965
0.000192725
9.58898e-05
-4.21935e-05
-0.000103699
1.9534e-05
-2.36327e-05
5.63287e-05
7.79108e-05
-1.08967e-05
-1.45461e-05
-2.13517e-05
-1.19517e-05
6.10415e-08
7.79072e-06
9.32628e-06
6.04273e-06
2.13821e-06
-1.2142e-08
-9.97237e-07
-1.30952e-06
-1.60734e-06
-7.41021e-07
-7.30544e-06
-9.55365e-06
-2.03809e-05
-1.68754e-05
1.37885e-06
2.97266e-05
1.60694e-05
1.06672e-05
-9.81779e-06
3.21917e-05
3.64164e-05
3.15572e-05
-5.95337e-06
3.91027e-05
1.90865e-05
2.59963e-05
7.50167e-05
0.00129251
1.30033e-05
6.76202e-05
4.6775e-05
4.7776e-06
-8.79507e-06
5.91792e-06
2.08839e-05
4.1679e-05
4.72872e-05
3.92653e-05
3.33758e-05
2.33788e-05
1.95775e-05
1.53619e-05
1.66115e-05
1.54392e-05
1.74981e-05
1.51105e-05
1.77643e-05
1.37605e-05
1.3887e-05
8.24983e-06
-4.11733e-06
-8.05223e-06
-2.2806e-06
-9.10411e-06
-2.19777e-05
-2.54539e-05
-1.97931e-05
-1.4973e-05
-2.31221e-05
-1.19827e-05
-1.28628e-05
-3.15005e-06
-1.71613e-05
-1.59205e-05
-2.20171e-05
-9.84931e-05
4.62517e-05
1.06042e-05
-5.40726e-05
1.6107e-05
-4.41156e-05
7.50746e-05
7.44498e-05
1.16055e-05
1.6174e-05
-2.15387e-05
-2.17892e-05
-1.04331e-05
8.19631e-07
9.45015e-06
1.15676e-05
1.19117e-05
1.24744e-05
1.47539e-05
1.83208e-05
2.20472e-05
2.66623e-05
3.09604e-05
3.49955e-05
3.80378e-05
3.88376e-05
3.99064e-05
4.07525e-05
3.61508e-05
1.09269e-05
-1.03591e-05
-2.19701e-05
4.07012e-05
-3.26472e-05
-1.42017e-05
1.31831e-05
4.16844e-05
7.02013e-05
9.11301e-05
0.000188739
0.00127679
4.74226e-05
5.18524e-05
1.60105e-05
2.77292e-05
-6.81552e-08
-3.28548e-06
2.10614e-05
3.58838e-05
3.62803e-05
3.59152e-05
2.96094e-05
2.39017e-05
1.94275e-05
1.63178e-05
1.63836e-05
1.48866e-05
1.69963e-05
1.53475e-05
1.75161e-05
1.21934e-05
7.67487e-06
-6.48372e-06
-2.4625e-05
-3.93031e-05
-3.86887e-05
-2.89898e-05
-1.17422e-05
5.08866e-06
1.90174e-05
1.38066e-05
1.73977e-05
1.43071e-05
8.1748e-06
-3.4026e-07
-3.03117e-06
-1.31308e-05
-3.82525e-05
-0.000217351
0.000139655
-1.81618e-05
1.24076e-05
-3.74316e-05
7.35217e-05
4.46188e-05
5.20283e-05
4.26014e-05
-1.5967e-05
-1.88559e-05
-1.95517e-05
-1.0617e-05
1.67605e-06
8.57793e-06
1.03662e-05
7.81729e-06
3.95963e-06
8.70096e-07
-1.48322e-06
-3.35151e-06
-5.45148e-06
-6.70828e-06
-1.19723e-05
-1.75128e-05
-2.53733e-05
-2.64078e-05
-1.02771e-05
1.21164e-05
4.11857e-06
7.05646e-06
-2.93377e-06
5.98332e-05
2.88216e-05
3.64442e-05
-9.15117e-06
3.6925e-05
6.32943e-06
1.31081e-05
3.13842e-05
0.00067991
3.48054e-05
2.3052e-05
4.72056e-05
-1.50155e-06
5.00596e-07
7.90822e-06
1.40957e-05
2.80696e-05
3.22806e-05
3.15804e-05
2.50985e-05
2.02059e-05
1.4162e-05
1.34498e-05
1.14287e-05
1.40734e-05
1.27115e-05
1.51698e-05
1.31618e-05
1.45702e-05
1.12189e-05
1.07913e-05
2.12233e-06
4.24791e-06
3.0583e-06
-1.74656e-06
-1.77342e-05
-2.66083e-05
-2.873e-05
-1.33825e-05
-2.78464e-05
-1.92947e-05
-1.65021e-05
-5.07494e-06
-2.0479e-05
-1.33734e-05
-1.39415e-05
-4.52466e-05
1.33279e-05
3.02178e-06
-2.23138e-05
4.14647e-05
6.42292e-06
8.05048e-05
4.41447e-05
3.64219e-06
-3.51804e-07
-2.15464e-05
-1.9086e-05
-9.3614e-06
2.56119e-06
9.11663e-06
1.22134e-05
1.1997e-05
1.21079e-05
1.34367e-05
1.52458e-05
1.77887e-05
2.03837e-05
2.37206e-05
2.60881e-05
2.84436e-05
2.98669e-05
3.22782e-05
3.82011e-05
4.04803e-05
2.95083e-05
7.35061e-06
-7.47369e-06
3.83189e-05
-1.81933e-05
-5.46238e-06
1.29002e-05
4.27209e-05
6.84554e-05
8.3409e-05
0.000164228
0.000833076
3.22924e-05
3.01247e-05
1.89593e-05
2.32287e-05
-5.58261e-06
-9.45082e-06
1.4488e-05
2.18706e-05
2.96691e-05
2.87471e-05
2.64995e-05
2.07758e-05
1.68329e-05
1.4679e-05
1.37012e-05
1.48408e-05
1.44455e-05
1.60585e-05
1.45309e-05
1.30836e-05
7.30121e-06
-1.96106e-06
-1.48965e-05
-2.70199e-05
-3.10756e-05
-2.9332e-05
-1.89764e-05
-7.8219e-06
4.14808e-06
4.70632e-06
6.34661e-06
6.465e-06
3.29686e-06
-2.4087e-06
-5.14678e-06
-1.31596e-05
-3.30815e-05
-0.000147805
8.53512e-05
3.33129e-05
-1.19488e-06
-1.59175e-05
7.28124e-05
2.88829e-05
3.7316e-05
1.83401e-05
-1.37922e-05
-1.83718e-05
-1.84957e-05
-8.4594e-06
9.909e-07
8.21836e-06
9.95973e-06
8.69019e-06
5.90887e-06
3.09875e-06
7.83736e-07
-1.68412e-06
-3.91518e-06
-6.11204e-06
-9.80206e-06
-1.56131e-05
-2.22279e-05
-2.42619e-05
-1.78772e-05
-4.90197e-06
-1.2834e-05
-8.96293e-06
-2.32631e-06
7.52701e-05
2.14837e-05
3.63916e-05
-1.14543e-05
3.31518e-05
4.61908e-07
1.93833e-06
1.63293e-05
0.000418491
-6.05607e-06
4.90136e-05
3.18914e-05
-9.16542e-06
-7.37417e-06
2.86572e-06
3.99869e-06
1.84363e-05
2.51174e-05
2.67922e-05
2.41151e-05
1.82547e-05
1.45236e-05
1.03461e-05
1.07456e-05
9.13636e-06
1.13894e-05
9.56676e-06
1.1898e-05
8.48279e-06
1.10728e-05
5.06104e-06
7.3227e-06
2.45508e-06
7.8881e-06
-8.56553e-07
-8.92972e-06
-2.10755e-05
-2.57127e-05
-1.08025e-05
-2.39147e-05
-2.18373e-05
-1.6979e-05
-5.37155e-06
-1.97306e-05
-9.49958e-06
-3.82141e-06
-8.2882e-06
-7.76098e-06
-4.28386e-05
-1.46935e-05
3.35767e-05
1.24166e-05
6.25117e-05
2.70252e-05
4.41869e-06
-8.97109e-06
-1.92609e-05
-1.65223e-05
-6.93955e-06
2.31797e-06
9.00212e-06
1.11531e-05
1.14575e-05
1.1247e-05
1.16686e-05
1.31859e-05
1.43502e-05
1.63102e-05
1.82904e-05
2.01384e-05
2.15435e-05
2.3075e-05
2.58403e-05
3.22445e-05
3.81934e-05
3.50307e-05
1.95786e-05
2.6528e-06
3.41229e-05
-5.6965e-06
3.85396e-06
1.2391e-05
3.9646e-05
6.24921e-05
7.70539e-05
0.000156698
0.000616687
4.95076e-05
2.31214e-05
1.09086e-05
1.56706e-05
-7.79587e-06
-1.27176e-05
5.72278e-06
1.62672e-05
2.20563e-05
2.67172e-05
2.40369e-05
2.03229e-05
1.53805e-05
1.27911e-05
1.13146e-05
1.15913e-05
1.17472e-05
1.2614e-05
1.16479e-05
1.08562e-05
6.28938e-06
6.69052e-07
-8.55296e-06
-1.73855e-05
-2.30002e-05
-2.50697e-05
-2.07858e-05
-1.44139e-05
-6.06087e-06
-3.50671e-06
-2.43216e-06
-7.30459e-07
-1.40339e-06
-3.61115e-06
-6.02003e-06
-1.15184e-05
-2.59294e-05
-9.08082e-05
4.09223e-05
8.02143e-06
3.89784e-06
6.10795e-06
6.08855e-05
2.62912e-05
3.04838e-05
6.10364e-06
-9.64184e-06
-1.77261e-05
-1.43346e-05
-6.91855e-06
2.18814e-06
7.35001e-06
9.56187e-06
8.93412e-06
6.9891e-06
5.11915e-06
2.92214e-06
1.02769e-06
-1.34502e-06
-3.0591e-06
-6.13976e-06
-1.07691e-05
-1.60512e-05
-1.89168e-05
-1.85829e-05
-1.42955e-05
-2.61951e-05
-2.28314e-05
-1.07321e-05
7.64268e-05
1.65642e-05
3.18287e-05
-1.14336e-05
2.50528e-05
-6.56766e-06
-9.38936e-06
8.83231e-06
0.000260559
1.03802e-05
2.58017e-05
2.97652e-05
-8.88406e-06
-7.11377e-06
5.52862e-07
2.32715e-07
9.53281e-06
1.93491e-05
2.25727e-05
2.20394e-05
1.82783e-05
1.34189e-05
1.06703e-05
8.10058e-06
8.35435e-06
7.11521e-06
8.37385e-06
6.50002e-06
7.81056e-06
4.86178e-06
5.95366e-06
2.67755e-06
5.10898e-06
4.22962e-06
3.18758e-06
-4.42361e-06
-1.1979e-05
-1.77382e-05
-6.16171e-06
-1.77719e-05
-2.01378e-05
-1.62302e-05
-6.7583e-06
-1.77534e-05
-5.74387e-06
3.2227e-06
3.1047e-06
-7.7386e-06
3.88868e-06
8.33184e-06
3.57648e-05
2.17198e-05
4.92555e-05
1.97109e-05
5.28892e-06
-1.3438e-05
-1.54643e-05
-1.2243e-05
-4.4186e-06
3.54476e-06
8.21191e-06
1.04134e-05
1.04494e-05
1.01715e-05
1.02799e-05
1.10826e-05
1.21081e-05
1.31707e-05
1.46657e-05
1.57297e-05
1.67949e-05
1.78565e-05
2.04165e-05
2.59315e-05
3.21164e-05
3.31213e-05
2.37052e-05
9.04043e-06
3.11107e-05
3.05339e-06
1.07251e-05
1.38718e-05
3.34488e-05
5.14408e-05
6.15254e-05
0.000140997
0.000474609
1.54795e-05
2.81637e-05
2.72403e-06
8.94069e-06
-6.56021e-06
-1.56565e-05
1.78329e-06
8.55232e-06
1.75787e-05
2.1567e-05
2.21063e-05
1.80859e-05
1.42626e-05
1.04825e-05
9.151e-06
7.88759e-06
8.9046e-06
8.11497e-06
9.22588e-06
7.00252e-06
6.0628e-06
7.59386e-07
-3.43901e-06
-1.11495e-05
-1.4909e-05
-1.94668e-05
-1.81246e-05
-1.6394e-05
-1.12445e-05
-9.03835e-06
-8.56379e-06
-6.27575e-06
-5.44196e-06
-5.63164e-06
-6.35846e-06
-9.65768e-06
-1.8791e-05
-5.51323e-05
1.48756e-05
3.11794e-06
1.50846e-05
1.77655e-05
4.77953e-05
2.40095e-05
2.25655e-05
-5.40995e-07
-6.27281e-06
-1.36611e-05
-1.01806e-05
-2.95683e-06
2.99712e-06
7.43998e-06
8.80526e-06
8.56529e-06
7.33378e-06
5.77364e-06
4.38388e-06
2.61429e-06
1.08528e-06
-5.88518e-07
-2.54244e-06
-6.41441e-06
-9.73007e-06
-1.35037e-05
-1.43315e-05
-1.77294e-05
-2.84804e-05
-3.2244e-05
-2.15044e-05
6.98966e-05
1.45833e-05
2.51946e-05
-1.07043e-05
1.73969e-05
-1.12101e-05
-1.71594e-05
-2.6129e-06
0.000180571
2.00858e-05
1.18582e-05
1.73369e-05
-1.02918e-05
-9.01154e-06
2.02136e-06
-5.41055e-06
4.88809e-06
1.21232e-05
1.81006e-05
1.84136e-05
1.61403e-05
1.23825e-05
9.16818e-06
7.23227e-06
6.08743e-06
5.81255e-06
5.32399e-06
5.28081e-06
4.30553e-06
4.15358e-06
2.65294e-06
3.05011e-06
2.38902e-06
4.64736e-06
2.64639e-06
5.81159e-07
-5.67219e-06
-8.51092e-06
-2.37438e-06
-1.0124e-05
-1.60586e-05
-1.40793e-05
-7.73177e-06
-1.51435e-05
-2.92841e-06
6.36066e-06
5.63531e-06
-4.50911e-06
1.9254e-05
1.36046e-05
3.05409e-05
2.24335e-05
3.44053e-05
1.43284e-05
4.73533e-06
-1.25939e-05
-1.03006e-05
-7.05601e-06
-1.18403e-06
4.40422e-06
7.8855e-06
9.26859e-06
9.33322e-06
8.9532e-06
8.83231e-06
9.19343e-06
1.01031e-05
1.08819e-05
1.17854e-05
1.25374e-05
1.30921e-05
1.39918e-05
1.57111e-05
2.02666e-05
2.47069e-05
2.78567e-05
2.14575e-05
1.2129e-05
2.79455e-05
8.10284e-06
1.42854e-05
1.50926e-05
2.9664e-05
4.02898e-05
4.66581e-05
0.000117775
0.000340409
1.09877e-05
1.7191e-05
-3.20604e-06
7.25668e-06
-4.35755e-06
-1.55474e-05
-5.57068e-07
5.38334e-06
1.19268e-05
1.69697e-05
1.74826e-05
1.50781e-05
1.15393e-05
8.61742e-06
6.34436e-06
5.94694e-06
5.14327e-06
6.16416e-06
5.20191e-06
5.96681e-06
3.51227e-06
2.46869e-06
-1.97876e-06
-5.33324e-06
-9.80186e-06
-1.28979e-05
-1.45301e-05
-1.45974e-05
-1.28493e-05
-1.15483e-05
-1.13593e-05
-9.66094e-06
-8.16819e-06
-7.51394e-06
-7.42368e-06
-7.76473e-06
-1.27877e-05
-3.37669e-05
9.91284e-07
6.8535e-06
1.84181e-05
1.879e-05
3.38791e-05
2.00272e-05
1.49712e-05
-1.97515e-06
-2.93356e-06
-9.33285e-06
-5.5828e-06
-7.18845e-07
4.12317e-06
6.74383e-06
7.91858e-06
7.60002e-06
6.7349e-06
5.61346e-06
4.52327e-06
3.39999e-06
2.13785e-06
1.16319e-06
-5.36801e-07
-2.70713e-06
-5.58955e-06
-7.68215e-06
-1.02977e-05
-1.43664e-05
-2.46706e-05
-3.36973e-05
-2.51977e-05
5.14924e-05
1.20713e-05
1.82711e-05
-9.15616e-06
1.08283e-05
-1.07704e-05
-2.2203e-05
-3.81259e-06
9.71873e-05
1.03867e-05
4.9209e-06
1.25051e-05
-9.63042e-06
-5.92906e-06
3.28418e-06
-5.39025e-06
-1.65125e-07
7.84985e-06
1.23458e-05
1.42339e-05
1.26671e-05
1.00183e-05
7.31055e-06
5.82254e-06
4.4584e-06
4.52707e-06
3.729e-06
4.0239e-06
3.07377e-06
2.97395e-06
2.00576e-06
2.06814e-06
1.96536e-06
3.41904e-06
2.99553e-06
2.1949e-06
-9.1194e-07
-2.59712e-06
7.45127e-07
-4.25756e-06
-1.00798e-05
-1.10853e-05
-7.90938e-06
-1.2679e-05
-1.13765e-06
7.96361e-06
2.00408e-06
1.63908e-06
1.60609e-05
1.32472e-05
2.48569e-05
1.98374e-05
2.30878e-05
1.13031e-05
3.88528e-06
-1.07251e-05
-6.67741e-06
-4.34668e-06
6.13557e-07
4.31447e-06
7.04249e-06
7.79573e-06
7.93664e-06
7.47652e-06
7.31564e-06
7.39344e-06
8.09148e-06
8.83265e-06
9.43411e-06
9.86702e-06
1.03248e-05
1.07539e-05
1.22536e-05
1.50001e-05
1.88007e-05
2.0656e-05
1.77193e-05
1.19257e-05
2.33697e-05
9.26352e-06
1.44885e-05
1.52937e-05
2.54386e-05
3.23502e-05
3.31595e-05
9.44374e-05
0.000221348
8.39588e-06
9.3266e-06
-5.18761e-06
7.33284e-06
-1.74886e-06
-1.50394e-05
-1.59646e-06
2.04982e-06
7.94925e-06
1.18701e-05
1.26754e-05
1.1205e-05
8.58661e-06
6.40259e-06
4.72544e-06
3.8485e-06
3.83288e-06
3.5579e-06
4.22567e-06
3.47779e-06
3.6293e-06
1.68944e-06
4.20291e-07
-2.91648e-06
-5.05517e-06
-8.57579e-06
-1.0084e-05
-1.19336e-05
-1.16646e-05
-1.16907e-05
-1.15549e-05
-1.05268e-05
-9.32691e-06
-8.8211e-06
-8.36603e-06
-6.90112e-06
-7.76305e-06
-2.19042e-05
-4.81953e-06
9.47283e-06
1.84606e-05
1.67301e-05
2.40703e-05
1.61445e-05
1.00218e-05
-3.17358e-06
-1.53336e-06
-7.23581e-06
-3.82734e-06
6.57326e-08
3.57088e-06
5.66262e-06
6.48214e-06
6.28095e-06
5.66412e-06
4.78788e-06
4.00656e-06
3.20449e-06
2.42647e-06
1.69444e-06
7.7968e-07
-7.89005e-07
-2.25402e-06
-4.03897e-06
-5.58975e-06
-9.63923e-06
-1.79251e-05
-2.72304e-05
-2.44161e-05
3.31385e-05
8.31714e-06
1.0877e-05
-9.70714e-06
6.28016e-06
-1.04249e-05
-2.20806e-05
-7.57805e-06
3.91972e-05
4.42422e-06
1.66514e-06
9.19647e-06
-7.84464e-06
-6.16374e-06
3.63857e-06
-7.3056e-06
-1.56355e-06
3.83733e-06
8.43944e-06
9.93492e-06
9.17643e-06
7.28116e-06
5.62614e-06
3.99051e-06
3.79506e-06
2.86474e-06
3.51659e-06
2.5787e-06
3.11852e-06
1.93546e-06
2.21947e-06
1.24263e-06
1.99149e-06
2.15209e-06
2.81983e-06
2.24021e-06
1.0922e-06
4.71834e-07
1.7933e-06
-5.56121e-08
-5.23831e-06
-7.02006e-06
-7.28685e-06
-9.36045e-06
1.29439e-08
6.89353e-06
-6.70312e-07
5.38532e-06
1.37971e-05
1.14725e-05
1.91908e-05
1.63005e-05
1.59023e-05
7.80144e-06
2.89052e-06
-9.36305e-06
-5.35824e-06
-2.9428e-06
1.19241e-07
3.71682e-06
5.28373e-06
6.37406e-06
6.16541e-06
6.03464e-06
5.67729e-06
5.76156e-06
6.11263e-06
6.99223e-06
7.40126e-06
7.73913e-06
8.05433e-06
8.38489e-06
9.40453e-06
1.13504e-05
1.36472e-05
1.51359e-05
1.28983e-05
1.0834e-05
1.77983e-05
8.60736e-06
1.17823e-05
1.3642e-05
2.07602e-05
2.4487e-05
2.29094e-05
7.22584e-05
0.000135466
6.67505e-06
5.95877e-06
-5.02155e-06
5.37995e-06
-1.57038e-06
-1.35575e-05
-1.72921e-06
1.26217e-06
5.09393e-06
8.00516e-06
8.65302e-06
7.61288e-06
6.18524e-06
4.43744e-06
3.56808e-06
2.83247e-06
2.72207e-06
2.83746e-06
2.78957e-06
3.12497e-06
2.44476e-06
2.34136e-06
5.82444e-07
-4.35916e-07
-3.01396e-06
-4.66843e-06
-7.1866e-06
-8.52205e-06
-9.76659e-06
-9.98875e-06
-1.02618e-05
-9.70485e-06
-8.90918e-06
-9.09451e-06
-8.64347e-06
-6.44545e-06
-4.66557e-06
-1.53356e-05
-6.38882e-06
9.74532e-06
1.53482e-05
1.38336e-05
1.74237e-05
1.22899e-05
6.83785e-06
-3.48523e-06
-1.13181e-06
-5.8169e-06
-3.90468e-06
-2.6349e-07
2.25267e-06
4.41314e-06
4.89445e-06
5.02663e-06
4.45278e-06
3.91909e-06
3.2489e-06
2.81388e-06
2.26561e-06
1.86349e-06
1.30567e-06
4.96955e-07
-3.52455e-07
-1.25716e-06
-2.20536e-06
-4.96404e-06
-1.06828e-05
-1.91755e-05
-1.88314e-05
1.78315e-05
3.89156e-06
3.94195e-06
-8.48424e-06
7.55103e-07
-6.99621e-06
-2.25849e-05
-4.92762e-06
7.42209e-06
2.98757e-06
7.97986e-07
6.38468e-06
-6.4815e-06
-4.60871e-06
3.26499e-06
-5.55707e-06
-2.39971e-06
2.33848e-06
5.38577e-06
6.72099e-06
6.22484e-06
5.10317e-06
3.77054e-06
3.23626e-06
2.36733e-06
2.84107e-06
2.15115e-06
2.84841e-06
1.9522e-06
2.36306e-06
1.36093e-06
1.55379e-06
1.09597e-06
1.69896e-06
1.67761e-06
1.77218e-06
1.17276e-06
1.19232e-06
2.05356e-06
1.24616e-06
-1.35126e-06
-3.92759e-06
-5.08255e-06
-6.41784e-06
1.11732e-06
5.72536e-06
-3.69664e-06
6.77033e-06
1.12514e-05
9.41873e-06
1.48594e-05
1.30184e-05
1.16021e-05
5.5738e-06
2.0941e-06
-8.72131e-06
-5.00103e-06
-3.49889e-06
-2.08614e-07
2.23205e-06
4.17032e-06
4.64722e-06
4.90773e-06
4.53878e-06
4.44199e-06
4.3265e-06
4.63517e-06
5.35121e-06
5.81437e-06
6.09534e-06
6.33855e-06
6.64264e-06
7.39511e-06
8.67326e-06
1.02576e-05
1.07333e-05
9.31092e-06
8.82529e-06
1.28361e-05
6.55538e-06
8.85545e-06
1.02957e-05
1.56933e-05
1.71885e-05
1.41916e-05
5.32878e-05
7.94175e-05
5.39583e-06
3.84177e-06
-3.38872e-06
4.12255e-06
-9.63458e-07
-1.08077e-05
-1.22028e-06
5.05202e-07
3.46095e-06
5.17326e-06
5.5978e-06
5.07042e-06
3.97122e-06
3.25373e-06
2.46737e-06
2.37674e-06
2.06354e-06
2.21868e-06
2.35301e-06
2.21408e-06
2.4026e-06
1.63539e-06
1.42551e-06
-9.44615e-08
-9.60258e-07
-3.02958e-06
-4.35358e-06
-6.2812e-06
-7.1583e-06
-8.02211e-06
-8.18897e-06
-8.06123e-06
-7.73918e-06
-8.12089e-06
-8.15488e-06
-5.89082e-06
-2.81877e-06
-1.18412e-05
-6.08545e-06
8.10905e-06
1.2109e-05
1.13214e-05
1.33982e-05
9.59476e-06
4.66674e-06
-4.04813e-06
-1.25564e-06
-6.20565e-06
-3.44006e-06
-1.0311e-06
1.86411e-06
3.09162e-06
4.01352e-06
3.85859e-06
3.69065e-06
3.17369e-06
2.79261e-06
2.46161e-06
2.19062e-06
1.93302e-06
1.66729e-06
1.32546e-06
8.89725e-07
6.16155e-07
9.82361e-08
-1.29462e-06
-4.91222e-06
-1.18245e-05
-1.14494e-05
7.04523e-06
7.24591e-07
-2.60063e-07
-8.24744e-06
-1.38517e-06
-6.60448e-06
-1.96689e-05
-3.97674e-06
-8.42016e-06
2.26938e-06
1.27618e-06
4.28073e-06
-4.89853e-06
-3.65543e-06
2.69061e-06
-4.88744e-06
-1.59144e-06
1.18371e-06
3.53192e-06
4.18868e-06
4.02326e-06
3.15424e-06
2.76892e-06
2.06832e-06
2.21252e-06
1.76033e-06
2.32849e-06
1.69185e-06
2.21497e-06
1.36466e-06
1.61028e-06
7.82041e-07
1.02064e-06
6.38549e-07
9.8075e-07
6.4447e-07
6.61328e-07
7.88891e-07
1.33925e-06
1.57292e-06
7.04113e-08
-1.25725e-06
-3.14585e-06
-3.50546e-06
2.59947e-06
4.25274e-06
-4.83749e-06
6.76415e-06
8.91243e-06
7.92279e-06
1.15525e-05
1.05046e-05
8.25723e-06
4.05932e-06
1.23043e-06
-8.25047e-06
-4.40705e-06
-2.79409e-06
-3.37306e-07
2.00379e-06
3.12382e-06
3.86263e-06
3.76291e-06
3.72076e-06
3.45607e-06
3.46881e-06
3.59438e-06
4.16031e-06
4.68116e-06
4.92669e-06
5.13169e-06
5.42806e-06
5.96303e-06
6.97763e-06
7.89561e-06
7.9613e-06
6.79862e-06
6.99889e-06
8.62131e-06
5.01554e-06
6.06308e-06
7.11327e-06
1.065e-05
1.06807e-05
7.10206e-06
3.69182e-05
4.52974e-05
4.38969e-06
2.41557e-06
-2.61357e-06
2.85449e-06
-1.12015e-06
-7.88382e-06
-4.85094e-07
7.4493e-07
2.26119e-06
3.28971e-06
3.46288e-06
2.94753e-06
2.64795e-06
2.08344e-06
2.00544e-06
1.74878e-06
1.66723e-06
1.69491e-06
1.79219e-06
1.85901e-06
1.63669e-06
1.66458e-06
9.31812e-07
6.54663e-07
-6.34324e-07
-1.43814e-06
-3.09676e-06
-4.09399e-06
-5.36618e-06
-5.83486e-06
-6.34933e-06
-6.1704e-06
-6.32717e-06
-6.59833e-06
-6.87287e-06
-4.98299e-06
-1.84806e-06
-9.41752e-06
-4.96082e-06
6.56782e-06
9.08973e-06
9.38045e-06
1.01409e-05
7.74452e-06
3.08055e-06
-3.55463e-06
-9.66564e-07
-4.45352e-06
-2.66296e-06
-9.32625e-09
1.53507e-06
2.99338e-06
3.24584e-06
3.43685e-06
3.12313e-06
2.89275e-06
2.55567e-06
2.39827e-06
2.27076e-06
2.12582e-06
2.03481e-06
1.90098e-06
1.79509e-06
1.78226e-06
1.62569e-06
1.14011e-06
-1.30469e-06
-5.41599e-06
-6.53677e-06
2.34874e-06
-6.50348e-07
-2.11622e-06
-6.33924e-06
-3.20769e-06
-5.00796e-06
-1.95099e-05
1.68932e-07
-1.05655e-05
1.74869e-06
9.72135e-07
2.73149e-06
-3.81958e-06
-2.0806e-06
2.28086e-06
-2.69422e-06
-1.1727e-06
9.01775e-07
1.93822e-06
2.45586e-06
2.21005e-06
2.0619e-06
1.63281e-06
1.9892e-06
1.23888e-06
1.9758e-06
1.36191e-06
1.90119e-06
1.18254e-06
1.5064e-06
7.18168e-07
8.83347e-07
2.17065e-07
3.81076e-07
-8.85648e-08
3.26127e-08
-2.86153e-07
1.58718e-07
4.01387e-07
1.01462e-06
4.27659e-07
-6.4664e-08
-1.66326e-06
-1.03018e-06
3.04106e-06
4.29863e-06
-5.6707e-06
4.80606e-06
6.84529e-06
6.90404e-06
9.11677e-06
8.47586e-06
5.93789e-06
3.55768e-06
9.43227e-07
-6.32486e-06
-2.87315e-06
-1.43157e-06
5.63701e-07
2.03659e-06
3.05371e-06
3.26433e-06
3.37783e-06
3.12253e-06
3.04452e-06
2.92878e-06
3.07142e-06
3.40027e-06
3.96261e-06
4.12289e-06
4.31558e-06
4.5372e-06
4.9851e-06
5.7648e-06
6.32954e-06
6.22137e-06
5.28001e-06
5.37163e-06
6.01291e-06
3.96316e-06
4.24334e-06
4.8185e-06
6.68227e-06
5.83804e-06
1.40096e-06
2.49458e-05
2.49957e-05
3.23201e-06
1.26629e-06
-1.90157e-06
2.12533e-06
-6.93817e-07
-4.8176e-06
1.3191e-07
7.43893e-07
1.48457e-06
1.96875e-06
1.84336e-06
1.69457e-06
1.49615e-06
1.97582e-06
1.13915e-06
1.74324e-06
1.07628e-06
1.49394e-06
1.21455e-06
1.31832e-06
1.27031e-06
1.04244e-06
9.45306e-07
3.54796e-07
-8.17011e-08
-1.07187e-06
-1.91501e-06
-2.98366e-06
-3.72455e-06
-4.34972e-06
-4.646e-06
-4.69591e-06
-4.89912e-06
-5.12251e-06
-5.31077e-06
-3.90372e-06
-1.20629e-06
-7.42601e-06
-3.69387e-06
5.22796e-06
7.04337e-06
7.73098e-06
8.03785e-06
6.64474e-06
1.72719e-06
-2.31905e-06
-3.57244e-07
-3.01781e-06
-9.11364e-07
6.46433e-07
2.24511e-06
2.77464e-06
3.24073e-06
3.06614e-06
3.00377e-06
2.71344e-06
2.56518e-06
2.41892e-06
2.44698e-06
2.35799e-06
2.33487e-06
2.29556e-06
2.36308e-06
2.4446e-06
2.52684e-06
2.30534e-06
1.0079e-06
-1.63139e-06
-2.78295e-06
8.67084e-07
-5.29601e-07
-1.83003e-06
-4.25354e-06
-3.22873e-06
-4.85938e-06
-1.78324e-05
2.88067e-06
-9.40372e-06
1.22935e-06
7.87503e-07
1.68618e-06
-2.88214e-06
-8.95148e-07
2.00991e-06
-1.61506e-06
-3.89507e-07
4.20827e-07
1.06351e-06
1.0558e-06
1.20652e-06
1.46287e-06
1.04535e-06
1.45277e-06
9.34583e-07
1.1635e-06
1.51722e-06
1.30928e-06
1.50101e-06
7.8602e-07
8.6499e-07
1.94936e-07
2.65762e-07
-3.44638e-07
-2.95494e-07
-8.2436e-07
-6.32167e-07
-7.68762e-07
-1.6387e-07
-2.2045e-08
3.57167e-07
-1.73523e-07
-4.91984e-07
-6.22178e-08
3.5565e-06
4.3371e-06
-5.56597e-06
2.92636e-06
5.60489e-06
6.03137e-06
7.35181e-06
6.98602e-06
3.72675e-06
3.69018e-06
5.19964e-07
-4.76265e-06
-1.32247e-06
-1.75805e-07
1.35747e-06
2.47439e-06
2.96738e-06
3.18154e-06
3.05514e-06
2.9414e-06
2.7572e-06
2.71009e-06
2.74673e-06
2.97522e-06
3.42314e-06
3.55306e-06
3.69521e-06
3.82682e-06
4.21164e-06
4.75145e-06
5.19234e-06
4.98712e-06
4.33393e-06
4.27936e-06
4.51392e-06
3.34326e-06
3.34186e-06
3.40514e-06
4.27003e-06
2.80184e-06
-1.89687e-06
1.65089e-05
1.2987e-05
2.3404e-06
5.60235e-07
-1.73076e-06
1.63409e-06
-4.70429e-07
-2.71912e-06
8.41522e-07
8.45157e-07
1.11684e-06
9.9527e-07
9.34304e-07
1.0219e-06
1.05072e-06
1.59227e-06
5.74175e-07
8.74008e-07
1.37522e-06
8.1494e-07
1.25335e-06
9.46605e-07
9.83504e-07
7.21745e-07
5.47629e-07
2.58783e-07
-1.47311e-07
-7.27819e-07
-1.42615e-06
-2.10394e-06
-2.74338e-06
-3.15125e-06
-3.49196e-06
-3.48072e-06
-3.84619e-06
-3.8061e-06
-4.0287e-06
-2.79103e-06
-7.69463e-07
-5.65926e-06
-2.55822e-06
4.21894e-06
5.2467e-06
6.46471e-06
6.00347e-06
6.02769e-06
8.49483e-07
-1.39428e-06
5.05909e-07
-1.68424e-06
-8.95099e-08
1.49135e-06
2.29421e-06
2.9709e-06
2.95317e-06
3.0067e-06
2.77274e-06
2.67053e-06
2.48729e-06
2.45081e-06
2.47229e-06
2.47868e-06
2.44149e-06
2.45621e-06
2.56282e-06
2.69961e-06
2.81069e-06
2.7434e-06
2.01399e-06
5.23397e-07
-4.29275e-07
8.83392e-07
1.44754e-07
-7.80136e-07
-2.47206e-06
-2.62305e-06
-4.41794e-06
-1.67765e-05
6.02606e-06
-5.46715e-06
9.11396e-07
3.75069e-07
1.02279e-06
-2.12844e-06
-4.19557e-08
2.17373e-06
-3.77112e-07
2.17326e-08
2.92375e-07
3.66854e-07
4.58099e-07
5.61706e-07
1.34073e-06
2.9913e-07
7.51724e-07
8.31334e-07
3.49819e-07
9.99606e-07
8.79433e-07
1.14073e-06
1.04795e-06
4.71605e-07
2.99732e-07
-2.32438e-07
-3.11721e-07
-8.00156e-07
-8.79056e-07
-1.18757e-06
-1.00943e-06
-9.26548e-07
-5.26525e-07
-3.50041e-07
-2.99165e-07
-4.20031e-07
5.57208e-07
3.10452e-06
4.65269e-06
-5.15562e-06
8.03464e-07
4.30487e-06
5.40258e-06
5.79618e-06
5.77831e-06
2.41423e-06
3.61807e-06
6.66774e-07
-3.49224e-06
-5.20894e-07
5.66001e-07
1.61441e-06
2.50239e-06
2.83366e-06
2.9426e-06
2.84254e-06
2.71082e-06
2.57151e-06
2.49816e-06
2.50683e-06
2.63194e-06
2.92634e-06
3.06973e-06
3.11767e-06
3.21323e-06
3.44466e-06
3.86759e-06
4.14322e-06
4.06286e-06
3.59376e-06
3.59502e-06
3.55286e-06
3.05474e-06
2.78617e-06
2.76403e-06
2.94694e-06
1.39088e-06
-3.11574e-06
1.14198e-05
6.25549e-06
1.62002e-06
7.13217e-08
-1.44597e-06
1.28663e-06
5.19774e-08
-1.17786e-06
1.22189e-06
9.77174e-07
7.69462e-07
5.13158e-07
3.69584e-07
9.93313e-07
5.12848e-07
8.44581e-07
2.7695e-07
4.74411e-07
8.72407e-07
1.35347e-07
9.40053e-07
4.61251e-07
5.93483e-07
5.48259e-07
2.13623e-07
6.35e-08
-2.75506e-07
-6.31377e-07
-1.11575e-06
-1.59399e-06
-2.03048e-06
-2.37829e-06
-2.60492e-06
-2.70186e-06
-2.97804e-06
-2.93028e-06
-3.0066e-06
-1.9699e-06
-5.10335e-07
-4.27886e-06
-1.76453e-06
3.47093e-06
4.04254e-06
5.28265e-06
4.78341e-06
5.41655e-06
9.50278e-08
-6.24297e-07
7.10077e-07
-1.12311e-06
2.10785e-07
1.37317e-06
2.22517e-06
2.57085e-06
2.72912e-06
2.65617e-06
2.57584e-06
2.44054e-06
2.34883e-06
2.29656e-06
2.34165e-06
2.35811e-06
2.33269e-06
2.34257e-06
2.44015e-06
2.57712e-06
2.67285e-06
2.65572e-06
2.27645e-06
1.47235e-06
8.50374e-07
1.19854e-06
7.45568e-07
7.77283e-08
-1.17199e-06
-2.00594e-06
-4.0241e-06
-1.43674e-05
7.35601e-06
-1.92031e-06
6.42001e-07
1.43423e-07
6.37859e-07
-1.60911e-06
4.71575e-07
2.11183e-06
2.6321e-07
2.77317e-07
1.56233e-07
3.68458e-08
2.72761e-07
3.93751e-07
7.40583e-07
1.29933e-07
3.16012e-07
6.82784e-07
-2.64859e-07
7.08431e-07
-4.89549e-07
7.73702e-07
2.49838e-07
3.48757e-07
-2.69863e-08
-2.63226e-07
-5.66526e-07
-7.5377e-07
-1.04529e-06
-1.17576e-06
-1.26684e-06
-1.13944e-06
-1.0227e-06
-7.17831e-07
-7.59277e-07
-3.79699e-07
4.8878e-07
2.51779e-06
4.36081e-06
-4.51927e-06
-5.44196e-07
3.64349e-06
4.6387e-06
4.72201e-06
4.77089e-06
1.1575e-06
3.59172e-06
4.11835e-07
-2.96802e-06
-1.95535e-07
4.13189e-07
1.45497e-06
2.06295e-06
2.43396e-06
2.52297e-06
2.50675e-06
2.40807e-06
2.30788e-06
2.23295e-06
2.22255e-06
2.26751e-06
2.44894e-06
2.5637e-06
2.57045e-06
2.58474e-06
2.72888e-06
2.99316e-06
3.22505e-06
3.19511e-06
2.98688e-06
2.98425e-06
2.92942e-06
2.70866e-06
2.44817e-06
2.38779e-06
2.30607e-06
7.5852e-07
-2.67159e-06
8.45285e-06
2.59847e-06
1.08538e-06
-1.51469e-07
-1.41435e-06
1.10224e-06
2.26502e-07
-3.46647e-07
1.41208e-06
1.01364e-06
5.9015e-07
2.43519e-07
3.40109e-07
7.39001e-07
3.67103e-07
3.47727e-07
3.14555e-07
-2.22478e-09
4.64786e-07
-5.59825e-07
6.44012e-07
-3.67204e-07
8.56969e-08
-8.24804e-08
-2.92144e-08
-2.03521e-07
-3.70323e-07
-6.33011e-07
-9.11915e-07
-1.25262e-06
-1.54449e-06
-1.8261e-06
-1.99409e-06
-2.15051e-06
-2.35092e-06
-2.31077e-06
-2.30816e-06
-1.38771e-06
-5.04827e-07
-3.35558e-06
-1.29684e-06
2.76706e-06
2.97759e-06
4.34908e-06
3.50331e-06
4.85122e-06
-2.00413e-07
-5.02208e-07
1.09533e-06
-1.11942e-06
6.52687e-08
9.47377e-07
1.66655e-06
2.05983e-06
2.23004e-06
2.25942e-06
2.2112e-06
2.13514e-06
2.06072e-06
2.01531e-06
2.04578e-06
2.0633e-06
2.04247e-06
2.01871e-06
2.09432e-06
2.19989e-06
2.28342e-06
2.28413e-06
2.10458e-06
1.69976e-06
1.34983e-06
1.3398e-06
1.01671e-06
5.28399e-07
-4.3504e-07
-1.44325e-06
-3.62149e-06
-1.13688e-05
7.69592e-06
5.34426e-07
4.89158e-07
-1.05721e-07
4.28343e-07
-1.21326e-06
6.8481e-07
2.16035e-06
6.0847e-07
3.94488e-07
4.91482e-08
-9.47495e-08
1.88166e-07
2.95517e-07
6.65175e-07
2.51741e-08
3.16989e-07
1.95138e-07
2.07566e-08
4.33568e-07
-3.50914e-07
4.86344e-08
-2.41139e-07
1.31668e-07
-1.11369e-07
-3.34386e-07
-5.52635e-07
-7.45446e-07
-9.31125e-07
-1.10347e-06
-1.19342e-06
-1.20726e-06
-1.13555e-06
-9.83476e-07
-9.33464e-07
-4.80885e-07
2.95024e-07
1.93375e-06
3.51345e-06
-3.66391e-06
-1.24079e-06
2.7764e-06
4.04543e-06
3.6242e-06
3.88784e-06
6.80161e-07
3.1341e-06
6.41845e-07
-2.52622e-06
-2.65544e-07
2.13261e-07
8.67982e-07
1.48173e-06
1.84174e-06
2.02018e-06
2.06286e-06
2.02908e-06
1.95959e-06
1.89753e-06
1.87263e-06
1.87396e-06
1.96577e-06
2.05784e-06
2.02608e-06
1.99952e-06
2.05677e-06
2.22194e-06
2.38932e-06
2.4202e-06
2.37905e-06
2.39258e-06
2.38155e-06
2.28393e-06
2.1247e-06
2.05596e-06
1.92468e-06
3.68803e-07
-1.49479e-06
6.52478e-06
9.18134e-07
7.13735e-07
-2.91805e-07
-1.26753e-06
9.06793e-07
4.53233e-07
5.56733e-08
1.4759e-06
9.46988e-07
4.58453e-07
1.35268e-07
3.13765e-07
6.43384e-07
1.43507e-07
6.53725e-07
2.22552e-07
2.06197e-07
2.64798e-07
1.39822e-07
1.91235e-07
-5.25778e-07
3.40851e-08
-5.33038e-07
-2.67565e-07
-2.97507e-07
-4.44645e-07
-5.96953e-07
-7.78093e-07
-9.86926e-07
-1.19991e-06
-1.40902e-06
-1.55602e-06
-1.72979e-06
-1.86111e-06
-1.87258e-06
-1.79335e-06
-1.01665e-06
-6.60211e-07
-2.76705e-06
-1.09302e-06
2.26699e-06
2.26399e-06
3.47336e-06
2.84805e-06
4.11751e-06
-4.09835e-07
-2.17373e-07
8.74128e-07
-9.45066e-07
-3.27339e-07
4.56834e-07
1.05325e-06
1.47459e-06
1.7006e-06
1.79495e-06
1.79928e-06
1.75787e-06
1.70418e-06
1.65821e-06
1.66917e-06
1.68382e-06
1.6567e-06
1.61141e-06
1.65157e-06
1.73193e-06
1.79796e-06
1.81353e-06
1.7446e-06
1.55056e-06
1.36659e-06
1.24708e-06
1.01832e-06
6.40498e-07
-5.98724e-08
-1.02566e-06
-3.21041e-06
-8.08756e-06
6.76361e-06