/*--------------------------------*- C++ -*----------------------------------*\
| =========                 |                                                 |
| \\      /  F ield         | OpenFOAM: The Open Source CFD Toolbox           |
|  \\    /   O peration     | Version:  2206                                  |
|   \\  /    A nd           | Website:  www.openfoam.com                      |
|    \\/     M anipulation  |                                                 |
\*---------------------------------------------------------------------------*/
FoamFile
{
    version     2.0;
    format      ascii;
    arch        "LSB;label=32;scalar=64";
    class       volScalarField;
    location    "150";
    object      magR;
}
// * * * * * * * * * * * * * * * * * * * * * * * * * * * * * * * * * * * * * //

dimensions      [0 2 -2 0 0 0 0];

internalField   nonuniform List<scalar> 
10720
(
0.0222696
0.0260176
0.0308161
0.0373281
0.0450584
0.054909
0.0675165
0.0831501
0.102995
0.128316
0.160881
0.204079
0.261948
0.341483
0.454152
0.619824
0.870033
1.26903
1.91697
3.07293
5.13588
9.4568
18.8535
42.5168
53.6982
53.4402
52.0334
51.9639
52.3403
52.0933
50.9061
48.8919
46.1154
42.6194
38.3199
33.2732
26.6485
19.9104
6.4914
0.0189273
0.0162107
0.0131749
0.0105686
0.00811284
0.00590501
0.00415277
0.00316401
0.00360612
0.00504947
0.00754785
0.0113398
0.0168913
0.0249048
0.0362674
0.0523564
0.0755148
0.110101
0.164241
0.25238
0.404256
0.671781
1.18819
2.17025
4.35525
8.85677
19.9797
40.2907
56.0215
62.5818
64.4066
64.6834
64.286
63.3583
61.9472
60.1307
57.477
54.3981
44.6501
0.00355127
0.00353323
0.00349346
0.0033942
0.00324054
0.00306269
0.00285218
0.00261508
0.00237975
0.00214735
0.00192888
0.00175319
0.00169256
0.00181213
0.00226497
0.00344835
0.00634824
0.013247
0.0301283
0.0764244
0.200488
0.603969
1.63048
5.34347
11.1791
17.4231
23.4403
28.2422
30.3059
28.9848
25.3332
21.1142
17.5
14.6971
12.5633
10.9032
9.74782
8.68828
9.55951
0.00351823
0.00346847
0.0033708
0.00322678
0.00302877
0.00276681
0.00246828
0.00218717
0.00191027
0.00163213
0.00137284
0.00114958
0.00095992
0.000797937
0.000660226
0.000544292
0.00044604
0.000362992
0.000290156
0.000223546
0.000157399
9.25238e-05
3.21688e-05
4.96714e-06
2.99826e-05
0.00216144
0.0122011
0.0939028
0.303096
0.580889
0.859595
1.10302
1.30628
1.48388
1.64933
1.81981
2.00018
2.40762
3.35402
0.00238641
0.002365
0.00230933
0.00222519
0.00213693
0.00203963
0.00194081
0.00185159
0.00177457
0.00171401
0.00166783
0.00163648
0.00162549
0.00163174
0.00164493
0.00161173
0.0014131
0.00125949
0.000513519
0.00716561
0.00133428
0.00316742
0.00175819
0.00423906
0.0790544
0.345202
0.996485
2.44955
5.30661
9.61948
14.3498
17.6582
18.4388
17.2314
15.2322
13.1702
11.4997
9.64685
10.957
0.00240626
0.00240431
0.00239823
0.0023565
0.00227978
0.00214699
0.00196851
0.00177269
0.00159
0.00139501
0.00118739
0.000988194
0.000810003
0.000656201
0.000529439
0.000427603
0.000348706
0.000289207
0.000246238
0.000215664
0.000194867
0.000181699
0.000174886
0.000171744
0.00017238
0.000171779
0.000181817
0.000104422
0.00090114
0.00550257
0.0151596
0.0321628
0.0729871
0.151197
0.264779
0.402084
0.550187
0.652745
1.12138
0.00200575
0.00200999
0.00199991
0.00198288
0.00194851
0.0018974
0.00183371
0.00175437
0.00166375
0.00156354
0.0014563
0.00134433
0.00122809
0.00110855
0.000988048
0.0008617
0.000732294
0.00062025
0.000482311
0.000319518
8.86763e-06
0.000231431
0.000216583
0.00233618
0.0156436
0.0375156
0.0685006
0.0434459
0.0229158
0.116408
0.773835
2.64383
5.92104
9.51761
11.8824
12.5274
12.2042
10.9606
11.9551
0.00198434
0.00195228
0.00190229
0.00184197
0.00176535
0.00166367
0.0015458
0.00142213
0.00129038
0.0011463
0.000999666
0.000863155
0.000742333
0.000637752
0.000549266
0.000475104
0.000414087
0.000364339
0.000324432
0.000291937
0.000265527
0.000243314
0.000223346
0.000202227
0.000180439
0.000162379
0.000148675
0.000139243
0.000125302
0.000114693
7.12449e-05
5.05832e-05
0.000437754
0.0007084
0.00306578
0.0155855
0.0499323
0.123827
0.446856
0.00151
0.00150693
0.00149477
0.00147329
0.00144054
0.00139617
0.0013425
0.00128037
0.0012118
0.00114086
0.00106995
0.00100175
0.000939067
0.000884171
0.000837988
0.000800731
0.0007632
0.000718243
0.000667914
0.000616089
0.000448567
0.000245682
3.4379e-08
9.94377e-06
1.35544e-07
0
0
0.0158247
0.0252126
0.00016686
0.00831542
0.0553632
0.0737575
0.874563
3.20332
6.48599
9.27213
10.4865
12.1529
0.00150593
0.00149523
0.00147396
0.00143985
0.00139115
0.00132286
0.00124209
0.00115582
0.0010627
0.000960372
0.000854459
0.000751082
0.000653794
0.000564208
0.000483736
0.000413043
0.000352333
0.000301327
0.00025945
0.000225424
0.000198084
0.000175917
0.000157304
0.000139572
0.000121478
0.000104721
9.15127e-05
8.24676e-05
7.88926e-05
7.23927e-05
9.16906e-05
1.56034e-05
0.000154162
1.52753e-10
0.00172678
0.00336891
0.00125724
0.00398188
0.0868798
0.00123512
0.00124015
0.00123946
0.00123469
0.00122243
0.00120263
0.00117614
0.00114201
0.00110092
0.00105399
0.00100165
0.000945105
0.000885723
0.000824561
0.000762788
0.000699823
0.000631441
0.000560123
0.000492348
0.000432254
0.000385264
0.000333212
0.000234501
0.000131367
1.61359e-06
7.46553e-06
4.68052e-06
3.71177e-07
0
4.44025e-06
0.0010861
0.017055
0.0796742
0.0600026
0.115253
0.792452
3.50213
7.25579
10.903
0.00122411
0.00120898
0.00118692
0.00115737
0.00111864
0.00106839
0.00101152
0.000950078
0.000882333
0.000807861
0.000730154
0.000652959
0.000579072
0.000510121
0.000447379
0.000391713
0.000343382
0.000302219
0.000267737
0.000239044
0.000215125
0.000194684
0.000176282
0.000157893
0.000138672
0.00012029
0.000104226
9.0772e-05
7.94883e-05
7.00583e-05
6.20467e-05
5.39166e-05
4.36401e-05
2.56225e-05
1.6879e-06
5.19984e-07
0.000215817
0.000919968
0.00999749
0.000999731
0.00100396
0.00100455
0.00100181
0.000993781
0.000979923
0.000960545
0.000935108
0.00090383
0.000867566
0.000826941
0.000782957
0.000736935
0.000690103
0.000643677
0.000598937
0.000558253
0.000520969
0.000483614
0.000444567
0.000406078
0.000373203
0.000340686
0.000298935
0.000228485
0.000143084
8.12887e-05
5.42757e-06
4.75703e-06
1.41924e-06
0
0
0
0.0116063
0.0699237
0.0941241
0.264073
2.75746
7.7639
0.000991551
0.00098059
0.000964623
0.000942282
0.000912814
0.000875677
0.000834561
0.000789411
0.000739208
0.000684493
0.000627076
0.000569052
0.000512141
0.000457495
0.000406173
0.00035904
0.000316578
0.000279054
0.000246478
0.000218478
0.000194519
0.000173792
0.000155253
0.000137426
0.000119512
0.000102483
8.75031e-05
7.49169e-05
6.44632e-05
5.60097e-05
4.97187e-05
4.57101e-05
4.30302e-05
3.98142e-05
3.6592e-05
1.56839e-05
1.53073e-06
1.08539e-07
0.000346511
0.000827959
0.000833479
0.000836737
0.000837915
0.000835605
0.000829311
0.000819284
0.000804838
0.000785945
0.000763011
0.00073601
0.000705461
0.000671952
0.000636028
0.000598348
0.000559701
0.000519997
0.00047786
0.000434741
0.000393264
0.000355803
0.000324139
0.000300233
0.000279331
0.000259515
0.000225891
0.000187733
0.000136939
8.66936e-05
2.56125e-05
4.47942e-06
1.00831e-06
0
0
0
0.0213451
0.0385029
0.375667
3.83504
0.000819575
0.000809566
0.000796117
0.000777841
0.000754637
0.000726412
0.000695807
0.000661913
0.000624173
0.00058338
0.000540362
0.000496421
0.000452633
0.000409791
0.000368743
0.000330315
0.000295016
0.000263265
0.000235217
0.000210715
0.00018936
0.000170535
0.000153397
0.000136833
0.000120243
0.000104345
9.00489e-05
7.76191e-05
6.67973e-05
5.73452e-05
4.92009e-05
4.22018e-05
3.6156e-05
3.10164e-05
2.73875e-05
2.38642e-05
1.60938e-05
1.79169e-06
2.63022e-05
0.000690516
0.000695895
0.000699822
0.000702203
0.000702138
0.000699147
0.000693291
0.000683963
0.000671068
0.000654716
0.000634862
0.000611777
0.000585863
0.000557526
0.000527388
0.000495957
0.000463859
0.000432272
0.000401484
0.000371316
0.000342067
0.000314588
0.000289995
0.000266999
0.000244381
0.000220121
0.000194395
0.00017285
0.000149817
0.00011877
8.40428e-05
2.1474e-05
3.35877e-06
6.52951e-10
0
0
0.0075907
0.057471
1.18202
0.000683117
0.000674661
0.000663736
0.000648833
0.000630463
0.000608775
0.000585403
0.000559446
0.000530726
0.000499902
0.000467373
0.000433881
0.000400077
0.000366449
0.00033358
0.000302088
0.000272466
0.000245103
0.000220251
0.00019795
0.00017803
0.000160104
0.000143585
0.000127725
0.000112101
9.71664e-05
8.36661e-05
7.18945e-05
6.1703e-05
5.29159e-05
4.54958e-05
3.94965e-05
3.49051e-05
3.16617e-05
2.97415e-05
2.98707e-05
3.17147e-05
3.19196e-05
1.15106e-06
0.000581887
0.000587187
0.000591621
0.000594991
0.000596619
0.00059622
0.000593736
0.000588655
0.000580873
0.000570383
0.000557023
0.000540915
0.000522251
0.000501235
0.000478205
0.000453488
0.000427599
0.000400589
0.000372443
0.000344146
0.000317038
0.000292146
0.000269881
0.000249048
0.000227185
0.000203495
0.000179445
0.00015905
0.000143679
0.000132042
0.000121436
9.58477e-05
6.13099e-05
1.3587e-08
2.30468e-07
0
0
0.0166812
0.276491
0.000575105
0.000567742
0.000558596
0.000546224
0.000531432
0.00051456
0.000496321
0.000476103
0.000454016
0.000430441
0.000405582
0.000379892
0.000353703
0.000327278
0.000301043
0.00027545
0.000250876
0.000227718
0.000206231
0.000186543
0.000168616
0.000152212
0.000136927
0.000122259
0.000107885
9.41338e-05
8.15868e-05
7.05041e-05
6.07785e-05
5.22485e-05
4.48559e-05
3.85623e-05
3.32818e-05
2.90978e-05
2.59765e-05
2.52229e-05
2.45065e-05
4.04367e-05
1.54278e-05
0.000493896
0.00049889
0.000503374
0.000507107
0.000509566
0.000510585
0.00051
0.000507466
0.000502794
0.000495956
0.000486748
0.000475196
0.000461366
0.000445347
0.000427369
0.000407704
0.000386624
0.000364585
0.000342026
0.00031933
0.000297107
0.000275847
0.000255869
0.000236632
0.000216459
0.000194352
0.000171535
0.00015069
0.000133989
0.000121563
0.000113093
0.000106579
9.93021e-05
7.19797e-05
4.67087e-06
2.42746e-07
0
0.00134741
0.0847339
0.000487804
0.000481416
0.000473749
0.000463423
0.000451379
0.000438063
0.000423591
0.000407628
0.000390453
0.000372248
0.000353068
0.000333205
0.000312837
0.000292079
0.000271165
0.000250412
0.0002301
0.000210537
0.000191993
0.000174622
0.000158449
0.00014337
0.000129142
0.000115443
0.000102083
8.93082e-05
7.75653e-05
6.71035e-05
5.78802e-05
4.97902e-05
4.28017e-05
3.69234e-05
3.21509e-05
2.85401e-05
2.60013e-05
2.5559e-05
2.5065e-05
3.50382e-05
4.22321e-05
0.000422043
0.000426713
0.000431097
0.00043495
0.000437904
0.000439818
0.000440556
0.000439797
0.000437399
0.000433298
0.000427291
0.000419351
0.000409471
0.00039767
0.000384058
0.000368792
0.000352077
0.00033427
0.000315453
0.000295947
0.000276492
0.000257719
0.000239878
0.000222553
0.000204543
0.000184968
0.000164594
0.000145431
0.00012911
0.000115869
0.000105335
9.78679e-05
9.28515e-05
9.44839e-05
7.58212e-05
3.76314e-06
2.71053e-09
0.000465763
0.0289995
0.000416577
0.000410965
0.000404463
0.000395809
0.00038591
0.000375203
0.000363584
0.000350859
0.000337357
0.000323135
0.000308218
0.000292769
0.000276861
0.000260495
0.000243835
0.000227063
0.000210352
0.000193953
0.000178074
0.000162899
0.00014851
0.000134873
0.000121838
0.000109218
9.69403e-05
8.51868e-05
7.43079e-05
6.45247e-05
5.5832e-05
4.81546e-05
4.14609e-05
3.57531e-05
3.10009e-05
2.72636e-05
2.45417e-05
2.36966e-05
2.35849e-05
2.97276e-05
4.66001e-05
0.000362671
0.000366983
0.000371157
0.000374956
0.000378101
0.000380493
0.000382027
0.00038241
0.000381515
0.000379274
0.000375495
0.000370127
0.000363118
0.000354426
0.000344113
0.000332267
0.00031901
0.000304617
0.000289278
0.000273238
0.000256937
0.000240852
0.000225153
0.000209585
0.00019337
0.000175903
0.000157732
0.000140444
0.000125368
0.000112729
0.000102027
9.32634e-05
8.62077e-05
8.31459e-05
8.91368e-05
6.74632e-05
2.06607e-06
7.06112e-05
0.00828051
0.000357794
0.00035285
0.000347278
0.000339986
0.000331794
0.000323063
0.000313628
0.000303388
0.000292664
0.000281463
0.000269767
0.00025766
0.000245167
0.000232254
0.000218962
0.000205412
0.000191709
0.000178026
0.000164524
0.000151358
0.000138628
0.00012635
0.00011446
0.00010288
9.16007e-05
8.07836e-05
7.07004e-05
6.15524e-05
5.33663e-05
4.60997e-05
3.97386e-05
3.43024e-05
2.97896e-05
2.62563e-05
2.37046e-05
2.28149e-05
2.27857e-05
2.73209e-05
4.2815e-05
0.000313204
0.000317148
0.000321063
0.000324715
0.000327893
0.000330546
0.000332551
0.000333672
0.000333811
0.00033288
0.000330725
0.000327264
0.000322448
0.000316214
0.000308563
0.000299526
0.000289171
0.000277692
0.000265248
0.000251957
0.000238143
0.000224287
0.000210537
0.000196719
0.000182282
0.000166787
0.000150641
0.000135099
0.000121322
0.000109591
9.95446e-05
9.09669e-05
8.37192e-05
7.79826e-05
7.58121e-05
9.1027e-05
2.89864e-05
2.32131e-06
0.00125642
0.000308837
0.000304487
0.000299666
0.000293486
0.000286661
0.000279454
0.000271695
0.000263401
0.000254802
0.000245897
0.000236649
0.00022711
0.000217258
0.000207022
0.00019642
0.000185486
0.000174271
0.000162895
0.000151477
0.000140136
0.000128958
0.000117998
0.000107247
9.67066e-05
8.64131e-05
7.65055e-05
6.72107e-05
5.87038e-05
5.1032e-05
4.41795e-05
3.81428e-05
3.29462e-05
2.85865e-05
2.51187e-05
2.2558e-05
2.15409e-05
2.13854e-05
2.52473e-05
3.842e-05
0.000271657
0.000275237
0.000278875
0.000282313
0.00028542
0.00028817
0.00029042
0.000291995
0.000292814
0.000292783
0.000291776
0.000289717
0.00028653
0.000282146
0.000276531
0.000269697
0.000261681
0.000252579
0.000242567
0.000231716
0.000220198
0.000208419
0.000196512
0.000184356
0.000171584
0.000157889
0.000143572
0.000129622
0.000117039
0.000106164
9.67917e-05
8.87415e-05
8.19009e-05
7.65256e-05
7.07125e-05
7.68465e-05
7.94932e-05
6.48854e-08
0.000188558
0.00026774
0.000263905
0.000259714
0.000254437
0.000248713
0.000242701
0.000236268
0.000229489
0.00022254
0.000215401
0.000208038
0.000200464
0.000192649
0.000184513
0.000176031
0.000167212
0.000158058
0.00014863
0.000139008
0.000129283
0.00011954
0.000109836
0.000100191
9.06368e-05
8.12636e-05
7.22144e-05
6.36697e-05
5.57811e-05
4.86103e-05
4.2164e-05
3.64509e-05
3.15035e-05
2.73298e-05
2.39875e-05
2.14903e-05
2.04088e-05
2.01435e-05
2.33303e-05
3.45757e-05
0.000236511
0.000239758
0.000243106
0.000246306
0.000249291
0.000252025
0.000254386
0.000256228
0.000257484
0.000258071
0.000257874
0.000256819
0.000254842
0.000251863
0.000247855
0.000242786
0.000236666
0.000229535
0.000221555
0.000212739
0.000203186
0.000193216
0.000182969
0.000172374
0.000161165
0.000149129
0.0001365
0.000124047
0.000112613
0.000102566
9.38179e-05
8.62573e-05
7.98327e-05
7.47692e-05
7.04847e-05
6.52523e-05
9.41728e-05
2.13021e-06
0
0.000233011
0.000229607
0.000225952
0.00022142
0.000216588
0.000211525
0.000206145
0.000200562
0.000194897
0.000189129
0.00018322
0.000177176
0.000170949
0.000164452
0.000157654
0.000150523
0.000143052
0.000135256
0.000127183
0.000118891
0.000110444
0.000101902
9.33005e-05
8.47062e-05
7.62237e-05
6.7993e-05
6.01662e-05
5.28791e-05
4.62016e-05
4.01569e-05
3.4764e-05
3.0061e-05
2.60602e-05
2.2819e-05
2.03549e-05
1.91872e-05
1.88216e-05
2.14186e-05
3.11021e-05
0.000206598
0.00020954
0.000212598
0.000215562
0.000218382
0.000221034
0.00022341
0.000225389
0.000226902
0.00022789
0.00022825
0.000227917
0.00022684
0.000224934
0.000222157
0.000218469
0.00021386
0.000208342
0.000202031
0.000194938
0.000187103
0.000178742
0.000170004
0.000160851
0.000151092
0.000140574
0.000129483
0.000118421
0.000108088
9.88563e-05
9.07223e-05
8.36201e-05
7.75849e-05
7.25569e-05
6.96792e-05
6.20572e-05
8.28838e-05
2.75714e-05
4.60107e-07
0.000203479
0.000200453
0.000197243
0.000193334
0.000189226
0.000184926
0.000180396
0.000175764
0.000171112
0.000166414
0.00016164
0.000156778
0.000151782
0.000146576
0.000141107
0.000135341
0.00012924
0.000122807
0.000116052
0.000109013
0.000101733
9.42564e-05
8.66293e-05
7.89351e-05
7.12933e-05
6.38302e-05
5.66855e-05
4.99777e-05
4.37795e-05
3.81278e-05
3.30501e-05
2.85891e-05
2.4764e-05
2.16328e-05
1.92147e-05
1.79757e-05
1.75216e-05
1.95957e-05
2.78919e-05
0.000181004
0.000183661
0.000186441
0.000189177
0.000191808
0.000194344
0.00019667
0.00019869
0.000200348
0.000201593
0.000202333
0.00020252
0.000202092
0.00020098
0.000199142
0.000196533
0.000193133
0.000188926
0.00018399
0.00017834
0.000171974
0.000165017
0.000157628
0.000149793
0.000141363
0.000132229
0.00012254
0.000112766
0.000103484
9.50521e-05
8.75312e-05
8.08911e-05
7.52128e-05
7.03579e-05
6.75052e-05
6.22795e-05
6.84104e-05
6.14894e-05
5.22332e-06
0.00017822
0.000175524
0.000172696
0.00016931
0.000165794
0.000162116
0.00015828
0.000154406
0.000150555
0.000146698
0.000142812
0.000138879
0.000134851
0.000130653
0.00012624
0.000121563
0.000116578
0.00011127
0.000105631
9.96729e-05
9.34262e-05
8.69267e-05
8.02117e-05
7.33567e-05
6.64891e-05
5.97491e-05
5.32522e-05
4.71005e-05
4.13675e-05
3.60995e-05
3.13309e-05
2.71075e-05
2.3454e-05
2.04284e-05
1.80516e-05
1.67441e-05
1.62095e-05
1.78523e-05
2.49207e-05
0.000158997
0.000161388
0.00016392
0.000166423
0.00016887
0.000171261
0.000173503
0.000175501
0.000177222
0.000178612
0.000179599
0.000180134
0.000180173
0.00017965
0.00017853
0.00017676
0.000174313
0.000171169
0.000167355
0.000162905
0.000157784
0.000152049
0.00014586
0.000139214
0.000131992
0.000124111
0.000115693
0.000107104
9.88177e-05
9.11643e-05
8.42488e-05
7.80817e-05
7.27345e-05
6.81966e-05
6.49061e-05
6.20749e-05
6.00928e-05
6.95083e-05
2.93211e-05
0.00015651
0.000154103
0.000151602
0.00014866
0.000145627
0.000142465
0.000139196
0.000135937
0.000132723
0.000129536
0.00012635
0.000123144
0.000119875
0.000116474
0.000112894
0.00010909
0.000105012
0.00010063
9.59293e-05
9.09057e-05
8.55652e-05
7.99313e-05
7.40383e-05
6.79666e-05
6.18359e-05
5.57724e-05
4.98824e-05
4.42581e-05
3.89716e-05
3.40746e-05
2.9607e-05
2.56162e-05
2.21318e-05
1.92119e-05
1.68786e-05
1.55117e-05
1.49051e-05
1.61892e-05
2.21796e-05
0.00013999
0.000142141
0.000144439
0.000146727
0.000148987
0.000151227
0.000153353
0.000155294
0.000157017
0.000158477
0.000159613
0.000160387
0.000160759
0.000160674
0.000160091
0.000158967
0.000157267
0.000154967
0.000152062
0.000148598
0.000144525
0.000139852
0.000134712
0.000129123
0.000122986
0.000116236
0.000108966
0.000101463
9.41111e-05
8.72089e-05
8.08855e-05
7.51903e-05
7.01726e-05
6.59564e-05
6.24423e-05
6.05489e-05
5.67077e-05
6.36687e-05
5.01219e-05
0.000137768
0.000135617
0.0001334
0.000130836
0.000128199
0.000125468
0.000122667
0.000119903
0.000117203
0.000114549
0.000111918
0.000109287
0.000106616
0.000103846
0.000100931
9.78246e-05
9.44802e-05
9.08632e-05
8.69442e-05
8.27112e-05
7.81629e-05
7.33051e-05
6.81594e-05
6.28016e-05
5.73467e-05
5.19089e-05
4.65867e-05
4.1462e-05
3.66034e-05
3.20648e-05
2.78898e-05
2.41259e-05
2.0808e-05
1.79919e-05
1.5702e-05
1.42822e-05
1.36108e-05
1.46094e-05
1.96728e-05
0.000123509
0.000125447
0.000127527
0.000129613
0.000131693
0.000133777
0.000135774
0.000137632
0.000139319
0.000140796
0.000142013
0.000142938
0.000143536
0.00014376
0.000143575
0.000142943
0.000141823
0.000140191
0.00013803
0.000135381
0.000132182
0.000128416
0.000124191
0.000119534
0.000114365
0.000108624
0.000102383
9.58676e-05
8.93861e-05
8.32022e-05
7.74556e-05
7.22224e-05
6.75428e-05
6.35949e-05
6.01345e-05
5.82326e-05
5.50514e-05
5.65986e-05
5.62943e-05
0.000121525
0.000119601
0.000117632
0.00011539
0.000113086
0.000110712
0.000108301
0.000105943
0.00010366
0.000101434
9.92415e-05
9.7065e-05
9.48691e-05
9.25989e-05
9.02133e-05
8.76669e-05
8.49148e-05
8.19239e-05
7.86598e-05
7.50996e-05
7.12294e-05
6.70527e-05
6.25813e-05
5.7874e-05
5.30329e-05
4.81719e-05
4.33796e-05
3.87259e-05
3.42743e-05
3.00791e-05
2.61862e-05
2.26423e-05
1.94877e-05
1.67737e-05
1.45283e-05
1.3064e-05
1.23348e-05
1.31071e-05
1.73826e-05
0.000109169
0.000110912
0.000112798
0.000114695
0.000116606
0.000118532
0.000120396
0.000122155
0.000123779
0.000125236
0.000126482
0.000127493
0.00012824
0.000128681
0.000128791
0.000128526
0.000127856
0.000126755
0.000125192
0.000123198
0.00012072
0.000117726
0.000114291
0.000110446
0.000106132
0.000101288
9.59667e-05
9.03436e-05
8.46666e-05
7.91617e-05
7.39725e-05
6.91881e-05
6.48547e-05
6.11391e-05
5.7856e-05
5.57053e-05
5.3354e-05
5.17425e-05
5.4245e-05
0.000107399
0.000105674
0.000103923
0.000101954
9.99339e-05
9.78633e-05
9.57762e-05
9.37522e-05
9.18073e-05
8.99245e-05
8.80883e-05
8.62767e-05
8.44568e-05
8.25826e-05
8.0617e-05
7.85214e-05
7.62508e-05
7.37704e-05
7.10471e-05
6.80536e-05
6.47706e-05
6.11869e-05
5.73086e-05
5.31848e-05
4.89086e-05
4.45797e-05
4.02765e-05
3.60624e-05
3.19945e-05
2.81261e-05
2.4504e-05
2.11738e-05
1.81777e-05
1.55638e-05
1.33637e-05
1.18624e-05
1.10847e-05
1.16841e-05
1.53009e-05
9.66535e-05
9.8223e-05
9.99285e-05
0.000101652
0.000103403
0.000105176
0.000106909
0.000108558
0.000110104
0.000111515
0.000112758
0.00011381
0.000114648
0.000115237
0.000115554
0.000115563
0.000115235
0.000114543
0.000113456
0.000111992
0.000110108
0.000107764
0.000105004
0.000101864
9.82968e-05
9.42427e-05
8.97364e-05
8.49155e-05
7.99757e-05
7.51086e-05
7.04514e-05
6.60997e-05
6.21089e-05
5.86179e-05
5.55278e-05
5.32067e-05
5.12272e-05
4.85342e-05
5.00385e-05
9.50741e-05
9.35279e-05
9.19668e-05
9.02313e-05
8.84536e-05
8.66414e-05
8.48246e-05
8.30785e-05
8.14115e-05
7.98087e-05
7.82558e-05
7.67354e-05
7.52161e-05
7.36606e-05
7.2034e-05
7.0298e-05
6.84158e-05
6.63547e-05
6.4079e-05
6.15602e-05
5.87758e-05
5.57082e-05
5.23542e-05
4.87537e-05
4.49861e-05
4.11422e-05
3.72873e-05
3.34811e-05
2.9774e-05
2.62163e-05
2.28535e-05
1.97292e-05
1.68866e-05
1.43704e-05
1.22164e-05
1.0685e-05
9.8656e-06
1.03398e-05
1.34192e-05
8.57004e-05
8.71128e-05
8.86543e-05
9.02219e-05
9.1819e-05
9.3448e-05
9.5049e-05
9.65868e-05
9.80424e-05
9.93925e-05
0.000100605
0.000101665
0.000102549
0.000103234
0.000103696
0.000103904
0.000103834
0.000103458
0.000102749
0.00010171
0.000100311
9.85104e-05
9.63224e-05
9.37883e-05
9.0866e-05
8.75005e-05
8.37126e-05
7.96076e-05
7.53373e-05
7.10632e-05
6.69101e-05
6.29749e-05
5.93163e-05
5.60522e-05
5.31349e-05
5.07609e-05
4.88191e-05
4.59682e-05
4.60046e-05
8.42873e-05
8.29053e-05
8.15099e-05
7.99767e-05
7.84077e-05
7.68152e-05
7.52274e-05
7.37107e-05
7.22723e-05
7.0898e-05
6.95775e-05
6.82929e-05
6.70167e-05
6.57139e-05
6.43559e-05
6.29113e-05
6.13452e-05
5.96261e-05
5.77207e-05
5.56004e-05
5.32402e-05
5.06175e-05
4.77226e-05
4.45848e-05
4.12723e-05
3.7864e-05
3.44226e-05
3.09935e-05
2.76236e-05
2.43593e-05
2.12433e-05
1.83168e-05
1.56231e-05
1.32027e-05
1.10949e-05
9.53951e-06
8.68566e-06
9.07234e-06
1.17218e-05
7.60902e-05
7.73612e-05
7.87535e-05
8.01784e-05
8.16331e-05
8.31256e-05
8.45995e-05
8.60254e-05
8.73887e-05
8.86657e-05
8.98326e-05
9.08759e-05
9.17769e-05
9.2516e-05
9.30719e-05
9.3423e-05
9.3543e-05
9.34077e-05
9.29931e-05
9.22898e-05
9.12855e-05
8.99303e-05
8.8221e-05
8.62001e-05
8.38348e-05
8.10687e-05
7.79108e-05
7.44403e-05
7.07749e-05
6.70458e-05
6.33661e-05
5.98277e-05
5.64893e-05
5.34549e-05
5.0695e-05
4.83415e-05
4.63223e-05
4.35345e-05
4.2507e-05
7.48251e-05
7.35889e-05
7.234e-05
7.09826e-05
6.95943e-05
6.81892e-05
6.67971e-05
6.54742e-05
6.42252e-05
6.30396e-05
6.19075e-05
6.0812e-05
5.97297e-05
5.86332e-05
5.74945e-05
5.62841e-05
5.49735e-05
5.35342e-05
5.19353e-05
5.01464e-05
4.81435e-05
4.59016e-05
4.3407e-05
4.06785e-05
3.77743e-05
3.47596e-05
3.16926e-05
2.86099e-05
2.55534e-05
2.25641e-05
1.9682e-05
1.69452e-05
1.43955e-05
1.20691e-05
1.00073e-05
8.43266e-06
7.5498e-06
7.88464e-06
1.02015e-05
6.76376e-05
6.87832e-05
7.00405e-05
7.13324e-05
7.26568e-05
7.40203e-05
7.53739e-05
7.66896e-05
7.79596e-05
7.91585e-05
8.02694e-05
8.1279e-05
8.21748e-05
8.29368e-05
8.35511e-05
8.39986e-05
8.42558e-05
8.43015e-05
8.4113e-05
8.36754e-05
8.29849e-05
8.1995e-05
8.06853e-05
7.9099e-05
7.7206e-05
7.49534e-05
7.23412e-05
6.94284e-05
6.63055e-05
6.30753e-05
5.98358e-05
5.66723e-05
5.36424e-05
5.08312e-05
4.82278e-05
4.59229e-05
4.38317e-05
4.11014e-05
3.94102e-05
6.65067e-05
6.53997e-05
6.42802e-05
6.30763e-05
6.1845e-05
6.06015e-05
5.9377e-05
5.82167e-05
5.71268e-05
5.60972e-05
5.51204e-05
5.41802e-05
5.32562e-05
5.23247e-05
5.13625e-05
5.03437e-05
4.92416e-05
4.80301e-05
4.66835e-05
4.51728e-05
4.34719e-05
4.15545e-05
3.94037e-05
3.70328e-05
3.4489e-05
3.18301e-05
2.91011e-05
2.63363e-05
2.357e-05
2.0838e-05
1.81776e-05
1.56227e-05
1.32115e-05
1.09778e-05
8.96253e-06
7.3722e-06
6.464e-06
6.77657e-06
8.84475e-06
6.01889e-05
6.12212e-05
6.23571e-05
6.35269e-05
6.47308e-05
6.59749e-05
6.72134e-05
6.84254e-05
6.96015e-05
7.07213e-05
7.17686e-05
7.27343e-05
7.36075e-05
7.43722e-05
7.50177e-05
7.55259e-05
7.58778e-05
7.60562e-05
7.60388e-05
7.58099e-05
7.53671e-05
7.467e-05
7.3692e-05
7.24669e-05
7.09721e-05
6.91571e-05
6.7016e-05
6.45902e-05
6.19479e-05
5.91697e-05
5.63365e-05
5.35239e-05
5.07877e-05
4.8198e-05
4.57476e-05
4.35073e-05
4.13823e-05
3.86855e-05
3.65807e-05
5.91774e-05
5.81866e-05
5.71827e-05
5.61117e-05
5.50179e-05
5.39144e-05
5.28334e-05
5.18128e-05
5.0857e-05
4.99572e-05
4.91078e-05
4.82954e-05
4.75014e-05
4.67051e-05
4.58853e-05
4.50215e-05
4.40896e-05
4.30676e-05
4.19288e-05
4.06483e-05
3.92016e-05
3.75619e-05
3.57086e-05
3.3651e-05
3.14257e-05
2.90823e-05
2.66586e-05
2.41826e-05
2.16827e-05
1.9191e-05
1.67391e-05
1.43576e-05
1.20808e-05
9.93856e-06
7.97006e-06
6.36593e-06
5.43354e-06
5.75031e-06
7.64276e-06
5.36131e-05
5.45423e-05
5.55689e-05
5.66268e-05
5.77204e-05
5.88542e-05
5.99849e-05
6.10985e-05
6.21825e-05
6.32232e-05
6.42039e-05
6.51186e-05
6.59568e-05
6.67089e-05
6.7363e-05
6.79052e-05
6.83213e-05
6.85929e-05
6.87038e-05
6.86355e-05
6.8388e-05
6.79238e-05
6.72163e-05
6.62885e-05
6.51259e-05
6.36821e-05
6.19434e-05
5.99398e-05
5.77202e-05
5.53462e-05
5.28848e-05
5.03997e-05
4.79382e-05
4.55655e-05
4.32694e-05
4.11057e-05
3.89786e-05
3.63208e-05
3.39577e-05
5.27065e-05
5.182e-05
5.09202e-05
4.99657e-05
4.89926e-05
4.80126e-05
4.70543e-05
4.6153e-05
4.53108e-05
4.45204e-05
4.37775e-05
4.30703e-05
4.23824e-05
4.16972e-05
4.09956e-05
4.02586e-05
3.94663e-05
3.85982e-05
3.76319e-05
3.65438e-05
3.531e-05
3.39056e-05
3.23085e-05
3.05227e-05
2.85779e-05
2.65147e-05
2.43647e-05
2.2151e-05
1.98964e-05
1.7628e-05
1.53728e-05
1.31573e-05
1.10116e-05
8.96057e-06
7.03965e-06
5.42193e-06
4.4625e-06
4.80777e-06
6.58541e-06
4.7797e-05
4.86345e-05
4.95605e-05
5.05178e-05
5.15097e-05
5.25405e-05
5.35723e-05
5.45915e-05
5.55882e-05
5.65501e-05
5.74636e-05
5.83228e-05
5.9121e-05
5.98486e-05
6.04967e-05
6.10545e-05
6.15085e-05
6.18441e-05
6.20473e-05
6.21001e-05
6.20022e-05
6.17221e-05
6.12314e-05
6.05494e-05
5.9661e-05
5.85257e-05
5.71281e-05
5.54874e-05
5.36372e-05
5.16227e-05
4.94968e-05
4.73134e-05
4.51124e-05
4.29443e-05
4.08057e-05
3.87251e-05
3.66217e-05
3.40215e-05
3.15094e-05
4.69841e-05
4.61917e-05
4.53852e-05
4.45326e-05
4.36659e-05
4.27943e-05
4.19429e-05
4.11441e-05
4.0399e-05
3.97019e-05
3.90488e-05
3.84292e-05
3.78296e-05
3.72351e-05
3.66305e-05
3.59981e-05
3.53206e-05
3.45802e-05
3.37567e-05
3.28291e-05
3.17753e-05
3.05703e-05
2.91926e-05
2.76423e-05
2.59421e-05
2.41278e-05
2.22231e-05
2.02468e-05
1.82169e-05
1.61556e-05
1.40858e-05
1.2029e-05
1.00112e-05
8.05204e-06
6.18093e-06
4.5491e-06
3.55482e-06
3.95326e-06
5.66509e-06
4.26451e-05
4.34002e-05
4.42349e-05
4.51009e-05
4.60001e-05
4.69355e-05
4.78757e-05
4.88065e-05
4.97209e-05
5.06067e-05
5.14539e-05
5.22564e-05
5.30094e-05
5.37042e-05
5.43356e-05
5.48922e-05
5.53658e-05
5.57429e-05
5.60105e-05
5.6152e-05
5.61676e-05
5.60302e-05
5.5713e-05
5.52284e-05
5.45648e-05
5.36862e-05
5.25756e-05
5.12433e-05
4.97121e-05
4.80144e-05
4.61899e-05
4.42808e-05
4.23217e-05
4.03518e-05
3.83665e-05
3.63814e-05
3.43228e-05
3.18022e-05
2.92256e-05
4.19163e-05
4.12077e-05
4.04853e-05
3.97227e-05
3.89502e-05
3.81738e-05
3.7416e-05
3.67061e-05
3.60448e-05
3.54268e-05
3.48495e-05
3.43045e-05
3.37792e-05
3.32601e-05
3.27352e-05
3.21889e-05
3.16066e-05
3.09726e-05
3.02684e-05
2.94746e-05
2.85717e-05
2.75359e-05
2.63459e-05
2.49998e-05
2.35151e-05
2.19195e-05
2.0234e-05
1.84716e-05
1.66472e-05
1.47777e-05
1.28823e-05
1.09781e-05
9.08623e-06
7.22147e-06
5.40468e-06
3.75854e-06
2.71388e-06
3.19282e-06
4.87573e-06
3.80758e-05
3.87558e-05
3.95085e-05
4.02909e-05
4.11052e-05
4.1954e-05
4.28086e-05
4.36574e-05
4.44945e-05
4.5308e-05
4.60898e-05
4.68354e-05
4.75404e-05
4.81982e-05
4.88044e-05
4.93512e-05
4.98298e-05
5.0229e-05
5.05381e-05
5.07432e-05
5.08428e-05
5.08145e-05
5.0634e-05
5.03073e-05
4.9825e-05
4.91568e-05
4.82854e-05
4.72135e-05
4.59559e-05
4.45345e-05
4.29776e-05
4.13181e-05
3.95814e-05
3.77993e-05
3.59649e-05
3.40863e-05
3.20894e-05
2.9663e-05
2.70935e-05
3.74221e-05
3.67879e-05
3.61412e-05
3.54593e-05
3.47696e-05
3.40772e-05
3.34021e-05
3.27697e-05
3.2181e-05
3.16313e-05
3.11196e-05
3.06366e-05
3.01731e-05
2.97187e-05
2.92609e-05
2.87866e-05
2.82832e-05
2.77371e-05
2.71322e-05
2.64509e-05
2.56753e-05
2.47838e-05
2.37548e-05
2.25844e-05
2.12875e-05
1.98855e-05
1.83953e-05
1.68261e-05
1.51891e-05
1.34975e-05
1.17663e-05
1.00096e-05
8.24269e-06
6.47623e-06
4.72134e-06
3.06414e-06
1.94128e-06
2.53736e-06
4.21198e-06
3.40176e-05
3.46301e-05
3.53081e-05
3.60147e-05
3.67513e-05
3.75205e-05
3.82965e-05
3.90692e-05
3.98336e-05
4.05784e-05
4.12978e-05
4.19875e-05
4.26439e-05
4.32623e-05
4.38385e-05
4.43665e-05
4.4839e-05
4.52467e-05
4.55814e-05
4.58302e-05
4.59899e-05
4.60432e-05
4.59671e-05
4.57644e-05
4.54272e-05
4.49302e-05
4.42553e-05
4.34019e-05
4.23771e-05
4.11944e-05
3.98732e-05
3.84371e-05
3.69055e-05
3.52995e-05
3.36131e-05
3.1845e-05
2.99298e-05
2.76148e-05
2.51009e-05
3.34311e-05
3.2864e-05
3.22846e-05
3.16749e-05
3.10589e-05
3.04411e-05
2.98389e-05
2.92748e-05
2.87497e-05
2.82593e-05
2.78033e-05
2.73746e-05
2.69642e-05
2.65633e-05
2.61616e-05
2.5748e-05
2.53113e-05
2.48392e-05
2.43174e-05
2.37312e-05
2.30636e-05
2.22942e-05
2.14031e-05
2.03853e-05
1.92517e-05
1.80206e-05
1.67039e-05
1.53088e-05
1.38428e-05
1.23165e-05
1.07406e-05
9.12587e-06
7.48423e-06
5.82185e-06
4.14106e-06
2.48602e-06
1.24073e-06
2.00474e-06
3.66985e-06
3.0409e-05
3.09605e-05
3.15709e-05
3.22088e-05
3.28746e-05
3.35708e-05
3.42748e-05
3.49774e-05
3.56738e-05
3.63548e-05
3.70147e-05
3.76502e-05
3.82584e-05
3.88356e-05
3.93785e-05
3.98826e-05
4.03417e-05
4.07487e-05
4.10955e-05
4.13708e-05
4.15711e-05
4.16836e-05
4.16871e-05
4.15799e-05
4.13573e-05