/*--------------------------------*- C++ -*----------------------------------*\
| =========                 |                                                 |
| \\      /  F ield         | OpenFOAM: The Open Source CFD Toolbox           |
|  \\    /   O peration     | Version:  2206                                  |
|   \\  /    A nd           | Website:  www.openfoam.com                      |
|    \\/     M anipulation  |                                                 |
\*---------------------------------------------------------------------------*/
FoamFile
{
    version     2.0;
    format      ascii;
    arch        "LSB;label=32;scalar=64";
    class       volVectorField;
    location    "150";
    object      momentError;
}
// * * * * * * * * * * * * * * * * * * * * * * * * * * * * * * * * * * * * * //

dimensions      [0 1 -2 0 0 0 0];

internalField   nonuniform List<vector> 
10720
(
(1.32497 -5.20129 -2.82854e-15)
(0.920999 -5.12291 -2.08927e-15)
(0.0615867 -4.31961 -2.0563e-14)
(-0.306219 -4.1174 9.14728e-14)
(-0.567413 -3.71424 6.88106e-14)
(-0.750163 -3.29719 -1.69674e-13)
(-0.899057 -2.8971 -1.31422e-13)
(-0.956464 -2.44753 -1.01986e-13)
(-0.94996 -2.04486 2.02052e-14)
(-0.899791 -1.65373 5.24915e-15)
(-0.82143 -1.38888 -1.56333e-14)
(-0.557532 -0.884164 6.54275e-14)
(-0.361167 -0.565727 -2.12876e-13)
(-0.194954 -0.296306 -3.90308e-13)
(-0.00134454 -0.0513686 7.23341e-14)
(0.195361 0.161313 -1.03558e-13)
(0.411384 0.334385 1.12784e-13)
(0.648741 0.469448 8.71931e-13)
(0.915679 0.571571 2.32488e-13)
(1.19999 0.625641 -4.65919e-13)
(1.43412 0.629265 -2.26184e-13)
(1.51881 0.531178 8.89983e-14)
(1.20863 0.354478 3.51555e-13)
(0.624333 0.230398 -2.57167e-13)
(0.361405 0.146872 4.82594e-14)
(0.228414 0.0371037 -3.97405e-14)
(0.202391 -0.0214745 -6.90314e-14)
(0.185263 -0.0403299 1.23232e-14)
(0.185281 -0.037141 1.03171e-14)
(0.207407 -0.0304218 2.09723e-13)
(0.216983 -0.0249866 1.57849e-13)
(0.175823 -0.0176815 -1.77255e-13)
(0.144495 -0.0139669 -1.31634e-13)
(0.121372 -0.0131242 -2.4123e-13)
(0.103903 -0.0132128 -1.63472e-13)
(0.0881082 -0.0128734 1.56067e-13)
(0.0829895 -0.013223 -1.09759e-14)
(0.0607798 -0.00185632 4.96526e-16)
(0.176082 -0.0310855 -6.62054e-14)
(1.49758 -4.84696 9.56113e-15)
(1.6078 -3.88743 -2.17488e-14)
(1.57124 -2.89034 2.45674e-14)
(1.30907 -2.08091 1.09352e-13)
(1.09474 -1.45879 4.06374e-14)
(0.809948 -0.793067 -2.94472e-13)
(0.274378 -0.146229 -1.36915e-13)
(0.0171236 0.054503 1.51035e-13)
(0.164717 -0.15209 -6.81304e-14)
(0.389681 -0.333931 5.99665e-14)
(0.431222 -0.28264 -7.80443e-14)
(0.371152 -0.205971 -1.35448e-13)
(0.344123 -0.176093 3.50602e-14)
(0.328842 -0.1505 6.92094e-14)
(0.295962 -0.121114 -1.14221e-13)
(0.259723 -0.0992444 -9.87778e-14)
(0.231854 -0.0836697 -7.02603e-14)
(0.208537 -0.0711003 -8.55892e-14)
(0.187251 -0.0601263 -3.1458e-14)
(0.167677 -0.0509734 -2.6159e-15)
(0.150635 -0.0431295 2.95729e-14)
(0.13572 -0.0366139 5.95516e-14)
(0.122955 -0.0306888 -2.80263e-14)
(0.111344 -0.0258744 -2.0045e-14)
(0.0997797 -0.0203954 2.36268e-14)
(0.0877906 -0.0189998 -3.86387e-15)
(0.079008 -0.0154617 -6.79147e-16)
(0.0737134 -0.00277625 -1.50003e-15)
(0.0682738 0.00536996 3.05721e-16)
(0.0636449 0.00541962 2.89815e-16)
(0.056717 0.00446669 9.74702e-16)
(0.0514577 0.00444954 -1.61766e-15)
(0.0469436 0.00470042 -2.60032e-15)
(0.0429222 0.00485303 -8.5664e-15)
(0.0391679 0.00487176 -9.49633e-15)
(0.0357641 0.00478726 4.88083e-16)
(0.0324301 0.00471233 1.17557e-14)
(0.0301028 0.0040333 -2.95617e-15)
(0.0221579 0.00807669 -5.67618e-14)
(-0.375616 -3.70075 -4.29318e-15)
(-0.77912 -3.68663 2.82487e-15)
(-1.07106 -3.12103 -8.85204e-16)
(-1.46674 -3.01829 -6.91031e-15)
(-1.7149 -2.79531 9.05728e-15)
(-1.87504 -2.53841 6.19079e-14)
(-2.04158 -2.26106 7.50567e-14)
(-2.11743 -1.96824 2.57576e-14)
(-2.11342 -1.68314 -8.21189e-14)
(-2.08973 -1.42954 -3.87709e-14)
(-1.98226 -1.14471 -2.47346e-13)
(-1.96763 -1.2388 -4.53992e-13)
(-1.92792 -1.20783 -2.25504e-14)
(-1.89774 -1.08896 -1.97906e-14)
(-1.74673 -1.0378 -8.152e-14)
(-1.61842 -0.981292 8.44349e-14)
(-1.47296 -0.947582 3.79596e-13)
(-1.29229 -0.914147 -6.78195e-13)
(-1.04567 -0.880645 -5.56638e-13)
(-0.695173 -0.831562 -3.54883e-13)
(-0.198637 -0.729128 2.2199e-13)
(0.454012 -0.53481 2.71461e-13)
(1.14089 -0.211453 -3.6949e-13)
(1.52016 0.0636869 5.94057e-14)
(1.30908 0.109664 -2.13107e-15)
(1.11135 0.0688276 -9.7756e-15)
(1.00585 0.0352147 -4.06101e-15)
(0.848736 0.00300719 1.2159e-14)
(0.599019 -0.0126453 -2.7747e-14)
(0.38698 -0.0210264 -1.38339e-14)
(0.236535 -0.0271408 7.30448e-15)
(0.187625 -0.0309418 -5.2336e-15)
(0.179111 -0.0314135 -1.13381e-13)
(0.172622 -0.0292952 -7.02229e-14)
(0.160889 -0.0268786 1.58882e-13)
(0.148816 -0.0261736 3.01112e-14)
(0.15338 -0.0287388 6.72308e-14)
(0.139458 -0.0277081 -1.1338e-14)
(0.0636515 -0.0210228 -3.68647e-14)
(-0.107295 -3.47529 -1.71658e-14)
(0.222026 -2.90037 1.57687e-13)
(0.474149 -2.24874 -4.9413e-14)
(0.56858 -1.73545 -1.20145e-13)
(0.60412 -1.25729 8.09663e-14)
(0.559424 -0.764952 7.42539e-14)
(0.341922 -0.325561 -1.80896e-14)
(0.226609 -0.192794 1.58721e-13)
(0.312332 -0.278897 3.42869e-14)
(0.42684 -0.312615 -5.37897e-14)
(0.471697 -0.232674 7.07568e-14)
(0.447721 -0.171366 -9.55436e-14)
(0.421136 -0.138984 2.15447e-14)
(0.397469 -0.103911 1.00703e-14)
(0.363206 -0.0723476 2.3562e-14)
(0.324578 -0.053904 2.64678e-14)
(0.291797 -0.0421118 4.59573e-14)
(0.263852 -0.0330883 -1.3539e-14)
(0.238776 -0.0254825 2.94919e-15)
(0.215875 -0.0197977 -6.74227e-15)
(0.195677 -0.0151001 1.75633e-14)
(0.177817 -0.0113585 5.07348e-14)
(0.162052 -0.00780681 -1.01686e-15)
(0.147299 -0.00387196 -1.62936e-14)
(0.132831 0.000960798 -1.39788e-14)
(0.1186 0.00537852 1.91142e-14)
(0.104958 0.00758406 5.28508e-15)
(0.0937233 0.00785768 -1.39655e-15)
(0.0847734 0.00597313 4.73372e-17)
(0.0760883 0.00434284 -8.41464e-17)
(0.0709878 0.00384317 -1.85841e-16)
(0.0653654 0.00485292 -1.06693e-15)
(0.0597241 0.00576559 2.98864e-15)
(0.0544234 0.00619011 5.20288e-15)
(0.0497282 0.00633342 3.29599e-15)
(0.0458372 0.00633095 -8.03763e-15)
(0.0418727 0.00620768 1.15206e-15)
(0.0421454 0.00654586 1.15421e-14)
(0.0267822 0.00749108 1.51583e-14)
(0.251153 -2.99894 2.01886e-15)
(0.0355652 -2.97376 4.51871e-16)
(-0.227931 -2.54277 -1.39704e-15)
(-0.465564 -2.55581 -1.45541e-15)
(-0.621428 -2.44498 5.23191e-14)
(-0.75663 -2.26629 -5.98301e-14)
(-0.888405 -2.09613 -8.05348e-14)
(-0.968752 -1.90185 1.49162e-13)
(-1.00586 -1.6864 6.20275e-14)
(-1.01793 -1.47999 8.5588e-14)
(-0.995299 -1.28193 1.92841e-14)
(-0.94863 -1.07184 2.74565e-16)
(-0.896058 -0.861596 3.43186e-13)
(-0.822628 -0.697266 1.12588e-14)
(-0.822091 -0.528446 2.11906e-13)
(-0.851167 -0.390586 -4.12067e-16)
(-0.878696 -0.312793 -6.68793e-13)
(-0.935618 -0.259482 4.04662e-13)
(-1.04494 -0.247656 9.05573e-13)
(-1.22304 -0.285312 1.64404e-13)
(-1.44705 -0.38231 -3.33744e-14)
(-1.65746 -0.450568 -5.53514e-14)
(-1.63159 -0.392311 1.55934e-13)
(-1.21908 -0.165558 1.18774e-13)
(-0.664545 0.0424332 -9.67187e-14)
(-0.272155 0.117459 -2.12566e-14)
(-0.0366258 0.0860198 -5.53864e-14)
(0.131628 0.0317321 3.06392e-14)
(0.262389 0.0116889 -2.70178e-14)
(0.392768 0.00729046 -1.57892e-13)
(0.398152 -0.00254301 -8.96724e-15)
(0.335631 -0.0131371 2.38531e-13)
(0.250564 -0.0198828 3.72863e-14)
(0.178682 -0.023552 1.07851e-13)
(0.145403 -0.0256448 1.41847e-13)
(0.138735 -0.0274106 2.13813e-14)
(0.152642 -0.0310402 -8.89114e-14)
(0.151485 -0.0319867 8.10289e-15)
(0.193383 -0.0406876 1.79059e-14)
(0.413899 -2.83796 2.56345e-14)
(0.521062 -2.39862 -3.94034e-14)
(0.587108 -1.86547 -4.99403e-14)
(0.608437 -1.48484 -1.17694e-14)
(0.576541 -1.11684 1.06729e-14)
(0.496372 -0.744304 -1.17261e-13)
(0.357899 -0.397432 2.8724e-14)
(0.310213 -0.313086 -1.52087e-13)
(0.403808 -0.364461 -1.27169e-13)
(0.466683 -0.348414 -1.14251e-13)
(0.487837 -0.294467 1.16387e-13)
(0.467173 -0.247425 1.06411e-13)
(0.434882 -0.208929 -6.42855e-14)
(0.40233 -0.170403 -1.46642e-13)
(0.36594 -0.13737 4.04363e-14)
(0.326964 -0.113519 6.89103e-14)
(0.291979 -0.09531 -1.8716e-14)
(0.262192 -0.0799736 -9.01234e-14)
(0.236082 -0.0669161 -2.60137e-14)
(0.212672 -0.0562183 2.63574e-15)
(0.192135 -0.0472071 -1.97173e-14)
(0.174054 -0.0394636 -3.97605e-14)
(0.157915 -0.0322488 8.73598e-15)
(0.142657 -0.0251664 -6.53153e-16)
(0.127841 -0.0180146 2.37742e-15)
(0.113446 -0.0123145 -8.4539e-15)
(0.100116 -0.00898914 -1.55999e-14)
(0.0888507 -0.00619851 3.41649e-15)
(0.0793359 -0.00292735 6.21239e-16)
(0.0709352 0.000129998 -4.05493e-16)
(0.0642418 0.0034346 9.65193e-17)
(0.0586401 0.00485383 1.29074e-15)
(0.0536153 0.00560252 -1.40324e-15)
(0.0490348 0.00595891 -2.4584e-15)
(0.0448681 0.00608673 6.6955e-16)
(0.0413537 0.00613215 -1.028e-15)
(0.0381729 0.00608428 8.32966e-15)
(0.0379514 0.00616725 8.39986e-15)
(0.0321052 0.00777126 -8.1403e-14)
(-0.0930039 -2.3835 1.10506e-14)
(-0.297192 -2.35833 3.51427e-15)
(-0.473682 -2.04032 5.73544e-16)
(-0.698057 -2.05529 -6.19323e-15)
(-0.846082 -1.95128 3.16318e-16)
(-0.977729 -1.80337 -1.34271e-14)
(-1.10986 -1.66364 9.73378e-14)
(-1.19144 -1.4961 2.76774e-14)
(-1.23639 -1.31279 -2.38982e-13)
(-1.25786 -1.13506 8.05273e-14)
(-1.24239 -0.958242 2.60611e-13)
(-1.20158 -0.791375 3.28749e-13)
(-1.13337 -0.658177 7.6024e-14)
(-1.05291 -0.55828 -3.73943e-13)
(-0.983699 -0.468682 -9.47048e-14)
(-0.875331 -0.423639 -9.49031e-14)
(-0.765704 -0.401653 -1.74878e-13)
(-0.669835 -0.378127 -3.57589e-13)
(-0.595304 -0.365477 -6.21324e-13)
(-0.553006 -0.372309 1.56688e-13)
(-0.585371 -0.387556 -1.23421e-13)
(-0.743377 -0.404263 -1.77636e-13)
(-0.99056 -0.352 1.93347e-15)
(-1.14057 -0.215346 -2.46604e-13)
(-1.05558 -0.0657288 -4.5639e-14)
(-0.857319 0.0116445 4.32141e-14)
(-0.693886 0.00376323 5.16299e-14)
(-0.621425 -0.00295436 -2.36746e-14)
(-0.443534 -0.000739774 3.31569e-14)
(-0.449553 0.0284483 6.55874e-14)
(-0.204869 0.0220815 -5.88153e-14)
(-0.00690427 0.0142169 9.12448e-15)
(0.140046 0.000488035 1.80788e-13)
(0.196428 -0.0118613 8.90403e-14)
(0.180141 -0.0199861 -3.5588e-14)
(0.152311 -0.0264876 -1.09692e-13)
(0.152396 -0.0328553 -2.65692e-14)
(0.154829 -0.0354897 -2.1731e-14)
(0.215047 -0.0447911 5.89109e-14)
(0.0846949 -2.25994 -2.31488e-15)
(0.237395 -1.95987 -3.9915e-14)
(0.357576 -1.56795 -3.55921e-14)
(0.431495 -1.28901 -3.09719e-14)
(0.456708 -0.99777 1.20882e-13)
(0.426394 -0.699366 2.03883e-13)
(0.366865 -0.471197 1.36786e-14)
(0.365539 -0.41218 1.45911e-13)
(0.442433 -0.42093 -2.67441e-15)
(0.481926 -0.380727 -3.44308e-14)
(0.49389 -0.320298 -8.72103e-14)
(0.480211 -0.262007 -3.0773e-14)
(0.451781 -0.21118 -1.77507e-14)
(0.419061 -0.166726 7.41549e-14)
(0.383723 -0.129252 -3.91738e-14)
(0.34602 -0.0999198 -1.29421e-13)
(0.310772 -0.0777694 -1.68616e-14)
(0.279627 -0.0605584 8.3989e-14)
(0.252105 -0.0470107 -2.61717e-15)
(0.227288 -0.0364845 -2.37444e-14)
(0.205309 -0.0281858 -6.33992e-14)
(0.185675 -0.0214513 2.57965e-14)
(0.167804 -0.0155976 3.37792e-14)
(0.15079 -0.0101217 -5.91235e-15)
(0.134525 -0.00466517 -2.57375e-15)
(0.119215 -0.000203361 5.32201e-15)
(0.105102 0.00256363 7.61045e-15)
(0.0928059 0.00465489 -1.72907e-15)
(0.0820843 0.00620181 -5.58212e-16)
(0.0726109 0.00697472 2.50527e-16)
(0.0645483 0.00667271 -3.44091e-16)
(0.0583668 0.00626259 -6.32838e-16)
(0.0529934 0.00609146 -1.37247e-16)
(0.0479633 0.0054861 3.20849e-16)
(0.0446064 0.00853729 -7.01523e-16)
(0.0412374 0.00925963 1.28883e-14)
(0.0366488 0.00433772 -2.09614e-14)
(0.0361137 0.00570822 -5.10674e-14)
(0.0329682 0.00838441 -3.03661e-14)
(0.000658467 -1.98965 -9.43521e-15)
(-0.143448 -1.96928 5.68358e-15)
(-0.27527 -1.72652 2.42722e-15)
(-0.444133 -1.76545 -1.4223e-14)
(-0.5547 -1.69988 -9.99001e-15)
(-0.656589 -1.59606 3.02991e-14)
(-0.763891 -1.51009 -1.30526e-14)
(-0.830484 -1.39401 1.46498e-14)
(-0.873557 -1.26074 -8.95937e-14)
(-0.898114 -1.12935 -2.74403e-13)
(-0.892867 -0.994381 -9.9419e-15)
(-0.867551 -0.864713 -1.21877e-13)
(-0.825068 -0.747384 -7.79778e-14)
(-0.773014 -0.641515 -1.47332e-14)
(-0.721265 -0.540567 -3.20455e-13)
(-0.654288 -0.455059 2.93064e-13)
(-0.641811 -0.339438 1.6801e-13)
(-0.614218 -0.272916 -3.7584e-13)
(-0.584383 -0.229534 1.2079e-13)
(-0.556614 -0.202329 -1.97556e-13)
(-0.536892 -0.187609 -1.36642e-13)
(-0.539902 -0.172448 2.47935e-13)
(-0.580378 -0.132852 7.04903e-15)
(-0.630932 -0.056531 2.17542e-13)
(-0.617301 0.0187532 9.89571e-14)
(-0.53794 0.047813 -2.01862e-14)
(-0.485934 0.0401029 6.10227e-15)
(-0.439742 0.0201155 2.42583e-14)
(-0.507212 0.0285105 -2.95582e-14)
(-0.432818 0.0280453 -5.31307e-14)
(-0.442107 0.0392308 2.23783e-14)
(-0.425262 0.0376974 -5.3057e-14)
(-0.298477 0.0291495 -3.9859e-14)
(-0.150647 0.0222622 -1.48783e-13)
(0.038431 -0.000961334 -2.49479e-13)
(0.131194 -0.0176985 4.35905e-14)
(0.157783 -0.0308296 -1.40434e-14)
(0.15769 -0.0387487 -1.02078e-14)
(0.213285 -0.0450044 -2.04575e-14)
(0.127232 -1.88597 2.06688e-14)
(0.227964 -1.65384 3.89721e-14)
(0.310501 -1.33909 -4.94196e-14)
(0.368492 -1.1215 -2.16892e-14)
(0.392324 -0.890207 6.91274e-14)
(0.377502 -0.652271 -1.50712e-13)
(0.359991 -0.503902 -1.00845e-13)
(0.38706 -0.463622 1.94861e-13)
(0.449802 -0.445032 1.92996e-13)
(0.481324 -0.396366 -5.5929e-15)
(0.489049 -0.338476 -5.48197e-14)
(0.477496 -0.282499 -3.59907e-14)
(0.451432 -0.232443 1.17089e-13)
(0.419434 -0.1891 -5.59408e-14)
(0.385112 -0.152405 -1.25643e-14)
(0.348492 -0.12243 9.59553e-14)
(0.313694 -0.0992534 -4.34105e-14)
(0.282043 -0.0810787 3.94936e-14)
(0.253929 -0.0664266 2.39048e-14)
(0.228525 -0.0544674 4.07414e-15)
(0.205957 -0.0446238 6.60991e-14)
(0.185741 -0.0363118 -2.46199e-14)
(0.16725 -0.0289426 -4.5557e-14)
(0.149615 -0.0220491 -7.38743e-15)
(0.132965 -0.0155475 1.79824e-14)
(0.11757 -0.0101752 5.18763e-16)
(0.103455 -0.00647317 8.35534e-15)
(0.0910975 -0.00378362 -1.56756e-15)
(0.0803312 -0.00165218 5.53517e-17)
(0.0708108 -4.27364e-05 -1.36781e-16)
(0.0623372 0.00111565 -2.49646e-16)
(0.0558181 0.00292503 2.65206e-16)
(0.0503645 0.00420714 -4.1509e-16)
(0.0456313 0.00592239 -1.27629e-15)
(0.0409778 0.00190047 -1.89345e-15)
(0.0373006 0.00112589 4.68213e-15)
(0.0345329 0.00777589 9.40629e-16)
(0.0340688 0.00578024 -1.11426e-14)
(0.0324725 0.00795571 4.24687e-14)
(-0.0527138 -1.66262 2.07496e-15)
(-0.17992 -1.64347 -4.36626e-16)
(-0.287039 -1.45567 2.38414e-15)
(-0.437289 -1.49264 -2.81345e-15)
(-0.536325 -1.43704 9.09902e-15)
(-0.629062 -1.35157 -2.84752e-15)
(-0.73018 -1.28121 -3.79449e-14)
(-0.795129 -1.1814 7.3418e-14)
(-0.841163 -1.06703 1.59984e-13)
(-0.87226 -0.952445 -1.00416e-13)
(-0.875635 -0.832508 -1.02778e-13)
(-0.861462 -0.714712 6.28814e-14)
(-0.832278 -0.605514 -1.43551e-13)
(-0.789747 -0.50655 -2.5712e-14)
(-0.739567 -0.419133 -4.47188e-14)
(-0.688436 -0.337085 1.98662e-14)
(-0.621333 -0.301685 3.96663e-14)
(-0.580526 -0.279449 4.37447e-13)
(-0.542084 -0.270101 3.47791e-13)
(-0.51251 -0.264638 -1.54289e-13)
(-0.498409 -0.259781 2.20764e-13)
(-0.499543 -0.241141 1.87344e-14)
(-0.505005 -0.18533 -5.71914e-14)
(-0.489294 -0.0917891 -1.17369e-13)
(-0.432876 -0.00623215 9.19887e-15)
(-0.353853 0.0309746 3.1539e-14)
(-0.2933 0.0269916 3.91484e-14)
(-0.273463 0.0155791 -3.70807e-14)
(-0.261648 0.0144109 9.55488e-15)
(-0.240115 0.0174275 7.45571e-14)
(-0.26338 0.024727 -2.90244e-14)
(-0.261483 0.0252094 -1.64295e-13)
(-0.31226 0.0250178 -8.84307e-14)
(-0.322157 0.0292465 -5.88655e-14)
(-0.234984 0.0232436 6.36983e-14)
(-0.116529 0.0137115 6.06596e-14)
(0.0562777 -0.0144739 6.05655e-14)
(0.139143 -0.0353905 7.13793e-14)
(0.205089 -0.043283 -1.71412e-15)
(0.0618045 -1.57963 -9.26651e-15)
(0.157542 -1.40226 -1.15259e-14)
(0.239366 -1.15309 2.39254e-15)
(0.29916 -0.98141 3.52803e-14)
(0.328919 -0.794009 2.96071e-14)
(0.329606 -0.599539 -1.96067e-13)
(0.339583 -0.504435 -1.18277e-13)
(0.38779 -0.483427 -1.77149e-13)
(0.438825 -0.453102 2.72677e-14)
(0.466153 -0.402368 2.0932e-14)
(0.473597 -0.346536 -5.36776e-14)
(0.465114 -0.292103 4.86869e-15)
(0.443314 -0.241451 -2.44177e-14)
(0.414969 -0.196782 -4.49442e-14)
(0.383674 -0.158629 -1.40827e-13)
(0.349816 -0.126572 -1.21487e-14)
(0.316837 -0.100878 8.47493e-14)
(0.286067 -0.0803484 -1.31274e-14)
(0.258205 -0.063753 1.65227e-14)
(0.232811 -0.050264 -2.97939e-14)
(0.209974 -0.0393401 -4.54242e-14)
(0.189271 -0.0303753 -3.88659e-15)
(0.17011 -0.0227852 1.67925e-14)
(0.151753 -0.0160464 1.81334e-14)
(0.13448 -0.00991861 -6.95808e-16)
(0.118738 -0.00483916 -9.13042e-15)
(0.104374 -0.00127475 -1.53755e-14)
(0.0917324 0.00128588 2.97302e-15)
(0.0807099 0.00330898 -1.27298e-16)
(0.0709863 0.00477561 1.58529e-16)
(0.0624129 0.00590141 2.37586e-16)
(0.0556017 0.00634639 -2.50066e-16)
(0.0502824 0.00659594 6.02919e-16)
(0.045618 0.00623095 6.40887e-16)
(0.0407867 0.00750659 7.93188e-16)
(0.0369527 0.00716968 -1.31506e-14)
(0.0346072 0.00505597 2.15304e-14)
(0.0333644 0.00576169 5.39086e-14)
(0.0326224 0.0074549 -2.07494e-14)
(-0.0447318 -1.4149 8.91592e-16)
(-0.147168 -1.39893 -2.87373e-16)
(-0.233817 -1.25271 -4.28729e-17)
(-0.358119 -1.29235 3.30974e-15)
(-0.440024 -1.25067 -6.2177e-15)
(-0.517934 -1.18475 -1.6737e-14)
(-0.60388 -1.13561 4.20636e-14)
(-0.659851 -1.06015 -9.71621e-15)
(-0.700669 -0.971713 4.93724e-14)
(-0.729958 -0.882969 9.81952e-14)
(-0.735676 -0.787575 2.03644e-14)
(-0.726858 -0.692495 3.23772e-14)
(-0.705436 -0.603031 2.07892e-13)
(-0.670858 -0.520152 3.5566e-13)
(-0.630437 -0.444369 3.22394e-13)
(-0.583743 -0.380508 -5.54199e-15)
(-0.538403 -0.319327 3.94199e-13)
(-0.515191 -0.270658 2.38785e-14)
(-0.497718 -0.237523 -1.16624e-13)
(-0.484933 -0.214013 1.54875e-13)
(-0.482718 -0.198054 -2.57018e-13)
(-0.491307 -0.179802 1.07828e-13)
(-0.501125 -0.140798 1.10406e-13)
(-0.48429 -0.0732845 4.3496e-14)
(-0.42266 -0.005341 1.18272e-13)
(-0.338039 0.0283044 -4.84793e-14)
(-0.26754 0.0267428 -4.1855e-14)
(-0.227256 0.0157562 6.16615e-15)
(-0.206773 0.0148395 2.59838e-14)
(-0.188964 0.0196028 -6.90485e-14)
(-0.167831 0.0208977 -6.75944e-14)
(-0.156363 0.0192054 1.37748e-13)
(-0.183104 0.0236188 3.10954e-14)
(-0.195027 0.0205523 -5.89006e-14)
(-0.265193 0.0280756 4.05726e-16)
(-0.271392 0.0261579 -1.44157e-13)
(-0.174671 0.0165243 -5.45552e-14)
(0.00151966 -0.0153824 -2.16053e-14)
(0.163058 -0.03486 -3.35771e-14)
(0.0490807 -1.34509 -6.68457e-15)
(0.128459 -1.20387 -1.21427e-14)
(0.198054 -1.00193 6.40245e-15)
(0.252332 -0.862006 8.21752e-14)
(0.282932 -0.706488 3.54016e-14)
(0.292178 -0.55572 3.68702e-15)
(0.315941 -0.492617 1.78796e-13)
(0.374776 -0.481379 -8.66468e-14)
(0.418088 -0.446903 -1.38214e-13)
(0.442845 -0.397957 4.77069e-14)
(0.451848 -0.346105 9.74236e-14)
(0.446403 -0.295193 -2.33528e-14)
(0.428667 -0.247033 6.70243e-14)
(0.404414 -0.204112 8.37488e-15)
(0.376496 -0.167094 3.47199e-14)
(0.345473 -0.135354 1.30896e-14)
(0.314701 -0.109323 -3.80944e-14)
(0.285245 -0.0882201 3.17555e-14)
(0.257978 -0.0710806 -2.39996e-14)
(0.232833 -0.0570622 4.06604e-15)
(0.210024 -0.0456289 6.29542e-14)
(0.18909 -0.036153 -2.18141e-14)
(0.169576 -0.0280532 -2.92543e-14)
(0.150853 -0.0208511 6.3053e-15)
(0.133364 -0.0144224 -1.48138e-15)
(0.117574 -0.00910081 2.69113e-15)
(0.103231 -0.00520419 7.82026e-15)
(0.0905622 -0.00236873 -1.33668e-15)
(0.0795103 -0.000189241 -9.41372e-17)
(0.0698043 0.00142238 1.67068e-16)
(0.0612601 0.00242927 8.62604e-16)
(0.0542785 0.0033634 1.84045e-16)
(0.0491372 0.00404815 -2.4908e-16)
(0.0445725 0.00447457 -2.36879e-16)
(0.0404299 0.00474526 -4.42939e-16)
(0.0369528 0.00501592 4.0635e-15)
(0.0338917 0.00521134 -8.32107e-15)
(0.0327786 0.00527412 -1.26655e-14)
(0.0321821 0.007605 -5.22367e-14)
(-0.0530965 -1.21211 2.91141e-15)
(-0.14104 -1.19738 -3.22593e-15)
(-0.214478 -1.08153 6.39412e-16)
(-0.32278 -1.11866 -1.08175e-16)
(-0.394757 -1.08431 -3.26346e-16)
(-0.46368 -1.03017 2.95269e-15)
(-0.541119 -0.992263 7.96544e-15)
(-0.592323 -0.929241 -1.03069e-13)
(-0.631447 -0.854991 -1.2622e-14)
(-0.661916 -0.78066 1.6081e-13)
(-0.67127 -0.698291 -6.75998e-14)
(-0.668285 -0.614895 -1.46543e-13)
(-0.654119 -0.53489 -2.87876e-13)
(-0.627748 -0.458646 -2.39228e-13)
(-0.594573 -0.388484 -1.64502e-13)
(-0.555796 -0.32577 -6.07e-14)
(-0.514921 -0.26921 -2.2111e-13)
(-0.481713 -0.23549 -3.06712e-13)
(-0.4645 -0.215747 -1.38933e-13)
(-0.451201 -0.203776 3.51876e-13)
(-0.447296 -0.192495 3.23969e-13)
(-0.453054 -0.174469 -2.25408e-14)
(-0.46274 -0.137787 -4.92739e-14)
(-0.455015 -0.0785961 -1.57018e-13)
(-0.409888 -0.018002 -9.10247e-14)
(-0.340311 0.0158759 4.19374e-14)
(-0.277766 0.0196956 3.23676e-14)
(-0.2381 0.0133006 3.64853e-15)
(-0.213029 0.0134108 -1.95018e-14)
(-0.18855 0.0174741 7.25477e-14)
(-0.163549 0.0187451 1.51964e-13)
(-0.141137 0.0174647 -1.00641e-14)
(-0.123755 0.0148782 2.67691e-14)
(-0.121821 0.01415 4.65472e-14)
(-0.146279 0.0190657 -1.94621e-14)
(-0.180362 0.0144264 1.74541e-13)
(-0.252737 0.0234775 8.09514e-14)
(-0.191858 0.00899576 -6.66066e-14)
(0.0413663 -0.0132456 -2.19878e-14)
(0.0293656 -1.15316 1.69038e-14)
(0.0994557 -1.03959 2.07586e-14)
(0.162185 -0.874454 7.36296e-15)
(0.213023 -0.759482 1.01683e-13)
(0.244045 -0.630184 -1.75761e-13)
(0.2636 -0.526079 8.7833e-14)
(0.299249 -0.483218 1.51408e-13)
(0.353683 -0.466434 7.00902e-14)
(0.392766 -0.432293 -3.55341e-14)
(0.415297 -0.386721 -3.41599e-14)
(0.42566 -0.339413 2.22515e-14)
(0.423403 -0.292797 3.66427e-14)
(0.409672 -0.247873 -8.80627e-14)
(0.389714 -0.20717 6.45284e-14)
(0.365608 -0.171343 1.6089e-14)
(0.337968 -0.139905 -1.13923e-14)
(0.309971 -0.113458 -5.68092e-14)
(0.28245 -0.091528 -5.68369e-14)
(0.256403 -0.0734244 4.78082e-14)
(0.231987 -0.0584452 1.39986e-14)
(0.209566 -0.0461092 4.87166e-15)
(0.188738 -0.0358562 4.98235e-14)
(0.16912 -0.0271697 2.00354e-14)
(0.150204 -0.0196213 -2.36041e-15)
(0.13263 -0.0130731 6.36803e-15)
(0.11683 -0.0077065 -4.41103e-15)
(0.102505 -0.00370676 -8.66343e-15)
(0.0898113 -0.000794758 1.28739e-15)
(0.0787073 0.00140674 -1.07652e-15)
(0.0689716 0.00300802 -2.90012e-16)
(0.0604149 0.00412945 -5.67486e-16)
(0.0531835 0.00483324 6.56988e-16)
(0.0481841 0.00546423 1.26434e-15)
(0.0438024 0.00570348 1.21619e-15)
(0.0398075 0.00581987 7.24202e-16)
(0.0363979 0.00575013 -4.78658e-15)
(0.0335056 0.00573503 2.78787e-15)
(0.0324509 0.00575178 3.38598e-14)
(0.0319645 0.00767348 4.01803e-14)
(-0.0527133 -1.04618 7.66227e-16)
(-0.127587 -1.03396 1.84178e-15)
(-0.189929 -0.941728 -2.27368e-15)
(-0.283113 -0.976178 2.03755e-15)
(-0.345425 -0.94911 -9.16746e-15)
(-0.404913 -0.90476 1.15834e-14)
(-0.47291 -0.876482 -1.29566e-14)
(-0.518511 -0.826243 -2.1479e-14)
(-0.553768 -0.765952 -3.16432e-14)
(-0.582573 -0.705973 -4.38082e-14)
(-0.592988 -0.638047 1.78416e-14)
(-0.59277 -0.568378 1.71315e-13)
(-0.582978 -0.50077 2.31999e-13)
(-0.561955 -0.435157 3.74562e-14)
(-0.534379 -0.374179 5.80762e-15)
(-0.501698 -0.31913 1.18649e-14)
(-0.465403 -0.271848 -4.0227e-14)
(-0.433334 -0.230014 1.26359e-13)
(-0.423504 -0.205353 1.15552e-13)
(-0.416545 -0.1875 -2.67993e-13)
(-0.415885 -0.170676 -2.7675e-14)
(-0.42069 -0.150476 5.67683e-14)
(-0.426529 -0.118336 -7.2147e-14)
(-0.419114 -0.0704536 7.75729e-14)
(-0.383107 -0.0205467 1.04041e-15)
(-0.326482 0.00993671 -1.42231e-14)
(-0.27345 0.0161353 -4.16863e-14)
(-0.238108 0.0123305 1.71518e-15)
(-0.215438 0.0126627 -5.12006e-17)
(-0.19408 0.016247 3.45837e-14)
(-0.171877 0.0174648 1.67554e-14)
(-0.150845 0.0164341 -7.34038e-14)
(-0.13119 0.0148539 -3.38445e-14)
(-0.113061 0.0126109 1.70079e-13)
(-0.0992918 0.00957873 2.67874e-14)
(-0.102354 0.0078375 -1.27536e-13)
(-0.159207 0.0104693 -4.23154e-14)
(-0.260346 0.013778 5.07099e-14)
(-0.105912 0.0131392 -3.60573e-16)
(0.0182665 -0.996159 3.59692e-15)
(0.0795762 -0.90337 -4.95689e-14)
(0.135197 -0.766908 2.28831e-14)
(0.180939 -0.671153 2.26673e-14)
(0.210592 -0.562624 4.7058e-14)
(0.237801 -0.491052 -1.5956e-14)
(0.278978 -0.463496 -3.46374e-14)
(0.328692 -0.44456 -4.28921e-15)
(0.364642 -0.412001 -4.28523e-15)
(0.38597 -0.370521 1.27919e-14)
(0.39742 -0.328052 3.86888e-14)
(0.397935 -0.286097 6.49212e-14)
(0.38796 -0.245087 -3.7818e-15)
(0.372121 -0.207401 -1.34043e-13)
(0.351736 -0.173563 2.5759e-14)
(0.327571 -0.143318 7.54415e-14)
(0.302525 -0.117373 5.77816e-14)
(0.27712 -0.0953953 2.63324e-14)
(0.252603 -0.0770069 -2.14043e-14)
(0.229207 -0.0616418 -5.51425e-15)
(0.207393 -0.0488932 -2.27035e-14)
(0.186857 -0.0382427 -4.16769e-14)
(0.167332 -0.0292279 1.71231e-14)
(0.148443 -0.0214509 1.61536e-14)
(0.130959 -0.0148136 2.843e-15)
(0.115293 -0.00941071 1.59142e-14)
(0.101109 -0.00531368 5.46854e-15)
(0.088501 -0.00229945 -9.53695e-16)
(0.0774487 -4.3306e-05 9.80718e-16)
(0.0677683 0.00161749 3.07653e-16)
(0.0592721 0.00274461 -9.28171e-16)
(0.051921 0.00353396 -1.06951e-15)
(0.0470319 0.00422915 -2.07433e-16)
(0.0428449 0.00459625 4.65754e-17)
(0.0390341 0.00486814 1.84534e-15)
(0.0357865 0.00498709 -3.56654e-16)
(0.0330666 0.00518078 1.11272e-14)
(0.0320955 0.00542482 -1.23667e-14)
(0.0324497 0.00696554 -5.58682e-15)
(-0.0530814 -0.908017 3.85877e-15)
(-0.117677 -0.897071 -1.29676e-15)
(-0.17194 -0.822794 -3.47821e-15)
(-0.253204 -0.854055 -2.98997e-15)
(-0.308159 -0.832119 1.30349e-14)
(-0.360764 -0.795515 -1.65449e-14)
(-0.421236 -0.773773 -4.31249e-15)
(-0.462099 -0.731796 3.20575e-14)
(-0.494921 -0.681824 1.82504e-14)
(-0.522468 -0.632039 3.44643e-14)
(-0.53388 -0.574201 7.66243e-14)
(-0.536428 -0.514373 6.26409e-14)
(-0.530432 -0.455431 -1.47054e-13)
(-0.514204 -0.397153 -2.37352e-13)
(-0.4921 -0.342318 4.05385e-14)
(-0.464654 -0.292018 3.03179e-13)
(-0.433855 -0.247 6.2869e-14)
(-0.40191 -0.208228 -1.73392e-13)
(-0.391674 -0.184516 -3.22036e-14)
(-0.386614 -0.169183 3.12673e-14)
(-0.386289 -0.154674 -6.83167e-14)
(-0.389843 -0.136103 -8.74658e-14)
(-0.39324 -0.107552 9.38656e-15)
(-0.385896 -0.066814 6.7371e-14)
(-0.355635 -0.0239554 5.89274e-14)
(-0.308041 0.00434641 -3.33376e-15)
(-0.261918 0.0126946 3.51403e-14)
(-0.229534 0.0112831 6.2928e-15)
(-0.208366 0.0120302 6.04786e-14)
(-0.189471 0.0153202 -4.50716e-14)
(-0.17047 0.0166164 -1.57075e-13)
(-0.153536 0.0158381 -5.02992e-14)
(-0.138354 0.0145558 2.80314e-14)
(-0.123617 0.0128855 1.50907e-14)
(-0.108501 0.0105745 -3.99235e-15)
(-0.0930576 0.00718292 5.40469e-15)
(-0.087211 0.00303235 1.80332e-14)
(-0.202578 0.00424279 4.88382e-15)
(-0.180347 0.0282332 2.60114e-14)
(0.00896916 -0.865071 -8.69397e-15)
(0.0632563 -0.788382 -7.91595e-15)
(0.112971 -0.675183 -1.33183e-14)
(0.154273 -0.594452 -1.90646e-14)
(0.182635 -0.50254 3.05438e-14)
(0.213332 -0.454105 -4.27013e-14)
(0.257563 -0.437871 -1.81512e-14)
(0.30246 -0.418316 6.56574e-14)
(0.33586 -0.388368 -3.80462e-14)
(0.356221 -0.35109 6.96874e-14)
(0.368586 -0.31355 6.77765e-14)
(0.371354 -0.276237 4.41083e-14)
(0.36459 -0.239272 3.19692e-14)
(0.352505 -0.204904 4.83847e-14)
(0.335829 -0.173483 -1.38193e-14)
(0.315038 -0.144752 3.36247e-15)
(0.292989 -0.119621 3.48692e-14)
(0.269956 -0.097851 2.66334e-14)
(0.2472 -0.0793038 -2.58722e-15)
(0.225086 -0.0635901 -5.34872e-14)
(0.204144 -0.0504081 -9.5916e-15)
(0.184142 -0.0393056 1.73793e-16)
(0.164936 -0.0298929 -3.68453e-14)
(0.146254 -0.0218305 4.02817e-15)
(0.129019 -0.0150401 -5.88661e-15)
(0.113581 -0.00954599 -1.22141e-14)
(0.099598 -0.00532521 8.7931e-16)
(0.0871267 -0.0021836 8.2278e-17)
(0.0761588 0.000163647 4.75444e-17)
(0.0665433 0.00190059 -3.73134e-16)
(0.0581095 0.00310601 8.50061e-16)
(0.0507591 0.00394348 2.55403e-15)
(0.0458483 0.00461588 -7.93258e-16)
(0.0418155 0.00497262 -2.93771e-15)
(0.0381696 0.00520558 -1.27328e-15)
(0.0350684 0.00525812 8.98768e-15)
(0.0325003 0.00538639 -3.2038e-14)
(0.0315627 0.00551186 -2.79234e-14)
(0.0322788 0.00674591 3.48909e-14)
(-0.0521469 -0.791265 -2.84249e-15)
(-0.108162 -0.782079 8.33307e-16)
(-0.155388 -0.722201 4.13935e-15)
(-0.226374 -0.750285 3.55836e-15)
(-0.274705 -0.732195 4.56393e-15)
(-0.321005 -0.701718 4.38242e-15)
(-0.374637 -0.684947 -1.62677e-14)
(-0.411431 -0.650693 -4.60383e-14)
(-0.441291 -0.609232 -4.2712e-14)
(-0.467009 -0.568077 -9.5891e-15)
(-0.47859 -0.519331 -5.52416e-14)
(-0.482833 -0.468695 -1.80235e-14)
(-0.479406 -0.418204 1.36665e-13)
(-0.466765 -0.367504 6.93887e-14)
(-0.448782 -0.319312 -3.36662e-15)
(-0.425666 -0.27454 -2.32089e-13)
(-0.399184 -0.233953 -6.23258e-14)
(-0.371472 -0.198449 2.14328e-13)
(-0.358276 -0.172675 1.02808e-13)
(-0.356051 -0.155898 -4.82752e-14)
(-0.357039 -0.140728 -5.63096e-15)
(-0.360489 -0.122166 4.79882e-14)
(-0.362808 -0.0965072 1.28794e-14)
(-0.356148 -0.0621424 -8.93738e-14)
(-0.33075 -0.0258329 -1.5037e-13)
(-0.290462 -0.000129742 4.52216e-14)
(-0.249976 0.00957724 -8.40896e-15)
(-0.219753 0.0101953 -9.45417e-15)
(-0.199035 0.0114307 -3.41721e-14)
(-0.181042 0.0144907 -2.73844e-14)
(-0.163597 0.015826 4.63099e-14)
(-0.148669 0.015204 1.63172e-13)
(-0.1364 0.0141181 5.00499e-14)
(-0.125803 0.0128129 -1.28016e-13)
(-0.115344 0.0108172 7.80486e-15)
(-0.107292 0.00821365 -5.03386e-14)
(-0.0810891 0.00379388 1.72764e-15)
(-0.13363 -0.00342999 -1.13231e-14)
(-0.17767 0.0294598 2.13912e-14)
(0.00243341 -0.754406 8.38712e-15)
(0.0503285 -0.690891 2.52497e-14)
(0.095008 -0.59607 -5.83302e-14)
(0.132773 -0.527019 -7.2518e-15)
(0.159335 -0.449014 -1.21962e-13)
(0.190215 -0.416019 8.83628e-15)
(0.236287 -0.409001 3.3915e-14)
(0.276642 -0.390062 -1.36804e-13)
(0.307536 -0.36305 2.91382e-14)
(0.32707 -0.329837 -1.07739e-14)
(0.339929 -0.296833 -6.8372e-14)
(0.344606 -0.264102 -7.88287e-14)
(0.340622 -0.231192 -1.23297e-15)
(0.331837 -0.200255 6.00096e-14)
(0.318497 -0.171477 2.31693e-14)
(0.300934 -0.144641 -2.36432e-14)
(0.281778 -0.12069 -3.35688e-14)
(0.261193 -0.0995329 -9.57729e-15)
(0.240367 -0.0811926 1.79042e-14)
(0.219687 -0.0654294 4.5725e-14)
(0.199778 -0.0520545 4.63147e-14)
(0.180499 -0.0407059 4.27718e-14)
(0.161737 -0.0310479 -2.14443e-15)
(0.143453 -0.0228055 -3.96573e-14)
(0.126597 -0.0159278 3.57984e-15)
(0.111489 -0.0103938 -1.27728e-14)
(0.0977795 -0.0061032 -7.8834e-15)
(0.0855151 -0.00287637 -1.31178e-15)
(0.0746913 -0.000470249 4.18276e-16)
(0.0651915 0.0013083 1.13733e-15)
(0.0568578 0.00255084 -4.39831e-16)
(0.0495953 0.00337792 -2.53517e-15)
(0.0446229 0.00406835 2.26263e-15)
(0.0407446 0.00448407 3.90329e-16)
(0.0372697 0.00476783 -2.55527e-15)