/*--------------------------------*- C++ -*----------------------------------*\
| =========                 |                                                 |
| \\      /  F ield         | OpenFOAM: The Open Source CFD Toolbox           |
|  \\    /   O peration     | Version:  2206                                  |
|   \\  /    A nd           | Website:  www.openfoam.com                      |
|    \\/     M anipulation  |                                                 |
\*---------------------------------------------------------------------------*/
FoamFile
{
    version     2.0;
    format      ascii;
    arch        "LSB;label=32;scalar=64";
    class       volScalarField;
    location    "150";
    object      nuTilda;
}
// * * * * * * * * * * * * * * * * * * * * * * * * * * * * * * * * * * * * * //

dimensions      [0 2 -1 0 0 0 0];

internalField   nonuniform List<scalar> 
10720
(
6.18441e-05
6.49692e-05
6.8964e-05
7.39259e-05
8.01157e-05
8.79412e-05
9.80434e-05
0.000110957
0.000127883
0.000150247
0.000180139
0.00022113
0.000277396
0.000356505
0.000470838
0.000642484
0.00090818
0.00134481
0.00208304
0.00347036
0.00614372
0.0122796
0.0273317
0.0694641
0.0962576
0.100756
0.100922
0.102929
0.105663
0.107193
0.106925
0.105238
0.102498
0.0988291
0.0940838
0.0881659
0.0798959
0.0701007
0.0439019
5.90128e-05
5.64304e-05
5.3732e-05
5.10702e-05
4.83426e-05
4.55525e-05
4.27641e-05
4.04443e-05
4.32209e-05
4.75811e-05
5.35163e-05
6.15103e-05
7.23465e-05
8.73527e-05
0.000108408
0.000138618
0.000182964
0.000249854
0.000354194
0.000521663
0.000805173
0.00129373
0.00221867
0.00394291
0.00773589
0.0154641
0.0344471
0.0688708
0.0952711
0.106204
0.109394
0.110282
0.110352
0.10983
0.108806
0.107391
0.105225
0.102772
0.093426
3.81512e-05
3.79342e-05
3.77349e-05
3.75659e-05
3.73699e-05
3.7186e-05
3.70446e-05
3.69157e-05
3.68529e-05
3.68652e-05
3.69489e-05
3.72651e-05
3.88556e-05
4.27394e-05
5.08957e-05
6.68316e-05
9.76901e-05
0.000157913
0.000276138
0.000533898
0.00106691
0.00249818
0.00547004
0.0158329
0.0321866
0.0527338
0.0780354
0.106282
0.131702
0.148287
0.155412
0.156785
0.155552
0.152722
0.148774
0.143949
0.139174
0.131728
0.133827
3.83218e-05
3.85501e-05
3.87447e-05
3.90043e-05
3.9268e-05
3.95358e-05
3.98039e-05
4.00557e-05
3.98745e-05
3.95545e-05
3.91504e-05
3.8671e-05
3.81216e-05
3.74976e-05
3.67628e-05
3.5893e-05
3.47971e-05
3.34081e-05
3.15254e-05
2.89256e-05
2.5095e-05
1.96676e-05
1.17364e-05
4.62512e-06
1.12823e-05
0.000125831
0.000623852
0.00458641
0.01496
0.0298007
0.0448259
0.056048
0.0626939
0.0663925
0.0687348
0.0706906
0.0723968
0.0759565
0.0793369
4.03222e-05
4.03545e-05
4.03878e-05
4.04231e-05
4.04657e-05
4.05127e-05
4.05655e-05
4.06267e-05
4.06981e-05
4.07807e-05
4.08783e-05
4.09947e-05
4.11315e-05
4.13256e-05
4.14627e-05
4.0954e-05
3.81639e-05
3.60275e-05
2.29349e-05
0.000111306
4.13281e-05
8.25489e-05
9.57129e-05
0.000328053
0.0017083
0.00467534
0.0103197
0.0212517
0.0411138
0.0706104
0.105584
0.137558
0.160204
0.1737
0.181294
0.184965
0.186793
0.18256
0.191166
4.02973e-05
4.0262e-05
4.02352e-05
4.01974e-05
4.01658e-05
4.01316e-05
4.0098e-05
4.00679e-05
4.00857e-05
4.01226e-05
4.01663e-05
4.02129e-05
4.02676e-05
4.0328e-05
4.03955e-05
4.04696e-05
4.0553e-05
4.06478e-05
4.07606e-05
4.08969e-05
4.10703e-05
4.12918e-05
4.15983e-05
4.19277e-05
4.23311e-05
4.18438e-05
4.18602e-05
3.0762e-05
0.00012375
0.000868504
0.00322265
0.00791194
0.0147856
0.0230999
0.0319026
0.0403749
0.0477655
0.0543805
0.0639933
4.0019e-05
4.00175e-05
4.00186e-05
4.00207e-05
4.00234e-05
4.00289e-05
4.00384e-05
4.00512e-05
4.007e-05
4.00952e-05
4.01282e-05
4.01712e-05
4.02268e-05
4.02975e-05
4.03858e-05
4.05041e-05
4.03839e-05
4.00326e-05
3.70214e-05
2.99897e-05
4.66196e-06
2.17607e-05
1.93418e-05
6.73431e-05
0.00035694
0.000993352
0.00231197
0.00225971
0.0035428
0.0081026
0.0225915
0.0494777
0.0873723
0.127434
0.160426
0.183998
0.201332
0.210361
0.225946
4.00164e-05
4.00193e-05
4.00205e-05
4.00241e-05
4.00317e-05
4.00382e-05
4.0043e-05
4.00489e-05
4.00476e-05
4.00445e-05
4.00393e-05
4.00338e-05
4.00292e-05
4.00248e-05
4.00205e-05
4.00158e-05
4.00106e-05
4.00044e-05
3.99983e-05
3.99923e-05
3.99858e-05
3.99787e-05
3.99697e-05
3.99618e-05
3.99527e-05
3.99645e-05
3.99419e-05
4.01209e-05
3.96956e-05
4.06241e-05
3.55366e-05
3.57897e-05
0.000253325
0.00112062
0.00322366
0.00721538
0.0135474
0.0224027
0.0399277
4.00633e-05
4.00642e-05
4.00649e-05
4.0066e-05
4.00684e-05
4.00715e-05
4.00759e-05
4.0082e-05
4.00898e-05
4.01001e-05
4.01135e-05
4.0131e-05
4.01537e-05
4.01829e-05
4.02222e-05
4.02681e-05
4.03331e-05
4.03898e-05
4.0595e-05
4.09723e-05
3.64596e-05
2.74784e-05
3.17277e-07
5.14965e-06
5.79027e-07
0
0
0.000491025
0.000781216
2.03922e-05
0.000328129
0.00358341
0.0162862
0.0443565
0.0874908
0.135079
0.177336
0.210039
0.240077
4.00599e-05
4.00566e-05
4.00545e-05
4.00504e-05
4.00506e-05
4.00504e-05
4.00484e-05
4.00479e-05
4.00497e-05
4.00526e-05
4.00551e-05
4.00585e-05
4.00622e-05
4.00659e-05
4.007e-05
4.00744e-05
4.00794e-05
4.00848e-05
4.00909e-05
4.00974e-05
4.01045e-05
4.01122e-05
4.01207e-05
4.013e-05
4.01417e-05
4.01515e-05
4.01812e-05
4.01351e-05
4.04476e-05
3.91669e-05
4.51054e-05
1.85876e-05
6.73731e-05
6.55052e-08
0.000755646
0.00171965
0.000791211
0.00178349
0.0140535
4.00515e-05
4.00516e-05
4.00529e-05
4.00543e-05
4.00554e-05
4.00571e-05
4.00594e-05
4.0062e-05
4.00653e-05
4.00697e-05
4.00752e-05
4.00825e-05
4.0092e-05
4.01046e-05
4.01213e-05
4.01431e-05
4.01732e-05
4.02042e-05
4.02728e-05
4.04354e-05
4.0918e-05
4.0439e-05
3.51108e-05
2.64761e-05
2.93669e-06
6.43019e-06
5.1795e-06
1.44952e-06
0
4.5199e-06
7.36267e-05
0.000813232
0.00382978
0.00375763
0.0197936
0.05796
0.115286
0.17742
0.231802
4.00491e-05
4.00482e-05
4.0047e-05
4.00443e-05
4.00438e-05
4.00446e-05
4.00442e-05
4.00457e-05
4.00484e-05
4.00508e-05
4.00531e-05
4.00552e-05
4.00573e-05
4.00591e-05
4.00611e-05
4.00631e-05
4.00652e-05
4.00675e-05
4.007e-05
4.00725e-05
4.0075e-05
4.00775e-05
4.008e-05
4.00822e-05
4.0084e-05
4.00857e-05
4.0087e-05
4.00903e-05
4.00918e-05
4.00996e-05
4.01086e-05
4.00345e-05
3.91143e-05
3.28837e-05
9.32519e-06
5.58688e-06
0.000187556
0.000467061
0.00248846
4.00493e-05
4.0049e-05
4.00497e-05
4.00504e-05
4.00509e-05
4.00518e-05
4.00529e-05
4.00537e-05
4.00548e-05
4.00563e-05
4.00583e-05
4.0061e-05
4.00646e-05
4.00692e-05
4.00753e-05
4.00835e-05
4.00944e-05
4.01063e-05
4.01221e-05
4.013e-05
4.0241e-05
4.06558e-05
4.09831e-05
4.05226e-05
3.74898e-05
3.16396e-05
2.5645e-05
7.07064e-06
6.96893e-06
3.89164e-06
0
0
0
0.000865596
0.00480379
0.00903823
0.0438827
0.116572
0.198568
4.00477e-05
4.00476e-05
4.00472e-05
4.00451e-05
4.0043e-05
4.00435e-05
4.00434e-05
4.00455e-05
4.00484e-05
4.00508e-05
4.0053e-05
4.00551e-05
4.00571e-05
4.00588e-05
4.00607e-05
4.00627e-05
4.00649e-05
4.00673e-05
4.007e-05
4.00729e-05
4.00762e-05
4.00798e-05
4.00837e-05
4.00881e-05
4.00931e-05
4.00989e-05
4.01057e-05
4.01138e-05
4.01228e-05
4.01354e-05
4.01426e-05
4.01934e-05
4.01759e-05
3.94981e-05
3.86012e-05
2.50316e-05
7.78428e-06
1.86245e-06
0.000106772
4.00456e-05
4.00453e-05
4.00463e-05
4.00474e-05
4.00486e-05
4.00502e-05
4.00521e-05
4.0054e-05
4.00563e-05
4.00587e-05
4.00613e-05
4.00642e-05
4.00674e-05
4.00711e-05
4.00754e-05
4.00807e-05
4.00875e-05
4.00955e-05
4.01038e-05
4.01078e-05
4.01173e-05
4.01465e-05
4.03429e-05
4.06493e-05
4.13648e-05
4.13568e-05
4.09277e-05
3.79168e-05
3.2402e-05
1.86093e-05
8.16387e-06
3.99789e-06
0
0
0
0.00220082
0.00424294
0.0512567
0.144354
4.00447e-05
4.00454e-05
4.00458e-05
4.00449e-05
4.0042e-05
4.00421e-05
4.00426e-05
4.00452e-05
4.00478e-05
4.005e-05
4.00521e-05
4.0054e-05
4.00558e-05
4.00573e-05
4.0059e-05
4.00606e-05
4.00624e-05
4.00643e-05
4.00665e-05
4.00688e-05
4.00713e-05
4.0074e-05
4.00769e-05
4.008e-05
4.00833e-05
4.0087e-05
4.0091e-05
4.00953e-05
4.01e-05
4.01049e-05
4.01105e-05
4.01137e-05
4.01275e-05
4.01017e-05
4.04898e-05
3.91412e-05
3.24172e-05
8.82696e-06
2.54671e-05
4.0043e-05
4.00428e-05
4.0044e-05
4.00452e-05
4.00465e-05
4.00482e-05
4.00499e-05
4.00515e-05
4.00533e-05
4.0055e-05
4.00568e-05
4.00586e-05
4.00603e-05
4.0062e-05
4.00635e-05
4.00646e-05
4.00661e-05
4.00678e-05
4.00699e-05
4.00723e-05
4.00759e-05
4.00775e-05
4.0091e-05
4.01044e-05
4.02911e-05
4.06832e-05
4.11605e-05
4.19816e-05
4.20817e-05
3.99969e-05
3.56588e-05
1.87826e-05
7.70305e-06
1.09258e-07
0
0
0.00118081
0.00903986
0.0843979
4.00425e-05
4.00438e-05
4.00449e-05
4.00449e-05
4.00418e-05
4.00415e-05
4.00425e-05
4.00448e-05
4.00471e-05
4.00491e-05
4.0051e-05
4.00528e-05
4.00545e-05
4.0056e-05
4.00575e-05
4.00589e-05
4.00605e-05
4.00622e-05
4.00641e-05
4.00661e-05
4.00684e-05
4.0071e-05
4.00738e-05
4.00769e-05
4.00804e-05
4.00844e-05
4.00891e-05
4.00944e-05
4.01005e-05
4.01074e-05
4.01155e-05
4.01243e-05
4.01361e-05
4.01391e-05
4.02107e-05
4.03502e-05
4.11441e-05
3.6375e-05
5.38322e-06
4.00411e-05
4.00412e-05
4.00426e-05
4.00441e-05
4.00456e-05
4.00473e-05
4.0049e-05
4.00507e-05
4.00525e-05
4.00543e-05
4.00562e-05
4.00582e-05
4.00604e-05
4.00627e-05
4.00652e-05
4.0068e-05
4.00711e-05
4.00746e-05
4.0078e-05
4.00811e-05
4.00833e-05
4.00859e-05
4.00882e-05
4.00776e-05
4.00538e-05
4.00855e-05
4.01976e-05
4.05499e-05
4.11552e-05
4.19332e-05
4.2631e-05
3.98417e-05
3.32187e-05
5.05275e-07
2.10438e-06
0
0
0.00293691
0.0407444
4.00409e-05
4.00425e-05
4.00439e-05
4.00448e-05
4.00417e-05
4.00411e-05
4.00422e-05
4.00443e-05
4.00464e-05
4.00482e-05
4.005e-05
4.00516e-05
4.00531e-05
4.00545e-05
4.00559e-05
4.00572e-05
4.00586e-05
4.006e-05
4.00617e-05
4.00634e-05
4.00654e-05
4.00677e-05
4.00701e-05
4.00729e-05
4.00759e-05
4.00794e-05
4.00833e-05
4.00878e-05
4.00928e-05
4.00983e-05
4.01044e-05
4.01116e-05
4.01176e-05
4.01347e-05
4.01111e-05
4.03026e-05
3.96502e-05
4.4602e-05
2.07648e-05
4.00399e-05
4.00403e-05
4.0042e-05
4.00436e-05
4.00451e-05
4.00467e-05
4.00483e-05
4.00497e-05
4.00512e-05
4.00528e-05
4.00544e-05
4.00561e-05
4.00578e-05
4.00597e-05
4.00616e-05
4.00637e-05
4.00658e-05
4.00679e-05
4.00703e-05
4.00733e-05
4.00768e-05
4.0081e-05
4.00862e-05
4.00915e-05
4.00844e-05
4.00649e-05
4.00447e-05
4.00471e-05
4.01575e-05
4.04677e-05
4.11612e-05
4.20254e-05
4.25085e-05
3.73438e-05
9.6225e-06
2.16265e-06
0
0.00035156
0.0168339
4.00397e-05
4.00413e-05
4.0043e-05
4.00444e-05
4.00417e-05
4.00409e-05
4.00419e-05
4.00438e-05
4.00457e-05
4.00473e-05
4.00489e-05
4.00504e-05
4.00518e-05
4.00531e-05
4.00543e-05
4.00555e-05
4.00568e-05
4.00581e-05
4.00595e-05
4.00611e-05
4.00629e-05
4.00649e-05
4.00671e-05
4.00696e-05
4.00724e-05
4.00757e-05
4.00794e-05
4.00837e-05
4.00886e-05
4.00941e-05
4.01003e-05
4.01078e-05
4.01142e-05
4.01302e-05
4.01092e-05
4.02548e-05
3.96649e-05
4.2098e-05
3.6377e-05
4.00392e-05
4.004e-05
4.00418e-05
4.00434e-05
4.00449e-05
4.00464e-05
4.00478e-05
4.0049e-05
4.00504e-05
4.00517e-05
4.00531e-05
4.00546e-05
4.00562e-05
4.00579e-05
4.00598e-05
4.00619e-05
4.00642e-05
4.00666e-05
4.00693e-05
4.00721e-05
4.00753e-05
4.00787e-05
4.00828e-05
4.00886e-05
4.00943e-05
4.00949e-05
4.00879e-05
4.00678e-05
4.00426e-05
4.00444e-05
4.01494e-05
4.05617e-05
4.12526e-05
4.3275e-05
3.97808e-05
8.71426e-06
2.27954e-07
0.000128903
0.00588597
4.00388e-05
4.00403e-05
4.00421e-05
4.00439e-05
4.00415e-05
4.00407e-05
4.00416e-05
4.00433e-05
4.00449e-05
4.00464e-05
4.00479e-05
4.00493e-05
4.00505e-05
4.00517e-05
4.00529e-05
4.0054e-05
4.00551e-05
4.00563e-05
4.00576e-05
4.00589e-05
4.00605e-05
4.00622e-05
4.00642e-05
4.00664e-05
4.00689e-05
4.00718e-05
4.00752e-05
4.00791e-05
4.00835e-05
4.00884e-05
4.0094e-05
4.01005e-05
4.01072e-05
4.01174e-05
4.01184e-05
4.01632e-05
4.0053e-05
4.03641e-05
4.02609e-05
4.00388e-05
4.00399e-05
4.00419e-05
4.00434e-05
4.00448e-05
4.00462e-05
4.00474e-05
4.00484e-05
4.00495e-05
4.00506e-05
4.00517e-05
4.0053e-05
4.00544e-05
4.00559e-05
4.00576e-05
4.00594e-05
4.00614e-05
4.00635e-05
4.00658e-05
4.00684e-05
4.00715e-05
4.00749e-05
4.00788e-05
4.00835e-05
4.00892e-05
4.00956e-05
4.01011e-05
4.01033e-05
4.00956e-05
4.00783e-05
4.00481e-05
4.00752e-05
4.01491e-05
4.08378e-05
4.37605e-05
3.81773e-05
6.51519e-06
3.79584e-05
0.0016532
4.00381e-05
4.00394e-05
4.00413e-05
4.00434e-05
4.00413e-05
4.00405e-05
4.00413e-05
4.00428e-05
4.00442e-05
4.00455e-05
4.00469e-05
4.00481e-05
4.00493e-05
4.00504e-05
4.00515e-05
4.00525e-05
4.00535e-05
4.00546e-05
4.00557e-05
4.00569e-05
4.00582e-05
4.00597e-05
4.00615e-05
4.00635e-05
4.00657e-05
4.00684e-05
4.00715e-05
4.0075e-05
4.00791e-05
4.00837e-05
4.0089e-05
4.0095e-05
4.01018e-05
4.01094e-05
4.01191e-05
4.01247e-05
4.01609e-05
4.00514e-05
4.04613e-05
4.00385e-05
4.00399e-05
4.00419e-05
4.00435e-05
4.00447e-05
4.00459e-05
4.00469e-05
4.00478e-05
4.00487e-05
4.00496e-05
4.00505e-05
4.00516e-05
4.00529e-05
4.00542e-05
4.00558e-05
4.00574e-05
4.00593e-05
4.00613e-05
4.00635e-05
4.0066e-05
4.00687e-05
4.00719e-05
4.00755e-05
4.00796e-05
4.00842e-05
4.00898e-05
4.00962e-05
4.01037e-05
4.01104e-05
4.01143e-05
4.01081e-05
4.00941e-05
4.00556e-05
3.99832e-05
4.05772e-05
4.54973e-05
2.50906e-05
6.93271e-06
0.000260602
4.00376e-05
4.00388e-05
4.00407e-05
4.00429e-05
4.00411e-05
4.00403e-05
4.00409e-05
4.00422e-05
4.00435e-05
4.00447e-05
4.00459e-05
4.00471e-05
4.00482e-05
4.00491e-05
4.00501e-05
4.0051e-05
4.0052e-05
4.00529e-05
4.00539e-05
4.0055e-05
4.00562e-05
4.00575e-05
4.0059e-05
4.00608e-05
4.00628e-05
4.00652e-05
4.0068e-05
4.00712e-05
4.00749e-05
4.00792e-05
4.0084e-05
4.00895e-05
4.00958e-05
4.01027e-05
4.01122e-05
4.01167e-05
4.01473e-05
4.00971e-05
4.0244e-05
4.00385e-05
4.004e-05
4.00421e-05
4.00435e-05
4.00446e-05
4.00456e-05
4.00464e-05
4.00471e-05
4.00479e-05
4.00487e-05
4.00495e-05
4.00505e-05
4.00515e-05
4.00527e-05
4.00541e-05
4.00556e-05
4.00573e-05
4.00591e-05
4.00611e-05
4.00634e-05
4.00659e-05
4.00689e-05
4.00722e-05
4.0076e-05
4.00803e-05
4.0085e-05
4.00905e-05
4.0097e-05
4.01049e-05
4.01141e-05
4.01234e-05
4.0132e-05
4.01228e-05
4.01119e-05
3.96095e-05
4.20574e-05
4.32335e-05
1.19306e-06
6.03423e-05
4.00375e-05
4.00386e-05
4.00403e-05
4.00426e-05
4.00409e-05
4.00402e-05
4.00406e-05
4.00418e-05
4.00429e-05
4.00439e-05
4.0045e-05
4.00461e-05
4.0047e-05
4.0048e-05
4.00488e-05
4.00497e-05
4.00505e-05
4.00514e-05
4.00523e-05
4.00532e-05
4.00543e-05
4.00554e-05
4.00568e-05
4.00583e-05
4.00602e-05
4.00623e-05
4.00648e-05
4.00677e-05
4.00711e-05
4.0075e-05
4.00794e-05
4.00845e-05
4.00903e-05
4.00969e-05
4.01049e-05
4.01126e-05
4.01272e-05
4.01306e-05
4.01593e-05
4.00388e-05
4.00404e-05
4.00423e-05
4.00435e-05
4.00445e-05
4.00453e-05
4.0046e-05
4.00466e-05
4.00472e-05
4.00478e-05
4.00486e-05
4.00494e-05
4.00504e-05
4.00514e-05
4.00527e-05
4.0054e-05
4.00556e-05
4.00573e-05
4.00591e-05
4.00612e-05
4.00635e-05
4.00662e-05
4.00693e-05
4.00728e-05
4.00768e-05
4.00811e-05
4.0086e-05
4.00917e-05
4.00984e-05
4.01066e-05
4.01165e-05
4.01301e-05
4.01425e-05
4.01661e-05
4.00944e-05
3.90797e-05
4.82144e-05
6.99942e-06
0
4.00378e-05
4.00387e-05
4.00401e-05
4.00423e-05
4.00408e-05
4.00401e-05
4.00404e-05
4.00413e-05
4.00423e-05
4.00432e-05
4.00442e-05
4.00452e-05
4.0046e-05
4.00469e-05
4.00477e-05
4.00484e-05
4.00492e-05
4.005e-05
4.00508e-05
4.00516e-05
4.00525e-05
4.00535e-05
4.00547e-05
4.00561e-05
4.00577e-05
4.00596e-05
4.00619e-05
4.00645e-05
4.00675e-05
4.0071e-05
4.00751e-05
4.00797e-05
4.0085e-05
4.00912e-05
4.00983e-05
4.01067e-05
4.01163e-05
4.0131e-05
4.0142e-05
4.00393e-05
4.00408e-05
4.00426e-05
4.00437e-05
4.00444e-05
4.00451e-05
4.00456e-05
4.00461e-05
4.00466e-05
4.00472e-05
4.00478e-05
4.00485e-05
4.00494e-05
4.00504e-05
4.00515e-05
4.00527e-05
4.00541e-05
4.00556e-05
4.00573e-05
4.00592e-05
4.00614e-05
4.00638e-05
4.00666e-05
4.00699e-05
4.00735e-05
4.00776e-05
4.00821e-05
4.00873e-05
4.00934e-05
4.01005e-05
4.01092e-05
4.01184e-05
4.0142e-05
4.01117e-05
4.04418e-05
3.86512e-05
4.5673e-05
2.58792e-05
3.0299e-06
4.00383e-05
4.0039e-05
4.00401e-05
4.00421e-05
4.00408e-05
4.004e-05
4.00402e-05
4.0041e-05
4.00418e-05
4.00426e-05
4.00435e-05
4.00443e-05
4.00451e-05
4.00458e-05
4.00466e-05
4.00473e-05
4.0048e-05
4.00487e-05
4.00494e-05
4.00501e-05
4.00509e-05
4.00518e-05
4.00528e-05
4.0054e-05
4.00554e-05
4.00571e-05
4.00591e-05
4.00615e-05
4.00642e-05
4.00674e-05
4.00711e-05
4.00753e-05
4.00802e-05
4.00858e-05
4.00924e-05
4.01002e-05
4.01091e-05
4.01226e-05
4.01359e-05
4.004e-05
4.00414e-05
4.0043e-05
4.00439e-05
4.00444e-05
4.0045e-05
4.00453e-05
4.00457e-05
4.00461e-05
4.00466e-05
4.00471e-05
4.00478e-05
4.00485e-05
4.00494e-05
4.00504e-05
4.00515e-05
4.00528e-05
4.00542e-05
4.00558e-05
4.00575e-05
4.00594e-05
4.00617e-05
4.00642e-05
4.00672e-05
4.00705e-05
4.00742e-05
4.00784e-05
4.00832e-05
4.00889e-05
4.00953e-05
4.01036e-05
4.01099e-05
4.01352e-05
4.00869e-05
4.03943e-05
3.93909e-05
4.1894e-05
4.01228e-05
1.0619e-05
4.00391e-05
4.00395e-05
4.00402e-05
4.0042e-05
4.00409e-05
4.004e-05
4.00401e-05
4.00407e-05
4.00414e-05
4.00421e-05
4.00428e-05
4.00436e-05
4.00443e-05
4.00449e-05
4.00456e-05
4.00462e-05
4.00468e-05
4.00475e-05
4.00481e-05
4.00488e-05
4.00495e-05
4.00502e-05
4.00511e-05
4.00522e-05
4.00534e-05
4.00549e-05
4.00567e-05
4.00588e-05
4.00612e-05
4.00641e-05
4.00674e-05
4.00712e-05
4.00757e-05
4.00808e-05
4.00869e-05
4.0094e-05
4.01025e-05
4.01141e-05
4.01287e-05
4.00408e-05
4.00421e-05
4.00435e-05
4.00441e-05
4.00445e-05
4.00449e-05
4.00451e-05
4.00454e-05
4.00457e-05
4.00461e-05
4.00466e-05
4.00472e-05
4.00478e-05
4.00486e-05
4.00495e-05
4.00505e-05
4.00517e-05
4.0053e-05
4.00544e-05
4.0056e-05
4.00578e-05
4.00598e-05
4.00621e-05
4.00648e-05
4.00678e-05
4.00712e-05
4.0075e-05
4.00795e-05
4.00846e-05
4.00906e-05
4.00983e-05
4.01045e-05
4.01238e-05
4.01015e-05
4.02292e-05
4.00459e-05
3.98536e-05
4.38558e-05
2.62915e-05
4.004e-05
4.00402e-05
4.00405e-05
4.0042e-05
4.00409e-05
4.00401e-05
4.004e-05
4.00405e-05
4.00411e-05
4.00417e-05
4.00423e-05
4.00429e-05
4.00435e-05
4.00441e-05
4.00447e-05
4.00452e-05
4.00458e-05
4.00464e-05
4.00469e-05
4.00475e-05
4.00481e-05
4.00488e-05
4.00495e-05
4.00504e-05
4.00515e-05
4.00528e-05
4.00544e-05
4.00563e-05
4.00584e-05
4.0061e-05
4.0064e-05
4.00674e-05
4.00714e-05
4.00761e-05
4.00817e-05
4.00882e-05
4.00962e-05
4.01066e-05
4.01208e-05
4.00416e-05
4.00427e-05
4.00438e-05
4.00442e-05
4.00445e-05
4.00448e-05
4.0045e-05
4.00452e-05
4.00454e-05
4.00457e-05
4.00461e-05
4.00466e-05
4.00472e-05
4.00479e-05
4.00487e-05
4.00496e-05
4.00507e-05
4.00518e-05
4.00531e-05
4.00546e-05
4.00562e-05
4.00581e-05
4.00602e-05
4.00627e-05
4.00654e-05
4.00685e-05
4.0072e-05
4.0076e-05
4.00808e-05
4.00862e-05
4.00931e-05
4.01001e-05
4.01122e-05
4.0118e-05
4.01252e-05
4.02895e-05
3.946e-05
4.28404e-05
3.60458e-05
4.0041e-05
4.0041e-05
4.00411e-05
4.00421e-05
4.0041e-05
4.00401e-05
4.004e-05
4.00404e-05
4.00409e-05
4.00413e-05
4.00419e-05
4.00424e-05
4.00429e-05
4.00434e-05
4.00439e-05
4.00444e-05
4.00449e-05
4.00454e-05
4.00459e-05
4.00464e-05
4.00469e-05
4.00475e-05
4.00481e-05
4.00489e-05
4.00498e-05
4.0051e-05
4.00523e-05
4.0054e-05
4.00559e-05
4.00582e-05
4.00609e-05
4.0064e-05
4.00676e-05
4.00718e-05
4.00769e-05
4.00828e-05
4.00902e-05
4.00998e-05
4.01131e-05
4.00424e-05
4.00433e-05
4.00442e-05
4.00444e-05
4.00446e-05
4.00447e-05
4.00448e-05
4.0045e-05
4.00452e-05
4.00454e-05
4.00457e-05
4.00462e-05
4.00467e-05
4.00473e-05
4.0048e-05
4.00488e-05
4.00497e-05
4.00508e-05
4.0052e-05
4.00533e-05
4.00548e-05
4.00565e-05
4.00585e-05
4.00607e-05
4.00632e-05
4.0066e-05
4.00692e-05
4.00729e-05
4.00772e-05
4.00822e-05
4.00883e-05
4.00956e-05
4.01033e-05
4.01207e-05
4.0096e-05
4.02777e-05
3.972e-05
4.12405e-05
3.98638e-05
4.0042e-05
4.00421e-05
4.00418e-05
4.00423e-05
4.00412e-05
4.00403e-05
4.00401e-05
4.00403e-05
4.00407e-05
4.00411e-05
4.00415e-05
4.0042e-05
4.00424e-05
4.00428e-05
4.00432e-05
4.00437e-05
4.00441e-05
4.00445e-05
4.00449e-05
4.00453e-05
4.00458e-05
4.00463e-05
4.00468e-05
4.00475e-05
4.00483e-05
4.00493e-05
4.00505e-05
4.00519e-05
4.00536e-05
4.00557e-05
4.0058e-05
4.00608e-05
4.00641e-05
4.00679e-05
4.00725e-05
4.00779e-05
4.00847e-05
4.00934e-05
4.01058e-05
4.00432e-05
4.00438e-05
4.00444e-05
4.00445e-05
4.00446e-05
4.00447e-05
4.00448e-05
4.00449e-05
4.0045e-05
4.00452e-05
4.00454e-05
4.00458e-05
4.00462e-05
4.00467e-05
4.00473e-05
4.00481e-05
4.00489e-05
4.00499e-05
4.00509e-05
4.00522e-05
4.00535e-05
4.00551e-05
4.00569e-05
4.00589e-05
4.00612e-05
4.00637e-05
4.00667e-05
4.007e-05
4.00739e-05
4.00786e-05
4.0084e-05
4.00909e-05
4.00973e-05
4.01138e-05
4.00995e-05
4.02003e-05
3.99986e-05
4.03607e-05
4.06571e-05
4.00429e-05
4.00431e-05
4.00426e-05
4.00425e-05
4.00414e-05
4.00405e-05
4.00402e-05
4.00404e-05
4.00406e-05
4.00409e-05
4.00413e-05
4.00416e-05
4.0042e-05
4.00423e-05
4.00427e-05
4.0043e-05
4.00434e-05
4.00437e-05
4.00441e-05
4.00444e-05
4.00448e-05
4.00452e-05
4.00457e-05
4.00462e-05
4.00469e-05
4.00478e-05
4.00488e-05
4.00501e-05
4.00515e-05
4.00533e-05
4.00554e-05
4.00579e-05
4.00608e-05
4.00642e-05
4.00684e-05
4.00733e-05
4.00795e-05
4.00874e-05
4.0099e-05
4.00438e-05
4.00442e-05
4.00447e-05
4.00447e-05
4.00447e-05
4.00448e-05
4.00448e-05
4.00448e-05
4.00448e-05
4.0045e-05
4.00452e-05
4.00454e-05
4.00458e-05
4.00462e-05
4.00468e-05
4.00474e-05
4.00482e-05
4.0049e-05
4.005e-05
4.00511e-05
4.00523e-05
4.00538e-05
4.00554e-05
4.00572e-05
4.00593e-05
4.00616e-05
4.00643e-05
4.00674e-05
4.0071e-05
4.00752e-05
4.00801e-05
4.00864e-05
4.00927e-05
4.01049e-05
4.01057e-05
4.01435e-05
4.01295e-05
4.00936e-05
4.05102e-05
4.00437e-05
4.0044e-05
4.00434e-05
4.00428e-05
4.00416e-05
4.00407e-05
4.00404e-05
4.00405e-05
4.00407e-05
4.00409e-05
4.00411e-05
4.00414e-05
4.00416e-05
4.00419e-05
4.00422e-05
4.00424e-05
4.00427e-05
4.0043e-05
4.00433e-05
4.00436e-05
4.00439e-05
4.00443e-05
4.00446e-05
4.00451e-05
4.00456e-05
4.00464e-05
4.00473e-05
4.00484e-05
4.00497e-05
4.00512e-05
4.0053e-05
4.00552e-05
4.00578e-05
4.00609e-05
4.00646e-05
4.00691e-05
4.00747e-05
4.00819e-05
4.00925e-05
4.00443e-05
4.00446e-05
4.0045e-05
4.0045e-05
4.00449e-05
4.00449e-05
4.00448e-05
4.00448e-05
4.00448e-05
4.00448e-05
4.0045e-05
4.00452e-05
4.00455e-05
4.00459e-05
4.00464e-05
4.0047e-05
4.00477e-05
4.00484e-05
4.00493e-05
4.00503e-05
4.00514e-05
4.00526e-05
4.00541e-05
4.00557e-05
4.00576e-05
4.00597e-05
4.00621e-05
4.00649e-05
4.00682e-05
4.0072e-05
4.00766e-05
4.00821e-05
4.00885e-05
4.00973e-05
4.01059e-05
4.01175e-05
4.01546e-05
4.0082e-05
4.02894e-05
4.00444e-05
4.00447e-05
4.00441e-05
4.00431e-05
4.0042e-05
4.00411e-05
4.00407e-05
4.00407e-05
4.00408e-05
4.00409e-05
4.0041e-05
4.00412e-05
4.00414e-05
4.00415e-05
4.00417e-05
4.00419e-05
4.00422e-05
4.00424e-05
4.00426e-05
4.00429e-05
4.00431e-05
4.00434e-05
4.00437e-05
4.0044e-05
4.00445e-05
4.00451e-05
4.00459e-05
4.00468e-05
4.00479e-05
4.00493e-05
4.00509e-05
4.00528e-05
4.00551e-05
4.00578e-05
4.00611e-05
4.00652e-05
4.00703e-05
4.00768e-05
4.00864e-05
4.00448e-05
4.0045e-05
4.00454e-05
4.00452e-05
4.00451e-05
4.0045e-05
4.00449e-05
4.00448e-05
4.00448e-05
4.00449e-05
4.0045e-05
4.00452e-05
4.00455e-05
4.00458e-05
4.00463e-05
4.00467e-05
4.00473e-05
4.0048e-05
4.00488e-05
4.00496e-05
4.00506e-05
4.00517e-05
4.0053e-05
4.00544e-05
4.00561e-05
4.0058e-05
4.00601e-05
4.00627e-05
4.00656e-05
4.00691e-05
4.00733e-05
4.00782e-05
4.00842e-05
4.00915e-05
4.01016e-05
4.0108e-05
4.01409e-05
4.01162e-05
4.01804e-05
4.00451e-05
4.00454e-05
4.00447e-05
4.00435e-05
4.00423e-05
4.00414e-05
4.0041e-05
4.00409e-05
4.00409e-05
4.00409e-05
4.00409e-05
4.0041e-05
4.00411e-05
4.00412e-05
4.00414e-05
4.00415e-05
4.00416e-05
4.00418e-05
4.0042e-05
4.00422e-05
4.00424e-05
4.00425e-05
4.00428e-05
4.0043e-05
4.00434e-05
4.00439e-05
4.00446e-05
4.00454e-05
4.00463e-05
4.00475e-05
4.00489e-05
4.00506e-05
4.00526e-05
4.0055e-05
4.0058e-05
4.00616e-05
4.00662e-05
4.00721e-05
4.00807e-05
4.00453e-05
4.00455e-05
4.00458e-05
4.00455e-05
4.00453e-05
4.00452e-05
4.00451e-05
4.0045e-05
4.0045e-05
4.00451e-05
4.00452e-05
4.00454e-05
4.00456e-05
4.00459e-05
4.00463e-05
4.00467e-05
4.00472e-05
4.00478e-05
4.00485e-05
4.00492e-05
4.00501e-05
4.0051e-05
4.00521e-05
4.00534e-05
4.00548e-05
4.00565e-05
4.00584e-05
4.00607e-05
4.00633e-05
4.00664e-05
4.00702e-05
4.00747e-05
4.00801e-05
4.00866e-05
4.00957e-05
4.01034e-05
4.01236e-05
4.01327e-05
4.01482e-05
4.00457e-05
4.00461e-05
4.00454e-05
4.00439e-05
4.00428e-05
4.00419e-05
4.00414e-05
4.00412e-05
4.0041e-05
4.00409e-05
4.00409e-05
4.00409e-05
4.00409e-05
4.00409e-05
4.0041e-05
4.00411e-05
4.00412e-05
4.00413e-05
4.00414e-05
4.00415e-05
4.00416e-05
4.00418e-05
4.00419e-05
4.00421e-05
4.00424e-05
4.00429e-05
4.00434e-05
4.00441e-05
4.00449e-05
4.00459e-05
4.00471e-05
4.00486e-05
4.00503e-05
4.00524e-05
4.00551e-05
4.00583e-05
4.00624e-05
4.00677e-05
4.00754e-05
4.00459e-05
4.0046e-05
4.00461e-05
4.00458e-05
4.00456e-05
4.00455e-05
4.00454e-05
4.00454e-05
4.00454e-05
4.00455e-05
4.00456e-05
4.00457e-05
4.00459e-05
4.00462e-05
4.00465e-05
4.00468e-05
4.00473e-05
4.00478e-05
4.00483e-05
4.0049e-05
4.00497e-05
4.00505e-05
4.00515e-05
4.00526e-05
4.00538e-05
4.00553e-05
4.00569e-05
4.00589e-05
4.00613e-05
4.00641e-05
4.00674e-05
4.00714e-05
4.00763e-05
4.00822e-05
4.009e-05
4.00988e-05
4.01114e-05
4.01309e-05
4.01412e-05
4.00463e-05
4.00467e-05
4.00459e-05
4.00443e-05
4.00432e-05
4.00423e-05
4.00418e-05
4.00414e-05
4.00412e-05
4.00409e-05
4.00408e-05
4.00407e-05
4.00406e-05
4.00406e-05
4.00406e-05
4.00407e-05
4.00407e-05
4.00408e-05
4.00408e-05
4.00409e-05
4.0041e-05
4.00411e-05
4.00412e-05
4.00413e-05
4.00415e-05
4.00419e-05
4.00423e-05
4.00428e-05
4.00435e-05
4.00444e-05
4.00454e-05
4.00467e-05
4.00482e-05
4.00501e-05
4.00524e-05
4.00552e-05
4.00589e-05
4.00637e-05
4.00705e-05
4.00464e-05
4.00464e-05
4.00465e-05
4.00461e-05
4.00459e-05
4.00459e-05
4.00458e-05
4.00458e-05
4.00459e-05
4.0046e-05
4.00461e-05
4.00462e-05
4.00463e-05
4.00465e-05
4.00468e-05
4.00471e-05
4.00475e-05
4.00479e-05
4.00483e-05
4.00489e-05
4.00495e-05
4.00502e-05
4.0051e-05
4.0052e-05
4.0053e-05
4.00543e-05
4.00558e-05
4.00575e-05
4.00596e-05
4.0062e-05
4.00649e-05
4.00685e-05
4.00729e-05
4.00782e-05
4.00849e-05
4.00936e-05
4.01034e-05
4.01223e-05
4.0136e-05
4.00469e-05
4.00472e-05
4.00465e-05
4.00448e-05
4.00437e-05
4.00429e-05
4.00421e-05
4.00417e-05
4.00413e-05
4.00409e-05
4.00407e-05
4.00406e-05
4.00404e-05
4.00404e-05
4.00403e-05
4.00403e-05
4.00403e-05
4.00403e-05
4.00403e-05
4.00403e-05
4.00404e-05
4.00404e-05
4.00404e-05
4.00405e-05
4.00407e-05
4.00409e-05
4.00413e-05
4.00417e-05
4.00423e-05
4.0043e-05
4.00439e-05
4.0045e-05
4.00463e-05
4.00479e-05
4.00499e-05
4.00525e-05
4.00557e-05
4.006e-05
4.0066e-05
4.00469e-05
4.00469e-05
4.00468e-05
4.00465e-05
4.00464e-05
4.00464e-05
4.00464e-05
4.00464e-05
4.00465e-05
4.00465e-05
4.00466e-05
4.00467e-05
4.00468e-05
4.0047e-05
4.00472e-05
4.00474e-05
4.00477e-05
4.00481e-05
4.00485e-05
4.00489e-05
4.00495e-05
4.00501e-05
4.00508e-05
4.00515e-05
4.00525e-05
4.00535e-05
4.00548e-05
4.00563e-05
4.00581e-05
4.00602e-05
4.00628e-05
4.0066e-05
4.00698e-05
4.00746e-05
4.00804e-05
4.00884e-05
4.00971e-05
4.0113e-05
4.01281e-05
4.00474e-05
4.00477e-05
4.00469e-05
4.00452e-05
4.00442e-05
4.00434e-05
4.00425e-05
4.00419e-05
4.00414e-05
4.00409e-05
4.00407e-05
4.00404e-05
4.00403e-05
4.00401e-05
4.004e-05
4.004e-05
4.00399e-05
4.00399e-05
4.00398e-05
4.00398e-05
4.00398e-05
4.00398e-05
4.00398e-05
4.00398e-05
4.00399e-05
4.00401e-05
4.00403e-05
4.00407e-05
4.00411e-05
4.00417e-05
4.00425e-05
4.00434e-05
4.00445e-05
4.00459e-05
4.00477e-05
4.00499e-05
4.00527e-05
4.00565e-05
4.00618e-05
4.00474e-05
4.00473e-05
4.00472e-05
4.0047e-05
4.0047e-05
4.00471e-05
4.00471e-05
4.00471e-05
4.00472e-05
4.00472e-05
4.00473e-05
4.00473e-05
4.00474e-05
4.00476e-05
4.00477e-05
4.00479e-05
4.00481e-05
4.00484e-05
4.00487e-05
4.00491e-05
4.00495e-05
4.005e-05
4.00506e-05
4.00512e-05
4.0052e-05
4.00529e-05
4.0054e-05
4.00553e-05
4.00569e-05
4.00588e-05
4.0061e-05
4.00638e-05
4.00671e-05
4.00713e-05
4.00765e-05
4.00835e-05
4.00914e-05
4.01051e-05
4.0119e-05
4.00479e-05
4.00481e-05
4.00474e-05
4.00457e-05
4.00447e-05
4.00438e-05
4.00428e-05
4.00421e-05
4.00415e-05
4.0041e-05
4.00406e-05
4.00403e-05
4.00401e-05
4.00399e-05
4.00398e-05
4.00397e-05
4.00396e-05
4.00395e-05
4.00394e-05
4.00394e-05
4.00393e-05
4.00392e-05
4.00392e-05
4.00391e-05
4.00392e-05
4.00393e-05
4.00395e-05
4.00397e-05
4.00401e-05
4.00406e-05
4.00412e-05
4.00419e-05
4.00429e-05
4.00441e-05
4.00456e-05
4.00475e-05
4.005e-05
4.00534e-05
4.00579e-05
4.0048e-05
4.00478e-05
4.00476e-05
4.00476e-05
4.00476e-05
4.00477e-05
4.00478e-05
4.00479e-05
4.00479e-05
4.0048e-05
4.0048e-05
4.00481e-05
4.00481e-05
4.00482e-05
4.00483e-05
4.00484e-05
4.00486e-05
4.00488e-05
4.0049e-05
4.00493e-05
4.00497e-05
4.00501e-05
4.00505e-05
4.00511e-05
4.00517e-05
4.00525e-05
4.00534e-05
4.00545e-05
4.00559e-05
4.00575e-05
4.00595e-05
4.00619e-05
4.00648e-05
4.00685e-05
4.0073e-05
4.00791e-05
4.00862e-05
4.00983e-05
4.01102e-05
4.00484e-05
4.00485e-05
4.00477e-05
4.00461e-05
4.00451e-05
4.00442e-05
4.00431e-05
4.00423e-05
4.00416e-05
4.0041e-05
4.00406e-05
4.00402e-05
4.004e-05
4.00397e-05
4.00396e-05
4.00394e-05
4.00393e-05
4.00391e-05
4.0039e-05
4.00389e-05
4.00388e-05
4.00387e-05
4.00386e-05
4.00386e-05
4.00385e-05
4.00386e-05
4.00387e-05
4.00389e-05
4.00391e-05
4.00395e-05
4.004e-05
4.00406e-05
4.00414e-05
4.00424e-05
4.00437e-05
4.00453e-05
4.00475e-05
4.00504e-05
4.00544e-05
4.00485e-05
4.00482e-05
4.0048e-05
4.00482e-05
4.00483e-05
4.00485e-05
4.00486e-05
4.00487e-05
4.00488e-05
4.00488e-05
4.00488e-05
4.00489e-05
4.00489e-05
4.00489e-05
4.0049e-05
4.00491e-05
4.00492e-05
4.00493e-05
4.00495e-05
4.00497e-05
4.005e-05
4.00503e-05
4.00506e-05
4.0051e-05
4.00515e-05
4.00522e-05
4.00529e-05
4.00539e-05
4.0055e-05
4.00564e-05
4.00581e-05
4.00602e-05
4.00628e-05
4.0066e-05
4.007e-05
4.00753e-05
4.00815e-05
4.00923e-05
4.01023e-05
4.00487e-05
4.00488e-05
4.0048e-05
4.00465e-05
4.00454e-05
4.00444e-05
4.00434e-05
4.00424e-05
4.00417e-05
4.0041e-05
4.00406e-05
4.00402e-05
4.00399e-05
4.00396e-05
4.00394e-05
4.00392e-05
4.0039e-05
4.00389e-05
4.00387e-05
4.00386e-05
4.00384e-05
4.00383e-05
4.00382e-05
4.0038e-05
4.00379e-05
4.00379e-05
4.0038e-05
4.00381e-05
4.00383e-05
4.00385e-05
4.00389e-05