/*--------------------------------*- C++ -*----------------------------------*\
| =========                 |                                                 |
| \\      /  F ield         | OpenFOAM: The Open Source CFD Toolbox           |
|  \\    /   O peration     | Version:  2206                                  |
|   \\  /    A nd           | Website:  www.openfoam.com                      |
|    \\/     M anipulation  |                                                 |
\*---------------------------------------------------------------------------*/
FoamFile
{
    version     2.0;
    format      ascii;
    arch        "LSB;label=32;scalar=64";
    class       volScalarField;
    location    "150";
    object      turbulenceProperties:L;
}
// * * * * * * * * * * * * * * * * * * * * * * * * * * * * * * * * * * * * * //

dimensions      [0 1 0 0 0 0 0];

internalField   nonuniform List<scalar> 
10720
(
0.0018193
0.00173899
0.00166793
0.00159986
0.00155783
0.00153368
0.00153163
0.00155631
0.00160959
0.00169442
0.00181551
0.00198015
0.00219364
0.00246998
0.00282916
0.00330484
0.00394313
0.00483469
0.00609308
0.00801764
0.0109793
0.0161719
0.0254931
0.0431451
0.0531995
0.0558202
0.0566626
0.057828
0.0591507
0.0601492
0.060694
0.0609548
0.061129
0.0613104
0.061554
0.0619022
0.0626818
0.0636262
0.0697858
0.00191815
0.00202224
0.00218993
0.00239296
0.00267879
0.00308877
0.00363805
0.0041402
0.00391077
0.00337907
0.002888
0.00254086
0.00233758
0.00226337
0.00230346
0.002447
0.00269173
0.00304709
0.00353849
0.00420506
0.00512863
0.00639265
0.00824333
0.0108396
0.0150126
0.0210444
0.0312111
0.0439425
0.0515509
0.0543712
0.0552051
0.0555343
0.0557408
0.0558821
0.0559879
0.0560885
0.0562113
0.0564332
0.0566251
0.00389637
0.00390598
0.00392795
0.00398487
0.00407825
0.00419509
0.00434725
0.00454018
0.00475934
0.00500998
0.00528552
0.00554296
0.00564395
0.00550251
0.00515473
0.00485935
0.00495915
0.00552664
0.00642819
0.00781505
0.00964739
0.0130176
0.0173491
0.0277397
0.0389874
0.0511657
0.0652772
0.0809956
0.0968907
0.11155
0.125052
0.138188
0.150594
0.161338
0.169991
0.176557
0.180533
0.180993
0.175288
0.00391499
0.00394357
0.00400096
0.00409034
0.00422325
0.00442029
0.00468193
0.0049759
0.00532262
0.00575538
0.00627202
0.0068507
0.00749431
0.00821881
0.00903759
0.00996221
0.0110268
0.0122731
0.0138431
0.0160493
0.0198991
0.0283888
0.0608153
0.244978
0.0642004
0.0108794
0.0227311
0.0602557
0.109489
0.157757
0.19535
0.215854
0.222006
0.220654
0.216711
0.212196
0.207298
0.198236
0.175446
0.00476605
0.00478787
0.00484553
0.00493658
0.00503786
0.00515702
0.00528712
0.00541355
0.00553045
0.00562816
0.00570669
0.00576259
0.00578401
0.00577595
0.00575506
0.00580656
0.00617622
0.00654772
0.0113584
0.00531537
0.00638892
0.00603098
0.00927611
0.0203924
0.0246046
0.0322266
0.0418677
0.0549923
0.0722822
0.0922032
0.112883
0.132576
0.151099
0.16947
0.188129
0.206417
0.223085
0.238048
0.233893
0.00474613
0.00474773
0.00475351
0.00479507
0.0048748
0.00502296
0.0052454
0.00552723
0.00583633
0.0062313
0.00675471
0.00740493
0.00817984
0.00908906
0.0101201
0.0112623
0.0124732
0.0136984
0.0148483
0.0158698
0.016701
0.0173041
0.0176517
0.0178278
0.0178148
0.0178166
0.0173172
0.0231709
0.0165104
0.0468823
0.104831
0.177534
0.221323
0.240545
0.251089
0.257873
0.260803
0.272598
0.244734
0.00519572
0.00519021
0.00520329
0.00522559
0.00527148
0.00534204
0.00543409
0.00555569
0.0057051
0.00588527
0.00609837
0.00634762
0.00664172
0.00699135
0.00740641
0.00793242
0.00860227
0.00934049
0.0105705
0.0133171
0.182624
0.0172499
0.0186831
0.00595235
0.0115536
0.0207689
0.0357732
0.0439031
0.0947501
0.0961767
0.10401
0.123238
0.145421
0.167291
0.188484
0.210541
0.233405
0.257335
0.264655
0.00522365
0.0052664
0.00533516
0.00542185
0.00553833
0.00570514
0.0059187
0.00617075
0.00647812
0.00687314
0.00735992
0.00792048
0.00854069
0.00921431
0.00992873
0.0106754
0.0114348
0.0121903
0.012918
0.0136177
0.0142785
0.0149157
0.0155677
0.0163599
0.0173186
0.0182555
0.019076
0.0197159
0.0207668
0.0217418
0.027541
0.0326707
0.0485551
0.167434
0.235624
0.234068
0.245517
0.257834
0.241882
0.00598868
0.00599479
0.00601912
0.00606284
0.00613141
0.0062281
0.00635142
0.00650374
0.00668529
0.00689009
0.00711486
0.0073532
0.00759486
0.00782738
0.00804063
0.00822617
0.00842707
0.00868783
0.00901323
0.00939305
0.0109669
0.0155089
11.0905
0.164114
4.18695
0
0
0.0158064
0.0199252
0.020834
0.0145676
0.0616791
0.242863
0.192094
0.197977
0.21481
0.235863
0.262686
0.278907
0.00599673
0.00601811
0.00606135
0.0061327
0.0062391
0.00639812
0.00660286
0.00684482
0.00713843
0.00750916
0.007961
0.00849126
0.0091012
0.0097972
0.0105809
0.0114507
0.0123981
0.0134065
0.0144482
0.0155004
0.0165356
0.0175466
0.0185558
0.0196993
0.0211154
0.0227416
0.0243273
0.0256219
0.0262093
0.0273017
0.0247135
0.0707696
0.023144
0.249845
0.0735266
0.119922
0.0903506
0.114464
0.193059
0.0066215
0.00660805
0.0066099
0.00662267
0.0066558
0.0067104
0.00678558
0.00688626
0.00701362
0.00716812
0.00735307
0.00756992
0.00781967
0.00810463
0.0084266
0.00879776
0.0092623
0.00983477
0.0104912
0.0112005
0.0118769
0.0127574
0.0151984
0.0214305
0.539238
0.169591
0.238519
1.60008
0
0.262097
0.00934866
0.0252191
0.05495
0.0621272
0.23613
0.263691
0.249495
0.266755
0.284311
0.00665117
0.00669265
0.00675454
0.0068402
0.0069576
0.00711933
0.00731673
0.00754964
0.00783415
0.00818731
0.00861201
0.00910689
0.0096705
0.0103034
0.0110022
0.0117581
0.0125583
0.0133863
0.0142223
0.0150518
0.0158665
0.0166788
0.0175278
0.0185204
0.0197622
0.0212184
0.0227948
0.0244253
0.0261006
0.0278004
0.0295386
0.0316799
0.0351623
0.0462787
0.296848
0.689118
0.0515025
0.0623081
0.100771
0.00735982
0.0073443
0.00734216
0.0073522
0.00738184
0.00743386
0.00750849
0.00760994
0.00774051
0.00790064
0.00809241
0.00831664
0.00857245
0.0088586
0.00917258
0.00950911
0.00984965
0.0101962
0.010583
0.0110381
0.0115519
0.0120606
0.0126329
0.0134719
0.0153595
0.0197026
0.027504
0.189746
0.20414
0.499545
0
0
0
0.0325396
0.073574
0.119312
0.345846
0.284311
0.288615
0.00739009
0.00743128
0.00749252
0.0075808
0.00770216
0.00786379
0.00805517
0.00828236
0.00855903
0.00889458
0.0092929
0.00975523
0.010283
0.0108799
0.0115468
0.0122814
0.0130792
0.0139309
0.014823
0.0157443
0.0166859
0.0176529
0.0186774
0.019852
0.021288
0.022989
0.0248793
0.0268882
0.0289866
0.0310972
0.033005
0.0344235
0.0354766
0.0368396
0.0383899
0.0630909
0.340692
2.60915
0.0232059
0.00808726
0.00806043
0.00804474
0.00803909
0.00805021
0.00808073
0.00813006
0.00820272
0.00830076
0.00842463
0.0085778
0.00876161
0.00897746
0.00922757
0.00951375
0.00983682
0.0102056
0.0106462
0.0111618
0.0117357
0.0123383
0.0129276
0.0134377
0.0139405
0.0144887
0.0155294
0.0170158
0.019841
0.0252179
0.0552113
0.194533
0.584742
0
0
0
0.061008
0.0875733
0.338685
0.298531
0.0081285
0.00817861
0.00824741
0.00834372
0.00847098
0.00863399
0.00882183
0.00904492
0.0093144
0.00963459
0.0100108
0.0104445
0.0109381
0.0114957
0.0121187
0.0128042
0.0135487
0.0143425
0.0151736
0.0160316
0.0169115
0.0178206
0.0187898
0.0198947
0.0212229
0.0227825
0.0245246
0.0264155
0.0284752
0.0307326
0.0331788
0.0358242
0.0387035
0.0417838
0.0444989
0.0475641
0.0585229
0.29599
0.0484559
0.00885557
0.00882128
0.00879651
0.00878161
0.00878203
0.00880083
0.00883794
0.00889803
0.00898315
0.00909466
0.00923581
0.00940848
0.00961434
0.00985566
0.0101334
0.0104496
0.0108051
0.0111929
0.0116142
0.0120769
0.0125827
0.0131208
0.0136662
0.0142429
0.0148928
0.0157052
0.0167315
0.0177853
0.0191096
0.0213507
0.0253629
0.0600626
0.231192
2.17494
0
0
0.054889
0.152716
0.314374
0.0089034
0.00895904
0.00903249
0.00913563
0.00926772
0.00943136
0.0096178
0.00983843
0.0101012
0.010408
0.0107641
0.0111719
0.0116343
0.0121565
0.0127413
0.013389
0.0140981
0.0148643
0.0156805
0.0165403
0.0174412
0.0183918
0.0194211
0.0205918
0.0219801
0.023609
0.0254428
0.0274471
0.0296276
0.0319934
0.0345043
0.0370327
0.0393937
0.0413622
0.0426822
0.0426019
0.0414206
0.0411175
0.471818
0.00964679
0.00960315
0.00956713
0.00954002
0.00952702
0.00953023
0.00955018
0.00959134
0.0096554
0.00974382
0.00986002
0.0100058
0.010183
0.0103944
0.0106418
0.010928
0.011254
0.0116273
0.0120587
0.0125448
0.0130701
0.0136156
0.0141662
0.0147465
0.0154391
0.016314
0.0173766
0.0184704
0.0194614
0.0203458
0.0212648
0.0237607
0.0298864
13.2694
1.68524
0
0
0.0920914
0.31374
0.00970349
0.00976624
0.00984589
0.00995679
0.0100944
0.0102585
0.0104453
0.0106648
0.0109212
0.0112163
0.011555
0.0119393
0.0123735
0.0128634
0.0134122
0.0140215
0.0146922
0.0154212
0.0162047
0.0170385
0.0179214
0.0188625
0.0198875
0.0210469
0.0224052
0.0239861
0.0257647
0.0277161
0.0298517
0.0321966
0.034749
0.037478
0.0403421
0.0431464
0.045663
0.0463572
0.0469758
0.0371504
0.0680276
0.0104709
0.0104184
0.0103719
0.0103337
0.0103087
0.0102985
0.0103044
0.0103301
0.010378
0.0104494
0.0105478
0.0106752
0.0108341
0.0110273
0.0112568
0.0115252
0.0118352
0.0121878
0.0125833
0.0130229
0.0135013
0.014012
0.0145489
0.0151289
0.0158179
0.0166927
0.0177676
0.0189568
0.0201076
0.0211236
0.0219361
0.0226527
0.0235055
0.027366
0.175728
1.61982
0
0.0387747
0.234125
0.0105361
0.0106058
0.0106913
0.0108098
0.010953
0.0111182
0.0113065
0.0115258
0.0117766
0.0120612
0.0123845
0.0127483
0.0131568
0.0136164
0.0141318
0.0147057
0.0153411
0.016038
0.0167948
0.0176104
0.0184873
0.0194353
0.0204781
0.0216591
0.023033
0.0246254
0.026424
0.0284095
0.0305897
0.0329817
0.0355729
0.0383005
0.0410454
0.0435658
0.0456414
0.0460476
0.0464505
0.039517
0.0357458
0.0113272
0.0112651
0.0112077
0.0111579
0.0111203
0.0110961
0.0110868
0.0110964
0.0111268
0.0111794
0.0112577
0.0113638
0.0115001
0.0116695
0.0118746
0.0121179
0.0124023
0.0127284
0.0131026
0.0135276
0.0139955
0.0144964
0.0150259
0.0156
0.0162724
0.0171118
0.0181398
0.0192972
0.0204797
0.0216183
0.0226779
0.023547
0.0242152
0.0241656
0.0267123
0.205531
13.3889
0.0241261
0.13994
0.0114012
0.0114789
0.0115708
0.0116967
0.0118457
0.0120135
0.0122039
0.0124233
0.0126695
0.0129454
0.013255
0.0136002
0.0139855
0.0144182
0.0149027
0.0154433
0.016045
0.0167096
0.0174387
0.0182329
0.0190959
0.0200381
0.0210828
0.0222677
0.0236359
0.0252139
0.0269968
0.0289714
0.0311454
0.0335367
0.0361431
0.0389218
0.0417992
0.044573
0.0469799
0.0478143
0.0479175
0.0427064
0.034102
0.0122192
0.0121473
0.0120788
0.0120175
0.0119674
0.0119298
0.0119058
0.0118999
0.0119139
0.011949
0.012009
0.0120958
0.0122121
0.0123609
0.0125448
0.0127665
0.0130291
0.0133335
0.0136825
0.0140784
0.0145182
0.0149953
0.0155093
0.0160752
0.0167358
0.0175472
0.0185306
0.0196381
0.0207851
0.0219187
0.0230382
0.0240976
0.0250678
0.0255628
0.0249289
0.0282705
0.320279
0.0276308
0.0735617
0.0123022
0.0123881
0.0124872
0.0126204
0.0127752
0.0129467
0.01314
0.0133599
0.0136025
0.0138706
0.0141681
0.0144972
0.014862
0.0152696
0.0157263
0.0162367
0.016807
0.017441
0.0181426
0.0189153
0.0197647
0.0207028
0.0217516
0.0229432
0.0243149
0.0258918
0.0276768
0.0296624
0.0318566
0.0342758
0.0369176
0.0397359
0.0426401
0.0454193
0.0478023
0.048726
0.0487604
0.0445207
0.0355921
0.0131488
0.0130668
0.012987
0.0129138
0.012851
0.0127994
0.0127608
0.0127394
0.0127367
0.0127545
0.012796
0.0128636
0.0129593
0.0130864
0.0132477
0.0134461
0.0136848
0.0139649
0.0142887
0.0146608
0.0150801
0.0155391
0.0160385
0.0165924
0.0172371
0.0180202
0.0189616
0.0200228
0.0211294
0.0222318
0.0233264
0.0244007
0.0254332
0.0263486
0.0267548
0.0248706
0.0463747
0.292988
0.0297489
0.0132414
0.0133357
0.0134426
0.0135834
0.0137441
0.0139202
0.0141176
0.0143382
0.0145782
0.0148398
0.015127
0.0154415
0.0157877
0.0161734
0.0166042
0.0170865
0.0176278
0.018233
0.0189077
0.019658
0.0204922
0.0214229
0.0224711
0.0236641
0.025034
0.0266057
0.028386
0.0303734
0.0325768
0.0350124
0.0376817
0.0405451
0.0435277
0.0464358
0.0490015
0.0501454
0.0503302
0.0463168
0.0375562
0.0141185
0.0140265
0.0139347
0.0138497
0.0137741
0.0137082
0.013655
0.0136182
0.0135992
0.0135999
0.0136234
0.0136717
0.0137476
0.013854
0.013994
0.0141702
0.0143856
0.0146426
0.0149418
0.0152877
0.0156825
0.0161196
0.0166009
0.0171396
0.0177662
0.0185209
0.0194225
0.0204412
0.0215123
0.0225877
0.0236564
0.0247065
0.0257172
0.0266045
0.0276529
0.0266801
0.0263415
4.21041
0.019472
0.0142214
0.0143244
0.0144396
0.0145886
0.0147555
0.0149371
0.0151391
0.0153611
0.0155991
0.0158555
0.0161337
0.0164357
0.0167658
0.0171314
0.0175394
0.017996
0.0185098
0.0190879
0.0197374
0.0204664
0.0212841
0.0222045
0.0232488
0.0244435
0.0258148
0.0273846
0.0291645
0.0311587
0.0333781
0.0358392
0.0385459
0.0414627
0.0445167
0.0475176
0.0502032
0.051517
0.0518565
0.0481852
0.0395826
0.0151312
0.0150285
0.0149247
0.0148274
0.0147384
0.0146583
0.0145901
0.0145376
0.0145021
0.0144856
0.0144912
0.014521
0.0145772
0.0146632
0.0147813
0.0149349
0.0151268
0.01536
0.0156342
0.0159549
0.0163258
0.0167417
0.0172043
0.0177252
0.0183314
0.0190569
0.0199192
0.0208953
0.0219307
0.0229801
0.0240281
0.0250597
0.0260491
0.026918
0.0277203
0.0287663
0.0248428
0.3044
0
0.0152444
0.015357
0.0154808
0.0156385
0.0158119
0.016
0.0162075
0.0164315
0.0166687
0.016921
0.0171917
0.0174825
0.0177981
0.0181463
0.0185334
0.0189673
0.0194564
0.0200092
0.0206346
0.0213421
0.0221431
0.0230526
0.0240919
0.0252846
0.0266545
0.0282218
0.0300015
0.0320021
0.0342369
0.0367236
0.0394697
0.0424455
0.0455877
0.0487185
0.0515838
0.0531311
0.0536456
0.0502897
0.0417332
0.0161896
0.0160756
0.0159597
0.0158496
0.0157469
0.0156522
0.0155688
0.0155003
0.0154485
0.015415
0.0154029
0.0154141
0.0154507
0.0155161
0.0156128
0.015744
0.0159128
0.0161222
0.0163722
0.0166674
0.0170129
0.0174063
0.0178482
0.018349
0.0189324
0.0196282
0.0204517
0.0213858
0.0223849
0.0234071
0.0244343
0.0254512
0.0264238
0.0273224
0.0278993
0.0294852
0.0260876
0.0470954
0.994165
0.0163132
0.0164359
0.0165692
0.0167359
0.0169165
0.017112
0.0173256
0.0175524
0.0177895
0.0180389
0.0183033
0.018585
0.0188884
0.0192209
0.0195899
0.0200028
0.0204696
0.0209989
0.0216014
0.022288
0.0230717
0.0239693
0.0250022
0.0261925
0.0275606
0.0291274
0.0309087
0.0329178
0.035171
0.0376879
0.0404799
0.043524
0.0467652
0.0500359
0.0530917
0.0548917
0.0555993
0.0525759
0.044069
0.0172964
0.0171709
0.0170425
0.0169188
0.0168024
0.0166924
0.0165934
0.0165089
0.0164404
0.0163896
0.0163596
0.0163521
0.0163694
0.0164147
0.0164903
0.0165994
0.0167449
0.0169304
0.017156
0.0174257
0.0177454
0.0181156
0.0185355
0.0190142
0.019573
0.0202379
0.0210229
0.0219153
0.0228772
0.0238707
0.0248754
0.0258766
0.0268369
0.0277448
0.0283421
0.0294563
0.0282629
0.0296803
0.158389
0.017431
0.0175644
0.0177076
0.0178839
0.0180725
0.0182763
0.0184965
0.0187271
0.0189651
0.0192128
0.0194725
0.0197463
0.0200391
0.0203585
0.0207113
0.021106
0.0215526
0.0220606
0.0226418
0.0233088
0.0240755
0.0249593
0.0259831
0.0271701
0.0285389
0.0301056
0.0318894
0.0339081
0.0361816
0.038732
0.0415754
0.0446973
0.0480531
0.0514893
0.0547748
0.056874
0.057805
0.0550825
0.0466217
0.0184547
0.0183175
0.0181756
0.0180384
0.0179072
0.0177818
0.0176665
0.0175657
0.0174802
0.0174121
0.0173642
0.0173384
0.0173365
0.0173618
0.0174162
0.0175032
0.0176257
0.0177869
0.0179884
0.0182325
0.0185261
0.0188723
0.0192686
0.0197233
0.0202558
0.0208891
0.021636
0.0224869
0.023411
0.0243741
0.0253551
0.0263377
0.0272897
0.0281818
0.0288944
0.0295357
0.0300087
0.0282416
0.045454
0.0186008
0.0187454
0.0188995
0.0190856
0.0192833
0.019496
0.0197237
0.0199587
0.020199
0.0204459
0.0207022
0.0209699
0.021254
0.0215621
0.0219013
0.0222798
0.0227084
0.0231975
0.0237592
0.0244068
0.025157
0.0260285
0.0270446
0.0282268
0.0295931
0.0311603
0.0329487
0.0349798
0.0372771
0.039866
0.0427684
0.0459796
0.0494672
0.0530939
0.0566456
0.0590895
0.0602807
0.0578418
0.049418
0.0196677
0.0195184
0.0193626
0.019211
0.0190647
0.018923
0.0187914
0.0186736
0.0185709
0.0184851
0.0184193
0.0183748
0.0183535
0.0183584
0.0183918
0.0184568
0.0185563
0.0186935
0.0188713
0.01909
0.0193572
0.019678
0.02005
0.0204794
0.0209842
0.021585
0.0222937
0.0231034
0.0239891
0.0249206
0.0258767
0.0268391
0.0277828
0.0286573
0.0294531
0.0299196
0.0308725
0.0293899
0.0328245
0.0198257
0.0199823
0.0201477
0.0203441
0.0205522
0.0207747
0.0210105
0.0212514
0.0214948
0.0217423
0.0219965
0.0222597
0.0225368
0.0228354
0.0231629
0.0235278
0.0239406
0.0244125
0.0249566
0.0255873
0.0263212
0.0271794
0.0281867
0.0293645
0.0307294
0.032299
0.0340942
0.0361399
0.0384639
0.0410962
0.0440651
0.0473782
0.0510162
0.054864
0.0587292
0.0615797
0.063081
0.0608882
0.0524714
0.0209389
0.0207766
0.0206065
0.0204399
0.0202779
0.0201194
0.0199709
0.0198356
0.0197152
0.0196115
0.0195273
0.019464
0.0194235
0.0194083
0.0194208
0.0194638
0.0195405
0.0196539
0.0198072
0.0200002
0.0202408
0.0205355
0.0208819
0.0212849
0.0217607
0.0223285
0.022999
0.0237679
0.0246148
0.0255134
0.0264432
0.0273848
0.028318
0.0291847
0.0300113
0.0305081
0.0313458
0.0310145
0.0310051
0.0211092
0.0212782
0.0214556
0.0216631
0.0218826
0.0221158
0.0223607
0.0226082
0.0228558
0.0231053
0.0233591
0.0236195
0.0238913
0.0241825
0.0245001
0.0248534
0.025253
0.0257099
0.0262379
0.0268526
0.0275725
0.0284183
0.029416
0.030589
0.0319547
0.0335283
0.0353319
0.0373947
0.0397492
0.0424308
0.0454757
0.0489054
0.0527158
0.056821
0.0610547
0.0643864
0.0662629
0.0642823
0.0558204
0.0222717
0.022096
0.0219106
0.0217287
0.0215499
0.0213741
0.0212079
0.0210547
0.0209161
0.0207941
0.0206914
0.0206093
0.0205492
0.020514
0.0205052
0.0205264
0.0205801
0.0206694
0.020798
0.0209656
0.0211798
0.0214475
0.0217675
0.0221432
0.0225889
0.0231228
0.0237554
0.0244837
0.0252914
0.0261562
0.0270584
0.0279786
0.0288986
0.0297647
0.0305967
0.0311877
0.0318555
0.0323703
0.0316349
0.0224545
0.022637
0.0228269
0.0230463
0.023278
0.0235229
0.0237779
0.0240331
0.0242864
0.0245393
0.0247938
0.0250528
0.0253213
0.025607
0.0259173
0.0262609
0.0266491
0.0270934
0.0276078
0.0282084
0.0289145
0.0297493
0.0307394
0.0319089
0.0332747
0.0348529
0.0366676
0.0387509
0.0411408
0.043879
0.0470105
0.0505727
0.0545818
0.058988
0.0636591
0.0675682
0.069899
0.0680835
0.059496
0.0236698
0.02348
0.0232788
0.0230806
0.0228843
0.0226906
0.022506
0.0223344
0.022177
0.0220363
0.0219145
0.021813
0.0217331
0.0216775
0.0216478
0.021647
0.0216778
0.0217432
0.0218471
0.0219896
0.022177
0.0224169
0.0227096
0.0230571
0.0234718
0.0239715
0.0245661
0.025254
0.0260224
0.0268525
0.0277261
0.0286246
0.0295302
0.0303975
0.0312319
0.0319082
0.0325179
0.0334057
0.0329272
0.0238656
0.0240621
0.0242655
0.0244977
0.0247426
0.0249999
0.0252662
0.0255304
0.0257905
0.0260481
0.0263053
0.0265647
0.0268316
0.0271135
0.0274179
0.0277544
0.0281336
0.0285672
0.0290701
0.0296588
0.0303532
0.0311778
0.032161
0.0333274
0.034695
0.0362796
0.0381089
0.0402168
0.0426472
0.045449
0.0486783
0.0523913
0.0566297
0.061388
0.0665809
0.071193
0.0740912
0.0723733
0.0635298
0.025137
0.0249324
0.0247147
0.024499
0.024285
0.0240724
0.0238688
0.0236781
0.0235016
0.0233415
0.0232004
0.0230792
0.0229794
0.0229032
0.0228521
0.0228292
0.0228369
0.0228784
0.0229573
0.0230743
0.0232347
0.0234461
0.0237109
0.0240292
0.0244126
0.0248778
0.0254345
0.0260822
0.0268113
0.027606
0.0284502
0.0293259
0.0302171
0.031085
0.0319275
0.0326662
0.0333119
0.0343246
0.0343247
0.0253468
0.0255572
0.025775
0.0260209
0.0262799
0.0265508
0.0268296
0.0271042
0.0273726
0.0276366
0.0278976
0.0281588
0.0284257
0.0287061
0.0290074
0.0293385
0.0297107
0.0301359
0.0306293
0.0312079
0.0318922
0.032708
0.0336854
0.0348507
0.0362223
0.0378174
0.0396629
0.0417995
0.0442759
0.0471494
0.0504892
0.0543735
0.0588748
0.0640448
0.0698646
0.0753457
0.078963
0.0772629
0.0679734
0.0266772
0.0264572
0.0262223
0.0259882
0.0257556
0.0255234
0.0253
0.0250895
0.024893
0.0247131
0.0245521
0.0244107
0.0242906
0.0241934
0.0241211
0.0240757
0.0240603
0.0240778
0.0241314
0.0242232
0.0243561
0.024539
0.0247757
0.0250645
0.0254157
0.0258457
0.0263644
0.0269721
0.0276619
0.0284209
0.0292347
0.0300871
0.0309637
0.0318309
0.0326865
0.0334731
0.034197
0.0352733
0.0357014
0.0269018
0.0271269
0.02736
0.0276203
0.0278943
0.0281802
0.0284723
0.0287585
0.0290368
0.0293086
0.0295754
0.0298406
0.0301097
0.03039
0.0306895
0.0310177
0.0313853
0.0318044
0.0322903
0.0328612
0.0335378
0.034347
0.0353202
0.0364856
0.0378622
0.03947
0.0413358
0.0435058
0.0460343
0.048989
0.0524534
0.0565309
0.0613336
0.0669847
0.0735627
0.0801375
0.0846943
0.0828774
0.0728619
0.0282951
0.0280585
0.0278055
0.0275526
0.0273003
0.0270477
0.0268037
0.0265728
0.0263555
0.0261551
0.0259735
0.0258117
0.0256706
0.0255524
0.0254583
0.0253905
0.0253517
0.0253448
0.0253733
0.0254396
0.0255452
0.025699
0.0259068
0.0261653
0.0264842
0.0268793
0.0273604
0.0279286
0.0285789
0.0293017
0.0300846
0.0309132
0.0317745
0.0326417
0.0335118
0.0343429
0.035154
0.0363034
0.0370752
0.0285347
0.0287752
0.0290246
0.0293002
0.0295904
0.0298924
0.030199
0.0304985
0.030788
0.0310693
0.0313434
0.0316142
0.0318872
0.0321698
0.0324698
0.0327966
0.0331616
0.0335773
0.0340581
0.0346229
0.0352938
0.0360989
0.037071
0.0382393
0.0396244
0.0412463
0.0431369
0.0453447
0.047932
0.0509774
0.0545806
0.0588749
0.0640227
0.0702351
0.0777317
0.0857072
0.091531
0.089396
0.0782502
0.0299949
0.029741
0.0294688
0.0291963
0.0289234
0.0286495
0.0283843
0.0281317
0.0278931
0.0276714
0.0274687
0.0272858
0.0271234
0.0269837
0.0268673
0.0267768
0.0267147
0.0266833
0.0266864
0.0267267
0.0268051
0.02693
0.0271082
0.0273364
0.0276228
0.027983
0.0284266
0.0289556
0.0295668
0.0302531
0.0310048
0.0318092
0.0326551
0.0335213
0.0344078
0.0352831
0.0361785
0.0374197
0.0384819
0.0302502
0.0305067
0.0307733
0.0310655
0.0313727
0.0316921
0.0320146
0.0323284
0.0326307
0.0329233
0.0332068
0.0334849
0.0337636
0.0340502
0.034353
0.034681
0.0350456
0.035459
0.0359373
0.036499
0.0371664
0.0379689
0.0389418
0.0401147
0.0415107
0.0431508
0.0450697
0.0473208
0.0499743
0.0531198
0.0568774
0.0614138
0.0669515
0.0738155
0.082429
0.0922322
0.0998331
0.0970453
0.0841782
0.0317812
0.0315094
0.0312169
0.0309239
0.0306296
0.0303331
0.0300459
0.0297708
0.0295102
0.0292663
0.0290419
0.0288372
0.0286534
0.0284915
0.0283528
0.0282394
0.0281533
0.0280975
0.0280748
0.0280888
0.0281396
0.0282357
0.0283839
0.0285819
0.028836
0.0291611
0.0295676
0.0300578
0.0306304
0.0312806
0.0320004
0.0327801
0.0336114
0.0344757
0.0353791
0.0362989
0.0372768
0.038618
0.0399401
0.0320534
0.0323265
0.0326108
0.0329207
0.033246
0.0335835
0.0339237
0.0342533
0.0345702
0.0348757
0.0351703
0.0354579
0.0357445
0.036037
0.036344
0.0366752
0.0370415
0.0374557
0.0379335
0.0384941
0.0391609
0.0399637
0.0409395
0.0421201
0.0435298
0.0451916
0.0471434
0.0494432
0.0521695
0.0554245
0.0593509
0.0641537
0.0701264
0.0777391
0.0877069
0.0999388
0.11016
0.106132
0.0906839
0.0336594
0.0333683
0.0330551
0.0327404
0.0324236
0.032104
0.0317933
0.0314951
0.0312115
0.030945
0.030698
0.0304711
0.0302647
0.0300801
0.0299186
0.0297816
0.0296715
0.0295909
0.0295424
0.0295299
0.0295532
0.0296203
0.0297387
0.0299058
0.0301277
0.0304186
0.0307885
0.0312404
0.0317748
0.0323889
0.0330774
0.0338322
0.0346479
0.0355121
0.0364312
0.0373976
0.0384572
0.039901
0.0414622
0.0339494
0.0342393
0.0345422
0.0348712
0.0352155
0.0355722
0.0359314
0.0362784
0.0366115
0.0369315
0.037239
0.037538
0.0378343
0.0381351
0.0384486
0.0387848
0.039155
0.039572
0.0400517
0.0406136
0.0412816
0.0420873
0.043069
0.0442603
0.0456876
0.0473742
0.0493627
0.0517159
0.0545211
0.057895
0.0620029
0.0670948
0.0735463
0.0820074
0.093601
0.109105
0.123425
0.117041
0.097772
0.0356347
0.0353233
0.0349884
0.0346509
0.0343105
0.0339669
0.0336317
0.0333095
0.0330018
0.0327117
0.0324413
0.0321912
0.0319618
0.0317543
0.0315693
0.0314089
0.0312743
0.0311683
0.0310938
0.0310546
0.0310503
0.0310884
0.0311768
0.0313133
0.0315032
0.03176
0.0320937
0.0325084
0.0330053
0.0335838
0.0342409
0.0349714
0.0357718
0.0366349
0.0375711
0.038583
0.0397238
0.0412691
0.0430509
0.0359431
0.0362509
0.0365728
0.0369221
0.0372864
0.0376636
0.038043
0.0384091
0.0387597
0.0390963
0.0394188
0.0397307
0.0400384
0.0403496
0.0406718
0.0410155
0.0413916
0.041813
0.0422967
0.0428624
0.0435344
0.0443457
0.0453361
0.0465406
0.0479874
0.0497033
0.0517321
0.0541437
0.0570336
0.0605338
0.0648344
0.0702325
0.077199
0.0865948
0.100097
0.120032
0.141258
0.130234
0.105389
0.0377123
0.03738
0.0370222
0.0366609
0.036296
0.035927
0.0355666
0.0352191
0.0348863
0.0345717
0.0342772
0.0340033
0.0337502
0.0335191
0.0333103
0.0331252
0.0329658
0.0328345
0.032734
0.0326678
0.0326358
0.0326449
0.0327031
0.0328091
0.0329676
0.0331909
0.0334891
0.0338672
0.0343276
0.0348712
0.0354973
0.0362033
0.0369892
0.0378514
0.0388051
0.0398605
0.0410825
0.0427308
0.0447121
0.0380403
0.0383668
0.0387085
0.0390788
0.0394644
0.0398632
0.040264
0.0406506
0.0410206
0.0413755
0.0417143
0.0420418
0.0423634
0.0426861
0.0430187
0.0433716
0.0437559
0.0441845
0.0446743
0.045246
0.0459243
0.0467429
0.0477447
0.0489662
0.0504356
0.0521834
0.0542559
0.0567294
0.0597084
0.0633393
0.0678392
0.0735519
0.0810527
0.0914412
0.107096
0.132939
0.167018
0.146089
0.113389
0.0398985
0.039544
0.0391625
0.0387764
0.0383859
0.0379904
0.0376035
0.0372298
0.0368709
0.0365309
0.0362114
0.0359127
0.0356353
0.0353797
0.0351464
0.0349366
0.0347521
0.0345951
0.0344679
0.0343742
0.0343145
0.0342947
0.0343231
0.034399
0.0345265
0.034717
0.0349807
0.035323
0.0357476
0.0362573
0.0368532
0.0375355
0.0383066
0.0391685
0.0401394
0.0412391
0.0425385
0.0442866
0.0464522
0.0402469
0.0405927
0.0409553
0.0413474
0.0417554
0.0421769
0.0426003
0.0430087
0.0433996
0.0437745
0.044132
0.0444762
0.0448134
0.0451503
0.0454955
0.0458595
0.0462534
0.0466908
0.0471891
0.0477683
0.0484548
0.0492838
0.0502992
0.0515396
0.0530352
0.054817
0.0569365
0.0594743
0.0625443
0.0663067
0.0710046
0.0770306
0.0850604
0.0964431
0.114353
0.147588
0.208913
0.164353
0.121475
0.0421995
0.0418219
0.0414156
0.0410035
0.0405862
0.0401631
0.0397486
0.0393473
0.0389614
0.0385947
0.0382491
0.037925
0.0376223
0.0373417
0.0370834
0.0368483
0.036638
0.0364546
0.0363005
0.0361795
0.0360922
0.0360435
0.036042
0.0360885
0.0361855
0.0363442
0.0365744
0.0368821
0.0372721
0.0377487
0.0383151
0.0389742
0.0397315
0.040593
0.0415815
0.042724
0.0441015
0.0459455
0.0482748
0.0425693
0.0429349
0.0433192
0.0437344
0.0441653
0.0446107
0.0450579
0.0454893
0.0459026
0.0462988
0.0466766
0.0470397
0.0473945
0.0477472
0.0481067
0.0484839
0.048889
0.049337
0.0498454
0.0504347
0.0511322
0.0519733
0.0530041
0.0542653
0.0557885
0.057607
0.0597748
0.0623773
0.0655364
0.0694273
0.0743145
0.0806345
0.0891531
0.10144
0.121426
0.162457
0.29526
0.18263
0.129195
0.044622
0.0442203
0.0437882
0.0433489
0.0429037
0.0424516
0.0420083
0.0415782
0.0411639
0.0407692
0.0403968
0.0400462
0.0397173
0.0394109
0.0391268
0.0388659
0.0386295
0.0384195
0.0382386
0.0380901
0.0379751
0.0378974
0.0378665
0.0378839
0.037951
0.0380784
0.0382762
0.0385507
0.0389075
0.0393522
0.0398904
0.0405272
0.0412713
0.0421327
0.0431385
0.0443227
0.045775
0.0477146
0.0501899
0.0450141
0.0454002
0.045807
0.046246
0.0467007
0.0471708
0.0476427
0.0480986
0.0485356
0.0489547
0.0493547
0.0497383
0.0501117
0.0504823
0.050858
0.0512491
0.051668
0.0521286
0.0526484
0.0532491
0.0539578
0.054813
0.0558621
0.0571465
0.0586989
0.060554
0.0627688
0.0654343
0.0686786
0.0726883
0.0777455
0.0843197
0.0932448
0.106236
0.127711
0.173956
0.510441
0.195021
0.135994
0.0471731
0.0467464
0.0462874
0.0458199
0.0453452
0.0448631
0.0443895
0.0439295
0.0434853
0.0430618
0.0426611
0.0422828
0.0419269
0.0415939
0.0412834
0.040996
0.0407328
0.040496
0.0402877
0.0401113
0.0399687
0.0398626
0.0398027
0.0397915
0.0398296
0.039927
0.0400936
0.0403362
0.0406612
0.0410754
0.0415865
0.0422021
0.0429335
0.0437955
0.0448182
0.0460437
0.0475664
0.0495967
0.0522042
0.0475883
0.0479958
0.0484256
0.0488891
0.0493686
0.0498642
0.0503617
0.050843
0.0513047
0.0517481
0.0521714
0.052577
0.0529717
0.0533611
0.0537541
0.0541614
0.0545953
0.055069
0.0556015
0.0562154
0.0569377
0.057808
0.0588748
0.0601828
0.061765
0.0636569
0.0659173
0.068641
0.0719613
0.0760715
0.0812678
0.0880355
0.0972387
0.110626
0.132601
0.178205
0.320338
0.196441
0.141373
0.04986
0.0494076
0.0489206
0.0484235
0.0479182
0.0474045
0.0468991
0.0464075
0.0459323
0.0454789
0.0450488
0.0446418
0.044258
0.0438974
0.0435596
0.043245
0.0429548
0.0426906
0.0424547
0.0422504
0.0420801
0.0419459
0.0418573
0.0418182
0.0418284
0.041897
0.0420338
0.0422458
0.0425405
0.0429259
0.0434114
0.0440069
0.0447267
0.0455894
0.0466293
0.0478933
0.0494847
0.0516
0.0543246
0.0502995
0.0507292
0.0511826
0.0516713
0.052176
0.0526975
0.0532217
0.0537288
0.0542163
0.054685
0.0551329
0.055562
0.0559784
0.0563885
0.0568006
0.0572252
0.0576743
0.0581626
0.0587096
0.0593368
0.0600729
0.0609591
0.0620455
0.0633768
0.0649876
0.0669134
0.0692151
0.0719891
0.075371
0.0795589
0.0848512
0.0917327
0.101049
0.114448
0.135763
0.175278
0.23941
0.189444
0.145085
0.052691
0.0522119
0.0516956
0.0511679
0.0506305
0.0500836
0.049545
0.0490202
0.0485131
0.048028
0.0475671
0.0471301
0.0467172
0.0463282
0.0459623
0.0456199
0.0453021
0.0450103
0.0447464
0.0445141
0.0443162
0.044154
0.0440378
0.0439713
0.0439543
0.0439955
0.044104
0.0442873
0.0445534
0.0449119
0.0453733
0.0459501
0.0466593
0.0475231
0.0485799
0.049881
0.0515373
0.053732
0.0565604
0.0531554
0.0536083
0.0540859
0.0546
0.0551305
0.0556786
0.0562296
0.0567634
0.057277
0.0577719
0.0582451
0.0586986
0.0591387
0.0595699
0.0600014
0.0604443
0.06091
0.0614141
0.0619752
0.0626162
0.0633673
0.0642689
0.0653737
0.066728
0.0683645
0.0703208
0.072657
0.0754698
0.0788953
0.0831303
0.0884649
0.0953648
0.104609
0.117619
0.137285
0.168767
0.203168
0.1799
0.147232
0.0556749
0.0551679
0.0546212
0.0540617
0.0534905
0.0529089
0.0523355
0.0517763
0.051235
0.0507166
0.0502234
0.0497557
0.0493127
0.0488941
0.0484989
0.048128
0.0477818
0.0474619
0.04717
0.0469097
0.0466836
0.0464943
0.0463511
0.0462583
0.0462155
0.0462305
0.0463123
0.0464686
0.0467082
0.0470415
0.0474807
0.0480404
0.0487401
0.0496053
0.0506782
0.0520148
0.0537318
0.0560001
0.0589198
0.0561648
0.0566416
0.0571441
0.0576838
0.0582401
0.0588149
0.059393
0.0599535
0.0604938
0.0610156
0.0615147
0.0619932
0.0624568
0.0629104
0.0633625
0.063824