/*--------------------------------*- C++ -*----------------------------------*\
| =========                 |                                                 |
| \\      /  F ield         | OpenFOAM: The Open Source CFD Toolbox           |
|  \\    /   O peration     | Version:  2206                                  |
|   \\  /    A nd           | Website:  www.openfoam.com                      |
|    \\/     M anipulation  |                                                 |
\*---------------------------------------------------------------------------*/
FoamFile
{
    version     2.0;
    format      ascii;
    arch        "LSB;label=32;scalar=64";
    class       volScalarField;
    location    "150";
    object      turbulenceProperties:epsilon;
}
// * * * * * * * * * * * * * * * * * * * * * * * * * * * * * * * * * * * * * //

dimensions      [0 2 -3 0 0 0 0];

internalField   nonuniform List<scalar> 
10720
(
0.234982
0.309357
0.413948
0.572307
0.774635
1.05107
1.42409
1.90093
2.51608
3.30412
4.31012
5.62881
7.37514
9.73922
13.034
17.7859
24.7879
35.6119
52.4611
80.9148
127.671
216.568
386.724
773.828
890.766
842.834
797.732
780.092
770.948
752.792
720.676
675.426
616.953
546.521
464.099
373.393
264.3
168.157
28.5412
0.175173
0.132074
0.0896123
0.0590801
0.0355884
0.019214
0.00964289
0.00564496
0.00725623
0.0138632
0.0294719
0.061157
0.119422
0.21765
0.370432
0.597871
0.934522
1.44774
2.26751
3.63222
6.03603
10.3729
18.9216
35.521
72.912
150.838
344.597
700.902
979.558
1096.57
1127.58
1128.13
1113.61
1086.84
1048.74
1001.16
933.574
856.193
634.535
0.0071435
0.00707278
0.00691591
0.00652963
0.00595278
0.00531808
0.00461281
0.00387834
0.00321225
0.00261603
0.00211132
0.00174463
0.00162434
0.00184217
0.00273338
0.00537454
0.0128271
0.0338637
0.0986644
0.32639
1.12158
4.3434
14.4528
53.6251
115.456
171.176
209.372
223.162
207.369
168.468
122.793
84.5516
58.544
42.0576
31.5475
24.5572
20.3019
17.0406
20.3102
0.00700965
0.00681073
0.00643059
0.00589021
0.0051869
0.00432609
0.00344084
0.00270009
0.00206062
0.00150533
0.00106589
0.000748007
0.000521939
0.000360852
0.000247105
0.000167889
0.000112593
7.43187e-05
4.71275e-05
2.75142e-05
1.31239e-05
4.14941e-06
3.97273e-07
5.98424e-09
3.38627e-07
0.00114941
0.00727536
0.0585487
0.186384
0.34183
0.494792
0.64883
0.811532
0.987644
1.17787
1.39388
1.64388
2.27016
4.21645
0.00321232
0.00315471
0.00300777
0.00279248
0.00257521
0.00234595
0.00212408
0.0019332
0.00177561
0.00165634
0.00156801
0.00150921
0.00148837
0.00149878
0.00152222
0.00146361
0.00113154
0.000899129
0.000135535
0.014098
0.00100122
0.00372193
0.000989755
0.00163331
0.108821
0.758003
2.86138
8.39585
20.367
38.9684
57.9925
67.4037
63.1057
50.8299
38.0556
27.8851
21.0519
15.1581
18.6747
0.00326616
0.00326114
0.00324486
0.0031332
0.00293274
0.00260127
0.00218695
0.00177362
0.00142682
0.00109823
0.000795561
0.000550959
0.000370126
0.000242879
0.000158085
0.000103108
6.85643e-05
4.71605e-05
3.41859e-05
2.62212e-05
2.14029e-05
1.86004e-05
1.72184e-05
1.65928e-05
1.67008e-05
1.66228e-05
1.86275e-05
6.08553e-06
0.00020633
0.00108485
0.00221703
0.00398852
0.010777
0.029453
0.065352
0.11907
0.188444
0.232983
0.58441
0.00227094
0.00228057
0.00225775
0.00221947
0.00214322
0.00203227
0.00189811
0.00173742
0.00156257
0.00138
0.00119719
0.00102016
0.000851359
0.000693668
0.000551026
0.000419054
0.000302794
0.000217439
0.000131965
5.66422e-05
1.91483e-08
2.70056e-05
2.25804e-05
0.00242563
0.0204179
0.0421446
0.0603677
0.0248467
0.00441377
0.0497373
0.788195
4.20083
11.9316
21.1373
26.1706
25.362
21.9981
16.9818
18.8098
0.00222273
0.00215146
0.00204268
0.00191518
0.00175913
0.00156229
0.00134875
0.00114156
0.000939837
0.000741688
0.000564076
0.000420544
0.000311055
0.000229587
0.000170301
0.00012742
9.67964e-05
7.49386e-05
5.94241e-05
4.8119e-05
3.98094e-05
3.34295e-05
2.81699e-05
2.30968e-05
1.83909e-05
1.4897e-05
1.24935e-05
1.09582e-05
8.88573e-06
7.43049e-06
2.87947e-06
1.45219e-06
2.34026e-05
1.43249e-05
8.69487e-05
0.00100115
0.00547433
0.0203532
0.148763
0.00128693
0.0012817
0.0012611
0.00122512
0.00117125
0.00110021
0.00101724
0.000925266
0.000828811
0.000734612
0.000646132
0.000566394
0.00049773
0.000441237
0.000396337
0.000361858
0.000328679
0.00029105
0.000251536
0.000213761
0.000114059
3.2814e-05
7.5114e-14
2.53021e-08
1.57733e-12
0
0
0.0151728
0.0241989
1.36912e-05
0.00627605
0.0254347
0.00993349
0.512748
3.48751
9.26067
14.4159
15.5682
18.2936
0.00128002
0.0012619
0.00122627
0.00117017
0.00109236
0.000987741
0.000870804
0.000754051
0.000637441
0.000520585
0.00041209
0.000318406
0.000241259
0.000179671
0.000132072
9.62898e-05
7.00636e-05
5.1246e-05
3.79917e-05
2.86803e-05
2.21456e-05
1.74667e-05
1.39664e-05
1.09956e-05
8.33017e-06
6.19133e-06
4.72891e-06
3.84226e-06
3.51505e-06
2.96894e-06
4.65831e-06
1.1529e-07
1.06226e-05
6.73806e-19
0.000118104
0.000196702
5.94625e-05
0.000264385
0.0159838
0.000861053
0.000868086
0.000867119
0.000860458
0.000843454
0.000816347
0.000780772
0.00073611
0.000684093
0.000627008
0.000566278
0.000504144
0.00044278
0.000383738
0.000328393
0.000276416
0.00022503
0.000177063
0.000136784
0.000105384
8.35948e-05
6.26165e-05
3.11292e-05
9.28715e-06
5.0337e-10
1.5928e-08
5.62205e-09
1.87148e-11
0
4.72744e-09
0.000486212
0.010637
0.049288
0.0284908
0.0199552
0.322178
3.16349
8.82362
15.2499
0.00084578
0.000825005
0.000795178
0.000756077
0.000706319
0.000644293
0.000577528
0.000509493
0.000439422
0.000368373
0.000300913
0.000240648
0.000189266
0.000146877
0.000112968
8.66038e-05
6.6551e-05
5.15514e-05
4.04586e-05
3.22516e-05
2.61201e-05
2.13921e-05
1.75391e-05
1.40708e-05
1.08538e-05
8.16726e-06
6.13179e-06
4.65131e-06
3.56731e-06
2.77174e-06
2.1748e-06
1.64317e-06
1.07891e-06
3.69908e-07
9.78256e-10
7.20546e-11
7.50975e-06
5.408e-05
0.00119545
0.000564135
0.000568917
0.000569583
0.000566479
0.000557437
0.000541998
0.000520773
0.000493555
0.000461089
0.00042483
0.000385973
0.000346006
0.000306523
0.000268801
0.000233851
0.000202471
0.000175898
0.000153185
0.000132001
0.000111543
9.30358e-05
7.84885e-05
6.53401e-05
5.03762e-05
2.9584e-05
1.1463e-05
3.5231e-06
8.82487e-09
6.73054e-09
4.48213e-10
0
0
0
0.00462794
0.0302652
0.0291472
0.0472539
1.93957
9.02696
0.000554944
0.000542742
0.000525211
0.000501167
0.000470314
0.000432823
0.000393132
0.000351744
0.000308426
0.000264456
0.000221949
0.000182774
0.000148043
0.000118135
9.31165e-05
7.27592e-05
5.65668e-05
4.39516e-05
3.42885e-05
2.69405e-05
2.13556e-05
1.70469e-05
1.36038e-05
1.0659e-05
8.06124e-06
5.92753e-06
4.32136e-06
3.16766e-06
2.34541e-06
1.77072e-06
1.3955e-06
1.17962e-06
1.04557e-06
8.96561e-07
7.58439e-07
1.30192e-07
7.36131e-10
1.81393e-12
3.44236e-05
0.000386935
0.000392112
0.000395182
0.000396295
0.000394112
0.000388196
0.000378863
0.000365619
0.000348653
0.0003286
0.000305754
0.000280896
0.000254844
0.000228321
0.000202068
0.000176807
0.00015261
0.000128878
0.000106667
8.72839e-05
7.14449e-05
5.92898e-05
5.08398e-05
4.39688e-05
3.78647e-05
2.86892e-05
1.98435e-05
1.06233e-05
4.22245e-06
3.10761e-07
6.45371e-09
2.29298e-10
0
0
0
0.00615593
0.0103897
0.0818757
3.02982
0.000379139
0.000369935
0.000357745
0.00034151
0.00032144
0.000297845
0.000273276
0.000247299
0.000219901
0.000192096
0.00016481
0.000139095
0.000115639
9.47834e-05
7.67456e-05
6.1583e-05
4.9124e-05
3.91188e-05
3.12274e-05
2.50603e-05
2.0238e-05
1.64141e-05
1.32807e-05
1.05673e-05
8.16017e-06
6.14502e-06
4.57647e-06
3.40025e-06
2.5182e-06
1.85597e-06
1.36627e-06
1.00527e-06
7.37934e-07
5.43165e-07
4.23117e-07
3.22265e-07
1.45547e-07
1.07296e-09
3.68078e-07
0.000269136
0.000273345
0.000276438
0.000278321
0.000278269
0.000275902
0.000271298
0.000264046
0.000254182
0.000241945
0.000227492
0.000211248
0.00019373
0.000175442
0.000156987
0.000138832
0.000121443
0.000105466
9.09774e-05
7.78183e-05
6.60408e-05
5.58563e-05
4.74626e-05
4.02324e-05
3.36881e-05
2.73012e-05
2.12607e-05
1.67596e-05
1.25857e-05
7.96325e-06
4.00085e-06
2.19297e-07
3.52589e-09
1.59003e-17
0
0
0.00145106
0.0108653
0.49238
0.000263399
0.000256918
0.000248664
0.000237622
0.000224359
0.000209189
0.000193435
0.00017666
0.000158986
0.000141054
0.000123294
0.000106256
9.03439e-05
7.57943e-05
6.2807e-05
5.15078e-05
4.19014e-05
3.39079e-05
2.73803e-05
2.21162e-05
1.78888e-05
1.44676e-05
1.16361e-05
9.20736e-06
7.0925e-06
5.32857e-06
3.95069e-06
2.91716e-06
2.1487e-06
1.58027e-06
1.16814e-06
8.80377e-07
6.8759e-07
5.65753e-07
4.99129e-07
5.03271e-07
5.6598e-07
5.77415e-07
3.46615e-10
0.000191118
0.000194616
0.000197565
0.000199822
0.000200916
0.000200647
0.000198977
0.000195585
0.000190448
0.00018363
0.000175128
0.000165145
0.000153944
0.000141803
0.000129071
0.000116072
0.000103197
9.05704e-05
7.82897e-05
6.68448e-05
5.67286e-05
4.81701e-05
4.11071e-05
3.50067e-05
2.91322e-05
2.33714e-05
1.81683e-05
1.42593e-05
1.16145e-05
9.78202e-06
8.25026e-06
5.188e-06
2.11814e-06
1.48056e-14
8.69328e-12
0
0
0.00281764
0.0558488
0.00018669
0.000181939
0.000176124
0.000168408
0.000159412
0.00014945
0.000139043
0.000127945
0.000116349
0.000104579
9.2848e-05
8.14581e-05
7.0614e-05
6.04565e-05
5.11526e-05
4.28246e-05
3.55241e-05
2.92685e-05
2.40054e-05
1.96408e-05
1.60472e-05
1.30766e-05
1.05821e-05
8.43626e-06
6.56916e-06
5.00121e-06
3.75681e-06
2.80546e-06
2.08482e-06
1.54068e-06
1.13553e-06
8.39223e-07
6.2512e-07
4.77809e-07
3.80823e-07
3.58871e-07
3.39307e-07
9.06011e-07
1.1788e-07
0.000137689
0.000140487
0.000143023
0.000145152
0.000146562
0.000147148
0.000146811
0.000145355
0.000142691
0.000138835
0.000133727
0.000127454
0.000120143
0.000111944
0.000103088
9.3819e-05
8.43677e-05
7.5023e-05
6.60256e-05
5.75534e-05
4.98208e-05
4.29454e-05
3.69496e-05
3.16021e-05
2.6444e-05
2.13195e-05
1.66083e-05
1.2817e-05
1.01307e-05
8.33164e-06
7.1958e-06
6.37083e-06
5.5197e-06
2.93621e-06
7.60712e-09
9.77676e-12
0
0.000153783
0.0127015
0.000134313
0.000130818
0.000126683
0.000121221
0.000115003
0.000108317
0.000101279
9.37887e-05
8.60513e-05
7.82137e-05
7.03612e-05
6.26669e-05
5.52396e-05
4.81517e-05
4.15028e-05
3.53932e-05
2.98842e-05
2.50187e-05
2.08055e-05
1.72108e-05
1.41704e-05
1.16016e-05
9.41308e-06
7.52192e-06
5.88165e-06
4.50164e-06
3.39561e-06
2.54137e-06
1.89075e-06
1.39912e-06
1.03391e-06
7.69408e-07
5.83353e-07
4.59663e-07
3.81543e-07
3.68529e-07
3.54939e-07
6.88355e-07
1.01086e-06
0.00010054
0.000102777
0.0001049
0.000106783
0.000108238
0.000109186
0.000109552
0.000109175
0.000107987
0.000105971
0.000103053
9.92583e-05
9.46357e-05
8.92593e-05
8.32528e-05
7.67655e-05
6.9964e-05
6.30654e-05
5.61647e-05
4.94332e-05
4.31472e-05
3.74865e-05
3.24759e-05
2.79538e-05
2.36121e-05
1.9309e-05
1.52898e-05
1.19374e-05
9.40906e-06
7.57798e-06
6.26115e-06
5.39877e-06
4.84898e-06
4.97998e-06
3.24699e-06
4.70344e-09
3.95774e-16
5.10293e-05
0.00425376
9.79533e-05
9.53316e-05
9.23382e-05
8.84286e-05
8.40617e-05
7.94618e-05
7.46163e-05
6.94845e-05
6.42393e-05
5.89371e-05
5.36208e-05
4.838e-05
4.32652e-05
3.83014e-05
3.35586e-05
2.91007e-05
2.4975e-05
2.12326e-05
1.78982e-05
1.49776e-05
1.24485e-05
1.02673e-05
8.37855e-06
6.73264e-06
5.304e-06
4.09578e-06
3.11644e-06
2.34983e-06
1.75932e-06
1.30873e-06
9.70162e-07
7.21421e-07
5.42379e-07
4.19477e-07
3.39898e-07
3.16857e-07
3.13964e-07
4.98404e-07
1.22517e-06
7.42426e-05
7.60184e-05
7.77573e-05
7.93568e-05
8.06934e-05
8.17173e-05
8.23771e-05
8.25421e-05
8.21561e-05
8.11936e-05
7.95833e-05
7.73239e-05
7.44228e-05
7.09024e-05
6.6836e-05
6.23133e-05
5.74398e-05
5.23732e-05
4.72311e-05
4.21385e-05
3.72602e-05
3.27407e-05
2.86114e-05
2.47913e-05
2.11032e-05
1.74628e-05
1.40411e-05
1.11317e-05
8.87035e-06
7.17224e-06
5.87558e-06
4.90919e-06
4.19371e-06
3.89347e-06
4.42182e-06
2.57767e-06
1.2279e-09
2.82448e-06
0.00123441
7.22597e-05
7.02762e-05
6.80739e-05
6.52448e-05
6.21388e-05
5.89115e-05
5.55208e-05
5.19541e-05
4.83461e-05
4.47161e-05
4.10768e-05
3.74724e-05
3.39266e-05
3.04468e-05
2.70616e-05
2.38157e-05
2.07442e-05
1.78887e-05
1.52781e-05
1.29306e-05
1.0847e-05
9.01061e-06
7.39456e-06
5.97397e-06
4.73583e-06
3.68334e-06
2.82122e-06
2.13835e-06
1.60738e-06
1.19943e-06
8.91248e-07
6.64071e-07
5.00827e-07
3.8906e-07
3.17105e-07
2.93744e-07
2.92967e-07
4.21314e-07
1.03364e-06
5.53711e-05
5.67742e-05
5.81843e-05
5.95151e-05
6.06858e-05
6.16713e-05
6.24219e-05
6.28432e-05
6.28953e-05
6.2545e-05
6.17377e-05
6.0452e-05
5.86855e-05
5.64383e-05
5.37398e-05
5.06382e-05
4.7197e-05
4.35241e-05
3.97104e-05
3.58302e-05
3.20089e-05
2.83921e-05
2.50176e-05
2.18412e-05
1.87527e-05
1.56998e-05
1.28071e-05
1.03006e-05
8.30674e-06
6.77787e-06
5.59225e-06
4.67018e-06
3.95603e-06
3.43308e-06
3.23946e-06
4.56733e-06
4.44981e-07
1.59854e-09
0.000180802
5.38379e-05
5.23319e-05
5.06876e-05
4.86182e-05
4.63834e-05
4.40807e-05
4.16667e-05
3.91614e-05
3.66462e-05
3.41293e-05
3.16103e-05
2.91132e-05
2.66421e-05
2.41907e-05
2.17764e-05
1.94195e-05
1.7142e-05
1.49771e-05
1.29511e-05
1.10843e-05
9.3866e-06
7.85875e-06
6.49194e-06
5.27856e-06
4.21464e-06
3.30358e-06
2.5496e-06
1.94502e-06
1.46985e-06
1.1016e-06
8.21114e-07
6.12608e-07
4.61198e-07
3.56082e-07
2.87176e-07
2.61861e-07
2.58074e-07
3.59746e-07
8.32814e-07
4.16553e-05
4.27602e-05
4.38978e-05
4.49866e-05
4.59822e-05
4.68726e-05
4.76072e-05
4.8125e-05
4.8395e-05
4.83848e-05
4.80524e-05
4.73765e-05
4.63397e-05
4.49324e-05
4.31617e-05
4.10546e-05
3.86502e-05
3.6008e-05
3.321e-05
3.03049e-05
2.73668e-05
2.45171e-05
2.17955e-05
1.91823e-05
1.66164e-05
1.40695e-05
1.16336e-05
9.48251e-06
7.73071e-06
6.36065e-06
5.28702e-06
4.44405e-06
3.78541e-06
3.30492e-06
2.82527e-06
3.31165e-06
3.52579e-06
5.18844e-13
1.71353e-05
4.04626e-05
3.93119e-05
3.8073e-05
3.65412e-05
3.49158e-05
3.32483e-05
3.15091e-05
2.97267e-05
2.79536e-05
2.61888e-05
2.44291e-05
2.26826e-05
2.09484e-05
1.92165e-05
1.74902e-05
1.57816e-05
1.41009e-05
1.24689e-05
1.09067e-05
9.43401e-06
8.06564e-06
6.80927e-06
5.66588e-06
4.63678e-06
3.72732e-06
2.9434e-06
2.28805e-06
1.75618e-06
1.33367e-06
1.0034e-06
7.49893e-07
5.60137e-07
4.21545e-07
3.24738e-07
2.60641e-07
2.35062e-07
2.28982e-07
3.07164e-07
6.74633e-07
3.15742e-05
3.24467e-05
3.33592e-05
3.42432e-05
3.50779e-05
3.58515e-05
3.65264e-05
3.70573e-05
3.74213e-05
3.75921e-05
3.75346e-05
3.7228e-05
3.66571e-05
3.58049e-05
3.46743e-05
3.32703e-05
3.16141e-05
2.97376e-05
2.77057e-05
2.55444e-05
2.33017e-05
2.10709e-05
1.88951e-05
1.67701e-05
1.46598e-05
1.25518e-05
1.05157e-05
8.68448e-06
7.15716e-06
5.93692e-06
4.96722e-06
4.19873e-06
3.59646e-06
3.15451e-06
2.80386e-06
2.40834e-06
4.79985e-06
1.35257e-09
0
3.06465e-05
2.97577e-05
2.88177e-05
2.7673e-05
2.64786e-05
2.52551e-05
2.39868e-05
2.27049e-05
2.14405e-05
2.01901e-05
1.89482e-05
1.77187e-05
1.64951e-05
1.52649e-05
1.40291e-05
1.27887e-05
1.15505e-05
1.03259e-05
9.13e-06
7.97829e-06
6.88494e-06
5.86112e-06
4.91336e-06
4.04986e-06
3.27935e-06
2.60936e-06
2.04318e-06
1.57822e-06
1.20479e-06
9.10152e-07
6.82101e-07
5.10023e-07
3.83295e-07
2.93875e-07
2.33831e-07
2.07767e-07
1.9992e-07
2.58887e-07
5.4591e-07
2.40925e-05
2.47833e-05
2.55117e-05
2.62281e-05
2.69188e-05
2.75764e-05
2.81726e-05
2.86739e-05
2.90601e-05
2.93136e-05
2.94063e-05
2.93205e-05
2.90439e-05
2.8558e-05
2.78569e-05
2.69397e-05
2.5815e-05
2.44998e-05
2.30379e-05
2.14486e-05
1.97589e-05
1.80325e-05
1.63122e-05
1.4603e-05
1.28847e-05
1.1153e-05
9.46247e-06
7.91466e-06
6.59365e-06
5.51529e-06
4.64492e-06
3.94604e-06
3.39679e-06
2.97102e-06
2.73759e-06
2.17979e-06
3.78267e-06
4.06405e-07
4.15716e-11
2.33705e-05
2.26804e-05
2.19598e-05
2.1098e-05
2.02111e-05
1.9303e-05
1.83688e-05
1.74376e-05
1.65266e-05
1.56315e-05
1.47475e-05
1.38737e-05
1.30036e-05
1.21268e-05
1.12388e-05
1.0339e-05
9.42782e-06
8.51263e-06
7.60188e-06
6.70767e-06
5.84169e-06
5.01459e-06
4.23587e-06
3.51683e-06
2.86884e-06
2.29964e-06
1.81363e-06
1.40979e-06
1.08179e-06
8.20503e-07
6.16509e-07
4.61306e-07
3.46118e-07
2.6412e-07
2.08371e-07
1.82361e-07
1.7326e-07
2.167e-07
4.39036e-07
1.84928e-05
1.90397e-05
1.96204e-05
2.02004e-05
2.07661e-05
2.13189e-05
2.18321e-05
2.2283e-05
2.26565e-05
2.29388e-05
2.31074e-05
2.31502e-05
2.30523e-05
2.27994e-05
2.23842e-05
2.18015e-05
2.10536e-05
2.01463e-05
1.91072e-05
1.79517e-05
1.66929e-05
1.53696e-05
1.40238e-05
1.26642e-05
1.12788e-05
9.86831e-06
8.47501e-06
7.17687e-06
6.04398e-06
5.09904e-06
4.32396e-06
3.69276e-06
3.19231e-06
2.79384e-06
2.56977e-06
2.1926e-06
2.62613e-06
2.13371e-06
9.98047e-09
1.79284e-05
1.73901e-05
1.68341e-05
1.61804e-05
1.55154e-05
1.48346e-05
1.41409e-05
1.34572e-05
1.27942e-05
1.21471e-05
1.1512e-05
1.08867e-05
1.02643e-05
9.63524e-06
8.99526e-06
8.34106e-06
7.67096e-06
6.98836e-06
6.29802e-06
5.60753e-06
4.92667e-06
4.26503e-06
3.63153e-06
3.03733e-06
2.49524e-06
2.01499e-06
1.6006e-06
1.25215e-06
9.65878e-07
7.35532e-07
5.54043e-07
4.14737e-07
3.10471e-07
2.35532e-07
1.83911e-07
1.5823e-07
1.48286e-07
1.79859e-07
3.50484e-07
1.42694e-05
1.47017e-05
1.51665e-05
1.56332e-05
1.60964e-05
1.65554e-05
1.69917e-05
1.73851e-05
1.77278e-05
1.80071e-05
1.82065e-05
1.83151e-05
1.83231e-05
1.82168e-05
1.79904e-05
1.76354e-05
1.71503e-05
1.65372e-05
1.58085e-05
1.49788e-05
1.40518e-05
1.30489e-05
1.20081e-05
1.09386e-05
9.83307e-06
8.69392e-06
7.55439e-06
6.47433e-06
5.51122e-06
4.69052e-06
4.00581e-06
3.44075e-06
2.98549e-06
2.62473e-06
2.37676e-06
2.17497e-06
2.03925e-06
2.68753e-06
4.61748e-07
1.38264e-05
1.34045e-05
1.29728e-05
1.24742e-05
1.19704e-05
1.14563e-05
1.09366e-05
1.04304e-05
9.94302e-06
9.47122e-06
9.011e-06
8.55949e-06
8.11108e-06
7.65733e-06
7.19389e-06
6.7173e-06
6.22437e-06
5.71582e-06
5.19424e-06
4.66445e-06
4.13249e-06
3.60621e-06
3.09406e-06
2.60739e-06
2.15822e-06
1.7557e-06
1.40445e-06
1.10559e-06
8.5724e-07
6.55337e-07
4.94755e-07
3.70363e-07
2.76457e-07
2.08319e-07
1.60788e-07
1.35797e-07
1.25382e-07
1.47913e-07
2.77627e-07
1.10616e-05
1.14041e-05
1.17758e-05
1.21518e-05
1.25291e-05
1.29086e-05
1.3274e-05
1.36123e-05
1.3916e-05
1.4176e-05
1.43799e-05
1.45197e-05
1.4587e-05
1.45717e-05
1.4466e-05
1.42636e-05
1.39601e-05
1.35548e-05
1.30514e-05
1.24634e-05
1.17895e-05
1.10393e-05
1.02428e-05
9.41037e-06
8.53715e-06
7.62571e-06
6.70151e-06
5.81035e-06
4.99877e-06
4.29237e-06
3.69241e-06
3.19069e-06
2.77896e-06
2.45501e-06
2.20034e-06
2.06803e-06
1.81757e-06
2.26583e-06
1.42349e-06
1.07132e-05
1.03814e-05
1.00446e-05
9.66232e-06
9.27679e-06
8.8857e-06
8.49348e-06
8.1149e-06
7.7536e-06
7.40643e-06
7.07002e-06
6.7416e-06
6.41603e-06
6.087e-06
5.75003e-06
5.40155e-06
5.03851e-06
4.66012e-06
4.26679e-06
3.86143e-06
3.44842e-06
3.0331e-06
2.62222e-06
2.22617e-06
1.85624e-06
1.52089e-06
1.225e-06
9.70315e-07
7.56228e-07
5.80314e-07
4.39031e-07
3.28524e-07
2.44374e-07
1.82704e-07
1.39153e-07
1.15125e-07
1.04555e-07
1.20455e-07
2.18421e-07
8.6104e-06
8.88261e-06
9.1796e-06
9.48249e-06
9.78925e-06
1.01014e-05
1.04053e-05
1.0692e-05
1.09557e-05
1.11892e-05
1.13835e-05
1.15323e-05
1.16289e-05
1.16653e-05
1.16353e-05
1.15329e-05
1.13529e-05
1.10932e-05
1.07538e-05
1.03449e-05
9.86179e-06
9.3078e-06
8.70541e-06
8.06469e-06
7.38224e-06
6.65962e-06
5.91635e-06
5.18721e-06
4.50948e-06
3.90706e-06
3.38594e-06
2.94381e-06
2.57463e-06
2.28235e-06
2.04086e-06
1.91289e-06
1.71197e-06
1.80178e-06
1.78957e-06
8.33589e-06
8.07407e-06
7.81046e-06
7.51549e-06
7.21842e-06
6.9186e-06
6.62049e-06
6.33535e-06
6.06521e-06
5.80752e-06
5.55919e-06
5.31802e-06
5.08012e-06
4.83989e-06
4.59372e-06
4.33804e-06
4.06995e-06
3.78828e-06
3.49242e-06
3.18343e-06
2.86377e-06
2.53777e-06
2.21059e-06
1.89054e-06
1.58748e-06
1.3098e-06
1.06215e-06
8.46482e-07
6.63053e-07
5.10667e-07
3.87037e-07
2.89365e-07
2.14348e-07
1.58801e-07
1.1913e-07
9.63239e-08
8.58705e-08
9.69569e-08
1.70529e-07
6.72704e-06
6.94356e-06
7.18165e-06
7.4252e-06
7.67468e-06
7.93031e-06
8.18177e-06
8.42256e-06
8.64801e-06
8.85281e-06
9.02984e-06
9.17475e-06
9.28253e-06
9.34646e-06
9.36239e-06
9.32392e-06
9.227e-06
9.06869e-06
8.84643e-06
8.5669e-06
8.22568e-06
7.82263e-06
7.3728e-06
6.88506e-06
6.35763e-06
5.79052e-06
5.19803e-06
4.60668e-06
4.04588e-06
3.53684e-06
3.08829e-06
2.70168e-06
2.37381e-06
2.10952e-06
1.88911e-06
1.75082e-06
1.60696e-06
1.50992e-06
1.65813e-06
6.51066e-06
6.30319e-06
6.09602e-06
5.86719e-06
5.63704e-06
5.40587e-06
5.17775e-06
4.96123e-06
4.75752e-06
4.56437e-06
4.37988e-06
4.20158e-06
4.02618e-06
3.84947e-06
3.6684e-06
3.48016e-06
3.28179e-06
3.07175e-06
2.84914e-06
2.61411e-06
2.36797e-06
2.11319e-06
1.85379e-06
1.59659e-06
1.35017e-06
1.12174e-06
9.15633e-07
7.3405e-07
5.77781e-07
4.46511e-07
3.3891e-07
2.53048e-07
1.86502e-07
1.36719e-07
1.00797e-07
7.94204e-08
6.93474e-08
7.70482e-08
1.32131e-07
5.273e-06
5.44563e-06
5.63638e-06
5.83252e-06
6.03517e-06
6.24392e-06
6.45134e-06
6.65183e-06
6.84269e-06
7.0192e-06
7.17652e-06
7.31105e-06
7.41919e-06
7.4956e-06
7.5368e-06
7.53802e-06
7.49527e-06
7.40554e-06
7.26564e-06
7.07923e-06
6.84303e-06
6.55478e-06
6.22334e-06
5.85667e-06
5.45361e-06
5.01301e-06
4.54504e-06
4.06978e-06
3.61001e-06
3.18396e-06
2.80132e-06
2.46589e-06
2.17709e-06
1.93917e-06
1.74011e-06
1.59751e-06
1.48091e-06
1.32942e-06
1.41153e-06
5.10208e-06
4.93747e-06
4.77403e-06
4.59556e-06
4.41628e-06
4.23718e-06
4.06134e-06
3.89586e-06
3.74108e-06
3.59523e-06
3.45667e-06
3.32366e-06
3.19335e-06
3.06263e-06
2.92886e-06
2.78939e-06
2.64202e-06
2.48523e-06
2.31769e-06
2.13906e-06
1.94993e-06
1.7517e-06
1.54712e-06
1.34164e-06
1.14229e-06
9.55419e-07
7.84767e-07
6.32729e-07
5.00368e-07
3.87934e-07
2.94793e-07
2.19699e-07
1.60951e-07
1.16557e-07
8.42333e-08
6.44381e-08
5.49335e-08
6.034e-08
1.01632e-07
4.14561e-06
4.28337e-06
4.4363e-06
4.59458e-06
4.75868e-06
4.92903e-06
5.09937e-06
5.26571e-06
5.42562e-06
5.57608e-06
5.71291e-06
5.83395e-06
5.93588e-06
6.01537e-06
6.06932e-06
6.09377e-06
6.08557e-06
6.04155e-06
5.95896e-06
5.83901e-06
5.67946e-06
5.47743e-06
5.23679e-06
4.96485e-06
4.66026e-06
4.32142e-06
3.95534e-06
3.57691e-06
3.20343e-06
2.85024e-06
2.52679e-06
2.23829e-06
1.98574e-06
1.77316e-06
1.59336e-06
1.45412e-06
1.34487e-06
1.1926e-06
1.19385e-06
4.01002e-06
3.87959e-06
3.7501e-06
3.61035e-06
3.4701e-06
3.33058e-06
3.19432e-06
3.06681e-06
2.94828e-06
2.83723e-06
2.73252e-06
2.63255e-06
2.53507e-06
2.43747e-06
2.33777e-06
2.23399e-06
2.12415e-06
2.00677e-06
1.88056e-06
1.74494e-06
1.59994e-06
1.44619e-06
1.2855e-06
1.12201e-06
9.61476e-07
8.09235e-07
6.68816e-07
5.42201e-07
4.30702e-07
3.34925e-07
2.54718e-07
1.89369e-07
1.37767e-07
9.83857e-08
6.94779e-08
5.1363e-08
4.25795e-08
4.64542e-08
7.75483e-08
3.26798e-06
3.37806e-06
3.50074e-06
3.62857e-06
3.76143e-06
3.90024e-06
4.03978e-06
4.17709e-06
4.31054e-06
4.43744e-06
4.55501e-06
4.66142e-06
4.7543e-06
4.83119e-06
4.88942e-06
4.92636e-06
4.93902e-06
4.92474e-06
4.88111e-06
4.80754e-06
4.70348e-06
4.56484e-06
4.39295e-06
4.19398e-06
3.96696e-06
3.70948e-06
3.4261e-06
3.12765e-06
2.8272e-06
2.5371e-06
2.26623e-06
2.02018e-06
1.80099e-06
1.61267e-06
1.4504e-06
1.31884e-06
1.21086e-06
1.06957e-06
1.01951e-06
3.16021e-06
3.05665e-06
2.95378e-06
2.84398e-06
2.73383e-06
2.62456e-06
2.5185e-06
2.41973e-06
2.32829e-06
2.24312e-06
2.16327e-06
2.08739e-06
2.01375e-06
1.94049e-06
1.86585e-06
1.78812e-06
1.70582e-06
1.61766e-06
1.52247e-06
1.4194e-06
1.30827e-06
1.18927e-06
1.06351e-06
9.34013e-07
8.05408e-07
6.81982e-07
5.6694e-07
4.62011e-07
3.68569e-07
2.87378e-07
2.18652e-07
1.62072e-07
1.16967e-07
8.22168e-08
5.65248e-08
4.01358e-08
3.21714e-08
3.50877e-08
5.87375e-08
2.58225e-06
2.67046e-06
2.76897e-06
2.87207e-06
2.97971e-06
3.0926e-06
3.20673e-06
3.31966e-06
3.43052e-06
3.53685e-06
3.63682e-06
3.72887e-06
3.81152e-06
3.88253e-06
3.94026e-06
3.98257e-06
4.00699e-06
4.01133e-06
3.99341e-06
3.95196e-06
3.887e-06
3.79481e-06
3.67453e-06
3.53145e-06
3.36444e-06
3.17096e-06
2.95378e-06
2.72068e-06
2.48142e-06
2.24552e-06
2.02076e-06
1.81272e-06
1.62405e-06
1.45827e-06
1.31268e-06
1.19019e-06
1.0842e-06
9.53319e-07
8.76448e-07
2.49661e-06
2.41419e-06
2.33225e-06
2.24572e-06
2.1589e-06
2.07296e-06
1.99004e-06
1.91302e-06
1.84207e-06
1.77626e-06
1.71494e-06
1.65694e-06
1.60091e-06
1.54539e-06
1.48908e-06
1.43059e-06
1.36864e-06
1.30212e-06
1.23013e-06
1.15181e-06
1.0667e-06
9.74678e-07
8.76393e-07
7.74101e-07
6.71406e-07
5.71871e-07
4.78016e-07
3.91501e-07
3.13575e-07
2.45093e-07
1.86506e-07
1.37761e-07
9.85185e-08
6.80207e-08
4.53389e-08
3.06762e-08
2.35834e-08
2.59189e-08
4.41532e-08
2.04481e-06
2.11555e-06
2.19478e-06
2.2779e-06
2.36506e-06
2.45684e-06
2.54995e-06
2.64275e-06
2.73437e-06
2.82307e-06
2.9073e-06
2.98606e-06
3.05819e-06
3.12206e-06
3.17649e-06
3.21967e-06
3.24974e-06
3.26503e-06
3.26353e-06
3.24391e-06
3.20612e-06
3.14708e-06
3.06517e-06
2.96409e-06
2.84306e-06
2.6995e-06
2.53492e-06
2.35472e-06
2.16599e-06
1.97606e-06
1.79133e-06
1.61691e-06
1.45581e-06
1.31111e-06
1.18116e-06
1.06828e-06
9.66446e-07
8.44543e-07
7.55126e-07
1.97666e-06
1.91102e-06
1.84565e-06
1.77717e-06
1.70856e-06
1.64072e-06
1.57558e-06
1.5153e-06
1.45991e-06
1.40871e-06
1.36122e-06
1.31655e-06
1.27362e-06
1.23127e-06
1.18843e-06
1.1441e-06
1.09723e-06
1.04695e-06
9.92315e-07
9.32631e-07
8.67426e-07
7.96381e-07
7.19732e-07
6.39176e-07
5.57434e-07
4.77399e-07
4.01142e-07
3.30087e-07
2.65369e-07
2.07881e-07
1.58156e-07
1.16354e-07
8.23771e-08
5.57522e-08
3.58539e-08
2.28736e-08
1.66637e-08
1.86631e-08
3.29683e-08
1.62241e-06
1.67914e-06
1.74295e-06
1.80994e-06
1.88053e-06
1.95513e-06
2.03097e-06
2.10708e-06
2.18251e-06
2.25618e-06
2.32671e-06
2.39348e-06
2.4555e-06
2.51181e-06
2.56131e-06
2.6027e-06
2.6347e-06
2.65568e-06
2.66428e-06
2.65898e-06
2.63983e-06
2.60411e-06
2.55014e-06
2.48022e-06
2.39397e-06
2.289e-06
2.1657e-06
2.02786e-06
1.88045e-06
1.72894e-06
1.57856e-06
1.43368e-06
1.29704e-06
1.17181e-06
1.05667e-06
9.53613e-07
8.57451e-07
7.4447e-07
6.50726e-07
1.56801e-06
1.5157e-06
1.46352e-06
1.40918e-06
1.35483e-06
1.30117e-06
1.24975e-06
1.20233e-06
1.15885e-06
1.11878e-06
1.08175e-06
1.04708e-06
1.0139e-06
9.81386e-07
9.48637e-07
9.14838e-07
8.79182e-07
8.4093e-07
7.99352e-07
7.53796e-07
7.03754e-07
6.48888e-07
5.89197e-07
5.25863e-07
4.60985e-07
3.96826e-07
3.3508e-07
2.76955e-07
2.23445e-07
1.754e-07
1.33392e-07
9.77134e-08
6.84412e-08
4.53199e-08
2.79716e-08
1.65928e-08
1.124e-08
1.30464e-08
2.44774e-08
1.2895e-06
1.33508e-06
1.38641e-06
1.44049e-06
1.49761e-06
1.55814e-06
1.61994e-06
1.68217e-06
1.74415e-06
1.80504e-06
1.86382e-06
1.91997e-06
1.97289e-06
2.02175e-06
2.06577e-06
2.10404e-06
2.13545e-06
2.15881e-06
2.17302e-06
2.17672e-06
2.16985e-06
2.15029e-06
2.11623e-06
2.06935e-06
2.00907e-06
1.93333e-06
1.84209e-06
1.73779e-06
1.62382e-06
1.50413e-06
1.38279e-06
1.26348e-06
1.14865e-06
1.04088e-06
9.39776e-07
8.46365e-07
7.56903e-07
6.5321e-07
5.60286e-07
1.246e-06
1.20433e-06
1.16264e-06
1.11938e-06
1.07623e-06
1.0337e-06
9.92979e-07
9.55522e-07
9.21226e-07
8.89707e-07
8.6068e-07
8.33581e-07
8.07773e-07
7.82585e-07
7.57376e-07
7.31452e-07
7.04179e-07
6.74965e-07
6.43203e-07
6.08336e-07
5.69909e-07
5.27505e-07
4.81029e-07
4.31295e-07
3.79873e-07
3.28597e-07
2.78763e-07
2.31386e-07
1.87317e-07
1.47323e-07
1.11992e-07
8.16739e-08
5.65714e-08
3.65958e-08
2.15638e-08
1.16806e-08
7.13262e-09
8.82101e-09
1.81141e-08
1.02649e-06
1.06317e-06
1.10446e-06
1.14812e-06
1.19436e-06
1.24343e-06
1.29374e-06
1.34454e-06
1.39539e-06
1.44556e-06
1.49436e-06
1.54134e-06
1.58608e-06
1.62793e-06
1.66643e-06
1.70075e-06
1.73022e-06
1.75386e-06
1.77075e-06
1.7797e-06
1.78069e-06
1.77198e-06
1.75197e-06
1.72163e-06
1.6805e-06
1.62681e-06
1.5602e-06
1.48212e-06
1.39487e-06
1.30122e-06
1.20419e-06
1.1067e-06
1.01094e-06
9.19005e-07
8.30789e-07
7.4703e-07
6.64868e-07
5.70779e-07
4.82023e-07
9.91709e-07
9.58461e-07
9.25153e-07
8.90632e-07
8.56327e-07
8.22531e-07
7.90203e-07
7.60501e-07
7.33349e-07
7.08418e-07
6.85517e-07
6.64246e-07
6.44057e-07
6.24416e-07
6.04862e-07
5.84844e-07
5.63875e-07
5.41481e-07
5.17136e-07
4.90368e-07
4.60787e-07
4.27981e-07
3.9179e-07
3.52777e-07
3.1212e-07
2.712e-07
2.31094e-07
1.92592e-07
1.56426e-07
1.23265e-07
9.36722e-08
6.80272e-08
4.66005e-08
2.94356e-08
1.64877e-08
7.97364e-09
4.15718e-09
5.75387e-09
1.3418e-08
8.18307e-07
8.47798e-07
8.81049e-07
9.16289e-07
9.53702e-07
9.93496e-07
1.03438e-06
1.07581e-06
1.11745e-06
1.15869e-06
1.19902e-06
1.23813e-06
1.27568e-06
1.31123e-06
1.34442e-06
1.37472e-06
1.40151e-06
1.42405e-06
1.44163e-06
1.45336e-06
1.45907e-06
1.45744e-06
1.4471e-06
1.42849e-06
1.40123e-06
1.36389e-06
1.31596e-06
1.25818e-06
1.19204e-06
1.11944e-06
1.04253e-06
9.6357e-07
8.84265e-07
8.06422e-07
7.30041e-07
6.55759e-07
5.81164e-07
4.96583e-07
4.14267e-07
7.9045e-07
7.63886e-07
7.37263e-07
7.0971e-07
6.82369e-07
6.55465e-07
6.29754e-07
6.06133e-07
5.84554e-07
5.64756e-07
5.46631e-07
5.29793e-07
5.13886e-07
4.98523e-07
4.83283e-07
4.67744e-07
4.51528e-07
4.34261e-07
4.15525e-07
3.9492e-07
3.72101e-07
3.46709e-07
3.18515e-07
2.87901e-07
2.55787e-07
2.23203e-07
1.91003e-07
1.59807e-07
1.30223e-07
1.02834e-07
7.81461e-08
5.65531e-08
3.83498e-08
2.36738e-08
1.25821e-08
5.29955e-09
2.12715e-09
3.63395e-09
1.00135e-08
6.53166e-07
6.76903e-07
7.03667e-07
7.32113e-07
7.62366e-07
7.94613e-07
8.27819e-07
8.6156e-07
8.95603e-07
9.29411e-07
9.62655e-07
9.95076e-07
1.02643e-06
1.05642e-06
1.08475e-06
1.11104e-06
1.13482e-06
1.15556e-06
1.17271e-06
1.18555e-06
1.19382e-06
1.19659e-06
1.19264e-06
1.18214e-06
1.16479e-06
1.13944e-06
1.10546e-06
1.06323e-06
1.01361e-06
9.57825e-07
8.97366e-07
8.33886e-07
7.68749e-07
7.03293e-07
6.37694e-07
5.72361e-07
5.05578e-07
4.3038e-07
3.5558e-07
6.30841e-07
6.09618e-07
5.88314e-07
5.66304e-07
5.44495e-07
5.23048e-07
5.02561e-07
4.8374e-07
4.66542e-07
4.50764e-07
4.36334e-07
4.22981e-07
4.10394e-07
3.98281e-07
3.86328e-07
3.74209e-07
3.61623e-07
3.48261e-07
3.33782e-07
3.17884e-07
3.00249e-07
2.8055e-07
2.58573e-07
2.34565e-07
2.09203e-07
1.83301e-07
1.57494e-07
1.32285e-07
1.08163e-07
8.56248e-08
6.51155e-08
4.70084e-08
3.1617e-08
1.91315e-08
9.6794e-09
3.48846e-09
8.68911e-10
2.26849e-09
7.60171e-09
5.2194e-07
5.41046e-07
5.62589e-07
5.85552e-07
6.10009e-07
6.36122e-07
6.6308e-07
6.90542e-07
7.18314e-07
7.46002e-07
7.7333e-07
8.00111e-07
8.26169e-07
8.51286e-07
8.75253e-07
8.97807e-07
9.18594e-07
9.37223e-07
9.53243e-07
9.6606e-07
9.75435e-07