/*--------------------------------*- C++ -*----------------------------------*\
| =========                 |                                                 |
| \\      /  F ield         | OpenFOAM: The Open Source CFD Toolbox           |
|  \\    /   O peration     | Version:  2206                                  |
|   \\  /    A nd           | Website:  www.openfoam.com                      |
|    \\/     M anipulation  |                                                 |
\*---------------------------------------------------------------------------*/
FoamFile
{
    version     2.0;
    format      ascii;
    arch        "LSB;label=32;scalar=64";
    class       volSymmTensorField;
    location    "150";
    object      turbulenceProperties:R;
}
// * * * * * * * * * * * * * * * * * * * * * * * * * * * * * * * * * * * * * //

dimensions      [0 2 -2 0 0 0 0];

internalField   nonuniform List<symmTensor> 
10720
(
(0.0137352 0.00283524 -1.66738e-21 0.0113958 -4.20121e-20 0.0127019)
(0.0163881 0.00337492 1.31079e-21 0.0129424 4.66711e-20 0.0147668)
(0.0199987 0.00392783 1.11447e-20 0.014578 4.72618e-20 0.0175018)
(0.0249236 0.00464547 6.05609e-20 0.0167992 4.61349e-19 0.0211383)
(0.0310023 0.00532831 -2.39792e-19 0.0191649 -9.44393e-19 0.0253977)
(0.0389642 0.00582077 -2.9331e-19 0.0218231 -5.95344e-19 0.0308671)
(0.049284 0.0060911 1.03752e-19 0.0250614 9.38476e-21 0.0377794)
(0.0621935 0.00581012 5.80587e-20 0.0289011 9.18012e-20 0.0462938)
(0.0785091 0.00462081 1.55799e-19 0.03376 -1.25849e-19 0.0571134)
(0.0990435 0.00226247 -2.45992e-20 0.0402868 -2.46802e-20 0.0708672)
(0.124907 -0.00178587 2.87472e-18 0.0492816 1.16389e-18 0.0885767)
(0.158391 -0.0080934 -6.9054e-19 0.06216 -5.30359e-19 0.112096)
(0.202152 -0.0175313 1.41299e-18 0.0806649 -2.12109e-18 0.143631)
(0.260842 -0.0316237 6.89471e-19 0.107687 1.49218e-18 0.187017)
(0.342034 -0.0528756 1.10763e-18 0.148025 -1.96373e-18 0.248522)
(0.458825 -0.0855652 3.98606e-19 0.210056 6.93475e-18 0.338963)
(0.631189 -0.137145 3.47981e-17 0.307778 1.82411e-17 0.475619)
(0.900387 -0.22196 -9.26106e-18 0.469456 1.29037e-17 0.693405)
(1.32744 -0.364369 -3.91428e-18 0.742182 -6.18938e-17 1.04706)
(2.07432 -0.623735 2.57551e-18 1.24431 -3.46714e-19 1.67739)
(3.37539 -1.09846 -6.74384e-17 2.17306 -7.47644e-17 2.80153)
(6.04577 -2.10792 1.70508e-16 4.17637 4.20466e-16 5.15276)
(11.6842 -4.34882 -1.9474e-16 8.70272 -6.64271e-16 10.265)
(25.4026 -10.084 3.69927e-16 20.586 9.92877e-17 23.1349)
(30.8539 -12.9723 -2.21182e-16 27.2786 -1.06068e-17 29.1694)
(29.6567 -13.0135 2.02959e-17 28.2564 -1.182e-15 28.9692)
(28.1031 -12.6888 2.4944e-16 28.312 -6.302e-17 28.1799)
(27.4626 -12.6525 1.8861e-16 28.8771 3.94093e-16 28.1424)
(27.1366 -12.7043 1.19701e-15 29.6044 5.15955e-16 28.353)
(26.5253 -12.5885 1.15719e-15 29.9415 4.32787e-15 28.2257)
(25.4738 -12.2333 -2.06079e-15 29.6984 -1.67092e-15 27.5901)
(24.061 -11.673 -2.30099e-15 28.9202 -2.89914e-15 26.5063)
(22.3348 -10.9297 -9.11132e-16 27.632 -3.90816e-15 25.0068)
(20.3293 -10.0206 -3.1072e-15 25.8471 -5.34598e-15 23.1134)
(18.0165 -8.93353 1.05028e-15 23.501 2.87096e-15 20.7822)
(15.4374 -7.6904 1.92768e-16 20.6137 2.21127e-15 18.0439)
(12.2053 -6.10427 -4.82379e-17 16.6643 4.07608e-18 14.455)
(9.05417 -4.53509 -1.94732e-15 12.5233 -9.33834e-17 10.7925)
(2.80735 -1.41404 -5.37327e-16 4.23073 -2.5128e-15 3.51553)
(0.0113913 0.00237488 9.19823e-22 0.0100564 -3.03098e-21 0.0107735)
(0.00958273 0.00195654 -4.94894e-21 0.00879501 5.17007e-21 0.00927091)
(0.00763697 0.0015138 -2.38729e-20 0.00734506 -1.68763e-20 0.00753135)
(0.00602199 0.00113677 2.5549e-20 0.00602112 -3.4015e-20 0.00604915)
(0.00457443 0.000803527 -3.0353e-20 0.00469175 -1.77172e-20 0.00464638)
(0.00332839 0.000533002 -1.2893e-19 0.00343564 1.5979e-19 0.00337921)
(0.00237153 0.000339896 4.78144e-20 0.00240369 1.2103e-19 0.00236908)
(0.00185719 0.000233542 -7.17242e-21 0.0017899 -1.5726e-19 0.0018025)
(0.00219442 0.000274751 8.59434e-20 0.00195002 -1.72705e-21 0.00205793)
(0.00317102 0.000399716 -7.3303e-20 0.00260516 -2.1447e-20 0.0028871)
(0.00485635 0.000661746 7.55458e-20 0.00373677 1.8185e-19 0.00430658)
(0.00743492 0.00117268 1.82648e-19 0.00539761 -8.65031e-20 0.0064365)
(0.0112218 0.00211526 -2.1405e-19 0.00773601 -5.05754e-20 0.00951793)
(0.0166583 0.003738 3.27837e-20 0.0110166 8.58696e-20 0.0139083)
(0.0242658 0.00629198 8.83226e-19 0.0156457 1.58137e-19 0.0200632)
(0.0348179 0.0100752 8.75227e-19 0.0223522 -1.89307e-19 0.028745)
(0.0497298 0.0155376 3.9118e-19 0.0323295 5.8577e-19 0.0412482)
(0.0716586 0.0236258 2.62817e-19 0.0476864 5.97292e-19 0.0599738)
(0.105605 0.0362054 2.98866e-19 0.0722465 -1.68811e-19 0.0893385)
(0.160254 0.0567177 5.65814e-19 0.112941 2.59754e-20 0.137203)
(0.253448 0.0922424 -8.61421e-19 0.184116 -5.2211e-18 0.219707)
(0.415478 0.155354 -3.10169e-18 0.311621 -8.33646e-20 0.365089)
(0.723888 0.278215 2.98446e-18 0.562064 5.02247e-18 0.645792)
(1.2989 0.514323 2.06232e-18 1.04951 -4.71449e-19 1.17996)
(2.55565 1.04311 7.996e-17 2.15648 -1.50745e-17 2.3686)
(5.09473 2.13828 -8.94093e-19 4.48741 -1.04841e-17 4.81712)
(11.2671 4.85028 1.52303e-19 10.347 5.6134e-18 10.8689)
(22.2764 9.81294 1.7111e-18 21.3094 -5.25687e-20 21.9186)
(30.3678 13.6608 8.51082e-19 30.2457 1.15259e-20 30.4658)
(33.2733 15.2495 3.72126e-16 34.4576 7.04224e-19 34.014)
(33.6142 15.6565 -6.35829e-18 36.1109 -3.21639e-19 34.9864)
(33.1705 15.6651 -3.0468e-17 36.8695 5.15067e-17 35.1214)
(32.4235 15.4943 -2.28598e-15 37.1972 -2.07599e-16 34.8945)
(31.4587 15.1851 -4.08986e-15 37.1653 -1.80647e-16 34.3828)
(30.3033 14.7537 3.65117e-15 36.7979 3.89031e-16 33.6115)
(28.9953 14.2218 -2.649e-17 36.1422 1.08083e-16 32.6221)
(27.3161 13.4872 -2.42329e-18 34.9484 -4.79949e-16 31.1808)
(25.5009 12.6598 -1.9011e-16 33.4284 2.69683e-16 29.5102)
(20.4896 10.2392 -3.57081e-15 27.8983 1.05978e-16 24.2035)
(0.00223592 -0.000151118 -1.36351e-21 0.00186522 -4.14219e-21 0.00202175)
(0.00219487 -0.000178255 2.33501e-21 0.00188827 5.52308e-21 0.00200927)
(0.00213101 -0.000201206 -1.15501e-23 0.00191084 3.84969e-23 0.00198261)
(0.0020339 -0.000209112 4.86779e-21 0.00189771 7.04248e-22 0.00192227)
(0.00190725 -0.000204851 3.73064e-21 0.00185053 2.92507e-20 0.0018317)
(0.00176982 -0.000192004 2.22084e-20 0.00178625 3.90332e-20 0.00172724)
(0.00162251 -0.000172159 -1.07416e-20 0.00169392 1.73719e-21 0.00160429)
(0.00146867 -0.000148531 -9.08103e-21 0.00157668 -2.43745e-21 0.00146685)
(0.00132316 -0.000125121 -5.19297e-20 0.00145273 -5.72076e-20 0.00133069)
(0.00118649 -0.000103987 -1.72119e-20 0.00132294 -5.78026e-21 0.00119648)
(0.00106268 -8.64102e-05 -1.51526e-19 0.00119587 -1.47635e-19 0.00107062)
(0.000965932 -7.49312e-05 -1.85507e-21 0.00109104 2.4931e-20 0.000969059)
(0.000933691 -7.61694e-05 -8.82621e-20 0.00105747 2.56315e-21 0.000929057)
(0.00100192 -9.79782e-05 7.81502e-20 0.00113884 4.63928e-20 0.000981748)
(0.00126158 -0.000171969 -2.69671e-19 0.00143094 -7.81108e-20 0.00119656)
(0.0019672 -0.000405713 1.23515e-18 0.00215345 2.9592e-19 0.00174777)
(0.00379231 -0.00108938 -2.50677e-18 0.00374174 -2.15807e-18 0.00308941)
(0.00828519 -0.0027483 -4.77136e-18 0.00710857 -1.85896e-18 0.00641878)
(0.0193208 -0.00662066 -9.80381e-18 0.0149175 4.1373e-18 0.0149742)
(0.0493164 -0.0170432 2.09559e-18 0.0360633 -1.15027e-20 0.0390778)
(0.128632 -0.0451125 1.81044e-17 0.0926409 2.4905e-17 0.104865)
(0.382371 -0.137563 -3.93931e-17 0.278723 -1.03516e-16 0.320994)
(1.01192 -0.377548 1.77108e-19 0.763565 1.59512e-16 0.875423)
(3.23642 -1.25897 3.90492e-18 2.56445 -6.55284e-17 2.8865)
(6.60421 -2.6704 -0 5.5067 -0 6.06385)
(10.0491 -4.20278 -1.81791e-17 8.80349 4.19037e-16 9.47362)
(13.1961 -5.69224 -5.92892e-17 12.1583 3.78969e-17 12.7547)
(15.5124 -6.88276 -8.89423e-17 15.0395 -3.76371e-16 15.3641)
(16.232 -7.38839 -9.16387e-16 16.562 -2.19921e-15 16.4771)
(15.1409 -7.04692 3.58311e-16 16.2387 -7.15408e-15 15.7435)
(12.925 -6.1261 -1.09098e-16 14.5219 5.04576e-15 13.7393)
(10.5473 -5.06947 -3.33404e-16 12.3506 6.62206e-15 11.4292)
(8.58671 -4.16918 -2.17766e-15 10.4082 3.82079e-15 9.4564)
(7.1101 -3.47668 6.16738e-15 8.85003 1.39657e-14 7.9343)
(6.01095 -2.95439 -3.50857e-16 7.63198 -2.38625e-15 6.78242)
(5.18076 -2.55404 6.06728e-15 6.65836 -3.56912e-15 5.88717)
(4.59873 -2.27444 -2.1098e-16 5.98074 4.6182e-17 5.26843)
(4.16468 -2.04297 3.16243e-15 5.28436 6.75975e-16 4.67651)
(4.42259 -2.21539 6.09866e-15 5.85194 7.10649e-15 5.26913)
(0.00224066 -0.000113251 1.63312e-21 0.00181924 5.07965e-21 0.00200551)
(0.00222752 -7.32009e-05 -9.01745e-22 0.00177381 -2.36281e-20 0.00197771)
(0.00217568 -2.24857e-05 -1.51749e-20 0.00170974 -4.44111e-20 0.0019247)
(0.00208224 3.44876e-05 3.43046e-21 0.00163367 6.82158e-20 0.0018453)
(0.00193874 8.79561e-05 3.53779e-20 0.00154485 -3.31386e-20 0.00173572)
(0.00174082 0.000129683 -1.09505e-20 0.0014379 -5.18473e-20 0.00158859)
(0.00151392 0.000151329 4.42631e-20 0.00131935 -1.15938e-19 0.00141914)
(0.0013029 0.000153444 -9.14484e-20 0.00120522 -8.95337e-21 0.00125957)
(0.00110251 0.000139351 -5.04894e-20 0.00108773 1.09185e-19 0.00110074)
(0.00091023 0.00011471 -1.61698e-20 0.000962842 -3.82953e-21 0.000939126)
(0.000743413 8.58578e-05 -1.89378e-20 0.000834952 -5.15656e-20 0.000787493)
(0.000610387 6.04726e-05 3.60835e-21 0.000714017 -2.56602e-20 0.000657133)
(0.000504169 4.1144e-05 1.74399e-20 0.00060388 4.47787e-20 0.000546995)
(0.000417311 2.7535e-05 -1.54688e-20 0.000505391 -9.70374e-21 0.000453453)
(0.000345502 1.84964e-05 -8.18141e-21 0.000419197 -2.91642e-20 0.000374322)
(0.00028593 1.26748e-05 -2.91401e-20 0.00034539 -7.83024e-21 0.000308029)
(0.00023582 8.96018e-06 -4.47351e-21 0.000282147 2.28671e-23 0.000252137)
(0.000193518 6.52858e-06 -2.50173e-22 0.000228364 -2.29335e-21 0.000205131)
(0.000156301 4.72354e-06 -2.33007e-21 0.000181068 1.59386e-21 0.000164104)
(0.000121944 3.20804e-06 2.99028e-21 0.000137949 -1.00796e-21 0.000126696)
(8.71952e-05 1.80074e-06 -1.17281e-20 9.56409e-05 8.1502e-21 8.95423e-05)
(5.21311e-05 6.82594e-07 -9.88344e-22 5.51614e-05 2.0034e-22 5.29083e-05)
(1.84201e-05 8.64361e-08 -1.03036e-24 1.87905e-05 -1.16163e-22 1.85049e-05)
(2.86437e-06 2.10957e-09 1.45888e-23 2.87296e-06 5.82593e-25 2.866e-06)
(1.71997e-05 8.26386e-08 -4.5057e-22 1.7489e-05 3.89512e-23 1.72408e-05)
(0.000956048 0.000231881 -9.9806e-19 0.00161532 1.96282e-19 0.00102029)
(0.0053401 0.00161204 -7.88067e-20 0.00916628 -1.02558e-19 0.00557954)
(0.0419853 0.0137522 -5.34369e-21 0.0694339 -2.79587e-19 0.0430774)
(0.138368 0.0503623 -5.30167e-20 0.218709 -7.20405e-22 0.140768)
(0.270965 0.109699 2.83216e-18 0.404833 4.61482e-18 0.275775)
(0.408948 0.179431 3.16536e-19 0.575376 -3.91148e-18 0.419781)
(0.532193 0.244752 7.49032e-18 0.712237 -2.50638e-17 0.553485)
(0.634506 0.29903 2.51167e-15 0.822624 1.77697e-16 0.669488)
(0.721132 0.344464 2.35028e-15 0.921433 5.60197e-17 0.771693)
(0.798129 0.384682 -2.18099e-15 1.01854 -2.29503e-16 0.865958)
(0.875873 0.424732 2.10989e-15 1.12256 2.75609e-16 0.961052)
(0.952858 0.465215 -3.74364e-15 1.23853 -5.50744e-16 1.06112)
(1.15518 0.562524 -3.48091e-15 1.48225 -7.46838e-16 1.2776)
(1.60641 0.791499 -3.47699e-15 2.01768 -1.18279e-16 1.82891)
(0.00149947 -0.000115894 -5.8407e-22 0.00123138 -1.94491e-21 0.00137964)
(0.00145923 -0.000139082 -1.29864e-20 0.00124496 -2.97938e-20 0.0013694)
(0.00139073 -0.000155622 9.5325e-21 0.00124754 2.18286e-20 0.00133944)
(0.00130135 -0.000161486 1.3088e-20 0.00123741 2.42846e-20 0.00129407)
(0.00121013 -0.00015747 2.37694e-20 0.00122497 3.41771e-20 0.00124575)
(0.00111572 -0.000142976 -7.28743e-20 0.00120536 -1.25655e-19 0.00119227)
(0.00102631 -0.000119393 5.10237e-20 0.00117875 1.0059e-19 0.00113818)
(0.000950989 -9.02817e-05 6.77531e-20 0.00114954 6.06104e-20 0.00108915)
(0.000891399 -5.79542e-05 -3.99776e-21 0.00111886 8.13424e-21 0.00104688)
(0.000849871 -2.56714e-05 4.18317e-20 0.00108917 7.34394e-20 0.00101388)
(0.000824004 4.37369e-06 -9.02245e-20 0.00106078 -4.52216e-21 0.000988625)
(0.000812115 3.09114e-05 1.23475e-19 0.00103587 1.36114e-19 0.000971394)
(0.000814584 5.30741e-05 5.84013e-20 0.00102069 2.41592e-20 0.00096501)
(0.000827797 7.15981e-05 2.93662e-20 0.00101505 -2.79949e-20 0.000967861)
(0.000845453 8.62534e-05 8.48244e-20 0.00101366 8.39487e-20 0.000973983)
(0.000840631 9.22159e-05 -2.05143e-19 0.000984043 -2.09716e-19 0.000951662)
(0.000753381 7.72434e-05 4.02612e-20 0.000852776 5.91624e-20 0.000830731)
(0.000681928 6.55436e-05 2.75216e-19 0.000754018 8.02367e-20 0.000737674)
(0.000289507 1.19542e-05 1.50127e-20 0.000301062 1.11009e-20 0.000298267)
(0.00325468 0.00137193 -5.48945e-19 0.00445939 -3.6858e-20 0.00413552)
(0.000721999 9.48431e-05 4.61376e-20 0.000799434 -1.02729e-19 0.000775846)
(0.00154395 0.000532028 5.94983e-20 0.00195176 5.1042e-19 0.00180922)
(0.00085386 0.000329235 1.27555e-18 0.00108235 -2.78545e-19 0.00098685)
(0.00263175 -0.000978647 -3.39927e-18 0.00205314 -1.43389e-18 0.00221645)
(0.0476122 -0.0187428 1.52999e-19 0.0389027 3.51705e-19 0.0420317)
(0.202248 -0.0829443 -3.4898e-17 0.174268 1.02631e-17 0.184746)
(0.568496 -0.241499 1.34292e-17 0.515692 5.1478e-18 0.535923)
(1.3651 -0.596298 -1.72319e-17 1.29558 -1.32076e-18 1.32179)
(2.8965 -1.29396 -4.53885e-16 2.86145 4.54446e-16 2.86948)
(5.14783 -2.3449 -8.596e-16 5.28288 2.72592e-17 5.20848)
(7.52548 -3.49046 3.17153e-15 8.02684 -9.29491e-16 7.77732)
(9.06891 -4.27755 2.78195e-15 10.0614 1.47537e-15 9.57802)
(9.27911 -4.44068 -9.42907e-17 10.6927 3.73801e-15 10.0056)
(8.51838 -4.12242 6.03047e-15 10.1478 -4.45538e-15 9.34839)
(7.42439 -3.6211 4.72698e-15 9.08098 -2.71015e-15 8.25885)
(6.36634 -3.1177 -8.89998e-15 7.90962 -3.17532e-15 7.13589)
(5.52563 -2.71408 -3.03983e-17 6.93766 -1.60654e-15 6.23276)
(4.74473 -2.30099 5.93897e-15 5.72378 -1.52875e-15 5.21523)
(5.18387 -2.56567 -1.29977e-14 6.67613 4.27788e-15 5.95376)
(0.00153346 -8.66112e-05 -2.89691e-21 0.00122108 -6.77109e-21 0.00139016)
(0.00154671 -5.50786e-05 -2.32257e-21 0.00120742 -1.7026e-21 0.00138727)
(0.00155143 -1.67299e-05 2.25408e-20 0.00119734 3.62374e-20 0.00138217)
(0.00152437 2.3818e-05 -1.38371e-20 0.0011785 -9.21163e-22 0.00135624)
(0.00146442 6.34382e-05 3.02611e-21 0.00115178 1.49256e-20 0.0013108)
(0.00135916 9.55627e-05 -5.33952e-21 0.00110584 5.41089e-20 0.00123334)
(0.0012192 0.000114962 -8.9109e-21 0.00104158 4.62605e-20 0.00113016)
(0.00106822 0.000120505 1.38342e-19 0.000967236 9.24889e-20 0.0010182)
(0.000928532 0.000116208 2.24868e-20 0.000896934 -2.56749e-20 0.000913464)
(0.000788246 0.000102287 6.78171e-20 0.000813356 8.56854e-21 0.000801411)
(0.000650827 8.23556e-05 -5.63447e-20 0.000712122 -3.4056e-20 0.000682377)
(0.000527778 6.1979e-05 -3.92547e-20 0.000605893 5.95227e-20 0.000568498)
(0.000423345 4.41449e-05 4.56128e-20 0.000505041 -2.25609e-20 0.000466819)
(0.000336914 2.97525e-05 3.41924e-20 0.000414169 -1.36891e-22 0.000379186)
(0.000268032 1.89251e-05 -2.70608e-20 0.000336931 2.45455e-20 0.000306962)
(0.00021416 1.1086e-05 -1.85707e-20 0.000273404 4.32257e-20 0.000248965)
(0.000173345 5.63127e-06 4.69492e-20 0.000223297 -2.75005e-20 0.000204015)
(0.000143148 1.86562e-06 4.2476e-20 0.000184941 -7.82376e-21 0.000170115)
(0.000121734 -7.82096e-07 1.65344e-20 0.000156885 -1.56822e-21 0.000145602)
(0.000106833 -2.79918e-06 -5.64379e-21 0.000136579 1.99451e-20 0.000128173)
(9.70454e-05 -4.47556e-06 8.06884e-20 0.000122413 8.43042e-21 0.000116319)
(9.13619e-05 -6.10457e-06 3.02123e-21 0.000112867 -1.40155e-20 0.000108877)
(8.93398e-05 -7.88666e-06 -2.51885e-22 0.000106883 -9.0271e-22 0.000105144)
(9.01248e-05 -9.62569e-06 -1.70499e-21 0.000102105 -9.66377e-21 0.000103744)
(9.37936e-05 -1.06934e-05 -1.27941e-21 9.85369e-05 6.99063e-21 0.000104783)
(9.69864e-05 -1.00961e-05 1.29743e-19 9.44389e-05 -6.88771e-21 0.000104781)
(0.000105655 -9.37001e-06 2.21591e-23 9.67014e-05 9.42921e-24 0.00011121)
(6.12797e-05 -2.55605e-06 -4.42986e-21 5.68328e-05 2.0513e-22 6.2495e-05)
(0.000567299 -7.9798e-05 -1.45521e-21 0.00034109 -1.20668e-22 0.000600955)
(0.00357746 -0.00027253 -2.7871e-18 0.00183931 -1.02422e-19 0.00373477)
(0.00993766 0.000582881 1.8974e-17 0.0049958 1.01837e-18 0.0102674)
(0.0200257 0.00529789 -4.80452e-19 0.0122939 -1.51558e-20 0.0206432)
(0.041454 0.0168351 -2.86018e-16 0.0346438 -7.66628e-18 0.0429144)
(0.0809879 0.0366866 -2.36248e-19 0.0804 1.35266e-17 0.0845316)
(0.137384 0.0643119 -1.46769e-19 0.148148 -1.25267e-18 0.144961)
(0.205733 0.0973205 3.38908e-17 0.229668 -8.30342e-17 0.218301)
(0.277959 0.13264 -1.65642e-16 0.318404 6.53255e-16 0.29812)
(0.343512 0.15882 2.23899e-15 0.36485 8.06092e-16 0.352863)
(0.568063 0.270885 4.57918e-15 0.639354 1.76595e-15 0.615848)
(0.00126691 -9.40677e-05 -2.53917e-21 0.00103981 -4.55824e-21 0.00114849)
(0.00125209 -0.000112205 -5.38534e-21 0.00105988 -8.70542e-21 0.00115057)
(0.00122292 -0.000127971 1.04457e-20 0.00107851 1.54343e-20 0.00114374)
(0.00118686 -0.000138349 1.41214e-20 0.00109599 1.42794e-20 0.001133)
(0.00113986 -0.000141909 1.63674e-21 0.00110463 -6.40469e-22 0.00111218)
(0.0010832 -0.000138724 -5.22713e-21 0.00110389 1.31668e-20 0.00108155)
(0.00102206 -0.00012947 1.06279e-19 0.00109321 1.06308e-19 0.00104367)
(0.000956517 -0.000115251 -9.96758e-20 0.00106898 -1.3115e-19 0.000996799)
(0.000889642 -9.77761e-05 2.72048e-20 0.00103324 7.04549e-21 0.000943347)
(0.000822922 -7.90377e-05 1.3153e-19 0.000986204 9.72946e-20 0.000884518)
(0.00075736 -6.05047e-05 1.03869e-19 0.000929892 1.0494e-19 0.000821705)
(0.000693456 -4.33727e-05 1.12513e-19 0.000866326 3.25852e-20 0.000756338)
(0.000630597 -2.84358e-05 -1.25395e-19 0.000796548 -9.48502e-20 0.000688799)
(0.000568256 -1.5961e-05 -7.89667e-20 0.000722034 -7.86784e-20 0.000619786)
(0.000506999 -6.11062e-06 8.53643e-21 0.000645024 -2.64545e-20 0.000550509)
(0.000443373 2.24645e-06 -1.932e-19 0.000562967 1.38183e-20 0.000478544)
(0.000379139 9.27879e-06 -5.28346e-20 0.000477207 -6.6914e-20 0.00040572)
(0.000324342 1.49309e-05 -2.92312e-19 0.000401411 -2.27742e-19 0.000343417)
(0.000258133 1.59003e-05 2.41101e-20 0.000305159 -3.24079e-20 0.000269005)
(0.00017677 9.75193e-06 4.96781e-21 0.000194704 -1.15376e-20 0.000180954)
(5.11545e-06 8.21223e-09 -3.34417e-23 5.12557e-06 -2.16308e-25 5.11815e-06)
(0.000131565 4.99257e-06 2.5228e-21 0.000136069 5.44636e-22 0.00013299)
(0.000123837 3.89234e-06 -8.03168e-21 0.000126419 -1.63661e-21 0.000124741)
(0.00125126 0.000344791 -2.11982e-19 0.00140006 2.33274e-19 0.0013016)
(0.0081848 0.00377237 6.09342e-19 0.0089363 4.09581e-20 0.00833132)
(0.020599 0.00913189 6.40099e-18 0.0204279 3.42305e-18 0.0199754)
(0.0392764 0.0165785 -1.31072e-18 0.0356301 5.53279e-19 0.036476)
(0.0262861 0.0102724 1.70447e-18 0.0212679 1.07146e-19 0.0230915)
(0.0167772 0.00372734 3.43861e-17 0.00857229 1.72734e-18 0.0119327)
(0.070965 -0.0273607 -6.22225e-18 0.0559969 7.18549e-17 0.0623059)
(0.428224 -0.188526 -3.40126e-16 0.41196 -3.30817e-16 0.417911)
(1.40829 -0.644235 1.33595e-15 1.45918 -1.28231e-15 1.43083)
(3.07225 -1.43742 1.63903e-15 3.34664 -1.58465e-16 3.20745)
(4.82996 -2.29784 -4.31748e-16 5.48461 -5.91334e-15 5.15899)
(5.91596 -2.85044 -4.97467e-15 6.95876 -1.50495e-15 6.44355)
(6.15513 -2.98885 6.17978e-16 7.41981 3.24123e-15 6.79184)
(5.94227 -2.89997 -8.89854e-15 7.28092 1.32648e-15 6.61822)
(5.4361 -2.62424 -6.41989e-15 6.45166 7.98966e-16 5.93185)
(5.77227 -2.8315 7.71948e-15 7.15954 -4.94244e-15 6.50471)
(0.00126767 -7.1545e-05 -1.32987e-21 0.00101335 -1.06905e-21 0.00113732)
(0.00125732 -4.78444e-05 4.69588e-21 0.000986577 2.2264e-20 0.00111921)
(0.0012314 -1.86804e-05 1.43593e-20 0.000954056 3.06471e-20 0.00109152)
(0.00119284 1.19954e-05 1.64154e-20 0.000922873 -8.1363e-21 0.00105736)
(0.00113664 4.18196e-05 -3.24726e-20 0.00089063 -2.64567e-20 0.0010138)
(0.00105768 6.71655e-05 -4.29083e-21 0.000852858 -3.8668e-20 0.000955363)
(0.000963701 8.46798e-05 -5.15537e-20 0.000811603 -4.8752e-20 0.000887552)
(0.000864744 9.29965e-05 -7.4701e-20 0.000768385 -2.41861e-21 0.000816684)
(0.000762116 9.26043e-05 -1.94288e-20 0.000719478 -1.19352e-20 0.000741254)
(0.000656205 8.43848e-05 2.39098e-20 0.000659827 -1.64327e-20 0.00065863)
(0.000555378 7.12341e-05 2.22112e-20 0.000592331 5.0994e-20 0.000574355)
(0.000467008 5.6743e-05 4.45179e-20 0.000524143 -1.73801e-20 0.000495758)
(0.000392919 4.31995e-05 -3.78504e-20 0.000459782 -4.02058e-20 0.000426077)
(0.000331839 3.16534e-05 -6.05549e-21 0.000401095 1.50694e-20 0.000365691)
(0.00028231 2.2514e-05 3.5211e-20 0.000349359 -7.96038e-21 0.000314529)
(0.000242193 1.56001e-05 7.46237e-20 0.000304624 -5.90969e-21 0.000271632)
(0.000210045 1.05725e-05 -4.78375e-20 0.000266983 -1.19492e-20 0.000236318)
(0.00018433 6.97718e-06 -1.35657e-20 0.000235798 -1.97166e-20 0.000207528)
(0.000163973 4.37605e-06 -6.27819e-21 0.000210513 3.51269e-21 0.000184431)
(0.00014754 2.37207e-06 7.03034e-20 0.000189756 -2.67953e-20 0.000165651)
(0.000134295 7.121e-07 1.2121e-20 0.000172771 -1.7291e-20 0.000150395)
(0.00012326 -8.18394e-07 -6.81853e-20 0.000158368 1.92807e-20 0.000137575)
(0.000113497 -2.34476e-06 -2.66364e-21 0.000145263 9.31702e-21 0.000126052)
(0.000103324 -3.76926e-06 -1.01765e-21 0.000131226 -6.10177e-21 0.000113892)
(9.29407e-05 -4.65703e-06 8.91576e-22 0.000116697 -7.33459e-23 0.000101285)
(8.44314e-05 -4.92648e-06 -5.18302e-20 0.000104711 -8.80572e-21 9.06945e-05)
(7.80499e-05 -4.8534e-06 -7.81167e-22 9.56311e-05 1.37332e-22 8.25838e-05)
(7.36968e-05 -4.70547e-06 1.12583e-20 8.94427e-05 1.59833e-22 7.68974e-05)
(6.69652e-05 -4.20408e-06 -4.0814e-22 8.0179e-05 -9.00218e-24 6.89369e-05)
(6.15523e-05 -4.06327e-06 2.35678e-22 7.34754e-05 -2.03615e-23 6.27226e-05)
(3.90902e-05 -2.09923e-06 -2.13666e-20 4.46122e-05 -5.15973e-22 3.93539e-05)
(2.79365e-05 -1.60737e-06 -6.04919e-22 3.15685e-05 -3.7569e-23 2.78653e-05)
(0.000211439 -5.66089e-05 8.71559e-21 0.000321097 -7.72667e-20 0.000193416)
(0.000401827 -2.87504e-05 1.83943e-17 0.000507075 1.83125e-18 0.000285635)
(0.00191951 0.000704914 1.03841e-18 0.0015033 1.15495e-19 0.00156869)
(0.0093696 0.00367451 -1.97388e-16 0.00744099 -3.52444e-17 0.00852914)
(0.0286493 0.012012 1.30317e-15 0.0249534 1.90588e-16 0.0275899)
(0.0739731 0.0293332 4.651e-17 0.0597099 -1.72654e-16 0.0676384)
(0.238842 0.108741 2.71951e-16 0.24067 -1.51183e-15 0.24711)
(0.000951619 -7.17055e-05 -2.96853e-21 0.000781467 -4.25635e-21 0.000868074)
(0.00093571 -8.52157e-05 -5.52042e-21 0.000793362 -7.46809e-21 0.000866791)
(0.000910357 -9.66022e-05 1.87634e-20 0.000804587 2.39376e-20 0.000859982)
(0.00087706 -0.000103662 -7.96951e-20 0.000812748 -1.07001e-19 0.000848123)
(0.000836231 -0.000105594 1.97711e-20 0.000815453 2.97785e-20 0.00082982)
(0.000788525 -0.000102158 4.2992e-20 0.000811739 4.44505e-20 0.000804812)
(0.000737251 -9.35859e-05 -3.68765e-20 0.000800746 -5.92065e-20 0.000774627)
(0.000684367 -8.06756e-05 -2.38982e-20 0.000781607 3.95638e-21 0.000739635)
(0.00063188 -6.45307e-05 -1.47584e-19 0.000754673 -1.38583e-19 0.000700944)
(0.000582654 -4.67071e-05 -2.12118e-20 0.000721663 -5.53938e-20 0.000660992)
(0.000538042 -2.84962e-05 3.99362e-21 0.000684078 -1.29624e-20 0.000621057)
(0.00049917 -1.10627e-05 -7.42321e-20 0.000643862 -9.3455e-20 0.000582694)
(0.000466936 4.64892e-06 3.56074e-20 0.000603352 4.23733e-20 0.000547486)
(0.000441766 1.80365e-05 -1.45988e-19 0.000564813 -7.55099e-20 0.00051666)
(0.000423348 2.89672e-05 3.16906e-20 0.000529629 1.76488e-20 0.000490729)
(0.000410891 3.7237e-05 1.39456e-19 0.000498996 1.16366e-19 0.000469648)
(0.000398436 4.24433e-05 -1.91773e-19 0.000468596 -5.41469e-20 0.000447814)
(0.000381687 4.48282e-05 -3.552e-20 0.000434346 1.59099e-19 0.000421323)
(0.000361154 4.52971e-05 -1.20934e-20 0.000397855 -2.04303e-20 0.000391515)
(0.00033876 4.45084e-05 -1.48059e-19 0.000361573 -2.34501e-20 0.000360708)
(0.000252426 2.73162e-05 1.0107e-19 0.000259811 6.21622e-20 0.000261723)
(0.000140703 9.06129e-06 1.12099e-21 0.000141595 -1.668e-21 0.00014265)
(1.98487e-08 1.77019e-13 4.98411e-28 1.98487e-08 1.39953e-28 1.98487e-08)
(5.74143e-06 1.35067e-08 2.52835e-23 5.7398e-06 8.52512e-24 5.74185e-06)
(7.82563e-08 2.31922e-12 -3.99251e-28 7.82558e-08 -3.82514e-29 7.82562e-08)
(0 0 0 0 -0 0)
(0 0 0 0 -0 0)
(0.00933653 0.00377079 -3.26969e-19 0.00776736 -4.84783e-19 0.00863017)
(0.0149517 0.00600471 -6.94275e-18 0.0123356 -4.02699e-19 0.0137055)
(9.71192e-05 3.42028e-06 4.0869e-22 9.54625e-05 2.2799e-23 9.62992e-05)
(0.00508354 0.00193315 -5.24107e-19 0.00394044 2.23238e-19 0.00450585)
(0.0356302 0.0122892 -9.87667e-17 0.0244505 -7.20427e-17 0.0299282)
(0.0572214 -0.00564018 -4.70797e-17 0.0230767 -1.4271e-16 0.0396199)
(0.48388 -0.213064 -3.39708e-15 0.465044 3.32428e-16 0.472928)
(1.66459 -0.777843 5.63281e-16 1.80888 1.8567e-15 1.73444)
(3.27828 -1.56381 -6.70488e-19 3.75302 1.02487e-19 3.51352)
(4.60462 -2.22202 -1.4717e-16 5.44256 3.9728e-15 5.0273)
(5.25788 -2.52099 1.37741e-16 6.11653 1.78948e-16 5.67436)
(5.93789 -2.89527 -1.20117e-14 7.20053 2.55463e-15 6.6198)
(0.000960348 -5.53201e-05 5.36236e-21 0.000768006 3.04508e-21 0.000865798)
(0.000961725 -3.78467e-05 -1.51885e-20 0.000754834 -2.35787e-20 0.00085916)
(0.0009534 -1.64777e-05 -9.05933e-21 0.000738764 1.48569e-20 0.000846925)
(0.000932476 6.48906e-06 4.09718e-20 0.000720781 2.68804e-20 0.000827064)
(0.000896908 2.9282e-05 -1.43547e-20 0.000700531 -7.63146e-20 0.000799002)
(0.000843652 4.93222e-05 -2.6898e-20 0.000675604 2.17719e-20 0.000759542)
(0.000778402 6.42384e-05 6.79609e-20 0.000648156 5.25095e-20 0.000713098)
(0.000707903 7.27396e-05 -2.33165e-20 0.000619488 -5.95557e-20 0.000663667)
(0.000633466 7.4725e-05 -5.37755e-20 0.000586904 -2.32884e-20 0.000610275)
(0.00055589 7.05966e-05 -4.01331e-20 0.000546905 1.58789e-20 0.000551567)
(0.000480512 6.21339e-05 4.54813e-20 0.000500653 8.19331e-22 0.000490748)
(0.000411375 5.16555e-05 -2.69805e-20 0.000451069 -2.42356e-20 0.000431386)
(0.000349977 4.09578e-05 -3.28165e-20 0.000400709 2.55164e-20 0.000375553)
(0.0002963 3.11279e-05 3.16945e-20 0.000351437 1.28563e-20 0.000324177)
(0.000250186 2.27775e-05 -4.76306e-20 0.000305048 8.39248e-21 0.000278058)
(0.000211094 1.60488e-05 -1.14372e-20 0.000262839 -3.30561e-20 0.000237579)
(0.000178446 1.0841e-05 1.32727e-20 0.000225642 1.69698e-20 0.000202845)
(0.000151587 6.89245e-06 -5.14057e-20 0.000193799 2.84863e-21 0.000173685)
(0.000129887 3.90621e-06 2.03201e-20 0.000167291 -5.45144e-22 0.000149755)
(0.000112491 1.5797e-06 -7.80101e-20 0.000145506 5.92496e-21 0.000130325)
(9.87109e-05 -3.21957e-07 -1.00554e-20 0.000127804 2.75528e-21 0.000114715)
(8.7752e-05 -1.98871e-06 6.24676e-20 0.000113236 4.76732e-21 0.00010206)
(7.88304e-05 -3.52752e-06 5.94562e-20 0.000100728 -1.31665e-20 9.14304e-05)
(7.06436e-05 -4.87487e-06 -5.00046e-20 8.84788e-05 3.77498e-21 8.1326e-05)
(6.24736e-05 -5.72552e-06 -6.67567e-22 7.57866e-05 3.77731e-22 7.10274e-05)
(5.49757e-05 -5.97961e-06 -4.77936e-20 6.39757e-05 1.3119e-20 6.148e-05)
(4.9247e-05 -5.8729e-06 -8.32901e-22 5.4426e-05 1.07091e-23 5.40197e-05)
(4.56713e-05 -5.52494e-06 -5.45584e-24 4.74729e-05 -2.85527e-22 4.8993e-05)
(4.49717e-05 -5.20365e-06 -2.68851e-23 4.38535e-05 6.62665e-24 4.71626e-05)
(4.23072e-05 -4.14047e-06 1.61184e-20 3.91914e-05 2.72825e-22 4.33653e-05)
(5.48702e-05 -5.9472e-06 6.60295e-23 4.74637e-05 -6.89789e-22 5.54335e-05)
(9.10981e-06 -1.85694e-07 -5.40555e-24 8.81176e-06 -1.07869e-24 9.09738e-06)
(9.77933e-05 -1.54728e-05 -5.39287e-19 6.96248e-05 -4.50284e-20 9.42123e-05)
(8.81921e-11 -2.24658e-17 -8.12444e-31 8.81921e-11 -6.80667e-32 8.81921e-11)
(0.00119091 -0.000280505 9.32714e-20 0.000606923 1.09737e-20 0.0010187)
(0.00242277 -0.000495716 -4.46354e-17 0.00114004 -1.58789e-18 0.00192058)
(0.000958446 -0.000101975 1.93918e-18 0.000383667 -1.44263e-17 0.000702877)
(0.00311583 0.000218471 1.45571e-18 0.00122493 2.8594e-19 0.00213331)
(0.0510144 0.0205752 -5.24613e-16 0.0417678 6.84551e-17 0.0485221)
(0.00077884 -5.87713e-05 5.98917e-21 0.000639963 6.78038e-21 0.000708844)
(0.000771338 -6.96742e-05 -4.47997e-21 0.000653204 -4.86321e-21 0.000711776)
(0.000757181 -7.93202e-05 -2.20502e-23 0.000666782 -4.05107e-22 0.000711168)
(0.000738649 -8.60802e-05 -2.25997e-21 0.000679944 2.00532e-21 0.000708323)
(0.000714823 -8.91738e-05 5.69282e-20 0.000689822 5.95668e-20 0.000701153)
(0.000686069 -8.84459e-05 -3.61363e-20 0.000696088 -4.54718e-20 0.00068953)
(0.000654379 -8.39006e-05 -2.59519e-21 0.000697582 1.12612e-20 0.000674085)
(0.000620321 -7.59324e-05 1.23168e-19 0.000692721 1.17486e-19 0.000654209)
(0.000584939 -6.52267e-05 -2.83238e-20 0.00068128 2.18479e-21 0.000630256)
(0.000549479 -5.28196e-05 -1.39211e-19 0.000663221 -9.27871e-20 0.000602931)
(0.000514338 -3.96465e-05 4.31783e-20 0.000638685 3.59776e-20 0.000572448)
(0.000480029 -2.65989e-05 -1.14829e-19 0.000608533 -3.64804e-20 0.000539507)
(0.000446949 -1.44921e-05 -4.2364e-20 0.000573917 -1.58241e-20 0.000504917)
(0.000415162 -3.84308e-06 -7.21893e-20 0.000536002 4.00631e-20 0.000469269)
(0.000384708 5.05802e-06 6.25094e-21 0.000496051 3.4654e-21 0.000433274)
(0.000354769 1.19637e-05 5.28614e-20 0.000454216 1.17552e-20 0.000396601)
(0.000322659 1.72622e-05 7.30697e-20 0.000407998 1.0743e-19 0.000357142)
(0.000289364 2.09758e-05 2.72573e-19 0.000359246 7.47169e-20 0.000316336)
(0.000257937 2.33393e-05 -1.08738e-19 0.000312398 -4.91291e-21 0.000277836)
(0.000230289 2.45721e-05 9.97652e-20 0.000270382 4.39354e-20 0.000243919)
(0.000209174 2.5403e-05 1.52082e-20 0.000236766 -4.48084e-20 0.000217546)
(0.000185232 2.34863e-05 -1.50616e-20 0.000200046 2.74188e-20 0.000188674)
(0.000134045 1.35801e-05 -5.29203e-20 0.000136931 -3.03783e-20 0.000133804)
(7.63005e-05 4.54804e-06 6.57331e-22 7.54561e-05 -7.75424e-22 7.55011e-05)
(9.3181e-07 6.91014e-10 1.99605e-25 9.31434e-07 -4.14444e-26 9.31582e-07)
(4.3165e-06 1.46894e-08 2.44431e-23 4.30443e-06 -7.62801e-24 4.30969e-06)
(2.70521e-06 5.81723e-09 -3.51637e-24 2.69958e-06 -1.27427e-24 2.7021e-06)
(2.14317e-07 3.61507e-11 -1.89597e-26 2.14282e-07 -9.76439e-28 2.14298e-07)
(0 0 0 0 0 0)
(2.56536e-06 4.32927e-09 -1.67913e-24 2.56184e-06 -6.7198e-24 2.56353e-06)