/*--------------------------------*- C++ -*----------------------------------*\
| =========                 |                                                 |
| \\      /  F ield         | OpenFOAM: The Open Source CFD Toolbox           |
|  \\    /   O peration     | Version:  2206                                  |
|   \\  /    A nd           | Website:  www.openfoam.com                      |
|    \\/     M anipulation  |                                                 |
\*---------------------------------------------------------------------------*/
FoamFile
{
    version     2.0;
    format      ascii;
    arch        "LSB;label=32;scalar=64";
    class       volScalarField;
    location    "150";
    object      turbulenceProperties:I;
}
// * * * * * * * * * * * * * * * * * * * * * * * * * * * * * * * * * * * * * //

dimensions      [0 0 0 0 0 0 0];

internalField   nonuniform List<scalar> 
10720
(
0.00419389
0.00416044
0.00417359
0.00429538
0.00445264
0.00467612
0.00498299
0.00536196
0.00583133
0.00640916
0.00711298
0.00798468
0.0090801
0.0104797
0.0123136
0.0147833
0.0181958
0.0231363
0.0305002
0.0424769
0.06269
0.102057
0.183382
0.349506
0.444373
0.429896
0.386221
0.350996
0.327275
0.31182
0.301571
0.294986
0.29148
0.290013
0.290317
0.292567
0.299857
0.311248
0.411059
0.00425601
0.00442801
0.00463189
0.00509626
0.00588701
0.00745731
0.0111536
0.0171498
0.0118409
0.00816832
0.00709594
0.0069617
0.0072686
0.00785848
0.00866913
0.00970112
0.0109996
0.0126616
0.0148389
0.0177313
0.0217004
0.027117
0.0350384
0.0461698
0.0641515
0.0902716
0.134374
0.189674
0.222843
0.235152
0.238831
0.240428
0.241625
0.242648
0.243611
0.244703
0.246126
0.249529
0.256322
0.00185948
0.0016998
0.00155649
0.00142206
0.00129785
0.00118662
0.00108498
0.000991546
0.000908745
0.000834468
0.000768752
0.000715673
0.000688456
0.00069873
0.000767051
0.000929547
0.00123791
0.00176274
0.00264478
0.00423168
0.00696702
0.0124932
0.0216559
0.0422901
0.0665796
0.0904471
0.11408
0.13585
0.151608
0.157912
0.1555
0.148564
0.141413
0.136163
0.13368
0.134224
0.142216
0.15476
0.281404
0.00203357
0.00225213
0.00254904
0.00297705
0.00362343
0.00463914
0.0061286
0.00715739
0.005974
0.00415041
0.00295704
0.00223653
0.00176956
0.001443
0.00120138
0.00101503
0.000865373
0.000741667
0.000633943
0.000534398
0.000432113
0.000320068
0.00018273
6.97295e-05
0.000167148
0.0013632
0.00317503
0.00871071
0.0155398
0.0214502
0.0261075
0.029679
0.0325012
0.0349486
0.0372807
0.0397352
0.0425676
0.0477235
0.0613885
0.00161035
0.00148056
0.00135399
0.00123536
0.00113335
0.00104286
0.000964456
0.000899493
0.000846472
0.000804752
0.000772545
0.000748824
0.000734022
0.000726673
0.000723953
0.000713205
0.000666116
0.000627608
0.000400041
0.00145284
0.000634005
0.000952507
0.000700664
0.00107859
0.00473191
0.0101656
0.017894
0.0292812
0.0454377
0.0653095
0.0861402
0.103804
0.115133
0.120443
0.122763
0.124793
0.131209
0.138617
0.224811
0.00176058
0.00193949
0.00218652
0.00251735
0.00296087
0.00352759
0.0041262
0.00442271
0.00407936
0.00331262
0.00258058
0.00202325
0.00161484
0.00131084
0.00108171
0.000906014
0.000770944
0.000667074
0.000588425
0.00052883
0.000484388
0.000451938
0.000429463
0.000413515
0.000404309
0.000395826
0.000400932
0.000300546
0.000860762
0.00210595
0.00348197
0.00504296
0.007573
0.0109365
0.0145856
0.0181803
0.0216754
0.0241472
0.0341243
0.00151263
0.001406
0.00130335
0.00121003
0.00112478
0.00104562
0.000973626
0.000907422
0.000846784
0.000790971
0.00073945
0.000691587
0.000646386
0.000603041
0.00056114
0.000518393
0.00047472
0.000435827
0.000385121
0.000315313
5.29404e-05
0.000272107
0.000264232
0.000860233
0.00219826
0.00344945
0.00474324
0.00384877
0.0028521
0.00658529
0.0175651
0.0340862
0.054503
0.0749865
0.0919137
0.104422
0.116596
0.128035
0.189663
0.00162594
0.0017583
0.00192677
0.00214795
0.00242
0.00272752
0.00300834
0.00313747
0.00299524
0.00262336
0.00219495
0.00181916
0.00151898
0.00128456
0.00110188
0.000957915
0.000843672
0.000752096
0.000678354
0.000617757
0.00056754
0.000524824
0.000487
0.000450178
0.000414795
0.000385577
0.000362974
0.00034672
0.000325656
0.000309276
0.00024284
0.000204173
0.000588645
0.000757046
0.0015559
0.00353533
0.00642649
0.0103237
0.0209654
0.00133232
0.00124492
0.00115894
0.00107773
0.00100292
0.000932387
0.000867252
0.000807547
0.00075279
0.000703437
0.000659334
0.000620413
0.000586814
0.000558667
0.000535808
0.000518048
0.000502064
0.000485111
0.000467376
0.000449759
0.00038596
0.000288017
3.43949e-06
5.91202e-05
6.99931e-06
0
0
0.00245693
0.00315833
0.000269617
0.00187559
0.00492751
0.00583512
0.0209236
0.0426535
0.066275
0.0891937
0.109853
0.160361
0.00142549
0.00153111
0.00166164
0.00182121
0.00200086
0.00218441
0.00233699
0.0024038
0.00233454
0.00213639
0.0018772
0.0016184
0.00138791
0.00119183
0.00102817
0.000892226
0.000779471
0.000686076
0.000608994
0.000545242
0.000492551
0.000448567
0.000410977
0.000376186
0.000342351
0.000311402
0.000286304
0.000268211
0.000259653
0.000246966
0.000276302
0.000114092
0.000355091
3.57956e-07
0.00117375
0.0016501
0.00102142
0.00184823
0.00912729
0.00120854
0.00113981
0.00107085
0.00100572
0.000945308
0.000887885
0.00083451
0.00078495
0.00073877
0.000695939
0.000656052
0.000618849
0.000584194
0.000551848
0.000521646
0.000492864
0.000463449
0.000433657
0.000405378
0.000379999
0.000360007
0.000336994
0.000285613
0.000216696
2.44351e-05
5.36719e-05
4.35192e-05
1.2559e-05
0
4.55519e-05
0.000718727
0.00285888
0.00630289
0.00558062
0.00794739
0.0218315
0.0499632
0.0816849
0.130668
0.00127957
0.001358
0.00145251
0.00156457
0.00168384
0.00179909
0.00189141
0.00193127
0.00189275
0.00177707
0.00161364
0.00143591
0.00126546
0.00111208
0.00097872
0.000864888
0.000768669
0.000687817
0.000620097
0.000563238
0.000515178
0.000473789
0.000436943
0.000401908
0.000367376
0.000335082
0.000306613
0.000282218
0.000261271
0.000243367
0.000227862
0.000211867
0.000190613
0.000146513
3.78266e-05
2.11543e-05
0.000425029
0.00088986
0.00307986
0.00108552
0.00103005
0.000973454
0.000919044
0.000868144
0.000818969
0.000772551
0.000728958
0.000687772
0.000649128
0.000612884
0.000578917
0.000547294
0.000518028
0.000491151
0.000466796
0.000445614
0.000427139
0.000409724
0.000392342
0.000375587
0.000361589
0.000347882
0.000329298
0.000292349
0.000236077
0.000182122
4.82394e-05
4.63036e-05
2.5955e-05
0
0
0
0.0025398
0.00639333
0.00760635
0.0133051
0.0467011
0.097482
0.00114202
0.00120296
0.00127467
0.00135648
0.0014393
0.00151621
0.00157661
0.00160236
0.00157904
0.00150713
0.00140027
0.00127653
0.00115015
0.00102975
0.000919738
0.000821643
0.000735417
0.000660398
0.000595584
0.000539687
0.000491426
0.000449351
0.000411827
0.000376713
0.000342688
0.000310722
0.000282166
0.000257426
0.000236159
0.000218334
0.00020459
0.000195602
0.000189696
0.000182845
0.000176123
0.000116362
3.68497e-05
9.9832e-06
0.000577322
0.000982518
0.000938324
0.000892527
0.000848057
0.000806265
0.000765512
0.000726859
0.00069038
0.00065571
0.000622985
0.000592
0.000562638
0.000534872
0.000508614
0.000483804
0.000460457
0.000438224
0.000416186
0.00039459
0.000374266
0.000356114
0.00034099
0.000330138
0.000321359
0.000313796
0.000297894
0.000277284
0.000242398
0.000197689
0.0001103
4.73903e-05
2.31465e-05
0
0
0
0.00372308
0.00516588
0.0167765
0.0628346
0.00102673
0.00107362
0.00112796
0.00118835
0.00124748
0.00130107
0.00134274
0.00136038
0.00134547
0.00129845
0.00122601
0.00113834
0.0010445
0.000950985
0.000862047
0.000780015
0.000705826
0.00063978
0.000581618
0.000530664
0.000486007
0.000446538
0.000410916
0.000377485
0.000345236
0.000314872
0.00028739
0.000262994
0.000241196
0.000221571
0.000204038
0.000188351
0.0001742
0.000161611
0.000152513
0.000143434
0.000119447
4.05907e-05
0.000162205
0.000890819
0.000855177
0.000817718
0.000780889
0.000746086
0.000711781
0.000678934
0.000647671
0.000617672
0.000589059
0.000561706
0.000535507
0.000510477
0.000486584
0.00046386
0.000442299
0.000421941
0.000403091
0.000385678
0.000369412
0.000354217
0.000340351
0.000328361
0.000317612
0.000307453
0.00029641
0.000283888
0.000273357
0.000260252
0.000237406
0.000205049
0.000106739
4.35221e-05
6.27519e-07
0
0
0.00234268
0.00661262
0.0333218
0.000926005
0.000962757
0.00100479
0.00105033
0.00109378
0.00113264
0.00116254
0.00117509
0.0011652
0.00113319
0.00108262
0.00101943
0.000949272
0.000876699
0.000805135
0.000736825
0.000673108
0.000614709
0.000561868
0.000514443
0.000471991
0.0004338
0.000398907
0.000366142
0.000334747
0.000305133
0.000278145
0.00025408
0.000232638
0.00021353
0.000196775
0.000182685
0.000171549
0.000163605
0.000159213
0.000160665
0.000167598
0.00017113
3.38723e-05
0.000811021
0.000782232
0.000751608
0.000721211
0.000692337
0.000663667
0.000636044
0.00060962
0.000584125
0.000559677
0.000536156
0.000513473
0.000491641
0.000470624
0.000450429
0.000431055
0.000412569
0.0003948
0.000377526
0.000361015
0.000345757
0.000332175
0.000320477
0.000310018
0.000299258
0.000287345
0.000274651
0.00026376
0.00025608
0.000251111
0.000246759
0.000225286
0.00018572
2.85856e-06
1.22085e-05
0
0
0.0036182
0.0158782
0.000839079
0.000868068
0.000900915
0.000935787
0.00096841
0.000997474
0.00101955
0.00102874
0.001022
0.000999493
0.000963271
0.000916945
0.000864052
0.000807637
0.000750316
0.000693979
0.000639933
0.000589142
0.000542099
0.000498989
0.0004597
0.000423816
0.00039068
0.000359492
0.000329678
0.000301541
0.000275747
0.000252551
0.000231692
0.000212854
0.000195945
0.000180969
0.000167885
0.000157144
0.000149046
0.000147853
0.000147534
0.000192375
0.000123687
0.000740741
0.00071733
0.000692148
0.00066693
0.000642859
0.000618786
0.000595419
0.000572967
0.000551153
0.000530105
0.000509709
0.00048988
0.000470626
0.000451915
0.000433769
0.000416226
0.000399301
0.000383083
0.000367648
0.000353043
0.000339445
0.000326992
0.000315792
0.000305488
0.000294941
0.000283164
0.000270421
0.000258264
0.000248567
0.000242023
0.000239039
0.000238089
0.000236361
0.000207787
5.49183e-05
1.30152e-05
0
0.00103601
0.00877655
0.000763297
0.000786395
0.00081241
0.000839527
0.000864492
0.000886742
0.000903417
0.000910306
0.000905597
0.000889376
0.000862839
0.00082831
0.000788063
0.000744105
0.000698263
0.000652009
0.000606468
0.000562557
0.00052092
0.000481907
0.000445609
0.000411875
0.000380319
0.000350428
0.000321853
0.000294835
0.000269895
0.000247298
0.00022689
0.000208457
0.000191967
0.000177548
0.000165393
0.000155951
0.000149383
0.000149064
0.000149373
0.000179307
0.000203824
0.000678788
0.000659682
0.000638909
0.00061794
0.000597869
0.000577654
0.00055794
0.000538912
0.000520335
0.000502327
0.000484785
0.000467625
0.000450853
0.000434441
0.000418397
0.000402755
0.000387547
0.000372873
0.000358658
0.000344951
0.000332042
0.000320181
0.000309445
0.00029952
0.000289531
0.000278606
0.00026681
0.000255255
0.000245249
0.000237327
0.000231584
0.000228919
0.000229185
0.00023817
0.000220887
5.12201e-05
1.44031e-06
0.000611683
0.00512994
0.000697029
0.000715539
0.000736342
0.000757715
0.00077714
0.000794427
0.000807266
0.000812553
0.000809187
0.000797204
0.000777399
0.000751297
0.000720382
0.000685937
0.000649273
0.000611437
0.000573292
0.000535653
0.000499126
0.000464177
0.000431048
0.000399756
0.000370092
0.000341775
0.000314673
0.000288987
0.00026514
0.000243376
0.000223609
0.000205665
0.000189494
0.000175176
0.000162792
0.00015274
0.00014539
0.000143754
0.00014504
0.000165323
0.000213451
0.000623866
0.000608204
0.000591008
0.000573521
0.000556738
0.000539724
0.00052307
0.000506935
0.000491105
0.00047569
0.000460599
0.000445751
0.000431142
0.000416734
0.000402542
0.000388598
0.000374931
0.000361642
0.000348759
0.000336338
0.000324543
0.000313566
0.000303431
0.000293899
0.000284335
0.000274081
0.00026315
0.000252427
0.000242954
0.000235137
0.000228777
0.000224184
0.000221444
0.000224003
0.000239596
0.000216537
3.96959e-05
0.00024301
0.00273049
0.000638706
0.000653642
0.000670402
0.000687437
0.000702767
0.000716375
0.000726402
0.000730521
0.000728055
0.000719043
0.000704013
0.000684
0.000660011
0.000632902
0.000603509
0.000572584
0.000540764
0.000508693
0.000476898
0.000445827
0.000415794
0.000386925
0.000359176
0.000332461
0.000306783
0.000282359
0.000259531
0.00023854
0.000219361
0.000201876
0.000186067
0.000172047
0.000159964
0.00015021
0.000143151
0.000141274
0.000142712
0.000158579
0.000204141
0.000574984
0.000562092
0.000547817
0.000533203
0.00051915
0.000504833
0.00049076
0.000477085
0.000463618
0.000450451
0.000437513
0.000424711
0.00041205
0.000399494
0.000387039
0.00037471
0.000362535
0.000350608
0.000338974
0.000327643
0.000316749
0.000306521
0.00029698
0.000287928
0.000278869
0.000269284
0.000259163
0.000249212
0.000240337
0.000232932
0.00022686
0.000222117
0.000218788
0.000217406
0.000221443
0.000251286
0.000148562
4.40296e-05
0.00105814
0.000587096
0.000599226
0.000612814
0.000626515
0.000638757
0.000649575
0.000657465
0.000660732
0.000658879
0.000651974
0.000640386
0.000624862
0.000606082
0.000584596
0.000560987
0.000535725
0.000509243
0.000482037
0.000454534
0.000427119
0.0004001
0.000373681
0.00034793
0.00032291
0.000298733
0.00027562
0.000253884
0.000233745
0.000215225
0.000198256
0.000182834
0.000169069
0.000157082
0.000147237
0.000139906
0.000137487
0.000138403
0.000152505
0.000192978
0.000531278
0.000520624
0.00050875
0.000496504
0.000484721
0.00047267
0.00046077
0.000449182
0.000437736
0.000426507
0.000415434
0.000404433
0.000393492
0.000382575
0.000371669
0.000360802
0.000350003
0.000339332
0.000328879
0.000318651
0.000308716
0.000299291
0.000290399
0.000281875
0.000273346
0.000264406
0.000255033
0.000245784
0.000237437
0.000230396
0.000224626
0.000220125
0.000216977
0.000215795
0.0002142
0.000231253
0.00024524
7.34704e-06
0.00041629
0.000541187
0.000551086
0.000562166
0.000573258
0.000583123
0.000591786
0.000598051
0.000600652
0.000599231
0.000593851
0.000584798
0.000572601
0.000557757
0.000540628
0.000521581
0.000500932
0.000478942
0.000455942
0.000432254
0.000408196
0.000384064
0.000360074
0.000336351
0.000313025
0.000290324
0.000268516
0.00024787
0.000228591
0.000210738
0.00019429
0.000179262
0.000165776
0.000153968
0.000144196
0.000136811
0.000134034
0.000134462
0.000146652
0.000182697
0.000492023
0.000483204
0.000473305
0.000463027
0.000453149
0.000442997
0.000432944
0.000423137
0.000413423
0.000403868
0.000394415
0.000384979
0.000375555
0.0003661
0.000356609
0.000347089
0.000337567
0.000328081
0.000318741
0.000309536
0.000300508
0.000291848
0.0002836
0.000275639
0.000267666
0.000259365
0.000250715
0.00024215
0.000234324
0.000227632
0.000222111
0.000217798
0.000214828
0.000213757
0.000214129
0.000213371
0.000266435
4.20333e-05
0
0.00050016
0.000508251
0.000517333
0.000526361
0.000534367
0.000541339
0.000546336
0.000548412
0.000547285
0.000543027
0.000535855
0.000526179
0.000514347
0.000500591
0.000485169
0.000468241
0.000449979
0.000430581
0.000410267
0.000389274
0.000367843
0.000346188
0.000324461
0.000302864
0.000281674
0.000261183
0.000241641
0.000223249
0.000206095
0.000190194
0.000175578
0.000162377
0.000150721
0.000140949
0.0001334
0.000130162
0.000130105
0.000140555
0.000172935
0.000456621
0.000449316
0.000441045
0.000432418
0.000424133
0.000415583
0.000407097
0.000398811
0.000390573
0.000382455
0.000374401
0.000366333
0.000358251
0.000350103
0.000341875
0.000333571
0.000325211
0.000316825
0.000308514
0.000300279
0.000292141
0.000284241
0.000276648
0.000269272
0.000261872
0.000254199
0.000246237
0.00023833
0.000231021
0.000224687
0.000219412
0.00021525
0.000212418
0.000211048
0.000213199
0.000208231
0.000249999
0.000150901
2.05248e-05
0.000463326
0.000469952
0.000477411
0.000484795
0.000491321
0.000496948
0.000500946
0.000502601
0.000501679
0.000498253
0.000492502
0.000484733
0.000475209
0.000464095
0.00045154
0.000437639
0.000422459
0.000406125
0.000388755
0.000370518
0.000351593
0.000332156
0.000312371
0.000292472
0.00027278
0.00025359
0.000235154
0.000217664
0.000201224
0.000185882
0.00017169
0.000158781
0.000147289
0.00013754
0.000129855
0.00012618
0.000125653
0.000134471
0.000163456
0.000424577
0.000418518
0.0004116
0.000404365
0.000397411
0.000390224
0.000383068
0.000376075
0.000369109
0.000362232
0.000355393
0.000348525
0.000341612
0.000334612
0.000327509
0.000320301
0.000313004
0.000305634
0.000298278
0.000290953
0.000283662
0.000276496
0.000269555
0.000262774
0.000255954
0.000248899
0.000241598
0.000234325
0.00022753
0.000221562
0.000216546
0.000212544
0.000209806
0.000208321
0.000210176
0.000208712
0.000227213
0.000224468
6.88111e-05
0.000430103
0.000435533
0.000441672
0.000447729
0.000453063
0.000457608
0.000460815
0.000462119
0.000461336
0.000458532
0.000453862
0.000447563
0.000439834
0.000430782
0.000420509
0.000409049
0.000396414
0.000382661
0.00036784
0.000352044
0.000335406
0.000318068
0.000300166
0.000281921
0.000263678
0.000245777
0.000228448
0.00021187
0.000196162
0.000181395
0.000167639
0.000155027
0.000143693
0.000133951
0.000126102
0.000121966
0.00012097
0.000128371
0.000154224
0.000395466
0.000390433
0.00038466
0.000378584
0.000372766
0.000366727
0.000360711
0.000354821
0.000348946
0.000343137
0.000337348
0.000331513
0.000325625
0.000319636
0.000313537
0.000307313
0.000300976
0.000294542
0.000288064
0.000281587
0.000275094
0.00026864
0.000262341
0.000256156
0.000249917
0.000243465
0.000236797
0.000230132
0.000223844
0.000218251
0.000213502
0.000209682
0.000207003
0.000205609
0.000206436
0.000208489
0.000212927
0.000237984
0.000162157
0.000400016
0.000404464
0.000409518
0.0004145
0.000418856
0.000422531
0.000425096
0.000426112
0.000425418
0.00042309
0.000419249
0.000414084
0.000407755
0.00040033
0.000391872
0.000382387
0.000371848
0.000360258
0.000347625
0.00033399
0.000319414
0.000303998
0.000287859
0.000271221
0.000254421
0.000237787
0.000221549
0.00020588
0.000190908
0.000176726
0.000163412
0.0001511
0.000139926
0.000130186
0.000122165
0.000117568
0.000116104
0.000122259
0.000145243
0.000368927
0.000364752
0.000359936
0.000354845
0.000349984
0.000344928
0.000339877
0.000334936
0.000329997
0.000325107
0.000320226
0.000315294
0.000310304
0.000305213
0.000299998
0.000294655
0.000289181
0.000283592
0.000277916
0.00027222
0.000266478
0.000260709
0.000255033
0.000249431
0.000243764
0.0002379
0.000231838
0.000225758
0.000219968
0.000214754
0.000210276
0.000206648
0.000204028
0.000202732
0.000202834
0.000206056
0.000206741
0.000227383
0.000210744
0.000372671
0.000376307
0.000380468
0.000384571
0.000388115
0.000391081
0.000393124
0.000393891
0.000393257
0.000391289
0.00038809
0.000383813
0.000378579
0.000372445
0.000365441
0.000357553
0.000348736
0.000338961
0.000328192
0.00031643
0.000303704
0.000290061
0.000275578
0.000260464
0.000245047
0.00022964
0.000214472
0.000199709
0.00018548
0.000171889
0.000159025
0.000147017
0.000136004
0.000126259
0.00011805
0.000112979
0.000111044
0.000116146
0.000136563
0.000344658
0.000341206
0.000337194
0.000332938
0.000328889
0.000324669
0.000320444
0.000316316
0.000312182
0.000308084
0.000303989
0.000299842
0.000295632
0.000291322
0.000286889
0.000282326
0.000277626
0.0002728
0.000267866
0.000262893
0.000257847
0.000252731
0.000247654
0.00024262
0.000237511
0.000232213
0.00022673
0.000221208
0.000215903
0.000211069
0.000206869
0.000203434
0.000200892
0.000199615
0.000199411
0.000202238
0.000203573
0.000214046
0.000222151
0.000347733
0.000350696
0.000354118
0.000357493
0.000360367
0.000362745
0.000364359
0.00036492
0.000364322
0.000362629
0.000359926
0.00035634
0.000351976
0.000346867
0.000341031
0.000334437
0.000327031
0.000318768
0.00030959
0.000299457
0.000288358
0.000276316
0.000263376
0.000249703
0.000235595
0.000221371
0.000207251
0.000193382
0.000179896
0.000166898
0.000154487
0.000142783
0.00013193
0.000122171
0.000113761
0.000108209
0.000105798
0.000110013
0.000128167
0.000322401
0.000319554
0.000316228
0.000312677
0.000309324
0.000305815
0.000302299
0.000298867
0.000295425
0.000292011
0.000288594
0.000285124
0.000281595
0.000277968
0.000274227
0.000270355
0.000266348
0.000262213
0.000257954
0.000253636
0.00024923
0.000244729
0.000240225
0.000235734
0.000231165
0.000226412
0.00022148
0.00021649
0.000211655
0.000207196
0.000203278
0.000200038
0.000197592
0.000196282
0.000195967
0.000197972
0.000200291
0.000204293
0.000217069
0.000324922
0.00032732
0.000330126
0.000332895
0.000335213
0.000337108
0.000338366
0.000338748
0.000338167
0.000336682
0.000334373
0.000331338
0.000327661
0.000323368
0.000318467
0.000312928
0.000306684
0.000299677
0.000291839
0.00028311
0.000273451
0.000262843
0.000251305
0.000238969
0.000226114
0.00021303
0.00019992
0.000186927
0.000174172
0.000161766
0.000149807
0.00013841
0.000127712
0.000117929
0.000109302
0.000103256
0.000100371
0.000103866
0.000120069
0.000301935
0.0002996
0.000296853
0.000293906
0.000291145
0.000288244
0.000285337
0.0002825
0.000279655
0.00027683
0.000274001
0.000271121
0.000268185
0.000265157
0.000262019
0.000258758
0.000255365
0.000251844
0.000248195
0.000244471
0.000240656
0.000236732
0.000232768
0.000228796
0.000224742
0.000220509
0.000216098
0.000211614
0.000207231
0.000203143
0.000199506
0.000196459
0.000194117
0.000192764
0.000192362
0.000193656
0.000196155
0.000197477
0.000207605
0.000303991
0.000305921
0.000308211
0.00031047
0.000312326
0.000313821
0.000314777
0.000315008
0.000314434
0.00031311
0.000311106
0.000308506
0.000305376
0.000301742
0.000297602
0.000292916
0.000287624
0.000281665
0.000274958
0.00026743
0.000259025
0.000249698
0.000239435
0.000228341
0.000216657
0.000204655
0.000192511
0.000180367
0.000168332
0.000156513
0.000145006
0.000133915
0.000123368
0.000113549
0.000104688
9.81303e-05
9.47605e-05
9.77018e-05
0.000112287
0.000283073
0.00028117
0.000278914
0.000276486
0.000274225
0.000271847
0.00026946
0.000267137
0.000264802
0.000262486
0.000260162
0.000257794
0.00025537
0.000252865
0.000250258
0.000247534
0.000244688
0.000241715
0.000238617
0.000235433
0.000232156
0.000228769
0.00022531
0.000221829
0.00021826
0.000214517
0.000210598
0.000206592
0.000202642
0.000198916
0.000195558
0.000192704
0.000190466
0.000189079
0.000188559
0.000189332
0.000191399
0.00019181
0.000198262
0.000284733
0.000286278
0.000288133
0.000289964
0.000291434
0.000292593
0.000293298
0.000293394
0.000292818
0.000291618
0.000289859
0.000287608
0.000284922
0.000281813
0.000278282
0.000274294
0.000269789
0.0002647
0.000258945
0.000252446
0.000245132
0.000236937
0.000227823
0.000217863
0.000207265
0.000196273
0.00018506
0.000173734
0.000162402
0.000151163
0.000140105
0.000129316
0.000118917
0.000109053
9.99357e-05
9.28412e-05
8.89746e-05
9.15083e-05
0.000104807
0.000265649
0.000264112
0.000262274
0.00026029
0.000258457
0.000256526
0.000254586
0.000252703
0.00025081
0.00024893
0.000247045
0.000245118
0.00024314
0.000241089
0.000238943
0.000236694
0.000234328
0.000231842
0.000229238
0.000226537
0.000223753
0.000220854
0.000217864
0.000214839
0.000211728
0.000208448
0.000204994
0.000201438
0.0001979
0.000194522
0.000191439
0.000188778
0.000186642
0.000185234
0.000184573
0.00018495
0.000186364
0.000186303
0.000189839
0.000266975
0.000268197
0.000269684
0.000271157
0.000272303
0.000273178
0.000273674
0.000273657
0.000273073
0.00027197
0.000270403
0.000268428
0.000266093
0.000263415
0.000260385
0.000256966
0.000253106
0.00024874
0.000243788
0.000238162
0.000231789
0.000224588
0.000216504
0.000207578
0.000197989
0.000187943
0.000177606
0.000167064
0.000156414
0.000145741
0.000135124
0.000124638
0.000114382
0.000104464
9.50657e-05
8.73969e-05
8.30062e-05
8.52971e-05
9.76526e-05
0.000249517
0.000248294
0.000246812
0.000245206
0.000243741
0.000242191
0.000240635
0.000239128
0.000237617
0.000236114
0.000234607
0.00023306
0.000231471
0.000229812
0.00022807
0.000226234
0.000224291
0.000222238
0.000220072
0.000217806
0.000215463
0.000213012
0.000210454
0.000207854
0.000205168
0.000202317
0.000199293
0.000196158
0.000193011
0.00018997
0.000187154
0.000184683
0.000182652
0.000181224
0.000180426
0.000180454
0.000181222
0.000180684
0.000182116
0.000250566
0.000251515
0.000252691
0.000253862
0.000254736
0.000255373
0.000255692
0.000255576
0.000254982
0.000253953
0.000252542
0.000250791
0.000248743
0.000246411
0.000243788
0.000240839
0.000237512
0.000233745
0.000229466
0.000224588
0.000219026
0.000212692
0.000205517
0.000197521
0.000188851
0.000179693
0.000170177
0.000160384
0.000150392
0.000140271
0.00013009
0.000119905
0.000109787
9.9808e-05
9.0106e-05
8.18124e-05
7.68512e-05
7.90643e-05
9.08211e-05
0.000234555
0.000233599
0.000232422
0.000231137
0.000229985
0.000228764
0.000227536
0.000226356
0.00022517
0.000223993
0.00022281
0.000221593
0.000220338
0.000219021
0.00021763
0.000216154
0.000214581
0.000212909
0.000211131
0.000209256
0.000207307
0.000205257
0.000203098
0.000200887
0.000198593
0.000196138
0.000193514
0.000190771
0.00018799
0.00018527
0.000182713
0.000180427
0.000178501
0.000177064
0.00017613
0.000175841
0.000176035
0.000174979
0.000174839
0.00023537
0.000236091
0.000237005
0.000237918
0.000238564
0.000239
0.00023917
0.000238972
0.000238367
0.000237396
0.000236107
0.000234539
0.000232725
0.000230677
0.000228385
0.00022582
0.000222934
0.000219673
0.000215958
0.00021171
0.000206846
0.000201272
0.000194903
0.000187746
0.000179915
0.000171571
0.000162823
0.000153738
0.000144373
0.00013479
0.000125037
0.00011515
0.000105172
9.5127e-05
8.50949e-05
7.61073e-05
7.04979e-05
7.28188e-05
8.43322e-05
0.000220656
0.000219923
0.000219008
0.000217997
0.000217114
0.000216174
0.000215227
0.000214328
0.00021342
0.000212523
0.00021162
0.000210687
0.000209717
0.000208697
0.00020761
0.000206446
0.000205198
0.000203858
0.000202424
0.000200897
0.000199301
0.000197611
0.000195813
0.000193955
0.000192017
0.000189928
0.000187672
0.000185291
0.000182851
0.000180432
0.000178124
0.00017602
0.000174192
0.000172757
0.0001717
0.000171121
0.00017081
0.000169259
0.000167893
0.000221268
0.0002218
0.000222495
0.000223188
0.000223644
0.000223914
0.000223956
0.000223686
0.00022307
0.000222146
0.000220957
0.000219536
0.000217912
0.000216098
0.000214082
0.000211835
0.000209316
0.000206471
0.000203232
0.000199521
0.000195253
0.000190337
0.00018468
0.000178271
0.000171201
0.000163604
0.00015557
0.00014715
0.000138387
0.000129325
0.000119993
0.000110407
0.000100575
9.04675e-05
8.0083e-05
7.03093e-05
6.39198e-05
6.6571e-05
7.82011e-05
0.000207719
0.000207179
0.000206484
0.00020571
0.000205055
0.000204355
0.00020365
0.000202989
0.000202321
0.000201663
0.000201001
0.00020031
0.00019959
0.000198825
0.000198
0.00019711
0.000196143
0.000195094
0.000193962
0.000192741
0.000191458
0.000190088
0.000188613
0.000187078
0.000185462
0.000183703
0.000181781
0.000179733
0.000177609
0.000175473
0.0001734
0.00017147
0.000169745
0.000168308
0.00016715
0.0001663
0.000165544
0.000163552
0.00016122
0.00020816
0.000208534
0.000209046
0.000209552
0.000209848
0.00020998
0.000209914
0.000209584
0.000208958
0.000208073
0.000206966
0.000205666
0.0002042
0.000202577
0.000200788
0.000198806
0.000196591
0.000194097
0.000191258
0.000188003
0.00018425
0.000179903
0.00017487
0.000169126
0.000162739
0.000155827
0.000148455
0.000140661
0.000132472
0.000123912
0.000114998
0.000105715
9.60409e-05
8.58823e-05
7.51343e-05
6.44617e-05
5.70745e-05
6.0353e-05
7.24614e-05
0.000195661
0.000195285
0.000194777
0.000194205
0.000193746
0.000193249
0.000192753
0.000192295
0.000191833
0.000191379
0.000190923
0.000190442
0.000189936
0.000189388
0.00018879
0.000188132
0.00018741
0.000186616
0.000185747
0.000184796
0.000183788
0.000182701
0.000181515
0.000180267
0.000178942
0.00017748
0.000175863
0.000174117
0.000172281
0.000170408
0.000168556
0.000166791
0.000165164
0.000163737
0.000162486
0.000161403
0.000160258
0.000157895
0.000154812
0.000195958
0.0001962
0.000196558
0.000196905
0.000197068
0.000197085
0.00019693
0.000196549
0.000195916
0.000195062
0.000194023
0.000192826
0.000191492
0.000190026
0.000188425
0.000186662
0.000184703
0.000182505
0.000180006
0.000177137
0.000173823
0.00016997
0.000165484
0.000160332
0.000154564
0.000148271
0.000141511
0.000134302
0.000126658
0.000118586
0.000110084
0.000101115
9.16178e-05
8.14385e-05
7.03384e-05
5.86425e-05
4.98874e-05
5.42263e-05
6.71631e-05
0.000184407
0.000184168
0.000183822
0.000183421
0.000183128
0.000182806
0.000182485
0.000182201
0.000181916
0.000181637
0.000181357
0.000181054
0.000180729
0.000180369
0.000179965
0.000179511
0.000178999
0.000178424
0.000177781
0.000177067
0.000176299
0.000175461
0.000174533
0.00017354
0.000172471
0.000171275
0.000169932
0.000168458
0.000166886
0.000165253
0.000163607
0.000161999
0.000160467
0.000159055
0.000157725
0.000156447
0.000154966
0.000152287
0.000148652
0.000184583
0.000184713
0.000184943
0.000185158
0.000185209
0.000185131
0.000184902
0.00018448
0.000183842
0.000183014
0.000182035
0.000180921
0.000179695
0.000178366
0.000176924
0.000175345
0.0001736
0.000171649
0.000169437
0.000166899
0.000163963
0.00016054
0.000156533
0.000151903
0.000146689
0.000140963
0.000134767
0.000128105
0.000120978
0.00011338
0.000105289
9.66503e-05
8.73621e-05
7.7211e-05
6.58086e-05
5.29883e-05
4.22062e-05
4.83291e-05
6.23714e-05
0.000173889
0.000173768
0.000173556
0.000173301
0.000173149
0.000172975
0.000172804
0.000172668
0.000172533
0.000172402
0.000172271
0.000172121
0.000171951
0.000171751
0.000171513
0.000171232
0.0001709
0.000170513
0.000170068
0.00016956
0.000169002
0.000168381
0.000167676
0.000166908
0.000166066
0.000165105
0.000164005
0.000162775
0.00016144
0.000160026
0.00015857
0.000157109
0.000155669
0.000154276
0.000152885
0.000151439
0.000149685
0.000146759
0.000142721
0.000173963
0.000174001
0.000174123
0.000174228
0.000174186
0.00017403
0.000173742
0.000173288
0.000172647
0.000171844
0.000170914
0.000169873
0.000168741
0.000167524
0.000166215
0.000164793
0.00016323
0.000161491
0.000159522
0.000157268
0.000154658
0.000151607
0.00014802
0.000143854
0.000139136
0.000133925
0.000128246
0.000122096
0.000115462
0.000108327
0.000100652
9.23617e-05
8.33269e-05
7.32795e-05
6.16869e-05
4.77592e-05
3.37503e-05
4.29472e-05
5.81727e-05
0.000164048
0.000164024
0.000163926
0.000163796
0.000163762
0.000163713
0.00016367
0.00016366
0.000163651
0.000163647
0.000163643