/*--------------------------------*- C++ -*----------------------------------*\
| =========                 |                                                 |
| \\      /  F ield         | OpenFOAM: The Open Source CFD Toolbox           |
|  \\    /   O peration     | Version:  2206                                  |
|   \\  /    A nd           | Website:  www.openfoam.com                      |
|    \\/     M anipulation  |                                                 |
\*---------------------------------------------------------------------------*/
FoamFile
{
    version     2.0;
    format      ascii;
    arch        "LSB;label=32;scalar=64";
    class       volScalarField;
    location    "150";
    object      turbulenceProperties:nuEff;
}
// * * * * * * * * * * * * * * * * * * * * * * * * * * * * * * * * * * * * * //

dimensions      [0 2 -1 0 0 0 0];

internalField   nonuniform List<scalar> 
10720
(
3.46082e-05
3.81847e-05
4.2978e-05
4.91992e-05
5.72375e-05
6.76189e-05
8.10578e-05
9.79208e-05
0.000119195
0.000145905
0.000179745
0.000224045
0.000282821
0.000363711
0.000479229
0.000651618
0.000917746
0.00135461
0.00209296
0.00348033
0.00615371
0.0122896
0.0273417
0.0694741
0.0962676
0.100766
0.100932
0.102939
0.105673
0.107203
0.106935
0.105248
0.102508
0.0988391
0.0940938
0.0881759
0.0799059
0.0701107
0.0439119
3.15253e-05
2.8862e-05
2.62472e-05
2.38513e-05
2.15985e-05
1.95168e-05
1.76686e-05
1.63095e-05
1.79553e-05
2.10077e-05
2.60461e-05
3.42365e-05
4.71923e-05
6.68346e-05
9.46324e-05
0.000132198
0.000182863
0.000254249
0.000361363
0.000530351
0.000814622
0.00130352
0.0022286
0.00395289
0.00774589
0.0154741
0.0344571
0.0688808
0.0952811
0.106214
0.109404
0.110292
0.110362
0.10984
0.108816
0.107401
0.105235
0.102782
0.093436
1.51241e-05
1.502e-05
1.49255e-05
1.48464e-05
1.47555e-05
1.46713e-05
1.46073e-05
1.45494e-05
1.45213e-05
1.45268e-05
1.45643e-05
1.47074e-05
1.54717e-05
1.76533e-05
2.37009e-05
4.03914e-05
8.05901e-05
0.000154757
0.000281523
0.000542645
0.00107659
0.00250812
0.00548003
0.0158429
0.0321966
0.0527438
0.0780454
0.106292
0.131712
0.148297
0.155422
0.156795
0.155562
0.152732
0.148784
0.143959
0.139184
0.131738
0.133837
1.5207e-05
1.53192e-05
1.5416e-05
1.55469e-05
1.5682e-05
1.58212e-05
1.59627e-05
1.60976e-05
1.60004e-05
1.5831e-05
1.56215e-05
1.53792e-05
1.51098e-05
1.48146e-05
1.44813e-05
1.41067e-05
1.36649e-05
1.3152e-05
1.25376e-05
1.18321e-05
1.10612e-05
1.04093e-05
1.00528e-05
1.00013e-05
1.00451e-05
0.000116669
0.000632933
0.00459639
0.01497
0.0298107
0.0448359
0.056058
0.0627039
0.0664025
0.0687448
0.0707006
0.0724068
0.0759665
0.0793469
1.62425e-05
1.62602e-05
1.62784e-05
1.62978e-05
1.63213e-05
1.63472e-05
1.63765e-05
1.64105e-05
1.64503e-05
1.64965e-05
1.65514e-05
1.66173e-05
1.66952e-05
1.68068e-05
1.68862e-05
1.65942e-05
1.51303e-05
1.41632e-05
1.07479e-05
9.83691e-05
1.68082e-05
6.04494e-05
7.79687e-05
0.000334761
0.00171817
0.00468533
0.0103297
0.0212617
0.0411238
0.0706204
0.105594
0.137568
0.160214
0.17371
0.181304
0.184975
0.186803
0.18257
0.191176
1.62288e-05
1.62095e-05
1.61949e-05
1.61743e-05
1.61572e-05
1.61386e-05
1.61205e-05
1.61042e-05
1.61138e-05
1.61338e-05
1.61575e-05
1.61828e-05
1.62126e-05
1.62456e-05
1.62827e-05
1.63234e-05
1.63696e-05
1.64222e-05
1.64853e-05
1.65619e-05
1.66603e-05
1.67872e-05
1.69653e-05
1.71599e-05
1.74026e-05
1.711e-05
1.71198e-05
1.23138e-05
0.000114091
0.00087803
0.00323262
0.00792193
0.0147956
0.0231099
0.0319126
0.0403849
0.0477755
0.0543905
0.0640033
1.60778e-05
1.60771e-05
1.60776e-05
1.60788e-05
1.60802e-05
1.60832e-05
1.60883e-05
1.60952e-05
1.61053e-05
1.61189e-05
1.61368e-05
1.61602e-05
1.61904e-05
1.62289e-05
1.62773e-05
1.63425e-05
1.62763e-05
1.60852e-05
1.45968e-05
1.21016e-05
1.00013e-05
1.0609e-05
1.03833e-05
4.10063e-05
0.000364153
0.00100299
0.0023219
0.00226964
0.00355277
0.00811259
0.0226015
0.0494877
0.0873823
0.127444
0.160436
0.184008
0.201342
0.210371
0.225956
1.60765e-05
1.6078e-05
1.60787e-05
1.60806e-05
1.60847e-05
1.60882e-05
1.60908e-05
1.60939e-05
1.60933e-05
1.60916e-05
1.60888e-05
1.60858e-05
1.60833e-05
1.6081e-05
1.60787e-05
1.60761e-05
1.60733e-05
1.607e-05
1.60667e-05
1.60635e-05
1.606e-05
1.60562e-05
1.60514e-05
1.60471e-05
1.60422e-05
1.60486e-05
1.60365e-05
1.61329e-05
1.59053e-05
1.6409e-05
1.39594e-05
1.40636e-05
0.000257868
0.00113034
0.00323363
0.00722537
0.0135574
0.0224127
0.0399377
1.61017e-05
1.61022e-05
1.61026e-05
1.61032e-05
1.61045e-05
1.61062e-05
1.61086e-05
1.61118e-05
1.61161e-05
1.61216e-05
1.61289e-05
1.61383e-05
1.61506e-05
1.61665e-05
1.61879e-05
1.62129e-05
1.62484e-05
1.62795e-05
1.63928e-05
1.66046e-05
1.43483e-05
1.15056e-05
1e-05
1.0002e-05
1e-05
1e-05
1e-05
0.000499545
0.00079063
1.0472e-05
0.000334839
0.00359338
0.0162962
0.0443665
0.0875008
0.135089
0.177346
0.210049
0.240087
1.60999e-05
1.60981e-05
1.6097e-05
1.60948e-05
1.60949e-05
1.60947e-05
1.60937e-05
1.60934e-05
1.60944e-05
1.6096e-05
1.60973e-05
1.60991e-05
1.61012e-05
1.61031e-05
1.61053e-05
1.61077e-05
1.61104e-05
1.61133e-05
1.61166e-05
1.61202e-05
1.6124e-05
1.61282e-05
1.61328e-05
1.61378e-05
1.61441e-05
1.61494e-05
1.61656e-05
1.61405e-05
1.63113e-05
1.563e-05
1.92048e-05
1.03276e-05
4.10425e-05
1e-05
0.00076502
0.00172953
0.00080064
0.00179338
0.0140635
1.60954e-05
1.60954e-05
1.60961e-05
1.60969e-05
1.60975e-05
1.60984e-05
1.60996e-05
1.6101e-05
1.61028e-05
1.61052e-05
1.61081e-05
1.61121e-05
1.61173e-05
1.6124e-05
1.61331e-05
1.61449e-05
1.61612e-05
1.61781e-05
1.62154e-05
1.63046e-05
1.65739e-05
1.63066e-05
1.3788e-05
1.13052e-05
1.00002e-05
1.00048e-05
1.0002e-05
1e-05
1e-05
1.00012e-05
4.88174e-05
0.000822691
0.00383976
0.00376761
0.0198036
0.05797
0.115296
0.17743
0.231812
1.60941e-05
1.60936e-05
1.6093e-05
1.60915e-05
1.60912e-05
1.60917e-05
1.60914e-05
1.60923e-05
1.60937e-05
1.6095e-05
1.60962e-05
1.60974e-05
1.60985e-05
1.60995e-05
1.61005e-05
1.61016e-05
1.61028e-05
1.6104e-05
1.61053e-05
1.61067e-05
1.61081e-05
1.61094e-05
1.61107e-05
1.61119e-05
1.61129e-05
1.61138e-05
1.61146e-05
1.61163e-05
1.61171e-05
1.61213e-05
1.61262e-05
1.60862e-05
1.5603e-05
1.29718e-05
1.00211e-05
1.00027e-05
0.000187905
0.000475426
0.0024984
1.60942e-05
1.6094e-05
1.60944e-05
1.60948e-05
1.60951e-05
1.60955e-05
1.60961e-05
1.60966e-05
1.60971e-05
1.60979e-05
1.60991e-05
1.61005e-05
1.61024e-05
1.61049e-05
1.61082e-05
1.61127e-05
1.61185e-05
1.6125e-05
1.61335e-05
1.61378e-05
1.61981e-05
1.64267e-05
1.66107e-05
1.63527e-05
1.4811e-05
1.25723e-05
1.11541e-05
1.0007e-05
1.00066e-05
1.00006e-05
1e-05
1e-05
1e-05
0.000875119
0.00481377
0.00904822
0.0438927
0.116582
0.198578
1.60933e-05
1.60932e-05
1.6093e-05
1.60919e-05
1.60908e-05
1.6091e-05
1.6091e-05
1.60921e-05
1.60937e-05
1.6095e-05
1.60962e-05
1.60973e-05
1.60984e-05
1.60993e-05
1.61003e-05
1.61014e-05
1.61026e-05
1.61039e-05
1.61053e-05
1.61069e-05
1.61087e-05
1.61106e-05
1.61128e-05
1.61151e-05
1.61178e-05
1.61209e-05
1.61246e-05
1.6129e-05
1.61339e-05
1.61407e-05
1.61446e-05
1.61722e-05
1.61627e-05
1.58015e-05
1.53445e-05
1.10509e-05
1.00102e-05
1e-05
9.25102e-05
1.60922e-05
1.6092e-05
1.60926e-05
1.60932e-05
1.60938e-05
1.60947e-05
1.60957e-05
1.60967e-05
1.60979e-05
1.60992e-05
1.61006e-05
1.61022e-05
1.6104e-05
1.61059e-05
1.61083e-05
1.61111e-05
1.61148e-05
1.61191e-05
1.61236e-05
1.61258e-05
1.61309e-05
1.61467e-05
1.62538e-05
1.64231e-05
1.68294e-05
1.68248e-05
1.65794e-05
1.50117e-05
1.28124e-05
1.03291e-05
1.00124e-05
1.00007e-05
1e-05
1e-05
1e-05
0.00221074
0.00425292
0.0512667
0.144364
1.60917e-05
1.60921e-05
1.60923e-05
1.60918e-05
1.60903e-05
1.60903e-05
1.60906e-05
1.6092e-05
1.60934e-05
1.60946e-05
1.60957e-05
1.60967e-05
1.60977e-05
1.60985e-05
1.60994e-05
1.61003e-05
1.61012e-05
1.61023e-05
1.61035e-05
1.61047e-05
1.61061e-05
1.61075e-05
1.61091e-05
1.61108e-05
1.61125e-05
1.61145e-05
1.61167e-05
1.6119e-05
1.61216e-05
1.61242e-05
1.61272e-05
1.6129e-05
1.61364e-05
1.61225e-05
1.63346e-05
1.56168e-05
1.28174e-05
1.00169e-05
1.11234e-05
1.60908e-05
1.60907e-05
1.60913e-05
1.6092e-05
1.60927e-05
1.60936e-05
1.60945e-05
1.60954e-05
1.60963e-05
1.60973e-05
1.60982e-05
1.60992e-05
1.61001e-05
1.6101e-05
1.61018e-05
1.61024e-05
1.61032e-05
1.61042e-05
1.61053e-05
1.61066e-05
1.61085e-05
1.61094e-05
1.61167e-05
1.61239e-05
1.62254e-05
1.6442e-05
1.67118e-05
1.7192e-05
1.72519e-05
1.6066e-05
1.40095e-05
1.03414e-05
1.00098e-05
1e-05
1e-05
1e-05
0.00119055
0.00904985
0.0844079
1.60905e-05
1.60912e-05
1.60918e-05
1.60918e-05
1.60901e-05
1.609e-05
1.60905e-05
1.60917e-05
1.6093e-05
1.60941e-05
1.60951e-05
1.60961e-05
1.6097e-05
1.60978e-05
1.60986e-05
1.60994e-05
1.61002e-05
1.61011e-05
1.61021e-05
1.61033e-05
1.61045e-05
1.61059e-05
1.61074e-05
1.61091e-05
1.6111e-05
1.61131e-05
1.61157e-05
1.61185e-05
1.61218e-05
1.61256e-05
1.61299e-05
1.61347e-05
1.61411e-05
1.61427e-05
1.61816e-05
1.62578e-05
1.67024e-05
1.43117e-05
1.00023e-05
1.60897e-05
1.60898e-05
1.60906e-05
1.60914e-05
1.60922e-05
1.60931e-05
1.6094e-05
1.60949e-05
1.60959e-05
1.60969e-05
1.60979e-05
1.6099e-05
1.61002e-05
1.61014e-05
1.61028e-05
1.61043e-05
1.61059e-05
1.61078e-05
1.61097e-05
1.61113e-05
1.61125e-05
1.61139e-05
1.61152e-05
1.61095e-05
1.60966e-05
1.61137e-05
1.61745e-05
1.63678e-05
1.67088e-05
1.71632e-05
1.75862e-05
1.59829e-05
1.30861e-05
1e-05
1.00001e-05
1e-05
1e-05
0.00294687
0.0407544
1.60896e-05
1.60905e-05
1.60913e-05
1.60918e-05
1.60901e-05
1.60898e-05
1.60904e-05
1.60915e-05
1.60926e-05
1.60936e-05
1.60945e-05
1.60954e-05
1.60962e-05
1.6097e-05
1.60977e-05
1.60984e-05
1.60992e-05
1.61e-05
1.61008e-05
1.61018e-05
1.61029e-05
1.61041e-05
1.61054e-05
1.61069e-05
1.61086e-05
1.61104e-05
1.61125e-05
1.61149e-05
1.61176e-05
1.61207e-05
1.61239e-05
1.61278e-05
1.61311e-05
1.61403e-05
1.61275e-05
1.62317e-05
1.58814e-05
1.88605e-05
1.05068e-05
1.60891e-05
1.60893e-05
1.60902e-05
1.60911e-05
1.60919e-05
1.60928e-05
1.60936e-05
1.60944e-05
1.60952e-05
1.60961e-05
1.60969e-05
1.60978e-05
1.60988e-05
1.60998e-05
1.61008e-05
1.61019e-05
1.61031e-05
1.61042e-05
1.61055e-05
1.61071e-05
1.6109e-05
1.61113e-05
1.61141e-05
1.61169e-05
1.61131e-05
1.61026e-05
1.60917e-05
1.6093e-05
1.61527e-05
1.63224e-05
1.67122e-05
1.72182e-05
1.75109e-05
1.47435e-05
1.00239e-05
1.00001e-05
1e-05
0.000358688
0.0168439
1.6089e-05
1.60899e-05
1.60908e-05
1.60916e-05
1.60901e-05
1.60896e-05
1.60902e-05
1.60912e-05
1.60922e-05
1.60931e-05
1.6094e-05
1.60948e-05
1.60955e-05
1.60962e-05
1.60969e-05
1.60975e-05
1.60982e-05
1.60989e-05
1.60997e-05
1.61005e-05
1.61015e-05
1.61026e-05
1.61038e-05
1.61051e-05
1.61067e-05
1.61084e-05
1.61104e-05
1.61127e-05
1.61154e-05
1.61184e-05
1.61217e-05
1.61258e-05
1.61292e-05
1.61379e-05
1.61265e-05
1.62056e-05
1.58891e-05
1.72617e-05
1.43125e-05
1.60887e-05
1.60892e-05
1.60902e-05
1.6091e-05
1.60918e-05
1.60926e-05
1.60934e-05
1.6094e-05
1.60947e-05
1.60955e-05
1.60962e-05
1.6097e-05
1.60979e-05
1.60988e-05
1.60999e-05
1.6101e-05
1.61022e-05
1.61035e-05
1.6105e-05
1.61065e-05
1.61082e-05
1.611e-05
1.61123e-05
1.61154e-05
1.61185e-05
1.61188e-05
1.6115e-05
1.61042e-05
1.60905e-05
1.60915e-05
1.61483e-05
1.63744e-05
1.67646e-05
1.79897e-05
1.59505e-05
1.00161e-05
1e-05
0.000120447
0.00589596
1.60885e-05
1.60893e-05
1.60903e-05
1.60913e-05
1.609e-05
1.60895e-05
1.609e-05
1.60909e-05
1.60918e-05
1.60926e-05
1.60934e-05
1.60942e-05
1.60948e-05
1.60955e-05
1.60961e-05
1.60967e-05
1.60973e-05
1.60979e-05
1.60986e-05
1.60994e-05
1.61002e-05
1.61011e-05
1.61022e-05
1.61034e-05
1.61048e-05
1.61063e-05
1.61082e-05
1.61102e-05
1.61126e-05
1.61153e-05
1.61183e-05
1.61218e-05
1.61254e-05
1.6131e-05
1.61315e-05
1.61558e-05
1.60962e-05
1.62654e-05
1.62089e-05
1.60885e-05
1.60891e-05
1.60902e-05
1.6091e-05
1.60918e-05
1.60925e-05
1.60931e-05
1.60937e-05
1.60943e-05
1.60949e-05
1.60955e-05
1.60962e-05
1.60969e-05
1.60977e-05
1.60986e-05
1.60996e-05
1.61007e-05
1.61018e-05
1.61031e-05
1.61045e-05
1.61061e-05
1.6108e-05
1.61101e-05
1.61126e-05
1.61157e-05
1.61192e-05
1.61222e-05
1.61233e-05
1.61191e-05
1.61098e-05
1.60935e-05
1.61082e-05
1.61482e-05
1.65286e-05
1.83021e-05
1.51368e-05
1.0005e-05
1.50315e-05
0.00166307
1.60881e-05
1.60889e-05
1.60898e-05
1.6091e-05
1.60898e-05
1.60894e-05
1.60899e-05
1.60906e-05
1.60914e-05
1.60922e-05
1.60929e-05
1.60935e-05
1.60942e-05
1.60948e-05
1.60953e-05
1.60959e-05
1.60964e-05
1.6097e-05
1.60976e-05
1.60983e-05
1.6099e-05
1.60998e-05
1.61007e-05
1.61018e-05
1.6103e-05
1.61045e-05
1.61061e-05
1.61081e-05
1.61103e-05
1.61128e-05
1.61156e-05
1.61188e-05
1.61225e-05
1.61266e-05
1.61319e-05
1.61349e-05
1.61545e-05
1.60953e-05
1.63189e-05
1.60884e-05
1.60891e-05
1.60902e-05
1.6091e-05
1.60917e-05
1.60924e-05
1.60929e-05
1.60933e-05
1.60938e-05
1.60943e-05
1.60948e-05
1.60954e-05
1.60961e-05
1.60968e-05
1.60977e-05
1.60986e-05
1.60996e-05
1.61006e-05
1.61018e-05
1.61032e-05
1.61047e-05
1.61064e-05
1.61083e-05
1.61105e-05
1.6113e-05
1.6116e-05
1.61195e-05
1.61236e-05
1.61272e-05
1.61293e-05
1.6126e-05
1.61184e-05
1.60976e-05
1.60586e-05
1.6383e-05
1.9478e-05
1.10605e-05
1.00064e-05
0.000265436
1.60879e-05
1.60885e-05
1.60895e-05
1.60907e-05
1.60897e-05
1.60893e-05
1.60897e-05
1.60904e-05
1.60911e-05
1.60917e-05
1.60924e-05
1.6093e-05
1.60936e-05
1.60941e-05
1.60946e-05
1.60951e-05
1.60956e-05
1.60961e-05
1.60967e-05
1.60972e-05
1.60979e-05
1.60986e-05
1.60994e-05
1.61004e-05
1.61015e-05
1.61028e-05
1.61043e-05
1.6106e-05
1.6108e-05
1.61103e-05
1.61129e-05
1.61159e-05
1.61193e-05
1.6123e-05
1.61282e-05
1.61306e-05
1.61472e-05
1.612e-05
1.61997e-05
1.60884e-05
1.60892e-05
1.60903e-05
1.6091e-05
1.60916e-05
1.60922e-05
1.60926e-05
1.6093e-05
1.60934e-05
1.60938e-05
1.60943e-05
1.60948e-05
1.60954e-05
1.6096e-05
1.60968e-05
1.60976e-05
1.60985e-05
1.60995e-05
1.61006e-05
1.61018e-05
1.61031e-05
1.61047e-05
1.61065e-05
1.61086e-05
1.61109e-05
1.61135e-05
1.61164e-05
1.612e-05
1.61242e-05
1.61292e-05
1.61342e-05
1.61389e-05
1.61339e-05
1.6128e-05
1.58599e-05
1.72374e-05
1.79633e-05
1e-05
3.29529e-05
1.60878e-05
1.60884e-05
1.60893e-05
1.60905e-05
1.60897e-05
1.60892e-05
1.60895e-05
1.60901e-05
1.60907e-05
1.60913e-05
1.60919e-05
1.60924e-05
1.6093e-05
1.60935e-05
1.60939e-05
1.60944e-05
1.60948e-05
1.60953e-05
1.60958e-05
1.60963e-05
1.60969e-05
1.60975e-05
1.60982e-05
1.60991e-05
1.61e-05
1.61012e-05
1.61025e-05
1.61041e-05
1.61059e-05
1.6108e-05
1.61104e-05
1.61132e-05
1.61163e-05
1.61199e-05
1.61242e-05
1.61284e-05
1.61363e-05
1.61381e-05
1.61537e-05
1.60885e-05
1.60894e-05
1.60904e-05
1.60911e-05
1.60916e-05
1.6092e-05
1.60924e-05
1.60927e-05
1.6093e-05
1.60934e-05
1.60938e-05
1.60942e-05
1.60948e-05
1.60953e-05
1.6096e-05
1.60967e-05
1.60976e-05
1.60985e-05
1.60995e-05
1.61006e-05
1.61019e-05
1.61033e-05
1.6105e-05
1.61069e-05
1.6109e-05
1.61114e-05
1.6114e-05
1.61171e-05
1.61207e-05
1.61251e-05
1.61305e-05
1.61379e-05
1.61446e-05
1.61574e-05
1.61185e-05
1.55854e-05
2.14979e-05
1.00067e-05
1e-05
1.6088e-05
1.60885e-05
1.60892e-05
1.60904e-05
1.60896e-05
1.60892e-05
1.60894e-05
1.60899e-05
1.60904e-05
1.60909e-05
1.60914e-05
1.60919e-05
1.60924e-05
1.60929e-05
1.60933e-05
1.60937e-05
1.60941e-05
1.60945e-05
1.6095e-05
1.60954e-05
1.60959e-05
1.60965e-05
1.60971e-05
1.60978e-05
1.60987e-05
1.60997e-05
1.61009e-05
1.61024e-05
1.6104e-05
1.61059e-05
1.61081e-05
1.61106e-05
1.61135e-05
1.61168e-05
1.61206e-05
1.61252e-05
1.61304e-05
1.61384e-05
1.61443e-05
1.60888e-05
1.60896e-05
1.60906e-05
1.60911e-05
1.60916e-05
1.60919e-05
1.60922e-05
1.60924e-05
1.60927e-05
1.6093e-05
1.60934e-05
1.60938e-05
1.60942e-05
1.60947e-05
1.60953e-05
1.6096e-05
1.60968e-05
1.60976e-05
1.60985e-05
1.60995e-05
1.61007e-05
1.6102e-05
1.61035e-05
1.61053e-05
1.61072e-05
1.61094e-05
1.61119e-05
1.61147e-05
1.6118e-05
1.61218e-05
1.61265e-05
1.61315e-05
1.61443e-05
1.61279e-05
1.63081e-05
1.53693e-05
1.9602e-05
1.11953e-05
1.00002e-05
1.60883e-05
1.60886e-05
1.60892e-05
1.60903e-05
1.60896e-05
1.60892e-05
1.60893e-05
1.60897e-05
1.60902e-05
1.60906e-05
1.6091e-05
1.60915e-05
1.60919e-05
1.60923e-05
1.60927e-05
1.60931e-05
1.60935e-05
1.60938e-05
1.60942e-05
1.60946e-05
1.60951e-05
1.60955e-05
1.60961e-05
1.60967e-05
1.60975e-05
1.60984e-05
1.60995e-05
1.61008e-05
1.61022e-05
1.6104e-05
1.61059e-05
1.61082e-05
1.61109e-05
1.61139e-05
1.61174e-05
1.61217e-05
1.61265e-05
1.61338e-05
1.6141e-05
1.60892e-05
1.60899e-05
1.60908e-05
1.60912e-05
1.60916e-05
1.60918e-05
1.6092e-05
1.60922e-05
1.60925e-05
1.60927e-05
1.6093e-05
1.60934e-05
1.60938e-05
1.60942e-05
1.60948e-05
1.60954e-05
1.60961e-05
1.60968e-05
1.60977e-05
1.60986e-05
1.60996e-05
1.61008e-05
1.61022e-05
1.61038e-05
1.61056e-05
1.61076e-05
1.61099e-05
1.61125e-05
1.61155e-05
1.6119e-05
1.61235e-05
1.61269e-05
1.61406e-05
1.61145e-05
1.6282e-05
1.57456e-05
1.71398e-05
1.61339e-05
1.00354e-05
1.60887e-05
1.60889e-05
1.60893e-05
1.60903e-05
1.60896e-05
1.60892e-05
1.60892e-05
1.60896e-05
1.60899e-05
1.60903e-05
1.60907e-05
1.60911e-05
1.60915e-05
1.60918e-05
1.60922e-05
1.60925e-05
1.60929e-05
1.60932e-05
1.60935e-05
1.60939e-05
1.60943e-05
1.60947e-05
1.60952e-05
1.60957e-05
1.60964e-05
1.60972e-05
1.60982e-05
1.60993e-05
1.61006e-05
1.61021e-05
1.61039e-05
1.6106e-05
1.61084e-05
1.61112e-05
1.61145e-05
1.61183e-05
1.61229e-05
1.61292e-05
1.61371e-05
1.60896e-05
1.60903e-05
1.6091e-05
1.60913e-05
1.60916e-05
1.60918e-05
1.60919e-05
1.60921e-05
1.60923e-05
1.60925e-05
1.60927e-05
1.6093e-05
1.60934e-05
1.60938e-05
1.60943e-05
1.60948e-05
1.60955e-05
1.60961e-05
1.60969e-05
1.60978e-05
1.60987e-05
1.60998e-05
1.61011e-05
1.61025e-05
1.61042e-05
1.6106e-05
1.61081e-05
1.61105e-05
1.61132e-05
1.61165e-05
1.61206e-05
1.6124e-05
1.61345e-05
1.61224e-05
1.61916e-05
1.60923e-05
1.59892e-05
1.83643e-05
1.12705e-05
1.60891e-05
1.60893e-05
1.60894e-05
1.60903e-05
1.60897e-05
1.60892e-05
1.60892e-05
1.60894e-05
1.60898e-05
1.60901e-05
1.60904e-05
1.60907e-05
1.60911e-05
1.60914e-05
1.60917e-05
1.6092e-05
1.60923e-05
1.60926e-05
1.60929e-05
1.60932e-05
1.60935e-05
1.60939e-05
1.60943e-05
1.60948e-05
1.60954e-05
1.60961e-05
1.60969e-05
1.60979e-05
1.60991e-05
1.61005e-05
1.61021e-05
1.6104e-05
1.61061e-05
1.61087e-05
1.61116e-05
1.61152e-05
1.61195e-05
1.61251e-05
1.61328e-05
1.609e-05
1.60906e-05
1.60912e-05
1.60914e-05
1.60916e-05
1.60917e-05
1.60918e-05
1.60919e-05
1.60921e-05
1.60923e-05
1.60925e-05
1.60927e-05
1.60931e-05
1.60934e-05
1.60939e-05
1.60943e-05
1.60949e-05
1.60955e-05
1.60962e-05
1.6097e-05
1.60979e-05
1.60989e-05
1.61001e-05
1.61014e-05
1.61029e-05
1.61045e-05
1.61064e-05
1.61086e-05
1.61111e-05
1.61141e-05
1.61178e-05
1.61216e-05
1.61281e-05
1.61313e-05
1.61352e-05
1.62246e-05
1.57816e-05
1.7716e-05
1.4171e-05
1.60897e-05
1.60897e-05
1.60897e-05
1.60903e-05
1.60897e-05
1.60892e-05
1.60892e-05
1.60894e-05
1.60896e-05
1.60899e-05
1.60902e-05
1.60904e-05
1.60907e-05
1.6091e-05
1.60913e-05
1.60915e-05
1.60918e-05
1.60921e-05
1.60923e-05
1.60926e-05
1.60929e-05
1.60932e-05
1.60935e-05
1.60939e-05
1.60945e-05
1.60951e-05
1.60958e-05
1.60967e-05
1.60977e-05
1.6099e-05
1.61004e-05
1.61021e-05
1.6104e-05
1.61063e-05
1.61091e-05
1.61123e-05
1.61163e-05
1.61214e-05
1.61286e-05
1.60905e-05
1.60909e-05
1.60914e-05
1.60915e-05
1.60916e-05
1.60917e-05
1.60918e-05
1.60918e-05
1.6092e-05
1.60921e-05
1.60923e-05
1.60925e-05
1.60928e-05
1.60931e-05
1.60935e-05
1.60939e-05
1.60944e-05
1.6095e-05
1.60956e-05
1.60963e-05
1.60971e-05
1.60981e-05
1.60991e-05
1.61003e-05
1.61017e-05
1.61032e-05
1.61049e-05
1.61069e-05
1.61092e-05
1.6112e-05
1.61152e-05
1.61192e-05
1.61234e-05
1.61327e-05
1.61194e-05
1.62181e-05
1.59183e-05
1.67577e-05
1.59947e-05
1.60902e-05
1.60903e-05
1.60901e-05
1.60904e-05
1.60898e-05
1.60893e-05
1.60892e-05
1.60893e-05
1.60895e-05
1.60897e-05
1.609e-05
1.60902e-05
1.60905e-05
1.60907e-05
1.60909e-05
1.60911e-05
1.60914e-05
1.60916e-05
1.60918e-05
1.6092e-05
1.60923e-05
1.60926e-05
1.60928e-05
1.60932e-05
1.60936e-05
1.60942e-05
1.60948e-05
1.60956e-05
1.60965e-05
1.60976e-05
1.60989e-05
1.61004e-05
1.61021e-05
1.61042e-05
1.61067e-05
1.61096e-05
1.61133e-05
1.6118e-05
1.61247e-05
1.60909e-05
1.60912e-05
1.60916e-05
1.60916e-05
1.60917e-05
1.60917e-05
1.60917e-05
1.60918e-05
1.60919e-05
1.60919e-05
1.60921e-05
1.60923e-05
1.60925e-05
1.60928e-05
1.60931e-05
1.60935e-05
1.6094e-05
1.60945e-05
1.60951e-05
1.60957e-05
1.60965e-05
1.60973e-05
1.60983e-05
1.60993e-05
1.61006e-05
1.6102e-05
1.61035e-05
1.61054e-05
1.61075e-05
1.611e-05
1.61129e-05
1.61167e-05
1.61201e-05
1.6129e-05
1.61213e-05
1.61759e-05
1.60669e-05
1.62635e-05
1.64274e-05
1.60907e-05
1.60908e-05
1.60906e-05
1.60905e-05
1.60899e-05
1.60894e-05
1.60893e-05
1.60894e-05
1.60895e-05
1.60897e-05
1.60899e-05
1.609e-05
1.60902e-05
1.60904e-05
1.60906e-05
1.60908e-05
1.6091e-05
1.60912e-05
1.60914e-05
1.60916e-05
1.60918e-05
1.6092e-05
1.60922e-05
1.60925e-05
1.60929e-05
1.60933e-05
1.60939e-05
1.60946e-05
1.60954e-05
1.60963e-05
1.60975e-05
1.60988e-05
1.61004e-05
1.61022e-05
1.61045e-05
1.61071e-05
1.61105e-05
1.61148e-05
1.6121e-05
1.60912e-05
1.60914e-05
1.60917e-05
1.60917e-05
1.60917e-05
1.60917e-05
1.60917e-05
1.60917e-05
1.60918e-05
1.60918e-05
1.60919e-05
1.60921e-05
1.60923e-05
1.60925e-05
1.60928e-05
1.60932e-05
1.60936e-05
1.6094e-05
1.60946e-05
1.60952e-05
1.60958e-05
1.60966e-05
1.60975e-05
1.60984e-05
1.60996e-05
1.61008e-05
1.61023e-05
1.61039e-05
1.61059e-05
1.61081e-05
1.61108e-05
1.61142e-05
1.61176e-05
1.61242e-05
1.61247e-05
1.61451e-05
1.61375e-05
1.61181e-05
1.63459e-05
1.60912e-05
1.60913e-05
1.6091e-05
1.60907e-05
1.609e-05
1.60896e-05
1.60894e-05
1.60894e-05
1.60895e-05
1.60896e-05
1.60898e-05
1.60899e-05
1.609e-05
1.60902e-05
1.60903e-05
1.60905e-05
1.60906e-05
1.60908e-05
1.60909e-05
1.60911e-05
1.60913e-05
1.60915e-05
1.60917e-05
1.60919e-05
1.60922e-05
1.60926e-05
1.60931e-05
1.60937e-05
1.60944e-05
1.60952e-05
1.60962e-05
1.60974e-05
1.60988e-05
1.61004e-05
1.61024e-05
1.61048e-05
1.61079e-05
1.61118e-05
1.61175e-05
1.60915e-05
1.60916e-05
1.60919e-05
1.60918e-05
1.60918e-05
1.60918e-05
1.60918e-05
1.60917e-05
1.60917e-05
1.60918e-05
1.60919e-05
1.6092e-05
1.60922e-05
1.60924e-05
1.60926e-05
1.60929e-05
1.60933e-05
1.60937e-05
1.60942e-05
1.60947e-05
1.60953e-05
1.6096e-05
1.60967e-05
1.60976e-05
1.60986e-05
1.60998e-05
1.61011e-05
1.61026e-05
1.61044e-05
1.61064e-05
1.61089e-05
1.61119e-05
1.61153e-05
1.61201e-05
1.61248e-05
1.6131e-05
1.61511e-05
1.61118e-05
1.62245e-05
1.60915e-05
1.60917e-05
1.60914e-05
1.60909e-05
1.60902e-05
1.60897e-05
1.60895e-05
1.60895e-05
1.60896e-05
1.60896e-05
1.60897e-05
1.60898e-05
1.60899e-05
1.609e-05
1.60901e-05
1.60902e-05
1.60903e-05
1.60904e-05
1.60906e-05
1.60907e-05
1.60908e-05
1.6091e-05
1.60911e-05
1.60913e-05
1.60916e-05
1.60919e-05
1.60923e-05
1.60928e-05
1.60934e-05
1.60942e-05
1.6095e-05
1.60961e-05
1.60973e-05
1.60988e-05
1.61006e-05
1.61027e-05
1.61055e-05
1.6109e-05
1.61142e-05
1.60917e-05
1.60919e-05
1.60921e-05
1.6092e-05
1.60919e-05
1.60919e-05
1.60918e-05
1.60918e-05
1.60918e-05
1.60918e-05
1.60919e-05
1.6092e-05
1.60921e-05
1.60923e-05
1.60925e-05
1.60928e-05
1.60931e-05
1.60935e-05
1.60939e-05
1.60943e-05
1.60949e-05
1.60955e-05
1.60962e-05
1.60969e-05
1.60978e-05
1.60988e-05
1.61e-05
1.61014e-05
1.6103e-05
1.61049e-05
1.61071e-05
1.61098e-05
1.6113e-05
1.61169e-05
1.61224e-05
1.61259e-05
1.61437e-05
1.61303e-05
1.61651e-05
1.60919e-05
1.60921e-05
1.60917e-05
1.6091e-05
1.60904e-05
1.60899e-05
1.60897e-05
1.60897e-05
1.60896e-05
1.60896e-05
1.60897e-05
1.60897e-05
1.60898e-05
1.60898e-05
1.60899e-05
1.609e-05
1.60901e-05
1.60901e-05
1.60902e-05
1.60903e-05
1.60904e-05
1.60905e-05
1.60907e-05
1.60908e-05
1.6091e-05
1.60913e-05
1.60916e-05
1.60921e-05
1.60926e-05
1.60932e-05
1.6094e-05
1.60949e-05
1.6096e-05
1.60973e-05
1.60989e-05
1.61008e-05
1.61033e-05
1.61065e-05
1.61111e-05
1.6092e-05
1.60921e-05
1.60923e-05
1.60921e-05
1.6092e-05
1.6092e-05
1.60919e-05
1.60919e-05
1.60919e-05
1.60919e-05
1.6092e-05
1.60921e-05
1.60922e-05
1.60924e-05
1.60926e-05
1.60928e-05
1.60931e-05
1.60934e-05
1.60937e-05
1.60941e-05
1.60946e-05
1.60951e-05
1.60957e-05
1.60964e-05
1.60972e-05
1.6098e-05
1.60991e-05
1.61003e-05
1.61017e-05
1.61034e-05
1.61054e-05
1.61079e-05
1.61108e-05
1.61143e-05
1.61192e-05
1.61234e-05
1.61343e-05
1.61392e-05
1.61476e-05
1.60922e-05
1.60924e-05
1.6092e-05
1.60913e-05
1.60906e-05
1.60902e-05
1.60899e-05
1.60898e-05
1.60897e-05
1.60897e-05
1.60896e-05
1.60896e-05
1.60896e-05
1.60897e-05
1.60897e-05
1.60897e-05
1.60898e-05
1.60898e-05
1.60899e-05
1.609e-05
1.609e-05
1.60901e-05
1.60902e-05
1.60903e-05
1.60905e-05
1.60907e-05
1.6091e-05
1.60914e-05
1.60918e-05
1.60923e-05
1.6093e-05
1.60938e-05
1.60947e-05
1.60959e-05
1.60973e-05
1.6099e-05
1.61012e-05
1.61041e-05
1.61083e-05
1.60923e-05
1.60924e-05
1.60925e-05
1.60923e-05
1.60922e-05
1.60921e-05
1.60921e-05
1.60921e-05
1.60921e-05
1.60921e-05
1.60922e-05
1.60923e-05
1.60924e-05
1.60925e-05
1.60927e-05
1.60929e-05
1.60931e-05
1.60933e-05
1.60937e-05
1.6094e-05
1.60944e-05
1.60948e-05
1.60954e-05
1.60959e-05
1.60966e-05
1.60974e-05
1.60983e-05
1.60994e-05
1.61006e-05
1.61021e-05
1.61039e-05
1.61061e-05
1.61088e-05
1.61119e-05
1.61161e-05
1.61209e-05
1.61277e-05
1.61383e-05
1.61439e-05
1.60926e-05
1.60927e-05
1.60924e-05
1.60915e-05
1.60909e-05
1.60904e-05
1.60901e-05
1.60899e-05
1.60898e-05
1.60897e-05
1.60896e-05
1.60895e-05
1.60895e-05
1.60895e-05
1.60895e-05
1.60895e-05
1.60895e-05
1.60896e-05
1.60896e-05
1.60896e-05
1.60897e-05
1.60897e-05
1.60898e-05
1.60899e-05
1.609e-05
1.60902e-05
1.60904e-05
1.60907e-05
1.60911e-05
1.60915e-05
1.60921e-05
1.60928e-05
1.60936e-05
1.60946e-05
1.60958e-05
1.60974e-05
1.60994e-05
1.61019e-05
1.61056e-05
1.60926e-05
1.60926e-05
1.60926e-05
1.60924e-05
1.60924e-05
1.60923e-05
1.60923e-05
1.60923e-05
1.60923e-05
1.60924e-05
1.60924e-05
1.60925e-05
1.60926e-05
1.60927e-05
1.60928e-05
1.6093e-05
1.60932e-05
1.60934e-05
1.60937e-05
1.6094e-05
1.60943e-05
1.60947e-05
1.60951e-05
1.60956e-05
1.60962e-05
1.60969e-05
1.60977e-05
1.60986e-05
1.60997e-05
1.6101e-05
1.61026e-05
1.61045e-05
1.61069e-05
1.61098e-05
1.61134e-05
1.61181e-05
1.61234e-05
1.61336e-05
1.6141e-05
1.60929e-05
1.6093e-05
1.60926e-05
1.60917e-05
1.60912e-05
1.60907e-05
1.60903e-05
1.60901e-05
1.60898e-05
1.60897e-05
1.60895e-05
1.60895e-05
1.60894e-05
1.60894e-05
1.60893e-05
1.60893e-05
1.60893e-05
1.60893e-05
1.60893e-05
1.60893e-05
1.60894e-05
1.60894e-05
1.60894e-05
1.60894e-05
1.60895e-05
1.60897e-05
1.60899e-05
1.60901e-05
1.60904e-05
1.60908e-05
1.60913e-05
1.60918e-05
1.60925e-05
1.60934e-05
1.60945e-05
1.60959e-05
1.60976e-05
1.60999e-05
1.61032e-05
1.60929e-05
1.60929e-05
1.60928e-05
1.60927e-05
1.60926e-05
1.60926e-05
1.60926e-05
1.60926e-05
1.60927e-05
1.60927e-05
1.60927e-05
1.60928e-05
1.60929e-05
1.60929e-05
1.6093e-05
1.60932e-05
1.60933e-05
1.60935e-05
1.60937e-05
1.6094e-05
1.60943e-05
1.60946e-05
1.6095e-05
1.60954e-05
1.60959e-05
1.60965e-05
1.60971e-05
1.6098e-05
1.60989e-05
1.61001e-05
1.61015e-05
1.61032e-05
1.61052e-05
1.61078e-05
1.6111e-05
1.61153e-05
1.612e-05
1.61286e-05
1.61368e-05
1.60932e-05
1.60933e-05
1.60929e-05
1.6092e-05
1.60914e-05
1.6091e-05
1.60905e-05
1.60902e-05
1.60899e-05
1.60897e-05
1.60895e-05
1.60894e-05
1.60893e-05
1.60892e-05
1.60892e-05
1.60891e-05
1.60891e-05
1.60891e-05
1.60891e-05
1.60891e-05
1.60891e-05
1.6089e-05
1.6089e-05
1.60891e-05
1.60891e-05
1.60892e-05
1.60893e-05
1.60895e-05
1.60898e-05
1.60901e-05
1.60905e-05
1.6091e-05
1.60916e-05
1.60923e-05
1.60933e-05
1.60945e-05
1.6096e-05
1.60981e-05
1.61009e-05
1.60932e-05
1.60931e-05
1.6093e-05
1.60929e-05
1.60929e-05
1.6093e-05
1.6093e-05
1.6093e-05
1.6093e-05
1.60931e-05
1.60931e-05
1.60931e-05
1.60932e-05
1.60932e-05
1.60933e-05
1.60934e-05
1.60935e-05
1.60937e-05
1.60939e-05
1.60941e-05
1.60943e-05
1.60946e-05
1.60949e-05
1.60952e-05
1.60956e-05
1.60961e-05
1.60967e-05
1.60974e-05
1.60983e-05
1.60993e-05
1.61005e-05
1.6102e-05
1.61038e-05
1.61061e-05
1.61089e-05
1.61126e-05
1.61169e-05
1.61243e-05
1.61318e-05
1.60934e-05
1.60935e-05
1.60931e-05
1.60922e-05
1.60917e-05
1.60912e-05
1.60907e-05
1.60903e-05
1.609e-05
1.60897e-05
1.60895e-05
1.60893e-05
1.60892e-05
1.60891e-05
1.6089e-05
1.6089e-05
1.60889e-05
1.60889e-05
1.60889e-05
1.60888e-05
1.60888e-05
1.60888e-05
1.60887e-05
1.60887e-05
1.60887e-05
1.60888e-05
1.60889e-05
1.6089e-05
1.60892e-05
1.60895e-05
1.60898e-05
1.60902e-05
1.60907e-05
1.60913e-05
1.60922e-05
1.60932e-05
1.60946e-05
1.60964e-05
1.60988e-05
1.60935e-05
1.60934e-05
1.60932e-05
1.60932e-05
1.60933e-05
1.60933e-05
1.60934e-05
1.60934e-05
1.60934e-05
1.60935e-05
1.60935e-05
1.60935e-05
1.60935e-05
1.60936e-05
1.60936e-05
1.60937e-05
1.60938e-05
1.60939e-05
1.6094e-05
1.60942e-05
1.60944e-05
1.60946e-05
1.60948e-05
1.60951e-05
1.60955e-05
1.60959e-05
1.60964e-05
1.6097e-05
1.60977e-05
1.60986e-05
1.60997e-05
1.61009e-05
1.61025e-05
1.61045e-05
1.6107e-05
1.61103e-05
1.61141e-05
1.61206e-05
1.61271e-05
1.60937e-05
1.60937e-05
1.60933e-05
1.60925e-05
1.60919e-05
1.60914e-05
1.60908e-05
1.60904e-05
1.609e-05
1.60897e-05
1.60895e-05
1.60893e-05
1.60891e-05
1.6089e-05
1.60889e-05
1.60888e-05
1.60888e-05
1.60887e-05
1.60886e-05
1.60886e-05
1.60885e-05
1.60885e-05
1.60884e-05
1.60884e-05
1.60884e-05
1.60884e-05
1.60885e-05
1.60886e-05
1.60887e-05
1.60889e-05
1.60891e-05
1.60895e-05
1.60899e-05
1.60904e-05
1.60911e-05
1.6092e-05
1.60932e-05
1.60948e-05
1.60969e-05
1.60937e-05
1.60936e-05
1.60935e-05
1.60936e-05
1.60937e-05
1.60937e-05
1.60938e-05
1.60939e-05
1.60939e-05
1.60939e-05
1.60939e-05
1.60939e-05
1.6094e-05
1.6094e-05
1.6094e-05
1.6094e-05
1.60941e-05
1.60942e-05
1.60943e-05
1.60944e-05
1.60945e-05
1.60947e-05
1.60949e-05
1.60951e-05
1.60954e-05
1.60957e-05
1.60961e-05
1.60966e-05
1.60973e-05
1.6098e-05
1.60989e-05
1.61001e-05
1.61014e-05
1.61032e-05
1.61053e-05
1.61082e-05
1.61116e-05
1.61174e-05
1.61228e-05
1.60939e-05
1.60939e-05
1.60935e-05
1.60927e-05
1.60921e-05
1.60916e-05
1.6091e-05
1.60905e-05
1.60901e-05
1.60897e-05
1.60895e-05
1.60893e-05
1.60891e-05
1.60889e-05
1.60888e-05
1.60887e-05
1.60886e-05
1.60885e-05
1.60885e-05
1.60884e-05
1.60883e-05
1.60882e-05
1.60882e-05
1.60881e-05
1.60881e-05
1.60881e-05