/*--------------------------------*- C++ -*----------------------------------*\
| =========                 |                                                 |
| \\      /  F ield         | OpenFOAM: The Open Source CFD Toolbox           |
|  \\    /   O peration     | Version:  2206                                  |
|   \\  /    A nd           | Website:  www.openfoam.com                      |
|    \\/     M anipulation  |                                                 |
\*---------------------------------------------------------------------------*/
FoamFile
{
    version     2.0;
    format      ascii;
    arch        "LSB;label=32;scalar=64";
    class       volScalarField;
    location    "0.1";
    object      k;
}
// * * * * * * * * * * * * * * * * * * * * * * * * * * * * * * * * * * * * * //

dimensions      [0 2 -2 0 0 0 0];

internalField   nonuniform List<scalar> 
67442
(
3.09944e-05
3.084e-05
3.08538e-05
3.05859e-05
3.05867e-05
3.08557e-05
3.08542e-05
3.05863e-05
3.08426e-05
3.08397e-05
3.0843e-05
3.05845e-05
3.08586e-05
1.9921e-05
2.73398e-05
1.33478e-05
1.9632e-05
2.70685e-05
3.09927e-05
3.09944e-05
3.09957e-05
2.74189e-05
3.09541e-05
2.94719e-05
1.32464e-05
3.09654e-05
2.76061e-05
2.96034e-05
2.32415e-05
2.34687e-05
1.33907e-05
1.32519e-05
2.34954e-05
2.32887e-05
1.98689e-05
2.73174e-05
2.76233e-05
3.09635e-05
2.96064e-05
2.76026e-05
3.09621e-05
2.96035e-05
2.34524e-05
2.32373e-05
1.31952e-05
2.74493e-05
3.0953e-05
2.94737e-05
1.96187e-05
2.70682e-05
3.09526e-05
2.74417e-05
2.94731e-05
1.9577e-05
2.70421e-05
3.0951e-05
2.74166e-05
2.94719e-05
1.95744e-05
2.70419e-05
2.32876e-05
2.34528e-05
1.33454e-05
3.09652e-05
2.76145e-05
2.96037e-05
1.98681e-05
2.73169e-05
1.98724e-05
2.73139e-05
1.31898e-05
1.3358e-05
1.17982e-05
1.99287e-05
2.3512e-05
2.35203e-05
1.17863e-05
1.57259e-05
2.73432e-05
1.80267e-05
2.66124e-05
1.80438e-05
2.66156e-05
1.57146e-05
1.33689e-05
1.54303e-05
2.70969e-05
2.6342e-05
1.76411e-05
1.15485e-05
1.96345e-05
2.31389e-05
2.31391e-05
1.15499e-05
1.1572e-05
1.96737e-05
2.31845e-05
1.53971e-05
2.70637e-05
2.63113e-05
1.75916e-05
2.63054e-05
1.75957e-05
1.54008e-05
1.32506e-05
1.32788e-05
2.58739e-05
2.8173e-05
2.32445e-05
1.93561e-05
2.81653e-05
1.93618e-05
2.58795e-05
2.5905e-05
2.82486e-05
2.34752e-05
1.93591e-05
2.82435e-05
1.93666e-05
2.59091e-05
1.80278e-05
1.2101e-05
1.2124e-05
1.21109e-05
1.21356e-05
1.80289e-05
1.3398e-05
1.32556e-05
1.32828e-05
2.59486e-05
2.82464e-05
2.35024e-05
1.95052e-05
1.95094e-05
2.82428e-05
2.59532e-05
2.58771e-05
2.81794e-05
2.32909e-05
1.92974e-05
1.9299e-05
2.81734e-05
2.58834e-05
1.80605e-05
1.21799e-05
1.21209e-05
1.21806e-05
1.21205e-05
1.80658e-05
1.17695e-05
1.98855e-05
2.34536e-05
2.34598e-05
1.17424e-05
1.56793e-05
2.73197e-05
1.7994e-05
2.65804e-05
1.80123e-05
2.65815e-05
1.56544e-05
2.58965e-05
2.82419e-05
2.34605e-05
1.93703e-05
1.93956e-05
2.82371e-05
2.58971e-05
2.5878e-05
2.81635e-05
2.32457e-05
1.93579e-05
2.81594e-05
1.93692e-05
2.58734e-05
1.80198e-05
1.21388e-05
1.21055e-05
1.21528e-05
1.2114e-05
1.80167e-05
1.32041e-05
1.54266e-05
2.70967e-05
1.76428e-05
2.63359e-05
1.15443e-05
1.96208e-05
2.31219e-05
2.31221e-05
1.15458e-05
1.15675e-05
1.966e-05
2.31677e-05
1.53943e-05
2.70634e-05
1.75936e-05
2.63055e-05
1.75978e-05
2.62995e-05
1.53983e-05
1.15181e-05
1.95815e-05
2.30849e-05
2.30837e-05
1.15125e-05
1.53546e-05
2.70361e-05
2.62774e-05
1.75495e-05
2.62708e-05
1.7553e-05
1.53468e-05
1.15168e-05
1.95781e-05
2.30803e-05
2.30785e-05
1.15119e-05
1.53539e-05
2.70359e-05
1.75479e-05
2.62772e-05
1.75513e-05
2.62704e-05
1.53466e-05
2.58812e-05
2.81827e-05
2.32916e-05
1.93321e-05
1.93348e-05
2.81765e-05
2.5888e-05
2.59269e-05
2.8236e-05
2.34591e-05
1.94744e-05
2.82312e-05
1.9482e-05
2.59318e-05
1.80655e-05
1.21527e-05
1.21773e-05
1.21512e-05
1.21916e-05
1.80736e-05
1.33622e-05
1.17678e-05
1.98833e-05
2.34548e-05
2.34599e-05
1.17417e-05
1.56753e-05
2.73184e-05
2.65808e-05
1.79895e-05
2.65816e-05
1.80057e-05
1.56504e-05
1.17661e-05
1.98868e-05
2.34534e-05
2.34591e-05
1.17405e-05
1.56758e-05
2.73154e-05
2.65793e-05
1.79877e-05
2.658e-05
1.80046e-05
1.5651e-05
1.3198e-05
1.33758e-05
3.10065e-05
3.10058e-05
3.10099e-05
2.84805e-05
2.97944e-05
2.98111e-05
3.05847e-05
2.97875e-05
2.98057e-05
2.84874e-05
2.84856e-05
2.98148e-05
2.97866e-05
3.05846e-05
2.98114e-05
2.97806e-05
2.84894e-05
2.84671e-05
2.98133e-05
2.97821e-05
3.05839e-05
2.97751e-05
2.98079e-05
2.84727e-05
2.84768e-05
2.9793e-05
2.98038e-05
3.0582e-05
2.97986e-05
2.97866e-05
2.84826e-05
3.10074e-05
3.10066e-05
3.10109e-05
3.10082e-05
3.1009e-05
3.10101e-05
3.10066e-05
3.10078e-05
3.1011e-05
3.00712e-05
2.94039e-05
2.7414e-05
2.84281e-05
2.93965e-05
2.84197e-05
3.00768e-05
3.03777e-05
2.94635e-05
2.91631e-05
3.05191e-05
2.91547e-05
3.05134e-05
3.03834e-05
3.01538e-05
2.94819e-05
2.76058e-05
2.85852e-05
2.9479e-05
2.85826e-05
3.01538e-05
3.04524e-05
2.96019e-05
3.05772e-05
2.93072e-05
3.05791e-05
2.93054e-05
3.04527e-05
3.0155e-05
2.94814e-05
2.76239e-05
2.85941e-05
2.85932e-05
2.94799e-05
3.01549e-05
3.04537e-05
2.9606e-05
2.93122e-05
3.05801e-05
2.93119e-05
3.05801e-05
3.04536e-05
3.0152e-05
2.94826e-05
2.76024e-05
2.85817e-05
2.85795e-05
2.94787e-05
3.01523e-05
3.0452e-05
2.96018e-05
2.93063e-05
3.05817e-05
2.93044e-05
3.05794e-05
3.04532e-05
3.00753e-05
2.94092e-05
2.74455e-05
2.84414e-05
2.84352e-05
2.94034e-05
3.00802e-05
3.03785e-05
2.9467e-05
2.9168e-05
3.05169e-05
2.91617e-05
3.05115e-05
3.03836e-05
3.00724e-05
2.94071e-05
2.74379e-05
2.84351e-05
2.84289e-05
2.94012e-05
3.00774e-05
3.03771e-05
2.94664e-05
3.05164e-05
2.91654e-05
3.05111e-05
2.91589e-05
3.03825e-05
3.00718e-05
2.94043e-05
2.74114e-05
2.84268e-05
2.93969e-05
2.84185e-05
3.00777e-05
3.03769e-05
2.94635e-05
3.05188e-05
2.91627e-05
3.0513e-05
2.91543e-05
3.03827e-05
3.01512e-05
2.94873e-05
2.76142e-05
2.85843e-05
2.94836e-05
2.85821e-05
3.01508e-05
3.0452e-05
2.96018e-05
3.0578e-05
2.93068e-05
3.05798e-05
2.93052e-05
3.04519e-05
4.12631e-06
1.02101e-06
2.06639e-07
1.41708e-07
9.40645e-07
4.1878e-06
1.04763e-06
2.1427e-07
1.51474e-07
1.01222e-06
4.11773e-06
1.01934e-06
2.06407e-07
1.41882e-07
9.42257e-07
4.18849e-06
1.04793e-06
2.1437e-07
1.51601e-07
1.01308e-06
4.19887e-06
1.05021e-06
2.14748e-07
1.51593e-07
1.01255e-06
4.18976e-06
1.04818e-06
2.14392e-07
1.51575e-07
1.0129e-06
4.11728e-06
1.01887e-06
2.06251e-07
1.41647e-07
9.40537e-07
4.17404e-06
1.04468e-06
2.1383e-07
1.51592e-07
1.01333e-06
4.11533e-06
1.0188e-06
2.06315e-07
1.41853e-07
9.42199e-07
4.10787e-06
1.01706e-06
2.06037e-07
1.41881e-07
9.42502e-07
4.10797e-06
1.01706e-06
2.06052e-07
1.41907e-07
9.42632e-07
4.1882e-06
1.04783e-06
2.14331e-07
1.51538e-07
1.01256e-06
4.11763e-06
1.01896e-06
2.06275e-07
1.41661e-07
9.40623e-07
4.1185e-06
1.01918e-06
2.06316e-07
1.41651e-07
9.40585e-07
4.17275e-06
1.04434e-06
2.13764e-07
1.51553e-07
1.01317e-06
4.1908e-06
1.04837e-06
2.144e-07
1.51495e-07
1.01231e-06
4.00196e-06
1.00485e-06
2.0719e-07
1.5157e-07
1.01819e-06
4.13394e-06
1.02308e-06
2.0705e-07
1.41971e-07
9.42446e-07
4.19636e-06
1.04972e-06
2.14657e-07
1.51674e-07
1.01354e-06
4.0026e-06
1.00185e-06
2.05208e-07
1.46714e-07
9.81264e-07
4.2773e-06
1.06909e-06
2.17099e-07
1.48188e-07
9.83956e-07
3.96554e-06
9.9664e-07
2.05798e-07
1.51471e-07
1.01845e-06
4.12527e-06
1.02143e-06
2.06822e-07
1.42151e-07
9.44112e-07
4.12724e-06
1.02177e-06
2.06841e-07
1.41927e-07
9.42275e-07
4.19654e-06
1.0505e-06
2.14869e-07
1.51827e-07
1.01452e-06
4.19971e-06
1.051e-06
2.14922e-07
1.51655e-07
1.01308e-06
4.20258e-06
1.04216e-06
2.10656e-07
1.43066e-07
9.48344e-07
4.20817e-06
1.04354e-06
2.10921e-07
1.43238e-07
9.49533e-07
4.19505e-06
1.04009e-06
2.10259e-07
1.42938e-07
9.47647e-07
4.20066e-06
1.04146e-06
2.1052e-07
1.43111e-07
9.48845e-07
4.07723e-06
1.02534e-06
2.1074e-07
1.51708e-07
1.01641e-06
4.07457e-06
1.02471e-06
2.1063e-07
1.51686e-07
1.01635e-06
4.08467e-06
1.0272e-06
2.11086e-07
1.51895e-07
1.01766e-06
4.08209e-06
1.02656e-06
2.10972e-07
1.51875e-07
1.01761e-06
4.20727e-06
1.05271e-06
2.15228e-07
1.51812e-07
1.01395e-06
4.19744e-06
1.05068e-06
2.14879e-07
1.51799e-07
1.01434e-06
4.20038e-06
1.05112e-06
2.1492e-07
1.5163e-07
1.01293e-06
4.12388e-06
1.02053e-06
2.06575e-07
1.41892e-07
9.42277e-07
4.20286e-06
1.04231e-06
2.10706e-07
1.43082e-07
9.48437e-07
4.20899e-06
1.04373e-06
2.10969e-07
1.43252e-07
9.4961e-07
4.07974e-06
1.02612e-06
2.10891e-07
1.51721e-07
1.0164e-06
4.08615e-06
1.02779e-06
2.11205e-07
1.51911e-07
1.0177e-06
4.18152e-06
1.04664e-06
2.14202e-07
1.51796e-07
1.01469e-06
4.00197e-06
1.00169e-06
2.05187e-07
1.46714e-07
9.81286e-07
4.27767e-06
1.06918e-06
2.17113e-07
1.48186e-07
9.83935e-07
3.96425e-06
9.96314e-07
2.0574e-07
1.51437e-07
1.01834e-06
4.12276e-06
1.02087e-06
2.06728e-07
1.42121e-07
9.44039e-07
4.12479e-06
1.02123e-06
2.06751e-07
1.41898e-07
9.42214e-07
4.1138e-06
1.01864e-06
2.06355e-07
1.42132e-07
9.44293e-07
3.95406e-06
9.9359e-07
2.05269e-07
1.51435e-07
1.01854e-06
4.11353e-06
1.01857e-06
2.06359e-07
1.42155e-07
9.44404e-07
4.20842e-06
1.04351e-06
2.10895e-07
1.43061e-07
9.4795e-07
4.21325e-06
1.0447e-06
2.11118e-07
1.43209e-07
9.4898e-07
4.09287e-06
1.02893e-06
2.11363e-07
1.51794e-07
1.01649e-06
4.19538e-06
1.04961e-06
2.14669e-07
1.51733e-07
1.01388e-06
3.99001e-06
1.00159e-06
2.0661e-07
1.51504e-07
1.01812e-06
4.1239e-06
1.02057e-06
2.06592e-07
1.41907e-07
9.42374e-07
3.98957e-06
1.00152e-06
2.06593e-07
1.51493e-07
1.01809e-06
4.12464e-06
1.02076e-06
2.06627e-07
1.41896e-07
9.42327e-07
4.17958e-06
1.04615e-06
2.14108e-07
1.51749e-07
1.01449e-06
4.19863e-06
1.05032e-06
2.14763e-07
1.51692e-07
1.01363e-06
3.99054e-06
1.00177e-06
2.06632e-07
1.51511e-07
1.01815e-06
3.95417e-06
9.93614e-07
2.05267e-07
1.51415e-07
1.01847e-06
4.01926e-06
1.00548e-06
2.05764e-07
1.46591e-07
9.80057e-07
4.29368e-06
1.07218e-06
2.17501e-07
1.47875e-07
9.8136e-07
4.30217e-06
1.07453e-06
2.17949e-07
1.48048e-07
9.82407e-07
4.01036e-06
1.00297e-06
2.05288e-07
1.46405e-07
9.78924e-07
3.99424e-06
1.00258e-06
2.06741e-07
1.51304e-07
1.01638e-06
4.19847e-06
1.04103e-06
2.10453e-07
1.42997e-07
9.47892e-07
4.20561e-06
1.04277e-06
2.10778e-07
1.43182e-07
9.49134e-07
4.07971e-06
1.02607e-06
2.10894e-07
1.51765e-07
1.0166e-06
4.08823e-06
1.02815e-06
2.11276e-07
1.51962e-07
1.0179e-06
3.95888e-06
9.94461e-07
2.05359e-07
1.51205e-07
1.01664e-06
3.99838e-06
1.00114e-06
2.05118e-07
1.46836e-07
9.82327e-07
4.26413e-06
1.0657e-06
2.16493e-07
1.48123e-07
9.83919e-07
4.27154e-06
1.06802e-06
2.16946e-07
1.48296e-07
9.84958e-07
3.99263e-06
9.99089e-07
2.04707e-07
1.46659e-07
9.81221e-07
3.96826e-06
9.97026e-07
2.0582e-07
1.51254e-07
1.01667e-06
4.20654e-06
1.04294e-06
2.10798e-07
1.43096e-07
9.48407e-07
4.21541e-06
1.04553e-06
2.11303e-07
1.43322e-07
9.49835e-07
4.09095e-06
1.02848e-06
2.1128e-07
1.51747e-07
1.01626e-06
4.09753e-06
1.03075e-06
2.11729e-07
1.51961e-07
1.01765e-06
4.21287e-06
1.04425e-06
2.10992e-07
1.43026e-07
9.47697e-07
4.21977e-06
1.04616e-06
2.11359e-07
1.4322e-07
9.48978e-07
4.09312e-06
1.02886e-06
2.11323e-07
1.51715e-07
1.01613e-06
4.09974e-06
1.03102e-06
2.11751e-07
1.51925e-07
1.0175e-06
4.20047e-06
1.04159e-06
2.10565e-07
1.43057e-07
9.48375e-07
4.20718e-06
1.04348e-06
2.10931e-07
1.4325e-07
9.49639e-07
4.08049e-06
1.026e-06
2.10856e-07
1.51699e-07
1.01631e-06
4.08679e-06
1.02815e-06
2.11283e-07
1.51905e-07
1.01765e-06
4.00709e-06
1.00241e-06
2.05226e-07
1.46572e-07
9.80191e-07
4.28737e-06
1.0707e-06
2.17256e-07
1.47899e-07
9.81602e-07
4.29419e-06
1.0724e-06
2.17573e-07
1.48052e-07
9.82596e-07
3.99855e-06
1.00037e-06
2.04855e-07
1.46406e-07
9.79132e-07
3.98099e-06
9.99514e-07
2.06207e-07
1.51257e-07
1.01642e-06
3.99798e-06
1.00102e-06
2.05104e-07
1.46838e-07
9.82351e-07
4.26468e-06
1.06582e-06
2.16514e-07
1.48123e-07
9.839e-07
4.27206e-06
1.06814e-06
2.16964e-07
1.48295e-07
9.84935e-07
3.99234e-06
9.99013e-07
2.04701e-07
1.46661e-07
9.81245e-07
3.95764e-06
9.94158e-07
2.05305e-07
1.51172e-07
1.01653e-06
3.96692e-06
9.96695e-07
2.05762e-07
1.51221e-07
1.01656e-06
3.94721e-06
9.91767e-07
2.04905e-07
1.51167e-07
1.01674e-06
3.986e-06
9.97811e-07
2.04519e-07
1.46738e-07
9.82145e-07
4.25493e-06
1.06345e-06
2.16106e-07
1.48051e-07
9.83833e-07
4.25991e-06
1.06477e-06
2.16357e-07
1.48193e-07
9.84791e-07
3.98012e-06
9.96209e-07
2.04216e-07
1.46582e-07
9.81119e-07
3.986e-06
9.97813e-07
2.04513e-07
1.46747e-07
9.82163e-07
4.25445e-06
1.06335e-06
2.16075e-07
1.48049e-07
9.83787e-07
4.25943e-06
1.06466e-06
2.16324e-07
1.48191e-07
9.84743e-07
3.98023e-06
9.9623e-07
2.04214e-07
1.46591e-07
9.81137e-07
3.94741e-06
9.91808e-07
2.04917e-07
1.51188e-07
1.01682e-06
4.10278e-06
1.03149e-06
2.11837e-07
1.51995e-07
1.01775e-06
3.98092e-06
9.99466e-07
2.06206e-07
1.5125e-07
1.01637e-06
4.00612e-06
1.00213e-06
2.0518e-07
1.46552e-07
9.80125e-07
4.28659e-06
1.07049e-06
2.17223e-07
1.47897e-07
9.8161e-07
4.29245e-06
1.07191e-06
2.17485e-07
1.48025e-07
9.82512e-07
3.9978e-06
1.00014e-06
2.04823e-07
1.46405e-07
9.79141e-07
3.98045e-06
9.99371e-07
2.06185e-07
1.51239e-07
1.01635e-06
4.00614e-06
1.00218e-06
2.05186e-07
1.46569e-07
9.80199e-07
4.28626e-06
1.07044e-06
2.17214e-07
1.479e-07
9.81638e-07
4.29214e-06
1.07187e-06
2.17481e-07
1.48047e-07
9.82626e-07
3.99783e-06
1.00019e-06
2.04825e-07
1.46403e-07
9.79132e-07
3.08401e-05
3.05833e-05
3.08545e-05
3.09956e-05
2.70356e-05
3.09542e-05
2.94631e-05
1.95803e-05
2.7036e-05
3.09538e-05
2.7412e-05
2.94627e-05
1.32059e-05
2.32327e-05
1.53448e-05
2.70413e-05
2.62755e-05
1.755e-05
2.62821e-05
1.75465e-05
1.53525e-05
1.151e-05
1.95764e-05
2.30812e-05
2.30829e-05
1.15155e-05
1.53428e-05
2.70421e-05
1.7551e-05
2.62707e-05
1.75469e-05
2.62778e-05
1.53503e-05
1.31975e-05
2.5858e-05
2.81663e-05
2.32262e-05
1.9288e-05
2.81748e-05
1.92779e-05
2.58542e-05
2.59037e-05
2.82252e-05
2.82322e-05
2.58971e-05
1.80419e-05
1.21228e-05
1.21087e-05
1.80356e-05
2.84802e-05
3.05865e-05
2.97857e-05
2.97979e-05
2.97929e-05
2.98037e-05
2.84717e-05
3.10066e-05
3.10109e-05
3.10094e-05
3.10102e-05
3.1011e-05
3.03845e-05
2.94714e-05
2.91561e-05
3.05122e-05
2.91644e-05
3.0518e-05
3.03789e-05
3.0077e-05
2.93977e-05
2.74165e-05
2.84181e-05
2.84261e-05
2.94055e-05
3.00713e-05
3.03833e-05
2.94712e-05
3.05118e-05
2.91537e-05
3.05175e-05
2.91621e-05
3.03775e-05
3.01554e-05
2.94759e-05
2.94798e-05
3.01545e-05
3.05854e-05
3.08567e-05
3.08438e-05
3.09956e-05
1.33583e-05
1.32117e-05
2.34505e-05
2.32383e-05
1.98897e-05
2.73177e-05
2.75989e-05
3.09646e-05
2.96006e-05
1.95934e-05
2.74198e-05
1.33408e-05
1.32035e-05
2.59231e-05
2.8232e-05
2.34423e-05
1.94686e-05
1.94606e-05
2.82372e-05
2.59192e-05
2.58528e-05
2.81623e-05
2.3234e-05
1.9258e-05
1.92519e-05
2.81702e-05
2.58474e-05
1.8014e-05
1.21483e-05
1.20867e-05
1.21362e-05
1.20773e-05
1.80142e-05
1.17456e-05
1.98765e-05
2.34786e-05
2.3472e-05
1.17744e-05
1.56467e-05
2.73167e-05
1.79988e-05
2.65863e-05
1.79829e-05
2.65851e-05
1.56747e-05
1.15143e-05
1.95898e-05
2.30981e-05
2.30998e-05
1.15196e-05
2.8484e-05
3.05881e-05
2.98075e-05
2.97787e-05
2.98122e-05
2.97857e-05
2.84769e-05
3.10073e-05
3.0152e-05
2.9474e-05
2.75992e-05
2.85818e-05
2.94771e-05
2.85841e-05
3.01538e-05
3.04538e-05
2.96021e-05
2.93041e-05
3.05808e-05
2.93059e-05
3.05814e-05
3.04541e-05
3.00797e-05
2.93998e-05
2.74244e-05
2.84245e-05
2.94075e-05
2.84324e-05
3.00743e-05
4.11385e-06
1.0186e-06
2.0633e-07
1.42085e-07
9.44068e-07
4.18188e-06
1.04671e-06
2.14203e-07
1.51767e-07
1.01456e-06
3.94697e-06
9.91717e-07
2.04893e-07
1.51145e-07
1.01663e-06
4.10788e-06
1.01699e-06
2.06002e-07
1.41835e-07
9.42293e-07
4.17445e-06
1.04474e-06
2.1383e-07
1.51562e-07
1.01318e-06
3.98001e-06
9.96281e-07
2.04237e-07
1.46624e-07
9.81302e-07
4.25928e-06
1.0647e-06
2.16345e-07
1.48238e-07
9.84965e-07
4.25405e-06
1.06327e-06
2.16071e-07
1.48092e-07
9.83994e-07
3.98597e-06
9.97847e-07
2.0453e-07
1.46777e-07
9.82316e-07
3.97975e-06
9.96208e-07
2.04232e-07
1.46627e-07
9.81328e-07
4.25967e-06
1.06481e-06
2.16365e-07
1.48238e-07
9.84945e-07
4.25437e-06
1.06336e-06
2.16086e-07
1.48091e-07
9.83976e-07
3.98582e-06
9.97809e-07
2.04531e-07
1.46781e-07
9.82342e-07
3.95357e-06
9.93436e-07
2.0523e-07
1.51388e-07
1.01834e-06
4.20261e-06
1.04201e-06
2.1066e-07
1.43237e-07
9.4966e-07
4.19175e-06
1.03927e-06
2.10162e-07
1.43034e-07
9.48401e-07
4.0855e-06
1.02739e-06
2.11125e-07
1.51903e-07
1.01765e-06
4.07483e-06
1.02457e-06
2.10608e-07
1.517e-07
1.0164e-06
4.1938e-06
1.04919e-06
2.14607e-07
1.51754e-07
1.01397e-06
4.18316e-06
1.04696e-06
2.14224e-07
1.51737e-07
1.01435e-06
4.12536e-06
1.0209e-06
2.06665e-07
1.41934e-07
9.42455e-07
4.11616e-06
1.01913e-06
2.06419e-07
1.42114e-07
9.44124e-07
4.1855e-06
1.04709e-06
2.14214e-07
1.51554e-07
1.01265e-06
4.17567e-06
1.04495e-06
2.13842e-07
1.51534e-07
1.013e-06
3.98245e-06
9.99844e-07
2.06275e-07
1.5127e-07
1.01647e-06
4.1188e-06
1.01919e-06
2.06326e-07
1.41687e-07
9.40716e-07
4.11029e-06
1.01752e-06
2.0609e-07
1.41861e-07
9.42333e-07
4.08803e-06
1.02789e-06
2.11194e-07
1.51872e-07
1.0175e-06
4.07485e-06
1.02496e-06
2.10715e-07
1.51851e-07
1.01766e-06
3.94821e-06
9.92015e-07
2.04944e-07
1.51178e-07
1.01674e-06
3.95473e-06
9.93721e-07
2.0528e-07
1.5142e-07
1.01845e-06
4.21058e-06
1.0438e-06
2.10949e-07
1.43181e-07
9.48985e-07
4.20445e-06
1.04229e-06
2.10659e-07
1.43004e-07
9.47775e-07
4.19785e-06
1.04108e-06
2.10512e-07
1.4321e-07
9.49648e-07
4.19161e-06
1.0395e-06
2.10212e-07
1.43034e-07
9.48455e-07
4.06681e-06
1.02292e-06
2.10335e-07
1.5166e-07
1.0164e-06
4.0798e-06
1.02583e-06
2.10811e-07
1.51677e-07
1.01622e-06
3.99741e-06
1.00008e-06
2.04802e-07
1.46366e-07
9.78981e-07
4.29079e-06
1.0715e-06
2.17404e-07
1.47996e-07
9.82416e-07
4.28471e-06
1.06998e-06
2.17116e-07
1.47843e-07
9.81401e-07
4.00562e-06
1.00198e-06
2.05145e-07
1.46528e-07
9.80033e-07
3.99188e-06
1.00201e-06
2.06682e-07
1.5152e-07
1.01818e-06
3.0589e-05
3.09954e-05
3.08434e-05
3.08574e-05
3.05884e-05
3.05872e-05
3.05887e-05
3.08594e-05
3.086e-05
3.05883e-05
3.08441e-05
3.08433e-05
3.08433e-05
3.05854e-05
3.08587e-05
2.32219e-05
2.34477e-05
3.05869e-05
2.3209e-05
2.3441e-05
2.71554e-05
1.9856e-05
2.73109e-05
1.33326e-05
1.32933e-05
1.9565e-05
2.70374e-05
3.09954e-05
3.09961e-05
3.09955e-05
2.74142e-05
3.09547e-05
3.08382e-05
2.94736e-05
1.31739e-05
3.09656e-05
2.76007e-05
2.96074e-05
2.32189e-05
2.34436e-05
1.31732e-05
1.31712e-05
1.33423e-05
1.33427e-05
3.05886e-05
2.32103e-05
2.34378e-05
2.32228e-05
2.34501e-05
1.31715e-05
1.31794e-05
1.33415e-05
1.33472e-05
1.33226e-05
1.31837e-05
2.34217e-05
2.32126e-05
2.71537e-05
1.98521e-05
1.97898e-05
2.73092e-05
2.95311e-05
2.75907e-05
3.09678e-05
3.09588e-05
2.9609e-05
2.95305e-05
2.7594e-05
3.09677e-05
3.08548e-05
2.75272e-05
3.0959e-05
2.96085e-05
2.34315e-05
2.32144e-05
3.05871e-05
2.33765e-05
1.31753e-05
2.74187e-05
3.09547e-05
2.94741e-05
1.95544e-05
2.70365e-05
3.09543e-05
2.74103e-05
2.94733e-05
1.95536e-05
2.7037e-05
3.0954e-05
2.74119e-05
2.94735e-05
1.95546e-05
2.70365e-05
2.32025e-05
2.34377e-05
1.33304e-05
3.09649e-05
2.76046e-05
2.96073e-05
1.9852e-05
2.73127e-05
1.98556e-05
2.73125e-05
1.31765e-05
1.33442e-05
1.79948e-05
1.20684e-05
1.20909e-05
1.20744e-05
1.20964e-05
1.79787e-05
2.58534e-05
2.81723e-05
1.93322e-05
2.32083e-05
1.93246e-05
2.58687e-05
2.81608e-05
2.58834e-05
2.82466e-05
1.93315e-05
2.34391e-05
1.93263e-05
2.58968e-05
2.8238e-05
1.79804e-05
1.20713e-05
1.20935e-05
1.20669e-05
1.20896e-05
1.79978e-05
2.58701e-05
1.93285e-05
2.32204e-05
2.816e-05
1.93352e-05
2.58559e-05
2.81718e-05
2.58985e-05
1.93302e-05
2.34486e-05
2.8238e-05
1.93358e-05
2.58854e-05
2.82466e-05
1.55483e-05
1.78547e-05
2.64261e-05
2.72123e-05
1.79067e-05
2.64782e-05
1.5511e-05
1.1724e-05
1.98816e-05
2.34452e-05
2.3446e-05
1.17251e-05
1.16706e-05
1.98144e-05
2.33747e-05
1.56004e-05
2.72657e-05
1.79745e-05
2.65817e-05
1.79285e-05
2.65458e-05
1.56225e-05
1.33487e-05
1.33275e-05
1.14863e-05
1.9555e-05
2.30823e-05
2.30671e-05
1.14942e-05
1.53007e-05
2.70226e-05
2.62772e-05
1.75258e-05
2.62606e-05
1.7515e-05
1.53139e-05
1.31658e-05
2.58528e-05
2.81722e-05
1.93298e-05
2.3203e-05
2.58693e-05
2.81589e-05
1.93194e-05
2.58822e-05
2.8246e-05
1.93308e-05
2.34326e-05
2.58969e-05
2.82358e-05
1.93231e-05
1.79775e-05
1.20686e-05
1.20912e-05
1.79952e-05
1.20625e-05
1.20857e-05
1.31668e-05
1.31766e-05
1.33408e-05
1.33463e-05
1.79791e-05
1.2074e-05
1.20962e-05
1.79957e-05
1.20676e-05
1.20906e-05
2.58706e-05
2.81606e-05
1.93247e-05
2.3225e-05
2.58537e-05
1.93375e-05
2.81721e-05
2.58976e-05
2.82376e-05
1.93264e-05
2.34495e-05
2.58824e-05
1.93361e-05
2.82468e-05
1.79959e-05
1.20649e-05
1.20882e-05
1.79794e-05
1.20722e-05
1.20949e-05
2.58563e-05
1.93388e-05
2.81714e-05
2.32123e-05
2.58724e-05
1.93308e-05
2.81602e-05
2.58849e-05
1.93384e-05
2.82467e-05
2.34419e-05
2.59e-05
1.93312e-05
2.82381e-05
1.31799e-05
1.31731e-05
1.33468e-05
1.3343e-05
1.33425e-05
1.33027e-05
1.31765e-05
2.59011e-05
2.82379e-05
2.3427e-05
1.94391e-05
1.94318e-05
2.82308e-05
2.59151e-05
2.58281e-05
2.81707e-05
2.31992e-05
1.92278e-05
1.92185e-05
2.81576e-05
2.58442e-05
2.34061e-05
2.82334e-05
1.79731e-05
1.21091e-05
1.20491e-05
1.21034e-05
1.20429e-05
1.79899e-05
1.5558e-05
1.78598e-05
2.64187e-05
2.72114e-05
1.79115e-05
2.64735e-05
1.55041e-05
1.17069e-05
1.98634e-05
2.34501e-05
2.34256e-05
1.17324e-05
1.16835e-05
2.33424e-05
1.98373e-05
2.33898e-05
1.16491e-05
1.55834e-05
2.72633e-05
1.79815e-05
2.6579e-05
1.79326e-05
2.65338e-05
1.5633e-05
1.80003e-05
1.21159e-05
1.20979e-05
1.20921e-05
2.58672e-05
2.82421e-05
2.34317e-05
1.93513e-05
1.93476e-05
2.82319e-05
2.58886e-05
2.58599e-05
2.8165e-05
2.3206e-05
1.9336e-05
2.81564e-05
1.93336e-05
2.58648e-05
2.58528e-05
1.93457e-05
2.34273e-05
2.82211e-05
1.93447e-05
2.82401e-05
2.58614e-05
2.5896e-05
2.3216e-05
2.81661e-05
1.93573e-05
1.798e-05
1.21116e-05
1.20781e-05
1.21046e-05
1.20741e-05
1.79955e-05
1.31695e-05
1.31789e-05
1.14823e-05
1.95431e-05
2.30666e-05
2.30519e-05
1.14901e-05
1.52986e-05
2.70213e-05
1.75268e-05
2.62712e-05
1.75168e-05
2.62541e-05
1.53114e-05
1.53053e-05
2.70331e-05
2.62679e-05
1.75261e-05
1.1483e-05
1.95451e-05
2.30676e-05
2.30542e-05
1.149e-05
1.1487e-05
1.95565e-05
2.3066e-05
1.52991e-05
2.70219e-05
2.62716e-05
1.75293e-05
2.62548e-05
1.75198e-05
1.53119e-05
1.53052e-05
2.70333e-05
1.75265e-05
2.62678e-05
1.14835e-05
1.95458e-05
2.30671e-05
2.30534e-05
1.14908e-05
1.14877e-05
1.95571e-05
2.30654e-05
1.52987e-05
2.70215e-05
1.75276e-05
2.62714e-05
1.75187e-05
2.62546e-05
1.53118e-05
2.58166e-05
2.81664e-05
2.31897e-05
1.9249e-05
1.92386e-05
2.8153e-05
2.58328e-05
2.58848e-05
2.82306e-05
2.34269e-05
1.94502e-05
2.8221e-05
1.94399e-05
2.58962e-05
1.79627e-05
1.20671e-05
1.21212e-05
1.20572e-05
1.21114e-05
1.79847e-05
1.33255e-05
1.17235e-05
1.98467e-05
2.34451e-05
2.34384e-05
1.17262e-05
1.56171e-05
2.73061e-05
2.6572e-05
1.79735e-05
2.65643e-05
1.79685e-05
1.56234e-05
1.17237e-05
1.98495e-05
2.34471e-05
2.34401e-05
1.17266e-05
1.56195e-05
2.73061e-05
2.65742e-05
1.79724e-05
2.65664e-05
1.79677e-05
1.56255e-05
1.31676e-05
1.31743e-05
1.33389e-05
2.84795e-05
2.97982e-05
2.98155e-05
3.05866e-05
2.84886e-05
2.9791e-05
2.98096e-05
3.10099e-05
3.10092e-05
3.10134e-05
2.84777e-05
2.97983e-05
2.98154e-05
3.05877e-05
2.84891e-05
2.97889e-05
2.98087e-05
2.84891e-05
3.05888e-05
2.9791e-05
2.98097e-05
2.84795e-05
2.9798e-05
2.98156e-05
2.84759e-05
2.98195e-05
2.97913e-05
3.05885e-05
2.98114e-05
2.9782e-05
2.84872e-05
2.84686e-05
2.98194e-05
2.97868e-05
3.05871e-05
2.97794e-05
2.98129e-05
2.84772e-05
2.84581e-05
2.97925e-05
2.98057e-05
3.05846e-05
2.97983e-05
2.97831e-05
2.84693e-05
2.84889e-05
3.05887e-05
2.97908e-05
2.98096e-05
2.84798e-05
2.97981e-05
2.98155e-05
3.10099e-05
3.10093e-05
3.10134e-05
3.10093e-05
3.10108e-05
3.10134e-05
3.10093e-05
3.101e-05
3.10134e-05
3.00766e-05
2.94064e-05
2.74006e-05
2.84279e-05
2.93983e-05
2.84155e-05
3.0082e-05
3.00801e-05
2.74119e-05
2.94048e-05
2.84237e-05
3.03803e-05
2.94632e-05
2.91647e-05
3.05215e-05
2.91536e-05
3.05154e-05
3.03864e-05
3.01542e-05
2.94837e-05
2.75917e-05
2.85848e-05
2.94775e-05
2.8578e-05
3.01553e-05
3.04535e-05
2.96026e-05
3.05832e-05
2.93097e-05
3.05803e-05
2.93047e-05
3.04529e-05
2.84796e-05
3.05868e-05
2.97978e-05
2.98154e-05
2.84891e-05
2.97907e-05
2.98097e-05
3.04323e-05
2.92349e-05
3.05476e-05
2.95578e-05
2.92622e-05
3.05611e-05
3.04189e-05
3.01594e-05
2.94807e-05
2.76019e-05
2.85818e-05
2.85822e-05
2.94837e-05
3.01541e-05
3.01336e-05
2.75524e-05
2.85305e-05
2.94716e-05
3.04538e-05
2.95925e-05
2.93128e-05
3.05838e-05
2.93019e-05
3.058e-05
3.04536e-05
3.04325e-05
2.92333e-05
3.05475e-05
2.95574e-05
2.92611e-05
3.0561e-05
3.04189e-05
3.01602e-05
2.94846e-05
2.76036e-05
2.85813e-05
2.85814e-05
2.94864e-05
3.01548e-05
3.01393e-05
2.85083e-05
2.75726e-05
2.94595e-05
2.85389e-05
3.01235e-05
2.94807e-05
3.04537e-05
2.95919e-05
2.93115e-05
3.05837e-05
2.93001e-05
3.05799e-05
3.04535e-05
2.84789e-05
3.05877e-05
2.98128e-05
2.97809e-05
2.97869e-05
2.98188e-05
2.84686e-05
3.00764e-05
2.94102e-05
2.74042e-05
2.84324e-05
2.84189e-05
2.94007e-05
3.00839e-05
3.03811e-05
2.94638e-05
2.91669e-05
3.05216e-05
2.9156e-05
3.05155e-05
3.03871e-05
3.00733e-05
2.94061e-05
2.73957e-05
2.84261e-05
2.84127e-05
2.93966e-05
3.00809e-05
3.03795e-05
2.9463e-05
3.0521e-05
2.9164e-05
3.05149e-05
2.91529e-05
3.03859e-05
3.00733e-05
2.94061e-05
2.73968e-05
2.84268e-05
2.93966e-05
2.84133e-05
3.0081e-05
3.03796e-05
2.94631e-05
3.05212e-05
2.91643e-05
3.0515e-05
2.91532e-05
3.0386e-05
3.01555e-05
2.94895e-05
2.75951e-05
2.8585e-05
2.94829e-05
2.85783e-05
3.01561e-05
3.04538e-05
2.96031e-05
3.05831e-05
2.93101e-05
3.05818e-05
2.93051e-05
3.04531e-05
3.09923e-05
3.08382e-05
3.08534e-05
3.05869e-05
3.09949e-05
3.08422e-05
3.08579e-05
3.05926e-05
3.09961e-05
3.08432e-05
3.08577e-05
3.0589e-05
3.09961e-05
3.08433e-05
3.08577e-05
3.0589e-05
3.09961e-05
3.08434e-05
3.08577e-05
3.0589e-05
3.09961e-05
3.08433e-05
3.08577e-05
3.05889e-05
3.09961e-05
3.08434e-05
3.08577e-05
3.05891e-05
3.09961e-05
3.08433e-05
3.08577e-05
3.0589e-05
3.09961e-05
3.08434e-05
3.08577e-05
3.0589e-05
3.09961e-05
3.08433e-05
3.08577e-05
3.05889e-05
3.09961e-05
3.08434e-05
3.08577e-05
3.0589e-05
3.09961e-05
3.08433e-05
3.08577e-05
3.05889e-05
3.09961e-05
3.08434e-05
3.08577e-05
3.0589e-05
3.09961e-05
3.08433e-05
3.08577e-05
3.05889e-05
3.09961e-05
3.08434e-05
3.08577e-05
3.0589e-05
3.09961e-05
3.08433e-05
3.08577e-05
3.05865e-05
3.08547e-05
3.08523e-05
3.05817e-05
3.08415e-05
3.08402e-05
3.08381e-05
3.08403e-05
3.05824e-05
3.0853e-05
3.08563e-05
3.05844e-05
3.05888e-05
3.05922e-05
3.08549e-05
3.08524e-05
3.08575e-05
3.08546e-05
3.05839e-05
3.05874e-05
3.08418e-05
3.08408e-05
3.08449e-05
3.08438e-05
3.08403e-05
3.08408e-05
3.08427e-05
3.0585e-05
3.05882e-05
3.08564e-05
3.0857e-05
3.08585e-05
3.05901e-05
3.05936e-05
3.05875e-05
3.08576e-05
3.08562e-05
3.08572e-05
3.08574e-05
3.059e-05
3.05868e-05
3.0845e-05
3.08439e-05
3.08442e-05
3.08431e-05
3.08437e-05
3.08433e-05
3.08435e-05
3.05899e-05
3.0584e-05
3.08591e-05
3.08578e-05
3.08591e-05
3.05872e-05
3.05892e-05
3.05875e-05
3.08571e-05
3.08574e-05
3.08571e-05
3.08575e-05
3.05883e-05
3.05861e-05
3.08441e-05
3.08431e-05
3.08443e-05
3.08432e-05
3.08433e-05
3.08433e-05
3.08434e-05
3.05857e-05
3.05839e-05
3.0859e-05
3.08576e-05
3.0859e-05
3.05869e-05
3.05893e-05
3.05875e-05
3.08571e-05
3.08575e-05
3.08571e-05
3.08576e-05
3.05879e-05
3.05868e-05
3.08443e-05
3.08432e-05
3.08443e-05
3.08432e-05
3.08434e-05
3.08434e-05
3.08434e-05
3.05857e-05
3.05838e-05
3.0859e-05
3.08576e-05
3.0859e-05
3.05869e-05
3.05893e-05
3.05875e-05
3.08571e-05
3.08576e-05
3.08571e-05
3.08575e-05
3.05885e-05
3.0586e-05
3.08443e-05
3.08432e-05
3.08443e-05
3.08432e-05
3.08434e-05
3.08433e-05
3.08434e-05
3.05857e-05
3.05838e-05
3.0859e-05
3.08576e-05
3.0859e-05
3.05868e-05
3.05893e-05
3.05875e-05
3.08571e-05
3.08575e-05
3.08571e-05
3.08576e-05
3.05878e-05
3.05868e-05
3.08443e-05
3.08432e-05
3.08443e-05
3.08432e-05
3.08434e-05
3.08434e-05
3.08434e-05
3.05857e-05
3.05838e-05
3.0859e-05
3.08576e-05
3.0859e-05
3.05869e-05
3.05893e-05
3.05875e-05
3.08571e-05
3.08576e-05
3.08571e-05
3.08575e-05
3.05885e-05
3.0586e-05
3.08443e-05
3.08432e-05
3.08443e-05
3.08432e-05
3.08434e-05
3.08433e-05
3.08434e-05
3.05857e-05
3.05838e-05
3.0859e-05
3.08576e-05
3.0859e-05
3.05869e-05
3.05893e-05
3.05875e-05
3.08571e-05
3.08575e-05
3.08571e-05
3.08576e-05
3.05878e-05
3.05868e-05
3.08443e-05
3.08432e-05
3.08443e-05
3.08432e-05
3.08434e-05
3.08434e-05
3.08434e-05
3.05857e-05
3.05838e-05
3.0859e-05
3.08576e-05
3.0859e-05
3.05869e-05
3.05893e-05
3.05875e-05
3.08571e-05
3.08576e-05
3.08571e-05
3.08575e-05
3.05885e-05
3.0586e-05
3.08442e-05
3.08432e-05
3.08443e-05
3.08432e-05
3.08434e-05
3.08433e-05
3.08434e-05
3.05857e-05
3.05838e-05
3.0859e-05
3.08576e-05
3.0859e-05
3.05868e-05
3.05893e-05
3.05875e-05
3.08571e-05
3.08575e-05
3.08571e-05
3.08576e-05
3.05878e-05
3.05868e-05
3.08442e-05
3.08432e-05
3.08443e-05
3.08432e-05
3.08434e-05
3.08434e-05
3.08434e-05
3.05857e-05
3.05838e-05
3.0859e-05
3.08576e-05
3.0859e-05
3.05869e-05
3.05893e-05
3.05875e-05
3.08571e-05
3.08576e-05
3.08571e-05
3.08575e-05
3.05885e-05
3.0586e-05
3.08442e-05
3.08432e-05
3.08443e-05
3.08432e-05
3.08434e-05
3.08433e-05
3.08434e-05
3.05857e-05
3.05838e-05
3.0859e-05
3.08576e-05
3.0859e-05
3.05868e-05
3.05893e-05
3.05875e-05
3.08571e-05
3.08575e-05
3.08571e-05
3.08576e-05
3.05878e-05
3.05868e-05
3.08443e-05
3.08432e-05
3.08443e-05
3.08432e-05
3.08434e-05
3.08434e-05
3.08434e-05
3.05857e-05
3.05838e-05
3.0859e-05
3.08576e-05
3.0859e-05
3.05869e-05
3.05893e-05
3.05875e-05
3.08571e-05
3.08576e-05
3.08571e-05
3.08575e-05
3.05885e-05
3.0586e-05
3.08443e-05
3.08432e-05
3.08443e-05
3.08432e-05
3.08434e-05
3.08433e-05
3.08434e-05
3.05857e-05
3.05838e-05
3.0859e-05
3.08576e-05
3.0859e-05
3.05868e-05
3.05893e-05
3.05875e-05
3.08571e-05
3.08575e-05
3.08571e-05
3.08576e-05
3.05878e-05
3.05868e-05
3.08443e-05
3.08432e-05
3.08443e-05
3.08432e-05
3.08434e-05
3.08434e-05
3.08434e-05
3.05857e-05
3.05838e-05
3.0859e-05
3.08576e-05
3.0859e-05
3.05869e-05
3.05893e-05
3.05874e-05
3.08571e-05
3.08576e-05
3.08571e-05
3.08575e-05
3.05885e-05
3.0586e-05
3.08443e-05
3.08432e-05
3.08443e-05
3.08432e-05
3.08434e-05
3.08433e-05
3.08434e-05
3.05857e-05