/*--------------------------------*- C++ -*----------------------------------*\
| =========                 |                                                 |
| \\      /  F ield         | OpenFOAM: The Open Source CFD Toolbox           |
|  \\    /   O peration     | Version:  2206                                  |
|   \\  /    A nd           | Website:  www.openfoam.com                      |
|    \\/     M anipulation  |                                                 |
\*---------------------------------------------------------------------------*/
FoamFile
{
    version     2.0;
    format      ascii;
    arch        "LSB;label=32;scalar=64";
    class       volScalarField;
    location    "0.1";
    object      nut;
}
// * * * * * * * * * * * * * * * * * * * * * * * * * * * * * * * * * * * * * //

dimensions      [0 2 -1 0 0 0 0];

internalField   nonuniform List<scalar> 
67442
(
1.50512e-06
1.49229e-06
1.49381e-06
1.46434e-06
1.46438e-06
1.49384e-06
1.49381e-06
1.4641e-06
1.49252e-06
1.49226e-06
1.49242e-06
1.46394e-06
1.49413e-06
9.26031e-08
5.26307e-07
3.89514e-08
9.04959e-08
4.98113e-07
1.50509e-06
1.50515e-06
1.5052e-06
5.86021e-07
1.50205e-06
1.21756e-06
3.84642e-08
1.50285e-06
6.07883e-07
1.24515e-06
2.63446e-07
2.69333e-07
3.90929e-08
3.84734e-08
2.7059e-07
2.63184e-07
9.23539e-08
5.25845e-07
6.08559e-07
1.50285e-06
1.24593e-06
6.07522e-07
1.50274e-06
1.24496e-06
2.69362e-07
2.63199e-07
3.83239e-08
5.86364e-07
1.50205e-06
1.21957e-06
9.04278e-08
4.98068e-07
1.502e-06
5.86223e-07
1.21937e-06
9.02444e-08
4.97541e-07
1.50191e-06
5.85942e-07
1.21751e-06
9.02253e-08
4.97509e-07
2.63385e-07
2.69789e-07
3.89514e-08
1.50295e-06
6.07782e-07
1.245e-06
9.23511e-08
5.25728e-07
9.23705e-08
5.25688e-07
3.83162e-08
3.89712e-08
3.24145e-08
9.27709e-08
2.31097e-07
2.31797e-07
3.23941e-08
6.61406e-08
5.27484e-07
8.16959e-08
4.10972e-07
8.18525e-08
4.11953e-07
6.60172e-08
3.90508e-08
6.40781e-08
4.98695e-07
3.90881e-07
7.90145e-08
3.13554e-08
9.06972e-08
2.21037e-07
2.2164e-07
3.13787e-08
3.14209e-08
9.0694e-08
2.21505e-07
6.40704e-08
4.98499e-07
3.90365e-07
7.8788e-08
3.90812e-07
7.8949e-08
6.39531e-08
3.85379e-08
3.85612e-08
4.5375e-07
9.39393e-07
2.64134e-07
8.45008e-08
9.37729e-07
8.46967e-08
4.53808e-07
4.59512e-07
9.56214e-07
2.70083e-07
8.45372e-08
9.55247e-07
8.47123e-08
4.59414e-07
1.33931e-07
3.4623e-08
3.47486e-08
3.4605e-08
3.47652e-08
1.34261e-07
3.91588e-08
3.85503e-08
3.85639e-08
4.58272e-07
9.53861e-07
2.71327e-07
8.54744e-08
8.56377e-08
9.52378e-07
4.58226e-07
4.55999e-07
9.42709e-07
2.63859e-07
8.39593e-08
8.4138e-08
9.40338e-07
4.56074e-07
1.33688e-07
3.48135e-08
3.4557e-08
3.47917e-08
3.45291e-08
1.34069e-07
3.24367e-08
9.25617e-08
2.3048e-07
2.31144e-07
3.24061e-08
6.59427e-08
5.26967e-07
8.1545e-08
4.10468e-07
8.1706e-08
4.11365e-07
6.57609e-08
4.59085e-07
9.54491e-07
2.70139e-07
8.45789e-08
8.48507e-08
9.53843e-07
4.58899e-07
4.54552e-07
9.38336e-07
2.63932e-07
8.45227e-08
9.37108e-07
8.47271e-08
4.53828e-07
1.33625e-07
3.47964e-08
3.46272e-08
3.4835e-08
3.46023e-08
1.33937e-07
3.84205e-08
6.40616e-08
4.98653e-07
7.90224e-08
3.90739e-07
3.13438e-08
9.06279e-08
2.20868e-07
2.2147e-07
3.13674e-08
3.14085e-08
9.06234e-08
2.21338e-07
6.40575e-08
4.98449e-07
7.87976e-08
3.9023e-07
7.89587e-08
3.90673e-07
6.39415e-08
3.13673e-08
9.04527e-08
2.205e-07
2.21087e-07
3.14019e-08
6.38924e-08
4.97921e-07
3.89823e-07
7.85979e-08
3.9026e-07
7.87546e-08
6.37274e-08
3.13603e-08
9.04302e-08
2.20457e-07
2.2103e-07
3.13963e-08
6.38879e-08
4.9788e-07
7.85905e-08
3.89791e-07
7.87468e-08
3.90208e-07
6.37245e-08
4.56392e-07
9.42471e-07
2.64089e-07
8.40729e-08
8.42514e-08
9.4023e-07
4.56211e-07
4.57535e-07
9.51348e-07
2.70537e-07
8.53772e-08
9.50651e-07
8.55591e-08
4.57679e-07
1.3362e-07
3.46697e-08
3.49621e-08
3.46314e-08
3.49648e-08
1.33964e-07
3.90493e-08
3.24235e-08
9.25523e-08
2.30491e-07
2.31156e-07
3.23944e-08
6.59246e-08
5.26894e-07
4.1041e-07
8.15227e-08
4.11327e-07
8.1674e-08
6.57426e-08
3.24185e-08
9.25703e-08
2.3047e-07
2.31133e-07
3.23914e-08
6.59273e-08
5.26866e-07
4.10415e-07
8.15154e-08
4.11321e-07
8.16683e-08
6.57461e-08
3.84056e-08
3.90677e-08
1.50594e-06
1.50589e-06
1.50647e-06
1.02709e-06
1.33348e-06
1.33895e-06
1.46413e-06
1.33262e-06
1.33847e-06
1.02862e-06
1.02704e-06
1.33807e-06
1.33464e-06
1.46406e-06
1.33795e-06
1.33318e-06
1.02915e-06
1.02462e-06
1.33759e-06
1.33176e-06
1.46385e-06
1.33093e-06
1.33725e-06
1.02588e-06
1.02374e-06
1.33345e-06
1.33637e-06
1.46364e-06
1.33621e-06
1.33262e-06
1.02506e-06
1.50598e-06
1.50595e-06
1.50641e-06
1.50605e-06
1.50607e-06
1.50648e-06
1.50595e-06
1.50599e-06
1.50642e-06
1.37952e-06
1.23153e-06
5.86777e-07
9.52141e-07
1.22989e-06
9.50049e-07
1.38054e-06
1.43352e-06
1.21547e-06
1.15015e-06
1.45227e-06
1.14771e-06
1.45107e-06
1.43478e-06
1.39374e-06
1.24843e-06
6.09518e-07
9.84377e-07
1.24867e-06
9.84132e-07
1.39375e-06
1.44389e-06
1.24506e-06
1.45969e-06
1.18111e-06
1.45972e-06
1.18094e-06
1.44394e-06
1.39396e-06
1.24836e-06
6.10253e-07
9.86093e-07
9.85673e-07
1.24806e-06
1.39395e-06
1.4443e-06
1.24567e-06
1.18258e-06
1.45991e-06
1.18214e-06
1.45975e-06
1.44425e-06
1.39335e-06
1.24835e-06
6.09437e-07
9.83939e-07
9.83724e-07
1.24805e-06
1.39326e-06
1.44386e-06
1.24479e-06
1.18087e-06
1.45972e-06
1.18071e-06
1.45958e-06
1.44392e-06
1.38037e-06
1.23448e-06
5.87255e-07
9.55435e-07
9.52349e-07
1.23238e-06
1.38182e-06
1.43386e-06
1.21673e-06
1.15281e-06
1.45214e-06
1.14975e-06
1.45108e-06
1.43491e-06
1.37991e-06
1.23384e-06
5.8722e-07
9.54367e-07
9.51401e-07
1.23173e-06
1.38141e-06
1.43362e-06
1.21653e-06
1.45205e-06
1.15217e-06
1.45098e-06
1.14916e-06
1.43471e-06
1.37938e-06
1.23167e-06
5.86822e-07
9.52085e-07
1.2301e-06
9.50019e-07
1.3804e-06
1.43345e-06
1.21536e-06
1.45222e-06
1.15007e-06
1.45101e-06
1.14763e-06
1.43474e-06
1.39361e-06
1.24991e-06
6.09503e-07
9.84555e-07
1.24963e-06
9.84386e-07
1.39328e-06
1.44385e-06
1.2449e-06
1.45974e-06
1.18097e-06
1.45978e-06
1.18085e-06
1.44381e-06
5.54061e-09
6.25637e-10
4.67436e-11
8.61597e-12
8.05473e-12
5.71914e-09
6.42688e-10
4.84897e-11
9.20697e-12
8.65795e-12
5.53133e-09
6.24584e-10
4.66887e-11
8.6255e-12
8.06709e-12
5.71861e-09
6.42971e-10
4.85176e-11
9.21597e-12
8.66683e-12
5.73132e-09
6.44405e-10
4.86048e-11
9.21638e-12
8.66451e-12
5.72016e-09
6.43103e-10
4.8519e-11
9.21309e-12
8.66385e-12
5.53025e-09
6.24236e-10
4.66532e-11
8.61121e-12
8.05236e-12
5.70217e-09
6.40936e-10
4.83974e-11
9.21622e-12
8.67037e-12
5.52794e-09
6.2426e-10
4.66682e-11
8.62365e-12
8.06581e-12
5.51999e-09
6.23144e-10
4.66093e-11
8.62683e-12
8.07065e-12
5.52042e-09
6.23131e-10
4.66118e-11
8.62858e-12
8.07238e-12
5.72008e-09
6.42863e-10
4.85098e-11
9.21245e-12
8.66316e-12
5.53093e-09
6.24315e-10
4.66605e-11
8.61263e-12
8.0536e-12
5.53209e-09
6.24449e-10
4.667e-11
8.61197e-12
8.05278e-12
5.7004e-09
6.40699e-10
4.83795e-11
9.21302e-12
8.66751e-12
5.72341e-09
6.43163e-10
4.85202e-11
9.2085e-12
8.65879e-12
5.47684e-09
6.17092e-10
4.69211e-11
9.21888e-12
8.71472e-12
5.55225e-09
6.26964e-10
4.68389e-11
8.63203e-12
8.07015e-12
5.73e-09
6.44081e-10
4.85799e-11
9.21922e-12
8.66927e-12
5.42511e-09
6.14412e-10
4.64574e-11
8.92536e-12
8.40468e-12
5.79309e-09
6.56138e-10
4.91743e-11
9.01788e-12
8.42958e-12
5.4285e-09
6.12049e-10
4.66051e-11
9.21244e-12
8.71659e-12
5.54299e-09
6.25928e-10
4.67851e-11
8.642e-12
8.08297e-12
5.54292e-09
6.26049e-10
4.6787e-11
8.62825e-12
8.06725e-12
5.72919e-09
6.44576e-10
4.86323e-11
9.22982e-12
8.67917e-12
5.73116e-09
6.44816e-10
4.86424e-11
9.21928e-12
8.66686e-12
5.65564e-09
6.38526e-10
4.76553e-11
8.6983e-12
8.11971e-12
5.66279e-09
6.39486e-10
4.77178e-11
8.70885e-12
8.12988e-12
5.64459e-09
6.37271e-10
4.75653e-11
8.69056e-12
8.11374e-12
5.65174e-09
6.38221e-10
4.76268e-11
8.70115e-12
8.124e-12
5.57645e-09
6.28538e-10
4.76706e-11
9.21932e-12
8.6934e-12
5.57256e-09
6.28146e-10
4.76464e-11
9.21787e-12
8.69261e-12
5.58569e-09
6.29789e-10
4.77515e-11
9.23077e-12
8.70409e-12
5.58189e-09
6.2939e-10
4.77265e-11
9.22943e-12
8.70346e-12
5.74236e-09
6.45959e-10
4.87152e-11
9.22978e-12
8.67648e-12
5.73024e-09
6.44663e-10
4.8631e-11
9.22682e-12
8.67613e-12
5.73185e-09
6.44864e-10
4.86386e-11
9.21645e-12
8.66409e-12
5.53921e-09
6.25391e-10
4.67299e-11
8.62625e-12
8.06725e-12
5.65593e-09
6.3862e-10
4.76677e-11
8.69978e-12
8.12091e-12
5.66389e-09
6.39602e-10
4.77298e-11
8.71021e-12
8.13096e-12
5.57953e-09
6.29015e-10
4.77059e-11
9.22005e-12
8.69324e-12
5.58747e-09
6.3014e-10
4.77795e-11
9.23166e-12
8.70432e-12
5.71165e-09
6.42252e-10
4.84843e-11
9.2287e-12
8.68203e-12
5.42432e-09
6.14319e-10
4.64529e-11
8.92577e-12
8.40519e-12
5.79365e-09
6.56197e-10
4.91779e-11
9.01792e-12
8.42952e-12
5.42679e-09
6.11851e-10
4.65918e-11
9.21035e-12
8.71478e-12
5.53943e-09
6.25593e-10
4.6764e-11
8.64002e-12
8.08156e-12
5.53945e-09
6.25726e-10
4.67668e-11
8.62638e-12
8.06594e-12
5.52817e-09
6.24254e-10
4.66846e-11
8.64224e-12
8.08598e-12
5.41627e-09
6.10198e-10
4.64867e-11
9.21083e-12
8.71811e-12
5.52805e-09
6.24196e-10
4.66847e-11
8.64378e-12
8.08755e-12
5.66265e-09
6.39389e-10
4.77127e-11
8.69941e-12
8.11888e-12
5.66871e-09
6.40226e-10
4.77657e-11
8.70852e-12
8.1277e-12
5.59851e-09
6.30736e-10
4.78112e-11
9.22468e-12
8.69507e-12
5.72899e-09
6.44065e-10
4.85889e-11
9.2244e-12
8.67446e-12
5.46345e-09
6.15093e-10
4.67898e-11
9.21485e-12
8.71409e-12
5.5394e-09
6.25437e-10
4.67355e-11
8.6277e-12
8.06859e-12
5.46287e-09
6.15064e-10
4.67875e-11
9.21424e-12
8.71357e-12
5.54043e-09
6.25553e-10
4.67438e-11
8.62694e-12
8.06769e-12
5.70888e-09
6.41917e-10
4.846e-11
9.22507e-12
8.67888e-12
5.73314e-09
6.44464e-10
4.86052e-11
9.22059e-12
8.67008e-12
5.46456e-09
6.15221e-10
4.67959e-11
9.21498e-12
8.71415e-12
5.41628e-09
6.10213e-10
4.64868e-11
9.20949e-12
8.71678e-12
5.44592e-09
6.16698e-10
4.6583e-11
8.91776e-12
8.39318e-12
5.8131e-09
6.58062e-10
4.92636e-11
8.99833e-12
8.40585e-12
5.82499e-09
6.59526e-10
4.93664e-11
9.00892e-12
8.41482e-12
5.43377e-09
6.15111e-10
4.6474e-11
8.90636e-12
8.38347e-12
5.46611e-09
6.15632e-10
4.68174e-11
9.2026e-12
8.69926e-12
5.64939e-09
6.3787e-10
4.76117e-11
8.69507e-12
8.11715e-12
5.65851e-09
6.39043e-10
4.76878e-11
8.70637e-12
8.12778e-12
5.5795e-09
6.29005e-10
4.77102e-11
9.22415e-12
8.6973e-12
5.59043e-09
6.30387e-10
4.77992e-11
9.23618e-12
8.70841e-12
5.41908e-09
6.10641e-10
4.65036e-11
9.19617e-12
8.7011e-12
5.42105e-09
6.14027e-10
4.64384e-11
8.93288e-12
8.41379e-12
5.7765e-09
6.54067e-10
4.9037e-11
9.01397e-12
8.42926e-12
5.78713e-09
6.55515e-10
4.91409e-11
9.02456e-12
8.43816e-12
5.41292e-09
6.1272e-10
4.63438e-11
8.92203e-12
8.40431e-12
5.43079e-09
6.12187e-10
4.66081e-11
9.19915e-12
8.70133e-12
5.65902e-09
6.39101e-10
4.76904e-11
8.70101e-12
8.12148e-12
5.67155e-09
6.40719e-10
4.78062e-11
8.71483e-12
8.13371e-12
5.5919e-09
6.30512e-10
4.77921e-11
9.22135e-12
8.69213e-12
5.60029e-09
6.31926e-10
4.78954e-11
9.23445e-12
8.70396e-12
5.66618e-09
6.39917e-10
4.77341e-11
8.69672e-12
8.11551e-12
5.67615e-09
6.41116e-10
4.78187e-11
8.70861e-12
8.12648e-12
5.59387e-09
6.30741e-10
4.78027e-11
9.21936e-12
8.68989e-12
5.60258e-09
6.32093e-10
4.7901e-11
9.23218e-12
8.70154e-12
5.65033e-09
6.38244e-10
4.76357e-11
8.69801e-12
8.11998e-12
5.66004e-09
6.39438e-10
4.77203e-11
8.70977e-12
8.1308e-12
5.57719e-09
6.29001e-10
4.7699e-11
9.21901e-12
8.69233e-12
5.58542e-09
6.30343e-10
4.77971e-11
9.23162e-12
8.70375e-12
5.43246e-09
6.14834e-10
4.64639e-11
8.9169e-12
8.39555e-12
5.80794e-09
6.57094e-10
4.92098e-11
9.00034e-12
8.40941e-12
5.81636e-09
6.58229e-10
4.92837e-11
9.00972e-12
8.41793e-12
5.4213e-09
6.13463e-10
4.63775e-11
8.90672e-12
8.38648e-12
5.45171e-09
6.13695e-10
4.66968e-11
9.19946e-12
8.69933e-12
5.42055e-09
6.13962e-10
4.64355e-11
8.93335e-12
8.41432e-12
5.77732e-09
6.54152e-10
4.90424e-11
9.01407e-12
8.42921e-12
5.78786e-09
6.55593e-10
4.91456e-11
9.02461e-12
8.43808e-12
5.41254e-09
6.12679e-10
4.63428e-11
8.92254e-12
8.40484e-12
5.41746e-09
6.10456e-10
4.64912e-11
9.19411e-12
8.69931e-12
5.429e-09
6.11985e-10
4.65947e-11
9.19707e-12
8.69954e-12
5.40684e-09
6.08931e-10
4.64017e-11
9.19427e-12
8.70192e-12
5.40708e-09
6.11961e-10
4.62995e-11
8.92621e-12
8.41061e-12
5.76719e-09
6.52595e-10
4.89458e-11
9.00933e-12
8.42692e-12
5.7733e-09
6.535e-10
4.90049e-11
9.01806e-12
8.43513e-12
5.39933e-09
6.10855e-10
4.62287e-11
8.91666e-12
8.40183e-12
5.40713e-09
6.11968e-10
4.62981e-11
8.92669e-12
8.41113e-12
5.76643e-09
6.52534e-10
4.89387e-11
9.00885e-12
8.42663e-12
5.77252e-09
6.53438e-10
4.89973e-11
9.01756e-12
8.43482e-12
5.39952e-09
6.10875e-10
4.62279e-11
8.91716e-12
8.40235e-12
5.40739e-09
6.08957e-10
4.64039e-11
9.19574e-12
8.70333e-12
5.61092e-09
6.32406e-10
4.79209e-11
9.23699e-12
8.70588e-12
5.45126e-09
6.13644e-10
4.6695e-11
9.19933e-12
8.69914e-12
5.43105e-09
6.14647e-10
4.6451e-11
8.91562e-12
8.39446e-12
5.80664e-09
6.56963e-10
4.9201e-11
9.00035e-12
8.40959e-12
5.81385e-09
6.5793e-10
4.9262e-11
9.00784e-12
8.41652e-12
5.42017e-09
6.13312e-10
4.63686e-11
8.90694e-12
8.38682e-12
5.45064e-09
6.13598e-10
4.66919e-11
9.19873e-12
8.69866e-12
5.43109e-09
6.14688e-10
4.64544e-11
8.91665e-12
8.39554e-12
5.80619e-09
6.56933e-10
4.92002e-11
9.00037e-12
8.40972e-12
5.8134e-09
6.57905e-10
4.9263e-11
9.0094e-12
8.41818e-12
5.42023e-09
6.13351e-10
4.63703e-11
8.90648e-12
8.38641e-12
1.49224e-06
1.46365e-06
1.49382e-06
1.50516e-06
4.97901e-07
1.50206e-06
1.21575e-06
9.0436e-08
4.9787e-07
1.50202e-06
5.86545e-07
1.21553e-06
3.84083e-08
2.63364e-07
6.37171e-08
4.97515e-07
3.90307e-07
7.87398e-08
3.8989e-07
7.85828e-08
6.38824e-08
3.13843e-08
9.02282e-08
2.21045e-07
2.20469e-07
3.13547e-08
6.37077e-08
4.97497e-07
7.87445e-08
3.90194e-07
7.85854e-08
3.89784e-07
6.38725e-08
3.83222e-08
4.55553e-07
9.38597e-07
2.62674e-07
8.40334e-08
9.40928e-07
8.3852e-08
4.56071e-07
4.57811e-07
9.49303e-07
9.50956e-07
4.57176e-07
1.33933e-07
3.46772e-08
3.46514e-08
1.33629e-07
1.02288e-06
1.46411e-06
1.33182e-06
1.33544e-06
1.33289e-06
1.33629e-06
1.02131e-06
1.50589e-06
1.50648e-06
1.50607e-06
1.50608e-06
1.50648e-06
1.43485e-06
1.21815e-06
1.14883e-06
1.45109e-06
1.15116e-06
1.45227e-06
1.43378e-06
1.38031e-06
1.2308e-06
5.85546e-07
9.50189e-07
9.52212e-07
1.23224e-06
1.37969e-06
1.43468e-06
1.21788e-06
1.45101e-06
1.14816e-06
1.45218e-06
1.15044e-06
1.43354e-06
1.39372e-06
1.24794e-06
1.24858e-06
1.39385e-06
1.46404e-06
1.49384e-06
1.49253e-06
1.50514e-06
3.90417e-08
3.84218e-08
2.70674e-07
2.63209e-07
9.25842e-08
5.26924e-07
6.09605e-07
1.50286e-06
1.24489e-06
9.05024e-08
5.86609e-07
3.89466e-08
3.83321e-08
4.57593e-07
9.51065e-07
2.69914e-07
8.54547e-08
8.52758e-08
9.52642e-07
4.57656e-07
4.55436e-07
9.3891e-07
2.62506e-07
8.39552e-08
8.37581e-08
9.41374e-07
4.55383e-07
1.34055e-07
3.47988e-08
3.45319e-08
3.48144e-08
3.45563e-08
1.33826e-07
3.24106e-08
9.23922e-08
2.31349e-07
2.30678e-07
3.24482e-08
6.57276e-08
5.25782e-07
8.16436e-08
4.11437e-07
8.1494e-08
4.1052e-07
6.59219e-08
3.13977e-08
9.02977e-08
2.21212e-07
2.20638e-07
3.13664e-08
1.02782e-06
1.46444e-06
1.33696e-06
1.33273e-06
1.3377e-06
1.33382e-06
1.0258e-06
1.50594e-06
1.39327e-06
1.24721e-06
6.0791e-07
9.84758e-07
1.24719e-06
9.85215e-07
1.39366e-06
1.44413e-06
1.24528e-06
1.18135e-06
1.45981e-06
1.18168e-06
1.45979e-06
1.44428e-06
1.38075e-06
1.23143e-06
5.85719e-07
9.5132e-07
1.23283e-06
9.53325e-07
1.38019e-06
5.52889e-09
6.24214e-10
4.66739e-11
8.63787e-12
8.08181e-12
5.71303e-09
6.42287e-10
4.84816e-11
9.22619e-12
8.6795e-12
5.40608e-09
6.08886e-10
4.63968e-11
9.19246e-12
8.70016e-12
5.52002e-09
6.23066e-10
4.65965e-11
8.62254e-12
8.06661e-12
5.70302e-09
6.4094e-10
4.83942e-11
9.21358e-12
8.66771e-12
5.3991e-09
6.10935e-10
4.62366e-11
8.91991e-12
8.40501e-12
5.77312e-09
6.53503e-10
4.90048e-11
9.02102e-12
8.43822e-12
5.76644e-09
6.52502e-10
4.89402e-11
9.01205e-12
8.4299e-12
5.40662e-09
6.11996e-10
4.63052e-11
8.92932e-12
8.41369e-12
5.39879e-09
6.10894e-10
4.62356e-11
8.92044e-12
8.40555e-12
5.77369e-09
6.53578e-10
4.90098e-11
9.0211e-12
8.43816e-12
5.76686e-09
6.52563e-10
4.89444e-11
9.01213e-12
8.42986e-12
5.40642e-09
6.11977e-10
4.63057e-11
8.92989e-12
8.41424e-12
5.41469e-09
6.10067e-10
4.64761e-11
9.20733e-12
8.71477e-12
5.65647e-09
6.38578e-10
4.76607e-11
8.70966e-12
8.13221e-12
5.64162e-09
6.36759e-10
4.75452e-11
8.69722e-12
8.12143e-12
5.58835e-09
6.29904e-10
4.77585e-11
9.23091e-12
8.704e-12
5.57421e-09
6.28047e-10
4.7639e-11
9.21845e-12
8.69331e-12
5.72779e-09
6.43839e-10
4.85744e-11
9.2262e-12
8.67658e-12
5.71456e-09
6.42419e-10
4.84828e-11
9.22306e-12
8.67624e-12
5.54218e-09
6.25636e-10
4.67517e-11
8.6298e-12
8.07023e-12
5.5322e-09
6.24528e-10
4.66939e-11
8.63969e-12
8.08308e-12
5.71668e-09
6.42411e-10
4.84829e-11
9.21397e-12
8.66533e-12
5.70443e-09
6.41046e-10
4.83935e-11
9.2106e-12
8.66468e-12
5.45353e-09
6.13886e-10
4.67109e-11
9.20052e-12
8.69998e-12
5.53269e-09
6.24433e-10
4.66719e-11
8.61468e-12
8.05533e-12
5.52348e-09
6.23381e-10
4.66161e-11
8.62423e-12
8.06774e-12
5.5902e-09
6.30212e-10
4.7775e-11
9.22893e-12
8.70159e-12
5.57287e-09
6.28425e-10
4.76687e-11
9.22832e-12
8.7038e-12
5.40778e-09
6.09068e-10
4.64087e-11
9.19448e-12
8.70192e-12
5.41623e-09
6.1024e-10
4.64877e-11
9.20936e-12
8.71657e-12
5.66589e-09
6.39691e-10
4.7726e-11
8.70623e-12
8.12654e-12
5.65759e-09
6.38628e-10
4.76577e-11
8.69538e-12
8.11618e-12
5.64964e-09
6.37986e-10
4.76253e-11
8.70735e-12
8.13087e-12
5.64118e-09
6.36883e-10
4.7555e-11
8.69656e-12
8.12066e-12
5.56204e-09
6.27038e-10
4.75801e-11
9.21663e-12
8.69308e-12
5.57907e-09
6.28811e-10
4.76857e-11
9.21704e-12
8.69065e-12
5.41946e-09
6.13276e-10
4.63629e-11
8.90396e-12
8.38396e-12
5.81227e-09
6.57686e-10
4.92428e-11
9.00574e-12
8.4149e-12
5.80449e-09
6.56632e-10
4.91754e-11
8.99637e-12
8.4062e-12
5.42991e-09
6.14538e-10
4.64428e-11
8.91392e-12
8.39297e-12
5.46583e-09
6.15337e-10
4.6806e-11
9.21581e-12
8.71465e-12
1.46556e-06
1.50763e-06
1.4946e-06
1.49606e-06
1.46556e-06
1.46521e-06
1.46552e-06
1.49673e-06
1.49633e-06
1.46524e-06
1.49463e-06
1.49447e-06
1.49446e-06
1.46501e-06
1.49622e-06
2.63205e-07
2.69073e-07
1.4655e-06
2.63678e-07
2.69636e-07
5.11089e-07
9.23178e-08
5.24149e-07
3.89294e-08
3.86867e-08
9.02133e-08
4.97002e-07
1.50768e-06
1.5077e-06
1.50768e-06
5.85091e-07
1.50447e-06
1.49412e-06
1.21236e-06
3.82698e-08
1.50534e-06
6.07258e-07
1.23976e-06
2.63148e-07
2.69015e-07
3.82693e-08
3.83234e-08
3.89266e-08
3.89678e-08
1.46557e-06
2.63711e-07
2.69609e-07
2.63215e-07
2.69103e-07
3.83162e-08
3.82915e-08
3.89585e-08
3.89438e-08
3.89142e-08
3.82915e-08
2.69493e-07
2.62212e-07
5.11069e-07
9.22992e-08
9.15593e-08
5.24143e-07
1.20922e-06
6.06541e-07
1.50563e-06
1.50475e-06
1.24092e-06
1.20922e-06
6.06174e-07
1.50561e-06
1.49581e-06
6.00645e-07
1.50477e-06
1.24093e-06
2.68957e-07
2.62864e-07
1.46523e-06
2.67774e-07
3.82808e-08
5.84785e-07
1.5045e-06
1.21275e-06
9.01578e-08
4.96948e-07
1.50446e-06
5.84646e-07
1.21243e-06
9.0164e-08
4.96972e-07
1.50445e-06
5.85081e-07
1.21231e-06
9.01641e-08
4.96938e-07
2.62304e-07
2.69593e-07
3.892e-08
1.50536e-06
6.07038e-07
1.23983e-06
9.22946e-08
5.25555e-07
9.23095e-08
5.25586e-07
3.82937e-08
3.89428e-08
1.3164e-07
3.42412e-08
3.43944e-08
3.42705e-08
3.44198e-08
1.31808e-07
4.53349e-07
9.30097e-07
8.43967e-08
2.63666e-07
8.45266e-08
4.53529e-07
9.27611e-07
4.59084e-07
9.45676e-07
8.44163e-08
2.69612e-07
8.45289e-08
4.59112e-07
9.46021e-07
1.31419e-07
3.42377e-08
3.43893e-08
3.42746e-08
3.44292e-08
1.31831e-07
4.535e-07
8.45401e-08
2.63193e-07
9.27072e-07
8.44126e-08
4.53476e-07
9.30473e-07
4.59089e-07
8.4543e-08
2.69089e-07
9.44608e-07
8.44368e-08
4.59195e-07
9.4728e-07
6.49083e-08
8.02047e-08
3.99905e-07
5.15422e-07
8.06444e-08
4.03017e-07
6.4618e-08
3.20767e-08
9.24808e-08
2.304e-07
2.30279e-07
3.2107e-08
3.18e-08
9.19017e-08
2.27562e-07
6.53972e-08
5.22799e-07
8.13907e-08
4.09689e-07
8.10344e-08
4.08786e-07
6.55855e-08
3.89644e-08
3.88735e-08
3.10837e-08
9.0278e-08
2.20463e-07
2.20895e-07
3.11165e-08
6.32941e-08
4.98065e-07
3.89533e-07
7.85178e-08
3.90372e-07
7.85425e-08
6.33954e-08
3.82694e-08
4.53999e-07
9.29865e-07
8.4415e-08
2.63619e-07
4.52996e-07
9.26766e-07
8.44662e-08
4.5968e-07
9.46243e-07
8.44363e-08
2.69548e-07
4.58611e-07
9.43874e-07
8.44861e-08
1.31452e-07
3.4231e-08
3.43823e-08
1.31806e-07
3.42237e-08
3.43777e-08
3.83126e-08
3.82809e-08
3.89636e-08
3.89392e-08
1.31554e-07
3.42563e-08
3.44107e-08
1.3194e-07
3.42463e-08
3.44012e-08
4.53239e-07
9.26506e-07
8.45074e-08
2.63229e-07
4.53759e-07
8.44359e-08
9.29946e-07
4.58819e-07
9.43666e-07
8.45144e-08
2.6909e-07
4.59445e-07
8.44489e-08
9.46343e-07
1.31946e-07
3.42245e-08
3.43793e-08
1.31555e-07
3.42458e-08
3.43974e-08
4.53629e-07
8.44334e-08
9.30543e-07
2.6373e-07
4.53447e-07
8.45448e-08
9.27013e-07
4.5932e-07
8.44526e-08
9.47202e-07
2.69654e-07
4.59031e-07
8.45434e-08
9.44291e-07
3.82972e-08
3.83257e-08
3.89457e-08
3.89665e-08
3.89685e-08
3.88031e-08
3.82981e-08
4.57679e-07
9.42731e-07
2.70602e-07
8.5203e-08
8.5268e-08
9.41474e-07
4.57047e-07
4.55548e-07
9.31614e-07
2.62739e-07
8.36793e-08
8.37447e-08
9.28436e-07
4.54721e-07
2.689e-07
9.42985e-07
1.31375e-07
3.44252e-08
3.41692e-08
3.4418e-08
3.4161e-08
1.31725e-07
6.49792e-08
8.02277e-08
3.99801e-07
5.15438e-07
8.06667e-08
4.02957e-07
6.45892e-08
3.20123e-08
9.23911e-08
2.30447e-07
2.30047e-07
3.21337e-08
3.1855e-08
2.26146e-07
9.20078e-08
2.27697e-07
3.16668e-08
6.53253e-08
5.22756e-07
8.14221e-08
4.09664e-07
8.10529e-08
4.08598e-07
6.56304e-08
1.31488e-07
3.4537e-08
3.45084e-08
3.43267e-08
4.58972e-07
9.44958e-07
2.70002e-07
8.45179e-08
8.46163e-08
9.43926e-07
4.58303e-07
4.5472e-07
9.28489e-07
2.63467e-07
8.44502e-08
9.28484e-07
8.45345e-08
4.53132e-07
4.56129e-07
8.46451e-08
2.6871e-07
9.36364e-07
8.46736e-08
9.45083e-07
4.57824e-07
4.55591e-07
2.62668e-07
9.30555e-07
8.43941e-08
1.31415e-07
3.44454e-08
3.42567e-08
3.44494e-08
3.4291e-08
1.3166e-07
3.82995e-08
3.82909e-08
3.10724e-08
9.02161e-08
2.20309e-07
2.20744e-07
3.11049e-08
6.32808e-08
4.98005e-07
7.85231e-08
3.894e-07
7.85504e-08
3.90234e-07
6.33808e-08
6.33423e-08
4.96654e-07
3.89238e-07
7.85402e-08
3.10819e-08
9.02378e-08
2.20314e-07
2.20788e-07
3.1113e-08
3.11002e-08
9.02002e-08
2.20303e-07
6.32766e-08
4.98113e-07
3.89434e-07
7.85337e-08
3.90317e-07
7.85667e-08
6.33894e-08
6.33411e-08
4.96631e-07
7.85418e-08
3.89212e-07
3.1083e-08
9.02344e-08
2.20316e-07
2.20775e-07
3.11158e-08
3.11029e-08
9.01975e-08
2.20305e-07
6.32732e-08
4.98076e-07
7.85256e-08
3.89412e-07
7.85615e-08
3.90274e-07
6.33884e-08
4.55577e-07
9.30298e-07
2.62821e-07
8.37437e-08
8.37855e-08
9.27298e-07
4.54417e-07
4.57419e-07
9.42717e-07
2.70133e-07
8.52847e-08
9.40442e-07
8.5332e-08
4.56473e-07
1.31108e-07
3.42219e-08
3.44706e-08
3.41966e-08
3.44457e-08
1.31491e-07
3.89273e-08
3.20973e-08
9.23565e-08
2.30401e-07
2.30926e-07
3.21069e-08
6.56662e-08
5.26766e-07
4.10142e-07
8.14569e-08
4.11224e-07
8.14978e-08
6.56361e-08
3.20971e-08
9.23698e-08
2.30419e-07
2.3093e-07
3.21078e-08
6.56776e-08
5.26805e-07
4.10219e-07
8.14524e-08
4.11277e-07
8.14937e-08
6.5646e-08
3.82961e-08
3.82983e-08
3.89452e-08
1.01839e-06
1.33089e-06
1.33596e-06
1.46521e-06
1.02074e-06
1.32938e-06
1.33577e-06
1.50858e-06
1.50853e-06
1.50898e-06
1.01769e-06
1.33081e-06
1.33629e-06
1.46533e-06
1.02066e-06
1.32893e-06
1.33483e-06
1.02016e-06
1.46568e-06
1.32898e-06
1.33473e-06
1.01763e-06
1.33086e-06
1.33626e-06
1.01753e-06
1.33514e-06
1.33116e-06
1.46535e-06
1.33368e-06
1.32927e-06
1.02048e-06
1.01716e-06
1.33509e-06
1.32926e-06
1.46505e-06
1.32841e-06
1.33482e-06
1.01879e-06
1.01452e-06
1.32999e-06
1.33357e-06
1.46485e-06
1.33223e-06
1.32824e-06
1.01713e-06
1.02142e-06
1.46574e-06
1.32915e-06
1.33518e-06
1.01861e-06
1.33097e-06
1.33662e-06
1.50863e-06
1.50858e-06
1.50899e-06
1.50859e-06
1.50866e-06
1.509e-06
1.50859e-06
1.50864e-06
1.50901e-06
1.37809e-06
1.22697e-06
5.87302e-07
9.43436e-07
1.22484e-06
9.40625e-07
1.37938e-06
1.37925e-06
5.84622e-07
1.22659e-06
9.43512e-07
1.43351e-06
1.20878e-06
1.14371e-06
1.45293e-06
1.14007e-06
1.4519e-06
1.43471e-06
1.39186e-06
1.24355e-06
6.09783e-07
9.75526e-07
1.24178e-06
9.73719e-07
1.3926e-06
1.44413e-06
1.23834e-06
1.46092e-06
1.17478e-06
1.4606e-06
1.17323e-06
1.44414e-06
1.01698e-06
1.46535e-06
1.33101e-06
1.33671e-06
1.01985e-06
1.32913e-06
1.33505e-06
1.43886e-06
1.14461e-06
1.45381e-06
1.22207e-06
1.15625e-06
1.45577e-06
1.43646e-06
1.39356e-06
1.24205e-06
6.10908e-07
9.75025e-07
9.74838e-07
1.24373e-06
1.39235e-06
1.38541e-06
6.02786e-07
9.5629e-07
1.23736e-06
1.44409e-06
1.23238e-06
1.17603e-06
1.46123e-06
1.16994e-06
1.46016e-06
1.44442e-06
1.43903e-06
1.1434e-06
1.45377e-06
1.22206e-06
1.15699e-06
1.45574e-06
1.43634e-06
1.39363e-06
1.24311e-06
6.10602e-07
9.74696e-07
9.74482e-07
1.24471e-06
1.39241e-06
1.38832e-06
9.47172e-07
6.02805e-07
1.23125e-06
9.60189e-07
1.38139e-06
1.24192e-06
1.44408e-06
1.23213e-06
1.1761e-06
1.46123e-06
1.16844e-06
1.46014e-06
1.44446e-06
1.01768e-06
1.4655e-06
1.33307e-06
1.32767e-06
1.32931e-06
1.33614e-06
1.01507e-06
1.37785e-06
1.22774e-06
5.87072e-07
9.43824e-07
9.40127e-07
1.225e-06
1.37968e-06
1.43365e-06
1.20913e-06
1.14421e-06
1.45292e-06
1.14044e-06
1.45193e-06
1.43486e-06
1.37741e-06
1.22682e-06
5.86988e-07
9.42988e-07
9.39453e-07
1.22411e-06
1.37926e-06
1.43344e-06
1.20887e-06
1.45281e-06
1.14348e-06
1.45183e-06
1.13986e-06
1.43467e-06
1.37738e-06
1.22645e-06
5.87308e-07
9.43074e-07
1.22374e-06
9.39519e-07
1.37922e-06
1.43347e-06
1.20874e-06
1.45292e-06
1.14355e-06
1.45187e-06
1.13992e-06
1.43469e-06
1.39196e-06
1.2447e-06
6.09628e-07
9.75198e-07
1.24301e-06
9.73435e-07
1.39266e-06
1.44416e-06
1.2384e-06
1.46095e-06
1.17471e-06
1.4607e-06
1.17317e-06
1.44417e-06
1.50717e-06
1.49358e-06
1.49565e-06
1.46535e-06
1.50771e-06
1.49455e-06
1.49618e-06
1.46575e-06
1.50774e-06
1.49456e-06
1.49616e-06
1.46556e-06
1.50775e-06
1.4946e-06
1.49616e-06
1.46556e-06
1.50776e-06
1.49458e-06
1.49616e-06
1.46557e-06
1.50775e-06
1.49459e-06
1.49616e-06
1.46557e-06
1.50776e-06
1.49457e-06
1.49616e-06
1.46557e-06
1.50775e-06
1.49459e-06
1.49616e-06
1.46556e-06
1.50775e-06
1.49457e-06
1.49616e-06
1.46556e-06
1.50775e-06
1.49459e-06
1.49616e-06
1.46556e-06
1.50776e-06
1.49457e-06
1.49615e-06
1.46556e-06
1.50775e-06
1.49458e-06
1.49616e-06
1.46556e-06
1.50776e-06
1.49458e-06
1.49616e-06
1.46556e-06
1.50775e-06
1.49459e-06
1.49615e-06
1.46556e-06
1.50776e-06
1.49457e-06
1.49615e-06
1.46556e-06
1.50775e-06
1.49459e-06
1.49616e-06
1.46525e-06
1.49502e-06
1.49429e-06
1.46432e-06
1.49369e-06
1.49345e-06
1.49279e-06
1.49288e-06
1.4648e-06
1.49498e-06
1.4946e-06
1.4648e-06
1.46536e-06
1.46552e-06
1.49551e-06
1.49496e-06
1.49606e-06
1.49599e-06
1.46487e-06
1.46529e-06
1.49415e-06
1.49396e-06
1.49472e-06
1.49454e-06
1.49354e-06
1.49448e-06
1.4945e-06
1.46494e-06
1.46505e-06
1.49527e-06
1.49613e-06
1.49629e-06
1.46539e-06
1.4656e-06
1.46529e-06
1.49595e-06
1.49596e-06
1.49602e-06
1.49607e-06
1.46543e-06
1.46504e-06
1.49462e-06
1.49445e-06
1.49466e-06
1.49449e-06
1.49445e-06
1.49453e-06
1.49451e-06
1.46516e-06
1.46482e-06
1.49622e-06
1.49612e-06
1.49628e-06
1.46524e-06
1.46539e-06
1.46529e-06
1.49591e-06
1.49597e-06
1.49602e-06
1.49609e-06
1.46518e-06
1.46522e-06
1.49456e-06
1.49439e-06
1.49467e-06
1.49449e-06
1.4944e-06
1.49458e-06
1.4945e-06
1.46492e-06
1.46481e-06
1.49618e-06
1.49612e-06
1.49628e-06
1.46523e-06
1.4654e-06
1.46529e-06
1.49592e-06
1.496e-06
1.49602e-06
1.49608e-06
1.46532e-06
1.46504e-06
1.49457e-06
1.4944e-06
1.49467e-06
1.49449e-06
1.4944e-06
1.49455e-06
1.49451e-06
1.46496e-06
1.46482e-06
1.49618e-06
1.49612e-06
1.49628e-06
1.46523e-06
1.4654e-06
1.46529e-06
1.49592e-06
1.49598e-06
1.49602e-06
1.49609e-06
1.46518e-06
1.46519e-06
1.49457e-06
1.4944e-06
1.49468e-06
1.49449e-06
1.49441e-06
1.49458e-06
1.4945e-06
1.46496e-06
1.46482e-06
1.49618e-06
1.49613e-06
1.49628e-06
1.46523e-06
1.46539e-06
1.46529e-06
1.49592e-06
1.49599e-06
1.49602e-06
1.49607e-06
1.46529e-06
1.46503e-06
1.49458e-06
1.4944e-06
1.49468e-06
1.49449e-06
1.4944e-06
1.49455e-06
1.49451e-06
1.46494e-06
1.46482e-06
1.49618e-06
1.49612e-06
1.49628e-06
1.46523e-06
1.4654e-06
1.46529e-06
1.49592e-06
1.49597e-06
1.49602e-06
1.49608e-06
1.46518e-06
1.46521e-06
1.49458e-06
1.4944e-06
1.49467e-06
1.49449e-06
1.49441e-06
1.49459e-06
1.4945e-06
1.46496e-06
1.46481e-06
1.49618e-06
1.49612e-06
1.49628e-06
1.46523e-06
1.4654e-06
1.46529e-06
1.49592e-06
1.49599e-06
1.49602e-06
1.49607e-06
1.46532e-06
1.46503e-06
1.49457e-06
1.4944e-06
1.49467e-06
1.49449e-06
1.4944e-06
1.49455e-06
1.4945e-06
1.46492e-06
1.46481e-06
1.49618e-06
1.49612e-06
1.49628e-06
1.46523e-06
1.4654e-06
1.46529e-06
1.49592e-06
1.49597e-06
1.49602e-06
1.49608e-06
1.46517e-06
1.46519e-06
1.49457e-06
1.4944e-06
1.49467e-06
1.49449e-06
1.4944e-06
1.49458e-06
1.4945e-06
1.46492e-06
1.46481e-06
1.49618e-06
1.49611e-06
1.49628e-06
1.46523e-06
1.4654e-06
1.46529e-06
1.49592e-06
1.49599e-06
1.49602e-06
1.49607e-06
1.46529e-06
1.46504e-06
1.49457e-06
1.4944e-06
1.49467e-06
1.49449e-06
1.4944e-06
1.49455e-06
1.4945e-06
1.46492e-06
1.46481e-06
1.49618e-06
1.49612e-06
1.49628e-06
1.46522e-06
1.4654e-06
1.46529e-06
1.49592e-06
1.49597e-06
1.49602e-06
1.49609e-06
1.46519e-06
1.46521e-06
1.49457e-06
1.4944e-06
1.49468e-06
1.49449e-06
1.4944e-06
1.49457e-06
1.4945e-06
1.46492e-06
1.46482e-06
1.49618e-06
1.49612e-06
1.49628e-06
1.46523e-06
1.4654e-06
1.46529e-06
1.49592e-06
1.49599e-06
1.49602e-06
1.49607e-06
1.46531e-06
1.46504e-06
1.49458e-06
1.4944e-06
1.49467e-06
1.49449e-06
1.4944e-06
1.49456e-06
1.4945e-06
1.46493e-06
1.46481e-06
1.49618e-06
1.49612e-06
1.49628e-06
1.46523e-06
1.4654e-06
1.46529e-06
1.49592e-06
1.49597e-06
1.49602e-06
1.49608e-06
1.46519e-06
1.46521e-06
1.49457e-06
1.4944e-06
1.49467e-06
1.49449e-06
1.4944e-06
1.49458e-06
1.4945e-06
1.46492e-06
1.46481e-06
1.49618e-06
1.49611e-06
1.49628e-06
1.46522e-06
1.4654e-06
1.46529e-06
1.49592e-06
1.49599e-06
1.49602e-06
1.49607e-06
1.46532e-06
1.46504e-06
1.49457e-06
1.4944e-06
1.49467e-06
1.49449e-06
1.4944e-06
1.49454e-06
1.4945e-06
1.46492e-06
1.46481e-06
1.49618e-06
1.49611e-06
1.49628e-06
1.46523e-06
1.46539e-06
1.46529e-06
1.49592e-06
1.49597e-06
1.49602e-06
1.49609e-06
1.46518e-06
1.46521e-06
1.49457e-06
1.4944e-06
1.49467e-06
1.49449e-06
1.4944e-06