/*--------------------------------*- C++ -*----------------------------------*\
| =========                 |                                                 |
| \\      /  F ield         | OpenFOAM: The Open Source CFD Toolbox           |
|  \\    /   O peration     | Version:  2206                                  |
|   \\  /    A nd           | Website:  www.openfoam.com                      |
|    \\/     M anipulation  |                                                 |
\*---------------------------------------------------------------------------*/
FoamFile
{
    version     2.0;
    format      ascii;
    arch        "LSB;label=32;scalar=64";
    class       surfaceScalarField;
    location    "0.1";
    object      phi;
}
// * * * * * * * * * * * * * * * * * * * * * * * * * * * * * * * * * * * * * //

dimensions      [0 3 -1 0 0 0 0];

oriented        oriented;

internalField   nonuniform List<scalar> 
198714
(
-5.2743e-13
5.21371e-13
-4.35913e-13
4.41479e-13
-9.97776e-08
9.97776e-08
-4.46045e-11
-9.26062e-13
-5.22578e-13
1.61112e-11
4.52557e-11
-1.09841e-11
-4.06016e-11
4.43525e-11
-4.7832e-11
4.14165e-11
9.84746e-08
-4.82204e-11
1.055e-13
7.18233e-14
1.48172e-12
4.9089e-11
-1.88858e-12
1.43403e-11
1.16065e-11
-1.26123e-11
-1.36619e-11
-9.92587e-08
9.92584e-08
3.63152e-11
4.8884e-11
3.4144e-11
1.88168e-11
2.45006e-08
4.19946e-11
4.43571e-11
2.54257e-11
2.67189e-11
2.44893e-08
-2.46278e-08
7.77012e-13
-2.25471e-12
4.25484e-11
2.04205e-12
3.30351e-11
9.70228e-12
-1.13795e-11
-3.30324e-11
-1.00174e-07
1.00174e-07
-4.19494e-11
9.92159e-13
1.24296e-12
-2.23623e-12
4.22036e-11
-1.03559e-12
3.29867e-11
9.6508e-12
-8.47402e-12
-3.30021e-11
1.00201e-07
2.47729e-11
2.72484e-11
2.44899e-08
-5.81403e-13
1.66234e-11
4.54207e-11
-1.65111e-11
-4.06315e-11
4.42222e-11
-4.5183e-11
4.14146e-11
-9.84852e-08
9.84853e-08
-3.63287e-11
1.20163e-13
-4.15655e-13
1.15481e-11
3.75753e-11
-1.22294e-11
-2.01059e-11
4.30588e-11
-4.43333e-11
2.03339e-11
-9.93962e-08
9.9397e-08
-2.91205e-14
-2.70868e-13
1.2263e-11
3.75625e-11
-1.23252e-11
-2.04206e-11
4.35915e-11
-4.47268e-11
2.06964e-11
9.93948e-08
3.33559e-11
1.92837e-11
2.44959e-08
-2.46331e-08
9.69492e-14
1.16099e-14
1.80375e-12
4.95161e-11
-2.21037e-12
1.45935e-11
1.14668e-11
-1.26321e-11
-1.3831e-11
9.92908e-08
1.22639e-12
-2.9141e-12
1.94636e-08
-2.84409e-12
-2.71224e-12
-1.94563e-08
5.54201e-14
-1.17909e-11
2.35297e-08
3.81622e-12
2.07334e-12
-2.35238e-08
-1.06119e-12
-2.20429e-12
1.03439e-08
-3.57478e-12
2.08597e-12
-1.18687e-11
1.90926e-08
-3.63432e-12
-2.72384e-12
-1.90765e-08
-4.54575e-11
5.44404e-15
2.29677e-08
4.54215e-12
1.61966e-11
-2.2943e-08
-7.6722e-13
6.19256e-13
9.9777e-08
2.95726e-13
-2.17899e-13
-1.00034e-07
1.00035e-07
1.49883e-13
-3.24416e-13
1.00053e-07
1.04477e-11
1.15051e-11
-1.64067e-11
2.37428e-08
-1.64706e-11
4.11141e-13
-6.77709e-13
-7.59283e-11
1.0486e-10
-1.04384e-10
7.55559e-11
9.92753e-08
4.54585e-11
1.54221e-13
2.3864e-08
1.01607e-11
-7.401e-11
-2.19214e-12
-5.64439e-12
1.01533e-08
-3.56841e-12
-1.01419e-08
2.95012e-13
9.17974e-13
1.46546e-11
-1.89133e-11
1.91224e-11
-1.52117e-11
9.86381e-08
5.13058e-12
2.83937e-12
4.91923e-12
2.40543e-08
-8.6388e-12
1.44922e-13
1.1521e-11
2.43291e-08
-3.10357e-14
4.47778e-12
-1.05888e-11
5.68462e-12
-2.13533e-11
2.77719e-08
3.97028e-12
-5.45124e-12
2.57961e-12
-1.23108e-11
2.78694e-08
2.35453e-12
-2.70262e-12
1.03439e-08
-3.44034e-12
-1.03365e-08
-5.81032e-12
1.01546e-08
-3.49235e-12
-1.01432e-08
-5.86705e-12
-1.26883e-11
2.80767e-08
2.47479e-12
-2.80633e-08
-1.04234e-11
-2.13075e-11
2.75696e-08
4.27011e-12
-2.75479e-08
-2.93488e-12
1.94669e-08
-2.5018e-12
-2.69861e-12
-1.18352e-11
2.35336e-08
4.0662e-12
2.09553e-12
5.06386e-12
2.40448e-08
-8.90235e-12
-2.40497e-08
2.38578e-13
5.61019e-13
3.24167e-11
-1.94563e-11
1.9584e-11
-3.22229e-11
-1.00742e-07
1.00742e-07
1.84116e-13
2.43299e-08
4.41903e-12
-1.90871e-13
-2.43461e-08
5.58952e-12
4.89382e-12
2.40392e-08
-8.66108e-12
4.98391e-13
3.24962e-11
-1.94367e-11
1.96151e-11
-3.21666e-11
1.00755e-07
2.43332e-08
4.42716e-12
3.65407e-14
-1.28423e-11
2.79347e-08
2.53432e-12
5.63736e-12
-2.16365e-11
2.77133e-08
3.90858e-12
-1.97222e-12
1.01549e-08
-3.4721e-12
-1.62041e-11
2.37314e-08
-1.63179e-11
-2.37211e-08
5.00078e-13
-5.12539e-13
-7.59928e-11
1.05081e-10
-1.04453e-10
7.57855e-11
-9.9272e-08
9.9271e-08
1.67237e-13
2.38627e-08
1.01429e-11
-7.39733e-11
-2.38445e-08
-1.1824e-11
1.9087e-08
-3.74805e-12
-2.72119e-12
-1.90709e-08
-4.54842e-11
2.29638e-08
1.62099e-11
4.51717e-12
-2.29391e-08
-7.78737e-13
-5.82585e-11
1.04342e-10
-1.04196e-10
5.88621e-11
-1.00328e-07
1.00328e-07
1.07311e-11
-1.62694e-11
2.37157e-08
-1.63533e-11
-2.37056e-08
2.386e-08
-7.39995e-11
1.0042e-11
-2.38414e-08
1.90933e-08
-3.54502e-12
-2.76366e-12
6.21979e-16
2.29691e-08
4.53874e-12
1.60517e-11
-9.43047e-13
-5.82204e-11
1.04387e-10
-1.04151e-10
5.88931e-11
1.00329e-07
1.17205e-11
-1.6231e-11
2.37269e-08
-1.62602e-11
4.54682e-11
2.38612e-08
-7.40198e-11
1.00217e-11
2.07925e-12
1.90875e-08
-3.63529e-12
-2.75985e-12
2.29649e-08
1.60635e-11
4.47193e-12
-2.10644e-11
2.76288e-08
3.99714e-12
-2.76067e-08
2.45166e-12
-1.29578e-11
2.80122e-08
2.61138e-12
-8.42841e-13
1.03432e-08
-3.5253e-12
8.6129e-13
1.46661e-11
-1.8903e-11
1.8894e-11
-1.54085e-11
9.86485e-08
3.01545e-12
5.16243e-12
2.4048e-08
-8.68942e-12
1.15334e-11
2.4332e-08
-3.84082e-14
4.42157e-12
1.94626e-08
-2.5169e-12
-2.77527e-12
3.57656e-14
2.35289e-08
2.03761e-12
3.57842e-12
9.54883e-13
1.94664e-08
-2.65221e-12
-2.75701e-12
2.35332e-08
2.05757e-12
3.3266e-12
1.01533e-08
-3.58003e-12
1.03441e-08
-3.55969e-12
-2.04203e-12
-8.68776e-09
1.10763e-12
4.42867e-12
8.68426e-09
2.24788e-12
-1.09729e-12
3.01218e-12
2.76778e-12
1.94566e-08
2.73873e-08
-1.74711e-12
-3.61632e-12
-6.56197e-12
-2.73782e-08
3.22041e-12
6.20054e-12
2.7378e-08
-1.35583e-12
-4.13931e-12
-8.68401e-09
7.52075e-13
2.19501e-12
-1.51415e-08
1.96046e-12
1.51377e-08
-3.35843e-12
-1.92968e-12
1.7375e-14
1.14337e-11
2.35235e-08
1.81618e-08
9.38673e-13
-8.82874e-14
-1.82344e-12
-1.8157e-08
2.2981e-08
2.74798e-12
-9.95081e-12
-2.29753e-08
-7.41204e-14
1.99918e-12
1.81573e-08
9.42567e-12
2.29751e-08
-1.7567e-12
-1.51374e-08
8.80708e-13
2.25481e-12
3.44709e-12
1.03373e-08
-1.32398e-11
-1.41267e-12
2.29911e-12
-1.47116e-08
-1.79217e-12
1.47257e-08
4.56983e-12
1.62188e-11
-2.29426e-08
-2.41823e-15
2.29673e-08
-4.54919e-11
6.85574e-12
-2.2437e-08
2.24591e-08
-3.75599e-11
-1.76323e-08
-1.9154e-15
-1.83804e-12
1.7649e-08
2.43285e-12
-8.44276e-09
8.43346e-09
2.41359e-12
4.4569e-12
3.51472e-12
1.90768e-08
-2.12711e-12
1.15976e-11
2.83805e-12
2.68096e-08
3.08782e-12
-6.88754e-12
-2.4319e-11
-2.67851e-08
2.67851e-08
6.87992e-12
2.36298e-11
-2.27815e-12
-4.17644e-12
-8.43322e-09
-3.15152e-12
-4.0758e-12
8.44299e-09
-3.61657e-12
2.09061e-12
-2.69428e-12
1.90929e-08
-1.18666e-11
2.68095e-08
-2.43072e-11
1.28845e-11
1.46234e-12
-1.47254e-08
1.914e-12
-4.50287e-12
-1.59061e-11
-2.3633e-14
4.55044e-11
2.24594e-08
1.31141e-11
-3.75389e-11
-2.24373e-08
1.76487e-08
1.41609e-12
-8.0102e-15
-1.88352e-12
-1.76321e-08
3.76033e-11
-8.96378e-15
1.98562e-12
-1.85853e-12
-1.47113e-08
1.01422e-08
2.04887e-12
5.36398e-12
3.64872e-12
-2.24127e-12
-3.54364e-12
1.01535e-08
-5.53558e-12
1.84069e-11
-1.01236e-11
-2.29062e-08
-1.27612e-11
1.89934e-11
2.28917e-08
2.46127e-08
1.83997e-11
-3.69911e-11
-2.91431e-11
2.14996e-11
-4.19641e-12
-5.45581e-12
1.06185e-11
2.77494e-08
1.85074e-08
-1.06406e-11
2.91309e-12
-1.88505e-12
3.73319e-11
2.91519e-11
2.45861e-08
-2.95692e-12
1.93213e-12
1.84941e-08
1.30687e-11
-1.96576e-11
1.57961e-11
-6.82132e-12
-2.1939e-08
-1.33712e-11
1.33471e-11
2.19301e-08
2.39842e-08
1.52997e-11
-2.37301e-11
-2.05323e-11
1.23301e-11
-2.44636e-12
-2.50132e-12
5.5661e-12
2.78565e-08
1.83622e-08
-7.26043e-12
2.64808e-12
-1.89421e-12
2.33369e-11
2.16243e-11
2.39673e-08
-2.62722e-12
1.93008e-12
1.83537e-08
1.34427e-11
-1.41684e-11
-3.29417e-12
-2.68656e-12
-2.08884e-08
2.08682e-08
8.52159e-09
-3.51404e-12
-3.21024e-12
8.57549e-09
-2.84664e-12
-3.23901e-12
3.26683e-12
8.51207e-09
3.29789e-12
8.56688e-09
2.41885e-12
3.53121e-12
1.03369e-08
1.01435e-08
5.22463e-12
3.71904e-12
-3.41783e-12
1.01549e-08
-5.83154e-12
-6.93857e-12
1.50497e-11
-2.29853e-08
-1.22124e-11
1.61996e-11
2.29732e-08
2.47964e-08
1.45787e-11
-2.57064e-11
-1.95436e-11
-2.47784e-08
-2.52789e-12
1.27819e-11
5.81217e-12
2.80631e-08
1.86604e-08
-7.56794e-12
2.37243e-12
-1.84834e-12
-1.86509e-08
-2.29939e-12
1.98952e-12
1.86512e-08
2.53679e-11
2.07867e-11
2.4778e-08
1.24324e-11
-1.72273e-11
-2.29735e-08
-1.00703e-11
1.94171e-11
-2.18647e-08
-1.34938e-11
1.5449e-11
2.18534e-08
2.38163e-08
1.96983e-11
-3.39323e-11
-2.94279e-11
-2.37939e-08
-4.26524e-12
2.10828e-11
1.02742e-11
2.75477e-08
1.82146e-08
-1.0764e-11
3.09326e-12
-1.81537e-12
-1.82008e-08
-2.93742e-12
2.01386e-12
1.82012e-08
3.39138e-11
2.92891e-11
2.37936e-08
1.41108e-11
-1.61954e-11
-2.18537e-08
-2.49096e-12
-3.35755e-12
-2.08906e-08
2.08707e-08
8.56956e-09
-2.89937e-12
-3.12202e-12
-8.56117e-09
8.52774e-09
-3.69289e-12
-3.09138e-12
-8.51787e-09
3.42803e-12
8.56134e-09
3.41113e-12
8.51804e-09
-2.08706e-08
-1.93021e-12
-8.69262e-09
1.16776e-12
4.32483e-12
8.68906e-09
1.88361e-12
3.13487e-12
2.74518e-12
1.946e-08
2.73992e-08
-1.81898e-12
-3.67853e-12
-6.87973e-12
3.27583e-12
6.47043e-12
2.73894e-08
-1.34626e-12
-4.11043e-12
8.76519e-13
2.55654e-12
-1.51492e-08
1.91068e-12
1.51451e-08
-3.64901e-12
-1.93608e-12
1.1456e-11
2.35278e-08
1.81658e-08
8.31681e-13
-1.79763e-12
2.299e-08
2.91914e-12
-1.00205e-11
1.96777e-12
1.8161e-08
9.43e-12
2.29844e-08
-1.73022e-12
2.2884e-11
6.19806e-11
-2.19742e-08
-1.34364e-10
-1.22996e-10
2.21467e-08
2.43692e-08
1.2369e-11
-2.84694e-11
-1.96407e-11
-1.313e-11
7.20593e-12
5.74249e-12
2.79372e-08
1.83529e-08
-1.01879e-11
-1.07169e-13
-1.87688e-12
-3.16882e-11
1.74533e-12
1.83926e-08
-7.64879e-12
2.4359e-11
2.44217e-08
-3.22698e-12
-3.25036e-11
-2.76707e-11
-4.08483e-11
-2.28876e-08
1.18761e-10
1.45801e-10
2.26915e-08
2.42423e-08
2.2037e-11
-3.28397e-11
-2.97544e-11
2.67126e-11
6.6431e-12
-5.02474e-12
1.06487e-11
2.76743e-08
1.85197e-08
-9.78229e-12
5.68775e-12
-1.69551e-12
6.59868e-11
2.63131e-11
2.41491e-08
2.65055e-11
1.98533e-12
1.8457e-08
3.11828e-11
-2.87822e-12
2.6711e-11
-3.1175e-11
-2.08958e-08
2.08847e-08
8.57555e-09
-5.62915e-12
-3.10263e-12
8.5222e-09
-1.27794e-12
-2.98461e-12
3.42687e-12
8.56715e-09
3.37913e-12
8.51415e-09
2.18965e-12
3.6049e-12
1.0144e-08
-1.42051e-12
-1.33555e-11
2.38812e-12
-1.47036e-08
-1.74325e-12
1.47177e-08
1.6226e-11
4.56317e-12
-2.29387e-08
2.29635e-08
-4.55056e-11
-1.7628e-08
-1.83911e-12
1.76446e-08
7.01577e-12
-2.24274e-08
2.24494e-08
-3.77868e-11
2.47371e-12
-8.43769e-09
8.4284e-09
2.32203e-12
4.49423e-12
3.37909e-12
1.90712e-08
1.16309e-11
2.83467e-12
2.67965e-08
3.00366e-12
-7.00822e-12
-2.41608e-11
-2.67721e-08
2.6772e-08
6.80648e-12
2.3563e-11
-2.36537e-12
-4.16358e-12
-8.42815e-09
-3.08842e-12
-4.04506e-12
8.43792e-09
-3.75195e-12
-2.66437e-12
1.90872e-08
-1.18882e-11
2.67964e-08
-2.41874e-11
1.46376e-12
1.27265e-11
-1.47174e-08
1.96992e-12
-1.58935e-11
-4.5442e-12
4.54958e-11
1.76444e-08
1.41713e-12
-1.88079e-12
-1.76277e-08
2.24497e-08
1.32356e-11
-3.77826e-11
-2.24276e-08
1.98369e-12
3.72637e-11
-1.80503e-12
-1.47033e-08
2.36678e-12
-8.44275e-09
2.38916e-12
4.28373e-12
8.43371e-09
3.57827e-12
1.14843e-11
2.76507e-12
1.90777e-08
2.68106e-08
2.64709e-12
-6.79173e-12
-2.39668e-11
6.90871e-12
2.35147e-11
2.67861e-08
-2.21308e-12
-4.2551e-12
1.28338e-11
1.49468e-12
-1.47255e-08
1.83464e-12
1.47118e-08
-4.56682e-12
-1.60366e-11
-2.31983e-14
4.56104e-11
2.29441e-08
2.24605e-08
1.27277e-11
-3.7252e-11
1.76488e-08
1.37936e-12
-6.37531e-15
-1.89158e-12
3.74469e-11
2.24383e-08
-8.92212e-15
1.91253e-12
1.76323e-08
-1.86555e-12
2.67163e-12
-8.43779e-09
2.36419e-12
4.3082e-12
8.42845e-09
3.43717e-12
-2.13105e-12
1.17666e-11
2.75811e-12
1.90716e-08
2.67981e-08
2.8489e-12
-6.94405e-12
-2.40819e-11
6.86686e-12
2.36929e-11
2.67736e-08
-2.32267e-12
-4.24201e-12
1.50153e-12
1.29318e-11
-1.47178e-08
1.8861e-12
1.47038e-08
-1.60293e-11
-4.61063e-12
4.5615e-11
2.29399e-08
1.76447e-08
1.37138e-12
-1.88957e-12
2.24506e-08
1.30749e-11
-3.77289e-11
1.91075e-12
1.76283e-08
3.73865e-11
2.24284e-08
-1.81818e-12
-1.03016e-11
1.84693e-11
-2.18648e-08
-1.41635e-11
1.58648e-11
2.1855e-08
2.41835e-08
1.86532e-11
-3.53289e-11
-2.8972e-11
-2.41589e-08
-4.49343e-12
2.16119e-11
1.05823e-11
2.76065e-08
1.81997e-08
-1.11282e-11
2.97878e-12
-1.63945e-12
-1.81859e-08
-2.67291e-12
2.14859e-12
1.81854e-08
3.56865e-11
2.942e-11
2.41584e-08
1.41569e-11
-1.59999e-11
-2.18555e-08
1.49222e-11
-7.56384e-12
-2.29935e-08
-1.17541e-11
1.72426e-11
2.29806e-08
2.44195e-08
1.54728e-11
-2.50466e-11
-2.01577e-11
-2.44027e-08
1.28912e-11
-2.47998e-12
-2.27261e-12
5.18613e-12
2.79989e-08
1.86737e-08
-8.32292e-12
2.61585e-12
-1.88241e-12
2.40806e-11
2.09648e-11
2.44023e-08
-2.69699e-12
1.79354e-12
1.86646e-08
1.21553e-11
-1.77419e-11
-2.29808e-08
-3.12232e-12
-2.79374e-12
-2.0894e-08
2.0874e-08
8.52725e-09
-4.0444e-12
-3.0781e-12
-8.51715e-09
8.56963e-09
-2.55334e-12
-3.02969e-12
3.52106e-12
8.51793e-09
3.20702e-12
8.56094e-09
-2.08743e-08
9.30526e-13
3.46056e-12
1.03365e-08
-2.06917e-12
-8.68693e-09
1.28472e-12
4.31166e-12
8.68341e-09
2.3478e-12
2.97229e-12
2.72137e-12
1.94555e-08
2.73857e-08
-1.87519e-12
-3.44206e-12
-6.59993e-12
3.44771e-12
6.10046e-12
2.73764e-08
-1.1729e-12
-4.27918e-12
2.61728e-12
9.10921e-13
-1.51406e-08
1.8641e-12
1.51365e-08
-2.05578e-12
-3.43735e-12
2.53503e-14
1.14628e-11
2.35229e-08
2.29796e-08
2.57581e-12
-9.4162e-12
1.81606e-08
8.32623e-13
2.11194e-14
-1.87723e-12
9.44214e-12
2.29742e-08
1.90959e-14
1.93877e-12
1.81561e-08
-1.85804e-12
-1.82075e-12
-8.692e-09
1.28953e-12
4.35123e-12
8.68818e-09
2.27063e-12
-9.26029e-13
3.18464e-12
2.7461e-12
1.94592e-08
2.73969e-08
-1.63592e-12
-3.49181e-12
-6.64495e-12
3.40698e-12
6.06509e-12
2.73879e-08
-1.27301e-12
-4.24826e-12
2.60902e-12
8.61143e-13
-1.51483e-08
1.86516e-12
1.51442e-08
-1.99841e-12
-3.18081e-12
1.14574e-11
2.3527e-08
2.29889e-08
2.59853e-12
-9.43922e-12
1.81646e-08
8.50189e-13
-1.86884e-12
9.42564e-12
2.29835e-08
1.93384e-12
1.81603e-08
-1.84046e-12
3.50757e-12
1.01422e-08
3.45397e-12
1.03372e-08
2.94489e-15
1.38771e-13
-1.03246e-07
1.03246e-07
-1.94895e-14
-1.20698e-14
-1.01212e-07
1.01212e-07
2.8878e-14
-6.31968e-14
-1.08959e-07
1.08959e-07
6.43034e-12
9.84787e-12
-2.33935e-08
2.34096e-08
2.45277e-08
7.28065e-12
2.35281e-08
1.03393e-11
-3.35711e-11
-1.75313e-11
2.46388e-08
2.45255e-08
2.35415e-08
4.30208e-12
1.20908e-11
-2.33838e-08
2.3399e-08
2.46012e-08
4.89374e-12
-2.46086e-08
2.34519e-08
1.29883e-11
-2.34555e-08
-2.44235e-11
-2.60622e-11
2.46277e-08
2.46085e-08
2.34553e-08
-2.33993e-08
-2.90325e-11
5.12027e-11
-2.33908e-08
2.33914e-08
2.45534e-08
1.88187e-12
2.3497e-08
1.48139e-11
-3.26465e-11
-1.9146e-11
2.46291e-08
2.34904e-08
2.45768e-08
7.17495e-12
7.65414e-12
-2.33748e-08
2.33931e-08
2.44693e-08
8.19479e-12
-2.4468e-08
2.35638e-08
7.69125e-12
-2.35757e-08
-1.76524e-11
-3.29533e-11
2.46331e-08
2.35755e-08
2.44675e-08
-2.33927e-08
-1.0572e-13
1.03248e-07
-1.75793e-13
6.71192e-14
1.01218e-07
-1.1532e-13
1.08962e-07
-4.67063e-13
-1.04335e-07
1.04335e-07
6.07614e-13
1.20633e-13
-9.93865e-08
9.93865e-08
6.10475e-14
-1.09079e-07
1.09079e-07
-6.23023e-13
1.04342e-07
6.03383e-13
9.93892e-08
1.09082e-07
-3.4406e-11
-3.25783e-11
-2.43715e-08
-2.4435e-11
2.44223e-08
2.42594e-08
-3.49677e-11
1.71602e-11
1.59958e-11
2.37318e-08
2.41324e-08
-3.34295e-11
-1.40794e-11
2.42207e-08
1.41399e-11
2.41252e-08
2.38013e-11
-5.58701e-11
1.59642e-11
-2.38698e-08
2.38093e-08
-9.77129e-12
7.39836e-11
-6.64972e-14
2.38454e-08
2.35546e-08
-5.52655e-11
2.44393e-08
1.65588e-11
6.61361e-12
2.35406e-08
-6.27285e-12
2.44311e-08
-2.11902e-11
6.42474e-12
-2.46453e-08
-4.91127e-11
2.47235e-08
2.44934e-08
-2.07104e-11
-2.44763e-08
-4.42656e-12
8.56413e-12
2.40583e-08
2.45179e-08
5.61922e-12
-5.23619e-12
2.44761e-08
5.56065e-12
2.45334e-08
4.94816e-11
-2.47236e-08
5.2731e-12
3.09702e-12
-2.41363e-08
2.40934e-08
-4.66778e-14
-4.32262e-12
1.4167e-14
2.43449e-08
2.47987e-08
5.42993e-12
3.88085e-13
2.39497e-08
3.56327e-12
-1.0528e-13
2.48232e-08
2.39635e-08
6.61073e-12
-2.4682e-11
-2.46301e-08
8.15919e-12
2.4673e-08
2.45062e-08
-2.42048e-11
-2.44868e-08
8.58284e-12
-4.34039e-12
2.40494e-08
2.45175e-08
6.31179e-12
-8.63188e-12
-2.45306e-08
8.51731e-12
2.45304e-08
2.44866e-08
-7.95829e-12
-2.46731e-08
4.20345e-12
8.25265e-12
-2.4147e-08
2.41751e-08
-4.23527e-12
-4.13001e-13
2.05857e-14
2.4346e-08
2.39514e-08
3.59917e-12
-2.39691e-08
2.4801e-08
8.38948e-12
4.34882e-13
-2.48295e-08
2.39693e-08
-2.01977e-13
2.48286e-08
-2.41752e-08
6.65486e-12
-2.50879e-11
-2.46321e-08
8.3987e-12
2.46751e-08
2.4458e-08
-2.3965e-11
8.32669e-12
-4.2783e-12
2.40441e-08
2.45236e-08
6.16989e-12
-8.64241e-12
8.51038e-12
2.45365e-08
2.44445e-08
-7.90549e-12
4.05551e-12
8.47668e-12
-2.41513e-08
2.41797e-08
-4.25578e-12
-4.38891e-13
2.43493e-08
2.39578e-08
3.52236e-12
2.48039e-08
8.25441e-12
2.39755e-08
2.48313e-08
-3.2481e-11
-3.40838e-11
-2.43678e-08
-2.46929e-11
2.44185e-08
2.42087e-08
-3.44336e-11
-2.41757e-08
1.57045e-11
1.67493e-11
2.37208e-08
2.41299e-08
-3.35228e-11
-1.41192e-11
-2.41229e-08
1.40982e-11
2.41226e-08
2.41755e-08
2.41324e-11
-2.44185e-08
-5.61264e-11
1.58578e-11
-2.3869e-08
2.38086e-08
-9.73126e-12
7.39627e-11
-8.11384e-14
2.3844e-08
2.35531e-08
-5.55511e-11
-2.3539e-08
2.44389e-08
1.6473e-11
6.71129e-12
-2.4431e-08
2.35389e-08
-6.35779e-12
2.44307e-08
-2.38081e-08
-3.16561e-11
-3.69744e-11
-2.43441e-08
2.62024e-11
2.43664e-08
2.42141e-08
-3.70553e-11
-2.41792e-08
1.56751e-11
1.69068e-11
2.37053e-08
2.41195e-08
-3.23341e-11
-1.72277e-11
-2.41104e-08
1.6913e-11
2.41101e-08
2.41791e-08
-2.66552e-11
-2.43665e-08
1.89909e-11
-5.46451e-11
-2.38699e-08
2.38735e-08
7.40573e-11
-9.93501e-12
2.38413e-08
2.44375e-08
1.9417e-11
-2.44199e-08
2.35454e-08
-5.52167e-11
-2.35352e-08
2.442e-08
2.3535e-08
-2.38735e-08
-3.68417e-11
-3.14702e-11
-2.43481e-08
2.61674e-11
2.43698e-08
2.42654e-08
-3.74012e-11
1.70354e-11
1.57124e-11
2.37165e-08
2.41217e-08
-3.1977e-11
-1.72007e-11
2.423e-08
1.69081e-11
2.41128e-08
-2.67107e-11
1.89724e-11
-5.4408e-11
-2.38707e-08
2.3874e-08
7.40945e-11
-9.93675e-12
2.38426e-08
2.44381e-08
1.94052e-11
2.35466e-08
-5.49083e-11
2.44207e-08
2.35366e-08
-2.10571e-11
6.47988e-12
-2.4648e-08
-4.91865e-11
2.47264e-08
2.44454e-08
-2.05242e-11
-4.59677e-12
8.56343e-12
2.40528e-08
2.45236e-08
5.55247e-12
-5.20451e-12
2.44287e-08
5.56259e-12
2.45392e-08
4.95576e-11
5.33691e-12
3.10923e-12
-2.41407e-08
2.40978e-08
-5.35043e-14
-4.33384e-12
2.43479e-08
2.48017e-08
5.28621e-12
2.39555e-08
3.5491e-12
2.48257e-08
2.39693e-08
-1.27892e-12
6.31062e-14
3.90541e-09
-2.44227e-13
-3.90666e-09
-5.86907e-13
-2.11513e-16
2.23723e-09
-1.141e-13
-2.23781e-09
-2.29947e-13
-1.48822e-14
1.13633e-09
-4.98643e-14
-1.13662e-09
-5.65636e-14
-1.09172e-14
4.77342e-10
-1.92029e-14
-4.77485e-10
-4.03771e-15
1.14016e-10
-4.36075e-15
-1.14064e-10
-1.6947e-12
-9.53295e-14
7.31394e-09
-2.91837e-14
-7.49387e-13
-1.74682e-14
4.15067e-09
-2.96981e-14
-2.89257e-13
1.113e-15
2.09526e-09
-2.01253e-14
-7.12557e-14
4.73401e-15
8.76669e-10
-1.00337e-14
2.24448e-15
2.08919e-10
-2.6602e-15
-1.28699e-12
-1.43079e-14
3.91176e-09
-1.60777e-13
-3.91302e-09
-5.88622e-13
-4.87646e-14
2.24047e-09
-6.62871e-14
-2.24105e-09
-2.30212e-13
-3.71436e-14
1.13784e-09
-2.59874e-14
-1.13813e-09
-5.65203e-14
-1.97653e-14
4.77901e-10
-9.28893e-15
-4.78046e-10
-5.94225e-15
1.14131e-10
-2.0498e-15
-1.1418e-10
-1.74512e-12
-2.38413e-14
7.31742e-09
-8.40961e-14
-7.31914e-09
-7.90129e-13
1.76806e-14
4.1523e-09
-5.8134e-14
-4.15322e-09
-3.09181e-13
1.78685e-14
2.09604e-09
-3.40643e-14
-2.0965e-09
-7.63797e-14
1.02335e-14
8.77021e-10
-1.58343e-14
-8.77248e-10
3.1907e-15
2.09012e-10
-4.03385e-15
-2.09088e-10
-1.65872e-12
7.31371e-09
-4.66223e-14
-7.31538e-09
-7.42749e-13
4.15057e-09
-3.99349e-14
-4.15144e-09
-2.89558e-13
2.0951e-09
-2.61662e-14
-2.09554e-09
-7.16622e-14
8.76607e-10
-1.3249e-14
-8.76822e-10
2.08984e-10
-3.76368e-15
-2.09056e-10
-1.68689e-12
7.31826e-09
-9.9192e-14
-7.31998e-09
-7.5794e-13
4.15272e-09
-7.26289e-14
-4.15362e-09
-2.96066e-13
2.09622e-09
-4.344e-14
-2.09667e-09
-7.33849e-14
8.77006e-10
-2.06408e-14
-8.77228e-10
2.08995e-10
-5.49529e-15
-2.09069e-10
-1.25244e-12
3.9062e-09
-2.63695e-13
-5.64327e-13
2.23776e-09
-1.28248e-13
-2.2058e-13
1.13666e-09
-5.80247e-14
-5.44615e-14
4.77432e-10
-2.31706e-14
1.14023e-10
-5.545e-15
-1.63689e-12
3.24008e-14
-1.08112e-13
7.3178e-09
-7.21025e-13
6.09407e-14
-7.58787e-14
4.15273e-09
-2.79915e-13
4.50347e-14
-4.64372e-14
2.09631e-09
-6.96761e-14
2.37112e-14
-2.22252e-14
8.771e-10
7.04259e-15
-5.79972e-15
2.0907e-10
-1.28539e-12
3.91078e-09
-1.92922e-13
-3.91204e-09
-5.88518e-13
2.24004e-09
-9.13638e-14
-2.24063e-09
-2.30395e-13
1.13757e-09
-4.16951e-14
-1.13787e-09
-5.65811e-14
4.77835e-10
-1.71748e-14
-4.77981e-10
1.14095e-10
-4.36415e-15
-1.14144e-10
-1.28968e-12
3.91158e-09
-1.53434e-13
-5.82215e-13
2.24051e-09
-6.16963e-14
-2.26441e-13
1.1379e-09
-2.21926e-14
-5.56374e-14
4.77978e-10
-7.19112e-15
1.14155e-10
-1.4908e-15
-1.28979e-12
2.94409e-15
3.911e-09
-1.80295e-13
-5.83029e-13
-3.73786e-14
2.24003e-09
-8.00866e-14
-2.26898e-13
-3.07146e-14
1.13759e-09
-3.33624e-14
-5.57354e-14
-1.6736e-14
4.77856e-10
-1.25151e-14
-5.12425e-15
1.1414e-10
-2.90242e-15
-1.64627e-12
-2.40656e-14
-6.42186e-14
7.31365e-09
-7.19828e-13
3.58151e-14
-5.1071e-14
4.15046e-09
-2.77789e-13
3.60501e-14
-3.43886e-14
2.09528e-09
-6.88208e-14
2.12583e-14
-1.79352e-14
8.76681e-10
6.72932e-15
-5.04186e-15
2.08962e-10
-1.30054e-12
3.90542e-09
-2.01934e-13
-5.89015e-13
2.23737e-09
-8.55229e-14
-2.29439e-13
1.13643e-09
-3.22647e-14
-5.6383e-14
4.77357e-10
-1.07386e-14
1.14004e-10
-2.24565e-15
-1.28556e-12
5.85367e-14
3.90629e-09
-2.28269e-13
-5.83625e-13
-1.62793e-15
2.23793e-09
-1.05972e-13
-2.27764e-13
-1.49625e-14
1.13668e-09
-4.60691e-14
-5.61018e-14
-1.0449e-14
4.77496e-10
-1.79028e-14
-3.71159e-15
1.14025e-10
-4.25606e-15
-1.70397e-12
-8.94681e-14
7.31737e-09
-7.54643e-13
-6.18493e-14
4.15225e-09
-2.92609e-13
-3.58345e-14
2.09604e-09
-7.22628e-14
-1.65001e-14
8.77025e-10
-4.16568e-15
2.09015e-10
-1.68856e-12
-3.07374e-14
7.31419e-09
-7.44794e-13
-2.69525e-14
4.151e-09
-2.88366e-13
-1.73583e-14
2.09537e-09
-7.11931e-14
-8.39548e-15
8.76748e-10
-2.12083e-15
2.08926e-10
2.13908e-12
-1.82848e-13
3.27406e-13
-7.31932e-09
7.32147e-09
9.62335e-13
-8.07425e-14
1.76406e-13
-4.15315e-09
4.15424e-09
3.73531e-13
-3.34143e-14
9.38359e-14
-2.09602e-09
2.09655e-09
9.11022e-14
-1.25505e-14
4.28995e-14
-8.76873e-10
8.77125e-10
-3.06411e-15
1.14938e-14
-2.08972e-10
2.09055e-10
1.28958e-12
-3.319e-14
3.90674e-09
5.83076e-13
1.8095e-14
2.23784e-09
2.26605e-13
2.17107e-14
1.13663e-09
5.55647e-14
1.32564e-14
4.77487e-10
4.29509e-15
1.14064e-10
1.56326e-12
6.77827e-15
3.17059e-15
7.31582e-09
6.62927e-13
-4.0062e-14
7.24369e-15
4.15161e-09
2.49913e-13
-3.36149e-14
6.13279e-15
2.0957e-09
6.15372e-14
-1.89657e-14
3.30546e-15
8.76873e-10
-6.05049e-15
7.11989e-16
2.08986e-10
-8.26095e-13
-1.70063e-13
-4.5654e-09
3.12373e-13
4.56429e-09
-3.71155e-13
-9.34262e-14
-2.60087e-09
1.65768e-13
2.60034e-09
-1.47807e-13
-4.84741e-14
-1.31662e-09
8.64198e-14
1.31636e-09
-3.81024e-14
-2.1249e-14
-5.51941e-10
3.87563e-14
5.51814e-10
-5.28916e-15
-1.31703e-10
1.01156e-14
1.3166e-10
-8.28805e-13
2.92267e-16
-4.95146e-09
4.95028e-09
-3.7238e-13
3.04296e-16
-2.81666e-09
2.81611e-09
-1.49328e-13
2.4573e-16
-1.42455e-09
1.42428e-09
-3.89806e-14
2.29054e-16
-5.96818e-10
5.96686e-10
1.65232e-16
-1.42386e-10
1.42341e-10
2.15649e-12
-2.27955e-13
-7.32337e-09
3.96887e-13
7.3255e-09
9.66763e-13
-1.1202e-13
-4.15576e-09
2.14885e-13
4.15684e-09
3.74249e-13
-5.09093e-14
-2.09748e-09
1.12413e-13
2.09801e-09
9.11166e-14
-2.04099e-14
-8.77432e-10
5.04241e-14
8.77685e-10
-5.03185e-15
-2.09106e-10
1.32757e-14
2.09189e-10
1.32275e-12
3.91309e-09
-4.77457e-14
5.98752e-13
2.24108e-09
1.67062e-15
2.32126e-13
1.13814e-09
1.30171e-14
5.66437e-14
4.78047e-10
9.2551e-15
1.1418e-10
3.27753e-15
-1.26242e-12
-1.42769e-14
-1.70323e-13
3.91184e-09
-5.74806e-13
-4.75846e-14
-7.38721e-14
2.24051e-09
-2.24888e-13
-3.60116e-14
-3.0942e-14
1.13786e-09
-5.54345e-14
-1.92652e-14
-1.17318e-14
4.77909e-10
-5.88874e-15
-2.73157e-15
1.14133e-10
1.69802e-12
7.31934e-09
1.47322e-14
2.16857e-14
7.38274e-13
4.15327e-09
-3.2696e-14
2.51004e-14
2.82393e-13
2.09651e-09
-3.01133e-14
1.66245e-14
6.92472e-14
8.77244e-10
-1.72934e-14
7.89325e-15
2.09085e-10
-5.57707e-15
1.86545e-15
-1.6962e-12
-3.37109e-14
7.31761e-09
-8.37566e-14
-7.55705e-13
1.53178e-14
4.15238e-09
-6.48275e-14
-2.94219e-13
1.90495e-14
2.09607e-09
-3.92968e-14
-7.29911e-14
1.15651e-14
8.7703e-10
-1.87028e-14
3.68868e-15
2.09014e-10
-4.9219e-15
-8.54414e-13
3.88518e-09
-1.22541e-14
-3.84919e-13
2.22362e-09
-2.30142e-14
-1.52055e-13
1.12886e-09
-1.54416e-14
-3.86468e-14
4.7399e-10
-7.01491e-15
1.13181e-10
-1.69588e-15
8.62805e-13
-3.62076e-14
-1.04114e-14
3.8863e-09
3.82217e-13
-3.41622e-15
-1.65191e-14
2.22412e-09
1.48791e-13
3.13045e-15
-1.15861e-14
1.1291e-09
3.77024e-14
2.73304e-15
-5.65417e-15
4.74104e-10
1.05928e-15
-1.32053e-15
1.13219e-10
-8.56193e-13
3.88296e-09
3.83925e-14
-3.85573e-13
2.22263e-09
7.92307e-15
-1.52242e-13
1.12839e-09
1.26735e-15
-3.86548e-14
4.73817e-10
2.79286e-16
1.13141e-10
9.67374e-17
8.58723e-13
-3.49979e-14
-8.38453e-15
3.88407e-09
3.80045e-13
-4.02964e-15
-1.50284e-14
2.22313e-09
1.47775e-13
2.33194e-15
-1.0919e-14
1.12863e-09
3.73694e-14
2.37519e-15
-5.54111e-15
4.73931e-10
9.45896e-16
-1.38143e-15
1.13179e-10
-1.54471e-12
-2.21185e-14
7.0515e-09
-6.8808e-13
-1.42074e-14
4.00058e-09
-2.69483e-13
-7.62534e-15
2.01937e-09
-6.74497e-14
-3.29363e-15
8.45047e-10
-7.89578e-16
2.0142e-10
-1.55704e-12
7.05206e-09
-6.9448e-13
4.00064e-09
-2.72162e-13
2.01953e-09
-6.81437e-14
8.45061e-10
2.01419e-10
1.51657e-12
-4.48801e-15
7.05322e-09
6.50716e-13
-2.5569e-15
4.00144e-09
2.47522e-13
-1.51398e-15
2.01978e-09
6.127e-14
-7.64052e-16
8.45237e-10
-2.31277e-16
2.01483e-10
1.53178e-12
7.05378e-09
6.58801e-13
4.00151e-09
2.50788e-13
2.01994e-09
6.20657e-14
8.45251e-10
2.01482e-10
1.64877e-12
-1.45431e-14
7.31557e-09
7.19266e-13
5.09298e-16
4.15151e-09
2.75944e-13
1.85669e-15
2.09556e-09
6.78432e-14
8.7043e-16
8.76827e-10
-1.48038e-16
2.09057e-10
1.75479e-12
7.32017e-09
6.08863e-15
7.6807e-13
4.15369e-09
1.47976e-14
2.9436e-13
2.09669e-09
1.11514e-14
7.19721e-14
8.77232e-10
5.59871e-15
2.09069e-10
1.30918e-15
-1.62002e-12
7.31845e-09
-9.37295e-14
-7.18361e-13
4.15281e-09
-6.8237e-14
-2.79709e-13
2.09626e-09
-4.01556e-14
-6.96633e-14
8.77022e-10
-1.88237e-14
2.08998e-10
-4.94945e-15
1.27273e-12
1.71529e-13
3.90751e-09
5.69512e-13
7.23024e-14
2.23835e-09
2.19779e-13
2.8566e-14
1.13694e-09
5.39858e-14
1.00808e-14
4.77569e-10
2.26018e-15
1.14069e-10
-7.5379e-13
3.8854e-09
1.2096e-14
-3.33998e-13
2.22365e-09
-1.39452e-14
-1.32228e-13
1.12885e-09
-1.30813e-14
-3.4297e-14
4.74038e-10
-7.01362e-15
1.13192e-10
-1.95863e-15
8.29652e-13
-2.92606e-14
5.68197e-16
3.88659e-09
3.56679e-13
-2.60328e-15
-5.07876e-15
2.22413e-09
1.36795e-13
-3.22612e-16
-3.47582e-15
1.12908e-09
3.45444e-14
-9.35852e-16
-2.04008e-15
4.74143e-10
-5.6817e-16
-6.22388e-16
1.13228e-10
-1.40908e-12
7.05225e-09
6.82616e-14
-6.19286e-13
4.00044e-09
4.06402e-14
-2.43081e-13
2.01955e-09
2.11257e-14
-6.18217e-14
8.45065e-10
9.27425e-15
2.01425e-10
2.46467e-15
1.62285e-12
7.79675e-14
7.0539e-09
7.11968e-13
4.66097e-14
4.0013e-09
2.73105e-13
2.27368e-14
2.01996e-09
6.7375e-14
8.85836e-15
8.45261e-10
2.05791e-15
2.0149e-10
1.66849e-12
6.46893e-14
7.31967e-09
7.13482e-13
1.11937e-14
4.15367e-09
2.68796e-13
-3.3202e-15
2.09675e-09
6.59211e-14
-5.80977e-15
8.77306e-10
-2.69333e-15
2.09138e-10
-8.00383e-13
-1.72493e-13
-4.56337e-09
3.40847e-13
4.56226e-09
-3.59339e-13
-9.48781e-14
-2.59971e-09
1.82676e-13
2.59918e-09
-1.43414e-13
-4.92127e-14
-1.31597e-09
9.52202e-14
1.31571e-09
-3.711e-14
-2.1612e-14
-5.5171e-10
4.27484e-14
5.51583e-10
-5.47006e-15
-1.31648e-10
1.13211e-14
1.31605e-10
-8.30011e-13
-4.95031e-09
4.94913e-09
-3.73324e-13
-2.81603e-09
2.81548e-09
-1.49933e-13
-1.42424e-09
1.42396e-09
-3.9205e-14
-5.96686e-10
5.96554e-10
-1.42354e-10
1.4231e-10
2.17967e-12
-1.91434e-13
3.68166e-13
-7.3194e-09
7.32154e-09
9.7812e-13
-8.44704e-14
1.96037e-13
-4.15367e-09
4.15476e-09
3.78553e-13
-3.44438e-14
1.01823e-13
-2.09631e-09
2.09684e-09
9.19956e-14
-1.25149e-14
4.54476e-14
-8.77038e-10
8.77292e-10
-2.79245e-15
1.17966e-14
-2.08971e-10
2.09054e-10
1.32414e-12
3.91211e-09
5.98194e-13
2.24065e-09
2.3183e-13
1.13787e-09
5.6594e-14
4.7798e-10
1.14143e-10
-1.24629e-12
-2.08401e-13
3.91087e-09
-5.6756e-13
-1.00271e-13
2.24009e-09
-2.2213e-13
-4.5271e-14
1.13759e-09
-5.4776e-14
-1.81559e-14
4.77842e-10
-4.48088e-15
1.14096e-10
1.27616e-12
2.40972e-13
3.9129e-09
5.70331e-13
1.22724e-13
2.2411e-09
2.2023e-13
5.78427e-14
1.13819e-09
5.39969e-14
2.34509e-14
4.78115e-10
5.64743e-15
1.14201e-10
2.05283e-12
-2.06929e-13
3.74508e-13
-7.31963e-09
7.32172e-09
9.03543e-13
-9.82955e-14
2.03199e-13
-4.15363e-09
4.15467e-09
3.4671e-13
-4.42015e-14
1.0671e-13
-2.09636e-09
2.09685e-09
8.49136e-14
-1.7435e-14
4.79307e-14
-8.77018e-10
8.7725e-10
-4.16442e-15
1.25506e-14
-2.09016e-10
2.09093e-10
1.27164e-12
-2.59893e-14
3.91231e-09
5.6846e-13
1.70945e-14
2.24061e-09
2.19044e-13
2.03323e-14
1.13787e-09
5.3719e-14
1.27492e-14
4.77991e-10
4.38572e-15
1.14185e-10
-8.32816e-13
3.88279e-09
8.99312e-14
-3.63976e-13
2.22242e-09
4.58111e-14
-1.4096e-13
1.1283e-09
2.01965e-14
-3.56259e-14
4.73789e-10
7.38422e-15
1.1317e-10
1.59038e-15
7.86059e-13
-1.09767e-15
-1.5151e-14
3.88381e-09
3.49272e-13
-1.95714e-15
4.64135e-15
2.22286e-09
1.37306e-13
1.19286e-16
2.34333e-15
1.12851e-09
3.51443e-14
9.43171e-16
1.05636e-16
4.7389e-10
5.29478e-16
-2.18798e-16
1.13205e-10
-1.37662e-12
1.83061e-13
7.05227e-09
-5.94275e-13
1.29933e-13
4.00055e-09
-2.31499e-13
7.32871e-14
2.01939e-09
-5.8939e-14
3.28409e-14
8.44976e-10
8.45758e-15
2.01445e-10
1.59425e-12
5.55405e-14
7.31546e-09
6.80871e-13