/*--------------------------------*- C++ -*----------------------------------*\
| =========                 |                                                 |
| \\      /  F ield         | OpenFOAM: The Open Source CFD Toolbox           |
|  \\    /   O peration     | Version:  2206                                  |
|   \\  /    A nd           | Website:  www.openfoam.com                      |
|    \\/     M anipulation  |                                                 |
\*---------------------------------------------------------------------------*/
FoamFile
{
    version     2.0;
    format      ascii;
    arch        "LSB;label=32;scalar=64";
    class       volScalarField;
    location    "26";
    object      k;
}
// * * * * * * * * * * * * * * * * * * * * * * * * * * * * * * * * * * * * * //

dimensions      [0 2 -2 0 0 0 0];

internalField   nonuniform List<scalar> 
66701
(
5.69787e-06
5.09979e-06
8.39759e-06
1.05726e-05
6.11972e-06
1.5417e-05
1.45788e-05
6.58272e-06
5.18132e-06
8.62966e-06
1.07722e-05
6.13061e-06
1.54237e-05
6.59269e-06
1.46522e-05
5.8623e-06
1.77035e-06
4.43718e-07
9.89906e-08
9.7624e-08
6.73827e-07
1.72086e-06
4.3201e-07
9.7062e-08
9.79841e-08
6.77887e-07
1.68597e-06
4.11339e-07
8.95542e-08
8.58869e-08
5.88702e-07
1.73731e-06
4.24089e-07
9.18503e-08
8.61386e-08
5.88919e-07
1.82003e-06
4.55574e-07
1.01059e-07
9.78805e-08
6.74206e-07
1.755e-06
4.40514e-07
9.86046e-08
9.81587e-08
6.78084e-07
1.51884e-06
3.77051e-07
8.53527e-08
9.0625e-08
6.29028e-07
1.54029e-06
3.84073e-07
8.72106e-08
9.25227e-08
6.43132e-07
1.51897e-06
3.77133e-07
8.53599e-08
9.06285e-08
6.29065e-07
1.54272e-06
3.84348e-07
8.72431e-08
9.25314e-08
6.43164e-07
5.8435e-06
5.67916e-06
2.73075e-05
1.09013e-05
1.05945e-05
8.58798e-06
2.78444e-05
1.70457e-05
1.54927e-05
8.36643e-06
2.24044e-05
2.77135e-05
1.67078e-05
2.74152e-05
1.55122e-05
8.61745e-06
2.22635e-05
2.78521e-05
2.74333e-05
1.68184e-05
5.82053e-06
2.75954e-05
1.07495e-05
5.70784e-06
7.80102e-06
5.03044e-06
4.95194e-06
7.78006e-06
5.06126e-06
4.98269e-06
1.50736e-05
8.29442e-06
1.95052e-05
1.09742e-05
1.50765e-05
8.33076e-06
1.96163e-05
1.46708e-05
7.98328e-06
1.91726e-05
1.06209e-05
1.47307e-05
8.0091e-06
1.9198e-05
6.1456e-06
1.46268e-05
6.6568e-06
1.54263e-05
6.18954e-06
1.4597e-05
6.62499e-06
5.12008e-06
1.05609e-05
8.39199e-06
5.11861e-06
1.0579e-05
6.18868e-06
6.61178e-06
1.4667e-05
1.54502e-05
6.21385e-06
6.60211e-06
1.46559e-05
5.21089e-06
1.08033e-05
8.6329e-06
5.25243e-06
1.08068e-05
5.85224e-06
8.13596e-06
5.16544e-06
5.19104e-06
1.50973e-05
1.9593e-05
1.08437e-05
1.95611e-05
8.25681e-06
1.52522e-05
1.07053e-05
8.32933e-06
1.94952e-05
5.68498e-06
2.43578e-05
2.33134e-05
2.34351e-05
2.15015e-05
2.4417e-05
2.3402e-05
2.32826e-05
2.17233e-05
2.32796e-05
2.15883e-05
2.33344e-05
2.15215e-05
2.03038e-05
2.73062e-05
2.45972e-05
2.46683e-05
2.01883e-05
2.45985e-05
2.4676e-05
2.56464e-05
1.98847e-05
2.32872e-05
1.71565e-05
2.33311e-05
2.54264e-05
2.02284e-05
2.63059e-05
2.15586e-05
2.68459e-05
2.22022e-05
2.63171e-05
2.1469e-05
2.69031e-05
2.51655e-05
1.97578e-05
2.30183e-05
1.67058e-05
2.30378e-05
2.52199e-05
1.96472e-05
2.63313e-05
2.68243e-05
2.15884e-05
2.22783e-05
2.63507e-05
2.68105e-05
2.14992e-05
2.53702e-05
1.96271e-05
2.32283e-05
1.68426e-05
2.53412e-05
1.96666e-05
2.32266e-05
2.05776e-05
2.74495e-05
2.4924e-05
2.48622e-05
2.48011e-05
1.81382e-06
4.54578e-07
1.009e-07
9.78531e-08
6.74173e-07
1.76731e-06
4.42973e-07
9.88416e-08
9.75803e-08
6.73615e-07
1.71717e-06
4.18532e-07
9.07406e-08
8.59749e-08
5.88589e-07
1.68315e-06
4.10681e-07
8.94318e-08
8.58527e-08
5.88535e-07
1.73341e-06
4.2281e-07
9.1577e-08
8.60903e-08
5.88789e-07
1.81172e-06
4.53641e-07
1.00712e-07
9.78281e-08
6.74075e-07
1.77237e-06
4.44149e-07
9.91167e-08
9.79534e-08
6.76331e-07
1.52692e-06
3.78883e-07
8.57097e-08
9.09239e-08
6.31127e-07
1.55296e-06
3.85818e-07
8.74339e-08
9.25134e-08
6.42934e-07
1.527e-06
3.78441e-07
8.55578e-08
9.06224e-08
6.2886e-07
1.55026e-06
3.85474e-07
8.74676e-08
9.28161e-08
6.45263e-07
1.68693e-06
4.11681e-07
8.96769e-08
8.62047e-08
5.91133e-07
1.53242e-06
3.79328e-07
8.57185e-08
9.09338e-08
6.31224e-07
1.54623e-06
3.84721e-07
8.72595e-08
9.25071e-08
6.42985e-07
1.53294e-06
3.79261e-07
8.55899e-08
9.06219e-08
6.28892e-07
1.54593e-06
3.85109e-07
8.74205e-08
9.28051e-08
6.4521e-07
1.73783e-06
4.24207e-07
9.19205e-08
8.64553e-08
5.91376e-07
1.81993e-06
4.55627e-07
1.01122e-07
9.81984e-08
6.76689e-07
1.71142e-06
4.17336e-07
9.08216e-08
8.71064e-08
5.97281e-07
1.75082e-06
4.37996e-07
9.78784e-08
9.76973e-08
6.75312e-07
1.65014e-06
4.15246e-07
9.40832e-08
9.75401e-08
6.76435e-07
1.71857e-06
4.19941e-07
9.13551e-08
8.69369e-08
5.95526e-07
1.72142e-06
4.20011e-07
9.1397e-08
8.72897e-08
5.98298e-07
1.62519e-06
4.08085e-07
9.27176e-08
9.73089e-08
6.75828e-07
1.66113e-06
4.06255e-07
8.89474e-08
8.66739e-08
5.95362e-07
1.66305e-06
4.06377e-07
8.90049e-08
8.69875e-08
5.97798e-07
1.65729e-06
4.16482e-07
9.43538e-08
9.78944e-08
6.79052e-07
1.62752e-06
4.08413e-07
9.28004e-08
9.76811e-08
6.78699e-07
1.7316e-06
4.33833e-07
9.74416e-08
9.84016e-08
6.80896e-07
1.72921e-06
4.32788e-07
9.71805e-08
9.79753e-08
6.77723e-07
1.76533e-06
4.42622e-07
9.90119e-08
9.85641e-08
6.81012e-07
1.76545e-06
4.41787e-07
9.87586e-08
9.81556e-08
6.77965e-07
1.72054e-06
4.20482e-07
9.14838e-08
8.72823e-08
5.98154e-07
1.69918e-06
4.26526e-07
9.61059e-08
9.80592e-08
6.78998e-07
1.70022e-06
4.26366e-07
9.59313e-08
9.80281e-08
6.7891e-07
2.78045e-05
2.72823e-05
2.46938e-05
2.79071e-05
2.78053e-05
2.72893e-05
2.46352e-05
2.78924e-05
2.78559e-05
2.74446e-05
2.47205e-05
2.79151e-05
2.80747e-05
2.7332e-05
2.45494e-05
2.7829e-05
2.79327e-05
2.73949e-05
2.45249e-05
2.78787e-05
2.78969e-05
2.7306e-05
2.45841e-05
2.79111e-05
2.79908e-05
2.75083e-05
2.45084e-05
2.787e-05
2.80175e-05
2.73992e-05
2.4638e-05
2.79024e-05
2.78506e-05
2.76254e-05
2.46463e-05
2.78064e-05
2.78681e-05
2.74539e-05
2.46702e-05
2.80132e-05
2.79731e-05
2.75917e-05
2.44918e-05
2.78574e-05
2.78332e-05
2.72783e-05
2.4724e-05
2.7928e-05
2.78545e-05
2.76144e-05
2.45231e-05
2.77932e-05
2.79285e-05
2.73227e-05
2.45081e-05
2.78545e-05
2.78748e-05
2.74152e-05
2.43554e-05
2.80151e-05
2.79335e-05
2.74375e-05
2.4339e-05
2.78208e-05
2.78423e-05
2.74439e-05
2.75928e-05
2.75529e-05
2.77758e-05
2.7801e-05
2.78075e-05
2.7305e-05
2.7479e-05
2.73606e-05
2.79057e-05
2.78387e-05
2.79837e-05
2.80171e-05
2.73506e-05
2.74402e-05
2.78947e-05
2.78351e-05
2.77726e-05
2.7995e-05
2.7906e-05
2.7812e-05
2.80169e-05
2.74202e-05
2.7418e-05
2.78463e-05
2.7849e-05
2.78376e-05
2.73957e-05
2.73675e-05
2.7598e-05
2.81434e-05
2.79343e-05
2.79705e-05
2.79385e-05
2.74245e-05
2.74956e-05
2.78904e-05
2.78704e-05
2.77868e-05
2.78811e-05
2.78677e-05
2.79037e-05
2.79126e-05
2.7404e-05
2.75152e-05
2.78262e-05
2.80589e-05
2.78111e-05
2.73697e-05
2.74955e-05
2.74015e-05
2.79531e-05
2.81086e-05
2.79498e-05
2.80963e-05
2.75124e-05
2.74711e-05
2.79165e-05
2.78797e-05
2.78468e-05
2.80421e-05
2.79101e-05
2.788e-05
2.79574e-05
2.7505e-05
2.75307e-05
2.7887e-05
2.80297e-05
2.77984e-05
2.74e-05
2.73447e-05
2.74743e-05
2.79218e-05
2.79493e-05
2.79244e-05
2.80398e-05
2.74091e-05
2.75238e-05
2.78216e-05
2.8044e-05
2.78243e-05
2.79473e-05
2.79823e-05
2.80234e-05
2.78538e-05
2.74741e-05
2.74152e-05
2.77956e-05
2.79346e-05
2.78166e-05
2.72981e-05
2.73278e-05
2.74312e-05
2.79101e-05
2.80876e-05
2.79172e-05
2.81286e-05
2.75859e-05
2.75824e-05
2.79948e-05
2.79244e-05
2.78839e-05
2.79177e-05
2.79593e-05
2.78719e-05
2.78153e-05
2.73842e-05
2.73486e-05
2.78175e-05
2.79532e-05
2.79428e-05
2.73581e-05
2.74344e-05
2.76521e-05
2.80978e-05
2.80169e-05
2.79819e-05
2.79571e-05
2.76073e-05
2.73967e-05
2.78503e-05
2.80559e-05
2.78261e-05
2.79861e-05
2.79151e-05
2.78548e-05
2.78748e-05
2.73548e-05
2.75048e-05
2.79587e-05
2.79104e-05
2.79401e-05
2.74199e-05
2.74846e-05
2.74764e-05
2.8141e-05
2.8066e-05
2.7979e-05
2.80439e-05
2.75163e-05
2.75425e-05
2.78038e-05
2.80515e-05
2.78124e-05
2.81116e-05
2.78776e-05
2.80085e-05
2.7877e-05
2.73607e-05
2.75081e-05
2.79937e-05
2.78799e-05
2.80597e-05
2.75107e-05
2.75069e-05
2.72952e-05
2.79582e-05
2.79637e-05
2.80511e-05
2.79405e-05
2.73993e-05
2.73517e-05
2.78506e-05
2.79912e-05
2.78023e-05
2.80147e-05
2.79142e-05
2.79395e-05
2.79513e-05
2.73939e-05
2.76057e-05
2.79395e-05
2.78602e-05
2.79946e-05
2.73498e-05
2.74411e-05
2.72696e-05
2.79779e-05
2.80738e-05
2.78971e-05
2.78903e-05
2.75366e-05
2.74609e-05
2.78316e-05
2.80097e-05
2.78116e-05
2.808e-05
2.8043e-05
2.79038e-05
2.79172e-05
2.74952e-05
2.73795e-05
2.78615e-05
2.7889e-05
2.79768e-05
2.75078e-05
2.72651e-05
2.74286e-05
2.79237e-05
2.788e-05
2.78942e-05
2.79437e-05
2.74545e-05
2.74042e-05
2.78924e-05
2.81166e-05
2.78255e-05
2.79298e-05
2.79454e-05
2.78741e-05
2.80116e-05
2.73718e-05
2.74023e-05
2.78408e-05
2.78624e-05
2.79515e-05
2.73117e-05
2.75109e-05
2.7541e-05
2.79102e-05
2.79061e-05
2.79424e-05
2.78797e-05
2.74146e-05
2.74094e-05
2.79337e-05
2.79657e-05
2.78095e-05
2.79052e-05
2.80684e-05
2.78803e-05
2.79152e-05
2.75186e-05
2.73743e-05
2.78048e-05
2.78359e-05
2.78433e-05
2.7453e-05
2.7385e-05
2.73478e-05
2.79449e-05
2.79177e-05
2.79607e-05
2.79139e-05
2.75589e-05
2.74668e-05
2.78002e-05
2.78712e-05
2.78173e-05
2.79622e-05
2.78771e-05
2.78086e-05
2.78392e-05
2.7352e-05
2.74718e-05
2.78355e-05
2.78874e-05
2.78332e-05
2.73918e-05
2.73681e-05
2.74587e-05
2.80468e-05
2.79378e-05
2.79649e-05
2.79753e-05
2.7315e-05
2.73403e-05
2.78113e-05
2.80155e-05
2.79141e-05
2.79873e-05
2.78331e-05
2.79251e-05
2.80167e-05
2.74213e-05
2.74639e-05
2.78233e-05
2.7914e-05
2.78507e-05
2.73876e-05
2.73306e-05
2.74428e-05
2.80737e-05
2.8007e-05
2.79538e-05
2.80812e-05
2.73242e-05
2.73374e-05
2.77582e-05
2.78984e-05
2.77987e-05
2.78335e-05
2.78808e-05
2.78984e-05
2.79888e-05
2.75056e-05
2.74745e-05
2.79951e-05
2.7917e-05
2.80245e-05
2.74866e-05
2.75933e-05
2.74653e-05
2.79485e-05
2.7926e-05
2.78591e-05
2.78654e-05
2.73251e-05
2.73592e-05
2.78477e-05
2.78496e-05
2.78356e-05
2.79678e-05
2.79391e-05
2.7962e-05
2.79891e-05
2.73433e-05
2.75064e-05
2.78843e-05
2.78369e-05
2.78642e-05
2.74482e-05
2.79057e-05
2.75204e-05
2.79228e-05
2.78461e-05
2.7852e-05
2.75251e-05
2.78626e-05
5.89985e-06
6.02805e-06
2.29138e-05
2.75449e-05
1.71111e-05
2.78695e-05
1.71091e-05
2.30187e-05
2.75549e-05
1.06807e-05
1.0702e-05
2.7285e-05
1.0861e-05
1.07039e-05
1.61937e-05
8.73523e-06
8.76168e-06
1.62467e-05
5.76921e-06
5.78287e-06
1.59464e-05
8.80679e-06
8.79617e-06
1.6059e-05
2.46005e-05
2.47848e-05
2.46969e-05
2.45832e-05
2.44516e-05
2.4638e-05
2.45645e-05
2.23917e-05
1.69669e-05
2.7601e-05
2.77968e-05
1.70091e-05
2.76011e-05
2.23523e-05
5.94377e-06
5.91242e-06
2.27448e-05
2.7545e-05
1.69487e-05
2.79152e-05
2.28004e-05
2.75611e-05
1.69152e-05
1.07281e-05
1.09045e-05
2.72714e-05
1.08048e-05
1.08545e-05
1.58876e-05
8.6895e-06
1.60666e-05
8.70629e-06
5.8623e-06
5.88703e-06
1.57496e-05
8.71031e-06
1.57739e-05
8.70244e-06
2.449e-05
2.46152e-05
2.45101e-05
2.4595e-05
2.44551e-05
2.46338e-05
2.46469e-05
2.22178e-05
1.69571e-05
2.76028e-05
2.80641e-05
2.22953e-05
1.68015e-05
2.76608e-05
5.85779e-06
5.82387e-06
2.2417e-05
2.75715e-05
1.68339e-05
2.78905e-05
2.24647e-05
2.76352e-05
1.6852e-05
1.08222e-05
1.07626e-05
2.73394e-05
1.07872e-05
1.07697e-05
1.58922e-05
8.73558e-06
1.59196e-05
8.74073e-06
5.91987e-06
5.89718e-06
1.56733e-05
8.65186e-06
1.57089e-05
8.56923e-06
2.45886e-05
2.46399e-05
2.46186e-05
2.459e-05
2.44095e-05
2.46435e-05
2.46142e-05
2.23136e-05
1.67619e-05
2.75569e-05
2.78873e-05
2.21369e-05
1.67089e-05
2.75836e-05
5.80373e-06
5.79649e-06
2.23215e-05
2.75938e-05
1.68598e-05
2.8076e-05
2.23455e-05
2.76365e-05
1.67832e-05
1.06676e-05
1.07447e-05
2.74703e-05
1.05821e-05
1.07174e-05
1.59661e-05
8.73931e-06
1.59568e-05
8.70856e-06
5.87437e-06
5.85617e-06
1.55458e-05
8.44891e-06
1.56529e-05
8.46532e-06
2.44023e-05
2.46359e-05
2.44936e-05
2.46838e-05
2.45753e-05
2.45113e-05
2.44402e-05
2.21449e-05
1.66473e-05
2.76437e-05
2.79019e-05
2.23387e-05
1.66845e-05
2.76332e-05
5.803e-06
5.83785e-06
2.25321e-05
2.74956e-05
1.67193e-05
2.79338e-05
2.23686e-05
2.75123e-05
1.67367e-05
1.04568e-05
1.07184e-05
2.73332e-05
1.04852e-05
1.07732e-05
1.59924e-05
8.67957e-06
1.60015e-05
8.6971e-06
5.8249e-06
5.83784e-06
1.54737e-05
8.4988e-06
1.54258e-05
8.49253e-06
2.44831e-05
2.44945e-05
2.456e-05
2.4571e-05
2.45257e-05
2.45382e-05
2.44393e-05
2.21299e-05
1.67293e-05
2.75468e-05
2.78728e-05
2.21056e-05
1.66828e-05
2.75195e-05
5.83336e-06
5.85084e-06
2.25139e-05
2.75697e-05
1.66958e-05
2.79379e-05
2.23845e-05
2.75432e-05
1.66411e-05
1.04911e-05
1.07747e-05
2.74052e-05
1.05331e-05
1.07625e-05
1.59247e-05
8.65709e-06
1.59814e-05
8.66444e-06
5.78879e-06
5.74553e-06
1.55641e-05
8.43375e-06
1.54867e-05
8.41476e-06
2.44984e-05
2.44874e-05
2.45637e-05
2.45446e-05
2.46418e-05
2.43943e-05
2.4715e-05
2.22604e-05
1.66888e-05
2.76724e-05
2.79037e-05
2.22295e-05
1.67289e-05
2.77482e-05
5.86178e-06
5.89942e-06
2.23128e-05
2.75917e-05
1.65629e-05
2.78434e-05
2.24304e-05
2.75546e-05
1.66284e-05
1.06611e-05
1.06773e-05
2.74783e-05
1.0607e-05
1.06437e-05
1.59266e-05
8.59013e-06
1.5912e-05
8.65506e-06
5.71643e-06
5.7335e-06
1.56792e-05
8.36617e-06
1.57287e-05
8.3506e-06
2.45786e-05
2.43919e-05
2.45909e-05
2.45752e-05
2.46907e-05
2.43814e-05
2.46303e-05
2.2294e-05
1.67443e-05
2.76953e-05
2.78398e-05
2.21938e-05
1.68032e-05
2.75598e-05
5.85844e-06
5.87299e-06
2.22856e-05
2.75171e-05
1.66188e-05
2.78736e-05
2.22609e-05
2.75405e-05
1.66534e-05
1.06521e-05
1.06056e-05
2.75353e-05
1.06617e-05
1.07063e-05
1.58841e-05
8.62415e-06
1.59424e-05
8.57551e-06
5.73193e-06
5.73099e-06
1.57702e-05
8.38497e-06
1.57072e-05
8.49466e-06
2.45398e-05
2.43864e-05
2.4524e-05
2.45169e-05
2.46588e-05
2.44234e-05
2.44947e-05
2.22709e-05
1.65322e-05
2.76234e-05
2.78691e-05
2.23413e-05
1.65109e-05
2.76359e-05
5.9058e-06
5.86506e-06
2.23286e-05
2.75282e-05
1.66129e-05
2.78597e-05
2.24066e-05
2.75233e-05
1.66162e-05
1.05243e-05
1.06246e-05
2.74259e-05
1.05792e-05
1.06244e-05
1.58501e-05
8.51298e-06
1.58556e-05
8.45839e-06
5.70987e-06
5.72918e-06
1.56491e-05
8.45797e-06
1.56578e-05
8.41223e-06
2.45222e-05
2.4541e-05
2.46582e-05
2.45912e-05
2.44961e-05
2.45153e-05
2.47152e-05
2.23401e-05
1.64857e-05
2.76276e-05
2.79928e-05
2.22403e-05
1.65546e-05
2.76159e-05
5.834e-06
5.82937e-06
2.23926e-05
2.75565e-05
1.65828e-05
2.80013e-05
2.24045e-05
2.75687e-05
1.65731e-05
1.05703e-05
1.05778e-05
2.72877e-05
1.0621e-05
1.05584e-05
1.59877e-05
8.4918e-06
1.58749e-05
8.61327e-06
5.83236e-06
5.88735e-06
1.55247e-05
8.3481e-06
1.55985e-05
8.35509e-06
2.46453e-05
2.44936e-05
2.45853e-05
2.44952e-05
2.45713e-05
2.45626e-05
2.46573e-05
2.21766e-05
1.65396e-05
2.77116e-05
2.79306e-05
2.22273e-05
1.6683e-05
2.76745e-05
5.83736e-06
5.8356e-06
2.24875e-05
2.75935e-05
1.64813e-05
2.7838e-05
2.23925e-05
2.7643e-05
1.65034e-05
1.06466e-05
1.05322e-05
2.75571e-05
1.06363e-05
1.0549e-05
1.59232e-05
8.70798e-06
1.594e-05
8.72251e-06
5.98824e-06
6.01895e-06
1.54924e-05
8.38959e-06
1.5503e-05
8.4139e-06
2.45396e-05
2.44098e-05
2.45219e-05
2.47079e-05
2.44633e-05
2.44664e-05
2.44578e-05
2.22847e-05
1.67803e-05
2.77304e-05
2.78671e-05
2.20973e-05
1.6889e-05
2.77476e-05
5.84286e-06
5.82438e-06
2.25028e-05
2.75781e-05
1.66189e-05
2.78397e-05
2.23898e-05
2.75669e-05
1.67167e-05
1.05017e-05
1.06012e-05
2.73381e-05
1.05228e-05
1.06434e-05
1.59563e-05
8.67446e-06
1.59452e-05
8.68727e-06
5.99201e-06
6.00233e-06
1.54998e-05
8.44862e-06
1.54773e-05
8.41761e-06
2.44454e-05
2.44638e-05
2.44984e-05
2.45261e-05
2.44714e-05
2.46012e-05
2.44571e-05
2.24327e-05
1.67042e-05
2.76647e-05
2.79795e-05
2.21375e-05
1.66291e-05
2.77629e-05
5.79741e-06
5.80077e-06
2.2395e-05
2.76358e-05
1.67709e-05
2.78343e-05
2.23725e-05
2.7681e-05
1.67839e-05
1.05513e-05
1.06989e-05
2.75284e-05
1.05885e-05
1.06187e-05
1.5981e-05
8.63778e-06
1.59061e-05
8.63542e-06
5.99508e-06
5.99736e-06
1.54153e-05
8.44151e-06
1.54438e-05
8.532e-06
2.46071e-05
2.46329e-05
2.44598e-05
2.45266e-05
2.47179e-05
2.4426e-05
2.44895e-05
2.21166e-05
1.65494e-05
2.77361e-05
2.77994e-05
2.23564e-05
1.6624e-05
2.7612e-05
5.79064e-06
5.7968e-06
2.23284e-05
2.75846e-05
1.67255e-05
2.79703e-05
2.23234e-05
2.75943e-05
1.67682e-05
1.05372e-05
1.06978e-05
2.73017e-05
1.05738e-05
1.06652e-05
1.58662e-05
8.61189e-06
1.57793e-05
8.59093e-06
5.97725e-06
5.97257e-06
1.54389e-05
8.46421e-06
1.55133e-05
8.45455e-06
2.45419e-05
2.4514e-05
2.44431e-05
2.43875e-05
2.45349e-05
2.44114e-05
2.44999e-05
2.21704e-05
1.66288e-05
2.7782e-05
2.78496e-05
2.21508e-05
1.65876e-05
2.77256e-05
5.82825e-06
5.84307e-06
2.24877e-05
2.75873e-05
1.67111e-05
2.79527e-05
2.23176e-05
2.75494e-05
1.6745e-05
1.05708e-05
1.06295e-05
2.74282e-05
1.05985e-05
1.06191e-05
1.59455e-05
8.59189e-06
1.59467e-05
8.61438e-06
5.96693e-06
5.97216e-06
1.53918e-05
8.41014e-06
1.53371e-05
8.42627e-06
2.46266e-05
2.43751e-05
2.4465e-05
2.43533e-05
2.45068e-05
2.43072e-05
2.43533e-05
2.2309e-05
1.6486e-05
2.78151e-05
2.78689e-05
2.22841e-05
1.64903e-05
2.76761e-05
5.82381e-06
5.84559e-06
2.2217e-05
2.75475e-05
1.67644e-05
2.78576e-05
2.23996e-05
2.75592e-05
1.67071e-05
1.06369e-05
1.0634e-05
2.74588e-05
1.06611e-05
1.06078e-05
5.92965e-06
8.42966e-06
1.56954e-05
2.44567e-05
2.44345e-05
2.45679e-05
1.68524e-05
2.74804e-05
2.2721e-05
5.81766e-06
2.75566e-05
1.66836e-05
2.22594e-05
1.08917e-05
1.05935e-05
1.0873e-05
1.10333e-05
2.75574e-05
1.11341e-05
1.1077e-05
5.90899e-06
5.92488e-06
5.96973e-06
5.97815e-06
2.76101e-05
1.09721e-05
1.09878e-05
1.10752e-05
1.10548e-05
5.89126e-06
5.94983e-06
2.29581e-05
2.76187e-05
1.69653e-05
2.79188e-05
1.69307e-05
2.29356e-05
2.7675e-05
1.63714e-05
8.79266e-06
8.78444e-06
1.64443e-05
1.63988e-05
8.5838e-06
8.61215e-06
1.64001e-05
2.28948e-05
2.78407e-05
2.75771e-05
1.69849e-05
1.71448e-05
2.28716e-05
2.76681e-05
2.28746e-05
2.78237e-05
2.75362e-05
1.69581e-05
1.69724e-05
2.28009e-05
2.75339e-05
1.63833e-05
8.78096e-06
8.82664e-06
1.62356e-05
1.64452e-05
8.58727e-06
8.6226e-06
1.62663e-05
5.79996e-06
5.81588e-06
5.77211e-06
5.80379e-06
2.74036e-05
1.07439e-05
1.0972e-05
1.09784e-05
1.07173e-05
5.82995e-06
5.82054e-06
5.83249e-06
5.84864e-06
5.86722e-06
5.87998e-06
5.88013e-06
5.90286e-06
1.09056e-05
1.08567e-05
2.75321e-05
1.08709e-05
1.08918e-05
5.85866e-06
5.8843e-06
5.86032e-06
5.91494e-06
2.73678e-05
1.09354e-05
1.08299e-05
1.09245e-05
1.08763e-05
1.59828e-05
8.59388e-06
8.62327e-06
1.60975e-05
2.28618e-05
1.69648e-05
2.75135e-05
2.79388e-05
1.69469e-05
2.75325e-05
2.26826e-05
2.26311e-05
1.69067e-05
2.75949e-05
2.78377e-05
1.6872e-05
2.74783e-05
2.28027e-05
1.61758e-05
8.73361e-06
8.7361e-06
1.6156e-05
1.60007e-05
8.69443e-06
8.6836e-06
1.58345e-05
2.27128e-05
2.79136e-05
1.69661e-05
2.75222e-05
1.69844e-05
2.75032e-05
2.27913e-05
2.24674e-05
2.78901e-05
1.6929e-05
2.74704e-05
1.68926e-05
2.74721e-05
2.25321e-05
1.07533e-05
1.11528e-05
2.75216e-05
1.07719e-05
1.10194e-05
5.93094e-06
5.88915e-06
5.86403e-06
5.83859e-06
2.73972e-05
1.08847e-05
1.09988e-05
1.08614e-05
1.10458e-05
5.90061e-06
5.90777e-06
2.26208e-05
1.71961e-05
2.74349e-05
2.78856e-05
1.70978e-05
2.75148e-05
2.29304e-05
1.58476e-05
8.92929e-06
8.8177e-06
1.59491e-05
2.26573e-05
2.73955e-05
1.74442e-05
2.78349e-05
2.74081e-05
1.72274e-05
2.28568e-05
1.59723e-05
8.70555e-06
8.78569e-06
1.57849e-05
2.26192e-05
2.79126e-05
1.69526e-05
2.74632e-05
1.71158e-05
2.74669e-05
2.23567e-05
1.58595e-05
8.75001e-06
8.83479e-06
1.5758e-05
2.26529e-05
2.78737e-05
2.7494e-05
1.70794e-05
2.75528e-05
1.72193e-05
2.23692e-05
1.59247e-05
8.662e-06
8.60352e-06
1.59921e-05
2.23002e-05
2.75672e-05
1.68462e-05
2.78969e-05
2.75601e-05
1.68366e-05
2.25547e-05
1.58794e-05
8.73247e-06
8.71237e-06
1.58838e-05
2.24117e-05
2.78275e-05
1.69767e-05
2.76852e-05
1.70339e-05
2.7621e-05
2.22402e-05
1.59721e-05
8.59288e-06
8.63799e-06
1.57896e-05
2.23829e-05
2.79614e-05
2.76074e-05
1.68871e-05
2.76595e-05
1.68825e-05
2.22497e-05
1.59062e-05
8.69564e-06
8.69576e-06
1.58231e-05
1.10061e-05
1.10463e-05
2.74485e-05
1.09817e-05
1.09725e-05
5.91716e-06
5.87402e-06
5.89139e-06
5.95011e-06
2.74693e-05
1.09284e-05
1.09436e-05
1.10626e-05
1.10247e-05
5.92522e-06
5.89009e-06
2.27428e-05
2.75257e-05
1.69416e-05
2.79341e-05
2.27566e-05
2.76579e-05
1.68872e-05
1.61029e-05
8.79508e-06
1.62353e-05
8.72617e-06
1.60906e-05
8.60535e-06
1.62378e-05
8.5334e-06
2.26076e-05
2.78218e-05
2.7506e-05
1.68804e-05
2.76265e-05
1.69121e-05
2.24736e-05
2.25826e-05
2.79774e-05
2.75295e-05
1.68772e-05
2.75699e-05
1.68884e-05
2.25453e-05
1.61016e-05
8.78375e-06
8.78447e-06
1.59985e-05
1.61021e-05
8.52898e-06
8.5564e-06
1.6085e-05
5.83739e-06
5.83368e-06
5.85086e-06
5.80491e-06
2.7276e-05
1.08953e-05
1.07934e-05
1.0822e-05
1.08263e-05
5.84737e-06
5.87034e-06
5.77218e-06
5.80566e-06
5.89171e-06
5.89688e-06
5.86664e-06
5.81788e-06
1.10315e-05
1.07982e-05
2.74406e-05
1.10281e-05
1.07606e-05
5.90415e-06
5.93346e-06
5.76821e-06
5.80397e-06
2.74813e-05
1.10195e-05
1.06658e-05
1.10514e-05
1.07434e-05
1.57337e-05
8.73703e-06
1.58108e-05
8.77082e-06
2.26434e-05
1.69617e-05
2.76155e-05
2.80366e-05
2.26078e-05
1.69549e-05
2.74988e-05
2.2425e-05
1.70575e-05
2.75104e-05
2.79198e-05
2.23799e-05
1.70833e-05
2.76131e-05
1.59193e-05
8.77348e-06
8.73455e-06
1.5969e-05
1.57758e-05
8.80908e-06
8.79586e-06
1.5771e-05
2.26254e-05
2.79951e-05
1.6967e-05
2.74826e-05
1.69785e-05
2.75084e-05
2.23904e-05
2.24969e-05
2.79348e-05
1.70889e-05
2.74777e-05
1.70999e-05
2.74906e-05
2.24613e-05
1.0927e-05
1.10172e-05
2.74045e-05
1.09478e-05
1.09346e-05
5.90235e-06
5.81574e-06
5.94463e-06
5.91769e-06
2.74115e-05
1.0991e-05
1.09286e-05
1.09959e-05
1.09713e-05
5.80675e-06
5.8332e-06
2.23592e-05
1.69387e-05
2.7457e-05
2.77931e-05
2.23436e-05
1.69199e-05
2.74913e-05
1.57107e-05
8.76826e-06
1.57876e-05
8.70355e-06
2.22671e-05
2.74921e-05
1.70996e-05
2.78887e-05
2.24955e-05
2.75298e-05
1.69775e-05
1.57761e-05
8.67772e-06
8.73558e-06
1.57604e-05
2.24312e-05
2.79082e-05
1.68707e-05
2.74761e-05
1.69545e-05
2.75824e-05
2.25282e-05
1.57383e-05
8.64086e-06
8.74493e-06
1.57108e-05
2.23538e-05
2.80117e-05
2.75262e-05
1.68182e-05
2.7642e-05
1.69718e-05
2.23241e-05
1.5682e-05
8.62452e-06
1.57944e-05
8.5195e-06
2.21935e-05
2.75791e-05
1.69373e-05
2.79007e-05
2.22761e-05
2.76024e-05
1.6939e-05
1.57142e-05
8.73951e-06
1.58324e-05
8.68458e-06
2.22307e-05
2.79475e-05
1.68022e-05
2.75643e-05
1.6796e-05
2.75331e-05
2.21381e-05
1.5673e-05
8.47316e-06
8.51785e-06
1.55934e-05
2.22138e-05
2.80355e-05
2.75827e-05
1.68344e-05
2.76951e-05
1.68973e-05
2.2193e-05
1.57149e-05
8.64537e-06
8.69957e-06
1.56461e-05
1.09082e-05
1.09985e-05
2.75372e-05
1.07635e-05
1.10029e-05
5.93842e-06
5.88625e-06
5.83165e-06
5.85009e-06
2.76242e-05
1.07999e-05
1.08925e-05
1.08278e-05
1.10004e-05
5.83903e-06
5.89178e-06
2.24697e-05
2.75134e-05
1.68985e-05
2.78106e-05
2.26473e-05
2.76051e-05
1.68691e-05
1.59418e-05
8.73299e-06
1.60162e-05
8.72771e-06
1.59889e-05
8.56448e-06
1.61098e-05
8.52361e-06
2.23879e-05
2.79426e-05
2.75417e-05
1.68402e-05
2.7518e-05
1.68055e-05
2.2355e-05
2.25151e-05
2.79244e-05
2.75306e-05
1.68015e-05
2.75119e-05
1.68548e-05
2.23566e-05
1.59246e-05
8.70404e-06
8.68688e-06
1.59085e-05
1.59384e-05
8.56786e-06
8.60617e-06
1.58388e-05
5.85938e-06
5.81452e-06
5.7737e-06
5.7769e-06
2.73166e-05
1.07291e-05
1.08401e-05
1.08326e-05
1.08054e-05
5.80852e-06
5.81938e-06
5.79521e-06
5.82e-06
5.92352e-06
5.8796e-06
5.76084e-06
5.71517e-06
1.10659e-05
1.06981e-05
2.74276e-05
1.09767e-05
1.06167e-05
5.91716e-06
5.91828e-06
5.67871e-06
5.7293e-06
2.74751e-05
1.09495e-05
1.05316e-05
1.09592e-05
1.06324e-05
1.58653e-05
8.79405e-06
1.58041e-05
8.75717e-06
2.2508e-05
1.69999e-05
2.75808e-05
2.80645e-05
2.24246e-05
1.69807e-05
2.75152e-05
2.23919e-05
1.71242e-05
2.747e-05
2.80104e-05
2.23345e-05
1.70008e-05
2.74895e-05
1.59302e-05
8.80023e-06
8.80183e-06
1.59799e-05
1.58894e-05
8.75818e-06
8.7997e-06
1.59353e-05
2.24611e-05
2.79336e-05
1.69433e-05
2.75862e-05
1.69598e-05
2.75203e-05
2.2512e-05
2.23825e-05
2.8049e-05
1.69991e-05
2.76292e-05
1.70527e-05
2.74851e-05
2.23747e-05
1.10439e-05
1.09675e-05
2.74425e-05
1.09444e-05
1.09099e-05
5.85581e-06
5.81616e-06
5.89999e-06
5.93045e-06
2.74248e-05
1.10113e-05
1.09842e-05
1.0965e-05
1.09694e-05
5.83662e-06
5.84791e-06
2.22353e-05
1.68557e-05
2.75024e-05
2.79533e-05
2.24069e-05
1.67718e-05
2.75143e-05
1.56946e-05
8.6499e-06
1.57476e-05
8.67205e-06
2.22124e-05
2.75692e-05
1.68048e-05
2.78785e-05
2.24324e-05
2.75709e-05
1.67921e-05
1.56985e-05
8.48585e-06
8.56977e-06
1.57071e-05
2.2331e-05
2.78957e-05
1.66467e-05
2.76889e-05
1.67721e-05
2.75558e-05
2.21894e-05
1.57236e-05
8.63071e-06
8.69853e-06
1.56687e-05
2.22145e-05
2.79863e-05
2.76324e-05
1.68683e-05
2.75557e-05
1.67754e-05
2.23024e-05
1.56008e-05
8.50401e-06
1.56158e-05
8.49634e-06
2.22066e-05
2.76377e-05
1.68226e-05
2.79214e-05
2.21835e-05
2.76795e-05
1.67091e-05
1.56548e-05
8.65957e-06
1.56815e-05
8.56999e-06
2.22144e-05
2.79998e-05
1.67066e-05
2.76122e-05
1.67676e-05
2.75946e-05
2.22193e-05
1.564e-05
8.46036e-06
8.5147e-06
1.55272e-05
2.2238e-05
2.80306e-05
2.76718e-05
1.65839e-05
2.75577e-05
1.67139e-05
2.22055e-05
1.5663e-05
8.54343e-06
8.62837e-06
1.56157e-05
1.08416e-05
1.09118e-05
2.76371e-05
1.0805e-05
1.07828e-05
5.84983e-06
5.80448e-06
5.80161e-06
5.82028e-06
2.74743e-05
1.0756e-05
1.07857e-05
1.07789e-05
1.08121e-05
5.74292e-06
5.79631e-06
2.24694e-05
2.75573e-05
1.6816e-05
2.79515e-05
2.24183e-05
2.74408e-05
1.67807e-05
1.58411e-05
8.6657e-06
1.58975e-05
8.61316e-06
1.57934e-05
8.57218e-06
1.58269e-05
8.5661e-06
2.23193e-05
2.80629e-05
2.75104e-05
1.68221e-05
2.75162e-05
1.68264e-05
2.2408e-05
2.2387e-05
2.78052e-05
2.74311e-05
1.68251e-05
2.74346e-05
1.68176e-05
2.23048e-05
1.58545e-05
8.58055e-06
8.65043e-06
1.57762e-05
1.58142e-05
8.58723e-06
8.6143e-06
1.57792e-05
5.79399e-06
5.7423e-06
5.81294e-06
5.76312e-06
2.734e-05
1.05449e-05
1.07334e-05
1.05953e-05
1.07232e-05
5.67059e-06
5.7427e-06
5.79009e-06
5.80544e-06
5.91176e-06
5.83815e-06
5.72754e-06
5.70053e-06
1.09919e-05
1.0585e-05
2.73664e-05
1.09083e-05
1.05678e-05
5.8368e-06
5.86534e-06
5.7343e-06
5.74462e-06
2.73886e-05
1.08515e-05
1.06266e-05
1.09401e-05
1.06075e-05
1.59465e-05
8.74841e-06
1.59424e-05
8.72012e-06
2.24814e-05
1.69827e-05
2.74728e-05
2.7951e-05
2.25587e-05
1.69562e-05
2.74943e-05
2.24039e-05
1.7013e-05
2.75611e-05
2.80399e-05
2.23733e-05
1.69587e-05
2.76457e-05
1.60046e-05
8.70276e-06
8.7077e-06
1.6028e-05
1.6e-05
8.63634e-06
8.7084e-06
1.59295e-05
2.23812e-05
2.80634e-05
1.6944e-05
2.74619e-05
1.69793e-05
2.74773e-05
2.24285e-05
2.24143e-05
2.79926e-05
1.69185e-05
2.76247e-05
1.70012e-05
2.75291e-05
2.24346e-05
1.10115e-05
1.10154e-05
2.75492e-05
1.092e-05
1.09868e-05
5.83309e-06
5.83502e-06
5.85861e-06
5.87786e-06
2.74103e-05
1.09463e-05
1.09761e-05
1.09394e-05
1.10387e-05
5.88884e-06
5.87302e-06
2.22141e-05
1.66551e-05
2.75803e-05
2.7794e-05
2.22066e-05
1.65744e-05
2.75806e-05
1.56067e-05
8.65374e-06
1.57443e-05
8.68832e-06
2.21694e-05
2.77584e-05
1.68585e-05
2.79913e-05
2.23414e-05
2.76543e-05
1.68802e-05
1.55423e-05
8.53522e-06
8.50233e-06
1.54733e-05
2.21818e-05
2.78253e-05
1.65256e-05
2.75409e-05
1.65218e-05
2.75392e-05
2.21338e-05
1.56045e-05
8.68694e-06
8.72105e-06
1.54121e-05
2.22936e-05
2.79396e-05
2.76175e-05
1.6808e-05
2.76194e-05
1.68415e-05
2.21879e-05
1.54921e-05
8.50606e-06
1.55563e-05
8.47464e-06
2.20979e-05
2.75854e-05
1.66189e-05
2.80222e-05
2.22285e-05
2.76262e-05
1.65123e-05
1.54567e-05
8.58295e-06
1.56709e-05
8.47319e-06
2.2171e-05
2.78887e-05
1.67622e-05
2.75336e-05
1.67454e-05
2.76565e-05
2.2079e-05
1.54462e-05
8.48273e-06
8.49421e-06
1.53946e-05
2.21375e-05
2.78532e-05
2.76465e-05
1.64954e-05
2.74999e-05
1.65576e-05
2.20156e-05
1.54161e-05
8.42858e-06
8.48718e-06
1.53332e-05
1.08245e-05
1.08271e-05
2.75448e-05
1.08579e-05
1.08682e-05
5.78549e-06
5.81544e-06
5.86684e-06
5.86072e-06
2.76847e-05
1.0793e-05
1.09232e-05
1.08009e-05
1.0923e-05
5.80003e-06
5.83109e-06
2.24137e-05
2.75722e-05
1.68962e-05
2.78049e-05
2.22993e-05
2.75439e-05
1.69465e-05
1.57412e-05
8.61602e-06
1.57811e-05
8.56429e-06
1.57327e-05
8.62648e-06
1.58032e-05
8.68515e-06
2.2447e-05
2.79209e-05
2.76466e-05
1.67455e-05
2.75146e-05
1.67625e-05
2.23979e-05
2.23797e-05
2.78076e-05
2.767e-05
1.6912e-05
2.76507e-05
1.69405e-05
2.24734e-05
1.57964e-05
8.48133e-06
8.59568e-06
1.57608e-05
1.57966e-05
8.62062e-06
8.64182e-06
1.58214e-05
5.68418e-06
5.65772e-06
5.80886e-06
5.79359e-06
2.72822e-05
1.05203e-05
1.08085e-05
1.04988e-05
1.08325e-05
5.64296e-06
5.66225e-06
5.81489e-06
5.83142e-06
5.86508e-06
5.84292e-06
5.75848e-06
5.74396e-06
1.08849e-05
1.07125e-05
2.74849e-05
1.08928e-05
1.07168e-05
5.8478e-06
5.85601e-06
5.77424e-06
5.78645e-06
2.73583e-05
1.09124e-05
1.07206e-05
1.09365e-05
1.07469e-05
1.58905e-05
8.65077e-06
1.59467e-05
8.63138e-06
2.24372e-05
1.69887e-05
2.75992e-05
2.78937e-05
2.24247e-05
1.69228e-05
2.75144e-05
2.24372e-05
1.68909e-05
2.75203e-05
2.7937e-05
2.24934e-05
1.68942e-05
2.75017e-05
1.60249e-05
8.69062e-06
8.67929e-06
1.60302e-05
1.59166e-05
8.5696e-06
8.5962e-06
1.58563e-05
2.25439e-05
2.79241e-05
1.69309e-05
2.74868e-05
1.69253e-05
2.74902e-05
2.24238e-05
2.23084e-05
2.79922e-05
1.68251e-05
2.76048e-05
1.69612e-05
2.75241e-05
2.23875e-05
1.09817e-05
1.09931e-05
2.74397e-05
1.09671e-05
1.09238e-05
5.90176e-06
5.8226e-06
5.85288e-06
5.85793e-06
2.74906e-05
1.0947e-05
1.08806e-05
1.09906e-05
1.09543e-05
5.81562e-06
5.81491e-06
2.21724e-05
1.65354e-05
2.75111e-05
2.79038e-05
2.21959e-05
1.66114e-05
2.74965e-05
1.53838e-05
8.73595e-06
1.5477e-05
8.73245e-06
2.22145e-05
2.76371e-05
1.69123e-05
2.79314e-05
2.23073e-05
2.76585e-05
1.68202e-05
1.55227e-05
8.51491e-06
8.52848e-06
1.55107e-05
2.21525e-05
2.78775e-05
1.65674e-05
2.74893e-05
1.66148e-05
2.74817e-05
2.21178e-05
1.54e-05
8.72805e-06
8.75543e-06
1.54224e-05
2.2098e-05
2.78871e-05
2.76455e-05
1.68422e-05
2.75275e-05
1.6829e-05
2.20962e-05
1.54617e-05
8.50628e-06
1.54445e-05
8.5155e-06
2.21724e-05
2.75597e-05
1.64934e-05
2.7826e-05
2.21937e-05
2.75439e-05
1.65236e-05
1.53865e-05
8.44203e-06
1.53616e-05
8.3679e-06
2.23342e-05
2.79475e-05
1.67336e-05
2.75998e-05
1.67281e-05
2.76009e-05
2.23008e-05
1.55464e-05
8.5213e-06