/*--------------------------------*- C++ -*----------------------------------*\
| =========                 |                                                 |
| \\      /  F ield         | OpenFOAM: The Open Source CFD Toolbox           |
|  \\    /   O peration     | Version:  2206                                  |
|   \\  /    A nd           | Website:  www.openfoam.com                      |
|    \\/     M anipulation  |                                                 |
\*---------------------------------------------------------------------------*/
FoamFile
{
    version     2.0;
    format      ascii;
    arch        "LSB;label=32;scalar=64";
    class       volScalarField;
    location    "26";
    object      nut;
}
// * * * * * * * * * * * * * * * * * * * * * * * * * * * * * * * * * * * * * //

dimensions      [0 2 -1 0 0 0 0];

internalField   nonuniform List<scalar> 
66701
(
1.42807e-08
1.20838e-08
3.17094e-08
6.85613e-08
1.96703e-08
1.74193e-07
1.40444e-07
2.31772e-08
1.22746e-08
3.2494e-08
7.01297e-08
1.96955e-08
1.73993e-07
2.32718e-08
1.41199e-07
1.47143e-08
2.37626e-09
2.74619e-10
2.24992e-11
5.94187e-12
5.76356e-12
2.31841e-09
2.67537e-10
2.20671e-11
5.96642e-12
5.80186e-12
2.20967e-09
2.51836e-10
2.02105e-11
5.21096e-12
5.04015e-12
2.27738e-09
2.59618e-10
2.07291e-11
5.22623e-12
5.04151e-12
2.44341e-09
2.81967e-10
2.29708e-11
5.95833e-12
5.76778e-12
2.36419e-09
2.72798e-10
2.24176e-11
5.97702e-12
5.80291e-12
2.01432e-09
2.31881e-10
1.93275e-11
5.50922e-12
5.38774e-12
2.0462e-09
2.36991e-10
1.97965e-11
5.63205e-12
5.50973e-12
2.01422e-09
2.31975e-10
1.93293e-11
5.50966e-12
5.38825e-12
2.04948e-09
2.37219e-10
1.98043e-11
5.63266e-12
5.51008e-12
1.45603e-08
1.41467e-08
1.1883e-06
7.59145e-08
7.20565e-08
3.23804e-08
1.24632e-06
2.16076e-07
1.7236e-07
3.13438e-08
6.14124e-07
1.2366e-06
2.07614e-07
1.41543e-06
1.72239e-07
3.21168e-08
6.13913e-07
1.23719e-06
1.41766e-06
2.10107e-07
1.4537e-08
1.20684e-06
7.36568e-08
1.4349e-08
3.91942e-08
1.23246e-08
1.20975e-08
3.99888e-08
1.25296e-08
1.22642e-08
1.58813e-07
2.99715e-08
3.82915e-07
7.87221e-08
1.64615e-07
3.06147e-08
3.98161e-07
1.53631e-07
2.85555e-08
3.64994e-07
7.52469e-08
1.55832e-07
2.91435e-08
3.81562e-07
1.98145e-08
1.40893e-07
2.32599e-08
1.7537e-07
1.99812e-08
1.41362e-07
2.336e-08
1.21502e-08
6.7665e-08
3.19026e-08
1.21435e-08
6.91699e-08
1.99015e-08
2.31034e-08
1.41327e-07
1.74678e-07
2.02857e-08
2.33817e-08
1.41968e-07
1.23553e-08
6.9148e-08
3.25582e-08
1.25526e-08
7.09301e-08
1.47281e-08
4.12587e-08
1.26885e-08
1.27758e-08
1.59059e-07
3.79864e-07
7.64726e-08
3.90777e-07
2.98579e-08
1.61208e-07
7.52927e-08
3.03326e-08
3.78618e-07
1.43038e-08
1.3613e-06
1.34785e-06
1.35073e-06
1.26735e-06
1.37232e-06
1.36275e-06
1.34951e-06
1.29401e-06
1.34244e-06
1.27795e-06
1.35306e-06
1.28463e-06
4.43749e-07
1.19984e-06
8.22917e-07
8.15727e-07
4.49654e-07
8.32513e-07
8.31071e-07
9.44741e-07
4.13533e-07
6.57812e-07
2.25386e-07
6.79439e-07
9.33133e-07
4.30254e-07
1.06003e-06
5.36114e-07
1.12647e-06
6.2853e-07
1.06518e-06
5.47012e-07
1.13024e-06
9.04239e-07
3.79845e-07
6.39652e-07
2.13247e-07
6.60099e-07
9.2008e-07
3.9336e-07
1.06643e-06
1.13202e-06
5.4043e-07
6.28939e-07
1.07348e-06
1.12832e-06
5.57694e-07
9.26107e-07
3.84694e-07
6.5127e-07
2.16923e-07
9.30327e-07
3.98098e-07
6.70218e-07
4.55345e-07
1.21563e-06
8.36286e-07
8.55499e-07
8.32186e-07
2.43339e-09
2.81334e-10
2.29334e-11
5.95603e-12
5.76651e-12
2.37249e-09
2.74145e-10
2.24649e-11
5.93916e-12
5.76175e-12
2.2507e-09
2.56195e-10
2.04787e-11
5.21612e-12
5.03869e-12
2.20606e-09
2.51388e-10
2.0183e-11
5.20891e-12
5.03872e-12
2.27126e-09
2.58811e-10
2.06673e-11
5.22331e-12
5.0404e-12
2.43281e-09
2.80762e-10
2.28919e-11
5.95513e-12
5.76667e-12
2.37905e-09
2.74906e-10
2.25294e-11
5.96206e-12
5.78498e-12
2.02584e-09
2.33061e-10
1.94099e-11
5.52753e-12
5.40572e-12
2.06234e-09
2.3806e-10
1.9847e-11
5.63146e-12
5.50803e-12
2.02433e-09
2.32701e-10
1.93738e-11
5.50907e-12
5.3863e-12
2.0588e-09
2.37866e-10
1.98565e-11
5.65004e-12
5.52799e-12
2.21151e-09
2.52045e-10
2.0241e-11
5.23043e-12
5.06096e-12
2.03226e-09
2.33303e-10
1.9412e-11
5.52835e-12
5.40675e-12
2.05346e-09
2.37385e-10
1.98077e-11
5.63116e-12
5.50855e-12
2.03265e-09
2.33208e-10
1.93812e-11
5.50926e-12
5.38677e-12
2.05327e-09
2.37642e-10
1.9846e-11
5.64943e-12
5.52761e-12
2.27764e-09
2.59731e-10
2.07472e-11
5.2456e-12
5.06255e-12
2.44331e-09
2.82e-10
2.29871e-11
5.97782e-12
5.78903e-12
2.24617e-09
2.55655e-10
2.05094e-11
5.28738e-12
5.11552e-12
2.34968e-09
2.71119e-10
2.22506e-11
5.94754e-12
5.77779e-12
2.21231e-09
2.56237e-10
2.13459e-11
5.93221e-12
5.78638e-12
2.2548e-09
2.57198e-10
2.06273e-11
5.2768e-12
5.09971e-12
2.25899e-09
2.57247e-10
2.06377e-11
5.29831e-12
5.12345e-12
2.17826e-09
2.51823e-10
2.10357e-11
5.91753e-12
5.78023e-12
2.17903e-09
2.48788e-10
2.00827e-11
5.26028e-12
5.09749e-12
2.18198e-09
2.48905e-10
2.00984e-11
5.27948e-12
5.11834e-12
2.22194e-09
2.57022e-10
2.14097e-11
5.95387e-12
5.80877e-12
2.18156e-09
2.52056e-10
2.10561e-11
5.94034e-12
5.80478e-12
2.33333e-09
2.68642e-10
2.21555e-11
5.99203e-12
5.82761e-12
2.32896e-09
2.67929e-10
2.2094e-11
5.96591e-12
5.80046e-12
2.37821e-09
2.74083e-10
2.25123e-11
6.00186e-12
5.82797e-12
2.37835e-09
2.73499e-10
2.24524e-11
5.97683e-12
5.8019e-12
2.25886e-09
2.57571e-10
2.06582e-11
5.29771e-12
5.12217e-12
2.27874e-09
2.63231e-10
2.18051e-11
5.96305e-12
5.80749e-12
2.27971e-09
2.63125e-10
2.17659e-11
5.96143e-12
5.8074e-12
1.26622e-06
1.19339e-06
1.37749e-06
1.24696e-06
1.25729e-06
1.19381e-06
1.37571e-06
1.24769e-06
1.25958e-06
1.19515e-06
1.38245e-06
1.24917e-06
1.27004e-06
1.18495e-06
1.37558e-06
1.24456e-06
1.26427e-06
1.19112e-06
1.37619e-06
1.24696e-06
1.26313e-06
1.18563e-06
1.37932e-06
1.2482e-06
1.26721e-06
1.19563e-06
1.37857e-06
1.24636e-06
1.26817e-06
1.19098e-06
1.3835e-06
1.24795e-06
1.26077e-06
1.19942e-06
1.38306e-06
1.24359e-06
1.26162e-06
1.19539e-06
1.38591e-06
1.2529e-06
1.26661e-06
1.20055e-06
1.37411e-06
1.24623e-06
1.26047e-06
1.18761e-06
1.38596e-06
1.24997e-06
1.26168e-06
1.20233e-06
1.37398e-06
1.24434e-06
1.26522e-06
1.18578e-06
1.37189e-06
1.24705e-06
1.26229e-06
1.19231e-06
1.36196e-06
1.25458e-06
1.26505e-06
1.19393e-06
1.36255e-06
1.25313e-06
1.26731e-06
1.20384e-06
1.22138e-06
1.20853e-06
1.2565e-06
1.26223e-06
1.25764e-06
1.19831e-06
1.20648e-06
1.19317e-06
1.25458e-06
1.25259e-06
1.25786e-06
1.2611e-06
1.19866e-06
1.20197e-06
1.24331e-06
1.23557e-06
1.23884e-06
1.2428e-06
1.24102e-06
1.24394e-06
1.24667e-06
1.21219e-06
1.20163e-06
1.25968e-06
1.25926e-06
1.25921e-06
1.19698e-06
1.20057e-06
1.20195e-06
1.26506e-06
1.25721e-06
1.25749e-06
1.25687e-06
1.21213e-06
1.20414e-06
1.24444e-06
1.23744e-06
1.24122e-06
1.23882e-06
1.24015e-06
1.24873e-06
1.24231e-06
1.20827e-06
1.20447e-06
1.25852e-06
1.26924e-06
1.25783e-06
1.19757e-06
1.21385e-06
1.19156e-06
1.25688e-06
1.26446e-06
1.25739e-06
1.26378e-06
1.21576e-06
1.20414e-06
1.24736e-06
1.23919e-06
1.24524e-06
1.24767e-06
1.24215e-06
1.24712e-06
1.24386e-06
1.21113e-06
1.20963e-06
1.26122e-06
1.26851e-06
1.2572e-06
1.19498e-06
1.1979e-06
1.20237e-06
1.25619e-06
1.25708e-06
1.25713e-06
1.26126e-06
1.21024e-06
1.20317e-06
1.24412e-06
1.24803e-06
1.24471e-06
1.24427e-06
1.24484e-06
1.2535e-06
1.23887e-06
1.21796e-06
1.20009e-06
1.25707e-06
1.26491e-06
1.25805e-06
1.19634e-06
1.20398e-06
1.19951e-06
1.25667e-06
1.26343e-06
1.25731e-06
1.26541e-06
1.2101e-06
1.20483e-06
1.25229e-06
1.24315e-06
1.24724e-06
1.24229e-06
1.24349e-06
1.24658e-06
1.23685e-06
1.21255e-06
1.20106e-06
1.25801e-06
1.26553e-06
1.26394e-06
1.19294e-06
1.21609e-06
1.2063e-06
1.26554e-06
1.26041e-06
1.26017e-06
1.25755e-06
1.22138e-06
1.19576e-06
1.24554e-06
1.24839e-06
1.24412e-06
1.24477e-06
1.24127e-06
1.24565e-06
1.23972e-06
1.21071e-06
1.21457e-06
1.26474e-06
1.26332e-06
1.26403e-06
1.196e-06
1.2092e-06
1.19622e-06
1.26729e-06
1.26232e-06
1.25965e-06
1.26133e-06
1.20734e-06
1.20312e-06
1.24294e-06
1.24756e-06
1.24319e-06
1.25032e-06
1.23999e-06
1.25258e-06
1.23997e-06
1.21728e-06
1.2104e-06
1.26647e-06
1.26204e-06
1.2695e-06
1.20579e-06
1.20972e-06
1.18899e-06
1.25854e-06
1.25775e-06
1.26246e-06
1.25668e-06
1.20391e-06
1.1932e-06
1.24486e-06
1.245e-06
1.24262e-06
1.24589e-06
1.24172e-06
1.24957e-06
1.24326e-06
1.21497e-06
1.21136e-06
1.26413e-06
1.26121e-06
1.26657e-06
1.19455e-06
1.20238e-06
1.18696e-06
1.25925e-06
1.26269e-06
1.2552e-06
1.25401e-06
1.21349e-06
1.19864e-06
1.24398e-06
1.24572e-06
1.24264e-06
1.2487e-06
1.24734e-06
1.24783e-06
1.24126e-06
1.22054e-06
1.20491e-06
1.26064e-06
1.26252e-06
1.26573e-06
1.19926e-06
1.19478e-06
1.19434e-06
1.25663e-06
1.25396e-06
1.25477e-06
1.2566e-06
1.21112e-06
1.19847e-06
1.24637e-06
1.2505e-06
1.24286e-06
1.24185e-06
1.24278e-06
1.2463e-06
1.24533e-06
1.21234e-06
1.20403e-06
1.25981e-06
1.26148e-06
1.26451e-06
1.20092e-06
1.20493e-06
1.20313e-06
1.2561e-06
1.25579e-06
1.25708e-06
1.25441e-06
1.21172e-06
1.19683e-06
1.24814e-06
1.24377e-06
1.24211e-06
1.24048e-06
1.24838e-06
1.24687e-06
1.24103e-06
1.22567e-06
1.19865e-06
1.25841e-06
1.26015e-06
1.26007e-06
1.19928e-06
1.20364e-06
1.19147e-06
1.25832e-06
1.25735e-06
1.25797e-06
1.256e-06
1.21398e-06
1.19675e-06
1.24254e-06
1.23977e-06
1.24235e-06
1.24272e-06
1.24031e-06
1.24381e-06
1.23733e-06
1.20667e-06
1.20666e-06
1.26044e-06
1.26251e-06
1.25958e-06
1.20048e-06
1.21122e-06
1.19857e-06
1.26322e-06
1.25856e-06
1.25715e-06
1.25823e-06
1.19947e-06
1.19223e-06
1.24304e-06
1.24638e-06
1.24571e-06
1.24317e-06
1.23859e-06
1.24839e-06
1.24476e-06
1.22062e-06
1.20605e-06
1.26008e-06
1.26279e-06
1.25993e-06
1.19382e-06
1.20427e-06
1.19924e-06
1.26425e-06
1.26201e-06
1.25642e-06
1.26267e-06
1.19959e-06
1.19517e-06
1.24041e-06
1.24133e-06
1.24067e-06
1.23614e-06
1.241e-06
1.24708e-06
1.24325e-06
1.21872e-06
1.20267e-06
1.26797e-06
1.26273e-06
1.26792e-06
1.20792e-06
1.21427e-06
1.19609e-06
1.25951e-06
1.25946e-06
1.24628e-06
1.24625e-06
1.21123e-06
1.19604e-06
1.24494e-06
1.23984e-06
1.24903e-06
1.24912e-06
1.24458e-06
1.25643e-06
1.2501e-06
1.20422e-06
1.21947e-06
1.2632e-06
1.26391e-06
1.26507e-06
1.20358e-06
1.24074e-06
1.22249e-06
1.25523e-06
1.24608e-06
1.24755e-06
1.21945e-06
1.26787e-06
1.4805e-08
1.51268e-08
6.67621e-07
1.43601e-06
2.23107e-07
1.27188e-06
2.23547e-07
6.72114e-07
1.43352e-06
7.36095e-08
7.47818e-08
1.19772e-06
7.61483e-08
7.39021e-08
1.89667e-07
3.29561e-08
3.31393e-08
1.90236e-07
1.44445e-08
1.44975e-08
1.80062e-07
3.3048e-08
3.29758e-08
1.80872e-07
1.3697e-06
1.37824e-06
1.38373e-06
1.36935e-06
1.36339e-06
1.37356e-06
1.37406e-06
6.25104e-07
2.12757e-07
1.42701e-06
1.24214e-06
2.12338e-07
1.42727e-06
6.26646e-07
1.48284e-08
1.47526e-08
6.55e-07
1.4331e-06
2.16736e-07
1.26212e-06
6.57032e-07
1.43198e-06
2.17391e-07
7.33485e-08
7.59906e-08
1.18923e-06
7.40787e-08
7.58087e-08
1.86848e-07
3.28193e-08
1.8674e-07
3.29803e-08
1.47061e-08
1.4764e-08
1.78755e-07
3.25898e-08
1.7739e-07
3.2572e-08
1.3631e-06
1.36887e-06
1.36332e-06
1.37199e-06
1.36524e-06
1.37577e-06
1.38054e-06
6.164e-07
2.11471e-07
1.42695e-06
1.25539e-06
6.16137e-07
2.08788e-07
1.43112e-06
1.46097e-08
1.45371e-08
6.46943e-07
1.43346e-06
2.15094e-07
1.26114e-06
6.47916e-07
1.43642e-06
2.14384e-07
7.38722e-08
7.4877e-08
1.19005e-06
7.36812e-08
7.50865e-08
1.87762e-07
3.29582e-08
1.87977e-07
3.30569e-08
1.48447e-08
1.47781e-08
1.76985e-07
3.22633e-08
1.77254e-07
3.20639e-08
1.37072e-06
1.37063e-06
1.37414e-06
1.37422e-06
1.36714e-06
1.3794e-06
1.37921e-06
6.18951e-07
2.07111e-07
1.42609e-06
1.24769e-06
6.11906e-07
2.07704e-07
1.42819e-06
1.44707e-08
1.4471e-08
6.40811e-07
1.43725e-06
2.13775e-07
1.27008e-06
6.43408e-07
1.4393e-06
2.13458e-07
7.29824e-08
7.43925e-08
1.19493e-06
7.25547e-08
7.44173e-08
1.87896e-07
3.29584e-08
1.88699e-07
3.2923e-08
1.47413e-08
1.46839e-08
1.74044e-07
3.16821e-08
1.75207e-07
3.16911e-08
1.35665e-06
1.37418e-06
1.36768e-06
1.3831e-06
1.38078e-06
1.37389e-06
1.36987e-06
6.10209e-07
2.0728e-07
1.43159e-06
1.24755e-06
6.16887e-07
2.09253e-07
1.43124e-06
1.44885e-08
1.45593e-08
6.46841e-07
1.43286e-06
2.12757e-07
1.26446e-06
6.41886e-07
1.43279e-06
2.13984e-07
7.1311e-08
7.44582e-08
1.19001e-06
7.1774e-08
7.50881e-08
1.87534e-07
3.277e-08
1.87892e-07
3.28675e-08
1.45959e-08
1.46356e-08
1.73534e-07
3.1687e-08
1.72102e-07
3.1754e-08
1.37264e-06
1.36377e-06
1.36785e-06
1.37079e-06
1.37838e-06
1.37515e-06
1.36976e-06
6.1165e-07
2.07464e-07
1.42602e-06
1.24657e-06
6.1049e-07
2.07106e-07
1.42441e-06
1.45324e-08
1.45888e-08
6.50565e-07
1.43521e-06
2.11672e-07
1.26492e-06
6.43126e-07
1.43241e-06
2.10436e-07
7.17063e-08
7.43969e-08
1.19214e-06
7.23166e-08
7.46177e-08
1.87474e-07
3.2679e-08
1.87335e-07
3.27499e-08
1.45227e-08
1.44024e-08
1.7675e-07
3.14434e-08
1.75663e-07
3.14292e-08
1.37249e-06
1.36546e-06
1.37173e-06
1.37308e-06
1.38606e-06
1.36804e-06
1.38769e-06
6.26874e-07
2.07972e-07
1.43319e-06
1.24768e-06
6.22132e-07
2.08594e-07
1.43708e-06
1.46433e-08
1.4718e-08
6.41671e-07
1.43499e-06
2.09942e-07
1.26023e-06
6.4605e-07
1.43292e-06
2.10985e-07
7.26106e-08
7.37453e-08
1.19517e-06
7.26803e-08
7.38096e-08
1.86847e-07
3.24252e-08
1.85909e-07
3.27598e-08
1.43283e-08
1.43664e-08
1.76528e-07
3.11938e-08
1.76335e-07
3.1239e-08
1.37897e-06
1.36116e-06
1.37399e-06
1.37536e-06
1.38593e-06
1.36892e-06
1.38197e-06
6.21254e-07
2.07769e-07
1.43393e-06
1.24484e-06
6.2044e-07
2.07516e-07
1.42631e-06
1.46247e-08
1.46657e-08
6.43825e-07
1.43246e-06
2.11229e-07
1.26145e-06
6.36035e-07
1.43386e-06
2.11118e-07
7.30909e-08
7.30591e-08
1.19809e-06
7.32245e-08
7.41223e-08
1.86831e-07
3.248e-08
1.8497e-07
3.23982e-08
1.43578e-08
1.43625e-08
1.77284e-07
3.14155e-08
1.76611e-07
3.17856e-08
1.36691e-06
1.36026e-06
1.37288e-06
1.3708e-06
1.38467e-06
1.36973e-06
1.37706e-06
6.16942e-07
2.04386e-07
1.42921e-06
1.2461e-06
6.18259e-07
2.04432e-07
1.43022e-06
1.47301e-08
1.46361e-08
6.47635e-07
1.4346e-06
2.10501e-07
1.26104e-06
6.53774e-07
1.434e-06
2.09808e-07
7.21413e-08
7.33395e-08
1.19379e-06
7.26635e-08
7.39165e-08
1.86562e-07
3.20775e-08
1.86012e-07
3.19633e-08
1.43122e-08
1.43701e-08
1.7641e-07
3.15481e-08
1.75483e-07
3.14445e-08
1.36903e-06
1.37193e-06
1.37661e-06
1.37364e-06
1.37905e-06
1.3795e-06
1.39043e-06
6.21334e-07
2.05034e-07
1.4311e-06
1.2517e-06
6.17136e-07
2.06566e-07
1.43123e-06
1.45487e-08
1.45491e-08
6.50437e-07
1.43698e-06
2.09601e-07
1.2675e-06
6.48266e-07
1.43737e-06
2.09585e-07
7.21468e-08
7.3378e-08
1.18896e-06
7.28864e-08
7.33668e-08
1.88048e-07
3.20612e-08
1.86395e-07
3.26124e-08
1.46392e-08
1.47688e-08
1.74547e-07
3.12363e-08
1.74776e-07
3.12524e-08
1.38201e-06
1.3757e-06
1.37619e-06
1.36645e-06
1.3819e-06
1.38283e-06
1.3857e-06
6.21498e-07
2.04342e-07
1.43711e-06
1.24862e-06
6.19332e-07
2.06924e-07
1.43525e-06
1.45431e-08
1.45571e-08
6.55197e-07
1.4398e-06
2.096e-07
1.2602e-06
6.52364e-07
1.44184e-06
2.10228e-07
7.28949e-08
7.31658e-08
1.20221e-06
7.29971e-08
7.33558e-08
1.87374e-07
3.28619e-08
1.8646e-07
3.29908e-08
1.50378e-08
1.50991e-08
1.74726e-07
3.1391e-08
1.73414e-07
3.14682e-08
1.37271e-06
1.36713e-06
1.36973e-06
1.38236e-06
1.37563e-06
1.37311e-06
1.3722e-06
6.24573e-07
2.08927e-07
1.43767e-06
1.24593e-06
6.18308e-07
2.09982e-07
1.43885e-06
1.45484e-08
1.45124e-08
6.52045e-07
1.43955e-06
2.12454e-07
1.26027e-06
6.47367e-07
1.43862e-06
2.13246e-07
7.18729e-08
7.34817e-08
1.19034e-06
7.23847e-08
7.38391e-08
1.87377e-07
3.27224e-08
1.86337e-07
3.28746e-08
1.50268e-08
1.50535e-08
1.7378e-07
3.16085e-08
1.73007e-07
3.15108e-08
1.36514e-06
1.36426e-06
1.36527e-06
1.36617e-06
1.37772e-06
1.37669e-06
1.37024e-06
6.19764e-07
2.07022e-07
1.43379e-06
1.25115e-06
6.13363e-07
2.06256e-07
1.43914e-06
1.44448e-08
1.44778e-08
6.47866e-07
1.44362e-06
2.13403e-07
1.25997e-06
6.49751e-07
1.44483e-06
2.14399e-07
7.2257e-08
7.37514e-08
1.19962e-06
7.26697e-08
7.36773e-08
1.86223e-07
3.26265e-08
1.85173e-07
3.26555e-08
1.50295e-08
1.50339e-08
1.73308e-07
3.15363e-08
1.73388e-07
3.19224e-08
1.37833e-06
1.37136e-06
1.36312e-06
1.37091e-06
1.3917e-06
1.36643e-06
1.3708e-06
6.08466e-07
2.04969e-07
1.43856e-06
1.24295e-06
6.17725e-07
2.05483e-07
1.43382e-06
1.44413e-08
1.44671e-08
6.42927e-07
1.43961e-06
2.12372e-07
1.26567e-06
6.40749e-07
1.43985e-06
2.13169e-07
7.20972e-08
7.40377e-08
1.18727e-06
7.24469e-08
7.39638e-08
1.87349e-07
3.24601e-08
1.84088e-07
3.24398e-08
1.49839e-08
1.49851e-08
1.72193e-07
3.15579e-08
1.7343e-07
3.16028e-08
1.37009e-06
1.35923e-06
1.36261e-06
1.3605e-06
1.38114e-06
1.36692e-06
1.37546e-06
6.15614e-07
2.06412e-07
1.44169e-06
1.2446e-06
6.09353e-07
2.05611e-07
1.43892e-06
1.45481e-08
1.45719e-08
6.45719e-07
1.43957e-06
2.12488e-07
1.26416e-06
6.3407e-07
1.43812e-06
2.13577e-07
7.22067e-08
7.32882e-08
1.19459e-06
7.26065e-08
7.36233e-08
1.85334e-07
3.24798e-08
1.88233e-07
3.25582e-08
1.49702e-08
1.49759e-08
1.71182e-07
3.1425e-08
1.69351e-07
3.15089e-08
1.38158e-06
1.36142e-06
1.36907e-06
1.35509e-06
1.37489e-06
1.363e-06
1.37073e-06
6.26092e-07
2.04218e-07
1.44209e-06
1.24549e-06
6.23014e-07
2.04174e-07
1.43455e-06
1.4533e-08
1.45774e-08
6.35327e-07
1.43946e-06
2.11941e-07
1.26018e-06
6.38839e-07
1.43922e-06
2.1037e-07
7.29215e-08
7.37272e-08
1.19601e-06
7.31353e-08
7.39178e-08
1.48144e-08
3.15896e-08
1.77217e-07
1.36804e-06
1.36134e-06
1.37374e-06
2.12319e-07
1.43109e-06
6.47244e-07
1.45388e-08
1.43862e-06
2.11326e-07
6.34595e-07
7.48457e-08
7.35286e-08
7.56356e-08
7.77584e-08
1.22813e-06
7.89845e-08
7.76863e-08
1.48651e-08
1.49153e-08
1.4926e-08
1.50456e-08
1.24061e-06
7.59701e-08
7.71897e-08
8.00122e-08
7.90685e-08
1.47883e-08
1.51983e-08
6.73561e-07
1.43753e-06
2.19168e-07
1.26317e-06
2.17122e-07
6.72289e-07
1.4378e-06
1.93303e-07
3.36342e-08
3.3457e-08
1.94835e-07
1.93995e-07
3.23724e-08
3.25503e-08
1.94449e-07
6.89351e-07
1.26689e-06
1.43415e-06
2.18003e-07
2.27204e-07
6.69526e-07
1.44037e-06
6.92114e-07
1.2592e-06
1.43124e-06
2.18565e-07
2.22966e-07
6.55133e-07
1.43037e-06
1.97936e-07
3.33909e-08
3.42425e-08
1.91344e-07
1.98723e-07
3.25065e-08
3.30467e-08
1.89239e-07
1.45211e-08
1.45209e-08
1.44937e-08
1.45922e-08
1.21321e-06
7.55073e-08
7.87369e-08
8.00761e-08
7.55169e-08
1.4584e-08
1.47067e-08
1.46415e-08
1.4797e-08
1.46751e-08
1.47434e-08
1.46646e-08
1.47329e-08
7.62921e-08
7.44063e-08
1.20678e-06
7.62346e-08
7.50745e-08
1.47059e-08
1.48552e-08
1.45804e-08
1.49919e-08
1.21175e-06
7.74109e-08
7.47414e-08
7.97029e-08
7.73779e-08
1.86486e-07
3.24394e-08
3.26649e-08
1.88529e-07
6.64756e-07
2.16277e-07
1.43289e-06
1.25559e-06
2.16995e-07
1.43127e-06
6.55693e-07
6.53082e-07
2.17073e-07
1.43743e-06
1.2524e-06
2.16327e-07
1.43065e-06
6.56685e-07
1.92543e-07
3.33036e-08
3.34641e-08
1.93749e-07
1.93712e-07
3.29484e-08
3.34883e-08
1.86353e-07
6.82573e-07
1.25481e-06
2.18746e-07
1.43172e-06
2.23841e-07
1.43017e-06
6.6337e-07
6.63336e-07
1.25523e-06
2.19513e-07
1.43119e-06
2.2221e-07
1.4302e-06
6.50515e-07
7.49566e-08
7.68732e-08
1.20446e-06
7.52547e-08
7.62007e-08
1.47785e-08
1.4704e-08
1.47469e-08
1.47657e-08
1.21375e-06
7.67502e-08
7.63934e-08
7.8558e-08
7.91402e-08
1.48582e-08
1.49153e-08
6.33803e-07
2.16808e-07
1.41252e-06
1.24267e-06
2.13913e-07
1.41677e-06
6.40392e-07
1.78425e-07
3.33921e-08
3.30485e-08
1.78668e-07
6.28595e-07
1.41087e-06
2.18495e-07
1.23501e-06
1.41028e-06
2.15706e-07
6.33445e-07
1.85662e-07
3.27316e-08
3.35447e-08
1.78281e-07
6.61942e-07
1.24461e-06
2.11815e-07
1.41518e-06
2.19524e-07
1.41435e-06
6.23139e-07
1.84327e-07
3.28986e-08
3.39211e-08
1.77871e-07
6.36865e-07
1.23712e-06
1.41525e-06
2.15392e-07
1.41784e-06
2.20906e-07
6.23907e-07
1.79153e-07
3.23393e-08
3.21854e-08
1.80256e-07
6.25263e-07
1.42781e-06
2.13248e-07
1.24046e-06
1.42633e-06
2.11513e-07
6.32295e-07
1.80815e-07
3.28865e-08
3.26565e-08
1.79579e-07
6.40887e-07
1.24427e-06
2.12766e-07
1.43096e-06
2.18082e-07
1.42747e-06
6.16088e-07
1.8523e-07
3.2288e-08
3.31034e-08
1.76649e-07
6.37793e-07
1.2438e-06
1.42831e-06
2.12947e-07
1.43091e-06
2.16157e-07
6.20631e-07
1.84471e-07
3.26379e-08
3.28723e-08
1.78387e-07
7.78902e-08
7.9274e-08
1.20722e-06
7.61303e-08
7.73999e-08
1.49705e-08
1.47279e-08
1.4701e-08
1.50125e-08
1.2153e-06
7.47133e-08
7.68628e-08
7.98745e-08
8.14906e-08
1.48859e-08
1.48822e-08
6.57535e-07
1.43005e-06
2.22679e-07
1.26404e-06
6.64496e-07
1.43648e-06
2.17002e-07
1.89e-07
3.40139e-08
1.96321e-07
3.31506e-08
1.88503e-07
3.30818e-08
1.92967e-07
3.22469e-08
6.61398e-07
1.25808e-06
1.42956e-06
2.17734e-07
1.43627e-06
2.22686e-07
6.5194e-07
6.69069e-07
1.266e-06
1.43028e-06
2.16955e-07
1.43119e-06
2.22041e-07
6.55153e-07
1.94948e-07
3.32363e-08
3.39856e-08
1.88362e-07
1.93934e-07
3.2267e-08
3.29202e-08
1.88713e-07
1.47317e-08
1.4567e-08
1.49319e-08
1.45761e-08
1.19455e-06
7.64447e-08
7.73746e-08
7.54953e-08
7.78109e-08
1.45987e-08
1.47463e-08
1.45115e-08
1.46295e-08
1.50308e-08
1.48041e-08
1.48049e-08
1.45965e-08
8.06118e-08
7.59738e-08
1.19929e-06
7.80051e-08
7.42e-08
1.4801e-08
1.51018e-08
1.44206e-08
1.44954e-08
1.21638e-06
7.76853e-08
7.33322e-08
8.06364e-08
7.55127e-08
1.84264e-07
3.35296e-08
1.86714e-07
3.32744e-08
6.56972e-07
2.23548e-07
1.43764e-06
1.26023e-06
6.64267e-07
2.19828e-07
1.43239e-06
6.45204e-07
2.24465e-07
1.43306e-06
1.25654e-06
6.49186e-07
2.20555e-07
1.43807e-06
1.92945e-07
3.37787e-08
3.3521e-08
1.94542e-07
1.91152e-07
3.34311e-08
3.38281e-08
1.85368e-07
6.68942e-07
1.25888e-06
2.20283e-07
1.43363e-06
2.23773e-07
1.43348e-06
6.53731e-07
6.54156e-07
1.25751e-06
2.21422e-07
1.43294e-06
2.25096e-07
1.43209e-06
6.509e-07
7.95779e-08
7.87135e-08
1.20114e-06
7.69164e-08
7.57937e-08
1.47588e-08
1.45035e-08
1.50861e-08
1.51025e-08
1.2125e-06
7.746e-08
7.57372e-08
8.02242e-08
7.81772e-08
1.45156e-08
1.46777e-08
6.2454e-07
2.1522e-07
1.41665e-06
1.24059e-06
6.30628e-07
2.11282e-07
1.41917e-06
1.77119e-07
3.36719e-08
1.83388e-07
3.26793e-08
6.20058e-07
1.41521e-06
2.1929e-07
1.23867e-06
6.33511e-07
1.41702e-06
2.17896e-07
1.8317e-07
3.24286e-08
3.35464e-08
1.79664e-07
6.34564e-07
1.24663e-06
2.10663e-07
1.41812e-06
2.17139e-07
1.42334e-06
6.28984e-07
1.81385e-07
3.24545e-08
3.35848e-08
1.77769e-07
6.47e-07
1.24509e-06
1.41854e-06
2.09753e-07
1.42303e-06
2.14015e-07
6.21228e-07
1.76272e-07
3.31177e-08
1.83048e-07
3.1977e-08
6.16155e-07
1.42657e-06
2.16875e-07
1.2418e-06
6.31963e-07
1.42683e-06
2.11251e-07
1.76749e-07
3.35576e-08
1.83524e-07
3.24784e-08
6.33876e-07
1.25091e-06
2.13436e-07
1.42575e-06
2.13316e-07
1.42393e-06
6.12554e-07
1.81652e-07
3.16715e-08
3.20791e-08
1.75888e-07
6.31611e-07
1.2484e-06
1.42792e-06
2.0976e-07
1.43243e-06
2.14635e-07
6.17761e-07
1.82159e-07
3.24441e-08
3.33293e-08
1.77073e-07
7.5514e-08
7.95795e-08
1.20705e-06
7.42678e-08
7.66257e-08
1.51518e-08
1.48349e-08
1.46971e-08
1.48587e-08
1.22763e-06
7.43538e-08
7.57843e-08
7.88613e-08
7.75308e-08
1.46191e-08
1.49749e-08
6.54951e-07
1.42903e-06
2.22258e-07
1.25793e-06
6.7141e-07
1.4337e-06
2.16711e-07
1.86435e-07
3.33988e-08
1.93995e-07
3.30185e-08
1.88859e-07
3.31286e-08
1.93568e-07
3.21341e-08
6.68816e-07
1.26412e-06
1.43399e-06
2.20306e-07
1.43171e-06
2.17004e-07
6.57989e-07
6.67401e-07
1.26344e-06
1.4315e-06
2.15868e-07
1.42917e-06
2.20461e-07
6.47986e-07
1.89994e-07
3.29644e-08
3.31343e-08
1.87093e-07
1.93096e-07
3.23716e-08
3.32923e-08
1.86294e-07
1.48145e-08
1.45042e-08
1.45617e-08
1.44852e-08
1.19608e-06
7.38736e-08
7.54463e-08
7.76294e-08
7.80932e-08
1.45073e-08
1.46274e-08
1.46174e-08
1.48095e-08
1.50034e-08
1.47613e-08
1.44346e-08
1.42683e-08
8.02278e-08
7.72726e-08
1.19596e-06
7.69584e-08
7.26218e-08
1.48127e-08
1.49896e-08
1.41991e-08
1.45306e-08
1.2052e-06
7.66157e-08
7.26198e-08
7.86403e-08
7.42584e-08
1.87356e-07
3.36735e-08
1.90035e-07
3.32202e-08
6.62088e-07
2.24063e-07
1.43997e-06
1.26202e-06
6.67295e-07
2.19431e-07
1.43724e-06
6.57124e-07
2.255e-07
1.43334e-06
1.26026e-06
6.68979e-07
2.19227e-07
1.43487e-06
1.93128e-07
3.34958e-08
3.40576e-08
1.91105e-07
1.92622e-07
3.32272e-08
3.40496e-08
1.89386e-07
6.68685e-07
1.25679e-06
2.19059e-07
1.44221e-06
2.23468e-07
1.43784e-06
6.60081e-07
6.67613e-07
1.26227e-06
2.2013e-07
1.44325e-06
2.24461e-07
1.43484e-06
6.53854e-07
8.10727e-08
7.84267e-08
1.20236e-06
7.6715e-08
7.60448e-08
1.47781e-08
1.45348e-08
1.48413e-08
1.51405e-08
1.2128e-06
7.77332e-08
7.64907e-08
7.94101e-08
7.88777e-08
1.46541e-08
1.46829e-08
6.22091e-07
2.15722e-07
1.42038e-06
1.24946e-06
6.40796e-07
2.13726e-07
1.42115e-06
1.76948e-07
3.29763e-08
1.82663e-07
3.25972e-08
6.15478e-07
1.42145e-06
2.14136e-07
1.2399e-06
6.46547e-07
1.42289e-06
2.11279e-07
1.82018e-07
3.19454e-08
3.27893e-08
1.77228e-07
6.35122e-07
1.24759e-06
2.0733e-07
1.43076e-06
2.09688e-07
1.42375e-06
6.14926e-07
1.82361e-07
3.23696e-08
3.34039e-08
1.76462e-07
6.22473e-07
1.24542e-06
1.42811e-06
2.13683e-07
1.42213e-06
2.14723e-07
6.17147e-07
1.76129e-07
3.24203e-08
1.80905e-07
3.16712e-08
6.1814e-07
1.43227e-06
2.15324e-07
1.24275e-06
6.45463e-07
1.43515e-06
2.07197e-07
1.76824e-07
3.31799e-08
1.81705e-07
3.21708e-08
6.26496e-07
1.25285e-06
2.08513e-07
1.43055e-06
2.14594e-07
1.42908e-06
6.26123e-07
1.8119e-07
3.17607e-08
3.26018e-08
1.74923e-07
6.43467e-07
1.24776e-06
1.43434e-06
2.06176e-07
1.4282e-06
2.13869e-07
6.13574e-07
1.81486e-07
3.19418e-08
3.3127e-08
1.75493e-07
7.58147e-08
7.73688e-08
1.21226e-06
7.48747e-08
7.54331e-08
1.48716e-08
1.45466e-08
1.44932e-08
1.4776e-08
1.21634e-06
7.46089e-08
7.56799e-08
7.62006e-08
7.84339e-08
1.44131e-08
1.46308e-08
6.48761e-07
1.4326e-06
2.21232e-07
1.26431e-06
6.54742e-07
1.42567e-06
2.15322e-07
1.85909e-07
3.31123e-08
1.9258e-07
3.26385e-08
1.86021e-07
3.27722e-08
1.89701e-07
3.23931e-08
6.48915e-07
1.26995e-06
1.43364e-06
2.2091e-07
1.43364e-06
2.21461e-07
6.46798e-07
6.63953e-07
1.2579e-06
1.42713e-06
2.16853e-07
1.42651e-06
2.21187e-07
6.40209e-07
1.91721e-07
3.2447e-08
3.34673e-08
1.84803e-07
1.89647e-07
3.24378e-08
3.33256e-08
1.83242e-07
1.45646e-08
1.43263e-08
1.47851e-08
1.44165e-08
1.2069e-06
7.38805e-08
7.50151e-08
7.39123e-08
7.5516e-08
1.41624e-08
1.43914e-08
1.45349e-08
1.47002e-08
1.49133e-08
1.4637e-08
1.44774e-08
1.42035e-08
7.96431e-08
7.53551e-08
1.19735e-06
7.58577e-08
7.30785e-08
1.46523e-08
1.49149e-08
1.42968e-08
1.45395e-08
1.21707e-06
7.61849e-08
7.34494e-08
7.97255e-08
7.52482e-08
1.88618e-07
3.37107e-08
1.93235e-07
3.29253e-08
6.56289e-07
2.23814e-07
1.43621e-06
1.25782e-06
6.85082e-07
2.16855e-07
1.43755e-06
6.53235e-07
2.2399e-07
1.43913e-06
1.26158e-06
6.76316e-07
2.18327e-07
1.44364e-06
1.91348e-07
3.35316e-08
3.32772e-08
1.94728e-07
1.93997e-07
3.26726e-08
3.31799e-08
1.8821e-07
6.7673e-07
1.26352e-06
2.18478e-07
1.43615e-06
2.23727e-07
1.43645e-06
6.54353e-07
6.77517e-07
1.2597e-06
2.17677e-07
1.44253e-06
2.23794e-07
1.43736e-06
6.56074e-07
8.02096e-08
7.92631e-08
1.20722e-06
7.69662e-08
7.61718e-08
1.46113e-08
1.45788e-08
1.46901e-08
1.49963e-08
1.2069e-06
7.69637e-08
7.62196e-08
7.91974e-08
7.91587e-08
1.46801e-08
1.48094e-08
6.17263e-07
2.13043e-07
1.4261e-06
1.24301e-06
6.24033e-07
2.05713e-07
1.42596e-06
1.7639e-07
3.3068e-08
1.82493e-07
3.25617e-08
6.13634e-07
1.43494e-06
2.15829e-07
1.2462e-06
6.36265e-07
1.43003e-06
2.17233e-07
1.77162e-07
3.24601e-08
3.2176e-08
1.73848e-07
6.3955e-07
1.24493e-06
2.05398e-07
1.4257e-06
2.0801e-07
1.42431e-06
6.1197e-07
1.76179e-07
3.2643e-08
3.33873e-08
1.72044e-07
6.33737e-07
1.24433e-06
1.42875e-06
2.11434e-07
1.42842e-06
2.11542e-07
6.07947e-07
1.73632e-07
3.2612e-08
1.80192e-07
3.18296e-08
6.13218e-07
1.43065e-06
2.12099e-07
1.24657e-06
6.38146e-07
1.43259e-06
2.04709e-07
1.74055e-07
3.29498e-08
1.81553e-07
3.16436e-08
6.21449e-07
1.24755e-06
2.14196e-07
1.42571e-06
2.14262e-07
1.43227e-06
6.13201e-07
1.75696e-07
3.1771e-08
3.22848e-08
1.72611e-07
6.28715e-07
1.2393e-06
1.43274e-06
2.04748e-07
1.42467e-06
2.11858e-07
6.0588e-07
1.74003e-07
3.16223e-08
3.24496e-08
1.7113e-07
7.90287e-08
7.86341e-08
1.20883e-06
7.46546e-08
7.62081e-08
1.46565e-08
1.46012e-08
1.47574e-08
1.4833e-08
1.22635e-06
7.43968e-08
7.68818e-08
7.52446e-08
7.97197e-08
1.45317e-08
1.47609e-08
6.42622e-07
1.43402e-06
2.2228e-07
1.25772e-06
6.53505e-07
1.43353e-06
2.17462e-07
1.83586e-07
3.33339e-08
1.90914e-07
3.2494e-08
1.82044e-07
3.29598e-08
1.91424e-07
3.28853e-08
6.67746e-07
1.26436e-06
1.43944e-06
2.18825e-07
1.43262e-06
2.19686e-07
6.56229e-07
6.56771e-07
1.25808e-06
1.44182e-06
2.17585e-07
1.44002e-06
2.22833e-07
6.44749e-07
1.90244e-07
3.19561e-08
3.28224e-08
1.85058e-07
1.89089e-07
3.26318e-08
3.30556e-08
1.84318e-07
1.43992e-08
1.41392e-08
1.47093e-08
1.45387e-08
1.19857e-06
7.21861e-08
7.67045e-08
7.33492e-08
7.80406e-08
1.40647e-08
1.42781e-08
1.45816e-08
1.4906e-08
1.4957e-08
1.46525e-08
1.4504e-08
1.43438e-08
7.89177e-08
7.77891e-08
1.20447e-06
7.67923e-08
7.34785e-08
1.46587e-08
1.47959e-08
1.43867e-08
1.47162e-08
1.20344e-06
7.66077e-08
7.33951e-08
7.88193e-08
7.72729e-08
1.85274e-07
3.30814e-08
1.93307e-07
3.26901e-08
6.55415e-07
2.23845e-07
1.44251e-06
1.25599e-06
6.62141e-07
2.18443e-07
1.43845e-06
6.49666e-07
2.22345e-07
1.43539e-06
1.25691e-06
6.73493e-07
2.1706e-07
1.43472e-06
1.94303e-07
3.32045e-08
3.32442e-08
1.89644e-07
1.89268e-07
3.2401e-08
3.28489e-08
1.8653e-07
6.77784e-07
1.25794e-06
2.19526e-07
1.43743e-06
2.22937e-07
1.43704e-06
6.54733e-07
6.52695e-07
1.25977e-06
2.16013e-07
1.44113e-06
2.23171e-07
1.436e-06
6.47148e-07
7.95249e-08
7.887e-08
1.19834e-06
7.65059e-08
7.56741e-08
1.49415e-08
1.45166e-08
1.47132e-08
1.48121e-08
1.20842e-06
7.68428e-08
7.52518e-08
7.93508e-08
8.03416e-08
1.45234e-08
1.4587e-08
6.14329e-07
2.08671e-07
1.42542e-06
1.2482e-06
6.21982e-07
2.10601e-07
1.42535e-06
1.71783e-07
3.35466e-08
1.79286e-07
3.27721e-08
6.12536e-07
1.43052e-06
2.16503e-07
1.24358e-06
6.25181e-07
1.43073e-06
2.10613e-07
1.79868e-07
3.23614e-08
3.27445e-08
1.77357e-07
6.26634e-07
1.24735e-06
2.0418e-07
1.42453e-06
2.09809e-07
1.42412e-06
6.20097e-07
1.76971e-07
3.28166e-08
3.36228e-08
1.75279e-07
6.19398e-07
1.24168e-06
1.43169e-06
2.12246e-07
1.42431e-06
2.14354e-07
6.18799e-07
1.72848e-07
3.24322e-08
1.76361e-07
3.19357e-08
6.09242e-07
1.4287e-06
2.10849e-07
1.23769e-06
6.32793e-07
1.42748e-06
2.06729e-07
1.73545e-07
3.21717e-08
1.77908e-07
3.136e-08
6.47711e-07
1.25019e-06
2.10017e-07
1.42939e-06
2.14022e-07
1.42906e-06
6.25832e-07
1.80131e-07