/*--------------------------------*- C++ -*----------------------------------*\
| =========                 |                                                 |
| \\      /  F ield         | OpenFOAM: The Open Source CFD Toolbox           |
|  \\    /   O peration     | Version:  2206                                  |
|   \\  /    A nd           | Website:  www.openfoam.com                      |
|    \\/     M anipulation  |                                                 |
\*---------------------------------------------------------------------------*/
FoamFile
{
    version     2.0;
    format      ascii;
    arch        "LSB;label=32;scalar=64";
    class       volVectorField;
    location    "26";
    object      wallShearStress;
}
// * * * * * * * * * * * * * * * * * * * * * * * * * * * * * * * * * * * * * //

dimensions      [0 2 -2 0 0 0 0];

internalField   uniform (0 0 0);

boundaryField
{
    topPatch
    {
        type            calculated;
        value           nonuniform List<vector> 0();
    }
    wall
    {
        type            calculated;
        value           nonuniform List<vector> 
7718
(
(9.06497e-09 -3.00065e-08 -0.000167734)
(-1.22207e-08 7.14512e-09 -0.000168168)
(-3.83236e-09 -2.7782e-08 -0.000156725)
(-8.07155e-09 7.66223e-09 -0.000156765)
(-6.46324e-09 8.76941e-09 -0.000167759)
(-1.84145e-08 -2.24941e-08 -0.000168194)
(-9.92467e-09 4.32671e-09 -0.000161974)
(-7.06886e-09 -3.99141e-09 -0.000163913)
(-1.01635e-08 -1.59225e-08 -0.00016198)
(-8.37708e-09 -7.83543e-09 -0.000163911)
(3.78985e-08 -2.92537e-08 -0.00016777)
(6.47533e-09 -2.69583e-08 -0.000167713)
(1.05345e-08 -1.4164e-08 -0.00015674)
(-3.18906e-09 -2.6873e-08 -0.00015671)
(-7.3265e-09 9.11714e-09 -0.000156757)
(-8.63645e-09 8.65071e-09 -0.000167749)
(2.10236e-08 -1.56378e-08 -0.00016803)
(1.8219e-08 -2.71543e-08 -0.000162246)
(-6.48598e-09 -1.15235e-09 -0.000163895)
(-1.01803e-08 5.67979e-09 -0.000161956)
(1.24827e-08 -1.32383e-08 -0.000164174)
(1.81432e-08 -1.04801e-09 -0.000157062)
(1.29326e-08 1.52197e-08 -0.000162251)
(-9.15647e-09 -7.38311e-09 -0.000163895)
(-1.09639e-08 -1.63681e-08 -0.000161968)
(1.27314e-08 2.48693e-10 -0.000164172)
(8.33736e-09 -1.72696e-08 -0.000157093)
(1.04208e-08 -5.64917e-09 -0.000168066)
(8.32635e-09 -1.23212e-08 -0.000157875)
(1.81467e-08 -9.57957e-09 -0.000167887)
(2.11347e-08 -3.66665e-08 -0.000168115)
(4.65562e-08 -4.41344e-08 -0.000157663)
(4.47935e-08 -1.31315e-08 -0.000158014)
(2.66116e-08 -4.43621e-08 -0.000168068)
(1.28556e-09 -2.47478e-08 -0.000157639)
(3.80487e-08 -2.07141e-08 -0.000157972)
(5.87425e-08 -2.94107e-08 -0.00016845)
(3.11785e-08 -1.30367e-08 -0.000168406)
(2.07776e-08 -2.58487e-08 -0.000168531)
(-1.23689e-08 5.64581e-09 -0.00016815)
(1.64044e-08 8.1977e-09 -0.000168559)
(-1.73417e-08 -1.86312e-08 -0.000168185)
(1.89082e-08 2.45429e-09 -0.000158002)
(9.47681e-09 -9.29601e-09 -0.000168448)
(2.52423e-08 2.14695e-09 -0.000168433)
(-8.07044e-09 2.17972e-09 -0.000167737)
(2.29863e-09 -2.21879e-08 -0.000168047)
(-6.23844e-09 -1.21434e-08 -0.000156375)
(2.08155e-08 7.74894e-09 -0.000156799)
(2.20636e-08 -4.55941e-09 -0.000167546)
(-1.7738e-08 7.11682e-09 -0.000167902)
(-4.76164e-09 -2.04867e-08 -0.000156582)
(1.06869e-08 1.21736e-08 -0.000157033)
(-6.16018e-09 1.39299e-08 -0.000167596)
(8.40209e-09 -1.5906e-08 -0.000167996)
(-1.8559e-08 -7.29349e-09 -0.000156487)
(1.38362e-08 1.01979e-08 -0.000156866)
(9.52397e-09 -9.70762e-09 -0.000167592)
(-1.87152e-08 5.89858e-09 -0.000167941)
(-1.12018e-08 -7.86206e-09 -0.000156779)
(1.0842e-08 1.45137e-08 -0.000157119)
(-1.00659e-08 8.77791e-09 -0.000167776)
(8.19887e-09 -1.5619e-08 -0.000168082)
(-1.34959e-08 -7.34872e-09 -0.000156485)
(1.80187e-08 5.71408e-09 -0.00015686)
(1.34642e-08 -5.22736e-09 -0.000167596)
(-1.35192e-08 7.81613e-09 -0.000167942)
(-1.05877e-08 -1.60963e-08 -0.000156739)
(1.15947e-08 8.69361e-09 -0.000157077)
(-5.25845e-09 1.69707e-08 -0.000167755)
(1.21002e-08 -7.1811e-09 -0.00016806)
(-1.32032e-08 -7.21427e-09 -0.000156469)
(2.01432e-08 9.93371e-09 -0.000156839)
(1.64701e-08 -4.29235e-09 -0.000167582)
(-1.41955e-08 1.00106e-08 -0.000167918)
(-7.33529e-09 -1.17525e-08 -0.000156722)
(1.26001e-08 1.18567e-08 -0.000157061)
(-6.82844e-09 1.26056e-08 -0.000167737)
(1.30088e-08 -9.00289e-09 -0.000168053)
(-1.36478e-08 -5.99434e-09 -0.000156447)
(1.6795e-08 7.99147e-09 -0.000156817)
(1.27036e-08 -6.09687e-09 -0.00016755)
(-1.241e-08 9.34848e-09 -0.000167886)
(-6.28752e-09 -1.61695e-08 -0.000156706)
(1.30713e-08 8.77947e-09 -0.000157041)
(-6.97043e-09 1.47318e-08 -0.000167735)
(1.34176e-08 -1.21879e-08 -0.000168041)
(-1.95728e-08 -6.44579e-09 -0.000156432)
(1.40241e-08 1.20161e-08 -0.000156813)
(1.54701e-08 -6.99358e-09 -0.000167523)
(-1.5271e-08 9.12428e-09 -0.000167861)
(-6.3442e-09 -1.91678e-08 -0.000156694)
(1.22382e-08 5.20145e-09 -0.000157031)
(-9.11572e-09 1.06452e-08 -0.000167723)
(8.02533e-09 -1.41746e-08 -0.000168028)
(-1.55147e-08 -1.20997e-08 -0.000156428)
(2.03737e-08 5.39621e-09 -0.000156811)
(1.15187e-08 -8.07562e-09 -0.000167515)
(-1.53779e-08 7.84855e-09 -0.000167878)
(-8.90854e-09 -1.04953e-08 -0.000156687)
(6.49173e-09 1.11852e-08 -0.000157031)
(-6.74436e-09 9.77836e-09 -0.00016773)
(6.14127e-09 -1.18865e-08 -0.000168045)
(-1.58703e-08 -1.13907e-08 -0.000156433)
(1.77063e-08 7.78238e-09 -0.000156802)
(1.6397e-08 -7.7547e-09 -0.000167537)
(-1.18258e-08 1.03794e-08 -0.000167876)
(-1.13849e-08 -1.26918e-08 -0.000156704)
(8.58133e-09 1.2511e-08 -0.000157048)
(-6.69241e-09 1.54515e-08 -0.00016774)
(1.14957e-08 -5.9838e-09 -0.000168047)
(-1.39352e-08 -7.77908e-09 -0.000156422)
(1.94991e-08 1.03912e-08 -0.000156807)
(1.40083e-08 -5.69264e-09 -0.000167528)
(-1.15828e-08 1.07407e-08 -0.000167888)
(-7.90894e-09 -1.15199e-08 -0.000156699)
(1.18597e-08 9.82899e-09 -0.000157042)
(-5.83332e-09 1.38652e-08 -0.000167725)
(1.0626e-08 -1.11866e-08 -0.00016804)
(-1.54271e-08 -6.81561e-09 -0.000156454)
(1.68105e-08 1.13727e-08 -0.000156839)
(1.95248e-08 -2.14896e-09 -0.000167575)
(-8.85053e-09 1.33329e-08 -0.000167926)
(-7.34209e-09 -1.07969e-08 -0.000156707)
(1.34722e-08 1.20863e-08 -0.000157056)
(-5.78038e-09 1.31192e-08 -0.000167737)
(1.06176e-08 -1.49645e-08 -0.000168056)
(-1.51201e-08 -6.77032e-09 -0.000156457)
(1.78857e-08 7.55241e-09 -0.00015683)
(1.52092e-08 -4.36491e-09 -0.000167574)
(-1.4716e-08 7.45844e-09 -0.000167919)
(-7.96007e-09 -1.34882e-08 -0.000156706)
(1.14156e-08 9.88418e-09 -0.000157045)
(-8.58472e-09 1.09066e-08 -0.000167723)
(1.03077e-08 -1.39317e-08 -0.000168033)
(-1.4303e-08 -9.73666e-09 -0.000156461)
(1.64026e-08 9.09209e-09 -0.000156838)
(1.72162e-08 -5.77846e-09 -0.000167587)
(-1.244e-08 1.04749e-08 -0.000167937)
(-1.10311e-08 -1.0008e-08 -0.000156712)
(1.08153e-08 1.0654e-08 -0.00015706)
(-7.77025e-09 1.35056e-08 -0.000167729)
(1.03668e-08 -1.13581e-08 -0.000168044)
(-1.84847e-08 -8.11474e-09 -0.00015645)
(1.39808e-08 9.21909e-09 -0.000156833)
(1.08895e-08 -8.88749e-09 -0.000167584)
(-1.56755e-08 6.64854e-09 -0.000167933)
(-9.51837e-09 -1.15332e-08 -0.000156717)
(9.60417e-09 1.23101e-08 -0.000157071)
(-5.50888e-09 1.40935e-08 -0.000167731)
(8.84174e-09 -9.64934e-09 -0.000168047)
(-1.75972e-08 -1.10431e-08 -0.000156462)
(1.69079e-08 1.10215e-08 -0.000156881)
(1.67479e-08 -7.12586e-09 -0.000167594)
(-8.64798e-09 1.23488e-08 -0.000167986)
(-9.90112e-09 -1.16457e-08 -0.00015674)
(8.52617e-09 1.32607e-08 -0.000157096)
(-7.94643e-09 1.33766e-08 -0.000167749)
(9.7851e-09 -1.05069e-08 -0.000168081)
(-1.98386e-08 -8.46076e-09 -0.000156466)
(-1.67252e-09 1.8582e-08 -0.000156893)
(2.12779e-08 -3.84781e-09 -0.000167593)
(4.60198e-09 1.89296e-08 -0.000167989)
(-8.78331e-09 -5.90029e-09 -0.000156743)
(1.19234e-08 1.25556e-08 -0.000157077)
(-6.91384e-09 1.22069e-08 -0.000167764)
(1.15834e-08 -1.19771e-08 -0.000168079)
(1.62158e-08 -8.2039e-09 -0.000167614)
(-9.20605e-09 -1.60104e-08 -0.000156718)
(-8.1937e-09 1.0756e-08 -0.000167752)
(-3.54012e-08 -8.41506e-09 -0.000167557)
(-1.04423e-08 -2.16182e-08 -0.000167872)
(9.24413e-09 -2.83969e-09 -0.000167888)
(-1.2762e-08 1.06495e-08 -0.000167702)
(2.33165e-08 -9.15927e-10 -0.000167795)
(-2.80465e-08 2.40337e-09 -0.00016751)
(-4.24974e-08 -3.34097e-09 -0.000156465)
(-1.1372e-09 -1.70409e-08 -0.000156795)
(2.73493e-08 1.67671e-09 -0.000156466)
(4.31579e-09 -1.8331e-08 -0.000156797)
(3.00677e-08 -4.50695e-10 -0.000156736)
(-3.05135e-08 4.29738e-09 -0.000156398)
(-4.18236e-09 -1.22427e-08 -0.000156795)
(4.03642e-08 -1.45554e-09 -0.000156427)
(1.72892e-09 1.1901e-08 -0.000167736)
(-3.2596e-09 -2.16507e-08 -0.000168039)
(1.8933e-08 1.88227e-09 -0.000167553)
(6.84216e-09 -2.03329e-08 -0.000167871)
(-1.1273e-08 -4.63837e-09 -0.000168028)
(1.36882e-08 1.07535e-09 -0.000167734)
(-3.57362e-09 -1.03314e-08 -0.000167869)
(3.66037e-08 -5.66594e-09 -0.000167537)
(-2.9141e-09 -1.17698e-08 -0.000167472)
(1.42329e-08 7.21373e-09 -0.000167861)
(-2.74027e-09 -2.17024e-08 -0.000167597)
(9.72477e-09 1.29499e-08 -0.000167999)
(8.26691e-09 9.70448e-09 -0.00016792)
(-1.31567e-08 -6.93182e-09 -0.000167549)
(6.3846e-09 1.44006e-08 -0.000168068)
(-8.71817e-09 -8.20776e-09 -0.000167717)
(2.59412e-08 -3.42741e-09 -0.000156438)
(-2.11565e-08 5.80712e-09 -0.000156823)
(1.52011e-08 1.03447e-08 -0.00015685)
(-1.64854e-08 -9.1014e-09 -0.000156443)
(-2.90784e-08 3.58746e-09 -0.000156845)
(1.02907e-08 -1.30813e-08 -0.000156458)
(9.68888e-09 -9.16931e-09 -0.000167747)
(-4.2457e-09 1.65932e-08 -0.000168046)
(-1.98986e-08 4.19678e-09 -0.000167924)
(1.06102e-08 -1.15196e-08 -0.000167563)
(-9.51886e-09 9.08278e-09 -0.000168045)
(1.15871e-08 -7.82152e-09 -0.000167743)
(-8.1894e-09 1.50723e-08 -0.000156592)
(1.02498e-08 -1.4521e-08 -0.00015703)
(9.64301e-09 1.91603e-08 -0.000157111)
(-9.3017e-09 -1.10263e-08 -0.00015672)
(7.30207e-09 -1.61892e-08 -0.000157111)
(-9.53995e-09 1.03727e-08 -0.000156727)
(8.87034e-09 -1.41099e-08 -0.000156745)
(-7.96706e-09 1.43997e-08 -0.000157081)
(8.1056e-09 1.52908e-08 -0.000156753)
(-1.07156e-08 -9.3818e-09 -0.000157088)
(-7.99825e-09 1.2777e-08 -0.000157079)
(1.15193e-08 -1.0853e-08 -0.000156742)
(-8.38297e-09 -1.16247e-08 -0.000157087)
(1.03379e-08 1.55293e-08 -0.000156756)
(-7.99577e-09 1.21879e-08 -0.00016746)
(1.52511e-08 -8.12248e-09 -0.000167869)
(9.12688e-09 -1.30512e-08 -0.000168071)
(-1.02451e-08 6.53682e-09 -0.000167718)
(7.03326e-09 -1.02681e-08 -0.000167921)
(-1.8505e-08 6.34638e-09 -0.000167551)
(-7.71751e-09 1.32295e-08 -0.000156369)
(1.94371e-08 -8.29075e-09 -0.000156814)
(3.06563e-08 4.67835e-09 -0.000156424)
(-1.4837e-08 -1.1093e-08 -0.000156822)
(1.42896e-08 -1.01319e-08 -0.000156861)
(-1.88775e-08 1.00561e-08 -0.000156456)
(-2.52882e-08 -5.46324e-09 -0.000156831)
(1.87927e-08 1.10268e-08 -0.00015645)
(6.12348e-09 1.48802e-08 -0.000167731)
(-8.11634e-09 -9.37356e-09 -0.000168038)
(2.49026e-08 1.95827e-09 -0.000167538)
(-1.26413e-08 -7.17771e-09 -0.000167897)
(-1.00027e-08 -6.65995e-09 -0.000168032)
(8.95046e-09 1.06607e-08 -0.000167731)
(-1.54496e-08 -4.08097e-09 -0.000167905)
(1.74587e-08 5.53e-09 -0.000167563)
(-1.46656e-08 -6.25823e-09 -0.000167595)
(7.64033e-09 1.25555e-08 -0.000167938)
(-1.06711e-08 -3.52468e-09 -0.000167768)
(7.32827e-09 1.15295e-08 -0.000168068)
(1.6074e-08 7.59113e-09 -0.000167924)
(-1.80604e-08 -5.87022e-09 -0.000167601)
(6.36215e-09 9.02193e-09 -0.000168035)
(-7.36142e-09 -1.04055e-08 -0.000167753)
(7.52101e-09 -1.33673e-08 -0.000156476)
(-2.17995e-08 9.21092e-09 -0.000156863)
(2.01017e-08 6.98194e-09 -0.000156853)
(-1.84033e-08 -7.29015e-09 -0.000156489)
(-1.92071e-08 8.47244e-09 -0.000156846)
(1.38112e-08 -1.08046e-08 -0.000156489)
(8.51479e-09 -1.00201e-08 -0.000167744)
(-8.57261e-09 1.49771e-08 -0.00016805)
(-1.50824e-08 6.04667e-09 -0.000167927)
(8.35128e-09 -9.27473e-09 -0.000167607)
(-1.18998e-08 5.87602e-09 -0.000168044)
(7.42222e-09 -1.35135e-08 -0.000167744)
(-9.38818e-09 1.19867e-08 -0.000156784)
(8.28356e-09 -1.6966e-08 -0.000157125)
(1.11037e-08 1.23361e-08 -0.000157089)
(-1.04281e-08 -1.21747e-08 -0.000156764)
(8.10357e-09 -1.07317e-08 -0.000157095)
(-9.9549e-09 9.28694e-09 -0.000156785)
(8.16411e-09 -1.3484e-08 -0.000156745)
(-9.72751e-09 1.41468e-08 -0.000157087)
(7.97788e-09 1.5569e-08 -0.000156754)
(-9.83558e-09 -1.33127e-08 -0.000157093)
(-7.98148e-09 1.1732e-08 -0.000157066)
(1.04575e-08 -1.1509e-08 -0.000156744)
(-8.02738e-09 -1.39969e-08 -0.000157073)
(1.05648e-08 1.15391e-08 -0.000156752)
(-1.82391e-08 3.38155e-09 -0.000167593)
(1.67111e-08 -6.03959e-09 -0.000167937)
(1.06709e-08 -8.27194e-09 -0.000168056)
(-8.94838e-09 9.80337e-09 -0.000167775)
(1.57304e-08 -5.32495e-09 -0.000167913)
(-1.25514e-08 6.90566e-09 -0.000167603)
(-2.14954e-08 5.66849e-09 -0.000156496)
(1.80402e-08 -1.10281e-08 -0.000156883)
(1.23167e-08 1.14839e-08 -0.000156461)
(-2.77628e-08 -8.19998e-09 -0.000156847)
(2.20031e-08 -5.52661e-09 -0.000156852)
(-1.67888e-08 8.62244e-09 -0.000156501)
(-2.41643e-08 -6.52612e-09 -0.000156833)
(9.26133e-09 1.31282e-08 -0.000156467)
(5.72876e-09 1.34496e-08 -0.000167726)
(-8.63528e-09 -1.37339e-08 -0.000168032)
(1.04004e-08 6.28737e-09 -0.000167577)
(-2.38334e-08 -6.42828e-10 -0.000167916)
(-7.37788e-09 -1.09766e-08 -0.000168011)
(9.1528e-09 9.14547e-09 -0.000167717)
(-1.62964e-08 -5.04329e-09 -0.000167903)
(7.14555e-09 8.62304e-09 -0.000167578)
(-9.69646e-09 -9.87305e-09 -0.000167587)
(1.7689e-08 6.98652e-09 -0.000167929)
(-5.03175e-09 -1.31818e-08 -0.000167734)
(9.05711e-09 7.32845e-09 -0.000168036)
(1.82779e-08 6.26378e-09 -0.000167901)
(-1.08013e-08 -1.13264e-08 -0.000167586)
(1.05401e-08 7.61471e-09 -0.000168022)
(-6.4712e-09 -1.51376e-08 -0.000167726)
(1.99631e-08 -7.68921e-09 -0.000156474)
(-1.40043e-08 1.18141e-08 -0.000156863)
(2.27189e-08 6.48861e-09 -0.00015684)
(-1.33819e-08 -1.1492e-08 -0.000156481)
(-1.71271e-08 9.34211e-09 -0.000156838)
(2.25386e-08 -9.03485e-09 -0.000156483)
(7.54617e-09 -1.29131e-08 -0.000167743)
(-1.01733e-08 1.2028e-08 -0.000168065)
(-1.0792e-08 8.9987e-09 -0.000167918)
(1.77284e-08 -5.36056e-09 -0.000167603)
(-1.15119e-08 9.18692e-09 -0.000168048)
(1.09369e-08 -1.21892e-08 -0.000167757)
(-6.69162e-09 1.7446e-08 -0.00015676)
(1.0546e-08 -1.03035e-08 -0.000157099)
(9.23778e-09 1.39987e-08 -0.000157053)
(-9.4423e-09 -1.59413e-08 -0.000156728)
(8.22322e-09 -1.4841e-08 -0.000157075)
(-9.48363e-09 1.44639e-08 -0.000156762)
(8.47264e-09 -1.39782e-08 -0.000156734)
(-9.48762e-09 1.13467e-08 -0.000157087)
(9.75799e-09 1.60715e-08 -0.000156738)
(-1.2002e-08 -1.19048e-08 -0.000157085)
(-7.56291e-09 1.50357e-08 -0.000157064)
(1.02903e-08 -1.37244e-08 -0.000156748)
(-9.33199e-09 -1.56519e-08 -0.000157065)
(1.10226e-08 1.6015e-08 -0.000156745)
(-1.04746e-08 8.21439e-09 -0.000167576)
(2.16507e-08 -3.62741e-09 -0.000167912)
(1.04745e-08 -7.65881e-09 -0.000168037)
(-6.04852e-09 1.66486e-08 -0.000167753)
(1.99087e-08 -4.03876e-09 -0.000167881)
(-9.50499e-09 1.20597e-08 -0.000167571)
(-1.51767e-08 9.30348e-09 -0.000156475)
(2.16105e-08 -8.19241e-09 -0.000156857)
(1.64715e-08 8.88706e-09 -0.000156461)
(-1.65931e-08 -8.54367e-09 -0.00015685)
(2.70565e-08 -4.89281e-09 -0.000156824)
(-1.35707e-08 1.29209e-08 -0.000156474)
(-1.62606e-08 -7.94463e-09 -0.000156832)
(1.80735e-08 1.03068e-08 -0.000156475)
(6.93926e-09 1.12344e-08 -0.000167712)
(-5.7272e-09 -1.41394e-08 -0.000168023)
(1.40253e-08 5.60828e-09 -0.000167576)
(-1.35955e-08 -7.75726e-09 -0.000167926)
(-7.00166e-09 -9.7245e-09 -0.000168004)
(9.37206e-09 8.38132e-09 -0.000167718)
(-8.14772e-09 -1.08596e-08 -0.000167907)
(1.96198e-08 5.71592e-09 -0.000167583)
(-7.68713e-09 -8.94449e-09 -0.000167569)
(1.76409e-08 6.93296e-09 -0.000167902)
(-6.48355e-09 -1.17321e-08 -0.000167718)
(1.04011e-08 1.14682e-08 -0.000168033)
(1.54397e-08 8.14937e-09 -0.000167879)
(-8.99092e-09 -9.99377e-09 -0.000167561)
(9.86779e-09 7.20374e-09 -0.000168011)
(-8.21093e-09 -9.52167e-09 -0.00016772)
(1.96298e-08 -7.21833e-09 -0.00015646)
(-1.43968e-08 1.34284e-08 -0.000156837)
(1.92346e-08 8.81265e-09 -0.000156814)
(-1.40817e-08 -8.36571e-09 -0.00015646)
(-1.7331e-08 1.08926e-08 -0.000156808)
(1.87749e-08 -6.72902e-09 -0.000156456)
(7.25124e-09 -1.24971e-08 -0.000167746)
(-1.21891e-08 1.1725e-08 -0.000168057)
(-1.65346e-08 5.99776e-09 -0.000167889)
(1.3083e-08 -6.7905e-09 -0.000167578)
(-1.40631e-08 5.14496e-09 -0.000168029)
(5.74288e-09 -1.56401e-08 -0.000167742)
(-8.07931e-09 1.30459e-08 -0.000156742)
(1.27721e-08 -1.05566e-08 -0.000157088)
(1.33603e-08 9.872e-09 -0.000157044)
(-8.543e-09 -1.16065e-08 -0.000156715)
(9.81227e-09 -9.81165e-09 -0.000157071)
(-5.90355e-09 1.69004e-08 -0.000156758)
(7.40827e-09 -1.34066e-08 -0.000156734)
(-1.23838e-08 1.19835e-08 -0.000157077)
(9.91763e-09 1.22346e-08 -0.000156729)
(-1.32448e-08 -1.66747e-08 -0.000157067)
(-1.15617e-08 9.13233e-09 -0.000157051)
(9.08768e-09 -1.30519e-08 -0.000156731)
(-1.23131e-08 -1.01864e-08 -0.000157038)
(9.42711e-09 1.17703e-08 -0.000156725)
(-6.68876e-09 9.6341e-09 -0.000167546)
(1.86691e-08 -7.61283e-09 -0.000167897)
(1.24495e-08 -7.05889e-09 -0.000168038)
(-5.7213e-09 1.54899e-08 -0.000167748)
(1.52892e-08 -6.58365e-09 -0.00016788)
(-1.33161e-08 6.99094e-09 -0.000167557)
(-1.01828e-08 1.02078e-08 -0.00015645)
(2.24405e-08 -1.02316e-08 -0.000156837)
(2.34275e-08 5.78584e-09 -0.00015646)
(-1.72268e-08 -1.26113e-08 -0.000156838)
(1.95237e-08 -9.1589e-09 -0.000156807)
(-1.5268e-08 9.16951e-09 -0.000156453)
(-1.7059e-08 -1.07929e-08 -0.000156812)
(1.83569e-08 7.59585e-09 -0.000156455)
(7.0184e-09 9.25612e-09 -0.000167704)
(-6.74098e-09 -1.62603e-08 -0.000168008)
(2.27978e-08 1.55038e-09 -0.000167572)
(-1.58273e-08 -8.67713e-09 -0.00016791)
(-1.14226e-08 -6.8892e-09 -0.000167989)
(8.12415e-09 7.96609e-09 -0.0001677)
(-1.57631e-08 -6.62287e-09 -0.000167886)
(1.61606e-08 4.81384e-09 -0.000167564)
(-8.31045e-09 -9.5267e-09 -0.000167543)
(1.33378e-08 1.00026e-08 -0.000167882)
(-5.67414e-09 -9.17981e-09 -0.000167709)
(1.01021e-08 4.37767e-09 -0.000168004)
(8.73643e-09 1.00284e-08 -0.000167868)
(-1.78702e-08 -7.45705e-09 -0.000167544)
(9.87136e-09 4.82353e-09 -0.000167991)
(-4.24631e-09 -1.71705e-08 -0.000167696)
(1.88377e-08 -6.49197e-09 -0.000156426)
(-1.63195e-08 1.04853e-08 -0.000156806)
(1.33179e-08 8.9976e-09 -0.000156802)
(-1.83543e-08 -8.21458e-09 -0.000156438)
(-1.46868e-08 9.89105e-09 -0.000156783)
(1.71595e-08 -9.642e-09 -0.000156425)
(5.70844e-09 -1.38058e-08 -0.000167722)
(-1.44306e-08 4.63167e-09 -0.000168021)
(-1.29369e-08 7.99476e-09 -0.000167861)
(1.68935e-08 -6.81696e-09 -0.000167541)
(-1.32175e-08 3.54537e-09 -0.000167998)
(5.18359e-09 -1.95551e-08 -0.000167715)
(-6.33892e-09 1.58867e-08 -0.000156739)
(1.06424e-08 -1.0127e-08 -0.000157078)
(1.23364e-08 6.04208e-09 -0.000157027)
(-7.78366e-09 -1.78603e-08 -0.000156693)
(7.11052e-09 -1.27354e-08 -0.000157061)
(-6.65793e-09 1.37258e-08 -0.000156744)
(4.17335e-09 -1.85333e-08 -0.000156716)
(-1.3452e-08 5.36014e-09 -0.000157055)
(5.52362e-09 1.84282e-08 -0.000156705)
(-1.18481e-08 -1.21097e-08 -0.000157043)
(-1.00462e-08 7.46499e-09 -0.000157033)
(6.15347e-09 -2.08841e-08 -0.000156716)
(-1.05864e-08 -1.09317e-08 -0.000157031)
(1.02777e-08 1.36697e-08 -0.000156704)
(-9.67356e-09 6.01512e-09 -0.000167548)
(1.61025e-08 -5.7938e-09 -0.000167884)
(8.88427e-09 -9.82254e-09 -0.000168023)
(-7.21156e-09 1.44835e-08 -0.000167735)
(1.35805e-08 -5.87273e-09 -0.000167863)
(-1.61461e-08 6.07531e-09 -0.000167549)
(-1.85597e-08 6.14727e-09 -0.000156433)
(1.80755e-08 -1.23685e-08 -0.000156815)
(2.17397e-08 5.6667e-09 -0.000156437)
(-2.00265e-08 -1.04535e-08 -0.000156809)
(1.8465e-08 -7.66617e-09 -0.000156787)
(-1.88533e-08 9.25753e-09 -0.00015643)
(-1.7861e-08 -5.70337e-09 -0.00015678)
(1.32755e-08 1.03637e-08 -0.000156431)
(4.5943e-09 1.37711e-08 -0.000167685)
(-1.05589e-08 -8.50697e-09 -0.000167992)
(1.34392e-08 4.87505e-09 -0.000167551)
(-1.71565e-08 -6.43024e-09 -0.000167878)
(-8.17301e-09 -5.45182e-09 -0.000167979)
(5.81528e-09 1.4826e-08 -0.000167682)
(-1.37873e-08 -7.05458e-09 -0.000167855)
(1.48118e-08 7.48748e-09 -0.000167534)
(-1.60394e-08 -5.32344e-09 -0.000167532)
(1.04677e-08 8.44575e-09 -0.000167868)
(-6.68952e-09 -1.31505e-08 -0.000167689)
(1.21367e-08 7.31802e-09 -0.000167992)
(1.21774e-08 5.70945e-09 -0.000167853)
(-1.49567e-08 -5.16965e-09 -0.000167533)
(1.01116e-08 1.0463e-08 -0.000167977)
(-8.09842e-09 -1.45124e-08 -0.000167684)
(2.119e-08 -7.70841e-09 -0.000156407)
(-1.60612e-08 1.08548e-08 -0.000156791)
(1.91227e-08 8.85759e-09 -0.0001568)
(-2.00915e-08 -8.84138e-09 -0.00015643)
(-2.37035e-08 5.03063e-09 -0.000156779)
(1.57764e-08 -9.5001e-09 -0.000156418)
(5.54706e-09 -1.61244e-08 -0.000167696)
(-9.72523e-09 1.3255e-08 -0.000168012)
(-1.97734e-08 5.42257e-09 -0.00016785)
(1.00757e-08 -1.00886e-08 -0.000167528)
(-1.14187e-08 6.79814e-09 -0.000167997)
(5.8236e-09 -1.40381e-08 -0.000167708)
(-8.22398e-09 1.50924e-08 -0.000156729)
(1.23372e-08 -1.04044e-08 -0.000157069)
(9.18026e-09 1.3057e-08 -0.00015702)
(-7.43108e-09 -1.75874e-08 -0.000156688)
(8.87586e-09 -1.4771e-08 -0.000157062)
(-8.66197e-09 1.64493e-08 -0.000156734)
(7.61533e-09 -1.71214e-08 -0.0001567)
(-1.35458e-08 8.62416e-09 -0.000157052)
(9.53472e-09 1.78969e-08 -0.000156695)
(-1.5601e-08 -8.26108e-09 -0.000157042)
(-1.01432e-08 9.65159e-09 -0.000157031)
(7.18481e-09 -1.78565e-08 -0.000156709)
(-1.10522e-08 -1.06477e-08 -0.000157027)
(1.05635e-08 1.87191e-08 -0.000156699)
(-1.18255e-08 7.99903e-09 -0.00016753)
(1.71013e-08 -7.37946e-09 -0.000167871)
(7.8091e-09 -1.17924e-08 -0.000168023)
(-8.1865e-09 9.73228e-09 -0.00016773)
(1.37326e-08 -7.87925e-09 -0.000167862)
(-1.47748e-08 6.97495e-09 -0.000167535)
(-2.01974e-08 7.43534e-09 -0.000156416)
(1.71079e-08 -1.10574e-08 -0.000156799)
(1.97952e-08 7.27164e-09 -0.00015641)
(-1.70867e-08 -8.46785e-09 -0.000156791)
(2.06907e-08 -5.91825e-09 -0.000156785)
(-1.77724e-08 8.73161e-09 -0.000156421)
(-1.8369e-08 -5.88022e-09 -0.000156777)
(1.75502e-08 8.20744e-09 -0.000156417)
(5.21162e-09 1.29358e-08 -0.000167682)
(-7.36996e-09 -9.55672e-09 -0.000167988)
(1.76065e-08 5.88672e-09 -0.000167518)
(-2.01602e-08 -7.33908e-09 -0.000167866)
(-8.1382e-09 -7.00081e-09 -0.000167973)
(6.79134e-09 1.08008e-08 -0.000167684)
(-1.27985e-08 -7.61287e-09 -0.000167856)
(1.26623e-08 7.77924e-09 -0.000167526)
(-1.24932e-08 -7.13054e-09 -0.000167526)
(1.41452e-08 5.24831e-09 -0.000167869)
(-8.72838e-09 -9.01252e-09 -0.000167678)
(1.06917e-08 5.41425e-09 -0.000167995)
(1.3999e-08 3.81806e-09 -0.000167863)
(-1.30673e-08 -1.03404e-08 -0.000167535)
(8.90767e-09 6.24274e-09 -0.000167998)
(-9.35581e-09 -1.5711e-08 -0.000167686)
(1.03537e-08 -1.01391e-08 -0.000156408)
(-1.94988e-08 6.49956e-09 -0.000156801)
(1.92277e-08 4.90544e-09 -0.000156803)
(-1.42311e-08 -1.31916e-08 -0.000156433)
(-1.96854e-08 4.03973e-09 -0.000156794)
(1.31743e-08 -1.18413e-08 -0.00015643)
(6.83931e-09 -1.19696e-08 -0.000167698)
(-8.03949e-09 1.25807e-08 -0.000168013)
(-1.29077e-08 6.80455e-09 -0.000167871)
(1.49654e-08 -9.01321e-09 -0.000167539)
(-7.39499e-09 9.24334e-09 -0.000168003)
(9.70236e-09 -1.16499e-08 -0.000167714)
(-1.08963e-08 1.17398e-08 -0.00015673)
(8.71908e-09 -1.38243e-08 -0.000157087)
(6.49497e-09 1.3518e-08 -0.000157033)
(-1.24807e-08 -1.26522e-08 -0.000156692)
(7.84514e-09 -8.06844e-09 -0.000157074)
(-1.27954e-08 1.10436e-08 -0.000156749)
(7.66125e-09 -1.67993e-08 -0.0001567)
(-9.8332e-09 1.09837e-08 -0.000157054)
(9.74379e-09 1.66846e-08 -0.000156696)
(-8.55881e-09 -1.40462e-08 -0.000157047)
(-5.32928e-09 1.48481e-08 -0.000157038)
(1.03527e-08 -1.46729e-08 -0.000156715)
(-4.85476e-09 -1.46857e-08 -0.000157039)
(1.25683e-08 1.22464e-08 -0.000156711)
(-1.41224e-08 7.67022e-09 -0.00016753)
(1.80864e-08 -6.3799e-09 -0.000167886)
(9.43623e-09 -7.93034e-09 -0.000168038)
(-1.01406e-08 1.08791e-08 -0.000167745)
(1.38135e-08 -6.52719e-09 -0.000167882)
(-1.56557e-08 9.74903e-09 -0.00016755)
(-1.66635e-08 8.66565e-09 -0.000156415)
(1.90433e-08 -6.8047e-09 -0.00015681)
(2.01436e-08 8.58931e-09 -0.000156408)
(-2.04198e-08 -6.49658e-09 -0.000156796)
(1.90004e-08 -3.73806e-09 -0.0001568)
(-1.67669e-08 1.12498e-08 -0.000156433)
(-1.57458e-08 -5.50053e-09 -0.000156791)
(1.54047e-08 1.24134e-08 -0.000156423)
(5.93109e-09 1.27388e-08 -0.000167678)
(-6.45316e-09 -1.26161e-08 -0.000167993)
(1.68826e-08 5.37983e-09 -0.000167525)
(-1.80866e-08 -3.75254e-09 -0.000167869)
(-8.05626e-09 -7.85045e-09 -0.000167994)
(8.5913e-09 1.10963e-08 -0.000167691)
(-1.31462e-08 -5.9272e-09 -0.000167869)
(1.25377e-08 9.66006e-09 -0.000167534)
(-1.08066e-08 -9.32097e-09 -0.000167535)
(1.20816e-08 6.92188e-09 -0.000167869)
(-7.35342e-09 -1.47314e-08 -0.000167696)
(8.30818e-09 1.08191e-08 -0.000168012)
(1.57198e-08 5.57728e-09 -0.000167857)
(-1.3896e-08 -8.49643e-09 -0.00016753)
(7.14295e-09 1.3559e-08 -0.000167998)
(-1.05658e-08 -9.53171e-09 -0.000167703)
(1.71247e-08 -1.06459e-08 -0.000156422)
(-1.33059e-08 1.01637e-08 -0.000156801)
(2.19239e-08 7.35944e-09 -0.00015679)
(-1.41539e-08 -1.13496e-08 -0.000156422)
(-1.94502e-08 7.99072e-09 -0.000156782)
(1.91583e-08 -7.56191e-09 -0.000156427)
(9.57737e-09 -9.62609e-09 -0.000167704)
(-6.55783e-09 1.37434e-08 -0.000168017)
(-1.4694e-08 7.38186e-09 -0.000167861)
(1.36732e-08 -7.96276e-09 -0.000167538)
(-1.06771e-08 7.53505e-09 -0.000168006)
(6.67344e-09 -1.43657e-08 -0.000167715)
(-7.53294e-09 1.96205e-08 -0.000156743)
(1.13656e-08 -7.11215e-09 -0.000157084)
(9.28101e-09 1.46144e-08 -0.000157039)
(-1.12337e-08 -1.14329e-08 -0.000156704)
(1.09722e-08 -9.58197e-09 -0.00015707)
(-8.37088e-09 1.90991e-08 -0.000156747)
(1.18222e-08 -1.22288e-08 -0.000156706)
(-1.00446e-08 1.63773e-08 -0.000157052)
(1.19618e-08 1.25709e-08 -0.000156708)
(-9.00908e-09 -1.48144e-08 -0.000157057)
(-1.05033e-08 1.40778e-08 -0.000157037)
(1.1125e-08 -1.20011e-08 -0.000156708)
(-9.12524e-09 -1.31809e-08 -0.000157043)
(1.09914e-08 1.10733e-08 -0.000156719)
(-1.584e-08 7.81642e-09 -0.000167547)
(1.24667e-08 -9.30783e-09 -0.000167893)
(1.01259e-08 -7.32446e-09 -0.000168028)
(-5.87162e-09 1.68269e-08 -0.000167741)
(9.36003e-09 -1.08356e-08 -0.000167867)
(-2.02868e-08 6.19539e-09 -0.000167556)
(-1.90194e-08 9.41272e-09 -0.000156431)
(1.31674e-08 -1.05214e-08 -0.000156817)
(2.16177e-08 8.8855e-09 -0.00015642)
(-1.46305e-08 -1.03463e-08 -0.000156806)
(1.4304e-08 -8.93989e-09 -0.000156793)
(-2.27121e-08 8.25232e-09 -0.000156439)
(-1.45581e-08 -1.10467e-08 -0.000156793)
(2.19388e-08 7.73352e-09 -0.000156426)
(6.73013e-09 1.38219e-08 -0.000167693)
(-8.72302e-09 -1.0423e-08 -0.000168013)
(1.80287e-08 4.95001e-09 -0.000167538)
(-1.17574e-08 -8.96558e-09 -0.000167881)
(-1.02317e-08 -8.71228e-09 -0.000167998)
(7.51838e-09 1.29478e-08 -0.000167701)
(-8.3786e-09 -1.04304e-08 -0.00016786)
(1.93046e-08 4.01467e-09 -0.000167542)
(-8.25824e-09 -7.84311e-09 -0.00016753)
(9.95615e-09 9.67463e-09 -0.000167878)
(-9.78535e-09 -5.7849e-09 -0.000167691)
(1.09772e-08 1.03506e-08 -0.000168003)
(1.07418e-08 1.02199e-08 -0.000167896)
(-1.82969e-08 -4.17209e-09 -0.000167547)
(1.06072e-08 1.02306e-08 -0.000168001)
(-6.73808e-09 -1.44704e-08 -0.000167695)
(1.69807e-08 -7.10651e-09 -0.000156412)
(-1.80055e-08 1.08507e-08 -0.000156806)
(1.89096e-08 9.81358e-09 -0.000156819)
(-1.54881e-08 -9.55607e-09 -0.000156428)
(-1.7366e-08 1.0317e-08 -0.000156815)
(1.38979e-08 -9.02339e-09 -0.000156436)
(5.77303e-09 -1.12396e-08 -0.000167708)
(-9.13265e-09 1.33364e-08 -0.000168021)
(-7.85834e-09 1.20458e-08 -0.000167899)
(1.67272e-08 -4.79931e-09 -0.000167551)
(-1.11078e-08 1.02196e-08 -0.000168024)
(8.67352e-09 -7.95336e-09 -0.000167723)
(-7.11732e-09 1.76634e-08 -0.000156733)
(1.24894e-08 -9.01967e-09 -0.000157083)
(1.05699e-08 1.43031e-08 -0.000157039)
(-7.91309e-09 -1.61224e-08 -0.000156697)
(9.03471e-09 -1.3653e-08 -0.000157077)
(-6.97642e-09 1.79067e-08 -0.000156747)
(7.69639e-09 -1.39995e-08 -0.000156703)
(-1.26037e-08 1.53912e-08 -0.000157056)
(6.64657e-09 1.57515e-08 -0.000156712)
(-1.17022e-08 -1.34371e-08 -0.000157057)
(-1.03003e-08 1.47943e-08 -0.000157053)
(9.02437e-09 -1.25928e-08 -0.000156718)
(-9.36793e-09 -1.41908e-08 -0.000157049)
(6.92514e-09 1.26335e-08 -0.000156724)
(-1.53715e-08 4.83438e-09 -0.000167536)
(1.59477e-08 -8.74582e-09 -0.000167884)
(1.13786e-08 -9.26861e-09 -0.000168037)
(-7.28156e-09 1.32478e-08 -0.000167734)
(1.25546e-08 -1.02233e-08 -0.000167889)
(-1.60043e-08 5.9755e-09 -0.00016755)
(-2.14632e-08 5.50265e-09 -0.000156422)
(1.7351e-08 -1.12911e-08 -0.000156814)
(2.55747e-08 5.32414e-09 -0.000156419)
(-1.49713e-08 -1.45177e-08 -0.000156814)
(1.89297e-08 -9.85988e-09 -0.000156814)
(-1.80881e-08 8.215e-09 -0.000156434)
(-1.85746e-08 -1.03422e-08 -0.000156817)
(2.07001e-08 7.83685e-09 -0.000156437)
(5.70565e-09 1.20055e-08 -0.000167698)
(-8.6812e-09 -1.53427e-08 -0.000168012)
(2.11911e-08 1.06632e-09 -0.00016753)
(-1.1219e-08 -9.25812e-09 -0.000167875)
(-9.79718e-09 -1.09487e-08 -0.000168004)
(8.76065e-09 7.39132e-09 -0.000167703)
(-1.01598e-08 -9.24072e-09 -0.000167873)
(2.03192e-08 1.75728e-09 -0.000167538)
(-1.31077e-08 -5.4787e-09 -0.00016757)
(1.3084e-08 1.08438e-08 -0.000167921)
(-7.92438e-09 -8.04493e-09 -0.000167701)
(1.13351e-08 9.91444e-09 -0.00016802)
(1.30633e-08 8.21788e-09 -0.000167901)
(-1.58487e-08 -6.33594e-09 -0.000167584)
(1.05504e-08 6.46759e-09 -0.000168005)
(-6.063e-09 -1.2712e-08 -0.000167712)
(1.94922e-08 -6.19156e-09 -0.000156454)
(-1.38095e-08 1.39082e-08 -0.00015685)
(1.83538e-08 8.03436e-09 -0.000156825)
(-1.68937e-08 -6.7797e-09 -0.000156465)
(-1.96561e-08 8.57737e-09 -0.000156839)
(1.70867e-08 -7.64761e-09 -0.000156481)
(6.56494e-09 -1.02054e-08 -0.000167726)
(-1.14263e-08 1.19995e-08 -0.000168044)
(-1.11465e-08 8.15126e-09 -0.000167906)
(1.53048e-08 -6.28235e-09 -0.000167592)
(-1.34332e-08 6.15212e-09 -0.000168016)
(6.39074e-09 -1.59132e-08 -0.000167729)
(-7.13007e-09 1.20631e-08 -0.000156749)
(1.13119e-08 -1.41732e-08 -0.000157096)
(1.16505e-08 1.17224e-08 -0.000157039)
(-7.86626e-09 -1.17093e-08 -0.000156713)
(7.95272e-09 -1.43166e-08 -0.000157066)
(-8.26436e-09 1.02613e-08 -0.000156759)
(6.64632e-09 -1.34484e-08 -0.000156725)
(-1.2963e-08 8.86645e-09 -0.000157077)
(6.28749e-09 1.56187e-08 -0.000156722)
(-1.38864e-08 -1.13918e-08 -0.000157059)
(-8.68165e-09 1.11945e-08 -0.00015705)