/*--------------------------------*- C++ -*----------------------------------*\
| =========                 |                                                 |
| \\      /  F ield         | OpenFOAM: The Open Source CFD Toolbox           |
|  \\    /   O peration     | Version:  2206                                  |
|   \\  /    A nd           | Website:  www.openfoam.com                      |
|    \\/     M anipulation  |                                                 |
\*---------------------------------------------------------------------------*/
FoamFile
{
    version     2.0;
    format      ascii;
    arch        "LSB;label=32;scalar=64";
    class       volScalarField;
    location    "120";
    object      omega;
}
// * * * * * * * * * * * * * * * * * * * * * * * * * * * * * * * * * * * * * //

dimensions      [0 0 -1 0 0 0 0];

internalField   nonuniform List<scalar> 
66940
(
21.5155
35.565
34.4983
38.5237
21.6738
35.5253
34.8153
39.2136
21.8044
35.5795
34.6578
39.3273
21.928
35.839
35.0096
39.4929
21.9284
35.9932
34.8797
39.0941
22.038
36.2298
34.8436
39.5348
22.1177
35.898
34.7727
39.5972
22.0571
36.0287
34.9709
39.8924
22.0599
36.1221
35.1267
39.3112
21.9711
36.0556
34.9851
39.7517
21.8773
35.5964
34.9876
39.293
23.4804
35.8615
35.1983
45.5517
38.2641
34.5143
33.4562
37.8815
35.1174
35.2476
34.0777
34.3586
38.0312
33.0665
34.1702
37.9452
35.8979
38.0226
33.3129
31.6418
34.9038
33.9425
36.773
37.9454
33.4077
34.6878
35.5989
35.4456
32.6442
34.0621
35.0836
36.348
38.1243
32.3991
33.4179
34.3639
38.6733
35.9161
38.3968
33.109
32.9513
35.2142
34.6252
36.9582
38.1048
33.6128
33.7944
35.9343
36.4403
33.7792
34.2286
35.6637
36.8836
38.1792
32.7165
33.1376
34.9518
38.7432
36.7408
38.2783
33.316
33.1559
35.1372
35.5363
35.9831
38.101
35.1013
35.4188
35.8841
35.917
34.2807
34.4346
35.7667
36.8961
38.5289
34.3299
33.5922
35.2703
39.231
36.5423
38.3657
33.8894
34.7914
35.2024
35.3055
36.8043
38.2771
34.7192
33.9212
36.0717
36.4475
34.7737
34.5286
36.1134
37.241
38.2065
34.0417
34.395
35.2237
38.5655
37.2161
38.7505
33.8108
33.9217
35.2178
35.2166
37.1364
38.2354
35.2429
35.7158
36.1231
36.4166
35.1365
34.8589
36.0908
36.52
38.4743
34.0339
34.29
35.0994
39.0302
36.7784
38.5035
34.09
33.6508
35.4962
35.5284
36.5913
38.4997
33.9641
33.8668
36.2174
36.1755
34.2924
35.4326
36.5026
37.2474
38.6578
33.2922
34.2709
35.5957
39.0573
37.4885
38.3912
34.1272
33.5975
35.0694
35.6367
37.4643
38.3969
35.589
34.4968
36.092
36.312
35.7771
34.4669
36.1522
37.6808
38.7769
34.8356
34.0033
35.3137
39.7078
36.731
38.6359
33.8609
34.5424
35.1689
35.0652
37.6557
38.5181
35.5293
35.1695
36.0837
36.3605
35.3324
34.5497
36.1322
36.1976
38.7124
33.1291
34.5318
35.1559
38.7522
36.0571
38.4357
34.0732
33.7679
35.2917
35.0247
36.8349
38.5821
35.0841
35.5197
35.8601
36.2494
34.9753
34.5984
35.8904
37.3023
38.4775
33.6226
34.542
35.2173
38.1744
36.4481
38.5133
34.1752
33.5013
35.1588
35.557
37.5782
38.6595
34.7265
34.4951
35.8644
36.2631
35.2632
34.5583
35.9212
36.2162
38.4347
34.1447
33.4508
35.2342
37.6738
37.8545
41.7536
34.1547
33.5511
34.681
34.8829
36.4098
41.5715
33.4913
33.9943
34.6699
34.795
33.8989
35.3046
34.9074
37.7612
40.6087
33.2152
34.7698
34.7293
40.5134
44.2495
35.1397
35.3865
45.1718
35.0798
35.2613
23.981
23.9025
23.3412
35.36
44.6507
35.2148
398.032
21.2874
21.1578
21.5081
21.1293
78.2148
35.5291
150.654
26.1126
38.2007
203.31
202.328
157.171
295.173
157.251
295.005
397.146
397.006
161.954
297.204
161.756
297.027
20.8939
20.7433
20.8752
21.4744
21.4897
21.8312
21.4941
78.611
150.993
26.2566
34.865
78.5241
151.217
25.4997
398.793
398.635
74.8894
25.7596
148.037
32.5211
75.0553
25.4224
148.23
203.53
201.667
38.7925
203.665
201.672
157.635
295.097
158.083
294.977
397.149
397.034
161.966
297.149
162.323
297.058
21.2636
21.5956
21.311
21.3775
21.7519
21.8886
21.8015
79.7749
151.843
26.3919
34.926
78.8973
151.796
25.6462
398.69
398.558
75.7081
25.793
148.7
34.0432
75.8278
25.5249
148.452
203.787
201.886
39.1289
203.656
201.888
158.159
295.125
158.029
295.088
397.145
397.028
162.158
297.174
162.463
297.092
21.1232
21.6181
21.404
21.7847
21.9714
22.0167
22.0291
79.8348
152.294
26.4701
33.5706
79.5546
151.845
25.7348
398.802
398.633
76.3168
25.7018
149.047
33.0014
76.1385
25.2014
149.06
203.666
202.13
39.4677
203.858
202.067
158.397
295.188
157.963
295.046
397.149
397.031
162.629
297.179
162.181
297.079
21.0859
21.8404
21.6347
21.9232
22.0209
22.0892
22.0139
79.6728
152.287
26.5349
33.6097
79.9976
151.726
26.0004
398.79
398.642
76.6501
25.7267
149.28
33.9449
77.4084
24.9799
149.201
203.97
202.021
38.9167
203.794
202.103
158.25
295.102
158.293
294.991
397.147
397.037
162.336
297.277
162.671
297.148
21.7244
21.8356
21.7372
21.4921
22.0139
21.9413
22.0089
80.4391
152.164
26.6588
34.0312
80.6524
151.623
26.1872
398.768
398.603
76.8121
25.6736
149.466
33.4667
77.5085
24.9265
148.933
203.824
202.084
39.1564
203.957
202.133
158.436
295.119
158.793
295.067
397.175
397.116
162.923
297.279
162.475
297.118
21.5398
21.6312
21.1684
22.0719
22.0863
21.9494
22.2251
79.9401
151.539
26.6522
35.1127
80.2199
151.585
26.2262
398.775
398.64
76.9238
25.6656
149.526
33.43
76.6721
24.6399
149.267
204.067
202.262
39.3638
204.012
202.118
158.039
295.173
158.669
295.093
397.187
397.084
162.907
297.304
162.567
297.289
21.611
21.2879
21.9034
21.9063
21.8918
22.0178
22.0144
79.777
152.161
26.7141
33.3604
79.9224
151.94
25.4944
398.786
398.693
76.6535
25.8807
149.658
32.9644
77.3562
25.4533
149.318
203.846
202.046
39.4352
203.868
202.177
158.255
295.163
158.722
295.116
397.15
397.121
162.975
297.392
163.218
297.299
21.0819
21.2617
21.7278
21.9088
22.1057
21.7545
21.9727
79.9346
151.697
26.7905
35.3889
79.9181
151.63
26.1824
398.758
398.694
76.0568
26.0538
149.292
33.8793
76.874
25.7291
149.076
204.164
202.179
39.2332
203.906
202.043
158.509
295.169
158.546
295.017
397.119
397.012
162.421
297.399
162.571
297.233
21.7869
22.0626
21.6752
21.8065
21.9024
21.6705
22.1268
80.0951
151.825
26.7048
34.2151
79.8053
151.672
25.5502
398.769
398.711
76.1937
25.9964
149.379
33.7998
76.7645
25.1987
149.202
203.884
202.146
39.4125
204.029
202.213
158.051
295.151
158.642
294.547
396.869
396.264
162.446
297.262
163.015
296.647
21.2136
21.7801
21.322
21.4261
22.0735
22.148
22.1917
80.0755
151.807
26.7762
33.6512
80.0149
151.237
25.8067
398.518
397.921
75.9757
25.9097
149.588
32.5442
76.2238
25.2561
149.222
204.252
202.416
39.4029
204.106
202.255
161.515
295.196
159.573
292.352
395.832
389.699
162.227
296.129
160.936
292.63
21.6813
21.1719
21.8694
23.008
24.2104
24.1037
23.682
80.7542
150.55
26.3007
35.0841
78.9757
151.465
26.2537
396.696
389.803
79.7185
25.3141
149.652
34.7125
77.4079
26.1403
151.628
203.701
202.587
39.8289
202.707
201.785
116.86
1646.94
209.65
376.281
1521.33
495.46
117.511
1647.03
209.844
376.416
22.309
19.9092
19.9688
24.8391
18.7322
22.3115
22.2164
61.3349
293.027
27.1149
30.3459
90.9293
203.998
27.9133
1521.53
495.77
60.9655
27.8621
293.143
30.4499
90.3247
27.3915
203.677
348.537
346.64
35.4785
303.058
302.267
396.956
398.109
398.63
398.76
38.6068
201.786
203.708
202.512
203.793
296.437
33.9342
149.508
159.567
295.122
296.565
155.043
157.431
294.993
296.306
156.758
76.33
33.9378
148.263
25.3132
149.887
25.0316
74.3578
76.077
32.9355
147.603
25.2423
147.112
24.4931
74.121
37.7663
202.41
202.681
398.304
397.003
398.037
35.1642
201.734
202.761
201.554
202.022
398.356
398.492
161.236
297.121
297.198
160.94
78.0036
33.4474
150.759
26.0992
151.059
25.2015
78.8199
161.147
297.08
297.157
161.424
78.2115
33.5028
26.346
150.658
25.5882
151.114
78.801
160.096
296.875
77.4246
34.462
25.4029
150.33
160.162
296.915
76.8038
34.5972
150.171
25.9325
149.147
25.1662
77.8017
158.476
296.881
296.878
160.717
75.8367
33.7925
25.617
149.927
25.1904
147.807
78.2012
156.71
296.907
296.946
161.017
398.648
398.775
38.0372
203.528
201.327
203.501
202.066
396.844
397.945
77.4533
33.6089
25.0061
145.623
25.3449
148.538
74.218
76.976
33.6156
25.4938
148.253
25.3333
148.871
75.4619
159.819
294.789
296.12
157.231
159.524
294.838
296.237
157.369
398.346
397.862
37.1937
202.755
201.492
202.365
200.74
398.421
398.568
396.881
397.959
397.035
396.93
398.72
398.541
201.14
202.712
37.9722
201.436
203.391
396.985
397.044
398.547
398.653
36.3023
201.558
203.308
200.744
202.512
156.878
294.937
154.772
294.98
74.2843
145.483
24.8669
32.6112
71.4649
147.686
24.8307
74.5452
145.126
24.344
33.4806
70.6529
148.182
25.2886
153.854
295.037
294.938
157.864
154.717
294.934
294.938
157.047
72.2141
34.4441
148.333
25.6681
146.044
24.8635
75.031
71.5573
33.0651
148.067
25.4641
146.263
25.1707
75.0211
201.226
201.856
37.7759
201.583
202.919
398.557
398.466
397.06
397.075
36.5371
201.72
203.265
200.525
202.154
398.486
398.661
79.2222
148.325
25.695
35.092
77.5982
150.676
25.3535
161.464
297.011
160.453
296.971
78.7541
25.1054
146.806
33.9561
77.5747
26.0517
151.083
160.231
297.074
297.124
162.17
74.9264
34.004
150.528
26.2597
148.331
25.2539
79.0134
160.423
297.03
297.018
161.67
77.0471
34.1726
26.5459
150.942
25.6834
147.503
79.1097
161.114
296.924
157.736
296.916
78.7884
25.3944
148.108
34.5179
73.0428
25.1947
150.66
161.338
296.955
157.489
296.989
74.8112
34.2513
151.161
26.1055
149.319
25.3032
76.4439
159.686
297.033
296.981
161.419
77.3085
34.4799
26.2176
150.998
25.8454
149.25
78.8409
159.922
297.042
297.037
161.286
202.687
200.353
37.9068
203.368
201.148
396.99
396.922
398.585
398.708
36.5196
203.367
201.262
202.037
200.342
396.949
397.075
74.813
24.6954
146.95
34.0924
73.9879
25.0681
147.898
157.636
294.804
154.077
294.862
157.8
295
154.28
294.898
71.2008
34.0476
24.9889
148.188
25.1273
145.41
72.7996
70.5023
33.5175
25.508
148.341
25.191
144.453
75.6543
154.206
294.99
294.88
158.016
154.547
294.995
294.925
158.303
398.652
398.593
397.036
396.924
37.8503
203.64
201.588
203.33
201.205
398.594
398.766
396.986
397.096
397.072
396.931
398.645
398.51
200.921
202.407
38.1657
201.335
203.237
396.978
396.998
398.55
398.651
36.8542
201.411
203.38
200.316
202.351
157.702
295.043
153.402
294.949
74.9628
145.295
25.2564
34.715
72.7311
147.992
25.46
75.0825
146.721
24.7887
33.6688
72.2559
148.356
25.1815
155.942
295.066
295.057
157.38
156.671
294.97
295.042
157.75
71.1513
33.8235
148.079
25.6732
146.032
25.4272
75.0449
72.4828
33.9214
148.462
25.5444
147.3
25.2901
75.1384
201.017
202.432
38.1371
201.428
203.248
398.683
398.55
397.054
397.1
36.8547
201.396
203.268
200.555
202.597
398.542
398.714
79.3005
147.989
25.3892
35.1814
76.5267
150.614
26.4302
161.562
296.939
159.715
296.897
79.2456
26.0954
147.062
35.4969
75.1262
26.3736
151.075
159.623
297.08
297.061
162.002
77.1685
34.4457
150.614
26.5949
148.287
26.0192
79.82
159.981
297.041
297.074
162.147
76.5067
35.0128
26.6825
150.741
26.4807
149.609
79.2242
161.335
297.109
159.349
297.081
79.543
25.7083
149.314
33.1139
75.1946
25.4489
150.746
161.736
297.072
157.578
297.017
75.1164
34.3461
152.055
26.1456
148.713
26.0074
78.8202
159.831
297.146
297.133
161.818
77.3641
35.1409
26.319
150.942
25.5638
147.689
79.0709
160.779
297.056
297.087
161.765
201.959
200.323
38.1636
203.316
201.259
397.079
396.983
398.603
398.712
36.751
203.376
201.615
202.977
200.83
397.023
397.144
75.2826
24.8833
146.909
34.4101
74.1092
24.4278
148.081
157.937
295.03
156.746
294.967
158.221
294.999
157.393
294.917
73.2121
33.4369
25.223
148.345
25.148
146.658
75.1676
73.7763
33.4138
25.6849
148.372
25.4812
146.126
75.8408
156.063
295.019
294.961
157.838
156.788
295.037
295.058
157.824
398.751
398.557
397.153
397.025
38.1956
203.35
201.374
202.694
200.667
398.52
398.755
397.039
397.153
397.034
396.959
398.659
398.521
200.429
202.329
38.527
201.333
203.358
397.007
397.038
398.566
398.629
36.4571
201.471
203.283
200.529
202.312
157.328
295.098
155.444
294.962
75.2639
145.859
24.9368
34.8442
72.42
148.267
25.3324
75.0736
147.289
25.0279
34.7352
72.4611
148.157
24.9235
155.802
295.125
295.037
157.194
154.363
294.967
294.94
157.539
72.395
33.6748
148.64
25.6688
145.745
25.4057
75.5329
72.5048
34.1772
147.871
25.7657
144.691
25.193
75.4115
200.612
202.04
38.3084
201.419
203.143
398.727
398.635
397.059
397.095
36.5599
201.486
203.634
200.444
202.38
398.632
398.817
79.1861
148.155
25.9037
35.4927
77.913
150.81
25.3533
161.985
297.042
160.962
297.025
79.1571
26.0365
149.595
35.6442
76.3633
25.7666
150.863
158.95
297.094
297.028
160.034
77.4812
35.406
150.549
26.7496
148.232
26.5166
79.2894
158.749
297.089
297.042
162.364
76.2781
35.4506
26.6241
151.161
26.0664
149.84
79.2774
161.3
297.159
159.278
297.091
78.8891
26.0448
149.617
35.0284
75.9349
25.7194
151.313
161.188
297.114
159.061
297.1
78.1299
35.1574
152.019
26.1927
148.744
26.0735
77.5359
159.69
297.165
297.17
161.842
76.5663
35.1668
26.5205
151.038
25.8726
149.268
78.8981
158.962
297.084
297.135
161.371
203.031
200.197
38.2386
203.462
201.568
397.136
397.017
398.625
398.736
36.0137
203.338
201.573
202.808
200.426
397.016
397.142
75.7838
25.0717
145.533
33.6037
74.0204
25.4113
148.077
158.007
295.023
156.387
294.928
158.12
295.084
156.268
294.969
74.4837
34.5442
25.472
147.129
25.4223
147.486
74.8496
73.3847
34.8748
25.8146
148.059
25.6175
145.437
76.2963
156.995
294.993
294.98
158.004
155.999
294.981
294.983
157.808
398.718
398.656
397.233
397.012
38.4777
203.807
201.855
203.191
200.88
398.636
398.824
397.007
397.159
397.073
396.97
398.684
398.548
200.554
202.498
38.1471
201.438
203.225
396.994
397.051
398.622
398.654
36.5892
201.521
203.597
200.703
201.833
157.931
295.009
155.935
294.96
75.8565
146.457
25.0272
32.9701
73.2624
148.24
25.3927
75.7738
145.607
25.3709
33.6687
73.0285
147.733
25.6396
157.195
295.067
294.993
157.664
155.977
295.018
294.888
157.73
71.7095
34.7684
148.268
25.7151
144.106
25.4361
76.0687
73.2735
34.9816
147.805
25.8708
145.423
25.6491
75.5644
200.54
202.593
38.2432
201.422
203.733
398.829
398.672
397.061
397.072
35.8064
201.386
203.57
200.388
203.28
398.612
398.84
79.3752
148.338
26.0304
34.5401
77.636
150.812
25.7847
162.362
297.076
161.398
297.071
79.2954
25.5493
149.381
35.6032
76.3863
26.5704
151.117
159.447
297.148
297.085
162.181
78.0561
34.547
151.672
26.8571
148.222
26.6189
79.9472
159.754
297.013
297.046
162.11
77.326
34.9988
26.7917
151
26.8091
149.606
80.0044
161.42
297.21
159.457
297.105
79.4738
26.1769
148.526
34.4464
74.5641
25.9532
151.146
161.5
297.126
159.3
297.044
76.3517
35.2167
150.343
26.2473
149.807
25.8415
78.1904
159.752
297.152
297.185
161.837
77.2849
35.3085
26.6002
150.87
26.0785
148.492
79.3674
158.9
297.105
297.113
161.825
202.737
200.408
38.346
203.481
201.415
397.151
397.015
398.618
398.702
36.6373
203.411
201.711
202.103
200.892
397.065
397.175
75.6251
25.1764
145.706
34.539
74.9742
25.4296
148.385
157.939
295.031
156.205
295.003
157.781
295.003
155.675
295.008
72.4321
34.2781
25.3839
147.554
25.2815
147.544
77.127
71.5962
34.6648
25.7629
148.825
25.4944
147.014
75.7661
154.219
295.034
295.027
158.298
156.05
295.07
295.028
158.062
398.795
398.589
397.162
397.087
36.9288
203.551
201.82
202.794
201.151
398.569
398.771
397.064
397.245
397.079
396.981
398.712
398.595
200.887
202.188
38.3189
201.388
203.528
397.009
397.057
398.643
398.741
35.6873
201.358
203.615
200.351
203.022
158.138
294.988
154.856
294.962
76.1652
144.607
24.5924
33.0013
73.9427
148.383
25.5008
75.8704
146.14
25.1506
34.4678
73.0688
147.983
25.5147
156.383
295.051
295.084
158.243
156.284
295.039
294.992
157.771
71.5871
34.7999
147.961
25.9689
147
25.2136
76.4246
72.009
34.6326
148.003
25.8682
145.754
25.6656
76.4488
200.633
202.975
38.4107
201.503
203.461
398.776
398.636
397.091
397.112
36.8507
201.65
203.396
200.675
203.018
398.576
398.792
79.1011
150.143
26.1025
35.5579
76.4803
151.12
26.4116
161.967
297.159
160.764
296.989
79.8703
26.134
149.563
34.6011
75.4445
26.0198
150.911
159.454
297.18
297.267
160.633
77.3155
35.6002
151.137
26.7695
149.248
26.5623
79.9826
160.39
297.075
297.094
161.956
78.1238
36.2413
27.1887
150.535
27.0453
148.4
79.4342
161.803
297.213
160.242
297.12
79.9763
26.3305
148.598
35.5274
77.2449
26.2477
151.13
161.711
297.159
159.761
297.044
78.6457
35.5972
150.809
25.8579
148.51
25.9121
78.799
160.646
297.111
297.112
161.955
78.7693
35.5767
27.0072
150.764
26.3816
148.206
80.0245
159.612
297.045
297.073
161.792
202.852
200.812
38.1655
203.213
201.603
397.188
397.016
398.607
398.671
36.8238
203.283
201.646
201.923
200.667
397.037
397.147
75.9979
24.8514
146.916
34.5918
74.0584
25.7596
148.469
158.562
295.068
155.316
294.962
157.953
295.05
156.595
295.021
75.2742
34.0511
25.4198
148.825
24.7392
146.939
74.7877
73.818
34.5899
25.8457
148.488
25.6796
146.161
75.6325
157.528
295.048
294.976
158.331
156.366
295.044
295.028
158.116
398.75
398.663
397.184
397.024
37.5969
203.493
201.613
202.999
200.85
398.636
398.815
397.059
397.173
397.08
396.988
398.77
398.641
200.504
203.19
38.4559
201.344
203.687
397.063
397.041
398.675
398.745
37.0664
201.556
203.552
200.233
202.975
157.5
294.985
155.44
295.043
75.7058
145.01
25.5874
33.6452
74.218
148.333
25.2005
75.5108
145.182
25.2393
35.1328
74.1656
148.464
25.5311
155.184
295.141
295.094
158.51
155.141
295.002
294.982
157.494
71.6692
35.1726
148.354
25.8665
146.087
25.1046
75.3957
72.3888
34.206
148.23
25.8268
146.073
25.6528
75.2828
200.821
202.083
38.407
201.743
203.368
398.728
398.575
397.108
397.135
35.6823
201.685
203.508
200.185
201.982
398.576
398.704
80.247
149.326
25.4072
35.4416
75.2552
151.065
26.3987
162.22
297.017
160.477
297.011
79.9102
25.8606
148.001
35.5143
75.1727
26.8063
150.477
159.594
297.204
297.208
160.795
78.157
34.774
151.307
26.8941
149.587
26.0397
79.8895
160.788
297.041
296.966
162.063
78.3476
34.6756
27.2077
150.517
26.45
147.752
80.0126
162.132
297.157
160.36
297.1
79.7993
26.6348
147.785
35.8723
77.7286
26.0443
150.971
161.998
297.096
160.405
297.043
76.5901
35.3947
151.456
26.5103
149.659
26.4785
79.5682
160.808
297.111
297.092
161.904
77.4151
35.114
27.0211
150.917
26.8874
148.777
79.4566
160.837
297.094
297.094
162.103
202.84
200.705
38.2928
203.338
201.702
397.157
397.051
398.651
398.741
35.6071
203.324
201.602
203.012
200.795
397.057
397.195
76.1475
24.7578
144.717
34.8699
71.5327
25.6776
148.972
158.091
295.086
156.412
295.018
158.265
295.039
156.524
295.038
74.8413
32.9987
25.792
148.939
25.5613
147.193
74.7605
74.3821
34.2731
25.7811
148.571
25.2851
147.262
75.6356
154.431
295.09
294.991
158.491
156.629
295.067
295.093
158.22
398.826
398.619
397.235
397.106
37.7176
203.731
201.691
202.924
201.259
398.62
398.767
397.085
397.209
397.107
397.039
398.768
398.686
200.956
202.956
38.6193
201.569
203.727
397.097
397.052
398.732
398.775
37.3262
201.52
203.684
200.38
203.222
158.134
295.038
156.132
295.039
76.0664
145.616
25.3849
34.5183
70.8501
148.611
25.5334
75.4053
146.05
25.1861
35.0204
72.6204
148.411
25.4924
155.034
295.109
295.098
158.19
155.31
295.067
294.89
157.831
74.0246
34.5837
148.292
25.7925
146.63
25.5546
75.833
71.751
34.3963
148.535
25.8212
145.026
25.6372
75.5607
201.216
202.924
38.4669
201.715
203.307
398.733
398.619
397.13
397.109
37.6797
201.527
203.348
201.083
202.33
398.607
398.732
80.0209
150.419
26.3516
34.8035
74.7177
151.707
26.5089
162.325
297.094
160.907
297.076
80.1102
26.8327
148.254
36.0197
75.5942
26.1958
150.576
161.398
297.281
297.35
161.825
78.1508
34.6543
152.252
26.7712
149.948
26.5161
79.423
159.36
297.023
297.037
162.105
78.3861
35.8573
27.173
150.887
27.092
148.955
76.7295
161.588
297.14
160.02
297.024
79.6336
26.1805
147.925
34.8546
74.7204
26.4908
150.879
161.653
297.131
159.833
297.078
78.2085
35.1061
150.93
25.9322
150.356
26.5121
78.9345
159.427
297.112
297.2
161.67
74.7507
35.1908
26.799
151.49
26.6113
149.304
79.5684
159.359
297.182
297.124
161.541
202.798
200.208
38.3043
203.492
201.59
397.143
397.072
398.681
398.707
35.9407
203.244
201.53
202.335
201.168
397.059
397.172
75.6551
25.3634
145.406
33.7799
74.2374
25.0326
148.688
158.395
295.11
157.256
295.015
158.013
295.061
157.361
295.042
74.1774
34.6265
25.2396
147.031
25.4058
147.839
76.2486
72.0714
35.0044
25.8352
148.359
25.5376
147.347
76.5806
155.648
295.014
295.142
158.302
155.289
295.081
295.052
158.278
398.741
398.681
397.217
397.099
37.0954
204.072
202.117
203.009
201.708
398.773
398.803
397.125
397.226
397.08
397.084
398.796
398.746
200.982
203.245
38.2613
201.472
203.777
397.093
397.026
398.757
398.772
35.7667
201.54
203.678
200.381
203.211
157.583
294.965
155.662
295.039
75.4412
146.51
24.8113
32.9504
72.8894
148.152
25.6533
75.3094
145.524
25.2872
34.6702
72.7041
148.213
24.9909
156.29
295.124
295.107
156.621
155.866
295.007
294.941
157.839
71.6428
34.8031
148.673
25.7522
146.41
25.1249
75.2468
71.5612
34.6322
148.368
25.702
146.486
25.1321
75.3673
200.792
202.542
38.7089
201.497
203.316
398.715
398.651
397.137
397.105
37.5457
201.747
203.416
201.026
202.826
398.638
398.694
80.5661
151.504
25.9603
34.6525
75.1195
152.692
26.3171
162.96
297.116
161.33
297.026
80.641
26.4229
149.582
34.6949
79.6587
26.144
150.648
160.012
297.307
297.439
161.246
78.9552
35.4636
152.12
26.6984
151.713
26.3946
80.1542
161.664
297.15
297.046
162.304
77.4794
35.8062
26.9458
151.612
26.1342
149.841
80.5951
161.925
297.12
160.308
297.058
79.6844
26.1744
150.32
35.7581
78.1266
25.8757
151.636
161.682
297.228
159.686
297.169
78.0285
34.8681
151.337
26.4084
148.869
26.3888
76.9102
160.476
297.087
297.048
161.594
76.0542
35.8186
26.748
151.428
26.3909
148.022
79.356
159.481
297.162
297.188
161.667
202.689
200.789
38.7514
203.321
201.573
397.111
397.084
398.814
398.72
37.6587
203.544
201.765
202.84
201.21
397.122
397.144
75.6905
25.3675
145.272
34.6335
72.6931
25.0369
148.592
157.912
295.057
156.286
295.018
158.195
295.076
156.635
295.056
73.629
34.3984
25.8721
148.57
25.2643
147.673
74.1992
73.0003
33.7782
25.7766
148.703
25.4073
146.844
75.4587
156.466
295.072
294.968
157.85
156.455
295.057
295.042
157.831
398.846
398.694
397.199
397.149
37.7918
203.774
201.877
203.197
201.033
398.662
398.762
397.122
397.194
396.988
396.974
398.76
398.694
200.369
203.257
38.6359
201.637
203.72
396.863
396.936
398.508
398.664
37.641
201.765
203.862
200.538
203.104
157.58
295.057
155.856
294.918
75.4755
145.791
25.2421
33.5653
72.784
148.111
25.4674
75.1946
147.176
25.3384
34.3181
72.4698
148.398
25.6161
157.375
294.964
295.108
158.351
154.734
294.809
294.933
157.586
72.5268
34.969
148.509
25.8307
145.455
25.5713
75.5354
72.317
34.5335
147.852
25.9399
145.989
25.7955
75.3173
201.352
202.129
38.3193
201.747
203.828
398.667
398.662
396.838
396.976
36.9738
201.779
203.708
201.07
202.346
398.411
398.658
79.9255
151.055
26.169
35.4847
77.7303
151.862
26.4447
162.415
297.132
158.622
297.044
79.991
26.63
148.07
34.9204
75.3129
26.1217
151.581
160.638
297.09
297.289
162.587
75.8107
35.4851
151.555
26.8173
150.703
26.6266
80.1602
161.317
296.962
297.191
162.575
75.3795
34.9531
26.8294
150.871
26.0836
149.778
80.2927
161.993
297.112
160.701
297.061
79.9102
26.2748
147.575
34.4444
77.4177
25.9631
151.314
161.662
297.157
159.229
297.046
75.4571
35.832
151.388
26.5602
148.117
26.6084
79.228
160.853
296.97
297.12
161.816
75.2885
34.9042
26.795
151.273
25.9702
147.598
79.8277
158.189
296.954
297.111
162.128
203.067
201.198
38.447
203.533
201.788
397.141
397.08
398.468
398.645
37.6818
203.521
202.123
203.077
201.549
396.906
397.116
75.3113
24.7478
146.79
35.0218
72.7304
25.6639
148.254
157.78
295.079
156.363
295.051
157.667
295.135
156.206
294.999
74.084
34.423
25.7113
148.789
25.5329
147.373
75.5029
72.5059
34.8742
25.8037
148.87
25.5155
147.062
75.4461
155.465
294.966
295.073
157.708
155.537
294.967
295.083
157.756
398.686
398.676
397.13
397.019
37.4707
203.508
201.59
203.529
201.544
398.403
398.684
396.816
397.078
396.851
396.249
398.531
397.916
200.989
203.325
38.4104
201.593
203.775
394.222
396.464
395.967
398.144
36.4869
201.107
203.368
200.952
203.312
157.809
294.839
156.193
294.427
75.2702
147.355
25.3698
34.5803
72.3724
148.299
25.6122
75.2955
144.745
24.8267
34.9427
72.6572
148.319
25.7656
155.414
293.027
294.762
157.086
155.857
292.921
294.663
157.794
72.6261
34.7222
147.619
25.9372
146.854
25.7733
75.6598
72.2923
34.414
147.815
25.3491
147.247
25.6336
75.5161
200.563
202.396
38.6366
201.826
203.548
398.512
397.889
394.223
396.504
37.8542
201.242
203.054
200.849
202.557
395.846
398.167
79.5605
149.938
25.5959
34.1184
77.7928
150.962
26.5739
161.722
296.991
161.368
296.525
79.2869
26.4444
148.272
35.78
77.8264
26.0475
150.551
159.792
295.5
296.905
160.054
75.2537
35.5706
150.365
26.7516
149.654
26.4872
78.499
158.491
295.299
296.668
160.725
76.729
35.1103
26.8158
149.504
26.0263
147.88
78.9678
162.056
297.07
160.861
296.554
79.0583
26.3784
150.051
34.5846
76.2232
26.5887
150.909
162.05
297.078
161.287
296.575
77.7761
35.2272
150.409
26.4537
148.677
25.7381
77.4012
160.611
295.381
296.807
160.84
75.2145
34.5932
26.8567
150.047
26.7053
148.621
78.628
159.87
295.35
296.806
160.791
202.97
200.787
38.9267
203.511
202.067
396.99
396.351
395.887
398.126
37.7734
202.763
201.522
202.917
201.739
394.329
396.637
75.5575
25.1733
147.33
33.6719
73.4786
25.1967
148.615
157.604
295.081
155.274
294.59
157.483
295.065
155.521
294.535
73.9037
34.1781
25.0432
146.302
25.1695
147.922
73.3559
73.8227
34.8721
26.106
147.387
25.3324
146.243
75.8356
155.61
292.981
294.866
157.706
154.365
292.958
294.781
155.454
398.512
397.891
396.943
396.326
36.9642
203.446
201.808
203.022
201.257
395.875
398.136
394.376
396.619
395.772
389.704
396.765
389.883
201.046
202.631
39.2938
201.374
202.029
607.629
396.764
608.022
396.958
38.6898
224.344
224.272
204.1
204.759
160.553
295.043
157.797
292.282
80.1498
145.267
25.7372
33.5233
74.1421
148.944
26.0125
78.7727
146.75
26.4286
35.3197
73.5925
149.882
26.7459
158.865
949.784
298.151
165.119
160.202
949.776
297.982
167.698
78.5758
36.6719
273.173
29.8336
148.136
26.0015
81.427
76.4672
36.5921
272.88
29.912
147.961
25.9283
81.0959
201.427
201.953
39.9082
201.559
202.74
396.736
389.885
607.391
396.747
40.0941
224.323
224.771
204.223
202.741
607.794
396.864
79.8506
149.204
25.955
34.2566
74.4445
151.228
26.431
161.496
295.762
157.555
292.316
79.6141
26.2789
147.451
34.5795
74.6477
26.5419
149.919
159.423
950.082
298.371
165.76
78.7378
36.0575
273.72
29.3293
148.984
26.6461
82.5653
160.114
950.237
297.94
168.163
79.0107
36.3179
29.2491
273.315
26.7223
149.496
82.2901
161.867
295.925
158.694
292.595
80.131
26.1797
147.524
35.738
74.5453
26.7091
150.255
161.406
295.88
158.393
292.338
80.0561
36.1595
273.416
29.7284
151.244
26.9774
83.7087
160.457
950.366
298.211
170.41
79.3471
36.7374
29.4339
273.358
26.9972
147.523
83.8443
159.95
950.298
298.005
169.912
202.193
201.44
39.3641
202.245
201.653
395.922
389.871
607.894
396.74
39.0509
223.871
223.104
203.671
204.482
608.114
396.92
79.6246
25.4221
145.928
34.7507
75.3906
26.9418
149.855
161.046
295.207
155.82
292.524
161.179
295.096
156.39
292.343
78.6959
36.0229
30.0553
273.422
25.6544
151.119
82.9674
79.1597
36.2926
30.1478
273.369
25.8835
147.859
85.141
159.991
949.957
298.147
170.376
160.192
949.931
298.017
165.03
396.736
389.907
395.983
389.761
38.6395
220.738
226.808
204.281
204.518
608.597
396.892
607.509
396.85
1521.45
495.786
1521.63
495.8
345.706
346.972
35.2479
301.342
301.406
35.3416
258.506
258.712
116.274
1647.09
205.224
375.894
61.5945
291.855
27.2338
30.7437
87.4824
203.629
27.5674
61.2731
291.772
26.8231
30.8149
88.8727
203.387
27.076
46.59
32.0597
178.164
27.754
46.0288
31.6607
178.071
27.9104
345.978
347.171
34.5345
302.216
302.084
1522.45
495.89
34.9124
259.304
258.554
61.5068
292.435
26.3409
30.7624
86.3517
203.767
27.1078
116.855
1647.28
205.102
376.253
61.4498
26.3672
292.168
30.7248
87.9915
27.3097
203.503
47.1478
31.553
178.48
27.971
46.3059
31.5769
28.7125
178.025
22.0953
19.97
20.1062
24.9968
18.7436
22.1698
22.4169
22.2446
20.0314
19.9889
24.8051
18.749
22.3939
22.3511
22.4965
20.0329
19.9478
24.7197
18.7317
22.4289
22.3909
22.7082
26.4853
23.7582
23.8814
22.3434
26.5837
23.8272
23.683
22.6089
26.2041
23.9035
23.9723
22.9221
25.6866
23.3257
23.7683
116.621
1646.85
204.564
376.587
61.3557
26.4954
292.419
30.8269
87.7491
26.9894
204.272
116.284
1646.84
204.1
376.69
46.8608
30.5332
178.34
27.9
46.7297
31.8568
27.6864
179.055
346.618
346.678
34.0214
302.585
302.614
1521.53
495.829
35.7984
258.803
259.538
61.3079
26.9679
291.867
30.8319
87.6871
27.3303
204.018
116.763
1646.92
204.277
376.261
116.861
1646.86
209.511
376.419
46.1223
31.3385
29.4359
178.487
46.3395
31.6385
28.5202
178.723
1520.86
496.519
1521.74
496.199
35.9386
259.709
259.388
449.879
449.854
94.318
342.334
93.9559
342.068
449.572
449.979
94.7717
342.663
94.3365
342.588
96.3502
342.857
96.1898
343.05
449.833
450.022
94.0862
342.386
94.0549
342.607
450.566
450.13
398.752
401.729
401.773
245.648
305.324
111.728
169.676
305.344
110.116
168.294
325.03
156.401
304.856
171.82
304.981
171.128
324.787
414.615
209.929
294.864
414.758
209.213
324.951
154.765
305.185
171.911
325.113
304.936
169.62
414.718
209.565
294.955
208.921
414.574
396.975
397.088
328.328
161.106
176.179
308.218
175.485
308.341
328.063
416.977
213
297.021
417.202
212.472
328.131
159.617
176.053
308.343
328.252
174.305
308.196
417.133
212.812
297.05
212.051
416.922
398.579
398.748
245.73
401.597
401.524
402.302
401.398
245.675
169.965
112.03
305.518
203.055
169.192
110.584
305.301
168.314
110.796
305.178
200.818
167.476
108.212
304.806
245.495
402.071
401.674
245.064
402.079
400.99
167.292
305.697
202.738
113.057
109.585
305.69
169.453
166.86
304.678
200.654
111.034
107.541
304.79
167.951
325.085
156.695
304.914
172.532
304.97
171.906
324.898
414.639
209.759
294.968
414.772
209.055
324.956
154.793
305.017
172.767
325.03
304.886
170.474
414.794
209.727
294.937
209.022
414.662
396.994
397.093
328.419
161.032
176.577
308.252
175.952
308.378
328.154
417.01
213.037
296.959
417.228
212.432
328.243
159.374
176.741
308.456
328.375
175.009
308.256
417.219
213.079
297.015
212.359
417.017
398.508
398.632
245.976
401.907
401.851
402.063
402.013
245.348
170.905
113.671
305.692
202.535
168.726
109.836
305.505
169.478
111.49
305.168
200.727
167.444
107.623
305.128
245.887
401.964
401.966
245.492
401.893
401.884
169.751
305.575
203.275
113.497
112.536
305.64
170.266
168.534
305.246
201.659
111.834
110.842