/*--------------------------------*- C++ -*----------------------------------*\
| =========                 |                                                 |
| \\      /  F ield         | OpenFOAM: The Open Source CFD Toolbox           |
|  \\    /   O peration     | Version:  2206                                  |
|   \\  /    A nd           | Website:  www.openfoam.com                      |
|    \\/     M anipulation  |                                                 |
\*---------------------------------------------------------------------------*/
FoamFile
{
    version     2.0;
    format      ascii;
    arch        "LSB;label=32;scalar=64";
    class       volScalarField;
    location    "120";
    object      p;
}
// * * * * * * * * * * * * * * * * * * * * * * * * * * * * * * * * * * * * * //

dimensions      [0 2 -2 0 0 0 0];

internalField   nonuniform List<scalar> 
66940
(
-0.0162203
-0.0162203
-0.0162204
-0.0162089
-0.0163989
-0.0163988
-0.0163988
-0.0163874
-0.0165775
-0.0165774
-0.0165775
-0.0165661
-0.0167563
-0.0167562
-0.0167562
-0.0167446
-0.0169352
-0.0169351
-0.016935
-0.0169233
-0.0171143
-0.0171139
-0.0171139
-0.0171018
-0.0172934
-0.0172926
-0.0172927
-0.0172797
-0.017473
-0.0174706
-0.0174708
-0.0174563
-0.0176529
-0.0176455
-0.0176459
-0.0176297
-0.0178252
-0.0178081
-0.0178091
-0.0177953
-0.0178772
-0.0178872
-0.0178885
-0.0179339
-0.0164342
-0.0171689
-0.017125
-0.0176903
-0.0161871
-0.0161762
-0.0161761
-0.016187
-0.0161756
-0.0161755
-0.0161755
-0.0161754
-0.016187
-0.016176
-0.016176
-0.016187
-0.016209
-0.0163656
-0.0162204
-0.0162204
-0.0163543
-0.0163543
-0.0162089
-0.0163655
-0.0162203
-0.0162203
-0.0163543
-0.0163542
-0.0162202
-0.0163542
-0.0163542
-0.0162089
-0.0163655
-0.0162205
-0.0163542
-0.0163542
-0.0163655
-0.0163874
-0.0165442
-0.0163988
-0.0163988
-0.0165329
-0.0165329
-0.0163873
-0.0165442
-0.0163988
-0.0163988
-0.0165329
-0.0165329
-0.0163987
-0.0165329
-0.0165329
-0.0163874
-0.0165442
-0.0163989
-0.0165329
-0.0165329
-0.0165443
-0.016566
-0.016723
-0.0165774
-0.0165774
-0.0167117
-0.0167116
-0.0165659
-0.016723
-0.0165774
-0.0165774
-0.0167117
-0.0167117
-0.0165774
-0.0167117
-0.0167117
-0.016566
-0.016723
-0.0165776
-0.0167117
-0.0167116
-0.016723
-0.0167446
-0.016902
-0.0167562
-0.0167561
-0.0168907
-0.0168906
-0.0167445
-0.0169019
-0.0167562
-0.0167562
-0.0168907
-0.0168905
-0.0167562
-0.0168906
-0.0168906
-0.0167447
-0.0169019
-0.0167563
-0.0168905
-0.0168906
-0.0169019
-0.0169232
-0.0170809
-0.016935
-0.016935
-0.0170697
-0.0170696
-0.0169232
-0.017081
-0.016935
-0.016935
-0.0170696
-0.0170696
-0.0169351
-0.0170695
-0.0170696
-0.0169232
-0.0170809
-0.0169352
-0.0170696
-0.0170694
-0.0170808
-0.0171017
-0.01726
-0.0171139
-0.0171139
-0.0172488
-0.0172488
-0.0171017
-0.0172601
-0.0171139
-0.0171139
-0.0172488
-0.0172487
-0.0171139
-0.0172488
-0.0172487
-0.0171018
-0.01726
-0.017114
-0.0172487
-0.0172487
-0.01726
-0.0172795
-0.0174393
-0.0172925
-0.0172926
-0.0174285
-0.0174283
-0.0172796
-0.0174393
-0.0172925
-0.0172927
-0.0174285
-0.0174283
-0.0172926
-0.0174284
-0.0174284
-0.0172798
-0.0174392
-0.0172928
-0.0174282
-0.0174281
-0.0174391
-0.017456
-0.0176188
-0.0174704
-0.0174706
-0.0176098
-0.0176095
-0.0174561
-0.0176186
-0.0174704
-0.0174706
-0.0176098
-0.0176096
-0.0174706
-0.0176097
-0.0176096
-0.0174563
-0.0176186
-0.0174707
-0.0176093
-0.0176094
-0.0176187
-0.017629
-0.0177992
-0.0176454
-0.0176455
-0.0177967
-0.0177963
-0.0176291
-0.017799
-0.0176453
-0.0176456
-0.017797
-0.0177966
-0.0176456
-0.0177967
-0.0177966
-0.0176295
-0.017799
-0.017646
-0.017796
-0.0177959
-0.0177989
-0.0177947
-0.0179702
-0.0178081
-0.0178086
-0.0179864
-0.0179855
-0.017795
-0.0179699
-0.0178079
-0.0178084
-0.0179872
-0.0179868
-0.0178084
-0.017987
-0.0179871
-0.0177952
-0.0179699
-0.0178089
-0.0179848
-0.0179849
-0.01797
-0.0179333
-0.0178518
-0.0178863
-0.0178873
-0.0178672
-0.0178608
-0.0179344
-0.0178599
-0.0178874
-0.0178875
-0.0178627
-0.0178657
-0.0178876
-0.0178696
-0.0178651
-0.0179333
-0.0178509
-0.0178878
-0.0178629
-0.0178649
-0.0178523
-0.0176903
-0.0171255
-0.0171173
-0.017714
-0.0171245
-0.01713
-0.0163987
-0.0164402
-0.0164362
-0.0171296
-0.0176883
-0.017123
-0.0160976
-0.0161757
-0.0161757
-0.0161756
-0.0161756
-0.0160974
-0.0160873
-0.0160974
-0.0160875
-0.0160974
-0.0160976
-0.0160974
-0.016276
-0.0162092
-0.0162094
-0.016276
-0.0162093
-0.016276
-0.0162765
-0.016209
-0.0162088
-0.0162762
-0.0162204
-0.0162203
-0.0162203
-0.0163544
-0.0163543
-0.0163543
-0.0163543
-0.0162761
-0.0162092
-0.0162203
-0.016265
-0.0162092
-0.016276
-0.016265
-0.0162091
-0.0162762
-0.0162753
-0.0162205
-0.0162095
-0.0162649
-0.01621
-0.0162649
-0.0162756
-0.0162089
-0.0162092
-0.0162763
-0.0162763
-0.0162758
-0.0164546
-0.0163878
-0.0163878
-0.0164545
-0.0163878
-0.0164546
-0.016455
-0.0163876
-0.0163873
-0.0164547
-0.0163988
-0.0163988
-0.0163987
-0.0165329
-0.0165329
-0.0165329
-0.0165329
-0.0164547
-0.0163878
-0.0163987
-0.0164435
-0.0163877
-0.0164545
-0.0164435
-0.0163876
-0.0164547
-0.0164541
-0.0163988
-0.0163881
-0.0164436
-0.0163884
-0.0164435
-0.0164543
-0.0163875
-0.0163878
-0.0164549
-0.0164547
-0.0164546
-0.0166333
-0.0165664
-0.0165665
-0.0166333
-0.0165664
-0.0166332
-0.0166337
-0.0165662
-0.016566
-0.0166335
-0.0165774
-0.0165774
-0.0165773
-0.0167117
-0.0167117
-0.0167117
-0.0167117
-0.0166333
-0.0165664
-0.0165773
-0.0166222
-0.0165663
-0.0166333
-0.0166223
-0.0165663
-0.0166334
-0.0166327
-0.0165774
-0.0165668
-0.0166222
-0.016567
-0.0166222
-0.0166329
-0.0165661
-0.0165665
-0.0166336
-0.0166335
-0.0166331
-0.0168119
-0.0167452
-0.0167452
-0.016812
-0.0167451
-0.016812
-0.0168125
-0.016745
-0.0167448
-0.0168122
-0.0167562
-0.0167562
-0.0167562
-0.0168906
-0.0168905
-0.0168905
-0.0168905
-0.0168121
-0.0167452
-0.016756
-0.016801
-0.016745
-0.016812
-0.0168012
-0.0167451
-0.0168122
-0.0168115
-0.0167561
-0.0167456
-0.016801
-0.0167458
-0.0168012
-0.0168118
-0.0167449
-0.0167452
-0.0168124
-0.0168123
-0.0168121
-0.016991
-0.0169242
-0.0169242
-0.016991
-0.0169241
-0.016991
-0.0169915
-0.0169239
-0.0169237
-0.0169912
-0.0169351
-0.0169351
-0.0169351
-0.0170695
-0.0170694
-0.0170693
-0.0170694
-0.0169911
-0.0169241
-0.0169347
-0.0169801
-0.0169239
-0.016991
-0.0169803
-0.0169239
-0.0169911
-0.0169903
-0.0169347
-0.0169244
-0.0169799
-0.0169246
-0.0169801
-0.0169906
-0.0169238
-0.0169242
-0.0169914
-0.0169913
-0.0169909
-0.0171699
-0.0171032
-0.0171032
-0.0171698
-0.0171031
-0.0171699
-0.0171703
-0.0171029
-0.0171027
-0.0171701
-0.0171141
-0.0171142
-0.0171142
-0.0172482
-0.0172481
-0.0172481
-0.0172481
-0.0171698
-0.0171032
-0.0171134
-0.0171591
-0.0171028
-0.0171699
-0.0171596
-0.017103
-0.01717
-0.0171692
-0.0171136
-0.0171036
-0.017159
-0.0171034
-0.0171595
-0.0171697
-0.0171028
-0.0171031
-0.0171704
-0.0171701
-0.01717
-0.0173488
-0.0172822
-0.0172822
-0.0173487
-0.0172822
-0.0173487
-0.0173492
-0.0172819
-0.0172816
-0.0173488
-0.0172935
-0.0172935
-0.0172934
-0.0174263
-0.0174262
-0.0174262
-0.0174263
-0.0173485
-0.0172824
-0.0172919
-0.0173385
-0.0172815
-0.017349
-0.0173391
-0.017282
-0.0173488
-0.0173478
-0.0172922
-0.0172827
-0.0173383
-0.0172823
-0.0173388
-0.0173486
-0.0172819
-0.0172822
-0.0173496
-0.0173491
-0.0173487
-0.0175274
-0.0174612
-0.0174611
-0.0175272
-0.0174613
-0.0175272
-0.0175279
-0.017461
-0.0174606
-0.0175275
-0.0174731
-0.0174731
-0.017473
-0.0176032
-0.017603
-0.017603
-0.017603
-0.0175264
-0.0174616
-0.0174699
-0.0175187
-0.0174598
-0.0175276
-0.0175191
-0.0174611
-0.0175274
-0.0175258
-0.0174702
-0.0174619
-0.0175184
-0.0174605
-0.0175185
-0.0175274
-0.017461
-0.0174613
-0.0175288
-0.0175275
-0.0175274
-0.0177059
-0.0176404
-0.0176397
-0.0177056
-0.0176405
-0.0177052
-0.0177064
-0.0176402
-0.0176393
-0.0177058
-0.0176529
-0.017653
-0.0176528
-0.0177773
-0.0177769
-0.0177769
-0.0177771
-0.017703
-0.0176408
-0.0176457
-0.0177019
-0.0176366
-0.0177063
-0.0177008
-0.0176404
-0.0177055
-0.0177023
-0.0176465
-0.0176413
-0.0177015
-0.0176375
-0.0177001
-0.0177061
-0.0176402
-0.0176405
-0.0177087
-0.017706
-0.0177056
-0.0178854
-0.0178199
-0.0178176
-0.0178848
-0.0178207
-0.0178839
-0.0178859
-0.0178198
-0.0178173
-0.0178851
-0.0178257
-0.0178257
-0.0178253
-0.0179251
-0.0179234
-0.0179238
-0.0179245
-0.0178753
-0.0178206
-0.0178102
-0.0178938
-0.0178085
-0.0178865
-0.0178876
-0.0178207
-0.0178841
-0.0178743
-0.0178112
-0.017821
-0.0178924
-0.0178093
-0.0178864
-0.0178861
-0.0178204
-0.0178206
-0.0178885
-0.0178844
-0.0178843
-0.018083
-0.0180042
-0.0179919
-0.018102
-0.0180093
-0.018097
-0.0180841
-0.0180048
-0.0179917
-0.0181023
-0.0178786
-0.0178783
-0.0178775
-0.0174951
-0.0174749
-0.0174933
-0.0174948
-0.0180135
-0.0180003
-0.0178679
-0.0180345
-0.0179525
-0.0180862
-0.0180153
-0.0180097
-0.0180975
-0.0180101
-0.017865
-0.0180003
-0.0180329
-0.017954
-0.0180127
-0.0180853
-0.0180067
-0.0180066
-0.0180061
-0.0180921
-0.0180913
-0.0186459
-0.0183187
-0.0181946
-0.019469
-0.0183778
-0.0197098
-0.0186444
-0.0183191
-0.0181949
-0.0194697
-0.0138497
-0.0168525
-0.0168563
-0.015794
-0.0167153
-0.0148107
-0.014812
-0.0176662
-0.0182243
-0.0168665
-0.016375
-0.0178526
-0.0189639
-0.0155521
-0.0183778
-0.0197103
-0.0176559
-0.0168657
-0.0182229
-0.016333
-0.0178539
-0.0155534
-0.0189651
-0.0183375
-0.0183378
-0.0167034
-0.0192468
-0.0192445
-0.0161868
-0.0161201
-0.0161869
-0.0161197
-0.0161195
-0.0161868
-0.0161869
-0.01612
-0.0161197
-0.0160976
-0.0160858
-0.0160969
-0.0161202
-0.0161867
-0.0161203
-0.0161866
-0.0161202
-0.0161867
-0.0161203
-0.0161867
-0.0161206
-0.0161305
-0.0161865
-0.0161763
-0.0161204
-0.0161303
-0.0161865
-0.0161206
-0.0161305
-0.0161866
-0.0161763
-0.0161205
-0.0161303
-0.0161865
-0.0160975
-0.0160976
-0.0160976
-0.0160977
-0.0161868
-0.0161201
-0.0161196
-0.0161868
-0.0161869
-0.0161201
-0.0161198
-0.0161869
-0.0161198
-0.0161194
-0.0161869
-0.0161197
-0.0161872
-0.0161197
-0.0161308
-0.0161867
-0.0161754
-0.0161199
-0.0161306
-0.0161867
-0.0161195
-0.0161869
-0.0161197
-0.0161871
-0.0161197
-0.0161308
-0.0161754
-0.0161867
-0.0161306
-0.0161199
-0.0161868
-0.0160979
-0.0160977
-0.0160974
-0.0160872
-0.0160876
-0.0160973
-0.0160979
-0.0160977
-0.0161197
-0.0161308
-0.0161867
-0.0161755
-0.01612
-0.0161305
-0.0161867
-0.0161194
-0.0161869
-0.0161198
-0.0161872
-0.0161197
-0.0161306
-0.0161754
-0.0161867
-0.0161305
-0.0161199
-0.0161867
-0.0161195
-0.0161869
-0.0161198
-0.0161872
-0.0161869
-0.0161197
-0.0161195
-0.016187
-0.0161867
-0.0161196
-0.0161199
-0.0161867
-0.01612
-0.0161205
-0.0161305
-0.0161762
-0.0161865
-0.0161301
-0.0161203
-0.0161865
-0.0161205
-0.0161304
-0.0161762
-0.0161865
-0.01613
-0.0161204
-0.0161864
-0.01612
-0.0161866
-0.0161202
-0.0161865
-0.01612
-0.0161866
-0.0161202
-0.0161866
-0.0160976
-0.0160974
-0.0161195
-0.0161869
-0.0161867
-0.0161198
-0.0161199
-0.0161869
-0.0161198
-0.0161867
-0.01612
-0.0162092
-0.0162761
-0.0162091
-0.0162762
-0.0162092
-0.0162091
-0.0162762
-0.0162761
-0.0162762
-0.0163653
-0.0162986
-0.0163654
-0.0162984
-0.0162982
-0.0163653
-0.0163655
-0.0162986
-0.0162984
-0.016276
-0.0162093
-0.0162095
-0.016276
-0.0162755
-0.0162096
-0.0162204
-0.0162649
-0.0162101
-0.0162757
-0.0162649
-0.0162754
-0.0162096
-0.0162205
-0.016265
-0.0162101
-0.0162757
-0.0162649
-0.0162986
-0.0163653
-0.0162986
-0.0163652
-0.0162986
-0.0163653
-0.0162986
-0.0163652
-0.0162991
-0.0163096
-0.016365
-0.0163544
-0.016299
-0.0163097
-0.0163646
-0.0162991
-0.0163097
-0.0163649
-0.0163544
-0.0162989
-0.0163096
-0.0163646
-0.0162093
-0.016209
-0.0162763
-0.0162759
-0.0162763
-0.0162091
-0.0162762
-0.0163653
-0.0162986
-0.0162982
-0.0163654
-0.0163655
-0.0162986
-0.0162983
-0.0163654
-0.0162983
-0.0162761
-0.0162093
-0.0162202
-0.0162649
-0.0162091
-0.0162759
-0.016265
-0.0162765
-0.016209
-0.0162088
-0.0162762
-0.0162762
-0.0162202
-0.0162092
-0.0162649
-0.0162091
-0.0162649
-0.016276
-0.0162981
-0.0163655
-0.0162984
-0.0163657
-0.0162984
-0.0163096
-0.0163653
-0.0163543
-0.0162986
-0.0163095
-0.0163652
-0.0162981
-0.0163655
-0.0162984
-0.0163657
-0.0162984
-0.0163096
-0.0163543
-0.0163652
-0.0163096
-0.0162986
-0.0163653
-0.0162765
-0.016209
-0.0162088
-0.0162762
-0.0162761
-0.0162202
-0.0162092
-0.016265
-0.0162092
-0.016265
-0.016276
-0.0162765
-0.016209
-0.0162089
-0.0162762
-0.0162984
-0.0163096
-0.0163653
-0.0163543
-0.0162985
-0.0163095
-0.0163653
-0.0162981
-0.0163655
-0.0162983
-0.0163656
-0.0162985
-0.0163095
-0.0163543
-0.0163652
-0.0163095
-0.0162985
-0.0163653
-0.0162981
-0.0163654
-0.0162983
-0.0163656
-0.016209
-0.0162092
-0.0162763
-0.0162763
-0.016276
-0.0162092
-0.016276
-0.0163655
-0.0162984
-0.0162982
-0.0163655
-0.0163653
-0.0162983
-0.0162986
-0.0163653
-0.0162985
-0.0162753
-0.0162204
-0.0162095
-0.0162649
-0.0162101
-0.0162649
-0.0162755
-0.016276
-0.0162092
-0.0162093
-0.016276
-0.0162759
-0.0162091
-0.0162094
-0.0162759
-0.016299
-0.0163096
-0.0163544
-0.016365
-0.0163097
-0.0162989
-0.0163647
-0.016299
-0.0163097
-0.0163543
-0.016365
-0.0163097
-0.0162989
-0.0163646
-0.0162985
-0.0163653
-0.0162986
-0.0163652
-0.0162985
-0.0163653
-0.0162984
-0.0163652
-0.016209
-0.0162762
-0.0162091
-0.0162759
-0.0162982
-0.0163654
-0.0163653
-0.0162981
-0.0162986
-0.0163654
-0.0162983
-0.0163653
-0.0162984
-0.0163878
-0.0164546
-0.0163876
-0.0164547
-0.0163878
-0.0163876
-0.0164547
-0.0164546
-0.0164547
-0.0165439
-0.0164771
-0.016544
-0.0164769
-0.0164766
-0.0165439
-0.0165441
-0.0164771
-0.0164769
-0.0164545
-0.0163878
-0.0163878
-0.0164545
-0.0164539
-0.0163881
-0.0163988
-0.0164434
-0.0163884
-0.0164541
-0.0164436
-0.016454
-0.0163881
-0.0163987
-0.0164435
-0.0163884
-0.0164542
-0.0164435
-0.0164771
-0.0165439
-0.0164771
-0.0165439
-0.0164771
-0.0165439
-0.0164771
-0.0165439
-0.0164776
-0.016488
-0.0165436
-0.0165329
-0.0164774
-0.0164881
-0.0165432
-0.0164776
-0.0164881
-0.0165436
-0.016533
-0.0164775
-0.0164881
-0.0165433
-0.0163878
-0.0163876
-0.0164548
-0.0164546
-0.0164548
-0.0163876
-0.0164547
-0.0165439
-0.0164771
-0.0164767
-0.0165439
-0.016544
-0.0164771
-0.0164769
-0.016544
-0.0164769
-0.0164547
-0.0163878
-0.0163987
-0.0164434
-0.0163877
-0.0164545
-0.0164434
-0.016455
-0.0163876
-0.0163873
-0.0164547
-0.0164547
-0.0163987
-0.0163877
-0.0164435
-0.0163877
-0.0164435
-0.0164545
-0.0164766
-0.0165441
-0.0164769
-0.0165444
-0.016477
-0.0164881
-0.0165439
-0.016533
-0.0164771
-0.0164881
-0.016544
-0.0164766
-0.0165441
-0.0164769
-0.0165444
-0.016477
-0.0164882
-0.016533
-0.016544
-0.0164881
-0.0164772
-0.016544
-0.016455
-0.0163876
-0.0163873
-0.0164548
-0.0164547
-0.0163987
-0.0163878
-0.0164435
-0.0163877
-0.0164435
-0.0164546
-0.0164551
-0.0163876
-0.0163873
-0.0164548
-0.016477
-0.0164881
-0.0165438
-0.0165329
-0.0164771
-0.016488
-0.016544
-0.0164767
-0.016544
-0.0164769
-0.0165444
-0.016477
-0.0164882
-0.016533
-0.0165439
-0.0164881
-0.0164772
-0.0165439
-0.0164767
-0.0165441
-0.0164769
-0.0165444
-0.0163876
-0.0163878
-0.0164549
-0.0164548
-0.0164546
-0.0163878
-0.0164546
-0.0165441
-0.0164769
-0.0164768
-0.0165442
-0.016544
-0.0164769
-0.0164772
-0.016544
-0.0164772
-0.0164541
-0.0163987
-0.0163882
-0.0164436
-0.0163884
-0.0164435
-0.0164543
-0.0164547
-0.0163878
-0.0163879
-0.0164546
-0.0164547
-0.0163878
-0.0163879
-0.0164546
-0.0164777
-0.0164883
-0.016533
-0.0165436
-0.0164881
-0.0164775
-0.0165433
-0.0164778
-0.0164882
-0.016533
-0.0165436
-0.0164882
-0.0164775
-0.0165433
-0.0164772
-0.0165439
-0.0164772
-0.0165439
-0.0164773
-0.0165439
-0.0164772
-0.0165439
-0.0163876
-0.0164547
-0.0163878
-0.0164546
-0.0164768
-0.016544
-0.016544
-0.0164769
-0.0164771
-0.016544
-0.0164769
-0.0165439
-0.0164771
-0.0165664
-0.0166333
-0.0165662
-0.0166334
-0.0165664
-0.0165662
-0.0166335
-0.0166333
-0.0166334
-0.0167226
-0.0166558
-0.0167228
-0.0166557
-0.0166554
-0.0167227
-0.0167228
-0.0166558
-0.0166557
-0.0166333
-0.0165664
-0.0165665
-0.0166332
-0.0166326
-0.0165668
-0.0165772
-0.0166221
-0.0165671
-0.016633
-0.0166221
-0.0166327
-0.0165668
-0.0165772
-0.0166221
-0.0165671
-0.0166328
-0.0166221
-0.0166558
-0.0167226
-0.0166558
-0.0167226
-0.0166558
-0.0167226
-0.0166558
-0.0167226
-0.0166564
-0.0166668
-0.0167223
-0.0167118
-0.0166562
-0.0166667
-0.0167221
-0.0166563
-0.0166668
-0.0167223
-0.0167118
-0.0166562
-0.0166667
-0.0167221
-0.0165664
-0.0165661
-0.0166335
-0.0166331
-0.0166335
-0.0165662
-0.0166334
-0.0167226
-0.0166558
-0.0166553
-0.0167226
-0.0167228
-0.0166558
-0.0166556
-0.0167227
-0.0166556
-0.0166333
-0.0165665
-0.0165773
-0.0166221
-0.0165664
-0.0166333
-0.0166222
-0.0166337
-0.0165663
-0.0165661
-0.0166335
-0.0166334
-0.0165773
-0.0165666
-0.0166222
-0.0165664
-0.0166223
-0.0166333
-0.0166553
-0.0167228
-0.0166556
-0.0167231
-0.0166557
-0.0166669
-0.0167227
-0.0167119
-0.0166559
-0.0166667
-0.0167227
-0.0166554
-0.0167228
-0.0166556
-0.0167231
-0.0166557
-0.0166669
-0.0167118
-0.0167227
-0.0166668
-0.0166559
-0.0167228
-0.0166337
-0.0165662
-0.016566
-0.0166334
-0.0166334
-0.0165772
-0.0165665
-0.0166223
-0.0165664
-0.0166223
-0.0166333
-0.0166337
-0.0165662
-0.016566
-0.0166334
-0.0166556
-0.0166668
-0.0167226
-0.0167117
-0.0166558
-0.0166667
-0.0167227
-0.0166553
-0.0167228
-0.0166556
-0.0167231
-0.0166557
-0.0166667
-0.0167118
-0.0167226
-0.0166668
-0.0166558
-0.0167227
-0.0166553
-0.0167228
-0.0166556
-0.0167231
-0.0165663
-0.0165664
-0.0166336
-0.0166335
-0.0166332
-0.0165665
-0.0166332
-0.0167228
-0.0166556
-0.0166554
-0.0167229
-0.0167226
-0.0166556
-0.0166558
-0.0167226
-0.0166558
-0.0166327
-0.0165774
-0.0165669
-0.0166222
-0.016567
-0.0166223
-0.0166329
-0.0166333
-0.0165665
-0.0165665
-0.0166332
-0.0166332
-0.0165665
-0.0165666
-0.0166332
-0.0166564
-0.016667
-0.0167118
-0.0167223
-0.0166668
-0.0166561
-0.016722
-0.0166564
-0.016667
-0.0167118
-0.0167223
-0.0166669
-0.0166562
-0.0167221
-0.0166559
-0.0167226
-0.0166558
-0.0167226
-0.0166559
-0.0167226
-0.0166558
-0.0167227
-0.0165662
-0.0166334
-0.0165664
-0.0166332
-0.0166554
-0.0167228
-0.0167227
-0.0166554
-0.0166559
-0.0167227
-0.0166556
-0.0167227
-0.0166558
-0.0167452
-0.016812
-0.016745
-0.0168122
-0.0167452
-0.016745
-0.0168124
-0.016812
-0.0168122
-0.0169015
-0.0168346
-0.0169017
-0.0168345
-0.016834
-0.0169016
-0.0169017
-0.0168346
-0.0168345
-0.016812
-0.0167452
-0.0167452
-0.016812
-0.0168114
-0.0167455
-0.016756
-0.0168011
-0.0167458
-0.0168116
-0.0168012
-0.0168114
-0.0167455
-0.016756
-0.016801
-0.0167457
-0.0168117
-0.0168012
-0.0168345
-0.0169015
-0.0168346
-0.0169015
-0.0168346
-0.0169015
-0.0168346
-0.0169015
-0.0168352
-0.0168457
-0.0169013
-0.0168908
-0.016835
-0.0168455
-0.0169009
-0.0168351
-0.0168457
-0.0169013
-0.0168908
-0.016835
-0.0168455
-0.0169009
-0.0167451
-0.016745
-0.0168124
-0.0168121
-0.0168122
-0.016745
-0.0168122
-0.0169015
-0.0168346
-0.016834
-0.0169016
-0.0169017
-0.0168346
-0.0168345
-0.0169017
-0.0168345
-0.0168121
-0.0167453
-0.016756
-0.016801
-0.0167452
-0.016812
-0.0168011
-0.0168125
-0.016745
-0.0167448
-0.0168122
-0.0168121
-0.016756
-0.0167452
-0.016801
-0.0167452
-0.0168011
-0.0168121
-0.0168341
-0.0169017
-0.0168344
-0.016902
-0.0168345
-0.0168456
-0.0169015
-0.0168908
-0.0168347
-0.0168454
-0.0169015
-0.0168341
-0.0169017
-0.0168344
-0.016902
-0.0168345
-0.0168457
-0.0168908
-0.0169015
-0.0168454
-0.0168347
-0.0169015
-0.0168125
-0.016745
-0.0167448
-0.0168122
-0.0168121
-0.016756
-0.0167452
-0.0168011
-0.0167451
-0.0168012
-0.0168121
-0.0168125
-0.016745
-0.0167448
-0.0168123
-0.0168344
-0.0168456
-0.0169015
-0.0168908
-0.0168347
-0.0168454
-0.0169015
-0.0168341
-0.0169017
-0.0168344
-0.016902
-0.0168345
-0.0168457
-0.0168908
-0.0169016
-0.0168455
-0.0168347
-0.0169015
-0.0168341
-0.0169017
-0.0168345
-0.016902
-0.0167451
-0.0167452
-0.0168124
-0.0168123
-0.0168121
-0.0167452
-0.0168121
-0.0169017
-0.0168345
-0.0168341
-0.0169017
-0.0169014
-0.0168344
-0.0168347
-0.0169015
-0.0168346
-0.0168115
-0.016756
-0.0167456
-0.0168011
-0.0167458
-0.0168012
-0.0168118
-0.016812
-0.0167452
-0.0167453
-0.0168121
-0.0168121
-0.0167452
-0.0167453
-0.0168121
-0.0168352
-0.0168457
-0.0168907
-0.0169011
-0.0168455
-0.0168351
-0.0169009
-0.0168352
-0.0168458
-0.0168907
-0.0169012
-0.0168455
-0.016835
-0.0169008
-0.0168347
-0.0169015
-0.0168347
-0.0169014
-0.0168347
-0.0169015
-0.0168347
-0.0169015
-0.016745
-0.0168122
-0.0167452
-0.0168121
-0.016834
-0.0169017
-0.0169016
-0.0168344
-0.0168346
-0.0169017
-0.0168345
-0.0169015
-0.0168346
-0.0169241
-0.0169911
-0.016924
-0.0169911
-0.0169241
-0.0169239
-0.0169914
-0.0169911
-0.0169912
-0.0170805
-0.0170137
-0.0170806
-0.0170135
-0.0170125
-0.0170806
-0.0170807
-0.0170137
-0.0170134
-0.0169911
-0.0169241
-0.0169242
-0.016991
-0.0169904
-0.0169246
-0.0169347
-0.01698
-0.0169247
-0.0169908
-0.0169802
-0.0169904
-0.0169245
-0.0169347
-0.0169801
-0.0169246
-0.0169907
-0.0169803
-0.0170137
-0.0170805
-0.0170137
-0.0170805
-0.0170137
-0.0170804
-0.0170137
-0.0170805
-0.0170141
-0.0170245
-0.0170802
-0.01707
-0.0170141
-0.0170242
-0.0170798
-0.0170141
-0.0170245
-0.0170802
-0.01707
-0.0170141
-0.0170242
-0.0170798
-0.0169241
-0.0169239
-0.0169914
-0.0169909
-0.0169914
-0.016924
-0.0169912
-0.0170804
-0.0170136
-0.0170125
-0.0170805
-0.0170806
-0.0170137
-0.0170134
-0.0170806
-0.0170135
-0.0169909
-0.0169242
-0.0169346
-0.01698
-0.016924
-0.016991
-0.0169803
-0.0169914
-0.0169239
-0.0169237
-0.0169912
-0.016991
-0.0169347
-0.0169242
-0.0169799
-0.016924
-0.0169803
-0.016991
-0.0170131
-0.0170807
-0.0170135
-0.0170809
-0.0170133
-0.0170245
-0.0170805
-0.01707
-0.0170138
-0.0170242
-0.0170804
-0.0170131
-0.0170806
-0.0170134
-0.0170809
-0.0170133
-0.0170245
-0.01707
-0.0170805
-0.0170242
-0.0170137
-0.0170804
-0.0169915
-0.0169239
-0.0169237
-0.0169912
-0.0169911
-0.0169347
-0.0169242
-0.0169801
-0.016924
-0.0169803
-0.016991
-0.0169915
-0.0169239
-0.0169237
-0.0169912
-0.0170134
-0.0170245
-0.0170805
-0.0170699
-0.0170137
-0.0170242
-0.0170804
-0.0170131
-0.0170806
-0.0170134
-0.0170809
-0.0170134
-0.0170244
-0.01707
-0.0170805
-0.0170242
-0.0170136
-0.0170804
-0.0170131
-0.0170806
-0.0170134
-0.0170809
-0.0169239
-0.016924
-0.0169913
-0.0169912
-0.0169908
-0.016924
-0.0169909
-0.0170806
-0.0170134
-0.0170126
-0.0170807
-0.0170804
-0.0170134
-0.0170135
-0.0170804
-0.0170135
-0.0169903
-0.0169347
-0.0169246
-0.0169799
-0.0169246
-0.0169801
-0.0169906
-0.0169909
-0.016924
-0.0169241
-0.0169908
-0.0169909
-0.0169241
-0.0169241
-0.0169909
-0.017014
-0.0170246
-0.0170698
-0.0170801
-0.0170242
-0.0170139
-0.0170797
-0.017014
-0.0170246
-0.0170699
-0.0170802
-0.0170243
-0.0170141
-0.0170796
-0.0170135
-0.0170804
-0.0170135
-0.0170804
-0.0170135
-0.0170804
-0.0170136
-0.0170804
-0.0169239
-0.0169912
-0.0169241
-0.0169909
-0.0170126
-0.0170806
-0.0170805
-0.0170133
-0.0170137
-0.0170805
-0.0170134
-0.0170804
-0.0170136
-0.0171031
-0.0171699
-0.017103
-0.01717
-0.0171031
-0.0171029
-0.0171704
-0.0171699
-0.0171701
-0.0172594
-0.0171926
-0.0172594
-0.0171925
-0.0171907
-0.0172594
-0.0172595
-0.0171926
-0.0171925
-0.0171699
-0.0171031
-0.0171032
-0.0171699
-0.0171691
-0.0171036
-0.0171134
-0.0171592
-0.0171036
-0.0171696
-0.0171596
-0.0171691
-0.0171035
-0.0171134
-0.0171591
-0.0171035
-0.0171697
-0.0171595
-0.0171926
-0.0172593
-0.0171926
-0.0172594
-0.0171926
-0.0172594
-0.0171927
-0.0172594
-0.0171928
-0.0172033
-0.0172592
-0.0172493
-0.0171931
-0.017203
-0.0172586
-0.0171928
-0.0172034
-0.0172592
-0.0172493
-0.0171932
-0.0172029
-0.0172586
-0.017103
-0.0171029
-0.0171704
-0.01717
-0.0171701
-0.0171029
-0.01717
-0.0172594
-0.0171927
-0.0171908
-0.0172595
-0.0172596
-0.0171927
-0.0171925
-0.0172595
-0.0171925
-0.0171698
-0.0171033
-0.0171134
-0.0171592
-0.0171029
-0.0171699
-0.0171596
-0.0171704
-0.0171029
-0.0171026
-0.0171701
-0.0171698
-0.0171134
-0.0171032
-0.017159
-0.0171028
-0.0171595
-0.01717
-0.0171921
-0.0172595
-0.0171924
-0.0172598
-0.0171922
-0.0172033
-0.0172594
-0.0172494
-0.0171928
-0.0172027
-0.0172592
-0.0171921
-0.0172595
-0.0171924
-0.0172598
-0.0171921
-0.0172034
-0.0172494
-0.0172595
-0.0172029
-0.0171928
-0.0172592
-0.0171704
-0.0171029
-0.0171026
-0.0171701
-0.0171698
-0.0171135
-0.0171032
-0.0171591
-0.0171028
-0.0171595
-0.0171699
-0.0171703
-0.0171029
-0.0171026
-0.01717
-0.0171922
-0.0172034
-0.0172595
-0.0172494
-0.0171928
-0.0172028
-0.0172592
-0.0171921
-0.0172595
-0.0171925
-0.0172599
-0.0171922
-0.0172034
-0.0172494
-0.0172594
-0.0172029
-0.0171928
-0.0172592
-0.0171921
-0.0172595
-0.0171924
-0.0172599
-0.0171029
-0.0171031
-0.0171704
-0.0171702
-0.01717
-0.0171031
-0.01717
-0.0172594
-0.0171924
-0.017191
-0.0172596
-0.0172594
-0.0171924
-0.0171927
-0.0172593
-0.0171927
-0.0171692
-0.0171136
-0.0171036
-0.017159
-0.0171035
-0.0171594
-0.0171697
-0.0171699
-0.0171031
-0.0171031
-0.0171699
-0.0171699
-0.0171031
-0.0171031
-0.0171699
-0.0171929
-0.0172036
-0.0172491
-0.0172591
-0.017203
-0.0171931
-0.0172586
-0.0171929
-0.0172034
-0.0172492
-0.0172592
-0.017203
-0.0171932
-0.0172586
-0.0171926
-0.0172593
-0.0171927
-0.0172594
-0.0171927
-0.0172594
-0.0171927
-0.0172594
-0.0171029
-0.01717
-0.0171031
-0.0171699
-0.0171909
-0.0172595
-0.0172595
-0.0171924
-0.0171927
-0.0172595
-0.0171925
-0.0172594
-0.0171927
-0.0172822
-0.0173487
-0.0172819
-0.0173488
-0.0172821
-0.0172819
-0.0173496
-0.0173488
-0.0173489
-0.017438
-0.0173717
-0.0174381
-0.0173715
-0.0173681
-0.0174382
-0.0174383
-0.0173717
-0.0173715
-0.0173489
-0.0172822
-0.0172822
-0.0173487
-0.0173478
-0.0172827
-0.017292
-0.0173385
-0.0172824
-0.0173486
-0.0173389
-0.0173478
-0.0172828
-0.017292
-0.0173385
-0.0172824
-0.0173485
-0.0173391
-0.0173716
-0.017438
-0.0173717
-0.0174381
-0.0173717
-0.017438
-0.0173718
-0.0174381
-0.0173715
-0.0173817
-0.017438
-0.0174289
-0.0173723
-0.0173812
-0.0174369
-0.0173715
-0.0173818
-0.0174381
-0.0174289
-0.0173723
-0.0173813
-0.0174369
-0.0172822
-0.017282
-0.0173496
-0.0173487
-0.0173492
-0.017282
-0.017349
-0.0174381
-0.0173717
-0.0173682
-0.0174382
-0.0174384
-0.0173717
-0.0173716
-0.0174382
-0.0173716
-0.0173485
-0.0172823
-0.0172919
-0.0173385
-0.0172815
-0.0173488
-0.0173391
-0.0173492
-0.0172819
-0.0172816
-0.0173489
-0.0173484
-0.0172919
-0.0172823
-0.0173385
-0.0172816
-0.0173391
-0.0173488
-0.0173711
-0.0174382
-0.0173715
-0.0174386
-0.0173707
-0.0173817
-0.0174383
-0.0174292
-0.0173719
-0.0173811
-0.0174376
-0.0173711
-0.0174382
-0.0173715
-0.0174386
-0.0173707
-0.0173819
-0.017429
-0.0174383
-0.0173812
-0.0173719
-0.0174376
-0.0173493
-0.017282
-0.0172817
-0.017349
-0.0173485
-0.0172919
-0.0172823
-0.0173384
-0.0172816
-0.017339
-0.017349
-0.0173493
-0.017282
-0.0172817
-0.0173489
-0.0173707
-0.0173818
-0.0174384
-0.017429
-0.017372
-0.0173811
-0.0174376
-0.0173712
-0.0174383
-0.0173716
-0.0174387
-0.0173708
-0.0173818
-0.017429
-0.0174383
-0.0173811
-0.017372
-0.0174376
-0.0173712
-0.0174383
-0.0173716
-0.0174387
-0.0172819
-0.0172821
-0.0173495
-0.017349
-0.0173488
-0.0172821
-0.0173488
-0.0174382
-0.0173716
-0.0173684
-0.0174384
-0.0174382
-0.0173715
-0.0173718
-0.0174381
-0.0173718
-0.0173478
-0.0172922
-0.0172828
-0.0173383
-0.0172824
-0.0173388
-0.0173486
-0.0173488
-0.0172822
-0.0172822
-0.0173487
-0.0173488
-0.0172822
-0.0172822
-0.0173487
-0.0173716
-0.017382
-0.0174287
-0.0174381
-0.0173814
-0.0173724
-0.0174368
-0.0173716
-0.0173821
-0.0174286
-0.017438
-0.0173815
-0.0173724
-0.0174368
-0.0173717
-0.0174381
-0.0173718
-0.0174381
-0.0173717
-0.017438
-0.0173718
-0.0174381
-0.017282
-0.0173489
-0.0172822
-0.0173487
-0.0173684
-0.0174383
-0.0174382
-0.0173714
-0.0173719
-0.0174382
-0.0173716
-0.0174381
-0.0173718
-0.0174613
-0.0175272
-0.0174611
-0.0175274
-0.0174612
-0.017461
-0.0175289
-0.0175274
-0.0175275
-0.0176164
-0.0175509
-0.0176165
-0.0175507
-0.0175432
-0.0176166
-0.0176168
-0.0175508
-0.0175506
-0.0175274
-0.0174612
-0.0174611
-0.0175272
-0.0175257
-0.0174619
-0.0174699
-0.0175186
-0.0174605
-0.0175273
-0.0175188
-0.0175256
-0.0174619
-0.01747
-0.0175185
-0.0174605
-0.0175273
-0.0175188
-0.0175504
-0.0176165
-0.0175508
-0.0176167
-0.0175504
-0.0176164
-0.0175508
-0.0176167
-0.0175491
-0.0175585
-0.0176167
-0.0176093
-0.0175516
-0.0175585
-0.0176143
-0.0175492
-0.0175587
-0.0176167
-0.0176093
-0.0175515
-0.0175586
-0.0176143
-0.0174612
-0.0174611
-0.0175288
-0.0175274
-0.0175275
-0.0174611
-0.0175273
-0.0176163
-0.0175508
-0.0175432
-0.0176166
-0.0176167
-0.0175507
-0.0175505
-0.0176164
-0.0175506
-0.0175264
-0.0174616
-0.0174698
-0.0175187
-0.0174598
-0.0175276
-0.0175191
-0.0175279
-0.0174611
-0.0174606
-0.0175274
-0.0175264
-0.0174699
-0.0174615
-0.0175186
-0.0174598
-0.0175189
-0.0175276
-0.01755
-0.0176167
-0.0175506
-0.0176171
-0.0175484
-0.0175585
-0.017617
-0.0176097
-0.0175512
-0.0175583
-0.017615
-0.01755
-0.0176166
-0.0175506
-0.0176171
-0.0175484
-0.0175588
-0.0176095
-0.017617
-0.0175584
-0.0175512
-0.017615
-0.0175279
-0.0174611
-0.0174606
-0.0175274
-0.0175264
-0.01747
-0.0174616
-0.0175185
-0.0174598
-0.0175189
-0.0175275
-0.0175278
-0.0174611
-0.0174606
-0.0175274
-0.0175484
-0.0175587
-0.0176169
-0.0176096
-0.0175511
-0.0175584
-0.0176151
-0.0175499
-0.0176165
-0.0175505
-0.0176171
-0.0175484
-0.0175588
-0.0176094
-0.017617
-0.0175585
-0.0175511
-0.0176149
-0.0175499
-0.0176166
-0.0175505
-0.0176171
-0.0174611
-0.0174612
-0.0175288
-0.0175276
-0.0175274
-0.0174613
-0.0175272
-0.0176165
-0.0175507
-0.0175435
-0.0176168
-0.0176166
-0.0175506
-0.0175508
-0.0176164
-0.0175508
-0.0175258
-0.0174702
-0.0174619
-0.0175183
-0.0174606
-0.0175184
-0.0175274
-0.0175275
-0.0174613
-0.0174611
-0.0175273
-0.0175275
-0.0174613
-0.0174611
-0.0175273
-0.0175493
-0.0175589
-0.017609
-0.0176168
-0.0175588
-0.0175516
-0.0176143
-0.0175493
-0.017559
-0.017609
-0.0176168
-0.0175589
-0.0175517
-0.0176143
-0.0175505
-0.0176165
-0.0175508
-0.0176167
-0.0175505
-0.0176165
-0.0175509
-0.0176167
-0.0174611
-0.0175273
-0.0174613
-0.0175273
-0.0175436
-0.0176167
-0.0176167
-0.0175506
-0.0175508
-0.0176165
-0.0175506
-0.0176164
-0.0175509
-0.0176405
-0.0177053
-0.0176404
-0.0177055
-0.0176405
-0.0176403
-0.0177088
-0.0177057
-0.0177058
-0.0177943
-0.0177304
-0.0177945
-0.0177303
-0.0177133
-0.0177947
-0.0177949
-0.0177303
-0.0177302
-0.017706
-0.0176403
-0.0176397
-0.0177055
-0.0177023
-0.0176413