/*--------------------------------*- C++ -*----------------------------------*\
| =========                 |                                                 |
| \\      /  F ield         | OpenFOAM: The Open Source CFD Toolbox           |
|  \\    /   O peration     | Version:  2206                                  |
|   \\  /    A nd           | Website:  www.openfoam.com                      |
|    \\/     M anipulation  |                                                 |
\*---------------------------------------------------------------------------*/
FoamFile
{
    version     2.0;
    format      ascii;
    arch        "LSB;label=32;scalar=64";
    class       surfaceScalarField;
    location    "120";
    object      phi;
}
// * * * * * * * * * * * * * * * * * * * * * * * * * * * * * * * * * * * * * //

dimensions      [0 3 -1 0 0 0 0];

oriented        oriented;

internalField   nonuniform List<scalar> 
199822
(
-3.28621e-12
-2.5689e-12
-1.24415e-07
3.18923e-12
3.01328e-12
1.24415e-07
-1.14976e-07
-2.89422e-11
-1.1491e-12
-3.22357e-12
1.14974e-07
4.00777e-11
3.00077e-11
-3.4945e-11
-6.74497e-11
6.55103e-11
6.93035e-11
-6.71102e-11
-1.1619e-07
-3.47138e-11
4.62442e-12
-3.33528e-12
1.1619e-07
2.72115e-11
3.47527e-11
-2.68912e-11
-1.3218e-11
3.54967e-11
1.25271e-11
-3.694e-11
-2.7619e-08
-1.32771e-10
1.74623e-10
-6.67585e-11
1.75549e-10
2.74684e-08
-3.99086e-12
-4.55448e-12
-1.24414e-07
3.39809e-12
3.43604e-12
1.24416e-07
-1.14974e-07
-2.86712e-11
2.47068e-12
-5.09179e-12
1.14973e-07
3.97125e-11
3.05076e-11
-3.89528e-11
-6.77351e-11
6.52616e-11
6.87182e-11
-6.51001e-11
-1.16183e-07
-3.40754e-11
6.74511e-12
-2.77175e-12
1.1618e-07
2.69638e-11
3.50612e-11
-2.72816e-11
-1.33614e-11
3.57087e-11
1.27158e-11
-3.71125e-11
-2.76185e-08
4.09974e-11
1.43037e-11
7.02032e-11
2.61011e-11
2.74669e-08
-8.15898e-12
-5.49066e-12
-1.24417e-07
6.0036e-12
6.969e-12
1.24418e-07
-1.14969e-07
-2.8686e-11
3.32846e-12
-6.15012e-12
1.14968e-07
4.0197e-11
3.03204e-11
-3.47885e-11
-6.80538e-11
6.45675e-11
6.84451e-11
-6.77197e-11
-1.16177e-07
-3.41394e-11
8.66476e-12
-8.11761e-12
1.16177e-07
2.71716e-11
3.5072e-11
-2.70753e-11
-1.32038e-11
3.59588e-11
1.27787e-11
-3.67169e-11
-2.76197e-08
-1.33267e-10
1.7482e-10
-6.75043e-11
1.76158e-10
2.74695e-08
-1.32773e-11
-9.23595e-12
-1.24413e-07
1.07576e-11
1.15009e-11
1.24413e-07
-1.14966e-07
-2.84051e-11
8.0436e-12
-1.04259e-11
1.14967e-07
3.99097e-11
3.04581e-11
-3.85912e-11
-6.85083e-11
6.45525e-11
6.81013e-11
-6.58572e-11
-1.16176e-07
-3.38815e-11
1.37894e-11
-1.17242e-11
1.16176e-07
2.74404e-11
3.50714e-11
-2.6475e-11
-1.40177e-11
3.51543e-11
1.23849e-11
-3.7676e-11
-2.76212e-08
4.03047e-11
1.36626e-11
7.04703e-11
2.65192e-11
2.74703e-08
-2.06939e-11
-1.67725e-11
-1.2441e-07
1.95132e-11
1.88714e-11
1.24409e-07
-1.14962e-07
-2.82707e-11
1.34473e-11
-1.70947e-11
1.14963e-07
4.05139e-11
3.06644e-11
-3.42098e-11
-6.91273e-11
6.40641e-11
6.79496e-11
-6.88783e-11
-1.16173e-07
-3.3334e-11
2.36779e-11
-2.17776e-11
1.16174e-07
2.78445e-11
3.54476e-11
-2.6215e-11
-1.47792e-11
3.50145e-11
1.1658e-11
-3.84473e-11
-2.76207e-08
-1.33594e-10
1.73997e-10
-6.69732e-11
1.76403e-10
2.74709e-08
-3.31606e-11
-2.92609e-11
-1.2441e-07
3.33665e-11
3.32101e-11
1.24406e-07
-1.14958e-07
-2.76056e-11
2.78098e-11
-3.01006e-11
1.14964e-07
4.10047e-11
3.12059e-11
-3.76309e-11
-7.15572e-11
6.31201e-11
6.63253e-11
-6.85288e-11
-1.16174e-07
-3.25207e-11
3.91149e-11
-3.62634e-11
1.16177e-07
2.87699e-11
3.64495e-11
-2.52095e-11
-1.70519e-11
3.33378e-11
1.04183e-11
-4.05477e-11
-2.76213e-08
3.96433e-11
1.27949e-11
7.06704e-11
2.69963e-11
2.74712e-08
-5.66616e-11
-4.74968e-11
-1.24417e-07
5.99293e-11
5.86412e-11
1.24403e-07
-1.14957e-07
-2.646e-11
4.52593e-11
-5.49736e-11
1.14973e-07
4.28129e-11
3.27031e-11
-3.17158e-11
-7.46031e-11
6.07167e-11
6.4402e-11
-7.40411e-11
-1.16173e-07
-3.14338e-11
6.45381e-11
-6.87202e-11
1.16188e-07
3.00261e-11
3.78033e-11
-2.38988e-11
-1.99001e-11
3.19449e-11
8.39237e-12
-4.33847e-11
-2.762e-08
-1.35224e-10
1.72296e-10
-6.62203e-11
1.77112e-10
2.74721e-08
-8.59731e-11
-7.25695e-11
-1.24433e-07
1.01889e-10
1.01265e-10
1.24388e-07
-1.1495e-07
-2.39643e-11
6.67612e-11
-1.09401e-10
1.15002e-07
4.61149e-11
3.67875e-11
-3.0595e-11
-7.92068e-11
5.65909e-11
6.03254e-11
-7.59522e-11
-1.16165e-07
-2.94795e-11
1.02709e-10
-1.27159e-10
1.16208e-07
3.34966e-11
4.13051e-11
-1.92061e-11
-2.60053e-11
2.68179e-11
3.37219e-12
-4.8544e-11
-2.76162e-08
3.65502e-11
9.51556e-12
7.16626e-11
2.79707e-11
2.74705e-08
-9.88909e-11
-7.25825e-11
-1.24459e-07
1.35694e-10
1.43713e-10
1.24351e-07
-1.14912e-07
-2.13212e-11
6.22214e-11
-2.201e-10
1.15078e-07
5.08179e-11
4.84191e-11
-1.376e-11
-8.43861e-11
4.63979e-11
4.91832e-11
-8.37946e-11
-1.16126e-07
-2.72756e-11
1.27218e-10
-2.48651e-10
1.16276e-07
3.76153e-11
5.13759e-11
-7.47771e-12
-3.22398e-11
1.52504e-11
-9.24926e-12
-5.57845e-11
-2.76096e-08
-1.39322e-10
1.68096e-10
-6.74256e-11
1.75835e-10
2.74724e-08
5.2544e-11
1.05178e-10
-1.24451e-07
-1.69734e-11
1.46568e-11
1.24295e-07
-1.14742e-07
-2.60867e-11
-1.13665e-10
-4.31454e-10
1.15296e-07
4.85393e-11
8.37445e-11
1.97085e-11
-8.0254e-11
1.55304e-11
1.39905e-11
-8.39544e-11
-1.15967e-07
-3.3652e-11
-1.00181e-11
-4.69362e-10
1.16486e-07
3.49819e-11
8.32793e-11
2.67604e-11
-3.01673e-11
-1.60089e-11
-4.52109e-11
-5.87612e-11
-2.75923e-08
4.01069e-11
1.45238e-11
5.4324e-11
1.42612e-11
2.74691e-08
4.70125e-10
1.45845e-09
-1.23813e-07
-1.22994e-09
-1.52691e-09
1.24641e-07
-1.14041e-07
-4.41413e-11
-1.48781e-09
-7.07688e-10
1.15781e-07
3.19802e-11
2.69899e-10
1.84794e-10
7.84693e-11
-2.50561e-11
-5.16894e-11
1.12268e-11
-1.1529e-07
-5.1859e-11
-4.59095e-10
1.6762e-10
1.1663e-07
2.04402e-11
2.60362e-10
1.06377e-10
-3.25373e-10
-1.90822e-10
-5.97807e-10
-2.69933e-10
-2.75447e-08
-1.12092e-10
1.92678e-10
-1.11682e-10
1.28932e-10
2.74469e-08
1.1912e-09
1.29108e-09
-1.35875e-07
-9.51738e-09
-9.57481e-09
3.20831e-08
3.17891e-08
3.20776e-08
3.20846e-08
2.412e-09
5.43252e-09
4.40303e-09
2.45251e-09
5.38728e-09
4.36277e-09
-2.74769e-08
-2.85978e-09
-4.52009e-10
-3.08866e-09
1.46298e-09
3.24143e-08
-2.63136e-08
-1.29797e-09
-2.41362e-09
6.83737e-10
-2.6532e-09
3.19946e-08
-2.74174e-08
2.41664e-09
2.42165e-09
-2.5781e-09
-2.27618e-09
2.74335e-08
-2.55403e-11
-2.96753e-11
2.76089e-08
-2.74579e-08
-4.85256e-11
-4.72792e-11
1.17305e-07
-1.49588e-12
-1.17305e-07
1.02381e-12
-2.57518e-11
-2.3409e-11
2.26468e-11
-1.0022e-11
-3.49861e-11
3.52307e-11
1.20057e-11
2.57042e-11
1.173e-07
-8.71448e-13
-1.17302e-07
8.27144e-13
-2.49508e-11
-2.39283e-11
2.41271e-11
-1.05215e-11
-3.46545e-11
3.52026e-11
1.13944e-11
-2.96699e-11
2.76021e-08
-2.74509e-08
-4.8412e-11
-4.73887e-11
1.15039e-07
-2.4854e-12
-1.1504e-07
5.03964e-13
-2.93047e-11
-3.90546e-11
3.91993e-11
6.87681e-11
-6.43412e-11
6.50699e-11
-6.71969e-11
1.88016e-11
1.16057e-07
-1.26101e-12
-1.16059e-07
4.26506e-13
-1.81211e-11
-3.65023e-11
4.01902e-11
4.88589e-11
-6.38336e-11
6.14966e-11
-4.76511e-11
-4.28503e-12
-1.14976e-07
9.87089e-13
-2.92836e-11
-3.91227e-11
3.95159e-11
6.89844e-11
-6.45305e-11
-6.69233e-11
6.54349e-11
4.19359e-11
1.16037e-07
5.18103e-11
-1.16091e-07
-2.48209e-11
-1.65321e-11
-3.5983e-11
3.53949e-11
4.88882e-11
-6.26768e-11
6.46913e-11
-4.82222e-11
-3.45394e-11
2.76043e-08
-2.74544e-08
-5.55735e-11
-4.10289e-11
-6.67495e-14
-1.1619e-07
1.96411e-12
-3.45151e-11
-2.71e-11
2.33083e-11
1.37462e-11
-3.69817e-11
-1.2865e-11
3.87519e-11
1.42883e-11
1.16307e-07
-7.22372e-11
-1.16249e-07
3.44004e-11
-3.60807e-11
-2.69622e-11
2.76847e-11
1.35493e-11
-3.73358e-11
3.60724e-11
-1.20308e-11
-2.74677e-08
-6.96274e-11
-2.54764e-11
2.59081e-11
2.85935e-11
4.93165e-11
4.74644e-11
2.74576e-08
-2.58279e-11
-2.9634e-11
2.76067e-08
-2.74562e-08
-4.82084e-11
-4.68092e-11
-1.75562e-12
1.17305e-07
2.24599e-11
2.56002e-11
-2.29267e-11
1.15008e-11
3.4471e-11
-1.16862e-11
-3.54106e-11
-2.5346e-11
4.34328e-12
-1.74134e-12
1.17299e-07
2.34184e-11
2.60038e-11
-2.75084e-11
1.12536e-11
3.42865e-11
-1.12359e-11
-3.31473e-11
1.17303e-07
-3.58708e-12
-1.17304e-07
4.35474e-12
-2.5545e-11
-2.35004e-11
2.21072e-11
-1.08368e-11
-3.46849e-11
3.47726e-11
1.20145e-11
2.5329e-11
1.17294e-07
-2.74462e-12
-1.17295e-07
3.93593e-12
-2.55471e-11
-2.43635e-11
2.33569e-11
-1.07074e-11
-3.49311e-11
3.48802e-11
1.17751e-11
4.8897e-11
4.85154e-11
2.74504e-08
-2.97802e-11
2.76e-08
-2.74491e-08
-4.80138e-11
-4.78147e-11
-3.34789e-12
1.15038e-07
3.96504e-11
2.98594e-11
-3.90536e-11
-6.77914e-11
6.45107e-11
6.86095e-11
-6.48816e-11
-1.82918e-11
2.99675e-12
-2.16755e-12
1.16056e-07
3.64088e-11
1.86874e-11
-3.65923e-11
-4.81223e-11
6.38277e-11
4.85287e-11
-6.4132e-11
1.15032e-07
-3.57225e-12
-1.15034e-07
2.56129e-12
-2.87661e-11
-3.91332e-11
3.96783e-11
6.86419e-11
-6.43959e-11
6.49065e-11
-6.71761e-11
1.84185e-11
1.1605e-07
-2.87815e-12
-1.16054e-07
3.07428e-12
-1.83055e-11
-3.65981e-11
4.03254e-11
4.87316e-11
-6.34736e-11
6.20379e-11
-4.77795e-11
4.83203e-10
-1.452e-10
1.1526e-07
8.41354e-11
1.90167e-10
5.88928e-11
-5.07087e-11
6.45039e-11
-9.11369e-11
5.00683e-11
-3.31413e-12
-1.14976e-07
9.4386e-13
-2.89875e-11
-3.95807e-11
3.95392e-11
6.9409e-11
-6.44988e-11
-6.73341e-11
6.56419e-11
-1.31979e-10
1.16026e-07
-4.84108e-10
-1.15257e-07
1.49015e-10
-1.89189e-10
-8.45238e-11
-5.56103e-11
5.17906e-11
-6.41903e-11
8.89681e-11
-4.9058e-11
5.58295e-11
4.14455e-11
2.7454e-08
-3.42403e-11
2.76019e-08
-2.74527e-08
-5.53975e-11
-4.11644e-11
-5.76897e-10
1.7654e-10
1.17129e-07
-1.92074e-11
-1.30513e-10
-1.2548e-10
-9.31543e-12
3.48638e-11
-7.9858e-12
1.1328e-11
-2.04203e-12
-1.16185e-07
7.21662e-12
-3.46369e-11
-2.79308e-11
2.30772e-11
1.29106e-11
-3.6579e-11
-1.23699e-11
3.83415e-11
1.74607e-10
1.1631e-07
5.78108e-10
-1.17129e-07
-1.75972e-10
1.30525e-10
1.86576e-11
1.21672e-10
9.34598e-12
-3.57814e-11
8.65724e-12
-1.09535e-11
-2.74682e-08
6.66823e-11
-1.74375e-10
2.54911e-11
2.87413e-11
4.93708e-11
4.80111e-11
2.7455e-08
-2.5947e-11
-2.95025e-11
2.76035e-08
-2.74528e-08
-4.83184e-11
-4.69219e-11
-2.80672e-12
1.17302e-07
2.25757e-11
2.60806e-11
-2.27319e-11
1.14358e-11
3.46971e-11
-1.14559e-11
-3.51029e-11
-2.54228e-11
4.51865e-12
-3.99136e-12
1.17295e-07
2.33719e-11
2.61564e-11
-2.38384e-11
1.10433e-11
3.41299e-11
-1.14699e-11
-3.5287e-11
1.17296e-07
-4.60503e-12
-1.17299e-07
7.03016e-12
-2.53705e-11
-2.34578e-11
2.24683e-11
-1.12362e-11
-3.46751e-11
3.49022e-11
1.18994e-11
2.5418e-11
1.17295e-07
-4.86561e-12
-1.17296e-07
7.38404e-12
-2.54596e-11
-2.47079e-11
2.28859e-11
-1.09869e-11
-3.49076e-11
3.49795e-11
1.17486e-11
4.94703e-11
4.82326e-11
2.74482e-08
-2.96962e-11
2.75981e-08
-2.74471e-08
-4.82809e-11
-4.7557e-11
-3.61404e-12
1.15029e-07
3.96817e-11
2.9852e-11
-3.87832e-11
-6.77906e-11
6.44573e-11
6.8688e-11
-6.50191e-11
-1.81664e-11
3.52344e-12
-2.40206e-12
1.16048e-07
3.65052e-11
1.89855e-11
-3.62525e-11
-4.84294e-11
6.39949e-11
4.8241e-11
-6.42837e-11
1.15021e-07
-6.39923e-12
-1.15023e-07
5.95392e-12
-2.8882e-11
-3.93506e-11
3.94439e-11
6.89405e-11
-6.4296e-11
6.5116e-11
-6.74126e-11
1.87617e-11
1.16046e-07
-4.12809e-12
-1.16049e-07
4.77963e-12
-1.79601e-11
-3.68031e-11
4.01265e-11
4.86979e-11
-6.40265e-11
6.12555e-11
-4.79118e-11
-5.05374e-11
2.35637e-11
1.16078e-07
3.53384e-11
1.74258e-11
-3.59165e-11
-4.81144e-11
6.30047e-11
-6.47568e-11
4.90712e-11
-6.36483e-12
-1.14971e-07
4.30325e-12
-2.87802e-11
-3.9349e-11
3.96595e-11
6.90643e-11
-6.47387e-11
-6.72469e-11
6.55314e-11
4.23985e-11
1.16025e-07
4.86966e-11
-1.16078e-07
-2.31645e-11
-1.57012e-11
-3.61352e-11
3.54386e-11
4.89894e-11
-6.30647e-11
6.43633e-11
-4.85748e-11
5.62361e-11
4.15292e-11
2.74519e-08
-3.40745e-11
2.76004e-08
-2.74511e-08
-5.57584e-11
-4.06545e-11
7.69583e-11
-3.75478e-11
1.1625e-07
2.68498e-11
3.66044e-11
-2.68103e-11
-1.28751e-11
3.61152e-11
-3.69975e-11
1.18367e-11
-6.02173e-12
-1.16177e-07
7.57813e-12
-3.47825e-11
-2.78541e-11
2.28114e-11
1.33355e-11
-3.58953e-11
-1.21928e-11
3.87042e-11
1.38869e-11
1.16315e-07
-7.88092e-11
-1.16255e-07
4.0652e-11
-3.68591e-11
-2.68776e-11
2.66267e-11
1.29139e-11
-3.63744e-11
3.61093e-11
-1.14597e-11
-2.74683e-08
-7.04904e-11
-2.45706e-11
2.4913e-11
2.8432e-11
4.93255e-11
4.81639e-11
2.74527e-08
-2.56402e-11
-2.91249e-11
2.76035e-08
-2.74529e-08
-4.86307e-11
-4.71753e-11
-5.78693e-12
1.17293e-07
2.2885e-11
2.65055e-11
-2.23415e-11
1.11251e-11
3.42409e-11
-1.15291e-11
-3.564e-11
-2.50319e-11
7.63535e-12
-6.02554e-12
1.17296e-07
2.34568e-11
2.63791e-11
-2.73998e-11
1.08808e-11
3.41052e-11
-1.17559e-11
-3.30733e-11
1.17285e-07
-7.29733e-12
-1.17288e-07
1.0778e-11
-2.54796e-11
-2.38287e-11
2.24024e-11
-1.0944e-11
-3.48342e-11
3.47964e-11
1.17869e-11
2.56805e-11
1.1729e-07
-8.84213e-12
-1.17293e-07
1.09889e-11
-2.54646e-11
-2.46951e-11
2.31256e-11
-1.08533e-11
-3.45252e-11
3.48669e-11
1.19263e-11
4.91332e-11
4.85625e-11
2.74467e-08
-2.95114e-11
2.75977e-08
-2.74468e-08
-4.8264e-11
-4.7432e-11
-5.91981e-12
1.15019e-07
3.99788e-11
3.00143e-11
-3.85284e-11
-6.79385e-11
6.44439e-11
6.81168e-11
-6.52767e-11
-1.79395e-11
6.82167e-12
-4.54719e-12
1.16045e-07
3.6746e-11
1.90562e-11
-3.61491e-11
-4.85564e-11
6.3209e-11
4.7966e-11
-6.47476e-11
1.15014e-07
-1.0754e-11
-1.15016e-07
9.88745e-12
-2.90365e-11
-3.99944e-11
3.93425e-11
6.91625e-11
-6.4273e-11
6.5506e-11
-6.71845e-11
1.86041e-11
1.16044e-07
-8.65543e-12
-1.16046e-07
7.45138e-12
-1.80509e-11
-3.70933e-11
4.01511e-11
4.90757e-11
-6.36611e-11
6.17962e-11
-4.76003e-11
4.87331e-10
-1.51208e-10
1.15252e-07
8.42805e-11
1.90914e-10
5.91205e-11
-5.15333e-11
6.3841e-11
-9.17058e-11
4.89969e-11
-7.98471e-12
-1.14969e-07
7.63813e-12
-2.93642e-11
-4.00496e-11
3.92879e-11
6.92077e-11
-6.47255e-11
-6.70548e-11
6.56514e-11
-1.31632e-10
1.16025e-07
-4.90712e-10
-1.15253e-07
1.51894e-10
-1.88863e-10
-8.48655e-11
-5.57059e-11
5.2152e-11
-6.39538e-11
8.92527e-11
-4.88141e-11
5.60348e-11
4.16534e-11
2.74506e-08
-3.37085e-11
2.75995e-08
-2.74503e-08
-5.60868e-11
-4.0763e-11
-5.73771e-10
1.72103e-10
1.17138e-07
-1.89745e-11
-1.30384e-10
-1.24934e-10
-9.90633e-12
3.49644e-11
-7.97534e-12
1.10031e-11
-1.20159e-11
-1.16176e-07
1.25626e-11
-3.50782e-11
-2.82485e-11
2.26954e-11
1.37709e-11
-3.56526e-11
-1.13688e-11
3.9054e-11
1.74423e-10
1.16323e-07
5.69442e-10
-1.17141e-07
-1.69919e-10
1.30231e-10
1.85242e-11
1.21794e-10
9.72258e-12
-3.5235e-11
9.45151e-12
-1.05069e-11
-2.74708e-08
6.63435e-11
-1.73974e-10
2.48902e-11
2.83856e-11
4.92554e-11
4.80526e-11
2.74529e-08
-2.48075e-11
-2.85352e-11
2.76035e-08
-2.74536e-08
-4.88193e-11
-4.77578e-11
-1.04723e-11
1.17285e-07
2.29757e-11
2.65458e-11
-2.23476e-11
1.01444e-11
3.36306e-11
-1.22508e-11
-3.64311e-11
-2.46571e-11
1.18419e-11
-1.08874e-11
1.17291e-07
2.38862e-11
2.6609e-11
-2.31984e-11
1.03581e-11
3.36328e-11
-1.23708e-11
-3.63327e-11
1.17284e-07
-1.48802e-11
-1.17286e-07
1.74736e-11
-2.59125e-11
-2.4618e-11
2.2062e-11
-1.04271e-11
-3.42174e-11
3.52016e-11
1.25916e-11
2.49235e-11
1.17287e-07
-1.47026e-11
-1.1729e-07
1.90856e-11
-2.58299e-11
-2.5513e-11
2.25616e-11
-1.03435e-11
-3.41085e-11
3.50213e-11
1.23211e-11
4.93638e-11
4.85643e-11
2.74467e-08
-2.91856e-11
2.75974e-08
-2.74471e-08
-4.83535e-11
-4.78739e-11
-1.00156e-11
1.15014e-07
3.97659e-11
3.0057e-11
-3.85893e-11
-6.83735e-11
6.39629e-11
6.8114e-11
-6.57154e-11
-1.74015e-11
8.94755e-12
-9.57385e-12
1.16044e-07
3.68824e-11
1.92973e-11
-3.56331e-11
-4.89302e-11
6.31808e-11
4.79647e-11
-6.49339e-11
1.15014e-07
-1.70126e-11
-1.15016e-07
1.54185e-11
-2.9209e-11
-4.07815e-11
3.88416e-11
6.98314e-11
-6.33835e-11
6.57983e-11
-6.62819e-11
1.84056e-11
1.16041e-07
-1.54364e-11
-1.16044e-07
1.40665e-11
-1.79998e-11
-3.77601e-11
3.9718e-11
4.97825e-11
-6.2784e-11
6.24228e-11
-4.66435e-11
-4.39678e-11
1.60749e-11
1.16079e-07
3.57258e-11
1.81588e-11
-3.56133e-11
-4.92699e-11
6.2366e-11
-6.54826e-11
4.8164e-11
-1.52324e-11
-1.14965e-07
1.57223e-11
-2.92542e-11
-4.06034e-11
3.89713e-11
6.95459e-11
-6.4085e-11
-6.65809e-11
6.58732e-11
4.15526e-11
1.16028e-07
3.87132e-11
-1.1608e-07
-1.32121e-11
-1.63573e-11
-3.72798e-11
3.52936e-11
4.93527e-11
-6.26461e-11
6.47563e-11
-4.76595e-11
5.59526e-11
4.19933e-11
2.74503e-08
-3.35437e-11
2.75992e-08
-2.74506e-08
-5.60163e-11
-4.06231e-11
8.38124e-11
-4.58686e-11
1.16264e-07
2.71977e-11
3.7382e-11
-2.65495e-11
-1.39103e-11
3.59583e-11
-3.71971e-11
1.1384e-11
-1.89015e-11
-1.16175e-07
1.8979e-11
-3.48053e-11
-2.86294e-11
2.28806e-11
1.45084e-11
-3.47912e-11
-1.09034e-11
3.9704e-11
1.33055e-11
1.16327e-07
-9.1424e-11
-1.16268e-07
5.1012e-11
-3.71637e-11
-2.79378e-11
2.64106e-11
1.42299e-11
-3.50763e-11
3.72357e-11
-9.90598e-12
-2.74703e-08
-7.06262e-11
-2.49807e-11
2.47049e-11
2.79125e-11
4.95008e-11
4.80441e-11
2.74534e-08
-2.41535e-11
-2.74651e-11
2.76028e-08
-2.74539e-08
-4.95863e-11
-4.76529e-11
-1.86041e-11
1.17286e-07
2.33775e-11
2.69188e-11
-2.20167e-11
9.44851e-12
3.31066e-11
-1.27384e-11
-3.72521e-11
-2.46621e-11
2.16982e-11
-1.88754e-11
1.1729e-07
2.42859e-11
2.67186e-11
-2.65407e-11
9.06026e-12
3.29768e-11
-1.29553e-11
-3.47051e-11
1.17281e-07
-2.69508e-11
-1.17286e-07
2.99343e-11
-2.58928e-11
-2.59514e-11
2.18109e-11
-9.11314e-12
-3.30928e-11
3.60447e-11
1.39413e-11
2.37858e-11
1.17284e-07
-2.82472e-11
-1.17289e-07
3.11542e-11
-2.59849e-11
-2.67294e-11
2.22571e-11
-9.20461e-12
-3.25408e-11
3.64919e-11
1.38221e-11
4.93417e-11
4.84341e-11
2.74467e-08
-2.79389e-11
2.75967e-08
-2.74474e-08
-4.91265e-11
-4.84637e-11
-1.87188e-11
1.15015e-07
4.03251e-11
3.06716e-11
-3.79322e-11
-6.95226e-11
6.36974e-11
6.75461e-11
-6.63105e-11
-1.71364e-11
1.72918e-11
-1.4979e-11
1.1604e-07
3.7153e-11
1.93589e-11
-3.56428e-11
-4.99805e-11
6.27067e-11
4.74755e-11
-6.59923e-11
1.1501e-07
-2.75054e-11
-1.15014e-07
2.78973e-11
-2.9689e-11
-4.17893e-11
3.85021e-11
7.04671e-11
-6.2395e-11
6.6524e-11
-6.54416e-11
1.71629e-11
1.16036e-07
-2.39909e-11
-1.16041e-07
2.61247e-11
-1.87696e-11
-3.92457e-11
3.90771e-11
5.00461e-11
-6.20888e-11
6.27902e-11
-4.60489e-11
4.98289e-10
-1.61356e-10
1.15256e-07
8.47276e-11
1.91198e-10
5.9688e-11
-5.26382e-11
6.27773e-11
-9.31226e-11
4.85426e-11
-2.3675e-11
-1.14964e-07
2.59634e-11
-2.97172e-11
-4.19199e-11
3.88457e-11
7.02965e-11
-6.27811e-11
-6.58863e-11
6.68347e-11
-1.32942e-10
1.1603e-07
-5.08631e-10
-1.1526e-07
1.69004e-10
-1.89583e-10
-8.697e-11
-5.63574e-11
5.37821e-11
-6.21198e-11
9.04296e-11
-4.64902e-11
5.64011e-11
4.21856e-11
2.74501e-08
-3.27473e-11
2.75982e-08
-2.74503e-08
-5.64223e-11
-4.15624e-11
-5.59214e-10
1.57465e-10
1.1715e-07
-1.81526e-11
-1.29554e-10
-1.24215e-10
-1.14875e-11
3.41688e-11
-8.73769e-12
1.02999e-11
-3.37382e-11
-1.16175e-07
3.28006e-11
-3.52451e-11
-2.99017e-11
2.23123e-11
1.52215e-11
-3.35993e-11
-9.80517e-12
4.0617e-11
1.73318e-10
1.16329e-07
5.48202e-10
-1.17151e-07
-1.48912e-10
1.29873e-10
1.67929e-11
1.21272e-10
1.14374e-11
-3.28431e-11
1.14112e-11
-8.5526e-12
-2.74724e-08
6.58382e-11
-1.74365e-10
2.36743e-11
2.74514e-11
4.9511e-11
4.8824e-11
2.74533e-08
-2.1998e-11
-2.55575e-11
2.76009e-08
-2.74544e-08
-5.01506e-11
-4.88258e-11
-3.49622e-11
1.17288e-07
2.4455e-11
2.80005e-11
-2.06908e-11
7.44333e-12
3.2036e-11
-1.41126e-11
-3.86376e-11
-2.40963e-11
3.39851e-11
-3.3999e-11
1.17291e-07
2.51324e-11
2.71809e-11
-2.2074e-11
7.46143e-12
3.2074e-11
-1.40073e-11
-3.87008e-11
1.17281e-07
-4.58461e-11
-1.17293e-07
5.53003e-11
-2.68046e-11
-2.89866e-11
2.07586e-11
-7.69523e-12
-3.03786e-11
3.82146e-11
1.6107e-11
2.18516e-11
1.17287e-07
-4.78445e-11
-1.17298e-07
5.63566e-11
-2.68105e-11
-2.99535e-11
2.10828e-11
-7.50052e-12
-3.03215e-11
3.78627e-11
1.64713e-11
4.9596e-11
4.86274e-11
2.74468e-08
-2.59292e-11
2.75976e-08
-2.74501e-08
-5.02933e-11
-4.94808e-11
-3.24321e-11
1.15015e-07
4.11834e-11
3.12983e-11
-3.6957e-11
-7.12448e-11
6.2718e-11
6.64336e-11
-6.7931e-11
-1.67103e-11
3.04309e-11
-2.74298e-11
1.16038e-07
3.79282e-11
2.01705e-11
-3.48587e-11
-5.19346e-11
6.15256e-11
4.6354e-11
-6.76139e-11
1.15009e-07
-4.55514e-11
-1.15019e-07
4.95094e-11
-3.03799e-11
-4.4599e-11
3.79077e-11
7.24087e-11
-6.02618e-11
6.86884e-11
-6.32785e-11
1.54359e-11
1.16033e-07
-4.31721e-11
-1.16042e-07
4.62008e-11
-1.90281e-11
-4.15128e-11
3.88161e-11
5.1803e-11
-6.01861e-11
6.45365e-11
-4.39823e-11
-2.35077e-11
-3.50271e-12
1.16088e-07
3.67903e-11
1.85049e-11
-3.42489e-11
-5.19825e-11
6.06291e-11
-6.79898e-11
4.68486e-11
-4.035e-11
-1.1497e-07
4.88136e-11
-3.06038e-11
-4.45447e-11
3.82376e-11
7.20208e-11
-6.11736e-11
-6.39031e-11
6.82538e-11
3.89166e-11
1.16032e-07
1.03772e-11
-1.16093e-07
2.06946e-11
-1.71817e-11
-4.14193e-11
3.39248e-11
5.18426e-11
-5.91643e-11
6.73476e-11
-4.44231e-11
5.66326e-11
4.21034e-11
2.74503e-08
-3.06353e-11
2.75978e-08
-2.7452e-08
-5.74772e-11
-4.22605e-11
1.10023e-10
-6.9766e-11
1.16273e-07
2.87389e-11
3.80321e-11
-2.50985e-11
-1.6603e-11
3.3931e-11
-4.02253e-11
9.61768e-12
-5.6214e-11
-1.1618e-07
5.72079e-11
-3.57788e-11
-3.29007e-11
2.14413e-11
1.74424e-11
-3.0743e-11
-7.132e-12
4.26245e-11
1.07102e-11
1.16326e-07
-1.27004e-10
-1.16277e-07
9.09533e-11
-3.80219e-11
-3.18419e-11
2.56594e-11
1.72661e-11
-3.1245e-11
3.99124e-11
-5.79567e-12
-2.74726e-08
-7.1787e-11
-2.60715e-11
2.29502e-11
2.5947e-11
5.03294e-11
4.87482e-11
2.74529e-08
-1.78253e-11
-2.12948e-11
2.75973e-08
-2.74556e-08
-5.18171e-11
-5.07459e-11
-6.09716e-11
1.17296e-07
2.57044e-11
2.85501e-11
-1.92933e-11
4.35334e-12
3.01502e-11
-1.59441e-11
-4.17494e-11
-2.31697e-11
5.8627e-11
-6.16281e-11
1.17305e-07
2.65119e-11
2.83772e-11
-2.4017e-11
3.72032e-12
2.95816e-11
-1.62401e-11
-3.98692e-11
1.17268e-07
-7.47374e-11
-1.17304e-07
1.05283e-10
-2.85657e-11
-3.48965e-11
1.87972e-11
-3.86107e-12
-2.57888e-11
4.14398e-11
2.10448e-11
1.86066e-11
1.1728e-07
-7.98602e-11
-1.17313e-07
1.03636e-10
-2.7704e-11
-3.49628e-11
2.02145e-11
-3.87132e-12
-2.52846e-11
4.1403e-11
2.16374e-11
4.9901e-11
4.89667e-11
2.74491e-08
-2.20712e-11
2.75951e-08
-2.74525e-08
-5.15166e-11
-5.04093e-11
-5.90205e-11
1.15024e-07
4.28084e-11
3.26533e-11
-3.52868e-11
-7.37703e-11
6.11255e-11
6.49368e-11
-7.05012e-11
-1.567e-11
4.89317e-11
-5.44445e-11
1.16047e-07
3.96941e-11
2.13494e-11
-3.25878e-11
-5.46485e-11
5.93245e-11
4.45588e-11
-7.07215e-11
1.15003e-07
-6.78096e-11
-1.15035e-07
9.53562e-11
-3.23391e-11
-5.0639e-11
3.60321e-11
7.54669e-11
-5.6555e-11
7.10644e-11
-5.95477e-11
1.18947e-11
1.16034e-07
-6.91543e-11
-1.16063e-07
8.91995e-11
-2.02134e-11
-4.68818e-11
3.75016e-11
5.49399e-11
-5.58749e-11
6.7341e-11
-3.99458e-11
5.31597e-10
-1.98655e-10
1.15271e-07
8.69661e-11
1.92754e-10
6.18796e-11
-5.74635e-11
6.00119e-11
-9.72646e-11
4.57888e-11
-6.34822e-11
-1.14984e-07
9.03783e-11
-3.21839e-11
-5.01312e-11
3.63388e-11
7.56308e-11
-5.65701e-11
-5.93363e-11
7.19873e-11
-1.38753e-10
1.16023e-07
-5.50678e-10
-1.15281e-07
2.35922e-10
-1.9172e-10
-9.52579e-11
-5.84537e-11
5.8467e-11
-5.58242e-11
9.49396e-11
-4.05923e-11
5.69841e-11
4.25057e-11
2.74513e-08
-2.68602e-11
2.75965e-08
-2.74555e-08
-5.9085e-11
-4.31732e-11
-5.16982e-10
1.14595e-10
1.17159e-07
-1.57999e-11
-1.28137e-10
-1.21796e-10
-1.67215e-11
3.10501e-11
-1.42106e-11
7.28122e-12
-9.11692e-11
-1.16195e-07
1.10237e-10
-3.72731e-11
-3.7867e-11
2.01378e-11
2.08693e-11
-2.62065e-11
-1.74676e-12
4.59296e-11
1.67729e-10
1.16318e-07
4.90679e-10
-1.17166e-07
-7.56548e-11
1.27861e-10
8.8686e-12
1.19021e-10
1.73267e-11
-2.44374e-11
1.69398e-11
1.15976e-13
-2.74742e-08
6.36293e-11
-1.76606e-10
2.0887e-11
2.36616e-11
5.07504e-11
4.91451e-11
2.74529e-08
-1.11745e-11
-1.41619e-11
2.75899e-08
-2.74605e-08
-5.23379e-11
-5.17169e-11
-1.18449e-10
1.17317e-07
2.91068e-11
3.24317e-11
-1.45105e-11
-8.31253e-13
2.51616e-11
-2.07546e-11
-4.69601e-11
-2.08355e-11
9.0877e-11
-1.19783e-10
1.17329e-07
3.001e-11
3.21863e-11
-1.53914e-11
-1.72125e-12
2.44644e-11
-2.11223e-11
-4.81009e-11
1.17222e-07
-1.03323e-10
-1.17341e-07
2.03775e-10
-3.13116e-11
-4.50483e-11
1.52958e-11
2.30243e-12
-1.52231e-11
4.80678e-11
3.30171e-11
1.23602e-11
1.17242e-07
-1.11899e-10
-1.17357e-07
2.00958e-10
-3.04885e-11
-4.46739e-11
1.69597e-11
2.74701e-12
-1.35341e-11
4.85314e-11
3.39905e-11
5.08092e-11
4.98357e-11
2.74497e-08
-1.51935e-11
2.75881e-08
-2.74573e-08
-5.18049e-11
-5.15284e-11
-1.10754e-10
1.1505e-07
4.59194e-11
3.67536e-11
-3.04516e-11
-7.89789e-11
5.66235e-11
6.00088e-11
-7.55271e-11
-1.33717e-11
7.26639e-11
-1.06609e-10
1.16079e-07
4.30224e-11
2.53239e-11
-2.81571e-11
-5.95195e-11
5.58566e-11
4.00026e-11
-7.47681e-11
1.14959e-07
-8.28007e-11
-1.15075e-07
1.88349e-10
-3.56499e-11
-6.10696e-11
3.24481e-11
8.12198e-11
-4.80277e-11
7.69455e-11
-4.99361e-11
5.02247e-12
1.16e-07
-8.55603e-11
-1.16109e-07
1.82531e-10
-2.38226e-11
-5.74187e-11
3.36704e-11
6.04915e-11
-4.78372e-11
7.33379e-11
-3.07544e-11
2.05418e-11
-7.85282e-11
1.16119e-07
4.16001e-11
2.34681e-11
-2.82103e-11
-5.93249e-11
5.47599e-11
-7.53647e-11
4.0825e-11
-7.972e-11
-1.15031e-07
1.83224e-10
-3.55305e-11
-6.03223e-11
3.2836e-11
8.21893e-11
-4.73858e-11
-4.89807e-11
7.7841e-11
2.8618e-11
1.15984e-07
-3.17031e-11
-1.16146e-07
1.56612e-10
-2.18883e-11
-5.71744e-11
2.87025e-11
6.09376e-11
-4.66166e-11
7.59113e-11
-3.07276e-11
5.72809e-11
4.33458e-11
2.7453e-08
-2.03038e-11
2.75899e-08
-2.74605e-08
-6.00967e-11
-4.39655e-11
1.72628e-10
-1.58082e-10
1.16301e-07
3.33784e-11
4.30305e-11
-1.89924e-11
-2.6083e-11
2.73227e-11
-4.90063e-11
2.68486e-12
-1.28389e-10
-1.16232e-07
2.1077e-10
-4.08441e-11
-4.8011e-11
1.65083e-11
2.78137e-11
-1.52001e-11
1.01028e-11
5.25816e-11
5.16593e-13
1.16277e-07
-1.96724e-10
-1.16324e-07
2.38849e-10
-4.27848e-11
-4.65985e-11
2.03603e-11
2.73568e-11
-1.50271e-11
5.00339e-11
1.15167e-11
-2.74781e-08
-7.4565e-11
-2.78063e-11
1.96388e-11
2.08824e-11
4.92264e-11
4.75998e-11
2.74526e-08
-8.3977e-12
-8.77061e-12
2.75709e-08
-2.74699e-08
-4.18729e-11
-4.1997e-11
-2.3667e-10
1.17384e-07
3.341e-11
4.26314e-11
-2.02988e-12
-6.49858e-12
1.39872e-11
-3.28532e-11
-5.30466e-11
-2.01592e-11
1.11266e-10
-2.34532e-10
1.174e-07
3.32085e-11
4.1932e-11
-7.68309e-12
-8.62962e-12
1.26689e-11
-3.38221e-11
-5.24281e-11
1.17057e-07
-6.12577e-11
-1.17464e-07
3.86527e-10
-3.84285e-11
-5.48449e-11
7.0457e-12
1.48487e-11
1.53606e-11
6.33815e-11
6.66091e-11
1.09151e-11
1.17077e-07
-7.9031e-11
-1.17475e-07
3.8081e-10
-3.79354e-11
-5.31081e-11
8.00625e-12
1.61866e-11
1.8045e-11
6.45628e-11
6.94971e-11
4.93108e-11
4.79078e-11
2.74495e-08
-1.05443e-11
2.75692e-08
-2.7466e-08
-4.0778e-11
-4.0924e-11
-2.23398e-10
1.15118e-07
5.10079e-11
4.86112e-11
-1.68572e-11
-8.35965e-11
4.61814e-11
4.90588e-11
-8.08794e-11
-1.06043e-11
7.46654e-11
-2.19115e-10
1.16153e-07
4.83185e-11
3.67343e-11
-1.45303e-11
-6.35576e-11
4.5418e-11
2.96482e-11
-8.00724e-11
1.14791e-07
-1.98202e-11
-1.15195e-07
3.64759e-10
-4.50537e-11
-7.25421e-11
2.34012e-11
9.32176e-11
-2.07963e-11
9.14939e-11
-1.96413e-11
-4.27031e-13
1.15834e-07
-2.27152e-11
-1.16231e-07
3.63589e-10
-3.16914e-11
-6.98196e-11
2.45726e-11
7.12516e-11
-2.19742e-11
8.66577e-11
-2.48392e-12
5.58677e-10
-3.61471e-10
1.15364e-07
9.48151e-11
2.08315e-10
7.96825e-11
-6.7186e-11
4.51892e-11
-1.07853e-10
3.02817e-11
-1.13009e-11
-1.15158e-07
3.5962e-10
-4.50692e-11
-7.13405e-11
2.36672e-11
9.48009e-11
-1.91538e-11
-1.86163e-11
9.32351e-11
-1.48949e-10
1.15815e-07
-5.07022e-10
-1.15441e-07
5.04104e-10
-2.03355e-10
-1.17065e-10
-7.09731e-11
7.58255e-11
-2.01169e-11
1.15197e-10
-1.26553e-12
5.59582e-11
4.23171e-11
2.74538e-08
-1.63736e-11
2.75712e-08
-2.74705e-08
-5.06413e-11
-3.414e-11
-4.58953e-10
-6.26712e-11
1.17247e-07
-8.31232e-12
-1.14278e-10
-1.05708e-10
-2.92317e-11
1.45644e-11
-2.66619e-11
-1.08038e-11
-1.06234e-10
-1.16349e-07
4.01078e-10
-4.92484e-11
-5.79504e-11
7.62634e-12
4.07959e-11
1.58431e-11
4.4847e-11
6.85665e-11
1.58141e-10
1.16114e-07
4.86568e-10
-1.17322e-07
2.08853e-10
1.15802e-10
-9.59338e-12
1.06846e-10
3.69014e-11
1.76641e-11
3.9199e-11
4.71053e-11
-2.749e-08
7.27877e-11
-1.65951e-10
2.67572e-11
2.54079e-11
3.46229e-11
3.41558e-11
2.745e-08
-1.11436e-10
-1.021e-10
2.75247e-08
-2.74892e-08
9.24231e-11
8.56495e-11
-4.54209e-10
1.17599e-07
3.03097e-11
7.4641e-11
3.31854e-11
-3.30896e-12
-1.85487e-11
-7.00178e-11
-5.54359e-11
-2.90628e-11
-3.50489e-11
-4.45e-10
1.17611e-07
2.84219e-11
7.25624e-11
3.05889e-11
-6.67202e-12
-1.95364e-11
-7.07519e-11
-5.89378e-11
1.16354e-07
1.72974e-10
-1.17824e-07
4.58345e-10
-2.94301e-11
3.69899e-11
2.46475e-11
8.80247e-11
1.90855e-10
1.57659e-10
2.58406e-10
1.17301e-10
1.16389e-07
1.45694e-10
-1.17835e-07
4.37747e-10
-2.8885e-11
4.31676e-11
2.56243e-11
8.94733e-11
1.95018e-10
1.58635e-10
2.62219e-10
3.46992e-11
3.38377e-11
2.74455e-08
-1.04479e-10
2.75243e-08
-2.74862e-08
9.32759e-11
9.03725e-11
-4.33108e-10
1.15331e-07
4.96684e-11
8.35064e-11
1.90705e-11
-7.8354e-11
1.71408e-11
1.51571e-11
-8.23011e-11
-1.54671e-11
-9.69079e-11
-4.3817e-10
1.16367e-07
4.63273e-11
7.14796e-11
2.26914e-11
-5.7116e-11
1.73951e-11
-3.19862e-12
-7.94807e-11
1.14112e-07
2.1402e-10
-1.15553e-07
4.47188e-10
-4.33992e-11
1.23002e-11
3.79143e-11
1.69679e-10
1.4797e-10
1.87565e-10
1.65917e-10
9.50696e-11
1.15145e-07
2.17511e-10
-1.16595e-07
4.60596e-10
-2.5814e-11
1.64021e-11
4.07739e-11
1.45095e-10
1.4254e-10
1.80204e-10
1.77443e-10
-1.50375e-10
-4.04067e-10
1.16402e-07
4.36089e-11
6.99185e-11
2.22946e-11
-5.81647e-11
1.51887e-11
-8.17273e-11
-4.18643e-12
2.35497e-10
-1.15522e-07
4.4765e-10
-4.34929e-11
1.50456e-11
3.72349e-11
1.72338e-10
1.53297e-10
1.69314e-10
1.89525e-10
1.23342e-10
1.15125e-07
2.71382e-10
-1.1663e-07
4.20272e-10
-2.64189e-11
1.95327e-11
3.57563e-11
1.46426e-10
1.48355e-10
1.84236e-10
1.82437e-10
4.18407e-11
2.96514e-11
2.74506e-08
-1.11555e-10
2.75247e-08
-2.74894e-08
7.95747e-11
9.16805e-11
5.25112e-11
-4.91602e-10
1.16575e-07
3.45566e-11
8.5203e-11
2.79875e-11
-3.05397e-11
-1.68878e-11
-5.94845e-11
-4.73634e-11
9.78955e-11
-1.16701e-07
4.8765e-10
-4.27605e-11
2.79509e-11
2.26662e-11
1.15628e-10
1.90913e-10
2.3636e-10
1.63015e-10
9.47236e-11
1.15432e-07
4.18209e-11
-1.16792e-07
4.98171e-10
-4.6062e-11
3.21225e-11
2.68277e-11
1.16207e-10
1.93879e-10
1.60914e-10
2.4164e-10
-2.75077e-08
6.92761e-11
1.11749e-10
4.88223e-11
4.32266e-11
1.10651e-12
5.65671e-12
2.74259e-08
-4.92166e-10
3.0783e-10
2.74103e-08
-2.68301e-08
3.11762e-11
-4.26986e-10
9.80685e-11