/*--------------------------------*- C++ -*----------------------------------*\
| =========                 |                                                 |
| \\      /  F ield         | OpenFOAM: The Open Source CFD Toolbox           |
|  \\    /   O peration     | Version:  2206                                  |
|   \\  /    A nd           | Website:  www.openfoam.com                      |
|    \\/     M anipulation  |                                                 |
\*---------------------------------------------------------------------------*/
FoamFile
{
    version     2.0;
    format      ascii;
    arch        "LSB;label=32;scalar=64";
    class       volVectorField;
    location    "120";
    object      U;
}
// * * * * * * * * * * * * * * * * * * * * * * * * * * * * * * * * * * * * * //

dimensions      [0 1 -1 0 0 0 0];

internalField   nonuniform List<vector> 
66940
(
(4.26082e-06 3.33852e-06 0.144205)
(1.5886e-06 -2.79967e-06 0.134994)
(-9.34419e-07 -3.22579e-06 0.135351)
(-0.000128531 -0.000126037 0.129622)
(4.21294e-06 4.2224e-06 0.144203)
(-9.65527e-07 -3.70826e-06 0.134993)
(-1.41856e-06 -5.67863e-06 0.135342)
(-0.000129988 -0.000125876 0.129617)
(5.51004e-06 7.11966e-06 0.144205)
(-3.39531e-06 -6.34024e-06 0.13499)
(-4.74993e-06 -7.07466e-06 0.13534)
(-0.000130771 -0.000124665 0.129626)
(8.0598e-06 1.0506e-05 0.1442)
(-9.29783e-06 -9.62525e-06 0.134989)
(-8.11158e-06 -1.50331e-05 0.135343)
(-0.000128105 -0.000123867 0.129631)
(1.23949e-05 1.34135e-05 0.144197)
(-1.79507e-05 -1.91046e-05 0.134986)
(-1.65352e-05 -2.61544e-05 0.135342)
(-0.000129604 -0.000124478 0.129626)
(1.49075e-05 1.69607e-05 0.144205)
(-4.20323e-05 -3.27121e-05 0.134979)
(-3.26588e-05 -4.94243e-05 0.135346)
(-0.000128834 -0.000124127 0.129621)
(8.92144e-06 1.24413e-05 0.144232)
(-8.20978e-05 -6.35839e-05 0.134967)
(-6.41521e-05 -9.17081e-05 0.135339)
(-0.000129093 -0.000124358 0.129597)
(-3.61444e-05 -3.00183e-05 0.144295)
(-0.000165058 -0.000124658 0.134922)
(-0.000121579 -0.00018481 0.135305)
(-0.000130654 -0.000125256 0.12953)
(-0.000247839 -0.000232994 0.144446)
(-0.000346328 -0.000234988 0.134777)
(-0.000226279 -0.000374931 0.135184)
(-0.000147056 -0.000140543 0.129381)
(-0.00113737 -0.00110727 0.14472)
(-0.000831514 -0.00033508 0.134298)
(-0.000319494 -0.000864026 0.134778)
(-0.000218642 -0.000205003 0.128982)
(-0.00510945 -0.00511276 0.144476)
(-0.00233959 0.000165987 0.132679)
(0.000166318 -0.00236861 0.133322)
(-0.000333596 -0.000332684 0.12778)
(-0.0216261 -0.0218059 0.131691)
(-0.00153589 0.00268654 0.121575)
(0.00245796 -0.00156485 0.122325)
(0.000420316 0.000391257 0.119615)
(-0.000131058 -0.000132589 0.129477)
(1.74158e-06 -1.05416e-06 0.135395)
(-6.49516e-07 -3.90854e-08 0.135358)
(0.000131326 -0.000131172 0.129443)
(-3.77789e-06 5.51449e-07 0.135051)
(-2.67027e-06 -8.66345e-07 0.134997)
(4.53978e-06 1.02607e-06 0.134991)
(2.4534e-06 -1.38557e-06 0.13502)
(-0.000130544 0.000131101 0.129426)
(2.47047e-06 -9.57211e-07 0.135348)
(-2.42333e-06 4.1714e-07 0.13538)
(0.000132775 0.000131382 0.129457)
(0.000130567 0.000127002 0.129638)
(-0.000133419 -0.0001335 0.129468)
(6.99147e-07 4.2019e-06 0.135403)
(2.76975e-07 4.9646e-06 0.135359)
(5.66651e-06 -3.18926e-06 0.13539)
(-4.77351e-06 -1.6158e-06 0.135346)
(-0.000127367 0.000127027 0.1296)
(0.000130355 -0.000132688 0.129433)
(1.36256e-06 -2.6917e-06 0.13506)
(2.0431e-06 8.51231e-07 0.135003)
(-3.00525e-06 2.7666e-06 0.135043)
(-3.35235e-06 -3.35972e-06 0.134988)
(-2.14579e-07 -1.65683e-06 0.135059)
(3.73696e-06 2.10322e-06 0.13499)
(1.85696e-06 -3.21308e-06 0.135012)
(0.000128872 -0.000128412 0.129586)
(-0.000131287 0.000130345 0.129418)
(2.21208e-06 -5.23005e-06 0.135369)
(5.54011e-06 5.07002e-07 0.135335)
(-5.2884e-06 1.94632e-06 0.135378)
(0.000130496 0.000132605 0.129457)
(0.000128722 0.00012718 0.129627)
(-0.000134602 -0.000133487 0.129453)
(-1.35509e-06 3.3165e-06 0.135402)
(1.53087e-06 4.50796e-06 0.135355)
(7.27777e-06 -4.32055e-06 0.135378)
(-8.47723e-06 -3.8534e-06 0.135345)
(-0.000127708 0.000125196 0.129591)
(0.000131724 -0.000132139 0.129425)
(3.9962e-06 -2.62767e-06 0.135053)
(2.78854e-06 1.06779e-06 0.134998)
(-6.5282e-06 5.2628e-06 0.135026)
(-4.53767e-06 -4.89753e-06 0.134982)
(-2.41238e-06 2.22901e-06 0.135043)
(7.01439e-06 3.54816e-06 0.134981)
(3.05454e-06 -1.84644e-06 0.135001)
(0.000126641 -0.000127165 0.129575)
(-0.000130618 0.00013236 0.129411)
(1.65968e-06 -6.35419e-06 0.135373)
(7.43857e-06 5.81008e-06 0.135325)
(-8.95235e-06 6.18674e-06 0.135383)
(0.000131286 0.000134281 0.12946)
(0.000126852 0.000126541 0.129612)
(-0.000133942 -0.000132707 0.129455)
(-4.67727e-06 8.07952e-06 0.135397)
(4.31896e-06 7.71841e-06 0.135358)
(1.12124e-05 -7.34402e-06 0.135363)
(-9.99977e-06 -9.96626e-06 0.135337)
(-0.000126527 0.000125941 0.129582)
(0.000133422 -0.000133278 0.129424)
(5.02795e-06 -5.36801e-06 0.135044)
(7.17846e-06 3.16701e-06 0.134996)
(-1.1477e-05 9.46279e-06 0.135014)
(-9.92132e-06 -7.12788e-06 0.134972)
(-5.62872e-06 4.91105e-06 0.135051)
(8.44472e-06 8.98445e-06 0.134977)
(1.01832e-05 -4.87046e-06 0.135001)
(0.000128293 -0.000126753 0.129568)
(-0.000129728 0.000132377 0.129408)
(5.2101e-06 -8.6652e-06 0.135381)
(1.10673e-05 1.06456e-05 0.135321)
(-1.1154e-05 1.04936e-05 0.135388)
(0.000131133 0.000134685 0.12947)
(0.000127141 0.000126836 0.129611)
(-0.000131551 -0.000131965 0.129459)
(-8.94299e-06 1.49247e-05 0.135389)
(9.39323e-06 1.31308e-05 0.135356)
(1.82733e-05 -1.73501e-05 0.135357)
(-1.94629e-05 -1.74884e-05 0.135334)
(-0.000125832 0.000125209 0.12958)
(0.00013248 -0.000133344 0.129428)
(9.59767e-06 -9.33872e-06 0.135041)
(9.50547e-06 9.09591e-06 0.135)
(-1.96876e-05 1.63545e-05 0.135008)
(-1.86132e-05 -1.39925e-05 0.134966)
(-1.07386e-05 9.12687e-06 0.135051)
(1.96716e-05 1.48351e-05 0.13497)
(1.78172e-05 -1.23922e-05 0.134996)
(0.000127534 -0.000125159 0.129563)
(-0.000131079 0.000133311 0.129411)
(8.2026e-06 -1.49257e-05 0.135394)
(1.80625e-05 1.93492e-05 0.135316)
(-1.76627e-05 2.30372e-05 0.135392)
(0.000131469 0.000133389 0.129472)
(0.00012794 0.000126563 0.129609)
(-0.000132433 -0.0001305 0.129466)
(-1.67015e-05 2.59811e-05 0.135393)
(1.72757e-05 2.70381e-05 0.135353)
(3.08491e-05 -3.59978e-05 0.135353)
(-3.1042e-05 -3.89979e-05 0.135331)
(-0.000127658 0.000126526 0.129575)
(0.000129325 -0.000130204 0.129434)
(1.98381e-05 -1.90911e-05 0.135048)
(2.08321e-05 1.47613e-05 0.135)
(-3.648e-05 3.00758e-05 0.135001)
(-3.27758e-05 -2.84795e-05 0.134955)
(-2.1032e-05 1.46544e-05 0.135064)
(3.5135e-05 2.80404e-05 0.134971)
(3.67493e-05 -2.49885e-05 0.135002)
(0.000126096 -0.000124548 0.12956)
(-0.000130251 0.000130977 0.129415)
(1.96268e-05 -2.60167e-05 0.1354)
(2.95767e-05 4.02161e-05 0.135314)
(-2.96178e-05 4.0069e-05 0.135393)
(0.000131176 0.000134864 0.129485)
(0.000125701 0.000127014 0.129598)
(-0.000129393 -0.000129205 0.129483)
(-3.51411e-05 4.58532e-05 0.135393)
(3.25607e-05 4.88697e-05 0.135351)
(5.85438e-05 -7.18141e-05 0.135363)
(-5.86144e-05 -7.41461e-05 0.135349)
(-0.000127382 0.000126053 0.129566)
(0.00012778 -0.000128623 0.129464)
(4.06641e-05 -3.42123e-05 0.135047)
(4.32495e-05 2.85691e-05 0.135002)
(-7.15125e-05 5.63115e-05 0.135004)
(-6.79341e-05 -5.13653e-05 0.134953)
(-4.2406e-05 3.01028e-05 0.135065)
(6.75767e-05 5.56322e-05 0.134987)
(6.75519e-05 -5.13971e-05 0.135007)
(0.000126074 -0.000125534 0.129549)
(-0.000127292 0.000129117 0.129438)
(3.22811e-05 -5.12349e-05 0.135405)
(5.58096e-05 7.70801e-05 0.135323)
(-5.76611e-05 7.94746e-05 0.135404)
(0.000130141 0.000131769 0.129504)
(0.000127371 0.000126319 0.129571)
(-0.000124718 -0.000125349 0.129529)
(-6.22113e-05 9.14361e-05 0.135387)
(6.17645e-05 9.58228e-05 0.135345)
(0.000111501 -0.000144088 0.135391)
(-0.000107696 -0.000153773 0.135389)
(-0.000127595 0.000126372 0.129551)
(0.000126711 -0.000126062 0.129515)
(7.94052e-05 -6.64081e-05 0.135048)
(8.22753e-05 5.9431e-05 0.135001)
(-0.000136495 0.000111364 0.135034)
(-0.000136078 -0.000100483 0.134988)
(-8.21246e-05 5.7521e-05 0.135071)
(0.000140335 0.00010641 0.135034)
(0.000139043 -0.000101958 0.135038)
(0.000126843 -0.000125908 0.129529)
(-0.000124162 0.000127322 0.129493)
(6.24616e-05 -9.55182e-05 0.135392)
(0.000106848 0.000152066 0.135358)
(-0.00010345 0.000156675 0.135435)
(0.000125151 0.000130694 0.12955)
(0.000128961 0.000128416 0.129508)
(-0.000122671 -0.000125393 0.129655)
(-0.00012252 0.000177953 0.13535)
(0.000120634 0.000188965 0.135307)
(0.000201742 -0.000306333 0.135493)
(-0.000194683 -0.000321992 0.135505)
(-0.000127182 0.000126836 0.129492)
(0.00012448 -0.00012611 0.129645)
(0.000162094 -0.000127251 0.135025)
(0.000159795 0.000119051 0.134989)
(-0.000284833 0.000207462 0.135127)
(-0.000278382 -0.000194943 0.135085)
(-0.000162033 0.000115951 0.135037)
(0.00029486 0.000199993 0.135166)
(0.000282201 -0.000192905 0.13513)
(0.000128905 -0.00012718 0.129477)
(-0.000122525 0.000127276 0.129617)
(0.000120724 -0.000188502 0.135361)
(0.000198032 0.000315251 0.13546)
(-0.000196488 0.00032041 0.135536)
(0.000124821 0.000128712 0.129676)
(0.000145666 0.00014413 0.129353)
(-0.000153653 -0.000155794 0.129971)
(-0.000226024 0.000367276 0.13522)
(0.000216942 0.000390059 0.135178)
(0.000297795 -0.000722856 0.135807)
(-0.000282611 -0.000753165 0.135819)
(-0.000144278 0.000141626 0.129337)
(0.000157883 -0.000157824 0.129969)
(0.000338 -0.000241333 0.134909)
(0.00033101 0.000228696 0.134888)
(-0.000676877 0.000318637 0.135422)
(-0.000654063 -0.00030674 0.135372)
(-0.000339058 0.000221666 0.134929)
(0.000698699 0.000306055 0.135525)
(0.000675479 -0.000298916 0.135434)
(0.000143474 -0.000139192 0.129329)
(-0.000152151 0.000156288 0.129928)
(0.000224417 -0.000383796 0.135235)
(0.000302449 0.000732698 0.135764)
(-0.00029246 0.000741531 0.135838)
(0.000151475 0.000167457 0.130004)
(0.000212917 0.00021508 0.128951)
(-0.000535275 -0.000536345 0.130851)
(-0.000311549 0.000865053 0.134798)
(0.000290109 0.00089639 0.134756)
(-0.000179607 -0.00233482 0.136609)
(0.000218638 -0.00237453 0.136624)
(-0.000212266 0.000210548 0.128926)
(0.0005488 -0.000539317 0.1309)
(0.000804101 -0.000346686 0.134501)
(0.000780433 0.000337501 0.134493)
(-0.00224962 -0.000135101 0.136219)
(-0.00218177 0.000128904 0.136158)
(-0.000801629 0.000319431 0.13451)
(0.00229702 -0.000157833 0.136436)
(0.00222838 0.000160824 0.136231)
(0.000210379 -0.000205472 0.128933)
(-0.000527381 0.000521196 0.130788)
(0.000315453 -0.000886206 0.134826)
(-0.000150923 0.00232574 0.136552)
(0.000168953 0.00236654 0.136626)
(0.000544841 0.000537725 0.130878)
(0.000324711 0.000341824 0.12775)
(-0.00603497 -0.0060537 0.129207)
(0.00019877 0.00239299 0.133315)
(-0.000252156 0.00243193 0.13329)
(-0.00616294 -0.0121964 0.134488)
(0.00628086 -0.0122466 0.134462)
(-0.000329342 0.000338619 0.127676)
(0.00611008 -0.00597334 0.129295)
(0.00227779 0.000140349 0.133038)
(0.00219677 -0.000117408 0.133038)
(-0.012135 -0.0061936 0.134513)
(-0.0119417 0.00608962 0.134411)
(-0.00224781 -0.000163003 0.133048)
(0.0123084 -0.0062846 0.135065)
(0.0120499 0.00613203 0.134503)
(0.000321121 -0.000309974 0.127747)
(-0.0059803 0.00600503 0.129138)
(-0.000185819 -0.00243199 0.133364)
(-0.00611527 0.0121214 0.134452)
(0.00620201 0.0122226 0.134531)
(0.00602038 0.0060693 0.129237)
(-0.000415683 -0.000398579 0.119572)
(0.00259998 0.00172775 0.122263)
(-0.00259648 0.00160057 0.122089)
(0.000469122 -0.000456268 0.119061)
(0.0016422 0.00259092 0.122339)
(0.00148935 -0.00251355 0.122344)
(0.0223135 -0.022073 0.131392)
(-0.0214349 0.0215903 0.131685)
(0.0215166 0.0217335 0.1317)
(-0.00161742 -0.002644 0.122356)
(-0.000491657 0.000448989 0.119565)
(-0.00250935 -0.00169367 0.12235)
(7.64249e-06 -1.47185e-06 0.0594334)
(-1.78573e-06 3.89565e-07 0.144223)
(5.03516e-06 -3.68109e-07 0.14419)
(-1.11246e-07 -1.02582e-06 0.144195)
(2.26393e-06 -1.61519e-07 0.144207)
(2.87165e-05 -3.47992e-09 0.114389)
(1.73038e-06 4.24354e-06 0.135001)
(1.55341e-05 -1.10277e-05 0.0975146)
(-1.63499e-06 1.58167e-06 0.139866)
(0.000134719 0.000126281 0.12945)
(2.27525e-06 5.60001e-06 0.08242)
(2.23019e-05 -2.15454e-07 0.0825354)
(-5.94534e-07 -3.47345e-05 0.0956933)
(9.10208e-06 1.46053e-05 0.0698089)
(1.30169e-06 2.65728e-05 0.0958777)
(-4.51796e-06 -1.98091e-05 0.0697124)
(-7.19273e-06 3.31541e-06 0.0596275)
(6.77717e-06 -6.41585e-06 0.0595353)
(-2.07834e-05 7.26967e-07 0.0946285)
(1.19335e-05 -3.69832e-06 0.0695907)
(1.76251e-05 -3.10655e-06 0.0952614)
(-1.49203e-05 4.85408e-07 0.0692969)
(-4.42676e-08 3.63789e-06 0.14417)
(4.53766e-06 -5.80072e-06 0.144169)
(-2.59044e-06 -4.81832e-06 0.144203)
(-4.06715e-06 -3.86452e-06 0.144222)
(4.38458e-06 -3.0968e-06 0.144188)
(-2.81277e-06 2.41555e-06 0.144191)
(4.48258e-06 4.21006e-06 0.144214)
(3.19837e-05 -7.38958e-07 0.114385)
(-1.3498e-05 5.69748e-06 0.0980424)
(5.03973e-06 -5.44685e-06 0.139903)
(5.81567e-06 2.8187e-07 0.134991)
(-2.78278e-05 -4.26469e-06 0.115102)
(1.86556e-05 -1.32057e-05 0.0975169)
(1.40159e-06 -9.97889e-08 0.139838)
(4.09451e-07 -2.7314e-07 0.0595801)
(-2.43759e-06 -1.46864e-06 0.0593713)
(-8.69269e-07 3.49788e-05 0.115525)
(-3.04189e-06 8.01197e-08 0.14046)
(1.85673e-05 -2.00298e-05 0.0984017)
(4.40406e-06 1.37165e-06 0.135341)
(1.34468e-06 -3.75864e-05 0.115735)
(2.56624e-06 -3.9834e-06 0.140395)
(-2.29684e-05 2.16421e-05 0.0981605)
(4.542e-06 -6.3342e-06 0.0828295)
(-1.34237e-05 -1.67863e-06 0.0829907)
(0.000133407 0.000131341 0.129456)
(1.90411e-06 4.88369e-06 0.0824241)
(1.78478e-05 2.98946e-06 0.0827558)
(-8.10883e-08 -3.26305e-05 0.095698)
(4.54501e-06 1.59745e-05 0.0698171)
(-5.31957e-07 2.8005e-05 0.0958823)
(-5.66194e-06 -2.03631e-05 0.0697226)
(-7.66829e-06 1.14757e-06 0.0596399)
(6.45269e-06 -4.12162e-06 0.0595429)
(-1.88441e-05 1.74395e-07 0.0946315)
(1.21414e-05 -5.23444e-06 0.0696075)
(1.57464e-05 -3.73816e-06 0.0952671)
(-1.41469e-05 -7.08511e-07 0.0693147)
(-3.94866e-06 4.93487e-06 0.144163)
(4.13095e-06 -7.92662e-06 0.144166)
(-3.81129e-06 -5.90136e-06 0.144198)
(-6.40167e-06 -5.05335e-06 0.144229)
(5.5363e-06 -5.61282e-06 0.144185)
(-3.69669e-06 5.41069e-06 0.14419)
(6.46326e-06 9.12753e-06 0.144212)
(2.9482e-05 1.16765e-06 0.11438)
(-1.47781e-05 6.94702e-06 0.0980441)
(7.97361e-06 -6.04402e-06 0.13992)
(5.75101e-06 2.63077e-06 0.134985)
(-2.86717e-05 -2.25606e-06 0.115099)
(1.97426e-05 -1.35161e-05 0.0975244)
(-1.84405e-06 2.83473e-06 0.139811)
(-1.16771e-06 6.25544e-07 0.0595972)
(-2.10251e-06 6.92606e-07 0.0593889)
(-4.36006e-07 3.47977e-05 0.115516)
(-3.6408e-06 1.01726e-06 0.140484)
(1.77868e-05 -1.89767e-05 0.0983992)
(6.26682e-06 3.10974e-06 0.135329)
(1.70579e-06 -3.80541e-05 0.115717)
(5.71441e-06 -7.49442e-06 0.140374)
(-2.08342e-05 2.00719e-05 0.0981633)
(1.64965e-06 -6.12214e-06 0.0828346)
(-1.62549e-05 -1.00407e-08 0.0829954)
(0.000132599 0.000135293 0.129455)
(2.81823e-06 5.82434e-06 0.0824349)
(1.4183e-05 1.3974e-06 0.0827575)
(-7.95124e-07 -3.20147e-05 0.0957012)
(4.93456e-06 1.7442e-05 0.069829)
(1.38306e-07 3.06149e-05 0.0958842)
(-6.33266e-06 -1.69743e-05 0.0697343)
(-7.20777e-06 3.2681e-06 0.0596409)
(5.79921e-06 -5.93798e-06 0.0595477)
(-1.93393e-05 1.58769e-06 0.0946269)
(1.16485e-05 -3.19998e-06 0.0696164)
(1.71946e-05 -2.53125e-06 0.0952594)
(-1.35005e-05 2.46073e-06 0.0693256)
(-4.46556e-06 6.78491e-06 0.144156)
(6.38887e-06 -9.44112e-06 0.14416)
(-6.79555e-06 -7.05248e-06 0.1442)
(-9.83352e-06 -6.88872e-06 0.144224)
(8.69278e-06 -7.24735e-06 0.144185)
(-7.20402e-06 1.08515e-05 0.14419)
(8.7177e-06 1.27179e-05 0.144218)
(2.87013e-05 3.85664e-07 0.114376)
(-1.63984e-05 6.48437e-06 0.0980484)
(9.68053e-06 -7.71145e-06 0.139948)
(9.07967e-06 4.40642e-06 0.13498)
(-3.09186e-05 -2.38496e-06 0.115092)
(1.68887e-05 -1.05403e-05 0.0975246)
(-1.0397e-05 5.94772e-06 0.139767)
(2.44172e-06 1.26637e-06 0.0596003)
(-2.45205e-06 -9.38711e-07 0.0593878)
(-1.95447e-06 3.55123e-05 0.115512)
(-7.80974e-06 7.74563e-06 0.140516)
(1.93987e-05 -1.88214e-05 0.0984019)
(8.96464e-06 8.0772e-06 0.135321)
(-1.6104e-06 -3.60332e-05 0.115716)
(8.83936e-06 -1.00572e-05 0.140332)
(-1.98162e-05 2.09022e-05 0.0981615)
(1.17738e-06 -5.77915e-06 0.0828367)
(-1.79276e-05 1.28187e-07 0.0829865)
(0.000132969 0.000134589 0.129465)
(-2.14122e-07 5.7434e-06 0.0824324)
(1.39016e-05 5.08261e-06 0.0827531)
(-1.32752e-06 -3.00959e-05 0.0956963)
(4.20046e-06 1.83164e-05 0.069836)
(-1.7189e-06 3.09288e-05 0.095881)
(-7.18416e-06 -1.83895e-05 0.069744)
(-7.20007e-06 2.162e-06 0.0596463)
(6.78565e-06 -3.60293e-06 0.0595595)
(-1.87269e-05 2.81413e-06 0.0946337)
(1.31307e-05 -3.28958e-06 0.0696264)
(1.85852e-05 -4.65348e-07 0.0952613)
(-1.38605e-05 1.58641e-06 0.0693385)
(-5.99356e-06 9.37283e-06 0.144151)
(8.4228e-06 -1.24156e-05 0.144158)
(-8.56363e-06 -1.04151e-05 0.144196)
(-1.30316e-05 -1.09185e-05 0.144218)
(9.86648e-06 -1.0751e-05 0.144188)
(-1.14614e-05 1.69076e-05 0.144187)
(1.14714e-05 1.62092e-05 0.144217)
(2.70118e-05 2.74942e-07 0.114382)
(-1.80319e-05 9.64308e-06 0.0980478)
(1.8424e-05 -1.00457e-05 0.139994)
(1.55253e-05 1.10106e-05 0.134975)
(-3.28117e-05 -1.48017e-06 0.115092)
(1.76712e-05 -8.38521e-06 0.0975305)
(-1.87587e-05 1.16736e-05 0.139703)
(2.42278e-06 1.89677e-06 0.0595998)
(-1.16654e-06 9.00376e-07 0.0593955)
(-1.78394e-06 3.52174e-05 0.115504)
(-1.49775e-05 1.6493e-05 0.14057)
(1.88551e-05 -2.0813e-05 0.0983948)
(1.34548e-05 1.56956e-05 0.135318)
(-1.40652e-06 -3.74022e-05 0.115707)
(1.45212e-05 -2.16731e-05 0.14027)
(-2.07e-05 2.17347e-05 0.0981676)
(-9.53103e-07 -5.38595e-06 0.0828282)
(-1.80009e-05 2.26904e-06 0.0829871)
(0.000132329 0.00013392 0.129472)
(1.29498e-06 6.56223e-06 0.0824323)
(1.38255e-05 1.40234e-06 0.082758)
(-1.27723e-06 -3.07089e-05 0.0956992)
(5.05957e-06 1.99127e-05 0.0698335)
(-8.54158e-07 3.31536e-05 0.0958646)
(-4.53646e-06 -1.88331e-05 0.0697506)
(-7.45848e-06 3.90681e-06 0.0596433)
(3.17332e-06 -7.31362e-06 0.05956)
(-1.81823e-05 3.52945e-07 0.0946388)
(1.39991e-05 -4.39923e-06 0.0696274)
(2.01872e-05 -2.97996e-06 0.0952564)
(-1.31997e-05 3.87327e-06 0.0693443)
(-9.9845e-06 1.42687e-05 0.14415)
(1.29168e-05 -1.84846e-05 0.144158)
(-1.28175e-05 -1.70766e-05 0.144201)
(-1.69975e-05 -1.51066e-05 0.144209)
(1.22149e-05 -1.48906e-05 0.144185)
(-1.31076e-05 2.19089e-05 0.144178)
(1.64878e-05 2.33822e-05 0.144222)
(2.44803e-05 2.73022e-06 0.114391)
(-1.77938e-05 8.13875e-06 0.0980511)
(3.65676e-05 -1.55165e-05 0.140075)
(2.63118e-05 2.00443e-05 0.134971)
(-3.19919e-05 -1.60683e-06 0.115092)
(1.93355e-05 -9.44927e-06 0.0975405)
(-3.77342e-05 1.80041e-05 0.139606)
(1.88062e-06 1.78073e-06 0.0596041)
(-2.86787e-06 -2.39173e-06 0.0594109)
(-8.02459e-07 3.09068e-05 0.115512)
(-2.29723e-05 3.21409e-05 0.140654)
(1.82728e-05 -2.01643e-05 0.0983986)
(2.28724e-05 2.8974e-05 0.135312)
(7.51325e-07 -3.6865e-05 0.115698)
(2.51427e-05 -4.31235e-05 0.140169)
(-1.69467e-05 2.1769e-05 0.0981725)
(-1.32727e-07 -4.00262e-06 0.0828156)
(-1.51544e-05 2.87692e-08 0.0829755)
(0.000131619 0.000132417 0.129477)
(-3.17637e-07 5.77908e-06 0.0824387)
(1.30981e-05 6.43342e-06 0.0827702)
(-7.69374e-07 -2.94419e-05 0.0957189)
(1.2231e-06 2.11859e-05 0.0698281)
(-2.21205e-06 3.17894e-05 0.0958534)
(-4.1432e-06 -2.12943e-05 0.0697701)
(-7.39028e-06 3.25104e-06 0.0596211)
(3.10251e-06 -5.47547e-06 0.0595719)
(-1.79034e-05 1.54883e-06 0.094659)
(1.55074e-05 -5.21067e-06 0.069611)
(1.89813e-05 -2.541e-06 0.095238)
(-1.67313e-05 3.47789e-06 0.0693564)
(-1.10338e-05 1.63256e-05 0.144152)
(1.53009e-05 -2.54332e-05 0.144161)
(-1.6506e-05 -2.37096e-05 0.144207)
(-1.45556e-05 -1.33936e-05 0.144194)
(6.84672e-06 -1.35564e-05 0.144173)
(-1.39755e-05 2.75662e-05 0.144164)
(1.46255e-05 2.52349e-05 0.144208)
(1.93537e-05 1.51792e-06 0.114411)
(-1.92421e-05 7.89071e-06 0.0980306)
(7.16958e-05 -2.49683e-05 0.140206)
(4.99138e-05 3.94031e-05 0.134974)
(-3.25246e-05 -3.45038e-06 0.115087)
(2.058e-05 -5.45524e-06 0.0975542)
(-8.46266e-05 3.03904e-05 0.139454)
(2.2241e-06 -1.18083e-07 0.0595916)
(-4.66074e-06 -4.66682e-06 0.0594289)
(2.84244e-07 2.78054e-05 0.115529)
(-3.91936e-05 6.67625e-05 0.140787)
(1.73647e-05 -2.14262e-05 0.0983731)
(4.245e-05 5.42208e-05 0.135314)
(5.75021e-07 -3.89597e-05 0.115698)
(4.45408e-05 -8.40779e-05 0.140018)
(-1.35264e-05 2.44485e-05 0.0981866)
(-3.98679e-06 -2.30185e-06 0.0827882)
(-1.55793e-05 -1.31437e-07 0.082957)
(0.000131583 0.000132777 0.129493)
(2.68237e-06 4.21267e-06 0.0824641)
(9.85733e-06 4.83921e-06 0.0828029)
(1.63332e-06 -2.83762e-05 0.0957611)
(-6.69789e-07 2.52532e-05 0.0698038)
(2.04666e-07 3.47632e-05 0.0958137)
(4.50812e-06 -2.68321e-05 0.069793)
(2.74028e-07 1.02135e-05 0.0595806)
(-7.59668e-07 -1.18156e-05 0.0596083)
(-1.56518e-05 2.36633e-06 0.0947108)
(1.71605e-05 -8.63757e-06 0.0695816)
(2.13743e-05 -1.90031e-06 0.0951988)
(-2.00116e-05 9.56941e-06 0.0693741)
(-2.65849e-06 1.28983e-05 0.14417)
(1.05797e-05 -2.66991e-05 0.144187)
(-1.27544e-05 -2.42729e-05 0.144236)
(1.84868e-05 1.58346e-05 0.144149)
(-3.02242e-05 1.47255e-05 0.144138)
(1.27217e-05 6.65863e-06 0.14412)
(-1.50545e-05 3.53323e-06 0.144164)
(1.22152e-05 1.54901e-06 0.114443)
(-2.2064e-05 -4.46998e-07 0.0979962)
(0.000147565 -4.62504e-05 0.140418)
(9.66192e-05 7.7134e-05 0.135004)
(-3.28475e-05 -3.06976e-06 0.11506)
(2.78505e-05 -1.82638e-06 0.0975986)
(-0.000176961 5.39381e-05 0.139225)
(7.50563e-06 6.2542e-06 0.0595415)
(-6.82044e-06 -6.72985e-06 0.0594509)
(9.0318e-07 2.02404e-05 0.115571)
(-6.97211e-05 0.000139986 0.141)
(1.49428e-05 -2.34815e-05 0.0983456)
(7.71718e-05 0.000109689 0.135337)
(-1.71529e-07 -3.95862e-05 0.115677)
(8.01978e-05 -0.000174801 0.139783)
(-5.76315e-06 3.20522e-05 0.0982236)
(-7.93769e-06 3.00207e-06 0.0827294)
(-8.06787e-06 -7.07135e-06 0.082908)
(0.000127597 0.000129963 0.12952)
(6.5587e-06 -3.46959e-06 0.0825278)
(5.45946e-06 1.38561e-05 0.0828773)
(6.31108e-08 -3.13354e-05 0.0958467)
(-9.38973e-06 3.18514e-05 0.06976)
(1.48267e-06 3.46613e-05 0.0957462)
(2.056e-05 -3.8041e-05 0.0698221)
(1.14804e-05 1.9298e-05 0.0595049)
(-1.9115e-05 -2.30652e-05 0.0597014)
(-1.79427e-05 2.33554e-06 0.0948102)
(2.68479e-05 -1.74706e-05 0.0695196)
(2.40101e-05 2.26715e-08 0.0951187)
(-3.16647e-05 2.56053e-05 0.0693958)
(5.03849e-05 -3.03377e-05 0.144231)
(-3.03356e-05 3.50908e-06 0.144248)
(2.85781e-05 1.00568e-05 0.144289)
(0.000169598 0.000157876 0.144023)
(-0.000187149 0.000155076 0.144032)
(0.000152194 -0.000119067 0.143995)
(-0.000155612 -0.000129527 0.144035)
(-6.9979e-06 2.6993e-06 0.11451)
(-3.00336e-05 -1.3182e-05 0.0979356)
(0.000317739 -9.41854e-05 0.140755)
(0.000201841 0.000147133 0.135084)
(-3.28773e-05 -5.3692e-06 0.114994)
(4.5816e-05 1.6241e-05 0.0976662)
(-0.000392991 0.000114426 0.138865)
(1.68981e-05 1.8123e-05 0.0594588)
(-1.97089e-05 -2.46199e-05 0.0595417)
(1.52845e-06 3.66988e-06 0.115637)
(-0.000136435 0.000312095 0.141324)
(7.69794e-08 -3.10239e-05 0.0983007)
(0.000146173 0.000218715 0.135394)
(-1.92691e-06 -4.00066e-05 0.115627)
(0.000161806 -0.000394159 0.139413)
(9.65531e-06 5.19761e-05 0.0982984)
(-1.91392e-05 1.49712e-05 0.0825922)
(2.70003e-06 -1.64497e-05 0.0827865)
(0.0001248 0.000127942 0.129596)
(2.55818e-05 -2.36443e-05 0.0826866)
(-1.83504e-05 2.93972e-05 0.0830403)
(-8.69027e-06 -4.61502e-05 0.096015)
(-4.27273e-05 5.64676e-05 0.0697373)
(5.30585e-06 4.66494e-05 0.0956058)
(6.16532e-05 -6.9635e-05 0.0697984)
(4.71435e-05 4.84144e-05 0.0593676)
(-7.16949e-05 -6.20475e-05 0.0598724)
(-3.11236e-05 -1.05232e-05 0.094997)
(5.12932e-05 -4.95506e-05 0.069485)
(3.49673e-05 2.05573e-06 0.0949483)
(-6.15451e-05 6.51806e-05 0.0693863)
(0.000273888 -0.000230979 0.144373)
(-0.00022896 0.000188459 0.144391)
(0.000230911 0.000201136 0.144434)
(0.000769681 0.000745611 0.143718)
(-0.000811029 0.000740782 0.143749)
(0.000728671 -0.000675927 0.143697)
(-0.000746116 -0.000699143 0.143732)
(-4.65862e-05 1.67219e-06 0.114654)
(-5.07313e-05 -4.47963e-05 0.0978486)
(0.000748896 -0.000226509 0.14126)
(0.000443539 0.000261739 0.135304)
(-4.31793e-05 -4.98548e-06 0.114861)
(8.92103e-05 5.63276e-05 0.0977568)
(-0.000939462 0.000292973 0.138313)
(4.64214e-05 5.43602e-05 0.0593041)
(-5.42851e-05 -7.34917e-05 0.0597137)
(-1.34517e-06 -3.1284e-05 0.115762)
(-0.000294333 0.000748546 0.141814)
(-2.75551e-05 -5.65504e-05 0.0982343)
(0.00026038 0.000468132 0.135572)
(-1.15602e-06 -5.20651e-05 0.115513)
(0.000368541 -0.000945179 0.138855)
(4.78308e-05 9.64012e-05 0.098372)
(-5.70342e-05 5.34013e-05 0.0823005)
(4.25316e-05 -5.6085e-05 0.0825129)
(0.000128983 0.000139657 0.129801)
(7.44771e-05 -7.75084e-05 0.0830464)
(-7.06603e-05 8.3885e-05 0.0833935)
(-5.74478e-05 -0.000158413 0.0963599)
(-0.000128972 0.000106073 0.069976)
(2.95816e-05 7.44553e-05 0.0953561)
(0.00016614 -0.000175497 0.0694094)
(0.000158164 0.000121436 0.0591681)
(-0.000212987 -0.000185497 0.0601572)
(-0.000143807 -5.66305e-05 0.0953883)
(9.96432e-05 -0.000135027 0.0697086)
(6.51939e-05 2.89215e-05 0.0946394)
(-0.000168121 0.000170721 0.0690005)
(0.00118763 -0.00110352 0.144639)
(-0.00108157 0.00102959 0.144666)
(0.00109988 0.00106762 0.144706)
(0.00298353 0.00298475 0.143017)
(-0.00308766 0.00297784 0.143066)
(0.00289644 -0.00285451 0.142994)
(-0.00294142 -0.00291873 0.143031)
(-8.66746e-05 -1.876e-05 0.114939)
(-0.000109184 -0.00011703 0.0978785)
(0.00197615 -0.000616281 0.141935)
(0.00120082 0.000250508 0.135891)
(-6.65114e-05 -2.00369e-06 0.114554)
(0.000253883 0.000108185 0.097661)
(-0.00241277 0.000801842 0.137561)
(0.000120008 0.00016566 0.0590949)
(-0.000180605 -0.000217448 0.0600163)
(-2.71934e-05 -6.30187e-05 0.115961)
(-0.000712252 0.00200116 0.142481)
(-0.00010126 -0.000108268 0.0983098)
(0.0002493 0.00123419 0.136084)
(3.72504e-06 -7.44728e-05 0.115282)
(0.000891728 -0.00243198 0.138126)
(9.37265e-05 0.00026073 0.0982288)
(-0.000162453 0.000157132 0.0817251)
(0.000137825 -0.000153172 0.0819922)
(0.000241802 0.000244245 0.130331)
(0.000267342 -0.000168487 0.0838261)
(-0.000157333 0.000274731 0.0841552)
(-0.000268792 -0.00133254 0.0960449)
(-0.000395593 0.000160088 0.0717089)
(0.000127516 -2.19617e-05 0.0946462)
(0.000128875 -0.00121147 0.0671832)
(0.00046173 0.000236848 0.059558)
(-0.000234528 -0.00119287 0.0612875)
(-0.00130511 -0.000263092 0.0960111)
(0.000157414 -0.000385822 0.0715311)
(-2.68768e-05 0.000126279 0.0943214)
(-0.00120768 0.000142616 0.0671772)
(0.00524997 -0.00510999 0.144381)
(-0.00497922 0.00496603 0.144426)
(0.00504052 0.0050516 0.144466)
(0.00861647 0.00864975 0.1381)
(-0.0089276 0.00865966 0.138018)
(0.00839464 -0.00854603 0.138044)
(-0.00846894 -0.00866067 0.138116)
(0.000779154 -0.000148067 0.114741)
(3.52259e-06 -0.00034508 0.0990344)
(0.0063521 -0.0017861 0.142119)
(0.00507539 -0.00171843 0.137048)
(0.000178269 -8.13578e-06 0.113872)
(0.00136558 -0.000192078 0.0959845)
(-0.00591694 0.00191447 0.136636)
(0.000239626 0.000450851 0.0594797)
(-0.00118508 -0.000245381 0.0613131)
(-0.000181002 0.000816237 0.114718)
(-0.00182841 0.00638023 0.142548)
(-0.000331543 5.79756e-06 0.0995139)
(-0.00164575 0.00501438 0.136656)
(6.77912e-06 0.00017346 0.114358)
(0.0018707 -0.00600369 0.136511)
(-0.000217873 0.00134918 0.0958788)
(-0.000297806 0.00032587 0.081106)
(0.000321119 -0.000295034 0.0814933)
(0.0016371 0.00164642 0.131189)
(0.00132181 0.000266529 0.0853695)
(0.000284064 0.0013247 0.0853986)
(-0.00131762 -0.0252937 0.0994575)
(-0.000839029 -0.00377314 0.0451574)
(-0.000357469 -0.00641265 0.0873815)
(-0.00752972 -0.0166757 0.0867573)
(0.000183986 -0.0019785 0.0350015)
(0.00800027 -0.0156423 0.0846317)
(-0.0252453 -0.00131679 0.0994789)
(-0.00378182 -0.000840544 0.0451612)
(-0.00642039 -0.000366066 0.0874699)
(-0.0166833 -0.00755172 0.0867728)
(-0.00583885 -0.00574332 0.117151)
(-0.00412028 -0.0181615 0.13719)
(-0.0182991 -0.00432552 0.137269)
(-0.0247811 -0.0249504 0.124478)
(-0.00652718 -0.00644154 0.139842)
(-0.00491855 -0.022945 0.121536)
(-0.0230002 -0.00502621 0.121592)
(0.0276516 -0.00247324 0.107391)
(0.00600574 -0.00311728 0.0863621)
(0.0262138 -0.00470746 0.130471)
(0.0312132 -0.0228108 0.120006)
(0.00599851 -0.000509654 0.106816)
(0.0210537 -0.0100982 0.0991433)
(0.0319823 -0.00502008 0.120462)
(-0.00198933 0.000167842 0.0350078)
(-0.0156514 0.00796205 0.0846198)
(-0.00267576 0.0274108 0.107352)
(-0.00456758 0.0264368 0.130415)
(-0.00311189 0.00596377 0.0863439)
(-0.0219674 0.0308118 0.119944)
(-0.000414695 0.00599609 0.106681)
(-0.00481252 0.0320757 0.120375)
(-0.0101525 0.0210724 0.0991985)
(0.0035209 0.00212414 0.076138)
(0.00214687 0.00350289 0.0762426)
(0.0245181 0.0244398 0.116763)
(0.0177832 0.00972783 0.0927488)
(0.00978853 0.0177838 0.0927859)
(-4.32581e-06 -3.42158e-06 0.0594929)
(1.0292e-05 6.18537e-06 0.0594783)
(-1.898e-06 -5.1258e-07 0.0592917)
(-1.01893e-06 -4.82448e-07 0.0595029)
(0.000129312 0.000130954 0.129637)
(-1.68155e-05 -3.44723e-06 0.0827846)
(-2.63412e-06 -7.96325e-06 0.0823524)
(1.45353e-05 -2.65518e-06 0.0828707)
(-2.13402e-06 3.66655e-06 0.0827545)
(8.39335e-06 -2.04621e-05 0.0695135)
(-4.58191e-06 5.29024e-06 0.135002)
(2.18722e-05 -2.24772e-05 0.0977536)
(1.0775e-06 2.34958e-05 0.0952285)
(-1.88729e-06 -2.10053e-05 0.0697085)
(7.7059e-06 1.81963e-05 0.069559)
(1.51674e-07 -3.99756e-05 0.0956877)
(1.64696e-06 2.40285e-05 0.0952308)
(3.21499e-06 -1.94471e-05 0.0697552)
(-5.83178e-06 2.0653e-05 0.0696044)
(1.84242e-06 -4.19857e-05 0.0956891)
(1.61903e-06 3.24983e-05 0.115053)
(-3.94676e-06 3.88085e-06 0.135394)
(-2.22782e-05 -2.28786e-05 0.0981476)
(1.50852e-06 3.46422e-06 0.140469)
(1.77671e-05 1.60479e-05 0.0979936)
(-2.50645e-06 2.0403e-06 0.14044)
(6.42136e-07 -3.87269e-05 0.115521)
(2.58624e-06 3.17553e-05 0.115051)
(4.21464e-06 8.11931e-06 0.135354)
(2.17349e-05 -2.24225e-05 0.0981543)
(-4.97366e-07 3.73808e-06 0.140455)
(-1.83621e-05 1.99187e-05 0.0979967)
(4.26309e-06 2.81853e-06 0.140423)
(3.39477e-06 -3.82835e-05 0.115521)
(0.000134504 -0.000127072 0.12943)
(1.95751e-05 2.15188e-07 0.0825564)
(-2.14776e-07 -8.45013e-06 0.0824521)
(2.33684e-06 -1.42673e-06 0.059373)
(5.21007e-06 -2.8159e-06 0.0595298)
(-1.03188e-05 7.25213e-06 0.0595166)
(-0.000125835 0.000129446 0.129596)
(1.60841e-05 -1.99067e-06 0.0827784)
(2.08723e-06 -7.67642e-06 0.082452)
(-1.64997e-05 -2.87048e-07 0.0828707)