/*--------------------------------*- C++ -*----------------------------------*\
| =========                 |                                                 |
| \\      /  F ield         | OpenFOAM: The Open Source CFD Toolbox           |
|  \\    /   O peration     | Version:  2206                                  |
|   \\  /    A nd           | Website:  www.openfoam.com                      |
|    \\/     M anipulation  |                                                 |
\*---------------------------------------------------------------------------*/
FoamFile
{
    version     2.0;
    format      ascii;
    arch        "LSB;label=32;scalar=64";
    class       volVectorField;
    location    "120";
    object      wallShearStress;
}
// * * * * * * * * * * * * * * * * * * * * * * * * * * * * * * * * * * * * * //

dimensions      [0 2 -2 0 0 0 0];

internalField   uniform (0 0 0);

boundaryField
{
    topPatch
    {
        type            calculated;
        value           nonuniform List<vector> 0();
    }
    wall
    {
        type            calculated;
        value           nonuniform List<vector> 
7778
(
(-4.5701e-06 1.72501e-05 -0.00022001)
(-5.04892e-07 -6.14222e-06 -0.000118936)
(1.7278e-05 -4.60121e-06 -0.000220057)
(-6.12952e-06 -5.26284e-07 -0.000118984)
(4.54565e-06 1.7267e-05 -0.000220155)
(1.72147e-05 4.53495e-06 -0.000220094)
(-1.72298e-05 -4.65025e-06 -0.000220181)
(-1.72466e-05 4.60192e-06 -0.000220138)
(-4.5512e-06 -1.72423e-05 -0.000219996)
(-4.93744e-07 6.14874e-06 -0.00011902)
(4.55011e-06 -1.72789e-05 -0.000219994)
(9.13294e-06 4.49016e-05 -0.000187558)
(-1.8921e-05 6.98914e-07 -0.000274367)
(-6.02817e-06 7.86874e-06 -0.000221794)
(-2.76553e-05 3.5057e-05 -0.000215584)
(4.47868e-05 8.81445e-06 -0.000187435)
(7.5844e-07 -1.87702e-05 -0.000274287)
(7.91495e-06 -5.892e-06 -0.000221802)
(3.5132e-05 -2.75675e-05 -0.000215554)
(1.86286e-05 7.44057e-07 -0.000273573)
(2.73409e-05 3.53998e-05 -0.000215541)
(5.51877e-06 8.10617e-06 -0.000221798)
(6.98387e-07 1.8642e-05 -0.000273723)
(3.53332e-05 2.73874e-05 -0.000215625)
(8.05211e-06 5.59172e-06 -0.000221935)
(-8.8905e-06 4.47784e-05 -0.000187538)
(-6.7503e-07 1.87712e-05 -0.000274189)
(-7.83256e-06 5.91885e-06 -0.000221671)
(-3.50285e-05 2.75637e-05 -0.000215383)
(4.48973e-05 -9.17964e-06 -0.000187593)
(-4.47955e-05 8.77144e-06 -0.000187362)
(-4.46609e-05 -8.57132e-06 -0.000187288)
(1.89272e-05 -6.55217e-07 -0.000274378)
(6.07512e-06 -7.77907e-06 -0.000221867)
(2.77089e-05 -3.49829e-05 -0.000215553)
(9.13546e-06 -4.48913e-05 -0.000187542)
(-8.84916e-06 -4.47693e-05 -0.000187428)
(-7.36563e-07 -1.86104e-05 -0.000273604)
(-3.54032e-05 -2.73628e-05 -0.000215593)
(-8.08722e-06 -5.49004e-06 -0.000221789)
(-1.87169e-05 -6.40318e-07 -0.000273738)
(-2.74155e-05 -3.52908e-05 -0.000215608)
(-5.68864e-06 -8.02247e-06 -0.000221919)
(-8.77034e-06 1.10365e-05 -0.000153832)
(-1.49641e-06 2.07088e-05 -0.000144572)
(1.10468e-05 -8.77181e-06 -0.000153861)
(8.7623e-06 1.10011e-05 -0.000153958)
(1.48629e-06 2.07062e-05 -0.000144697)
(1.09647e-05 8.75757e-06 -0.000153954)
(2.0702e-05 1.50113e-06 -0.000144702)
(-1.09664e-05 -8.71426e-06 -0.000153994)
(-1.55129e-05 1.01724e-05 -0.000158375)
(-1.09836e-05 8.68451e-06 -0.000153859)
(-8.76371e-06 -1.09962e-05 -0.000153882)
(1.01541e-05 -1.5521e-05 -0.000158274)
(8.72922e-06 -1.10469e-05 -0.000153798)
(4.97302e-07 -6.13868e-06 -0.000119083)
(-6.13824e-06 5.41008e-07 -0.00011917)
(1.01582e-05 1.55027e-05 -0.000158129)
(2.07172e-05 -1.50555e-06 -0.000144572)
(1.55106e-05 1.01336e-05 -0.000158141)
(1.55134e-05 -1.01407e-05 -0.000158302)
(6.13325e-06 -5.00578e-07 -0.000119189)
(-2.07116e-05 -1.45595e-06 -0.000144754)
(6.15417e-06 4.74838e-07 -0.00011908)
(-2.07019e-05 1.43789e-06 -0.000144573)
(-1.55013e-05 -1.0176e-05 -0.000158146)
(-1.51133e-06 -2.06997e-05 -0.000144644)
(4.55608e-07 6.15725e-06 -0.000118912)
(1.46337e-06 -2.06956e-05 -0.000144549)
(2.94891e-06 1.76412e-05 -0.000160041)
(1.76361e-05 2.93451e-06 -0.000160099)
(-2.96251e-06 1.76214e-05 -0.000160162)
(-1.01797e-05 1.55097e-05 -0.000158307)
(1.75938e-05 -2.91532e-06 -0.000160208)
(-1.75852e-05 2.96117e-06 -0.000160259)
(-1.75523e-05 -3.00104e-06 -0.000160217)
(2.94905e-06 -1.76319e-05 -0.000160059)
(-3.00275e-06 -1.76365e-05 -0.000160007)
(-1.01899e-05 -1.55009e-05 -0.000158136)
(-1.20468e-08 -6.06044e-09 -0.000110387)
(-1.88682e-08 4.31121e-09 -0.000103721)
(2.10316e-08 -4.43757e-09 -0.000103713)
(1.02458e-08 2.53093e-09 -0.000110364)
(-9.11647e-09 -4.03492e-09 -0.000110299)
(-1.63439e-09 3.22802e-09 -0.000103887)
(2.37869e-09 -6.79001e-10 -0.000103721)
(1.19415e-09 2.22579e-09 -0.000110559)
(2.34753e-09 7.7093e-09 -0.000110365)
(-1.08448e-08 2.65346e-09 -0.000103722)
(1.28236e-08 -3.59949e-09 -0.000103725)
(1.99737e-08 1.05274e-08 -0.000110369)
(-1.88045e-08 -6.68795e-09 -0.000110321)
(-4.03495e-09 1.01976e-08 -0.000103908)
(-2.23545e-09 3.66525e-09 -0.000103755)
(-1.91402e-10 -3.63755e-09 -0.000110584)
(-2.48132e-09 -7.30147e-09 -0.000110406)
(-1.3145e-08 7.35563e-10 -0.00010374)
(2.0978e-08 -6.81652e-09 -0.000103742)
(1.6138e-08 1.06222e-08 -0.000110384)
(-7.70455e-09 1.76948e-09 -0.000110333)
(-3.53462e-09 2.81476e-09 -0.000103937)
(-7.20266e-10 -2.95719e-09 -0.00010377)
(2.86426e-10 -5.16462e-09 -0.000110607)
(5.887e-09 4.62674e-09 -0.000110414)
(-1.48224e-08 -1.73721e-09 -0.000103749)
(2.20955e-08 -5.85581e-09 -0.000103766)
(2.01972e-08 1.01173e-08 -0.000110402)
(-1.68212e-08 -8.11931e-09 -0.000110367)
(-6.959e-09 3.31587e-09 -0.00010395)
(5.40864e-10 -7.42531e-10 -0.000103804)
(-4.75016e-09 -8.45324e-09 -0.00011061)
(-4.06291e-09 -5.15927e-09 -0.000110431)
(-1.41774e-08 -9.15245e-10 -0.000103763)
(1.69593e-08 -4.52123e-10 -0.000103784)
(2.14371e-08 8.56179e-09 -0.000110402)
(-1.92077e-09 -4.27925e-10 -0.000110371)
(-4.4215e-09 9.13144e-09 -0.000103966)
(6.41074e-09 -7.14077e-09 -0.000103817)
(-1.28317e-10 1.34342e-09 -0.000110621)
(2.28978e-09 1.01418e-08 -0.000110463)
(-5.04657e-09 -1.65785e-09 -0.00010374)
(1.42583e-08 -7.58849e-10 -0.000103806)
(2.19471e-08 1.08742e-08 -0.00011037)
(-1.19999e-08 2.58993e-10 -0.000110393)
(-4.35569e-09 9.79091e-09 -0.000103933)
(3.53785e-09 -2.34528e-09 -0.000103829)
(2.07824e-09 1.15845e-09 -0.000110603)
(6.93535e-09 6.53603e-09 -0.000110484)
(-9.77271e-09 -1.412e-09 -0.000103713)
(-2.31127e-09 4.57914e-09 -0.000103829)
(5.71204e-09 -2.25471e-09 -0.000110296)
(-5.76356e-09 1.69394e-09 -0.000110436)
(-1.87337e-09 4.06074e-09 -0.000103903)
(5.63025e-09 -1.13979e-08 -0.000103846)
(-7.75506e-09 -9.43878e-09 -0.000110524)
(5.08887e-09 6.0875e-09 -0.000110515)
(1.18768e-09 -8.5704e-09 -0.000103647)
(-1.77567e-08 1.80479e-08 -0.000103895)
(-1.47039e-08 -1.50028e-08 -0.000110176)
(2.94629e-08 2.65242e-08 -0.000110583)
(-1.16165e-08 1.38949e-08 -0.000103813)
(2.23581e-08 -3.13791e-08 -0.000103907)
(-2.13475e-08 -3.05269e-08 -0.000110385)
(3.12993e-08 4.26327e-08 -0.00011066)
(5.71308e-08 -3.71822e-08 -0.000103555)
(-7.64616e-08 4.81552e-08 -0.000103944)
(-8.76377e-08 -6.1969e-08 -0.000109952)
(1.58434e-07 1.01976e-07 -0.000110879)
(-4.05025e-08 7.09166e-08 -0.000103698)
(4.96332e-08 -8.98215e-08 -0.000103958)
(-7.42825e-08 -1.12088e-07 -0.000110125)
(9.88022e-08 1.55757e-07 -0.000110958)
(2.17343e-07 -1.01173e-07 -0.00010375)
(-2.52464e-07 1.29834e-07 -0.000103993)
(-4.17381e-07 -2.4955e-07 -0.000109631)
(6.38712e-07 3.86863e-07 -0.000111701)
(-1.02643e-07 2.25334e-07 -0.000103875)
(1.37981e-07 -2.75422e-07 -0.000104021)
(-2.5333e-07 -4.27515e-07 -0.000109793)
(3.9998e-07 6.67159e-07 -0.000111817)
(7.96911e-07 -3.20088e-07 -0.000108097)
(-1.2747e-06 6.38783e-07 -9.28075e-05)
(-1.74624e-06 -9.89735e-07 -0.000112488)
(2.41939e-06 8.8332e-07 -0.000106638)
(-2.96328e-07 7.16712e-07 -0.00010816)
(6.59991e-07 -1.32905e-06 -9.28565e-05)
(-9.6039e-07 -1.68657e-06 -0.000112637)
(8.90623e-07 2.43867e-06 -0.000106657)
(1.0789e-05 2.27347e-05 -0.000112546)
(4.43443e-06 -2.57367e-06 -0.000121359)
(2.27423e-05 1.08054e-05 -0.000112567)
(-2.52255e-06 4.53791e-06 -0.000121348)
(1.59325e-08 -6.05335e-09 -0.000110253)
(-3.11949e-08 1.27831e-08 -0.00011035)
(7.30873e-10 -1.05187e-09 -0.000110234)
(-4.30894e-10 2.32793e-09 -0.000110423)
(-6.98944e-09 -1.53695e-09 -0.000103839)
(6.68454e-09 1.17464e-09 -0.000103719)
(-3.61416e-08 8.98466e-09 -0.000103751)
(-1.88197e-08 -2.74368e-09 -0.000103791)
(2.5611e-08 4.03003e-09 -0.000103805)
(2.14228e-09 1.92391e-09 -0.000110398)
(-2.20022e-08 -9.37192e-09 -0.000110317)
(2.77889e-08 1.18306e-08 -0.000110399)
(-5.28903e-10 -7.84743e-10 -0.000110376)
(2.29328e-09 4.6308e-09 -0.000110562)
(1.66303e-09 -1.86908e-09 -0.000103716)
(-7.77996e-10 -3.4386e-09 -0.00010388)
(1.96525e-09 4.05585e-09 -0.000103843)
(2.02217e-09 9.53717e-09 -0.000104005)
(-9.61768e-10 6.44548e-10 -0.00010386)
(-4.43645e-09 4.1156e-09 -0.000103776)
(-5.76724e-10 -8.3463e-10 -0.000103823)
(2.513e-09 1.38906e-09 -0.000103991)
(-2.72717e-09 7.79328e-09 -0.000103745)
(1.57047e-09 -1.62e-09 -0.000103912)
(2.9729e-09 5.86621e-09 -0.000110377)
(5.66699e-10 -4.95095e-10 -0.000110555)
(2.3807e-08 1.17432e-08 -0.000110358)
(-3.11361e-08 -1.60211e-08 -0.000110459)
(2.81174e-08 7.72805e-09 -0.000103801)
(-2.02821e-08 -5.01282e-09 -0.000103826)
(-2.5037e-08 5.08761e-09 -0.000103776)
(1.12968e-08 -4.11738e-10 -0.0001038)
(-2.92638e-09 4.54935e-09 -0.000110304)
(-1.89757e-08 6.64092e-09 -0.000110371)
(-7.48368e-09 1.24442e-08 -0.000110278)
(-1.12246e-09 9.15796e-10 -0.000110465)
(-3.08547e-08 1.42447e-08 -0.000110291)
(1.61189e-08 -6.45325e-09 -0.000110377)
(-1.36422e-08 5.56621e-09 -0.000110302)
(1.68473e-08 -8.49883e-09 -0.000110244)
(-2.68469e-09 6.2112e-09 -0.000110423)
(2.17273e-10 -3.49727e-09 -0.000110238)
(1.93076e-08 -6.67728e-09 -0.000110256)
(-1.57924e-08 4.39634e-09 -0.000110294)
(2.98255e-09 -4.29019e-09 -0.000110259)
(-4.15317e-10 2.60923e-11 -0.000110429)
(5.86888e-09 -2.04177e-09 -0.000103792)
(-7.07999e-09 -1.34682e-10 -0.00010378)
(1.94336e-08 -2.77756e-09 -0.000103715)
(-1.29591e-08 1.38086e-10 -0.000103705)
(-1.05645e-08 -2.99195e-11 -0.000103781)
(3.01783e-08 6.53245e-09 -0.000103782)
(5.60837e-09 8.58971e-09 -0.000110564)
(1.28753e-09 -3.76435e-10 -0.000110388)
(-1.27422e-08 -5.08368e-09 -0.000110312)
(2.71739e-08 1.11201e-08 -0.000110369)
(-1.14049e-09 -3.13564e-10 -0.000110404)
(1.44679e-09 2.22803e-09 -0.000110569)
(-9.782e-10 -7.42167e-10 -0.000104009)
(2.9974e-09 4.6039e-09 -0.00010384)
(7.82117e-10 -2.19569e-11 -0.00010373)
(-6.06745e-10 1.60509e-09 -0.000103889)
(3.79086e-10 -1.76594e-09 -0.000103855)
(-5.91066e-10 -3.06466e-10 -0.000104011)
(2.98857e-09 3.77608e-09 -0.000103991)
(-4.19839e-10 8.94436e-10 -0.000103834)
(-6.20384e-10 7.06926e-09 -0.000103919)
(-3.87991e-09 7.15435e-09 -0.000103765)
(-3.13482e-09 -2.77976e-09 -0.000103854)
(2.96457e-09 2.53543e-09 -0.000103998)
(-3.45691e-09 3.43923e-09 -0.000103788)
(-4.4973e-10 3.9947e-09 -0.000103934)
(-5.47421e-09 1.51557e-09 -0.000110407)
(1.80437e-08 7.42327e-09 -0.000110364)
(-3.72904e-10 1.4113e-10 -0.000110387)
(-2.17221e-09 -2.91419e-09 -0.000110555)
(1.53459e-08 4.60415e-09 -0.00011037)
(-2.19191e-08 -9.59492e-09 -0.000110425)
(-4.48208e-09 4.49437e-09 -0.000103799)
(2.49231e-08 4.79251e-09 -0.000103802)
(7.19719e-09 1.99125e-09 -0.000103774)
(-9.21704e-09 -8.98763e-10 -0.000103754)
(2.34847e-08 4.96041e-09 -0.0001038)
(-9.80545e-09 7.51815e-10 -0.0001038)
(-1.68898e-08 3.13258e-09 -0.000103738)
(2.35975e-08 -5.86532e-09 -0.000103761)
(-6.81656e-09 1.28768e-08 -0.000110472)
(-2.86245e-09 9.38419e-09 -0.000110294)
(-3.076e-09 5.98231e-09 -0.000110334)
(-1.43601e-08 5.58941e-09 -0.000110282)
(-3.70618e-09 6.41433e-09 -0.00011031)
(-6.38749e-09 9.41437e-09 -0.000110483)
(-1.3462e-08 4.81453e-09 -0.000110276)
(1.395e-08 -5.59233e-09 -0.000110347)
(-1.45466e-08 8.19249e-09 -0.000110318)
(1.5153e-08 -4.69201e-09 -0.000110271)
(-7.56728e-10 5.76495e-09 -0.000110455)
(-1.6512e-09 4.78409e-09 -0.000110284)
(1.21563e-08 -6.6926e-09 -0.000110285)
(-1.98595e-08 6.23907e-09 -0.000110329)
(1.65904e-09 -7.60297e-09 -0.000110303)
(-4.44681e-09 4.87008e-09 -0.000110475)
(2.14312e-08 6.30533e-09 -0.000103782)
(-1.67788e-08 -3.98133e-09 -0.000103789)
(1.79863e-08 -9.22756e-10 -0.000103745)
(-2.01182e-08 5.57755e-09 -0.000103735)
(-2.58027e-08 -1.30545e-10 -0.000103804)
(1.48817e-08 3.91263e-09 -0.000103794)
(-4.7588e-10 4.41186e-09 -0.000110595)
(-2.30487e-10 8.57279e-11 -0.000110413)
(-2.02985e-08 -9.49368e-09 -0.000110325)
(1.57859e-08 5.56161e-09 -0.000110377)
(6.4677e-10 -4.90872e-09 -0.000110416)
(6.51792e-09 7.81611e-09 -0.000110599)
(-2.45198e-09 -6.74926e-09 -0.000104029)
(-1.65318e-09 -6.69322e-09 -0.000103874)
(4.60985e-09 -5.31013e-10 -0.000103774)
(-2.48405e-09 7.92708e-09 -0.000103929)
(4.3625e-09 -5.55812e-09 -0.00010389)
(-2.82355e-09 -9.81946e-09 -0.00010405)
(-6.45076e-10 2.43306e-09 -0.000104023)
(-7.50737e-10 -7.18805e-10 -0.000103861)
(-2.53773e-09 3.02768e-09 -0.000103962)
(-1.09671e-09 7.15981e-09 -0.000103799)
(-4.60658e-09 -2.59867e-09 -0.000103868)
(2.06937e-09 4.22325e-09 -0.000104032)
(-7.27085e-09 4.25601e-09 -0.000103805)
(3.50881e-10 1.60241e-09 -0.00010397)
(-1.72868e-08 -9.53649e-09 -0.000110428)
(6.76472e-09 1.40159e-09 -0.000110379)
(-5.12591e-09 -5.29196e-09 -0.000110421)
(-8.89543e-09 -1.6647e-08 -0.000110599)
(1.17531e-08 7.1276e-09 -0.000110385)
(-3.25664e-08 -1.33321e-08 -0.000110446)
(-1.21971e-08 -3.22912e-09 -0.000103807)
(1.31093e-08 3.71195e-09 -0.000103805)
(1.33921e-08 -2.74097e-09 -0.000103734)
(-1.37863e-08 5.15815e-09 -0.000103726)
(1.56912e-08 -5.15621e-11 -0.00010382)
(-2.60767e-08 -6.12344e-09 -0.000103815)
(-9.07715e-09 -4.18262e-09 -0.000103728)
(2.39885e-08 -5.46014e-09 -0.000103729)
(-4.82632e-09 3.89024e-09 -0.000110509)
(-3.39669e-09 6.11261e-09 -0.000110328)
(2.0297e-08 -1.00684e-08 -0.000110321)
(-1.12158e-08 3.47082e-09 -0.00011026)
(-1.02026e-09 5.31247e-09 -0.00011032)
(-6.48675e-10 2.93678e-09 -0.000110512)
(-4.19167e-09 -7.86304e-10 -0.000110257)
(2.56301e-08 -1.10526e-08 -0.000110312)
(-1.7185e-08 8.28915e-09 -0.000110341)
(1.66016e-08 -4.31496e-09 -0.000110296)
(2.47959e-10 3.27307e-09 -0.000110495)
(5.68654e-09 -4.95786e-09 -0.000110313)
(1.46652e-08 -8.76476e-09 -0.000110305)
(-2.03845e-08 8.31255e-09 -0.000110344)
(2.59982e-09 -1.01848e-08 -0.000110317)
(1.28229e-09 -4.04357e-09 -0.000110489)
(9.63272e-09 7.95785e-10 -0.000103793)
(-1.12347e-08 -2.37148e-09 -0.000103792)
(1.72572e-08 -2.14402e-09 -0.000103759)
(-1.57227e-08 2.12816e-09 -0.000103743)
(-1.35364e-08 -6.05477e-10 -0.000103807)
(2.15712e-08 6.81762e-09 -0.000103805)
(2.07522e-10 3.97837e-09 -0.000110605)
(-5.26132e-09 -1.37671e-10 -0.000110436)
(-1.25818e-08 -6.49321e-09 -0.00011034)
(2.69168e-08 1.26792e-08 -0.000110395)
(-2.30592e-09 -1.18392e-08 -0.000110419)
(5.76774e-10 -3.28399e-10 -0.000110598)
(-3.4877e-09 -5.08819e-09 -0.000104038)
(1.56102e-09 4.51983e-09 -0.000103869)
(1.77154e-09 -2.40946e-09 -0.000103786)
(-1.91422e-10 -1.83421e-09 -0.000103942)
(-2.1249e-10 -4.25082e-09 -0.000103887)
(8.23561e-10 -2.75256e-10 -0.000104044)
(-5.01587e-10 -2.39686e-09 -0.000104026)
(-2.12258e-09 -6.93923e-09 -0.000103869)
(-1.77953e-10 4.49868e-09 -0.000103967)
(2.0885e-09 2.24966e-09 -0.0001038)
(-4.69327e-09 -7.49138e-09 -0.000103879)
(-5.05893e-10 -6.05921e-09 -0.000104034)
(-1.98398e-09 -3.40072e-10 -0.000103821)
(5.18204e-10 1.26755e-09 -0.000103969)
(-1.56394e-08 -6.91419e-09 -0.000110442)
(1.12313e-08 -1.77721e-09 -0.000110405)
(-3.69029e-09 -1.83993e-09 -0.000110422)
(-1.45571e-09 -2.47118e-09 -0.000110592)
(1.24239e-08 8.58062e-09 -0.000110401)
(-2.8079e-08 -1.40033e-08 -0.000110456)
(-2.01191e-08 -5.12293e-09 -0.000103816)
(1.0014e-08 1.10855e-09 -0.000103822)
(2.66855e-08 -6.20847e-09 -0.000103725)
(-2.92939e-09 -2.15472e-10 -0.000103723)
(1.43855e-08 1.04134e-09 -0.000103836)
(-2.38835e-08 -5.35892e-09 -0.000103826)
(-8.16051e-09 -2.17102e-09 -0.00010375)
(2.78733e-08 -8.37205e-09 -0.000103741)
(-3.81531e-09 1.34523e-09 -0.000110514)
(6.88903e-10 -5.34679e-09 -0.000110324)
(2.33668e-08 -1.16845e-08 -0.000110311)
(5.48113e-10 -5.50346e-09 -0.00011026)
(2.5991e-09 -5.81133e-10 -0.000110325)
(2.95313e-10 1.31277e-09 -0.000110493)
(-2.81359e-09 2.20022e-09 -0.000110275)
(2.95299e-08 -1.3392e-08 -0.000110324)
(-1.8134e-08 7.26241e-09 -0.000110361)
(1.62687e-08 -7.94149e-09 -0.000110324)
(5.30602e-11 -1.34548e-09 -0.000110507)
(-7.52781e-10 -3.78556e-09 -0.000110341)
(1.59343e-08 -5.60377e-09 -0.000110338)
(-1.41667e-08 4.2328e-09 -0.000110368)
(-5.13319e-10 3.75495e-09 -0.000110354)
(-2.58202e-09 2.77792e-09 -0.000110519)
(1.85364e-08 8.62294e-10 -0.000103798)
(-2.23275e-08 -4.42718e-09 -0.000103826)
(1.75125e-08 -6.53112e-09 -0.000103777)
(-8.41843e-09 1.55598e-09 -0.000103766)
(-2.05991e-08 -6.84588e-09 -0.00010383)
(7.98174e-09 1.61999e-09 -0.000103821)
(-3.79526e-09 -4.91279e-09 -0.000110607)
(-1.74306e-09 -5.32373e-09 -0.000110426)
(-1.62487e-08 -7.20131e-09 -0.000110376)
(1.69554e-08 6.33058e-09 -0.000110411)
(-3.8626e-09 -4.08905e-09 -0.000110421)
(4.4494e-09 4.60394e-09 -0.000110595)
(-7.69391e-09 -8.81243e-09 -0.000104042)
(-2.40143e-09 -6.57364e-09 -0.000103888)
(-3.23971e-09 4.91242e-09 -0.000103805)
(-3.35005e-09 6.02017e-09 -0.000103965)
(-2.12923e-09 -4.777e-10 -0.000103894)
(-3.33731e-09 -1.1244e-08 -0.000104051)
(1.48451e-09 -4.77355e-09 -0.000104035)
(-1.2596e-09 -1.56667e-09 -0.000103881)
(2.64631e-09 6.7283e-10 -0.000103976)
(9.24062e-11 1.27517e-09 -0.000103817)
(2.67277e-09 1.47845e-10 -0.000103865)
(3.84821e-09 4.9696e-09 -0.000104039)
(3.86599e-09 -2.18567e-09 -0.000103822)
(2.92189e-09 -5.30449e-09 -0.00010398)
(-1.27521e-08 -6.69288e-09 -0.000110458)
(1.11157e-08 6.19044e-09 -0.000110408)
(-5.13028e-11 -1.25086e-09 -0.000110457)
(-1.01674e-08 -1.51127e-08 -0.000110603)
(1.39597e-08 2.68596e-09 -0.000110421)
(-2.55659e-08 -9.03163e-09 -0.000110457)
(-1.73342e-08 -1.81728e-09 -0.000103824)
(1.44743e-08 3.66167e-09 -0.000103828)
(2.85769e-08 -4.18787e-09 -0.000103735)
(-1.15675e-08 5.7924e-10 -0.000103741)
(1.38104e-08 4.97766e-09 -0.000103827)
(-2.05003e-08 -3.41006e-09 -0.000103823)
(-2.19816e-08 8.00338e-09 -0.000103734)
(1.5766e-08 -1.83191e-09 -0.000103726)
(-6.65427e-10 -1.51802e-09 -0.000110517)
(-1.26686e-09 4.50613e-09 -0.000110335)
(2.71763e-08 -1.36549e-08 -0.000110327)
(-9.0743e-09 4.60862e-09 -0.00011027)
(-4.69944e-10 -3.55132e-09 -0.000110336)
(3.70238e-09 -2.14842e-09 -0.000110502)
(-1.95246e-08 6.45517e-09 -0.000110272)
(2.09972e-08 -7.31536e-09 -0.000110303)
(-1.95316e-08 7.52048e-09 -0.000110364)
(1.1598e-08 -6.71373e-09 -0.000110334)
(-6.63332e-09 1.16779e-08 -0.000110515)
(1.91517e-10 -4.58872e-09 -0.000110356)
(1.47902e-08 -7.97139e-09 -0.000110345)
(-1.32398e-08 6.99153e-09 -0.000110357)
(7.62876e-10 -5.67636e-09 -0.000110346)
(-1.06402e-09 4.29135e-09 -0.000110508)
(1.33038e-08 -3.35953e-10 -0.000103815)
(8.46272e-10 4.42017e-09 -0.000103831)
(2.24092e-08 -3.3652e-09 -0.000103792)
(-1.00812e-08 9.74654e-11 -0.000103754)
(-7.38247e-09 3.37118e-09 -0.000103836)
(2.72501e-08 2.98398e-09 -0.000103804)
(1.86159e-09 3.68717e-09 -0.000110581)
(1.80209e-09 -7.19904e-10 -0.000110431)
(-8.44025e-09 -3.40254e-09 -0.000110373)
(2.49531e-08 1.00271e-08 -0.000110398)
(-4.7115e-09 -1.35106e-08 -0.000110431)
(1.98616e-09 6.7022e-09 -0.000110574)
(-2.85643e-09 -2.95827e-09 -0.000104052)
(5.89487e-09 8.36598e-09 -0.000103909)
(1.96231e-09 7.17737e-10 -0.000103808)
(-1.38676e-09 1.31804e-10 -0.000103948)
(4.11397e-09 3.53424e-09 -0.000103919)
(-2.86778e-09 2.75356e-09 -0.000104046)
(3.61632e-09 3.66502e-09 -0.000104023)
(-3.47918e-09 -1.63205e-09 -0.000103885)
(2.44322e-09 -4.14649e-09 -0.000103985)
(-1.78843e-09 1.95476e-09 -0.000103832)
(-5.84262e-09 -7.36682e-09 -0.000103886)
(1.46129e-09 2.45497e-10 -0.000104019)
(-6.25428e-09 4.63436e-09 -0.000103833)
(4.84282e-09 -1.40454e-09 -0.000103961)
(-1.22952e-08 -6.37101e-09 -0.000110448)
(1.40115e-08 7.30117e-09 -0.000110432)
(2.10634e-09 8.42898e-09 -0.000110476)
(-6.02402e-10 -3.43361e-10 -0.000110614)
(1.13912e-08 4.1859e-09 -0.00011044)
(-1.86998e-08 -1.03368e-08 -0.000110465)
(-1.36015e-08 -8.54361e-10 -0.000103821)
(1.66568e-08 4.08031e-10 -0.000103856)
(1.27288e-08 -2.6977e-09 -0.000103732)
(-1.21408e-08 -7.50016e-10 -0.000103759)
(9.37696e-09 -3.26293e-09 -0.000103859)
(-1.62424e-08 -1.2984e-09 -0.000103828)
(-8.95451e-09 -2.31959e-09 -0.000103776)
(1.47286e-08 1.19768e-09 -0.000103736)
(-9.4869e-11 -1.04058e-09 -0.000110498)
(6.42571e-09 -5.35681e-09 -0.000110333)
(1.1956e-08 -4.72673e-09 -0.000110303)
(-1.52784e-09 -1.03484e-10 -0.000110292)
(5.94234e-10 2.52174e-09 -0.000110335)
(3.10546e-09 -7.77261e-09 -0.000110477)
(-5.29484e-09 1.51962e-09 -0.00011031)
(1.82109e-08 -7.54018e-09 -0.000110319)
(-1.14891e-08 2.64843e-09 -0.000110336)
(1.6364e-08 -3.40482e-09 -0.000110383)
(-3.2884e-09 7.68982e-09 -0.000110475)
(2.67266e-09 -1.67308e-09 -0.000110375)
(5.40844e-09 6.47576e-10 -0.000110402)
(-1.08491e-08 1.23545e-09 -0.000110337)
(5.60676e-09 -4.87223e-09 -0.000110403)
(-8.8217e-09 1.04756e-08 -0.00011046)
(2.29248e-08 5.24093e-09 -0.000103789)
(-9.46737e-09 -2.32819e-11 -0.000103841)
(1.32969e-08 -1.31275e-09 -0.000103811)
(-1.25226e-08 8.94835e-10 -0.000103743)
(-1.65554e-08 -3.48707e-09 -0.000103839)
(1.41661e-08 2.08697e-09 -0.000103778)
(-2.18333e-09 -2.01562e-09 -0.00011056)
(-9.32236e-09 -1.2868e-08 -0.00011046)
(-1.35921e-08 -3.76834e-09 -0.000110403)
(1.61562e-08 5.34167e-09 -0.000110345)
(-7.51753e-09 -8.64965e-09 -0.000110484)
(3.70569e-09 6.10257e-09 -0.000110545)
(-3.05756e-09 -2.83758e-09 -0.000104042)
(5.27881e-09 9.63228e-09 -0.000103925)
(7.41253e-09 -1.01813e-08 -0.000103839)
(-3.42295e-09 4.42864e-09 -0.000103926)
(3.93844e-09 8.55762e-09 -0.000103934)
(1.34223e-09 -9.93784e-10 -0.000104032)
(1.65495e-10 -1.20795e-09 -0.000104007)
(-5.69164e-09 -5.8778e-09 -0.000103901)
(1.09563e-09 2.17023e-09 -0.000103954)
(-2.249e-09 3.65009e-09 -0.000103839)
(-5.38963e-09 -7.15087e-09 -0.000103914)
(3.84981e-09 5.06598e-09 -0.000103999)
(-1.14824e-09 3.39582e-09 -0.000103848)
(3.17285e-09 -1.02435e-08 -0.000103948)
(-1.73237e-08 -8.07052e-09 -0.000110433)
(4.59181e-09 -2.18284e-09 -0.000110449)
(4.97947e-09 5.60511e-09 -0.000110502)
(-4.66103e-09 -9.57406e-09 -0.000110566)
(2.20641e-09 -4.29255e-09 -0.000110468)
(-2.6036e-08 -1.09567e-08 -0.000110406)
(-2.3087e-08 -5.68504e-09 -0.000103808)
(9.42738e-09 -1.3174e-09 -0.000103852)
(2.11888e-08 -3.82706e-09 -0.00010373)
(-1.54187e-08 3.49157e-09 -0.000103784)
(6.02116e-09 -2.79429e-09 -0.00010386)
(-1.74464e-08 -2.35287e-09 -0.000103785)
(-1.18608e-08 2.89446e-09 -0.000103783)
(8.54719e-09 -7.37557e-10 -0.000103725)
(1.91024e-09 -5.6149e-09 -0.000110473)
(-2.50795e-09 -4.90391e-10 -0.000110367)
(2.38141e-08 -1.00765e-08 -0.000110303)
(-8.33952e-09 -1.57526e-09 -0.000110332)
(-2.78007e-09 2.02512e-09 -0.000110382)
(1.0543e-08 -1.65926e-08 -0.000110448)
(-1.00671e-08 4.12408e-10 -0.000110347)
(1.85188e-08 -5.0236e-09 -0.000110277)
(-1.05359e-08 1.14124e-09 -0.000110295)
(7.94408e-10 5.16354e-09 -0.00011044)
(-1.12692e-08 1.74577e-08 -0.000110426)
(6.6776e-09 -8.07627e-09 -0.000110428)
(-1.13926e-08 1.11708e-08 -0.000110495)
(-5.20561e-09 -2.16143e-09 -0.000110253)
(1.4868e-08 -2.37657e-08 -0.000110478)
(-1.45098e-08 2.14285e-08 -0.000110369)
(3.94877e-09 -2.14709e-09 -0.000103745)
(-5.13372e-09 1.43637e-09 -0.000103852)
(-4.49245e-09 8.87786e-09 -0.000103856)
(-1.33077e-08 3.07283e-10 -0.000103689)
(-9.9307e-09 3.05469e-09 -0.000103882)
(2.16447e-09 -5.17321e-09 -0.000103719)
(9.50361e-09 1.44942e-08 -0.000110512)
(-6.32458e-09 -1.11376e-08 -0.000110512)
(-1.14949e-09 5.21998e-09 -0.000110492)
(-2.32297e-09 -6.34551e-09 -0.000110263)
(-1.71656e-08 -2.7957e-08 -0.000110555)
(1.41587e-08 1.9466e-08 -0.000110435)
(-2.77514e-09 -5.84789e-09 -0.000104003)
(2.7254e-09 4.96199e-09 -0.000103938)
(1.22868e-08 -1.88039e-08 -0.000103873)
(-6.84739e-09 1.13706e-08 -0.000103861)
(7.75707e-09 1.20008e-08 -0.000103976)
(-1.17285e-08 -1.93754e-08 -0.000103956)
(2.44067e-09 6.25242e-09 -0.000103984)
(-5.04684e-09 -1.07835e-08 -0.000103921)
(5.87201e-09 -9.04728e-09 -0.000103915)
(-5.82014e-09 1.06202e-08 -0.000103862)
(-1.17602e-08 -1.82111e-08 -0.000103946)
(7.4927e-09 1.13523e-08 -0.000103931)
(-1.1143e-08 1.83164e-08 -0.000103877)
(7.88091e-09 -1.05385e-08 -0.000103872)
(-1.29001e-08 -3.00164e-09 -0.000110366)
(-5.23374e-09 -8.45225e-09 -0.000110512)
(1.30049e-08 1.78702e-08 -0.000110579)
(-1.82593e-08 -2.86808e-08 -0.000110455)
(-1.70476e-08 -1.4232e-08 -0.000110551)
(-1.74487e-08 -3.02946e-09 -0.000110326)
(-1.69204e-08 -4.34963e-09 -0.000103771)
(4.49079e-10 -3.71627e-09 -0.000103881)
(1.00668e-08 -7.0174e-10 -0.000103694)
(5.08469e-09 -5.39508e-09 -0.000103797)
(-6.02193e-09 -7.98371e-09 -0.000103897)
(-1.48419e-08 2.03798e-10 -0.000103744)
(5.42161e-09 -1.12044e-08 -0.000103833)
(1.29137e-08 4.30597e-11 -0.000103665)
(7.54118e-09 -1.08123e-08 -0.000110405)
(-3.96679e-09 5.98294e-09 -0.000110409)
(4.15208e-09 3.3237e-09 -0.000110238)
(5.32451e-09 -8.33108e-09 -0.000110387)
(-1.65671e-08 2.41902e-08 -0.000110447)
(1.37306e-08 -1.99811e-08 -0.000110336)
(1.09198e-08 -1.30675e-08 -0.000110443)
(3.0299e-09 4.47928e-09 -0.000110201)
(7.43949e-09 -1.03144e-08 -0.000110174)
(-3.31746e-08 2.99117e-08 -0.000110585)
(-1.9985e-08 3.09821e-08 -0.000110285)
(3.4827e-08 -4.96655e-08 -0.000110558)
(-6.78398e-08 4.65764e-08 -0.000110695)
(3.6009e-08 -2.63297e-08 -0.000110074)
(5.19706e-08 -8.13589e-08 -0.000110672)
(-3.21394e-08 5.18061e-08 -0.000110174)
(-1.1294e-08 -1.18917e-08 -0.000103676)
(1.04012e-08 1.3111e-08 -0.000103919)
(-3.05574e-08 2.45323e-08 -0.000103919)
(1.56529e-08 -1.37174e-08 -0.000103605)
(3.88771e-08 2.70181e-08 -0.000103959)
(-1.76221e-08 -1.47914e-08 -0.000103645)
(2.01503e-08 3.19673e-08 -0.000110359)
(-3.22429e-08 -4.80774e-08 -0.000110645)
(7.27167e-08 4.94832e-08 -0.000110713)
(-3.39748e-08 -2.78019e-08 -0.000110083)
(-5.54644e-08 -8.91662e-08 -0.000110782)
(3.57754e-08 5.88374e-08 -0.000110269)
(-1.42434e-08 -2.03273e-08 -0.000103918)
(1.91173e-08 3.07715e-08 -0.00010401)
(2.65063e-08 -4.40095e-08 -0.000103929)
(-1.56495e-08 2.90069e-08 -0.000103758)
(2.45648e-08 4.35108e-08 -0.000104041)
(-1.70735e-08 -3.04563e-08 -0.000103873)
(1.36205e-08 1.96614e-08 -0.000103887)
(-2.25483e-08 -3.62564e-08 -0.000103993)
(9.95161e-09 -1.72322e-08 -0.000103827)
(-2.17884e-08 3.40225e-08 -0.000103925)
(-2.97911e-08 -5.34344e-08 -0.000104035)
(1.5337e-08 2.67239e-08 -0.00010386)
(-2.80122e-08 4.96744e-08 -0.000103956)
(1.74975e-08 -3.17796e-08 -0.00010379)
(6.21446e-09 9.25268e-09 -0.000110238)
(-3.66273e-08 -2.83648e-08 -0.000110646)
(5.11102e-08 7.94603e-08 -0.000110782)
(-3.917e-08 -6.04097e-08 -0.00011027)
(-7.79893e-08 -5.13572e-08 -0.000110746)
(2.54292e-08 2.08166e-08 -0.000110163)
(-2.34595e-09 6.24498e-09 -0.000103696)
(-2.19668e-08 -2.00177e-08 -0.00010395)
(2.95674e-09 3.54479e-09 -0.00010363)
(1.65442e-08 -1.8901e-08 -0.000103865)
(-4.00359e-08 -2.80733e-08 -0.000103969)
(3.12943e-09 7.91263e-09 -0.000103673)
(3.65878e-08 -2.52672e-08 -0.000103882)
(-1.40084e-08 1.5482e-08 -0.000103576)
(1.90876e-08 -3.11056e-08 -0.000110261)
(-3.21612e-08 4.56529e-08 -0.00011055)
(-7.65206e-09 9.07881e-09 -0.000110122)
(3.90164e-08 -3.04103e-08 -0.00011052)
(-5.53452e-08 8.84284e-08 -0.000110662)
(3.89099e-08 -5.98549e-08 -0.000110162)
(7.4215e-08 -4.894e-08 -0.000110624)
(-2.83243e-08 2.49423e-08 -0.000110013)
(9.85094e-08 -6.86449e-08 -0.000109918)
(-1.5309e-07 9.85112e-08 -0.000110871)
(-7.45976e-08 1.14744e-07 -0.000110008)
(1.05435e-07 -1.69404e-07 -0.000110857)
(-3.28983e-07 2.00769e-07 -0.000111167)
(1.95075e-07 -1.24682e-07 -0.000109743)
(2.04946e-07 -3.41376e-07 -0.000111155)
(-1.29067e-07 2.0692e-07 -0.000109827)
(-4.59719e-08 -3.12459e-08 -0.000103608)
(8.71222e-08 4.79435e-08 -0.000103973)
(-1.57808e-07 8.14904e-08 -0.000103951)
(1.03608e-07 -5.60175e-08 -0.000103566)
(1.55515e-07 8.29629e-08 -0.000103966)
(-9.42584e-08 -5.25466e-08 -0.000103619)
(7.53396e-08 1.17924e-07 -0.000110121)
(-1.01843e-07 -1.65855e-07 -0.000110966)
(3.18959e-07 1.95428e-07 -0.000111151)
(-1.95322e-07 -1.25601e-07 -0.000109784)
(-2.06671e-07 -3.45326e-07 -0.000111263)
(1.34476e-07 2.17069e-07 -0.000109931)
(-3.80547e-08 -6.8412e-08 -0.000103822)
(4.4327e-08 8.32662e-08 -0.000104061)
(8.28939e-08 -1.68618e-07 -0.000103962)
(-5.79576e-08 1.14898e-07 -0.000103704)
(8.03754e-08 1.64761e-07 -0.000104058)
(-6.02607e-08 -1.20627e-07 -0.000103817)
(3.51016e-08 6.4503e-08 -0.000103816)
(-5.21041e-08 -9.28729e-08 -0.000104062)
(3.97042e-08 -6.8781e-08 -0.000103735)
(-4.19557e-08 8.36047e-08 -0.000103974)
(-8.2279e-08 -1.70573e-07 -0.000104059)
(5.90707e-08 1.17375e-07 -0.000103809)
(-8.06034e-08 1.65499e-07 -0.000103979)
(6.45553e-08 -1.31748e-07 -0.000103735)
(8.55131e-08 5.9286e-08 -0.000109996)
(-1.60382e-07 -1.00958e-07 -0.000110908)
(2.00755e-07 3.34076e-07 -0.000111247)
(-1.3909e-07 -2.22144e-07 -0.000109932)
(-3.20571e-07 -1.95868e-07 -0.000111186)
(1.85084e-07 1.18698e-07 -0.000109837)
(4.06974e-08 2.92174e-08 -0.000103617)
(-7.86559e-08 -4.91508e-08 -0.000103983)
(-4.47909e-08 3.10858e-08 -0.000103528)
(9.31746e-08 -5.02575e-08 -0.000103902)
(-1.48134e-07 -7.89267e-08 -0.000103981)
(9.42405e-08 5.21738e-08 -0.000103631)
(1.52849e-07 -7.82311e-08 -0.000103913)
(-9.48774e-08 5.20943e-08 -0.000103541)
(7.20576e-08 -1.10051e-07 -0.000109999)
(-9.48515e-08 1.5802e-07 -0.000110837)
(-9.37161e-08 6.40553e-08 -0.000109863)
(1.73128e-07 -1.07901e-07 -0.000110811)
(-2.00423e-07 3.35706e-07 -0.000111135)
(1.39733e-07 -2.24149e-07 -0.000109801)
(3.30448e-07 -2.00004e-07 -0.000111106)
(-1.86726e-07 1.21323e-07 -0.000109704)
(4.18199e-07 -2.52182e-07 -0.000109601)
(-6.3939e-07 3.86471e-07 -0.000111746)
(-2.55215e-07 4.30958e-07 -0.000109675)
(4.00513e-07 -6.69174e-07 -0.00011175)
(-1.2405e-06 7.72768e-07 -0.000113022)
(9.18642e-07 -5.23234e-07 -0.000109769)
(7.91332e-07 -1.27133e-06 -0.000113072)
(-5.17823e-07 9.0911e-07 -0.00010983)
(-2.09588e-07 -9.636e-08 -0.000103782)
(2.49715e-07 1.24626e-07 -0.000103991)
(-3.78914e-07 2.20541e-07 -0.000104243)