/*--------------------------------*- C++ -*----------------------------------*\
| =========                 |                                                 |
| \\      /  F ield         | OpenFOAM: The Open Source CFD Toolbox           |
|  \\    /   O peration     | Version:  2206                                  |
|   \\  /    A nd           | Website:  www.openfoam.com                      |
|    \\/     M anipulation  |                                                 |
\*---------------------------------------------------------------------------*/
FoamFile
{
    version     2.0;
    format      ascii;
    arch        "LSB;label=32;scalar=64";
    class       volScalarField;
    location    "80";
    object      omega;
}
// * * * * * * * * * * * * * * * * * * * * * * * * * * * * * * * * * * * * * //

dimensions      [0 0 -1 0 0 0 0];

internalField   nonuniform List<scalar> 
66928
(
26.2303
23.2765
23.2217
23.5834
26.0577
23.0816
25.6242
26.5136
17.7672
17.7612
404.97
408.918
185.074
187.368
295.968
111.777
297.915
124.75
117.934
20.1834
49.7391
297.376
124.355
19.9156
117.881
49.8849
408.9
186.179
183.813
406.197
113.894
295.758
405.392
405.214
408.805
406.698
179.651
183.647
26.3035
185.549
187.573
405.349
406.027
406.774
407.518
25.8798
185.693
189.102
180.681
180.881
406.746
133.984
74.8599
183.875
306.532
306.539
68.163
136.692
135.701
77.2604
186.362
308.095
308.166
76.1075
133.591
236.754
409.876
410.829
411.363
412.465
237.629
295
196.414
192.142
421.618
195.977
425.606
141.528
309.969
332.63
192.041
425.86
310.371
137.399
332.561
135.071
76.9781
179.767
307.846
75.705
308.009
133.278
133.514
74.8883
182.053
306.506
306.757
73.065
136.262
235.637
410.686
409.862
412.207
411.397
235.746
407.803
295.711
193.853
192.448
424.33
404.765
405.304
406.239
406.798
238.868
408.877
409.698
409.272
410.043
235.163
140.115
74.2988
305.748
176.53
137.472
305.625
71.9021
140.607
69.7021
307.13
182.27
133.136
307.615
76.2173
237.922
410.295
411.231
237.9
409.469
410.343
136.26
306.667
184.074
76.7269
306.385
138.713
71.1662
137.303
308.155
183.47
79.0438
307.419
139.571
73.7752
405.546
405.474
408.179
407.069
239.44
411.136
410.969
238.648
408.865
410.309
142.062
77.076
183.88
306.563
306.491
71.6399
135.896
143.118
79.1105
184.467
308.04
307.931
74.1414
132.339
140.324
306.167
74.8898
183.169
140.055
306.284
72.995
142.475
307.724
71.251
186.551
136.694
308.009
77.3525
236.155
408.506
409.893
410.179
410.451
235.974
64.2407
25.9872
39.157
39.6914
38.3848
39.1523
63.22
60.4248
25.7756
39.6355
38.996
38.9241
38.211
66.1687
67.646
38.0436
36.5451
25.4219
62.7925
37.5135
39.7351
69.7227
25.5545
39.9846
40.5438
37.4767
38.0464
63.9555
16.6976
16.6924
33.2889
48.26
108.796
71.0923
47.5212
68.7085
32.6991
32.9174
49.5652
115.99
75.5913
45.5942
69.1646
35.3494
28.1034
45.6028
53.4117
27.698
52.6503
26.3742
29.7804
34.0567
49.2516
116.345
75.0381
73.3452
45.3662
33.5514
28.0428
48.8844
27.2207
56.0612
26.1633
51.9664
29.6783
33.6575
48.1362
111.813
72.6655
47.0311
70.9945
33.1673
65.9508
25.3128
39.8693
40.2685
67.4067
37.1615
39.1255
66.1292
25.8595
39.1765
38.789
67.7193
38.2742
38.5588
17.746
24.407
22.9229
26.1468
17.9582
24.4506
24.3828
26.632
17.9356
24.4932
24.3245
26.7393
17.906
24.6734
24.3413
26.8698
17.9488
24.824
24.2308
26.8967
17.9557
24.7377
24.1525
26.99
17.9266
24.6537
24.219
26.8881
17.9469
24.7491
24.2529
26.8443
17.8927
24.6443
24.2612
26.9321
17.9146
24.6757
24.3834
26.8418
17.9278
24.6352
24.2055
26.8099
17.9085
24.6798
24.1485
26.7597
17.9402
24.5907
24.1333
26.9963
17.9311
24.7158
24.2286
26.9189
17.9436
24.767
24.2776
27.0885
17.8904
24.6166
24.1758
27.032
17.8917
24.6219
24.1523
26.9068
23.2455
23.8475
24.1784
24.1066
26.2414
26.4268
23.6425
23.2045
24.7457
24.4704
24.4311
24.2075
24.664
25.2935
26.1742
23.6147
23.6063
24.012
25.7814
25.2502
26.684
23.7311
22.9573
24.2543
24.0858
25.8975
26.2977
24.4143
23.6434
24.6656
24.4834
23.5165
24.2473
24.6296
25.2895
26.4531
23.7048
23.5556
24.1193
26.3699
25.297
26.6167
23.5357
23.5309
24.2818
24.1605
25.5831
26.5276
23.961
23.9591
24.5713
24.6206
23.5207
23.7094
24.888
25.9681
26.5023
23.4797
23.5196
24.3172
26.6886
25.3972
26.6068
22.8856
22.9157
24.3853
24.3623
26.044
26.5484
23.4022
24.0202
24.8555
24.5696
24.4315
23.9749
24.6985
26.0323
26.4149
23.5451
24.0318
24.2306
26.7035
26.1364
26.7151
23.2467
23.9429
24.5671
24.1793
25.7626
26.7189
24.3032
23.9672
24.7359
24.5992
23.4105
24.5212
24.886
25.486
26.4435
23.455
23.9227
24.3621
26.1877
26.2347
26.7416
23.6682
23.6657
24.4159
24.2737
26.0762
26.8596
23.8139
23.8672
24.7721
24.5887
23.631
24.4096
24.9732
25.9005
26.6038
23.1359
23.7016
24.4678
26.6929
26.2416
26.7279
23.56
23.6772
24.3006
24.1612
26.1531
26.5399
23.9756
23.8721
24.8749
24.6312
23.706
23.8775
24.8004
26.2321
26.5668
23.5915
24.0072
24.3417
26.6435
26.2603
26.6382
23.0525
22.9508
24.4655
24.381
25.8188
26.6389
24.1072
23.4686
24.621
24.8847
24.1863
23.6822
24.7235
25.9274
26.5527
22.926
23.6359
24.3672
26.7743
25.6955
26.8821
23.2127
23.972
24.5011
24.2204
25.8899
26.6963
24.1868
24.3246
24.7451
24.7399
23.8129
23.7214
24.7948
25.8691
26.5949
23.9058
23.5786
24.2834
26.042
25.5374
26.6614
23.9635
23.6145
24.3544
24.2324
26.2267
26.6082
23.5341
24.0702
24.8599
24.7126
23.8813
23.715
24.6584
25.3922
26.5312
22.9287
23.3333
24.3352
25.9981
25.5114
26.585
23.4732
23.6457
24.3967
24.2573
25.8339
26.7498
24.2947
24.0776
24.7381
24.5727
23.9626
24.1572
24.6998
26.0733
26.4503
23.0777
23.9316
24.3659
26.558
25.8139
26.7381
23.0176
23.667
24.5057
24.1259
26.1686
26.5311
23.5227
24.0325
24.7848
24.6042
23.3699
24.342
24.8696
25.9049
26.3633
23.1638
23.8793
24.4286
26.1458
25.9075
26.6395
24.1259
23.6176
24.4051
24.1633
25.8889
26.4831
24.3393
23.9855
24.7253
24.8174
24.497
23.8725
24.7954
25.4855
26.4326
23.9217
23.5005
24.3117
26.7015
25.454
26.8921
23.3746
23.0046
24.359
24.3077
25.5943
26.5731
24.4086
23.9651
24.7887
24.5806
24.4947
23.9112
24.8208
25.6959
26.4943
22.9749
24.072
24.3952
26.3002
26.3035
26.6094
23.2391
23.9242
24.4839
24.2798
25.9399
26.5182
24.0822
23.9334
24.5803
24.5995
24.2115
23.6661
24.7844
25.3083
26.438
23.89
23.9625
24.2648
26.212
25.6855
26.7636
24.0371
23.6516
24.2867
24.2272
25.878
26.588
24.0865
24.2211
24.6513
24.5992
24.4909
23.7008
24.7361
25.7951
26.6273
23.3895
23.9333
24.2955
26.7477
26.3255
23.1236
23.5408
25.7739
23.4543
23.3108
23.3998
24.8871
26.005
23.5783
24.338
26.8735
127.012
295.081
127.37
296.18
406.495
405.417
132.827
297.272
126.737
298.533
17.701
17.9101
17.8207
17.9509
17.7457
17.8438
17.8035
51.2869
121.32
20.5384
23.6493
120.922
20.0757
50.86
408.937
406.67
48.4088
20.0504
109.577
24.0562
19.7718
115.942
48.188
189.666
185.399
26.4094
189.718
186.556
127.421
296.74
129.054
296.781
405.277
405.46
133.172
299.329
133.303
298.942
17.7771
17.9135
17.8463
17.9217
17.9052
17.9369
17.9149
51.3475
122.614
20.6698
23.5223
51.3266
121.659
20.4965
407.813
406.805
48.8533
20.2725
118.034
23.1304
49.5673
19.8651
118.371
190.533
187.532
26.6708
190.1
187.719
127.71
296.978
127.87
296.62
405.421
405.375
133.193
299.257
132.713
299.084
17.8238
17.7654
17.8919
17.8149
17.9292
17.9106
17.9564
51.8507
121.839
20.6495
23.865
51.5059
121.699
20.5652
408.38
406.923
48.3698
20.4006
118.64
23.0507
48.5773
20.1662
118.69
191.13
188.495
26.7592
190.448
188.065
127.485
297.156
128.206
296.955
406.852
405.35
132.963
299.221
133.816
299.004
17.8586
17.8085
17.8816
17.9387
17.9281
17.902
17.9526
51.2718
122.577
20.733
23.6316
51.5152
121.816
20.6151
407.951
406.835
48.8724
20.3565
119.893
23.7928
48.5074
20.2245
119.224
190.882
188.583
26.7778
190.22
188.221
128.53
297.188
128.843
297.023
405.076
405.413
132.821
299.338
133.199
299.216
17.8535
17.7914
17.8998
17.9469
17.9189
17.8442
17.9607
51.4279
121.836
20.7037
24.2172
51.6448
121.903
20.5419
406.621
407.071
49.1537
20.3884
120.464
23.3062
49.84
20.01
119.344
190.64
188.651
26.86
190.392
188.24
127.463
297.38
128.954
296.93
406.206
405.463
133.567
299.241
134.724
299.099
17.8332
17.732
17.9
17.9266
17.7624
17.8774
17.9471
51.3776
122.664
20.735
23.9435
51.6784
121.812
20.1145
406.973
407.282
49.3607
20.3297
118.515
23.569
49.7668
19.9001
118.767
191.031
189.123
26.8506
190.266
188.376
127.454
297.358
129.366
296.901
406.477
405.355
132.75
299.38
133.332
298.964
17.8226
17.8259
17.87
17.8636
17.8698
17.8796
17.9198
51.7063
121.872
20.7002
23.2862
52.0101
121.974
20.1781
408.068
407.069
49.098
20.3557
120.217
23.4001
49.0668
20.0839
119.234
190.486
189.457
26.7824
190.159
188.233
128.454
297.421
129.231
297.122
406.561
405.558
133.589
299.337
134.818
298.838
17.6987
17.8655
17.8041
17.9116
17.8561
17.8877
17.883
51.7931
121.79
20.6863
24.3114
52.618
122.122
20.4618
408.268
407.404
49.0699
20.3918
120.494
23.6734
49.0104
20.1307
119.421
190.403
189.374
26.8308
189.978
187.953
128.748
296.981
129.746
296.773
406.804
405.58
133.54
299.467
133.49
299.243
17.8017
17.7461
17.8127
17.9234
17.8157
17.8951
17.8825
51.8147
122.618
20.667
24.3493
51.6345
122.211
20.1667
407.706
406.899
48.8184
20.3747
120.54
23.0808
50.0833
20.0485
119.376
190.751
189.101
26.8119
190.259
188.344
128.028
297.171
129.657
297.03
406.362
405.528
132.509
299.339
134.15
299.243
17.7716
17.7555
17.7964
17.9179
17.8291
17.8658
17.8783
52.006
122.977
20.6765
24.3383
52.1603
121.963
20.4806
406.798
407.024
48.7136
20.2901
119.145
23.9165
48.8563
19.8461
118.975
191.284
188.226
26.8362
190.314
188.213
127.778
297.499
128.456
296.87
406.802
405.66
132.908
299.561
134.215
299.066
17.7788
17.8266
17.7271
17.8955
17.8354
17.7905
17.893
51.8366
122.603
20.609
23.5747
51.7166
122.041
20.1473
407.988
406.813
48.7795
20.3308
119.592
23.4126
49.14
20.009
119.235
190.071
188.876
26.7496
189.548
188.406
128.023
297.421
128.012
296.949
405.438
405.708
133.1
299.468
133.129
299.039
17.6907
17.8445
17.7438
17.821
17.8033
17.854
17.8401
51.7813
122.844
20.6755
23.7442
52.0392
122.068
20.4454
408.206
406.982
49.0653
20.2805
120.246
23.4034
49.9062
19.7873
119.254
190.688
189.305
26.7255
189.952
188.46
128.04
297.02
128.654
296.757
406.324
406.766
133.244
299.601
134.258
299.089
17.6745
17.8074
17.8564
17.8791
17.8299
17.8136
17.9115
51.2308
123.524
20.6462
23.2328
51.6898
122.358
20.3251
408.38
407.015
48.7388
20.3238
119.001
23.622
49.4975
19.8176
118.987
189.88
188.586
26.8363
189.947
188.09
128.476
297.133
129.546
297.004
406.304
407.436
133.375
299.201
133.877
299.027
17.7828
17.8456
17.7246
17.9417
17.83
17.8765
17.8609
52.0516
122.487
20.6434
23.4047
52.7627
121.545
20.3978
408.114
408.856
49.1399
20.3389
119.911
23.8125
49.2082
20.1722
118.536
190.523
188.482
26.868
190.458
187.852
128.134
297.25
128.973
296.989
405.493
405.96
133.518
299.469
133.852
299.096
17.7785
17.8029
17.8497
17.9121
17.8495
17.8705
17.8898
51.8356
122.674
20.6189
24.3222
52.4242
122.219
20.1132
408.103
407.932
48.9231
20.2832
119.862
23.343
49.2982
20.1548
119.171
190.252
188.679
26.8984
190.01
188.391
128.083
297.06
128.928
296.667
405.412
405.738
133.266
299.254
134.304
299.2
17.783
17.7196
17.7439
17.8845
17.8573
17.8651
17.8757
51.3632
121.9
20.7094
24.3123
51.9383
121.857
20.5154
406.814
406.968
49.3975
20.3425
120.339
23.2929
50.1597
19.9408
119.26
190.777
188.586
26.8321
190.297
188.55
127.593
297.277
128.031
297.04
405.678
405.762
133.13
299.474
134.107
299.295
17.7792
17.8086
17.7375
17.9036
51.7426
122.548
20.6213
23.4867
52.2102
122.014
20.4704
406.994
407.011
49.3235
20.2821
119.581
23.5704
49.4161
19.8451
119.394
190.425
189.09
26.7982
190.128
187.903
126.758
296.494
296.392
127.047
48.6263
108.327
20.1291
23.1916
19.9026
49.0242
115.585
48.273
118.008
20.1393
22.8084
117.773
19.959
48.658
120.705
295.841
128.201
295.48
122.193
296.277
295.035
127.742
45.392
23.807
116.66
20.2614
19.9152
48.7899
111.87
45.3178
23.8953
118.048
19.8766
108.448
20.0718
48.5899
186.793
188.479
26.4451
186.731
188.621
407.321
406.755
405.215
407.161
26.0768
187.15
188.654
179.88
186.981
406.697
408.21
51.3798
114.454
20.172
24.1432
20.2802
49.6119
119.254
132.646
297.24
298.736
123.638
50.9553
20.4088
112.204
24.3844
20.505
118.462
48.238
130.246
298.355
131.229
297.206
50.1803
23.8575
119.895
20.6817
20.2816
51.4451
117.045
123.328
298.396
297.552
133.195
48.9682
24.2538
20.6347
118.967
20.5449
113.054
51.7449
131.401
298.417
298.492
131.655
51.1723
20.5171
121.289
24.107
20.4068
121.817
50.5856
131.33
298.579
298.456
130.739
46.5923
23.3334
117.334
20.3135
117.279
20.5257
48.4158
124.334
298.631
297.956
131.751
49.6593
23.7473
20.6371
120.766
20.2626
119.218
51.0108
128.441
298.568
298.028
131.211
185.585
180.603
26.1698
187.615
185.05
406.367
404.802
406.649
408.285
25.3351
188.564
185.899
180.752
181.946
404.819
406.918
48.4008
20.0918
114.852
23.229
19.8874
116.85
47.8807
126.08
293.845
295.584
124.669
125.684
295.53
295.779
124.249
45.5516
24.0439
20.1397
111.849
20.2129
109.672
46.8687
44.1436
23.067
20.2343
116.546
20.0863
110.254
49.034
120.561
296.016
294.895
126.86
119.656
295.991
295.376
127.07
407.501
406.711
405.833
405.124
26.0799
186.768
186.207
184.054
179.63
406.117
409.466
404.702
406.563
407.166
405.26
407.834
407.009
182.372
186.986
26.5767
186.368
189.275
405.311
406.193
406.776
408.816
25.288
186.954
188.619
179.286
184.201
127.616
295.484
117.466
296.543
48.4282
107.746
19.8455
23.4455
45.716
118.349
20.2315
48.4057
113.748
20.1423
24.0194
45.1124
117.344
19.9294
119.171
296.155
296.07
126.243
117.91
296.456
294.692
128.283
45.573
23.336
117.486
20.3442
114.222
20.0277
48.7747
46.4614
23.5577
118.141
20.2134
113.187
20.0402
48.6641
184.541
182.242
26.3329
186.49
189.306
407.896
407.08
405.408
406.505
25.5754
186.544
189.02
183.611
182.082
406.17
409.363
51.9303
117.491
20.5268
23.7728
46.7854
120.33
20.598
132.839
297.283
122.692
298.492
51.7843
20.1635
112.848
24.038
46.933
20.6369
119.933
123.55
298.726
297.775
131.147
50.2141
24.3925
120.871
20.6933
117.323
20.6107
51.7939
129.16
298.674
297.856
132.01
48.2137
24.1739
20.6649
119.857
20.5982
114.623
51.662
131.416
298.368
124.877
299.19
51.3834
20.4884
111.938
24.626
46.3679
20.3422
121.871
132.022
297.94
127.969
298.819
48.7356
23.3852
120.862
20.2581
114.489
20.3562
50.8146
127.136
298.725
298.043
132.133
46.3201
24.1831
20.661
120.503
20.2967
118.534
51.8151
126.017
298.744
297.261
131.312
182.251
183.668
26.2822
188.749
186
405.847
404.879
406.799
407.913
24.93
188.87
187.06
186.638
180.489
405.191
405.931
48.4158
19.8093
110.589
23.8965
46.8727
20.2459
116.904
126.589
294.998
121.359
296.372
126.382
294.983
120.368
296.255
44.3184
24.0798
20.3505
117.157
20.2931
109.534
48.0189
45.4555
23.9143
20.3006
117.29
20.2324
112.031
48.2556
120.872
296.455
295.03
127.122
120.346
296.336
295.653
127.121
407.758
406.689
405.947
405.502
25.4356
187.639
184.684
187.372
182.03
406.345
407.868
405.194
406.738
405.869
405.414
407.835
407.093
183.489
184.014
26.6235
186.576
188.921
405.456
406.309
408.079
407.644
26.0514
186.351
189.095
181.867
184.985
127.173
294.892
124.913
296.443
48.3558
111.127
20.1804
22.9299
45.0696
117.724
20.0072
49.0636
109.043
20.0532
23.8088
44.4519
118.381
19.9441
125.299
296.329
295.617
122.174
118.413
296.511
295.703
128.36
43.9166
24.1059
117.602
20.297
110.094
19.9542
49.1216
47.2161
23.8966
118.293
20.2496
109.734
19.8991
48.8845
182.348
182.877
26.3201
186.908
188.939
407.51
406.982
405.377
406.353
25.7562
187.394
188.929
179.623
185.359
406.267
408.078
51.69
114.712
20.3524
24.26
49.3744
120.41
20.4964
132.42
298.242
129.32
298.856
51.8718
20.3111
116.687
24.2332
49.0634
20.4618
120.162
130.784
298.797
297.539
131.719
50.5089
24.3109
120.034
20.6537
114.172
20.5467
51.9347
129.889
298.712
297.874
132.516
50.3637
24.4087
20.6257
121.051
20.523
112.62
52.0006
132.431
297.705
127.989
298.531
51.3961
20.2372
112.087
24.6511
49.8452
20.6924
121.922
132.56
298.216
121.262
298.73
50.3774
23.7986
121.778
20.3367
118.333
20.4308
50.2066
129.21
298.958
297.208
132.438
49.953
23.9913
20.7994
121.116
20.4608
113.336
51.5944
123.031
298.798
298.298
133.272
186.822
182.785
26.267
188.761
186.977
406.598
405.438
406.872
408.951
25.0995
189.262
187.291
182.334
183.261
405.048
407.871
48.4085
20.056
107.924
23.1665
45.6266
19.9925
118.611
127.307
295.779
118.036
296.514
126.846
295.615
120.677
296.452
45.7155
24.0109
20.002
116.275
20.0919
109.712
46.7332
45.9213
24.1333
20.3151
118.506
20.084
110.274
48.7036
122.994
296.757
295.78
127.146
121.301
296.491
294.823
127.145
407.86
407.114
406.783
405.616
25.5946
189.16
187.453
185.533
184.256
406.559
408.378
405.164
408.051
406.275
405.551
408.942
406.726
180.211
184.776
26.5258
186.524
189.015
406.602
406.398
407.012
407.663
25.8603
186.832
189.165
182.86
184.573
127.79
294.908
118.185
296.618
48.7375
113.721
19.8927
23.9671
47.2397
118.576
20.3191
48.3121
112.467
19.8575
23.959
45.5349
117.69
20.2787
122.51
296.998
295.609
123.072
124.429
296.447
295.71
126.865
45.6004
23.5161
119.076
20.3599
110.542
20.2902
48.9543
45.3107
23.4903
116.94
20.3619
110.265
20.3192
48.7594
184.843
183.057
26.5241
186.597
189.092
407.613
406.562
406.344
406.303
25.6262
186.785
189.594
184.645
186.2
406.646
407.858
52.0043
113.997
20.1059
24.5149
50.764
120.321
20.5776
132.942
297.964
130.262
298.732
52.0084
20.2838
114.9
23.6178
51.0178
20.0944
120.59
128.076
298.9
298.235
131.832
49.6084
23.974
120.53
20.7627
115.069
20.3809
51.8289
125.547
298.842
297.063
132.345
50.7702
24.1484
20.6946
121.232
20.636
115.261
51.8792
132.18
298.377
127.349
298.752
51.8658
20.6327
114.802
23.9061
46.978
20.4341
121.048
132.114
298.336
129.849
298.906
48.8464
24.695
120.409
20.3484
112.247
20.4529
50.9902
128.265
298.616
297.538
131.96
49.9017
24.2045
20.7274
120.385
20.3595
114.317
51.5188
129.544
298.676
298.4
132.256
182.22
181.758
26.4496
189.508
187.374
406.229
405.561
408.029
408.008
25.8945
189.41
186.543
187.201
182.257
405.075
406.746
48.9651
20.1628
112.652
23.8405
46.3894
20.0913
118.335
127.041
295.915
121.058
296.891
127.448
296.008
122.07
296.478
46.6182
23.955
20.3196
115.249
20.2966
115.613
49.4412
46.3605
23.9488
20.4052
117.927
20.0738
113.134
49.0621
122.875
296.696
296.137
127.744
119.584
296.641
295.589
128.684
407.836
407.198
406.368
405.643
25.5318
186.798
184.923
187.419
182.384
406.673
408.49
404.851
406.929
407.419
405.493
409.194
407.008
180.912
184.801
26.6142
187.016
189.807
405.552
406.476
407.026
409.023
25.9416
186.817
189.346
183.547
184.76
127.855
295.755
117.927
296.703
49.1454
109.958
20.0456
24.2665
43.9704
119.273
20.1846
48.5316
112.615
19.9947
23.438
45.3826
118.634
19.8107
124.511
296.899
296.164
128.091
118.243
296.93
295.781
128.634
47.6694
23.7523
118.811
20.3322
109.88
20.2342
48.8896
46.6497
23.6573
117.64
20.3322
111.595
20.2844
48.9085
183.799
182.868
26.5716
186.972
189.446
407.968
407.115
405.535
406.644
25.9094
187.177
189.348
183.909
186.481
406.295
408.228
51.3612
114.511
20.586
24.4913
48.7228
121.119
20.3905
131.876
298.258
126.639
298.882
51.2518
20.0805
119.024
24.2684
48.1104
20.5582
121.407
129.237
298.954
298.03
129.522
49.0182
24.4996
120.315
20.6955
113.813
20.3041
51.5616
122.586
298.736
297.7
133.238
47.8395
24.3278
20.7215
121.57
20.3659
112.441
51.687
131.597
297.815
124.34
298.573
51.5164
20.6153
114.244
24.5105
50.351
20.4311
120.957
132.091
298.272
129.654
298.609
48.8655
24.4177
121.868
20.6604
118.615
20.6313
51.0537
125.298
298.619
297.748
132.444
46.8191
23.9985
20.7253
120.334
20.3404
113.59
52.2201
123.089
298.821
298.497
133.068
186.916
181.78
26.4877
189.539
186.997
406.437
405.161
406.834
408.28
25.7213
189.121
186.898
186.216
183.222
406.145
406.094
48.9557
20.0188
108.986
23.0224
46.4361
20.4173
118.997
128.355
295.698
117.088
296.542
128.609
296.105
124.719
296.725
46.3991
23.1007
20.249
116.84
19.9412
107.91
46.8938
46.7181
24.1877
20.5055
117.747
20.214
115.696
48.9622
124.402
296.474
295.68
127.822
123.755
296.763
296.441
127.115
408.079
406.999
406.309
405.419
26.3866
187.481
185.372
187.559
183.327
406.275
407.958
405.358
406.342
406.407
405.475
408.977
406.974
180.73
184.667
26.6424
186.889
189.582
405.626
407.372
406.963
408.925
26.1946
186.976
189.024
184.415
184.194
128.124
296.133
119.96
296.808
48.8156
109.665
20.0099
23.0663
47.1964
119.218
19.8254
49.2061
111.64
19.8975
23.9492
44.7634
118.08
20.2275
119.793
297.053
295.482
128.622
121.983
296.436
295.721
127.584
46.0171
24.2379
118.7
20.3393
109.705
20.288
48.7698
44.7516
24.076
116.901
20.3716
110.694
20.0683
49.1736
184.563
184.66
26.7822
187.289
189.308
407.728
407.466
405.443
406.299
25.4741
186.46
188.674
183.069
183.933
406.424
407.342
52.267
114.377
20.5213
23.3322
46.9872
120.687
20.6091
132.803
297.936
122.898
299.097
51.8922
20.1762
117.043
24.2308
49.0599
20.6388
120.885
123.04
299.325
298.414
127.364
50.3519
24.5883
121.499
20.7084
117.15
20.6274
51.5266
122.777
298.777
297.998
133.219
50.2974
24.3095
20.7345
121.982
20.3995
116.876
51.5724
131.596
298.613
125.619
299.049
51.2853
20.584
114.336
24.7062
50.1442
20.6333
120.437
131.683
297.954
129.661
298.774
48.1595
24.2688
120.35
20.3572
112.294
20.5853
51.6809
125.055
298.711
297.608
131.877
49.8763
24.1148
20.6952
120.253
20.631
114.298
51.4986
129.209
298.55
297.736
131.718
187.277
183.59
26.4503
189.053
187.25
407.607
405.113
406.898
408.24
25.7933
189.475
187.507
184.867
180.876
405.24
407.548
49.082
20.2955
114.132
24.1874
47.2588
20.3601
117.851
127.641
295.433
122.963
296.335
128.098
296.02
118.073
296.36
45.0356
23.4342
20.2479
114.613
20.3202
109.684
46.0046
44.1939
23.6393
20.4055
119.493
20.3526
110.321
49.6379
125.447
296.82
295.151
127.87
118.649
296.703
295.283
128.908
407.876
406.988
406.719
405.686
25.9674
189.439
188.596
186.314
181.655
406.211
409.51
405.6
406.942
406.811
405.651
407.997
407.393
184.676
184.301
26.6425
186.97
189.462
405.686
406.548
406.992
408.314
26.1765
187.839
189.163
181.596
184.237
126.848
295.205
120.944
296.666
48.5682
114.705
20.006
23.9303
46.2151
116.529
20.1453
48.7312
110.887
20.2227
23.317
47.1842
117.069
20.022
122.556
296.955
296.158
123.213
117.321
296.424
295.755
128.561
45.9168
24.0301
118.81
20.2891
113.025
20.1933
48.6624
45.4647
23.7071
116.8
20.2689
111.042
20.0506
49.2231
180.57
184.068
26.5647
186.715
189.219
408.047
406.687
405.508
406.681
25.8018
187.039
188.754
184.264
184.004
406.609
407.668
51.7811
111.709
20.2941
23.6109
47.6466
121.895
20.1218
132.118
297.321
128.67
299.154
51.9008
20.1765
113.347
24.2514
47.087
20.6185
120.796
124.087
299.119
297.826
134.39
48.4623
24.7538
121.649
20.7351
119.265
20.6714
52.0618
125.577
299.262
298.79
132.616
50.2073
24.3365
20.7302
121.489
20.3935
116.096
51.5874
132.279
298.658
126.482
299.035
51.4309
20.0688
113.809
24.7532
49.5812
20.5434
120.979
132.078
297.699
127.87
298.518
49.7612
24.3527
120.221
20.3297
116.861
20.6286
49.8999
129.258
298.938
297.535
132.13
48.273
23.9123
20.6794
121.221
20.3353
110.469
51.4756
127.902
298.683
297.984
132.854
183.96
184.659
26.5495
189.461
187.528
406.698
405.367
407.118
407.563
25.9233
189.897
187.16
185.012
182.087
405.271
406.407
49.2485
20.1397
113.296
22.983
47.7913
20.0685
118.546
127.05
295.98
121.299
296.552
127.48
295.897
121.89
296.532
46.0288
23.1676
20.3421
119.781
20
110.921
48.3405
44.8209
24.1732
20.3745
117.718
20.0486
111.382
48.9641
118.817
296.757
295.981
127.648
121.919
296.395
295.719
127.104
407.58
407.025
407.023
405.646
26.2807
189.408
188.884
183.332
182.154
406.331
409.51
405.583
406.973
407.664
405.663
408.853
406.991
185.549
184.398
26.6428
187.7
189.463
405.523
406.354
406.905
408.906
25.7028
187.488
188.914
179.79
184.1
127.441
295.102
125.361
296.549
49.2895
114.456
20.0728
24.1061
44.1505
119.09
20.0109
48.7236
110.41
19.8166
23.9915
45.9954
117.55
20.2304
124.53
296.378
295.954
123.796
125.352
296.701
295.194
128.098
47.4858
23.6286
118
20.3352
115.256
19.9781
49.4063
46.27
23.5185
118.25
20.3579
107.087
20.0358
49.5234
180.848
182.818
26.5413
187.819
189.651
407.953
406.79
405.492
406.558
25.7032
186.92
189.208
182.801
187.643
407.09
407.928
52.2993
115.585
20.1782
23.7854
46.5867
120.878
20.6617
131.769
298.641
125.674
299.023
52.131
20.21
111.358
24.5963
47.196
20.6794
122.4
124.074
299.038
298.376
132.111
47.4545
23.9757
120.323
20.8322
114.672
20.4814
52.5068
127.486
298.769
297.959
132.439
50.5701
24.0015
20.7342
120.874
20.3717
118.051
51.9997
132.37
298.382
128.979
299.032
51.2456
20.1409
111.683
24.429
48.0726
20.6002
121.89
131.447
297.451
125.561
298.869
48.4286
23.9185
121.69
20.5731
119.795
20.5394
51.0552
129.936
298.991
298.265
132.584
48.0632
24.4655
20.7187
121.747
20.3775
112.167
51.3743
124.966
298.815
297.475
132.522
187.252
184.252
26.6179
190.335
187.9
406.591
405.72
407.911
409.183
25.9653
189.778
187.299
187.314
185.021
405.259
406.688
48.6469
19.9693
111.291
23.9973
45.8165
20.3726
117.973
127.436
296.176
123.016
296.665
127.899
295.246
117.192
296.355
45.1675
23.5283
20.0348
115.354
20.0947
116.008
49.932
46.3758
23.521
20.3697
117.584
20.0562
112.67
48.9186
121.58
296.491
295.883
127.668
119.406
296.437
295.798
127.954
409.059
407.09
406.928
405.584
25.8425
190.259
185.278
184.104
183.208
406.489
408.482
405.166
407.953
406.485
405.653
407.956
406.985
185.205
184.29
26.6903
187.393
188.976
407.083
406.504
406.875
408.9
25.238
186.85
188.998
184.195
184.516
127.195
296.076
124.489
296.747
49.7206
115.473
20.0321
24.2046
45.4757
118.09
19.7956
49.7155
115.085
20.1713
23.4104
45.5676
117.708
20.2265
119.854
296.523
296.197
128.815
117.923
296.346
295.531
128.412
46.954
23.6679
118.783
20.3223
114.874
20.2607
48.8756
47.9903
23.8648
117.211
20.2982
115.078
20.2367
48.8994
182.613
187
26.6771
187.311
189.079
407.767
407.065
405.452
406.301
26.0157
187.157
189.713
179.236
182.802
406.358
409.474
52.4387
115.586
20.2882
24.4538
47.4118
120.744
20.729
132.402
297.408
125.563
298.653
51.812
20.3495
110.557
24.4954
50.2395
20.1152
122.179
130.886
298.956
298.431
133.194
50.8117
24.4873
121.399
20.7683
111.357
20.7575
52.0793
122.204
298.816
297.843
133.488
48.7736
24.5009
20.7251
121.028
20.6643
115.616
51.721
131.599
297.986
124.808
298.828
51.5808
20.2058
112.086
23.3599
49.2252
20.6595
122.151
131.644
298.298
125.546
298.746
49.9291
23.9696
122.384
20.4178
118.698
20.6342
49.4516
125.111
299.203
298.481
132.371
47.9561
24.6141
20.6766
120.817
20.7015
118.776
51.7236
125.531
298.585
298.024
132.274
186.268
183.183
26.6703
187.14
186.75
406.41
405.542
408.228
407.839
26.2016
190.163
187.276
189.444
179.214
405.141
406.525
48.6566
20.03
114.325
24.0645
47.4967
19.8285
117.707
127.969
295.373
118.518
296.446
127.98
295.017
118.255
296.648
46.0406
24.0803
20.209
117.786
19.9194
110.434
48.3087
46.8462
24.0779
20.3479
117.808
20.2987
114.188
48.8553
120.066
296.601
295.742
127.524
123.72
296.455
296.28
127.324
407.832
406.781
406.757
405.656
26.2891
187.616
187.055
187.835
181.587
406.553
409.183
405.324
406.866
405.762
405.837
408.936
407.059
182.284
184.565
26.833
187.293
189.049
407.27
405.852
406.845
408.753
25.8312
187.598
189.827
183.435
182.082
127.371
295.664
125.046
296.798
48.8138
113.938
20.0473
24.1285
47.6375
118.6
20.164
49.2685
114.162
19.9298
23.8981
44.8922
117.601
19.758
118.677
297.341
295.229
126.869
119.541
296.526
295.852
127.205
47.6458
24.1467
119.423
20.2597
109.961
20.187
48.862
47.4039
23.9692
118.517
20.2959
114.476
20.2438
49.0825
181.148
186.97
26.6917
187.988
189.007
407.8
406.999
405.317
407.884
25.7031
187.627
189.532
186.038
183.786
406.963
408.317
51.5201
112.344
20.5308
24.6477
48.385
122.295
20.608
133.004
297.6
123.58
298.763
52.0241
20.4231
113.031
24.3586
49.6919
20.5611
121.19
125.752
299.281
298.699
128.842
48.4136
23.9588
121.508
20.7097
118.58
20.6379
51.4663
122.978
298.639
297.627
132.927
49.6761
24.5202
20.706
120.486
20.6408
116.443
51.6039
131.671
297.823
124.634
298.57
51.2652
20.4421
118.241
24.2787
48.2973
20.5104
120.855
131.619
297.708
125.388
298.593
50.2177
23.9622
117.065
20.3568
119.163
20.3428
51.1579
125.7
298.985
299.285
131.806
48.9678
24.3727
20.6265
120.872
20.5051
114.917
51.4665
127.405
298.846
297.897
132.186
187.352
181.052
26.7255
189.434
187.597
406.257
405.271
406.803
407.976
26.1851
189.232
186.59
187.375
183.143
405.181
406.297
48.4499
19.9761
111.413
23.9669
45.5048
19.8134
118.111
126.8
295.395
120.147
296.522
127.8
295.647
117.068
296.412
45.929
23.5586
20.273
118.14
20.2759
113.947
48.5441
45.7468
23.4981
20.3425
117.353
20.2918
110.966
48.671
118.532
296.647
295.928
127.138
123.782
296.318
295.653
127.426
408.241
407.161
406.559
405.678
26.2629
189.392
185.24
186.964
183.433
406.421
409.599
405.132
406.815
405.723
405.483
408.873
407.023
184.47
187.242
26.6742
186.917
189.328
405.389
407.297
407.163
407.971
25.7286
186.6
189.964
182.335
182.848
127.106
295.589
121.05
296.742
48.8691
115.332
19.9846
23.0329
47.6983
118.349
19.8726
49.5884
110.757
20.0118
23.9142
48.1806
118.399
19.927
123.168
296.806
296.187
126.733
120.858
296.656
294.93
128.067
47.6157
24.2264
118.378
20.2022
112.292
19.9602
48.9667
44.631
24.052
117.592
20.2695
114.144
20.1155
49.4686
185.347
185.515
26.5952
187.909
189.336
408.314
407.655
405.486
406.713
25.3119
187.127
189.079
184.951
185.267
406.528
407.379
51.969
119.026
20.397
24.4992
49.663
121.252
20.3624
132.73
297.542
122.831
298.644
51.914
20.4443
114.685
23.7091
47.0559
20.4965
120.154
121.551
298.597
298.278
131.424
50.0787
24.5
122.097
20.7486
112.84
20.3593
51.7615
129.09
298.815
297.894
132.154
47.0789
24.0043
20.6222
120.792
20.3958
111.969
52.2749
131.671
298.303
124.475
299.058
51.7504
20.3452
111.226
24.3481
46.6562
20.4839
122.44
131.692
298.477
127.114
299.17
50.1381
24.6265
117.287
20.3186
113.898
20.6153
51.5402
125.54
298.712
298.217
131.487
49.8127
24.4153
20.633
121.879
20.5396
119.807
51.4636
125.754
298.915
298.399
131.729
182.813
183.185
26.4302
189.734
187.113
406.575
405.577
407.866
407.477
25.985
188.937
186.933
187.209
180.445
405.247
407.792
48.5057
20.0552
111.424
24.0548
45.6553
20.0018
117.52
126.727
295.21
120.135
296.748
126.737
295.309
120.725
296.374
44.6599
23.1191
20.1891
119.525
20.132
111.259
49.7292
45.8156
23.5382
20.3275
118.158
19.9802
113.702
49.0171
120.52
297.071
295.965
126.934
120.406
296.483
295.332
127.837
407.87