/*--------------------------------*- C++ -*----------------------------------*\
| =========                 |                                                 |
| \\      /  F ield         | OpenFOAM: The Open Source CFD Toolbox           |
|  \\    /   O peration     | Version:  2206                                  |
|   \\  /    A nd           | Website:  www.openfoam.com                      |
|    \\/     M anipulation  |                                                 |
\*---------------------------------------------------------------------------*/
FoamFile
{
    version     2.0;
    format      ascii;
    arch        "LSB;label=32;scalar=64";
    class       volVectorField;
    location    "80";
    object      U;
}
// * * * * * * * * * * * * * * * * * * * * * * * * * * * * * * * * * * * * * //

dimensions      [0 1 -1 0 0 0 0];

internalField   nonuniform List<vector> 
66928
(
(-0.00019324 -0.000193052 0.128705)
(7.68666e-07 1.16968e-06 0.133596)
(-2.38367e-06 6.62427e-07 0.133404)
(2.7603e-07 -1.81549e-07 0.133399)
(-0.000192834 0.00019422 0.128687)
(3.35984e-06 -1.14838e-06 0.133584)
(0.000183434 0.000183605 0.128827)
(-0.000192797 -0.000192293 0.128707)
(-2.39658e-06 1.97328e-07 0.1395)
(7.40173e-07 1.76801e-06 0.139504)
(-8.7474e-06 -5.88384e-06 0.062829)
(-8.18212e-06 -2.46198e-06 0.0626077)
(-2.55005e-05 -7.5875e-06 0.0873118)
(-1.02748e-05 -1.50805e-05 0.0868701)
(-6.43818e-06 -3.1455e-05 0.0735483)
(-3.44138e-05 -3.06685e-05 0.102418)
(-2.65668e-05 -3.10103e-07 0.073083)
(-4.3928e-05 1.30695e-06 0.0988371)
(-3.05917e-05 -2.49602e-05 0.101771)
(-3.65182e-06 -1.12004e-06 0.136426)
(-4.98309e-05 -4.0637e-07 0.116726)
(-2.57622e-05 -3.10379e-08 0.0731094)
(-4.36154e-05 -3.79121e-07 0.0988384)
(-3.2362e-06 1.86151e-06 0.136434)
(-2.8622e-05 2.44842e-05 0.101767)
(-4.93153e-05 1.16034e-06 0.116718)
(-6.68969e-06 2.60434e-06 0.0626284)
(-8.72239e-06 1.58755e-05 0.0868937)
(-2.2477e-05 9.40146e-06 0.0873433)
(-6.58169e-06 8.96851e-06 0.0628522)
(-3.21424e-05 3.18632e-05 0.102431)
(-5.94484e-06 3.12532e-05 0.0735726)
(7.60457e-06 1.33442e-05 0.0628472)
(-1.03745e-05 -4.81565e-06 0.0628238)
(9.04031e-06 4.29023e-06 0.0627406)
(-8.33619e-06 -3.26703e-07 0.0626148)
(2.28642e-05 1.11651e-05 0.0874762)
(8.3242e-06 1.68216e-05 0.0871966)
(-0.000191774 -0.000191118 0.128706)
(-2.43023e-05 -6.1195e-06 0.0873194)
(-1.08487e-05 -1.39984e-05 0.0868733)
(-1.05285e-05 -8.90312e-06 0.0628248)
(6.64242e-06 1.28859e-05 0.0628418)
(-1.06663e-05 -1.26345e-06 0.0626184)
(7.38338e-06 4.86626e-06 0.0627459)
(0.000184613 0.000185045 0.128826)
(-2.46296e-05 -7.47209e-06 0.0873152)
(-1.18288e-05 -1.51645e-05 0.08687)
(2.32445e-05 1.21313e-05 0.0874844)
(8.17228e-06 1.76769e-05 0.0872015)
(1.20653e-05 1.0653e-05 0.0628544)
(1.77308e-05 5.80847e-05 0.0987085)
(-1.99605e-05 -5.98804e-05 0.110618)
(2.2628e-05 8.45753e-06 0.0874649)
(-1.35695e-05 -8.79817e-06 0.0725743)
(1.47097e-05 1.0902e-05 0.0726589)
(2.14706e-05 6.14044e-05 0.110962)
(-1.90206e-05 -5.82525e-05 0.0983693)
(6.16226e-05 8.54191e-06 0.0985342)
(-6.60824e-05 -1.33359e-05 0.110221)
(9.07685e-06 1.64566e-05 0.0871873)
(-1.26017e-05 -5.87339e-06 0.0722926)
(1.02996e-05 7.24233e-06 0.0724585)
(6.37842e-05 1.13309e-05 0.110729)
(-6.35946e-05 -9.51845e-06 0.0981218)
(1.46551e-05 1.00499e-05 0.0791656)
(-1.29174e-05 1.96776e-06 0.0613093)
(-4.90102e-06 -5.53913e-06 0.0612563)
(1.20895e-05 1.90035e-06 0.0613948)
(4.02446e-06 9.87875e-06 0.0613678)
(-1.5561e-05 -7.80959e-06 0.0788915)
(1.06886e-05 2.96278e-05 0.0735674)
(-1.07114e-05 -4.09428e-05 0.0855993)
(2.59036e-06 3.33125e-05 0.0856333)
(-8.59473e-07 -1.41155e-05 0.0609697)
(-3.27792e-05 1.6604e-07 0.0848677)
(-7.64625e-06 2.04967e-06 0.0606647)
(-4.18718e-05 2.02161e-06 0.0954642)
(-3.97499e-06 1.09677e-06 0.0692459)
(-5.16219e-06 2.47394e-06 0.0668822)
(-3.10907e-05 1.39308e-07 0.0848837)
(-6.59294e-06 -9.8158e-07 0.0606863)
(-3.71571e-06 -5.88523e-07 0.0692555)
(-4.19446e-05 -1.31737e-06 0.0954732)
(-5.1331e-06 -1.61022e-06 0.0669017)
(6.32718e-05 -8.00291e-06 0.0985416)
(-6.33776e-05 1.37224e-05 0.110248)
(1.07557e-05 -1.49061e-05 0.0872146)
(-1.10088e-05 7.79136e-06 0.0723042)
(6.51896e-05 -1.21423e-05 0.110755)
(1.25247e-05 -4.84379e-06 0.0724767)
(-6.01592e-05 1.11192e-05 0.0981262)
(2.0214e-05 -5.86911e-05 0.098733)
(-1.76014e-05 6.08359e-05 0.110584)
(2.50735e-05 -9.80205e-06 0.0875025)
(-1.31853e-05 1.08838e-05 0.0726169)
(1.59095e-05 -1.05978e-05 0.0727024)
(2.25372e-05 -6.00024e-05 0.11093)
(-1.71845e-05 5.93036e-05 0.0983954)
(1.78128e-05 -8.98369e-06 0.0791959)
(-3.1152e-06 7.80883e-06 0.0612802)
(-1.18704e-05 1.57443e-06 0.0613443)
(5.9379e-06 -6.97355e-06 0.0613919)
(1.57946e-05 -1.08788e-06 0.0614258)
(-1.38052e-05 1.0292e-05 0.0789235)
(9.43854e-06 -1.13743e-05 0.0628713)
(6.63124e-06 -3.2832e-05 0.0735806)
(-4.79544e-06 3.89342e-05 0.0856446)
(7.91249e-06 -3.74621e-05 0.085688)
(-1.08871e-08 1.18538e-05 0.0609794)
(-1.18617e-05 -9.32278e-06 0.0628269)
(6.59103e-06 1.30815e-05 0.0628462)
(-1.24445e-05 -2.56919e-06 0.0626123)
(7.00595e-06 4.24636e-06 0.0627471)
(1.26768e-05 9.75468e-06 0.0791723)
(-1.46849e-05 5.3412e-07 0.0613101)
(-6.07218e-06 -5.91321e-06 0.0612605)
(1.09394e-05 2.8565e-06 0.0613979)
(2.33314e-06 8.90331e-06 0.0613764)
(-1.59744e-05 -7.83483e-06 0.0788971)
(-2.01348e-05 -5.65553e-05 0.0983705)
(2.23523e-05 6.00634e-05 0.110966)
(1.48178e-05 1.13865e-05 0.0726666)
(-2.69255e-05 -8.01252e-06 0.087315)
(1.88907e-05 5.792e-05 0.0987088)
(-1.71207e-05 -7.99521e-06 0.0725749)
(-2.03555e-05 -5.78786e-05 0.110618)
(-6.35521e-05 -1.0977e-05 0.0981249)
(6.277e-05 1.25372e-05 0.110735)
(9.46632e-06 8.94147e-06 0.0724681)
(-1.2196e-05 -1.61496e-05 0.0868723)
(5.93336e-05 8.50032e-06 0.0985336)
(-1.33159e-05 -8.21479e-06 0.0722931)
(-6.38544e-05 -1.28035e-05 0.11022)
(-1.62422e-05 -7.67587e-06 0.0788913)
(1.23475e-05 2.24286e-06 0.0613946)
(2.02362e-06 1.01048e-05 0.0613711)
(1.33909e-05 1.03263e-05 0.0791684)
(-1.59521e-05 1.26364e-06 0.0613089)
(-6.03452e-06 -7.46926e-06 0.0612581)
(1.68376e-05 5.85788e-05 0.0987132)
(-1.44725e-05 -8.09586e-06 0.0725776)
(2.18761e-05 1.1331e-05 0.0874739)
(-1.90498e-05 -5.85569e-05 0.110615)
(1.23142e-05 1.19202e-05 0.0726667)
(-1.92099e-05 -5.76519e-05 0.0983716)
(2.22083e-05 6.30001e-05 0.110961)
(6.09372e-05 8.61829e-06 0.0985387)
(-1.3517e-05 -5.12096e-06 0.0722975)
(7.94594e-06 1.62398e-05 0.0871925)
(-6.50104e-05 -1.12852e-05 0.11022)
(9.60779e-06 7.15384e-06 0.072469)
(-6.36515e-05 -8.70315e-06 0.0981241)
(6.39346e-05 1.26941e-05 0.110731)
(7.3539e-06 1.1471e-05 0.0628432)
(-1.13547e-05 -9.89939e-06 0.0628228)
(6.92301e-06 4.48633e-06 0.0627491)
(-1.21854e-05 -1.72339e-06 0.0626159)
(-1.63676e-05 -8.44983e-06 0.0788962)
(1.17598e-05 1.42585e-06 0.0613975)
(1.38134e-06 9.03315e-06 0.0613772)
(1.26034e-05 9.46079e-06 0.0791695)
(-1.56213e-05 3.6457e-07 0.0613117)
(-5.25023e-06 -7.44898e-06 0.0612625)
(1.8136e-05 5.90214e-05 0.0987117)
(-1.98129e-05 -5.86243e-05 0.11061)
(2.32409e-05 1.13722e-05 0.0874811)
(-1.59152e-05 -8.73905e-06 0.0725771)
(1.25438e-05 1.14992e-05 0.0726687)
(2.17952e-05 6.12604e-05 0.11096)
(-1.89819e-05 -5.66608e-05 0.0983693)
(6.12177e-05 8.49462e-06 0.0985376)
(-6.39877e-05 -1.29194e-05 0.110216)
(7.72277e-06 1.66443e-05 0.0871983)
(-1.30958e-05 -7.60029e-06 0.072296)
(1.01888e-05 7.69459e-06 0.0724715)
(6.40776e-05 1.20509e-05 0.110733)
(-6.27584e-05 -1.04554e-05 0.0981242)
(-1.98258e-05 -5.63909e-05 0.0983675)
(1.35192e-05 1.12657e-05 0.0726688)
(2.31837e-05 6.15656e-05 0.110964)
(-2.59565e-05 -7.46027e-06 0.0873168)
(1.83848e-05 5.83874e-05 0.0987099)
(-1.70571e-05 -8.04957e-06 0.0725767)
(-1.98206e-05 -5.76368e-05 0.110611)
(-6.24336e-05 -9.99754e-06 0.0981208)
(8.99735e-06 8.58052e-06 0.0724719)
(6.37523e-05 1.39538e-05 0.110736)
(-1.19203e-05 -1.56373e-05 0.0868701)
(6.04629e-05 9.53692e-06 0.0985348)
(-1.29743e-05 -7.53216e-06 0.0722964)
(-6.30179e-05 -1.20533e-05 0.110217)
(1.44201e-05 1.08042e-05 0.0791721)
(-1.44437e-05 -7.01955e-07 0.0613142)
(-5.37032e-06 -7.96637e-06 0.0612656)
(1.21169e-05 1.68759e-06 0.0613992)
(2.54321e-06 8.61503e-06 0.0613785)
(-1.56387e-05 -8.94956e-06 0.0788948)
(6.35971e-05 5.5717e-05 0.113339)
(0.000183437 0.000184112 0.128831)
(-0.000187717 -5.50217e-05 0.121977)
(-5.99491e-05 -0.000184522 0.121763)
(0.000185714 5.41272e-05 0.122251)
(5.71543e-05 0.000180868 0.122115)
(-6.65719e-05 -5.92924e-05 0.112984)
(6.35185e-05 -5.70974e-05 0.113335)
(0.000183844 -0.000182638 0.128815)
(-5.88498e-05 0.000186451 0.121808)
(-0.000183217 5.55149e-05 0.121887)
(5.86966e-05 -0.000183879 0.122157)
(0.000186514 -5.31262e-05 0.122164)
(-6.4735e-05 6.25278e-05 0.112981)
(-6.69352e-05 -5.88395e-05 0.112985)
(0.000187363 5.35257e-05 0.122249)
(5.57025e-05 0.000181087 0.122115)
(-0.000191571 -0.000191171 0.128706)
(6.36725e-05 5.63247e-05 0.113337)
(-0.000186267 -5.2633e-05 0.121976)
(-5.75876e-05 -0.000182575 0.121763)
(6.4115e-05 5.66286e-05 0.113337)
(0.000184381 0.00018443 0.128827)
(-0.000186058 -5.21344e-05 0.121972)
(-5.86977e-05 -0.00018437 0.121761)
(0.000188129 5.53355e-05 0.122246)
(5.73998e-05 0.00018186 0.122113)
(-6.63575e-05 -5.88187e-05 0.112983)
(-1.05728e-06 1.86113e-06 0.141537)
(-1.87382e-06 4.83114e-07 0.141562)
(5.02915e-06 0.000215382 0.123507)
(-1.35265e-05 -0.000204909 0.118454)
(2.97706e-05 2.95137e-05 0.102562)
(-1.869e-05 -4.6621e-05 0.110843)
(1.37936e-05 0.000209079 0.118665)
(1.16743e-05 4.11024e-05 0.110974)
(-8.37085e-06 -0.000219764 0.123442)
(0.000225757 2.12192e-06 0.123289)
(-0.000214068 -1.13016e-05 0.117981)
(3.14859e-05 2.22544e-05 0.102198)
(-4.40214e-05 -8.5306e-06 0.110048)
(0.000217507 8.0175e-06 0.118441)
(4.40323e-05 6.37407e-06 0.110564)
(-0.000231776 -5.13958e-06 0.122905)
(0.000225884 -5.87704e-07 0.125834)
(4.93061e-05 -1.19948e-06 0.117355)
(-4.99409e-05 -1.95594e-06 0.114715)
(-0.000222929 2.67451e-07 0.12654)
(4.95881e-05 6.0357e-07 0.1153)
(0.000218294 -1.21851e-06 0.12703)
(-0.000226042 -1.4981e-06 0.125405)
(0.000225721 -9.15195e-07 0.123255)
(-0.000211386 1.22503e-05 0.117961)
(3.29573e-05 -2.19545e-05 0.1022)
(-4.18782e-05 8.91781e-06 0.110036)
(4.53472e-05 -5.70392e-06 0.110551)
(0.000215756 -6.98296e-06 0.118419)
(-0.000226498 5.83028e-06 0.122871)
(0.00022182 1.60106e-06 0.125816)
(5.03955e-05 3.65009e-09 0.117346)
(-0.000221472 6.24311e-07 0.126533)
(-5.03622e-05 3.08357e-06 0.114704)
(0.000217138 1.3874e-06 0.127023)
(5.0558e-05 -4.5611e-07 0.115289)
(-0.000226709 2.61307e-06 0.125387)
(6.97298e-06 -0.000214477 0.123522)
(-1.30252e-05 0.000209437 0.118441)
(3.14984e-05 -3.28703e-05 0.102571)
(-1.35408e-05 4.85388e-05 0.110836)
(1.53795e-05 -0.000210519 0.118652)
(1.53874e-05 -4.3791e-05 0.110967)
(-6.1921e-06 0.00022615 0.123452)
(6.30005e-05 5.61167e-05 0.113339)
(0.000184074 0.000184497 0.12883)
(-0.000185397 -5.34336e-05 0.121975)
(-5.81616e-05 -0.000181031 0.121762)
(-6.6296e-05 -5.82332e-05 0.112983)
(0.00018679 5.46115e-05 0.122248)
(5.81317e-05 0.000182446 0.122115)
(-6.51622e-05 -5.73868e-05 0.112981)
(-0.000190861 -0.000190575 0.128706)
(0.000189454 5.56589e-05 0.122246)
(5.75884e-05 0.000183555 0.122113)
(6.45038e-05 5.74755e-05 0.113336)
(-0.000185477 -5.18461e-05 0.121973)
(-5.61495e-05 -0.000181151 0.12176)
(-2.58076e-06 -2.0374e-07 0.139498)
(3.22254e-06 -2.87192e-07 0.133401)
(-8.23852e-07 1.03469e-06 0.133577)
(-0.000182046 -0.000180098 0.128828)
(-1.75874e-06 4.20217e-07 0.1395)
(2.45855e-06 3.89862e-07 0.133403)
(1.38012e-06 -6.58453e-07 0.133577)
(-0.000182975 -0.000182948 0.128831)
(-4.6387e-07 5.68586e-07 0.139502)
(1.79876e-06 2.09081e-07 0.133401)
(2.41441e-06 -1.80473e-06 0.133578)
(-0.00018353 -0.000182162 0.128827)
(-1.0174e-06 -4.59339e-07 0.139504)
(1.75899e-06 -7.81135e-07 0.133399)
(1.98034e-06 -1.47014e-06 0.133578)
(-0.000182784 -0.000182974 0.128824)
(-1.32982e-06 -1.06722e-06 0.139504)
(1.59048e-06 -1.5665e-06 0.133396)
(2.1959e-06 -1.88937e-06 0.133578)
(-0.000183307 -0.000182393 0.128823)
(-8.05981e-07 -1.00863e-06 0.139505)
(9.92926e-07 -2.27441e-06 0.133395)
(2.62819e-06 -1.57674e-06 0.133574)
(-0.00018378 -0.000182461 0.128818)
(-1.12478e-06 -1.17039e-06 0.139504)
(5.12379e-07 -1.81641e-06 0.13339)
(1.9801e-06 -6.51262e-07 0.133572)
(-0.000183558 -0.000181898 0.128817)
(-5.68336e-07 -9.21098e-07 0.139503)
(1.86467e-06 -1.98607e-06 0.133387)
(2.19054e-06 -2.52662e-07 0.133571)
(-0.000183005 -0.000181565 0.128814)
(-6.16251e-07 2.36594e-07 0.139503)
(2.31373e-06 -1.93352e-08 0.133387)
(2.49129e-06 -3.64024e-07 0.133569)
(-0.000183024 -0.000181187 0.128813)
(-1.09467e-06 1.19864e-06 0.139503)
(2.86546e-06 1.03953e-06 0.133384)
(1.76761e-06 4.59603e-07 0.133567)
(-0.000182663 -0.000180731 0.128815)
(-1.10834e-06 1.67417e-06 0.139502)
(3.1017e-06 1.45641e-06 0.133384)
(2.50804e-06 2.33264e-07 0.133569)
(-0.000182904 -0.000182246 0.12882)
(-6.08835e-07 1.54987e-06 0.139501)
(2.14404e-06 1.32245e-06 0.133384)
(1.9831e-06 9.97342e-08 0.133568)
(-0.000182824 -0.000182141 0.128821)
(-1.19599e-06 7.17613e-07 0.139502)
(1.59296e-06 2.29935e-07 0.133389)
(2.15228e-06 -9.11707e-07 0.13357)
(-0.000182928 -0.00018165 0.128825)
(-8.06946e-07 5.30337e-07 0.139503)
(1.22931e-06 6.89932e-07 0.133394)
(2.05352e-06 -1.68219e-06 0.133568)
(-0.000184033 -0.000182077 0.128827)
(-9.2978e-07 1.24658e-06 0.139503)
(1.41483e-06 5.51267e-07 0.133395)
(9.63509e-07 -9.59517e-07 0.13357)
(-0.000182857 -0.000181973 0.128825)
(-1.61226e-06 6.66649e-07 0.139504)
(1.69444e-06 5.41191e-10 0.133394)
(8.64631e-07 -2.82296e-07 0.133574)
(-0.000183131 -0.00018188 0.128825)
(-6.47261e-07 1.26826e-06 0.139507)
(1.30435e-06 1.57983e-07 0.133393)
(2.94181e-06 -3.13106e-06 0.133577)
(-0.000183908 -0.000182034 0.128826)
(1.39347e-06 1.98588e-06 0.133594)
(-1.49541e-06 1.78585e-06 0.133604)
(3.09744e-06 3.25827e-06 0.133599)
(-3.57027e-06 2.59575e-06 0.133603)
(-0.000181377 0.000183896 0.128829)
(0.000193005 -0.000191796 0.128709)
(-1.81383e-06 5.08749e-08 0.133403)
(-2.01912e-06 2.61635e-07 0.133397)
(-2.54756e-06 5.06989e-07 0.133405)
(-1.03482e-06 -1.41118e-06 0.133397)
(2.4798e-06 8.49308e-07 0.133413)
(3.63193e-06 7.49268e-07 0.133403)
(2.40945e-06 -9.11807e-07 0.133412)
(0.000182117 -0.000181355 0.128809)
(-0.000192112 0.000194265 0.128686)
(6.58587e-07 2.04937e-06 0.133603)
(1.25359e-06 4.86683e-07 0.133578)
(-1.15872e-06 1.44837e-07 0.133601)
(0.000193251 0.000194511 0.128708)
(0.000183848 0.000184124 0.128829)
(-0.000191283 -0.00019208 0.128707)
(2.99259e-06 3.22833e-06 0.133598)
(-3.49991e-06 4.45244e-06 0.133601)
(3.96599e-06 3.41662e-06 0.133602)
(-3.76157e-06 3.00308e-06 0.133603)
(-0.000182743 0.000184392 0.128829)
(0.000191599 -0.000191932 0.128708)
(-1.80504e-06 1.33372e-07 0.133404)
(6.76225e-07 -1.72233e-06 0.133396)
(1.29507e-07 8.01225e-07 0.133407)
(6.8416e-08 -1.25939e-06 0.133398)
(9.34176e-07 -7.32637e-07 0.133413)
(8.89576e-07 1.81073e-06 0.133402)
(-1.4263e-07 -1.33035e-06 0.133416)
(0.000183114 -0.000181652 0.128809)
(-0.000191837 0.000194503 0.128687)
(-2.04657e-06 -2.01345e-06 0.1336)
(3.59854e-06 -1.64523e-06 0.133579)
(-2.73242e-06 -1.64707e-06 0.133601)
(0.000191804 0.000195136 0.128705)
(0.000184121 0.000182911 0.128828)
(-0.00019154 -0.000193464 0.128704)
(3.08595e-06 2.22541e-06 0.1336)
(-3.62522e-06 3.94951e-06 0.133602)
(3.22116e-06 1.86652e-06 0.133602)
(-3.92652e-06 2.17113e-06 0.1336)
(-0.000183314 0.000183087 0.128827)
(0.000192481 -0.000192521 0.128707)
(-3.08262e-07 6.04373e-08 0.133405)
(4.74381e-07 -4.04194e-07 0.133395)
(-3.73536e-07 4.57604e-07 0.133404)
(-8.03744e-07 -1.16236e-06 0.133396)
(-2.22773e-07 -7.04206e-07 0.133412)
(2.50997e-06 -6.12483e-08 0.1334)
(9.17062e-07 -1.10809e-06 0.133413)
(0.000184058 -0.000181987 0.128809)
(-0.000190996 0.000193728 0.128687)
(-2.21685e-06 -1.94051e-06 0.133599)
(2.24569e-06 -1.06086e-06 0.133579)
(-2.23009e-06 -2.79067e-07 0.133598)
(0.000192929 0.00019425 0.128702)
(0.000183664 0.00018154 0.128826)
(-0.0001926 -0.000194479 0.128702)
(2.99698e-06 1.76722e-06 0.1336)
(-3.11211e-06 2.04751e-06 0.133599)
(3.32898e-06 1.29645e-06 0.133602)
(-3.7253e-06 1.3458e-06 0.133598)
(-0.000182842 0.000182931 0.128826)
(0.000191776 -0.000194324 0.128704)
(-1.22022e-06 -4.04208e-07 0.133401)
(-3.99596e-07 -1.31143e-06 0.133393)
(-1.22484e-06 -2.08174e-07 0.133401)
(-2.28211e-06 -1.0127e-06 0.133396)
(-1.35104e-07 -7.9105e-07 0.133411)
(2.18282e-06 -7.47962e-07 0.133397)
(9.18416e-07 -1.29936e-06 0.133411)
(0.000183497 -0.000181757 0.128808)
(-0.000191483 0.000193156 0.128681)
(-1.66647e-06 -1.37584e-06 0.133596)
(2.81653e-06 -1.30771e-06 0.13358)
(-2.13807e-06 -3.14919e-07 0.133596)
(0.000191483 0.000194198 0.128701)
(0.000183409 0.000180922 0.128823)
(-0.000191455 -0.000194549 0.128701)
(2.81739e-06 1.28403e-06 0.133601)
(-2.48325e-06 1.30885e-06 0.133596)
(3.09652e-06 4.11346e-07 0.133602)
(-4.22805e-06 8.007e-07 0.133596)
(-0.000183053 0.000180714 0.128822)
(0.000192056 -0.000195468 0.128701)
(-1.15145e-06 -1.02357e-06 0.1334)
(-7.08751e-07 -1.20161e-06 0.133394)
(-5.37092e-07 -8.48877e-07 0.133399)
(-9.122e-07 -1.43711e-06 0.133393)
(-3.55277e-07 -1.44084e-06 0.133409)
(1.66841e-06 -1.36251e-06 0.133397)
(1.01283e-06 -1.15966e-06 0.133407)
(0.000183399 -0.000182519 0.128804)
(-0.000191026 0.000192955 0.128677)
(-2.12307e-06 -1.0103e-06 0.133595)
(2.70272e-06 -6.76811e-07 0.133577)
(-2.73357e-06 -5.03089e-07 0.133595)
(0.000191713 0.000194918 0.128697)
(0.00018445 0.000180939 0.128822)
(-0.000190937 -0.000194649 0.1287)
(2.91409e-06 2.56212e-07 0.1336)
(-3.38654e-06 9.61041e-07 0.133594)
(3.51397e-06 6.47712e-07 0.133601)
(-3.87569e-06 -7.85517e-07 0.133594)
(-0.000183245 0.000179973 0.128821)
(0.000190716 -0.000195263 0.1287)
(-1.07163e-06 -2.08392e-06 0.133398)
(-9.27695e-07 -8.83622e-07 0.13339)
(-9.89017e-07 -1.48239e-06 0.133398)
(-5.36613e-07 -1.50703e-06 0.13339)
(-5.51054e-09 -6.76872e-07 0.133405)
(7.66377e-07 -1.19566e-06 0.133393)
(8.04264e-07 -5.56048e-07 0.133405)
(0.000183344 -0.000181934 0.128798)
(-0.000191251 0.000193722 0.128671)
(-2.41183e-06 -1.23201e-06 0.133592)
(3.52899e-06 -4.66697e-07 0.133574)
(-2.82616e-06 -3.88583e-07 0.133592)
(0.000191492 0.000194893 0.128695)
(0.000184209 0.000180219 0.128821)
(-0.000191916 -0.00019419 0.128698)
(3.06317e-06 3.63393e-07 0.133599)
(-3.7353e-06 7.94553e-08 0.133594)
(3.56914e-06 8.3769e-07 0.133599)
(-4.02453e-06 7.69556e-07 0.133594)
(-0.000184171 0.000180342 0.128818)
(0.000191821 -0.000193341 0.128699)
(-9.05663e-07 -2.0041e-06 0.133397)
(-2.09455e-07 -5.98844e-07 0.133387)
(-1.35492e-06 -1.89069e-06 0.133397)
(-9.98508e-07 -8.75466e-07 0.133387)
(5.44108e-07 -8.47315e-08 0.133403)
(1.85713e-06 -1.22785e-06 0.133388)
(8.74434e-07 -8.40668e-07 0.133403)
(0.000183796 -0.000181862 0.128793)
(-0.000190217 0.000193801 0.12867)
(-2.57867e-06 -1.23283e-06 0.13359)
(2.90219e-06 1.95446e-07 0.133573)
(-2.41808e-06 5.58022e-07 0.13359)
(0.000191906 0.000195226 0.128692)
(0.000183033 0.00018103 0.128819)
(-0.000193649 -0.000193342 0.128697)
(3.41317e-06 5.77049e-07 0.133598)
(-3.11627e-06 1.18484e-06 0.133594)
(2.74527e-06 1.80356e-06 0.133598)
(-2.76569e-06 1.79908e-06 0.133593)
(-0.000182255 0.000181622 0.128818)
(0.000193472 -0.000192031 0.128697)
(-1.9394e-06 -1.83087e-06 0.133396)
(2.47998e-07 -6.12884e-07 0.133384)
(-1.60084e-06 -2.62743e-07 0.133396)
(-1.41282e-06 1.14733e-07 0.133381)
(-1.10643e-07 -1.91079e-07 0.133401)
(3.6133e-06 -1.19844e-07 0.133388)
(1.71189e-06 -1.15438e-07 0.133398)
(0.000184021 -0.000181285 0.128792)
(-0.00019117 0.000194204 0.128669)
(-2.40977e-06 -6.30663e-07 0.133589)
(3.28873e-06 -5.03436e-07 0.13357)
(-2.4279e-06 1.87829e-07 0.133588)
(0.000191945 0.000195375 0.128691)
(0.000182038 0.000182602 0.128818)
(-0.000193422 -0.000192161 0.128695)
(2.06234e-06 1.55651e-06 0.133595)
(-2.27395e-06 3.06531e-06 0.133591)
(1.90675e-06 2.81848e-06 0.133595)
(-1.51826e-06 1.71549e-06 0.133588)
(-0.000181192 0.00018332 0.128815)
(0.000193715 -0.000190388 0.128697)
(-1.5916e-06 -3.58066e-07 0.133393)
(-1.17032e-06 9.19111e-07 0.13338)
(-2.04666e-06 7.74266e-07 0.133394)
(-7.29222e-07 8.43021e-07 0.133381)
(5.73602e-07 2.97234e-07 0.133395)
(2.93981e-06 1.20035e-06 0.133387)
(6.85428e-07 -2.43234e-08 0.133394)
(0.000183121 -0.000180969 0.128791)
(-0.000190768 0.000194565 0.128675)
(-1.81958e-06 -1.49911e-07 0.133586)
(2.34946e-06 4.55158e-07 0.133568)
(-1.82672e-06 1.21865e-06 0.133585)
(0.000191706 0.000195654 0.128692)
(0.00018194 0.000183178 0.128816)
(-0.000192309 -0.000191304 0.128696)
(1.13207e-06 2.64777e-06 0.133592)
(-1.30206e-06 3.66158e-06 0.133586)
(2.09754e-06 3.02346e-06 0.133591)
(-1.32613e-06 2.62346e-06 0.133586)
(-0.000180488 0.000184538 0.128817)
(0.000193095 -0.000191079 0.128698)
(-1.78025e-06 6.57002e-07 0.133392)
(3.42004e-07 8.44334e-07 0.13338)
(-1.25744e-06 1.45985e-06 0.133393)
(-5.33565e-07 5.44256e-07 0.133381)
(5.36659e-07 7.97398e-07 0.133391)
(3.32528e-06 2.20788e-06 0.133385)
(1.30561e-06 2.47565e-07 0.133393)
(0.000183118 -0.000180081 0.128797)
(-0.000189462 0.000193581 0.128678)
(-1.33391e-06 3.67841e-08 0.133584)
(3.28569e-06 6.65531e-07 0.133569)
(-1.58115e-06 5.57325e-07 0.133588)
(0.000191761 0.000194574 0.128698)
(0.000182668 0.000183446 0.128817)
(-0.000191918 -0.000191958 0.128697)
(1.59541e-06 2.93175e-06 0.133588)
(-1.14654e-06 3.52471e-06 0.133584)
(2.54827e-06 2.98669e-06 0.133587)
(-1.95382e-06 3.22413e-06 0.133584)
(-0.000180918 0.000183403 0.128817)
(0.000193411 -0.000190935 0.1287)
(-1.13304e-06 1.15548e-06 0.133391)
(4.40519e-07 6.17518e-07 0.13338)
(-7.91281e-07 1.73001e-06 0.133391)
(-5.36994e-07 1.11865e-08 0.13338)
(6.07987e-07 2.25245e-07 0.133391)
(2.76692e-06 1.43566e-06 0.133385)
(1.89501e-06 2.01335e-07 0.133396)
(0.00018389 -0.000180452 0.1288)
(-0.000190367 0.000193445 0.128678)
(-1.90217e-06 -3.44942e-07 0.133587)
(3.48919e-06 1.46719e-07 0.133569)
(-2.21385e-06 -2.07821e-08 0.133588)
(0.00019152 0.000194201 0.128699)
(0.000183567 0.000183248 0.128818)
(-0.000192172 -0.000191974 0.128698)
(2.49581e-06 3.30251e-06 0.133586)
(-1.43644e-06 3.64288e-06 0.133581)
(2.95281e-06 3.17887e-06 0.133589)
(-2.74014e-06 3.54824e-06 0.133584)
(-0.000181391 0.000184342 0.128821)
(0.00019202 -0.000192718 0.128705)
(-1.34501e-06 1.08643e-06 0.13339)
(-5.75008e-07 8.04037e-07 0.133379)
(-7.8783e-07 1.1812e-06 0.133394)
(-5.48724e-07 -7.59605e-07 0.133382)
(9.17758e-07 3.17021e-08 0.133396)
(2.13243e-06 8.30832e-07 0.13339)
(3.92809e-07 -1.07838e-06 0.133401)
(0.000183266 -0.000181223 0.1288)
(-0.00019048 0.000192676 0.12868)
(-1.74771e-06 -9.26735e-07 0.133587)
(3.14669e-06 -4.43735e-07 0.133569)
(-2.43551e-06 5.4869e-09 0.133589)
(0.000191446 0.000194644 0.128702)
(0.00018331 0.00018315 0.12882)
(-0.00019207 -0.000192771 0.1287)
(2.85758e-06 3.25151e-06 0.133589)
(-2.68006e-06 4.1894e-06 0.133584)
(3.08887e-06 3.23488e-06 0.13359)
(-3.56805e-06 3.09379e-06 0.133589)
(-0.000183483 0.000183293 0.128825)
(0.000191509 -0.000191413 0.128706)
(-9.83081e-07 8.8857e-07 0.133394)
(-6.31904e-08 -2.91937e-07 0.133381)
(-9.36999e-07 9.06771e-07 0.133396)
(-1.19588e-06 -4.15193e-07 0.133386)
(7.42769e-08 -1.294e-07 0.133401)
(2.10274e-06 7.77052e-07 0.133394)
(3.85371e-07 -5.40605e-07 0.133404)
(0.000183559 -0.000182164 0.128802)
(-0.00019076 0.000193372 0.128681)
(-1.75339e-06 -8.18598e-07 0.133588)
(3.52711e-06 -1.63342e-06 0.13357)
(-2.76584e-06 -4.98889e-07 0.133591)
(0.000189969 0.000193991 0.128705)
(0.000183595 0.000182808 0.128821)
(-0.000192677 -0.000191858 0.1287)
(2.75462e-06 2.547e-06 0.133589)
(-3.27441e-06 3.90323e-06 0.133587)
(2.68635e-06 2.72236e-06 0.133592)
(-4.05787e-06 2.8524e-06 0.13359)
(-0.000182943 0.000183634 0.128826)
(0.000191651 -0.000192182 0.128706)
(-9.31803e-07 8.95924e-07 0.133394)
(-5.99618e-07 1.80455e-07 0.133386)
(-7.93115e-07 1.08882e-06 0.133393)
(-6.45631e-07 -2.40078e-07 0.133392)
(-3.474e-07 -5.95605e-07 0.133403)
(2.08006e-06 1.1333e-06 0.133396)
(1.20674e-06 -3.6283e-07 0.133406)
(0.000183379 -0.000181574 0.128803)
(-0.000191365 0.000193437 0.128685)
(-2.11371e-06 -4.41945e-07 0.133591)
(2.12054e-06 -3.83016e-07 0.133571)
(-2.45769e-06 -1.24533e-08 0.133594)
(0.000191935 0.000194373 0.128703)
(0.000183019 0.000183518 0.128821)
(-0.000191995 -0.000192407 0.128702)
(2.37737e-06 3.43929e-06 0.133591)
(-3.06431e-06 3.2926e-06 0.133588)
(3.03062e-06 3.24163e-06 0.13359)
(-3.66938e-06 2.1627e-06 0.133589)
(-0.000183342 0.000183353 0.128825)
(0.000192198 -0.000192741 0.128704)
(-1.37669e-06 3.66479e-07 0.133394)
(-4.29469e-07 1.83243e-08 0.133392)
(-9.96705e-07 1.49533e-06 0.133396)
(-1.03784e-06 -3.75863e-07 0.133395)
(2.37918e-07 -5.11546e-07 0.133404)
(1.82633e-06 4.58252e-07 0.133396)
(3.32627e-07 -1.12781e-06 0.133407)
(0.000182671 -0.00018147 0.128807)
(-0.00019194 0.000194064 0.12869)
(-2.40859e-06 -1.13615e-06 0.133592)
(1.88752e-06 -8.42756e-07 0.133573)
(-2.56709e-06 2.97567e-08 0.133594)
(0.000191674 0.000194806 0.128704)
(0.000183259 0.000182674 0.128823)
(-0.000192041 -0.000193194 0.128705)
(2.08732e-06 2.12962e-06 0.133593)
(-2.33768e-06 2.43657e-06 0.133588)
(2.04742e-06 1.97085e-06 0.133591)
(-3.23911e-06 2.26092e-06 0.133588)
(-0.000182843 0.000183233 0.128825)
(0.000192088 -0.000192522 0.128706)
(-1.69182e-06 2.012e-07 0.133398)
(-9.68578e-07 1.96881e-07 0.133398)
(-2.1547e-06 -2.87038e-07 0.133398)
(-1.96231e-06 9.44453e-07 0.133396)
(-1.6614e-07 -7.00853e-07 0.133405)
(2.49413e-06 3.18458e-07 0.133396)
(2.45887e-07 -8.67832e-07 0.133406)
(0.000182631 -0.000181295 0.128812)
(-0.000191328 0.000194711 0.128694)
(-1.94461e-06 -6.70202e-07 0.133593)
(3.365e-06 4.61527e-07 0.133573)
(-3.09225e-06 -6.44514e-07 0.133594)
(0.000191897 0.000195234 0.128705)
(0.000183992 0.000182697 0.128826)
(3.84791e-06 4.7362e-06 0.133594)
(-3.39541e-06 3.22798e-06 0.133587)
(-0.000183167 0.000183242 0.128826)
(7.12654e-07 1.36121e-06 0.133401)
(8.71457e-07 -1.77194e-06 0.133398)
(3.84898e-07 6.20828e-08 0.133406)
(5.13849e-07 -1.12891e-06 0.133407)
(0.000182931 -0.000181105 0.128814)
(-3.08119e-06 -1.6329e-06 0.133594)
(-2.69717e-06 -1.00101e-07 0.133595)
(0.000191437 0.000194339 0.128703)
(-3.83994e-07 -5.14265e-05 0.099901)
(7.95616e-06 3.45552e-05 0.0735653)
(1.43177e-06 4.88285e-05 0.100016)
(-7.82957e-06 -2.73261e-05 0.0735489)
(-7.59999e-06 1.42566e-05 0.0628549)
(1.08008e-05 -7.66124e-06 0.0628359)
(-4.47984e-05 9.32744e-07 0.0988395)
(2.93113e-05 5.00851e-07 0.0732963)
(4.48363e-05 -1.04662e-06 0.0993999)
(-2.76323e-05 1.68981e-06 0.0730904)
(2.58098e-06 -1.47617e-07 0.139501)
(-3.89317e-06 9.88994e-07 0.139493)
(3.01206e-06 1.34018e-06 0.139512)
(-1.36142e-06 9.19218e-07 0.139501)
(2.41561e-06 1.90364e-07 0.139501)
(-2.16203e-06 1.54437e-07 0.139493)
(1.75931e-06 1.87497e-07 0.139509)
(4.55628e-05 -2.52871e-07 0.116721)
(-2.89734e-05 2.11954e-05 0.102222)
(5.22853e-06 -2.2096e-06 0.136423)
(1.63462e-06 1.36635e-06 0.133402)
(3.04924e-05 -2.45622e-05 0.101784)
(2.79609e-06 -1.26639e-06 0.136424)
(-4.75005e-05 -4.11723e-07 0.117354)
(9.33388e-06 -3.40996e-06 0.0627611)
(-6.79288e-06 2.26491e-06 0.0626327)
(-2.52756e-06 5.09612e-05 0.117633)
(-3.17823e-06 1.88448e-06 0.136686)
(3.12598e-05 -2.99897e-05 0.102578)
(1.20358e-06 1.46797e-07 0.133578)
(-1.73065e-06 -1.77733e-06 0.136689)
(-3.23529e-05 3.11306e-05 0.102434)
(6.58592e-07 -5.06353e-05 0.117774)
(-1.00616e-05 -1.45544e-05 0.0872469)
(-2.54946e-05 -8.58626e-06 0.0874537)
(0.000191104 0.000193341 0.128706)
(1.07347e-05 1.58256e-05 0.0869217)
(2.29797e-05 1.03804e-05 0.0872954)
(-5.86651e-07 -5.0081e-05 0.0999012)
(6.26204e-06 3.48529e-05 0.0735617)
(7.59979e-07 5.39838e-05 0.100018)
(-7.54796e-06 -2.85529e-05 0.0735439)
(-8.28274e-06 1.27211e-05 0.0628546)
(8.83737e-06 -7.61157e-06 0.0628382)
(-4.4187e-05 1.20768e-06 0.0988405)
(2.7811e-05 1.89381e-06 0.073303)
(4.49745e-05 -6.43704e-07 0.0994)
(-2.66907e-05 1.49797e-07 0.0730943)
(1.29763e-06 1.06691e-06 0.139499)
(-1.40678e-06 -4.0609e-07 0.139492)
(7.56476e-07 -4.65568e-07 0.139507)
(5.33676e-07 1.57557e-06 0.139503)
(4.65419e-07 1.32503e-06 0.139503)
(2.65046e-09 -2.98943e-07 0.139499)
(1.60552e-07 -2.51122e-07 0.139513)
(4.57249e-05 -8.86171e-07 0.116718)
(-2.93644e-05 2.22218e-05 0.102222)
(3.64845e-06 -9.58915e-07 0.136425)
(7.29505e-07 5.7854e-07 0.133401)
(-4.87302e-05 -7.34967e-07 0.117352)
(2.99852e-05 -2.50486e-05 0.101784)
(1.79672e-06 -3.10966e-07 0.136423)
(8.52005e-06 -3.50999e-06 0.0627706)
(-7.36796e-06 1.08752e-06 0.062642)
(-1.90481e-06 4.84349e-05 0.117629)
(-1.92275e-06 -2.47072e-06 0.136685)
(3.21543e-05 -3.12561e-05 0.102575)
(2.49876e-06 -1.95535e-06 0.133576)
(1.1582e-06 -5.2868e-05 0.117771)
(-8.58302e-07 -4.224e-06 0.136682)
(-3.17767e-05 3.01354e-05 0.102426)
(-9.04793e-06 -1.51013e-05 0.0872458)
(-2.48609e-05 -8.69101e-06 0.087456)
(0.00019 0.000192824 0.128706)
(9.66264e-06 1.46451e-05 0.0869196)
(2.23358e-05 8.36888e-06 0.0872952)
(-2.92674e-07 -5.28609e-05 0.0999002)
(7.65611e-06 3.3139e-05 0.0735579)
(6.70479e-07 5.33799e-05 0.100016)
(-6.62683e-06 -3.06877e-05 0.07354)
(-9.96044e-06 1.11675e-05 0.0628545)
(6.00332e-06 -1.02708e-05 0.0628374)
(-4.42009e-05 -2.72638e-07 0.0988378)
(2.88559e-05 4.88137e-07 0.0733056)
(4.40997e-05 -7.1385e-07 0.0994005)
(-2.68095e-05 -9.103e-07 0.0730974)
(7.65687e-07 8.29406e-07 0.139501)
(-9.41919e-08 -1.34548e-07 0.139496)
(1.079e-07 -4.82219e-07 0.139511)
(-5.56432e-07 -1.14021e-07 0.139505)
(1.35631e-06 -1.01404e-07 0.139502)
(-4.99556e-07 -2.59101e-07 0.139499)
(5.73581e-07 -2.82121e-07 0.139512)
(4.65289e-05 -1.07998e-06 0.116716)
(-3.02262e-05 2.17764e-05 0.102222)
(3.20119e-06 -1.29758e-06 0.136425)
(1.02122e-06 9.27106e-08 0.1334)
(-4.8425e-05 -1.23358e-06 0.117347)
(3.00879e-05 -2.62741e-05 0.101784)
(2.61853e-06 -7.55509e-07 0.136423)
(8.66333e-06 -4.1028e-06 0.0627741)
(-7.30382e-06 7.22066e-07 0.0626407)
(-1.93667e-06 5.00075e-05 0.117626)
(-2.11182e-06 -2.34343e-06 0.136686)
(3.20427e-05 -3.16226e-05 0.102575)
(2.93789e-06 -2.53165e-06 0.133577)
(9.62246e-07 -5.21922e-05 0.117767)
(-1.71858e-06 -2.56398e-06 0.136684)
(-3.30169e-05 3.08017e-05 0.102426)
(-9.17146e-06 -1.61534e-05 0.0872444)
(-2.55374e-05 -8.2593e-06 0.0874549)
(0.000190524 0.00019335 0.128703)