/*--------------------------------*- C++ -*----------------------------------*\
| =========                 |                                                 |
| \\      /  F ield         | OpenFOAM: The Open Source CFD Toolbox           |
|  \\    /   O peration     | Version:  2206                                  |
|   \\  /    A nd           | Website:  www.openfoam.com                      |
|    \\/     M anipulation  |                                                 |
\*---------------------------------------------------------------------------*/
FoamFile
{
    version     2.0;
    format      ascii;
    arch        "LSB;label=32;scalar=64";
    class       volScalarField;
    location    "20";
    object      nut;
}
// * * * * * * * * * * * * * * * * * * * * * * * * * * * * * * * * * * * * * //

dimensions      [0 2 -1 0 0 0 0];

internalField   nonuniform List<scalar> 
66928
(
1.30331e-06
1.41215e-06
1.40159e-06
1.41264e-06
1.30675e-06
1.41289e-06
1.2999e-06
1.29471e-06
1.42967e-06
1.44662e-06
1.68667e-08
1.71339e-08
9.22387e-08
8.667e-08
3.73791e-08
2.56103e-07
3.68574e-08
2.11113e-07
2.40101e-07
1.48126e-06
7.08646e-07
3.91695e-08
2.10043e-07
1.48356e-06
2.50201e-07
7.15313e-07
1.74649e-08
8.89088e-08
8.98667e-08
1.63977e-08
2.46766e-07
3.69543e-08
1.71919e-08
1.69238e-08
1.66717e-08
1.6515e-08
9.51921e-08
8.96694e-08
1.29698e-06
9.15971e-08
8.88157e-08
1.71733e-08
1.74571e-08
1.65505e-08
1.66613e-08
1.30721e-06
9.3736e-08
8.7535e-08
9.54254e-08
8.95154e-08
1.69485e-08
1.85764e-07
4.54913e-07
9.46509e-08
3.43331e-08
3.46167e-08
4.57438e-07
1.87934e-07
1.83225e-07
4.40925e-07
8.8747e-08
3.31965e-08
3.4704e-08
4.43354e-07
1.85922e-07
4.77068e-08
1.47143e-08
1.43628e-08
1.46438e-08
1.44459e-08
4.68052e-08
3.77916e-08
8.51242e-08
8.4934e-08
1.4518e-08
8.21251e-08
1.41187e-08
1.69996e-07
2.79992e-08
2.27653e-08
8.63241e-08
1.44374e-08
2.76689e-08
1.69693e-07
2.33553e-08
1.93597e-07
4.48937e-07
8.96077e-08
3.46896e-08
4.52057e-07
3.50602e-08
1.95939e-07
1.89097e-07
4.48503e-07
8.97871e-08
3.44612e-08
3.47617e-08
4.51801e-07
1.90207e-07
5.10697e-08
1.50032e-08
1.49169e-08
1.52213e-08
1.49695e-08
4.99767e-08
1.66188e-08
3.70864e-08
8.02141e-08
8.06644e-08
1.4038e-08
1.71387e-08
1.7062e-08
1.65909e-08
1.667e-08
4.6171e-08
1.44188e-08
1.44221e-08
1.4772e-08
1.44157e-08
4.64384e-08
1.80012e-07
4.64818e-07
3.52865e-08
9.29635e-08
1.89817e-07
3.47991e-08
4.75689e-07
1.76201e-07
4.45643e-07
3.36144e-08
8.84296e-08
1.78191e-07
3.35309e-08
4.40057e-07
4.65078e-08
1.48462e-08
1.45563e-08
4.71936e-08
1.46171e-08
1.42752e-08
1.83983e-07
3.43274e-08
9.46206e-08
4.58144e-07
3.47203e-08
1.85325e-07
4.69699e-07
1.84652e-07
3.34929e-08
8.86995e-08
4.3599e-07
3.34039e-08
1.80001e-07
4.43784e-07
1.75241e-08
1.74942e-08
1.66865e-08
1.66728e-08
4.56753e-08
1.48371e-08
1.43999e-08
4.69926e-08
1.47243e-08
1.44526e-08
1.79897e-07
4.51519e-07
9.34869e-08
3.49517e-08
3.5094e-08
4.54052e-07
1.90425e-07
1.77428e-07
4.35448e-07
8.82706e-08
3.26559e-08
3.33779e-08
4.40467e-07
1.78819e-07
1.81341e-07
3.5484e-08
4.62995e-07
9.5201e-08
1.86314e-07
3.48361e-08
4.60468e-07
1.83996e-07
3.37643e-08
4.47785e-07
8.78703e-08
1.82578e-07
3.35301e-08
4.41923e-07
4.79688e-08
1.46053e-08
1.40543e-08
1.47222e-08
1.43066e-08
4.65198e-08
5.32369e-07
1.31073e-06
9.3393e-07
9.21781e-07
9.45897e-07
9.48469e-07
5.28605e-07
5.4976e-07
1.31263e-06
9.52933e-07
9.39022e-07
9.5349e-07
9.4605e-07
5.4872e-07
5.16023e-07
9.65906e-07
9.50421e-07
1.30298e-06
5.34892e-07
9.40505e-07
9.22369e-07
5.087e-07
1.29819e-06
9.35579e-07
9.08114e-07
9.38893e-07
9.2486e-07
5.16556e-07
1.43092e-06
1.40886e-06
1.05522e-06
7.65116e-07
2.57118e-07
4.8834e-07
7.70131e-07
4.89443e-07
1.06935e-06
1.01573e-06
7.35752e-07
2.45569e-07
4.41687e-07
7.36611e-07
4.52597e-07
1.02263e-06
1.17751e-06
7.12493e-07
6.20957e-07
1.23761e-06
6.2653e-07
1.24108e-06
1.16195e-06
1.04291e-06
7.57305e-07
2.53364e-07
4.51005e-07
4.60636e-07
7.54396e-07
1.05708e-06
1.18007e-06
7.12807e-07
1.23978e-06
6.26263e-07
1.2393e-06
6.29873e-07
1.18324e-06
1.0359e-06
7.42123e-07
2.49509e-07
4.50874e-07
7.45453e-07
4.51096e-07
1.04606e-06
5.17221e-07
1.30883e-06
9.57578e-07
9.24624e-07
5.15274e-07
9.56124e-07
9.34961e-07
5.28755e-07
1.30922e-06
9.37062e-07
9.30318e-07
5.172e-07
9.58548e-07
9.26408e-07
1.44579e-06
1.40423e-06
1.41306e-06
1.30529e-06
1.46376e-06
1.40407e-06
1.40946e-06
1.29682e-06
1.44439e-06
1.3969e-06
1.4252e-06
1.28814e-06
1.44351e-06
1.40139e-06
1.414e-06
1.28422e-06
1.44924e-06
1.39577e-06
1.41511e-06
1.28725e-06
1.45517e-06
1.40597e-06
1.41328e-06
1.28337e-06
1.44511e-06
1.40917e-06
1.41251e-06
1.28004e-06
1.44762e-06
1.40893e-06
1.41486e-06
1.28157e-06
1.45049e-06
1.40156e-06
1.4118e-06
1.28684e-06
1.4521e-06
1.4106e-06
1.41667e-06
1.28275e-06
1.44843e-06
1.40592e-06
1.41378e-06
1.28479e-06
1.4451e-06
1.40999e-06
1.41777e-06
1.28403e-06
1.44591e-06
1.41611e-06
1.41989e-06
1.287e-06
1.45443e-06
1.40669e-06
1.41884e-06
1.28501e-06
1.45355e-06
1.40968e-06
1.40925e-06
1.28909e-06
1.44876e-06
1.40218e-06
1.40897e-06
1.283e-06
1.44896e-06
1.41072e-06
1.40639e-06
1.28356e-06
1.4111e-06
1.42106e-06
1.42397e-06
1.41976e-06
1.29442e-06
1.29481e-06
1.40234e-06
1.41064e-06
1.39459e-06
1.40909e-06
1.40045e-06
1.40647e-06
1.40732e-06
1.31945e-06
1.30767e-06
1.41449e-06
1.4156e-06
1.41816e-06
1.29668e-06
1.30436e-06
1.30086e-06
1.43299e-06
1.42734e-06
1.41891e-06
1.41952e-06
1.3038e-06
1.29677e-06
1.40431e-06
1.42264e-06
1.40016e-06
1.41924e-06
1.40667e-06
1.40071e-06
1.39834e-06
1.32036e-06
1.30934e-06
1.42563e-06
1.42211e-06
1.41941e-06
1.30171e-06
1.31625e-06
1.28933e-06
1.42676e-06
1.4232e-06
1.42092e-06
1.41879e-06
1.3002e-06
1.29853e-06
1.40998e-06
1.41867e-06
1.40046e-06
1.42232e-06
1.40856e-06
1.40763e-06
1.40344e-06
1.32041e-06
1.30735e-06
1.43181e-06
1.42104e-06
1.42227e-06
1.29463e-06
1.29638e-06
1.28796e-06
1.41902e-06
1.42644e-06
1.41234e-06
1.41817e-06
1.30837e-06
1.28625e-06
1.40447e-06
1.42521e-06
1.40131e-06
1.40827e-06
1.40692e-06
1.40236e-06
1.41045e-06
1.3166e-06
1.29836e-06
1.41868e-06
1.4109e-06
1.40794e-06
1.29578e-06
1.30027e-06
1.28977e-06
1.41977e-06
1.42133e-06
1.41318e-06
1.42421e-06
1.28991e-06
1.29412e-06
1.4042e-06
1.41223e-06
1.40106e-06
1.41163e-06
1.40906e-06
1.40092e-06
1.40268e-06
1.31761e-06
1.30915e-06
1.41644e-06
1.41156e-06
1.41982e-06
1.28774e-06
1.2946e-06
1.27934e-06
1.41842e-06
1.42866e-06
1.40828e-06
1.4333e-06
1.31106e-06
1.30275e-06
1.41452e-06
1.41416e-06
1.39692e-06
1.40645e-06
1.41199e-06
1.4126e-06
1.40041e-06
1.30802e-06
1.30293e-06
1.4272e-06
1.40699e-06
1.41779e-06
1.29928e-06
1.29471e-06
1.2835e-06
1.41163e-06
1.43268e-06
1.41397e-06
1.43316e-06
1.30678e-06
1.28713e-06
1.40025e-06
1.4303e-06
1.39617e-06
1.40922e-06
1.40276e-06
1.40993e-06
1.3992e-06
1.30022e-06
1.29638e-06
1.41913e-06
1.41708e-06
1.41916e-06
1.28975e-06
1.29794e-06
1.29023e-06
1.4109e-06
1.43823e-06
1.4097e-06
1.42425e-06
1.30059e-06
1.28984e-06
1.40349e-06
1.41575e-06
1.39615e-06
1.40505e-06
1.40161e-06
1.40571e-06
1.39511e-06
1.31231e-06
1.2926e-06
1.42774e-06
1.41415e-06
1.41593e-06
1.28523e-06
1.30021e-06
1.27635e-06
1.41918e-06
1.42603e-06
1.40946e-06
1.42702e-06
1.3061e-06
1.28789e-06
1.40899e-06
1.41822e-06
1.39378e-06
1.4112e-06
1.40415e-06
1.41216e-06
1.39368e-06
1.30596e-06
1.29205e-06
1.42012e-06
1.42378e-06
1.41689e-06
1.28554e-06
1.28927e-06
1.28162e-06
1.41486e-06
1.43434e-06
1.40802e-06
1.41989e-06
1.29874e-06
1.28996e-06
1.39727e-06
1.40763e-06
1.39551e-06
1.40915e-06
1.40531e-06
1.40609e-06
1.39985e-06
1.30187e-06
1.30914e-06
1.42107e-06
1.42291e-06
1.42657e-06
1.28908e-06
1.29554e-06
1.28766e-06
1.41116e-06
1.43165e-06
1.41703e-06
1.43738e-06
1.30292e-06
1.29876e-06
1.3964e-06
1.42217e-06
1.39152e-06
1.40843e-06
1.39987e-06
1.41052e-06
1.39632e-06
1.3133e-06
1.30543e-06
1.43622e-06
1.41338e-06
1.41646e-06
1.28634e-06
1.2984e-06
1.27915e-06
1.41474e-06
1.43963e-06
1.40818e-06
1.43026e-06
1.30912e-06
1.30568e-06
1.39805e-06
1.41463e-06
1.39548e-06
1.40577e-06
1.40334e-06
1.41625e-06
1.40124e-06
1.30898e-06
1.29698e-06
1.41879e-06
1.42204e-06
1.41398e-06
1.29399e-06
1.28595e-06
1.27869e-06
1.4126e-06
1.43976e-06
1.41485e-06
1.42045e-06
1.31484e-06
1.28949e-06
1.40034e-06
1.41798e-06
1.39994e-06
1.41357e-06
1.40361e-06
1.40912e-06
1.39568e-06
1.32459e-06
1.29659e-06
1.42357e-06
1.41828e-06
1.41101e-06
1.29279e-06
1.28505e-06
1.28348e-06
1.41214e-06
1.42211e-06
1.41391e-06
1.41466e-06
1.30383e-06
1.29494e-06
1.40432e-06
1.41605e-06
1.4001e-06
1.40745e-06
1.40182e-06
1.40372e-06
1.39885e-06
1.30263e-06
1.29543e-06
1.42405e-06
1.41744e-06
1.41753e-06
1.30025e-06
1.29339e-06
1.29097e-06
1.42134e-06
1.41913e-06
1.41236e-06
1.4118e-06
1.31525e-06
1.28395e-06
1.40534e-06
1.41173e-06
1.40134e-06
1.40851e-06
1.40297e-06
1.40623e-06
1.40595e-06
1.30155e-06
1.29191e-06
1.41357e-06
1.41764e-06
1.41286e-06
1.29416e-06
1.29107e-06
1.29071e-06
1.41452e-06
1.41881e-06
1.41506e-06
1.41502e-06
1.30981e-06
1.28961e-06
1.40162e-06
1.41205e-06
1.39865e-06
1.40408e-06
1.41451e-06
1.41291e-06
1.39355e-06
1.31235e-06
1.29239e-06
1.43154e-06
1.41211e-06
1.41285e-06
1.29423e-06
1.31172e-06
1.41723e-06
1.42397e-06
1.29738e-06
1.40069e-06
1.40899e-06
1.40063e-06
1.40132e-06
1.30791e-06
1.41541e-06
1.41294e-06
1.29151e-06
2.15827e-07
3.87713e-08
2.14576e-07
3.7663e-08
1.73734e-08
1.71476e-08
2.00452e-07
3.72859e-08
2.00775e-07
3.59054e-08
1.45199e-06
1.43903e-06
1.46514e-06
1.45211e-06
1.44773e-06
1.44708e-06
1.45289e-06
7.17287e-07
2.4177e-07
1.49118e-06
1.41229e-06
2.44401e-07
1.48131e-06
7.14115e-07
1.75092e-08
1.6987e-08
7.55301e-07
1.50057e-06
2.53567e-07
1.41466e-06
1.50111e-06
2.47515e-07
7.34747e-07
8.61575e-08
8.63412e-08
1.2994e-06
8.45148e-08
8.60329e-08
2.14632e-07
3.7418e-08
2.17769e-07
3.76045e-08
1.70475e-08
1.71281e-08
1.95419e-07
3.55124e-08
1.98514e-07
3.58475e-08
1.45409e-06
1.44205e-06
1.43586e-06
1.45212e-06
1.45838e-06
1.45645e-06
1.44762e-06
7.01577e-07
2.38749e-07
1.48312e-06
1.40578e-06
7.05035e-07
2.38077e-07
1.48343e-06
1.69855e-08
1.69436e-08
7.46171e-07
1.5001e-06
2.46195e-07
1.41674e-06
7.50268e-07
1.49834e-06
2.48329e-07
8.39815e-08
8.7253e-08
1.28979e-06
8.33121e-08
8.58684e-08
2.15531e-07
3.73585e-08
2.12736e-07
3.7037e-08
1.73243e-08
1.72227e-08
1.9866e-07
3.57689e-08
1.94888e-07
3.58048e-08
1.45224e-06
1.45344e-06
1.44143e-06
1.44259e-06
1.45249e-06
1.45686e-06
1.45596e-06
6.97666e-07
2.36213e-07
1.48315e-06
1.40556e-06
6.91817e-07
2.31719e-07
1.48398e-06
1.68247e-08
1.69046e-08
7.43601e-07
1.49595e-06
2.42784e-07
1.42568e-06
7.36089e-07
1.49605e-06
2.46382e-07
8.35275e-08
8.67067e-08
1.28782e-06
8.39881e-08
8.83512e-08
2.13396e-07
3.62924e-08
2.11826e-07
3.68037e-08
1.737e-08
1.7231e-08
1.97759e-07
3.55854e-08
1.98629e-07
3.54591e-08
1.44497e-06
1.45214e-06
1.43611e-06
1.44768e-06
1.45612e-06
1.46469e-06
1.45795e-06
7.1065e-07
2.3505e-07
1.50418e-06
1.41032e-06
6.99426e-07
2.38018e-07
1.49754e-06
1.68038e-08
1.6695e-08
7.26833e-07
1.49949e-06
2.43156e-07
1.42058e-06
7.25231e-07
1.50274e-06
2.46336e-07
8.33037e-08
8.46076e-08
1.2833e-06
8.62264e-08
8.44412e-08
2.13309e-07
3.58919e-08
2.14177e-07
3.60692e-08
1.70384e-08
1.67855e-08
1.97802e-07
3.5308e-08
1.97236e-07
3.58525e-08
1.45363e-06
1.45643e-06
1.43688e-06
1.43358e-06
1.46413e-06
1.45775e-06
1.45819e-06
7.0974e-07
2.3688e-07
1.49236e-06
1.40081e-06
7.10828e-07
2.33979e-07
1.49091e-06
1.64382e-08
1.62722e-08
7.37968e-07
1.49998e-06
2.40992e-07
1.42045e-06
7.24431e-07
1.49767e-06
2.41304e-07
8.48441e-08
8.60074e-08
1.28947e-06
8.36367e-08
8.66761e-08
2.1199e-07
3.55556e-08
2.11877e-07
3.59298e-08
1.67954e-08
1.68586e-08
1.98144e-07
3.61432e-08
1.97005e-07
3.63342e-08
1.46005e-06
1.43703e-06
1.44833e-06
1.44196e-06
1.46214e-06
1.44852e-06
1.44932e-06
7.17181e-07
2.37373e-07
1.49682e-06
1.42264e-06
7.09426e-07
2.36406e-07
1.49701e-06
1.62154e-08
1.64639e-08
7.33489e-07
1.50213e-06
2.42586e-07
1.42265e-06
7.36626e-07
1.50098e-06
2.416e-07
8.39611e-08
8.50408e-08
1.29485e-06
8.61868e-08
8.55326e-08
2.12563e-07
3.5786e-08
2.1172e-07
3.5783e-08
1.66222e-08
1.65688e-08
1.95496e-07
3.52704e-08
1.97718e-07
3.54873e-08
1.45758e-06
1.44992e-06
1.449e-06
1.44507e-06
1.47487e-06
1.45487e-06
1.45612e-06
7.04781e-07
2.36098e-07
1.49928e-06
1.41386e-06
7.1238e-07
2.36772e-07
1.49811e-06
1.61936e-08
1.60974e-08
7.44128e-07
1.50001e-06
2.43538e-07
1.41781e-06
7.34826e-07
1.5087e-06
2.40498e-07
8.50895e-08
8.56765e-08
1.28123e-06
8.51634e-08
8.67088e-08
2.14368e-07
3.59737e-08
2.16331e-07
3.65807e-08
1.69232e-08
1.68153e-08
1.94613e-07
3.49544e-08
1.95153e-07
3.5443e-08
1.46101e-06
1.44863e-06
1.44485e-06
1.44395e-06
1.45967e-06
1.45599e-06
1.45293e-06
7.00263e-07
2.38882e-07
1.50791e-06
1.42248e-06
6.95667e-07
2.35925e-07
1.50025e-06
1.59378e-08
1.60117e-08
7.39094e-07
1.51776e-06
2.38386e-07
1.42216e-06
7.43673e-07
1.5101e-06
2.38218e-07
8.34244e-08
8.53567e-08
1.29067e-06
8.37918e-08
8.70184e-08
2.13259e-07
3.63534e-08
2.13265e-07
3.62585e-08
1.67163e-08
1.67756e-08
1.94513e-07
3.51739e-08
1.90678e-07
3.57924e-08
1.45411e-06
1.44249e-06
1.44508e-06
1.4392e-06
1.4576e-06
1.45573e-06
1.46415e-06
7.0714e-07
2.32609e-07
1.50413e-06
1.40801e-06
7.09611e-07
2.3507e-07
1.49411e-06
1.60563e-08
1.62467e-08
7.34752e-07
1.51026e-06
2.3718e-07
1.42266e-06
7.31278e-07
1.50864e-06
2.37202e-07
8.3286e-08
8.3829e-08
1.28247e-06
8.33233e-08
8.52389e-08
2.12149e-07
3.59729e-08
2.1093e-07
3.61522e-08
1.67403e-08
1.67612e-08
1.92175e-07
3.55868e-08
1.92797e-07
3.57543e-08
1.45512e-06
1.4519e-06
1.43865e-06
1.44235e-06
1.46154e-06
1.44852e-06
1.44954e-06
7.11581e-07
2.39482e-07
1.50234e-06
1.40579e-06
7.14588e-07
2.38576e-07
1.49997e-06
1.63692e-08
1.63736e-08
7.38232e-07
1.51476e-06
2.4056e-07
1.42288e-06
7.31845e-07
1.51353e-06
2.42446e-07
8.26235e-08
8.47273e-08
1.28416e-06
8.35073e-08
8.49792e-08
2.0899e-07
3.62156e-08
2.09106e-07
3.56123e-08
1.66688e-08
1.69319e-08
1.96051e-07
3.58748e-08
1.93296e-07
3.60471e-08
1.45528e-06
1.44224e-06
1.43628e-06
1.44438e-06
1.47244e-06
1.44965e-06
1.45119e-06
7.19219e-07
2.38074e-07
1.49562e-06
1.41651e-06
7.054e-07
2.36145e-07
1.49392e-06
1.64481e-08
1.66704e-08
7.39106e-07
1.51181e-06
2.39093e-07
1.4152e-06
7.38609e-07
1.51335e-06
2.40449e-07
8.31881e-08
8.48883e-08
1.28522e-06
8.37883e-08
8.58428e-08
2.08756e-07
3.55186e-08
2.09684e-07
3.53676e-08
1.69305e-08
1.7039e-08
1.98432e-07
3.5114e-08
1.93852e-07
3.51857e-08
1.45236e-06
1.44798e-06
1.43889e-06
1.45515e-06
1.45764e-06
1.45124e-06
1.44837e-06
7.0419e-07
2.36485e-07
1.49722e-06
1.42597e-06
7.01254e-07
2.36638e-07
1.50078e-06
1.66077e-08
1.6528e-08
7.47069e-07
1.50682e-06
2.37871e-07
1.42441e-06
7.33698e-07
1.51079e-06
2.38376e-07
8.47534e-08
8.4212e-08
1.2903e-06
8.49368e-08
8.54339e-08
2.06662e-07
3.48907e-08
2.05332e-07
3.49854e-08
1.68168e-08
1.68517e-08
2.02906e-07
3.555e-08
2.06547e-07
3.50587e-08
1.44452e-06
1.4413e-06
1.43315e-06
1.44118e-06
1.46721e-06
1.46156e-06
1.44791e-06
7.00095e-07
2.35198e-07
1.5025e-06
1.42426e-06
7.00133e-07
2.38342e-07
1.50808e-06
1.63589e-08
1.64795e-08
7.42006e-07
1.50742e-06
2.40634e-07
1.42426e-06
7.37746e-07
1.50454e-06
2.40281e-07
8.43105e-08
8.46147e-08
1.29671e-06
8.49242e-08
8.51019e-08
2.09588e-07
3.54024e-08
2.05555e-07
3.60286e-08
1.63488e-08
1.64659e-08
1.98332e-07
3.47217e-08
2.02191e-07
3.48151e-08
1.4519e-06
1.4419e-06
1.43482e-06
1.43903e-06
1.45007e-06
1.45085e-06
1.46439e-06
7.09851e-07
2.34673e-07
1.49632e-06
1.41264e-06
7.05954e-07
2.33574e-07
1.49373e-06
1.6438e-08
1.65836e-08
7.32615e-07
1.50294e-06
2.38913e-07
1.41546e-06
7.28288e-07
1.50165e-06
2.40685e-07
8.27179e-08
8.5969e-08
1.29737e-06
8.30682e-08
8.55818e-08
2.13636e-07
3.63448e-08
2.16188e-07
3.64065e-08
1.63479e-08
1.63088e-08
2.01214e-07
3.51741e-08
1.99441e-07
3.5158e-08
1.44225e-06
1.4452e-06
1.43955e-06
1.45682e-06
1.45195e-06
1.45064e-06
1.46193e-06
7.06213e-07
2.31601e-07
1.49744e-06
1.41255e-06
7.05916e-07
2.34015e-07
1.50667e-06
1.62985e-08
1.64169e-08
7.38594e-07
1.50138e-06
2.39403e-07
1.41955e-06
7.312e-07
1.49885e-06
2.44367e-07
8.30988e-08
8.41458e-08
1.29231e-06
8.33069e-08
8.44645e-08
2.16032e-07
3.63545e-08
2.13758e-07
3.63504e-08
1.6198e-08
1.63287e-08
2.00113e-07
3.54144e-08
2.0273e-07
3.5465e-08
1.4413e-06
1.45329e-06
1.44205e-06
1.44735e-06
1.45072e-06
1.45371e-06
1.45622e-06
7.16924e-07
2.3587e-07
1.50121e-06
1.41562e-06
7.10083e-07
2.34752e-07
1.49937e-06
1.62543e-08
1.63777e-08
7.2763e-07
1.51032e-06
2.41298e-07
1.42051e-06
7.25308e-07
1.50739e-06
2.44451e-07
8.42985e-08
8.49885e-08
1.28897e-06
8.53935e-08
8.47901e-08
2.14542e-07
3.63097e-08
2.15274e-07
3.63778e-08
1.63192e-08
1.64394e-08
1.95032e-07
3.5066e-08
1.98154e-07
3.55897e-08
1.44808e-06
1.43709e-06
1.45426e-06
1.448e-06
7.16612e-07
2.34738e-07
1.50156e-06
1.41405e-06
7.09416e-07
2.36103e-07
1.50183e-06
1.66677e-08
1.66171e-08
7.33639e-07
1.50981e-06
2.36123e-07
1.411e-06
7.21168e-07
1.50018e-06
2.35209e-07
8.26994e-08
8.48765e-08
1.29236e-06
8.33159e-08
8.51635e-08
2.17885e-07
3.85087e-08
3.85972e-08
2.18167e-07
7.51695e-07
2.69822e-07
1.50381e-06
1.42006e-06
1.4924e-06
7.51631e-07
2.60178e-07
7.60045e-07
2.55141e-07
1.50272e-06
1.4298e-06
2.55602e-07
1.49767e-06
7.59183e-07
2.20238e-07
3.77589e-08
2.2512e-07
3.87165e-08
2.24522e-07
3.86694e-08
3.95059e-08
2.22232e-07
7.83535e-07
1.42565e-06
2.53467e-07
1.50202e-06
1.49539e-06
7.58235e-07
2.66996e-07
7.89941e-07
1.42517e-06
2.55094e-07
1.4971e-06
2.62156e-07
1.49534e-06
7.66646e-07
9.14071e-08
8.90117e-08
1.30089e-06
9.08545e-08
8.76741e-08
1.64708e-08
1.65669e-08
1.72491e-08
1.72775e-08
1.3121e-06
8.98769e-08
8.73992e-08
9.28723e-08
9.00463e-08
1.64477e-08
1.66329e-08
7.10152e-07
2.50401e-07
1.48732e-06
1.40653e-06
1.48016e-06
7.30405e-07
2.40567e-07
2.00668e-07
3.90594e-08
3.7813e-08
2.02596e-07
7.17238e-07
1.48741e-06
2.56354e-07
1.41786e-06
1.47933e-06
2.49934e-07
7.19361e-07
2.08454e-07
3.57046e-08
1.99115e-07
3.70942e-08
7.29256e-07
1.39605e-06
2.41116e-07
1.48134e-06
1.48164e-06
7.10445e-07
2.50595e-07
2.08372e-07
3.75819e-08
3.82494e-08
2.0337e-07
7.21866e-07
1.41734e-06
1.48331e-06
2.5081e-07
1.48161e-06
2.53819e-07
7.07815e-07
2.05969e-07
3.59654e-08
3.61727e-08
2.03793e-07
7.2813e-07
1.48778e-06
2.32409e-07
1.40849e-06
1.48462e-06
2.37526e-07
7.17074e-07
2.06589e-07
3.47284e-08
3.47209e-08
2.04878e-07
7.39027e-07
1.40329e-06
2.40661e-07
1.48268e-06
2.50898e-07
1.48137e-06
7.10745e-07
2.1701e-07
3.63353e-08
3.75047e-08
2.02336e-07
7.37363e-07
1.4026e-06
1.49991e-06
2.34976e-07
1.4888e-06
2.44239e-07
7.18995e-07
2.16821e-07
3.5043e-08
3.66476e-08
2.05894e-07
9.23171e-08
9.28147e-08
1.30492e-06
8.92271e-08
8.96622e-08
1.66735e-08
1.651e-08
1.70709e-08
1.74325e-08
1.31323e-06
8.91571e-08
9.12964e-08
9.45839e-08
9.39414e-08
1.67233e-08
1.67923e-08
7.48556e-07
1.50295e-06
2.47094e-07
1.42457e-06
1.50006e-06
2.46452e-07
7.50753e-07
2.10981e-07
3.70652e-08
3.62583e-08
2.09197e-07
2.10848e-07
3.69181e-08
3.68592e-08
2.11709e-07
7.73759e-07
1.41114e-06
1.49605e-06
2.48357e-07
1.4941e-06
2.57622e-07
7.50689e-07
7.73432e-07
1.41709e-06
1.50285e-06
2.47159e-07
1.49618e-06
2.6227e-07
7.4814e-07
2.22432e-07
3.67654e-08
3.7103e-08
2.12025e-07
2.14807e-07
3.71539e-08
3.78601e-08
2.1414e-07
1.59309e-08
1.58389e-08
1.63959e-08
1.63484e-08
1.30294e-06
8.43362e-08
8.80441e-08
8.69687e-08
8.92456e-08
1.59047e-08
1.6316e-08
1.63983e-08
1.67222e-08
1.74055e-08
1.72688e-08
1.64836e-08
1.64181e-08
9.74482e-08
8.79712e-08
1.3002e-06
9.37608e-08
8.65912e-08
1.72745e-08
1.7495e-08
1.67133e-08
1.67464e-08
1.31504e-06
9.26649e-08
8.71639e-08
9.91746e-08
8.98348e-08
2.2003e-07
3.92426e-08
2.24396e-07
3.82457e-08
7.47833e-07
2.60656e-07
1.49654e-06
1.42691e-06
7.7226e-07
2.577e-07
1.49518e-06
7.50731e-07
2.59678e-07
1.49775e-06
1.42918e-06
7.54838e-07
2.57016e-07
1.49493e-06
2.25766e-07
3.79168e-08
3.85205e-08
2.18624e-07
2.2284e-07
3.77033e-08
3.93483e-08
2.14167e-07
7.54911e-07
1.42325e-06
2.53187e-07
1.496e-06
2.69766e-07
1.5013e-06
7.45843e-07
7.68503e-07
1.42125e-06
2.57001e-07
1.50481e-06
2.65122e-07
1.49965e-06
7.42308e-07
9.71635e-08
9.16397e-08
1.29549e-06
9.08505e-08
8.64005e-08
1.71443e-08
1.65479e-08
1.75168e-08
1.75755e-08
1.30154e-06
9.50416e-08
8.62621e-08
9.47504e-08
8.83267e-08
1.65588e-08
1.69435e-08
7.0295e-07
2.52163e-07
1.48531e-06
1.40948e-06
7.22047e-07
2.37901e-07
1.48319e-06
2.015e-07
3.86313e-08
2.06264e-07
3.74404e-08
7.05321e-07
1.48974e-06
2.57093e-07
1.42221e-06
7.25657e-07
1.48822e-06
2.46703e-07
2.01686e-07
3.69001e-08
3.68322e-08
2.02467e-07
7.15837e-07
1.40219e-06
2.38714e-07
1.48333e-06
2.47334e-07
1.48166e-06
7.02171e-07
2.02707e-07
3.70892e-08
3.80572e-08
1.9855e-07
7.34348e-07
1.41288e-06
1.48916e-06
2.47557e-07
1.48894e-06
2.56884e-07
7.02992e-07
1.99986e-07
3.6616e-08
2.02861e-07
3.56606e-08
7.06519e-07
1.49238e-06
2.45653e-07
1.40857e-06
7.24965e-07
1.49005e-06
2.35542e-07
2.01864e-07
3.58742e-08
2.12585e-07
3.5242e-08
7.31909e-07
1.40596e-06
2.37247e-07
1.49116e-06
2.42904e-07
1.4877e-06
6.94603e-07
2.0671e-07
3.53707e-08
3.6716e-08
1.9583e-07
7.21884e-07
1.39818e-06
1.49372e-06
2.35554e-07
1.48985e-06
2.4434e-07
7.0185e-07
2.05592e-07
3.51605e-08
3.61347e-08
1.98638e-07
9.34529e-08
9.21091e-08
1.31649e-06
8.91707e-08
8.90863e-08
1.69174e-08
1.64652e-08
1.7261e-08
1.72542e-08
1.32945e-06
8.93788e-08
8.8556e-08
9.10881e-08
9.33579e-08
1.66537e-08
1.66845e-08
7.48022e-07
1.49873e-06
2.517e-07
1.41785e-06
7.66789e-07
1.49532e-06
2.46075e-07
2.16052e-07
3.71952e-08
2.16345e-07
3.65965e-08
2.16117e-07
3.7764e-08
2.17836e-07
3.62398e-08
7.62732e-07
1.41653e-06
1.50185e-06
2.50641e-07
1.49854e-06
2.48781e-07
7.42266e-07
7.60363e-07
1.42085e-06
1.51047e-06
2.44228e-07
1.49694e-06
2.48904e-07
7.41784e-07
2.29082e-07
3.6209e-08
3.74504e-08
2.18122e-07
2.25414e-07
3.66581e-08
3.76099e-08
2.13851e-07
1.63894e-08
1.61623e-08
1.66736e-08
1.63608e-08
1.29497e-06
8.27504e-08
8.7666e-08
8.80936e-08
8.793e-08
1.61538e-08
1.58443e-08
1.64275e-08
1.6569e-08
1.73635e-08
1.69985e-08
1.6564e-08
1.63381e-08
9.37513e-08
8.94767e-08
1.30423e-06
9.16382e-08
8.56291e-08
1.67366e-08
1.71703e-08
1.62841e-08
1.65817e-08
1.31393e-06
9.02997e-08
8.59619e-08
9.59803e-08
8.82875e-08
2.13953e-07
3.87204e-08
2.22588e-07
3.8039e-08
7.53139e-07
2.66271e-07
1.49559e-06
1.43408e-06
7.69853e-07
2.51036e-07
1.49659e-06
7.43101e-07
2.68506e-07
1.49515e-06
1.41943e-06
7.48575e-07
2.56072e-07
1.50199e-06
2.20774e-07
3.69872e-08
3.76497e-08
2.20381e-07
2.21945e-07
3.82732e-08
3.93286e-08
2.17561e-07
7.61018e-07
1.42702e-06
2.52028e-07
1.49732e-06
2.56401e-07
1.49802e-06
7.45395e-07
7.72453e-07
1.42426e-06
2.52571e-07
1.4978e-06
2.6329e-07
1.49743e-06
7.44547e-07
9.83588e-08
9.05671e-08
1.29193e-06
9.24519e-08
8.5812e-08
1.6639e-08
1.62088e-08
1.73435e-08
1.74593e-08
1.30336e-06
9.20895e-08
8.56824e-08
9.55382e-08
8.70591e-08
1.60093e-08
1.6379e-08
6.98247e-07
2.4038e-07
1.48298e-06
1.40767e-06
7.0903e-07
2.37233e-07
1.48249e-06
2.00328e-07
3.77527e-08
2.03401e-07
3.65799e-08
6.99548e-07
1.48618e-06
2.51944e-07
1.43466e-06
7.22901e-07
1.48491e-06
2.43545e-07
2.08592e-07
3.57957e-08
3.70772e-08
1.99991e-07
7.19746e-07
1.41068e-06
2.36222e-07
1.48421e-06
2.4885e-07
1.48233e-06
7.10777e-07
2.09799e-07
3.65398e-08
3.76638e-08
2.0069e-07
7.13727e-07
1.42296e-06
1.48535e-06
2.40174e-07
1.48385e-06
2.56011e-07
7.02805e-07
1.98187e-07
3.61176e-08
2.00683e-07
3.53412e-08
7.06286e-07
1.49384e-06
2.38828e-07
1.41303e-06
7.27105e-07
1.48657e-06
2.32548e-07
1.99718e-07
3.57143e-08
2.05254e-07
3.49458e-08
7.15025e-07
1.40599e-06
2.38153e-07
1.49526e-06
2.48456e-07
1.48489e-06
7.07603e-07
2.02993e-07
3.49436e-08
3.64897e-08
1.98101e-07
7.28878e-07
1.40236e-06
1.48767e-06
2.33849e-07
1.48725e-06
2.45732e-07
7.08832e-07
2.06768e-07
3.52651e-08
3.58556e-08
1.99573e-07
9.25507e-08
9.07555e-08
1.30721e-06
8.88494e-08
9.06071e-08
1.67842e-08
1.66761e-08
1.698e-08
1.70074e-08
1.31538e-06
8.83764e-08
9.10308e-08
9.19333e-08
9.16523e-08
1.67352e-08
1.66944e-08
7.3326e-07
1.50463e-06
2.5263e-07
1.41526e-06
7.43263e-07
1.50923e-06
2.43222e-07
2.12013e-07
3.6949e-08
2.2703e-07
3.55107e-08
2.13897e-07
3.75207e-08
2.20169e-07
3.61453e-08
7.57815e-07
1.42913e-06
1.50337e-06
2.48994e-07
1.4959e-06
2.48613e-07
7.34981e-07
7.45783e-07
1.41356e-06
1.50709e-06
2.41663e-07
1.50811e-06
2.55382e-07
7.32013e-07
2.17462e-07
3.55038e-08
3.6937e-08
2.14467e-07
2.18548e-07
3.55457e-08
3.74854e-08
2.08389e-07
1.59254e-08
1.59137e-08
1.67664e-08
1.64896e-08
1.30147e-06
8.33766e-08
8.78573e-08
8.75536e-08
8.96348e-08
1.61668e-08
1.62445e-08
1.61264e-08
1.65617e-08
1.6824e-08
1.65925e-08
1.66252e-08
1.64351e-08
9.52814e-08
8.70343e-08
1.28996e-06
8.8865e-08
8.4815e-08
1.65061e-08
1.69972e-08
1.66459e-08
1.67162e-08
1.30054e-06
8.95791e-08
8.88564e-08
9.17539e-08
8.86203e-08
2.1593e-07
3.9287e-08
2.2117e-07
3.82428e-08
7.48065e-07
2.5926e-07
1.49388e-06
1.41387e-06
7.6831e-07
2.49106e-07
1.50127e-06
7.514e-07
2.65303e-07
1.49823e-06
1.43147e-06
7.70266e-07
2.57646e-07
1.49599e-06
2.18977e-07
3.62081e-08
3.76927e-08
2.17507e-07
2.213e-07
3.7806e-08
3.90028e-08
2.14817e-07
7.63577e-07
1.42161e-06
2.49052e-07
1.49822e-06
2.60281e-07
1.49442e-06
7.40738e-07
7.61254e-07
1.42394e-06
2.55951e-07
1.49829e-06
2.64811e-07
1.49699e-06
7.42983e-07
9.45699e-08
8.70453e-08
1.28916e-06
9.19313e-08
8.41217e-08
1.6455e-08
1.61247e-08
1.72042e-08
1.7293e-08
1.30551e-06
9.15947e-08
8.47115e-08
9.16605e-08
8.74115e-08
1.63278e-08
1.61866e-08
7.0024e-07
2.4065e-07
1.49237e-06
1.40774e-06
7.0435e-07
2.35351e-07
1.48524e-06
1.99821e-07
3.76323e-08
2.12892e-07
3.63737e-08
7.05029e-07
1.48526e-06
2.53585e-07
1.42252e-06
7.17e-07
1.49659e-06
2.42112e-07
2.00798e-07
3.55754e-08
3.66264e-08
1.99959e-07
7.14919e-07
1.40583e-06
2.38934e-07
1.49373e-06
2.39035e-07
1.48708e-06
7.07278e-07
2.1249e-07
3.62583e-08
3.80384e-08
2.00754e-07
7.30542e-07
1.413e-06
1.49246e-06
2.46049e-07
1.49093e-06
2.44798e-07
6.99613e-07
2.03588e-07
3.57899e-08
2.04959e-07
3.53677e-08
7.01394e-07
1.48888e-06
2.46716e-07
1.4013e-06
7.25945e-07
1.49487e-06
2.35744e-07
2.01649e-07
3.59463e-08
2.06997e-07
3.51835e-08
7.12707e-07
1.40074e-06
2.47233e-07
1.50059e-06
2.47815e-07
1.49863e-06
7.08816e-07
2.07456e-07
3.56912e-08
3.65778e-08
2.01419e-07
7.16363e-07
1.40761e-06
1.4981e-06
2.36828e-07
1.49677e-06
2.39862e-07
7.18828e-07
2.08425e-07
3.4958e-08
3.58753e-08
2.0196e-07
9.17676e-08
9.46389e-08
1.30286e-06
8.82909e-08
8.91572e-08
1.6729e-08
1.63944e-08
1.67747e-08
1.71228e-08
1.31721e-06
8.71222e-08
8.90018e-08
9.14453e-08
9.51086e-08
1.64885e-08
1.6988e-08
7.28861e-07
1.50506e-06
2.41308e-07
1.41553e-06
7.46509e-07
1.49671e-06
2.38569e-07
2.09829e-07
3.64042e-08
2.21171e-07
3.55136e-08
2.09747e-07
3.61573e-08
2.14229e-07
3.55324e-08
7.42493e-07
1.41333e-06
1.49727e-06
2.44567e-07
1.49715e-06
2.55794e-07
7.36568e-07
7.46842e-07
1.40884e-06
1.50627e-06
2.43958e-07
1.50429e-06
2.48851e-07
7.29979e-07
2.12869e-07
3.5672e-08
3.68774e-08
2.11588e-07
2.1383e-07
3.58317e-08
3.70737e-08
2.08327e-07
1.61423e-08
1.59514e-08
1.65741e-08
1.61583e-08
1.29248e-06
8.69685e-08
8.71485e-08
8.90278e-08
8.82271e-08
1.60965e-08
1.62957e-08
1.64585e-08
1.61911e-08
1.69875e-08
1.66701e-08
1.662e-08
1.64034e-08
9.3696e-08
8.92641e-08
1.28493e-06
8.85413e-08
8.79354e-08
1.64079e-08
1.68527e-08
1.62531e-08
1.66166e-08
1.2914e-06
8.7493e-08
8.53355e-08
9.00666e-08
9.22411e-08
2.16721e-07
3.89588e-08
2.19692e-07
3.76489e-08
7.45499e-07
2.51039e-07
1.49779e-06
1.42098e-06
7.50252e-07
2.48125e-07
1.50003e-06
7.53731e-07
2.65907e-07
1.5048e-06
1.4293e-06
7.57334e-07
2.50757e-07
1.50042e-06
2.23133e-07
3.61192e-08
3.73621e-08
2.14108e-07
2.28475e-07
3.71227e-08
3.76107e-08
2.15378e-07
7.65239e-07
1.42559e-06
2.4349e-07
1.50473e-06
2.48584e-07
1.49895e-06
7.48159e-07
7.64044e-07
1.43926e-06
2.50406e-07
1.50728e-06
2.51632e-07
1.50108e-06
7.44125e-07
9.33061e-08
8.83614e-08
1.28473e-06
8.83986e-08
8.46517e-08
1.63494e-08
1.61459e-08
1.68921e-08
1.7169e-08
1.29467e-06
8.82514e-08
8.54746e-08
9.1058e-08
8.75829e-08
1.62814e-08
1.64062e-08
7.00481e-07
2.50112e-07
1.49542e-06
1.40135e-06
7.07379e-07
2.37014e-07
1.49695e-06
2.00742e-07
3.66696e-08
2.06216e-07
3.60574e-08
6.97196e-07
1.50071e-06
2.42566e-07
1.41047e-06
7.07616e-07
1.4949e-06
2.36515e-07
2.04771e-07
3.58959e-08
3.61346e-08
1.98632e-07
7.10851e-07
1.40074e-06
2.36299e-07
1.48854e-06
2.51092e-07
1.48885e-06
6.98055e-07
2.07857e-07
3.57955e-08
3.76617e-08
2.01291e-07
7.15964e-07
1.41323e-06
1.49004e-06
2.36945e-07
1.49712e-06
2.48292e-07
7.00204e-07
2.06927e-07
3.6615e-08
2.10556e-07
3.54686e-08
7.24056e-07
1.49978e-06
2.45893e-07
1.40456e-06
7.37674e-07
1.49208e-06
2.34615e-07
2.0551e-07
3.57895e-08
2.11507e-07
3.54643e-08
7.29099e-07
1.399e-06
2.38985e-07
1.49502e-06
2.4628e-07
1.48978e-06
7.12341e-07
2.1061e-07
3.5543e-08
3.61487e-08
2.03605e-07
7.45032e-07
1.40697e-06
1.49817e-06
2.351e-07
1.49118e-06
2.4368e-07
7.13319e-07
2.13299e-07
3.49714e-08
3.63555e-08
2.07754e-07
8.86727e-08
9.2255e-08
1.29355e-06
8.51033e-08
8.94956e-08
1.67308e-08
1.65314e-08
1.65164e-08
1.63967e-08
1.30757e-06
8.58736e-08
9.20786e-08
8.82219e-08
9.34357e-08
1.65197e-08
1.70921e-08
7.36181e-07
1.49897e-06
2.53682e-07
1.41294e-06
7.477e-07
1.49853e-06
2.46189e-07
2.15261e-07
3.60842e-08
2.16254e-07
3.59339e-08
2.15727e-07
3.66689e-08
2.19696e-07
3.61312e-08
7.44561e-07
1.4123e-06
1.50735e-06
2.50515e-07
1.49985e-06
2.52029e-07
7.41533e-07
7.48714e-07
1.41322e-06
1.50268e-06
2.45244e-07
1.50381e-06
2.51516e-07
7.41071e-07
2.21714e-07
3.59124e-08
3.72502e-08
2.15435e-07
2.22432e-07
3.61044e-08
3.75942e-08
2.12184e-07
1.61604e-08
1.58456e-08
1.64545e-08
1.63595e-08
1.29884e-06
8.53648e-08
8.50355e-08
8.76221e-08
9.07153e-08
1.60253e-08
1.61919e-08
1.62151e-08
1.64147e-08
1.68339e-08
1.64232e-08
1.65802e-08
1.6149e-08
9.10587e-08
8.91284e-08
1.28264e-06
8.67893e-08
8.38771e-08
1.62761e-08
1.66271e-08
1.61113e-08
1.66192e-08
1.29715e-06
8.60402e-08
8.46065e-08
9.01836e-08
8.81178e-08
2.11665e-07
3.79965e-08
2.23392e-07
3.74567e-08
7.42453e-07
2.56356e-07
1.50666e-06
1.41132e-06
7.7291e-07
2.43266e-07
1.50081e-06
7.54001e-07
2.63803e-07
1.51528e-06
1.42811e-06
7.60764e-07
2.50649e-07
1.50992e-06
2.16565e-07
3.60844e-08
3.66287e-08
2.18057e-07