/*--------------------------------*- C++ -*----------------------------------*\
| =========                 |                                                 |
| \\      /  F ield         | OpenFOAM: The Open Source CFD Toolbox           |
|  \\    /   O peration     | Version:  2206                                  |
|   \\  /    A nd           | Website:  www.openfoam.com                      |
|    \\/     M anipulation  |                                                 |
\*---------------------------------------------------------------------------*/
FoamFile
{
    version     2.0;
    format      ascii;
    arch        "LSB;label=32;scalar=64";
    class       volScalarField;
    location    "20";
    object      omega;
}
// * * * * * * * * * * * * * * * * * * * * * * * * * * * * * * * * * * * * * //

dimensions      [0 0 -1 0 0 0 0];

internalField   nonuniform List<scalar> 
66928
(
22.4596
20.6783
20.8289
20.7106
22.388
20.6543
22.3773
22.5367
18.2502
18.1028
387.594
377.624
132.246
135.919
252.377
71.9016
249.35
79.2038
74.4011
19.3548
34.1233
247.216
79.1441
19.3456
73.0328
34.1087
379.891
134.973
132.944
384.842
72.2569
249.871
380.531
388.929
386.932
390.177
128.152
132.508
22.4588
133.806
136.458
389.356
384.148
391.6
386.537
22.3787
133.96
137.6
130.405
133.31
386.029
87.7284
47.5088
128.37
262.63
261.002
46.9763
86.8823
87.2571
48.4043
134.789
264.691
255.875
47.6414
86.0846
186.711
396.829
397.659
395.766
395.44
187.877
250.543
143.366
141.947
408.656
142.588
407.589
90.9984
265.013
296.479
137.74
406.84
268.511
93.0119
291.992
85.8554
47.9591
133.802
262.718
47.7114
260.103
84.0518
86.2744
47.7073
131.316
260.894
258.448
47.2794
87.0556
181.233
395.586
394.658
393.092
392.209
187.08
381.993
247.336
141.888
140.293
406.837
387.624
387.124
388.276
388.41
191.696
398.873
400.167
396.037
398.475
188.691
89.9858
46.5602
257.643
133.439
86.7556
261.266
46.2339
90.8492
47.4277
263.376
134.279
89.7119
265.323
47.9616
187.381
390.456
395.218
188.507
397.105
397.667
88.3686
264.511
130.235
47.6351
262.979
87.3611
46.3329
86.6173
267.332
135.017
48.5604
266.09
90.1951
48.1264
385.879
383.753
386.115
385.807
191.777
393.085
397.256
187.279
398.535
395.799
90.6781
47.8062
132.418
264.717
263.021
47.3712
85.956
91.2293
48.9253
136.027
267.925
266.579
48.3213
89.5618
90.27
259.891
47.0728
131.897
87.2431
262.312
47.4054
88.2167
263.771
47.3525
135.383
88.3543
265.679
48.1525
184.924
398.563
400.332
395.913
396.237
190.324
42.3482
22.2196
28.5204
28.7197
28.4008
28.2137
42.2563
41.6621
22.3123
28.3454
28.3716
28.1906
28.216
41.2048
43.3819
27.646
28.0186
22.3481
42.3535
28.3835
28.7585
43.8638
22.4545
28.6889
29.0438
28.5238
28.7937
43.128
17.6838
17.7171
25.8576
32.9932
71.2744
45.5683
32.7419
45.0639
25.5245
26.5712
33.8836
73.7524
48.0904
33.6747
47.6609
26.3743
23.8459
33.8994
37.4107
23.1447
37.1112
23.079
24.163
26.0455
33.3622
72.2174
47.2018
46.8087
33.2325
25.7124
23.8804
33.8936
23.0471
37.3345
23.0268
37.1077
23.9557
26.2998
33.4529
71.454
46.8493
33.3455
46.6611
25.9813
43.1506
22.2662
27.9155
28.8067
43.4022
27.9723
28.2737
42.7853
22.4197
28.5358
28.408
43.3003
28.1245
28.5333
18.1119
20.8645
20.6661
22.4715
17.9944
20.8891
20.7172
22.6454
18.0273
20.9225
20.5982
22.636
18.0121
20.9391
20.7514
22.7492
18.0166
20.9405
20.7138
22.7513
18.014
20.9025
20.7859
22.7013
18.0168
20.8807
20.7037
22.6955
18.0002
20.8844
20.7654
22.7382
17.969
20.9004
20.7443
22.6951
17.9939
20.9199
20.7157
22.7062
18.0148
20.8926
20.7159
22.6662
18.0318
20.9016
20.7189
22.6976
18.0056
20.8788
20.7425
22.6776
17.9973
20.8975
20.6728
22.7283
17.9772
20.8849
20.7505
22.6844
17.9837
20.8705
20.7365
22.6676
17.9983
20.8893
20.7592
22.6978
20.6911
20.6402
20.7106
20.6438
22.5244
22.4355
20.8546
20.7289
20.8725
20.7972
20.907
20.7881
20.9469
22.1422
22.393
20.6522
20.6373
20.6841
22.5983
22.3427
22.5036
20.6113
20.5947
20.7363
20.6576
22.2626
22.5683
20.7709
20.6965
20.8414
20.6785
20.8381
20.871
20.9735
22.1447
22.4205
20.5611
20.6723
20.743
22.5585
22.3342
22.6224
20.6599
20.6123
20.7497
20.6984
22.4697
22.6444
20.6882
20.7322
20.8766
20.8058
20.8649
20.9425
20.9618
22.2418
22.4828
20.6274
20.6637
20.7044
22.5553
22.5163
22.6589
20.7056
20.6339
20.7704
20.7033
22.4606
22.7357
20.8251
20.7399
20.8979
20.8562
20.8052
20.8732
20.964
22.3058
22.5607
20.7748
20.7705
20.8067
22.556
22.4156
22.7053
20.6943
20.6695
20.8071
20.7093
22.608
22.6389
20.835
20.7876
20.913
20.8914
20.8824
20.8741
20.9289
22.3128
22.5112
20.6952
20.7577
20.7319
22.6736
22.553
22.736
20.6928
20.6485
20.8245
20.666
22.4408
22.5763
20.8314
20.8028
20.9547
20.8755
20.7578
20.8686
20.9387
22.38
22.479
20.5885
20.7855
20.7191
22.4944
22.4822
22.7157
20.7623
20.5661
20.8155
20.6496
22.3726
22.6707
20.9095
20.6988
20.9865
20.9168
20.8962
20.8419
20.967
22.5207
22.5424
20.6124
20.749
20.6834
22.5443
22.4392
22.6622
20.7385
20.5748
20.7767
20.665
22.4246
22.6996
20.9322
20.8609
20.9606
20.9003
20.8989
20.8615
20.9696
22.441
22.5587
20.6177
20.726
20.6845
22.6234
22.5201
22.7549
20.7172
20.5977
20.7994
20.664
22.4694
22.6677
20.803
20.8016
20.9948
20.8654
20.8294
20.8003
20.9854
22.4288
22.5203
20.6154
20.6329
20.6797
22.6293
22.5375
22.7424
20.741
20.5166
20.8164
20.6918
22.4843
22.6365
20.9162
20.8014
20.9696
20.8491
20.8401
20.8703
21.0041
22.322
22.4455
20.6186
20.62
20.6758
22.6002
22.4386
22.7271
20.7498
20.558
20.8426
20.692
22.4597
22.5676
20.8821
20.7399
20.9446
20.8291
20.9397
20.7856
20.957
22.248
22.4763
20.5397
20.6863
20.7297
22.6554
22.5718
22.7121
20.7732
20.5433
20.8161
20.6146
22.4485
22.585
20.865
20.7507
20.9433
20.8446
20.8525
20.8401
20.9428
22.2719
22.5392
20.69
20.7093
20.7167
22.6061
22.5787
22.6884
20.7361
20.5093
20.8278
20.6795
22.3013
22.6871
20.8418
20.664
20.9301
20.8206
20.8739
20.8655
20.9822
22.2411
22.567
20.6455
20.7534
20.7309
22.5474
22.5729
22.6507
20.7775
20.6161
20.7896
20.7304
22.3881
22.5589
20.853
20.6754
20.9027
20.8157
20.8904
20.8574
20.95
22.4391
22.4942
20.6603
20.7508
20.7351
22.6161
22.5011
22.6567
20.7016
20.6428
20.7418
20.7348
22.3682
22.6793
20.8168
20.7515
20.9137
20.8253
20.8798
20.8345
20.9615
22.3594
22.499
20.665
20.6439
20.7499
22.6234
22.5263
22.6988
20.7151
20.6653
20.7688
20.7203
22.3687
22.5978
20.8749
20.7442
20.9278
20.845
20.8247
20.7705
20.983
22.2141
22.5268
20.5861
20.7129
20.7246
22.6207
22.391
20.7074
20.6593
22.4728
20.8624
20.7955
20.9116
20.9785
22.2667
20.6745
20.7221
22.6224
80.849
246.419
80.8454
254.139
387.716
388.954
83.6135
246.899
82.4219
256.416
17.9942
18.0694
18.0002
18.0232
18.0223
17.9877
18.0409
34.0661
74.8761
19.3484
20.7219
74.7344
19.3874
34.321
379.444
390.821
32.8001
19.2601
70.4263
20.6291
19.2954
72.7642
33.0682
139.249
135.034
22.5478
139.563
136.015
80.7532
254.641
80.8616
254.717
389.737
389.06
84.9346
257.987
85.1096
257.54
18.0716
18.0677
18.227
18.0816
18.0214
17.9303
18.0549
34.8049
75.65
19.3794
20.7561
34.5391
76.4039
19.4027
390.908
391.43
33.0147
19.2554
73.8209
20.6506
33.0887
19.2788
74.2001
139.862
137.762
22.6201
139.835
137.26
80.8617
255.07
81.1296
255.116
389.108
389.603
84.5918
257.869
85.3724
258.08
18.0995
18.0004
18.2247
18.0597
18.0197
17.9176
18.0593
34.7322
76.7718
19.3876
20.8346
35.0079
76.8073
19.3878
392.041
391.799
33.4381
19.2166
74.9221
20.6622
33.2667
19.2199
74.9302
140.261
137.4
22.6434
139.29
137.11
80.996
255.884
81.5116
254.904
389.391
389.355
84.2666
258.471
84.5229
258.122
18.1543
17.997
18.1918
18.0501
17.9769
17.8713
17.9986
34.4466
76.2542
19.3375
20.8785
34.5683
76.1869
19.329
391.298
391.657
33.5835
19.1979
74.9643
20.6429
33.754
19.2243
74.5786
140.13
138.046
22.6821
139.295
137.679
81.0179
256.131
80.9362
255.286
389.202
389.73
84.191
258.894
84.7305
258.169
18.0481
18.0308
18.1284
18.1448
17.9239
17.9822
17.934
34.2783
76.3015
19.2931
20.8509
34.4591
76.5743
19.2969
391.499
391.869
33.5208
19.2042
75.1666
20.7423
33.8141
19.2281
74.9574
139.822
137.393
22.6795
139.1
137.374
81.0791
256.172
81.0965
255.296
389.763
389.438
84.2727
258.042
84.7035
257.404
18.0265
18.1068
18.09
18.0636
17.8553
17.9761
17.9202
34.3092
76.3628
19.2776
20.7331
34.2371
76.2184
19.2699
391.987
391.818
33.6084
19.1786
74.3295
20.6936
33.4811
19.2014
74.6105
139.414
138.558
22.6123
138.631
137.553
81.1892
256.06
81.7718
255.58
389.867
389.549
85.1243
258.629
84.8795
257.741
18.006
18.0686
17.9723
18.0506
17.8394
17.9616
17.9311
34.6547
76.3455
19.2553
20.8093
34.6451
76.8515
19.2726
391.335
391.997
33.4189
19.1759
75.2215
20.7482
33.7731
19.2004
74.8065
139.539
138.027
22.6831
139.509
137.374
80.468
255.969
81.144
255.401
389.66
389.764
84.9475
258.848
85.3479
258.024
18.0101
18.0667
18.0884
18.0035
17.8739
17.9673
17.9253
34.7394
76.8227
19.276
20.7689
34.763
76.7384
19.2875
392.209
391.75
33.2482
19.1667
74.9321
20.6607
33.595
19.1594
75.0249
139.802
137.082
22.6806
139.562
137.014
80.3569
255.339
81.0931
255.569
390.245
389.85
84.9418
258.653
85.5997
257.704
17.9408
18.1407
18.088
18.0751
17.8934
17.924
17.9215
34.5561
76.6306
19.2816
20.7901
34.5284
76.4421
19.3068
391.717
391.621
33.4065
19.1396
75.5094
20.5787
33.5338
19.1515
75.2782
139.454
138.487
22.7089
139.291
137.506
81.2078
256.544
81.0873
255.491
389.775
389.916
85.1757
258.113
85.142
258.224
17.9478
17.9871
18.0937
18.056
17.8655
17.9558
17.9337
34.3705
76.1307
19.2948
20.8741
34.429
76.2557
19.3154
391.413
391.913
33.3219
19.1124
74.9331
20.6538
33.5088
19.1325
74.9713
140.123
138.12
22.6665
139.119
137.832
81.6788
255.71
82.1575
255.749
389.96
389.488
84.7803
257.952
84.8492
257.929
17.9355
18.0157
18.0932
18.0812
17.8664
17.9493
17.9129
34.2273
76.4969
19.2787
20.7133
34.4326
76.389
19.285
392.144
391.515
33.3423
19.1119
75.4381
20.6791
33.1498
19.1143
75.2946
139.759
138.468
22.6648
138.906
137.393
81.7914
255.57
81.9376
255.765
390.012
389.534
84.4673
258.892
85.3446
257.972
17.9782
17.9889
18.0903
18.0431
17.9152
17.9305
17.9223
34.6353
76.4025
19.2799
20.7751
34.6735
76.3021
19.2894
392.123
392.017
33.1911
19.1006
75.4121
20.5938
33.4671
19.1351
75.0767
138.987
138.254
22.6535
139.086
137.196
81.5868
257.347
82.1086
256.352
389.918
389.942
84.3039
258.016
84.3406
257.926
18.1165
18.0923
18.1051
18.0512
17.8947
17.9505
17.9574
34.5989
77.1808
19.2903
20.7733
34.7478
77.1767
19.3073
392.638
392.01
33.4759
19.1197
75.0597
20.6586
33.3501
19.1519
74.8444
139.691
137.884
22.6561
139.799
137.56
80.9132
255.256
81.6719
254.985
389.982
389.686
84.3447
258.363
84.7049
258.013
17.9649
18.0413
18.1149
18.028
17.9037
17.9116
17.9324
34.5981
76.5626
19.2751
20.8118
34.7895
76.4656
19.2807
391.68
391.624
33.6524
19.16
74.7896
20.729
33.6775
19.1983
75.2146
140.111
137.68
22.6707
139.289
137.477
80.4558
255.316
80.7857
255.134
390.099
390.189
83.9906
258.815
84.3625
258.065
17.9868
18.064
18.1023
18.0261
17.9011
17.9038
17.9554
34.4352
76.7629
19.284
20.7561
34.6164
76.5682
19.2964
391.508
391.425
33.3938
19.166
74.6307
20.5838
33.7022
19.1974
74.2253
139.739
138.896
22.6671
139.132
138.04
80.7621
255.422
80.5333
255.745
390.094
390.136
84.5986
258.092
84.548
258.032
18.0846
17.9591
18.1059
18.0477
17.9055
17.9167
17.9362
34.316
76.5835
19.2788
20.7865
34.443
76.4036
19.2873
391.784
391.926
33.5846
19.1447
74.6652
20.6125
33.5631
19.1616
75.1637
139.351
139.014
22.6497
139.066
138.216
80.1608
255.026
81.118
254.763
390.173
389.639
84.9929
258.643
85.1887
258.094
17.9662
18.0947
17.9962
17.9443
34.5444
76.716
19.2619
20.8445
34.3845
76.7783
19.2648
392.314
391.626
33.4975
19.1425
75.6755
20.6938
33.7937
19.1739
75.4666
140.415
137.644
22.673
139.797
137.342
80.0651
253.762
253.283
80.264
33.0215
68.424
19.1401
20.6695
19.1815
33.0291
71.0624
32.8074
72.7048
19.1261
20.607
72.9028
19.1732
32.8567
79.387
253.179
78.1836
249.594
78.6379
253.597
248.22
79.6082
31.9716
20.6323
73.5932
19.1723
19.2027
32.8714
69.9497
31.7141
20.5703
72.7657
19.1564
70.3144
19.1925
32.2502
134.493
135.98
22.4772
134.451
136.231
391.429
389.425
385.751
386.621
22.2372
134.635
136.997
131.211
132.568
391.699
387.546
34.0009
71.6974
19.3452
20.8362
19.3429
33.3769
74.5919
83.4475
247.44
256.602
82.156
34.0835
19.3277
71.3137
20.6642
19.3328
73.5934
33.6006
81.4871
257.235
84.3759
248.18
33.1527
20.8656
74.6836
19.3335
19.3442
34.3593
71.6783
80.8119
256.151
252.82
83.5634
33.5349
20.785
19.3007
73.6215
19.3256
72.4915
34.1405
83.1697
256.094
256.927
82.7133
33.7893
19.3311
76.9218
20.7787
19.3548
76.6994
34.0466
82.1133
257.907
258.063
82.5515
33.4104
20.8298
75.1892
19.379
72.0161
19.3799
34.2744
79.494
256.166
248.211
84.1312
33.1703
20.9053
19.3423
76.109
19.3661
73.6181
34.1441
79.4674
258.599
249.163
83.1981
130.454
127.477
22.3903
136.005
134.398
382.211
387.815
390.652
383.688
22.2534
136.435
134.76
128.456
129.896
388.779
382.142
32.5675
19.1814
72.8847
20.5458
19.2288
73.459
32.8561
80.1056
247.649
253.383
80.1395
79.7217
251.909
253.871
79.6694
31.6625
20.6858
19.266
73.3074
19.279
70.6992
32.9133
31.4519
20.653
19.2176
73.7056
19.2508
69.9531
32.5807
76.0255
253.961
250.311
80.2719
78.3093
254.028
247.308
79.435
391.335
391.852
387.121
388.926
22.3579
138.848
133.853
137.473
131.076
392.329
385.014
388.736
384.747
386.219
389.281
388.942
391.414
129.448
134.706
22.485
134.692
137.997
388.788
385.992
391.006
383.873
22.3197
134.981
138.37
127.336
132.519
80.2955
247.301
77.9804
253.86
32.9535
70.9154
19.2007
20.7264
32.3481
72.8535
19.198
32.9009
71.5792
19.1818
20.6157
32.7211
72.4205
19.2132
76.808
253.591
250.161
80.2262
78.1239
253.845
247.846
80.8901
32.67
20.7148
73.172
19.1864
68.8792
19.1982
33.0622
32.4206
20.6142
72.3964
19.1724
71.0688
19.1774
33.246
127.108
130.82
22.4576
134.522
138.452
382.569
392.201
385.59
383.575
22.3496
134.308
138.779
131.492
135.744
391.677
385.116
34.4851
72.2988
19.3453
20.8092
33.5073
75.2975
19.3548
84.3883
250.216
81.3576
257.228
34.3305
19.2985
72.3232
20.6454
33.3039
19.2947
74.5331
82.1886
251.613
249.678
82.9925
33.8932
20.8123
75.4217
19.3323
73.218
19.356
34.7038
82.6374
257.134
253.842
84.5475
33.3002
20.7727
19.287
74.6995
19.2937
71.4564
34.4578
84.7583
251.883
83.6219
258.55
34.4602
19.3584
73.7359
20.8132
33.7704
19.3632
76.5835
84.1163
255.511
81.0536
258.408
33.7496
20.8809
76.2852
19.3919
75.0202
19.3941
34.8975
82.2214
258.026
250.337
85.4452
33.7643
20.9585
19.3428
76.4064
19.3527
74.3098
34.7078
83.2013
257.934
255.136
84.6226
130.363
131.39
22.3645
136.623
135.606
381.451
389.499
387.633
388.993
22.2516
137.118
136.554
133.866
129.82
389.607
387.775
32.8398
19.2425
72.2701
20.6757
32.0492
19.2623
73.7881
80.0799
250.146
78.7368
254.362
79.7911
247.828
78.2374
254.886
32.5787
20.6471
19.244
72.6468
19.2657
73.0622
33.0443
32.5431
20.6377
19.2314
74.0802
19.267
72.9192
33.279
76.9193
254.595
249.665
81.0293
76.5118
254.576
247.689
80.7611
385.365
388.461
385.215
389.377
22.4964
139.834
136.933
133.644
134.647
387.552
391.76
389.273
385.59
385.112
389.833
389.141
392.331
132.957
135.806
22.5026
135.147
138.889
390.109
385.948
391.512
388.985
22.3869
136.052
138.549
129.151
136.355
80.5129
249.791
78.3308
254.122
32.9911
69.7262
19.221
20.6293
32.251
73.8946
19.2106
33.1409
69.7868
19.2098
20.6494
33.001
72.7869
19.2193
77.8057
255.32
251.822
79.0442
77.7441
253.55
248.281
80.0789
32.2849
20.6312
73.8678
19.2006
72.552
19.2103
33.0638
31.8706
20.6686
73.2488
19.1833
71.4385
19.215
33.0479
128.741
135.538
22.6251
135.241
138.925
387.518
391.11
389.108
386.191
22.445
135.277
138.692
131.417
136.89
391.785
387.707
34.6387
74.8274
19.3314
20.824
34.2871
76.0113
19.3393
84.2002
252.344
82.4412
257.046
34.6449
19.3086
73.0142
20.6561
33.5627
19.3141
75.3609
81.9572
257.7
251.659
83.9983
33.7559
20.7451
76.2359
19.327
72.596
19.3374
34.1116
81.6883
256.697
252.812
83.5669
34.1057
20.7325
19.2956
75.5688
19.3186
71.646
34.5932
84.6897
253.326
83.3687
257.537
34.5222
19.3664
74.4191
20.8352
33.819
19.3525
76.8595
84.1611
253.635
81.9759
258.101
33.8755
20.821
75.6226
19.3616
72.069
19.3756
34.4484
82.2764
257.945
247.976
83.9489
33.4858
20.8654
19.3269
76.4324
19.3509
72.6575
34.501
81.4621
257.291
253.681
84.0399
132.825
133.409
22.4263
137.602
136.542
386.338
387.231
390.472
389.128
22.2697
137.775
136.792
133.168
135.014
389.853
388.543
33.5604
19.2479
71.7406
20.7437
32.8817
19.2463
74.3608
81.3203
250.006
76.9629
255.659
81.5528
250.338
78.7479
255.159
32.4242
20.6473
19.2234
74.6326
19.2243
73.6294
33.6862
32.9009
20.7623
19.2338
75.0748
19.2485
70.6419
33.6412
79.5536
255.418
246.022
81.0101
79.6052
255.698
245.618
81.7034
391.128
392.034
382.059
389.623
22.4267
139.749
134.315
133.418
135.289
388.928
384.721
389.445
387.195
387.378
389.636
387.24
390.079
130.017
136.747
22.6282
135.945
138.934
390.284
381.795
391.806
386.826
22.4138
135.849
138.336
132.2
134.769
80.455
247.612
77.9193
253.885
33.0985
71.1381
19.2367
20.7396
32.4784
74.6458
19.2088
33.0508
69.6929
19.1851
20.6019
31.9446
72.9756
19.1918
79.2349
255.498
246.768
79.9295
78.5834
254.638
248.668
80.7942
32.6503
20.7362
74.2724
19.1743
70.3597
19.2095
33.346
32.5815
20.5948
72.5161
19.1509
70.1274
19.1709
33.2345
132.301
134.304
22.6304
135.864
138.934
385.37
390.979
388.336
385.708
22.3367
135.871
138.207
133.662
134.294
390.537
389.823
34.5537
75.0333
19.325
20.7761
34.4154
75.9856
19.325
84.0444
250.167
78.8121
256.997
34.5386
19.2984
71.6049
20.7955
33.9066
19.3084
75.782
82.9675
258.364
250.447
83.9567
34.0337
20.8218
76.1942
19.3106
74.6986
19.3142
34.6272
79.9105
257.594
246.297
84.3148
33.2934
20.8025
19.2988
73.5151
19.3153
74.051
34.7841
83.4252
254.998
81.6229
257.295
34.524
19.3286
72.4178
20.938
33.6011
19.3277
76.8369
83.9862
252.115
81.3507
258.51
33.9535
20.8887
74.0854
19.3039
72.6941
19.3178
34.4228
81.0378
256.981
251.461
83.8936
33.9115
20.8506
19.3024
76.1177
19.324
75.3448
34.4858
80.9817
257.611
251.269
83.965
134.536
130.108
22.5183
138.069
136.253
386.233
389.442
390.308
384.123
22.3834
139.036
136.324
135.549
129.175
389.825
380.564
33.4972
19.2568
73.9502
20.6857
33.0136
19.2476
74.7141
81.2957
251.739
78.8595
255.261
81.1602
251.989
79.3564
254.896
33.0645
20.7479
19.2136
74.8311
19.2395
71.0314
33.2055
32.934
20.7895
19.2307
73.6856
19.2424
71.5665
33.4283
79.8474
255.659
246.423
81.4966
78.6257
255.217
244.942
80.8514
385.921
392.081
382.001
386.138
22.585
136.019
136.399
133.241
134.91
390.805
384.729
388.534
389.585
382.551
389.472
387.922
392.235
129.447
135.41
22.6538
136.019
138.97
390.152
381.931
392.152
388.96
22.5434
137.133
138.866
133.541
132.303
80.8057
248.638
79.1314
255.342
33.2084
72.891
19.1815
20.6731
32.8262
73.3904
19.1723
33.3505
69.6568
19.1657
20.6137
32.8117
74.3356
19.1479
77.2784
255.612
246.958
80.2977
76.5954
255.62
253.801
81.0701
32.3889
20.7256
74.6254
19.1558
73.4144
19.1709
33.1714
32.484
20.6052
73.2733
19.1188
72.9933
19.1394
33.1349
131.689
132.389
22.6601
135.997
138.42
388.583
392.285
389.511
382.954
22.5276
136.462
138.408
132.31
135.628
391.332
388.951
34.5555
72.476
19.2962
20.8696
34.2361
76.3962
19.2958
83.8492
254.408
82.1371
256.983
34.6989
19.3192
75.0221
20.8372
34.4069
19.3082
76.1493
81.3517
257.423
255.789
84.3028
34.0274
20.8685
76.0253
19.2834
72.2795
19.2944
34.5338
81.0116
257.107
248.582
83.6364
34.1807
20.8552
19.299
75.7199
19.3174
73.556
34.4977
83.053
251.794
80.6117
258.361
34.1296
19.3016
72.3687
20.906
33.3091
19.2955
76.4595
83.0583
252.07
80.2746
254.784
33.751
20.8636
75.8319
19.2994
72.8735
19.3014
34.1271
81.0347
256.964
255.161
83.0757
33.2237
20.8954
19.2717
76.1033
19.2906
72.7607
34.1656
80.1832
258.399
247.789
83.1055
137.124
133.654
22.5691
138.945
135.55
386.644
389.512
387.331
388.045
22.3313
138.285
134.056
134.008
129.715
389.43
381.249
33.3023
19.2754
71.2181
20.7129
32.6556
19.2422
73.7558
81.1815
252.731
78.9808
255.208
80.8896
252.05
78.4634
254.61
32.915
20.7491
19.1968
72.0174
19.2109
71.8414
33.2666
32.7184
20.704
19.195
74.2386
19.2352
72.2049
33.5161
77.7525
255.141
246.465
81.1086
78.2304
254.98
247.433
81.3499
389.166
391.817
384.966
390.38
22.3596
139.115
138.154
132.452
132.114
391.533
383.93
389.579
387.942
382.029
389.69
384.128
391.414
133.243
132.299
22.7001
136.745
139.295
389.291
385.65
391.431
384.287
22.5663
137.211
139.173
132.286
132.885
80.9853
251.308
77.0071
254.857
33.1013
70.7626
19.1647
20.8105
31.8301
74.6975
19.1691
32.9388
69.5724
19.1284
20.6497
32.2853
73.6509
19.1507
79.3702
254.86
250.593
79.2594
77.167
254.041
250.372
80.7585
32.6849
20.7812
74.2429
19.1359
73.1002
19.1439
33.0094
32.5598
20.6493
73.4298
19.1101
69.609
19.1231
33.1634
132.551
131.482
22.5689
135.758
138.537
384.109
390.75
389.563
381.185
22.3398
136.107
138.506
128.892
131.65
387.458
388.737
34.707
72.0892
19.3101
20.8188
33.8151
75.8167
19.315
83.9683
252.688
81.1889
256.633
34.5939
19.3029
73.9028
20.8375
33.9852
19.3024
76.0375
82.3218
258.029
249.094
84.0675
34.253
20.8226
76.0704
19.3106
74.888
19.3214
34.9301
81.5975
257.485
252.331
84.1444
33.8522
20.851
19.2855
75.4468
19.3034
74.0866
34.7796
83.5885
254.807
81.1697
257.924
34.2755
19.2785
73.9705
20.8886
33.3289
19.2697
76.0802
83.8177
249.033
81.5335
258.544
33.3902
20.8453
74.1876
19.2597
73.0668
19.2732
33.8229
80.086
256.861
254.416
84.0773
33.6307
20.8297
19.2457
76.109
19.2601
72.7828
34.5057
82.0691
257.572
255.352
84.4771
133.978
129.667
22.5602
138.636
137.568
382.544
387.517
390.461
387.938
22.2683
138.403
137.618
135.06
131.748
390.371
383.462
33.5808
19.2028
72.7336
20.709
32.9895
19.215
74.6839
81.6769
246.788
79.495
250.539
82.1587
247.168
77.679
255.368
32.627
20.6752
19.184
74.9246
19.1901
72.667
33.7855
32.8758
20.6904
19.19
75.0255
19.2227
71.2085
33.5882
78.4983
255.32
254.607
81.5114
80.3584
254.951
250.756
81.591
384.934
391.885
386.893
385.52
22.4614
135.525
137.536
136.834
135.802
391.31
388.679
389.612
388.792
384.07
389.664
389.714
391.732
134.183
132.397
22.7509
136.653
139.091
389.617
386.939
392.197
384.884
22.5997
136.511
138.286
131.348
133.092
81.1824
251.311
78.4894
254.521
33.1204
71.7645
19.1794
20.7816
32.7238
72.3112
19.1585
33.5151
72.0674
19.1415
20.6021
32.842
73.2181
19.1249
79.2893
251.259
246.899
80.6839
79.0528
253.938
249.834
81.1538
32.8301
20.7922
72.5694
19.1468
73.9459
19.1778
33.1391
33.2312
20.6075
73.1695
19.1108
69.6017
19.1399
33.158
130.565
131.906
22.5601
137.224
139.03
390.975
392.262
388.955
384.452
22.4391
136.204
138.458
134.293
132.85
391.849
383.793
34.9237
73.7477
19.3182
20.8594
34.2895
75.9205
19.325
84.8946
253.871
82.3376
257.021
34.6958
19.2966
72.775
20.8493
33.8378
19.3026
73.535
83.6996
253.543
250.842
84.8067
34.5592
20.8599
76.109
19.3142
72.0935
19.328
34.8012
81.8699
258.469
249.391
84.4779
34.1277
20.7971
19.31
75.9018
19.3088
74.7394
34.7028
84.5458
249.934
83.2909
258.463
34.516
19.2624
73.6235
20.835
33.9595
19.2782
76.469
84.3677
255.133
79.892
258.082
33.7294
20.824
74.5556
19.2832
75.2489
19.2836
34.587
81.5411
257.597
253.711
84.4995
34.0723
20.916
19.2732
76.5765
19.2722
74.2384
34.6004
82.2157
257.538
252.298
84.0185
131.982
134.145
22.5752
139.316
136.183
386.078
389.313
392.173
388.743
22.4214
137.726
135.62
133.662
131.454
389.495
386.034
33.3069
19.1966
70.7174
20.6487
32.7688
19.2071
74.3283
81.1865
246.648
77.086
255.855
80.8149
245.976
78.5547
255.381
32.3241
20.7403
19.1957
74.3623
19.2043
72.7262
33.52
32.653
20.6442
19.1723
73.9524
19.1948
70.0781
33.2708
79.5349
254.769
252.914
80.7237
78.1112
255.253
245.944
80.6763
388.276
387.667
382.111
386.266
22.4092
138.784
136.139
136.91
131.189
388.191
390.769
384.279
389.623
385.772
389.818
384.807
391.519
132.808
131.681
22.6895
135.647
139.025
389.833
387.787
392.619
387.601
22.4217
135.684
139.344
131.932
132.821
80.8046
249.628
78.503
254.477
33.109
73.5621
19.1571
20.7511
32.8162
74.3506
19.1446
33.2568
69.6168
19.1233
20.6067
32.2198
73.1331
19.1123
76.9019
253.958
252.519
80.6431
78.6008
254.571
251.925
80.6058
31.9578
20.7512
73.7157
19.1276
71.6052
19.1443
32.7262
32.1249
20.6175
72.9798
19.0971
70.7763
19.1111
32.9731
131.834
133.964
22.6968
135.41
138.285
388.463
390.826
385.745
387.214
22.574
135.383
137.91
131.156
132.905
386.694
388.436
34.6821
74.8201
19.3149
20.8664
33.7748
75.8372
19.3202
84.5078
254.985
79.6095
257.077
34.7484
19.3618
74.6359
20.7764
33.539
19.3461
74.7835
82.1256
258.063
249.842
83.1559
34.149
20.9043
76.1958
19.3275
72.3494
19.3316
34.8968
82.9263
257.71
247.876
84.2668
34.2834
20.8663
19.3366
76.1107
19.3513
75.4642
34.7438
84.1731
255.552
80.9837
257.982
34.6796
19.2989
74.883
20.8562
34.1027
19.2994
76.7596
84.1253
252.388
80.4255
257.431
34.0753
20.75
76.0841
19.2935
74.3201
19.293
33.8313
82.0808
258.507
250.159
84.1261
34.2695
20.9022
19.2903
76.4722
19.2999
74.4412
34.6434
83.9578
258.476
248.252
84.6591
132.398
131.018
22.5414
139.815
135.883
386.445
389.096
391.476
386.595
22.4114
139.383
136.205
137.195
131.508
388.861
385.116
33.0932
19.206
69.9724
20.6434
32.1359
19.1772
74.2932
80.8546
246.681
78.8812
255.789
80.3685
252.075
78.382
254.716
32.6382
20.6302
19.1621
75.1566
19.1644
71.4368
33.3731
32.5545
20.6547
19.1379
73.9012
19.176
71.4868
33.2974
77.5827
255.846
252.214
81.6363
77.5742
255.604
251.605
80.7132
391.301
392.242
388.208
389.863
22.5199
138.502
138.201
134.32
131.827
391.562
390.126
389.476
384.59
382.298
387.633
389.374
391.875
132.691
137.029
22.7342
136.291
138.692
389.754
387.742
391.844
388.209
22.6342
136.012
138.732
133.443
133.393
80.0481
251.177
77.3482
254.602
32.8943
71.3965
19.1401
20.7379
32.2389
74.3318
19.171
33.2205
70.4054
19.1283
20.6287
32.1652
73.2467
19.1195
77.6657
256.031
252.562
79.4297
78.2815
254.479
249.778
80.4693
32.3369
20.7527
74.5526
19.1346
71.2573
19.1424
33.1625
32.8852
20.6347
73.422
19.1047
71.1378
19.1197
33.1866
131.341
133.54
22.6542
136.315
138.579
390.386
391.687
384.814
387.052
22.4706
132.733
138.085
132.106
133.894
391.741
383.47
34.7527
74.5549
19.3519
20.9412
34.269
76.2345
19.3838
84.6564
248.131
82.9836
257.953
34.958
19.3552
74.9214
20.7544
34.4855
19.3425
75.7987
82.3818
256.724
253.042
84.3452
33.3164
20.8715
76.7413
19.3574
75.6131
19.3668
34.6582
82.6806
257.721
248.44
84.1529
34.5103
20.7982
19.3183
73.0607
19.3357
72.3168
34.634
84.408
254.643
80.2175
257.743
34.676
19.3084
73.8491
20.9592
34.0896
19.3004
75.9567
84.3029
255.126
82.6676
257.583
32.9888
20.7865
75.5581
19.305
72.3442
19.2974
34.2807
80.3284
257.672
254.58
83.6143
33.8857
20.882
19.2818
76.0036
19.2916
73.2916
34.4542
80.7219
258.439
254.352
84.4858
136.777
133.426
22.5401
135.151
136.604
383.998
390.744
390.521
383.619
22.4368
138.837
136.305
137.339
130.293
389.693
388.291
33.2641
19.144
71.201
20.6416
32.9034
19.1417
74.1937
81.4422
253.888
77.5536
255.755
81.0833
251.689
76.4323
255.657
32.2657
20.6778
19.1256
72.8049
19.135
72.1649
33.4878
32.898
20.6544
19.1364
74.4634
19.1414
72.2084
33.3335
79.3172
254.322
249.1
80.4898
79.6165
254.867
251.594
80.6102
384.841
391.654
382.447
389.843
22.511
139.712
134.454
132.983
134.97
391.112
385.109
388.914
382.642
385.191
389.2
385.302
392.01
132.651
136.313
22.6942
136.012
138.401
390.036
385.207
391.662
387.158
22.4571
136.107
138.948
133.908
135.449
81.7034
245.553
78.8995
253.924
33.3065
71.9786
19.1937
20.7749
32.9552
75.1138
19.1779
33.6636
72.0183
19.1396
20.6443
32.7304
73.3272
19.1348
78.7774
254.611
246.67
79.6943
80.3623
254.565
250.941
81.4559
32.6143
20.787
74.5536
19.177
70.7141
19.187
33.4692
32.7628
20.5909
72.5245
19.1302
70.7662
19.1397
32.9899
134.135
134.975
22.6346
136.494
138.032
388.011
391.826
385.139
387.173
22.3261
135.718
138.6
133.061
131.284
392.386
384.444
35.0813
74.2046
19.3671
20.9395
33.676
74.8739
19.3544
83.9065
249.134
81.2275
257.992
34.5552
19.3259
73.1017
20.8196
33.7357
19.3165
76.1761
80.9214
256.614
251.903
84.1377
34.5413
20.9296
76.9271
19.3293
76.041
19.3455
34.8781
82.0249
256.778
253.702
84.2091
33.8124
20.8209
19.3035
75.3539
19.3151
74.5356
34.7236
84.5535
252.058
80.1155
256.953
34.1998
19.2844
73.4527
20.9661
33.8219
19.2836
76.8164
83.4045
250.165
82.4819
254.286
33.6503
20.8681
76.3815
19.2999
72.3625
19.3022
34.4328
80.4472
257.895
254.363
84.4507
33.1798
20.8951
19.2482
76.7496
19.2686
74.6843
34.1802
82.0957
258.409
257.735
83.4054
133.11
133.06
22.4674
138.878
135.681
386.038
389.368
387.827
389.23
22.2443
137.436
136.567
134.165
128.865
389.798
380.622
33.4462
19.1674
70.563
20.6399
32.2745
19.1798
74.4536
80.6795
245.989
76.0465
255.994
81.1697
252.286
76.9156
254.938
32.1362
20.6253
19.1002
73.3801
19.1308
73.3337
32.4522
32.9634
20.6446
19.1513
74.4245
19.1706
70.9268
33.3003
76.6261
254.487
249.967
80.834
79.6832
255.901
246.781
80.7283
389.395
388.551
383.97
390.349
22.3944
139.268
138.106
133.285
131.996
391.576
386.605
389.248
386.288
382.325
389.555
387.628
392.641
134.335
134.894
22.755
136.253
139.527
389.958
382.25
389.283
388.358
22.4463
136.234
138.289
134.45
134.684
81.2617
247.925
76.9021
254.391
33.3582
71.1264
19.1954
20.7927
32.6209
73.64
19.207
33.3665
72.5025
19.1656
20.6635
33.1864
73.4781
19.1437
79.9672
254.118
246.21
81.1866
77.4761
254.839
243.543
81.1776
32.5992
20.8123
74.858
19.167
70.5592
19.1815
33.4274
32.5253
20.6012
73.1618
19.1261
71.4487
19.1569
33.4131
133.653
131.698
22.5565
135.771
138.585
389.874
392.173
389.696
384.288
22.3879
135.774
138.351
133.061
133.642
391.163
388.848
34.7639
75.0889
19.3251
20.9099
34.3851
77.1437
19.3263
83.966
252.326
81.6925
256.463
34.6619
19.3136
73.8247
20.7816
34.0699
19.3039
75.359
82.0899
256.724
248.729
82.9795
34.3043
20.9206
76.0499
19.3184
72.2574
19.3284
34.8546
81.2444
256.816
249.023
84.4041
34.1169
20.7852
19.2835
75.8796
19.2968
71.6619
34.7222
84.3302
248.59
79.902
258.402
34.2526
19.2482
74.6846
20.9436
33.3054
19.2565
76.1377
83.9609
255.559
81.8841
258.132
33.3751
20.8302
76.0458
19.2902
75.1505
19.2916
33.9137
82.4671
257.178
255.442
84.0036
33.454
20.9382
19.2453
76.5177
19.2508
71.8355
34.5039
83.0393
257.825
250.147
84.4347
133.291
133.758
22.4675
137.397
136.1
386.497
385.948
387.609
386.308
22.2569
137.97
136.792
133.134
129.323
389.586
387.804
33.4627
19.1611
72.444
20.6701
32.2554
19.17
74.3465
80.9627
249.265
76.6676
254.656
81.6818
247.047
77.8677
256.16
32.7944
20.6166
19.1064
74.7696
19.1077
72.992
32.7942
32.2382
20.6301