/*--------------------------------*- C++ -*----------------------------------*\
| =========                 |                                                 |
| \\      /  F ield         | OpenFOAM: The Open Source CFD Toolbox           |
|  \\    /   O peration     | Version:  2206                                  |
|   \\  /    A nd           | Website:  www.openfoam.com                      |
|    \\/     M anipulation  |                                                 |
\*---------------------------------------------------------------------------*/
FoamFile
{
    version     2.0;
    format      ascii;
    arch        "LSB;label=32;scalar=64";
    class       volScalarField;
    location    "20";
    object      p;
}
// * * * * * * * * * * * * * * * * * * * * * * * * * * * * * * * * * * * * * //

dimensions      [0 2 -2 0 0 0 0];

internalField   nonuniform List<scalar> 
66928
(
-0.010642
-0.0106228
-0.0106228
-0.0106229
-0.0106421
-0.010623
-0.0106841
-0.0109638
-0.0106229
-0.010623
-0.0106422
-0.0106422
-0.010642
-0.010642
-0.0106422
-0.0106411
-0.0106422
-0.0106422
-0.0106412
-0.0106227
-0.010641
-0.0106423
-0.0106422
-0.0106228
-0.0106413
-0.010641
-0.0106423
-0.0106422
-0.0106421
-0.0106423
-0.0106413
-0.0106423
-0.0106843
-0.0108034
-0.0106842
-0.0108031
-0.0106844
-0.0106843
-0.010803
-0.0108031
-0.010803
-0.0109641
-0.0108454
-0.010964
-0.0108451
-0.0108451
-0.0109639
-0.0109638
-0.0108454
-0.0108452
-0.0106036
-0.0106037
-0.0106423
-0.0106038
-0.0106418
-0.010604
-0.0106033
-0.0106419
-0.0106038
-0.0106423
-0.0106038
-0.0106419
-0.010604
-0.0106034
-0.0106419
-0.0106034
-0.0106421
-0.0106421
-0.0106037
-0.0106037
-0.0106423
-0.0106037
-0.0106422
-0.0106036
-0.0106419
-0.0106422
-0.0106421
-0.0106421
-0.0106422
-0.0106421
-0.0106423
-0.0106421
-0.0106422
-0.0106422
-0.0106422
-0.010604
-0.0106424
-0.0106039
-0.010642
-0.0106035
-0.0106041
-0.0106421
-0.010604
-0.0106425
-0.010604
-0.010642
-0.0106042
-0.0106036
-0.0106421
-0.0106037
-0.0106422
-0.0106422
-0.0106039
-0.010604
-0.0106425
-0.0106039
-0.010604
-0.0106423
-0.010604
-0.0106422
-0.0107229
-0.0107649
-0.0107227
-0.0107646
-0.0107646
-0.0108031
-0.0108031
-0.0107648
-0.0107647
-0.0108033
-0.0107225
-0.010684
-0.0106845
-0.0107226
-0.0106844
-0.0107224
-0.0107229
-0.0107225
-0.0106839
-0.0106845
-0.0107225
-0.0106843
-0.0107223
-0.0107229
-0.0107228
-0.0106843
-0.0106843
-0.010684
-0.0107226
-0.0107226
-0.0107648
-0.0108029
-0.010765
-0.0108033
-0.0107651
-0.0108029
-0.0107645
-0.0107648
-0.0108028
-0.0107647
-0.0108033
-0.010765
-0.0108029
-0.0107643
-0.0109258
-0.0108838
-0.0109255
-0.0108836
-0.0108837
-0.0108453
-0.0108452
-0.010845
-0.0108836
-0.0108835
-0.0109258
-0.0109641
-0.0109258
-0.0109637
-0.010926
-0.0109254
-0.0109638
-0.0109257
-0.0109641
-0.0109256
-0.0109637
-0.0109258
-0.0109252
-0.0109637
-0.0108834
-0.0108456
-0.010845
-0.0108836
-0.0108454
-0.0108834
-0.0108839
-0.0108834
-0.0108454
-0.0108448
-0.0108834
-0.0108453
-0.0108832
-0.0108838
-0.0109255
-0.0109639
-0.0109639
-0.0109257
-0.0109257
-0.0109641
-0.0106054
-0.0106036
-0.0106414
-0.0106415
-0.0106042
-0.0106041
-0.0106403
-0.0106056
-0.0106038
-0.0106415
-0.0106416
-0.0106043
-0.0106044
-0.0106404
-0.0107208
-0.0106848
-0.0106847
-0.0107225
-0.010686
-0.0107219
-0.010722
-0.0109273
-0.0109255
-0.0109631
-0.0109632
-0.0109261
-0.010926
-0.010962
-0.0106229
-0.010623
-0.0106031
-0.0106426
-0.0106044
-0.0106409
-0.0106029
-0.0106045
-0.0106424
-0.0106031
-0.0106427
-0.0106046
-0.010641
-0.010603
-0.0106048
-0.0106426
-0.0106031
-0.0106048
-0.010641
-0.0106427
-0.0106048
-0.010603
-0.0106427
-0.0106032
-0.0106428
-0.0106047
-0.0106411
-0.0106048
-0.0106031
-0.0106427
-0.0106032
-0.0106048
-0.0106428
-0.010641
-0.010603
-0.0106049
-0.0106427
-0.0106034
-0.0106429
-0.0106049
-0.0106411
-0.0106033
-0.010605
-0.0106427
-0.0107664
-0.0107646
-0.0108024
-0.0108024
-0.0108013
-0.0107652
-0.0107651
-0.0108818
-0.0108835
-0.0108457
-0.0108456
-0.0108469
-0.0108829
-0.0108829
-0.0107033
-0.0107034
-0.0107035
-0.0106843
-0.0110247
-0.0110249
-0.0110248
-0.0110057
-0.0113444
-0.0113446
-0.0113446
-0.0113255
-0.0116628
-0.0116629
-0.0116629
-0.0116439
-0.0119801
-0.0119801
-0.0119801
-0.0119611
-0.012297
-0.012297
-0.012297
-0.012278
-0.0126139
-0.0126138
-0.0126139
-0.0125949
-0.0129308
-0.0129308
-0.0129309
-0.0129118
-0.0132477
-0.0132478
-0.0132479
-0.0132288
-0.0135644
-0.0135644
-0.0135645
-0.0135455
-0.0138803
-0.0138803
-0.0138804
-0.0138614
-0.0141961
-0.0141961
-0.0141961
-0.0141772
-0.0145112
-0.0145113
-0.0145113
-0.0144923
-0.0148262
-0.0148263
-0.0148263
-0.0148073
-0.0151412
-0.0151413
-0.0151412
-0.0151223
-0.0154556
-0.0154557
-0.0154557
-0.0154368
-0.0157685
-0.0157686
-0.0157685
-0.0157496
-0.0107033
-0.0107034
-0.0109446
-0.0109447
-0.0106842
-0.0109638
-0.0107033
-0.0107033
-0.0109445
-0.0109445
-0.0107034
-0.0109446
-0.0109445
-0.0106842
-0.0109637
-0.0107036
-0.0109445
-0.0109445
-0.0109637
-0.0110057
-0.0112838
-0.0110249
-0.011025
-0.0112648
-0.0112648
-0.0110058
-0.0112839
-0.0110248
-0.0110248
-0.0112648
-0.0112648
-0.0110249
-0.0112648
-0.0112648
-0.0110056
-0.0112839
-0.0110249
-0.0112648
-0.0112648
-0.0112838
-0.0113255
-0.0116024
-0.0113445
-0.0113446
-0.0115834
-0.0115834
-0.0113255
-0.0116025
-0.0113445
-0.0113446
-0.0115834
-0.0115834
-0.0113446
-0.0115835
-0.0115834
-0.0113255
-0.0116024
-0.0113446
-0.0115835
-0.0115835
-0.0116025
-0.0116439
-0.0119199
-0.0116629
-0.0116629
-0.0119009
-0.0119009
-0.0116439
-0.0119198
-0.0116629
-0.0116629
-0.0119009
-0.0119009
-0.0116629
-0.0119009
-0.0119008
-0.0116439
-0.0119198
-0.0116629
-0.0119009
-0.0119009
-0.0119198
-0.0119612
-0.0122367
-0.0119802
-0.0119802
-0.0122178
-0.0122177
-0.0119611
-0.0122367
-0.0119802
-0.0119801
-0.0122178
-0.0122177
-0.0119801
-0.0122177
-0.0122177
-0.0119611
-0.0122367
-0.0119801
-0.0122178
-0.0122177
-0.0122366
-0.012278
-0.0125537
-0.0122971
-0.012297
-0.0125348
-0.0125347
-0.0122779
-0.0125536
-0.0122971
-0.012297
-0.0125348
-0.0125347
-0.0122969
-0.0125347
-0.0125347
-0.012278
-0.0125537
-0.012297
-0.0125348
-0.0125347
-0.0125536
-0.0125949
-0.0128705
-0.0126139
-0.0126139
-0.0128515
-0.0128515
-0.0125948
-0.0128705
-0.0126139
-0.0126139
-0.0128516
-0.0128516
-0.0126139
-0.0128515
-0.0128515
-0.012595
-0.0128705
-0.0126139
-0.0128516
-0.0128515
-0.0128705
-0.0129118
-0.0131875
-0.0129308
-0.0129308
-0.0131685
-0.0131685
-0.0129117
-0.0131874
-0.0129308
-0.0129309
-0.0131685
-0.0131685
-0.0129308
-0.0131685
-0.0131685
-0.0129118
-0.0131875
-0.0129308
-0.0131686
-0.0131686
-0.0131875
-0.0132287
-0.0135043
-0.0132478
-0.0132478
-0.0134854
-0.0134854
-0.0132287
-0.0135043
-0.0132478
-0.0132478
-0.0134854
-0.0134854
-0.0132478
-0.0134854
-0.0134854
-0.0132288
-0.0135044
-0.0132479
-0.0134855
-0.0134854
-0.0135044
-0.0135455
-0.0138203
-0.0135644
-0.0135644
-0.0138014
-0.0138013
-0.0135454
-0.0138203
-0.0135644
-0.0135645
-0.0138014
-0.0138014
-0.0135645
-0.0138013
-0.0138013
-0.0135455
-0.0138203
-0.0135645
-0.0138014
-0.0138014
-0.0138203
-0.0138613
-0.0141361
-0.0138803
-0.0138803
-0.0141172
-0.0141172
-0.0138613
-0.0141361
-0.0138803
-0.0138803
-0.0141172
-0.0141172
-0.0138803
-0.0141172
-0.0141172
-0.0138614
-0.0141362
-0.0138804
-0.0141173
-0.0141172
-0.0141362
-0.0141771
-0.0144515
-0.0141961
-0.0141961
-0.0144326
-0.0144326
-0.014177
-0.0144515
-0.0141961
-0.0141961
-0.0144326
-0.0144326
-0.0141961
-0.0144326
-0.0144326
-0.0141771
-0.0144515
-0.0141962
-0.0144326
-0.0144326
-0.0144515
-0.0144923
-0.0147663
-0.0145113
-0.0145113
-0.0147474
-0.0147475
-0.0144923
-0.0147664
-0.0145113
-0.0145113
-0.0147474
-0.0147474
-0.0145113
-0.0147475
-0.0147475
-0.0144923
-0.0147664
-0.0145113
-0.0147475
-0.0147475
-0.0147664
-0.0148073
-0.0150815
-0.0148262
-0.0148263
-0.0150626
-0.0150626
-0.0148073
-0.0150815
-0.0148262
-0.0148263
-0.0150626
-0.0150625
-0.0148263
-0.0150626
-0.0150626
-0.0148073
-0.0150815
-0.0148263
-0.0150626
-0.0150626
-0.0150815
-0.0151223
-0.0153961
-0.0151413
-0.0151413
-0.0153772
-0.0153772
-0.0151223
-0.0153961
-0.0151413
-0.0151412
-0.0153772
-0.0153771
-0.0151413
-0.0153772
-0.0153772
-0.0151223
-0.0153961
-0.0151413
-0.0153772
-0.0153772
-0.0153961
-0.0154368
-0.0157094
-0.0154557
-0.0154557
-0.0156905
-0.0156905
-0.0154368
-0.0157094
-0.0154557
-0.0154557
-0.0156905
-0.0156904
-0.0154557
-0.0156905
-0.0156904
-0.0154367
-0.0157093
-0.0154557
-0.0156905
-0.0156905
-0.0157093
-0.0157497
-0.0157686
-0.0157686
-0.0157497
-0.0157686
-0.0157685
-0.0157685
-0.0160025
-0.0157497
-0.0157685
-0.0160025
-0.0160213
-0.0108032
-0.0106844
-0.0106843
-0.0108034
-0.0106844
-0.0108034
-0.010803
-0.0106842
-0.0106842
-0.0108031
-0.0107034
-0.0107035
-0.0107035
-0.0109445
-0.0109445
-0.0109444
-0.0109444
-0.010802
-0.0106852
-0.0107034
-0.0107839
-0.0108023
-0.0107838
-0.0106854
-0.0106842
-0.0108031
-0.0108018
-0.0107035
-0.0106853
-0.0107838
-0.0107838
-0.0108021
-0.0106855
-0.0106844
-0.0106845
-0.010803
-0.0108031
-0.010803
-0.0111241
-0.0110061
-0.0110061
-0.0111242
-0.0110061
-0.0111243
-0.0111241
-0.0110058
-0.0110058
-0.0111242
-0.0110249
-0.0110248
-0.0110248
-0.0112647
-0.0112647
-0.0112647
-0.0112647
-0.011123
-0.0110068
-0.0110248
-0.011105
-0.0110069
-0.0111233
-0.0111049
-0.0110058
-0.0111242
-0.0111228
-0.0110247
-0.0110067
-0.0111049
-0.011007
-0.0111049
-0.0111231
-0.011006
-0.011006
-0.0111241
-0.0111241
-0.011124
-0.0114433
-0.0113257
-0.0113258
-0.0114434
-0.0113257
-0.0114435
-0.0114434
-0.0113257
-0.0113257
-0.0114435
-0.0113445
-0.0113445
-0.0113445
-0.0115834
-0.0115833
-0.0115833
-0.0115833
-0.0114423
-0.0113266
-0.0113445
-0.0114243
-0.0113268
-0.0114426
-0.0114242
-0.0113257
-0.0114435
-0.0114421
-0.0113445
-0.0113266
-0.0114243
-0.0113269
-0.0114242
-0.0114424
-0.0113258
-0.0113258
-0.0114433
-0.0114434
-0.0114433
-0.0117612
-0.0116441
-0.0116443
-0.0117614
-0.0116441
-0.0117614
-0.0117614
-0.0116441
-0.0116441
-0.0117614
-0.0116629
-0.0116628
-0.0116628
-0.0119009
-0.0119008
-0.0119008
-0.0119008
-0.0117601
-0.011645
-0.0116628
-0.0117423
-0.0116451
-0.0117604
-0.0117422
-0.011644
-0.0117614
-0.0117599
-0.0116628
-0.011645
-0.0117423
-0.0116453
-0.0117422
-0.0117603
-0.0116442
-0.0116442
-0.0117612
-0.0117612
-0.0117611
-0.0120781
-0.0119613
-0.0119614
-0.0120782
-0.0119613
-0.0120782
-0.0120782
-0.0119613
-0.0119613
-0.0120782
-0.0119801
-0.0119801
-0.0119801
-0.0122178
-0.0122177
-0.0122177
-0.0122177
-0.012077
-0.0119621
-0.01198
-0.0120593
-0.0119623
-0.0120773
-0.0120592
-0.0119612
-0.0120782
-0.0120769
-0.01198
-0.0119622
-0.0120593
-0.0119624
-0.0120593
-0.0120772
-0.0119613
-0.0119613
-0.0120781
-0.012078
-0.012078
-0.0123951
-0.0122782
-0.0122783
-0.0123952
-0.0122781
-0.0123952
-0.0123953
-0.0122782
-0.0122781
-0.0123953
-0.012297
-0.012297
-0.012297
-0.0125347
-0.0125347
-0.0125347
-0.0125346
-0.012394
-0.012279
-0.0122969
-0.0123762
-0.0122791
-0.0123943
-0.0123762
-0.0122781
-0.0123953
-0.0123939
-0.012297
-0.0122791
-0.0123763
-0.0122793
-0.0123762
-0.0123942
-0.0122781
-0.0122782
-0.0123952
-0.012395
-0.012395
-0.0127117
-0.0125951
-0.0125951
-0.0127119
-0.0125949
-0.0127118
-0.012712
-0.0125951
-0.0125951
-0.0127119
-0.0126139
-0.0126139
-0.0126139
-0.0128515
-0.0128515
-0.0128515
-0.0128515
-0.0127107
-0.0125958
-0.0126138
-0.012693
-0.012596
-0.0127109
-0.012693
-0.012595
-0.012712
-0.0127107
-0.0126139
-0.012596
-0.0126931
-0.0125963
-0.0126931
-0.012711
-0.012595
-0.0125951
-0.012712
-0.0127117
-0.0127117
-0.0130288
-0.012912
-0.012912
-0.0130289
-0.0129119
-0.0130289
-0.013029
-0.012912
-0.012912
-0.013029
-0.0129308
-0.0129308
-0.0129308
-0.0131685
-0.0131685
-0.0131685
-0.0131685
-0.0130278
-0.0129128
-0.0129307
-0.0130101
-0.012913
-0.013028
-0.01301
-0.0129119
-0.0130291
-0.0130277
-0.0129308
-0.012913
-0.0130101
-0.0129132
-0.0130101
-0.013028
-0.012912
-0.0129121
-0.013029
-0.0130289
-0.0130288
-0.0133458
-0.0132289
-0.013229
-0.013346
-0.0132289
-0.013346
-0.0133461
-0.013229
-0.013229
-0.0133461
-0.0132478
-0.0132478
-0.0132478
-0.0134854
-0.0134853
-0.0134854
-0.0134853
-0.0133449
-0.0132298
-0.0132477
-0.013327
-0.01323
-0.0133451
-0.013327
-0.013229
-0.0133462
-0.0133448
-0.0132478
-0.0132299
-0.0133271
-0.0132302
-0.0133271
-0.0133451
-0.013229
-0.0132291
-0.0133461
-0.013346
-0.0133459
-0.0136621
-0.0135456
-0.0135457
-0.0136623
-0.0135456
-0.0136623
-0.0136624
-0.0135456
-0.0135457
-0.0136623
-0.0135644
-0.0135644
-0.0135644
-0.0138013
-0.0138013
-0.0138013
-0.0138013
-0.0136611
-0.0135465
-0.0135644
-0.0136434
-0.0135467
-0.0136614
-0.0136433
-0.0135457
-0.0136625
-0.0136611
-0.0135644
-0.0135467
-0.0136435
-0.0135469
-0.0136434
-0.0136614
-0.0135457
-0.0135458
-0.0136624
-0.0136623
-0.0136622
-0.013978
-0.0138617
-0.0138617
-0.0139781
-0.0138616
-0.0139781
-0.0139782
-0.0138616
-0.0138617
-0.0139782
-0.0138803
-0.0138803
-0.0138803
-0.0141172
-0.0141171
-0.0141172
-0.0141171
-0.0139769
-0.0138624
-0.0138802
-0.0139592
-0.0138626
-0.0139772
-0.0139592
-0.0138616
-0.0139782
-0.0139769
-0.0138803
-0.0138626
-0.0139593
-0.0138628
-0.0139593
-0.0139772
-0.0138617
-0.0138618
-0.0139782
-0.013978
-0.013978
-0.0142935
-0.0141772
-0.0141773
-0.0142936
-0.0141771
-0.0142936
-0.0142937
-0.0141772
-0.0141773
-0.0142937
-0.0141961
-0.0141961
-0.0141961
-0.0144325
-0.0144325
-0.0144325
-0.0144325
-0.0142926
-0.0141781
-0.014196
-0.014275
-0.0141783
-0.0142928
-0.0142749
-0.0141772
-0.0142937
-0.0142925
-0.0141961
-0.0141783
-0.014275
-0.0141786
-0.014275
-0.0142928
-0.0141773
-0.0141774
-0.0142939
-0.0142936
-0.0142935
-0.0146087
-0.0144925
-0.0144927
-0.0146088
-0.0144925
-0.0146088
-0.0146088
-0.0144925
-0.0144925
-0.0146088
-0.0145113
-0.0145113
-0.0145113
-0.0147474
-0.0147474
-0.0147474
-0.0147474
-0.0146077
-0.0144934
-0.0145112
-0.01459
-0.0144936
-0.0146079
-0.0145899
-0.0144925
-0.0146088
-0.0146075
-0.0145113
-0.0144935
-0.01459
-0.0144938
-0.0145899
-0.0146078
-0.0144926
-0.0144927
-0.0146089
-0.0146088
-0.0146087
-0.0149238
-0.0148077
-0.0148077
-0.0149239
-0.0148076
-0.0149239
-0.0149239
-0.0148076
-0.0148075
-0.0149239
-0.0148262
-0.0148262
-0.0148262
-0.0150625
-0.0150625
-0.0150625
-0.0150625
-0.0149227
-0.0148084
-0.0148262
-0.0149051
-0.0148086
-0.014923
-0.014905
-0.0148075
-0.0149239
-0.0149226
-0.0148262
-0.0148085
-0.0149051
-0.0148087
-0.014905
-0.0149229
-0.0148077
-0.0148077
-0.014924
-0.0149238
-0.0149237
-0.0152386
-0.0151226
-0.0151227
-0.0152387
-0.0151226
-0.0152387
-0.0152387
-0.0151225
-0.0151225
-0.0152387
-0.0151413
-0.0151412
-0.0151413
-0.0153771
-0.0153771
-0.0153771
-0.0153771
-0.0152376
-0.0151234
-0.0151412
-0.01522
-0.0151237
-0.0152378
-0.0152199
-0.0151225
-0.0152387
-0.0152374
-0.0151412
-0.0151235
-0.0152199
-0.0151238
-0.0152199
-0.0152377
-0.0151226
-0.0151227
-0.0152389
-0.0152386
-0.0152386
-0.0155528
-0.0154372
-0.0154373
-0.0155529
-0.0154372
-0.015553
-0.0155529
-0.0154371
-0.0154371
-0.0155529
-0.0154556
-0.0154556
-0.0154556
-0.0156904
-0.0156904
-0.0156903
-0.0156904
-0.0155517
-0.015438
-0.0154556
-0.0155341
-0.0154382
-0.015552
-0.015534
-0.015437
-0.0155529
-0.0155515
-0.0154556
-0.015438
-0.0155341
-0.0154383
-0.015534
-0.0155519
-0.0154372
-0.0154372
-0.015553
-0.0155528
-0.0155527
-0.0158651
-0.0157502
-0.0157503
-0.0158652
-0.0157502
-0.0158653
-0.0158652
-0.0157502
-0.0157501
-0.0158653
-0.0157685
-0.0157685
-0.0157684
-0.0160025
-0.015864
-0.015751
-0.0157685
-0.0158466
-0.0157511
-0.0158643
-0.0158465
-0.0157501
-0.0158652
-0.0158638
-0.0157684
-0.015751
-0.0158465
-0.0157512
-0.0158464
-0.0158641
-0.0157501
-0.0157502
-0.0158653
-0.0158651
-0.015865
-0.0108033
-0.0106844
-0.0108034
-0.0106843
-0.0108021
-0.0106851
-0.0107033
-0.0107839
-0.0107839
-0.0106855
-0.0108023
-0.0108021
-0.0106852
-0.0107034
-0.010784
-0.0108024
-0.0107839
-0.0106855
-0.0108456
-0.0109641
-0.010964
-0.0108454
-0.0108456
-0.0109642
-0.0108455
-0.010964
-0.0108466
-0.0108643
-0.0109631
-0.0109446
-0.0108643
-0.0109628
-0.0108463
-0.0108466
-0.0108644
-0.0109631
-0.0109446
-0.0108464
-0.0108643
-0.0109628
-0.0106845
-0.0106844
-0.0108031
-0.0108032
-0.0108032
-0.0106843
-0.0108033
-0.0109642
-0.0108455
-0.0108452
-0.010964
-0.0109639
-0.0108456
-0.0108453
-0.010964
-0.0108452
-0.0108018
-0.0106851
-0.0107033
-0.0107838
-0.0107837
-0.0106853
-0.0108022
-0.010803
-0.0106843
-0.0108031
-0.0106842
-0.0108019
-0.0107033
-0.0106851
-0.0107837
-0.0107837
-0.0108021
-0.0106853
-0.0108451
-0.0109639
-0.0109639
-0.0108451
-0.0108462
-0.0108642
-0.010963
-0.0109445
-0.0108641
-0.0109626
-0.010846
-0.0108451
-0.0109639
-0.010845
-0.0109638
-0.0108462
-0.0108641
-0.0109444
-0.0109629
-0.0108641
-0.0108459
-0.0109627
-0.0108032
-0.0106843
-0.0108032
-0.0106844
-0.010802
-0.0107034
-0.0106853
-0.0107839
-0.0107839
-0.0108023
-0.0106854
-0.0108032
-0.0106844
-0.0108032
-0.0106844
-0.0108463
-0.0108643
-0.010963
-0.0109445
-0.0108461
-0.0108642
-0.0109627
-0.0108452
-0.010964
-0.0108452
-0.010964
-0.0108463
-0.0108642
-0.0109445
-0.010963
-0.0108642
-0.0108461
-0.0109627
-0.0108452
-0.010964
-0.0108452
-0.010964
-0.0106843
-0.0106845
-0.0108029
-0.010803
-0.0108029
-0.0106843
-0.0108031
-0.0109639
-0.010845
-0.010845
-0.0109637
-0.0109637
-0.0108451
-0.0108452
-0.0109638
-0.0108451
-0.0108018
-0.0107036
-0.0106853
-0.010784
-0.0107839
-0.0108021
-0.0106855
-0.010803
-0.0106844
-0.0108031
-0.0106845
-0.010803
-0.0106844
-0.0108031
-0.0106845
-0.0108464
-0.0108642
-0.0109444
-0.0109628
-0.0108641
-0.010846
-0.0109625
-0.0108464
-0.0108642
-0.0109444
-0.0109629
-0.0108641
-0.0108461
-0.0109625
-0.0108453
-0.0109638
-0.0108451
-0.0109637
-0.0108453
-0.0109639
-0.0108452
-0.0109637
-0.0106843
-0.0108032
-0.0106844
-0.0108032
-0.0108451
-0.0109638
-0.0109637
-0.0108453
-0.0108453
-0.010964
-0.0108452
-0.0109639
-0.0108452
-0.011006
-0.0111242
-0.0110058
-0.0111243
-0.0110061
-0.0110059
-0.011124
-0.0111241
-0.0111241
-0.011284
-0.011166
-0.0112841
-0.011166
-0.0111659
-0.0112838
-0.0112839
-0.0111661
-0.0111661
-0.0111241
-0.0110061
-0.0110061
-0.0111243
-0.0111229
-0.0110069
-0.0110249
-0.011105
-0.0110073
-0.0111232
-0.011105
-0.0111229
-0.0110069
-0.0110249
-0.011105
-0.0110073
-0.0111232
-0.011105
-0.0111661
-0.0112839
-0.0111661
-0.0112838
-0.0111661
-0.011284
-0.0111661
-0.0112838
-0.0111671
-0.0111849
-0.011283
-0.0112647
-0.0111669
-0.0111849
-0.0112826
-0.0111672
-0.0111849
-0.011283
-0.0112647
-0.0111669
-0.0111848
-0.0112826
-0.0110062
-0.011006
-0.0111241
-0.0111241
-0.0111242
-0.0110059
-0.0111243
-0.011284
-0.0111661
-0.0111659
-0.0112838
-0.0112839
-0.0111662
-0.0111661
-0.0112841
-0.011166
-0.0111229
-0.0110067
-0.0110248
-0.0111049
-0.0110069
-0.0111232
-0.0111049
-0.0111241
-0.0110058
-0.0110058
-0.0111242
-0.0111229
-0.0110248
-0.0110066
-0.0111049
-0.0110069
-0.0111049
-0.0111232
-0.0111659
-0.0112841
-0.011166
-0.011284
-0.011167
-0.0111849
-0.0112831
-0.0112647
-0.0111669
-0.0111848
-0.0112828
-0.0111659
-0.011284
-0.0111659
-0.011284
-0.011167
-0.0111849
-0.0112647
-0.0112831
-0.0111848
-0.0111668
-0.0112828
-0.0111242
-0.0110059
-0.0110059
-0.0111243
-0.011123
-0.0110249
-0.0110067
-0.011105
-0.011007
-0.0111049
-0.0111233
-0.0111242
-0.0110059
-0.0110059
-0.0111243
-0.0111671
-0.011185
-0.0112831
-0.0112647
-0.0111669
-0.0111849
-0.0112828
-0.011166
-0.0112841
-0.011166
-0.011284
-0.0111671
-0.0111849
-0.0112647
-0.0112831
-0.0111849
-0.0111669
-0.0112828
-0.011166
-0.011284
-0.011166
-0.011284
-0.0110058
-0.0110059
-0.011124
-0.0111241
-0.011124
-0.0110058
-0.0111242
-0.0112841
-0.0111659
-0.0111658
-0.0112839
-0.0112838
-0.011166
-0.0111661
-0.011284
-0.011166
-0.0111228
-0.0110248
-0.0110068
-0.011105
-0.011007
-0.0111049
-0.0111231
-0.011124
-0.0110058
-0.0110059
-0.0111241
-0.011124
-0.0110059
-0.0110059
-0.0111242
-0.0111671
-0.0111849
-0.0112647
-0.011283
-0.0111848
-0.0111669
-0.0112826
-0.0111671
-0.0111849
-0.0112647
-0.011283
-0.0111848
-0.0111669
-0.0112826
-0.011166
-0.011284
-0.011166
-0.0112838
-0.0111661
-0.011284
-0.011166
-0.0112838
-0.0110059
-0.0111243
-0.0110058
-0.0111242
-0.0111659
-0.0112839
-0.0112838
-0.0111661
-0.0111661
-0.0112841
-0.011166
-0.011284
-0.011166
-0.0113257
-0.0114434
-0.0113257
-0.0114435
-0.0113258
-0.0113258
-0.0114433
-0.0114433
-0.0114433
-0.0116026
-0.011485
-0.0116026
-0.011485
-0.0114848
-0.0116024
-0.0116025
-0.0114851
-0.0114851
-0.0114433
-0.0113257
-0.0113258
-0.0114434
-0.0114421
-0.0113266
-0.0113445
-0.0114243
-0.0113269
-0.0114424
-0.0114242
-0.0114421
-0.0113266
-0.0113445
-0.0114243
-0.0113269
-0.0114424
-0.0114242
-0.0114851
-0.0116026
-0.0114851
-0.0116024
-0.0114852
-0.0116026
-0.0114851
-0.0116024
-0.0114862
-0.0115039
-0.0116016
-0.0115834
-0.011486
-0.0115038
-0.0116012
-0.0114862
-0.0115039
-0.0116016
-0.0115834
-0.011486
-0.0115038
-0.0116012
-0.0113259
-0.0113258
-0.0114433
-0.0114432
-0.0114434
-0.0113257
-0.0114435
-0.0116026
-0.0114851
-0.0114849
-0.0116025
-0.0116024
-0.0114852
-0.0114851
-0.0116026
-0.0114851
-0.0114422
-0.0113266
-0.0113445
-0.0114243
-0.0113268
-0.0114425
-0.0114242
-0.0114435
-0.0113257
-0.0113257
-0.0114435
-0.0114422
-0.0113445
-0.0113266
-0.0114243
-0.0113268
-0.0114242
-0.0114425
-0.011485
-0.0116026
-0.0114851
-0.0116025
-0.0114861
-0.0115039
-0.0116016
-0.0115833
-0.0114859
-0.0115038
-0.0116013
-0.011485
-0.0116026
-0.011485
-0.0116025
-0.0114861
-0.0115039
-0.0115833
-0.0116016
-0.0115038
-0.0114859
-0.0116013
-0.0114435
-0.0113257
-0.0113257
-0.0114435
-0.0114423
-0.0113446
-0.0113266
-0.0114243
-0.0113268
-0.0114243
-0.0114425
-0.0114435
-0.0113257
-0.0113257
-0.0114435
-0.0114861
-0.0115039
-0.0116016
-0.0115834
-0.0114859
-0.0115038
-0.0116013
-0.0114851
-0.0116026
-0.0114851
-0.0116026
-0.0114861
-0.0115039
-0.0115834
-0.0116016
-0.0115038
-0.0114859
-0.0116014
-0.0114851
-0.0116026
-0.0114851
-0.0116026
-0.0113258
-0.0113258
-0.0114433
-0.0114433
-0.0114433
-0.0113257
-0.0114435
-0.0116026
-0.011485
-0.0114849
-0.0116024
-0.0116024
-0.0114851
-0.0114851
-0.0116025
-0.011485
-0.0114421
-0.0113445
-0.0113267
-0.0114243
-0.0113269
-0.0114242
-0.0114424
-0.0114433
-0.0113258
-0.0113258
-0.0114434
-0.0114433
-0.0113258
-0.0113258
-0.0114434
-0.0114862
-0.0115039
-0.0115834
-0.0116015
-0.0115038
-0.011486
-0.0116012
-0.0114862
-0.0115039
-0.0115834
-0.0116015
-0.0115038
-0.011486
-0.0116011
-0.0114852
-0.0116025
-0.0114851
-0.0116024
-0.0114852
-0.0116025
-0.0114851
-0.0116024
-0.0113257
-0.0114435
-0.0113257
-0.0114434
-0.0114849
-0.0116025
-0.0116024
-0.0114852
-0.0114852
-0.0116026
-0.0114851
-0.0116025
-0.011485
-0.0116441
-0.0117614
-0.0116441
-0.0117614
-0.0116442
-0.0116442
-0.0117613
-0.0117612
-0.0117613
-0.0119199
-0.0118029
-0.0119199
-0.0118028
-0.0118027
-0.0119197
-0.0119198
-0.011803
-0.0118029
-0.0117613
-0.0116442
-0.0116442
-0.0117614
-0.01176
-0.0116451
-0.0116629
-0.0117424
-0.0116453
-0.0117604
-0.0117423
-0.01176
-0.011645
-0.0116629
-0.0117424
-0.0116453
-0.0117604
-0.0117423
-0.0118029
-0.0119199
-0.0118029
-0.0119198
-0.0118029
-0.0119198
-0.0118029
-0.0119197
-0.011804
-0.0118217
-0.0119189
-0.0119009
-0.0118038
-0.0118216
-0.0119185
-0.011804
-0.0118217
-0.0119189
-0.0119009
-0.0118038
-0.0118216
-0.0119185
-0.0116443
-0.0116442
-0.0117613
-0.0117612
-0.0117613
-0.0116441
-0.0117614
-0.0119199
-0.0118028
-0.0118027
-0.0119197
-0.0119197
-0.011803
-0.0118029
-0.0119199
-0.0118028
-0.0117601
-0.011645
-0.0116628
-0.0117423
-0.0116452
-0.0117604
-0.0117423
-0.0117614
-0.0116441
-0.0116441
-0.0117614
-0.0117602
-0.0116629
-0.0116449
-0.0117423
-0.0116451
-0.0117423
-0.0117604
-0.0118028
-0.0119199
-0.0118028
-0.0119199
-0.0118038
-0.0118217
-0.011919
-0.0119008
-0.0118037
-0.0118216
-0.0119187
-0.0118028
-0.0119199
-0.0118028
-0.0119198
-0.0118038
-0.0118216
-0.0119008
-0.0119189
-0.0118216
-0.0118036
-0.0119187
-0.0117613
-0.0116441
-0.0116441
-0.0117614
-0.0117601
-0.0116629
-0.011645
-0.0117423
-0.0116452
-0.0117423
-0.0117604
-0.0117613
-0.0116441
-0.0116441
-0.0117613
-0.0118038
-0.0118216
-0.0119189
-0.0119008
-0.0118037
-0.0118216
-0.0119186
-0.0118027
-0.0119198
-0.0118028
-0.0119198
-0.0118038
-0.0118216
-0.0119008
-0.0119189
-0.0118215
-0.0118036
-0.0119186
-0.0118027
-0.0119198
-0.0118027
-0.0119198
-0.0116441
-0.0116442
-0.0117613
-0.0117612
-0.0117612
-0.0116441
-0.0117613
-0.0119199
-0.0118027
-0.0118026
-0.0119197
-0.0119196
-0.0118029
-0.0118029
-0.0119198
-0.0118028
-0.0117599
-0.0116629
-0.011645
-0.0117423
-0.0116453
-0.0117422
-0.0117603
-0.0117611
-0.0116441
-0.0116442
-0.0117613
-0.0117612
-0.0116441
-0.0116442
-0.0117613
-0.0118039
-0.0118216
-0.0119008
-0.0119188
-0.0118215
-0.0118037
-0.0119185
-0.0118039
-0.0118216
-0.0119008
-0.0119188
-0.0118215
-0.0118037
-0.0119184
-0.0118029
-0.0119198
-0.0118028
-0.0119196
-0.0118029
-0.0119198
-0.0118028
-0.0119196
-0.011644
-0.0117613
-0.011644
-0.0117613
-0.0118026
-0.0119197
-0.0119196
-0.0118028
-0.0118029
-0.0119198
-0.0118027
-0.0119198
-0.0118028
-0.0119613
-0.0120782
-0.0119612
-0.0120782
-0.0119614
-0.0119614
-0.0120783
-0.0120781
-0.0120781
-0.0122367
-0.0121196
-0.0122367
-0.0121196
-0.0121196
-0.0122365
-0.0122366
-0.0121197
-0.0121197
-0.0120781
-0.0119613
-0.0119614
-0.0120782
-0.012077
-0.0119623
-0.0119802
-0.0120594
-0.0119626
-0.0120772
-0.0120594
-0.0120769
-0.0119622
-0.0119801
-0.0120594
-0.0119625
-0.0120772
-0.0120593
-0.0121198
-0.0122366
-0.0121197
-0.0122366
-0.0121197
-0.0122366
-0.0121196
-0.0122365
-0.0121208
-0.0121386
-0.0122357
-0.0122178
-0.0121206
-0.0121385
-0.0122354
-0.0121208
-0.0121385
-0.0122357
-0.0122177
-0.0121206
-0.0121385
-0.0122354
-0.0119614
-0.0119613
-0.0120782
-0.012078
-0.0120781
-0.0119612
-0.0120782
-0.0122367
-0.0121196
-0.0121195
-0.0122365
-0.0122365
-0.0121197
-0.0121196
-0.0122366
-0.0121195
-0.0120771
-0.0119622
-0.0119801
-0.0120594
-0.0119624
-0.0120773
-0.0120593
-0.0120782
-0.0119612
-0.0119613
-0.0120782
-0.0120771
-0.0119801
-0.0119621
-0.0120593
-0.0119624
-0.0120593
-0.0120773
-0.0121196
-0.0122367
-0.0121196
-0.0122367
-0.0121207
-0.0121386
-0.0122358
-0.0122177
-0.0121205
-0.0121385
-0.0122355
-0.0121196
-0.0122367
-0.0121196
-0.0122367
-0.0121207
-0.0121385
-0.0122177
-0.0122358
-0.0121385
-0.0121205
-0.0122355
-0.0120781
-0.0119612
-0.0119612
-0.0120782
-0.012077
-0.0119801
-0.0119621
-0.0120593
-0.0119623
-0.0120593
-0.0120772
-0.0120781
-0.0119612
-0.0119612
-0.0120781
-0.0121206
-0.0121385
-0.0122357
-0.0122176
-0.0121204
-0.0121384
-0.0122354
-0.0121195
-0.0122366
-0.0121195
-0.0122366
-0.0121206
-0.0121384
-0.0122176
-0.0122357
-0.0121384
-0.0121204
-0.0122354
-0.0121195
-0.0122366
-0.0121195
-0.0122366
-0.0119613
-0.0119613
-0.0120782
-0.0120781
-0.012078
-0.0119612
-0.0120782
-0.0122367
-0.0121196
-0.0121195
-0.0122366
-0.0122365
-0.0121197
-0.0121197
-0.0122366
-0.0121195
-0.0120769
-0.0119801
-0.0119622
-0.0120593
-0.0119625
-0.0120593
-0.0120771
-0.012078
-0.0119612
-0.0119613
-0.0120781
-0.012078
-0.0119612
-0.0119613
-0.0120781
-0.0121208
-0.0121385
-0.0122177
-0.0122356
-0.0121385
-0.0121205
-0.0122353
-0.0121208
-0.0121385
-0.0122177
-0.0122356
-0.0121384
-0.0121205
-0.0122353
-0.0121197
-0.0122366
-0.0121196
-0.0122365
-0.0121196
-0.0122365
-0.0121195
-0.0122365
-0.0119611
-0.0120781
-0.0119612
-0.0120781
-0.0121194
-0.0122365
-0.0122364
-0.0121196
-0.0121196
-0.0122366
-0.0121195
-0.0122366
-0.0121195
-0.0122781
-0.0123953
-0.0122781
-0.0123953
-0.0122783
-0.0122782
-0.0123953
-0.0123951
-0.0123952
-0.0125536
-0.0124367
-0.0125537
-0.0124366
-0.0124366
-0.0125535
-0.0125536
-0.0124368
-0.0124367
-0.0123951
-0.0122782
-0.0122782
-0.0123952
-0.0123939
-0.0122791
-0.012297
-0.0123763
-0.0122794
-0.0123943
-0.0123763
-0.0123939
-0.0122791
-0.012297
-0.0123763
-0.0122794
-0.0123942
-0.0123763
-0.0124367
-0.0125536
-0.0124367
-0.0125535
-0.0124367
-0.0125535
-0.0124366
-0.0125534
-0.0124378
-0.0124556
-0.0125526
-0.0125347
-0.0124376
-0.0124555
-0.0125523
-0.0124378
-0.0124555
-0.0125526
-0.0125347
-0.0124376
-0.0124555
-0.0125523
-0.0122782
-0.0122781
-0.0123952
-0.012395
-0.012395
-0.012278
-0.0123952
-0.0125535
-0.0124366
-0.0124365
-0.0125534
-0.0125534
-0.0124367
-0.0124366
-0.0125535
-0.0124365
-0.0123941
-0.012279
-0.012297
-0.0123763
-0.0122793
-0.0123943
-0.0123763
-0.0123953
-0.0122781
-0.0122781
-0.0123953
-0.0123941
-0.012297
-0.012279
-0.0123763
-0.0122793
-0.0123763
-0.0123944
-0.0124367
-0.0125537
-0.0124366
-0.0125537
-0.0124378
-0.0124556
-0.0125527
-0.0125347
-0.0124376
-0.0124555
-0.0125525
-0.0124367
-0.0125537
-0.0124367
-0.0125537
-0.0124378
-0.0124555
-0.0125347
-0.0125527
-0.0124555
-0.0124376
-0.0125525
-0.0123951
-0.012278
-0.012278
-0.0123952
-0.012394
-0.0122969
-0.0122789
-0.0123762
-0.0122791
-0.0123762
-0.0123942
-0.0123951
-0.012278
-0.012278
-0.0123951
-0.0124376
-0.0124555
-0.0125526
-0.0125346
-0.0124374
-0.0124554
-0.0125523
-0.0124365
-0.0125535
-0.0124365
-0.0125535
-0.0124376
-0.0124554
-0.0125346
-0.0125526
-0.0124554
-0.0124374
-0.0125523
-0.0124365
-0.0125535
-0.0124365
-0.0125535
-0.0122782
-0.0122782
-0.0123953
-0.0123952
-0.0123951
-0.012278
-0.0123952
-0.0125537
-0.0124366
-0.0124366
-0.0125536
-0.0125535
-0.0124368
-0.0124368
-0.0125537
-0.0124366
-0.0123939
-0.012297
-0.012279
-0.0123763
-0.0122793
-0.0123762
-0.0123942
-0.0123951
-0.0122781
-0.0122782
-0.0123952
-0.012395
-0.0122781
-0.0122782
-0.0123951
-0.0124378
-0.0124556
-0.0125347
-0.0125526
-0.0124555
-0.0124376
-0.0125523
-0.0124378
-0.0124555
-0.0125347
-0.0125526
-0.0124555
-0.0124376
-0.0125523
-0.0124367
-0.0125536
-0.0124367
-0.0125535
-0.0124367
-0.0125536
-0.0124366
-0.0125535
-0.012278
-0.0123951
-0.012278
-0.0123951
-0.0124364
-0.0125534
-0.0125534
-0.0124366
-0.0124367
-0.0125535
-0.0124365
-0.0125536
-0.0124365
-0.012595
-0.0127119
-0.012595
-0.012712
-0.0125951
-0.0125951
-0.012712
-0.0127118
-0.0127118
-0.0128705
-0.0127533
-0.0128705
-0.0127533
-0.0127533
-0.0128703
-0.0128704
-0.0127535
-0.0127534
-0.0127117
-0.012595
-0.0125951
-0.0127118
-0.0127106
-0.012596
-0.0126139
-0.0126931
-0.0125963
-0.0127109
-0.0126931
-0.0127106
-0.0125959
-0.0126139
-0.0126931
-0.0125962
-0.0127109
-0.0126931
-0.0127534
-0.0128705
-0.0127534
-0.0128703
-0.0127534
-0.0128704
-0.0127533
-0.0128703
-0.0127545
-0.0127723