/*--------------------------------*- C++ -*----------------------------------*\
| =========                 |                                                 |
| \\      /  F ield         | OpenFOAM: The Open Source CFD Toolbox           |
|  \\    /   O peration     | Version:  2206                                  |
|   \\  /    A nd           | Website:  www.openfoam.com                      |
|    \\/     M anipulation  |                                                 |
\*---------------------------------------------------------------------------*/
FoamFile
{
    version     2.0;
    format      ascii;
    arch        "LSB;label=32;scalar=64";
    class       volVectorField;
    location    "20";
    object      U;
}
// * * * * * * * * * * * * * * * * * * * * * * * * * * * * * * * * * * * * * //

dimensions      [0 1 -1 0 0 0 0];

internalField   nonuniform List<vector> 
66928
(
(-0.000245793 -0.000249493 0.115956)
(2.99065e-06 2.81258e-06 0.11925)
(-4.22388e-07 3.95754e-07 0.119193)
(-5.09401e-07 -1.67218e-06 0.119193)
(-0.000245248 0.000249884 0.115947)
(4.75486e-07 -6.52584e-08 0.119219)
(0.000238638 0.000240351 0.115955)
(-0.000245469 -0.00025192 0.115959)
(-1.1411e-06 -6.72947e-07 0.12178)
(-2.05197e-06 4.32717e-07 0.121773)
(-1.0395e-05 -1.79783e-05 0.0889295)
(-2.47963e-05 -1.39303e-05 0.0887895)
(-3.331e-05 -2.16658e-05 0.106793)
(-2.57186e-05 -3.32104e-05 0.106653)
(-8.23746e-06 -4.96599e-05 0.0990518)
(-3.86543e-05 -4.93452e-05 0.110616)
(-5.46116e-05 -1.18246e-05 0.0988598)
(-7.26309e-05 -8.55865e-07 0.109784)
(-5.42333e-05 -4.06496e-05 0.110482)
(-2.00368e-06 -1.52446e-06 0.120216)
(-6.53906e-05 -1.29264e-06 0.112618)
(-5.3925e-05 1.2144e-05 0.0988641)
(-7.19226e-05 4.18881e-07 0.109781)
(-2.5941e-06 3.99649e-07 0.120226)
(-5.34066e-05 3.95707e-05 0.110478)
(-6.59302e-05 7.35298e-07 0.112615)
(-2.42177e-05 1.40492e-05 0.0888018)
(-2.63583e-05 3.35211e-05 0.106657)
(-3.33216e-05 2.50497e-05 0.106805)
(-1.32439e-05 2.53678e-05 0.0889419)
(-3.99423e-05 5.20787e-05 0.110595)
(-1.21833e-05 5.54219e-05 0.0990972)
(1.5861e-05 2.84055e-05 0.0888317)
(-1.12466e-05 -2.38872e-05 0.08894)
(2.24945e-05 1.30538e-05 0.0887119)
(-2.4011e-05 -1.28975e-05 0.0887899)
(3.26735e-05 2.67269e-05 0.106785)
(2.56355e-05 3.31182e-05 0.106669)
(-0.000244919 -0.00025084 0.115957)
(-3.21566e-05 -2.69446e-05 0.106801)
(-2.58188e-05 -3.38268e-05 0.10665)
(-1.29614e-05 -2.65831e-05 0.0889537)
(1.47782e-05 2.22889e-05 0.0888451)
(-2.53714e-05 -1.26439e-05 0.0887892)
(2.26799e-05 1.36219e-05 0.0887108)
(0.000239725 0.000239296 0.115958)
(-3.3721e-05 -2.84705e-05 0.106797)
(-2.66e-05 -3.26186e-05 0.106647)
(3.43467e-05 2.22866e-05 0.106787)
(2.46359e-05 3.28035e-05 0.106666)
(1.5623e-05 3.05886e-05 0.0888286)
(2.79586e-05 8.56587e-05 0.10958)
(-2.27123e-05 -8.29358e-05 0.112104)
(3.17825e-05 2.82126e-05 0.106779)
(-2.15044e-05 -2.49727e-05 0.098291)
(2.39251e-05 2.98445e-05 0.0982144)
(2.75288e-05 8.48319e-05 0.112127)
(-2.59632e-05 -8.69444e-05 0.109556)
(8.58628e-05 2.30176e-05 0.109543)
(-8.38834e-05 -2.53474e-05 0.112056)
(2.512e-05 3.2971e-05 0.106671)
(-2.8025e-05 -2.26038e-05 0.0981304)
(2.60068e-05 2.07539e-05 0.0980736)
(8.59074e-05 2.33746e-05 0.1121)
(-8.61674e-05 -2.52879e-05 0.109507)
(2.71406e-05 2.80023e-05 0.102832)
(-2.31719e-05 -1.14298e-05 0.088314)
(-1.41259e-05 -2.24566e-05 0.0882543)
(2.47328e-05 1.55708e-05 0.088224)
(1.08926e-05 2.29999e-05 0.0881707)
(-2.73008e-05 -2.675e-05 0.102817)
(1.39064e-05 5.96173e-05 0.0989542)
(-1.10015e-05 -5.63943e-05 0.106192)
(7.06339e-06 6.54382e-05 0.106126)
(-8.60872e-07 -1.74454e-05 0.0871038)
(-6.17657e-05 -7.32596e-06 0.105951)
(-2.89738e-05 -1.16061e-06 0.086913)
(-7.08362e-05 -2.99429e-06 0.109061)
(-2.83147e-05 -4.64409e-08 0.0971345)
(-2.78324e-05 4.31713e-07 0.0947672)
(-5.99815e-05 8.80914e-06 0.105949)
(-2.72829e-05 1.89464e-06 0.0869206)
(-2.72533e-05 -3.91111e-07 0.0971336)
(-7.25256e-05 3.41854e-06 0.109059)
(-2.8519e-05 5.11226e-08 0.0947683)
(8.41399e-05 -2.34354e-05 0.109536)
(-8.36777e-05 2.56613e-05 0.11206)
(2.54038e-05 -3.26703e-05 0.106676)
(-2.72256e-05 2.27853e-05 0.0981347)
(8.49194e-05 -2.54964e-05 0.112104)
(2.5753e-05 -2.08103e-05 0.0980797)
(-8.41364e-05 2.60142e-05 0.109501)
(2.58166e-05 -8.51941e-05 0.10957)
(-2.31071e-05 8.51298e-05 0.112085)
(3.34267e-05 -2.33721e-05 0.106795)
(-2.38594e-05 2.86452e-05 0.0983143)
(2.19794e-05 -2.71219e-05 0.0982413)
(2.51549e-05 -8.30811e-05 0.11211)
(-2.6031e-05 8.71579e-05 0.109547)
(2.7187e-05 -2.53984e-05 0.10284)
(-1.40063e-05 2.33493e-05 0.0882695)
(-2.41931e-05 1.39812e-05 0.0883336)
(1.15936e-05 -2.1782e-05 0.0881842)
(2.2218e-05 -1.05881e-05 0.0882423)
(-2.80808e-05 2.75925e-05 0.102823)
(1.38746e-05 -2.23201e-05 0.0888413)
(1.02179e-05 -5.45735e-05 0.099013)
(-9.31895e-06 6.22253e-05 0.106234)
(7.0812e-06 -5.91834e-05 0.106191)
(-3.07273e-06 2.94915e-05 0.0871247)
(-1.07163e-05 -2.10421e-05 0.0889347)
(1.47795e-05 2.45565e-05 0.0888391)
(-2.48238e-05 -1.3207e-05 0.0887903)
(2.25589e-05 1.35375e-05 0.0887118)
(2.78354e-05 2.56157e-05 0.102832)
(-2.20953e-05 -1.39189e-05 0.0883169)
(-1.25253e-05 -2.30337e-05 0.0882515)
(2.35503e-05 1.2336e-05 0.0882245)
(1.2448e-05 2.21563e-05 0.0881647)
(-2.63847e-05 -2.86968e-05 0.102817)
(-2.53495e-05 -8.70453e-05 0.109557)
(2.79623e-05 8.49796e-05 0.112128)
(2.34169e-05 2.93698e-05 0.0982184)
(-3.23602e-05 -2.31973e-05 0.106798)
(2.75246e-05 8.49479e-05 0.109581)
(-2.2028e-05 -2.64635e-05 0.0982939)
(-2.24174e-05 -8.33161e-05 0.112106)
(-8.62896e-05 -2.64763e-05 0.109508)
(8.73206e-05 2.37274e-05 0.112099)
(2.65123e-05 2.16775e-05 0.0980723)
(-2.52076e-05 -3.30712e-05 0.106651)
(8.65205e-05 2.24269e-05 0.109544)
(-2.7792e-05 -2.31205e-05 0.0981293)
(-8.38437e-05 -2.64716e-05 0.112056)
(-2.70711e-05 -2.83471e-05 0.102815)
(2.30604e-05 1.34803e-05 0.088224)
(1.11333e-05 2.30427e-05 0.0881677)
(2.73091e-05 2.66479e-05 0.102832)
(-2.31071e-05 -1.30427e-05 0.0883166)
(-1.33095e-05 -2.33917e-05 0.0882528)
(2.85184e-05 8.50146e-05 0.109581)
(-2.14516e-05 -2.84274e-05 0.0982981)
(3.34249e-05 2.37256e-05 0.106785)
(-2.2327e-05 -8.58907e-05 0.112106)
(2.30232e-05 2.73381e-05 0.0982188)
(-2.62546e-05 -8.95184e-05 0.109556)
(2.82758e-05 8.36973e-05 0.112132)
(8.69289e-05 2.23101e-05 0.109546)
(-2.81634e-05 -2.29463e-05 0.0981291)
(2.52503e-05 3.30557e-05 0.106665)
(-8.45675e-05 -2.6221e-05 0.112056)
(2.65382e-05 2.1012e-05 0.0980654)
(-8.65195e-05 -2.65744e-05 0.109508)
(8.65367e-05 2.2806e-05 0.112102)
(1.34804e-05 2.08349e-05 0.088849)
(-1.18627e-05 -2.61038e-05 0.0889466)
(2.19774e-05 1.37356e-05 0.0887095)
(-2.48236e-05 -1.25875e-05 0.0887885)
(-2.72831e-05 -2.94034e-05 0.102816)
(2.38699e-05 1.1115e-05 0.0882264)
(1.23709e-05 2.20905e-05 0.0881636)
(2.76972e-05 2.48354e-05 0.102832)
(-2.26363e-05 -1.50497e-05 0.0883176)
(-1.33915e-05 -2.41904e-05 0.0882494)
(2.61431e-05 8.33716e-05 0.109578)
(-2.49769e-05 -8.59677e-05 0.112103)
(3.35146e-05 2.15348e-05 0.106786)
(-2.33192e-05 -2.9772e-05 0.0982993)
(2.23491e-05 2.55231e-05 0.0982217)
(2.64842e-05 8.26936e-05 0.112128)
(-2.79118e-05 -8.84625e-05 0.109554)
(8.54201e-05 2.20171e-05 0.109546)
(-8.66662e-05 -2.53061e-05 0.112055)
(2.45489e-05 3.36563e-05 0.106664)
(-2.87089e-05 -2.30171e-05 0.0981252)
(2.61558e-05 2.1131e-05 0.0980635)
(8.58192e-05 2.33923e-05 0.1121)
(-8.75926e-05 -2.54862e-05 0.109509)
(-2.65272e-05 -8.91903e-05 0.109555)
(2.34673e-05 2.6142e-05 0.0982228)
(2.79962e-05 8.22533e-05 0.112129)
(-3.20891e-05 -2.77077e-05 0.106799)
(2.74202e-05 8.30872e-05 0.10958)
(-2.20521e-05 -2.93151e-05 0.0982996)
(-2.27694e-05 -8.54437e-05 0.112105)
(-8.74104e-05 -2.68144e-05 0.109509)
(2.62646e-05 2.12947e-05 0.0980681)
(8.61133e-05 2.30121e-05 0.1121)
(-2.59739e-05 -3.34161e-05 0.106649)
(8.61394e-05 2.19409e-05 0.109545)
(-2.80089e-05 -2.31282e-05 0.0981283)
(-8.50793e-05 -2.62788e-05 0.112055)
(2.69807e-05 2.49968e-05 0.102829)
(-2.34379e-05 -1.45038e-05 0.0883212)
(-1.33634e-05 -2.36067e-05 0.0882502)
(2.27088e-05 1.03081e-05 0.0882274)
(1.15589e-05 2.13662e-05 0.0881623)
(-2.84268e-05 -2.89961e-05 0.102815)
(8.06004e-05 7.69475e-05 0.112437)
(0.000238862 0.000241612 0.115953)
(-0.000240303 -6.79532e-05 0.11421)
(-6.62826e-05 -0.000242725 0.11419)
(0.000242173 6.72674e-05 0.114227)
(6.62437e-05 0.000238339 0.114219)
(-8.16579e-05 -8.13806e-05 0.112416)
(7.68422e-05 -7.7994e-05 0.112433)
(0.0002363 -0.000239327 0.115943)
(-6.6637e-05 0.000241606 0.114195)
(-0.000237315 6.93542e-05 0.114188)
(6.50167e-05 -0.000239857 0.114223)
(0.000237983 -6.53977e-05 0.114208)
(-7.96178e-05 8.36393e-05 0.11241)
(-8.15384e-05 -8.15249e-05 0.112419)
(0.000242258 6.7305e-05 0.11423)
(6.68535e-05 0.000237827 0.114222)
(-0.000245719 -0.000250185 0.115957)
(8.02132e-05 7.61072e-05 0.11244)
(-0.000240418 -6.85983e-05 0.114212)
(-6.61901e-05 -0.000243162 0.114192)
(7.94517e-05 7.55028e-05 0.112443)
(0.000239374 0.000238612 0.115959)
(-0.000241658 -7.02318e-05 0.11421)
(-6.7535e-05 -0.000243143 0.114191)
(0.000241964 6.55284e-05 0.114231)
(6.57667e-05 0.000236865 0.114224)
(-8.28868e-05 -8.1746e-05 0.112418)
(-1.60734e-07 -8.8668e-08 0.122369)
(-1.39366e-06 -2.08371e-06 0.122376)
(1.75011e-06 0.000287366 0.114307)
(-5.92355e-06 -0.000277137 0.11363)
(3.70211e-05 5.6087e-05 0.11061)
(-1.23095e-05 -6.22226e-05 0.11198)
(1.1538e-05 0.000284846 0.113639)
(1.13491e-05 6.80117e-05 0.111975)
(1.35877e-06 -0.000283803 0.114321)
(0.000290623 2.1734e-06 0.114283)
(-0.000282239 -1.31094e-05 0.113566)
(5.48906e-05 3.65493e-05 0.110515)
(-6.61373e-05 -1.26595e-05 0.111872)
(0.00028845 1.02662e-05 0.113611)
(6.52627e-05 1.01604e-05 0.111912)
(-0.000295423 -5.00074e-06 0.114237)
(0.000283493 -1.92305e-07 0.114626)
(6.59576e-05 -1.10356e-06 0.112673)
(-6.78231e-05 -3.74146e-06 0.112433)
(-0.000274275 -6.25318e-07 0.114676)
(6.87843e-05 2.30518e-06 0.112482)
(0.000273403 -1.73851e-06 0.114755)
(-0.000280129 -2.8708e-06 0.114565)
(0.000286992 -2.94255e-06 0.114274)
(-0.00027853 1.23432e-05 0.113564)
(5.49831e-05 -3.69498e-05 0.11051)
(-6.57532e-05 1.33479e-05 0.111871)
(6.52499e-05 -1.01477e-05 0.111909)
(0.000284184 -1.16255e-05 0.113607)
(-0.000289145 4.21449e-06 0.114237)
(0.000278058 -5.3963e-07 0.114621)
(6.58498e-05 -9.9328e-07 0.11267)
(-0.000273614 -3.06996e-07 0.114672)
(-6.88965e-05 4.06182e-06 0.112432)
(0.000272588 6.94768e-07 0.114751)
(6.74891e-05 -3.12287e-06 0.11248)
(-0.00028203 2.35446e-06 0.114564)
(1.97995e-07 -0.000284968 0.114275)
(-7.75085e-06 0.000282936 0.113599)
(3.73158e-05 -5.20338e-05 0.110589)
(-1.21145e-05 6.64303e-05 0.111957)
(9.07982e-06 -0.00028386 0.113609)
(1.14207e-05 -6.26214e-05 0.111954)
(6.29327e-08 0.00029513 0.114277)
(8.07118e-05 7.62371e-05 0.112442)
(0.000238828 0.000239574 0.115959)
(-0.00024064 -6.98501e-05 0.114212)
(-6.60859e-05 -0.00024336 0.114192)
(-8.18476e-05 -8.2456e-05 0.11242)
(0.000242492 6.64253e-05 0.114233)
(6.65803e-05 0.000237412 0.114225)
(-8.24358e-05 -8.279e-05 0.112418)
(-0.000245022 -0.000251807 0.115958)
(0.000242461 6.5384e-05 0.114231)
(6.63793e-05 0.000237377 0.114224)
(8.04514e-05 7.56853e-05 0.112442)
(-0.000240092 -6.96968e-05 0.114211)
(-6.66508e-05 -0.000244204 0.114191)
(-7.33444e-07 -2.35832e-07 0.121781)
(7.19808e-07 -6.96344e-07 0.119189)
(4.67973e-07 -4.29952e-07 0.11922)
(-0.000236822 -0.000240146 0.115946)
(1.34458e-08 -2.89448e-06 0.121777)
(8.45103e-07 -1.7567e-06 0.119184)
(1.36167e-06 2.63565e-07 0.11921)
(-0.00023761 -0.000240424 0.115947)
(-6.19332e-07 -9.39646e-07 0.121773)
(2.41921e-06 7.50966e-07 0.11918)
(1.15922e-06 -4.23636e-07 0.119203)
(-0.000237826 -0.000240404 0.115944)
(-2.12026e-06 2.78245e-06 0.121773)
(1.94894e-06 2.51165e-06 0.119184)
(2.40679e-06 -1.18078e-06 0.119205)
(-0.000238738 -0.000240801 0.115946)
(-1.86189e-06 2.86509e-06 0.121775)
(1.06939e-06 1.93221e-06 0.119189)
(2.64796e-06 -1.34683e-06 0.119211)
(-0.000237968 -0.000240684 0.115949)
(-1.15583e-06 3.10454e-07 0.121775)
(1.09678e-06 3.41102e-07 0.119188)
(2.26475e-06 -1.26762e-06 0.119215)
(-0.000237634 -0.000240034 0.115948)
(-8.58909e-07 -3.43371e-07 0.121774)
(3.17003e-07 -2.89546e-08 0.119184)
(1.6758e-06 -1.10198e-06 0.119216)
(-0.000238489 -0.000240859 0.115947)
(-9.88964e-07 2.02666e-07 0.121774)
(-2.63507e-07 2.61319e-07 0.119186)
(2.08206e-06 -1.61109e-06 0.119216)
(-0.000239266 -0.000241753 0.115949)
(-7.89202e-07 5.37807e-07 0.121774)
(1.35025e-07 3.63704e-07 0.119188)
(1.88845e-06 -1.41359e-06 0.119217)
(-0.00023866 -0.000241369 0.11595)
(-8.10651e-07 -2.26328e-07 0.121774)
(1.10017e-06 1.59763e-07 0.119187)
(1.8912e-06 -6.57059e-07 0.119217)
(-0.000237582 -0.000240496 0.11595)
(-2.01609e-07 -7.09001e-07 0.121775)
(1.02875e-06 1.59345e-07 0.119185)
(2.61196e-06 -1.61002e-06 0.119214)
(-0.000238032 -0.000240792 0.115948)
(-2.77301e-07 -1.05781e-07 0.121776)
(6.79556e-08 2.57793e-07 0.119183)
(2.47817e-06 -2.06883e-06 0.119215)
(-0.000238358 -0.000240711 0.115948)
(-7.33581e-07 -6.32087e-07 0.121775)
(3.96311e-08 3.00309e-07 0.119184)
(1.93145e-06 -1.57177e-06 0.119215)
(-0.000238715 -0.000241656 0.11595)
(-5.25071e-07 7.52179e-08 0.121777)
(9.44606e-08 7.20422e-07 0.119189)
(2.82427e-06 -2.10235e-06 0.119219)
(-0.000238897 -0.00024165 0.115954)
(-4.25422e-07 3.48186e-07 0.121776)
(6.25778e-07 3.17546e-07 0.119188)
(2.48505e-06 -1.60947e-06 0.119221)
(-0.0002386 -0.000241289 0.115952)
(-8.05222e-07 -1.12137e-07 0.121775)
(1.14355e-06 -3.23458e-07 0.119188)
(1.84774e-06 -6.86536e-07 0.11922)
(-0.000238145 -0.000241038 0.115952)
(-7.74719e-07 -1.47769e-07 0.121774)
(7.28241e-07 4.493e-07 0.119187)
(2.01608e-06 -9.60875e-07 0.11922)
(-0.000237462 -0.000240492 0.115951)
(1.77322e-06 2.61444e-06 0.119247)
(-2.14735e-06 2.04565e-06 0.119242)
(3.98933e-06 2.08741e-07 0.119247)
(-4.05898e-06 -9.01186e-08 0.119245)
(-0.000237775 0.000240498 0.115957)
(0.000245126 -0.000251111 0.115957)
(-1.20343e-06 -1.031e-06 0.119191)
(-1.89773e-07 -2.83056e-07 0.119191)
(-7.49455e-07 -1.74387e-06 0.119188)
(-9.99797e-07 -6.0703e-08 0.119185)
(7.27704e-07 2.67625e-07 0.119198)
(1.16603e-06 -1.30558e-06 0.119186)
(6.7504e-07 -3.72805e-07 0.119197)
(0.000235814 -0.000237785 0.115944)
(-0.000245353 0.000250271 0.115944)
(-8.39668e-07 4.67756e-10 0.119221)
(1.6377e-06 5.63605e-07 0.119214)
(-1.64749e-06 8.67059e-08 0.119216)
(0.000246454 0.000252119 0.115947)
(0.000237868 0.000238336 0.115958)
(-0.000247905 -0.000248321 0.115954)
(3.66036e-06 -3.58186e-07 0.119244)
(-3.68217e-06 -3.09225e-07 0.119243)
(2.31585e-06 2.18883e-06 0.119241)
(-2.00118e-06 2.78417e-06 0.119239)
(-0.000237998 0.000240223 0.115956)
(0.000248198 -0.000247973 0.115956)
(-9.4262e-07 -2.18955e-06 0.119184)
(-7.30997e-07 -2.00865e-07 0.119182)
(-2.09805e-06 1.06714e-07 0.119178)
(-3.92732e-07 -7.15019e-07 0.119178)
(2.64192e-07 -1.98167e-07 0.119195)
(2.22233e-06 2.7488e-07 0.11918)
(4.28578e-07 -9.72577e-07 0.119194)
(0.00023645 -0.000238445 0.115944)
(-0.000244802 0.00024946 0.115945)
(-1.27535e-06 -2.99592e-07 0.119214)
(1.68228e-06 -3.66466e-07 0.119206)
(-1.48783e-06 -1.78335e-07 0.119211)
(0.000245874 0.000251584 0.115945)
(0.000236029 0.00024219 0.115954)
(-0.000247488 -0.000247433 0.115954)
(9.92665e-07 3.22593e-06 0.119239)
(-7.13962e-07 3.611e-06 0.119235)
(9.647e-07 5.48207e-06 0.119238)
(-4.41576e-07 5.70525e-06 0.119234)
(-0.000235112 0.000242864 0.115955)
(0.000248405 -0.000247922 0.115957)
(-2.31014e-06 4.43608e-07 0.119176)
(-6.3555e-07 2.21265e-08 0.119176)
(-1.71579e-06 3.30931e-06 0.119178)
(2.74398e-07 3.16557e-07 0.11918)
(3.33778e-07 -4.02216e-07 0.119191)
(2.71535e-06 2.50434e-06 0.119183)
(3.26599e-08 -7.57053e-08 0.119193)
(0.000236621 -0.000238632 0.115945)
(-0.000244117 0.000250268 0.115947)
(-1.32097e-06 -4.09564e-07 0.11921)
(2.32522e-06 -5.1431e-07 0.119204)
(-2.14572e-06 -3.31883e-07 0.119213)
(0.000245427 0.00025219 0.115946)
(0.000238136 0.000243791 0.115953)
(-0.000246318 -0.000249086 0.115952)
(9.63839e-07 5.74022e-06 0.119235)
(-1.42222e-07 5.57465e-06 0.119232)
(2.31921e-06 5.02254e-06 0.119235)
(-1.7273e-06 4.94786e-06 0.119231)
(-0.000236055 0.000243806 0.115957)
(0.000245986 -0.00024851 0.115958)
(-7.77426e-07 3.16701e-06 0.119179)
(6.76686e-07 5.57842e-07 0.119181)
(1.69574e-07 3.5082e-06 0.119186)
(1.01521e-06 -5.84857e-07 0.119189)
(-2.56333e-07 3.82186e-07 0.119192)
(1.49291e-06 2.54702e-06 0.119189)
(-1.08664e-07 -7.90379e-07 0.119197)
(0.000238669 -0.000239297 0.115947)
(-0.000244137 0.00024959 0.115949)
(-1.91408e-06 -6.40463e-07 0.119214)
(2.6817e-06 -9.31374e-07 0.11921)
(-2.69554e-06 -1.09873e-06 0.119219)
(0.000246191 0.00025186 0.11595)
(0.000239152 0.000242136 0.115951)
(-0.000246455 -0.000250592 0.115949)
(2.17608e-06 4.36525e-06 0.119232)
(-1.63343e-06 4.71733e-06 0.119228)
(3.1586e-06 3.29859e-06 0.119232)
(-3.09028e-06 3.21114e-06 0.119228)
(-0.000238042 0.000242154 0.115958)
(0.000246021 -0.000249681 0.115957)
(1.44563e-07 2.63837e-06 0.119186)
(9.90984e-07 -5.62221e-07 0.119188)
(1.96212e-07 1.57299e-06 0.119189)
(7.27584e-07 -9.83761e-07 0.119196)
(2.53041e-08 9.30741e-09 0.119196)
(1.054e-06 1.35846e-06 0.11919)
(5.70003e-07 -4.93172e-07 0.119199)
(0.000238399 -0.000239691 0.115949)
(-0.000245225 0.000250392 0.11595)
(-2.00964e-06 -1.24092e-06 0.119218)
(2.88561e-06 -1.08827e-06 0.119215)
(-2.39798e-06 -1.02045e-06 0.11922)
(0.000246012 0.000252242 0.115949)
(0.000239661 0.000241363 0.115948)
(-0.000246839 -0.000251201 0.115948)
(2.98263e-06 2.89641e-06 0.11923)
(-2.65401e-06 2.85009e-06 0.119225)
(2.43481e-06 2.01211e-06 0.119232)
(-2.76041e-06 1.72847e-06 0.119224)
(-0.000236445 0.000239839 0.115955)
(0.000245351 -0.000250155 0.115956)
(4.48291e-07 8.60072e-07 0.119188)
(5.65282e-07 -7.6284e-07 0.119193)
(-2.88276e-07 3.98443e-07 0.119189)
(1.71881e-07 -6.19877e-07 0.119195)
(1.62503e-07 -5.8297e-08 0.119197)
(9.75246e-07 1.18009e-07 0.119185)
(-1.24847e-08 -6.18134e-07 0.119197)
(0.000237852 -0.000239417 0.115949)
(-0.000245127 0.000250493 0.11595)
(-1.92196e-06 -1.08178e-06 0.119218)
(2.03682e-06 -6.46643e-07 0.119218)
(-2.57616e-06 -5.09143e-07 0.11922)
(0.000245675 0.000251824 0.115947)
(0.000239025 0.000240712 0.115947)
(-0.00024771 -0.000251201 0.115952)
(2.03786e-06 1.75408e-06 0.11923)
(-2.78626e-06 1.75139e-06 0.119221)
(2.52282e-06 2.0586e-06 0.119233)
(-3.77753e-06 2.42878e-06 0.119224)
(-0.000237759 0.000240056 0.115955)
(0.000245716 -0.000250208 0.115956)
(-2.68727e-07 1.18506e-07 0.119188)
(2.83636e-07 -2.22106e-07 0.119192)
(-9.16343e-08 7.72392e-07 0.119191)
(2.9769e-07 -1.1435e-06 0.119196)
(-4.2921e-07 -3.6542e-07 0.119196)
(2.893e-08 8.77843e-07 0.119186)
(-6.82457e-07 -1.16339e-06 0.1192)
(0.000237987 -0.000239443 0.11595)
(-0.000245552 0.000250081 0.115952)
(-2.16159e-06 -8.76768e-07 0.119218)
(2.43139e-06 -9.90963e-07 0.119218)
(-3.04798e-06 -1.28952e-06 0.11922)
(0.000245327 0.00025134 0.115949)
(0.000238621 0.000241353 0.115951)
(-0.000247727 -0.000250803 0.115952)
(2.28362e-06 2.18014e-06 0.11923)
(-3.27891e-06 2.63063e-06 0.119223)
(2.39139e-06 2.28032e-06 0.11923)
(-2.92995e-06 2.2304e-06 0.119226)
(-0.000239029 0.000241935 0.115954)
(0.000245858 -0.0002498 0.115956)
(1.27547e-07 6.44238e-07 0.119191)
(2.45178e-07 -1.10838e-06 0.119194)
(-4.97282e-07 1.09135e-06 0.119192)
(-1.04985e-07 -1.03295e-06 0.119196)
(-1.10231e-06 -7.58187e-07 0.119199)
(4.29173e-07 7.32841e-07 0.119189)
(-4.28176e-07 -9.64961e-07 0.119202)
(0.000237718 -0.000240202 0.115951)
(-0.000245228 0.000250161 0.115952)
(-2.38057e-06 -1.47474e-06 0.119218)
(2.11421e-06 -1.41945e-06 0.119217)
(-2.70189e-06 -1.38581e-06 0.119219)
(0.000245087 0.000251028 0.115951)
(0.000239374 0.000242035 0.11595)
(-0.000246581 -0.000250636 0.115948)
(2.37158e-06 2.45735e-06 0.119228)
(-2.39286e-06 2.51362e-06 0.119224)
(3.19185e-06 2.34853e-06 0.11923)
(-2.7319e-06 2.6151e-06 0.119226)
(-0.000238384 0.000241509 0.115957)
(0.000246352 -0.000249781 0.115958)
(-6.20514e-07 7.03783e-07 0.119192)
(1.97739e-07 -5.23082e-07 0.119195)
(-2.52804e-08 1.18692e-06 0.119195)
(-1.59295e-08 -5.69779e-07 0.119197)
(-9.29472e-07 -5.90955e-07 0.119202)
(1.25073e-06 3.83182e-07 0.119188)
(2.89448e-07 -1.02303e-06 0.119203)
(0.000238619 -0.000240425 0.115952)
(-0.000244792 0.000250155 0.115952)
(-2.27223e-06 -1.42252e-06 0.119219)
(2.31508e-06 -7.02836e-07 0.119218)
(-2.31555e-06 -9.09205e-07 0.119219)
(0.00024581 0.000251415 0.11595)
(0.000239343 0.000241356 0.115947)
(-0.000246701 -0.000251111 0.115948)
(2.87134e-06 2.38368e-06 0.119228)
(-2.28635e-06 2.42536e-06 0.119222)
(3.33652e-06 2.4523e-06 0.119231)
(-2.77346e-06 2.36575e-06 0.119225)
(-0.000236805 0.000240866 0.115957)
(0.000245551 -0.000249623 0.115955)
(-3.22075e-07 4.64264e-07 0.119192)
(7.13707e-08 -1.21153e-07 0.119194)
(-4.20877e-07 4.59164e-07 0.119194)
(2.91746e-07 -8.49805e-07 0.119193)
(-6.32076e-08 -6.38611e-07 0.119201)
(1.31017e-06 5.50261e-07 0.119187)
(4.42242e-07 -9.03894e-07 0.119203)
(0.000237586 -0.000238948 0.115951)
(-0.000244527 0.000249866 0.115951)
(-1.60008e-06 -9.4196e-07 0.119216)
(2.85581e-06 -1.10752e-06 0.119215)
(-1.91115e-06 -8.02881e-07 0.119217)
(0.000245634 0.000251296 0.115948)
(0.000239417 0.000241202 0.115947)
(-0.000246907 -0.000251357 0.115949)
(3.00063e-06 2.50604e-06 0.11923)
(-2.89765e-06 2.72002e-06 0.119222)
(3.31978e-06 2.68743e-06 0.119233)
(-3.86691e-06 2.92123e-06 0.119224)
(-0.00023735 0.000240265 0.115954)
(0.00024604 -0.000250298 0.115954)
(-3.14155e-07 -1.61902e-07 0.119191)
(-4.04781e-08 -4.62235e-07 0.11919)
(1.46176e-07 6.09006e-07 0.119192)
(7.67668e-07 -1.11432e-06 0.119193)
(-8.29524e-08 -7.94662e-07 0.1192)
(8.10998e-07 5.5424e-07 0.119185)
(-9.14897e-07 -1.2577e-06 0.119201)
(0.000237896 -0.00023933 0.11595)
(-0.000244622 0.000249763 0.115951)
(-2.02558e-06 -1.28254e-06 0.119215)
(2.83154e-06 -1.54929e-06 0.119216)
(-3.14598e-06 -1.79234e-06 0.119219)
(0.00024493 0.000251411 0.115948)
(0.000239453 0.000241254 0.115949)
(-0.000246679 -0.000250712 0.115951)
(2.954e-06 2.59932e-06 0.119232)
(-3.71174e-06 3.04477e-06 0.119222)
(2.60781e-06 2.23188e-06 0.119235)
(-3.29579e-06 2.26636e-06 0.119224)
(-0.000237871 0.000241089 0.115952)
(0.000245172 -0.00024992 0.115955)
(4.00053e-07 2.41004e-07 0.11919)
(5.3022e-07 -6.06353e-07 0.11919)
(-4.2013e-07 1.50099e-07 0.119192)
(1.12402e-08 -1.06547e-06 0.119194)
(-8.26723e-07 -4.54683e-07 0.119199)
(3.53627e-07 3.71949e-07 0.119183)
(-5.44905e-07 -1.2129e-06 0.1192)
(0.000237969 -0.000239548 0.11595)
(-0.000244854 0.000249321 0.115951)
(-2.18733e-06 -1.41213e-06 0.119217)
(2.35551e-06 -1.26449e-06 0.119216)
(-2.64392e-06 -1.33119e-06 0.119219)
(0.000245041 0.00025064 0.115951)
(0.000239473 0.000241287 0.115951)
(-0.000246659 -0.000250335 0.115955)
(2.21982e-06 2.17594e-06 0.119233)
(-3.20743e-06 2.41587e-06 0.119222)
(3.04816e-06 2.1653e-06 0.119238)
(-3.23166e-06 2.49494e-06 0.119228)
(-0.000238732 0.000241132 0.115954)
(0.000245719 -0.000249582 0.115956)
(-1.5711e-07 2.14046e-08 0.11919)
(4.65287e-07 -9.05735e-07 0.119191)
(-1.34959e-07 4.70497e-07 0.119194)
(4.75313e-07 -7.21634e-07 0.119197)
(-7.75796e-07 -7.7904e-07 0.119199)
(2.67865e-07 9.14317e-07 0.119189)
(-3.80244e-07 -1.15639e-06 0.119204)
(0.000238051 -0.000240289 0.115951)
(-0.000244331 0.000249529 0.115955)
(-1.99491e-06 -1.50324e-06 0.119219)
(2.94428e-06 -1.85628e-06 0.11922)
(-2.54184e-06 -1.87202e-06 0.119224)
(0.000245006 0.00025075 0.115953)
(0.000238994 0.000241544 0.115954)
(-0.000246689 -0.000250839 0.115953)
(2.70461e-06 2.54561e-06 0.119237)
(-2.60763e-06 2.37699e-06 0.119228)
(2.89938e-06 2.32649e-06 0.119237)
(-3.36609e-06 2.99226e-06 0.11923)
(-0.000238172 0.000241922 0.115955)
(0.000245377 -0.000249882 0.115954)
(3.51755e-07 5.07864e-07 0.119192)
(7.12472e-07 -8.39834e-07 0.119194)
(-3.35498e-07 7.24752e-07 0.119193)
(2.87823e-07 -9.36343e-07 0.119199)
(-6.11982e-07 -6.11497e-07 0.119204)
(8.24441e-07 7.06863e-07 0.11919)
(-6.54397e-07 -1.35101e-06 0.119204)
(0.000238797 -0.000240563 0.115954)
(-0.000245198 0.000250393 0.115952)
(-2.27371e-06 -1.63491e-06 0.119223)
(2.71243e-06 -1.1293e-06 0.119223)
(-2.57888e-06 -1.36651e-06 0.119225)
(0.000244937 0.00025093 0.115953)
(0.000239016 0.000241051 0.115952)
(-0.000246304 -0.000250632 0.115953)
(2.58567e-06 2.24316e-06 0.119233)
(-2.65778e-06 2.40614e-06 0.119229)
(2.77764e-06 1.9882e-06 0.119234)
(-2.61792e-06 1.64968e-06 0.119232)
(-0.000238431 0.000240904 0.115952)
(0.000246212 -0.000250209 0.115953)
(1.38734e-07 6.05621e-07 0.11919)
(7.21467e-07 -8.14578e-07 0.119195)
(-2.46335e-07 4.65315e-07 0.119193)
(1.46952e-07 -7.84197e-07 0.119198)
(-6.90527e-07 -8.12591e-07 0.119203)
(6.38466e-07 3.09832e-07 0.119188)
(2.22554e-07 -9.17435e-07 0.119205)
(0.000238225 -0.000239903 0.115951)
(-0.000245238 0.000250435 0.115952)
(-2.46422e-06 -1.48668e-06 0.119225)
(2.16566e-06 -9.31712e-07 0.119221)
(-2.90024e-06 -1.3126e-06 0.119226)
(0.000245914 0.000251851 0.115953)
(0.000238902 0.00024079 0.115953)
(-0.000246424 -0.000250073 0.115954)
(2.36757e-06 1.66792e-06 0.11923)
(-1.9104e-06 1.83951e-06 0.11923)
(2.53831e-06 2.07821e-06 0.11923)
(-2.82092e-06 1.94242e-06 0.119229)
(-0.000237698 0.000241376 0.115953)
(0.000245929 -0.000249875 0.115954)
(-5.29555e-07 -1.27118e-07 0.11919)
(-1.23213e-07 -1.14224e-07 0.119194)
(-3.08749e-07 5.6499e-07 0.119192)
(3.75642e-08 -9.12209e-07 0.119196)
(4.93395e-07 -1.16855e-07 0.119203)
(8.93801e-07 7.09401e-07 0.119187)
(6.55306e-08 -1.06513e-06 0.119203)
(0.00023827 -0.00024013 0.115952)
(-0.000244203 0.00024954 0.115953)
(-1.70689e-06 -1.22919e-06 0.119224)
(2.20186e-06 -1.07001e-06 0.119221)
(-2.22693e-06 -1.28274e-06 0.119224)
(0.000245778 0.000251583 0.115951)
(0.000238524 0.000240866 0.115955)
(2.08119e-06 1.88003e-06 0.119228)
(-2.75195e-06 2.52508e-06 0.119226)
(-0.000237832 0.000240945 0.115953)
(-5.77823e-07 1.89393e-07 0.119192)
(1.27477e-07 -6.92322e-07 0.119194)
(-2.22562e-07 -6.48854e-07 0.1192)
(1.67147e-07 -1.31214e-06 0.119202)
(0.000237723 -0.000240131 0.115954)
(-1.86168e-06 -9.89722e-07 0.11922)
(-1.67763e-06 -5.76799e-07 0.119221)
(0.000245314 0.000250835 0.11595)
(-1.31304e-06 -7.55329e-05 0.109988)
(1.34791e-05 5.925e-05 0.0989712)
(-1.57992e-08 7.50642e-05 0.109989)
(-9.93596e-06 -5.40853e-05 0.099079)
(-1.4631e-05 2.8711e-05 0.0888356)
(1.13045e-05 -2.36698e-05 0.0889431)
(-7.46622e-05 -5.17634e-07 0.10978)
(5.38032e-05 9.03116e-06 0.098805)
(7.39682e-05 3.62581e-08 0.109829)
(-5.5573e-05 -1.14727e-05 0.0988583)
(6.81062e-08 -2.47047e-07 0.121779)
(-1.04312e-06 3.89221e-07 0.121777)
(7.9246e-07 5.18552e-07 0.121776)
(-4.32422e-08 -2.07242e-06 0.12178)
(6.50656e-07 -2.21245e-06 0.121777)
(-3.80469e-07 4.4544e-07 0.121771)
(5.96403e-07 7.32901e-07 0.121771)
(6.55322e-05 -1.40788e-06 0.112617)
(-5.51437e-05 3.73398e-05 0.110515)
(2.08903e-06 -1.46403e-06 0.120208)
(5.94739e-07 -2.09922e-07 0.119188)
(5.40389e-05 -4.09491e-05 0.11048)
(2.46145e-06 -1.42213e-06 0.120208)
(-6.58636e-05 -1.36233e-06 0.112673)
(2.22391e-05 -1.25549e-05 0.0887233)
(-2.39343e-05 1.31778e-05 0.0888015)
(-1.86859e-06 6.73407e-05 0.112675)
(-2.35445e-06 -4.55009e-07 0.120276)
(3.76946e-05 -5.313e-05 0.110588)
(1.40477e-06 1.1162e-08 0.119218)
(-1.51311e-06 -2.41327e-07 0.120271)
(-4.06023e-05 5.39978e-05 0.110596)
(-5.62594e-07 -6.74078e-05 0.112678)
(-2.52245e-05 -3.29254e-05 0.106678)
(-3.36894e-05 -2.33675e-05 0.106788)
(0.000245226 0.000251729 0.115947)
(2.58534e-05 3.33506e-05 0.106661)
(3.24111e-05 2.50016e-05 0.106799)
(-1.22484e-06 -8.19342e-05 0.109973)
(9.15005e-06 5.11906e-05 0.0990066)
(-8.37155e-07 6.35409e-05 0.109968)
(-1.46341e-05 -5.68971e-05 0.0991049)
(-1.21595e-05 2.21148e-05 0.0888497)
(1.48164e-05 -2.49498e-05 0.0889605)
(-7.44904e-05 -9.84788e-08 0.10978)
(5.40563e-05 1.09605e-05 0.098798)
(7.10675e-05 1.24017e-07 0.109824)
(-5.6829e-05 -8.52852e-06 0.098855)
(5.93218e-07 -2.87499e-06 0.121776)
(-3.80105e-07 2.05554e-07 0.121768)
(9.47423e-07 7.98106e-07 0.121769)
(-2.89037e-07 -2.14432e-06 0.121774)
(1.39025e-06 -1.52152e-06 0.121774)
(-1.75836e-07 3.04171e-07 0.121764)
(6.64367e-07 3.22876e-07 0.121768)
(6.65999e-05 1.16992e-07 0.112614)
(-5.52331e-05 3.87819e-05 0.110509)
(2.02634e-06 -1.78041e-06 0.120205)
(1.20132e-06 -8.29842e-07 0.119183)
(-6.67352e-05 9.30062e-08 0.112671)
(5.63168e-05 -3.8409e-05 0.110476)
(2.34639e-06 -1.37863e-06 0.120203)
(2.23188e-05 -1.33675e-05 0.0887249)
(-2.34266e-05 1.24335e-05 0.0888005)
(-1.05495e-06 6.80434e-05 0.112673)
(-1.20184e-06 -1.94238e-07 0.120268)
(3.81397e-05 -5.2152e-05 0.110589)
(2.10964e-06 -2.10546e-07 0.119209)
(-2.23682e-07 -6.65499e-05 0.112676)
(-9.5518e-07 -2.29046e-07 0.120266)
(-3.98744e-05 5.37154e-05 0.110595)
(-2.47787e-05 -3.2815e-05 0.106673)
(-3.38731e-05 -2.37625e-05 0.106784)
(0.000245662 0.000250895 0.115946)
(2.71031e-05 3.38924e-05 0.106657)
(3.43333e-05 2.53202e-05 0.106793)
(-2.54456e-07 -7.43182e-05 0.10997)
(8.13382e-06 5.54291e-05 0.0990202)
(-2.71546e-07 6.93217e-05 0.109964)
(-1.25214e-05 -5.38231e-05 0.0991072)
(-1.11358e-05 2.49699e-05 0.0888634)
(1.35817e-05 -2.33787e-05 0.0889641)
(-7.34534e-05 1.35768e-06 0.109777)
(5.35789e-05 1.23214e-05 0.0988003)
(7.2897e-05 1.74901e-06 0.109826)
(-5.59678e-05 -9.40616e-06 0.0988563)
(2.03224e-06 -8.52051e-07 0.121774)
(-5.48913e-07 4.06853e-07 0.121761)
(1.1436e-06 1.03574e-06 0.121766)
(-1.92739e-06 2.27281e-06 0.121773)
(2.78655e-06 2.17215e-06 0.121773)
(-7.85623e-07 1.39771e-06 0.12176)
(7.2212e-07 1.69959e-06 0.121766)
(6.53654e-05 4.91436e-07 0.112616)
(-5.27578e-05 4.03056e-05 0.110512)
(2.72622e-06 -5.02991e-07 0.120199)
(2.93217e-06 1.97397e-06 0.119181)
(-6.58962e-05 1.00347e-06 0.112671)
(5.61066e-05 -3.78737e-05 0.110483)
(3.38898e-06 8.12192e-09 0.120199)
(2.32516e-05 -1.27964e-05 0.0887216)
(-2.35869e-05 1.35797e-05 0.0887963)
(-1.58237e-06 6.79235e-05 0.112674)
(-1.2751e-06 -3.57889e-07 0.12026)
(3.88316e-05 -5.35996e-05 0.110588)
(1.76868e-06 -3.61576e-07 0.119204)
(-4.03763e-07 -6.69687e-05 0.112675)
(-1.07456e-06 -2.83107e-07 0.12026)
(-4.00542e-05 5.3434e-05 0.110594)
(-2.50834e-05 -3.31649e-05 0.106673)
(-3.41617e-05 -2.38405e-05 0.106778)
(0.000245038 0.000251657 0.115944)
(2.66501e-05 3.3306e-05 0.106658)
(3.3504e-05 2.51923e-05 0.106791)