/*--------------------------------*- C++ -*----------------------------------*\
| =========                 |                                                 |
| \\      /  F ield         | OpenFOAM: The Open Source CFD Toolbox           |
|  \\    /   O peration     | Version:  2206                                  |
|   \\  /    A nd           | Website:  www.openfoam.com                      |
|    \\/     M anipulation  |                                                 |
\*---------------------------------------------------------------------------*/
FoamFile
{
    version     2.0;
    format      ascii;
    arch        "LSB;label=32;scalar=64";
    class       volScalarField;
    location    "60";
    object      k;
}
// * * * * * * * * * * * * * * * * * * * * * * * * * * * * * * * * * * * * * //

dimensions      [0 2 -2 0 0 0 0];

internalField   nonuniform List<scalar> 
66616
(
3.57437e-05
3.67828e-05
3.67732e-05
3.75114e-05
3.41359e-05
3.56596e-05
3.561e-05
3.6708e-05
3.26223e-05
3.40327e-05
3.39899e-05
3.46727e-05
3.10775e-05
3.21823e-05
3.21785e-05
3.1711e-05
2.95108e-05
3.04789e-05
3.04446e-05
2.91209e-05
2.80038e-05
2.92008e-05
2.91354e-05
2.81532e-05
2.66899e-05
2.85477e-05
2.83139e-05
2.77759e-05
2.56464e-05
2.83644e-05
2.81369e-05
2.7849e-05
2.49113e-05
2.83889e-05
2.82372e-05
2.78736e-05
2.44987e-05
2.84826e-05
2.84054e-05
2.81587e-05
2.43476e-05
2.88629e-05
2.88439e-05
2.81727e-05
2.43025e-05
2.88618e-05
2.88093e-05
2.83548e-05
3.75644e-05
3.67743e-05
3.67764e-05
3.75654e-05
3.67763e-05
3.6774e-05
3.60864e-05
3.60885e-05
3.60894e-05
3.60893e-05
3.67767e-05
3.6778e-05
3.75627e-05
3.67768e-05
3.67815e-05
3.75767e-05
3.75007e-05
3.67907e-05
3.67882e-05
3.67878e-05
3.59304e-05
3.59278e-05
3.75019e-05
3.6789e-05
3.67935e-05
3.67982e-05
3.5984e-05
3.59857e-05
3.68004e-05
3.59992e-05
3.59918e-05
3.75004e-05
3.67922e-05
3.67855e-05
3.59433e-05
3.5928e-05
3.67908e-05
3.6708e-05
3.49767e-05
3.56409e-05
3.56417e-05
3.4457e-05
3.44559e-05
3.67087e-05
3.50102e-05
3.56824e-05
3.56997e-05
3.44727e-05
3.44767e-05
3.56943e-05
3.4498e-05
3.44848e-05
3.67125e-05
3.49933e-05
3.56378e-05
3.44495e-05
3.44325e-05
3.49913e-05
3.46734e-05
3.20633e-05
3.40287e-05
3.40455e-05
3.26552e-05
3.26576e-05
3.47161e-05
3.20924e-05
3.40442e-05
3.40841e-05
3.26397e-05
3.26518e-05
3.40589e-05
3.26805e-05
3.26899e-05
3.46966e-05
3.2086e-05
3.40299e-05
3.2627e-05
3.26315e-05
3.20726e-05
3.17209e-05
2.94024e-05
3.22219e-05
3.22197e-05
3.08955e-05
3.08717e-05
3.17526e-05
2.93972e-05
3.22391e-05
3.2237e-05
3.08892e-05
3.0887e-05
3.22388e-05
3.08831e-05
3.09056e-05
3.1747e-05
2.94048e-05
3.21957e-05
3.08417e-05
3.08585e-05
2.94341e-05
2.91317e-05
2.81807e-05
3.05141e-05
3.04922e-05
2.94886e-05
2.94785e-05
2.91228e-05
2.82255e-05
3.05329e-05
3.051e-05
2.95103e-05
2.9475e-05
3.05246e-05
2.947e-05
2.94916e-05
2.91284e-05
2.80483e-05
3.04798e-05
2.94279e-05
2.94654e-05
2.83177e-05
2.81248e-05
2.80352e-05
2.92318e-05
2.92265e-05
2.85936e-05
2.85954e-05
2.82033e-05
2.79612e-05
2.92675e-05
2.92096e-05
2.86472e-05
2.86138e-05
2.92445e-05
2.85796e-05
2.85844e-05
2.80317e-05
2.77368e-05
2.92094e-05
2.85262e-05
2.85672e-05
2.79255e-05
2.80206e-05
2.7922e-05
2.84375e-05
2.84288e-05
2.83115e-05
2.82284e-05
2.79081e-05
2.79391e-05
2.84653e-05
2.84137e-05
2.83103e-05
2.83388e-05
2.84335e-05
2.83751e-05
2.8225e-05
2.78261e-05
2.77898e-05
2.83877e-05
2.81111e-05
2.81991e-05
2.78737e-05
2.78996e-05
2.80552e-05
2.82004e-05
2.819e-05
2.83704e-05
2.83428e-05
2.79241e-05
2.79844e-05
2.84263e-05
2.82267e-05
2.8433e-05
2.842e-05
2.82273e-05
2.83846e-05
2.83463e-05
2.77361e-05
2.78306e-05
2.82232e-05
2.82217e-05
2.82817e-05
2.79726e-05
2.80085e-05
2.82062e-05
2.83662e-05
2.836e-05
2.8394e-05
2.85124e-05
2.79214e-05
2.81014e-05
2.84357e-05
2.8451e-05
2.84921e-05
2.86531e-05
2.83841e-05
2.83655e-05
2.84621e-05
2.7991e-05
2.82826e-05
2.82922e-05
2.83555e-05
2.82926e-05
2.79872e-05
2.82943e-05
2.85465e-05
2.84891e-05
2.8562e-05
2.88308e-05
2.85449e-05
2.8296e-05
2.8446e-05
2.85726e-05
2.86979e-05
2.8667e-05
2.89516e-05
2.84904e-05
2.88423e-05
2.87863e-05
2.81704e-05
2.84465e-05
2.84603e-05
2.86238e-05
2.87156e-05
2.83769e-05
2.85174e-05
2.87481e-05
2.88693e-05
2.85357e-05
2.87659e-05
2.86865e-05
2.86535e-05
2.86349e-05
2.88754e-05
2.87562e-05
2.88129e-05
2.88504e-05
2.86308e-05
2.87975e-05
2.87047e-05
2.84722e-05
2.83111e-05
2.85639e-05
2.88165e-05
2.8674e-05
2.82893e-05
2.88911e-05
2.88638e-05
2.8808e-05
2.86947e-05
2.88952e-05
2.89048e-05
2.87887e-05
2.83826e-05
2.87863e-05
3.65926e-05
3.6804e-05
3.66484e-05
3.66479e-05
3.80156e-05
3.70248e-05
4.13261e-05
3.67422e-05
3.80127e-05
3.70248e-05
3.6743e-05
4.13179e-05
3.73879e-05
4.34336e-05
4.34101e-05
4.24645e-05
1.76232e-05
4.37488e-05
1.4148e-05
2.05058e-05
1.22715e-05
4.23966e-05
1.76404e-05
4.37273e-05
1.41233e-05
3.57389e-05
3.5739e-05
3.57422e-05
3.45056e-05
3.451e-05
3.45107e-05
3.45094e-05
3.95161e-05
4.12396e-05
3.61722e-05
3.65163e-05
3.95399e-05
3.81578e-05
3.57973e-05
2.05138e-05
1.22733e-05
3.95208e-05
3.61743e-05
4.12279e-05
3.65277e-05
3.9547e-05
3.57961e-05
3.81951e-05
3.56568e-05
3.56464e-05
3.71575e-05
3.00923e-05
3.00664e-05
3.38325e-05
9.21325e-06
3.73867e-05
8.4597e-06
7.57174e-06
7.07825e-06
3.32622e-05
9.04287e-06
3.7273e-05
8.30369e-06
3.4131e-05
3.41322e-05
3.41365e-05
3.29951e-05
3.30002e-05
3.30008e-05
3.30013e-05
3.65946e-05
3.11542e-05
3.47364e-05
3.53206e-05
3.83341e-05
2.74766e-05
3.43746e-05
7.53032e-06
7.0099e-06
3.66727e-05
3.46535e-05
3.13202e-05
3.52702e-05
3.83089e-05
3.42902e-05
2.79992e-05
2.18748e-05
2.20771e-05
3.61094e-05
1.88453e-05
1.90803e-05
2.72722e-05
8.39666e-06
2.93253e-05
8.48363e-06
6.63242e-06
6.3917e-06
2.66017e-05
8.22573e-06
2.87431e-05
8.27243e-06
3.26177e-05
3.26202e-05
3.26223e-05
3.14586e-05
3.14641e-05
3.14615e-05
3.1466e-05
3.18505e-05
2.44143e-05
3.31913e-05
3.36082e-05
3.35578e-05
2.30784e-05
3.27787e-05
6.57729e-06
6.27815e-06
3.21831e-05
3.31247e-05
2.46795e-05
3.35477e-05
3.38055e-05
3.27192e-05
2.34057e-05
1.63395e-05
1.63948e-05
3.35416e-05
1.53209e-05
1.54832e-05
2.42877e-05
8.47207e-06
2.47112e-05
8.50723e-06
6.1357e-06
6.09232e-06
2.3737e-05
8.28844e-06
2.42164e-05
8.37175e-06
3.10702e-05
3.1071e-05
3.10761e-05
2.98982e-05
2.98981e-05
2.98962e-05
2.99016e-05
2.86975e-05
2.20429e-05
3.15102e-05
3.17517e-05
2.96202e-05
2.21573e-05
3.10833e-05
5.97473e-06
5.89131e-06
2.88781e-05
3.14764e-05
2.21864e-05
3.17107e-05
3.00088e-05
3.1058e-05
2.23283e-05
1.42654e-05
1.46303e-05
3.06535e-05
1.4062e-05
1.44402e-05
2.3983e-05
8.74275e-06
2.41087e-05
8.96161e-06
6.091e-06
6.16498e-06
2.39285e-05
8.52466e-06
2.37898e-05
8.76543e-06
2.95008e-05
2.95006e-05
2.95074e-05
2.83652e-05
2.83611e-05
2.83572e-05
2.83637e-05
2.82094e-05
2.21957e-05
2.98455e-05
3.01089e-05
2.835e-05
2.22609e-05
2.94557e-05
5.88913e-06
5.96164e-06
2.80748e-05
2.98295e-05
2.24117e-05
3.00787e-05
2.79346e-05
2.94395e-05
2.26643e-05
1.40431e-05
1.4412e-05
2.84443e-05
1.40691e-05
1.43664e-05
2.44151e-05
9.45355e-06
2.45322e-05
9.69222e-06
6.34247e-06
6.38e-06
2.43341e-05
9.30858e-06
2.43067e-05
9.571e-06
2.79909e-05
2.7984e-05
2.79977e-05
2.69992e-05
2.6993e-05
2.69832e-05
2.69957e-05
2.81421e-05
2.25444e-05
2.8472e-05
2.89692e-05
2.81574e-05
2.29895e-05
2.81974e-05
6.16792e-06
6.25529e-06
2.79217e-05
2.84237e-05
2.28615e-05
2.89216e-05
2.78399e-05
2.81487e-05
2.32335e-05
1.42967e-05
1.47132e-05
2.80203e-05
1.43785e-05
1.48254e-05
2.40921e-05
1.00248e-05
2.39927e-05
1.00477e-05
6.32452e-06
6.28745e-06
2.39763e-05
9.83741e-06
2.38148e-05
9.81953e-06
2.66813e-05
2.66665e-05
2.66857e-05
2.58849e-05
2.58795e-05
2.58588e-05
2.58719e-05
2.79449e-05
2.35286e-05
2.75853e-05
2.8503e-05
2.78922e-05
2.3489e-05
2.74159e-05
6.28903e-06
6.29132e-06
2.77881e-05
2.74911e-05
2.3396e-05
2.81847e-05
2.79709e-05
2.73257e-05
2.37041e-05
1.45722e-05
1.47916e-05
2.77123e-05
1.4312e-05
1.46389e-05
2.40003e-05
9.84804e-06
2.40053e-05
9.88947e-06
6.21502e-06
6.19666e-06
2.35475e-05
9.75907e-06
2.39393e-05
9.60252e-06
2.56374e-05
2.56124e-05
2.56308e-05
2.50742e-05
2.50702e-05
2.50446e-05
2.5051e-05
2.77327e-05
2.36872e-05
2.7062e-05
2.82882e-05
2.80081e-05
2.37652e-05
2.70169e-05
6.23848e-06
6.26312e-06
2.80546e-05
2.69478e-05
2.35978e-05
2.81097e-05
2.77274e-05
2.69358e-05
2.36172e-05
1.42838e-05
1.45455e-05
2.78252e-05
1.43735e-05
1.45172e-05
2.40485e-05
9.91503e-06
2.39693e-05
9.8935e-06
6.16705e-06
6.18153e-06
2.37797e-05
9.60001e-06
2.36333e-05
9.57239e-06
2.49091e-05
2.48815e-05
2.48914e-05
2.45751e-05
2.45843e-05
2.45587e-05
2.45489e-05
2.80149e-05
2.3525e-05
2.70307e-05
2.83281e-05
2.78987e-05
2.36279e-05
2.70229e-05
6.24427e-06
6.23268e-06
2.81904e-05
2.68975e-05
2.36913e-05
2.82432e-05
2.7892e-05
2.69063e-05
2.33246e-05
1.44399e-05
1.44699e-05
2.79877e-05
1.42139e-05
1.46398e-05
2.41237e-05
9.84484e-06
2.38909e-05
9.87689e-06
6.17824e-06
6.19954e-06
2.35128e-05
9.58433e-06
2.38921e-05
9.65468e-06
2.45035e-05
2.44815e-05
2.44798e-05
2.43743e-05
2.43707e-05
2.43556e-05
2.43115e-05
2.79811e-05
2.38185e-05
2.71145e-05
2.85606e-05
2.82094e-05
2.38641e-05
2.70923e-05
6.2252e-06
6.24781e-06
2.84426e-05
2.69468e-05
2.36697e-05
2.85198e-05
2.815e-05
2.6991e-05
2.36467e-05
1.43148e-05
1.47079e-05
2.81893e-05
1.425e-05
1.47296e-05
2.39317e-05
9.92688e-06
2.42517e-05
9.94887e-06
6.22509e-06
6.22816e-06
2.39578e-05
9.72655e-06
2.39538e-05
9.79952e-06
2.43457e-05
2.43138e-05
2.42661e-05
2.43069e-05
2.43105e-05
2.42838e-05
2.42399e-05
2.84024e-05
2.3696e-05
2.72569e-05
2.87706e-05
2.84409e-05
2.37124e-05
2.73245e-05
6.30556e-06
6.30516e-06
2.85752e-05
2.71779e-05
2.3579e-05
2.87079e-05
2.8263e-05
2.7269e-05
2.37759e-05
1.43733e-05
1.46507e-05
2.80907e-05
1.43282e-05
1.46712e-05
2.39455e-05
9.97783e-06
2.41841e-05
9.93243e-06
6.296e-06
6.24945e-06
9.90704e-06
2.42618e-05
2.43078e-05
2.42749e-05
2.42324e-05
2.90524e-05
2.40564e-05
2.76109e-05
2.90308e-05
2.89424e-05
2.44862e-05
2.77642e-05
6.37811e-06
2.85356e-05
2.75056e-05
2.38871e-05
2.85462e-05
2.76193e-05
1.46449e-05
1.47727e-05
2.86521e-05
1.47944e-05
1.49441e-05
3.73851e-05
4.34287e-05
4.34443e-05
8.57869e-06
4.11948e-05
8.57908e-06
4.11956e-05
3.74642e-05
3.55789e-05
3.55753e-05
4.50813e-05
4.50907e-05
3.80137e-05
3.70234e-05
4.13177e-05
3.67434e-05
3.80099e-05
3.70247e-05
4.13263e-05
3.67411e-05
3.99224e-05
4.16008e-06
4.41694e-05
4.37728e-05
3.99188e-05
4.14858e-06
4.41178e-05
4.37445e-05
3.84757e-05
3.69577e-05
4.20304e-05
3.65151e-05
4.30255e-05
3.66339e-05
3.9401e-05
3.84808e-05
3.69588e-05
4.19847e-05
3.65162e-05
4.30155e-05
3.66317e-05
3.93995e-05
3.73866e-05
4.33986e-05
4.34395e-05
8.56406e-06
4.11682e-05
3.74658e-05
3.55282e-05
3.55658e-05
4.51134e-05
4.50772e-05
8.56534e-06
4.11588e-05
3.80112e-05
3.7024e-05
4.13325e-05
3.67437e-05
3.80143e-05
3.70224e-05
3.67432e-05
4.13261e-05
3.99166e-05
4.16478e-06
4.41658e-05
4.37621e-05
3.84736e-05
3.69569e-05
4.20464e-05
3.65173e-05
4.30199e-05
3.66343e-05
3.93997e-05
3.99181e-05
4.14122e-06
4.41321e-05
4.37601e-05
3.84763e-05
3.69565e-05
3.65174e-05
4.20353e-05
3.66337e-05
4.30261e-05
3.94064e-05
3.65947e-05
3.68027e-05
3.66446e-05
3.66482e-05
3.65948e-05
3.68026e-05
3.66451e-05
3.6646e-05
3.65946e-05
3.68039e-05
3.66469e-05
3.66483e-05
3.63738e-05
3.66152e-05
3.59005e-05
3.58975e-05
3.64651e-05
3.64641e-05
3.57612e-05
3.63754e-05
3.66147e-05
3.59003e-05
3.58994e-05
3.64627e-05
3.64651e-05
3.57614e-05
3.63754e-05
3.66148e-05
3.58968e-05
3.59032e-05
3.64621e-05
3.64647e-05
3.57612e-05
3.63753e-05
3.66157e-05
3.58979e-05
3.59044e-05
3.64637e-05
3.64668e-05
3.57613e-05
3.80133e-05
3.70248e-05
3.6741e-05
4.13317e-05
3.84755e-05
3.69585e-05
4.20439e-05
3.65183e-05
4.30202e-05
3.66327e-05
3.94075e-05
3.99278e-05
4.1606e-06
4.41255e-05
4.37633e-05
3.84759e-05
3.69588e-05
3.6517e-05
4.20416e-05
3.66318e-05
4.30309e-05
3.9405e-05
3.99202e-05
4.158e-06
4.41597e-05
4.37526e-05
3.73865e-05
4.34167e-05
4.34123e-05
8.55382e-06
4.11637e-05
3.74653e-05
3.55336e-05
3.55639e-05
4.51082e-05
4.50625e-05
8.56137e-06
4.11459e-05
3.80101e-05
3.70262e-05
3.67413e-05
4.13274e-05
3.84769e-05
3.69581e-05
3.65193e-05
4.20345e-05
3.66336e-05
4.30267e-05
3.93994e-05
3.8481e-05
3.69599e-05
3.65189e-05
4.20314e-05
3.66321e-05
4.30184e-05
3.93985e-05
3.99277e-05
4.14542e-06
4.41643e-05
4.37464e-05
3.99197e-05
4.14351e-06
4.41481e-05
4.37506e-05
3.74657e-05
3.55427e-05
3.55125e-05
4.51371e-05
4.51017e-05
8.5638e-06
4.12042e-05
8.56625e-06
4.11605e-05
2.04841e-05
1.22862e-05
2.04965e-05
1.2292e-05
3.57064e-05
3.57025e-05
3.71453e-05
3.00636e-05
3.00797e-05
7.84265e-06
1.01497e-05
7.77473e-06
1.01727e-05
3.711e-05
2.33421e-05
2.31266e-05
2.83034e-05
2.82979e-05
4.24205e-05
1.76241e-05
4.37455e-05
1.41147e-05
3.95213e-05
4.12338e-05
3.6178e-05
3.65174e-05
3.95497e-05
3.81633e-05
3.57891e-05
3.95146e-05
4.1197e-05
3.6175e-05
3.65162e-05
3.95481e-05
3.8131e-05
3.57887e-05
4.16992e-05
9.66273e-06
1.22775e-05
3.83199e-05
4.17562e-05
9.65417e-06
1.22659e-05
3.83059e-05
3.94831e-05
3.62408e-05
3.26901e-05
3.50098e-05
3.68851e-05
3.5429e-05
3.86191e-05
3.94828e-05
3.62405e-05
3.27239e-05
3.50089e-05
3.68321e-05
3.54261e-05
3.86323e-05
3.56624e-05
3.56947e-05
3.71469e-05
3.00272e-05
3.00729e-05
2.0506e-05
1.22684e-05
7.83007e-06
1.01378e-05
3.71101e-05
2.32916e-05
2.31059e-05
2.82771e-05
2.83035e-05
7.75573e-06
1.016e-05
3.95148e-05
4.1251e-05
3.61779e-05
3.65025e-05
3.95416e-05
3.81472e-05
3.5794e-05
4.24067e-05
1.76226e-05
4.3743e-05
1.41148e-05
3.95104e-05
3.61774e-05
4.12501e-05
3.65061e-05
3.95411e-05
3.57912e-05
3.81342e-05
4.17521e-05
9.45213e-06
1.23065e-05
3.8078e-05
3.9473e-05
3.62532e-05
3.23988e-05
3.50888e-05
3.69277e-05
3.54295e-05
3.86619e-05
4.17675e-05
9.45478e-06
1.23081e-05
3.80891e-05
3.94777e-05
3.62591e-05
3.50849e-05
3.24122e-05
3.54269e-05
3.69127e-05
3.86617e-05
4.24202e-05
1.76182e-05
4.37384e-05
1.4116e-05
3.95111e-05
3.61774e-05
4.12395e-05
3.65085e-05
3.95392e-05
3.57936e-05
3.8159e-05
4.24141e-05
1.76164e-05
4.37323e-05
1.41211e-05
3.94784e-05
3.62378e-05
3.23672e-05
3.50926e-05
3.69167e-05
3.54246e-05
3.8663e-05
4.17834e-05
9.44356e-06
1.23167e-05
3.81215e-05
3.94805e-05
3.62599e-05
3.50872e-05
3.24074e-05
3.54275e-05
3.69002e-05
3.86704e-05
4.17774e-05
9.45233e-06
1.23104e-05
3.8123e-05
3.56697e-05
3.56961e-05
3.71481e-05
3.00373e-05
3.00792e-05
2.04813e-05
1.22776e-05
7.75813e-06
1.01548e-05
3.71127e-05
2.30864e-05
2.33499e-05
2.82724e-05
2.82898e-05
7.8456e-06
1.01388e-05
3.951e-05
3.61758e-05
4.12219e-05
3.65205e-05
3.95464e-05
3.57932e-05
3.81818e-05
4.24281e-05
1.76052e-05
4.37447e-05
1.41479e-05
4.24124e-05
1.76036e-05
4.37434e-05
1.41403e-05
3.94823e-05
3.62237e-05
3.5021e-05
3.27267e-05
3.54298e-05
3.68413e-05
3.86155e-05
3.94818e-05
3.62417e-05
3.50169e-05
3.27198e-05
3.54323e-05
3.6858e-05
3.86179e-05
4.17593e-05
9.6729e-06
1.22779e-05
3.82849e-05
4.17583e-05
9.66149e-06
1.22776e-05
3.82921e-05
2.04717e-05
1.22822e-05
2.04547e-05
1.22926e-05
3.71192e-05
2.31496e-05
2.33324e-05
2.82466e-05
2.82674e-05
7.76792e-06
1.01494e-05
7.85014e-06
1.01495e-05
7.56388e-06
7.06551e-06
7.53927e-06
7.02121e-06
2.20879e-05
2.19592e-05
3.61142e-05
1.90727e-05
1.88406e-05
6.66359e-06
6.98276e-06
6.62074e-06
6.96283e-06
3.5918e-05
1.68195e-05
1.66237e-05
1.85191e-05
1.83713e-05
3.37938e-05
9.21287e-06
3.7425e-05
8.42434e-06
3.66856e-05
3.13574e-05
3.46509e-05
3.52622e-05
3.82821e-05
2.79256e-05
3.42787e-05
3.67135e-05
3.13212e-05
3.46494e-05
3.5259e-05
3.82843e-05
2.79051e-05
3.42776e-05
3.29097e-05
8.4217e-06
8.35676e-06
3.01223e-05
3.2862e-05
8.36076e-06
8.4122e-06
3.00316e-05
3.61749e-05
3.48954e-05
2.52799e-05
3.35154e-05
2.71559e-05
3.39075e-05
3.42951e-05
3.61016e-05
3.49026e-05
2.51403e-05
3.35131e-05
2.72281e-05
3.39069e-05
3.42925e-05
2.21083e-05
2.19743e-05
3.61207e-05
1.90958e-05
1.88317e-05
7.53631e-06
7.0078e-06
6.69758e-06
6.98849e-06
3.59309e-05
1.6959e-05
1.6738e-05
1.85326e-05
1.84307e-05
6.63699e-06
6.95878e-06
3.66087e-05
3.1149e-05
3.47421e-05
3.53026e-05
3.83079e-05
2.75003e-05
3.43711e-05
3.32358e-05
9.03678e-06
3.72869e-05
8.2988e-06
3.65823e-05
3.47395e-05
3.10942e-05
3.53045e-05
3.83278e-05
3.4367e-05
2.75108e-05
3.23613e-05
8.22931e-06
8.27088e-06
2.94311e-05
3.59932e-05
3.49159e-05
2.48484e-05
3.35976e-05
2.68914e-05
3.39981e-05
3.4074e-05
3.24599e-05
8.20924e-06
8.20683e-06
2.94641e-05
3.59707e-05
3.49519e-05
3.3593e-05
2.48073e-05
3.39942e-05
2.69015e-05
3.40987e-05
3.32916e-05
9.04912e-06
3.72843e-05
8.29475e-06
3.65829e-05
3.47403e-05
3.10952e-05
3.53092e-05
3.83315e-05
3.43686e-05
2.73553e-05
3.33493e-05
9.04359e-06
3.72797e-05
8.27808e-06
3.59675e-05
3.49003e-05
2.48714e-05
3.36011e-05
2.69133e-05
3.39931e-05
3.40743e-05
3.24464e-05
8.2342e-06
8.21146e-06
2.93673e-05
3.59822e-05
3.4938e-05
3.35935e-05
2.47081e-05
3.39951e-05
2.68705e-05
3.40843e-05
3.24738e-05
8.22717e-06
8.21489e-06
2.93672e-05
2.1933e-05
2.20883e-05
3.61193e-05
1.88306e-05
1.90508e-05
7.56091e-06
7.06886e-06
6.62492e-06
6.95873e-06
3.59276e-05
1.67205e-05
1.67739e-05
1.84107e-05
1.84583e-05
6.66288e-06
6.97616e-06
3.66311e-05
3.46588e-05
3.13717e-05
3.52482e-05
3.832e-05
3.42868e-05
2.78801e-05
3.38338e-05
9.19652e-06
3.74447e-05
8.46679e-06
3.38001e-05
9.2156e-06
3.74226e-05
8.42295e-06
3.61499e-05
3.48595e-05
3.35267e-05
2.52169e-05
3.39135e-05
2.7251e-05
3.43619e-05
3.61814e-05
3.48917e-05
3.3524e-05
2.52127e-05
3.39179e-05
2.71592e-05
3.42886e-05
3.29411e-05
8.33535e-06
8.34836e-06
2.99739e-05
3.28508e-05
8.41345e-06
8.39954e-06
2.99927e-05
7.51223e-06
6.99915e-06
7.5722e-06
7.07861e-06
3.59056e-05
1.66584e-05
1.68734e-05
1.83304e-05
1.84311e-05
6.59979e-06
6.93709e-06
6.69254e-06
6.97838e-06
6.6041e-06
6.35443e-06
6.57756e-06
6.31044e-06
1.65433e-05
1.64287e-05
3.35444e-05
1.54489e-05
1.54266e-05
6.09752e-06
6.33131e-06
6.07922e-06
6.29113e-06
3.32042e-05
1.47697e-05
1.46952e-05
1.5504e-05
1.54093e-05
2.73131e-05
8.38563e-06
2.93329e-05
8.46691e-06
3.21564e-05
2.48124e-05
3.31182e-05
3.3579e-05
3.37935e-05
2.35052e-05
3.27086e-05
3.21331e-05
2.47986e-05
3.31179e-05
3.35715e-05
3.37843e-05
2.35862e-05
3.27074e-05
2.67311e-05
8.54451e-06
8.49759e-06
2.5314e-05
2.67952e-05
8.53506e-06
8.52628e-06
2.52843e-05
3.17284e-05
3.31455e-05
2.24996e-05
3.18795e-05
2.3274e-05
3.22994e-05
3.03435e-05
3.17223e-05
3.3143e-05
2.24998e-05
3.1879e-05
2.32282e-05
3.22991e-05
3.03284e-05
1.66506e-05
1.65874e-05
3.35817e-05
1.56273e-05
1.54496e-05
6.60843e-06
6.31865e-06
6.15815e-06
6.36116e-06
3.32507e-05
1.49288e-05
1.46066e-05
1.56772e-05
1.52337e-05
6.04142e-06
6.26525e-06
3.18927e-05
2.44778e-05
3.3198e-05
3.358e-05
3.36116e-05
2.30575e-05
3.27781e-05
2.67733e-05
8.27602e-06
2.89097e-05
8.22485e-06
3.19381e-05
3.31923e-05
2.44284e-05
3.35794e-05
3.36172e-05
3.2772e-05
2.30058e-05
2.62571e-05
8.3051e-06
8.34291e-06
2.46804e-05
3.15685e-05
3.31603e-05
2.19437e-05
3.1937e-05
2.28505e-05
3.23679e-05
3.0079e-05
2.64224e-05
8.24416e-06
8.29824e-06
2.46872e-05
3.15497e-05
3.3166e-05
3.19299e-05
2.22332e-05
3.23597e-05
2.29379e-05
3.00954e-05
2.65332e-05
8.29238e-06
2.87526e-05
8.31978e-06
3.18827e-05
3.31916e-05
2.44382e-05
3.35956e-05
3.35872e-05
3.27714e-05
2.31276e-05
2.65465e-05
8.23629e-06
2.88053e-05
8.23146e-06
3.14427e-05
3.31261e-05
2.21621e-05
3.19352e-05
2.2966e-05
3.23594e-05
3.00778e-05
2.61281e-05
8.35915e-06
8.34209e-06
2.45575e-05
3.14682e-05
3.31602e-05
3.19273e-05
2.19756e-05
3.23581e-05
2.28209e-05
3.00393e-05
2.62913e-05
8.31613e-06
8.35842e-06
2.46471e-05
1.6477e-05
1.65089e-05
3.35632e-05
1.53537e-05
1.55208e-05
6.58372e-06
6.33963e-06
5.99254e-06
6.21521e-06
3.3232e-05
1.45845e-05
1.46386e-05
1.51089e-05
1.52669e-05
6.06428e-06
6.26956e-06
3.21748e-05
3.31292e-05
2.47913e-05
3.35586e-05
3.38226e-05
3.27208e-05
2.36718e-05
2.71217e-05
8.37564e-06
2.93745e-05
8.42823e-06
2.72879e-05
8.42059e-06
2.94439e-05
8.44952e-06
3.17327e-05
3.30885e-05
3.18917e-05
2.23947e-05
3.23084e-05
2.30614e-05
3.03992e-05
3.17883e-05
3.31186e-05
3.18947e-05
2.2458e-05
3.23131e-05
2.3164e-05
3.0418e-05
2.68246e-05
8.52083e-06
8.4369e-06
2.52587e-05
2.69469e-05
8.45235e-06
8.44624e-06
2.54167e-05
6.5439e-06
6.2544e-06
6.59964e-06
6.34999e-06
3.32119e-05
1.43258e-05
1.47084e-05
1.50557e-05
1.53035e-05
5.97685e-06
6.19759e-06
6.09167e-06
6.28085e-06
6.03159e-06
5.95198e-06
6.00768e-06
5.90152e-06
1.45826e-05
1.46142e-05
3.06446e-05
1.41618e-05
1.41243e-05
5.94368e-06
5.94815e-06
5.8937e-06
5.89779e-06
3.03355e-05
1.41712e-05
1.41139e-05
1.42206e-05
1.41929e-05
2.42009e-05
8.57032e-06
2.48215e-05
8.56186e-06
2.87581e-05
2.23349e-05
3.1464e-05
3.17674e-05
2.9985e-05
2.22371e-05
3.10432e-05
2.87917e-05
2.27049e-05
3.14652e-05
3.17491e-05
2.9955e-05
2.26013e-05
3.10438e-05
2.43424e-05
8.68819e-06
8.53826e-06
2.41649e-05
2.43802e-05
8.77411e-06
8.61702e-06
2.41121e-05
2.85764e-05
3.13451e-05
2.22924e-05
3.02123e-05
2.23863e-05
3.06287e-05
2.81625e-05
2.85525e-05
3.13245e-05
2.25292e-05
3.02125e-05
2.24886e-05
3.063e-05
2.77937e-05
1.48843e-05
1.45072e-05
3.06573e-05
1.46541e-05
1.42986e-05
6.00295e-06
5.94891e-06
6.08404e-06
6.08609e-06
3.03442e-05
1.44887e-05
1.42405e-05
1.46011e-05
1.42963e-05
5.93002e-06
5.95593e-06
2.86268e-05
2.20353e-05
3.15224e-05
3.17479e-05
2.9826e-05
2.18455e-05
3.10927e-05
2.37778e-05
8.34249e-06
2.45223e-05
8.37547e-06
2.85965e-05
3.15134e-05
2.20161e-05
3.17551e-05
2.98138e-05
3.10864e-05
2.19717e-05
2.38121e-05
8.46932e-06
8.47612e-06
2.38344e-05
2.83165e-05
3.13538e-05
2.19812e-05
3.02558e-05
2.20478e-05
3.06804e-05
2.82632e-05
2.36371e-05
8.55e-06
8.42191e-06
2.3749e-05
2.82848e-05
3.13408e-05
3.02503e-05
2.20659e-05
3.06723e-05
2.19612e-05
2.82102e-05
2.35347e-05
8.42898e-06
2.42569e-05
8.47142e-06
2.84536e-05
3.151e-05
2.18677e-05
3.17853e-05
2.96985e-05
3.1078e-05
2.19016e-05
2.34709e-05
8.35562e-06
2.42488e-05
8.35477e-06
2.84139e-05
3.12996e-05
2.21833e-05
3.02433e-05
2.21842e-05
3.06654e-05
2.83998e-05
2.34606e-05
8.56391e-06
8.54738e-06
2.36068e-05
2.84032e-05
3.13598e-05
3.02346e-05
2.18927e-05
3.06624e-05
2.18952e-05
2.80137e-05
2.35229e-05
8.47868e-06
8.39193e-06
2.35489e-05
1.4594e-05
1.45615e-05
3.06526e-05
1.40557e-05
1.44662e-05
6.04828e-06
5.98586e-06
5.89358e-06
5.90222e-06
3.03439e-05
1.40175e-05
1.44444e-05
1.41277e-05
1.44867e-05
6.011e-06
6.0033e-06
2.88865e-05
3.1482e-05
2.25422e-05
3.17313e-05
3.00825e-05
3.1063e-05
2.25335e-05
2.43091e-05
8.51454e-06
2.48223e-05
8.55014e-06
2.44793e-05
8.49551e-06
2.48907e-05
8.56096e-06
2.85962e-05
3.12871e-05
3.02302e-05
2.24507e-05
3.06457e-05
2.23524e-05
2.81205e-05
2.86266e-05
3.13084e-05
3.02331e-05
2.25803e-05
3.06497e-05
2.25189e-05
2.82388e-05
2.45561e-05
8.67322e-06
8.58871e-06
2.44458e-05
2.44948e-05
8.86025e-06
8.63403e-06
2.44716e-05
5.92798e-06
5.86103e-06
6.05767e-06
5.99733e-06
3.0313e-05
1.40181e-05
1.44551e-05
1.40772e-05
1.44542e-05
5.85856e-06
5.86539e-06
6.03646e-06
6.01731e-06
5.94494e-06
6.02552e-06
5.90331e-06
5.97628e-06
1.41578e-05
1.41361e-05
2.8514e-05
1.43368e-05
1.4287e-05
6.16912e-06
6.06606e-06
6.14558e-06
6.03523e-06
2.83401e-05
1.43805e-05
1.44724e-05
1.4257e-05
1.43012e-05
2.41123e-05
8.87211e-06
2.41452e-05
9.08252e-06
2.76755e-05
2.23767e-05
2.98121e-05
3.01394e-05
2.80735e-05
2.25527e-05
2.9423e-05
2.77314e-05
2.2792e-05
2.98123e-05
3.0116e-05
2.79033e-05
2.29754e-05
2.94218e-05
2.42945e-05
9.39574e-06
9.10275e-06
2.45189e-05
2.43451e-05
9.45924e-06
9.24042e-06
2.45222e-05
2.79012e-05
2.98119e-05
2.29514e-05
2.87166e-05
2.266e-05
2.90582e-05
2.79197e-05
2.7919e-05
2.97947e-05
2.32365e-05
2.87165e-05
2.29363e-05
2.90609e-05
2.79771e-05
1.46771e-05
1.42551e-05
2.85008e-05
1.47199e-05
1.42425e-05
5.95481e-06
5.98031e-06
6.31003e-06
6.20911e-06
2.82946e-05
1.48106e-05
1.45282e-05
1.4737e-05
1.43836e-05
6.12918e-06
6.03734e-06
2.81021e-05
2.22092e-05
2.98634e-05
3.01497e-05
2.80794e-05
2.21038e-05
2.94705e-05
2.39073e-05
8.60437e-06
2.38521e-05
8.75806e-06
2.80959e-05
2.98561e-05
2.20825e-05
3.01231e-05
2.82379e-05
2.94648e-05
2.23469e-05
2.41083e-05
9.23142e-06
8.95336e-06
2.42837e-05
2.80251e-05
2.98386e-05
2.26448e-05
2.87738e-05
2.22293e-05
2.91225e-05
2.78375e-05
2.42157e-05
9.1212e-06
8.90594e-06
2.44136e-05
2.8136e-05
2.97963e-05
2.87702e-05
2.24114e-05
2.91139e-05
2.23894e-05
2.81828e-05
2.37249e-05
8.57655e-06
2.36132e-05
8.77435e-06
2.78696e-05
2.98373e-05
2.19165e-05
3.01358e-05
2.79608e-05
2.94414e-05
2.21413e-05
2.36682e-05
8.56287e-06
2.36226e-05
8.74806e-06
2.81412e-05
2.97757e-05
2.26805e-05
2.87608e-05
2.25908e-05
2.91018e-05
2.81696e-05
2.38897e-05
9.1077e-06
8.90714e-06
2.41922e-05
2.79575e-05
2.98167e-05
2.87412e-05
2.2486e-05
2.90866e-05
2.24479e-05
2.78339e-05
2.37179e-05
9.13601e-06
8.87453e-06
2.38667e-05
1.402e-05
1.44025e-05
2.84935e-05
1.42099e-05
1.43803e-05
6.00956e-06
6.04193e-06
6.11072e-06
6.01107e-06
2.8294e-05
1.43726e-05
1.46073e-05
1.42042e-05
1.44478e-05
6.17762e-06
6.08638e-06
2.81336e-05
2.98346e-05
2.25252e-05
3.0105e-05
2.81413e-05
2.94426e-05
2.28176e-05
2.45738e-05
8.71562e-06
2.44531e-05
8.94634e-06
2.45808e-05
8.88681e-06
2.44529e-05
9.02525e-06
2.80458e-05
2.97277e-05
2.87327e-05
2.28669e-05
2.90767e-05
2.26932e-05
2.80224e-05
2.79849e-05
2.97856e-05
2.87366e-05
2.28229e-05
2.90835e-05
2.28328e-05
2.79416e-05
2.45359e-05
9.26447e-06
9.06267e-06
2.45615e-05
2.46466e-05
9.37159e-06
9.14887e-06
2.45538e-05
5.86765e-06
5.92349e-06
6.03735e-06
6.06779e-06
2.84359e-05
1.43193e-05
1.47042e-05
1.41714e-05
1.45635e-05
6.07737e-06
5.97329e-06
6.21782e-06
6.11906e-06
6.22098e-06
6.33732e-06
6.20733e-06
6.29998e-06
1.44722e-05
1.4545e-05
2.80922e-05
1.47464e-05
1.47002e-05
6.41501e-06
6.36915e-06
6.3437e-06
6.31244e-06
2.80773e-05
1.50278e-05
1.4772e-05
1.48354e-05
1.46749e-05
2.45995e-05
9.55711e-06
2.45661e-05
9.74819e-06
2.74685e-05
2.29857e-05
2.84113e-05
2.89839e-05
2.7841e-05
2.36299e-05
2.81367e-05
2.77261e-05
2.33345e-05
2.84167e-05
2.89779e-05
2.76839e-05
2.35223e-05
2.81378e-05
2.44544e-05
9.94924e-06
9.83547e-06
2.42765e-05
2.46238e-05
9.99709e-06
9.85594e-06
2.45568e-05
2.72761e-05
2.87811e-05
2.37276e-05
2.76751e-05
2.37189e-05
2.78906e-05
2.75902e-05
2.77467e-05
2.87751e-05
2.37015e-05
2.76799e-05
2.36084e-05
2.7899e-05
2.75881e-05
1.48523e-05
1.4585e-05
2.79217e-05
1.4847e-05
1.46825e-05
6.17916e-06
6.27791e-06
6.34066e-06
6.39181e-06
2.79848e-05
1.47603e-05
1.48167e-05
1.48716e-05
1.4708e-05
6.33123e-06
6.31483e-06
2.78632e-05
2.27935e-05
2.84924e-05
2.90237e-05
2.80688e-05
2.32598e-05
2.82042e-05
2.40947e-05
9.27638e-06
2.43559e-05
9.49961e-06
2.81256e-05
2.84848e-05
2.26132e-05
2.89852e-05
2.82087e-05
2.82012e-05
2.31647e-05
2.42561e-05
9.83562e-06
9.68205e-06
2.40584e-05
2.81127e-05
2.88162e-05
2.34119e-05
2.77516e-05
2.31868e-05
2.79833e-05
2.80881e-05
2.43087e-05
9.69362e-06
9.58541e-06
2.39396e-05
2.80782e-05
2.87555e-05
2.77517e-05
2.33618e-05
2.79822e-05
2.32944e-05
2.80627e-05
2.42089e-05
9.21459e-06
2.41176e-05
9.47964e-06
2.79015e-05
2.84517e-05
2.26395e-05
2.89831e-05
2.76135e-05
2.81666e-05
2.29603e-05
2.39955e-05
9.29222e-06
2.3889e-05
9.47985e-06
2.80864e-05
2.87642e-05
2.35219e-05
2.77532e-05
2.30982e-05
2.79743e-05
2.79674e-05
2.4006e-05
9.79672e-06
9.5799e-06
2.38615e-05
2.77454e-05
2.87937e-05
2.77133e-05
2.31757e-05
2.7943e-05
2.29566e-05
2.78941e-05
2.39493e-05
9.69374e-06
9.53986e-06
2.40802e-05
1.44482e-05
1.46122e-05
2.79939e-05
1.46293e-05
1.47692e-05
6.21103e-06
6.30643e-06
6.28915e-06
6.27863e-06
2.78502e-05
1.47026e-05
1.48368e-05
1.45948e-05
1.47741e-05
6.34145e-06
6.31383e-06
2.79183e-05
2.84353e-05
2.29093e-05
2.89555e-05
2.7971e-05
2.81559e-05
2.33152e-05
2.45252e-05
9.35257e-06
2.459e-05
9.63419e-06
2.46439e-05
9.50238e-06
2.44345e-05
9.73465e-06
2.7713e-05
2.86806e-05
2.76847e-05
2.35727e-05
2.78986e-05
2.31734e-05
2.7749e-05
2.77226e-05
2.8754e-05
2.76983e-05
2.33465e-05
2.79198e-05
2.33247e-05
2.77088e-05
2.45298e-05
9.90671e-06
9.73959e-06
2.45341e-05
2.44576e-05
9.95607e-06
9.83316e-06
2.44937e-05
6.12149e-06
6.156e-06
6.25553e-06
6.34087e-06
2.79156e-05
1.45757e-05
1.4682e-05
1.45467e-05
1.48276e-05
6.20247e-06
6.18846e-06
6.33582e-06
6.34781e-06
6.41664e-06
6.40208e-06
6.34589e-06
6.26508e-06
1.49884e-05
1.47277e-05
2.79908e-05
1.50393e-05
1.45378e-05
6.35667e-06
6.39747e-06
6.25164e-06
6.25838e-06
2.78979e-05
1.50524e-05
1.47248e-05
1.50508e-05
1.46554e-05
2.38192e-05
9.97126e-06
2.46004e-05
9.94865e-06
2.76065e-05
2.40113e-05
2.74833e-05
2.82427e-05
2.7372e-05
2.3991e-05
2.7317e-05
2.77378e-05
2.35516e-05
2.74848e-05
2.82559e-05
2.74709e-05
2.36375e-05
2.7323e-05
2.41575e-05
9.93753e-06
1.00369e-05
2.4049e-05
2.37673e-05
9.83265e-06
9.90598e-06
2.38485e-05
2.76429e-05
2.83166e-05
2.38995e-05
2.70601e-05
2.41007e-05
2.71734e-05
2.76979e-05
2.77582e-05
2.82986e-05
2.33812e-05
2.70577e-05
2.36898e-05
2.71751e-05
2.73896e-05
1.48278e-05
1.49146e-05
2.78232e-05
1.46548e-05
1.48472e-05
6.34905e-06
6.31561e-06
6.21146e-06
6.26515e-06
2.77641e-05
1.4656e-05
1.4739e-05
1.47689e-05
1.49013e-05
6.27594e-06
6.31838e-06
2.79537e-05
2.35482e-05
2.75853e-05
2.83234e-05
2.80149e-05
2.37586e-05
2.74067e-05
2.39101e-05
9.82418e-06
2.42036e-05
9.82658e-06
2.80058e-05
2.75859e-05
2.34153e-05
2.82695e-05
2.78928e-05
2.74071e-05
2.37324e-05
2.4066e-05
9.80898e-06
9.76074e-06
2.39773e-05
2.79594e-05
2.83918e-05
2.36906e-05
2.71602e-05
2.36794e-05
2.7283e-05
2.79376e-05
2.37355e-05
9.83262e-06
9.86082e-06
2.37025e-05
2.80389e-05
2.83354e-05
2.71624e-05
2.37332e-05
2.72756e-05
2.36248e-05
2.78441e-05
2.40553e-05
9.84296e-06
2.42209e-05
9.84643e-06
2.7936e-05
2.75439e-05
2.30835e-05
2.82253e-05
2.76174e-05
2.73646e-05
2.29984e-05
2.41248e-05
9.7554e-06
2.41716e-05
9.65028e-06
2.79723e-05
2.83686e-05
2.37479e-05
2.71829e-05
2.35063e-05
2.72856e-05
2.77634e-05
2.39452e-05
9.8534e-06
9.84737e-06
2.39852e-05
2.76844e-05
2.82949e-05
2.71168e-05
2.32184e-05
2.72406e-05
2.3224e-05
2.78455e-05
2.42068e-05
9.475e-06
9.66158e-06
2.37682e-05
1.4795e-05
1.48388e-05
2.77744e-05
1.4763e-05
1.47259e-05
6.33922e-06
6.32139e-06
6.26054e-06
6.30203e-06
2.7741e-05
1.46073e-05
1.46435e-05
1.48149e-05
1.4881e-05
6.24471e-06
6.29506e-06
2.77435e-05
2.75072e-05
2.36165e-05
2.82462e-05
2.79838e-05
2.7337e-05
2.36001e-05
2.45283e-05
9.90243e-06
2.43352e-05
9.90802e-06
2.44407e-05
9.94695e-06
2.44812e-05