/*--------------------------------*- C++ -*----------------------------------*\
| =========                 |                                                 |
| \\      /  F ield         | OpenFOAM: The Open Source CFD Toolbox           |
|  \\    /   O peration     | Version:  2206                                  |
|   \\  /    A nd           | Website:  www.openfoam.com                      |
|    \\/     M anipulation  |                                                 |
\*---------------------------------------------------------------------------*/
FoamFile
{
    version     2.0;
    format      ascii;
    arch        "LSB;label=32;scalar=64";
    class       volScalarField;
    location    "60";
    object      p;
}
// * * * * * * * * * * * * * * * * * * * * * * * * * * * * * * * * * * * * * //

dimensions      [0 2 -2 0 0 0 0];

internalField   nonuniform List<scalar> 
66616
(
-0.000337758
-0.000309108
-0.000309016
-0.000266738
-0.000902358
-0.000914421
-0.000914151
-0.000889954
-0.00127197
-0.0012755
-0.0012755
-0.00125738
-0.00157474
-0.00157645
-0.00157645
-0.00155921
-0.00185246
-0.00185444
-0.00185442
-0.00183812
-0.00210626
-0.00210794
-0.00210794
-0.00209283
-0.00234308
-0.00234363
-0.00234366
-0.00232924
-0.00257566
-0.00257573
-0.00257574
-0.00256142
-0.00280752
-0.00280775
-0.00280778
-0.00279337
-0.00303692
-0.00303755
-0.0030376
-0.00302351
-0.00326044
-0.00326103
-0.00326123
-0.00324773
-0.0034769
-0.00347701
-0.00347749
-0.00346462
-0.000218359
-0.00023125
-0.000231267
-0.000218372
-0.000231231
-0.000231262
-0.000235047
-0.000235048
-0.000235037
-0.000235042
-0.000231251
-0.000231279
-0.000218362
-0.000231233
-0.000231235
-0.000218369
-0.000266725
-0.000827206
-0.000309435
-0.000309471
-0.000791799
-0.000791791
-0.000266748
-0.000827208
-0.000309079
-0.000309507
-0.000792257
-0.000792187
-0.000309519
-0.00079228
-0.000792211
-0.000266729
-0.000827216
-0.000309035
-0.000791913
-0.000791912
-0.000827214
-0.000889955
-0.00121578
-0.000914069
-0.000914038
-0.00119445
-0.00119447
-0.000889939
-0.00121581
-0.00091442
-0.000914352
-0.00119453
-0.00119448
-0.000914361
-0.00119454
-0.00119448
-0.000889952
-0.00121578
-0.000914141
-0.00119448
-0.00119448
-0.00121582
-0.00125734
-0.00152177
-0.00127548
-0.00127546
-0.00150369
-0.00150368
-0.00125736
-0.00152173
-0.00127548
-0.00127546
-0.00150371
-0.00150368
-0.00127544
-0.0015037
-0.00150367
-0.00125735
-0.00152173
-0.00127548
-0.00150371
-0.00150371
-0.00152171
-0.00155925
-0.0018035
-0.00157641
-0.0015764
-0.00178705
-0.00178704
-0.00155922
-0.00180349
-0.00157644
-0.00157642
-0.00178708
-0.00178705
-0.0015764
-0.00178706
-0.00178706
-0.00155922
-0.00180349
-0.00157643
-0.00178705
-0.00178705
-0.00180347
-0.00183816
-0.00206151
-0.00185442
-0.0018544
-0.00204695
-0.00204695
-0.00183814
-0.00206151
-0.00185444
-0.00185441
-0.00204697
-0.00204696
-0.00185441
-0.00204696
-0.00204696
-0.00183814
-0.00206151
-0.00185441
-0.00204694
-0.00204695
-0.00206151
-0.00209283
-0.00229937
-0.00210792
-0.0021079
-0.00228549
-0.00228549
-0.00209283
-0.00229935
-0.00210792
-0.00210791
-0.00228552
-0.00228552
-0.0021079
-0.00228549
-0.00228552
-0.00209283
-0.00229938
-0.00210791
-0.00228551
-0.00228551
-0.00229938
-0.00232922
-0.00253159
-0.00234361
-0.00234359
-0.00251782
-0.00251783
-0.00232922
-0.00253159
-0.00234361
-0.00234361
-0.00251785
-0.00251786
-0.0023436
-0.00251787
-0.00251787
-0.00232925
-0.0025316
-0.00234361
-0.00251783
-0.00251786
-0.00253162
-0.00256139
-0.00276352
-0.0025757
-0.0025757
-0.00274995
-0.00274999
-0.0025614
-0.00276356
-0.0025757
-0.00257566
-0.00274999
-0.00274998
-0.00257569
-0.00275
-0.00275002
-0.0025614
-0.00276352
-0.00257573
-0.00274995
-0.00274998
-0.00276355
-0.00279337
-0.00299415
-0.00280776
-0.00280775
-0.00298077
-0.00298078
-0.00279338
-0.00299418
-0.00280771
-0.00280767
-0.00298083
-0.0029808
-0.0028077
-0.00298084
-0.00298084
-0.00279336
-0.00299413
-0.00280776
-0.00298074
-0.00298077
-0.00299416
-0.00302352
-0.00321936
-0.00303759
-0.00303758
-0.00320625
-0.00320626
-0.00302353
-0.0032194
-0.0030375
-0.00303746
-0.00320634
-0.00320635
-0.00303748
-0.00320636
-0.00320637
-0.00302349
-0.00321936
-0.00303756
-0.00320624
-0.00320625
-0.00321937
-0.00324777
-0.00343698
-0.00326119
-0.00326117
-0.0034242
-0.00342421
-0.00324775
-0.00343702
-0.00326099
-0.00326099
-0.0034244
-0.00342439
-0.00326097
-0.00342438
-0.00342439
-0.00324779
-0.00343696
-0.00326116
-0.00342417
-0.0034242
-0.003437
-0.00346473
-0.00347748
-0.00347747
-0.00346467
-0.00347704
-0.00347701
-0.00347693
-0.00346473
-0.00347743
-0.000136062
-0.000103545
-0.000119732
-0.000119776
-4.49808e-05
-8.78261e-05
-5.76395e-05
-0.000105234
-4.48506e-05
-8.7811e-05
-0.000105199
-5.75719e-05
-6.91819e-05
-6.32262e-05
-6.31609e-05
-0.000523896
-9.8328e-05
-0.00017553
-0.000542067
-0.000169414
-0.000535743
-0.000524089
-9.83331e-05
-0.000175497
-0.000542209
-0.000337777
-0.000337761
-0.000337776
-0.000779856
-0.00077987
-0.000779886
-0.000779889
-0.000518109
-0.000173717
-0.000317763
-0.000475322
-0.000222703
-0.000528487
-0.000477846
-0.000169445
-0.00053578
-0.000518015
-0.000317597
-0.000173593
-0.000475447
-0.00022276
-0.00047802
-0.000528408
-0.000222172
-0.000222017
-0.00051573
-0.000526488
-0.000526503
-0.00105822
-0.00092752
-0.00091947
-0.00106159
-0.000927771
-0.00106294
-0.00105854
-0.00092744
-0.000919673
-0.00106157
-0.000902312
-0.000902334
-0.000902328
-0.00118962
-0.00118964
-0.00118965
-0.00118964
-0.00104987
-0.0009147
-0.000908902
-0.00101734
-0.000905741
-0.00105423
-0.00101311
-0.000927758
-0.00106294
-0.00104917
-0.000908091
-0.000914618
-0.00101714
-0.000905079
-0.00101246
-0.00105395
-0.000918385
-0.000918498
-0.0010429
-0.0010578
-0.00105775
-0.00137561
-0.00126311
-0.00126278
-0.00137593
-0.00126422
-0.00137679
-0.0013758
-0.00126278
-0.00126226
-0.00137594
-0.00127197
-0.00127199
-0.00127196
-0.00150187
-0.0015019
-0.00150189
-0.00150189
-0.00137349
-0.001262
-0.00127405
-0.00135353
-0.00126114
-0.00137391
-0.00135245
-0.00126389
-0.00137674
-0.00137315
-0.00127388
-0.00126233
-0.00135355
-0.00126155
-0.00135233
-0.00137382
-0.00126172
-0.00126199
-0.00137274
-0.00137488
-0.00137486
-0.00166608
-0.00156068
-0.00156057
-0.00166644
-0.00156113
-0.00166675
-0.00166645
-0.00156054
-0.00156023
-0.00166662
-0.00157473
-0.00157475
-0.00157473
-0.0017852
-0.0017852
-0.00178521
-0.00178521
-0.0016649
-0.00156079
-0.00157584
-0.00164796
-0.00156082
-0.00166517
-0.00164742
-0.00156102
-0.0016669
-0.00166447
-0.00157577
-0.00156102
-0.00164795
-0.00156117
-0.00164734
-0.0016649
-0.00155988
-0.00156003
-0.00166518
-0.00166574
-0.00166561
-0.00193654
-0.00183938
-0.0018392
-0.00193691
-0.0018395
-0.00193699
-0.00193697
-0.00183929
-0.001839
-0.00193713
-0.00185242
-0.00185242
-0.00185241
-0.00204505
-0.00204505
-0.00204505
-0.00204504
-0.00193534
-0.00183966
-0.00185401
-0.0019203
-0.00183943
-0.00193584
-0.00191984
-0.00183943
-0.00193713
-0.00193485
-0.0018539
-0.00183982
-0.00192027
-0.00183971
-0.00191973
-0.00193555
-0.00183876
-0.00183885
-0.00193574
-0.00193643
-0.00193625
-0.00218169
-0.00209364
-0.00209329
-0.00218216
-0.00209361
-0.00218213
-0.00218216
-0.00209357
-0.00209308
-0.00218237
-0.00210622
-0.00210622
-0.00210621
-0.00228466
-0.00228467
-0.00228469
-0.00228468
-0.00218092
-0.00209405
-0.0021074
-0.00216788
-0.00209373
-0.00218148
-0.00216736
-0.00209358
-0.00218238
-0.00218045
-0.00210734
-0.00209423
-0.00216786
-0.00209403
-0.0021673
-0.00218117
-0.00209334
-0.00209343
-0.00218195
-0.00218208
-0.00218191
-0.00241531
-0.00232939
-0.0023292
-0.00241559
-0.00232944
-0.00241569
-0.0024158
-0.00232935
-0.00232899
-0.00241583
-0.00234304
-0.00234305
-0.00234304
-0.00251766
-0.00251768
-0.00251768
-0.0025177
-0.00241468
-0.0023301
-0.00234329
-0.00240179
-0.00232997
-0.00241504
-0.00240151
-0.00232947
-0.00241591
-0.00241421
-0.00234327
-0.00233028
-0.00240178
-0.00233028
-0.00240146
-0.00241475
-0.00232942
-0.0023295
-0.00241563
-0.00241572
-0.00241553
-0.00264772
-0.00256177
-0.00256174
-0.00264792
-0.00256187
-0.00264798
-0.00264813
-0.0025617
-0.0025615
-0.0026481
-0.00257564
-0.00257563
-0.00257563
-0.00274975
-0.00274978
-0.00274976
-0.00274977
-0.00264696
-0.00256248
-0.00257562
-0.00263391
-0.00256248
-0.00264735
-0.00263381
-0.00256183
-0.00264815
-0.0026465
-0.00257559
-0.00256269
-0.00263384
-0.00256283
-0.00263373
-0.00264703
-0.0025618
-0.00256188
-0.00264759
-0.00264794
-0.00264779
-0.00287936
-0.00279384
-0.00279384
-0.00287953
-0.00279393
-0.00287963
-0.00287971
-0.00279373
-0.00279352
-0.00287969
-0.0028075
-0.00280748
-0.00280748
-0.00298009
-0.00298012
-0.00298009
-0.0029801
-0.00287857
-0.00279449
-0.00280766
-0.00286579
-0.00279453
-0.00287892
-0.00286565
-0.0027938
-0.00287968
-0.00287814
-0.00280767
-0.0027947
-0.00286571
-0.00279486
-0.00286559
-0.00287864
-0.00279374
-0.00279389
-0.00287925
-0.00287949
-0.00287936
-0.00310741
-0.00302371
-0.00302371
-0.00310754
-0.00302376
-0.00310758
-0.00310769
-0.00302359
-0.00302337
-0.00310768
-0.00303689
-0.00303687
-0.00303686
-0.00320536
-0.00320539
-0.00320538
-0.00320538
-0.00310665
-0.00302436
-0.00303734
-0.00309449
-0.00302438
-0.00310702
-0.0030942
-0.00302362
-0.00310765
-0.00310622
-0.00303737
-0.00302454
-0.00309435
-0.00302472
-0.00309412
-0.0031067
-0.0030236
-0.0030237
-0.00310768
-0.00310751
-0.00310737
-0.00332854
-0.00324765
-0.00324768
-0.00332863
-0.00324769
-0.00332868
-0.00332881
-0.0032476
-0.00324745
-0.00332874
-0.00326039
-0.0032604
-0.00326037
-0.00342357
-0.00342358
-0.00342358
-0.00342357
-0.00332788
-0.00324832
-0.00326076
-0.00331621
-0.00324841
-0.00332811
-0.00331593
-0.00324762
-0.0033287
-0.0033275
-0.0032609
-0.00324847
-0.00331606
-0.00324873
-0.00331582
-0.00332783
-0.00324758
-0.00324769
-0.0033291
-0.00332864
-0.00332853
-0.00354281
-0.00346452
-0.00346464
-0.00354287
-0.00346448
-0.00354304
-0.00346449
-0.0034644
-0.00347683
-0.00347685
-0.00347678
-0.00354205
-0.00346522
-0.00347672
-0.00353098
-0.00346539
-0.00354235
-0.0035309
-0.00346452
-0.00354186
-0.00347723
-0.00346551
-0.00346574
-0.00353089
-0.00346449
-0.00346456
-0.00354332
-0.00354308
-0.00354292
-6.92438e-05
-6.28329e-05
-6.28722e-05
-6.73624e-05
-8.77671e-05
-6.76039e-05
-8.78213e-05
-0.000100281
-0.000122883
-0.000122751
-7.18289e-05
-7.18424e-05
-4.48671e-05
-8.76996e-05
-5.7593e-05
-0.000105221
-4.4859e-05
-8.76786e-05
-5.76833e-05
-0.000105219
-6.13695e-05
-2.31773e-05
-8.48408e-05
-0.000172513
-6.1364e-05
-2.32214e-05
-8.48959e-05
-0.000172517
-7.89829e-05
-0.000115265
-0.00013274
-0.000213385
-6.87278e-05
-0.000137954
-0.000186041
-7.89763e-05
-0.000115247
-0.000132804
-0.000213391
-6.87885e-05
-0.00013795
-0.000186041
-6.92116e-05
-6.31941e-05
-6.28758e-05
-6.74908e-05
-8.76238e-05
-0.00010025
-0.000123215
-0.000123001
-7.15521e-05
-7.18498e-05
-6.76114e-05
-8.78361e-05
-4.49677e-05
-8.78363e-05
-5.7634e-05
-0.000105232
-4.49632e-05
-8.76701e-05
-0.00010523
-5.77152e-05
-6.13566e-05
-2.37242e-05
-8.48792e-05
-0.00017261
-7.89558e-05
-0.000115566
-0.000132998
-0.000213322
-6.87313e-05
-0.000137928
-0.000186066
-6.13516e-05
-2.38203e-05
-8.48962e-05
-0.000172609
-7.89519e-05
-0.000115243
-0.000213339
-0.000133161
-0.000137924
-6.88185e-05
-0.000186074
-0.000136055
-0.000103528
-0.000119722
-0.000119772
-0.000136059
-0.000103517
-0.000119766
-0.000119718
-0.000136054
-0.000103512
-0.000119768
-0.000119712
-0.000171889
-0.000126413
-0.000253941
-0.000253831
-0.000149089
-0.000149034
-0.000270987
-0.000171892
-0.000126404
-0.000253948
-0.00025384
-0.000149094
-0.000149037
-0.000270991
-0.000171905
-0.000126396
-0.000253843
-0.000253944
-0.000149036
-0.000149089
-0.000271033
-0.000171903
-0.000126385
-0.000253848
-0.00025395
-0.000149033
-0.000149086
-0.000271038
-4.49734e-05
-8.76577e-05
-0.000105227
-5.77179e-05
-7.89769e-05
-0.000115542
-0.000133099
-0.00021334
-6.87544e-05
-0.00013793
-0.000186092
-6.13868e-05
-2.37415e-05
-8.49086e-05
-0.000172632
-7.89714e-05
-0.000115229
-0.000213351
-0.000133253
-0.000137929
-6.88332e-05
-0.000186102
-6.13789e-05
-2.38518e-05
-8.49119e-05
-0.000172636
-6.9198e-05
-6.32219e-05
-6.28215e-05
-6.77289e-05
-8.76177e-05
-0.00010024
-0.000123341
-0.000122863
-7.15632e-05
-7.18115e-05
-6.73715e-05
-8.77644e-05
-4.4839e-05
-8.77892e-05
-0.00010519
-5.76513e-05
-7.89732e-05
-0.000115531
-0.000213408
-0.000132723
-0.00013795
-6.87148e-05
-0.000186027
-7.89676e-05
-0.000115513
-0.000213409
-0.000132777
-0.000137949
-6.87704e-05
-0.000186023
-6.1354e-05
-2.31434e-05
-8.48474e-05
-0.000172502
-6.13467e-05
-2.31569e-05
-8.48547e-05
-0.000172508
-0.000100211
-0.000123569
-0.000123192
-7.15857e-05
-7.15031e-05
-6.77412e-05
-8.76591e-05
-6.74909e-05
-8.75705e-05
-0.000169388
-0.00053571
-0.000169443
-0.000535772
-0.000221967
-0.000221883
-0.000515727
-0.000526411
-0.000526436
-0.000872628
-0.00060257
-0.000872847
-0.000602465
-0.000604171
-0.000861299
-0.000861726
-0.000603084
-0.000603065
-0.000523889
-9.83216e-05
-0.000175545
-0.000542079
-0.000518023
-0.000173597
-0.000317697
-0.000475264
-0.000222755
-0.000528419
-0.000478057
-0.000518024
-0.000173597
-0.00031771
-0.000475283
-0.000222756
-0.000528433
-0.000478066
-0.000612331
-0.000873388
-0.000612859
-0.000863274
-0.00061234
-0.000873414
-0.000612884
-0.000863276
-0.000611014
-0.000643197
-0.000854565
-0.000785542
-0.000613889
-0.000639729
-0.000842151
-0.000611022
-0.000643204
-0.000854599
-0.000785546
-0.000613881
-0.000639741
-0.000842161
-0.000222056
-0.000221978
-0.000515732
-0.000526486
-0.000526434
-0.000169428
-0.000535788
-0.000872661
-0.000602593
-0.000604181
-0.000861363
-0.000861694
-0.000603135
-0.000603077
-0.000872845
-0.000602484
-0.0005181
-0.000173681
-0.000317748
-0.000475293
-0.000222663
-0.000528476
-0.000477833
-0.000524087
-9.83437e-05
-0.000175503
-0.000542219
-0.000518105
-0.000317786
-0.000173713
-0.000475157
-0.000222667
-0.000477804
-0.000528505
-0.000612171
-0.000873603
-0.000612735
-0.000864204
-0.000611009
-0.000643266
-0.000855494
-0.000786568
-0.000613849
-0.00063995
-0.000843444
-0.000612175
-0.000873619
-0.000612754
-0.000864205
-0.000611011
-0.00064319
-0.000786519
-0.000855527
-0.000639871
-0.000613834
-0.000843465
-0.000524093
-9.83205e-05
-0.000175538
-0.000542217
-0.00051812
-0.000317797
-0.000173739
-0.000475179
-0.000222696
-0.000477814
-0.000528535
-0.000524105
-9.83657e-05
-0.00017553
-0.000542248
-0.000611029
-0.000643282
-0.000855505
-0.000786559
-0.00061387
-0.00063994
-0.000843447
-0.000612189
-0.000873626
-0.000612755
-0.000864192
-0.000611025
-0.000643213
-0.000786523
-0.000855512
-0.000639871
-0.000613857
-0.00084346
-0.000612195
-0.000873613
-0.00061277
-0.000864192
-0.000222111
-0.000221926
-0.000515727
-0.000526487
-0.000526431
-0.000169384
-0.000535737
-0.000872847
-0.000602471
-0.000604166
-0.000861734
-0.000861319
-0.000603078
-0.000603135
-0.000872651
-0.000602607
-0.000518017
-0.000317608
-0.000173622
-0.00047546
-0.000222754
-0.000478025
-0.00052843
-0.000523893
-9.82912e-05
-0.000175544
-0.000542058
-0.000523897
-9.8324e-05
-0.000175551
-0.000542092
-0.000611054
-0.000643303
-0.000785602
-0.000854548
-0.000639748
-0.000613923
-0.000842162
-0.000611058
-0.000643323
-0.000785612
-0.000854568
-0.000639772
-0.000613925
-0.000842172
-0.000612365
-0.000873415
-0.000612878
-0.000863307
-0.000612365
-0.000873419
-0.000612904
-0.000863299
-0.00016942
-0.000535812
-0.000169434
-0.000535767
-0.000604171
-0.000861687
-0.00086135
-0.000603077
-0.000603156
-0.000872821
-0.000602498
-0.000872664
-0.000602622
-0.000927751
-0.00106298
-0.000927748
-0.00106291
-0.000918464
-0.000918427
-0.00104291
-0.00105774
-0.00105779
-0.00122438
-0.00110584
-0.00122424
-0.00110556
-0.00108981
-0.00122156
-0.00122153
-0.00110184
-0.00110164
-0.00105817
-0.000927524
-0.000919477
-0.00106157
-0.00104917
-0.00091458
-0.000908026
-0.00101706
-0.000905027
-0.00105398
-0.00101241
-0.00104919
-0.000914597
-0.000908022
-0.00101703
-0.00090504
-0.00105396
-0.00101242
-0.00110229
-0.00122312
-0.00110451
-0.00122232
-0.00110232
-0.00122312
-0.0011045
-0.00122233
-0.00109755
-0.00110904
-0.00121986
-0.00119222
-0.00110066
-0.00110576
-0.0012179
-0.00109755
-0.00110905
-0.00121985
-0.00119221
-0.00110067
-0.00110577
-0.00121789
-0.000918517
-0.000918385
-0.00104288
-0.00105768
-0.00105788
-0.00092775
-0.00106296
-0.00122441
-0.00110584
-0.0010898
-0.00122159
-0.00122145
-0.00110185
-0.00110163
-0.00122423
-0.0011056
-0.00104986
-0.000914716
-0.0009089
-0.00101734
-0.000905752
-0.00105419
-0.00101311
-0.00105852
-0.000927465
-0.000919687
-0.00106161
-0.00104987
-0.000908866
-0.000914729
-0.0010173
-0.000905766
-0.00101309
-0.00105422
-0.00110196
-0.00122301
-0.00110419
-0.00122244
-0.00109746
-0.0011092
-0.00121992
-0.00119247
-0.00110044
-0.00110622
-0.00121824
-0.00110203
-0.00122301
-0.00110421
-0.00122244
-0.00109745
-0.00110917
-0.00119249
-0.00121994
-0.00110624
-0.00110047
-0.00121824
-0.0010585
-0.000927467
-0.000919696
-0.0010616
-0.00104987
-0.000908866
-0.000914715
-0.00101729
-0.000905737
-0.0010131
-0.00105423
-0.00105852
-0.000927461
-0.000919689
-0.00106159
-0.00109743
-0.00110919
-0.00121984
-0.00119249
-0.00110045
-0.00110623
-0.00121821
-0.00110203
-0.001223
-0.00110422
-0.00122241
-0.00109746
-0.00110917
-0.00119248
-0.00121997
-0.00110624
-0.00110045
-0.00121823
-0.00110201
-0.00122302
-0.00110421
-0.00122244
-0.000918436
-0.00091848
-0.0010429
-0.00105783
-0.00105775
-0.000927768
-0.00106298
-0.00122424
-0.00110558
-0.0010898
-0.00122153
-0.00122153
-0.00110165
-0.00110182
-0.00122438
-0.00110584
-0.00104916
-0.000908083
-0.000914603
-0.00101713
-0.000905082
-0.00101245
-0.00105399
-0.00105819
-0.000927527
-0.000919502
-0.00106161
-0.00105819
-0.000927515
-0.000919494
-0.00106157
-0.00109756
-0.00110909
-0.00119219
-0.00121978
-0.00110576
-0.00110066
-0.00121792
-0.00109755
-0.00110911
-0.00119219
-0.00121983
-0.00110578
-0.00110064
-0.00121793
-0.00110236
-0.0012231
-0.00110448
-0.00122226
-0.00110234
-0.00122312
-0.00110451
-0.00122228
-0.000927737
-0.00106292
-0.000927768
-0.00106296
-0.00108982
-0.00122152
-0.00122155
-0.00110161
-0.00110183
-0.00122423
-0.00110556
-0.00122436
-0.00110584
-0.00126418
-0.00137681
-0.00126391
-0.00137677
-0.00126197
-0.00126175
-0.00137274
-0.00137485
-0.00137488
-0.00152397
-0.00141513
-0.00152401
-0.00141493
-0.00141179
-0.00152253
-0.00152264
-0.00141361
-0.00141345
-0.00137561
-0.00126313
-0.00126279
-0.00137591
-0.00137316
-0.00126232
-0.00127389
-0.00135354
-0.00126154
-0.00137382
-0.00135235
-0.00137316
-0.00126233
-0.00127389
-0.00135354
-0.00126151
-0.00137381
-0.00135235
-0.0014143
-0.00152341
-0.00141441
-0.00152311
-0.0014143
-0.00152342
-0.00141441
-0.00152311
-0.00141446
-0.00142944
-0.00152176
-0.00150291
-0.00141445
-0.00142852
-0.00152135
-0.00141446
-0.00142946
-0.00152175
-0.00150291
-0.00141445
-0.00142853
-0.00152135
-0.001262
-0.0012617
-0.00137275
-0.00137485
-0.00137484
-0.0012639
-0.00137671
-0.00152397
-0.00141512
-0.00141181
-0.00152255
-0.00152258
-0.00141363
-0.00141341
-0.00152401
-0.00141489
-0.00137349
-0.00126206
-0.00127404
-0.00135354
-0.00126117
-0.00137395
-0.00135246
-0.00137579
-0.00126277
-0.00126228
-0.00137592
-0.00137348
-0.00127405
-0.00126203
-0.00135352
-0.00126118
-0.00135248
-0.00137396
-0.00141387
-0.00152352
-0.00141417
-0.00152341
-0.00141407
-0.00142945
-0.00152195
-0.00150299
-0.0014142
-0.00142862
-0.00152177
-0.00141388
-0.00152354
-0.00141417
-0.00152341
-0.0014141
-0.00142945
-0.001503
-0.00152194
-0.00142863
-0.00141421
-0.00152178
-0.00137578
-0.00126277
-0.00126227
-0.00137589
-0.0013735
-0.00127405
-0.00126204
-0.00135351
-0.00126116
-0.00135246
-0.00137395
-0.00137578
-0.00126278
-0.00126228
-0.00137592
-0.00141409
-0.00142944
-0.00152188
-0.001503
-0.00141418
-0.00142857
-0.0015217
-0.00141386
-0.00152351
-0.00141415
-0.00152337
-0.0014141
-0.00142941
-0.00150302
-0.00152193
-0.0014286
-0.0014142
-0.00152174
-0.00141386
-0.0015235
-0.00141416
-0.00152338
-0.00126174
-0.00126197
-0.00137273
-0.00137489
-0.00137483
-0.00126421
-0.00137679
-0.00152404
-0.00141492
-0.00141182
-0.00152264
-0.00152253
-0.00141345
-0.00141362
-0.00152399
-0.00141512
-0.00137317
-0.00127386
-0.00126235
-0.00135357
-0.00126155
-0.00135235
-0.00137382
-0.00137561
-0.00126312
-0.00126278
-0.00137591
-0.00137562
-0.00126313
-0.00126279
-0.00137593
-0.00141449
-0.00142947
-0.00150289
-0.00152173
-0.00142849
-0.00141448
-0.00152135
-0.00141448
-0.00142948
-0.00150289
-0.00152173
-0.00142851
-0.00141447
-0.00152135
-0.00141431
-0.00152343
-0.00141441
-0.00152311
-0.00141432
-0.00152342
-0.00141441
-0.00152311
-0.00126389
-0.00137672
-0.0012642
-0.0013768
-0.00141181
-0.00152261
-0.00152253
-0.00141342
-0.00141362
-0.00152401
-0.00141489
-0.00152398
-0.00141512
-0.00156112
-0.0016668
-0.00156101
-0.00166691
-0.00156002
-0.00155991
-0.0016652
-0.00166561
-0.00166577
-0.0018049
-0.00170281
-0.00180504
-0.00170275
-0.00170133
-0.00180396
-0.00180413
-0.00170197
-0.0017019
-0.00166608
-0.00156069
-0.00156059
-0.0016664
-0.00166448
-0.00156102
-0.00157575
-0.00164791
-0.0015612
-0.00166491
-0.00164734
-0.0016645
-0.00156101
-0.00157574
-0.00164789
-0.0015612
-0.00166486
-0.00164734
-0.00170236
-0.00180468
-0.00170256
-0.00180434
-0.00170236
-0.00180467
-0.00170255
-0.00180431
-0.00170303
-0.00171812
-0.00180329
-0.00178656
-0.00170299
-0.00171762
-0.00180269
-0.00170303
-0.00171812
-0.0018033
-0.00178655
-0.00170299
-0.00171761
-0.00180268
-0.00156005
-0.00155985
-0.0016652
-0.0016655
-0.00166584
-0.001561
-0.00166694
-0.0018049
-0.00170279
-0.00170133
-0.00180399
-0.00180405
-0.00170197
-0.00170188
-0.00180499
-0.00170274
-0.0016649
-0.00156083
-0.00157585
-0.00164795
-0.00156084
-0.00166516
-0.00164746
-0.00166646
-0.00156054
-0.00156025
-0.0016666
-0.00166493
-0.00157586
-0.00156081
-0.00164793
-0.00156086
-0.00164747
-0.00166515
-0.00170209
-0.00180487
-0.00170247
-0.00180478
-0.00170265
-0.00171816
-0.00180358
-0.00178666
-0.00170286
-0.00171772
-0.00180313
-0.0017021
-0.00180487
-0.00170246
-0.00180477
-0.00170267
-0.00171814
-0.00178667
-0.00180356
-0.00171774
-0.00170282
-0.00180313
-0.00166644
-0.00156052
-0.00156023
-0.00166661
-0.00166493
-0.00157585
-0.0015608
-0.00164791
-0.00156086
-0.00164744
-0.00166513
-0.00166644
-0.00156052
-0.00156024
-0.00166659
-0.00170264
-0.00171813
-0.00180352
-0.00178664
-0.00170283
-0.00171769
-0.0018031
-0.0017021
-0.00180485
-0.00170245
-0.00180476
-0.00170267
-0.00171812
-0.00178666
-0.00180354
-0.00171773
-0.00170281
-0.00180312
-0.00170209
-0.00180486
-0.00170244
-0.00180476
-0.00155991
-0.00156003
-0.00166522
-0.00166575
-0.0016656
-0.00156115
-0.00166681
-0.00180502
-0.00170274
-0.00170134
-0.00180411
-0.00180393
-0.00170188
-0.00170197
-0.00180487
-0.00170282
-0.00166449
-0.00157576
-0.00156103
-0.00164792
-0.00156119
-0.00164733
-0.00166489
-0.00166607
-0.00156071
-0.00156059
-0.00166644
-0.00166607
-0.00156069
-0.0015606
-0.00166643
-0.00170302
-0.00171813
-0.00178654
-0.00180326
-0.00171758
-0.001703
-0.00180267
-0.00170303
-0.00171814
-0.00178654
-0.00180328
-0.0017176
-0.00170299
-0.00180266
-0.00170236
-0.00180465
-0.00170257
-0.00180431
-0.00170236
-0.00180466
-0.00170255
-0.0018043
-0.00156099
-0.0016669
-0.00156111
-0.0016668
-0.00170131
-0.0018041
-0.00180394
-0.00170185
-0.00170197
-0.00180502
-0.00170273
-0.00180488
-0.0017028
-0.00183951
-0.001937
-0.00183945
-0.00193716
-0.00183886
-0.0018388
-0.00193575
-0.00193627
-0.00193644
-0.00206231
-0.00196991
-0.00206246
-0.00196988
-0.00196865
-0.00206185
-0.002062
-0.0019695
-0.00196944
-0.00193654
-0.00183937
-0.00183922
-0.00193689
-0.00193487
-0.00183984
-0.00185392
-0.00192027
-0.0018397
-0.00193557
-0.00191976
-0.00193487
-0.00183983
-0.0018539
-0.00192025
-0.0018397
-0.00193556
-0.00191975
-0.00196963
-0.00206228
-0.0019699
-0.0020618
-0.00196964
-0.00206227
-0.0019699
-0.00206179
-0.00197013
-0.0019844
-0.00206111
-0.00204639
-0.00197036
-0.00198388
-0.00206032
-0.00197013
-0.0019844
-0.0020611
-0.00204639
-0.00197037
-0.00198388
-0.00206032
-0.00183888
-0.00183875
-0.00193574
-0.00193627
-0.00193641
-0.00183942
-0.00193713
-0.00206229
-0.00196991
-0.00196865
-0.00206185
-0.00206197
-0.00196951
-0.00196942
-0.00206244
-0.00196986
-0.00193534
-0.0018397
-0.00185401
-0.0019203
-0.00183944
-0.00193585
-0.00191985
-0.00193697
-0.00183928
-0.00183903
-0.00193709
-0.00193535
-0.00185401
-0.00183967
-0.00192028
-0.00183944
-0.00191986
-0.00193583
-0.0019694
-0.00206249
-0.00196984
-0.00206224
-0.00196987
-0.00198441
-0.00206138
-0.00204645
-0.00197022
-0.00198395
-0.0020608
-0.00196941
-0.00206249
-0.00196981
-0.00206224
-0.00196988
-0.0019844
-0.00204647
-0.00206138
-0.00198397
-0.00197021
-0.0020608
-0.00193696
-0.00183928
-0.00183901
-0.00193711
-0.00193535
-0.001854
-0.00183965
-0.00192027
-0.00183944
-0.00191985
-0.00193584
-0.00193696
-0.00183929
-0.00183902
-0.0019371
-0.00196987
-0.00198439
-0.00206136
-0.00204644
-0.00197023
-0.00198392
-0.0020608
-0.0019694
-0.00206248
-0.00196982
-0.00206223
-0.00196989
-0.00198439
-0.00204647
-0.00206138
-0.00198396
-0.00197021
-0.00206081
-0.0019694
-0.00206248
-0.00196982
-0.00206223
-0.00183877
-0.00183884
-0.00193574
-0.00193642
-0.00193623
-0.00183948
-0.00193697
-0.00206245
-0.00196986
-0.00196864
-0.002062
-0.00206181
-0.00196942
-0.00196948
-0.00206228
-0.00196989
-0.00193485
-0.00185388
-0.00183983
-0.00192026
-0.00183971
-0.00191972
-0.00193555
-0.00193652
-0.00183936
-0.00183924
-0.00193688
-0.00193652
-0.00183935
-0.00183923
-0.00193688
-0.00197014
-0.00198438
-0.00204636
-0.00206108
-0.00198383
-0.00197037
-0.00206031
-0.00197015
-0.0019844
-0.00204637
-0.00206108
-0.00198385
-0.00197038
-0.00206031
-0.00196963
-0.00206226
-0.00196989
-0.00206178
-0.00196963
-0.00206226
-0.00196989
-0.00206178
-0.00183944
-0.00193714
-0.00183948
-0.00193698
-0.00196864
-0.00206199
-0.00206181
-0.00196941
-0.00196949
-0.00206244
-0.00196986
-0.00206228
-0.00196989
-0.00209362
-0.00218221
-0.00209358
-0.00218236
-0.00209343
-0.00209336
-0.00218195
-0.00218192
-0.00218208
-0.00229939
-0.00221264
-0.00229955
-0.00221259
-0.00221222
-0.0022992
-0.00229938
-0.00221263
-0.00221255
-0.00218168
-0.00209364
-0.00209333
-0.00218211
-0.00218042
-0.00209423
-0.00210734
-0.00216784
-0.00209399
-0.00218115
-0.0021673
-0.00218041
-0.00209423
-0.00210733
-0.00216782
-0.002094
-0.0021811
-0.00216729
-0.00221229
-0.0022993
-0.00221262
-0.00229892
-0.00221229
-0.00229927
-0.0022126
-0.0022989
-0.00221321
-0.00222688
-0.00229843
-0.00228507
-0.00221338
-0.00222641
-0.00229779
-0.00221321
-0.00222688
-0.00229844
-0.00228507
-0.00221339
-0.00222641
-0.00229777
-0.00209346
-0.00209332
-0.00218194
-0.00218178
-0.00218219
-0.00209357
-0.00218241
-0.00229937
-0.00221259
-0.00221222
-0.00229922
-0.00229931
-0.00221261
-0.00221256
-0.00229952
-0.00221261
-0.00218092
-0.00209407
-0.00210739
-0.00216786
-0.00209371
-0.00218144
-0.00216736
-0.00218216
-0.00209357
-0.0020931
-0.00218239
-0.00218095
-0.0021074
-0.00209406
-0.00216785
-0.00209371
-0.00216738
-0.00218146
-0.00221208
-0.00229953
-0.00221255
-0.00229941
-0.00221295
-0.00222688
-0.00229874
-0.00228512
-0.00221323
-0.00222646
-0.00229828
-0.00221209
-0.00229957
-0.00221258
-0.0022994
-0.00221297
-0.0022269
-0.00228515
-0.00229876
-0.00222649
-0.00221325
-0.0022983
-0.00218215
-0.00209358
-0.00209311
-0.0021824
-0.00218092
-0.0021074
-0.00209407
-0.00216786
-0.00209373
-0.00216737
-0.00218145
-0.00218215
-0.00209357
-0.00209311
-0.00218236
-0.00221295
-0.00222686
-0.0022987
-0.00228511
-0.00221323
-0.00222643
-0.00229828
-0.00221206
-0.00229952
-0.00221257
-0.00229938
-0.00221295
-0.0022269
-0.00228514
-0.00229874
-0.00222648
-0.00221323
-0.00229829
-0.00221206
-0.00229953
-0.00221255
-0.00229939
-0.00209335
-0.00209343
-0.00218196
-0.00218211
-0.00218192
-0.00209362
-0.00218222
-0.00229959
-0.00221262
-0.00221224
-0.00229941
-0.00229922
-0.00221258
-0.00221265
-0.00229941
-0.00221266
-0.00218044
-0.00210732
-0.00209423
-0.00216785
-0.002094
-0.00216729
-0.00218115
-0.00218172
-0.00209366
-0.00209336
-0.00218217
-0.00218171
-0.00209364
-0.00209335
-0.00218215
-0.00221326
-0.00222688
-0.00228506
-0.00229844
-0.00222638
-0.00221342
-0.0022978
-0.00221324
-0.00222691
-0.00228508
-0.00229845
-0.00222641
-0.0022134
-0.00229781
-0.00221233
-0.00229933
-0.00221266
-0.00229895
-0.00221233
-0.00229931
-0.00221263
-0.00229895
-0.00209357
-0.00218235
-0.00209361
-0.00218219
-0.00221223
-0.00229937
-0.0022992
-0.00221253
-0.00221262
-0.00229956
-0.00221258
-0.00229939
-0.00221262
-0.00232946
-0.0024157
-0.00232943
-0.00241587
-0.00232948
-0.00232943
-0.00241562
-0.0024155
-0.00241568
-0.00253187
-0.00244571
-0.00253204
-0.00244569
-0.00244539
-0.00253166
-0.00253182
-0.00244575
-0.0024457
-0.00241531
-0.00232937
-0.00232922
-0.00241556
-0.00241417
-0.00233025
-0.00234324
-0.00240173
-0.0023302
-0.00241475
-0.00240144
-0.00241418
-0.00233024
-0.00234322
-0.00240173
-0.00233021
-0.00241473
-0.00240144
-0.00244552
-0.00253175
-0.00244564
-0.00253154
-0.00244554
-0.00253177
-0.00244564
-0.00253153
-0.00244659
-0.00245971
-0.00253092
-0.00251765
-0.00244654
-0.00245951
-0.00253037
-0.00244661
-0.00245973
-0.00253093
-0.00251766
-0.00244655
-0.00245953
-0.00253038
-0.00232949
-0.00232938
-0.00241562
-0.00241549
-0.00241566
-0.00232941
-0.00241586
-0.00253188
-0.00244572
-0.00244539
-0.00253169
-0.0025318
-0.00244576
-0.0024457
-0.00253203
-0.0024457
-0.00241467
-0.00233014
-0.00234328
-0.00240178
-0.00232996
-0.00241505
-0.00240149
-0.00241581
-0.00232937
-0.00232903
-0.00241586
-0.0024147
-0.00234329
-0.00233013
-0.00240177
-0.00232996
-0.00240152
-0.00241506
-0.0024453
-0.00253199
-0.00244558
-0.002532
-0.00244631
-0.00245972
-0.00253119
-0.00251768
-0.00244641
-0.00245952
-0.00253086
-0.00244532
-0.00253201
-0.00244563
-0.00253199
-0.00244632
-0.00245973
-0.00251771
-0.00253121
-0.00245956
-0.00244641
-0.00253086
-0.00241582
-0.00232934
-0.00232901
-0.00241582
-0.00241469
-0.00234329
-0.00233012
-0.00240178
-0.00232997
-0.00240152
-0.00241507
-0.00241583
-0.00232935
-0.00232902
-0.00241583
-0.00244633
-0.0024597
-0.00253118
-0.0025177