/*--------------------------------*- C++ -*----------------------------------*\
| =========                 |                                                 |
| \\      /  F ield         | OpenFOAM: The Open Source CFD Toolbox           |
|  \\    /   O peration     | Version:  2206                                  |
|   \\  /    A nd           | Website:  www.openfoam.com                      |
|    \\/     M anipulation  |                                                 |
\*---------------------------------------------------------------------------*/
FoamFile
{
    version     2.0;
    format      ascii;
    arch        "LSB;label=32;scalar=64";
    class       surfaceScalarField;
    location    "60";
    object      phi;
}
// * * * * * * * * * * * * * * * * * * * * * * * * * * * * * * * * * * * * * //

dimensions      [0 3 -1 0 0 0 0];

oriented        oriented;

internalField   nonuniform List<scalar> 
198849
(
-1.24501e-07
8.73672e-09
7.97027e-09
8.74818e-10
5.55468e-10
1.06363e-07
-2.51188e-08
1.43439e-09
-7.97185e-09
-4.70364e-09
1.06559e-07
1.61354e-09
1.28185e-09
6.43695e-10
2.56134e-09
1.69275e-09
3.10751e-09
1.14405e-09
-2.61481e-08
-2.94765e-08
-2.66191e-08
-2.5116e-08
1.4342e-09
-7.96835e-09
-4.69252e-09
1.06534e-07
1.61285e-09
1.28099e-09
6.43624e-10
2.56048e-09
1.69269e-09
3.1072e-09
1.14309e-09
-2.94726e-08
-2.61447e-08
-2.66146e-08
-2.57689e-08
-7.24402e-10
-1.44556e-09
1.34324e-09
1.69182e-09
2.49038e-08
-6.14625e-10
-6.32506e-10
-1.07999e-07
3.33296e-10
3.20595e-10
1.08592e-07
-1.04591e-07
-2.04908e-10
6.31247e-10
2.9946e-10
1.05154e-07
-1.21657e-10
-1.03856e-10
-1.55841e-10
-2.63726e-10
-1.88651e-10
-1.98009e-10
-2.5697e-10
-1.05497e-07
-2.09539e-10
6.22811e-10
2.90627e-10
1.06067e-07
-1.32701e-10
-9.91308e-11
-1.46522e-10
-2.07086e-10
-2.15951e-10
-2.46989e-10
-2.25113e-10
-2.58532e-08
2.04121e-10
2.0924e-10
-1.62651e-10
-1.7026e-10
2.57728e-08
-3.67023e-10
-3.77041e-10
-1.09931e-07
1.91237e-10
1.83497e-10
1.103e-07
-1.06432e-07
-1.39067e-10
3.76968e-10
1.8354e-10
1.06785e-07
-5.9401e-11
-5.18125e-11
-1.10469e-10
-1.8814e-10
-8.99327e-11
-9.42744e-11
-1.805e-10
-1.0736e-07
-1.43604e-10
3.70216e-10
1.7927e-10
1.07718e-07
-7.12534e-11
-4.73465e-11
-9.85929e-11
-1.32104e-10
-1.18137e-10
-1.45932e-10
-1.51049e-10
-2.62624e-08
1.34094e-10
1.43452e-10
-8.01776e-11
-9.0757e-11
2.61558e-08
-3.03068e-10
-3.13239e-10
-1.11302e-07
1.57589e-10
1.50765e-10
1.11609e-07
-1.07742e-07
-1.19278e-10
3.12364e-10
1.50737e-10
1.08034e-07
-4.50109e-11
-3.58901e-11
-9.37797e-11
-1.65051e-10
-6.629e-11
-6.63146e-11
-1.63098e-10
-1.08687e-07
-1.24045e-10
3.06327e-10
1.47983e-10
1.08983e-07
-5.67496e-11
-3.1757e-11
-8.59811e-11
-1.0856e-10
-9.42608e-11
-1.18281e-10
-1.30812e-10
-2.65637e-08
1.13466e-10
1.24551e-10
-5.57814e-11
-6.67667e-11
2.64482e-08
-2.50071e-10
-2.58355e-10
-1.12459e-07
1.30106e-10
1.24675e-10
1.12713e-07
-1.08829e-07
-1.06187e-10
2.5751e-10
1.30455e-10
1.09059e-07
-3.34954e-11
-2.46532e-11
-8.71384e-11
-1.42278e-10
-4.26246e-11
-4.17583e-11
-1.39571e-10
-1.09787e-07
-1.10745e-10
2.52652e-10
1.28142e-10
1.1002e-07
-4.51116e-11
-2.01506e-11
-7.55691e-11
-8.60027e-11
-7.11826e-11
-9.47386e-11
-1.09923e-10
-2.68026e-08
9.94569e-11
1.11343e-10
-3.60313e-11
-4.79125e-11
2.66757e-08
-1.82599e-10
-1.88287e-10
-1.13368e-07
9.44299e-11
9.05165e-11
1.13554e-07
-1.09614e-07
-9.10438e-11
1.87595e-10
1.03985e-10
1.09755e-07
-1.85658e-11
-8.82458e-12
-6.92445e-11
-1.12651e-10
-1.03641e-11
-9.69278e-12
-1.12178e-10
-1.10582e-07
-9.53795e-11
1.84009e-10
1.01949e-10
1.10727e-07
-2.98491e-11
-3.8595e-12
-6.07886e-11
-5.70229e-11
-3.94521e-11
-6.37065e-11
-8.06114e-11
-2.69279e-08
8.3527e-11
9.60324e-11
-1.18008e-11
-2.4999e-11
2.67851e-08
-1.49576e-10
-1.52153e-10
-1.14048e-07
7.6338e-11
7.39154e-11
1.14199e-07
-1.10101e-07
-7.97627e-11
1.51738e-10
7.93242e-11
1.10199e-07
-6.85356e-12
3.17953e-12
-6.14333e-11
-9.92272e-11
5.26314e-12
5.37044e-12
-9.6184e-11
-1.11076e-07
-8.35582e-11
1.49976e-10
7.64355e-11
1.11177e-07
-1.76277e-11
8.58382e-12
-4.89209e-11
-4.41904e-11
-2.44628e-11
-4.94149e-11
-6.76122e-11
-2.69685e-08
7.15049e-11
8.42282e-11
2.18565e-12
-1.21129e-11
2.68227e-08
-1.45884e-10
-1.45811e-10
-1.14636e-07
7.51988e-11
7.37993e-11
1.14779e-07
-1.10476e-07
-7.61671e-11
1.45307e-10
6.88127e-11
1.10563e-07
-2.33102e-12
7.20682e-12
-5.37982e-11
-9.64819e-11
8.56547e-12
8.38267e-12
-9.57842e-11
-1.11456e-07
-7.95035e-11
1.45758e-10
6.48701e-11
1.11546e-07
-1.25632e-11
1.30187e-11
-4.4418e-11
-4.21807e-11
-2.17686e-11
-4.71918e-11
-6.54231e-11
-2.70077e-08
6.76068e-11
8.00422e-11
6.62913e-12
-8.60653e-12
2.6862e-08
-1.47427e-10
-1.46512e-10
-1.15203e-07
7.85707e-11
7.6636e-11
1.15342e-07
-1.10816e-07
-7.51931e-11
1.45368e-10
6.87569e-11
1.10892e-07
-7.01899e-13
8.50284e-12
-5.62831e-11
-9.51275e-11
1.0612e-11
1.04039e-11
-9.23236e-11
-1.11797e-07
-7.84284e-11
1.46927e-10
6.53193e-11
1.11875e-07
-1.11125e-11
1.41893e-11
-4.35942e-11
-4.11887e-11
-2.01306e-11
-4.56888e-11
-6.46299e-11
-2.70392e-08
6.64111e-11
7.87377e-11
9.56537e-12
-5.95803e-12
2.68904e-08
-1.32334e-10
-1.32395e-10
-1.15736e-07
7.44637e-11
7.09221e-11
1.15855e-07
-1.11091e-07
-6.91679e-11
1.30876e-10
6.41322e-11
1.11139e-07
4.16332e-12
1.38212e-11
-4.86689e-11
-8.89616e-11
1.73443e-11
1.78841e-11
-8.93575e-11
-1.12071e-07
-7.30022e-11
1.31581e-10
6.22534e-11
1.12124e-07
-6.82492e-12
1.87862e-11
-4.05241e-11
-3.48046e-11
-1.32444e-11
-3.80852e-11
-5.89652e-11
-2.70432e-08
6.03133e-11
7.33415e-11
1.6731e-11
1.41214e-12
2.68914e-08
-9.73073e-11
-9.99609e-11
-1.16158e-07
6.06025e-11
5.47327e-11
1.1624e-07
-1.11247e-07
-5.82104e-11
9.78001e-11
4.62378e-11
1.11263e-07
1.3368e-11
2.33839e-11
-4.43306e-11
-7.79493e-11
2.9734e-11
3.11959e-11
-7.65944e-11
-1.12227e-07
-6.26871e-11
9.66347e-11
4.72487e-11
1.12248e-07
1.58834e-12
2.7213e-11
-3.37983e-11
-2.35514e-11
-6.05668e-13
-2.4847e-11
-4.84623e-11
-2.70261e-08
4.90239e-11
6.32028e-11
2.79246e-11
1.2434e-11
2.68735e-08
-6.04491e-11
-6.41029e-11
-1.16421e-07
3.78605e-11
4.06813e-11
1.16467e-07
-1.11281e-07
-4.78162e-11
5.62784e-11
3.94958e-11
1.11266e-07
2.23681e-11
3.16443e-11
-3.7569e-11
-6.81189e-11
4.18054e-11
4.3908e-11
-6.69001e-11
-1.12255e-07
-5.29073e-11
-5.68112e-11
2.23958e-10
9.60424e-12
2.96649e-11
-2.7236e-11
-1.21349e-11
1.20939e-11
-1.16357e-11
-3.87808e-11
1.12179e-07
-2.7004e-08
3.83317e-11
5.33253e-11
3.7603e-11
2.19345e-11
2.68528e-08
-2.16715e-09
-2.2119e-09
2.57705e-08
-2.62871e-08
2.61178e-09
2.28383e-09
3.88099e-11
2.50857e-08
-3.0162e-08
2.91161e-09
-4.1271e-11
2.16893e-09
3.79612e-11
2.50877e-08
-3.01629e-08
2.91012e-09
-4.17933e-11
-2.21137e-09
2.57709e-08
-2.6287e-08
2.5931e-09
2.30324e-09
1.33527e-10
2.51201e-08
-3.02116e-08
2.78779e-09
-4.17589e-11
3.85587e-11
2.16828e-09
2.50855e-08
-3.01614e-08
-4.06539e-11
2.90973e-09
-6.43257e-10
-7.06999e-10
-3.07308e-08
-2.97156e-08
-3.03957e-08
-3.0397e-08
-3.76271e-10
-1.19061e-09
6.93941e-10
-3.66165e-10
-1.21337e-09
7.13509e-10
-1.33193e-10
1.24501e-07
-6.48031e-10
-7.06297e-10
-3.073e-08
-2.97158e-08
-3.03955e-08
-3.03965e-08
-3.76683e-10
-1.19049e-09
6.9296e-10
-3.65295e-10
-1.21269e-09
7.14379e-10
-1.33665e-10
1.24487e-07
-6.42056e-10
-6.98031e-10
-3.07296e-08
-2.97141e-08
-3.0395e-08
-3.03953e-08
-3.76889e-10
-1.19126e-09
6.92953e-10
-3.66298e-10
-1.21303e-09
7.13636e-10
-3.88174e-11
-1.33721e-10
1.24496e-07
-6.42557e-10
-7.04398e-10
-3.07303e-08
-2.97152e-08
-3.03953e-08
-3.03965e-08
-3.64098e-10
-1.1906e-09
6.94441e-10
-3.78273e-10
-1.21354e-09
7.12773e-10
-3.02114e-08
2.78997e-09
-4.19961e-11
2.16423e-09
2.50841e-08
-3.01598e-08
-4.11784e-11
2.91388e-09
-2.21054e-09
2.57683e-08
-2.62849e-08
2.59265e-09
2.30274e-09
-3.02087e-08
-4.09554e-11
2.78954e-09
2.21422e-09
2.51191e-08
-3.02116e-08
-4.14474e-11
2.78595e-09
-2.6285e-08
2.62435e-09
2.27025e-09
-7.2545e-10
-1.44471e-09
1.33884e-09
1.69647e-09
2.49054e-08
1.38773e-10
1.26754e-10
2.5843e-08
-2.56184e-08
-2.48329e-10
-2.41807e-10
-4.3195e-09
1.07972e-07
1.03735e-09
1.37292e-09
8.0819e-10
2.55933e-09
1.70115e-09
3.10558e-09
1.14265e-09
-2.62405e-08
-2.94645e-08
-2.65776e-08
7.25193e-10
-8.74036e-09
-4.32676e-09
1.07995e-07
1.04691e-09
1.37415e-09
8.13e-10
2.5587e-09
1.69123e-09
3.10413e-09
1.13722e-09
-2.62419e-08
-2.94676e-08
-2.65817e-08
1.06471e-07
-5.64814e-11
-1.05606e-07
-3.57876e-10
-2.51239e-10
-1.77218e-10
-1.07325e-10
1.05462e-10
-1.38831e-10
1.94363e-11
2.38265e-10
-1.38899e-10
1.06497e-07
-5.55155e-11
-1.05631e-07
-3.59057e-10
-2.51279e-10
-1.78551e-10
-1.06499e-10
1.04947e-10
-1.38572e-10
1.84514e-11
2.38424e-10
1.32503e-09
1.70243e-09
2.49031e-08
1.26391e-10
2.58433e-08
-2.56183e-08
-2.46922e-10
-2.43332e-10
-4.70595e-09
1.06568e-07
1.63448e-09
1.27114e-09
6.37406e-10
2.55996e-09
1.68259e-09
3.10568e-09
1.13799e-09
-2.61474e-08
-2.94781e-08
-2.66202e-08
7.25177e-10
-8.73557e-09
-4.31512e-09
1.0797e-07
1.0467e-09
1.37344e-09
8.12108e-10
2.55856e-09
1.69089e-09
3.10361e-09
1.13768e-09
-2.94646e-08
-2.62386e-08
-2.65787e-08
1.04601e-07
7.99559e-10
-1.03917e-07
3.64283e-10
-2.43813e-10
-1.89092e-10
-1.63868e-10
-2.63548e-10
-3.00057e-10
-2.55182e-10
-3.06295e-10
-1.45897e-10
1.0557e-07
7.94397e-10
-1.04886e-07
4.0277e-10
-2.45541e-10
-1.91615e-10
-1.73421e-10
-2.82059e-10
-2.99798e-10
-2.56618e-10
-2.86755e-10
-8.73586e-09
-4.31631e-09
1.07964e-07
1.03687e-09
1.37253e-09
8.07924e-10
2.55966e-09
1.70092e-09
1.14343e-09
3.10532e-09
-2.94638e-08
-2.62382e-08
-2.65765e-08
7.99078e-10
-1.03906e-07
3.64497e-10
-2.44109e-10
-1.88255e-10
-1.63501e-10
-2.63652e-10
-3.00876e-10
-3.05966e-10
-2.55586e-10
-1.45684e-10
1.05566e-07
7.93259e-10
-1.04881e-07
4.02849e-10
-2.45411e-10
-1.90238e-10
-1.73009e-10
-2.82002e-10
-3.00168e-10
-2.57184e-10
-2.86753e-10
1.32517e-09
1.70177e-09
2.49008e-08
1.21772e-10
2.58488e-08
-2.56246e-08
-2.55644e-10
-2.36273e-10
-7.96984e-09
-4.70345e-09
1.06561e-07
1.63525e-09
1.27057e-09
6.37435e-10
2.55933e-09
1.68274e-09
1.13711e-09
3.10561e-09
-2.94768e-08
-2.6147e-08
-2.66187e-08
6.34716e-12
-1.04621e-07
-4.57186e-10
-2.48791e-10
-1.75306e-10
-1.00531e-10
1.26582e-10
-1.40389e-10
2.15091e-10
1.9627e-11
-1.21861e-10
1.0553e-07
6.48574e-12
-1.04653e-07
-4.58268e-10
-2.48589e-10
-1.76785e-10
-9.97e-11
1.26338e-10
-1.40045e-10
1.91849e-11
2.15469e-10
-2.56295e-08
-2.56563e-10
-2.34772e-10
2.10513e-10
2.0485e-10
-1.69973e-10
-1.633e-10
2.57609e-08
6.79124e-11
5.92889e-11
2.62516e-08
-2.60612e-08
-1.6091e-10
-1.56675e-10
3.20238e-10
1.07046e-07
-1.42149e-10
-1.14747e-10
-1.47564e-10
-1.83692e-10
-2.17445e-10
-2.6941e-10
-2.24145e-10
-2.104e-10
6.14216e-10
3.19628e-10
1.07073e-07
-1.4195e-10
-1.14171e-10
-1.52027e-10
-1.83644e-10
-2.16923e-10
-2.69613e-10
-2.21352e-10
1.08349e-07
3.96217e-10
-1.0796e-07
2.13577e-10
-1.50183e-10
-1.03372e-10
-8.5728e-11
-1.82291e-10
-1.59099e-10
-1.31413e-10
-1.18394e-10
-6.72825e-11
1.08375e-07
3.97785e-10
-1.07989e-07
2.1345e-10
-1.50501e-10
-1.04512e-10
-8.19305e-11
-1.82458e-10
-1.58786e-10
-1.33327e-10
-1.18325e-10
-1.69297e-10
-1.63928e-10
2.57612e-08
5.91844e-11
2.62522e-08
-2.60612e-08
-1.59978e-10
-1.57446e-10
2.99119e-10
1.05166e-07
-1.22019e-10
-1.04316e-10
-1.60565e-10
-2.64292e-10
-1.88084e-10
-1.97882e-10
-2.54157e-10
-2.04139e-10
6.29689e-10
3.24311e-10
1.06137e-07
-1.30057e-10
-1.2146e-10
-1.61683e-10
-2.44676e-10
-1.89326e-10
-2.16243e-10
-2.53615e-10
1.06443e-07
4.08612e-10
-1.06064e-07
1.98699e-10
-1.47865e-10
-1.16875e-10
-6.71674e-11
-1.08156e-10
-1.88867e-10
-1.01478e-10
-1.97398e-10
-7.44071e-11
1.07427e-07
4.06342e-10
-1.07042e-07
2.15369e-10
-1.44374e-10
-1.1664e-10
-7.39288e-11
-1.27606e-10
-1.88551e-10
-1.03178e-10
-1.78306e-10
6.28632e-10
3.24311e-10
1.06133e-07
-1.30006e-10
-1.21363e-10
-1.60328e-10
-2.44689e-10
-1.89801e-10
-2.5418e-10
-2.16187e-10
4.07921e-10
-1.0605e-07
1.9883e-10
-1.48527e-10
-1.16062e-10
-7.03454e-11
-1.08147e-10
-1.89279e-10
-1.97694e-10
-9.95886e-11
-7.47298e-11
1.07423e-07
4.06259e-10
-1.07038e-07
2.15371e-10
-1.44252e-10
-1.15736e-10
-7.37786e-11
-1.27241e-10
-1.89468e-10
-1.02589e-10
-1.78389e-10
-1.62014e-10
-1.70362e-10
2.57675e-08
5.44816e-11
2.62569e-08
-2.60678e-08
-1.6762e-10
-1.50355e-10
6.23226e-10
2.89717e-10
1.061e-07
-1.3245e-10
-9.90456e-11
-1.47697e-10
-2.06949e-10
-2.15554e-10
-2.24442e-10
-2.47426e-10
4.02597e-10
-1.06975e-07
1.94002e-10
-1.52938e-10
-1.0438e-10
-7.82312e-11
-1.59646e-10
-1.59797e-10
-1.41922e-10
-1.29695e-10
-5.46621e-11
1.07395e-07
4.02369e-10
-1.07009e-07
1.9363e-10
-1.52867e-10
-1.05137e-10
-7.88521e-11
-1.59537e-10
-1.59403e-10
-1.29471e-10
-1.42071e-10
-2.60735e-08
-1.68928e-10
-1.49402e-10
1.40747e-10
1.38676e-10
-8.78503e-11
-8.38682e-11
2.61439e-08
4.69346e-11
3.92439e-11
2.65522e-08
-2.63684e-08
-1.36594e-10
-1.33396e-10
1.97556e-10
1.08709e-07
-7.87338e-11
-6.02498e-11
-9.75078e-11
-1.08268e-10
-1.20054e-10
-1.69255e-10
-1.50046e-10
-1.40826e-10
3.66057e-10
1.97391e-10
1.08737e-07
-7.85878e-11
-5.97781e-11
-9.84572e-11
-1.08589e-10
-1.19686e-10
-1.69388e-10
-1.49721e-10
1.09687e-07
3.14998e-10
-1.09375e-07
1.69531e-10
-1.24095e-10
-8.70105e-11
-6.70297e-11
-1.46753e-10
-1.34102e-10
-1.00125e-10
-9.01271e-11
-4.65095e-11
1.09715e-07
3.15557e-10
-1.09403e-07
1.69228e-10
-1.24398e-10
-8.79245e-11
-6.69807e-11
-1.47048e-10
-1.33673e-10
-1.00297e-10
-8.95869e-11
-8.79015e-11
-8.3954e-11
2.61441e-08
3.87792e-11
2.65522e-08
-2.63678e-08
-1.35609e-10
-1.3412e-10
1.83412e-10
1.06799e-07
-6.00383e-11
-5.23229e-11
-1.11237e-10
-1.88323e-10
-9.05278e-11
-9.48548e-11
-1.802e-10
-1.34022e-10
3.75501e-10
1.98409e-10
1.07783e-07
-6.61008e-11
-6.67833e-11
-1.10545e-10
-1.68525e-10
-9.13196e-11
-1.13643e-10
-1.79426e-10
1.07756e-07
3.25121e-10
-1.07451e-07
1.56971e-10
-1.22591e-10
-1.0086e-10
-4.78648e-11
-7.16834e-11
-1.64388e-10
-7.09314e-11
-1.69869e-10
-5.2937e-11
1.0875e-07
3.23137e-10
-1.08442e-07
1.69744e-10
-1.17463e-10
-1.00079e-10
-5.41932e-11
-9.08867e-11
-1.63587e-10
-7.20271e-11
-1.50141e-10
3.74527e-10
1.98609e-10
1.0778e-07
-6.61894e-11
-6.67826e-11
-1.0992e-10
-1.68692e-10
-9.13168e-11
-1.80509e-10
-1.13549e-10
3.24538e-10
-1.07437e-07
1.56702e-10
-1.22851e-10
-9.98715e-11
-4.78884e-11
-7.156e-11
-1.64692e-10
-1.69666e-10
-7.10151e-11
-5.28616e-11
1.08747e-07
3.22977e-10
-1.08438e-07
1.70029e-10
-1.17504e-10
-9.94424e-11
-5.41049e-11
-9.06391e-11
-1.64348e-10
-7.19666e-11
-1.50408e-10
-8.05023e-11
-9.07499e-11
2.61505e-08
3.46993e-11
2.65574e-08
-2.63745e-08
-1.43884e-10
-1.26599e-10
3.71441e-10
1.79037e-10
1.07753e-07
-7.13289e-11
-4.72275e-11
-9.92652e-11
-1.31924e-10
-1.18338e-10
-1.50385e-10
-1.46494e-10
3.19276e-10
-1.08378e-07
1.53837e-10
-1.27688e-10
-8.86242e-11
-5.95472e-11
-1.23672e-10
-1.34923e-10
-1.13536e-10
-9.89903e-11
-3.41584e-11
1.08723e-07
3.19429e-10
-1.08414e-07
1.53503e-10
-1.28262e-10
-8.90381e-11
-5.99839e-11
-1.23735e-10
-1.34309e-10
-9.90241e-11
-1.13405e-10
-2.63799e-08
-1.4517e-10
-1.25645e-10
1.20306e-10
1.18954e-10
-6.31038e-11
-6.05629e-11
2.64366e-08
3.49961e-11
2.81185e-11
2.67913e-08
-2.66163e-08
-1.20522e-10
-1.17534e-10
1.6311e-10
1.09985e-07
-6.41322e-11
-4.38546e-11
-8.43618e-11
-8.51202e-11
-9.54064e-11
-1.4138e-10
-1.30067e-10
-1.20663e-10
3.03368e-10
1.62964e-10
1.10015e-07
-6.41297e-11
-4.34207e-11
-8.88619e-11
-8.48323e-11
-9.5537e-11
-1.41969e-10
-1.27092e-10
1.10797e-07
2.65763e-10
-1.10542e-07
1.46486e-10
-1.09767e-10
-7.65801e-11
-5.54979e-11
-1.25412e-10
-1.15868e-10
-7.9423e-11
-6.9809e-11
-3.46066e-11
1.10827e-07
2.66356e-10
-1.10573e-07
1.46675e-10
-1.10008e-10
-7.75945e-11
-5.17293e-11
-1.25813e-10
-1.15505e-10
-8.22378e-11
-6.93587e-11
-6.30487e-11
-6.05542e-11
2.64359e-08
2.78293e-11
2.67912e-08
-2.66156e-08
-1.19915e-10
-1.18153e-10
1.50859e-10
1.08048e-07
-4.49155e-11
-3.62797e-11
-9.82538e-11
-1.65206e-10
-6.6114e-11
-6.63568e-11
-1.60363e-10
-1.13566e-10
3.11343e-10
1.63287e-10
1.09046e-07
-5.12651e-11
-4.98764e-11
-9.73923e-11
-1.45478e-10
-6.72084e-11
-8.56395e-11
-1.59525e-10
1.08843e-07
2.73889e-10
-1.08593e-07
1.36265e-10
-1.09147e-10
-9.10598e-11
-3.65428e-11
-4.91667e-11
-1.46123e-10
-4.98553e-11
-1.49575e-10
-4.14027e-11
1.09849e-07
2.72467e-10
-1.09596e-07
1.47287e-10
-1.03158e-10
-8.99004e-11
-4.26685e-11
-6.86948e-11
-1.45283e-10
-5.10245e-11
-1.29815e-10
3.10988e-10
1.63482e-10
1.09042e-07
-5.11515e-11
-4.99023e-11
-9.66571e-11
-1.45742e-10
-6.7161e-11
-1.60275e-10
-8.54247e-11
2.73755e-10
-1.08579e-07
1.36154e-10
-1.09628e-10
-8.99972e-11
-4.03556e-11
-4.91901e-11
-1.4639e-10
-1.49502e-10
-4.74105e-11
-4.13384e-11
1.09844e-07
2.7232e-10
-1.09592e-07
1.47357e-10
-1.03233e-10
-8.93369e-11
-4.26258e-11
-6.84295e-11
-1.45964e-10
-5.08455e-11
-1.30039e-10
-5.61459e-11
-6.67942e-11
2.64427e-08
2.33181e-11
2.67961e-08
-2.66222e-08
-1.2773e-10
-1.10957e-10
3.06991e-10
1.47888e-10
1.09019e-07
-5.71678e-11
-3.13539e-11
-8.63378e-11
-1.0868e-10
-9.43198e-11
-1.30243e-10
-1.18601e-10
2.68958e-10
-1.09535e-07
1.33138e-10
-1.14126e-10
-7.84123e-11
-4.82694e-11
-1.02168e-10
-1.16567e-10
-9.33528e-11
-7.82393e-11
-2.29033e-11
1.09824e-07
2.69401e-10
-1.09571e-07
1.33169e-10
-1.14884e-10
-7.89256e-11
-4.87204e-11
-1.02135e-10
-1.16064e-10
-7.83413e-11
-9.31417e-11
-2.66277e-08
-1.29039e-10
-1.10068e-10
1.06171e-10
1.05765e-10
-4.34992e-11
-4.14144e-11
2.66642e-08
1.88403e-11
1.35063e-11
2.69169e-08
-2.6758e-08
-9.70301e-11
-9.42675e-11
1.4071e-10
1.11032e-07
-5.21902e-11
-3.16134e-11
-7.35736e-11
-6.21221e-11
-7.2375e-11
-1.18011e-10
-1.08863e-10
-1.06516e-10
2.50744e-10
1.41186e-10
1.11062e-07
-5.21822e-11
-3.13639e-11
-7.45651e-11
-6.22239e-11
-7.26997e-11
-1.18712e-10
-1.08782e-10
1.11599e-07
1.98312e-10
-1.11433e-07
1.19541e-10
-9.40473e-11
-6.23008e-11
-4.05347e-11
-9.46108e-11
-8.57518e-11
-4.83628e-11
-3.95272e-11
-1.86819e-11
1.1163e-07
1.99145e-10
-1.11464e-07
1.19895e-10
-9.44157e-11
-6.32403e-11
-4.04283e-11
-9.46772e-11
-8.58686e-11
-4.81148e-11
-3.96402e-11
-4.38747e-11
-4.11596e-11
2.66635e-08
1.29696e-11
2.69169e-08
-2.6757e-08
-9.64657e-11
-9.50687e-11
1.30725e-10
1.09072e-07
-3.33354e-11
-2.49437e-11
-8.81469e-11
-1.42348e-10
-4.26555e-11
-4.17273e-11
-1.39243e-10
-9.95581e-11
2.56914e-10
1.41235e-10
1.10081e-07
-3.93788e-11
-3.80657e-11
-8.69366e-11
-1.22596e-10
-4.38448e-11
-6.12806e-11
-1.38446e-10
1.09626e-07
2.03327e-10
-1.09464e-07
1.1202e-10
-9.43694e-11
-7.75977e-11
-2.22496e-11
-1.69017e-11
-1.16211e-10
-1.78171e-11
-1.19286e-10
-2.56758e-11
1.10642e-07
2.02697e-10
-1.10478e-07
1.2061e-10
-8.77201e-11
-7.60914e-11
-2.80338e-11
-3.65573e-11
-1.15447e-10
-1.89775e-11
-9.96614e-11
2.56704e-10
1.41161e-10
1.10076e-07
-3.9348e-11
-3.80773e-11
-8.63062e-11
-1.22819e-10
-4.36388e-11
-1.39066e-10
-6.10521e-11
2.03097e-10
-1.09451e-07
1.11951e-10
-9.49763e-11
-7.67508e-11
-2.25182e-11
-1.68442e-11
-1.16414e-10
-1.19212e-10
-1.77205e-11
-2.57089e-11
1.10638e-07
2.02608e-10
-1.10473e-07
1.2066e-10
-8.7727e-11
-7.55521e-11
-2.806e-11
-3.63009e-11
-1.16009e-10
-1.88071e-11
-9.97896e-11
-3.63922e-11
-4.78964e-11
2.66701e-08
7.92981e-12
2.69219e-08
-2.67639e-08
-1.03749e-10
-8.79203e-11
2.53207e-10
1.28145e-10
1.10057e-07
-4.55101e-11
-1.97758e-11
-7.58896e-11
-8.60573e-11
-7.12954e-11
-1.09359e-10
-9.49712e-11
2.00489e-10
-1.10418e-07
1.09136e-10
-9.93067e-11
-6.46219e-11
-3.38019e-11
-7.08922e-11
-8.70324e-11
-6.37288e-11
-4.66602e-11
-7.5816e-12
1.10618e-07
2.00752e-10
-1.10454e-07
1.09159e-10
-9.99824e-11
-6.49337e-11
-3.41421e-11
-7.08387e-11
-8.65772e-11
-4.67719e-11
-6.34552e-11
-2.6769e-08
-1.04966e-10
-8.71923e-11
8.99146e-11
9.0445e-11
-1.98247e-11
-1.76001e-11
2.6774e-08
3.96661e-12
-1.16628e-13
2.69572e-08
-2.68028e-08
-8.058e-11
-7.77163e-11
1.11548e-10
1.11745e-07
-3.64349e-11
-1.4567e-11
-5.83142e-11
-3.31397e-11
-4.11572e-11
-8.7726e-11
-7.91952e-11
-9.02949e-11
1.83201e-10
1.11969e-10
1.11777e-07
-3.63572e-11
-1.43553e-11
-6.28861e-11
-3.31569e-11
-4.08463e-11
-8.77871e-11
-7.68353e-11
1.12099e-07
1.54913e-10
-1.11991e-07
9.05597e-11
-7.97404e-11
-4.84547e-11
-2.62042e-11
-7.52613e-11
-6.81443e-11
-2.82324e-11
-2.27991e-11
-3.74165e-12
1.12128e-07
1.55603e-10
-1.12023e-07
9.11967e-11
-8.00678e-11
-4.94424e-11
-2.24631e-11
-7.56216e-11
-6.80897e-11
-3.05647e-11
-2.2544e-11
-2.00743e-11
-1.73797e-11
2.6773e-08
-6.8872e-13
2.69572e-08
-2.68018e-08
-8.00723e-11
-7.83894e-11
1.04126e-10
1.09768e-07
-1.8284e-11
-9.38699e-12
-7.36864e-11
-1.12707e-10
-1.05019e-11
-9.73666e-12
-1.09595e-10
-8.35645e-11
1.87658e-10
1.12137e-10
1.10786e-07
-2.38579e-11
-2.13224e-11
-7.20002e-11
-9.30519e-11
-1.1707e-11
-2.94473e-11
-1.08792e-10
1.10114e-07
1.56096e-10
-1.10008e-07
8.60536e-11
-8.12886e-11
-6.46632e-11
-8.82638e-12
3.2771e-12
-9.80129e-11
2.90948e-12
-1.01274e-10
-1.13094e-11
1.11137e-07
1.55992e-10
-1.1103e-07
9.23726e-11
-7.38104e-11
-6.26692e-11
-1.40404e-11
-1.65648e-11
-9.73285e-11
1.75396e-12
-8.17674e-11
1.87416e-10
1.12081e-10
1.10782e-07
-2.39612e-11
-2.12968e-11
-7.14826e-11
-9.31855e-11
-1.14353e-11
-1.09334e-10
-2.91573e-11
1.56316e-10
-1.09994e-07
8.58924e-11
-8.20135e-11
-6.38336e-11
-1.28702e-11
3.32137e-12
-9.82004e-11
-1.01289e-10
5.55392e-12
-1.12873e-11
1.11133e-07
1.55894e-10
-1.11025e-07
9.23503e-11
-7.38919e-11
-6.23032e-11
-1.43104e-11
-1.63259e-11
-9.78678e-11
1.97682e-12
-8.19684e-11
-1.2207e-11
-2.48426e-11
2.67801e-08
-6.26609e-12
2.69629e-08
-2.68094e-08
-8.66192e-11
-7.19902e-11
1.84528e-10
1.01964e-10
1.10763e-07
-3.01561e-11
-3.44186e-12
-6.10178e-11
-5.70146e-11
-3.96046e-11
-7.99977e-11
-6.39548e-11
1.56277e-10
-1.1097e-07
8.20552e-11
-8.5671e-11
-5.12237e-11
-1.99098e-11
-5.15951e-11
-6.94434e-11
-4.6401e-11
-2.64484e-11
6.67187e-12
1.11113e-07
1.56508e-10
-1.11007e-07
8.23974e-11
-8.64149e-11
-5.1479e-11
-2.02731e-11
-5.16516e-11
-6.90499e-11
-2.66803e-11
-4.62932e-11
-2.68141e-08
-8.78222e-11
-7.12575e-11
7.74798e-11
7.9133e-11
-6.50658e-12
-4.03175e-12
2.68111e-08
-2.58755e-12
-5.74013e-12
2.69956e-08
-2.68397e-08
-7.56319e-11
-7.19627e-11
8.4383e-11
1.122e-07
-2.38249e-11
-1.51528e-12
-4.61006e-11
-2.09023e-11
-2.62155e-11
-7.34098e-11
-6.62954e-11
-7.78857e-11
1.50028e-10
8.52151e-11
1.12231e-07
-2.37878e-11
-1.27536e-12
-4.7054e-11
-2.07102e-11
-2.64229e-11
-7.38146e-11
-6.63059e-11
1.12482e-07
1.4681e-10
-1.12391e-07
7.44078e-11
-7.36489e-11
-4.19949e-11
-1.93446e-11
-7.15625e-11
-6.51084e-11
-2.37204e-11
-1.94302e-11
2.84731e-12
1.12513e-07
1.47519e-10
-1.12421e-07
7.47437e-11
-7.406e-11
-4.27378e-11
-1.90859e-11
-7.20763e-11
-6.47868e-11
-2.4341e-11
-1.93066e-11
-6.94238e-12
-3.76642e-12
2.68103e-08
-6.36712e-12
2.69962e-08
-2.68395e-08
-7.4848e-11
-7.2601e-11
7.95279e-11
1.10212e-07
-6.46945e-12
2.56524e-12
-6.23095e-11
-9.91483e-11
5.09597e-12
5.3761e-12
-9.59795e-11
-7.14814e-11
1.51794e-10
8.53858e-11
1.11237e-07
-1.15121e-11
-8.66073e-12
-6.00559e-11
-7.95986e-11
3.92955e-12
-1.44321e-11
-9.51936e-11
1.10489e-07
1.43885e-10
-1.10398e-07
7.219e-11
-7.61575e-11
-5.89436e-11
-2.71722e-12
7.96352e-12
-9.38186e-11
7.9598e-12
-9.70767e-11
-5.24601e-12
1.11518e-07
1.43766e-10
-1.11426e-07
7.7191e-11
-6.81706e-11
-5.66191e-11
-7.5333e-12
-1.19035e-11
-9.30776e-11
6.80306e-12
-7.75604e-11
1.51627e-10
8.52804e-11
1.11233e-07
-1.17878e-11
-8.62134e-12
-5.97127e-11
-7.98463e-11
4.19743e-12
-9.56761e-11
-1.42282e-11
1.44036e-10
-1.10386e-07
7.2275e-11
-7.67286e-11
-5.83004e-11
-3.11995e-12
7.94834e-12
-9.39101e-11
-9.70088e-11
8.07207e-12
-5.26125e-12
1.11516e-07
1.43841e-10
-1.11423e-07
7.73584e-11
-6.83017e-11
-5.635e-11
-7.91324e-12
-1.17235e-11
-9.35384e-11
7.02508e-12
-7.77949e-11
1.82642e-12
-1.18482e-11
2.68179e-08
-1.25259e-11
2.70018e-08
-2.68471e-08
-8.07467e-11
-6.66957e-11
1.50676e-10
7.68452e-11
1.11214e-07
-1.78632e-11
9.07893e-12
-4.90495e-11
-4.44044e-11
-2.48062e-11
-6.71782e-11
-4.9794e-11
1.47541e-10
-1.11366e-07
6.65817e-11
-7.98974e-11
-4.4965e-11
-1.32729e-11
-4.77654e-11
-6.57936e-11
-4.29261e-11
-2.20807e-11
1.30518e-11
1.11493e-07
1.477e-10
-1.11402e-07
6.65646e-11
-8.05667e-11
-4.50358e-11
-1.34305e-11
-4.78595e-11
-6.5513e-11
-2.2565e-11
-4.28037e-11
-2.6852e-08
-8.17278e-11
-6.61537e-11
7.31255e-11
7.55426e-11
-2.61665e-12
1.61555e-13
2.68494e-08
-3.93995e-12
-6.76114e-12
2.70262e-08
-2.68725e-08
-7.33643e-11
-6.96262e-11
7.22445e-11
1.12572e-07
-1.85684e-11
3.22647e-12
-4.128e-11
-1.90832e-11
-2.35468e-11
-7.14052e-11
-6.47263e-11
-7.35292e-11
1.46329e-10
7.26792e-11
1.12605e-07
-1.83302e-11
3.50353e-12
-4.56272e-11
-1.89695e-11
-2.40563e-11
-7.18957e-11
-6.22301e-11
1.12826e-07
1.49827e-10
-1.12745e-07
7.31609e-11
-7.24268e-11
-4.09481e-11
-1.75101e-11
-7.07892e-11
-6.47912e-11
-2.28173e-11
-1.90956e-11
4.46037e-12
1.12859e-07
1.50625e-10
-1.12778e-07
7.26661e-11
-7.25003e-11
-4.14539e-11
-1.33988e-11
-7.146e-11
-6.45603e-11
-2.56808e-11
-1.90389e-11
-3.28696e-12
4.04451e-13
2.68494e-08
-7.30663e-12
2.70274e-08
-2.6873e-08
-7.26603e-11
-7.00154e-11
6.85615e-11
1.10576e-07
-1.8162e-12
6.63775e-12
-5.79669e-11
-9.64446e-11
8.47648e-12
8.31259e-12
-9.32057e-11
-6.75184e-11
1.45699e-10
7.36781e-11
1.11607e-07
-6.61219e-12
-4.2746e-12
-5.5568e-11
-7.71025e-11
7.30865e-12
-1.15433e-11
-9.25318e-11
1.10829e-07
1.43796e-10
-1.10746e-07
7.1943e-11
-7.53038e-11
-5.79301e-11
-1.02435e-12
9.27549e-12
-9.31286e-11
9.46689e-12
-9.64125e-11
-4.13138e-12
1.11862e-07
1.44174e-10
-1.11779e-07
7.68017e-11
-6.71764e-11
-5.55908e-11
-5.77377e-12
-1.06398e-11
-9.26244e-11
8.23713e-12
-7.69355e-11
1.45227e-10
7.36039e-11
1.11605e-07
-6.94362e-12
-4.20954e-12
-5.52093e-11
-7.71694e-11
7.59141e-12
-9.28442e-11
-1.12485e-11
1.43412e-10
-1.10733e-07
7.20642e-11
-7.60927e-11
-5.71568e-11
-5.28415e-12
9.38973e-12
-9.30964e-11
-9.61614e-11
1.2148e-11
-4.12018e-12
1.11862e-07
1.43327e-10
-1.11778e-07
7.67186e-11
-6.73402e-11
-5.5237e-11
-6.19334e-12
-1.03382e-11
-9.2776e-11
8.57495e-12
-7.70627e-11
6.01204e-12
-8.12552e-12
2.68569e-08
-1.37552e-11
2.70325e-08
-2.688e-08
-7.8423e-11
-6.43999e-11
1.46204e-10
6.45236e-11
1.11582e-07
-1.26265e-11
1.3766e-11
-4.41783e-11
-4.23773e-11
-2.22172e-11
-6.51416e-11
-4.75812e-11
1.50086e-10
-1.11717e-07
6.55138e-11
-7.8825e-11
-4.39032e-11
-1.15074e-11
-4.68325e-11
-6.52451e-11
-4.2359e-11
-2.09477e-11
1.45757e-11
1.11835e-07
1.50303e-10
-1.11754e-07
6.43602e-11
-7.92789e-11
-4.36724e-11
-1.14493e-11
-4.69592e-11
-6.51339e-11
-2.14468e-11
-4.23552e-11
-2.68858e-08
-7.91311e-11
-6.38559e-11
7.19463e-11
7.44485e-11
1.08168e-13
2.82436e-12
2.68768e-08
-7.36926e-12
-1.04226e-11
2.70294e-08
-2.68795e-08
-6.74671e-11
-6.47127e-11
7.26087e-11
1.12905e-07
-1.70703e-11
4.47114e-12
-4.05318e-11
-1.8179e-11
-2.19758e-11
-6.99684e-11
-6.39791e-11
-7.21413e-11
1.47953e-10
7.2207e-11
1.12939e-07
-1.67524e-11
4.9817e-12
-4.11063e-11
-1.80237e-11
-2.26968e-11
-7.06095e-11
-6.36449e-11
1.13103e-07
1.4092e-10
-1.13045e-07
7.27627e-11
-6.83921e-11
-3.89194e-11
-1.44017e-11
-6.51123e-11
-6.06097e-11
-1.75568e-11
-1.44355e-11
7.9201e-12
1.13138e-07
1.41747e-10
-1.13079e-07
7.16523e-11
-6.86038e-11
-3.92548e-11
-1.39683e-11
-6.5594e-11
-6.03847e-11
-1.80528e-11
-1.42597e-11
-8.02078e-13
3.33676e-12
2.68776e-08
-1.10572e-11
2.70312e-08
-2.68805e-08
-6.65651e-11
-6.5144e-11
6.87845e-11
1.10904e-07
-2.21634e-13
7.95318e-12
-5.69599e-11
-9.53727e-11
1.0288e-11
1.02305e-11
-9.2304e-11
-6.63034e-11
1.46788e-10
7.36561e-11
1.11939e-07
-4.90967e-12
-2.92914e-12
-5.45642e-11
-7.59735e-11
9.05904e-12
-9.72645e-12
-9.15973e-11
1.11103e-07
1.33243e-10
-1.11041e-07
7.11507e-11
-7.11129e-11
-5.53767e-11
2.52787e-12
1.49817e-11
-8.94935e-11
1.45428e-11
-9.19743e-11
-4.59753e-13
1.1214e-07
1.34062e-10
-1.12078e-07
7.60179e-11
-6.28791e-11
-5.31763e-11
-2.2323e-12
-5.07395e-12
-8.90059e-11
1.33016e-11
-7.26423e-11
1.45473e-10
7.33748e-11
1.1194e-07
-5.29337e-12
-2.8469e-12
-5.41043e-11
-7.58827e-11
9.48762e-12
-9.18137e-11
-9.42278e-12
1.32591e-10
-1.1103e-07
7.15902e-11
-7.17819e-11
-5.47232e-11
1.97363e-12
1.50793e-11
-8.95014e-11
-9.17701e-11
1.45977e-11
-3.5333e-13
1.12144e-07
1.32806e-10
-1.12081e-07
7.59859e-11
-6.30255e-11
-5.27615e-11
-2.70015e-12
-4.75488e-12
-8.9104e-11
1.35663e-11
-7.26337e-11
8.77908e-12
-5.46579e-12
2.68844e-08
-1.71086e-11
2.70357e-08
-2.6887e-08
-7.32112e-11
-5.88501e-11
1.47334e-10
6.38146e-11
1.11914e-07
-1.09646e-11
1.51776e-11
-4.32717e-11
-4.12912e-11
-2.05635e-11
-6.41603e-11
-4.61198e-11
1.40958e-10
-1.12014e-07
6.52752e-11
-7.4897e-11
-4.18105e-11
-8.36709e-12
-4.11139e-11
-6.13498e-11
-3.76364e-11
-1.57024e-11
1.80064e-11
1.12111e-07
1.4109e-10
-1.12053e-07
6.3709e-11
-7.53417e-11
-4.15713e-11
-8.35197e-12
-4.11677e-11
-6.09578e-11
-1.60847e-11
-3.75857e-11
-2.68935e-08
-7.38301e-11
-5.8193e-11
6.63927e-11
6.85149e-11
7.83526e-12
9.61326e-12
2.68771e-08
-1.52892e-11
-1.87761e-11
2.70117e-08
-2.68641e-08
-5.74396e-11
-5.60667e-11
6.92271e-11
1.13156e-07
-1.28104e-11
9.13071e-12
-3.74971e-11
-1.17985e-11
-1.4894e-11
-6.23896e-11
-5.81762e-11
-6.65274e-11
1.32712e-10
6.81012e-11
1.13193e-07
-1.23497e-11
9.81394e-12
-4.14738e-11
-1.14755e-11
-1.54244e-11
-6.28588e-11
-5.56336e-11
1.1326e-07
1.10211e-10
-1.13235e-07
6.0617e-11
-5.86861e-11
-3.29475e-11
-6.67991e-12
-5.26814e-11
-5.08613e-11
-5.73286e-12
-3.85557e-12
1.61393e-11
1.13296e-07
1.1109e-10
-1.13272e-07
5.92156e-11
-5.87076e-11
-3.31337e-11
-2.57718e-12
-5.28623e-11
-5.05967e-11
-8.57956e-12
-3.86511e-12
7.15692e-12
1.00559e-11
2.68783e-08
-1.94959e-11
2.70139e-08
-2.68656e-08
-5.6578e-11
-5.60691e-11
6.41738e-11
1.11151e-07
4.70315e-12
1.3188e-11
-5.31192e-11
-8.93076e-11
1.71334e-11
1.78367e-11
-8.70487e-11
-6.0207e-11
1.32982e-10
6.86788e-11
1.12189e-07
-3.83968e-14
2.39493e-12
-5.0784e-11
-6.98523e-11
1.59066e-11
-2.12164e-12
-8.63192e-11
1.11257e-07
1.02267e-10
-1.11227e-07
5.80344e-11
-6.10187e-11
-4.88166e-11
1.07657e-11
2.71723e-11
-8.03577e-11
2.58282e-11
-8.22058e-11
8.10369e-12
1.12298e-07
1.02945e-10
-1.12267e-07
6.21234e-11
-5.25483e-11
-4.65652e-11
6.11197e-12
7.2793e-12
-7.97808e-11
2.46102e-11
-6.26775e-11
1.31279e-10
6.85746e-11
1.12194e-07
-4.22249e-13
2.58286e-12
-5.02532e-11
-6.96859e-11
1.62232e-11
-8.6492e-11
-1.89451e-12
1.0093e-10
-1.11217e-07
5.7724e-11
-6.19062e-11
-4.77488e-11
6.56811e-12
2.7359e-11
-8.00076e-11
-8.16106e-11
2.86335e-11
8.33994e-12
1.12305e-07
1.01563e-10
-1.12274e-07
6.18949e-11