/*--------------------------------*- C++ -*----------------------------------*\
| =========                 |                                                 |
| \\      /  F ield         | OpenFOAM: The Open Source CFD Toolbox           |
|  \\    /   O peration     | Version:  2206                                  |
|   \\  /    A nd           | Website:  www.openfoam.com                      |
|    \\/     M anipulation  |                                                 |
\*---------------------------------------------------------------------------*/
FoamFile
{
    version     2.0;
    format      ascii;
    arch        "LSB;label=32;scalar=64";
    class       volVectorField;
    location    "60";
    object      wallShearStress;
}
// * * * * * * * * * * * * * * * * * * * * * * * * * * * * * * * * * * * * * //

dimensions      [0 2 -2 0 0 0 0];

internalField   uniform (0 0 0);

boundaryField
{
    topPatch
    {
        type            calculated;
        value           uniform (0 0 0);
    }
    wall
    {
        type            calculated;
        value           nonuniform List<vector> 
7742
(
(2.11771e-05 1.13539e-05 -0.00016334)
(1.59001e-05 5.60011e-05 -5.89976e-05)
(-2.11857e-05 1.13588e-05 -0.000163351)
(1.1327e-05 2.11966e-05 -0.000163449)
(5.61359e-05 1.59252e-05 -5.85494e-05)
(1.13211e-05 -2.11833e-05 -0.000163414)
(-1.13239e-05 2.11913e-05 -0.000163404)
(-1.13248e-05 -2.11832e-05 -0.000163437)
(2.11797e-05 -1.13536e-05 -0.000163322)
(1.58996e-05 -5.60014e-05 -5.89878e-05)
(-2.11748e-05 -1.13587e-05 -0.000163331)
(-1.58945e-05 -5.59959e-05 -5.90038e-05)
(-1.24823e-06 1.3025e-05 -0.000178436)
(2.84e-05 3.08335e-05 -0.000125201)
(-6.11647e-07 -3.96065e-06 -0.000200209)
(1.30208e-05 -1.25592e-06 -0.000178462)
(3.08249e-05 2.83944e-05 -0.000125213)
(-3.9592e-06 -6.10478e-07 -0.000200219)
(8.05673e-06 4.29152e-07 -0.000158188)
(-8.05094e-06 4.2523e-07 -0.000158206)
(1.38625e-06 1.30297e-05 -0.000178349)
(5.65626e-07 -4.00868e-06 -0.00020009)
(-2.81646e-05 3.08952e-05 -0.000125727)
(-1.30244e-05 -1.26225e-06 -0.000178461)
(-3.08285e-05 2.83868e-05 -0.000125204)
(3.95636e-06 -6.16696e-07 -0.000200215)
(4.44493e-07 8.0951e-06 -0.000158235)
(4.43985e-07 -8.09664e-06 -0.000158203)
(-4.38969e-07 8.09363e-06 -0.000158202)
(-4.44077e-07 -8.08966e-06 -0.000158238)
(1.3029e-05 1.39003e-06 -0.000178426)
(-4.0047e-06 5.63498e-07 -0.000200167)
(3.08828e-05 -2.81702e-05 -0.000125772)
(-1.24791e-06 -1.30273e-05 -0.000178462)
(2.84017e-05 -3.08441e-05 -0.000125202)
(-6.17463e-07 3.96173e-06 -0.000200235)
(8.05586e-06 -4.2811e-07 -0.000158205)
(-8.0517e-06 -4.21426e-07 -0.000158194)
(-1.30242e-05 1.39195e-06 -0.000178382)
(4.00574e-06 5.58714e-07 -0.000200102)
(-3.08711e-05 -2.81517e-05 -0.00012575)
(1.37142e-06 -1.30333e-05 -0.000178385)
(5.66608e-07 4.00985e-06 -0.000200142)
(-2.81776e-05 -3.08953e-05 -0.00012573)
(1.14522e-05 -1.26395e-05 -0.000146176)
(-1.14484e-05 -1.26464e-05 -0.00014613)
(-9.33891e-06 -1.13758e-05 -0.000166754)
(-1.26137e-05 1.14474e-05 -0.000146163)
(-1.95445e-06 -2.67078e-06 -0.000186747)
(-1.26008e-05 -1.14358e-05 -0.000146159)
(-1.13252e-05 -9.33696e-06 -0.000166794)
(1.26065e-05 1.14412e-05 -0.000146117)
(1.25961e-05 -1.14366e-05 -0.000146169)
(1.13252e-05 -9.33969e-06 -0.00016678)
(1.95967e-06 2.68015e-06 -0.000186749)
(1.14572e-05 1.26458e-05 -0.000146128)
(9.35533e-06 1.13814e-05 -0.000166743)
(-1.14575e-05 1.2647e-05 -0.000146142)
(-1.58984e-05 5.5991e-05 -5.89902e-05)
(5.61474e-05 -1.59267e-05 -5.85253e-05)
(-5.61404e-05 -1.5928e-05 -5.85462e-05)
(9.3496e-06 -1.1378e-05 -0.000166775)
(-1.13311e-05 9.34618e-06 -0.000166784)
(-5.61351e-05 1.59251e-05 -5.85197e-05)
(1.13247e-05 9.34235e-06 -0.000166766)
(1.95375e-06 -2.67445e-06 -0.000186746)
(-2.66243e-06 1.97625e-06 -0.000186673)
(-9.3559e-06 1.13829e-05 -0.000166762)
(2.66559e-06 1.97775e-06 -0.000186681)
(5.60927e-06 -2.14724e-05 -0.000221283)
(-2.66142e-06 -1.96949e-06 -0.00018668)
(-5.60264e-06 -2.14897e-05 -0.00022127)
(2.6776e-06 -1.97254e-06 -0.000186662)
(-2.14907e-05 5.61247e-06 -0.000221371)
(-2.14759e-05 -5.60676e-06 -0.000221306)
(-1.96197e-06 2.68594e-06 -0.000186775)
(2.14864e-05 5.60825e-06 -0.000221287)
(2.14731e-05 -5.60939e-06 -0.000221331)
(5.61198e-06 2.1486e-05 -0.000221232)
(-5.59796e-06 2.14923e-05 -0.000221279)
(-2.23797e-06 -1.18108e-05 -0.000321905)
(-1.46732e-06 -2.36864e-06 -0.000202816)
(2.07765e-06 -2.95175e-05 -0.000225798)
(-2.35439e-06 -2.99964e-06 -0.000202646)
(-1.18533e-05 -2.24991e-06 -0.000322261)
(-2.36495e-06 -1.47836e-06 -0.000202921)
(-2.94868e-05 2.05624e-06 -0.000225781)
(-3.00087e-06 -2.36171e-06 -0.000202733)
(-1.29692e-06 2.65933e-07 -0.000148468)
(-8.60318e-07 2.67508e-07 -0.000141265)
(9.12322e-07 2.25255e-07 -0.000158911)
(5.28397e-07 1.96877e-07 -0.000151075)
(2.67995e-07 -1.30284e-06 -0.000148583)
(2.75867e-07 -8.78128e-07 -0.000141334)
(2.32337e-07 9.25147e-07 -0.000159013)
(2.02593e-07 5.38559e-07 -0.00015113)
(-4.69674e-07 1.32058e-07 -0.000135261)
(-2.8156e-07 9.2816e-08 -0.000133327)
(2.82506e-07 9.21048e-08 -0.000144611)
(1.6762e-07 6.25404e-08 -0.000142414)
(1.21765e-07 -4.37781e-07 -0.000135532)
(8.87073e-08 -2.75072e-07 -0.00013347)
(7.64492e-08 2.48217e-07 -0.000144826)
(5.30174e-08 1.52722e-07 -0.00014252)
(-1.62804e-07 2.22625e-08 -0.000130192)
(-9.03663e-08 1.9217e-08 -0.000128896)
(1.10538e-07 1.62523e-08 -0.000139028)
(5.91955e-08 1.13208e-08 -0.000137533)
(1.62166e-08 -1.44352e-07 -0.000130411)
(2.12238e-08 -1.00877e-07 -0.000128968)
(2.19622e-09 8.26779e-08 -0.000139194)
(9.63668e-09 6.11967e-08 -0.00013757)
(-1.00621e-07 -1.55171e-09 -0.000126317)
(-4.08783e-08 -2.74511e-10 -0.000125311)
(8.56786e-08 2.59545e-09 -0.000134756)
(4.98127e-08 1.49536e-09 -0.000133549)
(-9.46772e-10 -9.82477e-08 -0.000126472)
(6.93957e-09 -6.44597e-08 -0.000125324)
(3.30566e-09 8.38927e-08 -0.000134864)
(1.27669e-08 7.34478e-08 -0.000133535)
(1.03482e-08 -3.43393e-08 -0.000123664)
(9.02815e-08 -3.59108e-08 -0.000123433)
(1.33502e-08 -2.7332e-08 -0.000131685)
(-6.55649e-08 -4.10327e-08 -0.000131278)
(-3.15127e-08 6.88958e-09 -0.000123785)
(-2.72587e-08 6.19248e-08 -0.000123424)
(-2.43401e-08 1.48571e-08 -0.000131767)
(-3.04851e-08 -4.1138e-08 -0.000131248)
(7.81234e-08 -4.69317e-08 -0.000122784)
(1.02906e-07 -3.23391e-08 -0.000122778)
(-8.18409e-08 -6.05116e-08 -0.000130525)
(-1.09282e-07 -5.49645e-08 -0.000130427)
(-4.2035e-08 7.00398e-08 -0.000122885)
(-2.08388e-08 6.96231e-08 -0.000122744)
(-5.2793e-08 -7.04188e-08 -0.000130599)
(-3.75584e-08 -7.36837e-08 -0.000130406)
(4.64691e-08 -3.29453e-08 -0.000122137)
(7.11039e-08 -2.04806e-08 -0.000122074)
(-5.74037e-08 -4.39858e-08 -0.000129807)
(-7.12669e-08 -3.4216e-08 -0.000129688)
(-2.75282e-08 3.94564e-08 -0.000122225)
(-1.06381e-08 4.20958e-08 -0.000122047)
(-3.71185e-08 -4.90877e-08 -0.000129914)
(-2.27716e-08 -4.56879e-08 -0.000129705)
(2.69983e-08 -2.70368e-08 -0.000121361)
(5.63514e-08 -1.63369e-08 -0.000121266)
(-3.00772e-08 -3.15671e-08 -0.000129018)
(-5.35011e-08 -2.65255e-08 -0.000128866)
(-2.54727e-08 2.83866e-08 -0.000121467)
(-1.1271e-08 3.79347e-08 -0.000121257)
(-2.77741e-08 -2.67463e-08 -0.00012916)
(-1.49961e-08 -2.98866e-08 -0.000128919)
(1.83135e-08 -2.73134e-08 -0.000120493)
(4.91841e-08 -1.64885e-08 -0.000120414)
(-1.14134e-08 -2.53301e-08 -0.000128135)
(-3.74554e-08 -2.03593e-08 -0.000128)
(-2.96302e-08 2.73175e-08 -0.000120611)
(-1.48901e-08 3.97575e-08 -0.000120434)
(-2.65458e-08 -1.74364e-08 -0.000128285)
(-1.46167e-08 -2.36287e-08 -0.000128077)
(1.40193e-08 -2.35764e-08 -0.00011966)
(3.46902e-08 -8.30397e-09 -0.000119718)
(-4.10562e-09 -1.95605e-08 -0.000127289)
(-3.12939e-08 -1.41502e-08 -0.000127284)
(-2.40059e-08 1.53562e-08 -0.000119773)
(-5.92855e-09 2.73838e-08 -0.000119752)
(-1.87997e-08 -4.33054e-09 -0.000127425)
(-5.96478e-09 -1.5046e-08 -0.000127386)
(1.82661e-09 -1.90316e-08 -0.00011905)
(1.59537e-08 3.43148e-09 -0.000119279)
(1.29599e-08 -9.29181e-09 -0.000126693)
(-2.222e-08 -4.92134e-09 -0.000126811)
(-1.86722e-08 2.96513e-09 -0.000119142)
(-1.53387e-08 3.03416e-09 -0.00012679)
(-5.53761e-06 8.91874e-06 -0.000208584)
(8.98795e-06 -5.58841e-06 -0.00020839)
(7.18244e-06 4.1827e-05 -0.000111695)
(-7.17889e-06 4.18288e-05 -0.000111691)
(5.50408e-06 8.92011e-06 -0.000208617)
(-8.97877e-06 -5.5947e-06 -0.00020835)
(4.19663e-05 7.1956e-06 -0.000111365)
(4.19805e-05 -7.19898e-06 -0.000111361)
(-4.19627e-05 7.19313e-06 -0.00011137)
(-4.19705e-05 -7.19809e-06 -0.000111352)
(8.97718e-06 5.55603e-06 -0.000208381)
(-5.54017e-06 -8.92478e-06 -0.000208618)
(7.1881e-06 -4.18191e-05 -0.000111733)
(-7.19165e-06 -4.18259e-05 -0.000111735)
(-8.95882e-06 5.56191e-06 -0.000208322)
(5.49552e-06 -8.92562e-06 -0.000208622)
(-2.10309e-06 -2.95008e-05 -0.000225795)
(2.34703e-06 -2.99332e-06 -0.000202653)
(-2.94774e-05 -2.08619e-06 -0.00022579)
(-2.9913e-06 2.34762e-06 -0.000202756)
(-1.06167e-06 1.671e-07 -0.000164348)
(-8.32143e-07 -1.87816e-06 -0.000201166)
(1.76877e-07 -1.08348e-06 -0.000164375)
(-1.89032e-06 -8.12707e-07 -0.000201342)
(2.23362e-06 -1.18068e-05 -0.000321882)
(1.45913e-06 -2.36957e-06 -0.000202807)
(-1.36966e-06 1.56556e-07 -0.000153816)
(-9.82722e-07 -1.9882e-06 -0.000192897)
(1.36346e-06 1.54323e-07 -0.000153816)
(9.78108e-07 -1.99124e-06 -0.000192891)
(2.94719e-05 -2.08754e-06 -0.000225771)
(2.99297e-06 2.34916e-06 -0.000202738)
(1.05821e-06 1.63938e-07 -0.00016435)
(8.27285e-07 -1.87945e-06 -0.000201164)
(-1.76031e-07 -1.08204e-06 -0.000164354)
(1.8927e-06 -8.05555e-07 -0.000201331)
(-1.18444e-05 2.25213e-06 -0.000322308)
(-2.36771e-06 1.47634e-06 -0.000202929)
(1.66202e-07 -1.39569e-06 -0.000153832)
(-1.99357e-06 -9.73453e-07 -0.000193059)
(1.65834e-07 1.39481e-06 -0.000153834)
(-1.99313e-06 9.72622e-07 -0.000193073)
(1.18511e-05 -2.25406e-06 -0.000322256)
(2.3653e-06 -1.47997e-06 -0.000202909)
(1.18443e-05 2.25004e-06 -0.000322267)
(2.36624e-06 1.47491e-06 -0.000202914)
(-1.65921e-07 -1.39691e-06 -0.000153822)
(1.99223e-06 -9.73762e-07 -0.000193055)
(-1.66291e-07 1.39762e-06 -0.000153822)
(1.99397e-06 9.70042e-07 -0.000193055)
(-2.10467e-06 2.95051e-05 -0.000225826)
(2.34296e-06 2.99241e-06 -0.000202685)
(1.74376e-07 1.07993e-06 -0.000164362)
(-1.89519e-06 7.99602e-07 -0.000201327)
(-1.06104e-06 -1.65169e-07 -0.000164363)
(-8.30053e-07 1.87737e-06 -0.000201194)
(-2.24082e-06 1.18174e-05 -0.000321911)
(-1.46427e-06 2.36716e-06 -0.000202827)
(2.23578e-06 1.18139e-05 -0.000321922)
(1.45878e-06 2.37027e-06 -0.000202832)
(-1.36819e-06 -1.54236e-07 -0.000153827)
(-9.79259e-07 1.98936e-06 -0.000192908)
(1.36382e-06 -1.53549e-07 -0.000153824)
(9.76043e-07 1.98964e-06 -0.000192914)
(2.94774e-05 2.05859e-06 -0.000225718)
(2.99887e-06 -2.35985e-06 -0.000202691)
(2.07454e-06 2.95191e-05 -0.000225827)
(-2.35517e-06 2.99911e-06 -0.000202675)
(-1.73243e-07 1.07842e-06 -0.000164335)
(1.89735e-06 7.96086e-07 -0.000201277)
(1.05816e-06 -1.63384e-07 -0.000164358)
(8.25111e-07 1.88104e-06 -0.000201187)
(-9.12428e-07 2.25996e-07 -0.000158917)
(-5.28633e-07 1.97161e-07 -0.000151068)
(2.32779e-07 -9.26783e-07 -0.000159025)
(2.0313e-07 -5.39485e-07 -0.000151142)
(-2.94584e-07 1.16456e-07 -0.000145754)
(-4.87019e-07 1.68557e-07 -0.000149215)
(1.07802e-07 -2.79677e-07 -0.000145891)
(1.6249e-07 -4.70444e-07 -0.000149402)
(1.2915e-06 2.64046e-07 -0.000148463)
(8.59825e-07 2.67982e-07 -0.000141266)
(-4.99653e-07 1.66117e-07 -0.00013638)
(-7.88694e-07 2.2773e-07 -0.000139487)
(4.95686e-07 1.63924e-07 -0.000136386)
(7.85951e-07 2.26927e-07 -0.000139488)
(-2.31522e-07 -9.24847e-07 -0.00015901)
(-2.00001e-07 -5.34694e-07 -0.000151126)
(2.88363e-07 1.12661e-07 -0.000145767)
(4.83736e-07 1.6736e-07 -0.000149218)
(-1.07748e-07 -2.79048e-07 -0.000145872)
(-1.6073e-07 -4.67555e-07 -0.000149385)
(2.66551e-07 1.30185e-06 -0.000148587)
(2.74667e-07 8.7612e-07 -0.000141332)
(1.62601e-07 -4.92131e-07 -0.00013653)
(2.26689e-07 -7.76007e-07 -0.000139697)
(1.61748e-07 4.91609e-07 -0.000136523)
(2.25527e-07 7.74248e-07 -0.000139693)
(-2.68003e-07 -1.30299e-06 -0.000148576)
(-2.74652e-07 -8.73775e-07 -0.000141328)
(-2.68609e-07 1.30455e-06 -0.000148576)
(-2.76091e-07 8.7879e-07 -0.000141326)
(-1.62831e-07 -4.9109e-07 -0.00013652)
(-2.25853e-07 -7.72738e-07 -0.000139689)
(-1.62808e-07 4.92696e-07 -0.000136515)
(-2.26565e-07 7.76556e-07 -0.000139687)
(-9.11583e-07 -2.23923e-07 -0.000158926)
(-5.27566e-07 -1.96244e-07 -0.000151081)
(1.07298e-07 2.79189e-07 -0.000145876)
(1.62066e-07 4.6913e-07 -0.000149387)
(-2.91731e-07 -1.15426e-07 -0.000145773)
(-4.84234e-07 -1.66763e-07 -0.000149225)
(-1.29567e-06 -2.65599e-07 -0.000148475)
(-8.58338e-07 -2.68767e-07 -0.000141276)
(1.2925e-06 -2.64641e-07 -0.000148475)
(8.59506e-07 -2.68629e-07 -0.000141278)
(-5.01445e-07 -1.67501e-07 -0.000136398)
(-7.87068e-07 -2.27661e-07 -0.000139496)
(5.02944e-07 -1.68099e-07 -0.000136394)
(7.87405e-07 -2.27052e-07 -0.000139499)
(-2.31587e-07 9.24296e-07 -0.000158987)
(-2.02642e-07 5.37659e-07 -0.000151109)
(9.09713e-07 -2.23318e-07 -0.000158923)
(5.24326e-07 -1.94486e-07 -0.000151084)
(-1.07782e-07 2.78285e-07 -0.000145852)
(-1.61262e-07 4.66994e-07 -0.000149364)
(2.94577e-07 -1.17266e-07 -0.000145775)
(4.84912e-07 -1.67711e-07 -0.00014923)
(-2.85739e-07 9.44245e-08 -0.000144608)
(-1.65991e-07 6.14029e-08 -0.000142396)
(7.58619e-08 -2.47189e-07 -0.000144843)
(5.23684e-08 -1.51881e-07 -0.000142529)
(-8.81853e-08 2.16519e-08 -0.000139777)
(-1.7202e-07 4.35872e-08 -0.000141507)
(1.89696e-08 -8.56758e-08 -0.000139882)
(2.81623e-08 -1.40081e-07 -0.000141729)
(4.65262e-07 1.2956e-07 -0.000135259)
(2.82854e-07 9.29217e-08 -0.000133329)
(-1.51784e-07 4.44327e-08 -0.000130961)
(-2.73877e-07 6.35448e-08 -0.000132448)
(1.51052e-07 4.47891e-08 -0.000130968)
(2.73678e-07 6.42476e-08 -0.000132449)
(-7.52082e-08 -2.46782e-07 -0.00014482)
(-5.13841e-08 -1.50581e-07 -0.000142518)
(9.01063e-08 2.44949e-08 -0.000139801)
(1.75489e-07 4.59063e-08 -0.000141522)
(-1.8961e-08 -8.44878e-08 -0.000139876)
(-2.59371e-08 -1.34251e-07 -0.000141725)
(1.20991e-07 4.38227e-07 -0.000135525)
(8.91531e-08 2.76239e-07 -0.000133468)
(4.29492e-08 -1.53907e-07 -0.000131069)
(5.43229e-08 -2.46154e-07 -0.000132701)
(4.23946e-08 1.50809e-07 -0.000131066)
(5.51246e-08 2.48195e-07 -0.000132701)
(-1.20999e-07 -4.36658e-07 -0.00013552)
(-8.74497e-08 -2.74363e-07 -0.000133467)
(-1.20743e-07 4.38448e-07 -0.000135514)
(-8.77412e-08 2.72822e-07 -0.000133458)
(-4.13143e-08 -1.48977e-07 -0.000131072)
(-5.48054e-08 -2.45955e-07 -0.000132704)
(-4.16741e-08 1.45972e-07 -0.000131063)
(-5.33516e-08 2.43438e-07 -0.000132693)
(-2.83407e-07 -9.22853e-08 -0.000144618)
(-1.63781e-07 -5.97541e-08 -0.000142407)
(1.99225e-08 8.50897e-08 -0.000139875)
(2.84471e-08 1.40785e-07 -0.000141723)
(-8.73011e-08 -2.19954e-08 -0.000139789)
(-1.69859e-07 -4.33398e-08 -0.000141521)
(-4.70288e-07 -1.32141e-07 -0.000135274)
(-2.82603e-07 -9.23894e-08 -0.000133339)
(4.73742e-07 -1.32753e-07 -0.00013527)
(2.83504e-07 -9.31242e-08 -0.000133335)
(-1.50618e-07 -4.40079e-08 -0.000130973)
(-2.75595e-07 -6.49587e-08 -0.000132462)
(1.52433e-07 -4.58466e-08 -0.000130974)
(2.7547e-07 -6.54693e-08 -0.00013246)
(-7.55859e-08 2.47825e-07 -0.0001448)
(-5.10067e-08 1.50804e-07 -0.00014249)
(2.88997e-07 -9.63441e-08 -0.000144628)
(1.6769e-07 -6.199e-08 -0.000142412)
(-1.76078e-08 8.21783e-08 -0.000139849)
(-2.63655e-08 1.3591e-07 -0.000141694)
(9.06066e-08 -2.41855e-08 -0.000139795)
(1.73929e-07 -4.50504e-08 -0.000141524)
(-1.0494e-07 1.23101e-08 -0.000139013)
(-5.38433e-08 7.60464e-09 -0.000137506)
(1.95422e-09 -8.42677e-08 -0.000139207)
(9.78987e-09 -6.14066e-08 -0.000137579)
(-5.49057e-08 6.08845e-09 -0.000135404)
(-8.59493e-08 3.76466e-09 -0.000136794)
(1.26681e-08 -6.96767e-08 -0.000135448)
(-2.51077e-09 -7.21582e-08 -0.000136957)
(1.62481e-07 2.26136e-08 -0.000130192)
(9.51106e-08 2.1839e-08 -0.000128907)
(-6.98469e-08 1.25021e-08 -0.000126992)
(-1.17017e-07 7.39031e-09 -0.000128185)
(7.17847e-08 1.18407e-08 -0.000127009)
(1.19444e-07 8.51277e-09 -0.000128195)
(-1.95539e-10 -7.78977e-08 -0.000139202)
(-5.99009e-09 -5.36866e-08 -0.000137579)
(5.2966e-08 5.51633e-09 -0.000135439)
(8.45521e-08 2.84616e-09 -0.000136819)
(-1.37254e-08 -7.20093e-08 -0.000135444)
(3.15133e-09 -7.1165e-08 -0.000136954)
(1.57041e-08 1.41009e-07 -0.000130406)
(2.14021e-08 9.96318e-08 -0.000128966)
(1.68273e-08 -8.71628e-08 -0.00012703)
(4.12374e-09 -1.06094e-07 -0.00012837)
(1.69036e-08 9.01389e-08 -0.000127029)
(4.31933e-09 1.0527e-07 -0.000128369)
(-1.53763e-08 -1.38749e-07 -0.000130413)
(-1.80835e-08 -9.25256e-08 -0.000128974)
(-1.32606e-08 1.38453e-07 -0.000130401)
(-1.86723e-08 9.508e-08 -0.00012896)
(-1.72467e-08 -8.94691e-08 -0.000127031)
(-2.85089e-09 -1.01978e-07 -0.000128372)
(-1.62965e-08 8.59819e-08 -0.000127022)
(-2.75696e-09 1.01299e-07 -0.000128363)
(-1.04001e-07 -1.26877e-08 -0.000139022)
(-5.3766e-08 -8.0803e-09 -0.000137517)
(1.47281e-08 7.26773e-08 -0.000135442)
(-2.52265e-09 7.18916e-08 -0.000136949)
(-5.37708e-08 -5.38506e-09 -0.000135416)
(-8.50383e-08 -2.81154e-09 -0.000136802)
(-1.62e-07 -2.25865e-08 -0.000130198)
(-9.16927e-08 -1.99101e-08 -0.000128905)
(1.65227e-07 -2.26792e-08 -0.000130199)
(9.33303e-08 -2.01076e-08 -0.000128909)
(-7.36479e-08 -1.32616e-08 -0.000127001)
(-1.17909e-07 -7.85272e-09 -0.00012819)
(7.28324e-08 -1.32362e-08 -0.000127005)
(1.20206e-07 -8.44298e-09 -0.000128197)
(-1.19691e-10 7.88274e-08 -0.000139174)
(-7.27085e-09 5.62792e-08 -0.000137551)
(1.0888e-07 -1.4272e-08 -0.000139028)
(5.59181e-08 -9.34718e-09 -0.000137528)
(-1.23825e-08 6.88796e-08 -0.000135423)
(5.47356e-09 6.58906e-08 -0.000136928)
(5.66319e-08 -7.70913e-09 -0.000135422)
(8.72419e-08 -4.73855e-09 -0.000136811)
(-8.38568e-08 2.14457e-09 -0.000134734)
(-4.96629e-08 1.67554e-09 -0.000133519)
(1.54026e-09 -8.04895e-08 -0.000134869)
(1.269e-08 -7.35877e-08 -0.000133539)
(5.10459e-09 -1.87341e-08 -0.000132103)
(-7.05443e-08 -2.65349e-09 -0.000132945)
(-5.6944e-09 -2.24585e-08 -0.000132111)
(3.68492e-10 -7.33076e-08 -0.000133059)
(1.01814e-07 -1.18002e-09 -0.000126326)
(4.29377e-08 7.95305e-10 -0.000125325)
(2.84667e-08 -2.09963e-08 -0.000124096)
(-6.03774e-08 -1.4885e-08 -0.00012473)
(-2.39475e-08 -2.10037e-08 -0.000124104)
(6.17894e-08 -1.48748e-08 -0.000124737)
(-2.26996e-09 -8.15534e-08 -0.000134868)
(-1.26614e-08 -7.34111e-08 -0.000133537)
(-3.89399e-09 -1.82324e-08 -0.000132128)
(7.37286e-08 -9.91078e-10 -0.000132966)
(3.93098e-09 -2.50167e-08 -0.000132102)
(2.63192e-09 -6.88691e-08 -0.000133054)
(-7.65322e-10 1.00149e-07 -0.000126469)
(8.01879e-09 6.63745e-08 -0.000125323)
(-1.32569e-08 2.32617e-09 -0.000124095)
(-1.35579e-08 -6.09886e-08 -0.00012486)
(-1.30531e-08 8.78236e-10 -0.000124089)
(-1.28036e-08 6.3194e-08 -0.000124861)
(8.02274e-10 -1.0039e-07 -0.000126469)
(-8.48467e-09 -6.72118e-08 -0.000125321)
(2.39883e-09 9.73463e-08 -0.000126459)
(-7.58747e-09 6.39759e-08 -0.000125312)
(1.19944e-08 -2.07538e-10 -0.000124084)
(1.21703e-08 -6.39338e-08 -0.000124855)
(1.32166e-08 6.87896e-10 -0.00012407)
(1.32909e-08 6.14393e-08 -0.000124848)
(-8.54618e-08 -3.07525e-09 -0.000134743)
(-4.97774e-08 -1.83923e-09 -0.000133529)
(-4.45022e-09 2.48216e-08 -0.000132105)
(6.26634e-10 7.38133e-08 -0.000133056)
(3.21815e-09 1.73864e-08 -0.000132113)
(-7.01305e-08 3.30812e-09 -0.000132949)
(-1.05158e-07 3.4462e-10 -0.000126319)
(-4.30272e-08 -1.06633e-09 -0.000125316)
(1.04539e-07 1.25888e-09 -0.000126324)
(4.31924e-08 -1.57327e-09 -0.000125324)
(2.52333e-08 1.94352e-08 -0.000124102)
(-6.19115e-08 1.4065e-08 -0.000124729)
(-2.3668e-08 2.01273e-08 -0.000124107)
(6.25402e-08 1.46451e-08 -0.000124738)
(-1.51518e-09 7.97649e-08 -0.000134844)
(-1.10613e-08 7.0542e-08 -0.000133516)
(8.8857e-08 -5.42062e-09 -0.000134749)
(4.96498e-08 -1.95245e-09 -0.000133535)
(4.73412e-09 2.37466e-08 -0.000132078)
(2.22679e-09 6.85292e-08 -0.000133034)
(-2.22717e-09 1.69674e-08 -0.00013212)
(7.05847e-08 2.77721e-09 -0.000132957)
(-6.55927e-09 -2.88095e-08 -0.000131672)
(7.29092e-08 -4.61368e-08 -0.000131262)
(-2.56389e-08 -1.03879e-08 -0.000131776)
(-3.18967e-08 4.38832e-08 -0.000131263)
(1.10105e-07 -5.82321e-08 -0.000130787)
(5.74952e-08 -5.24434e-08 -0.000130957)
(-4.20126e-08 7.72086e-08 -0.000130776)
(-4.73579e-08 5.03281e-08 -0.000131054)
(-5.53605e-09 -3.19688e-08 -0.000123667)
(-7.81279e-08 -3.11589e-08 -0.00012344)
(1.13141e-07 -3.84055e-08 -0.000123074)
(6.64613e-08 -4.79149e-08 -0.000123107)
(-1.07618e-07 -3.65931e-08 -0.000123078)
(-5.70119e-08 -4.41219e-08 -0.000123111)
(2.54603e-08 -1.08459e-08 -0.000131767)
(3.24732e-08 4.37964e-08 -0.000131253)
(-1.08707e-07 -5.74013e-08 -0.000130794)
(-5.39714e-08 -5.06645e-08 -0.000130967)
(3.87474e-08 7.04824e-08 -0.000130767)
(4.43294e-08 4.48908e-08 -0.000131043)
(-3.08378e-08 -4.48748e-09 -0.000123778)
(-2.6694e-08 -6.0263e-08 -0.000123415)
(-2.81339e-08 8.2522e-08 -0.000123054)
(-4.46692e-08 6.16214e-08 -0.00012322)
(-2.96696e-08 -8.4339e-08 -0.000123045)
(-4.39721e-08 -6.07665e-08 -0.000123213)
(3.08147e-08 4.36082e-09 -0.000123771)
(2.78729e-08 6.40175e-08 -0.000123414)
(3.00749e-08 -4.6653e-09 -0.000123758)
(2.6076e-08 -6.00257e-08 -0.000123394)
(2.74498e-08 7.89144e-08 -0.000123045)
(4.4574e-08 6.09158e-08 -0.000123207)
(2.86103e-08 -8.15039e-08 -0.000123018)
(4.36466e-08 -6.01784e-08 -0.000123189)
(-9.80408e-09 2.74435e-08 -0.000131675)
(7.15247e-08 4.48383e-08 -0.000131264)
(-4.118e-08 -7.55099e-08 -0.00013076)
(-4.5299e-08 -4.68887e-08 -0.00013104)
(1.06213e-07 5.64279e-08 -0.000130783)
(5.50722e-08 5.24301e-08 -0.000130953)
(6.62689e-09 3.36914e-08 -0.00012366)
(8.65557e-08 3.47905e-08 -0.000123434)
(-5.49656e-09 3.17473e-08 -0.000123672)
(-8.2494e-08 3.27438e-08 -0.000123444)
(1.08395e-07 3.63909e-08 -0.000123072)
(6.29147e-08 4.69584e-08 -0.000123102)
(-1.04839e-07 3.54792e-08 -0.000123079)
(-5.8212e-08 4.45915e-08 -0.000123113)
(2.45957e-08 1.24418e-08 -0.00013174)
(3.14317e-08 -4.33297e-08 -0.00013122)
(1.25137e-08 2.62668e-08 -0.000131684)
(-6.83163e-08 4.28661e-08 -0.000131274)
(4.1431e-08 -7.58333e-08 -0.000130731)
(4.67255e-08 -5.0122e-08 -0.00013101)
(-1.02109e-07 5.37982e-08 -0.000130789)
(-5.02071e-08 4.85457e-08 -0.000130963)
(8.47584e-08 -6.13841e-08 -0.000130532)
(1.08948e-07 -5.45752e-08 -0.00013044)
(-5.35837e-08 7.31624e-08 -0.000130618)
(-3.62999e-08 7.14482e-08 -0.000130418)
(9.07798e-08 -4.39904e-08 -0.000130092)
(7.57726e-08 -5.53652e-08 -0.000130195)
(-2.58231e-08 5.34943e-08 -0.000130066)
(-4.5582e-08 6.19938e-08 -0.000130272)
(-7.46999e-08 -4.49104e-08 -0.00012278)
(-1.02165e-07 -3.1531e-08 -0.000122771)
(8.59033e-08 -2.48562e-08 -0.00012244)
(6.34119e-08 -3.93333e-08 -0.000122483)
(-8.83388e-08 -2.57262e-08 -0.000122422)
(-6.42212e-08 -4.00153e-08 -0.000122469)
(5.11015e-08 6.69403e-08 -0.000130612)
(3.3323e-08 6.67336e-08 -0.000130419)
(-9.51962e-08 -4.63505e-08 -0.000130068)
(-7.41015e-08 -5.38604e-08 -0.000130174)
(2.3204e-08 5.00858e-08 -0.000130069)
(4.52286e-08 6.02841e-08 -0.000130275)
(-4.26558e-08 -7.30773e-08 -0.000122877)
(-2.22288e-08 -7.26166e-08 -0.000122746)
(-1.49722e-08 5.38028e-08 -0.000122403)
(-3.42737e-08 5.46627e-08 -0.000122572)
(-1.55159e-08 -5.74778e-08 -0.000122411)
(-3.59194e-08 -5.77463e-08 -0.000122576)
(4.04141e-08 6.61535e-08 -0.000122877)
(1.98093e-08 6.56149e-08 -0.000122746)
(4.14692e-08 -6.93015e-08 -0.000122849)
(2.15032e-08 -7.18807e-08 -0.000122711)
(1.26134e-08 4.95299e-08 -0.000122407)
(3.35747e-08 5.18647e-08 -0.000122578)
(1.55138e-08 -5.65627e-08 -0.000122369)
(3.6179e-08 -5.78409e-08 -0.00012254)
(7.89721e-08 5.88254e-08 -0.000130521)
(1.04532e-07 5.19685e-08 -0.000130427)
(-2.8521e-08 -5.91571e-08 -0.000130062)
(-4.66891e-08 -6.39103e-08 -0.000130262)
(8.77894e-08 4.19292e-08 -0.000130075)
(7.0136e-08 5.18597e-08 -0.000130178)
(7.24981e-08 4.45417e-08 -0.000122772)
(9.77803e-08 3.02136e-08 -0.000122768)
(-7.02955e-08 4.35897e-08 -0.000122782)
(-9.80406e-08 2.98643e-08 -0.000122775)
(8.18751e-08 2.33027e-08 -0.000122427)
(5.87837e-08 3.73377e-08 -0.00012247)
(-8.462e-08 2.4009e-08 -0.00012243)
(-6.07141e-08 3.90436e-08 -0.000122474)
(5.31286e-08 -7.12707e-08 -0.00013057)
(3.82691e-08 -7.49929e-08 -0.000130373)
(-7.36537e-08 5.5945e-08 -0.000130528)
(-1.03739e-07 5.1855e-08 -0.000130428)
(2.81421e-08 -5.85437e-08 -0.000130023)
(4.80455e-08 -6.64073e-08 -0.000130225)
(-8.98486e-08 4.26846e-08 -0.000130073)
(-7.0939e-08 5.21415e-08 -0.000130177)
(5.70836e-08 -4.3326e-08 -0.000129845)
(7.44047e-08 -3.54894e-08 -0.00012973)
(-3.58275e-08 4.52106e-08 -0.000129915)
(-2.01416e-08 4.24099e-08 -0.000129711)
(6.09698e-08 -2.94481e-08 -0.000129335)
(4.11267e-08 -3.67242e-08 -0.000129475)
(-1.57467e-08 3.27518e-08 -0.000129323)
(-3.00461e-08 3.28729e-08 -0.000129557)
(-4.9964e-08 -3.39935e-08 -0.000122111)
(-6.79375e-08 -1.92524e-08 -0.000122046)
(6.2121e-08 -1.78062e-08 -0.000121676)
(3.59102e-08 -2.96016e-08 -0.000121764)
(-6.48477e-08 -1.94135e-08 -0.000121648)
(-3.42589e-08 -3.00844e-08 -0.000121736)
(3.58267e-08 4.57716e-08 -0.000129922)
(2.17238e-08 4.36623e-08 -0.000129713)
(-6.23355e-08 -3.05824e-08 -0.00012929)
(-4.23007e-08 -3.70169e-08 -0.000129431)
(1.44556e-08 3.08283e-08 -0.000129325)
(2.91256e-08 3.02411e-08 -0.000129559)
(-2.93537e-08 -4.33863e-08 -0.000122235)
(-1.22831e-08 -4.62745e-08 -0.000122056)
(-1.07871e-08 3.93836e-08 -0.000121657)
(-2.63017e-08 3.09329e-08 -0.000121861)
(-1.17523e-08 -4.04805e-08 -0.000121672)
(-2.76513e-08 -3.45595e-08 -0.000121876)
(2.6468e-08 3.58065e-08 -0.000122232)
(1.20598e-08 4.34246e-08 -0.00012205)
(2.84513e-08 -4.15822e-08 -0.000122194)
(1.17779e-08 -4.47864e-08 -0.000122013)
(9.73109e-09 3.71343e-08 -0.000121664)
(2.59106e-08 2.99285e-08 -0.000121866)
(1.05798e-08 -3.85289e-08 -0.000121632)
(2.73245e-08 -3.24322e-08 -0.000121832)
(5.46634e-08 4.24545e-08 -0.000129822)
(7.18014e-08 3.41961e-08 -0.00012971)
(-1.71225e-08 -3.52482e-08 -0.000129324)
(-3.18732e-08 -3.64822e-08 -0.000129555)
(5.88928e-08 2.84344e-08 -0.000129319)
(3.85146e-08 3.5656e-08 -0.000129454)
(4.34653e-08 3.185e-08 -0.000122119)
(6.82333e-08 1.97453e-08 -0.00012206)
(-4.61679e-08 3.20132e-08 -0.000122125)
(-7.00803e-08 1.97192e-08 -0.000122063)
(6.08624e-08 1.71756e-08 -0.000121666)
(3.25884e-08 2.86828e-08 -0.000121751)
(-6.40699e-08 1.86553e-08 -0.000121667)
(-3.31014e-08 2.95498e-08 -0.000121753)
(3.75683e-08 -4.82993e-08 -0.000129873)
(2.16829e-08 -4.44408e-08 -0.000129665)
(-5.41543e-08 4.2104e-08 -0.00012982)
(-7.20389e-08 3.49195e-08 -0.000129705)
(1.62418e-08 -3.41854e-08 -0.000129284)
(3.19276e-08 -3.59537e-08 -0.000129513)
(-5.97725e-08 2.90318e-08 -0.000129309)
(-3.86391e-08 3.47951e-08 -0.00012945)
(2.96074e-08 -3.03044e-08 -0.000129072)
(4.99703e-08 -2.50681e-08 -0.00012892)
(-2.73173e-08 2.58858e-08 -0.000129157)
(-1.52462e-08 2.91709e-08 -0.000128916)
(4.287e-08 -2.34255e-08 -0.000128484)
(1.93306e-08 -2.71657e-08 -0.000128645)
(-1.70479e-08 2.84301e-08 -0.00012849)
(-2.6169e-08 2.15458e-08 -0.000128735)
(-3.04161e-08 -2.82437e-08 -0.000121328)
(-6.04162e-08 -1.88894e-08 -0.00012123)
(5.15625e-08 -1.71301e-08 -0.000120831)
(2.26618e-08 -2.75137e-08 -0.000120935)
(-5.79135e-08 -2.06983e-08 -0.000120799)
(-2.61886e-08 -2.86757e-08 -0.000120904)
(2.63203e-08 2.52037e-08 -0.000129165)
(1.48213e-08 2.80889e-08 -0.000128922)
(-4.79028e-08 -2.54934e-08 -0.000128431)
(-1.96354e-08 -2.72297e-08 -0.00012859)
(1.56518e-08 2.44044e-08 -0.00012849)
(2.77777e-08 2.39834e-08 -0.000128744)
(-2.50441e-08 -2.76482e-08 -0.000121482)
(-1.11351e-08 -3.64784e-08 -0.00012127)
(-1.42629e-08 4.02858e-08 -0.000120838)
(-2.68855e-08 2.60039e-08 -0.000121047)
(-1.43073e-08 -3.73344e-08 -0.000120851)
(-2.67096e-08 -2.5925e-08 -0.000121065)
(2.44591e-08 2.50352e-08 -0.000121474)
(1.10569e-08 3.68997e-08 -0.000121265)
(2.41878e-08 -2.63104e-08 -0.000121444)
(1.10993e-08 -3.6364e-08 -0.000121235)
(1.49263e-08 3.93903e-08 -0.000120843)
(2.73689e-08 2.77515e-08 -0.000121062)
(1.39049e-08 -3.62842e-08 -0.000120816)
(2.70311e-08 -2.63387e-08 -0.000121034)
(2.81125e-08 2.94989e-08 -0.000129054)
(5.09559e-08 2.55189e-08 -0.000128909)
(-1.60346e-08 -2.70458e-08 -0.000128491)
(-2.60533e-08 -2.08386e-08 -0.000128737)
(4.40326e-08 2.4454e-08 -0.000128475)
(2.27168e-08 2.85396e-08 -0.000128633)
(2.57205e-08 2.66109e-08 -0.000121346)
(5.45024e-08 1.60905e-08 -0.000121256)
(-2.79716e-08 2.7367e-08 -0.00012135)
(-5.82432e-08 1.75777e-08 -0.000121258)
(5.30249e-08 1.82394e-08 -0.000120824)
(2.17865e-08 2.64359e-08 -0.000120929)
(-5.52981e-08 1.93943e-08 -0.000120827)
(-2.40254e-08 2.82258e-08 -0.000120932)
(2.72893e-08 -2.6602e-08 -0.000129123)
(1.46985e-08 -2.8924e-08 -0.000128884)
(-2.65642e-08 2.89297e-08 -0.000129047)
(-5.11803e-08 2.55088e-08 -0.000128899)
(1.42613e-08 -2.28512e-08 -0.000128455)
(2.63415e-08 -2.13554e-08 -0.000128705)
(-4.4256e-08 2.43246e-08 -0.000128462)
(-1.92622e-08 2.69068e-08 -0.000128624)
(1.50259e-08 -2.64019e-08 -0.000128191)
(3.76414e-08 -2.05225e-08 -0.00012806)
(-2.80535e-08 2.07253e-08 -0.000128284)
(-1.52898e-08 2.53831e-08 -0.000128074)
(3.27039e-08 -1.61198e-08 -0.000127674)
(9.59693e-09 -2.38996e-08 -0.000127751)
(-1.12786e-08 2.13206e-08 -0.000127693)
(-2.41716e-08 1.32089e-08 -0.000127841)
(-2.34745e-08 -2.93473e-08 -0.000120459)
(-4.89924e-08 -1.68643e-08 -0.000120379)
(4.33536e-08 -1.32622e-08 -0.00012003)
(1.9207e-08 -2.76697e-08 -0.000120061)
(-4.95151e-08 -1.52956e-08 -0.000119997)
(-1.76875e-08 -2.7485e-08 -0.000120034)
(2.84004e-08 2.16176e-08 -0.000128295)
(1.81038e-08 2.92942e-08 -0.000128077)
(-3.71703e-08 -1.94951e-08 -0.00012761)
(-1.17606e-08 -2.48609e-08 -0.000127701)
(1.05389e-08 2.02143e-08 -0.00012769)
(2.40842e-08 1.33212e-08 -0.000127859)
(-2.78441e-08 -2.37881e-08 -0.000120623)
(-1.31475e-08 -3.62944e-08 -0.000120447)
(-1.11279e-08 3.43297e-08 -0.000120061)
(-2.86894e-08 2.50164e-08 -0.000120179)
(-1.07682e-08 -3.44216e-08 -0.000120075)
(-2.76082e-08 -2.21439e-08 -0.000120197)
(2.8804e-08 2.63548e-08 -0.000120623)
(1.57758e-08 4.15766e-08 -0.000120439)
(2.79858e-08 -2.2978e-08 -0.000120598)
(1.23916e-08 -3.3497e-08 -0.000120414)
(1.09667e-08 3.388e-08 -0.000120062)
(2.78752e-08 2.44434e-08 -0.000120197)
(1.05642e-08 -3.2903e-08 -0.000120041)