/*--------------------------------*- C++ -*----------------------------------*\
| =========                 |                                                 |
| \\      /  F ield         | OpenFOAM: The Open Source CFD Toolbox           |
|  \\    /   O peration     | Version:  2206                                  |
|   \\  /    A nd           | Website:  www.openfoam.com                      |
|    \\/     M anipulation  |                                                 |
\*---------------------------------------------------------------------------*/
FoamFile
{
    version     2.0;
    format      ascii;
    arch        "LSB;label=32;scalar=64";
    class       volScalarField;
    location    "0.2";
    object      omega;
}
// * * * * * * * * * * * * * * * * * * * * * * * * * * * * * * * * * * * * * //

dimensions      [0 0 -1 0 0 0 0];

internalField   nonuniform List<scalar> 
66928
(
20.828
20.4185
20.4424
20.4452
20.832
20.4218
20.8192
20.8154
20.2945
20.2946
372.058
372.372
102.762
104.329
223.755
51.1611
224.465
58.9928
52.5413
20.3265
25.9046
224.382
58.9812
20.3273
52.571
25.9035
372.436
104.293
102.131
370.94
50.8424
222.288
372.072
372.635
372.897
374.552
102.524
104.086
20.8214
102.94
104.919
372.836
372.628
375.073
374.502
20.8126
103.337
105.392
102.75
104.679
371.484
64.9312
33.643
102.515
232.545
231.922
33.539
65.1549
65.3851
34.0744
104.01
234.891
234.306
33.9569
65.6224
160.15
382.374
383.312
382.119
383.031
160.568
223.291
113.874
113.96
398.752
115.013
400.874
69.2979
243.242
273.284
115.007
400.818
243.237
69.3175
273.344
65.5262
34.0812
103.964
234.948
33.962
234.345
65.7556
65.0264
33.6152
101.836
232.465
231.87
33.5217
65.2273
160.42
383.285
382.344
382.993
382.061
160.781
370.537
221.751
111.505
111.168
397.402
372.324
372.641
373.525
374.347
161.353
383.547
384.526
383.552
384.505
161.538
65.4715
33.5395
232.448
102.688
65.1622
232.927
33.6409
65.9183
33.9254
234.754
104.453
65.6089
235.254
34.0456
161.332
382.672
383.605
160.832
383.121
384.085
65.2347
233.76
102.738
33.6791
233.52
65.4858
33.5781
65.6501
236.121
104.637
34.067
235.854
65.9296
33.9348
372.784
372.637
374.973
374.766
161.885
383.54
384.548
161.541
383.688
384.657
65.5862
33.7492
103.019
234.723
234.499
33.6254
65.8236
65.951
34.116
104.999
237
236.686
33.9601
66.216
65.7285
233.601
33.5736
102.938
65.4656
234.08
33.6873
66.1368
235.915
33.9239
105.014
65.8382
236.293
34.0656
161.608
383.916
384.892
383.869
384.838
161.985
30.6388
20.8197
23.0209
23.1024
22.9953
23.0717
30.7209
30.7294
20.8238
23.1127
23.0291
23.0833
23.0031
30.802
30.7648
22.9864
23.0584
20.8242
30.6589
23.0146
23.0912
30.7139
20.81
23.026
23.0925
22.9924
23.0525
30.831
20.287
20.2879
22.0998
25.07
51.0029
33.1001
25.0436
33.0265
22.0871
22.2714
25.4059
52.3118
34.0381
25.3567
33.9141
22.2834
21.3238
25.8314
27.6231
21.0551
27.5375
21.0427
21.335
22.2743
25.4166
52.3377
34.0468
33.9247
25.3671
22.2871
21.3249
25.8312
21.0554
27.6282
21.0431
27.5436
21.3362
22.0202
25.0286
50.6737
32.827
25.0033
32.7622
22.0188
30.6671
20.8153
23.0194
23.0906
30.7728
22.9882
23.0554
30.8163
20.8187
22.9875
23.0496
30.7243
23.0204
23.0877
20.2943
20.4336
20.4205
20.8259
20.2724
20.4129
20.3977
20.8087
20.2596
20.4112
20.3889
20.8067
20.2602
20.4114
20.3893
20.8069
20.2601
20.4112
20.3893
20.8067
20.2599
20.4114
20.3892
20.8068
20.2601
20.4111
20.3892
20.8066
20.26
20.4115
20.3893
20.8069
20.2601
20.411
20.3892
20.8067
20.26
20.4115
20.3892
20.8068
20.26
20.411
20.3893
20.8066
20.2601
20.4116
20.3892
20.8068
20.2601
20.4111
20.3893
20.8067
20.26
20.4114
20.3892
20.8068
20.26
20.4111
20.3893
20.8067
20.2601
20.4114
20.3893
20.8068
20.26
20.4112
20.3893
20.8066
20.4182
20.4222
20.4103
20.4049
20.8218
20.8222
20.4408
20.4436
20.4257
20.4285
20.4434
20.416
20.4251
20.8232
20.8153
20.4186
20.4072
20.408
20.8175
20.8055
20.8153
20.4024
20.3977
20.3915
20.3906
20.8135
20.8176
20.4176
20.4202
20.4096
20.4119
20.4188
20.4114
20.4131
20.8052
20.8155
20.3996
20.3889
20.3875
20.8131
20.8071
20.816
20.3927
20.3918
20.3919
20.3916
20.8085
20.8202
20.411
20.4134
20.41
20.4122
20.4146
20.4114
20.4132
20.8073
20.8158
20.3888
20.3894
20.3877
20.8133
20.8074
20.816
20.3931
20.3928
20.3921
20.3911
20.8127
20.8178
20.4116
20.4135
20.4101
20.4123
20.4147
20.4114
20.4132
20.8072
20.8157
20.389
20.3894
20.3878
20.8133
20.8074
20.8159
20.3932
20.3921
20.3919
20.3916
20.8086
20.8201
20.4116
20.4137
20.41
20.4122
20.4146
20.4113
20.4132
20.8071
20.8156
20.389
20.3892
20.3878
20.8133
20.8073
20.816
20.3931
20.3927
20.392
20.3911
20.8127
20.8177
20.4115
20.4136
20.41
20.4122
20.4147
20.4113
20.4132
20.807
20.8156
20.389
20.3892
20.3877
20.8132
20.8074
20.8159
20.3932
20.3921
20.392
20.3917
20.8085
20.8202
20.4115
20.4136
20.4101
20.4123
20.4146
20.4115
20.4133
20.807
20.8157
20.389
20.3894
20.3878
20.8133
20.8073
20.816
20.3931
20.3928
20.392
20.3911
20.8127
20.8177
20.4116
20.4136
20.4101
20.4123
20.4147
20.4112
20.4132
20.8071
20.8157
20.3891
20.3893
20.3879
20.8133
20.8074
20.8159
20.3932
20.3921
20.392
20.3916
20.8085
20.8202
20.4115
20.4136
20.41
20.4123
20.4146
20.4115
20.4132
20.8071
20.8157
20.3891
20.3892
20.3877
20.8133
20.8073
20.816
20.3931
20.3928
20.3921
20.3911
20.8128
20.8178
20.4115
20.4136
20.4101
20.4122
20.4146
20.4113
20.4132
20.807
20.8156
20.389
20.3893
20.3878
20.8132
20.8074
20.8159
20.3934
20.3921
20.3921
20.3917
20.8086
20.8202
20.4115
20.4136
20.41
20.4122
20.4146
20.4115
20.4133
20.807
20.8156
20.389
20.3892
20.3878
20.8133
20.8073
20.8159
20.3933
20.3928
20.392
20.3911
20.8127
20.8181
20.4115
20.4136
20.41
20.4123
20.4147
20.4114
20.4132
20.807
20.8156
20.389
20.3893
20.3878
20.8133
20.8073
20.8158
20.3932
20.3922
20.3919
20.3917
20.8089
20.8202
20.4115
20.4136
20.41
20.4122
20.4146
20.4114
20.4132
20.807
20.8156
20.3891
20.3893
20.3877
20.8132
20.8072
20.8159
20.3931
20.3928
20.392
20.391
20.8127
20.8176
20.4115
20.4135
20.41
20.4122
20.4147
20.4113
20.4132
20.807
20.8156
20.389
20.3893
20.3878
20.8133
20.8072
20.8159
20.3932
20.392
20.392
20.3917
20.8084
20.8203
20.4115
20.4136
20.4101
20.4123
20.4146
20.4114
20.4132
20.807
20.8157
20.3891
20.3893
20.3877
20.8132
20.8073
20.8159
20.3931
20.3929
20.392
20.3911
20.8128
20.8178
20.4116
20.4136
20.4101
20.4123
20.4147
20.4113
20.4132
20.8071
20.8156
20.389
20.3893
20.3878
20.8132
20.8072
20.3932
20.3921
20.8085
20.4115
20.4135
20.4146
20.414
20.807
20.3891
20.3887
20.8115
57.3259
223.652
57.4666
224.146
372.644
372.653
59.4927
224.799
58.9151
226.571
20.2951
20.2943
20.2945
20.285
20.2861
20.2842
20.2864
25.8844
52.4855
20.3204
20.4304
52.9028
20.3174
25.786
372.974
374.542
25.1823
20.3148
50.7105
20.4179
20.3152
51.0103
25.1481
104.624
102.286
20.8257
105.105
102.721
57.3993
224.592
57.3789
224.44
373.076
372.928
59.9993
227.509
59.482
227.53
20.2755
20.2741
20.2757
20.2597
20.2601
20.26
20.26
25.9974
53.1514
20.2945
20.4132
25.8966
53.2836
20.295
375.158
375.113
25.3046
20.2962
51.3185
20.3932
25.2273
20.2898
51.464
105.701
103.615
20.8129
105.718
103.726
57.4224
224.737
57.4612
224.555
373.056
372.897
60.1717
227.662
59.9191
227.571
20.2619
20.2619
20.2618
20.2607
20.2605
20.2605
20.2604
25.9966
53.23
20.2922
20.4121
25.9164
53.2874
20.294
375.314
375.171
25.3216
20.2824
51.583
20.3903
25.3159
20.2845
51.5889
105.873
103.851
20.8128
105.828
103.736
57.4207
224.751
57.4501
224.557
373.095
372.939
60.1651
227.77
59.9219
227.594
20.2623
20.2623
20.2622
20.2603
20.2604
20.2605
20.2604
25.996
53.2351
20.2923
20.4131
25.9163
53.3032
20.2942
375.319
375.147
25.3185
20.2829
51.5917
20.3904
25.3154
20.2845
51.5809
105.897
103.84
20.813
105.839
103.74
57.4144
224.75
57.4513
224.541
373.097
372.912
60.1652
227.763
59.9214
227.594
20.2622
20.2622
20.2621
20.2601
20.2604
20.2605
20.2603
25.9957
53.2309
20.2923
20.4121
25.9157
53.2895
20.2942
375.317
375.173
25.3216
20.2826
51.5879
20.3904
25.3177
20.2843
51.5826
105.89
103.832
20.8127
105.832
103.726
57.3662
224.749
57.3952
224.556
373.09
372.934
60.1643
227.79
59.9206
227.603
20.2622
20.2622
20.2621
20.2604
20.2604
20.2604
20.2604
25.9958
53.2355
20.2922
20.413
25.9157
53.303
20.2941
375.32
375.148
25.3169
20.2827
51.5891
20.3903
25.313
20.2844
51.5799
105.9
103.829
20.8128
105.837
103.721
57.4179
224.741
57.4481
224.53
373.091
372.911
60.1651
227.764
59.9212
227.594
20.2622
20.2622
20.2621
20.2602
20.2605
20.2605
20.2604
25.9957
53.231
20.2922
20.4121
25.9156
53.2897
20.2941
375.318
375.174
25.3178
20.2827
51.5874
20.3903
25.3128
20.2844
51.5776
105.891
103.818
20.8127
105.833
103.714
57.4245
224.75
57.4641
224.554
373.093
372.938
60.1642
227.771
59.9206
227.595
20.2622
20.2622
20.2622
20.2603
20.2604
20.2605
20.2604
25.9957
53.2356
20.2923
20.4132
25.9157
53.3029
20.2942
375.32
375.146
25.3235
20.2827
51.5869
20.3905
25.3157
20.2844
51.5815
105.9
103.838
20.813
105.84
103.725
57.4153
224.75
57.4516
224.541
373.096
372.912
60.1654
227.763
59.9216
227.594
20.2622
20.2622
20.2622
20.2602
20.2605
20.2605
20.2604
25.9957
53.2312
20.2922
20.412
25.9157
53.2898
20.2941
375.318
375.174
25.325
20.2826
51.5816
20.3904
25.3196
20.2844
51.5828
105.891
103.83
20.8128
105.832
103.728
57.3684
224.749
57.3985
224.567
373.09
372.933
60.1646
227.772
59.9208
227.594
20.2622
20.2622
20.2622
20.2602
20.2604
20.2605
20.2604
25.9958
53.2353
20.2923
20.4132
25.9157
53.3041
20.2942
375.32
375.164
25.3246
20.2826
51.5875
20.3903
25.3189
20.2844
51.5794
105.9
103.831
20.8129
105.84
103.717
57.4164
224.738
57.446
224.511
373.127
372.929
60.1652
227.803
59.9214
227.616
20.2622
20.2622
20.2622
20.2602
20.2605
20.2605
20.2604
25.9957
53.2309
20.2922
20.412
25.9157
53.2897
20.294
375.315
375.148
25.3216
20.2827
51.5871
20.3904
25.3192
20.2844
51.5778
105.89
103.797
20.8126
105.832
103.706
57.4161
224.739
57.4489
224.538
373.106
372.96
60.1644
227.704
59.9208
227.572
20.2622
20.2622
20.2622
20.2604
20.2604
20.2605
20.2604
25.9958
53.2354
20.2922
20.4132
25.9157
53.3031
20.2941
375.311
375.15
25.3169
20.2826
51.5872
20.3903
25.3123
20.2844
51.5767
105.9
103.833
20.813
105.838
103.716
57.3879
224.748
57.4345
224.533
373.121
372.949
60.1652
227.767
59.9213
227.595
20.2622
20.2622
20.2622
20.2602
20.2604
20.2605
20.2604
25.9958
53.2316
20.2922
20.412
25.9157
53.2901
20.2941
375.319
375.173
25.3182
20.2827
51.5739
20.3904
25.3134
20.2844
51.5789
105.891
103.798
20.8126
105.832
103.703
57.4185
224.776
57.4448
224.568
373.115
372.968
60.1646
227.772
59.921
227.596
20.2622
20.2622
20.2622
20.2602
20.2604
20.2605
20.2604
25.9959
53.2355
20.2922
20.4132
25.9158
53.3031
20.2941
375.32
375.146
25.3222
20.2826
51.5883
20.3903
25.3162
20.2843
51.582
105.899
103.832
20.8129
105.838
103.717
57.4352
224.738
57.4592
224.533
373.112
372.932
60.1653
227.764
59.9213
227.595
20.2622
20.2622
20.2622
20.2603
20.2605
20.2605
20.2604
25.9957
53.2308
20.2923
20.4121
25.9156
53.2894
20.2942
375.318
375.175
25.3217
20.2828
51.5895
20.3904
25.3149
20.2845
51.5787
105.895
103.797
20.8126
105.834
103.705
57.3745
224.746
57.4116
224.548
373.123
372.965
60.1645
227.768
59.9208
227.595
20.2622
20.2622
20.2622
20.2602
20.2604
20.2605
20.2604
25.9958
53.2356
20.2922
20.4131
25.9157
53.3031
20.2941
375.319
375.149
25.3239
20.2826
51.5874
20.3904
25.3183
20.2843
51.5795
105.902
103.831
20.8129
105.841
103.716
57.4271
224.739
57.4486
224.532
373.115
372.928
60.1658
227.764
59.9212
227.594
20.2622
20.2622
20.2622
20.2616
25.9958
53.2309
20.2923
20.4121
25.9157
53.2875
20.2942
375.317
375.173
25.3234
20.2826
51.5774
20.3904
25.3189
20.2844
51.5922
105.893
103.797
20.8128
105.833
103.704
57.3057
224.062
224.017
57.4456
25.303
51.0295
20.317
20.4172
20.3158
25.3261
51.2754
25.3019
51.4234
20.3176
20.4203
51.3291
20.3161
25.3289
57.1791
224.514
57.392
224.01
57.1568
224.537
223.859
57.3406
25.2543
20.4152
51.3839
20.3009
20.3118
25.3032
51.1285
25.254
20.4155
51.441
20.3001
51.1836
20.3117
25.304
103.426
104.632
20.8252
103.298
105.402
374.676
374.895
372.983
372.592
20.816
103.639
105.995
103.041
105.137
375.143
374.815
25.866
52.3185
20.3259
20.4371
20.3243
25.8054
52.7055
59.4806
224.71
226.544
58.9088
25.8653
20.3267
52.3409
20.4398
20.3249
52.7169
25.8042
59.2218
227.382
59.6041
226.361
25.7624
20.4337
52.8462
20.3144
20.3213
25.8464
52.473
59.2148
227.274
226.324
59.6106
25.763
20.4363
20.3149
52.857
20.3219
52.4771
25.8482
59.722
226.531
227.241
59.2342
25.8743
20.3259
52.6377
20.4406
20.3237
52.8911
25.7895
59.6356
226.491
227.041
59.2087
25.8012
20.4219
53.2077
20.2993
52.684
20.3084
25.9686
59.4853
227.562
227.034
60.0088
25.7868
20.4346
20.3068
53.1214
20.3181
52.6644
25.9492
59.4031
227.568
226.819
59.9486
104.054
101.92
20.8238
104.916
102.519
371.423
372.361
375.068
374.537
20.8143
105.382
103.261
104.68
102.33
372.867
372.338
25.1907
20.3147
50.8506
20.4171
20.3147
50.956
25.1445
56.8122
222.207
223.337
56.4602
56.8057
222.719
223.567
56.4826
25.143
20.4134
20.3085
51.2255
20.3132
50.864
25.2318
25.1527
20.414
20.3078
51.205
20.313
50.8293
25.2272
56.6837
224.31
223.341
57.0801
56.684
224.421
223.507
57.0735
374.531
374.807
371.621
372.383
20.8158
105.725
103.457
104.869
102.525
375.08
374.809
372.885
372.368
372.833
372.908
375.089
375.2
103.164
105.176
20.8124
103.68
105.92
372.982
372.88
375.34
375.176
20.8052
103.805
106.111
103.5
105.676
57.4462
224.48
57.2073
224.597
25.3185
51.2891
20.2921
20.3974
25.2685
51.5866
20.288
25.3236
51.3343
20.2917
20.3947
25.2704
51.6201
20.2879
57.2658
224.725
224.263
57.5003
57.316
224.646
224.55
57.508
25.2828
20.3922
51.6016
20.2832
51.4427
20.2833
25.3336
25.2895
20.3909
51.6181
20.2832
51.469
20.2834
25.3418
103.451
105.734
20.8207
103.824
106.078
375.144
375.212
372.981
372.908
20.8118
103.907
106.054
103.644
105.803
375.302
375.188
25.9325
52.6464
20.3044
20.4136
25.7622
53.1574
20.2987
59.9432
227.06
59.3698
227.614
25.9299
20.305
52.6524
20.416
25.7664
20.2992
53.1805
59.7449
227.652
227.33
60.1501
25.8589
20.4097
53.3133
20.2921
52.9528
20.2927
25.998
59.6997
227.85
227.421
60.1294
25.857
20.412
20.2927
53.3602
20.2932
52.9714
26.001
60.1331
227.381
59.7535
227.784
25.993
20.2998
52.8943
20.4161
25.8679
20.2968
53.3059
60.1211
227.374
59.7046
227.742
25.8988
20.4125
53.3787
20.2922
53.04
20.2941
26.0028
59.8538
227.817
227.61
60.1351
25.8982
20.4131
20.2929
53.342
20.293
53.0621
25.9973
59.849
227.767
227.547
60.1385
105.157
103.114
20.8126
105.909
103.711
372.874
372.979
375.249
375.086
20.8051
106.092
103.814
105.672
103.517
372.99
372.949
25.2999
20.2977
51.0733
20.3941
25.1964
20.2908
51.5074
57.3974
224.405
56.9759
224.812
57.4053
224.245
56.9743
224.599
25.2685
20.3898
20.2825
51.6487
20.2848
51.3263
25.3384
25.2674
20.3883
20.2826
51.5492
20.2837
51.3667
25.333
57.2659
224.668
224.554
57.471
57.2812
224.793
224.529
57.4907
375.046
375.229
372.902
373.027
20.804
105.988
103.915
105.461
103.522
375.157
375.141
373.012
372.99
372.95
372.987
375.229
375.247
103.621
105.855
20.8149
103.881
106.203
373.024
372.974
375.299
375.233
20.8072
103.867
106.176
103.691
105.93
57.5143
224.641
57.3713
224.675
25.3247
51.4517
20.285
20.3927
25.2938
51.6475
20.285
25.3388
51.4769
20.2851
20.3918
25.304
51.6604
20.285
57.2864
224.702
224.512
57.5012
57.3772
224.843
224.581
57.5263
25.285
20.3919
51.6331
20.2838
51.4992
20.2843
25.3323
25.3002
20.3917
51.6387
20.2837
51.5058
20.284
25.3441
103.733
105.758
20.8156
103.915
106.077
375.191
375.199
373.007
372.902
20.8083
103.811
106.157
103.689
105.727
375.318
375.209
25.9966
53.0653
20.2939
20.411
25.9052
53.3272
20.2938
60.1548
227.645
59.8565
227.886
26.002
20.2946
53.1187
20.4134
25.9125
20.2946
53.3987
59.8829
227.902
227.351
60.1658
25.902
20.41
53.3452
20.2925
53.0832
20.2927
25.9997
59.8703
227.813
227.678
60.143
25.905
20.4122
20.2932
53.372
20.2934
53.1416
26.0029
60.1479
227.68
59.8517
227.773
25.9946
20.2948
53.0791
20.4145
25.9008
20.2947
53.3439
60.1463
227.643
59.8578
227.752
25.8988
20.4116
53.3726
20.2923
53.0311
20.2935
26.0048
59.8621
227.799
227.587
60.1346
25.898
20.4133
20.2933
53.3459
20.2933
53.0894
25.9996
59.8634
227.759
227.573
60.1396
105.829
103.611
20.8151
106.15
103.818
372.961
373.001
375.267
375.19
20.807
106.139
103.822
105.887
103.618
373.004
372.97
25.3307
20.2843
51.4517
20.3888
25.2915
20.2842
51.568
57.5022
224.604
57.3357
224.81
57.5064
224.644
57.3634
224.773
25.2929
20.3898
20.2832
51.6733
20.2842
51.4334
25.3376
25.2963
20.3878
20.283
51.5525
20.2832
51.4121
25.3319
57.3929
224.792
224.571
57.474
57.4039
224.726
224.662
57.4839
375.145
375.285
372.983
373.053
20.804
106.027
103.899
105.562
103.535
375.162
375.171
373.005
372.995
372.979
373.011
375.269
375.34
103.674
105.909
20.815
103.898
106.214
373.029
372.973
375.293
375.232
20.8072
103.87
106.176
103.705
105.938
57.5145
224.703
57.3868
224.697
25.3257
51.474
20.2855
20.3931
25.2936
51.6571
20.2854
25.3389
51.4817
20.2854
20.3927
25.3055
51.6657
20.2853
57.2842
224.71
224.533
57.502
57.3773
224.845
224.599
57.5276
25.2858
20.3921
51.6397
20.2837
51.5077
20.2842
25.3329
25.3001
20.3915
51.6478
20.2836
51.5059
20.284
25.3445
103.624
105.837
20.8202
103.885
106.052
375.194
375.201
373.023
372.92
20.8115
103.929
106.058
103.704
105.782
375.206
375.192
25.9919
53.0879
20.2941
20.4113
25.9015
53.3293
20.2941
60.15
227.644
59.8601
227.778
25.9976
20.2948
53.1065
20.4134
25.9089
20.2947
53.3707
59.8787
227.871
227.382
60.1656
25.8996
20.4101
53.3411
20.2926
53.083
20.293
26.0002
59.8673
227.898
227.592
60.142
25.903
20.4123
20.2932
53.3749
20.2935
53.1196
26.0034
60.1479
227.681
59.8514
227.782
25.9934
20.2949
53.0798
20.4145
25.9023
20.2948
53.3499
60.146
227.549
59.8585
227.863
25.8988
20.4124
53.377
20.2924
53.0516
20.2937
26.0041
59.8622
227.791
227.595
60.1336
25.897
20.4132
20.2932
53.352
20.2934
53.0955
25.9992
59.8629
227.855
227.651
60.1386
105.861
103.638
20.8147
106.137
103.753
372.968
372.985
375.253
375.135
20.8067
106.127
103.799
105.874
103.555
372.998
372.956
25.3291
20.2847
51.4588
20.389
25.2896
20.2846
51.5637
57.4764
224.689
57.3397
224.723
57.4974
224.688
57.3515
224.69
25.2801
20.3899
20.2826
51.6694
20.284
51.4254
25.3414
25.2906
20.3879
20.2829
51.5613
20.2832
51.4071
25.337
57.3352
224.815
224.541
57.4835
57.3669
224.833
224.59
57.5234
375.136
375.299
372.99
373.023
20.8042
106.024
103.915
105.573
103.538
375.179
375.185
373.018
373.001
372.995
373.008
375.267
375.341
103.677
105.909
20.8149
103.889
106.208
373.025
372.978
375.298
375.234
20.8071
103.857
106.176
103.693
105.933
57.5078
224.712
57.388
224.697
25.3272
51.4795
20.2854
20.3931
25.2941
51.654
20.2853
25.3395
51.4949
20.2853
20.3921
25.3059
51.6646
20.2852
57.3174
224.702
224.517
57.4566
57.3982
224.673
224.625
57.4812
25.2865
20.392
51.6315
20.2837
51.5029
20.2841
25.328
25.2997
20.3919
51.6192
20.2836
51.5049
20.284
25.3394
103.752
105.766
20.8156
103.922
106.092
375.181
375.305
372.998
372.923
20.8083
103.811
106.16
103.693
105.742
375.295
375.217
25.9916
53.0851
20.2942
20.4113
25.9015
53.329
20.2941
60.1487
227.677
59.8586
227.877
25.9965
20.2948
53.1185
20.4135
25.9086
20.2947
53.3884
59.8789
227.915
227.384
60.1652
25.8995
20.41
53.3438
20.2926
53.0824
20.293
26
59.8666
227.813
227.669
60.142
25.9024
20.4123
20.2932
53.3705
20.2935
53.1342
26.0033
60.1475
227.688
59.8505
227.784
25.993
20.2947
53.0858
20.4144
25.9019
20.2947
53.3521
60.1456
227.638
59.8577
227.868
25.8985
20.4116
53.3739
20.2923
53.0335
20.2936
26.0041
59.8619
227.802
227.598
60.1338
25.8967
20.4132
20.2932
53.3492
20.2934
53.097
25.9991
59.8626
227.791
227.654
60.1385
105.851
103.596
20.8148
106.139
103.801
372.971
372.993
375.267
375.186
20.8067
106.135
103.816
105.878
103.601
373.008
372.959
25.3327
20.2846
51.4596
20.389
25.2945
20.2845
51.565
57.5003
224.701
57.3477
224.722
57.5154
224.687
57.3897
224.748
25.2909
20.3899
20.2828
51.6707
20.2839
51.427
25.3345
25.2928
20.3879
20.2829
51.5545
20.2832
51.4103
25.3336
57.3798
224.816
224.542
57.4557
57.3797
224.747
224.696
57.5015
375.164
375.199
372.993
373.025
20.8039
106.031
103.887
105.567
103.525
375.18
375.164
373.006
372.998
372.993
373.013
375.27
375.337
103.666
105.91
20.815
103.895
106.216
373.029
372.972
375.289
375.221
20.8072
103.87
106.177
103.701
105.94
57.4843
224.656
57.3454
224.662
25.3162
51.4719
20.2853
20.3931
25.2875
51.6561
20.2852
25.3334
51.4666
20.2853
20.3927
25.3002
51.6642
20.2852
57.2314
224.701
224.535
57.4717
57.3473
224.674
224.655
57.4984
25.2778
20.3921
51.6395
20.2837
51.5078
20.2841
25.3316
25.2948
20.3915
51.6275
20.2836
51.5033
20.2839
25.3388
103.624
105.837
20.8202
103.886
106.046
375.196
375.204
373.012
372.933
20.8114
103.927
106.058
103.702
105.777
375.206
375.197
25.9912
53.0888
20.2942
20.4112
25.9012
53.3308
20.2941
60.1486
227.646
59.8586
227.779
25.9964
20.2948
53.1058
20.4134
25.9084
20.2947
53.3699
59.8782
227.876
227.393
60.1654
25.8991
20.41
53.341
20.2926
53.0842
20.2929
26
59.8665
227.899
227.592
60.1419
25.9023
20.4122
20.2932
53.3746
20.2935
53.1189
26.0033
60.1478
227.683
59.8507
227.784
25.993
20.2948
53.0817
20.4144
25.9018
20.2947
53.3499
60.1457
227.571
59.8577
227.861
25.8986
20.4124
53.377
20.2922
53.0514
20.2936
26.004
59.8622
227.791
227.595
60.1337
25.8967
20.4132
20.2932
53.3518
20.2935
53.0955
25.9991
59.8627
227.856
227.652
60.1386
105.859
103.632
20.8147
106.131
103.749
372.972
372.985
375.254
375.136
20.8067
106.126
103.794
105.868
103.551
373
372.954
25.3311
20.2846
51.4573
20.389
25.2913
20.2845
51.572
57.4706
224.702
57.3203
224.724
57.5079
224.647
57.3686
224.827
25.2879
20.3899
20.2827
51.6687
20.284
51.4247
25.3335
25.2916
20.3879
20.2829
51.5486
20.2832
51.4137
25.3336
57.3606
224.816
224.544
57.4463
57.3735
224.715
224.671
57.5016
375.161
375.195
372.974
373.035
20.804
106.025
103.884
105.573
103.521
375.188
375.178
373.004
372.991
372.994
373.006
375.263
375.337
103.677
105.909
20.8149
103.889
106.212
373.025
372.979
375.292
375.229
20.8071
103.854
106.174
103.693
105.937
57.5095
224.66
57.3624
224.684
25.3262
51.4793
20.2854
20.3931
25.2934
51.6535
20.2853
25.3383
51.4819
20.2853
20.3921
25.3012
51.6617
20.2852
57.2832
224.703
224.511
57.5034
57.3741
224.841
224.586
57.5282
25.2872
20.3921
51.6317
20.2837
51.503
20.2841
25.3351
25.3004
20.3919
51.6388
20.2836
51.5054
20.284
25.3444
103.75
105.766
20.8155
103.923
106.092
375.181
375.305
373.006
372.915
20.8082
103.813
106.161
103.694
105.742
375.295
375.218
25.9914
53.0849
20.2942
20.4112
25.9013
53.329
20.2941
60.1485
227.678
59.8585
227.876
25.9964
20.2948
53.1184
20.4134
25.9084
20.2947
53.3884
59.8788
227.912
227.384
60.1652
25.8993
20.41
53.3431
20.2925
53.0823
20.2929
25.9999
59.8664
227.814
227.669
60.1417
25.9023
20.4123
20.2932
53.3708
20.2935
53.1342
26.0033
60.1474
227.689
59.8505
227.784
25.993
20.2948
53.0857
20.4144
25.9018
20.2947
53.3528
60.1456
227.639
59.8577
227.881
25.8985
20.4115
53.374
20.2923
53.0337
20.2936
26.0041
59.8619
227.802
227.598
60.1338
25.8967
20.4133
20.2932
53.3535
20.2934
53.0978
25.9991
59.8627
227.856
227.666
60.1386
105.85
103.615
20.8147
106.139
103.739
372.964
372.983
375.268
375.186
20.8067
106.136
103.793
105.878
103.54
372.998
372.955
25.3309
20.2846
51.4532
20.389
25.2913
20.2844
51.5662
57.4756
224.707
57.3128
224.696
57.5069
224.615
57.369
224.825
25.2815
20.3899
20.2828
51.6689
20.284
51.4228
25.3386
25.2918
20.3879
20.2829
51.5706
20.2832
51.4111
25.3331
57.3359
224.817
224.582
57.4815
57.3729
224.716
224.691
57.5072
375.167
375.197
372.949
373.06
20.8039
106.031
103.872
105.568
103.511
375.182
375.18
373
373.005
372.993
373.01
375.265
375.337
103.663
105.908
20.815
103.895
106.208
373.029
372.981
375.29
375.23
20.8072
103.87
106.176
103.7
105.934
57.5087
224.703
57.3877
224.697
25.3259
51.4721
20.2854
20.3931
25.2951
51.656
20.2853
25.3386
51.4816
20.2853
20.3927
25.3056
51.6657
20.2852
57.2877
224.711
224.532
57.4913
57.3694
224.845
224.6
57.505
25.2858
20.3921
51.6394
20.2837
51.507
20.2841
25.3324
25.299
20.3915
51.6478
20.2836
51.506
20.284
25.34
103.625
105.837
20.8203
103.886
106.043
375.198
375.204
373.023
372.918
20.8115
103.929
106.06
103.705
105.775
375.206
375.197
25.9911
53.0881
20.2941
20.4113
25.9011
53.3292
20.294
60.1476
227.646
59.8581
227.781
25.9962
20.2948
53.1061
20.4134
25.9084
20.2947
53.3701
59.878
227.871
227.383
60.1657
25.8991
20.41
53.3409
20.2925
53.0827
20.2929
25.9999
59.8655
227.899
227.594
60.1423
25.9021
20.4123
20.2932
53.3751
20.2934
53.1191
26.0033
60.1476
227.684
59.8507
227.784
25.993
20.2948
53.0875
20.4145
25.9019
20.2947
53.3534
60.1456
227.639
59.8578
227.886
25.8985
20.4125
53.3771
20.2922
53.0513
20.2936
26.004
59.862
227.791
227.595
60.1337
25.8967
20.4132
20.2932
53.3522
20.2934
53.098
25.9991
59.8627
227.854
227.667
60.1385
105.859
103.591
20.8148
106.137
103.796
372.974
372.994
375.254
375.17
20.8068
106.127
103.811
105.875
103.599
372.993
372.968
25.3323
20.2846
51.4162
20.3891
25.2911
20.2845
51.6119
57.5164
224.701
57.3455
224.72
57.5181
224.615
57.3743
224.68
25.2905
20.39
20.2827
51.6646
20.284
51.4272
25.343
25.2943
20.388
20.2829
51.5668
20.2832
51.4492
25.3373
57.3786
224.688
224.551
57.5233
57.387
224.706
224.648
57.5315
375.14
375.307
372.983
373.032
20.8041
106.024
103.908
105.573
103.522
375.178
375.18
373.005
372.991
372.996
373.007
375.264
375.337
103.677
105.909
20.8149
103.889
106.214
373.025
372.978
375.292
375.23
20.8071
103.855
106.177
103.693
105.939
57.5114
224.712
57.366
224.697
25.327
51.4793
20.2854
20.3931
25.2932
51.654
20.2853
25.3385
51.495
20.2853
20.3922
25.302
51.6646
20.2852
57.3167
224.702
224.517
57.458
57.3744
224.673
224.625
57.5232
25.2865
20.3921
51.6317
20.2837
51.5031
20.2841
25.3283
25.3003
20.3919
51.619
20.2836
51.5049
20.284
25.3438
103.752
105.769
20.8155
103.922
106.096
375.182
375.306
372.998
372.922
20.8083
103.811
106.158
103.693
105.746
375.305
375.218
25.9915
53.0851
20.2941
20.4112
25.9013
53.3293
20.2941
60.1496
227.678
59.8593
227.877
25.9967
20.2948
53.1187
20.4134
25.9086
20.2947
53.3885
59.879
227.91
227.384
60.1653
25.8994
20.41
53.3436
20.2926
53.0827
20.2929
26
59.8674
227.814
227.669
60.1427
25.9026
20.4123
20.2932
53.3709
20.2935
53.1344
26.0035
60.1475
227.688
59.8505
227.784
25.993
20.2948
53.0858
20.4144
25.9018
20.2947
53.3526
60.1457
227.638
59.8576
227.879
25.8985
20.4115
53.3736
20.2923
53.0337
20.2936
26.0041
59.8619
227.797
227.598
60.1339
25.8967
20.4132
20.2932
53.3538
20.2934
53.0977
25.9992
59.8628
227.858
227.665
60.139
105.851
103.629
20.8149
106.14
103.746
372.962
372.992
375.268
375.188
20.8068
106.137
103.793
105.878
103.549
373
372.959
25.3329
20.2846
51.4621
20.3891
25.2948
20.2845
51.5725
57.52
224.614
57.3852
224.795
57.517
224.612
57.3962
224.83
25.2896
20.3899
20.2827
51.6684
20.2839
51.426
25.3431
25.2935
20.3879
20.2829
51.5493
20.2832
51.414
25.334
57.3808
224.8
224.545
57.5199
57.3826
224.717
224.684
57.5114
375.164
375.196
373.002
373.062
20.804
106.032
103.883
105.568
103.527
375.183
375.18
373.007
373.002
372.993
373.009
375.265
375.338
103.664
105.91
20.8149
103.894
106.216
373.039
372.969
375.358
375.235
20.8072
103.842
106.19
103.701
105.945
57.5048
224.656
57.3835
224.685
25.3167
51.4721
20.2853
20.3931
25.2881
51.653
20.2852
25.3379
51.4667
20.2853
20.3927
25.305
51.661
20.2852
57.2345
224.722
224.438
57.4735
57.3666
224.686
224.602
57.5094
25.2785
20.3921
51.6469
20.2837
51.5037
20.2841
25.3324
25.2986
20.3915
51.6266
20.2836
51.5043
20.2839
25.3404
103.624
105.834
20.8203
103.889
106.059
375.171
375.303
373.075
372.931
20.8115
103.944
106.056
103.712
105.787
375.203
375.2
25.9913
53.0886
20.2942
20.4112
25.9012
53.3298
20.2941
60.1489
227.646
59.8593
227.746
25.9965
20.2948
53.1062
20.4134
25.9086
20.2947
53.3694
59.8783
227.873
227.388
60.1656
25.8992
20.41
53.3427
20.2926
53.0836
20.2929
26
59.8666
227.798
227.579
60.1419
25.9024
20.4122
20.2932
53.3679
20.2935
53.1195
26.0033
60.1478
227.692
59.8508
227.793
25.9931
20.2948
53.0877
20.4144
25.9019
20.2947
53.3535
60.1459
227.64
59.858
227.886
25.8986
20.4125
53.3773
20.2922
53.0521
20.2937
26.004
59.8621
227.791
227.601
60.1337
25.8967
20.4132
20.2932
53.3522
20.2934
53.0981
25.9991
59.8629
227.854
227.667
60.1389
105.859
103.614
20.8147
106.137
103.736
372.969
372.979
375.257
375.167
20.8067
106.134
103.794
105.876
103.539
373.002
372.959
25.3321
20.2846
51.4534
20.389
25.2918
20.2845
51.5711
57.519
224.694
57.3816
224.726
57.5112
224.613
57.3778
224.83
25.2908
20.3899
20.2828
51.6685
20.284
51.4244
25.3427
25.296
20.3879
20.2829
51.5458
20.2832
51.4133
25.3335
57.3808
224.817
224.545
57.5229
57.4097
224.714
224.685
57.4897
375.14
375.307
372.955
373.05
20.8041
106.024
103.88
105.573
103.515
375.178
375.18
373.002
373.001
372.956
373.068
375.27
375.259
103.716
105.92
20.8149
103.843
106.196
373.014
372.961
375.293
375.223
20.8072
103.86
106.172
103.653
105.923
57.5027
224.668
57.3701
224.696
25.3252
51.4824
20.2854
20.3932
25.2932
51.6463
20.2853
25.3385
51.4824
20.2853
20.3921
25.3023
51.666
20.2852
57.281
224.697
224.399
57.5014
57.3983
224.862
224.605
57.4811
25.2854
20.3921
51.6361
20.2837
51.4981
20.2841
25.3329
25.2995
20.3919
51.6392
20.2836
51.5111
20.284
25.3399
103.766
105.764
20.8156
103.936
106.091
375.15
375.305
373.016
372.936
20.8083
103.808
106.159
103.707
105.741
375.295
375.217
25.9914
53.0878
20.2942
20.4112
25.9013
53.3324
20.2941
60.1486
227.646
59.8585
227.744
25.9964
20.2948
53.1061
20.4134
25.9084
20.2947
53.3702
59.8789
227.807
227.412
60.1653
25.8994
20.41
53.3409
20.2926
53.0866
20.2929
26
59.8664
227.796
227.579
60.142
25.9023
20.4122
20.2932
53.3683
20.2935
53.1201
26.0034
60.1475
227.688
59.8506
227.784
25.993
20.2948
53.0858
20.4144
25.9019
20.2947
53.3523
60.1457
227.637
59.8579
227.878
25.8985
20.4115
53.3739
20.2922
53.0333
20.2936
26.0041
59.8619
227.802
227.598
60.1338
25.8967
20.4133
20.2932
53.3533
20.2934
53.0972
25.9991
59.8628
227.856
227.662
60.1389
105.857
103.614
20.8147
106.138
103.737
372.971
372.977
375.243
375.168
20.8067
106.13
103.794
105.874
103.539
373.001
372.959
25.3288
20.2846
51.4509
20.389
25.291
20.2844
51.5652
57.4981
224.708
57.3827
224.695
57.4894
224.612
57.3593
224.828
25.2905
20.3899
20.2827
51.6683
20.284
51.4235
25.334
25.2916
20.3879
20.2829
51.5502
20.2832
51.4097
25.3283
57.3766
224.815
224.582
57.4529
57.3816
224.712