/*--------------------------------*- C++ -*----------------------------------*\
| =========                 |                                                 |
| \\      /  F ield         | OpenFOAM: The Open Source CFD Toolbox           |
|  \\    /   O peration     | Version:  2206                                  |
|   \\  /    A nd           | Website:  www.openfoam.com                      |
|    \\/     M anipulation  |                                                 |
\*---------------------------------------------------------------------------*/
FoamFile
{
    version     2.0;
    format      ascii;
    arch        "LSB;label=32;scalar=64";
    class       volScalarField;
    location    "0.2";
    object      p;
}
// * * * * * * * * * * * * * * * * * * * * * * * * * * * * * * * * * * * * * //

dimensions      [0 2 -2 0 0 0 0];

internalField   nonuniform List<scalar> 
66928
(
-0.0083295
-0.00831275
-0.00831294
-0.00831286
-0.00832953
-0.00831299
-0.0083633
-0.00859841
-0.00831278
-0.00831275
-0.00832941
-0.00832961
-0.00832948
-0.00832963
-0.00832939
-0.00832903
-0.00832964
-0.00832971
-0.00832945
-0.00831312
-0.00832945
-0.00832968
-0.00832972
-0.00831312
-0.00832948
-0.00832946
-0.00832966
-0.00832969
-0.00832968
-0.00832964
-0.00832939
-0.00832965
-0.00836334
-0.00846416
-0.00836341
-0.00846399
-0.00836329
-0.00836334
-0.00846393
-0.00846414
-0.00846404
-0.00859861
-0.00849801
-0.00859837
-0.0084978
-0.0084978
-0.0085986
-0.00859843
-0.00849792
-0.00849776
-0.00829596
-0.00829607
-0.00832955
-0.00829599
-0.00832953
-0.00829608
-0.00829592
-0.0083295
-0.00829616
-0.00832966
-0.00829619
-0.00832959
-0.00829617
-0.00829614
-0.00832955
-0.00829605
-0.00832952
-0.00832955
-0.00829612
-0.00829617
-0.00832959
-0.00829596
-0.00832941
-0.00829587
-0.00832935
-0.00832968
-0.00832961
-0.0083297
-0.00832971
-0.00832969
-0.0083297
-0.00832963
-0.00832971
-0.00832971
-0.00832971
-0.0082964
-0.0083297
-0.00829628
-0.00832967
-0.00829632
-0.0082963
-0.00832962
-0.00829638
-0.00832972
-0.0082963
-0.00832968
-0.00829633
-0.00829612
-0.00832965
-0.00829627
-0.00832964
-0.00832965
-0.00829633
-0.00829634
-0.0083297
-0.00829632
-0.00829633
-0.00832965
-0.00829632
-0.00832959
-0.00839683
-0.00843073
-0.00839679
-0.00843061
-0.00843056
-0.00846408
-0.00846402
-0.00843069
-0.00843063
-0.0084641
-0.00839675
-0.00836323
-0.00836337
-0.00839681
-0.00836335
-0.00839682
-0.00839677
-0.00839678
-0.00836326
-0.00836338
-0.00839683
-0.00836336
-0.00839682
-0.00839684
-0.00839686
-0.0083634
-0.0083634
-0.00836331
-0.00839681
-0.00839679
-0.0084306
-0.00846411
-0.00843064
-0.00846407
-0.00843067
-0.00846401
-0.00843049
-0.00843059
-0.00846404
-0.00843055
-0.00846407
-0.00843061
-0.00846401
-0.00843047
-0.00856524
-0.00853141
-0.00856499
-0.00853118
-0.00853133
-0.00849794
-0.00849785
-0.0084978
-0.00853131
-0.00853123
-0.0085651
-0.00859856
-0.00856515
-0.00859853
-0.00856514
-0.00856503
-0.00859847
-0.00856504
-0.00859847
-0.00856495
-0.00859844
-0.00856502
-0.0085649
-0.00859843
-0.00853127
-0.00849793
-0.00849779
-0.00853139
-0.00849787
-0.00853134
-0.00853134
-0.00853124
-0.00849782
-0.00849769
-0.00853124
-0.00849782
-0.00853124
-0.00853128
-0.00856501
-0.00859849
-0.00859842
-0.00856514
-0.00856506
-0.00859853
-0.00829663
-0.00829618
-0.00832932
-0.00832936
-0.0082963
-0.00829634
-0.00832903
-0.00829712
-0.00829652
-0.00832946
-0.00832928
-0.00829673
-0.00829594
-0.00832914
-0.00839623
-0.00836353
-0.00836344
-0.00839667
-0.00836385
-0.00839646
-0.00839654
-0.00856554
-0.00856504
-0.00859819
-0.00859821
-0.00856524
-0.00856511
-0.00859792
-0.00831302
-0.00831299
-0.00829608
-0.00832963
-0.00829623
-0.00832874
-0.00829569
-0.0082958
-0.00832937
-0.0082961
-0.00832983
-0.00829648
-0.00832944
-0.00829601
-0.00829653
-0.00832979
-0.00829615
-0.00829659
-0.00832945
-0.00832982
-0.00829658
-0.00829617
-0.00832977
-0.00829621
-0.00832984
-0.00829654
-0.00832946
-0.00829658
-0.00829611
-0.00832977
-0.00829622
-0.0082966
-0.00832983
-0.00832945
-0.0082962
-0.0082966
-0.00832978
-0.00829619
-0.00832991
-0.00829668
-0.0083293
-0.0082959
-0.00829675
-0.00832974
-0.00843106
-0.00843052
-0.00846371
-0.00846378
-0.00846347
-0.00843071
-0.00843065
-0.00853072
-0.0085312
-0.00849799
-0.0084979
-0.00849831
-0.00853098
-0.00853101
-0.00837992
-0.00838005
-0.00837998
-0.00836334
-0.00864888
-0.00864888
-0.00864879
-0.00863209
-0.00891747
-0.00891746
-0.00891745
-0.00890075
-0.00918616
-0.00918623
-0.00918622
-0.00916952
-0.00945492
-0.00945493
-0.00945497
-0.00943827
-0.00972364
-0.00972369
-0.00972368
-0.00970698
-0.00999235
-0.00999236
-0.00999238
-0.00997568
-0.010261
-0.0102611
-0.0102611
-0.0102444
-0.0105298
-0.0105298
-0.0105298
-0.0105131
-0.0107985
-0.0107985
-0.0107985
-0.0107818
-0.0110672
-0.0110672
-0.0110672
-0.0110505
-0.0113359
-0.0113359
-0.0113359
-0.0113192
-0.0116046
-0.0116046
-0.0116046
-0.0115879
-0.0118733
-0.0118733
-0.0118733
-0.0118566
-0.012142
-0.012142
-0.012142
-0.0121253
-0.0124107
-0.0124107
-0.0124107
-0.012394
-0.0126794
-0.0126794
-0.0126794
-0.0126627
-0.00837983
-0.00837987
-0.00858181
-0.00858176
-0.00836322
-0.00859833
-0.00838008
-0.00838002
-0.00858168
-0.00858159
-0.00838002
-0.0085817
-0.00858157
-0.00836329
-0.00859826
-0.00837991
-0.0085816
-0.00858161
-0.00859826
-0.00863223
-0.00886702
-0.008649
-0.00864894
-0.00885037
-0.00885038
-0.00863215
-0.00886699
-0.00864886
-0.00864877
-0.00885036
-0.00885028
-0.00864876
-0.00885034
-0.00885026
-0.00863209
-0.00886693
-0.0086488
-0.00885029
-0.00885028
-0.00886693
-0.00890081
-0.00913564
-0.00891748
-0.00891751
-0.00911897
-0.00911895
-0.00890076
-0.00913561
-0.00891747
-0.00891743
-0.00911901
-0.00911901
-0.00891742
-0.00911907
-0.00911903
-0.00890076
-0.00913568
-0.00891745
-0.00911904
-0.00911905
-0.00913569
-0.00916946
-0.00940441
-0.00918615
-0.00918611
-0.00938774
-0.00938776
-0.00916942
-0.00940439
-0.00918618
-0.00918619
-0.00938777
-0.00938777
-0.0091862
-0.00938775
-0.00938777
-0.00916951
-0.00940445
-0.00918623
-0.0093878
-0.0093878
-0.00940445
-0.00943823
-0.00967314
-0.00945494
-0.00945497
-0.00965649
-0.00965645
-0.0094382
-0.00967308
-0.00945495
-0.00945495
-0.00965649
-0.00965648
-0.00945494
-0.00965652
-0.00965648
-0.00943828
-0.00967315
-0.00945497
-0.0096565
-0.0096565
-0.00967315
-0.00970696
-0.00994185
-0.00972367
-0.00972362
-0.00992519
-0.00992521
-0.00970689
-0.00994183
-0.00972367
-0.00972366
-0.0099252
-0.00992518
-0.00972365
-0.00992519
-0.00992518
-0.00970698
-0.00994185
-0.00972368
-0.0099252
-0.0099252
-0.00994185
-0.00997567
-0.0102106
-0.00999237
-0.0099924
-0.0101939
-0.0101939
-0.00997563
-0.0102105
-0.00999237
-0.00999236
-0.0101939
-0.0101939
-0.00999236
-0.0101939
-0.0101939
-0.00997568
-0.0102106
-0.00999238
-0.0101939
-0.0101939
-0.0102106
-0.0102444
-0.0104793
-0.0102611
-0.010261
-0.0104626
-0.0104626
-0.0102443
-0.0104792
-0.0102611
-0.0102611
-0.0104626
-0.0104626
-0.0102611
-0.0104626
-0.0104626
-0.0102444
-0.0104793
-0.0102611
-0.0104626
-0.0104626
-0.0104793
-0.0105131
-0.010748
-0.0105298
-0.0105298
-0.0107313
-0.0107313
-0.010513
-0.0107479
-0.0105298
-0.0105298
-0.0107313
-0.0107313
-0.0105298
-0.0107313
-0.0107313
-0.0105131
-0.010748
-0.0105298
-0.0107313
-0.0107313
-0.010748
-0.0107818
-0.0110167
-0.0107985
-0.0107984
-0.011
-0.011
-0.0107817
-0.0110166
-0.0107985
-0.0107985
-0.011
-0.011
-0.0107985
-0.011
-0.011
-0.0107818
-0.0110167
-0.0107985
-0.011
-0.011
-0.0110167
-0.0110505
-0.0112854
-0.0110672
-0.0110672
-0.0112687
-0.0112687
-0.0110504
-0.0112853
-0.0110672
-0.0110672
-0.0112687
-0.0112687
-0.0110672
-0.0112688
-0.0112687
-0.0110505
-0.0112854
-0.0110672
-0.0112687
-0.0112687
-0.0112854
-0.0113192
-0.0115541
-0.0113359
-0.0113358
-0.0115374
-0.0115374
-0.0113191
-0.0115541
-0.0113359
-0.0113359
-0.0115374
-0.0115374
-0.0113359
-0.0115374
-0.0115374
-0.0113192
-0.0115541
-0.0113359
-0.0115374
-0.0115374
-0.0115541
-0.0115879
-0.0118228
-0.0116046
-0.0116046
-0.0118061
-0.0118061
-0.0115879
-0.0118227
-0.0116046
-0.0116046
-0.0118061
-0.0118061
-0.0116046
-0.0118062
-0.0118061
-0.0115879
-0.0118228
-0.0116046
-0.0118061
-0.0118061
-0.0118228
-0.0118566
-0.0120915
-0.0118733
-0.0118733
-0.0120748
-0.0120748
-0.0118565
-0.0120915
-0.0118733
-0.0118733
-0.0120748
-0.0120748
-0.0118733
-0.0120748
-0.0120748
-0.0118566
-0.0120915
-0.0118733
-0.0120748
-0.0120748
-0.0120915
-0.0121253
-0.0123602
-0.012142
-0.012142
-0.0123435
-0.0123435
-0.0121253
-0.0123601
-0.012142
-0.012142
-0.0123435
-0.0123435
-0.012142
-0.0123436
-0.0123435
-0.0121253
-0.0123602
-0.012142
-0.0123435
-0.0123435
-0.0123602
-0.012394
-0.0126289
-0.0124107
-0.0124107
-0.0126122
-0.0126123
-0.0123939
-0.0126289
-0.0124107
-0.0124107
-0.0126122
-0.0126122
-0.0124107
-0.0126122
-0.0126122
-0.012394
-0.0126289
-0.0124107
-0.0126123
-0.0126123
-0.0126289
-0.0126627
-0.0126794
-0.0126794
-0.0126627
-0.0126794
-0.0126794
-0.0126794
-0.0128809
-0.0126627
-0.0126794
-0.012881
-0.0128976
-0.00846406
-0.0083633
-0.00836329
-0.00846416
-0.00836336
-0.00846412
-0.00846401
-0.0083634
-0.00836341
-0.008464
-0.00837989
-0.00837985
-0.00837975
-0.00858169
-0.00858167
-0.0085816
-0.00858161
-0.00846373
-0.00836355
-0.00838021
-0.00844723
-0.0084638
-0.0084473
-0.00836361
-0.00836343
-0.00846393
-0.00846347
-0.00837986
-0.00836369
-0.00844713
-0.00844706
-0.00846363
-0.00836376
-0.00836333
-0.00836339
-0.0084639
-0.00846396
-0.00846395
-0.00873294
-0.00863242
-0.00863248
-0.00873292
-0.00863242
-0.00873287
-0.0087327
-0.00863215
-0.00863208
-0.00873271
-0.00864887
-0.00864881
-0.00864883
-0.00885034
-0.00885034
-0.00885025
-0.00885024
-0.00873242
-0.0086323
-0.00864876
-0.00871608
-0.00863228
-0.00873251
-0.00871602
-0.00863207
-0.00873262
-0.00873219
-0.00864879
-0.00863234
-0.008716
-0.00863247
-0.008716
-0.00873233
-0.008632
-0.00863202
-0.00873264
-0.00873265
-0.00873262
-0.00900129
-0.00890086
-0.0089009
-0.0090013
-0.00890085
-0.00900126
-0.00900134
-0.00890077
-0.00890074
-0.0090013
-0.00891747
-0.00891743
-0.00891743
-0.00911899
-0.00911899
-0.009119
-0.00911901
-0.00900111
-0.00890093
-0.00891741
-0.00898464
-0.00890096
-0.00900116
-0.00898463
-0.00890075
-0.00900129
-0.00900088
-0.00891741
-0.00890102
-0.00898466
-0.00890115
-0.00898464
-0.00900102
-0.00890069
-0.0089007
-0.00900132
-0.00900136
-0.00900132
-0.00926996
-0.0091694
-0.00916941
-0.00927
-0.00916944
-0.00926999
-0.0092701
-0.00916945
-0.00916945
-0.00927006
-0.00918617
-0.00918618
-0.00918618
-0.00938773
-0.00938774
-0.00938775
-0.00938775
-0.00926985
-0.00916966
-0.00918616
-0.00925339
-0.00916971
-0.00926989
-0.00925335
-0.0091695
-0.00927008
-0.00926966
-0.00918619
-0.00916978
-0.00925342
-0.00916992
-0.00925338
-0.00926981
-0.00916947
-0.00916948
-0.00927008
-0.00927014
-0.00927011
-0.00953876
-0.0094382
-0.00943821
-0.00953878
-0.00943821
-0.00953875
-0.00953884
-0.00943823
-0.00943822
-0.00953881
-0.00945492
-0.00945493
-0.00945493
-0.00965646
-0.00965646
-0.00965647
-0.00965647
-0.00953857
-0.00943838
-0.00945491
-0.00952211
-0.00943843
-0.00953862
-0.00952209
-0.00943826
-0.0095388
-0.00953838
-0.00945493
-0.00943854
-0.00952215
-0.00943867
-0.00952211
-0.00953853
-0.0094382
-0.00943822
-0.0095388
-0.00953885
-0.00953883
-0.00980748
-0.00970694
-0.00970696
-0.0098075
-0.00970697
-0.00980749
-0.00980754
-0.00970694
-0.00970693
-0.00980752
-0.00972364
-0.00972364
-0.00972364
-0.00992517
-0.00992517
-0.00992517
-0.00992516
-0.00980727
-0.00970711
-0.00972362
-0.00979085
-0.00970715
-0.00980733
-0.00979079
-0.00970695
-0.0098075
-0.00980708
-0.00972364
-0.00970723
-0.00979085
-0.00970737
-0.00979081
-0.00980723
-0.0097069
-0.00970692
-0.0098075
-0.00980755
-0.00980752
-0.0100762
-0.00997565
-0.00997567
-0.0100762
-0.00997567
-0.0100762
-0.0100762
-0.00997565
-0.00997563
-0.0100762
-0.00999235
-0.00999234
-0.00999234
-0.0101939
-0.0101939
-0.0101939
-0.0101939
-0.010076
-0.00997581
-0.00999233
-0.0100595
-0.00997585
-0.010076
-0.0100595
-0.00997566
-0.0100762
-0.0100758
-0.00999234
-0.00997593
-0.0100596
-0.00997607
-0.0100595
-0.0100759
-0.0099756
-0.00997562
-0.0100762
-0.0100763
-0.0100762
-0.0103449
-0.0102444
-0.0102444
-0.0103449
-0.0102444
-0.0103449
-0.0103449
-0.0102443
-0.0102443
-0.0103449
-0.010261
-0.010261
-0.010261
-0.0104626
-0.0104626
-0.0104626
-0.0104626
-0.0103447
-0.0102445
-0.010261
-0.0103283
-0.0102446
-0.0103447
-0.0103282
-0.0102444
-0.0103449
-0.0103445
-0.010261
-0.0102446
-0.0103283
-0.0102448
-0.0103282
-0.0103446
-0.0102443
-0.0102443
-0.0103449
-0.010345
-0.0103449
-0.0106136
-0.0105131
-0.0105131
-0.0106136
-0.0105131
-0.0106136
-0.0106137
-0.0105131
-0.010513
-0.0106136
-0.0105298
-0.0105298
-0.0105298
-0.0107313
-0.0107313
-0.0107313
-0.0107313
-0.0106134
-0.0105132
-0.0105297
-0.0105969
-0.0105133
-0.0106135
-0.0105969
-0.0105131
-0.0106136
-0.0106132
-0.0105297
-0.0105133
-0.010597
-0.0105135
-0.0105969
-0.0106133
-0.010513
-0.010513
-0.0106136
-0.0106137
-0.0106136
-0.0108823
-0.0107818
-0.0107818
-0.0108823
-0.0107818
-0.0108823
-0.0108824
-0.0107818
-0.0107817
-0.0108823
-0.0107985
-0.0107985
-0.0107985
-0.011
-0.011
-0.011
-0.011
-0.0108821
-0.0107819
-0.0107984
-0.0108657
-0.010782
-0.0108822
-0.0108656
-0.0107818
-0.0108823
-0.0108819
-0.0107985
-0.010782
-0.0108657
-0.0107822
-0.0108656
-0.010882
-0.0107817
-0.0107817
-0.0108823
-0.0108824
-0.0108823
-0.011151
-0.0110505
-0.0110505
-0.011151
-0.0110505
-0.011151
-0.0111511
-0.0110505
-0.0110504
-0.011151
-0.0110672
-0.0110672
-0.0110672
-0.0112687
-0.0112687
-0.0112687
-0.0112687
-0.0111508
-0.0110506
-0.0110672
-0.0111343
-0.0110507
-0.0111509
-0.0111343
-0.0110505
-0.011151
-0.0111506
-0.0110672
-0.0110508
-0.0111344
-0.0110509
-0.0111343
-0.0111507
-0.0110504
-0.0110504
-0.011151
-0.0111511
-0.011151
-0.0114197
-0.0113192
-0.0113192
-0.0114197
-0.0113192
-0.0114197
-0.0114198
-0.0113192
-0.0113192
-0.0114197
-0.0113359
-0.0113359
-0.0113359
-0.0115374
-0.0115374
-0.0115374
-0.0115374
-0.0114195
-0.0113193
-0.0113358
-0.0114031
-0.0113194
-0.0114196
-0.011403
-0.0113192
-0.0114197
-0.0114193
-0.0113359
-0.0113195
-0.0114031
-0.0113196
-0.011403
-0.0114194
-0.0113191
-0.0113191
-0.0114197
-0.0114198
-0.0114198
-0.0116884
-0.0115879
-0.0115879
-0.0116884
-0.0115879
-0.0116884
-0.0116885
-0.0115879
-0.0115879
-0.0116885
-0.0116046
-0.0116046
-0.0116046
-0.0118061
-0.0118061
-0.0118061
-0.0118061
-0.0116882
-0.011588
-0.0116046
-0.0116718
-0.0115881
-0.0116883
-0.0116717
-0.0115879
-0.0116884
-0.011688
-0.0116046
-0.0115882
-0.0116718
-0.0115883
-0.0116717
-0.0116882
-0.0115878
-0.0115879
-0.0116884
-0.0116885
-0.0116885
-0.0119571
-0.0118566
-0.0118566
-0.0119571
-0.0118566
-0.0119571
-0.0119572
-0.0118566
-0.0118566
-0.0119572
-0.0118733
-0.0118733
-0.0118733
-0.0120748
-0.0120748
-0.0120748
-0.0120748
-0.0119569
-0.0118568
-0.0118733
-0.0119405
-0.0118568
-0.011957
-0.0119404
-0.0118566
-0.0119571
-0.0119567
-0.0118733
-0.0118569
-0.0119405
-0.011857
-0.0119405
-0.0119569
-0.0118565
-0.0118566
-0.0119571
-0.0119572
-0.0119572
-0.0122258
-0.0121253
-0.0121253
-0.0122259
-0.0121253
-0.0122258
-0.0122259
-0.0121253
-0.0121253
-0.0122259
-0.012142
-0.012142
-0.012142
-0.0123435
-0.0123435
-0.0123435
-0.0123435
-0.0122256
-0.0121255
-0.012142
-0.0122092
-0.0121255
-0.0122257
-0.0122092
-0.0121253
-0.0122258
-0.0122254
-0.012142
-0.0121256
-0.0122092
-0.0121257
-0.0122092
-0.0122256
-0.0121252
-0.0121253
-0.0122258
-0.0122259
-0.0122259
-0.0124945
-0.012394
-0.012394
-0.0124946
-0.012394
-0.0124945
-0.0124946
-0.012394
-0.012394
-0.0124946
-0.0124107
-0.0124107
-0.0124107
-0.0126122
-0.0126122
-0.0126122
-0.0126122
-0.0124943
-0.0123942
-0.0124107
-0.0124779
-0.0123942
-0.0124944
-0.0124778
-0.012394
-0.0124946
-0.0124941
-0.0124107
-0.0123943
-0.0124779
-0.0123944
-0.0124779
-0.0124943
-0.0123939
-0.012394
-0.0124945
-0.0124946
-0.0124946
-0.0127632
-0.0126627
-0.0126627
-0.0127633
-0.0126627
-0.0127632
-0.0127633
-0.0126627
-0.0126627
-0.0127633
-0.0126794
-0.0126794
-0.0126794
-0.0128809
-0.012763
-0.0126629
-0.0126794
-0.0127466
-0.0126629
-0.0127631
-0.0127466
-0.0126627
-0.0127632
-0.0127628
-0.0126794
-0.012663
-0.0127466
-0.0126631
-0.0127466
-0.012763
-0.0126627
-0.0126627
-0.0127633
-0.0127633
-0.0127633
-0.00846406
-0.00836331
-0.00846415
-0.00836329
-0.0084636
-0.00836349
-0.0083796
-0.00844714
-0.00844689
-0.00836371
-0.00846383
-0.0084636
-0.00836351
-0.00837965
-0.00844717
-0.00846384
-0.00844689
-0.00836372
-0.00849797
-0.00859863
-0.00859864
-0.00849801
-0.00849796
-0.00859863
-0.008498
-0.00859863
-0.00849827
-0.00851451
-0.0085983
-0.00858175
-0.00851436
-0.00859816
-0.00849821
-0.00849827
-0.00851452
-0.00859829
-0.00858175
-0.00849821
-0.00851435
-0.00859815
-0.00836336
-0.00836331
-0.00846405
-0.00846406
-0.00846406
-0.0083634
-0.00846399
-0.00859861
-0.00849799
-0.00849792
-0.00859862
-0.0085984
-0.00849787
-0.00849778
-0.00859833
-0.00849781
-0.00846375
-0.00836356
-0.0083803
-0.00844726
-0.00844735
-0.00836363
-0.00846382
-0.00846401
-0.00836341
-0.00846395
-0.00836341
-0.00846375
-0.00838028
-0.00836355
-0.00844722
-0.00844733
-0.00846377
-0.00836363
-0.00849774
-0.00859837
-0.00859834
-0.00849779
-0.00849796
-0.00851448
-0.00859819
-0.00858155
-0.00851443
-0.00859807
-0.00849796
-0.00849773
-0.00859829
-0.00849772
-0.00859832
-0.00849795
-0.00851443
-0.00858151
-0.00859811
-0.0085144
-0.0084979
-0.00859806
-0.008464
-0.0083634
-0.008464
-0.0083634
-0.00846373
-0.0083802
-0.00836355
-0.0084472
-0.00844727
-0.00846376
-0.00836361
-0.00846399
-0.00836341
-0.00846394
-0.0083634
-0.00849794
-0.00851448
-0.00859818
-0.00858156
-0.00849794
-0.00851442
-0.00859806
-0.00849772
-0.00859834
-0.00849778
-0.00859832
-0.00849794
-0.0085144
-0.00858152
-0.00859809
-0.00851438
-0.00849788
-0.00859805
-0.00849772
-0.00859827
-0.0084977
-0.00859831
-0.00836335
-0.00836339
-0.00846389
-0.00846398
-0.00846395
-0.00836344
-0.00846392
-0.00859826
-0.00849773
-0.00849774
-0.00859831
-0.00859828
-0.00849768
-0.00849768
-0.00859825
-0.00849773
-0.00846347
-0.00837984
-0.00836364
-0.00844713
-0.00844706
-0.00846363
-0.00836375
-0.0084639
-0.00836342
-0.00846394
-0.0083634
-0.0084639
-0.00836342
-0.00846393
-0.0083634
-0.00849811
-0.00851438
-0.00858157
-0.00859797
-0.00851433
-0.00849798
-0.00859783
-0.0084981
-0.00851441
-0.00858158
-0.00859797
-0.00851434
-0.00849798
-0.00859783
-0.00849774
-0.00859827
-0.00849772
-0.00859824
-0.00849774
-0.00859826
-0.00849772
-0.00859824
-0.00836342
-0.00846392
-0.00836344
-0.00846392
-0.00849774
-0.0085983
-0.00859827
-0.00849766
-0.00849768
-0.00859825
-0.00849771
-0.00859824
-0.00849772
-0.00863242
-0.00873289
-0.00863217
-0.0087327
-0.00863233
-0.00863213
-0.00873277
-0.00873289
-0.00873277
-0.00886707
-0.00876667
-0.00886699
-0.00876649
-0.00876658
-0.00886709
-0.00886705
-0.0087666
-0.00876646
-0.00873294
-0.00863242
-0.00863248
-0.00873291
-0.00873247
-0.00863264
-0.008649
-0.00871614
-0.00863279
-0.0087326
-0.00871614
-0.00873247
-0.00863263
-0.008649
-0.00871611
-0.00863279
-0.00873258
-0.00871615
-0.00876674
-0.00886711
-0.00876668
-0.00886711
-0.00876673
-0.0088671
-0.00876666
-0.00886711
-0.00876705
-0.00878327
-0.00886678
-0.00885032
-0.00876691
-0.00878323
-0.00886665
-0.00876705
-0.00878327
-0.00886677
-0.00885033
-0.0087669
-0.00878324
-0.00886665
-0.00863236
-0.00863209
-0.00873276
-0.00873287
-0.00873273
-0.00863213
-0.00873266
-0.00886707
-0.00876665
-0.00876657
-0.00886708
-0.00886702
-0.00876658
-0.00876642
-0.00886697
-0.00876645
-0.00873244
-0.00863232
-0.00864874
-0.00871607
-0.00863229
-0.00873254
-0.00871602
-0.00873269
-0.00863206
-0.00863207
-0.00873264
-0.00873243
-0.00864874
-0.00863223
-0.00871599
-0.00863228
-0.00871603
-0.00873247
-0.00876643
-0.00886701
-0.00876647
-0.00886701
-0.00876666
-0.00878326
-0.00886683
-0.0088503
-0.00876666
-0.00878322
-0.00886675
-0.00876642
-0.00886698
-0.00876641
-0.00886701
-0.00876665
-0.00878317
-0.00885029
-0.0088668
-0.00878321
-0.00876659
-0.00886675
-0.00873267
-0.00863212
-0.00863206
-0.00873268
-0.00873242
-0.00864875
-0.00863222
-0.00871599
-0.00863227
-0.00871603
-0.00873245
-0.00873267
-0.00863205
-0.00863205
-0.00873262
-0.00876664
-0.00878325
-0.00886682
-0.00885028
-0.00876663
-0.00878319
-0.00886674
-0.0087664
-0.00886699
-0.00876644
-0.00886699
-0.00876663
-0.00878316
-0.00885027
-0.00886679
-0.0087832
-0.00876657
-0.00886674
-0.0087664
-0.00886696
-0.00876639
-0.00886699
-0.00863201
-0.00863202
-0.00873264
-0.00873267
-0.00873263
-0.00863206
-0.00873259
-0.00886695
-0.00876642
-0.00876647
-0.008867
-0.00886697
-0.00876636
-0.00876637
-0.00886693
-0.00876641
-0.00873219
-0.00864879
-0.00863233
-0.008716
-0.00863247
-0.008716
-0.00873233
-0.00873259
-0.00863206
-0.00863208
-0.00873261
-0.00873259
-0.00863206
-0.00863208
-0.0087326
-0.00876683
-0.00878317
-0.00885024
-0.00886666
-0.00878313
-0.00876669
-0.00886652
-0.00876683
-0.00878315
-0.00885024
-0.00886666
-0.00878313
-0.00876668
-0.00886652
-0.00876643
-0.00886694
-0.0087664
-0.00886692
-0.00876643
-0.00886694
-0.0087664
-0.00886692
-0.00863205
-0.0087326
-0.00863206
-0.00873259
-0.00876646
-0.00886699
-0.00886696
-0.00876635
-0.00876636
-0.00886694
-0.0087664
-0.00886692
-0.0087664
-0.00890084
-0.00900127
-0.00890078
-0.00900129
-0.00890079
-0.00890073
-0.00900131
-0.0090013
-0.00900134
-0.00913558
-0.00903506
-0.00913565
-0.00903509
-0.00903513
-0.00913563
-0.00913569
-0.00903502
-0.00903503
-0.00900129
-0.00890086
-0.0089009
-0.00900131
-0.00900086
-0.00890109
-0.00891746
-0.00898463
-0.00890123
-0.009001
-0.00898462
-0.00900087
-0.00890109
-0.00891744
-0.00898468
-0.00890123
-0.00900104
-0.0089846
-0.0090351
-0.00913561
-0.00903507
-0.00913558
-0.0090351
-0.00913563
-0.00903509
-0.00913558
-0.00903547
-0.0090518
-0.00913532
-0.00911897
-0.00903532
-0.0090518
-0.00913517
-0.00903547
-0.00905182
-0.00913533
-0.00911897
-0.00903535
-0.00905178
-0.00913518
-0.00890082
-0.0089007
-0.00900142
-0.00900126
-0.0090014
-0.00890077
-0.00900134
-0.00913562
-0.00903506
-0.00903526
-0.00913568
-0.00913572
-0.009035
-0.00903511
-0.00913568
-0.00903515
-0.00900108
-0.00890095
-0.00891741
-0.00898465
-0.00890096
-0.00900113
-0.00898461
-0.00900134
-0.00890074
-0.00890074
-0.00900131
-0.00900109
-0.00891741
-0.00890092
-0.00898464
-0.00890096
-0.00898462
-0.00900114
-0.00903508
-0.00913567
-0.00903508
-0.00913571
-0.0090353
-0.00905184
-0.00913549
-0.00911898
-0.00903526
-0.00905181
-0.00913545
-0.00903508
-0.0091357
-0.00903509
-0.00913571
-0.00903531
-0.00905184
-0.00911901
-0.00913552
-0.00905183
-0.00903527
-0.00913546
-0.00900137
-0.00890076
-0.00890073
-0.00900135
-0.00900111
-0.00891741
-0.00890091
-0.00898465
-0.00890095
-0.00898464
-0.00900116
-0.00900137
-0.00890074
-0.00890072
-0.00900134
-0.00903534
-0.00905187
-0.00913554
-0.009119
-0.00903531
-0.00905184
-0.00913549
-0.00903511
-0.0091357
-0.00903513
-0.00913575
-0.00903534
-0.00905186
-0.00911902
-0.00913556
-0.00905186
-0.0090353
-0.00913549
-0.00903511
-0.00913573
-0.00903512
-0.00913575
-0.0089007
-0.00890071
-0.00900131
-0.00900134
-0.00900132
-0.00890074
-0.00900128
-0.00913568
-0.0090351
-0.00903515
-0.00913573
-0.00913571
-0.00903505
-0.00903507
-0.00913567
-0.0090351
-0.00900088
-0.00891742
-0.00890102
-0.00898467
-0.00890115
-0.00898464
-0.00900103
-0.00900127
-0.00890074
-0.00890076
-0.00900129
-0.00900127
-0.00890073
-0.00890076
-0.0090013
-0.00903553
-0.00905186
-0.00911901
-0.00913541
-0.00905184
-0.00903539
-0.00913527
-0.00903553
-0.00905187
-0.00911901
-0.00913542
-0.00905184
-0.00903539
-0.00913527
-0.00903512
-0.00913569
-0.0090351
-0.00913566
-0.00903512
-0.0091357
-0.00903511
-0.00913566
-0.00890075
-0.00900132
-0.00890074
-0.00900129
-0.00903516
-0.00913576
-0.00913572
-0.00903508
-0.00903508
-0.00913572
-0.00903513
-0.00913569
-0.00903511
-0.00916941
-0.00926999
-0.00916946
-0.00927004
-0.00916937
-0.0091694
-0.00927002
-0.00927003
-0.00927009
-0.00940439
-0.00930381
-0.00940443
-0.00930386
-0.00930385
-0.00940443
-0.00940447
-0.00930378
-0.0093038
-0.00926996
-0.00916942
-0.00916942
-0.00926999
-0.00926956
-0.00916968
-0.00918614
-0.00925334
-0.0091698
-0.00926972
-0.00925332
-0.00926956
-0.00916969
-0.00918615
-0.00925332
-0.0091698
-0.00926972
-0.00925333
-0.00930381
-0.0094044
-0.0093038
-0.00940437
-0.00930381
-0.00940439
-0.0093038
-0.00940437
-0.0093042
-0.00932054
-0.00940414
-0.00938772
-0.00930409
-0.00932052
-0.00940396
-0.0093042
-0.00932055
-0.00940413
-0.00938772
-0.00930409
-0.00932053
-0.00940396
-0.00916944
-0.00916942
-0.00927002
-0.00927003
-0.00927009
-0.00916948
-0.00927005
-0.00940439
-0.00930381
-0.00930385
-0.00940443
-0.00940445
-0.00930378
-0.00930379
-0.00940441
-0.00930385
-0.00926984
-0.00916963
-0.00918615
-0.00925338
-0.00916968
-0.00926988
-0.00925334
-0.00927011
-0.00916948
-0.00916945
-0.00927009
-0.00926985
-0.00918618
-0.00916966
-0.00925339
-0.00916968
-0.00925337
-0.00926992
-0.00930385
-0.00940445
-0.00930385
-0.00940448
-0.00930407
-0.00932057
-0.00940427
-0.00938773
-0.00930403
-0.00932054
-0.00940422
-0.00930385
-0.00940447
-0.00930388
-0.00940449
-0.00930407
-0.00932059
-0.00938776
-0.0094043
-0.00932057
-0.00930405
-0.00940423
-0.00927012
-0.00916948
-0.00916949
-0.00927007
-0.00926986
-0.00918619
-0.00916969
-0.0092534
-0.00916971
-0.00925339
-0.00926993
-0.00927012
-0.00916952
-0.00916949
-0.00927011
-0.00930407
-0.00932057
-0.00940426
-0.00938772
-0.00930402
-0.00932053
-0.00940421
-0.00930385
-0.00940443
-0.00930385
-0.00940447
-0.00930408
-0.00932059
-0.00938776
-0.00940429
-0.00932058
-0.00930406
-0.00940422
-0.00930386
-0.00940446
-0.00930388
-0.00940448
-0.00916944
-0.00916947
-0.00927007
-0.00927013
-0.00927011
-0.0091695
-0.00927007
-0.00940445
-0.00930389
-0.00930391
-0.0094045
-0.00940448
-0.00930384
-0.00930386
-0.00940445
-0.0093039
-0.00926966
-0.00918619
-0.00916979
-0.00925343
-0.00916992
-0.00925338
-0.00926981
-0.00927006
-0.0091695
-0.00916952
-0.00927009
-0.00927006
-0.00916951
-0.00916952
-0.00927009
-0.00930431
-0.00932061
-0.00938776
-0.00940418
-0.00932058
-0.00930418
-0.00940403
-0.00930431
-0.00932062
-0.00938776
-0.00940418
-0.00932058
-0.00930418
-0.00940403
-0.00930391
-0.00940446
-0.00930389
-0.00940444
-0.00930391
-0.00940446
-0.00930389
-0.00940444
-0.00916953
-0.00927009
-0.00916952
-0.00927008
-0.00930391
-0.0094045
-0.00940448
-0.00930384
-0.00930386
-0.00940444
-0.00930389
-0.00940444
-0.0093039
-0.00943821
-0.00953877
-0.00943823
-0.00953879
-0.00943818
-0.00943818
-0.00953878
-0.00953881
-0.00953884
-0.00967314
-0.00957259
-0.00967315
-0.00957259
-0.00957261
-0.00967317
-0.0096732
-0.00957255
-0.00957254
-0.00953876
-0.00943819
-0.00943821
-0.00953877
-0.00953835
-0.00943849
-0.00945491
-0.00952212
-0.0094386
-0.00953852
-0.0095221
-0.00953835
-0.00943849
-0.00945491
-0.00952216
-0.0094386
-0.00953854
-0.00952208
-0.0095726
-0.00967315
-0.00957258
-0.00967313
-0.0095726
-0.00967315
-0.00957257
-0.00967313
-0.00957298
-0.0095893
-0.00967288
-0.00965647
-0.00957287
-0.00958929
-0.00967272
-0.00957298
-0.00958931
-0.00967288
-0.00965647
-0.00957287
-0.00958927
-0.00967272
-0.00943821
-0.00943814
-0.0095389
-0.00953875
-0.00953887
-0.00943821
-0.0095388
-0.00967315
-0.00957257
-0.00957272
-0.0096732
-0.00967318
-0.00957252
-0.00957257
-0.00967313
-0.00957261
-0.00953858
-0.00943841
-0.00945491
-0.00952213
-0.00943844
-0.00953863
-0.00952209
-0.00953885
-0.00943825
-0.00943823
-0.00953882
-0.00953858
-0.00945494
-0.00943842
-0.00952213
-0.00943845
-0.00952212
-0.00953865
-0.00957258
-0.00967317
-0.00957259
-0.00967319
-0.0095728
-0.00958931
-0.00967299
-0.00965645
-0.00957277
-0.00958927
-0.00967293
-0.00957258
-0.00967317
-0.0095726
-0.0096732
-0.0095728
-0.00958931
-0.00965647
-0.009673
-0.0095893
-0.00957277
-0.00967294
-0.00953883
-0.00943821
-0.00943821
-0.00953881
-0.00953858
-0.00945493
-0.00943841
-0.00952212
-0.00943844
-0.00952211
-0.00953864
-0.00953884
-0.00943824
-0.00943822
-0.00953881
-0.00957279
-0.00958931
-0.00967299
-0.00965645
-0.00957277
-0.00958927
-0.00967293
-0.00957257
-0.00967315
-0.00957259
-0.00967319
-0.0095728
-0.0095893
-0.00965647
-0.00967299
-0.00958929
-0.00957276
-0.00967293
-0.00957257
-0.00967317
-0.00957259
-0.00967319
-0.00943821
-0.00943823
-0.0095388
-0.00953885
-0.00953883
-0.00943826
-0.0095388
-0.00967315
-0.00957261
-0.00957263
-0.0096732
-0.00967318
-0.00957256
-0.00957257
-0.00967314
-0.00957261
-0.00953838
-0.00945493
-0.00943854
-0.00952215
-0.00943867
-0.00952211
-0.00953853
-0.00953879
-0.00943826
-0.00943828
-0.00953881
-0.00953879
-0.00943825
-0.00943828
-0.00953881
-0.00957302
-0.00958933
-0.00965646
-0.00967288
-0.00958929
-0.00957289
-0.00967273
-0.00957302
-0.00958933
-0.00965646
-0.00967288
-0.00958929
-0.00957288
-0.00967273
-0.00957263
-0.00967316
-0.00957261
-0.00967314
-0.00957263
-0.00967316
-0.0095726
-0.00967314
-0.00943825
-0.0095388
-0.00943826
-0.00953879
-0.00957263
-0.0096732
-0.00967318
-0.00957255
-0.00957257
-0.00967315
-0.0095726
-0.00967314
-0.00957261
-0.00970695
-0.00980749
-0.00970695
-0.0098075
-0.00970691
-0.0097069
-0.0098075
-0.00980753
-0.00980755
-0.00994185
-0.00984131
-0.00994185
-0.0098413
-0.00984132
-0.00994188
-0.0099419
-0.00984127
-0.00984125
-0.00980748
-0.00970694
-0.00970696
-0.0098075
-0.00980708
-0.00970723
-0.00972364
-0.00979084
-0.00970734
-0.00980724
-0.00979082
-0.00980708
-0.00970722
-0.00972365
-0.00979081
-0.00970734
-0.00980723
-0.00979083
-0.00984132
-0.00994186
-0.0098413
-0.00994184
-0.00984132
-0.00994186
-0.00984129
-0.00994184
-0.0098417
-0.00985802
-0.00994159
-0.00992517
-0.00984158
-0.00985799
-0.00994143
-0.0098417
-0.00985802
-0.00994159
-0.00992518
-0.00984158
-0.009858
-0.00994143
-0.00970695
-0.00970687
-0.00980748
-0.00980752
-0.00980754
-0.00970693
-0.00980749
-0.00994185
-0.00984131
-0.00984131
-0.00994189
-0.00994188
-0.00984127
-0.00984124
-0.00994184
-0.00984129
-0.00980728
-0.00970712
-0.00972363
-0.00979085
-0.00970715
-0.00980734
-0.0097908
-0.00980754
-0.00970694
-0.00970693
-0.00980752
-0.00980729
-0.00972365
-0.00970712
-0.00979083
-0.00970715
-0.00979082
-0.00980735
-0.00984128
-0.00994187
-0.00984129
-0.00994189
-0.0098415
-0.00985802