/*--------------------------------*- C++ -*----------------------------------*\
| =========                 |                                                 |
| \\      /  F ield         | OpenFOAM: The Open Source CFD Toolbox           |
|  \\    /   O peration     | Version:  2206                                  |
|   \\  /    A nd           | Website:  www.openfoam.com                      |
|    \\/     M anipulation  |                                                 |
\*---------------------------------------------------------------------------*/
FoamFile
{
    version     2.0;
    format      ascii;
    arch        "LSB;label=32;scalar=64";
    class       volVectorField;
    location    "0.2";
    object      wallShearStress;
}
// * * * * * * * * * * * * * * * * * * * * * * * * * * * * * * * * * * * * * //

dimensions      [0 2 -2 0 0 0 0];

internalField   uniform (0 0 0);

boundaryField
{
    topPatch
    {
        type            calculated;
        value           nonuniform List<vector> 0();
    }
    wall
    {
        type            calculated;
        value           nonuniform List<vector> 
7746
(
(5.55735e-08 -2.74814e-08 -0.000161614)
(7.43257e-09 -7.394e-09 -0.000161584)
(3.18447e-08 -9.01671e-09 -0.000154745)
(7.11372e-09 -6.80869e-09 -0.000154713)
(2.90203e-09 -3.78766e-09 -0.000154711)
(8.43695e-11 -6.02943e-09 -0.000161574)
(8.14384e-09 1.12031e-09 -0.000161503)
(5.08785e-09 -2.43907e-09 -0.000154567)
(3.21585e-08 -2.22721e-08 -0.000161498)
(1.45467e-08 -5.91359e-09 -0.000161513)
(6.17915e-09 -1.74736e-08 -0.000161528)
(1.73351e-10 6.35255e-09 -0.000161605)
(-1.47054e-08 1.06314e-08 -0.000161461)
(-9.7037e-09 6.57547e-10 -0.000161403)
(-6.01706e-09 1.76704e-08 -0.000161611)
(-1.18902e-09 -3.66802e-09 -0.000161547)
(3.90978e-08 -2.42105e-08 -0.000161534)
(2.52982e-08 -1.4453e-08 -0.000154637)
(3.80846e-09 -6.57938e-10 -0.000155377)
(-2.72088e-09 1.59855e-09 -0.000155313)
(2.73647e-09 -1.13216e-09 -0.00016218)
(-3.62088e-09 5.12444e-10 -0.000162124)
(-8.20637e-09 -7.66143e-10 -0.000161413)
(-1.91911e-10 4.68286e-09 -0.000154433)
(3.63462e-08 -1.79763e-08 -0.000161562)
(9.86037e-09 -1.0274e-08 -0.000161444)
(3.9203e-09 -4.73496e-10 -0.000161595)
(2.50666e-09 -1.04005e-08 -0.00016154)
(-2.42776e-08 8.97087e-09 -0.000161378)
(-2.661e-09 3.75978e-09 -0.00016148)
(-4.44451e-09 2.3299e-09 -0.00016155)
(-3.39753e-09 1.2907e-08 -0.00016161)
(2.35167e-08 -1.59011e-08 -0.000154572)
(5.50602e-09 2.61592e-10 -0.000154584)
(-3.42128e-08 -2.3615e-08 -0.000161496)
(-1.20887e-08 -4.41185e-09 -0.000161514)
(-1.06223e-09 -7.5694e-09 -0.000154628)
(3.76961e-09 1.81611e-09 -0.000154738)
(8.1207e-10 7.55758e-09 -0.000161514)
(1.63534e-09 -3.74286e-09 -0.000161591)
(-2.55467e-08 5.04491e-09 -0.000154372)
(-2.20166e-08 1.29716e-08 -0.000154506)
(3.02981e-08 1.23342e-08 -0.000161364)
(2.31307e-08 1.58703e-08 -0.000161464)
(-7.90002e-09 9.48919e-09 -0.000154652)
(-2.31804e-11 1.10047e-08 -0.000154741)
(1.87479e-09 9.53942e-09 -0.000161545)
(1.47486e-09 -3.58493e-09 -0.000161609)
(-1.36242e-08 1.38106e-09 -0.000154407)
(1.16287e-09 4.37522e-09 -0.000154565)
(2.00504e-08 7.63934e-09 -0.000161398)
(-5.05587e-09 1.00988e-09 -0.000161508)
(-4.30218e-09 1.41203e-10 -0.000154645)
(4.53543e-09 -5.999e-10 -0.000154738)
(2.12126e-09 1.02041e-08 -0.000161548)
(9.70196e-10 -4.44825e-09 -0.000161609)
(3.24536e-09 -5.63306e-09 -0.00015445)
(9.02142e-09 7.8936e-10 -0.000154584)
(-3.21073e-09 -5.34524e-09 -0.00016142)
(-1.29237e-08 -3.69257e-09 -0.000161516)
(-2.2927e-09 -5.29237e-09 -0.000154646)
(5.16415e-09 -2.58922e-09 -0.000154733)
(4.41683e-10 7.32651e-09 -0.000161542)
(-1.74413e-12 -6.02051e-09 -0.000161597)
(6.09027e-10 -4.76116e-09 -0.000154446)
(5.48146e-09 2.14815e-09 -0.000154577)
(5.47201e-09 -6.56173e-10 -0.000161418)
(-5.1825e-09 6.07909e-10 -0.000161512)
(-2.66713e-09 -4.22504e-09 -0.000154638)
(4.60494e-09 -9.8136e-10 -0.000154728)
(9.45306e-10 8.10522e-09 -0.000161532)
(5.38162e-10 -5.20603e-09 -0.000161592)
(-1.37529e-09 -3.98029e-09 -0.000154442)
(4.32793e-09 2.63046e-09 -0.000154575)
(3.8009e-09 -1.62156e-09 -0.000161413)
(-7.76387e-09 -8.97619e-10 -0.000161509)
(-3.07043e-09 -3.11965e-09 -0.000154636)
(4.36632e-09 -3.02992e-10 -0.000154727)
(1.23426e-09 8.56583e-09 -0.000161531)
(7.30916e-10 -4.87373e-09 -0.000161592)
(-1.5832e-09 -3.88392e-09 -0.000154441)
(4.41783e-09 2.60339e-09 -0.000154575)
(7.22139e-09 3.33622e-10 -0.000161415)
(-4.44935e-09 1.02331e-09 -0.00016151)
(-3.16871e-09 -2.87123e-09 -0.000154636)
(4.30732e-09 -1.52675e-10 -0.000154727)
(1.25839e-09 8.61334e-09 -0.000161531)
(6.89823e-10 -4.9421e-09 -0.000161592)
(-1.47635e-09 -3.93214e-09 -0.000154441)
(4.41939e-09 2.59968e-09 -0.000154575)
(3.79512e-09 -1.61633e-09 -0.000161413)
(-7.8861e-09 -9.58638e-10 -0.000161509)
(-3.17787e-09 -2.84881e-09 -0.000154636)
(4.30195e-09 -1.41154e-10 -0.000154727)
(1.29085e-09 8.67508e-09 -0.000161531)
(7.54473e-10 -4.81338e-09 -0.000161592)
(-1.59946e-09 -3.88386e-09 -0.000154441)
(4.36734e-09 2.62314e-09 -0.000154575)
(7.1685e-09 3.04667e-10 -0.000161414)
(-4.46029e-09 1.01792e-09 -0.00016151)
(-3.17538e-09 -2.85193e-09 -0.000154636)
(4.31504e-09 -1.72858e-10 -0.000154727)
(1.27723e-09 8.64719e-09 -0.000161531)
(7.26965e-10 -4.87526e-09 -0.000161592)
(-1.54493e-09 -3.90435e-09 -0.000154441)
(4.82836e-09 2.57262e-09 -0.000154573)
(3.86212e-09 -1.5892e-09 -0.000161412)
(-8.18233e-09 -1.6193e-09 -0.000161509)
(-3.17671e-09 -2.85044e-09 -0.000154636)
(4.29758e-09 -1.26183e-10 -0.000154727)
(1.26147e-09 8.62067e-09 -0.000161531)
(7.31279e-10 -4.85969e-09 -0.000161592)
(-1.50461e-09 -3.62876e-09 -0.000154439)
(5.27515e-09 2.73694e-09 -0.000154575)
(7.30515e-09 1.14125e-10 -0.000161416)
(-4.49747e-09 9.80367e-10 -0.000161512)
(-3.14865e-09 -2.92627e-09 -0.000154636)
(4.32418e-09 -1.99956e-10 -0.000154727)
(1.26056e-09 8.62047e-09 -0.000161531)
(7.16447e-10 -4.89151e-09 -0.000161592)
(-1.42212e-09 -3.96737e-09 -0.000154441)
(4.34774e-09 2.63001e-09 -0.000154573)
(4.54092e-09 -1.99936e-09 -0.000161413)
(-7.90084e-09 -9.95282e-10 -0.000161509)
(-3.17453e-09 -2.8577e-09 -0.000154636)
(4.29775e-09 -1.28325e-10 -0.000154727)
(1.27023e-09 8.63314e-09 -0.000161531)
(7.41393e-10 -4.84514e-09 -0.000161592)
(-1.58025e-09 -3.89209e-09 -0.00015444)
(4.36167e-09 2.63175e-09 -0.000154573)
(7.20841e-09 3.18028e-10 -0.000161413)
(-4.49981e-09 9.84057e-10 -0.000161509)
(-3.18448e-09 -2.83102e-09 -0.000154636)
(4.31426e-09 -1.71451e-10 -0.000154727)
(1.25909e-09 8.61393e-09 -0.000161531)
(7.10429e-10 -4.90475e-09 -0.000161592)
(-1.53832e-09 -3.90787e-09 -0.00015444)
(4.31651e-09 2.64733e-09 -0.000154573)
(3.80732e-09 -1.60578e-09 -0.000161412)
(-7.92617e-09 -9.79353e-10 -0.000161508)
(-3.17688e-09 -2.85189e-09 -0.000154636)
(4.31279e-09 -1.6935e-10 -0.000154727)
(1.24818e-09 8.59838e-09 -0.000161531)
(7.63914e-10 -4.80453e-09 -0.000161592)
(-1.523e-09 -3.9128e-09 -0.00015444)
(4.49908e-09 2.57855e-09 -0.000154573)
(7.24317e-09 3.45699e-10 -0.000161414)
(-4.59846e-09 9.27698e-10 -0.000161509)
(-3.16281e-09 -2.88766e-09 -0.000154636)
(4.32804e-09 -2.12143e-10 -0.000154727)
(1.17288e-09 8.46735e-09 -0.00016153)
(8.9417e-10 -4.59533e-09 -0.000161594)
(-1.47511e-09 -3.9313e-09 -0.00015444)
(4.36579e-09 2.62442e-09 -0.000154573)
(3.84881e-09 -1.57459e-09 -0.000161413)
(-7.88271e-09 -9.71015e-10 -0.000161507)
(-3.15966e-09 -2.88793e-09 -0.000154636)
(4.32313e-09 -2.00977e-10 -0.000154727)
(9.96255e-10 8.18784e-09 -0.000161528)
(1.00812e-09 -4.47137e-09 -0.000161596)
(-1.50791e-09 -3.91612e-09 -0.00015444)
(4.55932e-09 2.55375e-09 -0.000154573)
(6.89735e-09 1.86413e-10 -0.000161414)
(-4.63003e-09 1.01005e-09 -0.000161511)
(-3.15712e-09 -2.89592e-09 -0.000154636)
(4.31999e-09 -1.67881e-10 -0.000154727)
(9.77507e-10 8.44772e-09 -0.000161527)
(2.6483e-09 -1.62974e-09 -0.000161589)
(-2.49424e-08 -1.64495e-08 -0.000154568)
(-3.84561e-09 9.14609e-10 -0.00015458)
(-1.70352e-08 1.02869e-08 -0.000154511)
(-6.60955e-09 -3.42881e-09 -0.000154423)
(1.72058e-08 1.03292e-08 -0.000154508)
(8.178e-09 -2.78731e-09 -0.00015442)
(-8.51269e-09 -2.13214e-08 -0.000161526)
(1.03758e-09 8.60963e-09 -0.000161607)
(1.13804e-08 8.69627e-09 -0.000161467)
(1.06812e-08 1.4483e-09 -0.000161403)
(4.37771e-09 1.50639e-08 -0.000161614)
(1.30248e-09 -3.65405e-09 -0.00016155)
(-4.07879e-09 -2.84599e-11 -0.000154623)
(4.75132e-09 5.72173e-10 -0.000154733)
(1.47852e-10 1.07923e-08 -0.000154744)
(-4.82754e-09 1.81048e-09 -0.000154649)
(4.88221e-09 1.35469e-09 -0.000154744)
(-2.51066e-09 3.94916e-09 -0.000154645)
(2.33172e-10 -9.44258e-09 -0.000154626)
(-3.55568e-09 2.49608e-09 -0.00015474)
(3.02102e-09 2.4363e-09 -0.000154623)
(-5.35971e-09 2.12951e-09 -0.000154734)
(-2.32425e-10 1.05988e-08 -0.000154746)
(5.19335e-09 2.81036e-09 -0.00015465)
(-4.50818e-09 3.86996e-10 -0.000154746)
(2.14953e-09 4.80492e-09 -0.000154647)
(-7.18372e-09 -6.31159e-10 -0.000161411)
(5.91736e-09 -3.73863e-10 -0.000161516)
(1.48085e-09 -3.78112e-09 -0.000161604)
(2.29876e-09 1.01181e-08 -0.000161534)
(6.65928e-09 1.23498e-10 -0.000161528)
(-9.74719e-09 -2.05161e-09 -0.000161426)
(-1.83523e-09 3.57122e-09 -0.000154434)
(2.77848e-09 -3.52742e-09 -0.00015458)
(7.68071e-10 4.00342e-09 -0.00015443)
(-2.62486e-09 -3.64862e-09 -0.000154578)
(3.06977e-09 -3.37281e-09 -0.000154591)
(-3.80937e-09 2.8337e-09 -0.000154447)
(-2.22492e-09 -3.69148e-09 -0.00015459)
(4.21537e-09 2.66497e-09 -0.000154447)
(-2.36375e-09 1.00287e-08 -0.000161512)
(-2.39952e-09 -2.31793e-09 -0.00016159)
(6.48389e-09 -1.59677e-10 -0.000161409)
(-5.31718e-09 -7.71327e-10 -0.000161515)
(-8.41394e-10 -4.83683e-09 -0.000161602)
(-2.52937e-09 1.05424e-08 -0.000161533)
(-5.44713e-09 -5.62427e-10 -0.000161531)
(1.08921e-08 -2.69642e-09 -0.000161427)
(-3.33068e-08 1.41413e-08 -0.000161365)
(-2.11275e-08 1.47107e-08 -0.000161458)
(-6.33479e-09 5.72365e-09 -0.00016155)
(-6.39409e-09 1.82784e-08 -0.000161608)
(-9.92823e-09 9.00937e-09 -0.000161481)
(-3.43298e-08 1.52381e-08 -0.000161371)
(-2.19053e-09 1.03904e-08 -0.000161604)
(-5.20541e-09 3.51919e-09 -0.000161546)
(2.49931e-08 4.84204e-09 -0.000154367)
(2.4414e-08 1.39795e-08 -0.000154502)
(-1.18001e-08 9.42174e-09 -0.000154532)
(-2.58981e-08 5.82477e-09 -0.000154376)
(1.1716e-08 9.36788e-09 -0.00015453)
(2.78233e-08 6.62699e-09 -0.000154373)
(4.51885e-09 2.75937e-09 -0.000161557)
(6.12921e-09 1.77535e-08 -0.00016161)
(1.00582e-08 9.09353e-09 -0.000161489)
(3.70413e-08 1.66624e-08 -0.00016137)
(2.31663e-09 1.04195e-08 -0.0001616)
(4.71234e-09 2.68365e-09 -0.000161551)
(-2.62838e-09 3.9556e-09 -0.000154653)
(4.91186e-09 1.6694e-09 -0.000154747)
(2.59838e-09 4.23907e-09 -0.000154737)
(-7.01958e-09 7.09514e-09 -0.000154649)
(4.95025e-09 1.90841e-09 -0.000154745)
(-2.48226e-09 4.5832e-09 -0.000154655)
(7.24116e-09 7.82958e-09 -0.000154655)
(-5.1689e-10 9.60923e-09 -0.000154746)
(3.12261e-09 2.70075e-09 -0.000154656)
(-4.01754e-09 -6.92879e-10 -0.000154749)
(-2.7359e-09 3.63848e-09 -0.000154739)
(6.3233e-09 5.34978e-09 -0.000154652)
(-4.3382e-09 4.09244e-10 -0.000154746)
(3.41313e-09 2.18726e-09 -0.000154657)
(-8.56756e-09 -1.29775e-09 -0.000161437)
(7.61902e-09 7.08751e-10 -0.000161534)
(1.66858e-09 -3.15462e-09 -0.000161609)
(2.03383e-09 1.00151e-08 -0.000161548)
(8.41148e-09 1.15663e-09 -0.000161535)
(-7.61737e-09 -7.29373e-10 -0.000161441)
(-2.93105e-09 3.25812e-09 -0.000154457)
(3.69238e-09 -3.06563e-09 -0.000154596)
(4.09457e-09 2.81744e-09 -0.000154456)
(-1.90019e-09 -3.74886e-09 -0.000154594)
(4.10312e-09 -2.88794e-09 -0.000154597)
(-2.49099e-09 3.47784e-09 -0.00015446)
(-3.15445e-09 -3.27216e-09 -0.000154597)
(4.37563e-09 2.75386e-09 -0.00015446)
(-8.10539e-10 7.61621e-09 -0.000161542)
(2.75233e-11 -6.2953e-09 -0.000161605)
(1.025e-08 -2.22822e-09 -0.00016144)
(-5.31824e-09 -5.49462e-10 -0.000161538)
(-9.20465e-10 -4.40454e-09 -0.000161603)
(-3.91827e-10 6.98044e-09 -0.000161544)
(-7.27175e-09 5.25516e-10 -0.00016154)
(1.02391e-08 -2.15085e-09 -0.000161446)
(-2.08204e-08 8.22846e-09 -0.000161395)
(4.78412e-09 1.09579e-09 -0.000161505)
(-6.44831e-10 -4.98736e-09 -0.000161542)
(1.25331e-09 4.03998e-09 -0.000161605)
(1.201e-08 -3.12328e-09 -0.000161516)
(-7.52057e-09 9.50369e-10 -0.000161418)
(2.30958e-09 1.81761e-09 -0.000161605)
(2.12806e-09 -1.01373e-08 -0.000161545)
(1.22267e-08 8.23378e-10 -0.000154405)
(-3.0298e-09 3.61128e-09 -0.000154561)
(8.31955e-09 1.28114e-09 -0.000154582)
(-1.82409e-09 -3.34328e-09 -0.000154437)
(-1.17061e-08 -1.18567e-10 -0.000154577)
(-2.60342e-10 -4.17336e-09 -0.000154434)
(8.15948e-10 -4.76861e-09 -0.000161539)
(9.76383e-10 7.86919e-09 -0.000161596)
(-1.84152e-08 -6.78039e-09 -0.00016152)
(5.45336e-09 5.43975e-11 -0.000161418)
(-4.90757e-09 -2.65436e-09 -0.000161593)
(-1.5248e-09 -9.44015e-09 -0.000161535)
(-2.56862e-09 4.40515e-09 -0.000154653)
(4.3374e-09 2.65392e-10 -0.000154745)
(5.2048e-09 -2.61826e-09 -0.000154738)
(-2.74512e-09 -3.87375e-09 -0.000154647)
(3.59268e-09 -1.34496e-09 -0.000154742)
(-3.33824e-09 2.49748e-09 -0.000154653)
(4.22532e-09 -2.59172e-10 -0.000154645)
(-3.91543e-09 6.98691e-10 -0.000154734)
(2.89859e-09 3.71127e-09 -0.000154654)
(-4.66966e-09 1.3885e-09 -0.000154742)
(-5.34672e-09 -3.18228e-09 -0.000154728)
(3.2941e-09 -2.84144e-09 -0.000154639)
(-4.12501e-09 9.10468e-11 -0.000154737)
(2.85261e-09 3.96215e-09 -0.00015465)
(-7.03926e-09 -4.2258e-10 -0.000161442)
(8.15442e-09 1.04057e-09 -0.000161535)
(-1.92888e-11 -6.04976e-09 -0.000161605)
(1.17537e-09 8.49382e-09 -0.000161548)
(7.61974e-09 8.87071e-10 -0.00016153)
(-7.47758e-09 -5.89649e-10 -0.000161441)
(-2.13564e-09 3.61826e-09 -0.000154461)
(4.07885e-09 -2.87676e-09 -0.000154598)
(2.47768e-09 3.47991e-09 -0.000154462)
(-5.68608e-09 -2.22972e-09 -0.000154598)
(3.78536e-09 -2.85503e-09 -0.000154594)
(-2.28581e-09 3.62457e-09 -0.000154461)
(-5.40862e-09 -2.20777e-09 -0.000154592)
(4.09873e-10 4.37959e-09 -0.000154462)
(-1.6643e-09 9.42898e-09 -0.000161541)
(-1.78379e-09 -2.7524e-09 -0.0001616)
(7.71501e-09 -7.84996e-10 -0.000161447)
(-9.80583e-09 1.9532e-09 -0.000161539)
(-1.04458e-09 -4.0391e-09 -0.000161594)
(-2.04382e-09 1.02679e-08 -0.000161538)
(-9.21617e-09 1.7515e-09 -0.000161532)
(5.73595e-09 3.8669e-10 -0.000161445)
(-2.34778e-09 -2.12473e-09 -0.000161424)
(1.22442e-08 -3.3778e-09 -0.000161514)
(2.78558e-09 -1.1602e-08 -0.000161542)
(2.20159e-09 2.01276e-09 -0.0001616)
(1.00089e-08 -2.18759e-09 -0.000161511)
(-3.13682e-09 -1.79795e-09 -0.000161421)
(1.76105e-09 2.89432e-09 -0.000161596)
(2.53632e-09 -1.11185e-08 -0.000161537)
(-7.14619e-09 -7.17661e-09 -0.000154442)
(-1.01378e-08 4.00845e-10 -0.000154577)
(6.7493e-09 1.64534e-09 -0.000154581)
(2.85206e-09 -5.61285e-09 -0.000154449)
(-7.64366e-09 1.29063e-09 -0.000154575)
(-4.04081e-09 -6.04224e-09 -0.000154443)
(-5.45655e-09 -1.61665e-08 -0.000161535)
(-3.44731e-09 -2.16232e-10 -0.000161592)
(-1.02071e-08 -2.24938e-09 -0.000161516)
(3.19068e-09 -1.81393e-09 -0.000161417)
(-2.1726e-09 2.15774e-09 -0.000161591)
(-3.94784e-09 -1.35261e-08 -0.000161535)
(-3.9012e-09 1.34863e-09 -0.000154649)
(3.56528e-09 -1.4502e-09 -0.000154735)
(4.9415e-09 -1.89922e-09 -0.00015473)
(-2.43967e-09 -4.90469e-09 -0.000154641)
(3.81482e-09 -9.16651e-10 -0.000154731)
(-3.83747e-09 1.43187e-09 -0.000154643)
(1.50742e-09 -7.3659e-09 -0.000154636)
(-6.04815e-09 -4.76262e-09 -0.000154727)
(3.41597e-09 2.52314e-09 -0.000154644)
(-3.63807e-09 -1.38653e-09 -0.000154733)
(-5.52617e-09 -3.34555e-09 -0.000154728)
(1.38131e-09 -7.46349e-09 -0.000154635)
(-3.7031e-09 -1.2979e-09 -0.000154731)
(3.82772e-09 1.31443e-09 -0.000154641)
(-7.93365e-09 -7.39619e-10 -0.000161435)
(7.4441e-09 7.56857e-10 -0.000161523)
(3.35679e-10 -5.5078e-09 -0.000161593)
(6.10334e-10 7.577e-09 -0.000161535)
(7.3635e-09 6.70661e-10 -0.000161519)
(-8.07938e-09 -8.6096e-10 -0.000161428)
(-2.5829e-09 3.60796e-09 -0.000154455)
(3.56066e-09 -2.97203e-09 -0.000154587)
(1.30816e-09 4.10651e-09 -0.000154455)
(-3.81923e-09 -2.87608e-09 -0.000154586)
(3.60365e-09 -2.9975e-09 -0.000154583)
(-2.71741e-09 3.51813e-09 -0.000154449)
(-2.97824e-09 -3.24918e-09 -0.000154582)
(2.78107e-09 3.49028e-09 -0.000154449)
(-1.17326e-09 8.64122e-09 -0.000161532)
(-2.14039e-10 -5.70056e-09 -0.00016159)
(6.98686e-09 -2.18806e-10 -0.000161437)
(-7.5042e-09 7.7853e-10 -0.000161525)
(-2.13226e-10 -5.76675e-09 -0.000161589)
(-4.93006e-10 7.25465e-09 -0.000161528)
(-6.73348e-09 3.14408e-10 -0.000161522)
(8.56059e-09 -1.12138e-09 -0.000161432)
(-5.35964e-09 -5.8863e-10 -0.000161418)
(8.53558e-09 -1.36604e-09 -0.000161508)
(2.0608e-09 -1.01622e-08 -0.000161534)
(1.24678e-09 3.93438e-09 -0.000161594)
(7.55072e-09 -8.24429e-10 -0.000161506)
(-6.69275e-09 1.69809e-10 -0.000161415)
(1.00957e-09 4.36786e-09 -0.000161593)
(1.60307e-09 -9.24429e-09 -0.000161533)
(-1.45642e-09 -5.07553e-09 -0.000154441)
(-3.80518e-09 2.80842e-09 -0.000154573)
(4.43565e-09 2.58651e-09 -0.000154576)
(-5.19784e-10 -4.32173e-09 -0.000154443)
(-5.02651e-09 2.31704e-09 -0.000154571)
(2.2029e-09 -3.65003e-09 -0.000154439)
(-2.28352e-09 -1.03897e-08 -0.000161531)
(1.18496e-09 8.37896e-09 -0.000161591)
(-1.15172e-08 -3.14663e-09 -0.000161514)
(8.38958e-09 1.30825e-09 -0.000161418)
(-2.96075e-09 1.16275e-09 -0.000161589)
(-6.40205e-10 -7.64702e-09 -0.00016153)
(-3.55678e-09 2.03327e-09 -0.000154639)
(4.00561e-09 -5.64515e-10 -0.00015473)
(4.45805e-09 -5.33e-10 -0.000154727)
(-2.97579e-09 -3.37543e-09 -0.000154636)
(4.11677e-09 -2.67448e-10 -0.00015473)
(-3.40931e-09 2.3031e-09 -0.000154638)
(2.20973e-09 -5.25351e-09 -0.000154636)
(-4.0092e-09 6.45723e-10 -0.000154727)
(3.63586e-09 1.7448e-09 -0.00015464)
(-3.90625e-09 -8.34272e-10 -0.000154731)
(-4.33458e-09 -3.77137e-10 -0.000154724)
(3.6021e-09 -1.82341e-09 -0.000154633)
(-4.04968e-09 -4.24778e-10 -0.000154731)
(3.48224e-09 2.10586e-09 -0.000154639)
(-8.148e-09 -9.4459e-10 -0.000161425)
(7.41426e-09 6.51796e-10 -0.000161518)
(6.73759e-10 -4.99148e-09 -0.000161592)
(1.09913e-09 8.31609e-09 -0.00016153)
(7.23773e-09 5.60861e-10 -0.000161518)
(-8.12155e-09 -9.64509e-10 -0.000161424)
(-2.6571e-09 3.49779e-09 -0.000154446)
(3.71977e-09 -2.99476e-09 -0.000154581)
(3.34537e-09 3.22337e-09 -0.000154447)
(-3.29643e-09 -3.15901e-09 -0.000154581)
(3.59955e-09 -3.03442e-09 -0.000154581)
(-2.57596e-09 3.498e-09 -0.000154445)
(-3.40776e-09 -3.11021e-09 -0.000154581)
(2.92745e-09 3.36478e-09 -0.000154446)
(-6.75509e-10 7.52846e-09 -0.000161527)
(-4.63511e-10 -5.33557e-09 -0.000161588)
(9.05719e-09 -1.43686e-09 -0.000161429)
(-7.05446e-09 4.53125e-10 -0.000161521)
(-6.54035e-10 -4.98046e-09 -0.000161588)
(-8.73934e-10 7.88301e-09 -0.000161527)
(-7.21366e-09 5.41817e-10 -0.000161521)
(8.6266e-09 -1.22641e-09 -0.000161428)
(-7.53611e-09 6.35212e-10 -0.000161414)
(7.34798e-09 -6.9737e-10 -0.000161506)
(1.46153e-09 -8.93599e-09 -0.000161532)
(9.10073e-10 4.60474e-09 -0.000161593)
(7.19889e-09 -6.22907e-10 -0.000161506)
(-7.66147e-09 7.16659e-10 -0.000161414)
(8.9275e-10 4.60959e-09 -0.000161593)
(1.34432e-09 -8.71153e-09 -0.000161532)
(-3.82745e-10 -4.63756e-09 -0.000154436)
(-5.12741e-09 2.36162e-09 -0.000154569)
(4.04558e-09 2.75744e-09 -0.000154575)
(-1.43707e-09 -3.94604e-09 -0.000154441)
(-5.51238e-09 2.16348e-09 -0.00015457)
(2.58902e-10 -4.38188e-09 -0.000154435)
(-3.50144e-09 -1.23742e-08 -0.000161533)
(-1.87949e-09 2.74639e-09 -0.00016159)
(-7.99342e-09 -1.0201e-09 -0.000161512)
(7.64122e-09 6.23753e-10 -0.00016141)
(-1.34949e-09 3.70265e-09 -0.000161589)
(-2.58613e-09 -1.09644e-08 -0.000161532)
(-3.307e-09 2.57188e-09 -0.000154638)
(4.1511e-09 -2.02013e-10 -0.00015473)
(4.37446e-09 -3.01499e-10 -0.000154727)
(-3.17736e-09 -2.84206e-09 -0.000154635)
(4.14484e-09 -1.96473e-10 -0.00015473)
(-3.29475e-09 2.57559e-09 -0.000154638)
(2.56145e-09 -4.46765e-09 -0.000154633)
(-5.05603e-09 -2.17813e-09 -0.000154725)
(3.34208e-09 2.47576e-09 -0.000154639)
(-4.0656e-09 -4.19216e-10 -0.00015473)
(-4.92211e-09 -1.80546e-09 -0.000154726)
(2.26559e-09 -5.18047e-09 -0.000154634)
(-4.1273e-09 -2.34563e-10 -0.000154731)
(3.35332e-09 2.42557e-09 -0.000154639)
(-8.26493e-09 -1.03893e-09 -0.000161424)
(7.27854e-09 5.73053e-10 -0.000161518)
(7.25318e-10 -4.89291e-09 -0.000161592)
(1.25531e-09 8.59267e-09 -0.000161531)
(7.17888e-09 5.31146e-10 -0.000161518)
(-8.23313e-09 -1.02436e-09 -0.000161425)
(-2.69799e-09 3.45441e-09 -0.000154445)
(3.62012e-09 -3.03702e-09 -0.000154581)
(2.85799e-09 3.39352e-09 -0.000154446)
(-3.58181e-09 -3.05325e-09 -0.000154581)
(3.54234e-09 -3.05605e-09 -0.000154582)
(-2.65333e-09 3.46945e-09 -0.000154445)
(-3.39511e-09 -3.11696e-09 -0.000154582)
(2.74625e-09 3.43028e-09 -0.000154446)
(-1.06116e-09 8.23118e-09 -0.000161527)
(-7.09405e-10 -4.89659e-09 -0.000161588)
(8.54183e-09 -1.17996e-09 -0.000161428)
(-7.37502e-09 6.18745e-10 -0.000161521)
(-7.94555e-10 -4.72956e-09 -0.000161588)
(-1.08407e-09 8.26423e-09 -0.000161527)
(-7.23157e-09 5.49207e-10 -0.000161521)
(8.38447e-09 -1.10253e-09 -0.000161428)
(-7.68189e-09 7.12633e-10 -0.000161414)
(7.36749e-09 -7.08989e-10 -0.000161505)
(1.34429e-09 -8.73237e-09 -0.000161532)
(8.29943e-10 4.73072e-09 -0.000161593)
(7.27232e-09 -6.54123e-10 -0.000161505)
(-7.60248e-09 6.87798e-10 -0.000161413)
(8.76548e-10 4.63807e-09 -0.000161593)
(1.289e-09 -8.6304e-09 -0.000161532)
(1.624e-10 -4.43787e-09 -0.000154436)
(-3.2529e-09 3.04619e-09 -0.00015457)
(4.183e-09 2.69903e-09 -0.000154575)
(-1.32988e-09 -3.98199e-09 -0.000154441)
(-4.9838e-09 2.35105e-09 -0.000154571)
(2.60214e-09 -3.47151e-09 -0.000154437)
(-1.61613e-09 -9.138e-09 -0.00016153)
(1.48113e-09 8.93838e-09 -0.00016159)
(-1.14635e-08 -3.10068e-09 -0.000161513)
(8.83848e-09 1.57878e-09 -0.000161416)
(-2.83275e-09 1.41421e-09 -0.000161588)
(-4.07174e-10 -7.19604e-09 -0.000161529)
(-3.2936e-09 2.60655e-09 -0.000154638)
(4.12664e-09 -2.64516e-10 -0.00015473)
(4.35033e-09 -2.41038e-10 -0.000154727)
(-3.2381e-09 -2.69831e-09 -0.000154635)
(4.15214e-09 -1.67747e-10 -0.00015473)
(-3.31877e-09 2.51429e-09 -0.000154638)
(2.71367e-09 -3.97412e-09 -0.000154634)
(-3.74284e-09 1.33024e-09 -0.000154726)
(3.26224e-09 2.67137e-09 -0.000154639)
(-4.14551e-09 -2.0774e-10 -0.000154731)
(-4.24491e-09 -1.39533e-10 -0.000154724)
(3.79987e-09 -1.29764e-09 -0.000154632)
(-4.14797e-09 -1.59083e-10 -0.000154731)
(3.27604e-09 2.61394e-09 -0.000154639)
(-8.3136e-09 -1.06125e-09 -0.000161425)
(7.26973e-09 5.7236e-10 -0.000161518)
(7.35292e-10 -4.87596e-09 -0.000161592)
(1.20633e-09 8.50871e-09 -0.000161531)
(7.18394e-09 5.30887e-10 -0.000161519)
(-8.23271e-09 -1.02521e-09 -0.000161425)
(-2.72994e-09 3.44447e-09 -0.000154445)
(3.60821e-09 -3.03982e-09 -0.000154582)
(2.87944e-09 3.38487e-09 -0.000154446)
(-3.6696e-09 -3.01613e-09 -0.000154582)
(3.51542e-09 -3.06597e-09 -0.000154582)
(-2.70341e-09 3.44585e-09 -0.000154445)
(-3.53412e-09 -3.05905e-09 -0.000154582)
(2.64458e-09 3.47006e-09 -0.000154446)
(-1.19148e-09 8.46659e-09 -0.000161527)
(-7.99858e-10 -4.72738e-09 -0.000161588)
(8.55641e-09 -1.18797e-09 -0.000161429)
(-7.44696e-09 6.60707e-10 -0.000161521)
(-8.08798e-10 -4.69617e-09 -0.000161588)
(-1.15004e-09 8.38571e-09 -0.000161527)
(-7.3956e-09 6.38803e-10 -0.000161521)
(8.27691e-09 -1.04154e-09 -0.000161429)
(-7.69285e-09 7.31168e-10 -0.000161413)
(7.39552e-09 -7.2078e-10 -0.000161505)
(1.33946e-09 -8.72136e-09 -0.000161532)
(8.10236e-10 4.76439e-09 -0.000161593)
(7.16114e-09 -5.93018e-10 -0.000161505)
(-7.61374e-09 6.88166e-10 -0.000161413)
(8.69908e-10 4.65393e-09 -0.000161593)
(1.2637e-09 -8.58772e-09 -0.000161532)
(-4.32615e-10 -4.64914e-09 -0.000154435)
(-5.24934e-09 2.31676e-09 -0.000154569)
(4.06742e-09 2.74701e-09 -0.000154575)
(-1.34509e-09 -3.97992e-09 -0.000154441)
(-5.5712e-09 2.1419e-09 -0.00015457)
(1.36486e-10 -4.42618e-09 -0.000154435)
(-3.42601e-09 -1.22218e-08 -0.000161532)
(-1.83998e-09 2.82873e-09 -0.00016159)
(-8.0852e-09 -1.06709e-09 -0.000161512)
(7.52666e-09 5.64187e-10 -0.00016141)
(-1.37258e-09 3.65976e-09 -0.000161589)
(-2.55642e-09 -1.08988e-08 -0.000161532)
(-3.28163e-09 2.64501e-09 -0.000154639)
(4.14379e-09 -1.97798e-10 -0.00015473)
(4.35997e-09 -2.59598e-10 -0.000154727)
(-3.23959e-09 -2.69791e-09 -0.000154636)
(4.15149e-09 -1.81587e-10 -0.00015473)
(-3.30547e-09 2.57019e-09 -0.000154638)
(2.62923e-09 -4.29503e-09 -0.000154633)
(-5.02207e-09 -2.08214e-09 -0.000154725)
(3.26099e-09 2.69033e-09 -0.000154639)
(-4.09598e-09 -3.24853e-10 -0.00015473)
(-4.92522e-09 -1.81329e-09 -0.000154726)
(2.28793e-09 -5.10712e-09 -0.000154633)
(-4.16193e-09 -1.45825e-10 -0.000154731)
(3.32492e-09 2.50088e-09 -0.000154639)
(-8.30305e-09 -1.05787e-09 -0.000161425)
(7.29307e-09 5.87122e-10 -0.000161519)
(7.36907e-10 -4.87194e-09 -0.000161592)
(1.2646e-09 8.63106e-09 -0.000161531)
(7.19757e-09 5.40988e-10 -0.000161519)
(-8.19717e-09 -1.00254e-09 -0.000161425)
(-2.72578e-09 3.4471e-09 -0.000154445)
(3.619e-09 -3.03483e-09 -0.000154582)
(2.73376e-09 3.44419e-09 -0.000154446)
(-3.66856e-09 -3.01458e-09 -0.000154582)
(3.53986e-09 -3.05473e-09 -0.000154582)
(-2.67452e-09 3.45873e-09 -0.000154445)
(-3.4468e-09 -3.09549e-09 -0.000154582)
(2.67272e-09 3.46102e-09 -0.000154446)
(-1.18984e-09 8.47233e-09 -0.000161527)
(-7.61392e-10 -4.79287e-09 -0.000161588)
(8.41293e-09 -1.10971e-09 -0.000161429)
(-7.40926e-09 6.43055e-10 -0.000161521)
(-8.43389e-10 -4.64223e-09 -0.000161588)
(-1.12103e-09 8.33971e-09 -0.000161527)
(-7.27031e-09 5.69685e-10 -0.000161521)
(8.35576e-09 -1.08189e-09 -0.000161429)
(-7.79664e-09 7.87722e-10 -0.000161414)
(7.35096e-09 -6.91788e-10 -0.000161505)
(1.33371e-09 -8.71107e-09 -0.000161532)
(8.4582e-10 4.70722e-09 -0.000161593)
(7.16318e-09 -5.91753e-10 -0.000161505)
(-7.59279e-09 6.76953e-10 -0.000161414)
(8.62277e-10 4.659e-09 -0.000161593)
(1.29344e-09 -8.63871e-09 -0.000161532)
(1.20428e-10 -4.45364e-09 -0.000154436)
(-3.23734e-09 3.05375e-09 -0.00015457)
(4.14229e-09 2.71563e-09 -0.000154575)
(-1.36726e-09 -3.96901e-09 -0.000154441)
(-4.94089e-09 2.36547e-09 -0.000154571)
(2.63725e-09 -3.46053e-09 -0.000154437)
(-1.64779e-09 -9.20105e-09 -0.00016153)
(1.4695e-09 8.91849e-09 -0.00016159)
(-1.1385e-08 -3.06071e-09 -0.000161513)
(8.88918e-09 1.60389e-09 -0.000161416)
(-2.81354e-09 1.45179e-09 -0.000161588)
(-4.06155e-10 -7.19403e-09 -0.000161529)
(-3.28639e-09 2.62297e-09 -0.000154639)
(4.13899e-09 -2.28186e-10 -0.00015473)
(4.34047e-09 -2.18708e-10 -0.000154727)
(-3.2278e-09 -2.72641e-09 -0.000154636)
(4.15064e-09 -1.7722e-10 -0.00015473)
(-3.30947e-09 2.55473e-09 -0.000154638)
(2.69875e-09 -4.01713e-09 -0.000154634)
(-3.75858e-09 1.28964e-09 -0.000154726)
(3.2245e-09 2.76495e-09 -0.000154639)
(-4.14928e-09 -1.85534e-10 -0.000154731)
(-4.23119e-09 -9.97192e-11 -0.000154724)
(3.79769e-09 -1.30806e-09 -0.000154632)
(-4.1273e-09 -2.27933e-10 -0.00015473)
(3.28683e-09 2.60869e-09 -0.000154639)
(-8.29525e-09 -1.05186e-09 -0.000161425)
(7.31943e-09 6.01532e-10 -0.000161519)
(7.19297e-10 -4.90113e-09 -0.000161592)
(1.24443e-09 8.58535e-09 -0.000161531)
(7.16305e-09 5.23984e-10 -0.000161519)
(-8.17981e-09 -9.9246e-10 -0.000161425)
(-2.71104e-09 3.45476e-09 -0.000154445)
(3.65817e-09 -3.01943e-09 -0.000154582)
(2.82636e-09 3.40215e-09 -0.000154447)
(-3.72209e-09 -2.99055e-09 -0.000154582)
(3.52822e-09 -3.05726e-09 -0.000154582)
(-2.64509e-09 3.46998e-09 -0.000154445)
(-3.55607e-09 -3.04823e-09 -0.000154582)
(2.59011e-09 3.49476e-09 -0.000154446)
(-1.24628e-09 8.56479e-09 -0.000161527)
(-8.34788e-10 -4.65937e-09 -0.000161588)
(8.49283e-09 -1.1579e-09 -0.000161429)
(-7.50644e-09 6.9511e-10 -0.000161521)
(-7.70733e-10 -4.76834e-09 -0.000161588)
(-1.16771e-09 8.42975e-09 -0.000161527)
(-7.42998e-09 6.59389e-10 -0.000161521)
(8.20261e-09 -9.99191e-10 -0.000161429)
(-7.74751e-09 7.59358e-10 -0.000161414)
(7.29201e-09 -2.19338e-10 -0.000161505)
(1.31607e-09 -8.68078e-09 -0.000161532)
(7.98116e-10 4.76606e-09 -0.000161593)
(6.77669e-09 -4.22831e-10 -0.000161506)
(-7.55248e-09 9.5056e-10 -0.000161414)
(9.33164e-10 4.52126e-09 -0.000161593)
(1.28137e-09 -8.59345e-09 -0.000161532)
(-3.69412e-10 -4.63507e-09 -0.000154435)
(-4.73985e-09 2.17778e-09 -0.000154569)
(3.89689e-09 2.84117e-09 -0.000154572)
(-1.37289e-09 -4.10382e-09 -0.000154437)
(-5.97204e-09 2.33506e-09 -0.00015457)
(9.98845e-10 -4.82542e-09 -0.000154436)
(-3.40656e-09 -1.21859e-08 -0.000161532)
(-1.8277e-09 2.84792e-09 -0.00016159)
(-8.37552e-09 -9.98899e-10 -0.000161514)
(6.57052e-09 -2.92858e-10 -0.000161412)
(-1.35325e-09 3.70032e-09 -0.000161589)
(-2.52759e-09 -1.08503e-08 -0.000161532)
(-3.28779e-09 2.62078e-09 -0.000154638)
(4.12857e-09 -2.42695e-10 -0.00015473)
(4.38741e-09 -3.45021e-10 -0.000154727)
(-3.23343e-09 -2.70817e-09 -0.000154636)
(4.13212e-09 -2.25457e-10 -0.00015473)
(-3.32056e-09 2.53269e-09 -0.000154638)
(2.64519e-09 -4.25034e-09 -0.000154633)
(-5.00848e-09 -2.05425e-09 -0.000154725)
(3.28337e-09 2.62189e-09 -0.000154639)
(-4.08764e-09 -3.4223e-10 -0.00015473)
(-4.91492e-09 -1.78196e-09 -0.000154726)
(2.30477e-09 -5.07365e-09 -0.000154633)
(-4.14512e-09 -1.93702e-10 -0.000154731)
(3.33499e-09 2.48658e-09 -0.000154639)
(-8.34285e-09 -1.07704e-09 -0.000161425)
(7.25783e-09 5.70105e-10 -0.000161518)
(7.23108e-10 -4.8915e-09 -0.000161592)
(1.2531e-09 8.60735e-09 -0.000161531)
(7.22509e-09 5.54782e-10 -0.000161519)
(-8.21917e-09 -1.01229e-09 -0.000161425)
(-2.74352e-09 3.44363e-09 -0.000154445)
(3.61734e-09 -3.03326e-09 -0.000154582)
(2.72837e-09 3.44533e-09 -0.000154446)
(-3.65341e-09 -3.01666e-09 -0.000154582)
(3.54312e-09 -3.05568e-09 -0.000154582)
(-2.6683e-09 3.46282e-09 -0.000154445)
(-3.4149e-09 -3.10849e-09 -0.000154582)
(2.69301e-09 3.45474e-09 -0.000154446)
(-1.15993e-09 8.41221e-09 -0.000161527)
(-7.62364e-10 -4.7936e-09 -0.000161588)
(8.39619e-09 -1.10113e-09 -0.000161429)
(-7.365e-09 6.21562e-10 -0.000161521)
(-8.08801e-10 -4.70527e-09 -0.000161588)
(-1.12188e-09 8.34302e-09 -0.000161527)
(-7.25138e-09 5.59172e-10 -0.000161521)
(8.38949e-09 -1.09868e-09 -0.000161428)
(-8.34247e-09 8.2674e-10 -0.000161416)
(8.10171e-09 -4.23785e-10 -0.000161503)
(1.38682e-09 -8.81696e-09 -0.000161532)
(8.55289e-10 4.68356e-09 -0.000161593)
(7.39797e-09 -6.99347e-10 -0.000161504)
(-7.00355e-09 9.86199e-10 -0.000161411)
(8.95141e-10 4.60257e-09 -0.000161593)