/*--------------------------------*- C++ -*----------------------------------*\
| =========                 |                                                 |
| \\      /  F ield         | OpenFOAM: The Open Source CFD Toolbox           |
|  \\    /   O peration     | Version:  2206                                  |
|   \\  /    A nd           | Website:  www.openfoam.com                      |
|    \\/     M anipulation  |                                                 |
\*---------------------------------------------------------------------------*/
FoamFile
{
    version     2.0;
    format      ascii;
    arch        "LSB;label=32;scalar=64";
    class       volScalarField;
    location    "60";
    object      k;
}
// * * * * * * * * * * * * * * * * * * * * * * * * * * * * * * * * * * * * * //

dimensions      [0 2 -2 0 0 0 0];

internalField   nonuniform List<scalar> 
66701
(
6.37114e-06
5.81787e-06
9.87032e-06
1.45149e-05
7.4011e-06
2.37796e-05
2.20641e-05
8.12733e-06
5.96036e-06
1.00975e-05
1.48457e-05
7.53701e-06
2.41787e-05
8.15805e-06
2.2247e-05
6.48403e-06
1.84455e-06
4.43506e-07
8.77305e-08
5.53917e-08
3.63883e-07
1.82908e-06
4.3955e-07
8.69669e-08
5.53027e-08
3.63722e-07
1.83907e-06
4.31518e-07
8.32513e-08
4.96575e-08
3.21825e-07
1.87869e-06
4.40609e-07
8.47868e-08
4.9824e-08
3.22003e-07
1.87754e-06
4.5154e-07
8.91396e-08
5.55625e-08
3.64137e-07
1.87483e-06
4.50424e-07
8.88595e-08
5.55034e-08
3.63899e-07
1.68128e-06
3.98612e-07
7.83131e-08
5.0526e-08
3.32609e-07
1.73661e-06
4.12716e-07
8.12014e-08
5.20347e-08
3.42448e-07
1.71576e-06
4.07013e-07
7.97723e-08
5.06899e-08
3.32792e-07
1.74511e-06
4.15371e-07
8.17179e-08
5.2095e-08
3.42503e-07
6.40468e-06
6.34618e-06
2.8792e-05
1.52205e-05
1.51264e-05
1.00018e-05
2.88837e-05
2.40065e-05
2.40683e-05
9.90082e-06
2.86796e-05
2.90073e-05
2.4565e-05
2.66781e-05
2.42556e-05
1.00457e-05
2.88041e-05
2.93691e-05
2.67055e-05
2.49684e-05
6.47104e-06
2.90187e-05
1.53137e-05
6.35268e-06
1.1384e-05
5.62836e-06
5.60678e-06
1.14364e-05
5.61268e-06
5.59938e-06
2.26695e-05
9.84751e-06
2.73158e-05
1.5246e-05
2.30906e-05
9.89389e-06
2.73785e-05
2.29138e-05
9.76223e-06
2.73848e-05
1.5121e-05
2.29076e-05
9.75034e-06
2.70419e-05
7.43347e-06
2.2074e-05
8.14479e-06
2.40791e-05
7.45351e-06
2.18057e-05
8.13681e-06
5.82551e-06
1.44077e-05
9.89528e-06
5.82253e-06
1.45385e-05
7.5852e-06
8.19197e-06
2.22954e-05
2.42531e-05
7.60526e-06
8.19077e-06
2.24917e-05
5.9395e-06
1.48698e-05
1.00796e-05
5.96909e-06
1.48641e-05
6.46194e-06
1.16112e-05
5.72185e-06
5.74884e-06
2.30882e-05
2.7412e-05
1.53563e-05
2.70927e-05
9.88133e-06
2.36468e-05
1.51563e-05
1.00162e-05
2.73208e-05
6.4212e-06
2.23231e-05
1.89934e-05
1.90861e-05
1.56125e-05
2.2327e-05
1.89891e-05
1.90842e-05
1.55783e-05
1.9031e-05
1.55879e-05
1.90097e-05
1.55596e-05
2.80379e-05
2.88102e-05
2.9353e-05
2.88358e-05
2.78917e-05
2.91735e-05
2.91452e-05
2.8697e-05
2.68242e-05
2.88834e-05
2.43563e-05
2.88971e-05
2.86359e-05
2.67778e-05
2.85785e-05
2.84028e-05
2.84479e-05
2.87111e-05
2.84377e-05
2.8394e-05
2.84544e-05
2.89235e-05
2.73911e-05
2.87743e-05
2.46238e-05
2.90987e-05
2.88591e-05
2.74318e-05
2.87489e-05
2.84762e-05
2.85962e-05
2.88079e-05
2.86808e-05
2.84828e-05
2.82933e-05
2.92904e-05
2.7809e-05
2.94765e-05
2.4663e-05
2.92809e-05
2.75588e-05
2.94999e-05
2.77274e-05
2.90484e-05
2.95809e-05
2.95907e-05
2.94747e-05
1.8494e-06
4.44903e-07
8.79523e-08
5.54013e-08
3.63822e-07
1.84379e-06
4.4391e-07
8.78256e-08
5.53987e-08
3.63859e-07
1.85165e-06
4.34268e-07
8.37201e-08
4.96895e-08
3.21691e-07
1.84349e-06
4.32564e-07
8.3413e-08
4.96709e-08
3.21807e-07
1.87929e-06
4.41668e-07
8.50335e-08
4.98515e-08
3.22006e-07
1.87985e-06
4.52488e-07
8.93111e-08
5.55765e-08
3.64121e-07
1.84306e-06
4.4351e-07
8.77497e-08
5.54245e-08
3.64141e-07
1.68437e-06
3.99289e-07
7.84282e-08
5.05388e-08
3.32607e-07
1.73624e-06
4.12893e-07
8.1247e-08
5.20446e-08
3.42504e-07
1.68717e-06
3.99799e-07
7.8495e-08
5.05477e-08
3.3266e-07
1.73624e-06
4.12798e-07
8.12287e-08
5.20265e-08
3.42352e-07
1.84159e-06
4.32129e-07
8.336e-08
4.97155e-08
3.22183e-07
1.7209e-06
4.08038e-07
7.99394e-08
5.07068e-08
3.32788e-07
1.75495e-06
4.17633e-07
8.2091e-08
5.21352e-08
3.42563e-07
1.72258e-06
4.08326e-07
8.00077e-08
5.07219e-08
3.32841e-07
1.74884e-06
4.16217e-07
8.18424e-08
5.20942e-08
3.42412e-07
1.87931e-06
4.41261e-07
8.49286e-08
4.98828e-08
3.22349e-07
1.87582e-06
4.51489e-07
8.91596e-08
5.55988e-08
3.64401e-07
1.90473e-06
4.46336e-07
8.586e-08
5.03867e-08
3.25547e-07
1.85152e-06
4.46037e-07
8.82108e-08
5.54903e-08
3.64274e-07
1.69453e-06
4.0652e-07
8.09705e-08
5.41323e-08
3.58964e-07
1.87632e-06
4.39704e-07
8.4704e-08
5.01965e-08
3.24965e-07
1.8788e-06
4.40028e-07
8.47698e-08
5.02917e-08
3.25691e-07
1.68856e-06
4.04889e-07
8.06947e-08
5.4098e-08
3.58913e-07
1.86674e-06
4.37261e-07
8.42736e-08
5.01317e-08
3.2483e-07
1.86528e-06
4.37187e-07
8.4285e-08
5.0186e-08
3.25222e-07
1.69235e-06
4.06288e-07
8.09591e-08
5.41949e-08
3.59431e-07
1.69204e-06
4.05736e-07
8.08453e-08
5.41566e-08
3.59279e-07
1.8328e-06
4.40315e-07
8.71212e-08
5.53676e-08
3.64115e-07
1.83159e-06
4.40056e-07
8.70726e-08
5.53174e-08
3.63752e-07
1.87237e-06
4.503e-07
8.88862e-08
5.55578e-08
3.64289e-07
1.87637e-06
4.50772e-07
8.89355e-08
5.5515e-08
3.63921e-07
1.89195e-06
4.43553e-07
8.53832e-08
5.03209e-08
3.25419e-07
1.72829e-06
4.14528e-07
8.23921e-08
5.43405e-08
3.59484e-07
1.73498e-06
4.16075e-07
8.26669e-08
5.43792e-08
3.59547e-07
2.95621e-05
2.93723e-05
2.45001e-05
3.00707e-05
3.01038e-05
2.9648e-05
2.40903e-05
3.01583e-05
3.03151e-05
2.9354e-05
2.37143e-05
3.02795e-05
3.02205e-05
2.93062e-05
2.34059e-05
3.00525e-05
2.99231e-05
2.93881e-05
2.3152e-05
2.97738e-05
2.97208e-05
2.92895e-05
2.2946e-05
2.99001e-05
2.98837e-05
2.92739e-05
2.27461e-05
2.97053e-05
2.97604e-05
2.90563e-05
2.25595e-05
2.955e-05
2.96078e-05
2.89213e-05
2.24151e-05
2.96581e-05
2.94057e-05
2.90645e-05
2.22933e-05
2.94202e-05
2.91497e-05
2.86927e-05
2.22107e-05
2.94404e-05
2.9224e-05
2.86003e-05
2.2225e-05
2.92045e-05
2.91084e-05
2.88501e-05
2.23044e-05
2.92563e-05
2.90662e-05
2.88387e-05
2.22637e-05
2.94264e-05
2.9292e-05
2.88942e-05
2.22257e-05
2.93694e-05
2.9107e-05
2.87525e-05
2.22174e-05
2.93381e-05
2.90926e-05
2.88112e-05
2.97396e-05
2.96893e-05
2.96227e-05
3.00921e-05
2.96301e-05
2.9608e-05
2.97157e-05
2.94903e-05
2.99091e-05
2.98841e-05
3.01628e-05
3.02331e-05
2.9682e-05
2.99253e-05
3.01409e-05
3.03052e-05
3.0289e-05
3.05092e-05
3.02688e-05
3.03682e-05
3.03537e-05
2.97178e-05
2.9636e-05
2.94795e-05
3.03013e-05
2.97679e-05
2.94497e-05
2.93235e-05
2.94638e-05
3.01908e-05
3.00357e-05
3.00964e-05
3.02497e-05
2.99136e-05
2.97937e-05
3.03289e-05
3.04445e-05
3.01519e-05
3.0338e-05
3.03674e-05
3.03504e-05
3.03341e-05
2.95557e-05
2.94525e-05
2.97649e-05
3.02221e-05
2.96736e-05
2.94167e-05
2.94349e-05
2.93638e-05
3.01099e-05
3.02186e-05
2.99446e-05
3.01246e-05
2.97551e-05
2.95641e-05
3.02047e-05
3.01187e-05
3.01437e-05
3.02376e-05
3.0356e-05
2.99815e-05
3.0208e-05
2.93806e-05
2.96504e-05
2.96876e-05
3.01335e-05
2.952e-05
2.94585e-05
2.94e-05
2.9337e-05
2.99037e-05
3.01141e-05
2.9886e-05
2.98139e-05
2.95049e-05
2.92708e-05
3.01052e-05
3.01667e-05
2.98055e-05
3.01819e-05
3.02129e-05
2.99733e-05
2.97941e-05
2.949e-05
2.95484e-05
2.96808e-05
3.00221e-05
2.97143e-05
2.93792e-05
2.92926e-05
2.93405e-05
2.99247e-05
2.98595e-05
2.97855e-05
2.98302e-05
2.92932e-05
2.915e-05
2.98661e-05
3.0022e-05
2.98884e-05
2.99799e-05
2.99888e-05
2.99527e-05
2.9829e-05
2.95159e-05
2.94212e-05
2.97313e-05
2.98783e-05
2.96666e-05
2.93317e-05
2.92126e-05
2.91396e-05
2.98913e-05
2.9599e-05
2.98757e-05
2.95929e-05
2.92057e-05
2.92233e-05
2.98408e-05
3.01869e-05
2.97757e-05
2.9976e-05
2.98798e-05
2.98961e-05
2.97904e-05
2.94529e-05
2.94874e-05
2.96707e-05
2.95966e-05
2.95335e-05
2.88705e-05
2.90678e-05
2.92542e-05
2.96842e-05
2.94616e-05
2.97024e-05
2.96244e-05
2.92561e-05
2.92893e-05
2.97111e-05
2.99982e-05
2.95487e-05
2.98106e-05
2.95269e-05
2.97163e-05
2.97101e-05
2.94885e-05
2.92747e-05
2.95814e-05
2.9571e-05
2.93271e-05
2.90481e-05
2.92543e-05
2.88332e-05
2.95932e-05
2.94591e-05
2.95325e-05
2.96229e-05
2.9273e-05
2.91991e-05
2.96343e-05
2.96886e-05
2.95239e-05
2.97589e-05
2.96926e-05
2.94863e-05
2.96998e-05
2.92592e-05
2.93334e-05
2.91532e-05
2.95641e-05
2.91882e-05
2.9081e-05
2.90641e-05
2.89922e-05
2.96938e-05
2.9399e-05
2.95816e-05
2.94193e-05
2.91579e-05
2.89827e-05
2.95252e-05
2.96394e-05
2.95576e-05
2.97698e-05
2.94934e-05
2.93042e-05
2.91501e-05
2.92879e-05
2.91353e-05
2.9384e-05
2.92279e-05
2.93451e-05
2.88795e-05
2.90342e-05
2.90397e-05
2.95747e-05
2.93837e-05
2.94833e-05
2.93527e-05
2.88352e-05
2.8983e-05
2.95607e-05
2.97826e-05
2.94921e-05
2.96406e-05
2.92895e-05
2.93848e-05
2.93532e-05
2.91261e-05
2.92251e-05
2.92995e-05
2.94025e-05
2.92968e-05
2.86836e-05
2.90133e-05
2.86697e-05
2.92722e-05
2.9398e-05
2.92283e-05
2.9277e-05
2.90178e-05
2.88697e-05
2.94293e-05
2.95715e-05
2.9311e-05
2.9733e-05
2.93044e-05
2.93786e-05
2.94002e-05
2.9081e-05
2.90067e-05
2.92927e-05
2.92115e-05
2.92783e-05
2.86374e-05
2.88593e-05
2.89553e-05
2.94541e-05
2.92981e-05
2.94643e-05
2.91972e-05
2.87883e-05
2.87822e-05
2.94176e-05
2.96162e-05
2.94309e-05
2.97438e-05
2.93688e-05
2.93754e-05
2.94102e-05
2.90506e-05
2.89899e-05
2.92578e-05
2.92912e-05
2.92396e-05
2.8898e-05
2.89543e-05
2.85558e-05
2.94691e-05
2.91818e-05
2.93597e-05
2.92465e-05
2.88215e-05
2.89164e-05
2.93572e-05
2.97671e-05
2.90551e-05
2.94436e-05
2.93171e-05
2.92316e-05
2.93466e-05
2.89903e-05
2.90495e-05
2.92108e-05
2.92819e-05
2.9091e-05
2.87069e-05
2.87085e-05
2.86374e-05
2.91492e-05
2.92677e-05
2.92871e-05
2.92649e-05
2.89384e-05
2.88803e-05
2.90998e-05
2.95914e-05
2.91569e-05
2.95897e-05
2.91915e-05
2.93798e-05
2.93046e-05
2.9065e-05
2.89285e-05
2.90452e-05
2.91415e-05
2.92234e-05
2.88894e-05
2.88758e-05
2.86842e-05
2.9329e-05
2.91032e-05
2.92833e-05
2.93093e-05
2.86911e-05
2.87599e-05
2.89916e-05
2.96344e-05
2.90871e-05
2.91376e-05
2.92099e-05
2.93274e-05
2.92086e-05
2.9145e-05
2.8887e-05
2.90047e-05
2.92205e-05
2.91821e-05
2.87921e-05
2.93748e-05
2.88216e-05
2.91001e-05
2.91559e-05
2.92516e-05
2.9059e-05
2.91678e-05
6.56467e-06
6.6106e-06
2.89227e-05
2.80026e-05
2.50688e-05
2.98893e-05
2.52085e-05
2.89986e-05
2.80243e-05
1.52553e-05
1.53374e-05
2.9554e-05
1.53243e-05
1.53618e-05
2.442e-05
1.01115e-05
1.01524e-05
2.42017e-05
6.41568e-06
6.44145e-06
2.44452e-05
9.91035e-06
1.00208e-05
2.42939e-05
2.42412e-05
2.45213e-05
2.41981e-05
2.41809e-05
2.40674e-05
2.42397e-05
2.39915e-05
2.97826e-05
2.49951e-05
2.81275e-05
3.03817e-05
2.5323e-05
2.8084e-05
2.97042e-05
6.48673e-06
6.50418e-06
2.89366e-05
2.78465e-05
2.51266e-05
3.01562e-05
2.88659e-05
2.78089e-05
2.50571e-05
1.52455e-05
1.53464e-05
2.96089e-05
1.53325e-05
1.54024e-05
2.43653e-05
1.00637e-05
2.43338e-05
1.0126e-05
6.45569e-06
6.45633e-06
2.40903e-05
1.0032e-05
2.43716e-05
1.01198e-05
2.39835e-05
2.41384e-05
2.39175e-05
2.37984e-05
2.37495e-05
2.38249e-05
2.36944e-05
2.97403e-05
2.53789e-05
2.79201e-05
3.03694e-05
2.97549e-05
2.54226e-05
2.78704e-05
6.50669e-06
6.5251e-06
2.9086e-05
2.76959e-05
2.49353e-05
3.01541e-05
2.91289e-05
2.76515e-05
2.52236e-05
1.54131e-05
1.53439e-05
2.96077e-05
1.53748e-05
1.5162e-05
2.44042e-05
1.01024e-05
2.44292e-05
1.01144e-05
6.53473e-06
6.56086e-06
2.44865e-05
1.00479e-05
2.40336e-05
1.00952e-05
2.36767e-05
2.37275e-05
2.36296e-05
2.34724e-05
2.3448e-05
2.34819e-05
2.34199e-05
2.96699e-05
2.539e-05
2.76968e-05
3.00852e-05
2.95331e-05
2.54383e-05
2.76426e-05
6.52828e-06
6.55421e-06
2.91613e-05
2.75104e-05
2.49252e-05
3.0229e-05
2.90521e-05
2.74669e-05
2.51005e-05
1.5363e-05
1.53248e-05
2.9293e-05
1.53481e-05
1.52849e-05
2.48074e-05
1.02296e-05
2.45144e-05
1.02528e-05
6.58753e-06
6.57366e-06
2.44497e-05
1.01511e-05
2.44581e-05
1.01703e-05
2.33775e-05
2.33988e-05
2.33568e-05
2.31998e-05
2.31626e-05
2.32088e-05
2.31506e-05
2.93707e-05
2.51915e-05
2.74626e-05
2.98291e-05
2.91046e-05
2.49658e-05
2.7412e-05
6.57669e-06
6.56685e-06
2.92579e-05
2.73117e-05
2.5225e-05
3.0015e-05
2.90357e-05
2.72708e-05
2.50041e-05
1.51895e-05
1.52592e-05
2.94025e-05
1.53215e-05
1.54797e-05
2.50616e-05
1.03651e-05
2.49386e-05
1.03938e-05
6.57563e-06
6.5976e-06
2.44968e-05
1.01895e-05
2.46766e-05
1.01685e-05
2.3093e-05
2.31444e-05
2.30926e-05
2.29999e-05
2.29212e-05
2.29803e-05
2.29e-05
2.93924e-05
2.5181e-05
2.72394e-05
2.99941e-05
2.97308e-05
2.51104e-05
2.7203e-05
6.59978e-06
6.57555e-06
2.91387e-05
2.71117e-05
2.49967e-05
2.98722e-05
2.94018e-05
2.70715e-05
2.52517e-05
1.5276e-05
1.54798e-05
2.89959e-05
1.53329e-05
1.54395e-05
2.4666e-05
1.04318e-05
2.51521e-05
1.03562e-05
6.60128e-06
6.60181e-06
2.45612e-05
1.0115e-05
2.44055e-05
1.00921e-05
2.28601e-05
2.29295e-05
2.28507e-05
2.28016e-05
2.27129e-05
2.27686e-05
2.26854e-05
2.90697e-05
2.50372e-05
2.69928e-05
2.99359e-05
2.92132e-05
2.48532e-05
2.71432e-05
6.58206e-06
6.50968e-06
2.86952e-05
2.69218e-05
2.52987e-05
2.98897e-05
2.90699e-05
2.69131e-05
2.46966e-05
1.52582e-05
1.53703e-05
2.91493e-05
1.51949e-05
1.51648e-05
2.48688e-05
1.04482e-05
2.49077e-05
1.04273e-05
6.61283e-06
6.58127e-06
2.4582e-05
1.01105e-05
2.4703e-05
1.00397e-05
2.26646e-05
2.27113e-05
2.26315e-05
2.26006e-05
2.2539e-05
2.25825e-05
2.25045e-05
2.89694e-05
2.52427e-05
2.71626e-05
2.97483e-05
2.9333e-05
2.50748e-05
2.70405e-05
6.57597e-06
6.57219e-06
2.90251e-05
2.70235e-05
2.51301e-05
2.96968e-05
2.89641e-05
2.70415e-05
2.51274e-05
1.51967e-05
1.53128e-05
2.90653e-05
1.52093e-05
1.52676e-05
2.45876e-05
1.03882e-05
2.49503e-05
1.02561e-05
6.56045e-06
6.52e-06
2.43569e-05
9.98154e-06
2.46319e-05
1.0019e-05
2.24956e-05
2.25344e-05
2.24616e-05
2.24426e-05
2.23868e-05
2.24321e-05
2.23579e-05
2.8994e-05
2.49316e-05
2.71888e-05
2.94399e-05
2.90551e-05
2.49108e-05
2.72186e-05
6.61294e-06
6.55421e-06
2.84057e-05
2.70257e-05
2.46718e-05
2.96127e-05
2.83861e-05
2.69849e-05
2.484e-05
1.51198e-05
1.52036e-05
2.9075e-05
1.52605e-05
1.51148e-05
2.49933e-05
1.03277e-05
2.49494e-05
1.03556e-05
6.48667e-06
6.44307e-06
2.44847e-05
1.0043e-05
2.44849e-05
1.00504e-05
2.23542e-05
2.24025e-05
2.23278e-05
2.23186e-05
2.22143e-05
2.23513e-05
2.22254e-05
2.8587e-05
2.49826e-05
2.71339e-05
2.96159e-05
2.89015e-05
2.49454e-05
2.71477e-05
6.58655e-06
6.57598e-06
2.87525e-05
2.69733e-05
2.49441e-05
2.94294e-05
2.87081e-05
2.69813e-05
2.49923e-05
1.51922e-05
1.52009e-05
2.90391e-05
1.51089e-05
1.51526e-05
2.48236e-05
1.01937e-05
2.48121e-05
1.02573e-05
6.46528e-06
6.46414e-06
2.43841e-05
1.00218e-05
2.43466e-05
1.00463e-05
2.23038e-05
2.24403e-05
2.21683e-05
2.22912e-05
2.22907e-05
2.24597e-05
2.2258e-05
2.89005e-05
2.47245e-05
2.70297e-05
2.94522e-05
2.90351e-05
2.49015e-05
2.7144e-05
6.56066e-06
6.55111e-06
2.87303e-05
2.69296e-05
2.45592e-05
2.93935e-05
2.86807e-05
2.69508e-05
2.4721e-05
1.51227e-05
1.52463e-05
2.85882e-05
1.5176e-05
1.5177e-05
2.4917e-05
1.0208e-05
2.48794e-05
1.02934e-05
6.47392e-06
6.48922e-06
2.44223e-05
1.0008e-05
2.46581e-05
1.00359e-05
2.22465e-05
2.23732e-05
2.2236e-05
2.22543e-05
2.2303e-05
2.24044e-05
2.22351e-05
2.92536e-05
2.49622e-05
2.70256e-05
2.94265e-05
2.92103e-05
2.48402e-05
2.71584e-05
6.54987e-06
6.53575e-06
2.88713e-05
2.67875e-05
2.48013e-05
2.91976e-05
2.88267e-05
2.68446e-05
2.48423e-05
1.51686e-05
1.50424e-05
2.88209e-05
1.52589e-05
1.51894e-05
2.47203e-05
1.03001e-05
2.48414e-05
1.03044e-05
6.48801e-06
6.46716e-06
2.45278e-05
9.99513e-06
2.44706e-05
1.00524e-05
2.23168e-05
2.23256e-05
2.23094e-05
2.2293e-05
2.22514e-05
2.23891e-05
2.21747e-05
2.91234e-05
2.47853e-05
2.71511e-05
2.93143e-05
2.892e-05
2.46798e-05
2.71574e-05
6.50062e-06
6.48944e-06
2.83638e-05
2.69063e-05
2.48214e-05
2.93254e-05
2.87532e-05
2.68943e-05
2.48486e-05
1.51213e-05
1.51454e-05
2.88268e-05
1.52658e-05
1.51957e-05
2.4571e-05
1.02815e-05
2.46133e-05
1.02108e-05
6.48697e-06
6.4899e-06
2.44889e-05
1.00026e-05
2.42451e-05
1.00312e-05
2.22852e-05
2.23717e-05
2.21849e-05
2.22632e-05
2.23123e-05
2.23375e-05
2.22551e-05
2.89934e-05
2.47562e-05
2.70359e-05
2.91617e-05
2.89928e-05
2.48573e-05
2.69209e-05
6.5203e-06
6.51494e-06
2.83543e-05
2.66772e-05
2.48397e-05
2.92219e-05
2.8584e-05
2.67657e-05
2.48334e-05
1.52467e-05
1.51839e-05
2.88632e-05
1.52579e-05
1.51731e-05
2.47958e-05
1.02122e-05
2.44538e-05
1.02642e-05
6.50223e-06
6.51138e-06
2.43701e-05
9.94547e-06
2.43672e-05
1.00346e-05
2.22996e-05
2.2278e-05
2.22567e-05
2.21554e-05
2.22418e-05
2.2213e-05
2.22406e-05
2.89313e-05
2.46752e-05
2.70608e-05
2.93718e-05
2.91613e-05
2.44786e-05
2.70882e-05
6.52142e-06
6.53634e-06
2.86784e-05
2.68028e-05
2.49083e-05
2.92569e-05
2.85446e-05
2.68163e-05
2.47265e-05
1.50999e-05
1.52096e-05
2.86449e-05
1.52225e-05
1.51974e-05
2.41462e-05
1.02928e-05
2.43236e-05
1.01624e-05
6.53791e-06
6.573e-06
2.40191e-05
1.00014e-05
2.42888e-05
9.96489e-06
2.22547e-05
2.22062e-05
2.21706e-05
2.22404e-05
2.2249e-05
2.19869e-05
2.19499e-05
2.89985e-05
2.46353e-05
2.70573e-05
2.93394e-05
2.86515e-05
2.46367e-05
2.70721e-05
6.54883e-06
6.55295e-06
2.85971e-05
2.68337e-05
2.48448e-05
2.92356e-05
2.85414e-05
2.68464e-05
2.4869e-05
1.50568e-05
1.5282e-05
2.8854e-05
1.51358e-05
1.52098e-05
6.50507e-06
1.01117e-05
2.43105e-05
2.22996e-05
2.18384e-05
2.18059e-05
2.45755e-05
2.67112e-05
2.90394e-05
6.5709e-06
2.67872e-05
2.47212e-05
2.83637e-05
1.51682e-05
1.52961e-05
1.5582e-05
1.55331e-05
2.95602e-05
1.57533e-05
1.56173e-05
6.55823e-06
6.57598e-06
6.48928e-06
6.53878e-06
2.95912e-05
1.52834e-05
1.52978e-05
1.57318e-05
1.54138e-05
6.50549e-06
6.56673e-06
2.88211e-05
2.79077e-05
2.48796e-05
2.95122e-05
2.48054e-05
2.85907e-05
2.78641e-05
2.45832e-05
1.03987e-05
1.03818e-05
2.44152e-05
2.44447e-05
1.02282e-05
1.02379e-05
2.425e-05
2.89931e-05
2.99613e-05
2.78969e-05
2.51462e-05
2.50437e-05
2.89176e-05
2.79241e-05
2.86855e-05
2.96104e-05
2.78067e-05
2.48966e-05
2.46365e-05
2.90844e-05
2.78382e-05
2.463e-05
1.02763e-05
1.03541e-05
2.43371e-05
2.4438e-05
1.024e-05
1.02307e-05
2.4759e-05
6.45493e-06
6.48716e-06
6.46416e-06
6.45528e-06
2.94974e-05
1.54283e-05
1.53931e-05
1.53063e-05
1.54038e-05
6.48997e-06
6.50194e-06
6.46431e-06
6.44289e-06
6.37873e-06
6.41458e-06
6.33152e-06
6.36022e-06
1.51314e-05
1.50363e-05
2.95932e-05
1.52374e-05
1.50881e-05
6.42695e-06
6.40315e-06
6.38786e-06
6.38249e-06
2.95248e-05
1.52912e-05
1.49788e-05
1.52279e-05
1.51086e-05
2.40949e-05
1.02444e-05
1.01185e-05
2.42703e-05
2.8761e-05
2.45578e-05
2.78563e-05
2.99035e-05
2.47862e-05
2.78029e-05
2.86864e-05
2.88323e-05
2.46944e-05
2.77768e-05
3.01565e-05
2.46138e-05
2.77472e-05
2.88062e-05
2.42854e-05
1.00165e-05
1.02249e-05
2.41701e-05
2.43683e-05
1.01904e-05
1.023e-05
2.45691e-05
2.90941e-05
3.01417e-05
2.43052e-05
2.77148e-05
2.47766e-05
2.77614e-05
2.89496e-05
2.88023e-05
3.01746e-05
2.49747e-05
2.76855e-05
2.45841e-05
2.77263e-05
2.86984e-05
1.52552e-05
1.56888e-05
2.98529e-05
1.53066e-05
1.56243e-05
6.58306e-06
6.56911e-06
6.45782e-06
6.43009e-06
2.98817e-05
1.53494e-05
1.563e-05
1.52981e-05
1.56316e-05
6.59141e-06
6.58771e-06
2.88761e-05
2.44287e-05
2.80142e-05
3.0084e-05
2.44946e-05
2.7909e-05
2.89781e-05
2.43338e-05
1.01536e-05
1.01769e-05
2.44623e-05
2.92576e-05
2.80789e-05
2.46849e-05
3.04156e-05
2.79866e-05
2.47421e-05
2.9398e-05
2.45063e-05
1.00886e-05
1.01023e-05
2.44184e-05
2.90976e-05
3.03178e-05
2.48515e-05
2.77616e-05
2.47698e-05
2.784e-05
2.92016e-05
2.45962e-05
1.0156e-05
1.02148e-05
2.46544e-05
2.88435e-05
3.0473e-05
2.78265e-05
2.46199e-05
2.79007e-05
2.45341e-05
2.91684e-05
2.49266e-05
1.03405e-05
1.0317e-05
2.48516e-05
2.93882e-05
2.80005e-05
2.48996e-05
3.03424e-05
2.79642e-05
2.4999e-05
2.96028e-05
2.50248e-05
1.0223e-05
1.01601e-05
2.49555e-05
2.98071e-05
3.03036e-05
2.55459e-05
2.79799e-05
2.53727e-05
2.80283e-05
2.9754e-05
2.48571e-05
1.03948e-05
1.03811e-05
2.51228e-05
2.9765e-05
3.03158e-05
2.78919e-05
2.48032e-05
2.79355e-05
2.48856e-05
2.93472e-05
2.51254e-05
1.02931e-05
1.02273e-05
2.51536e-05
1.53208e-05
1.54983e-05
2.96545e-05
1.54555e-05
1.55402e-05
6.50898e-06
6.54532e-06
6.51727e-06
6.52296e-06
2.95721e-05
1.53489e-05
1.54596e-05
1.55201e-05
1.55258e-05
6.56095e-06
6.5244e-06
2.91368e-05
2.77852e-05
2.48565e-05
2.97146e-05
2.91015e-05
2.77596e-05
2.47533e-05
2.42058e-05
1.03631e-05
2.46938e-05
1.03345e-05
2.47706e-05
1.01989e-05
2.48114e-05
1.02336e-05
2.90096e-05
3.00799e-05
2.774e-05
2.51763e-05
2.77684e-05
2.50617e-05
2.88333e-05
2.91218e-05
2.97397e-05
2.76924e-05
2.48388e-05
2.77349e-05
2.48697e-05
2.88276e-05
2.45946e-05
1.03038e-05
1.02921e-05
2.44024e-05
2.44819e-05
1.01708e-05
1.02515e-05
2.47914e-05
6.46009e-06
6.47196e-06
6.45576e-06
6.45999e-06
2.96213e-05
1.54142e-05
1.53989e-05
1.53694e-05
1.54755e-05
6.4948e-06
6.46768e-06
6.47377e-06
6.47555e-06
6.41796e-06
6.42842e-06
6.41067e-06
6.4273e-06
1.53539e-05
1.52074e-05
2.94258e-05
1.53854e-05
1.52184e-05
6.45711e-06
6.45666e-06
6.42529e-06
6.44436e-06
2.94381e-05
1.53461e-05
1.50687e-05
1.52796e-05
1.5285e-05
2.43916e-05
1.03245e-05
2.45133e-05
1.02967e-05
2.89469e-05
2.46481e-05
2.76711e-05
2.99948e-05
2.87962e-05
2.46325e-05
2.76281e-05
2.9035e-05
2.49502e-05
2.76594e-05
3.0178e-05
2.86186e-05
2.48855e-05
2.76145e-05
2.42854e-05
1.01937e-05
1.01387e-05
2.41726e-05
2.45578e-05
1.03579e-05
1.0312e-05
2.4453e-05
2.8653e-05
3.016e-05
2.48966e-05
2.75361e-05
2.48475e-05
2.75888e-05
2.86684e-05
2.86834e-05
3.00519e-05
2.49368e-05
2.75297e-05
2.49213e-05
2.75788e-05
2.90537e-05
1.53733e-05
1.55918e-05
2.9748e-05
1.53939e-05
1.56662e-05
6.60565e-06
6.61282e-06
6.52979e-06
6.491e-06
2.9775e-05
1.54695e-05
1.57789e-05
1.52843e-05
1.57531e-05
6.62993e-06
6.63335e-06
2.92435e-05
2.47882e-05
2.77072e-05
3.03382e-05
2.92007e-05
2.47637e-05
2.76371e-05
2.47408e-05
1.02714e-05
2.47556e-05
1.02626e-05
2.89776e-05
2.77486e-05
2.50645e-05
3.01925e-05
2.92705e-05
2.76733e-05
2.49293e-05
2.45164e-05
1.01139e-05
1.01483e-05
2.43552e-05
2.92203e-05
3.03404e-05
2.46322e-05
2.75088e-05
2.46081e-05
2.75857e-05
2.92665e-05
2.44423e-05
1.03248e-05
1.03289e-05
2.42243e-05
2.93554e-05
3.03795e-05
2.7535e-05
2.50363e-05
2.76055e-05
2.50722e-05
2.91702e-05
2.52444e-05
1.04653e-05
2.51916e-05
1.04487e-05
2.96483e-05
2.78552e-05
2.50903e-05
3.03845e-05
2.96527e-05
2.78007e-05
2.49947e-05
2.49717e-05
1.03273e-05
2.52133e-05
1.03111e-05
2.96298e-05
3.03598e-05
2.54133e-05
2.77559e-05
2.55476e-05
2.78182e-05
2.9302e-05
2.5281e-05
1.03084e-05
1.04753e-05
2.5091e-05
2.95091e-05
3.02313e-05
2.76983e-05
2.509e-05
2.77622e-05
2.52041e-05
2.97919e-05
2.48881e-05
1.03399e-05
1.03528e-05
2.48272e-05
1.54592e-05
1.5601e-05
2.9627e-05
1.54444e-05
1.55922e-05
6.54363e-06
6.57123e-06
6.54951e-06
6.54695e-06
2.93758e-05
1.54526e-05
1.55646e-05
1.55427e-05
1.55268e-05
6.55745e-06
6.5559e-06
2.88663e-05
2.76836e-05
2.48916e-05
2.95611e-05
2.92168e-05
2.7624e-05
2.49634e-05
2.44764e-05
1.03848e-05
2.47608e-05
1.03624e-05
2.49179e-05
1.02505e-05
2.48509e-05
1.02502e-05
2.8676e-05
3.02033e-05
2.75609e-05
2.49333e-05
2.7599e-05
2.49918e-05
2.86745e-05
2.90184e-05
2.97757e-05
2.75301e-05
2.47724e-05
2.75852e-05
2.50117e-05
2.88674e-05
2.46453e-05
1.02621e-05
1.03244e-05
2.48e-05
2.48503e-05
1.02944e-05
1.03182e-05
2.49099e-05
6.49912e-06
6.47084e-06
6.46146e-06
6.46194e-06
2.95935e-05
1.53894e-05
1.54124e-05
1.53849e-05
1.5321e-05
6.48188e-06
6.51419e-06
6.49274e-06
6.44744e-06
6.48553e-06
6.46774e-06
6.43819e-06
6.44221e-06
1.5407e-05
1.52791e-05
2.94825e-05
1.55294e-05
1.52577e-05
6.5187e-06
6.51197e-06
6.46832e-06
6.4563e-06
2.93989e-05
1.55009e-05
1.53295e-05
1.55864e-05
1.53239e-05
2.45809e-05
1.04115e-05
2.44985e-05
1.03498e-05
2.9049e-05
2.46138e-05
2.75e-05
2.9922e-05
2.86963e-05
2.48628e-05
2.74486e-05
2.8709e-05
2.48741e-05
2.74951e-05
3.02075e-05
2.9108e-05
2.50252e-05
2.74417e-05
2.44214e-05
1.02524e-05
1.02131e-05
2.46037e-05
2.43278e-05
1.04073e-05
1.0339e-05
2.46723e-05
2.90523e-05
2.97653e-05
2.4899e-05
2.73514e-05
2.49302e-05
2.74061e-05
2.91185e-05
2.89342e-05
3.00953e-05
2.49499e-05
2.73387e-05
2.51867e-05
2.73971e-05
2.87848e-05
1.54296e-05
1.58118e-05
2.96769e-05
1.55408e-05
1.57688e-05
6.6413e-06
6.59638e-06
6.57037e-06
6.54255e-06
2.96326e-05
1.5415e-05
1.56246e-05
1.54627e-05
1.56251e-05
6.5818e-06
6.59001e-06
2.89438e-05
2.44692e-05
2.7457e-05
3.02249e-05
2.89274e-05
2.44278e-05
2.74018e-05
2.45506e-05
1.03483e-05
2.42537e-05
1.03352e-05
2.9155e-05
2.74796e-05
2.47791e-05
3.02996e-05
2.92308e-05
2.74314e-05
2.50002e-05
2.45033e-05
1.01656e-05
1.01229e-05
2.45201e-05
2.92717e-05
3.01736e-05
2.44609e-05
2.73024e-05
2.46785e-05
2.73583e-05
2.89039e-05
2.4703e-05
1.03734e-05
1.03919e-05
2.45918e-05
2.92278e-05
3.02345e-05
2.73304e-05
2.49089e-05
2.73765e-05
2.47916e-05
2.92595e-05
2.49672e-05
1.04155e-05
2.50249e-05
1.03661e-05
2.97305e-05
2.76582e-05
2.48748e-05
3.03068e-05
2.9747e-05
2.75989e-05
2.47679e-05
2.47883e-05
1.03744e-05
2.5082e-05
1.03482e-05
2.94227e-05
3.02903e-05
2.52985e-05
2.75282e-05
2.54724e-05
2.75827e-05
2.93557e-05
2.496e-05
1.03358e-05
1.03839e-05
2.45388e-05
2.98285e-05
3.02866e-05
2.74888e-05
2.51079e-05
2.75594e-05
2.50846e-05
2.97041e-05
2.49783e-05
1.03078e-05
1.04051e-05
2.50271e-05
1.52918e-05
1.56834e-05
2.96307e-05
1.54787e-05
1.57113e-05
6.59652e-06
6.58514e-06
6.5733e-06
6.56668e-06
2.94351e-05
1.54843e-05
1.57779e-05
1.55017e-05
1.57708e-05
6.6277e-06
6.62494e-06
2.91813e-05
2.74896e-05
2.51271e-05
2.97073e-05
2.92157e-05
2.74364e-05
2.49705e-05
2.48537e-05
1.03031e-05
2.47929e-05
1.04001e-05
2.4667e-05
1.03134e-05
2.48696e-05
1.03569e-05
2.92028e-05
3.00237e-05
2.73691e-05
2.5238e-05
2.74166e-05
2.51712e-05
2.90078e-05
2.92306e-05
2.97454e-05
2.73356e-05
2.49742e-05
2.73965e-05
2.50044e-05
2.90566e-05
2.489e-05
1.03969e-05
1.04712e-05
2.5023e-05
2.44706e-05
1.04116e-05
1.04106e-05
2.48456e-05
6.50467e-06
6.49781e-06
6.49395e-06
6.50704e-06
2.94695e-05
1.53258e-05
1.53701e-05
1.53682e-05
1.53744e-05
6.48602e-06
6.49624e-06
6.50472e-06
6.48882e-06
6.52219e-06
6.50526e-06
6.45631e-06
6.46463e-06
1.55386e-05
1.53501e-05
2.91676e-05
1.54644e-05
1.51891e-05
6.57103e-06
6.52923e-06
6.45531e-06
6.47483e-06
2.90519e-05
1.55547e-05
1.52715e-05
1.54142e-05
1.5368e-05
2.4642e-05
1.04846e-05
2.44493e-05
1.04318e-05
2.92401e-05
2.47818e-05
2.73125e-05
2.9721e-05
2.89619e-05
2.49563e-05
2.72582e-05
2.91326e-05
2.52393e-05
2.72928e-05
3.00865e-05
2.90012e-05
2.52968e-05
2.72339e-05
2.47977e-05
1.0383e-05
1.03051e-05
2.47032e-05
2.45935e-05
1.04274e-05
1.04042e-05
2.49731e-05
2.92741e-05
2.99174e-05
2.48568e-05
2.71558e-05
2.50842e-05
2.72178e-05
2.92933e-05
2.89631e-05
3.00641e-05
2.52294e-05
2.71247e-05
2.53207e-05
2.71915e-05
2.92126e-05
1.55873e-05
1.56317e-05
2.91442e-05
1.55676e-05
1.54846e-05
6.58706e-06
6.57841e-06
6.54713e-06
6.57509e-06
2.91352e-05
1.54805e-05
1.54935e-05
1.56039e-05
1.54924e-05
6.57936e-06
6.58608e-06
2.91756e-05
2.48039e-05
2.72696e-05
2.98518e-05
2.92342e-05
2.48411e-05
2.72208e-05
2.46548e-05
1.04259e-05
2.43435e-05
1.03323e-05
2.88816e-05
2.72874e-05
2.48755e-05
2.99635e-05
2.92728e-05
2.72456e-05
2.5132e-05
2.43534e-05
1.01947e-05
1.02201e-05
2.46723e-05
2.88422e-05
2.96097e-05
2.46888e-05
2.71472e-05
2.49604e-05
2.71825e-05
2.92306e-05
2.44471e-05
1.03415e-05
1.04282e-05
2.47288e-05
2.92474e-05
3.01809e-05
2.71666e-05
2.49303e-05
2.7211e-05
2.51762e-05
2.93131e-05
2.49793e-05
1.03778e-05
2.48917e-05
1.03394e-05
2.94594e-05
2.74387e-05
2.50877e-05
3.00339e-05
2.93822e-05
2.73785e-05
2.50132e-05
2.49905e-05
1.03616e-05
2.49958e-05
1.03342e-05
2.96997e-05
3.00262e-05
2.52047e-05
2.73039e-05
2.53249e-05
2.73509e-05
2.98248e-05
2.49409e-05
1.03197e-05
1.03905e-05
2.49323e-05
2.93726e-05
3.00318e-05
2.72591e-05
2.49003e-05
2.73327e-05
2.51181e-05
2.93451e-05
2.4969e-05
1.0247e-05
1.03772e-05
2.47804e-05
1.54129e-05
1.58321e-05
2.94466e-05
1.55092e-05
1.58163e-05
6.62007e-06
6.63215e-06
6.59319e-06
6.5858e-06
2.95229e-05
1.5582e-05
1.57739e-05
1.55429e-05
1.58224e-05
6.62649e-06
6.61858e-06
2.92212e-05
2.72938e-05
2.4869e-05
2.97246e-05
2.89376e-05
2.72504e-05
2.50456e-05
2.52012e-05
1.0501e-05
2.50653e-05
1.04133e-05
2.51401e-05
1.04531e-05
2.49756e-05
1.03645e-05
2.93233e-05
2.9851e-05
2.7171e-05
2.52942e-05
2.72156e-05
2.53965e-05
2.91096e-05
2.91242e-05
2.97433e-05
2.71495e-05
2.50266e-05
2.72031e-05
2.4973e-05
2.90944e-05
2.51369e-05
1.04036e-05
1.04405e-05
2.50541e-05
2.51045e-05
1.03944e-05
1.03395e-05
2.51457e-05
6.47694e-06
6.45647e-06
6.51461e-06
6.53906e-06
2.94188e-05
1.53116e-05
1.54972e-05
1.53569e-05
1.54996e-05
6.46079e-06
6.46206e-06
6.55197e-06
6.54259e-06
6.5642e-06
6.56868e-06
6.48348e-06
6.44863e-06
1.55726e-05
1.53541e-05
2.92814e-05
1.54368e-05
1.53351e-05
6.58447e-06
6.55615e-06
6.46704e-06
6.48307e-06
2.91289e-05
1.56189e-05
1.53841e-05
1.55915e-05
1.5434e-05
2.49152e-05
1.03829e-05
2.49763e-05
1.04356e-05
2.91809e-05
2.52636e-05
2.71242e-05
2.99336e-05
2.9184e-05
2.52788e-05
2.71859e-05
2.90541e-05
2.4952e-05
2.70839e-05
2.98748e-05
2.9231e-05
2.50537e-05
2.70223e-05
2.50816e-05
1.04363e-05
1.04196e-05
2.50546e-05
2.48234e-05
1.04674e-05
1.04536e-05
2.47738e-05
2.92608e-05
2.97852e-05
2.53177e-05
2.7195e-05
2.52623e-05
2.70724e-05
2.93494e-05
2.89055e-05
2.98742e-05
2.50562e-05
2.69265e-05
2.48931e-05
2.69806e-05
2.90527e-05
1.54544e-05
1.55702e-05
2.93623e-05
1.55742e-05
1.55736e-05
6.57028e-06
6.55626e-06
6.58369e-06
6.59968e-06
2.93938e-05
1.56294e-05
1.55414e-05
1.55e-05
1.5638e-05
6.56014e-06
6.57231e-06
2.91883e-05
2.48749e-05
2.71234e-05
2.98563e-05
2.89485e-05
2.49424e-05
2.70949e-05
2.46744e-05
1.03523e-05
2.4742e-05
1.03501e-05
2.92921e-05
2.71784e-05
2.53154e-05
3.02165e-05
2.93578e-05
2.72381e-05
2.53202e-05
2.46416e-05
1.01235e-05
1.01357e-05
2.46797e-05
2.92998e-05
2.98794e-05
2.45935e-05
2.70358e-05
2.47502e-05
2.70643e-05
2.93877e-05
2.4598e-05
1.02968e-05
1.03283e-05
2.4482e-05
2.92669e-05
3.01994e-05
2.72835e-05
2.53476e-05
2.71409e-05
2.53128e-05
2.90822e-05
2.46919e-05
1.03015e-05
2.48689e-05
1.02769e-05
2.92545e-05
2.72149e-05
2.49661e-05
2.99153e-05
2.96607e-05
2.71783e-05
2.50379e-05
2.44477e-05
1.02749e-05
2.46233e-05
1.02254e-05
2.921e-05
2.99388e-05
2.50282e-05
2.71136e-05
2.51594e-05
2.71339e-05
2.94063e-05
2.44955e-05
1.02258e-05
1.03226e-05
2.47e-05