/*--------------------------------*- C++ -*----------------------------------*\
| =========                 |                                                 |
| \\      /  F ield         | OpenFOAM: The Open Source CFD Toolbox           |
|  \\    /   O peration     | Version:  2206                                  |
|   \\  /    A nd           | Website:  www.openfoam.com                      |
|    \\/     M anipulation  |                                                 |
\*---------------------------------------------------------------------------*/
FoamFile
{
    version     2.0;
    format      ascii;
    arch        "LSB;label=32;scalar=64";
    class       volScalarField;
    location    "60";
    object      nut;
}
// * * * * * * * * * * * * * * * * * * * * * * * * * * * * * * * * * * * * * //

dimensions      [0 2 -1 0 0 0 0];

internalField   nonuniform List<scalar> 
66701
(
1.53899e-08
1.34354e-08
3.35129e-08
7.29525e-08
2.22126e-08
1.40282e-07
1.17887e-07
2.6355e-08
1.37635e-08
3.41905e-08
7.46544e-08
2.26154e-08
1.4267e-07
2.64654e-08
1.18944e-07
1.56639e-08
2.51531e-09
2.77227e-10
1.9981e-11
3.37192e-12
3.11246e-12
2.50557e-09
2.74973e-10
1.98138e-11
3.368e-12
3.113e-12
2.4478e-09
2.66565e-10
1.88232e-11
3.01324e-12
2.75529e-12
2.49875e-09
2.72196e-10
1.91703e-11
3.02333e-12
2.75654e-12
2.56256e-09
2.82333e-10
2.03038e-11
3.38278e-12
3.11517e-12
2.5682e-09
2.81779e-10
2.02447e-11
3.38019e-12
3.11418e-12
2.27178e-09
2.47679e-10
1.77701e-11
3.072e-12
2.84885e-12
2.34884e-09
2.5726e-10
1.84703e-11
3.16791e-12
2.93376e-12
2.31843e-09
2.52937e-10
1.81013e-11
3.08208e-12
2.85053e-12
2.36104e-09
2.58978e-10
1.85879e-11
3.17163e-12
2.93427e-12
1.54674e-08
1.52946e-08
7.5873e-07
8.22055e-08
8.0989e-08
3.39874e-08
7.82313e-07
1.52886e-07
1.41987e-07
3.33716e-08
3.58849e-07
7.78342e-07
1.54559e-07
9.7256e-07
1.43125e-07
3.3836e-08
3.60441e-07
7.85134e-07
9.74259e-07
1.57261e-07
1.56032e-08
7.63255e-07
8.20671e-08
1.53194e-08
4.94525e-08
1.34946e-08
1.34137e-08
5.06764e-08
1.34503e-08
1.33874e-08
1.264e-07
3.22384e-08
2.375e-07
8.2924e-08
1.2829e-07
3.27028e-08
2.38422e-07
1.28789e-07
3.17776e-08
2.35583e-07
8.15182e-08
1.28175e-07
3.18971e-08
2.32567e-07
2.24219e-08
1.17944e-07
2.63401e-08
1.42938e-07
2.24571e-08
1.17272e-07
2.64465e-08
1.34655e-08
7.24158e-08
3.36542e-08
1.34556e-08
7.35942e-08
2.27762e-08
2.64917e-08
1.192e-07
1.44003e-07
2.29396e-08
2.66203e-08
1.21043e-07
1.37286e-08
7.4777e-08
3.41322e-08
1.37935e-08
7.52808e-08
1.55891e-08
5.06904e-08
1.3706e-08
1.37945e-08
1.29923e-07
2.35745e-07
8.2858e-08
2.32888e-07
3.23665e-08
1.31962e-07
8.2495e-08
3.29434e-08
2.38663e-07
1.55471e-08
1.26318e-06
1.13766e-06
1.13806e-06
9.67666e-07
1.26957e-06
1.14056e-06
1.14507e-06
9.73884e-07
1.1348e-06
9.72351e-07
1.14004e-06
9.76805e-07
2.78862e-07
7.40443e-07
4.39955e-07
4.32631e-07
2.78613e-07
4.32082e-07
4.29344e-07
5.18218e-07
2.34864e-07
3.626e-07
1.56309e-07
3.63826e-07
5.12417e-07
2.35744e-07
5.64377e-07
3.15201e-07
6.37135e-07
3.57857e-07
5.74191e-07
3.14014e-07
6.20672e-07
5.03491e-07
2.35767e-07
3.55849e-07
1.55701e-07
3.56033e-07
5.11365e-07
2.36325e-07
5.68108e-07
6.3834e-07
3.17571e-07
3.59072e-07
5.79502e-07
6.21912e-07
3.13065e-07
5.11289e-07
2.39597e-07
3.66143e-07
1.56097e-07
5.20313e-07
2.37607e-07
3.62503e-07
2.76147e-07
7.44782e-07
4.39444e-07
4.31948e-07
4.41437e-07
2.52335e-09
2.78129e-10
2.00319e-11
3.37252e-12
3.11194e-12
2.51577e-09
2.77488e-10
2.00028e-11
3.37236e-12
3.11226e-12
2.46212e-09
2.68186e-10
1.89274e-11
3.01501e-12
2.75387e-12
2.45142e-09
2.67166e-10
1.88594e-11
3.01404e-12
2.75514e-12
2.4975e-09
2.7279e-10
1.92259e-11
3.02499e-12
2.75657e-12
2.56368e-09
2.82843e-10
2.03425e-11
3.38363e-12
3.11503e-12
2.51306e-09
2.7727e-10
1.99869e-11
3.37396e-12
3.11468e-12
2.27626e-09
2.48132e-10
1.7797e-11
3.07281e-12
2.84884e-12
2.34744e-09
2.5736e-10
1.84804e-11
3.16851e-12
2.93424e-12
2.27857e-09
2.48381e-10
1.78111e-11
3.07331e-12
2.84929e-12
2.34886e-09
2.57363e-10
1.84775e-11
3.16746e-12
2.93294e-12
2.44771e-09
2.66972e-10
1.88491e-11
3.01681e-12
2.75836e-12
2.3258e-09
2.53545e-10
1.81399e-11
3.08314e-12
2.8505e-12
2.37326e-09
2.60303e-10
1.86726e-11
3.17408e-12
2.93479e-12
2.32835e-09
2.53692e-10
1.81545e-11
3.08402e-12
2.85095e-12
2.36322e-09
2.59455e-10
1.86173e-11
3.17162e-12
2.93349e-12
2.4994e-09
2.72598e-10
1.92039e-11
3.02695e-12
2.75951e-12
2.55735e-09
2.82261e-10
2.03094e-11
3.38504e-12
3.11743e-12
2.53569e-09
2.75884e-10
1.94245e-11
3.05885e-12
2.7882e-12
2.52395e-09
2.78848e-10
2.00939e-11
3.37856e-12
3.11663e-12
2.31261e-09
2.53523e-10
1.841e-11
3.2926e-12
3.07066e-12
2.49627e-09
2.71734e-10
1.91603e-11
3.04719e-12
2.7828e-12
2.50523e-09
2.72025e-10
1.91783e-11
3.05306e-12
2.78902e-12
2.30424e-09
2.52499e-10
1.83474e-11
3.29036e-12
3.06971e-12
2.48494e-09
2.7022e-10
1.90631e-11
3.04289e-12
2.78119e-12
2.48251e-09
2.70216e-10
1.90669e-11
3.04624e-12
2.78455e-12
2.31351e-09
2.53414e-10
1.84085e-11
3.2965e-12
3.07466e-12
2.31412e-09
2.53092e-10
1.83836e-11
3.29398e-12
3.07284e-12
2.51182e-09
2.75445e-10
1.98502e-11
3.37201e-12
3.11637e-12
2.50723e-09
2.75202e-10
1.98376e-11
3.36889e-12
3.11326e-12
2.56388e-09
2.81661e-10
2.0252e-11
3.38355e-12
3.11752e-12
2.56853e-09
2.81902e-10
2.02617e-11
3.38089e-12
3.11437e-12
2.51989e-09
2.74168e-10
1.93161e-11
3.05466e-12
2.78666e-12
2.36083e-09
2.58537e-10
1.87334e-11
3.30495e-12
3.07467e-12
2.36897e-09
2.59501e-10
1.87964e-11
3.30747e-12
3.07557e-12
8.20487e-07
7.7145e-07
1.38074e-06
8.09878e-07
8.27285e-07
7.79855e-07
1.36118e-06
8.11674e-07
8.32675e-07
7.72825e-07
1.3389e-06
8.14334e-07
8.29428e-07
7.71967e-07
1.32276e-06
8.07762e-07
8.20676e-07
7.74082e-07
1.31083e-06
8.00065e-07
8.14851e-07
7.71462e-07
1.30141e-06
8.03415e-07
8.19231e-07
7.71516e-07
1.28967e-06
7.98079e-07
8.15787e-07
7.65837e-07
1.28052e-06
7.93773e-07
8.1155e-07
7.62243e-07
1.2724e-06
7.96612e-07
8.05884e-07
7.65992e-07
1.26456e-06
7.90028e-07
7.98829e-07
7.56087e-07
1.26013e-06
7.90753e-07
8.0088e-07
7.5357e-07
1.26054e-06
7.84452e-07
7.97651e-07
7.6009e-07
1.26555e-06
7.8608e-07
7.96552e-07
7.59785e-07
1.26154e-06
7.9071e-07
8.02777e-07
7.61131e-07
1.25892e-06
7.89414e-07
7.97838e-07
7.57109e-07
1.25542e-06
7.9769e-07
8.04104e-07
7.67494e-07
7.73911e-07
7.60477e-07
8.14643e-07
8.30037e-07
8.13815e-07
7.59116e-07
7.81106e-07
7.57324e-07
8.18986e-07
8.17916e-07
8.25543e-07
8.27152e-07
7.80748e-07
7.68536e-07
8.11413e-07
8.12903e-07
8.14909e-07
8.17817e-07
8.12561e-07
8.17523e-07
8.14213e-07
7.80828e-07
7.60761e-07
8.09775e-07
8.32454e-07
8.17536e-07
7.56006e-07
7.72105e-07
7.57213e-07
8.26166e-07
8.21608e-07
8.23246e-07
8.26997e-07
7.87687e-07
7.65445e-07
8.15842e-07
8.15933e-07
8.10792e-07
8.12666e-07
8.14448e-07
8.16395e-07
8.13219e-07
7.78157e-07
7.56576e-07
8.17307e-07
8.29644e-07
8.14436e-07
7.55627e-07
7.75533e-07
7.54653e-07
8.23451e-07
8.26005e-07
8.18545e-07
8.23086e-07
7.83856e-07
7.59641e-07
8.12003e-07
8.06638e-07
8.09898e-07
8.0934e-07
8.13716e-07
8.0594e-07
8.09397e-07
7.73952e-07
7.61699e-07
8.14654e-07
8.26597e-07
8.09654e-07
7.5685e-07
7.74581e-07
7.53911e-07
8.17233e-07
8.22753e-07
8.16352e-07
8.14293e-07
7.77218e-07
7.52222e-07
8.08644e-07
8.07261e-07
8.002e-07
8.0737e-07
8.09444e-07
8.05424e-07
7.97859e-07
7.76825e-07
7.5915e-07
8.13955e-07
8.23159e-07
8.14589e-07
7.54742e-07
7.71685e-07
7.54255e-07
8.17322e-07
8.15474e-07
8.13273e-07
8.14363e-07
7.71747e-07
7.49303e-07
8.01802e-07
8.03052e-07
8.02464e-07
8.01895e-07
8.03058e-07
8.04831e-07
7.98648e-07
7.77651e-07
7.56184e-07
8.1504e-07
8.19086e-07
8.13148e-07
7.53936e-07
7.69955e-07
7.49265e-07
8.16112e-07
8.07991e-07
8.15547e-07
8.07474e-07
7.695e-07
7.51131e-07
8.01171e-07
8.07503e-07
7.99573e-07
8.02008e-07
8.00092e-07
8.032e-07
7.97633e-07
7.76173e-07
7.58274e-07
8.13285e-07
8.11304e-07
8.09366e-07
7.42145e-07
7.66332e-07
7.52403e-07
8.10329e-07
8.03871e-07
8.10719e-07
8.08099e-07
7.70907e-07
7.52945e-07
7.97845e-07
8.02661e-07
7.9364e-07
7.97696e-07
7.90608e-07
7.98182e-07
7.95361e-07
7.77555e-07
7.52893e-07
8.10655e-07
8.10546e-07
8.03393e-07
7.46686e-07
7.71451e-07
7.41488e-07
8.07807e-07
8.03668e-07
8.05998e-07
8.07949e-07
7.71398e-07
7.50708e-07
7.95999e-07
7.94525e-07
7.92979e-07
7.96291e-07
7.94954e-07
7.91877e-07
7.94942e-07
7.71528e-07
7.54271e-07
7.98645e-07
8.10208e-07
7.99465e-07
7.47449e-07
7.6637e-07
7.45542e-07
8.10498e-07
8.0199e-07
8.07254e-07
8.02251e-07
7.68593e-07
7.45066e-07
7.93038e-07
7.9319e-07
7.93812e-07
7.96444e-07
7.89543e-07
7.8676e-07
7.7994e-07
7.72255e-07
7.4897e-07
8.04911e-07
8.00853e-07
8.03629e-07
7.42082e-07
7.65532e-07
7.46675e-07
8.07262e-07
8.01562e-07
8.04453e-07
8.00463e-07
7.59993e-07
7.45259e-07
7.94027e-07
7.96974e-07
7.91931e-07
7.92878e-07
7.83845e-07
7.88903e-07
7.85169e-07
7.67832e-07
7.51263e-07
8.02501e-07
8.05638e-07
8.02203e-07
7.36893e-07
7.64979e-07
7.37173e-07
7.99008e-07
8.02112e-07
7.97484e-07
7.98309e-07
7.6509e-07
7.42387e-07
7.90455e-07
7.91347e-07
7.86936e-07
7.95132e-07
7.84207e-07
7.8873e-07
7.86233e-07
7.66702e-07
7.45286e-07
8.02303e-07
8.00184e-07
8.01589e-07
7.35556e-07
7.6091e-07
7.44539e-07
8.04144e-07
7.99489e-07
8.03866e-07
7.9607e-07
7.59015e-07
7.4016e-07
7.90088e-07
7.92473e-07
7.89927e-07
7.95174e-07
7.85899e-07
7.88671e-07
7.86353e-07
7.65659e-07
7.44775e-07
8.01369e-07
8.02294e-07
8.0046e-07
7.42269e-07
7.63196e-07
7.34586e-07
8.04712e-07
7.96459e-07
8.00746e-07
7.97242e-07
7.59644e-07
7.43926e-07
7.8841e-07
7.96526e-07
7.79622e-07
7.86918e-07
7.84679e-07
7.84667e-07
7.84511e-07
7.63988e-07
7.46478e-07
8.001e-07
8.01949e-07
7.96282e-07
7.3739e-07
7.55894e-07
7.38136e-07
7.96066e-07
7.98983e-07
7.98654e-07
7.97548e-07
7.61932e-07
7.44447e-07
7.8157e-07
7.91916e-07
7.82273e-07
7.90632e-07
7.8149e-07
7.88551e-07
7.83369e-07
7.6592e-07
7.43694e-07
7.9565e-07
7.9804e-07
7.9992e-07
7.42766e-07
7.58617e-07
7.43547e-07
8.01366e-07
7.9476e-07
7.8832e-07
7.88116e-07
7.53653e-07
7.45774e-07
7.78843e-07
7.93298e-07
7.84334e-07
7.8282e-07
7.82409e-07
7.91483e-07
7.85271e-07
7.67577e-07
7.4709e-07
7.94759e-07
8.02987e-07
8.01708e-07
7.45223e-07
7.84859e-07
7.56639e-07
7.90082e-07
7.88931e-07
7.92178e-07
7.74322e-07
8.05723e-07
1.58606e-08
1.60276e-08
3.78091e-07
1.07415e-06
1.61394e-07
8.32868e-07
1.6314e-07
3.79364e-07
1.07818e-06
8.18268e-08
8.28785e-08
7.57028e-07
8.33373e-08
8.28572e-08
1.48539e-07
3.44509e-08
3.46169e-08
1.46764e-07
1.55226e-08
1.55973e-08
1.45092e-07
3.34637e-08
3.39005e-08
1.43295e-07
1.36895e-06
1.3834e-06
1.36949e-06
1.36461e-06
1.35758e-06
1.36714e-06
1.35724e-06
3.70799e-07
1.57375e-07
1.03567e-06
8.18115e-07
1.60263e-07
1.03332e-06
3.71234e-07
1.56499e-08
1.56941e-08
3.78441e-07
1.05782e-06
1.61204e-07
8.28747e-07
3.77959e-07
1.05323e-06
1.61285e-07
8.17975e-08
8.29038e-08
7.59702e-07
8.28344e-08
8.36343e-08
1.48225e-07
3.41797e-08
1.47564e-07
3.454e-08
1.56502e-08
1.56446e-08
1.43039e-07
3.38699e-08
1.43786e-07
3.41882e-08
1.35162e-06
1.35893e-06
1.35159e-06
1.34251e-06
1.34015e-06
1.34422e-06
1.34058e-06
3.70481e-07
1.59843e-07
1.02496e-06
8.1711e-07
3.72028e-07
1.60912e-07
1.02247e-06
1.56979e-08
1.57483e-08
3.80699e-07
1.04603e-06
1.60022e-07
8.28068e-07
3.81686e-07
1.04381e-06
1.62431e-07
8.26963e-08
8.29046e-08
7.60409e-07
8.30655e-08
8.23449e-08
1.48554e-07
3.4335e-08
1.48209e-07
3.44873e-08
1.58384e-08
1.58923e-08
1.45486e-07
3.39475e-08
1.4187e-07
3.41782e-08
1.33523e-06
1.33827e-06
1.33614e-06
1.32513e-06
1.32559e-06
1.32697e-06
1.32504e-06
3.6971e-07
1.59937e-07
1.01446e-06
8.0893e-07
3.6942e-07
1.61069e-07
1.0121e-06
1.57487e-08
1.58189e-08
3.82083e-07
1.03679e-06
1.60026e-07
8.29488e-07
3.81053e-07
1.03475e-06
1.61716e-07
8.24333e-08
8.28316e-08
7.52603e-07
8.29282e-08
8.30463e-08
1.51132e-07
3.49184e-08
1.48849e-07
3.50331e-08
1.59683e-08
1.59273e-08
1.45326e-07
3.42192e-08
1.4446e-07
3.43653e-08
1.32131e-06
1.32158e-06
1.32083e-06
1.31183e-06
1.31174e-06
1.31304e-06
1.31024e-06
3.66018e-07
1.58697e-07
1.00437e-06
8.01594e-07
3.6408e-07
1.5806e-07
1.00227e-06
1.58709e-08
1.58445e-08
3.8359e-07
1.02775e-06
1.62027e-07
8.23043e-07
3.81132e-07
1.02597e-06
1.61148e-07
8.15097e-08
8.2499e-08
7.55372e-07
8.27896e-08
8.41229e-08
1.52742e-07
3.53291e-08
1.51514e-07
3.54334e-08
1.5933e-08
1.59819e-08
1.45588e-07
3.43314e-08
1.45754e-07
3.43383e-08
1.30811e-06
1.30956e-06
1.30643e-06
1.30335e-06
1.30152e-06
1.3017e-06
1.29773e-06
3.663e-07
1.58633e-07
9.95271e-07
8.05951e-07
3.71999e-07
1.58984e-07
9.93859e-07
1.59248e-08
1.58689e-08
3.82154e-07
1.01926e-06
1.60575e-07
8.18939e-07
3.86159e-07
1.0176e-06
1.62741e-07
8.19754e-08
8.36984e-08
7.45048e-07
8.28479e-08
8.3902e-08
1.50342e-07
3.55512e-08
1.52828e-07
3.53602e-08
1.59887e-08
1.5989e-08
1.45917e-07
3.41491e-08
1.44113e-07
3.40997e-08
1.29738e-06
1.29794e-06
1.29474e-06
1.29153e-06
1.28939e-06
1.29004e-06
1.28678e-06
3.62205e-07
1.57713e-07
9.85916e-07
8.04237e-07
3.65469e-07
1.57334e-07
9.9132e-07
1.5878e-08
1.57032e-08
3.76208e-07
1.01142e-06
1.62506e-07
8.19372e-07
3.81731e-07
1.01094e-06
1.59147e-07
8.18723e-08
8.30946e-08
7.49326e-07
8.20982e-08
8.23978e-08
1.51559e-07
3.562e-08
1.51336e-07
3.55639e-08
1.6022e-08
1.59349e-08
1.46009e-07
3.41379e-08
1.45827e-07
3.39165e-08
1.28637e-06
1.28546e-06
1.28236e-06
1.28143e-06
1.2806e-06
1.2807e-06
1.27705e-06
3.6096e-07
1.5901e-07
9.91828e-07
7.99074e-07
3.66926e-07
1.58752e-07
9.87277e-07
1.58821e-08
1.58655e-08
3.80579e-07
1.01448e-06
1.6139e-07
8.13971e-07
3.80304e-07
1.01501e-06
1.61898e-07
8.15381e-08
8.278e-08
7.47196e-07
8.21693e-08
8.29516e-08
1.49853e-07
3.5323e-08
1.51594e-07
3.49416e-08
1.58865e-08
1.57883e-08
1.44656e-07
3.36685e-08
1.45385e-07
3.38691e-08
1.27601e-06
1.27783e-06
1.27402e-06
1.27328e-06
1.27056e-06
1.2741e-06
1.26855e-06
3.61229e-07
1.57027e-07
9.92507e-07
7.90603e-07
3.63386e-07
1.57667e-07
9.93434e-07
1.59694e-08
1.58174e-08
3.72411e-07
1.01394e-06
1.58417e-07
8.116e-07
3.72703e-07
1.01226e-06
1.60012e-07
8.112e-08
8.21852e-08
7.47387e-07
8.24407e-08
8.21185e-08
1.52334e-07
3.51623e-08
1.51594e-07
3.52998e-08
1.57131e-08
1.5597e-08
1.45409e-07
3.39236e-08
1.44506e-07
3.39582e-08
1.26777e-06
1.27057e-06
1.26648e-06
1.26535e-06
1.26127e-06
1.26867e-06
1.26285e-06
3.56145e-07
1.57336e-07
9.90043e-07
7.95234e-07
3.61473e-07
1.57898e-07
9.90288e-07
1.58989e-08
1.58683e-08
3.76986e-07
1.01148e-06
1.6016e-07
8.06377e-07
3.76913e-07
1.01174e-06
1.60998e-07
8.15052e-08
8.21651e-08
7.4634e-07
8.16193e-08
8.232e-08
1.51281e-07
3.46694e-08
1.50754e-07
3.49431e-08
1.56671e-08
1.56629e-08
1.44819e-07
3.38871e-08
1.4369e-07
3.39694e-08
1.26569e-06
1.27336e-06
1.25948e-06
1.26421e-06
1.26666e-06
1.27717e-06
1.26544e-06
3.60115e-07
1.5572e-07
9.85863e-07
7.90582e-07
3.63199e-07
1.57605e-07
9.89718e-07
1.58339e-08
1.58084e-08
3.76733e-07
1.00963e-06
1.57682e-07
8.05398e-07
3.76632e-07
1.01042e-06
1.59232e-07
8.11362e-08
8.241e-08
7.34606e-07
8.19887e-08
8.24521e-08
1.51831e-07
3.47675e-08
1.51143e-07
3.50919e-08
1.56854e-08
1.57218e-08
1.4504e-07
3.37316e-08
1.45532e-07
3.3927e-08
1.26373e-06
1.27193e-06
1.26337e-06
1.26066e-06
1.26823e-06
1.2743e-06
1.26296e-06
3.64532e-07
1.57196e-07
9.85532e-07
7.90046e-07
3.65391e-07
1.5721e-07
9.89962e-07
1.58024e-08
1.57687e-08
3.78661e-07
1.00424e-06
1.5923e-07
7.99884e-07
3.78565e-07
1.00633e-06
1.60025e-07
8.13849e-08
8.13086e-08
7.40339e-07
8.24396e-08
8.25194e-08
1.50626e-07
3.51072e-08
1.509e-07
3.51215e-08
1.57261e-08
1.56645e-08
1.45663e-07
3.37659e-08
1.4442e-07
3.40049e-08
1.26813e-06
1.26841e-06
1.26612e-06
1.26403e-06
1.26498e-06
1.2722e-06
1.25836e-06
3.62872e-07
1.56079e-07
9.90184e-07
7.86855e-07
3.61723e-07
1.56177e-07
9.89897e-07
1.56834e-08
1.5655e-08
3.71981e-07
1.00867e-06
1.59375e-07
8.03275e-07
3.77636e-07
1.00814e-06
1.60073e-07
8.11319e-08
8.1864e-08
7.4042e-07
8.24752e-08
8.25561e-08
1.49728e-07
3.50782e-08
1.49505e-07
3.48255e-08
1.57177e-08
1.5721e-08
1.45417e-07
3.37886e-08
1.43083e-07
3.39136e-08
1.26655e-06
1.26862e-06
1.2573e-06
1.26002e-06
1.26939e-06
1.26644e-06
1.26174e-06
3.6129e-07
1.55869e-07
9.86275e-07
7.82849e-07
3.62613e-07
1.57297e-07
9.81205e-07
1.57365e-08
1.57221e-08
3.71883e-07
1.00003e-06
1.59497e-07
8.00332e-07
3.75363e-07
1.00319e-06
1.59976e-07
8.18071e-08
8.20773e-08
7.41384e-07
8.24278e-08
8.24326e-08
1.51135e-07
3.47426e-08
1.48533e-07
3.49726e-08
1.57545e-08
1.57775e-08
1.44682e-07
3.35347e-08
1.43798e-07
3.39108e-08
1.26758e-06
1.2609e-06
1.2606e-06
1.25443e-06
1.26507e-06
1.25769e-06
1.26095e-06
3.60489e-07
1.55361e-07
9.87392e-07
7.8823e-07
3.64698e-07
1.54869e-07
9.87166e-07
1.57438e-08
1.5775e-08
3.76197e-07
1.00458e-06
1.59937e-07
8.01151e-07
3.74882e-07
1.00499e-06
1.5928e-07
8.10205e-08
8.2221e-08
7.36101e-07
8.22261e-08
8.25642e-08
1.464e-07
3.50649e-08
1.47675e-07
3.46107e-08
1.58515e-08
1.59254e-08
1.42555e-07
3.37781e-08
1.43356e-07
3.3663e-08
1.26491e-06
1.25648e-06
1.25543e-06
1.25492e-06
1.26365e-06
1.24914e-06
1.24847e-06
3.61187e-07
1.5514e-07
9.87707e-07
7.8746e-07
3.58372e-07
1.55832e-07
9.86446e-07
1.58095e-08
1.58132e-08
3.75132e-07
1.00571e-06
1.59582e-07
8.00548e-07
3.74866e-07
1.0062e-06
1.60151e-07
8.08045e-08
8.26269e-08
7.42401e-07
8.17324e-08
8.26208e-08
1.57118e-08
3.4249e-08
1.44339e-07
1.26539e-06
1.23893e-06
1.24159e-06
1.55645e-07
9.933e-07
3.67479e-07
1.58916e-08
1.00316e-06
1.5946e-07
3.72609e-07
8.16753e-08
8.28903e-08
8.40068e-08
8.44797e-08
7.82789e-07
8.61448e-08
8.50053e-08
1.59452e-08
1.59788e-08
1.56678e-08
1.58353e-08
7.89632e-07
8.24424e-08
8.32341e-08
8.56431e-08
8.33187e-08
1.57837e-08
1.59476e-08
3.76691e-07
1.07034e-06
1.59373e-07
8.11307e-07
1.59463e-07
3.74005e-07
1.06773e-06
1.49549e-07
3.57048e-08
3.56814e-08
1.48128e-07
1.48683e-07
3.49389e-08
3.495e-08
1.47124e-07
3.79493e-07
8.30619e-07
1.06361e-06
1.6186e-07
1.61573e-07
3.77851e-07
1.06699e-06
3.75455e-07
8.13723e-07
1.05959e-06
1.60018e-07
1.57866e-07
3.79999e-07
1.06408e-06
1.49425e-07
3.51428e-08
3.59308e-08
1.47998e-07
1.48262e-07
3.49363e-08
3.50848e-08
1.50566e-07
1.56069e-08
1.56675e-08
1.56762e-08
1.56513e-08
7.75324e-07
8.33495e-08
8.35802e-08
8.28207e-08
8.2509e-08
1.56758e-08
1.56894e-08
1.56711e-08
1.56027e-08
1.54444e-08
1.55365e-08
1.52625e-08
1.53452e-08
8.19052e-08
8.04711e-08
7.59287e-07
8.29044e-08
8.13213e-08
1.55678e-08
1.55176e-08
1.54117e-08
1.54084e-08
7.76909e-07
8.32076e-08
8.07428e-08
8.24443e-08
8.08737e-08
1.46569e-07
3.48346e-08
3.44757e-08
1.47194e-07
3.76269e-07
1.57565e-07
1.06037e-06
8.18616e-07
1.59536e-07
1.05719e-06
3.75752e-07
3.77099e-07
1.58264e-07
1.05778e-06
8.2525e-07
1.58278e-07
1.05554e-06
3.77271e-07
1.47265e-07
3.40416e-08
3.53929e-08
1.47024e-07
1.47782e-07
3.48072e-08
3.53658e-08
1.49461e-07
3.81261e-07
8.25072e-07
1.56457e-07
1.0523e-06
1.58971e-07
1.0549e-06
3.78828e-07
3.77369e-07
8.25674e-07
1.60625e-07
1.0515e-06
1.57586e-07
1.05388e-06
3.7546e-07
8.24639e-08
8.41504e-08
7.66214e-07
8.31572e-08
8.43962e-08
1.58827e-08
1.58617e-08
1.56405e-08
1.55802e-08
7.86621e-07
8.33881e-08
8.44338e-08
8.2704e-08
8.38428e-08
1.59167e-08
1.59135e-08
3.5991e-07
1.53685e-07
1.03062e-06
8.09615e-07
1.54856e-07
1.02591e-06
3.62667e-07
1.44446e-07
3.43864e-08
3.44294e-08
1.44308e-07
3.64706e-07
1.03268e-06
1.55446e-07
8.1549e-07
1.02996e-06
1.56554e-07
3.67957e-07
1.44558e-07
3.41521e-08
3.47216e-08
1.44953e-07
3.64147e-07
8.15803e-07
1.57133e-07
1.01908e-06
1.55825e-07
1.02267e-06
3.63957e-07
1.4511e-07
3.44126e-08
3.49893e-08
1.46373e-07
3.61002e-07
8.16904e-07
1.02301e-06
1.55783e-07
1.02644e-06
1.54464e-07
3.63538e-07
1.48072e-07
3.48657e-08
3.489e-08
1.46694e-07
3.65896e-07
1.03168e-06
1.56768e-07
8.14166e-07
1.03096e-06
1.58186e-07
3.70023e-07
1.48635e-07
3.45255e-08
3.43839e-08
1.47296e-07
3.72637e-07
8.1596e-07
1.61699e-07
1.02793e-06
1.59774e-07
1.03047e-06
3.70509e-07
1.46743e-07
3.52433e-08
3.55593e-08
1.49254e-07
3.7216e-07
8.13314e-07
1.02704e-06
1.56972e-07
1.02943e-06
1.56697e-07
3.65429e-07
1.48316e-07
3.48797e-08
3.47961e-08
1.49419e-07
8.20767e-08
8.38971e-08
7.60375e-07
8.33814e-08
8.45597e-08
1.57712e-08
1.58658e-08
1.57302e-08
1.5743e-08
7.77864e-07
8.28173e-08
8.41302e-08
8.31582e-08
8.40578e-08
1.59058e-08
1.58166e-08
3.81072e-07
1.05611e-06
1.59245e-07
8.16403e-07
3.81036e-07
1.05195e-06
1.59104e-07
1.47253e-07
3.57418e-08
1.49759e-07
3.52448e-08
1.50688e-07
3.49491e-08
1.5048e-07
3.48607e-08
3.80029e-07
8.26518e-07
1.04845e-06
1.62089e-07
1.05027e-06
1.60793e-07
3.7723e-07
3.81506e-07
8.16971e-07
1.04712e-06
1.5969e-07
1.04959e-06
1.59352e-07
3.77136e-07
1.49159e-07
3.51935e-08
3.5362e-08
1.48465e-07
1.48473e-07
3.47198e-08
3.52125e-08
1.50821e-07
1.55944e-08
1.56176e-08
1.56474e-08
1.56527e-08
7.79612e-07
8.32747e-08
8.36232e-08
8.24611e-08
8.36112e-08
1.57001e-08
1.56057e-08
1.5697e-08
1.56707e-08
1.55494e-08
1.55782e-08
1.54788e-08
1.54966e-08
8.31376e-08
8.14134e-08
7.56025e-07
8.37391e-08
8.20503e-08
1.56473e-08
1.56551e-08
1.55007e-08
1.55418e-08
7.75573e-07
8.35403e-08
8.12512e-08
8.27514e-08
8.1845e-08
1.48406e-07
3.58244e-08
1.48672e-07
3.51507e-08
3.79056e-07
1.58163e-07
1.04996e-06
8.20693e-07
3.77491e-07
1.58593e-07
1.04759e-06
3.80161e-07
1.59964e-07
1.04966e-06
8.25351e-07
3.75105e-07
1.60103e-07
1.04725e-06
1.47295e-07
3.49607e-08
3.48411e-08
1.47092e-07
1.4897e-07
3.53751e-08
3.54349e-08
1.48801e-07
3.75849e-07
8.25218e-07
1.60338e-07
1.04304e-06
1.59481e-07
1.04567e-06
3.7561e-07
3.7624e-07
8.21887e-07
1.60469e-07
1.04277e-06
1.5982e-07
1.0454e-06
3.80578e-07
8.3127e-08
8.36255e-08
7.64195e-07
8.36982e-08
8.45859e-08
1.5951e-08
1.59578e-08
1.58272e-08
1.57246e-08
7.84369e-07
8.4076e-08
8.52505e-08
8.26553e-08
8.45049e-08
1.60097e-08
1.60007e-08
3.64584e-07
1.5596e-07
1.01644e-06
8.15968e-07
3.65421e-07
1.56607e-07
1.01325e-06
1.4693e-07
3.52077e-08
1.46078e-07
3.47545e-08
3.61299e-07
1.01942e-06
1.57822e-07
8.09035e-07
3.66318e-07
1.016e-06
1.57759e-07
1.44678e-07
3.42236e-08
3.4522e-08
1.44655e-07
3.65786e-07
8.16036e-07
1.55799e-07
1.0075e-06
1.5485e-07
1.01093e-06
3.64966e-07
1.44265e-07
3.49892e-08
3.5448e-08
1.43889e-07
3.67542e-07
8.14058e-07
1.0097e-06
1.5847e-07
1.01304e-06
1.57888e-07
3.63815e-07
1.49993e-07
3.60221e-08
1.48731e-07
3.53822e-08
3.69327e-07
1.02482e-06
1.58002e-07
8.14779e-07
3.70763e-07
1.0221e-06
1.58193e-07
1.48354e-07
3.52311e-08
1.48844e-07
3.49491e-08
3.70628e-07
8.16856e-07
1.60892e-07
1.01715e-06
1.60909e-07
1.02006e-06
3.65064e-07
1.49277e-07
3.48325e-08
3.5639e-08
1.49083e-07
3.69125e-07
8.10726e-07
1.01704e-06
1.58811e-07
1.02015e-06
1.58731e-07
3.71147e-07
1.46944e-07
3.50536e-08
3.55609e-08
1.47507e-07
8.28385e-08
8.44723e-08
7.60893e-07
8.33425e-08
8.48676e-08
1.58647e-08
1.59141e-08
1.58066e-08
1.57995e-08
7.73765e-07
8.33985e-08
8.47321e-08
8.33006e-08
8.4088e-08
1.58868e-08
1.58664e-08
3.77831e-07
1.04603e-06
1.59522e-07
8.1159e-07
3.82855e-07
1.04322e-06
1.60526e-07
1.48958e-07
3.60409e-08
1.50187e-07
3.53513e-08
1.51639e-07
3.53755e-08
1.50733e-07
3.49536e-08
3.75941e-07
8.29329e-07
1.03926e-06
1.60594e-07
1.0413e-06
1.60422e-07
3.75479e-07
3.80421e-07
8.17486e-07
1.03851e-06
1.59343e-07
1.04128e-06
1.60326e-07
3.77995e-07
1.49529e-07
3.5013e-08
3.5475e-08
1.50974e-07
1.50767e-07
3.51219e-08
3.5898e-08
1.51638e-07
1.56935e-08
1.56232e-08
1.56409e-08
1.56523e-08
7.79495e-07
8.3147e-08
8.37206e-08
8.25486e-08
8.27922e-08
1.56576e-08
1.57291e-08
1.57483e-08
1.56158e-08
1.57216e-08
1.56722e-08
1.55199e-08
1.55381e-08
8.3458e-08
8.18204e-08
7.57791e-07
8.45543e-08
8.22838e-08
1.57942e-08
1.57749e-08
1.56071e-08
1.55747e-08
7.74743e-07
8.44113e-08
8.26879e-08
8.4445e-08
8.20752e-08
1.49636e-07
3.61308e-08
1.48643e-07
3.53304e-08
3.80803e-07
1.58019e-07
1.04119e-06
8.18185e-07
3.76624e-07
1.60157e-07
1.03866e-06
3.76279e-07
1.59572e-07
1.04089e-06
8.25598e-07
3.82005e-07
1.6108e-07
1.03848e-06
1.48216e-07
3.50976e-08
3.53634e-08
1.49835e-07
1.47663e-07
3.55693e-08
3.57447e-08
1.50243e-07
3.815e-07
8.13839e-07
1.60429e-07
1.0342e-06
1.60084e-07
1.03674e-06
3.81827e-07
3.79881e-07
8.22513e-07
1.60641e-07
1.03376e-06
1.61614e-07
1.03648e-06
3.77382e-07
8.34462e-08
8.48353e-08
7.62488e-07
8.44776e-08
8.52061e-08
1.60392e-08
1.59179e-08
1.59197e-08
1.58586e-08
7.80621e-07
8.38004e-08
8.44281e-08
8.36458e-08
8.38342e-08
1.5896e-08
1.58983e-08
3.61036e-07
1.54e-07
1.00507e-06
8.12417e-07
3.62188e-07
1.54536e-07
1.00245e-06
1.45879e-07
3.53423e-08
1.43186e-07
3.49866e-08
3.63698e-07
1.00705e-06
1.56078e-07
8.11387e-07
3.66043e-07
1.00484e-06
1.58263e-07
1.44689e-07
3.45835e-08
3.46449e-08
1.45723e-07
3.66613e-07
8.1093e-07
1.54788e-07
9.97925e-07
1.55353e-07
1.00045e-06
3.60538e-07
1.45889e-07
3.50957e-08
3.58275e-08
1.46165e-07
3.66099e-07
8.09552e-07
1.00011e-06
1.57712e-07
1.00238e-06
1.56175e-07
3.65012e-07
1.48354e-07
3.57457e-08
1.4776e-07
3.50709e-08
3.70473e-07
1.01497e-06
1.56666e-07
8.12331e-07
3.72125e-07
1.01235e-06
1.56776e-07
1.47286e-07
3.5567e-08
1.48096e-07
3.50845e-08
3.68082e-07
8.14419e-07
1.60182e-07
1.00712e-06
1.60473e-07
1.00953e-06
3.65765e-07
1.47383e-07
3.50052e-08
3.54737e-08
1.4581e-07
3.73232e-07
8.11752e-07
1.00741e-06
1.58941e-07
1.0105e-06
1.5799e-07
3.70117e-07
1.4749e-07
3.48771e-08
3.59185e-08
1.4871e-07
8.19639e-08
8.49493e-08
7.61204e-07
8.35508e-08
8.5544e-08
1.59775e-08
1.59502e-08
1.58709e-08
1.58514e-08
7.7546e-07
8.35896e-08
8.5917e-08
8.31022e-08
8.54388e-08
1.60661e-08
1.60469e-08
3.82343e-07
1.03644e-06
1.61115e-07
8.15072e-07
3.83193e-07
1.03403e-06
1.60661e-07
1.51363e-07
3.537e-08
1.50475e-07
3.55203e-08
1.50211e-07
3.54153e-08
1.50937e-07
3.53678e-08
3.83241e-07
8.23751e-07
1.03025e-06
1.62638e-07
1.03245e-06
1.61649e-07
3.8018e-07
3.83602e-07
8.16076e-07
1.02938e-06
1.60735e-07
1.03213e-06
1.60373e-07
3.80784e-07
1.51118e-07
3.54704e-08
3.63912e-08
1.52439e-07
1.48571e-07
3.55145e-08
3.6144e-08
1.51352e-07
1.57003e-08
1.56853e-08
1.57179e-08
1.57534e-08
7.76409e-07
8.28071e-08
8.35181e-08
8.24661e-08
8.31148e-08
1.56678e-08
1.56658e-08
1.57553e-08
1.57019e-08
1.58151e-08
1.57562e-08
1.556e-08
1.55921e-08
8.4196e-08
8.22271e-08
7.49523e-07
8.42254e-08
8.19373e-08
1.59164e-08
1.58232e-08
1.55763e-08
1.5623e-08
7.65417e-07
8.47258e-08
8.23762e-08
8.35352e-08
8.23307e-08
1.50116e-07
3.64152e-08
1.48451e-07
3.56061e-08
3.83596e-07
1.59175e-07
1.0324e-06
8.12047e-07
3.8042e-07
1.60847e-07
1.0299e-06
3.82115e-07
1.62002e-07
1.03172e-06
8.21988e-07
3.80889e-07
1.62923e-07
1.02924e-06
1.50616e-07
3.54926e-08
3.58093e-08
1.50535e-07
1.49375e-07
3.55834e-08
3.58478e-08
1.52159e-07
3.84674e-07
8.17421e-07
1.60239e-07
1.02542e-06
1.61157e-07
1.02816e-06
3.84352e-07
3.80527e-07
8.21405e-07
1.62503e-07
1.0245e-06
1.62554e-07
1.02746e-06
3.83233e-07
8.4339e-08
8.38576e-08
7.48876e-07
8.46939e-08
8.3625e-08
1.58953e-08
1.58863e-08
1.58578e-08
1.59388e-08
7.67665e-07
8.41777e-08
8.37199e-08
8.44348e-08
8.31207e-08
1.58965e-08
1.58939e-08
3.63914e-07
1.56184e-07
9.96312e-07
8.01627e-07
3.66131e-07
1.5721e-07
9.94096e-07
1.46562e-07
3.58456e-08
1.43798e-07
3.49913e-08
3.60317e-07
9.98092e-07
1.5673e-07
8.01698e-07
3.66646e-07
9.96265e-07
1.59153e-07
1.4385e-07
3.46778e-08
3.48187e-08
1.46649e-07
3.61199e-07
7.9508e-07
1.56247e-07
9.90902e-07
1.57183e-07
9.92483e-07
3.64578e-07
1.44419e-07
3.50112e-08
3.57251e-08
1.46992e-07
3.66354e-07
8.07526e-07
9.92767e-07
1.57876e-07
9.9477e-07
1.58639e-07
3.65602e-07
1.4843e-07
3.55478e-08
1.46982e-07
3.50422e-08
3.67116e-07
1.00523e-06
1.58024e-07
8.04568e-07
3.67587e-07
1.00273e-06
1.58338e-07
1.48494e-07
3.56616e-08
1.47596e-07
3.49245e-08
3.71603e-07
8.06989e-07
1.59591e-07
9.97806e-07
1.59534e-07
9.9978e-07
3.71684e-07
1.47273e-07
3.49701e-08
3.55536e-08
1.48137e-07
3.6752e-07
8.04462e-07
9.97775e-07
1.57635e-07
1.00083e-06
1.58218e-07
3.65672e-07
1.47438e-07
3.46822e-08
3.56211e-08
1.47229e-07
8.26325e-08
8.57778e-08
7.56404e-07
8.37322e-08
8.61338e-08
1.60423e-08
1.60716e-08
1.59171e-08
1.59001e-08
7.77636e-07
8.41253e-08
8.58985e-08
8.33364e-08
8.5729e-08
1.60647e-08
1.60413e-08
3.83076e-07
1.02746e-06
1.5955e-07
8.1509e-07
3.79837e-07
1.02559e-06
1.61224e-07
1.53564e-07
3.64741e-08
1.5223e-07
3.5482e-08
1.5318e-07
3.62183e-08
1.51681e-07
3.53759e-08
3.85078e-07
8.18537e-07
1.02172e-06
1.63027e-07
1.02367e-06
1.6314e-07
3.81726e-07
3.82421e-07
8.1561e-07
1.02125e-06
1.61116e-07
1.0236e-06
1.60242e-07
3.81473e-07
1.52697e-07
3.54715e-08
3.58203e-08
1.52665e-07
1.52498e-07
3.54703e-08
3.55759e-08
1.53225e-07
1.56352e-08
1.55763e-08
1.57765e-08
1.58511e-08
7.7495e-07
8.27334e-08
8.42178e-08
8.24125e-08
8.38053e-08
1.55977e-08
1.5571e-08
1.58876e-08
1.58481e-08
1.59126e-08
1.59107e-08
1.56479e-08
1.55589e-08
8.43975e-08
8.22484e-08
7.52607e-07
8.40873e-08
8.27154e-08
1.59519e-08
1.58835e-08
1.56023e-08
1.5652e-08
7.67657e-07
8.5081e-08
8.29748e-08
8.45041e-08
8.26729e-08
1.51819e-07
3.56637e-08
1.51724e-07
3.56239e-08
3.82986e-07
1.62343e-07
1.02393e-06
8.17424e-07
3.83544e-07
1.62975e-07
1.02582e-06
3.81209e-07
1.60205e-07
1.02266e-06
8.15782e-07
3.84117e-07
1.61381e-07
1.02006e-06
1.52391e-07
3.5671e-08
3.5686e-08
1.52707e-07
1.50812e-07
3.57291e-08
3.58966e-08
1.50973e-07
3.8465e-07
8.13415e-07
1.63238e-07
1.02562e-06
1.62352e-07
1.02138e-06
3.85213e-07
3.7991e-07
8.15817e-07
1.61423e-07
1.01576e-06
1.59835e-07
1.0183e-06
3.81201e-07
8.36194e-08
8.35455e-08
7.54625e-07
8.46944e-08
8.41544e-08
1.58625e-08
1.58338e-08
1.59435e-08
1.59942e-08
7.74579e-07
8.49914e-08
8.39831e-08
8.38772e-08
8.3908e-08
1.58463e-08
1.5868e-08
3.63967e-07
1.56633e-07
9.89867e-07
8.01507e-07
3.62495e-07
1.57826e-07
9.88625e-07
1.46655e-07
3.55145e-08
1.46151e-07
3.50206e-08
3.6531e-07
9.92985e-07
1.59518e-07
8.08258e-07
3.67624e-07
9.95043e-07
1.60326e-07
1.45529e-07
3.4214e-08
3.44324e-08
1.46648e-07
3.66841e-07
8.0225e-07
1.55594e-07
9.86371e-07
1.55815e-07
9.87502e-07
3.66418e-07
1.4528e-07
3.49e-08
3.54508e-08
1.45475e-07
3.66462e-07
8.07889e-07
9.96486e-07
1.60481e-07
9.91477e-07
1.5948e-07
3.62632e-07
1.46685e-07
3.5261e-08
1.46833e-07
3.48061e-08
3.64567e-07
9.95952e-07
1.57262e-07
8.01036e-07
3.71112e-07
9.94482e-07
1.585e-07
1.45236e-07
3.50845e-08
1.45384e-07
3.46272e-08
3.65463e-07
8.04553e-07
1.58462e-07
9.90408e-07
1.58487e-07
9.91284e-07
3.66429e-07
1.44607e-07
3.4642e-08
3.53168e-08
1.46705e-07
3.64243e-07