/*--------------------------------*- C++ -*----------------------------------*\
| =========                 |                                                 |
| \\      /  F ield         | OpenFOAM: The Open Source CFD Toolbox           |
|  \\    /   O peration     | Version:  2206                                  |
|   \\  /    A nd           | Website:  www.openfoam.com                      |
|    \\/     M anipulation  |                                                 |
\*---------------------------------------------------------------------------*/
FoamFile
{
    version     2.0;
    format      ascii;
    arch        "LSB;label=32;scalar=64";
    class       volScalarField;
    location    "60";
    object      omega;
}
// * * * * * * * * * * * * * * * * * * * * * * * * * * * * * * * * * * * * * //

dimensions      [0 0 -1 0 0 0 0];

internalField   nonuniform List<scalar> 
66701
(
413.981
433.026
294.523
186.264
333.194
113.224
131.131
308.379
433.054
295.331
186.113
333.269
113.341
308.253
131.467
413.948
733.329
1599.8
4390.69
16427.3
116912
730.007
1598.52
4389.21
16420
116840
751.317
1618.81
4422.8
16479.8
116802
751.853
1618.72
4422.82
16479.8
116814
732.682
1599.32
4390.3
16425.1
116892
730.017
1598.5
4389.28
16420.2
116852
740.071
1609.39
4407.02
16447.3
116752
739.348
1604.27
4396.33
16425.5
116727
740.053
1609.15
4407
16446.7
116747
739.128
1603.88
4396.28
16425.3
116725
414.075
414.931
24.7856
176.024
176.728
294.28
22.275
98.4163
115.337
296.684
44.0803
22.5728
105.516
19.7194
115.191
296.893
44.1196
22.4086
19.7395
104.811
414.725
24.7038
176.209
414.682
230.201
417.082
417.988
225.675
417.291
418.257
123.531
305.459
65.858
171.155
119.215
302.539
62.095
123.282
307.204
67.2489
171.818
121.737
305.681
64.2931
331.527
133.177
309.216
111.619
331.899
130.09
307.67
432.626
188.77
294.028
432.723
185.021
333.032
309.229
132.814
111.648
331.534
307.689
130.682
432.636
188.595
295.312
432.746
184.823
414.517
229.061
417.47
416.749
123.201
66.8769
171.598
64.135
305.295
122.831
172.578
304.043
65.2771
413.016
17.6721
16.6952
16.7707
16.1341
17.5863
16.6488
16.6665
15.996
16.7704
16.0311
16.6746
15.9291
57.4042
24.4811
35.3325
35.6567
56.9849
33.9105
33.9982
30.9495
59.644
43.0376
95.9236
41.9088
30.8092
58.7328
27.4804
50.0529
25.8805
42.4443
27.241
48.2337
25.4151
31.927
66.2592
43.8894
100.705
42.3082
31.0597
63.4275
27.3651
25.9795
50.078
41.9485
27.162
25.4138
47.7741
31.3931
65.4947
43.2775
100.461
31.0979
61.754
42.2222
56.9846
24.1263
35.2586
33.9094
34.7356
732.912
1599.63
4390.62
16427.2
116912
732.89
1599.75
4390.67
16427.3
116912
752.057
1619.28
4423.22
16480.7
116814
752.008
1619.08
4422.89
16479.8
116802
752.469
1619.08
4422.86
16479.9
116814
733.265
1599.79
4390.37
16425.1
116892
733.395
1599.56
4390.35
16427.1
116912
739.97
1609.18
4406.81
16447.1
116752
739.633
1604.34
4396.39
16425.6
116727
740.449
1609.62
4407.08
16447.3
116752
739.184
1603.95
4396.08
16425.3
116727
752.372
1618.63
4422.5
16479.5
116802
739.917
1609.33
4406.82
16446.5
116747
739.469
1604.41
4396.34
16425.3
116725
739.831
1609.53
4407.04
16446.7
116747
740.024
1604.2
4396.04
16425.1
116725
751.907
1618.72
4422.46
16479.5
116814
733.504
1599.54
4390.06
16424.9
116892
751.17
1617.84
4420.2
16472.4
116759
733.58
1599.57
4389.94
16424.2
116881
732.736
1603.48
4398.19
16440.6
116901
751.651
1618.14
4420.8
16473.1
116776
749.951
1617.6
4420.08
16472.5
116776
732.806
1603.53
4398.15
16441.4
116921
751.219
1618.16
4420.78
16475
116795
751.367
1617.92
4420.5
16474.7
116795
731.507
1603.26
4397.92
16440.1
116901
731.179
1603.11
4397.69
16441.1
116921
729.668
1598.56
4388.93
16419.8
116840
730.524
1599.03
4389.28
16420.1
116840
730.288
1598.73
4389.01
16419.9
116852
730.523
1599.04
4389.34
16420.2
116852
750.807
1617.82
4420.31
16473.5
116778
732.068
1603.36
4398.14
16442.2
116918
732.376
1603.37
4398.02
16441.4
116904
21.8966
24.5565
17.7442
22.4329
22.1788
24.6057
17.6981
22.4586
22.161
24.7792
17.7117
22.4888
22.1765
24.7418
17.6947
22.5306
22.2446
24.7766
17.6621
22.5163
22.2848
24.7643
17.6317
22.5527
22.2353
24.8137
17.6371
22.5201
22.3098
24.8559
17.6174
22.5001
22.2319
24.7647
17.6164
22.5283
22.2118
24.8455
17.6292
22.4855
22.2236
24.7541
17.6257
22.5194
22.2627
24.6943
17.6314
22.4896
22.2248
24.7565
17.6243
22.4898
22.1886
24.7047
17.6481
22.498
22.2008
24.821
17.6546
22.4938
22.2826
24.7452
17.6972
21.8411
22.097
24.5034
24.2148
24.456
22.0942
21.84
22.1851
24.1808
24.6508
24.5889
22.2455
22.2297
22.28
22.2884
24.5539
24.5159
22.3173
22.1412
22.3455
22.2871
22.4706
22.3529
22.5145
24.1967
24.4856
21.7554
21.9621
22.319
24.6863
24.2942
24.6279
21.7851
22.1548
22.3509
22.2977
24.1927
24.4891
22.2192
21.8587
22.4845
22.5441
22.1141
22.3574
22.5683
23.9062
24.5233
21.9631
22.0777
22.2738
24.6291
23.978
24.787
22.1007
22.1279
22.2492
22.2448
24.0706
24.4856
22.297
22.3397
22.5863
22.5465
22.1849
22.2369
22.5395
24.2386
24.5637
21.8542
22.147
22.2818
24.6975
24.4715
24.7291
21.9187
21.9764
22.2565
22.2459
24.0725
24.5425
22.2551
22.2465
22.6046
22.5328
22.2897
22.1079
22.6322
24.2677
24.5701
21.7802
21.933
22.3866
24.6415
24.3735
24.507
22.0241
21.7731
22.2321
22.3515
24.351
24.5873
22.3416
22.0542
22.5725
22.5158
22.351
22.1908
22.5883
24.2259
24.5037
22.2043
21.8524
22.2776
24.7128
24.0993
24.6048
21.8976
22.173
22.2127
22.3087
24.0307
24.5808
22.2891
22.0238
22.5553
22.5105
22.1207
22.3949
22.6118
24.1822
24.3937
22.0196
22.2404
22.2853
24.4656
24.2918
24.6259
21.8596
22.0439
22.2048
22.3248
24.3053
24.6175
22.4327
22.0805
22.604
22.458
22.3382
22.1788
22.5728
24.0447
24.3623
21.9834
22.128
22.2707
24.6466
24.2444
24.6626
21.7745
21.8605
22.3638
22.3373
24.2825
24.6349
22.2434
22.0104
22.526
22.4453
22.186
22.3537
22.5848
23.9575
24.4677
22.0193
22.107
22.2828
24.4524
24.3312
24.7102
22.1848
22.1319
22.3115
22.3312
24.2774
24.5467
21.9587
22.0796
22.6194
22.4142
22.1939
22.3776
22.5116
24.0427
24.4039
22.0279
22.0657
22.2524
24.328
24.4046
24.7091
22.1503
21.7904
22.2874
22.3434
24.1305
24.5935
22.4311
22.1044
22.5471
22.4477
22.189
22.4146
22.5202
24.0738
24.4186
21.7981
21.9159
22.2567
24.5777
24.4445
24.6649
22.0654
22.1016
22.2622
22.2165
23.9918
24.5548
22.3235
22.149
22.5501
22.4551
22.2138
22.378
22.5236
23.8383
24.5631
21.7762
22.1321
22.343
24.3495
24.4122
24.6518
21.807
21.6846
22.3271
22.2899
24.1843
24.6952
22.2858
21.9439
22.5379
22.5522
22.2052
22.363
22.5506
24.2781
24.5355
21.801
21.9395
22.264
24.5735
24.019
24.581
22.081
21.7833
22.2701
22.2545
24.3687
24.6686
22.0819
22.1699
22.603
22.5247
21.9875
22.3785
22.6525
24.2499
24.3845
21.7604
21.8176
22.276
24.3754
24.1294
24.5577
21.7054
21.7594
22.3428
22.2966
24.3828
24.6439
22.3802
22.1287
22.5428
22.4822
22.4637
22.3891
22.5676
23.9693
24.524
22.0843
21.9345
22.219
24.609
24.0801
24.6754
21.742
22.0406
22.5701
22.4076
23.9537
24.5931
22.3392
22.2332
22.4201
22.1752
22.3939
21.8771
21.8544
24.2692
24.4108
22.0074
22.0213
22.0968
24.3974
21.8899
23.9098
22.0708
21.8055
22.0539
23.9153
21.5952
413.897
412.452
41.1032
19.4005
98.6434
21.8069
99.6135
40.8008
19.3694
175.116
173.224
24.5348
173.474
175.552
110.335
293.504
293.277
110.556
413.312
412.985
114.568
296.152
295.596
114.26
17.7078
17.7254
17.6695
17.72
17.7281
17.7302
17.6767
42.9011
104.654
19.7406
22.1204
103.838
19.6528
43.4136
414.491
414.435
41.501
19.544
102.288
22.0283
41.6772
19.5152
101.756
176.664
173.807
24.5679
176.356
173.635
109.764
294.436
110.141
293.168
412.497
412.688
114.213
296.191
115.032
296.004
17.7443
17.7628
17.6958
17.7268
17.7215
17.724
17.6748
43.5025
104.78
19.796
22.0454
43.448
104.388
19.6746
414.494
414.336
41.6694
19.5627
102.402
21.8381
41.4268
19.4679
101.819
176.461
174.349
24.6945
176.585
174.356
109.143
294.231
110.894
293.278
412.588
412.834
113.87
295.984
115.105
295.369
17.7323
17.73
17.685
17.7133
17.6888
17.6959
17.6749
43.6506
104.316
19.6642
22.2276
43.6397
104.432
19.642
414.527
414.328
41.5758
19.5671
102.117
21.868
42.0408
19.4448
101.96
177.032
175.128
24.6839
176.852
174.586
109.622
292.957
109.706
292.659
412.538
412.729
115.172
296.65
116.183
295.948
17.6926
17.7051
17.6834
17.6851
17.658
17.6756
17.669
43.8026
104.816
19.7842
22.3612
43.4938
104.597
19.6986
414.386
414.457
41.8315
19.5653
101.838
21.6875
41.7336
19.3809
101.726
176.965
174.981
24.7115
176.713
174.073
109.9
293.387
110.618
293.333
412.705
412.818
115.477
296.797
115.272
296.127
17.6537
17.6734
17.6762
17.6468
17.6111
17.654
17.6462
43.9484
104.319
19.7826
21.9791
44.0446
104.402
19.7249
414.435
414.367
41.4685
19.442
101.758
22.1062
41.7
19.515
101.792
177.816
174.956
24.7282
176.736
174.753
110.271
293.431
111.142
292.878
412.871
412.897
114.053
296.201
115.635
295.959
17.6202
17.6661
17.6489
17.6548
17.6152
17.6495
17.6296
43.2251
104.533
19.7867
22.0076
44.1043
103.946
19.6211
414.539
414.546
41.6883
19.5564
101.844
22.0833
41.7856
19.4605
101.914
177.905
175.119
24.7673
176.943
174.743
109.515
293.324
111.238
293.199
412.734
413.01
114.445
296.166
114.697
296.013
17.619
17.6679
17.6483
17.637
17.6003
17.6329
17.6222
43.4419
105.057
19.7452
22.2189
43.6731
104.937
19.6554
414.049
414.245
41.6412
19.556
102.424
21.9777
41.9841
19.403
101.927
177.493
175.23
24.748
176.41
174.844
109.923
294.091
110.18
293.522
412.957
412.963
114.759
296.465
114.902
295.814
17.6297
17.6348
17.6305
17.6258
17.6197
17.6062
17.6248
43.694
105.235
19.7601
22.0351
43.658
104.935
19.6753
414.1
414.366
41.4283
19.5903
102.362
21.84
41.7685
19.5176
101.951
177.604
175.908
24.7351
176.281
174.972
109.629
293.713
110.302
293.361
412.82
413.097
114.682
296.049
115.246
295.964
17.6327
17.6319
17.6299
17.6383
17.6127
17.6178
17.5995
43.6023
104.85
19.7757
22.1157
43.5446
104.526
19.73
414.276
414.409
41.672
19.5589
101.888
21.9633
41.9495
19.4659
101.966
177.674
175.083
24.721
176.93
174.607
110.437
294.026
110.992
293.544
412.666
412.703
114.768
295.741
115.189
295.746
17.6218
17.623
17.6011
17.6325
17.598
17.5856
17.5891
43.5154
105.45
19.7561
22.1516
43.5834
104.929
19.6624
414.342
414.407
41.1139
19.547
102.175
21.6924
41.8521
19.4302
101.532
175.889
175.229
24.6921
176.337
174.495
109.511
293.606
110.058
293.327
412.735
412.753
114.742
296.696
115.557
295.808
17.6039
17.5899
17.6006
17.653
17.5858
17.5818
17.6056
43.2926
104.982
19.7405
22.1961
43.6128
104.143
19.6233
414.485
414.476
41.5271
19.5171
101.969
22.0287
41.39
19.4219
101.315
177.028
175.331
24.6789
176.589
174.223
109.641
293.39
109.871
293.392
412.563
412.855
115.319
296.013
116.187
295.615
17.5983
17.6013
17.6202
17.6364
17.5903
17.5988
17.622
43.8294
105.488
19.7393
22.1508
43.7948
104.923
19.584
414.49
414.527
41.3623
19.5195
101.646
21.9408
41.5709
19.4385
101.662
176.625
175.245
24.6844
176.391
174.873
110.581
293.102
111.657
293.201
412.719
412.816
114.387
296.034
115.441
295.787
17.5951
17.6347
17.6448
17.669
17.5772
17.638
17.6384
43.8243
104.771
19.7359
22.167
43.8889
104.937
19.6444
414.342
414.381
41.4215
19.5103
102.177
22.0172
41.3323
19.4505
102.078
177.591
175.012
24.7278
176.63
174.443
110.085
293.938
110.977
293.493
412.723
412.7
115.16
296.572
115.375
295.911
17.5922
17.6683
17.6556
17.6617
17.5815
17.6617
17.638
43.7885
104.691
19.7465
22.1056
43.897
104.262
19.6523
414.222
414.349
41.86
19.5272
102.316
21.7287
42.0338
19.4886
101.997
176.775
174.8
24.7515
176.452
174.703
110.512
293.535
111.026
293.621
412.448
412.738
115.821
296.091
116.655
296.019
17.5938
17.6733
17.6597
17.7226
17.6069
17.6016
17.5814
43.6004
104.909
19.7611
22.1659
43.8108
104.61
19.6529
414.233
414.398
41.8283
19.5502
102.787
22.0729
42.2978
19.402
102.367
177.519
175.11
24.7243
176.207
174.717
414.024
295.241
114.594
17.6227
17.6268
17.5629
104.018
19.4173
42.7203
413.483
19.4599
101.581
42.2123
176.522
174.784
174.845
171.183
24.0045
171.642
173.436
411.298
411.545
414.181
412.924
23.7719
175.122
173.065
164.958
168.079
412.166
411.768
40.8373
19.5038
99.6629
21.8164
100.493
41.185
19.4643
108.904
291.241
290.959
108.327
109.264
292.746
292.93
109.158
40.0629
21.8326
19.4159
97.8367
97.4012
40.2168
19.394
39.2206
21.783
19.5117
100.254
95.4848
41.0221
19.4069
104.993
292.416
288.167
109.449
101.349
293.105
291.6
110.326
413.594
414.053
412.356
412.443
23.9733
175.254
172.591
171.054
173.284
414.013
414.417
412.499
412.934
413.012
412.873
414.84
414.475
173.22
177.403
24.5751
173.269
176.552
412.836
412.637
414.481
414.221
23.8924
172.568
175.27
167.031
170.196
110.513
294.086
293.496
111.235
41.1387
102.416
19.4757
21.7352
101.65
19.4108
41.3141
41.2522
101.501
19.5596
22.0071
101.406
19.4742
41.1852
107.034
294.243
288.896
109.066
107.703
292.767
289.262
109.869
39.3978
22.1873
101.451
19.5247
94.158
19.3917
41.4642
39.5653
21.8995
100.21
19.5573
95.2973
19.4378
41.5031
174.5
176.877
24.5408
173.613
176.086
414.48
414.149
412.892
412.709
23.9868
172.904
174.863
168.016
169.672
414.119
413.97
42.7895
103.885
19.7436
22.065
103.473
19.7363
42.9976
114.761
295.279
295.587
114.846
43.3183
19.7049
102.953
21.9898
19.7085
103.52
42.0466
111.485
295.402
290.953
114.148
41.7282
22.0986
103.68
19.8534
95.988
19.7121
43.3692
106.355
295.125
291.941
114.799
42.6535
22.1267
19.8424
102.87
19.7004
97.765
43.4311
114.106
296.58
295.7
113.964
43.277
19.7416
104.748
21.9257
19.686
103.953
43.546
114.011
296.099
295.491
114.958
41.526
22.2553
100.177
19.6555
97.4371
19.6638
43.0529
106.2
294.943
291.939
115.031
41.9954
22.4039
19.7608
102.687
19.6303
97.2823
43.2122
107.688
295.102
293.921
114.135
170.77
165.582
24.3981
175.736
172.667
412.712
412.542
414.315
414.34
24.121
175.963
173.487
167.187
163.531
412.487
412.502
41.5885
19.4432
95.77
22.1686
38.5311
19.4417
100.527
109.354
289.943
104.909
293.222
110.197
291.822
107.192
293.556
38.9678
21.8408
19.5324
101.948
19.523
94.009
39.7249
40.6607
21.9725
19.5811
100.642
19.5729
96.2318
41.3874
100.845
292.776
291.049
110.609
106.047
292.941
291.133
109.568
414.257
414.402
412.578
412.707
23.9998
175.157
172.929
167.826
165.643
413.679
414.443
412.42
413.226
412.748
412.655
414.157
414.755
166.998
170.203
24.4791
172.369
175.494
412.667
412.433
414.515
414.646
23.88
172.247
175.762
166.782
170.832
111.219
288.197
106.589
292.931
41.4033
98.8201
19.4912
22.2142
39.9386
100.632
19.4339
41.5806
94.9651
19.5111
21.9642
40.1558
100.769
19.5397
106.089
291.576
290.998
110.163
106.363
292.803
291.012
110.539
39.96
22.0043
100.288
19.4722
97.7664
19.5759
41.3376
40.4658
21.91
100.274
19.5422
94.7296
19.455
41.4335
165.737
169.833
24.5076
172.814
174.907
414.122
414.395
412.568
412.792
24.0597
172.565
174.962
167.068
169.94
414.119
414.565
43.5029
96.0503
19.8121
22.0974
42.4515
104.554
19.8294
114.444
291.738
105.852
295.289
43.5359
19.7961
95.6016
22.378
40.8636
19.7225
100.367
108.755
295.523
293.967
114.41
42.5795
22.1942
103.674
19.8481
101.165
19.8261
43.4669
110.844
295.086
291.381
113.951
40.7165
22.1223
19.8696
105.003
19.8885
97.0318
43.6354
113.838
290.523
108.512
295.31
43.2258
19.7158
97.9058
21.9232
41.733
19.7395
103.093
113.488
293.131
107.416
295.032
42.0143
21.9722
103.209
19.746
96.4284
19.6274
43.3325
108.513
295.941
293.928
113.894
41.9066
22.4723
19.766
103.398
19.7402
99.5275
43.52
108.349
294.975
291.128
113.849
173.098
166.136
24.5161
175.667
173.844
412.465
412.918
414.353
414.377
23.8476
176.594
173.462
168.383
171.267
412.761
413.195
41.4009
19.4378
95.5381
21.6958
40.6231
19.5934
101.17
110.645
288.14
102.42
293.128
109.592
289.762
107.08
293.252
39.3341
21.7409
19.5358
101.063
19.5171
99.6555
41.9287
39.6318
22.1875
19.5963
100.537
19.5824
96.805
41.587
107.84
293.094
291.034
110.276
107.756
293.106
287.431
110.185
414.128
414.181
413.112
412.844
24.0676
175.823
170.257
171.939
167.151
413.977
414.148
412.283
412.879
412.523
412.69
414.836
414.608
166.7
170.996
24.648
172.515
175.534
412.726
412.806
414.447
414.538
24.0146
173.812
177.002
165.906
168.63
110.05
288.162
105.693
292.944
40.9875
95.4565
19.5004
22.166
39.5167
100.157
19.5156
41.3391
95.7015
19.4053
21.8959
40.2689
100.582
19.5528
101.9
292.111
288.804
108.396
107.884
292.592
289.246
109.419
39.6589
22.1503
99.8955
19.5269
95.2359
19.5084
40.9748
38.5719
22.095
100.12
19.5285
96.3037
19.4477
41.3972
167.003
171.106
24.4752
173.498
175.847
414.068
414.401
412.72
412.556
24.0534
172.652
175.086
167.144
172.336
414.055
414.511
43.1849
98.619
19.6426
22.4302
41.6663
104.461
19.8278
113.567
292.801
109.525
295.406
43.4356
19.7637
101.36
22.4409
42.5396
19.7815
103.818
106.412
293.943
292.191
115.654
41.9837
22.458
104.949
19.8486
102.37
19.8398
43.7532
105.767
295.573
290.053
115.209
42.6564
22.4421
19.7151
103.235
19.8292
101.609
43.6178
114.01
291.377
109.012
295.575
43.3062
19.6471
96.8826
22.356
41.7813
19.711
103.545
113.748
291.685
109.04
294.952
42.6817
22.1694
100.226
19.7317
98.3328
19.6395
42.5981
108.264
295.266
292.721
114.396
40.2962
22.3993
19.7393
103.37
19.6364
98.1354
43.677
107.95
295.547
289.687
114.154
173.44
165.674
24.4621
175.474
174.326
412.862
412.857
414.174
414.265
24.2682
175.901
173.915
173.317
166.735
412.526
412.85
41.1981
19.4126
93.1774
21.697
39.987
19.5603
101.672
109.192
291.294
104.785
292.792
108.989
291.214
103.682
292.834
40.713
22.0226
19.5381
100.846
19.4262
94.4592
40.3301
38.8583
22.1935
19.613
101.11
19.5085
94.6613
41.7794
105.174
293.116
287.739
110.033
103.575
293.165
288.031
109.94
414.302
414.262
413.157
413.056
24.2422
175.746
174.3
174.427
171.235
413.97
414.678
412.859
413.25
412.403
412.87
414.931
414.608
165.87
174.221
24.6766
174.694
176.712
412.845
412.635
414.432
414.443
24.0701
174.3
175.711
166.086
172.914
109.056
287.918
106.143
292.978
41.1981
91.997
19.3549
22.0768
38.5913
101.401
19.5008
41.2666
95.49
19.4789
22.1029
38.8982
100.303
19.4873
106.921
292.541
287.776
109.837
107.293
293.042
290.233
109.743
38.6339
22.1568
101.205
19.472
93.8819
19.5097
41.3826
38.768
22.1353
100.366
19.5138
96.0224
19.5179
40.9571
167.155
169.018
24.4561
172.605
175.252
414.403
414.093
412.865
412.522
24.1706
172.649
174.878
167.77
169.241
413.888
414.377
43.481
101.247
19.7443
22.4165
42.9145
104.504
19.7876
114.534
290.856
112.24
295.282
43.4607
19.7984
95.9261
22.1589
42.3215
19.8123
103.152
112.771
293.983
293.524
113.033
40.948
22.4717
104.315
19.8173
96.3454
19.7904
43.9613
109.658
295.377
291.902
115.779
42.1591
22.1666
19.6963
104.303
19.8121
97.3968
43.7663
114.381
291.938
109.344
295.056
43.7588
19.6968
99.3797
22.1497
40.7065
19.715
103.946
114.059
290.553
107.124
295.902
42.7389
22.2062
103.134
19.626
99.7452
19.6593
42.433
111.99
295.102
292.25
114.346
42.7223
22.5206
19.7634
104.514
19.7559
96.5998
43.8301
109.669
295.455
291.322
114.915
172.839
166.753
24.4847
175.509
172.988
412.663
412.664
414.22
414.198
23.9721
175.451
172.557
171.113
167.298
412.486
412.596
41.4836
19.4337
96.1444
22.229
40.8451
19.5727
101.121
109.499
287.902
104.506
293.482
109.793
288.613
104.845
292.983
40.9373
22.1223
19.5474
100.625
19.53
94.2454
40.7137
39.889
22.0288
19.5795
100.556
19.5813
95.648
41.8125
105.564
293.294
291.469
110.034
103.094
293.046
290.633
110.668
414.254
414.507
412.932
412.53
24.1819
173.169
173.734
173.818
169.74
414.216
415.006
412.396
412.831
412.517
412.847
414.336
414.467
171.161
170.417
24.4871
173.047
175.372
412.77
412.764
414.494
414.199
23.9972
173.342
176.471
165.205
166.43
109.766
291.133
106.875
292.938
40.9972
93.5864
19.4347
21.8931
40.4771
101.522
19.4609
41.2726
95.9056
19.4507
22.2189
40.6364
100.55
19.4698
106.927
292.571
291.981
105.886
102.142
292.967
291.215
110.348
38.8265
21.8455
100.896
19.498
94.4047
19.478
41.5062
39.5424
21.9801
100.359
19.4589
95.4474
19.5014
41.5497
167.126
169.386
24.5542
173.185
175.29
414.201
414.067
412.939
412.63
24.3135
172.918
175.042
167.399
169.489
413.985
414.187
43.6696
102.017
19.6835
22.4308
43.0259
103.291
19.7409
115.614
291.495
106.391
295.543
43.9211
19.781
99.1491
22.5063
42.3103
19.6924
103.249
112.986
295.886
294.366
115.108
41.9378
22.4867
103.924
19.7991
98.1827
19.7738
43.8365
112.997
295.037
291.341
115.242
42.7657
22.2655
19.7941
103.268
19.6926
99.4878
43.915
114.823
292.151
111.839
295.263
43.9149
19.5895
101.564
22.2257
41.0961
19.7634
103.671
114.483
292.861
109.35
295.299
41.2278
22.4135
103.811
19.7555
98.7255
19.7518
44.165
112.643
295.185
292.286
115.275
41.1785
22.1755
19.7813
104.078
19.7848
96.0333
44.1263
108.394
295.19
292.346
114.509
173.385
165.152
24.5957
175.541
172.837
412.843
412.669
414.191
414.198
24.0936
176.346
173.53
173.614
169.134
412.648
412.715
41.3988
19.503
95.4419
21.9445
39.7288
19.4514
101.177
109.548
290.312
105.434
292.981
110.064
287.618
107.107
293.291
40.088
21.9336
19.5254
100.779
19.5184
94.2449
40.2986
39.7719
22.1086
19.5943
100.67
19.579
95.3809
41.4301
104.569
293.29
290.716
109.394
104.964
293.257
291.592
109.666
414.694
414.293
412.65
412.881
24.3446
173.357
173.927
173.356
170.051
414.033
414.501
412.735
413.336
412.31
412.74
414.341
414.511
166.449
173.556
24.5079
173.279
176.305
412.89
413.052
414.652
414.346
24.0961
173.028
175.376
168.996
170.866
109.176
288.585
105.024
293.309
40.983
97.5542
19.3085
21.6456
39.6162
100.547
19.457
41.169
95.2227
19.3576
21.9425
39.8896
101.214
19.5253
102.368
292.467
290.565
110.598
104.174
292.757
290.717
109.078
39.4732
22.1172
100.891
19.4996
92.2025
19.391
41.1465
40.0372
22.1444
100.477
19.5468
95.2598
19.44
41.2171
169.471
171.1
24.6858
173.583
175.192
414.033
414.357
412.543
412.584
24.3953
172.747
175.327
166.893
171.894
414.035
414.428
43.1981
96.3069
19.6315
22.1656
41.7564
105.047
19.5498
114.413
291.773
110.302
294.923
43.9932
19.7364
96.0735
22.4971
41.3446
19.7594
104.395
106.686
295.291
294.704
113.371
41.2208
22.1339
103.853
19.7801
102.489
19.7538
43.2623
110.072
295.233
292.606
113.202
41.8159
22.3943
19.7805
103.153
19.7708
101.379
43.149
114.294
292.126
106.166
295.524
43.7128
19.6896
96.1213
22.5633
41.3723
19.7337
104.608
113.326
292.097
107.549
295.141
41.2116
22.4488
100.32
19.711
97.6675
19.5964
42.0663
105.336
295.335
291.777
114.541
41.5713
22.2158
19.7798
104.532
19.7556
96.5547
43.3596
107.995
295.108
291.804
113.398
174.56
168.92
24.5023
176.514
173.025
412.569
412.726
414.19
414.274
24.0707
175.279
173.49
172.017
169.067
412.706
412.715
41.7297
19.4377
95.9461
22.1388
39.3275
19.3676
100.757
109.635
287.91
104.783
293.527
109.635
291.129
105.096
290.475
40.7
22.1625
19.5299
101.756
19.5095
99.3441
41.6899
40.7097
22.1677
19.5585
100.773
19.5417
95.9001
41.738
105.904
293.582
288.46
110.466
104.313
293.429
292.098
110.161
414.851
414.597
412.859
412.896
24.4756
176.942
174.025
173.403
170.104
414.228
414.678
412.712
413.76
412.608
412.82
414.251
414.659
170.494
169.999
24.5941
173.032
175.443
413.005
412.455
414.643
414.414
24.2908
173.513
175.334
165.44
170.494
109.2
288.423
104.272
293.172
40.9984
94.2315
19.3269
22.0109
39.7363
100.646
19.4742
41.1056
95.883
19.4758
22.167
39.3579
100.838
19.4403
104.397
292.707
289.822
108.861
102.439
293.021
290.543
109.743
39.3812
22.0647
100.85
19.5217
97.1714
19.4068
41.3248
39.0275
22.1939
100.776
19.5423
96.674
19.4248
40.6397
167.935
171.484
24.5374
173.107
175.787
414.299
414.418
412.789
413.003
24.083
173.756
175.71
169.514
172.522
414.292
414.43
43.133
102.208
19.6192
22.1509
41.2747
104.256
19.5452
113.462
289.959
109.474
295.697
42.9138
19.6699
100.142
21.8421
41.1993
19.6389
103.223
106.313
296.188
294.059
113.602
41.9704
22.5278
102.946
19.7734
97.864
19.7497
43.4929
109.494
295.163
293.753
114.374
41.1243
22.3701
19.7464
102.847
19.6142
99.2226
43.2998
113.66
292.339
111.558
295.488
42.986
19.5512
101.46
22.4395
40.9492
19.7271
103.611
114.874
291.747
109.986
295.052
42.1735
22.1532
104.465
19.7152
102.51
19.6934
43.3001
105.802
296.817
292.522
115.071
41.2787
22.4508
19.7766
104.383
19.6505
96.3779
43.1971
112.228
295.142
291.853
115.135
167.427
166.193
24.2921
176.139
173.044
412.744
413.011
414.437
413.792
24.0528
175.934
173.019
167.431
170.397
412.637
413.088
41.7293
19.4254
96.0327
22.1262
40.9703
19.371
100.826
110.534
291.11
102.686
293.065
110.666
290.395
105.889
293.292
39.3223
22.0759
19.483
101.679
19.5505
99.2073
41.0353
39.2652
22.1528
19.5622
101.629
19.5429
93.099
41.8968
105.235
292.847
289.96
109.949
108.672
292.9
290.507
109.928
414.416
414.436
413.009
412.928
24.0928
177.186
171.171
169.143
169.106
414.105
414.476
412.62
412.972
412.76
412.908
414.696
414.454
168.226
170.221
24.641
173.182
175.374
412.852
412.9
414.528
414.192
24.2607
173.027
175.683
168.273
170.489
109.514
288.558
103.817
293.218
41.312
96.5295
19.468
22.2409
39.4277
100.788
19.4892
41.704
96.2953
19.4938
22.3014
41.4624
101.005
19.4216
102.676
293.185
292.03
109.29
105.778
293.648
290.335
110.124
39.6863
21.9894
101.35
19.518
92.9043
19.4941
41.463
41.0654
22.1036
101.642
19.5686
95.0412
19.5727
41.8214
171.542
173.443
24.5852
174.341
175.705
414.543
414.375
412.76
412.923
24.3494
173.748
176.004
170.994
167.846
413.999
414.678
43.8087
98.0422
19.5551
22.3794
42.1476
103.198
19.741
113.267
290.81
108.573
295.747
43.3213
19.7036
96.0286
21.8209
41.1846
19.6398
103.065
106.484
295.211
290.669
114.015
42.9277
22.3967
103.5
19.7516
96.5462
19.6562
43.8754
108.018
295.466
293.326
113.669
42.6165
22.3376
19.7523
103.801
19.6158
100.3
43.5482
114.142
294.354
111.119
296.009
43.2635
19.5734
98.3952
21.965
41.9005
19.7465
103.566
113.528
291.957
109.152
295.005
42.5905
22.4834
100.404
19.6436
102.432
19.6593
41.9769
107.893
295.169
292.996
114.059
41.1661
22.498
19.7559
103.326
19.7302
98.741
43.404
108.168
295.443
289.786
113.557
168.016
165.89
24.3708
175.619
173.881
413.006
412.783
414.246
414.128
23.9392
176.263
173.07
166.505
168.305
412.519
412.938
41.4611
19.4624
98.2185
22.1341
40.5538
19.4458
101.127
109.312
289.997
103.394
292.683
110.014
289.799
102.689
292.732
40.2834
21.753
19.5351
100.686
19.5305
94.428
40.5871
40.1202
22.1963
19.5505
100.703
19.4369
96.348
41.4941
105.347
293.333
287.308
110.05
102.977
292.724
289.767
110.391
414.38
414.068
412.844
412.816
24.5501
173.017
170.198
170.688
166.812
413.956
414.489
412.592
413.045
412.661
412.886
414.552
414.407
167.603
170.937
24.6088
173.493
175.443
412.903
412.596
414.553
414.496
23.9431
173.151
175.842
168.675
169.567
109.521
291.553
105.874
293.53
41.0251
98.9465
19.429
22.0007
39.3805
100.749
19.4068
41.4528
98.6525
19.4767
22.2166
40.8698
101.596
19.4343
105.746
293.663
289.065
105.832
105.632
293.031
291.691
109.796
39.3136
21.9476
100.731
19.5182
97.8225
19.395
41.2524
39.6441
22.252
101.553
19.5368
94.3108
19.4199
41.5143
166.006
167.299
24.6123
173.884
176.226
414.467
414.221
412.645
412.87
24.2404
173.678
175.26
171.468
173.33
413.972
414.357
43.5609
97.3297
19.5737
22.4303
42.8343
105.388
19.7494
113.759
290.006
108.875
295.838
43.4426
19.6266
100.702
22.2515
42.2295
19.5302
103.572
110.186
294.835
293.205
113.855
42.5286
22.2156
103.872
19.775
102.583
19.7705
43.6081
108.826
295.642
290.278
113.989
41.4476
22.2806
19.754
103.241
19.7376
99.5986
43.4614
114.991
291.951
105.546
295.619
43.2845
19.6376
95.2926
22.3484
41.822
19.621
104.465
114.778
290.294
104.896
295.884
41.1175
22.0112
100.721
19.7126
98.8839
19.6444
41.9914
111.15
295.35
292.732
115.011
41.4144
22.3932
19.7628
103.569
19.6189
101.793
43.7153
111.905
295.775
290.647
115.021
168.866
169.048
24.4439
175.943
173.421
413.02
412.613
414.377
414.165
24.0283
175.792
173.163
170.877
169.875
412.582
412.828
41.6505
19.4413
96.1644
21.9032
38.9954
19.36
100.706
110.496
291.542
101.72
293.147
109.678
289.484
107.732
292.963
39.1583
21.8835
19.425
101.407
19.4481
99.0093
41.8289
40.6015
21.8689
19.5387
100.636
19.5205
96.3705
41.3863
107.101
293.125
291.632
109.789
107.276
292.539
289.178
109.328
414.878
414.664
413.109
413.061
24.4381
174.717
170.438
168.858
168.194
414.015
414.504
412.456
413.346
412.725
412.838
414.37
414.613
169.579
169.93
24.5716
172.779
176.056
412.776
412.759
414.455
414.56
24.3357
172.933
175.438
165.179
170.104
109.692
287.779
106.786
293.222
41.1677
96.0404
19.4594
21.9301
38.8369
100.292
19.4862
41.4933
98.5806
19.4903
22.2439
40.1508
100.449
19.5092
107.828
293.255
292.096
107.887
104.701
292.752
288.336
110.146
39.3991
22.1077
100.287
19.5152
96.7387
19.4977
41.2407
39.1846
21.9702
99.9548
19.5222
98.306
19.5102
41.5617
165.926
173.059
24.5559
173.652
175.482
414.334
414.192
412.83
412.567
24.162
173.142
176.141
169.854
171.476
414.135
414.194
43.5063
96.6585
19.6318
22.2008
42.2455
104.806
19.6295
113.813
290.207
107.397
295.865
43.197
19.6339
95.7592
22.263
41.4542
19.6127
104.372
108.116
296.222
290.803
110.648
42.4679
22.3151
103.467
19.7705
102.058
19.6229
43.2628
108.245
295.878
290.317
114.408
41.663
22.3072
19.7471
103.887
19.6213
96.0298
43.316
114.027
293.768
108.302
295.509
43.5788
19.7041
100.501
22.3575
41.7351
19.6227
103.713
115.644
290.73
107.794
296.02
41.2556
22.3075
104.41
19.7046
101.688
19.6901
42.0686
107.959
295.819
290.685
114.46
41.5113
22.3851
19.7697
103.479
19.8043
98.8277
43.6705
111.783
295.776
292.41
115.204
170.454
170.954
24.4095
175.375
173.034
412.826
412.676
414.414
414.285
24.1024
171.105
173.379
170.699
170.532
412.757
412.927
41.2652
19.3617
96.0641
22.2173
40.5887
19.5154
100.583
110.232
291.065
100.522
292.046
110.326
289.668
101.68
292.646
39.8885
22.1056
19.4893
101.306
19.3909
96.3009
40.998
38.9772
21.8851
19.4566
100.845
19.5276
97.2434
41.7503
107.523
293.592
290.386
109.501
107.624
293.174
290.465
109.599
414.266
414.453
412.973
412.637
24.0308
172.166
174.663
172.093
166.546
414.162
414.965
412.643
412.803
412.526
412.778
414.193
414.452
167.745
170.566
24.6243
173.332
175.584
412.661
412.833
414.713
414.275
24.3406
172.37
175.485
166.85
170.048
109.871
288.356
100.832
292.954
41.0428
93.3918
19.3707
21.9357
39.5874
101.431
19.3221
41.4358
92.7694
19.4305
22.1721
40.7901
101.109
19.4635
102.085
292.578
292.084
108.566
107.071
292.747
290.511
109.243
39.6026
21.911
100.479
19.5196
98.9756
19.4963
40.99
40.7792
22.1312
100.51
19.4863
97.9741
19.4669
41.2498
169.07
170.99
24.5493
173.631
175.477
414.315
414.515
412.867
412.655
24.2632
173.544
175.678
170.61
171.831
414.057
414.607
43.307
98.8317
19.705
22.1152
41.5262
104.087
19.6509
113.598
291.221
108.283
295.489