/*--------------------------------*- C++ -*----------------------------------*\
| =========                 |                                                 |
| \\      /  F ield         | OpenFOAM: The Open Source CFD Toolbox           |
|  \\    /   O peration     | Version:  2206                                  |
|   \\  /    A nd           | Website:  www.openfoam.com                      |
|    \\/     M anipulation  |                                                 |
\*---------------------------------------------------------------------------*/
FoamFile
{
    version     2.0;
    format      ascii;
    arch        "LSB;label=32;scalar=64";
    class       volScalarField;
    location    "60";
    object      p;
}
// * * * * * * * * * * * * * * * * * * * * * * * * * * * * * * * * * * * * * //

dimensions      [0 2 -2 0 0 0 0];

internalField   nonuniform List<scalar> 
66701
(
-0.00733878
-0.00733893
-0.00733874
-0.00733869
-0.00733887
-0.00733865
-0.00733866
-0.00733886
-0.00733896
-0.00733881
-0.00733875
-0.00733888
-0.00733867
-0.00733886
-0.00733869
-0.00733883
-0.00733884
-0.00733886
-0.00733886
-0.00733887
-0.00733888
-0.00733894
-0.00733894
-0.00733894
-0.00733895
-0.00733896
-0.00733893
-0.00733895
-0.00733895
-0.00733895
-0.00733896
-0.00733899
-0.007339
-0.007339
-0.00733901
-0.00733902
-0.0073389
-0.0073389
-0.00733891
-0.00733891
-0.00733892
-0.00733896
-0.00733896
-0.00733896
-0.00733897
-0.00733898
-0.00733889
-0.0073389
-0.0073389
-0.00733891
-0.00733891
-0.00733889
-0.00733889
-0.0073389
-0.0073389
-0.00733891
-0.00733891
-0.00733891
-0.00733892
-0.00733892
-0.00733893
-0.00733889
-0.0073389
-0.0073389
-0.00733891
-0.00733891
-0.00728712
-0.00728718
-0.0072872
-0.00728725
-0.00728722
-0.00728736
-0.00729953
-0.00728799
-0.007287
-0.00728717
-0.00728794
-0.00729977
-0.00728781
-0.00729975
-0.00728701
-0.00728722
-0.00728794
-0.00729986
-0.00729982
-0.00728786
-0.00728725
-0.00728722
-0.0072873
-0.00731237
-0.00731233
-0.00728719
-0.00728721
-0.00728698
-0.00731212
-0.00731217
-0.00731215
-0.00728736
-0.00728678
-0.00731189
-0.00728715
-0.0073119
-0.00731238
-0.0073122
-0.00728736
-0.00728678
-0.00731226
-0.0072871
-0.00731208
-0.00731259
-0.0073124
-0.00728703
-0.00728728
-0.00731262
-0.00728728
-0.00731258
-0.00731243
-0.00731231
-0.0072871
-0.00731245
-0.00728735
-0.0073125
-0.00731242
-0.00728729
-0.00728704
-0.00731264
-0.00728731
-0.00731244
-0.00731262
-0.00731235
-0.00728714
-0.00731251
-0.00728738
-0.00731256
-0.00731245
-0.00731249
-0.00731232
-0.00731228
-0.00731235
-0.0072869
-0.00731235
-0.00731267
-0.00731219
-0.00731227
-0.00731215
-0.00731208
-0.00731259
-0.00731227
-0.00729977
-0.00729995
-0.00729994
-0.00730034
-0.00729982
-0.00729994
-0.00729999
-0.00730036
-0.00730003
-0.00730038
-0.00730013
-0.00730044
-0.0073108
-0.00731227
-0.00728757
-0.00728759
-0.00728859
-0.00731168
-0.00731181
-0.00731211
-0.00728813
-0.00728659
-0.00731103
-0.00731249
-0.00728699
-0.00731078
-0.00731293
-0.00728795
-0.00728651
-0.00731163
-0.00728655
-0.00731162
-0.00731302
-0.00731285
-0.00728789
-0.00728643
-0.00731172
-0.00731295
-0.00728656
-0.00731161
-0.00731297
-0.00728652
-0.00728794
-0.00731166
-0.0072866
-0.00731304
-0.00731164
-0.00731289
-0.00728794
-0.00728652
-0.0073118
-0.00728665
-0.00731168
-0.00731301
-0.00731095
-0.00731243
-0.00728772
-0.00731191
-0.00731189
-0.00728704
-0.00728704
-0.00728705
-0.00728706
-0.00728706
-0.00728725
-0.00728726
-0.00728726
-0.00728727
-0.00728728
-0.00728718
-0.00728717
-0.00728718
-0.0072872
-0.00728721
-0.00728735
-0.00728736
-0.00728736
-0.00728737
-0.00728738
-0.0072874
-0.00728741
-0.00728741
-0.00728742
-0.00728743
-0.00728732
-0.00728733
-0.00728733
-0.00728734
-0.00728734
-0.00731231
-0.00731231
-0.0073123
-0.0073123
-0.00731229
-0.00731239
-0.00731239
-0.00731239
-0.00731239
-0.00731238
-0.0072873
-0.0072873
-0.0072873
-0.00728731
-0.00728732
-0.0072873
-0.0072873
-0.0072873
-0.00728731
-0.00728732
-0.00731242
-0.00731242
-0.00731242
-0.00731241
-0.00731241
-0.0073123
-0.00731229
-0.00731229
-0.00731228
-0.00731227
-0.00731241
-0.00731241
-0.0073124
-0.0073124
-0.00731239
-0.00728731
-0.0072873
-0.00728731
-0.00728731
-0.00728732
-0.00728732
-0.00728732
-0.00728732
-0.00728733
-0.00728733
-0.00731243
-0.00731243
-0.00731242
-0.00731242
-0.00731241
-0.00731234
-0.00731233
-0.00731233
-0.00731232
-0.00731231
-0.0073124
-0.00731239
-0.00731239
-0.00731238
-0.00731237
-0.00731222
-0.00731223
-0.00731222
-0.00731221
-0.0073122
-0.00731225
-0.00731225
-0.00731225
-0.00731224
-0.00731223
-0.00728715
-0.00728715
-0.00728716
-0.00728716
-0.00728717
-0.00728718
-0.00728717
-0.00728719
-0.00728721
-0.00728722
-0.00731195
-0.00731196
-0.00731196
-0.00731195
-0.00731194
-0.00728723
-0.00728724
-0.00728724
-0.00728725
-0.00728726
-0.00728729
-0.00728729
-0.00728729
-0.0072873
-0.00728731
-0.0073122
-0.00731222
-0.00731221
-0.0073122
-0.00731219
-0.00731213
-0.00731214
-0.00731213
-0.00731213
-0.00731212
-0.00731217
-0.00731217
-0.00731217
-0.00731217
-0.00731216
-0.00731231
-0.00731232
-0.00731231
-0.0073123
-0.0073123
-0.00728735
-0.00728734
-0.00728734
-0.00728735
-0.00728736
-0.00731235
-0.00731236
-0.00731235
-0.00731235
-0.00731234
-0.00728738
-0.00728737
-0.00728737
-0.00728738
-0.00728739
-0.0073123
-0.00731231
-0.00731231
-0.0073123
-0.00731229
-0.00731232
-0.00731232
-0.00731232
-0.00731231
-0.0073123
-0.00731228
-0.00731228
-0.00731228
-0.00731227
-0.00731226
-0.00389675
-0.00388441
-0.0041042
-0.00410433
-0.00410437
-0.00409177
-0.00431081
-0.0043108
-0.00431084
-0.00429823
-0.00451662
-0.00451664
-0.00451661
-0.00450408
-0.00472227
-0.00472235
-0.00472225
-0.00470975
-0.00492798
-0.004928
-0.00492799
-0.00491543
-0.00513386
-0.00513383
-0.00513387
-0.00512128
-0.00533991
-0.00533987
-0.00533992
-0.00532727
-0.0055461
-0.00554608
-0.00554612
-0.00553349
-0.00575233
-0.00575232
-0.00575233
-0.00573971
-0.00595859
-0.00595859
-0.0059586
-0.005946
-0.00616497
-0.00616497
-0.00616497
-0.00615236
-0.00637133
-0.00637136
-0.00637134
-0.00635875
-0.00657761
-0.00657762
-0.00657762
-0.00656502
-0.0067839
-0.00678392
-0.00678392
-0.00677131
-0.00699027
-0.00699026
-0.00699024
-0.00697762
-0.00719639
-0.0071964
-0.00719643
-0.00718382
-0.00388475
-0.00406531
-0.00389702
-0.00405306
-0.00405277
-0.00406527
-0.00409176
-0.00427173
-0.00410435
-0.00410438
-0.00425924
-0.00425924
-0.00409179
-0.00427175
-0.00410424
-0.0041042
-0.0042592
-0.00425918
-0.00410432
-0.0042592
-0.00425917
-0.00409173
-0.00427174
-0.00410437
-0.00425926
-0.00425927
-0.00427176
-0.00429822
-0.00447768
-0.00431082
-0.00431081
-0.00446523
-0.00446525
-0.00429821
-0.00447771
-0.00431077
-0.00431075
-0.00446521
-0.00446519
-0.00431076
-0.00446522
-0.00446522
-0.00429821
-0.00447767
-0.00431079
-0.0044652
-0.00446526
-0.0044777
-0.00450406
-0.00468327
-0.00451659
-0.00451659
-0.00467087
-0.00467096
-0.00450409
-0.0046834
-0.00451656
-0.00451652
-0.00467083
-0.00467081
-0.00451656
-0.00467094
-0.00467093
-0.00450405
-0.00468329
-0.00451661
-0.00467086
-0.00467093
-0.00468336
-0.00470966
-0.00488899
-0.00472221
-0.00472229
-0.00487656
-0.00487659
-0.0047098
-0.00488903
-0.00472218
-0.00472214
-0.00487653
-0.00487652
-0.00472226
-0.00487658
-0.00487659
-0.00470966
-0.004889
-0.00472225
-0.00487655
-0.00487659
-0.00488903
-0.00491542
-0.00509485
-0.00492795
-0.00492794
-0.00508239
-0.00508236
-0.00491544
-0.00509481
-0.00492793
-0.00492791
-0.00508241
-0.0050824
-0.00492793
-0.00508236
-0.00508239
-0.00491541
-0.00509487
-0.00492795
-0.00508241
-0.00508241
-0.00509485
-0.00512128
-0.00530087
-0.00513381
-0.00513376
-0.00528839
-0.00528836
-0.00512124
-0.00530081
-0.00513383
-0.00513381
-0.0052884
-0.00528842
-0.00513378
-0.00528834
-0.00528837
-0.00512131
-0.0053009
-0.0051338
-0.00528841
-0.0052884
-0.00530084
-0.00532733
-0.00550707
-0.00533988
-0.00533982
-0.00549457
-0.00549455
-0.00532728
-0.00550701
-0.00533989
-0.00533987
-0.00549459
-0.00549458
-0.0053398
-0.00549451
-0.00549453
-0.00532734
-0.00550707
-0.00533983
-0.00549458
-0.00549458
-0.00550703
-0.00553353
-0.00571327
-0.00554608
-0.00554602
-0.0057008
-0.0057008
-0.00553349
-0.00571327
-0.00554609
-0.00554607
-0.0057008
-0.00570079
-0.00554602
-0.00570078
-0.00570078
-0.00553353
-0.00571328
-0.00554605
-0.0057008
-0.00570081
-0.00571325
-0.00573973
-0.0059195
-0.0057523
-0.00575228
-0.00590704
-0.00590706
-0.00573973
-0.00591953
-0.0057523
-0.00575227
-0.00590703
-0.00590703
-0.00575225
-0.00590702
-0.00590703
-0.00573973
-0.00591951
-0.00575228
-0.00590703
-0.00590706
-0.00591952
-0.005946
-0.00612588
-0.00595857
-0.00595855
-0.00611339
-0.00611341
-0.00594601
-0.00612589
-0.00595855
-0.00595853
-0.00611338
-0.00611336
-0.00595853
-0.00611338
-0.00611337
-0.005946
-0.00612586
-0.00595855
-0.00611338
-0.0061134
-0.00612588
-0.00615239
-0.00633226
-0.00616495
-0.00616494
-0.00631979
-0.0063198
-0.00615239
-0.00633229
-0.00616495
-0.0061649
-0.00631977
-0.00631975
-0.00616491
-0.00631977
-0.00631975
-0.00615235
-0.00633224
-0.00616493
-0.00631976
-0.00631978
-0.00633226
-0.00635877
-0.00653854
-0.00637133
-0.00637133
-0.00652607
-0.00652607
-0.0063588
-0.00653853
-0.00637132
-0.00637128
-0.00652606
-0.00652604
-0.00637128
-0.00652606
-0.00652605
-0.00635875
-0.00653854
-0.0063713
-0.00652605
-0.00652607
-0.00653854
-0.00656507
-0.0067448
-0.00657762
-0.00657758
-0.00673234
-0.00673233
-0.00656505
-0.00674479
-0.0065776
-0.00657755
-0.00673234
-0.00673232
-0.00657755
-0.00673232
-0.00673231
-0.00656502
-0.00674481
-0.00657758
-0.00673233
-0.00673235
-0.00674481
-0.00677137
-0.00695106
-0.00678392
-0.00678388
-0.00693863
-0.00693863
-0.00677136
-0.00695107
-0.0067839
-0.00678386
-0.00693862
-0.0069386
-0.00678386
-0.00693862
-0.0069386
-0.0067713
-0.00695109
-0.00678388
-0.00693863
-0.00693864
-0.0069511
-0.00697771
-0.00715734
-0.00699028
-0.00699027
-0.00714528
-0.0071452
-0.00697771
-0.00715732
-0.00699023
-0.00699017
-0.00714498
-0.00714502
-0.0069902
-0.00714491
-0.00714493
-0.00697761
-0.00715754
-0.00699019
-0.00714498
-0.00714504
-0.0071575
-0.00719613
-0.00718395
-0.00719628
-0.0071963
-0.00719623
-0.00718387
-0.00719633
-0.00388449
-0.00396148
-0.00396049
-0.00389691
-0.00388536
-0.00394915
-0.00396084
-0.00388562
-0.00394912
-0.00388439
-0.00388473
-0.00396164
-0.00396138
-0.00396171
-0.00416847
-0.00409201
-0.00416854
-0.00409203
-0.00409186
-0.00416852
-0.0041688
-0.00409191
-0.00416869
-0.00409169
-0.00410434
-0.0041042
-0.00410435
-0.00425922
-0.00425923
-0.00425921
-0.0042592
-0.00416771
-0.00409231
-0.00410428
-0.00415588
-0.00416789
-0.00415581
-0.00409241
-0.00409192
-0.00416863
-0.00416739
-0.00410427
-0.00409267
-0.00415596
-0.00409304
-0.00415583
-0.00416775
-0.00409166
-0.00409196
-0.00416849
-0.00416845
-0.0041684
-0.00437467
-0.00429831
-0.00429842
-0.00437472
-0.00429831
-0.00437472
-0.00437496
-0.00429811
-0.00429797
-0.00437482
-0.00431083
-0.0043108
-0.00431079
-0.00446521
-0.00446525
-0.00446522
-0.00446524
-0.00437401
-0.00429875
-0.00431074
-0.00436227
-0.00429891
-0.00437421
-0.0043622
-0.00429812
-0.00437479
-0.00437362
-0.00431077
-0.00429901
-0.00436227
-0.00429938
-0.00436223
-0.00437392
-0.00429816
-0.00429833
-0.00437478
-0.00437474
-0.00437461
-0.00458039
-0.00450419
-0.0045043
-0.00458044
-0.00450424
-0.0045805
-0.00458067
-0.00450398
-0.00450384
-0.00458054
-0.00451659
-0.00451654
-0.00451655
-0.00467087
-0.00467097
-0.00467089
-0.00467094
-0.00457979
-0.00450471
-0.00451658
-0.00456804
-0.00450486
-0.00457996
-0.004568
-0.004504
-0.00458051
-0.00457934
-0.00451657
-0.00450492
-0.00456799
-0.00450528
-0.00456796
-0.00457965
-0.00450413
-0.00450427
-0.00458053
-0.00458051
-0.00458036
-0.00478599
-0.00470981
-0.00470989
-0.00478606
-0.00470982
-0.00478605
-0.0047863
-0.00470957
-0.00470944
-0.00478616
-0.00472228
-0.00472221
-0.00472223
-0.00487655
-0.00487661
-0.00487658
-0.00487661
-0.00478543
-0.00471033
-0.00472228
-0.00477371
-0.00471051
-0.00478562
-0.00477367
-0.00470964
-0.00478614
-0.00478495
-0.00472222
-0.00471053
-0.00477363
-0.00471089
-0.00477362
-0.00478528
-0.00470977
-0.00470991
-0.00478618
-0.00478614
-0.004786
-0.00499172
-0.00491549
-0.00491555
-0.00499182
-0.0049155
-0.0049918
-0.00499214
-0.00491534
-0.00491519
-0.00499199
-0.00492794
-0.00492794
-0.00492793
-0.00508239
-0.0050824
-0.00508242
-0.00508241
-0.00499116
-0.00491602
-0.00492795
-0.0049794
-0.00491619
-0.00499127
-0.00497937
-0.00491538
-0.00499195
-0.00499071
-0.00492794
-0.00491624
-0.00497942
-0.00491658
-0.00497937
-0.00499104
-0.00491544
-0.00491556
-0.00499192
-0.00499187
-0.00499169
-0.00519758
-0.00512131
-0.00512137
-0.00519767
-0.00512129
-0.0051976
-0.00519805
-0.00512121
-0.00512111
-0.0051979
-0.00513377
-0.00513381
-0.00513377
-0.00528838
-0.00528838
-0.00528843
-0.00528839
-0.005197
-0.00512181
-0.00513378
-0.00518528
-0.00512199
-0.00519719
-0.00518525
-0.00512125
-0.00519787
-0.00519661
-0.0051338
-0.0051221
-0.00518533
-0.00512244
-0.00518528
-0.00519696
-0.00512125
-0.00512138
-0.00519782
-0.00519772
-0.00519758
-0.0054037
-0.00532732
-0.00532739
-0.00540377
-0.00532729
-0.00540375
-0.00540413
-0.00532722
-0.00532711
-0.00540396
-0.00533981
-0.00533986
-0.0053398
-0.00549455
-0.00549455
-0.00549458
-0.00549456
-0.00540309
-0.00532781
-0.00533981
-0.00539137
-0.00532801
-0.00540323
-0.00539133
-0.00532726
-0.00540395
-0.00540269
-0.00533985
-0.00532812
-0.00539144
-0.00532848
-0.00539137
-0.00540302
-0.00532725
-0.00532739
-0.0054039
-0.0054038
-0.00540368
-0.00560993
-0.00553352
-0.0055336
-0.00561
-0.0055335
-0.00560997
-0.00561035
-0.00553341
-0.00553329
-0.0056102
-0.00554601
-0.00554604
-0.005546
-0.00570077
-0.0057008
-0.0057008
-0.00570079
-0.00560934
-0.00553405
-0.00554601
-0.00559762
-0.00553423
-0.00560953
-0.00559757
-0.00553345
-0.00561016
-0.00560894
-0.00554605
-0.00553432
-0.00559763
-0.00553467
-0.00559758
-0.00560927
-0.00553346
-0.0055336
-0.00561015
-0.00561006
-0.00560992
-0.00581622
-0.00573978
-0.00573987
-0.00581625
-0.00573979
-0.00581628
-0.00581657
-0.00573964
-0.0057395
-0.00581642
-0.00575226
-0.00575227
-0.00575224
-0.00590702
-0.00590706
-0.00590704
-0.00590705
-0.00581558
-0.00574029
-0.00575225
-0.00580383
-0.00574046
-0.00581573
-0.00580379
-0.00573967
-0.00581638
-0.00581517
-0.00575228
-0.00574055
-0.00580385
-0.00574092
-0.00580382
-0.00581551
-0.00573972
-0.00573986
-0.00581636
-0.00581629
-0.00581619
-0.00602251
-0.00594605
-0.00594614
-0.00602259
-0.00594606
-0.00602257
-0.00602286
-0.00594589
-0.00594576
-0.00602271
-0.00595853
-0.00595852
-0.00595851
-0.00611336
-0.00611339
-0.00611338
-0.00611338
-0.00602189
-0.00594657
-0.00595854
-0.00601014
-0.00594672
-0.00602208
-0.00601009
-0.00594592
-0.00602268
-0.00602147
-0.00595854
-0.00594681
-0.00601014
-0.00594718
-0.00601009
-0.00602179
-0.00594599
-0.00594611
-0.00602266
-0.00602261
-0.00602247
-0.00622892
-0.00615246
-0.00615253
-0.00622901
-0.00615246
-0.00622902
-0.00622927
-0.00615229
-0.00615216
-0.00622913
-0.0061649
-0.00616489
-0.00616487
-0.00631975
-0.00631979
-0.00631976
-0.00631977
-0.0062283
-0.00615297
-0.00616491
-0.00621654
-0.00615312
-0.00622844
-0.00621648
-0.0061523
-0.00622909
-0.00622787
-0.0061649
-0.00615318
-0.00621653
-0.00615356
-0.00621647
-0.00622821
-0.00615238
-0.00615251
-0.00622905
-0.00622903
-0.0062289
-0.00643525
-0.00635885
-0.00635893
-0.00643531
-0.00635884
-0.00643529
-0.0064356
-0.00635869
-0.00635855
-0.00643547
-0.00637127
-0.00637126
-0.00637125
-0.00652604
-0.00652606
-0.00652606
-0.00652606
-0.00643464
-0.00635936
-0.00637128
-0.00642288
-0.0063595
-0.00643483
-0.00642282
-0.0063587
-0.00643544
-0.00643422
-0.00637128
-0.00635958
-0.00642287
-0.00635993
-0.00642283
-0.00643453
-0.00635878
-0.00635889
-0.0064354
-0.00643537
-0.00643522
-0.00664149
-0.0065651
-0.0065652
-0.00664154
-0.00656512
-0.00664156
-0.00664186
-0.00656494
-0.00656483
-0.00664171
-0.00657754
-0.00657755
-0.00657752
-0.00673231
-0.00673234
-0.00673234
-0.00673234
-0.00664089
-0.00656564
-0.00657756
-0.00662911
-0.0065658
-0.00664103
-0.00662907
-0.00656498
-0.00664169
-0.00664047
-0.00657756
-0.00656585
-0.00662913
-0.00656621
-0.00662909
-0.00664079
-0.00656504
-0.00656515
-0.00664166
-0.00664162
-0.00664147
-0.00684775
-0.00677142
-0.00677148
-0.0068478
-0.00677141
-0.00684779
-0.00684814
-0.00677125
-0.00677113
-0.00684799
-0.00678384
-0.00678385
-0.00678382
-0.00693862
-0.00693862
-0.0069386
-0.0069386
-0.00684716
-0.00677191
-0.00678386
-0.00683542
-0.00677205
-0.00684734
-0.00683538
-0.00677128
-0.00684797
-0.00684677
-0.00678385
-0.00677214
-0.00683543
-0.00677251
-0.00683539
-0.00684709
-0.00677133
-0.00677146
-0.00684795
-0.0068479
-0.00684777
-0.0070541
-0.0069778
-0.00697786
-0.00705379
-0.00697781
-0.00705405
-0.00705441
-0.00697756
-0.00697744
-0.0070543
-0.00699021
-0.00699018
-0.00699018
-0.00714488
-0.00714496
-0.00714485
-0.00714486
-0.00705342
-0.00697826
-0.0069902
-0.00704174
-0.0069784
-0.00705361
-0.00704165
-0.0069776
-0.00705428
-0.00705309
-0.00699015
-0.00697849
-0.00704171
-0.00697882
-0.00704169
-0.00705339
-0.00697765
-0.00697779
-0.00705422
-0.0070542
-0.00705408
-0.00718411
-0.00718382
-0.00718361
-0.00719629
-0.00719638
-0.00719631
-0.00718443
-0.00719634
-0.00718461
-0.00718394
-0.00719637
-0.00718468
-0.0071852
-0.00718391
-0.00718408
-0.0038847
-0.00388486
-0.0039617
-0.0039614
-0.00396153
-0.00388468
-0.00396163
-0.00406553
-0.00398825
-0.00398917
-0.00406532
-0.00406518
-0.0039886
-0.00398848
-0.00406537
-0.00398845
-0.00396047
-0.00389697
-0.00388537
-0.00394895
-0.00396083
-0.00388563
-0.00394897
-0.00396156
-0.00388468
-0.00396162
-0.00388466
-0.00396155
-0.00388462
-0.00396159
-0.00388467
-0.00398957
-0.00400118
-0.00405284
-0.00406443
-0.00398933
-0.00406409
-0.00400096
-0.00398954
-0.00400096
-0.00405277
-0.00406445
-0.00398915
-0.00406406
-0.00400095
-0.00398856
-0.00406533
-0.00398844
-0.00406509
-0.00398854
-0.00406521
-0.00398841
-0.00406509
-0.00388441
-0.00396172
-0.00388461
-0.00396157
-0.00398828
-0.00406505
-0.00406515
-0.00398828
-0.00398845
-0.00406514
-0.00398825
-0.00406523
-0.00398833
-0.004092
-0.00416855
-0.00409191
-0.00416863
-0.00409203
-0.00409191
-0.0041685
-0.00416842
-0.00416851
-0.00427169
-0.00419517
-0.00427175
-0.00419504
-0.004195
-0.0042716
-0.00427169
-0.00419526
-0.00419509
-0.00416846
-0.00409189
-0.00416852
-0.004092
-0.00416741
-0.00409268
-0.00410434
-0.00415592
-0.00416774
-0.00415587
-0.004093
-0.00416739
-0.00409263
-0.00410436
-0.00415589
-0.00416773
-0.00415585
-0.00409299
-0.00419524
-0.00427168
-0.00419521
-0.00427162
-0.00419525
-0.0042717
-0.0041952
-0.00427161
-0.00419622
-0.00420759
-0.00427094
-0.00425924
-0.00419595
-0.00420754
-0.00427062
-0.00419622
-0.00420754
-0.00427095
-0.00425923
-0.00419593
-0.00420751
-0.00427062
-0.00409193
-0.00409172
-0.00416848
-0.0041684
-0.00416846
-0.00409165
-0.00416854
-0.00427172
-0.00419516
-0.00419497
-0.00427163
-0.00427166
-0.00419525
-0.00419507
-0.00427175
-0.00419499
-0.00416781
-0.00409247
-0.00410414
-0.0041559
-0.00416794
-0.00415582
-0.00409257
-0.0041688
-0.0040919
-0.00416868
-0.00409169
-0.00416783
-0.00410413
-0.00409245
-0.00415586
-0.00415584
-0.00416797
-0.00409257
-0.00419484
-0.0042718
-0.00419504
-0.00427191
-0.0041958
-0.00420756
-0.00427113
-0.00425918
-0.00419568
-0.00420751
-0.00427096
-0.00419484
-0.00427179
-0.00419503
-0.0042719
-0.0041958
-0.00420754
-0.00425921
-0.00427112
-0.00420755
-0.00419567
-0.00427096
-0.00416869
-0.00409161
-0.00416858
-0.00409145
-0.00416771
-0.0041043
-0.00409228
-0.00415585
-0.00415581
-0.00416788
-0.0040924
-0.0041687
-0.00409158
-0.00416857
-0.00409146
-0.00419568
-0.00420751
-0.00427109
-0.00425916
-0.00419564
-0.00420744
-0.00427096
-0.00419476
-0.00427179
-0.00419496
-0.0042719
-0.00419569
-0.00420749
-0.00425917
-0.00427112
-0.00420747
-0.0041956
-0.00427097
-0.00419476
-0.00427178
-0.00419496
-0.00427189
-0.00409192
-0.00409204
-0.00416852
-0.00416852
-0.00416841
-0.004092
-0.00416854
-0.00427174
-0.00419504
-0.00419501
-0.00427168
-0.00427157
-0.0041951
-0.00419528
-0.00427167
-0.00419519
-0.00416739
-0.00410425
-0.00409265
-0.00415595
-0.00409302
-0.00415582
-0.00416772
-0.00416848
-0.00409201
-0.00409208
-0.00416853
-0.00416847
-0.00409191
-0.00409208
-0.0041685
-0.00419625
-0.0042076
-0.00425921
-0.00427089
-0.00420752
-0.00419597
-0.00427059
-0.00419625
-0.00420764
-0.00425922
-0.00427092
-0.00420754
-0.00419596
-0.00427059
-0.00419527
-0.00427168
-0.00419524
-0.00427159
-0.00419527
-0.00427167
-0.00419522
-0.0042716
-0.00409161
-0.00416853
-0.00409188
-0.00416852
-0.00419498
-0.00427166
-0.00427155
-0.00419504
-0.00419525
-0.00427174
-0.00419497
-0.00427167
-0.00419517
-0.00429829
-0.00437473
-0.00429814
-0.00437479
-0.00429836
-0.00429821
-0.00437478
-0.00437461
-0.00437469
-0.00447765
-0.00440132
-0.0044777
-0.00440116
-0.00440117
-0.00447755
-0.00447764
-0.00440141
-0.00440125
-0.00437467
-0.00429834
-0.00429846
-0.00437473
-0.00437364
-0.00429906
-0.0043108
-0.00436227
-0.00429938
-0.00437394
-0.00436225
-0.00437363
-0.00429907
-0.00431079
-0.00436226
-0.0042994
-0.00437393
-0.00436225
-0.00440138
-0.00447764
-0.00440136
-0.00447758
-0.00440139
-0.0044777
-0.00440141
-0.00447758
-0.00440239
-0.00441376
-0.00447689
-0.00446523
-0.0044021
-0.00441376
-0.00447656
-0.00440239
-0.00441379
-0.00447692
-0.00446523
-0.00440213
-0.00441377
-0.00447657
-0.00429841
-0.00429818
-0.0043748
-0.00437446
-0.00437488
-0.00429814
-0.00437486
-0.00447771
-0.00440137
-0.00440119
-0.0044776
-0.00447769
-0.00440146
-0.00440127
-0.00447776
-0.00440119
-0.00437397
-0.00429879
-0.00431073
-0.00436223
-0.00429891
-0.00437415
-0.00436219
-0.00437496
-0.00429811
-0.00429801
-0.00437482
-0.00437398
-0.00431076
-0.00429875
-0.0043622
-0.0042989
-0.00436221
-0.00437413
-0.00440096
-0.00447773
-0.00440114
-0.00447783
-0.0044019
-0.00441373
-0.00447706
-0.00446517
-0.00440183
-0.0044137
-0.00447689
-0.00440097
-0.00447774
-0.00440116
-0.00447782
-0.00440192
-0.00441372
-0.00446518
-0.00447707
-0.00441373
-0.00440182
-0.00447691
-0.00437499
-0.0042981
-0.00429803
-0.00437486
-0.00437402
-0.00431074
-0.00429876
-0.00436223
-0.00429891
-0.00436221
-0.00437415
-0.00437499
-0.0042981
-0.00429803
-0.00437484
-0.00440192
-0.00441373
-0.00447712
-0.00446518
-0.00440185
-0.00441369
-0.00447697
-0.00440101
-0.00447779
-0.00440119
-0.00447788
-0.00440193
-0.00441375
-0.00446522
-0.00447712
-0.00441374
-0.00440184
-0.00447697
-0.00440101
-0.00447778
-0.00440118
-0.0044779
-0.00429818
-0.00429834
-0.00437477
-0.00437469
-0.00437458
-0.00429826
-0.0043747
-0.00447769
-0.00440117
-0.00440116
-0.00447762
-0.00447752
-0.00440126
-0.00440139
-0.00447763
-0.00440129
-0.00437362
-0.00431072
-0.00429904
-0.00436226
-0.00429939
-0.0043622
-0.00437393
-0.00437463
-0.0042983
-0.00429843
-0.00437469
-0.00437463
-0.0042983
-0.00429843
-0.00437471
-0.00440241
-0.00441373
-0.00446517
-0.00447685
-0.00441369
-0.00440211
-0.00447652
-0.0044024
-0.0044138
-0.0044652
-0.00447688
-0.00441373
-0.0044021
-0.00447652
-0.00440139
-0.00447762
-0.00440132
-0.00447754
-0.00440138
-0.00447765
-0.00440135
-0.00447755
-0.00429813
-0.00437481
-0.00429826
-0.00437472
-0.0044012
-0.00447767
-0.00447755
-0.00440126
-0.00440141
-0.00447775
-0.0044012
-0.00447766
-0.00440131
-0.00450417
-0.00458045
-0.00450402
-0.00458051
-0.00450425
-0.00450409
-0.00458048
-0.00458031
-0.00458042
-0.00468324
-0.004607
-0.0046833
-0.00460685
-0.00460687
-0.00468315
-0.00468324
-0.00460709
-0.00460694
-0.00458038
-0.00450426
-0.00450434
-0.00458048
-0.00457935
-0.00450494
-0.00451656
-0.00456797
-0.00450526
-0.00457967
-0.00456797
-0.00457936
-0.00450496
-0.00451655
-0.00456802
-0.00450528
-0.00457971
-0.00456798
-0.00460707
-0.00468325
-0.00460703
-0.00468318
-0.00460709
-0.0046833
-0.0046071
-0.00468317
-0.00460807
-0.00461945
-0.00468249
-0.00467089
-0.00460778
-0.00461947
-0.00468215
-0.0046081
-0.00461953
-0.00468254
-0.00467092
-0.00460783
-0.00461951
-0.00468216
-0.0045043
-0.00450415
-0.00458056
-0.00458039
-0.00458051
-0.00450409
-0.0045806
-0.0046833
-0.00460706
-0.00460696
-0.00468322
-0.0046833
-0.00460716
-0.00460703
-0.0046834
-0.00460694
-0.00457968
-0.00450467
-0.00451649
-0.00456794
-0.00450477
-0.00457984
-0.00456788
-0.00458066
-0.00450397
-0.00450388
-0.00458054
-0.00457969
-0.00451648
-0.00450465
-0.00456792
-0.00450479
-0.0045679
-0.00457984
-0.00460663
-0.00468333
-0.00460682
-0.00468345
-0.00460758
-0.00461942
-0.00468265
-0.00467079
-0.00460749
-0.00461938
-0.00468248
-0.00460665
-0.00468336
-0.00460682
-0.00468343
-0.00460758
-0.0046194
-0.00467081
-0.00468268
-0.00461941
-0.00460751
-0.00468249
-0.00458076
-0.00450406
-0.00450395
-0.00458063
-0.00457981
-0.00451654
-0.00450471
-0.004568
-0.00450486
-0.00456798
-0.00457994
-0.00458077
-0.00450406
-0.00450397
-0.00458062
-0.00460768
-0.00461949
-0.00468274
-0.0046709
-0.00460762
-0.00461945
-0.00468264
-0.00460675
-0.00468344
-0.00460692
-0.00468356
-0.00460768
-0.00461951
-0.00467094
-0.00468277
-0.00461951
-0.0046076
-0.00468265
-0.00460676
-0.00468345
-0.00460693
-0.00468356
-0.00450406
-0.00450423
-0.00458047
-0.00458043
-0.00458031
-0.00450416
-0.00458044
-0.00468332
-0.00460685
-0.00460685
-0.00468326
-0.00468314
-0.00460694
-0.00460709
-0.00468324
-0.00460699
-0.00457932
-0.00451654
-0.00450496
-0.00456802
-0.00450528
-0.00456795
-0.00457968
-0.00458038
-0.00450421
-0.00450432
-0.00458043
-0.00458038
-0.00450422
-0.00450433
-0.00458046
-0.00460808
-0.00461942
-0.00467085
-0.00468246
-0.00461941
-0.00460779
-0.00468214
-0.00460807
-0.00461952
-0.00467088
-0.00468251
-0.00461946
-0.00460783
-0.00468216
-0.00460707
-0.00468324
-0.00460704
-0.00468316
-0.00460708
-0.00468329
-0.00460707
-0.00468317
-0.00450409
-0.0045806
-0.00450419
-0.00458047
-0.00460695
-0.00468334
-0.00468319
-0.004607
-0.00460712
-0.00468341
-0.00460693
-0.00468329
-0.00460702
-0.00470977
-0.00478607
-0.0047096
-0.00478613
-0.00470986
-0.00470968
-0.0047861
-0.00478594
-0.00478604
-0.00488893
-0.00481263
-0.00488904
-0.00481249
-0.00481253
-0.00488883
-0.00488897
-0.00481272
-0.00481259
-0.00478599
-0.00470984
-0.00470993
-0.00478606
-0.00478496
-0.00471055
-0.00472222
-0.0047736
-0.00471086
-0.00478528
-0.00477361
-0.00478497
-0.00471057
-0.00472222
-0.00477366
-0.00471088
-0.00478528
-0.00477362
-0.00481268
-0.00488892
-0.00481267
-0.00488883
-0.0048127
-0.00488893
-0.00481269
-0.00488882
-0.00481369
-0.00482509
-0.00488817
-0.00487656
-0.00481341
-0.00482511
-0.00488781
-0.0048137
-0.00482517
-0.00488821
-0.00487658
-0.00481346
-0.00482514
-0.00488783
-0.00470992
-0.00470975
-0.0047862
-0.00478583
-0.0047863
-0.00470972
-0.00478627
-0.00488895
-0.00481267
-0.00481261
-0.00488886
-0.00488899
-0.00481279
-0.00481266
-0.00488906
-0.00481257
-0.00478532
-0.00471026
-0.00472212
-0.00477357
-0.00471038
-0.00478546
-0.00477353
-0.00478631
-0.00470962
-0.00470948
-0.00478616
-0.00478534
-0.00472212
-0.00471025
-0.00477355
-0.00471039
-0.00477353
-0.00478549
-0.00481229
-0.00488907
-0.00481247
-0.00488919
-0.00481324
-0.00482506
-0.00488839
-0.00487651
-0.00481316
-0.00482504
-0.00488821
-0.00481229
-0.00488907
-0.00481249
-0.00488918
-0.00481324
-0.00482506
-0.00487653
-0.00488841
-0.00482507
-0.00481316
-0.00488823
-0.00478641
-0.00470971
-0.00470961
-0.00478627
-0.00478544
-0.00472225
-0.00471035
-0.00477366
-0.00471051
-0.00477366
-0.00478556
-0.00478641
-0.0047097
-0.00470961
-0.00478624
-0.00481332
-0.00482511
-0.00488843
-0.00487656
-0.00481325
-0.00482511
-0.0048883
-0.00481239
-0.0048891
-0.00481256
-0.00488922
-0.00481333
-0.00482515
-0.0048766
-0.00488845
-0.00482517
-0.00481323
-0.0048883
-0.00481239
-0.00488911
-0.00481255
-0.00488923
-0.0047097
-0.00470984
-0.0047861
-0.00478605
-0.00478594
-0.00470977
-0.00478605
-0.00488904
-0.00481251
-0.00481251
-0.00488897
-0.00488881
-0.00481259
-0.00481272
-0.00488892
-0.00481262
-0.00478496
-0.00472219
-0.00471059
-0.00477367
-0.0047109
-0.0047736
-0.00478532
-0.00478599
-0.0047098
-0.00470992
-0.00478604
-0.00478599
-0.00470986
-0.00470994
-0.00478609
-0.00481373
-0.00482507
-0.00487653
-0.00488814
-0.00482506
-0.00481343
-0.00488783
-0.00481373
-0.00482516
-0.00487656
-0.00488818
-0.00482512
-0.00481347
-0.00488784
-0.00481272
-0.00488891
-0.00481267
-0.00488882
-0.00481273
-0.00488893
-0.00481271
-0.00488881
-0.00470972
-0.00478623
-0.00470983
-0.00478611
-0.0048126
-0.004889
-0.00488883
-0.00481264
-0.00481276
-0.00488907
-0.00481256
-0.00488894
-0.00481266
-0.00491547
-0.00499183
-0.00491538
-0.00499195
-0.00491555
-0.00491544
-0.0049919
-0.00499172
-0.00499185
-0.00509476
-0.00501841
-0.00509489
-0.00501833
-0.00501833
-0.00509467
-0.00509482
-0.00501852
-0.00501842
-0.00499171
-0.0049155
-0.00491559
-0.00499177
-0.0049907
-0.00491624
-0.00492791
-0.00497936
-0.00491655
-0.00499106
-0.00497934
-0.0049907
-0.00491625
-0.00492791
-0.00497937
-0.00491657
-0.00499102
-0.00497935
-0.00501843
-0.00509473
-0.00501843
-0.00509463
-0.00501845
-0.00509471
-0.00501842
-0.00509461
-0.00501946
-0.00503088
-0.005094
-0.00508236
-0.00501921
-0.00503087
-0.00509361
-0.00501945
-0.00503089
-0.00509396
-0.00508236
-0.00501918
-0.00503089
-0.00509361
-0.00491558
-0.00491545
-0.00499189
-0.00499169
-0.00499183
-0.0049154
-0.00499192
-0.00509472
-0.00501839
-0.00501831
-0.00509465
-0.00509475
-0.00501849
-0.00501837
-0.00509484
-0.00501829
-0.00499115
-0.00491603
-0.00492789
-0.00497936
-0.00491613
-0.0049913
-0.00497933
-0.00499213
-0.00491534
-0.00491524
-0.00499197
-0.00499117
-0.00492789
-0.00491598
-0.00497936
-0.00491614
-0.00497936
-0.0049913
-0.00501814
-0.00509492
-0.00501831
-0.00509507
-0.00501907
-0.00503089
-0.00509426
-0.00508239
-0.005019
-0.00503088
-0.00509412
-0.00501816
-0.00509494
-0.00501831
-0.00509507
-0.00501909
-0.0050309
-0.00508241
-0.00509428
-0.00503092
-0.00501899
-0.00509414
-0.0049921
-0.00491537
-0.00491527
-0.00499194
-0.00499117
-0.00492793
-0.00491604
-0.00497937
-0.0049162
-0.00497937
-0.0049913
-0.00499212
-0.00491537
-0.00491529
-0.00499198
-0.00501906
-0.00503086
-0.00509421
-0.00508234
-0.00501896
-0.00503085
-0.00509407
-0.00501811
-0.00509488
-0.00501828