/*--------------------------------*- C++ -*----------------------------------*\
| =========                 |                                                 |
| \\      /  F ield         | OpenFOAM: The Open Source CFD Toolbox           |
|  \\    /   O peration     | Version:  2206                                  |
|   \\  /    A nd           | Website:  www.openfoam.com                      |
|    \\/     M anipulation  |                                                 |
\*---------------------------------------------------------------------------*/
FoamFile
{
    version     2.0;
    format      ascii;
    arch        "LSB;label=32;scalar=64";
    class       volVectorField;
    location    "60";
    object      U;
}
// * * * * * * * * * * * * * * * * * * * * * * * * * * * * * * * * * * * * * //

dimensions      [0 1 -1 0 0 0 0];

internalField   nonuniform List<vector> 
66701
(
(1.09106e-05 5.66749e-06 0.0670324)
(1.21174e-05 -1.05897e-06 0.0649974)
(3.6194e-05 2.11161e-06 0.07814)
(4.06887e-05 2.16027e-06 0.0902947)
(1.18344e-05 -2.21762e-06 0.0716484)
(5.55167e-05 -5.65737e-07 0.103344)
(5.45011e-05 -5.17851e-07 0.100256)
(1.10698e-05 -3.90794e-07 0.07429)
(1.27431e-05 2.36773e-06 0.0650163)
(3.55957e-05 -1.52141e-06 0.0781582)
(4.08929e-05 -1.18021e-06 0.0903055)
(1.14975e-05 3.06082e-06 0.0716681)
(5.54233e-05 6.09703e-07 0.103341)
(1.12932e-05 1.24342e-06 0.0742962)
(5.26798e-05 9.92986e-07 0.100259)
(1.17087e-05 -5.12315e-06 0.0670496)
(3.75637e-06 3.84964e-06 0.0475638)
(1.31301e-06 2.81994e-06 0.0324581)
(6.09648e-08 1.90582e-06 0.0203589)
(-6.36479e-07 9.76669e-07 0.0108004)
(-1.36064e-08 3.63108e-07 0.00330363)
(8.11969e-06 -1.69248e-06 0.0475335)
(4.3088e-06 -1.49637e-06 0.0324423)
(1.93818e-06 -1.16774e-06 0.0203507)
(4.83206e-07 -7.71216e-07 0.0107966)
(2.38019e-07 -2.87073e-07 0.00330259)
(8.01483e-06 1.77594e-06 0.045999)
(3.68563e-06 1.88531e-06 0.031169)
(1.51299e-06 1.42049e-06 0.0194138)
(5.983e-07 8.2036e-07 0.0102301)
(-2.39137e-08 3.26916e-07 0.00310603)
(8.59015e-06 -4.50815e-07 0.0460129)
(4.11101e-06 -5.14129e-07 0.0311785)
(1.78365e-06 -3.87374e-07 0.0194196)
(6.49849e-07 -2.38514e-07 0.0102329)
(5.82266e-08 -7.89984e-08 0.00310673)
(4.90119e-06 -2.2786e-06 0.0475783)
(2.54903e-06 -1.14281e-06 0.0324687)
(1.18753e-06 -5.33201e-07 0.020366)
(3.92582e-07 -1.75194e-07 0.0108045)
(1.16549e-07 -5.52868e-08 0.00330495)
(8.7496e-06 3.20657e-06 0.0475488)
(4.93428e-06 2.90178e-06 0.0324528)
(2.50545e-06 2.26244e-06 0.0203573)
(1.03158e-06 1.4285e-06 0.0108)
(2.9377e-07 5.09424e-07 0.00330342)
(5.69266e-06 -1.87959e-06 0.0461627)
(2.94416e-06 -1.42432e-06 0.0313901)
(1.41632e-06 -1.05874e-06 0.0196131)
(6.77009e-07 -6.96001e-07 0.0103648)
(1.20246e-07 -2.05805e-07 0.00315668)
(4.80791e-06 -1.07139e-07 0.0465047)
(2.34246e-06 -8.2036e-10 0.0316675)
(1.01631e-06 4.43899e-08 0.0198204)
(3.34724e-07 6.86741e-08 0.0104934)
(8.31451e-08 -1.83367e-08 0.00320265)
(5.53009e-06 3.15273e-06 0.0461764)
(2.84539e-06 2.63447e-06 0.0313987)
(1.35311e-06 1.95374e-06 0.0196182)
(5.60292e-07 1.20251e-06 0.0103675)
(1.42175e-07 3.95523e-07 0.0031575)
(5.08395e-06 1.28553e-06 0.0465094)
(2.58227e-06 1.10064e-06 0.0316705)
(1.18894e-06 8.01112e-07 0.0198221)
(4.39384e-07 4.63623e-07 0.0104942)
(1.08423e-07 1.70585e-07 0.00320289)
(1.36559e-05 1.78076e-05 0.0670494)
(1.26443e-05 4.76124e-06 0.0670327)
(0.000199563 0.000199097 0.126497)
(2.88993e-05 1.38361e-05 0.0923399)
(1.47604e-05 2.12563e-05 0.0922119)
(7.90173e-06 3.96741e-05 0.0781846)
(4.05935e-06 4.31728e-06 0.130583)
(3.50437e-05 3.89202e-05 0.10575)
(5.59567e-05 -1.11857e-06 0.103342)
(3.72193e-05 1.19377e-06 0.0781393)
(5.51887e-05 -9.77411e-07 0.117827)
(-2.76362e-07 2.54983e-06 0.130463)
(4.00527e-05 2.78597e-05 0.105768)
(-1.20141e-06 -6.95034e-07 0.132629)
(5.56299e-05 1.08782e-07 0.10334)
(3.65092e-05 -8.15564e-07 0.0781574)
(5.51193e-05 -2.07101e-07 0.117823)
(7.12374e-07 -2.24648e-06 0.130461)
(-1.71065e-06 1.34377e-06 0.132638)
(3.99037e-05 -2.74924e-05 0.105765)
(1.26435e-05 -4.44631e-06 0.0670492)
(0.000197086 -0.000196883 0.126503)
(1.54058e-05 -2.13539e-05 0.0922289)
(-1.29387e-05 -4.88251e-06 0.0669553)
(-1.74109e-05 -1.32126e-05 0.0838528)
(1.79061e-05 4.41012e-06 0.0657379)
(5.50414e-06 1.1376e-05 0.0657056)
(1.78716e-05 1.39397e-05 0.0840806)
(-1.54449e-05 -2.9231e-06 0.0656896)
(-6.48889e-06 -1.08623e-05 0.0656351)
(-2.12013e-05 -6.77455e-05 0.102269)
(1.88355e-05 1.32653e-05 0.077461)
(2.66192e-05 6.83154e-05 0.113013)
(-2.75406e-05 -1.30794e-05 0.0923662)
(2.2469e-05 6.62696e-05 0.102534)
(-1.61204e-05 -1.33456e-05 0.0774279)
(-2.01812e-05 -6.63233e-05 0.112811)
(-7.04626e-05 -1.45953e-05 0.102057)
(1.4993e-05 1.02045e-05 0.0772629)
(7.28746e-05 1.54105e-05 0.112892)
(-1.39984e-05 -2.09945e-05 0.0919641)
(7.1175e-05 1.30344e-05 0.102386)
(-1.57163e-05 -1.14393e-05 0.0771491)
(-7.05534e-05 -1.70349e-05 0.112505)
(-1.06471e-05 2.15062e-06 0.0714892)
(5.42629e-05 -1.29143e-06 0.100254)
(1.12275e-05 -8.83403e-07 0.0742905)
(-5.38322e-05 3.2189e-07 0.102911)
(1.22154e-05 -3.264e-06 0.0716486)
(-5.16461e-05 8.79094e-07 0.0998541)
(-9.8668e-06 1.06255e-06 0.0741085)
(-1.30603e-05 1.88363e-06 0.0649282)
(4.1643e-05 1.55768e-06 0.0902955)
(-3.51144e-05 -3.0789e-06 0.0779973)
(1.2541e-05 -2.07271e-06 0.0649972)
(-4.09436e-05 -1.34079e-06 0.0900357)
(-1.11346e-05 -1.21737e-06 0.0715086)
(1.08654e-05 1.30788e-06 0.0742959)
(5.35063e-05 9.96231e-07 0.100257)
(-5.36514e-05 -3.72493e-07 0.102909)
(1.10601e-05 3.48764e-06 0.0716668)
(-1.01614e-05 1.24686e-07 0.0741142)
(-5.21779e-05 -4.60878e-07 0.0998558)
(-1.29075e-05 -8.47404e-07 0.0649463)
(4.10541e-05 -7.96945e-07 0.0903061)
(-3.47052e-05 3.81584e-06 0.0780135)
(1.2286e-05 2.45086e-06 0.0650156)
(-4.04516e-05 2.22463e-06 0.0900454)
(-1.28697e-05 5.77907e-06 0.066971)
(-1.82842e-05 1.38366e-05 0.0838792)
(-7.08928e-06 1.18799e-05 0.0656522)
(-1.6725e-05 4.61221e-06 0.065717)
(-6.91086e-05 1.49339e-05 0.102053)
(7.19917e-05 -1.67458e-05 0.112912)
(-1.41067e-05 2.07529e-05 0.0919803)
(-6.9815e-05 1.6908e-05 0.112526)
(-1.497e-05 1.15144e-05 0.0771555)
(-2.02175e-05 6.79687e-05 0.102284)
(-2.56974e-05 1.30998e-05 0.0924081)
(-1.73952e-05 1.43229e-05 0.0774643)
(-1.91626e-05 6.8265e-05 0.11278)
(-8.81185e-06 1.46355e-05 0.067186)
(-2.22039e-06 1.27322e-06 0.13522)
(-1.68693e-06 6.93275e-07 0.136849)
(-1.49053e-06 1.0664e-06 0.13674)
(-2.25145e-06 9.65226e-07 0.138287)
(2.46057e-06 1.40485e-06 0.135217)
(8.16656e-07 7.55689e-07 0.136855)
(1.20042e-06 1.43847e-06 0.136737)
(1.60502e-06 8.5889e-07 0.138293)
(-2.08272e-06 -1.29468e-06 0.136761)
(-2.11345e-06 -1.19048e-06 0.13829)
(2.24935e-06 -1.10761e-06 0.136762)
(1.42897e-06 -1.74818e-06 0.13829)
(-7.07092e-05 -6.57374e-05 0.114645)
(-0.000204608 -0.000204824 0.12642)
(0.000205239 5.75231e-05 0.121689)
(6.08768e-05 0.000197767 0.121608)
(7.10951e-05 6.31632e-05 0.1149)
(-0.000201215 -5.70772e-05 0.121506)
(-5.99461e-05 -0.00019943 0.121362)
(-1.10145e-06 -0.000236784 0.122422)
(1.24672e-05 5.39645e-05 0.112627)
(1.72973e-05 0.000232723 0.118897)
(-3.37824e-05 -3.78019e-05 0.105942)
(-1.05138e-05 -0.000224944 0.118931)
(7.20996e-06 0.000235545 0.122218)
(-1.2701e-05 -5.1623e-05 0.112786)
(-0.000237229 -2.22744e-06 0.123802)
(5.70903e-05 1.42444e-06 0.116345)
(0.000233249 -1.04072e-06 0.124867)
(-5.31205e-05 -7.49947e-07 0.117379)
(0.000241811 -7.82902e-07 0.124103)
(-5.44084e-05 -2.79063e-06 0.115919)
(-0.000232386 3.10415e-07 0.124522)
(-0.000247458 -5.49574e-06 0.122108)
(5.08178e-05 7.82533e-06 0.112707)
(0.000240147 1.0212e-05 0.11893)
(-3.68753e-05 -3.08606e-05 0.105444)
(-0.000232424 -1.27629e-05 0.118601)
(0.000244507 2.33133e-06 0.122377)
(-4.98489e-05 -1.04208e-05 0.112324)
(-0.000239599 3.06701e-06 0.123791)
(0.000231972 1.557e-06 0.124863)
(5.56764e-05 -1.39913e-06 0.116336)
(-5.34634e-05 7.58393e-07 0.117375)
(0.000237375 1.20962e-06 0.12409)
(-0.000231414 3.51672e-07 0.124518)
(-5.48892e-05 3.64472e-06 0.11591)
(-0.00024338 6.04642e-06 0.122087)
(5.10157e-05 -6.83408e-06 0.112695)
(0.000238133 -1.01115e-05 0.118915)
(-3.66561e-05 3.06628e-05 0.10544)
(0.000242788 -1.92071e-06 0.122352)
(-4.98945e-05 1.20453e-05 0.112312)
(-0.000229746 1.29454e-05 0.118588)
(-6.85984e-05 6.77497e-05 0.114642)
(-0.000203518 0.000206192 0.12641)
(6.07442e-05 -0.00020095 0.121638)
(-5.91345e-05 0.000200012 0.121398)
(-0.000196479 5.8416e-05 0.12145)
(7.17662e-06 8.50752e-06 0.0475437)
(3.36988e-06 3.95307e-06 0.0324529)
(1.60171e-06 1.95264e-06 0.0203583)
(1.00554e-06 1.43302e-06 0.0108008)
(6.06617e-08 6.7199e-08 0.00330378)
(5.18208e-06 2.80899e-06 0.047563)
(2.48071e-06 1.90294e-06 0.0324578)
(7.63702e-07 1.19928e-06 0.0203584)
(-3.83242e-07 4.83116e-07 0.0107999)
(6.34984e-08 2.47712e-07 0.00330357)
(5.30941e-06 1.31965e-05 0.0459713)
(3.36736e-06 5.61484e-06 0.0311561)
(1.97778e-06 1.84969e-06 0.0194065)
(1.0263e-06 6.26096e-08 0.0102261)
(2.87245e-07 1.09326e-07 0.00310487)
(9.04046e-06 9.57882e-07 0.0459964)
(4.56387e-06 1.16127e-06 0.0311675)
(2.05498e-06 8.68296e-07 0.0194129)
(9.05401e-07 4.96915e-07 0.0102295)
(2.49353e-08 2.18228e-07 0.00310589)
(9.07478e-06 -1.27007e-07 0.0460117)
(4.71269e-06 -2.41745e-07 0.0311781)
(2.16759e-06 -1.33688e-07 0.0194194)
(8.0256e-07 -5.36303e-08 0.0102327)
(1.04329e-07 -1.46566e-08 0.00310672)
(5.55274e-06 -1.88675e-06 0.0475765)
(3.1289e-06 -8.3144e-07 0.032468)
(1.53706e-06 -2.59496e-07 0.0203656)
(5.6221e-07 3.69388e-09 0.0108042)
(1.56922e-07 9.93658e-09 0.0033049)
(-5.91679e-06 -1.61199e-06 0.0475568)
(-3.43408e-06 4.12808e-08 0.0324655)
(-1.79255e-06 6.67238e-07 0.0203664)
(-4.7386e-07 7.17668e-07 0.0108048)
(-3.49381e-07 2.85031e-07 0.00330499)
(-5.34848e-06 3.11517e-06 0.046128)
(-2.90208e-06 2.95946e-06 0.0313797)
(-1.53024e-06 2.37998e-06 0.0196094)
(-7.96127e-07 1.52792e-06 0.0103633)
(-1.7365e-07 5.33915e-07 0.00315633)
(5.42062e-06 -4.40706e-07 0.0465059)
(3.0273e-06 -2.16976e-07 0.0316693)
(1.37189e-06 -9.32643e-08 0.0198218)
(4.27963e-07 -2.21287e-08 0.0104941)
(9.8034e-08 -2.13514e-08 0.00320295)
(6.20341e-06 -2.74933e-06 0.0461642)
(3.48253e-06 -2.09516e-06 0.0313918)
(1.67327e-06 -1.488e-06 0.0196143)
(7.20932e-07 -8.88181e-07 0.0103654)
(1.2485e-07 -2.93086e-07 0.00315695)
(-4.37477e-06 1.51022e-06 0.0464632)
(-2.14217e-06 1.43226e-06 0.0316532)
(-1.00247e-06 1.09987e-06 0.0198146)
(-3.77641e-07 6.50665e-07 0.0104909)
(-1.11411e-07 2.52627e-07 0.00320196)
(-8.71369e-06 -5.20672e-07 0.0459943)
(-4.32892e-06 6.21491e-08 0.0311771)
(-2.08685e-06 3.74774e-07 0.0194204)
(-9.73424e-07 3.76098e-07 0.0102336)
(-1.47626e-07 1.01152e-07 0.00310719)
(-5.08278e-06 -1.80019e-06 0.0461414)
(-2.64758e-06 -1.68003e-06 0.0313883)
(-1.27628e-06 -1.38206e-06 0.0196146)
(-5.30883e-07 -9.17751e-07 0.0103661)
(-1.32489e-07 -3.32564e-07 0.00315717)
(5.38135e-06 1.38219e-06 0.0465105)
(3.04306e-06 1.20027e-06 0.0316724)
(1.43311e-06 8.86334e-07 0.0198236)
(5.40942e-07 5.19275e-07 0.010495)
(1.13954e-07 1.80695e-07 0.00320321)
(6.31447e-06 3.45411e-06 0.0461774)
(3.59228e-06 2.92216e-06 0.0314)
(1.74618e-06 2.19275e-06 0.0196192)
(7.16016e-07 1.34599e-06 0.010368)
(1.55382e-07 4.53883e-07 0.00315772)
(-4.3482e-06 -1.4182e-07 0.0464677)
(-2.14113e-06 -1.79692e-07 0.0316561)
(-9.96475e-07 -1.65831e-07 0.0198163)
(-3.73834e-07 -1.06377e-07 0.0104917)
(-9.39571e-08 -6.3296e-08 0.00320221)
(-8.03653e-06 1.76312e-06 0.0460093)
(-3.72249e-06 1.25231e-06 0.0311881)
(-1.60721e-06 7.53445e-07 0.0194275)
(-5.7535e-07 3.80965e-07 0.0102372)
(-7.04882e-08 1.107e-07 0.00310807)
(-5.35755e-06 2.97275e-06 0.047569)
(-2.74e-06 1.42907e-06 0.0324738)
(-1.32675e-06 5.50216e-07 0.0203716)
(-5.0545e-07 1.06857e-07 0.0108078)
(-1.36535e-07 5.35997e-10 0.00330597)
(-8.34885e-06 7.27237e-06 0.0462086)
(-4.63214e-06 3.25031e-06 0.0313202)
(-2.3788e-06 1.08981e-06 0.0195117)
(-1.11903e-06 2.36691e-07 0.0102839)
(-2.57267e-07 -4.45772e-08 0.00312343)
(-5.98226e-06 6.14329e-06 0.0475675)
(-3.8766e-06 2.78993e-06 0.0324705)
(-2.33371e-06 9.59534e-07 0.020369)
(-1.16265e-06 5.89733e-08 0.0108064)
(-4.04112e-07 -5.19379e-09 0.00330563)
(9.18694e-06 3.70456e-06 0.0474468)
(4.48049e-06 2.27631e-06 0.0323444)
(2.17712e-06 1.34336e-06 0.020264)
(1.51198e-06 1.20436e-06 0.0107378)
(2.70069e-08 5.52693e-08 0.00328023)
(6.65817e-06 9.09021e-06 0.0461796)
(1.95862e-06 4.77778e-06 0.0312937)
(-1.81976e-07 2.20724e-06 0.0194938)
(-9.70447e-07 4.89615e-07 0.0102742)
(-1.95479e-07 3.70415e-07 0.00312052)
(-8.74632e-06 -4.84636e-06 0.0462124)
(-5.85704e-06 -1.53187e-06 0.0313276)
(-3.47816e-06 1.88635e-07 0.019518)
(-1.46996e-06 9.98091e-07 0.0102876)
(-6.27108e-07 1.65783e-07 0.00312444)
(2.65816e-06 7.03346e-06 0.0474523)
(5.23663e-07 4.68518e-06 0.0323437)
(-7.0266e-07 2.84279e-06 0.020262)
(-1.27614e-06 1.15315e-06 0.0107358)
(-2.47109e-07 5.81316e-07 0.00327954)
(7.59518e-06 4.68706e-06 0.0461824)
(3.82138e-06 2.62591e-06 0.0312952)
(1.64197e-06 1.33825e-06 0.0194955)
(8.7774e-07 7.49262e-07 0.0102751)
(-4.52447e-09 1.30531e-07 0.00312038)
(-9.21557e-06 -3.37032e-06 0.0461821)
(-5.59858e-06 -4.12232e-07 0.0313035)
(-3.23884e-06 8.02062e-07 0.0195017)
(-1.97791e-06 6.93193e-07 0.0102783)
(-3.77547e-07 4.11622e-07 0.00312153)
(-1.06113e-05 2.99209e-07 0.0474487)
(-7.81821e-06 1.83963e-06 0.0323546)
(-5.40967e-06 2.26019e-06 0.0202719)
(-3.38914e-06 1.66415e-06 0.0107423)
(-8.81822e-07 6.62203e-07 0.00328167)
(-5.2447e-06 -4.85806e-06 0.0474493)
(-3.77982e-06 -1.71225e-06 0.032355)
(-2.2916e-06 -1.51839e-07 0.0202725)
(-1.0629e-06 4.49503e-07 0.0107421)
(-3.40296e-07 1.1183e-07 0.00328142)
(-8.72144e-06 2.69798e-06 0.0475321)
(-4.89744e-06 2.67756e-06 0.0324538)
(-2.46995e-06 2.23144e-06 0.0203606)
(-9.51857e-07 1.44827e-06 0.0108022)
(-3.07588e-07 5.81177e-07 0.00330431)
(9.00835e-06 -2.75601e-06 0.0475337)
(5.21721e-06 -2.42694e-06 0.0324429)
(2.57659e-06 -1.85801e-06 0.0203513)
(9.78055e-07 -1.14623e-06 0.0107969)
(2.60508e-07 -4.26443e-07 0.00330277)
(-8.42522e-06 -1.49039e-06 0.0475464)
(-4.59479e-06 -1.49147e-06 0.0324632)
(-2.24246e-06 -1.30866e-06 0.0203663)
(-8.67463e-07 -9.00955e-07 0.0108051)
(-2.3932e-07 -3.52558e-07 0.00330499)
(9.02285e-06 3.48243e-06 0.0475488)
(5.32408e-06 3.20836e-06 0.0324532)
(2.70722e-06 2.52301e-06 0.0203577)
(1.12125e-06 1.58706e-06 0.0108001)
(2.86649e-07 5.66367e-07 0.00330354)
(-7.97235e-06 4.44685e-06 0.046194)
(-4.24746e-06 1.63038e-06 0.0313131)
(-2.08974e-06 2.42015e-07 0.0195082)
(-9.17181e-07 -1.84522e-07 0.0102821)
(-2.50769e-07 -1.57986e-07 0.00312274)
(-4.59483e-06 6.19858e-06 0.0474617)
(-2.59553e-06 3.04419e-06 0.0323626)
(-1.25402e-06 1.2642e-06 0.0202764)
(-4.78842e-07 3.76536e-07 0.0107441)
(-1.09601e-07 7.11737e-08 0.00328215)
(-1.01439e-05 2.15893e-06 0.0474652)
(-6.17818e-06 3.51771e-07 0.0323645)
(-3.55028e-06 -5.3161e-07 0.0202774)
(-1.74952e-06 -6.50487e-07 0.0107448)
(-5.61964e-07 -2.97886e-07 0.00328247)
(1.51054e-05 -1.96701e-05 0.130816)
(-0.000204381 -0.000202426 0.126573)
(7.84325e-06 1.01265e-05 0.13518)
(-7.58694e-06 6.25367e-06 0.130512)
(6.61568e-06 -1.06631e-05 0.130611)
(-0.000198629 -0.000198539 0.126549)
(3.14696e-06 4.98981e-06 0.135188)
(-3.12636e-06 2.81399e-06 0.130486)
(3.5089e-06 -4.79891e-06 0.130592)
(-0.0001981 -0.000194938 0.126532)
(1.18132e-06 2.42005e-06 0.135191)
(-2.49669e-06 1.54293e-06 0.130469)
(3.12152e-06 -3.02317e-06 0.130577)
(-0.000197415 -0.000195221 0.126519)
(2.20978e-06 1.49324e-06 0.135193)
(-1.56e-06 1.15609e-06 0.130459)
(4.73213e-06 -1.69114e-06 0.130567)
(-0.000197028 -0.00019608 0.12651)
(3.69937e-06 1.15228e-06 0.135197)
(-7.55442e-07 1.40288e-06 0.130454)
(6.02327e-06 -1.42352e-06 0.130561)
(-0.000196324 -0.000196477 0.126505)
(2.8777e-06 1.35533e-06 0.1352)
(1.64702e-07 2.51658e-06 0.130452)
(5.06187e-06 -2.31588e-06 0.13056)
(-0.000196242 -0.000197472 0.126504)
(1.19839e-06 1.54463e-06 0.135204)
(5.31157e-07 2.48422e-06 0.130452)
(3.64027e-06 -2.85058e-06 0.130561)
(-0.000197244 -0.000197808 0.126506)
(-4.94808e-07 1.61351e-06 0.135206)
(-8.61131e-08 2.69487e-06 0.130453)
(2.16569e-06 -2.79288e-06 0.130565)
(-0.000197615 -0.000197381 0.126506)
(-1.36306e-06 1.52599e-06 0.135208)
(2.48644e-07 1.89462e-06 0.130453)
(1.57986e-06 -2.46416e-06 0.130566)
(-0.00019744 -0.000197022 0.126505)
(-1.53763e-06 1.2295e-06 0.135209)
(2.03871e-07 1.54412e-06 0.130451)
(2.26667e-06 -2.10286e-06 0.130565)
(-0.000197802 -0.000196726 0.126503)
(-1.53588e-06 1.09082e-06 0.135211)
(2.20166e-07 1.21401e-06 0.130451)
(2.65559e-06 -1.59219e-06 0.130565)
(-0.000197761 -0.000197131 0.126502)
(-1.22611e-06 8.3614e-07 0.135212)
(7.22708e-07 9.18657e-07 0.130451)
(3.3188e-06 -1.93133e-06 0.130564)
(-0.000197308 -0.00019705 0.126501)
(-1.33926e-06 1.50218e-07 0.135214)
(9.24842e-07 1.01301e-06 0.130451)
(3.089e-06 -1.56965e-06 0.130562)
(-0.000196841 -0.000196875 0.126499)
(-9.86911e-07 3.91254e-07 0.135216)
(1.18202e-06 1.18085e-06 0.130449)
(2.80398e-06 -1.28466e-06 0.13056)
(-0.000196628 -0.000196614 0.126495)
(-1.35073e-08 8.72119e-07 0.135218)
(2.85761e-06 -2.87056e-07 0.130446)
(2.06517e-06 1.8855e-07 0.130556)
(-0.000195702 -0.000195783 0.126486)
(-3.40406e-07 -1.34601e-06 0.135219)
(2.84226e-06 -2.29639e-06 0.130652)
(1.28193e-06 1.16713e-06 0.13072)
(-0.000197513 -0.000197306 0.126661)
(0.000199804 -0.000197606 0.126575)
(-0.000199741 0.000197386 0.126471)
(-1.34473e-05 -2.05095e-05 0.130678)
(6.69904e-06 -1.36917e-05 0.130624)
(-8.65366e-06 -1.15144e-05 0.130647)
(0.000200295 0.000202656 0.126475)
(0.000199018 0.000202489 0.126552)
(-0.000204583 -0.000204107 0.126457)
(6.83154e-06 1.17182e-05 0.130634)
(-9.62865e-06 1.18465e-05 0.130655)
(3.42221e-06 6.41923e-06 0.130618)
(-6.88522e-06 6.789e-06 0.130633)
(-0.000198118 0.00019848 0.126552)
(0.000201468 -0.000205058 0.126459)
(9.90697e-06 7.7961e-06 0.130515)
(1.16878e-05 -9.2248e-06 0.130524)
(3.90587e-06 3.539e-06 0.130499)
(5.27343e-06 -4.23556e-06 0.130504)
(-9.85591e-06 -6.82153e-06 0.130536)
(-3.51428e-06 1.87077e-06 0.130491)
(-6.03032e-06 -2.84383e-06 0.130514)
(0.000198947 -0.000202504 0.126543)
(-0.000203352 0.000204133 0.126447)
(-8.30734e-06 -9.92229e-06 0.130636)
(2.80351e-06 -5.55523e-06 0.130595)
(-5.59459e-06 -4.69311e-06 0.130618)
(0.000200501 0.000207277 0.126456)
(0.000195193 0.000196832 0.126531)
(-0.000204097 -0.000205708 0.126442)
(3.84981e-06 5.64865e-06 0.130615)
(-6.92407e-06 5.76292e-06 0.130628)
(2.83105e-06 3.95909e-06 0.130605)
(-6.3474e-06 4.95309e-06 0.130614)
(-0.000197009 0.000195779 0.126532)
(0.000201171 -0.000206391 0.126443)
(3.16897e-06 3.78135e-06 0.130494)
(3.99391e-06 -4.50281e-06 0.130499)
(1.44459e-06 2.00593e-06 0.130482)
(3.06167e-06 -3.08461e-06 0.130486)
(-5.26499e-06 -2.67425e-06 0.130509)
(-3.17509e-06 8.8475e-07 0.130473)
(-4.73579e-06 -1.86931e-06 0.130496)
(0.000195159 -0.000196428 0.126522)
(-0.000203565 0.000205462 0.12643)
(-5.72458e-06 -3.95594e-06 0.130615)
(2.28031e-06 -3.69162e-06 0.130581)
(-4.81502e-06 -3.28089e-06 0.130604)
(0.000201171 0.000207099 0.126444)
(0.000195872 0.000195309 0.126516)
(-0.000202095 -0.00020715 0.12643)
(3.71836e-06 3.68584e-06 0.130602)
(-6.14585e-06 4.07292e-06 0.130609)
(4.355e-06 2.80326e-06 0.130593)
(-5.04122e-06 4.03554e-06 0.130601)
(-0.000197613 0.000195186 0.126517)
(0.000202633 -0.000207036 0.126433)
(1.23971e-06 2.15246e-06 0.130479)
(2.3957e-06 -3.33842e-06 0.130483)
(2.03165e-06 4.64446e-07 0.130469)
(3.02704e-06 -1.71546e-06 0.130471)
(-4.06682e-06 -1.96648e-06 0.130491)
(-1.89743e-06 -5.61396e-08 0.130461)
(-3.10357e-06 -1.82937e-06 0.130483)
(0.000195493 -0.000195253 0.126505)
(-0.000201392 0.000207057 0.126415)
(-4.99622e-06 -2.67833e-06 0.130601)
(3.53755e-06 -2.49993e-06 0.130569)
(-3.96617e-06 -3.1384e-06 0.130594)
(0.000202284 0.000207073 0.126434)
(0.000198409 0.000194412 0.126504)
(-0.000201403 -0.000207265 0.12642)
(5.63162e-06 2.61513e-06 0.130591)
(-4.88492e-06 3.4904e-06 0.130599)
(6.53719e-06 2.47255e-06 0.130585)
(-3.72743e-06 3.44402e-06 0.130596)
(-0.000196895 0.000195282 0.126507)
(0.000203991 -0.000206331 0.126428)
(2.00614e-06 7.11866e-07 0.130467)
(3.42622e-06 -2.30372e-06 0.130468)
(3.48451e-06 1.85807e-07 0.130459)
(4.70107e-06 -1.30762e-06 0.130459)
(-2.68478e-06 -2.30379e-06 0.130481)
(-9.00464e-07 7.37569e-08 0.130455)
(-2.25618e-06 -2.28255e-06 0.130477)
(0.000197997 -0.000194184 0.126491)
(-0.00019999 0.00020672 0.126406)
(-3.97833e-06 -2.9899e-06 0.130592)
(5.15413e-06 -1.73127e-06 0.130562)
(-3.14311e-06 -2.79229e-06 0.130587)
(0.000203366 0.000206922 0.126427)
(0.000199094 0.000194977 0.126495)
(-0.000202669 -0.000205086 0.126416)
(7.06712e-06 2.55916e-06 0.130583)
(-3.81278e-06 3.16679e-06 0.130594)
(5.76303e-06 3.11132e-06 0.13058)
(-3.41035e-06 4.04452e-06 0.130592)
(-0.000195578 0.000196297 0.126503)
(0.000204825 -0.000205404 0.126425)
(3.47035e-06 8.18521e-07 0.130457)
(4.57016e-06 -1.96023e-06 0.130456)
(2.40298e-06 7.85272e-07 0.130451)
(4.11003e-06 -1.49955e-06 0.13045)
(-1.76955e-06 -2.56613e-06 0.130475)
(-1.52333e-07 9.84983e-07 0.130452)
(-1.71575e-06 -2.14763e-06 0.130473)
(0.000198985 -0.000194716 0.126483)
(-0.000201763 0.000205984 0.126404)
(-3.53083e-06 -2.6852e-06 0.130586)
(5.0507e-06 -2.58231e-06 0.13056)
(-2.47712e-06 -3.0661e-06 0.130585)
(0.00020417 0.000206491 0.126426)
(0.000197569 0.00019715 0.126492)
(-0.000204381 -0.000203975 0.126415)
(5.96565e-06 3.61957e-06 0.130578)
(-3.48247e-06 4.08454e-06 0.130591)
(4.03763e-06 4.46768e-06 0.130577)
(-3.44664e-06 4.90674e-06 0.13059)
(-0.000195179 0.000197373 0.1265)
(0.000204263 -0.000204663 0.126423)
(2.04502e-06 1.58466e-06 0.13045)
(3.5327e-06 -1.95789e-06 0.130449)
(1.02012e-06 1.75463e-06 0.130448)
(2.49125e-06 -1.48885e-06 0.130447)
(-1.43945e-06 -2.5848e-06 0.130472)
(-8.30014e-08 1.77157e-06 0.130452)
(-1.52932e-06 -1.82309e-06 0.130473)
(0.000197751 -0.000196057 0.126481)
(-0.000203538 0.000204973 0.126407)
(-2.7628e-06 -2.92225e-06 0.130584)
(3.21066e-06 -3.12417e-06 0.130561)
(-2.65582e-06 -3.29287e-06 0.130586)
(0.000203335 0.000206169 0.126429)
(0.00019619 0.000198482 0.126492)
(-0.000205854 -0.000203818 0.126418)
(4.08919e-06 4.71551e-06 0.130577)
(-4.06324e-06 5.07521e-06 0.130589)
(2.20653e-06 4.70662e-06 0.130578)
(-3.94901e-06 4.91275e-06 0.13059)
(-0.000196214 0.000198335 0.126499)
(0.000203507 -0.00020521 0.126424)
(6.20628e-07 2.38301e-06 0.130448)
(1.89328e-06 -2.38568e-06 0.130448)
(-1.10618e-07 2.38665e-06 0.13045)
(1.48514e-06 -2.11272e-06 0.130451)
(-1.07681e-06 -2.29253e-06 0.130473)
(-1.46001e-07 1.37383e-06 0.130454)
(-1.51482e-06 -1.65759e-06 0.130474)
(0.000196223 -0.000197362 0.126485)
(-0.000204974 0.000205293 0.12641)
(-3.42573e-06 -2.94315e-06 0.130586)
(1.71345e-06 -3.07933e-06 0.130564)
(-3.26124e-06 -2.84588e-06 0.130587)
(0.000203354 0.000207143 0.126428)
(0.000195399 0.000198996 0.126495)
(-0.000206071 -0.000204518 0.126419)
(2.98581e-06 5.0451e-06 0.130577)
(-4.30373e-06 4.61818e-06 0.130588)
(1.71625e-06 4.56723e-06 0.130578)
(-3.84528e-06 4.41668e-06 0.130588)
(-0.000196866 0.000197704 0.126499)
(0.000203916 -0.000205905 0.126423)
(-6.10038e-07 3.24316e-06 0.13045)
(8.30996e-07 -2.78618e-06 0.130451)
(-1.15126e-06 2.52944e-06 0.130453)
(6.53264e-08 -1.98591e-06 0.130455)
(-1.1391e-06 -2.10803e-06 0.130473)
(-2.07721e-07 9.4059e-07 0.130455)
(-1.4267e-06 -1.41575e-06 0.130475)
(0.000195216 -0.000197374 0.126488)
(-0.000205182 0.000205478 0.126412)
(-3.8793e-06 -2.61604e-06 0.130587)
(1.0476e-06 -3.08242e-06 0.130567)
(-3.32944e-06 -2.1879e-06 0.130587)
(0.000203438 0.000207563 0.126428)
(0.000195767 0.000198713 0.126495)
(-0.000205614 -0.000205291 0.126419)
(2.56194e-06 4.53406e-06 0.130575)
(-4.26847e-06 3.82444e-06 0.130585)
(1.75701e-06 3.71193e-06 0.130578)
(-4.09795e-06 3.90864e-06 0.130586)
(-0.000196599 0.000197307 0.126498)
(0.000203838 -0.000206535 0.126421)
(-1.33835e-06 3.17395e-06 0.130452)
(-4.797e-07 -2.5721e-06 0.130453)
(-1.31573e-06 1.93864e-06 0.130456)
(-1.43997e-07 -1.60223e-06 0.130457)
(-9.86481e-07 -1.78904e-06 0.130473)
(2.82939e-08 1.95336e-07 0.130455)
(-1.04163e-06 -6.84417e-07 0.130476)
(0.000195293 -0.000197034 0.126489)
(-0.000204723 0.000206166 0.126412)
(-3.87426e-06 -2.03333e-06 0.130586)
(1.30398e-06 -2.6194e-06 0.130567)
(-3.14571e-06 -2.00223e-06 0.130587)
(0.000203657 0.000208324 0.126426)
(0.000196177 0.000197868 0.126495)
(-0.000205275 -0.000205866 0.126419)
(3.08275e-06 3.86004e-06 0.130574)
(-4.46457e-06 3.6054e-06 0.130583)
(2.23103e-06 3.27783e-06 0.130577)
(-3.44831e-06 3.5227e-06 0.130587)
(-0.00019721 0.000197184 0.126496)
(0.000204527 -0.00020665 0.126422)
(-1.13846e-06 2.75891e-06 0.130454)
(-1.99542e-07 -2.41052e-06 0.130454)
(-7.84548e-07 1.45863e-06 0.130458)
(4.11471e-07 -1.19747e-06 0.130459)
(-1.03642e-06 -1.38793e-06 0.130473)
(-3.4139e-08 -1.09989e-07 0.130455)
(-1.3609e-06 -8.69901e-07 0.130478)
(0.000196134 -0.000196662 0.126489)
(-0.000204259 0.00020661 0.126412)
(-3.57318e-06 -1.67879e-06 0.130585)
(1.6754e-06 -2.03883e-06 0.130567)
(-3.02697e-06 -1.84312e-06 0.130587)
(0.000203573 0.000207985 0.126425)
(0.000196551 0.000197092 0.126495)
(-0.00020442 -0.000206482 0.12642)
(3.5183e-06 3.2961e-06 0.130573)
(-4.38447e-06 3.46618e-06 0.130581)
(2.60413e-06 2.6444e-06 0.130578)
(-3.17366e-06 3.1566e-06 0.13059)
(-0.00019649 0.000197032 0.126497)
(0.000203556 -0.000206605 0.126424)
(-9.6378e-07 1.94427e-06 0.130455)
(3.60642e-07 -2.45712e-06 0.130455)
(-8.44652e-07 5.80899e-07 0.130461)
(3.3658e-07 -9.6874e-07 0.130463)
(-7.18318e-07 -1.57239e-06 0.130472)
(5.79002e-08 -4.01e-07 0.130457)
(-7.30828e-07 -8.78468e-07 0.130479)
(0.000196665 -0.000196375 0.126489)
(-0.00020387 0.000206693 0.126411)
(-3.63979e-06 -1.5611e-06 0.130585)
(2.27499e-06 -2.06281e-06 0.130569)
(-3.0683e-06 -2.01057e-06 0.130587)
(0.000203614 0.000207639 0.126424)
(0.000197379 0.000196455 0.126495)
(-0.000204211 -0.000206489 0.126423)
(4.16556e-06 2.83142e-06 0.13057)
(-4.20186e-06 3.25705e-06 0.130583)
(2.93697e-06 2.15567e-06 0.13058)
(-3.06255e-06 3.13232e-06 0.130593)
(-0.000197155 0.000196449 0.126498)
(0.000204428 -0.000206754 0.126427)
(-5.55585e-07 1.33001e-06 0.130456)
(3.08615e-07 -2.20973e-06 0.130456)
(-3.68557e-07 -2.46281e-08 0.130465)
(6.41433e-07 -9.11187e-07 0.130466)
(-7.41051e-07 -2.09056e-06 0.130471)
(4.71537e-07 -5.96543e-07 0.130461)
(-6.87399e-07 -1.13195e-06 0.13048)
(0.000197029 -0.000196396 0.126488)
(-0.000203874 0.000206639 0.126412)
(-3.36919e-06 -1.63952e-06 0.130583)
(2.43563e-06 -1.90719e-06 0.13057)
(-2.561e-06 -1.81776e-06 0.130587)
(0.000203977 0.000207443 0.126424)
(0.000197404 0.000196117 0.126495)
(-0.000204293 -0.000206039 0.126429)
(4.79235e-06 2.47768e-06 0.130569)
(-4.8533e-06 2.85292e-06 0.130581)
(2.88586e-06 2.15429e-06 0.130584)
(-3.23355e-06 2.80734e-06 0.130595)
(-0.000196462 0.000196104 0.126498)
(0.000203703 -0.000206067 0.126431)
(-5.16961e-07 7.73409e-07 0.130457)
(1.93195e-07 -2.09661e-06 0.130454)
(1.5803e-07 4.7187e-08 0.13047)
(9.09307e-07 -1.18974e-06 0.130468)
(1.41427e-08 -2.04068e-06 0.130467)
(9.42038e-08 -2.31149e-07 0.130464)
(-6.63712e-07 -1.31579e-06 0.130482)
(0.000196719 -0.000196288 0.126488)
(-0.000203909 0.00020645 0.126414)
(-3.12564e-06 -1.87254e-06 0.13058)
(2.57522e-06 -2.15139e-06 0.13057)
(-2.89775e-06 -2.30414e-06 0.130588)
(0.000203582 0.00020717 0.126424)
(0.000196292 0.000195369 0.12649)
(-0.000203727 -0.000204835 0.126446)
(4.57304e-06 2.31987e-06 0.130569)
(-4.81297e-06 2.47337e-06 0.130578)
(3.19406e-06 2.78429e-06 0.130589)
(-3.53495e-06 3.50006e-06 0.130597)
(-0.000195946 0.000195289 0.126491)
(0.000203898 -0.000204687 0.126447)
(-9.83368e-07 8.84245e-07 0.130456)
(-1.45435e-07 -2.12387e-06 0.130451)
(3.26277e-07 3.66859e-07 0.130475)
(1.63216e-06 -1.70661e-06 0.130472)
(3.89288e-07 -1.9266e-06 0.130463)
(-6.42049e-07 3.74972e-07 0.130469)
(-1.99573e-06 -1.91191e-06 0.130485)
(0.000196178 -0.000196003 0.126486)
(-0.000203726 0.000206555 0.126419)
(-3.11433e-06 -1.83664e-06 0.130577)
(2.74558e-06 -2.7137e-06 0.130572)
(-2.78537e-06 -2.59575e-06 0.130588)
(0.000203722 0.000207325 0.126431)
(0.000195302 0.000194265 0.126471)
(-0.00020091 -0.000205822 0.126447)
(3.01985e-06 1.44281e-06 0.130566)
(-3.55057e-06 1.79862e-06 0.130574)
(8.77667e-06 2.91924e-06 0.130372)
(-8.48488e-06 4.1187e-06 0.130377)
(-0.000194814 0.000194506 0.126472)
(0.000201707 -0.000206085 0.126448)
(-2.40501e-06 1.09558e-07 0.130453)
(-2.16337e-06 -5.85363e-07 0.130446)
(4.02364e-06 2.34376e-06 0.130483)
(5.8924e-06 -4.65272e-06 0.130479)
(2.42184e-06 -6.5892e-09 0.130457)
(-4.42232e-06 1.82778e-06 0.130475)
(-6.39543e-06 -4.70011e-06 0.130491)
(0.000195328 -0.000195117 0.126477)
(-0.00020418 0.000206647 0.126434)
(-2.25393e-06 -2.29522e-07 0.130572)
(4.3472e-06 -6.18951e-06 0.130577)
(-3.98883e-06 -5.50901e-06 0.130591)
(0.000203626 0.000207806 0.126453)
(-3.26543e-06 1.05891e-06 0.130368)
(-0.000199267 0.000195202 0.126464)
(-2.18382e-06 -1.44157e-06 0.130666)
(-2.76241e-06 7.34065e-07 0.130691)
(2.99917e-06 2.04562e-06 0.130699)
(0.000197169 -0.00019791 0.126657)
(-1.76414e-06 1.1162e-06 0.130736)
(1.80851e-05 -8.78225e-06 0.0671183)
(-1.2989e-05 7.82206e-06 0.0672103)
(-1.00765e-06 4.81169e-05 0.118087)
(6.75058e-06 -2.54329e-05 0.132899)
(3.43101e-05 -4.53722e-05 0.106223)
(1.35141e-05 -1.80462e-05 0.130799)
(-3.5789e-05 3.10367e-05 0.10627)
(1.82354e-07 -6.52594e-05 0.118143)
(4.54491e-06 -2.26151e-05 0.132855)
(-1.70976e-05 -2.3634e-05 0.0922797)
(-2.84363e-05 -1.86339e-05 0.0924772)
(0.000200751 0.000200627 0.126487)
(3.0306e-05 9.06627e-06 0.0923609)
(1.32084e-05 1.58263e-05 0.0920261)
(-1.91702e-06 -5.84676e-05 0.103859)
(5.70014e-06 4.08286e-05 0.0784411)
(-1.02466e-05 -3.78982e-05 0.0784638)
(-4.56323e-07 6.10244e-05 0.103932)
(-1.09784e-05 1.4705e-05 0.0671491)
(7.94946e-06 -1.48202e-05 0.067169)
(-5.49314e-05 -4.79798e-08 0.102943)
(3.66239e-05 -6.6779e-07 0.0781594)
(-3.75064e-05 -4.06653e-06 0.0780151)
(5.60425e-05 -9.84867e-07 0.103381)
(-1.11677e-05 1.1838e-05 0.135185)
(8.74954e-06 -1.09429e-05 0.135178)
(-1.10137e-05 -1.14698e-05 0.135188)
(3.85289e-06 5.85591e-06 0.135187)
(-6.59189e-06 7.02136e-06 0.135188)
(4.3218e-06 -6.12498e-06 0.13518)
(-6.92492e-06 -6.11651e-06 0.13519)