/*--------------------------------*- C++ -*----------------------------------*\
| =========                 |                                                 |
| \\      /  F ield         | OpenFOAM: The Open Source CFD Toolbox           |
|  \\    /   O peration     | Version:  2206                                  |
|   \\  /    A nd           | Website:  www.openfoam.com                      |
|    \\/     M anipulation  |                                                 |
\*---------------------------------------------------------------------------*/
FoamFile
{
    version     2.0;
    format      ascii;
    arch        "LSB;label=32;scalar=64";
    class       volVectorField;
    location    "60";
    object      wallShearStress;
}
// * * * * * * * * * * * * * * * * * * * * * * * * * * * * * * * * * * * * * //

dimensions      [0 2 -2 0 0 0 0];

internalField   uniform (0 0 0);

boundaryField
{
    topPatch
    {
        type            calculated;
        value           nonuniform List<vector> 0();
    }
    wall
    {
        type            calculated;
        value           nonuniform List<vector> 
7718
(
(-9.50729e-10 -1.47617e-08 -0.000126292)
(-1.1216e-08 1.03914e-08 -0.000126213)
(-5.32718e-10 -1.30566e-08 -0.000118682)
(-3.52959e-09 3.49192e-09 -0.000118715)
(-5.68715e-09 2.73504e-09 -0.000126331)
(-1.33283e-08 -1.89333e-08 -0.000126252)
(-5.56524e-09 7.81602e-09 -0.000120592)
(-3.9525e-09 6.5433e-10 -0.000122335)
(-6.28024e-09 -1.50966e-08 -0.000120621)
(-5.11695e-09 -6.50482e-09 -0.000122343)
(-2.91431e-09 -3.67751e-09 -0.000126298)
(-4.43828e-09 -1.06199e-08 -0.00012629)
(-1.2167e-08 -7.07795e-09 -0.000118644)
(-2.96273e-09 -9.06833e-09 -0.000118677)
(-5.90775e-09 1.2365e-09 -0.000118715)
(-7.71065e-09 4.83973e-10 -0.00012633)
(1.51484e-08 -9.98736e-09 -0.000126344)
(7.41648e-09 -2.04084e-08 -0.000120578)
(-5.27478e-09 7.24477e-10 -0.000122346)
(-6.12125e-09 1.10782e-08 -0.000120602)
(4.91115e-09 -9.66756e-09 -0.000122308)
(7.10401e-09 -3.43014e-09 -0.000118727)
(5.75606e-09 1.26867e-08 -0.000120608)
(-5.95137e-09 -6.85439e-09 -0.000122355)
(-7.34285e-09 -1.7226e-08 -0.000120629)
(4.13964e-09 2.38153e-09 -0.000122317)
(4.17059e-09 -4.77895e-09 -0.000118766)
(6.44266e-09 -6.47282e-10 -0.00012637)
(1.09557e-08 3.13752e-10 -0.000119325)
(1.66782e-08 -1.83267e-09 -0.000126352)
(-1.65531e-09 -2.94546e-09 -0.000125392)
(6.05095e-09 -1.61469e-08 -0.000119223)
(2.58873e-08 -3.87945e-09 -0.000119373)
(7.57645e-09 -2.38387e-08 -0.000125376)
(-1.03705e-09 -5.89558e-09 -0.000119227)
(1.56583e-08 -1.49755e-08 -0.000119271)
(3.44571e-08 -2.46713e-08 -0.000125447)
(1.49961e-08 -2.80551e-09 -0.000125448)
(1.36811e-08 -2.17632e-08 -0.000126279)
(-1.23243e-08 1.56838e-08 -0.00012622)
(1.10404e-08 1.30071e-08 -0.000126312)
(-1.31753e-08 -2.11057e-08 -0.000126256)
(1.0999e-08 5.07296e-09 -0.000119308)
(5.60756e-09 -3.79967e-09 -0.000125474)
(2.28138e-08 9.85613e-09 -0.000125479)
(-7.53654e-09 2.74466e-11 -0.000126432)
(-1.71464e-09 -2.03837e-08 -0.00012643)
(-9.74047e-09 -6.85186e-09 -0.000118534)
(1.74628e-08 3.56021e-09 -0.000118719)
(2.48645e-08 5.88727e-09 -0.000126216)
(-5.36361e-09 5.37485e-09 -0.000126338)
(-5.76789e-09 -7.99908e-09 -0.000118678)
(9.54217e-09 -1.86507e-09 -0.000118752)
(-2.69371e-09 7.08709e-09 -0.000126338)
(1.05617e-08 5.78425e-09 -0.000126385)
(-1.81828e-08 -2.46584e-09 -0.000118535)
(1.21294e-08 7.03007e-09 -0.000118725)
(2.52311e-08 5.88525e-09 -0.000126185)
(5.34738e-10 9.95031e-09 -0.000126325)
(-5.62761e-09 -2.34566e-09 -0.000118718)
(7.21293e-09 5.21614e-09 -0.000118781)
(-2.51712e-09 5.58318e-09 -0.00012637)
(6.84815e-09 -6.36805e-10 -0.000126408)
(-2.33925e-08 8.25117e-10 -0.000118537)
(6.76649e-09 9.76567e-09 -0.000118737)
(2.09958e-08 5.32143e-09 -0.000126185)
(-1.15077e-08 4.19235e-09 -0.000126332)
(-5.46825e-09 -1.45885e-09 -0.000118724)
(7.32268e-09 7.3987e-09 -0.000118786)
(-3.88883e-09 -3.98082e-10 -0.000126369)
(4.99743e-09 -6.15582e-09 -0.000126405)
(-2.78979e-08 2.29155e-09 -0.000118552)
(7.20645e-09 8.68956e-09 -0.000118749)
(1.56224e-08 1.57017e-09 -0.000126191)
(-1.30229e-08 2.99505e-09 -0.000126338)
(-6.06832e-09 4.44211e-10 -0.000118726)
(6.05711e-09 6.98823e-09 -0.000118782)
(-5.06178e-09 -1.27254e-09 -0.00012636)
(3.17788e-09 -7.48894e-09 -0.000126393)
(-1.80673e-08 -3.01676e-09 -0.000118564)
(1.84773e-08 2.68036e-09 -0.00011876)
(9.13233e-09 -3.01496e-09 -0.000126202)
(-1.97478e-08 -3.21206e-09 -0.000126357)
(-6.92793e-09 -2.78945e-09 -0.000118703)
(6.138e-09 3.05368e-09 -0.000118757)
(-4.99665e-09 1.30006e-09 -0.000126345)
(4.69101e-09 -1.68454e-09 -0.000126376)
(-7.98194e-09 -7.50383e-09 -0.000118573)
(2.46589e-08 4.75367e-12 -0.000118772)
(1.14487e-08 -3.10243e-09 -0.00012622)
(-1.12295e-08 2.02689e-09 -0.000126368)
(-6.25207e-09 -7.77081e-09 -0.00011869)
(8.20135e-09 -2.87917e-09 -0.000118751)
(-4.15895e-09 5.793e-09 -0.000126335)
(6.53804e-09 2.82422e-09 -0.000126376)
(-7.53781e-09 -8.68244e-09 -0.000118583)
(2.42412e-08 1.48187e-10 -0.000118781)
(1.43096e-08 -5.96769e-10 -0.000126229)
(-1.46225e-08 -1.5368e-10 -0.000126377)
(-4.33619e-09 -1.23018e-08 -0.000118692)
(8.57441e-09 -2.53716e-09 -0.00011876)
(-2.52789e-09 7.68668e-09 -0.000126344)
(6.79092e-09 2.59771e-09 -0.000126388)
(-1.1394e-08 -5.84349e-09 -0.000118588)
(1.9698e-08 2.72146e-09 -0.000118777)
(1.82252e-08 1.44779e-09 -0.000126226)
(-9.81702e-09 3.21438e-09 -0.000126362)
(-5.25325e-09 -8.05299e-09 -0.000118699)
(8.08805e-09 -1.99238e-11 -0.000118762)
(-1.89722e-09 7.99494e-09 -0.000126356)
(8.32074e-09 3.76689e-09 -0.000126399)
(-1.53608e-08 -3.15193e-09 -0.000118577)
(1.67371e-08 4.40113e-09 -0.000118761)
(1.35846e-08 -2.98401e-11 -0.000126201)
(-1.54787e-08 4.00312e-10 -0.000126337)
(-5.09357e-09 -6.07868e-09 -0.000118697)
(8.98835e-09 4.59284e-10 -0.000118758)
(-2.47035e-09 5.73677e-09 -0.000126357)
(7.45184e-09 1.24192e-09 -0.000126394)
(-1.6529e-08 -2.74883e-09 -0.000118564)
(1.58028e-08 4.61986e-09 -0.000118754)
(1.47777e-08 5.22629e-10 -0.000126182)
(-9.63066e-09 4.05048e-09 -0.000126323)
(-6.14268e-09 -4.13914e-09 -0.000118693)
(7.39795e-09 4.8915e-09 -0.000118757)
(-3.96907e-09 1.97563e-09 -0.000126355)
(5.2495e-09 -2.70972e-09 -0.000126392)
(-1.73964e-08 -2.75939e-09 -0.000118558)
(1.3155e-08 5.03697e-09 -0.00011875)
(1.86275e-08 2.37298e-09 -0.000126184)
(-1.34725e-08 1.16906e-09 -0.00012633)
(-7.15466e-09 -3.38485e-09 -0.000118694)
(7.02657e-09 5.23587e-09 -0.000118758)
(-4.98373e-09 7.71714e-10 -0.000126359)
(5.02058e-09 -2.50128e-09 -0.000126394)
(-1.94809e-08 -2.61019e-09 -0.000118549)
(1.6047e-08 3.55342e-09 -0.000118745)
(1.75075e-08 1.55529e-09 -0.000126181)
(-7.10252e-09 4.85447e-09 -0.000126331)
(-6.65006e-09 -2.80762e-09 -0.000118686)
(8.01186e-09 3.17893e-09 -0.000118749)
(-4.02897e-09 2.33486e-09 -0.000126349)
(6.42266e-09 8.62706e-10 -0.000126379)
(-1.46118e-08 -4.48389e-09 -0.000118541)
(1.54577e-08 3.86924e-09 -0.000118761)
(1.47348e-08 -1.35002e-10 -0.000126176)
(-1.35666e-08 1.73228e-09 -0.000126358)
(-6.64978e-09 -4.4006e-09 -0.000118676)
(7.84523e-09 1.61754e-09 -0.000118749)
(-3.1364e-09 6.01121e-09 -0.000126331)
(6.70818e-09 9.32193e-10 -0.00012638)
(-1.45845e-08 -6.04647e-09 -0.000118536)
(1.43888e-08 6.86519e-09 -0.000118796)
(1.83143e-08 -1.38424e-11 -0.000126177)
(-1.12036e-08 4.19071e-09 -0.000126395)
(-6.52975e-09 -3.34578e-09 -0.000118678)
(7.85975e-09 7.46399e-10 -0.000118758)
(-4.81624e-09 3.15558e-09 -0.000126335)
(5.80662e-09 -1.81444e-09 -0.000126394)
(-1.26113e-08 -6.9354e-09 -0.000118507)
(2.30419e-08 3.96046e-09 -0.000118791)
(1.55681e-08 -1.21641e-09 -0.000126156)
(-1.45832e-08 1.44019e-09 -0.000126401)
(-7.88434e-09 -2.25095e-09 -0.000118673)
(9.42978e-09 1.51215e-09 -0.000118762)
(-3.71478e-09 4.1502e-09 -0.000126335)
(5.35958e-09 -3.54565e-09 -0.000126394)
(3.09321e-08 6.45953e-09 -0.000126239)
(-7.18943e-09 -5.70971e-09 -0.000118643)
(-6.20147e-09 3.91693e-09 -0.000126314)
(-1.12381e-08 5.39057e-09 -0.000126318)
(1.16761e-08 -8.98019e-10 -0.000126433)
(5.20576e-09 1.5009e-09 -0.000126393)
(-1.24328e-08 -1.22009e-08 -0.000126395)
(1.73204e-08 2.87456e-09 -0.000126375)
(-2.47293e-08 -4.40602e-09 -0.000126263)
(-9.67264e-09 8.97964e-09 -0.000118671)
(2.04242e-08 -1.29069e-09 -0.000118832)
(7.19134e-09 9.25982e-09 -0.000118687)
(-1.31159e-08 -4.64206e-09 -0.000118814)
(2.41933e-08 9.81299e-10 -0.000118775)
(-1.92574e-08 3.87925e-09 -0.000118606)
(-1.08002e-08 -6.02467e-09 -0.000118772)
(2.47011e-08 1.05099e-09 -0.000118615)
(4.08467e-09 5.36998e-09 -0.000126444)
(-3.87123e-09 -1.28293e-09 -0.000126472)
(8.64017e-09 5.52228e-09 -0.000126327)
(-1.42148e-08 4.04672e-10 -0.0001264)
(-4.14301e-09 -3.75191e-09 -0.000126433)
(9.15073e-09 -4.26281e-09 -0.000126427)
(-5.80459e-09 -3.71146e-09 -0.000126369)
(2.15174e-08 -3.72072e-09 -0.000126258)
(-1.30487e-08 -1.0055e-09 -0.000126177)
(1.00359e-08 2.45576e-09 -0.000126318)
(-1.38244e-09 -9.03258e-09 -0.0001263)
(1.09954e-08 -7.40474e-09 -0.000126352)
(1.09176e-08 1.74241e-09 -0.000126329)
(-1.793e-08 2.84533e-09 -0.000126186)
(7.27432e-09 -7.58127e-10 -0.000126373)
(-1.46157e-10 -9.97058e-09 -0.000126326)
(2.44552e-08 -4.15357e-10 -0.000118565)
(-7.96513e-09 6.50756e-09 -0.000118735)
(1.61138e-08 4.26599e-09 -0.000118722)
(-1.73178e-08 -2.84609e-09 -0.00011853)
(-1.02239e-08 6.23569e-09 -0.000118721)
(2.56046e-08 5.24162e-10 -0.000118542)
(7.83337e-09 4.1595e-09 -0.00012642)
(-2.4596e-09 5.49261e-09 -0.000126436)
(-6.86431e-09 4.62273e-09 -0.00012633)
(2.70439e-08 6.54664e-09 -0.000126196)
(-4.75902e-09 3.29245e-09 -0.000126418)
(7.85143e-09 4.41672e-09 -0.000126399)
(-5.30058e-09 7.66141e-09 -0.000118717)
(9.13298e-09 2.4166e-09 -0.000118781)
(6.74799e-09 3.85497e-09 -0.000118771)
(-4.09605e-09 -8.61839e-09 -0.0001187)
(7.55826e-09 -1.81272e-09 -0.000118799)
(-3.24177e-09 8.77525e-09 -0.000118732)
(8.00821e-09 3.38451e-10 -0.000118796)
(-5.13058e-09 8.09029e-09 -0.000118838)
(6.23783e-09 2.65702e-09 -0.00011878)
(-6.40361e-09 -4.5739e-09 -0.000118821)
(-5.55519e-09 7.1821e-09 -0.00011882)
(8.16675e-09 3.65583e-10 -0.000118773)
(-5.82378e-09 -5.60534e-09 -0.000118803)
(6.62298e-09 2.66213e-09 -0.00011876)
(-1.37553e-08 8.7542e-10 -0.000126218)
(8.43035e-09 -3.76612e-09 -0.000126358)
(7.96529e-09 2.21868e-09 -0.0001264)
(-8.90753e-10 9.13708e-09 -0.000126359)
(6.82108e-09 -4.06626e-09 -0.000126366)
(-2.17192e-08 -4.09639e-09 -0.000126225)
(-1.16925e-08 6.02535e-09 -0.000118562)
(1.47854e-08 -5.17116e-09 -0.00011875)
(2.39691e-08 1.07072e-09 -0.00011857)
(-7.05655e-09 -7.70863e-09 -0.000118741)
(1.33693e-08 -5.10311e-09 -0.000118749)
(-2.04875e-08 2.17465e-09 -0.000118559)
(-7.26471e-09 -7.96786e-09 -0.000118727)
(2.72186e-08 -9.74357e-11 -0.000118547)
(6.73924e-09 -2.22028e-09 -0.000126399)
(-4.44637e-09 -3.10294e-09 -0.000126418)
(2.47997e-08 -5.06522e-09 -0.000126219)
(-1.2014e-09 -7.19842e-09 -0.000126342)
(-4.60295e-09 -3.77315e-09 -0.000126394)
(6.70467e-09 -1.56184e-09 -0.000126378)
(-6.84043e-10 -8.26009e-09 -0.000126333)
(2.96106e-08 -7.92223e-09 -0.0001262)
(-1.71447e-08 1.98941e-09 -0.000126195)
(6.92576e-09 4.77259e-09 -0.000126337)
(-4.47162e-09 -2.20713e-09 -0.00012634)
(6.46663e-09 1.27894e-09 -0.00012638)
(6.01178e-09 5.77984e-09 -0.000126338)
(-2.12988e-08 4.69896e-09 -0.000126202)
(5.33393e-09 3.82541e-09 -0.000126381)
(-4.70481e-09 -5.52397e-10 -0.000126348)
(2.28077e-08 -5.50108e-10 -0.00011853)
(-6.5108e-09 8.61041e-09 -0.000118717)
(9.99385e-09 7.39168e-09 -0.000118726)
(-2.14562e-08 -9.19602e-10 -0.000118534)
(-1.51064e-08 5.89723e-09 -0.000118719)
(2.41601e-08 -2.97805e-10 -0.000118535)
(6.60528e-09 2.62613e-09 -0.000126382)
(-1.04714e-09 9.6064e-09 -0.000126411)
(-7.83474e-09 4.00463e-09 -0.000126322)
(2.7107e-08 7.45553e-09 -0.000126197)
(-4.14266e-09 5.35441e-09 -0.000126396)
(8.09196e-09 5.7427e-09 -0.000126368)
(-4.55547e-09 6.91772e-09 -0.000118744)
(7.70102e-09 -2.79039e-09 -0.000118808)
(7.35208e-09 6.07951e-09 -0.000118783)
(-5.93569e-09 -3.53517e-09 -0.000118722)
(8.49949e-09 -4.70702e-09 -0.000118802)
(-5.47301e-09 5.46243e-09 -0.00011875)
(6.59169e-09 -1.6097e-09 -0.000118758)
(-4.66929e-09 1.11191e-08 -0.000118813)
(5.44095e-09 3.01953e-09 -0.000118744)
(-6.74418e-09 -6.2769e-09 -0.000118793)
(-6.13375e-09 9.44143e-09 -0.000118797)
(7.9071e-09 1.20162e-09 -0.000118745)
(-7.85225e-09 -5.59426e-09 -0.000118777)
(6.92138e-09 1.26307e-09 -0.000118732)
(-2.17327e-08 -4.83739e-09 -0.000126227)
(8.60474e-09 -3.91274e-09 -0.000126371)
(6.24815e-09 -9.37987e-10 -0.000126399)
(-3.43008e-09 3.93031e-09 -0.000126375)
(5.64949e-09 -5.67745e-09 -0.000126371)
(-1.93714e-08 -3.47291e-09 -0.000126235)
(-2.03712e-08 1.60297e-09 -0.000118559)
(1.22859e-08 -6.46517e-09 -0.000118756)
(2.7028e-08 -1.54215e-09 -0.000118538)
(-1.07942e-08 -7.58401e-09 -0.000118729)
(1.1039e-08 -7.64751e-09 -0.000118755)
(-2.21798e-08 9.65921e-10 -0.000118564)
(-1.4416e-08 -6.5354e-09 -0.00011873)
(2.16609e-08 1.25848e-09 -0.000118541)
(6.27654e-09 -1.02027e-09 -0.000126357)
(-4.61538e-09 -4.12229e-09 -0.000126382)
(2.89761e-08 -8.34492e-09 -0.000126196)
(-5.37916e-09 -5.51551e-09 -0.000126336)
(-5.87272e-09 -2.40265e-09 -0.000126363)
(6.92336e-09 -2.14821e-09 -0.000126342)
(-8.45673e-09 -4.17161e-09 -0.000126333)
(2.2045e-08 -4.76372e-09 -0.000126198)
(-2.23201e-08 5.51032e-09 -0.0001262)
(3.13012e-09 8.18847e-09 -0.000126347)
(-5.84093e-09 1.36611e-09 -0.000126345)
(5.70078e-09 4.56999e-09 -0.000126383)
(1.7849e-09 8.61381e-09 -0.000126347)
(-2.62384e-08 7.60353e-09 -0.00012621)
(3.86304e-09 7.05019e-09 -0.000126378)
(-5.43971e-09 1.71954e-09 -0.000126349)
(1.87034e-08 -1.4608e-09 -0.000118529)
(-1.49514e-08 6.70316e-09 -0.000118731)
(6.45386e-09 8.86892e-09 -0.00011874)
(-2.59317e-08 2.07147e-09 -0.000118548)
(-1.82699e-08 4.01478e-09 -0.000118732)
(1.73641e-08 -1.3908e-09 -0.000118544)
(5.97378e-09 2.17032e-09 -0.000126357)
(-7.14759e-09 1.88184e-09 -0.000126386)
(-1.45598e-08 9.83559e-10 -0.000126334)
(1.98605e-08 3.93998e-09 -0.000126197)
(-8.45235e-09 -2.40408e-09 -0.000126373)
(5.06489e-09 6.61527e-10 -0.000126349)
(-4.95957e-09 3.56438e-09 -0.000118746)
(7.47708e-09 -7.00393e-09 -0.000118808)
(6.13452e-09 9.5064e-09 -0.000118783)
(-6.72801e-09 1.14985e-09 -0.000118727)
(5.92319e-09 -9.76562e-09 -0.000118801)
(-5.65929e-09 7.40402e-10 -0.000118752)
(6.64623e-09 -3.37464e-10 -0.000118732)
(-8.30308e-09 3.37902e-09 -0.000118783)
(4.7438e-09 4.16385e-09 -0.000118718)
(-8.93787e-09 -2.79688e-09 -0.00011877)
(-8.27728e-09 3.57831e-09 -0.000118772)
(4.71452e-09 -4.69961e-09 -0.000118722)
(-8.48409e-09 -3.91508e-09 -0.000118761)
(4.12298e-09 5.9119e-09 -0.000118712)
(-2.31434e-08 -5.96237e-09 -0.000126233)
(5.40824e-09 -7.2701e-09 -0.000126375)
(4.51847e-09 -5.24243e-09 -0.000126395)
(-5.414e-09 -1.58081e-09 -0.000126372)
(4.35792e-09 -7.19617e-09 -0.000126372)
(-2.38266e-08 -6.08408e-09 -0.000126237)
(-2.4168e-08 -3.57319e-10 -0.000118563)
(8.09448e-09 -8.35686e-09 -0.000118762)
(2.01583e-08 4.8983e-10 -0.000118541)
(-1.44891e-08 -6.95094e-09 -0.000118742)
(7.91665e-09 -8.80488e-09 -0.000118763)
(-2.57214e-08 -1.81813e-09 -0.000118574)
(-1.76103e-08 -4.74817e-09 -0.000118742)
(1.92172e-08 1.20888e-09 -0.000118553)
(3.69875e-09 1.58937e-09 -0.000126328)
(-7.81741e-09 6.33743e-10 -0.000126354)
(2.0756e-08 -4.48318e-09 -0.000126196)
(-1.01406e-08 -4.00876e-09 -0.000126341)
(-7.35993e-09 2.5574e-10 -0.000126344)
(3.08538e-09 3.16715e-09 -0.000126319)
(-1.26902e-08 -2.05629e-09 -0.000126339)
(1.99065e-08 -4.4048e-09 -0.000126204)
(-2.71431e-08 8.44266e-09 -0.000126208)
(2.97498e-09 6.881e-09 -0.000126351)
(-7.01932e-09 4.50541e-09 -0.000126342)
(3.89379e-09 6.17142e-09 -0.000126375)
(9.49028e-09 2.60984e-09 -0.000126349)
(-2.40101e-08 5.77311e-09 -0.000126213)
(4.23857e-09 2.55619e-09 -0.000126358)
(-6.66515e-09 1.41007e-09 -0.000126336)
(1.45174e-08 -3.07958e-09 -0.000118541)
(-1.56032e-08 5.14289e-09 -0.000118741)
(1.45668e-08 4.52885e-09 -0.000118752)
(-2.45035e-08 1.19522e-10 -0.00011856)
(-2.52174e-08 4.2444e-10 -0.000118744)
(1.50971e-08 -3.75615e-09 -0.000118556)
(3.25242e-09 -2.42716e-09 -0.000126336)
(-3.25254e-09 5.47534e-09 -0.000126371)
(-1.94137e-08 -3.23986e-09 -0.00012634)
(1.47634e-08 6.59089e-10 -0.000126208)
(-6.40441e-09 -3.56885e-10 -0.000126367)
(5.51702e-09 -8.93564e-10 -0.000126329)
(-7.0808e-09 -6.64081e-10 -0.000118741)
(5.64309e-09 -8.96027e-09 -0.0001188)
(5.47298e-09 6.62391e-09 -0.000118766)
(-6.99239e-09 -1.34423e-09 -0.000118719)
(5.11266e-09 -8.24356e-09 -0.000118788)
(-7.64267e-09 1.17691e-10 -0.000118741)
(5.38101e-09 -5.96244e-09 -0.000118706)
(-5.32078e-09 9.07591e-09 -0.000118769)
(4.82817e-09 5.93913e-09 -0.000118699)
(-7.93302e-09 -3.02016e-09 -0.000118754)
(-6.13551e-09 4.80114e-09 -0.000118762)
(7.46798e-09 -5.13418e-10 -0.000118704)
(-6.36932e-09 -4.93348e-09 -0.000118747)
(5.39706e-09 5.40223e-09 -0.000118696)
(-2.4435e-08 -6.83022e-09 -0.000126229)
(8.55771e-09 -3.89177e-09 -0.00012637)
(3.8883e-09 -4.04931e-09 -0.00012638)
(-6.95023e-09 -1.89089e-09 -0.000126359)
(1.10545e-08 -2.0147e-09 -0.000126367)
(-2.05807e-08 -3.62905e-09 -0.000126232)
(-2.63959e-08 -1.12726e-09 -0.00011857)
(1.09315e-08 -7.29704e-09 -0.000118768)
(1.53816e-08 2.59735e-09 -0.000118551)
(-1.98918e-08 -3.51817e-09 -0.000118745)
(1.51637e-08 -4.40159e-09 -0.000118762)
(-2.197e-08 9.21261e-10 -0.000118575)
(-2.29582e-08 -1.33674e-09 -0.000118745)
(1.36565e-08 4.68036e-09 -0.000118555)
(3.43497e-09 3.52246e-09 -0.000126306)
(-6.60088e-09 -3.57613e-10 -0.000126337)
(1.63896e-08 -1.76196e-09 -0.000126197)
(-1.58365e-08 -3.63962e-10 -0.000126339)
(-6.28467e-09 9.78626e-10 -0.000126333)
(4.38348e-09 2.5207e-09 -0.000126303)
(-1.77116e-08 1.66298e-09 -0.000126337)
(1.36673e-08 1.54165e-10 -0.000126199)
(-1.66172e-08 1.29541e-09 -0.000126212)
(1.49544e-08 -8.31117e-10 -0.000126355)
(-6.21076e-09 -5.39494e-11 -0.000126318)
(5.77508e-09 -5.70151e-11 -0.00012635)
(2.01547e-08 -4.46003e-09 -0.000126357)
(-1.16007e-08 -1.98429e-09 -0.000126222)
(5.99994e-09 -2.11038e-09 -0.000126344)
(-4.76016e-09 -4.01931e-09 -0.000126315)
(8.40636e-09 -7.00787e-09 -0.000118553)
(-2.16591e-08 1.58132e-09 -0.000118757)
(2.5175e-08 -9.32298e-10 -0.00011876)
(-1.33253e-08 -5.59166e-09 -0.000118572)
(-2.26537e-08 -1.7251e-10 -0.00011876)
(1.18124e-08 -6.51074e-09 -0.000118569)
(4.48724e-09 -2.92364e-09 -0.000126332)
(-6.92839e-09 -1.9875e-09 -0.000126375)
(-2.09388e-08 -3.907e-09 -0.000126364)
(1.07305e-08 -3.11027e-09 -0.000126221)
(-7.8552e-09 -5.6102e-09 -0.000126378)
(4.29704e-09 -4.43938e-09 -0.000126343)
(-7.33437e-09 2.02504e-09 -0.000118726)
(6.02201e-09 -4.21579e-09 -0.000118781)
(6.55525e-09 2.1026e-09 -0.000118748)
(-6.97287e-09 -5.03836e-09 -0.000118696)
(5.04726e-09 -4.23127e-09 -0.000118772)
(-7.77156e-09 3.92254e-09 -0.000118722)
(6.27218e-09 -5.43564e-09 -0.0001187)
(-7.51567e-09 1.28565e-09 -0.000118768)
(6.34547e-09 4.25615e-09 -0.000118689)
(-6.24422e-09 -3.92911e-09 -0.000118751)
(-6.63321e-09 1.34807e-09 -0.00011877)
(5.56365e-09 -7.1103e-09 -0.00011871)
(-5.27922e-09 -3.62234e-09 -0.000118754)
(8.22872e-09 3.66153e-09 -0.000118693)
(-1.62096e-08 -9.1571e-10 -0.000126224)
(1.42288e-08 1.34804e-11 -0.000126365)
(5.61877e-09 3.85419e-10 -0.00012637)
(-5.29626e-09 3.34361e-09 -0.000126344)
(1.87696e-08 3.75098e-09 -0.000126363)
(-1.43779e-08 1.07255e-09 -0.000126227)
(-1.85093e-08 2.96546e-09 -0.000118568)
(1.99055e-08 -1.94143e-09 -0.000118764)
(1.09308e-08 5.78791e-09 -0.000118553)
(-2.06565e-08 -1.85409e-09 -0.000118751)
(2.38169e-08 2.75253e-10 -0.000118763)
(-1.35654e-08 5.69109e-09 -0.000118573)
(-2.10524e-08 -1.17773e-09 -0.000118751)
(1.31672e-08 5.781e-09 -0.000118562)
(4.05279e-09 3.69039e-09 -0.000126299)
(-6.46897e-09 1.62559e-09 -0.000126338)
(1.19032e-08 1.53926e-09 -0.000126198)
(-1.88764e-08 2.20169e-09 -0.000126343)
(-7.17592e-09 3.63434e-09 -0.000126343)
(4.45193e-09 4.25693e-09 -0.000126305)
(-1.73161e-08 2.20556e-09 -0.000126341)
(1.12623e-08 2.35164e-09 -0.000126205)
(-7.56702e-09 -4.04763e-09 -0.000126218)
(2.25818e-08 -5.08089e-09 -0.000126368)
(-3.07931e-09 -6.56089e-09 -0.000126311)
(8.87269e-09 -6.26959e-09 -0.000126351)
(2.23634e-08 -5.90432e-09 -0.000126371)
(-5.73555e-09 -5.46097e-09 -0.000126234)
(7.75157e-09 -6.35902e-09 -0.000126352)
(-1.87363e-09 -9.75639e-09 -0.000126319)
(1.21354e-08 -6.12121e-09 -0.000118569)
(-1.34525e-08 4.09513e-09 -0.000118768)
(2.73455e-08 -1.93709e-09 -0.000118773)
(-7.44846e-09 -8.2127e-09 -0.000118583)
(-1.95741e-08 8.73309e-10 -0.000118772)
(1.62228e-08 -5.13771e-09 -0.000118585)
(3.16363e-09 -6.92129e-09 -0.000126346)
(-4.93234e-09 -7.51587e-10 -0.000126395)
(-1.56951e-08 -1.26658e-09 -0.000126374)
(1.53286e-08 -4.78521e-10 -0.000126241)
(-7.04775e-09 -3.98297e-09 -0.000126399)
(3.80527e-09 -6.12223e-09 -0.000126354)
(-6.76117e-09 6.41006e-09 -0.000118713)
(7.2311e-09 9.17286e-10 -0.000118775)
(7.99172e-09 -2.80761e-09 -0.000118752)
(-4.47598e-09 -1.15787e-08 -0.000118692)
(5.77685e-09 -1.28028e-09 -0.000118773)
(-5.86209e-09 9.37916e-09 -0.000118719)
(5.81125e-09 -9.265e-09 -0.00011871)
(-6.63151e-09 2.03228e-09 -0.000118785)
(7.08919e-09 5.66082e-09 -0.000118696)
(-6.77671e-09 -1.67393e-09 -0.000118766)
(-7.13113e-09 5.77683e-11 -0.000118789)
(6.09595e-09 -7.95773e-09 -0.000118722)
(-5.7963e-09 -3.63591e-09 -0.000118771)
(6.90159e-09 6.28199e-09 -0.000118709)
(-1.00309e-08 3.11087e-09 -0.000126224)
(2.05193e-08 4.26169e-09 -0.000126368)
(7.53059e-09 4.4054e-09 -0.000126375)
(-3.19112e-09 7.03702e-09 -0.000126345)
(1.93516e-08 3.90034e-09 -0.000126369)
(-8.22456e-09 4.68042e-09 -0.00012623)
(-1.11041e-08 7.04874e-09 -0.000118571)
(2.33654e-08 -8.36959e-11 -0.000118769)
(1.42171e-08 6.41113e-09 -0.000118558)
(-1.74684e-08 -2.44794e-09 -0.000118756)
(2.396e-08 4.05015e-10 -0.000118768)
(-1.04466e-08 7.23468e-09 -0.000118578)
(-1.704e-08 -2.28205e-09 -0.000118755)
(1.69155e-08 4.63052e-09 -0.000118566)
(3.57783e-09 6.6343e-09 -0.000126309)
(-5.93226e-09 8.18443e-10 -0.000126354)
(1.40477e-08 1.33973e-09 -0.000126202)
(-1.45471e-08 7.82725e-10 -0.000126347)
(-5.17243e-09 -4.31759e-11 -0.000126361)
(4.88752e-09 3.39198e-09 -0.000126324)
(-1.30943e-08 2.53342e-10 -0.000126349)
(1.41591e-08 1.07261e-09 -0.00012621)
(-7.62821e-09 -4.78881e-09 -0.000126232)
(2.0822e-08 -3.96919e-09 -0.000126378)
(-1.56681e-09 -9.23245e-09 -0.000126319)
(8.9481e-09 -5.87773e-09 -0.000126361)
(1.97317e-08 -3.36302e-09 -0.000126378)
(-7.53957e-09 -4.21923e-09 -0.000126241)
(7.31271e-09 -3.51729e-09 -0.00012636)
(-2.29935e-09 -8.19441e-09 -0.000126328)
(1.3752e-08 -4.75138e-09 -0.000118579)
(-1.51325e-08 4.10628e-09 -0.000118774)
(2.27441e-08 2.15275e-10 -0.000118776)
(-9.15548e-09 -7.13169e-09 -0.00011859)
(-1.42434e-08 3.69386e-09 -0.000118767)
(1.82977e-08 -3.75168e-09 -0.000118583)
(4.10105e-09 -4.47122e-09 -0.000126364)
(-6.49711e-09 -2.06802e-09 -0.000126402)
(-1.36505e-08 1.97556e-10 -0.000126373)
(1.76891e-08 9.69431e-10 -0.000126238)
(-7.19239e-09 -3.57398e-09 -0.000126398)
(3.88614e-09 -4.4804e-09 -0.000126369)
(-5.61994e-09 8.41707e-09 -0.000118718)
(7.69297e-09 -5.04243e-10 -0.000118787)
(6.9727e-09 8.64277e-10 -0.000118756)
(-4.70588e-09 -9.50232e-09 -0.0001187)
(6.60413e-09 -1.58731e-09 -0.000118785)
(-6.08083e-09 7.25587e-09 -0.000118731)
(5.45274e-09 -9.00728e-09 -0.000118727)
(-8.2022e-09 -7.59601e-10 -0.000118797)
(6.70355e-09 6.10332e-09 -0.000118714)
(-5.76987e-09 -3.83326e-09 -0.00011878)
(-7.48148e-09 9.91588e-10 -0.000118792)
(4.71932e-09 -9.27667e-09 -0.000118736)
(-5.9334e-09 -3.87553e-09 -0.000118778)
(7.5109e-09 3.68711e-09 -0.000118723)
(-9.42268e-09 3.8472e-09 -0.00012623)
(1.93558e-08 2.56111e-09 -0.000126374)
(7.68578e-09 4.02981e-09 -0.000126389)
(-3.16639e-09 6.11048e-09 -0.000126359)
(1.88141e-08 2.68255e-09 -0.000126372)
(-1.04671e-08 2.84031e-09 -0.000126237)
(-1.03527e-08 7.01413e-09 -0.000118576)
(2.22374e-08 -1.12687e-09 -0.000118773)
(1.84502e-08 4.25034e-09 -0.000118564)
(-1.40422e-08 -4.49755e-09 -0.000118762)
(2.18831e-08 -1.07595e-09 -0.000118768)
(-1.2109e-08 5.89664e-09 -0.000118582)
(-1.64957e-08 -3.51056e-09 -0.000118755)
(1.9162e-08 3.94865e-09 -0.000118569)
(5.15553e-09 2.41696e-09 -0.000126329)
(-5.4753e-09 -8.10126e-10 -0.000126369)
(1.69229e-08 -5.65621e-10 -0.000126211)
(-1.17312e-08 -1.03082e-09 -0.000126356)
(-6.15381e-09 8.33983e-10 -0.000126368)
(5.11911e-09 3.14134e-09 -0.000126336)
(-1.10554e-08 -1.31885e-09 -0.000126349)
(1.86822e-08 -1.60099e-09 -0.000126216)
(-8.70584e-09 -3.54858e-09 -0.000126238)
(1.84823e-08 -1.98467e-09 -0.000126379)
(-3.21793e-09 -5.06536e-09 -0.000126326)
(8.53075e-09 -4.23167e-09 -0.000126366)
(1.56666e-08 -4.47984e-11 -0.000126369)
(-1.00502e-08 -2.49123e-09 -0.00012624)
(6.79155e-09 -1.01149e-09 -0.00012636)
(-1.87231e-09 -8.38237e-09 -0.000126331)
(1.88554e-08 -3.14857e-09 -0.000118573)
(-1.13657e-08 5.84683e-09 -0.000118761)
(1.88798e-08 2.87007e-09 -0.000118766)
(-1.31882e-08 -4.80231e-09 -0.000118587)
(-1.8345e-08 3.67346e-09 -0.000118747)
(1.87675e-08 -3.39456e-09 -0.000118571)
(3.76221e-09 -4.20161e-09 -0.000126364)
(-3.59725e-09 3.72078e-09 -0.0001264)
(-1.55774e-08 -5.919e-10 -0.000126346)
(1.83106e-08 1.68484e-09 -0.000126227)
(-7.23526e-09 -2.03026e-09 -0.000126387)
(5.26828e-09 -1.71213e-09 -0.000126356)
(-5.07964e-09 8.30398e-09 -0.000118727)
(8.8923e-09 1.56463e-09 -0.000118794)
(7.19171e-09 2.43124e-09 -0.000118757)
(-5.31926e-09 -7.61245e-09 -0.0001187)
(7.14447e-09 -2.47552e-09 -0.00011879)
(-4.8912e-09 8.62724e-09 -0.000118737)
(5.107e-09 -8.64695e-09 -0.00011873)
(-6.37559e-09 5.2611e-09 -0.000118793)
(6.41098e-09 5.02882e-09 -0.000118719)
(-6.37603e-09 -4.1654e-09 -0.000118782)
(-6.54705e-09 2.96993e-09 -0.000118781)
(6.6544e-09 -4.11516e-09 -0.000118727)
(-7.15081e-09 -3.71265e-09 -0.000118776)
(6.63572e-09 4.236e-09 -0.000118724)
(-9.44046e-09 2.64642e-09 -0.000126231)
(1.82056e-08 1.84136e-09 -0.000126374)
(7.29718e-09 2.01764e-09 -0.000126392)
(-2.61115e-09 6.38854e-09 -0.000126366)
(1.3911e-08 -6.54362e-10 -0.000126366)
(-1.15046e-08 1.77977e-09 -0.000126234)
(-1.30105e-08 5.09943e-09 -0.000118575)
(2.18222e-08 -1.90131e-09 -0.000118771)
(1.92963e-08 3.62798e-09 -0.000118561)
(-1.51575e-08 -5.35622e-09 -0.000118756)
(1.81023e-08 -3.14458e-09 -0.00011876)
(-1.23839e-08 5.75286e-09 -0.000118577)
(-1.78783e-08 -3.21102e-09 -0.000118745)
(1.78283e-08 3.30303e-09 -0.000118562)
(4.64831e-09 2.7399e-09 -0.000126334)
(-5.92694e-09 -4.4948e-10 -0.000126371)
(1.85317e-08 -2.04781e-09 -0.000126212)
(-1.39298e-08 -1.14257e-10 -0.000126351)
(-6.45993e-09 3.18375e-11 -0.000126365)
(5.40194e-09 1.42046e-09 -0.000126336)
(-1.3045e-08 -1.34308e-09 -0.000126343)
(1.55893e-08 -8.07023e-10 -0.00012621)
(-1.26306e-08 -5.61357e-10 -0.000126227)
(1.29587e-08 1.52731e-09 -0.000126365)
(-4.06284e-09 -3.30765e-09 -0.000126324)
(7.58023e-09 -1.95447e-09 -0.000126361)
(1.47985e-08 9.27051e-11 -0.000126358)
(-1.5745e-08 7.83544e-10 -0.000126224)
(5.86614e-09 1.06372e-09 -0.000126355)
(-2.35386e-09 -5.47074e-09 -0.000126327)
(1.55302e-08 -3.8764e-09 -0.000118551)
(-1.73755e-08 4.02976e-09 -0.000118737)
(1.73126e-08 3.63568e-09 -0.000118755)
(-1.59834e-08 -3.53639e-09 -0.000118569)
(-1.99698e-08 2.74605e-09 -0.000118725)
(1.59021e-08 -3.51115e-09 -0.000118546)
(3.32714e-09 -4.27817e-09 -0.00012635)
(-7.66268e-09 -1.69311e-09 -0.000126385)
(-1.5132e-08 -1.78503e-11 -0.000126326)
(1.63725e-08 7.72257e-10 -0.000126195)
(-8.27045e-09 -3.44174e-09 -0.000126377)
(3.8829e-09 -2.98812e-09 -0.00012635)
(-4.25922e-09 7.14645e-09 -0.000118732)
(7.73044e-09 -2.01706e-09 -0.000118793)
(7.11144e-09 3.75829e-09 -0.000118753)
(-4.82086e-09 -7.55026e-09 -0.000118696)
(6.68403e-09 -4.78706e-09 -0.000118789)
(-5.69836e-09 5.62217e-09 -0.000118736)
(5.20643e-09 -6.69369e-09 -0.000118718)
(-8.0504e-09 1.92335e-09 -0.000118782)
(5.47478e-09 6.14422e-09 -0.000118716)
(-8.55964e-09 -2.00447e-09 -0.000118776)
(-6.96446e-09 3.88823e-09 -0.000118775)
(5.32374e-09 -5.88392e-09 -0.000118721)
(-6.04484e-09 -7.22572e-09 -0.000118768)
(5.42177e-09 5.11125e-09 -0.000118717)
(-1.63876e-08 -1.29479e-09 -0.000126224)
(1.0568e-08 -2.6298e-09 -0.000126366)
(5.9238e-09 -5.79866e-10 -0.000126389)
(-2.79547e-09 5.32936e-09 -0.000126362)
(1.29792e-08 -9.37863e-10 -0.000126358)
(-1.78983e-08 -2.3055e-09 -0.000126227)
(-1.79184e-08 2.66407e-09 -0.000118567)
(1.40633e-08 -5.6228e-09 -0.00011876)
(1.67022e-08 3.08254e-09 -0.000118551)
(-1.58093e-08 -4.87877e-09 -0.000118742)
(1.64623e-08 -4.65232e-09 -0.000118753)
(-1.99901e-08 2.35506e-09 -0.000118567)
(-1.50344e-08 -5.07341e-09 -0.000118736)
(1.90204e-08 2.75018e-09 -0.000118549)
(4.12319e-09 3.15684e-09 -0.000126329)
(-5.93401e-09 -1.43462e-09 -0.000126364)
(1.78714e-08 -1.55767e-09 -0.0001262)
(-1.19965e-08 -1.7937e-09 -0.000126337)
(-5.48498e-09 -1.18341e-09 -0.000126356)
(4.97882e-09 8.47791e-10 -0.000126329)
(-1.1395e-08 -2.37026e-09 -0.00012633)
(1.86018e-08 -2.45932e-09 -0.000126197)
(-1.36774e-08 1.82241e-10 -0.000126217)
(1.13518e-08 1.76114e-09 -0.000126356)
(-5.44909e-09 -7.4048e-10 -0.000126319)
(5.52169e-09 2.12683e-09 -0.000126358)
(1.17934e-08 1.38257e-09 -0.000126351)
(-1.69683e-08 1.58233e-09 -0.000126216)
(5.09984e-09 2.22894e-09 -0.000126356)
(-5.19061e-09 -1.44753e-09 -0.000126324)
(1.31813e-08 -4.38944e-09 -0.000118534)
(-1.47015e-08 4.38712e-09 -0.000118726)
(1.62974e-08 3.79648e-09 -0.000118749)
(-1.76263e-08 -3.37702e-09 -0.000118561)
(-1.65334e-08 4.24033e-09 -0.00011873)
(1.67313e-08 -3.41772e-09 -0.000118541)
(4.01266e-09 -2.37754e-09 -0.000126343)
(-3.10281e-09 5.43664e-09 -0.000126382)
(-1.1171e-08 1.8187e-09 -0.000126326)
(1.80967e-08 1.88622e-09 -0.00012619)
(-7.57425e-09 -1.49792e-09 -0.000126381)
(5.67652e-09 -5.13711e-10 -0.000126339)
(-6.08616e-09 3.94228e-09 -0.000118731)
(6.82977e-09 -4.5581e-09 -0.000118794)
(6.0624e-09 4.36569e-09 -0.000118753)
(-6.24373e-09 -3.38278e-09 -0.000118697)
(6.69927e-09 -3.90573e-09 -0.000118793)
(-6.37559e-09 3.86737e-09 -0.000118737)
(5.4972e-09 -5.75672e-09 -0.000118715)
(-5.6861e-09 8.55574e-09 -0.000118782)
(7.23416e-09 1.71006e-09 -0.000118708)
(-6.36764e-09 -5.81779e-09 -0.000118771)
(-6.88995e-09 1.62794e-09 -0.000118777)