/*--------------------------------*- C++ -*----------------------------------*\
| =========                 |                                                 |
| \\      /  F ield         | OpenFOAM: The Open Source CFD Toolbox           |
|  \\    /   O peration     | Version:  2206                                  |
|   \\  /    A nd           | Website:  www.openfoam.com                      |
|    \\/     M anipulation  |                                                 |
\*---------------------------------------------------------------------------*/
FoamFile
{
    version     2.0;
    format      ascii;
    arch        "LSB;label=32;scalar=64";
    class       volScalarField;
    location    "0.1";
    object      nut;
}
// * * * * * * * * * * * * * * * * * * * * * * * * * * * * * * * * * * * * * //

dimensions      [0 2 -1 0 0 0 0];

internalField   nonuniform List<scalar> 
66928
(
1.46366e-06
1.4935e-06
1.49207e-06
1.49193e-06
1.46331e-06
1.49336e-06
1.46407e-06
1.46505e-06
1.5049e-06
1.50494e-06
3.89524e-08
3.84195e-08
2.69e-07
2.63202e-07
9.21782e-08
6.05269e-07
9.05179e-08
4.97631e-07
5.86678e-07
1.50172e-06
1.2121e-06
9.04789e-08
4.97629e-07
1.50181e-06
5.8655e-07
1.21221e-06
3.84051e-08
2.63387e-07
2.70588e-07
3.90689e-08
6.096e-07
9.26313e-08
3.89258e-08
3.90054e-08
3.84817e-08
3.86373e-08
2.68915e-07
2.6317e-07
1.46406e-06
2.70345e-07
2.64336e-07
3.90873e-08
3.90076e-08
3.86706e-08
3.86204e-08
1.46455e-06
2.71174e-07
2.64803e-07
2.7018e-07
2.64108e-07
3.89337e-08
4.57089e-07
9.47883e-07
2.68244e-07
8.52725e-08
8.51219e-08
9.49667e-07
4.57059e-07
4.55509e-07
9.36659e-07
2.62497e-07
8.39889e-08
8.38006e-08
9.38839e-07
4.55404e-07
1.34039e-07
3.47223e-08
3.45075e-08
3.47544e-08
3.45464e-08
1.33788e-07
9.2043e-08
2.2882e-07
2.27437e-07
3.2107e-08
2.21094e-07
3.13979e-08
3.90117e-07
7.8722e-08
6.3808e-08
2.21026e-07
3.13989e-08
7.87285e-08
3.90012e-07
6.37622e-08
4.55092e-07
9.36368e-07
2.6267e-07
8.39607e-08
9.38621e-07
8.37714e-08
4.55144e-07
4.58183e-07
9.49394e-07
2.69859e-07
8.55415e-08
8.53715e-08
9.50915e-07
4.58215e-07
1.33734e-07
3.45271e-08
3.47922e-08
3.45701e-08
3.48297e-08
1.33551e-07
3.8984e-08
9.24566e-08
2.31289e-07
2.3062e-07
3.2457e-08
3.89619e-08
3.8961e-08
3.857e-08
3.85771e-08
1.3386e-07
3.47233e-08
3.44937e-08
3.47405e-08
3.45163e-08
1.33645e-07
4.57776e-07
9.51257e-07
8.52765e-08
2.69691e-07
4.57739e-07
8.54382e-08
9.49908e-07
4.55996e-07
9.41114e-07
8.39879e-08
2.63847e-07
4.56086e-07
8.41674e-08
9.39237e-07
1.33591e-07
3.47955e-08
3.45774e-08
1.34028e-07
3.47296e-08
3.45051e-08
4.58349e-07
8.56019e-08
2.69598e-07
9.48937e-07
8.54422e-08
4.58334e-07
9.5152e-07
4.5659e-07
8.431e-08
2.63717e-07
9.39288e-07
8.41407e-08
4.56464e-07
9.42555e-07
3.90488e-08
3.90625e-08
3.8633e-08
3.8675e-08
1.33086e-07
3.47852e-08
3.45495e-08
1.33796e-07
3.47654e-08
3.45216e-08
4.58992e-07
9.45211e-07
2.70558e-07
8.58511e-08
8.57216e-08
9.4851e-07
4.58807e-07
4.57097e-07
9.35667e-07
2.64318e-07
8.44801e-08
8.43392e-08
9.4041e-07
4.56791e-07
4.58731e-07
8.56017e-08
9.51543e-07
2.70895e-07
4.5879e-07
8.57732e-08
9.47962e-07
4.56774e-07
8.4272e-08
9.42862e-07
2.64705e-07
4.56958e-07
8.44379e-08
9.38883e-07
1.33406e-07
3.47161e-08
3.44678e-08
3.47525e-08
3.45108e-08
1.32853e-07
1.02761e-06
1.46377e-06
1.33603e-06
1.33187e-06
1.33682e-06
1.33301e-06
1.02631e-06
1.02545e-06
1.46351e-06
1.33168e-06
1.33582e-06
1.33279e-06
1.33667e-06
1.02438e-06
1.02596e-06
1.33779e-06
1.33406e-06
1.46386e-06
1.0284e-06
1.33675e-06
1.33281e-06
1.02539e-06
1.46505e-06
1.33569e-06
1.33215e-06
1.33727e-06
1.33428e-06
1.02299e-06
1.50589e-06
1.50587e-06
1.38852e-06
1.24403e-06
6.03125e-07
9.75707e-07
1.24443e-06
9.766e-07
1.38971e-06
1.37887e-06
1.22928e-06
5.85801e-07
9.48358e-07
1.23075e-06
9.50391e-07
1.37844e-06
1.43342e-06
1.21447e-06
1.14512e-06
1.45e-06
1.14732e-06
1.45117e-06
1.43254e-06
1.37864e-06
1.22861e-06
5.85617e-07
9.48033e-07
9.50062e-07
1.23009e-06
1.37816e-06
1.43338e-06
1.21456e-06
1.44997e-06
1.14497e-06
1.45115e-06
1.14717e-06
1.43246e-06
1.39248e-06
1.24595e-06
6.08024e-07
9.82668e-07
1.24638e-06
9.83335e-07
1.39299e-06
1.02912e-06
1.46435e-06
1.33658e-06
1.3328e-06
1.02656e-06
1.33776e-06
1.3345e-06
1.02521e-06
1.46448e-06
1.33812e-06
1.33471e-06
1.02779e-06
1.33654e-06
1.33289e-06
1.50492e-06
1.4926e-06
1.49348e-06
1.46365e-06
1.50714e-06
1.49443e-06
1.49569e-06
1.46523e-06
1.50768e-06
1.49458e-06
1.4962e-06
1.46565e-06
1.50775e-06
1.49459e-06
1.49618e-06
1.46555e-06
1.50775e-06
1.49458e-06
1.49618e-06
1.46557e-06
1.50776e-06
1.49459e-06
1.49619e-06
1.46557e-06
1.50775e-06
1.49459e-06
1.49619e-06
1.46557e-06
1.50776e-06
1.49458e-06
1.49618e-06
1.46556e-06
1.50775e-06
1.49459e-06
1.49619e-06
1.46557e-06
1.50776e-06
1.49458e-06
1.49619e-06
1.46557e-06
1.50776e-06
1.49459e-06
1.49619e-06
1.46557e-06
1.50775e-06
1.49458e-06
1.49619e-06
1.46556e-06
1.50775e-06
1.49459e-06
1.49619e-06
1.46557e-06
1.50776e-06
1.49459e-06
1.49619e-06
1.46557e-06
1.50776e-06
1.49459e-06
1.49618e-06
1.46557e-06
1.50775e-06
1.49459e-06
1.49618e-06
1.46557e-06
1.50775e-06
1.49458e-06
1.49618e-06
1.46558e-06
1.49354e-06
1.49336e-06
1.49484e-06
1.49529e-06
1.46392e-06
1.46474e-06
1.49218e-06
1.49205e-06
1.49373e-06
1.4936e-06
1.49191e-06
1.49422e-06
1.49377e-06
1.46378e-06
1.46502e-06
1.49367e-06
1.49506e-06
1.495e-06
1.46473e-06
1.46525e-06
1.4655e-06
1.49535e-06
1.49559e-06
1.496e-06
1.49603e-06
1.46494e-06
1.46523e-06
1.49414e-06
1.49406e-06
1.4947e-06
1.49464e-06
1.49403e-06
1.49456e-06
1.49448e-06
1.46523e-06
1.46548e-06
1.49556e-06
1.49615e-06
1.49623e-06
1.46533e-06
1.4656e-06
1.46528e-06
1.49591e-06
1.49596e-06
1.49603e-06
1.49604e-06
1.46531e-06
1.46495e-06
1.4946e-06
1.49452e-06
1.49467e-06
1.49458e-06
1.49438e-06
1.49459e-06
1.4945e-06
1.46558e-06
1.46526e-06
1.49614e-06
1.49615e-06
1.49628e-06
1.46522e-06
1.46538e-06
1.46529e-06
1.49592e-06
1.49595e-06
1.49602e-06
1.49608e-06
1.46509e-06
1.46516e-06
1.49457e-06
1.49447e-06
1.49467e-06
1.49457e-06
1.4944e-06
1.49456e-06
1.49451e-06
1.46537e-06
1.46527e-06
1.49618e-06
1.49615e-06
1.49628e-06
1.46524e-06
1.46539e-06
1.46528e-06
1.49592e-06
1.49598e-06
1.49603e-06
1.49605e-06
1.46526e-06
1.46495e-06
1.49457e-06
1.49447e-06
1.49467e-06
1.49457e-06
1.49441e-06
1.49459e-06
1.4945e-06
1.46538e-06
1.46527e-06
1.49618e-06
1.49617e-06
1.49628e-06
1.46523e-06
1.46539e-06
1.46528e-06
1.49592e-06
1.49596e-06
1.49602e-06
1.49608e-06
1.4651e-06
1.46517e-06
1.49457e-06
1.49447e-06
1.49467e-06
1.49457e-06
1.49441e-06
1.49457e-06
1.4945e-06
1.46539e-06
1.46527e-06
1.49618e-06
1.49617e-06
1.49628e-06
1.46524e-06
1.46539e-06
1.46528e-06
1.49592e-06
1.49598e-06
1.49602e-06
1.49604e-06
1.46527e-06
1.46495e-06
1.49457e-06
1.49447e-06
1.49467e-06
1.49456e-06
1.4944e-06
1.49458e-06
1.4945e-06
1.46539e-06
1.46526e-06
1.49618e-06
1.49615e-06
1.49628e-06
1.46523e-06
1.46539e-06
1.46528e-06
1.49592e-06
1.49595e-06
1.49602e-06
1.49608e-06
1.46509e-06
1.46517e-06
1.49457e-06
1.49446e-06
1.49467e-06
1.49457e-06
1.4944e-06
1.49458e-06
1.4945e-06
1.46538e-06
1.46526e-06
1.49618e-06
1.49616e-06
1.49628e-06
1.46523e-06
1.46539e-06
1.46528e-06
1.49592e-06
1.49598e-06
1.49602e-06
1.49604e-06
1.46527e-06
1.46495e-06
1.49457e-06
1.49447e-06
1.49467e-06
1.49457e-06
1.4944e-06
1.49457e-06
1.4945e-06
1.46538e-06
1.46527e-06
1.49617e-06
1.49616e-06
1.49628e-06
1.46523e-06
1.46539e-06
1.46528e-06
1.49592e-06
1.49595e-06
1.49602e-06
1.49608e-06
1.46509e-06
1.46516e-06
1.49457e-06
1.49447e-06
1.49467e-06
1.49457e-06
1.4944e-06
1.49458e-06
1.4945e-06
1.46538e-06
1.46527e-06
1.49618e-06
1.49616e-06
1.49628e-06
1.46524e-06
1.46539e-06
1.46528e-06
1.49592e-06
1.49598e-06
1.49602e-06
1.49604e-06
1.46524e-06
1.46495e-06
1.49457e-06
1.49447e-06
1.49467e-06
1.49457e-06
1.4944e-06
1.49457e-06
1.4945e-06
1.46539e-06
1.46527e-06
1.49618e-06
1.49617e-06
1.49628e-06
1.46523e-06
1.46538e-06
1.46529e-06
1.49592e-06
1.49595e-06
1.49602e-06
1.49607e-06
1.46509e-06
1.46515e-06
1.49457e-06
1.49447e-06
1.49467e-06
1.49457e-06
1.4944e-06
1.49458e-06
1.4945e-06
1.46539e-06
1.46527e-06
1.49618e-06
1.49616e-06
1.49628e-06
1.46524e-06
1.46539e-06
1.46529e-06
1.49592e-06
1.49598e-06
1.49603e-06
1.49604e-06
1.46524e-06
1.46495e-06
1.49457e-06
1.49447e-06
1.49467e-06
1.49457e-06
1.4944e-06
1.49459e-06
1.4945e-06
1.46538e-06
1.46527e-06
1.49618e-06
1.49616e-06
1.49628e-06
1.46524e-06
1.46539e-06
1.46529e-06
1.49592e-06
1.49595e-06
1.49602e-06
1.49608e-06
1.46509e-06
1.46517e-06
1.49457e-06
1.49447e-06
1.49467e-06
1.49457e-06
1.4944e-06
1.49457e-06
1.4945e-06
1.46539e-06
1.46527e-06
1.49618e-06
1.49615e-06
1.49628e-06
1.46524e-06
1.4654e-06
1.46528e-06
1.49592e-06
1.49599e-06
1.49602e-06
1.49604e-06
1.46527e-06
1.46494e-06
1.49457e-06
1.49447e-06
1.49467e-06
1.49457e-06
1.49441e-06
1.49459e-06
1.4945e-06
1.46538e-06
1.46526e-06
1.49618e-06
1.49616e-06
1.49628e-06
1.46524e-06
1.46539e-06
1.46529e-06
1.49592e-06
1.49595e-06
1.49602e-06
1.49608e-06
1.46509e-06
1.46516e-06
1.49457e-06
1.49447e-06
1.49467e-06
1.49457e-06
1.49441e-06
1.49457e-06
1.4945e-06
1.46538e-06
1.46527e-06
1.49618e-06
1.49616e-06
1.49628e-06
1.46524e-06
1.4654e-06
1.49592e-06
1.49598e-06
1.46527e-06
1.49457e-06
1.49447e-06
1.49441e-06
1.49443e-06
1.46537e-06
1.49618e-06
1.49621e-06
1.46522e-06
5.22915e-07
9.20784e-08
5.19971e-07
9.23046e-08
3.90271e-08
3.9075e-08
4.9858e-07
9.05291e-08
4.97692e-07
9.08452e-08
1.50486e-06
1.50497e-06
1.50493e-06
1.50644e-06
1.5063e-06
1.50645e-06
1.50632e-06
1.21223e-06
5.88052e-07
1.50229e-06
1.4931e-06
5.88774e-07
1.50279e-06
1.21768e-06
3.84618e-08
3.86195e-08
1.24496e-06
1.50273e-06
6.0845e-07
1.49371e-06
1.50278e-06
6.10813e-07
1.24521e-06
2.64584e-07
2.69899e-07
1.46379e-06
2.65375e-07
2.71153e-07
5.26501e-07
9.25127e-08
5.24633e-07
9.26761e-08
3.90744e-08
3.90605e-08
4.99269e-07
9.09183e-08
4.9918e-07
9.10162e-08
1.50691e-06
1.50698e-06
1.50693e-06
1.5076e-06
1.50761e-06
1.50759e-06
1.50761e-06
1.21011e-06
5.87628e-07
1.50432e-06
1.49442e-06
1.21336e-06
5.87629e-07
1.50427e-06
3.86019e-08
3.86029e-08
1.24044e-06
1.50476e-06
6.0979e-07
1.49583e-06
1.24104e-06
1.5049e-06
6.11181e-07
2.64553e-07
2.7081e-07
1.4655e-06
2.64685e-07
2.70968e-07
5.26604e-07
9.24116e-08
5.25723e-07
9.24761e-08
3.89359e-08
3.89646e-08
4.97947e-07
9.05282e-08
4.9843e-07
9.04537e-08
1.50751e-06
1.50749e-06
1.50752e-06
1.5077e-06
1.50771e-06
1.50771e-06
1.50772e-06
1.209e-06
5.86087e-07
1.50453e-06
1.49449e-06
1.21275e-06
5.86363e-07
1.5044e-06
3.83884e-08
3.83535e-08
1.23924e-06
1.50534e-06
6.08493e-07
1.49609e-06
1.23965e-06
1.50523e-06
6.09549e-07
2.6349e-07
2.69628e-07
1.46556e-06
2.63788e-07
2.69873e-07
5.26598e-07
9.2325e-08
5.25623e-07
9.24304e-08
3.89013e-08
3.89496e-08
4.97479e-07
9.01871e-08
4.97339e-07
9.03433e-08
1.50759e-06
1.50759e-06
1.5076e-06
1.50772e-06
1.50772e-06
1.50772e-06
1.50773e-06
1.20911e-06
5.85821e-07
1.50455e-06
1.49449e-06
1.21249e-06
5.86514e-07
1.50441e-06
3.82627e-08
3.83267e-08
1.23919e-06
1.50541e-06
6.07683e-07
1.49608e-06
1.23912e-06
1.50528e-06
6.09287e-07
2.63159e-07
2.69098e-07
1.46554e-06
2.63714e-07
2.69689e-07
5.26589e-07
9.22999e-08
5.2562e-07
9.24119e-08
3.89123e-08
3.89566e-08
4.97535e-07
9.0184e-08
4.97462e-07
9.03492e-08
1.50759e-06
1.50759e-06
1.5076e-06
1.50775e-06
1.50773e-06
1.50773e-06
1.50774e-06
1.20908e-06
5.85883e-07
1.50454e-06
1.49449e-06
1.21246e-06
5.86365e-07
1.50441e-06
3.82765e-08
3.83243e-08
1.23912e-06
1.50543e-06
6.07735e-07
1.49608e-06
1.239e-06
1.50529e-06
6.09297e-07
2.63185e-07
2.69106e-07
1.46553e-06
2.63691e-07
2.69701e-07
5.26648e-07
9.23038e-08
5.25663e-07
9.24223e-08
3.89018e-08
3.89522e-08
4.97554e-07
9.01813e-08
4.97431e-07
9.03501e-08
1.5076e-06
1.5076e-06
1.50761e-06
1.50772e-06
1.50773e-06
1.50773e-06
1.50773e-06
1.20907e-06
5.8578e-07
1.50455e-06
1.49448e-06
1.21248e-06
5.86472e-07
1.50441e-06
3.82714e-08
3.83287e-08
1.23922e-06
1.50542e-06
6.07726e-07
1.49609e-06
1.23912e-06
1.50529e-06
6.09298e-07
2.63205e-07
2.69118e-07
1.46554e-06
2.63687e-07
2.69709e-07
5.26544e-07
9.22995e-08
5.25635e-07
9.24114e-08
3.89145e-08
3.8958e-08
4.97562e-07
9.01833e-08
4.97427e-07
9.03497e-08
1.5076e-06
1.5076e-06
1.5076e-06
1.50774e-06
1.50772e-06
1.50772e-06
1.50773e-06
1.20906e-06
5.8589e-07
1.50455e-06
1.49449e-06
1.21248e-06
5.86357e-07
1.50441e-06
3.82764e-08
3.83248e-08
1.2392e-06
1.50542e-06
6.07741e-07
1.49609e-06
1.23913e-06
1.50529e-06
6.09305e-07
2.63202e-07
2.69119e-07
1.46553e-06
2.63687e-07
2.69701e-07
5.26566e-07
9.23034e-08
5.25571e-07
9.24219e-08
3.8901e-08
3.895e-08
4.97559e-07
9.01817e-08
4.97424e-07
9.035e-08
1.50759e-06
1.50759e-06
1.5076e-06
1.50772e-06
1.50772e-06
1.50772e-06
1.50773e-06
1.20906e-06
5.85779e-07
1.50455e-06
1.49448e-06
1.21248e-06
5.86471e-07
1.50441e-06
3.82711e-08
3.83286e-08
1.23886e-06
1.50542e-06
6.07741e-07
1.49608e-06
1.23902e-06
1.50529e-06
6.09301e-07
2.63204e-07
2.69106e-07
1.46553e-06
2.63683e-07
2.69679e-07
5.26601e-07
9.23005e-08
5.25648e-07
9.24123e-08
3.89121e-08
3.89564e-08
4.97562e-07
9.01834e-08
4.97426e-07
9.03496e-08
1.5076e-06
1.5076e-06
1.5076e-06
1.50773e-06
1.50772e-06
1.50772e-06
1.50773e-06
1.20906e-06
5.85889e-07
1.50455e-06
1.49449e-06
1.21248e-06
5.86356e-07
1.50441e-06
3.8276e-08
3.83245e-08
1.23886e-06
1.50542e-06
6.07735e-07
1.49609e-06
1.23894e-06
1.50529e-06
6.09304e-07
2.63199e-07
2.69106e-07
1.46553e-06
2.63685e-07
2.69699e-07
5.2664e-07
9.2304e-08
5.25663e-07
9.24225e-08
3.89019e-08
3.89528e-08
4.97554e-07
9.01809e-08
4.97421e-07
9.03489e-08
1.50759e-06
1.5076e-06
1.5076e-06
1.50773e-06
1.50772e-06
1.50772e-06
1.50773e-06
1.20906e-06
5.85779e-07
1.50455e-06
1.49448e-06
1.21248e-06
5.86473e-07
1.50441e-06
3.82709e-08
3.83281e-08
1.23887e-06
1.50543e-06
6.0774e-07
1.49609e-06
1.23895e-06
1.50529e-06
6.09305e-07
2.63204e-07
2.6912e-07
1.46553e-06
2.63682e-07
2.69718e-07
5.26597e-07
9.22955e-08
5.25641e-07
9.24127e-08
3.89094e-08
3.89532e-08
4.9756e-07
9.01766e-08
4.97426e-07
9.03411e-08
1.5076e-06
1.5076e-06
1.5076e-06
1.50773e-06
1.50772e-06
1.50772e-06
1.50773e-06
1.20906e-06
5.8589e-07
1.50455e-06
1.49449e-06
1.21248e-06
5.86356e-07
1.50441e-06
3.82735e-08
3.83277e-08
1.23912e-06
1.50542e-06
6.07738e-07
1.49609e-06
1.23895e-06
1.50529e-06
6.09303e-07
2.63199e-07
2.69138e-07
1.46553e-06
2.63686e-07
2.69717e-07
5.26598e-07
9.22962e-08
5.25625e-07
9.24129e-08
3.88956e-08
3.89444e-08
4.97558e-07
9.01931e-08
4.97423e-07
9.03568e-08
1.50759e-06
1.5076e-06
1.5076e-06
1.50772e-06
1.50772e-06
1.50772e-06
1.50773e-06
1.20907e-06
5.8578e-07
1.50455e-06
1.49448e-06
1.21248e-06
5.86471e-07
1.50441e-06
3.82774e-08
3.83274e-08
1.23923e-06
1.50543e-06
6.07743e-07
1.49609e-06
1.23916e-06
1.50529e-06
6.09305e-07
2.63204e-07
2.69137e-07
1.46553e-06
2.63686e-07
2.69731e-07
5.26625e-07
9.22987e-08
5.25656e-07
9.24147e-08
3.89067e-08
3.89501e-08
4.97562e-07
9.01845e-08
4.97426e-07
9.03502e-08
1.5076e-06
1.5076e-06
1.5076e-06
1.50773e-06
1.50772e-06
1.50772e-06
1.50773e-06
1.20906e-06
5.85888e-07
1.50455e-06
1.49449e-06
1.21248e-06
5.86354e-07
1.50442e-06
3.82741e-08
3.83244e-08
1.2392e-06
1.50542e-06
6.07744e-07
1.49609e-06
1.23913e-06
1.50529e-06
6.09303e-07
2.63202e-07
2.69134e-07
1.46553e-06
2.63687e-07
2.69717e-07
5.26592e-07
9.2312e-08
5.25626e-07
9.24286e-08
3.88942e-08
3.89457e-08
4.97557e-07
9.01811e-08
4.97423e-07
9.03488e-08
1.5076e-06
1.5076e-06
1.5076e-06
1.50773e-06
1.50772e-06
1.50772e-06
1.50773e-06
1.20906e-06
5.85775e-07
1.50455e-06
1.49449e-06
1.21247e-06
5.8647e-07
1.50441e-06
3.82711e-08
3.83285e-08
1.23892e-06
1.50543e-06
6.07726e-07
1.49609e-06
1.23902e-06
1.50529e-06
6.09291e-07
2.63206e-07
2.69138e-07
1.46554e-06
2.6368e-07
2.69733e-07
5.26547e-07
9.23098e-08
5.25617e-07
9.24222e-08
3.89128e-08
3.8956e-08
4.97561e-07
9.01818e-08
4.97425e-07
9.03487e-08
1.5076e-06
1.5076e-06
1.5076e-06
1.50772e-06
1.50772e-06
1.50772e-06
1.50773e-06
1.20906e-06
5.85889e-07
1.50454e-06
1.49449e-06
1.21248e-06
5.86357e-07
1.50441e-06
3.82761e-08
3.83245e-08
1.23896e-06
1.50542e-06
6.07732e-07
1.49608e-06
1.23911e-06
1.50528e-06
6.09294e-07
2.63194e-07
2.69135e-07
1.46553e-06
2.63678e-07
2.69717e-07
5.26631e-07
9.23122e-08
5.25624e-07
9.24292e-08
3.88967e-08
3.89428e-08
4.97556e-07
9.01817e-08
4.97424e-07
9.0349e-08
1.5076e-06
1.50759e-06
1.5076e-06
1.50773e-06
1.50772e-06
1.50772e-06
1.50773e-06
1.20906e-06
5.85778e-07
1.50455e-06
1.49449e-06
1.21248e-06
5.86481e-07
1.50441e-06
3.82714e-08
3.83273e-08
1.23892e-06
1.50543e-06
6.07753e-07
1.49608e-06
1.23899e-06
1.50529e-06
6.09266e-07
2.63203e-07
2.69138e-07
1.46554e-06
2.6368e-07
2.69732e-07
5.26551e-07
9.23099e-08
5.25642e-07
9.24194e-08
3.89069e-08
3.89556e-08
4.97554e-07
9.01828e-08
4.97439e-07
9.03482e-08
1.5076e-06
1.5076e-06
1.5076e-06
1.50764e-06
1.20906e-06
5.8586e-07
1.50455e-06
1.49449e-06
1.21248e-06
5.86475e-07
1.50441e-06
3.82803e-08
3.83248e-08
1.23889e-06
1.50542e-06
6.07897e-07
1.49608e-06
1.23897e-06
1.50529e-06
6.09233e-07
2.63196e-07
2.69137e-07
1.46553e-06
2.63673e-07
2.69708e-07
5.22977e-07
9.21283e-08
9.24048e-08
5.20039e-07
1.23873e-06
6.04653e-07
1.5025e-06
1.49366e-06
1.50276e-06
1.23791e-06
6.07619e-07
1.23879e-06
6.04412e-07
1.50247e-06
1.49366e-06
6.07337e-07
1.50276e-06
1.2379e-06
5.22695e-07
9.259e-08
5.25154e-07
9.22954e-08
5.22789e-07
9.26716e-08
9.23967e-08
5.25208e-07
1.24005e-06
1.49399e-06
6.09102e-07
1.50451e-06
1.50359e-06
1.23819e-06
6.06648e-07
1.24008e-06
1.49448e-06
6.08976e-07
1.50453e-06
6.06234e-07
1.50364e-06
1.23826e-06
2.68821e-07
2.6494e-07
1.46426e-06
2.70082e-07
2.65318e-07
3.86567e-08
3.8711e-08
3.911e-08
3.90708e-08
1.46473e-06
2.70339e-07
2.64931e-07
2.69736e-07
2.6472e-07
3.8614e-08
3.86472e-08
1.21555e-06
5.86386e-07
1.50177e-06
1.4924e-06
1.50192e-06
1.21653e-06
5.87744e-07
4.98569e-07
9.04962e-08
9.08302e-08
4.97688e-07
1.21558e-06
1.50186e-06
5.86287e-07
1.49228e-06
1.50201e-06
5.8761e-07
1.21658e-06
4.98714e-07
9.10589e-08
4.99325e-07
9.07965e-08
1.21952e-06
1.49289e-06
5.88329e-07
1.5033e-06
1.50235e-06
1.21444e-06
5.87357e-07
4.98701e-07
9.10544e-08
9.07918e-08
4.9929e-07
1.21952e-06
1.49276e-06
1.50336e-06
5.88237e-07
1.50242e-06
5.87238e-07
1.21431e-06
4.99727e-07
9.09969e-08
9.12296e-08
4.99354e-07
1.21325e-06
1.50177e-06
5.87174e-07
1.49223e-06
1.5021e-06
5.88281e-07
1.21767e-06
4.99694e-07
9.07056e-08
9.09937e-08
4.99184e-07
1.2153e-06
1.4938e-06
5.88497e-07
1.50411e-06
5.8825e-07
1.50359e-06
1.20999e-06
4.99498e-07
9.10449e-08
9.1082e-08
4.99335e-07
1.21621e-06
1.49304e-06
1.50382e-06
5.88258e-07
1.50302e-06
5.87658e-07
1.21039e-06
4.99508e-07
9.09862e-08
9.08785e-08
4.99426e-07
2.6335e-07
2.70465e-07
1.46394e-06
2.6446e-07
2.71794e-07
3.91121e-08
3.92459e-08
3.86572e-08
3.86042e-08
1.46447e-06
2.64903e-07
2.72084e-07
2.64223e-07
2.71489e-07
3.92834e-08
3.92482e-08
1.24464e-06
1.50276e-06
6.08395e-07
1.49381e-06
1.50283e-06
6.105e-07
1.24564e-06
5.28094e-07
9.26532e-08
9.3002e-08
5.26426e-07
5.28085e-07
9.26615e-08
9.29727e-08
5.26375e-07
1.24632e-06
1.49424e-06
1.504e-06
6.11371e-07
1.50308e-06
6.0954e-07
1.24112e-06
1.24608e-06
1.49417e-06
1.50403e-06
6.11011e-07
1.50312e-06
6.09252e-07
1.24158e-06
5.27387e-07
9.32159e-08
9.30039e-08
5.28598e-07
5.27375e-07
9.31734e-08
9.29713e-08
5.28636e-07
3.85558e-08
3.86294e-08
3.91232e-08
3.92534e-08
1.46431e-06
2.65138e-07
2.71455e-07
2.64892e-07
2.70842e-07
3.85925e-08
3.85861e-08
3.9289e-08
3.92588e-08
3.9061e-08
3.90817e-08
3.86159e-08
3.86049e-08
2.70697e-07
2.64288e-07
1.46544e-06
2.71267e-07
2.64429e-07
3.90012e-08
3.90385e-08
3.84642e-08
3.8543e-08
1.46557e-06
2.70803e-07
2.63694e-07
2.70674e-07
2.63842e-07
5.26572e-07
9.25901e-08
5.2478e-07
9.26867e-08
1.23879e-06
6.07866e-07
1.5048e-06
1.49562e-06
1.23976e-06
6.09843e-07
1.50495e-06
1.23847e-06
6.07654e-07
1.50478e-06
1.49575e-06
1.23978e-06
6.09498e-07
1.50491e-06
5.25712e-07
9.25635e-08
9.25594e-08
5.2676e-07
5.25802e-07
9.25102e-08
9.25497e-08
5.2674e-07
1.23994e-06
1.49593e-06
6.09746e-07
1.50527e-06
6.08434e-07
1.50519e-06
1.23843e-06
1.23976e-06
1.49598e-06
6.09365e-07
1.50525e-06
6.0794e-07
1.50516e-06
1.2381e-06
2.69823e-07
2.64334e-07
1.46514e-06
2.70314e-07
2.64215e-07
3.85415e-08
3.84393e-08
3.89867e-08
3.90155e-08
1.46534e-06
2.69936e-07
2.63618e-07
2.69694e-07
2.63629e-07
3.83372e-08
3.83705e-08
1.21084e-06
5.87712e-07
1.50381e-06
1.49434e-06
1.21722e-06
5.88242e-07
1.50404e-06
4.99295e-07
9.09221e-08
4.99155e-07
9.09933e-08
1.21092e-06
1.50387e-06
5.87638e-07
1.49429e-06
1.21703e-06
1.50408e-06
5.88161e-07
4.98995e-07
9.07322e-08
9.08401e-08
4.98756e-07
1.21416e-06
1.49462e-06
5.87533e-07
1.50444e-06
5.87501e-07
1.50436e-06
1.21035e-06
4.99035e-07
9.06554e-08
9.08118e-08
4.98722e-07
1.21412e-06
1.49458e-06
1.50445e-06
5.8734e-07
1.50438e-06
5.87406e-07
1.20997e-06
4.98643e-07
9.08487e-08
4.99016e-07
9.06313e-08
1.21033e-06
1.50404e-06
5.87569e-07
1.49421e-06
1.21395e-06
1.50418e-06
5.87836e-07
4.98742e-07
9.08127e-08
4.99118e-07
9.07379e-08
1.21378e-06
1.49449e-06
5.86761e-07
1.5045e-06
5.8685e-07
1.50436e-06
1.20951e-06
4.98313e-07
9.03614e-08
9.04325e-08
4.9796e-07
1.21398e-06
1.49443e-06
1.50446e-06
5.87026e-07
1.5044e-06
5.87041e-07
1.20972e-06
4.98415e-07
9.04567e-08
9.05485e-08
4.98003e-07
2.64389e-07
2.71455e-07
1.46541e-06
2.64534e-07
2.71626e-07
3.92415e-08
3.92072e-08
3.84623e-08
3.8542e-08
1.46555e-06
2.63803e-07
2.70951e-07
2.63949e-07
2.70975e-07
3.90515e-08
3.91524e-08
1.23997e-06
1.50462e-06
6.09521e-07
1.49585e-06
1.2427e-06
1.50489e-06
6.10852e-07
5.28231e-07
9.31025e-08
5.27611e-07
9.30813e-08
5.28263e-07
9.30641e-08
5.27639e-07
9.30634e-08
1.2411e-06
1.496e-06
1.50527e-06
6.10308e-07
1.50507e-06
6.09541e-07
1.23908e-06
1.24085e-06
1.49616e-06
1.50529e-06
6.10075e-07
1.50522e-06
6.0925e-07
1.23926e-06
5.27138e-07
9.26833e-08
9.29081e-08
5.27447e-07
5.27151e-07
9.27029e-08
9.29065e-08
5.27459e-07
3.85333e-08
3.84821e-08
3.92474e-08
3.92135e-08
1.46561e-06
2.64082e-07
2.70327e-07
2.64112e-07
2.70327e-07
3.83791e-08
3.84191e-08
3.90716e-08
3.91604e-08
3.89553e-08
3.89514e-08
3.83975e-08
3.83612e-08
2.70176e-07
2.63089e-07
1.46548e-06
2.70376e-07
2.63032e-07
3.89351e-08
3.89132e-08
3.83266e-08
3.83061e-08
1.46551e-06
2.70211e-07
2.62753e-07
2.69787e-07
2.62477e-07
5.26547e-07
9.23717e-08
5.25787e-07
9.24247e-08
1.239e-06
6.08173e-07
1.50517e-06
1.49593e-06
1.23994e-06
6.09406e-07
1.5052e-06
1.23833e-06
6.07565e-07
1.50516e-06
1.49597e-06
1.23956e-06
6.08959e-07
1.5052e-06
5.25629e-07
9.24467e-08
9.23602e-08
5.266e-07
5.25592e-07
9.23858e-08
9.23071e-08
5.26496e-07
1.24001e-06
1.49601e-06
6.09247e-07
1.50533e-06
6.07864e-07
1.50528e-06
1.23827e-06
1.23963e-06
1.496e-06
6.09119e-07
1.50534e-06
6.07347e-07
1.50529e-06
1.23793e-06
2.69339e-07
2.63083e-07
1.46524e-06
2.69858e-07
2.63226e-07
3.82765e-08
3.83128e-08
3.8942e-08
3.89349e-08
1.46531e-06
2.69681e-07
2.6338e-07
2.69313e-07
2.62689e-07
3.83249e-08
3.8263e-08
1.20964e-06
5.8673e-07
1.50436e-06
1.49461e-06
1.21398e-06
5.86672e-07
1.5044e-06
4.97944e-07
9.04529e-08
4.98399e-07
9.03532e-08
1.20962e-06
1.50433e-06
5.8653e-07
1.49452e-06
1.21358e-06
1.50436e-06
5.86435e-07
4.97647e-07
9.03459e-08
9.02863e-08
4.97568e-07
1.21313e-06
1.49468e-06
5.86199e-07
1.50453e-06
5.85908e-07
1.50449e-06
1.20944e-06
4.97653e-07
9.02682e-08
9.01853e-08
4.97537e-07
1.21307e-06
1.49458e-06
1.50448e-06
5.85995e-07
1.50446e-06
5.85679e-07
1.20905e-06
4.97606e-07
9.01973e-08
4.9768e-07
9.02919e-08
1.20918e-06
1.50435e-06
5.86262e-07
1.4944e-06
1.21326e-06
1.50436e-06
5.86568e-07
4.97601e-07
9.02838e-08
4.97722e-07
9.03366e-08
1.21276e-06
1.49452e-06
5.86494e-07
1.50453e-06
5.8586e-07
1.50443e-06
1.20909e-06
4.97375e-07
9.0296e-08
9.01451e-08
4.97603e-07
1.21283e-06
1.49448e-06
1.50447e-06
5.8642e-07
1.50443e-06
5.85857e-07
1.20918e-06
4.97367e-07
9.02992e-08
9.01805e-08
4.97542e-07
2.632e-07
2.70285e-07
1.46544e-06
2.63153e-07
2.70405e-07
3.89943e-08
3.8968e-08
3.83133e-08
3.82986e-08
1.46549e-06
2.62887e-07
2.70238e-07
2.62602e-07
2.698e-07
3.89492e-08
3.89279e-08
1.23887e-06
1.50519e-06
6.084e-07
1.49617e-06
1.24065e-06
1.50524e-06
6.09432e-07
5.26816e-07
9.24977e-08
5.26349e-07
9.24484e-08
5.26826e-07
9.25369e-08
5.26346e-07
9.24848e-08
1.23997e-06
1.49611e-06
1.50536e-06
6.09287e-07
1.50526e-06
6.07951e-07
1.23841e-06
1.23975e-06
1.49627e-06
1.50539e-06
6.09166e-07
1.50535e-06
6.07867e-07
1.23864e-06
5.25755e-07
9.23837e-08
9.23262e-08
5.26607e-07
5.25755e-07
9.24222e-08
9.23613e-08
5.26616e-07
3.83224e-08
3.83265e-08
3.90176e-08
3.89946e-08
1.4656e-06
2.63671e-07
2.69694e-07
2.63276e-07
2.69283e-07
3.83194e-08
3.82778e-08
3.89724e-08
3.89546e-08
3.89006e-08
3.89318e-08
3.82776e-08
3.83206e-08
2.69653e-07
2.62242e-07
1.46537e-06
2.70205e-07
2.62711e-07
3.89324e-08
3.89012e-08
3.83262e-08
3.82781e-08
1.46544e-06
2.70229e-07
2.62773e-07
2.69676e-07
2.6225e-07
5.26519e-07
9.22776e-08
5.2559e-07
9.23906e-08
1.23899e-06
6.07763e-07
1.50521e-06
1.49593e-06
1.23983e-06
6.09249e-07
1.50522e-06
1.23832e-06
6.07567e-07
1.50522e-06
1.49596e-06
1.23944e-06
6.08971e-07
1.50523e-06
5.25645e-07
9.2415e-08
9.23223e-08
5.26616e-07
5.25593e-07
9.23817e-08
9.2286e-08
5.26523e-07
1.24e-06
1.496e-06
6.09209e-07
1.50535e-06
6.07763e-07
1.50531e-06
1.23827e-06
1.23962e-06
1.49605e-06
6.09033e-07
1.50536e-06
6.07382e-07
1.50533e-06
1.23793e-06
2.69132e-07
2.6291e-07
1.4651e-06
2.69712e-07
2.63416e-07
3.8277e-08
3.83172e-08
3.89483e-08
3.89224e-08
1.46521e-06
2.69689e-07
2.63363e-07
2.69154e-07
2.62926e-07
3.83135e-08
3.82669e-08
1.20907e-06
5.8551e-07
1.5044e-06
1.49457e-06
1.21303e-06
5.86183e-07
1.50441e-06
4.97471e-07
9.01178e-08
4.97306e-07
9.02838e-08
1.20901e-06
1.50435e-06
5.85318e-07
1.49447e-06
1.21261e-06
1.50436e-06
5.86002e-07
4.97328e-07
9.0338e-08
9.02085e-08
4.97643e-07
1.21276e-06
1.49466e-06
5.86239e-07
1.50453e-06
5.8559e-07
1.50449e-06
1.20956e-06
4.97337e-07
9.02942e-08
9.01554e-08
4.97612e-07
1.21268e-06
1.49455e-06
1.50448e-06
5.86099e-07
1.50445e-06
5.85423e-07
1.20919e-06
4.97673e-07
9.01604e-08
4.9747e-07
9.03007e-08
1.20927e-06
1.50435e-06
5.85806e-07
1.49441e-06
1.21292e-06
1.50436e-06
5.86497e-07
4.97641e-07
9.01564e-08
4.97415e-07
9.03004e-08
1.2129e-06
1.4945e-06
5.86419e-07
1.50453e-06
5.85891e-07
1.50443e-06
1.20911e-06
4.97456e-07
9.02854e-08
9.01532e-08
4.97602e-07
1.21296e-06
1.4945e-06
1.50448e-06
5.86464e-07
1.50446e-06
5.8586e-07
1.20922e-06
4.97438e-07
9.02855e-08
9.01571e-08
4.97559e-07
2.62382e-07
2.69667e-07
1.46535e-06
2.62881e-07
2.70289e-07
3.89166e-08
3.8953e-08
3.83287e-08
3.82859e-08
1.46543e-06
2.62962e-07
2.70329e-07
2.62431e-07
2.69757e-07
3.89558e-08
3.89233e-08
1.23863e-06
1.50527e-06
6.07635e-07
1.49619e-06
1.24015e-06
1.50528e-06
6.09142e-07
5.26596e-07
9.22751e-08
5.25608e-07
9.23879e-08
5.26575e-07
9.23086e-08
5.25613e-07
9.24157e-08
1.23998e-06
1.4961e-06
1.50541e-06
6.0932e-07
1.50531e-06
6.07799e-07
1.23832e-06
1.23964e-06
1.49627e-06
1.50541e-06
6.09141e-07
1.50538e-06
6.07677e-07
1.23846e-06
5.25639e-07
9.23836e-08
9.22862e-08
5.26618e-07
5.25593e-07
9.24085e-08
9.23106e-08
5.26582e-07
3.82749e-08
3.83164e-08
3.89375e-08
3.89705e-08
1.46559e-06
2.63707e-07
2.69701e-07
2.63252e-07
2.69163e-07
3.83195e-08
3.82723e-08
3.89696e-08
3.89399e-08
3.88999e-08
3.89304e-08
3.82795e-08
3.83227e-08
2.69679e-07
2.62283e-07
1.46538e-06
2.70219e-07
2.62733e-07
3.89334e-08
3.88994e-08
3.83244e-08
3.82786e-08
1.46544e-06
2.70246e-07
2.6275e-07
2.69684e-07
2.62255e-07
5.26518e-07
9.22743e-08
5.25606e-07
9.23906e-08
1.23892e-06
6.0773e-07
1.50522e-06
1.49593e-06
1.23981e-06
6.09224e-07
1.50523e-06
1.23827e-06
6.07306e-07
1.50523e-06
1.49598e-06
1.23943e-06
6.08882e-07
1.50524e-06
5.25631e-07
9.24114e-08
9.23071e-08
5.26639e-07
5.25583e-07
9.23929e-08
9.2286e-08
5.26546e-07
1.24004e-06
1.49601e-06
6.09207e-07
1.50535e-06
6.07743e-07
1.50531e-06
1.23853e-06
1.23966e-06
1.49601e-06
6.09124e-07
1.50536e-06
6.07313e-07
1.50532e-06
1.23821e-06
2.69137e-07
2.62885e-07
1.46524e-06
2.69822e-07
2.63177e-07
3.826e-08
3.83056e-08
3.89412e-08
3.89305e-08
1.46532e-06
2.69672e-07
2.63352e-07
2.69288e-07
2.62662e-07
3.83165e-08
3.82566e-08
1.20913e-06
5.85585e-07
1.50441e-06
1.49458e-06
1.2132e-06
5.86208e-07
1.50441e-06
4.97529e-07
9.014e-08
4.97426e-07
9.02635e-08
1.20908e-06
1.50436e-06
5.85452e-07
1.49447e-06
1.2128e-06
1.50436e-06
5.86017e-07
4.97341e-07
9.03333e-08
9.0213e-08
4.97596e-07
1.21276e-06
1.49466e-06
5.86217e-07
1.50453e-06
5.85587e-07
1.50449e-06
1.20952e-06
4.97352e-07
9.02824e-08
9.01254e-08
4.97567e-07
1.21269e-06
1.49455e-06
1.50448e-06
5.86054e-07
1.50445e-06
5.85386e-07
1.20915e-06
4.97648e-07
9.01444e-08
4.97438e-07
9.02923e-08
1.20923e-06
1.50436e-06
5.85823e-07
1.49441e-06
1.21291e-06
1.50437e-06
5.86452e-07
4.97616e-07
9.01391e-08
4.974e-07
9.0281e-08
1.21288e-06
1.49453e-06
5.86487e-07
1.50454e-06
5.85893e-07
1.50444e-06
1.20913e-06
4.97458e-07
9.02897e-08
9.01544e-08
4.97624e-07
1.21295e-06
1.49449e-06
1.50448e-06
5.86489e-07
1.50445e-06
5.85821e-07
1.20925e-06
4.97434e-07
9.03019e-08
9.01454e-08
4.97583e-07
2.62474e-07
2.69755e-07
1.46536e-06
2.6291e-07
2.7028e-07
3.89232e-08
3.89522e-08
3.83201e-08
3.82806e-08
1.46544e-06
2.62925e-07
2.70296e-07
2.62426e-07
2.69727e-07
3.8952e-08
3.89206e-08
1.23871e-06
1.50528e-06
6.07626e-07
1.49619e-06
1.23997e-06
1.50529e-06
6.09131e-07
5.26561e-07
9.2279e-08
5.25635e-07
9.239e-08
5.26546e-07
9.23015e-08
5.25598e-07
9.24007e-08
1.23992e-06
1.49611e-06
1.5054e-06
6.09305e-07
1.50531e-06
6.07796e-07
1.23842e-06
1.23974e-06
1.49627e-06
1.50541e-06
6.0912e-07
1.50538e-06
6.07658e-07
1.23852e-06
5.25578e-07
9.23779e-08
9.22849e-08
5.26588e-07
5.25557e-07
9.2396e-08
9.22944e-08
5.26566e-07
3.82738e-08
3.83192e-08
3.89371e-08
3.897e-08
1.46559e-06
2.63732e-07
2.69712e-07
2.63233e-07
2.69172e-07
3.83252e-08
3.82775e-08
3.89689e-08
3.8939e-08
3.89022e-08
3.89337e-08
3.82786e-08
3.83246e-08
2.69704e-07
2.62271e-07
1.46537e-06
2.7024e-07
2.62742e-07
3.89321e-08
3.89025e-08
3.83253e-08
3.82804e-08
1.46544e-06
2.70223e-07
2.62744e-07
2.69693e-07
2.62261e-07
5.26583e-07
9.22879e-08
5.25647e-07
9.24054e-08
1.23902e-06
6.07735e-07
1.50523e-06
1.49593e-06
1.24009e-06
6.09249e-07
1.50523e-06
1.23869e-06
6.07569e-07
1.50523e-06
1.49597e-06
1.23966e-06
6.08987e-07
1.50524e-06
5.25702e-07
9.24159e-08
9.23184e-08
5.2666e-07