/*--------------------------------*- C++ -*----------------------------------*\
| =========                 |                                                 |
| \\      /  F ield         | OpenFOAM: The Open Source CFD Toolbox           |
|  \\    /   O peration     | Version:  2206                                  |
|   \\  /    A nd           | Website:  www.openfoam.com                      |
|    \\/     M anipulation  |                                                 |
\*---------------------------------------------------------------------------*/
FoamFile
{
    version     2.0;
    format      ascii;
    arch        "LSB;label=32;scalar=64";
    class       surfaceScalarField;
    location    "0.1";
    object      phi;
}
// * * * * * * * * * * * * * * * * * * * * * * * * * * * * * * * * * * * * * //

dimensions      [0 3 -1 0 0 0 0];

oriented        oriented;

internalField   nonuniform List<scalar> 
197159
(
-4.13936e-11
-4.55579e-11
2.46285e-08
-2.44898e-08
-2.49485e-11
-2.67842e-11
-8.00655e-12
-4.32569e-11
3.87721e-13
-3.6806e-12
-3.32147e-11
-1.19756e-11
9.37258e-12
3.23721e-11
1.00173e-07
2.35366e-11
5.40421e-12
-1.37116e-11
-4.42188e-11
-1.63295e-11
1.73413e-11
4.14106e-11
-4.53509e-11
4.4122e-11
-4.06763e-11
9.84855e-08
3.88273e-11
4.6439e-11
-4.14723e-12
-2.05335e-11
-1.18376e-11
1.69442e-11
1.96445e-11
-4.50223e-11
4.23813e-11
-2.07632e-11
9.93971e-08
-3.81623e-11
-2.45132e-08
-3.5538e-11
-9.2089e-12
2.46349e-08
-3.03941e-11
-1.03585e-10
-1.58793e-11
-4.66973e-11
-1.37736e-11
-1.19874e-11
2.30594e-11
1.39506e-11
9.92509e-08
-1.28652e-11
2.56762e-11
2.60787e-11
2.44897e-08
4.26543e-11
4.44429e-11
-2.44895e-08
-2.43021e-11
-2.6195e-11
-4.2492e-11
-4.54903e-11
2.4628e-08
-4.52783e-11
9.9778e-08
6.26612e-11
-8.86042e-12
1.00026e-07
-1.01373e-11
3.73118e-12
1.64625e-12
1.03334e-08
-1.034e-08
1.2146e-12
5.44564e-12
1.99074e-12
1.01438e-08
3.64379e-12
5.39155e-12
2.8061e-08
1.45511e-11
-2.80742e-08
-3.09007e-12
1.04519e-11
2.75491e-08
2.12635e-11
-2.75711e-08
-4.33449e-12
4.30967e-12
-1.94529e-08
2.22805e-12
1.94468e-08
1.19669e-12
-3.12311e-12
-2.40478e-08
8.05521e-12
2.40526e-08
1.1759e-11
3.26742e-12
1.90777e-08
2.83634e-12
4.52894e-11
-1.51163e-14
-4.51728e-12
-1.59478e-11
2.29433e-08
1.69457e-11
-2.3732e-08
1.56611e-11
2.37216e-08
-5.89482e-14
6.85624e-12
7.64649e-11
-1.04061e-10
1.05803e-10
-7.56036e-11
9.92697e-08
-1.37529e-13
-2.38632e-08
-9.85611e-12
7.35965e-11
2.38449e-08
1.20168e-11
-2.02151e-12
3.20064e-12
1.90719e-08
2.7505e-12
4.53291e-11
-1.5953e-11
-4.53819e-12
2.29394e-08
7.09087e-12
5.90786e-11
-1.03855e-10
1.05057e-10
-5.80607e-11
1.00324e-07
-1.06438e-11
1.7406e-11
-2.37163e-08
1.55691e-11
2.37059e-08
-2.38605e-08
7.38183e-11
-9.91564e-12
2.38418e-08
5.63978e-12
1.01424e-08
3.48722e-12
2.17175e-11
-2.76295e-08
-4.36114e-12
2.76072e-08
-2.29486e-12
5.74024e-12
1.29558e-11
-2.80138e-08
-2.74154e-12
2.80001e-08
8.92345e-13
-1.03435e-08
1.03368e-08
3.44402e-12
-3.06888e-12
-4.30573e-12
-2.40542e-08
8.61729e-12
2.40587e-08
-1.94635e-08
2.24843e-12
1.94563e-08
2.73825e-12
-1.66091e-12
1.03405e-08
-3.17154e-13
-5.10656e-12
1.56465e-12
1.03347e-08
-1.03411e-08
1.41519e-12
3.39452e-12
-5.56725e-12
1.01551e-08
-2.3239e-12
-3.43955e-12
5.63321e-12
1.0144e-08
-1.01552e-08
1.85178e-12
3.71162e-12
-1.22139e-11
2.6674e-12
2.80752e-08
-6.29924e-12
-2.1135e-11
4.41847e-12
2.75707e-08
-1.04193e-11
2.4628e-08
-2.44896e-08
-2.44864e-11
-2.5975e-11
-4.27476e-11
-4.52679e-11
2.8062e-08
-3.25383e-12
-2.80756e-08
1.29307e-11
5.48139e-12
2.75482e-08
-3.80545e-12
-2.75701e-08
2.13167e-11
1.00677e-11
1.29442e-12
-1.03427e-08
1.27818e-12
1.03362e-08
3.93974e-12
-3.49571e-12
1.0342e-08
-5.57441e-13
-3.17006e-12
5.72001e-12
-1.01552e-08
1.97779e-12
1.01439e-08
3.61578e-12
-5.40002e-12
1.01553e-08
-2.3354e-12
-3.48481e-12
2.44895e-08
2.60902e-11
2.68127e-11
4.17412e-11
4.38574e-11
1.2666e-11
-2.8076e-08
-3.63562e-12
5.94152e-12
2.80623e-08
2.14659e-11
-2.75694e-08
-3.98459e-12
1.00814e-11
2.75475e-08
2.02354e-12
-1.38081e-11
2.80758e-08
-5.55042e-12
4.72808e-12
-2.10148e-11
2.75697e-08
-1.06578e-11
-6.30303e-13
-3.42663e-13
-6.11178e-12
-1.03329e-08
7.14172e-12
-1.4655e-11
2.29872e-08
1.2724e-11
-1.65953e-11
-2.47985e-08
-1.59371e-11
2.47801e-08
2.64172e-11
2.24773e-11
2.14829e-12
-1.20016e-11
-4.63254e-12
-1.86587e-08
8.18805e-12
-2.79653e-12
1.8649e-08
1.22972e-12
2.41444e-12
-2.72995e-12
-2.49242e-11
-1.89058e-11
-1.26063e-11
2.2975e-08
1.70477e-11
1.06129e-11
-1.93151e-11
2.18651e-08
1.36037e-11
-1.61841e-11
-2.3817e-08
-1.96474e-11
2.37941e-08
3.4182e-11
2.95907e-11
4.11961e-12
-2.1334e-11
-1.02583e-11
-1.82151e-08
1.02099e-11
-3.15601e-12
1.82017e-08
2.02486e-12
2.77909e-12
-1.76038e-12
-3.37978e-11
-2.93784e-11
-1.38739e-11
2.18539e-08
1.56658e-11
2.65395e-12
3.63761e-12
2.08911e-08
-8.56892e-09
3.0218e-12
8.56037e-09
2.73654e-12
-8.52817e-09
3.50963e-12
8.51836e-09
3.14833e-12
-3.90223e-12
-3.28721e-12
2.08712e-08
-1.03616e-11
-3.30061e-11
-4.69948e-12
-1.94052e-08
-2.73849e-08
1.26313e-11
7.86019e-12
2.73663e-08
3.19593e-13
-1.43379e-10
4.54906e-11
-2.72596e-08
-3.78085e-11
8.67625e-09
8.88817e-13
-8.66237e-09
-2.13214e-12
-2.84327e-12
6.83683e-12
2.37971e-11
2.67869e-08
2.31468e-12
8.43387e-09
4.37501e-12
-1.29765e-11
3.7375e-11
2.24377e-08
-1.42793e-12
-1.75352e-14
1.76333e-08
2.09483e-12
1.47123e-08
2.02477e-12
-2.93112e-12
6.77283e-12
2.3889e-11
2.67737e-08
2.29135e-12
8.42876e-09
4.30711e-12
-1.45289e-12
1.7629e-08
2.08644e-12
-1.29043e-11
3.72153e-11
2.2428e-08
1.47043e-08
2.04438e-12
-2.01832e-11
1.02141e-11
2.1864e-08
1.31191e-11
-1.53365e-11
-2.4184e-08
-1.94414e-11
3.66254e-11
2.88083e-11
2.41597e-08
-2.12651e-11
4.24262e-12
-1.05338e-11
-1.81968e-08
1.04644e-11
-3.02942e-12
1.81831e-08
1.84511e-12
-3.3421e-11
-2.91431e-11
2.69832e-12
-1.89526e-12
-1.34932e-11
1.58729e-11
2.18526e-08
7.37481e-12
-1.30676e-11
2.29956e-08
1.20992e-11
-1.81874e-11
-2.44212e-08
-1.54925e-11
2.34572e-11
2.33814e-11
2.44028e-08
2.54391e-12
-1.36169e-11
2.15341e-12
-3.65182e-12
-1.86773e-08
7.49597e-12
-2.68062e-12
1.86678e-08
1.86587e-12
2.27963e-12
-1.93825e-12
-3.83846e-11
-3.01552e-12
-1.24894e-11
1.62832e-11
2.29838e-08
3.52388e-12
2.6216e-12
2.08951e-08
-8.52767e-09
3.4891e-12
8.518e-09
3.15002e-12
-8.5701e-09
2.72941e-12
8.56153e-09
3.15787e-12
-3.22473e-12
-3.24911e-12
2.08754e-08
-9.21511e-13
-3.68413e-12
-2.57751e-12
-2.59827e-12
-2.84375e-12
-2.73867e-08
1.9036e-12
6.25764e-12
2.73773e-08
3.49771e-12
-6.34571e-12
-2.10967e-12
-3.3987e-12
8.68363e-09
4.18935e-12
-8.68725e-09
1.33417e-12
1.03339e-08
2.546e-12
1.54781e-12
2.43266e-12
-2.7866e-12
-4.25215e-13
-3.95946e-12
1.0144e-08
5.5287e-12
1.83754e-12
3.76336e-12
-5.50647e-12
-2.37822e-12
-3.39558e-12
3.60669e-12
3.41541e-12
2.08912e-08
-2.08712e-08
-1.25987e-11
-1.43806e-11
-8.56964e-09
2.09525e-12
2.79379e-12
8.56109e-09
3.66892e-12
-8.52818e-09
3.70259e-12
2.54935e-12
8.51841e-09
3.51667e-12
-8.56075e-09
-2.35591e-12
-2.93386e-12
-8.51838e-09
-3.395e-12
-2.9903e-12
1.26033e-11
1.31033e-11
2.08713e-08
-2.29864e-08
-7.76098e-12
1.56713e-11
-1.26012e-11
2.29744e-08
1.66245e-11
1.4342e-11
2.47979e-08
-2.53533e-11
-1.90129e-11
-7.54791e-12
1.86592e-08
2.41645e-12
-2.37108e-12
-2.80138e-12
1.37953e-11
2.80617e-08
5.09866e-12
1.2519e-11
-1.70589e-11
-2.66112e-12
1.86496e-08
1.70686e-12
2.47798e-08
2.60378e-11
2.1583e-11
-2.18649e-08
-1.02289e-11
1.925e-11
-1.34157e-11
2.18537e-08
1.56408e-11
1.97124e-11
2.38167e-08
-3.36183e-11
-2.9804e-11
-1.0635e-11
1.82154e-08
3.09175e-12
-1.74908e-12
-3.9532e-12
2.13582e-11
2.75486e-08
1.01809e-11
1.39675e-11
-1.59308e-11
-2.75567e-12
1.8202e-08
2.06959e-12
2.37937e-08
3.4198e-11
2.94067e-11
-2.08911e-08
-2.50624e-12
-3.636e-12
-3.06112e-12
8.56928e-09
-3.43327e-12
-3.48026e-12
8.52815e-09
-3.21674e-12
3.36521e-12
3.37847e-12
8.13386e-12
2.29856e-08
-1.46121e-11
-1.72672e-11
-1.86597e-08
7.1964e-12
1.865e-08
2.01637e-12
2.43345e-12
-1.32738e-11
-5.85376e-12
-1.55492e-11
-2.47972e-08
2.47793e-08
2.51972e-11
2.11674e-11
-1.92487e-12
2.29739e-08
1.59254e-11
-2.56567e-11
-1.96223e-11
1.06029e-11
2.18647e-08
-1.99775e-11
-1.60656e-11
-1.82156e-08
1.02467e-11
1.8202e-08
2.06233e-12
4.69129e-12
-2.1098e-11
-1.06063e-11
-1.90744e-11
-2.38163e-08
2.37934e-08
3.40001e-11
2.93196e-11
-1.72422e-12
2.18535e-08
1.55054e-11
-3.37823e-11
-2.99247e-11
-1.03356e-08
-3.59217e-12
-6.55404e-13
-2.88532e-12
1.12799e-12
1.3142e-12
3.91365e-12
-1.0144e-08
-5.40305e-12
-2.29191e-12
-3.4809e-12
5.68251e-12
1.89175e-12
3.65343e-12
-2.08912e-08
-2.02126e-12
-3.71698e-12
1.2687e-11
1.30038e-11
2.08712e-08
-3.84052e-12
8.56993e-09
-2.22276e-12
-2.7819e-12
-3.36145e-12
8.52819e-09
-3.50745e-12
-2.91339e-12
-1.25255e-11
-1.45837e-11
2.88073e-12
8.56131e-09
3.72358e-12
2.51949e-12
8.51839e-09
3.56052e-12
8.59811e-12
-1.46302e-11
2.29848e-08
-2.29735e-08
1.24159e-11
-1.7668e-11
-2.47963e-08
-1.56483e-11
2.49456e-11
2.47786e-08
2.11256e-11
1.86258e-12
-1.39473e-11
-2.80622e-08
-5.3404e-12
-1.86603e-08
7.1143e-12
-2.9272e-12
1.86504e-08
2.04948e-12
-1.86504e-08
2.21704e-12
-1.69126e-12
-2.47789e-08
-2.61671e-11
-1.98659e-11
-1.28667e-11
1.58436e-11
2.29733e-08
1.05205e-11
-2.01547e-11
2.18645e-08
-2.18534e-08
1.45546e-11
-1.60339e-11
-2.38161e-08
-1.90594e-11
3.4124e-11
2.37932e-08
2.92246e-11
4.64405e-12
-2.0933e-11
-2.75478e-08
-1.06785e-11
-1.82153e-08
1.04383e-11
-2.64635e-12
1.82016e-08
1.97841e-12
-1.82019e-08
3.48462e-12
-1.76541e-12
-2.37933e-08
-3.38324e-11
-3.00359e-11
-1.31671e-11
1.57118e-11
2.18533e-08
-2.29851e-08
-6.96192e-12
1.55409e-11
1.57271e-11
-8.53777e-12
1.86601e-08
-1.71974e-12
1.46424e-11
2.47967e-08
-2.60497e-11
-1.9833e-11
-3.53211e-12
1.26106e-11
5.72218e-12
-1.76067e-11
2.12682e-12
2.4934e-11
2.10695e-11
-2.18646e-08
-1.02861e-11
1.89777e-11
1.55318e-11
-1.05685e-11
1.82155e-08
-1.74412e-12
2.01159e-11
2.38161e-08
-3.39097e-11
-2.99844e-11
-3.82759e-12
2.13856e-11
1.00369e-11
-1.61222e-11
2.04734e-12
3.39828e-11
2.9246e-11
3.75752e-12
3.36905e-12
2.08911e-08
-8.5701e-09
2.24703e-12
8.56138e-09
3.53849e-12
-8.52816e-09
3.75917e-12
8.51832e-09
3.43714e-12
-2.81548e-12
-2.91523e-12
2.08711e-08
-4.23306e-12
-1.30162e-11
2.33847e-08
2.5111e-11
2.60292e-11
-2.46021e-08
-5.11947e-12
2.46091e-08
-2.34525e-08
-1.21814e-11
2.34558e-08
2.34001e-08
-2.49369e-11
5.21169e-12
2.33764e-08
1.66242e-11
6.81219e-11
-2.44718e-08
-7.20612e-12
2.44682e-08
-2.35679e-08
-9.81948e-12
2.35761e-08
2.33916e-08
-2.33842e-08
4.64047e-12
1.20597e-11
2.33998e-08
4.12182e-12
2.46021e-08
3.22783e-12
1.30064e-11
2.34523e-08
-1.70628e-11
-2.47968e-11
-2.63695e-11
2.46281e-08
-4.21374e-11
-4.50792e-11
2.46091e-08
-1.1733e-12
2.34554e-08
1.67773e-11
-4.67116e-12
-1.34994e-11
2.33839e-08
-2.33994e-08
2.62289e-11
2.67055e-11
-2.46281e-08
4.19077e-11
4.37595e-11
-2.46017e-08
-4.53621e-12
-1.6239e-12
2.46085e-08
-2.3452e-08
-1.1572e-11
1.63277e-11
2.34552e-08
-2.46088e-08
2.43769e-12
-2.34552e-08
-1.74056e-11
2.33993e-08
2.2993e-12
1.01215e-07
5.10777e-11
1.04331e-07
5.06416e-12
2.18175e-11
8.13636e-11
2.46291e-08
-2.98155e-11
-2.45072e-08
2.67395e-11
2.44878e-08
5.69842e-12
-2.06301e-11
-2.45212e-08
-4.84444e-12
2.4534e-08
7.99051e-12
-5.24185e-11
2.46738e-08
9.50741e-12
3.4498e-11
3.35564e-11
2.43683e-08
2.38998e-11
-2.42092e-08
3.40519e-11
2.41763e-08
-1.6148e-11
-1.63916e-11
-2.41305e-08
3.25563e-11
1.40123e-11
2.41234e-08
-1.4323e-11
-2.476e-11
2.4419e-08
5.63402e-11
-1.62485e-11
2.38695e-08
1.00232e-11
-7.47105e-11
1.02811e-13
-2.35536e-08
5.56815e-11
2.35394e-08
-2.44396e-08
-1.60436e-11
-6.48251e-12
2.44316e-08
6.56419e-12
2.38088e-08
3.20614e-11
3.7357e-11
2.43449e-08
-2.71403e-11
-2.42154e-08
3.67491e-11
2.41798e-08
-1.64542e-11
-1.58415e-11
-2.412e-08
3.19777e-11
1.67464e-11
2.41108e-08
-1.74974e-11
2.61275e-11
2.43667e-08
-1.96625e-11
5.53994e-11
2.38705e-08
-7.4339e-11
1.0182e-11
-2.44381e-08
-1.89231e-11
2.44205e-08
-2.35459e-08
5.44949e-11
2.35355e-08
2.38741e-08
1.85159e-11
-5.94016e-12
2.46454e-08
4.87485e-11
-2.44911e-08
2.21029e-11
2.44761e-08
4.38733e-12
-8.69594e-12
-2.4518e-08
-6.24288e-12
2.45335e-08
5.56975e-12
-5.34069e-12
2.47238e-08
-4.85508e-11
2.33842e-08
-4.62441e-12
-1.31145e-11
2.57856e-11
2.65776e-11
4.19715e-11
4.41671e-11
-4.23972e-12
-2.46022e-08
2.4609e-08
-1.84112e-12
-1.1793e-11
-2.34521e-08
2.34552e-08
1.6667e-11
2.33996e-08
2.45839e-12
-1.69762e-11
-2.3384e-08
4.29352e-12
1.15752e-11
-2.42902e-11
-2.59906e-11
-4.27498e-11
-4.55134e-11
4.81448e-12
2.46019e-08
2.24262e-12
1.3364e-11
2.3452e-08
-1.72779e-11
-1.87153e-12
1.63669e-11
-9.03942e-13
1.14549e-12
7.71337e-13
-1.2987e-12
9.97783e-08
-4.43597e-11
-1.13417e-12
1.08851e-12
9.84748e-08
1.54377e-11
4.53195e-11
-1.05687e-11
-4.08431e-11
4.40644e-11
-4.80688e-11
4.11769e-11
-9.8477e-08
-4.99284e-11
5.18319e-13
-2.45403e-12
9.92576e-08
2.79226e-13
4.89668e-11
-2.449e-12
1.4138e-11
1.10828e-11
-1.28794e-11
-1.39713e-11
3.65512e-11
4.92231e-11
3.3647e-11
1.86955e-11
2.45009e-08
-2.4639e-08
3.31613e-13
6.04115e-13
-9.97793e-08
-6.52731e-13
-1.28549e-13
9.97791e-08
-9.84774e-08
-4.40453e-11
-1.35066e-12
-9.61748e-13
9.84773e-08
1.654e-11
4.59862e-11
-1.57297e-11
-4.0627e-11
4.42177e-11
4.12859e-11
-4.52577e-11
-9.92592e-08
-4.85363e-11
4.79769e-13
4.3402e-13
9.92596e-08
1.69269e-12
4.88842e-11
-2.36936e-12
1.42851e-11
1.1209e-11
-1.37642e-11
-1.27735e-11
-2.4639e-08
3.64911e-11
4.9059e-11
3.39208e-11
1.86815e-11
2.45008e-08
-2.20078e-13
7.51691e-13
-9.97787e-08
-5.48556e-13
1.88295e-13
9.97785e-08
-9.84772e-08
-4.45454e-11
-1.14628e-12
-5.48737e-13
9.84749e-08
1.57594e-11
4.53409e-11
-1.02115e-11
-4.04668e-11
4.43185e-11
4.14155e-11
-4.76112e-11
-9.92597e-08
-4.84055e-11
4.56014e-14
8.61299e-14
9.92595e-08
1.80302e-12
4.90716e-11
-2.18727e-12
1.44698e-11
1.14184e-11
-1.36342e-11
-1.24806e-11
-2.46389e-08
3.6328e-11
4.8861e-11
3.41558e-11
1.88144e-11
2.45008e-08
-6.1998e-13
6.83764e-13
-9.97783e-08
-5.4349e-13
4.60733e-13
9.97784e-08
-9.84769e-08
-4.42876e-11
-9.90828e-13
-2.40405e-13
9.84768e-08
1.61124e-11
4.57841e-11
-1.61119e-11
-4.05619e-11
4.42673e-11
4.13413e-11
-4.5186e-11
-9.92591e-08
-4.8399e-11
7.3288e-14
1.61891e-14
9.92592e-08
1.80642e-12
4.90738e-11
-2.18729e-12
1.44401e-11
1.13453e-11
-1.36722e-11
-1.25302e-11
-2.46388e-08
3.63086e-11
4.88726e-11
3.41365e-11
1.88123e-11
2.45007e-08
-6.18588e-13
6.19348e-13
-9.97784e-08
-4.84373e-13
4.70637e-13
9.97784e-08
-9.84773e-08
-4.46585e-11
-9.16725e-13
-1.39011e-13
9.8475e-08
1.55629e-11
4.52439e-11
-1.03768e-11
-4.04917e-11
4.42979e-11
4.13812e-11
-4.7628e-11
-9.92591e-08
-4.84123e-11
7.92907e-14
5.23207e-14
9.92591e-08
1.79354e-12
4.90636e-11
-2.19726e-12
1.44396e-11
1.1341e-11
-1.36757e-11
-1.25316e-11
-2.46388e-08
3.631e-11
4.8876e-11
3.41352e-11
1.88119e-11
2.45007e-08
-5.88807e-13
5.95128e-13
-9.97784e-08
-5.02367e-13
4.76117e-13
9.97784e-08
-9.8477e-08
-4.43244e-11
-9.01117e-13
-2.34305e-13
9.84769e-08
1.61255e-11
4.57436e-11
-1.61011e-11
-4.05663e-11
4.42529e-11
4.13371e-11
-4.519e-11
-9.92591e-08
-4.84152e-11
8.68428e-14
5.33275e-14
9.92592e-08
1.79321e-12
4.90616e-11
-2.19818e-12
1.44393e-11
1.13411e-11
-1.3679e-11
-1.25344e-11
-2.46388e-08
3.63125e-11
4.88804e-11
3.41306e-11
1.88062e-11
2.45007e-08
-5.7327e-13
5.9233e-13
-9.97784e-08
-4.80235e-13
4.59232e-13
9.97784e-08
-9.84773e-08
-4.46906e-11
-8.61289e-13
-1.39929e-13
9.8475e-08
1.55761e-11
4.52194e-11
-1.03664e-11
-4.04913e-11
4.42831e-11
4.13811e-11
-4.76287e-11
-9.92591e-08
-4.84147e-11
8.09824e-14
5.16717e-14
9.92591e-08
1.79543e-12
4.90617e-11
-2.196e-12
1.44403e-11
1.13447e-11
-1.36781e-11
-1.25314e-11
-2.46388e-08
3.63105e-11
4.88777e-11
3.41341e-11
1.88116e-11
2.45007e-08
-5.84454e-13
5.9414e-13
-9.97784e-08
-4.96653e-13
4.68422e-13
9.97784e-08
-9.8477e-08
-4.43163e-11
-9.04549e-13
-2.32377e-13
9.84768e-08
1.61266e-11
4.57515e-11
-1.61e-11
-4.05676e-11
4.42506e-11
4.13296e-11
-4.51891e-11
-9.92591e-08
-4.84163e-11
8.6824e-14
5.6242e-14
9.92591e-08
1.79347e-12
4.90601e-11
-2.19724e-12
1.44396e-11
1.13408e-11
-1.36792e-11
-1.25336e-11
-2.46388e-08
3.63126e-11
4.88802e-11
3.4131e-11
1.88071e-11
2.45007e-08
-5.72547e-13
5.81339e-13
-9.97784e-08
-4.69486e-13
4.57033e-13
9.97784e-08
-9.84773e-08
-4.46897e-11
-8.69119e-13
-1.44896e-13
9.8475e-08
1.55771e-11
4.52205e-11
-1.03659e-11
-4.04895e-11
4.42848e-11
4.13831e-11
-4.76282e-11
-9.92591e-08
-4.84167e-11
9.19424e-14
5.8677e-14
9.92591e-08
1.79375e-12
4.90601e-11
-2.19651e-12
1.44381e-11
1.13378e-11
-1.36794e-11
-1.25365e-11
-2.46388e-08
3.63125e-11
4.88762e-11
3.41355e-11
1.88093e-11
2.45007e-08
-5.80795e-13
5.9041e-13
-9.97784e-08
-4.959e-13
4.72535e-13
9.97784e-08
-9.8477e-08
-4.43026e-11
-9.31949e-13
-2.27748e-13
9.84768e-08
1.61103e-11
4.5765e-11
-1.61105e-11
-4.05684e-11
4.42561e-11
4.13486e-11
-4.51924e-11
-9.92591e-08
-4.84162e-11
9.13075e-14
5.88127e-14
9.92592e-08
1.79357e-12
4.90603e-11
-2.19754e-12
1.44374e-11
1.13387e-11
-1.36808e-11
-1.25362e-11
-2.46388e-08
3.63131e-11
4.88781e-11
3.41324e-11
1.88065e-11
2.45007e-08
-5.38535e-13
5.6459e-13
-9.97779e-08
-4.72606e-13
3.90923e-13
9.97779e-08
-9.84774e-08
-4.46921e-11
-8.49891e-13
-1.53218e-13
9.84751e-08
1.55762e-11
4.52247e-11
-1.03697e-11
-4.04873e-11
4.42794e-11
4.13784e-11
-4.763e-11
-9.92591e-08
-4.84163e-11
8.86745e-14
5.70813e-14
9.92591e-08
1.79433e-12
4.90602e-11
-2.19695e-12
1.44386e-11
1.13427e-11
-1.36809e-11
-1.25332e-11
-2.46388e-08
3.63125e-11
4.88775e-11
3.41339e-11
1.881e-11
2.45007e-08
-5.46894e-13
5.68035e-13
-9.97778e-08
-5.00941e-13
4.59662e-13
9.97779e-08
-9.84765e-08
-4.43379e-11
-9.3857e-13
-2.41446e-13
9.84764e-08
1.6466e-11
4.57596e-11
-1.64181e-11
-4.05666e-11
4.42555e-11
4.13345e-11
-4.51983e-11
-9.92591e-08
-4.84176e-11
9.25205e-14
5.90549e-14
9.92592e-08
1.79364e-12
4.90589e-11
-2.19757e-12
1.44382e-11
1.13403e-11
-1.36832e-11
-1.25355e-11
-2.46388e-08
3.6313e-11
4.88787e-11
3.4132e-11
1.88067e-11
2.45007e-08
-5.43029e-13
5.56867e-13
-9.97778e-08
-4.74182e-13
4.54628e-13
9.97778e-08
-9.84768e-08
-4.467e-11
-8.60598e-13
-1.52491e-13
9.84746e-08
1.58909e-11
4.52394e-11
-1.07153e-11
-4.0489e-11
4.42922e-11
4.13773e-11
-4.76405e-11
-9.92591e-08
-4.8417e-11
8.28474e-14
5.8639e-14
9.92591e-08
1.79478e-12
4.90595e-11
-2.19602e-12
1.44414e-11
1.13425e-11
-1.36798e-11
-1.25317e-11
-2.46388e-08
3.63118e-11
4.88774e-11
3.4134e-11
1.8811e-11
2.45007e-08
-5.5299e-13
5.61173e-13
-9.97778e-08
-4.93958e-13
4.62841e-13
9.97778e-08
-9.84765e-08
-4.43337e-11
-9.14227e-13
-2.44301e-13
9.84764e-08
1.64742e-11
4.57627e-11
-1.64141e-11
-4.05686e-11
4.42581e-11
4.13349e-11
-4.51997e-11
-9.92591e-08
-4.84168e-11
9.03548e-14
5.81275e-14
9.92591e-08
1.79444e-12
4.90591e-11
-2.19615e-12
1.44364e-11
1.13395e-11
-1.36809e-11
-1.25364e-11
-2.46388e-08
3.63128e-11
4.88788e-11
3.41312e-11
1.88073e-11
2.45007e-08
-5.40413e-13
5.47743e-13
-9.97778e-08
-4.61077e-13
4.46858e-13
9.97778e-08
-9.84768e-08
-4.4658e-11
-8.69964e-13
-2.70766e-13
9.84746e-08
1.59079e-11
4.52564e-11
-1.06914e-11
-4.04893e-11
4.42942e-11
4.13769e-11
-4.76378e-11
-9.92591e-08
-4.84212e-11
1.03685e-13
7.36744e-14
9.92591e-08
1.78991e-12
4.90579e-11
-2.199e-12
1.44366e-11
1.13352e-11
-1.36819e-11
-1.25387e-11
-2.46388e-08
3.63131e-11
4.88757e-11
3.41351e-11
1.88099e-11
2.45007e-08
-5.43442e-13
5.52593e-13
-9.97778e-08
-4.68185e-13
4.3189e-13
9.97778e-08
-9.84763e-08
-4.43035e-11
-1.11648e-12
-6.32916e-13
9.84765e-08
1.65236e-11
4.57953e-11
-1.63664e-11
-4.05522e-11
4.42803e-11
4.13527e-11
-4.5184e-11
-9.92592e-08
-4.84467e-11
1.51716e-13
2.67098e-13
9.9259e-08
1.74484e-12
4.90469e-11
-2.20293e-12
1.44339e-11
1.13403e-11
-1.36788e-11
-1.2547e-11
-2.46388e-08
3.63145e-11
4.88764e-11
3.41313e-11
1.8807e-11
2.45007e-08
-5.14825e-13
6.05827e-13
-9.97778e-08
-5.12733e-13
4.27128e-13
9.97778e-08
-9.84766e-08
-4.46081e-11
-1.07906e-12
-5.48914e-13
9.84748e-08
1.60763e-11
4.52405e-11
-1.08404e-11
-4.04788e-11
4.43259e-11
4.14021e-11
-4.76393e-11
-9.92591e-08
-4.83378e-11
-1.7211e-13
3.76258e-13
9.92581e-08
1.37421e-12
4.85943e-11
2.24966e-12
1.44769e-11
1.14045e-11
-1.36285e-11
-1.53471e-11
-2.46388e-08
3.63055e-11
4.88717e-11
3.41455e-11
1.88188e-11
2.45007e-08
4.00336e-12
1.00176e-07
3.25936e-11
8.48315e-12
-3.45638e-11
-1.18982e-11
-4.29765e-11
1.53183e-12
4.38434e-12
1.00202e-07
-3.82683e-12
4.17668e-11
-1.57281e-12
3.2451e-11
8.15172e-12
-8.75664e-12
-3.45931e-11
-1.00199e-07
1.00173e-07
-1.12552e-13
-1.00175e-07
1.23394e-12
-3.25918e-11
-1.08188e-11
3.35176e-11
1.01627e-11
4.30231e-11
1.00199e-07
-5.95722e-14
-1.00201e-07
7.48819e-13
-4.19392e-11
1.57659e-12
1.40735e-12
-3.27554e-11
-1.05008e-11
6.41471e-12
3.38827e-11
2.44727e-11
2.70695e-11
2.44904e-08
-2.46293e-08
-4.64675e-11
2.46292e-08
-2.44903e-08
-2.30264e-11
-2.64676e-11
2.24619e-13
9.84866e-08
-4.08373e-11
4.39906e-11
4.12855e-11
-4.54875e-11
-3.65516e-11
1.34881e-12
1.22888e-12
9.93969e-08
1.22871e-11
3.70074e-11
-1.27375e-11
-2.03527e-11
4.24804e-11
-4.46335e-11
2.00835e-11
9.84864e-08
-1.03855e-12
-9.84865e-08
-1.56644e-12
4.14334e-11
-4.51567e-11
-4.05872e-11
4.41915e-11
3.73968e-11
9.93969e-08
3.31301e-13
-9.93968e-08
4.88547e-14
-3.63768e-11
-1.26658e-11
1.2461e-11
2.02904e-11
-4.43832e-11
4.2976e-11
-2.02017e-11
6.09923e-13
1.29718e-12
9.93953e-08
1.20712e-11
3.73009e-11
-1.26254e-11
-2.08979e-11
4.32362e-11
-4.55738e-11
2.01375e-11
-9.93943e-08
-1.2248e-12
-9.84773e-08
-1.67531e-12
-4.41393e-11
-1.53723e-11
1.34763e-11
4.13514e-11
-4.51858e-11
-4.06049e-11
4.67813e-11
3.74644e-11
9.93951e-08
4.96352e-13
-9.93952e-08
7.2784e-14
-3.63033e-11
-1.23397e-11
1.22195e-11
2.05722e-11
-4.48312e-11
4.33354e-11
-2.05449e-11
3.30569e-11
1.9507e-11
2.44959e-08
-4.90284e-11
2.46333e-08
-2.4496e-08
-3.28055e-11
-1.81115e-11
4.0081e-13
1.92874e-12
9.92919e-08
1.44711e-12
4.9061e-11
-2.35055e-12
1.44928e-11
1.05289e-11
-1.24499e-11
-1.42119e-11
-9.92915e-08
4.58075e-13
-9.92597e-08
1.72033e-13
-4.83526e-11
-2.22854e-12
1.86664e-12
-1.36305e-11
-1.26329e-11
1.43819e-11
1.14354e-11
4.93792e-11
9.92907e-08
3.96775e-13
-9.92907e-08
2.46303e-13
-4.89096e-11
-2.21904e-12
1.7886e-12
-1.38607e-11
-1.2366e-11
1.10043e-11
1.4548e-11
-2.45008e-08
-3.3727e-11
-1.75751e-11
4.21238e-11
4.38224e-11
2.61779e-11
2.64751e-11
2.44894e-08
-4.24218e-11
-4.54152e-11
2.46278e-08
-2.44893e-08
-2.44399e-11
-2.62359e-11
1.68108e-12
1.00173e-07
-2.69169e-12
4.22883e-11
1.39745e-12
3.34536e-11
1.00178e-11
-3.2657e-11
-1.09053e-11
-4.229e-11
5.49279e-13
1.93216e-12
1.00199e-07
-3.31982e-12
4.27107e-11
1.34822e-12
3.37792e-11
9.4859e-12
-3.28691e-11
-1.06133e-11
1.00174e-07
-2.82621e-14
-1.00174e-07
1.62194e-12
-4.21223e-11
1.54528e-12
-2.69739e-12
-3.28453e-11
-1.10204e-11
9.85206e-12
3.32743e-11
4.26628e-11
1.002e-07
2.13615e-13
-1.00199e-07
6.55627e-13
-4.2188e-11
2.16244e-12
-3.08199e-12
-3.31526e-11
-1.09427e-11
9.35462e-12
3.34336e-11
2.54222e-11
2.72789e-11
2.44902e-08
-4.58673e-11
2.46291e-08
-2.449e-08
-2.40111e-11
-2.65512e-11
-1.27398e-12
9.84865e-08
1.73099e-11
4.54222e-11
-1.64046e-11
-4.07006e-11
4.3984e-11
4.12747e-11
-4.531e-11
-3.64929e-11
5.71455e-13
6.29075e-13
9.93972e-08
1.22426e-11
3.73266e-11
-1.27835e-11
-2.02777e-11
4.28039e-11
2.01062e-11
-4.44722e-11
9.84861e-08
-6.67869e-13
-9.84863e-08
-1.08757e-12
-4.3849e-11
-1.64625e-11
1.72293e-11
4.13335e-11
-4.51352e-11
4.40391e-11
-4.05704e-11
3.75211e-11
9.93972e-08
2.49454e-14
-9.93974e-08
-2.38014e-14
-3.63281e-11
-1.25162e-11
1.24634e-11
2.02763e-11
-4.41912e-11
4.30152e-11
-2.00407e-11
4.6053e-13
4.75789e-13
9.93956e-08
1.19777e-11
3.73463e-11
-1.25071e-11
-2.05697e-11
4.32041e-11
-4.48703e-11
2.04198e-11
-1.28405e-12
-9.84772e-08
-1.44234e-12
-4.43553e-11
-1.51249e-11
1.62978e-11
4.14061e-11
-4.51202e-11
-4.04932e-11
4.43126e-11
3.75455e-11
9.93952e-08
-1.28647e-13
-9.93955e-08
2.08996e-14
-3.63431e-11
-1.22651e-11
1.2147e-11
2.06711e-11
-4.45772e-11
4.35066e-11
-2.03191e-11
3.32184e-11
1.90971e-11
2.4496e-08
-4.9056e-11
2.46333e-08
-2.44961e-08
-3.27295e-11
-1.79841e-11
6.1928e-13
4.49318e-13
9.92913e-08
1.62079e-12
4.93476e-11
-2.2853e-12
1.44515e-11
1.07257e-11
-1.24789e-11
-1.40283e-11
8.31878e-14
-9.926e-08
2.432e-13
-4.84289e-11
-2.20576e-12
1.78099e-12
-1.36413e-11
-1.24487e-11
1.44743e-11
1.14167e-11
4.95543e-11
9.9291e-08
1.46312e-13
-9.92913e-08
1.42543e-13
-4.88494e-11
-2.08653e-12
1.80559e-12
-1.38857e-11
-1.21412e-11
1.0989e-11
1.46367e-11
-2.45008e-08
-3.34966e-11
-1.75007e-11
4.20106e-11
4.39252e-11
2.59952e-11
2.65892e-11
2.44893e-08
-4.26268e-11
-4.52274e-11
2.46278e-08
-2.44893e-08
-2.46493e-11
-2.60148e-11
1.19999e-12
1.00174e-07
-2.56639e-12
4.25241e-11
1.66996e-12
3.31948e-11
9.73379e-12
-3.2934e-11
-1.11315e-11
-4.23293e-11
5.50953e-13
2.09287e-12
1.00201e-07
-3.27722e-12
4.21703e-11
-8.4764e-13
3.32945e-11
9.22806e-12
-3.32812e-11
-8.03496e-12
1.00174e-07
5.78605e-13
-1.00174e-07
9.53602e-13
-4.18808e-11
1.80245e-12
-2.3973e-12
-3.30401e-11
-1.12633e-11
9.56992e-12
3.31139e-11
4.30993e-11
1.00199e-07
5.58888e-13
-1.002e-07
6.13575e-13
-4.1957e-11
1.75319e-12
1.50119e-12
-3.32256e-11
-1.09724e-11
5.73466e-12
3.34719e-11
2.46399e-11
2.73963e-11
2.44902e-08
-4.62079e-11
2.4629e-08
-2.449e-08
-2.33487e-11
-2.63259e-11
-9.45014e-13
9.8486e-08
1.70954e-11
4.53354e-11
-1.65905e-11
-4.05319e-11
4.4093e-11
4.13756e-11
-4.50852e-11
-3.63131e-11
-9.24167e-14
-1.41306e-13
9.9397e-08
1.24643e-11
3.75333e-11
-1.251e-11
-2.00124e-11
4.30461e-11
2.03019e-11
-4.41618e-11
9.84859e-08
-7.24203e-13
-9.84859e-08
-4.36527e-13
-4.40532e-11
-1.67402e-11
1.6906e-11
4.13784e-11
-4.50715e-11
4.41151e-11
-4.05409e-11
3.75535e-11
9.93969e-08
-1.35588e-13
-9.93969e-08
-2.71497e-13
-3.62938e-11
-1.24799e-11
1.24918e-11
2.02948e-11
-4.41679e-11
4.30426e-11
-2.00232e-11
-1.07568e-13
-7.13914e-14
9.93951e-08
1.21618e-11
3.75532e-11
-1.22597e-11
-2.03482e-11
4.34707e-11
-4.46016e-11
2.06296e-11
-8.58403e-13
-9.84768e-08
-7.61934e-13
-4.44613e-11
-1.5789e-11
1.29821e-11
4.13826e-11
-4.51093e-11
-4.05258e-11
4.68144e-11
3.7575e-11
9.9395e-08
-8.1603e-14
-9.93951e-08
-1.55894e-13
-3.63101e-11
-1.22157e-11
1.21965e-11
2.05973e-11
-4.46173e-11
4.34473e-11
-2.03732e-11
3.33505e-11
1.92671e-11
2.4496e-08
-4.90843e-11
2.46332e-08
-2.44959e-08
-3.26992e-11
-1.79789e-11
8.77876e-14
-4.68945e-14
9.9291e-08
1.78058e-12
4.95408e-11
-2.11946e-12
1.46496e-11
1.10023e-11
-1.21353e-11
-1.38706e-11
6.27462e-14
-9.92592e-08
9.47371e-14
-4.83878e-11
-2.17402e-12
1.82516e-12
-1.36669e-11
-1.25152e-11
1.44456e-11
1.13455e-11
4.95422e-11
9.92907e-08
6.07224e-14
-9.92908e-08
1.48711e-13
-4.88697e-11
-2.11551e-12
1.75926e-12
-1.38714e-11
-1.21459e-11
1.09824e-11
1.46462e-11
-2.45007e-08
-3.35174e-11
-1.74912e-11
4.18735e-11
4.40712e-11
2.58162e-11
2.67431e-11
2.44893e-08
-4.26297e-11
-4.52155e-11
2.46278e-08
-2.44893e-08
-2.46509e-11
-2.60219e-11
7.14456e-13
1.00174e-07
-2.39454e-12
4.26369e-11
1.81146e-12
3.31168e-11
9.55471e-12
-3.30488e-11
-1.12624e-11
-4.2118e-11
1.09494e-12
1.38014e-12
1.00199e-07
-3.0423e-12
4.29399e-11
1.69017e-12
3.34649e-11
9.05296e-12
-3.32513e-11
-1.09468e-11
1.00174e-07
6.20734e-13
-1.00174e-07
9.29518e-13
-4.18788e-11
1.80596e-12
-2.39398e-12
-3.30431e-11
-1.12688e-11
9.56071e-12
3.31099e-11
4.28201e-11
1.002e-07
7.01411e-13
-1.00199e-07
3.55117e-13
-4.20166e-11
2.19038e-12
-2.8493e-12
-3.33275e-11
-1.1161e-11
9.08363e-12
3.32899e-11
2.51282e-11
2.74487e-11
2.449e-08
-4.57027e-11
2.46291e-08
-2.44901e-08
-2.41409e-11
-2.64215e-11
-5.09704e-13
9.8486e-08
1.68768e-11
4.52127e-11
-1.67606e-11
-4.0548e-11
4.40984e-11
4.13627e-11
-4.50823e-11
-3.62988e-11
-6.27103e-14
-2.74381e-13
9.93969e-08
1.24777e-11
3.75483e-11
-1.2489e-11
-2.00339e-11
4.30234e-11
2.0277e-11
-4.4181e-11
9.84859e-08
-6.46944e-13
-9.8486e-08
-3.72474e-13
-4.40724e-11
-1.67498e-11
1.68878e-11
4.13524e-11
-4.50925e-11
4.40921e-11
-4.05622e-11
3.75534e-11
9.93969e-08
-1.9947e-14
-9.93969e-08
-3.01499e-13
-3.62958e-11
-1.24775e-11
1.24945e-11
2.0265e-11
-4.41909e-11
4.30139e-11
-2.00471e-11
-4.27288e-14
-2.83197e-13
9.93951e-08
1.21938e-11
3.7575e-11
-1.22244e-11
-2.03741e-11
4.34369e-11
-4.46221e-11
2.05876e-11
-9.16364e-13
-9.84772e-08
-7.72833e-13
-4.45459e-11
-1.54125e-11
1.59612e-11
4.13374e-11
-4.51649e-11
-4.05468e-11
4.42561e-11
3.75787e-11
9.93951e-08
-2.42503e-14
-9.93951e-08
-2.75246e-13
-3.63106e-11
-1.22116e-11
1.21986e-11
2.05914e-11
-4.46186e-11
4.34435e-11
-2.03733e-11
3.33507e-11
1.92623e-11
2.44959e-08
-4.90659e-11
2.46332e-08
-2.44959e-08
-3.27203e-11
-1.79764e-11
5.64684e-14
-2.36911e-14
9.92908e-08
1.75227e-12
4.95355e-11
-2.13401e-12
1.46432e-11
1.09734e-11
-1.21535e-11
-1.38796e-11
7.93277e-14
-9.92591e-08
1.36059e-13
-4.84096e-11
-2.19178e-12
1.80356e-12
-1.36787e-11
-1.25225e-11
1.44381e-11
1.1331e-11
4.95373e-11
9.92907e-08
6.38018e-14
-9.92908e-08
1.67676e-13
-4.88746e-11
-2.12028e-12
1.75402e-12
-1.38816e-11
-1.2151e-11
1.09691e-11
1.46408e-11
-2.45007e-08
-3.35185e-11
-1.74912e-11
4.18822e-11
4.40745e-11
2.58216e-11
2.6735e-11
2.44893e-08
-4.25898e-11
-4.52017e-11
2.46278e-08
-2.44893e-08
-2.46704e-11
-2.60353e-11
8.10732e-13
1.00174e-07
-2.40417e-12
4.26262e-11
1.80069e-12
3.31112e-11
9.55624e-12
-3.30419e-11
-1.1262e-11
-4.22205e-11
8.60724e-13
1.87944e-12
1.00201e-07
-3.223e-12
4.22621e-11
-7.36281e-13
3.32256e-11
9.0703e-12
-3.33749e-11
-8.15417e-12
1.00174e-07
5.75304e-13
-1.00174e-07
9.1982e-13
-4.19166e-11
1.82087e-12
-2.26341e-12
-3.30432e-11
-1.12663e-11
9.57142e-12
3.30932e-11
4.3067e-11
1.00199e-07
5.94916e-13
-1.002e-07
5.67526e-13
-4.19695e-11
1.77418e-12
1.52309e-12
-3.32291e-11
-1.09809e-11
5.73402e-12
3.34524e-11
2.4511e-11
2.75076e-11
2.44902e-08
-4.61821e-11
2.4629e-08
-2.44901e-08
-2.33914e-11
-2.63387e-11
-4.97536e-13
9.8486e-08
1.68766e-11
4.52119e-11
-1.67578e-11
-4.05585e-11
4.4088e-11
4.13518e-11
-4.5095e-11
-3.6297e-11
-1.67976e-15
-2.97711e-13
9.9397e-08
1.24827e-11
3.75515e-11
-1.24839e-11
-2.00451e-11
4.30098e-11
2.02614e-11
-4.41916e-11
9.8486e-08
-5.97973e-13
-9.8486e-08
-3.85546e-13
-4.40824e-11
-1.67459e-11
1.68933e-11
4.13625e-11
-4.50978e-11
4.40909e-11
-4.05633e-11
3.7551e-11
9.9397e-08
-3.19456e-16
-9.9397e-08
-2.92582e-13
-3.62975e-11
-1.24783e-11
1.24941e-11
2.02612e-11
-4.41952e-11
4.30087e-11
-2.00513e-11
4.61183e-15
-2.58689e-13
9.93951e-08
1.21916e-11
3.7573e-11
-1.22282e-11