/*--------------------------------*- C++ -*----------------------------------*\
| =========                 |                                                 |
| \\      /  F ield         | OpenFOAM: The Open Source CFD Toolbox           |
|  \\    /   O peration     | Version:  2206                                  |
|   \\  /    A nd           | Website:  www.openfoam.com                      |
|    \\/     M anipulation  |                                                 |
\*---------------------------------------------------------------------------*/
FoamFile
{
    version     2.0;
    format      ascii;
    arch        "LSB;label=32;scalar=64";
    class       volVectorField;
    location    "0.1";
    object      wallShearStress;
}
// * * * * * * * * * * * * * * * * * * * * * * * * * * * * * * * * * * * * * //

dimensions      [0 2 -2 0 0 0 0];

internalField   uniform (0 0 0);

boundaryField
{
    topPatch
    {
        type            calculated;
        value           nonuniform List<vector> 0();
    }
    wall
    {
        type            calculated;
        value           nonuniform List<vector> 
7746
(
(2.47273e-08 -1.05892e-08 -0.000211602)
(-2.74068e-09 1.41444e-08 -0.000211655)
(5.81637e-09 2.35525e-09 -0.00020389)
(2.25217e-09 1.06215e-08 -0.000203964)
(3.28127e-09 -7.53321e-09 -0.000203962)
(-1.24638e-09 -1.08823e-08 -0.000211652)
(8.66568e-09 2.74934e-10 -0.000211564)
(4.23719e-09 -4.43823e-09 -0.000203758)
(-9.03718e-09 -2.20274e-09 -0.00021142)
(-9.19848e-09 9.52427e-09 -0.000211523)
(-1.49359e-09 -7.01926e-09 -0.0002115)
(-2.60883e-09 1.45933e-08 -0.000211657)
(2.44058e-10 5.46757e-09 -0.000211556)
(-2.82849e-08 1.05375e-08 -0.000211378)
(2.40504e-10 9.27046e-09 -0.000211664)
(3.76892e-10 -9.9298e-09 -0.000211507)
(1.06033e-08 -1.18135e-08 -0.000211487)
(2.27045e-09 -7.99518e-09 -0.000203726)
(-1.67728e-10 -4.63984e-09 -0.000204458)
(-6.14991e-09 1.46835e-09 -0.00020433)
(5.18623e-10 -4.3886e-09 -0.000212003)
(-7.57819e-09 -4.26831e-10 -0.000211876)
(-1.2321e-08 -1.10362e-09 -0.000211426)
(-2.2169e-09 6.04325e-09 -0.000203568)
(6.06667e-10 2.96711e-09 -0.000211541)
(-2.62452e-08 8.3867e-09 -0.000211379)
(-3.46164e-09 1.63534e-08 -0.000211652)
(-1.04082e-09 -6.92568e-09 -0.000211504)
(-2.28284e-08 8.20891e-09 -0.000211397)
(-6.10051e-09 8.75972e-09 -0.000211533)
(2.13765e-09 -1.29489e-08 -0.000211511)
(-7.66052e-10 1.11341e-08 -0.000211658)
(-1.06589e-08 -5.04197e-09 -0.000203649)
(-1.68889e-08 1.21568e-08 -0.000203755)
(8.32763e-09 -2.57545e-09 -0.000211424)
(1.31991e-08 1.17638e-08 -0.000211532)
(-6.72244e-09 7.96722e-10 -0.000203759)
(4.01137e-09 6.59791e-09 -0.000203973)
(1.48962e-09 1.26979e-08 -0.000211495)
(4.43348e-10 -8.94752e-09 -0.000211659)
(-1.08109e-08 -1.72364e-09 -0.000203567)
(6.35793e-09 3.97928e-09 -0.000203774)
(9.97318e-09 6.07894e-10 -0.000211413)
(-1.32026e-08 -2.05496e-09 -0.000211573)
(-4.41397e-09 -5.18781e-09 -0.000203782)
(4.97501e-09 3.32201e-09 -0.000203981)
(2.45973e-09 1.39907e-08 -0.000211521)
(-8.79685e-10 -1.07214e-08 -0.000211665)
(-2.21255e-11 -6.50784e-09 -0.000203577)
(6.86526e-09 3.61486e-09 -0.000203772)
(7.0088e-09 -1.40868e-09 -0.000211424)
(-1.13922e-08 -1.28845e-09 -0.000211571)
(-4.40978e-09 -5.475e-09 -0.00020377)
(5.24562e-09 3.02389e-09 -0.000203971)
(1.76787e-09 1.29353e-08 -0.000211504)
(-2.29002e-10 -9.78641e-09 -0.000211652)
(-1.77997e-09 -5.81194e-09 -0.000203573)
(6.61815e-09 3.73021e-09 -0.00020377)
(7.23926e-09 -1.33589e-09 -0.000211416)
(-9.33717e-09 -6.2657e-11 -0.00021157)
(-4.44414e-09 -5.26572e-09 -0.000203769)
(5.06373e-09 3.48531e-09 -0.000203971)
(1.9717e-09 1.3205e-08 -0.000211503)
(-1.70367e-10 -9.70124e-09 -0.000211653)
(-1.8842e-09 -5.77579e-09 -0.000203573)
(5.83881e-09 4.0345e-09 -0.00020377)
(9.17642e-09 -2.50602e-10 -0.000211421)
(-1.04377e-08 -7.75348e-10 -0.000211569)
(-4.60524e-09 -4.87494e-09 -0.000203769)
(5.02525e-09 3.56732e-09 -0.000203971)
(1.94324e-09 1.31419e-08 -0.000211503)
(-2.09241e-10 -9.77179e-09 -0.000211653)
(-2.58808e-09 -5.4972e-09 -0.000203573)
(6.02005e-09 3.95327e-09 -0.00020377)
(7.97602e-09 -9.11036e-10 -0.000211415)
(-8.40213e-09 4.46968e-10 -0.00021157)
(-4.47514e-09 -5.1886e-09 -0.000203769)
(5.09183e-09 3.42011e-09 -0.000203971)
(1.96625e-09 1.32008e-08 -0.000211503)
(-1.7765e-10 -9.71346e-09 -0.000211653)
(-2.31449e-09 -5.61092e-09 -0.000203573)
(5.59743e-09 4.11844e-09 -0.00020377)
(9.91298e-09 1.62106e-10 -0.000211421)
(-1.01819e-08 -6.46688e-10 -0.00021157)
(-4.5239e-09 -5.07e-09 -0.000203769)
(5.12235e-09 3.34553e-09 -0.000203971)
(1.93619e-09 1.31346e-08 -0.000211503)
(-2.09664e-10 -9.77715e-09 -0.000211653)
(-2.6292e-09 -5.48319e-09 -0.000203573)
(6.00186e-09 3.95967e-09 -0.00020377)
(8.0554e-09 -8.69579e-10 -0.000211415)
(-8.36925e-09 4.6619e-10 -0.00021157)
(-4.45365e-09 -5.25033e-09 -0.000203769)
(5.10446e-09 3.37757e-09 -0.000203971)
(1.96628e-09 1.32048e-08 -0.000211503)
(-1.87133e-10 -9.72767e-09 -0.000211653)
(-2.26417e-09 -5.63278e-09 -0.000203573)
(5.5314e-09 4.14204e-09 -0.00020377)
(9.91452e-09 1.62176e-10 -0.000211422)
(-1.02209e-08 -6.67579e-10 -0.00021157)
(-4.51659e-09 -5.09638e-09 -0.000203769)
(5.12797e-09 3.31757e-09 -0.000203971)
(1.93581e-09 1.31423e-08 -0.000211503)
(-2.15079e-10 -9.77595e-09 -0.000211653)
(-2.58972e-09 -5.49567e-09 -0.000203573)
(6.61908e-09 3.89899e-09 -0.000203768)
(7.40895e-09 -1.25653e-09 -0.000211415)
(-9.22109e-09 -6.69335e-10 -0.000211569)
(-4.44313e-09 -5.28079e-09 -0.000203769)
(5.12207e-09 3.3255e-09 -0.000203971)
(1.93901e-09 1.31524e-08 -0.000211503)
(-1.94117e-10 -9.73335e-09 -0.000211653)
(-2.52306e-09 -5.16016e-09 -0.00020357)
(6.23927e-09 4.45285e-09 -0.00020377)
(1.01163e-08 -6.46863e-11 -0.000211424)
(-1.0164e-08 -6.49786e-10 -0.000211572)
(-4.44986e-09 -5.26363e-09 -0.000203769)
(5.18204e-09 3.19632e-09 -0.000203971)
(1.91385e-09 1.31089e-08 -0.000211503)
(-2.41999e-10 -9.83574e-09 -0.000211653)
(-2.967e-09 -5.36326e-09 -0.000203572)
(5.35106e-09 4.19993e-09 -0.000203768)
(8.67811e-09 -1.57185e-09 -0.000211416)
(-8.78474e-09 1.8861e-10 -0.000211569)
(-4.38505e-09 -5.41604e-09 -0.000203769)
(5.19071e-09 3.16492e-09 -0.000203971)
(1.903e-09 1.30854e-08 -0.000211503)
(-2.44789e-10 -9.8348e-09 -0.000211653)
(-2.87175e-09 -5.39099e-09 -0.000203572)
(4.99133e-09 4.34766e-09 -0.000203768)
(9.64739e-09 2.0077e-11 -0.00021142)
(-1.03531e-08 -7.32409e-10 -0.000211568)
(-4.42099e-09 -5.34263e-09 -0.000203769)
(5.21396e-09 3.10142e-09 -0.000203971)
(1.87882e-09 1.30338e-08 -0.000211503)
(-2.52279e-10 -9.85807e-09 -0.000211653)
(-3.0112e-09 -5.32779e-09 -0.000203572)
(5.55886e-09 4.12429e-09 -0.000203768)
(7.52565e-09 -1.15455e-09 -0.000211414)
(-8.88066e-09 1.6558e-10 -0.000211569)
(-4.37408e-09 -5.45561e-09 -0.000203769)
(5.19105e-09 3.15489e-09 -0.000203971)
(1.9231e-09 1.31232e-08 -0.000211503)
(-2.19563e-10 -9.7892e-09 -0.000211653)
(-2.85508e-09 -5.39563e-09 -0.000203572)
(5.07982e-09 4.31013e-09 -0.000203768)
(9.64303e-09 3.26253e-11 -0.00021142)
(-1.03936e-08 -7.55633e-10 -0.000211568)
(-4.43632e-09 -5.30733e-09 -0.000203769)
(5.20689e-09 3.1143e-09 -0.000203971)
(1.86253e-09 1.29962e-08 -0.000211503)
(-1.76325e-10 -9.7137e-09 -0.000211653)
(-3.05712e-09 -5.31149e-09 -0.000203572)
(5.71344e-09 4.06243e-09 -0.000203768)
(7.59792e-09 -1.11398e-09 -0.000211415)
(-9.12418e-09 3.23522e-11 -0.000211568)
(-4.36986e-09 -5.4618e-09 -0.000203769)
(5.20161e-09 3.12783e-09 -0.000203971)
(1.65958e-09 1.2677e-08 -0.000211502)
(3.01291e-10 -8.94349e-09 -0.000211655)
(-2.62572e-09 -5.47364e-09 -0.000203573)
(5.21514e-09 4.28414e-09 -0.000203768)
(9.6212e-09 3.89666e-11 -0.00021142)
(-8.80413e-09 1.11809e-10 -0.00021157)
(-4.40576e-09 -5.33658e-09 -0.00020377)
(5.24102e-09 3.13914e-09 -0.000203971)
(1.40579e-09 1.24908e-08 -0.000211502)
(-2.23317e-10 -9.88149e-09 -0.00021165)
(1.17789e-08 -4.41506e-09 -0.000203647)
(2.2292e-08 1.4328e-08 -0.000203756)
(-6.82443e-09 9.5981e-09 -0.000203757)
(-2.42988e-08 2.91199e-09 -0.000203547)
(2.91576e-09 7.90899e-09 -0.000203753)
(2.96032e-08 4.8774e-09 -0.000203549)
(-7.4521e-10 -9.86713e-09 -0.000211504)
(4.072e-09 1.78236e-08 -0.00021167)
(-6.91619e-09 1.64311e-09 -0.00021156)
(3.2997e-08 1.32004e-08 -0.000211387)
(-1.42278e-09 6.38878e-09 -0.000211659)
(1.58345e-09 -6.40289e-09 -0.00021152)
(-5.13129e-09 3.50171e-09 -0.000203757)
(5.51914e-09 -2.9199e-09 -0.000203978)
(5.46182e-09 2.84099e-09 -0.000203982)
(-5.25594e-09 -2.90125e-09 -0.000203772)
(5.78485e-09 -1.75549e-09 -0.000203989)
(-3.97861e-09 6.04448e-09 -0.000203779)
(5.723e-09 -9.07586e-10 -0.000203764)
(-3.94945e-09 6.95724e-09 -0.000203985)
(4.71456e-09 3.54346e-09 -0.000203759)
(-4.26054e-09 -6.1537e-09 -0.000203983)
(-5.32794e-09 2.03754e-09 -0.00020398)
(5.5693e-09 -2.17661e-09 -0.000203783)
(-5.54935e-09 -1.6743e-09 -0.000203991)
(4.93845e-09 3.50365e-09 -0.000203786)
(-1.12704e-08 -1.21093e-09 -0.000211415)
(1.01109e-08 2.37252e-10 -0.000211577)
(9.35646e-10 -8.00826e-09 -0.000211669)
(2.75148e-09 1.44264e-08 -0.00021151)
(1.14815e-08 1.07993e-09 -0.000211593)
(-9.22447e-09 -1.74695e-10 -0.000211432)
(-5.28966e-09 4.21051e-09 -0.000203558)
(5.80489e-09 -4.44591e-09 -0.000203773)
(5.218e-09 4.25713e-09 -0.000203553)
(-3.032e-09 -5.57491e-09 -0.000203772)
(6.45364e-09 -4.01312e-09 -0.00020379)
(-1.82579e-09 5.53875e-09 -0.000203578)
(-6.59039e-09 -3.8614e-09 -0.000203791)
(4.72394e-09 4.40789e-09 -0.000203579)
(-7.38806e-10 1.00977e-08 -0.000211494)
(1.2366e-09 -1.20686e-08 -0.00021166)
(1.25776e-08 -1.86506e-09 -0.00021141)
(-6.11658e-09 -2.03649e-09 -0.000211579)
(-6.89311e-10 -7.67696e-09 -0.000211664)
(-1.07318e-09 1.11847e-08 -0.000211513)
(-1.05547e-08 6.73369e-10 -0.000211596)
(1.44511e-08 -3.04729e-09 -0.000211435)
(-1.60801e-08 4.2302e-09 -0.000211417)
(1.16589e-08 -1.38193e-09 -0.000211572)
(2.13255e-09 -1.33143e-08 -0.000211515)
(-4.23739e-10 9.88405e-09 -0.000211662)
(1.2717e-08 -2.09608e-09 -0.000211569)
(-7.21287e-09 -1.0931e-09 -0.000211423)
(2.61645e-10 8.67563e-09 -0.000211653)
(1.90089e-09 -1.33652e-08 -0.000211508)
(4.82132e-09 -4.16057e-09 -0.000203559)
(-8.65902e-09 3.17934e-09 -0.000203768)
(8.29307e-09 3.06106e-09 -0.000203774)
(-5.30855e-10 -6.22626e-09 -0.000203577)
(-8.32701e-09 3.0465e-09 -0.00020377)
(-1.5597e-09 -6.91214e-09 -0.000203571)
(-4.01387e-09 -1.73159e-08 -0.000211505)
(4.40769e-10 9.85024e-09 -0.000211647)
(-1.25163e-08 -1.85414e-09 -0.000211575)
(5.78458e-09 -1.85381e-09 -0.000211421)
(3.71111e-10 1.00506e-08 -0.000211646)
(-3.34261e-09 -1.57977e-08 -0.000211497)
(-4.05893e-09 6.25004e-09 -0.000203788)
(4.76625e-09 -3.82458e-09 -0.000203985)
(5.39381e-09 2.49091e-09 -0.000203973)
(-4.55114e-09 -5.39488e-09 -0.000203775)
(4.8855e-09 -3.56893e-09 -0.000203976)
(-4.77622e-09 4.78653e-09 -0.00020378)
(3.76952e-09 -7.62671e-09 -0.000203775)
(-5.15058e-09 2.92153e-09 -0.00020397)
(3.87385e-09 7.37438e-09 -0.000203786)
(-4.98043e-09 -3.37429e-09 -0.000203978)
(-5.5495e-09 2.29638e-09 -0.00020397)
(3.96996e-09 -6.66094e-09 -0.000203765)
(-4.89834e-09 -3.74159e-09 -0.000203977)
(4.50772e-09 5.18421e-09 -0.000203775)
(-8.75169e-09 2.76801e-10 -0.000211445)
(1.07217e-08 1.08274e-09 -0.000211585)
(-4.59404e-10 -1.01063e-08 -0.000211655)
(1.30936e-09 1.22568e-08 -0.000211511)
(1.0211e-08 6.84465e-10 -0.000211576)
(-9.73603e-09 -2.15669e-11 -0.000211432)
(-2.59266e-09 5.46909e-09 -0.000203592)
(5.78366e-09 -3.96834e-09 -0.000203783)
(1.43011e-09 6.0326e-09 -0.000203592)
(-6.79306e-09 -3.57491e-09 -0.000203783)
(5.619e-09 -4.13208e-09 -0.000203775)
(-2.87798e-09 5.56807e-09 -0.00020358)
(-5.3524e-09 -4.23756e-09 -0.000203775)
(2.2646e-09 5.8036e-09 -0.00020358)
(-2.68759e-09 1.49538e-08 -0.000211511)
(-1.2354e-10 -8.84392e-09 -0.000211651)
(8.86972e-09 3.00369e-10 -0.000211446)
(-1.15805e-08 1.52866e-09 -0.000211584)
(2.57912e-10 -9.78166e-09 -0.000211649)
(-1.87373e-09 1.30854e-08 -0.0002115)
(-1.00479e-08 5.71545e-10 -0.000211576)
(9.72192e-09 -1.20422e-11 -0.000211431)
(-7.4099e-09 -1.0514e-09 -0.00021142)
(1.14022e-08 -1.32886e-09 -0.000211567)
(2.26144e-09 -1.38485e-08 -0.000211501)
(-1.25045e-11 9.43083e-09 -0.000211651)
(1.02746e-08 -7.68529e-10 -0.000211566)
(-8.93901e-09 -1.83196e-10 -0.000211418)
(7.81055e-11 9.183e-09 -0.000211651)
(2.13e-09 -1.34275e-08 -0.0002115)
(6.2138e-11 -6.47732e-09 -0.000203572)
(-6.14469e-09 3.9372e-09 -0.000203768)
(6.12749e-09 3.91666e-09 -0.000203771)
(-1.70094e-09 -5.83919e-09 -0.000203573)
(-8.20295e-09 3.00162e-09 -0.000203764)
(2.36889e-09 -5.66335e-09 -0.00020357)
(-3.14005e-09 -1.49838e-08 -0.000211498)
(4.05712e-10 1.0523e-08 -0.000211652)
(-1.46183e-08 -3.21908e-09 -0.000211569)
(9.1267e-09 -2.13914e-11 -0.000211422)
(-2.17299e-09 5.4214e-09 -0.000211649)
(-1.51725e-09 -1.22603e-08 -0.000211502)
(-4.594e-09 5.09868e-09 -0.000203773)
(4.93825e-09 -3.73697e-09 -0.000203973)
(5.35465e-09 2.77252e-09 -0.000203971)
(-4.36784e-09 -5.42048e-09 -0.000203768)
(4.98051e-09 -3.50861e-09 -0.000203974)
(-4.53125e-09 5.02662e-09 -0.000203771)
(3.80266e-09 -6.80474e-09 -0.000203767)
(-5.41785e-09 2.63355e-09 -0.000203971)
(4.56246e-09 5.00193e-09 -0.000203774)
(-4.74577e-09 -4.22753e-09 -0.000203976)
(-5.59292e-09 1.87102e-09 -0.00020397)
(4.40099e-09 -5.33168e-09 -0.000203768)
(-4.99908e-09 -3.46834e-09 -0.000203976)
(4.62961e-09 4.75416e-09 -0.000203774)
(-9.99557e-09 -3.12721e-10 -0.000211425)
(9.98937e-09 4.79272e-10 -0.000211574)
(-1.42123e-10 -9.6563e-09 -0.000211653)
(1.96536e-09 1.31494e-08 -0.000211501)
(9.91477e-09 4.54492e-10 -0.000211574)
(-1.03633e-08 -5.5339e-10 -0.000211424)
(-3.06032e-09 5.35917e-09 -0.000203574)
(5.73085e-09 -4.16332e-09 -0.000203773)
(3.38156e-09 5.24643e-09 -0.000203575)
(-5.39062e-09 -4.31428e-09 -0.000203773)
(5.44197e-09 -4.2621e-09 -0.000203773)
(-2.9794e-09 5.36338e-09 -0.000203573)
(-5.07099e-09 -4.40178e-09 -0.000203774)
(3.25274e-09 5.25324e-09 -0.000203573)
(-1.64748e-09 1.25132e-08 -0.0002115)
(2.75486e-10 -9.83277e-09 -0.000211648)
(1.06598e-08 -6.85472e-10 -0.000211426)
(-1.00044e-08 4.61213e-10 -0.000211575)
(5.12811e-11 -9.39579e-09 -0.000211649)
(-1.74075e-09 1.27171e-08 -0.000211498)
(-9.91777e-09 4.38288e-10 -0.000211575)
(1.08248e-08 -7.93124e-10 -0.000211425)
(-9.51315e-09 9.43389e-11 -0.000211418)
(1.0583e-08 -8.80757e-10 -0.000211565)
(2.07875e-09 -1.33939e-08 -0.0002115)
(-2.05732e-10 9.79183e-09 -0.000211651)
(1.00682e-08 -6.4895e-10 -0.000211566)
(-9.46277e-09 1.0615e-10 -0.000211417)
(-7.5074e-11 9.4761e-09 -0.000211651)
(1.94653e-09 -1.3094e-08 -0.0002115)
(-9.67079e-10 -6.87467e-09 -0.000203564)
(-6.33496e-09 3.90474e-09 -0.000203766)
(6.14202e-09 3.91552e-09 -0.00020377)
(-1.68809e-09 -5.83349e-09 -0.000203572)
(-6.21348e-09 3.84421e-09 -0.000203766)
(1.34922e-09 -5.92468e-09 -0.000203568)
(-4.23743e-09 -1.72381e-08 -0.000211499)
(9.59447e-10 1.09713e-08 -0.000211647)
(-9.81849e-09 -4.19867e-10 -0.000211572)
(9.88531e-09 3.1048e-10 -0.000211418)
(8.91186e-10 1.09894e-08 -0.000211646)
(-2.75735e-09 -1.46414e-08 -0.000211498)
(-4.53253e-09 5.10485e-09 -0.000203772)
(5.0116e-09 -3.55952e-09 -0.000203974)
(5.2092e-09 3.14095e-09 -0.000203971)
(-4.56121e-09 -4.92512e-09 -0.000203768)
(5.03096e-09 -3.40916e-09 -0.000203974)
(-4.4677e-09 5.17316e-09 -0.000203772)
(3.67031e-09 -7.27683e-09 -0.000203768)
(-4.93335e-09 3.64424e-09 -0.00020397)
(4.42967e-09 5.3452e-09 -0.000203774)
(-4.85588e-09 -3.93678e-09 -0.000203976)
(-5.28509e-09 2.91084e-09 -0.00020397)
(4.22909e-09 -5.92887e-09 -0.000203766)
(-5.02854e-09 -3.4179e-09 -0.000203976)
(4.55026e-09 4.95875e-09 -0.000203774)
(-1.02388e-08 -4.93283e-10 -0.000211425)
(9.80234e-09 3.72533e-10 -0.000211574)
(-1.77702e-10 -9.73952e-09 -0.000211654)
(2.00291e-09 1.32083e-08 -0.000211502)
(9.7816e-09 3.80101e-10 -0.000211575)
(-1.05361e-08 -6.49102e-10 -0.000211425)
(-3.2472e-09 5.2447e-09 -0.000203574)
(5.59115e-09 -4.22765e-09 -0.000203773)
(3.42559e-09 5.19021e-09 -0.000203574)
(-5.64348e-09 -4.21392e-09 -0.000203773)
(5.3072e-09 -4.31511e-09 -0.000203773)
(-3.04428e-09 5.33587e-09 -0.000203573)
(-5.25623e-09 -4.32937e-09 -0.000203774)
(2.87661e-09 5.40037e-09 -0.000203574)
(-1.89877e-09 1.29764e-08 -0.0002115)
(1.5463e-10 -9.60696e-09 -0.000211649)
(1.06769e-08 -7.24349e-10 -0.000211426)
(-1.01313e-08 5.3842e-10 -0.000211575)
(4.11466e-11 -9.38965e-09 -0.000211649)
(-1.8086e-09 1.28478e-08 -0.000211498)
(-1.00471e-08 5.09539e-10 -0.000211575)
(1.05947e-08 -6.58656e-10 -0.000211425)
(-9.71135e-09 2.0626e-10 -0.000211418)
(1.00945e-08 -6.1744e-10 -0.000211565)
(1.92335e-09 -1.31098e-08 -0.0002115)
(-2.68521e-10 9.9016e-09 -0.00021165)
(9.50082e-09 -3.37375e-10 -0.000211565)
(-1.0024e-08 4.12091e-10 -0.000211417)
(9.40614e-12 9.31001e-09 -0.000211651)
(1.91874e-09 -1.30371e-08 -0.0002115)
(1.66159e-09 -5.87129e-09 -0.000203568)
(-5.4657e-09 4.21241e-09 -0.000203766)
(5.31686e-09 4.23884e-09 -0.00020377)
(-2.57367e-09 -5.49551e-09 -0.000203572)
(-7.51077e-09 3.28891e-09 -0.000203763)
(2.93728e-09 -5.43806e-09 -0.000203568)
(-2.682e-09 -1.41478e-08 -0.000211498)
(6.4817e-10 1.09555e-08 -0.000211651)
(-1.39673e-08 -2.85132e-09 -0.000211568)
(9.86391e-09 3.84484e-10 -0.000211421)
(-2.19032e-09 5.39573e-09 -0.000211648)
(-1.33366e-09 -1.19475e-08 -0.000211502)
(-4.49756e-09 5.19843e-09 -0.000203772)
(4.98377e-09 -3.63122e-09 -0.000203974)
(5.28534e-09 2.93965e-09 -0.000203971)
(-4.52474e-09 -5.02212e-09 -0.000203768)
(4.97278e-09 -3.51287e-09 -0.000203974)
(-4.49292e-09 5.11517e-09 -0.000203772)
(4.03369e-09 -6.24255e-09 -0.000203766)
(-5.26515e-09 2.99494e-09 -0.00020397)
(4.42432e-09 5.349e-09 -0.000203774)
(-4.82568e-09 -4.02395e-09 -0.000203976)
(-5.60388e-09 1.86463e-09 -0.000203969)
(4.54165e-09 -4.99301e-09 -0.000203767)
(-5.00493e-09 -3.4483e-09 -0.000203976)
(4.57401e-09 4.91916e-09 -0.000203774)
(-1.03504e-08 -5.49869e-10 -0.000211425)
(9.70816e-09 3.27693e-10 -0.000211574)
(-1.38698e-10 -9.64031e-09 -0.000211653)
(1.95361e-09 1.31252e-08 -0.000211502)
(9.77757e-09 3.81743e-10 -0.000211575)
(-1.06122e-08 -6.85681e-10 -0.000211425)
(-3.27975e-09 5.2351e-09 -0.000203574)
(5.40091e-09 -4.29425e-09 -0.000203773)
(3.28819e-09 5.24251e-09 -0.000203574)
(-5.425e-09 -4.30134e-09 -0.000203773)
(5.3175e-09 -4.30866e-09 -0.000203773)
(-3.2621e-09 5.24958e-09 -0.000203573)
(-5.1391e-09 -4.36871e-09 -0.000203774)
(3.20577e-09 5.27237e-09 -0.000203573)
(-1.88051e-09 1.29265e-08 -0.0002115)
(1.49765e-10 -9.60622e-09 -0.000211649)
(1.05991e-08 -6.89963e-10 -0.000211426)
(-1.00486e-08 4.84795e-10 -0.000211575)
(1.92645e-11 -9.33668e-09 -0.000211649)
(-1.83683e-09 1.28921e-08 -0.000211498)
(-9.94629e-09 4.61879e-10 -0.000211575)
(1.07931e-08 -7.67227e-10 -0.000211425)
(-1.02409e-08 5.03633e-10 -0.000211417)
(1.00358e-08 -5.82705e-10 -0.000211565)
(2.07197e-09 -1.33478e-08 -0.0002115)
(-1.63592e-10 9.72717e-09 -0.000211651)
(9.6013e-09 -4.11623e-10 -0.000211566)
(-9.9421e-09 3.62021e-10 -0.000211417)
(-7.71704e-12 9.36013e-09 -0.000211651)
(1.99363e-09 -1.31754e-08 -0.0002115)
(-2.13688e-10 -6.56756e-09 -0.000203564)
(-5.3736e-09 4.27706e-09 -0.000203765)
(5.64927e-09 4.09176e-09 -0.00020377)
(-2.16359e-09 -5.65451e-09 -0.000203572)
(-5.33712e-09 4.19065e-09 -0.000203766)
(2.35619e-09 -5.53986e-09 -0.000203568)
(-4.34105e-09 -1.74152e-08 -0.000211498)
(7.05974e-10 1.05333e-08 -0.000211647)
(-8.94153e-09 7.61166e-11 -0.000211573)
(1.08393e-08 8.38911e-10 -0.000211418)
(6.29157e-10 1.05354e-08 -0.000211646)
(-3.02432e-09 -1.51043e-08 -0.000211498)
(-4.53109e-09 5.11259e-09 -0.000203772)
(4.99875e-09 -3.59111e-09 -0.000203974)
(5.27748e-09 2.96586e-09 -0.000203971)
(-4.52115e-09 -5.03407e-09 -0.000203768)
(5.00432e-09 -3.46392e-09 -0.000203974)
(-4.48766e-09 5.13202e-09 -0.000203772)
(3.61654e-09 -7.41232e-09 -0.000203767)
(-5.11996e-09 3.19311e-09 -0.00020397)
(4.41984e-09 5.3628e-09 -0.000203774)
(-4.81696e-09 -4.03195e-09 -0.000203976)
(-5.46572e-09 2.46876e-09 -0.00020397)
(4.02669e-09 -6.42592e-09 -0.000203766)
(-4.99662e-09 -3.49372e-09 -0.000203976)
(4.57175e-09 4.91656e-09 -0.000203774)
(-1.03311e-08 -5.41309e-10 -0.000211425)
(9.73217e-09 3.37737e-10 -0.000211574)
(-1.90233e-10 -9.75286e-09 -0.000211653)
(1.98366e-09 1.31825e-08 -0.000211502)
(9.74941e-09 3.65854e-10 -0.000211575)
(-1.05855e-08 -6.70917e-10 -0.000211425)
(-3.25308e-09 5.24312e-09 -0.000203574)
(5.53536e-09 -4.24732e-09 -0.000203773)
(3.28971e-09 5.24132e-09 -0.000203574)
(-5.58763e-09 -4.23475e-09 -0.000203773)
(5.24624e-09 -4.33503e-09 -0.000203773)
(-3.13974e-09 5.3018e-09 -0.000203573)
(-5.16108e-09 -4.36811e-09 -0.000203774)
(3.02016e-09 5.34697e-09 -0.000203574)
(-1.91516e-09 1.30034e-08 -0.0002115)
(1.68129e-10 -9.63574e-09 -0.000211648)
(1.0611e-08 -6.90371e-10 -0.000211426)
(-1.01271e-08 5.30864e-10 -0.000211575)
(7.73388e-11 -9.45484e-09 -0.000211649)
(-1.78513e-09 1.27896e-08 -0.000211498)
(-9.97294e-09 4.68938e-10 -0.000211575)
(1.0625e-08 -6.79078e-10 -0.000211425)
(-1.00619e-08 3.78508e-10 -0.000211417)
(9.65438e-09 -3.86202e-10 -0.000211564)
(2.00549e-09 -1.32443e-08 -0.0002115)
(-1.84945e-10 9.77052e-09 -0.000211651)
(9.32296e-09 -2.40814e-10 -0.000211565)
(-1.04202e-08 6.28974e-10 -0.000211416)
(5.79541e-11 9.22631e-09 -0.000211651)
(2.00604e-09 -1.31905e-08 -0.0002115)
(2.39981e-09 -5.58149e-09 -0.000203569)
(-5.24014e-09 4.28871e-09 -0.000203767)
(5.22816e-09 4.2667e-09 -0.00020377)
(-2.83409e-09 -5.38808e-09 -0.000203572)
(-7.47616e-09 3.29303e-09 -0.000203763)
(3.06438e-09 -5.38808e-09 -0.000203569)
(-2.90819e-09 -1.45448e-08 -0.000211498)
(5.99612e-10 1.08537e-08 -0.000211652)
(-1.38726e-08 -2.80445e-09 -0.000211568)
(1.00686e-08 4.76714e-10 -0.000211421)
(-2.1905e-09 5.37668e-09 -0.000211648)
(-1.36007e-09 -1.20112e-08 -0.000211502)
(-4.50842e-09 5.16644e-09 -0.000203772)
(4.98653e-09 -3.63699e-09 -0.000203974)
(5.32334e-09 2.84027e-09 -0.000203971)
(-4.48348e-09 -5.12574e-09 -0.000203768)
(4.98336e-09 -3.49007e-09 -0.000203974)
(-4.50744e-09 5.08071e-09 -0.000203772)
(3.87623e-09 -6.63008e-09 -0.000203767)
(-5.32187e-09 2.84202e-09 -0.00020397)
(4.43751e-09 5.30676e-09 -0.000203774)
(-4.82142e-09 -4.0275e-09 -0.000203976)
(-5.61494e-09 1.83497e-09 -0.000203969)
(4.5076e-09 -5.08518e-09 -0.000203768)
(-5.02302e-09 -3.40573e-09 -0.000203976)
(4.56594e-09 4.94181e-09 -0.000203774)
(-1.03707e-08 -5.62348e-10 -0.000211426)
(9.70968e-09 3.22982e-10 -0.000211574)
(-1.46814e-10 -9.6551e-09 -0.000211654)
(1.96528e-09 1.31443e-08 -0.000211502)
(9.79095e-09 3.8835e-10 -0.000211575)
(-1.05853e-08 -6.74174e-10 -0.000211425)
(-3.38701e-09 5.19115e-09 -0.000203574)
(5.42029e-09 -4.29219e-09 -0.000203773)
(3.40228e-09 5.19742e-09 -0.000203574)
(-5.3424e-09 -4.33475e-09 -0.000203773)
(5.31764e-09 -4.30807e-09 -0.000203774)
(-3.20788e-09 5.27068e-09 -0.000203573)
(-5.15213e-09 -4.37112e-09 -0.000203774)
(3.25333e-09 5.2504e-09 -0.000203574)
(-1.85311e-09 1.2876e-08 -0.0002115)
(1.40937e-10 -9.59019e-09 -0.000211649)
(1.06498e-08 -7.21752e-10 -0.000211426)
(-1.0004e-08 4.60232e-10 -0.000211575)
(1.73219e-11 -9.33282e-09 -0.000211649)
(-1.85509e-09 1.29231e-08 -0.000211499)
(-9.9814e-09 4.71125e-10 -0.000211576)
(1.07821e-08 -7.68493e-10 -0.000211425)
(-1.03643e-08 5.6505e-10 -0.000211417)
(9.96011e-09 -5.46753e-10 -0.000211564)
(2.0855e-09 -1.34023e-08 -0.0002115)
(-1.48555e-10 9.68971e-09 -0.000211651)
(9.6277e-09 -4.14825e-10 -0.000211565)
(-1.00266e-08 4.06351e-10 -0.000211417)
(2.44673e-12 9.33304e-09 -0.000211651)
(2.00715e-09 -1.32057e-08 -0.0002115)
(-1.43056e-10 -6.54267e-09 -0.000203564)
(-5.32241e-09 4.30197e-09 -0.000203765)
(5.75953e-09 4.0488e-09 -0.00020377)
(-2.22521e-09 -5.6306e-09 -0.000203572)
(-5.3216e-09 4.19853e-09 -0.000203766)
(2.40074e-09 -5.52128e-09 -0.000203568)
(-4.37166e-09 -1.74819e-08 -0.000211498)
(6.63591e-10 1.04481e-08 -0.000211647)
(-8.97581e-09 6.0477e-11 -0.000211573)
(1.0882e-08 8.61822e-10 -0.000211418)
(5.90354e-10 1.04683e-08 -0.000211647)
(-3.05012e-09 -1.51571e-08 -0.000211498)
(-4.52718e-09 5.1272e-09 -0.000203772)
(4.98392e-09 -3.62394e-09 -0.000203974)
(5.27941e-09 2.95647e-09 -0.000203971)
(-4.50855e-09 -5.07089e-09 -0.000203768)
(4.98878e-09 -3.49771e-09 -0.000203974)
(-4.50621e-09 5.09023e-09 -0.000203772)
(3.60559e-09 -7.45001e-09 -0.000203768)
(-5.12305e-09 3.16666e-09 -0.00020397)
(4.41795e-09 5.37221e-09 -0.000203774)
(-4.81815e-09 -4.02292e-09 -0.000203976)
(-5.46166e-09 2.47761e-09 -0.00020397)
(4.02925e-09 -6.42483e-09 -0.000203766)
(-4.97771e-09 -3.53953e-09 -0.000203976)
(4.60566e-09 4.84069e-09 -0.000203774)
(-1.03364e-08 -5.37949e-10 -0.000211425)
(9.72274e-09 3.36519e-10 -0.000211574)
(-1.99759e-10 -9.76461e-09 -0.000211654)
(1.97382e-09 1.31663e-08 -0.000211502)
(9.688e-09 3.41963e-10 -0.000211575)
(-1.06013e-08 -6.75087e-10 -0.000211425)
(-3.25498e-09 5.24585e-09 -0.000203574)
(5.5612e-09 -4.23262e-09 -0.000203773)
(3.21518e-09 5.27873e-09 -0.000203574)
(-5.64015e-09 -4.21601e-09 -0.000203774)
(5.31272e-09 -4.30333e-09 -0.000203773)
(-3.08666e-09 5.32865e-09 -0.000203573)
(-5.17867e-09 -4.35184e-09 -0.000203774)
(2.94453e-09 5.37619e-09 -0.000203574)
(-1.92201e-09 1.30193e-08 -0.0002115)
(1.57845e-10 -9.60509e-09 -0.000211649)
(1.06004e-08 -6.82936e-10 -0.000211426)
(-1.01912e-08 5.65867e-10 -0.000211575)
(9.30274e-11 -9.48662e-09 -0.000211649)
(-1.78028e-09 1.27993e-08 -0.000211498)
(-9.94407e-09 4.58532e-10 -0.000211576)
(1.05811e-08 -6.52827e-10 -0.000211425)
(-1.01516e-08 4.39839e-10 -0.000211417)
(9.72185e-09 -4.13928e-10 -0.000211564)
(2.01816e-09 -1.32776e-08 -0.0002115)
(-1.59393e-10 9.71012e-09 -0.000211651)
(9.37239e-09 -2.62051e-10 -0.000211565)
(-1.03733e-08 6.01411e-10 -0.000211417)
(5.4865e-11 9.22888e-09 -0.000211651)
(2.03329e-09 -1.32487e-08 -0.0002115)
(2.39143e-09 -5.58669e-09 -0.000203569)
(-5.27385e-09 4.27829e-09 -0.000203767)
(5.25719e-09 4.25588e-09 -0.00020377)
(-2.88867e-09 -5.36646e-09 -0.000203572)
(-7.84215e-09 3.16189e-09 -0.000203763)
(2.94707e-09 -5.43751e-09 -0.000203569)
(-2.93555e-09 -1.45986e-08 -0.000211498)
(6.55678e-10 1.09606e-08 -0.000211652)
(-1.43594e-08 -3.08064e-09 -0.000211569)
(9.9165e-09 4.04511e-10 -0.000211421)
(-2.04416e-09 5.64095e-09 -0.000211648)
(-1.27858e-09 -1.1857e-08 -0.000211502)
(-4.51773e-09 5.15536e-09 -0.000203772)
(4.97655e-09 -3.64833e-09 -0.000203974)
(5.31518e-09 2.85559e-09 -0.000203971)
(-4.4658e-09 -5.17426e-09 -0.000203768)
(4.94864e-09 -3.57705e-09 -0.000203974)
(-4.52011e-09 5.05659e-09 -0.000203772)
(3.88551e-09 -6.61457e-09 -0.000203767)
(-5.27457e-09 2.96423e-09 -0.00020397)
(4.453e-09 5.27209e-09 -0.000203774)
(-4.82385e-09 -4.01604e-09 -0.000203976)
(-5.50172e-09 2.08387e-09 -0.000203969)
(4.56677e-09 -4.9312e-09 -0.000203768)
(-5.01878e-09 -3.40608e-09 -0.000203976)
(4.55306e-09 4.96938e-09 -0.000203774)
(-1.0414e-08 -5.79685e-10 -0.000211425)
(9.74181e-09 3.4164e-10 -0.000211574)
(-1.83381e-10 -9.72078e-09 -0.000211653)
(1.95367e-09 1.31278e-08 -0.000211502)
(9.82799e-09 4.10783e-10 -0.000211575)
(-1.05545e-08 -6.57488e-10 -0.000211425)
(-3.2922e-09 5.2327e-09 -0.000203574)
(5.43054e-09 -4.28605e-09 -0.000203773)
(3.39679e-09 5.20653e-09 -0.000203574)
(-5.3003e-09 -4.34339e-09 -0.000203773)
(5.35462e-09 -4.29226e-09 -0.000203773)
(-3.183e-09 5.28154e-09 -0.000203573)
(-5.18361e-09 -4.34985e-09 -0.000203774)
(3.33743e-09 5.21366e-09 -0.000203574)
(-1.84075e-09 1.28522e-08 -0.0002115)
(1.39533e-10 -9.58101e-09 -0.000211649)
(1.07297e-08 -7.5874e-10 -0.000211426)
(-9.87868e-09 3.94336e-10 -0.000211575)
(1.90413e-11 -9.33545e-09 -0.000211649)
(-1.85759e-09 1.29264e-08 -0.000211499)
(-9.9176e-09 4.4848e-10 -0.000211576)
(1.08568e-08 -8.04245e-10 -0.000211425)
(-1.03672e-08 5.67302e-10 -0.000211417)
(9.96904e-09 4.36669e-11 -0.000211565)
(2.09886e-09 -1.34284e-08 -0.0002115)
(-1.55276e-10 9.66777e-09 -0.00021165)
(8.89361e-09 -6.28335e-11 -0.000211567)
(-9.95089e-09 7.41158e-10 -0.000211417)
(1.05928e-10 9.14204e-09 -0.000211651)
(2.03748e-09 -1.32533e-08 -0.0002115)
(-6.70551e-10 -6.76295e-09 -0.000203563)
(-4.98938e-09 3.97374e-09 -0.000203765)
(5.30566e-09 4.2572e-09 -0.000203766)
(-2.12942e-09 -5.85026e-09 -0.000203566)
(-5.8768e-09 4.41901e-09 -0.000203766)
(3.0962e-09 -6.22074e-09 -0.000203568)
(-4.15247e-09 -1.70973e-08 -0.000211498)
(7.96636e-10 1.06847e-08 -0.000211647)
(-9.20813e-09 2.31983e-10 -0.000211575)
(9.31541e-09 -4.43741e-10 -0.00021142)
(6.20625e-10 1.05307e-08 -0.000211646)
(-2.93422e-09 -1.49437e-08 -0.000211497)
(-4.56528e-09 5.038e-09 -0.000203772)
(4.98237e-09 -3.62168e-09 -0.000203974)
(5.36482e-09 2.74184e-09 -0.000203971)
(-4.47878e-09 -5.14749e-09 -0.000203768)
(4.96521e-09 -3.55087e-09 -0.000203974)
(-4.51088e-09 5.07916e-09 -0.000203772)
(3.71946e-09 -7.17251e-09 -0.000203768)
(-5.06171e-09 3.30293e-09 -0.00020397)
(4.4171e-09 5.37895e-09 -0.000203774)
(-4.82695e-09 -3.98467e-09 -0.000203976)
(-5.43851e-09 2.539e-09 -0.00020397)
(4.07387e-09 -6.307e-09 -0.000203766)
(-5.00095e-09 -3.48426e-09 -0.000203976)
(4.58133e-09 4.90251e-09 -0.000203774)
(-1.03073e-08 -5.25154e-10 -0.000211425)
(9.70848e-09 3.26047e-10 -0.000211574)
(-2.00404e-10 -9.75798e-09 -0.000211654)
(1.96848e-09 1.31529e-08 -0.000211502)
(9.72547e-09 3.494e-10 -0.000211575)
(-1.06303e-08 -6.95216e-10 -0.000211425)
(-3.2158e-09 5.26159e-09 -0.000203574)
(5.51838e-09 -4.25013e-09 -0.000203773)
(3.31345e-09 5.23877e-09 -0.000203574)
(-5.59698e-09 -4.23052e-09 -0.000203773)
(5.22754e-09 -4.34277e-09 -0.000203773)
(-3.16096e-09 5.29642e-09 -0.000203573)
(-5.15926e-09 -4.36911e-09 -0.000203774)
(2.95446e-09 5.37102e-09 -0.000203574)
(-1.91495e-09 1.30122e-08 -0.0002115)
(1.45365e-10 -9.5783e-09 -0.000211648)
(1.06463e-08 -7.03958e-10 -0.000211426)
(-1.01344e-08 5.39267e-10 -0.000211575)
(6.73462e-11 -9.43763e-09 -0.000211649)
(-1.81066e-09 1.28587e-08 -0.000211498)
(-9.98606e-09 4.74902e-10 -0.000211576)
(1.05909e-08 -6.59554e-10 -0.000211425)
(-1.13646e-08 7.65548e-10 -0.000211419)
(1.00676e-08 2.59417e-10 -0.000211562)
(2.13697e-09 -1.35026e-08 -0.0002115)
(-7.06884e-11 9.55437e-09 -0.000211651)
(9.07929e-09 -7.69729e-11 -0.000211563)
(-1.00092e-08 1.2101e-09 -0.000211413)
(1.86735e-10 8.98934e-09 -0.000211651)
(2.09877e-09 -1.33564e-08 -0.0002115)
(2.63856e-09 -5.49222e-09 -0.00020357)