/*--------------------------------*- C++ -*----------------------------------*\
| =========                 |                                                 |
| \\      /  F ield         | OpenFOAM: The Open Source CFD Toolbox           |
|  \\    /   O peration     | Version:  2206                                  |
|   \\  /    A nd           | Website:  www.openfoam.com                      |
|    \\/     M anipulation  |                                                 |
\*---------------------------------------------------------------------------*/
FoamFile
{
    version     2.0;
    format      ascii;
    arch        "LSB;label=32;scalar=64";
    class       volScalarField;
    location    "10";
    object      nut;
}
// * * * * * * * * * * * * * * * * * * * * * * * * * * * * * * * * * * * * * //

dimensions      [0 2 -1 0 0 0 0];

internalField   nonuniform List<scalar> 
66928
(
1.53547e-06
1.57775e-06
1.56984e-06
1.58454e-06
1.54454e-06
1.5864e-06
1.53882e-06
1.53874e-06
1.54953e-06
1.5705e-06
2.98529e-08
3.01051e-08
1.94744e-07
1.84127e-07
6.52514e-08
4.4997e-07
6.68519e-08
3.78731e-07
4.53552e-07
1.59986e-06
1.08449e-06
6.89983e-08
3.93891e-07
1.59687e-06
4.53467e-07
1.06688e-06
3.08891e-08
1.84593e-07
1.83362e-07
2.90746e-08
4.56708e-07
6.67584e-08
2.98259e-08
3.08564e-08
2.92864e-08
2.91171e-08
1.98709e-07
1.90302e-07
1.53104e-06
2.01508e-07
1.82352e-07
3.00048e-08
3.1659e-08
2.88638e-08
2.93368e-08
1.53431e-06
1.90429e-07
1.72624e-07
2.04661e-07
1.88456e-07
2.99521e-08
3.43779e-07
7.52014e-07
1.85857e-07
6.27824e-08
6.08004e-08
7.74862e-07
3.35766e-07
3.41851e-07
7.2837e-07
1.75825e-07
5.80015e-08
5.8136e-08
7.49418e-07
3.36855e-07
9.46193e-08
2.76825e-08
2.52462e-08
2.72408e-08
2.62532e-08
9.77545e-08
6.64186e-08
1.69713e-07
1.69952e-07
2.60127e-08
1.65853e-07
2.63641e-08
3.09858e-07
5.13412e-08
4.37996e-08
1.77089e-07
2.63718e-08
5.38165e-08
3.31499e-07
4.38618e-08
3.7155e-07
7.48736e-07
1.93516e-07
6.3348e-08
7.61496e-07
6.55584e-08
3.58579e-07
3.79302e-07
7.55594e-07
1.8578e-07
6.15347e-08
6.50286e-08
7.79475e-07
3.49691e-07
1.02743e-07
2.8734e-08
2.85362e-08
2.90256e-08
2.83354e-08
1.06191e-07
2.96147e-08
6.60715e-08
1.66519e-07
1.64554e-07
2.52806e-08
3.20586e-08
3.10789e-08
2.93407e-08
3.05625e-08
9.07113e-08
2.82134e-08
2.5429e-08
2.66965e-08
2.52858e-08
9.71452e-08
3.25565e-07
7.79789e-07
6.53785e-08
1.95884e-07
3.3986e-07
6.44293e-08
7.6673e-07
3.22992e-07
7.85975e-07
5.95988e-08
1.80727e-07
3.37565e-07
6.15203e-08
7.34998e-07
9.36285e-08
2.67252e-08
2.53854e-08
9.24906e-08
2.68943e-08
2.53633e-08
3.43053e-07
6.41862e-08
1.96754e-07
7.60113e-07
6.29448e-08
3.38372e-07
7.63801e-07
3.39301e-07
6.37935e-08
1.79569e-07
7.35637e-07
6.07514e-08
3.32523e-07
7.26452e-07
3.05017e-08
3.2068e-08
2.92918e-08
2.9126e-08
9.5169e-08
2.81818e-08
2.57292e-08
9.07839e-08
2.79698e-08
2.59626e-08
3.30868e-07
7.53798e-07
1.93936e-07
6.4455e-08
6.31795e-08
7.87696e-07
3.45448e-07
3.25505e-07
7.24724e-07
1.76803e-07
6.07283e-08
6.15068e-08
7.50904e-07
3.49716e-07
3.44417e-07
6.51315e-08
8.15428e-07
2.02327e-07
3.38728e-07
6.29098e-08
7.74119e-07
3.32752e-07
6.18761e-08
7.6706e-07
1.81433e-07
3.53975e-07
6.17904e-08
7.36438e-07
9.31272e-08
2.79772e-08
2.56101e-08
2.83042e-08
2.67391e-08
9.23443e-08
8.75313e-07
1.54326e-06
1.29448e-06
1.27333e-06
1.2838e-06
1.28046e-06
8.38503e-07
9.15858e-07
1.53975e-06
1.2964e-06
1.29325e-06
1.33195e-06
1.29886e-06
8.70995e-07
8.42253e-07
1.31153e-06
1.30151e-06
1.54087e-06
8.29261e-07
1.2766e-06
1.29071e-06
8.37921e-07
1.54839e-06
1.28661e-06
1.28425e-06
1.299e-06
1.29245e-06
8.83718e-07
1.53992e-06
1.55167e-06
1.36805e-06
1.11255e-06
4.55729e-07
7.83742e-07
1.12488e-06
7.88802e-07
1.36842e-06
1.3633e-06
1.10424e-06
4.48217e-07
7.60281e-07
1.10201e-06
7.73475e-07
1.35223e-06
1.45995e-06
1.09069e-06
9.81957e-07
1.4915e-06
9.87531e-07
1.49151e-06
1.45567e-06
1.37364e-06
1.11343e-06
4.72763e-07
7.6211e-07
7.7249e-07
1.1375e-06
1.36532e-06
1.47419e-06
1.0899e-06
1.49475e-06
9.96771e-07
1.50456e-06
9.98955e-07
1.47998e-06
1.36939e-06
1.11577e-06
4.60614e-07
7.77959e-07
1.13704e-06
7.72627e-07
1.36502e-06
8.70859e-07
1.53974e-06
1.28301e-06
1.26679e-06
8.30285e-07
1.27252e-06
1.25754e-06
8.37631e-07
1.53585e-06
1.30437e-06
1.27233e-06
8.36444e-07
1.284e-06
1.3036e-06
1.57595e-06
1.58239e-06
1.58561e-06
1.5374e-06
1.57488e-06
1.59117e-06
1.59175e-06
1.53162e-06
1.57927e-06
1.58175e-06
1.58057e-06
1.51979e-06
1.60198e-06
1.59254e-06
1.58305e-06
1.52536e-06
1.57915e-06
1.59565e-06
1.58139e-06
1.52507e-06
1.60157e-06
1.5908e-06
1.58328e-06
1.51949e-06
1.59917e-06
1.58853e-06
1.59001e-06
1.52186e-06
1.58326e-06
1.58865e-06
1.58225e-06
1.52179e-06
1.59834e-06
1.60183e-06
1.58123e-06
1.53252e-06
1.58772e-06
1.58933e-06
1.5942e-06
1.5241e-06
1.57294e-06
1.59302e-06
1.58366e-06
1.52888e-06
1.58311e-06
1.58843e-06
1.58902e-06
1.52767e-06
1.60066e-06
1.5851e-06
1.58059e-06
1.53793e-06
1.58103e-06
1.58675e-06
1.58085e-06
1.52319e-06
1.58503e-06
1.59717e-06
1.59227e-06
1.53957e-06
1.60135e-06
1.58978e-06
1.58493e-06
1.52568e-06
1.58432e-06
1.5821e-06
1.58232e-06
1.52218e-06
1.58399e-06
1.58016e-06
1.59371e-06
1.59838e-06
1.5393e-06
1.53955e-06
1.57622e-06
1.59867e-06
1.59563e-06
1.59973e-06
1.57304e-06
1.58421e-06
1.57703e-06
1.54869e-06
1.54532e-06
1.5933e-06
1.58714e-06
1.58349e-06
1.54086e-06
1.54018e-06
1.53901e-06
1.59277e-06
1.59602e-06
1.59559e-06
1.60601e-06
1.55381e-06
1.53766e-06
1.58676e-06
1.59866e-06
1.58144e-06
1.58637e-06
1.58831e-06
1.5828e-06
1.59192e-06
1.54994e-06
1.53381e-06
1.57993e-06
1.58388e-06
1.58875e-06
1.52465e-06
1.53254e-06
1.53026e-06
1.58688e-06
1.60933e-06
1.58376e-06
1.61037e-06
1.54509e-06
1.52956e-06
1.57623e-06
1.57816e-06
1.57823e-06
1.57989e-06
1.58147e-06
1.59986e-06
1.59129e-06
1.53927e-06
1.52804e-06
1.57295e-06
1.5779e-06
1.58468e-06
1.53156e-06
1.52793e-06
1.53768e-06
1.58868e-06
1.60006e-06
1.59132e-06
1.59261e-06
1.53674e-06
1.53877e-06
1.57569e-06
1.58789e-06
1.57579e-06
1.58811e-06
1.59133e-06
1.59724e-06
1.58157e-06
1.5354e-06
1.53561e-06
1.58475e-06
1.58151e-06
1.59213e-06
1.52719e-06
1.52417e-06
1.51752e-06
1.58685e-06
1.59679e-06
1.57728e-06
1.60611e-06
1.54914e-06
1.54396e-06
1.57135e-06
1.60037e-06
1.58946e-06
1.5892e-06
1.57823e-06
1.58933e-06
1.57719e-06
1.54808e-06
1.53594e-06
1.59825e-06
1.58327e-06
1.59177e-06
1.52537e-06
1.52336e-06
1.53086e-06
1.57419e-06
1.59834e-06
1.57978e-06
1.60446e-06
1.5477e-06
1.54e-06
1.57943e-06
1.58625e-06
1.57869e-06
1.58397e-06
1.57936e-06
1.59005e-06
1.57343e-06
1.53834e-06
1.53737e-06
1.59694e-06
1.57923e-06
1.59008e-06
1.53026e-06
1.54136e-06
1.52263e-06
1.58912e-06
1.59138e-06
1.59485e-06
1.60028e-06
1.54752e-06
1.53954e-06
1.57496e-06
1.57806e-06
1.5857e-06
1.57742e-06
1.58231e-06
1.59073e-06
1.56958e-06
1.53424e-06
1.53407e-06
1.59061e-06
1.57915e-06
1.60312e-06
1.52532e-06
1.52889e-06
1.52339e-06
1.58157e-06
1.5968e-06
1.58652e-06
1.59449e-06
1.53366e-06
1.52858e-06
1.57362e-06
1.57916e-06
1.58375e-06
1.59256e-06
1.56734e-06
1.59965e-06
1.57527e-06
1.54556e-06
1.53704e-06
1.60726e-06
1.57891e-06
1.59665e-06
1.52241e-06
1.5213e-06
1.52635e-06
1.58927e-06
1.59121e-06
1.58334e-06
1.59529e-06
1.54331e-06
1.53052e-06
1.57658e-06
1.58288e-06
1.58839e-06
1.59415e-06
1.57654e-06
1.58695e-06
1.57232e-06
1.54475e-06
1.54434e-06
1.59696e-06
1.58746e-06
1.59706e-06
1.53466e-06
1.52286e-06
1.52035e-06
1.58617e-06
1.59301e-06
1.5781e-06
1.5965e-06
1.54469e-06
1.53082e-06
1.57521e-06
1.58471e-06
1.57307e-06
1.59203e-06
1.57984e-06
1.59149e-06
1.57277e-06
1.54346e-06
1.53837e-06
1.59756e-06
1.59232e-06
1.59727e-06
1.54142e-06
1.52542e-06
1.53118e-06
1.57475e-06
1.59269e-06
1.57912e-06
1.5954e-06
1.53497e-06
1.52911e-06
1.57199e-06
1.5898e-06
1.58214e-06
1.59579e-06
1.57102e-06
1.58837e-06
1.58055e-06
1.5419e-06
1.53521e-06
1.59373e-06
1.5915e-06
1.60096e-06
1.53274e-06
1.52583e-06
1.52504e-06
1.59285e-06
1.59263e-06
1.59533e-06
1.59234e-06
1.53515e-06
1.52688e-06
1.59702e-06
1.58537e-06
1.58547e-06
1.5856e-06
1.58057e-06
1.59688e-06
1.57857e-06
1.54247e-06
1.53903e-06
1.59022e-06
1.5815e-06
1.59038e-06
1.53396e-06
1.53201e-06
1.52318e-06
1.59587e-06
1.59992e-06
1.60014e-06
1.59462e-06
1.53879e-06
1.53096e-06
1.58423e-06
1.59472e-06
1.58905e-06
1.58486e-06
1.5765e-06
1.58349e-06
1.57536e-06
1.54536e-06
1.52808e-06
1.58401e-06
1.57966e-06
1.58551e-06
1.5331e-06
1.52507e-06
1.53118e-06
1.58653e-06
1.5917e-06
1.5954e-06
1.58973e-06
1.54441e-06
1.53409e-06
1.58605e-06
1.58243e-06
1.58634e-06
1.59162e-06
1.5764e-06
1.58502e-06
1.57392e-06
1.53004e-06
1.53601e-06
1.58522e-06
1.58877e-06
1.59423e-06
1.53245e-06
1.54491e-06
1.53838e-06
1.58141e-06
1.59304e-06
1.59365e-06
1.58707e-06
1.54036e-06
1.52298e-06
1.57998e-06
1.58684e-06
1.582e-06
1.59873e-06
1.58005e-06
1.58527e-06
1.57177e-06
1.53395e-06
1.53395e-06
1.58127e-06
1.58556e-06
1.58435e-06
1.52917e-06
1.54035e-06
1.53844e-06
1.58855e-06
1.5852e-06
1.58301e-06
1.59011e-06
1.53888e-06
1.52464e-06
1.57946e-06
1.60414e-06
1.57884e-06
1.59453e-06
1.57291e-06
1.59149e-06
1.58252e-06
1.53744e-06
1.53529e-06
1.58181e-06
1.58455e-06
1.58372e-06
1.52436e-06
1.53042e-06
1.5841e-06
1.58971e-06
1.52876e-06
1.5784e-06
1.59202e-06
1.58694e-06
1.57992e-06
1.53775e-06
1.59294e-06
1.59368e-06
1.53562e-06
3.89503e-07
6.99419e-08
3.8539e-07
6.89706e-08
3.14083e-08
3.1623e-08
3.52116e-07
6.49595e-08
3.87215e-07
6.75611e-08
1.56743e-06
1.57001e-06
1.58829e-06
1.58413e-06
1.57861e-06
1.58324e-06
1.57565e-06
1.04705e-06
4.3135e-07
1.60295e-06
1.59062e-06
4.30387e-07
1.59889e-06
1.05006e-06
3.09808e-08
3.24892e-08
1.10516e-06
1.604e-06
4.70804e-07
1.586e-06
1.59358e-06
4.43113e-07
1.09246e-06
1.63869e-07
1.73849e-07
1.5321e-06
1.67581e-07
1.72383e-07
3.85058e-07
6.50671e-08
3.91957e-07
6.65945e-08
3.18628e-08
3.16737e-08
3.64898e-07
6.46148e-08
3.45309e-07
6.35727e-08
1.5732e-06
1.59357e-06
1.56411e-06
1.576e-06
1.59862e-06
1.586e-06
1.59154e-06
1.03596e-06
4.17937e-07
1.6189e-06
1.595e-06
1.02927e-06
4.1251e-07
1.59782e-06
3.01945e-08
2.98196e-08
1.09622e-06
1.60727e-06
4.46776e-07
1.59625e-06
1.09037e-06
1.60874e-06
4.35829e-07
1.61305e-07
1.78655e-07
1.53567e-06
1.70819e-07
1.79528e-07
3.90208e-07
6.95153e-08
3.81739e-07
6.62191e-08
3.11876e-08
3.10999e-08
3.62732e-07
6.25396e-08
3.57546e-07
6.42581e-08
1.58646e-06
1.58378e-06
1.5695e-06
1.59144e-06
1.60113e-06
1.5993e-06
1.58198e-06
1.06041e-06
4.21012e-07
1.61325e-06
1.58449e-06
1.03772e-06
4.2134e-07
1.60274e-06
2.95939e-08
2.92268e-08
1.07889e-06
1.61594e-06
4.22515e-07
1.57707e-06
1.07396e-06
1.6078e-06
4.22733e-07
1.70489e-07
1.6571e-07
1.53541e-06
1.7302e-07
1.67949e-07
3.84834e-07
6.51473e-08
3.87563e-07
6.3013e-08
3.1761e-08
3.01122e-08
3.60498e-07
6.48053e-08
3.64863e-07
6.61391e-08
1.57959e-06
1.59635e-06
1.58204e-06
1.57273e-06
1.5979e-06
1.59303e-06
1.5948e-06
1.07087e-06
4.23363e-07
1.6197e-06
1.60091e-06
1.04701e-06
4.23868e-07
1.60141e-06
2.8571e-08
2.92265e-08
1.086e-06
1.61564e-06
4.25335e-07
1.58052e-06
1.08147e-06
1.61626e-06
4.21227e-07
1.63496e-07
1.74241e-07
1.53476e-06
1.64907e-07
1.71951e-07
3.8884e-07
6.24139e-08
3.77157e-07
6.33256e-08
3.04819e-08
3.0868e-08
3.5829e-07
6.70394e-08
3.63642e-07
6.40884e-08
1.6098e-06
1.57315e-06
1.58122e-06
1.56548e-06
1.60555e-06
1.60892e-06
1.59498e-06
1.05744e-06
4.36855e-07
1.61818e-06
1.59865e-06
1.05396e-06
4.34113e-07
1.61346e-06
2.91483e-08
2.9128e-08
1.06996e-06
1.61956e-06
4.30888e-07
1.58519e-06
1.08329e-06
1.62824e-06
4.28332e-07
1.77044e-07
1.7177e-07
1.5283e-06
1.76263e-07
1.69222e-07
3.89937e-07
6.32058e-08
3.85129e-07
6.38448e-08
3.00126e-08
2.86074e-08
3.493e-07
6.66275e-08
3.53772e-07
6.4381e-08
1.59038e-06
1.58791e-06
1.59365e-06
1.59191e-06
1.60351e-06
1.58815e-06
1.58889e-06
1.04162e-06
4.23237e-07
1.62828e-06
1.59237e-06
1.05421e-06
4.29201e-07
1.60585e-06
2.80856e-08
2.83204e-08
1.07374e-06
1.64141e-06
4.21597e-07
1.58102e-06
1.06525e-06
1.62855e-06
4.17e-07
1.71271e-07
1.69755e-07
1.52142e-06
1.6726e-07
1.70006e-07
3.88896e-07
6.42047e-08
3.94852e-07
6.49835e-08
2.98453e-08
2.97514e-08
3.48858e-07
6.23749e-08
3.60472e-07
6.26464e-08
1.57786e-06
1.57384e-06
1.58475e-06
1.57938e-06
1.59562e-06
1.58265e-06
1.6031e-06
1.04158e-06
4.21927e-07
1.61629e-06
1.59836e-06
1.03063e-06
4.32521e-07
1.60556e-06
2.78782e-08
2.8095e-08
1.07612e-06
1.62539e-06
4.23228e-07
1.58094e-06
1.06746e-06
1.61067e-06
4.25917e-07
1.63331e-07
1.75778e-07
1.5349e-06
1.6912e-07
1.72344e-07
3.90074e-07
6.42498e-08
4.20324e-07
6.41778e-08
3.06527e-08
3.13291e-08
3.58545e-07
6.5096e-08
3.50594e-07
6.38043e-08
1.57626e-06
1.56932e-06
1.59045e-06
1.59893e-06
1.5982e-06
1.57834e-06
1.59596e-06
1.03284e-06
4.15255e-07
1.62101e-06
1.59463e-06
1.03767e-06
4.15788e-07
1.60406e-06
2.81576e-08
2.95602e-08
1.07715e-06
1.62698e-06
4.1632e-07
1.57875e-06
1.06831e-06
1.62526e-06
4.23375e-07
1.62777e-07
1.69941e-07
1.52288e-06
1.68286e-07
1.70389e-07
3.95212e-07
6.32488e-08
3.88871e-07
6.49569e-08
3.05618e-08
3.12082e-08
3.51638e-07
6.34023e-08
3.62155e-07
6.3338e-08
1.57844e-06
1.54821e-06
1.58861e-06
1.56927e-06
1.60427e-06
1.60114e-06
1.58322e-06
1.04512e-06
4.23961e-07
1.62116e-06
1.59515e-06
1.03647e-06
4.26486e-07
1.62278e-06
2.89795e-08
2.93144e-08
1.07731e-06
1.62619e-06
4.15139e-07
1.59125e-06
1.0725e-06
1.61856e-06
4.29386e-07
1.6449e-07
1.69072e-07
1.52565e-06
1.76707e-07
1.71585e-07
3.7599e-07
6.35944e-08
3.83291e-07
6.5274e-08
3.15102e-08
3.02348e-08
3.56069e-07
6.5735e-08
3.6227e-07
6.63462e-08
1.5896e-06
1.55893e-06
1.57713e-06
1.5683e-06
1.58742e-06
1.60077e-06
1.59436e-06
1.05557e-06
4.34165e-07
1.62591e-06
1.58824e-06
1.03905e-06
4.27372e-07
1.6096e-06
3.07796e-08
2.9788e-08
1.08912e-06
1.62875e-06
4.29825e-07
1.59517e-06
1.0835e-06
1.61819e-06
4.25686e-07
1.66745e-07
1.71244e-07
1.53104e-06
1.66244e-07
1.70194e-07
3.71446e-07
6.08669e-08
3.76416e-07
6.51291e-08
3.11439e-08
3.07163e-08
3.82977e-07
6.33959e-08
3.52211e-07
6.32547e-08
1.55601e-06
1.57666e-06
1.5813e-06
1.57174e-06
1.60304e-06
1.57587e-06
1.60099e-06
1.04927e-06
4.17634e-07
1.62321e-06
1.59061e-06
1.04145e-06
4.26102e-07
1.60911e-06
2.9879e-08
2.88323e-08
1.08377e-06
1.62523e-06
4.24752e-07
1.58817e-06
1.08322e-06
1.61759e-06
4.12836e-07
1.74609e-07
1.66769e-07
1.53997e-06
1.7403e-07
1.66137e-07
3.7844e-07
6.20198e-08
3.76967e-07
6.44734e-08
2.92747e-08
2.87715e-08
3.78138e-07
6.59794e-08
3.64996e-07
6.25633e-08
1.5776e-06
1.56955e-06
1.59536e-06
1.58511e-06
1.58826e-06
1.586e-06
1.59636e-06
1.04213e-06
4.27072e-07
1.62202e-06
1.58826e-06
1.03975e-06
4.11998e-07
1.60339e-06
2.85266e-08
2.92564e-08
1.07644e-06
1.62789e-06
4.17092e-07
1.59264e-06
1.07171e-06
1.61958e-06
4.15512e-07
1.68068e-07
1.80035e-07
1.52768e-06
1.70447e-07
1.72081e-07
3.79407e-07
6.18098e-08
3.73521e-07
6.33723e-08
2.86993e-08
2.88433e-08
3.68105e-07
6.2775e-08
3.75109e-07
6.46192e-08
1.56551e-06
1.57412e-06
1.57938e-06
1.59454e-06
1.60614e-06
1.58554e-06
1.58159e-06
1.05802e-06
4.09018e-07
1.61413e-06
1.5859e-06
1.06075e-06
4.23481e-07
1.60928e-06
2.87823e-08
3.07041e-08
1.07524e-06
1.6247e-06
4.31752e-07
1.58243e-06
1.07432e-06
1.6038e-06
4.2427e-07
1.70154e-07
1.73385e-07
1.53711e-06
1.66966e-07
1.72327e-07
4.00241e-07
6.41337e-08
3.99907e-07
6.53077e-08
2.81801e-08
2.94316e-08
3.7664e-07
6.29033e-08
3.70669e-07
6.27848e-08
1.59015e-06
1.58005e-06
1.57347e-06
1.57991e-06
1.59734e-06
1.58582e-06
1.58515e-06
1.05981e-06
4.29777e-07
1.62531e-06
1.58369e-06
1.0537e-06
4.22975e-07
1.61605e-06
3.02611e-08
2.94691e-08
1.0718e-06
1.628e-06
4.2128e-07
1.58286e-06
1.0731e-06
1.5988e-06
4.33658e-07
1.67301e-07
1.70658e-07
1.5367e-06
1.76125e-07
1.71778e-07
3.91634e-07
6.42346e-08
3.93141e-07
6.40006e-08
2.92633e-08
2.86946e-08
3.60625e-07
6.616e-08
3.73895e-07
6.32394e-08
1.57739e-06
1.5688e-06
1.58011e-06
1.58898e-06
1.58636e-06
1.58676e-06
1.59583e-06
1.05383e-06
4.21664e-07
1.61952e-06
1.58843e-06
1.04401e-06
4.21675e-07
1.60882e-06
2.88415e-08
2.90348e-08
1.09349e-06
1.62306e-06
4.42205e-07
1.58026e-06
1.07408e-06
1.61436e-06
4.23385e-07
1.75227e-07
1.70496e-07
1.53622e-06
1.69097e-07
1.68684e-07
3.87601e-07
6.49814e-08
3.8332e-07
6.86526e-08
2.88778e-08
2.81883e-08
3.58647e-07
6.27797e-08
3.52381e-07
6.26984e-08
1.56929e-06
1.56905e-06
1.56515e-06
1.5843e-06
1.60191e-06
1.58326e-06
1.59662e-06
1.05465e-06
4.17208e-07
1.62758e-06
1.58435e-06
1.05606e-06
4.1873e-07
1.61334e-06
3.02165e-08
2.96095e-08
1.0671e-06
1.60613e-06
4.16249e-07
1.59234e-06
1.06201e-06
1.61343e-06
4.20666e-07
1.68663e-07
1.71707e-07
1.52574e-06
1.65941e-07
1.72635e-07
4.01653e-07
6.71318e-08
3.89621e-07
6.65328e-08
2.85879e-08
2.84427e-08
3.65756e-07
6.6502e-08
3.61797e-07
6.45235e-08
1.58837e-06
1.56954e-06
1.57891e-06
1.58851e-06
1.04882e-06
4.08898e-07
1.62629e-06
1.5809e-06
1.03352e-06
4.24491e-07
1.60929e-06
2.94866e-08
2.91381e-08
1.07166e-06
1.60779e-06
4.17475e-07
1.58569e-06
1.05947e-06
1.59583e-06
4.14211e-07
1.72546e-07
1.69141e-07
1.52903e-06
1.65292e-07
1.69954e-07
3.98101e-07
6.96265e-08
6.65257e-08
4.00686e-07
1.1107e-06
4.66431e-07
1.60279e-06
1.57955e-06
1.59237e-06
1.09251e-06
4.67643e-07
1.12499e-06
4.45653e-07
1.60321e-06
1.59091e-06
4.67026e-07
1.5901e-06
1.09654e-06
4.28042e-07
6.84545e-08
4.01259e-07
7.01228e-08
4.22641e-07
6.76819e-08
6.8062e-08
3.91615e-07
1.12832e-06
1.58426e-06
4.60138e-07
1.60402e-06
1.60342e-06
1.09807e-06
4.77886e-07
1.14382e-06
1.60576e-06
4.67255e-07
1.60818e-06
4.69897e-07
1.6021e-06
1.09491e-06
1.80281e-07
1.86484e-07
1.55217e-06
1.86744e-07
1.83606e-07
3.19954e-08
3.11271e-08
3.2357e-08
3.28698e-08
1.5415e-06
1.98839e-07
1.72566e-07
2.08214e-07
1.85141e-07
2.92652e-08
3.06415e-08
1.03408e-06
4.82894e-07
1.61088e-06
1.58863e-06
1.59914e-06
1.0661e-06
4.48528e-07
3.64024e-07
6.84169e-08
6.75851e-08
3.8835e-07
1.05186e-06
1.5981e-06
4.65052e-07
1.59295e-06
1.59481e-06
4.48252e-07
1.08582e-06
3.71036e-07
6.56009e-08
3.465e-07
6.73926e-08
1.05064e-06
1.58205e-06
4.32631e-07
1.6116e-06
1.60751e-06
1.04025e-06
4.42428e-07
3.6654e-07
6.47483e-08
6.85515e-08
3.65378e-07
1.08318e-06
1.59907e-06
1.60239e-06
4.44742e-07
1.59973e-06
4.619e-07
1.0539e-06
3.60647e-07
6.54282e-08
6.56635e-08
3.65254e-07
1.04619e-06
1.60074e-06
4.04107e-07
1.57142e-06
1.59362e-06
4.09463e-07
1.05455e-06
3.64078e-07
6.05554e-08
6.06471e-08
3.75831e-07
1.06485e-06
1.58163e-06
4.2059e-07
1.6052e-06
4.48161e-07
1.60507e-06
1.03732e-06
3.73283e-07
6.1018e-08
6.64038e-08
3.52288e-07
1.06404e-06
1.57559e-06
1.60812e-06
4.34833e-07
1.60885e-06
4.45451e-07
1.04707e-06
3.79761e-07
6.18442e-08
6.49025e-08
3.58939e-07
1.94263e-07
1.90016e-07
1.54135e-06
1.94511e-07
1.78536e-07
2.94313e-08
2.99565e-08
2.96987e-08
3.27265e-08
1.54506e-06
1.84414e-07
1.84916e-07
1.91189e-07
1.87407e-07
2.87463e-08
2.90607e-08
1.10913e-06
1.60567e-06
4.37804e-07
1.59578e-06
1.59372e-06
4.48051e-07
1.09803e-06
3.87546e-07
6.54248e-08
6.54673e-08
4.01082e-07
4.03786e-07
6.25432e-08
6.31559e-08
3.98084e-07
1.11098e-06
1.58663e-06
1.61677e-06
4.39019e-07
1.59454e-06
4.47009e-07
1.10462e-06
1.13516e-06
1.5825e-06
1.62245e-06
4.51887e-07
1.60551e-06
4.47097e-07
1.09871e-06
4.04684e-07
6.49109e-08
6.37141e-08
3.88586e-07
4.12665e-07
6.48499e-08
6.63852e-08
4.02453e-07
2.71421e-08
2.76501e-08
2.78731e-08
2.86213e-08
1.52992e-06
1.63456e-07
1.78837e-07
1.74831e-07
1.76426e-07
2.73176e-08
2.83227e-08
2.97133e-08
2.94131e-08
3.05756e-08
3.1261e-08
2.92095e-08
2.88267e-08
1.97524e-07
1.79767e-07
1.54411e-06
1.89508e-07
1.77362e-07
2.98582e-08
3.00539e-08
2.8467e-08
2.9834e-08
1.53578e-06
1.86586e-07
1.68642e-07
1.8863e-07
1.80821e-07
3.87208e-07
7.1538e-08
4.06769e-07
7.04062e-08
1.08952e-06
4.70569e-07
1.59476e-06
1.59698e-06
1.11243e-06
4.50173e-07
1.59093e-06
1.09615e-06
4.82121e-07
1.60367e-06
1.61049e-06
1.09055e-06
4.63129e-07
1.61955e-06
4.0235e-07
6.75314e-08
7.08255e-08
3.98528e-07
3.95129e-07
6.85694e-08
7.05418e-08
3.80653e-07
1.11808e-06
1.58672e-06
4.57042e-07
1.60608e-06
4.55359e-07
1.5965e-06
1.09494e-06
1.1211e-06
1.60538e-06
4.8151e-07
1.61296e-06
4.92142e-07
1.61266e-06
1.07815e-06
1.96911e-07
1.73243e-07
1.53385e-06
1.88501e-07
1.66299e-07
3.00955e-08
2.82349e-08
3.12616e-08
3.17315e-08
1.54742e-06
1.82627e-07
1.75658e-07
1.99489e-07
1.74881e-07
2.82577e-08
2.80015e-08
1.04505e-06
4.34914e-07
1.59925e-06
1.59196e-06
1.04866e-06
4.23313e-07
1.60766e-06
3.67196e-07
6.87537e-08
3.72641e-07
6.80199e-08
1.04575e-06
1.5961e-06
4.63187e-07
1.58762e-06
1.0549e-06
1.61698e-06
4.32434e-07
3.75826e-07
6.2079e-08
6.4998e-08
3.77503e-07
1.07806e-06
1.59431e-06
4.23565e-07
1.61073e-06
4.32722e-07
1.60409e-06
1.03564e-06
3.79302e-07
6.63094e-08
6.67989e-08
3.65852e-07
1.07595e-06
1.59602e-06
1.61094e-06
4.27678e-07
1.61272e-06
4.51933e-07
1.05472e-06
3.52671e-07
6.44099e-08
3.56147e-07
6.08824e-08
1.02645e-06
1.61255e-06
4.17755e-07
1.57908e-06
1.06693e-06
1.61643e-06
4.07521e-07
3.51899e-07
6.41844e-08
3.62393e-07
6.3279e-08
1.05038e-06
1.58389e-06
4.29956e-07
1.60406e-06
4.27233e-07
1.60794e-06
1.05748e-06
3.58635e-07
6.03492e-08
6.17336e-08
3.5604e-07
1.07435e-06
1.58613e-06
1.6171e-06
4.18026e-07
1.59987e-06
4.18072e-07
1.05012e-06
3.72726e-07
6.23475e-08
6.45595e-08
3.71368e-07
1.84857e-07
1.82447e-07
1.54505e-06
1.78598e-07
1.8448e-07
2.87674e-08
2.8569e-08
2.93218e-08
3.00323e-08
1.54724e-06
1.78796e-07
1.77717e-07
1.89615e-07
1.9189e-07
2.93681e-08
2.98076e-08
1.07806e-06
1.59867e-06
4.63079e-07
1.58474e-06
1.1279e-06
1.61958e-06
4.3464e-07
3.90293e-07
6.3465e-08
4.00573e-07
6.26401e-08
3.72178e-07
6.63444e-08
4.09237e-07
6.30299e-08
1.11836e-06
1.59777e-06
1.62706e-06
4.30495e-07
1.61278e-06
4.45837e-07
1.08561e-06
1.10608e-06
1.58172e-06
1.60775e-06
4.19078e-07
1.60481e-06
4.44364e-07
1.06788e-06
3.98e-07
6.11491e-08
6.50512e-08
3.87665e-07
3.73392e-07
6.35575e-08
6.49938e-08
3.64706e-07
2.71176e-08
2.7703e-08
3.10383e-08
2.95841e-08
1.54e-06
1.80393e-07
1.71126e-07
1.75132e-07
1.7639e-07
2.84367e-08
2.80583e-08
2.79636e-08
2.86743e-08
3.03921e-08
3.01675e-08
2.90274e-08
2.83449e-08
1.85377e-07
1.73414e-07
1.52861e-06
1.7729e-07
1.69793e-07
2.89006e-08
3.09919e-08
2.79346e-08
2.95538e-08
1.53535e-06
1.82219e-07
1.71113e-07
1.79993e-07
1.83384e-07
3.86714e-07
6.98126e-08
3.97529e-07
7.20303e-08
1.1e-06
4.63057e-07
1.60562e-06
1.58581e-06
1.13689e-06
4.35975e-07
1.6015e-06
1.08738e-06
4.73663e-07
1.60396e-06
1.59644e-06
1.12442e-06
4.67302e-07
1.61047e-06
4.01936e-07
6.63039e-08
6.75916e-08
3.91609e-07
4.01656e-07
6.99334e-08
7.09832e-08
4.0739e-07
1.11837e-06
1.58429e-06
4.49911e-07
1.61603e-06
4.43032e-07
1.60364e-06
1.08068e-06
1.0996e-06
1.59882e-06
4.59941e-07
1.61607e-06
5.07167e-07
1.61066e-06
1.10514e-06
1.93706e-07
1.823e-07
1.53809e-06
1.81133e-07
1.72131e-07
3.00317e-08
2.8566e-08
3.09311e-08
3.01467e-08
1.53199e-06
1.79171e-07
1.70182e-07
1.93565e-07
1.76186e-07
2.9401e-08
2.97937e-08
1.04726e-06
4.30163e-07
1.60868e-06
1.57576e-06
1.0476e-06
4.27784e-07
1.60538e-06
3.82951e-07
6.70887e-08
3.79914e-07
6.83999e-08
1.07569e-06
1.60174e-06
4.43783e-07
1.58033e-06
1.04533e-06
1.59549e-06
4.32315e-07
3.96163e-07
6.27128e-08
6.58938e-08
3.81534e-07
1.07563e-06
1.58589e-06
4.1797e-07
1.60829e-06
4.3329e-07
1.60559e-06
1.05356e-06
3.95505e-07
6.52881e-08
6.72115e-08
3.73205e-07
1.0826e-06
1.58709e-06
1.62014e-06
4.36704e-07
1.60306e-06
4.56376e-07
1.06843e-06
3.73884e-07
6.27104e-08
3.7842e-07
6.50979e-08
1.04955e-06
1.61045e-06
4.30468e-07
1.59063e-06
1.05978e-06
1.61246e-06
4.18192e-07
3.66337e-07
6.51298e-08
3.942e-07
6.11106e-08
1.07042e-06
1.5854e-06
4.39384e-07
1.62365e-06
4.35086e-07
1.60009e-06
1.0716e-06
3.88482e-07
6.55768e-08
6.43204e-08
3.80619e-07
1.0712e-06
1.58614e-06
1.61656e-06
4.1406e-07
1.61296e-06
4.29253e-07
1.04045e-06
3.66959e-07
6.15312e-08
6.40705e-08
3.72992e-07
1.82345e-07
1.8608e-07
1.5367e-06
1.76044e-07
1.81387e-07
2.86059e-08
2.81684e-08
2.89984e-08
3.00327e-08
1.54714e-06
1.71626e-07
1.82204e-07
1.79032e-07
1.90457e-07
2.95433e-08
2.91669e-08
1.06064e-06
1.59508e-06
4.32908e-07
1.57428e-06
1.08353e-06
1.59127e-06
4.22804e-07
3.86638e-07
6.24906e-08
3.89883e-07
6.09617e-08
3.76033e-07
6.22844e-08
3.83811e-07
6.36838e-08
1.08767e-06
1.57981e-06
1.60423e-06
4.43902e-07
1.60262e-06
4.48311e-07
1.08166e-06
1.08199e-06
1.574e-06
1.61807e-06
4.59506e-07
1.60364e-06
4.48428e-07
1.06725e-06
3.89577e-07
6.41268e-08
6.3136e-08
3.83214e-07
3.96474e-07
6.45918e-08
6.72867e-08
3.73744e-07
2.74322e-08
2.81752e-08
2.83409e-08
2.8284e-08
1.5261e-06
1.69837e-07
1.78731e-07
1.80808e-07
1.77086e-07
2.7524e-08
2.74604e-08
2.92973e-08
2.85124e-08
2.91077e-08
3.03701e-08
2.96479e-08
2.88213e-08
1.87446e-07
1.83204e-07
1.51901e-06
1.77653e-07
1.70015e-07
3.00933e-08
3.00061e-08
2.86046e-08
2.97135e-08
1.52819e-06
1.83894e-07
1.77797e-07
1.82386e-07
1.795e-07
3.88496e-07
7.18819e-08
4.15609e-07
6.8937e-08
1.0721e-06
4.45295e-07
1.61643e-06
1.58561e-06
1.11094e-06
4.32224e-07
1.61817e-06
1.08161e-06
4.78295e-07
1.60279e-06
1.6018e-06
1.12427e-06
4.67978e-07
1.61835e-06
4.03708e-07
6.63973e-08
6.41034e-08
3.77575e-07
4.06271e-07
7.00351e-08
6.9927e-08
3.85269e-07
1.08493e-06
1.58993e-06
4.36642e-07
1.6171e-06
4.6064e-07
1.61918e-06
1.124e-06
1.1216e-06
1.60358e-06
4.57997e-07
1.61634e-06
4.52875e-07
1.6181e-06
1.07623e-06
1.78375e-07
1.81837e-07
1.53333e-06
1.78427e-07
1.71362e-07
2.92021e-08
2.93924e-08
3.01768e-08
3.0635e-08
1.53547e-06
1.80159e-07
1.77359e-07
1.77753e-07
1.80285e-07
2.91582e-08
2.91612e-08
1.04558e-06
4.45118e-07
1.59801e-06
1.57424e-06
1.09412e-06
4.16742e-07
1.60362e-06
3.61382e-07
6.735e-08
3.76284e-07
6.4757e-08
1.03932e-06
1.60641e-06
4.50657e-07
1.58532e-06
1.04747e-06
1.60249e-06
4.42625e-07
3.7224e-07
6.61076e-08
6.73504e-08
3.76364e-07
1.07529e-06
1.57495e-06
4.32058e-07
1.61508e-06
4.32889e-07
1.61312e-06
1.04786e-06
3.70749e-07
6.44958e-08
6.82391e-08
3.65332e-07
1.06095e-06
1.58526e-06
1.61424e-06
4.39713e-07
1.62335e-06
4.30869e-07
1.0555e-06
3.7946e-07
6.51705e-08
3.88255e-07
6.55518e-08
1.08124e-06
1.61188e-06
4.19149e-07
1.59006e-06
1.08939e-06
1.61985e-06
4.21957e-07
3.76112e-07
6.62797e-08
3.74107e-07
6.49789e-08
1.09525e-06
1.59115e-06
4.25277e-07
1.61864e-06
4.35279e-07
1.6127e-06
1.06084e-06
3.97695e-07
6.59736e-08
6.75715e-08
3.65087e-07
1.08806e-06
1.59278e-06
1.62281e-06
4.23434e-07
1.6141e-06
4.3163e-07
1.0667e-06
3.802e-07
6.33287e-08
6.37666e-08
3.89101e-07
1.81872e-07
1.87088e-07
1.53336e-06
1.70158e-07
1.75822e-07
2.87148e-08
2.8291e-08
2.84025e-08
2.89609e-08
1.53544e-06
1.67734e-07
1.84183e-07
1.70779e-07
1.82009e-07
2.84554e-08
2.86756e-08
1.07322e-06
1.59467e-06
4.61862e-07
1.58387e-06
1.10864e-06
1.61552e-06
4.35956e-07
3.92646e-07
6.66183e-08
3.99575e-07
6.32887e-08
3.79659e-07
6.3985e-08
3.97737e-07
6.36333e-08
1.09514e-06
1.5851e-06
1.61114e-06
4.32493e-07
1.60967e-06
4.29131e-07
1.09176e-06
1.1081e-06
1.59316e-06
1.61871e-06
4.29699e-07
1.60894e-06
4.40416e-07
1.07713e-06
4.05847e-07
6.43875e-08
6.24345e-08
3.77606e-07
4.0557e-07
6.63863e-08
6.44688e-08
3.7497e-07
2.82585e-08
2.76701e-08
2.94928e-08
2.95546e-08
1.5305e-06
1.74927e-07
1.71137e-07
1.74917e-07
1.75352e-07
2.78044e-08
2.77749e-08
2.9612e-08
2.92629e-08
3.09768e-08
2.97679e-08
2.98267e-08
2.93938e-08
1.88651e-07
1.75645e-07
1.51993e-06
1.8003e-07
1.68858e-07
2.91139e-08
3.06458e-08
2.82697e-08
2.91891e-08
1.53724e-06
1.81638e-07
1.69109e-07
1.81895e-07
1.75816e-07
3.84601e-07
7.06223e-08
3.97964e-07
6.808e-08
1.09208e-06
4.46393e-07
1.60414e-06
1.58942e-06
1.10297e-06
4.42629e-07
1.61526e-06
1.07586e-06
4.57057e-07
1.61087e-06
1.59371e-06
1.09532e-06
4.55232e-07
1.61269e-06
4.12099e-07
6.56917e-08
6.69065e-08
4.03791e-07
3.88995e-07
6.86704e-08
6.84362e-08
3.86219e-07
1.13005e-06
1.57872e-06
4.27629e-07
1.61375e-06
4.39973e-07
1.61066e-06
1.09765e-06
1.08374e-06
1.59501e-06
4.5856e-07
1.62605e-06
4.71665e-07
1.61485e-06
1.0769e-06
1.90915e-07
1.82622e-07
1.53148e-06
1.78502e-07
1.74192e-07
2.91735e-08
2.92578e-08
2.92732e-08
3.11989e-08
1.53572e-06
1.81417e-07
1.8406e-07
1.79982e-07
1.84219e-07
3.07619e-08
3.03804e-08
1.04692e-06
4.41786e-07
1.62031e-06
1.58268e-06
1.06412e-06
4.29231e-07
1.6023e-06
3.73804e-07
6.57881e-08
3.86075e-07
6.51986e-08
1.05479e-06
1.61254e-06
4.29734e-07
1.59375e-06
1.06206e-06
1.62113e-06
4.33521e-07
3.69945e-07
6.72669e-08
6.50322e-08
3.68433e-07
1.08521e-06
1.57768e-06
4.35236e-07
1.61203e-06
4.55555e-07
1.60874e-06
1.04465e-06
3.83244e-07
6.33228e-08
6.758e-08
3.58253e-07
1.07468e-06
1.60075e-06
1.62451e-06
4.22264e-07
1.6079e-06
4.52731e-07
1.05278e-06
3.78341e-07
6.59983e-08
3.82732e-07
6.80769e-08
1.06299e-06
1.61049e-06
4.48969e-07
1.58041e-06
1.0905e-06
1.62504e-06
4.38614e-07
3.84528e-07
6.61836e-08
3.9517e-07
6.65749e-08
1.08711e-06
1.60208e-06
4.32192e-07
1.62311e-06
4.30407e-07
1.62339e-06
1.08842e-06
3.74233e-07
6.77152e-08
6.63522e-08
3.70843e-07
1.10474e-06
1.57774e-06
1.6257e-06
4.28974e-07
1.62461e-06
4.54375e-07
1.03578e-06
3.86756e-07
6.41684e-08
6.37583e-08
3.59668e-07
1.74713e-07
1.93554e-07
1.54263e-06
1.66293e-07
1.77591e-07
2.99188e-08
2.8648e-08
2.85537e-08
2.86883e-08
1.53637e-06
1.66557e-07
1.77976e-07
1.69488e-07
1.81181e-07
2.96935e-08
3.0019e-08
1.07412e-06
1.6134e-06
4.50335e-07
1.60181e-06
1.12617e-06
1.60635e-06
4.36444e-07
3.76332e-07
6.33209e-08
4.04045e-07
6.40588e-08
3.73168e-07
6.65175e-08
4.08886e-07
6.36346e-08
1.09724e-06
1.59373e-06
1.63534e-06
4.18144e-07
1.64508e-06
4.40902e-07
1.08709e-06
1.1064e-06
1.59112e-06
1.62208e-06
4.32468e-07
1.61675e-06
4.33741e-07
1.06125e-06
3.72587e-07
6.05847e-08
6.22379e-08
3.78291e-07
3.90025e-07
6.21941e-08
6.41629e-08
3.87265e-07
2.87873e-08
2.94754e-08
2.86126e-08
2.82485e-08
1.52527e-06
1.8059e-07
1.68022e-07
1.8669e-07
1.77879e-07
2.95815e-08
2.91976e-08
2.92011e-08
2.95239e-08
2.96545e-08
2.94507e-08
2.87527e-08
2.9132e-08
1.82665e-07
1.74966e-07
1.52363e-06
1.78261e-07
1.68468e-07
3.02419e-08
3.08075e-08
2.92728e-08
2.98286e-08
1.52647e-06
1.85436e-07
1.72711e-07
1.84614e-07
1.80093e-07
3.80896e-07
6.93942e-08
3.90124e-07
6.85127e-08
1.09497e-06
4.40773e-07
1.61327e-06
1.58398e-06
1.13579e-06
4.28966e-07
1.61127e-06
1.07362e-06
4.6197e-07
1.60818e-06
1.59428e-06
1.08208e-06
4.41264e-07
1.60697e-06
4.07728e-07
6.60033e-08
6.4692e-08
3.93048e-07
3.98288e-07
6.59652e-08