/*--------------------------------*- C++ -*----------------------------------*\
| =========                 |                                                 |
| \\      /  F ield         | OpenFOAM: The Open Source CFD Toolbox           |
|  \\    /   O peration     | Version:  2206                                  |
|   \\  /    A nd           | Website:  www.openfoam.com                      |
|    \\/     M anipulation  |                                                 |
\*---------------------------------------------------------------------------*/
FoamFile
{
    version     2.0;
    format      ascii;
    arch        "LSB;label=32;scalar=64";
    class       volScalarField;
    location    "10";
    object      omega;
}
// * * * * * * * * * * * * * * * * * * * * * * * * * * * * * * * * * * * * * //

dimensions      [0 0 -1 0 0 0 0];

internalField   nonuniform List<scalar> 
66928
(
21.5895
20.4722
20.5323
20.4116
21.5178
20.3881
21.5299
21.5596
19.2697
19.0961
331.107
328.484
105.921
109.123
210.992
56.764
203.021
64.3223
57.5375
19.8608
28.2438
204.463
63.8467
19.7178
56.6844
28.6663
326.348
107.073
105.563
330.699
56.4574
209.371
328.325
330.911
327.383
334.624
102.05
103.588
21.5536
105.089
108.81
331.657
328.345
334.606
332.447
21.5322
105.325
111.485
102.282
105.003
326.581
69.1368
38.1685
104.784
218.187
217.408
37.7462
71.8287
69.129
38.9039
107.812
220.539
219.238
38.4415
72.0129
159.743
341.696
346.498
338.223
345.987
160.693
207.219
116.073
112.575
354.468
113.638
350.782
73.5162
231.235
252.961
109.216
352.22
227.192
69.7858
252.811
65.9877
38.0588
106.199
216.811
37.6642
215.142
69.263
65.7939
37.8173
104.04
216.765
215.326
37.452
69.0835
152.622
340.468
339.483
338.513
337.51
153.913
328.979
208.076
114.573
113.39
353.551
324.93
327.552
333.072
330.798
162.485
343.138
347.405
342.274
347.236
157.315
72.7186
36.8261
211.701
103.292
70.2771
216.913
37.4051
72.6601
36.6448
214.887
108.466
69.6354
220.478
38.4747
159.605
339.879
345.098
160.539
341.159
346.198
70.2421
217.284
103.394
37.9098
212.895
70.7899
37.5446
69.1983
220.529
109.353
38.7252
221.661
72.2257
38.8939
330.581
329.639
333.465
332.894
162.025
340.199
343.168
161.046
341.157
347.231
72.1236
38.212
105.438
218.088
215.92
36.6617
70.6897
72.9902
39.5078
107.762
223.514
220.119
38.0881
69.1214
69.4544
211.798
35.8418
101.56
70.4127
216.939
37.4458
72.2074
217.054
37.241
109.869
69.803
222.27
38.9989
159.085
343.754
346.681
340.012
346.642
160.152
33.6794
21.58
24.6843
25.0464
24.8798
24.8777
35.1352
32.641
21.4728
24.5808
24.7605
24.1582
24.6329
34.1229
35.0431
24.325
24.6905
21.5042
35.3826
24.9693
24.6336
35.5706
21.4891
25.0592
25.1522
24.662
24.836
33.8492
19.1012
18.9267
23.5186
27.9304
56.1498
36.8624
27.8856
36.5864
23.4818
23.586
28.1964
56.9769
37.7476
28.0376
37.4519
23.7904
22.3385
28.4133
30.9355
21.934
30.689
21.9316
22.4794
23.5318
27.7219
56.0525
37.523
37.2218
27.5094
23.5528
22.2574
28.4798
21.9304
30.5661
21.9615
30.3913
22.1734
23.5651
27.7706
55.7691
37.3272
27.6326
37.0088
23.5738
33.8362
21.589
24.8104
25.131
35.3798
25.0238
25.264
35.3286
21.4999
24.4229
25.0357
35.4603
24.9862
24.7516
19.0319
20.4843
20.3603
21.6518
18.92
20.4629
20.3095
21.5889
18.9261
20.4641
20.4687
21.7124
18.9661
20.4429
20.452
21.7097
18.9557
20.3883
20.4082
21.6915
18.8847
20.3935
20.3739
21.6866
18.8729
20.3884
20.3518
21.7171
18.9019
20.4151
20.3438
21.7164
18.8624
20.4065
20.3359
21.7419
18.9134
20.4026
20.3256
21.691
19.0413
20.3861
20.3469
21.7094
18.9635
20.3824
20.3711
21.6868
18.8071
20.4228
20.3658
21.7128
18.8893
20.4137
20.3483
21.7044
18.896
20.4019
20.3463
21.6901
18.8639
20.3923
20.3605
21.697
18.9501
20.4419
20.3464
21.6957
20.4081
20.3326
20.3735
20.3366
21.5931
21.5862
20.5049
20.3827
20.4065
20.3561
20.5304
20.4617
20.5079
21.4717
21.4956
20.3414
20.3366
20.3862
21.5869
21.5193
21.6663
20.3836
20.364
20.3469
20.3466
21.5516
21.6823
20.3987
20.4099
20.4195
20.4396
20.5022
20.4657
20.4824
21.4139
21.5683
20.4164
20.4125
20.4158
21.6694
21.6345
21.7012
20.3935
20.3274
20.3977
20.3216
21.5754
21.6824
20.4788
20.5044
20.4611
20.4725
20.4794
20.4599
20.4561
21.4874
21.5966
20.4665
20.4949
20.393
21.6108
21.6098
21.6818
20.44
20.3193
20.4278
20.2956
21.5715
21.6413
20.4592
20.4698
20.4622
20.4277
20.4664
20.4012
20.46
21.4961
21.5401
20.3819
20.4452
20.3569
21.6354
21.7032
21.7811
20.4574
20.3185
20.4419
20.2578
21.5024
21.5821
20.4923
20.4167
20.4893
20.3996
20.4867
20.3965
20.4646
21.483
21.5664
20.3381
20.3837
20.3067
21.5914
21.6663
21.7275
20.4682
20.2666
20.4419
20.2755
21.5228
21.6358
20.5157
20.4189
20.5029
20.4301
20.4975
20.3831
20.4887
21.5187
21.5163
20.307
20.3821
20.3056
21.6221
21.6526
21.707
20.4698
20.314
20.4305
20.2698
21.5286
21.6562
20.5336
20.4707
20.5128
20.4439
20.5231
20.4165
20.5129
21.5524
21.5888
20.3041
20.3574
20.287
21.65
21.6443
21.7961
20.4574
20.283
20.436
20.275
21.5801
21.672
20.5192
20.4238
20.4912
20.3739
20.5366
20.4051
20.5093
21.4987
21.4912
20.2893
20.338
20.2995
21.7134
21.6966
21.764
20.4805
20.299
20.4523
20.2851
21.5981
21.6538
20.5227
20.3768
20.5129
20.3523
20.5312
20.415
20.5001
21.4805
21.5111
20.3215
20.3321
20.3035
21.6295
21.6642
21.7385
20.4492
20.3192
20.4388
20.2778
21.5421
21.5978
20.5371
20.3413
20.5241
20.3457
20.5195
20.3836
20.5021
21.4087
21.5111
20.3337
20.3403
20.341
21.6716
21.6639
21.6782
20.467
20.3256
20.4269
20.2794
21.5254
21.6312
20.5304
20.3453
20.5012
20.3337
20.5208
20.3836
20.4914
21.5438
21.5569
20.3485
20.3956
20.3283
21.6526
21.6288
21.7008
20.4078
20.2996
20.3817
20.2741
21.5739
21.6569
20.4959
20.3521
20.4649
20.3429
20.5188
20.4127
20.5127
21.453
21.5726
20.3738
20.3846
20.3622
21.6224
21.6277
21.6762
20.3907
20.3141
20.3936
20.3314
21.567
21.6102
20.4711
20.3396
20.4489
20.3477
20.5304
20.429
20.496
21.5217
21.5721
20.3763
20.3676
20.3297
21.6121
21.627
21.6888
20.402
20.3562
20.3656
20.3655
21.5201
21.5741
20.4493
20.3636
20.4467
20.3615
20.5291
20.4098
20.5151
21.5311
21.4719
20.3264
20.3637
20.3125
21.6262
21.6254
21.698
20.4014
20.4067
20.3802
20.3536
21.568
21.6232
20.4618
20.374
20.4471
20.3647
20.5336
20.3932
20.5187
21.4882
21.5537
20.3595
20.3701
20.337
21.6517
21.572
21.6891
20.3829
20.3643
20.412
20.3567
21.5624
21.6628
20.4508
20.3561
20.4465
20.3378
20.5402
20.4489
20.5043
21.4825
21.5411
20.362
20.3455
20.3527
21.6683
21.6546
20.4035
20.4139
21.5917
20.4508
20.3366
20.5176
20.4703
21.4713
20.392
20.3471
21.6517
63.7383
209.24
63.7979
210.597
330.506
329.992
68.6113
208.906
64.1
211.708
18.9818
19.039
19.0214
19.0042
18.9819
18.9611
19.0537
29.4582
58.9222
19.7351
20.499
59.8551
19.8098
29.1498
328.692
331.066
27.9961
19.674
54.6263
20.3544
19.7477
57.6945
27.9831
115.728
111.04
21.5896
115.293
110.303
64.4406
210.518
64.1316
210.176
330.131
330.918
68.0494
214.053
69.3158
214.19
19.1368
18.9205
19.1596
18.9628
18.9163
18.8687
18.9544
29.6657
61.5509
19.6602
20.4679
29.8759
61.3671
19.7606
334.54
334.486
28.3314
19.5922
59.2782
20.3519
28.2057
19.6269
59.4967
114.747
110.849
21.6616
113.968
111.086
64.4117
212.03
64.5776
211.183
332.118
331.782
67.4375
215.021
68.0614
214.148
19.0985
18.9472
19.0946
19.0523
18.9147
18.8859
18.8695
29.272
61.6971
19.5528
20.4663
29.4409
60.9551
19.6697
334.619
334.255
28.7019
19.5418
59.8517
20.4799
28.8007
19.6609
59.6658
113.176
113.044
21.6857
113.488
112.468
64.9839
213.408
65.2968
213.114
332.853
331.886
67.2081
215.251
66.8779
213.499
19.0257
19.1403
19.0443
19.0368
18.7512
18.9425
18.8479
29.1372
60.1641
19.5844
20.4313
29.1839
60.4838
19.7709
336.198
336.061
28.7161
19.5646
59.7084
20.4493
28.7372
19.5997
60.0067
114.903
111.686
21.6847
113.432
112.002
63.9298
213.742
65.5682
211.806
331.76
332.068
67.8787
213.331
67.7956
212.792
18.8172
19.2048
19.0349
19.0995
18.7658
18.8915
18.8442
29.001
60.4103
19.5508
20.3944
29.2351
60.7007
19.6129
335.653
331.223
28.8568
19.5626
60.6696
20.3847
28.7992
19.6342
60.616
112.855
112.393
21.5919
111.853
111.871
63.7936
212.573
64.6657
212.518
332.641
332.518
68.5992
214.329
68.1718
214.31
18.9288
19.0744
19.0363
18.9422
18.767
18.8509
18.8526
29.3337
60.2302
19.5316
20.3806
29.3165
60.396
19.6499
336.497
332.291
28.7532
19.5366
61.0757
20.3846
28.8653
19.6199
60.3541
113.11
112.432
21.6819
113.947
111.396
63.4631
213.005
63.5568
212.162
332.622
332.647
68.175
215.192
68.8976
214.421
18.9625
19.012
19.0468
18.978
18.793
18.8592
18.8656
29.6401
60.7811
19.548
20.3992
29.596
61.0278
19.647
336.153
335.383
28.4808
19.49
60.2015
20.3614
28.6371
19.6398
60.25
114.102
111.524
21.6725
113.906
110.2
63.7583
212.257
61.2579
213.261
332.073
327.522
68.5906
214.361
68.7291
214.196
18.9715
18.9884
19.0604
19.0341
18.7631
18.8638
18.8698
29.4834
60.7872
19.5812
20.4234
29.5657
60.834
19.8105
335.585
333.304
28.5945
19.4302
60.7866
20.367
28.7081
19.4739
60.2784
114.331
111.758
21.7287
113.965
111.52
64.5995
213.67
64.5306
212.948
332.131
331.601
68.9137
214.742
68.1979
214.342
19.0446
19.2529
19.0611
19.1082
18.7527
18.865
18.8649
29.2176
60.2748
19.5962
20.4063
29.4658
60.5756
19.6427
335.904
334.627
28.4571
19.4217
60.6307
20.3552
28.5143
19.5606
60.0586
113.527
112.399
21.6424
112.73
111.625
65.3717
213.166
66.0274
212.096
332.094
331.663
67.7882
214.237
68.9663
213.766
18.8631
19.1513
19.0562
19.1092
18.8148
18.7891
18.8734
29.1766
60.45
19.5719
20.3911
29.4172
59.5979
19.6798
335.281
334.266
28.5868
19.3915
59.9119
20.3491
28.6656
19.6113
60.1728
114.192
112.392
21.6838
113.044
112.122
65.4919
213.279
64.8423
213.632
332.057
332.101
65.5284
213.937
68.5378
213.615
19.1607
19.1354
19.076
19.0852
18.8403
18.8635
18.8911
29.4249
60.7047
19.5526
20.3816
29.3109
60.6016
19.6733
335.271
334.964
28.4519
19.5669
60.451
20.3792
28.7357
19.5111
60.622
112.431
112.85
21.6475
110.893
112.015
65.3959
214.553
66.6966
214.867
332.307
333.305
66.8021
214.304
67.2681
214.33
18.9665
18.9859
19.0792
19.011
18.7437
18.865
18.8851
29.3637
61.0955
19.5719
20.4033
29.4505
61.2367
19.6555
335.309
332.956
28.5979
19.5003
60.2564
20.3724
28.6097
19.6217
60.2731
112.701
113.026
21.675
114.384
111.941
64.562
213.876
65.5477
211.858
334.339
333.975
67.2955
214.793
66.9923
214.248
19.0601
18.9743
19.0706
18.9551
18.748
18.8339
18.8765
29.2004
61.7075
19.571
20.4378
29.3653
59.2564
19.7609
335.566
333.07
28.8124
19.5335
59.8033
20.3676
28.9543
19.648
60.3377
114.8
111.171
21.6656
113.635
111.489
63.6514
211.083
64.3022
210.577
335.495
334.491
66.6222
214.079
67.2732
213.853
18.8923
19.0299
19.0572
18.9857
18.8165
18.8368
18.8633
29.2397
60.1781
19.5663
20.4196
29.3646
60.2432
19.6917
334.41
333.104
28.5801
19.5171
60.2497
20.353
28.9821
19.7152
59.2935
113.332
112.336
21.6284
112.988
112.271
63.7353
212.436
63.3792
212.255
334.335
334.069
68.1686
214.342
66.833
213.834
19.048
19.0274
19.0523
19.0719
18.8691
18.849
18.8636
29.0443
60.8385
19.559
20.4085
29.2036
60.2422
19.6607
335.05
334.84
28.6235
19.5154
59.0994
20.3566
28.5179
19.5969
59.6809
112.824
113.101
21.5989
113.52
112.376
63.7985
212.035
64.6983
210.445
334.318
333.801
68.6038
215.247
68.5491
214.753
19.0622
19.049
19.0585
19.0335
18.8814
18.8492
18.8774
29.2374
61.1839
19.5369
20.4031
29.2239
61.3174
19.6883
334.387
333.591
28.8244
19.5486
60.9303
20.359
28.8959
19.5625
60.0343
113.003
112.408
21.6819
113.023
111.803
63.971
211.91
63.7793
211.562
334.302
334.271
67.3701
214.39
67.8016
212.615
19.0812
19.0454
19.1364
18.766
29.4139
61.485
19.5716
20.442
29.4201
59.7013
19.7006
334.824
335.254
28.5926
19.5049
60.209
20.381
28.8054
19.709
60.3419
113.921
111.637
21.6681
113.23
111.584
62.907
210.466
208.595
63.6598
28.0378
55.3697
19.6064
20.4344
19.8008
28.0809
55.6073
27.8347
57.5248
19.5927
20.3481
56.4923
19.7755
28.0685
60.3693
209.442
63.1378
204.249
60.2385
209.337
203.54
63.4588
27.4571
20.4037
56.7445
19.5922
19.6262
28.1602
55.7549
27.0346
20.3483
56.5849
19.5654
54.7238
19.616
28.1473
107.54
107.064
21.503
105.139
108.143
331.206
332.101
329.18
323.193
21.5263
104.252
111.517
98.0236
107.42
334.75
332.109
29.4108
53.914
19.7224
20.4864
19.8045
28.6356
57.036
67.7457
206.545
209.989
63.4642
29.0311
19.6905
54.9688
20.3656
19.7156
57.0042
28.1742
65.3985
210.187
69.1561
208.641
29.1005
20.449
58.8503
19.6391
19.7174
29.5739
57.7005
67.0014
212.447
205.269
67.8564
28.1903
20.3559
19.6566
57.971
19.681
55.6103
29.4455
67.7688
212.885
214.486
66.846
29.2987
19.6834
61.9849
20.538
19.764
61.3163
29.044
66.9463
216.762
216.493
65.4366
29.0878
20.4712
61.1279
19.8016
57.0824
19.8136
29.6536
65.4643
215.538
213.001
68.4324
28.8195
20.5199
19.6752
59.6809
19.7056
57.8714
29.4457
65.9485
213.258
211.244
67.6452
100.97
102.167
21.4962
107.164
108.04
328.884
330.759
334.015
325.785
21.4463
108.994
109.593
104.67
104.077
334.206
333.652
27.7726
19.6396
57.9353
20.3999
19.7831
58.0479
27.7332
63.0859
205.03
211.456
62.7563
61.5467
211.558
211.688
61.5039
27.5382
20.3609
19.6028
58.8243
19.7637
56.9276
27.7887
27.4595
20.4139
19.5976
58.2243
19.6377
56.8357
28.1849
61.3671
212.796
207.967
64.0271
60.2625
211.454
209.153
63.2714
338.557
335.479
334.524
333.145
21.6227
113.795
110.022
111.065
108.29
337.51
337.594
332.391
327.303
325.592
331.732
331.679
335.251
101.14
109.211
21.5327
107.881
111.712
332.509
328.804
334.449
334.299
21.5107
107.992
112.117
103.722
108.325
64.2207
201.732
61.0621
208.353
28.3105
55.5899
19.6988
20.3604
27.8095
57.4736
19.7378
28.3136
54.3624
19.6943
20.3531
28.226
56.502
19.626
62.6778
211.468
204.971
63.8265
63.0606
209.517
205.057
64.4476
27.8999
20.349
57.8998
19.5852
56.5293
19.6896
28.3587
27.7052
20.3256
55.6641
19.5512
54.5795
19.6003
28.3946
102.737
110.759
21.6457
106.86
112.872
333.638
333.642
331.83
324.791
21.5555
108.896
109.465
103.02
106.836
335.463
334.304
29.5023
58.5215
19.7117
20.3976
29.2567
59.9969
19.6985
67.1037
205.737
65.5846
208.153
29.3031
19.7724
56.7608
20.4079
28.9845
19.5994
59.4152
66.6028
214.413
208.324
65.7657
28.4791
20.4112
59.982
19.5676
58.7066
19.6838
29.409
65.1651
212.781
211.258
66.7562
28.8457
20.4316
19.556
59.4101
19.579
57.9372
28.8967
68.3656
214.221
67.484
214.808
29.6495
19.691
60.9091
20.5134
28.9857
19.6945
61.5115
68.2517
214.951
66.8994
215.749
28.8921
20.4619
61.4434
19.6608
58.9379
19.6229
28.883
66.9317
216.45
211.368
67.8122
28.5396
20.494
19.6123
60.6354
19.7403
59.8682
29.416
64.4
215.695
212.999
67.0717
107.259
106.758
21.5231
109.788
110.689
332.152
333.979
335.087
328.513
21.4556
110.894
109.097
103.531
106.25
333.731
331.657
28.7713
19.8057
55.3164
20.4138
27.4422
19.6598
59.153
64.5429
208.346
61.6245
213.02
66.0655
208.804
60.8377
212.528
27.8681
20.3886
19.5588
59.2347
19.6769
57.7541
28.734
28.0243
20.4177
19.6295
59.9904
19.6802
58.0853
28.9425
62.5893
213.931
209.437
65.1521
65.2547
211.893
208.958
66.695
336.514
335.602
329.503
334.35
21.6117
109.486
110.107
111.668
107.721
336.573
332.325
334.532
333.122
326.277
331.839
334.375
335.706
103.954
108.441
21.7073
108.534
113.253
333.375
326.014
336.058
333.54
21.6464
109.241
112.484
106.674
110.254
63.7794
206.899
62.7683
208.405
28.243
55.6556
19.6332
20.3907
27.4399
58.577
19.6635
28.2532
55.8003
19.6418
20.3383
27.2326
56.6719
19.5754
63.0938
209.661
207.365
62.7074
62.3154
209.788
201.995
63.8202
27.4556
20.3961
57.0782
19.5157
57.4803
19.6609
28.4184
27.8802
20.3436
56.8535
19.4985
53.6543
19.5452
28.2576
104.63
111.467
21.6664
107.845
112.176
334.296
334.978
328.898
328.718
21.6097
109.196
111.923
105.522
108.785
333.674
331.457
29.4754
58.8035
19.602
20.4748
29.0817
60.5614
19.6069
66.0672
209.612
65.1457
211.91
29.0511
19.6676
57.2438
20.4897
29.157
19.7383
59.2522
62.6977
211.532
209.24
66.0102
28.3796
20.4702
60.429
19.5969
58.3094
19.6282
29.1748
64.1312
212.647
205.896
67.0458
28.6062
20.5037
19.6098
59.0661
19.7418
55.9456
28.6697
66.2935
213.467
64.3017
213.99
29.4599
19.6789
59.4531
20.4675
28.8413
19.6409
60.6185
67.7903
210.078
63.3461
215.424
28.8212
20.4547
59.6991
19.6291
58.707
19.7393
28.9761
63.8165
213.899
209.739
66.2948
29.0804
20.461
19.5751
60.8633
19.6299
58.9363
29.4221
67.009
213.499
213.005
67.5841
109.368
103.522
21.5895
111.696
107.096
328.702
332.894
332.68
332.201
21.4944
112.309
108.463
108.661
104.758
333.492
331.677
28.8259
19.7616
58.2781
20.4354
28.3759
19.8346
59.3452
64.9535
211.405
62.7443
212.664
65.6444
212.056
64.8386
213.306
28.138
20.476
19.6963
57.632
19.6924
57.8888
28.3944
28.3813
20.4262
19.6149
56.6399
19.6568
57.5484
28.768
62.5238
212.728
209.172
65.7403
62.1598
212.618
210.504
65.6946
335.714
337.144
332.528
334.17
21.6402
111.848
108.305
109.286
107.939
336.968
336.035
333.888
332.321
330.742
333.082
332.053
333.52
106.654
108.129
21.7273
109.806
112.434
332.757
330.263
335.847
334.876
21.6801
109.799
110.45
107.242
106.984
64.5336
203.901
61.3969
207.722
28.7146
57.6297
19.5393
20.4277
27.7275
59.1551
19.591
28.4075
54.8096
19.664
20.3118
27.6426
55.7214
19.5153
61.4771
210.484
210.465
65.3033
61.4928
210.35
202.834
64.638
28.3202
20.4318
58.8026
19.4793
55.7643
19.6023
27.5888
27.576
20.3073
57.5773
19.4237
57.0521
19.5503
28.4199
108.451
109.581
21.6452
107.175
112.1
334.066
334.694
332.299
326.485
21.5973
109.769
108.512
107.614
106.468
333.686
332.325
29.3881
58.7858
19.6901
20.475
28.3242
60.5304
19.7145
67.5276
209.786
65.544
212.91
29.4392
19.6815
57.4598
20.4599
29.1765
19.7356
58.9159
65.2013
212.525
211.746
65.355
28.7635
20.456
59.8345
19.6067
58.7619
19.5684
29.2643
65.8283
213.214
210.284
66.7099
28.9794
20.4364
19.5867
58.6597
19.5843
60.039
29.327
65.1049
211.594
62.9584
214.365
29.087
19.6823
59.8111
20.4665
28.1736
19.5693
61.0838
66.6548
209.202
65.4963
215.932
28.2886
20.4041
59.6613
19.6766
58.7643
19.6347
29.0729
61.7818
213.921
208.554
66.7047
28.5031
20.4667
19.4991
60.3372
19.6064
58.4074
29.016
65.2006
215.05
213.549
65.954
107.897
105.711
21.5368
112.266
109.498
330.984
333.515
335.117
331.965
21.5244
113.311
109.264
111.75
105.549
333.627
331.868
28.8312
19.8121
56.1149
20.385
27.7097
19.6595
58.7951
65.762
208.004
62.2365
211.899
65.211
210.785
61.6844
212.454
28.1136
20.4395
19.6602
58.8218
19.6639
58.6961
28.1859
28.1998
20.3866
19.54
59.2888
19.6841
57.9995
28.5026
62.7013
213.419
212.47
66.1019
61.3532
212.495
210.496
65.3299
335.454
336.541
331.822
334.56
21.6005
109.61
111.864
106.928
109.164
335.358
334.693
332.698
333.081
327.45
333.141
330.181
335.266
107.379
111.466
21.7515
108.567
112.333
332.342
330.311
336.325
332.459
21.6421
109.82
112.643
106.578
108.321
65.1488
203.206
61.6576
206.389
28.2072
57.9196
19.6424
20.4507
28.1498
57.6261
19.5149
28.5381
56.2344
19.5183
20.313
28.231
57.5821
19.504
60.1547
211.651
206.48
63.4455
62.8077
209.319
207.968
64.4298
27.5094
20.4467
59.2041
19.5091
58.7309
19.5829
28.1837
28.2449
20.2596
57.316
19.4809
55.1003
19.5206
28.4579
104.655
110.213
21.6166
109.467
110.902
332.283
334.574
332.361
328.809
21.5286
109.752
110.576
108.648
107.227
332.501
328.834
29.2877
57.1459
19.685
20.4941
28.7731
59.6448
19.7828
67.8147
207.066
63.0611
213.313
29.2741
19.6448
59.6568
20.407
28.7597
19.6581
60.2697
65.9484
210.12
209.053
65.672
28.1613
20.4918
59.9953
19.6099
58.0807
19.6517
29.2529
64.3895
213.007
207.209
68.5768
28.8555
20.4011
19.5747
59.7656
19.6882
56.1781
29.4867
66.1189
210.03
65.051
214.254
29.2107
19.6647
58.7549
20.476
28.561
19.549
60.3825
66.5524
209.619
63.633
214.303
28.192
20.3854
59.7908
19.5703
59.4181
19.5796
28.7344
65.1064
210.178
210.667
66.6234
28.0768
20.4741
19.5347
60.3531
19.5665
57.1177
29.5464
64.0081
215.019
212.834
68.1212
108.933
106.665
21.545
112.784
110.107
331.041
334.651
333.527
333.651
21.5
112.699
107.939
110.141
107.012
331.672
331.994
28.7007
19.5908
56.5489
20.3447
27.5773
19.6634
59.5799
66.6463
208.907
62.654
213.51
66.0119
210.144
61.6252
213.238
28.2162
20.3759
19.567
60.7573
19.5938
58.2039
28.6734
27.8427
20.3306
19.5465
59.9446
19.6412
58.3217
29.1438
65.3531
214.566
210.534
66.239
62.7655
213.498
211.186
64.4918
331.666
336.666
330.038
334.854
21.6053
109.112
111.971
109.684
109.06
336.714
335.421
334.506
332.736
329.8
332.832
333.565
335.465
104.689
110.168
21.6855
110.733
112.755
328.791
330.605
333.825
332.566
21.7382
109.276
111.721
105.535
108.522
64.8804
205.273
63.413
208.708
28.1948
57.3332
19.6072
20.4505
27.1099
59.4304
19.5523
28.5531
55.3802
19.6326
20.2824
28.2786
57.8911
19.6568
60.8697
209.59
210.342
63.732
62.1888
210.169
208.15
64.6683
27.7885
20.4475
59.2746
19.4826
56.0793
19.5384
28.2504
28.2286
20.2544
57.1608
19.485
55.002
19.4914
28.7403
103.457
108.039
21.4971
108.903
111.529
333.372
333.932
333.019
329.973
21.5612
110.239
111.664
107.109
109.093
333.891
332.546
29.8069
58.3426
19.7647
20.4966
29.0491
59.0257
19.6334
68.5887
208.101
64.8383
213.123
29.7533
19.7716
56.4093
20.4378
28.7033
19.6631
59.7891
67.3399
214.815
209.064
68.4899
29.3372
20.5025
59.8092
19.5713
58.1198
19.6912
29.6133
64.4576
213.323
210.079
68.6472
29.2272
20.4226
19.6208
60.0434
19.7372
56.8536
29.6595
67.6391
212.401
63.3672
213.832
29.322
19.7435
58.5905
20.4968
29.0305
19.6241
59.3798
65.8442
212.161
64.162
215.67
28.5633
20.37
60.0605
19.5866
59.5017
19.6029
28.9815
64.1245
214.406
209.653
67.3967
28.7569
20.4909
19.5657
61.6763
19.683
60.6773
29.3772
65.5742
216.488
213.888
67.1193
107.885
110.019
21.5638
112.976
107.77
333.698
331.976
335.863
334.496
21.516
113.827
109.756
109.622
109.119
334.112
328.923
28.776
19.7119
58.1919
20.3273
28.2103
19.5792
59.5097
65.9515
211.927
65.2191
214.259
65.8189
211.86
65.8451
212.941
27.7167
20.3615
19.6198
58.2066
19.635
58.9889
28.5245
27.5728
20.3248
19.4864
58.0006
19.6179
56.9161
28.4794
62.4328
214.129
210.307
64.8046
61.6801
211.882
209.488
64.0073
335.883
337.245
330.189
334.147
21.5881
113.049
110.956
109.394
108.625
337.639
336.129
334.144
332.373
331.2
331.892
330.339
332.441
104.367
109.028
21.7133
109.445
112.174
333.268
329.128
335.834
334.817
21.603
108.751
113.137
102.051
110.636
64.0341
207.046
64.9762
209.996
28.2191
56.0728
19.5528
20.4514
27.7842
57.1314
19.5691
28.3292
54.8383
19.638
20.2827
28.4411
57.3422
19.4872
60.6769
210.284
207.778
63.2986
64.1669
209.509
203.246
64.6588
27.6204
20.4448
58.1363
19.4582
58.3154
19.5647
28.0874
28.4111
20.2783
57.299
19.4624
55.1478
19.4834
28.0979
108.541
109.428
21.6522
110.323
111.715
332.272
333.946
331.785
330.671
21.5775
109.023
111.361
104.142
108.127
334.001
329.689
29.4367
58.4675
19.6581
20.523
29.1428
60.7984
19.6461
67.5581
205.994
65.5722
211.471
29.5176
19.8447
56.4734
20.455
28.5721
19.7217
59.9874
65.4167
211.6
211.638
67.9146
28.4438
20.5201
60.1057
19.6229
58.0248
19.6604
29.5903
65.3901
212.444
209.416
68.1244
28.7044
20.4495
19.644
60.1477
19.7752
59.0826
29.538
68.464
210.906
64.5831
215.03
29.4043
19.6451
60.7258
20.5204
28.7225
19.6163
62.1989
67.0798
212.065
64.4209
217.648
28.5266
20.4028
60.48
19.6006
57.4828
19.6204
28.8305
66.8391
213.988
209.468
68.1213
28.6453
20.5177
19.5673
61.4288
19.5988
59.8477
29.4759
63.8216
216.44
215.97
67.5105
108.624
107.517
21.5767
111.873
109.384
331.335
334.006
335.324
329.386
21.479
112.354
111.179
112.333
105.774
334.399
332.539
28.4715
19.6674
55.4343
20.304
27.4419
19.5416
58.3932
64.0929
210.726
62.11
213.62
62.7134
208.017
60.4276
212.251
27.5998
20.3461
19.5335
60.5585
19.5061
57.2167
28.0898
27.4849
20.3045
19.4761
58.5024
19.6045
55.678
28.3967
63.3436
213.754
211.314
64.8705
62.886
212.605
208.02
63.6411
335.637
337.621
332.714
333.485
21.5849
111.098
111.051
110.733
107.203
337.171
336.526
333.569
332.194
332.159
330.891
329.537
335.188
104.257
110.669
21.6747
111.045
113.104
333.909
333.057
334.507
333.631
21.6533
110.534
113.083
107.827
111.905
63.3976
205.549
61.4415
206.823
28.0077
58.0767
19.5671
20.439
27.4627
59.2805
19.5502
28.2076
55.2272
19.6726
20.3127
27.2096
57.688
19.5152
60.0165
212.781
210.496
63.9203
59.9046
208.926
207.778
63.8742
27.4361
20.4365
59.6115
19.5339
58.3887
19.5522
27.9036
27.9012
20.2839
57.4399
19.4519
56.1469
19.5893
27.7614
103.202
108.991
21.6454
110.378
111.669
330.346
332.6
332.067
330.699
21.5623
110.042
111.603
109.088
105.877
331.429
334.86
29.8114
57.8136
19.7624
20.5033
29.3564
59.7836
19.7212
68.4639
205.821
66.1544
211.528
29.6958
19.7299
55.6105
20.4047
29.1638
19.7067
59.2044
64.8304
213.212
210.601
65.5757
29.3019
20.4869
60.6671
19.6599
58.2444
19.713
29.3895
66.2516
212.733
208.16
67.5018
28.9776
20.3892
19.6585
59.5377
19.7066
58.0939
29.456
67.8988
212.443
66.7872
215.719
29.3465
19.6463
59.6212
20.5285
28.795
19.6786
61.3199
65.5518
214.519
67.1647
215.864
28.8206
20.4051
59.3937
19.7219
57.3344
19.6688
29.399
66.5684
215.402
213.096
67.2317
28.7269
20.517
19.5576
60.7984
19.623
58.6167
29.2526
66.1927
215.074
211.802
67.1826
110.498
109.138
21.5245
112.562
111.645
329.005
333.518
331.978
331.725
21.4847
112.061
111.693
107.144
107.226
331.993
328.897
28.3971
19.5485
56.6708
20.3232
27.8739
19.6252
59.0364
63.1723
209.344
63.3054
212.931
64.2868
209.28
61.6682
212.523
27.5469
20.3417
19.4609
58.7777
19.4695
58.7348
28.2186
27.5796
20.3043
19.5145
59.0209
19.6201
58.0601
28.6241
63.7733
209.635
207.82
64.8132
64.1745
212.458
207.764
65.3714
336.128
335.877
332.483
333.019
21.6433
112.919
111.881
111.175
108.39
333.983
336.22
334.397
329.804
331.519
333.145
334.472
336.015
107.803
110.562
21.7072
110.515
112.568
333.663
330.921
333.762
331.39
21.7073
109.818
112.841
107.525
109.969
65.6766
201.311
62.1904
204.512
28.3528
56.9559
19.6574
20.4719
27.7312
59.1407
19.7094
28.5923
56.1931
19.54
20.2873
28.0489
57.0148
19.515
61.4432
212.744
210.476
65.6349
62.9959
209.696
207.437
65.2804
28.0136
20.4428
59.6995
19.5734
59.7618
19.6815
28.6296
28.0933
20.2664
57.1227
19.5101
56.2266
19.5316
28.7797
104.398
109.775
21.6144
109.483
110.658
333.727
334.613
331.267
328.3
21.5633
108.777
111.748
107.721
105.729
331.013
331.118
29.453
58.1275
19.7936
20.5173
28.75
60.5691
19.6486
67.5865
209.212
62.8293
212.967
29.427
19.7537
57.4613
20.3848
28.2053
19.7726
59.2747
65.6493
211.466
212.666
68.7561
28.8178
20.5127
61.1703
19.6317
59.5875
19.6238
29.4053
63.8759
211.807
211.038
68.1822
29.0328
20.3681
19.6152
59.3095
19.6769
56.3725
29.5116
66.4334
209.832
64.6751
214.136
28.9331
19.6455
57.8849
20.5229
28.6152
19.6587
60.9419
65.9509
211.717
61.5111
215.322
28.7019
20.4139
60.1933
19.6124
58.799
19.7257
28.6851
62.9438
214.72
210.202
64.8721
28.2586
20.5104
19.5091
59.7494
19.512
57.7263
28.855
63.7057
216.101
210.941
66.1181
110.712
105.802
21.5346
109.529
110.894
333.317
333.752
331.574
333.816
21.4408
112.645
110.044
110.792
108.723
333.68
331.737
28.7142
19.6747
57.9964
20.3052
27.7368
19.5534
59.1084
64.2908
212.138
61.7742
213.011
64.6609
210.348
62.1715
212.627
27.7947
20.3315
19.4806
59.267
19.4162
57.9967
28.0907
28.3486
20.3169
19.4808
58.5548
19.6036
56.6925
28.7227
61.9116
212.847
210.994
64.5948
62.428
212.952
209.704
64.9331
335.944
336.722
329.776
334.393
21.61
110.98
109.088
110.266
108.601
336.776
334.53
333.495
332.362
331.395
333.905
334.388
335.407
107.395
108.116
21.7688
109.765
110.71
334.265
328.201
335.91
330.888
21.7049
110.226
113.688
106.728
112.511
65.4092
205.372
65.1032
208.848
28.6547
58.2495
19.6255
20.4474
28.0368
59.8399
19.6706
28.8362
53.6863
19.6458
20.2913
27.9863
57.0386
19.67
63.5298
212.224
209.852
63.5617
62.5457
210.287
206.531
64.9081
28.4886
20.43
59.0795
19.5682
58.9002
19.5102
28.5976
28.095
20.2764
54.982
19.5089
55.835
19.6649
28.0869
107.303
108.909
21.6211
109.522
110.994
333.16
334.087
331.292
327.988
21.5566
108.414
110.778
106.131
107.231
334.056
330.456
29.5212
57.8488
19.7075
20.5532
28.3601
60.4709
19.6652
67.3642
209.021
64.2549
210.671
29.4725
19.8057
57.8239
20.3537
28.4683
19.6608
58.6561
64.225
211.903
211.71
68.271
29.0533
20.5362
61.0516
19.6091
57.9167
19.7346
29.6416
65.311
209.413
207.01
68.2948
28.5763
20.3402
19.5466
59.0105
19.6705
57.4973
29.7463
64.6428
209.19
66.4728
213.472
29.0248
19.5961
61.211
20.5118
28.347
19.5652
61.5249
66.6537
214.179
64.6924
214.202
28.531
20.3898
58.5919
19.5964
57.5877
19.7107
28.6936
65.3752
213.419
211.38
67.0305
28.5998
20.5112
19.6138
60.4541
19.5473
58.8368
29.1573
62.4653
215.374
213.836
67.3541
109.882
107.13
21.5293
111.42
109.894
330.685
333.823
334.979
328.316
21.4761
111.087
110.488
109.927
107.727
334.301
331.721
28.6502
19.6868
57.1919
20.3829
27.9862
19.5631
59.6754
64.3353
211.752
61.8716
213.522
65.2123
210.446
62.8635
214.055
27.8016
20.3366
19.4638
59.8137
19.4892
58.3886
28.1903
28.0104
20.3567
19.4993
59.346
19.6232
58.5078
28.6256
61.8742
213.85
209.591
64.4424
62.6976
214.412
212.493
64.5807
333.966
335.386
332.564
334.466
21.6295
110.579
112.466
110.158
109.315
335.972
333.012
334.837
332.777
330.602
333.554
333.143
335.936
107.208
111.945
21.6929
110.626
112.563
333.859
330.802
333.145
333.59
21.6078
110.823
113.285
107.541
107.358
65.4961
207.132
63.0933
209.506
28.5694
57.692
19.629
20.4719
28.2987
58.9215
19.5948
28.6953
56.1846
19.5277
20.3025
28.4573
57.0678
19.5719
62.5381
213.592
212.516
66.2117
64.6151
210.038
205.323
66.5552
27.6331
20.4632
59.9783
19.4901
56.326
19.5255
28.5355
28.3177
20.2734
57.3717
19.4565
53.217
19.5825
28.909
104.447
108.904
21.6056
108.02
111.376
332.244
334.602
331.222
330.433
21.5049
109.213
111.555
102.759
105.713
334.132
328.79
28.863
58.5481
19.7662
20.5183
28.6681
60.118
19.6305
68.0209
208.517
64.2048
208.964
29.529
19.5699
55.4193
20.334
29.2296
19.6468
57.6548
66.7498
213.183
208.127
66.5803
29.0541
20.5205
60.4292
19.6357
58.3353
19.5903
29.2403
66.4542
212.372
210.964
67.6267
29.0336
20.337
19.4977
59.6869
19.5097
58.6756
29.4681
67.2507
212.198
64.3346
214.25
29.2899
19.6293
58.6488
20.5091
28.0088
19.6041
60.5653
66.5023
212.639
65.8252
215.05
28.9273
20.3747
59.0331
19.6098
57.2593
19.6265
28.9199
65.2913
214.28
208.563
67.1064
28.7324
20.4978
19.5783
61.2533
19.6143
59.4189
29.284
63.459
216.276
212.379
67.6078
105.785
107.955
21.5001
111.831
110.831
328.933
333.638
334.924
333.315
21.5439
111.617
110.033
111.552
106.532
334.192
332.8
28.3721
19.5769
57.5306
20.3337
28.0404
19.6462
58.862
63.8522
209.874
61.3662
214.16
64.0738
208.116
61.5206
212.849
27.7793
20.3938
19.5172
60.3047
19.6018
57.6243
28.4453
27.6608
20.3275
19.5258
59.8082
19.6639