/*--------------------------------*- C++ -*----------------------------------*\
| =========                 |                                                 |
| \\      /  F ield         | OpenFOAM: The Open Source CFD Toolbox           |
|  \\    /   O peration     | Version:  2206                                  |
|   \\  /    A nd           | Website:  www.openfoam.com                      |
|    \\/     M anipulation  |                                                 |
\*---------------------------------------------------------------------------*/
FoamFile
{
    version     2.0;
    format      ascii;
    arch        "LSB;label=32;scalar=64";
    class       volScalarField;
    location    "10";
    object      p;
}
// * * * * * * * * * * * * * * * * * * * * * * * * * * * * * * * * * * * * * //

dimensions      [0 2 -2 0 0 0 0];

internalField   nonuniform List<scalar> 
66928
(
-0.0129986
-0.0129733
-0.0129732
-0.0129733
-0.0129986
-0.0129735
-0.0130494
-0.0134038
-0.0129733
-0.0129734
-0.0129975
-0.0129976
-0.0129972
-0.0129973
-0.0129974
-0.0129962
-0.0129974
-0.0129972
-0.0129963
-0.0129732
-0.0129957
-0.0129975
-0.0129973
-0.0129732
-0.0129964
-0.0129957
-0.0129978
-0.0129974
-0.0129974
-0.0129977
-0.0129964
-0.0129975
-0.0130506
-0.0132004
-0.0130506
-0.0132004
-0.0130507
-0.0130508
-0.0132012
-0.0132001
-0.0132001
-0.0134029
-0.0132536
-0.0134029
-0.0132536
-0.0132521
-0.0134026
-0.0134027
-0.0132538
-0.0132538
-0.012949
-0.0129495
-0.0129978
-0.0129493
-0.0129971
-0.0129496
-0.0129488
-0.0129972
-0.0129496
-0.0129979
-0.0129494
-0.0129972
-0.0129496
-0.0129488
-0.0129972
-0.0129491
-0.0129974
-0.0129975
-0.0129493
-0.0129493
-0.0129977
-0.0129491
-0.0129972
-0.012949
-0.0129971
-0.0129974
-0.0129972
-0.0129972
-0.0129973
-0.0129973
-0.0129974
-0.0129973
-0.0129974
-0.0129973
-0.0129973
-0.0129497
-0.0129979
-0.0129495
-0.0129973
-0.0129489
-0.0129498
-0.0129973
-0.0129497
-0.0129979
-0.0129495
-0.0129973
-0.0129498
-0.012949
-0.0129972
-0.0129493
-0.0129977
-0.0129976
-0.0129495
-0.0129496
-0.0129978
-0.0129492
-0.0129493
-0.0129975
-0.0129493
-0.0129974
-0.0130989
-0.013152
-0.0130989
-0.013152
-0.0131519
-0.0132003
-0.0132003
-0.0131521
-0.0131521
-0.0132005
-0.0130985
-0.0130502
-0.013051
-0.0130986
-0.0130509
-0.0130984
-0.0130991
-0.0130985
-0.0130502
-0.013051
-0.0130987
-0.0130509
-0.0130985
-0.0130992
-0.013099
-0.0130508
-0.0130507
-0.0130505
-0.0130987
-0.0130988
-0.0131522
-0.0132
-0.0131521
-0.0132006
-0.0131523
-0.0131999
-0.0131515
-0.0131522
-0.0132
-0.0131521
-0.0132006
-0.0131523
-0.0132
-0.0131515
-0.0133547
-0.0133018
-0.0133547
-0.0133018
-0.0133019
-0.0132537
-0.0132537
-0.0132534
-0.0133017
-0.0133018
-0.0133551
-0.0134031
-0.0133549
-0.0134025
-0.0133552
-0.0133544
-0.0134025
-0.0133551
-0.0134031
-0.013355
-0.0134025
-0.0133552
-0.0133543
-0.0134025
-0.0133014
-0.013254
-0.0132531
-0.0133016
-0.0132539
-0.0133014
-0.0133021
-0.0133014
-0.013254
-0.0132531
-0.0133016
-0.0132539
-0.0133014
-0.0133021
-0.0133547
-0.0134028
-0.0134028
-0.013355
-0.013355
-0.0134031
-0.0129516
-0.012948
-0.0129972
-0.0129972
-0.0129494
-0.0129493
-0.0129952
-0.0129517
-0.0129481
-0.0129972
-0.0129972
-0.0129494
-0.0129495
-0.0129952
-0.0130964
-0.0130508
-0.0130507
-0.0130999
-0.0130529
-0.0130985
-0.0130985
-0.013357
-0.0133534
-0.0134024
-0.0134024
-0.0133549
-0.0133547
-0.0134004
-0.0129734
-0.0129735
-0.0129477
-0.0129989
-0.0129501
-0.0129958
-0.0129475
-0.0129504
-0.0129985
-0.0129478
-0.012999
-0.0129503
-0.0129959
-0.0129477
-0.0129506
-0.0129988
-0.0129478
-0.0129508
-0.0129958
-0.0129989
-0.0129508
-0.0129477
-0.0129988
-0.0129479
-0.012999
-0.0129504
-0.012996
-0.0129507
-0.0129477
-0.0129988
-0.0129478
-0.0129508
-0.0129989
-0.0129958
-0.0129477
-0.0129508
-0.0129988
-0.0129481
-0.0129991
-0.0129505
-0.012996
-0.0129478
-0.0129508
-0.0129989
-0.0131542
-0.0131507
-0.0131999
-0.0131999
-0.0131979
-0.0131521
-0.013152
-0.0132994
-0.0133027
-0.0132536
-0.0132535
-0.0132558
-0.0133013
-0.0133014
-0.0130745
-0.0130746
-0.0130748
-0.0130495
-0.0134795
-0.0134797
-0.0134796
-0.0134545
-0.013883
-0.0138831
-0.0138831
-0.0138579
-0.0142868
-0.0142871
-0.0142869
-0.0142619
-0.0146886
-0.0146889
-0.0146887
-0.0146638
-0.0150886
-0.0150887
-0.0150888
-0.0150638
-0.0154866
-0.0154867
-0.0154867
-0.0154617
-0.0158854
-0.0158854
-0.0158854
-0.0158603
-0.0162861
-0.0162861
-0.0162861
-0.016261
-0.0166884
-0.0166885
-0.0166885
-0.0166633
-0.0170913
-0.0170913
-0.0170913
-0.0170662
-0.0174943
-0.0174943
-0.0174944
-0.0174692
-0.0178978
-0.0178978
-0.0178979
-0.0178726
-0.0183021
-0.018302
-0.0183021
-0.0182768
-0.0187075
-0.0187074
-0.0187075
-0.0186822
-0.0191134
-0.0191133
-0.0191135
-0.0190881
-0.0195192
-0.0195192
-0.0195193
-0.0194939
-0.0130747
-0.0130746
-0.0133785
-0.0133786
-0.0130493
-0.0134039
-0.0130746
-0.0130747
-0.0133785
-0.0133785
-0.0130747
-0.0133786
-0.0133785
-0.0130495
-0.0134037
-0.0130749
-0.0133785
-0.0133785
-0.0134037
-0.0134544
-0.0138072
-0.0134797
-0.0134798
-0.0137821
-0.0137821
-0.0134545
-0.0138072
-0.0134796
-0.0134796
-0.0137821
-0.0137821
-0.0134797
-0.0137822
-0.013782
-0.0134544
-0.0138071
-0.0134797
-0.0137821
-0.0137821
-0.0138072
-0.0138578
-0.0142113
-0.0138831
-0.0138831
-0.0141861
-0.0141863
-0.0138579
-0.0142115
-0.0138831
-0.0138831
-0.014186
-0.014186
-0.0138831
-0.0141863
-0.0141862
-0.0138578
-0.0142112
-0.0138831
-0.0141861
-0.0141862
-0.0142115
-0.0142617
-0.0146135
-0.0142869
-0.0142872
-0.0145884
-0.0145886
-0.014262
-0.0146137
-0.0142868
-0.0142868
-0.0145884
-0.0145883
-0.0142871
-0.0145886
-0.0145885
-0.0142616
-0.0146134
-0.0142871
-0.0145884
-0.0145885
-0.0146137
-0.0146636
-0.015014
-0.0146887
-0.0146889
-0.014989
-0.014989
-0.0146638
-0.015014
-0.0146887
-0.0146887
-0.014989
-0.014989
-0.0146889
-0.014989
-0.014989
-0.0146636
-0.0150141
-0.0146889
-0.0149891
-0.0149891
-0.0150141
-0.0150637
-0.0154121
-0.0150887
-0.0150887
-0.0153871
-0.0153871
-0.0150637
-0.015412
-0.0150887
-0.0150888
-0.0153872
-0.0153871
-0.0150888
-0.0153871
-0.0153871
-0.0150638
-0.0154121
-0.0150888
-0.0153872
-0.0153871
-0.015412
-0.0154617
-0.0158104
-0.0154867
-0.0154867
-0.0157855
-0.0157855
-0.0154616
-0.0158104
-0.0154867
-0.0154867
-0.0157854
-0.0157854
-0.0154867
-0.0157855
-0.0157855
-0.0154617
-0.0158103
-0.0154867
-0.0157855
-0.0157855
-0.0158104
-0.0158603
-0.0162108
-0.0158854
-0.0158855
-0.0161858
-0.0161858
-0.0158603
-0.0162107
-0.0158854
-0.0158853
-0.0161858
-0.0161857
-0.0158854
-0.0161858
-0.0161857
-0.0158602
-0.0162107
-0.0158854
-0.0161857
-0.0161857
-0.0162107
-0.0162609
-0.0166128
-0.0162862
-0.0162862
-0.0165878
-0.0165878
-0.0162609
-0.0166128
-0.0162861
-0.0162861
-0.0165877
-0.0165877
-0.0162861
-0.0165878
-0.0165877
-0.0162609
-0.0166128
-0.0162861
-0.0165878
-0.0165878
-0.0166128
-0.0166632
-0.0170158
-0.0166885
-0.0166885
-0.0169907
-0.0169906
-0.0166633
-0.0170157
-0.0166884
-0.0166884
-0.0169907
-0.0169906
-0.0166884
-0.0169907
-0.0169906
-0.0166632
-0.0170157
-0.0166885
-0.0169907
-0.0169906
-0.0170157
-0.0170662
-0.0174186
-0.0170914
-0.0170914
-0.0173935
-0.0173935
-0.0170662
-0.0174186
-0.0170914
-0.0170914
-0.0173935
-0.0173935
-0.0170913
-0.0173936
-0.0173935
-0.0170662
-0.0174187
-0.0170914
-0.0173936
-0.0173936
-0.0174187
-0.0174691
-0.017822
-0.0174943
-0.0174944
-0.0177969
-0.0177969
-0.0174691
-0.0178219
-0.0174943
-0.0174943
-0.0177969
-0.0177968
-0.0174943
-0.0177969
-0.0177968
-0.0174691
-0.017822
-0.0174944
-0.0177969
-0.0177969
-0.017822
-0.0178726
-0.018226
-0.0178979
-0.0178979
-0.0182009
-0.0182009
-0.0178726
-0.0182259
-0.0178979
-0.0178979
-0.0182009
-0.0182009
-0.0178978
-0.0182008
-0.0182008
-0.0178726
-0.018226
-0.0178979
-0.0182009
-0.0182008
-0.0182259
-0.0182768
-0.0186313
-0.0183021
-0.0183021
-0.0186061
-0.018606
-0.0182768
-0.0186312
-0.0183021
-0.0183021
-0.0186061
-0.0186061
-0.018302
-0.018606
-0.0186059
-0.0182768
-0.0186312
-0.0183021
-0.0186061
-0.018606
-0.0186312
-0.0186822
-0.0190372
-0.0187075
-0.0187075
-0.0190119
-0.0190119
-0.0186821
-0.019037
-0.0187075
-0.0187075
-0.019012
-0.0190119
-0.0187074
-0.0190119
-0.0190119
-0.0186822
-0.0190372
-0.0187075
-0.019012
-0.0190119
-0.0190371
-0.0190881
-0.0194429
-0.0191134
-0.0191134
-0.0194177
-0.0194177
-0.019088
-0.0194429
-0.0191134
-0.0191134
-0.0194177
-0.0194177
-0.0191133
-0.0194178
-0.0194177
-0.0190881
-0.0194429
-0.0191134
-0.0194178
-0.0194178
-0.019443
-0.0194939
-0.0195193
-0.0195192
-0.0194939
-0.0195192
-0.0195193
-0.0195192
-0.0198234
-0.0194939
-0.0195193
-0.0198234
-0.0198486
-0.0132
-0.0130505
-0.0130504
-0.0132003
-0.0130503
-0.0132003
-0.0132002
-0.0130507
-0.0130508
-0.0132004
-0.0130746
-0.0130748
-0.0130749
-0.0133784
-0.0133784
-0.0133783
-0.0133783
-0.0131985
-0.0130516
-0.0130746
-0.0131761
-0.013199
-0.0131761
-0.0130521
-0.0130507
-0.0132004
-0.0131985
-0.0130748
-0.0130519
-0.0131761
-0.0131761
-0.0131991
-0.0130524
-0.0130508
-0.0130508
-0.0132013
-0.0132001
-0.0132001
-0.0136042
-0.0134558
-0.013456
-0.0136044
-0.0134558
-0.0136045
-0.0136041
-0.0134558
-0.013456
-0.0136043
-0.0134797
-0.0134796
-0.0134796
-0.0137821
-0.0137821
-0.013782
-0.013782
-0.0136028
-0.013457
-0.0134796
-0.0135806
-0.0134575
-0.0136034
-0.0135805
-0.0134558
-0.0136044
-0.0136026
-0.0134795
-0.0134568
-0.0135806
-0.0134574
-0.0135805
-0.0136032
-0.0134559
-0.0134558
-0.0136056
-0.0136043
-0.0136042
-0.0140081
-0.013859
-0.0138593
-0.0140083
-0.013859
-0.0140086
-0.014008
-0.013859
-0.0138592
-0.0140083
-0.0138831
-0.013883
-0.013883
-0.014186
-0.0141861
-0.0141859
-0.014186
-0.0140066
-0.0138602
-0.013883
-0.0139842
-0.0138608
-0.0140073
-0.0139841
-0.0138589
-0.0140084
-0.0140064
-0.013883
-0.0138601
-0.0139841
-0.0138608
-0.013984
-0.014007
-0.0138592
-0.0138591
-0.0140094
-0.0140082
-0.0140081
-0.0144114
-0.0142631
-0.0142634
-0.0144117
-0.0142632
-0.0144119
-0.0144113
-0.014263
-0.0142632
-0.0144115
-0.014287
-0.0142868
-0.014287
-0.0145883
-0.0145884
-0.0145882
-0.0145884
-0.01441
-0.0142645
-0.014287
-0.0143878
-0.014265
-0.0144107
-0.0143877
-0.0142629
-0.0144116
-0.0144097
-0.0142868
-0.0142642
-0.0143875
-0.0142648
-0.0143875
-0.0144103
-0.0142635
-0.0142634
-0.0144128
-0.0144116
-0.0144115
-0.0148128
-0.0146651
-0.0146654
-0.014813
-0.0146653
-0.0148132
-0.0148127
-0.014665
-0.0146652
-0.0148129
-0.0146887
-0.0146886
-0.0146888
-0.0149889
-0.0149889
-0.0149889
-0.0149889
-0.0148113
-0.0146664
-0.0146888
-0.014789
-0.0146669
-0.0148119
-0.0147889
-0.014665
-0.014813
-0.0148112
-0.0146887
-0.0146663
-0.014789
-0.0146669
-0.0147889
-0.0148118
-0.0146655
-0.0146655
-0.0148142
-0.014813
-0.0148129
-0.0152116
-0.0150652
-0.0150654
-0.0152119
-0.0150652
-0.0152119
-0.0152117
-0.0150653
-0.0150655
-0.0152118
-0.0150887
-0.0150887
-0.0150887
-0.0153871
-0.0153871
-0.0153871
-0.015387
-0.0152101
-0.0150664
-0.0150887
-0.0151882
-0.0150669
-0.0152107
-0.0151882
-0.0150653
-0.0152119
-0.01521
-0.0150887
-0.0150664
-0.0151883
-0.015067
-0.0151882
-0.0152107
-0.0150654
-0.0150654
-0.0152131
-0.0152117
-0.0152116
-0.0156095
-0.015463
-0.0154632
-0.0156096
-0.015463
-0.0156097
-0.0156095
-0.015463
-0.0154632
-0.0156096
-0.0154867
-0.0154867
-0.0154867
-0.0157855
-0.0157855
-0.0157854
-0.0157855
-0.0156081
-0.0154641
-0.0154866
-0.0155862
-0.0154645
-0.0156085
-0.0155862
-0.0154629
-0.0156096
-0.015608
-0.0154866
-0.0154641
-0.0155862
-0.0154647
-0.0155862
-0.0156085
-0.0154631
-0.0154632
-0.0156111
-0.0156095
-0.0156094
-0.0160088
-0.0158616
-0.0158618
-0.016009
-0.0158616
-0.0160091
-0.0160087
-0.0158616
-0.0158617
-0.0160089
-0.0158855
-0.0158854
-0.0158855
-0.0161858
-0.0161858
-0.0161857
-0.0161857
-0.0160074
-0.0158627
-0.0158854
-0.0159855
-0.0158632
-0.016008
-0.0159854
-0.0158615
-0.0160089
-0.0160071
-0.0158853
-0.0158626
-0.0159854
-0.0158633
-0.0159854
-0.0160077
-0.0158617
-0.0158616
-0.0160103
-0.0160089
-0.0160088
-0.0164103
-0.016262
-0.0162623
-0.0164105
-0.016262
-0.0164106
-0.0164103
-0.016262
-0.0162622
-0.0164105
-0.0162862
-0.0162861
-0.0162862
-0.0165878
-0.0165878
-0.0165877
-0.0165877
-0.0164088
-0.0162632
-0.0162861
-0.0163866
-0.0162638
-0.0164093
-0.0163866
-0.0162618
-0.0164104
-0.0164086
-0.0162861
-0.0162631
-0.0163866
-0.0162638
-0.0163866
-0.0164091
-0.0162622
-0.0162621
-0.0164116
-0.0164102
-0.0164101
-0.0168129
-0.0166644
-0.0166647
-0.0168131
-0.0166644
-0.0168131
-0.0168129
-0.0166643
-0.0166645
-0.016813
-0.0166885
-0.0166885
-0.0166885
-0.0169907
-0.0169906
-0.0169906
-0.0169906
-0.0168114
-0.0166656
-0.0166884
-0.0167892
-0.0166661
-0.016812
-0.0167891
-0.0166643
-0.016813
-0.0168113
-0.0166884
-0.0166655
-0.0167892
-0.0166661
-0.0167891
-0.0168118
-0.0166645
-0.0166645
-0.0168142
-0.0168129
-0.0168128
-0.0172157
-0.0170673
-0.0170676
-0.017216
-0.0170673
-0.0172161
-0.0172158
-0.0170674
-0.0170676
-0.017216
-0.0170914
-0.0170914
-0.0170914
-0.0173935
-0.0173935
-0.0173935
-0.0173935
-0.0172142
-0.0170685
-0.0170913
-0.017192
-0.017069
-0.0172148
-0.017192
-0.0170673
-0.0172161
-0.0172141
-0.0170913
-0.0170685
-0.0171921
-0.0170691
-0.017192
-0.0172148
-0.0170675
-0.0170675
-0.0172171
-0.0172158
-0.0172158
-0.0176187
-0.0174703
-0.0174705
-0.0176189
-0.0174702
-0.0176189
-0.0176188
-0.0174703
-0.0174705
-0.0176189
-0.0174943
-0.0174943
-0.0174944
-0.0177969
-0.0177968
-0.0177968
-0.0177968
-0.0176172
-0.0174714
-0.0174943
-0.0175951
-0.0174719
-0.0176177
-0.0175951
-0.0174703
-0.017619
-0.0176171
-0.0174943
-0.0174715
-0.0175951
-0.0174721
-0.0175951
-0.0176177
-0.0174705
-0.0174705
-0.0176202
-0.0176188
-0.0176187
-0.0180225
-0.0178738
-0.017874
-0.0180228
-0.0178737
-0.0180228
-0.0180226
-0.0178738
-0.017874
-0.0180228
-0.0178978
-0.0178978
-0.0178978
-0.018201
-0.0182008
-0.0182009
-0.0182008
-0.0180209
-0.0178749
-0.0178978
-0.0179988
-0.0178754
-0.0180215
-0.0179987
-0.0178737
-0.0180228
-0.0180209
-0.0178978
-0.0178749
-0.0179988
-0.0178755
-0.0179988
-0.0180215
-0.0178739
-0.0178739
-0.0180238
-0.0180224
-0.0180224
-0.0184273
-0.0182778
-0.0182781
-0.0184276
-0.0182777
-0.0184275
-0.0184274
-0.0182778
-0.0182781
-0.0184276
-0.0183021
-0.0183021
-0.0183021
-0.0186061
-0.018606
-0.018606
-0.018606
-0.0184257
-0.0182789
-0.018302
-0.0184034
-0.0182795
-0.0184262
-0.0184033
-0.0182777
-0.0184276
-0.0184256
-0.0183021
-0.0182791
-0.0184034
-0.0182797
-0.0184034
-0.0184263
-0.0182779
-0.0182779
-0.0184285
-0.0184272
-0.0184272
-0.0188328
-0.0186833
-0.0186835
-0.018833
-0.0186832
-0.0188329
-0.018833
-0.0186833
-0.0186836
-0.0188331
-0.0187075
-0.0187076
-0.0187075
-0.0190119
-0.0190118
-0.0190119
-0.0190118
-0.0188313
-0.0186843
-0.0187074
-0.0188089
-0.0186849
-0.0188318
-0.0188089
-0.0186832
-0.0188331
-0.0188313
-0.0187075
-0.0186845
-0.0188091
-0.0186851
-0.018809
-0.0188318
-0.0186834
-0.0186834
-0.0188342
-0.0188327
-0.0188327
-0.0192387
-0.0190892
-0.0190894
-0.0192389
-0.0190891
-0.019239
-0.0192388
-0.0190893
-0.0190895
-0.0192389
-0.0191133
-0.0191134
-0.0191134
-0.0194176
-0.0194176
-0.0194176
-0.0194177
-0.0192372
-0.0190903
-0.0191133
-0.0192148
-0.0190908
-0.0192378
-0.0192148
-0.0190893
-0.0192391
-0.0192372
-0.0191134
-0.0190905
-0.0192149
-0.019091
-0.0192148
-0.0192379
-0.0190893
-0.0190894
-0.0192401
-0.0192389
-0.0192389
-0.0196445
-0.0194949
-0.0194952
-0.0196447
-0.0194948
-0.0196448
-0.0196445
-0.0194949
-0.0194952
-0.0196447
-0.0195192
-0.0195193
-0.0195192
-0.0198233
-0.0196431
-0.0194962
-0.0195191
-0.0196206
-0.0194967
-0.0196436
-0.0196206
-0.0194948
-0.0196448
-0.019643
-0.0195192
-0.0194963
-0.0196207
-0.0194969
-0.0196206
-0.0196436
-0.0194952
-0.0194952
-0.0196459
-0.0196447
-0.0196447
-0.0132
-0.0130503
-0.0132002
-0.0130504
-0.0131984
-0.0130517
-0.0130746
-0.0131761
-0.013176
-0.0130521
-0.0131991
-0.0131984
-0.0130515
-0.0130746
-0.0131761
-0.013199
-0.0131761
-0.0130521
-0.0132536
-0.0134028
-0.0134027
-0.0132536
-0.0132536
-0.0134029
-0.0132534
-0.0134027
-0.0132551
-0.0132774
-0.0134016
-0.0133785
-0.0132773
-0.013401
-0.0132547
-0.0132551
-0.0132773
-0.0134017
-0.0133785
-0.0132545
-0.0132772
-0.013401
-0.0130505
-0.0130505
-0.0132013
-0.0132
-0.0132
-0.0130503
-0.0132001
-0.013403
-0.0132534
-0.0132521
-0.0134027
-0.0134027
-0.0132536
-0.0132535
-0.0134029
-0.0132533
-0.0131986
-0.0130518
-0.0130746
-0.013176
-0.0131759
-0.0130523
-0.0131991
-0.0132002
-0.0130507
-0.0132004
-0.0130508
-0.0131986
-0.0130746
-0.0130518
-0.013176
-0.0131759
-0.0131992
-0.0130523
-0.0132537
-0.0134029
-0.0134027
-0.0132536
-0.0132551
-0.0132773
-0.0134016
-0.0133784
-0.0132772
-0.0134011
-0.0132547
-0.0132537
-0.0134029
-0.0132536
-0.0134027
-0.0132551
-0.0132773
-0.0133784
-0.0134017
-0.0132772
-0.0132547
-0.0134011
-0.0132
-0.0130504
-0.0132001
-0.0130506
-0.0131985
-0.0130747
-0.0130517
-0.0131762
-0.0131761
-0.0131991
-0.0130521
-0.0132
-0.0130506
-0.0132002
-0.0130506
-0.013255
-0.0132774
-0.0134016
-0.0133785
-0.0132545
-0.0132773
-0.0134011
-0.0132535
-0.0134028
-0.0132534
-0.0134027
-0.013255
-0.0132774
-0.0133784
-0.0134016
-0.0132773
-0.0132546
-0.0134011
-0.0132535
-0.0134028
-0.0132534
-0.0134027
-0.0130509
-0.0130509
-0.0132012
-0.0132001
-0.0132001
-0.0130507
-0.0132003
-0.0134029
-0.0132536
-0.0132522
-0.0134027
-0.0134026
-0.0132537
-0.0132537
-0.0134028
-0.0132534
-0.0131985
-0.0130749
-0.0130518
-0.0131763
-0.0131762
-0.0131991
-0.0130524
-0.0132001
-0.0130507
-0.0132003
-0.0130508
-0.0132001
-0.0130506
-0.0132003
-0.0130508
-0.0132552
-0.0132774
-0.0133784
-0.0134015
-0.0132773
-0.0132547
-0.0134009
-0.0132552
-0.0132774
-0.0133783
-0.0134015
-0.0132773
-0.0132546
-0.0134009
-0.0132537
-0.0134028
-0.0132535
-0.0134025
-0.0132537
-0.0134027
-0.0132535
-0.0134025
-0.0130505
-0.0132003
-0.0130505
-0.0132004
-0.0132522
-0.0134026
-0.0134025
-0.0132536
-0.0132536
-0.0134028
-0.0132534
-0.0134028
-0.0132534
-0.0134557
-0.0136044
-0.0134558
-0.0136043
-0.0134559
-0.0134559
-0.0136056
-0.0136042
-0.0136041
-0.013806
-0.0136572
-0.0138059
-0.0136571
-0.0136561
-0.0138058
-0.0138057
-0.0136574
-0.0136573
-0.0136042
-0.0134559
-0.0134561
-0.0136045
-0.0136026
-0.0134569
-0.0134797
-0.0135806
-0.0134576
-0.0136032
-0.0135805
-0.0136027
-0.013457
-0.0134797
-0.0135806
-0.0134576
-0.0136033
-0.0135806
-0.0136574
-0.0138059
-0.0136572
-0.0138059
-0.0136575
-0.0138061
-0.0136573
-0.0138059
-0.013659
-0.0136813
-0.0138048
-0.0137821
-0.0136585
-0.0136813
-0.0138043
-0.013659
-0.0136814
-0.0138049
-0.0137821
-0.0136585
-0.0136813
-0.0138043
-0.013456
-0.013456
-0.0136057
-0.0136043
-0.0136044
-0.0134558
-0.0136046
-0.0138061
-0.0136572
-0.0136562
-0.0138058
-0.0138058
-0.0136575
-0.0136575
-0.0138061
-0.0136573
-0.0136026
-0.0134569
-0.0134796
-0.0135805
-0.0134574
-0.0136032
-0.0135805
-0.0136041
-0.0134558
-0.013456
-0.0136043
-0.0136026
-0.0134796
-0.0134568
-0.0135805
-0.0134574
-0.0135805
-0.0136032
-0.0136573
-0.0138059
-0.0136572
-0.0138058
-0.0136588
-0.0136813
-0.0138048
-0.013782
-0.0136584
-0.0136812
-0.0138043
-0.0136573
-0.0138059
-0.0136572
-0.0138058
-0.0136588
-0.0136813
-0.013782
-0.0138048
-0.0136812
-0.0136583
-0.0138043
-0.0136043
-0.0134559
-0.013456
-0.0136046
-0.0136028
-0.0134797
-0.0134569
-0.0135805
-0.0134575
-0.0135805
-0.0136033
-0.0136043
-0.0134558
-0.0134561
-0.0136045
-0.0136589
-0.0136814
-0.0138048
-0.0137821
-0.0136585
-0.0136813
-0.0138044
-0.0136574
-0.013806
-0.0136574
-0.0138059
-0.0136589
-0.0136812
-0.013782
-0.0138048
-0.0136812
-0.0136585
-0.0138044
-0.0136574
-0.013806
-0.0136573
-0.0138059
-0.0134559
-0.0134558
-0.0136056
-0.0136042
-0.0136041
-0.0134556
-0.0136044
-0.0138059
-0.0136571
-0.0136561
-0.0138057
-0.0138057
-0.0136573
-0.0136573
-0.0138059
-0.0136571
-0.0136026
-0.0134796
-0.0134568
-0.0135806
-0.0134575
-0.0135805
-0.0136032
-0.0136041
-0.0134557
-0.013456
-0.0136043
-0.0136041
-0.0134557
-0.013456
-0.0136044
-0.0136589
-0.0136813
-0.0137821
-0.0138047
-0.0136813
-0.0136584
-0.0138042
-0.0136589
-0.0136813
-0.013782
-0.0138048
-0.0136812
-0.0136584
-0.0138042
-0.0136573
-0.0138059
-0.0136571
-0.0138058
-0.0136573
-0.0138059
-0.0136571
-0.0138058
-0.0134557
-0.0136045
-0.0134556
-0.0136044
-0.0136561
-0.0138058
-0.0138057
-0.0136574
-0.0136573
-0.013806
-0.0136572
-0.0138059
-0.0136571
-0.0138589
-0.0140084
-0.0138589
-0.0140084
-0.0138591
-0.0138591
-0.0140093
-0.0140082
-0.0140081
-0.0142103
-0.0140614
-0.0142103
-0.0140613
-0.01406
-0.0142101
-0.01421
-0.0140616
-0.0140615
-0.0140081
-0.0138591
-0.0138593
-0.0140084
-0.0140064
-0.0138602
-0.0138831
-0.0139842
-0.0138609
-0.0140071
-0.0139841
-0.0140065
-0.0138602
-0.0138831
-0.0139842
-0.0138609
-0.0140072
-0.0139841
-0.0140615
-0.0142103
-0.0140614
-0.0142101
-0.0140615
-0.0142105
-0.0140615
-0.0142101
-0.014063
-0.0140852
-0.0142091
-0.0141861
-0.0140625
-0.0140851
-0.0142085
-0.014063
-0.0140853
-0.0142093
-0.0141861
-0.0140626
-0.0140851
-0.0142085
-0.0138592
-0.0138592
-0.0140094
-0.0140083
-0.0140083
-0.013859
-0.0140086
-0.0142106
-0.0140615
-0.0140601
-0.0142103
-0.0142104
-0.0140617
-0.0140617
-0.0142106
-0.0140616
-0.0140065
-0.0138601
-0.013883
-0.0139842
-0.0138607
-0.0140071
-0.013984
-0.014008
-0.013859
-0.0138592
-0.0140083
-0.0140064
-0.0138831
-0.0138601
-0.0139841
-0.0138607
-0.0139841
-0.0140071
-0.0140613
-0.0142102
-0.0140613
-0.0142099
-0.0140628
-0.0140852
-0.014209
-0.0141859
-0.0140625
-0.014085
-0.0142084
-0.0140613
-0.0142102
-0.0140613
-0.0142099
-0.0140628
-0.0140851
-0.0141859
-0.014209
-0.014085
-0.0140624
-0.0142084
-0.0140082
-0.0138591
-0.0138593
-0.0140085
-0.0140066
-0.0138831
-0.0138602
-0.0139842
-0.0138608
-0.0139841
-0.0140072
-0.0140082
-0.0138591
-0.0138593
-0.0140084
-0.0140629
-0.0140853
-0.0142093
-0.0141862
-0.0140626
-0.0140852
-0.0142088
-0.0140616
-0.0142105
-0.0140616
-0.0142103
-0.0140629
-0.0140852
-0.0141861
-0.0142094
-0.0140852
-0.0140626
-0.0142087
-0.0140616
-0.0142105
-0.0140615
-0.0142103
-0.0138591
-0.0138591
-0.0140093
-0.0140081
-0.0140081
-0.0138589
-0.0140084
-0.0142102
-0.0140613
-0.0140599
-0.01421
-0.0142101
-0.0140615
-0.0140615
-0.0142103
-0.0140613
-0.0140064
-0.013883
-0.0138602
-0.0139842
-0.0138608
-0.0139841
-0.0140071
-0.014008
-0.0138589
-0.0138593
-0.0140083
-0.014008
-0.013859
-0.0138593
-0.0140084
-0.0140629
-0.0140852
-0.014186
-0.014209
-0.0140851
-0.0140625
-0.0142084
-0.0140629
-0.0140852
-0.014186
-0.0142092
-0.0140851
-0.0140625
-0.0142084
-0.0140614
-0.0142102
-0.0140613
-0.01421
-0.0140615
-0.0142104
-0.0140615
-0.01421
-0.013859
-0.0140085
-0.0138589
-0.0140084
-0.01406
-0.0142104
-0.0142103
-0.0140616
-0.0140616
-0.0142106
-0.0140615
-0.0142105
-0.0140615
-0.0142631
-0.0144117
-0.014263
-0.0144116
-0.0142633
-0.0142632
-0.0144126
-0.0144114
-0.0144113
-0.0146126
-0.0144644
-0.0146125
-0.0144643
-0.0144629
-0.0146123
-0.0146122
-0.0144645
-0.0144645
-0.0144114
-0.0142633
-0.0142635
-0.0144118
-0.0144098
-0.0142643
-0.0142869
-0.0143876
-0.0142649
-0.0144104
-0.0143876
-0.0144098
-0.0142644
-0.014287
-0.0143878
-0.014265
-0.0144106
-0.0143877
-0.0144645
-0.0146125
-0.0144644
-0.0146124
-0.0144646
-0.0146127
-0.0144645
-0.0146124
-0.014466
-0.0144881
-0.0146113
-0.0145884
-0.0144655
-0.0144881
-0.0146108
-0.0144661
-0.0144882
-0.0146115
-0.0145884
-0.0144657
-0.0144881
-0.0146108
-0.0142635
-0.0142635
-0.0144129
-0.0144116
-0.0144117
-0.0142633
-0.0144119
-0.0146128
-0.0144645
-0.0144632
-0.0146125
-0.0146125
-0.0144647
-0.0144647
-0.0146128
-0.0144646
-0.0144097
-0.0142641
-0.0142868
-0.0143875
-0.0142646
-0.0144103
-0.0143874
-0.0144112
-0.014263
-0.0142632
-0.0144115
-0.0144097
-0.0142868
-0.0142641
-0.0143875
-0.0142646
-0.0143874
-0.0144103
-0.0144643
-0.0146124
-0.0144643
-0.0146122
-0.0144657
-0.014488
-0.0146112
-0.0145883
-0.0144654
-0.0144879
-0.0146106
-0.0144643
-0.0146124
-0.0144643
-0.0146122
-0.0144657
-0.014488
-0.0145882
-0.0146112
-0.0144879
-0.0144653
-0.0146106
-0.0144116
-0.0142634
-0.0142636
-0.0144119
-0.0144101
-0.0142871
-0.0142645
-0.0143877
-0.014265
-0.0143877
-0.0144106
-0.0144116
-0.0142634
-0.0142636
-0.0144119
-0.0144661
-0.0144883
-0.0146115
-0.0145885
-0.0144657
-0.0144882
-0.014611
-0.0144647
-0.0146127
-0.0144646
-0.0146126
-0.0144661
-0.0144882
-0.0145885
-0.0146115
-0.0144881
-0.0144657
-0.014611
-0.0144647
-0.0146127
-0.0144646
-0.0146126
-0.0142631
-0.0142632
-0.0144126
-0.0144113
-0.0144113
-0.014263
-0.0144116
-0.0146125
-0.0144642
-0.0144629
-0.0146122
-0.0146122
-0.0144644
-0.0144644
-0.0146125
-0.0144643
-0.0144097
-0.0142869
-0.0142644
-0.0143877
-0.0142649
-0.0143876
-0.0144105
-0.0144113
-0.014263
-0.0142634
-0.0144116
-0.0144114
-0.0142633
-0.0142634
-0.0144118
-0.014466
-0.014488
-0.0145884
-0.0146112
-0.014488
-0.0144655
-0.0146107
-0.014466
-0.0144882
-0.0145884
-0.0146114
-0.014488
-0.0144657
-0.0146107
-0.0144645
-0.0146124
-0.0144644
-0.0146123
-0.0144645
-0.0146126
-0.0144645
-0.0146123
-0.0142633
-0.0144119
-0.0142632
-0.0144118
-0.0144631
-0.0146125
-0.0146124
-0.0144647
-0.0144646
-0.0146128
-0.0144645
-0.0146127
-0.0144645
-0.0146651
-0.014813
-0.014665
-0.014813
-0.0146652
-0.0146652
-0.014814
-0.0148127
-0.0148127
-0.0150129
-0.0148655
-0.0150129
-0.0148655
-0.014864
-0.0150127
-0.0150127
-0.0148657
-0.0148657
-0.0148128
-0.0146653
-0.0146655
-0.0148131
-0.0148111
-0.0146663
-0.0146887
-0.0147889
-0.0146669
-0.0148117
-0.0147889
-0.0148111
-0.0146664
-0.0146888
-0.014789
-0.014667
-0.0148119
-0.0147889
-0.0148657
-0.0150129
-0.0148655
-0.0150126
-0.0148657
-0.0150129
-0.0148656
-0.0150126
-0.0148671
-0.0148891
-0.0150117
-0.0149889
-0.0148667
-0.0148889
-0.015011
-0.0148671
-0.0148891
-0.0150117
-0.0149889
-0.0148668
-0.0148889
-0.015011
-0.0146655
-0.0146655
-0.0148141
-0.0148129
-0.0148129
-0.0146654
-0.0148132
-0.015013
-0.0148656
-0.0148641
-0.0150127
-0.0150128
-0.0148659
-0.0148658
-0.015013
-0.0148656
-0.0148111
-0.0146661
-0.0146886
-0.0147889
-0.0146666
-0.0148117
-0.0147888
-0.0148127
-0.014665
-0.0146652
-0.0148129
-0.0148111
-0.0146886
-0.0146661
-0.0147889
-0.0146666
-0.0147888
-0.0148118
-0.0148656
-0.0150129
-0.0148655
-0.0150127
-0.014867
-0.014889
-0.0150117
-0.0149889
-0.0148666
-0.0148889
-0.0150111
-0.0148656
-0.0150129
-0.0148656
-0.0150127
-0.014867
-0.014889
-0.0149889
-0.0150117
-0.0148889
-0.0148667
-0.0150111
-0.0148129
-0.0146654
-0.0146656
-0.0148131
-0.0148113
-0.0146888
-0.0146664
-0.0147891
-0.014667
-0.014789
-0.0148119
-0.0148129
-0.0146654
-0.0146656
-0.0148132
-0.0148671
-0.0148891
-0.0150118
-0.0149889
-0.0148667
-0.014889
-0.0150112
-0.0148657
-0.015013
-0.0148657
-0.0150128
-0.0148671
-0.0148891
-0.0149889
-0.0150118
-0.014889
-0.0148668
-0.0150112
-0.0148657
-0.015013
-0.0148657
-0.0150128
-0.0146652
-0.0146652
-0.014814
-0.0148127
-0.0148128
-0.0146651
-0.0148131
-0.0150129
-0.0148655
-0.014864
-0.0150127
-0.0150127
-0.0148657
-0.0148657
-0.015013
-0.0148655
-0.0148112
-0.0146888
-0.0146664
-0.0147891
-0.0146669
-0.014789
-0.0148119
-0.0148128
-0.0146651
-0.0146655
-0.014813
-0.0148128
-0.0146653
-0.0146655
-0.0148131
-0.0148672
-0.0148891
-0.014989
-0.0150117
-0.014889
-0.0148667
-0.0150111
-0.0148672
-0.0148891
-0.0149889
-0.0150118
-0.014889
-0.0148668
-0.0150111
-0.0148657
-0.0150129
-0.0148656
-0.0150127
-0.0148657
-0.015013
-0.0148656
-0.0150127
-0.0146654
-0.0148132
-0.0146653
-0.0148132
-0.0148641
-0.0150129
-0.0150128
-0.0148658
-0.0148659
-0.015013
-0.0148656
-0.0150131
-0.0148656
-0.0150652
-0.0152119
-0.0150653
-0.0152119
-0.0150654
-0.0150654
-0.0152132
-0.0152117
-0.0152116
-0.0154108
-0.0152639
-0.0154108
-0.0152639
-0.0152627
-0.0154106
-0.0154106
-0.0152641
-0.0152641
-0.0152116
-0.0150652
-0.0150655
-0.0152118
-0.01521
-0.0150663
-0.0150887
-0.0151883
-0.0150669
-0.0152106
-0.0151883
-0.01521
-0.0150663
-0.0150887
-0.0151883
-0.0150669
-0.0152106
-0.0151883
-0.0152641
-0.0154107
-0.015264
-0.0154105
-0.0152641
-0.0154107
-0.0152639
-0.0154104
-0.0152657
-0.0152877
-0.0154096
-0.0153871
-0.0152652
-0.0152877
-0.0154089
-0.0152657
-0.0152877
-0.0154096
-0.0153871
-0.0152651
-0.0152876
-0.0154089
-0.0150654
-0.0150654
-0.0152131
-0.0152116
-0.0152117
-0.0150653
-0.0152119
-0.0154108
-0.0152639
-0.0152627
-0.0154106
-0.0154105
-0.0152641
-0.0152641
-0.0154107
-0.0152639
-0.0152102
-0.0150664
-0.0150887
-0.0151883
-0.0150669
-0.0152107
-0.0151883
-0.0152117
-0.0150653
-0.0150655
-0.0152118
-0.0152102
-0.0150887
-0.0150663
-0.0151883
-0.0150669
-0.0151883
-0.0152107
-0.0152641
-0.0154107
-0.015264
-0.0154105
-0.0152656
-0.0152877
-0.0154096
-0.0153871
-0.0152651
-0.0152876
-0.015409
-0.0152641
-0.0154107
-0.015264
-0.0154105
-0.0152656
-0.0152877
-0.0153871
-0.0154096
-0.0152877
-0.0152652
-0.0154091
-0.0152117
-0.0150653
-0.0150655
-0.0152118
-0.0152101
-0.0150887
-0.0150664
-0.0151883
-0.0150669
-0.0151882
-0.0152107
-0.0152117
-0.0150654
-0.0150655
-0.0152118
-0.0152656
-0.0152877
-0.0154095
-0.0153871
-0.0152651
-0.0152876
-0.0154089
-0.0152641
-0.0154106
-0.0152639
-0.0154103
-0.0152656
-0.0152876
-0.0153871
-0.0154095
-0.0152876
-0.0152651
-0.0154089
-0.0152641
-0.0154106
-0.015264
-0.0154103
-0.0150654
-0.0150654
-0.0152132
-0.0152117
-0.0152117
-0.0150652
-0.0152119
-0.0154108
-0.0152639
-0.0152627
-0.0154106
-0.0154106
-0.0152642
-0.0152641
-0.0154108
-0.0152639
-0.01521
-0.0150887
-0.0150664
-0.0151883
-0.015067
-0.0151882
-0.0152106
-0.0152116
-0.0150653
-0.0150655
-0.0152119
-0.0152116
-0.0150653
-0.0150655
-0.0152118
-0.0152657
-0.0152877
-0.0153871
-0.0154095
-0.0152877
-0.0152652
-0.0154089
-0.0152657
-0.0152877
-0.0153871
-0.0154096
-0.0152876
-0.0152651
-0.0154089
-0.0152641
-0.0154107
-0.0152639
-0.0154104
-0.0152641
-0.0154107
-0.0152639
-0.0154104
-0.0150653
-0.0152119
-0.0150653
-0.0152119
-0.0152627
-0.0154105
-0.0154105
-0.0152641
-0.0152641
-0.0154107
-0.0152639
-0.0154107
-0.0152639
-0.0154629
-0.0156096
-0.0154629
-0.0156096
-0.0154632
-0.0154631
-0.015611
-0.0156094
-0.0156094
-0.0158091
-0.0156618
-0.015809
-0.0156617
-0.0156607
-0.0158089
-0.0158088
-0.015662
-0.015662
-0.0156095
-0.015463
-0.0154632
-0.0156096
-0.015608
-0.0154642
-0.0154867
-0.0155862
-0.0154647
-0.0156085
-0.0155862
-0.015608
-0.0154642
-0.0154867
-0.0155862
-0.0154648
-0.0156085
-0.0155862
-0.0156621
-0.0158091
-0.0156619
-0.0158089
-0.0156621
-0.0158091
-0.0156619
-0.0158089
-0.0156637