/*--------------------------------*- C++ -*----------------------------------*\
| =========                 |                                                 |
| \\      /  F ield         | OpenFOAM: The Open Source CFD Toolbox           |
|  \\    /   O peration     | Version:  2206                                  |
|   \\  /    A nd           | Website:  www.openfoam.com                      |
|    \\/     M anipulation  |                                                 |
\*---------------------------------------------------------------------------*/
FoamFile
{
    version     2.0;
    format      ascii;
    arch        "LSB;label=32;scalar=64";
    class       surfaceScalarField;
    location    "10";
    object      phi;
}
// * * * * * * * * * * * * * * * * * * * * * * * * * * * * * * * * * * * * * //

dimensions      [0 3 -1 0 0 0 0];

oriented        oriented;

internalField   nonuniform List<scalar> 
197159
(
-4.46728e-11
-4.83847e-11
2.35925e-08
-2.34634e-08
-1.72477e-11
-1.87626e-11
-8.96385e-12
-4.54873e-11
-8.94975e-12
7.14451e-12
-3.18732e-11
-1.4437e-11
1.25738e-11
3.17006e-11
9.88334e-08
2.12069e-11
9.01466e-12
-1.39001e-11
-4.66621e-11
-2.23147e-11
2.26896e-11
3.90599e-11
-4.25225e-11
4.10549e-11
-3.90603e-11
9.71117e-08
4.16185e-11
4.41876e-11
-6.784e-14
-2.2116e-11
-1.97794e-11
2.24349e-11
2.16069e-11
-4.20156e-11
4.04758e-11
-2.21117e-11
9.80142e-08
-4.07605e-11
-2.34817e-08
-2.63866e-11
-4.30733e-12
2.35949e-08
-2.81132e-11
-1.06387e-10
-2.14613e-11
-4.12055e-11
-9.74556e-12
-1.3624e-11
2.43149e-11
1.18407e-11
9.78844e-08
-1.459e-11
1.80974e-11
1.98798e-11
2.34635e-08
4.44358e-11
4.66008e-11
-2.3463e-08
-1.7681e-11
-1.76666e-11
-4.62536e-11
-4.71107e-11
2.35917e-08
-4.93515e-11
9.97941e-08
6.643e-11
-4.64685e-12
1.00039e-07
-1.463e-11
-3.92219e-13
-9.03579e-13
1.10605e-08
-1.10661e-08
6.94171e-12
2.26016e-12
6.25164e-13
1.08615e-08
8.11001e-12
5.72407e-13
2.73897e-08
1.06465e-11
-2.74011e-08
-1.3453e-13
5.65359e-12
2.69105e-08
1.81897e-11
-2.693e-08
-1.98897e-12
-8.6868e-13
-1.98095e-08
1.63051e-12
1.98027e-08
5.19435e-12
-1.90142e-12
-2.29825e-08
4.1607e-12
2.298e-08
8.46526e-12
3.52825e-12
1.94451e-08
5.79111e-12
3.88853e-11
-8.84354e-15
-3.9794e-12
-1.08577e-11
2.197e-08
1.59769e-11
-2.2694e-08
1.15889e-11
2.26806e-08
-2.43882e-12
1.02364e-11
7.02098e-11
-9.77066e-11
9.71202e-11
-7.14577e-11
9.8463e-08
-2.38066e-13
-2.25524e-08
-8.67988e-12
6.66657e-11
2.25336e-08
8.3857e-12
-4.06632e-13
3.42773e-12
1.944e-08
5.45518e-12
3.88154e-11
-1.08458e-11
-4.02231e-12
2.19659e-08
5.21924e-12
5.56592e-11
-9.68523e-11
9.71887e-11
-5.53895e-11
9.95169e-08
-5.91436e-12
1.62527e-11
-2.268e-08
1.15766e-11
2.26665e-08
-2.25497e-08
6.64981e-11
-8.86133e-12
2.25307e-08
2.32539e-12
1.08603e-08
8.41289e-12
1.86068e-11
-2.69887e-08
-1.70172e-12
2.69683e-08
5.94942e-13
7.14059e-13
1.0552e-11
-2.7341e-08
-6.52014e-14
2.73292e-08
-1.04398e-12
-1.1068e-08
1.10616e-08
8.08787e-12
7.14201e-13
-2.53407e-12
-2.29888e-08
4.50482e-12
2.29868e-08
-1.9815e-08
2.13924e-12
1.98072e-08
5.35722e-12
7.30552e-13
1.10676e-08
2.50101e-13
-8.11246e-12
-9.26703e-13
1.10628e-08
-1.10688e-08
-1.72422e-12
8.65498e-12
-3.34563e-12
1.0873e-08
-1.05851e-13
-7.9771e-12
1.49131e-12
1.08621e-08
-1.08731e-08
1.09654e-12
8.37625e-12
-1.00489e-11
1.31858e-12
2.74014e-08
-2.12715e-12
-1.83014e-11
1.03618e-12
2.69296e-08
-4.92456e-12
2.35913e-08
-2.34631e-08
-1.74999e-11
-1.74912e-11
-4.58138e-11
-4.73904e-11
2.73908e-08
9.46858e-13
-2.74024e-08
1.00742e-11
-4.53344e-13
2.69112e-08
-2.58843e-12
-2.69304e-08
1.71373e-11
6.04893e-12
-2.27716e-14
-1.10696e-08
-1.08052e-12
1.10632e-08
7.54127e-12
5.10653e-13
1.10695e-08
-7.4147e-14
-7.17146e-12
2.54959e-12
-1.08732e-08
1.01779e-12
1.08619e-08
7.67343e-12
-3.91966e-12
1.08733e-08
2.36381e-13
-7.55305e-12
2.34626e-08
1.78306e-11
2.07383e-11
4.33068e-11
4.67815e-11
1.05028e-11
-2.74033e-08
5.63948e-13
2.38384e-13
2.73918e-08
1.76643e-11
-2.69309e-08
-2.26284e-12
5.82362e-12
2.69121e-08
1.40944e-12
-1.03939e-11
2.74026e-08
-2.44872e-12
2.69986e-13
-1.90441e-11
2.69305e-08
-4.48611e-12
4.11808e-13
7.43257e-13
-8.35918e-12
-1.10589e-08
2.42959e-12
-1.53901e-11
2.20807e-08
9.96357e-12
-8.2379e-12
-2.35505e-08
-1.54458e-11
2.35344e-08
2.0782e-11
2.14362e-11
6.5915e-13
-1.00895e-11
-1.4799e-12
-1.9047e-08
2.52873e-12
3.78462e-13
1.90386e-08
5.42496e-12
-8.51765e-13
-5.54581e-12
-2.00583e-11
-2.14508e-11
-9.7938e-12
2.20692e-08
8.36385e-12
5.35404e-12
-2.02109e-11
2.10093e-08
1.15572e-11
-7.47638e-12
-2.26217e-08
-2.05432e-11
2.26013e-08
2.85076e-11
3.06139e-11
1.77953e-12
-1.80154e-11
-5.50603e-12
-1.86124e-08
5.19255e-12
1.47057e-13
1.85999e-08
5.19525e-12
-5.21607e-13
-5.09218e-12
-2.84029e-11
-2.9945e-11
-1.20313e-11
2.09988e-08
7.19997e-12
1.21342e-12
1.45879e-12
2.08824e-08
-9.1977e-09
1.62579e-12
9.18935e-09
7.14479e-12
-9.15614e-09
1.02595e-12
9.1467e-09
8.59893e-12
-8.03401e-12
-8.40422e-12
2.08632e-08
-9.66633e-12
-3.15268e-11
-5.58359e-12
-1.97619e-08
-2.68303e-08
2.06441e-11
1.23381e-12
2.68111e-08
-1.013e-12
-1.35434e-10
4.59573e-11
-2.67143e-08
-3.60466e-11
9.38829e-09
8.5968e-12
-9.37273e-09
-3.44809e-12
1.55631e-12
6.16767e-12
2.00253e-11
2.62753e-08
1.3945e-12
9.13475e-09
9.62147e-12
-8.32375e-12
3.19531e-11
2.15837e-08
-1.1122e-12
6.49299e-14
1.81056e-08
5.62394e-12
1.53145e-08
5.45474e-12
1.70529e-12
6.18143e-12
1.9893e-11
2.62631e-08
1.33546e-12
9.12996e-09
9.86635e-12
-1.21495e-12
1.8101e-08
5.70478e-12
-8.31708e-12
3.18341e-11
2.15741e-08
1.53065e-08
5.39924e-12
-2.1008e-11
5.60514e-12
2.10086e-08
1.12707e-11
-7.66919e-12
-2.29719e-08
-1.96512e-11
3.02882e-11
3.00758e-11
2.29498e-08
-1.79618e-11
1.77792e-12
-5.85446e-12
-1.85949e-08
5.47109e-12
8.43236e-13
1.85819e-08
5.032e-12
-2.90277e-11
-2.93342e-11
-9.2462e-13
-4.57781e-12
-1.13043e-11
8.24003e-12
2.09975e-08
2.39295e-12
-1.35521e-11
2.20897e-08
9.60821e-12
-9.75784e-12
-2.31911e-08
-1.63707e-11
1.8694e-11
2.41697e-11
2.31752e-08
7.4199e-13
-1.09833e-11
-5.97975e-13
1.56165e-13
-1.90658e-08
2.34205e-12
9.22767e-13
1.9057e-08
5.58107e-12
-4.26846e-13
-5.43129e-12
-3.02518e-11
-6.33953e-12
-1.0011e-11
7.51819e-12
2.20783e-08
1.0517e-12
1.58592e-12
2.08841e-08
-9.15603e-09
1.1057e-12
9.14676e-09
9.00848e-12
-9.19945e-09
9.79309e-13
9.19142e-09
8.00814e-12
-8.72371e-12
-6.79847e-12
2.08647e-08
8.27626e-13
-7.98524e-12
-3.04364e-12
4.87082e-13
-4.92884e-12
-2.68204e-08
6.88359e-12
1.5948e-12
2.68118e-08
2.36616e-12
-2.11462e-12
-7.02348e-12
-2.81723e-12
9.39014e-09
1.04755e-11
-9.39344e-09
-2.59161e-13
1.10619e-08
-9.91999e-14
-1.51064e-12
7.37358e-12
5.51524e-13
-3.65736e-13
-7.06933e-12
1.08619e-08
2.10167e-12
9.73992e-13
8.04292e-12
-3.77556e-12
1.40533e-13
-7.51651e-12
1.04804e-12
2.56006e-12
2.08832e-08
-2.08636e-08
-1.14867e-11
-1.16667e-11
-9.19848e-09
1.29756e-12
-1.62329e-12
9.19042e-09
8.39101e-12
-9.15663e-09
7.38583e-13
9.83051e-14
9.14729e-09
8.49897e-12
-9.18992e-09
-3.35388e-13
-7.15927e-12
-9.14715e-09
6.51093e-13
-7.57493e-12
8.88495e-12
1.19625e-11
2.08643e-08
-2.20808e-08
-2.36783e-12
1.43846e-11
-9.0564e-12
2.20696e-08
8.16514e-12
1.63885e-11
2.35509e-08
-2.0193e-11
-2.26374e-11
-2.62601e-12
1.90482e-08
-1.83522e-13
-5.36181e-12
7.43984e-13
1.04121e-11
2.73906e-08
-2.45403e-13
1.08345e-11
-8.41245e-12
1.4662e-12
1.90396e-08
5.64018e-12
2.35351e-08
2.04845e-11
2.02295e-11
-2.10097e-08
-4.6423e-12
2.07739e-11
-1.19064e-11
2.09991e-08
6.32948e-12
1.95888e-11
2.26222e-08
-2.91151e-11
-2.95735e-11
-5.78395e-12
1.86125e-08
-6.46572e-13
-5.01065e-12
-2.60877e-12
1.74971e-11
2.69109e-08
6.02638e-12
1.14364e-11
-8.30771e-12
-3.29433e-14
1.85997e-08
5.69055e-12
2.26021e-08
2.75188e-11
3.10079e-11
-2.08827e-08
-1.09606e-12
-6.49927e-13
-9.87005e-13
9.19789e-09
-7.6454e-12
-2.07183e-12
9.15624e-09
-8.07202e-12
8.43288e-12
8.53421e-12
2.7362e-12
2.20807e-08
-1.70808e-11
-8.09816e-12
-1.90491e-08
2.42696e-12
1.90402e-08
5.7125e-12
1.88161e-12
-1.05462e-11
-2.70093e-12
-1.40605e-11
-2.3551e-08
2.35346e-08
2.05076e-11
1.99934e-11
-5.18308e-12
2.20696e-08
8.2345e-12
-2.00596e-11
-2.34611e-11
6.23493e-12
2.10097e-08
-1.94887e-11
-8.85644e-12
-1.86124e-08
4.34899e-12
1.85998e-08
5.60094e-12
6.11168e-13
-1.90885e-11
-4.70379e-12
-2.06677e-11
-2.26227e-08
2.2602e-08
2.74524e-11
3.10729e-11
-5.04033e-12
2.09991e-08
6.20899e-12
-2.98716e-11
-2.92993e-11
-1.10633e-08
1.09454e-12
4.51776e-13
-7.94384e-12
-7.01249e-13
-1.34317e-12
8.18979e-12
-1.08623e-08
-3.34708e-12
3.28409e-13
-7.9203e-12
1.66013e-12
1.32892e-12
8.07726e-12
-2.08833e-08
-1.44971e-12
-1.11361e-12
9.48122e-12
1.23199e-11
2.0864e-08
-7.77456e-13
9.19876e-09
3.61334e-14
-7.61786e-12
-2.36654e-12
9.15654e-09
8.7922e-13
-7.79384e-12
-1.10686e-11
-1.12023e-11
-1.32584e-12
9.1905e-09
8.05345e-12
4.90656e-13
9.14702e-09
7.86689e-12
2.23054e-12
-1.64057e-11
2.20809e-08
-2.20697e-08
1.07153e-11
-7.7246e-12
-2.35505e-08
-1.48124e-11
2.04055e-11
2.35345e-08
2.08469e-11
1.09196e-12
-1.01229e-11
-2.73913e-08
-1.98575e-12
-1.90489e-08
2.75329e-12
1.42263e-12
1.904e-08
5.25778e-12
-1.90401e-08
-2.59657e-13
-5.48671e-12
-2.35345e-08
-1.98512e-11
-2.29192e-11
-9.3914e-12
8.26965e-12
2.20697e-08
5.8557e-12
-1.933e-11
2.10099e-08
-2.09992e-08
1.11131e-11
-8.36167e-12
-2.26233e-08
-2.06471e-11
2.7764e-11
2.2603e-08
3.07829e-11
5.87725e-13
-1.87502e-11
-2.69116e-08
-4.59342e-12
-1.8612e-08
4.81796e-12
-8.2875e-14
1.85997e-08
5.28745e-12
-1.85994e-08
-7.81951e-13
-5.46018e-12
-2.26025e-08
-2.95436e-11
-2.95076e-11
-1.19528e-11
6.63046e-12
2.09993e-08
-2.20806e-08
-2.6187e-12
1.45844e-11
8.34057e-12
-2.46863e-12
1.90492e-08
-5.19713e-12
1.68412e-11
2.35505e-08
-1.99544e-11
-2.32682e-11
2.47068e-13
1.01764e-11
9.00617e-14
-7.74688e-12
5.37161e-12
2.03768e-11
2.03226e-11
-2.10096e-08
-4.78431e-12
2.09515e-11
6.44134e-12
-6.13815e-12
1.86124e-08
-5.28994e-12
1.92956e-11
2.26228e-08
-2.98691e-11
-2.9283e-11
-3.21164e-12
1.73242e-11
6.36809e-12
-8.62354e-12
5.2549e-12
2.751e-11
3.09923e-11
5.90974e-13
2.27362e-12
2.08828e-08
-9.19884e-09
1.51068e-12
9.1907e-09
7.97254e-12
-9.15638e-09
1.35923e-12
9.14692e-09
7.94885e-12
-8.13639e-12
-8.04391e-12
2.0864e-08
-3.35121e-12
-9.95774e-12
2.21866e-08
1.78851e-11
1.89226e-11
-2.34016e-08
-3.3406e-12
2.33997e-08
-2.23071e-08
-9.18075e-12
2.23038e-08
2.21897e-08
-1.96727e-11
5.87211e-12
2.21788e-08
1.12969e-11
5.74857e-11
-2.32766e-08
-5.20037e-12
2.32662e-08
-2.2413e-08
-7.87836e-12
2.2414e-08
2.21816e-08
-2.2187e-08
2.39728e-12
9.30844e-12
2.21899e-08
4.14829e-12
2.34016e-08
-8.06046e-12
9.70569e-12
2.23078e-08
-2.28192e-11
-1.72317e-11
-1.77866e-11
2.35922e-08
-4.56437e-11
-4.80142e-11
2.33995e-08
7.91012e-12
2.23045e-08
2.25106e-11
-4.49798e-12
-9.2489e-12
2.21873e-08
-2.21898e-08
1.76704e-11
2.05501e-11
-2.35912e-08
4.30414e-11
4.68523e-11
-2.34006e-08
-2.36202e-12
7.36953e-12
2.33982e-08
-2.23088e-08
-9.66004e-12
2.32719e-11
2.23052e-08
-2.33982e-08
-9.2039e-12
-2.23048e-08
-2.23267e-11
2.21901e-08
-2.93763e-12
1.01438e-07
4.97261e-11
1.04566e-07
-1.76506e-12
2.37747e-11
7.36374e-11
2.34197e-08
-3.02885e-11
-2.33004e-08
2.31044e-11
2.32825e-08
2.96162e-12
-1.60221e-11
-2.32592e-08
-6.18812e-12
2.32647e-08
6.12509e-12
-4.7669e-11
2.34615e-08
6.89414e-12
3.31914e-11
2.9162e-11
2.31617e-08
2.33635e-11
-2.30138e-08
3.32607e-11
2.29847e-08
-1.46353e-11
-1.18596e-11
-2.28978e-08
2.94627e-11
1.1911e-11
2.28882e-08
-1.19438e-11
-2.36552e-11
2.32092e-08
4.88882e-11
-1.52426e-11
2.2692e-08
9.0027e-12
-6.58175e-11
-2.07164e-13
-2.22803e-08
5.03114e-11
2.22653e-08
-2.32342e-08
-1.48774e-11
-6.53643e-12
2.32248e-08
5.73352e-12
2.26325e-08
2.87801e-11
3.5849e-11
2.31402e-08
-2.47225e-11
-2.30207e-08
3.64277e-11
2.29888e-08
-1.19342e-11
-1.52433e-11
-2.28883e-08
2.88787e-11
1.4551e-11
2.28764e-08
-1.47093e-11
2.4843e-11
2.31588e-08
-1.76824e-11
4.87118e-11
2.26933e-08
-6.59481e-11
8.64087e-12
-2.32326e-08
-1.79055e-11
2.32137e-08
-2.22734e-08
4.91912e-11
2.22618e-08
2.26942e-08
1.93754e-11
-4.25336e-12
2.34219e-08
4.54156e-11
-2.32775e-08
2.08795e-11
2.32648e-08
1.88198e-12
-5.18054e-12
-2.32554e-08
-5.48474e-12
2.32631e-08
3.92456e-12
-3.96124e-12
2.3496e-08
-4.67519e-11
2.21872e-08
-4.64115e-12
-9.50139e-12
1.79564e-11
2.05369e-11
4.38851e-11
4.67531e-11
-2.19029e-12
-2.34012e-08
2.33985e-08
7.86859e-12
-9.53731e-12
-2.23081e-08
2.23044e-08
2.31485e-11
2.21899e-08
-8.51098e-12
-2.23495e-11
-2.21873e-08
2.26727e-12
9.83819e-12
-1.75385e-11
-1.74155e-11
-4.62598e-11
-4.73874e-11
4.64484e-12
2.34007e-08
-9.03673e-12
9.16947e-12
2.23083e-08
-2.22743e-11
7.55137e-12
2.33696e-11
1.35893e-12
-1.17402e-12
3.4596e-12
-4.06457e-12
9.97946e-08
-4.70665e-11
9.36583e-13
-1.32031e-12
9.71029e-08
2.2278e-11
4.83493e-11
-1.89095e-11
-3.84092e-11
4.18378e-11
-4.41777e-11
3.95752e-11
-9.7106e-08
-5.18094e-11
6.4405e-13
-4.20048e-12
9.78887e-08
1.09696e-11
5.20578e-11
-1.21262e-11
1.14007e-11
1.41793e-11
-1.48334e-11
-1.04421e-11
3.88608e-11
5.08904e-11
2.56422e-11
1.25655e-11
2.34718e-08
-2.35997e-08
-4.38194e-12
4.15781e-12
-9.97953e-08
-3.03548e-12
3.77935e-12
9.97947e-08
-9.71035e-08
-4.75463e-11
-3.1458e-12
1.29227e-12
9.71049e-08
2.15798e-11
4.75699e-11
-2.24481e-11
-3.86886e-11
4.19394e-11
4.00468e-11
-4.19977e-11
-9.78864e-08
-5.03271e-11
-1.80521e-13
-1.18836e-12
9.78869e-08
1.21123e-11
5.1553e-11
-1.24198e-11
1.12098e-11
1.41831e-11
-1.03514e-11
-1.51072e-11
-2.35995e-08
3.85793e-11
5.11328e-11
2.56524e-11
1.2629e-11
2.34716e-08
-4.13983e-12
1.15898e-12
-9.97973e-08
-1.34718e-12
3.84803e-12
9.97978e-08
-9.71105e-08
-4.7473e-11
-1.2959e-12
1.5633e-12
9.71106e-08
2.14393e-11
4.78728e-11
-1.91769e-11
-3.9039e-11
4.12891e-11
3.93144e-11
-4.45527e-11
-9.78938e-08
-5.08438e-11
-9.68646e-13
-3.30667e-14
9.78956e-08
1.17558e-11
5.14426e-11
-1.26244e-11
1.11608e-11
1.38077e-11
-1.07154e-11
-1.47388e-11
-2.36007e-08
3.87045e-11
5.1492e-11
2.53068e-11
1.24674e-11
2.34727e-08
-1.81433e-12
-2.34572e-13
-9.97978e-08
1.80373e-13
1.58508e-12
9.97981e-08
-9.7112e-08
-4.68582e-11
-1.02887e-12
3.5542e-13
9.71125e-08
2.20417e-11
4.76378e-11
-2.25839e-11
-3.9344e-11
4.1934e-11
4.00525e-11
-4.2726e-11
-9.78981e-08
-5.0706e-11
1.08404e-13
7.55102e-13
9.78996e-08
1.17257e-11
5.08346e-11
-1.32671e-11
1.06621e-11
1.39731e-11
-1.03297e-11
-1.52656e-11
-2.36015e-08
3.84818e-11
5.0872e-11
2.55765e-11
1.23782e-11
2.34742e-08
9.92997e-13
8.7674e-13
-9.97977e-08
-2.77123e-13
-3.30592e-13
9.97964e-08
-9.71093e-08
-4.62645e-11
-2.21846e-12
-1.1197e-12
9.71068e-08
2.30378e-11
4.82589e-11
-1.89283e-11
-3.90393e-11
4.26763e-11
4.05632e-11
-4.44647e-11
-9.78989e-08
-5.03652e-11
-9.6175e-13
3.25158e-13
9.78979e-08
1.22961e-11
5.12789e-11
-1.2603e-11
1.10308e-11
1.44042e-11
-9.79771e-12
-1.46494e-11
-2.36009e-08
3.81925e-11
5.05484e-11
2.60633e-11
1.27874e-11
2.34733e-08
-7.5169e-13
1.26676e-13
-9.97945e-08
-2.83438e-13
5.41132e-13
9.97949e-08
-9.71067e-08
-4.63276e-11
-2.47854e-13
-3.24288e-13
9.71073e-08
2.2716e-11
4.74794e-11
-2.28959e-11
-4.01819e-11
4.23281e-11
4.03745e-11
-4.35364e-11
-9.78972e-08
-5.02017e-11
1.39811e-13
2.31026e-13
9.78979e-08
1.22291e-11
5.07742e-11
-1.31531e-11
1.00854e-11
1.42866e-11
-9.69216e-12
-1.54887e-11
-2.36002e-08
3.82632e-11
5.08387e-11
2.53371e-11
1.23787e-11
2.34734e-08
2.35624e-13
1.68754e-12
-9.97965e-08
-1.15633e-12
1.4578e-13
9.97956e-08
-9.71096e-08
-4.61882e-11
-3.31364e-13
-5.78423e-13
9.7108e-08
2.26924e-11
4.78919e-11
-1.94012e-11
-3.9819e-11
4.2313e-11
4.03241e-11
-4.52988e-11
-9.78988e-08
-4.97373e-11
5.37415e-14
-5.73942e-13
9.78975e-08
1.28449e-11
5.12686e-11
-1.28663e-11
1.04536e-11
1.4642e-11
-9.45296e-12
-1.53604e-11
-2.36009e-08
3.8e-11
5.05727e-11
2.57974e-11
1.29258e-11
2.34736e-08
-1.5196e-12
-3.36606e-13
-9.97971e-08
6.38957e-15
9.91167e-13
9.9798e-08
-9.71105e-08
-4.68072e-11
2.94306e-13
-1.41492e-13
9.71121e-08
2.20703e-11
4.76441e-11
-2.28533e-11
-4.00073e-11
4.16529e-11
3.97663e-11
-4.32792e-11
-9.78987e-08
-5.05086e-11
8.18903e-13
2.06716e-13
9.79002e-08
1.18349e-11
5.0969e-11
-1.31728e-11
1.04276e-11
1.38978e-11
-1.02399e-11
-1.56472e-11
-2.36013e-08
3.85739e-11
5.11569e-11
2.5169e-11
1.2167e-11
2.34742e-08
4.78263e-13
8.63121e-13
-9.97977e-08
-7.0099e-13
-2.86222e-13
9.97973e-08
-9.7111e-08
-4.63849e-11
-1.10266e-12
-9.72756e-13
9.71094e-08
2.2407e-11
4.82405e-11
-1.9064e-11
-3.92214e-11
4.21413e-11
4.0334e-11
-4.472e-11
-9.78995e-08
-5.02551e-11
-2.64567e-13
6.24806e-14
9.7899e-08
1.21321e-11
5.14002e-11
-1.27549e-11
1.09076e-11
1.42632e-11
-9.95124e-12
-1.50366e-11
-2.36013e-08
3.83371e-11
5.08234e-11
2.57845e-11
1.26571e-11
2.34737e-08
2.32419e-13
1.17321e-12
-9.97987e-08
-7.58792e-13
1.69472e-14
9.9798e-08
-9.71104e-08
-4.66193e-11
-1.2759e-12
-7.47942e-13
9.71096e-08
2.21967e-11
4.83236e-11
-2.22165e-11
-3.88464e-11
4.20955e-11
4.02128e-11
-4.22921e-11
-9.78991e-08
-5.04226e-11
-5.14457e-13
-2.76067e-13
9.78989e-08
1.19035e-11
5.14856e-11
-1.26057e-11
1.13519e-11
1.40676e-11
-1.01793e-11
-1.45535e-11
-2.36008e-08
3.84616e-11
5.09804e-11
2.57988e-11
1.267e-11
2.34729e-08
6.79565e-13
9.97458e-13
-9.97964e-08
-7.37256e-13
-3.96053e-13
9.97958e-08
-9.71069e-08
-4.65696e-11
-1.08006e-12
-1.10119e-12
9.71056e-08
2.23913e-11
4.83625e-11
-1.89665e-11
-3.89774e-11
4.187e-11
3.98719e-11
-4.45565e-11
-9.78985e-08
-5.04447e-11
-1.71942e-13
-1.57444e-13
9.78982e-08
1.18865e-11
5.15642e-11
-1.24726e-11
1.13104e-11
1.37886e-11
-1.04191e-11
-1.4531e-11
-2.36008e-08
3.84025e-11
5.08664e-11
2.59322e-11
1.28065e-11
2.34728e-08
-4.58507e-13
7.94227e-13
-9.97957e-08
-4.75998e-13
4.24195e-13
9.97954e-08
-9.71081e-08
-4.69712e-11
-2.25866e-13
-5.78367e-13
9.71088e-08
2.21697e-11
4.82799e-11
-2.24849e-11
-3.91309e-11
4.13884e-11
3.93804e-11
-4.24655e-11
-9.78985e-08
-5.05947e-11
2.80788e-13
-3.76589e-13
9.78987e-08
1.17671e-11
5.15538e-11
-1.23568e-11
1.12384e-11
1.35877e-11
-1.07029e-11
-1.46249e-11
-2.36013e-08
3.88657e-11
5.13062e-11
2.5438e-11
1.23345e-11
2.34734e-08
-6.74519e-13
3.59984e-13
-9.9796e-08
-1.29951e-13
4.97724e-13
9.9796e-08
-9.71118e-08
-4.71026e-11
-5.46984e-13
-3.98065e-13
9.71115e-08
2.20609e-11
4.83456e-11
-1.93434e-11
-3.89563e-11
4.13207e-11
3.94323e-11
-4.44531e-11
-9.79e-08
-5.09183e-11
2.1982e-13
2.91267e-13
9.79008e-08
1.13074e-11
5.14576e-11
-1.24523e-11
1.15e-11
1.33192e-11
-1.09943e-11
-1.46e-11
-2.3602e-08
3.87444e-11
5.12648e-11
2.55471e-11
1.2568e-11
2.34739e-08
2.75368e-13
9.47652e-13
-9.97953e-08
-8.33598e-13
-1.61807e-13
9.97951e-08
-9.71097e-08
-4.69386e-11
-8.00501e-13
-9.04058e-13
9.71091e-08
2.23693e-11
4.86174e-11
-2.21298e-11
-3.87647e-11
4.14997e-11
3.96365e-11
-4.19979e-11
-9.79001e-08
-5.07404e-11
-7.97521e-14
-3.5887e-13
9.78998e-08
1.15562e-11
5.17546e-11
-1.21409e-11
1.17272e-11
1.3806e-11
-1.06397e-11
-1.45814e-11
-2.36012e-08
3.88595e-11
5.13336e-11
2.56388e-11
1.25143e-11
2.34728e-08
1.89967e-14
4.65112e-13
-9.97946e-08
-2.63636e-13
3.85635e-14
9.97943e-08
-9.71091e-08
-4.69502e-11
-7.38137e-13
-1.00092e-12
9.71081e-08
2.22048e-11
4.86203e-11
-1.89795e-11
-3.88798e-11
4.14983e-11
3.96696e-11
-4.44019e-11
-9.7898e-08
-5.07149e-11
2.26879e-13
4.61059e-14
9.7898e-08
1.15418e-11
5.16113e-11
-1.23842e-11
1.16573e-11
1.35237e-11
-1.09325e-11
-1.45455e-11
-2.36014e-08
3.88258e-11
5.12788e-11
2.57236e-11
1.25485e-11
2.34731e-08
-6.55222e-13
3.14973e-13
-9.97947e-08
-5.00675e-13
4.90146e-13
9.9795e-08
-9.71091e-08
-4.72579e-11
-3.62998e-13
-2.94665e-13
9.71094e-08
2.20336e-11
4.84016e-11
-2.22361e-11
-3.88118e-11
4.12407e-11
3.91571e-11
-4.21534e-11
-9.78991e-08
-5.09282e-11
7.83087e-13
3.49675e-13
9.78993e-08
1.14378e-11
5.15125e-11
-1.23574e-11
1.17012e-11
1.32134e-11
-1.13183e-11
-1.45648e-11
-2.36016e-08
3.89269e-11
5.13397e-11
2.55535e-11
1.2478e-11
2.34733e-08
-1.49863e-13
7.3632e-13
-9.97955e-08
-5.30052e-14
2.72422e-13
9.97947e-08
-9.71101e-08
-4.71162e-11
-1.06353e-12
-4.6858e-13
9.71095e-08
2.2051e-11
4.84815e-11
-1.91612e-11
-3.87694e-11
4.15586e-11
3.94807e-11
-4.43513e-11
-9.78988e-08
-5.08986e-11
-4.9661e-13
2.60639e-13
9.7898e-08
1.1571e-11
5.14889e-11
-9.28055e-12
1.18381e-11
1.37341e-11
-1.07577e-11
-1.67052e-11
-2.36016e-08
3.89485e-11
5.13983e-11
2.55776e-11
1.25668e-11
2.34731e-08
1.78656e-12
9.88329e-08
3.22725e-11
1.26528e-11
-3.19428e-11
-1.39381e-11
-4.48073e-11
-1.61027e-12
2.27644e-12
9.8855e-08
7.65892e-12
4.56966e-11
-1.18169e-11
3.23538e-11
1.24653e-11
-1.15804e-11
-3.19388e-11
-9.88537e-08
9.88218e-08
3.71197e-12
-9.88269e-08
-2.46862e-12
-3.16005e-11
-1.42389e-11
3.14816e-11
1.30116e-11
4.6368e-11
9.88455e-08
2.90874e-12
-9.88507e-08
-1.49073e-12
-4.33718e-11
-7.60521e-12
1.23608e-11
-3.17918e-11
-1.42467e-11
1.05968e-11
3.15426e-11
1.73173e-11
2.02308e-11
2.34643e-08
-2.35937e-08
-4.75302e-11
2.35932e-08
-2.3464e-08
-1.71807e-11
-1.80844e-11
-1.66523e-12
9.71097e-08
-3.85097e-11
4.16852e-11
3.97172e-11
-4.17034e-11
-3.84942e-11
1.37409e-12
9.16666e-13
9.80118e-08
1.95413e-11
3.98089e-11
-1.99813e-11
-2.15459e-11
4.06383e-11
-4.15685e-11
2.20075e-11
9.7107e-08
-3.6831e-12
-9.71074e-08
1.22464e-12
4.07233e-11
-4.14433e-11
-3.83778e-11
4.25423e-11
4.02808e-11
9.80095e-08
-2.70338e-12
-9.80094e-08
-1.29925e-12
-3.81195e-11
-1.96267e-11
2.00559e-11
2.25663e-11
-4.11286e-11
4.14459e-11
-2.16362e-11
1.06972e-13
6.78825e-13
9.80189e-08
1.89569e-11
4.07286e-11
-1.89322e-11
-2.14595e-11
4.06785e-11
-4.14367e-11
2.20564e-11
-9.80214e-08
-4.66885e-12
-9.71012e-08
8.33795e-13
-4.75185e-11
-2.23506e-11
1.85738e-11
4.04232e-11
-4.13608e-11
-3.839e-11
4.44775e-11
4.06646e-11
9.80167e-08
-2.33421e-12
-9.80169e-08
-1.06983e-12
-3.84749e-11
-1.8884e-11
1.94062e-11
2.25219e-11
-4.09928e-11
4.10309e-11
-2.1636e-11
2.53975e-11
1.34466e-11
2.34659e-08
-5.16813e-11
2.35951e-08
-2.34675e-08
-2.40066e-11
-1.16998e-11
-1.77368e-13
4.16329e-14
9.79202e-08
1.19426e-11
5.22223e-11
-1.18455e-11
1.17538e-11
1.37253e-11
-1.43299e-11
-1.04579e-11
-9.79221e-08
-1.773e-12
-9.78863e-08
-1.04084e-12
-5.02038e-11
-1.23585e-11
1.23396e-11
-1.00588e-11
-1.46337e-11
1.14113e-11
1.44326e-11
5.24325e-11
9.79216e-08
-2.32455e-12
-9.79214e-08
-7.17784e-13
-5.10496e-11
-1.19798e-11
1.18856e-11
-1.0362e-11
-1.38333e-11
1.39259e-11
1.18598e-11
-2.34713e-08
-2.4348e-11
-1.09037e-11
4.33735e-11
4.71725e-11
1.75414e-11
2.01828e-11
2.34634e-08
-4.54848e-11
-4.71248e-11
2.35917e-08
-2.34633e-08
-1.73628e-11
-1.83826e-11
-2.53055e-12
9.88189e-08
8.84397e-12
4.59924e-11
-7.83759e-12
3.11693e-11
1.26133e-11
-3.21141e-11
-1.45189e-11
-4.35412e-11
4.11589e-12
-1.77492e-12
9.88425e-08
8.59402e-12
4.6097e-11
-7.87985e-12
3.13164e-11
1.26362e-11
-3.2141e-11
-1.45309e-11
9.88138e-08
5.54772e-12
-9.88157e-08
-7.06677e-13
-4.42575e-11
-8.29899e-12
7.82044e-12
-3.25479e-11
-1.43976e-11
1.20789e-11
3.12054e-11
4.57447e-11
9.88357e-08
4.81961e-12
-9.88379e-08
-8.33208e-13
-4.42525e-11
-8.10087e-12
7.86535e-12
-3.24219e-11
-1.43271e-11
1.23821e-11
3.13859e-11
1.70192e-11
2.07368e-11
2.34642e-08
-4.75471e-11
2.35936e-08
-2.34646e-08
-1.68447e-11
-1.88171e-11
1.8993e-12
9.71093e-08
2.20469e-11
4.69262e-11
-2.35299e-11
-3.86467e-11
4.19626e-11
4.0167e-11
-4.20592e-11
-3.82772e-11
-2.17679e-12
-1.48538e-12
9.80115e-08
1.98827e-11
4.0068e-11
-1.97917e-11
-2.19027e-11
4.10727e-11
2.21344e-11
-4.15606e-11
9.71178e-08
-1.07305e-12
-9.71157e-08
2.13019e-12
-4.72812e-11
-2.31927e-11
2.16606e-11
3.91426e-11
-4.23973e-11
4.09614e-11
-3.91918e-11
4.01706e-11
9.80194e-08
1.18399e-13
-9.80177e-08
-1.3759e-12
-3.85356e-11
-1.96638e-11
1.95943e-11
2.15742e-11
-4.16066e-11
4.02294e-11
-2.22335e-11
-1.16967e-12
-1.14421e-12
9.80175e-08
1.93458e-11
4.03425e-11
-1.933e-11
-2.20069e-11
4.07184e-11
-4.13611e-11
2.22888e-11
-1.6034e-12
-9.71082e-08
2.0347e-12
-4.76779e-11
-2.2756e-11
2.12246e-11
3.93359e-11
-4.22988e-11
-3.9083e-11
4.10341e-11
4.04806e-11
9.80214e-08
4.82694e-13
-9.80206e-08
-9.48894e-13
-3.88244e-11
-1.90538e-11
1.88356e-11
2.18831e-11
-4.16739e-11
4.0304e-11
-2.22971e-11
2.52734e-11
1.32047e-11
2.3468e-08
-5.12285e-11
2.3596e-08
-2.34686e-08
-2.4297e-11
-1.16203e-11
-1.57093e-12
-2.79182e-13
9.79226e-08
1.1845e-11
5.19781e-11
-1.24176e-11
1.15556e-11
1.37484e-11
-1.43366e-11
-1.05595e-11
-1.04949e-12
-9.7891e-08
-3.8891e-14
-5.09175e-11
-1.28129e-11
1.16388e-11
-1.07589e-11
-1.46424e-11
1.09784e-11
1.35404e-11
5.19179e-11
9.79283e-08
-6.63759e-13
-9.7927e-08
1.09218e-12
-5.16272e-11
-1.2256e-11
1.10546e-11
-1.0938e-11
-1.43728e-11
1.32279e-11
1.12963e-11
-2.34723e-08
-2.48334e-11
-1.10788e-11
4.44218e-11
4.72757e-11
1.76168e-11
1.93763e-11
2.3463e-08
-4.49104e-11
-4.74141e-11
2.35904e-08
-2.34623e-08
-1.71412e-11
-1.86488e-11
-4.34685e-13
9.88128e-08
7.72464e-12
4.54896e-11
-8.25166e-12
3.1481e-11
1.19703e-11
-3.26353e-11
-1.41721e-11
-4.43045e-11
3.74856e-12
-3.59e-13
9.88351e-08
7.7629e-12
4.57431e-11
-1.1571e-11
3.15798e-11
1.23184e-11
-3.23939e-11
-1.18923e-11
9.88107e-08
2.18613e-12
-9.88113e-08
8.37448e-13
-4.42771e-11
-9.05528e-12
7.98581e-12
-3.18301e-11
-1.4279e-11
1.28127e-11
3.13296e-11
4.52228e-11
9.88319e-08
2.32243e-12
-9.88333e-08
1.37962e-13
-4.41915e-11
-8.83637e-12
1.13414e-11
-3.19025e-11
-1.43831e-11
1.04597e-11
3.11871e-11
1.72749e-11
2.00603e-11
2.34645e-08
-4.76039e-11
2.35938e-08
-2.34651e-08
-1.69277e-11
-1.89019e-11
1.79254e-12
9.71198e-08
2.18171e-11
4.73311e-11
-2.31718e-11
-3.89959e-11
4.07334e-11
3.89639e-11
-4.20407e-11
-3.85593e-11
-1.36523e-13
-1.25645e-12
9.80207e-08
1.96618e-11
4.02391e-11
-1.95012e-11
-2.20103e-11
4.02386e-11
2.15129e-11
-4.14017e-11
9.71211e-08
5.98047e-14
-9.71212e-08
6.00546e-13
-4.64284e-11
-2.32609e-11
2.26545e-11
3.96982e-11
-4.2557e-11
4.14414e-11
-3.94743e-11
3.97908e-11
9.80227e-08
5.77558e-13
-9.80221e-08
-4.23524e-13
-3.8443e-11
-2.01497e-11
1.97213e-11
2.21402e-11
-4.19513e-11
4.07223e-11
-2.25967e-11
1.33837e-13
-1.09443e-12
9.80221e-08
1.92094e-11
4.0455e-11
-1.91529e-11
-2.20936e-11
4.04188e-11
-4.15616e-11
2.18328e-11
-1.46119e-12
-9.71101e-08
7.09363e-13
-4.70941e-11
-2.27481e-11
1.8806e-11
4.0016e-11
-4.24369e-11
-3.93846e-11
4.40341e-11
4.00296e-11
9.80246e-08
-5.26545e-13
-9.80239e-08
-2.11542e-13
-3.86476e-11
-1.96875e-11
1.92474e-11
2.23956e-11
-4.19045e-11
4.09328e-11
-2.24027e-11
2.48561e-11
1.30459e-11
2.34687e-08
-5.09599e-11
2.35962e-08
-2.34691e-08
-2.44788e-11
-1.18666e-11
-7.74041e-13
6.4072e-13
9.79292e-08
1.14522e-11
5.19165e-11
-1.23645e-11
1.15276e-11
1.33131e-11
-1.4148e-11
-1.09254e-11
-4.59931e-13
-9.78964e-08
6.99264e-13
-5.0685e-11
-1.31716e-11
1.19351e-11
-1.02385e-11
-1.50438e-11
1.06432e-11
1.38893e-11
5.18721e-11
9.79306e-08
3.14291e-13
-9.79304e-08
3.51257e-13
-5.1093e-11
-1.25629e-11
1.17961e-11
-1.05235e-11
-1.48598e-11
1.37243e-11
1.08488e-11
-2.34736e-08
-2.47429e-11
-1.13462e-11
4.43845e-11
4.63935e-11
1.80278e-11
1.92317e-11
2.34624e-08
-4.50269e-11
-4.79167e-11
2.35902e-08
-2.34627e-08
-1.63829e-11
-1.82459e-11
1.54315e-12
9.88107e-08
7.80121e-12
4.46573e-11
-9.13449e-12
3.13712e-11
1.25737e-11
-3.18613e-11
-1.43926e-11
-4.4121e-11
1.5635e-12
-7.4081e-14
9.88329e-08
7.77145e-12
4.50397e-11
-8.8291e-12
3.13297e-11
1.26349e-11
-3.19395e-11
-1.43834e-11
9.88096e-08
-1.36068e-13
-9.88116e-08
1.10932e-12
-4.42859e-11
-8.52474e-12
8.11239e-12
-3.13283e-11
-1.33678e-11
1.32881e-11
3.21e-11
4.54233e-11
9.88311e-08
-1.29712e-13
-9.88334e-08
1.09664e-13
-4.39472e-11
-8.18429e-12
8.50227e-12
-3.11633e-11
-1.36013e-11
1.34913e-11
3.17987e-11
1.73609e-11
2.0154e-11
2.34652e-08
-4.80925e-11
2.35926e-08
-2.34645e-08
-1.60295e-11
-1.85498e-11
4.09462e-13
9.71218e-08
2.25461e-11
4.73452e-11
-2.32368e-11
-3.95385e-11
4.13679e-11
3.95536e-11
-4.28906e-11
-3.83669e-11
9.16571e-13
-6.04882e-14
9.8024e-08
1.96149e-11
3.96525e-11
-2.04602e-11
-2.26868e-11
4.04396e-11
2.19283e-11
-4.21562e-11
9.71207e-08
-1.61781e-13
-9.71226e-08
-8.49319e-13
-4.60193e-11
-2.25638e-11
2.32073e-11
3.98035e-11
-4.21714e-11
4.18496e-11
-3.90871e-11
3.98781e-11
9.80242e-08
-5.41534e-14
-9.80258e-08
-1.72148e-13
-3.8276e-11
-1.97043e-11
2.0023e-11
2.24848e-11
-4.14881e-11
4.10698e-11
-2.20833e-11
-4.80521e-13
-1.37812e-13
9.80256e-08
1.9339e-11
3.98553e-11
-2.00104e-11
-2.24023e-11
4.08666e-11
-4.21385e-11
2.25262e-11
-2.21348e-12
-9.71108e-08
-5.49346e-13
-4.64509e-11
-2.23743e-11
2.28063e-11
4.051e-11
-4.1881e-11
-3.89718e-11
4.24873e-11
4.02589e-11
9.8025e-08
-1.78198e-12
-9.80269e-08
-3.19415e-13
-3.84008e-11
-1.9179e-11
1.97204e-11
2.3072e-11
-4.1362e-11
4.18427e-11
-2.19772e-11
2.47365e-11
1.2968e-11
2.34696e-08
-5.11583e-11
2.35962e-08
-2.34697e-08
-2.39343e-11
-1.14982e-11
5.50251e-13
-2.41161e-13
9.79312e-08
1.19024e-11
5.17185e-11
-1.26952e-11
1.07359e-11
1.36413e-11
-1.48775e-11
-1.05303e-11
-1.10802e-12
-9.78995e-08
4.77796e-13
-5.04742e-11
-1.26026e-11
1.2213e-11
-9.90643e-12
-1.43246e-11
1.10106e-11
1.41621e-11
5.22312e-11
9.79301e-08
-8.16893e-13
-9.79318e-08
-8.19608e-13
-5.06871e-11
-1.19014e-11
1.23209e-11
-1.00817e-11
-1.41229e-11
1.42987e-11
1.13348e-11
-2.34735e-08
-2.4079e-11
-1.07849e-11
4.41562e-11
4.59363e-11
1.85286e-11
1.9563e-11
2.34621e-08
-4.46563e-11
-4.72981e-11
2.35899e-08
-2.34623e-08
-1.69978e-11
-1.86435e-11
7.69848e-13
9.88084e-08
8.22758e-12
4.51028e-11
-8.40711e-12
3.21661e-11
1.32974e-11
-3.12735e-11
-1.34151e-11
-4.37867e-11
-8.77395e-13
-2.05377e-13
9.88304e-08
8.60239e-12
4.54882e-11
-1.16949e-11
3.19703e-11
1.35672e-11
-3.10837e-11
-1.13675e-11
9.88079e-08
3.50018e-13
-9.88078e-08
5.99517e-13
-4.37639e-11
-9.32101e-12
8.35076e-12
-3.10384e-11
-1.44293e-11
1.34002e-11
3.10495e-11
4.47766e-11
9.88272e-08
6.25078e-13
-9.88286e-08
4.82588e-13
-4.36629e-11
-9.4476e-12
1.20218e-11
-3.10271e-11
-1.46058e-11
1.12584e-11
3.10432e-11
1.80621e-11
2.0447e-11
2.3464e-08
-4.75084e-11
2.35927e-08
-2.34646e-08
-1.67659e-11
-1.90343e-11
-1.10213e-12
9.71196e-08
2.33158e-11
4.79357e-11
-2.26293e-11
-3.91509e-11
4.20046e-11
3.99739e-11
-4.23155e-11
-3.8157e-11
-3.56083e-13
-2.65839e-13
9.80226e-08
2.01911e-11
3.9971e-11
-1.98196e-11
-2.2118e-11
4.11261e-11
2.24452e-11
-4.13975e-11
9.71173e-08
-2.10269e-13
-9.71177e-08
-5.7209e-13
-4.57475e-11
-2.35019e-11
2.33033e-11
4.03356e-11
-4.28374e-11
4.21829e-11
-3.98451e-11
3.95912e-11
9.8022e-08
-1.16308e-13
-9.80219e-08
-5.69944e-13
-3.78995e-11
-2.04448e-11
2.03358e-11
2.26481e-11
-4.21293e-11
4.12228e-11
-2.27024e-11
-1.88727e-12
-4.87251e-13