/*--------------------------------*- C++ -*----------------------------------*\
| =========                 |                                                 |
| \\      /  F ield         | OpenFOAM: The Open Source CFD Toolbox           |
|  \\    /   O peration     | Version:  2206                                  |
|   \\  /    A nd           | Website:  www.openfoam.com                      |
|    \\/     M anipulation  |                                                 |
\*---------------------------------------------------------------------------*/
FoamFile
{
    version     2.0;
    format      ascii;
    arch        "LSB;label=32;scalar=64";
    class       volVectorField;
    location    "10";
    object      U;
}
// * * * * * * * * * * * * * * * * * * * * * * * * * * * * * * * * * * * * * //

dimensions      [0 1 -1 0 0 0 0];

internalField   nonuniform List<vector> 
66928
(
(-0.000319177 -0.000325579 0.110718)
(8.11553e-06 1.73651e-06 0.114078)
(3.56648e-06 -1.16113e-06 0.114011)
(1.72689e-06 -2.7966e-06 0.114014)
(-0.000320679 0.000325484 0.110699)
(1.09321e-06 -7.22673e-07 0.114029)
(0.000311268 0.000316445 0.110703)
(-0.00032486 -0.000322535 0.110714)
(1.8945e-06 -5.83289e-06 0.115674)
(-1.62568e-06 -2.91604e-07 0.115667)
(-1.49155e-05 -2.65949e-05 0.100015)
(-3.00753e-05 -1.42375e-05 0.099937)
(-3.85849e-05 -2.74695e-05 0.107288)
(-2.86909e-05 -3.67174e-05 0.107249)
(-1.37277e-05 -6.04396e-05 0.104639)
(-4.50867e-05 -5.82845e-05 0.108271)
(-6.1432e-05 -1.29406e-05 0.104578)
(-8.33898e-05 -6.67809e-07 0.108003)
(-5.7781e-05 -4.32674e-05 0.108233)
(1.94464e-06 -3.00294e-06 0.114707)
(-7.39248e-05 -2.28609e-06 0.108733)
(-6.1238e-05 1.30196e-05 0.10458)
(-8.31351e-05 5.32518e-07 0.108001)
(5.97625e-07 -3.90294e-07 0.114714)
(-5.81138e-05 4.31638e-05 0.108236)
(-7.48742e-05 1.59818e-06 0.108733)
(-3.00388e-05 1.55564e-05 0.0999419)
(-2.83022e-05 3.6822e-05 0.107251)
(-3.78632e-05 2.62824e-05 0.107295)
(-1.54703e-05 2.90913e-05 0.100033)
(-4.45822e-05 5.69128e-05 0.108265)
(-1.33915e-05 6.18323e-05 0.104667)
(1.28913e-05 2.89342e-05 0.0999799)
(-1.8391e-05 -2.99142e-05 0.10004)
(2.66748e-05 1.79052e-05 0.0998998)
(-3.20169e-05 -1.19595e-05 0.099943)
(3.3384e-05 2.81877e-05 0.107282)
(2.71333e-05 4.07338e-05 0.107248)
(-0.000324956 -0.000323724 0.110712)
(-4.20747e-05 -3.03773e-05 0.107291)
(-3.27662e-05 -3.50625e-05 0.10725)
(-1.62037e-05 -2.63461e-05 0.100047)
(1.15987e-05 2.72462e-05 0.0999964)
(-2.8317e-05 -1.3223e-05 0.0999413)
(2.48228e-05 1.97823e-05 0.0999038)
(0.000307324 0.000318421 0.1107)
(-3.94637e-05 -2.6824e-05 0.107296)
(-2.96266e-05 -3.59664e-05 0.107255)
(3.27588e-05 2.66999e-05 0.107286)
(2.44047e-05 4.28934e-05 0.107252)
(1.50411e-05 2.86826e-05 0.0999657)
(3.09027e-05 9.64614e-05 0.107975)
(-2.91187e-05 -9.40704e-05 0.108688)
(3.54479e-05 2.72557e-05 0.10728)
(-2.3897e-05 -3.42051e-05 0.104347)
(2.42191e-05 3.46228e-05 0.104309)
(2.95169e-05 9.65664e-05 0.108688)
(-3.12573e-05 -9.74514e-05 0.107972)
(9.70638e-05 2.83602e-05 0.107966)
(-9.62648e-05 -2.69465e-05 0.108668)
(2.79375e-05 3.82515e-05 0.10725)
(-3.40386e-05 -2.38882e-05 0.10429)
(3.31655e-05 2.46827e-05 0.10426)
(9.74206e-05 2.89331e-05 0.108674)
(-9.83007e-05 -2.69507e-05 0.107961)
(3.33674e-05 3.35411e-05 0.106089)
(-2.283e-05 -1.63675e-05 0.09952)
(-2.12376e-05 -2.49495e-05 0.0994978)
(2.56225e-05 1.80477e-05 0.0994785)
(1.85746e-05 2.67624e-05 0.0994468)
(-3.48204e-05 -3.13588e-05 0.106092)
(1.21509e-05 6.116e-05 0.1046)
(-1.07562e-05 -7.08387e-05 0.107118)
(6.91131e-06 6.6052e-05 0.107096)
(-1.02621e-06 -3.13613e-05 0.0989719)
(-6.75781e-05 -7.49317e-06 0.107044)
(-3.3038e-05 -5.42547e-07 0.0988622)
(-8.02694e-05 -3.69097e-06 0.107843)
(-3.51875e-05 6.20335e-07 0.103938)
(-3.57892e-05 5.57311e-07 0.103071)
(-6.82782e-05 7.80973e-06 0.107046)
(-3.3635e-05 1.26505e-06 0.0988706)
(-3.55035e-05 -3.95844e-07 0.103938)
(-8.03127e-05 3.84384e-06 0.107841)
(-3.54643e-05 -1.16971e-06 0.103067)
(9.52161e-05 -2.88099e-05 0.107965)
(-9.46221e-05 2.80624e-05 0.108674)
(3.1324e-05 -3.79723e-05 0.10726)
(-3.33395e-05 2.53572e-05 0.104289)
(9.61429e-05 -3.08605e-05 0.108679)
(3.1843e-05 -2.51543e-05 0.104262)
(-9.58612e-05 2.92119e-05 0.10796)
(2.98384e-05 -9.72463e-05 0.107974)
(-2.60267e-05 9.53023e-05 0.108678)
(3.60646e-05 -2.76278e-05 0.10729)
(-2.54316e-05 3.45264e-05 0.104357)
(2.23292e-05 -3.38647e-05 0.104325)
(2.74019e-05 -9.63304e-05 0.108681)
(-2.94132e-05 9.73633e-05 0.107972)
(3.46568e-05 -3.21086e-05 0.106086)
(-2.1166e-05 2.72443e-05 0.0995045)
(-2.54884e-05 1.86157e-05 0.0995377)
(2.00415e-05 -2.7474e-05 0.0994498)
(2.27193e-05 -1.46731e-05 0.0995001)
(-3.36766e-05 3.24133e-05 0.106085)
(1.62804e-05 -2.8334e-05 0.0999912)
(1.00408e-05 -5.95047e-05 0.104636)
(-8.26091e-06 6.93479e-05 0.107131)
(5.28683e-06 -6.84714e-05 0.107114)
(-3.53487e-06 3.49396e-05 0.0990072)
(-1.72943e-05 -2.63297e-05 0.10003)
(1.00717e-05 2.7267e-05 0.0999905)
(-2.99981e-05 -1.29969e-05 0.0999428)
(2.54674e-05 1.84573e-05 0.0999007)
(2.74227e-05 3.30615e-05 0.106091)
(-2.88674e-05 -1.7606e-05 0.0995336)
(-2.19142e-05 -2.40111e-05 0.0995013)
(1.96478e-05 1.8696e-05 0.0994815)
(1.46434e-05 2.6939e-05 0.099455)
(-3.7158e-05 -3.22483e-05 0.106099)
(-3.53627e-05 -9.83343e-05 0.107974)
(2.53928e-05 9.7703e-05 0.10869)
(2.1516e-05 3.45445e-05 0.104317)
(-4.11556e-05 -2.79945e-05 0.107289)
(2.66495e-05 9.76145e-05 0.107975)
(-2.80854e-05 -3.43445e-05 0.104353)
(-3.34353e-05 -9.51281e-05 0.10869)
(-0.000101423 -2.65257e-05 0.107964)
(9.55159e-05 3.2082e-05 0.108677)
(3.14678e-05 2.60619e-05 0.104262)
(-3.0867e-05 -3.49665e-05 0.107248)
(9.43257e-05 2.96253e-05 0.107968)
(-3.67357e-05 -2.27024e-05 0.104289)
(-9.98702e-05 -2.53101e-05 0.10867)
(-3.68798e-05 -3.28222e-05 0.106094)
(2.25492e-05 1.88923e-05 0.0994763)
(1.64925e-05 2.75572e-05 0.099448)
(3.0196e-05 3.41257e-05 0.106091)
(-2.79533e-05 -1.89041e-05 0.099527)
(-2.24852e-05 -2.43528e-05 0.0994999)
(2.43358e-05 9.75644e-05 0.107977)
(-2.88033e-05 -3.42204e-05 0.104357)
(3.18031e-05 2.66232e-05 0.107287)
(-3.45444e-05 -9.50214e-05 0.108688)
(1.91403e-05 3.42796e-05 0.104321)
(-3.66981e-05 -9.70673e-05 0.107973)
(2.24052e-05 9.60498e-05 0.108695)
(9.16806e-05 2.97673e-05 0.107969)
(-3.80559e-05 -2.29788e-05 0.104289)
(2.44517e-05 4.16694e-05 0.107252)
(-0.000100547 -2.5438e-05 0.10867)
(3.01784e-05 2.72303e-05 0.104261)
(-0.00010193 -2.70437e-05 0.107962)
(9.18947e-05 3.28729e-05 0.108682)
(1.34742e-05 2.9588e-05 0.0999985)
(-1.68168e-05 -2.88712e-05 0.100047)
(2.67374e-05 1.95892e-05 0.099904)
(-3.13843e-05 -1.11733e-05 0.0999455)
(-3.50019e-05 -3.08633e-05 0.106099)
(2.14811e-05 1.97725e-05 0.0994859)
(1.53883e-05 2.83093e-05 0.0994564)
(2.89331e-05 3.49151e-05 0.106092)
(-2.76669e-05 -1.70668e-05 0.0995357)
(-2.01327e-05 -2.25794e-05 0.0994984)
(2.73757e-05 9.96442e-05 0.107978)
(-3.14193e-05 -9.52611e-05 0.108688)
(3.43299e-05 2.85748e-05 0.107288)
(-2.7303e-05 -3.25822e-05 0.104355)
(2.247e-05 3.59633e-05 0.104323)
(2.44953e-05 9.72861e-05 0.108691)
(-3.36748e-05 -9.64613e-05 0.107974)
(9.40062e-05 3.12005e-05 0.107971)
(-9.90685e-05 -2.62801e-05 0.108675)
(2.5974e-05 4.20414e-05 0.107253)
(-3.59517e-05 -2.32352e-05 0.104288)
(3.1938e-05 2.79894e-05 0.104258)
(9.34229e-05 3.24661e-05 0.108683)
(-9.97152e-05 -2.65956e-05 0.107963)
(-3.41625e-05 -9.65322e-05 0.107973)
(2.09293e-05 3.43211e-05 0.104323)
(2.31999e-05 9.68791e-05 0.108692)
(-3.93366e-05 -2.92436e-05 0.107294)
(2.54512e-05 9.91771e-05 0.107977)
(-2.6533e-05 -3.35978e-05 0.104357)
(-3.28432e-05 -9.53685e-05 0.108688)
(-0.000100912 -2.53393e-05 0.107962)
(2.96755e-05 2.8274e-05 0.104262)
(9.22655e-05 3.31692e-05 0.10868)
(-3.1809e-05 -3.33724e-05 0.107253)
(9.30429e-05 3.1107e-05 0.107969)
(-3.56285e-05 -1.9989e-05 0.104288)
(-0.000100119 -2.50511e-05 0.108673)
(3.05403e-05 3.63182e-05 0.10609)
(-2.80622e-05 -1.65531e-05 0.0995378)
(-1.91569e-05 -2.37422e-05 0.0994983)
(2.25005e-05 2.02622e-05 0.0994855)
(1.54153e-05 2.79805e-05 0.0994532)
(-3.4947e-05 -3.17748e-05 0.106096)
(9.16144e-05 8.92336e-05 0.108757)
(0.000315784 0.000316693 0.110701)
(-0.000295801 -7.6875e-05 0.109656)
(-7.53468e-05 -0.000296197 0.109644)
(0.000298747 7.81317e-05 0.109656)
(7.66742e-05 0.000293021 0.10965)
(-9.32618e-05 -9.08794e-05 0.108756)
(8.75048e-05 -9.03547e-05 0.108757)
(0.000310462 -0.000315588 0.110679)
(-7.48966e-05 0.00029587 0.109642)
(-0.000292501 7.73393e-05 0.109638)
(7.53415e-05 -0.000296404 0.109646)
(0.000291774 -7.66428e-05 0.109639)
(-8.98682e-05 9.37513e-05 0.108756)
(-9.67393e-05 -9.05593e-05 0.108757)
(0.00029477 7.85709e-05 0.109657)
(7.26631e-05 0.000293962 0.109654)
(-0.000323648 -0.00032531 0.110717)
(8.77979e-05 8.97391e-05 0.10876)
(-0.000300938 -7.75726e-05 0.109655)
(-7.97543e-05 -0.000295519 0.109647)
(8.70473e-05 9.12436e-05 0.108761)
(0.00030745 0.000318896 0.1107)
(-0.000302213 -7.60273e-05 0.109648)
(-7.90425e-05 -0.000293842 0.109651)
(0.000292423 7.99001e-05 0.109652)
(7.08255e-05 0.000296636 0.10966)
(-9.58932e-05 -8.9342e-05 0.108758)
(2.79079e-06 -2.15453e-06 0.115912)
(9.89058e-07 -3.94832e-06 0.115917)
(-9.17532e-07 0.000355306 0.109732)
(-7.93267e-06 -0.000329658 0.109445)
(4.12376e-05 5.77348e-05 0.108267)
(-1.92275e-05 -7.56179e-05 0.108605)
(7.34202e-06 0.000338278 0.109444)
(1.48078e-05 7.05867e-05 0.108601)
(-4.41227e-06 -0.000357546 0.10974)
(0.000360409 5.40218e-06 0.109674)
(-0.00033454 -1.00809e-05 0.109395)
(6.08603e-05 4.25786e-05 0.108234)
(-7.04993e-05 -1.57976e-05 0.108564)
(0.000341959 1.12094e-05 0.109408)
(7.37433e-05 1.55614e-05 0.108571)
(-0.000362451 -5.73705e-06 0.109656)
(0.00036089 2.11659e-06 0.109798)
(7.69453e-05 3.2724e-08 0.108748)
(-7.47914e-05 -6.07738e-06 0.108692)
(-0.000351926 -1.22729e-06 0.109807)
(7.86606e-05 5.56466e-06 0.108702)
(0.00035442 -1.82018e-06 0.109842)
(-0.000354241 -3.54441e-06 0.109775)
(0.000356886 -6.19079e-06 0.109669)
(-0.000330845 9.59371e-06 0.109399)
(6.03565e-05 -4.20118e-05 0.108237)
(-7.20836e-05 1.66148e-05 0.108565)
(7.23386e-05 -1.51963e-05 0.108571)
(0.000336718 -1.24483e-05 0.10941)
(-0.000357065 4.74044e-06 0.109659)
(0.000354257 -2.79145e-06 0.109798)
(7.60872e-05 -2.09905e-06 0.108747)
(-0.000351669 -5.18797e-07 0.109806)
(-7.56725e-05 6.03597e-06 0.108694)
(0.000351864 -1.81387e-07 0.109841)
(7.74477e-05 -6.1718e-06 0.108703)
(-0.000355349 2.95836e-06 0.109776)
(3.6198e-07 -0.000355192 0.109671)
(-5.36304e-06 0.000336681 0.109411)
(4.10037e-05 -5.72388e-05 0.108256)
(-1.59769e-05 7.29012e-05 0.108587)
(5.84485e-06 -0.000337149 0.109407)
(1.54856e-05 -7.10845e-05 0.108582)
(-6.46059e-07 0.000366245 0.109677)
(8.56503e-05 9.0368e-05 0.108761)
(0.000308582 0.000317605 0.110704)
(-0.000301044 -7.60273e-05 0.109649)
(-8.02773e-05 -0.000293466 0.109646)
(-9.79442e-05 -8.99579e-05 0.108755)
(0.000292905 7.88993e-05 0.109656)
(6.97199e-05 0.000295737 0.109657)
(-9.70498e-05 -8.94386e-05 0.108756)
(-0.000325722 -0.000323311 0.110711)
(0.000292088 7.93388e-05 0.109653)
(6.94577e-05 0.000297224 0.109657)
(8.61508e-05 9.16516e-05 0.108762)
(-0.000301429 -7.63993e-05 0.109648)
(-8.02087e-05 -0.000291843 0.109648)
(1.50538e-06 -4.08718e-06 0.115674)
(-4.56486e-07 -6.37826e-07 0.11401)
(1.29279e-06 -1.44417e-06 0.114031)
(-0.000311448 -0.000316851 0.110689)
(-4.33428e-06 3.3173e-06 0.115675)
(2.67964e-06 3.36508e-06 0.11401)
(8.69006e-07 -1.24016e-06 0.114026)
(-0.000312462 -0.00031679 0.11069)
(-2.28307e-06 3.46747e-06 0.115679)
(3.97327e-08 3.68039e-06 0.114018)
(2.76193e-06 -1.18193e-06 0.114035)
(-0.000313619 -0.000317136 0.110695)
(-4.48134e-08 1.00831e-06 0.115679)
(2.97254e-07 2.03591e-06 0.114019)
(3.53892e-06 -2.06225e-06 0.11404)
(-0.000312221 -0.000317455 0.110701)
(-9.76442e-07 -1.71137e-06 0.115678)
(1.80133e-06 6.49316e-08 0.114015)
(2.48033e-06 -3.99945e-07 0.11404)
(-0.000310789 -0.00031595 0.110697)
(-4.49955e-07 -2.62011e-07 0.115675)
(-3.23252e-07 1.08645e-06 0.114014)
(2.80313e-06 -1.83998e-06 0.114039)
(-0.000313365 -0.000317692 0.110696)
(-2.01881e-06 -1.15905e-06 0.115676)
(-9.98609e-07 1.14515e-06 0.114016)
(1.69282e-06 -1.8026e-06 0.11404)
(-0.000311382 -0.000315531 0.110698)
(1.72531e-07 5.91156e-07 0.115679)
(-1.08654e-06 1.60683e-06 0.114018)
(2.88484e-06 -2.60804e-06 0.114041)
(-0.000314158 -0.000318369 0.1107)
(-1.0624e-06 -1.3682e-06 0.115678)
(6.03188e-07 2.85603e-07 0.114018)
(2.24384e-06 -1.07131e-06 0.11404)
(-0.000311894 -0.000316698 0.110699)
(-1.1394e-06 -9.84639e-07 0.115679)
(9.0296e-07 8.26507e-07 0.114017)
(2.26585e-06 -1.21738e-06 0.11404)
(-0.000311514 -0.000316129 0.110696)
(-1.24136e-06 -1.6186e-06 0.115677)
(2.88419e-07 1.80215e-07 0.114013)
(2.08221e-06 -1.46951e-06 0.11404)
(-0.000310778 -0.000315638 0.110696)
(-8.74751e-07 -5.37109e-07 0.115677)
(-6.6245e-07 1.27949e-06 0.114016)
(2.21396e-06 -1.97754e-06 0.11404)
(-0.000313017 -0.000317919 0.110699)
(-4.71231e-07 -2.26338e-07 0.115678)
(-7.1097e-07 1.59014e-06 0.114021)
(3.14997e-06 -2.38063e-06 0.114043)
(-0.00031271 -0.000317057 0.110702)
(-1.1623e-06 -1.07593e-06 0.115676)
(3.56805e-07 4.40647e-07 0.114016)
(1.99123e-06 -1.20019e-06 0.114041)
(-0.000312163 -0.00031686 0.110697)
(-5.59585e-07 -7.22712e-07 0.115675)
(5.78308e-07 1.40226e-07 0.114016)
(2.18097e-06 -1.45432e-06 0.114039)
(-0.000311727 -0.000316625 0.110698)
(-7.49276e-07 -3.67306e-07 0.115674)
(-4.40341e-07 1.33474e-06 0.114017)
(3.23384e-06 -2.92514e-06 0.114041)
(-0.000312357 -0.000317259 0.110699)
(-9.31014e-07 -6.88801e-07 0.115669)
(4.2083e-07 1.02032e-06 0.11402)
(2.69409e-06 -7.31297e-07 0.114038)
(-0.000313079 -0.000317587 0.110699)
(4.72763e-06 2.40849e-06 0.114076)
(-5.52989e-06 2.51209e-06 0.114071)
(-2.07764e-06 5.90889e-06 0.114066)
(1.04724e-06 5.90266e-06 0.114064)
(-0.000311326 0.000317575 0.110704)
(0.000323781 -0.000322499 0.110716)
(9.07785e-07 -8.17498e-07 0.114007)
(1.44937e-06 -1.82387e-06 0.114011)
(-4.26362e-06 2.4621e-06 0.114002)
(-2.682e-06 7.4762e-07 0.114007)
(-4.05205e-07 -1.08647e-06 0.114019)
(4.07994e-06 2.54722e-06 0.114008)
(1.69914e-06 3.89195e-07 0.114017)
(0.000310347 -0.000315372 0.110683)
(-0.000319942 0.000325867 0.110706)
(-1.12402e-06 -5.68841e-07 0.11403)
(3.1385e-07 3.72795e-07 0.114026)
(-8.52555e-07 4.27633e-07 0.114029)
(0.000321264 0.000328569 0.1107)
(0.000309126 0.000319883 0.110703)
(-0.000322222 -0.000324478 0.110715)
(-1.81185e-06 6.48806e-06 0.114061)
(1.23841e-06 6.19714e-06 0.11406)
(1.14832e-06 7.05404e-06 0.114055)
(-2.73924e-07 6.20908e-06 0.114053)
(-0.000308165 0.00031952 0.110702)
(0.000321316 -0.000323954 0.110718)
(-3.47086e-06 3.74513e-06 0.114003)
(-1.42206e-06 1.8917e-07 0.114008)
(9.36293e-07 4.71484e-06 0.114015)
(2.00372e-06 -6.32849e-07 0.114018)
(4.39725e-07 -5.55754e-08 0.114017)
(-1.67467e-07 4.43189e-06 0.114016)
(-1.37988e-06 -8.9978e-07 0.114023)
(0.000310808 -0.000314324 0.110694)
(-0.000319007 0.000326522 0.110711)
(-1.62906e-06 -2.99249e-07 0.114031)
(2.89335e-06 -1.85553e-06 0.114033)
(-3.80772e-06 -1.81208e-06 0.114037)
(0.000319813 0.000328316 0.110706)
(0.000313106 0.000319498 0.110701)
(-0.000320707 -0.00032586 0.11071)
(1.68505e-06 6.12644e-06 0.114053)
(-7.59463e-07 4.72474e-06 0.114049)
(2.68176e-06 3.63101e-06 0.114051)
(-1.81895e-06 3.94193e-06 0.114047)
(-0.000310993 0.000318182 0.110704)
(0.000320163 -0.000324303 0.11072)
(1.05306e-06 4.26024e-06 0.114016)
(1.27009e-06 -3.82059e-07 0.114019)
(7.46978e-07 1.95434e-06 0.11402)
(1.30027e-06 -1.12622e-06 0.114023)
(-7.48002e-07 -1.47895e-07 0.114023)
(5.59941e-07 2.19342e-06 0.114019)
(1.29242e-07 -7.84085e-07 0.114027)
(0.000312771 -0.000315368 0.110697)
(-0.00031856 0.000325607 0.110712)
(-2.87323e-06 -1.28182e-06 0.11404)
(3.19596e-06 -1.64277e-06 0.114039)
(-2.32587e-06 -2.12692e-06 0.114041)
(0.000319972 0.000326765 0.11071)
(0.000314072 0.000317714 0.110697)
(-0.000322325 -0.00032889 0.110711)
(3.80615e-06 3.76757e-06 0.11405)
(-2.00746e-06 3.42976e-06 0.114046)
(3.1613e-06 1.56124e-06 0.114051)
(-1.59414e-06 1.25874e-06 0.114048)
(-0.000311259 0.000317523 0.110706)
(0.000321841 -0.00032734 0.110716)
(1.25842e-06 1.98528e-06 0.114019)
(2.05619e-06 -1.59376e-06 0.114022)
(5.64334e-07 2.39178e-07 0.114021)
(6.97266e-07 -9.7564e-07 0.114026)
(-1.56541e-07 -1.0631e-06 0.114026)
(1.39561e-06 5.48954e-07 0.114017)
(1.40796e-06 -7.38306e-07 0.11403)
(0.000313527 -0.000315851 0.1107)
(-0.000320139 0.000326518 0.110714)
(-2.04622e-06 -2.10634e-06 0.114041)
(2.734e-06 -7.1661e-07 0.114041)
(-1.30883e-06 -7.7551e-07 0.114042)
(0.00032237 0.000328896 0.110709)
(0.000312999 0.000315739 0.110695)
(-0.000320726 -0.000326398 0.110709)
(2.88721e-06 7.28933e-07 0.114047)
(-1.36263e-06 3.5162e-07 0.114043)
(2.61189e-06 1.92472e-06 0.114047)
(-2.07149e-06 2.18432e-06 0.114041)
(-0.000309759 0.000314636 0.1107)
(0.000319386 -0.000324811 0.110716)
(-1.92687e-07 -1.03524e-07 0.114017)
(3.3613e-07 -5.26115e-07 0.114023)
(3.21574e-07 6.9782e-07 0.114015)
(6.4758e-07 -3.18464e-07 0.114022)
(1.94147e-06 -1.4298e-07 0.114025)
(1.09574e-06 3.52787e-07 0.114012)
(3.49343e-07 -6.06707e-07 0.114023)
(0.000311862 -0.000314903 0.110699)
(-0.000318847 0.000325824 0.110712)
(-5.44422e-07 1.32983e-07 0.114039)
(2.65947e-06 -1.15835e-06 0.114038)
(-2.17001e-06 -1.11518e-06 0.114037)
(0.000319587 0.000327138 0.110706)
(0.000313453 0.000316778 0.110696)
(-0.000322617 -0.000327518 0.110713)
(2.57065e-06 2.57554e-06 0.114048)
(-2.5775e-06 2.45076e-06 0.114041)
(2.69907e-06 3.22147e-06 0.114049)
(-3.85518e-06 3.09074e-06 0.114046)
(-0.000311392 0.000316616 0.110703)
(0.000319927 -0.00032616 0.11072)
(8.42809e-07 8.96446e-07 0.114015)
(7.24134e-07 -5.43719e-07 0.114022)
(8.66618e-07 1.35114e-06 0.114019)
(9.21299e-07 -1.42607e-06 0.114024)
(-9.87153e-07 -7.18466e-07 0.114023)
(-1.82962e-06 1.93202e-06 0.114016)
(-2.11269e-06 -2.01375e-06 0.114028)
(0.000312554 -0.000315084 0.110699)
(-0.000320299 0.000326001 0.110714)
(-2.38461e-06 -1.41197e-06 0.114038)
(2.5182e-06 -1.81646e-06 0.114041)
(-3.70505e-06 -2.15909e-06 0.114039)
(0.000319994 0.000327824 0.110711)
(0.000310947 0.00031498 0.110699)
(-0.000320685 -0.000325333 0.11071)
(1.8534e-06 1.88905e-06 0.114048)
(-3.57484e-06 2.08613e-06 0.114044)
(3.06605e-06 3.47323e-06 0.114046)
(-3.21512e-06 3.34813e-06 0.114043)
(-0.000311261 0.000315074 0.110704)
(0.000319075 -0.000324084 0.110719)
(-2.70152e-07 7.72395e-07 0.114018)
(-2.39465e-07 -1.03747e-06 0.114022)
(5.86517e-07 1.99037e-06 0.114019)
(1.07672e-06 -1.70425e-06 0.114023)
(-1.29018e-06 -1.46194e-06 0.114026)
(-9.42813e-07 1.57956e-06 0.114016)
(-1.68439e-06 -1.73929e-06 0.11403)
(0.000310228 -0.000314541 0.1107)
(-0.000318919 0.000325547 0.110713)
(-2.7223e-06 -1.16555e-06 0.114038)
(2.54493e-06 -2.39635e-06 0.11404)
(-3.02392e-06 -2.12519e-06 0.114037)
(0.000319115 0.000326641 0.110711)
(0.000314948 0.000319072 0.110698)
(-0.000322679 -0.000328529 0.110709)
(3.5332e-06 3.51074e-06 0.114048)
(-3.29358e-06 3.45105e-06 0.114045)
(2.75173e-06 1.74727e-06 0.114051)
(-2.23648e-06 1.49187e-06 0.114047)
(-0.000312639 0.000318341 0.110706)
(0.000320579 -0.000326351 0.11072)
(1.27578e-06 1.9266e-06 0.11402)
(1.52048e-06 -1.59562e-06 0.114024)
(1.87535e-07 7.11724e-07 0.114023)
(4.55666e-08 -9.31987e-07 0.114025)
(-1.85053e-06 -1.90901e-06 0.114029)
(3.24526e-07 5.34631e-07 0.114018)
(2.33101e-07 -1.2057e-06 0.114032)
(0.000313331 -0.000316133 0.110701)
(-0.000319872 0.000326134 0.110715)
(-2.83056e-06 -2.36437e-06 0.114038)
(2.41851e-06 -1.07205e-06 0.114042)
(-2.55945e-06 -1.43817e-06 0.114041)
(0.000320857 0.000327907 0.110711)
(0.00031266 0.000315821 0.110695)
(-0.000322113 -0.000327441 0.110711)
(2.3983e-06 1.48208e-06 0.114049)
(-2.07745e-06 1.08061e-06 0.114044)
(2.96078e-06 2.91788e-06 0.114053)
(-2.29085e-06 2.74291e-06 0.114046)
(-0.000310334 0.000315246 0.110705)
(0.000320774 -0.000326167 0.110719)
(-1.0757e-07 1.95655e-07 0.11402)
(3.07923e-07 -6.24966e-07 0.114021)
(7.13418e-07 9.56133e-07 0.114022)
(7.99552e-07 -9.39714e-07 0.114024)
(3.60977e-07 -4.99772e-07 0.11403)
(5.5596e-07 7.46399e-07 0.114018)
(-2.5461e-07 -1.364e-06 0.114029)
(0.000311264 -0.0003145 0.110701)
(-0.000320183 0.000326155 0.110715)
(-1.70058e-06 -8.84301e-07 0.11404)
(2.47213e-06 -1.81452e-06 0.114041)
(-1.75693e-06 -1.44213e-06 0.11404)
(0.000320822 0.000327831 0.110708)
(0.000312527 0.000316111 0.110696)
(-0.000321672 -0.000327738 0.11071)
(2.79929e-06 1.54739e-06 0.114051)
(-2.63141e-06 1.43118e-06 0.114044)
(2.37672e-06 2.3305e-06 0.114051)
(-2.23624e-06 1.9208e-06 0.114045)
(-0.000310238 0.00031547 0.110703)
(0.000320801 -0.000326414 0.110713)
(-5.07685e-07 7.59532e-07 0.114021)
(-3.41447e-07 -1.06938e-06 0.114023)
(8.07437e-07 1.69562e-07 0.11402)
(4.39815e-07 -6.96908e-07 0.114023)
(1.96026e-07 -1.18411e-06 0.114028)
(2.5842e-07 5.42257e-07 0.114013)
(-2.15479e-07 -7.02003e-07 0.114027)
(0.000311055 -0.000314853 0.110701)
(-0.000320043 0.000326948 0.11071)
(-2.10803e-06 -7.936e-07 0.11404)
(2.29617e-06 -1.39633e-06 0.114041)
(-1.92888e-06 -1.33521e-06 0.114039)
(0.000321394 0.000328508 0.110708)
(0.000312296 0.000315323 0.110697)
(-0.000321854 -0.000326898 0.110711)
(2.17076e-06 1.45588e-06 0.114049)
(-2.33196e-06 1.40957e-06 0.114041)
(2.75458e-06 2.86569e-06 0.114051)
(-3.30963e-06 2.84572e-06 0.114044)
(-0.000310584 0.000315456 0.110699)
(0.000319944 -0.000325669 0.110715)
(-2.3151e-08 4.60037e-08 0.114018)
(1.73055e-07 -5.57662e-07 0.114022)
(5.579e-07 1.15414e-06 0.114019)
(7.70282e-07 -1.12418e-06 0.114022)
(2.26296e-07 -6.37552e-07 0.114025)
(-9.41724e-07 1.45579e-06 0.114014)
(-1.18723e-06 -1.62042e-06 0.114027)
(0.000311466 -0.000314587 0.110696)
(-0.000319588 0.000325607 0.110713)
(-1.58251e-06 -1.04551e-06 0.114038)
(2.49908e-06 -1.82621e-06 0.11404)
(-2.53761e-06 -1.70657e-06 0.11404)
(0.000319401 0.000326569 0.11071)
(0.00031264 0.000316616 0.110698)
(-0.00032097 -0.000326631 0.110712)
(2.73406e-06 2.6398e-06 0.114048)
(-3.09941e-06 2.57184e-06 0.114043)
(3.31067e-06 3.11939e-06 0.114052)
(-2.71501e-06 3.15537e-06 0.114047)
(-0.000312399 0.000317526 0.110702)
(0.0003204 -0.000326147 0.110715)
(1.4328e-07 8.2271e-07 0.114017)
(7.45201e-07 -1.14645e-06 0.114021)
(1.04571e-06 1.40033e-06 0.11402)
(1.23907e-06 -1.23132e-06 0.114024)
(-1.61109e-06 -1.69965e-06 0.114026)
(-4.76121e-07 1.34683e-06 0.114018)
(-7.11734e-07 -1.22416e-06 0.11403)
(0.000312368 -0.000315774 0.1107)
(-0.00032003 0.000326413 0.110713)
(-2.66465e-06 -1.85211e-06 0.11404)
(2.95234e-06 -1.9576e-06 0.114041)
(-2.26676e-06 -2.17501e-06 0.114042)
(0.000319695 0.000327073 0.110712)
(0.000313423 0.000317098 0.1107)
(-0.000322011 -0.000327442 0.110708)
(3.06745e-06 2.58848e-06 0.11405)
(-3.17059e-06 2.71721e-06 0.114046)
(1.98109e-06 1.4879e-06 0.114049)
(-2.80654e-06 1.93603e-06 0.114047)
(-0.000312883 0.000317369 0.110701)
(0.000320745 -0.000326767 0.110711)
(7.08868e-07 1.04034e-06 0.11402)
(7.22183e-07 -1.30635e-06 0.114023)
(-5.16253e-07 1.96537e-07 0.114018)
(-2.58161e-07 -4.4777e-07 0.114023)
(-6.98666e-07 -1.447e-06 0.114028)
(6.86603e-07 3.18304e-07 0.114018)
(-6.70741e-08 -8.61534e-07 0.114027)
(0.000313192 -0.000316688 0.110699)
(-0.000320324 0.000326555 0.110708)
(-2.23868e-06 -1.41008e-06 0.114042)
(1.70498e-06 -1.08603e-06 0.114043)
(-2.35913e-06 -1.11999e-06 0.11404)
(0.000320301 0.000327564 0.110708)
(0.000312372 0.000315777 0.110695)
(-0.000320668 -0.000326402 0.11071)
(2.40779e-06 1.22822e-06 0.114048)
(-2.62063e-06 1.29111e-06 0.114046)
(2.13693e-06 1.65604e-06 0.114048)
(-2.0896e-06 1.57244e-06 0.114048)
(-0.000311361 0.000316074 0.110696)
(0.000320667 -0.000326548 0.110712)
(4.49448e-08 2.4918e-07 0.114018)
(3.14992e-07 -7.26327e-07 0.114022)
(8.4548e-07 6.50883e-07 0.114018)
(1.8971e-07 -9.88908e-07 0.114024)
(-5.31716e-07 -9.81978e-07 0.114027)
(4.03422e-07 4.13131e-07 0.114017)
(1.69738e-07 -1.26099e-06 0.114028)
(0.000312041 -0.000315195 0.110695)
(-0.000319845 0.000326079 0.110709)
(-2.29259e-06 -1.08178e-06 0.11404)
(2.09224e-06 -6.74541e-07 0.11404)
(-2.14429e-06 -1.43785e-06 0.11404)
(0.000320133 0.000327051 0.110709)
(0.000312297 0.000315569 0.110698)
(-0.000320991 -0.000326151 0.110713)
(2.49699e-06 1.41848e-06 0.114047)
(-2.24876e-06 1.19806e-06 0.114045)
(2.92862e-06 2.64637e-06 0.11405)
(-3.36179e-06 3.0479e-06 0.114048)
(-0.000311573 0.000316213 0.110698)
(0.000320474 -0.000326398 0.110713)
(2.29107e-07 6.37372e-07 0.114017)
(-5.32834e-09 -1.17869e-06 0.114021)
(8.81943e-07 1.04212e-06 0.114021)
(9.51136e-07 -1.31389e-06 0.114023)
(2.08127e-07 -9.17084e-07 0.114026)
(-9.28117e-07 1.30632e-06 0.114016)
(-8.95121e-07 -1.68189e-06 0.114026)
(0.000311511 -0.000314843 0.110697)
(-0.000319614 0.000325682 0.110714)
(-1.88619e-06 -1.20696e-06 0.11404)
(2.94252e-06 -2.61956e-06 0.114041)
(-1.99491e-06 -1.79154e-06 0.11404)
(0.000320056 0.00032704 0.110709)
(0.0003127 0.00031664 0.110699)
(-0.00032238 -0.000327799 0.110712)
(3.19366e-06 2.70594e-06 0.114046)
(-2.72746e-06 2.35045e-06 0.114047)
(1.93313e-06 1.82629e-06 0.114051)
(-1.88685e-06 2.09799e-06 0.114044)
(-0.000312309 0.00031756 0.110699)
(0.000321603 -0.000326952 0.110713)
(9.38849e-07 1.49121e-06 0.114018)
(1.03403e-06 -1.71947e-06 0.114019)
(-8.07623e-07 1.82589e-07 0.114021)
(-6.77543e-07 -2.24807e-07 0.114022)
(-1.05053e-06 -1.34172e-06 0.114026)
(2.63317e-07 6.78497e-07 0.114016)
(-5.97349e-07 -1.19072e-06 0.114025)
(0.000312359 -0.000315909 0.110701)
(-0.000320746 0.000327886 0.110713)
(-2.16714e-06 -1.36844e-06 0.114039)
(2.06508e-06 -6.21493e-07 0.114042)
(-2.42436e-06 -1.29611e-06 0.114039)
(0.000320302 0.000327836 0.110709)
(0.000313061 0.000316559 0.110699)
(2.6356e-06 2.20153e-06 0.114042)
(-2.40515e-06 1.92534e-06 0.114046)
(-0.00031197 0.000317225 0.110699)
(-2.11445e-07 6.83264e-07 0.114014)
(4.32126e-07 -6.25451e-07 0.114015)
(-4.45655e-07 -1.19345e-06 0.114027)
(2.37963e-07 -5.02778e-07 0.114024)
(0.000312549 -0.000315664 0.110699)
(-2.00402e-06 -1.35614e-06 0.114038)
(-2.33783e-06 -6.57432e-07 0.114036)
(0.000319122 0.000327006 0.110709)
(-2.01135e-06 -9.07652e-05 0.108047)
(9.90367e-06 6.07278e-05 0.104609)
(-1.1464e-06 7.30663e-05 0.108046)
(-1.86604e-05 -6.42021e-05 0.10466)
(-1.31415e-05 2.85982e-05 0.0999672)
(1.9219e-05 -2.97181e-05 0.100031)
(-8.51454e-05 -1.95998e-07 0.108001)
(6.08676e-05 1.45574e-05 0.104549)
(8.13835e-05 9.77786e-07 0.108006)
(-6.5616e-05 -1.09431e-05 0.104578)
(-1.38342e-06 -3.83605e-06 0.115674)
(-5.95119e-07 4.77873e-07 0.115671)
(1.10302e-06 2.38908e-08 0.115669)
(-3.63861e-06 2.05964e-06 0.115675)
(4.43635e-06 8.77857e-07 0.115673)
(-2.63022e-06 2.26361e-06 0.115664)
(2.51514e-06 3.31436e-06 0.115668)
(7.65694e-05 -9.28546e-08 0.108734)
(-5.96452e-05 4.46754e-05 0.108237)
(2.89827e-08 -1.71583e-06 0.114703)
(2.6161e-07 5.26603e-07 0.114009)
(6.17773e-05 -4.25444e-05 0.108233)
(9.62374e-07 -7.58369e-07 0.114702)
(-7.82746e-05 1.26468e-06 0.108749)
(2.75261e-05 -1.62667e-05 0.099897)
(-3.18798e-05 1.62905e-05 0.0999463)
(-2.07149e-06 7.82816e-05 0.108746)
(-2.53712e-06 -5.30113e-07 0.114749)
(4.21066e-05 -5.86305e-05 0.108257)
(2.02909e-06 -2.69318e-06 0.114029)
(-1.22662e-06 -9.18458e-07 0.114744)
(-4.46469e-05 5.79502e-05 0.10826)
(6.75921e-07 -7.61158e-05 0.108747)
(-2.86538e-05 -3.88443e-05 0.107254)
(-3.67724e-05 -2.81917e-05 0.107292)
(0.000320081 0.000327655 0.110703)
(3.05189e-05 3.90471e-05 0.107255)
(3.78888e-05 2.71992e-05 0.107294)
(-3.91474e-07 -8.06649e-05 0.108049)
(1.12914e-05 6.27219e-05 0.104637)
(3.91595e-07 7.98606e-05 0.108046)
(-1.33344e-05 -6.02459e-05 0.10467)
(-1.32865e-05 3.00343e-05 0.0999958)
(1.43978e-05 -2.79461e-05 0.10004)
(-8.15149e-05 9.31804e-07 0.108003)
(6.24043e-05 1.48955e-05 0.104556)
(8.30672e-05 2.30909e-06 0.10801)
(-6.18782e-05 -1.34136e-05 0.104584)
(4.25192e-06 2.4204e-06 0.115673)
(-2.98643e-06 1.86168e-06 0.115662)
(2.02237e-06 2.86203e-06 0.115666)
(-2.41824e-06 4.54949e-06 0.115677)
(2.47336e-06 4.10439e-06 0.115675)
(-8.01458e-07 2.18361e-06 0.11567)
(-1.72137e-07 1.76853e-06 0.115672)
(7.28876e-05 -5.45496e-07 0.108737)
(-5.90711e-05 4.48342e-05 0.108242)
(4.02136e-06 2.13259e-07 0.114701)
(1.18775e-06 4.59302e-06 0.114011)
(-7.53424e-05 2.09661e-06 0.108749)
(5.89898e-05 -4.33648e-05 0.10824)
(2.96614e-06 1.29443e-06 0.114703)
(2.90074e-05 -1.49749e-05 0.0999023)
(-2.91318e-05 1.62077e-05 0.0999474)
(-2.16048e-06 7.57719e-05 0.108749)
(-2.16419e-06 -5.96496e-07 0.114743)
(4.27305e-05 -5.8725e-05 0.108259)
(2.16571e-06 -2.68325e-06 0.114027)
(4.69579e-07 -7.69917e-05 0.108747)
(-1.61691e-06 -1.61163e-06 0.114742)
(-4.40323e-05 5.68763e-05 0.108263)
(-2.85567e-05 -3.76439e-05 0.107255)
(-3.79765e-05 -2.68429e-05 0.107286)
(0.000317794 0.000326356 0.110703)
(2.88815e-05 3.75086e-05 0.107257)
(3.71024e-05 2.7578e-05 0.107295)
(-2.1024e-07 -8.22134e-05 0.108042)
(1.27856e-05 6.31256e-05 0.104631)
(7.16001e-07 8.22746e-05 0.108042)
(-1.39677e-05 -6.26136e-05 0.104662)
(-1.47588e-05 2.98475e-05 0.0999906)
(1.54859e-05 -2.93034e-05 0.100041)
(-8.3039e-05 1.97646e-07 0.107998)
(6.20436e-05 1.40486e-05 0.104553)
(8.20325e-05 1.01193e-06 0.108007)
(-6.35995e-05 -1.49116e-05 0.104579)
(2.55672e-06 3.17895e-06 0.115676)
(-9.26503e-07 2.35672e-06 0.11567)
(1.6776e-07 1.93042e-06 0.115671)
(-5.7894e-07 1.25202e-06 0.115678)
(1.74065e-06 1.51529e-06 0.115676)
(3.35302e-07 1.17346e-06 0.115674)
(8.5086e-07 8.31104e-07 0.115675)
(7.60716e-05 -1.44777e-06 0.108741)
(-6.09163e-05 4.37431e-05 0.108242)
(1.69887e-06 5.63202e-07 0.114708)
(3.3722e-07 2.81883e-06 0.114019)
(-7.75222e-05 1.58402e-06 0.108755)
(5.99159e-05 -4.47401e-05 0.108238)
(2.74673e-06 9.78529e-07 0.114709)
(2.93529e-05 -1.59844e-05 0.0999048)
(-2.9662e-05 1.53123e-05 0.0999424)
(-1.88747e-06 7.78421e-05 0.108748)
(-1.8035e-06 -1.4515e-06 0.114746)
(4.27687e-05 -5.83725e-05 0.108258)
(2.88812e-06 -1.43014e-06 0.114037)
(9.30835e-07 -7.77701e-05 0.108747)
(-1.07265e-06 -8.00528e-07 0.114748)
(-4.46507e-05 5.83065e-05 0.10826)
(-2.93701e-05 -3.79087e-05 0.107253)
(-3.818e-05 -2.71708e-05 0.10729)
(0.000320368 0.000327981 0.110708)
(2.98911e-05 3.87899e-05 0.107256)
(3.78147e-05 2.81509e-05 0.107293)
(4.33134e-07 -8.27065e-05 0.108046)
(1.41761e-05 6.19243e-05 0.104632)
(8.25379e-07 8.30519e-05 0.108041)