/*--------------------------------*- C++ -*----------------------------------*\
| =========                 |                                                 |
| \\      /  F ield         | OpenFOAM: The Open Source CFD Toolbox           |
|  \\    /   O peration     | Version:  2206                                  |
|   \\  /    A nd           | Website:  www.openfoam.com                      |
|    \\/     M anipulation  |                                                 |
\*---------------------------------------------------------------------------*/
FoamFile
{
    version     2.0;
    format      ascii;
    arch        "LSB;label=32;scalar=64";
    class       volScalarField;
    location    "0.6";
    object      Co;
}
// * * * * * * * * * * * * * * * * * * * * * * * * * * * * * * * * * * * * * //

dimensions      [0 0 0 0 0 0 0];

internalField   nonuniform List<scalar> 
185391
(
0.102323
0.102101
0.10287
0.103646
0.103452
0.103509
0.102883
0.102194
0.102309
0.102111
0.102244
0.103756
0.103547
0.103137
0.103187
0.103788
0.102314
0.102739
0.102217
0.102861
0.103027
0.103036
0.102493
0.102395
0.103773
0.10278
0.103462
0.103001
0.103372
0.102614
0.103387
0.10301
0.102656
0.102455
0.102792
0.10323
0.103452
0.102852
0.103237
0.102867
0.103529
0.103326
0.102941
0.10295
0.102791
0.103536
0.102898
0.102811
0.102394
0.103449
0.103268
0.0998271
0.103211
0.102182
0.103752
0.102523
0.103504
0.104008
0.103383
0.102999
0.103247
0.103521
0.102662
0.103168
0.103165
0.103198
0.102539
0.103241
0.102874
0.103747
0.103102
0.103586
0.102999
0.103417
0.102616
0.103927
0.103207
0.103665
0.102352
0.103786
0.103211
0.102772
0.103651
0.103547
0.103396
0.102894
0.102781
0.103249
0.103077
0.103493
0.104043
0.103955
0.103666
0.103436
0.10352
0.103326
0.103025
0.102368
0.103649
0.103282
0.103556
0.102248
0.10243
0.103215
0.102621
0.103739
0.10231
0.102199
0.10245
0.102865
0.102807
0.10366
0.102484
0.102871
0.103298
0.103293
0.102371
0.103432
0.1028
0.102453
0.103444
0.103835
0.10321
0.103347
0.102996
0.103148
0.103239
0.103233
0.103371
0.103181
0.104032
0.103244
0.10382
0.104144
0.104035
0.103161
0.102877
0.103816
0.102929
0.103346
0.103796
0.104032
0.103511
0.102351
0.103329
0.102006
0.103634
0.103289
0.103552
0.103789
0.104053
0.103406
0.102947
0.103948
0.10373
0.103732
0.103796
0.102741
0.102875
0.104033
0.10315
0.103626
0.103485
0.103001
0.102733
0.103873
0.104509
0.103274
0.103184
0.102355
0.103098
0.104156
0.103304
0.103337
0.103909
0.103766
0.103774
0.102384
0.104053
0.103647
0.102327
0.103832
0.104138
0.10355
0.102494
0.10292
0.103678
0.10372
0.103663
0.102595
0.102538
0.10373
0.10377
0.103634
0.103801
0.104432
0.103949
0.103024
0.102339
0.104037
0.103558
0.103734
0.104199
0.103539
0.102927
0.103275
0.103315
0.10325
0.103833
0.103978
0.103803
0.103837
0.103748
0.10377
0.103254
0.103681
0.102944
0.10377
0.103174
0.104107
0.103486
0.103568
0.103902
0.103787
0.103112
0.103358
0.103756
0.103716
0.103851
0.104121
0.103129
0.103849
0.10409
0.103643
0.103705
0.103552
0.104023
0.103411
0.103461
0.104228
0.103888
0.103812
0.103574
0.103698
0.103054
0.102307
0.103714
0.103593
0.103647
0.1024
0.102455
0.103769
0.102542
0.103884
0.103889
0.102877
0.102714
0.102003
0.102568
0.102882
0.103549
0.103121
0.102744
0.103289
0.103556
0.103561
0.103714
0.103181
0.102626
0.102576
0.103572
0.104033
0.103439
0.102257
0.103539
0.103113
0.102959
0.103614
0.102661
0.102566
0.102678
0.102373
0.102828
0.103942
0.102962
0.103987
0.103318
0.103963
0.103641
0.103235
0.103528
0.103634
0.102461
0.102307
0.102243
0.103891
0.103781
0.103347
0.10311
0.103346
0.102897
0.103245
0.103136
0.104111
0.103422
0.103439
0.102712
0.103726
0.0999539
0.103944
0.102573
0.103607
0.103748
0.104286
0.102969
0.103611
0.103533
0.101726
0.103632
0.102208
0.103636
0.10287
0.102587
0.102407
0.103023
0.102424
0.102725
0.0995254
0.102865
0.102544
0.102554
0.103312
0.103376
0.102591
0.102623
0.1032
0.102971
0.103106
0.103342
0.102228
0.103494
0.102514
0.102586
0.102826
0.10249
0.102413
0.102198
0.103526
0.102424
0.103359
0.103359
0.103081
0.103477
0.102333
0.103194
0.103029
0.103452
0.102985
0.103507
0.102372
0.103553
0.102162
0.103699
0.10387
0.10264
0.103019
0.102755
0.103452
0.102484
0.102579
0.102777
0.102498
0.103498
0.10242
0.10345
0.103423
0.103211
0.102601
0.101981
0.103337
0.102642
0.102777
0.102233
0.102206
0.102481
0.102304
0.102211
0.103708
0.103139
0.103606
0.103215
0.103452
0.10259
0.103649
0.102937
0.10298
0.103536
0.102944
0.104056
0.104107
0.103862
0.1039
0.102982
0.10389
0.103196
0.103466
0.103892
0.10274
0.101973
0.102171
0.103826
0.103916
0.103411
0.103082
0.103977
0.103456
0.102548
0.103693
0.104109
0.104022
0.103404
0.103513
0.102617
0.102686
0.103853
0.103856
0.103902
0.10223
0.103998
0.102636
0.102171
0.103518
0.102917
0.103204
0.103327
0.102691
0.103615
0.103949
0.103832
0.102953
0.103689
0.102847
0.102373
0.103129
0.102482
0.103064
0.102757
0.102186
0.102859
0.103616
0.102735
0.103719
0.10234
0.102708
0.103156
0.102482
0.102915
0.103088
0.103499
0.103933
0.104065
0.103284
0.102418
0.103873
0.103661
0.103452
0.103895
0.102987
0.103901
0.103757
0.103469
0.103919
0.103028
0.103523
0.103563
0.104319
0.103509
0.103424
0.102504
0.102333
0.102517
0.103552
0.10356
0.103417
0.103676
0.103257
0.103295
0.103234
0.103267
0.103215
0.103561
0.103638
0.104094
0.104252
0.103898
0.103709
0.103686
0.103802
0.103616
0.103647
0.103377
0.103458
0.103576
0.10356
0.10363
0.103724
0.103551
0.103356
0.104013
0.103663
0.103885
0.103746
0.103808
0.103566
0.103878
0.103769
0.103596
0.103547
0.103438
0.103284
0.103504
0.103593
0.103234
0.103043
0.10327
0.10338
0.103617
0.10319
0.103343
0.103377
0.103307
0.103641
0.103447
0.103258
0.103485
0.103892
0.103945
0.10384
0.103921
0.103537
0.103827
0.103929
0.103923
0.103358
0.103434
0.103359
0.103276
0.103396
0.103367
0.103336
0.103252
0.1033
0.103206
0.103134
0.103242
0.103093
0.103133
0.10319
0.103139
0.103179
0.103116
0.103092
0.103287
0.103308
0.103311
0.103363
0.103362
0.103501
0.103512
0.103779
0.103676
0.103677
0.103749
0.103897
0.103881
0.103579
0.10362
0.103692
0.103487
0.103665
0.10356
0.103608
0.103359
0.103359
0.103342
0.103342
0.103407
0.103616
0.103689
0.103737
0.103786
0.103611
0.103999
0.103705
0.103706
0.103713
0.103565
0.103176
0.103339
0.103373
0.103504
0.10328
0.103532
0.103233
0.103531
0.103391
0.103486
0.10342
0.10374
0.103387
0.103389
0.103312
0.10354
0.103564
0.103608
0.103524
0.103302
0.103478
0.103455
0.103189
0.103182
0.10308
0.103169
0.102957
0.103108
0.103166
0.103541
0.103237
0.103443
0.103186
0.103208
0.103139
0.103071
0.10311
0.103044
0.102977
0.103078
0.10334
0.103288
0.103318
0.103189
0.103248
0.103262
0.103611
0.103619
0.103493
0.103508
0.103578
0.103583
0.10363
0.103707
0.103499
0.103499
0.103582
0.103486
0.103353
0.103571
0.103524
0.103496
0.103355
0.103342
0.103329
0.103364
0.103374
0.103516
0.103734
0.103702
0.103822
0.103712
0.103699
0.10384
0.103933
0.103572
0.104143
0.103203
0.103347
0.100038
0.103437
0.103374
0.103374
0.103251
0.103268
0.103021
0.103045
0.103241
0.10333
0.10311
0.103134
0.103058
0.103089
0.10306
0.103158
0.103222
0.103237
0.103225
0.103394
0.103324
0.103324
0.103368
0.103325
0.103367
0.103516
0.103554
0.103667
0.103755
0.10373
0.103496
0.103757
0.103676
0.103653
0.10389
0.103664
0.103682
0.103802
0.103867
0.103754
0.103796
0.10371
0.103688
0.103504
0.103538
0.103696
0.103622
0.103733
0.103731
0.103835
0.10365
0.103309
0.103399
0.103477
0.103413
0.103304
0.103571
0.103468
0.103411
0.103563
0.103468
0.103744
0.103663
0.103491
0.103611
0.103349
0.103487
0.103393
0.10358
0.103226
0.103417
0.103238
0.103657
0.103109
0.103182
0.103182
0.103265
0.103214
0.103244
0.103147
0.103225
0.103259
0.103365
0.103624
0.103438
0.103784
0.103377
0.103369
0.103391
0.103319
0.103194
0.103194
0.103216
0.103216
0.103182
0.10337
0.103456
0.103419
0.103463
0.103332
0.103268
0.103476
0.10364
0.103745
0.103745
0.103712
0.103721
0.103631
0.103601
0.103427
0.103337
0.103507
0.10336
0.103396
0.103592
0.103523
0.103623
0.10354
0.103541
0.103519
0.103457
0.10345
0.103753
0.103533
0.103652
0.103541
0.103537
0.103706
0.103787
0.103868
0.103696
0.104247
0.103044
0.10344
0.100128
0.103165
0.103261
0.103365
0.103324
0.103202
0.103213
0.103064
0.103095
0.103095
0.1032
0.103001
0.102985
0.103024
0.103045
0.103162
0.103315
0.103176
0.10319
0.103143
0.103254
0.103457
0.103409
0.103409
0.103373
0.103449
0.103389
0.103419
0.103309
0.103452
0.103471
0.103676
0.103541
0.103757
0.104046
0.103713
0.103729
0.103825
0.10385
0.103805
0.103684
0.103572
0.103786
0.103605
0.103721
0.103488
0.103482
0.103555
0.103364
0.103432
0.10335
0.103244
0.103267
0.103387
0.103387
0.103381
0.103566
0.103466
0.103408
0.103408
0.103476
0.103486
0.103484
0.103718
0.103557
0.103744
0.103684
0.103726
0.103687
0.103527
0.103402
0.103402
0.103487
0.103379
0.103608
0.103307
0.103406
0.103337
0.103338
0.103247
0.103328
0.103403
0.103483
0.103322
0.103313
0.103357
0.103345
0.103313
0.103207
0.103179
0.103264
0.102971
0.102971
0.102971
0.103149
0.103373
0.103196
0.103135
0.103238
0.103167
0.103159
0.103435
0.103197
0.103343
0.103469
0.103707
0.103633
0.10363
0.103703
0.103511
0.103622
0.103486
0.103466
0.103551
0.103472
0.103464
0.103357
0.103413
0.103312
0.103226
0.103369
0.103534
0.10354
0.10355
0.103601
0.103565
0.10375
0.103658
0.104033
0.103973
0.103964
0.10445
0.103258
0.103595
0.100408
0.103221
0.103268
0.103268
0.103182
0.10318
0.103224
0.103124
0.103119
0.103206
0.103174
0.103081
0.103101
0.102996
0.103038
0.103169
0.103096
0.103271
0.103335
0.103254
0.103789
0.103612
0.103988
0.103717
0.103564
0.10357
0.103548
0.103363
0.10326
0.10323
0.103393
0.103577
0.103533
0.103701
0.103554
0.103599
0.103667
0.103851
0.103786
0.103682
0.103681
0.103664
0.103502
0.103607
0.103367
0.103357
0.103414
0.103416
0.103313
0.103224
0.103256
0.103262
0.103195
0.103179
0.103207
0.103385
0.103517
0.103508
0.103446
0.103475
0.103523
0.103463
0.103625
0.103755
0.103775
0.103796
0.103721
0.103907
0.103681
0.103779
0.103661
0.103752
0.103765
0.103904
0.103742
0.103703
0.103615
0.103644
0.103475
0.10339
0.103314
0.103335
0.103528
0.103168
0.103224
0.103144
0.102908
0.102908
0.103166
0.103166
0.103125
0.103041
0.103007
0.103028
0.103201
0.103201
0.103296
0.103158
0.103115
0.103352
0.103486
0.103474
0.103571
0.103268
0.103388
0.103567
0.103542
0.103648
0.10349
0.103449
0.103579
0.103396
0.103454
0.103401
0.103367
0.103297
0.103115
0.103134
0.103082
0.103074
0.103143
0.10326
0.103309
0.103447
0.103457
0.103575
0.103576
0.103757
0.104014
0.103762
0.103755
0.104352
0.103386
0.10365
0.100179
0.103318
0.103434
0.103434
0.103258
0.103269
0.103298
0.103298
0.103239
0.103234
0.103159
0.103388
0.103138
0.103297
0.103186
0.10329
0.103062
0.103262
0.103648
0.103856
0.104009
0.104124
0.104244
0.103603
0.104169
0.103723
0.103863
0.103571
0.10342
0.10342
0.103471
0.103517
0.103666
0.103663
0.103438
0.103547
0.103531
0.103794
0.103508
0.103598
0.10346
0.10366
0.103788
0.103513
0.10361
0.103437
0.103616
0.103517
0.103549
0.103357
0.103376
0.103324
0.103271
0.103204
0.103257
0.103359
0.103364
0.103358
0.103551
0.103417
0.103666
0.103352
0.103428
0.103381
0.103458
0.103556
0.103709
0.103586
0.10364
0.103888
0.103831
0.103844
0.103758
0.104068
0.10388
0.10412
0.103968
0.104126
0.103785
0.103599
0.103589
0.103435
0.103203
0.103335
0.103304
0.103191
0.103136
0.102965
0.103181
0.10325
0.103118
0.103118
0.10312
0.102938
0.103055
0.10306
0.103015
0.103061
0.103149
0.103205
0.10315
0.103481
0.103414
0.103244
0.103625
0.103445
0.103382
0.103432
0.103193
0.103436
0.103147
0.10335
0.103199
0.103293
0.103238
0.103337
0.103455
0.103336
0.103384
0.103219
0.103299
0.103299
0.103386
0.103405
0.103533
0.103407
0.103554
0.103918
0.103789
0.103727
0.103593
0.104416
0.103256
0.103338
0.100025
0.103452
0.103591
0.103323
0.103234
0.103246
0.103222
0.103222
0.103119
0.103107
0.103047
0.103297
0.103306
0.103428
0.103428
0.103855
0.103855
0.104609
0.104609
0.1042
0.103236
0.103896
0.103454
0.10355
0.103492
0.103236
0.103425
0.103425
0.103443
0.103366
0.103468
0.103488
0.103611
0.10351
0.103583
0.103475
0.103386
0.103531
0.103336
0.103607
0.103418
0.103472
0.103455
0.103422
0.103511
0.103634
0.103467
0.103218
0.103521
0.103374
0.103401
0.103184
0.103186
0.103257
0.103082
0.103025
0.103159
0.103159
0.103444
0.103196
0.103361
0.103279
0.103294
0.103426
0.103385
0.103115
0.103388
0.103457
0.103558
0.103425
0.103504
0.103511
0.103604
0.103793
0.103624
0.103681
0.103368
0.103405
0.103489
0.103315
0.103177
0.103225
0.103297
0.103322
0.103334
0.103089
0.10314
0.103127
0.10309
0.10321
0.103062
0.103062
0.103162
0.103162
0.10301
0.103299
0.103093
0.103093
0.103192
0.103486
0.103173
0.10316
0.103154
0.103329
0.103423
0.103251
0.10325
0.103151
0.103212
0.103225
0.103215
0.103234
0.103423
0.103481
0.10332
0.103347
0.103412
0.103359
0.103599
0.103409
0.103534
0.103633
0.10359
0.103828
0.103857
0.103911
0.103757
0.103776
0.103715
0.104283
0.103156
0.103278
0.0998654
0.103589
0.103466
0.103201
0.103073
0.103122
0.103078
0.103078
0.102958
0.103122
0.102961
0.103038
0.10304
0.103549
0.103195
0.104064
0.104064
0.103161
0.103209
0.103351
0.10349
0.103455
0.103231
0.103125
0.103502
0.103502
0.103676
0.103566
0.103577
0.103577
0.103676
0.103692
0.103547
0.103473
0.103523
0.103433
0.103372
0.103482
0.103381
0.103477
0.103293
0.103339
0.103317
0.103536
0.103349
0.103356
0.103359
0.103287
0.103366
0.103365
0.103476
0.103317
0.103226
0.103227
0.103344
0.1036
0.103478
0.10382
0.103593
0.103677
0.103564
0.103564
0.103364
0.103457
0.103592
0.103832
0.103679
0.103694
0.103775
0.103763
0.103877
0.103633
0.103546
0.103414
0.103322
0.103282
0.103114
0.103115
0.103119
0.103071
0.10324
0.103323
0.103248
0.103237
0.103237
0.103286
0.10323
0.102811
0.102807
0.103063
0.103142
0.103142
0.103093
0.102872
0.102981
0.103228
0.103185
0.103185
0.103431
0.102938
0.103021
0.103021
0.103186
0.10323
0.103343
0.103006
0.10305
0.102986
0.103114
0.103298
0.103298
0.103055
0.102941
0.103296
0.102992
0.102961
0.103224
0.103267
0.103218
0.103247
0.103421
0.103609
0.103516
0.10353
0.103612
0.103752
0.103676
0.104164
0.103247
0.103383
0.0999568
0.10342
0.103355
0.103117
0.10315
0.102964
0.103058
0.103148
0.103188
0.103069
0.103165
0.103066
0.103152
0.103185
0.103184
0.103381
0.103061
0.103109
0.103274
0.103454
0.103461
0.103461
0.103486
0.103292
0.103456
0.10371
0.103733
0.103849
0.103691
0.103722
0.103667
0.103732
0.10365
0.103645
0.103293
0.103232
0.103346
0.10331
0.103423
0.103313
0.103143
0.103133
0.103221
0.103324
0.103497
0.103333
0.103257
0.103312
0.103115
0.103274
0.103479
0.103543
0.103362
0.103272
0.103287
0.103287
0.103403
0.103487
0.103638
0.103625
0.103731
0.103527
0.103359
0.103291
0.103622
0.103617
0.10379
0.103594
0.103463
0.103757
0.103655
0.103351
0.10334
0.10334
0.103496
0.103185
0.1032
0.103087
0.103195
0.103069
0.103158
0.102956
0.103094
0.103154
0.103154
0.103107
0.10314
0.103021
0.102884
0.102884
0.103184
0.103197
0.103353
0.10301
0.102976
0.102976
0.103007
0.103007
0.103074
0.102974
0.103099
0.103099
0.103204
0.103204
0.10318
0.10306
0.10301
0.102992
0.103027
0.103179
0.103334
0.102805
0.103023
0.102946
0.103183
0.102912
0.103073
0.103047
0.103272
0.103117
0.103197
0.103338
0.103444
0.103498
0.103695
0.103901
0.103567
0.103939
0.102982
0.103218
0.100012
0.103237
0.103152
0.103264
0.103218
0.103218
0.103199
0.103199
0.10317
0.103351
0.103281
0.103336
0.103218
0.103397
0.103383
0.103383
0.103103
0.103148
0.103008
0.103237
0.103471
0.10367
0.10337
0.103426
0.103585
0.103603
0.103601
0.103672
0.103803
0.103701
0.103709
0.103732
0.103743
0.103488
0.103457
0.103423
0.103016
0.103016
0.103073
0.103073
0.103151
0.102996
0.102978
0.103019
0.103244
0.10334
0.103446
0.103065
0.103051
0.103271
0.103017
0.102997
0.103196
0.103397
0.103375
0.103278
0.10341
0.103594
0.103553
0.103776
0.103776
0.103528
0.103503
0.103393
0.103723
0.103502
0.10347
0.10345
0.103491
0.103803
0.103524
0.103243
0.103245
0.103385
0.10336
0.10336
0.103255
0.103258
0.103198
0.103248
0.103126
0.103126
0.103288
0.103292
0.103343
0.103054
0.103102
0.103216
0.103199
0.10312
0.103314
0.103554
0.103279
0.103279
0.10316
0.10316
0.103078
0.103078
0.103011
0.103141
0.103313
0.103313
0.103197
0.103175
0.10322
0.103265
0.103325
0.103325
0.103408
0.103408
0.103298
0.103106
0.103236
0.103407
0.103288
0.103381
0.10333
0.103447
0.103356
0.103356
0.103273
0.103415
0.103506
0.103716
0.103751
0.103848
0.103606
0.1041
0.102789
0.103445
0.100181
0.103163
0.103172
0.102993
0.103118
0.103141
0.103253
0.10327
0.103235
0.103068
0.10307
0.103097
0.103047
0.103325
0.103401
0.103575
0.103286
0.103192
0.103224
0.103123
0.103168
0.103455
0.103424
0.103871
0.104043
0.10354
0.103675
0.103756
0.103693
0.103672
0.103571
0.103571
0.103471
0.103572
0.103378
0.103349
0.103381
0.103131
0.10312
0.103385
0.1033
0.1033
0.10323
0.10323
0.103368
0.103368
0.103346
0.10338
0.103275
0.103384
0.103239
0.103215
0.103477
0.103485
0.103512
0.103374
0.103615
0.103461
0.103494
0.103649
0.103425
0.103358
0.103404
0.103787
0.103605
0.103397
0.103564
0.103665
0.103697
0.103688
0.1038
0.103554
0.103286
0.103394
0.103429
0.103454
0.103454
0.10332
0.103256
0.103368
0.103273
0.103421
0.103564
0.103538
0.103508
0.103171
0.103154
0.103336
0.103206
0.103273
0.103173
0.103202
0.103323
0.103589
0.103385
0.103354
0.10327
0.10327
0.103112
0.103454
0.103559
0.103646
0.10346
0.103407
0.103284
0.10339
0.103329
0.103293
0.103325
0.103389
0.103242
0.103302
0.103376
0.10355
0.103386
0.103386
0.103452
0.103407
0.10351
0.103433
0.103427
0.10335
0.103507
0.103584
0.103747
0.103865
0.103808
0.104064
0.102911
0.103416
0.100146
0.103442
0.103397
0.103274
0.103213
0.103313
0.103344
0.103493
0.10337
0.103187
0.103084
0.103084
0.103099
0.103025
0.103083
0.103083
0.103144
0.103304
0.103232
0.103124
0.103244
0.103263
0.103377
0.103903
0.103887
0.103449
0.103544
0.103565
0.103611
0.103429
0.103445
0.103445
0.103522
0.103446
0.10333
0.103364
0.103324
0.103305
0.103259
0.103208
0.103243
0.103489
0.103405
0.103356
0.103411
0.103411
0.103288
0.103229
0.103212
0.103236
0.103317
0.103274
0.103095
0.103233
0.103301
0.103565
0.103754
0.103704
0.10388
0.103661
0.103583
0.103515
0.103692
0.103754
0.103754
0.103653
0.103738
0.103623
0.103856
0.103978
0.103707
0.103641
0.103492
0.103425
0.103412
0.103579
0.103367
0.10335
0.103285
0.103219
0.103303
0.103271
0.103625
0.103387
0.103265
0.103228
0.103208
0.103161
0.103143
0.103221
0.103225
0.103268
0.103083
0.103191
0.103376
0.103384
0.103452
0.103306
0.103261
0.103347
0.103701
0.103618
0.103496
0.10338
0.103263
0.103294
0.103439
0.103111
0.103149
0.103199
0.103215
0.103215
0.103361
0.103387
0.103391
0.103398
0.103286
0.103355
0.103395
0.103477
0.103477
0.103319
0.103374
0.103318
0.103536
0.103633
0.103772
0.103873
0.102786
0.103283
0.0999511
0.103862
0.103366
0.103362
0.103264
0.103264
0.103217
0.10316
0.103129
0.103103
0.103016
0.103021
0.10312
0.10312
0.103098
0.103237
0.103222
0.103415
0.103415
0.103346
0.103394
0.103546
0.103392
0.103216
0.103431
0.103431
0.103452
0.103439
0.103471
0.103501
0.10356
0.10356
0.103526
0.103268
0.103351
0.103524
0.103361
0.103361
0.103236
0.103341
0.103358
0.103382
0.103385
0.103446
0.103233
0.103265
0.103226
0.103235
0.103186
0.103222
0.103232
0.103256
0.103258
0.103553
0.103526
0.103782
0.104006
0.103791
0.103823
0.103663
0.10387
0.103763
0.103782
0.10376
0.103829
0.103695
0.10366
0.10356
0.103496
0.103448
0.103387
0.103397
0.103331
0.103392
0.103555
0.103557
0.10353
0.103433
0.103445
0.103701
0.10349
0.103101
0.103123
0.103351
0.103361
0.103288
0.103227
0.103149
0.103231
0.103182
0.10326
0.103281
0.103009
0.103142
0.103095
0.103147
0.103161
0.103364
0.103698
0.103443
0.103448
0.103451
0.103465
0.103552
0.103438
0.103456
0.103318
0.103418
0.103359
0.103477
0.103555
0.103411
0.103443
0.103355
0.103218
0.103352
0.103159
0.103234
0.103164
0.103198
0.10335
0.103392
0.103568
0.103665
0.103589
0.104013
0.102792
0.103335
0.100148
0.103756
0.10353
0.103503
0.103608
0.103342
0.103278
0.103169
0.103096
0.102992
0.102942
0.103022
0.10319
0.10319
0.103276
0.103276
0.103366
0.103436
0.103425
0.103432
0.103476
0.103454
0.10338
0.103623
0.103665
0.103769
0.103686
0.103719
0.103708
0.103901
0.103776
0.103801
0.103548
0.10348
0.103369
0.103538
0.103396
0.103427
0.103325
0.10337
0.103526
0.103481
0.103657
0.103512
0.10341
0.103324
0.103305
0.103282
0.103254
0.10334
0.10347
0.103452
0.103567
0.103521
0.103589
0.103874
0.103623
0.10384
0.103989
0.103855
0.103778
0.103718
0.103801
0.103896
0.103916
0.103752
0.103926
0.103668
0.103583
0.103447
0.103421
0.103347
0.103348
0.103466
0.103199
0.103371
0.103334
0.103357
0.103485
0.103556
0.103556
0.103153
0.103226
0.10333
0.103494
0.103442
0.103423
0.103279
0.103211
0.103427
0.103283
0.103283
0.103269
0.103173
0.103128
0.103086
0.103175
0.103483
0.103491
0.10343
0.103452
0.103387
0.103349
0.103344
0.103378
0.103378
0.103378
0.103285
0.103268
0.103433
0.103485
0.10349
0.103379
0.103252
0.103226
0.103202
0.103209
0.103209
0.103215
0.103159
0.103279
0.103382
0.103591
0.104079
0.10391
0.104345
0.103229
0.103623
0.100077
0.103618
0.103411
0.103635
0.103403
0.103359
0.103317
0.103317
0.103221
0.103209
0.103099
0.103017
0.103187
0.103402
0.103358
0.103429
0.103595
0.103375
0.103522
0.103663
0.103663
0.103515
0.10362
0.103468
0.104041
0.103792
0.103851
0.103731
0.103662
0.103759
0.103546
0.103616
0.103385
0.103326
0.103338
0.103339
0.103403
0.103324
0.103324
0.103407
0.103444
0.103542
0.103639
0.103494
0.103387
0.103318
0.103465
0.103289
0.103452
0.103482
0.103488
0.103475
0.10366
0.103621
0.103672
0.103576
0.103494
0.103835
0.103642
0.1036
0.103623
0.103661
0.103588
0.103818
0.103512
0.103529
0.103517
0.103495
0.103407
0.103294
0.103315
0.103378
0.103391
0.103298
0.103375
0.103237
0.103142
0.103283
0.103212
0.103334
0.103288
0.103125
0.103236
0.103176
0.103627
0.103614
0.103444
0.103397
0.103284
0.103225
0.103209
0.103372
0.10327
0.103292
0.103169
0.103058
0.103171
0.103333
0.103215
0.103263
0.103284
0.103287
0.103316
0.103285
0.103262
0.103262
0.103235
0.103295
0.103209
0.103355
0.103331
0.103367
0.103267
0.103187
0.103214
0.103289
0.103263
0.103447
0.103335
0.103435
0.10353
0.10354
0.103633
0.103742
0.103763
0.104449
0.10362
0.103689
0.100226
0.10348
0.103383
0.103591
0.103493
0.103108
0.103338
0.1034
0.103264
0.103264
0.103209
0.103079
0.103216
0.103329
0.103329
0.103487
0.103487
0.103153
0.103481
0.103448
0.103462
0.103643
0.103561
0.103663
0.103351
0.103552
0.103657
0.103678
0.1038
0.10377
0.10369
0.103509
0.103499
0.103494
0.103501
0.103323
0.10328
0.103282
0.103361
0.103295
0.103185
0.103354
0.103204
0.10315
0.103233
0.103267
0.103196
0.103287
0.103217
0.103414
0.10334
0.103491
0.103334
0.103434
0.10355
0.103511
0.103648
0.103719
0.103681
0.10357
0.103405
0.103555
0.103548
0.103338
0.103359
0.10347
0.103245
0.103302
0.103351
0.103164
0.103244
0.103244
0.103345
0.1034
0.103377
0.103377
0.103259
0.103234
0.103224
0.103121
0.103183
0.103342
0.103342
0.103441
0.103649
0.103259
0.103619
0.103529
0.103561
0.103347
0.10333
0.103272
0.103311
0.10327
0.103237
0.103129
0.103387
0.103248
0.103255
0.1033
0.103315
0.10316
0.103257
0.103285
0.103279
0.103279
0.103236
0.103265
0.103304
0.103241
0.10318
0.103179
0.10315
0.10315
0.103271
0.103271
0.103302
0.103309
0.103408
0.103818
0.103931
0.103926
0.103912
0.10401
0.103853
0.104447
0.103289
0.10374
0.100405
0.103361
0.103499
0.103321
0.103398
0.103234
0.103322
0.103039
0.103044
0.103062
0.103278
0.103015
0.103357
0.103249
0.103527
0.103559
0.103505
0.103332
0.103358
0.103334
0.103369
0.103372
0.103366
0.103268
0.103384
0.103504
0.10334
0.103388
0.103413
0.103583
0.103512
0.1035
0.10331
0.103271
0.10311
0.10302
0.103124
0.103124
0.103248
0.103136
0.103269
0.103254
0.103203
0.103016
0.103159
0.103159
0.103232
0.103195
0.103239
0.103267
0.103309
0.103466
0.103357
0.103531
0.103307
0.103387
0.103781
0.103736
0.103736
0.103515
0.103595
0.103668
0.103441
0.103449
0.103482
0.103379
0.103405
0.103424
0.10341
0.10341
0.103433
0.103433
0.103349
0.103362
0.10343
0.10343
0.103386
0.103296
0.103223
0.103223
0.103096
0.103213
0.103207
0.103743
0.103743
0.103492
0.103384
0.103386
0.103576
0.103467
0.103566
0.103411
0.103185
0.103246
0.103133
0.103182
0.103183
0.103218
0.103364
0.103448
0.103407
0.103345
0.103327
0.103303
0.103372
0.103297
0.103301
0.103256
0.10325
0.103193
0.103305
0.103248
0.103288
0.103082
0.103154
0.103154
0.103232
0.103337
0.103324
0.103425
0.103581
0.10385
0.10402
0.104109
0.104173
0.104381
0.103145
0.103634
0.100243
0.103474
0.103343
0.103451
0.103365
0.103624
0.103388
0.103387
0.103314
0.103383
0.103257
0.103343
0.103207
0.103303
0.103198
0.103201
0.103186
0.103209
0.10321
0.103364
0.103225
0.10307
0.103101
0.103243
0.103391
0.103391
0.103439
0.103405
0.103447
0.10341
0.103377
0.103425
0.103308
0.103522
0.103424
0.103394
0.103528
0.103572
0.103465
0.103526
0.103411
0.103504
0.103343
0.103309
0.103286
0.103286
0.103298
0.103194
0.103247
0.103355
0.103437
0.103444
0.103457
0.10336
0.103473
0.103687
0.103693
0.103789
0.103788
0.103856
0.103987
0.103523
0.103637
0.103546
0.103459
0.103425
0.103425
0.10328
0.103352
0.103352
0.103453
0.103308
0.103377
0.103315
0.10327
0.103196
0.103259
0.103214
0.103227
0.103358
0.103282
0.103308
0.103208
0.103604
0.103405
0.10325
0.103181
0.103386
0.103143
0.103306
0.103306
0.103121
0.10313
0.103202
0.102976
0.102968
0.102948
0.103059
0.103071
0.103109
0.103074
0.103204
0.103269
0.103302
0.103257
0.103328
0.103215
0.103126
0.103149
0.103259
0.103335
0.103334
0.103342
0.103247
0.103272
0.103331
0.103323
0.103398
0.103366
0.103492
0.103448
0.103312
0.10374
0.104058
0.104147
0.104331
0.103326
0.103498
0.100063
0.103777
0.103245
0.10329
0.103379
0.103475
0.103222
0.103065
0.103144
0.103204
0.103298
0.103243
0.103135
0.103123
0.10314
0.103321
0.103441
0.103501
0.103344
0.103317
0.103305
0.103469
0.103514
0.103585
0.103489
0.103534
0.103457
0.103423
0.103411
0.103289
0.103269
0.103234
0.103345
0.103334
0.103397
0.103502
0.103576
0.103457
0.103484
0.103405
0.10335
0.103303
0.103219
0.103206
0.103175
0.103181
0.103239
0.10335
0.103265
0.103455
0.103455
0.103483
0.103611
0.103724
0.103724
0.103712
0.103523
0.103811
0.103603
0.103492
0.103511
0.103415
0.103379
0.103396
0.103362
0.103346
0.103426
0.103509
0.103364
0.103496
0.1034
0.10345
0.103297
0.103284
0.103309
0.103345
0.103271
0.103046
0.103253
0.103253
0.103233
0.103234
0.103151
0.103006
0.103154
0.103093
0.103176
0.103299
0.10302
0.103053
0.103202
0.103209
0.103153
0.103079
0.103137
0.103204
0.103232
0.103232
0.103137
0.103137
0.103172
0.103188
0.103294
0.103209
0.103278
0.103147
0.103236
0.103236
0.103302
0.103314
0.103305
0.103305
0.103263
0.103263
0.103316
0.103384
0.103416
0.103686
0.103496
0.103608
0.103874
0.10404
0.103909
0.104606
0.103331
0.103294
0.100004
0.10384
0.103474
0.10318
0.103262
0.103298
0.103402
0.103044
0.103071
0.103211
0.103185
0.103078
0.103157
0.103095
0.103167
0.10328
0.10323
0.103177
0.103175
0.103175
0.103203
0.103314
0.103521
0.103543
0.103497
0.103497
0.103445
0.103477
0.103367
0.10333
0.10318
0.103105
0.103168
0.10323
0.103323
0.103359
0.103339
0.103461
0.103433
0.103353
0.103462
0.103361
0.10337
0.10333
0.103449
0.103538
0.103429
0.10342
0.103444
0.103425
0.103443
0.103637
0.103687
0.103724
0.103724
0.103596
0.103507
0.103546
0.103351
0.10342
0.103294
0.103339
0.103422
0.103416
0.103252
0.103236
0.103269
0.10329
0.10338
0.103373
0.103468
0.103491
0.103486
0.103529
0.103528
0.103465
0.103369
0.1032
0.103274
0.103274
0.103333
0.103381
0.103313
0.103269
0.10317
0.103185
0.103097
0.103097
0.103009
0.103046
0.10296
0.10296
0.103141
0.102951
0.102963
0.103021
0.103179
0.103236
0.103219
0.103219
0.103243
0.103363
0.103373
0.103399
0.103314
0.103298
0.103275
0.103275
0.103275
0.103285
0.103242
0.103262
0.103304
0.103304
0.103331
0.103331
0.103304
0.103423
0.103609
0.103917
0.104211
0.104009
0.103959
0.104512
0.103131
0.103284
0.0999666
0.103538
0.103525
0.103532
0.103279
0.103232
0.103337
0.103254
0.103169
0.103156
0.10316
0.103325
0.1032
0.103199
0.103045
0.103167
0.103167
0.103201
0.103164
0.103204
0.103036
0.103198
0.103199
0.103303
0.103366
0.103403
0.103403
0.103388
0.103388
0.103372
0.103302
0.103326
0.10324
0.103228
0.103181
0.103271
0.103271
0.103411
0.103359
0.103424
0.103344
0.103148
0.103262
0.103371
0.10348
0.1036
0.103513
0.103709
0.103597
0.103611
0.103373
0.103456
0.103674
0.103514
0.103488
0.103459
0.10337
0.103298
0.10324
0.103255
0.103056
0.103134
0.10316
0.103149
0.103065
0.10323
0.102908
0.102978
0.10304
0.103244
0.103236
0.103339
0.103286
0.103228
0.103171
0.103245
0.103333
0.103307
0.103214
0.103386
0.103312
0.103007
0.102988
0.103068
0.103181
0.103174
0.102868
0.103039
0.103201
0.103104
0.103066
0.103004
0.102993
0.102976
0.103105
0.103089
0.103109
0.103162
0.103217
0.103287
0.10335
0.103282
0.103327
0.10359
0.10343
0.103333
0.103262
0.10324
0.10324
0.103228
0.103228
0.103297
0.103163
0.103255
0.103255
0.103296
0.103256
0.103307
0.103423
0.103454
0.10381
0.103795
0.103984
0.103999
0.1044
0.103345
0.103298
0.100268
0.103629
0.103778
0.103613
0.103489
0.10347
0.103334
0.103321
0.103264
0.103148
0.103009
0.103018
0.103087
0.103087
0.103253
0.102936
0.103069
0.103156
0.103252
0.103252
0.103215
0.103253
0.103336
0.103336
0.103477
0.103477
0.10345
0.103514
0.103476
0.103436
0.103386
0.103461
0.103425
0.103426
0.103369
0.10346
0.10338
0.10357
0.103379
0.103385
0.103397
0.103297
0.103454
0.103136
0.103162
0.103398
0.103236
0.103379
0.103527
0.103615
0.103594
0.103368
0.103533
0.103329
0.103277
0.103276
0.103338
0.103316
0.103207
0.103145
0.103032
0.10309
0.103166
0.103198
0.103158
0.103099
0.103162
0.103088
0.10307
0.103117
0.103255
0.103255
0.103409
0.103297
0.103498
0.103104
0.10325
0.102948
0.103283
0.103418
0.103418
0.103185
0.103143
0.103137
0.103087
0.103087
0.103144
0.103049
0.103099
0.103099
0.103044
0.103159
0.103086
0.103086
0.103042
0.103141
0.103127
0.103127
0.103093
0.103093
0.103162
0.103206
0.103207
0.103418
0.103158
0.103089
0.103158
0.103158
0.103151
0.103151
0.103192
0.103333
0.103314
0.103552
0.103463
0.103463
0.10351
0.103525
0.103525
0.103585
0.103642
0.103698
0.103804
0.103961
0.103718
0.104391
0.103189
0.103669