/*--------------------------------*- C++ -*----------------------------------*\
| =========                 |                                                 |
| \\      /  F ield         | OpenFOAM: The Open Source CFD Toolbox           |
|  \\    /   O peration     | Version:  2206                                  |
|   \\  /    A nd           | Website:  www.openfoam.com                      |
|    \\/     M anipulation  |                                                 |
\*---------------------------------------------------------------------------*/
FoamFile
{
    version     2.0;
    format      ascii;
    arch        "LSB;label=32;scalar=64";
    class       volScalarField;
    location    "0.6";
    object      k;
}
// * * * * * * * * * * * * * * * * * * * * * * * * * * * * * * * * * * * * * //

dimensions      [0 2 -2 0 0 0 0];

internalField   nonuniform List<scalar> 
185391
(
1.19866e-08
1.27593e-08
1.24053e-08
1.23234e-08
1.22227e-08
1.28781e-08
1.2195e-08
1.27611e-08
1.27658e-08
1.28957e-08
1.20138e-08
1.23103e-08
1.31388e-08
1.3084e-08
1.1975e-08
1.31997e-08
1.19141e-08
1.22107e-08
1.29155e-08
1.20885e-08
1.28623e-08
1.22913e-08
1.19105e-08
1.27075e-08
1.22028e-08
1.21502e-08
1.29289e-08
1.28642e-08
1.28866e-08
1.28584e-08
1.23152e-08
1.28707e-08
1.21845e-08
1.27786e-08
1.21022e-08
1.28873e-08
1.29382e-08
1.22472e-08
1.28558e-08
1.22164e-08
1.28774e-08
1.28019e-08
1.21557e-08
1.28683e-08
1.2259e-08
1.23302e-08
1.21819e-08
1.27022e-08
1.19587e-08
1.294e-08
1.29076e-08
1.08401e-08
1.28067e-08
1.21594e-08
1.30128e-08
1.27718e-08
1.2335e-08
1.23997e-08
1.29884e-08
1.28845e-08
1.29755e-08
1.22849e-08
1.20044e-08
1.28351e-08
1.23291e-08
1.28491e-08
1.27791e-08
1.28297e-08
1.20226e-08
1.23507e-08
1.29324e-08
1.30842e-08
1.22441e-08
1.30206e-08
1.20089e-08
1.31107e-08
1.2315e-08
1.29724e-08
1.20764e-08
1.23538e-08
1.29089e-08
1.2234e-08
1.22477e-08
1.23012e-08
1.29873e-08
1.22104e-08
1.21531e-08
1.23386e-08
1.23234e-08
1.3015e-08
1.3192e-08
1.22213e-08
1.25104e-08
1.18921e-08
1.31879e-08
1.23844e-08
1.21976e-08
1.27825e-08
1.22623e-08
1.23095e-08
1.29035e-08
1.27608e-08
1.19986e-08
1.22262e-08
1.28333e-08
1.2317e-08
1.2745e-08
1.27494e-08
1.20184e-08
1.20629e-08
1.2826e-08
1.227e-08
1.19868e-08
1.20923e-08
1.29349e-08
1.31497e-08
1.27825e-08
1.31625e-08
1.22282e-08
1.19755e-08
1.31644e-08
1.30482e-08
1.28934e-08
1.28947e-08
1.2248e-08
1.22853e-08
1.31943e-08
1.22457e-08
1.25363e-08
1.25327e-08
1.22711e-08
1.29704e-08
1.2269e-08
1.21792e-08
1.22675e-08
1.28958e-08
1.22277e-08
1.22142e-08
1.28001e-08
1.24966e-08
1.32077e-08
1.21448e-08
1.22498e-08
1.19377e-08
1.32218e-08
1.26925e-08
1.31818e-08
1.31093e-08
1.31728e-08
1.31822e-08
1.22996e-08
1.30412e-08
1.22443e-08
1.22278e-08
1.31953e-08
1.22924e-08
1.22443e-08
1.21251e-08
1.30042e-08
1.22624e-08
1.2905e-08
1.32037e-08
1.23008e-08
1.24601e-08
1.21578e-08
1.32337e-08
1.22978e-08
1.22245e-08
1.30132e-08
1.27285e-08
1.19931e-08
1.21953e-08
1.30922e-08
1.32828e-08
1.22447e-08
1.32039e-08
1.22968e-08
1.27338e-08
1.21536e-08
1.30745e-08
1.2711e-08
1.33844e-08
1.22285e-08
1.31142e-08
1.19787e-08
1.22452e-08
1.30242e-08
1.20899e-08
1.32599e-08
1.20134e-08
1.27595e-08
1.23126e-08
1.30623e-08
1.22956e-08
1.31741e-08
1.23284e-08
1.23811e-08
1.20275e-08
1.27388e-08
1.24494e-08
1.22876e-08
1.33164e-08
1.2282e-08
1.30654e-08
1.23966e-08
1.25091e-08
1.30361e-08
1.29029e-08
1.33072e-08
1.31354e-08
1.31731e-08
1.22216e-08
1.23244e-08
1.31545e-08
1.30836e-08
1.21658e-08
1.21524e-08
1.32976e-08
1.29182e-08
1.22366e-08
1.28491e-08
1.30516e-08
1.33681e-08
1.2098e-08
1.2835e-08
1.28725e-08
1.21137e-08
1.31033e-08
1.3116e-08
1.22055e-08
1.22365e-08
1.31148e-08
1.31885e-08
1.30484e-08
1.33307e-08
1.30493e-08
1.2266e-08
1.30903e-08
1.21905e-08
1.22594e-08
1.21997e-08
1.2195e-08
1.30863e-08
1.30957e-08
1.22259e-08
1.27102e-08
1.31888e-08
1.21733e-08
1.30185e-08
1.28094e-08
1.20614e-08
1.2058e-08
1.26784e-08
1.31734e-08
1.22171e-08
1.22364e-08
1.1933e-08
1.27234e-08
1.19172e-08
1.22363e-08
1.21875e-08
1.22667e-08
1.30008e-08
1.29282e-08
1.30745e-08
1.33694e-08
1.31909e-08
1.31521e-08
1.21743e-08
1.26968e-08
1.21737e-08
1.22359e-08
1.30855e-08
1.19777e-08
1.29295e-08
1.286e-08
1.22445e-08
1.30749e-08
1.24146e-08
1.2779e-08
1.20306e-08
1.27748e-08
1.20308e-08
1.29488e-08
1.23446e-08
1.31668e-08
1.3011e-08
1.22277e-08
1.286e-08
1.2971e-08
1.23087e-08
1.21704e-08
1.20447e-08
1.27197e-08
1.25951e-08
1.23639e-08
1.21801e-08
1.30028e-08
1.2852e-08
1.28376e-08
1.22369e-08
1.31624e-08
1.22278e-08
1.31837e-08
1.29157e-08
1.30576e-08
1.21523e-08
1.31115e-08
1.09149e-08
1.22577e-08
1.28122e-08
1.31666e-08
1.22664e-08
1.31103e-08
1.22599e-08
1.23405e-08
1.25111e-08
1.09467e-08
1.33548e-08
1.26849e-08
1.2956e-08
1.21882e-08
1.20146e-08
1.27824e-08
1.22077e-08
1.20276e-08
1.28286e-08
1.06589e-08
1.21781e-08
1.20025e-08
1.20245e-08
1.18303e-08
1.29197e-08
1.22314e-08
1.19468e-08
1.28421e-08
1.28487e-08
1.21916e-08
1.29118e-08
1.26967e-08
1.28699e-08
1.28057e-08
1.2e-08
1.19981e-08
1.28561e-08
1.2022e-08
1.19768e-08
1.30438e-08
1.27226e-08
1.22959e-08
1.31529e-08
1.2239e-08
1.24592e-08
1.2741e-08
1.29176e-08
1.22326e-08
1.32141e-08
1.22336e-08
1.31077e-08
1.27564e-08
1.29885e-08
1.27207e-08
1.2307e-08
1.23512e-08
1.23831e-08
1.30532e-08
1.21974e-08
1.29536e-08
1.2009e-08
1.21743e-08
1.22122e-08
1.27184e-08
1.30377e-08
1.29572e-08
1.29005e-08
1.28661e-08
1.313e-08
1.21375e-08
1.27212e-08
1.30592e-08
1.1985e-08
1.18983e-08
1.26835e-08
1.27269e-08
1.21251e-08
1.19452e-08
1.2683e-08
1.29648e-08
1.24411e-08
1.33413e-08
1.31059e-08
1.31701e-08
1.20064e-08
1.31861e-08
1.20326e-08
1.28663e-08
1.31362e-08
1.22508e-08
1.24197e-08
1.22707e-08
1.23806e-08
1.22363e-08
1.21963e-08
1.22345e-08
1.22178e-08
1.30717e-08
1.21885e-08
1.20008e-08
1.19543e-08
1.27255e-08
1.3025e-08
1.24316e-08
1.23185e-08
1.22274e-08
1.2118e-08
1.31898e-08
1.29854e-08
1.2876e-08
1.22834e-08
1.22073e-08
1.21575e-08
1.2289e-08
1.2011e-08
1.28494e-08
1.22249e-08
1.22049e-08
1.33521e-08
1.27355e-08
1.23191e-08
1.20017e-08
1.26919e-08
1.21711e-08
1.22694e-08
1.29673e-08
1.28887e-08
1.20707e-08
1.22985e-08
1.22991e-08
1.23348e-08
1.20841e-08
1.23302e-08
1.19872e-08
1.27577e-08
1.30578e-08
1.29692e-08
1.20982e-08
1.2805e-08
1.28223e-08
1.2214e-08
1.21805e-08
1.19596e-08
1.31162e-08
1.20489e-08
1.22227e-08
1.22664e-08
1.30087e-08
1.22274e-08
1.19532e-08
1.32684e-08
1.30977e-08
1.23481e-08
1.29814e-08
1.28145e-08
1.31668e-08
1.33444e-08
1.30701e-08
1.21841e-08
1.28325e-08
1.3209e-08
1.31151e-08
1.28911e-08
1.21196e-08
1.23506e-08
1.30962e-08
1.21663e-08
1.22854e-08
1.21461e-08
1.30753e-08
1.19383e-08
1.2792e-08
1.27813e-08
1.2339e-08
1.2319e-08
1.29975e-08
1.22874e-08
1.29839e-08
1.29664e-08
1.22767e-08
1.29705e-08
1.29756e-08
1.22907e-08
1.29854e-08
1.30648e-08
1.24477e-08
1.30818e-08
1.23292e-08
1.30399e-08
1.241e-08
1.30386e-08
1.23821e-08
1.30006e-08
1.23192e-08
1.30403e-08
1.30179e-08
1.22792e-08
1.3065e-08
1.23573e-08
1.30119e-08
1.26284e-08
1.32854e-08
1.24836e-08
1.23033e-08
1.23303e-08
1.29066e-08
1.28945e-08
1.23413e-08
1.28899e-08
1.22442e-08
1.22189e-08
1.31745e-08
1.24855e-08
1.22631e-08
1.31936e-08
1.3147e-08
1.21917e-08
1.3157e-08
1.2282e-08
1.31714e-08
1.22699e-08
1.31976e-08
1.22483e-08
1.22935e-08
1.23111e-08
1.29844e-08
1.30237e-08
1.23102e-08
1.23028e-08
1.30877e-08
1.23974e-08
1.19358e-08
1.31348e-08
1.22356e-08
1.22601e-08
1.23398e-08
1.29769e-08
1.23461e-08
1.29444e-08
1.23358e-08
1.29516e-08
1.23009e-08
1.29479e-08
1.2308e-08
1.29133e-08
1.22691e-08
1.29357e-08
1.2284e-08
1.29016e-08
1.23037e-08
1.29343e-08
1.22874e-08
1.29361e-08
1.22814e-08
1.29293e-08
1.22886e-08
1.2913e-08
1.23136e-08
1.29707e-08
1.23258e-08
1.30059e-08
1.23809e-08
1.30222e-08
1.23998e-08
1.30044e-08
1.24234e-08
1.30666e-08
1.23458e-08
1.30225e-08
1.24043e-08
1.3e-08
1.23576e-08
1.29981e-08
1.23635e-08
1.30022e-08
1.23161e-08
1.29719e-08
1.23421e-08
1.29799e-08
1.23651e-08
1.30088e-08
1.23574e-08
1.30234e-08
1.23336e-08
1.2971e-08
1.2409e-08
1.29967e-08
1.23251e-08
1.29463e-08
1.22673e-08
1.29634e-08
1.24293e-08
1.31035e-08
1.23179e-08
1.29667e-08
1.22686e-08
1.29509e-08
1.24003e-08
1.32007e-08
1.24597e-08
1.29935e-08
1.24296e-08
1.30535e-08
1.24128e-08
1.30707e-08
1.24287e-08
1.29185e-08
1.22199e-08
1.30209e-08
1.24847e-08
1.3152e-08
1.22667e-08
1.31229e-08
1.2214e-08
1.31346e-08
1.23803e-08
1.29289e-08
1.23228e-08
1.28646e-08
1.22089e-08
1.31488e-08
1.24606e-08
1.28096e-08
1.24423e-08
1.2801e-08
1.24512e-08
1.27915e-08
1.24921e-08
1.28155e-08
1.25145e-08
1.28804e-08
1.24809e-08
1.28414e-08
1.25438e-08
1.28499e-08
1.25466e-08
1.29351e-08
1.25749e-08
1.31575e-08
1.25821e-08
1.31535e-08
1.25708e-08
1.32394e-08
1.25745e-08
1.32241e-08
1.25521e-08
1.31818e-08
1.25057e-08
1.31702e-08
1.25596e-08
1.31709e-08
1.24971e-08
1.31401e-08
1.24578e-08
1.30917e-08
1.24132e-08
1.30714e-08
1.24711e-08
1.3076e-08
1.24189e-08
1.31146e-08
1.23733e-08
1.31381e-08
1.23967e-08
1.30156e-08
1.23069e-08
1.24608e-08
1.18988e-08
1.09306e-08
1.23147e-08
1.30007e-08
1.2334e-08
1.29621e-08
1.22835e-08
1.29263e-08
1.22499e-08
1.29552e-08
1.22958e-08
1.29232e-08
1.22479e-08
1.29227e-08
1.227e-08
1.29187e-08
1.22782e-08
1.29509e-08
1.23211e-08
1.29713e-08
1.23077e-08
1.29895e-08
1.23481e-08
1.29729e-08
1.23542e-08
1.29824e-08
1.23351e-08
1.3001e-08
1.23554e-08
1.30591e-08
1.23821e-08
1.3007e-08
1.23985e-08
1.30053e-08
1.23347e-08
1.30503e-08
1.23979e-08
1.30037e-08
1.23789e-08
1.30144e-08
1.23804e-08
1.30209e-08
1.23345e-08
1.30256e-08
1.2348e-08
1.29989e-08
1.23686e-08
1.2992e-08
1.23433e-08
1.30047e-08
1.23198e-08
1.29588e-08
1.23318e-08
1.29564e-08
1.23312e-08
1.29901e-08
1.22646e-08
1.29989e-08
1.23544e-08
1.29995e-08
1.23066e-08
1.30127e-08
1.23908e-08
1.31769e-08
1.25626e-08
1.29679e-08
1.24372e-08
1.32337e-08
1.24839e-08
1.30691e-08
1.23807e-08
1.30986e-08
1.23566e-08
1.31211e-08
1.23623e-08
1.30035e-08
1.24192e-08
1.31251e-08
1.22852e-08
1.2855e-08
1.25111e-08
1.29073e-08
1.2186e-08
1.29902e-08
1.23615e-08
1.286e-08
1.23378e-08
1.29671e-08
1.25389e-08
1.29342e-08
1.2506e-08
1.29436e-08
1.24826e-08
1.31774e-08
1.25243e-08
1.28907e-08
1.25179e-08
1.28625e-08
1.2494e-08
1.321e-08
1.25386e-08
1.31052e-08
1.25377e-08
1.3132e-08
1.25736e-08
1.31917e-08
1.25833e-08
1.31478e-08
1.2562e-08
1.31337e-08
1.25288e-08
1.3191e-08
1.25174e-08
1.31746e-08
1.2478e-08
1.31415e-08
1.25053e-08
1.31403e-08
1.24817e-08
1.31082e-08
1.24491e-08
1.31048e-08
1.23928e-08
1.3091e-08
1.2435e-08
1.30593e-08
1.23855e-08
1.30474e-08
1.23387e-08
1.3093e-08
1.23893e-08
1.30579e-08
1.23163e-08
1.24773e-08
1.19222e-08
1.09928e-08
1.22865e-08
1.29429e-08
1.23393e-08
1.29662e-08
1.23006e-08
1.29257e-08
1.22574e-08
1.29322e-08
1.22929e-08
1.29342e-08
1.22468e-08
1.29102e-08
1.22677e-08
1.29252e-08
1.22773e-08
1.29519e-08
1.23111e-08
1.29572e-08
1.22877e-08
1.29515e-08
1.2351e-08
1.29931e-08
1.23575e-08
1.2985e-08
1.2324e-08
1.29648e-08
1.22986e-08
1.29684e-08
1.23507e-08
1.30116e-08
1.23782e-08
1.29692e-08
1.232e-08
1.30292e-08
1.23761e-08
1.30113e-08
1.2368e-08
1.29973e-08
1.2365e-08
1.29658e-08
1.23051e-08
1.29765e-08
1.2334e-08
1.29819e-08
1.23477e-08
1.29715e-08
1.23139e-08
1.29409e-08
1.22826e-08
1.29542e-08
1.22739e-08
1.28183e-08
1.23164e-08
1.29025e-08
1.22928e-08
1.30014e-08
1.25088e-08
1.31983e-08
1.24464e-08
1.30827e-08
1.24894e-08
1.3019e-08
1.24364e-08
1.31172e-08
1.23993e-08
1.32446e-08
1.25151e-08
1.31542e-08
1.23725e-08
1.32114e-08
1.23817e-08
1.31074e-08
1.23066e-08
1.31448e-08
1.23002e-08
1.32129e-08
1.23107e-08
1.31808e-08
1.22535e-08
1.29105e-08
1.22155e-08
1.28799e-08
1.23151e-08
1.28268e-08
1.22716e-08
1.28921e-08
1.25238e-08
1.29059e-08
1.25247e-08
1.31301e-08
1.24525e-08
1.31221e-08
1.24642e-08
1.31452e-08
1.25158e-08
1.31216e-08
1.24596e-08
1.31703e-08
1.24941e-08
1.31813e-08
1.24963e-08
1.3143e-08
1.25083e-08
1.32101e-08
1.25646e-08
1.31788e-08
1.25318e-08
1.31775e-08
1.25129e-08
1.31665e-08
1.25043e-08
1.31228e-08
1.24312e-08
1.30746e-08
1.24123e-08
1.30427e-08
1.24056e-08
1.30163e-08
1.23708e-08
1.30162e-08
1.23786e-08
1.30408e-08
1.2391e-08
1.30374e-08
1.23634e-08
1.30703e-08
1.23581e-08
1.31006e-08
1.24275e-08
1.30774e-08
1.23809e-08
1.2493e-08
1.19616e-08
1.10003e-08
1.22834e-08
1.2959e-08
1.23353e-08
1.29423e-08
1.23106e-08
1.29504e-08
1.22833e-08
1.29254e-08
1.23002e-08
1.29549e-08
1.2266e-08
1.29241e-08
1.2257e-08
1.29232e-08
1.22626e-08
1.29021e-08
1.22735e-08
1.29823e-08
1.22966e-08
1.29758e-08
1.235e-08
1.29991e-08
1.23906e-08
1.2992e-08
1.23509e-08
1.30279e-08
1.23047e-08
1.29718e-08
1.23194e-08
1.30081e-08
1.23638e-08
1.29808e-08
1.23019e-08
1.29692e-08
1.23349e-08
1.29979e-08
1.23656e-08
1.29845e-08
1.23369e-08
1.29867e-08
1.22888e-08
1.29736e-08
1.2305e-08
1.29542e-08
1.23235e-08
1.29758e-08
1.23249e-08
1.29842e-08
1.22131e-08
1.287e-08
1.22042e-08
1.28253e-08
1.21937e-08
1.31191e-08
1.22235e-08
1.31267e-08
1.23021e-08
1.29758e-08
1.23389e-08
1.30218e-08
1.23067e-08
1.30122e-08
1.24496e-08
1.30503e-08
1.24819e-08
1.3083e-08
1.24423e-08
1.32035e-08
1.25866e-08
1.32227e-08
1.22934e-08
1.32882e-08
1.23994e-08
1.32958e-08
1.25926e-08
1.30113e-08
1.25839e-08
1.32316e-08
1.24334e-08
1.31653e-08
1.22029e-08
1.29197e-08
1.21509e-08
1.29004e-08
1.21864e-08
1.28891e-08
1.24156e-08
1.28807e-08
1.25241e-08
1.31551e-08
1.24752e-08
1.31058e-08
1.24294e-08
1.31469e-08
1.25396e-08
1.3066e-08
1.2479e-08
1.31319e-08
1.24979e-08
1.3192e-08
1.25141e-08
1.31708e-08
1.24772e-08
1.31688e-08
1.25368e-08
1.31213e-08
1.24572e-08
1.3076e-08
1.24196e-08
1.30768e-08
1.24258e-08
1.30636e-08
1.23921e-08
1.30391e-08
1.23606e-08
1.29905e-08
1.23349e-08
1.29595e-08
1.23051e-08
1.29523e-08
1.23106e-08
1.29858e-08
1.23573e-08
1.29859e-08
1.23519e-08
1.30465e-08
1.23467e-08
1.30553e-08
1.23639e-08
1.30512e-08
1.23575e-08
1.24942e-08
1.19229e-08
1.09435e-08
1.22933e-08
1.3021e-08
1.23509e-08
1.29759e-08
1.2313e-08
1.29827e-08
1.23147e-08
1.29526e-08
1.23164e-08
1.29389e-08
1.22969e-08
1.29414e-08
1.2284e-08
1.29538e-08
1.22881e-08
1.28908e-08
1.22554e-08
1.29596e-08
1.23172e-08
1.30004e-08
1.23292e-08
1.29769e-08
1.23266e-08
1.29643e-08
1.23532e-08
1.30185e-08
1.23606e-08
1.30222e-08
1.23595e-08
1.30075e-08
1.23869e-08
1.30355e-08
1.23406e-08
1.3004e-08
1.23195e-08
1.29929e-08
1.23547e-08
1.29606e-08
1.23196e-08
1.29586e-08
1.23104e-08
1.29974e-08
1.23173e-08
1.29737e-08
1.23375e-08
1.29832e-08
1.25094e-08
1.31401e-08
1.24636e-08
1.31499e-08
1.24136e-08
1.31218e-08
1.24686e-08
1.31253e-08
1.24593e-08
1.31118e-08
1.22943e-08
1.29234e-08
1.23728e-08
1.29902e-08
1.23505e-08
1.29901e-08
1.23549e-08
1.30076e-08
1.24286e-08
1.30831e-08
1.2313e-08
1.31221e-08
1.23856e-08
1.32317e-08
1.23587e-08
1.3231e-08
1.25283e-08
1.32963e-08
1.24069e-08
1.3205e-08
1.2597e-08
1.31949e-08
1.21848e-08
1.29303e-08
1.2246e-08
1.28989e-08
1.22458e-08
1.29275e-08
1.22506e-08
1.28177e-08
1.21909e-08
1.28882e-08
1.22597e-08
1.28954e-08
1.23587e-08
1.28144e-08
1.23918e-08
1.28982e-08
1.24631e-08
1.29344e-08
1.24312e-08
1.29126e-08
1.24257e-08
1.29163e-08
1.24329e-08
1.29037e-08
1.23944e-08
1.3106e-08
1.24851e-08
1.31117e-08
1.24111e-08
1.30646e-08
1.23625e-08
1.30296e-08
1.23819e-08
1.30225e-08
1.23619e-08
1.30222e-08
1.23693e-08
1.30232e-08
1.2361e-08
1.30217e-08
1.23367e-08
1.30134e-08
1.23404e-08
1.30029e-08
1.23631e-08
1.30204e-08
1.2331e-08
1.30456e-08
1.23479e-08
1.30546e-08
1.23158e-08
1.30396e-08
1.23442e-08
1.24489e-08
1.18923e-08
1.09226e-08
1.23668e-08
1.29976e-08
1.23237e-08
1.29711e-08
1.23013e-08
1.29682e-08
1.22994e-08
1.29346e-08
1.22849e-08
1.28979e-08
1.2283e-08
1.29126e-08
1.23084e-08
1.28718e-08
1.2275e-08
1.2893e-08
1.23314e-08
1.3031e-08
1.22503e-08
1.2946e-08
1.23076e-08
1.29585e-08
1.23115e-08
1.29738e-08
1.23301e-08
1.30196e-08
1.23803e-08
1.29964e-08
1.23525e-08
1.30032e-08
1.2378e-08
1.30223e-08
1.23198e-08
1.29975e-08
1.23378e-08
1.29845e-08
1.23126e-08
1.29527e-08
1.22973e-08
1.29588e-08
1.22797e-08
1.29472e-08
1.23833e-08
1.29773e-08
1.24232e-08
1.31171e-08
1.21883e-08
1.31158e-08
1.22461e-08
1.31266e-08
1.22263e-08
1.31452e-08
1.24451e-08
1.28143e-08
1.22197e-08
1.29329e-08
1.23243e-08
1.30891e-08
1.22844e-08
1.31257e-08
1.22977e-08
1.294e-08
1.22981e-08
1.29254e-08
1.22391e-08
1.29209e-08
1.25246e-08
1.32229e-08
1.25602e-08
1.3214e-08
1.25632e-08
1.32568e-08
1.2592e-08
1.31493e-08
1.23084e-08
1.31239e-08
1.21563e-08
1.29218e-08
1.22897e-08
1.28936e-08
1.22479e-08
1.29193e-08
1.23022e-08
1.29214e-08
1.21999e-08
1.28359e-08
1.22417e-08
1.27861e-08
1.22316e-08
1.28908e-08
1.22896e-08
1.29888e-08
1.23875e-08
1.29422e-08
1.2361e-08
1.30346e-08
1.23567e-08
1.30597e-08
1.23885e-08
1.30094e-08
1.23033e-08
1.29977e-08
1.24426e-08
1.30556e-08
1.24199e-08
1.30503e-08
1.23665e-08
1.30307e-08
1.23816e-08
1.30288e-08
1.23563e-08
1.30304e-08
1.23565e-08
1.29927e-08
1.23381e-08
1.29607e-08
1.23139e-08
1.30105e-08
1.23597e-08
1.29846e-08
1.23671e-08
1.3021e-08
1.23794e-08
1.30374e-08
1.23904e-08
1.30804e-08
1.23148e-08
1.30645e-08
1.23207e-08
1.24671e-08
1.18571e-08
1.08859e-08
1.23762e-08
1.29745e-08
1.22862e-08
1.29381e-08
1.22596e-08
1.2954e-08
1.22656e-08
1.29219e-08
1.22417e-08
1.29058e-08
1.22521e-08
1.29327e-08
1.22591e-08
1.28998e-08
1.23495e-08
1.29699e-08
1.22376e-08
1.29677e-08
1.23167e-08
1.29912e-08
1.23218e-08
1.29736e-08
1.2297e-08
1.30361e-08
1.24047e-08
1.30584e-08
1.23848e-08
1.30244e-08
1.23979e-08
1.30268e-08
1.235e-08
1.29942e-08
1.23342e-08
1.29711e-08
1.2324e-08
1.29862e-08
1.23352e-08
1.29903e-08
1.2287e-08
1.29417e-08
1.23039e-08
1.29662e-08
1.23354e-08
1.29416e-08
1.21676e-08
1.29034e-08
1.2234e-08
1.28591e-08
1.22312e-08
1.29442e-08
1.22683e-08
1.29826e-08
1.22816e-08
1.30799e-08
1.24352e-08
1.31943e-08
1.22987e-08
1.32359e-08
1.25578e-08
1.30687e-08
1.24185e-08
1.29568e-08
1.22204e-08
1.3144e-08
1.2649e-08
1.31936e-08
1.25668e-08
1.3235e-08
1.23454e-08
1.32049e-08
1.25838e-08
1.29753e-08
1.22944e-08
1.31068e-08
1.22269e-08
1.31388e-08
1.23708e-08
1.31521e-08
1.23257e-08
1.31169e-08
1.23441e-08
1.29225e-08
1.22462e-08
1.29193e-08
1.22413e-08
1.28335e-08
1.21531e-08
1.29408e-08
1.23072e-08
1.30148e-08
1.2252e-08
1.29426e-08
1.23169e-08
1.29704e-08
1.2354e-08
1.30251e-08
1.24093e-08
1.30378e-08
1.22869e-08
1.29998e-08
1.23827e-08
1.30242e-08
1.24257e-08
1.29991e-08
1.23351e-08
1.29621e-08
1.23364e-08
1.2956e-08
1.23382e-08
1.30062e-08
1.22846e-08
1.29753e-08
1.23023e-08
1.29069e-08
1.22588e-08
1.2968e-08
1.23341e-08
1.29755e-08
1.23066e-08
1.29973e-08
1.2353e-08
1.29998e-08
1.23522e-08
1.30521e-08
1.23219e-08
1.30115e-08
1.23274e-08
1.24797e-08
1.18891e-08
1.09432e-08
1.23532e-08
1.29681e-08
1.22738e-08
1.29203e-08
1.22572e-08
1.29052e-08
1.22918e-08
1.29415e-08
1.2274e-08
1.29321e-08
1.22787e-08
1.29617e-08
1.22722e-08
1.29386e-08
1.23178e-08
1.29108e-08
1.22497e-08
1.29541e-08
1.23174e-08
1.30318e-08
1.23825e-08
1.30144e-08
1.23223e-08
1.30233e-08
1.23861e-08
1.30606e-08
1.24058e-08
1.30584e-08
1.24004e-08
1.30481e-08
1.23824e-08
1.30157e-08
1.23181e-08
1.29383e-08
1.22855e-08
1.29234e-08
1.23261e-08
1.29698e-08
1.22946e-08
1.29074e-08
1.22792e-08
1.29232e-08
1.23524e-08
1.29535e-08
1.22271e-08
1.29387e-08
1.22332e-08
1.28773e-08
1.22723e-08
1.31037e-08
1.23419e-08
1.29933e-08
1.23044e-08
1.29786e-08
1.23948e-08
1.31651e-08
1.25058e-08
1.31938e-08
1.22536e-08
1.29552e-08
1.24763e-08
1.31668e-08
1.21947e-08
1.32016e-08
1.23868e-08
1.30504e-08
1.25336e-08
1.29635e-08
1.23222e-08
1.31851e-08
1.25392e-08
1.31924e-08
1.24948e-08
1.29464e-08
1.23202e-08
1.31428e-08
1.2411e-08
1.31512e-08
1.24747e-08
1.31167e-08
1.24516e-08
1.31045e-08
1.247e-08
1.29167e-08
1.23893e-08
1.30778e-08
1.23333e-08
1.28568e-08
1.23148e-08
1.30242e-08
1.24194e-08
1.29001e-08
1.23137e-08
1.29996e-08
1.23273e-08
1.29783e-08
1.23676e-08
1.30106e-08
1.2315e-08
1.30552e-08
1.23499e-08
1.30382e-08
1.24029e-08
1.30459e-08
1.23285e-08
1.30166e-08
1.23209e-08
1.29834e-08
1.23644e-08
1.29704e-08
1.22637e-08
1.29728e-08
1.23098e-08
1.29333e-08
1.22693e-08
1.2936e-08
1.23234e-08
1.29632e-08
1.2275e-08
1.29418e-08
1.23147e-08
1.3003e-08
1.23398e-08
1.30785e-08
1.23152e-08
1.29867e-08
1.22668e-08
1.24124e-08
1.18969e-08
1.09291e-08
1.23245e-08
1.2959e-08
1.23028e-08
1.29917e-08
1.22963e-08
1.29529e-08
1.23158e-08
1.29359e-08
1.22967e-08
1.29555e-08
1.23144e-08
1.2948e-08
1.22871e-08
1.30064e-08
1.233e-08
1.2937e-08
1.22684e-08
1.29097e-08
1.22703e-08
1.29776e-08
1.23868e-08
1.3029e-08
1.23381e-08
1.30471e-08
1.23956e-08
1.30225e-08
1.23773e-08
1.3041e-08
1.23977e-08
1.30199e-08
1.24077e-08
1.30291e-08
1.23232e-08
1.29991e-08
1.22757e-08
1.29168e-08
1.22588e-08
1.29453e-08
1.22735e-08
1.29386e-08
1.22306e-08
1.28744e-08
1.23134e-08
1.29228e-08
1.22917e-08
1.29367e-08
1.22194e-08
1.29351e-08
1.2249e-08
1.28933e-08
1.22691e-08
1.2971e-08
1.23268e-08
1.29937e-08
1.23009e-08
1.30933e-08
1.25204e-08
1.2942e-08
1.24149e-08
1.2931e-08
1.25119e-08
1.2877e-08
1.24915e-08
1.28567e-08
1.2248e-08
1.29935e-08
1.22117e-08
1.32463e-08
1.25621e-08
1.31899e-08
1.22552e-08
1.30966e-08
1.22534e-08
1.29799e-08
1.24584e-08
1.29885e-08
1.24399e-08
1.31753e-08
1.24985e-08
1.31201e-08
1.23699e-08
1.29584e-08
1.24954e-08
1.30129e-08
1.23397e-08
1.29144e-08
1.23651e-08
1.29317e-08
1.23387e-08
1.28817e-08
1.24389e-08
1.29479e-08
1.23795e-08
1.29274e-08
1.23397e-08
1.28789e-08
1.23524e-08
1.30021e-08
1.23455e-08
1.31008e-08
1.23895e-08
1.30332e-08
1.23914e-08
1.30673e-08
1.23812e-08
1.30972e-08
1.23815e-08
1.30824e-08
1.24317e-08
1.30444e-08
1.23168e-08
1.30246e-08
1.23671e-08
1.30434e-08
1.23447e-08
1.30215e-08
1.23548e-08
1.30305e-08
1.2318e-08
1.29742e-08
1.23148e-08
1.30439e-08
1.23712e-08
1.30964e-08
1.23455e-08
1.30498e-08
1.22592e-08
1.24602e-08
1.19499e-08
1.09403e-08
1.23041e-08
1.29128e-08
1.22767e-08
1.29531e-08
1.22801e-08
1.29842e-08
1.23151e-08
1.29291e-08
1.22474e-08
1.29156e-08
1.22898e-08
1.28929e-08
1.22662e-08
1.29552e-08
1.23495e-08
1.29621e-08
1.231e-08
1.29376e-08
1.2265e-08
1.29135e-08
1.23514e-08
1.29624e-08
1.23489e-08
1.30742e-08
1.23686e-08
1.30558e-08
1.2388e-08
1.3066e-08
1.23637e-08
1.3012e-08
1.23945e-08
1.29976e-08
1.23413e-08
1.3007e-08
1.23151e-08
1.29663e-08
1.22736e-08
1.29308e-08
1.23043e-08
1.30285e-08
1.22915e-08
1.29735e-08
1.23077e-08
1.29673e-08
1.23522e-08
1.2946e-08
1.22953e-08
1.29779e-08
1.22981e-08
1.29405e-08
1.22311e-08
1.28744e-08
1.23738e-08
1.30156e-08
1.23138e-08
1.29386e-08
1.22553e-08
1.29286e-08
1.22764e-08
1.2856e-08
1.22038e-08
1.30226e-08
1.22394e-08
1.28719e-08
1.23509e-08
1.2963e-08
1.25601e-08
1.32712e-08
1.23826e-08
1.32983e-08
1.22981e-08
1.31826e-08
1.23744e-08
1.29432e-08
1.22311e-08
1.31336e-08
1.24295e-08
1.28866e-08
1.25263e-08
1.31979e-08
1.22607e-08
1.29542e-08
1.26075e-08
1.31969e-08
1.24685e-08
1.29957e-08
1.24723e-08
1.32081e-08
1.23976e-08
1.31299e-08
1.24333e-08
1.31275e-08
1.24091e-08
1.31326e-08
1.23861e-08
1.30539e-08
1.23877e-08
1.30157e-08
1.23726e-08
1.31119e-08
1.24702e-08
1.30912e-08
1.24192e-08
1.30564e-08
1.24044e-08
1.30755e-08
1.2385e-08
1.30491e-08
1.24352e-08
1.30629e-08
1.23703e-08
1.30552e-08
1.24253e-08
1.3067e-08
1.23884e-08
1.30385e-08
1.23864e-08
1.30274e-08
1.23446e-08
1.30005e-08
1.24031e-08
1.31281e-08
1.23561e-08
1.30803e-08
1.23877e-08
1.30366e-08
1.22517e-08
1.24538e-08
1.19532e-08
1.09335e-08
1.23557e-08
1.2993e-08
1.2316e-08
1.29595e-08
1.23042e-08
1.29727e-08
1.23516e-08
1.29768e-08
1.22656e-08
1.29339e-08
1.22709e-08
1.29211e-08
1.22434e-08
1.29095e-08
1.22919e-08
1.29179e-08
1.23246e-08
1.29811e-08
1.22666e-08
1.29823e-08
1.23237e-08
1.29765e-08
1.23875e-08
1.30142e-08
1.23554e-08
1.30343e-08
1.23721e-08
1.30289e-08
1.23304e-08
1.30076e-08
1.23627e-08
1.29993e-08
1.23477e-08
1.29709e-08
1.23174e-08
1.30083e-08
1.23142e-08
1.29272e-08
1.23077e-08
1.29506e-08
1.23302e-08
1.29998e-08
1.23403e-08
1.29825e-08
1.23606e-08
1.29602e-08
1.22969e-08
1.2948e-08
1.22931e-08
1.29661e-08
1.21784e-08
1.28252e-08
1.22935e-08
1.29533e-08
1.24148e-08
1.31888e-08
1.24684e-08
1.3237e-08
1.25938e-08
1.29453e-08
1.22267e-08
1.32562e-08
1.23027e-08
1.30948e-08
1.24253e-08
1.306e-08
1.23581e-08
1.32404e-08
1.24044e-08
1.30374e-08
1.25679e-08
1.32094e-08
1.24485e-08
1.29337e-08
1.256e-08
1.28619e-08
1.22655e-08
1.31304e-08
1.22709e-08
1.31774e-08
1.22357e-08
1.31612e-08
1.23139e-08
1.31366e-08
1.22812e-08
1.31036e-08
1.22621e-08
1.31076e-08
1.2484e-08
1.31243e-08
1.25135e-08
1.30463e-08
1.24872e-08
1.28535e-08
1.24263e-08
1.31903e-08
1.24326e-08
1.31433e-08
1.23864e-08
1.31488e-08
1.2478e-08
1.31307e-08
1.23971e-08
1.30685e-08
1.24152e-08
1.30549e-08
1.23473e-08
1.3026e-08
1.23839e-08
1.30482e-08
1.23758e-08
1.30546e-08
1.24247e-08
1.30563e-08
1.23787e-08
1.30142e-08
1.23753e-08
1.29854e-08
1.2354e-08
1.29899e-08
1.24578e-08
1.31424e-08
1.23331e-08
1.30305e-08
1.23707e-08
1.30017e-08
1.22045e-08
1.24398e-08
1.19199e-08
1.092e-08
1.23806e-08
1.30201e-08
1.231e-08
1.29554e-08
1.23265e-08
1.29421e-08
1.22849e-08
1.29153e-08
1.22651e-08
1.2928e-08
1.22556e-08
1.29439e-08
1.22828e-08
1.28973e-08
1.23215e-08
1.29643e-08
1.23058e-08
1.30286e-08
1.23325e-08
1.30014e-08
1.23562e-08
1.29826e-08
1.23263e-08
1.30159e-08
1.23754e-08
1.3021e-08
1.23406e-08
1.30171e-08
1.23629e-08
1.30299e-08
1.23674e-08
1.2969e-08
1.22954e-08
1.29872e-08
1.23414e-08
1.3014e-08
1.23136e-08
1.29591e-08
1.23095e-08
1.2996e-08
1.23303e-08
1.29767e-08
1.23494e-08
1.29538e-08
1.23076e-08
1.29478e-08
1.22928e-08
1.30168e-08
1.22438e-08
1.29545e-08
1.23063e-08
1.29592e-08
1.23375e-08
1.29857e-08
1.23563e-08
1.30203e-08
1.24034e-08
1.31797e-08
1.25424e-08
1.31845e-08
1.22653e-08
1.30624e-08
1.23822e-08
1.29219e-08
1.22755e-08
1.32192e-08
1.23544e-08
1.29903e-08
1.23108e-08
1.32371e-08
1.22912e-08
1.29357e-08
1.2288e-08
1.29482e-08
1.22999e-08
1.32017e-08
1.24839e-08
1.28557e-08
1.22852e-08
1.31624e-08
1.24712e-08
1.28928e-08
1.25264e-08
1.29517e-08
1.25443e-08
1.31512e-08
1.25052e-08
1.3129e-08
1.22628e-08
1.31757e-08
1.24789e-08
1.28752e-08
1.24687e-08
1.31396e-08
1.24718e-08
1.31528e-08
1.2472e-08
1.31452e-08
1.25327e-08
1.3157e-08
1.2462e-08
1.30875e-08
1.24688e-08
1.29541e-08
1.24334e-08
1.30582e-08
1.23827e-08
1.30593e-08
1.23899e-08
1.29571e-08
1.24151e-08
1.29737e-08
1.2376e-08
1.30183e-08
1.23529e-08
1.30099e-08
1.22922e-08
1.30466e-08
1.24578e-08
1.30394e-08
1.2338e-08
1.30651e-08
1.23708e-08
1.30383e-08
1.22313e-08
1.24446e-08
1.19246e-08
1.09491e-08
1.23929e-08
1.30474e-08
1.23388e-08
1.30005e-08
1.23204e-08
1.29537e-08
1.22849e-08
1.29167e-08
1.22535e-08
1.29093e-08
1.22353e-08
1.29694e-08
1.23003e-08
1.29677e-08
1.23341e-08
1.30003e-08
1.2341e-08
1.3026e-08
1.23636e-08
1.301e-08
1.23532e-08
1.29952e-08
1.23382e-08
1.3051e-08
1.24274e-08
1.30636e-08
1.23941e-08
1.3049e-08
1.24019e-08
1.30409e-08
1.23983e-08
1.30297e-08
1.23144e-08
1.29634e-08
1.2357e-08
1.29995e-08
1.23407e-08
1.29887e-08
1.23124e-08
1.30047e-08
1.23393e-08
1.30273e-08
1.23601e-08
1.29856e-08
1.23271e-08
1.29676e-08
1.23056e-08
1.29603e-08
1.23179e-08
1.29091e-08
1.23185e-08
1.29991e-08
1.23411e-08
1.30241e-08
1.23383e-08
1.29903e-08
1.24507e-08
1.31263e-08
1.25572e-08
1.30351e-08
1.22598e-08
1.29484e-08
1.22695e-08
1.29606e-08
1.22855e-08
1.29642e-08
1.23819e-08
1.32019e-08
1.23178e-08
1.32224e-08
1.22907e-08
1.29469e-08
1.21747e-08
1.29273e-08
1.24294e-08
1.29615e-08
1.23311e-08
1.2822e-08
1.22864e-08
1.29848e-08
1.22252e-08
1.31434e-08
1.25086e-08
1.2967e-08
1.2585e-08
1.31962e-08
1.22882e-08
1.30581e-08
1.23832e-08
1.29942e-08
1.22541e-08
1.31734e-08
1.23858e-08
1.31457e-08
1.24676e-08
1.30665e-08
1.23213e-08
1.29195e-08
1.24208e-08
1.29926e-08
1.23135e-08
1.29399e-08
1.22941e-08
1.29392e-08
1.23071e-08
1.29328e-08
1.22958e-08
1.2896e-08
1.22524e-08
1.29238e-08
1.22664e-08
1.291e-08
1.22483e-08
1.29264e-08
1.23726e-08
1.30325e-08
1.23584e-08
1.30204e-08
1.23135e-08
1.28995e-08
1.23243e-08
1.2928e-08
1.23938e-08
1.30969e-08
1.23362e-08
1.25223e-08
1.19697e-08
1.09296e-08
1.23557e-08
1.30131e-08
1.23341e-08
1.29617e-08
1.2305e-08
1.29825e-08
1.23328e-08
1.29632e-08
1.23091e-08
1.29248e-08
1.22417e-08
1.29278e-08
1.23373e-08
1.29779e-08
1.23342e-08
1.29997e-08
1.23347e-08
1.30133e-08
1.23949e-08
1.30322e-08
1.23649e-08
1.30077e-08
1.23234e-08
1.30255e-08
1.24225e-08
1.30622e-08
1.2393e-08
1.3049e-08
1.23828e-08
1.29786e-08
1.23611e-08
1.29912e-08
1.22964e-08
1.29718e-08
1.23324e-08
1.29668e-08
1.23381e-08
1.29821e-08
1.23097e-08
1.29696e-08
1.23369e-08
1.2989e-08
1.23553e-08
1.29643e-08
1.23216e-08
1.2979e-08
1.23112e-08
1.28842e-08
1.22597e-08
1.29148e-08
1.23149e-08
1.29567e-08
1.23631e-08
1.29931e-08
1.25011e-08
1.31855e-08
1.2291e-08
1.31755e-08
1.22274e-08
1.32131e-08
1.22419e-08
1.29399e-08
1.24953e-08
1.31749e-08
1.22317e-08
1.29069e-08
1.25568e-08
1.31828e-08
1.25321e-08
1.29126e-08
1.22437e-08
1.30023e-08
1.22138e-08
1.2963e-08
1.21744e-08
1.28026e-08
1.2177e-08
1.28006e-08
1.23093e-08
1.28239e-08
1.23081e-08
1.29748e-08
1.21768e-08
1.31718e-08
1.25946e-08
1.29545e-08
1.22928e-08
1.28943e-08
1.24032e-08
1.31486e-08
1.24596e-08
1.29232e-08
1.2498e-08
1.29047e-08
1.22023e-08
1.29101e-08
1.22447e-08
1.2906e-08
1.22798e-08
1.29187e-08
1.22832e-08
1.2943e-08
1.22713e-08
1.29135e-08
1.22927e-08
1.29324e-08
1.2251e-08
1.29082e-08
1.22727e-08
1.29238e-08
1.22689e-08
1.29033e-08
1.23054e-08
1.29766e-08
1.23506e-08
1.29987e-08
1.2334e-08
1.30297e-08
1.2263e-08
1.3052e-08
1.22819e-08
1.30298e-08
1.2416e-08
1.30599e-08
1.23039e-08
1.24695e-08
1.18967e-08
1.0897e-08
1.2335e-08
1.30156e-08
1.2357e-08
1.29518e-08
1.22922e-08
1.29567e-08
1.2337e-08
1.29649e-08
1.23317e-08
1.29602e-08
1.22328e-08
1.29275e-08
1.23392e-08
1.29546e-08
1.23229e-08
1.29567e-08
1.22722e-08
1.29645e-08
1.23575e-08
1.30046e-08
1.23582e-08
1.30096e-08
1.2297e-08
1.29718e-08
1.23675e-08
1.29958e-08
1.23629e-08
1.30366e-08
1.23935e-08
1.30079e-08
1.23622e-08
1.29763e-08
1.23133e-08
1.29786e-08
1.23201e-08
1.29633e-08
1.23367e-08
1.29604e-08
1.2282e-08
1.29492e-08
1.22908e-08
1.29318e-08
1.23008e-08
1.29222e-08
1.22973e-08
1.29435e-08
1.22956e-08
1.29479e-08
1.23235e-08
1.29583e-08
1.22716e-08
1.30684e-08
1.24213e-08
1.31377e-08
1.2278e-08
1.31939e-08
1.23338e-08
1.31725e-08
1.22676e-08
1.31616e-08
1.24081e-08
1.2953e-08
1.25346e-08
1.30151e-08
1.22544e-08
1.31582e-08
1.22903e-08
1.31842e-08