/*--------------------------------*- C++ -*----------------------------------*\
| =========                 |                                                 |
| \\      /  F ield         | OpenFOAM: The Open Source CFD Toolbox           |
|  \\    /   O peration     | Version:  2206                                  |
|   \\  /    A nd           | Website:  www.openfoam.com                      |
|    \\/     M anipulation  |                                                 |
\*---------------------------------------------------------------------------*/
FoamFile
{
    version     2.0;
    format      ascii;
    arch        "LSB;label=32;scalar=64";
    class       volScalarField;
    location    "0.6";
    object      p;
}
// * * * * * * * * * * * * * * * * * * * * * * * * * * * * * * * * * * * * * //

dimensions      [0 2 -2 0 0 0 0];

internalField   nonuniform List<scalar> 
185391
(
0.0112449
0.0114026
0.00614605
0.00966783
0.00634276
0.00631494
0.00203947
0.0112081
0.0110099
0.00455287
0.0108503
0.00849024
0.0127638
0.00571472
0.00673041
0.00101538
0.00439339
0.0126028
0.00474864
0.00496978
0.0116092
0.0110459
0.00459133
0.00377716
0.00927622
0.00165335
0.0110142
0.0131568
0.0133523
0.00669641
0.00829924
0.0125721
0.0120281
0.0074969
0.00753077
0.0127689
0.0102218
0.0124132
0.00611829
0.00712875
0.00669695
0.00416949
0.00574781
0.0119964
0.00184812
0.0124158
0.00420139
0.00649863
0.00733174
0.00846374
0.00865747
0.0002184
0.00513102
0.0034177
0.010997
0.00788922
0.0118394
0.0106506
0.0131571
0.00318149
0.00436259
0.0120351
0.00811155
0.00279194
0.00986625
0.0118035
0.00808045
0.00200822
0.00792282
0.0108448
0.00181897
0.0102132
0.00301982
0.00904825
0.00773001
0.00610228
0.0106517
0.00102267
0.00322228
0.00908698
0.0114105
0.011835
0.00732296
0.00752417
0.00924342
0.00810821
0.0053574
0.0104554
0.00223645
0.0086501
0.000814919
0.000844843
0.00653429
0.000265247
0.00688507
0.000386024
0.0014582
0.00769176
0.00613874
0.0114421
0.000817173
0.00885667
0.00928467
0.000848815
0.0102208
0.000640968
0.00944662
0.00905579
0.00869279
0.0102593
0.0100275
0.00439032
0.00889193
0.0100625
0.0100286
0.00473529
0.0086559
0.0045474
0.0129952
0.00909103
0.00435149
0.0108084
0.0129618
0.00511551
0.00927834
0.00947638
0.00531643
0.0040003
0.00555219
0.00712429
0.000637567
0.0076858
0.00242738
0.000372607
0.00262566
0.00551361
0.00888784
0.00104923
0.00397274
0.00477356
0.00219835
0.000263735
0.00340692
0.0122207
0.00336628
0.0121852
0.00200328
0.00689268
0.00181022
0.00141751
0.00222793
0.00219003
0.00849451
0.00125111
0.00239414
0.00203646
0.00164659
0.0040035
0.00630583
0.00145215
0.00807736
0.00259145
0.0024279
0.00692591
0.00380713
0.0080729
0.00986307
0.00165233
0.0018098
0.0127664
0.00633783
0.00534944
0.00258308
0.00455028
0.00438833
0.00337801
0.00321299
0.0123754
0.00515897
0.00512766
0.0119928
0.0055152
0.00809935
0.00474168
0.0118327
0.00772374
0.00416454
0.00477626
0.0043588
0.0126066
0.0133562
0.00340902
0.00532145
0.00458418
0.00318006
0.0100532
0.00104718
0.0133932
0.01296
0.00554877
0.00145712
0.00749067
0.000426003
0.00357359
0.00752689
0.00037843
0.00200013
0.00769546
0.00788187
0.00963481
0.00708462
0.00848591
0.00692657
0.00689341
0.00749548
0.00908366
0.00732265
0.00845695
0.00885563
0.00829673
0.00591627
0.00493643
0.0057101
0.00496983
0.0033806
0.00298796
0.00594029
0.00944011
0.00768659
0.00791127
0.00105109
0.0125638
0.0104229
0.0115998
0.00826196
0.0119863
0.0125971
0.012955
0.0131891
0.00966886
0.0124056
0.0127914
0.0131498
0.0123703
0.00555079
0.00162412
0.00728495
0.0116342
0.000601061
0.00142519
0.0014626
0.000429578
0.00591746
0.0106144
0.00419661
0.011244
0.00498029
0.00435884
0.00478488
0.0114406
0.011239
0.0102527
0.00551839
0.011216
0.00120765
0.00590806
0.0027919
0.00729121
0.0116408
0.00532539
0.0129896
0.00947592
0.00905654
0.0120276
0.00826954
0.0121914
0.00791623
0.00924759
0.00477772
0.00846068
0.00849544
0.00964183
0.00830281
0.000606366
0.00515744
0.00982821
0.0127608
0.00772194
0.00123096
0.0123787
0.0126054
0.00888767
0.00106101
0.00239312
0.00494269
0.0061354
0.00653056
0.0129623
0.0037757
0.00357781
0.00360869
0.00297875
0.00125891
0.0100205
0.00142706
0.00238931
0.00340941
0.0133501
0.000221677
0.00712051
0.0106186
0.00161461
0.00184423
0.000601268
0.009087
0.00868803
0.00515666
0.00021736
0.00629574
0.00279426
0.00983483
0.00282424
0.00282981
0.00298756
0.00262571
0.00185359
0.000821077
0.000211994
0.00302596
0.00204698
0.000854847
0.000254807
0.00905572
0.00038037
0.00263241
0.00259229
0.0016228
0.00243246
0.00240193
0.00200898
0.00220536
0.00220387
0.00126395
0.00223321
0.00102195
0.011045
0.0114408
0.00376997
0.0125713
0.00262058
0.00278056
0.00555672
0.00535442
0.00925026
0.00924765
0.00967442
0.00570976
0.0100595
0.00885108
0.00318518
0.010622
0.00357911
0.00791998
0.0110375
0.00458727
0.00474445
0.0122192
0.00964438
0.00381179
0.00361673
0.0131869
0.00729509
0.00982743
0.00688937
0.00944386
0.00650768
0.00532523
0.00653812
0.0116009
0.00396857
0.0124132
0.00516868
0.00513439
0.00416822
0.00420115
0.00400715
0.00397296
0.0104205
0.00594816
0.00649599
0.00552021
0.00649286
0.00967599
0.00121557
0.000647658
0.000602554
0.00669227
0.00868711
0.0102512
0.0102537
0.00732257
0.00380244
0.0127983
0.0108446
0.00595388
0.0121792
0.0133808
0.0129949
0.0116375
0.00338374
0.00845332
0.00830076
0.0131915
0.00575529
0.00672895
0.00788148
0.00571881
0.00709189
0.0106424
0.000425176
0.00653774
0.00301954
0.00948537
0.0104235
0.0110397
0.00752319
0.00728907
0.0131563
0.00360701
0.0131965
0.011798
0.00399982
0.0133824
0.0118001
0.0123834
0.0106515
0.00203788
0.00282118
0.00301884
0.0104581
0.00888758
0.00614872
0.00123063
0.00493919
0.00709041
0.00987199
0.00983258
0.0018173
0.00693157
0.0120185
0.0127992
0.00100679
0.00165853
0.0043925
0.0108456
0.00611627
0.00321243
0.00536092
0.00298401
0.0135398
0.000427914
0.0108142
0.0108118
0.0108109
0.00669765
0.0117929
0.0118249
0.00455556
0.0102222
0.0110097
0.00788514
0.0063276
0.00673373
0.0112083
0.0122134
0.0104511
0.0114364
0.0114021
0.00243175
0.00259512
0.00826572
0.0129993
0.012801
0.0125695
0.0122237
0.0121862
0.0119985
0.0116424
0.0116056
0.0114039
0.0112408
0.0112005
0.0106097
0.0104514
0.0104107
0.0100602
0.0100244
0.0098671
0.00962781
0.00947417
0.00943559
0.00928036
0.00884969
0.00826001
0.00810623
0.00806811
0.00772466
0.00748354
0.00712308
0.00708
0.00692253
0.00673234
0.00633432
0.00629226
0.00610226
0.00594481
0.00590409
0.00574578
0.00496479
0.00492522
0.00458382
0.00419681
0.00415668
0.00396202
0.00380106
0.00376312
0.00360581
0.00356479
0.00321294
0.00317779
0.00282044
0.00223203
0.00184787
0.00161515
0.00141751
0.00125273
0.000844975
0.000808227
0.000641008
0.000269227
0.00865027
0.00868456
0.00574394
0.0131912
0.0131528
0.0129951
0.0129586
0.012799
0.012763
0.0126046
0.0125666
0.0124134
0.0123787
0.0122237
0.0121881
0.0120317
0.011995
0.0118365
0.0117991
0.011639
0.0116026
0.011442
0.0114039
0.011243
0.0112058
0.0110383
0.0110023
0.0108458
0.0108087
0.0106497
0.0106123
0.0104503
0.0104145
0.0102541
0.0102177
0.0100608
0.0100243
0.00986734
0.00983013
0.0096704
0.00963353
0.0094752
0.00943793
0.00928086
0.00924316
0.00908598
0.00904901
0.00888459
0.00884673
0.0086879
0.00865039
0.00849224
0.0084581
0.00830558
0.00826803
0.00811418
0.00807802
0.00792452
0.00788915
0.0077277
0.00768824
0.00752714
0.00748913
0.00732434
0.00728452
0.00711903
0.00708009
0.00692011
0.00688167
0.00672335
0.00668613
0.00653201
0.006493
0.00633984
0.00630243
0.00614563
0.00611163
0.00594701
0.00591193
0.00574496
0.00570853
0.00555235
0.00551487
0.00535959
0.00532396
0.00516217
0.00512684
0.00496853
0.00493261
0.00477653
0.00474072
0.00458441
0.0045477
0.00438817
0.00435211
0.00419715
0.00416248
0.0040041
0.00396627
0.00380388
0.00376707
0.00360626
0.00356906
0.00340987
0.00337346
0.00321199
0.00317352
0.00301487
0.00297774
0.00282093
0.0027855
0.00262474
0.00258725
0.00242677
0.00238847
0.00223149
0.00219734
0.00204145
0.00200537
0.00185082
0.0018132
0.00165332
0.00161477
0.00145509
0.00141685
0.00125424
0.00121795
0.00105208
0.00101483
0.000849221
0.000810932
0.00063531
0.000595863
0.000420461
0.00037712
0.000269412
0.000220774
0.0131912
0.0131548
0.0129955
0.0129581
0.0127976
0.0127623
0.0126037
0.0125692
0.0124152
0.0123802
0.0122235
0.0121898
0.0120311
0.0119964
0.011836
0.0118008
0.0116404
0.0116055
0.0114413
0.0114071
0.0112419
0.011205
0.0110366
0.0110005
0.0108467
0.0108114
0.0106521
0.0106145
0.0104533
0.0104164
0.010256
0.0102203
0.010062
0.0100263
0.00986706
0.00983078
0.00967064
0.00963462
0.0094752
0.00943922
0.00927984
0.0092441
0.00908421
0.00904779
0.00888536
0.00884978
0.0086901
0.00865435
0.00849384
0.00845919
0.00830235
0.0082672
0.00811188
0.00807509
0.00792357
0.00788914
0.00772672
0.00769045
0.00752624
0.00748911
0.00732087
0.00728294
0.00711838
0.00708101
0.00691824
0.00687961
0.00672053
0.00668294
0.00652714
0.00649045
0.00633763
0.00630111
0.00614511
0.00611015
0.00594893
0.00591141
0.00574711
0.00571047
0.00555066
0.00551505
0.0053565
0.00532206
0.00516202
0.00512697
0.00496818
0.00493182
0.00477792
0.00474134
0.0045852
0.00455015
0.00439098
0.00435706
0.00419917
0.0041624
0.00400143
0.00396513
0.00380318
0.00376802
0.00360494
0.00356888
0.00340976
0.00337415
0.00321463
0.00317792
0.00301598
0.00297994
0.00282054
0.00278369
0.0026224
0.00258711
0.00242893
0.0023939
0.00223346
0.00219849
0.00204132
0.00200598
0.00185037
0.00181456
0.00165539
0.00161802
0.00145478
0.00141854
0.00125418
0.00121722
0.00105
0.00101311
0.000847363
0.000810618
0.000633087
0.00059592
0.0004216
0.000379297
0.000271489
0.000221212
0.0131907
0.0131547
0.0129952
0.0129583
0.0127988
0.012762
0.0126054
0.012571
0.0124161
0.0123803
0.0122259
0.0121909
0.012034
0.0119972
0.0118376
0.0118033
0.011645
0.0116086
0.0114437
0.0114083
0.0112461
0.0112092
0.0110396
0.0110019
0.0108473
0.0108081
0.0106499
0.0106122
0.0104537
0.0104148
0.0102565
0.0102187
0.0100629
0.0100261
0.0098688
0.00983134
0.00967085
0.00963297
0.00947467
0.00943775
0.00927935
0.00924219
0.00908249
0.00904564
0.00888538
0.00884856
0.00868847
0.00865198
0.00849671
0.00846092
0.00830586
0.00826986
0.00811358
0.0080759
0.00792313
0.00788698
0.00772548
0.00768875
0.00752777
0.00749025
0.0073198
0.00728075
0.00711587
0.00707789
0.00691668
0.00688036
0.00672235
0.0066844
0.00652776
0.00649059
0.00634174
0.00630305
0.00614534
0.00610639
0.0059467
0.00590933
0.00574714
0.00570858
0.00555318
0.00551493
0.00536147
0.00532358
0.00516522
0.00512956
0.00497071
0.0049352
0.00477894
0.00474212
0.0045882
0.0045515
0.00439443
0.00435948
0.00420357
0.004167
0.00400426
0.00396743
0.00380522
0.00376877
0.00360394
0.00356752
0.00340709
0.0033703
0.00321247
0.00317474
0.00301601
0.00297908
0.00282095
0.00278423
0.0026241
0.00258732
0.00242939
0.00239252
0.00223532
0.00219943
0.00204347
0.00200751
0.00185097
0.00181352
0.00165359
0.00161577
0.00145454
0.0014167
0.00125519
0.00121819
0.00105012
0.0010136
0.000849138
0.000814533
0.000639143
0.00060081
0.00042271
0.000378578
0.000269815
0.000218922
0.0131903
0.0131531
0.0129949
0.0129592
0.0128002
0.0127638
0.0126075
0.0125723
0.0124196
0.0123843
0.0122272
0.0121917
0.0120333
0.0119965
0.0118392
0.0118036
0.0116465
0.0116093
0.0114431
0.0114061
0.0112481
0.0112107
0.0110447
0.011007
0.0108481
0.0108081
0.0106482
0.0106097
0.0104523
0.010414
0.0102547
0.0102161
0.0100592
0.010022
0.00986704
0.00982983
0.00966973
0.00963179
0.009476
0.00943922
0.00927827
0.00924201
0.00908228
0.0090467
0.00888748
0.00885176
0.00869167
0.00865595
0.00849918
0.00846175
0.00830572
0.00826849
0.00811268
0.00807495
0.0079201
0.0078817
0.00772215
0.00768394
0.00752554
0.00748834
0.00732124
0.00728479
0.00711709
0.0070801
0.00691612
0.00687999
0.00672011
0.00668377
0.00652593
0.00648875
0.00634214
0.00630545
0.0061482
0.00610912
0.00594614
0.00590797
0.00574552
0.00570695
0.00555105
0.00551325
0.00536148
0.0053217
0.00516528
0.00512744
0.00497123
0.00493522
0.00478006
0.00474514
0.00458717
0.00455092
0.00439469
0.00435974
0.00420455
0.00416796
0.0040048
0.00396628
0.00380585
0.0037685
0.00360594
0.0035696
0.00340905
0.00337363
0.00321146
0.00317493
0.00301521
0.00297796
0.00282077
0.00278407
0.00262427
0.00258732
0.00242936
0.00239189
0.00223578
0.00219997
0.00204149
0.00200528
0.00184926
0.00181186
0.00165422
0.00161688
0.00145336
0.00141577
0.00125555
0.00121743
0.0010511
0.00101473
0.000847526
0.000812139
0.000638199
0.000599697
0.000421159
0.000377617
0.000265917
0.000217272
0.0131882
0.0131517
0.0129938
0.0129567
0.0128005
0.0127654
0.0126105
0.0125747
0.0124226
0.0123865
0.0122303
0.0121936
0.0120341
0.0119977
0.0118416
0.0118036
0.0116476
0.0116081
0.0114422
0.0114023
0.0112409
0.0112017
0.0110398
0.0110045
0.0108453
0.0108088
0.0106489
0.010612
0.0104532
0.0104167
0.0102584
0.010221
0.0100587
0.0100198
0.00986451
0.0098275
0.00966728
0.00962964
0.00947589
0.00943902
0.0092789
0.00924235
0.00908171
0.00904515
0.00888823
0.00885261
0.0086926
0.0086568
0.00849947
0.0084627
0.0083052
0.00826739
0.00811314
0.00807572
0.00792096
0.00788446
0.00772402
0.00768572
0.00752371
0.00748417
0.00731944
0.00728176
0.00711479
0.00707773
0.00691436
0.00687789
0.00672159
0.00668682
0.00652234
0.00648578
0.00633678
0.00630036
0.00614332
0.00610412
0.00594247
0.00590322
0.00574318
0.00570445
0.00554778
0.00551101
0.00535746
0.00531973
0.00516624
0.00512949
0.00497082
0.00493369
0.00478238
0.00474754
0.00459123
0.00455574
0.00439679
0.00435935
0.00420389
0.00416781
0.00400656
0.00396866
0.00380666
0.00376896
0.00360588
0.00356927
0.0034117
0.00337607
0.00321325
0.00317698
0.0030142
0.00297577
0.00281955
0.00278198
0.00262366
0.00258753
0.00243006
0.00239349
0.00223958
0.00220276
0.00204446
0.00200863
0.00184866
0.00181199
0.00165301
0.00161485
0.00145307
0.00141708
0.00125691
0.00121925
0.00105566
0.00101919
0.000852733
0.000815677
0.000637969
0.000599514
0.000421164
0.000377514
0.000264974
0.000217496
0.0129947
0.0129569
0.0128007
0.0127644
0.0126114
0.0125749
0.0124228
0.0123854
0.0122291
0.0121916
0.0120329
0.0119955
0.0118399
0.011799
0.0116456
0.011603
0.0114469
0.0114103
0.0112439
0.011209
0.0110421
0.0110072
0.0108448
0.0108093
0.010648
0.0106111
0.0104499
0.0104141
0.0102552
0.0102183
0.0100556
0.0100173
0.00986188
0.00982541
0.00966563
0.00962938
0.00947465
0.00943726
0.00927835
0.00924154
0.00908425
0.00904788
0.00888891
0.00885109
0.00869233
0.0086555
0.00849802
0.00846063
0.00830257
0.00826543
0.00811039
0.00807451
0.00791916
0.00788279
0.00772399
0.00768592
0.00752366
0.00748361
0.00731908
0.0072807
0.00711501
0.0070786
0.0069149
0.00687977
0.0067255
0.00668877
0.00652525
0.00648865
0.00633548
0.00629692
0.00613996
0.00610113
0.00593861
0.00589904
0.00574029
0.00570227
0.00554987
0.00551415
0.00535853
0.00532244
0.00516764
0.00513126
0.00497031
0.00493261
0.00477838
0.00474214
0.00459152
0.00455568
0.00440103
0.00436481
0.00420496
0.00416765
0.00400553
0.00396844
0.00380907
0.00377114
0.00360665
0.00357027
0.00341101
0.00337238
0.00321221
0.00317568
0.00301347
0.00297625
0.00281714
0.00278032
0.00262368
0.00258683
0.00243028
0.00239296
0.00223952
0.0022014
0.00204429
0.00200614
0.00184848
0.00181104
0.0016513
0.00161442
0.00145259
0.00141606
0.00125616
0.00121904
0.00105697
0.00102044
0.000856244
0.000816381
0.000641205
0.000602436
0.000422847
0.000379211
0.000264171
0.000217876
0.0128019
0.0127638
0.0126096
0.0125729
0.0124203
0.0123837
0.0122264
0.0121893
0.0120301
0.0119949
0.0118365
0.0117996
0.0116396
0.0116015
0.011448
0.0114061
0.0112456
0.0112098
0.0110422
0.011006
0.0108423
0.0108072
0.0106488
0.0106133
0.0104568
0.0104212
0.0102579
0.0102199
0.0100568
0.0100175
0.00986219
0.00982398
0.00966802
0.00963171
0.0094766
0.00943891
0.00927772
0.00923994
0.00908349
0.00904621
0.00888809
0.00884952
0.00869008
0.00865101
0.00849429
0.00845817
0.00830442
0.00826684
0.00811543
0.00808006
0.00791668
0.00787904
0.00771807
0.00768184
0.00751963
0.00748089
0.00731788
0.00728022
0.00711742
0.00708026
0.00691847
0.00688209
0.0067247
0.00668557
0.00652543
0.00648744
0.00633211
0.00629335
0.00613631
0.00609797
0.00593234
0.00589279
0.0057366
0.0057003
0.00554862
0.00551186
0.00535776
0.00532097
0.00516671
0.00513107
0.00497333
0.00493695
0.00478056
0.00474449
0.00458936
0.00455202
0.00439816
0.00436173
0.00420507
0.00416764
0.00400491
0.00396722
0.00380787
0.00376994
0.00360819
0.00357204
0.00341273
0.00337605
0.00321335
0.00317631
0.0030159
0.00297861
0.00281659
0.00277712
0.00262001
0.00258212
0.00242785
0.00239026
0.00223894
0.00220192
0.00204156
0.00200371
0.00184552
0.0018074
0.00164911
0.00161245
0.00145104
0.00141482
0.00125632
0.00122045
0.00105965
0.00102158
0.000851728
0.000812894
0.000637967
0.000598826
0.000424636
0.000381518
0.000267681
0.000219387
0.012803
0.0127657
0.0126097
0.0125719
0.01242
0.0123833
0.0122261
0.0121889
0.0120293
0.0119931
0.011835
0.0117991
0.0116368
0.0116026
0.011442
0.0114038
0.0112451
0.0112071
0.0110472
0.0110106
0.0108455
0.0108084
0.0106475
0.0106124
0.0104562
0.0104164
0.0102554
0.010217
0.0100535
0.0100144
0.00985804
0.00981874
0.00966515
0.0096288
0.00947383
0.00943686
0.0092756
0.00923751
0.00908023
0.00904292
0.00888666
0.00884753
0.00868845
0.00864634
0.00849034
0.00845421
0.00829963
0.00826402
0.00811735
0.008081
0.00791816
0.0078799
0.00771749
0.00768036
0.007519
0.00748183
0.00731573
0.00727689
0.00711513
0.00707768
0.0069186
0.00688297
0.00672069
0.00668532
0.00652698
0.00648632
0.00632754
0.00628884
0.00613123
0.00609399
0.00593352
0.00589774
0.00573868
0.00570203
0.00554781
0.00551335
0.0053585
0.00532175
0.00516604
0.00512809
0.00497184
0.00493471
0.00478153
0.004745
0.00458974
0.00455156
0.00439619
0.00435941
0.00420311
0.00416676
0.00400492
0.00396693
0.00380595
0.00376999
0.00361027
0.0035732
0.00341298
0.00337436
0.00321078
0.0031726
0.00301507
0.00297745
0.00281613
0.00277782
0.00262029
0.00258325
0.00242615
0.00239031
0.00223673
0.00219786
0.00204132
0.00200458
0.001846
0.00180712
0.00164808
0.00161037
0.00144947
0.00141154
0.00125407
0.00121779
0.00106199
0.0010223
0.000853606
0.000814664
0.000638832
0.00060021
0.000425247
0.000381393
0.000268443
0.000220247
0.0128021
0.0127658
0.0126072
0.0125706
0.0124166
0.0123795
0.0122245
0.0121876
0.0120323
0.011995
0.0118376
0.0118019
0.0116427
0.0116069
0.0114408
0.0114045
0.0112439
0.0112067
0.0110473
0.0110096
0.0108487
0.0108101
0.0106512
0.0106147
0.0104533
0.0104139
0.0102534
0.0102146
0.0100529
0.0100157
0.00985914
0.00982108
0.00966714
0.0096301
0.00947203
0.00943534
0.00927272
0.00923421
0.00907484
0.00903736
0.00888056
0.00884497
0.00868452
0.00864528
0.00849087
0.00845366
0.00829993
0.00826399
0.00811638
0.00807829
0.00791643
0.00787792
0.00771451
0.00767585
0.00751601
0.00747928
0.00731646
0.00727852
0.0071164
0.00707968
0.00692059
0.0068834
0.00671952
0.00668439
0.00652552
0.00648532
0.00632573
0.00628648
0.00612774
0.00608997
0.00593341
0.00589906
0.00574129
0.00570461
0.00554844
0.00551224
0.00535621
0.00531985
0.00516353
0.00512652
0.00497066
0.00493359
0.00477973
0.00474055
0.00458817
0.00455076
0.00439482
0.00435734
0.00420196
0.00416581
0.00400614
0.00396757
0.00380539
0.00376808
0.0036084
0.00357196
0.00341339
0.00337578
0.00320929
0.00317022
0.00300892
0.00296942
0.00281148
0.00277417
0.00261969
0.00258262
0.00242821
0.00239358
0.00223585
0.00219675
0.00203695
0.00199959
0.00184275
0.00180501
0.00164697
0.001609
0.00144997
0.00141291
0.00125439
0.00121731
0.0010593
0.00101954
0.000854684
0.000814291
0.000640158
0.000601186
0.000423059
0.000379846
0.000267135
0.000219523
0.0128018
0.0127646
0.0126075
0.0125703
0.0124159
0.0123788
0.012222
0.0121845
0.0120306
0.0119937
0.0118374
0.0117999
0.0116449
0.0116086
0.0114437
0.0114076
0.0112445
0.0112068
0.0110461
0.0110089
0.0108475
0.0108078
0.0106535
0.0106168
0.0104502
0.0104119
0.0102518
0.010214
0.0100508
0.0100131
0.00985607
0.00981834
0.00966764
0.00963051
0.00947103
0.00943278
0.00927248
0.0092374
0.00907938
0.00904201
0.00888063
0.00884328
0.00868119
0.00864594
0.0084907
0.0084526
0.00829909
0.00826292
0.00811182
0.00807327
0.00791649
0.00787928
0.00771406
0.00767532
0.00751122
0.0074747
0.00731045
0.00727322
0.00711454
0.00707688
0.00692048
0.00688296
0.00672063
0.0066827
0.00652116
0.00648326
0.0063242
0.00628693
0.00612843
0.00609075
0.00593538
0.00590056
0.00574213
0.00570596
0.00554906
0.00551183
0.00535656
0.00532086
0.00516539
0.00512798
0.00497127
0.00493489
0.00477889
0.00473925
0.00458495
0.00454779
0.00439201
0.00435456
0.00419824
0.00415977
0.00400367
0.00396599
0.00380746
0.00376999
0.00360906
0.00357187
0.00341166
0.00337414
0.00320755
0.00317031
0.00300422
0.00296545
0.00280914
0.00277213
0.00261662
0.00257997
0.00242809
0.00239247
0.00223413
0.00219654
0.00203584
0.00199805
0.00184094
0.00180337
0.00164569
0.00160825
0.00144826
0.00141018
0.00125406
0.00121641
0.00105491
0.0010169
0.000852383
0.000813232
0.000642452
0.000602777
0.000423978
0.000381054
0.000269204
0.00021991
0.0128001
0.0127627
0.0126055
0.0125687
0.0124159
0.0123793
0.0122231
0.0121845
0.0120314
0.0119937
0.0118389
0.0118025
0.011645
0.0116095
0.0114481
0.0114124
0.011248
0.0112105
0.011047
0.0110107
0.0108485
0.010811
0.0106552
0.0106146
0.0104476
0.0104104
0.0102487
0.0102111
0.0100476
0.0100106
0.00985542
0.00981834
0.00966726
0.00963097
0.00947269
0.00943533
0.00927424
0.00923706
0.00907799
0.0090407
0.00888211
0.00884396
0.00868409
0.00864841
0.0084924
0.0084569
0.00830046
0.00826295
0.00810723
0.00806885
0.00791167
0.00787398
0.00771014
0.00767233
0.00751202
0.00747509
0.00731024
0.00727418
0.00711444
0.00707709
0.00691953
0.00688467
0.00672118
0.0066829
0.0065195
0.00648144
0.00632397
0.00628735
0.00613002
0.00609247
0.00593909
0.00590216
0.00574432
0.00570873
0.00555094
0.00551312
0.00535586
0.00531858
0.00516169
0.00512387
0.00496969
0.00493416
0.00477893
0.00474159
0.00458387
0.00454563
0.00438774
0.00435057
0.00419218
0.00415463
0.00399946
0.00396265
0.0038064
0.00376886
0.00360872
0.00357158
0.00341143
0.00337394
0.00320707
0.00317105
0.00300645
0.00296974
0.00281166
0.00277445
0.00261749
0.00258153
0.0024285
0.00239249
0.00223419
0.00219631
0.00203563
0.00199753
0.0018373
0.00179862
0.00164126
0.00160315
0.00144561
0.00140781
0.00125373
0.00121578
0.0010548
0.00101618
0.000851102
0.000813756
0.000641891
0.000602129
0.00042292
0.000379593
0.00026895
0.000220606
0.0126073
0.0125672
0.0124118
0.0123744
0.0122199
0.0121822
0.0120301
0.0119929
0.0118399
0.0118033
0.0116452
0.0116092
0.011448
0.0114122
0.011249
0.0112112
0.0110467
0.0110095
0.0108474
0.0108138
0.0106548
0.0106161
0.010447
0.0104078
0.010248
0.0102109
0.0100494
0.0100132
0.00985574
0.00981899
0.0096678
0.00962986
0.00947193
0.00943495
0.00927383
0.00923704
0.0090766
0.00903923
0.00888058
0.00884392
0.00868378
0.00864626
0.00849013
0.00845406
0.00830062
0.00826482
0.00810747
0.00806962
0.00791083
0.00787244
0.00770916
0.00767296
0.00751136
0.0074738
0.00730993
0.007274
0.00711283
0.00707594
0.00691752
0.00688118
0.00672076
0.00668347
0.00651886
0.00648182
0.00632256
0.00628546
0.00612751
0.00609169
0.00593842
0.00590172
0.00574486
0.00570842
0.00554985
0.00551371
0.00535695
0.00531989
0.00516217
0.00512466
0.00496947
0.00493206
0.00477605
0.00473969
0.00458251
0.00454544
0.00438711
0.00435038
0.00419356
0.00415621
0.00399797
0.00395976
0.00380254
0.00376587
0.00360681
0.00357014
0.00341199
0.00337372
0.0032061
0.0031694
0.00300578
0.00297006
0.00281222
0.00277707
0.00262149
0.00258414
0.00242835
0.00239059
0.00222973
0.00219199
0.00203111
0.00199259
0.00183448
0.0017964
0.00163978
0.00160192
0.0014447
0.00140731
0.00125351
0.00121684
0.00105577
0.00101883
0.000852866
0.000814113
0.000641051
0.000600894
0.000422199
0.000378703
0.000269319
0.000219184
0.012608
0.0125678
0.0124106
0.0123745
0.0122207
0.0121839
0.0120302
0.0119935
0.0118413
0.011805
0.0116488
0.011613
0.0114513
0.0114163
0.0112519
0.0112158
0.0110484
0.0110109
0.0108483
0.010812
0.0106537
0.0106165
0.0104502
0.010413
0.0102494
0.0102116
0.0100507
0.0100136
0.00985443
0.00981926
0.00966697
0.00963072
0.00947238
0.00943449
0.00927442
0.00923669
0.0090766
0.00903929
0.00888208
0.00884557
0.00868535
0.00864967
0.00849206
0.00845576
0.00830144
0.00826493
0.00810677
0.00807132
0.00791137
0.00787423
0.00771061
0.00767285
0.00751051
0.00747341
0.00731362
0.00727765
0.00711636
0.00708009
0.00691835
0.0068807
0.00672015
0.00668245
0.00652043
0.00648384
0.00632626
0.00629029
0.00613091
0.00609485
0.00593944
0.00590268
0.00574444
0.00570756
0.00555073
0.00551442
0.00535776
0.00532125
0.00516051
0.00512382
0.00496709
0.00492959
0.00477406
0.00473868
0.00458223
0.00454643
0.00438526
0.00434836
0.00419005
0.00415419
0.00399857
0.00396098
0.00380315
0.00376554
0.00360586
0.00356962
0.00341044
0.00337222
0.00320919
0.00317289
0.0030109
0.00297461
0.00281477
0.00277821
0.00262119
0.00258496
0.00242718
0.00238839
0.00222679
0.00218918
0.00202746
0.00199025
0.00183208
0.00179623
0.00163863
0.00160197
0.00144326
0.00140628
0.00125089
0.00121276
0.00105188
0.00101405
0.000852571
0.000814404
0.000642966
0.000602006
0.000421352
0.000380015
0.000270199
0.000219286
0.0126061
0.0125655
0.0124097
0.0123728
0.0122207
0.0121843
0.0120292
0.0119928
0.0118394
0.0118033
0.0116505
0.0116143
0.0114547
0.0114182
0.0112524
0.0112175
0.0110523
0.011016
0.0108528
0.0108146
0.0106528
0.0106145
0.0104492
0.0104128
0.0102497
0.0102137
0.0100538
0.0100173
0.00985541
0.00981886
0.00966537
0.00962786
0.00947162
0.00943494
0.00927607
0.00923782
0.00907497
0.00903875
0.00888131
0.00884484
0.0086854
0.00864987
0.00849389
0.00845863
0.00830281
0.00826698
0.00810695
0.00807032
0.00790997
0.00787265
0.00771086
0.00767363
0.00751194
0.00747505
0.00731569
0.00727716
0.00711618
0.00707911
0.00691689
0.00687999
0.00671823
0.00668026
0.00652009
0.00648356
0.00632561
0.00628968
0.00613213
0.00609617
0.0059416
0.00590464
0.00574711
0.0057102
0.00555031
0.00551321
0.00535514
0.00531907
0.00516161
0.0051246
0.00496913
0.00493198
0.00477351
0.00473792
0.00458196
0.00454686
0.00438851
0.00435127
0.00418967
0.00415257
0.00399639
0.00395995
0.00380378
0.00376605
0.00360603
0.00356908
0.00340768
0.00337113
0.00321125
0.00317381
0.00301264
0.00297608
0.00281717
0.00277961
0.00262014
0.00258327
0.00242362
0.00238622
0.00222488
0.00218779
0.00202788
0.00199129
0.00183276
0.00179608
0.00163733
0.00160002
0.00144164
0.00140409
0.00125
0.00121314
0.00105242
0.00101592
0.000848897
0.000812493
0.000642056
0.000600304
0.000422661
0.000377222
0.000266816
0.000218494
0.0126029
0.0125646
0.0124105
0.0123723
0.0122194
0.0121833
0.0120308
0.0119941
0.0118412
0.0118057
0.0116511
0.0116158
0.0114583
0.0114198
0.011254
0.0112165
0.0110524
0.0110161
0.0108535
0.0108162
0.0106537
0.0106152
0.010448
0.0104108
0.0102504
0.0102143
0.0100564
0.0100187
0.00985592
0.00981904
0.00966271
0.00962582
0.00946766
0.00943267
0.00927524
0.00923825
0.00907744
0.00904044
0.00888207
0.0088459
0.00868543
0.00865014
0.00849525
0.00845962
0.00830359
0.00826708
0.00810704
0.00807031
0.00790796
0.00787024
0.0077077
0.00767174
0.007513
0.00747658
0.00731837
0.00728095
0.00711777
0.00707846
0.00691771
0.00688101
0.00671862
0.00668151
0.00652343
0.00648615
0.00632691
0.00629169
0.00613231
0.00609537
0.00593955
0.0059047
0.00574852
0.00571188
0.00555354
0.00551568
0.00535395
0.00531663
0.00515885
0.00512211
0.00496879
0.00493127
0.00477421
0.00473702
0.00457898
0.00454215
0.00438752
0.00435055
0.00419177
0.00415469
0.00399489
0.00395805
0.00380314
0.00376682
0.00360875
0.00357152
0.00340907
0.00337328
0.0032122
0.00317545
0.00301215
0.00297556
0.00281486
0.00277796
0.0026196
0.00258249
0.00242373
0.0023858
0.00222368
0.00218552
0.00202501
0.00198827
0.0018318
0.00179585
0.00163776
0.00160187
0.00144095
0.00140342
0.00124818
0.00121095
0.00105352
0.00101543
0.000849874
0.000811631
0.000637024
0.000599051
0.000421764
0.000377854
0.000267013
0.000215846
0.012598
0.0125634
0.0124103
0.0123736
0.0122187
0.0121826
0.0120285
0.011993
0.0118417
0.0118039
0.011651
0.0116161
0.0114584
0.0114204
0.0112565
0.0112183
0.0110523
0.0110154
0.0108531
0.0108168
0.0106547
0.010617
0.0104497
0.0104115
0.0102502
0.0102127
0.0100543
0.010018
0.00985685
0.00982082
0.00966199
0.00962542
0.00946662
0.00943115
0.00927316
0.009238
0.00907917
0.00904273
0.00888421
0.00884848
0.00868736
0.00865192
0.00849619
0.00846013
0.00830298
0.00826606
0.00810634
0.00806902
0.00790685
0.00786835
0.00770752
0.00767072
0.00751189
0.0074751
0.00731812
0.00728139
0.00711785
0.00707944
0.00691607
0.00687842
0.00672043
0.00668326
0.00652757
0.00649131
0.00632871
0.00629321
0.00613447
0.00609792
0.00594143
0.00590545
0.00574701
0.00570949
0.00555263
0.00551611
0.00535695
0.00532008
0.00515996
0.00512329
0.00496666
0.00492854
0.0047739
0.0047374
0.0045781
0.00454045
0.00438569
0.00434882
0.00419083
0.00415395
0.00399374
0.00395742
0.00380173
0.00376513
0.0036067
0.00357037
0.00341042
0.00337419
0.00321493
0.00317839
0.00301552
0.0029778
0.00281501
0.0027771
0.00261691
0.00257983
0.00242072
0.00238365
0.00222403
0.00218689
0.00202813
0.00199216
0.00183358
0.00179697
0.00163762
0.00160058
0.00143929
0.00140215
0.00124645
0.00120947
0.00105035
0.00101445
0.000852762
0.000813342
0.000637186
0.000596763
0.000420348
0.000378821
0.000264293
0.000216327
0.012602
0.0125657
0.0124107
0.0123758
0.0122205
0.012183
0.0120278
0.0119929
0.0118434
0.011806
0.0116519
0.0116146
0.011456
0.0114189
0.0112572
0.0112192
0.0110533
0.0110164
0.0108537
0.0108156
0.0106515
0.0106141
0.0104504
0.0104137
0.0102529
0.0102153
0.0100546
0.0100181
0.00985599
0.00981883
0.00966312
0.00962723
0.00947017
0.00943382
0.00927572
0.00924145
0.00908094
0.00904487
0.00888456
0.00884888
0.00869038
0.00865398
0.00849937
0.00846284
0.00830465
0.00826566
0.00810433
0.00806586
0.00790589
0.00786833
0.00770874
0.0076719
0.00751207
0.00747463
0.00731752
0.0072797
0.00711838
0.00707966
0.00691487
0.00687841
0.00672058
0.00668478
0.00652978
0.0064936
0.00633239
0.00629749
0.00613595
0.00609967
0.00594457
0.00590792
0.00574939
0.00571208
0.00555096
0.00551368
0.00535472
0.00531734
0.00516181
0.00512628
0.0049687
0.00493117