/*--------------------------------*- C++ -*----------------------------------*\
| =========                 |                                                 |
| \\      /  F ield         | OpenFOAM: The Open Source CFD Toolbox           |
|  \\    /   O peration     | Version:  2206                                  |
|   \\  /    A nd           | Website:  www.openfoam.com                      |
|    \\/     M anipulation  |                                                 |
\*---------------------------------------------------------------------------*/
FoamFile
{
    version     2.0;
    format      ascii;
    arch        "LSB;label=32;scalar=64";
    class       volScalarField;
    location    "0.3";
    object      k;
}
// * * * * * * * * * * * * * * * * * * * * * * * * * * * * * * * * * * * * * //

dimensions      [0 2 -2 0 0 0 0];

internalField   nonuniform List<scalar> 
185391
(
7.4088e-08
8.53453e-08
7.55659e-08
7.57004e-08
7.60869e-08
8.59149e-08
7.57323e-08
8.54322e-08
8.54455e-08
8.49524e-08
7.41507e-08
7.56248e-08
8.73369e-08
8.57e-08
7.3916e-08
8.71209e-08
7.38477e-08
7.56754e-08
8.49462e-08
7.54987e-08
8.57809e-08
7.61641e-08
7.37633e-08
8.52053e-08
7.46623e-08
7.53863e-08
8.59005e-08
8.57816e-08
8.58513e-08
8.4926e-08
7.62635e-08
8.56617e-08
7.54347e-08
8.5354e-08
7.43607e-08
8.59249e-08
8.58329e-08
7.58893e-08
8.57745e-08
7.5825e-08
8.58539e-08
8.55484e-08
7.54163e-08
8.58434e-08
7.5446e-08
7.58176e-08
7.55773e-08
8.52462e-08
7.41157e-08
8.61083e-08
8.568e-08
5.78937e-08
8.56001e-08
7.38477e-08
8.60791e-08
8.52719e-08
7.61543e-08
7.6354e-08
8.59505e-08
8.56907e-08
8.56916e-08
7.55999e-08
7.3853e-08
8.56617e-08
7.63726e-08
8.57879e-08
8.52421e-08
8.56514e-08
7.41215e-08
7.59565e-08
8.56733e-08
8.61463e-08
7.60748e-08
8.60904e-08
7.42158e-08
8.68507e-08
7.60574e-08
8.60618e-08
7.39141e-08
7.59565e-08
8.60219e-08
7.5981e-08
7.60583e-08
7.59274e-08
8.58713e-08
7.5294e-08
7.54929e-08
7.62729e-08
7.55096e-08
8.58506e-08
8.71203e-08
7.46319e-08
7.56313e-08
7.32067e-08
8.57904e-08
8.00909e-08
7.58259e-08
8.54515e-08
7.57852e-08
7.59298e-08
8.60679e-08
8.53893e-08
7.42147e-08
7.56246e-08
8.53854e-08
7.56105e-08
8.51525e-08
8.52747e-08
7.40859e-08
7.4105e-08
8.54741e-08
7.55542e-08
7.41069e-08
7.4204e-08
8.59162e-08
8.56604e-08
8.53179e-08
8.54412e-08
7.58893e-08
7.40312e-08
8.57039e-08
8.63969e-08
8.60474e-08
8.58244e-08
7.58462e-08
7.57606e-08
8.58251e-08
7.57208e-08
7.59907e-08
7.61077e-08
7.46042e-08
8.58006e-08
7.4405e-08
7.97344e-08
7.4679e-08
8.54563e-08
7.57027e-08
7.46419e-08
8.55646e-08
7.5567e-08
8.69336e-08
7.30518e-08
7.5673e-08
7.38141e-08
8.59577e-08
8.51365e-08
8.68136e-08
8.56007e-08
8.68576e-08
8.69374e-08
7.4515e-08
8.5892e-08
7.57912e-08
7.4579e-08
8.67105e-08
7.4679e-08
7.45139e-08
7.53962e-08
8.52726e-08
7.4672e-08
8.57699e-08
8.68704e-08
7.56171e-08
7.56373e-08
7.54224e-08
8.69852e-08
7.49129e-08
7.54791e-08
8.57426e-08
8.52703e-08
7.44557e-08
7.48393e-08
8.56937e-08
8.67337e-08
7.45564e-08
8.69386e-08
7.45863e-08
8.5176e-08
7.42357e-08
8.67296e-08
8.52225e-08
8.71544e-08
7.46015e-08
8.67598e-08
7.42259e-08
7.58642e-08
8.66612e-08
7.46659e-08
8.67231e-08
7.43609e-08
8.51642e-08
7.46245e-08
8.66274e-08
7.43873e-08
8.69347e-08
7.51169e-08
7.56822e-08
7.41285e-08
8.53596e-08
7.47917e-08
7.5746e-08
8.71832e-08
7.41765e-08
8.69889e-08
7.59085e-08
8.02019e-08
8.58139e-08
8.58113e-08
8.70582e-08
8.69221e-08
8.69472e-08
7.47922e-08
7.44361e-08
8.67887e-08
8.59639e-08
7.45659e-08
7.568e-08
8.698e-08
8.60671e-08
7.47726e-08
8.56655e-08
8.68652e-08
8.70136e-08
7.43943e-08
8.5634e-08
8.60029e-08
7.44437e-08
8.69659e-08
8.71774e-08
7.45691e-08
7.57476e-08
8.69485e-08
8.71623e-08
8.68943e-08
8.70684e-08
8.69237e-08
7.51183e-08
8.70928e-08
7.4609e-08
7.46358e-08
7.45152e-08
7.47632e-08
8.69449e-08
8.68811e-08
7.59414e-08
8.51134e-08
8.62584e-08
7.46048e-08
8.52407e-08
8.52638e-08
7.41098e-08
7.30967e-08
8.49738e-08
8.72591e-08
7.43873e-08
7.56412e-08
7.38012e-08
8.49006e-08
7.40931e-08
7.58396e-08
7.47798e-08
7.58926e-08
8.53204e-08
8.60471e-08
8.59564e-08
8.69738e-08
8.69229e-08
8.82897e-08
7.55963e-08
8.49949e-08
7.4675e-08
7.46276e-08
8.70129e-08
7.41631e-08
8.59487e-08
8.57476e-08
7.56984e-08
8.68839e-08
7.56516e-08
8.54586e-08
7.43254e-08
8.51583e-08
7.42742e-08
8.56765e-08
7.53117e-08
8.70302e-08
8.6121e-08
7.4831e-08
8.58022e-08
8.58052e-08
7.57958e-08
7.45975e-08
7.40463e-08
8.51616e-08
8.50003e-08
7.45505e-08
7.46381e-08
8.60583e-08
8.58559e-08
8.58576e-08
7.58628e-08
8.59203e-08
7.57108e-08
8.71955e-08
8.59374e-08
8.56691e-08
7.54203e-08
8.69422e-08
5.80506e-08
7.49848e-08
8.54963e-08
8.68713e-08
7.45077e-08
8.61679e-08
7.57697e-08
7.58484e-08
7.5573e-08
5.85661e-08
8.67867e-08
8.50433e-08
8.59959e-08
7.5499e-08
7.38839e-08
8.52005e-08
7.57227e-08
7.38235e-08
8.54884e-08
5.75534e-08
7.43451e-08
7.40501e-08
7.39326e-08
7.27102e-08
8.5999e-08
7.95648e-08
7.40609e-08
8.55871e-08
8.56406e-08
7.53666e-08
8.57599e-08
8.50914e-08
8.57536e-08
8.51301e-08
7.39904e-08
7.39029e-08
8.53932e-08
7.44624e-08
7.40602e-08
8.68018e-08
8.51597e-08
7.57314e-08
8.58669e-08
7.42855e-08
7.5482e-08
8.53193e-08
8.59004e-08
7.5433e-08
8.58731e-08
7.53617e-08
8.71284e-08
8.52915e-08
8.62408e-08
8.51572e-08
7.56113e-08
7.61077e-08
7.53949e-08
8.54568e-08
7.55479e-08
8.60265e-08
7.40739e-08
7.41036e-08
7.56866e-08
8.55207e-08
8.60608e-08
8.51308e-08
8.56991e-08
8.55587e-08
8.58057e-08
7.36705e-08
8.52873e-08
8.69423e-08
7.4039e-08
7.35221e-08
8.49294e-08
8.49633e-08
7.38042e-08
7.3642e-08
8.50634e-08
8.62082e-08
7.55465e-08
8.70354e-08
8.57371e-08
8.56508e-08
7.38655e-08
8.7046e-08
7.38656e-08
8.51376e-08
8.61121e-08
7.56718e-08
7.62776e-08
7.47125e-08
7.47775e-08
7.47743e-08
7.55915e-08
7.49069e-08
7.36785e-08
8.69468e-08
7.44616e-08
7.41624e-08
7.39681e-08
8.50413e-08
8.60039e-08
7.64868e-08
7.59263e-08
7.40187e-08
7.446e-08
8.63577e-08
8.52801e-08
8.5842e-08
7.52601e-08
7.43033e-08
7.53402e-08
7.58801e-08
7.39574e-08
8.56445e-08
7.5006e-08
7.47282e-08
8.7128e-08
8.52503e-08
7.45615e-08
7.40126e-08
8.50915e-08
7.42955e-08
7.57686e-08
8.59712e-08
8.58416e-08
7.45293e-08
7.59675e-08
7.46803e-08
7.46954e-08
7.44785e-08
7.5793e-08
7.39971e-08
8.5241e-08
8.56077e-08
8.51627e-08
7.45364e-08
8.53381e-08
8.50371e-08
7.39431e-08
7.47027e-08
7.39567e-08
8.61965e-08
7.39023e-08
7.5476e-08
7.58479e-08
8.51709e-08
7.53435e-08
7.42021e-08
8.68997e-08
8.68378e-08
7.42159e-08
8.63888e-08
8.56211e-08
8.74669e-08
8.69108e-08
8.70164e-08
7.47651e-08
8.55448e-08
8.73702e-08
8.7234e-08
8.59895e-08
7.47075e-08
7.55023e-08
8.72249e-08
7.44808e-08
7.4918e-08
7.45698e-08
8.71e-08
7.38549e-08
8.50024e-08
8.52312e-08
7.5909e-08
7.57629e-08
8.58091e-08
7.57122e-08
8.58995e-08
8.58331e-08
7.56584e-08
8.59773e-08
8.60456e-08
7.56314e-08
8.58946e-08
8.62956e-08
7.63433e-08
8.63211e-08
7.54346e-08
8.60039e-08
7.62078e-08
8.60332e-08
7.59268e-08
8.58899e-08
7.5874e-08
8.62642e-08
8.61137e-08
7.5555e-08
8.5798e-08
7.60684e-08
8.59887e-08
7.60848e-08
8.59318e-08
7.58367e-08
7.55764e-08
7.60217e-08
8.59704e-08
8.5915e-08
7.58743e-08
8.58523e-08
7.5395e-08
7.57598e-08
8.57784e-08
7.55425e-08
7.55604e-08
8.59368e-08
8.55613e-08
7.54254e-08
8.57325e-08
7.58889e-08
8.59209e-08
7.56841e-08
8.57711e-08
7.56881e-08
7.55235e-08
7.54855e-08
8.567e-08
8.58462e-08
7.59315e-08
7.57713e-08
8.62167e-08
7.5543e-08
7.31381e-08
8.72202e-08
7.49452e-08
7.46016e-08
7.5848e-08
8.60193e-08
7.61854e-08
8.58614e-08
7.57478e-08
8.59831e-08
7.56635e-08
8.5853e-08
7.58061e-08
8.56835e-08
7.57437e-08
8.60107e-08
7.57327e-08
8.56959e-08
7.59897e-08
8.59258e-08
7.57493e-08
8.59417e-08
7.58573e-08
8.60861e-08
7.59561e-08
8.58537e-08
7.59992e-08
8.6136e-08
7.60213e-08
8.62483e-08
7.62652e-08
8.6341e-08
7.63025e-08
8.6114e-08
7.63343e-08
8.61315e-08
7.54702e-08
8.59593e-08
7.61909e-08
8.60788e-08
7.5872e-08
8.59405e-08
7.5982e-08
8.60245e-08
7.58054e-08
8.58898e-08
7.59911e-08
8.60072e-08
7.59668e-08
8.61101e-08
7.57773e-08
8.61388e-08
7.5772e-08
8.57567e-08
7.62638e-08
8.60774e-08
7.58469e-08
8.57864e-08
7.55362e-08
8.60988e-08
7.60195e-08
8.59093e-08
7.59606e-08
8.58143e-08
7.59857e-08
8.59477e-08
7.59097e-08
8.58419e-08
7.58275e-08
8.5922e-08
7.57442e-08
8.5848e-08
7.56843e-08
8.59002e-08
7.59324e-08
8.58907e-08
7.56647e-08
8.57737e-08
7.59617e-08
8.57898e-08
7.53813e-08
8.56092e-08
7.58196e-08
8.56794e-08
7.55885e-08
8.61509e-08
7.61314e-08
8.58267e-08
7.57452e-08
8.57638e-08
7.55997e-08
8.56876e-08
7.54239e-08
8.54565e-08
7.55738e-08
8.55467e-08
7.56302e-08
8.5648e-08
7.57248e-08
8.59126e-08
7.56704e-08
8.57825e-08
7.59268e-08
8.5689e-08
7.55869e-08
8.60423e-08
7.58783e-08
8.59886e-08
7.60346e-08
8.58433e-08
7.58114e-08
8.58758e-08
7.56995e-08
8.58678e-08
7.57801e-08
8.56188e-08
7.55465e-08
8.57916e-08
7.58944e-08
8.57616e-08
7.57269e-08
8.58122e-08
7.56491e-08
8.57486e-08
7.58234e-08
8.58467e-08
7.60007e-08
8.5801e-08
7.57157e-08
8.60155e-08
7.54488e-08
8.64502e-08
7.54923e-08
8.53024e-08
7.43114e-08
8.00057e-08
7.29545e-08
5.81617e-08
7.565e-08
8.61552e-08
7.61072e-08
8.59246e-08
7.58248e-08
8.58394e-08
7.54671e-08
8.59172e-08
7.59504e-08
8.57965e-08
7.56555e-08
8.59158e-08
7.57107e-08
8.5835e-08
7.58668e-08
8.59442e-08
7.60009e-08
8.60007e-08
7.58195e-08
8.61578e-08
7.61339e-08
8.60314e-08
7.61323e-08
8.60437e-08
7.58873e-08
8.61178e-08
7.60234e-08
8.65155e-08
7.61926e-08
8.61588e-08
7.63748e-08
8.59477e-08
7.55502e-08
8.60482e-08
7.60893e-08
8.60232e-08
7.59552e-08
8.60089e-08
7.59927e-08
8.59706e-08
7.57431e-08
8.60348e-08
7.58331e-08
8.60807e-08
7.61419e-08
8.59585e-08
7.57559e-08
8.61391e-08
7.56752e-08
8.57326e-08
7.60425e-08
8.59426e-08
7.5925e-08
8.58696e-08
7.55894e-08
8.60877e-08
7.6077e-08
8.61404e-08
7.57822e-08
8.59409e-08
7.63727e-08
8.60132e-08
7.58902e-08
8.5796e-08
7.57876e-08
8.59589e-08
7.58167e-08
8.58207e-08
7.56018e-08
8.59986e-08
7.58205e-08
8.5942e-08
7.57407e-08
8.59323e-08
7.59514e-08
8.59096e-08
7.56424e-08
8.56407e-08
7.56556e-08
8.57713e-08
7.55992e-08
8.62671e-08
7.6238e-08
8.5796e-08
7.58533e-08
8.58853e-08
7.57436e-08
8.57012e-08
7.55229e-08
8.57205e-08
7.54365e-08
8.57356e-08
7.58382e-08
8.5676e-08
7.5793e-08
8.57768e-08
7.55012e-08
8.59132e-08
7.59125e-08
8.57321e-08
7.56429e-08
8.57827e-08
7.58201e-08
8.62157e-08
7.60364e-08
8.5853e-08
7.5917e-08
8.58189e-08
7.55906e-08
8.57729e-08
7.56266e-08
8.57211e-08
7.55814e-08
8.57399e-08
7.57696e-08
8.57856e-08
7.57387e-08
8.56708e-08
7.55954e-08
8.58244e-08
7.57374e-08
8.59098e-08
7.58729e-08
8.58651e-08
7.56998e-08
8.58013e-08
7.54868e-08
8.63662e-08
7.55345e-08
8.55487e-08
7.44055e-08
8.00733e-08
7.29737e-08
5.83318e-08
7.57554e-08
8.59535e-08
7.60197e-08
8.60734e-08
7.59514e-08
8.58323e-08
7.5617e-08
8.5895e-08
7.58884e-08
8.58966e-08
7.57361e-08
8.58937e-08
7.57918e-08
8.59466e-08
7.56826e-08
8.59727e-08
7.59865e-08
8.5969e-08
7.58667e-08
8.60164e-08
7.6076e-08
8.60956e-08
7.61057e-08
8.6083e-08
7.59617e-08
8.60477e-08
7.58979e-08
8.62477e-08
7.60825e-08
8.62272e-08
7.6261e-08
8.57761e-08
7.56043e-08
8.60446e-08
7.58138e-08
8.60241e-08
7.60365e-08
8.60682e-08
7.59502e-08
8.58489e-08
7.58483e-08
8.59814e-08
7.57692e-08
8.61037e-08
7.61238e-08
8.59585e-08
7.57617e-08
8.58367e-08
7.55942e-08
8.59745e-08
7.5768e-08
8.57156e-08
7.59356e-08
8.59939e-08
7.55879e-08
8.6071e-08
7.60996e-08
8.62388e-08
7.57614e-08
8.59384e-08
7.77508e-08
8.60333e-08
7.58246e-08
8.58619e-08
7.59277e-08
8.59752e-08
7.58929e-08
8.59453e-08
7.56008e-08
8.59707e-08
7.58577e-08
8.59501e-08
7.59997e-08
8.59327e-08
7.59039e-08
8.59435e-08
7.57034e-08
8.56063e-08
7.55755e-08
8.56234e-08
7.55739e-08
8.57744e-08
7.61562e-08
8.57336e-08
7.57054e-08
8.57383e-08
7.565e-08
8.56916e-08
7.57503e-08
8.55938e-08
7.54032e-08
8.55726e-08
7.54514e-08
8.57476e-08
7.60357e-08
8.56022e-08
7.55204e-08
8.58507e-08
7.55374e-08
8.58868e-08
7.56678e-08
8.5621e-08
7.58082e-08
8.62425e-08
7.59185e-08
8.58091e-08
7.59548e-08
8.58476e-08
7.56624e-08
8.57771e-08
7.57288e-08
8.58399e-08
7.55732e-08
8.57142e-08
7.56572e-08
8.57093e-08
7.57026e-08
8.56186e-08
7.5524e-08
8.5715e-08
7.57299e-08
8.59248e-08
7.60033e-08
8.59539e-08
7.57098e-08
8.60351e-08
7.56173e-08
8.63692e-08
7.55491e-08
8.56393e-08
7.45738e-08
8.00969e-08
7.30547e-08
5.82082e-08
7.57193e-08
8.59729e-08
7.61328e-08
8.59738e-08
7.59143e-08
8.59603e-08
7.57641e-08
8.57056e-08
7.58412e-08
8.59657e-08
7.56919e-08
8.5915e-08
7.58482e-08
8.59158e-08
7.56942e-08
8.57889e-08
7.57695e-08
8.60486e-08
7.58614e-08
8.59837e-08
7.60819e-08
8.60798e-08
7.61033e-08
8.60279e-08
7.60506e-08
8.63017e-08
7.59086e-08
8.60673e-08
7.60442e-08
8.63463e-08
7.61365e-08
8.59193e-08
7.58009e-08
8.58551e-08
7.57152e-08
8.60647e-08
7.6042e-08
8.60277e-08
7.59656e-08
8.60604e-08
7.59067e-08
8.59889e-08
7.5822e-08
8.59771e-08
7.60284e-08
8.60315e-08
7.58677e-08
8.57802e-08
7.56072e-08
8.60342e-08
7.56876e-08
8.56471e-08
7.587e-08
8.58037e-08
7.56306e-08
8.60495e-08
7.61932e-08
8.62179e-08
7.5855e-08
8.61592e-08
7.6012e-08
8.61378e-08
7.58891e-08
8.61424e-08
7.57771e-08
8.57286e-08
7.59056e-08
8.6084e-08
7.57328e-08
8.60234e-08
7.58946e-08
8.59725e-08
7.60067e-08
8.60172e-08
7.59348e-08
8.58965e-08
7.57501e-08
8.57547e-08
7.53499e-08
8.54648e-08
7.56621e-08
8.57722e-08
7.55183e-08
8.5809e-08
7.57201e-08
8.56492e-08
7.54796e-08
8.5837e-08
7.58538e-08
8.57252e-08
7.56208e-08
8.55105e-08
7.5278e-08
8.57247e-08
7.59254e-08
8.5678e-08
7.57563e-08
8.55767e-08
7.55446e-08
8.60104e-08
7.5768e-08
8.58039e-08
7.58244e-08
8.62282e-08
7.61597e-08
8.58374e-08
7.58013e-08
8.57301e-08
7.56438e-08
8.57012e-08
7.56397e-08
8.58105e-08
7.56589e-08
8.57878e-08
7.55313e-08
8.55778e-08
7.56853e-08
8.57256e-08
7.5674e-08
8.55842e-08
7.56083e-08
8.60066e-08
7.60823e-08
8.59655e-08
7.57754e-08
8.61062e-08
7.55615e-08
8.61727e-08
7.5412e-08
8.56063e-08
7.45215e-08
8.0098e-08
7.29374e-08
5.80218e-08
7.56206e-08
8.61825e-08
7.61505e-08
8.60135e-08
7.59545e-08
8.60936e-08
7.57939e-08
8.57879e-08
7.58471e-08
8.5799e-08
7.56603e-08
8.59117e-08
7.58122e-08
8.59314e-08
7.57659e-08
8.56152e-08
7.55838e-08
8.60497e-08
7.57906e-08
8.61111e-08
7.59275e-08
8.6021e-08
7.60877e-08
8.60371e-08
7.60544e-08
8.62388e-08
7.60163e-08
8.62653e-08
7.62201e-08
8.61248e-08
7.60306e-08
8.62237e-08
7.59103e-08
8.59233e-08
7.57046e-08
8.60214e-08
7.60589e-08
8.59461e-08
7.59457e-08
8.60222e-08
7.586e-08
8.60828e-08
7.5746e-08
8.59377e-08
7.60611e-08
8.59963e-08
7.5975e-08
8.5654e-08
7.55191e-08
8.59914e-08
7.57302e-08
8.57732e-08
7.5836e-08
8.5825e-08
7.57306e-08
8.59808e-08
7.61178e-08
8.60791e-08
7.60757e-08
8.61885e-08
7.5902e-08
8.59392e-08
7.57816e-08
8.59077e-08
7.57338e-08
8.56958e-08
7.57886e-08
8.6119e-08
7.60302e-08
8.61102e-08
7.59679e-08
8.59179e-08
7.58745e-08
8.60892e-08
7.59504e-08
8.56997e-08
7.56937e-08
8.5842e-08
7.53314e-08
8.56204e-08
7.57849e-08
8.55572e-08
7.56497e-08
8.60038e-08
7.58108e-08
8.56869e-08
7.53812e-08
8.57468e-08
7.57646e-08
8.57122e-08
7.57123e-08
8.56993e-08
7.54253e-08
8.55415e-08
7.55757e-08
8.57409e-08
7.57701e-08
8.56543e-08
7.55692e-08
8.57886e-08
7.57406e-08
8.57523e-08
7.55233e-08
8.61652e-08
7.63252e-08
8.59668e-08
7.57459e-08
8.57858e-08
7.55668e-08
8.56384e-08
7.55959e-08
8.56376e-08
7.55903e-08
8.57029e-08
7.55876e-08
8.56351e-08
7.56228e-08
8.59015e-08
7.5813e-08
8.57977e-08
7.57517e-08
8.59451e-08
7.59967e-08
8.60718e-08
7.57899e-08
8.60335e-08
7.56366e-08
8.61391e-08
7.53373e-08
8.57706e-08
7.46021e-08
7.99499e-08
7.2791e-08
5.81116e-08
7.6089e-08
8.61191e-08
7.61191e-08
8.60317e-08
7.57417e-08
8.59376e-08
7.57647e-08
8.58591e-08
7.57786e-08
8.57595e-08
7.57389e-08
8.58632e-08
7.577e-08
8.57245e-08
7.56268e-08
8.58327e-08
7.58851e-08
8.6104e-08
7.57653e-08
8.61596e-08
7.62443e-08
8.62675e-08
7.60591e-08
8.60828e-08
7.59379e-08
8.63933e-08
7.64014e-08
8.60905e-08
7.59509e-08
8.5999e-08
7.60147e-08
8.60942e-08
7.56017e-08
8.59342e-08
7.58959e-08
8.59748e-08
7.59118e-08
8.60252e-08
7.59908e-08
8.61207e-08
7.56743e-08
8.59629e-08
7.60068e-08
8.59302e-08
7.59284e-08
8.55843e-08
7.52836e-08
8.57593e-08
7.57671e-08
8.58483e-08
7.57933e-08
8.59944e-08
7.58949e-08
8.58384e-08
7.58689e-08
8.59827e-08
7.60074e-08
8.60626e-08
7.58145e-08
8.60446e-08
7.56583e-08
8.5743e-08
7.5973e-08
8.57421e-08
7.56248e-08
8.61525e-08
7.61708e-08
8.59794e-08
7.59269e-08
8.585e-08
7.568e-08
8.60339e-08
7.57143e-08
8.56433e-08
7.57265e-08
8.5722e-08
7.53315e-08
8.58062e-08
7.57442e-08
8.56032e-08
7.57305e-08
8.59345e-08
7.59827e-08
8.58661e-08
7.5384e-08
8.5702e-08
7.57203e-08
8.55441e-08
7.55357e-08
8.58003e-08
7.5569e-08
8.5742e-08
7.58421e-08
8.55168e-08
7.56001e-08
8.57583e-08
7.55804e-08
8.58689e-08
7.59306e-08
8.56432e-08
7.52948e-08
8.59749e-08
7.6287e-08
8.60361e-08
7.59425e-08
8.58021e-08
7.53962e-08
8.55935e-08
7.56108e-08
8.56639e-08
7.55481e-08
8.57778e-08
7.57024e-08
8.57658e-08
7.56522e-08
8.5737e-08
7.579e-08
8.60136e-08
7.58937e-08
8.58008e-08
7.58527e-08
8.60758e-08
7.59376e-08
8.59098e-08
7.57359e-08
8.60534e-08
7.5141e-08
8.58706e-08
7.46422e-08
8.00341e-08
7.26309e-08
5.7931e-08
7.6296e-08
8.59957e-08
7.57999e-08
8.58704e-08
7.55597e-08
8.59771e-08
7.57158e-08
8.57725e-08
7.58368e-08
8.57895e-08
7.57432e-08
8.59282e-08
7.57066e-08
8.58185e-08
7.59226e-08
8.59932e-08
7.57405e-08
8.6272e-08
7.62545e-08
8.64357e-08
7.6269e-08
8.61275e-08
7.58447e-08
8.6381e-08
7.6398e-08
8.63533e-08
7.60931e-08
8.59499e-08
7.60026e-08
8.60248e-08
7.57292e-08
8.5891e-08
7.58633e-08
8.58982e-08
7.57707e-08
8.61418e-08
7.62179e-08
8.61479e-08
7.56976e-08
8.58997e-08
7.57597e-08
8.59433e-08
7.61532e-08
8.56818e-08
7.51143e-08
8.56836e-08
7.58119e-08
8.57938e-08
7.57624e-08
8.61871e-08
7.60318e-08
8.59983e-08
7.587e-08
8.59854e-08
7.59246e-08
8.5959e-08
7.58867e-08
8.62654e-08
7.5693e-08
8.58607e-08
7.59244e-08
8.58244e-08
7.55381e-08
8.5976e-08
7.63937e-08
8.602e-08
7.59015e-08
8.58309e-08
7.56832e-08
8.57538e-08
7.57177e-08
8.58254e-08
7.57515e-08
8.56484e-08
7.53496e-08
8.57681e-08
7.56911e-08
8.57816e-08
7.57256e-08
8.57058e-08
7.59071e-08
8.59596e-08
7.55246e-08
8.58821e-08
7.568e-08
8.55014e-08
7.54457e-08
8.5501e-08
7.54508e-08
8.60406e-08
7.59212e-08
8.54457e-08
7.54326e-08
8.55956e-08
7.55699e-08
8.57866e-08
7.59926e-08
8.58228e-08
7.52396e-08
8.58718e-08
7.60442e-08
8.60075e-08
7.61468e-08
8.56442e-08
7.53446e-08
8.55308e-08
7.54274e-08
8.54928e-08
7.56199e-08
8.56923e-08
7.54756e-08
8.5952e-08
7.56973e-08
8.5572e-08
7.5725e-08
8.59899e-08
7.58169e-08
8.57834e-08
7.56157e-08
8.59807e-08
7.59672e-08
8.59514e-08
7.5824e-08
8.60614e-08
7.51365e-08
8.56915e-08
7.46014e-08
8.01247e-08
7.27151e-08
5.81108e-08
7.61706e-08
8.60455e-08
7.58742e-08
8.58379e-08
7.56882e-08
8.58133e-08
7.57501e-08
8.59741e-08
7.58011e-08
8.5788e-08
7.5834e-08
8.59477e-08
7.57271e-08
8.59316e-08
7.60149e-08
8.57968e-08
7.56715e-08
8.6028e-08
7.59945e-08
8.65356e-08
7.64618e-08
8.6304e-08
7.59864e-08
8.62795e-08
7.63072e-08
8.63166e-08
7.59886e-08
8.59475e-08
7.59257e-08
8.60779e-08
7.58997e-08
8.59803e-08
7.58368e-08
8.58381e-08
7.56817e-08
8.59423e-08
7.60515e-08
8.60928e-08
7.58338e-08
8.57862e-08
7.56227e-08
8.59089e-08
7.62909e-08
8.57963e-08
7.52543e-08
8.58051e-08
7.54408e-08
8.58027e-08
7.60064e-08
8.58604e-08
7.59962e-08
8.62288e-08
7.59247e-08
8.60009e-08
7.56855e-08
8.59412e-08
7.59555e-08
8.60931e-08
7.58652e-08
8.59437e-08
7.5748e-08
8.60187e-08
7.53345e-08
8.59013e-08
7.6301e-08
8.60342e-08
7.59495e-08
8.59224e-08
7.56818e-08
8.54909e-08
7.55943e-08
8.59402e-08
7.58784e-08
8.57519e-08
7.54093e-08
8.56669e-08
7.54923e-08
8.58041e-08
7.56948e-08
8.56861e-08
7.58127e-08
8.59014e-08
7.57122e-08
8.55701e-08
7.55105e-08
8.59253e-08
7.56013e-08
8.55057e-08
7.55043e-08
8.59125e-08
7.60292e-08
8.57651e-08
7.55474e-08
8.56503e-08
7.54741e-08
8.56235e-08
7.5783e-08
8.58049e-08
7.54965e-08
8.60005e-08
7.56958e-08
8.58271e-08
7.60262e-08
8.57804e-08
7.54998e-08
8.56175e-08
7.54016e-08
8.56854e-08
7.58057e-08
8.55328e-08
7.53826e-08
8.59448e-08
7.57444e-08
8.57395e-08
7.58283e-08
8.58444e-08
7.58533e-08
8.59058e-08
7.54311e-08
8.56505e-08
7.58062e-08
8.59916e-08
7.58694e-08
8.63002e-08
7.51744e-08
8.55695e-08
7.43993e-08
7.98778e-08
7.29682e-08
5.81073e-08
7.61684e-08
8.6014e-08
7.58259e-08
8.59713e-08
7.57585e-08
8.58775e-08
7.5911e-08
8.59184e-08
7.57747e-08
8.58763e-08
7.58574e-08
8.56941e-08
7.56491e-08
8.61594e-08
7.59896e-08
8.59228e-08
7.5829e-08
8.58166e-08
7.57722e-08
8.62594e-08
7.6377e-08
8.63522e-08
7.60369e-08
8.6446e-08
7.63289e-08
8.60695e-08
7.59322e-08
8.60259e-08
7.58581e-08
8.59589e-08
7.60753e-08
8.6051e-08
7.57678e-08
8.60402e-08
7.58076e-08
8.58382e-08
7.57887e-08
8.60467e-08
7.59089e-08
8.59534e-08
7.56579e-08
8.56926e-08
7.59703e-08
8.57898e-08
7.57702e-08
8.58479e-08
7.53566e-08
8.60677e-08
7.58209e-08
8.5627e-08
7.58365e-08
8.61146e-08
7.60976e-08
8.60312e-08
7.56251e-08
8.61285e-08
7.60708e-08
8.59885e-08
7.59147e-08
8.58381e-08
7.58827e-08
8.58617e-08
7.55831e-08
8.591e-08
7.63893e-08
8.66175e-08
7.59075e-08
8.60532e-08
7.59774e-08
8.56298e-08
7.54135e-08
8.55756e-08
7.57579e-08
8.58211e-08
7.56129e-08
8.56766e-08
7.54573e-08
8.57408e-08
7.56952e-08
8.58477e-08
7.55936e-08
8.60113e-08
7.60026e-08
8.54515e-08
7.53981e-08
8.58117e-08
7.55579e-08
8.58233e-08
7.55002e-08
8.56142e-08
7.60391e-08
8.59819e-08
7.56448e-08
8.57649e-08
7.55361e-08
8.56451e-08
7.55488e-08
8.56535e-08
7.56968e-08
8.6268e-08
7.56997e-08
8.57095e-08
7.58786e-08
8.58796e-08
7.56163e-08
8.57558e-08
7.55801e-08
8.59104e-08
7.60113e-08
8.57405e-08
7.54535e-08
8.57717e-08
7.5723e-08
8.59093e-08
7.57535e-08
8.5778e-08
7.58478e-08
8.60024e-08
7.55e-08
8.55937e-08
7.56856e-08
8.58794e-08
7.59194e-08
8.63259e-08
7.5336e-08
8.57173e-08
7.41753e-08
8.00452e-08
7.31799e-08
5.80074e-08
7.6197e-08
8.5807e-08
7.57447e-08
8.58704e-08
7.5552e-08
8.60404e-08
7.5963e-08
8.58445e-08
7.56978e-08
8.595e-08
7.57507e-08
8.56082e-08
7.57045e-08
8.59357e-08
7.5964e-08
8.61573e-08
7.59727e-08
8.5962e-08
7.57766e-08
8.6058e-08
7.62999e-08
8.61084e-08
7.60153e-08
8.65332e-08
7.62359e-08
8.62586e-08
7.60651e-08
8.61141e-08
7.56145e-08
8.6012e-08
7.62643e-08
8.58693e-08
7.57521e-08
8.6098e-08
7.58376e-08
8.60233e-08
7.59597e-08
8.58597e-08
7.57893e-08
8.62425e-08
7.58119e-08
8.5905e-08
7.58605e-08
8.58512e-08
7.59763e-08
8.57639e-08
7.56117e-08
8.60298e-08
7.57315e-08
8.58724e-08
7.58432e-08
8.60379e-08
7.61291e-08
8.60655e-08
7.56841e-08
8.61165e-08
7.59498e-08
8.60105e-08
7.61327e-08
8.57526e-08
7.5772e-08
8.64359e-08
7.62697e-08
8.64764e-08
7.63004e-08
8.60088e-08
7.6023e-08
8.61511e-08
7.60923e-08
8.60305e-08
7.55303e-08
8.55413e-08
7.56261e-08
8.57353e-08
7.57144e-08
8.57021e-08
7.55377e-08
8.56557e-08
7.56514e-08
8.58404e-08
7.55332e-08
8.59635e-08
7.6162e-08
8.57758e-08
7.55998e-08
8.55885e-08
7.54181e-08
8.59502e-08
7.5415e-08
8.55709e-08
7.60257e-08
8.57211e-08
7.56254e-08
8.59049e-08
7.57582e-08
8.58521e-08
7.55224e-08
8.55311e-08
7.57786e-08
8.62538e-08
7.59433e-08
8.58486e-08
7.58461e-08
8.5866e-08
7.57074e-08
8.57851e-08
7.55014e-08
8.57426e-08
7.5941e-08
8.58893e-08
7.55978e-08
8.57611e-08
7.58163e-08
8.584e-08
7.56392e-08
8.57275e-08
7.57721e-08
8.58295e-08
7.55932e-08
8.58365e-08
7.55041e-08
8.5692e-08
7.57729e-08
8.62914e-08
7.55752e-08
8.57059e-08
7.40249e-08
8.01034e-08
7.33432e-08
5.79524e-08
7.61788e-08
8.60929e-08
7.59132e-08
8.57437e-08
7.55436e-08
8.59652e-08
7.604e-08
8.59825e-08
7.56477e-08
8.58691e-08
7.57471e-08
8.58001e-08
7.57755e-08
8.57725e-08
7.58058e-08
8.59349e-08
7.60173e-08
8.61568e-08
7.57451e-08
8.61897e-08
7.62695e-08
8.61048e-08
7.61583e-08
8.63485e-08
7.62882e-08
8.63233e-08
7.60227e-08
8.60096e-08
7.54725e-08
8.60944e-08
7.62465e-08
8.59568e-08
7.59108e-08
8.58872e-08
7.5695e-08
8.63095e-08
7.60187e-08
8.57319e-08
7.57971e-08
8.59087e-08
7.57884e-08
8.61093e-08
7.60322e-08
8.58807e-08
7.59105e-08
8.58458e-08
7.56775e-08
8.57484e-08
7.57528e-08
8.60023e-08
7.56532e-08
8.58534e-08
7.60712e-08
8.60008e-08
7.58373e-08
8.60414e-08
7.59621e-08
8.62291e-08
7.6135e-08
8.59258e-08
7.57372e-08
8.58985e-08
7.59012e-08
8.66323e-08
7.65148e-08
8.60122e-08
7.59683e-08
8.58848e-08
7.60344e-08
8.60683e-08
7.56114e-08
8.56997e-08
7.56534e-08
8.55174e-08
7.56536e-08
8.57652e-08
7.55834e-08
8.56046e-08
7.55477e-08
8.58065e-08
7.5416e-08
8.56142e-08
7.5901e-08
8.60658e-08
7.57283e-08
8.55662e-08
7.56091e-08
8.5761e-08
7.53658e-08
8.58252e-08
7.59804e-08
8.56949e-08
7.5646e-08
8.5718e-08
7.56712e-08
8.58873e-08
7.55568e-08
8.56714e-08
7.57286e-08
8.59923e-08
7.61108e-08
8.60444e-08
7.56254e-08
8.58326e-08
7.59447e-08
8.58545e-08
7.54502e-08
8.55472e-08
7.56644e-08
8.58242e-08
7.56122e-08
8.58435e-08
7.58083e-08
8.57776e-08
7.56419e-08
8.56794e-08
7.5623e-08
8.55071e-08
7.5678e-08
8.59067e-08
7.54242e-08
8.57184e-08
7.56731e-08
8.61005e-08
7.56968e-08
8.55771e-08
7.37353e-08
8.01596e-08
7.33146e-08
5.79839e-08
7.63004e-08
8.60294e-08
7.56002e-08
8.58791e-08
7.60054e-08
8.59131e-08
7.56905e-08
8.57853e-08
7.57131e-08
8.58715e-08
7.57559e-08
8.58991e-08
7.58157e-08
8.58449e-08
7.60561e-08
8.61528e-08
7.59077e-08
8.64726e-08
7.61712e-08
8.61352e-08
7.60553e-08
8.60718e-08
7.60946e-08
8.61751e-08
7.62308e-08
8.6054e-08
7.5613e-08
8.61905e-08
7.60795e-08
8.60842e-08
7.60574e-08
8.57416e-08
7.56494e-08
8.61506e-08
7.59836e-08
8.60449e-08
7.59259e-08
8.58318e-08
7.57255e-08
8.61188e-08
7.5892e-08
8.58502e-08
7.59409e-08
8.59273e-08
7.57659e-08
8.5674e-08
7.57185e-08
8.59838e-08
7.56584e-08
8.59577e-08
7.60466e-08
8.59956e-08
7.59037e-08
8.60219e-08
7.59213e-08
8.61867e-08
7.61182e-08
8.60605e-08
7.57982e-08
8.57827e-08
7.59092e-08
8.66157e-08
7.63222e-08
8.60814e-08
7.58833e-08
8.59393e-08
7.60838e-08
8.58539e-08
7.55862e-08
8.59161e-08
7.55252e-08
8.5556e-08
7.56812e-08
8.56616e-08
7.55778e-08
8.57279e-08
7.56233e-08
8.58881e-08
7.55413e-08
8.55452e-08
7.57055e-08
8.58489e-08
7.5755e-08
8.59411e-08
7.59435e-08
8.54821e-08
7.54936e-08
8.59547e-08
7.56679e-08
8.57745e-08
7.5731e-08
8.56141e-08
7.55544e-08
8.56826e-08
7.55038e-08
8.58149e-08
7.5767e-08
8.59732e-08
7.61871e-08
8.6108e-08
7.57083e-08
8.58455e-08
7.59656e-08
8.59145e-08
7.56682e-08
8.56144e-08
7.54054e-08
8.5695e-08
7.56285e-08
8.5848e-08
7.58235e-08
8.58391e-08
7.55752e-08
8.579e-08
7.56622e-08
8.55621e-08
7.56513e-08
8.57006e-08
7.54319e-08
8.58373e-08
7.54276e-08
8.60554e-08
7.58159e-08
8.56691e-08
7.38222e-08
8.002e-08
7.32053e-08
5.81518e-08
7.63219e-08
8.62507e-08
7.5732e-08
8.59991e-08
7.59176e-08
8.59091e-08
7.58224e-08
8.5855e-08
7.56813e-08
8.5696e-08
7.55913e-08
8.61317e-08
7.59162e-08
8.59535e-08
7.60732e-08
8.61722e-08
7.6021e-08
8.64073e-08
7.62211e-08
8.61781e-08
7.60585e-08
8.5992e-08
7.5801e-08
8.62381e-08
7.64365e-08
8.61097e-08
7.58411e-08
8.61694e-08
7.60291e-08
8.60466e-08
7.59855e-08
8.59352e-08
7.5731e-08
8.59278e-08
7.60538e-08
8.61345e-08
7.59144e-08
8.59154e-08
7.57329e-08
8.59708e-08
7.58774e-08
8.60851e-08
7.60189e-08
8.59987e-08
7.58523e-08
8.58385e-08
7.57649e-08
8.5857e-08
7.5773e-08
8.59631e-08
7.59029e-08
8.602e-08
7.59579e-08
8.61172e-08
7.59031e-08
8.61511e-08
7.61303e-08
8.67531e-08
7.58022e-08
8.57969e-08
7.58562e-08
8.58319e-08
7.60534e-08
8.59978e-08
7.57499e-08
8.61476e-08
7.62428e-08
8.57436e-08
7.56226e-08
8.58843e-08
7.55625e-08
8.57472e-08
7.56852e-08
8.60181e-08
7.55091e-08
8.62107e-08
7.60205e-08
8.57148e-08
7.5666e-08
8.57967e-08
7.57044e-08
8.57196e-08
7.56755e-08
8.61281e-08
7.60123e-08
8.56461e-08
7.56947e-08
8.56154e-08
7.56141e-08
8.64319e-08
7.56894e-08
8.57281e-08
7.56566e-08
8.56224e-08
7.53714e-08
8.5864e-08
7.58218e-08
8.60485e-08
7.61846e-08
8.60801e-08
7.58299e-08
8.58261e-08
7.57712e-08
8.57641e-08
7.57085e-08
8.5704e-08
7.53769e-08
8.56079e-08
7.56371e-08
8.5771e-08
7.5778e-08
8.57763e-08
7.56138e-08
8.5836e-08
7.56475e-08
8.57945e-08
7.56758e-08
8.57044e-08
7.55845e-08
8.57735e-08
7.5252e-08
8.58357e-08
7.56328e-08
8.58359e-08
7.43173e-08
8.01246e-08
7.32819e-08
5.82403e-08
7.62603e-08
8.62034e-08
7.59601e-08
8.59708e-08
7.5774e-08
8.60217e-08
7.59915e-08
8.60297e-08
7.59133e-08
8.56745e-08
7.54496e-08
8.60378e-08
7.61717e-08
8.59859e-08
7.58561e-08
8.60369e-08
7.5989e-08
8.63407e-08
7.63193e-08
8.63252e-08
7.62512e-08
8.60471e-08
7.56749e-08
8.61327e-08
7.6229e-08
8.60594e-08
7.58721e-08
8.61875e-08
7.60221e-08
8.58493e-08
7.59974e-08
8.59929e-08
7.55936e-08
8.59445e-08
7.6051e-08
8.60561e-08
7.59848e-08
8.60898e-08
7.57206e-08
8.57988e-08
7.59074e-08
8.6035e-08
7.59197e-08
8.58433e-08
7.59323e-08
8.60312e-08
7.58328e-08
8.58951e-08
7.58572e-08
8.59024e-08
7.57115e-08
8.58666e-08
7.60194e-08
8.61271e-08
7.59137e-08
8.61496e-08
7.61154e-08
8.58908e-08
7.56802e-08
8.58792e-08
7.56895e-08
8.58899e-08
7.60186e-08
8.57768e-08
7.55972e-08
8.60737e-08
7.60966e-08
8.57499e-08
7.56778e-08
8.58468e-08
7.57584e-08
8.6337e-08
7.6102e-08
8.60605e-08
7.59665e-08
8.60743e-08
7.59369e-08
8.62051e-08
7.60937e-08
8.64008e-08
7.55113e-08
8.63159e-08
7.57974e-08
8.59806e-08
7.6093e-08
8.59872e-08
7.56724e-08
8.56245e-08
7.56554e-08
8.56323e-08
7.56634e-08
8.57777e-08
7.56292e-08
8.54738e-08
7.53671e-08
8.59204e-08
7.57726e-08
8.6013e-08
7.60542e-08
8.59052e-08
7.58543e-08
8.59325e-08
7.56926e-08
8.57023e-08
7.5813e-08
8.57961e-08
7.54027e-08
8.5632e-08
7.56163e-08
8.5712e-08
7.57057e-08
8.57945e-08
7.56957e-08
8.57786e-08
7.57579e-08
8.57534e-08
7.5585e-08
8.57423e-08
7.56057e-08
8.60503e-08
7.54559e-08
8.58559e-08
7.53466e-08
8.56293e-08
7.45352e-08
8.03692e-08
7.33625e-08
5.80564e-08
7.62425e-08
8.6327e-08
7.61414e-08
8.60382e-08
7.58702e-08
8.59159e-08
7.58967e-08
8.601e-08
7.60665e-08
8.58697e-08
7.52427e-08
8.58945e-08
7.62175e-08
8.59996e-08
7.58754e-08
8.60091e-08
7.58612e-08
8.62068e-08
7.62257e-08
8.6356e-08
7.63011e-08
8.61482e-08
7.57059e-08
8.60306e-08
7.61351e-08
8.58965e-08
7.57919e-08
8.60939e-08
7.60799e-08
8.60659e-08
7.60907e-08
8.59872e-08
7.56913e-08
8.59657e-08
7.57366e-08
8.60404e-08
7.61401e-08
8.60171e-08
7.5751e-08
8.58892e-08
7.58738e-08
8.59683e-08
7.57247e-08
8.57717e-08
7.59513e-08
8.59371e-08
7.59053e-08
8.59221e-08
7.58966e-08
8.59037e-08
7.56275e-08
8.57754e-08
7.59131e-08
8.59653e-08
7.58954e-08
8.62395e-08
7.63059e-08
8.59493e-08
7.55512e-08
8.5922e-08
7.56857e-08
8.58708e-08
7.57713e-08
8.58494e-08
7.57077e-08
8.60297e-08
7.60449e-08
8.5878e-08
7.56353e-08