/*--------------------------------*- C++ -*----------------------------------*\
| =========                 |                                                 |
| \\      /  F ield         | OpenFOAM: The Open Source CFD Toolbox           |
|  \\    /   O peration     | Version:  2206                                  |
|   \\  /    A nd           | Website:  www.openfoam.com                      |
|    \\/     M anipulation  |                                                 |
\*---------------------------------------------------------------------------*/
FoamFile
{
    version     2.0;
    format      ascii;
    arch        "LSB;label=32;scalar=64";
    class       volScalarField;
    location    "0.3";
    object      nut;
}
// * * * * * * * * * * * * * * * * * * * * * * * * * * * * * * * * * * * * * //

dimensions      [0 2 -1 0 0 0 0];

internalField   nonuniform List<scalar> 
185391
(
5.24266e-15
6.03925e-15
5.34724e-15
5.35675e-15
5.38411e-15
6.07956e-15
5.35901e-15
6.0454e-15
6.04634e-15
6.01145e-15
5.24709e-15
5.35141e-15
6.18018e-15
6.06435e-15
5.23048e-15
6.16488e-15
5.22565e-15
5.35499e-15
6.01101e-15
5.34248e-15
6.07007e-15
5.38957e-15
5.21968e-15
6.02934e-15
5.2833e-15
5.33453e-15
6.07854e-15
6.07012e-15
6.07506e-15
6.00958e-15
5.3966e-15
6.06164e-15
5.33795e-15
6.03987e-15
5.26195e-15
6.08027e-15
6.07375e-15
5.37012e-15
6.06962e-15
5.36557e-15
6.07524e-15
6.05362e-15
5.33665e-15
6.0745e-15
5.33875e-15
5.36505e-15
5.34804e-15
6.03224e-15
5.24461e-15
6.09325e-15
6.06294e-15
3.67526e-15
6.05728e-15
5.22566e-15
6.09118e-15
6.03406e-15
5.38887e-15
5.403e-15
6.08208e-15
6.0637e-15
6.06376e-15
5.34964e-15
5.22603e-15
6.06164e-15
5.40432e-15
6.07057e-15
6.03195e-15
6.06091e-15
5.24503e-15
5.37488e-15
6.06246e-15
6.09593e-15
5.38325e-15
6.09197e-15
5.2517e-15
6.14578e-15
5.38202e-15
6.08995e-15
5.23035e-15
5.37488e-15
6.08713e-15
5.37661e-15
5.38208e-15
5.37282e-15
6.07648e-15
5.328e-15
5.34207e-15
5.39727e-15
5.34326e-15
6.07501e-15
6.1639e-15
5.28106e-15
5.35187e-15
4.82338e-15
6.07075e-15
5.51988e-15
5.36563e-15
6.04677e-15
5.36276e-15
5.37298e-15
6.08977e-15
6.04236e-15
5.25162e-15
5.35122e-15
6.04209e-15
5.34521e-15
6.02561e-15
6.03425e-15
5.24251e-15
5.24386e-15
6.04836e-15
5.34641e-15
5.244e-15
5.25087e-15
6.07965e-15
6.06155e-15
6.03731e-15
6.04604e-15
5.37012e-15
5.23864e-15
6.06463e-15
6.11367e-15
6.08893e-15
6.07315e-15
5.36707e-15
5.36101e-15
6.0732e-15
5.3582e-15
5.3773e-15
5.38558e-15
5.27435e-15
6.07147e-15
5.26509e-15
5.45579e-15
5.28448e-15
6.04711e-15
5.35691e-15
5.28185e-15
6.05477e-15
5.34731e-15
6.15164e-15
4.78325e-15
5.35482e-15
5.22328e-15
6.08258e-15
6.02448e-15
6.14315e-15
6.05733e-15
6.14627e-15
6.15191e-15
5.27287e-15
6.07794e-15
5.36318e-15
5.2774e-15
6.13586e-15
5.28448e-15
5.27279e-15
5.33523e-15
6.03411e-15
5.28398e-15
6.0693e-15
6.14718e-15
5.35086e-15
5.35229e-15
5.33708e-15
6.1553e-15
5.30103e-15
5.3411e-15
6.06737e-15
6.03395e-15
5.26867e-15
5.29582e-15
6.06391e-15
6.1375e-15
5.2758e-15
6.152e-15
5.27792e-15
6.02728e-15
5.25311e-15
6.13721e-15
6.03056e-15
6.16727e-15
5.27899e-15
6.13935e-15
5.25241e-15
5.36835e-15
6.13237e-15
5.28355e-15
6.13675e-15
5.26197e-15
6.02644e-15
5.28062e-15
6.12998e-15
5.26383e-15
6.15173e-15
5.31547e-15
5.35546e-15
5.24552e-15
6.04026e-15
5.29245e-15
5.35998e-15
6.16931e-15
5.16399e-15
6.15556e-15
5.37148e-15
5.51707e-15
6.07241e-15
6.07223e-15
6.16046e-15
6.15083e-15
6.15261e-15
5.29249e-15
5.26729e-15
6.14139e-15
6.08303e-15
5.27648e-15
5.35531e-15
6.15493e-15
6.09033e-15
5.29111e-15
6.06191e-15
6.14681e-15
6.15731e-15
5.26433e-15
6.05968e-15
6.08578e-15
5.26783e-15
6.15393e-15
6.1689e-15
5.2767e-15
5.36009e-15
6.1527e-15
6.16783e-15
6.14887e-15
6.16119e-15
6.15095e-15
5.31557e-15
6.16291e-15
5.27952e-15
5.28142e-15
5.27289e-15
5.29043e-15
6.15245e-15
6.14793e-15
5.37381e-15
6.02284e-15
6.10386e-15
5.27923e-15
6.01072e-15
6.03348e-15
5.2442e-15
5.12833e-15
6.01296e-15
6.17468e-15
5.26384e-15
5.35257e-15
5.22237e-15
6.00778e-15
5.24302e-15
5.3666e-15
5.29161e-15
5.37036e-15
6.03749e-15
6.08891e-15
6.08249e-15
6.15449e-15
6.15089e-15
6.24761e-15
5.34939e-15
6.01446e-15
5.28419e-15
5.28084e-15
6.15726e-15
5.24797e-15
6.08195e-15
6.06772e-15
5.35662e-15
6.14813e-15
5.3533e-15
6.04727e-15
5.25946e-15
6.02602e-15
5.25583e-15
6.04761e-15
5.32925e-15
6.15848e-15
6.09414e-15
5.29524e-15
6.07158e-15
6.0718e-15
5.36351e-15
5.27871e-15
5.23971e-15
6.02625e-15
6.01484e-15
5.27539e-15
5.28159e-15
6.0897e-15
6.07539e-15
6.0755e-15
5.36824e-15
6.07994e-15
5.35749e-15
6.17018e-15
6.08115e-15
6.06216e-15
5.33693e-15
6.15225e-15
3.68242e-15
5.30612e-15
6.04994e-15
6.14724e-15
5.27236e-15
6.07103e-15
5.36166e-15
5.36723e-15
5.34774e-15
3.74426e-15
6.14125e-15
6.01788e-15
6.08529e-15
5.3425e-15
5.22821e-15
6.02901e-15
5.35834e-15
5.22394e-15
6.04912e-15
3.66131e-15
5.26085e-15
5.23998e-15
5.23158e-15
4.82238e-15
6.08551e-15
5.5213e-15
5.24074e-15
6.05636e-15
6.06015e-15
5.33313e-15
6.06859e-15
6.02129e-15
6.06814e-15
6.02403e-15
5.23575e-15
5.22956e-15
6.04264e-15
5.26915e-15
5.24069e-15
6.14232e-15
6.02612e-15
5.35895e-15
6.07617e-15
5.25663e-15
5.3413e-15
6.03741e-15
6.07853e-15
5.33783e-15
6.0766e-15
5.33279e-15
6.16543e-15
6.03545e-15
6.10262e-15
6.02594e-15
5.35045e-15
5.38557e-15
5.33514e-15
6.04715e-15
5.34596e-15
6.08746e-15
5.24166e-15
5.24376e-15
5.35578e-15
6.05167e-15
6.08988e-15
6.02407e-15
6.06429e-15
6.05435e-15
6.07183e-15
5.21312e-15
6.03515e-15
6.15226e-15
5.23919e-15
5.20261e-15
6.00982e-15
6.01222e-15
5.22258e-15
5.2111e-15
6.0193e-15
6.10031e-15
5.34586e-15
6.15885e-15
6.06698e-15
6.06087e-15
5.22692e-15
6.1596e-15
5.22244e-15
6.01449e-15
6.09351e-15
5.35473e-15
5.3976e-15
5.28685e-15
5.29145e-15
5.29122e-15
5.34905e-15
5.30061e-15
5.21368e-15
6.15258e-15
5.2691e-15
5.24792e-15
5.23417e-15
6.01774e-15
6.08585e-15
5.4124e-15
5.37274e-15
5.23775e-15
5.26898e-15
6.11089e-15
6.03464e-15
6.0744e-15
5.3256e-15
5.18452e-15
5.33127e-15
5.36947e-15
5.23342e-15
6.06043e-15
5.30762e-15
5.28796e-15
6.1654e-15
6.03253e-15
5.27616e-15
5.23732e-15
6.02129e-15
5.25734e-15
5.36158e-15
6.08354e-15
6.07437e-15
5.27388e-15
5.37565e-15
5.28457e-15
5.28564e-15
5.27029e-15
5.3633e-15
5.23622e-15
6.03187e-15
6.05782e-15
6.02633e-15
5.27439e-15
6.03874e-15
6.01744e-15
5.23241e-15
5.28616e-15
5.23337e-15
6.09945e-15
5.22951e-15
5.34087e-15
5.3672e-15
6.02691e-15
5.3315e-15
5.25073e-15
6.14925e-15
6.14487e-15
5.19653e-15
6.11309e-15
6.05877e-15
6.18938e-15
6.15003e-15
6.15751e-15
5.29057e-15
6.05337e-15
6.18254e-15
6.1729e-15
6.08484e-15
5.2865e-15
5.34273e-15
6.17226e-15
5.27046e-15
5.30139e-15
5.27675e-15
6.16342e-15
5.22616e-15
6.01499e-15
6.03118e-15
5.37152e-15
5.36118e-15
6.07207e-15
5.35759e-15
6.07847e-15
6.07377e-15
5.35378e-15
6.08397e-15
6.0888e-15
5.35187e-15
6.07813e-15
6.1065e-15
5.40225e-15
6.10831e-15
5.33795e-15
6.08586e-15
5.39266e-15
6.08793e-15
5.37277e-15
6.07779e-15
5.36904e-15
6.10427e-15
6.09363e-15
5.34647e-15
6.07129e-15
5.38279e-15
6.08478e-15
5.38396e-15
6.08075e-15
5.3664e-15
5.34798e-15
5.37949e-15
6.08349e-15
6.07956e-15
5.36906e-15
6.07513e-15
5.33514e-15
5.36096e-15
6.0699e-15
5.34558e-15
5.34685e-15
6.0811e-15
6.05454e-15
5.33729e-15
6.06665e-15
5.3701e-15
6.07999e-15
5.3556e-15
6.06938e-15
5.35589e-15
5.34424e-15
5.34154e-15
6.06223e-15
6.0747e-15
5.37311e-15
5.36135e-15
6.09958e-15
5.33618e-15
4.80926e-15
6.17193e-15
5.30331e-15
5.279e-15
5.3672e-15
6.08695e-15
5.39108e-15
6.07578e-15
5.36011e-15
6.08438e-15
5.35414e-15
6.07518e-15
5.36424e-15
6.06319e-15
5.35982e-15
6.08634e-15
5.35904e-15
6.06406e-15
5.37723e-15
6.08033e-15
5.36021e-15
6.08146e-15
5.36786e-15
6.09168e-15
5.37485e-15
6.07523e-15
5.3779e-15
6.09521e-15
5.37946e-15
6.10315e-15
5.39672e-15
6.10971e-15
5.39936e-15
6.09365e-15
5.40161e-15
6.09489e-15
5.34047e-15
6.0827e-15
5.39147e-15
6.09116e-15
5.36889e-15
6.08137e-15
5.37669e-15
6.08732e-15
5.36418e-15
6.07778e-15
5.37732e-15
6.08609e-15
5.37561e-15
6.09337e-15
5.3622e-15
6.09541e-15
5.36182e-15
6.06836e-15
5.39662e-15
6.09106e-15
5.36712e-15
6.07047e-15
5.34514e-15
6.09257e-15
5.37933e-15
6.07916e-15
5.37517e-15
6.07244e-15
5.37694e-15
6.08188e-15
5.37156e-15
6.07439e-15
5.36575e-15
6.08006e-15
5.35986e-15
6.07483e-15
5.35562e-15
6.07852e-15
5.37317e-15
6.07784e-15
5.35423e-15
6.06956e-15
5.37525e-15
6.07071e-15
5.33417e-15
6.05793e-15
5.36519e-15
6.06289e-15
5.34884e-15
6.09626e-15
5.38726e-15
6.07332e-15
5.35992e-15
6.06887e-15
5.34963e-15
6.06347e-15
5.33719e-15
6.04712e-15
5.34779e-15
6.0535e-15
5.35178e-15
6.06067e-15
5.35848e-15
6.0794e-15
5.35463e-15
6.07019e-15
5.37278e-15
6.06357e-15
5.34872e-15
6.08857e-15
5.36934e-15
6.08477e-15
5.3804e-15
6.07449e-15
5.36461e-15
6.07679e-15
5.35669e-15
6.07623e-15
5.36239e-15
6.05861e-15
5.34586e-15
6.07084e-15
5.37048e-15
6.06871e-15
5.35863e-15
6.07229e-15
5.35312e-15
6.06779e-15
5.36546e-15
6.07473e-15
5.378e-15
6.0715e-15
5.35781e-15
6.08658e-15
5.3381e-15
6.11542e-15
5.33071e-15
6.01296e-15
5.17018e-15
5.50119e-15
4.79486e-15
3.68868e-15
5.35319e-15
6.09657e-15
5.38554e-15
6.08024e-15
5.36555e-15
6.07422e-15
5.34024e-15
6.07972e-15
5.37445e-15
6.07118e-15
5.35358e-15
6.07963e-15
5.35748e-15
6.0739e-15
5.36853e-15
6.08163e-15
5.37802e-15
6.08563e-15
5.36519e-15
6.09675e-15
5.38743e-15
6.0878e-15
5.38732e-15
6.08868e-15
5.36998e-15
6.09391e-15
5.37961e-15
6.12206e-15
5.39158e-15
6.09682e-15
5.40448e-15
6.08188e-15
5.34613e-15
6.08899e-15
5.38428e-15
6.08723e-15
5.37479e-15
6.08621e-15
5.37744e-15
6.0835e-15
5.35977e-15
6.08804e-15
5.36615e-15
6.09129e-15
5.388e-15
6.08265e-15
5.36068e-15
6.09543e-15
5.35497e-15
6.06666e-15
5.38097e-15
6.08152e-15
5.37265e-15
6.07635e-15
5.3489e-15
6.09179e-15
5.3834e-15
6.09552e-15
5.36255e-15
6.0814e-15
5.40433e-15
6.08651e-15
5.37019e-15
6.07114e-15
5.36293e-15
6.08267e-15
5.36499e-15
6.07289e-15
5.34978e-15
6.08548e-15
5.36525e-15
6.08148e-15
5.35961e-15
6.08079e-15
5.37451e-15
6.07918e-15
5.35265e-15
6.06016e-15
5.35359e-15
6.0694e-15
5.34959e-15
6.10448e-15
5.3948e-15
6.07114e-15
5.36757e-15
6.07747e-15
5.35981e-15
6.06444e-15
5.34419e-15
6.06581e-15
5.33808e-15
6.06687e-15
5.36651e-15
6.06265e-15
5.36331e-15
6.06979e-15
5.34266e-15
6.07944e-15
5.37177e-15
6.06662e-15
5.35269e-15
6.0702e-15
5.36523e-15
6.10085e-15
5.38053e-15
6.07518e-15
5.37208e-15
6.07276e-15
5.34898e-15
6.06951e-15
5.35154e-15
6.06585e-15
5.34834e-15
6.06718e-15
5.36165e-15
6.07041e-15
5.35946e-15
6.06229e-15
5.34933e-15
6.07315e-15
5.35937e-15
6.0792e-15
5.36896e-15
6.07603e-15
5.35664e-15
6.07135e-15
5.34057e-15
6.1092e-15
5.33311e-15
6.02976e-15
5.17597e-15
5.50533e-15
4.79561e-15
3.69928e-15
5.36065e-15
6.08229e-15
5.37935e-15
6.09077e-15
5.37452e-15
6.07371e-15
5.35085e-15
6.07815e-15
5.37006e-15
6.07827e-15
5.35928e-15
6.07806e-15
5.36322e-15
6.08181e-15
5.3555e-15
6.08365e-15
5.377e-15
6.08339e-15
5.36852e-15
6.08674e-15
5.38334e-15
6.09235e-15
5.38543e-15
6.09146e-15
5.37525e-15
6.08896e-15
5.37073e-15
6.10311e-15
5.38379e-15
6.10166e-15
5.39642e-15
6.06974e-15
5.34996e-15
6.08873e-15
5.36478e-15
6.08728e-15
5.38054e-15
6.0904e-15
5.37443e-15
6.07489e-15
5.36722e-15
6.08427e-15
5.36163e-15
6.09292e-15
5.38672e-15
6.08264e-15
5.36109e-15
6.07403e-15
5.34924e-15
6.08377e-15
5.36154e-15
6.06546e-15
5.3734e-15
6.08515e-15
5.3488e-15
6.09061e-15
5.38501e-15
6.10248e-15
5.36107e-15
6.08122e-15
5.50185e-15
6.08794e-15
5.36554e-15
6.07581e-15
5.37284e-15
6.08383e-15
5.37038e-15
6.08171e-15
5.3497e-15
6.08351e-15
5.36789e-15
6.08205e-15
5.37793e-15
6.08082e-15
5.37115e-15
6.08158e-15
5.35696e-15
6.05772e-15
5.34792e-15
6.05893e-15
5.34781e-15
6.06962e-15
5.38901e-15
6.06673e-15
5.35711e-15
6.06706e-15
5.35319e-15
6.06376e-15
5.36029e-15
6.05684e-15
5.33572e-15
6.05534e-15
5.33914e-15
6.06772e-15
5.38048e-15
6.05743e-15
5.34402e-15
6.07501e-15
5.34522e-15
6.07757e-15
5.35445e-15
6.05876e-15
5.36438e-15
6.10274e-15
5.37219e-15
6.07207e-15
5.37475e-15
6.0748e-15
5.35406e-15
6.06981e-15
5.35877e-15
6.07425e-15
5.34775e-15
6.06535e-15
5.3537e-15
6.06501e-15
5.35691e-15
6.05859e-15
5.34428e-15
6.06541e-15
5.35884e-15
6.08026e-15
5.37818e-15
6.08231e-15
5.35733e-15
6.08787e-15
5.34972e-15
6.10933e-15
5.33399e-15
6.03602e-15
5.18751e-15
5.50685e-15
4.80082e-15
3.6914e-15
5.35809e-15
6.08366e-15
5.38735e-15
6.08373e-15
5.37189e-15
6.08277e-15
5.36126e-15
6.06474e-15
5.36672e-15
6.08315e-15
5.35615e-15
6.07957e-15
5.36722e-15
6.07962e-15
5.35632e-15
6.07064e-15
5.36164e-15
6.08902e-15
5.36815e-15
6.08443e-15
5.38375e-15
6.09123e-15
5.38527e-15
6.08756e-15
5.38154e-15
6.10693e-15
5.37149e-15
6.09034e-15
5.38108e-15
6.11009e-15
5.38761e-15
6.07987e-15
5.36387e-15
6.07533e-15
5.3578e-15
6.09016e-15
5.38092e-15
6.08754e-15
5.37552e-15
6.08985e-15
5.37135e-15
6.08479e-15
5.36536e-15
6.08396e-15
5.37997e-15
6.08781e-15
5.3686e-15
6.07003e-15
5.35016e-15
6.088e-15
5.35585e-15
6.06061e-15
5.36875e-15
6.07169e-15
5.35181e-15
6.08908e-15
5.39162e-15
6.101e-15
5.36769e-15
6.09684e-15
5.3788e-15
6.09533e-15
5.37011e-15
6.09566e-15
5.36218e-15
6.06638e-15
5.37127e-15
6.09152e-15
5.35905e-15
6.08723e-15
5.37049e-15
6.08364e-15
5.37843e-15
6.0868e-15
5.37334e-15
6.07826e-15
5.36027e-15
6.06822e-15
5.33195e-15
6.04771e-15
5.35404e-15
6.06946e-15
5.34387e-15
6.07207e-15
5.35815e-15
6.06076e-15
5.34113e-15
6.07405e-15
5.36761e-15
6.06614e-15
5.35112e-15
6.05094e-15
5.32687e-15
6.0661e-15
5.37268e-15
6.0628e-15
5.36071e-15
6.05563e-15
5.34573e-15
6.08632e-15
5.36154e-15
6.07171e-15
5.36553e-15
6.10173e-15
5.38926e-15
6.07408e-15
5.36389e-15
6.06648e-15
5.35275e-15
6.06444e-15
5.35246e-15
6.07217e-15
5.35382e-15
6.07056e-15
5.34479e-15
6.05571e-15
5.35569e-15
6.06617e-15
5.35489e-15
6.05616e-15
5.35023e-15
6.08605e-15
5.38377e-15
6.08312e-15
5.36196e-15
6.09289e-15
5.34575e-15
6.09541e-15
5.32428e-15
6.03367e-15
5.18384e-15
5.50691e-15
4.79308e-15
3.67957e-15
5.35111e-15
6.09849e-15
5.3886e-15
6.08654e-15
5.37474e-15
6.09221e-15
5.36337e-15
6.07057e-15
5.36714e-15
6.07135e-15
5.35392e-15
6.07934e-15
5.36467e-15
6.08073e-15
5.36139e-15
6.05835e-15
5.3485e-15
6.0891e-15
5.36314e-15
6.09344e-15
5.37283e-15
6.08707e-15
5.38416e-15
6.08821e-15
5.3818e-15
6.10248e-15
5.37911e-15
6.10435e-15
5.39353e-15
6.09442e-15
5.38012e-15
6.10141e-15
5.37161e-15
6.08015e-15
5.35706e-15
6.08709e-15
5.38212e-15
6.08177e-15
5.37412e-15
6.08715e-15
5.36805e-15
6.09144e-15
5.35998e-15
6.08117e-15
5.38228e-15
6.08532e-15
5.37619e-15
6.0611e-15
5.34392e-15
6.08497e-15
5.35886e-15
6.06953e-15
5.36635e-15
6.07319e-15
5.35889e-15
6.08422e-15
5.38629e-15
6.09118e-15
5.38331e-15
6.09892e-15
5.37102e-15
6.08128e-15
5.3625e-15
6.07905e-15
5.35912e-15
6.06406e-15
5.36299e-15
6.094e-15
5.38009e-15
6.09338e-15
5.37568e-15
6.07977e-15
5.36907e-15
6.09189e-15
5.37445e-15
6.06433e-15
5.35628e-15
6.0744e-15
5.33064e-15
6.05872e-15
5.36273e-15
6.05425e-15
5.35317e-15
6.08585e-15
5.36457e-15
6.06342e-15
5.33416e-15
6.06766e-15
5.3613e-15
6.06522e-15
5.3576e-15
6.0643e-15
5.33729e-15
6.05313e-15
5.34793e-15
6.06725e-15
5.36168e-15
6.06112e-15
5.34747e-15
6.07062e-15
5.3596e-15
6.06805e-15
5.34422e-15
6.09727e-15
5.40097e-15
6.08323e-15
5.35998e-15
6.07043e-15
5.3473e-15
6.05999e-15
5.34936e-15
6.05994e-15
5.34897e-15
6.06456e-15
5.34878e-15
6.05976e-15
5.35126e-15
6.07861e-15
5.36472e-15
6.07126e-15
5.36038e-15
6.0817e-15
5.37772e-15
6.09065e-15
5.36299e-15
6.08774e-15
5.35106e-15
6.09303e-15
5.31899e-15
6.04524e-15
5.18944e-15
5.49671e-15
4.78346e-15
3.68526e-15
5.38426e-15
6.09401e-15
5.38638e-15
6.08783e-15
5.35968e-15
6.08117e-15
5.36131e-15
6.07561e-15
5.36229e-15
6.06856e-15
5.35948e-15
6.0759e-15
5.36168e-15
6.06609e-15
5.35155e-15
6.07375e-15
5.36982e-15
6.09294e-15
5.36135e-15
6.09688e-15
5.39524e-15
6.10451e-15
5.38214e-15
6.09144e-15
5.37356e-15
6.11342e-15
5.40636e-15
6.09198e-15
5.37448e-15
6.08551e-15
5.37899e-15
6.09225e-15
5.34977e-15
6.08092e-15
5.37059e-15
6.0838e-15
5.37171e-15
6.08737e-15
5.37731e-15
6.09412e-15
5.35491e-15
6.08296e-15
5.37844e-15
6.08065e-15
5.37289e-15
6.05617e-15
5.32726e-15
6.06855e-15
5.36147e-15
6.07485e-15
5.36333e-15
6.08519e-15
5.37052e-15
6.07415e-15
5.36868e-15
6.08436e-15
5.37848e-15
6.09001e-15
5.36483e-15
6.08874e-15
5.35378e-15
6.0674e-15
5.37605e-15
6.06733e-15
5.35141e-15
6.09637e-15
5.39004e-15
6.08412e-15
5.37279e-15
6.07497e-15
5.35531e-15
6.08798e-15
5.35774e-15
6.06034e-15
5.3586e-15
6.06591e-15
5.33065e-15
6.07187e-15
5.35986e-15
6.0575e-15
5.35889e-15
6.08095e-15
5.37673e-15
6.0761e-15
5.33437e-15
6.06449e-15
5.35816e-15
6.05332e-15
5.3451e-15
6.07145e-15
5.34746e-15
6.06732e-15
5.36678e-15
6.05139e-15
5.34966e-15
6.06848e-15
5.34827e-15
6.07631e-15
5.37305e-15
6.06033e-15
5.32805e-15
6.0838e-15
5.39826e-15
6.08813e-15
5.37389e-15
6.07158e-15
5.33523e-15
6.05681e-15
5.35041e-15
6.0618e-15
5.34598e-15
6.06986e-15
5.3569e-15
6.06901e-15
5.35335e-15
6.06697e-15
5.3631e-15
6.08655e-15
5.37043e-15
6.07149e-15
5.36752e-15
6.09093e-15
5.37344e-15
6.07899e-15
5.35808e-15
6.08697e-15
5.30514e-15
6.05229e-15
5.19223e-15
5.50251e-15
4.77294e-15
3.67381e-15
5.3989e-15
6.08528e-15
5.3638e-15
6.07641e-15
5.3468e-15
6.08396e-15
5.35785e-15
6.06948e-15
5.36641e-15
6.07068e-15
5.35978e-15
6.0805e-15
5.35719e-15
6.07274e-15
5.37248e-15
6.0851e-15
5.35959e-15
6.10483e-15
5.39597e-15
6.11641e-15
5.39699e-15
6.09461e-15
5.36697e-15
6.11254e-15
5.40612e-15
6.11058e-15
5.38455e-15
6.08203e-15
5.37814e-15
6.08734e-15
5.3588e-15
6.07787e-15
5.36829e-15
6.07838e-15
5.36173e-15
6.09561e-15
5.39337e-15
6.09605e-15
5.35655e-15
6.07848e-15
5.36095e-15
6.08157e-15
5.3888e-15
6.06306e-15
5.31528e-15
6.06319e-15
5.36464e-15
6.07099e-15
5.36114e-15
6.09882e-15
5.3802e-15
6.08546e-15
5.36876e-15
6.08454e-15
5.37262e-15
6.08268e-15
5.36994e-15
6.10436e-15
5.35623e-15
6.07572e-15
5.37261e-15
6.07315e-15
5.34527e-15
6.08388e-15
5.40581e-15
6.087e-15
5.37098e-15
6.07362e-15
5.35554e-15
6.06816e-15
5.35798e-15
6.07323e-15
5.36037e-15
6.0607e-15
5.33193e-15
6.06917e-15
5.3561e-15
6.07013e-15
5.35854e-15
6.06476e-15
5.37138e-15
6.08272e-15
5.34431e-15
6.07724e-15
5.35531e-15
6.0503e-15
5.33873e-15
6.05027e-15
5.3391e-15
6.08845e-15
5.37238e-15
6.04636e-15
5.3378e-15
6.05696e-15
5.34752e-15
6.07048e-15
5.37743e-15
6.07304e-15
5.32415e-15
6.07651e-15
5.38108e-15
6.08611e-15
5.38834e-15
6.06041e-15
5.33158e-15
6.05238e-15
5.33743e-15
6.04969e-15
5.35106e-15
6.06381e-15
5.34085e-15
6.08218e-15
5.35653e-15
6.05529e-15
5.35849e-15
6.08486e-15
5.365e-15
6.07025e-15
5.35075e-15
6.0842e-15
5.37553e-15
6.08194e-15
5.36431e-15
6.08752e-15
5.30482e-15
6.03966e-15
5.18939e-15
5.50873e-15
4.77847e-15
3.68521e-15
5.39002e-15
6.0888e-15
5.36905e-15
6.07411e-15
5.35589e-15
6.07237e-15
5.36027e-15
6.08375e-15
5.36388e-15
6.07058e-15
5.36621e-15
6.08188e-15
5.35864e-15
6.08074e-15
5.37901e-15
6.0712e-15
5.35471e-15
6.08756e-15
5.37756e-15
6.12348e-15
5.41063e-15
6.10709e-15
5.37699e-15
6.10536e-15
5.3997e-15
6.10798e-15
5.37715e-15
6.08187e-15
5.3727e-15
6.09109e-15
5.37085e-15
6.08418e-15
5.36641e-15
6.07412e-15
5.35543e-15
6.0815e-15
5.3816e-15
6.09215e-15
5.36619e-15
6.07045e-15
5.35125e-15
6.07914e-15
5.39854e-15
6.07117e-15
5.32519e-15
6.07179e-15
5.33838e-15
6.07162e-15
5.37841e-15
6.0757e-15
5.37769e-15
6.10177e-15
5.37262e-15
6.08565e-15
5.3557e-15
6.08142e-15
5.37481e-15
6.09217e-15
5.36842e-15
6.08159e-15
5.36012e-15
6.08691e-15
5.33086e-15
6.0786e-15
5.39925e-15
6.088e-15
5.37438e-15
6.08009e-15
5.35544e-15
6.04956e-15
5.34925e-15
6.08135e-15
5.36935e-15
6.06802e-15
5.33616e-15
6.06201e-15
5.34203e-15
6.07172e-15
5.35636e-15
6.06337e-15
5.3647e-15
6.0786e-15
5.35759e-15
6.05516e-15
5.34332e-15
6.0803e-15
5.34974e-15
6.0506e-15
5.34288e-15
6.07939e-15
5.38002e-15
6.06896e-15
5.34593e-15
6.06083e-15
5.34074e-15
6.05894e-15
5.3626e-15
6.07177e-15
5.34232e-15
6.08562e-15
5.35643e-15
6.07334e-15
5.37981e-15
6.07004e-15
5.34256e-15
6.05851e-15
5.33561e-15
6.06332e-15
5.3642e-15
6.05252e-15
5.33426e-15
6.08167e-15
5.35987e-15
6.06715e-15
5.3658e-15
6.07457e-15
5.36757e-15
6.07891e-15
5.33769e-15
6.06083e-15
5.36414e-15
6.08478e-15
5.36753e-15
6.10442e-15
5.30749e-15
6.03107e-15
5.17533e-15
5.49175e-15
4.7951e-15
3.68499e-15
5.38987e-15
6.08657e-15
5.36563e-15
6.08355e-15
5.36087e-15
6.07691e-15
5.37165e-15
6.07981e-15
5.36201e-15
6.07682e-15
5.36787e-15
6.06394e-15
5.35313e-15
6.09686e-15
5.37722e-15
6.08012e-15
5.36585e-15
6.07261e-15
5.36184e-15
6.10393e-15
5.40464e-15
6.1105e-15
5.38057e-15
6.11714e-15
5.40123e-15
6.0905e-15
5.37316e-15
6.08741e-15
5.36791e-15
6.08267e-15
5.38328e-15
6.08919e-15
5.36152e-15
6.08842e-15
5.36434e-15
6.07413e-15
5.363e-15
6.08888e-15
5.37151e-15
6.08228e-15
5.35375e-15
6.06383e-15
5.37586e-15
6.0707e-15
5.36169e-15
6.07482e-15
5.33243e-15
6.09037e-15
5.36528e-15
6.05918e-15
5.36639e-15
6.09369e-15
5.38486e-15
6.08779e-15
5.35142e-15
6.09468e-15
5.38296e-15
6.08476e-15
5.37192e-15
6.07413e-15
5.36965e-15
6.0758e-15
5.34845e-15
6.07921e-15
5.4055e-15
6.12928e-15
5.37141e-15
6.08935e-15
5.37636e-15
6.05939e-15
5.33645e-15
6.05555e-15
5.36082e-15
6.07292e-15
5.35056e-15
6.0627e-15
5.33955e-15
6.06724e-15
5.35638e-15
6.0748e-15
5.3492e-15
6.08638e-15
5.37814e-15
6.04677e-15
5.33536e-15
6.07226e-15
5.34667e-15
6.07308e-15
5.34259e-15
6.05828e-15
5.38072e-15
6.0843e-15
5.35282e-15
6.06895e-15
5.34512e-15
6.06047e-15
5.34602e-15
6.06106e-15
5.3565e-15
6.10454e-15
5.3567e-15
6.06503e-15
5.36936e-15
6.07706e-15
5.3508e-15
6.0683e-15
5.34824e-15
6.07924e-15
5.37876e-15
6.06722e-15
5.33928e-15
6.06943e-15
5.35835e-15
6.07916e-15
5.36051e-15
6.06987e-15
5.36718e-15
6.08575e-15
5.34257e-15
6.05681e-15
5.3556e-15
6.07684e-15
5.37106e-15
6.10624e-15
5.3189e-15
6.04148e-15
5.15975e-15
5.50327e-15
4.80901e-15
3.67865e-15
5.3919e-15
6.07193e-15
5.35989e-15
6.07641e-15
5.34625e-15
6.08844e-15
5.37534e-15
6.07457e-15
5.35657e-15
6.08204e-15
5.36031e-15
6.05786e-15
5.35704e-15
6.08103e-15
5.37541e-15
6.09672e-15
5.37602e-15
6.0829e-15
5.36214e-15
6.08968e-15
5.39918e-15
6.09325e-15
5.37904e-15
6.12331e-15
5.39465e-15
6.10388e-15
5.38256e-15
6.09366e-15
5.35068e-15
6.08643e-15
5.39666e-15
6.07633e-15
5.36041e-15
6.09252e-15
5.36647e-15
6.08723e-15
5.3751e-15
6.07565e-15
5.36305e-15
6.10274e-15
5.36465e-15
6.07886e-15
5.36808e-15
6.07505e-15
5.37628e-15
6.06887e-15
5.35048e-15
6.08769e-15
5.35896e-15
6.07655e-15
5.36686e-15
6.08826e-15
5.38709e-15
6.09022e-15
5.3556e-15
6.09383e-15
5.37441e-15
6.08632e-15
5.38735e-15
6.06808e-15
5.36183e-15
6.11643e-15
5.39704e-15
6.11929e-15
5.39921e-15
6.0862e-15
5.37959e-15
6.09627e-15
5.38448e-15
6.08774e-15
5.34472e-15
6.05312e-15
5.3515e-15
6.06685e-15
5.35775e-15
6.0645e-15
5.34524e-15
6.06122e-15
5.35329e-15
6.07429e-15
5.34492e-15
6.083e-15
5.38942e-15
6.06972e-15
5.34964e-15
6.05646e-15
5.33678e-15
6.08206e-15
5.33656e-15
6.05522e-15
5.37978e-15
6.06584e-15
5.35144e-15
6.07885e-15
5.36085e-15
6.07512e-15
5.34416e-15
6.0524e-15
5.36229e-15
6.10354e-15
5.37394e-15
6.07487e-15
5.36706e-15
6.0761e-15
5.35725e-15
6.07038e-15
5.34267e-15
6.06737e-15
5.37378e-15
6.07775e-15
5.34949e-15
6.06868e-15
5.36496e-15
6.07426e-15
5.35242e-15
6.0663e-15
5.36183e-15
6.07352e-15
5.34916e-15
6.07399e-15
5.34276e-15
6.06358e-15
5.3607e-15
6.10379e-15
5.33579e-15
6.04068e-15
5.14929e-15
5.50727e-15
4.81974e-15
3.67516e-15
5.39061e-15
6.09216e-15
5.37181e-15
6.06745e-15
5.34566e-15
6.08312e-15
5.38079e-15
6.08434e-15
5.35302e-15
6.07632e-15
5.36006e-15
6.07144e-15
5.36207e-15
6.06948e-15
5.36421e-15
6.08098e-15
5.37918e-15
6.09667e-15
5.35992e-15
6.09901e-15
5.39703e-15
6.09299e-15
5.38916e-15
6.11024e-15
5.39835e-15
6.10846e-15
5.37956e-15
6.08626e-15
5.34063e-15
6.09226e-15
5.3954e-15
6.08252e-15
5.37164e-15
6.0776e-15
5.35637e-15
6.10749e-15
5.37928e-15
6.06661e-15
5.3636e-15
6.07912e-15
5.36298e-15
6.09332e-15
5.38023e-15
6.07714e-15
5.37163e-15
6.07467e-15
5.35513e-15
6.06778e-15
5.36046e-15
6.08575e-15
5.35342e-15
6.07521e-15
5.38299e-15
6.08564e-15
5.36644e-15
6.08851e-15
5.37527e-15
6.1018e-15
5.38751e-15
6.08033e-15
5.35936e-15
6.0784e-15
5.37096e-15
6.13032e-15
5.41439e-15
6.08645e-15
5.37571e-15
6.07743e-15
5.38039e-15
6.09041e-15
5.35046e-15
6.06434e-15
5.35343e-15
6.05143e-15
5.35345e-15
6.06896e-15
5.34848e-15
6.0576e-15
5.34595e-15
6.07189e-15
5.33663e-15
6.05828e-15
5.37095e-15
6.09024e-15
5.35873e-15
6.05488e-15
5.35029e-15
6.06867e-15
5.33308e-15
6.07322e-15
5.37657e-15
6.06399e-15
5.35291e-15
6.06562e-15
5.35469e-15
6.07761e-15
5.34659e-15
6.06233e-15
5.35875e-15
6.08503e-15
5.3858e-15
6.08872e-15
5.35145e-15
6.07374e-15
5.37404e-15
6.07529e-15
5.33905e-15
6.05354e-15
5.35421e-15
6.07314e-15
5.35051e-15
6.0745e-15
5.36439e-15
6.06985e-15
5.35261e-15
6.0629e-15
5.35128e-15
6.0507e-15
5.35516e-15
6.07896e-15
5.33711e-15
6.06544e-15
5.35364e-15
6.09029e-15
5.34437e-15
6.0316e-15
5.12914e-15
5.51113e-15
4.81787e-15
3.67716e-15
5.39921e-15
6.08766e-15
5.34966e-15
6.07702e-15
5.37834e-15
6.07943e-15
5.35606e-15
6.07039e-15
5.35766e-15
6.07649e-15
5.36069e-15
6.07844e-15
5.36491e-15
6.07461e-15
5.38193e-15
6.09639e-15
5.37142e-15
6.11902e-15
5.39007e-15
6.09515e-15
5.38187e-15
6.09066e-15
5.38465e-15
6.09797e-15
5.39428e-15
6.0894e-15
5.35057e-15
6.09906e-15
5.38358e-15
6.09154e-15
5.38202e-15
6.0673e-15
5.35314e-15
6.09624e-15
5.3768e-15
6.08876e-15
5.37271e-15
6.07368e-15
5.35854e-15
6.09399e-15
5.37032e-15
6.07498e-15
5.37378e-15
6.08044e-15
5.36139e-15
6.06251e-15
5.35804e-15
6.08443e-15
5.35378e-15
6.08259e-15
5.38125e-15
6.08527e-15
5.37114e-15
6.08713e-15
5.37238e-15
6.09879e-15
5.38632e-15
6.08986e-15
5.36368e-15
6.07021e-15
5.37153e-15
6.12915e-15
5.40076e-15
6.09134e-15
5.3697e-15
6.08129e-15
5.38389e-15
6.07524e-15
5.34868e-15
6.07965e-15
5.34436e-15
6.05416e-15
5.3554e-15
6.06164e-15
5.34808e-15
6.06633e-15
5.3513e-15
6.07766e-15
5.3455e-15
6.0534e-15
5.35712e-15
6.07489e-15
5.36062e-15
6.08142e-15
5.37396e-15
6.04893e-15
5.34212e-15
6.08238e-15
5.35446e-15
6.06962e-15
5.35892e-15
6.05827e-15
5.34642e-15
6.06312e-15
5.34284e-15
6.07248e-15
5.36147e-15
6.08368e-15
5.39119e-15
6.09322e-15
5.35731e-15
6.07465e-15
5.37552e-15
6.07953e-15
5.35448e-15
6.0583e-15
5.33588e-15
6.064e-15
5.35167e-15
6.07482e-15
5.36547e-15
6.0742e-15
5.3479e-15
6.07072e-15
5.35406e-15
6.0546e-15
5.35327e-15
6.06438e-15
5.33766e-15
6.07386e-15
5.33627e-15
6.08711e-15
5.35279e-15
6.03808e-15
5.13519e-15
5.50154e-15
4.81068e-15
3.68781e-15
5.40074e-15
6.10332e-15
5.35899e-15
6.08552e-15
5.37213e-15
6.07915e-15
5.36539e-15
6.07532e-15
5.3554e-15
6.06407e-15
5.34904e-15
6.0949e-15
5.37203e-15
6.08229e-15
5.38314e-15
6.09777e-15
5.37944e-15
6.1144e-15
5.3936e-15
6.09819e-15
5.38209e-15
6.08502e-15
5.36387e-15
6.10243e-15
5.40884e-15
6.09334e-15
5.36671e-15
6.09757e-15
5.38002e-15
6.08888e-15
5.37693e-15
6.081e-15
5.35892e-15
6.08047e-15
5.38176e-15
6.0951e-15
5.3719e-15
6.0796e-15
5.35906e-15
6.08351e-15
5.36928e-15
6.09161e-15
5.37929e-15
6.08549e-15
5.3675e-15
6.07415e-15
5.36132e-15
6.07546e-15
5.3619e-15
6.08297e-15
5.37109e-15
6.087e-15
5.37497e-15
6.09388e-15
5.3711e-15
6.09627e-15
5.38718e-15
6.13887e-15
5.36396e-15
6.07121e-15
5.36778e-15
6.07368e-15
5.38174e-15
6.08543e-15
5.36026e-15
6.09603e-15
5.39514e-15
6.06744e-15
5.35125e-15
6.07739e-15
5.34699e-15
6.0677e-15
5.35568e-15
6.08686e-15
5.34322e-15
6.10049e-15
5.37941e-15
6.0654e-15
5.35432e-15
6.07119e-15
5.35704e-15
6.06574e-15
5.355e-15
6.09464e-15
5.37883e-15
6.06054e-15
5.35635e-15
6.05837e-15
5.35065e-15
6.11615e-15
5.35598e-15
6.06634e-15
5.35366e-15
6.05886e-15
5.33347e-15
6.07596e-15
5.36535e-15
6.08901e-15
5.39102e-15
6.09125e-15
5.36592e-15
6.07327e-15
5.36176e-15
6.06889e-15
5.35733e-15
6.06463e-15
5.33387e-15
6.05783e-15
5.35227e-15
6.06938e-15
5.36225e-15
6.06975e-15
5.35063e-15
6.07398e-15
5.35301e-15
6.07104e-15
5.35501e-15
6.06464e-15
5.34845e-15
6.06935e-15
5.32385e-15
6.07156e-15
5.33986e-15
6.04984e-15
5.16963e-15
5.50873e-15
4.81572e-15
3.69342e-15
5.39637e-15
6.09997e-15
5.37513e-15
6.08351e-15
5.36196e-15
6.08711e-15
5.37736e-15
6.08769e-15
5.37182e-15
6.06255e-15
5.33901e-15
6.08825e-15
5.39011e-15
6.08458e-15
5.36777e-15
6.08819e-15
5.37718e-15
6.10969e-15
5.40055e-15
6.10859e-15
5.39573e-15
6.08891e-15
5.35495e-15
6.09497e-15
5.39416e-15
6.08978e-15
5.3689e-15
6.09885e-15
5.37952e-15
6.07492e-15
5.37777e-15
6.08508e-15
5.3492e-15
6.08165e-15
5.38157e-15
6.08955e-15
5.37688e-15
6.09193e-15
5.35818e-15
6.07134e-15
5.3714e-15
6.08806e-15
5.37227e-15
6.07449e-15
5.37317e-15
6.08779e-15
5.36612e-15
6.07816e-15
5.36785e-15
6.07867e-15
5.35754e-15
6.07614e-15
5.37933e-15
6.09458e-15
5.37185e-15
6.09617e-15
5.38612e-15
6.07785e-15
5.35533e-15
6.07703e-15
5.35599e-15
6.07779e-15
5.37928e-15
6.06979e-15
5.34946e-15
6.0908e-15
5.38479e-15
6.06788e-15
5.35515e-15
6.07474e-15
5.36086e-15
6.10943e-15
5.38517e-15
6.08986e-15
5.37558e-15
6.09084e-15
5.37349e-15
6.10009e-15
5.38459e-15
6.11394e-15
5.34337e-15
6.10794e-15
5.36362e-15
6.08421e-15
5.38453e-15
6.08467e-15
5.35477e-15
6.05901e-15
5.35357e-15
6.05956e-15
5.35414e-15
6.06985e-15
5.35171e-15
6.04835e-15
5.33317e-15
6.07995e-15
5.36187e-15
6.0865e-15
5.38179e-15
6.07887e-15
5.36765e-15
6.0808e-15
5.3562e-15
6.06452e-15
5.36472e-15
6.07115e-15
5.33569e-15
6.05954e-15
5.35081e-15
6.0652e-15
5.35713e-15
6.07104e-15
5.35642e-15
6.06991e-15
5.36082e-15
6.06813e-15
5.34858e-15
6.06733e-15
5.34996e-15
6.08893e-15
5.33827e-15
6.07299e-15
5.31965e-15
6.03528e-15
5.18479e-15
5.52554e-15
4.82101e-15
3.68176e-15
5.39511e-15
6.10872e-15
5.38796e-15
6.08828e-15
5.36877e-15
6.07963e-15
5.37064e-15
6.08629e-15
5.38266e-15
6.07636e-15
5.32437e-15
6.07812e-15
5.39334e-15
6.08555e-15
5.36914e-15
6.08623e-15
5.36813e-15
6.10021e-15
5.39392e-15
6.11077e-15
5.39926e-15
6.09607e-15
5.35714e-15
6.08774e-15
5.38751e-15
6.07825e-15
5.36323e-15
6.09222e-15
5.38361e-15
6.09025e-15
5.38437e-15
6.08468e-15
5.35611e-15
6.08316e-15
5.35932e-15
6.08844e-15
5.38787e-15
6.08679e-15
5.36033e-15
6.07774e-15
5.36903e-15
6.08333e-15
5.35847e-15
6.06942e-15
5.37451e-15
6.08113e-15
5.37125e-15
6.08007e-15
5.37063e-15
6.07876e-15
5.35159e-15
6.06969e-15
5.37181e-15
6.08312e-15
5.37055e-15
6.10253e-15
5.3996e-15
6.08199e-15
5.3462e-15
6.08006e-15
5.35572e-15
6.07644e-15
5.36177e-15
6.07492e-15
5.35727e-15
6.08768e-15