/*--------------------------------*- C++ -*----------------------------------*\
| =========                 |                                                 |
| \\      /  F ield         | OpenFOAM: The Open Source CFD Toolbox           |
|  \\    /   O peration     | Version:  2206                                  |
|   \\  /    A nd           | Website:  www.openfoam.com                      |
|    \\/     M anipulation  |                                                 |
\*---------------------------------------------------------------------------*/
FoamFile
{
    version     2.0;
    format      ascii;
    arch        "LSB;label=32;scalar=64";
    class       volVectorField;
    location    "0.3";
    object      wallShearStress;
}
// * * * * * * * * * * * * * * * * * * * * * * * * * * * * * * * * * * * * * //

dimensions      [0 2 -2 0 0 0 0];

internalField   uniform (0 0 0);

boundaryField
{
    wall
    {
        type            calculated;
        value           nonuniform List<vector> 
7960
(
(-5.42428e-07 -3.05853e-07 -0.000302174)
(-3.21968e-08 -1.05585e-08 -0.000303284)
(1.33044e-07 -2.73613e-08 -0.000302334)
(-9.89601e-08 -6.67428e-08 -0.000301901)
(-3.42175e-07 -1.20676e-07 -0.000302788)
(8.76045e-07 3.04983e-07 -0.000301916)
(-3.66906e-07 -1.94324e-07 -0.000302561)
(-1.08143e-06 -4.21913e-07 -0.000303423)
(-2.84391e-07 -1.33605e-07 -0.00030212)
(-4.04161e-07 -2.37004e-07 -0.000301796)
(5.3387e-07 1.66914e-07 -0.000302799)
(-3.03129e-08 -2.73423e-08 -0.000301498)
(-2.40258e-07 -1.43195e-07 -0.00030286)
(4.94591e-07 1.77111e-07 -0.00030291)
(6.67916e-07 1.82323e-07 -0.000302756)
(1.3602e-07 1.33087e-08 -0.000301872)
(-6.74602e-07 -2.51465e-07 -0.000302398)
(-4.05732e-07 -1.57809e-07 -0.00030272)
(-1.14589e-08 -5.77816e-08 -0.000301369)
(-3.43762e-07 -4.75851e-08 -0.00030285)
(-1.31926e-07 -1.58029e-10 -0.000317533)
(-2.88678e-07 -6.69802e-08 -0.000317036)
(8.66963e-08 7.95074e-08 -0.000316847)
(-3.08062e-08 2.02224e-08 -0.000317379)
(-2.16177e-07 -7.57422e-08 -0.000317032)
(9.08683e-08 5.15994e-08 -0.000317287)
(-4.58529e-07 -1.39786e-07 -0.000317167)
(2.13115e-07 1.32422e-07 -0.000316841)
(1.21444e-06 5.40455e-07 -0.000317491)
(-2.1689e-07 -3.96595e-08 -0.00031888)
(-4.61355e-07 -1.3388e-07 -0.000318205)
(-3.35485e-08 -2.93535e-08 -0.000318083)
(6.1157e-07 2.66591e-07 -0.00031813)
(1.92125e-07 1.39651e-07 -0.000317592)
(-1.36916e-07 -4.76588e-08 -0.000317651)
(-3.37386e-08 5.12145e-09 -0.000317439)
(-3.26465e-07 -8.69243e-08 -0.000316872)
(5.86461e-07 2.77375e-07 -0.000317095)
(-3.39235e-07 -9.00004e-08 -0.000317661)
(-1.97345e-07 -7.32888e-08 -0.000316875)
(3.64421e-07 1.73819e-07 -0.000317152)
(-6.39374e-07 -2.02138e-07 -0.000317132)
(-1.94327e-07 -2.90614e-08 -0.00031686)
(-1.75971e-07 -1.22013e-07 -0.000316903)
(5.62806e-07 2.74275e-07 -0.000316801)
(4.49111e-07 3.00341e-07 -0.000318151)
(-2.19233e-07 -4.84272e-08 -0.000317478)
(-6.21087e-07 -2.40354e-07 -0.000317145)
(-1.56451e-07 2.84518e-09 -0.000317827)
(4.95743e-08 7.74578e-08 -0.000317725)
(-3.53894e-07 -8.59147e-08 -0.000317337)
(1.54523e-07 1.80643e-08 -0.000317566)
(-4.02385e-07 -8.96753e-08 -0.000317826)
(-3.12348e-07 -8.0588e-08 -0.000317558)
(3.29452e-07 1.20818e-07 -0.000316849)
(4.94184e-07 2.06355e-07 -0.000317689)
(-7.98779e-07 -2.67812e-07 -0.000317053)
(-1.6948e-07 -1.77035e-08 -0.000317002)
(-3.75822e-07 -1.62981e-07 -0.000317217)
(-6.34408e-07 -2.573e-07 -0.000316941)
(-3.89289e-07 -5.82899e-08 -0.000317682)
(4.52312e-07 1.8083e-07 -0.000316713)
(-3.8395e-07 -1.00505e-07 -0.000317586)
(-6.26138e-07 -2.07052e-07 -0.00031676)
(2.01212e-08 4.03273e-08 -0.00031733)
(-9.67834e-07 -3.20715e-07 -0.000317315)
(-4.37185e-07 -1.49241e-07 -0.000316889)
(1.37248e-06 -1.7156e-08 -0.000294184)
(3.44541e-07 1.67795e-07 -0.00031668)
(9.06798e-07 6.94595e-07 -0.000309023)
(-2.61938e-07 -2.6894e-08 -0.000317309)
(-1.31489e-07 -1.56542e-08 -0.000317671)
(9.77932e-08 7.0428e-08 -0.000317388)
(-5.79389e-07 -1.66516e-07 -0.000317339)
(-6.0462e-07 -1.72326e-07 -0.000316848)
(-1.09204e-06 -4.18139e-07 -0.000316868)
(-3.80104e-07 -1.74058e-07 -0.000316416)
(3.55274e-07 2.03213e-07 -0.000317636)
(-3.45999e-07 -9.72611e-08 -0.000317114)
(2.61424e-07 1.25511e-07 -0.000317299)
(1.52784e-07 1.16779e-07 -0.000317257)
(1.83533e-07 5.14493e-08 -0.000316637)
(-7.25425e-08 3.94434e-08 -0.00031747)
(-7.08076e-07 -2.18024e-07 -0.000318425)
(-3.01775e-07 -7.28647e-08 -0.000316994)
(-5.20627e-07 -3.19009e-07 -0.000308445)
(1.2699e-06 1.04664e-06 -0.000294071)
(-3.34716e-07 -1.2765e-07 -0.000303462)
(-3.36567e-07 -1.04606e-07 -0.000302719)
(-1.64432e-07 -1.15112e-07 -0.000302489)
(2.55702e-07 4.94499e-08 -0.000302793)
(1.39359e-08 -3.15346e-08 -0.000302594)
(-5.7764e-08 -5.09968e-08 -0.000302702)
(-5.18894e-07 -2.01506e-07 -0.000301968)
(1.09407e-07 3.36481e-08 -0.000303121)
(1.10114e-06 2.60477e-07 -0.000302541)
(3.3427e-07 7.9128e-08 -0.000302323)
(-4.3154e-08 -6.69778e-08 -0.000304142)
(1.09352e-07 3.41655e-08 -0.000303319)
(7.82965e-07 1.99177e-07 -0.000303945)
(3.0457e-07 4.79229e-08 -0.000302789)
(-1.64261e-07 -1.03764e-07 -0.000302959)
(-4.11115e-07 -1.47974e-07 -0.000303218)
(-2.73591e-07 -6.74282e-08 -0.000302439)
(4.65735e-07 4.33837e-08 -0.000302458)
(-8.77531e-07 -2.61272e-07 -0.000302332)
(1.57608e-07 3.68895e-09 -0.000302942)
(1.05827e-07 -8.3098e-08 -0.000302139)
(-9.5573e-07 -2.57218e-07 -0.000302973)
(1.16206e-06 2.8434e-07 -0.000302497)
(4.75098e-08 -6.04112e-08 -0.000301532)
(3.60409e-07 1.55031e-07 -0.000302336)
(1.61724e-07 -1.50423e-08 -0.00030234)
(3.89777e-07 7.34548e-08 -0.00030344)
(-6.02894e-07 -2.66385e-07 -0.00030206)
(-3.4997e-08 4.02801e-08 -0.00030329)
(2.38658e-07 6.18975e-08 -0.000303191)
(-6.61445e-08 -4.48157e-08 -0.000302406)
(6.24985e-07 7.99249e-08 -0.000302646)
(-6.60699e-07 -2.14937e-07 -0.000302875)
(-5.18513e-07 -1.30226e-07 -0.000303163)
(1.22183e-07 -2.14156e-08 -0.000303373)
(-6.4522e-08 -3.58058e-08 -0.000302101)
(-2.3144e-07 -8.94007e-08 -0.000302627)
(3.13758e-07 4.81358e-08 -0.000302349)
(-2.16177e-07 -1.01796e-07 -0.000302185)
(-5.80877e-07 -1.81118e-07 -0.000302467)
(-6.48597e-07 -1.60122e-07 -0.000302292)
(5.18657e-07 8.30319e-08 -0.000303581)
(-4.22482e-08 -4.11677e-08 -0.000301724)
(-7.3179e-07 -2.2774e-07 -0.000302183)
(-4.88734e-07 -1.42421e-07 -0.000302415)
(-9.78619e-07 -2.83536e-07 -0.000303218)
(-9.64096e-08 4.35142e-09 -0.000302633)
(-6.36704e-08 -7.99782e-08 -0.00030203)
(-7.99408e-07 -2.19462e-07 -0.000302199)
(2.61886e-07 1.40917e-08 -0.000302373)
(3.24898e-07 6.65268e-08 -0.000302735)
(-9.25062e-07 -3.12625e-07 -0.000303001)
(-1.0134e-06 -2.89617e-07 -0.000302543)
(1.11776e-06 5.47214e-07 -0.000309459)
(-1.08413e-06 -3.64163e-07 -0.000302328)
(-5.0533e-07 -1.6289e-07 -0.00030335)
(1.32474e-07 2.95071e-08 -0.000301863)
(2.11563e-07 4.70003e-08 -0.000302703)
(1.99792e-08 -1.11419e-08 -0.000302847)
(2.35577e-07 2.39236e-08 -0.000302698)
(1.79197e-07 3.54661e-08 -0.000301989)
(-1.79467e-07 -1.45182e-07 -0.000302305)
(-2.52232e-07 -7.86362e-08 -0.000302853)
(3.80336e-08 -4.44937e-08 -0.000301839)
(-9.70052e-07 -2.98379e-07 -0.000302194)
(4.00182e-07 1.60452e-07 -0.000317547)
(1.57935e-07 6.26746e-08 -0.000317501)
(-4.3902e-07 -1.31586e-07 -0.000317064)
(7.13864e-07 2.62769e-07 -0.000317201)
(2.2797e-07 8.76164e-08 -0.000317094)
(3.66852e-07 1.6232e-07 -0.000316673)
(-7.01441e-08 4.16421e-08 -0.000317755)
(-7.99905e-07 -2.04154e-07 -0.000317242)
(5.03507e-07 1.60686e-07 -0.000316846)
(7.04575e-07 2.5053e-07 -0.000318122)
(-3.11884e-07 -2.73244e-08 -0.000318291)
(-3.09482e-07 -4.2312e-08 -0.000318459)
(-3.23568e-07 -7.96129e-08 -0.000317611)
(2.49805e-07 9.90398e-08 -0.000317727)
(-3.07878e-07 -7.32898e-08 -0.000317347)
(3.87093e-07 1.42384e-07 -0.000317522)
(-4.02005e-07 -7.6456e-08 -0.000317612)
(-4.01342e-07 -9.11398e-08 -0.000316885)
(-6.89736e-08 1.6252e-08 -0.000317528)
(-1.19613e-06 -2.91086e-07 -0.000317399)
(-3.80856e-07 -5.71758e-08 -0.000316475)
(-1.10712e-08 2.16525e-08 -0.000317003)
(2.48765e-07 1.08699e-07 -0.000317087)
(-2.11638e-07 -4.08349e-08 -0.000317348)
(-4.56302e-08 1.77649e-08 -0.000316537)
(2.19916e-07 7.84511e-08 -0.000317737)
(-2.08243e-07 -4.70693e-08 -0.000317619)
(-3.13768e-07 -5.77019e-08 -0.000317507)
(-7.15438e-08 4.70395e-08 -0.00031771)
(4.67392e-07 1.25146e-07 -0.000317531)
(-4.50399e-07 -7.45583e-08 -0.000317514)
(-8.28334e-08 -2.41039e-08 -0.000317463)
(-4.22857e-07 -5.60455e-08 -0.00031792)
(-1.09278e-06 -3.03286e-07 -0.000318039)
(-5.54136e-07 -6.97194e-08 -0.00031706)
(7.48876e-07 2.22938e-07 -0.000316706)
(-9.49204e-08 -7.02443e-09 -0.00031728)
(-4.99333e-08 5.01958e-08 -0.00031704)
(3.65063e-08 -3.27707e-09 -0.00031707)
(-2.98481e-07 -1.07176e-08 -0.000317342)
(-1.01214e-06 -2.65944e-07 -0.000318044)
(-8.95467e-07 -2.67538e-07 -0.000316446)
(7.14801e-07 2.15553e-07 -0.000317345)
(-1.58554e-07 4.4717e-08 -0.000317394)
(-1.40969e-07 -6.67484e-08 -0.000316901)
(2.59399e-07 1.61545e-07 -0.000317739)
(-1.02972e-06 -2.53712e-07 -0.000317323)
(-6.40523e-07 -1.41223e-07 -0.00031677)
(-3.20546e-07 -5.87144e-08 -0.000316963)
(-7.68542e-07 -1.99514e-07 -0.000318347)
(-3.17981e-07 -1.04084e-07 -0.000317305)
(-3.40143e-07 -6.84604e-08 -0.000317548)
(-1.13031e-07 -5.07211e-08 -0.000317409)
(-3.04561e-07 -4.32005e-08 -0.000317516)
(-7.69702e-07 -1.43e-07 -0.000317027)
(3.77079e-07 1.60625e-07 -0.000317236)
(3.9033e-07 1.60445e-07 -0.000317613)
(1.20146e-08 2.8833e-09 -0.000317267)
(-2.34004e-07 -1.60285e-08 -0.000317539)
(-1.30915e-07 7.79066e-09 -0.000316593)
(4.95012e-08 3.32757e-08 -0.000317108)
(-3.90113e-07 -4.27437e-08 -0.000318422)
(-4.26043e-07 1.24277e-08 -0.00031746)
(-1.22584e-06 -3.77817e-07 -0.000308933)
(1.36898e-06 -2.11625e-07 -0.000295122)
(5.75664e-07 8.18959e-07 -0.000309306)
(1.20249e-06 -9.07409e-07 -0.000294843)
(5.83612e-07 1.08536e-07 -0.000303668)
(1.20368e-07 -1.09295e-08 -0.000302456)
(-6.34462e-07 -1.20938e-07 -0.000301733)
(1.23441e-07 6.10988e-09 -0.000302994)
(-8.1949e-09 -6.33418e-08 -0.000302213)
(6.12393e-07 1.24088e-07 -0.000302518)
(5.38408e-07 6.74199e-08 -0.000301929)
(-2.35362e-07 -1.04756e-07 -0.000303062)
(5.04597e-07 6.42421e-08 -0.000303096)
(4.67939e-07 2.92916e-08 -0.000302296)
(6.72547e-07 1.29776e-07 -0.000303902)
(6.81438e-08 -6.36488e-08 -0.000303195)
(-2.57772e-07 -3.19363e-08 -0.000303796)
(-7.22638e-08 -3.32579e-08 -0.000303189)
(-5.98684e-07 -1.09593e-07 -0.000302263)
(2.80484e-08 -6.11909e-08 -0.00030362)
(-3.82335e-07 -1.00709e-07 -0.00030248)
(-1.59222e-07 -5.27727e-08 -0.000302593)
(-5.31884e-07 -1.46021e-07 -0.000302872)
(-1.09645e-06 -1.52011e-07 -0.000302651)
(2.12041e-07 3.503e-08 -0.000302619)
(-1.0386e-06 -2.72158e-07 -0.000302646)
(-1.82533e-08 1.15388e-08 -0.000303004)
(1.06136e-06 1.28118e-07 -0.000302256)
(1.32237e-07 -6.48151e-08 -0.000302257)
(-1.61238e-07 -1.01681e-07 -0.000302651)
(-3.78455e-07 -6.65702e-08 -0.000303318)
(3.19476e-07 1.21146e-08 -0.000302259)
(-9.1566e-08 -8.44784e-09 -0.000302911)
(1.81795e-07 -4.04229e-08 -0.000303465)
(-2.12469e-07 -7.96702e-08 -0.000302191)
(5.2882e-07 4.32118e-08 -0.000303173)
(-2.2951e-07 -1.1744e-07 -0.000302835)
(-9.26979e-07 -1.8026e-07 -0.000303548)
(-2.01571e-07 -9.8869e-09 -0.000303758)
(1.95106e-07 -5.82003e-08 -0.000302537)
(-5.2738e-07 -1.12943e-07 -0.000302144)
(4.20101e-07 7.96058e-08 -0.000302614)
(2.49572e-07 -9.60783e-09 -0.000302342)
(2.20963e-07 1.76675e-08 -0.00030255)
(-1.03261e-06 -1.91278e-07 -0.000302236)
(-4.81403e-07 -7.28408e-08 -0.000303932)
(2.16301e-07 -9.54845e-10 -0.000302432)
(1.44183e-07 -1.90511e-08 -0.00030181)
(-1.73913e-07 -3.17883e-08 -0.000302044)
(-1.35695e-07 -7.99744e-08 -0.000303315)
(-9.99186e-07 -1.76131e-07 -0.000302513)
(-4.77771e-08 -3.66325e-08 -0.000302805)
(-4.714e-07 -1.10398e-07 -0.000302356)
(-8.26727e-07 -1.71946e-07 -0.000302436)
(1.4159e-07 3.21645e-09 -0.00030349)
(-7.75182e-08 -9.28833e-08 -0.00030309)
(-2.95966e-07 -7.73064e-08 -0.000302705)
(-4.12996e-07 -9.7443e-08 -0.000302171)
(-5.32837e-07 -6.81974e-08 -0.00030304)
(2.49545e-07 3.69739e-08 -0.000302437)
(6.08222e-07 7.56718e-08 -0.000302996)
(-1.49707e-07 -6.37779e-08 -0.000302515)
(-2.40536e-07 -4.97679e-08 -0.000302691)
(-3.28011e-09 -7.99878e-08 -0.000302209)
(-6.09157e-08 -2.12076e-08 -0.00030201)
(-5.96291e-07 -1.47269e-07 -0.000302424)
(5.45434e-07 6.57815e-08 -0.000302539)
(-6.94682e-07 -1.00282e-07 -0.000301603)
(-4.13331e-07 -4.23524e-08 -0.000317114)
(8.21849e-07 1.69585e-07 -0.000317066)
(-4.04797e-07 -2.77162e-08 -0.000317519)
(-2.14204e-07 -4.26677e-08 -0.00031713)
(2.18245e-07 8.81983e-08 -0.000317156)
(9.73261e-08 -7.70441e-09 -0.000316437)
(6.80041e-07 1.60127e-07 -0.000317208)
(-3.71315e-07 -2.16649e-08 -0.00031782)
(-2.62959e-07 -4.62973e-08 -0.000317339)
(3.8924e-07 1.04075e-07 -0.000317455)
(5.34711e-07 1.36906e-07 -0.000317802)
(-2.71565e-09 2.96508e-08 -0.000318613)
(-4.32535e-07 -6.4451e-08 -0.000318209)
(2.94289e-07 1.12999e-07 -0.000317894)
(-4.42396e-07 -6.91773e-08 -0.000317561)
(-3.1259e-07 -7.15359e-09 -0.000317011)
(1.62962e-08 1.48175e-08 -0.000317696)
(-7.71922e-07 -1.2409e-07 -0.000317489)
(1.33363e-07 9.15991e-08 -0.00031701)
(5.59856e-08 5.7033e-08 -0.00031815)
(-8.85556e-07 -1.34094e-07 -0.000317408)
(-7.08319e-07 -1.11233e-07 -0.000316997)
(3.08147e-07 9.6309e-08 -0.000316957)
(1.02069e-06 1.69911e-07 -0.000317451)
(6.3023e-08 2.79017e-08 -0.000317075)
(3.90102e-07 7.92815e-08 -0.000317526)
(1.68856e-07 7.96652e-08 -0.000317672)
(-1.84767e-07 1.05486e-08 -0.000317618)
(-4.09838e-07 9.97492e-09 -0.000317734)
(-2.76964e-07 -4.93211e-08 -0.000317318)
(-2.9892e-07 -7.39484e-09 -0.000317556)
(-2.66357e-07 -4.02351e-08 -0.000317541)
(-2.84071e-07 -5.11119e-08 -0.000317745)
(-5.05058e-08 3.53505e-08 -0.000318284)
(-3.06542e-07 4.00632e-09 -0.000318274)
(-3.52079e-07 -1.05494e-07 -0.000316653)
(4.32005e-07 1.1985e-07 -0.000317012)
(-6.01985e-08 2.90531e-08 -0.000317147)
(1.80511e-07 6.89638e-08 -0.000316883)
(5.82475e-07 1.18734e-07 -0.000317348)
(-8.54409e-08 2.05137e-08 -0.000317855)
(-1.25303e-06 -1.42011e-07 -0.000317302)
(5.09877e-08 4.24535e-08 -0.000316861)
(3.94393e-07 1.0498e-07 -0.000317562)
(-1.85445e-07 -8.76608e-09 -0.000316948)
(2.02468e-07 7.25579e-08 -0.000316986)
(-1.54202e-08 2.96133e-08 -0.000317643)
(-6.10534e-07 -5.36146e-08 -0.000317481)
(-4.60695e-07 -1.23228e-07 -0.000316631)
(5.01163e-08 8.43355e-08 -0.000318338)
(-5.93994e-07 -7.27701e-08 -0.000317594)
(-6.12943e-07 -9.40998e-08 -0.000317448)
(6.58655e-08 4.57298e-08 -0.000317299)
(4.70028e-07 9.58717e-08 -0.000317124)
(-1.08318e-07 5.8105e-08 -0.000317506)
(1.52074e-07 4.28083e-08 -0.000317297)
(6.02322e-07 1.49639e-07 -0.000317482)
(1.88318e-07 5.30987e-08 -0.000317046)
(-2.62307e-08 2.4286e-08 -0.00031735)
(-8.91829e-07 -1.22253e-07 -0.00031711)
(-4.07437e-07 -6.44549e-08 -0.000316913)
(-2.90566e-08 5.31285e-08 -0.000318252)
(4.46058e-07 1.58825e-07 -0.0003175)
(-8.16007e-07 -1.72287e-07 -0.00030907)
(1.23869e-06 -4.31139e-07 -0.000293935)
(1.66303e-07 1.06457e-06 -0.00030864)
(8.61082e-07 -1.37915e-06 -0.000294491)
(-2.81055e-07 -1.37584e-08 -0.000303698)
(5.02304e-07 -3.34806e-08 -0.00030306)
(-9.44258e-08 -3.29571e-08 -0.000301552)
(-1.12051e-07 -3.48381e-08 -0.00030326)
(1.62024e-07 2.56128e-08 -0.000302252)
(-1.38468e-07 -6.30683e-08 -0.000302443)
(2.32199e-07 -2.77883e-08 -0.000302151)
(-7.41503e-08 1.96149e-08 -0.000302442)
(-1.97911e-08 -6.41698e-08 -0.000303206)
(7.26438e-08 -1.3227e-08 -0.000302438)
(-2.98297e-07 -8.66165e-08 -0.000303898)
(5.07117e-07 -8.43571e-09 -0.000303615)
(5.32842e-07 -3.08931e-08 -0.000303871)
(2.95893e-07 8.21174e-09 -0.000303173)
(-7.77504e-07 -9.26548e-08 -0.000301755)
(-6.06381e-07 -3.24217e-08 -0.000303591)
(-1.94765e-07 -2.77822e-08 -0.000302832)
(-5.91581e-07 -7.02329e-08 -0.000302235)
(3.44015e-07 7.2867e-08 -0.000303069)
(-1.16676e-08 -6.128e-08 -0.000302597)
(-3.91126e-07 -3.21465e-08 -0.000302586)
(-8.92857e-08 -3.96093e-08 -0.000303204)
(-4.84857e-07 -4.97338e-08 -0.000302859)
(3.58608e-07 1.35038e-08 -0.000302364)
(1.14579e-06 -1.42004e-08 -0.000302316)
(4.97915e-07 -1.67657e-08 -0.000302226)
(-1.38522e-07 -7.96017e-08 -0.000303014)
(4.81252e-07 3.54259e-08 -0.000302795)
(-7.35324e-08 -8.59402e-08 -0.00030312)
(-3.07755e-07 -5.59682e-08 -0.000303929)
(-1.89802e-07 -7.32675e-08 -0.000302652)
(-3.433e-07 -5.88301e-08 -0.000303119)
(5.87835e-07 8.21052e-09 -0.000303468)
(5.78557e-07 4.98011e-09 -0.000303424)
(-1.52872e-07 -2.80642e-08 -0.000303592)
(-4.02623e-08 -5.0415e-09 -0.000302691)
(-2.58573e-08 -5.18532e-08 -0.000302402)
(-3.29189e-07 -3.1466e-08 -0.000302385)
(5.53605e-07 2.17545e-08 -0.000302415)
(4.15508e-07 -2.27009e-08 -0.000302222)
(-2.9448e-08 -4.39226e-09 -0.00030185)
(-1.05981e-06 -8.2921e-08 -0.000303171)
(1.26726e-08 3.29089e-08 -0.000302831)
(6.93571e-07 -1.78172e-08 -0.000302337)
(1.24906e-08 -9.32665e-08 -0.000301819)
(1.85156e-07 -4.84773e-08 -0.000303463)
(-2.19854e-07 -2.30003e-08 -0.000302439)
(-2.53085e-07 -8.58979e-11 -0.000302522)
(-3.50503e-07 -5.56208e-08 -0.000302412)
(-5.85357e-07 -5.81996e-08 -0.000302387)
(8.16346e-08 -2.13253e-08 -0.000303851)
(-7.60381e-07 -7.69319e-08 -0.000302429)
(6.04043e-07 -1.30629e-08 -0.000303367)
(4.85619e-07 -1.11602e-09 -0.00030195)
(-1.2071e-07 -2.43546e-08 -0.00030235)
(-5.18057e-08 -1.24271e-08 -0.000302459)
(4.44607e-07 3.68492e-08 -0.00030304)
(3.93986e-07 -1.26696e-08 -0.000302362)
(-2.29408e-07 -2.20716e-08 -0.000302331)
(-2.95324e-08 -3.35191e-08 -0.000302448)
(-3.00965e-07 -1.63226e-08 -0.000301952)
(5.37106e-08 -4.87468e-08 -0.000302364)
(4.19223e-07 -5.95408e-08 -0.000302781)
(-6.08828e-07 4.01581e-08 -0.000300739)
(-8.84821e-07 -2.27205e-08 -0.000317944)
(2.6482e-08 -1.63884e-08 -0.000316659)
(4.85107e-07 1.01634e-07 -0.00031722)
(4.71225e-08 5.96389e-08 -0.00031744)
(2.28805e-07 2.56766e-08 -0.000317144)
(-4.50527e-07 -4.43491e-08 -0.000316854)
(1.01146e-07 5.64983e-08 -0.000316683)
(4.90091e-07 9.40028e-08 -0.000317265)
(-3.54639e-07 1.12595e-08 -0.000317844)
(6.30715e-08 3.95358e-09 -0.000318001)
(4.8862e-07 4.43803e-08 -0.000317853)
(1.01063e-06 7.61762e-08 -0.00031824)
(-4.17433e-07 1.86595e-08 -0.000318189)
(-1.32089e-07 2.85787e-08 -0.00031763)
(-4.84608e-07 -3.55199e-08 -0.000317626)
(-3.67306e-07 1.18279e-08 -0.000317342)
(3.4996e-07 4.59753e-08 -0.000317221)
(-3.82053e-07 4.86298e-09 -0.000318137)
(-2.94155e-07 -7.04684e-09 -0.000316875)
(5.94258e-07 4.65282e-08 -0.000317131)
(2.51201e-07 4.27286e-08 -0.000317801)
(7.54878e-08 7.68849e-08 -0.000317206)
(3.0218e-07 8.17971e-08 -0.00031705)
(5.64791e-07 3.27221e-08 -0.000316856)
(9.26823e-08 3.59678e-08 -0.000317291)
(-1.15317e-07 -7.17281e-09 -0.000317109)
(-1.91371e-07 3.36776e-08 -0.000317315)
(4.22055e-07 4.87258e-08 -0.000317715)
(-5.83275e-08 2.97733e-09 -0.000318224)
(5.30973e-08 2.84644e-08 -0.000317688)
(2.63984e-07 3.14614e-08 -0.000317686)
(3.18063e-08 -9.74306e-09 -0.000317924)
(1.47117e-07 7.37581e-08 -0.000317812)
(3.39726e-07 6.8288e-08 -0.000317491)
(5.38968e-07 8.08215e-08 -0.000318136)
(-1.96895e-07 2.78803e-08 -0.000317183)
(5.11182e-07 9.07989e-08 -0.000316431)
(4.15753e-07 6.69087e-08 -0.000317247)
(-1.38589e-07 2.44262e-08 -0.000316797)
(3.51334e-08 1.38034e-08 -0.000317192)
(3.9863e-07 7.50648e-08 -0.000317)
(-3.43904e-07 2.62232e-08 -0.000317958)
(-9.12687e-07 -5.65807e-08 -0.000316895)
(5.68802e-07 3.89019e-08 -0.0003173)
(-5.71168e-07 -2.59694e-08 -0.000317403)
(-1.46494e-07 -8.20067e-09 -0.000317045)
(1.12792e-06 1.08532e-07 -0.000317015)
(5.28412e-07 9.42163e-08 -0.000317616)
(-5.48158e-07 -1.54973e-08 -0.00031695)
(-2.38189e-07 3.95095e-08 -0.000317675)
(-1.11237e-07 3.11783e-08 -0.000317938)
(-7.54512e-07 -1.92897e-08 -0.000317496)
(-3.85624e-07 1.22679e-08 -0.00031738)
(3.3879e-07 3.50572e-08 -0.00031664)
(3.27231e-07 8.01797e-08 -0.000317302)
(-3.07609e-07 1.27831e-08 -0.000317472)
(-4.94555e-08 -5.38845e-09 -0.0003174)
(-4.26311e-08 6.55746e-08 -0.000316844)
(-2.26426e-07 6.30409e-09 -0.000316489)
(5.22759e-08 7.40429e-08 -0.000317418)
(-2.66749e-07 2.70725e-08 -0.000316987)
(-9.29929e-07 -2.52885e-08 -0.00031779)
(-4.48712e-07 2.18126e-08 -0.000317104)
(2.86278e-07 -5.33918e-08 -0.000309289)
(1.90342e-07 1.06077e-06 -0.000307864)
(7.78903e-07 -1.32112e-06 -0.000293456)
(-1.03128e-07 -2.79525e-08 -0.000304115)
(-3.97013e-09 -3.70476e-08 -0.000301709)
(4.15647e-07 -3.29385e-08 -0.000303028)
(2.67182e-07 -5.85402e-08 -0.000302412)
(-3.79848e-07 -2.54657e-08 -0.000302291)
(2.51134e-07 -3.7646e-08 -0.000302286)
(-3.96465e-07 -4.96617e-08 -0.000302436)
(3.80855e-08 -1.19987e-08 -0.000303175)
(3.88298e-07 -8.04041e-08 -0.000302962)
(3.37296e-07 1.2095e-08 -0.000303754)
(-1.40912e-07 -6.08195e-08 -0.000303202)
(-1.9139e-07 2.17565e-09 -0.000303208)
(4.85056e-07 -8.45605e-08 -0.000303744)
(5.23679e-07 -9.40052e-08 -0.000302245)
(-2.61537e-07 -9.45412e-09 -0.000303267)
(8.13506e-08 -2.0752e-08 -0.000303118)
(-4.75511e-08 -1.16171e-08 -0.000302076)
(1.15052e-06 -5.99112e-07 -0.000292797)
(-6.82965e-07 -3.99478e-08 -0.000302934)
(1.6194e-07 -2.78338e-08 -0.000303169)
(7.42064e-08 -4.21932e-08 -0.000302306)
(1.85745e-07 5.02776e-09 -0.00030269)
(3.26058e-07 -5.87975e-08 -0.000303001)
(-1.01243e-07 -3.39258e-08 -0.000302476)
(1.26516e-07 -4.56516e-09 -0.000302244)
(8.60976e-08 -4.07611e-08 -0.000302229)
(7.2511e-08 -5.67393e-08 -0.000303012)
(3.81489e-07 -4.04898e-08 -0.000303052)
(3.99142e-07 -2.48412e-08 -0.000302895)
(1.8439e-07 -2.66661e-08 -0.000303671)
(6.88281e-07 -7.82359e-08 -0.000302981)
(-1.29079e-07 -5.54611e-08 -0.000302827)
(-6.01966e-08 5.82925e-08 -0.000302958)
(1.47087e-07 -4.30215e-08 -0.000303055)
(1.62136e-07 -4.00844e-08 -0.000303587)
(4.68472e-07 -4.90717e-08 -0.000302545)
(3.88295e-07 -5.8565e-08 -0.0003022)
(-1.04819e-07 -1.882e-08 -0.000302299)
(-1.35037e-07 -2.85957e-09 -0.000302469)
(2.40459e-08 -3.18648e-08 -0.000302441)
(6.65418e-07 -3.06902e-08 -0.000302209)
(-2.37715e-07 -4.47355e-08 -0.000302629)
(-8.62503e-07 -4.57708e-09 -0.00030285)
(3.35042e-07 -3.09324e-08 -0.000303429)
(8.57769e-07 -7.86183e-08 -0.000302089)
(4.78632e-08 -3.68662e-08 -0.000302616)
(6.3925e-07 -1.22147e-07 -0.00030276)
(2.02056e-07 -3.48326e-08 -0.000302182)
(-1.45682e-07 -4.39164e-08 -0.000302087)
(-3.9003e-07 -3.55445e-08 -0.000302636)
(-1.83133e-07 -7.63095e-09 -0.000303935)
(-4.91671e-07 2.24199e-08 -0.000302596)
(-1.76556e-07 -4.02582e-09 -0.000303511)
(8.82205e-07 -6.46582e-08 -0.000302594)
(9.7893e-08 -6.41164e-08 -0.000301786)
(-1.74632e-07 4.32178e-09 -0.000302396)
(-3.71485e-07 -3.94088e-08 -0.000303119)
(-8.35184e-08 -2.22812e-08 -0.000302323)
(-4.48354e-07 -4.20416e-08 -0.000302252)
(-2.34818e-08 3.27671e-08 -0.000302361)
(-1.52329e-07 -4.94057e-08 -0.00030199)
(-1.18488e-06 1.60033e-08 -0.000301844)
(-6.12913e-07 -4.16861e-08 -0.00030291)
(2.15207e-07 3.7084e-08 -0.000301285)
(2.82308e-07 1.09649e-06 -0.000307572)
(-1.04319e-06 3.09191e-08 -0.000317398)
(-1.61544e-08 2.89414e-08 -0.000317025)
(6.97362e-08 5.64323e-08 -0.000317222)
(2.38288e-07 -1.47844e-08 -0.000316869)
(3.45521e-07 2.36789e-08 -0.000317018)
(-4.79402e-07 2.63826e-08 -0.00031712)
(9.11524e-08 1.96477e-08 -0.000316936)
(-9.9086e-08 5.25296e-08 -0.000317828)
(-2.81872e-08 2.58093e-08 -0.000318612)
(2.56874e-07 -4.44992e-09 -0.00031809)
(4.15872e-07 -2.01639e-08 -0.000317574)
(3.73464e-08 6.83246e-08 -0.000317766)
(-5.36244e-07 4.48208e-08 -0.000317702)
(2.17823e-09 1.01268e-08 -0.000317868)
(-3.62852e-07 2.6484e-08 -0.000317645)
(-2.61231e-07 4.85156e-08 -0.00031681)
(5.96245e-07 7.76916e-09 -0.000317793)
(-5.67095e-07 8.11345e-08 -0.000317588)
(2.3687e-07 6.66149e-09 -0.000317085)
(3.87005e-07 3.59274e-08 -0.000317615)
(-6.41216e-07 6.13471e-08 -0.000317201)
(-1.43812e-07 1.69114e-08 -0.000317222)
(4.18995e-08 2.22319e-08 -0.000316529)
(7.82329e-07 1.56411e-08 -0.000317333)
(-1.49549e-08 -6.61685e-09 -0.000317391)
(-3.09517e-07 5.50824e-08 -0.000317405)
(5.12404e-07 -2.84691e-08 -0.000317558)
(7.18025e-07 1.38408e-08 -0.00031805)
(5.85934e-08 -1.27124e-08 -0.000317694)
(4.1921e-07 1.1387e-08 -0.000317375)
(6.91683e-07 2.12232e-09 -0.00031779)
(4.7173e-07 1.7142e-09 -0.000318005)
(-6.58734e-07 3.70128e-08 -0.000317683)
(3.08333e-07 2.80836e-08 -0.000317494)
(-6.87776e-08 3.15035e-08 -0.000317701)
(1.34523e-07 -3.93624e-08 -0.000316662)
(5.85886e-07 3.71429e-08 -0.000316994)
(2.11425e-07 1.52902e-08 -0.000317195)
(-9.09623e-09 3.8861e-08 -0.000317446)
(-2.04207e-07 2.43843e-08 -0.000316792)
(-1.58405e-07 2.51765e-08 -0.000317405)
(-8.47708e-07 7.01159e-08 -0.000317687)
(1.56314e-07 1.80913e-08 -0.000316605)
(8.31161e-07 5.33475e-09 -0.000317723)
(-8.08157e-07 6.03701e-08 -0.00031734)
(-4.50476e-07 1.05267e-08 -0.000316756)
(5.88581e-07 -9.76964e-09 -0.000317048)
(-1.79276e-07 5.64004e-08 -0.000317224)
(-1.24313e-07 4.86743e-08 -0.000317566)
(-1.77854e-07 2.38148e-08 -0.000318026)
(4.43416e-08 5.86338e-08 -0.000317566)
(1.12161e-07 2.27942e-08 -0.000317655)
(4.83183e-07 2.14642e-08 -0.000316882)
(5.14893e-08 5.43962e-09 -0.000316983)
(-3.81992e-08 5.51213e-08 -0.000317546)
(-5.11726e-07 5.49438e-08 -0.000317448)
(-8.45424e-07 -2.24495e-09 -0.000317274)
(-8.74247e-07 9.78424e-08 -0.00031648)
(1.49815e-07 6.7115e-08 -0.000317128)
(3.52983e-07 8.37131e-09 -0.000317251)
(-1.77233e-07 4.0453e-08 -0.000317801)
(-1.4453e-06 2.16606e-07 -0.00031731)
(-7.68082e-08 -9.52201e-08 -0.00030888)
(1.50613e-06 -2.66446e-07 -0.000293118)
(6.63852e-07 6.60377e-07 -0.000307707)
(-8.24773e-07 1.31395e-07 -0.00030406)
(-2.88056e-07 4.15572e-08 -0.000302244)
(-2.66901e-07 2.66625e-08 -0.000302785)
(9.83079e-08 -7.50012e-08 -0.000302589)
(2.58897e-07 -4.48457e-08 -0.000302264)
(-4.06286e-07 2.12072e-08 -0.000301872)
(-3.20166e-07 4.19676e-08 -0.000302808)
(-6.93836e-07 7.66054e-08 -0.000303157)
(2.61694e-07 -3.18297e-08 -0.000303135)
(4.82152e-07 -1.05635e-07 -0.00030394)
(2.59925e-07 -5.03773e-08 -0.000303219)
(-7.3562e-07 6.95435e-08 -0.000302594)
(-6.48273e-07 1.15669e-07 -0.000304086)
(5.70007e-07 -1.12172e-07 -0.000302927)
(7.7896e-08 -7.62052e-08 -0.000303215)
(-3.03002e-07 3.06769e-08 -0.000302895)
(5.21144e-08 -7.01262e-08 -0.000302392)
(6.17876e-07 -1.0391e-07 -0.000303088)
(2.61887e-07 -4.70659e-08 -0.000303205)
(5.5063e-09 -6.69837e-08 -0.000302438)
(-6.38366e-07 5.61033e-08 -0.000302605)
(-5.40911e-07 3.59773e-08 -0.000303285)
(-2.53281e-07 3.05111e-09 -0.000302645)
(1.62228e-07 -6.58679e-08 -0.00030249)
(4.90766e-07 -8.81973e-08 -0.000302431)
(1.32105e-07 -3.24563e-08 -0.000302711)
(2.54247e-07 -9.56727e-08 -0.000303178)
(3.82716e-07 -1.04103e-07 -0.000302908)
(-8.39482e-08 1.65171e-08 -0.00030336)
(6.06904e-07 -1.04416e-07 -0.000302985)
(9.51201e-07 -1.79808e-07 -0.000302772)
(3.43501e-07 -1.46026e-07 -0.000303063)
(-5.32995e-07 1.02946e-07 -0.000302747)
(-1.2721e-07 -1.24474e-08 -0.000304048)
(2.13236e-07 -3.69035e-08 -0.000302591)
(3.80204e-08 -1.08671e-07 -0.000302277)
(5.23387e-07 -7.52783e-08 -0.000302409)
(1.07052e-06 -7.89374e-07 -0.00029364)
(1.02842e-07 -4.56414e-08 -0.000302162)
(-2.32416e-08 -2.00626e-08 -0.000302281)
(-2.51801e-08 -6.50547e-08 -0.000302567)
(-1.63297e-07 -3.13244e-08 -0.000302805)
(-7.20074e-07 8.90574e-08 -0.00030253)
(-2.46437e-07 1.55424e-08 -0.000303635)
(5.44793e-07 -1.10202e-07 -0.000302598)
(3.18098e-07 -8.75114e-08 -0.000302532)
(6.73264e-08 -9.89814e-09 -0.000302658)
(1.6897e-07 -1.08106e-07 -0.000302603)
(-1.34882e-07 1.64917e-08 -0.000301715)
(-1.55162e-07 -7.29198e-08 -0.000302777)
(-5.05378e-07 7.65504e-08 -0.000303805)
(4.5342e-07 -5.6413e-08 -0.000302945)
(-1.57311e-07 -1.5263e-08 -0.000302947)
(4.94873e-07 -9.53045e-08 -0.00030276)
(1.63683e-07 -7.89711e-08 -0.000301687)
(-7.67352e-08 -2.56101e-08 -0.000302434)
(-2.25156e-07 6.1111e-09 -0.00030302)
(-1.0731e-06 1.33032e-07 -0.000302381)
(-8.06706e-07 1.22803e-07 -0.000302374)
(-4.95691e-07 3.641e-08 -0.000302529)
(3.89447e-07 -1.1745e-07 -0.000302282)
(-8.88934e-07 8.64566e-08 -0.00030139)
(-1.50932e-06 2.94633e-07 -0.000302496)
(2.30858e-07 3.16585e-08 -0.000302817)
(-3.66869e-07 1.02711e-07 -0.000318)
(3.15249e-08 1.32985e-08 -0.000317457)
(-6.86695e-07 1.23052e-07 -0.00031728)
(-4.26181e-07 1.05573e-07 -0.000317022)
(5.68351e-07 -7.16305e-08 -0.000316642)
(-1.38606e-07 5.05215e-08 -0.000317695)
(1.89107e-07 -2.64816e-08 -0.000317386)
(4.4886e-07 -3.67305e-09 -0.000317808)
(3.18229e-08 5.57232e-08 -0.0003185)
(-9.86737e-08 4.49057e-08 -0.000318006)
(6.60314e-07 -5.58324e-08 -0.00031755)
(2.86763e-08 -3.30145e-08 -0.00031791)
(-1.08735e-08 9.89108e-08 -0.000317833)
(1.4479e-07 -4.29705e-09 -0.000317878)
(1.49882e-07 -8.58901e-09 -0.000317533)
(-3.23318e-08 5.07929e-08 -0.000317373)
(2.90084e-08 9.12978e-09 -0.000317163)
(8.77406e-08 6.80591e-08 -0.000317804)
(1.35325e-07 -1.72171e-08 -0.00031735)
(4.99715e-07 -9.03877e-08 -0.000317382)
(2.83945e-07 8.1053e-09 -0.000317778)
(-3.69958e-07 6.59036e-08 -0.000317473)
(-4.7993e-07 9.48762e-08 -0.000317005)
(3.1546e-07 -4.01968e-08 -0.000316987)
(8.71824e-07 -9.56139e-08 -0.000317342)
(1.8418e-07 3.5596e-08 -0.000317575)
(-2.53928e-07 4.3319e-08 -0.000317817)
(2.06855e-07 -9.0844e-09 -0.000317882)
(5.18323e-07 -3.78377e-08 -0.000317697)
(2.12518e-07 1.13675e-08 -0.00031734)
(5.29777e-07 -6.09841e-08 -0.000317324)
(5.12795e-07 -6.98365e-08 -0.000317644)
(1.95468e-07 9.04906e-09 -0.000318311)
(-2.18952e-07 8.23227e-08 -0.000317206)
(-4.09979e-08 2.54697e-08 -0.000317668)
(-4.71648e-07 8.00013e-08 -0.000316997)
(2.46422e-07 4.04603e-09 -0.000316591)
(7.69647e-07 -6.4189e-08 -0.00031695)
(-1.73015e-09 1.69127e-08 -0.000317051)
(-6.941e-08 3.77127e-08 -0.000317378)
(-1.32926e-07 6.65892e-08 -0.000317135)
(-9.87459e-08 8.02485e-08 -0.000318106)
(-1.04992e-06 1.52411e-07 -0.000317013)
(7.6301e-07 -7.18876e-08 -0.000316921)
(7.50647e-07 -7.9221e-08 -0.000317501)
(-1.4899e-07 5.21777e-08 -0.000317233)
(3.85295e-08 -7.32344e-09 -0.000316837)
(7.95398e-08 -1.86145e-08 -0.000317438)
(-6.51226e-08 3.70145e-08 -0.00031771)
(-1.20296e-08 6.00523e-08 -0.000317965)
(8.94196e-08 4.35947e-08 -0.000317511)
(-2.8519e-07 8.10511e-08 -0.000317287)
(1.01411e-07 4.03838e-09 -0.000317102)
(1.53707e-07 2.2012e-08 -0.000316799)
(8.95457e-08 3.16442e-08 -0.000317297)