/*--------------------------------*- C++ -*----------------------------------*\
| =========                 |                                                 |
| \\      /  F ield         | OpenFOAM: The Open Source CFD Toolbox           |
|  \\    /   O peration     | Version:  2206                                  |
|   \\  /    A nd           | Website:  www.openfoam.com                      |
|    \\/     M anipulation  |                                                 |
\*---------------------------------------------------------------------------*/
FoamFile
{
    version     2.0;
    format      ascii;
    arch        "LSB;label=32;scalar=64";
    class       volScalarField;
    location    "26";
    object      nut;
}
// * * * * * * * * * * * * * * * * * * * * * * * * * * * * * * * * * * * * * //

dimensions      [0 2 -1 0 0 0 0];

internalField   nonuniform List<scalar> 
66928
(
1.20204e-06
1.24916e-06
1.23663e-06
1.24332e-06
1.21914e-06
1.26267e-06
1.21515e-06
1.20228e-06
1.349e-06
1.36547e-06
1.491e-08
1.46785e-08
7.96446e-08
7.49198e-08
3.35123e-08
2.27391e-07
3.2822e-08
1.80076e-07
2.15384e-07
1.41664e-06
6.28168e-07
3.35783e-08
1.80147e-07
1.41779e-06
2.17594e-07
6.27883e-07
1.53114e-08
7.83257e-08
7.72342e-08
1.45106e-08
2.18069e-07
3.27171e-08
1.51359e-08
1.49685e-08
1.48174e-08
1.45051e-08
8.25957e-08
7.69709e-08
1.20125e-06
7.94934e-08
7.58117e-08
1.51357e-08
1.54051e-08
1.46016e-08
1.48692e-08
1.2101e-06
8.02129e-08
7.56012e-08
8.18447e-08
7.63742e-08
1.51468e-08
1.65051e-07
3.97349e-07
8.04427e-08
3.05907e-08
3.06638e-08
4.0357e-07
1.66315e-07
1.61554e-07
3.81241e-07
7.60041e-08
2.9505e-08
2.94843e-08
3.83467e-07
1.5882e-07
4.08058e-08
1.26613e-08
1.23638e-08
1.25436e-08
1.23637e-08
4.14993e-08
3.40638e-08
7.34017e-08
7.5928e-08
1.28101e-08
7.3049e-08
1.24525e-08
1.4124e-07
2.40031e-08
2.04867e-08
7.30488e-08
1.26687e-08
2.44908e-08
1.41917e-07
2.02744e-08
1.659e-07
3.89943e-07
8.0508e-08
3.04999e-08
3.91508e-07
3.03586e-08
1.64294e-07
1.67118e-07
3.89835e-07
7.80087e-08
3.06664e-08
3.05852e-08
3.94059e-07
1.68118e-07
4.26967e-08
1.28938e-08
1.29042e-08
1.29488e-08
1.29675e-08
4.24133e-08
1.45927e-08
3.26346e-08
7.10325e-08
7.1451e-08
1.23088e-08
1.50725e-08
1.50955e-08
1.48637e-08
1.46143e-08
4.00066e-08
1.26549e-08
1.23812e-08
1.27026e-08
1.2545e-08
4.15523e-08
1.60585e-07
4.15707e-07
3.08657e-08
8.09758e-08
1.63446e-07
3.12548e-08
3.97905e-07
1.56177e-07
3.91878e-07
2.97843e-08
7.82166e-08
1.62451e-07
3.00592e-08
3.94581e-07
4.0294e-08
1.27303e-08
1.25005e-08
4.01667e-08
1.2763e-08
1.25817e-08
1.65862e-07
3.09599e-08
8.09171e-08
3.96997e-07
3.12536e-08
1.67082e-07
4.02458e-07
1.60129e-07
2.95875e-08
7.8787e-08
3.79561e-07
3.00702e-08
1.57691e-07
3.95191e-07
1.53447e-08
1.51526e-08
1.46741e-08
1.46403e-08
3.98018e-08
1.27485e-08
1.25392e-08
4.02951e-08
1.2678e-08
1.2382e-08
1.5898e-07
3.92419e-07
8.30148e-08
3.08463e-08
3.12323e-08
4.04856e-07
1.61917e-07
1.55336e-07
3.78563e-07
7.84753e-08
2.94175e-08
2.98996e-08
3.92852e-07
1.63109e-07
1.64026e-07
3.11027e-08
4.02626e-07
8.25019e-08
1.62887e-07
3.12844e-08
3.9953e-07
1.57112e-07
2.97571e-08
3.84642e-07
7.72847e-08
1.62136e-07
2.99702e-08
3.88196e-07
4.08564e-08
1.26122e-08
1.23284e-08
1.26632e-08
1.23956e-08
4.04013e-08
4.69646e-07
1.20685e-06
8.40897e-07
8.32314e-07
8.62889e-07
8.3818e-07
4.52974e-07
4.82581e-07
1.21953e-06
8.5418e-07
8.43753e-07
8.56359e-07
8.47809e-07
4.66275e-07
4.51062e-07
8.52433e-07
8.52036e-07
1.22375e-06
4.60108e-07
8.48894e-07
8.37636e-07
4.46509e-07
1.2101e-06
8.39323e-07
8.21863e-07
8.52547e-07
8.47428e-07
4.66494e-07
1.32602e-06
1.33165e-06
9.73117e-07
6.83596e-07
2.26046e-07
4.24933e-07
6.9285e-07
4.44907e-07
9.57603e-07
9.42063e-07
6.57173e-07
2.14638e-07
3.90006e-07
6.70514e-07
3.97066e-07
9.17768e-07
1.07723e-06
6.33233e-07
5.52708e-07
1.12409e-06
5.56015e-07
1.13388e-06
1.06546e-06
9.52866e-07
6.65831e-07
2.16082e-07
3.95996e-07
4.0117e-07
6.74622e-07
9.35809e-07
1.07883e-06
6.37535e-07
1.1277e-06
5.55134e-07
1.13762e-06
5.61075e-07
1.06554e-06
9.44626e-07
6.64735e-07
2.18425e-07
3.95454e-07
6.73188e-07
3.9657e-07
9.3147e-07
4.57325e-07
1.20652e-06
8.4428e-07
8.30907e-07
4.52717e-07
8.59639e-07
8.42466e-07
4.50069e-07
1.21452e-06
8.47266e-07
8.41771e-07
4.49843e-07
8.45562e-07
8.38195e-07
1.35945e-06
1.24402e-06
1.26234e-06
1.20463e-06
1.37141e-06
1.2494e-06
1.2652e-06
1.19109e-06
1.36656e-06
1.24857e-06
1.25956e-06
1.1908e-06
1.37151e-06
1.25137e-06
1.26268e-06
1.18583e-06
1.37858e-06
1.24333e-06
1.27443e-06
1.1863e-06
1.36803e-06
1.24476e-06
1.27003e-06
1.18459e-06
1.37167e-06
1.24426e-06
1.26384e-06
1.18849e-06
1.38083e-06
1.25266e-06
1.26261e-06
1.18839e-06
1.36945e-06
1.24849e-06
1.26648e-06
1.18682e-06
1.3686e-06
1.24571e-06
1.26521e-06
1.18322e-06
1.36238e-06
1.24626e-06
1.26528e-06
1.18554e-06
1.36981e-06
1.24881e-06
1.26426e-06
1.18404e-06
1.36306e-06
1.24745e-06
1.26228e-06
1.19456e-06
1.37176e-06
1.25143e-06
1.26924e-06
1.18963e-06
1.3727e-06
1.2564e-06
1.26204e-06
1.18872e-06
1.36628e-06
1.24946e-06
1.26195e-06
1.18715e-06
1.37476e-06
1.24694e-06
1.25889e-06
1.18775e-06
1.25014e-06
1.25433e-06
1.26009e-06
1.26257e-06
1.20245e-06
1.20414e-06
1.24398e-06
1.23843e-06
1.24005e-06
1.23731e-06
1.24016e-06
1.24212e-06
1.23885e-06
1.22184e-06
1.21174e-06
1.25897e-06
1.26559e-06
1.25969e-06
1.20396e-06
1.20305e-06
1.20591e-06
1.26738e-06
1.25714e-06
1.26238e-06
1.26315e-06
1.21014e-06
1.20624e-06
1.2388e-06
1.23879e-06
1.23724e-06
1.24098e-06
1.23993e-06
1.24238e-06
1.24459e-06
1.22228e-06
1.21165e-06
1.26239e-06
1.26107e-06
1.26131e-06
1.19617e-06
1.20703e-06
1.19815e-06
1.26168e-06
1.25637e-06
1.26268e-06
1.25548e-06
1.20993e-06
1.18979e-06
1.23793e-06
1.24616e-06
1.2426e-06
1.24911e-06
1.24276e-06
1.24525e-06
1.24186e-06
1.22776e-06
1.20791e-06
1.26098e-06
1.26636e-06
1.2672e-06
1.19676e-06
1.21565e-06
1.1916e-06
1.26306e-06
1.25678e-06
1.25888e-06
1.26625e-06
1.19728e-06
1.2002e-06
1.24293e-06
1.2491e-06
1.24828e-06
1.24303e-06
1.24307e-06
1.24994e-06
1.23955e-06
1.22218e-06
1.20845e-06
1.26049e-06
1.26968e-06
1.26059e-06
1.19023e-06
1.19853e-06
1.18728e-06
1.25827e-06
1.25983e-06
1.26021e-06
1.26021e-06
1.20457e-06
1.19301e-06
1.24265e-06
1.24243e-06
1.24275e-06
1.24577e-06
1.24008e-06
1.24751e-06
1.23782e-06
1.22406e-06
1.20258e-06
1.26212e-06
1.26777e-06
1.26324e-06
1.20198e-06
1.2104e-06
1.19811e-06
1.26268e-06
1.26634e-06
1.25989e-06
1.26298e-06
1.19981e-06
1.20868e-06
1.24903e-06
1.24497e-06
1.241e-06
1.25013e-06
1.24168e-06
1.25035e-06
1.24072e-06
1.20792e-06
1.19963e-06
1.26211e-06
1.26278e-06
1.26122e-06
1.19385e-06
1.20123e-06
1.18774e-06
1.25791e-06
1.26597e-06
1.25723e-06
1.26175e-06
1.20967e-06
1.20018e-06
1.24255e-06
1.24309e-06
1.24074e-06
1.24318e-06
1.24414e-06
1.24749e-06
1.23868e-06
1.20811e-06
1.20296e-06
1.26344e-06
1.26143e-06
1.26177e-06
1.19404e-06
1.19484e-06
1.19593e-06
1.2634e-06
1.26274e-06
1.254e-06
1.26014e-06
1.21809e-06
1.19671e-06
1.24034e-06
1.24277e-06
1.23949e-06
1.24554e-06
1.24118e-06
1.2497e-06
1.24147e-06
1.21446e-06
1.20342e-06
1.26294e-06
1.26216e-06
1.26124e-06
1.19444e-06
1.19818e-06
1.1841e-06
1.25405e-06
1.26652e-06
1.25456e-06
1.26664e-06
1.198e-06
1.18887e-06
1.23941e-06
1.24381e-06
1.23957e-06
1.24477e-06
1.24308e-06
1.24679e-06
1.24144e-06
1.22097e-06
1.19732e-06
1.26307e-06
1.26209e-06
1.26215e-06
1.18574e-06
1.19019e-06
1.18288e-06
1.25568e-06
1.26765e-06
1.25303e-06
1.26407e-06
1.19554e-06
1.20197e-06
1.2456e-06
1.24577e-06
1.24338e-06
1.24233e-06
1.2386e-06
1.24642e-06
1.24051e-06
1.20793e-06
1.1987e-06
1.26163e-06
1.2645e-06
1.25985e-06
1.18747e-06
1.19397e-06
1.19366e-06
1.25431e-06
1.26805e-06
1.25829e-06
1.2642e-06
1.21305e-06
1.19852e-06
1.24105e-06
1.24037e-06
1.24555e-06
1.24536e-06
1.2387e-06
1.24994e-06
1.23628e-06
1.21663e-06
1.20454e-06
1.26527e-06
1.26642e-06
1.26865e-06
1.19545e-06
1.20626e-06
1.18898e-06
1.25259e-06
1.26269e-06
1.25668e-06
1.2635e-06
1.20997e-06
1.20035e-06
1.2408e-06
1.23932e-06
1.23659e-06
1.24399e-06
1.24253e-06
1.24602e-06
1.24075e-06
1.21505e-06
1.21262e-06
1.26969e-06
1.26327e-06
1.27326e-06
1.20818e-06
1.20621e-06
1.18928e-06
1.25887e-06
1.26749e-06
1.25356e-06
1.26365e-06
1.2111e-06
1.20464e-06
1.23821e-06
1.24692e-06
1.23751e-06
1.24993e-06
1.24085e-06
1.25489e-06
1.23527e-06
1.2158e-06
1.20261e-06
1.2701e-06
1.26323e-06
1.27113e-06
1.19425e-06
1.1991e-06
1.19434e-06
1.25402e-06
1.26524e-06
1.25557e-06
1.26354e-06
1.21032e-06
1.19813e-06
1.23747e-06
1.24515e-06
1.24621e-06
1.24412e-06
1.23456e-06
1.25348e-06
1.241e-06
1.21908e-06
1.20763e-06
1.26748e-06
1.26349e-06
1.26033e-06
1.20077e-06
1.20286e-06
1.19139e-06
1.25353e-06
1.26234e-06
1.25668e-06
1.26407e-06
1.2061e-06
1.19383e-06
1.24367e-06
1.24652e-06
1.25156e-06
1.24026e-06
1.23534e-06
1.24805e-06
1.24108e-06
1.20889e-06
1.20769e-06
1.26327e-06
1.26299e-06
1.2649e-06
1.20177e-06
1.20126e-06
1.19489e-06
1.25114e-06
1.25979e-06
1.25485e-06
1.25619e-06
1.20761e-06
1.19764e-06
1.2461e-06
1.2453e-06
1.24562e-06
1.24859e-06
1.23559e-06
1.24507e-06
1.24254e-06
1.2228e-06
1.20668e-06
1.25799e-06
1.26011e-06
1.25909e-06
1.19106e-06
1.20341e-06
1.26076e-06
1.25694e-06
1.21244e-06
1.24424e-06
1.24142e-06
1.24421e-06
1.23992e-06
1.20546e-06
1.26573e-06
1.26071e-06
1.19705e-06
1.93801e-07
3.43817e-08
1.93412e-07
3.35958e-08
1.51892e-08
1.52792e-08
1.76628e-07
3.24651e-08
1.79665e-07
3.20412e-08
1.36632e-06
1.36558e-06
1.37914e-06
1.36043e-06
1.36571e-06
1.37959e-06
1.38125e-06
6.36331e-07
2.14362e-07
1.42124e-06
1.24903e-06
2.14535e-07
1.4239e-06
6.35787e-07
1.51873e-08
1.50851e-08
6.61462e-07
1.43097e-06
2.18793e-07
1.26103e-06
1.43338e-06
2.18653e-07
6.49993e-07
7.34237e-08
7.57568e-08
1.2019e-06
7.34278e-08
7.55037e-08
1.92646e-07
3.35772e-08
1.92515e-07
3.37491e-08
1.51818e-08
1.52004e-08
1.74457e-07
3.21642e-08
1.7441e-07
3.19531e-08
1.35899e-06
1.36328e-06
1.38369e-06
1.35764e-06
1.36846e-06
1.37371e-06
1.38036e-06
6.25434e-07
2.12562e-07
1.41644e-06
1.2452e-06
6.29908e-07
2.10114e-07
1.41552e-06
1.49957e-08
1.51358e-08
6.59082e-07
1.4356e-06
2.17648e-07
1.26768e-06
6.58223e-07
1.43782e-06
2.17258e-07
7.30647e-08
7.47696e-08
1.1945e-06
7.27291e-08
7.48047e-08
1.89515e-07
3.36105e-08
1.91418e-07
3.36571e-08
1.52454e-08
1.52865e-08
1.74828e-07
3.20212e-08
1.73312e-07
3.21707e-08
1.36078e-06
1.37276e-06
1.36807e-06
1.36375e-06
1.36749e-06
1.37323e-06
1.36477e-06
6.17122e-07
2.08216e-07
1.41774e-06
1.24424e-06
6.16095e-07
2.08276e-07
1.42014e-06
1.5011e-08
1.49849e-08
6.58036e-07
1.43869e-06
2.16439e-07
1.26051e-06
6.56783e-07
1.43271e-06
2.14556e-07
7.15565e-08
7.42128e-08
1.19197e-06
7.18712e-08
7.45373e-08
1.88856e-07
3.29741e-08
1.88234e-07
3.30843e-08
1.5216e-08
1.52289e-08
1.77865e-07
3.20326e-08
1.74829e-07
3.19113e-08
1.36074e-06
1.36134e-06
1.35935e-06
1.36119e-06
1.37527e-06
1.38073e-06
1.36613e-06
6.24931e-07
2.08658e-07
1.42364e-06
1.24924e-06
6.17042e-07
2.0821e-07
1.43066e-06
1.48622e-08
1.49104e-08
6.54753e-07
1.43614e-06
2.13346e-07
1.26658e-06
6.46674e-07
1.43563e-06
2.14584e-07
7.18209e-08
7.44958e-08
1.18936e-06
7.21984e-08
7.46934e-08
1.88428e-07
3.281e-08
1.87398e-07
3.25959e-08
1.51249e-08
1.52141e-08
1.75472e-07
3.16644e-08
1.74808e-07
3.17484e-08
1.37082e-06
1.37721e-06
1.35995e-06
1.36506e-06
1.37442e-06
1.37338e-06
1.37746e-06
6.27999e-07
2.08218e-07
1.42869e-06
1.24865e-06
6.22004e-07
2.07223e-07
1.42805e-06
1.47832e-08
1.46992e-08
6.47288e-07
1.43483e-06
2.14192e-07
1.26739e-06
6.41555e-07
1.4402e-06
2.13654e-07
7.28684e-08
7.35727e-08
1.18873e-06
7.33435e-08
7.43694e-08
1.88573e-07
3.24777e-08
1.87214e-07
3.2328e-08
1.48821e-08
1.48824e-08
1.75045e-07
3.18023e-08
1.75394e-07
3.19999e-08
1.37101e-06
1.36495e-06
1.36254e-06
1.36916e-06
1.38635e-06
1.37395e-06
1.37662e-06
6.31716e-07
2.06264e-07
1.42704e-06
1.24454e-06
6.30658e-07
2.07938e-07
1.4265e-06
1.45011e-08
1.44977e-08
6.51337e-07
1.44315e-06
2.16372e-07
1.26978e-06
6.51231e-07
1.43667e-06
2.15589e-07
7.21728e-08
7.37681e-08
1.19754e-06
7.28052e-08
7.40769e-08
1.87261e-07
3.20431e-08
1.87118e-07
3.22192e-08
1.48961e-08
1.48904e-08
1.75246e-07
3.19594e-08
1.74767e-07
3.18922e-08
1.37667e-06
1.37324e-06
1.37385e-06
1.36178e-06
1.38968e-06
1.37234e-06
1.37017e-06
6.24437e-07
2.09844e-07
1.43054e-06
1.24837e-06
6.26374e-07
2.08821e-07
1.43129e-06
1.4436e-08
1.44158e-08
6.53766e-07
1.44082e-06
2.13263e-07
1.26809e-06
6.47513e-07
1.43569e-06
2.11944e-07
7.32824e-08
7.36702e-08
1.18752e-06
7.33382e-08
7.36606e-08
1.88404e-07
3.22908e-08
1.87252e-07
3.23234e-08
1.48407e-08
1.48113e-08
1.73352e-07
3.16812e-08
1.72115e-07
3.1581e-08
1.37384e-06
1.37131e-06
1.37315e-06
1.36299e-06
1.38257e-06
1.38151e-06
1.37792e-06
6.22564e-07
2.08937e-07
1.43522e-06
1.25092e-06
6.25205e-07
2.09217e-07
1.43701e-06
1.43304e-08
1.43137e-08
6.54628e-07
1.44479e-06
2.11138e-07
1.26168e-06
6.50537e-07
1.4413e-06
2.12279e-07
7.3872e-08
7.40444e-08
1.19418e-06
7.31259e-08
7.45869e-08
1.88796e-07
3.22461e-08
1.87597e-07
3.25319e-08
1.49258e-08
1.48938e-08
1.72045e-07
3.15227e-08
1.72934e-07
3.17041e-08
1.37312e-06
1.37057e-06
1.36997e-06
1.36459e-06
1.38261e-06
1.3741e-06
1.38419e-06
6.2271e-07
2.07525e-07
1.43179e-06
1.24775e-06
6.23631e-07
2.07438e-07
1.4302e-06
1.42283e-08
1.42336e-08
6.51965e-07
1.44416e-06
2.10092e-07
1.265e-06
6.51178e-07
1.4501e-06
2.11096e-07
7.2907e-08
7.35511e-08
1.18861e-06
7.26476e-08
7.35992e-08
1.87127e-07
3.21944e-08
1.89221e-07
3.24712e-08
1.48434e-08
1.48261e-08
1.72256e-07
3.15726e-08
1.72513e-07
3.1776e-08
1.38108e-06
1.36663e-06
1.36713e-06
1.36936e-06
1.38982e-06
1.37637e-06
1.37096e-06
6.23391e-07
2.07821e-07
1.42891e-06
1.2457e-06
6.27266e-07
2.09036e-07
1.43572e-06
1.43432e-08
1.44555e-08
6.52857e-07
1.44758e-06
2.13927e-07
1.27171e-06
6.46911e-07
1.45294e-06
2.12975e-07
7.13243e-08
7.3444e-08
1.18625e-06
7.209e-08
7.40568e-08
1.87432e-07
3.22776e-08
1.86483e-07
3.2383e-08
1.48295e-08
1.49385e-08
1.73184e-07
3.17171e-08
1.71853e-07
3.17942e-08
1.38093e-06
1.36715e-06
1.36281e-06
1.35696e-06
1.38204e-06
1.37023e-06
1.38088e-06
6.27587e-07
2.06945e-07
1.4346e-06
1.24775e-06
6.23911e-07
2.07777e-07
1.42911e-06
1.45067e-08
1.45766e-08
6.59571e-07
1.44758e-06
2.11416e-07
1.26294e-06
6.56201e-07
1.45149e-06
2.11368e-07
7.20905e-08
7.32165e-08
1.19488e-06
7.23614e-08
7.38597e-08
1.8474e-07
3.20182e-08
1.84325e-07
3.21075e-08
1.48972e-08
1.50094e-08
1.74781e-07
3.17358e-08
1.73956e-07
3.16575e-08
1.37849e-06
1.36114e-06
1.37879e-06
1.3552e-06
1.38055e-06
1.37846e-06
1.38059e-06
6.24732e-07
2.08438e-07
1.43337e-06
1.24734e-06
6.2465e-07
2.0839e-07
1.43605e-06
1.47102e-08
1.47184e-08
6.54254e-07
1.44677e-06
2.10345e-07
1.26234e-06
6.50961e-07
1.44691e-06
2.12014e-07
7.28558e-08
7.25633e-08
1.19657e-06
7.31547e-08
7.32493e-08
1.83745e-07
3.18015e-08
1.83114e-07
3.1682e-08
1.497e-08
1.49361e-08
1.78177e-07
3.15872e-08
1.7562e-07
3.16252e-08
1.37309e-06
1.37146e-06
1.36549e-06
1.36223e-06
1.37723e-06
1.36983e-06
1.36904e-06
6.23661e-07
2.06615e-07
1.43484e-06
1.24699e-06
6.17539e-07
2.06368e-07
1.4285e-06
1.46209e-08
1.45627e-08
6.53428e-07
1.44383e-06
2.12793e-07
1.26316e-06
6.54619e-07
1.44271e-06
2.12742e-07
7.33729e-08
7.30548e-08
1.19895e-06
7.33104e-08
7.31308e-08
1.84572e-07
3.18681e-08
1.83052e-07
3.19153e-08
1.47479e-08
1.47319e-08
1.77235e-07
3.13617e-08
1.7742e-07
3.13687e-08
1.37503e-06
1.3752e-06
1.36683e-06
1.36177e-06
1.38396e-06
1.37561e-06
1.36942e-06
6.19324e-07
2.06743e-07
1.43162e-06
1.25068e-06
6.19092e-07
2.08934e-07
1.43278e-06
1.44836e-08
1.45103e-08
6.44919e-07
1.45092e-06
2.13729e-07
1.26282e-06
6.52901e-07
1.44274e-06
2.14147e-07
7.24512e-08
7.33833e-08
1.19015e-06
7.27208e-08
7.50667e-08
1.89023e-07
3.24338e-08
1.86257e-07
3.25363e-08
1.45673e-08
1.45779e-08
1.77065e-07
3.13332e-08
1.76384e-07
3.15728e-08
1.37115e-06
1.36711e-06
1.36211e-06
1.36572e-06
1.37936e-06
1.38045e-06
1.36929e-06
6.26268e-07
2.0697e-07
1.43334e-06
1.25484e-06
6.22617e-07
2.06983e-07
1.43135e-06
1.44693e-08
1.44788e-08
6.53592e-07
1.44084e-06
2.11836e-07
1.26191e-06
6.44346e-07
1.43899e-06
2.13027e-07
7.22062e-08
7.36785e-08
1.18834e-06
7.2569e-08
7.36792e-08
1.89369e-07
3.27371e-08
1.89075e-07
3.27971e-08
1.45794e-08
1.45582e-08
1.76724e-07
3.16181e-08
1.76652e-07
3.17672e-08
1.37209e-06
1.38207e-06
1.36016e-06
1.35846e-06
1.37206e-06
1.37698e-06
1.3694e-06
6.30615e-07
2.08019e-07
1.43371e-06
1.24844e-06
6.27728e-07
2.08482e-07
1.43153e-06
1.44991e-08
1.44615e-08
6.44263e-07
1.44023e-06
2.1313e-07
1.2616e-06
6.48872e-07
1.44007e-06
2.12214e-07
7.21747e-08
7.28441e-08
1.18875e-06
7.28386e-08
7.40034e-08
1.89413e-07
3.25022e-08
1.87084e-07
3.27799e-08
1.45196e-08
1.45723e-08
1.75387e-07
3.15288e-08
1.75659e-07
3.16451e-08
1.3633e-06
1.36796e-06
1.36344e-06
1.37796e-06
6.2856e-07
2.086e-07
1.43292e-06
1.24849e-06
6.32964e-07
2.07103e-07
1.43428e-06
1.46045e-08
1.46037e-08
6.39754e-07
1.44343e-06
2.11117e-07
1.26496e-06
6.38817e-07
1.44312e-06
2.10843e-07
7.21642e-08
7.33845e-08
1.18792e-06
7.25836e-08
7.40031e-08
1.96268e-07
3.42844e-08
3.4449e-08
1.96758e-07
6.73419e-07
2.26762e-07
1.43008e-06
1.256e-06
1.42766e-06
6.76789e-07
2.27016e-07
6.78956e-07
2.28856e-07
1.43771e-06
1.26016e-06
2.26594e-07
1.43819e-06
6.80905e-07
1.9774e-07
3.38223e-08
1.95189e-07
3.39728e-08
1.98776e-07
3.45489e-08
3.51031e-08
1.95715e-07
6.90604e-07
1.25537e-06
2.22701e-07
1.43118e-06
1.43021e-06
6.70051e-07
2.27035e-07
6.94557e-07
1.25959e-06
2.27276e-07
1.43872e-06
2.28946e-07
1.43312e-06
6.74638e-07
7.85288e-08
7.61987e-08
1.20546e-06
7.9014e-08
7.67293e-08
1.46609e-08
1.47481e-08
1.52598e-08
1.53988e-08
1.2231e-06
7.88245e-08
7.65703e-08
8.00368e-08
8.1037e-08
1.46475e-08
1.49892e-08
6.26775e-07
2.15472e-07
1.41598e-06
1.23936e-06
1.41832e-06
6.42868e-07
2.12368e-07
1.76295e-07
3.40361e-08
3.36691e-08
1.80159e-07
6.27698e-07
1.41933e-06
2.17634e-07
1.23783e-06
1.41894e-06
2.1993e-07
6.39436e-07
1.81123e-07
3.29007e-08
1.74796e-07
3.28729e-08
6.52926e-07
1.23844e-06
2.13155e-07
1.41987e-06
1.41854e-06
6.21179e-07
2.14938e-07
1.81001e-07
3.35697e-08
3.42346e-08
1.78408e-07
6.40229e-07
1.23907e-06
1.42026e-06
2.21365e-07
1.42007e-06
2.19305e-07
6.26723e-07
1.8325e-07
3.26892e-08
3.25345e-08
1.82689e-07
6.38413e-07
1.42313e-06
2.07013e-07
1.23895e-06
1.42532e-06
2.07882e-07
6.34592e-07
1.83493e-07
3.1583e-08
3.16567e-08
1.82251e-07
6.5953e-07
1.24315e-06
2.18507e-07
1.4171e-06
2.16978e-07
1.41747e-06
6.29076e-07
1.85567e-07
3.24838e-08
3.29442e-08
1.8253e-07
6.50052e-07
1.23933e-06
1.42083e-06
2.07625e-07
1.42693e-06
2.14185e-07
6.38804e-07
1.85839e-07
3.17785e-08
3.25286e-08
1.82186e-07
8.24575e-08
7.96977e-08
1.21088e-06
7.77706e-08
7.7681e-08
1.47508e-08
1.46571e-08
1.509e-08
1.53259e-08
1.22338e-06
7.7888e-08
7.82109e-08
7.95653e-08
8.29979e-08
1.48025e-08
1.50796e-08
6.59872e-07
1.4382e-06
2.19785e-07
1.25916e-06
1.43601e-06
2.18177e-07
6.55375e-07
1.87974e-07
3.32881e-08
3.28101e-08
1.8701e-07
1.89996e-07
3.30958e-08
3.30408e-08
1.89629e-07
6.76878e-07
1.26143e-06
1.43135e-06
2.24241e-07
1.4366e-06
2.21043e-07
6.68339e-07
6.7376e-07
1.26227e-06
1.43576e-06
2.18837e-07
1.43577e-06
2.21341e-07
6.62961e-07
1.91234e-07
3.29705e-08
3.34477e-08
1.89182e-07
1.92594e-07
3.3047e-08
3.38588e-08
1.90112e-07
1.42431e-08
1.4236e-08
1.46055e-08
1.45887e-08
1.20946e-06
7.54361e-08
7.56292e-08
7.51273e-08
7.94177e-08
1.42213e-08
1.43696e-08
1.46211e-08
1.46756e-08
1.55187e-08
1.53603e-08
1.49294e-08
1.45407e-08
8.50717e-08
7.90363e-08
1.20096e-06
8.02955e-08
7.48426e-08
1.52737e-08
1.5411e-08
1.45805e-08
1.46732e-08
1.21483e-06
8.02784e-08
7.43648e-08
8.24032e-08
7.63746e-08
1.9415e-07
3.54015e-08
1.97954e-07
3.44161e-08
6.70705e-07
2.25311e-07
1.42972e-06
1.26427e-06
6.8879e-07
2.24379e-07
1.43424e-06
6.73032e-07
2.28411e-07
1.43448e-06
1.25748e-06
6.80976e-07
2.26457e-07
1.43377e-06
1.96666e-07
3.38496e-08
3.40819e-08
1.94692e-07
1.96513e-07
3.43229e-08
3.47923e-08
1.92416e-07
6.79991e-07
1.26977e-06
2.25197e-07
1.43233e-06
2.28165e-07
1.43278e-06
6.65533e-07
6.73833e-07
1.26114e-06
2.26614e-07
1.44303e-06
2.28247e-07
1.43654e-06
6.6641e-07
8.07138e-08
7.93161e-08
1.20358e-06
7.92819e-08
7.63807e-08
1.4848e-08
1.46367e-08
1.53625e-08
1.53387e-08
1.20869e-06
7.95092e-08
7.50722e-08
8.17511e-08
7.76681e-08
1.45825e-08
1.48074e-08
6.19261e-07
2.16027e-07
1.4187e-06
1.23742e-06
6.30838e-07
2.11096e-07
1.41824e-06
1.77122e-07
3.44172e-08
1.81169e-07
3.32352e-08
6.24115e-07
1.4214e-06
2.21177e-07
1.244e-06
6.3554e-07
1.42714e-06
2.18689e-07
1.77973e-07
3.22916e-08
3.28715e-08
1.74781e-07
6.27798e-07
1.23772e-06
2.11679e-07
1.41895e-06
2.14401e-07
1.42096e-06
6.20483e-07
1.81902e-07
3.30462e-08
3.42482e-08
1.76037e-07
6.32473e-07
1.24729e-06
1.42287e-06
2.17081e-07
1.42177e-06
2.20533e-07
6.24161e-07
1.78499e-07
3.32814e-08
1.849e-07
3.22418e-08
6.29426e-07
1.42255e-06
2.122e-07
1.24221e-06
6.50361e-07
1.42157e-06
2.07832e-07
1.81289e-07
3.26326e-08
1.85312e-07
3.17748e-08
6.38983e-07
1.24847e-06
2.09474e-07
1.41757e-06
2.15503e-07
1.41529e-06
6.2989e-07
1.82363e-07
3.19609e-08
3.25268e-08
1.77648e-07
6.40191e-07
1.24976e-06
1.42651e-06
2.0641e-07
1.42122e-06
2.14573e-07
6.23864e-07
1.84571e-07
3.19546e-08
3.24099e-08
1.78458e-07
8.06301e-08
8.22801e-08
1.21466e-06
7.81698e-08
7.80396e-08
1.49236e-08
1.47767e-08
1.50303e-08
1.52774e-08
1.22329e-06
7.75303e-08
7.75491e-08
8.20803e-08
8.02096e-08
1.4724e-08
1.49763e-08
6.67463e-07
1.43834e-06
2.22926e-07
1.26789e-06
6.83834e-07
1.43576e-06
2.19093e-07
1.90051e-07
3.32064e-08
1.92241e-07
3.2934e-08
1.90004e-07
3.39454e-08
1.92222e-07
3.30144e-08
6.79873e-07
1.26125e-06
1.43141e-06
2.18748e-07
1.4309e-06
2.23824e-07
6.68093e-07
6.7764e-07
1.26192e-06
1.43154e-06
2.17208e-07
1.43775e-06
2.23718e-07
6.56033e-07
1.9385e-07
3.29569e-08
3.32363e-08
1.90817e-07
1.93168e-07
3.30719e-08
3.39913e-08
1.88633e-07
1.44437e-08
1.42098e-08
1.47109e-08
1.45569e-08
1.2198e-06
7.37622e-08
7.65089e-08
7.41975e-08
7.6681e-08
1.4221e-08
1.42775e-08
1.45924e-08
1.46362e-08
1.55825e-08
1.5265e-08
1.45262e-08
1.45057e-08
8.32734e-08
7.8036e-08
1.20805e-06
7.98488e-08
7.42567e-08
1.51219e-08
1.55365e-08
1.45445e-08
1.46837e-08
1.20853e-06
7.93704e-08
7.47505e-08
8.27148e-08
7.67321e-08
1.90199e-07
3.51269e-08
1.97823e-07
3.42129e-08
6.59587e-07
2.28035e-07
1.43117e-06
1.26107e-06
6.89835e-07
2.24828e-07
1.43002e-06
6.60783e-07
2.28315e-07
1.43532e-06
1.25678e-06
6.73461e-07
2.26933e-07
1.43816e-06
1.95724e-07
3.33789e-08
3.45231e-08
1.90598e-07
1.94043e-07
3.43402e-08
3.51805e-08
1.91374e-07
6.69698e-07
1.26357e-06
2.21614e-07
1.43064e-06
2.27999e-07
1.43066e-06
6.60241e-07
6.73312e-07
1.26234e-06
2.26426e-07
1.43847e-06
2.28592e-07
1.43705e-06
6.65466e-07
8.13273e-08
7.75605e-08
1.19426e-06
7.91406e-08
7.51817e-08
1.47624e-08
1.45867e-08
1.53234e-08
1.56214e-08
1.21053e-06
7.93012e-08
7.54126e-08
8.10625e-08
7.83361e-08
1.45481e-08
1.48347e-08
6.19948e-07
2.14634e-07
1.41975e-06
1.23982e-06
6.32843e-07
2.10473e-07
1.42412e-06
1.75666e-07
3.41223e-08
1.79254e-07
3.31221e-08
6.24707e-07
1.42901e-06
2.20249e-07
1.24253e-06
6.30419e-07
1.42282e-06
2.16277e-07
1.81061e-07
3.26744e-08
3.31464e-08
1.75455e-07
6.42491e-07
1.24102e-06
2.10786e-07
1.42064e-06
2.15015e-07
1.42636e-06
6.18056e-07
1.80065e-07
3.29348e-08
3.35144e-08
1.77975e-07
6.18827e-07
1.24496e-06
1.42475e-06
2.16282e-07
1.42855e-06
2.19622e-07
6.18217e-07
1.76009e-07
3.26397e-08
1.81405e-07
3.22421e-08
6.24245e-07
1.42575e-06
2.11568e-07
1.24362e-06
6.50521e-07
1.42483e-06
2.07153e-07
1.78223e-07
3.2129e-08
1.80848e-07
3.16877e-08
6.43532e-07
1.24331e-06
2.10182e-07
1.41996e-06
2.13892e-07
1.42463e-06
6.16779e-07
1.79696e-07
3.18646e-08
3.2515e-08
1.7688e-07
6.51108e-07
1.24871e-06
1.42884e-06
2.08276e-07
1.42444e-06
2.13562e-07
6.23439e-07
1.81099e-07
3.15003e-08
3.19875e-08
1.77997e-07
8.2132e-08
8.15812e-08
1.21746e-06
7.73762e-08
7.70747e-08
1.50735e-08
1.468e-08
1.4882e-08
1.5303e-08
1.2168e-06
7.68982e-08
7.71527e-08
7.87231e-08
7.97645e-08
1.47174e-08
1.48078e-08
6.49248e-07
1.43521e-06
2.20537e-07
1.26122e-06
6.66628e-07
1.43139e-06
2.15409e-07
1.90236e-07
3.31394e-08
1.95919e-07
3.25579e-08
1.88885e-07
3.34155e-08
1.93104e-07
3.28421e-08
6.71749e-07
1.26046e-06
1.43552e-06
2.20051e-07
1.43729e-06
2.2155e-07
6.64792e-07
6.54412e-07
1.2651e-06
1.43507e-06
2.13587e-07
1.43912e-06
2.18947e-07
6.45777e-07
1.94783e-07
3.23412e-08
3.29387e-08
1.88897e-07
1.90293e-07
3.28778e-08
3.33027e-08
1.87063e-07
1.41896e-08
1.41287e-08
1.4687e-08
1.45574e-08
1.20847e-06
7.39828e-08
7.55285e-08
7.47839e-08
7.72277e-08
1.43784e-08
1.4312e-08
1.45742e-08
1.48733e-08
1.54246e-08
1.4975e-08
1.48469e-08
1.46683e-08
8.15262e-08
7.78124e-08
1.19838e-06
7.84353e-08
7.48293e-08
1.484e-08
1.51643e-08
1.45149e-08
1.49458e-08
1.20931e-06
7.78521e-08
7.44947e-08
7.98212e-08
7.94062e-08
1.89973e-07
3.48429e-08
1.94491e-07
3.44485e-08
6.58407e-07
2.24174e-07
1.43394e-06
1.26764e-06
6.66382e-07
2.17521e-07
1.43338e-06
6.63687e-07
2.29306e-07
1.43214e-06
1.26504e-06
6.81821e-07
2.25922e-07
1.43446e-06
1.94419e-07
3.36362e-08
3.35087e-08
1.89308e-07
1.95373e-07
3.40106e-08
3.52059e-08
1.90467e-07
6.79359e-07
1.26039e-06
2.19505e-07
1.43807e-06
2.23058e-07
1.43266e-06
6.56943e-07
6.85545e-07
1.26207e-06
2.28632e-07
1.43598e-06
2.28103e-07
1.43503e-06
6.61361e-07
8.27565e-08
7.97583e-08
1.19972e-06
7.86175e-08
7.4259e-08
1.46446e-08
1.44888e-08
1.52352e-08
1.5349e-08
1.20306e-06
7.85466e-08
7.38952e-08
8.04965e-08
7.5397e-08
1.43741e-08
1.43943e-08
6.19488e-07
2.14507e-07
1.42035e-06
1.24819e-06
6.30797e-07
2.09034e-07
1.41956e-06
1.79001e-07
3.38346e-08
1.8245e-07
3.26772e-08
6.22087e-07
1.42351e-06
2.19503e-07
1.25102e-06
6.30557e-07
1.42307e-06
2.15754e-07
1.81859e-07
3.19303e-08
3.28363e-08
1.81026e-07
6.35355e-07
1.24442e-06
2.09185e-07
1.42102e-06
2.14223e-07
1.42178e-06
6.20146e-07
1.82417e-07
3.26379e-08
3.32758e-08
1.7927e-07
6.31197e-07
1.24446e-06
1.42196e-06
2.14749e-07
1.42752e-06
2.19011e-07
6.19537e-07
1.76864e-07
3.27302e-08
1.82143e-07
3.18192e-08
6.23613e-07
1.42404e-06
2.13157e-07
1.24759e-06
6.31526e-07
1.43023e-06
2.07271e-07
1.76203e-07
3.25905e-08
1.82423e-07
3.16219e-08
6.46474e-07
1.24831e-06
2.1003e-07
1.42841e-06
2.13914e-07
1.43166e-06
6.32048e-07
1.81604e-07
3.18298e-08
3.2779e-08
1.78639e-07
6.45942e-07
1.2408e-06
1.42919e-06
2.08294e-07
1.42944e-06
2.12363e-07
6.17992e-07
1.81895e-07
3.17056e-08
3.2738e-08
1.77177e-07
7.78563e-08
7.97417e-08
1.20698e-06
7.63851e-08
7.7777e-08
1.47965e-08
1.4733e-08
1.47874e-08
1.49669e-08
1.21859e-06
7.61839e-08
7.77703e-08
7.88056e-08
8.03068e-08
1.46878e-08
1.48346e-08
6.51433e-07
1.43419e-06
2.20318e-07
1.26161e-06
6.61715e-07
1.44296e-06
2.11976e-07
1.8918e-07
3.32555e-08
1.94734e-07
3.24248e-08
1.88124e-07
3.34317e-08
1.90549e-07
3.24885e-08
6.65221e-07
1.27335e-06
1.43473e-06
2.19919e-07
1.43474e-06
2.19513e-07
6.46133e-07
6.64686e-07
1.26725e-06
1.44449e-06
2.13147e-07
1.4382e-06
2.1974e-07
6.49336e-07
1.93562e-07
3.22758e-08
3.29045e-08
1.87206e-07
1.91439e-07
3.22007e-08
3.28937e-08
1.86932e-07
1.42372e-08
1.40879e-08
1.47051e-08
1.44474e-08
1.21221e-06
7.35564e-08
7.58966e-08
7.41651e-08
7.67091e-08
1.43588e-08
1.43388e-08
1.44143e-08
1.46098e-08
1.4982e-08
1.47222e-08
1.47881e-08
1.45065e-08
7.9332e-08
7.80434e-08
1.19508e-06
7.67491e-08
7.41581e-08
1.47434e-08
1.48979e-08
1.45265e-08
1.48278e-08
1.21445e-06
7.67022e-08
7.50145e-08
8.00265e-08
7.59242e-08
1.90327e-07
3.49775e-08
1.95363e-07
3.39909e-08
6.5986e-07
2.25149e-07
1.43448e-06
1.2587e-06
6.67656e-07
2.16376e-07
1.43433e-06
6.55199e-07
2.25538e-07
1.43702e-06
1.25942e-06
6.61317e-07
2.21381e-07
1.44164e-06
1.92358e-07
3.31451e-08
3.30707e-08
1.88802e-07
1.94501e-07
3.36499e-08
3.45522e-08
1.90686e-07
6.829e-07
1.25741e-06
2.14359e-07
1.43522e-06
2.23114e-07
1.44011e-06
6.57737e-07
6.80111e-07
1.25877e-06
2.22678e-07
1.43846e-06
2.26254e-07
1.4366e-06
6.61086e-07
8.00284e-08
7.49513e-08
1.19749e-06
7.87937e-08
7.31217e-08
1.43153e-08
1.42713e-08
1.50753e-08
1.54022e-08
1.20325e-06
7.72328e-08
7.34113e-08
8.22329e-08
7.52383e-08
1.43358e-08
1.44397e-08
6.22467e-07
2.14142e-07
1.42704e-06
1.24191e-06
6.38953e-07
2.0961e-07
1.42566e-06
1.78137e-07
3.35638e-08
1.82171e-07
3.26013e-08
6.23304e-07
1.42239e-06
2.18186e-07
1.2439e-06
6.3201e-07
1.4288e-06
2.1047e-07
1.79528e-07
3.25391e-08
3.27447e-08
1.80983e-07
6.38492e-07
1.24375e-06
2.10237e-07
1.4281e-06
2.14708e-07
1.42469e-06
6.18626e-07
1.8237e-07
3.23561e-08
3.30684e-08
1.79479e-07
6.32516e-07
1.24462e-06
1.42585e-06
2.11767e-07
1.42351e-06
2.1505e-07
6.29137e-07
1.79776e-07
3.27797e-08
1.82799e-07
3.173e-08
6.30433e-07
1.42965e-06
2.12959e-07
1.23944e-06
6.49457e-07
1.43154e-06
2.0845e-07
1.79586e-07
3.26811e-08
1.82462e-07
3.23046e-08
6.47992e-07
1.25153e-06
2.08041e-07
1.42651e-06
2.10991e-07
1.42806e-06
6.4034e-07
1.83042e-07
3.20523e-08
3.19736e-08
1.81213e-07
6.41322e-07
1.23916e-06
1.42475e-06
2.08272e-07
1.42426e-06
2.13365e-07
6.35194e-07
1.84168e-07
3.14141e-08
3.19454e-08
1.82072e-07
7.7821e-08
8.13416e-08
1.20564e-06
7.51547e-08
7.74856e-08
1.48588e-08
1.46771e-08
1.46154e-08
1.47789e-08
1.22171e-06
7.46203e-08
7.93009e-08
7.92206e-08
7.99798e-08
1.46684e-08
1.47774e-08
6.5031e-07
1.43642e-06
2.1861e-07
1.26719e-06
6.57685e-07
1.43555e-06
2.15473e-07
1.86184e-07
3.318e-08
1.90388e-07
3.2323e-08
1.8632e-07
3.30295e-08
1.90416e-07
3.24836e-08
6.604e-07
1.26869e-06
1.43868e-06
2.18064e-07
1.44246e-06
2.21707e-07
6.60307e-07
6.70973e-07
1.26083e-06
1.43799e-06
2.15198e-07
1.43516e-06
2.20208e-07
6.48072e-07
1.89622e-07
3.26245e-08
3.32815e-08
1.8648e-07
1.92965e-07
3.25115e-08
3.33364e-08
1.86599e-07
1.44066e-08
1.41436e-08
1.43474e-08
1.43996e-08
1.19694e-06
7.42925e-08
7.60664e-08
7.47918e-08
7.70021e-08
1.4145e-08
1.43319e-08
1.45246e-08
1.47e-08
1.48324e-08
1.45773e-08
1.46767e-08
1.45168e-08
8.06114e-08
7.78246e-08
1.18783e-06
7.61159e-08
7.54291e-08
1.4511e-08
1.48971e-08
1.44798e-08
1.46821e-08
1.20263e-06
7.48812e-08
7.43734e-08
7.97732e-08
7.75608e-08
1.9171e-07
3.43472e-08
1.96709e-07
3.35881e-08
6.65808e-07
2.20179e-07
1.43536e-06
1.2596e-06
6.70121e-07
2.14819e-07
1.43943e-06
6.70991e-07
2.26282e-07
1.4449e-06
1.26045e-06
6.90632e-07
2.22667e-07
1.43956e-06
1.94093e-07