/*--------------------------------*- C++ -*----------------------------------*\
| =========                 |                                                 |
| \\      /  F ield         | OpenFOAM: The Open Source CFD Toolbox           |
|  \\    /   O peration     | Version:  2206                                  |
|   \\  /    A nd           | Website:  www.openfoam.com                      |
|    \\/     M anipulation  |                                                 |
\*---------------------------------------------------------------------------*/
FoamFile
{
    version     2.0;
    format      ascii;
    arch        "LSB;label=32;scalar=64";
    class       volScalarField;
    location    "26";
    object      omega;
}
// * * * * * * * * * * * * * * * * * * * * * * * * * * * * * * * * * * * * * //

dimensions      [0 0 -1 0 0 0 0];

internalField   nonuniform List<scalar> 
66928
(
22.7037
20.8015
20.9769
20.8734
22.629
20.8049
22.4831
22.8196
18.0395
17.9837
397.424
392.708
139.002
142.243
262.161
75.2617
254.27
84.8766
77.7711
19.357
35.3216
257.807
84.5729
19.3353
77.174
35.3731
387.814
140.098
139.084
394.599
76.1112
259.268
394.649
397.93
393.229
400.538
135.201
139.685
22.7355
139.936
143.358
398.44
390.987
400.366
393.304
22.5591
140.588
144.059
136.765
141.758
392.022
90.4228
49.3116
137.52
272.88
271.435
48.486
88.8534
89.6044
50.6058
140.791
274.159
271.884
50.0749
93.219
193.578
405.297
405.914
404.604
405.161
191.247
255.645
150.991
146.188
417.904
145.844
413.16
97.6913
276.754
301.386
148.121
412.811
273.036
97.9364
304.205
88.6462
50.3983
135.889
272.299
50.0073
269.425
92.3787
90.9346
49.8889
137.362
270.607
268.099
49.5058
89.7196
191.917
404.332
403.414
402.418
401.479
193.712
392.403
257.088
148.576
147.005
415.744
396.21
396.94
393.862
399.501
198.481
406.389
408.075
405.419
404.139
191.42
94.2756
47.5581
269.279
137.701
93.0912
267.588
49.4537
95.452
49.5143
270.134
138.406
92.0068
270.307
49.2558
197.443
402.914
404.411
197.476
404.548
403.696
90.6073
274.429
138.338
49.6703
268.334
89.3077
48.8436
93.4655
277.332
138.148
50.996
271.054
94.4559
49.0647
393.621
396.768
399.271
398.988
198.707
403.879
403.65
197.446
405.253
407.506
95.4412
50.1413
135.474
275.121
268.922
48.9564
93.3213
95.4099
51.1157
139.087
277.945
272.142
49.238
91.0038
92.6939
272.62
48.8263
136.151
93.6075
270.195
49.3051
94.6843
275.7
50.3078
140.257
92.0192
273.37
49.8081
193.876
406.465
408.173
405.539
406.913
195.821
43.193
22.6201
29.2734
29.4813
28.5302
29.2471
44.787
42.6557
22.5
29.2365
29.2378
29.0643
29.0737
44.1958
45.0185
29.0119
28.9691
22.4496
44.157
29.1859
29.2994
45.4704
22.5615
29.5417
29.8303
28.9262
29.1325
43.7602
17.5009
17.4741
26.2094
34.1754
71.847
47.5549
33.9092
45.4554
26.6302
26.8734
34.9813
74.378
50.191
34.179
49.6623
27.412
24.4161
35.0354
38.9158
23.4866
38.6228
23.4127
24.5216
26.4683
34.7248
76.3995
49.6255
49.2721
34.506
26.9345
24.3511
35.1564
23.3235
38.8176
23.4187
38.5296
24.2253
26.6134
34.6022
75.3826
48.9189
34.4172
48.6103
26.9927
44.5053
22.6682
29.1842
29.5942
44.9629
28.6751
29.3379
45.1776
22.5791
29.0805
29.1804
45.1831
29.1481
29.3179
18.0022
21.0158
20.817
22.728
17.8763
21.0339
20.8611
22.9209
17.9161
21.0851
20.8425
22.9411
17.8832
21.1367
20.8744
23.0068
17.8894
21.1312
20.9255
23.0177
17.9131
21.0829
20.9372
23.0147
17.8889
21.0798
20.9411
22.9276
17.874
21.071
20.9451
22.9745
17.8509
21.107
20.9367
22.9967
17.8709
21.0945
20.8786
23.02
17.8835
21.1046
20.864
22.9845
17.8997
21.0589
20.9044
22.9961
17.885
21.0955
20.9004
22.9771
17.8861
21.0972
20.9061
22.9889
17.8693
21.0742
20.9204
22.9898
17.8458
21.077
20.8851
22.9953
17.8641
21.0545
20.912
22.9925
20.824
20.7774
20.8919
20.8018
22.7461
22.7532
21.0071
20.8863
21.0697
20.979
21.0815
20.9889
21.1271
22.4867
22.6382
20.7991
20.8349
20.8363
22.6921
22.7004
22.8046
20.7703
20.7132
20.8849
20.8046
22.6077
22.7828
20.994
20.7997
21.0534
20.9419
20.9447
21.0365
21.1703
22.4371
22.6902
20.786
20.8466
20.8683
22.8641
22.6691
22.8927
20.7279
20.7489
20.8993
20.8652
22.5872
22.9605
20.9179
20.8809
21.029
20.9819
20.9746
21.1136
21.1411
22.4002
22.7555
20.784
20.8011
20.9361
22.9311
22.6577
22.9525
20.8154
20.7568
20.933
20.8697
22.8261
22.9593
20.8641
20.9357
21.0824
21.0418
21.033
21.0985
21.1296
22.4673
22.8014
20.8798
20.9204
20.9848
22.95
22.8104
23.0167
20.7607
20.7348
20.9747
20.8746
22.7416
22.9599
21.0223
20.9557
21.0971
21.0784
21.0311
20.9821
21.12
22.6125
22.8284
20.9193
20.8609
20.9241
22.8118
22.7236
22.9953
20.906
20.7678
20.9949
20.8381
22.8056
22.8862
20.9024
21.0277
21.1144
21.0788
21.0011
20.9431
21.0895
22.7018
22.862
20.7932
20.9374
20.8885
22.8445
22.8023
23.0257
20.9129
20.747
20.9891
20.8307
22.7588
22.9085
20.9482
20.9815
21.1445
21.0711
20.9318
20.9509
21.161
22.7238
22.7967
20.7968
20.843
20.8589
22.8942
22.8469
22.9378
20.9264
20.7378
20.973
20.8305
22.7269
23.0179
20.9735
20.9029
21.1591
21.1075
20.9926
20.9731
21.1703
22.5628
22.8137
20.7657
20.8233
20.8453
22.9415
22.7753
23.0603
20.8647
20.7648
20.9557
20.8492
22.8719
23.0172
21.0598
20.9066
21.1524
21.0696
21.0765
21.0349
21.1525
22.5784
22.8682
20.7974
20.8513
20.8586
22.9779
22.9247
22.9851
20.9026
20.7385
20.9815
20.8343
22.8548
22.8948
21.0566
20.9951
21.1525
21.0733
21.029
21.0687
21.1558
22.6857
22.7735
20.8033
20.826
20.8596
22.945
22.7682
22.9794
20.9352
20.7278
21.0226
20.8305
22.7107
22.8628
21.0609
20.9388
21.1332
21.0355
21.0716
21.0104
21.1454
22.4232
22.7989
20.7518
20.7898
20.8615
22.7819
22.6811
22.9727
20.9675
20.7202
21.0115
20.7592
22.7556
22.836
20.9601
20.8262
21.1485
21.0497
21.0488
20.947
21.1207
22.6495
22.7753
20.7963
20.8495
20.8799
22.7449
22.7251
22.9609
20.8073
20.7643
20.9797
20.8489
22.6225
22.9248
21.0675
20.9502
21.1199
21.0086
20.9571
20.9491
21.1891
22.5707
22.8218
20.8049
20.9035
20.902
22.9094
22.7919
22.9588
20.8977
20.6761
20.9663
20.9074
22.7285
22.8978
21.051
20.8824
21.1297
20.9938
21.1182
20.9421
21.1578
22.5881
22.8112
20.8502
20.8973
20.912
22.7745
22.6574
22.924
20.8706
20.8457
20.9133
20.915
22.7286
22.9143
20.9375
20.8129
21.08
21.0256
20.9489
20.9485
21.1567
22.6769
22.7522
20.7351
20.8485
20.93
22.79
22.7368
22.9513
20.7483
20.8251
20.9217
20.8853
22.7149
22.8512
20.908
20.8841
21.1165
21.0132
21.07
21.0068
21.1506
22.5412
22.8204
20.8442
20.8663
20.8827
22.9342
22.7455
20.7476
20.8311
22.6201
20.9466
20.8398
21.0445
21.1611
22.6938
20.7877
20.9013
22.9311
84.6192
253.813
84.8525
264.197
397.883
397.876
88.1123
262.906
85.6699
266.127
17.8621
17.9529
17.866
17.9073
17.8996
17.8708
17.9074
35.3334
79.223
19.3408
20.9322
78.98
19.3633
35.3039
396.021
399.129
33.8995
19.2343
74.2687
20.8154
19.2604
76.5439
34.2985
145.172
141.702
22.8128
145.378
142.491
84.3587
264.445
84.58
264.073
398.222
398.529
89.191
267.072
89.5408
266.902
18.0122
17.9912
17.9809
17.9858
17.9083
17.8143
17.9396
35.7602
79.4797
19.3745
20.9363
35.7994
80.0825
19.3888
400.298
400.237
34.0337
19.2424
77.6783
20.7015
34.1289
19.2479
77.8425
146.375
143.366
22.8984
146.473
143.451
85.0895
264.618
85.0067
263.85
398.105
398.41
88.9106
266.755
89.3736
266.977
18.0006
17.9276
18.0551
17.9911
17.8964
17.7987
17.9617
36.1262
80.7937
19.3976
20.9089
36.2064
80.7427
19.3901
400.164
400.394
34.3714
19.2226
78.1949
20.7795
34.3929
19.2185
78.445
147.062
144.224
22.9227
145.935
143.6
84.6738
265.896
85.1973
264.433
398.695
398.73
88.0509
267.699
89.299
267.358
17.9767
17.929
18.0516
17.9987
17.8842
17.7495
17.9238
35.4969
80.2428
19.3519
21.063
35.9713
80.2064
19.3404
400.59
400.879
34.6239
19.2019
78.7312
20.8041
34.8201
19.2164
78.6283
146.73
143.94
22.9761
146.099
143.78
85.1145
265.437
85.3768
264.986
398.667
398.426
88.8601
268.654
89.2241
267.276
17.9523
17.8062
17.9945
17.9569
17.8327
17.8218
17.864
35.4104
79.8946
19.3145
21.022
35.6624
80.4335
19.2999
400.774
401.09
34.5345
19.2018
78.8448
20.8146
34.83
19.2038
78.7055
145.902
144.313
22.9845
145.585
143.555
84.7382
265.446
85.5293
264.766
399.215
398.902
88.8488
267.975
89.1916
267.198
17.865
17.9395
17.9356
17.9205
17.7735
17.8708
17.8345
35.3712
80.5066
19.2886
20.9982
35.4959
80.2107
19.2897
400.291
400.994
34.5371
19.1858
77.8795
20.78
34.5774
19.1833
78.3184
146.353
144.834
22.9139
145.342
144.059
84.9226
265.479
85.1882
264.521
399.084
399.102
88.7233
267.976
89.1206
267.237
17.8594
17.9137
17.9129
17.985
17.76
17.8444
17.8189
35.8779
80.0042
19.2733
21.0282
35.6623
80.3985
19.2698
400.621
400.608
34.4813
19.1779
79.0469
20.8804
34.8265
19.1877
78.8037
145.338
144.741
22.9636
145.435
143.932
85.0226
264.617
85.4111
264.412
398.984
398.739
89.3082
267.319
89.9089
267.097
17.8461
17.9096
17.9322
17.9591
17.7756
17.8417
17.8346
35.8207
80.328
19.2898
20.8767
35.8649
80.5661
19.2885
401.591
401.191
34.4832
19.1738
78.9541
20.7647
34.6982
19.1639
78.7548
145.966
143.933
22.9658
146.122
143.024
84.8461
265.701
85.3316
264.281
398.451
398.637
89.2744
268.503
89.4292
267.201
17.9052
17.9394
17.9269
17.924
17.7726
17.8432
17.8308
35.8113
80.8448
19.2971
20.902
35.7236
80.5522
19.3003
401.243
400.992
34.4231
19.1458
79.3503
20.8402
34.614
19.1477
78.9509
146.367
144.919
22.9902
145.737
144.094
85.4276
266.158
84.6906
264.833
398.086
398.873
88.9085
267.895
88.9863
267.468
17.858
17.9551
17.9247
17.906
17.7696
17.8305
17.8363
35.7247
80.3504
19.3063
20.9204
35.7186
80.2228
19.3105
400.63
400.59
34.3784
19.1186
78.3223
20.7268
34.6683
19.1173
78.5283
146.892
144.076
22.9683
145.962
143.754
85.3719
265.488
85.5603
265.241
398.205
398.755
88.6326
267.706
89.2773
267.622
17.8465
17.9752
17.934
18.0076
17.7517
17.8409
17.8289
35.5333
80.7065
19.2995
20.9664
35.6727
80.2752
19.2897
400.607
400.719
34.2457
19.1107
78.7254
20.7168
34.1715
19.1055
78.9006
145.992
144.952
22.9203
145.451
144.129
85.8133
265.25
86.2604
264.444
399.247
398.714
88.9021
267.892
88.9526
267.54
17.8229
17.9535
17.918
17.9994
17.7756
17.8151
17.8307
35.8727
80.3726
19.2931
20.8497
35.6876
80.5445
19.2893
400.432
400.831
34.3352
19.1042
79.2539
20.8226
34.4153
19.1137
78.9883
145.717
145.13
22.9351
145.531
144.024
85.6238
265.415
86.2922
265.224
398.414
399.043
88.259
267.631
88.816
267.219
17.8935
17.923
17.9304
17.9528
17.8133
17.829
17.8563
35.6756
81.0949
19.305
21.01
36.1021
80.9539
19.3078
400.893
400.798
34.4356
19.116
78.4129
20.7348
34.3209
19.1333
78.6067
145.853
144.312
22.9632
146.136
143.873
85.0467
264.914
85.7734
264.584
399.332
399.068
88.975
268.125
88.9445
267.381
17.8728
17.894
17.9586
17.9598
17.7903
17.8261
17.8516
35.887
80.9549
19.2952
21.0314
35.9335
80.1444
19.2855
401.161
400.978
34.8211
19.1445
78.6926
20.8503
34.6724
19.1689
78.111
146.189
144.46
22.9575
145.608
143.392
84.219
265.095
84.8813
264.578
399.284
398.991
88.4762
267.398
88.8964
267.067
17.931
17.9097
17.9369
17.8702
17.7756
17.8134
17.855
35.8058
80.5877
19.3007
20.8771
35.8092
80.4902
19.2957
400.804
400.885
34.4726
19.1731
78.7178
20.8178
34.8357
19.1775
78.3318
145.605
144.491
22.9589
145.5
144.308
84.4908
263.986
84.85
264.331
398.699
398.851
89.0573
267.545
88.9264
267.178
17.851
17.8996
17.9548
17.9763
17.8023
17.8017
17.8498
35.4412
79.9241
19.297
20.9197
35.6356
80.1962
19.2932
401.257
400.749
34.7047
19.1463
78.402
20.7779
34.7687
19.1429
78.8292
146.47
144.756
22.9314
145.561
144.387
84.7934
265.036
85.6418
263.861
399.743
399.17
88.9335
268.103
89.4645
267.35
17.9025
17.9229
17.9329
17.8363
35.7632
80.6359
19.2854
20.8875
35.4194
80.8569
19.2761
400.386
400.891
34.721
19.1414
79.1053
20.846
35.0171
19.1633
79.0514
146.09
144.409
22.9687
145.845
143.354
83.8279
262.74
262.376
84.209
34.046
74.544
19.1324
20.7443
19.1662
34.2114
75.9158
33.8337
76.084
19.1018
20.6453
77.0298
19.1541
33.911
82.258
263.663
83.7061
261.577
79.8487
263.208
258.983
83.7531
33.2103
20.8721
77.6721
19.1581
19.1615
33.9975
73.8958
32.9829
20.7691
76.4079
19.1402
75.7241
19.1465
33.8616
141.79
143.28
22.7501
141.477
143.128
399.432
398.592
397.465
394.711
22.4358
141.643
143.518
139.628
136.815
400.893
393.807
35.2901
74.4926
19.3501
21.0182
19.3472
34.7362
79.0458
88.1667
257.712
265.081
83.5961
35.3214
19.3322
73.9713
20.8882
19.3316
77.5128
34.7833
83.9452
262.706
89.1132
261.274
33.8838
20.9582
78.9279
19.3416
19.3449
35.6713
77.5276
86.1281
265.662
261.376
87.8539
34.6586
20.8513
19.3125
77.3537
19.3294
74.1458
35.4526
86.9651
264.892
266.055
87.1623
35.1845
19.3354
80.3975
21.0217
19.35
80.3687
35.445
86.8337
267.365
266.812
87.3881
34.0897
20.9655
77.0089
19.3711
77.3779
19.3738
35.6952
83.9871
265.349
263.405
87.4795
34.6037
20.9805
19.3529
80.4095
19.3564
76.3603
35.2498
82.1701
266.402
260.977
87.6723
134.834
136.025
22.6228
143.089
140.033
392.714
397.614
400.408
395.472
22.3784
142.73
141.684
139.967
132.797
398.593
390.58
33.8597
19.1689
76.2168
20.727
19.2075
76.9434
34.0486
83.7954
252.174
262.327
83.7783
83.3854
261.683
263.287
83.2706
32.9398
20.8253
19.2607
75.1037
19.2672
75.3152
33.3917
33.18
20.7077
19.1984
76.8409
19.1991
74.2302
33.7502
80.8331
263.21
258.471
83.5604
79.4775
264.059
254.698
83.4126
400.326
400.607
397.18
398.546
22.72
142.324
142.095
141.94
135.768
400.227
398.514
398.345
396.772
392.579
398.175
394.022
400.221
134.203
138.593
22.7728
141.822
144.806
398.59
395.559
398.297
396.702
22.6345
141.237
144.876
138.617
141.726
84.229
254.55
81.4922
264.107
33.9288
76.5245
19.1776
20.8184
33.034
77.0708
19.178
34.0752
73.5079
19.172
20.7448
33.4942
76.4533
19.1655
81.4833
263.949
261.826
83.7314
83.2169
263.575
261.005
84.8135
33.4303
20.8453
76.8116
19.1745
75.4774
19.1788
34.1214
33.7932
20.7649
76.3444
19.1559
74.0601
19.1695
34.1598
138.604
139.051
22.7282
140.745
143.521
397.566
400.139
397.505
396.248
22.6396
140.92
145.236
137.265
140.841
400.514
396.75
35.8043
74.9399
19.3415
20.897
35.2147
79.5235
19.3493
88.4401
256.857
86.6351
267.346
35.6437
19.3039
75.2001
20.9397
34.9837
19.2989
78.614
87.5524
265.391
260.723
88.758
35.4168
21.031
79.1711
19.3425
78.2575
19.3569
35.8603
84.9586
267.479
260.059
88.9372
35.1413
20.9428
19.2986
79.0805
19.3007
74.3604
35.5308
88.6273
257.557
86.1747
267.929
35.6168
19.3567
78.7563
21.1081
34.651
19.3618
80.3611
87.7972
260.846
86.2233
267.642
34.9786
20.9907
80.4053
19.3929
77.7287
19.3922
35.473
86.9576
267.327
264.682
88.8005
35.2497
21.0415
19.3597
80.7647
19.3608
76.7236
35.8843
85.9195
267.349
262.779
88.7675
138.25
135.469
22.6209
142.862
141.557
395.81
399.051
399.611
396.887
22.4535
143.57
142.119
136.645
137.966
398.74
394.126
33.7347
19.2294
74.1511
20.8107
32.7163
19.2504
77.423
83.742
261.281
80.6481
264.06
83.698
255.05
81.559
264.567
33.0961
20.8293
19.2463
77.4597
19.2543
74.0478
33.657
33.0447
20.8166
19.227
77.7153
19.2349
75.2856
34.2329
81.0318
263.994
261.801
84.1635
82.0527
264.664
255.246
84.5377
396.982
400.632
396.728
398.98
22.5698
143.349
140.198
143.601
139.644
399.707
399.078
398.658
397.172
391.851
398.965
399.61
400.698
136.346
138.528
22.8157
141.632
145.385
398.856
392.97
400.949
397.641
22.6994
141.479
144.63
136.887
140.928
85.1361
256.044
80.9922
263.513
34.2524
74.2023
19.1895
20.8765
32.8958
76.8759
19.2009
34.2797
74.6149
19.189
20.7279
33.7836
76.4941
19.1817
80.6941
265.037
255.389
84.3326
83.2669
263.933
253.254
84.3894
33.8073
20.8504
77.5542
19.1914
73.607
19.1948
34.185
33.6234
20.7261
76.6722
19.1795
74.0904
19.1868
34.079
138.373
140.86
22.8551
141.748
145.028
397.796
400.761
398.423
391.475
22.5476
141.801
144.628
138.714
139.942
400.302
395.221
35.8775
76.8075
19.3406
20.9644
35.1506
79.7724
19.3415
88.7609
258.71
87.2511
266.582
35.4361
19.3003
75.2186
20.8831
35.3903
19.3119
79.1469
84.6657
263.5
258.784
89.075
34.594
20.97
79.5069
19.3337
77.0404
19.3428
35.8606
86.9224
266.459
263.717
88.1017
35.7906
20.8222
19.3151
79.0234
19.3209
76.5649
36.0269
88.9689
263.102
87.0887
267.053
35.9503
19.3593
79.2354
21.133
34.6161
19.357
80.3822
88.5634
264.906
87.4812
267.513
34.6682
21.0667
79.9019
19.373
78.6959
19.3866
36.0052
87.0574
266.445
263.615
88.6599
34.3887
21.0395
19.3535
79.7788
19.3644
77.5148
35.8874
86.9946
266.938
265.182
88.2522
136.395
135.674
22.7221
144.45
142.421
392.177
398.371
400.344
394.192
22.5981
144.434
142.517
142.272
137.803
398.762
396.803
34.5471
19.2402
76.3495
20.7715
33.6612
19.2347
78.0953
84.6132
261.845
81.7695
264.832
85.3161
261.914
82.7055
264.542
33.6205
20.7972
19.2057
76.4409
19.2077
75.3008
34.1419
34.2607
20.9268
19.2317
78.3349
19.2368
76.6203
34.7869
82.7384
263.938
261.476
85.0243
84.3709
264.08
260.923
85.6275
398.853
400.559
396.473
398.375
22.6003
142.722
142.899
140.646
139.517
396.393
397.408
398.731
392.526
392.592
398.741
394.749
398.27
137.725
139.889
22.9591
142.118
145.261
398.269
394.494
401.448
393.673
22.7852
142.436
145.359
139.14
137.611
84.612
260.562
82.9404
263.402
34.1613
76.4008
19.2054
20.8666
33.8473
78.3822
19.2015
34.0165
74.2702
19.1845
20.6729
33.3253
76.7143
19.1755
82.4566
260.101
261.143
84.8798
80.977
264.668
255.501
84.6818
33.1612
20.8917
77.7799
19.1857
76.4099
19.1987
34.3259
32.9393
20.8319
75.2599
19.1526
74.5519
19.1729
34.1746
136.258
137.104
22.9329
142.068
145.541
396.46
397.828
398.529
396.829
22.7753
142.351
145.089
139.156
143.265
398.451
400.274
35.7464
77.859
19.3369
21.0316
35.4034
79.9786
19.3334
87.6706
257.517
85.3853
267.156
35.7305
19.3077
76.4916
20.8717
35.4523
19.3087
79.1262
84.8367
268.076
261.318
86.5513
34.8844
20.9268
79.8464
19.3241
77.9558
19.3237
35.7357
84.7673
266.14
262.953
87.6802
35.1818
20.9936
19.314
79.2685
19.3164
75.387
35.7724
88.4685
260.359
84.2371
266.676
35.7228
19.3405
77.0555
21.0797
35.2329
19.3379
79.9279
88.7802
257.327
84.1071
267.767
34.4816
21.0805
79.2631
19.3165
75.573
19.3319
35.0982
84.5409
266.902
256.351
87.7982
34.5543
21.0791
19.3159
79.716
19.3358
77.1479
35.929
83.8369
267.522
258.867
88.4752
142.78
138.126
22.7989
144.758
141.771
396.792
398.95
400.631
398.115
22.5829
144.698
141.777
140.493
137.585
398.105
395.811
34.5017
19.238
74.9316
20.8897
33.9137
19.2417
78.8575
84.8161
255.676
81.6127
264.506
85.0749
259.914
84.1583
264.655
33.8912
20.7929
19.2101
76.6959
19.2097
76.7727
34.6334
33.8688
20.856
19.2291
78.0755
19.242
74.3813
34.5177
82.8357
263.972
260.927
85.3654
83.6852
263.815
260.771
84.8574
399.628
401.115
396.07
398.588
22.6526
144.974
140.283
143.083
139.999
398.015
397.644
396.179
393.903
394.787
398.489
395.021
400.672
139.824
139.35
22.9351
142.496
146.032
399.282
394.922
401.347
394.614
22.6379
142.609
145.028
137.164
142.731
84.7518
255.649
82.3223
263.927
34.3027
74.0884
19.1827
20.9142
33.8183
78.2472
19.1774
34.5002
76.4849
19.1488
20.6815
34.1987
77.7074
19.1459
83.4168
261.53
261.359
85.0178
82.9416
264.014
260.368
84.609
33.1222
20.8234
78.5021
19.1601
75.3609
19.1667
34.4201
33.3258
20.8381
77.0278
19.1285
74.747
19.1453
34.3388
139.848
142.401
22.9934
142.136
144.929
399.386
400.485
398.994
394.222
22.7759
143.484
144.956
136.28
141.7
400.694
397.73
35.6776
77.6382
19.3066
21.0513
34.7094
79.8115
19.3091
88.2202
258.011
85.7757
266.829
35.8072
19.3187
76.3859
20.9298
35.1928
19.3188
80.2604
86.9748
262.914
260.268
86.4751
35
21.0626
79.3868
19.3067
77.2162
19.3099
35.7991
86.3593
266.393
263.127
87.8174
35.1551
20.9258
19.3152
79.6641
19.3185
78.5627
35.7235
87.7462
258.545
82.544
267.101
35.5859
19.3167
76.8642
21.068
34.2171
19.3046
79.6803
88.0546
258.843
83.4992
261.94
34.3421
20.975
80.1136
19.3023
78.9008
19.3024
34.8654
86.127
265.217
265.324
87.4883
34.9199
21.083
19.2975
79.8853
19.3062
77.4131
35.4007
86.0127
267.106
265.249
87.4037
141.667
135.862
22.8006
145.294
142.054
395.238
398.935
399.48
399.008
22.4633
145.325
138.784
138.127
137.482
398.332
395.917
34.3574
19.237
76.3364
20.9187
34.064
19.2388
77.541
85.2191
256.236
83.5284
264.174
84.9051
257.564
83.2706
263.888
33.8481
20.826
19.1991
77.1729
19.2047
73.6042
33.8933
33.2719
20.9059
19.21
77.8908
19.2302
74.2749
34.484
83.5784
263.326
258.386
85.1127
80.9146
263.729
258.054
85.6634
396.682
401.103
397.768
398.517
22.8069
142.666
140.98
142.871
138.93
400.268
397.818
398.097
393.684
396.288
398.602
398.234
400.429
136.018
140.494
23.0159
143.475
144.569
398.849
391.853
399.316
396.82
22.7194
144.233
144.801
136.766
140.793
84.4032
259.658
81.8767
264.368
34.104
76.5075
19.1605
20.9498
33.7908
78.1576
19.1566
34.1028
74.3759
19.1221
20.7988
33.0636
76.9129
19.1216
82.3791
264.907
256.978
84.2113
81.799
263.339
262.224
84.5551
33.2394
20.9579
78.1112
19.1377
76.2597
19.1488
34.1324
33.1144
20.8089
76.7335
19.1096
74.5303
19.1232
33.9452
141.077
140.248
22.8833
142.371
144.053
398.047
398.366
395.371
395.974
22.6866
142.073
144.177
139.352
139.861
399.724
399.505
35.8955
76.8202
19.305
21.0683
35.3325
78.6341
19.3144
88.1907
261.919
86.4356
266.659
35.8553
19.3112
78.6075
20.9597
35.0482
19.3126
79.8402
87.3139
265.635
263.636
88.284
35.6264
21.0603
80.5318
19.3272
76.7817
19.3293
36.23
86.9235
266.179
259.465
88.3877
34.6394
20.9401
19.3065
79.3834
19.3105
77.5491
36.1256
87.3097
265.04
83.5942
266.609
35.6542
19.2859
76.5487
21.0397
34.0637
19.2767
79.8503
88.4773
261.322
83.7897
266.266
33.8545
20.9518
79.3764
19.2706
75.7701
19.2826
35.4253
84.478
266.371
258.215
87.6373
35.0681
21.0386
19.2679
79.7378
19.2758
76.9025
35.6434
84.4663
266.198
260.234
88.9807
138.453
141.071
22.8089
145.53
143.096
394.826
395.245
400.574
399.115
22.6023
145.138
143.002
143.643
139.084
399.532
397.754
34.5934
19.1995
76.0029
20.8371
33.8945
19.2098
78.4596
85.3623
258.36
80.9731
264.001
85.5513
259.226
83.8734
264.312
33.7712
20.9013
19.1834
76.6123
19.1846
74.9559
34.6563
34.1813
20.8532
19.1918
78.4238
19.1996
76.9505
34.7447
82.8976
264.466
261.592
85.3044
83.421
264.081
255.958
85.476
397.32
400.391
392.076
398.095
22.6892
144.308
140.922
141.077
138.47
400.367
394.605
398.791
393.65
391.798
396.933
396.539
401.353
142.199
140.793
22.9842
143.617
144.61
399.457
393.217
400.702
398.31
22.8205
142.93
144.652
139.698
140.886
85.0787
254.941
82.6188
264.15
34.0917
77.1049
19.1398
20.8751
33.1886
77.9527
19.144
34.4679
74.0196
19.1172
20.6804
34.0907
77.0997
19.1155
82.5153
263.458
258.5
82.5374
83.9104
263.529
261.37
85.0453
33.307
20.8718
78.1426
19.1462
74.7451
19.1488
34.2413
33.6135
20.7904
76.6136
19.1148
74.1443
19.1218
33.9423
137.985
139.998
22.8482
142.544
144.284
398.1
401.002
394.971
396.768
22.7414
142.703
144.37
139.835
140.511
399.979
396.361
35.9499
78.9872
19.3195
21.1103
35.2291
79.9211
19.3276
88.5793
257.698
87.1701
265.861
35.9732
19.2999
75.06
21.0167
35.6098
19.3057
79.3148
84.8214
266.083
258.206
89.6437
35.3567
21.0903
79.7843
19.3342
78.3853
19.3373
36.074
83.7063
266.866
263.971
88.9623
35.5298
21.0193
19.3161
79.466
19.3134
78.0503
36.0352
88.68
263.685
86.1189
267.281
35.5575
19.2589
75.4167
21.1029
34.568
19.2785
80.4807
88.3035
258.302
86.7133
266.956
35.3348
20.957
79.7969
19.284
76.3502
19.2806
35.1694
84.1396
266.597
258.758
88.9707
34.6005
21.0185
19.2807
80.4534
19.2776
79.0172
35.7235
85.6694
267.539
257.186
88.2902
140.695
139.799
22.8756
144.501
142.74
397.435
399.01
398.09
393.91
22.6076
143.421
142.855
140.879
135.223
398.466
393.103
34.4364
19.2002
75.6439
20.8209
34.2604
19.1913
77.6733
84.7821
259.231
82.7251
263.766
85.4434
259.635
81.1521
263.662
33.5686
20.8913
19.1863
78.7476
19.1835
74.9944
34.0051
33.9679
20.8272
19.1753
77.2706
19.1946
74.9712
34.3752
80.8834
263.416
257.975
85.0299
83.6657
263.395
258.331
84.905
394.942
399.961
395.336
398.49
22.832
142.613
143.426
141.886
138.766
399.846
398.634
397.462
396.775
392.966
398.592
396.692
400.175
139.543
140.406
22.9402
142.212
144.395
398.478
393.605
401.755
393.71
22.7223
141.982
144.761
139.62
140.509
85.289
255.862
81.0157
263.301
34.2559
74.8324
19.1541
20.8353
33.6324
78.3193
19.1491
34.391
74.2095
19.1207
20.6847
34.2313
76.7849
19.1144
82.8899
265.284
255.876
82.5532
81.1411
263.35
257.458
84.9074
33.5825
20.9586
77.9701
19.1309
73.8761
19.137
33.8265
33.5279
20.754
77.078
19.0998
72.6191
19.109
33.9917
140.039
137
22.921
141.927
145.016
393.778
397.389
397.694
395.143
22.6594
142.551
145.222
135.105
137.889
399.662
400.232
36.0411
76.7992
19.3241
21.1303
34.4645
79.7281
19.323
88.2975
260.505
86.769
266.687
35.8416
19.3302
75.6449
21.0608
35.4019
19.3376
79.9899
87.5384
267.803
261.152
88.7287
35.6106
21.0182
79.486
19.3381
76.6798
19.3346
36.1778
84.1786
265.844
260.205
88.1331
34.8549
20.9732
19.3421
79.7595
19.3419
78.6979
35.8709
88.9224
259.93
84.0992
267.518
35.7065
19.2924
79.4728
21.1477
34.6194
19.3005
80.769
88.4386
264.638
86.6693
267.065
35.0549
21.0293
80.7377
19.2956
76.7985
19.2982
35.5706
87.1314
266.931
263.899
88.5826
35.0334
21.0263
19.3059
80.4137
19.3101
79.5224
35.8377
85.3903
266.799
263.312
89.0325
142.946
135.667
22.8113
145.46
142.905
395.237
398.851
401.153
394.308
22.6411
145.771
142.744
139.427
140.409
398.037
392.692
34.1991
19.1767
74.604
20.7301
33.6009
19.1771
77.2396
84.4226
258.055
81.8755
263.571
84.3339
257.436
83.6159
263.955
33.2843
20.8772
19.1524
76.9997
19.155
77.157
34.2746
32.973
20.7478
19.1488
77.9514
19.1621
73.101
34.2314
81.7608
263.956
257.477
84.7116
80.0849
265.594
255.074
84.8839
399.02
400.947
392.984
399.113
22.7451
145.803
141.004
143.596
138.551
400.198
396.156
399.055
391.783
394.211
398.625
396.107
401.157
136.48
140.462
22.9316
142.794
145.204
399.33
393.65
401.397
395.215
22.8413
142.429
144.828
140.724
140.643
84.6248
258.859
80.1839
263.676
34.1727
73.9947
19.133
20.8193
32.7686
78.2364
19.1337
34.2453
72.9687
19.1052
20.7075
33.8432
77.4941
19.1072
80.2811
265.706
255.942
81.3092
83.1353
263.261
257.349
84.4685
33.015
20.8636
78.2139
19.1326
76.8288
19.1379
34.118
33.7363
20.7992
76.7208
19.1
74.2666
19.1054
34.2781
135.812
137.937
22.9499
143.144
145.592
394.801
401.59
397.183
395.231
22.623
142.225
144.859
136.608
143
400.99
398.24
36.1756
75.8488
19.3443
21.0959
35.7373
79.8432
19.3666
88.2978
260.596
85.1074
265.976
35.927
19.3506
77.6279
21.0619
35.2009
19.3488
80.0716
87.7294
267.125
264.79
87.3239
35.441
21.1004
80.6119
19.3684
78.4087
19.3688
35.827
86.1313
266.007
260.918
88.3713
35.3579
20.9302
19.3388
78.516
19.3468
78.1936
36.0944
88.1265
258.532
85.5864
265.391
35.8495
19.3064
78.8531
21.1152
34.9793
19.3056
80.0154
88.1212
260.618
85.0891
266.875
35.0686
21.0546
80.0423
19.3046
78.6121
19.3027
34.9976
85.228
267.925
259.383
87.6579
34.7496
21.1119
19.2988
80.2256
19.3042
75.947
35.592
85.2019
266.691
259.203
88.0393
144.941
141.066
22.8332
144.876
143.302
396.81
399.072
400.321
397.858
22.5176
145.814
142.737
139.423
140.518
398.988
393.512
34.2583
19.1469
73.8475
20.7432
33.4284
19.1432
78.2739
84.9155
260.503
82.3906
264.772
84.6698
263.188
83.0403
265.092
33.556
20.8458
19.1286
77.6085
19.1398
73.8871
34.002
33.4176
20.7294
19.131
77.9967
19.1349
76.9864
34.3675
82.7756
264.581
255.868
84.6662
80.8758
263.684
259.2
84.6264
396.68
400.278
396.733
398.798
22.8646
143.009
143.076
143.029
139.763
397.422
397.114
398.26
395.345
396.84
398.938
398.119
401.414
136.446
141.897
22.9798
142.274
145.348
399.287
392.769
401.012
399.313
22.8292
142.084
145.459
137.927
143.563
85.1479
257.477
81.7697
264.145
34.4503
77.0806
19.1435
20.8611
33.4335
78.9673
19.154
34.4208
73.0613
19.1153
20.7798
33.9121
77.0805
19.1173
83.9927
260.321
261.563
84.6383
83.2382
264.058
261.127
85.4392
33.351
20.8805
78.0413
19.1619
77.3121
19.1582
34.6163
33.9142
20.7822
75.7935
19.1231
75.2095
19.1249
34.7006
136.56
142.83
22.949
143.258
144.751
395.096
400.42
397.379
395.365
22.7282
142.55
144.282
136.255
140.539
400.193
397.018
35.9481
76.8624
19.3674
21.0944
34.9544
80.3054
19.3633
88.106
260.752
86.3323
265.925
35.72
19.3295
74.8043
20.9056
35.1784
19.3219
79.5978
85.8488
262.561
264.774
88.8703
35.412
21.1152
80.8711
19.3391
77.2883
19.3606
35.9976
86.9821
266.39
262.111
88.4075
34.5908
21.0526
19.3205
79.1508
19.3261
77.2237
36.0437
88.0003
258.946
85.1117
262.969
35.4387
19.2904
76.0129
21.091
35.0717
19.2906
80.9929
87.3808
261.556
84.6416
267.272
35.1372
21.0733
78.4713
19.3051
78.536
19.3079
35.5626
85.3881
267.128
266.566
87.9566
33.8884
21.1011
19.2765
80.5762
19.282
79.6201
35.5395
83.1238
267.599
264.395
87.4134
142.132
138.962
22.7672
144.674
142.199
396.882
399.047
399.719
393.953
22.4353
144.695
142.044
137.263
138.225
398.046
395.765
34.3071
19.1545
75.0972
20.7274
33.5102
19.1484
77.5662
84.2264
260.82
81.8909
264.039
84.6394
257.345
82.5257
264.034
33.4277
20.7091
19.1076
77.9892
19.1177
76.1127
33.9506
33.5375
20.8176
19.1487
77.7672
19.1603
75.2443
34.4003
81.5104
264.474
254.961
84.1832
82.6123
263.759
258.122
84.6784
400.433
397.931
396.604
399.016
22.8225
143.456
141.149
142.992
139.372
400.884
393.622
398.835
397.258
396.269
398.652
394.874
401.48
137.449
139.221
22.965
142.681
146.411
398.702
395.003
400.469
395.162
22.7889
142.095
145.032
137.334
143.937
84.8369
255.194
82.802
264.51
34.5602
75.4451
19.1859
20.8903
33.4003
76.9678
19.1846
34.5299
74.495
19.1392
20.7851
33.6967
77.4421
19.136
81.2571
264.764
261.464
85.7933
82.1269
263.375
260.347
84.579
33.3268
20.8815
78.2532
19.1706
76.879
19.1822
34.6626
33.1612
20.7837
77.1232
19.1292
76.0518
19.1394
34.5192
136.915
139.947
22.8433
142.87
143.918
394.723
400.817
395.781
392.191
22.699
141.705
145.262
137.991
136.691
400.642
397.614
35.7772
77.0348
19.3439
21.0105
34.7814
81.3778
19.3326
88.1718
263.376
86.9118
266.69
35.8991
19.3144
77.0211
20.8605
35.6129
19.308
79.5718
83.7728
262.794
263.962
88.1036
34.8689
21.0118
79.9974
19.3387
79.6849
19.3428
36.2028
83.9831
267.074
256.922
88.8695
35.5727
21.0014
19.3025
79.4377
19.3073
77.9115
36.0687
87.8345
263.489
85.0892
266.607
35.4822
19.2642
78.2133
21.1106
34.9346
19.2664
80.1015
87.6176
261.001
84.132
267.206
34.1424
20.9902
77.9784
19.2927
76.7451
19.2935
35.437
84.7013
265.942
260.378
88.1022
34.2225
21.1173
19.2636
79.8389
19.2614
77.8961
35.8675
85.5798
265.361
261.224
88.3391
142.14
138.785
22.7605
144.013
142.533
391.911
398.035
399.376
394.014
22.4409
145.016
142.579
137.694
139.354
399.223
393.149
34.3558
19.1539
75.911
20.7933
33.4845
19.1629
78.0081
84.29
261.602
81.6033
264.183
85.0277
258.864
82.3158
263.895
33.6269
20.8488
19.1021
76.844
19.1071
77.8133
34.1979
33.5836
20.8106
19.1479
78.1589
19.1572
74.0955