/*--------------------------------*- C++ -*----------------------------------*\
| =========                 |                                                 |
| \\      /  F ield         | OpenFOAM: The Open Source CFD Toolbox           |
|  \\    /   O peration     | Version:  2206                                  |
|   \\  /    A nd           | Website:  www.openfoam.com                      |
|    \\/     M anipulation  |                                                 |
\*---------------------------------------------------------------------------*/
FoamFile
{
    version     2.0;
    format      ascii;
    arch        "LSB;label=32;scalar=64";
    class       volScalarField;
    location    "26";
    object      p;
}
// * * * * * * * * * * * * * * * * * * * * * * * * * * * * * * * * * * * * * //

dimensions      [0 2 -2 0 0 0 0];

internalField   nonuniform List<scalar> 
66928
(
-0.00885869
-0.00884225
-0.00884226
-0.00884243
-0.00885886
-0.00884268
-0.00889164
-0.00912238
-0.00884223
-0.00884265
-0.0088581
-0.00885834
-0.00885795
-0.00885813
-0.00885807
-0.0088571
-0.00885835
-0.00885832
-0.0088574
-0.00884225
-0.00885718
-0.00885845
-0.00885831
-0.00884235
-0.00885752
-0.00885719
-0.00885847
-0.00885828
-0.0088583
-0.00885846
-0.0088575
-0.00885838
-0.00889267
-0.0089901
-0.0088926
-0.00898979
-0.00889276
-0.00889274
-0.00899069
-0.00898987
-0.00898968
-0.0091217
-0.00902462
-0.00912151
-0.00902422
-0.00902372
-0.00912155
-0.00912144
-0.00902469
-0.00902439
-0.00882656
-0.00882668
-0.00885833
-0.00882665
-0.00885786
-0.00882678
-0.00882627
-0.00885799
-0.00882671
-0.00885851
-0.00882668
-0.00885794
-0.00882684
-0.00882632
-0.00885809
-0.00882649
-0.00885815
-0.00885818
-0.00882668
-0.0088267
-0.00885843
-0.00882666
-0.00885799
-0.00882648
-0.00885772
-0.00885835
-0.00885825
-0.00885831
-0.0088584
-0.00885837
-0.00885841
-0.0088583
-0.00885842
-0.00885834
-0.00885839
-0.00882702
-0.00885862
-0.00882687
-0.00885816
-0.00882655
-0.00882717
-0.00885828
-0.00882712
-0.00885863
-0.00882706
-0.00885816
-0.00882727
-0.00882663
-0.00885823
-0.00882686
-0.00885836
-0.00885836
-0.00882703
-0.00882706
-0.00885862
-0.00882694
-0.00882684
-0.00885835
-0.00882684
-0.00885825
-0.00892418
-0.00895857
-0.00892404
-0.00895824
-0.00895824
-0.00898987
-0.00898978
-0.00895854
-0.00895842
-0.0089901
-0.00892385
-0.00889214
-0.00889297
-0.00892401
-0.00889267
-0.00892388
-0.00892426
-0.00892388
-0.00889208
-0.00889294
-0.00892398
-0.00889265
-0.00892383
-0.00892424
-0.0089241
-0.00889274
-0.00889269
-0.00889241
-0.00892401
-0.00892396
-0.00895856
-0.00898967
-0.00895858
-0.00899035
-0.00895875
-0.00898984
-0.00895821
-0.0089585
-0.00898952
-0.00895832
-0.00899032
-0.00895854
-0.00898982
-0.00895805
-0.0090903
-0.00905601
-0.00908997
-0.00905573
-0.00905591
-0.00902445
-0.00902434
-0.0090242
-0.00905574
-0.00905567
-0.00909033
-0.00912199
-0.00909039
-0.00912137
-0.00909048
-0.00908998
-0.00912153
-0.00909022
-0.00912195
-0.00909013
-0.0091213
-0.00909034
-0.00908974
-0.00912151
-0.00905571
-0.00902474
-0.00902414
-0.00905583
-0.00902454
-0.00905562
-0.00905616
-0.00905569
-0.00902457
-0.00902394
-0.00905569
-0.00902443
-0.0090555
-0.00905609
-0.00908996
-0.00912154
-0.0091215
-0.00909024
-0.00909016
-0.00912177
-0.00882817
-0.008826
-0.0088578
-0.00885791
-0.00882679
-0.00882674
-0.00885643
-0.00882846
-0.00882629
-0.00885806
-0.00885804
-0.00882702
-0.00882705
-0.00885668
-0.00892244
-0.0088925
-0.00889241
-0.00892449
-0.00889405
-0.00892371
-0.00892373
-0.00909181
-0.00908967
-0.00912148
-0.00912151
-0.00909046
-0.00909031
-0.00912006
-0.00884233
-0.00884253
-0.00882561
-0.00885893
-0.00882732
-0.0088569
-0.00882562
-0.00882725
-0.00885866
-0.00882573
-0.0088591
-0.00882754
-0.0088572
-0.00882571
-0.0088277
-0.00885891
-0.00882575
-0.00882789
-0.00885717
-0.00885911
-0.00882783
-0.00882587
-0.00885895
-0.0088259
-0.00885921
-0.00882764
-0.00885731
-0.00882779
-0.00882589
-0.00885898
-0.00882584
-0.00882791
-0.00885913
-0.00885722
-0.00882591
-0.00882786
-0.00885901
-0.00882613
-0.00885922
-0.00882781
-0.00885725
-0.00882608
-0.00882795
-0.00885895
-0.00896006
-0.00895785
-0.00898983
-0.00898986
-0.00898837
-0.00895871
-0.00895858
-0.00905427
-0.00905646
-0.00902453
-0.00902439
-0.00902591
-0.00905561
-0.00905563
-0.00890806
-0.00890822
-0.0089082
-0.00889194
-0.00917181
-0.00917175
-0.00917171
-0.00915528
-0.0094356
-0.00943564
-0.00943562
-0.00941919
-0.00969954
-0.00969962
-0.00969961
-0.00968325
-0.00996356
-0.00996358
-0.0099636
-0.00994717
-0.0102279
-0.0102278
-0.0102279
-0.0102114
-0.0104923
-0.0104922
-0.0104923
-0.0104757
-0.0107576
-0.0107576
-0.0107576
-0.0107411
-0.0110235
-0.0110235
-0.0110235
-0.011007
-0.0112905
-0.0112905
-0.0112905
-0.011274
-0.011558
-0.011558
-0.011558
-0.0115415
-0.011826
-0.011826
-0.011826
-0.0118094
-0.0120943
-0.0120942
-0.0120943
-0.0120776
-0.0123635
-0.0123635
-0.0123635
-0.0123469
-0.0126336
-0.0126336
-0.0126336
-0.012617
-0.0129042
-0.0129042
-0.0129042
-0.0128875
-0.0131747
-0.013175
-0.0131749
-0.0131584
-0.00890815
-0.00890817
-0.00910618
-0.00910617
-0.00889187
-0.00912233
-0.00890814
-0.00890816
-0.00910607
-0.00910594
-0.0089082
-0.00910601
-0.00910601
-0.00889171
-0.00912223
-0.00890831
-0.00910601
-0.00910611
-0.00912228
-0.00915541
-0.00938595
-0.0091718
-0.00917175
-0.00936969
-0.00936974
-0.00915538
-0.009386
-0.00917173
-0.00917162
-0.00936966
-0.00936965
-0.00917161
-0.00936968
-0.00936971
-0.00915527
-0.00938595
-0.0091716
-0.00936964
-0.00936974
-0.00938603
-0.0094191
-0.00964998
-0.00943555
-0.00943555
-0.00963366
-0.00963371
-0.00941917
-0.00965006
-0.00943553
-0.00943552
-0.00963365
-0.00963368
-0.00943557
-0.0096337
-0.00963374
-0.00941911
-0.00965003
-0.00943558
-0.00963369
-0.00963377
-0.00965011
-0.00968313
-0.00991388
-0.00969953
-0.00969953
-0.00989758
-0.00989762
-0.00968319
-0.0099139
-0.00969952
-0.00969952
-0.00989759
-0.00989759
-0.00969957
-0.00989759
-0.00989764
-0.00968315
-0.00991393
-0.00969959
-0.00989761
-0.00989767
-0.00991398
-0.00994711
-0.0101782
-0.00996353
-0.0099635
-0.0101619
-0.0101619
-0.00994711
-0.0101781
-0.00996353
-0.00996351
-0.0101618
-0.0101618
-0.00996352
-0.0101618
-0.0101618
-0.0099471
-0.0101781
-0.00996354
-0.0101618
-0.0101618
-0.0101781
-0.0102114
-0.0104424
-0.0102278
-0.0102278
-0.0104262
-0.0104262
-0.0102114
-0.0104424
-0.0102278
-0.0102278
-0.0104262
-0.0104261
-0.0102277
-0.0104261
-0.0104261
-0.0102114
-0.0104424
-0.0102278
-0.0104262
-0.0104262
-0.0104424
-0.0104758
-0.0107076
-0.0104922
-0.0104921
-0.0106913
-0.0106913
-0.0104757
-0.0107076
-0.0104922
-0.0104921
-0.0106913
-0.0106912
-0.0104921
-0.0106912
-0.0106912
-0.0104757
-0.0107076
-0.0104921
-0.0106912
-0.0106913
-0.0107076
-0.0107412
-0.0109734
-0.0107576
-0.0107576
-0.010957
-0.010957
-0.0107411
-0.0109733
-0.0107576
-0.0107575
-0.010957
-0.010957
-0.0107575
-0.010957
-0.010957
-0.0107411
-0.0109734
-0.0107575
-0.010957
-0.0109571
-0.0109734
-0.011007
-0.0112401
-0.0110235
-0.0110234
-0.0112238
-0.0112238
-0.011007
-0.0112401
-0.0110235
-0.0110234
-0.0112238
-0.0112238
-0.0110234
-0.0112237
-0.0112238
-0.011007
-0.0112402
-0.0110235
-0.0112238
-0.0112238
-0.0112402
-0.011274
-0.0115076
-0.0112905
-0.0112904
-0.0114911
-0.0114911
-0.0112739
-0.0115075
-0.0112905
-0.0112905
-0.0114911
-0.0114911
-0.0112904
-0.0114911
-0.0114911
-0.011274
-0.0115075
-0.0112904
-0.0114911
-0.0114912
-0.0115075
-0.0115415
-0.0117755
-0.011558
-0.011558
-0.0117591
-0.011759
-0.0115414
-0.0117754
-0.011558
-0.0115579
-0.011759
-0.011759
-0.0115579
-0.011759
-0.011759
-0.0115415
-0.0117754
-0.011558
-0.011759
-0.011759
-0.0117755
-0.0118094
-0.0120436
-0.0118259
-0.0118259
-0.0120272
-0.0120272
-0.0118094
-0.0120436
-0.0118259
-0.0118259
-0.0120272
-0.0120272
-0.0118259
-0.0120271
-0.0120271
-0.0118094
-0.0120436
-0.0118259
-0.0120272
-0.0120272
-0.0120436
-0.0120776
-0.0123126
-0.0120942
-0.0120942
-0.0122962
-0.0122962
-0.0120776
-0.0123126
-0.0120942
-0.0120942
-0.0122961
-0.0122962
-0.0120941
-0.0122961
-0.0122962
-0.0120776
-0.0123126
-0.0120942
-0.0122962
-0.0122962
-0.0123126
-0.0123468
-0.0125825
-0.0123635
-0.0123634
-0.012566
-0.0125661
-0.0123468
-0.0125825
-0.0123634
-0.0123634
-0.012566
-0.012566
-0.0123634
-0.012566
-0.012566
-0.0123469
-0.0125825
-0.0123634
-0.012566
-0.0125661
-0.0125826
-0.0126169
-0.012853
-0.0126335
-0.0126335
-0.0128366
-0.0128366
-0.0126169
-0.0128531
-0.0126335
-0.0126335
-0.0128365
-0.0128365
-0.0126335
-0.0128365
-0.0128365
-0.0126169
-0.0128531
-0.0126336
-0.0128366
-0.0128366
-0.0128531
-0.0128875
-0.0131238
-0.0129041
-0.0129041
-0.0131073
-0.0131073
-0.0128875
-0.0131238
-0.0129041
-0.0129041
-0.0131073
-0.0131073
-0.0129041
-0.0131073
-0.0131073
-0.0128875
-0.0131237
-0.0129041
-0.0131073
-0.0131073
-0.0131238
-0.0131583
-0.0131748
-0.0131749
-0.0131584
-0.0131748
-0.0131747
-0.0131749
-0.0133783
-0.0131583
-0.013175
-0.0133784
-0.0133948
-0.00898998
-0.00889266
-0.00889257
-0.00899008
-0.00889261
-0.00899007
-0.00898987
-0.00889262
-0.00889251
-0.00898975
-0.00890807
-0.00890813
-0.00890817
-0.00910613
-0.0091062
-0.00910607
-0.00910618
-0.00898881
-0.00889335
-0.00890816
-0.00897402
-0.00898904
-0.00897391
-0.00889352
-0.00889268
-0.00898974
-0.00898862
-0.00890821
-0.00889362
-0.00897402
-0.00897364
-0.00898892
-0.00889368
-0.0088927
-0.00889288
-0.00899039
-0.00898969
-0.0089896
-0.00925334
-0.00915618
-0.00915632
-0.00925338
-0.00915613
-0.00925337
-0.00925338
-0.00915588
-0.00915581
-0.00925333
-0.00917165
-0.0091716
-0.00917153
-0.00936964
-0.00936973
-0.00936968
-0.00936974
-0.00925238
-0.00915672
-0.00917169
-0.00923763
-0.00915685
-0.0092525
-0.00923756
-0.00915577
-0.00925328
-0.00925215
-0.00917168
-0.00915679
-0.00923756
-0.00915703
-0.00923748
-0.00925236
-0.00915592
-0.00915598
-0.00925398
-0.00925323
-0.00925311
-0.00951711
-0.00941974
-0.00941978
-0.00951715
-0.00941968
-0.0095172
-0.00951736
-0.0094197
-0.00941962
-0.00951728
-0.00943555
-0.00943553
-0.00943555
-0.00963359
-0.00963368
-0.00963366
-0.00963371
-0.00951645
-0.00942053
-0.00943559
-0.0095016
-0.00942073
-0.00951658
-0.00950154
-0.00941964
-0.00951728
-0.00951617
-0.00943558
-0.0094206
-0.00950158
-0.00942086
-0.00950154
-0.00951638
-0.00941981
-0.00941984
-0.00951802
-0.00951728
-0.00951715
-0.00978112
-0.00968391
-0.00968394
-0.00978112
-0.00968397
-0.00978121
-0.00978128
-0.0096839
-0.00968382
-0.00978121
-0.00969949
-0.00969948
-0.00969949
-0.00989755
-0.00989762
-0.00989761
-0.00989765
-0.00978037
-0.00968475
-0.00969956
-0.00976556
-0.00968488
-0.00978049
-0.0097655
-0.00968389
-0.00978122
-0.00978017
-0.00969957
-0.00968485
-0.00976554
-0.009685
-0.00976549
-0.00978035
-0.00968406
-0.0096841
-0.00978199
-0.00978127
-0.00978119
-0.0100452
-0.00994769
-0.00994779
-0.0100452
-0.00994768
-0.0100452
-0.0100454
-0.0099476
-0.00994761
-0.0100453
-0.00996349
-0.00996349
-0.00996348
-0.0101618
-0.0101618
-0.0101618
-0.0101618
-0.0100444
-0.00994853
-0.00996354
-0.0100296
-0.00994868
-0.0100445
-0.0100295
-0.00994759
-0.0100453
-0.0100442
-0.00996355
-0.00994862
-0.0100296
-0.00994888
-0.0100295
-0.0100443
-0.00994782
-0.00994789
-0.010046
-0.0100452
-0.0100451
-0.0103096
-0.0102121
-0.0102122
-0.0103096
-0.0102121
-0.0103097
-0.0103097
-0.0102121
-0.010212
-0.0103097
-0.0102278
-0.0102278
-0.0102277
-0.0104262
-0.0104262
-0.0104262
-0.0104262
-0.0103087
-0.0102128
-0.0102278
-0.0102939
-0.0102129
-0.0103089
-0.0102938
-0.010212
-0.0103097
-0.0103085
-0.0102278
-0.0102129
-0.0102939
-0.0102131
-0.0102938
-0.0103087
-0.010212
-0.0102121
-0.0103103
-0.0103095
-0.0103094
-0.0105739
-0.0104762
-0.0104763
-0.010574
-0.0104762
-0.0105739
-0.0105741
-0.0104761
-0.0104761
-0.010574
-0.0104922
-0.0104922
-0.0104921
-0.0106912
-0.0106913
-0.0106913
-0.0106913
-0.0105731
-0.010477
-0.0104922
-0.0105584
-0.0104772
-0.0105733
-0.0105584
-0.0104761
-0.010574
-0.010573
-0.0104922
-0.0104771
-0.0105584
-0.0104774
-0.0105584
-0.0105732
-0.0104762
-0.0104763
-0.0105748
-0.0105739
-0.0105739
-0.0108398
-0.0107418
-0.0107418
-0.0108398
-0.0107418
-0.0108398
-0.0108399
-0.0107417
-0.0107417
-0.0108398
-0.0107575
-0.0107575
-0.0107575
-0.010957
-0.0109571
-0.0109571
-0.0109571
-0.0108389
-0.0107425
-0.0107576
-0.010824
-0.0107426
-0.010839
-0.010824
-0.0107417
-0.0108398
-0.0108387
-0.0107576
-0.0107426
-0.010824
-0.0107428
-0.010824
-0.0108389
-0.0107418
-0.0107419
-0.0108404
-0.0108398
-0.0108397
-0.0111059
-0.0110075
-0.0110076
-0.0111059
-0.0110074
-0.0111059
-0.0111061
-0.0110074
-0.0110074
-0.011106
-0.0110235
-0.0110235
-0.0110234
-0.0112238
-0.0112238
-0.0112238
-0.0112238
-0.011105
-0.0110083
-0.0110235
-0.0110901
-0.0110084
-0.0111052
-0.0110901
-0.0110074
-0.0111061
-0.0111049
-0.0110235
-0.0110084
-0.0110901
-0.0110086
-0.0110901
-0.0111051
-0.0110075
-0.0110076
-0.0111066
-0.0111059
-0.0111058
-0.011373
-0.0112745
-0.0112746
-0.011373
-0.0112745
-0.011373
-0.0113732
-0.0112745
-0.0112745
-0.0113731
-0.0112904
-0.0112904
-0.0112904
-0.0114911
-0.0114912
-0.0114912
-0.0114912
-0.0113722
-0.0112753
-0.0112904
-0.0113572
-0.0112754
-0.0113723
-0.0113572
-0.0112745
-0.0113731
-0.011372
-0.0112905
-0.0112754
-0.0113573
-0.0112756
-0.0113572
-0.0113722
-0.0112745
-0.0112746
-0.0113737
-0.011373
-0.0113729
-0.0116409
-0.0115421
-0.0115421
-0.0116409
-0.011542
-0.0116409
-0.0116411
-0.0115419
-0.0115419
-0.011641
-0.011558
-0.011558
-0.0115579
-0.011759
-0.0117591
-0.0117591
-0.0117591
-0.01164
-0.0115428
-0.011558
-0.011625
-0.0115429
-0.0116402
-0.0116249
-0.0115419
-0.011641
-0.0116398
-0.011558
-0.0115429
-0.011625
-0.0115431
-0.0116249
-0.01164
-0.011542
-0.0115421
-0.0116415
-0.0116408
-0.0116408
-0.0119088
-0.0118099
-0.01181
-0.0119088
-0.0118099
-0.0119088
-0.011909
-0.0118099
-0.0118098
-0.0119089
-0.0118259
-0.0118259
-0.0118258
-0.0120272
-0.0120272
-0.0120272
-0.0120272
-0.0119079
-0.0118107
-0.0118259
-0.0118929
-0.0118108
-0.0119081
-0.0118929
-0.0118098
-0.0119089
-0.0119078
-0.0118259
-0.0118108
-0.011893
-0.011811
-0.0118929
-0.011908
-0.0118099
-0.01181
-0.0119094
-0.0119088
-0.0119087
-0.0121772
-0.012078
-0.0120781
-0.0121772
-0.0120779
-0.0121772
-0.0121774
-0.012078
-0.012078
-0.0121773
-0.0120942
-0.0120942
-0.0120942
-0.0122961
-0.0122962
-0.0122962
-0.0122962
-0.0121764
-0.0120787
-0.0120942
-0.0121614
-0.0120789
-0.0121765
-0.0121614
-0.0120779
-0.0121774
-0.0121762
-0.0120942
-0.0120789
-0.0121614
-0.0120792
-0.0121614
-0.0121764
-0.012078
-0.0120781
-0.0121779
-0.0121772
-0.0121771
-0.0124468
-0.0123473
-0.0123474
-0.0124469
-0.0123473
-0.0124469
-0.012447
-0.0123473
-0.0123472
-0.0124469
-0.0123634
-0.0123634
-0.0123634
-0.012566
-0.0125661
-0.0125661
-0.0125661
-0.012446
-0.0123481
-0.0123634
-0.0124309
-0.0123482
-0.0124461
-0.0124309
-0.0123472
-0.0124469
-0.0124458
-0.0123635
-0.0123482
-0.0124309
-0.0123484
-0.0124309
-0.012446
-0.0123473
-0.0123474
-0.0124474
-0.0124469
-0.0124468
-0.0127172
-0.0126174
-0.0126174
-0.0127172
-0.0126174
-0.0127172
-0.0127173
-0.0126173
-0.0126173
-0.0127172
-0.0126335
-0.0126335
-0.0126335
-0.0128365
-0.0128366
-0.0128366
-0.0128366
-0.0127164
-0.0126182
-0.0126335
-0.0127012
-0.0126183
-0.0127165
-0.0127011
-0.0126173
-0.0127173
-0.0127161
-0.0126335
-0.0126183
-0.0127012
-0.0126185
-0.0127011
-0.0127163
-0.0126175
-0.0126175
-0.0127177
-0.0127172
-0.0127171
-0.0129879
-0.0128879
-0.012888
-0.0129879
-0.0128879
-0.012988
-0.012988
-0.0128878
-0.0128878
-0.0129879
-0.0129041
-0.0129041
-0.0129041
-0.0131072
-0.0131073
-0.0131073
-0.0131073
-0.012987
-0.0128887
-0.0129041
-0.0129718
-0.0128889
-0.0129871
-0.0129717
-0.0128878
-0.012988
-0.0129868
-0.0129041
-0.0128888
-0.0129718
-0.0128891
-0.0129718
-0.012987
-0.0128879
-0.012888
-0.0129884
-0.0129878
-0.0129878
-0.0132589
-0.0131588
-0.0131589
-0.013259
-0.0131588
-0.0132589
-0.0132591
-0.0131587
-0.0131587
-0.0132591
-0.0131749
-0.0131747
-0.0131749
-0.0133784
-0.013258
-0.0131596
-0.013175
-0.0132427
-0.0131597
-0.0132581
-0.0132426
-0.0131588
-0.013259
-0.0132578
-0.0131749
-0.0131597
-0.0132427
-0.0131599
-0.0132427
-0.013258
-0.0131588
-0.0131589
-0.0132593
-0.0132588
-0.0132588
-0.00898998
-0.0088926
-0.00899004
-0.00889257
-0.00898896
-0.00889334
-0.00890816
-0.00897423
-0.00897404
-0.00889363
-0.00898917
-0.00898895
-0.00889341
-0.00890809
-0.00897398
-0.00898914
-0.00897395
-0.00889362
-0.00902467
-0.00912166
-0.00912172
-0.00902472
-0.00902468
-0.00912172
-0.00902466
-0.00912171
-0.00902569
-0.00904025
-0.00912087
-0.0091062
-0.00904023
-0.00912077
-0.00902541
-0.00902567
-0.00904016
-0.00912088
-0.0091062
-0.0090254
-0.00904023
-0.00912074
-0.00889271
-0.00889257
-0.00899051
-0.00898979
-0.00898978
-0.00889252
-0.00898987
-0.00912171
-0.00902456
-0.00902364
-0.00912158
-0.00912142
-0.00902464
-0.00902431
-0.00912151
-0.00902423
-0.00898888
-0.00889331
-0.00890808
-0.00897421
-0.00897413
-0.00889328
-0.00898907
-0.00898987
-0.00889272
-0.00898972
-0.00889251
-0.0089889
-0.00890812
-0.00889336
-0.00897414
-0.00897413
-0.00898903
-0.00889328
-0.00902412
-0.00912148
-0.00912154
-0.00902424
-0.0090251
-0.00904015
-0.00912076
-0.00910599
-0.00904011
-0.00912065
-0.00902509
-0.00902411
-0.00912142
-0.00902423
-0.00912153
-0.0090251
-0.00904003
-0.00910597
-0.0091207
-0.00904011
-0.00902499
-0.00912063
-0.00898984
-0.00889252
-0.00898981
-0.00889252
-0.00898881
-0.00890812
-0.00889345
-0.00897382
-0.0089738
-0.00898899
-0.00889355
-0.00898983
-0.00889261
-0.00898979
-0.00889253
-0.00902513
-0.00904003
-0.00912074
-0.00910598
-0.00902502
-0.00904001
-0.00912061
-0.0090241
-0.00912148
-0.00902424
-0.00912152
-0.00902512
-0.00903999
-0.00910599
-0.00912069
-0.00904003
-0.00902498
-0.00912064
-0.0090241
-0.00912144
-0.0090242
-0.00912154
-0.0088928
-0.0088929
-0.00899057
-0.00898964
-0.0089896
-0.00889283
-0.00898978
-0.00912141
-0.00902416
-0.00902352
-0.00912133
-0.00912126
-0.00902432
-0.00902442
-0.00912136
-0.00902428
-0.00898861
-0.0089082
-0.00889367
-0.0089737
-0.00897352
-0.00898887
-0.00889367
-0.00898969
-0.00889299
-0.00898967
-0.00889286
-0.00898968
-0.00889287
-0.0089897
-0.00889284
-0.00902528
-0.00903999
-0.00910606
-0.00912057
-0.00903989
-0.00902517
-0.00912041
-0.00902528
-0.00904
-0.00910612
-0.00912057
-0.00903999
-0.00902513
-0.00912043
-0.00902433
-0.00912133
-0.00902437
-0.00912134
-0.00902433
-0.00912138
-0.00902434
-0.00912136
-0.00889262
-0.00898982
-0.00889277
-0.00898977
-0.00902349
-0.00912135
-0.00912126
-0.00902427
-0.00902439
-0.00912145
-0.00902418
-0.00912139
-0.00902425
-0.00915612
-0.0092534
-0.00915586
-0.00925337
-0.00915621
-0.00915601
-0.00925409
-0.00925328
-0.00925327
-0.00938521
-0.00928791
-0.00938529
-0.00928782
-0.00928718
-0.00938512
-0.00938517
-0.00928806
-0.00928795
-0.00925334
-0.00915624
-0.0091563
-0.00925334
-0.00925236
-0.00915704
-0.00917177
-0.00923766
-0.00915725
-0.0092526
-0.00923763
-0.00925238
-0.009157
-0.00917173
-0.00923767
-0.00915722
-0.00925256
-0.00923764
-0.00928797
-0.00938517
-0.00928797
-0.00938511
-0.00928799
-0.00938514
-0.00928799
-0.00938509
-0.00928901
-0.00930367
-0.00938438
-0.00936968
-0.0092888
-0.0093037
-0.00938419
-0.00928903
-0.00930373
-0.00938434
-0.0093697
-0.0092888
-0.00930375
-0.00938417
-0.00915624
-0.00915597
-0.00925409
-0.00925324
-0.00925321
-0.00915586
-0.00925331
-0.00938518
-0.00928791
-0.00928718
-0.00938506
-0.00938518
-0.00928804
-0.00928794
-0.00938526
-0.00928779
-0.00925241
-0.00915674
-0.00917164
-0.0092376
-0.00915679
-0.00925258
-0.00923753
-0.00925336
-0.0091558
-0.00915583
-0.00925323
-0.00925241
-0.00917159
-0.00915662
-0.00923755
-0.00915679
-0.00923752
-0.00925249
-0.00928771
-0.00938525
-0.00928784
-0.00938528
-0.00928872
-0.00930362
-0.00938447
-0.00936964
-0.00928862
-0.00930361
-0.00938433
-0.00928773
-0.00938523
-0.00928778
-0.00938528
-0.00928874
-0.0093036
-0.00936966
-0.00938442
-0.00930364
-0.00928856
-0.00938432
-0.00925337
-0.00915585
-0.00915586
-0.00925326
-0.00925239
-0.00917157
-0.00915666
-0.00923753
-0.0091568
-0.00923753
-0.00925255
-0.00925336
-0.00915584
-0.00915585
-0.00925327
-0.00928877
-0.00930362
-0.00938451
-0.00936966
-0.00928864
-0.0093036
-0.00938437
-0.00928775
-0.00938524
-0.00928784
-0.00938532
-0.00928875
-0.00930366
-0.00936972
-0.00938452
-0.00930369
-0.00928865
-0.00938442
-0.00928773
-0.00938528
-0.00928782
-0.00938535
-0.00915587
-0.00915597
-0.00925399
-0.00925315
-0.00925309
-0.00915581
-0.0092532
-0.00938524
-0.00928773
-0.00928707
-0.00938513
-0.00938504
-0.00928785
-0.00928796
-0.00938517
-0.00928778
-0.00925217
-0.00917155
-0.00915677
-0.00923751
-0.00915698
-0.00923746
-0.00925239
-0.00925315
-0.00915586
-0.00915601
-0.00925316
-0.00925314
-0.00915595
-0.00915604
-0.00925317
-0.00928892
-0.00930353
-0.00936963
-0.00938431
-0.00930353
-0.00928872
-0.00938412
-0.00928892
-0.00930368
-0.00936967
-0.00938437
-0.00930364
-0.00928873
-0.00938413
-0.0092879
-0.00938512
-0.00928788
-0.00938505
-0.00928789
-0.00938515
-0.00928787
-0.00938507
-0.00915582
-0.0092533
-0.00915586
-0.00925323
-0.00928718
-0.00938518
-0.00938507
-0.0092879
-0.00928795
-0.00938528
-0.00928777
-0.0093852
-0.00928781
-0.00941971
-0.0095172
-0.00941969
-0.00951729
-0.00941986
-0.00941981
-0.00951797
-0.00951708
-0.00951717
-0.00964939
-0.00955184
-0.00964948
-0.00955185
-0.00955109
-0.00964926
-0.00964935
-0.00955199
-0.00955196
-0.00951713
-0.00941972
-0.00941977
-0.00951712
-0.00951613
-0.0094206
-0.00943551
-0.00950153
-0.00942076
-0.00951636
-0.00950148
-0.00951615
-0.00942056
-0.00943549
-0.00950152
-0.00942075
-0.00951637
-0.00950147
-0.00955187
-0.00964933
-0.00955186
-0.00964926
-0.0095519
-0.0096494
-0.00955192
-0.00964928
-0.00955289
-0.00956758
-0.00964847
-0.00963362
-0.0095527
-0.00956757
-0.00964826
-0.0095529
-0.00956763
-0.00964855
-0.00963363
-0.00955275
-0.0095676
-0.00964828
-0.00941984
-0.00941975
-0.00951801
-0.009517
-0.00951727
-0.00941969
-0.00951735
-0.00964946
-0.00955188
-0.00955115
-0.00964932
-0.00964939
-0.00955204
-0.00955198
-0.00964954
-0.00955192
-0.00951633
-0.0094205
-0.00943549
-0.00950151
-0.00942057
-0.0095165
-0.00950147
-0.00951736
-0.00941965
-0.00941964
-0.00951725
-0.00951636
-0.00943547
-0.00942042
-0.00950151
-0.00942058
-0.00950147
-0.00951651
-0.00955175
-0.00964946
-0.00955186
-0.00964952
-0.00955273
-0.00956757
-0.00964864
-0.00963361
-0.00955262
-0.00956756
-0.00964849
-0.00955176
-0.00964948
-0.00955188
-0.0096495
-0.00955276
-0.00956762
-0.00963363
-0.00964865
-0.00956761
-0.00955266
-0.00964847
-0.00951746
-0.00941969
-0.00941971
-0.0095173
-0.00951648
-0.00943556
-0.00942057
-0.00950156
-0.00942068
-0.00950154
-0.00951658
-0.00951748
-0.00941973
-0.00941973
-0.00951735
-0.00955286
-0.00956762
-0.00964871
-0.00963365
-0.00955274
-0.0095676
-0.00964857
-0.0095519
-0.00964953
-0.00955197
-0.00964957
-0.00955286
-0.0095677
-0.0096337
-0.00964871
-0.00956768
-0.00955274
-0.0096486
-0.0095519
-0.00964958
-0.00955198
-0.00964959
-0.00941972
-0.0094198
-0.00951798
-0.00951718
-0.00951709
-0.00941968
-0.00951725
-0.00964949
-0.00955183
-0.00955113
-0.00964938
-0.00964931
-0.00955196
-0.00955205
-0.00964949
-0.00955194
-0.0095162
-0.00943553
-0.00942065
-0.00950159
-0.00942081
-0.00950154
-0.00951643
-0.0095172
-0.00941972
-0.00941981
-0.00951718
-0.00951719
-0.00941976
-0.00941982
-0.00951719
-0.00955303
-0.00956759
-0.00963364
-0.00964854
-0.00956758
-0.00955282
-0.00964829
-0.00955302
-0.00956774
-0.00963369
-0.0096486
-0.00956767
-0.00955283
-0.00964833
-0.00955203
-0.00964944
-0.00955202
-0.00964933
-0.009552
-0.0096495
-0.00955198
-0.00964936
-0.00941971
-0.00951738
-0.00941971
-0.00951729
-0.00955122
-0.00964942
-0.00964936
-0.00955203
-0.00955206
-0.00964959
-0.00955195
-0.00964952
-0.00955195
-0.0096839
-0.00978117
-0.00968391
-0.00978122
-0.00968401
-0.00968398
-0.00978187
-0.00978103
-0.00978109
-0.00991311
-0.0098157
-0.00991315
-0.00981566
-0.00981496
-0.00991301
-0.00991306
-0.00981585
-0.00981579
-0.00978112
-0.00968398
-0.00968398
-0.00978114
-0.00978011
-0.00968477
-0.00969946
-0.00976548
-0.00968486
-0.00978032
-0.00976543
-0.00978011
-0.00968478
-0.00969944
-0.0097655
-0.00968487
-0.00978034
-0.00976543
-0.00981578
-0.0099131
-0.00981574
-0.00991308
-0.00981579
-0.00991312
-0.00981581
-0.00991305
-0.00981681
-0.00983148
-0.00991228
-0.00989758
-0.00981656
-0.00983151
-0.00991213
-0.00981681
-0.00983157
-0.00991231
-0.0098976
-0.00981661
-0.00983156
-0.0099121
-0.00968407
-0.00968402
-0.00978196
-0.00978107
-0.00978118
-0.00968396
-0.0097813
-0.00991314
-0.00981576
-0.00981507
-0.00991306
-0.00991316
-0.00981589
-0.00981588
-0.00991325
-0.00981576
-0.00978027
-0.00968471
-0.00969945
-0.00976545
-0.0096847
-0.00978042
-0.0097654
-0.00978127
-0.00968391
-0.00968384
-0.0097812
-0.00978028
-0.00969945
-0.00968464
-0.00976548
-0.0096847
-0.00976542
-0.00978041
-0.00981559
-0.00991313
-0.00981568
-0.00991323
-0.00981659
-0.00983147
-0.00991238
-0.00989755
-0.00981647
-0.00983148
-0.0099123
-0.00981558
-0.00991318
-0.00981571
-0.00991323
-0.0098166
-0.00983153
-0.00989758
-0.0099124
-0.00983153
-0.00981647
-0.0099123
-0.00978139
-0.00968396
-0.00968396
-0.00978129
-0.00978038
-0.00969954
-0.00968477
-0.00976553
-0.00968483
-0.00976551
-0.00978055
-0.0097814
-0.00968402
-0.00968397
-0.00978134
-0.00981671
-0.00983153
-0.00991246
-0.00989757
-0.0098166
-0.00983152
-0.00991234
-0.00981575
-0.00991325
-0.00981584
-0.00991331
-0.00981674
-0.00983159
-0.00989763
-0.0099125
-0.0098316
-0.00981662
-0.00991236
-0.00981573
-0.00991329
-0.00981587
-0.00991334
-0.00968397
-0.00968408
-0.00978195
-0.00978111
-0.00978106
-0.00968399
-0.00978122
-0.00991317
-0.00981566
-0.00981505
-0.0099131
-0.00991303
-0.00981578
-0.00981591
-0.00991317
-0.00981577
-0.00978016
-0.00969951
-0.00968489
-0.00976556
-0.00968498
-0.00976548
-0.00978042
-0.00978118
-0.009684
-0.00968406
-0.00978116
-0.00978118
-0.00968407
-0.00968409
-0.00978124
-0.00981692
-0.00983151
-0.00989758
-0.00991229
-0.0098315
-0.0098167
-0.00991215
-0.00981693
-0.00983162
-0.0098976
-0.00991236
-0.00983157
-0.00981675
-0.00991216
-0.00981591
-0.00991312
-0.00981586
-0.0099131
-0.00981591
-0.00991319
-0.00981591
-0.0099131
-0.00968399
-0.00978138
-0.00968403
-0.00978131
-0.00981513
-0.00991319
-0.0099131
-0.00981593
-0.00981599
-0.00991329
-0.00981583
-0.00991323
-0.00981584
-0.00994764
-0.0100452
-0.00994759
-0.0100453
-0.00994779
-0.0099477
-0.010046
-0.0100451
-0.0100452
-0.0101775
-0.0100799
-0.0101776
-0.0100799
-0.0100792
-0.0101774
-0.0101775
-0.01008
-0.01008
-0.0100452
-0.00994769
-0.00994778
-0.0100452
-0.0100442
-0.0099486
-0.0099635
-0.0100296
-0.00994876
-0.0100444
-0.0100296
-0.0100442
-0.00994861
-0.00996347
-0.0100296
-0.00994875
-0.0100444
-0.0100295
-0.01008
-0.0101775
-0.0100799
-0.0101774
-0.01008
-0.0101775
-0.01008
-0.0101774
-0.010081
-0.0100957
-0.0101766
-0.0101619
-0.0100807
-0.0100957
-0.0101764
-0.010081
-0.0100957
-0.0101767
-0.0101619
-0.0100808
-0.0100957
-0.0101764
-0.00994785
-0.00994775
-0.010046
-0.010045
-0.0100453
-0.00994766
-0.0100453
-0.0101775
-0.0100799
-0.0100792
-0.0101774
-0.0101774
-0.0100801
-0.0100799
-0.0101775
-0.0100799
-0.0100444
-0.00994847
-0.00996346
-0.0100296
-0.00994858
-0.0100445
-0.0100295
-0.0100454
-0.00994761
-0.00994763
-0.0100452
-0.0100444
-0.00996346
-0.00994844
-0.0100295
-0.00994857
-0.0100295
-0.0100445
-0.0100798
-0.0101776
-0.0100799
-0.0101776
-0.0100808
-0.0100957
-0.0101768
-0.0101618
-0.0100807
-0.0100957
-0.0101766
-0.0100798
-0.0101775
-0.0100799
-0.0101776
-0.0100808
-0.0100957
-0.0101618
-0.0101767
-0.0100957
-0.0100807
-0.0101766
-0.0100454
-0.00994768
-0.00994769
-0.0100452
-0.0100444
-0.0099635
-0.00994854
-0.0100295
-0.00994863
-0.0100295
-0.0100445
-0.0100454
-0.00994773
-0.00994772
-0.0100453
-0.0100808
-0.0100957
-0.0101767
-0.0101618
-0.0100807
-0.0100956
-0.0101765
-0.0100798
-0.0101775
-0.0100799
-0.0101775
-0.0100808
-0.0100957
-0.0101618
-0.0101767
-0.0100957
-0.0100807
-0.0101766
-0.0100798
-0.0101775
-0.0100799
-0.0101775
-0.00994772
-0.00994783
-0.010046
-0.0100452
-0.0100451
-0.00994769
-0.0100452
-0.0101776
-0.0100798
-0.0100792
-0.0101774
-0.0101773
-0.0100799
-0.01008
-0.0101775
-0.0100799
-0.0100442
-0.00996349
-0.00994865
-0.0100296
-0.00994883
-0.0100295
-0.0100444
-0.0100452
-0.00994772
-0.00994787
-0.0100452
-0.0100452
-0.00994781
-0.00994787
-0.0100452
-0.010081
-0.0100956
-0.0101618
-0.0101766
-0.0100956
-0.0100808
-0.0101763
-0.010081
-0.0100957
-0.0101618
-0.0101766
-0.0100957
-0.0100808
-0.0101764
-0.01008
-0.0101774
-0.01008
-0.0101773
-0.01008
-0.0101774
-0.0100799
-0.0101774
-0.00994771
-0.0100453
-0.00994776
-0.0100453
-0.0100792
-0.0101774
-0.0101773
-0.01008
-0.01008
-0.0101775
-0.0100798
-0.0101774
-0.0100799
-0.0102121
-0.0103097
-0.0102121
-0.0103097
-0.0102122
-0.0102122
-0.0103104
-0.0103095
-0.0103096
-0.0104416
-0.0103442
-0.0104416
-0.0103442
-0.0103436
-0.0104415
-0.0104416
-0.0103444
-0.0103443
-0.0103096
-0.0102122
-0.0102122
-0.0103096
-0.0103086
-0.010213
-0.0102278
-0.0102939
-0.0102131
-0.0103088
-0.0102939
-0.0103086
-0.010213
-0.0102278
-0.0102939
-0.0102131
-0.0103088
-0.0102939
-0.0103443
-0.0104416
-0.0103443
-0.0104416
-0.0103443
-0.0104416
-0.0103443
-0.0104416
-0.0103453
-0.0103601
-0.0104408
-0.0104262
-0.0103451
-0.0103601
-0.0104406
-0.0103453
-0.0103601
-0.0104408
-0.0104262
-0.0103452
-0.0103601
-0.0104406
-0.0102122
-0.0102121
-0.0103103
-0.0103095
-0.0103096
-0.010212
-0.0103097
-0.0104416
-0.0103442
-0.0103436
-0.0104415
-0.0104416
-0.0103444
-0.0103443
-0.0104417
-0.0103442
-0.0103087
-0.0102129
-0.0102278
-0.0102939
-0.0102129
-0.0103089
-0.0102939
-0.0103097
-0.010212
-0.010212
-0.0103096
-0.0103088
-0.0102277
-0.0102128
-0.0102939
-0.0102129
-0.0102938
-0.0103089
-0.0103441
-0.0104416
-0.0103442
-0.0104417
-0.0103451
-0.0103601
-0.0104409
-0.0104262
-0.010345
-0.01036
-0.0104408
-0.0103441
-0.0104417
-0.0103442
-0.0104417
-0.0103451
-0.01036
-0.0104262
-0.0104409
-0.0103601
-0.010345
-0.0104408
-0.0103097
-0.010212
-0.010212
-0.0103096
-0.0103087
-0.0102277
-0.0102128
-0.0102938
-0.0102129
-0.0102938
-0.0103089
-0.0103097
-0.010212
-0.010212
-0.0103096
-0.0103451
-0.01036
-0.0104409
-0.0104261