/*--------------------------------*- C++ -*----------------------------------*\
| =========                 |                                                 |
| \\      /  F ield         | OpenFOAM: The Open Source CFD Toolbox           |
|  \\    /   O peration     | Version:  2206                                  |
|   \\  /    A nd           | Website:  www.openfoam.com                      |
|    \\/     M anipulation  |                                                 |
\*---------------------------------------------------------------------------*/
FoamFile
{
    version     2.0;
    format      ascii;
    arch        "LSB;label=32;scalar=64";
    class       surfaceScalarField;
    location    "26";
    object      phi;
}
// * * * * * * * * * * * * * * * * * * * * * * * * * * * * * * * * * * * * * //

dimensions      [0 3 -1 0 0 0 0];

oriented        oriented;

internalField   nonuniform List<scalar> 
197159
(
-3.59707e-11
-3.90981e-11
2.52126e-08
-2.50728e-08
-3.23444e-11
-3.23003e-11
-4.24553e-12
-3.47521e-11
-1.40566e-11
1.33509e-11
-2.41426e-11
-2.18892e-11
1.96491e-11
2.27333e-11
1.05339e-07
1.98847e-11
5.78638e-12
-1.25965e-11
-3.77803e-11
-2.8981e-11
2.88526e-11
5.1878e-11
-5.03426e-11
4.99941e-11
-5.04597e-11
1.03515e-07
3.16884e-11
4.81662e-11
-2.38634e-12
-1.023e-11
-2.57723e-11
2.94001e-11
3.29128e-11
-5.03456e-11
4.90228e-11
-3.30483e-11
1.04473e-07
-3.11596e-11
-2.50956e-08
-4.16593e-11
-1.74043e-11
2.52175e-08
-3.01023e-11
-1.01842e-10
-2.83679e-11
-3.94939e-11
-7.03592e-13
-2.16376e-11
3.17643e-11
1.38512e-12
1.04349e-07
-1.24252e-11
3.28126e-11
3.31775e-11
2.50733e-08
3.52131e-11
3.81077e-11
-2.50728e-08
-3.15385e-11
-3.26822e-11
-3.53697e-11
-3.91168e-11
2.52115e-08
-4.78219e-11
1.074e-07
7.05912e-11
-8.95058e-12
1.07662e-07
-1.13757e-11
2.1646e-12
8.53712e-14
9.21089e-09
-9.21669e-09
3.54834e-12
2.36611e-12
1.21068e-12
9.03688e-09
5.88467e-12
2.44153e-12
2.68014e-08
1.45872e-11
-2.68161e-08
-1.65693e-13
7.75849e-12
2.62964e-08
2.12116e-11
-2.63202e-08
-2.77551e-12
2.965e-12
-1.79563e-08
1.49384e-12
1.79492e-08
2.68329e-12
6.37572e-12
-2.35363e-08
6.10025e-12
2.35293e-08
1.02561e-11
3.73035e-12
1.75912e-08
4.16113e-12
4.59776e-11
-1.06074e-13
-4.31047e-12
-1.27716e-11
2.231e-08
2.33506e-11
-2.32134e-08
1.38558e-11
2.31942e-08
-2.27531e-13
7.25193e-12
8.65382e-11
-1.15551e-10
1.16741e-10
-8.63638e-11
1.05317e-07
-2.23825e-13
-2.37034e-08
-1.00345e-11
8.27718e-11
2.36769e-08
1.05514e-11
-8.94208e-13
3.27767e-12
1.7587e-08
4.08948e-12
4.6052e-11
-1.27933e-11
-4.31943e-12
2.23062e-08
3.68667e-12
7.06427e-11
-1.15e-10
1.16486e-10
-6.96433e-11
1.06445e-07
-7.79317e-12
2.39512e-11
-2.3198e-08
1.37791e-11
2.31787e-08
-2.37005e-08
8.28199e-11
-9.95641e-12
2.36734e-08
2.79028e-12
9.03735e-09
5.77953e-12
2.15231e-11
-2.63782e-08
-2.0467e-12
2.63537e-08
-5.79489e-13
2.43737e-12
1.36321e-11
-2.67609e-08
-2.51036e-13
2.67456e-08
-1.07681e-12
-9.21582e-09
9.21034e-09
5.98666e-12
-2.37481e-12
5.59713e-12
-2.35416e-08
6.40057e-12
2.35344e-08
-1.79645e-08
1.63335e-12
1.79548e-08
4.6244e-12
1.29113e-12
9.21658e-09
7.19997e-13
-7.69645e-12
8.13826e-13
9.21093e-09
-9.2167e-09
-4.00349e-13
5.35985e-12
-4.06444e-12
9.04705e-09
-8.38881e-13
-5.26016e-12
2.86757e-12
9.03742e-09
-9.04743e-09
7.35479e-13
6.40613e-12
-1.2754e-11
1.24507e-12
2.68174e-08
-3.23898e-12
-2.15421e-11
2.07266e-12
2.63193e-08
-7.48936e-12
2.5212e-08
-2.50727e-08
-3.17831e-11
-3.2075e-11
-3.62214e-11
-3.92328e-11
2.68046e-08
-3.34246e-13
-2.682e-08
1.39578e-11
2.52751e-12
2.62963e-08
-1.98463e-12
-2.63203e-08
2.14748e-11
7.37158e-12
-4.43421e-13
-9.21763e-09
-3.30891e-14
9.21222e-09
5.87995e-12
-3.7814e-13
9.2169e-09
8.18287e-13
-6.41775e-12
3.67925e-12
-9.04728e-09
8.15337e-13
9.03737e-09
5.40968e-12
-3.46871e-12
9.04725e-09
-1.06379e-12
-5.30757e-12
2.50732e-08
3.33673e-11
3.31939e-11
3.49083e-11
3.73153e-11
1.29135e-11
-2.68214e-08
-1.47851e-12
3.20198e-12
2.68064e-08
2.15016e-11
-2.63194e-08
-1.8151e-12
7.04743e-12
2.62964e-08
2.89696e-13
-1.35467e-11
2.68202e-08
-2.69695e-12
2.55459e-12
-2.09979e-11
2.63188e-08
-7.61231e-12
8.62834e-13
1.02674e-12
-7.71358e-12
-9.21086e-09
3.94839e-12
-1.71301e-11
2.23506e-08
1.17888e-11
-1.38998e-11
-2.45397e-08
-1.80642e-11
2.45204e-08
2.85136e-11
2.3471e-11
6.85636e-13
-1.22021e-11
-2.79679e-12
-1.71486e-08
5.69272e-12
9.72652e-13
1.71382e-08
3.5384e-12
-2.06606e-13
-4.36019e-12
-2.69256e-11
-2.24071e-11
-1.15667e-11
2.23351e-08
1.47747e-11
7.43681e-12
-2.21401e-11
2.1255e-08
1.3124e-11
-1.30834e-11
-2.35639e-08
-2.27636e-11
2.35398e-08
3.56368e-11
3.23921e-11
1.74983e-12
-2.09433e-11
-6.96265e-12
-1.67321e-08
7.26467e-12
-1.61978e-13
1.6718e-08
4.282e-12
1.54999e-13
-3.22366e-12
-3.54365e-11
-3.19788e-11
-1.37026e-11
2.12403e-08
1.28721e-11
1.59382e-12
3.07149e-12
1.95916e-08
-7.63535e-09
3.25346e-12
7.6281e-09
4.96975e-12
-7.59726e-09
2.30882e-12
7.58911e-09
5.67741e-12
-5.62187e-12
-4.80032e-12
1.95719e-08
-8.99028e-12
-3.1855e-11
-5.94362e-12
-1.79085e-08
-2.60736e-08
1.37359e-11
7.23593e-12
2.60544e-08
-3.20481e-13
-1.39299e-10
3.82486e-11
-2.5946e-08
-3.5496e-11
7.71581e-09
4.20976e-12
-7.70411e-09
-2.15129e-12
5.95186e-13
6.54764e-12
2.35414e-11
2.5476e-08
1.49269e-12
7.49841e-09
6.76378e-12
-9.64786e-12
3.75537e-11
2.17127e-08
-1.07197e-12
8.04679e-14
1.60776e-08
3.50856e-12
1.32832e-08
3.33071e-12
2.8177e-13
6.40124e-12
2.38642e-11
2.54639e-08
1.24079e-12
7.49481e-09
6.78319e-12
-9.92553e-13
1.60739e-08
3.47705e-12
-9.59621e-12
3.74258e-11
2.17035e-08
1.32769e-08
3.36833e-12
-2.34023e-11
7.5094e-12
2.12536e-08
1.31577e-11
-1.28584e-11
-2.39284e-08
-2.18848e-11
3.77866e-11
3.17501e-11
2.39023e-08
-2.10324e-11
2.56122e-12
-7.41884e-12
-1.67176e-08
7.50788e-12
6.35693e-14
1.67041e-08
3.87344e-12
-3.62064e-11
-3.1718e-11
3.21603e-13
-3.40552e-12
-1.29343e-11
1.37813e-11
2.12384e-08
4.50066e-12
-1.51916e-11
2.23585e-08
1.14535e-11
-1.60306e-11
-2.41632e-08
-1.83622e-11
2.5778e-11
2.56328e-11
2.41438e-08
5.95683e-13
-1.38202e-11
4.71197e-13
-8.92381e-13
-1.71685e-08
4.78745e-12
7.20787e-13
1.71589e-08
3.89924e-12
-5.69899e-13
-3.75788e-12
-3.7721e-11
-6.15227e-12
-1.16259e-11
1.37362e-11
2.23429e-08
2.81072e-12
2.19661e-12
1.9596e-08
-7.59834e-09
2.66219e-12
7.59036e-09
5.37941e-12
-7.63697e-09
2.30527e-12
7.62993e-09
5.44545e-12
-4.88158e-12
-5.1318e-12
1.95763e-08
8.35544e-14
-5.2947e-12
-2.01071e-12
-1.20548e-12
-3.70554e-12
-2.60773e-08
5.32062e-12
6.1058e-12
2.60645e-08
3.04296e-12
-5.92994e-12
-3.95599e-12
-2.33736e-12
7.71541e-09
7.58989e-12
-7.71793e-09
2.76904e-13
9.211e-09
2.0869e-12
-1.24385e-13
3.62094e-12
2.95287e-13
5.7114e-13
-6.57892e-12
9.0375e-09
3.2201e-12
1.01558e-12
5.31675e-12
-3.97228e-12
-1.16261e-12
-4.79938e-12
2.48008e-12
3.25065e-12
1.95918e-08
-1.95718e-08
-1.20045e-11
-1.37215e-11
-7.63602e-09
2.26372e-12
-7.44347e-13
7.62884e-09
5.65454e-12
-7.59795e-09
2.6277e-12
-1.8634e-13
7.58975e-09
5.76311e-12
-7.62865e-09
3.76825e-13
-5.25481e-12
-7.58966e-09
-2.66772e-13
-4.76631e-12
1.19428e-11
1.32676e-11
1.95715e-08
-2.23508e-08
-4.70793e-12
1.74745e-11
-1.13234e-11
2.23352e-08
1.41231e-11
1.78812e-11
2.45399e-08
-2.75366e-11
-2.26364e-11
-4.73606e-12
1.71489e-08
-1.65292e-13
-4.50643e-12
-7.7794e-14
1.35441e-11
2.68043e-08
1.79192e-12
1.22142e-11
-1.47732e-11
4.43029e-13
1.71404e-08
3.23599e-12
2.452e-08
2.77488e-11
2.31902e-11
-2.12552e-08
-6.55282e-12
2.20173e-11
-1.33303e-11
2.12406e-08
1.24843e-11
2.26975e-11
2.35639e-08
-3.56612e-11
-3.26365e-11
-7.99967e-12
1.67317e-08
7.08858e-14
-3.6875e-12
-2.58999e-12
2.05521e-11
2.62977e-08
6.93779e-12
1.33858e-11
-1.35404e-11
-7.09132e-13
1.67195e-08
3.66377e-12
2.3539e-08
3.51901e-11
3.22226e-11
-1.95924e-08
-2.27463e-12
-1.76754e-12
-1.76482e-12
7.63566e-09
-5.98918e-12
-3.23693e-12
7.59767e-09
-5.25493e-12
5.15773e-12
5.4975e-12
4.86231e-12
2.23504e-08
-1.74976e-11
-1.45937e-11
-1.71508e-08
5.14091e-12
1.71405e-08
4.02799e-12
1.05807e-12
-1.32256e-11
-3.2832e-12
-1.82981e-11
-2.45396e-08
2.45207e-08
2.7667e-11
2.34336e-11
-4.0924e-12
2.23351e-08
1.40519e-11
-2.76568e-11
-2.26644e-11
7.73562e-12
2.12555e-08
-2.28726e-11
-1.35271e-11
-1.67327e-08
7.51054e-12
1.67188e-08
4.28326e-12
2.25503e-12
-2.12184e-11
-7.65025e-12
-2.23294e-11
-2.35634e-08
2.35396e-08
3.55247e-11
3.20597e-11
-3.4717e-12
2.12408e-08
1.31278e-11
-3.57908e-11
-3.26783e-11
-9.21165e-09
-1.13663e-12
1.07526e-12
-5.91064e-12
3.44033e-13
4.36647e-14
4.85687e-12
-9.0375e-09
-3.14568e-12
-9.86486e-13
-5.63237e-12
3.76377e-12
1.00052e-12
4.99221e-12
-1.95921e-08
-1.88984e-12
-2.97478e-12
1.21054e-11
1.29908e-11
1.95719e-08
-2.47736e-12
7.63609e-09
6.97748e-13
-5.4674e-12
-2.38213e-12
7.59786e-09
-4.53511e-13
-5.26625e-12
-1.16569e-11
-1.38623e-11
8.78493e-14
7.62883e-09
5.24742e-12
2.22045e-13
7.58952e-09
5.10681e-12
5.56332e-12
-1.71082e-11
2.23509e-08
-2.23355e-08
1.1406e-11
-1.52741e-11
-2.45396e-08
-1.85596e-11
2.69977e-11
2.45201e-08
2.39923e-11
-3.44278e-13
-1.40204e-11
-2.68059e-08
-2.32606e-12
-1.71514e-08
4.43925e-12
-5.83945e-14
1.71416e-08
3.93135e-12
-1.71413e-08
-1.00238e-12
-3.90073e-12
-2.45205e-08
-2.82068e-11
-2.21531e-11
-1.23732e-11
1.36358e-11
2.23355e-08
7.3164e-12
-2.31513e-11
2.12557e-08
-2.1241e-08
1.40228e-11
-1.28879e-11
-2.35635e-08
-2.197e-11
3.58566e-11
2.35391e-08
3.19961e-11
2.6171e-12
-2.08987e-11
-2.62964e-08
-7.85168e-12
-1.67323e-08
7.70594e-12
3.47297e-14
1.6719e-08
3.70759e-12
-1.6719e-08
4.54652e-13
-3.88642e-12
-2.35394e-08
-3.52693e-11
-3.29052e-11
-1.29822e-11
1.36126e-11
2.12408e-08
-2.23507e-08
-4.49372e-12
1.81579e-11
1.35457e-11
-5.19369e-12
1.71507e-08
-4.01398e-12
1.73571e-11
2.45401e-08
-2.78607e-11
-2.24197e-11
-1.26055e-12
1.3159e-11
2.71151e-12
-1.50606e-11
3.64061e-12
2.72796e-11
2.36116e-11
-2.12556e-08
-7.42698e-12
2.18498e-11
1.31151e-11
-7.38846e-12
1.6732e-08
-3.76101e-12
2.29428e-11
2.3564e-08
-3.54733e-11
-3.28527e-11
-2.19781e-12
2.14085e-11
7.02689e-12
-1.31486e-11
3.57626e-12
3.58233e-11
3.194e-11
3.01481e-12
2.39039e-12
1.95919e-08
-7.63613e-09
1.66898e-12
7.62885e-09
5.56607e-12
-7.59766e-09
3.09634e-12
7.58933e-09
5.28023e-12
-5.28304e-12
-5.29578e-12
1.95713e-08
-1.27389e-11
-1.93103e-11
2.32131e-08
3.22187e-11
3.3005e-11
-2.47994e-08
-1.31466e-11
2.47948e-08
-2.36374e-08
-1.94541e-11
2.36312e-08
2.32082e-08
-3.0182e-11
-2.19534e-12
2.32039e-08
2.51523e-11
7.36988e-11
-2.46668e-08
-1.53007e-11
2.46525e-08
-2.3751e-08
-1.76424e-11
2.37487e-08
2.31985e-08
-2.3213e-08
1.24914e-11
1.84454e-11
2.32087e-08
1.3365e-11
2.47997e-08
-1.29671e-11
1.98069e-11
2.36376e-08
-2.86788e-11
-3.18993e-11
-3.20093e-11
2.52112e-08
-3.55203e-11
-3.85087e-11
2.47938e-08
1.41934e-11
2.36304e-08
2.88543e-11
-1.28871e-11
-2.03646e-11
2.32144e-08
-2.32093e-08
3.35019e-11
3.28634e-11
-2.52118e-08
3.53072e-11
3.7276e-11
-2.47997e-08
-1.35328e-11
1.44998e-11
2.47942e-08
-2.36374e-08
-1.86746e-11
2.85477e-11
2.36307e-08
-2.47945e-08
-1.28694e-11
-2.3631e-08
-2.92754e-11
2.32093e-08
9.47606e-13
1.09615e-07
5.34547e-11
1.12997e-07
-8.27315e-13
2.4691e-11
8.71968e-11
2.48296e-08
-3.13925e-11
-2.45585e-08
2.50558e-11
2.45415e-08
-3.55442e-12
-1.83268e-11
-2.42274e-08
6.20302e-12
2.42266e-08
7.93589e-12
-5.07601e-11
2.48753e-08
8.31399e-12
3.58333e-11
4.21237e-11
2.45592e-08
2.43486e-11
-2.42535e-08
3.53092e-11
2.42237e-08
-2.2762e-11
-1.38211e-11
-2.38309e-08
4.06473e-11
1.37193e-11
2.38139e-08
-1.3418e-11
-2.4395e-11
2.46092e-08
6.43014e-11
-1.62583e-11
2.41356e-08
9.80621e-12
-8.28794e-11
-1.4653e-13
-2.33587e-08
6.40998e-11
2.33359e-08
-2.47427e-08
-1.69172e-11
-6.72155e-12
2.47336e-08
6.3458e-12
2.4072e-08
4.13275e-11
3.89638e-11
2.45352e-08
-2.70217e-11
-2.42591e-08
3.83751e-11
2.42261e-08
-1.37966e-11
-2.31039e-11
-2.38202e-08
4.05218e-11
1.6396e-11
2.3801e-08
-1.63057e-11
2.68816e-11
2.45542e-08
-1.92238e-11
6.38596e-11
2.41362e-08
-8.27958e-11
9.60576e-12
-2.47407e-08
-1.97601e-11
2.47216e-08
-2.33508e-08
6.30393e-11
2.33316e-08
2.41368e-08
2.00141e-11
6.5244e-12
2.48408e-08
4.89938e-11
-2.4538e-08
2.1945e-11
2.45256e-08
-5.00236e-12
-6.38275e-12
-2.42238e-08
5.81094e-12
2.42252e-08
5.30542e-12
-4.6539e-12
2.49193e-08
-4.93124e-11
2.32139e-08
-1.32755e-11
-2.00479e-11
3.31711e-11
3.33752e-11
3.46577e-11
3.72844e-11
-1.30751e-11
-2.47996e-08
2.47948e-08
1.3789e-11
-1.88415e-11
-2.36374e-08
2.36313e-08
2.83813e-11
2.32091e-08
-1.35668e-11
-2.94062e-11
-2.32142e-08
1.3039e-11
1.84951e-11
-3.16792e-11
-3.24557e-11
-3.55611e-11
-3.89099e-11
1.3169e-11
2.48003e-08
-1.31946e-11
2.01682e-11
2.36379e-08
-2.91716e-11
1.43059e-11
2.87108e-11
-2.26939e-12
7.20796e-13
3.8561e-12
-6.90937e-13
1.07398e-07
-3.82827e-11
-5.15537e-13
6.64781e-13
1.03503e-07
2.85398e-11
3.86903e-11
-2.5331e-11
-5.07678e-11
5.02258e-11
-5.32106e-11
5.17704e-11
-1.03504e-07
-4.4048e-11
3.07981e-13
3.06287e-13
1.04351e-07
1.56682e-11
4.29123e-11
-1.81258e-11
2.16621e-12
2.12832e-11
-2.21639e-11
-8.05251e-13
2.85927e-11
4.32742e-11
4.01585e-11
2.6114e-11
2.50834e-08
-2.52215e-08
-9.87778e-13
-7.59975e-13
-1.07398e-07
1.3394e-13
-1.50414e-13
1.074e-07
-1.035e-07
-3.77869e-11
-4.57269e-14
-1.58241e-12
1.035e-07
2.87715e-11
3.95867e-11
-2.79848e-11
-5.11319e-11
4.95305e-11
5.10369e-11
-5.09785e-11
-1.04349e-07
-4.23751e-11
2.83229e-13
-1.93418e-14
1.0435e-07
1.70834e-11
4.29648e-11
-1.82041e-11
1.74303e-12
2.12465e-11
-1.17163e-12
-2.23939e-11
-2.52207e-08
2.8662e-11
4.31211e-11
4.0355e-11
2.61264e-11
2.50825e-08
3.41853e-13
-4.07497e-13
-1.07396e-07
3.65725e-13
-8.6819e-13
1.07397e-07
-1.03499e-07
-3.82988e-11
-3.68518e-13
-1.10046e-12
1.03499e-07
2.80046e-11
3.92185e-11
-2.49e-11
-5.08765e-11
4.97044e-11
5.11634e-11
-5.26435e-11
-1.04346e-07
-4.25431e-11
5.00831e-13
4.10552e-13
1.04347e-07
1.69817e-11
4.29531e-11
-1.79838e-11
1.73706e-12
2.11094e-11
-1.28062e-12
-2.23322e-11
-2.52212e-08
2.88988e-11
4.31883e-11
4.04321e-11
2.58849e-11
2.50828e-08
-2.27965e-12
2.47834e-13
-1.07395e-07
-1.92925e-13
8.03742e-13
1.07397e-07
-1.03501e-07
-3.88819e-11
-1.86226e-12
6.40962e-13
1.03503e-07
2.74751e-11
3.87675e-11
-2.8591e-11
-5.05215e-11
4.99008e-11
5.14493e-11
-5.0414e-11
-1.04345e-07
-4.26882e-11
2.76298e-13
7.28245e-13
1.04346e-07
1.68237e-11
4.28779e-11
-1.82591e-11
1.66781e-12
2.11234e-11
-1.24376e-12
-2.23438e-11
-2.52212e-08
2.88534e-11
4.33259e-11
4.02522e-11
2.58771e-11
2.50829e-08
-4.19075e-12
5.25356e-13
-1.07398e-07
-7.70571e-13
2.63225e-12
1.074e-07
-1.03507e-07
-3.89156e-11
-2.08611e-12
1.44703e-12
1.03508e-07
2.74298e-11
3.88184e-11
-2.51902e-11
-5.08359e-11
4.95526e-11
5.13148e-11
-5.28365e-11
-1.04347e-07
-4.28435e-11
-3.27775e-13
6.2483e-13
1.0435e-07
1.65893e-11
4.29363e-11
-1.81807e-11
1.53557e-12
2.07151e-11
-1.44372e-12
-2.22992e-11
-2.5222e-08
2.88077e-11
4.32768e-11
4.03053e-11
2.58371e-11
2.50838e-08
-3.25249e-12
6.55451e-13
-1.074e-07
-1.16169e-12
2.69094e-12
1.07401e-07
-1.0351e-07
-3.86455e-11
-2.17483e-12
5.08183e-13
1.03511e-07
2.77026e-11
3.92083e-11
-2.81226e-11
-5.0608e-11
4.98763e-11
5.15687e-11
-5.02863e-11
-1.04352e-07
-4.28473e-11
-5.4292e-13
3.06665e-13
1.04353e-07
1.65805e-11
4.30593e-11
-1.79255e-11
1.86862e-12
2.08913e-11
-1.23692e-12
-2.17024e-11
-2.52223e-08
2.87436e-11
4.31109e-11
4.06662e-11
2.60504e-11
2.50837e-08
-2.10944e-12
3.0102e-13
-1.07399e-07
-1.01923e-12
1.62476e-12
1.074e-07
-1.03508e-07
-3.83507e-11
-1.04052e-12
6.59698e-14
1.03508e-07
2.78359e-11
3.94866e-11
-2.45701e-11
-5.05808e-11
4.9293e-11
5.10793e-11
-5.26714e-11
-1.04354e-07
-4.28797e-11
-2.67111e-13
1.39439e-13
1.04356e-07
1.64494e-11
4.32099e-11
-1.77067e-11
1.83237e-12
2.05961e-11
-1.48434e-12
-2.17546e-11
-2.52222e-08
2.88379e-11
4.33971e-11
4.04092e-11
2.60512e-11
2.50835e-08
-9.42748e-13
8.87814e-13
-1.07399e-07
-1.03024e-12
5.6437e-13
1.07399e-07
-1.03506e-07
-3.85028e-11
-8.27592e-13
-6.49234e-13
1.03507e-07
2.78017e-11
3.97643e-11
-2.76316e-11
-5.05071e-11
4.92464e-11
5.09995e-11
-5.01796e-11
-1.04356e-07
-4.27448e-11
-3.9135e-13
-4.10966e-13
1.04357e-07
1.65739e-11
4.35653e-11
-1.72467e-11
2.21038e-12
2.0744e-11
-1.34131e-12
-2.15431e-11
-2.52224e-08
2.90414e-11
4.35422e-11
4.03188e-11
2.60295e-11
2.50834e-08
-1.70632e-12
6.32677e-14
-1.07398e-07
-6.56177e-13
8.156e-13
1.074e-07
-1.03507e-07
-3.88009e-11
-5.5337e-13
-4.00484e-14
1.03508e-07
2.72883e-11
3.95406e-11
-2.44909e-11
-5.06237e-11
4.88366e-11
5.06389e-11
-5.25249e-11
-1.04356e-07
-4.2975e-11
3.8039e-13
4.49657e-14
1.04357e-07
1.62665e-11
4.3466e-11
-1.7291e-11
2.04022e-12
2.03683e-11
-1.76569e-12
-2.1831e-11
-2.52224e-08
2.91769e-11
4.36342e-11
4.03158e-11
2.58755e-11
2.50834e-08
-2.02943e-12
2.84296e-13
-1.07399e-07
-4.66428e-13
1.01246e-12
1.074e-07
-1.0351e-07
-3.88187e-11
-7.80541e-13
-1.94546e-13
1.03511e-07
2.73794e-11
3.97495e-11
-2.77904e-11
-5.03323e-11
4.91052e-11
5.08391e-11
-5.02884e-11
-1.04357e-07
-4.30766e-11
3.52815e-13
4.8446e-13
1.04358e-07
1.62138e-11
4.33697e-11
-1.75175e-11
2.22166e-12
2.0424e-11
-1.79343e-12
-2.15925e-11
-2.5223e-08
2.93181e-11
4.37039e-11
4.03908e-11
2.58503e-11
2.50838e-08
-1.86929e-12
1.63825e-13
-1.07399e-07
-4.76502e-13
7.53399e-13
1.07401e-07
-1.03509e-07
-3.8793e-11
-1.0363e-12
-2.51918e-13
1.03509e-07
2.75007e-11
3.97104e-11
-2.43716e-11
-5.0123e-11
4.92075e-11
5.07609e-11
-5.20492e-11
-1.04357e-07
-4.31741e-11
2.96725e-14
5.23478e-13
1.04358e-07
1.62581e-11
4.34662e-11
-1.74614e-11
2.56785e-12
2.03078e-11
-1.86881e-12
-2.13913e-11
-2.52229e-08
2.93225e-11
4.36531e-11
4.04729e-11
2.59036e-11
2.50835e-08
-1.36781e-12
-5.4326e-14
-1.074e-07
-3.62379e-13
3.24744e-13
1.07401e-07
-1.03507e-07
-3.87625e-11
-1.1263e-12
-3.70989e-13
1.03507e-07
2.777e-11
3.97065e-11
-2.78244e-11
-5.02043e-11
4.92445e-11
5.08753e-11
-4.98985e-11
-1.04356e-07
-4.31698e-11
4.07075e-13
6.33483e-13
1.04357e-07
1.62105e-11
4.33748e-11
-1.76271e-11
2.42346e-12
2.02336e-11
-1.94788e-12
-2.1508e-11
-2.52227e-08
2.92913e-11
4.36652e-11
4.04128e-11
2.59571e-11
2.50834e-08
-1.25986e-12
-1.0761e-13
-1.07401e-07
-3.78399e-13
4.60803e-13
1.07402e-07
-1.03506e-07
-3.87997e-11
-5.79587e-13
-3.944e-13
1.03506e-07
2.754e-11
3.99008e-11
-2.44603e-11
-5.01118e-11
4.87617e-11
5.06588e-11
-5.21351e-11
-1.04355e-07
-4.31625e-11
2.83374e-13
2.33704e-13
1.04356e-07
1.60535e-11
4.36061e-11
-1.7158e-11
2.39205e-12
2.0168e-11
-2.05096e-12
-2.14454e-11
-2.5223e-08
2.93366e-11
4.3748e-11
4.04143e-11
2.59107e-11
2.50836e-08
-8.66467e-13
1.87819e-13
-1.07401e-07
-4.73573e-13
-7.67126e-14
1.07402e-07
-1.03506e-07
-3.90338e-11
-7.63345e-13
-7.4992e-13
1.03508e-07
2.74137e-11
4.0033e-11
-2.75897e-11
-5.00752e-11
4.87093e-11
5.03707e-11
-4.99338e-11
-1.04356e-07
-4.33628e-11
3.90433e-13
3.84499e-13
1.04358e-07
1.58325e-11
4.35865e-11
-1.70427e-11
2.59714e-12
1.98493e-11
-2.41539e-12
-2.13335e-11
-2.52234e-08
2.95226e-11
4.38366e-11
4.04812e-11
2.57565e-11
2.50838e-08
-1.39051e-12
-2.86931e-14
-1.07402e-07
1.17686e-13
6.64219e-13
1.07402e-07
-1.03507e-07
-3.91403e-11
-1.28422e-12
-2.9977e-13
1.03507e-07
2.73022e-11
4.00668e-11
-2.42179e-11
-4.96178e-11
4.87568e-11
5.03465e-11
-5.16019e-11
-1.04359e-07
-4.35033e-11
6.3719e-14
8.20324e-13
1.0436e-07
1.57054e-11
4.37398e-11
-1.71468e-11
2.87796e-12
1.98994e-11
-2.42855e-12
-2.11541e-11
-2.52238e-08
2.96049e-11
4.40671e-11
4.03199e-11
2.59365e-11
2.50838e-08
-1.3982e-12
1.58517e-13
-1.074e-07
-1.1004e-13
7.11894e-13
1.07401e-07
-1.03507e-07
-3.91865e-11
-1.21838e-12
-5.91536e-13
1.03508e-07
2.72807e-11
4.03451e-11
-2.72008e-11
-4.9678e-11
4.84699e-11
5.02672e-11
-4.95165e-11
-1.04359e-07
-4.35482e-11
-2.03089e-13
6.5685e-13
1.0436e-07
1.5634e-11
4.38847e-11
-1.68473e-11
3.14197e-12
1.96913e-11
-2.52534e-12
-2.08099e-11
-2.52236e-08
2.97983e-11
4.4153e-11
4.02756e-11
2.58715e-11
2.50835e-08
-3.22491e-13
1.12347e-12
-1.07399e-07
-2.22481e-13
6.47373e-13
1.07398e-07
-1.03507e-07
-3.92305e-11
-1.41451e-12
-3.27233e-13
1.03506e-07
2.71257e-11
4.02001e-11
-2.38213e-11
-4.9435e-11
4.83868e-11
5.02262e-11
-5.14022e-11
-1.0436e-07
-4.35152e-11
-8.88109e-13
9.04167e-13
1.04358e-07
1.57619e-11
4.42441e-11
-1.3087e-11
3.61032e-12
1.98087e-11
-2.49352e-12
-2.28573e-11
-2.52238e-08
2.95988e-11
4.40192e-11
4.05811e-11
2.61317e-11
2.50835e-08
2.9569e-12
1.05338e-07
2.34347e-11
1.93264e-11
-2.44517e-11
-2.17921e-11
-3.52402e-11
2.8029e-12
9.77442e-13
1.05365e-07
1.29841e-11
3.56594e-11
-1.82082e-11
2.27881e-11
1.91606e-11
-1.97389e-11
-2.45089e-11
-1.05362e-07
1.05339e-07
1.65751e-13
-1.05338e-07
1.39073e-12
-2.33826e-11
-2.10743e-11
2.36323e-11
2.02418e-11
3.56112e-11
1.05361e-07
1.13529e-12
-1.05363e-07
1.88036e-12
-3.554e-11
-1.46133e-11
1.64107e-11
-2.35028e-11
-2.11917e-11
1.76506e-11
2.37859e-11
3.18755e-11
3.36878e-11
2.50744e-08
-2.52134e-08
-3.97246e-11
2.52129e-08
-2.50737e-08
-3.09192e-11
-3.2983e-11
-3.93084e-13
1.03515e-07
-5.03893e-11
5.00281e-11
5.22515e-11
-5.02626e-11
-2.81515e-11
2.82818e-12
-1.02645e-12
1.04471e-07
2.58515e-11
2.96958e-11
-2.60767e-11
-3.24665e-11
4.86105e-11
-5.01885e-11
3.32029e-11
1.03514e-07
-7.35573e-13
-1.03514e-07
-1.17014e-12
5.15611e-11
-5.0965e-11
-5.13254e-11
4.96169e-11
2.97857e-11
1.04468e-07
4.83639e-13
-1.04469e-07
5.19174e-13
-2.85237e-11
-2.60811e-11
2.57538e-11
3.29494e-11
-5.02066e-11
4.90629e-11
-3.30866e-11
3.26186e-12
-8.00255e-13
1.04482e-07
2.50791e-11
2.98143e-11
-2.58065e-11
-3.32644e-11
4.88048e-11
-5.08013e-11
3.28002e-11
-1.04482e-07
1.33958e-12
-1.03501e-07
-1.22729e-12
-3.78152e-11
-2.78767e-11
2.5369e-11
5.15012e-11
-5.08069e-11
-5.13113e-11
5.19612e-11
3.00934e-11
1.04478e-07
1.31802e-12
-1.04478e-07
-2.21337e-16
-2.87422e-11
-2.55265e-11
2.50795e-11
3.28866e-11
-5.00956e-11
4.87883e-11
-3.3315e-11
4.01292e-11
2.74733e-11
2.50778e-08
-4.30877e-11
2.5214e-08
-2.50766e-08
-3.92035e-11
-2.53273e-11
5.73329e-13
1.35257e-12
1.04394e-07
1.66207e-11
4.25901e-11
-1.85694e-11
1.56888e-12
2.03387e-11
-2.25518e-11
-1.58795e-12
-1.04391e-07
1.28507e-12
-1.04351e-07
-9.34232e-14
-4.22055e-11
-1.79999e-11
1.74687e-11
-6.61322e-13
-2.21807e-11
1.6123e-12
2.15049e-11
4.34785e-11
1.04388e-07
1.08118e-12
-1.04388e-07
1.97614e-13
-4.32412e-11
-1.80613e-11
1.68469e-11
-1.08172e-12
-2.19154e-11
2.09111e-11
1.62261e-12
-2.50825e-08
-4.00278e-11
-2.47024e-11
3.53884e-11
3.70589e-11
3.35789e-11
3.27214e-11
2.50728e-08
-3.56622e-11
-3.91795e-11
2.52116e-08
-2.5073e-08
-3.17129e-11
-3.20986e-11
1.51257e-12
1.05338e-07
1.26738e-11
3.53685e-11
-1.43966e-11
2.41302e-11
2.01083e-11
-2.35007e-11
-2.10287e-11
-3.56557e-11
1.94584e-13
1.98127e-12
1.05361e-07
1.24686e-11
3.56227e-11
-1.45957e-11
2.42625e-11
1.99319e-11
-2.34566e-11
-2.07753e-11
1.05336e-07
-2.03323e-12
-1.05336e-07
1.95637e-12
-3.52673e-11
-1.41051e-11
1.30327e-11
-2.30841e-11
-2.09637e-11
2.03836e-11
2.42705e-11
3.57885e-11
1.05361e-07
-1.16246e-12
-1.0536e-07
1.87839e-12
-3.5769e-11
-1.41798e-11
1.25211e-11
-2.31605e-11
-2.07586e-11
1.99064e-11
2.42318e-11
3.27367e-11
3.32967e-11
2.50734e-08
-3.96752e-11
2.52125e-08
-2.50731e-08
-3.12437e-11
-3.26785e-11
-1.93626e-12
1.03513e-07
2.93363e-11
3.93086e-11
-2.83036e-11
-5.09616e-11
4.92749e-11
5.11418e-11
-5.06245e-11
-2.84473e-11
3.77304e-13
5.56896e-13
1.04467e-07
2.57542e-11
2.99294e-11
-2.60783e-11
-3.26574e-11
4.8662e-11
3.26674e-11
-5.00026e-11
1.03511e-07
-9.70378e-13
-1.03511e-07
-1.82898e-12
-3.71911e-11
-2.87912e-11
2.89793e-11
5.1647e-11
-5.00835e-11
4.97511e-11
-5.08505e-11
2.97127e-11
1.04466e-07
9.30937e-14
-1.04466e-07
5.96731e-13
-2.86995e-11
-2.62901e-11
2.55947e-11
3.27142e-11
-4.97832e-11
4.85251e-11
-3.28292e-11
3.98188e-13
1.69795e-13
1.04478e-07
2.5029e-11
3.01966e-11
-2.54541e-11
-3.29946e-11
4.8398e-11
-4.99553e-11
3.26052e-11
1.78771e-13
-1.035e-07
-1.59488e-12
-3.7895e-11
-2.81347e-11
2.85992e-11
5.13904e-11
-5.02683e-11
-5.08606e-11
4.96263e-11
3.01295e-11
1.04477e-07
2.0052e-13
-1.04477e-07
4.30017e-13
-2.89937e-11
-2.55331e-11
2.48079e-11
3.28277e-11
-5.01445e-11
4.85043e-11
-3.29796e-11
3.99925e-11
2.67119e-11
2.50764e-08
-4.31464e-11
2.52144e-08
-2.50768e-08
-3.92226e-11
-2.55095e-11
7.89759e-13
2.70163e-13
1.04388e-07
1.70165e-11
4.37654e-11
-1.7797e-11
2.09582e-12
2.05878e-11
-2.1841e-11
-1.44633e-12
1.08895e-12
-1.04348e-07
2.99905e-13
-4.23095e-11
-1.78822e-11
1.72244e-11
-7.76163e-13
-2.19767e-11
1.73575e-12
2.13097e-11
4.38098e-11
1.04386e-07
6.20197e-13
-1.04385e-07
-1.55806e-13
-4.32674e-11
-1.75956e-11
1.67572e-11
-1.31486e-12
-2.17752e-11
2.0731e-11
1.92469e-12
-2.50827e-08
-3.98038e-11
-2.47356e-11
3.52249e-11
3.74705e-11
3.29424e-11
3.3182e-11
2.50728e-08
-3.60517e-11
-3.84742e-11
2.52118e-08
-2.50731e-08
-3.23962e-11
-3.18366e-11
1.69385e-12
1.05336e-07
1.28969e-11
3.5627e-11
-1.39192e-11
2.42456e-11
1.96074e-11
-2.35697e-11
-2.08979e-11
-3.56012e-11
-2.12147e-13
1.57403e-12
1.05363e-07
1.27276e-11
3.60358e-11
-1.7603e-11
2.40864e-11
1.96063e-11
-2.36574e-11
-1.87521e-11
1.05336e-07
3.21236e-13
-1.05335e-07
5.14327e-13
-3.49825e-11
-1.36663e-11
1.32558e-11
-2.40693e-11
-2.11658e-11
1.9374e-11
2.34796e-11
3.65996e-11
1.05361e-07
1.58409e-12
-1.05362e-07
3.52702e-13
-3.50714e-11
-1.35951e-11
1.69104e-11
-2.42772e-11
-2.15363e-11
1.67583e-11
2.33103e-11
3.20182e-11
3.34728e-11
2.50731e-08
-3.91219e-11
2.52131e-08
-2.50736e-08
-3.18139e-11
-3.19391e-11
-1.42167e-12
1.03511e-07
2.85919e-11
3.88662e-11
-2.89004e-11
-5.06257e-11
4.95242e-11
5.13519e-11
-5.00347e-11
-2.87633e-11
5.20724e-13
4.57042e-13
1.04466e-07
2.53632e-11
2.98001e-11
-2.62769e-11
-3.24187e-11
4.84952e-11
3.24306e-11
-4.96608e-11
1.0351e-07
-1.27891e-12
-1.0351e-07
3.20797e-13
-3.80934e-11
-2.92577e-11
2.82492e-11
5.17662e-11
-5.00434e-11
4.98583e-11
-5.05785e-11
2.99522e-11
1.04466e-07
1.83781e-13
-1.04465e-07
-4.34735e-13
-2.87485e-11
-2.59333e-11
2.56683e-11
3.25091e-11
-4.98195e-11
4.85707e-11
-3.27979e-11
3.09927e-13
4.77984e-13
1.04478e-07
2.48982e-11
3.00186e-11
-2.55651e-11
-3.26664e-11
4.8403e-11
-4.99762e-11
3.24516e-11
-1.10545e-12
-1.035e-07
1.68475e-14
-3.87555e-11
-2.82435e-11
2.43384e-11
5.18495e-11
-4.993e-11
-5.05797e-11
5.23358e-11
3.0254e-11
1.04478e-07
2.16847e-13
-1.04477e-07
-1.65378e-13
-2.90784e-11
-2.53346e-11
2.48295e-11
3.27513e-11
-4.99896e-11
4.85687e-11
-3.29103e-11
3.98822e-11
2.64671e-11
2.50768e-08
-4.31645e-11
2.5215e-08
-2.50774e-08
-3.91947e-11
-2.52834e-11
8.66987e-13
-2.24356e-13
1.04386e-07
1.68367e-11
4.37017e-11
-1.78049e-11
2.14293e-12
2.04057e-11
-2.15654e-11
-1.7139e-12
8.14471e-13
-1.04346e-07
4.73545e-13
-4.25112e-11
-1.7834e-11
1.70755e-11
-1.04812e-12
-2.18783e-11
1.77946e-12
2.12035e-11
4.37979e-11
1.04387e-07
3.976e-13
-1.04386e-07
-1.11849e-13
-4.34844e-11
-1.76748e-11
1.65507e-11
-1.39215e-12
-2.16546e-11
2.05558e-11
1.98538e-12
-2.50827e-08
-3.97862e-11
-2.46887e-11
3.4993e-11
3.82589e-11
3.22887e-11
3.32196e-11
2.50731e-08
-3.60051e-11
-3.83073e-11
2.52117e-08
-2.5073e-08
-3.23168e-11
-3.21471e-11
5.23635e-14
1.05337e-07
1.31504e-11
3.6071e-11
-1.36389e-11
2.33873e-11
1.90102e-11
-2.45493e-11
-2.14374e-11
-3.49948e-11
2.65932e-12
-1.03578e-13
1.05361e-07
1.30578e-11
3.65609e-11
-1.35104e-11
2.34793e-11
1.88897e-11
-2.47066e-11
-2.15292e-11
1.05338e-07
2.83242e-12
-1.05337e-07
3.88254e-13
-3.51678e-11
-1.3901e-11
1.29156e-11
-2.45678e-11
-2.15615e-11
1.90076e-11
2.3075e-11
3.64614e-11
1.05361e-07
3.66903e-12
-1.05361e-07
-2.98559e-13
-3.52132e-11
-1.36905e-11
1.29585e-11
-2.46777e-11
-2.16464e-11
1.88209e-11
2.31099e-11
3.14165e-11
3.39956e-11
2.50738e-08
-3.908e-11
2.52141e-08
-2.50746e-08
-3.16227e-11
-3.23073e-11
6.46326e-13
1.03511e-07
2.8046e-11
3.83814e-11
-2.93775e-11
-5.05063e-11
4.94764e-11
5.14552e-11
-5.03726e-11
-2.86669e-11
4.20725e-13
-6.5842e-13
1.04467e-07
2.5595e-11
2.99754e-11
-2.5745e-11
-3.25778e-11
4.83269e-11
3.23145e-11
-4.97309e-11
1.03514e-07
-1.73253e-12
-1.03512e-07
1.68796e-12
-3.84739e-11
-2.94337e-11
2.79198e-11
5.14113e-11
-5.04667e-11
4.94955e-11
-5.07434e-11
3.01114e-11
1.04472e-07
3.37667e-13
-1.04469e-07
-1.25138e-12
-2.86658e-11
-2.56465e-11
2.55282e-11
3.21723e-11
-5.00636e-11
4.82311e-11
-3.30607e-11
8.50107e-14
-1.41831e-13
1.04479e-07
2.49604e-11
3.02331e-11
-2.54507e-11
-3.27831e-11
4.83803e-11
-4.98881e-11
3.25741e-11
-1.82076e-12
-1.03506e-07
1.08435e-12
-3.87649e-11
-2.85034e-11
2.76253e-11
5.17249e-11
-5.00975e-11
-5.08098e-11
4.97836e-11
3.0341e-11
1.04482e-07
7.54406e-14
-1.0448e-07
-8.38206e-13
-2.88858e-11
-2.53411e-11
2.5011e-11
3.26146e-11
-5.01174e-11
4.86319e-11
-3.29308e-11
3.97422e-11
2.64697e-11
2.50774e-08
-4.30772e-11
2.5216e-08
-2.50783e-08
-3.92798e-11
-2.5258e-11
3.37593e-13
-2.89911e-13
1.04388e-07
1.66758e-11
4.36866e-11
-1.78038e-11
2.20463e-12
2.0312e-11
-2.13179e-11
-1.75338e-12
3.55048e-13
-1.04347e-07
6.17766e-13
-4.27153e-11
-1.78984e-11
1.68787e-11
-1.0703e-12
-2.20183e-11
1.61151e-12
2.09714e-11
4.38e-11
1.04392e-07
-1.61108e-13
-1.0439e-07
-2.24075e-13
-4.34044e-11
-1.76807e-11
1.66272e-11
-1.54997e-12
-2.15934e-11
2.0495e-11
1.77408e-12
-2.50833e-08
-3.98645e-11
-2.46441e-11
3.52709e-11
3.84583e-11
3.22639e-11
3.28496e-11
2.50729e-08
-3.60101e-11
-3.87775e-11
2.52115e-08
-2.50727e-08
-3.18616e-11
-3.21504e-11
5.43427e-13
1.05338e-07
1.26669e-11
3.59341e-11
-1.3865e-11
2.35155e-11
1.86446e-11
-2.48901e-11
-2.15537e-11
-3.52802e-11
4.06267e-12
-1.54641e-13
1.05363e-07
1.27127e-11
3.64049e-11
-1.75172e-11
2.35309e-11
1.86589e-11
-2.49713e-11
-1.91017e-11
1.05337e-07
2.28685e-12
-1.05337e-07
7.62373e-13
-3.53908e-11
-1.36398e-11
1.25974e-11
-2.43479e-11
-2.09388e-11
1.92793e-11
2.36576e-11
3.62678e-11
1.0536e-07
3.22119e-12
-1.05362e-07
5.61604e-13
-3.53965e-11
-1.39316e-11
1.63797e-11
-2.44137e-11
-2.11769e-11
1.67667e-11
2.35792e-11
3.16122e-11
3.36974e-11
2.50746e-08
-3.93212e-11
2.52141e-08
-2.50746e-08
-3.14138e-11
-3.2498e-11
1.69065e-12
1.03516e-07
2.79187e-11
3.83441e-11
-2.92704e-11
-5.06683e-11
4.8993e-11
5.08993e-11
-5.05227e-11
-2.86592e-11
5.21651e-13
-1.3161e-12
1.04474e-07
2.5471e-11
3.01228e-11
-2.57509e-11
-3.27705e-11
4.78061e-11
3.20397e-11
-4.96262e-11
1.03518e-07
-1.91549e-12
-1.03517e-07
1.49292e-12
-3.82144e-11
-2.88856e-11
2.82129e-11
5.12387e-11
-5.03112e-11
4.93123e-11
-5.07768e-11
3.00962e-11
1.04478e-07
-2.09281e-13
-1.04477e-07
-9.92712e-13
-2.88592e-11
-2.57974e-11
2.53616e-11
3.24273e-11
-4.93334e-11
4.83302e-11
-3.26043e-11
-2.18553e-14
-8.34756e-13
1.04483e-07
2.50428e-11