/*--------------------------------*- C++ -*----------------------------------*\
| =========                 |                                                 |
| \\      /  F ield         | OpenFOAM: The Open Source CFD Toolbox           |
|  \\    /   O peration     | Version:  2206                                  |
|   \\  /    A nd           | Website:  www.openfoam.com                      |
|    \\/     M anipulation  |                                                 |
\*---------------------------------------------------------------------------*/
FoamFile
{
    version     2.0;
    format      ascii;
    arch        "LSB;label=32;scalar=64";
    class       volVectorField;
    location    "26";
    object      U;
}
// * * * * * * * * * * * * * * * * * * * * * * * * * * * * * * * * * * * * * //

dimensions      [0 1 -1 0 0 0 0];

internalField   nonuniform List<vector> 
66928
(
(-0.000225034 -0.000226647 0.118305)
(2.85833e-06 4.42844e-06 0.121587)
(-9.41207e-07 1.93406e-07 0.121529)
(1.25411e-06 1.55204e-07 0.12153)
(-0.000222587 0.000227546 0.118296)
(3.34405e-06 -1.96932e-06 0.121565)
(0.000217021 0.000220114 0.118315)
(-0.000222397 -0.000229094 0.118302)
(-7.6396e-08 9.67289e-07 0.124494)
(2.13983e-06 1.7261e-06 0.124486)
(-1.06017e-05 -1.41003e-05 0.0833271)
(-2.40649e-05 -9.57152e-06 0.0831652)
(-3.12147e-05 -1.66774e-05 0.104988)
(-2.47859e-05 -2.78573e-05 0.104789)
(-7.52953e-06 -4.3538e-05 0.0948808)
(-3.76216e-05 -4.31686e-05 0.110869)
(-5.05926e-05 -8.10926e-06 0.0946154)
(-6.62285e-05 -5.2663e-07 0.10964)
(-5.05365e-05 -3.57126e-05 0.110666)
(-2.43694e-06 -2.16912e-07 0.122692)
(-5.90146e-05 -1.09338e-08 0.114228)
(-4.9449e-05 9.67341e-06 0.0946202)
(-6.55772e-05 5.16824e-08 0.109641)
(-2.26338e-06 1.43734e-06 0.122702)
(-4.94514e-05 3.55467e-05 0.110663)
(-5.93061e-05 -8.62487e-08 0.114227)
(-2.29047e-05 1.12528e-05 0.0831777)
(-2.36302e-05 3.00616e-05 0.104796)
(-3.1529e-05 2.04153e-05 0.105011)
(-1.49422e-05 2.15669e-05 0.0833269)
(-3.78559e-05 4.47356e-05 0.110852)
(-1.27666e-05 4.96416e-05 0.0949185)
(1.26141e-05 2.81694e-05 0.0832266)
(-1.25221e-05 -1.95697e-05 0.083327)
(1.84041e-05 1.32641e-05 0.0831058)
(-2.34586e-05 -1.23775e-05 0.0831721)
(2.96041e-05 2.65518e-05 0.104986)
(2.04392e-05 3.14186e-05 0.104829)
(-0.000225841 -0.000228905 0.118304)
(-3.16808e-05 -2.0628e-05 0.105)
(-2.28564e-05 -3.02385e-05 0.104788)
(-9.42583e-06 -2.35712e-05 0.0833382)
(1.41143e-05 2.24339e-05 0.0832272)
(-2.00454e-05 -1.19706e-05 0.0831717)
(2.01726e-05 1.14143e-05 0.0831074)
(0.000216387 0.000217506 0.118314)
(-2.8354e-05 -2.48924e-05 0.10501)
(-2.16018e-05 -3.14687e-05 0.104789)
(3.16695e-05 2.168e-05 0.104999)
(2.29566e-05 3.04836e-05 0.104828)
(1.39018e-05 2.72133e-05 0.08323)
(2.63407e-05 8.29474e-05 0.109312)
(-2.03381e-05 -7.31815e-05 0.113225)
(3.09144e-05 2.67082e-05 0.104984)
(-2.20692e-05 -1.98139e-05 0.0939587)
(2.1301e-05 2.72387e-05 0.093891)
(2.51222e-05 8.07511e-05 0.11327)
(-2.47319e-05 -7.75059e-05 0.109255)
(8.11362e-05 2.30346e-05 0.109252)
(-7.75175e-05 -2.03178e-05 0.11315)
(2.13927e-05 3.27223e-05 0.104837)
(-2.56758e-05 -1.99376e-05 0.0937538)
(2.18338e-05 2.04827e-05 0.0937171)
(8.04896e-05 2.28963e-05 0.11323)
(-8.11893e-05 -2.11521e-05 0.109179)
(2.37252e-05 2.62451e-05 0.0995483)
(-2.39936e-05 -5.53122e-06 0.0826353)
(-1.24424e-05 -1.97435e-05 0.0825698)
(1.90934e-05 1.31498e-05 0.0825561)
(7.60771e-06 2.09951e-05 0.0824993)
(-2.56667e-05 -2.08616e-05 0.0995057)
(1.29231e-05 5.54712e-05 0.0947756)
(-1.13114e-05 -4.98476e-05 0.104119)
(5.61107e-06 6.09422e-05 0.104041)
(-1.68248e-06 -1.30587e-05 0.0814001)
(-5.69613e-05 -5.68142e-06 0.103777)
(-2.45455e-05 4.22806e-07 0.0811771)
(-6.64045e-05 -2.02347e-06 0.108455)
(-2.37659e-05 6.04006e-07 0.0922965)
(-2.42341e-05 1.09602e-06 0.0893991)
(-5.54674e-05 6.89612e-06 0.103779)
(-2.42508e-05 1.35183e-06 0.0811861)
(-2.37784e-05 -5.01512e-08 0.0922958)
(-6.66909e-05 2.36847e-06 0.108456)
(-2.44203e-05 -2.90277e-07 0.0894041)
(8.03856e-05 -2.26989e-05 0.109248)
(-7.62786e-05 2.1872e-05 0.113156)
(2.29191e-05 -3.10149e-05 0.104846)
(-2.38258e-05 2.13102e-05 0.0937653)
(7.94066e-05 -2.30489e-05 0.113234)
(2.24668e-05 -1.84586e-05 0.0937203)
(-7.91163e-05 2.32906e-05 0.109175)
(2.49893e-05 -8.09505e-05 0.109304)
(-1.98804e-05 7.66446e-05 0.113203)
(3.24253e-05 -2.28813e-05 0.105006)
(-2.22754e-05 2.33636e-05 0.0939913)
(2.04676e-05 -2.42957e-05 0.0939149)
(2.42756e-05 -7.85716e-05 0.113254)
(-2.42051e-05 7.9774e-05 0.109251)
(2.46378e-05 -2.31929e-05 0.0995577)
(-1.05675e-05 2.00318e-05 0.0825873)
(-2.18456e-05 9.33728e-06 0.0826547)
(9.05826e-06 -1.90512e-05 0.0825167)
(2.03189e-05 -9.48257e-06 0.0825728)
(-2.46845e-05 2.30808e-05 0.0995153)
(1.10361e-05 -2.03477e-05 0.0832219)
(8.59121e-06 -5.10612e-05 0.0948289)
(-6.56392e-06 5.69124e-05 0.104172)
(8.46978e-06 -5.56783e-05 0.104125)
(-9.74097e-08 2.69988e-05 0.0813981)
(-1.16177e-05 -1.38232e-05 0.0833277)
(1.20697e-05 2.47448e-05 0.0832294)
(-2.10533e-05 -1.03122e-05 0.083171)
(1.85032e-05 1.14877e-05 0.0831115)
(2.27235e-05 2.27961e-05 0.0995517)
(-2.21033e-05 -1.02735e-05 0.082644)
(-1.12004e-05 -2.14523e-05 0.0825777)
(2.01807e-05 9.7816e-06 0.0825618)
(7.32679e-06 2.0495e-05 0.0825068)
(-2.39301e-05 -2.38737e-05 0.0995045)
(-2.67396e-05 -8.2136e-05 0.109257)
(2.39883e-05 7.96559e-05 0.113273)
(1.99218e-05 2.76672e-05 0.093886)
(-3.39269e-05 -1.95322e-05 0.104997)
(2.30446e-05 7.95792e-05 0.109313)
(-2.06774e-05 -2.14731e-05 0.0939676)
(-2.24893e-05 -7.80056e-05 0.113223)
(-8.43715e-05 -2.39421e-05 0.10918)
(7.91038e-05 2.17032e-05 0.113233)
(2.1666e-05 1.98525e-05 0.0937066)
(-2.48278e-05 -3.06892e-05 0.104791)
(7.88063e-05 2.08242e-05 0.109254)
(-2.62815e-05 -1.82877e-05 0.0937601)
(-8.05414e-05 -2.23171e-05 0.113147)
(-2.72584e-05 -2.37697e-05 0.0995075)
(1.87824e-05 1.39101e-05 0.0825566)
(8.25481e-06 2.15637e-05 0.082502)
(2.22035e-05 2.47142e-05 0.0995559)
(-2.13297e-05 -9.17466e-06 0.0826421)
(-1.4016e-05 -1.72524e-05 0.0825768)
(2.53066e-05 7.98398e-05 0.109312)
(-2.20084e-05 -2.29885e-05 0.0939718)
(2.8722e-05 2.30895e-05 0.105002)
(-2.02541e-05 -7.57141e-05 0.113225)
(2.06355e-05 2.50095e-05 0.0939024)
(-2.32585e-05 -7.96961e-05 0.109256)
(2.39399e-05 7.73162e-05 0.11327)
(7.93488e-05 2.01429e-05 0.109255)
(-2.46327e-05 -2.20611e-05 0.0937583)
(2.1246e-05 3.01578e-05 0.104839)
(-7.76711e-05 -2.25473e-05 0.113148)
(2.16582e-05 1.95724e-05 0.09372)
(-7.97527e-05 -2.26751e-05 0.109183)
(7.87599e-05 2.04787e-05 0.113227)
(1.57977e-05 1.99426e-05 0.0832352)
(-9.33564e-06 -2.02933e-05 0.0833334)
(2.15485e-05 1.17876e-05 0.0831091)
(-1.94661e-05 -1.10065e-05 0.0831733)
(-2.28547e-05 -2.55063e-05 0.0995082)
(2.17921e-05 9.96915e-06 0.0825637)
(1.14582e-05 1.91693e-05 0.0825073)
(2.53452e-05 2.18897e-05 0.0995521)
(-1.84001e-05 -1.13738e-05 0.0826439)
(-8.98255e-06 -2.02685e-05 0.0825754)
(2.64898e-05 7.59449e-05 0.109313)
(-1.85198e-05 -7.96621e-05 0.113223)
(3.3261e-05 1.90437e-05 0.105004)
(-1.83836e-05 -2.62569e-05 0.093977)
(2.3961e-05 2.18701e-05 0.093904)
(2.64258e-05 7.50054e-05 0.113273)
(-2.1912e-05 -8.2744e-05 0.10926)
(8.2015e-05 1.89391e-05 0.109257)
(-7.72883e-05 -2.36206e-05 0.113146)
(2.33598e-05 2.9427e-05 0.104831)
(-2.31517e-05 -2.12192e-05 0.0937612)
(2.41926e-05 1.89949e-05 0.0937123)
(8.08487e-05 1.95996e-05 0.113231)
(-7.84044e-05 -2.38532e-05 0.109182)
(-2.38508e-05 -8.31317e-05 0.109259)
(2.20475e-05 2.36197e-05 0.0938977)
(2.53196e-05 7.71004e-05 0.113276)
(-2.99826e-05 -2.31773e-05 0.105006)
(2.56488e-05 7.78302e-05 0.109312)
(-1.82073e-05 -2.44313e-05 0.0939759)
(-1.97137e-05 -7.84701e-05 0.113225)
(-8.07285e-05 -2.49421e-05 0.109183)
(2.35703e-05 1.83716e-05 0.0937106)
(8.05052e-05 2.00906e-05 0.113233)
(-2.17038e-05 -3.08599e-05 0.104788)
(8.17554e-05 1.99213e-05 0.109255)
(-2.29225e-05 -1.9795e-05 0.0937604)
(-7.71605e-05 -2.3207e-05 0.113148)
(2.6521e-05 2.09025e-05 0.0995526)
(-1.8197e-05 -1.29534e-05 0.0826444)
(-8.93476e-06 -2.13234e-05 0.0825733)
(2.33928e-05 7.22339e-06 0.082564)
(1.12113e-05 1.89161e-05 0.0825051)
(-2.18851e-05 -2.6002e-05 0.099504)
(7.56683e-05 7.31005e-05 0.113794)
(0.000217096 0.000220613 0.118307)
(-0.000221252 -5.94504e-05 0.116184)
(-6.00779e-05 -0.000220552 0.116155)
(0.000223446 6.32871e-05 0.116214)
(6.07814e-05 0.000220167 0.116203)
(-7.54974e-05 -7.23497e-05 0.113746)
(7.30443e-05 -7.3318e-05 0.11379)
(0.000216076 -0.000217694 0.118302)
(-5.98443e-05 0.000220936 0.116161)
(-0.000215394 6.05201e-05 0.116156)
(6.08858e-05 -0.000220987 0.116209)
(0.000220892 -6.08412e-05 0.116196)
(-7.3399e-05 7.57533e-05 0.113739)
(-7.80988e-05 -7.56608e-05 0.113747)
(0.000222437 6.17606e-05 0.11622)
(5.98918e-05 0.000219992 0.116209)
(-0.000224455 -0.000226902 0.118301)
(7.33033e-05 7.09358e-05 0.113791)
(-0.000222207 -6.16964e-05 0.116179)
(-6.21619e-05 -0.000223279 0.116151)
(7.56416e-05 6.8322e-05 0.113799)
(0.000218223 0.000217262 0.118311)
(-0.000219052 -6.333e-05 0.11618)
(-5.88575e-05 -0.000223227 0.116152)
(0.000223641 5.86841e-05 0.116218)
(6.12858e-05 0.000217225 0.116207)
(-7.30739e-05 -7.53695e-05 0.11375)
(1.3958e-06 1.83567e-06 0.125259)
(1.65981e-06 3.53973e-08 0.125265)
(1.39663e-06 0.000264812 0.116341)
(-7.08995e-06 -0.000254979 0.115348)
(3.55696e-05 5.3971e-05 0.110865)
(-1.31386e-05 -5.57876e-05 0.113109)
(1.00299e-05 0.000265396 0.115367)
(8.61019e-06 6.39803e-05 0.113109)
(-3.40698e-07 -0.000259874 0.116348)
(0.000266517 3.11776e-06 0.116321)
(-0.000264037 -1.20994e-05 0.115262)
(5.08728e-05 3.65908e-05 0.110729)
(-6.23681e-05 -9.76006e-06 0.112939)
(0.000268283 1.05901e-05 0.115333)
(5.96865e-05 1.03801e-05 0.113012)
(-0.000274318 -4.39982e-06 0.116247)
(0.000257831 1.49131e-06 0.116819)
(6.14789e-05 -3.79552e-07 0.114317)
(-6.3084e-05 -1.2109e-06 0.113899)
(-0.000250535 1.6019e-06 0.116906)
(6.33542e-05 2.92879e-06 0.113983)
(0.000247334 -2.88463e-07 0.11701)
(-0.000257652 7.39083e-08 0.116727)
(0.000264402 -2.82989e-06 0.11631)
(-0.00025915 1.21993e-05 0.115257)
(5.05259e-05 -3.64255e-05 0.110729)
(-6.17896e-05 1.07086e-05 0.112936)
(5.99765e-05 -1.02812e-05 0.113009)
(0.000264601 -1.06217e-05 0.115327)
(-0.000267523 4.58053e-06 0.116243)
(0.000252887 -1.11278e-06 0.116813)
(6.083e-05 -9.69733e-07 0.114316)
(-0.000249342 -1.37335e-06 0.116903)
(-6.39315e-05 2.25428e-06 0.113898)
(0.000246169 2.27365e-07 0.117006)
(6.19718e-05 -3.1534e-06 0.113981)
(-0.000257963 5.07748e-07 0.116725)
(1.94079e-06 -0.000262343 0.116325)
(-7.04806e-06 0.000258659 0.115325)
(3.69746e-05 -5.09322e-05 0.110852)
(-1.00631e-05 5.89354e-05 0.11309)
(9.74329e-06 -0.000264804 0.115348)
(1.22827e-05 -5.9709e-05 0.113093)
(5.70066e-07 0.000268894 0.116316)
(7.33972e-05 6.99634e-05 0.113795)
(0.000216342 0.000218579 0.118307)
(-0.000221689 -6.1544e-05 0.116183)
(-6.08902e-05 -0.000223345 0.116155)
(-7.54417e-05 -7.45672e-05 0.113749)
(0.000221844 6.06906e-05 0.116214)
(5.91459e-05 0.000217984 0.116203)
(-7.56567e-05 -7.65481e-05 0.113749)
(-0.00022324 -0.00022818 0.118303)
(0.000222244 5.95743e-05 0.11622)
(6.03141e-05 0.000217885 0.11621)
(7.439e-05 6.90243e-05 0.113797)
(-0.000219944 -6.2649e-05 0.116182)
(-5.96853e-05 -0.000222572 0.116154)
(2.15484e-07 3.24949e-07 0.124486)
(-3.18081e-07 1.69337e-06 0.121524)
(5.96186e-06 -1.7288e-06 0.121557)
(-0.000218173 -0.000218316 0.118306)
(4.33006e-07 -5.08883e-07 0.124489)
(-9.0435e-07 -5.39808e-07 0.121518)
(2.43867e-06 -1.68676e-06 0.121553)
(-0.000217434 -0.000218911 0.118301)
(5.00809e-07 -1.92075e-06 0.124485)
(-7.9409e-07 1.66017e-07 0.121518)
(2.94339e-06 -2.04141e-06 0.12155)
(-0.000217781 -0.000219904 0.118304)
(-2.38962e-07 1.95732e-07 0.124485)
(1.39031e-06 2.23339e-06 0.121521)
(3.05416e-06 -1.88894e-06 0.121549)
(-0.000218545 -0.000220029 0.118304)
(-1.17719e-06 2.54507e-06 0.124489)
(8.76873e-07 3.30886e-06 0.121528)
(3.44742e-06 -2.05668e-06 0.121552)
(-0.000218324 -0.000220073 0.118308)
(-1.61709e-06 2.26102e-06 0.12449)
(1.21397e-06 1.99382e-06 0.121531)
(2.95795e-06 -1.59027e-06 0.121557)
(-0.000217088 -0.000219269 0.118308)
(-1.44881e-06 1.01716e-06 0.124489)
(-7.28875e-08 1.42061e-06 0.121528)
(3.10991e-06 -2.25577e-06 0.12156)
(-0.000217805 -0.000219247 0.118308)
(-1.2477e-06 -1.08174e-08 0.124489)
(1.49595e-07 4.05274e-07 0.121525)
(1.62785e-06 -8.50198e-07 0.121561)
(-0.000218301 -0.000219644 0.118308)
(-7.65576e-07 4.30568e-07 0.124489)
(-8.29992e-07 1.50197e-06 0.121527)
(2.6437e-06 -2.29893e-06 0.121561)
(-0.000218284 -0.000219994 0.118308)
(-7.41258e-07 7.26971e-07 0.124489)
(-5.98402e-08 1.12049e-06 0.12153)
(3.04691e-06 -2.16904e-06 0.121562)
(-0.000218157 -0.000220066 0.11831)
(-6.6047e-07 2.58609e-07 0.12449)
(3.18559e-07 9.87176e-07 0.121529)
(3.02511e-06 -1.71555e-06 0.121563)
(-0.000217695 -0.000220084 0.118309)
(-2.34098e-07 -2.39378e-07 0.124491)
(5.6487e-07 8.98936e-07 0.121527)
(3.21266e-06 -2.14048e-06 0.121561)
(-0.000217766 -0.000219685 0.118308)
(-3.16528e-07 -4.71208e-08 0.124492)
(-2.85042e-07 9.83702e-07 0.121527)
(2.84902e-06 -2.14133e-06 0.121561)
(-0.000217853 -0.000219623 0.11831)
(-5.52154e-07 -7.65975e-07 0.124491)
(-2.07334e-07 6.62944e-07 0.121527)
(2.92477e-06 -2.21178e-06 0.121562)
(-0.000217966 -0.000220372 0.118311)
(-8.6512e-08 2.63376e-07 0.124492)
(5.89967e-07 1.01892e-06 0.121527)
(3.24023e-06 -1.78446e-06 0.121565)
(-0.000218523 -0.000220045 0.118312)
(-4.16362e-07 3.32126e-07 0.124492)
(2.19636e-07 6.95826e-07 0.121528)
(3.12448e-06 -1.61332e-06 0.121567)
(-0.000218351 -0.000220478 0.118311)
(-1.19522e-06 -4.0367e-07 0.124492)
(4.76305e-07 1.0012e-06 0.121525)
(2.68845e-06 -7.78848e-07 0.121569)
(-0.00021721 -0.000219127 0.118312)
(4.56035e-06 3.77218e-06 0.121583)
(-3.92481e-06 5.59913e-06 0.121585)
(3.89383e-06 1.86983e-06 0.121587)
(-4.56238e-06 2.56201e-06 0.121583)
(-0.000216533 0.00022051 0.118315)
(0.000222148 -0.000229317 0.118302)
(-1.22991e-06 1.02733e-06 0.121524)
(1.1651e-06 -5.24084e-07 0.121522)
(-1.05096e-07 -8.10203e-09 0.121526)
(1.04335e-06 -2.15007e-06 0.121523)
(-4.49355e-06 -1.51186e-06 0.121539)
(-9.62315e-07 -6.83817e-07 0.12152)
(-1.63008e-06 -1.60365e-06 0.121536)
(0.000215894 -0.000216582 0.118306)
(-0.000222763 0.000226814 0.118287)
(-5.4979e-06 -4.68908e-06 0.12157)
(1.51832e-06 -1.80867e-06 0.121556)
(-3.18188e-06 -2.18516e-06 0.121564)
(0.00022277 0.000228931 0.118291)
(0.000218492 0.000216495 0.118311)
(-0.000224561 -0.000228833 0.118302)
(4.1217e-06 2.55601e-06 0.121586)
(-4.41682e-06 2.05467e-06 0.121581)
(4.47272e-06 -3.65651e-07 0.121583)
(-5.13089e-06 9.05457e-07 0.121581)
(-0.000218042 0.000217264 0.11831)
(0.000223545 -0.000228657 0.1183)
(1.12694e-06 -1.1549e-06 0.121525)
(1.19361e-06 -1.68641e-06 0.12152)
(-9.46537e-07 -1.22674e-06 0.121522)
(8.37385e-07 -2.00587e-06 0.121519)
(-1.53862e-06 -9.31646e-07 0.121533)
(-6.73126e-08 -1.10106e-06 0.121518)
(-1.07022e-06 -1.83292e-06 0.121534)
(0.000215856 -0.00021694 0.118297)
(-0.000223123 0.000226318 0.118289)
(-2.40457e-06 -2.08101e-06 0.121562)
(1.82765e-06 -1.23909e-06 0.121552)
(-2.71829e-06 -1.96865e-06 0.121559)
(0.000224148 0.000228886 0.118293)
(0.000217151 0.00021867 0.118311)
(-0.000226231 -0.000225985 0.118302)
(4.26908e-06 1.78155e-06 0.121582)
(-4.46389e-06 2.36575e-06 0.121581)
(2.65245e-06 2.81953e-06 0.121583)
(-2.29122e-06 4.11162e-06 0.121582)
(-0.000217642 0.000220214 0.118308)
(0.00022714 -0.000226503 0.118302)
(5.553e-07 -5.63503e-07 0.121522)
(1.40359e-06 -2.05434e-06 0.121518)
(-1.44188e-06 1.63108e-06 0.121521)
(6.49645e-07 -1.25471e-06 0.121519)
(-1.5212e-06 -1.67109e-06 0.121533)
(1.51096e-06 9.92182e-07 0.121521)
(-1.13482e-06 -1.75346e-06 0.121535)
(0.000216386 -0.000218339 0.118298)
(-0.000223564 0.000227578 0.118291)
(-2.41436e-06 -2.54306e-06 0.121559)
(2.22802e-06 -1.56332e-06 0.12155)
(-2.88316e-06 -1.83806e-06 0.12156)
(0.000224215 0.000229618 0.118293)
(0.000216878 0.000222291 0.118312)
(-0.000225637 -0.000225964 0.118302)
(2.11599e-06 4.65862e-06 0.121583)
(-1.54561e-06 5.30792e-06 0.121581)
(2.30657e-06 5.08769e-06 0.121585)
(-1.64079e-06 6.03244e-06 0.121582)
(-0.000215308 0.000222797 0.118312)
(0.000226078 -0.000226659 0.118307)
(-3.70942e-07 2.1945e-06 0.121521)
(1.13552e-06 -9.26246e-07 0.121518)
(-1.13813e-06 3.62868e-06 0.121525)
(1.39282e-06 -6.40446e-07 0.121524)
(-1.05206e-06 -1.06174e-06 0.121535)
(2.06303e-06 2.24032e-06 0.121527)
(-8.83065e-07 -9.21397e-07 0.121538)
(0.000217355 -0.000218347 0.118301)
(-0.000222947 0.000227892 0.118296)
(-2.42115e-06 -2.10803e-06 0.12156)
(2.72709e-06 -1.67669e-06 0.121552)
(-2.66551e-06 -1.48206e-06 0.121565)
(0.000223974 0.000229622 0.118296)
(0.000218419 0.000222831 0.118311)
(-0.000225248 -0.000227698 0.1183)
(2.51989e-06 6.31236e-06 0.121585)
(-1.73606e-06 6.47645e-06 0.121581)
(2.84106e-06 3.66674e-06 0.121585)
(-2.81716e-06 5.01329e-06 0.121582)
(-0.000216823 0.000222401 0.118316)
(0.000224883 -0.000227384 0.118308)
(4.14303e-07 3.67982e-06 0.121526)
(1.98994e-06 -6.1563e-07 0.121526)
(-1.13075e-06 2.98298e-06 0.12153)
(6.99284e-07 -1.0561e-06 0.121532)
(-1.13009e-06 -7.00708e-07 0.121539)
(2.05717e-06 1.62233e-06 0.121532)
(5.13217e-08 -6.916e-07 0.121542)
(0.000218146 -0.000218568 0.118306)
(-0.000223815 0.000227749 0.118298)
(-2.58709e-06 -1.96916e-06 0.121566)
(2.45466e-06 -1.07181e-06 0.121557)
(-2.35126e-06 -1.12272e-06 0.121569)
(0.000224827 0.000229979 0.118298)
(0.000218776 0.000221097 0.11831)
(-0.000225155 -0.000228493 0.118298)
(3.00316e-06 4.5311e-06 0.121583)
(-2.43414e-06 4.70869e-06 0.121579)
(3.10241e-06 2.7331e-06 0.121581)
(-3.84635e-06 3.46543e-06 0.121576)
(-0.000216755 0.000220602 0.118315)
(0.000224297 -0.000228583 0.118305)
(3.30808e-07 2.68216e-06 0.12153)
(1.07471e-06 -1.08221e-06 0.121533)
(-4.13047e-07 1.82808e-06 0.121531)
(7.74043e-07 -1.55818e-06 0.121536)
(-5.13591e-07 -3.67271e-07 0.121541)
(8.94472e-07 7.43277e-07 0.12153)
(-2.31097e-07 -7.42526e-07 0.121541)
(0.000217693 -0.000219025 0.118307)
(-0.00022394 0.000228303 0.118298)
(-1.85056e-06 -1.25961e-06 0.121568)
(2.45478e-06 -1.76364e-06 0.12156)
(-2.92682e-06 -1.7124e-06 0.121569)
(0.000224159 0.000230176 0.118297)
(0.000218589 0.0002202 0.118306)
(-0.000226099 -0.000229266 0.118299)
(3.27191e-06 3.77486e-06 0.12158)
(-3.59334e-06 4.06743e-06 0.121573)
(2.6193e-06 1.38979e-06 0.121581)
(-3.79636e-06 2.09276e-06 0.121573)
(-0.000216878 0.000218812 0.118313)
(0.00022432 -0.000229123 0.118305)
(1.26047e-06 1.6209e-06 0.121531)
(1.38431e-06 -1.36087e-06 0.121535)
(-1.42312e-06 6.56151e-07 0.121534)
(-1.97811e-07 -9.83185e-07 0.121538)
(-9.68918e-07 -5.57164e-07 0.121541)
(1.01204e-06 -4.09242e-07 0.121528)
(-4.52491e-07 -7.62962e-07 0.121541)
(0.000217546 -0.000218519 0.118306)
(-0.000224204 0.000228059 0.118299)
(-2.97787e-06 -2.12608e-06 0.121568)
(1.48411e-06 -6.85444e-07 0.121564)
(-2.82273e-06 -6.74314e-07 0.12157)
(0.000224242 0.000230205 0.118297)
(0.000217988 0.00022001 0.118308)
(-0.00022561 -0.000228581 0.118299)
(2.20504e-06 2.07519e-06 0.12158)
(-3.50614e-06 2.49451e-06 0.121571)
(2.73879e-06 1.6077e-06 0.12158)
(-4.27084e-06 2.71278e-06 0.121573)
(-0.000217844 0.000219642 0.118315)
(0.000224064 -0.000228752 0.118303)
(-3.37326e-07 4.68417e-07 0.121533)
(1.79295e-07 -5.49101e-07 0.121536)
(-7.46211e-07 1.18917e-06 0.121534)
(4.43134e-07 -1.62157e-06 0.121537)
(-7.60685e-07 -4.91346e-07 0.121541)
(-7.84631e-08 5.54761e-07 0.121528)
(-9.6158e-07 -1.30769e-06 0.121543)
(0.000216851 -0.000218337 0.118309)
(-0.000224156 0.00022771 0.1183)
(-2.46085e-06 -1.01764e-06 0.121568)
(1.7905e-06 -1.47883e-06 0.121562)
(-3.07848e-06 -1.82555e-06 0.121567)
(0.000224139 0.000229697 0.118297)
(0.000218223 0.000220492 0.118309)
(-0.00022576 -0.000228806 0.1183)
(2.77588e-06 3.30266e-06 0.12158)
(-3.94858e-06 3.71455e-06 0.121572)
(3.16638e-06 1.79201e-06 0.12158)
(-3.46267e-06 2.7555e-06 0.121575)
(-0.000218481 0.000220464 0.118312)
(0.00022529 -0.0002287 0.118306)
(6.71463e-07 1.36598e-06 0.121534)
(1.05999e-06 -1.53153e-06 0.121537)
(-1.22306e-06 1.44699e-06 0.121536)
(2.84381e-07 -1.49722e-06 0.12154)
(-1.67541e-06 -1.15881e-06 0.121543)
(6.01379e-07 3.719e-07 0.121531)
(-9.80546e-07 -1.36729e-06 0.121546)
(0.000217295 -0.000219096 0.11831)
(-0.000224483 0.000228364 0.118301)
(-2.70738e-06 -2.31965e-06 0.121567)
(2.13684e-06 -1.41399e-06 0.121564)
(-2.90057e-06 -1.62478e-06 0.12157)
(0.000224245 0.00022965 0.118299)
(0.000219307 0.000221036 0.118309)
(-0.000224921 -0.000228493 0.118298)
(3.42935e-06 3.52447e-06 0.121579)
(-3.42137e-06 3.40051e-06 0.121574)
(3.99614e-06 2.71651e-06 0.12158)
(-3.74909e-06 3.28968e-06 0.121576)
(-0.00021727 0.000220295 0.118315)
(0.000224742 -0.000228559 0.118306)
(3.53204e-07 1.6275e-06 0.121537)
(1.0686e-06 -1.19543e-06 0.121539)
(-5.91092e-07 1.48724e-06 0.121539)
(7.31255e-07 -1.46121e-06 0.121542)
(-1.50203e-06 -1.25837e-06 0.121545)
(6.53934e-07 5.67189e-07 0.121531)
(-8.56275e-07 -1.60122e-06 0.121549)
(0.000217316 -0.000218613 0.11831)
(-0.000223695 0.000228021 0.1183)
(-2.81466e-06 -2.09429e-06 0.121569)
(2.59372e-06 -1.21736e-06 0.121565)
(-2.84019e-06 -1.82477e-06 0.12157)
(0.000224567 0.000229588 0.118299)
(0.000219496 0.000220942 0.118308)
(-0.000224933 -0.000228933 0.118299)
(3.62353e-06 3.87918e-06 0.12158)
(-3.30234e-06 3.52907e-06 0.121574)
(3.61487e-06 1.90736e-06 0.121582)
(-3.67916e-06 2.94003e-06 0.121574)
(-0.000216848 0.000219617 0.118314)
(0.000224691 -0.000228341 0.118303)
(3.3923e-07 1.07498e-06 0.121539)
(1.06811e-06 -1.12147e-06 0.12154)
(-8.74983e-07 4.66244e-07 0.121538)
(4.99183e-07 -1.48448e-06 0.121538)
(-7.43932e-07 -9.37625e-07 0.121547)
(9.23659e-07 7.06799e-08 0.121528)
(-3.49674e-07 -1.36823e-06 0.121547)
(0.000217449 -0.000218319 0.118309)
(-0.000224164 0.000228392 0.118298)
(-2.41988e-06 -2.0705e-06 0.12157)
(2.65429e-06 -1.51622e-06 0.121563)
(-2.59274e-06 -1.61902e-06 0.121568)
(0.000223878 0.000229262 0.118298)
(0.000218957 0.000220065 0.118308)
(-0.000225276 -0.000229053 0.118299)
(3.56303e-06 3.1638e-06 0.121582)
(-3.70764e-06 3.52795e-06 0.121572)
(3.38081e-06 1.80624e-06 0.121583)
(-4.386e-06 3.06432e-06 0.121572)
(-0.000216656 0.0002197 0.118313)
(0.000223577 -0.000228636 0.118303)
(4.12046e-07 4.7544e-07 0.121537)
(1.10878e-06 -1.40579e-06 0.121536)
(-8.48224e-07 5.75639e-07 0.121537)
(5.93764e-07 -1.56622e-06 0.121537)
(-1.076e-06 -1.25887e-06 0.121546)
(3.41094e-07 3.76907e-07 0.121527)
(-7.65488e-07 -1.37037e-06 0.121545)
(0.000217495 -0.000218618 0.118307)
(-0.00022441 0.000227803 0.118298)
(-2.3977e-06 -2.04503e-06 0.121567)
(2.45429e-06 -1.70215e-06 0.121562)
(-2.92033e-06 -1.83616e-06 0.121568)
(0.000223568 0.000229395 0.118299)
(0.000218721 0.000219964 0.118309)
(-0.000225597 -0.000229558 0.118303)
(3.23447e-06 2.97963e-06 0.121582)
(-4.49712e-06 3.83082e-06 0.121572)
(3.02734e-06 1.56823e-06 0.121587)
(-4.03454e-06 2.49879e-06 0.121574)
(-0.000218194 0.000219755 0.118312)
(0.000224274 -0.000228373 0.118305)
(8.42787e-07 8.48773e-07 0.121536)
(1.3713e-06 -1.55908e-06 0.121535)
(-1.17292e-06 1.78251e-07 0.121538)
(1.10142e-07 -1.61549e-06 0.121538)
(-1.6102e-06 -1.28114e-06 0.121545)
(1.12239e-07 -1.76601e-07 0.121527)
(-8.88482e-07 -1.38032e-06 0.121546)
(0.000217153 -0.000218891 0.118308)
(-0.000223891 0.00022756 0.1183)
(-2.66079e-06 -2.12348e-06 0.121567)
(2.15012e-06 -1.77149e-06 0.121563)
(-2.56871e-06 -1.70736e-06 0.12157)
(0.000224273 0.000229191 0.1183)
(0.000218697 0.000219887 0.118311)
(-0.000225873 -0.000229386 0.118304)
(3.2744e-06 2.92533e-06 0.121587)
(-3.88589e-06 3.23383e-06 0.121575)
(3.36793e-06 1.25732e-06 0.121589)
(-3.72854e-06 2.2689e-06 0.121579)
(-0.000217967 0.000220418 0.118315)
(0.000224207 -0.00022867 0.118303)
(2.59473e-07 4.14361e-07 0.121537)
(1.10626e-06 -1.37142e-06 0.121536)
(-9.66955e-07 8.23815e-07 0.121538)
(4.90031e-07 -1.30272e-06 0.121541)
(-1.03474e-06 -9.88102e-07 0.121546)
(6.50316e-07 5.45885e-07 0.121529)
(-4.92172e-07 -1.05148e-06 0.121548)
(0.000217754 -0.000219351 0.11831)
(-0.000223876 0.000228061 0.118302)
(-2.2885e-06 -2.43533e-06 0.121571)
(2.43646e-06 -1.65332e-06 0.121566)
(-2.66733e-06 -1.7097e-06 0.121573)
(0.000224176 0.000229573 0.118301)
(0.000218216 0.00021975 0.118313)
(-0.000224958 -0.000228629 0.1183)
(3.18035e-06 2.6311e-06 0.121587)
(-3.24253e-06 3.2441e-06 0.121579)
(3.22941e-06 1.58762e-06 0.121584)
(-3.58108e-06 2.8223e-06 0.12158)
(-0.000217981 0.000220167 0.118311)
(0.000225324 -0.000228965 0.118301)
(2.67792e-07 9.34496e-07 0.121537)
(9.40119e-07 -1.05349e-06 0.121539)
(-8.06887e-07 9.9947e-07 0.121534)
(6.82108e-07 -9.90245e-07 0.121539)
(-6.76887e-07 -8.37585e-07 0.121547)
(9.46105e-07 -1.16214e-08 0.121529)
(-9.17327e-07 -1.56263e-06 0.121548)
(0.000217639 -0.000218692 0.118311)
(-0.000223631 0.000228277 0.118299)
(-2.48436e-06 -2.08193e-06 0.121572)
(2.52293e-06 -1.47023e-06 0.121565)
(-2.8851e-06 -1.44625e-06 0.121574)
(0.000224133 0.000229534 0.1183)
(0.000218768 0.000220273 0.118309)
(-0.000224282 -0.000227712 0.118301)
(3.23527e-06 2.35723e-06 0.121584)
(-3.19017e-06 3.5059e-06 0.121579)
(3.87445e-06 2.0737e-06 0.121579)
(-3.26653e-06 1.97216e-06 0.121582)
(-0.000217287 0.000220256 0.11831)
(0.000224075 -0.000228261 0.118302)
(2.6788e-07 9.63207e-07 0.121535)
(1.3799e-06 -1.06929e-06 0.121539)
(2.63058e-07 1.71852e-06 0.121533)
(1.63314e-06 -2.22649e-06 0.121537)
(-1.29885e-06 -1.29296e-06 0.121546)
(9.92167e-07 -4.82544e-07 0.121529)
(1.97738e-07 -3.98548e-07 0.121548)
(0.000217664 -0.000218495 0.11831)
(-0.000224066 0.000227844 0.1183)
(-2.61196e-06 -1.84738e-06 0.121574)
(2.62661e-06 -2.22958e-06 0.121565)
(-2.36133e-06 -1.32081e-06 0.121575)
(0.000225 0.000230346 0.118301)
(0.000218582 0.000220322 0.118309)
(2.60698e-06 1.19372e-06 0.121583)
(-2.50671e-06 2.81292e-06 0.121575)
(-0.000216964 0.000219721 0.118311)
(-8.96872e-07 2.65617e-07 0.121539)
(3.00424e-07 -4.80693e-07 0.121542)
(-5.53127e-07 -6.76295e-07 0.121545)
(-1.70369e-06 -1.35668e-06 0.121547)
(0.000217701 -0.000219573 0.118307)
(-2.25165e-06 -1.88436e-06 0.121572)
(-3.11513e-06 -2.48427e-06 0.121574)
(0.000223041 0.000228623 0.118298)
(-1.57737e-06 -6.87624e-05 0.10997)
(1.19252e-05 5.68717e-05 0.0947896)
(-4.20116e-07 7.30639e-05 0.109965)
(-9.47238e-06 -4.7516e-05 0.0948976)
(-1.06657e-05 2.80591e-05 0.0832292)
(1.22296e-05 -1.98623e-05 0.0833348)
(-6.8305e-05 -5.59419e-07 0.109641)
(4.79122e-05 8.88887e-06 0.0945841)
(6.50777e-05 -2.99178e-07 0.109734)
(-5.09251e-05 -9.77823e-06 0.0946167)
(5.28593e-07 8.41326e-07 0.124488)
(4.05357e-06 1.79816e-06 0.124483)
(-2.27918e-06 2.3331e-06 0.124496)
(-7.83115e-07 -8.81447e-07 0.124488)
(-1.1742e-06 6.99465e-08 0.12449)
(2.6167e-08 -1.21527e-06 0.124486)
(-8.25541e-07 -8.25255e-07 0.124488)
(6.16799e-05 -1.61102e-06 0.114221)
(-4.92186e-05 3.60977e-05 0.11073)
(5.5104e-07 4.75285e-07 0.122682)
(2.89634e-06 -2.82154e-07 0.121524)
(5.03755e-05 -3.8517e-05 0.110665)
(4.04005e-06 -1.70915e-06 0.122681)
(-5.98045e-05 -4.95908e-07 0.114319)
(1.89253e-05 -1.21392e-05 0.0831209)
(-2.31285e-05 1.32293e-05 0.083184)
(-1.56017e-06 6.29496e-05 0.114336)
(1.88557e-06 -4.96437e-06 0.122766)
(3.60842e-05 -4.87434e-05 0.110851)
(-7.36495e-08 1.07924e-06 0.121558)
(-2.71642e-06 1.28959e-06 0.122765)
(-3.80847e-05 4.86085e-05 0.110849)
(1.77866e-07 -6.17788e-05 0.114346)
(-2.35603e-05 -3.1081e-05 0.104847)
(-3.28163e-05 -2.19898e-05 0.104989)
(0.000226836 0.000231935 0.118296)
(2.39448e-05 3.07489e-05 0.104803)
(3.10775e-05 2.32771e-05 0.104994)
(-1.01447e-06 -7.62192e-05 0.109964)
(1.22481e-05 4.81693e-05 0.0948233)
(-1.82934e-07 6.27483e-05 0.10996)
(-8.64913e-06 -5.3432e-05 0.0949285)
(-1.52711e-05 1.91287e-05 0.083239)
(1.08174e-05 -2.47854e-05 0.0833494)
(-6.93253e-05 -1.02188e-06 0.109639)
(5.08377e-05 7.46005e-06 0.0945771)
(6.83575e-05 -3.1879e-07 0.109732)
(-4.9769e-05 -8.79275e-06 0.0946134)
(-4.42468e-07 -7.71532e-07 0.124491)
(-3.27047e-08 -6.25118e-07 0.124486)
(-2.20337e-07 -5.11352e-07 0.124487)
(-2.21181e-07 -2.55642e-06 0.124487)
(-3.46854e-07 -2.30031e-06 0.124486)
(-8.47064e-08 -1.14854e-06 0.12448)
(3.73143e-07 -9.85404e-08 0.12448)
(5.90682e-05 -9.01413e-07 0.114221)
(-5.25612e-05 3.41204e-05 0.11073)
(8.47453e-07 -2.34938e-06 0.122679)
(9.42523e-07 -1.86135e-06 0.12152)
(-6.21051e-05 -1.41336e-06 0.114317)
(4.7318e-05 -3.76884e-05 0.110662)
(2.30294e-06 -3.04403e-06 0.122681)
(2.02817e-05 -1.18329e-05 0.0831236)
(-2.17877e-05 1.22843e-05 0.0831846)
(-1.46748e-06 6.09705e-05 0.114334)
(-1.92075e-06 -2.15578e-06 0.122754)
(3.67326e-05 -4.83957e-05 0.11085)
(1.16729e-06 6.25806e-08 0.121556)
(-8.01318e-07 -6.18248e-05 0.114345)
(-2.49712e-06 -5.95495e-07 0.122756)
(-3.66529e-05 4.63839e-05 0.110852)
(-2.34036e-05 -3.10192e-05 0.104842)
(-3.39762e-05 -2.18136e-05 0.104991)
(0.000225111 0.000230043 0.118295)
(2.28533e-05 3.0591e-05 0.1048)
(3.09308e-05 2.10822e-05 0.104995)
(-1.20337e-06 -7.26166e-05 0.109965)
(7.42106e-06 4.96927e-05 0.0948493)
(-5.77092e-07 6.13991e-05 0.109958)
(-1.34894e-05 -4.98177e-05 0.0949488)
(-1.01812e-05 2.13172e-05 0.0832554)
(1.51301e-05 -2.19984e-05 0.0833619)
(-6.83051e-05 5.38303e-07 0.109641)
(4.92095e-05 1.00433e-05 0.0945734)
(6.79811e-05 2.2782e-07 0.109732)
(-5.15161e-05 -6.48012e-06 0.0946131)
(3.23256e-08 -1.8648e-06 0.124488)
(2.79547e-07 -6.49449e-07 0.124481)
(3.34498e-07 -8.67862e-08 0.124482)
(-5.96666e-07 -1.20299e-06 0.124485)
(9.08907e-07 -3.56637e-07 0.124487)
(7.01048e-08 -3.62867e-07 0.124476)
(5.16483e-07 2.6378e-07 0.124481)
(5.94559e-05 7.49121e-07 0.114224)
(-4.99081e-05 3.76954e-05 0.110729)
(3.68844e-07 -1.47763e-06 0.122678)
(1.32579e-06 -4.69971e-07 0.121521)
(-6.08761e-05 2.2972e-07 0.114319)
(5.03203e-05 -3.44101e-05 0.110663)
(2.01815e-06 -1.86044e-06 0.122679)
(2.02591e-05 -1.21376e-05 0.0831237)
(-2.1547e-05 1.24948e-05 0.0831853)
(-1.16347e-06 6.07524e-05 0.114334)
(-1.02461e-06 -2.24209e-06 0.12275)
(3.73643e-05 -4.9312e-05 0.110854)
(2.2017e-06 -6.81503e-07 0.121553)
(1.04225e-08 -6.19177e-05 0.114345)
(-1.76676e-06 -1.21487e-06 0.122751)
(-3.69087e-05 4.64354e-05 0.110854)
(-2.30176e-05 -3.0817e-05 0.104843)
(-3.23436e-05 -2.21832e-05 0.104989)
(0.000224914 0.000229949 0.118296)
(2.28844e-05 3.07739e-05 0.104802)