/*--------------------------------*- C++ -*----------------------------------*\
| =========                 |                                                 |
| \\      /  F ield         | OpenFOAM: The Open Source CFD Toolbox           |
|  \\    /   O peration     | Version:  2206                                  |
|   \\  /    A nd           | Website:  www.openfoam.com                      |
|    \\/     M anipulation  |                                                 |
\*---------------------------------------------------------------------------*/
FoamFile
{
    version     2.0;
    format      ascii;
    arch        "LSB;label=32;scalar=64";
    class       volVectorField;
    location    "26";
    object      wallShearStress;
}
// * * * * * * * * * * * * * * * * * * * * * * * * * * * * * * * * * * * * * //

dimensions      [0 2 -2 0 0 0 0];

internalField   uniform (0 0 0);

boundaryField
{
    topPatch
    {
        type            calculated;
        value           nonuniform List<vector> 0();
    }
    wall
    {
        type            calculated;
        value           nonuniform List<vector> 
7746
(
(5.4043e-08 -1.61182e-08 -0.000168047)
(1.84444e-08 -1.49559e-08 -0.000168037)
(5.68686e-08 -7.12236e-09 -0.000157059)
(1.68207e-08 -3.11951e-09 -0.00015707)
(7.88336e-09 -1.33409e-08 -0.00015709)
(9.9825e-09 -6.26342e-09 -0.000168064)
(1.7523e-08 -7.34325e-09 -0.000167892)
(1.83689e-08 -5.03886e-09 -0.000156827)
(2.02269e-08 -2.5322e-08 -0.000167677)
(-2.08349e-10 1.26474e-08 -0.000167909)
(2.42018e-10 -2.13351e-08 -0.000167721)
(9.94402e-09 1.28659e-08 -0.000168039)
(-9.79552e-09 1.90935e-08 -0.000167869)
(-3.64032e-08 4.43882e-09 -0.000167561)
(3.221e-09 1.90996e-08 -0.000168023)
(-9.12753e-09 -7.8626e-09 -0.000167736)
(2.89092e-08 -3.16374e-08 -0.000167754)
(1.83232e-08 -2.35727e-08 -0.00015672)
(5.82405e-09 -9.66039e-09 -0.000157871)
(-3.33905e-09 1.07433e-08 -0.000157553)
(1.99344e-08 3.44593e-09 -0.000168424)
(-2.25895e-08 -2.81963e-09 -0.000168121)
(-9.8898e-09 9.37029e-09 -0.00016756)
(-1.20868e-08 5.28203e-09 -0.000156463)
(2.77738e-08 -5.23457e-09 -0.000167948)
(-1.19484e-08 -7.02825e-09 -0.000167585)
(9.40076e-09 6.77331e-09 -0.00016801)
(-4.87773e-09 -9.94135e-09 -0.000167711)
(-3.93693e-08 7.73988e-09 -0.000167525)
(-1.36416e-08 1.71475e-08 -0.000167862)
(-1.18324e-08 -2.74941e-09 -0.000167713)
(3.05352e-09 1.54204e-08 -0.000168023)
(1.36246e-08 -2.30502e-08 -0.000156624)
(7.55897e-09 1.42581e-08 -0.00015687)
(-2.15043e-08 -2.64562e-08 -0.000167692)
(2.97161e-10 1.63385e-08 -0.00016792)
(-4.26064e-09 -2.42601e-08 -0.000156708)
(1.28379e-08 1.25374e-08 -0.000157073)
(-6.32136e-09 1.36713e-08 -0.000167736)
(9.65035e-09 -1.33622e-08 -0.000168062)
(-4.07682e-08 2.54383e-09 -0.000156433)
(5.60454e-09 1.36734e-08 -0.00015683)
(3.33344e-08 3.00668e-09 -0.000167549)
(-2.52289e-09 1.48723e-08 -0.000167919)
(-1.02773e-08 -7.64808e-09 -0.000156728)
(1.07826e-08 1.26614e-08 -0.000157083)
(-6.16499e-09 1.33364e-08 -0.000167769)
(1.06392e-08 -1.29841e-08 -0.000168098)
(-5.80547e-09 -1.2411e-08 -0.000156473)
(2.5391e-08 4.07231e-09 -0.00015688)
(6.29673e-09 -9.89173e-09 -0.000167596)
(-1.91535e-08 2.17191e-09 -0.000167968)
(-1.01314e-08 -1.59183e-08 -0.000156729)
(1.38605e-08 3.99448e-09 -0.000157096)
(-8.95069e-09 1.41661e-08 -0.000167762)
(8.54574e-09 -1.36948e-08 -0.000168097)
(-1.42894e-08 -9.17162e-09 -0.000156494)
(1.29204e-08 1.09482e-08 -0.000156848)
(4.8676e-09 -1.12239e-08 -0.000167618)
(-1.79306e-08 6.07944e-09 -0.000167946)
(-7.29154e-09 -1.82717e-08 -0.000156749)
(1.29167e-08 4.61494e-09 -0.000157074)
(-6.65024e-09 1.25357e-08 -0.000167778)
(9.7823e-09 -1.07984e-08 -0.000168069)
(-1.92981e-08 -8.33283e-09 -0.000156465)
(1.45367e-08 1.0438e-08 -0.000156834)
(1.22173e-08 -9.20357e-09 -0.000167603)
(-1.04408e-08 1.11624e-08 -0.000167936)
(-8.94429e-09 -1.36544e-08 -0.000156743)
(1.20098e-08 1.10482e-08 -0.000157077)
(-7.87689e-09 1.20693e-08 -0.000167757)
(1.02046e-08 -1.00861e-08 -0.000168054)
(-1.55755e-08 -4.73579e-09 -0.000156439)
(1.6474e-08 1.07101e-08 -0.000156796)
(9.61438e-09 -8.36995e-09 -0.000167569)
(-1.59508e-08 1.02429e-08 -0.000167907)
(-6.6294e-09 -1.19738e-08 -0.000156714)
(1.52038e-08 8.81782e-09 -0.000157044)
(-3.81906e-09 1.30446e-08 -0.000167719)
(1.44688e-08 -8.67358e-09 -0.000168021)
(-1.50555e-08 -5.46579e-09 -0.000156399)
(1.65335e-08 1.17029e-08 -0.000156785)
(1.33185e-08 -4.50955e-09 -0.000167534)
(-9.57312e-09 1.35603e-08 -0.00016788)
(-5.98929e-09 -1.25932e-08 -0.000156692)
(1.47728e-08 1.13498e-08 -0.000157033)
(-5.72208e-09 1.04589e-08 -0.000167685)
(1.21102e-08 -1.31206e-08 -0.000168003)
(-1.14116e-08 -7.05551e-09 -0.000156401)
(1.99901e-08 1.03138e-08 -0.000156765)
(1.17226e-08 -2.80493e-09 -0.000167524)
(-1.17473e-08 1.08421e-08 -0.000167857)
(-7.3951e-09 -1.17886e-08 -0.000156676)
(1.29067e-08 1.2864e-08 -0.000156997)
(-4.299e-09 1.46164e-08 -0.000167676)
(1.26414e-08 -1.0761e-08 -0.000167974)
(-1.47437e-08 -8.88499e-09 -0.000156392)
(1.35402e-08 1.07192e-08 -0.000156767)
(1.47717e-08 -5.82452e-09 -0.000167525)
(-1.24655e-08 9.53389e-09 -0.000167864)
(-9.57538e-09 -1.163e-08 -0.000156663)
(1.26286e-08 9.03863e-09 -0.000157004)
(-6.88532e-09 1.26507e-08 -0.000167666)
(1.09658e-08 -1.26621e-08 -0.000167978)
(-1.8715e-08 -6.9713e-09 -0.000156378)
(1.61367e-08 7.91154e-09 -0.00015676)
(5.80069e-09 -1.0338e-08 -0.000167494)
(-1.96441e-08 2.75218e-09 -0.000167854)
(-8.01673e-09 -1.64155e-08 -0.000156652)
(1.07051e-08 7.82022e-09 -0.000157001)
(-6.53702e-09 1.61221e-08 -0.000167656)
(7.17615e-09 -1.52074e-08 -0.000167982)
(-1.60096e-08 -7.86632e-09 -0.000156385)
(1.83592e-08 1.07069e-08 -0.000156761)
(1.17736e-08 -7.43556e-09 -0.00016752)
(-1.30491e-08 1.10353e-08 -0.000167863)
(-6.67021e-09 -1.57148e-08 -0.00015667)
(1.26857e-08 8.2169e-09 -0.00015701)
(-6.25829e-09 1.19974e-08 -0.000167684)
(9.86373e-09 -1.02747e-08 -0.000167996)
(-1.35181e-08 -8.63144e-09 -0.000156379)
(1.94275e-08 9.57343e-09 -0.000156751)
(8.68832e-09 -1.17939e-08 -0.000167516)
(-1.99324e-08 9.16604e-09 -0.00016787)
(-9.48784e-09 -1.17017e-08 -0.000156663)
(1.2395e-08 1.35608e-08 -0.000157003)
(-5.97339e-09 1.07709e-08 -0.000167697)
(1.03727e-08 -1.28657e-08 -0.000168008)
(-1.67685e-08 -6.02216e-09 -0.000156371)
(1.57934e-08 1.2921e-08 -0.000156754)
(1.0841e-08 -7.10622e-09 -0.000167519)
(-1.54752e-08 1.06149e-08 -0.000167865)
(-5.11776e-09 -1.50632e-08 -0.000156661)
(1.55979e-08 5.94365e-09 -0.000157001)
(-4.80707e-09 1.23485e-08 -0.000167678)
(1.20984e-08 -1.01409e-08 -0.000167993)
(-1.28441e-08 -4.01734e-09 -0.000156362)
(1.8423e-08 9.50248e-09 -0.00015673)
(1.00112e-08 -5.23341e-09 -0.000167489)
(-1.64133e-08 8.62368e-09 -0.000167828)
(-5.03335e-09 -1.30567e-08 -0.000156642)
(1.39179e-08 1.37431e-08 -0.000156973)
(-2.69224e-09 1.17705e-08 -0.000167668)
(1.15652e-08 -9.53072e-09 -0.00016797)
(-1.82633e-08 -3.62609e-09 -0.000156349)
(1.614e-08 1.37059e-08 -0.000156719)
(1.10551e-08 -4.73608e-09 -0.000167459)
(-1.42427e-08 1.06507e-08 -0.000167787)
(-7.16072e-09 -9.62845e-09 -0.000156619)
(1.20168e-08 1.21126e-08 -0.000156951)
(-4.4787e-09 1.27286e-08 -0.000167634)
(1.1347e-08 -1.22718e-08 -0.000167936)
(-1.7617e-08 -7.61545e-09 -0.000156333)
(1.30626e-08 1.20756e-08 -0.000156698)
(1.08843e-08 -6.1932e-09 -0.000167425)
(-1.23923e-08 8.45916e-09 -0.000167759)
(-6.63786e-09 -1.04588e-08 -0.000156605)
(1.20355e-08 7.65342e-09 -0.000156929)
(-7.25502e-09 1.07725e-08 -0.000167607)
(1.2594e-08 -7.98547e-09 -0.000167917)
(-1.81531e-08 -6.22526e-09 -0.000156309)
(1.73818e-08 7.05849e-09 -0.000156671)
(9.77373e-09 -6.24118e-09 -0.000167409)
(-1.34555e-08 9.1114e-09 -0.000167738)
(-9.52485e-09 -9.58504e-09 -0.000156578)
(1.11941e-08 1.25355e-08 -0.000156904)
(-3.4921e-09 1.31593e-08 -0.00016759)
(9.48615e-09 -6.31619e-09 -0.000167899)
(-1.22334e-08 -1.8762e-08 -0.000156655)
(-3.05399e-09 1.17508e-08 -0.000156868)
(-6.68917e-09 1.92514e-08 -0.000156792)
(-3.49044e-08 -5.70506e-09 -0.000156455)
(7.18009e-09 1.55869e-08 -0.000156801)
(3.76696e-08 -1.57365e-09 -0.000156473)
(-2.95371e-09 -2.0928e-08 -0.000167745)
(-4.32225e-09 1.64093e-08 -0.000168027)
(6.16065e-09 1.87034e-08 -0.000167879)
(3.68232e-08 3.07799e-09 -0.000167568)
(-4.98668e-09 1.56953e-08 -0.000168025)
(8.44157e-09 -6.94977e-09 -0.000167729)
(-9.43474e-09 1.11805e-08 -0.000156736)
(1.32817e-08 -1.38382e-08 -0.000157099)
(6.72675e-09 2.19922e-08 -0.000157058)
(-1.13448e-08 -9.48121e-09 -0.000156729)
(8.65964e-09 -1.21084e-08 -0.000157096)
(-1.07742e-08 1.30018e-08 -0.000156766)
(2.9104e-09 -2.23958e-08 -0.000156734)
(-9.91327e-09 1.84049e-08 -0.000157066)
(6.38955e-09 1.32245e-08 -0.00015671)
(-1.51638e-08 -1.02953e-08 -0.000157042)
(-5.01849e-09 2.27333e-08 -0.000157057)
(1.22396e-08 -9.02446e-09 -0.000156719)
(-8.13519e-09 -1.33564e-08 -0.000157046)
(1.03661e-08 1.67177e-08 -0.0001567)
(-2.01534e-08 4.25836e-09 -0.000167533)
(9.76858e-09 -1.18051e-08 -0.000167872)
(9.27001e-09 -1.03252e-08 -0.00016806)
(-8.57091e-09 9.94846e-09 -0.000167766)
(1.1117e-08 -9.39873e-09 -0.000167884)
(-1.95205e-08 5.01597e-09 -0.000167545)
(-1.80447e-08 8.99882e-09 -0.000156437)
(1.43998e-08 -1.36519e-08 -0.000156811)
(2.27779e-08 7.15308e-09 -0.000156458)
(-1.0548e-08 -1.42904e-08 -0.000156818)
(1.76896e-08 -8.75043e-09 -0.000156818)
(-2.09002e-08 8.33288e-09 -0.00015644)
(-1.45447e-08 -9.03059e-09 -0.000156831)
(2.28138e-08 6.67073e-09 -0.000156448)
(7.64676e-09 6.25629e-09 -0.000167694)
(-9.84464e-09 -6.13844e-09 -0.000167981)
(1.5228e-08 1.83916e-09 -0.000167557)
(-5.63954e-09 -1.31203e-08 -0.000167875)
(-8.12098e-09 -9.72098e-09 -0.000167984)
(4.51733e-09 1.36349e-08 -0.000167682)
(-9.13804e-09 -9.84098e-09 -0.000167885)
(2.44613e-08 2.46018e-09 -0.000167543)
(-3.13111e-08 4.48735e-09 -0.000167553)
(2.5979e-09 1.54568e-08 -0.000167922)
(-1.1503e-08 -5.73033e-10 -0.00016773)
(8.10572e-09 1.26516e-08 -0.000168051)
(2.03488e-08 3.86437e-09 -0.000167921)
(-1.97637e-08 -4.30252e-09 -0.000167588)
(9.22813e-09 4.79753e-09 -0.000168025)
(-8.64889e-09 -9.89289e-09 -0.000167741)
(4.15291e-08 2.80525e-10 -0.000156438)
(-2.42937e-09 1.68201e-08 -0.000156838)
(2.64151e-08 4.61186e-09 -0.000156841)
(-2.31124e-08 -4.60512e-09 -0.000156462)
(-2.34141e-08 5.9656e-09 -0.000156842)
(2.57193e-08 -5.54809e-09 -0.00015647)
(1.09285e-08 -2.72977e-09 -0.000167732)
(-8.40967e-09 1.57199e-08 -0.000168049)
(-1.60133e-08 4.82375e-09 -0.000167923)
(2.15674e-08 -2.22891e-09 -0.000167582)
(-1.1998e-08 5.29535e-09 -0.000168018)
(1.00618e-08 -9.62182e-09 -0.000167747)
(-6.64333e-09 1.56234e-08 -0.000156771)
(1.2002e-08 -9.4981e-09 -0.000157127)
(9.71144e-09 1.2699e-08 -0.000157061)
(-9.44499e-09 -1.21196e-08 -0.000156739)
(5.4538e-09 -1.30033e-08 -0.00015709)
(-6.08672e-09 1.61329e-08 -0.00015679)
(1.12856e-08 -7.35607e-09 -0.000156725)
(-1.06958e-08 1.41442e-08 -0.000157078)
(8.19733e-09 1.40079e-08 -0.00015672)
(-1.07758e-08 -1.27145e-08 -0.000157069)
(-8.28649e-09 8.18575e-09 -0.000157048)
(8.83019e-09 -1.39926e-08 -0.000156742)
(-5.43748e-09 -1.78637e-08 -0.000157051)
(1.11411e-08 9.94051e-09 -0.000156732)
(-1.51929e-08 4.40938e-09 -0.000167564)
(1.54105e-08 -8.00935e-09 -0.000167931)
(8.77786e-09 -8.60769e-09 -0.000168065)
(-7.89714e-09 1.13541e-08 -0.000167791)
(1.47651e-08 -4.81971e-09 -0.000167898)
(-1.24928e-08 7.72085e-09 -0.000167592)
(-2.14562e-08 4.91807e-09 -0.000156459)
(1.50222e-08 -1.23873e-08 -0.000156864)
(2.45563e-08 6.36858e-09 -0.000156463)
(-1.71908e-08 -1.14599e-08 -0.000156855)
(2.2443e-08 -5.93033e-09 -0.000156833)
(-1.87424e-08 8.82762e-09 -0.000156484)
(-2.32101e-08 -5.28118e-09 -0.000156829)
(1.68174e-08 9.39878e-09 -0.000156476)
(6.05902e-09 1.18288e-08 -0.000167686)
(-9.0428e-09 -1.29977e-08 -0.000168011)
(2.11099e-08 1.45321e-09 -0.00016756)
(-1.75553e-08 -5.88184e-09 -0.000167911)
(-7.38618e-09 -9.53193e-09 -0.000167987)
(8.55959e-09 8.29764e-09 -0.000167699)
(-1.73002e-08 -3.45965e-09 -0.000167891)
(1.11305e-08 7.34905e-09 -0.000167573)
(-4.96765e-09 -1.24647e-08 -0.000167591)
(2.40132e-08 2.05885e-09 -0.000167954)
(-6.11359e-09 -1.46483e-08 -0.000167725)
(1.16212e-08 3.89606e-09 -0.000168058)
(2.0838e-08 2.61002e-09 -0.000167948)
(-2.62083e-09 -1.46752e-08 -0.000167625)
(1.14261e-08 3.47376e-09 -0.000168059)
(-5.63626e-09 -1.6964e-08 -0.000167761)
(8.20145e-09 -1.31012e-08 -0.00015648)
(-2.39324e-08 7.89587e-09 -0.000156892)
(2.26698e-08 6.89285e-09 -0.000156876)
(-9.534e-09 -1.32307e-08 -0.000156508)
(-2.42319e-08 6.10076e-09 -0.00015689)
(1.07931e-08 -1.51267e-08 -0.000156527)
(7.25882e-09 -1.63381e-08 -0.000167721)
(-1.31283e-08 6.20566e-09 -0.000168047)
(-2.21228e-08 1.26171e-09 -0.000167961)
(6.04564e-09 -1.10726e-08 -0.000167646)
(-2.05023e-08 -9.94025e-09 -0.000168038)
(6.2793e-09 -2.14237e-08 -0.000167747)
(-9.99434e-09 1.38166e-08 -0.000156759)
(1.02213e-08 -9.81185e-09 -0.000157121)
(1.27227e-08 5.31606e-09 -0.000157094)
(-7.78495e-09 -2.13311e-08 -0.000156758)
(8.53914e-09 -1.21374e-08 -0.000157112)
(-9.7302e-09 1.46946e-08 -0.000156792)
(7.39477e-09 -1.86746e-08 -0.000156722)
(-1.20824e-08 4.14909e-09 -0.000157081)
(1.14685e-08 1.25009e-08 -0.00015672)
(-8.62545e-09 -1.40246e-08 -0.000157081)
(-1.18696e-08 -5.29826e-10 -0.000157064)
(7.24992e-09 -2.21278e-08 -0.00015675)
(-9.57151e-09 -1.03174e-08 -0.00015707)
(1.33464e-08 1.086e-08 -0.00015675)
(-1.18617e-08 8.2703e-09 -0.000167564)
(1.59325e-08 -5.91796e-09 -0.000167928)
(8.55982e-09 -9.90407e-09 -0.000168086)
(-1.04089e-08 9.16368e-09 -0.000167797)
(9.91394e-09 -8.79682e-09 -0.000167915)
(-1.47497e-08 8.31926e-09 -0.0001676)
(-1.59453e-08 1.00072e-08 -0.000156461)
(1.86673e-08 -9.8277e-09 -0.000156862)
(1.65548e-08 1.03254e-08 -0.00015646)
(-2.07565e-08 -8.60142e-09 -0.000156855)
(1.7329e-08 -6.9315e-09 -0.00015684)
(-1.61806e-08 1.15667e-08 -0.00015649)
(-1.78339e-08 -7.15164e-09 -0.00015684)
(1.52603e-08 1.24824e-08 -0.000156481)
(8.97157e-09 1.06419e-08 -0.00016769)
(-6.34441e-09 -1.35903e-08 -0.000168022)
(1.32095e-08 7.00891e-09 -0.000167562)
(-1.95698e-08 -2.83116e-09 -0.000167921)
(-1.07429e-08 -3.32701e-09 -0.000168017)
(1.09408e-08 8.54163e-09 -0.00016772)
(-1.1692e-08 -6.43283e-09 -0.00016791)
(1.1294e-08 9.05973e-09 -0.000167589)
(-6.14157e-09 -1.04478e-08 -0.000167609)
(1.09576e-08 9.14553e-09 -0.000167924)
(-6.06409e-09 -1.40548e-08 -0.000167749)
(1.40976e-08 8.25036e-10 -0.000168044)
(9.78623e-09 8.18792e-09 -0.000167914)
(-1.71279e-08 -5.9738e-09 -0.000167589)
(7.67605e-09 1.14592e-08 -0.000168047)
(-5.17503e-09 -1.85639e-08 -0.000167739)
(1.18946e-08 -1.08983e-08 -0.000156507)
(-2.11065e-08 8.21922e-09 -0.000156874)
(1.38128e-08 7.78569e-09 -0.000156839)
(-1.96828e-08 -8.58085e-09 -0.000156468)
(-1.99413e-08 5.83605e-09 -0.00015687)
(1.14055e-08 -1.24017e-08 -0.000156501)
(1.03304e-10 -2.86276e-08 -0.00016773)
(-1.58375e-08 1.23737e-09 -0.000168027)
(-1.48015e-08 6.00407e-09 -0.000167945)
(1.09415e-08 -9.74323e-09 -0.000167607)
(-1.25581e-08 2.36593e-09 -0.000168023)
(2.6234e-09 -2.31604e-08 -0.000167731)
(-8.31841e-09 1.63389e-08 -0.000156769)
(1.31637e-08 -8.12666e-09 -0.000157103)
(9.61618e-09 1.39248e-08 -0.000157083)
(-8.82385e-09 -1.79534e-08 -0.000156735)
(8.20815e-09 -1.33392e-08 -0.000157098)
(-9.10658e-09 1.72262e-08 -0.000156766)
(4.44791e-09 -2.56999e-08 -0.000156731)
(-1.42899e-08 9.68166e-10 -0.000157068)
(8.61422e-09 1.90415e-08 -0.000156728)
(-1.08927e-08 -1.16945e-08 -0.000157068)
(-9.4459e-09 6.29302e-09 -0.000157067)
(6.52223e-09 -2.53732e-08 -0.000156733)
(-7.2818e-09 -1.44497e-08 -0.000157064)
(1.25776e-08 1.15755e-08 -0.000156735)
(-1.48995e-08 6.32733e-09 -0.00016758)
(1.35274e-08 -1.00187e-08 -0.000167915)
(8.19941e-09 -8.62599e-09 -0.000168063)
(-6.29525e-09 1.31506e-08 -0.000167769)
(6.32947e-09 -1.13816e-08 -0.000167917)
(-1.75723e-08 6.4513e-09 -0.000167583)
(-1.98191e-08 6.60317e-09 -0.000156466)
(1.29282e-08 -1.11333e-08 -0.000156842)
(2.07517e-08 8.78337e-09 -0.000156459)
(-1.71319e-08 -1.05524e-08 -0.000156831)
(1.41039e-08 -6.89881e-09 -0.00015684)
(-2.04092e-08 7.92398e-09 -0.000156468)
(-2.10792e-08 -6.14458e-09 -0.000156829)
(1.67482e-08 1.06817e-08 -0.000156456)
(3.22115e-09 1.73353e-08 -0.000167713)
(-8.98169e-09 -9.70694e-09 -0.000168013)
(1.61813e-08 5.39116e-09 -0.000167569)
(-1.59414e-08 -6.57935e-09 -0.000167898)
(-7.39557e-09 -9.26447e-09 -0.000168013)
(7.84797e-09 1.12866e-08 -0.000167708)
(-1.06778e-08 -6.86001e-09 -0.000167891)
(1.4524e-08 6.86637e-09 -0.000167561)
(-1.36344e-08 -7.10887e-09 -0.000167577)
(1.20096e-08 8.98966e-09 -0.000167906)
(-8.69681e-09 -9.55335e-09 -0.000167743)
(1.03191e-08 7.87148e-09 -0.000168046)
(1.44931e-08 9.59229e-09 -0.000167877)
(-1.40594e-08 -7.65422e-09 -0.000167562)
(1.06531e-08 7.73836e-09 -0.000168014)
(-6.83391e-09 -1.19887e-08 -0.000167732)
(1.57282e-08 -9.75842e-09 -0.000156494)
(-1.26809e-08 1.09179e-08 -0.000156862)
(1.87066e-08 9.66735e-09 -0.000156805)
(-1.68609e-08 -9.01928e-09 -0.000156448)
(-1.5968e-08 9.50995e-09 -0.000156834)
(2.09899e-08 -7.47227e-09 -0.000156489)
(4.91548e-09 -1.72602e-08 -0.000167724)
(-8.22831e-09 1.3345e-08 -0.000168031)
(-1.80362e-08 6.37288e-09 -0.000167908)
(1.6271e-08 -7.02651e-09 -0.000167591)
(-1.16885e-08 6.69882e-09 -0.000168015)
(8.14443e-09 -9.99023e-09 -0.000167725)
(-9.97146e-09 1.51228e-08 -0.00015676)
(1.35987e-08 -7.58459e-09 -0.000157092)
(1.13368e-08 1.42201e-08 -0.000157051)
(-1.05816e-08 -1.14496e-08 -0.00015672)
(1.23191e-08 -1.01725e-08 -0.000157057)
(-6.84667e-09 1.73777e-08 -0.000156749)
(6.67379e-09 -2.08062e-08 -0.000156736)
(-1.13513e-08 1.18978e-08 -0.000157075)
(9.87345e-09 1.45735e-08 -0.000156728)
(-1.13387e-08 -1.13273e-08 -0.000157062)
(-9.64641e-09 1.43705e-08 -0.000157054)
(1.01792e-08 -1.15805e-08 -0.000156736)
(-1.19862e-08 -1.35882e-08 -0.000157051)
(1.02676e-08 1.35202e-08 -0.000156717)
(-2.02292e-08 4.81269e-09 -0.000167581)
(1.00248e-08 -1.17784e-08 -0.000167915)
(1.15475e-08 -6.95545e-09 -0.000168017)
(-6.17059e-09 1.36911e-08 -0.000167741)
(1.37702e-08 -9.85114e-09 -0.00016789)
(-1.92064e-08 4.79251e-09 -0.000167569)
(-2.41795e-08 6.40086e-09 -0.000156466)
(1.19789e-08 -1.15788e-08 -0.000156841)
(1.87102e-08 9.27369e-09 -0.000156455)
(-1.81166e-08 -1.00353e-08 -0.000156827)
(1.71415e-08 -9.82715e-09 -0.000156817)
(-1.93639e-08 8.56904e-09 -0.000156458)
(-1.75442e-08 -1.05909e-08 -0.000156814)
(1.65995e-08 9.43269e-09 -0.000156449)
(8.00522e-09 1.13138e-08 -0.000167707)
(-7.73427e-09 -1.10687e-08 -0.000168009)
(1.91098e-08 4.59948e-09 -0.000167558)
(-1.36344e-08 -7.15878e-09 -0.000167891)
(-1.0159e-08 -7.69818e-09 -0.000167995)
(7.13385e-09 1.20261e-08 -0.000167695)
(-1.1627e-08 -9.77865e-09 -0.000167882)
(1.67387e-08 6.01934e-09 -0.000167546)
(-9.69326e-09 -7.02995e-09 -0.000167545)
(1.09029e-08 1.14867e-08 -0.000167873)
(-5.54858e-09 -9.36329e-09 -0.000167715)
(1.24252e-08 6.85954e-09 -0.00016801)
(1.3347e-08 1.00336e-08 -0.000167839)
(-1.61682e-08 -5.65671e-09 -0.000167522)
(8.63445e-09 1.27352e-08 -0.000167983)
(-5.57385e-09 -1.15099e-08 -0.000167695)
(1.96171e-08 -6.20396e-09 -0.000156463)
(-1.64722e-08 1.1072e-08 -0.000156833)
(1.90875e-08 1.06602e-08 -0.000156769)
(-1.65904e-08 -7.38018e-09 -0.000156412)
(-2.02763e-08 9.19647e-09 -0.000156799)
(1.41967e-08 -7.7068e-09 -0.000156451)
(6.64161e-09 -8.8106e-09 -0.00016772)
(-8.92129e-09 1.34566e-08 -0.000168023)
(-1.22805e-08 9.52069e-09 -0.00016787)
(1.22585e-08 -7.46115e-09 -0.000167554)
(-1.02168e-08 1.38058e-08 -0.000167992)
(8.43095e-09 -9.76126e-09 -0.000167715)
(-4.35434e-09 1.80836e-08 -0.000156725)
(1.49033e-08 -9.12127e-09 -0.000157063)
(1.24618e-08 1.3911e-08 -0.000157023)
(-6.59099e-09 -1.37715e-08 -0.000156695)
(1.00312e-08 -1.66132e-08 -0.000157028)
(-6.0274e-09 1.42068e-08 -0.000156718)
(7.75192e-09 -1.26462e-08 -0.000156725)
(-1.06521e-08 1.65835e-08 -0.000157067)
(7.32987e-09 1.52606e-08 -0.000156717)
(-1.37704e-08 -1.37293e-08 -0.00015706)
(-9.54029e-09 1.57911e-08 -0.000157029)
(1.09979e-08 -9.60277e-09 -0.000156718)
(-1.18695e-08 -1.5153e-08 -0.000157032)
(9.88327e-09 1.09993e-08 -0.000156715)
(-1.27587e-08 5.28614e-09 -0.00016755)
(1.96979e-08 -9.04373e-09 -0.000167892)
(1.09578e-08 -1.03124e-08 -0.000167984)
(-4.00319e-09 1.50309e-08 -0.000167708)
(1.30432e-08 -1.01118e-08 -0.000167847)
(-1.12968e-08 7.16264e-09 -0.000167545)
(-1.70967e-08 5.69196e-09 -0.000156444)
(1.82491e-08 -1.26628e-08 -0.000156827)
(2.07212e-08 4.60376e-09 -0.000156447)
(-1.80253e-08 -1.26267e-08 -0.00015682)
(1.74985e-08 -1.03571e-08 -0.000156782)
(-1.67476e-08 7.16776e-09 -0.000156443)
(-1.81114e-08 -1.10485e-08 -0.000156789)
(1.51023e-08 7.02297e-09 -0.00015644)
(3.48419e-09 1.31555e-08 -0.000167698)
(-9.08107e-09 -1.14752e-08 -0.00016801)
(1.7619e-08 2.50818e-09 -0.000167548)
(-1.68203e-08 -8.26031e-09 -0.000167884)
(-9.76057e-09 -1.06313e-08 -0.000167985)
(7.28743e-09 1.02367e-08 -0.000167696)
(-1.32874e-08 -1.02621e-08 -0.000167853)
(1.24291e-08 6.32435e-09 -0.000167535)
(-1.24701e-08 -5.06315e-09 -0.000167504)
(1.05589e-08 1.25357e-08 -0.00016785)
(-6.53609e-09 -6.50865e-09 -0.000167684)
(1.12897e-08 8.50944e-09 -0.000167992)
(1.573e-08 9.26342e-09 -0.000167841)
(-1.5988e-08 -5.21226e-09 -0.000167508)
(9.42142e-09 1.13977e-08 -0.000167984)
(-4.87282e-09 -1.33672e-08 -0.000167685)
(1.64809e-08 -7.15919e-09 -0.00015643)
(-1.40782e-08 1.58832e-08 -0.00015682)
(2.15334e-08 9.12949e-09 -0.000156776)
(-1.69682e-08 -7.47936e-09 -0.000156402)
(-1.89148e-08 1.21495e-08 -0.000156802)
(1.79318e-08 -6.48536e-09 -0.000156446)
(7.97586e-09 -7.16369e-09 -0.000167694)
(-1.1544e-08 1.64491e-08 -0.000168018)
(-1.58387e-08 7.09921e-09 -0.00016786)
(1.55025e-08 -2.72406e-09 -0.000167548)
(-1.59746e-08 4.41431e-09 -0.000167993)
(6.35892e-09 -1.11177e-08 -0.000167708)
(-7.83238e-09 1.02558e-08 -0.000156694)
(1.4277e-08 -1.08651e-08 -0.000157044)
(1.16654e-08 1.34529e-08 -0.00015702)
(-7.98814e-09 -1.35988e-08 -0.000156681)
(1.09045e-08 -1.04098e-08 -0.000157023)
(-7.11178e-09 1.27357e-08 -0.000156702)
(6.27112e-09 -1.12659e-08 -0.000156696)
(-1.24056e-08 1.4498e-08 -0.000157048)
(7.24073e-09 1.29229e-08 -0.000156696)
(-1.58145e-08 -1.14263e-08 -0.00015705)
(-1.05542e-08 1.43777e-08 -0.000157018)
(7.81595e-09 -9.96639e-09 -0.000156705)
(-1.31756e-08 -1.15421e-08 -0.000157018)
(6.54645e-09 1.43608e-08 -0.000156711)
(-1.13369e-08 4.75586e-09 -0.000167512)
(1.46849e-08 -9.99621e-09 -0.000167859)
(1.08467e-08 -8.27168e-09 -0.000167981)
(-6.96602e-09 1.11487e-08 -0.000167693)
(1.1801e-08 -9.93585e-09 -0.000167837)
(-1.57354e-08 4.8688e-09 -0.00016752)
(-1.75826e-08 4.44835e-09 -0.000156412)
(2.03991e-08 -1.13694e-08 -0.000156803)
(1.85918e-08 4.60874e-09 -0.000156419)
(-1.52634e-08 -1.4249e-08 -0.000156807)
(1.74132e-08 -1.07323e-08 -0.000156776)
(-1.51442e-08 8.37891e-09 -0.000156424)
(-1.42585e-08 -1.262e-08 -0.000156783)
(2.0211e-08 5.76774e-09 -0.00015643)
(4.46952e-09 1.05055e-08 -0.000167683)
(-1.15839e-08 -1.03772e-08 -0.000168)
(1.63917e-08 1.91047e-09 -0.000167517)
(-9.70606e-09 -1.25322e-08 -0.00016787)
(-1.00718e-08 -1.10322e-08 -0.000167967)
(5.50609e-09 1.0684e-08 -0.000167693)
(-7.62272e-09 -1.21074e-08 -0.000167843)
(2.17093e-08 3.69987e-10 -0.000167527)
(-1.02176e-08 -6.76671e-09 -0.000167504)
(1.47909e-08 9.62925e-09 -0.000167835)
(-7.41125e-09 -7.36099e-09 -0.000167675)
(1.0137e-08 1.0961e-08 -0.000167966)
(1.28697e-08 8.7222e-09 -0.000167841)
(-1.28044e-08 -6.11504e-09 -0.000167501)
(9.519e-09 9.02798e-09 -0.000167965)
(-6.27465e-09 -1.1451e-08 -0.000167655)
(1.77233e-08 -5.92959e-09 -0.00015642)
(-1.55596e-08 1.34245e-08 -0.000156793)
(1.98393e-08 8.32947e-09 -0.000156761)
(-1.52118e-08 -8.30232e-09 -0.000156383)
(-1.83327e-08 7.78338e-09 -0.00015679)
(1.78376e-08 -7.35932e-09 -0.000156417)
(3.25625e-09 -1.41435e-08 -0.000167688)
(-1.38267e-08 1.19936e-08 -0.00016798)
(-1.08195e-08 8.91242e-09 -0.000167862)
(1.73961e-08 -3.93176e-09 -0.000167518)
(-1.18989e-08 7.18553e-09 -0.000167962)
(5.69438e-09 -1.30682e-08 -0.000167678)
(-5.31751e-09 1.93148e-08 -0.000156684)
(1.40865e-08 -8.76546e-09 -0.000157018)
(1.04331e-08 1.36044e-08 -0.000156998)
(-9.15718e-09 -1.1503e-08 -0.000156651)
(8.11535e-09 -1.32139e-08 -0.000157009)
(-6.39025e-09 1.53972e-08 -0.000156682)
(4.55296e-09 -1.39866e-08 -0.000156683)
(-1.44969e-08 9.29881e-09 -0.000157012)
(3.8651e-09 1.63846e-08 -0.00015668)
(-1.47544e-08 -1.5119e-08 -0.000157006)
(-8.01468e-09 1.1264e-08 -0.000156996)
(5.33625e-09 -1.71748e-08 -0.000156674)
(-1.06663e-08 -1.36928e-08 -0.000156988)
(8.35245e-09 1.14104e-08 -0.000156665)
(-1.44674e-08 3.40176e-09 -0.000167501)
(1.47546e-08 -1.05389e-08 -0.000167837)
(1.00217e-08 -8.83313e-09 -0.000167967)
(-6.10469e-09 1.21889e-08 -0.000167667)
(1.07268e-08 -9.95092e-09 -0.000167829)
(-1.53895e-08 4.17579e-09 -0.000167503)
(-1.91512e-08 5.17346e-09 -0.000156402)
(1.41993e-08 -1.43601e-08 -0.000156776)
(2.31233e-08 3.78972e-09 -0.000156406)
(-1.58872e-08 -1.20085e-08 -0.00015678)
(1.90506e-08 -7.57831e-09 -0.000156766)
(-2.1152e-08 5.86165e-09 -0.0001564)
(-1.64917e-08 -8.0218e-09 -0.000156769)
(1.90505e-08 6.04796e-09 -0.000156404)
(5.15309e-09 8.26013e-09 -0.000167661)
(-7.40393e-09 -1.64802e-08 -0.000167949)
(2.08852e-08 -1.36022e-10 -0.000167508)
(-1.59864e-08 -9.18981e-09 -0.000167838)
(-9.55367e-09 -7.11964e-09 -0.000167934)
(7.95558e-09 4.50792e-09 -0.000167644)
(-1.35201e-08 -9.31021e-09 -0.000167828)
(1.41508e-08 5.94074e-09 -0.000167495)
(-1.22831e-08 -6.70778e-09 -0.000167509)
(1.14473e-08 9.49882e-09 -0.000167846)
(-6.99914e-09 -1.05844e-08 -0.000167664)
(1.20166e-08 6.72521e-09 -0.000167972)
(1.1791e-08 7.90419e-09 -0.000167825)
(-1.59582e-08 -6.0301e-09 -0.000167509)
(9.48016e-09 5.84293e-09 -0.000167959)
(-5.69599e-09 -1.37315e-08 -0.000167665)
(1.54599e-08 -8.71752e-09 -0.000156422)
(-1.35849e-08 1.21694e-08 -0.000156799)
(1.45506e-08 8.89804e-09 -0.000156753)
(-1.92154e-08 -7.77799e-09 -0.000156389)
(-2.17676e-08 7.03576e-09 -0.00015678)
(1.91684e-08 -8.97499e-09 -0.000156427)
(7.73742e-09 -1.16774e-08 -0.000167662)
(-1.13197e-08 1.17452e-08 -0.000167971)
(-1.94879e-08 2.46215e-09 -0.000167836)
(1.36711e-08 -6.58259e-09 -0.000167529)
(-1.49478e-08 1.5181e-09 -0.000167949)
(6.69341e-09 -1.40885e-08 -0.000167667)
(-8.48201e-09 1.2704e-08 -0.000156679)
(1.04109e-08 -1.38503e-08 -0.000157022)
(1.20325e-08 6.90783e-09 -0.000156994)
(-7.58966e-09 -1.71831e-08 -0.000156663)
(6.86265e-09 -1.29137e-08 -0.000157007)
(-7.64978e-09 1.18499e-08 -0.000156692)
(7.01767e-09 -1.59832e-08 -0.000156664)
(-1.16405e-08 8.93925e-09 -0.000157008)
(8.64513e-09 1.50022e-08 -0.000156652)
(-1.29425e-08 -1.17076e-08 -0.00015699)
(-8.3338e-09 1.04966e-08 -0.000156984)
(8.09591e-09 -1.61628e-08 -0.000156669)
(-1.10114e-08 -1.26374e-08 -0.000156979)
(1.00166e-08 1.41107e-08 -0.000156651)
(-1.28711e-08 5.89681e-09 -0.000167497)
(1.29e-08 -9.31631e-09 -0.000167836)
(1.15157e-08 -4.7038e-09 -0.000167964)
(-7.00592e-09 1.30235e-08 -0.000167673)
(1.06786e-08 -7.83199e-09 -0.000167808)
(-1.83218e-08 3.72698e-09 -0.0001675)
(-1.79371e-08 7.18255e-09 -0.000156397)
(1.39853e-08 -1.21635e-08 -0.00015678)
(1.9694e-08 5.22409e-09 -0.000156401)
(-1.89905e-08 -9.02782e-09 -0.000156774)
(1.9269e-08 -7.86407e-09 -0.000156756)
(-2.08508e-08 8.39272e-09 -0.000156397)
(-1.96942e-08 -6.26759e-09 -0.000156754)
(1.49286e-08 8.61706e-09 -0.000156398)
(3.17225e-09 1.50471e-08 -0.000167635)
(-9.28032e-09 -9.67527e-09 -0.000167938)
(1.51628e-08 4.78236e-09 -0.000167495)
(-1.99067e-08 -6.18076e-09 -0.000167829)
(-8.57035e-09 -6.62107e-09 -0.00016792)
(5.62249e-09 1.25858e-08 -0.000167627)
(-1.30625e-08 -8.4012e-09 -0.000167812)
(1.16554e-08 8.08501e-09 -0.000167488)
(-1.27458e-08 -7.65473e-09 -0.00016749)
(1.35421e-08 8.18379e-09 -0.000167831)
(-6.85734e-09 -1.16482e-08 -0.000167651)
(9.84245e-09 5.49202e-09 -0.000167966)
(1.26567e-08 7.83353e-09 -0.000167826)
(-1.37957e-08 -8.75063e-09 -0.000167497)
(9.183e-09 7.63469e-09 -0.00016796)
(-7.46239e-09 -1.4364e-08 -0.000167663)
(1.2196e-08 -1.17036e-08 -0.000156398)
(-2.12481e-08 7.60069e-09 -0.000156791)
(1.77526e-08 7.60769e-09 -0.000156756)
(-1.66893e-08 -1.01195e-08 -0.000156382)
(-2.2808e-08 5.6978e-09 -0.000156789)
(1.08846e-08 -1.42839e-08 -0.00015642)
(4.55922e-09 -1.78477e-08 -0.000167651)
(-1.06283e-08 1.04318e-08 -0.000167962)
(-1.51952e-08 6.11745e-09 -0.000167854)
(7.49355e-09 -1.18665e-08 -0.000167514)
(-1.30733e-08 4.06113e-09 -0.000167962)
(9.86755e-09 -1.15505e-08 -0.000167667)
(-1.01382e-08 1.3179e-08 -0.00015667)
(9.59578e-09 -1.21699e-08 -0.000157029)
(9.72352e-09 9.39161e-09 -0.000156999)
(-1.001e-08 -1.66595e-08 -0.000156661)
(8.34958e-09 -1.14459e-08 -0.00015702)
(-9.93418e-09 1.43734e-08 -0.000156699)
(7.21468e-09 -1.68021e-08 -0.000156652)
(-9.86275e-09 1.04065e-08 -0.000157002)
(9.12902e-09 1.78392e-08 -0.000156638)
(-1.25602e-08 -1.03935e-08 -0.000156997)
(-9.02294e-09 8.68895e-09 -0.000156997)
(9.34073e-09 -1.45532e-08 -0.000156671)
(-1.07535e-08 -9.52075e-09 -0.000156993)
(1.09677e-08 1.65955e-08 -0.000156662)
(-1.5164e-08 5.96935e-09 -0.000167472)
(1.62411e-08 -5.66635e-09 -0.000167825)
(8.61665e-09 -8.73075e-09 -0.000167979)
(-1.03928e-08 9.28125e-09 -0.000167683)
(1.53602e-08 -5.97635e-09 -0.000167825)
(-1.25533e-08 9.0401e-09 -0.000167495)
(-1.7483e-08 9.36673e-09 -0.000156378)
(1.99713e-08 -8.30447e-09 -0.000156773)
(1.80452e-08 8.34565e-09 -0.00015638)
(-2.06021e-08 -6.02272e-09 -0.000156763)
(2.19809e-08 -5.69072e-09 -0.000156766)
(-1.39247e-08 1.23645e-08 -0.000156399)
(-2.02774e-08 -4.74534e-09 -0.000156765)
(1.28575e-08 1.18969e-08 -0.000156395)
(3.93003e-09 1.5193e-08 -0.00016762)
(-7.54443e-09 -9.29996e-09 -0.000167938)
(1.76444e-08 5.26536e-09 -0.000167475)
(-1.53614e-08 -7.33519e-09 -0.000167825)
(-9.08782e-09 -5.28828e-09 -0.000167945)
(7.15083e-09 1.20506e-08 -0.00016764)
(-1.30869e-08 -7.0232e-09 -0.000167826)
(1.5885e-08 7.67787e-09 -0.000167487)
(-1.27228e-08 -6.78373e-09 -0.000167494)
(1.30546e-08 9.29318e-09 -0.000167827)
(-7.67139e-09 -9.38774e-09 -0.000167663)
(1.21048e-08 5.78765e-09 -0.000167971)
(1.71859e-08 5.12653e-09 -0.000167818)
(-1.33591e-08 -6.36816e-09 -0.000167485)
(8.6773e-09 9.07107e-09 -0.000167955)