/*--------------------------------*- C++ -*----------------------------------*\
| =========                 |                                                 |
| \\      /  F ield         | OpenFOAM: The Open Source CFD Toolbox           |
|  \\    /   O peration     | Version:  2206                                  |
|   \\  /    A nd           | Website:  www.openfoam.com                      |
|    \\/     M anipulation  |                                                 |
\*---------------------------------------------------------------------------*/
FoamFile
{
    version     2.0;
    format      ascii;
    arch        "LSB;label=32;scalar=64";
    class       volScalarField;
    location    "149";
    object      k;
}
// * * * * * * * * * * * * * * * * * * * * * * * * * * * * * * * * * * * * * //

dimensions      [0 2 -2 0 0 0 0];

internalField   nonuniform List<scalar> 
67442
(
0.00010286
0.000127385
0.000127293
0.000125722
0.000125794
0.000126446
0.000126959
0.000126258
0.000126802
0.000127642
0.000126866
0.000126955
0.000126007
3.45821e-05
8.87618e-05
2.20921e-05
3.4347e-05
8.8192e-05
0.000103403
0.00010328
0.000102742
8.96767e-05
0.000118489
0.00011912
2.21049e-05
0.000116944
9.02458e-05
0.000119427
5.22564e-05
5.24397e-05
2.19546e-05
2.18878e-05
5.27443e-05
5.22921e-05
3.47987e-05
8.8916e-05
8.99282e-05
0.000115792
0.000119052
9.0375e-05
0.000116565
0.000119186
5.29757e-05
5.24451e-05
2.19402e-05
8.94895e-05
0.000117925
0.000118676
3.46647e-05
8.83269e-05
0.000118509
9.02083e-05
0.000118812
3.44626e-05
8.85955e-05
0.000118151
8.93971e-05
0.000118928
3.43702e-05
8.84964e-05
5.28201e-05
5.29598e-05
2.20385e-05
0.00011663
8.98001e-05
0.000119274
3.46763e-05
8.91138e-05
3.45457e-05
8.9043e-05
2.18449e-05
2.18693e-05
2.06559e-05
3.45462e-05
5.12655e-05
5.12211e-05
2.06694e-05
2.76867e-05
8.87167e-05
3.04056e-05
8.08294e-05
3.03781e-05
8.07856e-05
2.77108e-05
2.2062e-05
2.77481e-05
8.82133e-05
8.02701e-05
3.04257e-05
2.06316e-05
3.42742e-05
5.07305e-05
5.06239e-05
2.06756e-05
2.06825e-05
3.43609e-05
5.07457e-05
2.76718e-05
8.8031e-05
8.02471e-05
3.04178e-05
8.01249e-05
3.03419e-05
2.77399e-05
2.20566e-05
2.21056e-05
8.53882e-05
0.000106695
5.21393e-05
3.41678e-05
0.00010651
3.40915e-05
8.55802e-05
8.44492e-05
0.000106189
5.23516e-05
3.38925e-05
0.000106061
3.38322e-05
8.46229e-05
4.14237e-05
2.02221e-05
2.01862e-05
2.01803e-05
2.01486e-05
4.1535e-05
2.19275e-05
2.18441e-05
2.18974e-05
8.58694e-05
0.00010714
5.26604e-05
3.44067e-05
3.43542e-05
0.000107042
8.59731e-05
8.47706e-05
0.000106391
5.21941e-05
3.39688e-05
3.39041e-05
0.000106244
8.48688e-05
4.16439e-05
2.0334e-05
2.02926e-05
2.03003e-05
2.02546e-05
4.17281e-05
2.07731e-05
3.47503e-05
5.15551e-05
5.1495e-05
2.07912e-05
2.77997e-05
8.88604e-05
3.04645e-05
8.11527e-05
3.04299e-05
8.10608e-05
2.78354e-05
8.5362e-05
0.000107361
5.2906e-05
3.42907e-05
3.42486e-05
0.000107265
8.54974e-05
8.59877e-05
0.000106854
5.23515e-05
3.43975e-05
0.000106788
3.43085e-05
8.60705e-05
4.18104e-05
2.04102e-05
2.04007e-05
2.03767e-05
2.03624e-05
4.18918e-05
2.18986e-05
2.78838e-05
8.83421e-05
3.0479e-05
8.06689e-05
2.07821e-05
3.45893e-05
5.11227e-05
5.10091e-05
2.08283e-05
2.08319e-05
3.46671e-05
5.11308e-05
2.7808e-05
8.82061e-05
3.04718e-05
8.06541e-05
3.03963e-05
8.04933e-05
2.78779e-05
2.0742e-05
3.43911e-05
5.09652e-05
5.08568e-05
2.07875e-05
2.78463e-05
8.84503e-05
8.07083e-05
3.0583e-05
8.05811e-05
3.05012e-05
2.79183e-05
2.06777e-05
3.42876e-05
5.08435e-05
5.07225e-05
2.07283e-05
2.77731e-05
8.83327e-05
3.05509e-05
8.05081e-05
3.04676e-05
8.03291e-05
2.78499e-05
8.5701e-05
0.000107635
5.27163e-05
3.43351e-05
3.42656e-05
0.000107535
8.58768e-05
8.63739e-05
0.000107469
5.28689e-05
3.46428e-05
0.000107409
3.45684e-05
8.64643e-05
4.19903e-05
2.04881e-05
2.05097e-05
2.04487e-05
2.04638e-05
4.20875e-05
2.20071e-05
2.07278e-05
3.46222e-05
5.14345e-05
5.13689e-05
2.07416e-05
2.78058e-05
8.90636e-05
8.11902e-05
3.05219e-05
8.11254e-05
3.04913e-05
2.78381e-05
2.07002e-05
3.44894e-05
5.13417e-05
5.12721e-05
2.07159e-05
2.77896e-05
8.8949e-05
8.10975e-05
3.05227e-05
8.10404e-05
3.04889e-05
2.78254e-05
2.17938e-05
2.18398e-05
8.62606e-05
8.77251e-05
6.84335e-05
0.000111908
0.000124821
0.000124078
0.000125776
0.000124853
0.000124105
0.000112024
0.000112276
0.00012496
0.000124246
0.000125976
0.00012495
0.000124263
0.000112338
0.00011271
0.000125253
0.000124693
0.000126327
0.000124678
0.00012541
0.000112764
0.000113196
0.000125998
0.000125339
0.000127029
0.000125391
0.000126003
0.000113326
8.65775e-05
8.83611e-05
6.85253e-05
8.79589e-05
8.6869e-05
6.83407e-05
8.79325e-05
8.6648e-05
6.84065e-05
0.000122986
0.00011829
8.95319e-05
0.000106069
0.000118234
0.000105909
0.000122986
0.000125747
0.000119054
0.000115467
0.000125963
0.000115404
0.000126
0.000125709
0.000123479
0.000119009
9.01326e-05
0.000106623
0.000119023
0.000106593
0.00012347
0.000125489
0.000119335
0.000125206
0.000115825
0.000125162
0.000115752
0.000125466
0.000122532
0.000118198
8.98808e-05
0.000106195
0.000106162
0.000118185
0.000122385
0.000124595
0.000118997
0.000115268
0.000124523
0.000115239
0.00012477
0.000124525
0.000123107
0.000118645
9.03155e-05
0.000106661
0.0001066
0.000118616
0.000123021
0.00012504
0.000119148
0.000115757
0.000124903
0.000115693
0.00012499
0.000125101
0.000122552
0.000117961
8.93065e-05
0.000105695
0.000105529
0.000117909
0.00012249
0.000125141
0.000118568
0.000114909
0.000125504
0.000114796
0.000125588
0.00012511
0.000123415
0.000118802
9.00265e-05
0.000106414
0.000106257
0.000118762
0.00012333
0.000125717
0.00011872
0.000125575
0.000115446
0.000125661
0.000115323
0.000125679
0.000122704
0.000117929
8.92744e-05
0.000105784
0.000117927
0.000105681
0.00012266
0.000125395
0.000118811
0.000125778
0.000115081
0.000125811
0.000114957
0.000125364
0.000122781
0.000117934
8.96733e-05
0.000106277
0.000117861
0.000106224
0.000122771
0.000125009
0.000119345
0.000124941
0.000115583
0.000125155
0.000115577
0.000124997
6.39516e-06
1.48785e-06
2.58319e-07
5.45359e-08
2.41243e-07
6.40397e-06
1.53426e-06
2.7397e-07
6.11308e-08
2.72318e-07
6.42911e-06
1.49594e-06
2.59672e-07
5.47565e-08
2.42213e-07
6.45671e-06
1.54672e-06
2.76068e-07
6.14107e-08
2.73284e-07
6.36493e-06
1.52532e-06
2.72555e-07
6.10425e-08
2.72236e-07
6.39353e-06
1.53217e-06
2.73717e-07
6.12076e-08
2.72901e-07
6.43476e-06
1.49656e-06
2.59595e-07
5.46006e-08
2.41406e-07
6.41007e-06
1.53621e-06
2.74415e-07
6.13065e-08
2.732e-07
6.48798e-06
1.50882e-06
2.61576e-07
5.48531e-08
2.42479e-07
6.45143e-06
1.50094e-06
2.60442e-07
5.48203e-08
2.42444e-07
6.43329e-06
1.49664e-06
2.59767e-07
5.47649e-08
2.42206e-07
6.3893e-06
1.53084e-06
2.7342e-07
6.11016e-08
2.72294e-07
6.4116e-06
1.49136e-06
2.58814e-07
5.45526e-08
2.41265e-07
6.38862e-06
1.48637e-06
2.58079e-07
5.44909e-08
2.41046e-07
6.3796e-06
1.52872e-06
2.73133e-07
6.11546e-08
2.72764e-07
6.3372e-06
1.51857e-06
2.71388e-07
6.08843e-08
2.71783e-07
6.462e-06
1.5465e-06
2.75809e-07
6.12493e-08
2.72368e-07
6.39351e-06
1.48785e-06
2.58317e-07
5.45063e-08
2.41086e-07
6.39914e-06
1.53341e-06
2.73813e-07
6.10536e-08
2.71894e-07
6.34443e-06
1.4946e-06
2.62628e-07
5.67856e-08
2.51528e-07
6.56285e-06
1.55139e-06
2.72975e-07
5.84651e-08
2.58614e-07
6.52284e-06
1.56097e-06
2.7814e-07
6.14192e-08
2.72691e-07
6.42162e-06
1.49452e-06
2.5934e-07
5.45695e-08
2.41306e-07
6.43167e-06
1.49649e-06
2.59747e-07
5.47559e-08
2.4222e-07
6.44743e-06
1.54479e-06
2.75671e-07
6.12079e-08
2.72184e-07
6.45682e-06
1.54671e-06
2.76063e-07
6.14057e-08
2.73253e-07
6.54395e-06
1.52094e-06
2.63616e-07
5.52123e-08
2.43953e-07
6.53492e-06
1.5192e-06
2.63266e-07
5.50455e-08
2.43097e-07
6.48085e-06
1.5071e-06
2.61508e-07
5.50274e-08
2.43309e-07
6.4751e-06
1.50613e-06
2.61312e-07
5.49262e-08
2.42812e-07
6.15152e-06
1.46984e-06
2.62411e-07
5.96031e-08
2.67703e-07
6.1293e-06
1.46462e-06
2.61533e-07
5.95028e-08
2.67478e-07
6.14316e-06
1.46821e-06
2.62104e-07
5.94464e-08
2.66779e-07
6.12216e-06
1.46328e-06
2.61284e-07
5.9372e-08
2.66698e-07
6.36103e-06
1.52467e-06
2.7243e-07
6.09671e-08
2.71802e-07
6.38562e-06
1.53057e-06
2.73381e-07
6.10158e-08
2.71825e-07
6.39633e-06
1.5328e-06
2.73817e-07
6.12127e-08
2.72899e-07
6.43143e-06
1.49616e-06
2.59536e-07
5.45714e-08
2.4126e-07
6.58736e-06
1.5309e-06
2.65207e-07
5.53425e-08
2.44324e-07
6.57968e-06
1.52961e-06
2.6495e-07
5.51998e-08
2.43539e-07
6.20858e-06
1.48355e-06
2.64736e-07
5.98496e-08
2.68218e-07
6.20131e-06
1.48216e-06
2.64465e-07
5.9701e-08
2.6735e-07
6.40253e-06
1.53469e-06
2.74092e-07
6.11175e-08
2.72143e-07
6.37462e-06
1.50122e-06
2.63613e-07
5.68389e-08
2.51706e-07
6.5741e-06
1.55387e-06
2.73335e-07
5.84799e-08
2.58673e-07
6.5715e-06
1.57203e-06
2.79872e-07
6.15293e-08
2.72915e-07
6.47973e-06
1.50724e-06
2.61236e-07
5.46737e-08
2.41564e-07
6.48849e-06
1.50892e-06
2.61588e-07
5.4851e-08
2.42468e-07
6.44404e-06
1.49955e-06
2.60122e-07
5.46387e-08
2.41545e-07
6.5359e-06
1.56377e-06
2.78562e-07
6.14478e-08
2.72712e-07
6.42385e-06
1.49481e-06
2.59381e-07
5.45788e-08
2.41302e-07
6.60065e-06
1.5334e-06
2.65516e-07
5.5318e-08
2.43999e-07
6.59281e-06
1.53205e-06
2.65292e-07
5.5244e-08
2.43614e-07
6.22937e-06
1.48817e-06
2.65456e-07
5.99045e-08
2.68187e-07
6.38401e-06
1.52989e-06
2.7325e-07
6.10266e-08
2.71885e-07
6.48333e-06
1.55135e-06
2.76571e-07
6.1295e-08
2.72405e-07
6.40885e-06
1.49121e-06
2.58795e-07
5.4525e-08
2.4113e-07
6.47507e-06
1.54959e-06
2.76297e-07
6.12664e-08
2.72337e-07
6.38582e-06
1.48621e-06
2.58058e-07
5.44632e-08
2.40911e-07
6.36962e-06
1.52669e-06
2.72735e-07
6.09629e-08
2.71703e-07
6.33276e-06
1.51784e-06
2.71255e-07
6.08105e-08
2.71361e-07
6.4997e-06
1.55534e-06
2.77225e-07
6.13721e-08
2.72648e-07
6.55684e-06
1.56877e-06
2.79386e-07
6.15225e-08
2.72962e-07
6.24118e-06
1.47129e-06
2.58934e-07
5.63442e-08
2.49756e-07
6.45426e-06
1.52649e-06
2.69044e-07
5.80239e-08
2.56777e-07
6.45261e-06
1.52647e-06
2.69039e-07
5.79933e-08
2.56616e-07
6.24314e-06
1.47149e-06
2.58969e-07
5.63698e-08
2.49887e-07
6.46269e-06
1.54635e-06
2.75773e-07
6.12564e-08
2.72427e-07
6.55948e-06
1.52478e-06
2.64242e-07
5.52457e-08
2.43998e-07
6.55348e-06
1.52363e-06
2.6401e-07
5.5133e-08
2.43404e-07
6.19918e-06
1.48128e-06
2.64361e-07
5.98194e-08
2.68146e-07
6.19246e-06
1.47996e-06
2.64101e-07
5.9675e-08
2.67298e-07
6.53139e-06
1.56267e-06
2.7851e-07
6.163e-08
2.73814e-07
6.33204e-06
1.49194e-06
2.6206e-07
5.65269e-08
2.50287e-07
6.56085e-06
1.55092e-06
2.72908e-07
5.84638e-08
2.58609e-07
6.54988e-06
1.54856e-06
2.72358e-07
5.81786e-08
2.57267e-07
6.34266e-06
1.49422e-06
2.62574e-07
5.67839e-08
2.51521e-07
6.53372e-06
1.56322e-06
2.78598e-07
6.16339e-08
2.73819e-07
6.59674e-06
1.53308e-06
2.65549e-07
5.53868e-08
2.44455e-07
6.58857e-06
1.53148e-06
2.65219e-07
5.52075e-08
2.43462e-07
6.23392e-06
1.48907e-06
2.65613e-07
5.99352e-08
2.68355e-07
6.2261e-06
1.48753e-06
2.65303e-07
5.97567e-08
2.67308e-07
6.55946e-06
1.52441e-06
2.64153e-07
5.52233e-08
2.43884e-07
6.55455e-06
1.5236e-06
2.63987e-07
5.5128e-08
2.43373e-07
6.17445e-06
1.47536e-06
2.63349e-07
5.96847e-08
2.67818e-07
6.16816e-06
1.47419e-06
2.63124e-07
5.95552e-08
2.67045e-07
6.52747e-06
1.51789e-06
2.63242e-07
5.52144e-08
2.44066e-07
6.52022e-06
1.51648e-06
2.62929e-07
5.50433e-08
2.43193e-07
6.17552e-06
1.47567e-06
2.63432e-07
5.97264e-08
2.68042e-07
6.16816e-06
1.47424e-06
2.63154e-07
5.95668e-08
2.67091e-07
6.26737e-06
1.4773e-06
2.59861e-07
5.64232e-08
2.49994e-07
6.46672e-06
1.52946e-06
2.69513e-07
5.80703e-08
2.5692e-07
6.46427e-06
1.5292e-06
2.69465e-07
5.80344e-08
2.5675e-07
6.27067e-06
1.47778e-06
2.59942e-07
5.64529e-08
2.50129e-07
6.50193e-06
1.55552e-06
2.77241e-07
6.13842e-08
2.72714e-07
6.36247e-06
1.49862e-06
2.6305e-07
5.65775e-08
2.50464e-07
6.57228e-06
1.55345e-06
2.73277e-07
5.84791e-08
2.58671e-07
6.56126e-06
1.55107e-06
2.72721e-07
5.81929e-08
2.57324e-07
6.37341e-06
1.50098e-06
2.63582e-07
5.68382e-08
2.51704e-07
6.58074e-06
1.57391e-06
2.8028e-07
6.17479e-08
2.74052e-07
6.58188e-06
1.57417e-06
2.8032e-07
6.17484e-08
2.74047e-07
6.56591e-06
1.57061e-06
2.79779e-07
6.17328e-08
2.74063e-07
6.37099e-06
1.50047e-06
2.63335e-07
5.65955e-08
2.50517e-07
6.59603e-06
1.5586e-06
2.74062e-07
5.85171e-08
2.58796e-07
6.58343e-06
1.55586e-06
2.73456e-07
5.82336e-08
2.57464e-07
6.38265e-06
1.50301e-06
2.63891e-07
5.68529e-08
2.51739e-07
6.35506e-06
1.49688e-06
2.62774e-07
5.65574e-08
2.50366e-07
6.58934e-06
1.55713e-06
2.73822e-07
5.85018e-08
2.58726e-07
6.57641e-06
1.55431e-06
2.73202e-07
5.8216e-08
2.57384e-07
6.36765e-06
1.49963e-06
2.6336e-07
5.68162e-08
2.51598e-07
6.54663e-06
1.566e-06
2.79018e-07
6.16635e-08
2.73839e-07
6.21938e-06
1.48614e-06
2.65098e-07
5.97791e-08
2.67516e-07
6.48391e-06
1.55117e-06
2.76531e-07
6.13008e-08
2.72454e-07
6.26834e-06
1.47732e-06
2.59838e-07
5.639e-08
2.49857e-07
6.47828e-06
1.53188e-06
2.69846e-07
5.80604e-08
2.56864e-07
6.47676e-06
1.53182e-06
2.69823e-07
5.80228e-08
2.56698e-07
6.27041e-06
1.47754e-06
2.59882e-07
5.64201e-08
2.49988e-07
6.47609e-06
1.5495e-06
2.76269e-07
6.12729e-08
2.72388e-07
6.26542e-06
1.4768e-06
2.59761e-07
5.63929e-08
2.49866e-07
6.47858e-06
1.53194e-06
2.69854e-07
5.80614e-08
2.5687e-07
6.47629e-06
1.53175e-06
2.69822e-07
5.8034e-08
2.56734e-07
6.2683e-06
1.47717e-06
2.59824e-07
5.6417e-08
2.4998e-07
0.000127625
0.000126996
0.000127206
0.000103326
8.80097e-05
0.000117877
0.000118561
3.45867e-05
8.81865e-05
0.000118383
9.00091e-05
0.000118724
2.20562e-05
5.27098e-05
2.7734e-05
8.81738e-05
8.0117e-05
3.03343e-05
8.02381e-05
3.04106e-05
2.76646e-05
2.08255e-05
3.46633e-05
5.10024e-05
5.11237e-05
2.07788e-05
2.7872e-05
8.83084e-05
3.03887e-05
8.04771e-05
3.04642e-05
8.06416e-05
2.78016e-05
2.2104e-05
8.59977e-05
0.000107541
5.28232e-05
3.42583e-05
0.000107674
3.43223e-05
8.57767e-05
8.64292e-05
0.000107408
0.000107479
8.63256e-05
4.21087e-05
2.04449e-05
2.04815e-05
4.19989e-05
0.000113327
0.00012695
0.000126099
0.000125351
0.000126061
0.000125325
0.000113194
8.77734e-05
6.83483e-05
8.74958e-05
8.67572e-05
6.83868e-05
0.000125104
0.000118623
0.000114767
0.000125538
0.000114897
0.000125312
0.000125145
0.000123304
0.000118762
9.01979e-05
0.000106229
0.000106397
0.000118815
0.000123288
0.000125655
0.000118837
0.000125665
0.000115291
0.000125584
0.000115418
0.000125699
0.00012344
0.00011903
0.000118942
0.000123481
0.000125947
0.000126443
0.000126765
0.000102873
2.19254e-05
2.1836e-05
5.26535e-05
5.21757e-05
3.45422e-05
8.87089e-05
8.98628e-05
0.000115762
0.000118952
3.42632e-05
8.92748e-05
2.1952e-05
2.18808e-05
8.5975e-05
0.000106998
5.27388e-05
3.43534e-05
3.44055e-05
0.000107108
8.58785e-05
8.48492e-05
0.000106205
5.22796e-05
3.38945e-05
3.39612e-05
0.000106305
8.47432e-05
4.17263e-05
2.02983e-05
2.02505e-05
2.03329e-05
2.02893e-05
4.16389e-05
2.06647e-05
3.45775e-05
5.12076e-05
5.1256e-05
2.06519e-05
2.77077e-05
8.87574e-05
3.0376e-05
8.07313e-05
3.0404e-05
8.08061e-05
2.76821e-05
2.067e-05
3.43373e-05
5.06127e-05
5.07211e-05
2.06254e-05
0.000112293
0.000125894
0.000124981
0.000124241
0.000124827
0.000124273
0.000112238
8.62785e-05
0.000122396
0.00011812
8.9916e-05
0.000106128
0.000118138
0.000106167
0.000122422
0.000124506
0.000118994
0.000115243
0.000124681
0.000115288
0.000124647
0.00012438
0.000122561
0.0001179
8.94707e-05
0.000105522
0.000117958
0.000105679
0.000122586
6.47931e-06
1.50716e-06
2.61226e-07
5.46749e-08
2.41572e-07
6.4474e-06
1.54481e-06
2.75677e-07
6.12108e-08
2.72202e-07
6.57979e-06
1.57368e-06
2.80244e-07
6.17455e-08
2.74043e-07
6.4876e-06
1.50872e-06
2.61559e-07
5.48519e-08
2.42477e-07
6.45666e-06
1.54673e-06
2.76073e-07
6.14146e-08
2.73309e-07
6.34122e-06
1.4939e-06
2.62527e-07
5.67816e-08
2.51502e-07
6.54801e-06
1.54812e-06
2.72291e-07
5.8177e-08
2.57256e-07
6.5597e-06
1.55072e-06
2.72885e-07
5.84627e-08
2.5859e-07
6.33058e-06
1.49164e-06
2.62018e-07
5.65248e-08
2.50274e-07
6.372e-06
1.50068e-06
2.63541e-07
5.68369e-08
2.51689e-07
6.55943e-06
1.55064e-06
2.72658e-07
5.81917e-08
2.57315e-07
6.57111e-06
1.55326e-06
2.73257e-07
5.84787e-08
2.58655e-07
6.36124e-06
1.49839e-06
2.63023e-07
5.65769e-08
2.50457e-07
6.57052e-06
1.57181e-06
2.79839e-07
6.15272e-08
2.7291e-07
6.5873e-06
1.53125e-06
2.65191e-07
5.52134e-08
2.43508e-07
6.59504e-06
1.53289e-06
2.65533e-07
5.539e-08
2.4448e-07
6.2253e-06
1.48739e-06
2.65289e-07
5.9765e-08
2.67369e-07
6.23384e-06
1.48926e-06
2.65661e-07
5.99512e-08
2.68437e-07
6.36061e-06
1.5246e-06
2.7242e-07
6.09667e-08
2.71807e-07
6.38322e-06
1.53002e-06
2.73292e-07
6.10083e-08
2.71808e-07
6.3929e-06
1.48769e-06
2.58288e-07
5.45024e-08
2.41083e-07
6.41948e-06
1.49404e-06
2.5927e-07
5.45671e-08
2.41292e-07
6.36438e-06
1.52521e-06
2.72538e-07
6.10385e-08
2.7222e-07
6.39136e-06
1.53161e-06
2.7362e-07
6.11978e-08
2.72875e-07
6.46143e-06
1.54611e-06
2.75739e-07
6.12513e-08
2.72411e-07
6.39454e-06
1.48775e-06
2.58305e-07
5.453e-08
2.41231e-07
6.42717e-06
1.49548e-06
2.59598e-07
5.47504e-08
2.42184e-07
6.16766e-06
1.47407e-06
2.63102e-07
5.95536e-08
2.67047e-07
6.16698e-06
1.47396e-06
2.63105e-07
5.95619e-08
2.67083e-07
6.52945e-06
1.5622e-06
2.78433e-07
6.16236e-08
2.73791e-07
6.52086e-06
1.5605e-06
2.78066e-07
6.14135e-08
2.72672e-07
6.55444e-06
1.52357e-06
2.63981e-07
5.51264e-08
2.43368e-07
6.55926e-06
1.52437e-06
2.64143e-07
5.52194e-08
2.4387e-07
6.51843e-06
1.51608e-06
2.6287e-07
5.50403e-08
2.43185e-07
6.52584e-06
1.51749e-06
2.63175e-07
5.52075e-08
2.44037e-07
6.17457e-06
1.47543e-06
2.63389e-07
5.97208e-08
2.68026e-07
6.17412e-06
1.47527e-06
2.63332e-07
5.96809e-08
2.678e-07
6.24266e-06
1.47142e-06
2.58963e-07
5.63693e-08
2.4988e-07
6.45196e-06
1.52623e-06
2.69e-07
5.7993e-08
2.56621e-07
6.45476e-06
1.52672e-06
2.69091e-07
5.80261e-08
2.56771e-07
6.24093e-06
1.47133e-06
2.58947e-07
5.63448e-08
2.49753e-07
6.46115e-06
1.54637e-06
2.75794e-07
6.12471e-08
2.72364e-07
0.000125976
0.000103349
0.000127918
0.000127202
0.000125897
0.000125872
0.000126173
0.000126938
0.000127309
0.000126593
0.0001274
0.000128271
0.00012726
0.000126693
0.000126587
5.25137e-05
5.27087e-05
0.00012592
5.23892e-05
5.26603e-05
8.78049e-05
3.46039e-05
8.89982e-05
2.20458e-05
2.19422e-05
3.43776e-05
8.81694e-05
0.000103358
0.000103669
0.000103092
8.98999e-05
0.000119254
0.000127571
0.000119021
2.20683e-05
0.000117262
8.99872e-05
0.000119249
5.24856e-05
5.27379e-05
2.19537e-05
2.19158e-05
2.19763e-05
2.19661e-05
0.000125939
5.24059e-05
5.26588e-05
5.2507e-05
5.27284e-05
2.1918e-05
2.19481e-05
2.19687e-05
2.19841e-05
2.19684e-05
2.19197e-05
5.28211e-05
5.24241e-05
8.78722e-05
3.47629e-05
3.43836e-05
8.90709e-05
0.000118429
9.00193e-05
0.00011597
0.000116842
0.000119269
0.000118505
9.03108e-05
0.00011651
0.000127229
8.97653e-05
0.000117042
0.000119362
5.28756e-05
5.26167e-05
0.000126325
5.26051e-05
2.20041e-05
8.95624e-05
0.000118716
0.00011853
3.46531e-05
8.83403e-05
0.000119099
9.01175e-05
0.00011869
3.45628e-05
8.85131e-05
0.000118671
8.96937e-05
0.000118992
3.44912e-05
8.85163e-05
5.27637e-05
5.27758e-05
2.1964e-05
0.000117129
9.01311e-05
0.00011925
3.45911e-05
8.89325e-05
3.46475e-05
8.89779e-05
2.19401e-05
2.19819e-05
4.18574e-05
2.03457e-05
2.03224e-05
2.03762e-05
2.0349e-05
4.1753e-05
8.59142e-05
0.000107122
3.43867e-05
5.23875e-05
3.43192e-05
8.61027e-05
0.000106952
8.50431e-05
0.000106687
3.41241e-05
5.26374e-05
3.40775e-05
8.51454e-05
0.000106567
4.17483e-05
2.03781e-05
2.03489e-05
2.03464e-05
2.03213e-05
4.18546e-05
8.60938e-05
3.43195e-05
5.25109e-05
0.00010699
3.43831e-05
8.5958e-05
0.00010714
8.51952e-05
3.40843e-05
5.27185e-05
0.000106607
3.4132e-05
8.50411e-05
0.000106729
2.73964e-05
2.98788e-05
7.99163e-05
8.81148e-05
3.00222e-05
8.02062e-05
2.72793e-05
2.06809e-05
3.462e-05
5.13848e-05
5.12317e-05
2.0704e-05
2.05562e-05
3.43741e-05
5.08322e-05
2.76065e-05
8.86905e-05
3.04549e-05
8.10527e-05
3.02603e-05
8.07995e-05
2.77723e-05
2.20747e-05
2.19989e-05
2.06566e-05
3.43209e-05
5.07735e-05
5.06865e-05
2.06793e-05
2.76954e-05
8.80476e-05
8.02695e-05
3.04248e-05
8.01458e-05
3.03683e-05
2.77469e-05
2.20415e-05
8.59291e-05
0.000107091
3.43607e-05
5.24033e-05
8.60238e-05
0.000107007
3.4312e-05
8.50379e-05
0.000106724
3.41244e-05
5.2669e-05
8.5127e-05
0.000106632
3.4079e-05
4.17385e-05
2.03574e-05
2.03325e-05
4.18106e-05
2.03358e-05
2.03111e-05
2.19147e-05
2.19513e-05
2.19585e-05
2.19816e-05
4.17538e-05
2.0371e-05
2.03453e-05
4.18346e-05
2.03433e-05
2.03212e-05
8.60436e-05
0.000107014
3.4317e-05
5.24898e-05
8.5942e-05
3.43682e-05
0.000107106
8.51422e-05
0.00010663
3.40898e-05
5.2755e-05
8.50569e-05
3.41329e-05
0.000106757
4.18251e-05
2.03408e-05
2.03182e-05
4.17476e-05
2.03652e-05
2.03406e-05
8.59524e-05
3.4376e-05
0.000107091
5.23994e-05
8.60593e-05
3.43177e-05
0.000107003
8.50648e-05
3.41313e-05
0.00010675
5.2659e-05
8.51537e-05
3.40904e-05
0.000106623
2.1945e-05
2.19165e-05
2.19859e-05
2.19685e-05
2.19927e-05
2.1918e-05
2.18941e-05
8.61166e-05
0.000107386
5.27668e-05
3.44719e-05
3.44298e-05
0.00010729
8.62079e-05
8.49971e-05
0.000106655
5.23377e-05
3.40502e-05
3.39981e-05
0.00010658
8.50966e-05
5.27586e-05
0.000107352
4.1754e-05
2.03738e-05
2.03352e-05
2.03482e-05
2.03087e-05
4.18326e-05
2.7491e-05
2.99092e-05
8.0167e-05
8.81882e-05
3.00531e-05
8.0465e-05
2.73722e-05
2.07859e-05
3.47841e-05
5.16297e-05
5.14811e-05
2.08085e-05
2.06626e-05
5.08412e-05
3.4546e-05
5.10921e-05
2.06265e-05
2.76981e-05
8.8767e-05
3.04857e-05
8.12932e-05
3.02906e-05
8.10438e-05
2.78646e-05
4.19175e-05
2.03767e-05
2.0403e-05
2.03936e-05
8.52581e-05
0.000107269
5.28431e-05
3.42079e-05
3.41775e-05
0.000107196
8.53883e-05
8.60918e-05
0.00010714
5.25427e-05
3.44796e-05
0.000107031
3.44153e-05
8.6159e-05
8.5397e-05
3.42023e-05
5.28532e-05
0.000107163
3.4367e-05
0.000107293
8.54369e-05
8.62622e-05
5.26076e-05
0.000107112
3.43542e-05
4.17965e-05
2.03742e-05
2.04119e-05
2.03529e-05
2.03874e-05
4.18842e-05
2.19823e-05
2.20024e-05
2.08016e-05
3.45719e-05
5.11157e-05
5.10236e-05
2.08218e-05
2.7835e-05
8.81604e-05
3.049e-05
8.06841e-05
3.04165e-05
8.05079e-05
2.78944e-05
2.78897e-05
8.84065e-05
8.06186e-05
3.05427e-05
2.07885e-05
3.45059e-05
5.10789e-05
5.09866e-05
2.08142e-05
2.07991e-05
3.45472e-05
5.10573e-05
2.78567e-05
8.8358e-05
8.07086e-05
3.05777e-05
8.05487e-05
3.05021e-05
2.79236e-05
2.78771e-05
8.8426e-05
3.0542e-05
8.05782e-05
2.07553e-05
3.44362e-05
5.0985e-05
5.08939e-05
2.07796e-05
2.07682e-05
3.44784e-05
5.09615e-05
2.78393e-05
8.83703e-05
3.05726e-05
8.06555e-05
3.05e-05
8.04966e-05
2.79023e-05
8.54924e-05
0.000107454
5.26287e-05
3.42686e-05
3.42044e-05
0.000107325
8.56573e-05
8.6174e-05
0.000107168
5.27281e-05
3.45287e-05
0.000107101
3.44802e-05
8.62701e-05
4.18708e-05
2.04317e-05
2.04397e-05
2.04116e-05
2.04165e-05
4.19797e-05
2.19585e-05
2.0688e-05
3.45559e-05
5.13154e-05
5.12549e-05
2.06904e-05
2.77507e-05
8.88892e-05
8.10054e-05
3.04733e-05
8.0959e-05
3.04459e-05
2.77732e-05
2.07251e-05
3.46134e-05
5.14154e-05
5.13515e-05
2.07279e-05
2.77776e-05
8.89291e-05
8.10783e-05
3.04867e-05
8.09937e-05
3.04568e-05
2.7804e-05
2.19167e-05
2.19327e-05
2.19653e-05
0.000112505
0.00012514
0.000124403
0.000126057
0.00011257
0.000125217
0.000124424
8.66833e-05
8.90739e-05
6.863e-05
0.000112506
0.000125186
0.000124523
0.000126004
0.000112585
0.000125238
0.000124561
0.000112605
0.000125905
0.000125086
0.000124518
0.000112527
0.00012517
0.000124527
0.000112633
0.000125405
0.00012479
0.000126373
0.000125428
0.000124869
0.000112729
0.000112771
0.000125469
0.000125049
0.000126656
0.000125095
0.000125519
0.00011283
0.000112884
0.000125802
0.000124967
0.000126745
0.000125007
0.000125854
0.000113014
0.000112584
0.000125933
0.000125107
0.000124396
0.000112515
0.000125153
0.000124439
8.68694e-05
8.85771e-05
6.90763e-05
8.85961e-05
8.72287e-05
6.87576e-05
8.84301e-05
8.68589e-05
6.88608e-05
0.000123433
0.000118683
8.98034e-05
0.000106296
0.000118696
0.000106163
0.000123432
0.000123307
8.989e-05
0.00011864
0.00010621
0.000125858
0.000118946
0.000115463
0.000125875
0.000115305
0.000125935
0.000125839
0.00012303
0.000118523
8.99247e-05
0.00010631
0.000118477
0.000106234
0.000123017
0.000125219
0.000119183
0.000125165
0.000115637
0.000125205
0.000115594
0.000125218
0.000112525
0.000126017
0.000125178
0.000124498
0.000112603
0.000125236
0.000124549
0.00012466
0.000114759
0.000124754
0.000118663
0.00011497
0.000124724
0.000124428
0.000122746
0.000118417
9.00952e-05
0.000106341
0.000106324
0.000118442
0.000122756
0.000122445
8.96686e-05
0.000105792
0.000118222
0.000124951
0.0001191
0.000115597
0.000124919
0.000115477
0.000124936
0.000124903
0.000124872
0.000114992
0.000124736
0.000118703
0.000115243
0.000124957
0.00012469
0.000122925
0.000118628
9.0408e-05
0.000106733
0.000106723
0.000118656
0.000123004
0.000122751
0.000105984
9.00337e-05
0.00011833
0.000106226
0.000122408
0.000118479
0.000125167
0.000119219
0.000115861
0.000125041
0.000115741
0.000125134
0.000125206
0.000112845
0.000126452
0.00012529
0.000124839
0.000124996
0.000125482
0.000112783
0.000122868
0.000118245
8.94631e-05
0.000105786
0.000105697
0.00011833
0.000122847
0.000125275
0.000118476
0.000114898
0.000125192
0.000114799
0.000125469
0.000125091
0.000123391
0.000118813
8.99507e-05
0.000106339
0.000106258
0.000118757
0.000123372
0.000125664
0.000118659
0.000125298
0.00011537
0.000125577
0.000115263
0.000125589
0.000122978
0.000118289
8.9597e-05
0.000106068
0.000118303
0.000105979
0.00012288
0.000125533
0.0001189
0.000125556
0.000115298
0.000125807
0.000115158
0.00012543
0.000123005
0.0001185
9.0055e-05
0.000106485
0.00011854
0.000106441
0.000122986
0.000125169
0.000119307
0.000124964
0.000115709
0.000124933
0.000115719
0.000125163
0.000103097
0.000127139
0.00012738
0.000125722
0.000102864
0.000127365
0.000127259
0.000125679
0.00010306
0.000127544
0.000127544
0.000125705
0.000103203
0.00012747
0.000127584
0.000125803
0.000102983
0.000127543
0.000127793
0.000126038
0.00010361
0.000127819
0.0001279
0.00012614
0.000103553
0.000127854
0.000127705
0.000126076
0.000103801
0.000128126
0.000127626
0.000126028
0.000103564
0.000128126
0.000127647
0.000125915
0.00010404
0.00012807
0.000127347
0.00012581
0.000103943
0.000127883
0.00012709
0.000125712
0.000103321
0.000127917
0.000127057
0.000125766
0.000103606
0.000127547
0.000127092
0.000125808
0.000103524
0.000127798
0.00012704
0.000125892
0.000103377
0.000127876
0.000127036
0.000125919
0.000103418
0.000127818
0.000127189
0.000126037
0.000126579
0.000126989
0.000126465
0.000126932
0.000127974
0.000127392
0.000126957
0.000127095
0.000127336
0.000126332
0.000125815
0.000126048
0.000126289
0.000126481
0.000127016
0.000126644
0.000127037
0.000126442
0.000126635
0.00012685
0.000127875
0.000127153
0.000127925
0.000126903
0.000127438
0.000127054
0.000127079
0.000127162
0.000126289
0.000127406
0.000126283
0.000125755
0.000126193
0.00012654
0.000126565
0.000127084
0.000126944
0.000127176
0.000126606
0.00012675
0.000127185
0.000128161
0.000127197
0.000128269
0.000126933
0.000127539
0.000127057
0.000127119
0.000127264
0.000126339
0.000127382
0.000126445
0.00012577
0.000126531
0.000126816
0.00012676
0.000127177
0.000126881
0.000127306
0.000126745
0.000126849
0.000127176
0.00012843
0.000127441
0.000128434
0.000126918
0.00012765
0.000127206
0.000127178
0.000127407
0.000126504
0.000127668
0.00012621
0.000125826
0.000126787
0.000126921
0.000127138
0.000127266
0.000126782
0.000127509
0.000126808
0.000126964
0.000127322
0.000128552
0.000127578
0.000128494
0.000127028
0.000127773
0.000127363
0.000127381
0.00012768
0.00012656
0.000127797
0.0001264
0.000126075
0.000126928
0.000127182
0.000127067
0.000127411
0.000127364
0.000127636
0.000126934
0.000127099
0.000127589
0.000128716
0.000127594
0.0001287
0.000127435
0.000127767
0.000127475
0.000127678
0.000127739
0.000126633
0.000127915
0.000126708
0.00012622
0.000127137
0.000127185
0.00012726
0.000127667
0.00012764
0.000127352
0.000127047
0.000127024
0.000127913
0.00012865
0.000127928
0.000128734
0.000127318
0.000127967
0.000127395
0.000127725
0.000127639
0.000126769
0.000127905
0.000126638
0.000126175
0.000127168
0.000127016
0.000127635
0.000127633
0.000127526
0.000127671
0.000127021
0.000127185
0.000127982
0.000128766
0.000127747
0.0001282
0.000127563
0.000127913
0.000127536
0.000127563
0.000127378
0.000126651
0.000127479
0.000126443
0.000126124
0.000126989
0.000126939
0.000127554
0.000127649
0.000127548
0.000127641
0.000127143
0.000127186
0.000127716
0.00012839
0.000127886
0.000128414
0.000127586
0.000128172
0.000127082
0.000127353
0.000127304
0.000126664
0.000127681
0.000126646
0.000126012
0.000126909
0.000126798
0.000127557
0.000127614
0.000127365
0.000127713
0.000127155
0.000127174
0.000127915
0.000128444
0.000127641
0.00012841
0.000127264
0.00012801
0.000127186
0.000127276
0.000127157
0.000126585
0.000127372
0.000126416
0.000125889
0.000126759
0.000126645
0.000127339
0.000127752
0.000127134
0.000127432
0.000127113
0.000127004
0.000127654
0.000128282
0.000127795
0.000128364
0.000127226
0.000127971
0.000127145
0.000127116
0.000127063
0.000126639
0.000127327
0.000126513
0.000125795
0.000126578
0.000126455
0.000127164
0.000127458
0.000126862
0.000127343
0.000126959
0.000126862
0.00012785
0.000128095
0.00012748
0.000128273
0.000127137
0.000127737
0.00012709
0.000127029
0.000127075
0.000126527
0.000126949
0.000126373
0.000125818
0.000126408
0.000126318
0.000127068
0.000127354
0.000126748
0.00012715
0.000126845
0.000126859
0.000127455
0.000128322
0.000127336
0.000128073
0.000127122
0.000127643
0.000127065
0.000127037
0.000127037
0.000126487
0.000127144
0.00012639
0.000125882
0.000126275
0.000126061
0.000126945
0.000127122
0.000126956
0.00012721
0.000126829
0.000126839
0.000127357
0.00012824
0.000127201
0.000128266
0.000126876
0.000127862
0.000126901
0.000126984
0.000127035
0.000126438
0.000127031
0.000126333
0.000125961
0.000126161
0.000126242
0.000127006
0.000127309
0.000126943
0.00012704
0.000126785
0.000126813
0.000127268
0.00012834
0.000127119
0.000128302
0.000126871
0.000127735
0.000127159
0.000127036
0.000126831
0.00012613
0.000127041
0.000126426
0.000125965
0.000126231
0.000126211
0.000126947
0.000126922
0.00012704
0.000127185
0.000126808
0.000126703
0.000127123
0.000128377
0.000127175
0.000128264
0.000127266
0.000127645
0.000127223
0.000126799
0.000126777
0.000126402