/*--------------------------------*- C++ -*----------------------------------*\
| =========                 |                                                 |
| \\      /  F ield         | OpenFOAM: The Open Source CFD Toolbox           |
|  \\    /   O peration     | Version:  2206                                  |
|   \\  /    A nd           | Website:  www.openfoam.com                      |
|    \\/     M anipulation  |                                                 |
\*---------------------------------------------------------------------------*/
FoamFile
{
    version     2.0;
    format      ascii;
    arch        "LSB;label=32;scalar=64";
    class       volScalarField;
    location    "149";
    object      nut;
}
// * * * * * * * * * * * * * * * * * * * * * * * * * * * * * * * * * * * * * //

dimensions      [0 2 -1 0 0 0 0];

internalField   nonuniform List<scalar> 
67442
(
2.99887e-06
1.91554e-06
1.94866e-06
1.9391e-06
1.93586e-06
1.92524e-06
1.93259e-06
1.94842e-06
1.90338e-06
1.91317e-06
1.90207e-06
1.95663e-06
1.92575e-06
1.16716e-07
4.81197e-07
5.55747e-08
1.15119e-07
4.70471e-07
3.01336e-06
3.00112e-06
2.99356e-06
4.96845e-07
2.37649e-06
9.79777e-07
5.53845e-08
2.43611e-06
5.05499e-07
1.00386e-06
2.5094e-07
2.53693e-07
5.52539e-08
5.48546e-08
2.55361e-07
2.51031e-07
1.17419e-07
4.82206e-07
5.03858e-07
2.40853e-06
1.00107e-06
5.06666e-07
2.42416e-06
1.00258e-06
2.56471e-07
2.51833e-07
5.4979e-08
4.95416e-07
2.36442e-06
9.75115e-07
1.16169e-07
4.71332e-07
2.37417e-06
5.00194e-07
9.76805e-07
1.15486e-07
4.72909e-07
2.36821e-06
4.95083e-07
9.78103e-07
1.15186e-07
4.72311e-07
2.53652e-07
2.56304e-07
5.54504e-08
2.42887e-06
5.02361e-07
1.00245e-06
1.17007e-07
4.8315e-07
1.16573e-07
4.82783e-07
5.47534e-08
5.50322e-08
4.97511e-08
1.16616e-07
2.39606e-07
2.39441e-07
4.97662e-08
8.49339e-08
4.82236e-07
9.92693e-08
4.1146e-07
9.92017e-08
4.12425e-07
8.4989e-08
5.55202e-08
8.42291e-08
4.70603e-07
4.02646e-07
9.82418e-08
4.93971e-08
1.14904e-07
2.33864e-07
2.33378e-07
4.94792e-08
4.94944e-08
1.15172e-07
2.33974e-07
8.40288e-08
4.73218e-07
4.02512e-07
9.82153e-08
4.05044e-07
9.80045e-08
8.42062e-08
5.52821e-08
5.53859e-08
4.3517e-07
7.0431e-07
2.50392e-07
1.11402e-07
7.03311e-07
1.11202e-07
4.33783e-07
4.3647e-07
7.06229e-07
2.53293e-07
1.10601e-07
7.05272e-07
1.10448e-07
4.35321e-07
1.6687e-07
5.02858e-08
5.02102e-08
5.02053e-08
5.01376e-08
1.67276e-07
5.51998e-08
5.47627e-08
5.48786e-08
4.38857e-07
7.12631e-07
2.55002e-07
1.12473e-07
1.12328e-07
7.11775e-07
4.37369e-07
4.37613e-07
7.03637e-07
2.50582e-07
1.10578e-07
1.10394e-07
7.02906e-07
4.35769e-07
1.67787e-07
5.06251e-08
5.04068e-08
5.05571e-08
5.03294e-08
1.68096e-07
5.00252e-08
1.17293e-07
2.41034e-07
2.40799e-07
5.00493e-08
8.52748e-08
4.83177e-07
9.9458e-08
4.13426e-07
9.93712e-08
4.14144e-07
8.53638e-08
4.41274e-07
7.14628e-07
2.5611e-07
1.11899e-07
1.11791e-07
7.13671e-07
4.40933e-07
4.39419e-07
7.07519e-07
2.51421e-07
1.12112e-07
7.07501e-07
1.11866e-07
4.36589e-07
1.68388e-07
5.07538e-08
5.07108e-08
5.06938e-08
5.06318e-08
1.68696e-07
5.48991e-08
8.46314e-08
4.71428e-07
9.84108e-08
4.04907e-07
4.97432e-08
1.15944e-07
2.35707e-07
2.35199e-07
4.98298e-08
4.98374e-08
1.16182e-07
2.35766e-07
8.44324e-08
4.74294e-07
9.83874e-08
4.04822e-07
9.81777e-08
4.07172e-07
8.46149e-08
4.96495e-08
1.15288e-07
2.34947e-07
2.34484e-07
4.9733e-08
8.45399e-08
4.7575e-07
4.05062e-07
9.87258e-08
4.07587e-07
9.85022e-08
8.47255e-08
4.95036e-08
1.14951e-07
2.34344e-07
2.33816e-07
4.95989e-08
8.43249e-08
4.75046e-07
9.86247e-08
4.03921e-07
9.83959e-08
4.06176e-07
8.4526e-08
4.43119e-07
7.12034e-07
2.53158e-07
1.118e-07
1.11586e-07
7.1144e-07
4.41832e-07
4.41598e-07
7.16521e-07
2.55903e-07
1.13201e-07
7.16064e-07
1.13007e-07
4.39908e-07
1.69121e-07
5.08818e-08
5.10516e-08
5.08012e-08
5.09543e-08
1.69482e-07
5.53918e-08
4.99182e-08
1.1686e-07
2.40387e-07
2.40126e-07
4.99327e-08
8.52894e-08
4.84192e-07
4.13354e-07
9.96358e-08
4.14214e-07
9.95613e-08
8.53684e-08
4.9855e-08
1.16417e-07
2.39965e-07
2.39664e-07
4.98739e-08
8.52425e-08
4.83603e-07
4.1293e-07
9.96402e-08
4.13825e-07
9.95554e-08
8.53321e-08
5.4651e-08
5.49781e-08
3.48346e-06
3.42317e-06
3.8033e-06
8.07699e-07
1.12461e-06
1.12826e-06
1.89077e-06
1.1065e-06
1.11351e-06
8.10547e-07
8.11368e-07
1.13055e-06
1.12543e-06
1.89219e-06
1.11508e-06
1.10706e-06
8.13891e-07
8.15636e-07
1.12944e-06
1.13575e-06
1.90031e-06
1.11698e-06
1.11613e-06
8.18183e-07
8.19741e-07
1.13279e-06
1.14734e-06
1.91272e-06
1.1325e-06
1.11432e-06
8.22689e-07
3.48531e-06
3.43923e-06
3.80857e-06
3.41405e-06
3.49457e-06
3.78816e-06
3.41705e-06
3.5e-06
3.79891e-06
1.30299e-06
9.65957e-07
4.98623e-07
7.05496e-07
9.54911e-07
7.04813e-07
1.32453e-06
1.41173e-06
9.75984e-07
8.91063e-07
1.60179e-06
8.88485e-07
1.56431e-06
1.4384e-06
1.34091e-06
9.81605e-07
5.06139e-07
7.19967e-07
9.73882e-07
7.18905e-07
1.3531e-06
1.45298e-06
1.00024e-06
1.62677e-06
9.12021e-07
1.61267e-06
9.08816e-07
1.46347e-06
1.33257e-06
9.78016e-07
5.04848e-07
7.17114e-07
7.16143e-07
9.70135e-07
1.34297e-06
1.44304e-06
9.97689e-07
9.07733e-07
1.61805e-06
9.04899e-07
1.60772e-06
1.45261e-06
1.33939e-06
9.81408e-07
5.07601e-07
7.21132e-07
7.19942e-07
9.7345e-07
1.35069e-06
1.4483e-06
9.99306e-07
9.12567e-07
1.62348e-06
9.09417e-07
1.61109e-06
1.45984e-06
1.29608e-06
9.60708e-07
4.96939e-07
7.02378e-07
7.01615e-07
9.49719e-07
1.31674e-06
1.403e-06
9.71014e-07
8.85675e-07
1.59396e-06
8.82661e-07
1.55681e-06
1.42964e-06
1.31135e-06
9.73647e-07
5.01692e-07
7.08353e-07
7.07702e-07
9.62654e-07
1.33171e-06
1.412e-06
9.72784e-07
1.59784e-06
8.91108e-07
1.5607e-06
8.8803e-07
1.4387e-06
1.30235e-06
9.65981e-07
4.96942e-07
7.03211e-07
9.55381e-07
7.02932e-07
1.32327e-06
1.40851e-06
9.73878e-07
1.60069e-06
8.87762e-07
1.5632e-06
8.84659e-07
1.43533e-06
1.33015e-06
9.69334e-07
5.02912e-07
7.17109e-07
9.60951e-07
7.15889e-07
1.34225e-06
1.44624e-06
1.00023e-06
1.62227e-06
9.09758e-07
1.61151e-06
9.07082e-07
1.45678e-06
8.59435e-09
9.12422e-10
5.72321e-11
3.19563e-12
2.06577e-12
8.91366e-09
9.61046e-10
6.2012e-11
3.67814e-12
2.32927e-12
8.64207e-09
9.17154e-10
5.75116e-11
3.20642e-12
2.0737e-12
8.98803e-09
9.68505e-10
6.24531e-11
3.69172e-12
2.33793e-12
8.86255e-09
9.559e-10
6.17354e-11
3.67727e-12
2.32954e-12
8.90384e-09
9.5997e-10
6.19769e-11
3.68476e-12
2.33425e-12
8.6438e-09
9.17189e-10
5.74572e-11
3.19383e-12
2.06679e-12
8.92596e-09
9.62443e-10
6.21305e-11
3.69036e-12
2.3376e-12
8.71568e-09
9.24147e-10
5.78428e-11
3.20382e-12
2.07578e-12
8.67038e-09
9.19966e-10
5.76562e-11
3.20775e-12
2.07605e-12
8.64895e-09
9.17673e-10
5.75352e-11
3.20731e-12
2.07417e-12
8.89526e-09
9.59184e-10
6.19143e-11
3.67888e-12
2.32968e-12
8.61598e-09
9.14419e-10
5.73219e-11
3.19443e-12
2.06571e-12
8.58661e-09
9.1168e-10
5.71902e-11
3.19366e-12
2.0637e-12
8.88633e-09
9.58066e-10
6.1867e-11
3.68384e-12
2.33347e-12
8.82541e-09
9.51889e-10
6.14894e-11
3.66923e-12
2.32469e-12
9.0275e-09
9.68881e-10
6.23988e-11
3.68191e-12
2.33121e-12
8.59468e-09
9.12522e-10
5.7227e-11
3.19311e-12
2.06442e-12
8.9085e-09
9.60522e-10
6.19701e-11
3.67271e-12
2.32564e-12
8.69307e-09
9.25964e-10
5.88024e-11
3.37299e-12
2.15438e-12
8.99273e-09
9.6248e-10
6.10755e-11
3.45937e-12
2.21556e-12
9.11216e-09
9.77128e-10
6.28441e-11
3.68399e-12
2.33388e-12
8.6332e-09
9.16055e-10
5.74026e-11
3.19194e-12
2.06593e-12
8.64519e-09
9.17408e-10
5.75202e-11
3.2057e-12
2.07375e-12
8.97645e-09
9.67175e-10
6.23413e-11
3.6772e-12
2.32852e-12
8.98832e-09
9.68507e-10
6.24516e-11
3.69137e-12
2.33766e-12
8.80608e-09
9.32201e-10
5.8309e-11
3.22423e-12
2.08873e-12
8.79551e-09
9.31014e-10
5.82086e-11
3.21214e-12
2.0814e-12
8.72481e-09
9.24479e-10
5.79178e-11
3.22038e-12
2.08321e-12
8.71869e-09
9.23816e-10
5.78577e-11
3.21269e-12
2.07895e-12
8.59615e-09
9.20468e-10
5.94576e-11
3.59893e-12
2.28967e-12
8.56436e-09
9.17308e-10
5.92709e-11
3.59394e-12
2.28769e-12
8.58609e-09
9.19409e-10
5.93785e-11
3.58841e-12
2.28177e-12
8.55597e-09
9.16449e-10
5.92069e-11
3.58518e-12
2.28102e-12
8.85862e-09
9.55512e-10
6.1701e-11
3.67193e-12
2.32583e-12
8.89398e-09
9.58835e-10
6.18799e-11
3.67106e-12
2.32505e-12
8.90758e-09
9.6032e-10
6.19952e-11
3.6847e-12
2.33424e-12
8.64134e-09
9.17006e-10
5.7441e-11
3.19164e-12
2.06554e-12
8.85993e-09
9.37666e-10
5.86048e-11
3.22683e-12
2.092e-12
8.85153e-09
9.36807e-10
5.85305e-11
3.2167e-12
2.08528e-12
8.67272e-09
9.28621e-10
5.99471e-11
3.61004e-12
2.29406e-12
8.66416e-09
9.27721e-10
5.98754e-11
3.5999e-12
2.28663e-12
8.91695e-09
9.61374e-10
6.20368e-11
3.67681e-12
2.32855e-12
8.7314e-09
9.29542e-10
5.89709e-11
3.37141e-12
2.15599e-12
9.00703e-09
9.63813e-10
6.11347e-11
3.45825e-12
2.21609e-12
9.17601e-09
9.83394e-10
6.31698e-11
3.68437e-12
2.33556e-12
8.70621e-09
9.23033e-10
5.774e-11
3.19054e-12
2.06794e-12
8.71651e-09
9.24203e-10
5.7844e-11
3.20355e-12
2.07568e-12
8.66186e-09
9.18918e-10
5.75529e-11
3.19386e-12
2.06835e-12
9.13032e-09
9.78803e-10
6.29292e-11
3.68486e-12
2.33426e-12
8.63793e-09
9.16387e-10
5.74198e-11
3.19332e-12
2.06643e-12
8.87571e-09
9.39089e-10
5.86609e-11
3.22438e-12
2.08977e-12
8.86714e-09
9.38303e-10
5.86074e-11
3.21953e-12
2.08648e-12
8.7005e-09
9.314e-10
6.00968e-11
3.61229e-12
2.29408e-12
8.88952e-09
9.58607e-10
6.18704e-11
3.67367e-12
2.32618e-12
9.05581e-09
9.71667e-10
6.25459e-11
3.68217e-12
2.33152e-12
8.6143e-09
9.14379e-10
5.73118e-11
3.19207e-12
2.06456e-12
9.04467e-09
9.70647e-10
6.24923e-11
3.68106e-12
2.33087e-12
8.58486e-09
9.11619e-10
5.71798e-11
3.19128e-12
2.06255e-12
8.87409e-09
9.56705e-10
6.17599e-11
3.67047e-12
2.32439e-12
8.8208e-09
9.51435e-10
6.14529e-11
3.66404e-12
2.32108e-12
9.07747e-09
9.74039e-10
6.26822e-11
3.68541e-12
2.33355e-12
9.15712e-09
9.81643e-10
6.30896e-11
3.68666e-12
2.3362e-12
8.55564e-09
9.1276e-10
5.80873e-11
3.35742e-12
2.1389e-12
8.84644e-09
9.48414e-10
6.03323e-11
3.44613e-12
2.19943e-12
8.84728e-09
9.48559e-10
6.03272e-11
3.44347e-12
2.19805e-12
8.55739e-09
9.12878e-10
5.80997e-11
3.35945e-12
2.14003e-12
9.02703e-09
9.68735e-10
6.23917e-11
3.6826e-12
2.33172e-12
8.82364e-09
9.34225e-10
5.84189e-11
3.22368e-12
2.08945e-12
8.81696e-09
9.33456e-10
5.83536e-11
3.21567e-12
2.08436e-12
8.65866e-09
9.27314e-10
5.98734e-11
3.60939e-12
2.29406e-12
8.65081e-09
9.26434e-10
5.98038e-11
3.59953e-12
2.28681e-12
9.12273e-09
9.78361e-10
6.29559e-11
3.6996e-12
2.34349e-12
8.67702e-09
9.24045e-10
5.86348e-11
3.35348e-12
2.14375e-12
8.98958e-09
9.62218e-10
6.10651e-11
3.45974e-12
2.21551e-12
8.97624e-09
9.60451e-10
6.08902e-11
3.43744e-12
2.20401e-12
8.6912e-09
9.25786e-10
5.87946e-11
3.37324e-12
2.15432e-12
9.12596e-09
9.78686e-10
6.29718e-11
3.69941e-12
2.34353e-12
8.87359e-09
9.38961e-10
5.86763e-11
3.22914e-12
2.09334e-12
8.86411e-09
9.37874e-10
5.8582e-11
3.21654e-12
2.08484e-12
8.70637e-09
9.31903e-10
6.01289e-11
3.61384e-12
2.29525e-12
8.69705e-09
9.30883e-10
6.0045e-11
3.60153e-12
2.28629e-12
8.82293e-09
9.33991e-10
5.83985e-11
3.22233e-12
2.08848e-12
8.81805e-09
9.33465e-10
5.83493e-11
3.21541e-12
2.0841e-12
8.62574e-09
9.23684e-10
5.96512e-11
3.60201e-12
2.29036e-12
8.61853e-09
9.22937e-10
5.95918e-11
3.59321e-12
2.28375e-12
8.78484e-09
9.30416e-10
5.82431e-11
3.22599e-12
2.08969e-12
8.77624e-09
9.29375e-10
5.81457e-11
3.21321e-12
2.08222e-12
8.62745e-09
9.23902e-10
5.96744e-11
3.60493e-12
2.29251e-12
8.6187e-09
9.22973e-10
5.96005e-11
3.59407e-12
2.28438e-12
8.58932e-09
9.16095e-10
5.8262e-11
3.35873e-12
2.14126e-12
8.86356e-09
9.5025e-10
6.0426e-11
3.44734e-12
2.20104e-12
8.86231e-09
9.50079e-10
6.04079e-11
3.44433e-12
2.19959e-12
8.59368e-09
9.16465e-10
5.82869e-11
3.36099e-12
2.14241e-12
9.0793e-09
9.74122e-10
6.26867e-11
3.68638e-12
2.33411e-12
8.71558e-09
9.27636e-10
5.88019e-11
3.35151e-12
2.14535e-12
9.00404e-09
9.63571e-10
6.11253e-11
3.45855e-12
2.21608e-12
8.99069e-09
9.61795e-10
6.09494e-11
3.43622e-12
2.20453e-12
8.73018e-09
9.29433e-10
5.89667e-11
3.37155e-12
2.15597e-12
9.18753e-09
9.84757e-10
6.32924e-11
3.70064e-12
2.34529e-12
9.18922e-09
9.84917e-10
6.32994e-11
3.70045e-12
2.34525e-12
9.16852e-09
9.82973e-10
6.32068e-11
3.70223e-12
2.34563e-12
8.72602e-09
9.28645e-10
5.88555e-11
3.35159e-12
2.14531e-12
9.03508e-09
9.66428e-10
6.12645e-11
3.45747e-12
2.21669e-12
9.01811e-09
9.64369e-10
6.10791e-11
3.43572e-12
2.20529e-12
8.74206e-09
9.30581e-10
5.90241e-11
3.37118e-12
2.15578e-12
8.70638e-09
9.26722e-10
5.87555e-11
3.35177e-12
2.14411e-12
9.02685e-09
9.65664e-10
6.12227e-11
3.45754e-12
2.21612e-12
9.00942e-09
9.63562e-10
6.10347e-11
3.43568e-12
2.20462e-12
8.72376e-09
9.28786e-10
5.89293e-11
3.37125e-12
2.15466e-12
9.1442e-09
9.80388e-10
6.30589e-11
3.70048e-12
2.34389e-12
8.68815e-09
9.30137e-10
6.00101e-11
3.60407e-12
2.28833e-12
9.05548e-09
9.71544e-10
6.2539e-11
3.68284e-12
2.33193e-12
8.59029e-09
9.15997e-10
5.82436e-11
3.35578e-12
2.13995e-12
8.87845e-09
9.51462e-10
6.04687e-11
3.44399e-12
2.20059e-12
8.87777e-09
9.51403e-10
6.04551e-11
3.44071e-12
2.19896e-12
8.59312e-09
9.16229e-10
5.8262e-11
3.35824e-12
2.14127e-12
9.04479e-09
9.70555e-10
6.24868e-11
3.68172e-12
2.3313e-12
8.58661e-09
9.15745e-10
5.82346e-11
3.35648e-12
2.14014e-12
8.87882e-09
9.51424e-10
6.04728e-11
3.44403e-12
2.20061e-12
8.87736e-09
9.51362e-10
6.0461e-11
3.44178e-12
2.19945e-12
8.59029e-09
9.16027e-10
5.82542e-11
3.35827e-12
2.14112e-12
1.91309e-06
1.91295e-06
1.94753e-06
3.00247e-06
4.73091e-07
2.36398e-06
9.70881e-07
1.15937e-07
4.74176e-07
2.37189e-06
5.01615e-07
9.72812e-07
5.5283e-08
2.5313e-07
8.41831e-08
4.70348e-07
4.04995e-07
9.79809e-08
4.02447e-07
9.81878e-08
8.40083e-08
4.98202e-08
1.16154e-07
2.35174e-07
2.35718e-07
4.97356e-08
8.45924e-08
4.71209e-07
9.81541e-08
4.07087e-07
9.83596e-08
4.04745e-07
8.44138e-08
5.53796e-08
4.41639e-07
7.11605e-07
2.53663e-07
1.11601e-07
7.12306e-07
1.11803e-07
4.4347e-07
4.40526e-07
7.1604e-07
7.16664e-07
4.41457e-07
1.69432e-07
5.07957e-08
5.08724e-08
1.69039e-07
8.2263e-07
1.96154e-06
1.11539e-06
1.13237e-06
1.13374e-06
1.14678e-06
8.19732e-07
3.43594e-06
3.81238e-06
3.40555e-06
3.50206e-06
3.82793e-06
1.42958e-06
9.74593e-07
8.82395e-07
1.55648e-06
8.85508e-07
1.59125e-06
1.40294e-06
1.33153e-06
9.62722e-07
5.00148e-07
7.07517e-07
7.08206e-07
9.73866e-07
1.30988e-06
1.43852e-06
9.76926e-07
1.561e-06
8.87765e-07
1.59795e-06
8.90845e-07
1.41178e-06
1.35282e-06
9.73966e-07
9.80991e-07
1.34092e-06
1.89213e-06
1.92511e-06
1.90293e-06
3.00055e-06
5.51946e-08
5.47436e-08
2.54938e-07
2.50486e-07
1.16601e-07
4.82193e-07
5.04747e-07
2.40845e-06
9.97291e-07
1.14866e-07
4.96741e-07
5.52417e-08
5.48309e-08
4.3738e-07
7.11479e-07
2.55344e-07
1.12324e-07
1.1245e-07
7.12413e-07
4.38912e-07
4.35658e-07
7.02621e-07
2.50988e-07
1.10363e-07
1.10534e-07
7.03032e-07
4.37474e-07
1.6806e-07
5.0552e-08
5.03194e-08
5.06167e-08
5.03931e-08
1.67741e-07
4.97513e-08
1.1669e-07
2.39353e-07
2.39553e-07
4.9742e-08
8.49723e-08
4.81162e-07
9.9192e-08
4.12145e-07
9.92606e-08
4.11329e-07
8.4919e-08
4.94629e-08
1.15072e-07
2.33344e-07
2.33817e-07
4.93833e-08
8.1358e-07
1.94012e-06
1.11563e-06
1.10688e-06
1.12905e-06
1.12562e-06
8.11074e-07
3.49421e-06
1.343e-06
9.69587e-07
5.03778e-07
7.15894e-07
9.77456e-07
7.16857e-07
1.33118e-06
1.45258e-06
1.00055e-06
9.04939e-07
1.60639e-06
9.07816e-07
1.61944e-06
1.44014e-06
1.31746e-06
9.49608e-07
4.9528e-07
7.01533e-07
9.60609e-07
7.02197e-07
1.29632e-06
8.70566e-09
9.2299e-10
5.77389e-11
3.19071e-12
2.068e-12
8.97644e-09
9.67185e-10
6.23428e-11
3.67739e-12
2.32867e-12
9.18632e-09
9.84641e-10
6.32865e-11
3.7007e-12
2.34521e-12
8.71537e-09
9.24099e-10
5.78398e-11
3.2038e-12
2.07576e-12
8.98812e-09
9.68519e-10
6.24543e-11
3.69196e-12
2.33814e-12
8.68985e-09
9.25669e-10
5.87895e-11
3.3735e-12
2.15415e-12
8.97295e-09
9.60155e-10
6.08785e-11
3.43784e-12
2.20392e-12
8.98957e-09
9.62223e-10
6.10657e-11
3.45997e-12
2.21535e-12
8.67595e-09
9.23951e-10
5.86305e-11
3.35366e-12
2.14364e-12
8.72875e-09
9.2932e-10
5.89627e-11
3.37185e-12
2.15584e-12
8.98736e-09
9.61499e-10
6.09381e-11
3.43661e-12
2.20446e-12
9.00394e-09
9.63577e-10
6.11269e-11
3.45884e-12
2.21593e-12
8.71477e-09
9.27579e-10
5.88002e-11
3.35169e-12
2.14529e-12
9.17506e-09
9.83296e-10
6.31647e-11
3.6844e-12
2.33551e-12
8.86257e-09
9.37751e-10
5.85781e-11
3.21709e-12
2.08523e-12
8.87175e-09
9.38882e-10
5.86743e-11
3.22943e-12
2.09355e-12
8.69598e-09
9.30798e-10
6.00429e-11
3.60221e-12
2.28681e-12
8.707e-09
9.32058e-10
6.0141e-11
3.61489e-12
2.29595e-12
8.85787e-09
9.55448e-10
6.16979e-11
3.67188e-12
2.32587e-12
8.89085e-09
9.58529e-10
6.18632e-11
3.6709e-12
2.32491e-12
8.59333e-09
9.12336e-10
5.72182e-11
3.19279e-12
2.06439e-12
8.63073e-09
9.15825e-10
5.73928e-11
3.19229e-12
2.06581e-12
8.86186e-09
9.55834e-10
6.17312e-11
3.67695e-12
2.32941e-12
8.9007e-09
9.59629e-10
6.1957e-11
3.68442e-12
2.33403e-12
9.02558e-09
9.68626e-10
6.23857e-11
3.68228e-12
2.33158e-12
8.5944e-09
9.1239e-10
5.72274e-11
3.19499e-12
2.06566e-12
8.63973e-09
9.16901e-10
5.74986e-11
3.20643e-12
2.07345e-12
8.61777e-09
9.22857e-10
5.9587e-11
3.59316e-12
2.28377e-12
8.61704e-09
9.22801e-10
5.95902e-11
3.59388e-12
2.28431e-12
9.12029e-09
9.78116e-10
6.29426e-11
3.69957e-12
2.34329e-12
9.10996e-09
9.76895e-10
6.28317e-11
3.68398e-12
2.33372e-12
8.81784e-09
9.33442e-10
5.83475e-11
3.21528e-12
2.08406e-12
8.82287e-09
9.3397e-10
5.83954e-11
3.222e-12
2.08836e-12
8.77412e-09
9.29179e-10
5.81364e-11
3.21334e-12
2.08214e-12
8.78283e-09
9.30195e-10
5.82307e-11
3.22582e-12
2.08945e-12
8.62623e-09
9.23775e-10
5.96657e-11
3.60466e-12
2.29237e-12
8.62545e-09
9.23649e-10
5.96483e-11
3.6018e-12
2.29021e-12
8.55766e-09
9.12925e-10
5.81013e-11
3.35951e-12
2.13997e-12
8.84477e-09
9.4824e-10
6.03184e-11
3.44367e-12
2.1981e-12
8.84925e-09
9.48703e-10
6.03467e-11
3.44616e-12
2.19938e-12
8.5567e-09
9.12892e-10
5.80938e-11
3.35746e-12
2.13887e-12
9.0271e-09
9.68869e-10
6.23974e-11
3.68172e-12
2.33118e-12
1.90851e-06
3.02632e-06
1.90704e-06
1.92787e-06
1.89943e-06
1.91482e-06
1.92099e-06
1.92998e-06
1.93507e-06
1.92964e-06
1.89631e-06
1.89354e-06
1.87953e-06
1.91305e-06
1.91664e-06
2.52236e-07
2.55029e-07
1.91173e-06
2.51578e-07
2.54786e-07
4.72146e-07
1.16799e-07
4.82408e-07
5.54729e-08
5.51239e-08
1.15214e-07
4.71513e-07
3.02619e-06
3.01561e-06
3.00226e-06
4.99201e-07
2.35624e-06
1.94338e-06
9.79021e-07
5.52969e-08
2.43178e-06
5.04497e-07
1.00239e-06
2.52214e-07
2.55217e-07
5.50238e-08
5.49447e-08
5.53013e-08
5.52873e-08
1.91346e-06
2.51638e-07
2.54746e-07
2.5229e-07
2.55184e-07
5.49491e-08
5.50081e-08
5.52923e-08
5.53188e-08
5.52911e-08
5.49381e-08
2.55733e-07
2.51736e-07
4.7263e-07
1.1733e-07
1.15644e-07
4.82935e-07
9.77199e-07
5.04775e-07
2.42629e-06
2.38041e-06
1.00366e-06
9.78023e-07
5.06595e-07
2.43686e-06
1.93282e-06
5.01248e-07
2.38339e-06
1.00469e-06
2.55956e-07
2.52796e-07
1.92755e-06
2.53893e-07
5.5147e-08
4.96633e-07
2.34517e-06
9.73896e-07
1.16125e-07
4.72627e-07
2.34395e-06
5.00616e-07
9.75803e-07
1.1584e-07
4.73704e-07
2.33674e-06
4.98165e-07
9.78923e-07
1.15606e-07
4.73732e-07
2.53446e-07
2.55492e-07
5.52735e-08
2.42796e-06
5.05107e-07
1.00241e-06
1.16742e-07
4.82355e-07
1.1692e-07
4.82633e-07
5.49892e-08
5.53137e-08
1.68619e-07
5.06039e-08
5.0558e-08
5.06646e-08
5.06108e-08
1.68171e-07
4.38208e-07
7.08005e-07
1.12128e-07
2.51563e-07
1.11921e-07
4.37093e-07
7.07544e-07
4.39901e-07
7.10348e-07
1.11367e-07
2.54678e-07
1.11227e-07
4.38648e-07
7.09885e-07
1.68204e-07
5.06691e-08
5.06108e-08
5.06042e-08
5.05542e-08
1.68617e-07
4.37108e-07
1.11928e-07
2.52293e-07
7.07887e-07
1.12111e-07
4.38231e-07
7.07818e-07
4.38965e-07
1.11256e-07
2.55131e-07
7.10187e-07
1.11388e-07
4.3971e-07
7.10468e-07
8.36387e-08
9.69526e-08
4.03839e-07
4.75321e-07
9.75545e-08
4.06606e-07
8.31809e-08
4.97569e-08
1.16878e-07
2.40215e-07
2.39246e-07
4.98347e-08
4.93583e-08
1.15755e-07
2.36348e-07
8.45181e-08
4.80193e-07
9.93504e-08
4.12781e-07
9.86033e-08
4.10722e-07
8.51273e-08
5.55688e-08
5.52866e-08
4.945e-08
1.15019e-07
2.34124e-07
2.33532e-07
4.94909e-08
8.4088e-08
4.7199e-07
4.03594e-07
9.82494e-08
4.03926e-07
9.80744e-08
8.42372e-08
5.52371e-08
4.37361e-07
7.08572e-07
1.12047e-07
2.51611e-07
4.37396e-07
7.06626e-07
1.11886e-07
4.39044e-07
7.11225e-07
1.11371e-07
2.54743e-07
4.39171e-07
7.09368e-07
1.11222e-07
1.68106e-07
5.06197e-08
5.05719e-08
1.68464e-07
5.05766e-08
5.05274e-08
5.49393e-08
5.5018e-08
5.52658e-08
5.53145e-08
1.68172e-07
5.06499e-08
5.06001e-08
1.68523e-07
5.05978e-08
5.05549e-08
4.37199e-07
7.07487e-07
1.11918e-07
2.5223e-07
4.3768e-07
1.1207e-07
7.07885e-07
4.39e-07
7.09925e-07
1.11272e-07
2.55313e-07
4.39369e-07
1.11397e-07
7.10911e-07
1.68497e-07
5.05914e-08
5.05476e-08
1.68128e-07
5.06389e-08
5.05918e-08
4.38089e-07
1.12083e-07
7.07946e-07
2.51626e-07
4.37099e-07
1.1192e-07
7.07575e-07
4.39737e-07
1.11381e-07
7.10908e-07
2.54753e-07
4.38893e-07
1.11274e-07
7.10078e-07
5.50039e-08
5.49455e-08
5.53263e-08
5.52922e-08
5.5376e-08
5.51008e-08
5.4882e-08
4.39558e-07
7.14598e-07
2.55585e-07
1.12694e-07
1.12563e-07
7.13109e-07
4.39002e-07
4.37978e-07
7.059e-07
2.51116e-07
1.10845e-07
1.10675e-07
7.04447e-07
4.37554e-07
2.55169e-07
7.14573e-07
1.68193e-07
5.07229e-08
5.05129e-08
5.06727e-08
5.04592e-08
1.68511e-07
8.39255e-08
9.70527e-08
4.05378e-07
4.75847e-07
9.76558e-08
4.082e-07
8.34613e-08
5.00023e-08
1.17427e-07
2.41485e-07
2.40438e-07
5.00808e-08
4.96043e-08
2.35888e-07
1.16318e-07
2.37657e-07
4.94978e-08
8.47964e-08
4.80735e-07
9.94521e-08
4.14292e-07
9.87011e-08
4.12246e-07
8.54086e-08
1.68781e-07
5.07597e-08
5.08289e-08
5.06795e-08
4.4007e-07
7.13997e-07
2.55854e-07
1.11659e-07
1.11551e-07
7.12479e-07
4.40755e-07
4.39263e-07
7.10069e-07
2.52322e-07
1.12397e-07
7.08614e-07
1.1221e-07
4.37739e-07
4.38897e-07
1.11776e-07
2.55586e-07
7.10705e-07
1.12239e-07
7.14025e-07
4.39712e-07
4.40542e-07
2.52756e-07
7.10662e-07
1.12026e-07
1.68354e-07
5.06738e-08
5.07473e-08
5.06368e-08
5.06911e-08
1.68727e-07
5.50991e-08
5.51403e-08
4.97797e-08
1.15847e-07
2.35781e-07
2.35183e-07
4.98134e-08
8.44992e-08
4.72802e-07
9.84582e-08
4.06089e-07
9.82278e-08
4.06175e-07
8.46718e-08
8.46594e-08
4.73608e-07
4.06117e-07
9.86243e-08
4.97544e-08
1.15627e-07
2.35561e-07
2.34968e-07
4.98008e-08
4.9767e-08
1.15805e-07
2.35509e-07
8.45673e-08
4.73993e-07
4.06156e-07
9.87341e-08
4.0631e-07
9.8501e-08
8.47623e-08
8.4621e-08
4.73722e-07
9.8623e-08
4.05912e-07
4.96757e-08
1.15391e-07
2.35138e-07
2.34513e-07
4.97184e-08
4.96941e-08
1.15581e-07
2.35042e-07
8.45136e-08
4.74069e-07
9.87187e-08
4.05893e-07
9.84951e-08
4.06046e-07
8.46964e-08
4.40942e-07
7.1125e-07
2.52591e-07
1.11573e-07
1.11368e-07
7.08917e-07
4.41511e-07
4.3955e-07
7.14678e-07
2.55126e-07
1.12858e-07
7.13076e-07
1.12698e-07
4.39576e-07
1.6859e-07
5.07481e-08
5.08848e-08
5.07065e-08
5.08323e-08
1.69069e-07
5.52647e-08
4.98213e-08
1.16618e-07
2.39804e-07
2.39445e-07
4.98149e-08
8.51167e-08
4.83037e-07
4.12653e-07
9.9484e-08
4.13039e-07
9.94089e-08
8.51752e-08
4.99102e-08
1.1682e-07
2.4032e-07
2.39925e-07
4.99045e-08
8.51992e-08
4.83299e-07
4.13106e-07
9.95276e-08
4.133e-07
9.94438e-08
8.52699e-08
5.49435e-08
5.49759e-08
5.52818e-08
8.14015e-07
1.12374e-06
1.12888e-06
1.88763e-06
8.15475e-07
1.1101e-06
1.11774e-06
3.47186e-06
3.44945e-06
3.77744e-06
8.12985e-07
1.11902e-06
1.12613e-06
1.89095e-06
8.16042e-07
1.111e-06
1.11972e-06
8.15535e-07
1.91833e-06
1.11967e-06
1.126e-06
8.13795e-07
1.12833e-06
1.13205e-06
8.13954e-07
1.13284e-06
1.12282e-06
1.90126e-06
1.12262e-06
1.11388e-06
8.1704e-07
8.15746e-07
1.1287e-06
1.1307e-06
1.90721e-06
1.12134e-06
1.11923e-06
8.18623e-07
8.16807e-07
1.12045e-06
1.13573e-06
1.90362e-06
1.12934e-06
1.11258e-06
8.20192e-07
8.15233e-07
1.91814e-06
1.11728e-06
1.12301e-06
8.14166e-07
1.12894e-06
1.13197e-06
3.45103e-06
3.40167e-06
3.78362e-06
3.40081e-06
3.47289e-06
3.77202e-06
3.39359e-06
3.44592e-06
3.77634e-06
1.30757e-06
9.62359e-07
4.99141e-07
7.07913e-07
9.57967e-07
7.05667e-07
1.31525e-06
1.32889e-06
4.99539e-07
9.70266e-07
7.0775e-07
1.40806e-06
9.74495e-07
8.91509e-07
1.57043e-06
8.86876e-07
1.55759e-06
1.41655e-06
1.33438e-06
9.7093e-07
5.04191e-07
7.17739e-07
9.68208e-07
7.16088e-07
1.33604e-06
1.45067e-06
9.98844e-07
1.61972e-06
9.1028e-07
1.61119e-06
9.07532e-07
1.45309e-06
8.1396e-07
1.88824e-06
1.12159e-06
1.12798e-06
8.15727e-07
1.11086e-06
1.11927e-06
1.44249e-06
8.88436e-07
1.57746e-06
9.88812e-07
8.98777e-07
1.60284e-06
1.4217e-06
1.3406e-06
9.77656e-07
5.05402e-07
7.19198e-07
7.15796e-07
9.75023e-07
1.34318e-06
1.33314e-06
5.0177e-07
7.11625e-07
9.73818e-07
1.4479e-06
9.94382e-07
9.1194e-07
1.61801e-06
9.03074e-07
1.60641e-06
1.45162e-06
1.44555e-06
8.90953e-07
1.5777e-06
9.89424e-07
9.01617e-07
1.60624e-06
1.42492e-06
1.34258e-06
9.78541e-07
5.07331e-07
7.22507e-07
7.19166e-07
9.7601e-07
1.34577e-06
1.33646e-06
7.08548e-07
5.04059e-07
9.6637e-07
7.15214e-07
1.31451e-06
9.75238e-07
1.45049e-06
9.95617e-07
9.14666e-07
1.62011e-06
9.05838e-07
1.60938e-06
1.45541e-06
8.18763e-07
1.93574e-06
1.11842e-06
1.12772e-06
1.13689e-06
1.1291e-06
8.15221e-07
1.2995e-06
9.56198e-07
4.96536e-07
7.03551e-07
7.0157e-07
9.52413e-07
1.30688e-06
1.40025e-06
9.69607e-07
8.85932e-07
1.56044e-06
8.81739e-07
1.5504e-06
1.4066e-06
1.30839e-06
9.65214e-07
5.00097e-07
7.08634e-07
7.06728e-07
9.60632e-07
1.31576e-06
1.40592e-06
9.7169e-07
1.56372e-06
8.9098e-07
1.55365e-06
8.86757e-07
1.41358e-06
1.3038e-06
9.61533e-07
4.98043e-07
7.06499e-07
9.57537e-07
7.04523e-07
1.31029e-06
1.40497e-06
9.74248e-07
1.56731e-06
8.9039e-07
1.55685e-06
8.85861e-07
1.4123e-06
1.3328e-06
9.68916e-07
5.04691e-07
7.18964e-07
9.66868e-07
7.17488e-07
1.33463e-06
1.44959e-06
9.99896e-07
1.61697e-06
9.10897e-07
1.60754e-06
9.08509e-07
1.45227e-06
3.0062e-06
1.912e-06
1.94954e-06
1.91632e-06
2.99891e-06
1.91562e-06
1.94713e-06
1.91456e-06
3.0046e-06
1.91863e-06
1.95125e-06
1.91618e-06
3.00842e-06
1.91757e-06
1.95156e-06
1.91751e-06
3.00117e-06
1.91888e-06
1.95496e-06
1.91444e-06
3.01963e-06
1.92339e-06
1.95691e-06
1.91473e-06
3.01896e-06
1.92426e-06
1.95423e-06
1.90707e-06
3.02709e-06
1.92857e-06
1.9531e-06
1.90869e-06
3.02059e-06
1.9286e-06
1.95366e-06
1.90977e-06
3.03443e-06
1.9276e-06
1.94899e-06
1.90793e-06
3.03162e-06
1.92422e-06
1.9442e-06
1.90385e-06
3.01394e-06
1.92375e-06
1.94257e-06
1.90969e-06
3.02315e-06
1.91697e-06
1.94191e-06
1.90655e-06
3.02129e-06
1.91922e-06
1.93923e-06
1.91025e-06
3.01722e-06
1.91774e-06
1.93578e-06
1.90882e-06
3.02122e-06
1.91229e-06
1.93361e-06
1.89371e-06
1.92704e-06
1.9336e-06
1.90314e-06
1.90509e-06
1.91823e-06
1.91606e-06
1.90397e-06
1.91437e-06
1.94921e-06
1.93085e-06
1.89189e-06
1.94239e-06
1.89774e-06
1.92555e-06
1.93353e-06
1.92814e-06
1.93456e-06
1.94856e-06
1.90649e-06
1.90381e-06
1.91628e-06
1.90825e-06
1.91749e-06
1.90231e-06
1.91697e-06
1.90501e-06
1.96296e-06
1.91515e-06
1.92949e-06
1.94975e-06
1.92955e-06
1.89e-06
1.94508e-06
1.90184e-06
1.9269e-06
1.93483e-06
1.93266e-06
1.93694e-06
1.9549e-06
1.90856e-06
1.90872e-06
1.92047e-06
1.90905e-06
1.92256e-06
1.90264e-06
1.91882e-06
1.9045e-06
1.96329e-06
1.91657e-06
1.92966e-06
1.9492e-06
1.9316e-06
1.88958e-06
1.95072e-06
1.90666e-06
1.92992e-06
1.93649e-06
1.93187e-06
1.93897e-06
1.95751e-06
1.91016e-06
1.90861e-06
1.9242e-06
1.91299e-06
1.92493e-06
1.90144e-06
1.9205e-06
1.90645e-06
1.96429e-06
1.9189e-06
1.93185e-06
1.95337e-06
1.92804e-06
1.89085e-06
1.95546e-06
1.90966e-06
1.93589e-06
1.93809e-06
1.93097e-06
1.9426e-06
1.95833e-06
1.91268e-06
1.9111e-06
1.92585e-06
1.9161e-06
1.92593e-06
1.90304e-06
1.9225e-06
1.90913e-06
1.96744e-06
1.92342e-06
1.93265e-06
1.95537e-06
1.93139e-06
1.89632e-06
1.95897e-06
1.91591e-06
1.93549e-06
1.94081e-06
1.94104e-06
1.94523e-06
1.95105e-06
1.91552e-06
1.91642e-06
1.92855e-06
1.918e-06
1.92952e-06
1.9094e-06
1.92297e-06
1.9114e-06
1.97252e-06
1.92501e-06
1.93422e-06
1.95766e-06
1.93627e-06
1.89913e-06
1.95214e-06
1.91632e-06
1.9395e-06
1.94547e-06
1.94658e-06
1.94191e-06
1.94955e-06
1.91447e-06
1.92268e-06
1.92801e-06
1.92414e-06
1.9306e-06
1.90823e-06
1.92661e-06
1.91051e-06
1.9738e-06
1.92432e-06
1.93628e-06
1.958e-06
1.93556e-06
1.8987e-06
1.9647e-06
1.9134e-06
1.94613e-06
1.94558e-06
1.9454e-06
1.94734e-06
1.96162e-06
1.91762e-06
1.92437e-06
1.92991e-06
1.92166e-06
1.92307e-06
1.91187e-06
1.9263e-06
1.91306e-06
1.9716e-06
1.92023e-06
1.93471e-06
1.95182e-06
1.93295e-06
1.89772e-06
1.96159e-06
1.91184e-06
1.94552e-06
1.94614e-06
1.94589e-06
1.9469e-06
1.95403e-06
1.91741e-06
1.92027e-06
1.9244e-06
1.9237e-06
1.92669e-06
1.91212e-06
1.9306e-06
1.90661e-06
1.96811e-06
1.91921e-06
1.93493e-06
1.95548e-06
1.93625e-06
1.89588e-06
1.95938e-06
1.90892e-06
1.9453e-06
1.9453e-06
1.94294e-06
1.94805e-06
1.96215e-06
1.91752e-06
1.92288e-06
1.92507e-06
1.91987e-06
1.92705e-06
1.90711e-06
1.92868e-06
1.90828e-06
1.9667e-06
1.91733e-06
1.93348e-06
1.95159e-06
1.93303e-06
1.89429e-06
1.9546e-06
1.90747e-06
1.94154e-06
1.94705e-06
1.93958e-06
1.94387e-06
1.95534e-06
1.91458e-06
1.91817e-06
1.92216e-06
1.92241e-06
1.92673e-06
1.90582e-06
1.92824e-06
1.90804e-06
1.96397e-06
1.9159e-06
1.93414e-06
1.95108e-06
1.93486e-06
1.89352e-06
1.93933e-06
1.90503e-06
1.93869e-06
1.94247e-06
1.93603e-06
1.9428e-06
1.96148e-06
1.91263e-06
1.92047e-06
1.9186e-06
1.91845e-06
1.92595e-06
1.90383e-06
1.9254e-06
1.90835e-06
1.96148e-06
1.91649e-06
1.93177e-06
1.94559e-06
1.93343e-06
1.89468e-06
1.94621e-06
1.90268e-06
1.9368e-06
1.94031e-06
1.93442e-06
1.94012e-06
1.95867e-06
1.91328e-06
1.9141e-06
1.9206e-06
1.91726e-06
1.92461e-06
1.90258e-06
1.92457e-06
1.9096e-06
1.9548e-06
1.91731e-06
1.93002e-06
1.94967e-06
1.93514e-06
1.89703e-06
1.9454e-06
1.89906e-06
1.93434e-06
1.93622e-06
1.93751e-06
1.94182e-06
1.95798e-06
1.91484e-06
1.91116e-06
1.91768e-06
1.91622e-06
1.93027e-06
1.8973e-06
1.92976e-06
1.90997e-06
1.9491e-06
1.91938e-06
1.92855e-06
1.94979e-06
1.93641e-06
1.90101e-06
1.94249e-06
1.90375e-06
1.93398e-06
1.93869e-06
1.93793e-06
1.9404e-06
1.94345e-06
1.91609e-06
1.90722e-06
1.9164e-06
1.91727e-06
1.93464e-06
1.89478e-06
1.93071e-06
1.91813e-06
1.95608e-06
1.91977e-06
1.92245e-06
1.95241e-06
1.94073e-06
1.9047e-06
1.94079e-06
1.90826e-06
1.93205e-06
1.93244e-06
1.9411e-06
1.94391e-06
1.95301e-06
1.91867e-06
1.90225e-06
1.91201e-06
1.92245e-06
1.94038e-06
1.89627e-06
1.93357e-06
1.92558e-06