/*--------------------------------*- C++ -*----------------------------------*\
| =========                 |                                                 |
| \\      /  F ield         | OpenFOAM: The Open Source CFD Toolbox           |
|  \\    /   O peration     | Version:  2206                                  |
|   \\  /    A nd           | Website:  www.openfoam.com                      |
|    \\/     M anipulation  |                                                 |
\*---------------------------------------------------------------------------*/
FoamFile
{
    version     2.0;
    format      ascii;
    arch        "LSB;label=32;scalar=64";
    class       volScalarField;
    location    "149";
    object      omega;
}
// * * * * * * * * * * * * * * * * * * * * * * * * * * * * * * * * * * * * * //

dimensions      [0 0 -1 0 0 0 0];

internalField   nonuniform List<scalar> 
67442
(
33.4774
55.3256
54.6708
64.1789
64.9813
54.9847
54.4076
64.5676
56.0835
56.1754
56.0746
64.8846
54.7279
296.294
171.826
397.52
298.361
174.854
33.5934
33.6979
33.3143
165.572
41.7198
107.553
399.117
40.0346
163.647
104.525
208.243
206.705
397.34
399.015
206.548
208.309
296.362
171.691
163.601
40.2578
104.746
163.439
40.0506
104.499
206.556
208.253
399.065
165.797
42.028
107.875
298.398
174.753
42.0767
165.597
107.853
298.415
174.643
41.8955
165.565
107.709
298.388
174.592
208.239
206.629
397.446
39.9957
163.718
104.64
296.361
171.706
296.343
171.673
398.969
397.39
415.185
296.238
213.958
213.92
415.329
325.979
171.73
306.294
183.53
306.225
183.39
326.052
397.368
329.436
174.797
186.587
309.703
417.668
298.286
216.923
216.918
417.865
417.876
298.346
216.886
329.313
174.825
186.562
309.706
186.624
309.597
329.428
398.983
399.12
182.983
135.773
208.231
306.708
135.841
306.573
182.913
181.336
134.461
206.684
306.44
134.311
306.317
181.203
248.24
402.143
402.035
401.956
401.867
248.302
397.239
398.886
399.015
182.255
134.569
206.51
305.909
305.838
134.184
182.126
181.771
135.45
208.292
307.194
307.118
135.117
181.591
248.195
401.659
402.576
401.532
402.441
248.239
415.254
296.269
213.892
213.851
415.413
326.002
171.692
306.305
183.395
306.225
183.343
326.08
181.238
134.006
206.575
306.442
306.363
134.519
181.19
182.766
135.471
208.222
306.813
135.553
306.693
182.684
248.297
402.142
402.294
401.957
402.167
248.328
398.888
329.474
174.794
309.711
186.488
417.788
298.328
216.891
216.876
417.989
417.996
298.387
216.871
329.352
174.822
309.712
186.503
309.605
186.508
329.468
417.767
298.306
216.923
216.888
417.982
329.387
174.746
186.351
309.777
186.505
309.65
329.514
417.702
298.28
216.961
216.933
417.918
329.359
174.815
309.77
186.42
309.643
186.614
329.483
181.691
135.433
208.235
307.111
307.079
135.069
181.643
182.082
134.385
206.598
306.03
134.01
305.895
181.797
248.285
402.661
401.745
402.524
401.611
248.33
397.299
415.235
296.271
213.966
213.925
415.391
326.017
171.744
183.372
306.335
183.364
306.257
326.094
415.208
296.258
213.955
213.934
415.366
326.007
171.742
183.378
306.33
183.446
306.25
326.083
398.781
397.245
24.7629
25.6269
17.9932
126.833
94.5275
93.794
65.0294
94.8371
94.042
126.609
126.77
93.8774
94.3484
64.217
93.127
93.7754
126.324
126.576
93.7649
94.1223
64.8022
94.4091
94.0175
126.481
126.598
94.3519
93.5197
63.8258
92.7745
94.0316
126.11
24.8407
25.6921
17.9924
25.7639
24.8583
18.0406
25.7334
24.7566
18.0069
85.4814
107.632
165.684
133.657
108.414
133.566
85.1487
74.738
107.614
115.861
68.266
115.997
68.5872
74.3897
83.2909
106.555
163.548
130.943
106.321
130.862
83.0521
71.933
104.727
65.1826
112.951
65.0347
113.127
71.6906
83.4532
106.338
163.384
131.174
130.751
105.735
83.2562
72.4123
104.418
113.115
65.608
112.49
65.1726
71.6943
83.1973
106.263
163.369
130.825
130.747
106.414
82.9602
72.1338
104.701
112.94
65.4068
113.117
65.2351
71.8953
85.9281
108.169
165.641
133.807
133.683
107.677
85.642
75.1689
107.634
116.131
68.4951
115.696
67.584
74.8667
85.7384
107.872
165.487
133.58
133.394
107.422
84.9045
75.0872
107.254
68.4682
115.998
67.5837
115.565
74.7329
85.5799
107.918
165.693
133.694
107.979
133.772
85.2571
74.9028
107.711
68.4479
116.129
68.7849
116.004
74.531
83.3785
106.56
163.706
131.25
106.775
131.259
83.105
72.1836
104.831
65.3071
113.118
65.16
113.297
71.9579
744.112
1630.66
4513.54
17065.8
116782
718.444
1596.44
4418.02
16620
116912
743.932
1631.07
4515.13
17077.1
116802
718.368
1597.02
4420.4
16634.7
116892
718.183
1595.69
4414.88
16600
116862
718.064
1596.06
4416.44
16611
116912
744.437
1631.68
4518.07
17095.7
116803
718.137
1596.15
4416.75
16612.6
116872
744.403
1632.66
4522.19
17121.2
116814
744.078
1631.52
4517.16
17090
116781
743.823
1630.91
4514.92
17075
116772
718.281
1595.98
4416.1
16608.7
116881
744.152
1630.94
4515.1
17077.4
116795
744.021
1630.37
4512.65
17062.2
116802
717.911
1595.64
4414.84
16600.8
116892
718.063
1595.32
4413.58
16593.2
116911
715.812
1596.17
4420.1
16635.2
116835
743.892
1630.48
4513.89
17069.9
116782
718.318
1596.44
4418.48
16623.6
116912
729.826
1614.1
4466.27
16835.4
116752
729.794
1611.86
4469.47
16900.5
116727
715.839
1597.51
4425.87
16671.9
116840
743.829
1631.47
4517.92
17096
116802
743.959
1631.21
4515.75
17080.8
116802
718.26
1597.22
4421.96
16645.2
116892
718.357
1597.01
4420.43
16634.9
116892
743.117
1631.56
4521.02
17124.2
116795
742.984
1631.77
4522.81
17136.7
116795
742.807
1630.22
4515.15
17087.3
116795
742.669
1630.34
4516.46
17096.7
116795
715.613
1596.84
4413.41
16561.3
116918
715.676
1596.65
4412.5
16556.4
116921
715.478
1596.9
4414.13
16566.2
116918
715.542
1596.68
4413.07
16560.4
116921
718.06
1595.66
4415.33
16603.5
116862
717.971
1596.28
4417.93
16620.8
116912
718.077
1596.13
4416.74
16612.7
116912
744.263
1631.57
4518.29
17098.2
116803
743.501
1632.67
4525.34
17150.7
116789
743.338
1632.79
4526.69
17160.4
116789
715.875
1597.58
4416.16
16578.6
116919
715.743
1597.63
4416.93
16584.1
116919
718.017
1596.35
4418.22
16622.4
116872
730.08
1615.01
4470.22
16859.1
116747
729.885
1612.21
4471.03
16910.3
116725
716.161
1598.57
4430.47
16700.1
116852
744.265
1632.92
4524.35
17136.2
116814
744.391
1632.67
4522.31
17121.9
116814
743.956
1631.86
4519.7
17107.4
116781
715.846
1597.63
4426.6
16675.7
116831
743.679
1631.2
4517.28
17091.5
116772
743.676
1632.86
4526.29
17156.2
116759
743.511
1632.78
4526.6
17159
116759
715.978
1597.77
4417.14
16583.5
116904
718.151
1595.96
4416.5
16611.9
116881
715.93
1596.58
4421.89
16646.4
116836
743.978
1630.84
4515.55
17081.4
116795
715.899
1596.45
4421.3
16643.7
116840
743.847
1630.3
4513.1
17066.3
116802
717.777
1595.78
4416.06
16609
116892
717.935
1595.32
4414.03
16596.6
116911
716.025
1596.79
4422.71
16652.7
116838
716.038
1598.11
4428.4
16687.9
116840
729.482
1611.92
4457.66
16782
116768
729.588
1609.52
4459.36
16837.4
116747
729.333
1609.25
4459.66
16841.5
116747
729.561
1611.93
4457.32
16779.5
116768
715.927
1596.25
4420.03
16634
116835
743.398
1632.13
4523.23
17137.4
116776
743.281
1632.24
4524.32
17145.1
116776
715.951
1597.39
4415.34
16573.3
116887
715.824
1597.48
4416.12
16578.5
116887
715.947
1597.23
4423.89
16658.6
116840
729.748
1614.58
4469.35
16856.2
116752
729.828
1611.82
4469.13
16898.3
116727
729.691
1612.33
4472.94
16925
116727
729.78
1614.01
4465.95
16833.7
116752
715.949
1597.27
4424.17
16660.5
116840
743.413
1632.74
4525.66
17152.2
116777
743.285
1632.93
4527.31
17163.7
116777
716.018
1597.88
4417.39
16584.9
116918
715.887
1597.97
4418.41
16592
116918
743.456
1632.15
4523.28
17137.7
116776
743.311
1632.19
4524.25
17145
116776
715.817
1597.25
4414.81
16569.8
116933
715.686
1597.28
4415.43
16574.4
116933
743.037
1631.41
4519.71
17115.5
116795
742.94
1631.71
4521.89
17130.3
116795
715.8
1597.21
4414.49
16568
116921
715.671
1597.28
4415.3
16573.6
116921
729.67
1612.61
4460.21
16799
116751
729.584
1609.53
4460.22
16845
116727
729.411
1609.55
4460.75
16849.2
116727
729.684
1612.48
4459.69
16796.5
116751
716.127
1596.84
4422.63
16651.6
116838
730.011
1615.52
4473.49
16881.2
116747
729.925
1612.18
4470.76
16908.6
116725
729.784
1612.68
4474.55
16935.2
116725
730.044
1614.94
4470.01
16858.2
116747
716.268
1598.27
4428.34
16685.7
116852
716.261
1598.28
4428.47
16686.7
116852
716.136
1597.81
4426.41
16674.5
116840
730.114
1615.76
4474.27
16886.2
116774
730.046
1612.75
4473.43
16924.8
116749
730.023
1613.34
4477.07
16949.4
116749
730.108
1615.13
4470.91
16864.4
116774
729.932
1615.24
4472.34
16873.9
116769
729.971
1612.5
4472.56
16920
116747
729.948
1613.09
4476.17
16944.6
116747
729.92
1614.61
4469.08
16853.2
116769
715.933
1597.32
4424.73
16663.7
116831
715.846
1597.77
4417.55
16586.5
116904
716.02
1596.61
4421.74
16645
116836
729.7
1612.8
4461.23
16803.8
116758
729.663
1610.03
4462.56
16858.5
116725
729.548
1610.07
4463.2
16863.6
116736
729.701
1612.63
4460.57
16800.5
116747
716.003
1596.5
4421.23
16642.5
116840
729.673
1612.68
4460.6
16801.2
116752
729.667
1610.15
4462.4
16858.5
116727
729.529
1610.06
4462.75
16861.6
116727
729.696
1612.59
4460.18
16799.4
116752
55.9962
64.7271
54.471
33.6178
174.847
41.8492
107.621
298.323
174.83
41.9108
165.602
107.893
398.968
208.232
329.449
174.756
186.607
309.594
186.421
309.718
329.308
418.013
298.426
216.871
216.885
417.785
329.486
174.656
309.602
186.498
309.723
186.312
329.349
399.135
181.966
135.449
208.242
306.972
135.2
306.989
181.966
181.843
134.367
134.252
181.975
248.528
402.493
402.605
248.457
126.441
64.0475
94.357
93.5253
93.9926
92.8347
126.459
25.5457
17.928
25.6921
24.7732
17.8652
74.6768
107.54
116.133
68.4127
115.91
67.5323
74.9543
85.1465
107.674
165.466
133.619
133.479
107.606
85.2651
74.6071
107.208
67.9835
115.812
67.9768
115.762
74.8728
82.6879
106.224
106.248
82.5259
64.7625
54.8044
55.9032
33.3678
397.239
398.877
206.534
208.298
296.243
171.814
163.587
40.1212
104.262
298.289
165.816
397.381
399.06
182.317
134.55
206.54
305.841
305.964
134.43
182.341
181.645
135.464
208.296
307.118
307.245
135.313
181.818
248.282
401.534
402.44
401.704
402.621
248.233
415.359
296.319
213.942
213.965
415.181
326.079
171.764
306.234
183.527
306.305
183.447
325.982
417.889
298.399
216.901
216.926
417.66
126.599
64.0345
93.8805
94.0663
93.1801
94.1366
126.668
24.6919
83.1072
106.275
163.405
131.101
106.149
131.006
83.2424
72.0356
104.355
113.041
64.859
112.577
65.0496
71.8589
85.4204
107.975
165.735
133.7
107.923
133.655
85.7084
744.264
1632.91
4524.27
17135.7
116814
718.258
1597.23
4421.96
16645.2
116892
716.259
1598.23
4428.18
16684.8
116852
744.386
1632.64
4522.13
17120.9
116814
718.355
1597
4420.4
16634.7
116892
729.727
1613.86
4465.54
16831.7
116752
729.75
1612.37
4472.7
16922.5
116727
729.701
1611.61
4468.72
16896.9
116727
729.67
1614.41
4468.97
16854.6
116752
730.002
1614.81
4469.62
16856.3
116747
729.851
1612.73
4474.34
16932.9
116725
729.804
1611.97
4470.33
16907
116725
729.938
1615.38
4473.16
16880.1
116747
716.129
1598.51
4430.31
16699.4
116852
743.272
1632.9
4527.14
17162.5
116777
743.375
1632.68
4525.54
17151.6
116777
715.882
1597.98
4418.32
16591.2
116918
715.957
1597.82
4417.29
16584.5
116918
718.074
1595.69
4415.39
16603.7
116862
717.954
1596.22
4417.68
16619.4
116912
743.938
1630.63
4514.09
17070.5
116782
743.794
1631.36
4517.47
17093.4
116802
718.177
1595.68
4414.92
16600.3
116862
718.074
1596.05
4416.3
16609.9
116912
715.902
1596.18
4419.91
16634.1
116835
744.036
1630.61
4513.65
17067.4
116782
743.909
1631.01
4514.85
17075.2
116802
715.69
1597.29
4415.43
16574.2
116933
715.673
1597.27
4415.24
16573.2
116921
715.926
1597.15
4423.61
16657
116840
715.794
1597.41
4425.58
16670.4
116840
743.315
1632.21
4524.29
17145.1
116776
743.439
1632.13
4523.35
17138.2
116776
742.915
1631.64
4521.61
17128.7
116795
743.023
1631.37
4519.52
17114.2
116795
715.79
1597.18
4414.42
16567.7
116921
715.802
1597.22
4414.75
16569.7
116933
729.483
1611.77
4457.09
16779
116768
729.466
1609.54
4459.67
16840.5
116747
729.413
1609.27
4459.08
16837.9
116747
729.362
1611.72
4457.39
16782
116768
715.751
1596.05
4419.97
16635.4
116835
66.0079
33.7218
56.6697
55.0222
65.9907
65.7357
65.6815
55.4959
54.9923
65.5425
56.5226
56.7784
56.752
65.7257
55.4907
208.193
206.678
65.867
208.242
206.684
173.963
296.269
171.636
397.416
398.052
298.38
174.812
33.9228
33.989
34.1408
165.751
42.3697
56.2625
108.314
399.087
40.4888
163.814
105.395
208.099
206.64
398.986
398.871
397.392
397.308
65.224
208.259
206.711
208.122
206.629
398.878
398.997
397.318
397.408
397.322
398.989
206.548
208.25
173.921
296.284
297.324
171.623
106.55
163.751
40.4593
41.3318
104.452
106.432
163.621
40.1552
56.0803
164.64
41.3398
104.665
206.581
208.139
65.5365
207.194
399.009
165.782
42.4884
108.446
298.412
174.655
42.6197
165.536
108.341
298.366
174.798
42.5634
165.562
108.251
298.351
174.792
208.185
206.566
397.37
40.7609
163.814
105.371
296.303
171.911
296.336
171.895
398.989
397.403
248.237
402.059
401.963
402.179
402.067
248.277
182.885
135.913
306.673
208.248
306.637
182.658
135.779
181.301
134.758
306.411
206.682
306.377
181.073
134.546
248.201
402.18
402.066
402.069
401.972
248.222
182.646
306.621
208.135
136.029
306.688
182.894
135.566
181.096
306.36
206.633
134.771
306.424
181.306
134.295
327.556
308.179
185.654
173.135
307.748
184.839
327.951
415.639
296.206
213.911
214.138
415.453
416.469
296.954
215.074
326.634
172.352
306.54
183.31
306.89
184.013
326.244
397.25
397.907
417.726
298.392
216.866
217.043
417.842
329.362
174.995
186.472
309.669
186.758
309.645
329.39
399.034
182.958
135.996
306.664
208.271
182.717
135.919
306.669
181.371
134.771
306.404
206.753
181.238
134.513
306.405
248.286
402.164
402.051
248.187
402.08
401.983
398.89
398.985
397.326
397.394
248.281
402.192
402.081
248.243
402.06
401.962
182.816
135.904
306.628
208.103
182.978
306.668
135.679
181.313
134.788
306.366
206.629
181.33
306.408
134.436
248.225
402.06
401.963
248.308
402.165
402.052
182.901
306.703
135.869
208.243
182.688
306.628
135.95
181.33
306.438
134.287
206.706
181.137
306.365
134.723
398.971
398.877
397.387
397.317
397.153
397.779
398.93
182.39
134.839
206.455
305.89
305.87
134.595
182.158
181.941
135.747
208.42
307.188
307.188
135.57
181.674
206.76
134.637
248.25
401.669
402.574
401.562
402.477
248.249
327.565
308.174
185.623
173.142
307.745
184.796
327.963
415.697
296.218
213.801
214.113
415.499
416.548
215.531
296.996
214.983
416.715
326.642
172.372
306.537
183.223
306.892
183.928
326.251
248.353
401.436
401.406
402.404
181.291
134.586
206.536
306.361
306.386
134.366
181.059
182.75
135.68
208.236
306.767
135.434
306.706
182.503
181.063
305.989
206.793
134.808
306.195
134.422
181.329
182.587
208.136
135.527
306.662
248.266
402.066
402.227
401.939
402.189
248.237
398.959
399.026
417.872
298.428
216.793
216.953
417.997
329.412
174.934
309.675
186.328
309.653
186.601
329.441
329.434
174.696
186.324
309.688
417.822
298.425
216.839
216.994
417.95
417.93
298.321
216.796
329.403
174.843
186.424
309.697
186.649
309.663
329.434
329.434
174.628
309.685
186.36
417.817
298.43
216.83
217.02
417.946
417.92
298.305
216.819
329.407
174.817
309.694
186.452
309.66
186.685
329.439
181.898
135.79
208.355
307.14
307.13
135.653
181.671
182.249
134.663
206.675
305.949
134.446
305.952
181.978
248.358
402.61
401.685
402.544
401.645
248.299
397.334
415.243
296.316
213.989
214.057
415.346
326.032
171.836
183.586
306.313
183.564
306.269
326.072
415.248
296.297
213.946
214.032
415.352
326.031
171.885
183.54
306.314
183.55
306.271
326.071
398.895
398.95
397.332
127.03
95.1889
94.4805
65.0924
126.502
94.4384
94.1461
24.9674
25.8227
18.1684
126.973
95.1753
94.4126
65.2275
126.765
94.6904
93.9902
126.987
65.6325
95.1452
94.0241
126.662
94.8575
94.059
127.063
94.4187
94.7836
65.0171
93.9808
94.3432
126.542
126.754
94.3629
94.6465
64.6047
94.0277
93.9891
126.414
126.916
95.166
94.0261
64.9739
93.5805
94.5785
126.7
126.744
65.6535
95.129
94.4741
126.591
94.8209
93.7685
25.172
26.0393
18.2567
26.0515
25.117
18.2283
26.058
25.2063
18.2348
85.9838
108.39
165.756
133.862
108.358
133.778
85.0655
85.3054
165.693
108.293
133.703
75.2486
108.014
116.317
69.188
116.024
68.4698
74.8861
83.909
107.022
163.748
131.662
106.627
131.344
83.2691
72.6097
104.715
66.4028
113.591
65.7281
113.197
71.9296
126.786
65.4994
94.6219
94.1384
126.673
94.9495
93.8626
73.0731
114.754
67.6142
105.59
113.897
66.7512
73.843
83.3688
106.977
163.49
131.48
131.144
106.62
83.8089
83.95
164.212
132.073
106.624
72.4104
104.784
112.899
66.2119
113.078
66.0628
72.2469
73.9203
115.334
67.6153
106.369
114.41
66.6207
74.0589
83.7758
106.867
163.275
131.282
131.275
106.682
83.7189
83.5046
132.567
163.849
107.511
131.806
85.2327
106.625
72.519
104.918
112.905
66.3146
113.513
66.1199
72.6942
126.276
65.3251
94.6802
94.6891
94.4625
93.7389
126.956
86.1873
108.673
166.122
134.046
133.982
108.281
85.404
75.5267
108.135
116.505
69.3276
116.273
68.5944
74.7076
86.017
108.347
165.804
133.817
133.769
108.09
85.1691
75.4724
107.985
69.3566
116.335
68.6833
116.098
74.6057
85.9739
108.432
165.9
133.819
108.284
133.802
85.0908
75.4034
107.996
69.221
116.394
68.5165
116.244
74.525
83.8589
107.099
163.733
131.54
106.635
131.289
83.6967
72.6366
104.689
66.4439
113.531
65.8838
113.158
72.202
33.394
56.3321
54.6976
65.6062
33.3857
56.2709
54.7244
65.6439
33.3956
56.1945
54.7458
65.6017
33.5343
56.2743
54.8204
65.6074
33.584
56.4755
54.867
65.8351
33.5385
56.3535
54.9121
65.8789
33.6542
56.2805
55.1017
66.1099
33.7854
56.306
55.1256
66.0284
33.7704
56.2914
55.0978
65.9319
33.8085
56.302
55.0881
65.9408
33.7957
56.3089
55.0657
66.0303
33.7645
56.3275
55.1859
65.8567
33.7382
56.182
55.2152
65.987
33.7062
56.2834
55.3577
65.9036
33.7517
56.3566
55.1649
65.9668
33.721
56.3639
55.0589
64.8194
54.9835
55.3237
65.3036
56.1042
56.1842
56.1281
56.5164
64.6994
54.5201
55.1465
65.5461
63.6673
64.8457
54.3424
54.7326
54.9848
55.253
64.8898
65.1539
55.871
55.6716
56.0849
56.1662
55.519
56.1517
56.535
63.8998
64.6936
54.7481
54.4109
55.2254
65.4498
64.0399
64.9098
54.1674
54.4765
55.0166
55.2022
64.6964
65.2026
55.8174
55.72
56.0206
56.1414
56.259
55.9906
56.5026
63.8579
64.7048
54.4986
54.5073
55.2427
65.431
64.4415
65.1019
54.6197
54.6838
55.09
55.0761
64.3304
65.1877
55.5507
55.2213
56.0857
56.3112
55.5539
55.9345
56.6037
64.1876
65.0491
54.6224
54.5403
55.1708
65.4323
64.8253
65.2165
54.7542
54.6412
55.2522
55.2795
64.356
65.4907
55.3638
55.522
56.2641
56.2752
56.1989
55.9225
56.5438
64.2499
65.0172
54.3729
54.2029
55.2511
65.7374
64.4104
65.4656
54.8333
55.0754
55.1672
55.3193
65.0594
65.5234
55.9727
55.7947
56.329
56.4797
55.8187
55.9287
56.7491
64.526
65.3258
54.8545
54.6756
55.2993
65.7219
65.1272
65.3385
54.2519
55.0205
55.3048
55.4115
65.1673
65.3647
55.7444
55.9875
56.2756
56.5007
56.31
56.0942
56.6044
64.3874
65.4591
54.6358
54.8874
55.4722
65.5717
64.1441
65.4945
54.5158
54.6612
55.4897
55.3142
64.7529
65.3737
55.828
55.8029
56.4564
56.6489
56.1814
56.0706
56.6566
64.4899
65.3141
55.1977
54.9936
55.5485
65.4565
64.6693
65.6257
55.1904
54.8089
55.3941
55.4417
65.0673
65.3693
55.8314
55.9044
56.372
56.593
55.8074
56.1055
56.6733
64.4477
65.3073
55.0433
54.4723
55.3702
65.3656
64.6113
65.4729
54.9613
54.852
55.39
55.3584
64.804
65.3294
56.0116
56.068
56.4551
56.4922
55.9767
56.053
56.7231
64.5563
65.3975
54.9095
54.8526
55.3166
65.759
64.8517
65.6448
55.0397
54.6122
55.3605
55.5205
65.0085
65.204
55.9849
55.582
56.3913
56.5884
55.9794
55.7185
56.7358
64.6753
65.2485
55.1258
54.7517
55.4588
65.9841
65.269
65.582
54.9301
55.2358
55.3603
55.4617
64.6866
65.3221
55.6368
56.3233
56.5684
56.57
56.3322
56.2029
56.6758
64.4672
65.3679
55.2095
54.586
55.3696
65.6638
64.9507
65.42
54.43
54.8633
55.3865
55.3294
64.536
65.2787
56.2208
56.3385
56.5422
56.5777
56.2564
55.7122
56.6556
64.9873
65.5401
54.546
54.5873
55.5402
65.4602
64.9097
65.3758
55.1389
54.6254
55.3506
55.3529
64.7529
65.6026
56.0284
56.1911
56.4682
56.581
56.1562
55.6358
56.6458
65.1504
65.3966
54.9356
54.8068
55.3672
65.798
64.5519
65.4176
55.1354
54.6398
55.4502
55.5896
65.2371
65.2823
55.6236
56.0618
56.5543
56.5946
56.3018
55.7476
56.6841
64.2269
65.5227
54.7839
54.9763
55.3537
65.7908
64.7183
65.3953
54.8767
55.2849
55.2939
55.4746
64.2061
65.4495
56.0637
55.7563
56.4857
56.5577
55.9576
56.1375
56.6307
64.729
65.353
54.8841
54.8518
55.3491
65.4443
64.91
65.4191
54.5039
54.4997
55.3029
55.4848
64.9493
65.3303
55.6452
56.1617
56.3119
56.5923
55.8467
56.058
56.5135
64.1882
65.0761
54.4296
54.8142
55.2898
171.752
296.217
397.318
174.78
298.249
33.2705
33.8147
33.649
33.7893
108.082
56.0601
165.764
41.6418
398.956
104.976
54.2331
40.1427
163.629
65.4461
208.213
206.656
171.678
296.272
171.748
296.217
397.453
397.342
174.745
298.323
174.749
298.254
33.2518
33.3607
33.6204
33.2522
33.8442
33.6334
33.8106
108.114
165.76
42.3557
55.9027
108.036
165.699
41.6353
399.111
398.973
104.941
40.2938
163.686
53.8383
105.021
39.7062
163.632
208.206
206.657
65.4692
208.182
206.634
171.662
296.279
171.673
296.231
397.464
397.338
174.711
298.345
174.705
298.275
33.659
33.3729
33.5477
33.2653
33.7372
33.6079
33.7646
108.044
165.652
42.1929
55.7229
108.054
165.619
41.739
399.142
399.019
105.059
40.2512
163.634
54.2022
105.162
39.8826
163.61
208.187
206.658
65.6273
208.166
206.637
171.63
296.292
171.633
296.249
397.485
397.387
174.756
298.367
174.603
298.297
33.4021
33.4939
33.4227
33.3961
33.664
33.6748
33.7883
108.102
165.646
42.122
55.7759
107.976
165.59
41.5737
399.192
399.069
105.138
40.3325
163.621
54.3224
105.085
39.9548
163.583
208.173
206.663
65.6112
208.16
206.633
171.643
296.317
171.636
296.262
397.514
397.383
174.86
298.385
174.793
298.31
33.339
33.3548
33.4341
33.5132
33.7136
33.6456
33.7753
108.253
165.672
42.1037
55.5357
108.147
165.588
41.6071
399.229
399.09
105.165
40.2348
163.611
54.4226
105.142
39.5698
163.636
208.173
206.663
65.7116
208.163
206.646
171.638
296.323
171.69
296.267
397.52
397.39
174.831
298.389
174.727
298.302
33.3666
33.2908
33.3051
33.2652
33.7651
33.688
33.8829
108.188
165.659
42.1823
56.1839
108.007
165.598
41.8341
399.239
399.086
105.218
40.4127
163.66
54.3227
105.209
39.9649
163.636
208.182
206.674
65.7741
208.174
206.654
171.704
296.326
171.706
296.26
397.5
397.353
174.879
298.375
174.755
298.289
33.4829
33.2294
33.5063
33.5671
33.7541
33.9297
34.0341
108.095
165.681
42.2422
55.9375
108.135
165.691
41.3619
399.218
399.057
105.286
40.4439
163.702
54.4
105.229
40.092
163.701
208.175
206.665
65.9178
208.18
206.648
171.695
296.317
171.712
296.253
397.486
397.363
174.917
298.374
174.774
298.29
33.4331
33.7957
33.7932
33.4531
33.7594
33.8875
34.0062
108.175
165.673
42.1923
55.7032
108.164
165.634
41.7127
399.184
399.027
105.28
40.4443
163.718
54.6807
105.326
39.8062
163.662
208.207
206.677
65.957
208.211
206.664
171.729
296.303
171.743
296.238
397.478
397.342
174.858
298.366
174.846
298.289
33.4717
33.6863
33.7117
33.6887
33.8713
33.9198
33.9697
108.321
165.665
42.2588
55.7693
108.204
165.671
41.8397
399.176
399.027
105.212
40.6246
163.753
54.6708
105.28
40.2791
163.758
208.218
206.679
65.9755
208.208
206.665
171.762
296.294
171.751
296.23
397.492
397.371
174.886
298.367
174.769
298.287
33.5059
33.5968
33.7163
33.7104
33.9994
33.8672
33.9906
108.129
165.717
42.3096
55.8405
108.106
165.699
41.2637
399.177
399.026
105.263
40.6609
163.813
54.3824
105.327
40.2641
163.807
208.221
206.678
65.8731
208.206
206.651
171.776
296.292
171.775
296.231
397.472
397.328
174.83
298.359
174.841
298.27
33.6987
33.3121
33.7418
33.6565
33.8146
33.9408
33.9981
108.335
165.749
42.1954
55.352
108.188
165.727
41.8711
399.174
399.031
105.198
40.6806
163.79
54.6414
105.148
40.0993
163.763
208.208
206.672
65.9622
208.199
206.64
171.783
296.297
171.798
296.232
397.462
397.34
174.857
298.348
174.808
298.268
33.4722
33.5049
33.468
33.6798
33.8369
34.0528
34.0431
108.269
165.806
42.1125
55.935
108.231
165.8
41.3387
399.18
399.031
105.317
40.4799
163.828
54.1775
105.388
39.8766
163.812
208.191
206.658
65.8874
208.198
206.634
171.761
296.291
171.802
296.23
397.446
397.301
174.856
298.352
174.846
298.273
33.4332
33.8368
33.8846
33.4181
33.8667
34.0005
34.0318
108.31
165.789
42.2434
55.8379
108.199
165.7
41.4708
399.172
399.012
105.263
40.4267
163.797
54.8845
105.235
39.8989
163.766
208.212
206.67
65.8905
208.202
206.666
171.787
296.292
171.789
296.236
397.441
397.317
174.872
298.358
174.839
298.279
33.4238
33.7449
33.8021
33.3764
33.8384
33.9633
34.0155
108.245
165.782
42.3871
55.9224
108.176
165.699
41.996
399.151
398.995
105.198
40.474
163.795
54.5296
105.189
40.0015
163.775
208.202
206.676
65.8178
208.2
206.677
171.799
296.301
171.779
296.242
397.423
397.283
174.887
298.358
174.888
298.273
33.4057
33.6605
33.8825
33.427
33.834
33.9177
34.0142
108.262
165.807
42.2627
55.5262
108.193
165.776
41.7813
399.128
398.979
105.33
40.5428
163.794
54.7207
105.287
40.0677
163.755
208.213
206.699
65.8219
208.199
206.673
171.8
296.301
171.856
296.249
397.411
397.306
174.888
298.346
174.794
298.283
33.3803
33.5349
33.5467
33.4112
33.9701
33.8128
34.0712
108.257
165.825
42.2483
55.9395
108.176
165.71
41.8707
399.113
398.982
105.25
40.5522
163.867
54.5063
105.33
40.1317
163.77
208.209
206.683
65.9225
208.199
206.661
171.737
296.292
171.788
296.249
397.407
397.301
174.959
298.357
174.783
298.306
33.6961
33.4935
33.5933
33.6294
33.7854
33.9449
34.084
108.248
165.778
42.2059
55.6084
108.207
165.699
41.9056
399.106
398.989
105.348
40.4249
163.811
54.4615
105.438
40.0842
163.823
397.209
398.856
64.9309
206.499
208.265
397.21
397.336
398.861
399.006
64.4995
206.484
208.254
206.492
208.254
171.703
296.247
104.842
54.1307
163.59
39.7696
104.912
55.087
163.516
40.2342
171.717
296.215
296.287
171.761
171.748
296.248
296.327
171.732
104.51
54.8175
163.561
40.2305
163.408
39.6399
104.863
104.187
54.7319
163.512
40.4843
163.42
40.2875
104.967
65.1473
206.612
208.306
398.899
397.341
397.459
64.2117
206.568
208.236
206.609
208.275
398.877
399.067
108.006
55.6218
165.727
41.2294
174.753
298.293
107.887
55.3246
41.6395
165.485
174.572
298.245
298.323
174.739
107.553
55.4726
165.731
42.0236
165.481
41.8718
108.043
174.537
298.291
298.369
174.761
107.302
56.0025
42.079
165.56
41.512
165.332
107.914
174.709
298.279
108.194
55.7189
41.651
165.693
174.811
298.25
107.541
56.0767
165.71
41.8287
165.488
41.8432
108.039
174.572
298.281
298.382
174.795
107.633
56.4358
42.2653
165.768
42.0559
165.529
108.219
174.681
298.257
298.356
174.775
64.8473
208.214
206.561
397.268
398.951
399.099
63.9514
208.226
206.602
208.223
206.542
397.29
397.402
105.024
54.4927
40.2089
163.754
171.776
296.24
171.846
296.232
104.4
54.458
40.1566
163.656
40.0114
163.429
104.977
104.58
54.8487
40.4254
163.731
40.2425
163.554
104.954
171.691
296.24
296.313
171.739
171.773
296.222
296.309
171.773
398.757
397.219
64.4002
208.19
206.633
208.178
206.628
398.758
398.923
397.222
397.348
397.341
397.211
399.043
398.874
206.486
208.244
64.8032
206.457
208.229
397.227
397.344
398.898
399.054
63.9799
206.449
208.224
206.471
208.219
171.678
296.333
171.652
296.249
104.794
163.318
39.4561
54.0034
103.822
163.487
40.0642
104.942
163.36
39.8291
54.2862
104.641
163.476
40.4258
171.425
296.222
296.292
171.654
171.575
296.26
296.33
171.642
104.401
54.8095
163.499
40.3297
163.298
39.7799
104.857
103.918
55.0663
163.386
40.6609
163.246
40.1918
104.844
206.562
208.225
65.1922
206.541
208.206
399.054
398.881
397.352
397.477
63.7953
206.539
208.193
206.537
208.209
398.891
399.059
108.026
165.384
41.2189
55.5648
107.614
165.689
41.8776
174.726
298.406
174.494
298.299
107.853
41.2829
165.495
55.8881
107.343
41.8921
165.478
174.703
298.263
298.352
174.696
107.576
55.4725
165.624
41.9878
165.349
41.3966
108.041
174.51
298.307
298.404
174.678
107.303
55.9989
42.1424
165.51
41.6131
165.278
107.852
174.738
298.393
174.617
298.288
108.154
41.8284
165.544
56.2117
107.67
42.0316
165.709
174.739
298.366
174.527
298.257
107.557
56.0393
165.647
41.7216
165.688
42.1985
108.086
174.459
298.291
298.399
174.651
107.605
55.9389
42.2019
165.705
42.0326
165.448
108.149
174.429
298.261
298.367
174.716
208.217
206.598
64.7281
208.169
206.551
397.417
397.281
398.983
399.139
63.9597
208.188
206.561
208.165
206.54
397.309
397.426
104.952
39.5749
163.576
54.9595
104.495
40.1944
163.7
171.733
296.317
171.557
296.234
171.729
296.306
171.69
296.222
104.353
54.5758
40.0384
163.509
39.9479
163.548
104.744
104.328
54.9992
40.5017
163.709
39.9606
163.635
104.818
171.778
296.244
296.317
171.781
171.677
296.23
296.309
171.658
398.929
398.764
397.357
397.232
64.8725
208.173
206.632
208.163
206.617
398.783
398.94
397.245
397.366
397.366
397.243
399.086
398.926
206.465
208.218
64.7884
206.437
208.212
397.262
397.379
398.951
399.106
64.2048
206.443
208.204
206.456
208.161
171.617
296.355
171.596
296.265
104.785
163.253
39.937
54.8632
104.534
163.53
40.0335
104.688
163.489
40.3524
55.1558
104.444
163.469
39.9726
171.581
296.234
296.303
171.532
171.569
296.27
296.343
171.587
104.286
54.3986
163.464
40.1968
163.291
40.0172
104.804
103.866
54.8854
163.449
40.4313
163.238
40.1182
104.91
206.488
208.194
65.0953
206.573
208.26
399.068
398.935
397.374
397.482
64.7882
206.532
208.19
206.57
208.233
398.919
399.106
107.881
165.376
41.4753
55.3928
107.58
165.562
41.0716
174.663
298.413
174.399
298.316
107.808
41.8339
165.173
55.4033
107.337
41.3983
165.494
174.427
298.288
298.381
174.7
107.304
55.7732
165.641
42.0173
165.344
41.8604
107.921
174.445
298.321
298.417
174.65
107.396
55.943
42.0939
165.471
42.0507
165.216
107.643
174.701
298.401
174.421
298.29
108.051
41.3091
165.334
55.8257
107.605
41.9574
165.62
174.729
298.37
174.541
298.269
107.461
55.9316
165.657
41.9415
165.29
41.8916
108.01
174.47
298.297
298.397
174.645
107.509
56.3654
42.2773
165.63
41.7383
165.425
108.014
174.503
298.278
298.384
174.641
208.186
206.542
64.7742
208.132
206.513
397.442
397.309
399.034
399.19
63.8291
208.154
206.544
208.113
206.504
397.341
397.456
104.961
40.1287
163.578
55.1148
104.386
40.2362
163.683
171.709
296.327
171.691
296.247
171.694
296.316
171.535
296.229
104.208
54.4154
40.1339
163.494
39.7517
163.459
104.959
104.088
54.6741
40.4065
163.651
40.2276
163.46
105.029
171.753
296.258
296.33
171.725
171.671
296.238
296.31
171.658
398.962
398.805
397.379
397.254
64.9657
208.153
206.641
208.135
206.64
398.83
398.986
397.269
397.388
397.401
397.278