/*--------------------------------*- C++ -*----------------------------------*\
| =========                 |                                                 |
| \\      /  F ield         | OpenFOAM: The Open Source CFD Toolbox           |
|  \\    /   O peration     | Version:  2206                                  |
|   \\  /    A nd           | Website:  www.openfoam.com                      |
|    \\/     M anipulation  |                                                 |
\*---------------------------------------------------------------------------*/
FoamFile
{
    version     2.0;
    format      ascii;
    arch        "LSB;label=32;scalar=64";
    class       volScalarField;
    location    "149";
    object      p;
}
// * * * * * * * * * * * * * * * * * * * * * * * * * * * * * * * * * * * * * //

dimensions      [0 2 -2 0 0 0 0];

internalField   nonuniform List<scalar> 
67442
(
-0.00960006
-0.00959998
-0.00960011
-0.00958862
-0.00958852
-0.00960001
-0.00959994
-0.00958848
-0.00960003
-0.00960009
-0.00960007
-0.00958862
-0.0096001
-0.00958877
-0.00958875
-0.00958871
-0.0095886
-0.00958834
-0.0096
-0.0096001
-0.00960006
-0.00958871
-0.00960003
-0.00958856
-0.00958867
-0.00960009
-0.00958912
-0.00958932
-0.00958861
-0.00958878
-0.00958874
-0.00958862
-0.00958872
-0.00958858
-0.00958873
-0.00958873
-0.00958905
-0.00960002
-0.00958924
-0.00958901
-0.00959999
-0.00958922
-0.00958869
-0.0095885
-0.00958856
-0.00958877
-0.00960006
-0.00958859
-0.00958863
-0.00958834
-0.0096001
-0.0095888
-0.0095886
-0.00958855
-0.0095883
-0.00960007
-0.00958878
-0.00958858
-0.00958862
-0.00958832
-0.00958864
-0.00958875
-0.0095888
-0.0096001
-0.00958912
-0.00958933
-0.00958884
-0.00958884
-0.00958884
-0.00958884
-0.00958866
-0.00958881
-0.00961106
-0.00961117
-0.00958876
-0.00961117
-0.00958886
-0.00961108
-0.00961116
-0.00958882
-0.00958875
-0.00961107
-0.00961116
-0.00958883
-0.00961115
-0.00963358
-0.0096333
-0.00963335
-0.00963357
-0.00961134
-0.00961141
-0.00958852
-0.00961149
-0.00958867
-0.00963364
-0.00963357
-0.00963348
-0.00961141
-0.0096117
-0.00958839
-0.0095886
-0.00961164
-0.00961143
-0.00958862
-0.00961142
-0.00963364
-0.00961151
-0.0095882
-0.00961144
-0.00958876
-0.00961184
-0.00961131
-0.00958857
-0.00961143
-0.00958839
-0.00961128
-0.00958886
-0.00961166
-0.00961122
-0.00958865
-0.00961147
-0.00958874
-0.00958878
-0.00961134
-0.0096113
-0.0095886
-0.00961119
-0.00961137
-0.00963359
-0.00961139
-0.00958835
-0.00961123
-0.00958879
-0.00961116
-0.00961159
-0.00958858
-0.00961148
-0.00958813
-0.00961141
-0.00958871
-0.00961127
-0.00961182
-0.0095885
-0.00961143
-0.00958871
-0.00958868
-0.00961124
-0.00961129
-0.00958854
-0.00961102
-0.00961112
-0.00958872
-0.00961113
-0.00958883
-0.00961106
-0.00961115
-0.00958881
-0.00958873
-0.00961107
-0.00961113
-0.00958881
-0.00961152
-0.00958833
-0.00961122
-0.00958875
-0.00961127
-0.00961159
-0.0095886
-0.00961116
-0.00958805
-0.0096113
-0.00958865
-0.00961167
-0.00961104
-0.00958838
-0.00961136
-0.00958866
-0.00958862
-0.00961123
-0.00961119
-0.00958849
-0.00961132
-0.00963359
-0.00963331
-0.00963358
-0.00963336
-0.00961137
-0.00961144
-0.00958855
-0.00961152
-0.0095887
-0.00963367
-0.0096336
-0.00963351
-0.00961143
-0.0096117
-0.00958861
-0.0095884
-0.00961144
-0.00961166
-0.00958863
-0.0096113
-0.00961137
-0.00958847
-0.00961144
-0.00958863
-0.00961137
-0.00961167
-0.00958835
-0.00958857
-0.0096116
-0.0096114
-0.00958858
-0.00961135
-0.00961143
-0.00958853
-0.00961151
-0.00958868
-0.0096114
-0.00961169
-0.00958858
-0.00958837
-0.00961141
-0.00961164
-0.0095886
-0.00961156
-0.00958824
-0.00961148
-0.00958876
-0.00961136
-0.0096119
-0.00958855
-0.00961143
-0.00958837
-0.00961126
-0.00958885
-0.00961165
-0.00961118
-0.00958865
-0.00961148
-0.00958875
-0.00958875
-0.00961138
-0.00961127
-0.0095886
-0.00961125
-0.00961113
-0.00961124
-0.00958883
-0.00961123
-0.00958894
-0.00961116
-0.00961124
-0.00958884
-0.00958892
-0.00961124
-0.00961116
-0.00958892
-0.00961112
-0.00961124
-0.00958883
-0.00961123
-0.00958894
-0.00961115
-0.00961124
-0.00958884
-0.00958892
-0.00961123
-0.00961116
-0.00958892
-0.0096114
-0.00961126
-0.00959999
-0.00960005
-0.00959995
-0.00961072
-0.00958855
-0.00958869
-0.00961151
-0.0096115
-0.00961137
-0.00958936
-0.0096107
-0.00958859
-0.00958845
-0.00961144
-0.00961131
-0.00961146
-0.00958927
-0.00961057
-0.00958857
-0.00958838
-0.00961136
-0.00961139
-0.00961118
-0.00958923
-0.00961077
-0.00958859
-0.0095886
-0.00961154
-0.00961139
-0.00961157
-0.00958933
-0.00959997
-0.00959999
-0.00959986
-0.00960005
-0.00960002
-0.00959999
-0.00959999
-0.0096
-0.00959987
-0.00961204
-0.00958769
-0.00961116
-0.00958868
-0.00961212
-0.00961118
-0.00958782
-0.0096122
-0.00961137
-0.00958863
-0.00958755
-0.00961128
-0.00961237
-0.00958767
-0.00961158
-0.00958821
-0.00961095
-0.00958922
-0.00961189
-0.0096108
-0.00958851
-0.00961148
-0.00961074
-0.00958858
-0.00958932
-0.00961151
-0.00961075
-0.00958861
-0.00961151
-0.00958813
-0.00961089
-0.00958917
-0.00961075
-0.0096118
-0.00958843
-0.00961142
-0.00961066
-0.00958923
-0.00958848
-0.00961068
-0.00961144
-0.00958851
-0.00961145
-0.00958809
-0.00961085
-0.00958912
-0.00961071
-0.00961175
-0.00958841
-0.00961138
-0.00961065
-0.0095892
-0.00958849
-0.00961065
-0.00961142
-0.00958851
-0.00961211
-0.00958775
-0.00961123
-0.00958873
-0.00961124
-0.0096122
-0.00958785
-0.00961226
-0.0096114
-0.00958868
-0.00958756
-0.00961133
-0.00961242
-0.0095877
-0.00961215
-0.00958781
-0.00961128
-0.00958877
-0.00961129
-0.00961223
-0.0095879
-0.0096123
-0.00961142
-0.00958758
-0.00958868
-0.00961243
-0.00961135
-0.00958772
-0.00961212
-0.00958779
-0.00961125
-0.00958874
-0.00961222
-0.00961126
-0.00958791
-0.00961227
-0.00961139
-0.00958758
-0.00958866
-0.00961239
-0.00961132
-0.00958773
-0.00961156
-0.0095882
-0.00961094
-0.00958923
-0.00961186
-0.00961079
-0.00958852
-0.00961146
-0.00961074
-0.00958859
-0.00958933
-0.00961151
-0.00961074
-0.00958863
-0.00958885
-0.00958885
-0.00958885
-0.00958886
-0.00958886
-0.00958874
-0.00958875
-0.00958875
-0.00958875
-0.00958875
-0.00958873
-0.00958873
-0.00958873
-0.00958873
-0.00958873
-0.00958874
-0.00958874
-0.00958874
-0.00958874
-0.00958874
-0.00958878
-0.00958878
-0.00958878
-0.00958878
-0.00958879
-0.00958868
-0.00958869
-0.00958868
-0.00958868
-0.00958868
-0.00958881
-0.00958882
-0.00958882
-0.00958882
-0.00958883
-0.00958863
-0.00958863
-0.00958863
-0.00958863
-0.00958863
-0.00958876
-0.00958877
-0.00958876
-0.00958876
-0.00958876
-0.00958868
-0.00958869
-0.00958868
-0.00958868
-0.00958868
-0.00958875
-0.00958875
-0.00958875
-0.00958875
-0.00958875
-0.00958884
-0.00958884
-0.00958885
-0.00958885
-0.00958885
-0.00958892
-0.00958893
-0.00958893
-0.00958893
-0.00958893
-0.00958893
-0.00958893
-0.00958893
-0.00958894
-0.00958894
-0.00958872
-0.00958873
-0.00958873
-0.00958872
-0.00958872
-0.00958886
-0.00958886
-0.00958886
-0.00958886
-0.00958887
-0.00961106
-0.00961106
-0.00961106
-0.00961105
-0.00961105
-0.00961108
-0.00961107
-0.00961107
-0.00961107
-0.00961107
-0.00961111
-0.00961111
-0.00961111
-0.00961111
-0.0096111
-0.00963364
-0.00963364
-0.00963364
-0.00963364
-0.00963363
-0.00963363
-0.00963363
-0.00963363
-0.00963363
-0.00963362
-0.00961131
-0.00961131
-0.00961131
-0.00961131
-0.00961131
-0.00961128
-0.00961127
-0.00961127
-0.00961127
-0.00961127
-0.0096337
-0.0096337
-0.0096337
-0.0096337
-0.0096337
-0.00961136
-0.00961136
-0.00961136
-0.00961136
-0.00961136
-0.0096337
-0.00963371
-0.00963371
-0.0096337
-0.0096337
-0.00958878
-0.00958878
-0.00958878
-0.00958878
-0.00958878
-0.00961129
-0.00961129
-0.00961129
-0.00961129
-0.00961129
-0.00958886
-0.00958886
-0.00958886
-0.00958886
-0.00958886
-0.00961122
-0.00961122
-0.00961122
-0.00961122
-0.00961122
-0.00958878
-0.00958878
-0.00958878
-0.00958878
-0.00958878
-0.00958881
-0.00958881
-0.00958881
-0.00958881
-0.00958881
-0.00961131
-0.0096113
-0.00961131
-0.00961131
-0.00961131
-0.00961127
-0.00961127
-0.00961127
-0.00961127
-0.00961127
-0.00961115
-0.00961115
-0.00961115
-0.00961115
-0.00961114
-0.00961131
-0.0096113
-0.0096113
-0.0096113
-0.0096113
-0.00963365
-0.00963366
-0.00963366
-0.00963366
-0.00963365
-0.00961103
-0.00961103
-0.00961103
-0.00961103
-0.00961102
-0.00958869
-0.00958869
-0.00958869
-0.00958869
-0.00958869
-0.00961116
-0.00961118
-0.00961118
-0.00961117
-0.00961117
-0.00958866
-0.00958867
-0.00958867
-0.00958867
-0.00958867
-0.00961118
-0.00961118
-0.00961118
-0.00961118
-0.00961118
-0.00961126
-0.00961125
-0.00961125
-0.00961126
-0.00961126
-0.00963365
-0.00963365
-0.00963365
-0.00963365
-0.00963364
-0.00963364
-0.00963364
-0.00963364
-0.00963363
-0.00963363
-0.00961134
-0.00961134
-0.00961134
-0.00961134
-0.00961134
-0.00961132
-0.00961131
-0.00961131
-0.00961131
-0.00961131
-0.00963373
-0.00963373
-0.00963373
-0.00963373
-0.00963373
-0.00961124
-0.00961123
-0.00961123
-0.00961123
-0.00961123
-0.00961131
-0.00961131
-0.00961132
-0.00961132
-0.00961132
-0.0096113
-0.00961129
-0.00961129
-0.0096113
-0.0096113
-0.00958885
-0.00958885
-0.00958885
-0.00958885
-0.00958885
-0.00961119
-0.00961119
-0.00961119
-0.00961119
-0.00961119
-0.00958878
-0.00958878
-0.00958878
-0.00958878
-0.00958878
-0.00961121
-0.0096112
-0.0096112
-0.0096112
-0.0096112
-0.00961113
-0.00961113
-0.00961113
-0.00961112
-0.00961112
-0.00961115
-0.00961114
-0.00961114
-0.00961114
-0.00961114
-0.00961112
-0.00961113
-0.00961113
-0.00961112
-0.00961112
-0.00961115
-0.00961114
-0.00961114
-0.00961114
-0.00961114
-0.00961134
-0.00961133
-0.00961134
-0.00961134
-0.00961134
-0.00961122
-0.00961121
-0.00961121
-0.00961121
-0.00961121
-0.00961102
-0.00961103
-0.00961102
-0.00961102
-0.00961102
-0.00961127
-0.00961127
-0.00961127
-0.00961127
-0.00961127
-0.00961106
-0.00961106
-0.00961106
-0.00961106
-0.00961106
-0.00958883
-0.00958883
-0.00958883
-0.00958884
-0.00958884
-0.00961106
-0.00961106
-0.00961106
-0.00961106
-0.00961105
-0.00958884
-0.00958884
-0.00958884
-0.00958884
-0.00958885
-0.00958886
-0.00958886
-0.00958886
-0.00958886
-0.00958887
-0.00958874
-0.00958874
-0.00958874
-0.00958874
-0.00958874
-0.00961114
-0.00961113
-0.00961113
-0.00961113
-0.00961113
-0.00958869
-0.00958869
-0.00958869
-0.00958869
-0.00958869
-0.00961119
-0.00961119
-0.00961119
-0.00961119
-0.00961119
-0.0095887
-0.0095887
-0.0095887
-0.0095887
-0.0095887
-0.00961136
-0.00961135
-0.00961136
-0.00961136
-0.00961136
-0.00958867
-0.00958867
-0.00958867
-0.00958866
-0.00958866
-0.00961137
-0.00961137
-0.00961137
-0.00961138
-0.00961138
-0.00958867
-0.00958868
-0.00958867
-0.00958867
-0.00958867
-0.00963367
-0.00963367
-0.00963367
-0.00963367
-0.00963366
-0.00958878
-0.00958878
-0.00958877
-0.00958877
-0.00958877
-0.00961132
-0.00961132
-0.00961132
-0.00961133
-0.00961133
-0.00958879
-0.00958879
-0.00958879
-0.00958878
-0.00958878
-0.00961134
-0.00961134
-0.00961134
-0.00961134
-0.00961134
-0.00958879
-0.00958878
-0.00958878
-0.00958879
-0.00958879
-0.00961115
-0.00961115
-0.00961115
-0.00961115
-0.00961115
-0.00958874
-0.00958874
-0.00958874
-0.00958874
-0.00958874
-0.00961121
-0.00961121
-0.00961121
-0.00961121
-0.00961121
-0.00958873
-0.00958872
-0.00958872
-0.00958872
-0.00958872
-0.00961125
-0.00961125
-0.00961125
-0.00961125
-0.00961125
-0.00958871
-0.00958871
-0.00958871
-0.00958871
-0.00958871
-0.00961125
-0.00961125
-0.00961125
-0.00961125
-0.00961125
-0.00961104
-0.00961104
-0.00961104
-0.00961104
-0.00961104
-0.00958882
-0.00958882
-0.00958883
-0.00958883
-0.00958883
-0.00961105
-0.00961105
-0.00961105
-0.00961105
-0.00961105
-0.00958882
-0.00958882
-0.00958882
-0.00958883
-0.00958883
-0.00958883
-0.00958883
-0.00958883
-0.00958883
-0.00958884
-0.00961137
-0.00961137
-0.00961137
-0.00961137
-0.00961138
-0.00958867
-0.00958868
-0.00958867
-0.00958867
-0.00958867
-0.00961138
-0.00961138
-0.00961138
-0.00961138
-0.00961138
-0.00958869
-0.00958869
-0.00958868
-0.00958868
-0.00958868
-0.00958873
-0.00958873
-0.00958873
-0.00958873
-0.00958872
-0.0096337
-0.0096337
-0.00963369
-0.00963369
-0.00963369
-0.00958866
-0.00958866
-0.00958866
-0.00958865
-0.00958865
-0.00961132
-0.00961132
-0.00961132
-0.00961132
-0.00961132
-0.00958863
-0.00958863
-0.00958863
-0.00958863
-0.00958862
-0.00961134
-0.00961134
-0.00961134
-0.00961134
-0.00961135
-0.00958864
-0.00958864
-0.00958864
-0.00958864
-0.00958863
-0.00961134
-0.00961134
-0.00961134
-0.00961135
-0.00961135
-0.00958864
-0.00958865
-0.00958864
-0.00958864
-0.00958864
-0.00961135
-0.00961135
-0.00961135
-0.00961135
-0.00961135
-0.00958866
-0.00958866
-0.00958866
-0.00958866
-0.00958865
-0.00958871
-0.00958871
-0.00958871
-0.00958871
-0.00958871
-0.00961124
-0.00961123
-0.00961123
-0.00961123
-0.00961123
-0.00958895
-0.00958894
-0.00958895
-0.00958895
-0.00958895
-0.00961115
-0.00961115
-0.00961115
-0.00961115
-0.00961114
-0.00958893
-0.00958894
-0.00958894
-0.00958894
-0.00958894
-0.00961115
-0.00961115
-0.00961115
-0.00961114
-0.00961114
-0.00958894
-0.00958894
-0.00958894
-0.00958894
-0.00958894
-0.00958895
-0.00958894
-0.00958895
-0.00958895
-0.00958895
-0.00961114
-0.00961114
-0.00961114
-0.00961114
-0.00961114
-0.00958893
-0.00958893
-0.00958893
-0.00958894
-0.00958894
-0.00961115
-0.00961115
-0.00961115
-0.00961114
-0.00961114
-0.00958893
-0.00958894
-0.00958894
-0.00958894
-0.00958894
-0.00955508
-0.00956651
-0.00955507
-0.00955501
-0.00956672
-0.00955502
-0.00956641
-0.00956647
-0.00956673
-0.00955503
-0.00956628
-0.00956641
-0.00956645
-0.00956651
-0.00954364
-0.00954336
-0.00956666
-0.00956646
-0.00954341
-0.00954363
-0.00956644
-0.00954372
-0.00954365
-0.00956654
-0.00954356
-0.00956639
-0.00954365
-0.00954337
-0.00956646
-0.00956668
-0.00954364
-0.00954342
-0.00956645
-0.00954369
-0.00954345
-0.00956693
-0.00954366
-0.00956638
-0.00954325
-0.00954377
-0.00956654
-0.00954377
-0.00956659
-0.0095434
-0.00956643
-0.0095436
-0.0095664
-0.00954378
-0.00956648
-0.00954435
-0.00954364
-0.00956657
-0.0095663
-0.00954365
-0.00954363
-0.00956574
-0.00955493
-0.0095547
-0.00955494
-0.00955491
-0.00955472
-0.00954272
-0.00954362
-0.00956632
-0.00956741
-0.0095437
-0.00954258
-0.00956724
-0.00954288
-0.00956723
-0.00954381
-0.00956628
-0.00954376
-0.00954282
-0.00956712
-0.00954272
-0.00954362
-0.00956741
-0.00956634
-0.00954259
-0.00954369
-0.00956728
-0.00954353
-0.00956688
-0.00954324
-0.00956659
-0.00956641
-0.00955496
-0.00955501
-0.00955498
-0.0095662
-0.00956638
-0.00956622
-0.00956641
-0.00956617
-0.00956617
-0.00956587
-0.00955494
-0.00956566
-0.00956643
-0.00956622
-0.00954375
-0.00954364
-0.00954358
-0.00956657
-0.00954373
-0.00956616
-0.0095438
-0.00954336
-0.00956637
-0.00954349
-0.0095668
-0.0095436
-0.00956627
-0.00954373
-0.00954315
-0.00956646
-0.00954354
-0.00956625
-0.0095663
-0.00954372
-0.00954369
-0.00956643
-0.00954388
-0.00954378
-0.00956617
-0.00954377
-0.00956607
-0.00954385
-0.00954376
-0.00956609
-0.00956616
-0.00954384
-0.00954377
-0.00956609
-0.00954369
-0.00954362
-0.0095665
-0.00954354
-0.00956636
-0.00954426
-0.00954354
-0.00956626
-0.00956642
-0.00954361
-0.00954347
-0.00956566
-0.00955486
-0.00954341
-0.00956677
-0.00954406
-0.00956573
-0.00954313
-0.00954417
-0.00956646
-0.00954349
-0.00954423
-0.00956565
-0.00956643
-0.00954423
-0.00954347
-0.00956638
-0.00954287
-0.00956717
-0.00954379
-0.00956622
-0.00954277
-0.00954375
-0.00956709
-0.00956634
-0.00956634
-0.00956634
-0.00956634
-0.00956634
-0.00956639
-0.00956638
-0.00956638
-0.00956638
-0.00956639
-0.00954375
-0.00954375
-0.00954375
-0.00954375
-0.00954375
-0.00954378
-0.00954379
-0.00954378
-0.00954378
-0.00954378
-0.00954375
-0.00954376
-0.00954376
-0.00954375
-0.00954375
-0.0095437
-0.00954371
-0.00954371
-0.0095437
-0.0095437
-0.0095664
-0.0095664
-0.0095664
-0.00956641
-0.00956641
-0.00954369
-0.0095437
-0.00954369
-0.00954369
-0.00954369
-0.00956638
-0.00956638
-0.00956638
-0.00956639
-0.00956639
-0.00954371
-0.00954371
-0.00954371
-0.00954371
-0.0095437
-0.00956641
-0.0095664
-0.00956641
-0.00956641
-0.00956641
-0.0095437
-0.00954371
-0.0095437
-0.0095437
-0.0095437
-0.0095664
-0.0095664
-0.0095664
-0.0095664
-0.00956641
-0.00956636
-0.00956636
-0.00956636
-0.00956636
-0.00956637
-0.00956635
-0.00956635
-0.00956635
-0.00956635
-0.00956635
-0.0095438
-0.0095438
-0.00954379
-0.00954379
-0.00954379
-0.00956636
-0.00956636
-0.00956636
-0.00956636
-0.00956636
-0.00954379
-0.00954379
-0.00954378
-0.00954378
-0.00954378
-0.00956617
-0.00956616
-0.00956616
-0.00956616
-0.00956616
-0.00956632
-0.00956632
-0.00956632
-0.00956632
-0.00956632
-0.00956609
-0.00956609
-0.00956609
-0.00956609
-0.00956608
-0.0095663
-0.00956629
-0.0095663
-0.0095663
-0.0095663
-0.0095438
-0.0095438
-0.0095438
-0.00954381
-0.00954381
-0.0095437
-0.00954371
-0.00954371
-0.00954371
-0.0095437
-0.00954388
-0.00954388
-0.00954388
-0.00954388
-0.00954389
-0.00954387
-0.00954388
-0.00954388
-0.00954388
-0.00954388
-0.00954375
-0.00954376
-0.00954376
-0.00954376
-0.00954376
-0.00956622
-0.00956622
-0.00956622
-0.00956622
-0.00956622
-0.00956626
-0.00956626
-0.00956626
-0.00956626
-0.00956627
-0.00954373
-0.00954373
-0.00954373
-0.00954373
-0.00954372
-0.00956633
-0.00956633
-0.00956634
-0.00956634
-0.00956634
-0.00956616
-0.00956617
-0.00956617
-0.00956616
-0.00956616
-0.00954381
-0.00954381
-0.00954381
-0.00954381
-0.00954381
-0.00956626
-0.00956626
-0.00956626
-0.00956626
-0.00956626
-0.00954375
-0.00954375
-0.00954375
-0.00954375
-0.00954375
-0.00954373
-0.00954373
-0.00954373
-0.00954373
-0.00954373
-0.00954375
-0.00954376
-0.00954376
-0.00954376
-0.00954376
-0.00954386
-0.00954386
-0.00954386
-0.00954386
-0.00954387
-0.00956608
-0.00956608
-0.00956608
-0.00956607
-0.00956607
-0.00954385
-0.00954385
-0.00954385
-0.00954386
-0.00954386
-0.00956608
-0.00956608
-0.00956608
-0.00956608
-0.00956607
-0.00956607
-0.00956607
-0.00956607
-0.00956607
-0.00956607
-0.0124705
-0.0126617
-0.012661
-0.0126611
-0.012651
-0.0126285
-0.0126508
-0.0126619
-0.0126618
-0.0126507
-0.012661
-0.0126608
-0.0126607
-0.0126511
-0.0126611
-0.0124708
-0.0124709
-0.0125386
-0.0125382
-0.0125381
-0.0127178
-0.0126508
-0.0126508
-0.0126508
-0.0127178
-0.0126509
-0.0126507
-0.0126617
-0.012661
-0.012661
-0.0126511
-0.0126607
-0.0127082
-0.0126511
-0.012651
-0.0126615
-0.0126513
-0.0126514
-0.0126509
-0.012651
-0.0124708
-0.0125382
-0.012471
-0.0125381
-0.0125607
-0.0126281
-0.012628
-0.0125608
-0.0125609
-0.0126281
-0.0125609
-0.012628
-0.012561
-0.0126509
-0.0126509
-0.0126509
-0.0126508
-0.0127178
-0.0126508
-0.0127178
-0.0126508
-0.012717
-0.0126513
-0.0126617
-0.0127077
-0.0126513
-0.012717
-0.0126513
-0.0126617
-0.0127072
-0.0127174
-0.0127077
-0.0126513
-0.0126508
-0.0126507
-0.0127181
-0.0127177
-0.0126508
-0.0126511
-0.0126607
-0.0126512
-0.0126509
-0.0126508
-0.0126607
-0.0126512
-0.0126512
-0.0126508
-0.0126507
-0.0126606
-0.0126511
-0.0126511
-0.0126509
-0.0126507
-0.0126509
-0.012651
-0.012651
-0.0126615
-0.0126513
-0.0126514
-0.012651
-0.0126509
-0.012651
-0.0126509
-0.0126509
-0.012651
-0.0125158
-0.0125381
-0.0125381
-0.0125159
-0.0125159
-0.0125383
-0.0124933
-0.0124703
-0.0124709
-0.0124933
-0.0124932
-0.0124707
-0.0124936
-0.0124933
-0.0124705
-0.012471
-0.0124932
-0.0124931
-0.0124708
-0.0124935
-0.0124933
-0.0124709
-0.0124709
-0.0124932
-0.0124932
-0.0124708
-0.0125157
-0.0125381
-0.0125158
-0.0125386
-0.0125159
-0.0125384
-0.0125155
-0.0125158
-0.0125381
-0.0125159
-0.0125385
-0.012516
-0.0125383
-0.0125156
-0.0126957
-0.0127178
-0.0127178
-0.0126958
-0.0126956
-0.0126958
-0.0127178
-0.0126726
-0.0126726
-0.0126507
-0.0126726
-0.0126508
-0.0126957
-0.0126956
-0.0126957
-0.0126726
-0.0126728
-0.0126506
-0.0126507
-0.0126725
-0.0126727
-0.0126507
-0.0126728
-0.0126956
-0.012673
-0.0126731
-0.0126508
-0.0126732
-0.012651
-0.0126731
-0.0126733
-0.0126508
-0.0126509
-0.0126732
-0.0126731
-0.0126509
-0.0126731
-0.0126731
-0.0126505
-0.012651
-0.0126731
-0.0126508
-0.0126733
-0.012673
-0.012673
-0.0126506
-0.012651
-0.0126731
-0.0126509
-0.0126733
-0.012673
-0.0126731
-0.012651
-0.012651
-0.0126508
-0.012673
-0.012673
-0.0124932
-0.0125158
-0.0124932
-0.012516
-0.0125832
-0.0125609
-0.0125609
-0.0125608
-0.0125831
-0.012583
-0.0126058
-0.0126285
-0.012628
-0.0126058
-0.0126282
-0.012606
-0.0126056
-0.0126058
-0.0126284
-0.012628
-0.0126059
-0.0126282
-0.012606
-0.0126057
-0.0126058
-0.012628
-0.012628
-0.0126282
-0.0126059
-0.012606
-0.0125832
-0.012561
-0.0125603
-0.0125832
-0.0125607
-0.012583
-0.0125835
-0.0125831
-0.012561
-0.0125605
-0.0125831
-0.0125608
-0.012583
-0.0125834
-0.0126059
-0.0125831
-0.012606
-0.0125831
-0.0126729
-0.0126957
-0.0126731
-0.0126731
-0.0126506
-0.0126729
-0.0126509
-0.012673
-0.0126733
-0.0126508
-0.0126732
-0.0126504
-0.0126731
-0.0126509
-0.012673
-0.0126734
-0.0126508
-0.0126958
-0.0126957
-0.0126732
-0.0126509
-0.0126509
-0.012673
-0.0126731
-0.0126507
-0.0126957
-0.0127178
-0.0127177
-0.0126958
-0.0126956
-0.0126958
-0.0127178
-0.0126726
-0.0126726
-0.0126507
-0.0126726
-0.0126508
-0.0126957
-0.0127178
-0.0126956
-0.0126956
-0.0127178
-0.0126726
-0.0126728
-0.0126506
-0.0126507
-0.0126725
-0.0126727
-0.0126507
-0.0126957
-0.0127179
-0.0126957
-0.0126959
-0.0126733
-0.0126506
-0.0126729
-0.0126509
-0.0126731
-0.0126733
-0.0126508
-0.0126729
-0.0126503
-0.012673
-0.0126509
-0.0126732
-0.0126728
-0.0126506
-0.0126958
-0.0127176
-0.0126957
-0.012718
-0.0126957
-0.0126956
-0.0127178
-0.0126957
-0.0126958
-0.0126958
-0.0126959
-0.0126731
-0.0126508
-0.0126508
-0.012673
-0.0126729
-0.0126507
-0.012673
-0.0126958
-0.0126731
-0.0126731
-0.0126509
-0.0126732
-0.012651
-0.0126731
-0.0126733
-0.0126509
-0.0126508
-0.0126731
-0.0126732
-0.012651
-0.0126958
-0.0126958
-0.0126958
-0.0126958
-0.0126729
-0.012673
-0.0126508
-0.0126731
-0.0126509
-0.0126959
-0.0126958
-0.0126958
-0.012673
-0.0126732
-0.0126507
-0.0126508
-0.0126731
-0.012673
-0.0126509
-0.0126959
-0.0126958
-0.0126958
-0.0126958
-0.012673
-0.0126731
-0.0126508
-0.0126731
-0.0126509
-0.0126959
-0.0126959
-0.0126958
-0.012673
-0.0126732
-0.0126508
-0.0126507
-0.012673
-0.0126731
-0.0126509
-0.0126731
-0.0126505
-0.0126732
-0.012651
-0.0126731
-0.0126734
-0.0126509
-0.012673
-0.0126506
-0.0126731
-0.0126511
-0.0126732
-0.012673
-0.0126509
-0.0126732
-0.012651
-0.012651
-0.0126731
-0.012673
-0.0126509
-0.0126731
-0.012673
-0.0126731
-0.012651
-0.0126731
-0.0126511
-0.012673
-0.0126731
-0.012651
-0.012651
-0.0126731
-0.0126731
-0.012651
-0.012673
-0.0126731
-0.012651
-0.0126731
-0.0126511
-0.012673
-0.0126731
-0.012651
-0.012651
-0.0126731
-0.0126731
-0.012651
-0.0126731
-0.0126959
-0.012673
-0.0124925
-0.0124705
-0.0124707
-0.0124931
-0.0124715
-0.0124931
-0.0124931
-0.0126622
-0.0126609
-0.0126615
-0.0126721
-0.0126508
-0.0126511
-0.0126726
-0.0126517
-0.0126727
-0.0126727
-0.0126065
-0.0126058
-0.0126284
-0.0126283
-0.0126276
-0.0126059
-0.0126059
-0.0126724
-0.0126509
-0.0126507
-0.012673
-0.012673
-0.0126729
-0.0126516
-0.0126722
-0.0126509
-0.0126506
-0.0126729
-0.0126728
-0.0126728
-0.0126515
-0.0126722
-0.0126509
-0.012651
-0.0126726
-0.0126727
-0.0126727
-0.0126518
-0.0125165
-0.0125158
-0.0125385
-0.0125384
-0.0125377
-0.0125158
-0.0125158
-0.0126621
-0.0126608
-0.0126615
-0.0126606
-0.0126613
-0.012661
-0.0126606
-0.0126613
-0.012661
-0.0126732
-0.0126501
-0.0126727
-0.0126511
-0.0126734
-0.0126726
-0.0126504
-0.0126956
-0.0126962
-0.0126955
-0.0126962
-0.0126732
-0.0126726
-0.0126511
-0.0126504
-0.0126726
-0.0126733
-0.0126504
-0.0126731
-0.0126503
-0.0126727
-0.0126514
-0.0126734
-0.0126725
-0.0126506
-0.0126731
-0.0126726
-0.0126506
-0.0126515
-0.0126732
-0.0126725
-0.0126507
-0.0125823
-0.0125829
-0.0125606
-0.0125608
-0.0125615
-0.0125829
-0.0125829
-0.0126964
-0.012717
-0.0127176
-0.0126966
-0.0126966
-0.0126962
-0.0127177
-0.0126728
-0.0126505
-0.0126723
-0.0126514
-0.0126723
-0.0126733
-0.012651
-0.0126963
-0.0126965
-0.0126968
-0.0126957
-0.0126727
-0.0126724
-0.0126514
-0.0126509
-0.0126723
-0.0126729
-0.0126511
-0.0126964
-0.012717
-0.0127176
-0.0126966
-0.0126966
-0.0126962
-0.0127177
-0.0126728
-0.0126505
-0.0126723
-0.0126514
-0.0126722
-0.0126733
-0.012651
-0.0126963
-0.0127172
-0.0126964
-0.0127183
-0.0126967
-0.0127177
-0.0126957
-0.0126727
-0.0126724
-0.0126514
-0.0126509
-0.0126723
-0.0126729
-0.0126511
-0.0126965
-0.012696
-0.0127179
-0.012718
-0.0126961
-0.0126959
-0.0127174
-0.0126733
-0.0126502
-0.0126728
-0.0126512
-0.0126727
-0.0126736
-0.0126505
-0.0126733
-0.0126727
-0.0126512
-0.0126504
-0.0126727
-0.0126733
-0.0126505
-0.0126733
-0.0126501
-0.0126728
-0.0126512
-0.0126727
-0.0126735
-0.0126504
-0.0126733
-0.0126727
-0.0126504
-0.0126512
-0.0126733
-0.0126727
-0.0126504
-0.0126732
-0.0126501
-0.0126728
-0.0126511
-0.0126735
-0.0126727
-0.0126503
-0.0126732
-0.0126726
-0.0126503
-0.0126511
-0.0126733
-0.0126726
-0.0126504
-0.0126731
-0.0126503
-0.0126727
-0.0126514
-0.0126734
-0.0126725
-0.0126506
-0.0126731
-0.0126726
-0.0126506
-0.0126515
-0.0126732
-0.0126725
-0.0126507
-0.00977985
-0.00977989
-0.00977993
-0.00976841
-0.00995973
-0.00995977
-0.00995974
-0.00994827
-0.0101394
-0.0101395
-0.0101394
-0.010128
-0.0103191
-0.0103192
-0.0103191
-0.0103077
-0.0104989
-0.010499
-0.0104989
-0.0104875
-0.010679
-0.0106791
-0.010679
-0.0106675
-0.0108592
-0.0108592
-0.0108592
-0.0108477
-0.0110395
-0.0110395
-0.0110396
-0.011028
-0.01122
-0.01122
-0.0112201
-0.0112085
-0.0114004
-0.0114005
-0.0114005
-0.011389
-0.0115808
-0.0115808
-0.0115807
-0.0115693
-0.011761
-0.0117609
-0.0117609
-0.0117495
-0.0119413
-0.0119411
-0.0119412
-0.0119298
-0.0121216
-0.0121216
-0.0121215
-0.0121102
-0.0123018
-0.0123017
-0.0123017
-0.0122905
-0.0124819
-0.0124815
-0.0124816
-0.00974635
-0.00973492
-0.00973492
-0.00974633
-0.00973493
-0.00973497
-0.00973491
-0.00973494
-0.0097464
-0.00973497
-0.00973497
-0.00974633
-0.00976843
-0.00992623
-0.00977987
-0.00977989
-0.00991482
-0.00991484
-0.00976842
-0.00992625
-0.00977988
-0.00977991
-0.0099148
-0.00991482
-0.0097799
-0.00991482
-0.00991481
-0.00976847
-0.00992621
-0.00977992
-0.00991479
-0.0099148
-0.00992619
-0.00994828
-0.010106
-0.00995975
-0.00995974
-0.0100946
-0.0100946
-0.0099483
-0.010106
-0.00995972
-0.00995972
-0.0100945
-0.0100946
-0.00995974
-0.0100946
-0.0100945
-0.00994826
-0.010106
-0.00995974
-0.0100945
-0.0100946
-0.0101059
-0.010128
-0.0102856
-0.0101394
-0.0101395
-0.0102742
-0.0102742
-0.010128
-0.0102856
-0.0101394
-0.0101394
-0.0102742
-0.0102742
-0.0101394
-0.0102742
-0.0102742
-0.010128
-0.0102856
-0.0101394
-0.0102742
-0.0102743
-0.0102856
-0.0103076
-0.0104654
-0.0103191
-0.0103191
-0.010454
-0.010454
-0.0103077
-0.0104654
-0.010319
-0.010319
-0.010454
-0.010454
-0.0103191
-0.010454
-0.010454
-0.0103076
-0.0104654
-0.0103191
-0.010454
-0.010454
-0.0104654
-0.0104875
-0.0106455
-0.0104989
-0.010499
-0.0106341
-0.0106341
-0.0104875
-0.0106455
-0.0104989
-0.0104989
-0.0106341
-0.010634
-0.010499
-0.0106341
-0.010634
-0.0104875
-0.0106455
-0.010499
-0.010634
-0.010634
-0.0106454
-0.0106676
-0.0108257
-0.0106791
-0.010679
-0.0108142
-0.0108142
-0.0106676
-0.0108257
-0.0106791
-0.010679
-0.0108142
-0.0108142
-0.010679
-0.0108142
-0.0108142
-0.0106675
-0.0108256
-0.010679
-0.0108142
-0.0108142
-0.0108256
-0.0108477
-0.0110059
-0.0108592
-0.0108592
-0.0109945
-0.0109945
-0.0108477
-0.0110059
-0.0108592
-0.0108592
-0.0109945
-0.0109946
-0.0108592
-0.0109944
-0.0109945
-0.0108477
-0.011006
-0.0108592
-0.0109945
-0.0109945
-0.0110059
-0.011028
-0.0111864
-0.0110395
-0.0110395
-0.0111749
-0.0111749
-0.011028
-0.0111864
-0.0110395
-0.0110396
-0.011175
-0.011175
-0.0110395
-0.0111749
-0.011175
-0.0110281
-0.0111864
-0.0110395
-0.011175
-0.011175
-0.0111864
-0.0112085
-0.0113669
-0.01122
-0.01122
-0.0113554
-0.0113554
-0.0112085
-0.0113669
-0.01122
-0.01122
-0.0113554
-0.0113555
-0.01122
-0.0113555
-0.0113555
-0.0112086
-0.0113669
-0.0112201
-0.0113555
-0.0113555
-0.0113669
-0.0113889
-0.0115473
-0.0114004
-0.0114004
-0.0115359
-0.0115359
-0.011389
-0.0115473
-0.0114004
-0.0114004
-0.0115358
-0.0115358
-0.0114005
-0.0115359
-0.0115358
-0.011389
-0.0115472
-0.0114005
-0.0115358
-0.0115358
-0.0115472
-0.0115693
-0.0117275
-0.0115808
-0.0115808
-0.0117161
-0.0117161
-0.0115693
-0.0117275
-0.0115808
-0.0115807
-0.0117161
-0.0117161
-0.0115807
-0.0117161
-0.0117161
-0.0115692
-0.0117274
-0.0115807
-0.011716
-0.011716
-0.0117274
-0.0117495
-0.0119077
-0.011761
-0.0117609
-0.0118963
-0.0118963
-0.0117495
-0.0119077
-0.011761
-0.0117609
-0.0118964
-0.0118965
-0.0117609
-0.0118964
-0.0118964
-0.0117495
-0.0119078
-0.0117609
-0.0118964
-0.0118964
-0.0119077
-0.0119297
-0.0120881
-0.0119412
-0.0119412
-0.0120768
-0.0120768
-0.0119297
-0.0120882
-0.0119412
-0.0119412
-0.0120768
-0.0120769
-0.0119411
-0.0120769
-0.0120769
-0.0119298
-0.0120881
-0.0119412
-0.0120768
-0.0120769
-0.0120882
-0.0121101
-0.0122685
-0.0121216
-0.0121216
-0.0122572
-0.0122572
-0.0121102
-0.0122685
-0.0121215
-0.0121214
-0.0122573
-0.0122574
-0.0121215
-0.0122573
-0.0122574
-0.0121101
-0.0122686
-0.0121215
-0.0122573
-0.0122573
-0.0122686
-0.0122904
-0.0124487
-0.0123018
-0.0123018
-0.0124374
-0.0124374
-0.0122904
-0.0124487
-0.0123016
-0.0123016
-0.0124377
-0.0124378
-0.0123016
-0.0124377
-0.0124378
-0.0122905
-0.0124487
-0.0123017
-0.0124377
-0.0124376
-0.0124487
-0.0124705
-0.0126285
-0.0124818
-0.0124818
-0.0126174
-0.0126173
-0.0124705
-0.0126285
-0.0124815
-0.0124814
-0.012618
-0.0126182
-0.0124813
-0.0126179
-0.0126182
-0.0124706
-0.0126286
-0.0124815
-0.0126179
-0.0126179
-0.00965614
-0.00965615
-0.0096561
-0.0096567
-0.0096564
-0.00973489
-0.00973491
-0.00973491
-0.00973493
-0.00965636
-0.00964496
-0.00965622
-0.00964499
-0.00965639
-0.00965572
-0.00964513
-0.00964508
-0.00965592
-0.00965648
-0.00965641
-0.00965625
-0.0098361
-0.00976873
-0.00976871
-0.00983611
-0.00976868
-0.00983611
-0.0098366
-0.00976855
-0.00976827
-0.00983632
-0.00977989
-0.00977985
-0.0097799
-0.00991482
-0.00991481
-0.00991479
-0.00991479
-0.00983623
-0.00976865
-0.0097799
-0.00982484
-0.00976846
-0.00983608
-0.00982483
-0.00976859
-0.00983629
-0.00983555
-0.00977989
-0.00976901
-0.00982491
-0.0097692
-0.00982485
-0.00983577
-0.00976846
-0.00976864
-0.00983629
-0.00983626
-0.0098361
-0.0100159