/*--------------------------------*- C++ -*----------------------------------*\
| =========                 |                                                 |
| \\      /  F ield         | OpenFOAM: The Open Source CFD Toolbox           |
|  \\    /   O peration     | Version:  2206                                  |
|   \\  /    A nd           | Website:  www.openfoam.com                      |
|    \\/     M anipulation  |                                                 |
\*---------------------------------------------------------------------------*/
FoamFile
{
    version     2.0;
    format      ascii;
    arch        "LSB;label=32;scalar=64";
    class       surfaceScalarField;
    location    "149";
    object      phi;
}
// * * * * * * * * * * * * * * * * * * * * * * * * * * * * * * * * * * * * * //

dimensions      [0 3 -1 0 0 0 0];

oriented        oriented;

internalField   nonuniform List<scalar> 
198714
(
-1.54098e-12
2.46429e-12
-1.91e-12
8.85807e-13
-1.25112e-07
1.25112e-07
-2.76335e-11
-2.09374e-12
1.84335e-12
4.003e-11
2.73668e-11
-3.72331e-11
-6.89473e-11
6.64751e-11
-6.79021e-11
7.0587e-11
1.14917e-07
-3.25678e-11
-1.27964e-12
3.36905e-13
2.76405e-11
3.23744e-11
-2.88094e-11
-1.42847e-11
3.73782e-11
-3.72565e-11
1.49271e-11
-1.16155e-07
1.16157e-07
1.59557e-11
3.33837e-11
5.80529e-11
4.26447e-11
2.73788e-08
2.2811e-11
2.72179e-11
5.06452e-11
5.0059e-11
2.73651e-08
-2.75158e-08
-1.39196e-12
2.44031e-11
2.44816e-11
-2.36811e-11
9.36835e-12
3.55481e-11
-3.63935e-11
-9.80415e-12
-1.17285e-07
1.17284e-07
-2.30155e-11
1.76099e-12
1.28245e-13
2.50149e-11
2.41814e-11
-2.85111e-11
9.31074e-12
3.53431e-11
-3.39872e-11
-9.70242e-12
1.17292e-07
5.0195e-11
5.03423e-11
2.73614e-08
9.4511e-13
4.00314e-11
2.72601e-11
-4.06988e-11
-6.8891e-11
6.61056e-11
-6.52982e-11
7.04641e-11
-1.14952e-07
1.14952e-07
-1.56583e-11
-4.16292e-13
-1.24865e-12
3.79788e-11
1.71428e-11
-3.71713e-11
-5.00929e-11
6.43386e-11
-6.53778e-11
4.97082e-11
-1.15976e-07
1.15977e-07
1.03298e-13
-2.23655e-12
3.75844e-11
1.73444e-11
-3.67964e-11
-5.03639e-11
6.47013e-11
-6.57744e-11
4.98918e-11
1.16016e-07
5.72289e-11
4.35429e-11
2.73631e-08
-2.75121e-08
-9.28921e-13
4.56022e-13
2.7563e-11
3.31162e-11
-2.85391e-11
-1.40713e-11
3.69189e-11
-3.72257e-11
1.43922e-11
1.16243e-07
8.62724e-13
-7.5018e-12
1.31377e-08
-1.63874e-12
-1.05489e-12
-1.31284e-08
-3.27031e-13
-1.97346e-11
1.98147e-08
5.70843e-12
2.2645e-12
-1.98026e-08
-8.8709e-13
-4.03119e-12
6.55799e-09
-7.57457e-13
2.54422e-12
-1.62728e-11
1.28594e-08
-3.41101e-12
-9.09695e-14
-1.28422e-08
-5.40338e-11
5.01436e-13
1.92034e-08
4.35763e-12
1.80867e-11
-1.91723e-08
-9.98906e-13
1.22565e-12
1.25083e-07
-1.3564e-12
-1.26499e-12
-1.25385e-07
1.25386e-07
-1.17934e-12
-2.77733e-13
1.25447e-07
1.12853e-11
1.62088e-11
-3.64883e-11
2.03363e-08
-1.63821e-11
2.53873e-12
-2.40276e-12
-1.08356e-10
1.43124e-10
-1.42049e-10
1.09019e-10
1.20331e-07
5.39345e-11
1.06144e-12
2.36682e-08
1.00806e-11
-1.02604e-10
-3.3073e-12
-6.61546e-12
6.43523e-09
6.6788e-13
-6.42597e-09
7.1057e-13
-1.07567e-12
-1.4512e-11
1.14992e-11
-1.13107e-11
1.44017e-11
1.20122e-07
4.5791e-12
8.00523e-12
-1.8188e-11
2.06919e-08
-7.47631e-12
3.58245e-13
1.97394e-11
2.43195e-08
-3.22786e-11
4.24526e-12
-1.26737e-11
6.30793e-12
-2.45898e-11
2.07312e-08
6.13123e-12
-5.1328e-12
5.09563e-12
-1.78208e-11
2.08401e-08
1.22686e-12
-4.61666e-12
6.55543e-09
-5.90132e-13
-6.54936e-09
-7.58681e-12
6.43176e-09
8.07278e-13
-6.42243e-09
-6.03652e-12
-1.7852e-11
2.1016e-08
2.18943e-12
-2.09989e-08
-1.12698e-11
-2.56386e-11
2.05749e-08
4.76885e-12
-2.05504e-08
-7.37265e-12
1.31455e-08
-1.34223e-12
-1.05498e-12
-1.97847e-11
1.98189e-08
5.95646e-12
1.70477e-12
-1.75304e-11
2.06822e-08
-8.52405e-12
-2.06697e-08
-3.33204e-13
1.07008e-12
7.99824e-12
1.04503e-11
-1.07581e-11
-8.33402e-12
-1.22771e-07
1.2277e-07
-5.90308e-14
2.43201e-08
4.90481e-12
-3.20668e-11
-2.43126e-08
6.01653e-12
-1.73175e-11
2.06763e-08
-8.28066e-12
9.52283e-13
7.9897e-12
1.05764e-11
-1.07547e-11
-8.19095e-12
1.22768e-07
2.43223e-08
4.51588e-12
-3.18296e-11
-1.76675e-11
2.09076e-08
2.64875e-12
7.62995e-12
-2.60792e-11
2.06968e-08
4.47481e-12
-2.38539e-12
6.43504e-09
8.82337e-13
-3.60715e-11
2.03194e-08
-1.6501e-11
-2.02944e-08
1.73151e-12
-2.66277e-12
-1.08229e-10
1.43365e-10
-1.41974e-10
1.09261e-10
-1.20353e-07
1.20352e-07
7.07311e-13
2.36657e-08
1.03861e-11
-1.02616e-10
-2.36282e-08
-1.56475e-11
1.28636e-08
-4.57609e-12
-1.22646e-13
-1.28465e-08
-5.39547e-11
1.92012e-08
1.80485e-11
5.31299e-12
-1.91701e-08
-2.28562e-12
-9.05903e-11
1.42532e-10
-1.418e-10
9.11433e-11
-1.21624e-07
1.21626e-07
1.25027e-11
-3.5292e-11
2.03108e-08
-1.75833e-11
-2.02861e-08
2.36622e-08
-1.02531e-10
1.14171e-11
-2.36243e-08
1.28656e-08
-3.16436e-12
-7.60849e-14
8.33299e-13
1.9209e-08
4.1437e-12
1.80264e-11
-2.11342e-12
-9.05742e-11
1.42511e-10
-1.41856e-10
9.10867e-11
1.21636e-07
1.53499e-11
-3.50587e-11
2.0318e-08
-1.77335e-11
5.3743e-11
2.36648e-08
-1.02402e-10
1.17551e-11
3.51791e-12
1.28557e-08
-5.01344e-12
-1.76757e-13
1.92041e-08
1.79194e-11
5.69085e-12
-2.46717e-11
2.06316e-08
6.06355e-12
-2.06071e-08
5.31543e-12
-1.87897e-11
2.09701e-08
1.05289e-12
1.71725e-13
6.55659e-09
-5.77377e-13
-3.68653e-13
-1.45573e-11
1.14316e-11
-1.16875e-11
1.39603e-11
1.20149e-07
7.97785e-12
-1.76567e-11
2.06771e-08
-7.86658e-12
1.97428e-11
2.43217e-08
-3.22423e-11
4.62074e-12
1.31385e-08
-1.52883e-13
-1.07563e-12
2.5022e-13
1.98136e-08
1.40962e-12
5.70498e-12
2.05613e-13
1.31347e-08
-7.6537e-13
-1.07326e-12
1.98169e-08
1.85598e-12
5.51902e-12
6.42991e-09
6.10148e-13
6.55156e-09
-6.40629e-13
1.37417e-12
-5.46686e-09
3.32118e-13
1.64511e-12
5.46351e-09
6.5253e-13
-4.42675e-13
8.07113e-12
9.6487e-13
1.31285e-08
2.02187e-08
7.58692e-13
-3.36874e-12
-1.23011e-11
-2.02055e-08
2.45494e-12
1.26678e-11
2.02056e-08
-9.52678e-13
-1.67273e-12
-5.46347e-09
5.10525e-14
4.68821e-12
-9.74744e-09
7.36003e-13
9.7423e-09
-5.78297e-12
-1.44387e-12
-2.92504e-13
1.99073e-11
1.98023e-08
1.1847e-08
8.00176e-13
-3.64407e-13
-7.25883e-13
-1.1841e-08
1.87485e-08
4.52154e-12
-1.69891e-11
-1.87371e-08
-3.0623e-13
7.09149e-13
1.18409e-08
1.72064e-11
1.87369e-08
-7.279e-13
-9.74234e-09
2.94777e-13
5.21858e-12
4.92521e-13
6.55198e-09
-1.50776e-11
-1.07437e-12
2.15807e-12
-9.45482e-09
8.36348e-13
9.46798e-09
4.42764e-12
1.81555e-11
-1.91726e-08
4.90545e-13
1.92035e-08
-5.40157e-11
6.96827e-12
-1.81786e-08
1.82061e-08
-4.50573e-11
-1.14786e-08
3.20701e-13
1.0588e-12
1.14943e-08
5.26155e-12
-5.31637e-09
5.30874e-09
2.72533e-12
-3.56636e-13
4.78731e-12
1.28426e-08
-3.54805e-12
1.53999e-11
1.39428e-13
1.97128e-08
6.26635e-12
-6.87133e-12
-3.01705e-11
-1.96854e-08
1.96859e-08
7.83272e-12
2.90921e-11
-2.06992e-12
5.66376e-13
-5.3086e-09
-6.21779e-12
5.82289e-13
5.31654e-09
-3.57595e-12
2.68083e-12
-6.86905e-14
1.28599e-08
-1.62444e-11
1.97132e-08
-3.01241e-11
1.46488e-11
1.75718e-12
-9.46772e-09
-7.76215e-13
-5.36443e-12
-1.7801e-11
5.30064e-13
5.34558e-11
1.82059e-08
1.50359e-11
-4.50974e-11
-1.81784e-08
1.14941e-08
9.92641e-13
3.35637e-13
1.00979e-12
-1.14783e-08
4.44086e-11
3.56228e-13
-9.57392e-13
8.11893e-13
-9.45457e-09
6.42594e-09
2.8943e-12
7.20042e-12
-8.12284e-13
-3.41166e-12
6.56814e-13
6.4352e-09
-6.499e-12
2.338e-11
-1.25486e-11
-1.90728e-08
-1.5028e-11
2.57454e-11
1.90512e-08
2.28345e-08
2.44425e-11
-4.70701e-11
-3.4733e-11
2.55072e-11
-4.81842e-12
-7.28081e-12
1.11885e-11
2.07066e-08
1.23955e-08
-1.17057e-11
3.82481e-12
-9.51683e-14
4.80147e-11
3.32565e-11
2.28021e-08
-3.28589e-12
-8.92333e-15
1.23815e-08
1.55624e-11
-2.48557e-11
1.90076e-11
-9.9751e-12
-1.82643e-08
-1.40645e-11
2.0622e-11
1.82487e-08
2.22787e-08
1.82984e-11
-3.46442e-11
-2.31191e-11
1.75885e-11
-2.06796e-12
-4.62362e-12
5.69977e-12
2.08235e-08
1.23008e-08
-1.0161e-11
1.4707e-12
-5.09734e-13
3.43716e-11
2.37873e-11
2.22572e-08
-2.03074e-12
4.29626e-13
1.22903e-08
1.33248e-11
-2.11155e-11
-4.58699e-12
-4.89681e-12
-1.46905e-08
1.46708e-08
5.32136e-09
-3.84244e-12
3.18549e-13
5.35373e-09
-5.23183e-12
1.93285e-14
-5.12497e-13
5.31401e-09
-2.16588e-13
5.34702e-09
5.11154e-12
5.2269e-13
6.54936e-09
6.4226e-09
6.25942e-12
-6.50421e-13
8.39638e-13
6.43194e-09
-7.49348e-12
-1.04303e-11
1.81406e-11
-1.91641e-08
-1.27987e-11
2.41983e-11
1.9145e-08
2.30593e-08
1.88055e-11
-3.7171e-11
-2.30282e-11
-2.30358e-08
-1.44896e-12
1.81325e-11
5.40936e-12
2.0999e-08
1.25171e-08
-1.02219e-11
1.96825e-12
-4.15685e-13
-1.25062e-08
-1.41595e-12
4.32357e-13
1.25062e-08
3.72831e-11
2.25091e-11
2.30358e-08
1.3625e-11
-2.40808e-11
-1.91451e-08
-1.16751e-11
2.46744e-11
-1.81882e-08
-1.59236e-11
2.11105e-11
1.817e-08
2.20734e-08
2.4177e-11
-4.43551e-11
-3.36355e-11
-2.20452e-08
-6.22624e-12
2.44605e-11
1.20833e-11
2.05509e-08
1.21959e-08
-1.27158e-11
3.21316e-12
6.80089e-14
-1.21817e-08
-3.95077e-12
3.66194e-14
1.21819e-08
4.30859e-11
3.40795e-11
2.20453e-08
1.55316e-11
-2.23231e-11
-1.81699e-08
-5.18441e-12
-4.0336e-12
-1.46993e-08
1.46798e-08
5.35367e-09
-4.72778e-12
2.21962e-13
-5.34719e-09
5.32781e-09
-4.93803e-12
6.22523e-13
-5.32028e-09
-1.09348e-13
5.34718e-09
-4.80644e-13
5.32031e-09
-1.46798e-08
1.10978e-12
-5.47299e-09
6.97154e-13
1.67376e-12
5.46951e-09
6.45709e-13
8.12047e-12
1.01274e-12
1.31361e-08
2.02348e-08
9.47089e-13
-3.02795e-12
-1.25357e-11
2.89639e-12
1.29015e-11
2.02208e-08
-5.86947e-13
-1.71266e-12
6.04687e-13
4.76662e-12
-9.7565e-09
7.38382e-13
9.75109e-09
-5.9075e-12
-1.98258e-12
1.98668e-11
1.98066e-08
1.18516e-08
1.8853e-13
-7.11754e-13
1.87589e-08
4.80628e-12
-1.70421e-11
7.29245e-13
1.18453e-08
1.71678e-11
1.87474e-08
-7.43261e-13
1.27149e-11
5.8784e-11
-1.83044e-08
-1.07653e-10
-9.98356e-11
1.84404e-08
2.26478e-08
1.64127e-11
-3.78718e-11
-2.33131e-11
-8.39397e-12
1.3914e-11
5.1561e-12
2.09021e-08
1.23069e-08
-1.13218e-11
6.83699e-13
-3.69667e-13
-2.03747e-11
-1.4315e-13
1.23317e-08
4.86778e-12
2.62241e-11
2.26894e-08
1.43142e-12
-3.76434e-11
-1.62639e-11
-3.42412e-11
-1.90674e-08
8.53307e-11
1.38217e-10
1.88944e-08
2.24864e-08
2.65058e-11
-4.40134e-11
-3.39941e-11
2.92068e-11
9.84341e-13
-5.80965e-12
1.24845e-11
2.06599e-08
1.24143e-08
-1.16836e-11
4.51909e-12
-5.80334e-14
7.5379e-11
3.15345e-11
2.23924e-08
1.54994e-11
6.46223e-13
1.23649e-08
2.86735e-11
-1.0255e-11
1.35986e-11
-2.23227e-11
-1.47094e-08
1.46958e-08
5.35925e-09
-6.11334e-12
3.06041e-13
5.32726e-09
-3.39103e-12
3.3432e-13
-4.9364e-13
5.35296e-09
-4.37727e-14
5.32048e-09
3.59319e-12
-5.24519e-13
6.42617e-09
-1.70091e-12
-1.49831e-11
2.70454e-12
-9.45324e-09
8.67727e-13
9.46635e-09
1.81063e-11
5.37081e-12
-1.91703e-08
1.92012e-08
-5.39183e-11
-1.14774e-08
1.05828e-12
1.14931e-08
7.91828e-12
-1.8174e-08
1.82014e-08
-4.49067e-11
5.97711e-12
-5.31575e-09
5.30807e-09
2.17527e-12
-4.72896e-13
3.71977e-12
1.28466e-08
1.60993e-11
8.35763e-14
1.97109e-08
5.62975e-12
-7.83235e-12
-2.95744e-11
-1.96837e-08
1.96839e-08
6.90891e-12
2.9842e-11
-2.62449e-12
5.26674e-13
-5.30802e-09
-5.59706e-12
5.45823e-13
5.31583e-09
-4.69117e-12
-1.16163e-13
1.28636e-08
-1.5615e-11
1.97111e-08
-2.95577e-11
1.07553e-12
1.48296e-11
-9.4662e-09
-7.688e-13
-1.78762e-11
-4.34028e-12
5.3602e-11
1.14929e-08
1.63744e-12
1.01573e-12
-1.14772e-08
1.82013e-08
1.49345e-11
-4.49486e-11
-1.81738e-08
-9.70668e-13
4.47269e-11
8.35214e-13
-9.45308e-09
5.00547e-12
-5.31933e-09
2.84159e-12
-3.60311e-13
5.31185e-09
4.95674e-12
1.51805e-11
1.36913e-13
1.28489e-08
1.97217e-08
6.16248e-12
-6.60884e-12
-2.99935e-11
8.03056e-12
2.89043e-11
1.96947e-08
-1.88783e-12
4.98376e-13
1.45191e-11
1.99087e-12
-9.47341e-09
-7.91552e-13
9.46053e-09
-5.64571e-12
-1.78956e-11
8.64879e-13
5.359e-11
1.91781e-08
1.82128e-08
1.48189e-11
-4.48097e-11
1.14999e-08
8.05199e-13
6.51216e-13
9.80603e-13
4.42716e-11
1.81854e-08
6.6643e-13
-9.75581e-13
1.14843e-08
7.58584e-13
6.27323e-12
-5.3138e-09
1.90225e-12
-4.91256e-13
5.30612e-09
3.25516e-12
-2.64224e-12
1.62386e-11
7.32206e-14
1.28387e-08
1.9705e-08
5.22694e-12
-8.18338e-12
-2.92465e-11
6.54277e-12
3.00153e-11
1.9678e-08
-2.90869e-12
4.27691e-13
7.24879e-13
1.49818e-11
-9.46565e-09
-7.78525e-13
9.45262e-09
-1.80053e-11
-3.97316e-12
5.37708e-11
1.91731e-08
1.14959e-08
2.01782e-12
9.8417e-13
1.82011e-08
1.4723e-11
-4.46557e-11
-1.00066e-12
1.14803e-08
4.48969e-11
1.81737e-08
7.76319e-13
-1.21381e-11
2.37075e-11
-1.8195e-08
-1.55762e-11
2.17991e-11
1.81772e-08
2.2425e-08
2.48736e-11
-4.5261e-11
-3.46203e-11
-2.23946e-08
-5.0434e-12
2.55275e-11
1.14112e-11
2.06069e-08
1.21922e-08
-1.17608e-11
4.00975e-12
5.67918e-14
-1.21784e-08
-3.26747e-12
-1.11473e-13
1.21784e-08
4.6526e-11
3.33564e-11
2.23943e-08
1.66808e-11
-2.04871e-11
-1.8178e-08
1.92309e-11
-1.06008e-11
-1.91764e-08
-1.33104e-11
2.43819e-11
1.91567e-08
2.27015e-08
1.78492e-11
-3.66309e-11
-2.26577e-11
-2.26789e-08
1.80698e-11
-2.84628e-12
-4.13649e-12
5.90373e-12
2.09531e-08
1.25334e-08
-1.09055e-11
1.07987e-12
-5.23452e-13
3.56245e-11
2.37052e-11
2.26795e-08
-2.19646e-12
4.9935e-13
1.25216e-08
1.19721e-11
-2.55539e-11
-1.91559e-08
-4.50675e-12
-4.863e-12
-1.47102e-08
1.46907e-08
5.33039e-09
-3.96004e-12
4.55282e-13
-5.32287e-09
5.35756e-09
-5.49648e-12
1.7701e-13
-6.42067e-13
5.32326e-09
-8.97135e-14
5.3506e-09
-1.4691e-08
1.10501e-12
5.69116e-13
6.55079e-09
6.47406e-13
-5.46737e-09
9.66003e-13
1.68667e-12
5.46407e-09
1.8983e-12
7.57454e-12
9.84104e-13
1.31291e-08
2.02195e-08
1.49794e-12
-2.24334e-12
-1.29502e-11
3.43817e-12
1.23845e-11
2.02062e-08
-2.07505e-13
-1.71185e-12
4.68745e-12
6.51968e-13
-9.74874e-09
7.25185e-13
9.74364e-09
-2.18795e-12
-5.66332e-12
1.78025e-13
1.97464e-11
1.98016e-08
1.87481e-08
4.76122e-12
-1.70064e-11
1.18478e-08
7.33723e-14
1.60223e-13
-7.67575e-13
1.69826e-11
1.8737e-08
9.97866e-14
7.46188e-13
1.18419e-08
-8.31625e-13
1.03473e-12
-5.46984e-09
7.18234e-13
1.74774e-12
5.46634e-09
1.36071e-12
-7.38863e-13
7.80567e-12
1.03314e-12
1.31252e-08
2.02233e-08
1.33693e-12
-2.74856e-12
-1.27324e-11
3.01412e-12
1.24257e-11
2.02103e-08
-5.43932e-13
-1.71113e-12
4.70489e-12
3.90063e-13
-9.75332e-09
7.60633e-13
9.74818e-09
-1.79879e-12
-5.46351e-12
1.97425e-11
1.98046e-08
1.8754e-08
4.70215e-12
-1.69165e-11
1.18503e-08
4.02246e-13
-7.64124e-13
1.69934e-11
1.8743e-08
7.7527e-13
1.18446e-08
-7.96525e-13
-7.1997e-13
6.42071e-09
6.00885e-13
6.5456e-09
7.44846e-13
-4.96024e-14
-1.33272e-07
1.33271e-07
-1.97982e-12
8.39672e-13
-1.30271e-07
1.30271e-07
-3.68418e-13
8.81652e-13
-1.44019e-07
1.44018e-07
2.89035e-11
3.07485e-11
-2.22963e-08
2.22831e-08
2.55515e-08
2.971e-11
2.45216e-08
3.00695e-11
-5.83754e-11
-4.16592e-11
2.75293e-08
2.55332e-08
2.45165e-08
2.59955e-11
3.36106e-11
-2.22884e-08
2.22741e-08
2.56611e-08
2.71444e-11
-2.56504e-08
2.44079e-08
3.34791e-11
-2.43956e-08
-5.04534e-11
-4.83579e-11
2.75156e-08
2.56503e-08
2.43955e-08
-2.22742e-08
-8.89216e-12
6.89132e-11
-2.2297e-08
2.22754e-08
2.56088e-08
2.55388e-11
2.44576e-08
3.47429e-11
-5.4907e-11
-4.47315e-11
2.75126e-08
2.44319e-08
2.56094e-08
2.90783e-11
3.0798e-11
-2.22818e-08
2.22681e-08
2.54827e-08
3.20546e-11
-2.54648e-08
2.45567e-08
2.78064e-11
-2.45499e-08
-4.22406e-11
-5.77162e-11
2.75126e-08
2.45503e-08
2.54652e-08
-2.2268e-08
3.99127e-13
1.33263e-07
-1.59436e-12
7.73827e-13
1.30264e-07
3.20533e-13
1.44023e-07
-1.77459e-12
-1.34327e-07
1.34326e-07
-1.06122e-12
-5.88814e-13
-1.28198e-07
1.28197e-07
-7.52744e-13
-1.44168e-07
1.44167e-07
-1.52483e-12
1.34349e-07
-3.362e-13
1.28219e-07
1.44182e-07
-3.89104e-11
-5.6229e-11
-2.56371e-08
-2.34966e-11
2.56868e-08
2.42494e-08
-3.7847e-11
3.54334e-11
1.74414e-11
2.03111e-08
2.23536e-08
-5.7667e-11
-1.42064e-11
2.42096e-08
1.56224e-11
2.23281e-08
2.48709e-11
-8.08355e-11
1.9599e-11
-2.58786e-08
2.5808e-08
-1.15029e-11
1.01951e-10
9.1721e-13
2.36304e-08
2.28541e-08
-8.14264e-11
2.68914e-08
1.82756e-11
8.18985e-12
2.28216e-08
-5.86442e-12
2.68768e-08
-2.1865e-11
-2.13841e-11
-2.60626e-08
-5.32613e-11
2.61449e-08
2.4578e-08
-2.11526e-11
-2.45604e-08
1.8031e-11
8.49014e-12
2.06789e-08
2.28447e-08
-2.19451e-11
-4.68153e-12
2.45607e-08
5.65657e-12
2.28386e-08
5.3803e-11
-2.61446e-08
5.80059e-12
-2.65039e-11
-2.63371e-08
2.62901e-08
3.24421e-11
-4.75368e-12
1.82215e-13
2.43114e-08
2.74812e-08
5.74606e-12
5.84406e-13
2.34072e-08
-2.61401e-11
8.5532e-15
2.75081e-08
2.33985e-08
-2.07095e-11
-2.45067e-11
-2.60423e-08
7.73117e-12
2.60892e-08
2.45906e-08
-2.51527e-11
-2.45705e-08
7.60196e-12
1.82135e-11
2.06698e-08
2.28422e-08
-2.04555e-11
-8.69674e-12
-2.28338e-08
7.77652e-12
2.28339e-08
2.45704e-08
-8.37932e-12
-2.60894e-08
-2.50752e-11
8.93797e-12
-2.63471e-08
2.6379e-08
-4.10385e-12
3.19761e-11
-2.06685e-13
2.43124e-08
2.34077e-08
-2.51653e-11
-2.34034e-08
2.74816e-08
9.66766e-12
4.1747e-13
-2.75133e-08
2.34036e-08
-3.61086e-13
2.75122e-08
-2.63794e-08
-2.08194e-11
-2.47904e-11
-2.60387e-08
8.24609e-12
2.60854e-08
2.45355e-08
-2.50191e-11
7.53675e-12
1.83928e-11
2.06636e-08
2.28461e-08
-2.04008e-11
-8.45237e-12
8.11514e-12
2.28376e-08
2.45213e-08
-8.30247e-12
-2.5369e-11
9.41525e-12
-2.6347e-08
2.63791e-08
-4.52702e-12
3.19712e-11
2.43145e-08
2.34118e-08
-2.52033e-11
2.7483e-08
9.41052e-12
2.34072e-08
2.75132e-08
-5.61436e-11
-3.80414e-11
-2.56327e-08
-2.42146e-11
2.56822e-08
2.41932e-08
-3.77256e-11
-2.4159e-08
1.69503e-11
3.51543e-11
2.02948e-08
2.2347e-08
-5.75943e-11
-1.45857e-11
-2.23215e-08
1.52905e-11
2.23216e-08
2.41591e-08
2.47491e-11
-2.56823e-08
-8.09495e-11
1.91251e-11
-2.58799e-08
2.58092e-08
-1.1152e-11
1.01799e-10
5.92583e-13
2.36279e-08
2.28503e-08
-8.16944e-11
-2.28179e-08
2.68932e-08
1.86068e-11
7.90264e-12
-2.6879e-08
2.28179e-08
-6.29167e-12
2.68785e-08
-2.58089e-08
-5.63523e-11
-4.02784e-11
-2.55998e-08
2.89604e-11
2.56173e-08
2.41957e-08
-4.19525e-11
-2.41593e-08
1.59782e-11
3.61337e-11
2.02862e-08
2.23379e-08
-5.60732e-11
-1.8522e-11
-2.23104e-08
1.68795e-11
2.23105e-08
2.41596e-08
-3.07203e-11
-2.56174e-08
2.10818e-11
-8.0432e-11
-2.58747e-08
2.58725e-08
1.02007e-10
-9.99412e-12
2.36244e-08
2.68884e-08
2.27348e-11
-2.68632e-08
2.28415e-08
-8.08169e-11
-2.28127e-08
2.68634e-08
2.28126e-08
-2.58724e-08
-4.01402e-11
-5.61923e-11
-2.56104e-08
2.87403e-11
2.56276e-08
2.42545e-08
-4.22584e-11
3.62023e-11
1.57451e-11
2.02935e-08
2.23408e-08
-5.55058e-11
-1.87728e-11
2.4218e-08
1.6606e-11
2.23138e-08
-3.09517e-11
2.07891e-11
-8.02752e-11
-2.58796e-08
2.58773e-08
1.02155e-10
-9.71807e-12
2.36271e-08
2.68893e-08
2.30662e-11
2.28448e-08
-8.03233e-11
2.68645e-08
2.28163e-08
-2.14653e-11
-2.13632e-11
-2.60662e-08
-5.35593e-11
2.61485e-08
2.45264e-08
-2.1139e-11
1.77405e-11
8.12819e-12
2.06647e-08
2.28453e-08
-2.16873e-11
-5.07564e-12
2.45093e-08
5.31252e-12
2.28391e-08
5.36273e-11
5.64909e-12
-2.64906e-11
-2.63426e-08
2.62953e-08
3.24595e-11
-4.43534e-12
2.43136e-08
2.74847e-08
5.89772e-12
2.34105e-08
-2.6015e-11
2.75111e-08
2.34019e-08
-5.74535e-13
-1.63199e-13
2.24319e-09
-1.63942e-14
-2.24349e-09
-2.79715e-13
-1.20258e-13
1.20592e-09
1.23486e-14
-1.20611e-09
-1.15626e-13
-7.27078e-14
5.9178e-10
1.66915e-14
-5.9188e-10
-3.21332e-14
-3.59047e-14
2.44359e-10
1.14813e-14
-2.44411e-10
-1.02454e-14
5.78977e-11
2.70617e-15
-5.7917e-11
-4.12253e-13
1.32559e-13
4.19167e-09
-1.35395e-13
-2.02002e-13
1.13575e-13
2.24928e-09
-9.48986e-14
-8.83703e-14
7.51159e-14
1.10429e-09
-5.65937e-14
-2.75993e-14
3.95572e-14
4.5681e-10
-2.67411e-14
1.085e-14
1.08622e-10
-8.01386e-15
-5.86974e-14
-8.63257e-14
2.24704e-09
-6.37638e-14
-2.24692e-09
-2.43848e-14
-6.60806e-14
1.20799e-09
-2.88e-14
-1.20793e-09
-7.27253e-15
-3.85405e-14
5.92783e-10
-1.37398e-14
-5.92748e-10
-5.65792e-17
-1.89813e-14
2.4475e-10
-6.29439e-15
-2.44734e-10
-4.51189e-15
5.79862e-11
-2.3944e-15
-5.79813e-11
3.68581e-13
-1.61834e-13
4.19628e-09
1.88853e-13
-4.196e-09
1.8119e-13
-7.49135e-14
2.25177e-09
1.06764e-13
-2.25161e-09
7.19128e-14
-3.57667e-14
1.10554e-09
5.83727e-14
-1.10545e-09
1.52961e-14
-1.44007e-14
4.57358e-10
2.71842e-14
-4.57308e-10
-3.15217e-15
1.08762e-10
7.15398e-15
-1.08747e-10
-3.16802e-13
4.1898e-09
-2.03741e-13
-4.19003e-09
-1.50791e-13
2.24831e-09
-1.24071e-13
-2.24847e-09
-5.99719e-14
1.10378e-09
-6.94909e-14
-1.10387e-09
-1.37669e-14
4.56609e-10
-3.2926e-14
-4.56659e-10
1.0862e-10
-7.71371e-15
-1.08637e-10
4.48128e-13
4.19387e-09
-6.48923e-14
-4.19353e-09
2.15206e-13
2.25049e-09
-3.13416e-14
-2.25028e-09
8.03892e-14
1.10492e-09
-1.09516e-14
-1.1048e-09
1.40906e-14
4.57059e-10
-1.92293e-15
-4.56996e-10
1.08687e-10
3.41804e-16
-1.08669e-10
-5.64351e-13
2.24478e-09
1.69152e-14
-2.64068e-13
1.20679e-09
3.33433e-14
-1.01666e-13
5.92217e-10
2.63706e-14
-2.35899e-14
2.44508e-10
1.37678e-14
5.79254e-11
4.6114e-15
5.06051e-13
1.49809e-13
-9.9587e-14
4.19561e-09
2.55304e-13
1.02283e-13
-4.43503e-14
2.2515e-09
1.02796e-13
5.59281e-14
-1.52488e-14
1.10543e-09
2.42574e-14
2.5394e-14
-3.01398e-15
4.57292e-10
6.6512e-15
5.93548e-16
1.08766e-10
-8.27979e-14
2.24797e-09
-2.87225e-13
-2.24788e-09
-4.05014e-14
1.20854e-09
-1.56816e-13
-1.2085e-09
-1.71171e-14
5.93015e-10
-8.07316e-14
-5.92989e-10
-4.80241e-15
2.44871e-10
-3.57586e-14
-2.44857e-10
5.80022e-11
-9.1285e-15
-5.79981e-11
-4.36745e-14
2.24798e-09
-2.18493e-15
-1.29571e-14
1.20855e-09
1.11377e-14
-2.61306e-15
5.93066e-10
8.01089e-15
7.27371e-17
2.4489e-10
2.96824e-15
5.80202e-11
3.6866e-16
-1.06672e-13
2.61149e-13
2.24646e-09
-4.04044e-13
-4.65254e-14
1.35883e-13
1.20764e-09
-2.25412e-13
-1.77443e-14
6.79917e-14
5.92584e-10
-1.15634e-13
-4.92245e-15
2.83173e-14
2.447e-10
-5.01769e-14
6.36246e-15
5.79805e-11
-1.28164e-14
-2.77897e-13
4.4418e-13
-4.67396e-13
4.19083e-09
-1.11902e-13
2.7559e-13
-2.70308e-13
2.24878e-09
-3.47441e-14
1.49171e-13
-1.43328e-13
1.10411e-09
-3.31683e-15
6.637e-14
-6.39019e-14
4.56736e-10
1.87119e-14
-1.50711e-14
1.08624e-10
-5.87608e-13
2.24349e-09
2.75078e-13
-2.85556e-13
1.20615e-09
1.802e-13
-1.17981e-13
5.91896e-10
1.03372e-13
-3.2352e-14
2.44393e-10
4.85294e-14
5.78976e-11
1.18847e-14
-5.86484e-13
-3.17497e-13
2.24294e-09
1.45655e-13
-2.84228e-13
-2.02972e-13
1.20588e-09
1.02279e-13
-1.16722e-13
-1.12467e-13
5.91751e-10
6.1321e-14
-3.1514e-14
-5.15462e-14
2.44355e-10
2.96032e-14
-1.43775e-14
5.78818e-11
7.45603e-15
3.51317e-13
2.63261e-13
4.19246e-09
1.80943e-13
1.5694e-13
2.24967e-09
7.5134e-14
8.59462e-14
1.10452e-09
1.83183e-14
3.93459e-14
4.56937e-10
1.06207e-14
1.08662e-10
-3.32896e-13
-3.62146e-13
4.18739e-09
-1.47946e-13
-2.08777e-13
2.24709e-09
-5.53519e-14
-1.09463e-13
1.1032e-09
-1.33244e-14
-4.80455e-14
4.56382e-10
-1.19055e-14
1.08514e-10
9.16692e-13
1.94395e-13
-5.14608e-14
-4.19579e-09
4.19639e-09
4.41324e-13
1.34933e-13
-3.48985e-14
-2.24942e-09
2.2498e-09
1.71878e-13
7.93039e-14
-1.75426e-14
-1.10358e-09
1.1038e-09
3.73461e-14
3.71508e-14
-6.25145e-15
-4.56307e-10
4.56421e-10
9.92389e-15
-1.81762e-15
-1.08474e-10
1.0851e-10
5.22878e-13
3.32533e-13
2.2435e-09
2.49509e-13
2.18675e-13
1.20611e-09
9.96637e-14
1.22859e-13
5.91885e-10
2.49632e-14
5.63307e-14
2.44414e-10
1.60145e-14
5.7916e-11
2.77856e-13
-3.18041e-13
4.27176e-13
4.19177e-09
1.36965e-13
-2.10072e-13
2.44745e-13
2.24938e-09
5.84818e-14
-1.20663e-13
1.31611e-13
1.10435e-09
1.63561e-14
-5.76256e-14
5.91635e-14
4.5684e-10
-1.53324e-14
1.55514e-14
1.08634e-10
4.48103e-13
-4.17627e-14
-2.58267e-09
1.29814e-13
2.58297e-09
2.18354e-13
-2.86317e-14
-1.38753e-09
8.01569e-14
1.38772e-09
8.63709e-14
-1.71555e-14
-6.81049e-10
4.61176e-14
6.81154e-10
1.9032e-14
-7.97348e-15
-2.81403e-10
2.17087e-14
2.81459e-10
-3.05127e-15
-6.677e-11
6.79943e-15
6.67869e-11
5.66536e-13
8.80122e-14
-2.82125e-09
2.82162e-09
2.74047e-13
5.06043e-14
-1.51514e-09
1.51535e-09
1.07239e-13
2.71974e-14
-7.43955e-10
7.44082e-10
2.33869e-14
1.28165e-14
-3.07631e-10
3.07698e-10
2.43573e-15
-7.30971e-11
7.31178e-11
-2.00757e-13
-3.60407e-13
-4.20498e-09
3.78006e-13
4.20482e-09
-1.01906e-13
-1.96803e-13
-2.25445e-09
2.21384e-13
2.25433e-09
-4.42326e-14
-1.00365e-13
-1.10611e-09
1.2019e-13
1.10603e-09
-1.306e-14
-4.42538e-14
-4.57329e-10
5.5249e-14
4.57289e-10
-1.04619e-14
-1.08722e-10
1.37875e-14
1.08707e-10
7.74153e-14
2.247e-09
-2.55969e-13
2.79084e-14
1.20797e-09
-1.27627e-13
7.17257e-15
5.9277e-10
-6.13534e-14
-3.43911e-16
2.44743e-10
-2.48077e-14
5.79823e-11
-5.18327e-15
-4.79998e-14
-4.30128e-14
-1.02803e-13
2.24713e-09
-1.87492e-14
-3.81458e-14
-5.27134e-14
1.20804e-09
-6.50703e-15
-2.21967e-14
-2.62811e-14
5.92809e-10
-2.96005e-15
-1.08983e-14
-1.14929e-14
2.44764e-10
-2.84532e-15
-3.84899e-15
5.79872e-11
-4.79542e-13
4.19595e-09
2.07099e-14
-2.21382e-14
-2.51253e-13
2.25157e-09
-1.10503e-14
-1.35464e-14
-1.06483e-13
1.10543e-09
-1.27885e-14
-8.72208e-15
-2.73917e-14
4.57296e-10
-8.37311e-15
-5.20255e-15
1.08742e-10
-2.61768e-15
-1.50922e-15
3.63075e-13
-2.00955e-13
4.19624e-09
2.10774e-13
1.81774e-13
-9.78703e-14
2.25174e-09
1.15745e-13
7.45802e-14
-4.7247e-14
1.10552e-09
6.03682e-14
1.72663e-14
-1.93728e-14
4.5735e-10
2.68282e-14
-3.89853e-15
1.08757e-10
6.90541e-15
-4.64026e-14
2.22998e-09
1.98822e-13
-1.99145e-14
1.19844e-09
1.21446e-13
-7.2874e-15
5.88079e-10
6.54127e-14
-2.0947e-15
2.4281e-10
2.87635e-14
5.75326e-11
7.29278e-15
-1.79464e-14
3.51323e-14
-2.29099e-15
2.22995e-09
-1.44891e-14
8.2216e-15
3.89679e-15
1.19843e-09
-8.15534e-15
3.00256e-16
6.27875e-15
5.8807e-10
-2.67678e-15
-1.17249e-15
5.09572e-15
2.42805e-10
-2.94888e-16
1.91334e-15
5.75307e-11
-2.66846e-13
2.2275e-09
-4.32953e-13
-1.31396e-13
1.19719e-09
-2.39969e-13
-5.54711e-14
5.87465e-10
-1.24323e-13
-1.56193e-14
2.42564e-10
-5.42944e-14
5.74737e-11
-1.45876e-14
2.19602e-13
2.9515e-13
-2.35788e-13
2.22765e-09
1.06232e-13
1.73478e-13
-1.50516e-13
1.19728e-09
4.38571e-14
9.60212e-14
-8.54639e-14
5.87514e-10
1.17568e-14
4.47655e-14
-4.00074e-14
2.42589e-10
1.19491e-14
-1.00554e-14
5.74823e-11
1.53679e-13
3.26702e-13
4.00394e-09
7.09526e-14
1.87565e-13
2.14846e-09
2.59059e-14
9.91971e-14
1.05434e-09
4.80595e-15
4.40711e-14
4.35929e-10
1.1389e-14
1.03579e-10
-3.2843e-15
4.00295e-09
5.05164e-16
2.14783e-09
7.37576e-16
1.0541e-09
-1.58361e-16
4.35803e-10
1.03548e-10
-2.66241e-13
-1.41959e-13
4.00387e-09
-1.29393e-13
-9.01433e-14
2.14842e-09
-5.08703e-14
-5.23898e-14
1.05432e-09
-1.1505e-14
-2.54372e-14
4.35914e-10
-6.58207e-15
1.03573e-10
-1.05654e-13
4.003e-09
-5.4044e-14
2.14787e-09
-2.13474e-14
1.05413e-09
-4.3178e-15
4.35814e-10
1.0355e-10
2.7536e-13
3.67159e-13
4.19002e-09
1.23817e-13
2.19574e-13
2.24847e-09
4.65281e-14
1.18117e-13
1.10387e-09
8.66949e-15
5.25283e-14
4.56659e-10
1.34156e-14
1.08634e-10
-3.8512e-13
4.19365e-09
-2.9144e-13
-2.03078e-13
2.25035e-09
-1.70997e-13
-8.66608e-14
1.10483e-09
-9.21944e-14
-2.30712e-14
4.57013e-10
-4.21777e-14
1.0867e-10
-1.04758e-14
4.66063e-13
4.194e-09
-2.02001e-14
2.31396e-13
2.25056e-09
-4.18623e-15
9.32808e-14
1.10495e-09
2.89268e-15
2.05053e-14
4.57077e-10
3.44064e-15
1.08687e-10
2.08967e-15
5.56518e-13
-1.20514e-13
2.24504e-09
2.66666e-13
-8.41848e-14
1.20696e-09
1.04727e-13
-4.87678e-14
5.92321e-10
2.38721e-14
-2.19914e-14
2.44565e-10
-6.40845e-15
5.79441e-11
-6.19544e-14
2.23196e-09
-1.37901e-13
-3.77908e-14
1.19943e-09
-6.39073e-14
-1.83402e-14
5.88536e-10
-2.67154e-14
-6.06423e-15
2.4302e-10
-9.35631e-15
5.7582e-11
-2.2771e-15
3.33791e-13
-2.70346e-13
3.55198e-13
2.23219e-09
1.58968e-13
-1.73536e-13
2.08051e-13
1.19957e-09
5.96968e-14
-9.13736e-14
1.16288e-13
5.88612e-10
1.21477e-14
-3.95094e-14
5.4785e-14
2.43054e-10
-9.4019e-15
1.4514e-14
5.75898e-11
1.54349e-13
4.00854e-09
3.32745e-14
7.29529e-14
2.15059e-09
3.05519e-14
2.91351e-14
1.05549e-09
2.06397e-14
7.33886e-15
4.36362e-10
1.05676e-14
1.03685e-10
3.32659e-15
8.18546e-14
-3.86304e-13
4.00854e-09
5.38002e-14
-2.17175e-13
2.15067e-09
2.00677e-14
-1.06125e-13
1.05554e-09
2.64314e-15
-4.29594e-14
4.3639e-10
-9.71845e-15
1.0369e-10
-3.073e-13
2.94046e-13
4.19546e-09
-1.6615e-13
1.55559e-13
2.25142e-09
-7.36517e-14
7.87733e-14
1.10538e-09
-1.98663e-14
3.3267e-14
4.57262e-10
7.66114e-15
1.08754e-10
4.62583e-13
-2.23303e-13
-2.5825e-09
3.41628e-13
2.5828e-09
2.2281e-13
-1.32298e-13
-1.38743e-09
2.02121e-13
1.3876e-09
8.61804e-14
-7.18673e-14
-6.80955e-10
1.11116e-13
6.81058e-10
1.77979e-14
-3.29109e-14
-2.81382e-10
5.17037e-14
2.81438e-10
-7.88067e-15
-6.67644e-11
1.29207e-14
6.67813e-11
5.68547e-13
-2.821e-09
2.82136e-09
2.7735e-13
-1.515e-09
1.51521e-09
1.1064e-13
-7.43888e-10
7.44012e-10
2.56211e-14
-3.07603e-10
3.07668e-10
-7.309e-11
7.31105e-11
-2.67461e-13
-1.42921e-13
1.58696e-13
-4.20488e-09
4.20467e-09
-1.3825e-13
-6.86909e-14
9.51212e-14
-2.25446e-09
2.25432e-09
-6.20389e-14
-3.13631e-14
5.31721e-14
-1.10603e-09
1.10594e-09
-1.91266e-14
-1.27921e-14
2.48727e-14
-4.57343e-10
4.57296e-10
-3.6296e-15
7.1327e-15
-1.08703e-10
1.08686e-10
5.16223e-14
2.24788e-09
1.8401e-14
1.2085e-09
5.14217e-15
5.92986e-10
3.93929e-16
2.44856e-10
5.79966e-11
-7.81679e-14
-3.24775e-13
2.24797e-09
-3.52046e-14
-1.7976e-13
1.20854e-09
-1.32596e-14
-9.26012e-14
5.93015e-10
-3.80202e-15
-4.09598e-14
2.44873e-10
-1.01524e-14
5.80009e-11
7.83415e-14
4.06858e-13
2.24792e-09
2.81417e-14
2.27534e-13
1.20853e-09
6.70967e-15
1.17284e-13
5.93054e-10
-3.18162e-16
5.14961e-14
2.44883e-10
1.25439e-14
5.80168e-11
-2.66795e-13
-3.98425e-14
4.27505e-14
-4.20314e-09
4.20292e-09
-1.36647e-13
-1.21318e-14
3.04207e-14
-2.25339e-09
2.25325e-09
-6.24469e-14
-3.46531e-15
2.13711e-14
-1.10553e-09
1.10545e-09
-2.01864e-14
-1.14184e-15
1.22271e-14
-4.57116e-10
4.57074e-10
-1.03787e-15
3.83638e-15
-1.08673e-10
1.08658e-10
4.94157e-14
5.63537e-14
2.24639e-09
1.65365e-14
5.01136e-14
1.20761e-09
3.50886e-15
2.98879e-14
5.92563e-10
-3.07152e-17
1.44123e-14
2.44688e-10
3.96657e-15
5.79764e-11
-2.66714e-13
2.23093e-09
-5.67709e-13
-1.30067e-13
1.19888e-09
-3.12935e-13
-5.7067e-14
5.88274e-10
-1.5898e-13
-1.85336e-14
2.42897e-10
-6.77077e-14
5.75692e-11
-1.84955e-14
2.92538e-13
-9.18052e-14
2.01946e-13
2.23102e-09
1.52705e-13
-6.02134e-14
1.21794e-13
1.19895e-09
6.5905e-14
-3.62511e-14
7.06533e-14
5.88316e-10
1.9078e-14
-1.81924e-14
3.35553e-14
2.4292e-10
-4.25464e-15
9.93152e-15
5.75784e-11
1.36434e-13
-4.22616e-13
4.0086e-09
7.82362e-14
-2.30584e-13
2.15074e-09
3.24241e-14
-1.16137e-13
1.05547e-09
8.71913e-15
-4.97173e-14
4.36342e-10
-1.16811e-14
1.037e-10
3.04635e-13
-6.17322e-14
4.19108e-09
1.33567e-13
-6.1525e-14
2.24897e-09
4.73395e-14
-4.18378e-14