/*--------------------------------*- C++ -*----------------------------------*\
| =========                 |                                                 |
| \\      /  F ield         | OpenFOAM: The Open Source CFD Toolbox           |
|  \\    /   O peration     | Version:  2206                                  |
|   \\  /    A nd           | Website:  www.openfoam.com                      |
|    \\/     M anipulation  |                                                 |
\*---------------------------------------------------------------------------*/
FoamFile
{
    version     2.0;
    format      ascii;
    arch        "LSB;label=32;scalar=64";
    class       volVectorField;
    location    "149";
    object      wallShearStress;
}
// * * * * * * * * * * * * * * * * * * * * * * * * * * * * * * * * * * * * * //

dimensions      [0 2 -2 0 0 0 0];

internalField   uniform (0 0 0);

boundaryField
{
    topPatch
    {
        type            calculated;
        value           nonuniform List<vector> 0();
    }
    wall
    {
        type            calculated;
        value           nonuniform List<vector> 
7803
(
(-1.12088e-08 1.42717e-09 -0.000103437)
(1.4326e-08 5.90283e-09 -0.000109994)
(1.31817e-09 -2.37077e-09 -0.000103651)
(-8.77372e-10 -3.94676e-09 -0.00011018)
(-1.37304e-08 6.07213e-09 -0.000109956)
(3.70931e-09 -4.70156e-09 -0.00011011)
(1.20224e-08 2.28549e-09 -0.000103481)
(-4.07026e-09 -5.14476e-09 -0.000110152)
(-3.13752e-09 -6.72162e-09 -0.000103714)
(-2.66438e-09 -6.00854e-09 -0.000103691)
(4.48109e-09 -1.06988e-08 -0.000103638)
(-2.28197e-08 -1.1128e-08 -0.000109976)
(-2.29126e-08 -5.84004e-09 -0.000103448)
(1.67679e-08 -3.44631e-09 -0.000103402)
(4.34419e-09 -9.36421e-09 -0.000110076)
(1.88156e-08 -9.01709e-09 -0.000109887)
(5.88338e-09 1.47193e-09 -0.000109976)
(1.95077e-08 -4.3955e-09 -0.000103402)
(-2.22488e-08 -9.95266e-09 -0.000109908)
(1.42061e-09 7.98983e-09 -0.000105633)
(2.64784e-09 5.79925e-10 -0.000107112)
(5.48157e-09 -2.07616e-08 -0.000110039)
(3.80501e-09 -8.20975e-09 -0.000103455)
(6.76562e-10 -4.10217e-10 -0.000103652)
(-2.30769e-09 -1.90931e-09 -0.000109955)
(-1.12352e-09 -4.71021e-09 -0.000110173)
(7.92758e-09 -1.14574e-08 -0.000104022)
(-1.27764e-09 2.5961e-09 -0.000103836)
(1.46816e-08 -8.41379e-09 -0.000103884)
(-1.27167e-08 6.97362e-09 -0.000103776)
(5.27378e-09 -6.23042e-09 -0.000109065)
(1.76916e-08 -1.52062e-08 -0.000109021)
(1.89069e-10 5.71422e-10 -0.000108874)
(-1.3294e-08 1.17539e-08 -0.000108859)
(2.03243e-08 -9.30205e-09 -0.000109867)
(4.0663e-09 -8.99692e-09 -0.000109891)
(2.65251e-09 -2.23224e-09 -0.000110109)
(-1.68658e-08 -3.24458e-09 -0.000103448)
(5.41913e-10 4.32393e-10 -0.000104096)
(-1.19828e-08 -1.46395e-08 -0.000103927)
(-3.29944e-09 -3.15279e-09 -0.000109169)
(-5.34954e-09 -5.27414e-09 -0.000108991)
(-6.60047e-09 -1.34502e-08 -0.000109937)
(4.27726e-11 -1.55153e-08 -0.000105668)
(2.31389e-09 -7.06285e-09 -0.000107124)
(2.3002e-09 1.15949e-08 -0.000110089)
(5.45143e-11 -7.69895e-10 -0.000103517)
(-3.19766e-09 -8.07132e-09 -0.000103711)
(-4.71052e-09 -1.0974e-08 -0.000103497)
(-1.06078e-09 7.15787e-09 -0.000110039)
(1.29741e-09 -3.26793e-09 -0.000103442)
(-1.89535e-08 -1.15347e-08 -0.000104015)
(6.77892e-09 2.39466e-09 -0.000103932)
(-1.98942e-08 -1.73726e-08 -0.000109158)
(8.04467e-09 3.06617e-09 -0.000109892)
(-4.84358e-09 -4.18027e-09 -0.000109983)
(9.02224e-09 3.31023e-10 -0.000103418)
(4.38974e-10 -3.19269e-09 -0.000109969)
(-1.47371e-08 2.25559e-09 -0.000103372)
(2.45728e-09 -2.31352e-09 -0.000109859)
(-1.57823e-08 7.19095e-09 -0.000109799)
(1.09102e-09 3.8401e-09 -0.000110033)
(-6.17702e-09 -2.36558e-08 -0.000110093)
(2.03751e-09 2.28697e-09 -0.000105269)
(6.71198e-09 -2.0542e-09 -0.000106742)
(4.27755e-09 1.93517e-09 -0.000106707)
(9.01783e-09 -3.68957e-09 -0.000105297)
(5.54762e-09 -4.41657e-09 -0.000109989)
(9.09438e-09 6.32339e-09 -0.000104024)
(-1.81667e-08 -1.23281e-08 -0.000103895)
(1.00125e-08 9.34068e-09 -0.000109141)
(-1.62447e-08 -1.45233e-08 -0.000108968)
(-1.96931e-09 9.53294e-09 -0.000110267)
(7.14002e-10 -1.69611e-08 -0.000105369)
(1.92797e-09 -5.45147e-10 -0.00010711)
(-1.60458e-09 -7.89916e-09 -0.00010683)
(1.1465e-09 6.20469e-09 -0.000105631)
(-2.1167e-09 1.17462e-08 -0.000110269)
(-6.33058e-09 -9.78815e-09 -0.000104122)
(6.84055e-10 1.90419e-09 -0.000103908)
(-5.41235e-09 -6.83477e-09 -0.000109199)
(6.20387e-09 8.49934e-09 -0.000108983)
(-9.54164e-09 5.73138e-09 -0.000103999)
(1.66607e-08 -9.87588e-09 -0.000103888)
(-1.18745e-08 1.02056e-08 -0.000109096)
(1.96256e-08 -1.65128e-08 -0.000108937)
(-1.16506e-11 1.05378e-09 -0.000104045)
(8.33511e-09 -1.15648e-08 -0.000103857)
(2.10484e-09 -1.19283e-09 -0.000109136)
(6.90679e-09 -8.45353e-09 -0.00010894)
(6.50084e-09 3.25673e-09 -0.00010531)
(3.83706e-09 -1.96615e-09 -0.000106762)
(5.71394e-09 2.53233e-09 -0.000106726)
(-2.34914e-11 -1.78014e-09 -0.00010534)
(3.95347e-10 -2.85501e-09 -0.000110047)
(-4.85421e-10 8.20824e-09 -0.000105405)
(2.03362e-09 -7.03717e-09 -0.000107123)
(-2.1264e-09 -1.19788e-10 -0.000106841)
(-4.68195e-10 -1.43756e-08 -0.000105667)
(-4.26672e-09 -1.89362e-08 -0.000110321)
(-4.48752e-09 -2.0372e-08 -0.00011032)
(7.39158e-10 5.69128e-09 -0.000110317)
(-1.07303e-09 -2.0491e-08 -0.000105426)
(-2.0769e-09 -4.82664e-09 -0.000107158)
(1.29909e-09 -1.18749e-08 -0.00010688)
(-1.55629e-09 2.60532e-09 -0.000105686)
(1.07179e-09 3.51384e-09 -0.000105393)
(-1.75932e-09 -1.27828e-08 -0.000107144)
(2.40042e-09 -4.50683e-09 -0.000106862)
(1.2481e-09 -2.03003e-08 -0.000105654)
(6.09362e-09 -2.49527e-08 -0.000110269)
(1.90648e-08 1.60001e-08 -0.000109019)
(-7.04325e-09 1.05627e-09 -0.000109994)
(-6.13985e-09 -3.63177e-09 -0.000105283)
(-7.69249e-11 2.26057e-09 -0.000106747)
(-3.24595e-10 -2.44822e-09 -0.000106717)
(-9.83816e-10 2.41367e-09 -0.000105307)
(1.98607e-09 2.50668e-09 -0.00010998)
(4.41448e-09 -2.9703e-09 -0.000105282)
(-1.17611e-09 2.16167e-09 -0.000106749)
(1.47215e-09 -2.22133e-09 -0.00010672)
(-2.17254e-09 2.64174e-09 -0.000105307)
(6.42671e-10 5.5985e-10 -0.000103519)
(-1.45531e-09 -1.27551e-10 -0.000109959)
(-3.64683e-09 -1.74775e-08 -0.00011032)
(-1.91501e-09 -4.14835e-09 -0.000103714)
(3.16952e-10 -1.45112e-09 -0.000110185)
(1.40494e-09 5.71086e-09 -0.000105628)
(-1.46806e-09 -8.71588e-09 -0.000106829)
(1.75827e-09 -1.01444e-09 -0.000107106)
(7.13967e-10 -1.8392e-08 -0.000105367)
(-5.89149e-10 -1.30826e-08 -0.000105664)
(-2.70562e-09 -1.63486e-10 -0.000106839)
(1.74472e-09 -6.79767e-09 -0.00010712)
(-5.51593e-10 9.22232e-09 -0.000105404)
(2.60784e-09 1.26546e-08 -0.000110089)
(1.69847e-09 3.72862e-09 -0.000103918)
(-4.18968e-09 -7.04564e-09 -0.000104127)
(3.76329e-09 6.04396e-09 -0.000108996)
(-1.02518e-08 -1.25617e-08 -0.000109215)
(1.97753e-08 -8.92775e-09 -0.000109868)
(5.33849e-09 -1.08566e-08 -0.000109888)
(1.94036e-08 -4.60304e-09 -0.000103401)
(3.95063e-09 -1.02349e-08 -0.000103452)
(-1.40495e-08 6.02494e-09 -0.000109952)
(4.0785e-09 -6.13469e-09 -0.000110104)
(6.73486e-09 -5.04507e-09 -0.000109985)
(-1.11345e-08 1.06024e-09 -0.000103434)
(1.56268e-09 -3.48717e-09 -0.000103645)
(1.99574e-08 -1.67627e-08 -0.000108938)
(7.88986e-09 -9.45659e-09 -0.000108939)
(-1.70231e-09 8.45652e-09 -0.000110263)
(5.49873e-09 -2.23879e-08 -0.000110036)
(1.62764e-08 -9.72844e-09 -0.000103887)
(-1.00817e-08 5.78393e-09 -0.000103996)
(9.38117e-09 -1.34921e-08 -0.000103855)
(6.4752e-10 -1.36462e-10 -0.000104039)
(2.78189e-09 -2.14735e-09 -0.000109133)
(-1.19702e-08 1.06004e-08 -0.000109093)
(1.02307e-08 -3.89955e-09 -0.000105296)
(4.83366e-09 1.44566e-09 -0.000106709)
(8.02222e-09 -2.37348e-09 -0.000106741)
(3.08851e-09 1.80853e-09 -0.000105268)
(6.51907e-09 1.16628e-09 -0.000109975)
(-7.57971e-10 -6.67556e-09 -0.000103374)
(1.42465e-08 2.58238e-09 -0.000109926)
(-2.93347e-08 -1.0281e-08 -0.000109967)
(-7.36126e-11 -1.4151e-08 -0.000103541)
(-1.89104e-09 4.1674e-09 -0.000110079)
(2.66329e-09 -2.74353e-09 -0.000110089)
(-5.20123e-10 -3.5112e-09 -0.000110041)
(2.13401e-08 -8.60222e-09 -0.000109909)
(-4.57555e-10 -3.33346e-09 -0.000109941)
(-1.31847e-09 -5.68579e-09 -0.000110054)
(3.15521e-09 -4.86601e-11 -0.000110056)
(-1.43674e-09 -4.48431e-09 -0.000109954)
(1.82021e-08 -5.57267e-09 -0.00010989)
(-7.50185e-09 -1.0558e-09 -0.000109896)
(5.03897e-09 -1.68229e-08 -0.000110005)
(6.13063e-09 -4.54373e-09 -0.000103413)
(-2.22117e-08 -2.43201e-09 -0.000103551)
(-1.6719e-09 -1.04826e-08 -0.000110084)
(-5.19079e-09 1.01832e-09 -0.000103619)
(1.19684e-09 -9.78902e-09 -0.000103618)
(6.5892e-09 -3.06337e-09 -0.000103597)
(-7.99472e-09 7.66609e-11 -0.000109906)
(-5.48969e-09 4.03292e-09 -0.000103395)
(1.27276e-08 7.18557e-10 -0.000103392)
(5.25904e-09 -1.41736e-09 -0.00011005)
(1.70159e-08 -4.35268e-09 -0.000109887)
(7.38504e-09 -7.78189e-09 -0.00010405)
(-1.53799e-09 -2.45835e-09 -0.000104002)
(1.76618e-08 -9.1005e-09 -0.000103921)
(8.31419e-10 -4.70769e-09 -0.000103921)
(6.87801e-09 -6.08109e-09 -0.000109103)
(1.96751e-08 -1.48182e-08 -0.000109063)
(-2.27008e-09 -1.78461e-09 -0.000104015)
(6.75951e-09 -6.05881e-09 -0.000104035)
(7.05716e-10 -4.59994e-09 -0.000103934)
(1.6549e-08 -7.995e-09 -0.000103908)
(1.72808e-08 -4.59256e-09 -0.000105356)
(8.76266e-10 3.6704e-09 -0.000106857)
(5.89844e-09 -1.98383e-09 -0.000106814)
(2.35851e-09 4.51151e-09 -0.000105404)
(2.59399e-08 5.78315e-10 -0.000110053)
(3.81577e-08 -7.58731e-09 -0.000103468)
(2.30606e-08 -8.38902e-09 -0.000110021)
(6.61023e-09 -5.55876e-09 -0.000103426)
(-3.04402e-08 -1.21637e-08 -0.000109946)
(-7.4584e-09 -5.9876e-09 -0.000109948)
(1.05836e-08 -1.95046e-08 -0.00011014)
(8.15379e-09 -4.59092e-09 -0.000103552)
(1.83245e-09 -5.56261e-09 -0.000110058)
(8.87498e-09 -5.21886e-09 -0.000104009)
(-3.80608e-09 -3.41006e-09 -0.00010401)
(1.32104e-08 -3.28164e-09 -0.00010389)
(-2.96541e-09 -4.95082e-09 -0.000103933)
(-1.24199e-10 -3.72684e-09 -0.000110027)
(2.60838e-09 -1.52898e-09 -0.000110073)
(-8.35431e-10 -2.93074e-09 -0.000109928)
(1.99667e-08 -7.43933e-09 -0.000109899)
(-3.70679e-09 -2.54676e-09 -0.000104027)
(7.18911e-09 -4.49764e-09 -0.000104008)
(-8.406e-10 -5.5445e-09 -0.000103947)
(1.29465e-08 -4.5232e-09 -0.00010389)
(9.71886e-11 -6.53924e-09 -0.000109077)
(-5.90584e-09 -5.60676e-10 -0.000109057)
(6.85577e-09 -4.18449e-09 -0.000104019)
(-3.18178e-09 -1.80826e-09 -0.000104019)
(1.47656e-08 -5.53987e-09 -0.000103897)
(2.19969e-10 -5.12403e-09 -0.000103939)
(3.85559e-09 -6.67733e-10 -0.000110048)
(-1.02534e-09 -4.48292e-09 -0.000110047)
(1.67144e-08 -4.79848e-09 -0.000109886)
(-1.13101e-09 -3.91094e-09 -0.000109947)
(3.30957e-08 -1.35899e-08 -0.000109919)
(6.39015e-09 -5.16589e-09 -0.000109925)
(6.06583e-09 -2.67847e-09 -0.000109986)
(-1.13826e-08 -3.61846e-09 -0.000105388)
(4.8426e-09 4.0836e-09 -0.000106871)
(2.96752e-10 -1.64791e-09 -0.000106829)
(3.4575e-09 5.14665e-09 -0.000105435)
(-3.24575e-08 -5.60284e-09 -0.000103504)
(-1.96606e-09 -3.73059e-09 -0.000103461)
(-4.34126e-10 -8.09378e-09 -0.000104037)
(-7.62458e-09 -7.48683e-10 -0.000104051)
(-2.49025e-09 -8.42541e-09 -0.000104092)
(-5.03606e-09 -1.07868e-08 -0.000109117)
(1.40367e-09 8.43434e-09 -0.000109087)
(-6.06444e-09 -9.99753e-10 -0.000110072)
(-3.70877e-09 -1.44352e-08 -0.000110129)
(4.32624e-09 -4.96706e-09 -0.000103627)
(3.73747e-09 1.86336e-09 -0.000105617)
(3.27245e-09 -3.84049e-09 -0.000107088)
(-6.59946e-09 3.45498e-12 -0.000103629)
(2.47244e-09 -7.58604e-09 -0.000103649)
(6.66384e-09 -1.66512e-08 -0.000105608)
(3.97356e-09 -1.23734e-08 -0.000107082)
(-5.80308e-09 1.51593e-09 -0.0001102)
(-2.6754e-09 -9.34234e-09 -0.000103607)
(8.06518e-09 -5.59114e-09 -0.000103626)
(-8.29218e-09 4.14663e-10 -0.000103929)
(4.6443e-09 -4.39322e-09 -0.000103999)
(7.52268e-09 -1.67715e-09 -0.000109962)
(9.35531e-09 -3.83503e-09 -0.000103492)
(1.58324e-08 -1.08062e-08 -0.000110056)
(-2.76629e-09 -6.10965e-09 -0.000103484)
(-8.40518e-10 -7.91634e-09 -0.000110032)
(7.23473e-09 -4.92879e-09 -0.000110084)
(-4.30121e-09 -3.44357e-09 -0.00010994)
(1.91472e-08 -3.8986e-09 -0.000103402)
(-1.28897e-08 -4.3209e-09 -0.0001099)
(3.07586e-09 -6.36718e-09 -0.000103457)
(-2.02609e-09 -1.58485e-09 -0.000109953)
(-1.46509e-08 2.03796e-09 -0.000103428)
(1.4452e-08 -2.20181e-09 -0.000103395)
(2.10943e-08 9.1422e-09 -0.000109984)
(-1.31886e-08 -5.79525e-09 -0.000109895)
(-1.83736e-09 2.4314e-09 -0.000103655)
(2.22524e-09 -3.98302e-09 -0.000103458)
(3.25947e-10 -3.57007e-10 -0.000110177)
(8.96282e-10 3.50999e-09 -0.000109957)
(-1.64812e-08 3.25021e-09 -0.000103427)
(1.42386e-08 -2.67605e-09 -0.000103397)
(2.27905e-08 1.06668e-08 -0.00010998)
(-8.30305e-09 -3.02688e-09 -0.000109886)
(-1.04337e-09 2.70338e-09 -0.000103656)
(1.86352e-09 -4.75121e-09 -0.00010346)
(2.91938e-09 3.09576e-09 -0.000110189)
(1.35416e-09 4.99855e-09 -0.000109973)
(-1.76239e-08 3.92002e-09 -0.000103436)
(1.02228e-08 -6.92642e-10 -0.000103416)
(2.20743e-08 1.07575e-08 -0.000109979)
(-1.31452e-08 -5.73729e-09 -0.000109897)
(-9.04867e-10 2.06701e-09 -0.000103662)
(1.98418e-09 -3.80419e-09 -0.000103477)
(8.51713e-10 -9.6111e-10 -0.000110207)
(-1.16613e-09 -4.72005e-10 -0.000109995)
(-2.18758e-08 5.34805e-09 -0.000103472)
(1.12164e-08 -1.19507e-09 -0.000103454)
(2.29164e-08 1.0594e-08 -0.000110006)
(-9.83811e-09 -3.14089e-09 -0.000109929)
(-2.14283e-09 5.08945e-09 -0.000103698)
(3.49294e-10 4.26534e-11 -0.000103511)
(4.90212e-10 -1.17843e-09 -0.000110241)
(2.30113e-10 1.84435e-09 -0.000110033)
(-1.42695e-08 2.59084e-09 -0.000103505)
(1.75176e-08 -3.51437e-09 -0.000103481)
(1.72286e-08 8.04755e-09 -0.000110035)
(-1.81554e-08 -8.12386e-09 -0.000109951)
(-2.48967e-09 5.78335e-09 -0.000103718)
(1.03447e-09 -2.00683e-09 -0.000103522)
(1.34769e-09 5.53928e-10 -0.000110271)
(7.52709e-10 3.50872e-09 -0.000110051)
(-1.32903e-08 1.70691e-09 -0.000103512)
(1.52932e-08 -2.96467e-09 -0.000103478)
(1.86062e-08 8.69839e-09 -0.000110041)
(-1.24239e-08 -4.48742e-09 -0.000109947)
(-2.34e-09 5.00792e-09 -0.000103717)
(8.81493e-10 -1.71112e-09 -0.00010352)
(3.38582e-09 4.13225e-09 -0.000110273)
(3.2231e-09 7.87112e-09 -0.000110048)
(-1.93461e-08 4.23377e-09 -0.000103508)
(1.1003e-08 -1.52516e-09 -0.000103476)
(1.67831e-08 7.70448e-09 -0.000110035)
(-1.78402e-08 -8.32999e-09 -0.000109951)
(-1.72777e-09 3.82754e-09 -0.000103723)
(1.99693e-09 -5.58133e-09 -0.000103533)
(3.76113e-09 4.59517e-09 -0.00011027)
(1.37337e-09 4.72258e-09 -0.000110046)
(-1.62095e-08 3.17535e-09 -0.000103502)
(1.52868e-08 -2.56202e-09 -0.000103466)
(2.04633e-08 9.65372e-09 -0.000110048)
(-9.22499e-09 -2.44274e-09 -0.000109964)
(3.96978e-10 -2.55222e-09 -0.000103731)
(4.85013e-09 -9.67025e-09 -0.000103533)
(5.96633e-10 -6.19472e-10 -0.000110264)
(-1.1562e-09 -5.63217e-10 -0.000110044)
(-1.3861e-08 2.62464e-09 -0.000103487)
(1.66914e-08 -3.67639e-09 -0.000103451)
(1.94391e-08 9.22423e-09 -0.000110054)
(-1.71008e-08 -7.85835e-09 -0.000109962)
(1.33546e-09 -2.95792e-09 -0.000103716)
(3.79079e-09 -9.29959e-09 -0.00010351)
(-1.60636e-09 -5.00044e-09 -0.000110266)
(-2.34742e-09 -1.65605e-09 -0.000110041)
(-1.68164e-08 3.24899e-09 -0.000103474)
(1.24499e-08 -2.03907e-09 -0.000103437)
(1.9065e-08 8.27486e-09 -0.000110038)
(-1.1102e-08 -4.23165e-09 -0.000109944)
(-1.30643e-09 2.06448e-09 -0.000103696)
(1.45319e-10 -1.4037e-09 -0.000103499)
(1.71822e-10 -9.61798e-10 -0.000110258)
(-1.39036e-10 2.77937e-09 -0.000110039)
(-1.87744e-08 3.74664e-09 -0.000103459)
(1.01471e-08 -1.38472e-09 -0.000103427)
(2.06576e-08 9.45527e-09 -0.00011002)
(-1.3273e-08 -6.16971e-09 -0.000109926)
(-3.61608e-09 7.60578e-09 -0.000103691)
(-2.34956e-10 -3.29142e-10 -0.000103496)
(3.0377e-09 3.70767e-09 -0.000110261)
(1.72135e-09 5.52109e-09 -0.000110038)
(-1.6262e-08 3.12506e-09 -0.00010346)
(1.64088e-08 -3.01985e-09 -0.000103435)
(2.19363e-08 1.04483e-08 -0.000110003)
(-9.95844e-09 -2.77758e-09 -0.000109917)
(-1.54919e-09 3.29342e-09 -0.000103694)
(2.80872e-09 -5.79353e-09 -0.000103502)
(8.23191e-10 -6.45099e-10 -0.00011025)
(-1.47873e-09 -1.45035e-09 -0.000110025)
(-1.51111e-08 2.78934e-09 -0.000103468)
(1.512e-08 -2.77074e-09 -0.000103447)
(1.71528e-08 7.65616e-09 -0.000110001)
(-2.06467e-08 -9.80181e-09 -0.000109919)
(7.01419e-10 -2.81846e-09 -0.000103692)
(2.77993e-09 -6.41076e-09 -0.000103509)
(-2.76333e-09 -6.06601e-09 -0.000110227)
(-2.82724e-09 -3.25574e-09 -0.000110015)
(-1.83304e-08 3.52687e-09 -0.000103464)
(9.86426e-09 -1.17624e-09 -0.000103448)
(1.62949e-08 6.6337e-09 -0.000109982)
(-1.10379e-08 -4.33962e-09 -0.000109908)
(-2.6308e-09 4.8765e-09 -0.000103681)
(-4.72132e-10 1.27958e-09 -0.00010351)
(2.41641e-10 -4.58997e-10 -0.000110216)
(-4.0242e-10 1.38657e-09 -0.000110025)
(-1.83775e-08 3.2464e-09 -0.000103443)
(1.295e-08 -1.30976e-09 -0.000103455)
(2.01948e-08 8.80936e-09 -0.000109966)
(-1.42492e-08 -5.46548e-09 -0.000109928)
(-3.64428e-09 5.84589e-09 -0.000103653)
(-6.88732e-10 5.22031e-09 -0.000103527)
(2.89736e-10 9.19872e-10 -0.000110192)
(-2.10861e-09 -3.93827e-09 -0.000110044)
(-1.01902e-08 -7.76969e-10 -0.000103402)
(2.03048e-08 -2.71079e-09 -0.000103482)
(2.11726e-08 8.32474e-09 -0.000109937)
(-1.55924e-08 -3.9552e-09 -0.000109965)
(-1.90017e-09 -1.59424e-09 -0.0001036)
(3.94009e-09 -1.46457e-09 -0.000103559)
(-2.15878e-09 -1.468e-09 -0.000110132)
(-8.77755e-10 -5.59716e-09 -0.000110074)
(2.08017e-08 -9.52371e-09 -0.000109865)
(3.04237e-09 -7.03041e-09 -0.000109892)
(1.79818e-08 -9.09122e-09 -0.00010986)
(-1.34864e-08 6.01788e-09 -0.000109951)
(6.01753e-10 -4.22786e-09 -0.000109892)
(1.34431e-09 -4.97848e-10 -0.00011011)
(-1.22788e-08 -1.29943e-09 -0.000103441)
(1.65223e-08 -3.87035e-09 -0.000103395)
(-1.19026e-08 1.64496e-09 -0.000103432)
(-1.49329e-08 -3.76318e-09 -0.000103436)
(1.66538e-08 3.75469e-09 -0.000103475)
(-6.6169e-10 -3.93434e-09 -0.000109942)
(-1.48076e-08 -7.17211e-09 -0.000109896)
(2.05678e-08 9.89377e-09 -0.000109994)
(-9.03847e-10 -4.72698e-09 -0.000109935)
(-7.80307e-10 6.81933e-10 -0.000110148)
(5.96666e-10 1.8251e-11 -0.000103515)
(1.40078e-09 -4.27757e-09 -0.000103457)
(-4.7221e-10 1.24759e-09 -0.000103653)
(2.70802e-10 2.16139e-09 -0.000103515)
(-3.21822e-09 -7.27711e-09 -0.00010371)
(-2.68286e-09 -5.75161e-09 -0.000103502)
(1.37112e-10 -1.33444e-09 -0.000103442)
(-2.04875e-09 -6.12841e-09 -0.000103498)
(1.95166e-10 -1.86401e-11 -0.000103692)
(-1.1818e-09 3.87957e-09 -0.000103442)
(2.79891e-09 -7.1006e-09 -0.000103639)
(1.07657e-08 4.49799e-09 -0.000109891)
(-6.82497e-10 2.42909e-09 -0.000109956)
(-4.69696e-09 -1.05508e-08 -0.000110166)
(1.59885e-08 7.4317e-09 -0.000109884)
(-2.52947e-08 -1.23063e-08 -0.000109981)
(1.20415e-08 1.38531e-09 -0.000103418)
(-1.52733e-08 2.27402e-09 -0.000103371)
(1.55984e-08 3.82004e-09 -0.000103415)
(-1.84591e-08 -4.08864e-09 -0.000103449)
(-1.43118e-08 3.2208e-09 -0.00010337)
(1.58671e-08 -2.91374e-09 -0.000103401)
(1.64693e-09 -1.47633e-09 -0.00010986)
(-1.59923e-08 7.44573e-09 -0.000109799)
(-1.93036e-10 2.8382e-09 -0.000109861)
(2.74067e-09 -7.20956e-09 -0.000110078)
(-1.52844e-08 7.35933e-09 -0.000109801)
(1.85108e-08 -8.68393e-09 -0.000109886)
(-1.62669e-08 6.95476e-09 -0.000109948)
(1.58213e-08 -7.04454e-09 -0.00010986)
(-4.36713e-10 2.21005e-09 -0.000110112)
(6.10766e-10 -2.5543e-09 -0.000109895)
(1.47882e-08 -6.66226e-09 -0.000109859)
(-1.85182e-08 8.94628e-09 -0.000109948)
(6.59583e-10 -2.83744e-09 -0.000109897)
(-2.51515e-10 3.35745e-09 -0.000110114)
(1.62906e-08 2.72278e-09 -0.000103469)
(-1.29641e-08 -1.73069e-09 -0.000103437)
(1.41144e-08 -2.49559e-09 -0.000103394)
(-1.63131e-08 3.48892e-09 -0.000103427)
(-1.22939e-08 -1.69769e-09 -0.000103437)
(1.82309e-08 4.26176e-09 -0.000103469)
(9.59441e-10 3.04644e-09 -0.000110151)
(1.09664e-10 -1.39302e-09 -0.000109934)
(-1.48642e-08 -6.71487e-09 -0.000109895)
(2.32123e-08 1.125e-08 -0.000109985)
(-7.81329e-10 -3.14407e-09 -0.000109927)
(2.22433e-09 6.62628e-09 -0.000110148)
(-2.42608e-09 -4.21462e-09 -0.000103713)
(2.32838e-09 4.63068e-09 -0.000103516)
(1.9369e-09 -3.67862e-09 -0.000103458)
(-8.80733e-10 2.81852e-09 -0.000103655)
(2.82522e-09 6.33545e-09 -0.00010352)
(-8.9899e-10 -2.73871e-09 -0.000103713)
(1.07625e-09 1.59887e-09 -0.000103694)
(-1.49217e-09 -3.04778e-09 -0.000103499)
(1.34292e-09 -2.14706e-09 -0.000103642)
(-2.87138e-09 6.43927e-09 -0.000103447)
(-8.073e-10 -1.45917e-09 -0.000103494)
(1.61707e-09 4.64991e-09 -0.000103694)
(-2.66337e-09 6.31122e-09 -0.000103447)
(1.86959e-10 -7.83013e-10 -0.000103645)
(-1.45725e-08 -5.93816e-09 -0.000109971)
(1.83322e-08 8.37288e-09 -0.00010989)
(2.37743e-09 6.46576e-09 -0.000109968)
(-1.70391e-09 -5.45563e-09 -0.000110172)
(2.06333e-08 9.22615e-09 -0.000109886)
(-1.82983e-08 -9.16385e-09 -0.000109983)
(-1.45963e-08 -2.22109e-09 -0.000103449)
(1.86509e-08 4.10314e-09 -0.000103421)
(1.712e-08 -3.0623e-09 -0.000103404)
(-1.50067e-08 2.65458e-09 -0.000103375)
(1.95339e-08 4.30411e-09 -0.000103418)
(-1.23927e-08 -2.07104e-09 -0.000103454)
(-1.58243e-08 2.9287e-09 -0.000103374)
(1.56551e-08 -3.21342e-09 -0.000103407)
(4.61328e-10 -2.66651e-09 -0.000110081)
(-2.2264e-09 6.24939e-09 -0.000109866)
(1.94861e-08 -8.83256e-09 -0.000109891)
(-1.57568e-08 7.1465e-09 -0.000109808)
(-3.04847e-09 7.69104e-09 -0.000109866)
(-1.48666e-09 -1.19763e-11 -0.000110085)
(-1.65537e-08 7.48479e-09 -0.000109808)
(1.86586e-08 -8.71973e-09 -0.000109896)
(-1.86268e-08 8.64397e-09 -0.000109947)
(1.6027e-08 -7.3966e-09 -0.000109861)
(-1.24288e-10 2.78193e-09 -0.000110117)
(1.07801e-09 -4.15466e-09 -0.000109901)
(1.56079e-08 -7.08924e-09 -0.000109864)
(-1.78394e-08 7.93933e-09 -0.00010995)
(1.36236e-09 -4.84682e-09 -0.000109905)
(2.27244e-10 1.20868e-09 -0.000110121)
(1.83023e-08 3.98225e-09 -0.000103467)
(-7.32129e-09 4.56521e-11 -0.000103431)
(1.35417e-08 -2.44729e-09 -0.000103401)
(-1.62583e-08 3.00026e-09 -0.000103431)
(-1.20783e-08 -1.7735e-09 -0.000103434)
(2.14442e-08 4.7182e-09 -0.000103467)
(2.03782e-09 6.11069e-09 -0.000110145)
(3.59986e-09 2.75601e-09 -0.000109931)
(-1.30178e-08 -5.78691e-09 -0.000109889)
(2.4231e-08 1.15084e-08 -0.000109984)
(-2.51589e-09 -6.88751e-09 -0.000109935)
(2.14469e-09 5.24844e-09 -0.000110139)
(-1.43226e-10 -2.91485e-10 -0.000103719)
(3.05407e-09 7.47372e-09 -0.000103525)
(1.99287e-09 -4.54449e-09 -0.000103463)
(-1.23546e-09 2.04261e-09 -0.000103657)
(1.99127e-09 4.51378e-09 -0.000103533)
(-7.64265e-10 -6.54105e-10 -0.000103722)
(2.04418e-09 4.9929e-09 -0.000103691)
(1.14093e-09 2.1422e-09 -0.000103498)
(5.13361e-10 -4.85428e-10 -0.000103646)
(-2.63661e-09 7.37937e-09 -0.000103453)
(-2.79565e-09 -6.75206e-09 -0.000103502)
(2.99349e-09 5.96125e-09 -0.00010369)
(-2.56766e-09 5.64222e-09 -0.000103464)
(3.34654e-10 3.86111e-11 -0.000103654)
(-1.06608e-08 -4.57569e-09 -0.000109973)
(1.93799e-08 9.1202e-09 -0.000109892)
(4.67626e-10 3.47268e-09 -0.000109986)
(-1.89449e-09 -5.10401e-09 -0.00011019)
(1.81908e-08 8.2469e-09 -0.000109893)
(-1.80707e-08 -8.27439e-09 -0.000109985)
(-1.1472e-08 -1.55226e-09 -0.000103451)
(2.02806e-08 5.35384e-09 -0.00010342)
(1.57071e-08 -3.07378e-09 -0.000103406)
(-1.43683e-08 2.80521e-09 -0.000103376)
(1.84395e-08 4.17128e-09 -0.00010342)
(-1.09265e-08 -8.64278e-10 -0.000103454)
(-1.47821e-08 2.60998e-09 -0.000103377)
(1.68883e-08 -3.0642e-09 -0.000103409)
(-1.75465e-09 1.1687e-09 -0.000110085)
(-2.8656e-09 7.56856e-09 -0.000109873)
(1.8201e-08 -8.59494e-09 -0.000109897)
(-1.58627e-08 7.58374e-09 -0.000109811)
(-2.3969e-09 6.32278e-09 -0.000109884)
(-1.68192e-09 9.32643e-10 -0.000110095)
(-1.64521e-08 7.29409e-09 -0.000109812)
(1.89198e-08 -8.60658e-09 -0.0001099)
(-1.87456e-08 8.99726e-09 -0.000109953)
(1.23313e-08 -4.94293e-09 -0.000109877)
(6.47595e-10 1.16171e-09 -0.000110126)
(1.06493e-09 -3.39431e-09 -0.000109921)
(9.49441e-09 -3.80404e-09 -0.000109896)
(-2.26794e-08 1.11233e-08 -0.00010997)
(1.10019e-11 -1.52668e-09 -0.000109942)
(8.3493e-12 2.76756e-09 -0.000110145)
(1.85334e-08 4.16529e-09 -0.000103467)
(-1.2773e-08 -1.84586e-09 -0.000103444)
(8.76104e-09 -2.46365e-10 -0.000103435)
(-2.10013e-08 5.39736e-09 -0.000103453)
(-1.42682e-08 -2.86543e-09 -0.000103462)
(1.77435e-08 3.57155e-09 -0.00010348)
(-1.61829e-09 -8.4984e-10 -0.000110154)
(-3.5312e-09 -7.82461e-09 -0.000109948)
(-1.48654e-08 -6.93674e-09 -0.000109915)
(2.32228e-08 1.11679e-08 -0.000109991)
(-3.59719e-09 -9.17712e-09 -0.000109961)
(-1.06593e-09 3.07827e-10 -0.000110166)
(-1.33196e-09 -3.45777e-09 -0.000103731)
(1.417e-09 2.6206e-09 -0.000103543)
(1.11482e-09 -1.91814e-09 -0.000103497)
(-1.23066e-09 3.34577e-09 -0.000103679)
(1.73748e-09 3.57166e-09 -0.000103566)
(-2.11145e-09 -5.14299e-09 -0.000103744)
(-2.89723e-10 -1.04411e-09 -0.0001037)
(-3.64053e-09 -8.63086e-09 -0.000103515)
(6.88073e-10 -2.01132e-09 -0.000103664)
(-1.76025e-09 3.09533e-09 -0.000103476)
(-3.25618e-09 -8.42273e-09 -0.000103529)
(-4.36258e-10 -1.34954e-09 -0.000103714)
(-1.55305e-09 4.24991e-09 -0.000103494)
(1.75882e-09 -4.19062e-09 -0.000103678)
(-1.44712e-08 -6.76059e-09 -0.000109982)
(1.07626e-08 3.86458e-09 -0.000109911)
(-1.61809e-10 1.82807e-09 -0.000110018)
(-4.16411e-09 -9.99485e-09 -0.000110214)
(7.70025e-09 2.59046e-09 -0.000109929)
(-2.80247e-08 -1.41619e-08 -0.000110008)
(-1.39185e-08 -2.59599e-09 -0.000103455)
(1.3065e-08 1.73022e-09 -0.000103432)
(1.59704e-08 -3.3989e-09 -0.000103408)
(-1.69625e-08 3.33961e-09 -0.000103376)
(8.835e-09 3.96136e-10 -0.000103449)
(-1.96355e-08 -4.89208e-09 -0.000103469)
(-1.85203e-08 4.68492e-09 -0.000103382)
(1.36127e-08 -2.26619e-09 -0.000103409)
(-9.27387e-10 -1.03642e-09 -0.000110106)
(-1.09392e-09 3.51676e-09 -0.000109897)
(1.7653e-08 -8.54096e-09 -0.000109899)
(-1.87425e-08 8.48652e-09 -0.000109813)
(-8.52492e-10 4.23824e-09 -0.000109915)
(3.82376e-10 -3.27557e-09 -0.00011012)
(-1.98275e-08 9.65266e-09 -0.000109822)
(1.57891e-08 -7.10186e-09 -0.000109902)
(-2.42757e-08 1.19889e-08 -0.000109988)
(1.08406e-08 -4.23113e-09 -0.000109914)
(-1.22637e-09 4.78038e-09 -0.000110164)
(-1.2381e-09 6.24738e-10 -0.000109955)
(1.4338e-08 -6.43171e-09 -0.000109929)
(-2.22955e-08 1.06888e-08 -0.000110005)
(-1.33406e-09 4.2655e-10 -0.000109962)
(-2.28398e-09 6.65663e-09 -0.000110176)
(1.60928e-08 2.91722e-09 -0.000103497)
(-1.09428e-08 -1.06694e-09 -0.000103478)
(1.57263e-08 -2.96905e-09 -0.000103469)
(-1.79284e-08 4.1182e-09 -0.000103489)
(-1.71464e-08 -3.65751e-09 -0.000103495)
(1.71774e-08 3.72095e-09 -0.000103518)
(-9.20844e-10 3.18704e-10 -0.000110183)
(1.5205e-09 -2.82847e-11 -0.000109981)
(-1.77811e-08 -8.13216e-09 -0.000109944)
(2.19119e-08 1.06694e-08 -0.00011003)
(-1.24526e-09 -4.40783e-09 -0.000109994)
(1.08386e-09 4.21395e-09 -0.000110192)
(-1.19852e-09 -2.87449e-09 -0.000103766)
(2.48371e-09 4.88212e-09 -0.000103584)
(1.91571e-10 -3.6508e-11 -0.00010352)
(-2.97145e-09 7.20936e-09 -0.00010371)
(1.72216e-09 4.36875e-09 -0.000103599)
(-1.15985e-09 -3.00894e-09 -0.000103784)
(-4.01232e-10 -2.07635e-09 -0.00010373)
(-9.45376e-10 -1.71006e-09 -0.000103548)
(1.31967e-09 -1.90995e-09 -0.000103696)
(-2.69256e-09 6.3362e-09 -0.000103513)
(-1.56906e-09 -3.78592e-09 -0.000103561)
(1.68424e-09 3.95026e-09 -0.000103743)
(-2.7123e-09 6.83711e-09 -0.000103531)
(3.93155e-10 -8.53873e-10 -0.000103716)
(-2.39378e-08 -1.16984e-08 -0.000110022)
(7.51055e-09 2.49742e-09 -0.000109956)
(8.4371e-10 3.8594e-09 -0.00011005)
(-2.6611e-09 -7.25901e-09 -0.00011025)
(1.20368e-08 4.85871e-09 -0.000109967)
(-2.8841e-08 -1.44045e-08 -0.000110052)
(-2.28366e-08 -5.75704e-09 -0.000103487)
(9.69424e-09 5.0495e-10 -0.000103473)
(1.26939e-08 -1.29182e-09 -0.000103418)
(-1.92622e-08 4.56617e-09 -0.0001034)
(1.21436e-08 1.56028e-09 -0.000103487)
(-2.10996e-08 -5.27979e-09 -0.00010351)
(-1.85806e-08 3.89e-09 -0.000103419)
(1.16526e-08 -1.65485e-09 -0.000103437)
(-7.57336e-11 -1.77186e-09 -0.000110138)
(-2.23553e-09 6.13901e-09 -0.000109935)
(1.45227e-08 -6.17614e-09 -0.000109913)
(-2.078e-08 9.72123e-09 -0.000109841)
(-3.22932e-09 7.605e-09 -0.000109953)
(-1.15967e-09 -1.82468e-10 -0.000110158)
(-1.96502e-08 8.99654e-09 -0.000109861)
(1.41901e-08 -6.37399e-09 -0.000109935)
(-1.85069e-08 8.94855e-09 -0.000110021)
(1.73151e-08 -7.58144e-09 -0.000109942)
(-1.91891e-09 5.72123e-09 -0.000110182)
(-4.15611e-10 -9.34818e-10 -0.000109965)
(1.77433e-08 -8.56698e-09 -0.000109943)
(-1.63668e-08 7.35158e-09 -0.00011003)
(-7.5754e-10 -1.12493e-09 -0.000109964)
(-1.19028e-09 4.56551e-09 -0.000110184)
(1.37548e-08 2.33795e-09 -0.000103529)
(-1.61728e-08 -3.11052e-09 -0.000103503)
(1.77712e-08 -3.98118e-09 -0.000103482)
(-1.28338e-08 2.09401e-09 -0.000103514)
(-1.52897e-08 -2.70131e-09 -0.000103506)
(1.50148e-08 2.89248e-09 -0.000103536)
(-1.89441e-12 2.07871e-09 -0.000110213)
(-1.56678e-09 -4.57551e-09 -0.00011001)
(-1.93607e-08 -8.98592e-09 -0.000109956)
(1.83432e-08 8.68919e-09 -0.000110042)
(-2.57795e-09 -5.8138e-09 -0.000110022)
(4.88706e-10 3.55338e-09 -0.000110229)
(-1.1595e-09 -2.43547e-09 -0.000103798)
(2.63839e-09 5.84556e-09 -0.000103603)
(8.72041e-10 -1.62351e-09 -0.000103522)
(-2.15923e-09 4.69251e-09 -0.000103719)
(3.32057e-09 8.01308e-09 -0.000103606)
(-7.56117e-10 -1.21305e-09 -0.000103799)
(1.31949e-09 2.83412e-09 -0.000103759)
(-2.01449e-09 -3.84114e-09 -0.000103576)
(-4.68039e-11 2.18545e-10 -0.000103733)
(-2.94367e-09 6.94372e-09 -0.000103544)
(-1.93909e-09 -3.86546e-09 -0.000103587)
(1.33508e-09 3.23234e-09 -0.000103774)
(-3.0074e-09 6.60494e-09 -0.000103554)
(4.18458e-10 -4.37234e-10 -0.000103744)
(-1.85456e-08 -8.94487e-09 -0.000110056)
(1.46919e-08 6.28318e-09 -0.000109978)
(2.52227e-09 7.18031e-09 -0.000110056)
(-1.71504e-09 -5.24366e-09 -0.000110266)
(1.71321e-08 7.40436e-09 -0.000109974)
(-2.1995e-08 -1.06433e-08 -0.00011007)
(-1.83227e-08 -4.17204e-09 -0.000103522)
(1.56505e-08 3.16352e-09 -0.000103497)
(1.33535e-08 -2.13561e-09 -0.000103455)
(-1.77927e-08 3.64295e-09 -0.000103434)
(1.56791e-08 2.72483e-09 -0.000103495)
(-1.54455e-08 -2.85217e-09 -0.00010353)
(-1.73216e-08 3.31485e-09 -0.000103443)
(1.33651e-08 -2.2695e-09 -0.000103468)
(-2.07881e-09 1.71289e-09 -0.000110175)
(-3.32574e-09 8.39317e-09 -0.000109966)
(1.54739e-08 -7.27245e-09 -0.000109954)
(-1.84348e-08 8.45599e-09 -0.000109876)
(-3.00475e-09 6.94579e-09 -0.000109976)
(-2.11273e-09 1.62576e-09 -0.000110187)
(-1.67035e-08 7.34828e-09 -0.000109884)