/*--------------------------------*- C++ -*----------------------------------*\
| =========                 |                                                 |
| \\      /  F ield         | OpenFOAM: The Open Source CFD Toolbox           |
|  \\    /   O peration     | Version:  2206                                  |
|   \\  /    A nd           | Website:  www.openfoam.com                      |
|    \\/     M anipulation  |                                                 |
\*---------------------------------------------------------------------------*/
FoamFile
{
    version     2.0;
    format      ascii;
    arch        "LSB;label=32;scalar=64";
    class       volScalarField;
    location    "110";
    object      omega;
}
// * * * * * * * * * * * * * * * * * * * * * * * * * * * * * * * * * * * * * //

dimensions      [0 0 -1 0 0 0 0];

internalField   nonuniform List<scalar> 
66616
(
21.6763
22.4272
22.4146
22.5736
20.7251
22.4993
22.3449
22.7413
20.0437
24.0021
23.7217
25.8216
19.4643
25.156
24.7927
28.7342
18.8494
25.0926
24.2625
28.095
18.3286
24.9089
24.4973
28.2011
17.9862
24.9917
24.6583
28.3425
17.937
25.4366
24.7467
28.9073
17.8972
25.9326
25.1416
29.0845
18.0074
26.1719
25.7225
29.2954
18.0383
26.7831
26.1529
29.907
18.1504
27.0087
26.3852
29.8545
22.8268
22.1454
22.1431
22.8139
22.1493
22.1313
21.8673
21.8612
21.8631
21.8645
22.1529
22.1265
22.8295
22.1408
22.1295
22.8
22.4725
22.5791
22.4157
22.4091
22.3059
22.1818
22.6069
22.5856
22.4105
22.4067
22.2432
22.2524
22.414
22.2887
22.253
22.6103
22.5881
22.4015
22.2194
22.1837
22.6043
22.7254
25.5618
22.3013
22.4563
23.2951
23.2358
22.7192
25.2828
22.4347
22.4143
23.5769
23.603
22.4465
23.5799
23.6696
22.7019
25.3827
22.4642
23.1772
23.2802
25.4408
25.9694
28.3991
23.638
23.6171
24.7516
24.6508
25.586
28.2369
24.0803
23.9874
25.2315
25.142
24.4757
24.7729
25.2896
25.6591
28.3694
23.5306
24.2143
24.6833
28.0188
28.0295
28.2212
24.4468
24.3981
24.7675
24.7579
27.636
28.3705
24.5554
24.8524
24.978
25.2152
25.1315
24.9334
25.1903
28.073
28.2002
24.5345
24.7019
24.6271
27.8988
27.0719
27.8557
24.3065
24.3931
24.4871
24.5323
27.443
27.8522
24.3399
24.7404
24.781
24.9723
24.6585
24.7007
24.9353
26.974
27.9085
24.2006
24.2003
24.4345
28.0682
27.295
27.8093
23.981
24.0225
24.4818
24.4896
26.6929
27.9227
24.1946
24.3725
24.8625
24.943
24.5547
24.3545
25.0157
27.2718
27.7863
23.5293
23.9867
24.6729
28.0032
26.9694
28.173
24.0553
23.6915
24.652
25.0505
27.1059
28.4298
24.3701
24.3608
25.1165
25.259
24.4853
24.606
25.2668
26.5177
28.0831
24.414
24.4678
24.7619
28.0037
27.4341
28.4652
24.105
24.6797
24.9842
25.3241
27.5394
28.8604
24.6091
24.7197
25.4796
25.6613
24.79
24.9931
25.6524
26.8794
28.4297
23.8518
24.8273
25.2567
28.0525
27.5107
28.8987
23.9476
24.2183
25.7117
25.8622
28.3983
28.8761
24.3621
25.1314
26.2501
26.0385
25.2314
25.0888
26.2726
27.7122
28.596
24.8482
24.7956
25.5746
28.9057
27.8854
29.1757
25.3604
25.3775
26.0336
26.0243
27.512
28.9776
25.9663
25.0295
26.4828
26.6126
25.7174
25.6962
26.5543
27.7807
29.0237
24.9229
25.1571
25.8885
29.6239
28.2381
29.428
24.6292
25.258
26.5538
26.445
28.2793
29.3944
25.3966
26.0767
27.1811
26.9547
26.121
25.7664
26.9524
27.4907
29.2467
25.3504
25.217
26.3611
29.4774
27.857
26.1856
25.4816
27.791
26.5641
26.0681
26.0304
27.7463
25.8839
22.1597
22.2384
22.1851
22.1845
23.0469
22.3195
40.9845
22.218
23.0464
22.3206
22.2186
41.3712
22.4867
81.9043
82.7423
93.1159
670.534
78.7683
437.321
516.839
548.125
93.7219
670.205
78.8741
437.245
21.6742
21.6727
21.6714
20.9555
20.9415
20.9435
20.9476
30.4931
118.83
21.8481
22.3028
27.8566
116.473
21.5927
516.835
548.027
30.3407
21.8537
118.66
22.2942
27.8532
21.5816
116.481
204.827
205.159
22.4619
205.46
205.552
129.549
336.637
119.265
319.619
436.362
424.791
136.004
338.899
123.061
321.717
20.7171
20.7144
20.7149
20.1702
20.1615
20.1652
20.1686
47.9472
132.569
20.9991
22.7029
40.2484
137.848
21.0385
437.999
426.533
44.9858
20.9277
130.142
22.5023
38.2344
20.8898
134.401
207.259
205.63
23.8974
203.874
201.713
140.425
308.305
139.889
306.249
418.954
416.049
142.258
310.802
144.751
308.62
20.0202
20.0237
20.029
19.613
19.5999
19.6019
19.6037
59.7042
137.115
21.168
24.785
58.1004
133.897
21.0407
420.749
417.634
55.9134
20.8528
135.158
24.0805
54.3141
20.7166
133.218
201.58
199.607
27.7265
199.937
198.258
139.735
304.949
141.352
304.096
414.508
413.434
144.879
307.165
144.773
306.185
19.4472
19.453
19.4447
18.9908
18.9924
19.0044
18.9968
58.6277
133.547
20.7181
24.766
59.2572
132.738
20.7941
416.577
415.313
55.5894
20.446
131.583
24.4715
56.0167
20.1664
129.831
199.089
197.346
28.4363
198.983
196.681
140.396
303.44
140.933
302.698
411.336
410.68
145.472
305.521
145.933
304.713
18.8381
18.842
18.838
18.4469
18.4347
18.4523
18.4694
57.4297
132.741
20.5417
24.4598
57.6457
132.99
20.3557
413.344
412.101
54.9108
20.1285
130.682
24.5155
54.8302
20.0193
130.38
198.791
196.563
27.936
198.615
196.594
142.105
302.127
141.701
301.553
409.38
408.399
146.203
304.407
146.032
303.64
18.3065
18.331
18.3348
18.0487
18.0086
18.0336
18.04
58.0259
133.858
20.3799
24.4353
58.3521
133.645
20.1386
410.912
409.931
55.3565
19.7926
131.214
23.537
54.9359
19.9349
130.995
199.497
197.446
28.0719
198.901
196.782
142.362
301.196
142.859
300.617
407.79
406.587
146.773
303.297
147.656
302.781
18.0706
18.0935
17.9444
17.9546
17.9043
17.9285
17.9617
59.0972
134.85
20.3369
24.0419
58.9019
135.093
20.2189
408.863
407.956
56.4506
20.0209
131.819
23.9374
56.3748
19.9471
131.831
199.357
197.608
28.3783
199.05
197.331
143.284
300.452
143.764
299.867
406.068
405.184
148.201
302.545
148.218
301.915
17.9581
17.7767
17.8522
17.8112
17.9509
17.942
17.9289
60.3199
135.904
20.3909
24.3091
60.1631
135.848
20.1903
407.242
406.447
56.5493
20.0456
133.623
24.1248
56.8033
19.9908
132.874
199.713
197.633
28.8051
199.272
197.306
144.099
299.549
144.257
299.072
404.548
403.676
147.621
301.795
149.092
301.252
17.8403
17.8626
17.862
17.8588
17.9583
17.897
17.972
60.698
136.93
20.6096
25.5358
61.7628
136.402
20.2105
405.704
405.076
57.3626
20.1849
133.938
24.0212
57.3598
19.8621
133.76
199.141
197.642
29.0749
198.063
197.359
143.999
298.961
144.995
298.442
403.57
402.675
148.9
301.035
150.053
300.689
17.9163
17.9383
17.8484
18.0039
17.9987
18.015
18.039
60.7776
136.874
20.8857
24.9811
61.4059
136.804
20.4895
404.87
403.996
58.5176
20.4621
134.479
24.4784
58.7179
20.1161
133.815
199.312
197.949
29.4387
199.011
197.002
143.549
298.278
144.63
297.832
402.247
401.931
148.159
300.286
149.574
299.938
17.9545
17.9584
18.0242
18.1176
18.0811
18.1107
18.1172
61.5956
137.372
21.1592
26.3093
62.4489
136.175
21.0421
403.466
403.076
58.6656
20.7066
134.07
25.7361
59.6807
20.6021
133.813
199.054
196.848
29.6485
198.912
196.982
145.926
297.773
144.13
299.02
401.436
402.712
299.838
148.591
18.0656
18.0007
18.0192
62.2168
137.048
21.2901
25.6952
62.4704
136.755
20.7923
402.669
61.6082
20.7161
134.361
59.7859
20.868
198.971
196.308
29.8304
198.363
197.722
22.5261
80.3905
80.2705
1084.2
322.833
1084.42
323.279
22.5981
261.475
261.693
92.5188
92.5
23.1269
22.3186
41.2638
22.2187
23.0902
22.3206
41.2753
22.2192
29.7698
1668.02
203.466
85.3244
29.8259
1669.45
209.848
85.6151
24.0724
22.2841
199.599
22.0714
45.2041
22.1559
27.6676
23.9181
22.2823
200.112
22.0645
46.8212
22.1584
28.2866
22.5267
80.8139
80.5917
1083.84
323.432
22.594
261.388
261.623
92.4673
93.1472
1084.54
323.439
23.091
22.3198
41.0573
22.2183
23.0897
22.3198
22.2198
42.423
29.7388
1668.15
209.429
85.5597
23.9162
22.283
199.906
22.0804
47.3723
22.155
28.2683
29.6786
1668.92
204.713
85.5636
23.9157
22.2809
22.0823
199.604
22.1563
46.3743
28.2915
22.1609
22.2376
22.1874
22.1863
22.1622
22.2373
22.1853
22.1858
22.1616
22.2377
22.1865
22.1885
22.0497
22.1406
21.8053
21.8038
22.0979
22.0973
21.7371
22.051
22.1411
21.8007
21.8007
22.0966
22.096
21.7363
22.0501
22.1416
21.8013
21.8046
22.0965
22.0967
21.7352
22.0503
22.1423
21.8015
21.804
22.0964
22.0975
21.7377
23.0887
22.319
22.2193
42.3123
24.0793
22.2843
200.052
22.0744
47.0499
22.1568
27.9858
29.6397
1667.98
208.286
85.4086
23.9163
22.2856
22.0779
199.449
22.1565
46.3227
28.3077
29.8368
1667.73
204.03
85.6138
22.5267
82.7636
80.627
1084.93
323.588
22.5951
261.331
261.536
93.898
92.9501
1084.37
323.94
23.0689
22.3203
22.2203
42.2144
24.1453
22.2844
22.0658
199.738
22.1597
44.8974
27.9909
23.9171
22.285
22.0689
199.276
22.1592
47.2874
28.2744
29.6759
1669.4
203.662
85.4511
29.7835
1669.42
205.028
85.5731
22.7674
261.464
261.953
93.321
93.9793
1084.84
323.216
1084.4
323.153
518.008
549.126
517.935
549.155
204.451
204.47
22.4801
205.819
205.97
444.326
520.359
445.663
520.556
22.2832
206.057
208.294
207.417
207.848
93.1637
667.571
77.1622
437.416
30.4437
117.59
21.8354
22.3115
27.6593
116.772
21.6068
30.4113
118.188
21.8446
22.302
27.6867
117.001
21.5992
100.828
346.326
410.573
116.581
100.279
346.417
410.604
116.801
31.8452
22.315
127.057
21.1401
120.64
21.3805
37.3287
31.8361
22.3077
127.206
21.1337
120.984
21.386
37.3337
204.445
204.43
22.4967
205.517
205.658
517.238
549.446
444.436
522.168
22.3709
206.409
208.036
207.921
207.665
445.607
520.7
30.5001
117.699
21.8263
22.3082
27.647
116.797
21.6157
93.6682
671.122
77.1413
437.182
30.5115
21.8263
117.94
22.2976
27.6763
21.6204
116.82
99.9832
348.468
410.654
120.034
31.7587
22.1291
130.497
21.1788
120.825
21.3703
38.7758
99.911
348.411
410.648
119.7
31.8399
22.1311
21.1855
130.065
21.3701
120.811
38.7644
93.5945
671.635
77.3016
437.123
30.5072
21.8312
117.619
22.3097
27.661
21.6153
116.691
93.5876
672.253
77.2805
437.129
31.7645
22.1523
130.407
21.1865
120.759
21.3785
38.7842
99.8356
348.608
410.599
119.622
31.8029
22.1347
21.1835
130.545
21.3717
120.72
38.7439
99.8459
348.433
410.554
119.644
204.383
204.411
22.4905
205.511
205.594
517.204
549.539
445.584
522.233
22.2854
208.398
206.082
208.185
207.438
444.427
520.623
30.4817
21.8386
118.095
22.3006
27.6778
21.605
116.752
93.0319
670.786
77.259
437.199
93.2252
670.034
77.3552
437.152
31.8711
22.3009
21.1199
127.444
21.4036
120.791
37.421
31.8359
22.3059
21.1355
127.177
21.3858
120.7
37.3603
100.498
346.5
410.542
116.752
100.249
346.374
410.526
116.916
517.769
548.97
517.748
549.178
22.3866
207.914
206.224
207.465
207.49
445.595
520.365
444.58
520.418
437.09
424.828
438.799
426.477
205.491
207.497
23.8737
202.067
203.688
419.59
423.393
421.684
424.921
24.0777
198.473
200.722
201.055
203.376
130.289
337.325
118.823
319.513
44.922
130.256
20.9253
22.5405
38.2394
135.272
20.8106
45.0278
130.084
20.9316
22.5629
38.1959
135.293
20.8065
134.086
309.183
316.442
138.627
133.243
309.188
316.724
139.631
46.3037
22.8642
134.366
20.6954
134.38
20.742
52.885
46.3374
22.8253
134.673
20.7042
135.218
20.7437
51.8121
205.772
207.263
23.8326
201.629
204.288
438.694
426.323
419.466
423.527
24.038
198.846
201.001
201.285
203.258
421.113
425.319
48.043
132.412
21.0267
22.7666
40.1724
139.112
20.9346
135.577
339.726
123.061
321.828
47.8844
21.0302
133.681
22.7812
40.206
20.9463
138.012
138.171
311.647
318.674
143.806
49.1057
23.1131
135.672
20.8921
135.855
20.9114
54.7676
136.465
311.488
318.715
143.504
49.4703
23.0791
20.913
137.051
20.9254
136.535
56.2185
135.841
339.601
123.006
321.66
48.0109
21.0265
132.914
22.7634
40.173
20.9522
138.663
135.036
339.637
122.979
321.742
49.469
23.1705
135.339
21.0927
137.566
21.0727
55.4123
137.696
311.227
318.784
144.294
49.3623
23.2102
21.0645
136.699
20.9062
138.726
53.8916
136.776
311.318
318.822
143.425
207.653
205.537
23.873
204.479
201.792
437.161
424.878
421.165
424.693
24.0708
201.393
199.792
203.345
201.611
419.824
423.43
44.9775
20.9269
130.075
22.5727
38.191
20.8041
134.796
129.936
337.457
118.806
319.554
130.368
337.342
118.924
319.634
46.4236
22.9302
20.8376
133.286
20.8547
133.784
52.0869
46.5753
22.8271
20.7012
133.724
20.7394
133.986
53.1912
132.131
309.327
316.504
139.101
135.684
309.006
316.557
139.947
438.647
426.347
437.187
424.956
24.097
201.852
199.763
203.55
201.602
421.421
425.269
419.923
423.431
419.178
416.412
419.953
418.116
197.285
200.652
27.7577
197.579
199.956
414.877
416.866
416.392
418.166
27.6279
196.891
199.108
195.709
197.109
140.585
308.095
138.5
306.273
54.3008
130.295
20.6766
24.0009
53.565
131.235
20.6515
55.852
129.767
20.6845
23.7394
54.5882
129.196
20.6508
135.95
305.004
305.524
140.909
137.001
304.953
305.699
139.694
55.6609
24.4126
129.326
20.5295
129.389
20.62
56.5114
55.2032
24.3194
129.747
20.5135
129.684
20.621
56.0253
195.512
198.212
27.2708
197.436
199.624
420.825
417.595
414.513
416.165
27.1712
197.044
197.253
196.026
197.973
416.046
417.952
59.4803
136.289
20.9654
24.3637
57.6551
134.087
20.8854
145.001
310.21
140.223
308.312
58.3554
20.9645
131.462
24.1348
56.4197
20.902
132.239
144.261
307.146
308.05
141.915
58.23
25.0142
133.677
20.7891
129.639
20.9252
58.9726
141.559
307.48
308.171
143.941
55.6065
24.8436
20.8225
133.069
20.963
133.538
58.72
145.259
310.255
143.479
308.364
59.2393
21.0659
136.17
24.6257
57.0242
20.9521
133.883
144.474
310.328
141.274
308.346
58.3533
24.861
132.699
20.8885
130.016
21.0764
57.3142
143.871
307.194
308.008
145.318
56.0963
24.6336
20.8293
133.467
20.9354
133.613
57.6249
141.035
307.223
308.166
145.04
199.161
198.984
27.6087
198.749
197.712
419.114
417.306
416.447
417.912
27.6347
199.054
197.634
198.837
197.345
415.449
416.415
55.7922
20.667
131.676
23.9202
53.6605
20.6301
131.233
140.366
308.162
138.145
306.075
139.819
307.803
138.998
306.066
52.3375
24.2011
20.556
131.224
20.7268
129.742
55.3779
54.9011
24.0347
20.4943
129.426
20.5896
128.859
55.7382
135.531
304.979
305.693
140.984
136.94
304.734
305.688
139.382
419.796
418.439
418.292
416.305
27.6101
198.475
195.667
196.277
195.592
415.744
417.679
414.642
416.563
415.211
413.148
416.477
414.558
193.307
198.025
28.3094
195.064
198.577
411.996
413.576
413.345
414.822
27.7988
196.973
198.504
196.106
197.234
139.974
304.267
135.364
303.867
56.4143
125.3
20.3723
24.4519
53.2782
130.646
20.2694
56.2908
125.384
20.3657
24.2208
54.8365
129.348
20.2536
135.434
303.179
303.279
139.888
136.454
303.108
303.422
139.892
52.6225
24.2285
129.921
20.0713
124.188
20.1861
55.177
52.5799
24.456
129.095
20.0594
125.924
20.1825
54.5151
195.444
198.375
28.3808
196.901
198.861
416.507
414.699
412.02
413.385
27.6961
195.381
198.923
193.383
197.323
413.255
415.082
58.4566
130.968
20.6038
24.0644
57.4734
132.137
20.4856
144.571
306.921
138.386
306.295
58.6729
20.6415
126.785
25.0165
56.239
20.5192
132.841
142.094
305.3
305.588
142.148
56.6276
24.834
132.504
20.5029
130.677
20.3893
57.5357
141.388
305.509
305.781
143.656
54.2211
25.0884
20.2482
129.745
20.4415
131.415
58.4162
144.511
306.777
142.482
305.848
59.0545
20.6755
131.648
25.1328
58.6336
20.5414
133.616
144.582
307.153
140.836
306.476
53.9289
24.8661
131.477
20.4428
126.378
20.7302
57.0805
141.203
305.228
305.958
144.471
54.1833
25.1164
20.3187
131.926
20.5241
128.587
58.6074
139.258
305.265
305.855
144.51
196.63
196.47
28.4277
198.956
196.545
414.823
413.62
414.072
415.187
27.1296
198.636
196.072
194.854
193.309
411.457
413.432
54.9166
20.3417
124.046
24.1554
53.9418
20.2182
128.812
139.808
304.617
137.013
303.823
139.747
304.492
134.384
304.02
51.6502
24.2006
20.0418
130.05
20.2274
124.037
54.2915
51.4174
24.4124
20.0432
129.795
20.1574
128.777
55.3305
135.755
303.362
303.221
139.228
135.835
303.136
303.451
139.444
416.203
415.357
414.804
413.137
27.0626
198.453
194.498
195.531
193.729
412.973
414.813
411.455
413.326
412.144
410.758
413.606
411.941
195.74
197.149
28.1382
196.765
198.05
409.307
411.083
411.012
412.071
26.7213
195.88
197.968
195.331
196.4
140.314
302.245
135.757
302.393
55.3804
127.352
19.943
24.367
54.3016
129.828
19.7808
55.5865
125.863
19.9384
24.4305
54.8281
128.576
19.7836
135.477
302.034
301.937
140.06
137.285
301.959
301.893
140.973
53.4811
24.3172
129.734
20.0211
126.527
20.0194
55.889
54.2761
24.4172
130.132
20.0193
123.611
20.0176
55.8646
192.9
196.94
28.0481
195.63
198.098
413.64
411.79
409.369
410.807
27.0167
196.18
197.806
191.728
195.39
410.663
412.08
57.9696
130.689
20.3979
24.569
53.6012
132.064
20.4183
145.528
305.062
141.166
304.728
58.0284
20.4359
131.675
24.8017
53.8785
20.439
133.658
141.882
304.275
304.475
144.668
53.5384
24.5747
133.223
20.2595
125.898
20.2416
58.6172
142.272
304.16
304.104
145.622
53.6658
24.8322
20.4462
133.594
20.4435
126.632
56.1179
144.007
305.206
140.181
304.684
58.2338
20.4951
126.466
24.3657
57.1242
20.5007
132.218
144.253
304.776
140.141
304.515
55.3617
24.6202
133
20.3595
128.158
20.3331
57.7649
139.557
304.188
304.649
144.818
54.0358
24.3912
20.527
132.596
20.3587
128.199
58.9534
137.192
303.875
304.36
145.984
197.538
193.561
28.0474
198.655
196.141
411.785
410.454
410.856
412.285
26.7423
198.213
196.251
196.168
194.652
409.279
410.692
55.3925
19.8876
123.419
24.273
51.703
19.8418
130.092
139.803
303.271
135.938
302.763
139.688
302.788
135.445
302.574
53.3641
24.0983
19.9617
127.081
19.9307
128.38
54.2838
51.2036
24.3091
19.9319
129.536
19.7834
127.725
55.436
134.251
302.019
302.146
141.792
135.497
301.958
301.942
140.252
413.322
411.906
411.844
410.497
26.7855
199.128
197.16
197.182
193.052
410.716
412.837
409.586
410.998
409.388
408.321
411.255
409.91
194.283
194.168
27.666
195.695
198.521
407.311
408.554
408.996
410.091
27.0101
195.866
198.425
194.276
194.848
141.747
301.331
137.977
301.475
55.7379
126.592
19.6828
23.8078
54.8498
129.453
19.9401
55.4963
126.8
19.6822
23.7642
54.0987
129.909
19.9335
139.244
301.042
301.136
141.235
136.072
301.105
300.565
142.022
54.3812
24.1056
130.541
19.9967
123.193
19.8048
56.0746
52.7372
24.0862
130.649
19.9814
126.741
19.7982
55.3854
194.499
195.135
27.924
196.184
198.034
410.991
409.814
407.707
408.514
27.0639
196.504
197.872
194.303
194.902
408.477
410.124
58.6417
130.956
20.2281
24.4837
57.2077
133.607
20.2898
145.81
303.589
137.781
303.686
58.6641
20.1402
126.974
24.5989
57.8641
19.9601
134.092
141.272
303.171
303.167
146.833
55.4638
24.6307
132.959
20.3689
129.173
20.2985
59.0737
139.57
303.196
303.266
146.851
55.6601
24.6541
20.3496
133.689
20.3028
126.626
59.0914
145.097
303.828
139.57
303.568
58.172
20.1751
128.578
24.7474
57.1104
20.4446
133.046
146.147
303.722
139.293
303.496
55.7825
24.3052
133.835
20.3316
128.617
20.0917
58.0237
140.596
303.133
303.064
146.302
56.6063
24.8172
20.4067
133.107
20.2941
128.797
58.574
138.707
302.846
303.332
146.565
195.773
194.579
27.7556
198.167
195.902
409.552
408.365
408.869
410.259
26.8162
198.138
196.073
196.343
193.698
407.142
408.699
55.5484
19.7223
123.419
24.2983
51.1925
19.9879
130.606
141.269
301.811
138.726
301.503
141.048
301.684
136.423
301.355
53.9718
24.2713
19.8065
130.436
19.8623
124.571
55.6
50.982
23.9727
19.999
131.072
19.9698
123.514
55.9469
133.641
300.902
300.862
142.217
135.202
300.897
300.714
142.623
411.102
409.873
409.861
408.458
26.8536
196.992
196.773
195.89
194.569
408.506
410.736
407.519
408.942
407.46
406.48
409.15
408.118
191.935
194.922
28.031
196.399
198.712
405.554
406.687
407.26
408.454
27.0792
195.871
198.561
194.722
197.238
142.14
300.702
133.897
300.618
55.8822
127.977
19.8924
24.2923
53.2047
130.398
19.7305
55.9194
124.904
19.8812
24.5763
53.374
131.863
19.9215
135.712
300.105
299.748
142.102
135.096
300.34
300.252
143.563
53.1527
24.3471
131.497
19.9855
123.986
20.0011
56.5734
54.6214
24.2107
131.963
19.9803
128.649
19.9154
56.9006
194.785
195.505
28.1074
196.641
198.036
408.814
407.934
405.906
406.721
27.2848
196.599
198.465
194.025
193.99
407.141
408.338
59.6797
128.607
20.1963
24.693
56.6439
133.568
20.1667
145.885
302.566
141.918
302.578
58.9565
20.0113
126.425
23.9563
55.6354
20.2986
134.406
142.132
302.406
302.292
143.583
57.9009
24.8366
134.416
20.4668
130.334
20.173
59.6446
141.095
302.195
302.102
146.782
57.1211
25.0014
20.4543
134.48
20.177
126.826
59.8519
146.005
302.547
141.018
302.502
59.2575
20.0865
128.586
24.8061
54.0127
20.3949
133.76
146.589
302.715
138.974
302.359
55.7262
24.9205
135.05
20.2967
133.375
20.2709
57.0368
142.292
302.147
302.656
146.685
54.1977
24.9837
20.4381
133.855
20.2409
128.507
60.1415
139.131
302.011
302.105
147.457
194.18
194.387
28.0853
198.459
195.937
407.926
406.344
407.062
408.065
26.8522
198.494
196.723
194.029
192.672
405.572
406.717
56.0605
19.6452
128.686
24.006
51.2931
19.9056
131.218
142.441
300.489
135.572
300.444
141.344
300.87
137.586
300.536
54.8206
23.7266
19.8233
131.062
19.8477
125.035
56.1979
51.8868
24.3534
20.0522
131.152
19.8168
128.127
56.1812
138.572
300.211
299.983
141.76
136.18
300.008
300.162
141.734
409.086
407.912
407.841
406.971
27.8258
197.411
196.387
195.387
194.307
407.055
408.327
405.662
407.257
405.664
404.997
407.388
406.4
192.353
194.484
28.3824
196.503
198.758
404.123
405.127
405.74
406.597
27.4663
196.227
198.635
191.817
194.151
142.276
299.734
140.906
299.822
56.9054
128.791
19.8096
24.5156
53.9696
131.246
19.8108
56.8899
127.087
19.8379
24.9312
55.2032
131.901
19.8038
135.79
299.418
299.208
142.768
135.771
299.489
299.259
143.385
53.7653
24.6769
132.033
20.1315
124.409
19.8637
57.4092
53.9506
24.9871
132.897
20.1462
124.176
20.0252
57.4216
193.16
194.531
28.4603
197.836
198.138
407.439
406.359
404.448
405.39
27.8054
196.783
198.315
195.623
196.131
405.441
406.82
59.9367
131.823
20.4012
25.0019
57.9133
134.829
20.2909
146.941
301.691
141.582
301.657
59.8152
20.3679
127.73
24.5656
56.213
20.2805
134.682
145.801
301.6
301.468
148.105
58.5263
25.1736
134.936
20.6144
132.71
20.2835
60.5244
139.029
301.372
301.151
148.228
57.3892
25.2823
20.5978
134.779
20.2648
131.062
60.4789
146.488
302.073
142.248
301.655
59.8275
20.2883
129.156
25.1702
58.2565
20.4162
134.439
147.286
301.935
139.482
301.661
57.9837
25.3359
132.402
20.4356
133.585
20.2396
58.8169
141.513
301.211
301.226
146.672
55.0848
25.2745
20.5904
134.642
20.4989
130.001
61.0388
139.595
301.159
301.505
147.945
197.188
194.433
28.3128
198.539
196.113
405.98
404.948
405.563
407.2
27.6464
198.182
195.96
196.281
193.223
403.913
405.287
56.3309
19.9412
126.3
24.8013
52.9118
20.0258
131.37
141.838
299.857
136.931
299.638
141.674
299.56
136.215
299.5
54.2537
24.0123
20.0824
132.461
20.0409
128.704
56.439
53.4146
24.3835
20.1513
131.405
20.0793
126.884
56.7688
136.984
299.292
299.214
142.853
136.682
299.127
299.073
142.039
407.57
406.493
406.143
405.012
27.4822
198.846
195.284
195.562
193.565
405.516
406.923
403.957
405.477
404.192
403.655
406.138
405.104
191.753
196.749
28.7111
196.669
198.288
403.01
403.975
404.618
405.413
27.5546
195.992
198.467
194.419
195.901
143.581
299.098
139.911
298.92
58.0603
124.435
20.0964
24.9911
51.9616
132.863
20.0061
58.0794
130.362
20.0338
25.2254
55.5666
132.463
20.0125
140.793
298.712
298.66
140.36
138.584
298.685
298.401
142.646
55.8285
24.7317
132.644
20.3376
130.664
20.169
57.8835
56.1047
24.8971
132.383
20.3553
129.889
20.1731
57.8329
193.191
195.485
28.8283
196.782
198.127
405.961
404.883
403.239
404.011
27.9389
196.589
197.83
194.004
194.823
403.987
405.614
60.5181
131.74
20.5623
25.4863
59.0362
136.441
20.4618
147.694
301.026
145.572
300.954
61.1817
20.5561
129.758
25.5091
59.1855
20.4666
135.1
142.549
300.807
300.813
145.733
56.1916
25.1894
135.807
20.8765
131.8
20.4817
60.8989
144.357
300.638
300.521
147.671
60.0906
25.6311
20.8425
135.348
20.4682
130.764
61.4881
147.271
301.037
143.409
300.878
60.38
20.4118
126.666
25.0324
58.9848
20.5713
136.351
147.836
300.855
140.954
300.871
56.5537
25.2449
135.587
20.497
129.187
20.6355
60.9236
144.013
300.554
300.776
146.997
55.9014
25.9292
20.8054
136.325
20.6593
128.861
60.6751
141.443
300.582
300.856
147.154
194.652
192.259
28.7669
198.297
195.989
404.342
403.604
404.537
405.409
27.6568
198.373
195.921
195.785
192.851
402.9
404.207
57.0523
19.8427
126.379
25.1499
54.0508
20.2117
131.953
142.563
298.789
138.404
298.974
143.049
298.764
134.139
298.791
53.0318
25.1094
20.1319
129.902
20.23
131.378
57.7625
53.9487
25.2157
20.3191
132.796
20.1777
128.958
57.348
138.879
298.839
299.034
142.474
136.178
298.58
298.675
144.078
406.004
404.986
404.516
403.841
28.4465
198.966
195.774
195.058
195.415
404.261
405.685
402.904
404.316
403.924
402.444
405.1
404.008
193.808
196.934
29.0219
196.413
198.242
402.133
402.899
403.398
405.133
27.9677
195.77
198.267
194.216
196.779
142.511
298.205
138.067
298.365
57.8607
130.545
20.2433
25.6619
55.4364
132.273
20.2106
58.0547
130.003
20.2341
25.6121
55.5202
132.443
20.2047
141.309
298.282
297.889
143.472
138.642
298.15
297.98
143.616
52.8506
25.6901
132.995
20.5905
125.802
20.4227
58.536
53.7279
25.6406
133.293
20.6687
125.273
20.593
58.6665
194.465
193.036
29.062
196.568
198.645
404.548
404.053
402.275
403.258
27.8703
196.536
198.03
194.841
197.227
403.305
404.646
61.1129
130.571
20.8057
25.5077
57.9513
136.49
20.6925
147.042
300.274
142.448
300.357
60.8881
20.8007
132.696
26.2185
57.1974
20.7003
135.427
143.128
300.266
300.297
145.495
57.4251
25.4394
136.295
21.1243
132.162
20.7055
61.3744
141.741
299.991
300.198
147.457
57.4004
25.4974
21.1108
135.433
20.6874
132.94
61.1198
147.457
300.619
141.972
300.387
60.5494
20.6477
128.245
25.4731
57.0205
20.8297
136.523
146.803
300.187
141.796
300.147
57.1463
26.143
136.637
20.7201
134.028
20.9618
59.4141
139.214
300.141
300.393
148.161
56.8076
25.7095
21.0682
136.11
20.9107
128.23
61.0752
141.487
299.954
300.243
146.752
196.359
193.753
28.7653
198.212
195.936
403.41
402.598
403.944
404.423
27.9901
197.947
196.167
196.481
191.348
401.952
403.02
57.3836
20.0871
129.265
25.3957
54.3038
20.3646
132.5
143.172
298.514
133.694
298.433
142.683
298.395
140.158
298.233
56.3133
25.5587
20.356
132.763
20.487
126.303
56.6608
54.078
25.4754
20.6194
133.239
20.2797
124.209
57.9217
135.278
298.186
298.072
143.63
137.207
297.898
297.783
142.666
404.793
404.072
403.5
402.583
27.7912
196.615
195.549
197.552
192.556
403.327
404.685
402.036
403.29
402.429
401.674
403.809
403.275
192.678
196.766
29.2666
195.557
198.233
401.352
402.843
402.904
403.717
28.3604
195.606
198.464
192.915
194.749
143.521
297.792
135.732
297.674
58.3224
126.929
20.2072
25.8454
53.7867
133.091
20.6431
57.8434
130.352
20.4578
24.7395
56.8636
132.547
20.3978
139.422
297.622
297.432
141.89
139.646
297.523
297.314
142.871
55.9558
25.4359
128.889
20.8342
126.125
20.4286
58.2349
55.906
26.1281
133.519
20.7912
129.601
20.445
58.378
194.684
194.433
29.2921
196.139
197.971
403.954
403.147
401.247
402.916
28.7632
195.774
197.82
193.942
193.374
402.57
403.686
61.1495
128.844
20.9903
26.6554
57.3339
137.274
21.1257
146.754
299.682
141.455
299.536
61.2113
21.0496
132.954
26.4136
57.86
20.9062
135.61
141.887
299.814
299.579
147.514
58.9373
26.0454
137.028
21.3426
129.516
21.2278
61.9612
141.862
299.414
299.149
147.406
57.6316
26.5317
21.3149
136.165
20.9896
128.193
61.6831
147.53
299.946
141.019
299.651
60.7123
20.6689
128.113
26.5232
56.9965
21.1769
136.628
146.665
300.097
141.951
299.687
58.2297
25.9621
136.17
20.983
130.466
20.9171
61.6952
142.583
299.525
299.44
147.25
57.1586
26.6244
21.309
135.782
21.1547
133.585
61.4404
141.622
299.432
299.705
147.058
196.368
191.548
29.4182
197.989
196.13
403.102
401.563
402.786
404.077
28.5975
197.731
196.002
195.807
191.556
401.07
402.045
57.8471
20.2744
125.442
25.1708
54.1293
20.6925
133.446
142.537
297.79
137.688
297.762
142.483
297.66
136.859
297.569
53.5582
25.3815
20.7332
132.989
20.3896
130.849
59.2185
52.6253
25.8233
20.7731
133.106
20.5919
125.368
58.8701
137.61
297.523
297.589
142.369
137.746
297.397
297.386
142.647
404.332
403.223
402.624
401.926
28.0535
198.617
193.692
195.15
195.396
402.515
403.806
401.045
402.525
401.942
403.259
193.379
193.851
146.281
297.047
139.726
298.404
61.0451
131.939
20.3558
25.5709
53.3441
135.522
21.2955
60.6163
127.33
20.6142
25.8418
55.8998
135.595
20.6363
192.022
193.345
29.7045
197.649
197.992
403.272
402.626
133.889
21.0523
57.9165
299.089
143.202
20.9706
132.862
57.7291
146.627
299.408
140.903
299.34
61.1948
20.8073
133.252
26.4956
57.3151
20.9979
135.533
146.722
299.414
141.2
299.159
60.1018
20.9862
139.805
57.6952
26.4103
20.4437
132.556
141.658
299.41
196.575
194.188
402.308
60.6799
20.6223
130.209
25.7454
57.245
20.9317
134.851
146.069
297.217
139.142
146.434
297.367
139.693
298.37
403.1
402.508
402.327
402.479
28.8682
195.413
196.807
403.101
402.753
26.23
234.089
330.264
26.2629
233.89
330.362
329.021
329.193
26.2629
234.055
329.82
26.239
234.14
26.2131
233.397
26.2639
234.269
330.174
26.2426
234.351
26.2592
234.518
329.835
329.896
22.1766
22.1752
22.1803
22.2134
22.2134
22.1898
22.179
22.1918
22.1819
22.1788
22.1916
22.1806
25.1355
22.5684
22.5574
22.533
22.2645
22.458
24.8142
22.9417
22.6446
22.3506
22.2284
22.3636
22.5687
24.8222
22.5523
22.2628
22.5399
22.4538
22.3526
22.2298
22.3623
25.1867
22.9825
22.6511
9467.16
9467.96
63.2784
22.8406
22.8385
27.029
6227.22
23.2789
32.1834
6228.02
23.2031
32.0903
500.237
89.2027
391.223
146.049
386.405
142.762
482.091
644.815
434.98
501.978
1264.07
318.25
507.8
82.853
346.975
150.63
629.029
356.894
134.543
664.964
288.546
471.829
302.02
645.125
518.683
550.792
500.242
88.9251
146.064
391.262
142.616
386.457
482.163
645.149
434.876
502.027
1263.07
318.034
507.68
82.8267
150.344
347.016
629.292
133.997
356.927
665.263
288.614
471.761
302.005
645.374
518.099
550.607
226.115
479.857
479.329
461.356
460.782
230.403
76.636
40.4091
330.995
198.575
71.7084
43.1219
333.346
76.5021
40.9578
331.475
198.715
72.2932
42.7603
334.213
215.372
379.488
380.152
214.116
447.56
447.314
86.9094
346.036
203.429
48.3362
46.3036
341.989
91.7731
86.4482
347.078
203.664
48.4747
46.1166
342.734
91.8462
356.666
125.912
326.725
164.47
330.365
165.398
352.709
455.083
246.001
329.627
462.99
240.918
361.34
123.538
340.335
162.609
369.706
334.067
163.435
451.648
230.676
324.056
234.941
447.64
431.235
427.761
359.886
131.349
169.644
330.127
168.74
333.668
355.883
457.145
249.329
331.857
464.884
244.233
364.363
128.811
165.934
342.8
372.154
168.992
337.325
454.172
234.148
326.306
238.258
449.969
432.687
429.546
243.584
425.74
425.747
427.488
427.463
243.945
126.657
66.16
326.611
206.224
122.12
70.1067
323.386
126.022
65.0465
326.507
204.912
121.432
68.7929
323.402
242.649
432.419
432.285
241.954
428.755
428.672
129.484
319.552
205.657
75.1908
71.9932
321.89
132.966