/*--------------------------------*- C++ -*----------------------------------*\
| =========                 |                                                 |
| \\      /  F ield         | OpenFOAM: The Open Source CFD Toolbox           |
|  \\    /   O peration     | Version:  2206                                  |
|   \\  /    A nd           | Website:  www.openfoam.com                      |
|    \\/     M anipulation  |                                                 |
\*---------------------------------------------------------------------------*/
FoamFile
{
    version     2.0;
    format      ascii;
    arch        "LSB;label=32;scalar=64";
    class       volScalarField;
    location    "110";
    object      p;
}
// * * * * * * * * * * * * * * * * * * * * * * * * * * * * * * * * * * * * * //

dimensions      [0 2 -2 0 0 0 0];

internalField   nonuniform List<scalar> 
66616
(
-0.000274825
-0.000250082
-0.000250009
-0.000213046
-0.000761707
-0.00077141
-0.000771266
-0.000749328
-0.00108904
-0.00109171
-0.00109175
-0.0010746
-0.00136517
-0.0013662
-0.00136623
-0.00134987
-0.00162589
-0.00162658
-0.00162661
-0.0016108
-0.00187672
-0.00187732
-0.00187735
-0.00186203
-0.00211939
-0.0021199
-0.00211995
-0.00210508
-0.00235489
-0.00235538
-0.00235547
-0.00234097
-0.00258392
-0.00258439
-0.00258442
-0.00257031
-0.00280625
-0.00280677
-0.00280691
-0.00279317
-0.00302058
-0.00302097
-0.00302117
-0.00300806
-0.00322718
-0.00322717
-0.00322782
-0.00321527
-0.000176208
-0.00018724
-0.000187271
-0.000176215
-0.000187271
-0.000187265
-0.000189999
-0.000190017
-0.000190001
-0.000190014
-0.00018729
-0.000187286
-0.000176203
-0.000187269
-0.000187293
-0.000176229
-0.000213078
-0.000695473
-0.000250459
-0.000250491
-0.000665089
-0.000665092
-0.000213093
-0.000695462
-0.000250072
-0.000250522
-0.00066553
-0.000665479
-0.000250526
-0.000665544
-0.00066549
-0.000213079
-0.000695485
-0.000250041
-0.000665208
-0.000665207
-0.000695482
-0.000749327
-0.00103764
-0.000771203
-0.000771203
-0.00101879
-0.0010188
-0.000749323
-0.00103762
-0.000771428
-0.0007714
-0.00101887
-0.00101885
-0.000771395
-0.00101885
-0.00101883
-0.00074934
-0.00103764
-0.000771293
-0.00101886
-0.00101886
-0.00103764
-0.0010746
-0.00131581
-0.00109171
-0.00109172
-0.00129924
-0.00129923
-0.0010746
-0.00131579
-0.00109175
-0.00109174
-0.00129926
-0.00129925
-0.00109172
-0.00129925
-0.00129923
-0.00107461
-0.00131582
-0.00109178
-0.00129929
-0.00129928
-0.00131582
-0.00134987
-0.00157823
-0.00136622
-0.00136621
-0.00156247
-0.00156248
-0.00134986
-0.00157821
-0.00136622
-0.00136621
-0.0015625
-0.00156248
-0.0013662
-0.00156248
-0.00156246
-0.00134987
-0.00157823
-0.00136626
-0.00156251
-0.00156249
-0.00157822
-0.00161082
-0.00183064
-0.00162662
-0.00162662
-0.00181547
-0.00181545
-0.0016108
-0.00183061
-0.00162661
-0.0016266
-0.0018155
-0.00181548
-0.00162658
-0.00181549
-0.00181547
-0.00161081
-0.00183064
-0.00162662
-0.00181549
-0.00181549
-0.00183064
-0.00186204
-0.0020747
-0.00187736
-0.00187732
-0.00206002
-0.00206006
-0.00186201
-0.00207473
-0.00187735
-0.00187733
-0.00206007
-0.00206006
-0.00187731
-0.00206006
-0.00206005
-0.00186203
-0.00207473
-0.00187738
-0.00206005
-0.00206005
-0.00207471
-0.00210507
-0.00231151
-0.00211995
-0.00211997
-0.00229723
-0.00229723
-0.00210509
-0.00231148
-0.00211994
-0.00211993
-0.00229728
-0.0022973
-0.00211992
-0.00229732
-0.00229731
-0.00210508
-0.00231154
-0.00212
-0.00229732
-0.00229727
-0.00231154
-0.00234095
-0.00254164
-0.00235542
-0.00235539
-0.00252783
-0.00252787
-0.00234091
-0.00254173
-0.00235539
-0.00235542
-0.00252791
-0.00252792
-0.0023554
-0.00252793
-0.00252793
-0.00234097
-0.00254172
-0.00235548
-0.00252788
-0.00252787
-0.00254174
-0.00257021
-0.00276554
-0.00258444
-0.00258445
-0.00275213
-0.00275221
-0.0025703
-0.00276556
-0.00258429
-0.00258433
-0.00275223
-0.00275224
-0.0025844
-0.00275226
-0.00275224
-0.00257028
-0.00276553
-0.00258447
-0.00275214
-0.00275216
-0.00276556
-0.00279321
-0.00298142
-0.00280688
-0.00280694
-0.00296859
-0.00296862
-0.00279317
-0.00298146
-0.00280679
-0.00280676
-0.0029688
-0.0029688
-0.00280675
-0.00296881
-0.0029688
-0.00279315
-0.00298148
-0.00280692
-0.00296861
-0.00296861
-0.00298152
-0.00300803
-0.00318924
-0.00302118
-0.00302119
-0.00317683
-0.00317693
-0.00300798
-0.00318938
-0.00302091
-0.00302094
-0.00317724
-0.00317724
-0.00302092
-0.00317729
-0.00317733
-0.00300808
-0.00318931
-0.00302121
-0.00317691
-0.00317696
-0.00318939
-0.00321527
-0.00322777
-0.00322777
-0.00321524
-0.00322715
-0.00322721
-0.00322724
-0.00321534
-0.00322782
-0.000101583
-8.05183e-05
-9.06194e-05
-9.06932e-05
-3.74677e-05
-6.73817e-05
-6.37798e-05
-7.79212e-05
-3.72208e-05
-6.73556e-05
-7.78678e-05
-6.36788e-05
-5.25257e-05
-7.17547e-05
-7.16676e-05
-0.000430456
-7.81248e-05
-0.000134574
-0.000444138
-0.00013647
-0.000439225
-0.000430629
-7.81238e-05
-0.000134546
-0.000444272
-0.000274851
-0.000274839
-0.000274851
-0.000655429
-0.000655429
-0.000655454
-0.000655458
-0.000426884
-0.000130766
-0.000256312
-0.000391067
-0.000175539
-0.000435296
-0.000393633
-0.00013645
-0.000439239
-0.000426849
-0.000256202
-0.000130605
-0.000391225
-0.000175648
-0.000393848
-0.00043526
-0.000176615
-0.000176477
-0.000425701
-0.000433198
-0.000433242
-0.000895453
-0.000777872
-0.000773251
-0.000896873
-0.000777607
-0.000897669
-0.000895931
-0.000777876
-0.00077335
-0.000897012
-0.00076176
-0.000761778
-0.000761779
-0.00101506
-0.00101504
-0.00101507
-0.00101507
-0.00088923
-0.000768843
-0.000767168
-0.000861501
-0.000762319
-0.000891982
-0.000858283
-0.00077761
-0.000897785
-0.000888481
-0.00076661
-0.000768968
-0.00086133
-0.000761983
-0.000857777
-0.000891693
-0.00077095
-0.000771095
-0.000883487
-0.000894318
-0.000894203
-0.00118166
-0.00107882
-0.00107885
-0.00118178
-0.00107945
-0.00118224
-0.00118195
-0.00107853
-0.00107837
-0.00118185
-0.00108908
-0.00108911
-0.00108911
-0.00129804
-0.00129802
-0.00129804
-0.00129803
-0.00117999
-0.00107806
-0.00109071
-0.00116238
-0.00107775
-0.00118025
-0.00116166
-0.00107923
-0.00118229
-0.00117961
-0.00109057
-0.00107842
-0.00116243
-0.00107824
-0.00116157
-0.00118012
-0.00107774
-0.00107799
-0.00117962
-0.00118105
-0.00118099
-0.00144914
-0.00135136
-0.0013513
-0.00144944
-0.00135156
-0.00144957
-0.00144955
-0.00135117
-0.0013509
-0.00144962
-0.00136522
-0.00136523
-0.00136523
-0.00156172
-0.00156171
-0.00156172
-0.00156171
-0.00144805
-0.00135145
-0.00136585
-0.00143241
-0.00135135
-0.00144842
-0.0014321
-0.00135145
-0.00144977
-0.0014476
-0.00136582
-0.00135175
-0.00143243
-0.00135188
-0.00143205
-0.00144816
-0.00135068
-0.00135086
-0.00144844
-0.00144894
-0.00144882
-0.00170606
-0.00161206
-0.00161184
-0.00170647
-0.00161218
-0.00170659
-0.0017065
-0.00161192
-0.0016115
-0.00170666
-0.00162593
-0.00162593
-0.00162593
-0.00181483
-0.00181481
-0.00181483
-0.00181481
-0.00170509
-0.00161227
-0.00162636
-0.0016902
-0.00161205
-0.00170553
-0.00168997
-0.00161207
-0.00170674
-0.00170457
-0.00162633
-0.00161253
-0.00169019
-0.00161251
-0.00168992
-0.00170529
-0.0016115
-0.00161165
-0.00170556
-0.00170608
-0.00170591
-0.00195406
-0.00186321
-0.00186295
-0.00195445
-0.00186331
-0.00195452
-0.00195456
-0.00186311
-0.00186263
-0.00195467
-0.00187675
-0.00187677
-0.00187677
-0.00205946
-0.00205945
-0.00205945
-0.00205946
-0.00195319
-0.00186348
-0.0018771
-0.00193882
-0.0018632
-0.00195372
-0.0019386
-0.00186324
-0.00195474
-0.00195267
-0.00187711
-0.00186375
-0.00193883
-0.00186369
-0.00193858
-0.00195339
-0.00186278
-0.00186291
-0.00195366
-0.0019542
-0.00195404
-0.00219437
-0.00210627
-0.00210596
-0.0021948
-0.0021063
-0.00219484
-0.00219484
-0.00210614
-0.00210567
-0.00219499
-0.00211944
-0.00211946
-0.00211946
-0.0022967
-0.00229669
-0.0022967
-0.00229672
-0.00219355
-0.00210651
-0.00211972
-0.00217958
-0.00210623
-0.00219405
-0.00217938
-0.00210625
-0.00219507
-0.00219301
-0.00211975
-0.00210681
-0.00217957
-0.00210674
-0.00217937
-0.00219379
-0.00210587
-0.00210598
-0.00219397
-0.00219456
-0.00219441
-0.00242789
-0.00234217
-0.00234193
-0.00242825
-0.00234223
-0.00242823
-0.00242832
-0.002342
-0.00234155
-0.00242838
-0.00235495
-0.00235497
-0.00235497
-0.00252731
-0.00252733
-0.00252731
-0.00252733
-0.00242703
-0.00234238
-0.00235523
-0.00241346
-0.00234203
-0.00242759
-0.00241328
-0.0023421
-0.00242841
-0.00242646
-0.00235526
-0.00234263
-0.00241342
-0.00234256
-0.00241323
-0.00242726
-0.00234178
-0.00234193
-0.00242746
-0.00242807
-0.00242787
-0.002655
-0.00257147
-0.00257128
-0.00265525
-0.00257157
-0.0026553
-0.00265538
-0.00257139
-0.00257096
-0.00265546
-0.00258398
-0.00258394
-0.00258397
-0.00275144
-0.0027515
-0.00275148
-0.00275148
-0.00265422
-0.00257169
-0.00258426
-0.00264101
-0.00257146
-0.00265465
-0.00264081
-0.00257148
-0.00265542
-0.00265357
-0.00258426
-0.00257197
-0.00264086
-0.00257198
-0.00264076
-0.0026543
-0.00257116
-0.00257132
-0.00265453
-0.00265511
-0.00265495
-0.00287508
-0.00279446
-0.00279422
-0.00287536
-0.00279443
-0.00287538
-0.00287544
-0.00279424
-0.00279381
-0.00287544
-0.00280632
-0.00280632
-0.00280631
-0.00296793
-0.00296794
-0.00296792
-0.00296794
-0.00287432
-0.00279464
-0.0028067
-0.00286172
-0.0027944
-0.00287485
-0.00286154
-0.00279427
-0.00287543
-0.00287378
-0.00280674
-0.00279484
-0.00286155
-0.00279481
-0.00286137
-0.0028744
-0.0027941
-0.00279425
-0.00287463
-0.00287524
-0.00287513
-0.00308652
-0.00300929
-0.00300916
-0.00308685
-0.00300938
-0.00308695
-0.00308687
-0.0030092
-0.00300884
-0.00308692
-0.00302066
-0.00302062
-0.00302064
-0.00317635
-0.00317645
-0.00317639
-0.00317644
-0.00308591
-0.00300955
-0.00302082
-0.00307406
-0.00300922
-0.00308632
-0.00307387
-0.00300926
-0.00308693
-0.00308536
-0.00302097
-0.00300978
-0.00307372
-0.00300964
-0.00307359
-0.00308609
-0.0030091
-0.00300917
-0.00308638
-0.00308687
-0.00308671
-0.00329082
-0.00321616
-0.00321585
-0.00329107
-0.00321608
-0.00329126
-0.00321617
-0.00321581
-0.00322727
-0.0032273
-0.00322729
-0.00328995
-0.00321643
-0.00322698
-0.00327914
-0.00321615
-0.00329061
-0.00327914
-0.00321622
-0.00328951
-0.00322763
-0.00321678
-0.00321651
-0.00327884
-0.00321595
-0.00321612
-0.00329076
-0.00329127
-0.00329116
-5.26165e-05
-7.12028e-05
-7.12464e-05
-6.26717e-05
-9.57719e-05
-6.29961e-05
-9.58222e-05
-8.24489e-05
-9.62779e-05
-9.62141e-05
-7.74487e-05
-7.74489e-05
-3.72563e-05
-6.72751e-05
-6.3718e-05
-7.79017e-05
-3.72487e-05
-6.72529e-05
-6.38547e-05
-7.78993e-05
-6.42973e-05
-4.55087e-05
-8.87385e-05
-0.000138011
-6.42893e-05
-4.5543e-05
-8.87891e-05
-0.000138013
-6.9758e-05
-9.25303e-05
-0.000115622
-0.000173011
-7.26334e-05
-0.000109594
-0.000150802
-6.97506e-05
-9.25256e-05
-0.000115679
-0.000173016
-7.26739e-05
-0.00010959
-0.000150804
-5.25834e-05
-7.17131e-05
-7.12477e-05
-6.27679e-05
-9.56802e-05
-8.24258e-05
-9.66006e-05
-9.64476e-05
-7.69701e-05
-7.7466e-05
-6.30129e-05
-9.58367e-05
-3.74525e-05
-6.73909e-05
-6.37718e-05
-7.79206e-05
-3.74482e-05
-6.72377e-05
-7.79171e-05
-6.38921e-05
-6.42777e-05
-4.63079e-05
-8.87742e-05
-0.0001381
-6.9682e-05
-9.27909e-05
-0.000116053
-0.000172958
-7.26204e-05
-0.000109579
-0.000150799
-6.42673e-05
-4.63736e-05
-8.87726e-05
-0.000138099
-6.96728e-05
-9.25083e-05
-0.000172978
-0.000116197
-0.000109572
-7.27114e-05
-0.000150812
-0.000101586
-8.052e-05
-9.06232e-05
-9.06968e-05
-0.000101586
-8.05028e-05
-9.06957e-05
-9.06016e-05
-0.000101589
-8.04939e-05
-9.06961e-05
-9.06003e-05
-0.000133453
-9.79354e-05
-0.000205011
-0.000204868
-0.000115104
-0.000115039
-0.00021854
-0.000133451
-9.79265e-05
-0.000205014
-0.000204872
-0.000115102
-0.000115043
-0.000218547
-0.00013346
-9.79109e-05
-0.000204872
-0.000204998
-0.000115034
-0.000115098
-0.00021858
-0.00013346
-9.79032e-05
-0.000204876
-0.000205002
-0.000115036
-0.000115092
-0.000218582
-3.74665e-05
-6.72342e-05
-7.79239e-05
-6.39024e-05
-6.97003e-05
-9.27773e-05
-0.000116155
-0.000172967
-7.26355e-05
-0.000109581
-0.00015082
-6.42959e-05
-4.63212e-05
-8.87982e-05
-0.00013813
-6.96945e-05
-9.2496e-05
-0.000172986
-0.000116301
-0.000109578
-7.27388e-05
-0.000150834
-6.42879e-05
-4.64236e-05
-8.87933e-05
-0.00013813
-5.25622e-05
-7.17438e-05
-7.11578e-05
-6.30816e-05
-9.56849e-05
-8.24051e-05
-9.67489e-05
-9.62704e-05
-7.69759e-05
-7.74039e-05
-6.26687e-05
-9.57318e-05
-3.72166e-05
-6.73422e-05
-7.78696e-05
-6.38078e-05
-6.97325e-05
-9.27584e-05
-0.000173012
-0.000115597
-0.000109585
-7.25999e-05
-0.00015078
-6.97276e-05
-9.27408e-05
-0.000173015
-0.000115635
-0.00010958
-7.26547e-05
-0.000150776
-6.42646e-05
-4.54552e-05
-8.87089e-05
-0.000137994
-6.42587e-05
-4.54549e-05
-8.87242e-05
-0.000137998
-8.23724e-05
-9.69845e-05
-9.65776e-05
-7.70024e-05
-7.69107e-05
-6.31247e-05
-9.57026e-05
-6.27344e-05
-9.56103e-05
-0.000136421
-0.000439204
-0.000136445
-0.000439229
-0.00017641
-0.000176376
-0.000425709
-0.000433179
-0.000433167
-0.000729737
-0.000497081
-0.000729994
-0.000496908
-0.000502122
-0.000721615
-0.000722063
-0.000498827
-0.000498761
-0.000430455
-7.81441e-05
-0.000134575
-0.000444155
-0.000426854
-0.000130621
-0.000256302
-0.000391066
-0.000175657
-0.000435268
-0.000393883
-0.000426852
-0.000130642
-0.000256312
-0.000391071
-0.000175653
-0.000435284
-0.000393887
-0.000507194
-0.000730927
-0.000505597
-0.000724773
-0.000507188
-0.000730923
-0.000505598
-0.000724779
-0.00050726
-0.000536133
-0.000717006
-0.000660056
-0.000508564
-0.00053358
-0.000707673
-0.000507257
-0.000536129
-0.000717006
-0.000660068
-0.000508557
-0.000533579
-0.000707672
-0.000176539
-0.000176398
-0.000425702
-0.000433235
-0.000433155
-0.000136396
-0.000439226
-0.000729748
-0.000497079
-0.000502123
-0.000721651
-0.000722
-0.000498852
-0.000498751
-0.00072995
-0.000496899
-0.00042688
-0.000130768
-0.000256312
-0.000391048
-0.000175525
-0.000435295
-0.00039363
-0.000430632
-7.81268e-05
-0.000134539
-0.000444286
-0.000426891
-0.000256349
-0.000130791
-0.000390923
-0.000175526
-0.000393608
-0.000435341
-0.000506944
-0.000731233
-0.0005054
-0.000725816
-0.000507171
-0.000536176
-0.000718001
-0.000661024
-0.000508469
-0.000533735
-0.000708959
-0.000506939
-0.000731235
-0.000505402
-0.000725827
-0.000507168
-0.000536112
-0.000660988
-0.000718034
-0.000533655
-0.000508467
-0.000708972
-0.000430629
-7.80946e-05
-0.000134565
-0.000444271
-0.000426896
-0.000256357
-0.000130806
-0.000390937
-0.000175545
-0.000393614
-0.000435352
-0.000430634
-7.814e-05
-0.00013456
-0.000444302
-0.000507164
-0.000536205
-0.000717974
-0.000661022
-0.00050848
-0.00053375
-0.000708929
-0.00050693
-0.0007312
-0.000505398
-0.000725797
-0.000507165
-0.000536122
-0.000660978
-0.000718025
-0.000533655
-0.000508475
-0.000708949
-0.000506933
-0.000731214
-0.000505402
-0.000725802
-0.000176582
-0.000176349
-0.00042571
-0.00043321
-0.000433207
-0.0001364
-0.000439235
-0.000729985
-0.000496896
-0.000502124
-0.000722067
-0.000721639
-0.000498761
-0.000498872
-0.000729768
-0.000497118
-0.000426849
-0.00025622
-0.00013065
-0.000391232
-0.000175653
-0.000393855
-0.000435272
-0.000430472
-7.80854e-05
-0.000134566
-0.00044415
-0.00043047
-7.81154e-05
-0.000134574
-0.000444169
-0.0005073
-0.000536255
-0.00066013
-0.000717
-0.000533643
-0.000508606
-0.00070768
-0.000507299
-0.000536237
-0.000660131
-0.000717
-0.000533623
-0.000508598
-0.000707685
-0.000507214
-0.000730944
-0.000505622
-0.000724804
-0.000507215
-0.000730943
-0.000505632
-0.000724801
-0.000136404
-0.000439252
-0.000136447
-0.000439248
-0.000502106
-0.000722037
-0.000721667
-0.000498768
-0.000498899
-0.000729955
-0.000496913
-0.000729774
-0.000497125
-0.000777601
-0.000897716
-0.000777615
-0.00089778
-0.000771041
-0.000770976
-0.000883494
-0.000894217
-0.000894332
-0.00104336
-0.000936046
-0.00104333
-0.000935854
-0.000924608
-0.00104146
-0.00104151
-0.000933332
-0.000933167
-0.000895452
-0.000777855
-0.000773224
-0.000896853
-0.000888481
-0.000768937
-0.000766594
-0.000861268
-0.000761954
-0.000891704
-0.000857763
-0.000888479
-0.000768934
-0.000766612
-0.000861235
-0.00076195
-0.000891675
-0.000857756
-0.000934527
-0.00104259
-0.000935214
-0.00104239
-0.000934518
-0.00104259
-0.000935192
-0.0010424
-0.000931192
-0.000942549
-0.0010401
-0.00101713
-0.000932869
-0.00094007
-0.00103909
-0.000931187
-0.000942525
-0.00104009
-0.00101713
-0.000932868
-0.000940051
-0.00103908
-0.000771078
-0.00077091
-0.000883478
-0.000894113
-0.000894398
-0.000777574
-0.000897789
-0.00104337
-0.000936024
-0.000924599
-0.0010415
-0.00104143
-0.000933328
-0.000933145
-0.00104328
-0.000935844
-0.00088926
-0.000768861
-0.000767215
-0.000861505
-0.000762353
-0.000891989
-0.000858307
-0.000895939
-0.000777863
-0.000773327
-0.000897027
-0.000889272
-0.000767206
-0.00076887
-0.000861459
-0.000762352
-0.00085829
-0.000892022
-0.000934204
-0.00104261
-0.000934985
-0.00104266
-0.000931024
-0.000942702
-0.00104026
-0.00101739
-0.00093265
-0.000940484
-0.00103957
-0.000934198
-0.00104263
-0.000934983
-0.00104267
-0.000931026
-0.000942651
-0.0010174
-0.00104028
-0.000940468
-0.000932649
-0.00103958
-0.000895902
-0.000777837
-0.000773288
-0.000897008
-0.000889244
-0.000767184
-0.000768853
-0.000861444
-0.000762328
-0.000858276
-0.000891998
-0.000895906
-0.000777843
-0.000773292
-0.000896999
-0.000930992
-0.000942703
-0.00104021
-0.00101738
-0.000932614
-0.000940499
-0.00103952
-0.000934164
-0.00104258
-0.000934961
-0.00104263
-0.000930998
-0.000942635
-0.00101739
-0.00104026
-0.000940461
-0.000932632
-0.00103954
-0.000934164
-0.00104259
-0.000934954
-0.00104263
-0.000770977
-0.000771066
-0.000883498
-0.00089435
-0.000894226
-0.000777631
-0.000897742
-0.00104334
-0.000935859
-0.000924614
-0.00104153
-0.00104148
-0.000933181
-0.000933351
-0.00104337
-0.000936069
-0.000888481
-0.000766652
-0.000768951
-0.000861324
-0.000761986
-0.000857782
-0.000891693
-0.00089547
-0.000777885
-0.000773244
-0.000896902
-0.000895469
-0.000777876
-0.000773244
-0.000896885
-0.00093122
-0.000942631
-0.00101715
-0.00104011
-0.000940111
-0.000932894
-0.00103909
-0.000931226
-0.000942595
-0.00101714
-0.0010401
-0.000940074
-0.000932879
-0.00103909
-0.000934543
-0.00104261
-0.000935232
-0.00104242
-0.00093454
-0.00104259
-0.000935208
-0.00104242
-0.000777582
-0.000897752
-0.000777627
-0.000897722
-0.000924595
-0.0010415
-0.00104147
-0.000933155
-0.000933353
-0.0010433
-0.000935827
-0.00104335
-0.000936048
-0.00107945
-0.00118226
-0.0010792
-0.00118229
-0.00107796
-0.00107776
-0.00117963
-0.001181
-0.00118107
-0.00131739
-0.00121722
-0.00131745
-0.00121704
-0.0012147
-0.0013164
-0.00131651
-0.00121621
-0.00121604
-0.00118166
-0.0010788
-0.00107882
-0.00118176
-0.0011796
-0.00107838
-0.00109059
-0.00116238
-0.00107821
-0.00118013
-0.00116158
-0.00117959
-0.00107837
-0.00109061
-0.00116236
-0.0010782
-0.0011801
-0.00116158
-0.0012169
-0.0013171
-0.00121684
-0.00131691
-0.00121688
-0.00131707
-0.00121681
-0.00131691
-0.00121715
-0.00123134
-0.0013157
-0.00129879
-0.00121698
-0.00123075
-0.00131522
-0.00121714
-0.00123131
-0.00131569
-0.00129878
-0.00121695
-0.00123073
-0.00131521
-0.00107798
-0.00107769
-0.0011796
-0.00118098
-0.00118101
-0.00107916
-0.00118223
-0.00131737
-0.0012172
-0.00121468
-0.0013164
-0.00131645
-0.0012162
-0.00121599
-0.00131742
-0.001217
-0.00118003
-0.00107809
-0.00109075
-0.00116241
-0.00107779
-0.0011803
-0.00116169
-0.00118195
-0.00107854
-0.00107834
-0.00118186
-0.00118004
-0.00109078
-0.00107808
-0.00116238
-0.00107778
-0.00116171
-0.00118032
-0.00121644
-0.00131722
-0.0012166
-0.00131726
-0.00121669
-0.00123135
-0.00131593
-0.00129884
-0.0012167
-0.00123082
-0.00131568
-0.00121645
-0.00131723
-0.0012166
-0.00131728
-0.00121669
-0.00123133
-0.00129887
-0.00131594
-0.00123083
-0.0012167
-0.00131569
-0.0011819
-0.00107848
-0.00107829
-0.00118181
-0.00118
-0.00109076
-0.00107805
-0.00116236
-0.00107775
-0.00116168
-0.00118029
-0.00118191
-0.00107849
-0.0010783
-0.00118183
-0.00121665
-0.00123135
-0.00131589
-0.00129882
-0.00121667
-0.00123082
-0.00131565
-0.00121639
-0.00131718
-0.00121657
-0.00131724
-0.00121665
-0.00123131
-0.00129885
-0.00131592
-0.00123081
-0.00121667
-0.00131567
-0.0012164
-0.0013172
-0.00121657
-0.00131724
-0.00107778
-0.00107798
-0.00117965
-0.00118109
-0.001181
-0.00107946
-0.00118228
-0.00131748
-0.00121704
-0.00121473
-0.00131654
-0.00131641
-0.00121605
-0.00121622
-0.0013174
-0.00121724
-0.00117961
-0.0010906
-0.0010784
-0.00116242
-0.00107823
-0.00116157
-0.00118012
-0.00118169
-0.00107883
-0.00107884
-0.0011818
-0.00118169
-0.00107881
-0.00107884
-0.0011818
-0.00121719
-0.00123141
-0.00129879
-0.00131572
-0.00123076
-0.00121701
-0.00131524
-0.00121718
-0.00123137
-0.00129878
-0.00131571
-0.00123073
-0.001217
-0.00131524
-0.00121692
-0.0013171
-0.00121686
-0.00131694
-0.00121692
-0.00131711
-0.00121685
-0.00131694
-0.00107918
-0.00118226
-0.00107944
-0.00118227
-0.00121469
-0.00131651
-0.00131642
-0.00121602
-0.00121625
-0.00131744
-0.00121703
-0.0013174
-0.00121725
-0.00135157
-0.00144964
-0.00135142
-0.00144976
-0.00135082
-0.00135069
-0.00144845
-0.00144883
-0.00144898
-0.0015793
-0.0014831
-0.00157945
-0.00148301
-0.00148166
-0.00157859
-0.00157876
-0.00148249
-0.00148238
-0.00144914
-0.00135133
-0.00135126
-0.0014494
-0.00144759
-0.0013517
-0.00136586
-0.00143241
-0.00135183
-0.00144817
-0.00143207
-0.00144759
-0.00135168
-0.00136586
-0.00143237
-0.00135182
-0.00144811
-0.00143207
-0.00148283
-0.00157915
-0.00148297
-0.0015788
-0.00148281
-0.00157915
-0.00148295
-0.0015788
-0.00148346
-0.0014977
-0.00157793
-0.00156221
-0.00148337
-0.0014974
-0.0015773
-0.00148345
-0.00149768
-0.00157792
-0.00156221
-0.00148336
-0.00149739
-0.00157729
-0.00135083
-0.00135062
-0.00144844
-0.0014487
-0.00144904
-0.00135138
-0.00144976
-0.00157933
-0.0014831
-0.00148165
-0.00157863
-0.00157866
-0.00148247
-0.00148236
-0.00157939
-0.00148299
-0.00144808
-0.00135147
-0.00136589
-0.00143241
-0.00135139
-0.00144842
-0.00143212
-0.00144955
-0.00135118
-0.00135088
-0.00144963
-0.00144809
-0.00136593
-0.00135145
-0.00143238
-0.00135139
-0.00143214
-0.00144844
-0.00148248
-0.00157935
-0.00148282
-0.00157925
-0.00148302
-0.0014977
-0.00157822
-0.00156225
-0.00148315
-0.00149745
-0.00157782
-0.00148247
-0.00157934
-0.00148282
-0.00157926
-0.00148303
-0.00149767
-0.00156228
-0.00157822
-0.00149746
-0.00148314
-0.00157783
-0.00144952
-0.00135112
-0.00135083
-0.00144961
-0.00144805
-0.00136591
-0.00135143
-0.00143237
-0.00135136
-0.00143213
-0.00144841
-0.00144952
-0.00135114
-0.00135084
-0.00144958
-0.001483
-0.0014977
-0.00157816
-0.00156224
-0.00148311
-0.00149745
-0.00157778
-0.00148244
-0.00157931
-0.0014828
-0.00157921
-0.00148299
-0.00149765
-0.00156226
-0.00157818
-0.00149745
-0.00148311
-0.0015778
-0.00148243
-0.00157931
-0.00148278
-0.00157922
-0.0013507
-0.00135084
-0.00144845
-0.00144899
-0.00144883
-0.00135158
-0.00144965
-0.00157944
-0.00148302
-0.00148167
-0.00157876
-0.00157857
-0.00148238
-0.0014825
-0.00157932
-0.00148312
-0.00144759
-0.00136585
-0.00135173
-0.00143241
-0.00135187
-0.00143205
-0.00144816
-0.00144916
-0.00135136
-0.00135128
-0.00144945
-0.00144916
-0.00135136
-0.00135128
-0.00144945
-0.00148347
-0.00149775
-0.0015622
-0.00157792
-0.00149741
-0.00148339
-0.00157728
-0.00148346
-0.0014977
-0.00156219
-0.00157791
-0.00149737
-0.00148338
-0.00157729
-0.00148283
-0.00157915
-0.00148298
-0.0015788
-0.00148283
-0.00157914
-0.00148298
-0.0015788
-0.0013514
-0.00144972
-0.00135157
-0.00144965
-0.00148164
-0.00157872
-0.00157858
-0.00148235
-0.00148251
-0.00157941
-0.00148299
-0.0015793
-0.00148314
-0.00161216
-0.0017066
-0.00161207
-0.00170674
-0.00161163
-0.00161154
-0.00170559
-0.00170595
-0.00170612
-0.00183161
-0.00173884
-0.00183178
-0.00173875
-0.00173751
-0.00183102
-0.0018312
-0.00173835
-0.00173826
-0.00170605
-0.00161205
-0.00161181
-0.00170645
-0.00170458
-0.0016125
-0.00162638
-0.00169019
-0.0016125
-0.0017053
-0.00168997
-0.00170459
-0.00161249
-0.00162639
-0.00169019
-0.00161249
-0.00170526
-0.00168997
-0.0017385
-0.00183149
-0.00173875
-0.00183107
-0.00173848
-0.0018315
-0.00173872
-0.0018311
-0.00173918
-0.00175303
-0.00183035
-0.00181525
-0.00173919
-0.0017528
-0.00182966
-0.00173919
-0.001753
-0.00183039
-0.00181524
-0.00173916
-0.00175279
-0.00182965
-0.00161166
-0.00161148
-0.00170557
-0.00170593
-0.00170606
-0.00161203
-0.0017067
-0.00183161
-0.00173882
-0.00173749
-0.00183104
-0.00183114
-0.00173834
-0.00173822
-0.00183173
-0.00173872
-0.00170513
-0.0016123
-0.0016264
-0.00169021
-0.00161209
-0.00170559
-0.00169
-0.00170652
-0.00161191
-0.00161148
-0.00170667
-0.00170514
-0.00162644
-0.00161228
-0.00169019
-0.00161208
-0.00169001
-0.00170561
-0.00173815
-0.00183172
-0.0017386
-0.00183155
-0.00173876
-0.00175303
-0.00183067
-0.00181528
-0.00173897
-0.00175282
-0.0018302
-0.00173816
-0.00183171
-0.0017386
-0.00183155
-0.00173876
-0.00175299
-0.0018153
-0.00183066
-0.00175282
-0.00173897
-0.00183021
-0.00170648
-0.00161189
-0.00161143
-0.00170663
-0.0017051
-0.00162641
-0.00161225
-0.00169016
-0.00161205
-0.00168999
-0.00170556
-0.00170649
-0.00161187
-0.00161144
-0.00170664
-0.00173872
-0.00175302
-0.00183062
-0.00181526
-0.00173896
-0.00175281
-0.00183016
-0.00173811
-0.00183167
-0.00173858
-0.00183153
-0.00173872
-0.00175297
-0.00181529
-0.00183066
-0.0017528
-0.00173894
-0.00183018
-0.00173813
-0.00183169
-0.00173857
-0.00183154
-0.00161154
-0.00161164
-0.00170558
-0.00170612
-0.00170595
-0.00161217
-0.0017066
-0.00183178
-0.00173874
-0.0017375
-0.00183121
-0.00183103
-0.00173825
-0.00173837
-0.00183163
-0.00173885
-0.00170457
-0.00162635
-0.0016125
-0.00169018
-0.0016125
-0.00168993
-0.00170528
-0.00170607
-0.00161206
-0.00161181
-0.00170648
-0.00170605
-0.00161204
-0.0016118
-0.00170643
-0.00173918
-0.00175306
-0.00181524
-0.00183037
-0.00175279
-0.00173921
-0.00182965
-0.00173917
-0.00175301
-0.00181522
-0.00183036
-0.00175276
-0.00173919
-0.00182965
-0.0017385
-0.00183152
-0.00173876
-0.00183112
-0.00173849
-0.0018315
-0.00173871
-0.00183111
-0.00161202
-0.0017067
-0.00161214
-0.00170657
-0.00173747
-0.00183118
-0.00183102
-0.00173822
-0.00173835
-0.00183174
-0.00173871
-0.00183159
-0.00173881
-0.0018633
-0.00195456
-0.00186324
-0.00195472
-0.00186288
-0.0018628
-0.00195368
-0.00195402
-0.0019542
-0.00207563
-0.00198572
-0.00207579
-0.00198565
-0.00198448
-0.00207513
-0.0020753
-0.00198533
-0.00198524
-0.00195405
-0.00186323
-0.00186293
-0.00195444
-0.00195264
-0.0018637
-0.00187715
-0.00193882
-0.00186367
-0.00195339
-0.00193858
-0.00195264
-0.00186373
-0.00187714
-0.00193874
-0.00186366
-0.00195336
-0.00193858
-0.00198543
-0.00207553
-0.00198565
-0.00207511
-0.0019854
-0.0020755
-0.00198564
-0.00207513
-0.00198613
-0.00199956
-0.00207449
-0.00205985
-0.00198615
-0.00199934
-0.0020737
-0.00198612
-0.00199953
-0.00207443
-0.00205985
-0.00198615
-0.00199933
-0.00207368
-0.00186292
-0.00186274
-0.00195364
-0.00195392
-0.00195431
-0.0018632
-0.00195476
-0.00207561
-0.00198572
-0.00198446
-0.00207515
-0.0020752
-0.00198534
-0.00198526
-0.00207572
-0.00198566
-0.00195319
-0.00186351
-0.00187715
-0.00193886
-0.00186322
-0.00195368
-0.00193863
-0.00195456
-0.00186311
-0.0018626
-0.00195469
-0.00195318
-0.00187719
-0.00186349
-0.00193882
-0.00186322
-0.00193866
-0.00195368
-0.00198511
-0.00207575
-0.00198552
-0.00207563
-0.00198568
-0.00199956
-0.00207478
-0.00205988
-0.00198593
-0.00199937
-0.00207433
-0.00198511
-0.00207575
-0.00198554
-0.00207565
-0.00198568
-0.00199954
-0.00205989
-0.00207479
-0.00199938
-0.00198589
-0.00207433
-0.00195454
-0.00186307
-0.00186259
-0.0019547
-0.0019532
-0.00187716
-0.00186349
-0.0019388
-0.0018632
-0.00193862
-0.00195368
-0.00195455
-0.00186308
-0.00186258
-0.0019547
-0.00198568
-0.00199954
-0.00207472
-0.00205985
-0.00198593
-0.00199937
-0.00207426
-0.00198506
-0.00207569
-0.00198553
-0.0020756
-0.00198568
-0.00199951
-0.00205987
-0.00207477
-0.00199936
-0.00198591
-0.0020743
-0.00198508
-0.00207573
-0.00198555
-0.0020756
-0.00186281
-0.00186291
-0.0019537
-0.00195422
-0.00195405
-0.00186332
-0.00195459
-0.0020758
-0.00198566
-0.00198451
-0.00207531
-0.00207515
-0.00198525
-0.00198539
-0.00207566
-0.00198578
-0.00195266
-0.00187713
-0.0018637
-0.00193881
-0.00186368
-0.00193858
-0.00195338
-0.00195409
-0.00186325
-0.00186295
-0.00195449
-0.00195408
-0.00186323
-0.00186295
-0.00195448
-0.00198616
-0.00199959
-0.00205982
-0.00207451
-0.00199934
-0.0019862
-0.00207373
-0.00198615
-0.00199955
-0.00205982
-0.00207449
-0.00199932
-0.00198616
-0.00207373
-0.00198546
-0.00207558
-0.0019857
-0.00207518
-0.00198546
-0.00207553
-0.00198569
-0.00207519
-0.0018632
-0.00195473
-0.00186329
-0.00195458
-0.00198447
-0.0020753
-0.00207511
-0.00198525
-0.00198538
-0.00207578
-0.00198567
-0.00207562
-0.00198577
-0.00210633
-0.00219488
-0.00210624
-0.00219501
-0.00210599
-0.00210589
-0.002194
-0.00219443
-0.00219457
-0.0023124
-0.00222511
-0.00231254
-0.00222499
-0.00222382
-0.00231193
-0.0023121
-0.00222478
-0.00222465
-0.00219436
-0.00210623
-0.00210596
-0.00219477
-0.00219299
-0.00210677
-0.00211979
-0.00217956
-0.00210668
-0.00219379
-0.00217939
-0.00219297
-0.0021067
-0.0021198
-0.00217956
-0.00210666
-0.00219372
-0.0021794
-0.00222479
-0.00231234
-0.00222505
-0.00231198
-0.00222478
-0.00231235
-0.00222502
-0.002312
-0.00222548
-0.00223847
-0.00231127
-0.00229706
-0.00222551
-0.00223829
-0.00231051
-0.00222546
-0.00223847
-0.00231133
-0.00229705
-0.00222547
-0.00223829
-0.00231053
-0.00210597
-0.00210582
-0.002194
-0.00219438
-0.00219454
-0.00210619
-0.002195
-0.00231242
-0.00222508
-0.00222383
-0.00231199
-0.00231207
-0.00222475
-0.00222463
-0.00231253
-0.00222498
-0.00219356
-0.00210653
-0.00211979
-0.00217961
-0.00210627
-0.00219404
-0.00217943
-0.00219487
-0.00210613
-0.00210566
-0.00219503
-0.00219355
-0.00211981
-0.00210654
-0.00217958
-0.00210626
-0.00217945
-0.0021941
-0.00222442
-0.00231253
-0.0022249
-0.00231241
-0.00222501
-0.00223845
-0.0023116
-0.0022971
-0.00222527
-0.0022383
-0.00231111
-0.00222445
-0.00231256
-0.00222494
-0.00231245
-0.00222499
-0.00223843
-0.00229713
-0.0023116
-0.00223833
-0.0022253
-0.00231113
-0.00219486
-0.00210608
-0.00210562
-0.00219499
-0.00219356
-0.00211979
-0.00210652
-0.00217958
-0.00210624
-0.00217943