/*--------------------------------*- C++ -*----------------------------------*\
| =========                 |                                                 |
| \\      /  F ield         | OpenFOAM: The Open Source CFD Toolbox           |
|  \\    /   O peration     | Version:  2206                                  |
|   \\  /    A nd           | Website:  www.openfoam.com                      |
|    \\/     M anipulation  |                                                 |
\*---------------------------------------------------------------------------*/
FoamFile
{
    version     2.0;
    format      ascii;
    arch        "LSB;label=32;scalar=64";
    class       surfaceScalarField;
    location    "110";
    object      phi;
}
// * * * * * * * * * * * * * * * * * * * * * * * * * * * * * * * * * * * * * //

dimensions      [0 3 -1 0 0 0 0];

oriented        oriented;

internalField   nonuniform List<scalar> 
198849
(
-1.30372e-07
9.29461e-09
8.4947e-09
8.28387e-10
4.92566e-10
1.11262e-07
-2.60616e-08
1.52902e-09
-8.49627e-09
-4.98598e-09
1.10251e-07
1.69451e-09
1.36258e-09
7.04255e-10
2.6912e-09
1.80187e-09
3.25852e-09
1.24246e-09
-2.68257e-08
-3.07027e-08
-2.74631e-08
-2.60582e-08
1.52866e-09
-8.4925e-09
-4.97352e-09
1.10223e-07
1.69348e-09
1.36167e-09
7.04188e-10
2.69067e-09
1.80137e-09
3.25774e-09
1.24154e-09
-3.06982e-08
-2.68215e-08
-2.74579e-08
-2.6531e-08
-7.97406e-10
-1.5403e-09
1.43655e-09
1.79138e-09
2.56408e-08
-5.05553e-10
-5.2089e-10
-1.12475e-07
2.81966e-10
2.70269e-10
1.12949e-07
-1.07737e-07
-1.71091e-10
5.20179e-10
2.44168e-10
1.08167e-07
-9.2592e-11
-7.69285e-11
-1.31268e-10
-2.25051e-10
-1.36725e-10
-1.43392e-10
-2.1777e-10
-1.08719e-07
-1.76214e-10
5.13002e-10
2.37395e-10
1.09156e-07
-1.04149e-10
-7.23581e-11
-1.22219e-10
-1.68374e-10
-1.6414e-10
-1.93646e-10
-1.86101e-10
-2.64898e-08
1.68346e-10
1.75942e-10
-1.17166e-10
-1.26573e-10
2.63892e-08
-3.10015e-10
-3.18632e-10
-1.14034e-07
1.6578e-10
1.58426e-10
1.14339e-07
-1.09154e-07
-1.22427e-10
3.18983e-10
1.56718e-10
1.09428e-07
-4.43978e-11
-3.96672e-11
-9.90176e-11
-1.63137e-10
-6.05869e-11
-6.34569e-11
-1.57445e-10
-1.10156e-07
-1.27468e-10
3.12739e-10
1.53706e-10
1.10437e-07
-5.67577e-11
-3.50841e-11
-8.7093e-11
-1.07192e-10
-8.88928e-11
-1.16158e-10
-1.28048e-10
-2.67767e-08
1.16459e-10
1.2734e-10
-5.59354e-11
-6.72966e-11
2.66561e-08
-2.6751e-10
-2.76838e-10
-1.15183e-07
1.42648e-10
1.35963e-10
1.15449e-07
-1.10182e-07
-1.09434e-10
2.76483e-10
1.35337e-10
1.10415e-07
-3.46979e-11
-2.79289e-11
-8.67462e-11
-1.48669e-10
-4.45757e-11
-4.55934e-11
-1.46651e-10
-1.11205e-07
-1.14592e-10
2.70597e-10
1.33331e-10
1.11443e-07
-4.68768e-11
-2.37587e-11
-7.9063e-11
-9.20901e-11
-7.2626e-11
-9.84672e-11
-1.14569e-10
-2.69839e-08
1.02932e-10
1.15101e-10
-4.03206e-11
-5.16035e-11
2.68578e-08
-2.48369e-10
-2.57015e-10
-1.16217e-07
1.32621e-10
1.26691e-10
1.16463e-07
-1.11078e-07
-1.03222e-10
2.56574e-10
1.23897e-10
1.11285e-07
-2.87394e-11
-2.14422e-11
-8.50333e-11
-1.4136e-10
-3.49057e-11
-3.65375e-11
-1.3635e-10
-1.12118e-07
-1.08395e-10
2.50966e-10
1.22224e-10
1.1233e-07
-4.10592e-11
-1.72734e-11
-7.38786e-11
-8.4737e-11
-6.32211e-11
-8.9803e-11
-1.06784e-10
-2.71643e-08
9.61649e-11
1.08911e-10
-3.17663e-11
-4.33169e-11
2.70343e-08
-2.3311e-10
-2.41523e-10
-1.17179e-07
1.25143e-10
1.19292e-10
1.17409e-07
-1.11874e-07
-9.84847e-11
2.40889e-10
1.14916e-10
1.12057e-07
-2.35852e-11
-1.6677e-11
-7.72609e-11
-1.35364e-10
-2.66696e-11
-2.87775e-11
-1.32235e-10
-1.12932e-07
-1.03832e-10
2.35381e-10
1.13809e-10
1.13122e-07
-3.60808e-11
-1.2529e-11
-6.96046e-11
-7.88344e-11
-5.49131e-11
-8.26178e-11
-1.00218e-10
-2.73193e-08
9.11273e-11
1.04425e-10
-2.50285e-11
-3.68185e-11
2.71856e-08
-2.19917e-10
-2.27622e-10
-1.1808e-07
1.19112e-10
1.13049e-10
1.18295e-07
-1.12582e-07
-9.42612e-11
2.27099e-10
1.07254e-10
1.12745e-07
-1.87756e-11
-1.25029e-11
-7.71244e-11
-1.30056e-10
-1.88846e-11
-2.14417e-11
-1.24181e-10
-1.13658e-07
-9.95164e-11
2.21913e-10
1.06765e-10
1.13827e-07
-3.13178e-11
-8.33697e-12
-6.59849e-11
-7.36526e-11
-4.76668e-11
-7.56735e-11
-9.49301e-11
-2.74501e-08
8.66582e-11
1.00215e-10
-1.89125e-11
-3.09648e-11
2.73131e-08
-2.07419e-10
-2.14318e-10
-1.18922e-07
1.13632e-10
1.07143e-10
1.19123e-07
-1.1321e-07
-9.0153e-11
2.14249e-10
1.00594e-10
1.13352e-07
-1.42795e-11
-9.12097e-12
-7.04325e-11
-1.25103e-10
-1.18616e-11
-1.43361e-11
-1.21683e-10
-1.14303e-07
-9.53926e-11
2.08723e-10
1.003e-10
1.14452e-07
-2.69388e-11
-4.70434e-12
-6.29011e-11
-6.89216e-11
-4.08333e-11
-6.89251e-11
-9.03125e-11
-2.7559e-08
8.21947e-11
9.61921e-11
-1.30458e-11
-2.55351e-11
2.74192e-08
-1.93273e-10
-2.03193e-10
-1.19707e-07
1.0902e-10
1.01052e-10
1.19893e-07
-1.13762e-07
-8.60269e-11
2.01178e-10
9.36866e-11
1.13886e-07
-1.00443e-11
-5.85486e-12
-7.1276e-11
-1.20022e-10
-4.479e-12
-6.55455e-12
-1.14532e-10
-1.14872e-07
-9.15112e-11
1.95444e-10
9.49793e-11
1.15003e-07
-2.27103e-11
-2.05836e-12
-6.04812e-11
-6.39306e-11
-3.35524e-11
-6.14852e-11
-8.54305e-11
-2.76485e-08
7.7914e-11
9.21842e-11
-7.27861e-12
-2.01989e-11
2.75059e-08
-1.76859e-10
-1.84873e-10
-1.20427e-07
1.02309e-10
9.27231e-11
1.20593e-07
-1.14232e-07
-8.12551e-11
1.85215e-10
8.85224e-11
1.14329e-07
-5.52031e-12
-2.70783e-12
-6.47999e-11
-1.13195e-10
4.37166e-12
2.96833e-12
-1.10296e-10
-1.15359e-07
-8.66688e-11
1.773e-10
8.91023e-11
1.15467e-07
-1.78899e-11
1.20927e-12
-5.75133e-11
-5.71348e-11
-2.49706e-11
-5.25001e-11
-7.90012e-11
-2.77121e-08
7.267e-11
8.72381e-11
-1.3992e-14
-1.34678e-11
2.75657e-08
-1.52717e-10
-1.62125e-10
-1.21057e-07
9.18976e-11
8.0063e-11
1.212e-07
-1.14596e-07
-7.4724e-11
1.61825e-10
7.90149e-11
1.14664e-07
5.97612e-13
2.31466e-12
-6.38905e-11
-1.03988e-10
1.53336e-11
1.53663e-11
-9.96799e-11
-1.1574e-07
-7.94795e-11
1.53405e-10
8.05748e-11
1.15818e-07
-1.10719e-11
6.29652e-12
-5.26101e-11
-4.84463e-11
-1.4346e-11
-4.07179e-11
-7.15312e-11
-2.77424e-08
6.57139e-11
8.05172e-11
8.82537e-12
-5.25724e-12
2.75926e-08
-1.32738e-10
-1.41123e-10
-1.21592e-07
7.56194e-11
7.43238e-11
1.21716e-07
-1.14851e-07
-6.68426e-11
1.33478e-10
8.21788e-11
1.14888e-07
8.39731e-12
7.66491e-12
-5.88496e-11
-9.84361e-11
2.44974e-11
2.49952e-11
-9.36818e-11
-1.16e-07
-7.14015e-11
1.01089e-11
2.71346e-10
-3.65779e-12
6.44761e-12
-4.72337e-11
-4.21084e-11
-5.62482e-12
-3.12518e-11
-6.65217e-11
1.1598e-07
-2.77497e-08
5.78268e-11
7.20634e-11
1.8133e-11
1.77335e-12
2.75999e-08
-2.27786e-09
-2.32382e-09
2.65333e-08
-2.70188e-08
2.71155e-09
2.37556e-09
9.85534e-12
2.60283e-08
-3.12965e-08
3.04906e-09
-6.86104e-11
2.27965e-09
8.97985e-12
2.60302e-08
-3.12972e-08
3.04751e-09
-6.91402e-11
-2.32321e-09
2.65336e-08
-2.70186e-08
2.69238e-09
2.39551e-09
1.0853e-10
2.60629e-08
-3.13474e-08
2.92129e-09
-6.90894e-11
9.55264e-12
2.27885e-09
2.60277e-08
-3.12954e-08
-6.78561e-11
3.04712e-09
-7.35056e-10
-8.01701e-10
-3.2314e-08
-3.10402e-08
-3.18591e-08
-3.18604e-08
-3.64171e-10
-1.21808e-09
7.56915e-10
-3.53728e-10
-1.24171e-09
7.77369e-10
-1.08218e-10
1.30373e-07
-7.40237e-10
-8.01084e-10
-3.23134e-08
-3.10403e-08
-3.18588e-08
-3.18599e-08
-3.646e-10
-1.21793e-09
7.55924e-10
-3.52805e-10
-1.24103e-09
7.78304e-10
-1.0874e-10
1.30357e-07
-7.34027e-10
-7.92479e-10
-3.23126e-08
-3.10383e-08
-3.18581e-08
-3.18583e-08
-3.64819e-10
-1.21865e-09
7.55911e-10
-3.53843e-10
-1.2414e-09
7.77514e-10
-9.82813e-12
-1.08792e-10
1.30366e-07
-7.3459e-10
-7.99255e-10
-3.23132e-08
-3.10393e-08
-3.18583e-08
-3.18593e-08
-3.51523e-10
-1.218e-09
7.57439e-10
-3.66317e-10
-1.24194e-09
7.76587e-10
-3.13472e-08
2.92355e-09
-6.93337e-11
2.27469e-09
2.60262e-08
-3.12937e-08
-6.84454e-11
3.05139e-09
-2.32243e-09
2.65305e-08
-2.7016e-08
2.69191e-09
2.3949e-09
-3.1344e-08
-6.83492e-11
2.92299e-09
2.32625e-09
2.60611e-08
-3.13465e-08
-6.89036e-11
2.91925e-09
-2.70159e-08
2.72423e-09
2.36158e-09
-7.98484e-10
-1.53964e-09
1.43217e-09
1.79617e-09
2.56431e-08
1.05194e-10
9.45412e-11
2.648e-08
-2.62739e-08
-2.05387e-10
-2.0044e-10
-4.58751e-09
1.1171e-07
1.10617e-09
1.45744e-09
8.7346e-10
2.68927e-09
1.81005e-09
3.25586e-09
1.24113e-09
-2.69214e-08
-3.06902e-08
-2.74203e-08
7.98169e-10
-9.29844e-09
-4.59505e-09
1.11734e-07
1.11602e-09
1.45875e-09
8.78533e-10
2.68868e-09
1.79967e-09
3.25431e-09
1.23539e-09
-2.69224e-08
-3.06931e-08
-2.7424e-08
1.09726e-07
-2.17412e-10
-1.08996e-07
-4.53645e-10
-2.09642e-10
-1.44071e-10
-6.93735e-11
1.77439e-10
-8.86297e-11
8.66192e-11
2.94229e-10
-1.05273e-10
1.09752e-07
-2.16898e-10
-1.0902e-07
-4.54886e-10
-2.09743e-10
-1.45148e-10
-6.8418e-11
1.7685e-10
-8.82805e-11
8.53308e-11
2.94481e-10
1.41788e-09
1.80237e-09
2.56405e-08
9.41005e-11
2.64803e-08
-2.62738e-08
-2.04047e-10
-2.01745e-10
-4.98831e-09
1.10261e-07
1.71595e-09
1.35146e-09
6.97893e-10
2.6898e-09
1.79135e-09
3.25663e-09
1.23612e-09
-2.6825e-08
-3.07043e-08
-2.74642e-08
7.98199e-10
-9.29321e-09
-4.58362e-09
1.11707e-07
1.116e-09
1.45801e-09
8.77511e-10
2.68806e-09
1.79969e-09
3.25439e-09
1.23575e-09
-3.06899e-08
-2.69191e-08
-2.74211e-08
1.07748e-07
6.65574e-10
-1.07225e-07
2.98369e-10
-2.03841e-10
-1.57708e-10
-1.28151e-10
-1.98378e-10
-2.51636e-10
-1.91914e-10
-2.59924e-10
-1.12387e-10
1.08746e-07
6.60669e-10
-1.08226e-07
3.31788e-10
-2.03286e-10
-1.58358e-10
-1.36153e-10
-2.17521e-10
-2.51396e-10
-1.93275e-10
-2.40337e-10
-9.29341e-09
-4.58482e-09
1.117e-07
1.10583e-09
1.45699e-09
8.7307e-10
2.68911e-09
1.81007e-09
1.24173e-09
3.25607e-09
-3.0689e-08
-2.69185e-08
-2.74188e-08
6.64782e-10
-1.07214e-07
2.98767e-10
-2.04192e-10
-1.57058e-10
-1.28046e-10
-1.98626e-10
-2.52204e-10
-2.59593e-10
-1.92279e-10
-1.12167e-10
1.08741e-07
6.59591e-10
-1.08222e-07
3.31961e-10
-2.03112e-10
-1.57224e-10
-1.35828e-10
-2.17452e-10
-2.51712e-10
-1.93661e-10
-2.40281e-10
1.4179e-09
1.80167e-09
2.56378e-08
8.94293e-11
2.64854e-08
-2.62797e-08
-2.12749e-10
-1.94703e-10
-8.49414e-09
-4.98475e-09
1.1025e-07
1.71639e-09
1.35084e-09
6.97917e-10
2.68946e-09
1.79097e-09
1.23526e-09
3.25607e-09
-3.07022e-08
-2.68233e-08
-2.74617e-08
-1.54547e-10
-1.07975e-07
-5.49035e-10
-2.09414e-10
-1.44063e-10
-6.42866e-11
1.99296e-10
-9.02119e-11
2.70808e-10
8.68332e-11
-8.94749e-11
1.08752e-07
-1.54421e-10
-1.08007e-07
-5.50255e-10
-2.09164e-10
-1.45245e-10
-6.32287e-11
1.98988e-10
-8.98144e-11
8.61121e-11
2.71332e-10
-2.62846e-08
-2.13447e-10
-1.93377e-10
1.7536e-10
1.7099e-10
-1.24303e-10
-1.19957e-10
2.63779e-08
5.32612e-11
4.52169e-11
2.67665e-08
-2.65883e-08
-1.40171e-10
-1.36496e-10
2.61888e-10
1.10167e-07
-1.12254e-10
-8.70728e-11
-1.21655e-10
-1.44657e-10
-1.65799e-10
-2.16815e-10
-1.85177e-10
-1.75389e-10
5.05384e-10
2.6125e-10
1.10195e-07
-1.11947e-10
-8.65156e-11
-1.25995e-10
-1.44698e-10
-1.65455e-10
-2.17124e-10
-1.8236e-10
1.11175e-07
3.31711e-10
-1.10873e-07
1.8067e-10
-1.30078e-10
-8.94835e-11
-6.87491e-11
-1.49011e-10
-1.33329e-10
-9.90954e-11
-9.0861e-11
-5.25431e-11
1.11202e-07
3.33004e-10
-1.10903e-07
1.80512e-10
-1.30438e-10
-9.03717e-11
-6.48768e-11
-1.4935e-10
-1.33441e-10
-1.01231e-10
-9.06341e-11
-1.23864e-10
-1.2052e-10
2.63782e-08
4.50379e-11
2.67674e-08
-2.65886e-08
-1.39185e-10
-1.37208e-10
2.43921e-10
1.0818e-07
-9.27028e-11
-7.75809e-11
-1.35957e-10
-2.25728e-10
-1.36186e-10
-1.43135e-10
-2.15231e-10
-1.68434e-10
5.19069e-10
2.64692e-10
1.0918e-07
-9.94832e-11
-9.37798e-11
-1.35497e-10
-2.06187e-10
-1.37497e-10
-1.62035e-10
-2.14719e-10
1.09164e-07
3.42567e-10
-1.08871e-07
1.67868e-10
-1.28462e-10
-1.03582e-10
-5.00994e-11
-7.3334e-11
-1.63327e-10
-6.93065e-11
-1.70316e-10
-5.97809e-11
1.10174e-07
3.4037e-10
-1.09876e-07
1.81547e-10
-1.23781e-10
-1.02865e-10
-5.62079e-11
-9.30583e-11
-1.62957e-10
-7.07611e-11
-1.50972e-10
5.18124e-10
2.64852e-10
1.09176e-07
-9.95341e-11
-9.36685e-11
-1.34451e-10
-2.0615e-10
-1.37763e-10
-2.15215e-10
-1.61974e-10
3.41268e-10
-1.08857e-07
1.67884e-10
-1.2921e-10
-1.03126e-10
-5.3419e-11
-7.34929e-11
-1.63995e-10
-1.70551e-10
-6.71124e-11
-6.00341e-11
1.10168e-07
3.40493e-10
-1.09871e-07
1.81743e-10
-1.23508e-10
-1.02223e-10
-5.60905e-11
-9.26911e-11
-1.63589e-10
-7.02859e-11
-1.51136e-10
-1.16743e-10
-1.2657e-10
2.6384e-08
4.02521e-11
2.67714e-08
-2.65945e-08
-1.4693e-10
-1.29985e-10
5.13085e-10
2.36732e-10
1.09189e-07
-1.03758e-10
-7.24024e-11
-1.23175e-10
-1.68258e-10
-1.64133e-10
-1.85455e-10
-1.94274e-10
3.36663e-10
-1.09857e-07
1.64178e-10
-1.33974e-10
-9.10438e-11
-6.17695e-11
-1.25843e-10
-1.34744e-10
-1.14757e-10
-9.76065e-11
-4.04126e-11
1.10192e-07
3.36261e-10
-1.09892e-07
1.63709e-10
-1.33804e-10
-9.18308e-11
-6.2047e-11
-1.25836e-10
-1.34136e-10
-9.74344e-11
-1.14812e-10
-2.65999e-08
-1.48071e-10
-1.29102e-10
1.23481e-10
1.22099e-10
-6.33874e-11
-6.06488e-11
2.6645e-08
3.76374e-11
3.05066e-11
2.69731e-08
-2.6799e-08
-1.22658e-10
-1.19581e-10
1.6926e-10
1.11456e-07
-6.36464e-11
-4.75723e-11
-8.55817e-11
-8.33887e-11
-9.06619e-11
-1.39692e-10
-1.27015e-10
-1.23583e-10
3.09283e-10
1.68892e-10
1.11486e-07
-6.34181e-11
-4.71824e-11
-8.64178e-11
-8.34519e-11
-9.03473e-11
-1.40094e-10
-1.26835e-10
1.1223e-07
2.74965e-10
-1.11982e-07
1.51097e-10
-1.12422e-10
-7.8759e-11
-5.57449e-11
-1.25129e-10
-1.16154e-10
-7.67009e-11
-7.1205e-11
-3.73106e-11
1.1226e-07
2.75124e-10
-1.12012e-07
1.50626e-10
-1.12653e-10
-7.9517e-11
-5.55309e-11
-1.25507e-10
-1.15685e-10
-7.68952e-11
-7.06681e-11
-6.35574e-11
-6.06132e-11
2.66456e-08
3.02181e-11
2.69741e-08
-2.67993e-08
-1.21868e-10
-1.20413e-10
1.56651e-10
1.09441e-07
-4.49147e-11
-4.02657e-11
-9.98144e-11
-1.63522e-10
-6.09622e-11
-6.38575e-11
-1.57164e-10
-1.1643e-10
3.18055e-10
1.69506e-10
1.10452e-07
-5.06469e-11
-5.42545e-11
-9.87607e-11
-1.43572e-10
-6.18648e-11
-8.30738e-11
-1.56507e-10
1.10195e-07
2.83486e-10
-1.09953e-07
1.39773e-10
-1.11488e-10
-9.29342e-11
-3.64002e-11
-4.87606e-11
-1.46335e-10
-4.74772e-11
-1.51201e-10
-4.39497e-11
1.11213e-07
2.82121e-10
-1.10969e-07
1.51006e-10
-1.05387e-10
-9.18008e-11
-4.23871e-11
-6.83127e-11
-1.45533e-10
-4.85714e-11
-1.31448e-10
3.16988e-10
1.69623e-10
1.10447e-07
-5.08434e-11
-5.42408e-11
-9.82274e-11
-1.43702e-10
-6.16486e-11
-1.57384e-10
-8.27026e-11
2.82599e-10
-1.0994e-07
1.39785e-10
-1.11776e-10
-9.20934e-11
-3.65746e-11
-4.86465e-11
-1.46681e-10
-1.511e-10
-4.74702e-11
-4.39049e-11
1.11208e-07
2.81445e-10
-1.10964e-07
1.5103e-10
-1.05417e-10
-9.12375e-11
-4.23525e-11
-6.7942e-11
-1.46147e-10
-4.82953e-11
-1.31576e-10
-5.64589e-11
-6.7213e-11
2.66512e-08
2.59851e-11
2.69783e-08
-2.68052e-08
-1.30064e-10
-1.12973e-10
3.1349e-10
1.53284e-10
1.10473e-07
-5.67855e-11
-3.50488e-11
-8.76719e-11
-1.07096e-10
-8.90699e-11
-1.27584e-10
-1.16494e-10
2.77686e-10
-1.10958e-07
1.37141e-10
-1.16833e-10
-8.06537e-11
-4.8596e-11
-1.01782e-10
-1.16977e-10
-9.49131e-11
-7.55482e-11
-2.53155e-11
1.11241e-07
2.77983e-10
-1.10995e-07
1.3673e-10
-1.17283e-10
-8.0812e-11
-4.88608e-11
-1.01738e-10
-1.16471e-10
-7.56568e-11
-9.4658e-11
-2.68098e-08
-1.31214e-10
-1.12096e-10
1.10108e-10
1.09206e-10
-4.73836e-11
-4.56638e-11
2.68468e-08
3.0239e-11
2.3372e-11
2.7153e-08
-2.69812e-08
-1.1408e-10
-1.11348e-10
1.46794e-10
1.1247e-07
-5.39594e-11
-3.54165e-11
-7.71182e-11
-6.84064e-11
-7.38269e-11
-1.21972e-10
-1.13806e-10
-1.10339e-10
2.68075e-10
1.46541e-10
1.12502e-07
-5.38081e-11
-3.50947e-11
-8.15634e-11
-6.82039e-11
-7.40006e-11
-1.22609e-10
-1.10871e-10
1.13151e-07
2.5335e-10
-1.12931e-07
1.37787e-10
-1.05005e-10
-7.31865e-11
-4.95813e-11
-1.15806e-10
-1.07751e-10
-6.66979e-11
-6.29145e-11
-2.97841e-11
1.13182e-07
2.53505e-10
-1.12963e-07
1.37456e-10
-1.05044e-10
-7.39828e-11
-4.56186e-11
-1.16171e-10
-1.07405e-10
-6.95005e-11
-6.23768e-11
-4.74313e-11
-4.55038e-11
2.68472e-08
2.31261e-11
2.71542e-08
-2.69818e-08
-1.13454e-10
-1.11912e-10
1.35255e-10
1.10429e-07
-3.45375e-11
-2.8234e-11
-9.12461e-11
-1.48775e-10
-4.46456e-11
-4.57051e-11
-1.43964e-10
-1.02909e-10
2.75841e-10
1.46315e-10
1.1145e-07
-4.05033e-11
-4.15993e-11
-9.01324e-11
-1.29029e-10
-4.56798e-11
-6.53623e-11
-1.43205e-10
1.11091e-07
2.60921e-10
-1.10877e-07
1.27606e-10
-1.04359e-10
-8.74302e-11
-3.00598e-11
-3.87783e-11
-1.38014e-10
-3.73378e-11
-1.43119e-10
-3.65198e-11
1.12118e-07
2.59655e-10
-1.11902e-07
1.37667e-10
-9.7742e-11
-8.61913e-11
-3.59949e-11
-5.84305e-11
-1.37189e-10
-3.84397e-11
-1.23158e-10
2.75285e-10
1.46322e-10
1.11444e-07
-4.04989e-11
-4.15115e-11
-8.96076e-11
-1.29167e-10
-4.54181e-11
-1.43802e-10
-6.49705e-11
2.60059e-10
-1.10862e-07
1.27505e-10
-1.04812e-10
-8.6433e-11
-3.40466e-11
-3.86463e-11
-1.38237e-10
-1.43053e-10
-3.4828e-11
-3.64053e-11
1.12113e-07
2.58943e-10
-1.11897e-07
1.37695e-10
-9.77352e-11
-8.55705e-11
-3.59421e-11
-5.81105e-11
-1.37756e-10
-3.81703e-11
-1.2336e-10
-4.07676e-11
-5.15374e-11
2.68531e-08
1.87891e-11
2.71584e-08
-2.69876e-08
-1.21535e-10
-1.04571e-10
2.70798e-10
1.32945e-10
1.1148e-07
-4.71043e-11
-2.31661e-11
-7.93254e-11
-9.22494e-11
-7.28173e-11
-1.14105e-10
-9.88029e-11
2.55486e-10
-1.11899e-07
1.24952e-10
-1.09772e-10
-7.51385e-11
-4.24972e-11
-9.21111e-11
-1.08631e-10
-8.66815e-11
-6.54666e-11
-1.81197e-11
1.12155e-07
2.55964e-10
-1.11937e-07
1.24548e-10
-1.10266e-10
-7.52998e-11
-4.27053e-11
-9.21065e-11
-1.0813e-10
-6.55719e-11
-8.64425e-11
-2.69925e-08
-1.22636e-10
-1.03679e-10
1.0354e-10
1.02872e-10
-3.88579e-11
-3.7469e-11
2.70229e-08
2.50111e-11
1.87271e-11
2.73081e-08
-2.71388e-08
-1.07743e-10
-1.05306e-10
1.34826e-10
1.13364e-07
-4.82144e-11
-2.8684e-11
-7.1963e-11
-6.06963e-11
-6.44603e-11
-1.13552e-10
-1.05742e-10
-1.03732e-10
2.48904e-10
1.34688e-10
1.13397e-07
-4.79918e-11
-2.83914e-11
-7.27569e-11
-6.07251e-11
-6.4835e-11
-1.14196e-10
-1.05689e-10
1.13971e-07
2.37955e-10
-1.13775e-07
1.2827e-10
-9.98845e-11
-6.86665e-11
-4.43748e-11
-1.08761e-10
-1.00652e-10
-5.90357e-11
-5.60319e-11
-2.4628e-11
1.14004e-07
2.38457e-10
-1.13808e-07
1.28092e-10
-1.00084e-10
-6.9411e-11
-4.40791e-11
-1.08894e-10
-1.00804e-10
-5.86488e-11
-5.63554e-11
-3.91681e-11
-3.70855e-11
2.70235e-08
1.81269e-11
2.73094e-08
-2.71392e-08
-1.06975e-10
-1.05994e-10
1.24063e-10
1.11299e-07
-2.85432e-11
-2.17456e-11
-8.59909e-11
-1.4148e-10
-3.5082e-11
-3.66712e-11
-1.36283e-10
-9.62017e-11
2.56137e-10
1.34015e-10
1.12328e-07
-3.44474e-11
-3.4873e-11
-8.48129e-11
-1.21527e-10
-3.6165e-11
-5.63502e-11
-1.35383e-10
1.11887e-07
2.44395e-10
-1.11697e-07
1.18894e-10
-9.92586e-11
-8.29907e-11
-2.4748e-11
-3.09047e-11
-1.31362e-10
-2.88947e-11
-1.37085e-10
-3.13737e-11
1.12922e-07
2.43246e-10
-1.1273e-07
1.28198e-10
-9.25666e-11
-8.16844e-11
-3.05327e-11
-5.06641e-11
-1.30473e-10
-2.99389e-11
-1.17015e-10
2.55473e-10
1.33977e-10
1.12323e-07
-3.44126e-11
-3.48031e-11
-8.42975e-11
-1.21662e-10
-3.58224e-11
-1.35918e-10
-5.59957e-11
2.43233e-10
-1.11683e-07
1.18733e-10
-9.98105e-11
-8.22052e-11
-2.49885e-11
-3.07377e-11
-1.31574e-10
-1.36843e-10
-2.8766e-11
-3.12176e-11
1.12918e-07
2.42549e-10
-1.12725e-07
1.28183e-10
-9.25251e-11
-8.11357e-11
-3.06148e-11
-5.03834e-11
-1.31076e-10
-2.95743e-11
-1.17277e-10
-3.22797e-11
-4.32613e-11
2.70293e-08
1.37052e-11
2.73133e-08
-2.7145e-08
-1.15089e-10
-9.82906e-11
2.51218e-10
1.21998e-10
1.12367e-07
-4.12882e-11
-1.67357e-11
-7.4131e-11
-8.4841e-11
-6.34176e-11
-1.06301e-10
-9.01103e-11
2.39889e-10
-1.12737e-07
1.16136e-10
-1.04934e-10
-7.07336e-11
-3.73347e-11
-8.46505e-11
-1.01877e-10
-8.06539e-11
-5.71393e-11
-1.31173e-11
1.12969e-07
2.40436e-10
-1.12774e-07
1.15862e-10
-1.05512e-10
-7.09105e-11
-3.75419e-11
-8.47293e-11
-1.01445e-10
-5.7274e-11
-8.02864e-11
-2.715e-08
-1.16219e-10
-9.73815e-11
9.86425e-11
9.78984e-11
-3.21015e-11
-3.06269e-11
2.71743e-08
2.05637e-11
1.46595e-11
2.74388e-08
-2.72719e-08
-1.02291e-10
-9.98409e-11
1.25486e-10
1.14163e-07
-4.30861e-11
-2.3761e-11
-6.76838e-11
-5.45967e-11
-5.70288e-11
-1.06946e-10
-9.90582e-11
-9.8887e-11
2.34115e-10
1.25651e-10
1.14197e-07
-4.28012e-11
-2.34409e-11
-7.2033e-11
-5.48644e-11
-5.6611e-11
-1.07107e-10
-9.67352e-11
1.14705e-07
2.2457e-10
-1.14531e-07
1.20396e-10
-9.52944e-11
-6.4669e-11
-3.93631e-11
-1.01803e-10
-9.50557e-11
-5.14568e-11
-5.12701e-11
-2.02152e-11
1.14737e-07
2.2471e-10
-1.14563e-07
1.2022e-10
-9.54515e-11
-6.55362e-11
-3.54693e-11
-1.02144e-10
-9.48732e-11
-5.37878e-11
-5.09631e-11
-3.2246e-11
-3.03661e-11
2.71747e-08
1.40941e-11
2.74403e-08
-2.72723e-08
-1.01739e-10
-1.00533e-10
1.15101e-10
1.12072e-07
-2.33366e-11
-1.72824e-11
-8.17884e-11
-1.35452e-10
-2.67774e-11
-2.89767e-11
-1.29773e-10
-9.12078e-11
2.40856e-10
1.2448e-10
1.13109e-07
-2.91305e-11
-2.99327e-11
-8.04288e-11
-1.15507e-10
-2.79394e-11
-4.87775e-11
-1.28947e-10
1.12596e-07
2.29346e-10
-1.12426e-07
1.11617e-10
-9.5019e-11
-7.93373e-11
-1.99359e-11
-2.35109e-11
-1.25546e-10
-2.11379e-11
-1.31645e-10
-2.71112e-11
1.1364e-07
2.28215e-10
-1.13468e-07
1.20245e-10
-8.80104e-11
-7.78362e-11
-2.56184e-11
-4.35148e-11
-1.24713e-10
-2.21778e-11
-1.1172e-10
2.40358e-10
1.24332e-10
1.13105e-07
-2.916e-11
-2.97895e-11
-7.98413e-11
-1.15779e-10
-2.76128e-11
-1.29418e-10
-4.84422e-11
2.28486e-10
-1.12411e-07
1.11447e-10
-9.5793e-11
-7.84342e-11
-2.4033e-11
-2.33329e-11
-1.25662e-10
-1.31413e-10
-1.84827e-11
-2.70721e-11
1.13635e-07
2.28156e-10
-1.13463e-07
1.20533e-10
-8.80811e-11
-7.7482e-11
-2.57774e-11
-4.29932e-11
-1.25406e-10
-2.20376e-11
-1.11786e-10
-2.55642e-11
-3.6713e-11
2.71806e-08
9.36639e-12
2.74447e-08
-2.72787e-08
-1.0944e-10
-9.30293e-11
2.35644e-10
1.13618e-10
1.13159e-07
-3.63478e-11
-1.20089e-11
-6.99963e-11
-7.87816e-11
-5.5226e-11
-9.98149e-11
-8.27599e-11
2.26468e-10
-1.13485e-07
1.08931e-10
-1.00588e-10
-6.69659e-11
-3.25876e-11
-7.77735e-11
-9.64397e-11
-7.54348e-11
-4.96998e-11
-8.87129e-12
1.13696e-07
2.2639e-10
-1.13523e-07
1.08258e-10
-1.0126e-10
-6.69879e-11
-3.2688e-11
-7.78233e-11
-9.57307e-11
-4.97647e-11
-7.50531e-11
-2.72832e-08
-1.10762e-10
-9.20705e-11
9.41339e-11
9.37004e-11
-2.60238e-11
-2.4656e-11
2.73016e-08
1.67415e-11
1.1227e-11
2.75477e-08
-2.73828e-08
-9.79494e-11
-9.49958e-11
1.18161e-10
1.14876e-07
-3.80884e-11
-1.94701e-11
-6.35764e-11
-4.98721e-11
-4.97335e-11
-1.00082e-10
-9.3852e-11
-9.44227e-11
2.20176e-10
1.17974e-10
1.14908e-07
-3.8047e-11
-1.92155e-11
-6.4571e-11
-4.96135e-11
-4.96971e-11
-1.00497e-10
-9.3472e-11
1.15354e-07
2.12264e-10
-1.152e-07
1.13232e-10
-9.0871e-11
-6.13123e-11
-3.47083e-11
-9.49625e-11
-9.03838e-11
-4.41417e-11
-4.62619e-11
-1.63542e-11
1.15389e-07
2.12692e-10
-1.15235e-07
1.12822e-10
-9.1148e-11
-6.21907e-11
-3.45187e-11
-9.54204e-11
-9.02003e-11
-4.45846e-11
-4.59462e-11
-2.64285e-11
-2.43401e-11
2.73024e-08
1.05468e-11
2.75498e-08
-2.73841e-08
-9.68619e-11
-9.56991e-11
1.07663e-10
1.1276e-07
-1.85613e-11
-1.3233e-11
-7.81375e-11
-1.3023e-10
-1.90779e-11
-2.16122e-11
-1.23926e-10
-8.66667e-11
2.26682e-10
1.16278e-10
1.13805e-07
-2.41463e-11
-2.57219e-11
-7.65183e-11
-1.10039e-10
-2.02687e-11
-4.15327e-11
-1.23276e-10
1.13223e-07
2.15085e-10
-1.13072e-07
1.05757e-10
-9.10309e-11
-7.61647e-11
-1.54351e-11
-1.61644e-11
-1.2051e-10
-1.39387e-11
-1.26718e-10
-2.35868e-11
1.14274e-07
2.14691e-10
-1.14122e-07
1.13853e-10
-8.38387e-11
-7.47645e-11
-2.11358e-11
-3.64421e-11
-1.19514e-10
-1.49743e-11
-1.06807e-10
2.26743e-10
1.16436e-10
1.138e-07
-2.43527e-11
-2.56453e-11
-7.62275e-11
-1.1032e-10
-2.00486e-11
-1.23909e-10
-4.11302e-11
2.14293e-10
-1.13059e-07
1.054e-10
-9.15761e-11
-7.53438e-11
-1.56965e-11
-1.64015e-11
-1.20704e-10
-1.26767e-10
-1.37225e-11
-2.35983e-11
1.1427e-07
2.13957e-10
-1.14117e-07
1.14134e-10
-8.38831e-11
-7.42635e-11
-2.12039e-11
-3.59794e-11
-1.20218e-10
-1.46008e-11
-1.06977e-10
-1.92497e-11
-3.09276e-11
2.73087e-08
5.79109e-12
2.75542e-08
-2.73905e-08
-1.0465e-10
-8.84403e-11
2.21859e-10
1.06314e-10
1.13866e-07
-3.15193e-11
-7.90698e-12
-6.61656e-11
-7.3774e-11
-4.77868e-11
-9.424e-11
-7.60517e-11
2.13802e-10
-1.14149e-07
1.02481e-10
-9.66281e-11
-6.3745e-11
-2.7955e-11
-7.09782e-11
-9.1676e-11
-7.05354e-11
-4.26058e-11
-5.36286e-12
1.14343e-07
2.14074e-10
-1.14189e-07
1.02549e-10
-9.72722e-11
-6.39541e-11
-2.84109e-11
-7.09288e-11
-9.09662e-11
-4.29058e-11
-7.02008e-11
-2.73944e-08
-1.05953e-10
-8.76179e-11
8.97189e-11
8.95833e-11
-2.01657e-11
-1.88879e-11
2.74075e-08
1.38145e-11
8.52218e-12
2.76363e-08
-2.74739e-08
-9.37289e-11
-9.10334e-11
1.10648e-10
1.15506e-07
-3.35037e-11
-1.57584e-11
-6.04852e-11
-4.51022e-11
-4.23124e-11
-9.32566e-11
-8.91217e-11
-9.00825e-11
2.07814e-10
1.10969e-10
1.15542e-07
-3.3427e-11
-1.55835e-11
-6.52136e-11
-4.448e-11
-4.28019e-11
-9.34866e-11
-8.65308e-11
1.15927e-07
2.00188e-10
-1.15792e-07
1.07473e-10
-8.67222e-11
-5.90054e-11
-3.05075e-11
-8.80013e-11
-8.59358e-11
-3.73088e-11
-4.1518e-11
-1.32855e-11
1.15961e-07
2.01159e-10
-1.15828e-07
1.07664e-10
-8.69316e-11
-5.94211e-11
-2.62587e-11
-8.8769e-11
-8.56758e-11
-3.98903e-11
-4.15478e-11
-2.05958e-11
-1.86702e-11
2.74088e-08
7.78061e-12
2.76376e-08
-2.74743e-08
-9.26995e-11
-9.16121e-11
1.00483e-10
1.13366e-07
-1.39661e-11
-9.68001e-12
-7.47117e-11
-1.25257e-10
-1.18088e-11
-1.42889e-11
-1.18893e-10
-8.23293e-11
2.14075e-10
1.08425e-10
1.1442e-07
-1.95097e-11
-2.20167e-11
-7.33515e-11
-1.05208e-10
-1.28954e-11
-3.43592e-11
-1.18137e-10
1.13775e-07
2.01583e-10
-1.13642e-07
1.00912e-10
-8.72216e-11
-7.40489e-11
-1.15137e-11
-8.88006e-12
-1.16176e-10
-6.89144e-12
-1.21963e-10
-2.06073e-11
1.14834e-07
2.00654e-10
-1.147e-07
1.08018e-10
-7.95646e-11
-7.20418e-11
-1.66216e-11
-2.89503e-11
-1.15498e-10
-8.12215e-12
-1.02102e-10
2.14087e-10
1.08597e-10
1.14415e-07
-1.9553e-11
-2.1773e-11
-7.27441e-11
-1.0556e-10
-1.28555e-11
-1.18883e-10
-3.4152e-11
2.00134e-10
-1.13628e-07
1.00745e-10
-8.78393e-11
-7.29441e-11
-1.53922e-11
-8.91952e-12
-1.16023e-10
-1.21935e-10
-4.1846e-12
-2.05932e-11
1.14827e-07
2.00461e-10
-1.14693e-07
1.08828e-10
-7.97017e-11
-7.17279e-11
-1.69569e-11
-2.87624e-11
-1.15817e-10
-7.84012e-12
-1.02178e-10
-1.32943e-11
-2.55585e-11
2.74154e-08
2.78836e-12
2.76435e-08
-2.74823e-08
-1.00407e-10
-8.42348e-11
2.08645e-10
1.00389e-10
1.14493e-07
-2.72692e-11
-4.33304e-12
-6.31512e-11
-6.89359e-11
-4.08634e-11
-8.94587e-11
-6.92322e-11
2.01247e-10
-1.14738e-07
9.66496e-11
-9.25176e-11
-6.12165e-11
-2.36927e-11
-6.3943e-11
-8.67778e-11
-6.58105e-11
-3.53825e-11
-2.22134e-12
1.14912e-07
2.02025e-10
-1.14778e-07
9.66926e-11
-9.32517e-11
-6.12544e-11
-2.40285e-11
-6.38004e-11
-8.65882e-11
-3.60846e-11
-6.54827e-11
-2.74862e-08
-1.0158e-10
-8.34939e-11
8.56843e-11
8.552e-11
-1.44558e-11
-1.34842e-11
2.74931e-08
1.05646e-11
5.86425e-12
2.76991e-08
-2.75402e-08
-8.8998e-11
-8.63229e-11
1.04762e-10
1.1606e-07
-2.93082e-11
-1.30387e-11
-5.81858e-11
-3.97956e-11
-3.51984e-11
-8.59007e-11
-8.44017e-11
-8.57538e-11
1.94902e-10
1.04813e-10
1.16094e-07
-2.89927e-11
-1.23361e-11
-5.86063e-11
-3.98587e-11
-3.59076e-11
-8.6718e-11
-8.43024e-11
1.16421e-07
1.85436e-10
-1.16309e-07
1.02321e-10
-8.18787e-11
-5.6071e-11
-2.55068e-11
-7.98945e-11
-8.08256e-11
-2.95877e-11
-3.58992e-11
-1.05095e-11
1.16456e-07
1.84665e-10
-1.16342e-07
1.01605e-10
-8.2438e-11
-5.69116e-11
-2.56234e-11
-7.9884e-11
-7.9851e-11
-2.95408e-11
-3.51543e-11
-1.50893e-11
-1.30782e-11
2.74939e-08
5.1556e-12
2.77017e-08
-2.75424e-08
-8.80019e-11
-8.70049e-11
9.53666e-11
1.13898e-07
-9.92324e-12
-6.70195e-12
-7.23714e-11
-1.2046e-10
-5.02559e-12
-6.76328e-12
-1.14791e-10
-7.78927e-11
2.02292e-10
1.01777e-10
1.1496e-07
-1.49116e-11
-1.88799e-11
-7.05058e-11
-1.00446e-10
-5.99458e-12
-2.69142e-11
-1.13696e-10
1.14241e-07
1.84684e-10
-1.1413e-07
9.76494e-11
-8.28482e-11
-7.1739e-11
-7.10883e-12
-1.48724e-13
-1.10635e-10
1.19562e-12
-1.16059e-10
-1.77357e-11
1.1531e-07
1.8349e-10
-1.15196e-07
1.03308e-10
-7.49196e-11
-6.97658e-11
-1.22327e-11
-2.01533e-11
-1.09596e-10
5.09011e-13
-9.60989e-11
2.01254e-10
1.01654e-10
1.14953e-07
-1.51464e-11
-1.86364e-11
-6.98755e-11
-1.00488e-10
-5.74123e-12
-1.14014e-10
-2.65716e-11
1.84063e-10
-1.14121e-07
9.703e-11
-8.33551e-11
-7.07805e-11
-7.49115e-12
-3.57528e-14
-1.10731e-10
-1.15882e-10
1.34576e-12
-1.76394e-11
1.15305e-07
1.836e-10
-1.15192e-07
1.03733e-10
-7.49629e-11
-6.92232e-11
-1.24415e-11
-2.01055e-11
-1.10231e-10
4.74999e-13
-9.62083e-11
-7.63133e-12
-1.99491e-11
2.75017e-08
-4.90985e-14
2.77066e-08
-2.7549e-08
-9.58449e-11
-7.94136e-11
1.95965e-10
9.49667e-11
1.15043e-07
-2.30554e-11
-1.38739e-12
-6.06299e-11
-6.39469e-11
-3.40297e-11
-8.51647e-11
-6.195e-11
1.86284e-10
-1.15247e-07
9.25545e-11
-8.81476e-11
-5.85876e-11
-1.92763e-11
-5.55374e-11
-8.13853e-11
-6.01371e-11
-2.76035e-11
6.89822e-13
1.15398e-07
1.86296e-10
-1.15287e-07
9.24504e-11
-8.89012e-11
-5.85663e-11
-1.95691e-11
-5.55251e-11
-8.05745e-11
-2.75316e-11
-5.97286e-11
-2.75538e-08
-9.66808e-11
-7.85706e-11
8.01806e-11
8.06542e-11
-7.69126e-12
-6.51287e-12
2.75525e-08
6.30514e-12
1.80152e-12
2.77287e-08
-2.75748e-08
-8.21774e-11
-7.9801e-11
9.97254e-11
1.1653e-07
-2.41445e-11
-9.36373e-12
-5.50419e-11
-3.35153e-11
-2.6863e-11
-7.70255e-11
-7.8668e-11
-8.09055e-11
1.76014e-10
9.87668e-11
1.16568e-07
-2.42613e-11
-9.22614e-12
-5.93934e-11
-3.28911e-11
-2.70044e-11
-7.7255e-11
-7.56377e-11
1.16798e-07
1.63939e-10
-1.16718e-07
9.48104e-11
-7.53248e-11
-5.20236e-11
-1.93606e-11
-6.7977e-11
-7.24923e-11
-1.84011e-11
-2.68448e-11
-5.68696e-12
1.1684e-07
1.65104e-10
-1.16761e-07
9.55336e-11
-7.57997e-11
-5.2582e-11
-1.57104e-11
-6.86023e-11
-7.24009e-11
-2.14921e-11
-2.72128e-11
-8.28828e-12
-6.35232e-12
2.75542e-08
1.10969e-12
2.77307e-08
-2.75762e-08
-8.11632e-11
-8.00591e-11
8.87468e-11
1.1434e-07
-5.19361e-12
-3.47232e-12
-6.9439e-11
-1.13129e-10
4.27768e-12
3.24894e-12
-1.07865e-10
-7.26806e-11
1.84733e-10
9.50025e-11
1.1541e-07
-1.03476e-11
-1.52662e-11
-6.76378e-11
-9.31439e-11
3.07768e-12
-1.70302e-11
-1.07298e-10
1.14608e-07
1.5885e-10
-1.14523e-07
9.01759e-11
-7.66561e-11
-6.78871e-11
-1.29793e-12
1.18321e-11
-1.02607e-10
1.20477e-11
-1.07435e-10
-1.34808e-11
1.15681e-07
1.5929e-10
-1.15595e-07
9.65372e-11
-6.84958e-11
-6.56146e-11
-6.19864e-12
-8.60003e-12
-1.01859e-10
1.07983e-11
-8.77279e-11
1.84883e-10
9.51971e-11
1.15405e-07
-1.03165e-11
-1.50211e-11
-6.67612e-11
-9.34097e-11
3.12246e-12
-1.07843e-10
-1.68002e-11
1.58922e-10
-1.1451e-07
9.10215e-11
-7.77747e-11
-6.70751e-11
-5.76068e-12
1.16684e-11
-1.02719e-10
-1.0727e-10
1.42998e-11
-1.31965e-11