/*--------------------------------*- C++ -*----------------------------------*\
| =========                 |                                                 |
| \\      /  F ield         | OpenFOAM: The Open Source CFD Toolbox           |
|  \\    /   O peration     | Version:  2206                                  |
|   \\  /    A nd           | Website:  www.openfoam.com                      |
|    \\/     M anipulation  |                                                 |
\*---------------------------------------------------------------------------*/
FoamFile
{
    version     2.0;
    format      ascii;
    arch        "LSB;label=32;scalar=64";
    class       volVectorField;
    location    "110";
    object      U;
}
// * * * * * * * * * * * * * * * * * * * * * * * * * * * * * * * * * * * * * //

dimensions      [0 1 -1 0 0 0 0];

internalField   nonuniform List<vector> 
66616
(
(0.000445292 0.000443385 0.12738)
(-0.000745786 0.000398484 0.122909)
(0.000398491 -0.000746147 0.122908)
(-0.00101322 -0.001022 0.120484)
(0.000369714 0.000359773 0.13069)
(-0.000633923 0.000349981 0.126771)
(0.000350562 -0.000631742 0.126921)
(-0.000831487 -0.000840615 0.124377)
(0.000240126 0.000233451 0.132368)
(-0.000411428 0.000241334 0.128328)
(0.000242439 -0.000410245 0.12849)
(-0.000602851 -0.000607828 0.1257)
(0.00020929 0.000203049 0.133674)
(-0.000355281 0.000210384 0.129512)
(0.000212089 -0.000352846 0.129683)
(-0.000536886 -0.000538829 0.126667)
(0.000195638 0.000189813 0.134862)
(-0.00032797 0.000193655 0.130552)
(0.000195974 -0.000325628 0.130733)
(-0.000504578 -0.000505807 0.127512)
(0.000185364 0.000179142 0.135971)
(-0.000306203 0.000180387 0.131479)
(0.000183368 -0.000304232 0.131669)
(-0.000480977 -0.000481661 0.128237)
(0.000176618 0.000169855 0.13701)
(-0.000286664 0.000168102 0.132308)
(0.000172101 -0.000285799 0.132504)
(-0.00045907 -0.000459996 0.12885)
(0.000168334 0.000160585 0.137984)
(-0.000268976 0.000157568 0.133047)
(0.000162128 -0.000268508 0.133246)
(-0.000437787 -0.000438483 0.12936)
(0.000161393 0.000150892 0.13889)
(-0.00024936 0.000145687 0.133705)
(0.000153229 -0.000249654 0.1339)
(-0.000416006 -0.000417775 0.129777)
(0.000149433 0.000136891 0.139718)
(-0.00022675 0.000136284 0.134275)
(0.000144202 -0.000228426 0.134456)
(-0.000388195 -0.000390833 0.130065)
(0.000133368 0.000117435 0.140441)
(-0.000195085 0.000122495 0.134733)
(0.000131106 -0.000198938 0.134883)
(-0.000352604 -0.000356395 0.130186)
(0.000115116 0.000102695 0.141052)
(-0.000168782 0.00010576 0.135093)
(0.000111998 -0.000171547 0.135177)
(-0.000312434 -0.000320737 0.130176)
(0.000175355 0.000177094 0.119979)
(0.000430061 0.000392759 0.122907)
(-0.000430824 0.000392962 0.122905)
(-0.000175247 0.000177384 0.119979)
(0.000395614 0.00043383 0.122881)
(0.00039265 -0.000431166 0.122905)
(0.000279341 0.000280307 0.126615)
(-0.000279341 0.000280516 0.126613)
(0.000280566 -0.000280199 0.126612)
(-0.000280456 -0.000280433 0.126612)
(-0.000395395 0.000434319 0.12288)
(-0.000392326 -0.000431345 0.122904)
(0.000176855 -0.000175938 0.119976)
(0.00043441 -0.000396088 0.122875)
(-0.000434733 -0.000396284 0.122873)
(-0.00017645 -0.000176213 0.11997)
(0.00102196 0.00101421 0.120493)
(0.000370857 0.000361643 0.124053)
(0.000404936 0.000748133 0.122894)
(-0.000404461 0.000748463 0.122892)
(0.00040611 0.000738358 0.126337)
(-0.000405018 0.000738372 0.126337)
(-0.00102207 0.00101318 0.120489)
(-0.000371377 0.000360569 0.124052)
(0.000746083 0.00039793 0.122909)
(0.000748136 -0.000404597 0.122887)
(0.000741848 0.000398068 0.126185)
(0.000741209 -0.000404059 0.126185)
(-0.000747764 -0.000405095 0.122886)
(-0.000741296 0.000398977 0.126184)
(-0.000740717 -0.000404805 0.126182)
(0.00101315 -0.00102275 0.120487)
(0.000363308 -0.00036844 0.124048)
(-0.000398186 -0.000746361 0.122906)
(0.000399335 -0.000739285 0.126331)
(-0.000398235 -0.000739368 0.12633)
(-0.00036354 -0.000367266 0.124044)
(0.000839096 0.000834675 0.124385)
(0.000190433 0.000185455 0.125487)
(0.000356603 0.000630249 0.126926)
(-0.000355671 0.000630526 0.126926)
(0.00026178 0.000438505 0.128154)
(-0.000261448 0.000438771 0.128154)
(-0.000838764 0.000834048 0.124383)
(-0.000189667 0.000186031 0.125487)
(0.00063412 0.000349156 0.126772)
(0.000633526 -0.000354295 0.126772)
(0.000441518 0.000256919 0.12799)
(0.000440484 -0.000260267 0.127988)
(-0.000633118 -0.000354973 0.126769)
(-0.00044082 0.000257259 0.127988)
(-0.000439874 -0.000260539 0.127984)
(0.000832278 -0.000840716 0.12438)
(0.000187702 -0.000188242 0.125483)
(-0.000349858 -0.000631902 0.12692)
(0.000257647 -0.000440015 0.128151)
(-0.00025693 -0.000440234 0.128151)
(-0.000187061 -0.000188223 0.12548)
(0.00060714 0.000604248 0.125706)
(0.000121465 0.000116156 0.126464)
(0.000246292 0.000408734 0.128491)
(-0.000245828 0.000409276 0.128492)
(0.00022107 0.000361759 0.129397)
(-0.000220517 0.000362172 0.129398)
(-0.000605688 0.000605015 0.125705)
(-0.000121566 0.000116121 0.126466)
(0.000412048 0.000241129 0.12833)
(0.000411332 -0.000244186 0.128328)
(0.000365733 0.000217162 0.129223)
(0.000364816 -0.000219341 0.12922)
(-0.000410639 -0.000244418 0.128325)
(-0.000364841 0.000217387 0.129219)
(-0.000364006 -0.000219594 0.129216)
(0.000604197 -0.00060711 0.125702)
(0.000119795 -0.000118042 0.12646)
(-0.000241923 -0.000410708 0.12849)
(0.000217885 -0.000362726 0.129397)
(-0.000217287 -0.0003631 0.129398)
(-0.000119512 -0.00011783 0.126458)
(0.000540179 0.000536457 0.126672)
(8.76972e-05 8.20678e-05 0.127311)
(0.000215015 0.000351983 0.129682)
(-0.000214519 0.000352597 0.129685)
(0.000202656 0.000331702 0.130473)
(-0.000202342 0.000332259 0.130476)
(-0.000539557 0.000536459 0.126672)
(-8.69783e-05 8.22388e-05 0.127313)
(0.000356054 0.000210065 0.129515)
(0.000355332 -0.000212223 0.129513)
(0.000335642 0.000199634 0.130286)
(0.000334882 -0.000201328 0.130284)
(-0.000354616 -0.000212474 0.12951)
(-0.000334701 0.000199587 0.130283)
(-0.000333848 -0.000201387 0.13028)
(0.000537622 -0.000538347 0.126669)
(8.55582e-05 -8.36793e-05 0.127307)
(-0.00021156 -0.000353455 0.129685)
(0.000200144 -0.000332149 0.130475)
(-0.000199358 -0.00033256 0.130477)
(-8.54266e-05 -8.3124e-05 0.127306)
(0.000507708 0.000503672 0.127515)
(6.39988e-05 5.8888e-05 0.128039)
(0.000198563 0.000325318 0.13073)
(-0.000198235 0.000326125 0.130734)
(0.000189368 0.000310421 0.131434)
(-0.000189031 0.000311246 0.131437)
(-0.000506701 0.000504315 0.127516)
(-6.37524e-05 5.86144e-05 0.128043)
(0.000328882 0.000193715 0.130555)
(0.000328379 -0.000195435 0.130553)
(0.000313826 0.000186895 0.131229)
(0.000312836 -0.00018833 0.131228)
(-0.000327342 -0.000195437 0.130551)
(-0.000312452 0.000187046 0.131225)
(-0.000312201 -0.00018842 0.131225)
(0.000505245 -0.000505578 0.127513)
(6.1905e-05 -6.01978e-05 0.128037)
(-0.00019541 -0.000326121 0.130735)
(0.000186939 -0.000310459 0.131436)
(-0.000186802 -0.000311459 0.131437)
(-6.2023e-05 -5.93685e-05 0.128035)
(0.000483522 0.000479652 0.12824)
(4.38844e-05 3.98023e-05 0.128655)
(0.000185748 0.000304331 0.131667)
(-0.000185389 0.000305193 0.131671)
(0.000177901 0.000292004 0.132292)
(-0.000177993 0.000292868 0.132293)
(-0.000482959 0.00047993 0.128241)
(-4.39974e-05 4.00619e-05 0.128658)
(0.000307453 0.000180359 0.131482)
(0.000307086 -0.000181854 0.131482)
(0.000294141 0.000176238 0.132065)
(0.000293321 -0.000177378 0.132066)
(-0.000306142 -0.000181672 0.13148)
(-0.000292972 0.000176158 0.132061)
(-0.000293333 -0.000177878 0.132061)
(0.000481396 -0.00048154 0.128238)
(4.17309e-05 -4.08979e-05 0.128655)
(-0.000183202 -0.000305071 0.13167)
(0.000175781 -0.000292184 0.132293)
(-0.000174857 -0.000291506 0.132294)
(-4.27229e-05 -4.03581e-05 0.12865)
(0.000461124 0.00045838 0.128852)
(2.70207e-05 2.41271e-05 0.129168)
(0.0001747 0.000286163 0.132503)
(-0.000174637 0.000287236 0.132507)
(0.000167423 0.00027534 0.133052)
(-0.000166818 0.000276047 0.133055)
(-0.000460781 0.000458762 0.128855)
(-2.69631e-05 2.31798e-05 0.129174)
(0.000287632 0.000168416 0.132311)
(0.000287142 -0.000169667 0.132313)
(0.000275802 0.000166923 0.132799)
(0.000276061 -0.000168106 0.132803)
(-0.000286639 -0.000169985 0.132311)
(-0.000275889 0.000167264 0.132796)
(-0.000275763 -0.000168968 0.132798)
(0.00045889 -0.000459829 0.128854)
(2.53141e-05 -2.51006e-05 0.129171)
(-0.000171725 -0.000285772 0.132508)
(0.00016573 -0.000275392 0.133052)
(-0.000165483 -0.000274962 0.133056)
(-2.67779e-05 -2.46854e-05 0.129163)
(0.000439281 0.000437681 0.129362)
(1.44226e-05 1.08547e-05 0.129588)
(0.000163814 0.000269462 0.133243)
(-0.00016398 0.000269612 0.133251)
(0.000158923 0.000257747 0.133721)
(-0.000158657 0.000259847 0.133723)
(-0.000439184 0.000437283 0.129367)
(-1.37174e-05 1.05742e-05 0.129589)
(0.00026852 0.000156568 0.133048)
(0.000269082 -0.000158083 0.133054)
(0.000259598 0.000160589 0.133439)
(0.000259446 -0.000160861 0.133446)
(-0.000269079 -0.000158191 0.133052)
(-0.000256964 0.000159342 0.133434)
(-0.000258541 -0.000161243 0.133437)
(0.000436722 -0.000439035 0.129366)
(1.27757e-05 -1.15878e-05 0.129594)
(-0.00016205 -0.000268283 0.133251)
(0.000156125 -0.000257286 0.133725)
(-0.000156518 -0.000258258 0.133728)
(-1.26934e-05 -1.13257e-05 0.129586)
(0.000418229 0.000415882 0.129774)
(1.04712e-07 -1.56891e-06 0.129895)
(0.000155442 0.000250016 0.133895)
(-0.000154586 0.000252343 0.133902)
(0.000150797 0.000239373 0.134304)
(-0.000150912 0.000238558 0.134304)
(-0.000416994 0.000416211 0.129777)
(-1.4514e-06 -2.23982e-06 0.129901)
(0.000251861 0.000147601 0.133706)
(0.000251716 -0.000147631 0.133715)
(0.00023915 0.000154807 0.13397)
(0.000238057 -0.000154131 0.133982)
(-0.000250411 -0.000147099 0.133711)
(-0.000238196 0.000154193 0.133971)
(-0.000238399 -0.000154869 0.133975)
(0.000416104 -0.000417247 0.129781)
(-7.08553e-08 1.79186e-06 0.129902)
(-0.000153324 -0.000251381 0.133905)
(0.000148748 -0.000237966 0.134304)
(-0.00014883 -0.000237721 0.134306)
(6.3137e-07 2.58889e-06 0.129895)
(0.000389031 0.000390325 0.130057)
(-1.96959e-05 -2.20088e-05 0.130061)
(0.000147212 0.000230735 0.134455)
(-0.00014662 0.000229406 0.134464)
(0.000140701 0.000210392 0.134756)
(-0.000142087 0.000212717 0.134764)
(-0.000390588 0.000390355 0.130067)
(2.14429e-05 -2.28417e-05 0.130058)
(0.000227688 0.000136631 0.134271)
(0.000227749 -0.000136978 0.134286)
(0.000208024 0.000144866 0.134372)
(0.00021018 -0.000145575 0.134387)
(-0.000227266 -0.000137007 0.134286)
(-0.000208108 0.000145533 0.13437)
(-0.000210642 -0.000146312 0.134376)
(0.000389101 -0.000390419 0.130065)
(-2.18614e-05 2.21853e-05 0.130071)
(-0.0001443 -0.000228741 0.134461)
(0.000138989 -0.000210016 0.134765)
(-0.000137914 -0.000209242 0.134763)
(2.23957e-05 2.41243e-05 0.130058)
(0.000352091 0.000354463 0.130167)
(-4.46803e-05 -4.57379e-05 0.130154)
(0.000133633 0.000199942 0.134873)
(-0.000133942 0.000200032 0.13489)
(0.000122309 0.000183136 0.13508)
(-0.000120509 0.000181323 0.135085)
(-0.000352197 0.000355622 0.130182)
(4.78324e-05 -4.72594e-05 0.130126)
(0.000195283 0.000120896 0.134734)
(0.00019738 -0.000121206 0.134747)
(0.000177376 0.000125759 0.13462)
(0.000179311 -0.000126246 0.134635)
(-0.000197447 -0.000123349 0.134747)
(-0.00017682 0.000126034 0.134615)
(-0.000178206 -0.000126515 0.134625)
(0.000350265 -0.000354667 0.130177)
(-4.60198e-05 4.57327e-05 0.130174)
(-0.000131201 -0.000198152 0.134886)
(0.000120241 -0.000179596 0.135092)
(-0.000120607 -0.000181044 0.135092)
(4.86617e-05 4.7167e-05 0.130135)
(0.000309391 0.000315303 0.13014)
(0.000113486 0.000174255 0.135163)
(-0.000112417 0.000173235 0.135184)
(-0.000310911 0.000318833 0.130167)
(0.000170137 0.000105706 0.1351)
(0.000171075 -0.000105743 0.135112)
(-0.000169521 -0.000105391 0.135115)
(0.000309311 -0.000317132 0.130158)
(-0.000111021 -0.000173159 0.135182)
(1.19516e-05 1.18593e-05 0.130951)
(0.000194632 0.000194952 0.124467)
(1.3066e-05 0.000180859 0.127905)
(0.000182076 1.35264e-05 0.1279)
(-0.000440588 2.68635e-05 0.111083)
(-0.000183861 0.00021776 0.122302)
(-0.000366028 0.000275392 0.0869876)
(-0.000196906 1.24236e-05 0.126324)
(2.63093e-05 -0.000439855 0.111085)
(0.000217578 -0.000184256 0.122297)
(1.22355e-05 -0.000196349 0.126319)
(0.000274797 -0.000366808 0.086989)
(-0.000179804 -0.000177075 0.119083)
(-0.000258416 -0.000426219 0.0777682)
(-0.000425024 -0.000258157 0.0777763)
(6.5186e-05 0.0013959 0.106411)
(0.000967468 -0.000513617 0.0707085)
(0.000134406 0.00110241 0.103207)
(-2.65357e-05 0.000725639 0.0824321)
(-0.000398115 -6.72351e-05 0.0690471)
(0.000509575 0.000782696 0.0732524)
(0.00139734 6.68673e-05 0.106274)
(-0.000521067 0.000968975 0.0708013)
(0.00109906 0.000129919 0.103319)
(0.000726288 -2.28564e-05 0.0823587)
(-0.000445269 0.000443321 0.127379)
(0.000443727 -0.000444206 0.127378)
(-0.000443762 -0.000444311 0.127379)
(0.000433042 0.000423695 0.13009)
(-0.000432363 0.000423605 0.130087)
(0.000425504 -0.000430873 0.130085)
(-0.000425115 -0.00043105 0.130086)
(-0.00136978 5.55092e-05 0.116984)
(-0.00103092 0.000628301 0.102123)
(-0.000731982 0.000149573 0.125289)
(-0.000837057 0.000425415 0.124252)
(-0.00121331 0.000118848 0.114091)
(-0.00133977 0.000235556 0.107576)
(-0.000830314 0.000192136 0.126499)
(-7.15449e-05 -0.000399316 0.0691115)
(0.000783019 0.000506268 0.0732267)
(5.49352e-05 -0.00136641 0.117048)
(0.000149213 -0.000730667 0.125279)
(0.000630868 -0.00103506 0.102058)
(0.000424478 -0.000836578 0.124243)
(0.000121155 -0.00121735 0.114014)
(0.00019249 -0.000830631 0.126505)
(0.000231346 -0.001339 0.107651)
(-0.000682517 -0.000572261 0.0909135)
(-0.000573324 -0.000684631 0.0909024)
(-0.000334435 -0.00034233 0.122361)
(-0.000952645 -3.80885e-05 0.0943948)
(-3.2018e-05 -0.000958198 0.0944237)
(-9.29297e-06 0.000662621 0.107153)
(0.000137826 0.000500113 0.0822484)
(-5.09281e-06 0.00106141 0.10761)
(0.000111997 0.000230113 0.0814933)
(-6.03385e-05 0.000463654 0.071214)
(-8.78173e-05 0.000205232 0.0703151)
(0.000661427 -8.50182e-06 0.106299)
(0.00049716 0.00012604 0.0820449)
(0.00105916 -6.81961e-06 0.107295)
(0.000227095 0.000114161 0.081094)
(-0.00036938 0.000359848 0.130688)
(0.000363766 -0.000365699 0.130686)
(-0.000363438 -0.000365772 0.130687)
(0.000256304 0.000250287 0.131999)
(-0.000255673 0.000250422 0.131996)
(0.000252213 -0.000253439 0.131995)
(-0.000251729 -0.000253592 0.131996)
(-0.00064732 6.44333e-06 0.118933)
(-0.000883357 0.000256974 0.108343)
(-0.000614313 0.000132525 0.128923)
(-0.000547188 0.00030956 0.12723)
(-0.000994426 1.12068e-05 0.119117)
(-0.000546049 0.000131731 0.107599)
(-0.000527733 0.0001126 0.129391)
(0.000460908 -5.13784e-05 0.0711402)
(0.000203478 -9.10688e-05 0.0701329)
(6.42916e-06 -0.000646226 0.119614)
(0.000132647 -0.000607433 0.129182)
(0.000262036 -0.000882932 0.108632)
(0.000310071 -0.000545969 0.127386)
(1.37652e-05 -0.000990957 0.119394)
(0.000113887 -0.000523008 0.129656)
(0.000125306 -0.00055201 0.108148)
(-0.000639987 -0.000249924 0.095441)
(-0.000257045 -0.000638996 0.0956202)
(-0.000259834 -0.000262727 0.124884)
(-0.000390299 -0.000165617 0.0947383)
(-0.000159482 -0.000395024 0.0950721)
(2.50832e-06 0.000403533 0.105822)
(0.00011371 0.000208827 0.080222)
(-6.77589e-07 0.000586563 0.106393)
(8.30253e-05 9.84109e-05 0.0795877)
(-0.000111639 0.000119078 0.0690814)
(-8.15316e-05 6.93299e-05 0.068494)
(0.000404901 2.94042e-06 0.104858)
(0.000204689 0.000105304 0.0799833)
(0.000577648 -3.0277e-06 0.105868)
(0.000100087 8.62327e-05 0.0791545)
(-0.000239769 0.000233663 0.132366)
(0.000236427 -0.000236487 0.132365)
(-0.000236036 -0.000236526 0.132366)
(0.000213175 0.000208518 0.133351)
(-0.000212476 0.000208477 0.133349)
(0.000209895 -0.000210665 0.133349)
(-0.000209316 -0.00021075 0.133349)
(-0.0004462 1.21556e-05 0.119145)
(-0.000468256 0.000178204 0.107253)
(-0.000395315 8.16799e-05 0.130537)
(-0.000391452 0.000231855 0.128632)
(-0.00060821 6.85933e-06 0.119568)
(-0.000334724 0.000113649 0.106509)
(-0.000377827 7.69372e-05 0.130852)
(0.000118139 -0.000104171 0.0689984)
(7.19873e-05 -8.37773e-05 0.0682931)
(1.16261e-05 -0.000442593 0.119922)
(8.353e-05 -0.000390726 0.130799)
(0.000185981 -0.000469041 0.107573)
(0.000232366 -0.00038995 0.128803)
(8.91797e-06 -0.00060461 0.119934)
(7.86665e-05 -0.000372761 0.131126)
(0.000108183 -0.000337589 0.107108)
(-0.000284355 -0.000195128 0.0940874)
(-0.000204687 -0.000282599 0.0942899)
(-0.000145942 -0.000145394 0.125989)
(-0.000217968 -0.000138441 0.0932431)
(-0.000134286 -0.000218452 0.0936077)
(8.07362e-06 0.000306138 0.104587)
(8.39127e-05 0.000165667 0.0785667)
(7.56585e-06 0.000457978 0.105131)
(5.74756e-05 7.60219e-05 0.0780424)
(-9.25569e-05 8.89086e-05 0.0675658)
(-6.39365e-05 5.57926e-05 0.0670719)
(0.00030897 8.73757e-06 0.103535)
(0.000164454 7.45282e-05 0.0783015)
(0.000450117 5.21789e-06 0.104538)
(7.97517e-05 6.09274e-05 0.0775789)
(-0.00020892 0.000203137 0.133672)
(0.00020624 -0.000205355 0.133672)
(-0.000205817 -0.000205351 0.133673)
(0.000196781 0.000193417 0.134559)
(-0.000196043 0.000193433 0.134557)
(0.000193849 -0.000195173 0.134558)
(-0.000193289 -0.000195467 0.134558)
(-0.000380367 1.59266e-05 0.119164)
(-0.000369475 0.000174646 0.106245)
(-0.000348167 6.84609e-05 0.131791)
(-0.000348222 0.000207376 0.129767)
(-0.000518982 1.29806e-05 0.119707)
(-0.000266193 0.000108658 0.105494)
(-0.000342842 6.63633e-05 0.13206)
(9.00624e-05 -8.3039e-05 0.0674636)
(6.05916e-05 -6.5322e-05 0.0668501)
(1.51369e-05 -0.00037653 0.120032)
(6.99211e-05 -0.000342264 0.132057)
(0.000185099 -0.000369083 0.106594)
(0.000208182 -0.00034577 0.129951)
(1.48525e-05 -0.000514475 0.120118)
(6.80353e-05 -0.000337927 0.132344)
(0.00010491 -0.000267248 0.106137)
(-0.000217034 -0.000170251 0.0925552)
(-0.000182688 -0.000212373 0.0927765)
(-0.000100966 -9.87568e-05 0.126896)
(-0.000174544 -0.00011522 0.0917046)
(-0.00011236 -0.000173296 0.0920933)
(9.21824e-06 0.000244208 0.103442)
(6.4189e-05 0.000151084 0.0771884)
(9.97488e-06 0.000385855 0.103962)
(4.08047e-05 6.53618e-05 0.0767284)
(-7.49107e-05 8.23077e-05 0.0662877)
(-4.69561e-05 5.20188e-05 0.0658532)
(0.000247537 1.06643e-05 0.102325)
(0.000149368 5.48694e-05 0.0769006)
(0.00037674 7.80597e-06 0.103318)
(6.92708e-05 4.51036e-05 0.0762418)
(-0.000195202 0.000189847 0.134861)
(0.00019294 -0.000191809 0.134861)
(-0.000192534 -0.000191932 0.134862)
(0.000185013 0.000182819 0.135681)
(-0.000184277 0.000183004 0.135679)
(0.000182518 -0.00018455 0.135681)
(-0.000181933 -0.000184679 0.13568)
(-0.000332604 1.64182e-05 0.11905)
(-0.000317662 0.000161446 0.105285)
(-0.00032607 6.14826e-05 0.132923)
(-0.000323325 0.000192979 0.130767)
(-0.000465054 1.45711e-05 0.11969)
(-0.000223869 9.5406e-05 0.104526)
(-0.00032358 6.02166e-05 0.133157)
(8.3303e-05 -6.57805e-05 0.0661644)
(5.49325e-05 -5.04087e-05 0.065609)
(1.54431e-05 -0.000330638 0.120003)
(6.25125e-05 -0.000321288 0.133192)
(0.000173731 -0.000317004 0.105661)
(0.000193165 -0.000321043 0.130969)
(1.65053e-05 -0.000463119 0.12015)
(6.12606e-05 -0.000318807 0.133454)
(9.20873e-05 -0.000224698 0.105205)
(-0.000186118 -0.000144428 0.0910947)
(-0.00015787 -0.000182373 0.0913304)
(-7.31115e-05 -7.07105e-05 0.127685)
(-0.000149016 -9.26382e-05 0.090277)
(-8.96562e-05 -0.000149242 0.0906815)
(8.96926e-06 0.000199792 0.102384)
(4.9672e-05 0.000138388 0.0759898)
(1.05826e-05 0.000333327 0.102879)
(2.98032e-05 5.61814e-05 0.0755711)
(-6.03097e-05 7.61853e-05 0.0651737)
(-3.54227e-05 4.60078e-05 0.0647804)
(0.000203501 1.04315e-05 0.101222)
(0.000135812 4.19775e-05 0.0756864)
(0.000323349 7.72821e-06 0.102195)
(5.96447e-05 3.47569e-05 0.0750707)
(-0.000185013 0.000179632 0.135971)
(0.000183044 -0.000181048 0.135971)
(-0.000182894 -0.000181101 0.135972)
(0.000174121 0.000173534 0.13673)
(-0.000173517 0.000173364 0.136728)
(0.000171638 -0.000175109 0.136731)
(-0.000171368 -0.000175406 0.136729)
(-0.000293709 1.63799e-05 0.118836)
(-0.000278557 0.000144855 0.104368)
(-0.000309597 5.64628e-05 0.133969)
(-0.000303265 0.000181626 0.131656)
(-0.000420472 1.4686e-05 0.119553)
(-0.000193069 8.07418e-05 0.103605)
(-0.000308455 5.56983e-05 0.134163)
(7.59881e-05 -5.22648e-05 0.0650366)
(4.92436e-05 -3.90877e-05 0.0645272)
(1.53621e-05 -0.000291563 0.11987)
(5.73222e-05 -0.000305357 0.134241)
(0.000157546 -0.000279149 0.104767)
(0.000181211 -0.000301115 0.131876)
(1.68302e-05 -0.000419823 0.120062)
(5.63647e-05 -0.000303852 0.134479)
(7.6962e-05 -0.000193176 0.104314)
(-0.000162864 -0.000122418 0.0897692)
(-0.000134464 -0.000160301 0.0900158)
(-5.22104e-05 -4.99434e-05 0.128356)
(-0.000129722 -7.41251e-05 0.0889912)
(-6.95395e-05 -0.000130345 0.0894092)
(8.61384e-06 0.000164338 0.101418)
(4.14533e-05 0.000127227 0.0749188)
(1.03266e-05 0.000291395 0.101888)
(2.26685e-05 4.78553e-05 0.0745427)
(-5.05872e-05 6.9407e-05 0.0641907)
(-2.8129e-05 4.23717e-05 0.0638344)
(0.000168568 1.00175e-05 0.100224)
(0.000122984 3.46527e-05 0.0746058)
(0.000281593 7.49444e-06 0.101176)
(5.02519e-05 2.99423e-05 0.0740301)
(-0.000175868 0.000169171 0.137011)
(0.000173793 -0.000171369 0.137011)
(-0.00017417 -0.000171712 0.137013)
(0.000163444 0.000164725 0.137711)
(-0.000162429 0.000165002 0.137709)
(0.000161723 -0.000166406 0.137713)
(-0.000160422 -0.000166493 0.137711)
(-0.000258493 1.55921e-05 0.118559)
(-0.000247507 0.000128757 0.103495)
(-0.000294061 5.28019e-05 0.134937)
(-0.000284501 0.00017133 0.132439)
(-0.000380856 1.45463e-05 0.119326)
(-0.000167355 6.86136e-05 0.102737)
(-0.000293765 5.22257e-05 0.135083)
(6.84159e-05 -4.37198e-05 0.0640461)
(4.35229e-05 -3.37832e-05 0.0635722)
(1.48391e-05 -0.000256592 0.119664)
(5.35624e-05 -0.000291602 0.135211)
(0.000141399 -0.000248534 0.103917)
(0.000170411 -0.000283226 0.132684)
(1.69664e-05 -0.000381527 0.11989)
(5.31158e-05 -0.000290685 0.135426)
(6.39119e-05 -0.000168059 0.10347)
(-0.000144014 -0.000104666 0.0885837)
(-0.000116374 -0.000141955 0.0888351)
(-3.45493e-05 -3.27806e-05 0.128919)
(-0.000113847 -6.09868e-05 0.0878461)
(-5.54999e-05 -0.000114418 0.0882674)
(8.32044e-06 0.00013487 0.100557)
(3.80866e-05 0.000113812 0.0739741)
(9.72789e-06 0.000256995 0.100987)
(2.13165e-05 3.96062e-05 0.0736339)
(-4.46487e-05 6.32772e-05 0.0633196)
(-2.40603e-05 3.55138e-05 0.0629963)
(0.000140668 1.00467e-05 0.0993362)
(0.000110526 3.2233e-05 0.0736497)
(0.000246411 8.3516e-06 0.100244)
(4.14959e-05 3.01503e-05 0.0731105)
(-0.000167496 0.000160475 0.137985)
(0.000166216 -0.00016201 0.137984)
(-0.000166198 -0.000161952 0.137989)
(0.000152793 0.0001573 0.138623)
(-0.000152224 0.000157388 0.138623)
(0.000150255 -0.000158153 0.138626)
(-0.000150443 -0.00015865 0.138624)
(-0.000226345 1.5594e-05 0.118239)
(-0.00021938 0.000115886 0.102669)
(-0.000279275 4.94245e-05 0.135833)
(-0.000266726 0.000163852 0.133127)
(-0.000343265 1.4257e-05 0.119042)
(-0.000144554 5.85118e-05 0.101924)
(-0.000280585 4.92349e-05 0.135919)
(6.04675e-05 -3.95351e-05 0.0631676)
(3.78912e-05 -2.99717e-05 0.0627336)
(1.40105e-05 -0.000225452 0.119399)
(5.01931e-05 -0.000277575 0.136108)
(0.000127605 -0.000222751 0.103106)
(0.000160538 -0.000266444 0.1334)
(1.63205e-05 -0.000347009 0.119653)
(4.98524e-05 -0.000277371 0.136296)
(5.47839e-05 -0.000145698 0.102674)
(-0.000124994 -9.22918e-05 0.0875213)
(-0.000102747 -0.000124659 0.0877794)
(-1.92879e-05 -1.68027e-05 0.129387)
(-9.88097e-05 -5.27927e-05 0.0868263)
(-4.66023e-05 -9.89581e-05 0.0872496)
(9.01013e-06 0.000107437 0.0998106)
(3.56495e-05 0.00010301 0.0731251)
(1.10658e-05 0.000226003 0.10019)
(2.31003e-05 3.01074e-05 0.0728274)
(-4.33286e-05 5.56344e-05 0.0625446)
(-2.25154e-05 3.20775e-05 0.0622541)
(0.000113895 1.14577e-05 0.0985896)
(9.90711e-05 3.05792e-05 0.0727937)
(0.000215312 8.80773e-06 0.0994256)
(3.58542e-05 2.72661e-05 0.072314)
(-0.000160352 0.00015139 0.138895)
(0.000159369 -0.000153237 0.138893)
(-0.000158884 -0.000152781 0.138898)
(0.000140088 0.000146917 0.139463)
(-0.000139412 0.000146221 0.139461)
(0.000137787 -0.00014807 0.139467)
(-0.000137337 -0.000148143 0.139463)
(-0.000190868 1.49797e-05 0.117931)
(-0.000195361 0.000106106 0.101895)
(-0.000261388 4.69935e-05 0.136664)
(-0.000250089 0.000156973 0.133718)
(-0.000306106 1.4242e-05 0.118723)
(-0.000123526 5.32181e-05 0.101185)
(-0.000264432 4.67126e-05 0.136666)
(5.43484e-05 -3.63243e-05 0.0623919)
(3.2097e-05 -2.93869e-05 0.0620006)
(1.3853e-05 -0.000188432 0.119118)
(4.74592e-05 -0.000262069 0.136932)
(0.000116299 -0.000197803 0.102346)
(0.000152966 -0.000247573 0.134027)
(1.46979e-05 -0.000310292 0.119372)
(4.81757e-05 -0.000260664 0.137085)
(4.71411e-05 -0.000123223 0.101947)
(-0.000109184 -8.40538e-05 0.0865744)
(-9.40816e-05 -0.000108975 0.0868356)
(-7.09441e-06 -4.47586e-06 0.129759)
(-8.41519e-05 -4.78248e-05 0.0859259)
(-4.18722e-05 -8.51371e-05 0.0863544)
(7.69373e-06 6.79151e-05 0.0992312)
(3.72888e-05 9.19618e-05 0.0723899)
(6.98393e-06 0.00018767 0.0995235)
(1.97033e-05 2.10282e-05 0.0721765)
(-4.14155e-05 4.83324e-05 0.0618509)
(-2.10116e-05 2.33143e-05 0.0616259)
(7.30704e-05 8.89143e-06 0.0980303)
(8.65814e-05 3.27485e-05 0.0720519)
(0.000180303 7.74147e-06 0.0987262)
(2.2322e-05 2.70989e-05 0.0716639)
(-0.00015013 0.00013673 0.139725)
(0.000147852 -0.000138239 0.139722)
(-0.000148254 -0.000138649 0.139728)
(0.000119417 0.000130907 0.140203)
(-0.00011952 0.000131379 0.140198)
(0.000117445 -0.00013067 0.140209)
(-0.000117205 -0.000131783 0.140202)
(-0.000136141 1.11311e-05 0.117648)
(-0.000164708 9.83745e-05 0.101194)
(-0.00023704 4.51512e-05 0.137417)
(-0.000225869 0.000151932 0.134189)
(-0.000255567 1.22965e-05 0.118393)
(-9.17446e-05 4.1784e-05 0.100569)
(-0.000241003 4.51517e-05 0.137301)
(4.58382e-05 -3.68456e-05 0.0616969)
(2.50944e-05 -2.60593e-05 0.0613851)
(1.10931e-05 -0.000134766 0.118835)
(4.42258e-05 -0.000242729 0.137676)
(0.000107395 -0.000167962 0.101652)
(0.00014482 -0.000225015 0.134551)
(1.48408e-05 -0.000258832 0.119077)
(4.46219e-05 -0.000237479 0.137778)
(3.64457e-05 -9.24183e-05 0.101329)
(-9.18767e-05 -7.91275e-05 0.085727)
(-8.82378e-05 -9.10311e-05 0.085998)
(1.14568e-05 1.21493e-05 0.129995)
(-6.43778e-05 -3.95739e-05 0.0851687)
(-3.16389e-05 -6.58212e-05 0.0855955)
(9.76067e-07 2.59841e-05 0.0988072)
(1.96023e-05 7.82985e-05 0.0718106)
(3.16254e-06 0.00014011 0.0990161)
(-2.83399e-06 6.72211e-06 0.0717373)
(-2.82538e-05 4.3015e-05 0.0612984)
(2.48563e-06 2.04647e-05 0.0611811)
(2.95579e-05 3.05933e-06 0.0976513)
(7.39032e-05 2.03099e-05 0.0714515)
(0.000136584 4.25084e-06 0.0981763)
(6.77039e-06 6.02553e-06 0.0712227)
(-0.000132825 0.000118302 0.14045)
(0.00013148 -0.000118126 0.140448)
(-0.000131411 -0.00011808 0.140457)
(0.00010207 0.000114724 0.140833)
(-0.000102163 0.000114232 0.140825)
(0.00010109 -0.000114018 0.14084)
(-9.99493e-05 -0.000114274 0.140831)
(-8.58539e-05 5.43011e-06 0.117361)
(-0.000131386 7.23664e-05 0.100587)
(-0.000205616 3.9817e-05 0.138071)
(-0.000191631 0.000137728 0.134511)
(-0.000199232 7.83467e-06 0.117997)
(-5.87416e-05 1.01058e-05 0.100125)
(-0.000209174 3.94272e-05 0.13779)
(3.96277e-05 -2.81015e-05 0.0611286)
(1.61321e-05 -8.65862e-06 0.0609583)
(4.63968e-06 -8.47999e-05 0.118511)
(3.91037e-05 -0.000213012 0.138302)
(7.79133e-05 -0.000135191 0.101046)
(0.000129537 -0.000194875 0.134942)
(5.99738e-06 -0.000198685 0.11875)
(3.99593e-05 -0.000204378 0.138323)
(2.49768e-06 -6.15826e-05 0.100893)
(-7.07782e-05 -5.99351e-05 0.0850351)
(-6.51633e-05 -7.2261e-05 0.0853236)
(3.59002e-05 3.68261e-05 0.130098)
(-4.37842e-05 -1.30084e-05 0.0846341)
(-7.94852e-07 -4.86712e-05 0.0850411)
(-4.83088e-06 1.37616e-05 0.0977335)
(-1.97947e-06 7.96231e-05 0.0713799)
(-5.16065e-06 0.000118935 0.0984955)
(-2.921e-05 3.94886e-06 0.0712245)
(-6.74566e-06 4.51872e-05 0.060914)
(2.72996e-05 1.74654e-05 0.0608019)
(7.48244e-05 7.25903e-07 0.0710088)
(0.000116608 -2.37053e-06 0.0975822)
(-0.000113835 0.000102443 0.141064)
(0.000114006 -0.000102296 0.141061)
(-0.000112453 -0.000101592 0.141074)
(-5.95053e-05 1.3083e-06 0.117109)
(-0.000115486 4.47002e-05 0.100049)
(-0.000178494 3.4665e-05 0.138625)
(-0.000163098 0.000111316 0.134684)
(-0.000165056 1.69388e-06 0.117454)
(-4.12468e-05 -1.41746e-05 0.0998703)
(-0.000178566 3.27955e-05 0.138129)
(4.47743e-05 -7.63252e-06 0.0607299)
(-5.43969e-07 -6.00869e-05 0.117523)
(3.42443e-05 -0.000186172 0.138817)
(4.23197e-05 -0.000117767 0.100501)
(-5.0695e-07 -0.000164631 0.118325)
(3.50415e-05 -0.000177573 0.138677)
(-6.70716e-05 -3.81357e-05 0.084504)
(-3.92801e-05 -6.50693e-05 0.08482)
(5.96988e-05 5.91719e-05 0.130187)
(-3.28274e-05 7.193e-06 0.0843229)
(2.14187e-05 -4.49995e-05 0.084543)
(0.000176495 0.000180365 0.119095)
(0.000424218 0.000250099 0.0778509)
(0.000250524 0.000424747 0.0778494)
(0.000472075 -0.000803897 0.0475648)
(0.000411718 0.000166455 0.0646007)
(-0.000811739 0.000479524 0.0475317)
(0.00016724 0.000412277 0.0646027)
(0.000344117 0.000337149 0.118971)
(0.000262754 -2.39189e-05 0.083788)
(-2.8198e-05 0.000275419 0.0837709)
(8.57359e-05 0.000429633 0.0804087)
(0.000430049 8.42339e-05 0.0804148)
(2.64221e-05 0.000439654 0.111089)
(0.000215256 0.000183925 0.122308)
(0.000274884 0.00036607 0.0869882)
(1.20158e-05 0.000196402 0.126323)
(-2.66164e-05 0.000439806 0.111091)
(-0.000215409 0.000184172 0.122305)
(-0.000273143 0.000366414 0.0869804)
(-1.21177e-05 0.000196463 0.126323)
(8.11814e-06 0.000600919 0.0981813)
(0.00176224 -0.00364392 0.0393094)
(0.000347479 5.26596e-06 0.0707525)
(-0.000160189 0.000174806 0.100178)
(-8.55015e-06 0.000600743 0.0981845)
(-0.00176322 -0.00364474 0.0393079)
(-0.000344368 9.02999e-06 0.0707446)
(0.000159654 0.000174915 0.100184)
(6.58338e-05 0.000521209 0.110952)
(0.000257366 0.00035827 0.122239)
(0.000870907 -0.000380852 0.0902145)
(8.69963e-05 0.000381767 0.124183)
(0.000247 0.000584188 0.0901581)
(4.97302e-05 0.000269618 0.125498)
(-3.23501e-05 0.000419439 0.11309)
(-6.5894e-05 0.000521282 0.110954)
(-0.000257478 0.000358618 0.122237)
(-0.00087228 -0.000382545 0.0902138)
(-8.72551e-05 0.000381894 0.124184)
(-0.00024687 0.000583605 0.0901734)
(-4.98969e-05 0.000269698 0.125499)
(3.19557e-05 0.000419472 0.113092)
(-0.000176596 0.000180265 0.119093)
(-0.000425359 0.00025859 0.0777782)
(-0.000250234 0.000424693 0.0778533)