/*--------------------------------*- C++ -*----------------------------------*\
| =========                 |                                                 |
| \\      /  F ield         | OpenFOAM: The Open Source CFD Toolbox           |
|  \\    /   O peration     | Version:  2206                                  |
|   \\  /    A nd           | Website:  www.openfoam.com                      |
|    \\/     M anipulation  |                                                 |
\*---------------------------------------------------------------------------*/
FoamFile
{
    version     2.0;
    format      ascii;
    arch        "LSB;label=32;scalar=64";
    class       volScalarField;
    location    "110";
    object      nut;
}
// * * * * * * * * * * * * * * * * * * * * * * * * * * * * * * * * * * * * * //

dimensions      [0 2 -1 0 0 0 0];

internalField   nonuniform List<scalar> 
66701
(
4.12806e-08
3.65674e-08
8.60885e-08
1.89669e-07
6.15958e-08
3.6838e-07
3.11454e-07
7.20865e-08
3.69838e-08
8.7834e-08
1.93842e-07
6.18676e-08
3.67979e-07
7.19261e-08
3.15533e-07
4.19603e-08
6.59178e-09
7.06117e-10
4.59708e-11
3.3579e-12
2.37757e-12
6.66962e-09
7.11864e-10
4.63127e-11
3.3677e-12
2.37858e-12
6.36652e-09
6.7734e-10
4.35216e-11
3.04224e-12
2.10799e-12
6.48522e-09
6.89822e-10
4.42821e-11
3.06401e-12
2.11074e-12
6.69431e-09
7.16792e-10
4.66478e-11
3.37928e-12
2.38148e-12
6.73717e-09
7.19643e-10
4.68304e-11
3.38336e-12
2.38066e-12
6.22988e-09
6.62002e-10
4.27868e-11
3.08808e-12
2.17607e-12
6.46959e-09
6.92663e-10
4.48597e-11
3.19684e-12
2.23553e-12
6.29169e-09
6.69056e-10
4.323e-11
3.10156e-12
2.1783e-12
6.47818e-09
6.93815e-10
4.49476e-11
3.20042e-12
2.23647e-12
4.10344e-08
4.10636e-08
1.4386e-06
2.16349e-07
2.13617e-07
8.59669e-08
1.41082e-06
4.0225e-07
3.68515e-07
8.59533e-08
7.73155e-07
1.4226e-06
3.95685e-07
1.52835e-06
3.66259e-07
8.72784e-08
7.71834e-07
1.44812e-06
1.57824e-06
4.04347e-07
4.16166e-08
1.45645e-06
2.17529e-07
4.12011e-08
1.29982e-07
3.67379e-08
3.66798e-08
1.32177e-07
3.6631e-08
3.65243e-08
3.49912e-07
8.44433e-08
5.84218e-07
2.17648e-07
3.48617e-07
8.45204e-08
5.91724e-07
3.46484e-07
8.33688e-08
5.82816e-07
2.14685e-07
3.44773e-07
8.33587e-08
5.79115e-07
6.08217e-08
3.12215e-07
7.1974e-08
3.71825e-07
6.1353e-08
3.15024e-07
7.12179e-08
3.63769e-08
1.90886e-07
8.57954e-08
3.66668e-08
1.90072e-07
6.22093e-08
7.18591e-08
3.12741e-07
3.70399e-07
6.22854e-08
7.17191e-08
3.18356e-07
3.6909e-08
1.91695e-07
8.73303e-08
3.6866e-08
1.91313e-07
4.18161e-08
1.34742e-07
3.74038e-08
3.75506e-08
3.56012e-07
5.88618e-07
2.19052e-07
5.90632e-07
8.47099e-08
3.52192e-07
2.20096e-07
8.60124e-08
5.95485e-07
4.17541e-08
1.94866e-06
2.1667e-06
2.14834e-06
1.61334e-06
1.9508e-06
2.12692e-06
2.14805e-06
1.62161e-06
2.17513e-06
1.61751e-06
2.16345e-06
1.63726e-06
6.62046e-07
1.40019e-06
9.05474e-07
9.01474e-07
6.64474e-07
8.93032e-07
8.88154e-07
1.03099e-06
5.72072e-07
7.99764e-07
4.06722e-07
7.99498e-07
1.02521e-06
5.74002e-07
1.05575e-06
7.06475e-07
1.15696e-06
7.63286e-07
1.07723e-06
7.14577e-07
1.12442e-06
1.01539e-06
5.70594e-07
7.85706e-07
4.01187e-07
7.78316e-07
1.03523e-06
5.67311e-07
1.06435e-06
1.14062e-06
7.21786e-07
7.70043e-07
1.07218e-06
1.12963e-06
7.21552e-07
1.02408e-06
5.77436e-07
8.02366e-07
4.07e-07
1.03822e-06
5.78366e-07
7.9533e-07
6.76801e-07
1.40394e-06
9.04917e-07
8.9469e-07
8.88287e-07
6.52403e-09
6.98501e-10
4.55179e-11
3.34357e-12
2.37359e-12
6.60999e-09
7.08556e-10
4.61402e-11
3.36244e-12
2.37752e-12
6.29084e-09
6.68567e-10
4.29475e-11
3.02242e-12
2.10246e-12
6.40074e-09
6.81781e-10
4.37763e-11
3.04799e-12
2.10789e-12
6.49897e-09
6.93156e-10
4.45206e-11
3.07019e-12
2.11083e-12
6.70454e-09
7.19717e-10
4.68614e-11
3.38469e-12
2.38137e-12
6.59512e-09
7.06741e-10
4.59998e-11
3.35285e-12
2.37125e-12
6.20755e-09
6.61233e-10
4.27605e-11
3.08062e-12
2.16817e-12
6.50658e-09
6.97482e-10
4.5183e-11
3.20604e-12
2.23629e-12
6.26151e-09
6.67114e-10
4.31206e-11
3.09683e-12
2.17646e-12
6.45328e-09
6.92136e-10
4.48502e-11
3.1893e-12
2.22692e-12
6.36796e-09
6.78086e-10
4.35647e-11
3.03851e-12
2.1027e-12
6.30369e-09
6.698e-10
4.32591e-11
3.09498e-12
2.17037e-12
6.53012e-09
7.00376e-10
4.53739e-11
3.21208e-12
2.2372e-12
6.31579e-09
6.71623e-10
4.34038e-11
3.10654e-12
2.17892e-12
6.48406e-09
6.94829e-10
4.50019e-11
3.19389e-12
2.22782e-12
6.48416e-09
6.90143e-10
4.42982e-11
3.05938e-12
2.1053e-12
6.69807e-09
7.1733e-10
4.66743e-11
3.37405e-12
2.37506e-12
6.66509e-09
7.08125e-10
4.54114e-11
3.10704e-12
2.12635e-12
6.60804e-09
7.08507e-10
4.61452e-11
3.36067e-12
2.37481e-12
6.14412e-09
6.53131e-10
4.2554e-11
3.22474e-12
2.32858e-12
6.54213e-09
6.94457e-10
4.45705e-11
3.08501e-12
2.12525e-12
6.5413e-09
6.94369e-10
4.45576e-11
3.08312e-12
2.1236e-12
6.15723e-09
6.5438e-10
4.26252e-11
3.22664e-12
2.32907e-12
6.55098e-09
6.95997e-10
4.46741e-11
3.08762e-12
2.12572e-12
6.54728e-09
6.95331e-10
4.46139e-11
3.08181e-12
2.12112e-12
6.13421e-09
6.52641e-10
4.25087e-11
3.21982e-12
2.32456e-12
6.14697e-09
6.54072e-10
4.26115e-11
3.22202e-12
2.32398e-12
6.65304e-09
7.11338e-10
4.63141e-11
3.36246e-12
2.37204e-12
6.69305e-09
7.15305e-10
4.65559e-11
3.37437e-12
2.37863e-12
6.7342e-09
7.19908e-10
4.68549e-11
3.37844e-12
2.37425e-12
6.74877e-09
7.21945e-10
4.69956e-11
3.38831e-12
2.3813e-12
6.64658e-09
7.05966e-10
4.52515e-11
3.1003e-12
2.12424e-12
6.29877e-09
6.69586e-10
4.356e-11
3.24916e-12
2.32749e-12
6.29047e-09
6.6872e-10
4.35053e-11
3.24866e-12
2.32826e-12
9.61934e-07
9.91328e-07
1.62969e-06
1.03467e-06
9.92173e-07
9.97475e-07
1.59647e-06
1.01997e-06
1.04434e-06
1.05748e-06
1.59158e-06
1.03018e-06
1.09005e-06
1.09752e-06
1.5648e-06
1.0842e-06
1.10433e-06
1.14324e-06
1.59905e-06
1.14652e-06
1.16402e-06
1.20957e-06
1.64233e-06
1.18623e-06
1.18871e-06
1.2218e-06
1.66874e-06
1.18076e-06
1.18842e-06
1.27596e-06
1.67764e-06
1.2453e-06
1.22146e-06
1.30611e-06
1.64945e-06
1.28304e-06
1.25234e-06
1.32386e-06
1.69407e-06
1.31214e-06
1.3213e-06
1.3303e-06
1.78832e-06
1.30291e-06
1.33704e-06
1.38269e-06
1.8422e-06
1.31648e-06
1.32667e-06
1.36858e-06
1.8717e-06
1.37577e-06
1.37328e-06
1.41036e-06
1.89543e-06
1.41982e-06
1.40302e-06
1.40295e-06
1.93675e-06
1.43268e-06
1.43036e-06
1.43861e-06
1.95428e-06
1.42544e-06
1.44266e-06
1.45667e-06
9.76344e-07
9.96638e-07
9.62672e-07
9.88268e-07
9.65787e-07
9.6785e-07
1.04316e-06
9.89867e-07
1.03777e-06
1.02511e-06
1.02277e-06
1.01668e-06
1.0322e-06
1.03514e-06
1.00014e-06
1.00683e-06
1.02674e-06
1.02492e-06
1.0273e-06
1.03367e-06
1.01481e-06
1.02475e-06
1.03975e-06
9.7138e-07
1.02442e-06
9.95168e-07
1.02474e-06
1.01862e-06
1.03595e-06
1.0303e-06
1.01839e-06
1.07384e-06
1.0602e-06
1.07119e-06
1.05289e-06
1.03991e-06
1.01017e-06
1.06321e-06
1.01791e-06
1.0254e-06
1.02229e-06
1.07585e-06
1.08304e-06
1.07806e-06
1.00481e-06
1.08847e-06
1.03402e-06
1.08532e-06
1.07189e-06
1.1218e-06
1.07442e-06
1.07065e-06
1.06808e-06
1.12121e-06
1.08708e-06
1.11898e-06
1.06192e-06
1.03645e-06
1.05634e-06
1.07944e-06
1.07902e-06
1.06797e-06
1.08069e-06
1.11286e-06
1.11289e-06
1.04389e-06
1.10207e-06
1.0835e-06
1.10504e-06
1.15537e-06
1.13246e-06
1.07322e-06
1.12249e-06
1.11766e-06
1.12297e-06
1.15054e-06
1.18136e-06
1.07117e-06
1.09025e-06
1.11304e-06
1.13238e-06
1.08104e-06
1.13052e-06
1.14457e-06
1.15376e-06
1.17472e-06
1.10696e-06
1.13521e-06
1.14705e-06
1.17706e-06
1.16352e-06
1.19891e-06
1.13318e-06
1.1412e-06
1.16522e-06
1.18595e-06
1.21787e-06
1.21871e-06
1.12679e-06
1.16212e-06
1.17577e-06
1.15096e-06
1.15673e-06
1.18701e-06
1.16919e-06
1.20801e-06
1.21442e-06
1.12966e-06
1.18286e-06
1.13763e-06
1.1886e-06
1.25323e-06
1.20574e-06
1.19215e-06
1.19084e-06
1.17303e-06
1.22152e-06
1.25449e-06
1.24577e-06
1.18642e-06
1.16834e-06
1.21324e-06
1.22607e-06
1.16415e-06
1.17373e-06
1.19706e-06
1.2505e-06
1.24357e-06
1.14447e-06
1.1691e-06
1.19682e-06
1.23226e-06
1.24755e-06
1.27218e-06
1.17013e-06
1.22142e-06
1.19568e-06
1.22845e-06
1.28464e-06
1.28316e-06
1.20578e-06
1.23482e-06
1.23758e-06
1.24012e-06
1.21531e-06
1.2212e-06
1.25339e-06
1.27925e-06
1.27589e-06
1.22377e-06
1.23196e-06
1.21104e-06
1.26756e-06
1.29609e-06
1.30272e-06
1.20935e-06
1.24202e-06
1.26076e-06
1.27904e-06
1.32071e-06
1.31041e-06
1.24548e-06
1.22249e-06
1.27962e-06
1.23801e-06
1.25598e-06
1.272e-06
1.24726e-06
1.31196e-06
1.30138e-06
1.23295e-06
1.24146e-06
1.23446e-06
1.28548e-06
1.342e-06
1.34141e-06
1.28921e-06
1.29223e-06
1.32688e-06
1.31967e-06
1.33273e-06
1.32873e-06
1.28101e-06
1.25449e-06
1.27998e-06
1.30623e-06
1.21612e-06
1.30849e-06
1.21395e-06
1.33839e-06
1.32915e-06
1.24863e-06
1.3185e-06
1.3001e-06
1.30251e-06
1.36839e-06
1.32896e-06
1.3183e-06
1.30141e-06
1.33626e-06
1.32314e-06
1.36521e-06
1.33547e-06
1.29326e-06
1.31113e-06
1.31527e-06
1.3372e-06
1.22598e-06
1.28162e-06
1.27135e-06
1.37389e-06
1.33446e-06
1.3094e-06
1.34202e-06
1.33816e-06
1.34085e-06
1.38511e-06
1.36545e-06
1.35822e-06
1.34934e-06
1.36205e-06
1.35064e-06
1.39137e-06
1.37074e-06
1.34961e-06
1.34313e-06
1.36777e-06
1.35025e-06
1.29385e-06
1.29985e-06
1.34582e-06
1.39307e-06
1.36513e-06
1.34802e-06
1.31893e-06
1.33786e-06
1.34545e-06
1.384e-06
1.37515e-06
1.3447e-06
1.3713e-06
1.35564e-06
1.37061e-06
1.38918e-06
1.37951e-06
1.35219e-06
1.34824e-06
1.37116e-06
1.36231e-06
1.35684e-06
1.36833e-06
1.38683e-06
1.39943e-06
1.39067e-06
1.33326e-06
1.3551e-06
1.31841e-06
1.3703e-06
1.41255e-06
1.38377e-06
1.38371e-06
1.39483e-06
1.3689e-06
1.4097e-06
1.41762e-06
1.38451e-06
1.39936e-06
1.36958e-06
1.41102e-06
1.39009e-06
1.39923e-06
1.41226e-06
1.38346e-06
1.4173e-06
1.40025e-06
1.30393e-06
1.40658e-06
1.33216e-06
1.38211e-06
1.42254e-06
1.3961e-06
1.38275e-06
1.40997e-06
1.40957e-06
1.40875e-06
1.43815e-06
1.39644e-06
1.41176e-06
1.41942e-06
1.4023e-06
1.42985e-06
1.38977e-06
1.43054e-06
1.39708e-06
1.43647e-06
1.41577e-06
1.35643e-06
1.42065e-06
1.39409e-06
1.39856e-06
1.42068e-06
1.43004e-06
1.41281e-06
1.42081e-06
1.42747e-06
1.43127e-06
1.43788e-06
1.42399e-06
1.41454e-06
1.42209e-06
1.43271e-06
1.44722e-06
1.41509e-06
1.39947e-06
1.41521e-06
1.4454e-06
1.41585e-06
1.4155e-06
1.43597e-06
1.42406e-06
1.40417e-06
1.42571e-06
1.44158e-06
1.4269e-06
1.45334e-06
1.41233e-06
1.4476e-06
1.42051e-06
3.06031e-08
3.15339e-08
6.10905e-07
1.22788e-06
2.94933e-07
9.74239e-07
3.05453e-07
5.97079e-07
1.22818e-06
1.55864e-07
1.57464e-07
9.71337e-07
1.60702e-07
1.5798e-07
3.10479e-07
6.78107e-08
6.75957e-08
3.01132e-07
3.19285e-08
3.26655e-08
3.00117e-07
6.60034e-08
6.69779e-08
2.94014e-07
1.63972e-06
1.60337e-06
1.63922e-06
1.62081e-06
1.6491e-06
1.60851e-06
1.62471e-06
5.96631e-07
3.09283e-07
1.21043e-06
1.03383e-06
3.13948e-07
1.22726e-06
5.86832e-07
3.21376e-08
3.26379e-08
6.28383e-07
1.20519e-06
3.16653e-07
1.00483e-06
6.16571e-07
1.19668e-06
3.1779e-07
1.59795e-07
1.66219e-07
9.95749e-07
1.63139e-07
1.69837e-07
3.19878e-07
6.94328e-08
3.18799e-07
7.11655e-08
3.39499e-08
3.47282e-08
3.14354e-07
7.0413e-08
3.09245e-07
7.14456e-08
1.63633e-06
1.59724e-06
1.61158e-06
1.58764e-06
1.60039e-06
1.59895e-06
1.56559e-06
6.2845e-07
3.21572e-07
1.19765e-06
1.01282e-06
6.15167e-07
3.32168e-07
1.20018e-06
3.37027e-08
3.41831e-08
6.65831e-07
1.22123e-06
3.29133e-07
1.05908e-06
6.52554e-07
1.22863e-06
3.37687e-07
1.70393e-07
1.76913e-07
1.05683e-06
1.74508e-07
1.77435e-07
3.37536e-07
7.42142e-08
3.30216e-07
7.59903e-08
3.58353e-08
3.62565e-08
3.2871e-07
7.43314e-08
3.19752e-07
7.48649e-08
1.6022e-06
1.58897e-06
1.56936e-06
1.58135e-06
1.59787e-06
1.55025e-06
1.58148e-06
6.72455e-07
3.39762e-07
1.23865e-06
1.04383e-06
6.58065e-07
3.44939e-07
1.24015e-06
3.50369e-08
3.56707e-08
6.89669e-07
1.26732e-06
3.4192e-07
1.11414e-06
6.8995e-07
1.26597e-06
3.49583e-07
1.82832e-07
1.8e-07
1.07448e-06
1.84652e-07
1.8423e-07
3.48939e-07
7.79426e-08
3.39914e-07
7.82168e-08
3.68076e-08
3.75471e-08
3.43211e-07
7.76501e-08
3.36877e-07
7.81983e-08
1.61369e-06
1.55286e-06
1.58411e-06
1.58497e-06
1.59955e-06
1.58208e-06
1.62184e-06
7.07707e-07
3.54973e-07
1.23587e-06
1.09302e-06
6.95954e-07
3.59477e-07
1.22727e-06
3.71182e-08
3.76308e-08
7.16563e-07
1.26299e-06
3.58715e-07
1.11555e-06
7.03185e-07
1.27272e-06
3.6067e-07
1.8961e-07
1.91444e-07
1.1462e-06
1.91676e-07
1.94485e-07
3.6068e-07
8.06659e-08
3.56146e-07
8.08737e-08
3.85473e-08
3.86871e-08
3.49832e-07
7.99327e-08
3.45752e-07
8.02595e-08
1.61145e-06
1.59529e-06
1.58431e-06
1.62164e-06
1.64418e-06
1.61404e-06
1.5724e-06
7.21693e-07
3.65666e-07
1.25451e-06
1.161e-06
7.12152e-07
3.71978e-07
1.26643e-06
3.85853e-08
3.89832e-08
7.34855e-07
1.30394e-06
3.71118e-07
1.17085e-06
7.35561e-07
1.30372e-06
3.76365e-07
1.95849e-07
1.98688e-07
1.17892e-06
1.96255e-07
2.00337e-07
3.6705e-07
8.27189e-08
3.60324e-07
8.27819e-08
3.92672e-08
3.99816e-08
3.56829e-07
8.17541e-08
3.52066e-07
8.2443e-08
1.65817e-06
1.63062e-06
1.58073e-06
1.64115e-06
1.65573e-06
1.64303e-06
1.61926e-06
7.31834e-07
3.75326e-07
1.31373e-06
1.18033e-06
7.34476e-07
3.74984e-07
1.3237e-06
3.96988e-08
3.98867e-08
7.54163e-07
1.34778e-06
3.7568e-07
1.18755e-06
7.48548e-07
1.34849e-06
3.80922e-07
1.98408e-07
2.03739e-07
1.2173e-06
1.98883e-07
2.05127e-07
3.69884e-07
8.46862e-08
3.67601e-07
8.46133e-08
4.07239e-08
4.10078e-08
3.61891e-07
8.44578e-08
3.58881e-07
8.45675e-08
1.65197e-06
1.65224e-06
1.63065e-06
1.68807e-06
1.64207e-06
1.64631e-06
1.66615e-06
7.35206e-07
3.69285e-07
1.35452e-06
1.19411e-06
7.35191e-07
3.70063e-07
1.38023e-06
4.05615e-08
4.04937e-08
7.66179e-07
1.35105e-06
3.7731e-07
1.19423e-06
7.61116e-07
1.33784e-06
3.72627e-07
1.99979e-07
2.0381e-07
1.24218e-06
2.01062e-07
2.0654e-07
3.79331e-07
8.62866e-08
3.76857e-07
8.69328e-08
4.15422e-08
4.1573e-08
3.69494e-07
8.58844e-08
3.64471e-07
8.5835e-08
1.65925e-06
1.622e-06
1.69937e-06
1.6736e-06
1.73475e-06
1.65041e-06
1.66497e-06
7.35391e-07
3.66166e-07
1.35178e-06
1.25389e-06
7.4018e-07
3.67591e-07
1.34917e-06
4.12731e-08
4.14229e-08
7.71472e-07
1.36233e-06
3.76949e-07
1.22151e-06
7.72316e-07
1.37723e-06
3.76418e-07
2.0166e-07
2.0935e-07
1.27847e-06
2.02358e-07
2.10344e-07
3.80569e-07
8.70666e-08
3.76238e-07
8.78726e-08
4.16745e-08
4.15773e-08
3.72589e-07
8.5433e-08
3.66857e-07
8.58558e-08
1.73699e-06
1.67358e-06
1.65344e-06
1.68011e-06
1.75869e-06
1.7536e-06
1.6925e-06
7.5872e-07
3.78588e-07
1.37274e-06
1.27744e-06
7.53972e-07
3.89497e-07
1.38192e-06
4.17791e-08
4.21112e-08
7.86223e-07
1.42709e-06
3.89012e-07
1.26932e-06
7.84124e-07
1.44033e-06
3.97522e-07
2.04868e-07
2.11342e-07
1.29591e-06
2.08936e-07
2.12197e-07
3.86084e-07
8.83955e-08
3.82979e-07
8.84655e-08
4.16813e-08
4.19401e-08
3.71786e-07
8.68398e-08
3.70902e-07
8.67177e-08
1.73615e-06
1.75789e-06
1.7076e-06
1.74027e-06
1.7293e-06
1.78945e-06
1.74639e-06
7.72952e-07
3.97278e-07
1.41063e-06
1.30568e-06
7.77572e-07
4.04261e-07
1.41222e-06
4.23779e-08
4.23463e-08
7.79026e-07
1.45632e-06
4.02058e-07
1.33234e-06
7.90806e-07
1.45963e-06
4.04752e-07
2.11733e-07
2.16227e-07
1.32132e-06
2.13858e-07
2.15229e-07
3.84954e-07
8.87827e-08
3.83974e-07
8.88503e-08
4.21502e-08
4.20857e-08
3.75935e-07
8.64424e-08
3.71197e-07
8.67742e-08
1.72247e-06
1.78334e-06
1.7535e-06
1.80799e-06
1.76949e-06
1.73243e-06
1.77708e-06
7.80152e-07
4.04534e-07
1.46024e-06
1.28819e-06
7.76438e-07
4.07059e-07
1.46556e-06
4.20338e-08
4.19801e-08
7.88966e-07
1.49818e-06
4.02667e-07
1.34024e-06
7.92837e-07
1.48162e-06
4.04062e-07
2.13913e-07
2.16418e-07
1.34693e-06
2.144e-07
2.17444e-07
3.84385e-07
8.89287e-08
3.84376e-07
8.8896e-08
4.22197e-08
4.22555e-08
3.73514e-07
8.71871e-08
3.70199e-07
8.71598e-08
1.78767e-06
1.75719e-06
1.80673e-06
1.84901e-06
1.83132e-06
1.73873e-06
1.8294e-06
7.87795e-07
4.02861e-07
1.50832e-06
1.33918e-06
7.88272e-07
4.02821e-07
1.51199e-06
4.22598e-08
4.22947e-08
8.01386e-07
1.46772e-06
4.10443e-07
1.3296e-06
7.95979e-07
1.49164e-06
4.12047e-07
2.15371e-07
2.14809e-07
1.36245e-06
2.15614e-07
2.14854e-07
3.87916e-07
8.8822e-08
3.85099e-07
8.96136e-08
4.23215e-08
4.24042e-08
3.77448e-07
8.74012e-08
3.71285e-07
8.73194e-08
1.87099e-06
1.77992e-06
1.84106e-06
1.8924e-06
1.88683e-06
1.84076e-06
1.85043e-06
7.87539e-07
4.05403e-07
1.53697e-06
1.38477e-06
7.87671e-07
4.08461e-07
1.56316e-06
4.24464e-08
4.24357e-08
8.03635e-07
1.50633e-06
4.08161e-07
1.39073e-06
8.04153e-07
1.51408e-06
4.13621e-07
2.16375e-07
2.17837e-07
1.37451e-06
2.16941e-07
2.17683e-07
3.8649e-07
8.85206e-08
3.87132e-07
8.90962e-08
4.23055e-08
4.22416e-08
3.79955e-07
8.70954e-08
3.74664e-07
8.69048e-08
1.88862e-06
1.8289e-06
1.84943e-06
1.93415e-06
1.93654e-06
1.87198e-06
1.84005e-06
7.8107e-07
4.02763e-07
1.54884e-06
1.4243e-06
7.78232e-07
4.03572e-07
1.58018e-06
4.27537e-08
4.25038e-08
8.04481e-07
1.55273e-06
4.126e-07
1.43043e-06
8.00754e-07
1.55444e-06
4.13402e-07
2.16643e-07
2.18561e-07
1.38782e-06
2.17362e-07
2.19663e-07
3.7794e-07
8.87273e-08
3.90028e-07
8.74392e-08
4.23572e-08
4.20505e-08
3.79934e-07
8.67887e-08
3.75e-07
8.69325e-08
1.93861e-06
1.86796e-06
1.86106e-06
1.94795e-06
1.9104e-06
1.90237e-06
1.88899e-06
7.78517e-07
3.99918e-07
1.57694e-06
1.43341e-06
7.86965e-07
4.03884e-07
1.59838e-06
4.25324e-08
4.24006e-08
7.95098e-07
1.55709e-06
4.1166e-07
1.43944e-06
8.05115e-07
1.56295e-06
4.13386e-07
2.1517e-07
2.18109e-07
1.3958e-06
2.16615e-07
2.17381e-07
4.10624e-08
8.899e-08
3.77076e-07
1.94244e-06
1.91852e-06
1.9134e-06
4.056e-07
1.57324e-06
7.90907e-07
4.28786e-08
1.56264e-06
4.08961e-07
8.0123e-07
2.18263e-07
2.19505e-07
1.60054e-07
1.60773e-07
1.01192e-06
1.65323e-07
1.66042e-07
3.05987e-08
3.14453e-08
3.18846e-08
3.17015e-08
1.0421e-06
1.63944e-07
1.65984e-07
1.68366e-07
1.68241e-07
3.20095e-08
3.15231e-08
5.9991e-07
1.21518e-06
2.9903e-07
9.58337e-07
3.10432e-07
6.01493e-07
1.22259e-06
2.98179e-07
6.55743e-08
6.70904e-08
2.9035e-07
2.94415e-07
6.5703e-08
6.73032e-08
2.89008e-07
6.12216e-07
9.74171e-07
1.22724e-06
3.13933e-07
3.07347e-07
6.19579e-07
1.23486e-06
6.07269e-07
9.63146e-07
1.22811e-06
3.12009e-07
3.10243e-07
6.17245e-07
1.23694e-06
3.00154e-07
6.80277e-08
6.75338e-08
3.05202e-07
2.96307e-07
6.92367e-08
6.79798e-08
3.01429e-07
2.99241e-08
3.03842e-08
3.05244e-08
3.10891e-08
9.95633e-07
1.59752e-07
1.67066e-07
1.64615e-07
1.6149e-07
3.11913e-08
3.06002e-08
3.1982e-08
3.12508e-08
3.12267e-08
3.17037e-08
3.13331e-08
3.2019e-08
1.61502e-07
1.60868e-07
1.00691e-06
1.64328e-07
1.63668e-07
3.27476e-08
3.19869e-08
3.31355e-08
3.23478e-08
1.01889e-06
1.71153e-07
1.70897e-07
1.69233e-07
1.68649e-07
3.11742e-07
6.73502e-08
6.87301e-08
3.05565e-07
6.31203e-07
3.09449e-07
1.21829e-06
1.02836e-06
3.10503e-07
1.2326e-06
6.10779e-07
6.2613e-07
3.04202e-07
1.22649e-06
1.02979e-06
3.14065e-07
1.23267e-06
6.1088e-07
3.10345e-07
6.88634e-08
6.7937e-08
3.19121e-07
3.12368e-07
7.09499e-08
6.94805e-08
3.19728e-07
6.39235e-07
1.02059e-06
3.14757e-07
1.23466e-06
3.13901e-07
1.25239e-06
6.45734e-07
6.34625e-07
1.02924e-06
3.25505e-07
1.24622e-06
3.16846e-07
1.25197e-06
6.51334e-07
1.65538e-07
1.66597e-07
1.00397e-06
1.69982e-07
1.66761e-07
3.22316e-08
3.26305e-08
3.36564e-08
3.29035e-08
1.03793e-06
1.75324e-07
1.72967e-07
1.74712e-07
1.716e-07
3.36333e-08
3.27765e-08
5.90954e-07
2.9797e-07
1.17244e-06
1.00623e-06
3.02766e-07
1.16989e-06
5.80109e-07
2.99994e-07
6.82488e-08
6.83231e-08
2.93421e-07
5.9011e-07
1.18551e-06
3.05641e-07
1.02921e-06
1.20578e-06
3.08163e-07
5.7847e-07
3.01044e-07
6.94381e-08
6.78742e-08
3.08341e-07
5.97978e-07
1.0114e-06
3.14448e-07
1.16247e-06
3.0539e-07
1.16652e-06
6.08574e-07
2.99506e-07
7.02132e-08
6.87981e-08
3.08359e-07
5.94737e-07
1.02837e-06
1.19033e-06
3.17573e-07
1.17934e-06
3.08702e-07
6.05634e-07
3.02169e-07
6.77392e-08
6.85006e-08
2.93295e-07
5.9846e-07
1.21223e-06
2.96031e-07
1.02715e-06
1.20845e-06
3.04909e-07
5.82247e-07
2.99626e-07
6.63324e-08
6.75768e-08
2.90285e-07
6.0115e-07
1.03706e-06
3.20061e-07
1.21346e-06
3.13423e-07
1.20248e-06
6.12167e-07
3.0299e-07
7.06893e-08
6.92844e-08
3.11516e-07
6.06489e-07
1.01678e-06
1.18652e-06
3.19345e-07
1.19087e-06
3.076e-07
6.33268e-07
3.01243e-07
7.02451e-08
6.86347e-08
3.13576e-07
1.68321e-07
1.71172e-07
1.02536e-06
1.68876e-07
1.70946e-07
3.23003e-08
3.29951e-08
3.3397e-08
3.28118e-08
1.05944e-06
1.72238e-07
1.77111e-07
1.74723e-07
1.76757e-07
3.40723e-08
3.3349e-08
6.23541e-07
1.20912e-06
3.10841e-07
9.78268e-07
6.28369e-07
1.19891e-06
3.16583e-07
3.16607e-07
6.88488e-08
3.06701e-07
7.01478e-08
3.10933e-07
6.92929e-08
3.03978e-07
6.98117e-08
6.33998e-07
1.01642e-06
1.21313e-06
3.27997e-07
1.20033e-06
3.18733e-07
6.47374e-07
6.29097e-07
9.85771e-07
1.2099e-06
3.26281e-07
1.19965e-06
3.20062e-07
6.45721e-07
3.18076e-07
7.21944e-08
7.0711e-08
3.23593e-07
3.13043e-07
7.1758e-08
7.04061e-08
3.20933e-07
3.13576e-08
3.20441e-08
3.21653e-08
3.28445e-08
1.03139e-06
1.69002e-07
1.75249e-07
1.6665e-07
1.75163e-07
3.31905e-08
3.23536e-08
3.38696e-08
3.31113e-08
3.31099e-08
3.38713e-08
3.33824e-08
3.40629e-08
1.76539e-07
1.75007e-07
1.00828e-06
1.77238e-07
1.75918e-07
3.48116e-08
3.41492e-08
3.48607e-08
3.44774e-08
1.04126e-06
1.8205e-07
1.78846e-07
1.81442e-07
1.79763e-07
3.26317e-07
7.16751e-08
3.20745e-07
7.31255e-08
6.50398e-07
3.16394e-07
1.242e-06
1.03722e-06
6.57121e-07
3.25818e-07
1.22447e-06
6.68258e-07
3.27909e-07
1.22835e-06
1.03008e-06
6.63443e-07
3.36484e-07
1.2195e-06
3.21708e-07
7.37386e-08
7.21439e-08
3.29507e-07
3.27536e-07
7.52248e-08
7.37178e-08
3.33021e-07
6.55258e-07
1.05235e-06
3.38118e-07
1.23067e-06
3.28833e-07
1.22367e-06
6.64981e-07
6.65344e-07
1.04865e-06
3.45574e-07
1.23529e-06
3.38332e-07
1.22008e-06
6.75966e-07
1.79971e-07
1.77502e-07
1.05676e-06
1.82198e-07
1.78275e-07
3.3805e-08
3.45172e-08
3.55244e-08
3.49543e-08
1.08936e-06
1.85324e-07
1.81948e-07
1.85927e-07
1.81547e-07
3.53787e-08
3.47765e-08
6.24096e-07
3.16923e-07
1.16203e-06
1.04501e-06
6.12974e-07
3.26191e-07
1.16032e-06
3.17397e-07
7.11609e-08
3.09478e-07
7.22005e-08
6.21784e-07
1.1689e-06
3.18935e-07
1.00684e-06
6.11108e-07
1.16181e-06
3.26032e-07
3.13653e-07
7.38163e-08
7.28525e-08
3.20921e-07
6.3044e-07
1.04382e-06
3.33644e-07
1.16634e-06
3.26879e-07
1.16526e-06
6.4604e-07
3.16586e-07
7.27907e-08
7.21862e-08
3.21818e-07
6.28481e-07
1.01158e-06
1.16532e-06
3.28771e-07
1.16153e-06
3.22806e-07
6.42897e-07
3.2275e-07
7.17161e-08
3.12042e-07
7.3015e-08
6.38548e-07
1.18682e-06
3.22472e-07
1.03234e-06
6.36196e-07
1.20018e-06
3.29273e-07
3.21923e-07
7.1264e-08
3.14524e-07
7.26283e-08
6.35171e-07
1.01397e-06
3.40523e-07
1.21567e-06
3.3178e-07
1.21203e-06
6.53295e-07
3.2134e-07
7.4804e-08
7.37033e-08
3.27658e-07
6.46249e-07
1.04247e-06
1.22076e-06
3.39163e-07
1.21551e-06
3.29299e-07
6.64036e-07
3.21752e-07
7.44395e-08
7.33841e-08
3.30407e-07
1.74371e-07
1.80466e-07
1.04814e-06
1.77304e-07
1.82743e-07
3.42937e-08
3.49381e-08
3.48369e-08
3.43951e-08
1.07968e-06
1.80294e-07
1.87563e-07
1.82417e-07
1.87128e-07
3.57881e-08
3.51908e-08
6.68823e-07
1.22782e-06
3.25421e-07
1.01385e-06
6.52573e-07
1.24897e-06
3.30588e-07
3.2649e-07
7.27539e-08
3.22376e-07
7.35386e-08
3.33441e-07
7.18372e-08
3.22657e-07
7.18842e-08
6.79028e-07
1.07229e-06
1.26159e-06
3.42673e-07
1.26077e-06
3.39614e-07
6.86292e-07
6.76104e-07
1.02389e-06
1.24367e-06
3.36987e-07
1.2293e-06
3.2986e-07
6.83379e-07
3.27841e-07
7.50592e-08
7.48347e-08
3.35034e-07
3.33534e-07
7.35706e-08
7.23524e-08
3.36791e-07
3.34833e-08
3.41951e-08
3.38616e-08
3.39934e-08
1.09229e-06
1.82411e-07
1.7969e-07
1.79603e-07
1.82823e-07
3.51749e-08
3.44893e-08
3.45714e-08
3.42217e-08
3.50789e-08
3.58118e-08
3.50268e-08
3.54718e-08
1.8766e-07
1.8189e-07
1.07321e-06
1.88456e-07
1.81788e-07
3.64372e-08
3.59059e-08
3.64833e-08
3.57459e-08
1.11173e-06
1.9173e-07
1.87326e-07
1.91957e-07
1.86885e-07
3.39582e-07
7.57921e-08
3.35694e-07
7.69791e-08
6.84853e-07
3.40792e-07
1.23161e-06
1.07369e-06
6.70706e-07
3.47648e-07
1.26145e-06
6.84279e-07
3.48962e-07
1.24077e-06
1.10732e-06
6.79993e-07
3.5536e-07
1.25412e-06
3.37682e-07
7.77349e-08
7.61578e-08
3.38755e-07
3.39373e-07
7.77053e-08
7.80894e-08
3.44129e-07
6.96869e-07
1.06334e-06
3.56483e-07
1.26892e-06
3.49132e-07
1.26233e-06
7.01052e-07
6.96436e-07
1.11268e-06
3.62143e-07
1.27538e-06
3.59385e-07
1.26975e-06
6.99692e-07
1.89577e-07
1.86018e-07
1.10178e-06
1.88831e-07
1.86506e-07
3.56626e-08
3.60204e-08
3.68748e-08
3.64526e-08
1.15258e-06
1.93938e-07
1.9057e-07
1.93468e-07
1.89317e-07
3.68481e-08
3.62157e-08
6.67305e-07
3.33331e-07
1.17426e-06
1.04755e-06
6.51513e-07
3.41458e-07
1.1818e-06
3.32536e-07
7.36095e-08
3.21712e-07
7.50094e-08
6.7148e-07
1.17268e-06
3.29929e-07
1.04693e-06
6.49993e-07
1.18143e-06
3.40473e-07
3.29181e-07
7.63202e-08
7.54154e-08
3.36902e-07
6.73853e-07
1.04933e-06
3.50736e-07
1.20363e-06
3.42627e-07
1.18923e-06
6.88815e-07
3.33298e-07
7.76771e-08
7.58278e-08
3.41393e-07
6.77311e-07
1.06433e-06
1.19515e-06
3.51411e-07
1.18713e-06
3.41996e-07
6.87827e-07
3.35957e-07
7.52308e-08
3.27878e-07
7.58883e-08
6.82369e-07
1.24514e-06
3.4047e-07
1.08714e-06
6.71288e-07
1.24593e-06
3.49882e-07
3.37739e-07
7.53765e-08
3.32699e-07
7.59588e-08
6.87273e-07
1.05859e-06
3.53092e-07
1.24685e-06
3.46846e-07
1.24766e-06
6.95421e-07
3.35117e-07
7.77041e-08
7.6981e-08
3.43137e-07
6.8346e-07
1.08766e-06
1.25111e-06
3.53079e-07
1.2527e-06
3.49727e-07
6.97189e-07
3.35554e-07
7.73331e-08
7.67187e-08
3.42674e-07
1.82659e-07
1.94089e-07
1.1047e-06
1.83456e-07
1.8757e-07
3.59728e-08
3.60916e-08
3.68367e-08
3.59388e-08
1.13013e-06
1.89505e-07
1.90559e-07
1.86577e-07
1.90078e-07
3.65324e-08
3.61635e-08
6.90232e-07
1.22631e-06
3.39727e-07
1.05583e-06
6.82548e-07
1.22947e-06
3.48082e-07
3.43309e-07
7.57403e-08
3.35715e-07
7.64551e-08
3.4221e-07
7.44368e-08
3.38017e-07
7.57399e-08
7.00956e-07
1.11324e-06
1.24681e-06
3.57993e-07
1.25132e-06
3.53185e-07
6.93636e-07
6.95423e-07
1.07465e-06
1.24949e-06
3.57397e-07
1.23915e-06
3.50944e-07
7.09749e-07
3.43938e-07
7.79726e-08
7.69199e-08
3.50061e-07
3.43582e-07
7.77636e-08
7.6439e-08
3.4867e-07
3.53412e-08
3.59813e-08
3.4776e-08
3.55809e-08
1.1107e-06
1.8892e-07
1.92544e-07
1.88624e-07
1.87386e-07
3.66033e-08
3.62136e-08
3.6548e-08
3.57437e-08
3.70616e-08
3.72812e-08
3.66458e-08
3.74001e-08
1.98848e-07
1.91229e-07
1.13842e-06
1.96375e-07
1.93282e-07
3.78826e-08
3.74902e-08
3.787e-08
3.75713e-08
1.1741e-06
1.9905e-07
1.95911e-07
2.02739e-07
1.95679e-07
3.46456e-07
7.81362e-08
3.43626e-07
7.87374e-08
7.14673e-07
3.58101e-07
1.26875e-06
1.08926e-06
7.06042e-07
3.615e-07
1.25367e-06
7.1154e-07
3.62054e-07
1.27226e-06
1.11075e-06
7.02951e-07
3.68438e-07
1.29461e-06
3.48395e-07
8.00501e-08
7.94058e-08
3.5359e-07
3.48733e-07
8.05882e-08
7.96997e-08
3.56048e-07
7.16937e-07
1.09807e-06
3.67321e-07
1.2609e-06
3.63436e-07
1.25508e-06
7.23461e-07
7.17334e-07
1.11496e-06
3.70764e-07
1.28342e-06
3.68106e-07
1.29046e-06
7.23704e-07
1.96603e-07
1.94718e-07
1.14314e-06
1.96775e-07
1.93771e-07
3.6924e-08
3.75308e-08
3.83185e-08
3.74822e-08
1.17975e-06
2.01208e-07
1.98813e-07
2.0033e-07
1.9972e-07
3.82006e-08
3.77135e-08
6.99789e-07
3.55026e-07
1.20993e-06
1.085e-06
6.91134e-07
3.59216e-07
1.22633e-06
3.46779e-07
7.8333e-08
3.40777e-07
7.8958e-08
7.02028e-07
1.19983e-06
3.51815e-07
1.10975e-06
6.91615e-07
1.20966e-06
3.6243e-07
3.3942e-07
7.91756e-08
7.88387e-08
3.48181e-07
6.99132e-07
1.09929e-06
3.62931e-07
1.25396e-06
3.57615e-07
1.23931e-06
7.05729e-07
3.44299e-07
8.05435e-08
8.00974e-08
3.50658e-07
7.07203e-07
1.12405e-06
1.23392e-06
3.67705e-07
1.22195e-06
3.622e-07
7.12483e-07
3.50242e-07
7.85016e-08
3.45112e-07
7.90904e-08
7.08361e-07
1.23469e-06
3.51672e-07
1.09465e-06
6.9737e-07
1.23312e-06
3.56933e-07
3.47743e-07
7.83305e-08
3.39543e-07
7.86819e-08
7.05981e-07
1.11519e-06
3.65715e-07
1.24106e-06
3.60141e-07
1.23082e-06
7.10578e-07
3.48836e-07
7.98977e-08
7.94395e-08
3.55302e-07
7.08518e-07
1.11603e-06
1.24667e-06
3.66232e-07
1.24096e-06
3.60188e-07
7.13149e-07
3.4738e-07
7.99448e-08
7.96248e-08
3.5517e-07
1.92542e-07
1.97757e-07
1.16193e-06
1.94274e-07
1.95647e-07
3.68723e-08
3.7421e-08
3.83827e-08
3.80764e-08
1.19661e-06
1.98624e-07
1.99213e-07
1.98645e-07
1.99908e-07
3.80526e-08
3.72891e-08
7.20617e-07
1.25727e-06
3.613e-07
1.1171e-06
7.12048e-07
1.27481e-06
3.66772e-07
3.5453e-07
7.83583e-08
3.50629e-07
7.90568e-08
3.52154e-07
7.84455e-08
3.52411e-07
7.93333e-08
7.20475e-07
1.12841e-06
1.296e-06
3.70996e-07
1.28961e-06
3.6383e-07
7.33114e-07
7.19817e-07
1.12137e-06
1.29958e-06
3.73194e-07
1.30179e-06
3.67812e-07
7.33036e-07
3.54723e-07
8.00152e-08
7.88563e-08
3.60258e-07
3.52717e-07
8.03604e-08
8.01263e-08
3.58171e-07
3.67464e-08
3.7252e-08
3.70018e-08
3.72567e-08
1.18091e-06
1.96406e-07
2.0066e-07
1.94584e-07
1.99993e-07
3.78126e-08
3.74702e-08
3.81399e-08
3.74036e-08
3.81821e-08
3.83202e-08
3.79616e-08
3.80792e-08
2.00796e-07
1.99529e-07
1.16581e-06
2.031e-07
1.98964e-07
3.89863e-08
3.84895e-08
3.8938e-08
3.8238e-08
1.22183e-06
2.04049e-07
2.01719e-07
2.05924e-07
2.031e-07
3.57899e-07
8.1621e-08
3.54825e-07
8.18309e-08
7.33062e-07
3.68165e-07
1.27207e-06
1.15088e-06
7.29124e-07
3.74135e-07
1.28595e-06
7.32244e-07
3.75015e-07
1.27239e-06
1.15638e-06
7.31228e-07
3.76595e-07
1.28338e-06
3.6028e-07
8.16549e-08
8.08989e-08
3.64033e-07
3.55658e-07
8.21706e-08
8.18765e-08
3.61832e-07
7.31627e-07
1.16709e-06
3.82807e-07
1.32255e-06
3.76028e-07
1.29525e-06
7.3885e-07
7.27181e-07
1.16799e-06
3.76068e-07
1.3002e-06
3.75815e-07
1.29586e-06
7.41028e-07
2.04712e-07
2.0294e-07
1.19529e-06
2.04569e-07
2.01602e-07
3.8535e-08
3.88409e-08
3.89536e-08
3.85541e-08
1.23629e-06
2.04323e-07
2.04533e-07
2.08207e-07
2.06287e-07
3.9056e-08
3.89341e-08
7.18129e-07
3.66335e-07
1.25915e-06
1.14397e-06
7.16621e-07
3.68186e-07
1.29584e-06
3.54513e-07
8.10214e-08
3.4817e-07
8.13517e-08
7.07945e-07
1.24397e-06
3.68228e-07
1.16225e-06
7.14356e-07
1.26214e-06
3.7227e-07
3.51146e-07
8.15076e-08
8.04233e-08
3.56194e-07
7.18351e-07
1.1536e-06
3.71489e-07
1.30841e-06
3.67605e-07
1.29909e-06
7.26628e-07
3.5313e-07
8.24899e-08
8.19065e-08
3.57119e-07
7.08112e-07
1.15026e-06
1.28873e-06
3.78042e-07
1.27633e-06
3.69556e-07
7.16863e-07
3.5892e-07
8.09951e-08
3.51452e-07
8.11784e-08
7.24689e-07
1.26559e-06
3.66245e-07
1.1735e-06
7.162e-07
1.27707e-06
3.71266e-07
3.5675e-07
8.05192e-08
3.53272e-07
8.10749e-08
7.32176e-07
1.15978e-06
3.77293e-07
1.29697e-06
3.72999e-07
1.28095e-06
7.23573e-07
3.56471e-07
8.20054e-08
8.1346e-08