/*--------------------------------*- C++ -*----------------------------------*\
| =========                 |                                                 |
| \\      /  F ield         | OpenFOAM: The Open Source CFD Toolbox           |
|  \\    /   O peration     | Version:  2206                                  |
|   \\  /    A nd           | Website:  www.openfoam.com                      |
|    \\/     M anipulation  |                                                 |
\*---------------------------------------------------------------------------*/
FoamFile
{
    version     2.0;
    format      ascii;
    arch        "LSB;label=32;scalar=64";
    class       volScalarField;
    location    "110";
    object      omega;
}
// * * * * * * * * * * * * * * * * * * * * * * * * * * * * * * * * * * * * * //

dimensions      [0 0 -1 0 0 0 0];

internalField   nonuniform List<scalar> 
66701
(
400.368
419.159
297.686
207.683
329.515
146.371
164.048
309.194
419.175
297.654
207.615
329.622
147.416
309.434
163.909
400.373
718.078
1589.87
4386.77
16429
116912
715.186
1588.94
4385.36
16421.9
116840
739.127
1609.94
4419.62
16483.4
116802
739.352
1610
4419.67
16483.9
116814
718.136
1589.79
4386.49
16427
116892
715.236
1588.98
4385.46
16422.3
116852
726.95
1600.17
4403.44
16449.5
116752
726.093
1594.8
4392.71
16428.1
116727
726.985
1600.13
4403.47
16449.1
116747
726.07
1594.72
4392.66
16428
116725
399.919
401.547
30.5459
196.863
198.463
297.191
27.875
131.561
148.853
297.923
62.9069
28.5745
136.616
22.4242
149.495
297.906
63.8034
28.0695
22.3438
137.123
401.548
30.6637
197.694
400.905
243.563
403.669
404.546
242.583
403.807
404.757
157.327
306.452
93.4021
193.924
153.385
305.659
89.1696
155.752
307.415
94.5964
197.147
154.333
307.261
91.9016
329.171
165.274
309.484
145.591
329.332
160.911
309.181
418.785
208.544
298.227
418.998
207.683
329.167
309.492
165.143
147.673
329.319
309.678
160.739
418.864
208.851
298.26
419.194
207.602
400.817
242.844
404.483
403.585
155.627
95.4475
196.187
92.0251
306.987
155.982
195.082
305.627
92.8783
399.502
18.8001
16.6485
16.8448
15.6009
18.6256
16.6299
16.6987
15.5138
16.8223
15.5225
16.7645
15.4865
81.8599
28.8211
49.9324
50.622
80.371
46.1883
48.5037
41.2665
83.1505
62.1285
129.197
59.6773
39.9344
81.4746
35.4288
71.352
32.6244
59.6512
34.7215
67.4123
30.7446
43.116
92.9031
62.897
134.01
59.4701
40.8294
89.438
35.4156
32.9199
71.5329
60.8782
34.7171
31.5335
68.136
42.3668
94.2399
63.1365
133.996
41.5926
89.9529
58.9777
81.8587
28.8443
50.0159
48.0946
48.7573
718.041
1589.95
4386.86
16428.8
116912
717.987
1589.86
4386.8
16429.1
116912
739.57
1610.2
4419.83
16484.1
116814
739.333
1610.05
4419.67
16483.5
116802
739.476
1610.09
4419.76
16484.2
116814
718.132
1589.83
4386.51
16427.1
116892
717.981
1589.7
4386.72
16429
116912
726.882
1600.09
4403.43
16449.6
116752
726.151
1594.8
4392.76
16428.3
116727
727.103
1600.23
4403.48
16449.7
116752
725.859
1594.65
4392.68
16428.2
116727
739.227
1609.81
4419.47
16483.5
116802
726.738
1600.08
4403.45
16449.2
116747
726.134
1594.79
4392.73
16428.2
116725
727.035
1600.24
4403.52
16449.2
116747
725.899
1594.66
4392.65
16428.1
116725
739.142
1609.83
4419.53
16484
116814
717.796
1589.68
4386.42
16427
116892
738.436
1608.9
4417.27
16477.4
116759
718.464
1589.82
4386.32
16426.3
116881
716.508
1593.21
4394
16441.2
116901
738.551
1609.01
4417.52
16477.3
116776
738.209
1608.75
4417.27
16477.1
116776
716.524
1593.24
4394.02
16442.4
116921
738.321
1609.05
4417.61
16479.2
116795
738.187
1608.82
4417.41
16479
116795
716.507
1593.05
4393.88
16441.1
116901
716.518
1593.09
4393.92
16442.4
116921
715.044
1588.88
4385.28
16421.9
116840
715.292
1589.04
4385.38
16422
116840
715.09
1588.93
4385.41
16422.3
116852
715.353
1589.09
4385.49
16422.3
116852
738.118
1608.87
4417.38
16478.2
116777
716.384
1593.18
4394.22
16443.5
116918
716.559
1593.21
4394.19
16442.8
116904
26.1883
29.538
18.4239
27.5884
27.0197
29.9697
18.5139
27.7761
27.3392
30.4722
18.5839
27.9274
27.3539
30.564
18.6414
28.061
27.4762
30.6798
18.7471
28.2606
27.7332
30.6841
18.7214
28.4511
27.7186
30.6746
18.7278
28.5185
27.7683
30.5753
18.802
28.2626
27.7109
30.5032
18.7426
28.5301
27.6387
30.5891
18.6623
28.4062
27.6147
30.2805
18.797
28.2758
27.7034
30.4789
18.7606
28.2647
27.7637
30.3448
18.778
28.2421
27.5925
30.5612
18.5028
28.2455
27.6741
30.5498
18.7962
28.1839
27.8645
30.829
18.8714
28.0491
27.5408
30.5375
29.1554
29.5258
26.558
25.7008
27.0324
29.5085
30.1805
30.1702
26.9157
27.346
27.4421
27.63
30.0246
29.7678
27.5042
27.2068
27.8359
27.7346
27.7324
27.2862
28.0457
27.7923
29.8151
25.4936
26.5767
27.4862
29.2269
29.2816
30.0457
26.2266
27.0663
27.6316
27.5017
28.3752
29.8495
26.5684
26.4659
27.9834
27.9164
26.2818
27.4711
28.0362
28.8575
29.9469
25.7855
26.9473
27.7058
30.2728
27.9818
30.3661
25.527
26.9436
27.8558
27.7945
28.4811
29.862
26.9096
27.1382
28.3702
28.4669
27.2596
27.5922
28.539
28.0545
29.9943
26.0199
26.9794
27.5563
29.3973
29.4394
30.4148
27.0247
27.3308
27.7673
27.7498
28.5039
30.0225
27.4181
26.8688
28.4387
28.4612
26.2966
27.3155
28.5453
29.2742
30.0786
26.6593
27.3857
27.7453
30.2134
29.5215
29.8929
26.8015
26.7983
27.8489
27.7688
29.2933
30.0804
27.7112
26.1412
28.4294
28.6002
27.9127
27.0941
28.4775
29.0255
29.9643
26.1069
26.2647
28.2044
29.2495
28.7444
29.9123
26.9651
26.0053
27.857
28.1667
29.2257
30.087
27.3567
26.3967
28.4333
28.6767
27.4383
27.15
28.4239
28.5861
29.9504
27.5345
27.3746
28.0436
30.1825
28.9665
30.078
27.376
27.4797
27.9242
27.9707
28.7439
30.0027
26.3783
27.9849
28.8544
28.4576
27.3518
27.7983
28.5029
27.7993
29.9637
26.911
27.2469
27.7425
29.8548
28.7475
30.0927
27.1739
26.9224
27.8733
27.8644
28.9917
30.2575
28.1654
26.6148
28.5004
28.4304
27.5931
27.1174
28.5875
28.5089
29.9067
26.8443
27.2239
27.776
30.1836
28.8159
30.3938
26.7884
26.8454
28.0736
28.0952
29.1303
30.1309
27.3869
27.6988
28.3668
28.6182
28.0616
27.9561
28.578
28.5436
29.8655
26.8221
27.1937
27.8449
28.9075
28.7563
30.2588
27.0939
26.8426
27.9959
27.9637
28.8968
29.9779
26.4752
27.3742
28.7224
28.2178
28.0234
27.7723
28.493
28.8033
29.8502
26.7546
27.3397
27.7469
29.9149
29.4521
30.2449
27.4816
25.6533
27.8653
28.081
28.2532
30.0737
26.7609
27.5681
28.3574
28.2571
27.5336
27.7952
28.3511
27.9021
30.1443
26.4856
26.322
27.7048
29.9589
29.5413
30.2433
26.8855
27.2362
27.7721
27.8389
28.9119
30.251
27.5852
27.3265
28.3649
28.3973
27.5616
27.7667
28.3371
29.294
30.1378
26.613
27.1823
27.7286
30.3125
28.1627
30.0591
25.5916
26.4593
28.022
27.7247
29.2571
30.1414
27.3433
26.5691
28.3329
28.3546
27.5719
27.7463
28.4281
27.9919
29.8875
26.5815
26.7064
27.6688
30.1751
28.6205
30.0096
27.2279
26.5472
27.8839
27.6649
28.3256
30.2282
26.4186
27.2695
28.7307
28.3087
26.5123
27.7655
28.4982
28.4971
30.0425
25.8816
26.5589
27.9125
30.6473
28.1748
30.1123
25.6123
26.6664
28.5331
28.4303
29.2019
30.0782
27.7445
27.4026
28.2429
28.2031
26.9921
26.7198
28.2605
28.1364
30.0127
26.0687
26.4781
28.1177
30.5092
27.9294
29.3683
26.2039
27.2201
27.0739
27.8388
27.2343
401.31
400.325
58.5652
20.9906
130.319
25.853
131.086
58.3327
20.8227
197.367
195.858
29.7633
195.197
197.07
143.534
296.725
296.39
143.718
400.316
399.99
147.68
298.514
298.506
148.408
18.3445
18.4367
18.3229
18.2684
18.2275
18.5021
18.4854
62.119
137.398
21.7584
26.4756
136.529
21.3934
63.3378
401.629
401.371
59.2751
21.3385
133.838
25.6863
59.3898
21.1728
133.708
198.417
195.805
30.0419
198.028
195.746
143.21
296.38
144.618
295.958
400.31
399.479
147.104
298.229
148.432
298.344
18.4499
18.2037
18.2731
18.3558
18.5687
18.6222
18.5962
61.6383
136.604
22.0022
26.5399
61.8418
136.455
21.5859
401.289
401.063
59.4538
21.5499
135.221
26.1368
59.2771
21.3304
133.987
198.066
195.942
30.3674
197.769
195.808
143.104
296.07
142.826
295.827
399.139
399.154
147.491
298.21
147.596
298.424
18.5195
18.4468
18.2804
18.6602
18.6497
18.6878
18.5575
62.3174
136.787
22.2515
26.5678
62.7964
135.823
21.8359
401.541
400.757
59.9123
21.6694
134.782
26.1471
60.3726
21.113
133.603
197.115
195.816
30.1567
197.826
195.847
142.956
295.83
143.347
295.678
399.971
399.101
148.183
298.015
149.239
298.129
18.2962
18.5131
18.3658
18.7222
18.7075
18.7071
18.7269
62.563
136.883
22.1218
27.1264
63.1523
136.414
21.9078
401.077
400.72
59.5377
21.7016
134.117
26.4216
59.5139
21.1015
133.733
197.465
195.944
30.5032
197.799
195.807
142.931
295.695
143.434
295.628
398.98
398.957
147.791
297.956
148.473
298.044
18.2867
18.5968
18.2739
18.6438
18.7344
18.7698
18.6912
62.835
136.78
22.3198
26.2063
62.6669
135.825
22.0523
401.341
400.562
59.2538
21.8236
134.639
26.8579
60.4041
20.9418
133.667
198.086
196.09
30.386
197.999
195.896
142.983
295.894
144.049
295.835
399.289
398.816
147.709
297.839
148.58
298.096
18.214
18.5542
18.2701
18.6504
18.5237
18.747
18.7832
62.3651
137.416
22.3915
26.216
63.1717
136.225
21.5865
400.867
400.612
59.6941
21.951
134.614
27.0342
60.2185
21.5573
133.685
197.807
195.27
30.5325
197.933
195.804
142.648
295.679
143.968
295.538
399.156
399.074
147.008
297.953
148.153
298.192
18.3179
18.6706
18.4226
18.4625
18.7913
18.7999
18.8776
62.6529
136.562
22.575
26.9081
62.8787
136.459
22.0881
400.645
400.554
59.287
21.8965
134.334
26.4325
60.7626
21.3354
133.655
198.212
196.205
30.4165
197.916
195.872
142.612
295.665
142.135
295.529
399.234
399.033
147.869
297.853
148.658
297.962
18.2629
18.5649
18.255
18.6628
18.8118
18.8306
18.8794
62.7991
137.167
22.4353
26.0666
62.5182
136.472
21.9074
400.537
400.464
59.7531
21.8986
134.355
26.3432
60.5667
21.4857
133.651
198.106
195.987
30.4775
197.521
196.006
142.557
295.734
143.068
295.667
399.012
399.045
147.061
297.981
147.648
298.249
18.6884
18.6513
18.7461
18.7863
18.8062
18.8189
18.8271
62.0154
137.671
22.3917
26.5522
62.5602
136.594
21.5115
400.419
400.384
59.6582
21.9529
134.228
26.2084
59.7441
21.5839
133.573
197.908
196.303
30.5041
197.652
195.821
143.349
295.82
143.557
295.645
399.307
399.137
147.081
297.871
148.196
298.091
18.3223
18.5545
18.7047
18.7351
18.8285
18.5899
18.7629
62.2496
136.772
22.5317
27.017
62.5201
136.562
22.0633
400.556
400.638
59.4925
21.8844
133.978
26.4137
60.862
21.1442
133.468
198.186
195.885
30.194
197.408
195.713
142.609
295.64
143.567
295.633
399.037
398.842
147.266
297.752
148.002
298.006
18.5437
18.2323
18.2702
18.7804
18.7801
18.4895
18.8092
62.2847
136.954
22.4558
26.9927
62.7375
136.296
21.784
400.788
401.85
59.2553
22.0007
134.411
26.8079
59.3388
21.5492
133.297
198.313
196.464
30.3697
197.788
195.686
142.109
295.685
143.252
295.589
399.152
399.109
147.681
297.735
147.005
298.059
18.525
18.6898
18.2701
18.4992
18.7967
18.8383
18.5032
62.5788
136.969
22.3699
26.9912
62.2559
136.493
21.6575
401.164
400.489
59.269
21.9314
133.769
26.4635
58.9019
21.2332
133.249
197.944
196.08
30.2585
197.564
195.963
143.585
295.569
144.411
295.653
398.891
398.964
147.42
297.96
148.412
298.096
18.4221
18.4229
18.6805
18.8104
18.7917
18.8196
18.5642
63.0505
137.212
22.3314
26.9724
62.6377
136.451
21.6835
400.896
400.672
58.7111
21.8435
133.373
26.6142
59.4408
21.3833
133.451
197.959
196.022
30.3723
197.556
195.994
142.672
295.807
143.238
295.754
398.754
398.965
147.655
297.863
147.856
297.941
18.5543
18.4049
18.7488
18.4972
18.7665
18.8014
18.8387
62.9268
136.984
22.3651
26.8044
63.1254
136.442
21.695
401.015
400.453
59.5836
21.8893
133.827
25.7037
60.151
21.0836
133.486
197.94
196.062
30.5087
197.678
195.363
144.313
295.858
143.739
296.092
399.505
399.225
147.75
298.039
147.462
298.209
18.3348
18.4833
18.6628
18.9297
18.8205
18.623
18.7406
62.4175
138.139
22.3543
25.84
62.2575
136.201
21.7627
401.127
400.36
60.2074
22.0019
133.647
27.1661
60.9088
21.602
133.591
198.088
196.047
30.4699
197.594
195.605
400.376
297.112
147.861
18.5514
18.2463
18.4084
136.171
21.1597
61.8973
399.929
21.9638
132.876
60.8785
197.145
195.62
196.553
193.914
28.942
193.701
195.091
399.244
399.256
401.126
400.689
27.9793
197.133
195.316
190.108
192.49
399.473
400.452
57.6746
20.9784
131.87
25.6871
132.441
58.1526
20.8307
141.804
295.394
295.267
141.932
141.802
296.196
296.064
140.761
56.6878
25.6083
20.9743
132.301
129.199
58.5142
20.8028
54.2041
25.656
21.3404
131.835
126.746
58.1134
20.8028
136.482
296.145
295.395
141.686
139.044
295.936
296.146
142.339
401.755
401.381
400.288
399.969
28.6296
197.94
193.254
192.737
193.826
401.269
402.34
399.399
401.414
400.316
399.915
402.379
401.223
195.943
197.931
30.0753
195.681
197.897
399.503
400.387
401.262
401.77
28.0851
194.86
197.197
192.476
194.804
143.34
296.473
296.316
143.4
58.5262
133.944
21.3293
25.5606
133.826
21.1246
59.3313
58.8957
133.959
21.3569
26.7796
133.595
21.1918
59.7566
140.331
296.368
296.308
140.237
140.777
295.948
296.194
142.874
54.9525
27.0667
133.33
21.5388
126.236
21.0044
58.9366
54.8059
26.3266
132.2
21.6083
127.749
21.059
58.8407
195.699
197.675
30.0115
195.703
197.718
401.866
401.196
399.426
401.1
28.3834
195.071
196.973
192.796
194.679
400.707
402.897
61.612
137.242
21.7608
25.8173
136.263
21.2661
62.2083
147.068
298.675
298.359
148.221
61.1666
21.6964
136.682
25.6965
21.0243
136.514
62.399
143.833
298.129
298.321
147.589
55.1419
27.4213
135.708
21.9378
128.16
21.2729
62.6061
139.749
297.98
298.233
147.823
59.4876
27.3107
21.8723
134.901
21.7104
130.316
61.8603
147.388
298.458
298.372
147.734
62.321
21.925
136.55
26.0541
21.4676
136.495
62.8198
147.005
298.333
298.312
147.3
58.6616
27.0221
135.255
21.827
129.327
21.6604
61.1373
144.202
297.999
298.3
147.17
60.301
27.6604
22.056
134.93
21.4397
130.381
62.0061
141.717
297.874
298.188
146.928
194.228
191.192
29.6532
197.531
195.467
400.3
399.826
401.283
402.519
29.0198
197.217
195.286
192.937
191.269
399.455
400.494
58.4394
20.8201
126.998
26.8364
55.1495
21.4249
132.017
142
295.966
137.095
295.91
141.764
296.012
137.284
295.958
57.6093
27.1013
20.9706
130.705
21.0429
128.113
57.4817
54.6404
26.2312
21.5791
132.199
21.0557
127.368
59.2989
137.509
295.941
295.996
142.46
137.181
296.141
296.171
142.716
402.119
401.353
400.267
399.811
29.2483
197.752
195.436
196.362
192.528
400.833
402.164
399.494
400.535
399.943
399.285
402.039
400.818
191.854
194.457
29.8311
194.641
196.947
399.22
400.048
401.008
401.405
27.8882
194.596
197.118
192.106
194.492
142.538
295.861
140.722
295.859
58.6507
130.273
20.8246
25.5546
54.963
132.328
21.4372
59.2408
126.934
20.9079
26.3352
52.8163
132.473
21.5058
135.182
295.951
296.07
137.2
135.975
295.722
295.831
143.185
56.2573
27.2891
132.433
21.7288
129.894
21.1849
59.5038
56.8957
26.5559
131.775
21.7773
126.534
21.243
59.2516
192.609
194.214
29.8165
195.398
196.869
402.548
400.676
399.87
400.127
28.372
194.893
196.812
192.609
194.426
400.556
401.527
62.5534
127.721
21.2707
25.8332
60.8615
136.042
21.9686
147.238
297.939
139.597
297.911
62.4815
21.3501
131.297
27.163
56.611
21.3981
135.377
139.837
298.078
298.101
142.846
60.8795
27.6277
135.491
22.2888
133.624
21.6938
62.6462
143.746
297.914
297.896
146.613
56.4713
27.3379
22.2018
134.944
22.2168
131.479
62.8389
146.295
298.022
140.51
297.772
61.3819
21.8885
129.394
27.8759
57.9405
21.5972
134.89
145.982
298.118
140.901
298.093
57.8715
26.1908
136
22.1426
134.416
21.4926
62.4197
141.374
298.06
297.917
146.37
57.5821
27.2638
22.1418
135.447
21.4887
131.753
61.8573
140.99
297.936
298.016
146.322
195.658
193.445
29.7104
196.948
194.861
400.321
399.475
400.861
401.651
27.5959
197.302
195.074
193.273
192.725
399.146
400.237
59.3097
20.866
127.278
27.268
56.3278
21.4911
132.586
143.009
296.103
134.699
296.096
142.759
296.081
138.45
295.713
57.0194
25.7435
21.5028
134.036
21.45
127.029
57.0625
53.9015
26.3926
21.7844
132.569
21.2389
126.771
58.8782
140.124
296.14
295.976
142.133
139.237
295.946
295.881
142.798
401.657
400.987
400.274
399.59
29.418
196.133
195.029
194.772
192.427
400.449
401.573
399.061
400.424
399.816
399.039
401.752
401.057
191.637
195.38
30.1453
194.498
197.433
399.028
399.878
400.935
401.725
28.0298
194.749
197.536
192.157
195.174
143.044
295.681
140.807
295.611
58.6089
128.942
21.1987
27.0646
55.8746
132.146
20.8482
58.8308
126.548
21.478
26.5094
55.8065
131.909
21.6337
137.731
295.744
296.015
142.415
139.518
295.617
295.57
143.212
54.8486
26.5106
131.579
21.7883
126.971
21.6344
59.0435
54.3131
26.3654
131.931
21.7854
127.284
21.6743
59.4477
192.071
194.785
29.8291
194.861
196.863
401.402
400.837
399.163
400.5
28.4939
194.762
197.153
191.841
195.745
400.648
402.496
62.2327
130.768
21.9419
26.5525
60.1356
136.12
22.0931
146.813
297.816
141.216
297.692
62.0638
21.9358
132.923
26.7075
60.9723
21.5045
135.648
142.158
298.257
297.936
145.202
59.0683
27.9289
135.668
22.3255
130.414
22.1307
62.2757
142.184
297.603
297.651
147.124
60.2426
28.0512
22.4216
135.341
22.2792
133.133
62.6113
146.421
298.02
141.694
298.045
61.9267
21.9019
127.115
26.6696
58.4103
22.1051
136.009
146.327
297.824
141.788
297.586
60.3546
26.2751
135.565
21.6723
129.213
21.527
59.9843
141.617
297.916
297.864
146.637
59.3489
28.2836
22.2805
135.793
22.1171
129.172
62.3245
141.537
297.583
297.768
146.652
195.78
191.157
29.9581
197.055
195.375
399.975
399.403
400.739
401.796
29.2905
197.01
195.194
195.872
193.69
398.947
400.94
58.7021
20.9957
127.561
27.5365
55.424
21.6469
131.955
143.305
296.191
136.01
295.655
141.805
295.758
138.203
295.809
57.8701
26.7104
21.5208
133.227
21.0039
127.822
57.4413
55.3341
26.5902
21.89
132.943
21.3461
124.097
58.726
138.386
295.884
295.723
142.519
135.384
295.776
295.663
141.943
401.25
400.894
400.023
399.488
28.5266
196.68
193.69
196.328
194.496
400.421
401.775
398.787
401.173
399.536
399.168
401.575
400.87
190.735
195.487
30.0755
195.325
197.481
398.822
400.493
400.894
401.67
28.0881
195.243
197.474
191.059
196.217
142.058
295.647
140.887
295.542
59.0945
126.575
20.9931
27.3116
52.6494
131.545
21.7052
59.1659
126.968
21.3587
26.5546
53.8162
131.856
21.2259
140.278
295.645
295.524
138.576
139.142
295.502
295.633
141.985
53.4418
27.3273
132.553
22.0235
123.806
21.4783
59.3453
57.0182
26.9978
131.745
21.7929
127.102
21.182
58.4828
192.737
194.294
29.7855
195.405
197.209
401.519
400.665
399.022
400.467
28.857
194.786
196.777
193.38
194.214
400.388
401.652
62.2368
128.069
21.8934
26.9933
59.9329
136.987
21.7393
146.577
297.621
143.431
297.589
62.0343
21.7837
132.714
26.0928
59.1347
21.6846
135.554
144.995
297.894
298.145
144.129
56.6799
26.905
136.362
22.4542
129.248
22.1336
62.8995
140.461
297.827
297.574
147.109
58.2923
28.0581
22.1268
135.444
22.5346
132.367
62.1057
146.588
297.803
142.332
297.732
62.3933
21.6712
131.046
28.022
56.0858
21.9563
135.881
146.103
297.762
140.855
297.459
56.2901
26.9417
135.903
21.8151
130.51
21.7611
61.7047
143.774
297.809
297.644
146.601
60.051
27.0928
22.2745
135.782
22.0407
127.044
62.1486
141.249
297.693
297.595
146.559
195.781
190.761
29.9478
197.244
195.365
399.819
399.269
400.57
401.43
28.8836
196.855
195.296
196.001
191.808
398.965
400.813
58.6194
21.6218
125.958
27.1707
56.077
21.3422
133.192
141.842
295.659
136.698
295.826
141.836
295.696
137.356
295.675
55.5592
27.002
21.6328
134.018
21.0488
130.615
57.252
54.227
27.248
21.8456
132.51
21.2254
129.312
59.4656
136.742
295.93
295.726
142.003
137.295
295.809
295.94
142.77
401.391
400.77
399.759
399.183
28.3879
195.612
193.94
196.555
192.359
400.333
401.661
398.888
400.29
399.461
399.158
401.789
400.69
193.817
195.331
30.136
195.321
197.086
398.968
399.812
400.675
401.338
28.5114
195.103
197.03
193.504
194.711
142.759
295.618
140.039
295.433
58.7835
124.899
21.6566
27.2457
57.4424
133.081
21.781
59.7784
126.82
21.0512
27.2728
56.8452
131.871
21.7924
135.94
295.76
295.892
139.701
138.214
295.387
295.534
142.921
53.6479
27.5012
133.282
21.9155
129.847
21.7697
59.3437
56.0008
27.3018
131.664
22.0514
127.011
21.5165
59.3134
191.966
194.142
29.9722
194.629
196.753
401.209
400.477
399.049
399.677
29.251
194.534
196.678
191.675
193.818
400.353
401.532
62.2892
128.492
21.991
27.9981
60.7156
136.685
22.1987
148.239
297.864
143.89
297.632
62.5226
22.1528
130.255
27.845
57.7405
22.3228
135.195
144.735
297.733
298.098
144.274
57.4419
27.9865
135.296
22.434
132.731
22.2407
62.5395
141.001
297.921
297.667
148.363
59.7467
27.1573
22.5529
135.447
22.4366
131.957
62.9521
146.868
297.784
144.162
297.828
62.7662
21.8896
132.858
27.0794
56.6857
21.7243
135.339
146.657
297.908
142.126
297.736
60.4728
27.8371
135.309
21.6547
128.925
21.8301
59.8778
144.919
297.895
297.611
147.254
56.5564
27.8498
22.4082
135.734
22.0685
128.157
63.0393
140.44
297.509
297.696
146.839
195.453
192.046
30.0263
196.762
195.339
399.848
399.181
400.386
402.224
28.4923
197.014
194.921
195.503
193.274
399.069
400.755
58.8454
21.1696
127.188
27.7189
55.9099
21.8807
132.449
142.182
295.71
137.624
295.735
142.756
295.614
138.956
295.77
55.9671
26.4955
21.3366
134.008
21.6591
130.603
59.3813
55.3019
26.8929
22.0837
131.905
21.5185
126.588
58.9791
137.266
295.929
295.997
141.916
138.133
295.605
295.536
142.097
401.422
400.757
399.907
399.225
28.7469
195.38
193.132
196.541
192.972
400.369
402.423
398.774
400.249
399.499
399.075
401.426
400.707
190.894
194.896
29.9544
195.337
197.073
399.275
399.673
400.74
401.352
28.3855
195.211
197.48
191.689
193.855
141.999
295.41
137.476
295.472
58.9502
129.297
21.3189
26.5132
54.2705
131.985
21.573
58.7086
126.632
21.306
27.6922
55.3228
132.583
21.5381
138.494
296.052
295.845
143.214
138.265
295.36
295.576
143.236
55.2852
26.3937
131.991
21.8463
128.52
21.6403
58.768
55.5802
26.7727
131.698
21.904
126.55
21.7698
59.1649
192.132
194.885
30.0395
194.783
196.897
401.198
400.555
399.057
399.413
28.9911
194.708
197.172
192.439
195.627
400.378
402.253
62.312
130.239
21.7645
27.8138
59.6566
134.958
21.357
147.18
297.614
144.543
297.428
62.8406
21.9122
127.228
28.0343
56.7474
22.1337
135.919
141.85
297.781
297.742
147.433
58.134
28.0891
135.6
22.4839
131.434
22.3379
62.2358
141.966
297.846
297.478
146.977
60.9399
27.2206
22.4147
134.984
22.2062
132.912
62.5518
147.189
297.781
140.08
297.727
62.5345
21.979
127.771
27.9263
61.089
22.1962
136.067
146.194
297.718
142.084
297.424
59.0585
27.9059
135.205
21.9304
129.108
22.3772
61.8445
139.281
297.506
297.524
147.335
57.5236
27.9557
22.4411
136.027
22.2574
127.896
62.1639
141.263
297.621
297.646
146.146
195.823
193.022
30.1039
197.364
195.234
400.417
399.068
400.556
401.331
28.5731
197.034
194.779
196.248
193.584
398.838
400.469
59.5285
21.2569
126.827
26.5526
54.5372
21.9685
132.147
141.854
295.743
137.186
295.843
141.96
295.698
137.393
295.499
54.5825
27.2745
21.7353
129.813
21.6971
131.046
60.4346
57.3667
27.6985
21.9664
131.991
21.8532
127.488
59.2638
135.526
295.698
295.69
142.134
137.184
295.753
295.557
142.247
401.434
400.675
399.756
399.192
29.7424
197.804
195.808
194.461
192.588
400.448
401.738
399.096
400.253
400.081
399.103
401.48
400.673
191.822
195.281
30.0734
195.646
197.01
399.144
399.749
400.491
401.337
28.9547
195.33
196.83
193.529
194.391
142.007
295.503
139.688
295.345
58.7113
123.846
20.9195
26.7164
55.4413
132.86
21.6535
58.8912
126.75
21.359
26.6604
53.9423
131.87
21.214
136.122
295.609
295.515
138.615
136.946
295.41
295.417
142.328
54.989
26.4804
131.857
21.9736
129.042
21.3511
58.8695
54.0878
27.3539
131.874
21.9112
127.335
21.6537
59.257
192.676
195.883
30.1363
195.106
197.109
401.34
400.563
398.95
400.481
28.5202
194.716
196.974
192.312
196.054
400.447
401.664
61.8645
131.911
21.6902
28.0632
57.9692
135.397
21.3164
145.921
297.588
141.163
297.423
61.7278
21.95
132.514
27.2083
58.629
21.6999
134.761
140.775
297.757
297.661
147.952
58.1509
27.4666
134.959
22.4743
130.448
22.3101
62.3926
142.483
297.763
297.293
146.905
57.8793
26.948
22.5506
134.584
22.3983
128.993
61.9918
146.444
297.623
144.557
297.476
61.7979
21.8356
132.859
27.836
57.8475
22.1463
135.047
147.166
297.833
143.482
297.364
56.582
26.391
132.797
22.2607
133.909
22.2264
58.6695
139.265
297.942
297.76
147.04
57.8696
28.1349
22.4154
135.606
22.2166
127.934
61.768
143.637
297.41
297.507
146.605
193.234
193.238
30.162
197.065
194.785
399.737
399.014
400.215
401.89
29.1966
196.805
194.755
192.876
192.902
398.743
399.852
58.9059
21.0548
126.767
26.3831
57.3385
21.8206
132.142
142.648
295.565
137.781
295.511
142.655
295.611
138.02
295.441
55.6533
27.0003
21.6973
129.859
21.6064
130.908
57.2913
53.72
26.8303
21.8849
132.316
21.6244
127.946
59.9048
136.728
295.618
295.654
143.152
139.736
295.71
295.634
143.149
401.315
400.653
400.156
399.182
28.8934
197.775
193.431
196.287
192.395
400.412
401.736
398.993
400.223
399.744
399.108
401.194
400.516
192.756
194.213
30.0003
194.722
196.749
398.849
399.764
400.513
401.266
28.744
194.652
196.822
192.097
194.218
143.21
295.52
135.571
295.387
58.6737
126.706
21.6766
27.5226
54.6498
131.83
21.3282
59.7544
127.125
20.9659
27.4161
56.8896
131.994
21.726
136.155
295.602
295.565
141.751
136.903
295.534
295.371
142.878
54.9994
27.4554
132.123
21.8385
127.719
21.3163
59.0965
57.3926
27.4117
133.381
22.0303
126.33
21.4349
59.1996
192.791
195.774
30.05
195.006
196.925
401.322
400.583
398.923
399.9
28.1978
195.137
197.203
193.372
193.461
400.298
401.427
63.0887
129.684
21.7891
27.2066
59.3973
134.955
22.1062
146.943
297.325
144.059
297.317
61.977
22.0244
126.902
28.2391
57.6736
21.7594
135.694
139.762
297.754
298.016
145.324
60.7683
27.8878
131.885
22.4666
128.612
22.2259
62.7885
142.755
297.736
297.312
146.461
58.2809
26.9311
22.3752
134.87
21.7913
132.792
62.5021
146.723
297.868
144.359
297.529
62.6468
21.3776
128.432
27.1623
59.5414
22.2015
135.673
147.054
297.608
144.456
297.751
60.647
27.7684
133.4
21.964
133.055
21.7843
60.9426
140.474
297.912
297.716
146.784
58.2202
27.026
22.554
135.179
21.8728
131.897
62.0963
143.552
297.697
297.576
146.56
192.94
192.959
29.7645
197.205
194.619
399.591
398.896
401.21
401.171
28.8565
197.185
194.839
193.407
191.197
398.795
400.626
59.6359
21.4856
128.51
27.2511
54.052
21.2997
133.209
141.716
295.828
137.897
295.641
142.755
295.838
135.315
295.69
57.309
25.9531
21.7222
133.443
21.3495
130.797
58.9356
54.5818
27.3107
21.9089
132.359
21.5589
129.69
59.5989
135.256
295.765
295.587
142.766
139.797
295.67
295.622
143.123
401.243
400.552
399.911
399.187
29.6686
197.248
194.21
195.566
192.097
400.379
401.441
398.795
399.974
399.38
399.157
402.15
400.439
191.318
195.145
30.0029
194.716
197.345
399.061
399.999
400.692
400.994
27.9083
194.688
197.369
191.808
193.838
142.261
295.564
138.956
295.537
58.6608
128.449
21.5796
26.3245
54.8977
133.005
21.3062
59.4112
130.304
21.7549
26.663
57.2722
132.428
21.4291
135.507
295.689
295.613
142.159
135.887
295.505
295.6
142.805
54.9518
27.6715
132.633
21.8645
129.179
21.3286
59.0164
55.3637
26.6294
133.065
21.9549
125.373
21.298
59.4208
193.848
195.388
30.2347
195.382
196.879
401.271
400.524
399.046
399.586
29.1903
195.486
196.754
192.419
194.855
400.33
402.127
62.7482
134.402
21.8825
27.8863
55.9997
136.061
22.1573
146.173
297.461
141.52
297.438
61.8355
21.5353
132.558
26.8495
58.0927
22.3755
135.118
141.819
297.834
297.723
147.546
59.8383
27.9036
135.497
22.4448
131.862
22.2178
62.4659
141.415
297.619
297.367
146.417
58.0691
28.3043
22.5093
134.755
21.8587
129.04
62.2276
146.422
297.863
142.927
297.439
61.6948
22.2391
130.186
27.3306
57.638
21.8352
134.61
146.242
297.404
141.927
297.257
59.0129
28.2303
135.426
21.8735
131.694
22.3567
61.5917
141.736
297.758
297.537
146.707
57.8612
27.0846
22.396
135.127
21.7415
130.978
62.4743
142.779
297.494
297.556
146.887
195.476
193.423
29.8374
196.771
195.053
400.519
398.782
400.591
400.982
28.478
196.797
194.573
193.944
193.599
398.674
399.606
59.5576
21.1112
127.082
27.279
56.889
21.8715
131.959
142.606
295.589
139.455
295.533
142.969
295.437
139.797
295.244
57.4115
25.9179
21.2613
129.513
21.3891
130.907
57.6451
56.5956
27.5056
22.0662
131.902
21.492
127.278
59.0825
138.651
295.248
295.676
142.793
139.026
295.63
295.41
141.962
401.296
400.617
399.913
399.033
29.6675
197.897
193.461
194.413
192.635
400.305
402.354
398.942
400.105
399.736
399.105
401.434
400.7
191.334
194.964
30.2477
195.135
197.309
398.928
399.78
400.382
401.351
28.9485
194.935
196.802
193.115
194.228
142.221
295.548
140.276
295.337
59.4264
129.378
21.5235
26.6561
52.7869
132.362
21.6884
59.3259
129.962
21.7384
25.7822
56.5814
132.061
21.4093
140.972
295.642
295.6
142.525
135.462
295.32
295.559
143.004
54.367
26.5264
132.346
21.9143
128.64
21.7244
59.6104
53.2894
27.6235
131.833
21.9079
129.427
21.4372
59.7159
192.894
193.576
30.0145
195.401
196.951
401.244
400.561
399.19
399.798
28.4146
195.156
196.776
193.326
194.587
400.188
401.344
62.836
128.165
22.0053
28.211
59.7788
136.24
22.2222
146.165
297.516
141.604
297.518
61.7846
21.8595
130.076
26.8362
57.9702
21.3362
134.677
141.777
297.963
297.696
146.965
60.0425
27.3097
135.112
22.5074
133.359
22.3544
62.1735
141.08
297.771
297.398
146.71
58.2109
27.1239
22.4643
135.332
22.3289
126.405
61.9039
146.509
297.565
142.091
297.488
61.937
22.0603
132.727
27.1102
58.0678
21.7561
135.582
146.566
297.793
142.792
297.497
56.9601
27.5423
132.636
22.2788
133.908
22.2438
61.7666
141.443
297.35
297.704
146.731
58.1773
27.8849
22.6923
135.194
22.6341
132.067
62.4855
142.242
297.487
297.94
147.127
194.971
191.423
29.8847
197.369
194.899
399.629
399.054
400.589
401.295
28.9606
197.071
194.945
195.46
193.151
398.756
400.824
58.6396
21.1806
127.059
27.2657
57.4546
21.909
131.991
142.316
295.397
139.817
295.253
142.438
295.268
134.901
295.408
56.1334
27.012
21.3907
132.296
21.8845
125.993
58.4458
53.4501
27.3076
22.1464
132.121
21.5987
127.331
59.5928
136.696
295.852
295.494
142.468
135.618
295.72
295.439
142.521
401.113
400.54
399.856
399.021
28.6756
196.39
196.122
194.233
191.911
400.393
401.411
399.124
400.775
399.445
399.105
401.069
400.483
191.021
194.281
30.2063
195.103
196.855
398.836
399.774
400.5
401.284
29.4172
194.427
196.816
192.373
194.427
142.633
295.294
139.595
295.382
58.9297
124.079
21.2989
26.616
56.8211
132.738
20.9072
58.6365
124.477
21.6418
27.2853
57.7477
132.727
21.3388
137.485
295.615
295.867
142.23
138.938
295.337
295.491
142.547
55.2234
27.1455
131.654
21.9296
129.939
21.8029
58.7242
56.9926
26.6822
131.704
21.8888
129.935
21.5183
58.8468
193.335
194.388
30.309
194.751
196.768
401.148
400.56
398.854
399.379
28.8337
194.742
196.892
193.027
194.572
400.357
401.652
62.0597
129.012
21.9882
28.3498
58.2769