/*--------------------------------*- C++ -*----------------------------------*\
| =========                 |                                                 |
| \\      /  F ield         | OpenFOAM: The Open Source CFD Toolbox           |
|  \\    /   O peration     | Version:  2206                                  |
|   \\  /    A nd           | Website:  www.openfoam.com                      |
|    \\/     M anipulation  |                                                 |
\*---------------------------------------------------------------------------*/
FoamFile
{
    version     2.0;
    format      ascii;
    arch        "LSB;label=32;scalar=64";
    class       volScalarField;
    location    "110";
    object      p;
}
// * * * * * * * * * * * * * * * * * * * * * * * * * * * * * * * * * * * * * //

dimensions      [0 2 -2 0 0 0 0];

internalField   nonuniform List<scalar> 
66701
(
-0.00665221
-0.00665224
-0.00665216
-0.00665207
-0.00665213
-0.00665187
-0.00665191
-0.00665211
-0.00665222
-0.00665213
-0.00665203
-0.00665212
-0.00665184
-0.00665212
-0.00665185
-0.00665215
-0.00665226
-0.00665227
-0.00665227
-0.00665227
-0.00665227
-0.00665226
-0.00665225
-0.00665225
-0.00665225
-0.00665225
-0.0066523
-0.00665231
-0.00665231
-0.00665231
-0.00665231
-0.00665227
-0.00665228
-0.00665228
-0.00665228
-0.00665228
-0.00665221
-0.00665221
-0.00665222
-0.00665222
-0.00665222
-0.00665224
-0.00665224
-0.00665224
-0.00665224
-0.00665224
-0.00665219
-0.0066522
-0.0066522
-0.0066522
-0.0066522
-0.00665218
-0.00665219
-0.00665219
-0.00665219
-0.00665219
-0.00665218
-0.00665219
-0.00665219
-0.00665219
-0.00665219
-0.00665217
-0.00665218
-0.00665218
-0.00665218
-0.00665218
-0.00660817
-0.00660783
-0.00660768
-0.00660807
-0.00660782
-0.00660837
-0.00661856
-0.0066086
-0.00660749
-0.00660783
-0.00660793
-0.00661868
-0.00660805
-0.00661837
-0.00660747
-0.00660778
-0.00660798
-0.0066186
-0.00661837
-0.00660805
-0.00660781
-0.00660733
-0.00660781
-0.00663007
-0.00663022
-0.00660806
-0.00660797
-0.00660782
-0.00663001
-0.00663003
-0.00663019
-0.00660814
-0.00660746
-0.00662984
-0.00660782
-0.00662992
-0.00663029
-0.00663019
-0.006608
-0.00660726
-0.00663005
-0.0066077
-0.00662998
-0.00663041
-0.00663003
-0.00660761
-0.00660779
-0.00663028
-0.00660782
-0.00663026
-0.00663004
-0.00662997
-0.00660772
-0.00663009
-0.00660787
-0.00663015
-0.00663002
-0.00660777
-0.00660754
-0.00663026
-0.00660781
-0.00663002
-0.00663023
-0.00662996
-0.0066077
-0.00663006
-0.00660787
-0.00663012
-0.00663004
-0.00663015
-0.00662998
-0.00662995
-0.00663016
-0.00660734
-0.00663002
-0.00663039
-0.00662993
-0.00663009
-0.00662993
-0.00662987
-0.00663031
-0.00662994
-0.00661847
-0.00661852
-0.00661831
-0.00661867
-0.00661849
-0.00661846
-0.0066183
-0.00661858
-0.00661832
-0.00661865
-0.00661838
-0.00661869
-0.00662921
-0.00663019
-0.00660785
-0.00660773
-0.00660864
-0.00662996
-0.00662998
-0.00662999
-0.00660867
-0.00660735
-0.00662912
-0.00663035
-0.00660795
-0.00662887
-0.00663075
-0.00660797
-0.00660653
-0.00662971
-0.00660659
-0.00662971
-0.00663084
-0.00663066
-0.00660807
-0.00660676
-0.00662975
-0.0066308
-0.00660675
-0.0066297
-0.00663078
-0.00660657
-0.00660794
-0.00662979
-0.00660664
-0.00663088
-0.00662972
-0.00663066
-0.00660797
-0.00660679
-0.00662974
-0.00660675
-0.0066297
-0.00663078
-0.00662924
-0.00663001
-0.00660771
-0.0066299
-0.00662989
-0.00660812
-0.00660812
-0.00660813
-0.00660814
-0.00660815
-0.00660792
-0.00660793
-0.00660793
-0.00660794
-0.00660794
-0.00660825
-0.00660824
-0.00660825
-0.00660827
-0.00660827
-0.00660798
-0.00660799
-0.00660799
-0.006608
-0.006608
-0.00660794
-0.00660795
-0.00660796
-0.00660796
-0.00660796
-0.00660789
-0.0066079
-0.0066079
-0.0066079
-0.0066079
-0.00663001
-0.00663
-0.00663
-0.00663
-0.00663
-0.00663
-0.00663
-0.00663
-0.00663
-0.00663001
-0.00660786
-0.00660786
-0.00660787
-0.00660787
-0.00660787
-0.00660788
-0.00660788
-0.00660789
-0.00660789
-0.00660789
-0.00663
-0.00663
-0.00663001
-0.00663001
-0.00663001
-0.00662997
-0.00662996
-0.00662996
-0.00662996
-0.00662996
-0.00662999
-0.00662999
-0.00662999
-0.00662999
-0.00663
-0.00660784
-0.00660785
-0.00660785
-0.00660785
-0.00660785
-0.00660788
-0.00660788
-0.00660788
-0.00660788
-0.00660788
-0.00662999
-0.00662999
-0.00662999
-0.00662999
-0.00663
-0.00662994
-0.00662994
-0.00662994
-0.00662994
-0.00662994
-0.00662998
-0.00662997
-0.00662997
-0.00662997
-0.00662997
-0.00662989
-0.00662989
-0.00662988
-0.00662988
-0.00662988
-0.0066299
-0.00662989
-0.00662989
-0.00662988
-0.00662988
-0.00660806
-0.00660807
-0.00660807
-0.00660808
-0.00660808
-0.0066081
-0.00660811
-0.00660812
-0.00660812
-0.00660813
-0.0066299
-0.0066299
-0.0066299
-0.0066299
-0.00662989
-0.00660802
-0.00660802
-0.00660802
-0.00660803
-0.00660803
-0.00660802
-0.00660803
-0.00660803
-0.00660803
-0.00660804
-0.00662998
-0.00662998
-0.00662998
-0.00662997
-0.00662997
-0.00662998
-0.00662998
-0.00662998
-0.00662998
-0.00662998
-0.00662999
-0.00662999
-0.00662999
-0.00662998
-0.00662998
-0.00662995
-0.00662995
-0.00662995
-0.00662995
-0.00662995
-0.00660791
-0.00660791
-0.00660792
-0.00660792
-0.00660792
-0.00662995
-0.00662995
-0.00662995
-0.00662995
-0.00662995
-0.0066079
-0.0066079
-0.0066079
-0.0066079
-0.0066079
-0.00662994
-0.00662994
-0.00662994
-0.00662993
-0.00662993
-0.00662995
-0.00662995
-0.00662995
-0.00662994
-0.00662994
-0.00662993
-0.00662992
-0.00662992
-0.00662992
-0.00662992
-0.00362525
-0.0036133
-0.00381913
-0.00381967
-0.00381935
-0.00380744
-0.00401127
-0.00401133
-0.0040113
-0.00399918
-0.00420133
-0.00420126
-0.00420146
-0.0041895
-0.00438943
-0.00438973
-0.00438974
-0.00437801
-0.00457522
-0.00457563
-0.0045757
-0.00456403
-0.00475825
-0.00475854
-0.00475858
-0.00474726
-0.00493835
-0.00493868
-0.00493857
-0.00492736
-0.00511619
-0.00511666
-0.00511645
-0.00510529
-0.00529289
-0.00529301
-0.00529318
-0.00528195
-0.00546945
-0.00546953
-0.00546972
-0.00545862
-0.00564608
-0.00564622
-0.00564615
-0.00563515
-0.00582261
-0.00582283
-0.00582271
-0.00581152
-0.00599923
-0.00599941
-0.0059994
-0.00598816
-0.0061759
-0.0061762
-0.00617611
-0.00616485
-0.00635298
-0.00635315
-0.00635312
-0.00634194
-0.0065302
-0.00653019
-0.00653029
-0.00651921
-0.00361399
-0.00378295
-0.00362555
-0.00377138
-0.00377137
-0.00378338
-0.00380714
-0.00397558
-0.00381942
-0.0038196
-0.00396365
-0.00396347
-0.00380741
-0.00397549
-0.00381921
-0.00381914
-0.00396357
-0.00396362
-0.00381957
-0.00396355
-0.00396339
-0.00380711
-0.00397555
-0.00381963
-0.00396349
-0.00396344
-0.00397542
-0.00399942
-0.00416582
-0.00401142
-0.00401125
-0.004154
-0.00415401
-0.00399928
-0.00416591
-0.00401141
-0.00401134
-0.00415398
-0.00415389
-0.00401116
-0.00415393
-0.0041539
-0.00399932
-0.00416601
-0.00401126
-0.00415404
-0.004154
-0.00416591
-0.00418937
-0.00435469
-0.00420136
-0.00420138
-0.00434279
-0.00434282
-0.00418945
-0.00435463
-0.00420135
-0.00420133
-0.00434275
-0.00434271
-0.00420139
-0.00434277
-0.00434279
-0.00418959
-0.00435462
-0.00420142
-0.00434281
-0.00434283
-0.0043547
-0.00437806
-0.00454114
-0.00438982
-0.00438972
-0.00452938
-0.00452942
-0.00437792
-0.00454122
-0.00438974
-0.00438968
-0.00452942
-0.00452942
-0.00438967
-0.00452943
-0.00452934
-0.00437794
-0.0045412
-0.00438978
-0.00452944
-0.00452936
-0.00454111
-0.00456405
-0.00472455
-0.00457559
-0.00457567
-0.00471298
-0.00471301
-0.00456413
-0.00472457
-0.00457564
-0.00457564
-0.00471299
-0.00471308
-0.00457559
-0.00471303
-0.0047131
-0.00456407
-0.0047247
-0.00457565
-0.00471311
-0.00471308
-0.00472469
-0.00474704
-0.00490517
-0.00475852
-0.00475847
-0.00489366
-0.00489374
-0.00474705
-0.00490528
-0.00475851
-0.00475853
-0.0048937
-0.00489366
-0.00475863
-0.00489383
-0.00489378
-0.00474721
-0.00490517
-0.00475862
-0.00489373
-0.0048938
-0.00490527
-0.00492725
-0.00508345
-0.00493852
-0.00493856
-0.005072
-0.00507217
-0.00492738
-0.00508366
-0.00493851
-0.0049385
-0.005072
-0.00507199
-0.00493864
-0.0050723
-0.00507218
-0.00492727
-0.00508339
-0.00493867
-0.00507208
-0.00507209
-0.00508344
-0.00510528
-0.00526027
-0.0051164
-0.00511659
-0.00524898
-0.00524899
-0.00510548
-0.00526029
-0.00511637
-0.00511642
-0.00524892
-0.005249
-0.00511659
-0.00524888
-0.00524893
-0.00510522
-0.00526035
-0.00511647
-0.00524898
-0.00524897
-0.00526027
-0.00528196
-0.0054368
-0.00529316
-0.00529318
-0.00542547
-0.00542539
-0.00528199
-0.00543664
-0.0052931
-0.00529323
-0.00542553
-0.00542552
-0.00529304
-0.00542531
-0.00542538
-0.00528208
-0.00543681
-0.0052932
-0.00542549
-0.00542557
-0.00543682
-0.00545855
-0.00561337
-0.00546971
-0.00546961
-0.00560212
-0.00560205
-0.00545839
-0.00561326
-0.00546974
-0.00546972
-0.00560214
-0.00560203
-0.00546961
-0.00560197
-0.00560198
-0.0054585
-0.00561329
-0.00546976
-0.00560198
-0.00560206
-0.00561337
-0.0056351
-0.00578976
-0.00564632
-0.0056463
-0.00577852
-0.00577854
-0.00563505
-0.00578984
-0.0056463
-0.00564622
-0.00577852
-0.00577852
-0.00564629
-0.00577856
-0.00577853
-0.00563499
-0.00578988
-0.0056463
-0.00577847
-0.00577849
-0.00578979
-0.00581152
-0.00596643
-0.00582275
-0.00582282
-0.00595514
-0.00595514
-0.00581164
-0.00596648
-0.00582273
-0.00582275
-0.00595516
-0.00595514
-0.00582277
-0.00595516
-0.00595515
-0.0058116
-0.00596651
-0.00582273
-0.00595518
-0.00595516
-0.00596642
-0.00598819
-0.00614305
-0.00599942
-0.0059994
-0.00613176
-0.00613178
-0.0059882
-0.00614307
-0.00599943
-0.00599938
-0.00613179
-0.00613179
-0.00599938
-0.00613186
-0.00613173
-0.00598819
-0.0061431
-0.00599939
-0.0061318
-0.00613176
-0.00614307
-0.00616491
-0.00631995
-0.00617616
-0.00617619
-0.00630871
-0.00630867
-0.00616494
-0.00631993
-0.00617614
-0.00617616
-0.0063087
-0.00630863
-0.00617609
-0.0063087
-0.00630876
-0.00616485
-0.00632005
-0.00617607
-0.00630875
-0.00630883
-0.00632011
-0.00634188
-0.00649685
-0.00635317
-0.0063532
-0.00648614
-0.00648613
-0.0063419
-0.00649691
-0.00635307
-0.00635315
-0.00648582
-0.00648595
-0.00635323
-0.00648586
-0.00648591
-0.00634186
-0.00649739
-0.00635323
-0.00648602
-0.00648598
-0.0064974
-0.00652992
-0.00651919
-0.00653013
-0.00653027
-0.00653024
-0.00651912
-0.00653031
-0.00361436
-0.00368684
-0.0036855
-0.00362551
-0.00361458
-0.00367455
-0.00368628
-0.00361458
-0.00367451
-0.0036139
-0.00361427
-0.00368655
-0.00368666
-0.00368703
-0.00388026
-0.00380854
-0.00388032
-0.00380855
-0.00380857
-0.00388042
-0.00388065
-0.00380834
-0.00388066
-0.00380793
-0.00381951
-0.00381907
-0.00381947
-0.0039635
-0.00396353
-0.00396346
-0.0039634
-0.00387948
-0.00380843
-0.0038196
-0.00386785
-0.00387984
-0.00386784
-0.00380823
-0.00380835
-0.00388039
-0.00387913
-0.00381928
-0.00380881
-0.0038677
-0.00380887
-0.00386755
-0.00387972
-0.00380816
-0.00380844
-0.00387973
-0.00388042
-0.00388031
-0.00407147
-0.00400045
-0.00400029
-0.00407172
-0.00400059
-0.00407162
-0.00407199
-0.00400036
-0.00399993
-0.00407186
-0.00401126
-0.00401122
-0.00401118
-0.00415396
-0.00415382
-0.00415388
-0.00415382
-0.00407102
-0.00400043
-0.00401119
-0.00405906
-0.00400017
-0.0040713
-0.00405886
-0.00400027
-0.00407177
-0.00407028
-0.00401117
-0.0040009
-0.00405902
-0.00400088
-0.00405894
-0.00407094
-0.00400027
-0.00400036
-0.00407091
-0.00407166
-0.00407138
-0.00426095
-0.0041907
-0.00419053
-0.00426115
-0.00419063
-0.00426111
-0.00426148
-0.00419046
-0.00419017
-0.00426136
-0.00420124
-0.0042013
-0.00420131
-0.00434259
-0.00434265
-0.00434256
-0.00434259
-0.0042605
-0.00419064
-0.00420125
-0.00424854
-0.00419032
-0.00426086
-0.00424855
-0.00419051
-0.00426133
-0.00425979
-0.00420136
-0.00419078
-0.00424875
-0.00419088
-0.00424868
-0.0042604
-0.00419031
-0.00419042
-0.00426054
-0.00426105
-0.00426103
-0.00444847
-0.00437888
-0.00437878
-0.00444864
-0.00437887
-0.00444862
-0.004449
-0.00437873
-0.00437836
-0.00444888
-0.00438958
-0.00438949
-0.00438951
-0.004529
-0.00452902
-0.00452909
-0.00452914
-0.00444813
-0.00437882
-0.00438966
-0.00443646
-0.00437863
-0.00444847
-0.00443637
-0.00437885
-0.00444885
-0.00444766
-0.00438961
-0.00437925
-0.00443651
-0.00437935
-0.00443636
-0.00444818
-0.00437871
-0.00437893
-0.00444836
-0.00444886
-0.00444861
-0.00463339
-0.00456491
-0.00456479
-0.00463353
-0.00456484
-0.00463347
-0.0046338
-0.00456465
-0.00456429
-0.00463367
-0.0045753
-0.00457543
-0.00457546
-0.00471272
-0.00471278
-0.00471279
-0.00471276
-0.00463321
-0.00456488
-0.00457543
-0.00462163
-0.00456472
-0.00463333
-0.00462151
-0.00456471
-0.00463363
-0.00463255
-0.00457554
-0.00456519
-0.00462175
-0.0045653
-0.00462158
-0.00463299
-0.00456462
-0.00456474
-0.00463324
-0.00463357
-0.00463341
-0.00481518
-0.00474773
-0.00474767
-0.00481528
-0.00474782
-0.00481527
-0.00481563
-0.00474757
-0.00474719
-0.00481551
-0.00475835
-0.0047583
-0.00475823
-0.00489355
-0.00489353
-0.00489351
-0.00489348
-0.00481507
-0.0047477
-0.00475848
-0.00480382
-0.00474761
-0.00481512
-0.00480376
-0.00474759
-0.00481546
-0.00481441
-0.00475848
-0.0047481
-0.00480383
-0.00474824
-0.00480374
-0.00481476
-0.00474748
-0.00474773
-0.00481538
-0.00481545
-0.00481528
-0.00499449
-0.0049279
-0.00492779
-0.00499455
-0.00492788
-0.00499462
-0.00499497
-0.00492767
-0.0049274
-0.00499478
-0.0049384
-0.00493839
-0.00493841
-0.00507184
-0.00507185
-0.0050719
-0.00507201
-0.00499422
-0.00492785
-0.00493852
-0.00498335
-0.00492769
-0.00499436
-0.00498319
-0.00492766
-0.00499469
-0.00499371
-0.00493842
-0.0049282
-0.00498327
-0.00492838
-0.0049831
-0.00499407
-0.00492765
-0.00492781
-0.00499461
-0.00499463
-0.00499452
-0.00517193
-0.00510595
-0.00510591
-0.00517196
-0.00510593
-0.0051719
-0.00517222
-0.00510559
-0.00510529
-0.00517199
-0.00511631
-0.00511632
-0.00511645
-0.00524877
-0.00524881
-0.0052487
-0.00524881
-0.00517165
-0.00510586
-0.00511643
-0.00516087
-0.00510569
-0.00517191
-0.00516068
-0.00510563
-0.00517203
-0.00517105
-0.00511638
-0.00510612
-0.00516073
-0.00510632
-0.00516062
-0.00517145
-0.00510557
-0.00510576
-0.00517196
-0.005172
-0.0051719
-0.00534833
-0.00528253
-0.0052825
-0.00534839
-0.00528242
-0.00534836
-0.00534887
-0.00528225
-0.00528201
-0.00534863
-0.00529312
-0.00529296
-0.00529304
-0.00542526
-0.00542539
-0.00542539
-0.00542529
-0.00534839
-0.00528273
-0.00529296
-0.0053371
-0.00528252
-0.00534841
-0.00533709
-0.00528242
-0.00534867
-0.00534769
-0.0052931
-0.00528298
-0.00533731
-0.00528312
-0.00533725
-0.00534815
-0.00528244
-0.00528254
-0.00534852
-0.00534879
-0.0053485
-0.0055249
-0.00545898
-0.00545896
-0.00552492
-0.005459
-0.00552488
-0.00552537
-0.00545886
-0.00545862
-0.00552515
-0.00546961
-0.00546963
-0.00546953
-0.0056019
-0.00560185
-0.00560201
-0.00560186
-0.00552482
-0.00545905
-0.0054695
-0.0055137
-0.005459
-0.00552485
-0.00551372
-0.00545892
-0.00552511
-0.00552418
-0.00546967
-0.00545939
-0.00551388
-0.00545968
-0.00551382
-0.00552452
-0.00545896
-0.00545908
-0.00552515
-0.00552521
-0.00552496
-0.00570131
-0.00563549
-0.0056354
-0.00570131
-0.00563546
-0.00570134
-0.00570186
-0.00563538
-0.00563512
-0.0057016
-0.00564606
-0.00564622
-0.00564611
-0.00577848
-0.00577834
-0.00577839
-0.00577845
-0.00570135
-0.00563553
-0.00564614
-0.00569035
-0.00563548
-0.00570129
-0.00569027
-0.00563534
-0.00570154
-0.0057006
-0.00564618
-0.00563582
-0.00569028
-0.00563605
-0.00569032
-0.00570095
-0.00563535
-0.00563545
-0.00570166
-0.00570155
-0.00570127
-0.00587781
-0.00581191
-0.0058119
-0.00587785
-0.00581195
-0.00587784
-0.00587828
-0.00581176
-0.00581145
-0.00587808
-0.00582258
-0.00582261
-0.00582273
-0.00595499
-0.00595499
-0.0059549
-0.00595499
-0.00587784
-0.00581206
-0.00582269
-0.00586694
-0.00581191
-0.00587795
-0.00586682
-0.00581174
-0.00587806
-0.00587716
-0.00582265
-0.00581228
-0.00586691
-0.00581251
-0.00586681
-0.00587752
-0.00581175
-0.00581188
-0.0058782
-0.00587806
-0.00587789
-0.00605449
-0.00598861
-0.00598862
-0.00605448
-0.00598862
-0.00605451
-0.00605499
-0.00598837
-0.00598817
-0.00605468
-0.00599929
-0.00599918
-0.00599925
-0.00613165
-0.00613166
-0.00613162
-0.00613158
-0.00605446
-0.00598867
-0.00599932
-0.00604356
-0.0059885
-0.0060544
-0.00604344
-0.00598846
-0.00605471
-0.00605385
-0.00599926
-0.00598901
-0.00604358
-0.00598924
-0.00604342
-0.00605417
-0.00598839
-0.00598855
-0.00605473
-0.0060547
-0.0060546
-0.00623113
-0.00616528
-0.00616529
-0.00623116
-0.00616523
-0.00623111
-0.00623166
-0.00616505
-0.00616481
-0.0062314
-0.00617606
-0.00617596
-0.00617595
-0.00630858
-0.00630865
-0.00630855
-0.00630853
-0.00623114
-0.00616525
-0.00617608
-0.0062203
-0.00616523
-0.00623123
-0.00622029
-0.00616514
-0.00623138
-0.00623054
-0.00617605
-0.0061656
-0.00622031
-0.00616583
-0.00622028
-0.00623085
-0.00616505
-0.00616525
-0.00623157
-0.0062314
-0.00623126
-0.00640796
-0.00634218
-0.00634219
-0.00640766
-0.00634225
-0.00640789
-0.00640861
-0.00634198
-0.00634173
-0.00640838
-0.00635315
-0.00635305
-0.00635308
-0.00648588
-0.00648583
-0.00648577
-0.00648579
-0.00640813
-0.00634226
-0.00635318
-0.00639737
-0.0063422
-0.00640816
-0.00639727
-0.00634209
-0.00640838
-0.00640759
-0.00635305
-0.00634258
-0.00639733
-0.00634283
-0.00639735
-0.00640788
-0.0063421
-0.00634224
-0.00640858
-0.00640845
-0.00640827
-0.00651952
-0.006519
-0.00651864
-0.00653025
-0.00653031
-0.00653034
-0.00651918
-0.00653014
-0.0065192
-0.00651916
-0.00653033
-0.00651954
-0.00652007
-0.00651898
-0.0065192
-0.00361439
-0.0036144
-0.00368639
-0.0036867
-0.00368678
-0.00361436
-0.00368697
-0.00378415
-0.00371138
-0.00371159
-0.003784
-0.00378384
-0.00371165
-0.00371146
-0.00378404
-0.00371168
-0.00368551
-0.00362552
-0.00361467
-0.00367431
-0.00368627
-0.00361462
-0.00367431
-0.00368666
-0.00361431
-0.00368693
-0.0036141
-0.0036867
-0.00361427
-0.00368691
-0.00361407
-0.00371212
-0.00372296
-0.00377123
-0.0037832
-0.00371212
-0.00378247
-0.0037228
-0.00371209
-0.00372292
-0.00377124
-0.0037832
-0.00371196
-0.00378243
-0.00372282
-0.00371157
-0.00378403
-0.00371165
-0.00378366
-0.0037116
-0.00378385
-0.00371161
-0.00378364
-0.00361404
-0.00368707
-0.00361428
-0.0036869
-0.00371071
-0.00378384
-0.00378389
-0.00371136
-0.00371148
-0.00378396
-0.00371146
-0.00378395
-0.0037116
-0.00380849
-0.00388037
-0.00380833
-0.0038806
-0.00380839
-0.00380823
-0.00387964
-0.00388029
-0.00388052
-0.00397623
-0.00390476
-0.00397643
-0.00390472
-0.00390359
-0.00397611
-0.00397632
-0.00390469
-0.0039046
-0.00388029
-0.00380858
-0.00388042
-0.0038085
-0.00387915
-0.0038089
-0.00381943
-0.00386778
-0.00387968
-0.00386776
-0.00380899
-0.00387913
-0.00380887
-0.00381954
-0.00386776
-0.00387974
-0.00386782
-0.00380897
-0.00390472
-0.00397616
-0.00390471
-0.00397598
-0.00390476
-0.00397629
-0.0039048
-0.00397606
-0.00390518
-0.00391583
-0.00397546
-0.00396362
-0.00390503
-0.00391577
-0.00397492
-0.00390518
-0.00391566
-0.00397563
-0.00396356
-0.00390509
-0.00391575
-0.0039749
-0.00380847
-0.00380812
-0.00387974
-0.00388027
-0.00388031
-0.00380819
-0.00388038
-0.00397631
-0.00390478
-0.0039036
-0.0039762
-0.0039762
-0.00390465
-0.00390443
-0.00397632
-0.00390452
-0.00387968
-0.00380853
-0.00381904
-0.00386769
-0.00388011
-0.00386764
-0.0038082
-0.00388061
-0.00380829
-0.00388047
-0.00380793
-0.00387959
-0.00381916
-0.00380848
-0.0038677
-0.00386781
-0.00387985
-0.0038082
-0.00390421
-0.00397649
-0.00390468
-0.00397651
-0.00390452
-0.00391575
-0.0039759
-0.00396354
-0.00390486
-0.00391574
-0.00397552
-0.00390417
-0.00397634
-0.00390447
-0.00397649
-0.00390445
-0.00391582
-0.0039636
-0.00397572
-0.00391586
-0.0039046
-0.00397554
-0.00388053
-0.00380816
-0.00388041
-0.00380785
-0.00387949
-0.00381961
-0.00380845
-0.00386768
-0.0038678
-0.00387997
-0.0038082
-0.00388061
-0.00380824
-0.00388059
-0.00380786
-0.00390436
-0.00391578
-0.00397577
-0.00396351
-0.00390465
-0.00391576
-0.00397545
-0.00390411
-0.00397637
-0.00390445
-0.00397644
-0.00390437
-0.00391563
-0.00396343
-0.00397587
-0.00391568
-0.00390475
-0.0039755
-0.0039042
-0.00397646
-0.00390461
-0.00397644
-0.00380824
-0.00380839
-0.00387971
-0.0038803
-0.00388028
-0.00380853
-0.0038804
-0.00397627
-0.00390448
-0.0039036
-0.00397617
-0.00397618
-0.00390434
-0.00390469
-0.00397628
-0.00390479
-0.00387912
-0.00381946
-0.00380878
-0.00386772
-0.00380886
-0.00386762
-0.00387976
-0.00388026
-0.00380854
-0.00380835
-0.00388038
-0.00388023
-0.00380841
-0.00380829
-0.0038804
-0.00390521
-0.0039157
-0.00396336
-0.00397567
-0.00391556
-0.00390512
-0.00397499
-0.00390518
-0.00391561
-0.00396335
-0.00397559
-0.00391552
-0.00390513
-0.00397497
-0.00390473
-0.00397629
-0.0039048
-0.00397613
-0.00390474
-0.0039762
-0.0039048
-0.00397613
-0.00380825
-0.00388051
-0.00380847
-0.00388042
-0.00390359
-0.00397631
-0.00397611
-0.00390451
-0.0039047
-0.0039764
-0.00390464
-0.00397619
-0.0039048
-0.00400048
-0.00407169
-0.00400038
-0.00407177
-0.00400038
-0.00400027
-0.0040711
-0.00407154
-0.00407164
-0.00416669
-0.00409582
-0.00416676
-0.00409561
-0.00409473
-0.00416659
-0.00416669
-0.00409567
-0.00409545
-0.00407144
-0.00400057
-0.00400032
-0.00407165
-0.00407036
-0.00400071
-0.00401141
-0.0040591
-0.00400079
-0.00407107
-0.00405906
-0.00407044
-0.00400086
-0.00401135
-0.004059
-0.00400077
-0.00407098
-0.00405898
-0.00409569
-0.00416668
-0.00409587
-0.00416645
-0.00409564
-0.00416661
-0.00409577
-0.00416645
-0.00409611
-0.0041066
-0.00416604
-0.00415396
-0.00409612
-0.00410654
-0.00416537
-0.00409616
-0.00410659
-0.00416597
-0.00415394
-0.00409603
-0.00410647
-0.00416533
-0.00400049
-0.00400016
-0.00407104
-0.00407139
-0.00407178
-0.0040003
-0.00407177
-0.0041666
-0.00409576
-0.00409468
-0.00416649
-0.00416665
-0.00409564
-0.00409542
-0.0041667
-0.00409557
-0.00407102
-0.00400052
-0.00401135
-0.00405914
-0.00400024
-0.00407127
-0.00405907
-0.00407198
-0.00400024
-0.0039999
-0.00407178
-0.00407107
-0.00401134
-0.00400039
-0.00405896
-0.00400024
-0.004059
-0.00407135
-0.0040953
-0.00416681
-0.0040956
-0.00416702
-0.00409555
-0.00410662
-0.0041663
-0.00415393
-0.00409573
-0.00410653
-0.00416606
-0.00409529
-0.00416688
-0.00409555
-0.00416704
-0.00409559
-0.00410644
-0.00415387
-0.00416638
-0.00410645
-0.00409581
-0.00416605
-0.00407196
-0.00400026
-0.00399985
-0.00407183
-0.00407104
-0.00401118
-0.00400051
-0.00405884
-0.00400019
-0.00405883
-0.00407132
-0.00407197
-0.00400033
-0.00399983
-0.00407183
-0.00409553
-0.00410655
-0.00416626
-0.00415384
-0.00409573
-0.00410638
-0.00416597
-0.00409527
-0.00416672
-0.00409556
-0.00416691
-0.00409554
-0.00410636
-0.00415386
-0.00416627
-0.00410634
-0.00409576
-0.00416598
-0.00409528
-0.00416676
-0.00409557
-0.0041669
-0.00400018
-0.00400044
-0.00407093
-0.0040717
-0.00407153
-0.00400051
-0.00407163
-0.00416677
-0.00409562
-0.00409456
-0.00416669
-0.00416636
-0.0040955
-0.00409562
-0.00416644
-0.00409571
-0.00407022
-0.00401124
-0.00400076
-0.00405897
-0.0040008
-0.00405895
-0.0040708
-0.00407139
-0.00400053
-0.00400039
-0.00407159
-0.00407136
-0.00400043
-0.00400037
-0.00407147
-0.00409601
-0.00410656
-0.00415399
-0.00416581
-0.00410652
-0.004096
-0.00416522
-0.004096
-0.00410651
-0.00415391
-0.00416586
-0.00410645
-0.00409586
-0.00416525
-0.00409553
-0.00416641
-0.00409569
-0.00416623
-0.00409551
-0.00416649
-0.00409561
-0.00416624
-0.00400037
-0.00407178
-0.0040004
-0.00407147
-0.00409457
-0.00416663
-0.00416635
-0.00409549
-0.00409551
-0.00416669
-0.00409562
-0.00416647
-0.00409559
-0.0041907
-0.00426118
-0.0041905
-0.00426133
-0.00419061
-0.00419043
-0.00426048
-0.00426112
-0.00426126
-0.00435519
-0.00428503
-0.00435536
-0.00428491
-0.00428391
-0.00435511
-0.0043553
-0.00428496
-0.0042848
-0.00426092
-0.00419064
-0.00419049
-0.00426109
-0.00425995
-0.00419097
-0.00420136
-0.00424861
-0.00419097
-0.00426056
-0.00424863
-0.0042599
-0.00419091
-0.00420138
-0.00424866
-0.00419093
-0.00426056
-0.00424869
-0.00428488
-0.00435514
-0.00428503
-0.00435497
-0.00428483
-0.00435509
-0.00428492
-0.00435499
-0.00428536
-0.0042957
-0.00435453
-0.00434274
-0.0042853
-0.00429571
-0.00435399
-0.00428535
-0.00429577
-0.00435451
-0.00434278
-0.00428526
-0.00429577
-0.00435402
-0.00419052
-0.00419038
-0.00426051
-0.00426107
-0.00426125
-0.00419044
-0.00426128
-0.00435512
-0.00428495
-0.0042839
-0.00435506
-0.00435517
-0.00428488
-0.00428477
-0.00435524
-0.00428485
-0.00426051
-0.00419067
-0.00420135
-0.00424863
-0.00419041
-0.00426088
-0.00424864
-0.00426148
-0.00419053
-0.00419018
-0.00426142
-0.00426051
-0.00420133
-0.00419071
-0.00424862
-0.00419037
-0.00424864
-0.00426091
-0.0042845
-0.00435539
-0.00428486
-0.00435547
-0.00428469
-0.00429571
-0.00435492
-0.00434269
-0.00428504
-0.00429569
-0.00435464
-0.00428449
-0.00435542
-0.00428489
-0.00435549
-0.0042847
-0.00429567
-0.00434269
-0.00435494
-0.00429567
-0.00428505
-0.00435465
-0.0042614
-0.00419035
-0.00419002
-0.00426132
-0.00426053
-0.00420137
-0.00419058
-0.00424871
-0.0041903
-0.00424865
-0.00426068
-0.00426134
-0.00419035
-0.00418999
-0.00426116
-0.0042847
-0.00429572
-0.0043548
-0.00434272
-0.00428502
-0.00429571
-0.00435456
-0.0042844
-0.00435527
-0.00428481
-0.00435542
-0.00428472
-0.0042958
-0.00434277
-0.00435483
-0.00429575
-0.00428484
-0.0043546
-0.00428437
-0.00435528
-0.00428465
-0.00435541
-0.0041904
-0.00419037
-0.00426058
-0.00426124
-0.00426087
-0.00419042
-0.00426096
-0.0043554
-0.00428492
-0.00428393
-0.00435536
-0.00435508
-0.00428479
-0.00428475
-0.00435518
-0.00428485
-0.00425989
-0.00420131
-0.00419085
-0.00424867
-0.00419089
-0.00424856
-0.00426056
-0.00426088
-0.00419044
-0.00419031
-0.00426098
-0.00426093
-0.00419055
-0.00419035
-0.00426113
-0.00428528
-0.0042958
-0.00434278
-0.00435457
-0.00429578
-0.00428522
-0.00435398
-0.00428536
-0.00429575
-0.00434273
-0.00435463
-0.00429567
-0.00428535
-0.00435402
-0.00428482
-0.00435514
-0.00428489
-0.00435497
-0.00428488
-0.00435522
-0.00428504
-0.004355
-0.00419038
-0.00426111
-0.00419051
-0.00426112
-0.00428392
-0.00435523
-0.00435518
-0.00428463
-0.00428495
-0.00435527
-0.00428471
-0.00435525
-0.00428503
-0.0043789
-0.00444864
-0.00437881
-0.00444882
-0.00437884
-0.00437873
-0.00444838
-0.00444857
-0.0044488
-0.00454151
-0.00447223
-0.00454161
-0.0044721
-0.00447144
-0.00454147
-0.00454158
-0.00447213
-0.00447201
-0.00444849
-0.00437886
-0.00437876
-0.00444862
-0.00444755
-0.00437917
-0.00438971
-0.00443655
-0.00437923
-0.00444814
-0.00443644
-0.0044475
-0.00437913
-0.00438975
-0.00443642
-0.00437926
-0.00444808
-0.00443643
-0.00447214
-0.00454151
-0.00447224
-0.00454136
-0.00447213
-0.00454143
-0.00447223
-0.00454136
-0.00447262
-0.00448304
-0.00454101
-0.00452924
-0.00447255
-0.00448287
-0.00454041
-0.00447257
-0.00448297
-0.0045409
-0.00452925
-0.0044725
-0.00448289
-0.00454038
-0.00437882
-0.00437858
-0.00444821
-0.00444846
-0.00444892
-0.0043787
-0.00444883
-0.00454147
-0.00447224
-0.00447131
-0.00454139
-0.00454152
-0.00447217
-0.00447197
-0.00454158
-0.00447207
-0.00444829
-0.00437896
-0.00438959
-0.0044365
-0.00437871
-0.00444849
-0.00443632
-0.00444902
-0.00437877
-0.00437835
-0.00444888
-0.00444828
-0.00438962
-0.00437898
-0.00443645
-0.00437871
-0.00443634
-0.00444849
-0.00447173
-0.00454165
-0.00447204
-0.00454182
-0.00447209
-0.00448303
-0.00454121
-0.00452922
-0.00447227
-0.00448283
-0.00454107
-0.00447171
-0.00454165
-0.00447203
-0.00454178
-0.00447208
-0.004483
-0.00452924
-0.00454125
-0.00448284
-0.00447225
-0.0045411
-0.00444891
-0.00437861
-0.00437827
-0.00444883
-0.00444809
-0.00438967
-0.00437894
-0.00443642
-0.00437863
-0.0044364
-0.00444853
-0.00444889
-0.0043787
-0.00437826
-0.00444891
-0.004472
-0.004483
-0.00454123
-0.0045292
-0.00447222
-0.00448284
-0.00454112
-0.00447165
-0.00454164
-0.00447202
-0.00454183
-0.00447194
-0.00448297
-0.00452922
-0.00454126
-0.00448286
-0.00447228
-0.0045411
-0.00447162
-0.00454163
-0.00447207
-0.00454181
-0.00437878
-0.00437886
-0.00444827
-0.00444883
-0.00444867
-0.00437894
-0.00444872
-0.00454161
-0.00447209
-0.00447132
-0.00454158
-0.00454145
-0.00447202
-0.00447222
-0.00454149
-0.00447229
-0.00444759
-0.00438969
-0.00437929
-0.00443652
-0.00437931
-0.00443646
-0.00444814
-0.00444857
-0.00437892
-0.00437879
-0.00444869
-0.00444854
-0.00437897
-0.00437879
-0.00444867
-0.00447272
-0.00448305
-0.00452926
-0.00454098
-0.00448289
-0.0044726
-0.00454042
-0.00447267
-0.004483
-0.00452929
-0.00454091
-0.00448292
-0.00447252
-0.00454043
-0.0044722
-0.00454146
-0.00447229
-0.00454135
-0.00447219
-0.00454143
-0.00447223
-0.00454132
-0.00437877
-0.00444886
-0.00437896
-0.00444869
-0.00447142
-0.00454156
-0.00454138
-0.00447205
-0.00447216
-0.0045416
-0.00447212
-0.00454144
-0.00447224
-0.00456491
-0.00463353
-0.00456471
-0.00463365
-0.00456486
-0.00456465
-0.0046333
-0.00463351
-0.00463364
-0.0047248
-0.00465668
-0.00472492
-0.00465652
-0.00465588
-0.00472476
-0.00472489
-0.00465662
-0.00465646
-0.00463338
-0.00456481
-0.00456475
-0.00463346
-0.00463252
-0.00456523
-0.00457551
-0.00462161
-0.0045653
-0.00463307
-0.00462155
-0.00463256
-0.00456512
-0.0045755
-0.00462168
-0.00456528
-0.004633
-0.00462151
-0.00465662
-0.00472476
-0.00465669
-0.00472466
-0.00465661
-0.00472482
-0.00465665
-0.00472468
-0.00465712
-0.00466737
-0.00472426
-0.0047129
-0.00465699
-0.00466731
-0.0047238
-0.00465715
-0.00466741
-0.0047243
-0.00471287
-0.00465693
-0.00466724
-0.00472383
-0.00456477
-0.00456458
-0.00463326
-0.00463346
-0.00463366
-0.00456469
-0.00463365
-0.00472482
-0.00465665
-0.00465591
-0.00472477
-0.00472482
-0.00465658
-0.00465648
-0.00472484
-0.00465655
-0.00463309
-0.00456486
-0.00457549
-0.00462164
-0.00456466
-0.0046333
-0.00462154
-0.0046338
-0.00456465
-0.00456425
-0.00463368
-0.00463314
-0.00457554
-0.00456486
-0.00462166
-0.00456465
-0.00462155
-0.00463329
-0.00465611
-0.00472496
-0.00465646
-0.00472508
-0.00465648
-0.00466735
-0.00472459
-0.00471292
-0.00465668
-0.00466727
-0.0047244
-0.00465611
-0.00472495
-0.00465645
-0.00472512
-0.0046565
-0.00466744
-0.00471294
-0.00472459
-0.0046673
-0.00465663
-0.00472443
-0.0046339
-0.00456465
-0.00456431
-0.00463369
-0.00463322
-0.0045755
-0.00456488
-0.00462164
-0.0045647
-0.00462154
-0.00463332
-0.0046339
-0.00456462
-0.00456431
-0.00463365
-0.00465659
-0.0046674
-0.00472455
-0.00471297
-0.00465669
-0.0046673
-0.00472451
-0.00465616
-0.00472486
-0.00465649
-0.00472511
-0.0046566
-0.00466742