/*--------------------------------*- C++ -*----------------------------------*\
| =========                 |                                                 |
| \\      /  F ield         | OpenFOAM: The Open Source CFD Toolbox           |
|  \\    /   O peration     | Version:  2206                                  |
|   \\  /    A nd           | Website:  www.openfoam.com                      |
|    \\/     M anipulation  |                                                 |
\*---------------------------------------------------------------------------*/
FoamFile
{
    version     2.0;
    format      ascii;
    arch        "LSB;label=32;scalar=64";
    class       volScalarField;
    location    "0.3";
    object      k;
}
// * * * * * * * * * * * * * * * * * * * * * * * * * * * * * * * * * * * * * //

dimensions      [0 2 -2 0 0 0 0];

internalField   nonuniform List<scalar> 
66701
(
1.58412e-05
1.41625e-05
2.42994e-05
3.21648e-05
1.90367e-05
4.18015e-05
4.08677e-05
2.07462e-05
1.41482e-05
2.42658e-05
3.21211e-05
1.90246e-05
4.17988e-05
2.07421e-05
4.08465e-05
1.5823e-05
4.6276e-06
1.10861e-06
2.05451e-07
7.79816e-08
4.51378e-07
4.48058e-06
1.07403e-06
1.99446e-07
7.69756e-08
4.47964e-07
4.68754e-06
1.11147e-06
2.03876e-07
7.32059e-08
4.15092e-07
4.68152e-06
1.1101e-06
2.03646e-07
7.31743e-08
4.15073e-07
4.62267e-06
1.10752e-06
2.05282e-07
7.79768e-08
4.51443e-07
4.47603e-06
1.07292e-06
1.99256e-07
7.69452e-08
4.47928e-07
4.44215e-06
1.05758e-06
1.95448e-07
7.46823e-08
4.33056e-07
4.54923e-06
1.08476e-06
2.00532e-07
7.60328e-08
4.39814e-07
4.4397e-06
1.05698e-06
1.9535e-07
7.46748e-08
4.33069e-07
4.54842e-06
1.08457e-06
2.005e-07
7.60281e-08
4.39801e-07
1.60615e-05
1.58373e-05
2.66481e-05
3.22958e-05
3.19401e-05
2.47221e-05
2.4506e-05
4.04269e-05
4.17931e-05
2.43073e-05
3.55079e-05
2.46282e-05
4.02476e-05
2.28464e-05
4.17905e-05
2.4273e-05
3.55026e-05
2.46203e-05
2.28496e-05
4.02088e-05
1.58204e-05
2.66364e-05
3.19241e-05
1.5815e-05
2.44e-05
1.36639e-05
1.35823e-05
2.44318e-05
1.36489e-05
1.35649e-05
3.86149e-05
2.36469e-05
3.7643e-05
3.23171e-05
3.86273e-05
2.36241e-05
3.76545e-05
3.81548e-05
2.32079e-05
3.75308e-05
3.19159e-05
3.81749e-05
2.31813e-05
3.75447e-05
1.90118e-05
4.08673e-05
2.07541e-05
4.17867e-05
1.90457e-05
4.08516e-05
2.07215e-05
1.41456e-05
3.21666e-05
2.42789e-05
1.41711e-05
3.21428e-05
1.89997e-05
2.07505e-05
4.08467e-05
4.17841e-05
1.90337e-05
2.07175e-05
4.08307e-05
1.4131e-05
3.21233e-05
2.42444e-05
1.41557e-05
3.20996e-05
1.57975e-05
2.44235e-05
1.35697e-05
1.36887e-05
3.8107e-05
3.75417e-05
3.18999e-05
3.75622e-05
2.31559e-05
3.86359e-05
3.24425e-05
2.36813e-05
3.76157e-05
1.61318e-05
2.20076e-05
2.16444e-05
2.16544e-05
2.15492e-05
2.20036e-05
2.16438e-05
2.16534e-05
2.1549e-05
2.16535e-05
2.15483e-05
2.16539e-05
2.15483e-05
3.64681e-05
2.66666e-05
3.14168e-05
3.14975e-05
3.64468e-05
3.14471e-05
3.1536e-05
3.07153e-05
3.88461e-05
3.42798e-05
4.04077e-05
3.41957e-05
3.09472e-05
3.87868e-05
2.90596e-05
3.68949e-05
2.79664e-05
3.55512e-05
2.90097e-05
3.69289e-05
2.80186e-05
3.10086e-05
3.87356e-05
3.43594e-05
4.02444e-05
3.43984e-05
3.09748e-05
3.876e-05
2.90521e-05
2.79641e-05
3.68782e-05
3.55462e-05
2.90013e-05
2.80163e-05
3.69122e-05
3.09961e-05
3.8705e-05
3.43314e-05
4.02047e-05
3.09617e-05
3.87291e-05
3.43701e-05
3.64592e-05
2.66627e-05
3.14952e-05
3.15324e-05
3.1453e-05
4.68001e-06
1.12146e-06
2.07704e-07
7.82322e-08
4.51623e-07
4.62746e-06
1.10861e-06
2.05452e-07
7.79743e-08
4.51318e-07
4.754e-06
1.1275e-06
2.06667e-07
7.35197e-08
4.1545e-07
4.68888e-06
1.11172e-06
2.03915e-07
7.32027e-08
4.15035e-07
4.68274e-06
1.11033e-06
2.03682e-07
7.31744e-08
4.15044e-07
4.62287e-06
1.10759e-06
2.05296e-07
7.79757e-08
4.5142e-07
4.62508e-06
1.1084e-06
2.05432e-07
7.79627e-08
4.51238e-07
4.44025e-06
1.0574e-06
1.95422e-07
7.46222e-08
4.32587e-07
4.55113e-06
1.08517e-06
2.00602e-07
7.60388e-08
4.39805e-07
4.44405e-06
1.05799e-06
1.95519e-07
7.46902e-08
4.3306e-07
4.54728e-06
1.08455e-06
2.00499e-07
7.59641e-08
4.39281e-07
4.68752e-06
1.11175e-06
2.03941e-07
7.32112e-08
4.15081e-07
4.4378e-06
1.0568e-06
1.95325e-07
7.46156e-08
4.32607e-07
4.55039e-06
1.085e-06
2.00573e-07
7.60349e-08
4.39796e-07
4.44167e-06
1.05741e-06
1.95426e-07
7.46846e-08
4.33085e-07
4.54649e-06
1.08437e-06
2.00468e-07
7.59595e-08
4.39269e-07
4.68135e-06
1.11035e-06
2.03706e-07
7.31809e-08
4.15076e-07
4.62035e-06
1.10735e-06
2.05269e-07
7.79618e-08
4.51327e-07
4.68167e-06
1.10886e-06
2.03463e-07
7.37047e-08
4.19239e-07
4.6792e-06
1.12107e-06
2.07623e-07
7.81997e-08
4.5137e-07
4.20039e-06
1.00855e-06
1.88228e-07
7.63932e-08
4.51867e-07
4.67416e-06
1.10676e-06
2.03094e-07
7.37067e-08
4.19599e-07
4.6712e-06
1.10643e-06
2.03055e-07
7.37048e-08
4.19609e-07
4.18069e-06
1.00366e-06
1.87357e-07
7.62736e-08
4.51659e-07
4.61803e-06
1.0939e-06
2.00886e-07
7.34383e-08
4.19213e-07
4.61639e-06
1.09381e-06
2.00883e-07
7.34165e-08
4.19036e-07
4.19822e-06
1.0082e-06
1.88176e-07
7.63752e-08
4.5176e-07
4.17882e-06
1.00352e-06
1.87345e-07
7.62528e-08
4.51497e-07
4.47975e-06
1.07417e-06
1.99488e-07
7.69643e-08
4.47835e-07
4.48342e-06
1.07474e-06
1.99572e-07
7.69871e-08
4.47957e-07
4.47501e-06
1.07301e-06
1.99291e-07
7.69349e-08
4.47813e-07
4.47853e-06
1.07357e-06
1.99373e-07
7.69585e-08
4.47941e-07
4.6128e-06
1.09303e-06
2.0076e-07
7.34229e-08
4.19131e-07
4.18095e-06
1.00402e-06
1.87423e-07
7.62697e-08
4.51524e-07
4.21076e-06
1.0112e-06
1.88679e-07
7.64157e-08
4.51665e-07
2.43977e-05
2.66728e-05
2.20158e-05
2.46112e-05
2.44788e-05
2.66668e-05
2.20108e-05
2.46247e-05
2.44794e-05
2.66637e-05
2.20242e-05
2.4649e-05
2.44929e-05
2.66797e-05
2.20225e-05
2.46576e-05
2.44975e-05
2.6695e-05
2.19942e-05
2.46369e-05
2.44769e-05
2.66764e-05
2.19868e-05
2.46297e-05
2.44728e-05
2.66731e-05
2.19863e-05
2.46203e-05
2.44702e-05
2.66642e-05
2.19852e-05
2.46098e-05
2.44641e-05
2.66539e-05
2.19855e-05
2.46082e-05
2.4465e-05
2.66574e-05
2.19854e-05
2.46069e-05
2.44657e-05
2.66567e-05
2.19853e-05
2.46079e-05
2.44656e-05
2.66569e-05
2.19854e-05
2.46072e-05
2.44656e-05
2.66568e-05
2.19854e-05
2.46074e-05
2.44655e-05
2.66564e-05
2.19854e-05
2.46071e-05
2.44655e-05
2.66572e-05
2.19854e-05
2.46073e-05
2.4465e-05
2.66565e-05
2.20029e-05
2.44941e-05
2.43799e-05
2.65076e-05
2.65681e-05
2.66609e-05
2.44896e-05
2.44853e-05
2.44871e-05
2.66848e-05
2.66458e-05
2.66848e-05
2.44741e-05
2.44663e-05
2.44734e-05
2.44673e-05
2.66518e-05
2.66757e-05
2.46367e-05
2.4623e-05
2.46431e-05
2.46335e-05
2.46039e-05
2.46193e-05
2.46148e-05
2.66495e-05
2.6688e-05
2.44744e-05
2.44774e-05
2.44752e-05
2.66808e-05
2.66684e-05
2.66933e-05
2.44757e-05
2.44698e-05
2.4486e-05
2.44869e-05
2.66599e-05
2.66964e-05
2.46461e-05
2.46375e-05
2.46529e-05
2.46461e-05
2.46201e-05
2.46431e-05
2.46376e-05
2.66718e-05
2.66989e-05
2.44779e-05
2.44899e-05
2.44894e-05
2.66936e-05
2.66782e-05
2.67083e-05
2.44892e-05
2.4492e-05
2.44945e-05
2.45005e-05
2.66831e-05
2.67167e-05
2.46549e-05
2.46482e-05
2.46593e-05
2.46529e-05
2.46426e-05
2.46575e-05
2.46494e-05
2.66837e-05
2.67127e-05
2.44929e-05
2.44977e-05
2.44972e-05
2.67118e-05
2.6692e-05
2.66999e-05
2.44945e-05
2.45005e-05
2.44806e-05
2.44888e-05
2.67002e-05
2.6705e-05
2.46592e-05
2.46529e-05
2.46422e-05
2.46366e-05
2.46491e-05
2.46425e-05
2.46331e-05
2.66966e-05
2.67054e-05
2.44966e-05
2.44824e-05
2.44804e-05
2.66977e-05
2.66775e-05
2.66799e-05
2.44746e-05
2.44828e-05
2.44697e-05
2.44767e-05
2.66828e-05
2.66859e-05
2.46351e-05
2.46293e-05
2.46271e-05
2.46207e-05
2.46279e-05
2.46303e-05
2.4623e-05
2.66827e-05
2.66853e-05
2.44764e-05
2.44725e-05
2.44746e-05
2.66894e-05
2.66641e-05
2.66809e-05
2.44704e-05
2.44766e-05
2.44712e-05
2.44765e-05
2.6669e-05
2.66801e-05
2.46271e-05
2.46205e-05
2.4625e-05
2.46174e-05
2.46226e-05
2.46234e-05
2.46173e-05
2.66692e-05
2.6683e-05
2.44754e-05
2.44721e-05
2.44753e-05
2.6684e-05
2.66612e-05
2.6663e-05
2.447e-05
2.4475e-05
2.44646e-05
2.44689e-05
2.66607e-05
2.66615e-05
2.46218e-05
2.46142e-05
2.46144e-05
2.46065e-05
2.46145e-05
2.46118e-05
2.46076e-05
2.66631e-05
2.66656e-05
2.44744e-05
2.44649e-05
2.44715e-05
2.66721e-05
2.66452e-05
2.66622e-05
2.44634e-05
2.44668e-05
2.44626e-05
2.44653e-05
2.66431e-05
2.66562e-05
2.46133e-05
2.46054e-05
2.46139e-05
2.46059e-05
2.46065e-05
2.46081e-05
2.46066e-05
2.66477e-05
2.66655e-05
2.44711e-05
2.44641e-05
2.44716e-05
2.6674e-05
2.66462e-05
2.66665e-05
2.4463e-05
2.44651e-05
2.44637e-05
2.44645e-05
2.66394e-05
2.66563e-05
2.46153e-05
2.46075e-05
2.46163e-05
2.4609e-05
2.46073e-05
2.46072e-05
2.46069e-05
2.66497e-05
2.66707e-05
2.44721e-05
2.44658e-05
2.44722e-05
2.66749e-05
2.66486e-05
2.66637e-05
2.44634e-05
2.44642e-05
2.44632e-05
2.44648e-05
2.66387e-05
2.66572e-05
2.46157e-05
2.46087e-05
2.46156e-05
2.46087e-05
2.46066e-05
2.46076e-05
2.46068e-05
2.66529e-05
2.66687e-05
2.44721e-05
2.44655e-05
2.4472e-05
2.66742e-05
2.66474e-05
2.66642e-05
2.44633e-05
2.44647e-05
2.44635e-05
2.44643e-05
2.66406e-05
2.66557e-05
2.46159e-05
2.46089e-05
2.46158e-05
2.46089e-05
2.46069e-05
2.46074e-05
2.46069e-05
2.66522e-05
2.66685e-05
2.4472e-05
2.44656e-05
2.44721e-05
2.66743e-05
2.66471e-05
2.66647e-05
2.44634e-05
2.44641e-05
2.44636e-05
2.44648e-05
2.66385e-05
2.6657e-05
2.46157e-05
2.46088e-05
2.46159e-05
2.46089e-05
2.46068e-05
2.46074e-05
2.46068e-05
2.66515e-05
2.66686e-05
2.44721e-05
2.44655e-05
2.4472e-05
2.66742e-05
2.66476e-05
2.66643e-05
2.44634e-05
2.44646e-05
2.44636e-05
2.44644e-05
2.66403e-05
2.66557e-05
2.46157e-05
2.46087e-05
2.46159e-05
2.46089e-05
2.46066e-05
2.46074e-05
2.46069e-05
2.66516e-05
2.66685e-05
2.44718e-05
2.44655e-05
2.44719e-05
2.66747e-05
2.66479e-05
2.66641e-05
2.44633e-05
2.44641e-05
2.44633e-05
2.44646e-05
2.66388e-05
2.66575e-05
2.46158e-05
2.46087e-05
2.46158e-05
2.46088e-05
2.46066e-05
2.46075e-05
2.46067e-05
2.66519e-05
2.66682e-05
2.44718e-05
2.44653e-05
2.44717e-05
2.6674e-05
2.66476e-05
2.66633e-05
2.44629e-05
2.44641e-05
2.46147e-05
2.46173e-05
2.6641e-05
2.66551e-05
2.46157e-05
2.46083e-05
2.45824e-05
2.45704e-05
2.46062e-05
2.4574e-05
2.45684e-05
2.66513e-05
2.66352e-05
2.44713e-05
2.44409e-05
2.44471e-05
2.66405e-05
2.46443e-05
2.66392e-05
2.45066e-05
2.44789e-05
2.44769e-05
2.65028e-05
2.43867e-05
1.59712e-05
1.60923e-05
3.51931e-05
2.27059e-05
4.05596e-05
2.43816e-05
4.06065e-05
3.51839e-05
2.27006e-05
3.2112e-05
3.24563e-05
2.66865e-05
3.24639e-05
3.21161e-05
4.24538e-05
2.49444e-05
2.49146e-05
4.24368e-05
1.61421e-05
1.61313e-05
4.18433e-05
2.44906e-05
2.44225e-05
4.1846e-05
2.19853e-05
2.20176e-05
2.19886e-05
2.20086e-05
2.19885e-05
2.20108e-05
2.19925e-05
3.56035e-05
4.04372e-05
2.28304e-05
2.46126e-05
4.04257e-05
2.2831e-05
3.55553e-05
1.5933e-05
1.59013e-05
3.52057e-05
2.26931e-05
4.06247e-05
2.44762e-05
3.51832e-05
2.26906e-05
4.06391e-05
3.21366e-05
3.24977e-05
2.66823e-05
3.20988e-05
3.24795e-05
4.24707e-05
2.49042e-05
4.24612e-05
2.48982e-05
1.61358e-05
1.6126e-05
4.18452e-05
2.43957e-05
4.18447e-05
2.43641e-05
2.19959e-05
2.20135e-05
2.2e-05
2.20228e-05
2.20168e-05
2.20239e-05
2.20186e-05
3.55793e-05
4.04088e-05
2.28431e-05
2.46303e-05
3.5546e-05
4.0401e-05
2.2849e-05
1.58969e-05
1.58711e-05
3.52179e-05
2.26933e-05
4.06431e-05
2.44829e-05
3.51872e-05
2.26965e-05
4.06526e-05
3.20874e-05
3.24783e-05
2.66833e-05
3.20619e-05
3.24751e-05
4.25528e-05
2.49229e-05
4.25296e-05
2.4922e-05
1.61481e-05
1.61431e-05
4.19171e-05
2.43772e-05
4.19017e-05
2.43565e-05
2.20202e-05
2.20247e-05
2.20211e-05
2.20243e-05
2.20226e-05
2.2024e-05
2.20223e-05
3.56303e-05
4.04323e-05
2.28623e-05
2.46535e-05
3.55662e-05
4.04375e-05
2.28646e-05
1.58765e-05
1.58549e-05
3.52728e-05
2.27023e-05
4.06867e-05
2.44954e-05
3.52368e-05
2.27031e-05
4.06981e-05
3.20869e-05
3.2505e-05
2.67059e-05
3.20733e-05
3.2499e-05
4.25747e-05
2.49286e-05
4.2574e-05
2.49192e-05
1.61527e-05
1.61363e-05
4.195e-05
2.43646e-05
4.19542e-05
2.4337e-05
2.20217e-05
2.20218e-05
2.20206e-05
2.20003e-05
2.20018e-05
2.20001e-05
2.19992e-05
3.56455e-05
4.04481e-05
2.28652e-05
2.46555e-05
3.55985e-05
4.04345e-05
2.28613e-05
1.58668e-05
1.58435e-05
3.52896e-05
2.2702e-05
4.07037e-05
2.44958e-05
3.52712e-05
2.26974e-05
4.06958e-05
3.20905e-05
3.25121e-05
2.67107e-05
3.20646e-05
3.24945e-05
4.25783e-05
2.4934e-05
4.25765e-05
2.49335e-05
1.61477e-05
1.614e-05
4.19336e-05
2.43414e-05
4.1948e-05
2.43131e-05
2.1996e-05
2.19941e-05
2.19939e-05
2.1987e-05
2.19894e-05
2.19871e-05
2.19881e-05
3.56099e-05
4.0421e-05
2.28414e-05
2.46332e-05
3.55781e-05
4.04025e-05
2.28382e-05
1.5851e-05
1.58268e-05
3.52729e-05
2.26804e-05
4.06869e-05
2.44736e-05
3.52552e-05
2.26784e-05
4.06891e-05
3.20675e-05
3.25013e-05
2.66865e-05
3.20392e-05
3.24918e-05
4.25889e-05
2.49375e-05
4.25892e-05
2.49171e-05
1.61407e-05
1.61193e-05
4.19082e-05
2.43102e-05
4.19355e-05
2.42728e-05
2.1989e-05
2.19868e-05
2.19878e-05
2.19866e-05
2.19884e-05
2.19865e-05
2.19875e-05
3.56065e-05
4.03854e-05
2.28365e-05
2.46281e-05
3.55667e-05
4.0359e-05
2.28362e-05
1.58273e-05
1.57992e-05
3.52966e-05
2.26788e-05
4.06907e-05
2.4473e-05
3.52739e-05
2.268e-05
4.06798e-05
3.2032e-05
3.2496e-05
2.66913e-05
3.19973e-05
3.2472e-05
4.25711e-05
2.49064e-05
4.25817e-05
2.48919e-05
1.61229e-05
1.61114e-05
4.18536e-05
2.42687e-05
4.18828e-05
2.42408e-05
2.19879e-05
2.19861e-05
2.19872e-05
2.19853e-05
2.19864e-05
2.19851e-05
2.19864e-05
3.55616e-05
4.03337e-05
2.28317e-05
2.46172e-05
3.55312e-05
4.03106e-05
2.28299e-05
1.58017e-05
1.57795e-05
3.52923e-05
2.26815e-05
4.06594e-05
2.44681e-05
3.52748e-05
2.26814e-05
4.06462e-05
3.19925e-05
3.24682e-05
2.66762e-05
3.19654e-05
3.24503e-05
4.25631e-05
2.48976e-05
4.25618e-05
2.48925e-05
1.61183e-05
1.61056e-05
4.18454e-05
2.42582e-05
4.18498e-05
2.42445e-05
2.1986e-05
2.1985e-05
2.19863e-05
2.19853e-05
2.19855e-05
2.19854e-05
2.19865e-05
3.55454e-05
4.03006e-05
2.28263e-05
2.46084e-05
3.55039e-05
4.0292e-05
2.28257e-05
1.57959e-05
1.57823e-05
3.52841e-05
2.26806e-05
4.06351e-05
2.44638e-05
3.52656e-05
2.26806e-05
4.06355e-05
3.19815e-05
3.24612e-05
2.66707e-05
3.19708e-05
3.24517e-05
4.25682e-05
2.49023e-05
4.2567e-05
2.4892e-05
1.61153e-05
1.61082e-05
4.18639e-05
2.42673e-05
4.18685e-05
2.42448e-05
2.19854e-05
2.19857e-05
2.19866e-05
2.19855e-05
2.19852e-05
2.19861e-05
2.19866e-05
3.55572e-05
4.03049e-05
2.28259e-05
2.46082e-05
3.55083e-05
4.02957e-05
2.2826e-05
1.58025e-05
1.57843e-05
3.52888e-05
2.26811e-05
4.06417e-05
2.44656e-05
3.52702e-05
2.26813e-05
4.06413e-05
3.19922e-05
3.24663e-05
2.66766e-05
3.19682e-05
3.2451e-05
4.25662e-05
2.48984e-05
4.2569e-05
2.48909e-05
1.61175e-05
1.6104e-05
4.18561e-05
2.42634e-05
4.18655e-05
2.42465e-05
2.19851e-05
2.19861e-05
2.19866e-05
2.19853e-05
2.19852e-05
2.19861e-05
2.19866e-05
3.55484e-05
4.02952e-05
2.28254e-05
2.46067e-05
3.55045e-05
4.02933e-05
2.28253e-05
1.58015e-05
1.57852e-05
3.52883e-05
2.26814e-05
4.06409e-05
2.44655e-05
3.52706e-05
2.26813e-05
4.06394e-05
3.19843e-05
3.24643e-05
2.66732e-05
3.19698e-05
3.24489e-05
4.256e-05
2.48969e-05
4.2564e-05
2.48891e-05
1.61152e-05
1.61088e-05
4.18601e-05
2.42655e-05
4.18707e-05
2.42451e-05
2.19852e-05
2.19861e-05
2.19866e-05
2.19853e-05
2.19852e-05
2.19861e-05
2.19867e-05
3.55535e-05
4.03045e-05
2.28256e-05
2.46079e-05
3.55093e-05
4.02955e-05
2.28257e-05
1.58017e-05
1.57841e-05
3.52865e-05
2.26812e-05
4.06403e-05
2.44656e-05
3.52676e-05
2.26812e-05
4.06385e-05
3.19883e-05
3.24641e-05
2.66745e-05
3.19665e-05
3.24509e-05
4.25572e-05
2.48985e-05
4.25599e-05
2.48915e-05
1.61186e-05
1.61056e-05
4.18608e-05
2.42664e-05
4.18681e-05
2.4246e-05
2.19852e-05
2.19861e-05
2.19866e-05
2.19853e-05
2.19852e-05
2.19861e-05
2.19866e-05
3.55524e-05
4.03e-05
2.28256e-05
2.46071e-05
3.55079e-05
4.02942e-05
2.28256e-05
1.58018e-05
1.5784e-05
3.52891e-05
2.26813e-05
4.06397e-05
2.44656e-05
3.5271e-05
2.26812e-05
4.06378e-05
3.19875e-05
3.24648e-05
2.66744e-05
3.19668e-05
3.24492e-05
4.2559e-05
2.49016e-05
4.25574e-05
2.48932e-05
1.61168e-05
1.6111e-05
4.18596e-05
2.42659e-05
4.18694e-05
2.42456e-05
2.19852e-05
2.19861e-05
2.19866e-05
2.19853e-05
2.19851e-05
2.19861e-05
2.19866e-05
3.55521e-05
4.03031e-05
2.28255e-05
2.46075e-05
3.55071e-05
4.02955e-05
2.28256e-05
1.58015e-05
1.57845e-05
3.52893e-05
2.26812e-05
4.06398e-05
2.44655e-05
3.52701e-05
2.26812e-05
4.06386e-05
3.19862e-05
3.24613e-05
2.66735e-05
3.19682e-05
3.24473e-05
4.25634e-05
2.49e-05
4.25626e-05
2.48913e-05
1.61195e-05
1.61075e-05
4.186e-05
2.42645e-05
4.18699e-05
2.42451e-05
2.19851e-05
2.19861e-05
2.19866e-05
2.19853e-05
2.19851e-05
2.19861e-05
2.19866e-05
3.55517e-05
4.03001e-05
2.28255e-05
2.46073e-05
3.55082e-05
4.02945e-05
2.28256e-05
1.5801e-05
1.57843e-05
3.52903e-05
2.26812e-05
4.06406e-05
2.44655e-05
3.52714e-05
2.26812e-05
4.06383e-05
3.1987e-05
3.24618e-05
2.66739e-05
3.19679e-05
3.24468e-05
4.25126e-05
2.48925e-05
4.25641e-05
2.49175e-05
1.61143e-05
1.61387e-05
4.18602e-05
2.42661e-05
4.18701e-05
2.42465e-05
2.19852e-05
2.1986e-05
2.19866e-05
2.20053e-05
2.20034e-05
2.19676e-05
2.19681e-05
3.55519e-05
4.03036e-05
2.28254e-05
2.46077e-05
3.55069e-05
4.02954e-05
2.28256e-05
1.58028e-05
1.57861e-05
3.5289e-05
2.2681e-05
4.06393e-05
2.44651e-05
3.52713e-05
2.26808e-05
4.06384e-05
3.19879e-05
3.24626e-05
2.66735e-05
3.19687e-05
3.24476e-05
1.60303e-05
2.44292e-05
4.18449e-05
2.20015e-05
2.19448e-05
2.19452e-05
4.02838e-05
2.27377e-05
3.52895e-05
1.59033e-05
2.26639e-05
4.06128e-05
3.52714e-05
3.20782e-05
3.25237e-05
3.21169e-05
3.25235e-05
2.63976e-05
3.26222e-05
3.22684e-05
1.62257e-05
1.62331e-05
1.59138e-05
1.60352e-05
2.64689e-05
3.20959e-05
3.2564e-05
3.26295e-05
3.22311e-05
1.61715e-05
1.62275e-05
3.5194e-05
2.27187e-05
4.06151e-05
2.44878e-05
4.06455e-05
3.51845e-05
2.27124e-05
4.23369e-05
2.50538e-05
2.50554e-05
4.22841e-05
4.2334e-05
2.49332e-05
2.4919e-05
4.22829e-05
3.51749e-05
2.43965e-05
2.26964e-05
4.06102e-05
4.06275e-05
3.52009e-05
2.26824e-05
3.51758e-05
2.44858e-05
2.2696e-05
4.06802e-05
4.06644e-05
3.52021e-05
2.27014e-05
4.2362e-05
2.49618e-05
2.50568e-05
4.23984e-05
4.23596e-05
2.49141e-05
2.49306e-05
4.23958e-05
1.58961e-05
1.58888e-05
1.6165e-05
1.61462e-05
2.66687e-05
3.21204e-05
3.24853e-05
3.24895e-05
3.21422e-05
1.58779e-05
1.59135e-05
1.61464e-05
1.61559e-05
1.61441e-05
1.61336e-05
1.59397e-05
1.59078e-05
3.24965e-05
3.21082e-05
2.66773e-05
3.24791e-05
3.20692e-05
1.61294e-05
1.61445e-05
1.5891e-05
1.59262e-05
2.66629e-05
3.24603e-05
3.2045e-05
3.24906e-05
3.20863e-05
4.2446e-05
2.49082e-05
2.48845e-05
4.24262e-05
3.52115e-05
4.05575e-05
2.26873e-05
2.44728e-05
4.05761e-05
2.26818e-05
3.51834e-05
3.52094e-05
4.06319e-05
2.26825e-05
2.44661e-05
4.06431e-05
2.26789e-05
3.51808e-05
4.24614e-05
2.48954e-05
2.49228e-05
4.246e-05
4.24551e-05
2.4871e-05
2.48929e-05
4.2456e-05
3.51961e-05
2.44728e-05
4.05832e-05
2.268e-05
4.05857e-05
2.26799e-05
3.52198e-05
3.51942e-05
2.44664e-05
4.06406e-05
2.2678e-05
4.06494e-05
2.26778e-05
3.52184e-05
3.24665e-05
3.2152e-05
2.66717e-05
3.24572e-05
3.2117e-05
1.58981e-05
1.5873e-05
1.61258e-05
1.61415e-05
2.66555e-05
3.24453e-05
3.20927e-05
3.24716e-05
3.21346e-05
1.58641e-05
1.58928e-05
3.5572e-05
4.0259e-05
2.28791e-05
2.46381e-05
4.02783e-05
2.28705e-05
3.55411e-05
4.1842e-05
2.44739e-05
2.44095e-05
4.1844e-05
3.55678e-05
2.28787e-05
4.02328e-05
2.46256e-05
2.28711e-05
4.02528e-05
3.55365e-05
4.18501e-05
2.43792e-05
2.44379e-05
4.18378e-05
3.55213e-05
2.46404e-05
4.03006e-05
2.28646e-05
4.02959e-05
2.28657e-05
3.55486e-05
4.18487e-05
2.43673e-05
2.44251e-05
4.18358e-05
3.55171e-05
2.46294e-05
2.28646e-05
4.02759e-05
2.2866e-05
4.02708e-05
3.55445e-05
4.19807e-05
2.43738e-05
2.43401e-05
4.20106e-05
3.5602e-05
2.28319e-05
4.04247e-05
2.46064e-05
2.2834e-05
4.04123e-05
3.55537e-05
4.19804e-05
2.43796e-05
2.43447e-05
4.20094e-05
3.55576e-05
2.46151e-05
4.04053e-05
2.28364e-05
4.04309e-05
2.28324e-05
3.55957e-05
4.19839e-05
2.43261e-05
2.43597e-05
4.19469e-05
3.55562e-05
2.46101e-05
2.28379e-05
4.03941e-05
2.28353e-05
4.04177e-05
3.55946e-05
4.19837e-05
2.43311e-05
2.43646e-05
4.19466e-05
3.21134e-05
3.25774e-05
2.66805e-05
3.2068e-05
3.25508e-05
1.61852e-05
1.61708e-05
1.5879e-05
1.59194e-05
2.66659e-05
3.20366e-05
3.25297e-05
3.2084e-05
3.25614e-05
1.61659e-05
1.6181e-05
3.52069e-05
2.26929e-05
4.06898e-05
2.44732e-05
3.51847e-05
2.26905e-05
4.06831e-05
4.24164e-05
2.49696e-05
4.24165e-05
2.49383e-05
4.24139e-05
2.4923e-05
4.24133e-05
2.48925e-05
3.51881e-05
2.44765e-05
2.26904e-05
4.06408e-05
2.26896e-05
4.06465e-05
3.52058e-05
3.51893e-05
2.44739e-05
2.269e-05
4.06718e-05
2.26895e-05
4.06858e-05
3.52064e-05
4.2419e-05
2.49174e-05
2.49463e-05
4.24155e-05
4.24164e-05
2.48824e-05
2.49016e-05
4.24113e-05
1.58961e-05
1.58635e-05
1.61579e-05
1.61408e-05
2.66643e-05
3.20713e-05
3.24668e-05
3.2116e-05
3.24916e-05
1.58553e-05
1.58833e-05
1.61419e-05
1.61521e-05
1.61418e-05
1.6132e-05
1.59097e-05
1.58804e-05
3.24721e-05
3.2063e-05
2.66878e-05
3.24518e-05
3.20316e-05
1.61379e-05
1.61462e-05
1.58758e-05
1.59014e-05
2.66717e-05
3.24628e-05
3.20313e-05
3.24682e-05
3.20514e-05
4.24644e-05
2.48806e-05
4.24606e-05
2.48712e-05
3.5222e-05
4.05886e-05
2.26818e-05
2.44793e-05
3.52021e-05
4.05918e-05
2.26866e-05
3.52208e-05
4.06434e-05
2.26796e-05
2.44762e-05
3.52009e-05
4.06356e-05
2.26844e-05
4.24858e-05
2.49096e-05
2.49147e-05
4.25147e-05
4.24769e-05
2.48881e-05
2.48891e-05
4.25019e-05
3.52068e-05
2.44827e-05
4.0617e-05
2.26942e-05
4.06038e-05
2.26909e-05
3.52496e-05
3.52054e-05
2.44813e-05
4.06522e-05
2.26933e-05
4.06433e-05
2.26894e-05
3.52471e-05
3.24559e-05
3.2111e-05
2.66832e-05
3.24299e-05
3.20766e-05
1.58852e-05
1.5867e-05
1.61353e-05
1.61426e-05
2.66688e-05
3.24418e-05
3.209e-05
3.24471e-05
3.21023e-05
1.58642e-05
1.5888e-05
3.55346e-05
4.03163e-05
2.28647e-05
2.46487e-05
3.54982e-05
4.03268e-05
2.28656e-05
4.18467e-05
2.43852e-05
4.18442e-05
2.4345e-05
3.55308e-05
2.28647e-05
4.02918e-05
2.46409e-05
3.54941e-05
2.28655e-05
4.0301e-05
4.18641e-05
2.43574e-05
2.43851e-05
4.18808e-05
3.54898e-05
2.46509e-05
4.03612e-05
2.28685e-05
4.03467e-05
2.28672e-05
3.55474e-05
4.18656e-05
2.43327e-05
2.43649e-05
4.18813e-05
3.54863e-05
2.46437e-05
2.2868e-05
4.03316e-05
2.2867e-05
4.03197e-05
3.55444e-05
4.19387e-05
2.4346e-05
4.19516e-05
2.43238e-05
3.55781e-05
2.28439e-05
4.03999e-05
2.46257e-05
3.55452e-05
2.28498e-05
4.03883e-05
4.19382e-05
2.43518e-05
4.19512e-05
2.4326e-05
3.5534e-05
2.46368e-05
4.04213e-05
2.28587e-05
4.04165e-05
2.28542e-05
3.56032e-05
4.19524e-05
2.43281e-05
2.43482e-05
4.19597e-05
3.55326e-05
2.46317e-05
2.28589e-05
4.04037e-05
2.28548e-05
4.0401e-05
3.56014e-05
4.1952e-05
2.43283e-05
2.43488e-05
4.19591e-05
3.2054e-05
3.25412e-05
2.66924e-05
3.20205e-05
3.25208e-05
1.61773e-05
1.61652e-05
1.58578e-05
1.58909e-05
2.66766e-05
3.20135e-05
3.25261e-05
3.20398e-05
3.25355e-05
1.61673e-05
1.6178e-05
3.52173e-05
2.26925e-05
4.06754e-05
2.44814e-05
3.51881e-05
2.26956e-05
4.06763e-05
4.24385e-05
2.49269e-05
4.24226e-05
2.49146e-05
4.24345e-05
2.48938e-05
4.24184e-05
2.48844e-05
3.52068e-05
2.44865e-05
2.2701e-05
4.06775e-05
2.26991e-05
4.06665e-05
3.52494e-05
3.52063e-05
2.44854e-05
2.27002e-05
4.06972e-05
2.26982e-05
4.06882e-05
3.52486e-05
4.24565e-05
2.49198e-05
2.49288e-05
4.24856e-05
4.24528e-05
2.48939e-05
2.48995e-05
4.24797e-05
1.58758e-05
1.58514e-05
1.61554e-05
1.61467e-05
2.66678e-05
3.2066e-05
3.24902e-05
3.2084e-05
3.24962e-05
1.58537e-05
1.58738e-05
1.61554e-05
1.61614e-05
1.61515e-05
1.61415e-05
1.58969e-05
1.58699e-05
3.24807e-05
3.20549e-05
2.67023e-05
3.24727e-05
3.20381e-05
1.61382e-05
1.61535e-05
1.58643e-05
1.58907e-05
2.66872e-05
3.247e-05
3.20334e-05
3.24883e-05
3.20599e-05
4.25367e-05
2.49033e-05
4.25196e-05
2.48996e-05
3.52768e-05
4.06328e-05
2.26967e-05
2.44918e-05
3.52378e-05
4.06447e-05
2.26983e-05
3.52737e-05
4.06659e-05
2.26962e-05
2.44962e-05
3.52352e-05
4.06743e-05
2.26982e-05
4.25647e-05
2.49196e-05
2.49351e-05
4.25711e-05
4.2547e-05
2.49046e-05
2.49139e-05
4.2554e-05
3.52639e-05
2.44937e-05
4.06564e-05
2.26994e-05
4.06552e-05
2.26992e-05
3.52963e-05
3.52607e-05
2.44991e-05
4.06837e-05
2.26996e-05
4.06834e-05
2.26993e-05
3.52924e-05
3.24617e-05
3.21138e-05
2.67106e-05
3.24552e-05
3.20966e-05
1.58863e-05
1.58628e-05
1.61429e-05
1.61559e-05
2.66957e-05
3.24589e-05
3.20919e-05
3.24718e-05
3.21179e-05
1.58597e-05
1.58842e-05
3.55812e-05
4.03821e-05
2.28693e-05
2.46569e-05
3.55106e-05
4.03944e-05
2.28701e-05
4.19184e-05
2.43536e-05
4.19038e-05
2.43259e-05
3.55782e-05
2.28687e-05
4.03513e-05
2.46503e-05
3.55078e-05
2.28693e-05
4.03619e-05
4.19368e-05
2.43461e-05
2.43786e-05
4.19432e-05
3.55435e-05
2.46585e-05
4.04153e-05
2.28705e-05
4.04118e-05
2.28705e-05
3.56071e-05
4.19372e-05
2.43137e-05
2.43466e-05
4.19427e-05
3.55404e-05
2.4652e-05
2.28696e-05
4.03818e-05
2.28697e-05
4.03787e-05
3.56039e-05
4.19779e-05
2.43508e-05
4.19757e-05
2.43261e-05
3.56288e-05
2.28621e-05
4.04169e-05
2.46464e-05
3.55646e-05
2.28641e-05
4.04162e-05
4.19769e-05
2.4351e-05
4.1975e-05
2.43261e-05
3.55888e-05
2.46564e-05
4.04423e-05
2.2866e-05
4.04487e-05
2.28658e-05
3.56418e-05
4.19897e-05
2.43148e-05
2.43464e-05
4.19863e-05
3.55872e-05
2.46487e-05
2.28653e-05
4.04209e-05
2.28651e-05
4.04267e-05
3.56399e-05
4.19887e-05
2.4316e-05
2.43469e-05
4.1985e-05
3.2035e-05
3.25416e-05
2.6707e-05
3.20164e-05
3.25284e-05
1.61793e-05
1.61647e-05
1.58482e-05
1.5876e-05
2.66915e-05
3.20176e-05
3.25193e-05
3.20392e-05
3.25423e-05
1.61589e-05
1.61758e-05
3.52711e-05
2.27015e-05
4.07084e-05
2.44956e-05
3.52362e-05
2.27022e-05
4.07112e-05
4.25179e-05
2.49316e-05
4.25031e-05
2.49158e-05
4.25095e-05
2.49073e-05
4.2496e-05
2.4894e-05
3.52594e-05
2.44971e-05
2.27032e-05
4.07028e-05
2.27034e-05
4.07068e-05
3.52881e-05
3.52574e-05
2.4497e-05
2.27022e-05
4.07133e-05
2.27024e-05
4.07172e-05
3.52854e-05
4.25268e-05
2.49107e-05
2.4927e-05
4.2531e-05
4.25186e-05
2.48942e-05
2.49057e-05
4.25209e-05
1.58757e-05
1.58502e-05
1.61691e-05
1.61563e-05
2.66907e-05
3.20732e-05
3.25014e-05
3.20967e-05
3.25155e-05
1.58455e-05
1.5872e-05
1.61572e-05
1.61688e-05
1.61487e-05
1.61336e-05
1.58842e-05
1.58539e-05
3.2482e-05
3.20523e-05
2.67102e-05
3.24589e-05
3.2021e-05
1.61323e-05
1.61449e-05
1.58474e-05
1.5874e-05
2.66922e-05
3.24502e-05
3.20075e-05
3.24712e-05
3.20397e-05
4.2558e-05
2.49162e-05
4.25597e-05
2.49031e-05
3.53042e-05
4.06621e-05
2.26989e-05
2.44932e-05
3.52811e-05
4.06563e-05
2.26963e-05
3.52997e-05
4.06895e-05
2.26991e-05
2.45001e-05
3.52771e-05
4.06803e-05
2.26968e-05
4.25781e-05
2.49219e-05
2.49324e-05
4.25755e-05
4.25607e-05
2.49072e-05
2.49157e-05
4.25569e-05
3.52858e-05
2.4488e-05
4.06483e-05
2.26826e-05
4.06593e-05
2.26893e-05
3.52997e-05
3.52811e-05
2.44959e-05
4.06708e-05
2.26834e-05
4.06831e-05
2.26901e-05
3.52941e-05
3.24727e-05
3.21113e-05
2.67173e-05
3.24444e-05
3.20747e-05
1.58807e-05
1.58545e-05
1.61368e-05
1.61496e-05
2.66986e-05
3.24411e-05
3.20633e-05
3.24594e-05
3.20931e-05
1.58428e-05
1.58722e-05
3.56194e-05
4.04271e-05
2.28692e-05
2.46573e-05
3.55665e-05
4.04227e-05
2.28643e-05
4.195e-05
2.43338e-05
4.19552e-05
2.43064e-05
3.56161e-05
2.28684e-05
4.03939e-05
2.46513e-05
3.55634e-05
2.28637e-05
4.03902e-05
4.19579e-05
2.4323e-05
2.43576e-05
4.19424e-05
3.55744e-05
2.46505e-05
4.04149e-05
2.28467e-05
4.04312e-05
2.28553e-05
3.5611e-05
4.19574e-05
2.42925e-05
2.43269e-05
4.1942e-05
3.5571e-05
2.46451e-05
2.2846e-05
4.03817e-05
2.28549e-05
4.03989e-05
3.56075e-05
4.19809e-05
2.43352e-05
4.19948e-05
2.43033e-05
3.56438e-05
2.28645e-05
4.04288e-05
2.46467e-05
3.55968e-05
2.28607e-05
4.04108e-05
4.19794e-05
2.43366e-05
4.19934e-05
2.43043e-05
3.55983e-05
2.46495e-05
4.04171e-05
2.28466e-05
4.04402e-05
2.28536e-05
3.56296e-05
4.19872e-05
2.42893e-05
2.43232e-05
4.1968e-05
3.55965e-05
2.46399e-05
2.2846e-05
4.0394e-05
2.2853e-05
4.04164e-05
3.56276e-05
4.19857e-05
2.42883e-05
2.43242e-05
4.19665e-05
3.20372e-05
3.25312e-05
2.67159e-05
3.20068e-05
3.25107e-05
1.61693e-05
1.61532e-05
1.58325e-05
1.58635e-05
2.66979e-05
3.19933e-05
3.25023e-05
3.20259e-05
3.25231e-05
1.6152e-05
1.61643e-05
3.52858e-05
2.27007e-05
4.07164e-05
2.44933e-05
3.52686e-05
2.26955e-05
4.0705e-05
4.25281e-05
2.49205e-05
4.2535e-05
2.4902e-05
4.25177e-05
2.49064e-05
4.25243e-05
2.48936e-05
3.52692e-05
2.44897e-05
2.26844e-05
4.06854e-05
2.26903e-05
4.06986e-05
3.52771e-05
3.52653e-05
2.44864e-05
2.26831e-05
4.06994e-05
2.26887e-05
4.07082e-05
3.52733e-05
4.25303e-05
2.49075e-05
2.49139e-05
4.25275e-05
4.252e-05
2.49037e-05
2.49073e-05
4.25174e-05
1.58662e-05
1.58393e-05
1.61689e-05
1.61541e-05
2.66913e-05
3.20506e-05
3.24896e-05
3.20842e-05
3.25082e-05
1.58336e-05
1.58602e-05
1.6157e-05
1.61664e-05
1.61442e-05
1.61347e-05
1.58676e-05
1.58374e-05
3.24638e-05
3.20266e-05
2.66818e-05
3.24524e-05
3.19961e-05
1.613e-05
1.61468e-05
1.58271e-05
1.58572e-05
2.66626e-05
3.24534e-05
3.1979e-05
3.24696e-05
3.20148e-05
4.25614e-05
2.49208e-05
4.25609e-05
2.49127e-05
3.52908e-05
4.0652e-05
2.26775e-05
2.44709e-05
3.52788e-05
4.06504e-05
2.26744e-05
3.5285e-05
4.06745e-05
2.26783e-05
2.44789e-05
3.52731e-05
4.06682e-05
2.26752e-05
4.25847e-05
2.49302e-05
2.49481e-05
4.25871e-05
4.25672e-05
2.49073e-05
2.49249e-05
4.25685e-05
3.52721e-05
2.44697e-05
4.06587e-05
2.26731e-05
4.06587e-05
2.26732e-05
3.52975e-05
3.52665e-05
2.44771e-05
4.06718e-05
2.26739e-05
4.06735e-05
2.2674e-05
3.52918e-05
3.24558e-05
3.20816e-05
2.66884e-05
3.24421e-05
3.20448e-05
1.58626e-05
1.58322e-05
1.61326e-05
1.61507e-05
2.66695e-05
3.24348e-05
3.20195e-05
3.24566e-05
3.20621e-05
1.58185e-05
1.58513e-05
3.55913e-05
4.0421e-05
2.28393e-05
2.46302e-05
3.55606e-05
4.04047e-05
2.28343e-05
4.19338e-05
2.43123e-05
4.19484e-05
2.42816e-05
3.55882e-05
2.28385e-05
4.03879e-05
2.46242e-05
3.55572e-05
2.28333e-05
4.03713e-05
4.19413e-05
2.4293e-05
2.43333e-05
4.19302e-05
3.5544e-05
2.46278e-05
4.03981e-05
2.28312e-05
4.04114e-05
2.28318e-05
3.55927e-05
4.19411e-05
2.42597e-05
2.43013e-05
4.19283e-05
3.5541e-05
2.46215e-05
2.283e-05
4.03614e-05
2.28307e-05
4.03779e-05
3.55893e-05
4.1954e-05
2.43091e-05
4.19739e-05
2.4277e-05
3.56078e-05
2.28407e-05
4.03996e-05
2.46247e-05
3.55763e-05
2.28375e-05
4.03784e-05
4.19529e-05
2.43082e-05
4.19724e-05
2.42712e-05
3.55633e-05
2.46312e-05
4.03823e-05
2.28365e-05
4.0408e-05
2.28368e-05
3.56113e-05
4.19601e-05