/*--------------------------------*- C++ -*----------------------------------*\
| =========                 |                                                 |
| \\      /  F ield         | OpenFOAM: The Open Source CFD Toolbox           |
|  \\    /   O peration     | Version:  2206                                  |
|   \\  /    A nd           | Website:  www.openfoam.com                      |
|    \\/     M anipulation  |                                                 |
\*---------------------------------------------------------------------------*/
FoamFile
{
    version     2.0;
    format      ascii;
    arch        "LSB;label=32;scalar=64";
    class       surfaceScalarField;
    location    "0.3";
    object      phi;
}
// * * * * * * * * * * * * * * * * * * * * * * * * * * * * * * * * * * * * * //

dimensions      [0 3 -1 0 0 0 0];

oriented        oriented;

internalField   nonuniform List<scalar> 
196491
(
-2.13398e-12
-1.86536e-12
-7.93718e-09
-4.27784e-12
-1.87376e-12
-1.84549e-12
-6.51635e-09
-3.38579e-12
-1.46208e-12
-1.56384e-08
-6.81847e-12
-2.34242e-08
-1.3582e-11
-1.0551e-12
-7.05774e-13
-1.16818e-08
4.49521e-12
1.66517e-11
1.37274e-13
-2.18904e-08
-2.09661e-08
1.43197e-13
-6.71618e-13
-1.41654e-08
-3.9493e-12
-2.14834e-12
-1.87201e-12
-6.51257e-09
-3.83959e-12
2.41458e-12
-1.49767e-12
-1.56339e-08
-7.13013e-12
-2.34129e-08
-1.33896e-12
-1.35637e-11
-6.91937e-13
-1.16756e-08
1.66448e-11
4.7535e-12
-2.18869e-08
-6.71056e-13
-1.4162e-08
-2.09573e-08
-1.94632e-12
-7.93605e-09
-8.84943e-13
3.4126e-14
-5.30553e-09
-3.94517e-13
6.19623e-14
-2.88193e-09
-1.55032e-13
4.43468e-14
-1.42249e-09
-3.8555e-14
2.21158e-14
-5.89273e-10
6.08002e-15
-1.39995e-10
-8.69668e-13
1.14261e-13
-1.04255e-13
-5.27786e-09
-3.82467e-13
3.82136e-14
-3.69281e-14
-2.86698e-09
-1.48647e-13
1.26256e-14
-1.48025e-14
-1.41503e-09
-3.66935e-14
4.96601e-15
-6.18897e-15
-5.86156e-10
1.84144e-15
-1.67851e-15
-1.39272e-10
-6.72305e-13
-2.83807e-09
-3.05314e-13
-1.55062e-09
-1.20827e-13
-7.68631e-10
-3.03589e-14
-3.19405e-10
-7.60315e-11
-6.90696e-13
1.21547e-13
-2.70262e-13
-2.8374e-09
-3.13816e-13
5.48502e-14
-1.49538e-13
-1.55036e-09
-1.23803e-13
2.58874e-14
-7.8168e-14
-7.68463e-10
-3.08724e-14
1.08788e-14
-3.52907e-14
-3.19366e-10
2.52179e-15
-9.55127e-15
-7.60088e-11
-9.37026e-13
-5.3049e-09
-4.21059e-13
-2.88165e-09
-1.65128e-13
-1.42237e-09
-4.06605e-14
-5.89283e-10
-1.40006e-10
-8.82086e-13
-2.4764e-13
-5.27513e-09
-3.88876e-13
-1.33829e-13
-2.86563e-09
-1.51451e-13
-7.0887e-14
-1.41427e-09
-3.74411e-14
-3.20646e-14
-5.85907e-10
-8.37225e-15
-1.39185e-10
-3.08873e-13
-3.09278e-14
-3.29431e-09
-1.3601e-13
7.21136e-16
-1.79614e-09
-5.51291e-14
4.14239e-15
-8.88921e-10
-1.47687e-14
2.16511e-15
-3.68935e-10
3.97613e-16
-8.77563e-11
-2.76324e-13
6.21728e-14
-3.59558e-09
-1.16493e-13
4.32168e-14
-1.95787e-09
-4.64817e-14
2.51091e-14
-9.68072e-10
-1.25513e-14
1.15982e-14
-4.01514e-10
3.01063e-15
-9.54801e-11
-3.04934e-13
-1.58244e-13
-3.29288e-09
-1.34057e-13
-8.85217e-14
-1.79536e-09
-5.43742e-14
-4.69977e-14
-8.8849e-10
-1.45778e-14
-2.1258e-14
-3.68784e-10
-5.57361e-15
-8.77199e-11
-2.76429e-13
-3.59476e-09
-1.17415e-13
-1.95743e-09
-4.70638e-14
-9.67855e-10
-1.27774e-14
-4.01425e-10
-9.54589e-11
-3.25384e-11
-1.35971e-11
-3.09442e-12
-7.98937e-09
-5.80494e-12
-2.17944e-12
7.94648e-09
-1.63048e-12
-7.93686e-09
3.86598e-11
3.08297e-11
2.65993e-08
3.99012e-11
4.07078e-11
-2.67494e-08
-6.17351e-11
2.38047e-11
-1.27253e-10
2.48449e-08
-2.47123e-08
-1.14316e-11
4.59276e-12
-2.3297e-11
2.4406e-08
-2.43817e-08
-8.81716e-11
-2.44749e-12
-1.57435e-08
-9.63257e-10
3.2304e-11
9.62929e-11
-1.00372e-11
4.97871e-10
3.4558e-10
1.1022e-10
4.43106e-10
-1.09968e-07
-7.58384e-11
-2.07441e-10
2.31591e-08
-2.30258e-08
-5.18681e-11
8.07051e-14
4.62534e-12
1.69746e-11
2.19208e-08
-2.18906e-08
-1.31844e-11
-3.37933e-12
1.56541e-08
-1.42739e-12
-1.56383e-08
1.74553e-13
1.13539e-11
-9.35534e-11
2.49355e-08
-2.49054e-08
-1.72529e-10
9.50671e-11
3.63797e-11
2.74465e-11
-2.72937e-11
-5.68494e-11
5.42554e-11
-5.56687e-11
5.54659e-11
-1.08017e-07
-1.82444e-11
-2.29302e-11
2.29033e-08
-2.28868e-08
-3.21295e-11
8.58086e-11
-9.64016e-11
1.31244e-10
9.59869e-11
-1.29794e-10
-1.09943e-07
-5.18549e-11
1.69645e-11
4.74734e-12
2.19173e-08
-2.18871e-08
-1.32456e-11
2.3425e-12
-3.68608e-12
1.56498e-08
-1.4507e-12
-1.56337e-08
-9.35057e-11
1.12681e-11
2.49328e-08
-2.49023e-08
5.91039e-13
-7.91544e-11
-3.5816e-11
5.42287e-11
3.51452e-11
-5.62139e-11
8.10274e-11
4.87723e-13
-1.62946e-12
-1.09152e-07
-1.37452e-11
1.90342e-12
-7.7776e-11
1.30285e-10
7.88687e-11
-1.29695e-10
-1.10903e-07
1.17706e-11
-1.81651e-11
-2.28122e-11
2.28884e-08
-2.28725e-08
-5.88651e-12
7.94559e-09
-1.62936e-12
-7.93573e-09
2.6791e-08
9.42257e-11
-2.68437e-08
-1.34527e-10
1.38957e-11
-2.35849e-11
2.44597e-08
-2.44344e-08
4.17783e-12
4.74643e-12
2.34704e-12
2.19964e-12
-1.76666e-08
-3.4618e-12
-3.40662e-12
1.33866e-11
1.43345e-11
-3.10224e-12
6.64654e-09
-2.31989e-12
-2.23221e-12
-6.63888e-09
-3.64906e-12
6.61305e-09
-2.93894e-12
-1.52193e-12
-6.60494e-09
-1.29518e-11
-1.42936e-11
-1.76461e-08
2.60193e-12
1.40853e-12
2.92539e-12
1.92797e-12
-2.17627e-08
-9.45752e-12
1.762e-11
2.17113e-11
-4.60824e-11
1.52552e-08
-1.44319e-12
-1.51862e-08
4.85725e-11
2.50595e-08
-1.51063e-10
-1.46078e-10
-2.49381e-08
-3.11562e-12
-3.97536e-11
-4.66571e-11
-2.1551e-11
-2.17517e-08
7.94629e-13
3.27781e-11
-1.38988e-11
-2.06738e-08
-1.16807e-11
2.16013e-11
2.05834e-11
-1.15907e-11
1.48705e-08
-8.58167e-13
-1.48564e-08
2.14766e-11
2.40056e-08
-4.04237e-11
-3.226e-11
-2.39777e-08
-4.49087e-12
2.31068e-11
1.12409e-11
-2.01007e-11
-2.06581e-08
1.23081e-12
4.06628e-11
3.1721e-11
-1.16952e-08
1.33838e-11
1.24338e-12
-2.164e-12
8.72725e-13
1.38789e-11
2.09926e-08
6.83366e-12
-4.25809e-11
-2.09661e-08
1.12702e-12
1.41816e-08
9.94536e-14
-7.75489e-13
-1.41651e-08
-4.63253e-12
-1.64699e-11
9.65652e-14
5.14057e-11
1.90135e-12
-7.95813e-13
-1.16813e-08
-7.06071e-12
4.22844e-11
1.1782e-13
8.62246e-13
-6.52449e-09
3.63942e-12
2.33448e-12
4.52267e-12
2.34507e-08
-2.7223e-11
-2.34245e-08
3.48749e-12
1.28691e-11
1.6724e-12
-1.67106e-12
-6.51639e-09
2.65032e-11
-1.1689e-08
1.01057e-12
1.33523e-11
-1.93962e-12
8.90014e-13
1.31713e-12
1.41782e-08
-7.74791e-13
-1.41617e-08
1.38605e-11
2.09841e-08
7.16853e-12
-4.29292e-11
-2.09574e-08
-1.64739e-11
-4.45999e-12
5.14493e-11
2.1168e-12
-7.76177e-13
-1.16751e-08
8.59352e-13
-6.8061e-12
4.24388e-11
-6.52072e-09
3.9026e-12
2.31053e-12
4.27893e-12
2.34396e-08
-2.72219e-11
-2.34132e-08
3.08828e-12
-2.13872e-12
1.33063e-11
1.64028e-12
-1.69014e-12
-6.51264e-09
2.69194e-11
5.22984e-12
2.17207e-12
-3.49874e-12
-2.81749e-12
1.3229e-11
1.40708e-11
-1.7671e-08
2.49087e-12
2.09987e-12
-6.61254e-09
1.98199e-12
2.23306e-12
-6.64704e-09
1.43983e-11
-1.17345e-11
2.74926e-11
-2.06719e-08
2.43931e-08
-3.02194e-11
-4.79183e-11
-2.43533e-08
1.46822e-11
2.39347e-11
-3.6938e-12
1.12797e-11
2.95797e-11
4.86946e-11
1.25236e-12
-1.48546e-08
-8.1987e-12
3.10853e-11
1.12286e-11
-2.17775e-08
-4.51414e-12
1.13632e-11
-2.62495e-12
-2.48611e-08
1.36384e-11
1.3234e-12
-1.52731e-08
-1.61405e-12
-2.46606e-08
6.79973e-11
2.16207e-12
-8.10407e-09
1.31167e-12
2.30783e-10
-4.44849e-10
-1.11387e-07
-3.08554e-10
4.03235e-10
-1.17886e-07
3.68979e-10
-3.45309e-11
-1.1335e-07
3.48775e-10
-3.17788e-12
-1.21605e-07
-3.56056e-10
9.43776e-12
-1.11239e-07
2.48591e-12
-1.17959e-07
-1.17478e-11
-5.5932e-12
-1.12534e-07
1.1274e-12
-1.20942e-07
4.59396e-12
-1.16054e-07
-1.23631e-11
3.48589e-10
-1.21834e-07
1.26466e-11
-5.36125e-12
-1.16019e-07
-1.36127e-11
-1.21043e-07
-2.17969e-11
-2.38912e-08
1.52884e-11
2.20745e-11
-4.07846e-11
-4.06707e-11
1.48365e-11
2.6114e-08
-2.61437e-08
2.22621e-11
2.48708e-08
-2.48653e-08
-2.38958e-08
1.10191e-10
-2.62777e-08
4.15633e-10
-3.11426e-10
2.46464e-08
-2.44937e-08
2.56205e-08
-1.66866e-10
-2.54616e-08
-2.15688e-10
-8.80935e-11
-2.61751e-08
-2.57054e-08
-7.17553e-11
1.74298e-11
2.61056e-11
-7.16727e-11
2.43602e-08
1.59304e-11
-2.43357e-08
1.86771e-11
2.64416e-08
7.00958e-12
-2.64296e-08
-1.0667e-11
9.31967e-11
2.61916e-14
-2.0801e-11
-2.56416e-08
-1.51121e-11
-6.81251e-12
-3.6822e-11
-2.59893e-08
-4.4929e-11
-4.52639e-11
2.43514e-08
-2.43356e-08
2.52752e-08
-3.81353e-11
-2.5238e-08
2.38127e-11
1.71222e-11
-2.6038e-08
-2.57062e-08
2.07139e-11
-7.05774e-11
-2.84346e-11
2.15619e-11
2.644e-08
-2.64177e-08
-7.13181e-11
2.43526e-08
1.90456e-11
-2.4332e-08
9.30608e-11
-1.06514e-11
2.96054e-11
-2.57067e-08
-1.7777e-11
-2.59641e-08
-4.46972e-11
-3.97469e-11
-4.42907e-11
2.43412e-08
-2.43233e-08
-4.06852e-11
2.52849e-08
-2.5243e-08
1.68011e-11
2.45859e-11
-2.59844e-08
-1.76583e-11
6.104e-11
-2.38939e-08
-9.1887e-11
-1.27087e-11
1.25869e-10
2.60391e-08
-2.59741e-08
-1.82679e-11
1.94743e-10
-2.51585e-08
-1.17185e-12
-9.86985e-14
6.2928e-14
-5.30817e-09
-4.32791e-13
-3.92259e-14
7.67645e-14
-2.88347e-09
-1.45855e-13
-1.59924e-14
5.84834e-14
-1.42317e-09
-3.29125e-14
-5.46206e-15
3.09639e-14
-5.89572e-10
-1.08667e-15
8.58906e-15
-1.40056e-10
-9.03614e-13
9.52599e-15
5.30441e-09
-9.01463e-14
-5.30506e-09
-4.52837e-13
4.06982e-14
2.88135e-09
-8.77856e-14
-2.88175e-09
-1.88317e-13
3.41046e-14
1.4222e-09
-6.38547e-14
-1.42244e-09
-4.76844e-14
1.9796e-14
5.8913e-10
-3.43316e-14
-5.89257e-10
6.43107e-15
1.39947e-10
-9.89421e-15
-1.39991e-10
-9.41894e-13
-2.84013e-09
-3.70284e-13
-1.55178e-09
-1.2778e-13
-7.69159e-10
-2.75681e-14
-3.19618e-10
-7.60708e-11
-7.55738e-13
2.83725e-09
-1.50194e-13
-2.83776e-09
-3.82002e-13
1.55023e-09
-6.86999e-14
-1.5505e-09
-1.59888e-13
7.68438e-10
-3.07443e-14
-7.68595e-10
-4.08817e-14
3.19311e-10
-1.2629e-14
-3.19398e-10
7.60005e-11
-3.59261e-15
-7.60313e-11
-7.63825e-13
7.32837e-14
2.83659e-09
-2.54836e-13
-2.8371e-09
-3.84778e-13
3.15718e-14
1.54998e-09
-1.44764e-13
-1.55025e-09
-1.60491e-13
1.28657e-14
7.6828e-10
-7.70869e-14
-7.6844e-10
-4.08578e-14
3.7067e-15
3.19278e-10
-3.48617e-14
-3.19366e-10
6.25088e-17
7.59792e-11
-9.448e-15
-7.60106e-11
-9.08966e-13
5.3038e-09
-5.30444e-09
-1.22114e-14
-4.57544e-13
2.88109e-09
-2.88149e-09
-1.39664e-14
-1.91221e-13
1.4221e-09
-1.42234e-09
-1.20666e-14
-4.85921e-14
5.8915e-10
-5.89282e-10
-7.62203e-15
1.39961e-10
-1.40007e-10
-2.46654e-15
1.03373e-12
1.32261e-13
-8.73745e-14
4.56947e-13
6.66e-14
-7.41291e-14
1.79586e-13
3.51678e-14
-4.89159e-14
4.52348e-14
1.54987e-14
-2.3875e-14
3.80039e-15
-6.28591e-15
3.85903e-13
-3.29369e-09
1.89271e-13
-3.25441e-13
1.66377e-13
-1.79585e-09
1.25796e-13
-1.95719e-13
6.60712e-14
-8.88783e-10
7.31203e-14
-1.10079e-13
1.73577e-14
-3.68869e-10
3.41853e-14
-5.15624e-14
-8.77339e-11
8.96771e-15
-1.39537e-14
-4.66305e-13
6.10264e-14
3.59494e-09
4.25388e-14
-3.59535e-09
-2.54817e-13
1.64824e-14
1.95757e-09
3.07561e-14
-1.95783e-09
-1.11204e-13
1.28539e-15
9.6793e-10
1.87725e-14
-9.68094e-10
-2.89708e-14
-1.06249e-15
4.01446e-10
9.0326e-15
-4.01536e-10
-4.38256e-16
9.54571e-11
2.42679e-15
-9.5488e-11
-4.59844e-13
1.35395e-13
-3.2941e-09
-2.4147e-13
6.00242e-14
-1.79612e-09
-1.04223e-13
2.50269e-14
-8.88944e-10
-2.73431e-14
9.0791e-15
-3.68956e-10
1.86638e-15
-8.77636e-11
3.59855e-13
5.16345e-14
1.52809e-13
3.71288e-14
6.18182e-14
2.22888e-14
1.68652e-14
1.05411e-14
2.77624e-15
7.82258e-13
1.99659e-13
3.51877e-13
1.09464e-13
1.37056e-13
5.74831e-14
3.36662e-14
2.54893e-14
6.47329e-15
3.91794e-13
-3.29226e-09
8.54958e-14
-2.02517e-13
1.68071e-13
-1.79508e-09
5.08169e-14
-1.10118e-13
6.64134e-14
-8.88357e-10
2.81335e-14
-5.95342e-14
1.73604e-14
-3.6872e-10
1.29681e-14
-2.78914e-14
-8.76982e-11
3.40243e-15
-7.78992e-15
-4.65588e-13
1.46814e-13
3.59412e-09
-3.59453e-09
-2.54785e-13
7.94842e-14
1.95713e-09
-1.95739e-09
-1.11598e-13
4.00036e-14
9.67715e-10
-9.67879e-10
-2.91688e-14
1.72445e-14
4.01357e-10
-4.01448e-10
4.34998e-15
9.5436e-11
-9.54672e-11
-4.5255e-13
2.35713e-13
-3.29267e-09
-2.38963e-13
1.30277e-13
-1.79534e-09
-1.03295e-13
6.73444e-14
-8.8852e-10
-2.71139e-14
2.92772e-14
-3.68808e-10
7.25374e-15
-8.77282e-11
3.57363e-13
1.5115e-13
6.10761e-14
1.67218e-14
7.6112e-13
8.78067e-16
7.35873e-14
3.41884e-13
2.75805e-14
1.82596e-14
1.33098e-13
2.28097e-14
2.89083e-15
3.26405e-14
1.22585e-14
-4.14467e-16
3.50634e-15
-4.82231e-16
1.02278e-12
4.92064e-14
4.50531e-13
3.82198e-14
1.76752e-13
2.33813e-14
4.46113e-14
1.15187e-14
3.22485e-15
6.34731e-13
-4.20998e-14
2.98074e-15
-2.82059e-09
2.89995e-13
-2.76436e-14
6.31812e-15
-1.54071e-09
1.13531e-13
-1.46102e-14
3.93322e-15
-7.63604e-10
2.81866e-14
-6.18383e-15
1.61697e-15
-3.17251e-10
-1.38018e-15
3.37797e-16
-7.55243e-11
1.02575e-12
-5.30328e-09
-9.70236e-17
4.50759e-13
-2.88061e-09
-3.26999e-14
1.74378e-13
-1.42187e-09
-2.59018e-14
4.35071e-14
-5.8902e-10
-1.3843e-14
-1.39949e-10
-4.10773e-15
-9.83912e-13
-1.25755e-13
1.05512e-13
5.09267e-09
-5.0939e-09
-4.09351e-13
-1.19854e-13
1.23896e-13
2.76953e-09
-2.77011e-09
-1.48445e-13
-8.45305e-14
9.18865e-14
1.36788e-09
-1.36814e-09
-3.44087e-14
-4.38466e-14
4.89399e-14
5.66967e-10
-5.67086e-10
-1.22128e-14
1.39581e-14
1.34738e-10
-1.34774e-10
-5.67205e-13
2.82192e-09
-2.82286e-09
-2.25848e-13
1.54165e-09
-1.54204e-09
-8.05338e-14
7.63962e-10
-7.64133e-10
-1.89265e-14
3.17461e-10
-3.17536e-10
7.55532e-11
-7.55758e-11
4.74294e-13
2.14942e-13
2.57106e-13
1.98831e-13
1.13094e-13
1.30701e-13
3.05061e-14
6.46679e-14
1.77071e-14
-7.72704e-13
7.50141e-14
5.09236e-09
-5.09307e-09
-3.58692e-13
9.81082e-14
2.76898e-09
-2.76937e-09
-1.41922e-13
7.4496e-14
1.36774e-09
-1.36794e-09
-3.517e-14
4.03907e-14
5.66891e-10
-5.66989e-10
1.17993e-14
1.34693e-10
-1.34726e-10
-4.45843e-13
2.82083e-09
-2.82126e-09
-2.22029e-13
1.54082e-09
-1.54104e-09
-9.18987e-14
7.63671e-10
-7.63791e-10
-2.35346e-14
3.17297e-10
-3.17359e-10
7.55077e-11
-7.55293e-11
5.9211e-13
-1.58283e-13
2.71563e-13
-1.26813e-13
1.06743e-13
-8.09687e-14
2.64825e-14
-3.93695e-14
-1.04837e-14
7.4122e-13
2.02457e-13
3.63309e-13
1.85524e-13
1.51684e-13
1.23226e-13
3.93337e-14
6.07512e-14
1.61914e-14
9.64598e-13
4.40294e-13
1.73865e-13
4.34732e-14
1.16195e-12
-5.27681e-09
5.27787e-13
-2.86643e-09
2.07862e-13
-1.41476e-09
5.1461e-14
-5.86025e-10
-1.39228e-10
-8.7512e-13
-5.27762e-09
-4.27737e-13
-2.86689e-09
-1.78865e-13
-1.41501e-09
-4.61933e-14
-5.86162e-10
-1.39276e-10
1.14671e-12
-5.2741e-09
5.19007e-13
-2.86509e-09
2.04363e-13
-1.41401e-09
5.08156e-14
-5.85782e-10
-1.39142e-10
-8.85763e-13
-5.27492e-09
-4.34084e-13
-2.86556e-09
-1.81891e-13
-1.41427e-09
-4.70545e-14
-5.85922e-10
-1.39191e-10
5.94588e-13
-7.87623e-16
-2.82065e-09
2.68233e-13
4.00056e-15
-1.54083e-09
1.04079e-13
3.14877e-15
-7.63683e-10
2.56043e-14
1.55458e-15
-3.17298e-10
3.19409e-16
-7.55198e-11
1.0513e-12
-8.30077e-15
-5.09196e-09
4.70844e-13
-7.33224e-15
-2.76892e-09
1.8155e-13
-5.14054e-15
-1.36765e-09
4.44512e-14
-2.62938e-15
-5.66804e-10
-7.26605e-16
-1.34697e-10
1.12771e-12
-5.09231e-09
5.12099e-13
-2.7691e-09
1.98542e-13
-1.36774e-09
4.83909e-14
-5.66819e-10
-1.34718e-10
3.11252e-10
2.34513e-10
1.08262e-07
2.00192e-10
2.49638e-10
1.32397e-10
3.11399e-11
2.39116e-10
6.86999e-11
9.42086e-11
-1.09074e-07
-7.4898e-10
-2.06032e-11
6.56447e-11
1.46122e-11
2.66152e-08
-2.67701e-08
9.5246e-11
-3.95596e-12
-7.78051e-12
4.13639e-11
-3.0728e-11
1.10712e-07
-1.10711e-07
-3.58248e-11
4.55076e-12
-1.04903e-11
1.08088e-07
2.67563e-11
3.66061e-11
-2.72355e-11
-5.6504e-11
5.50558e-11
-5.58604e-11
5.72411e-11
-1.08083e-07
-1.08644e-07
8.73809e-12
4.67568e-10
-7.81771e-10
1.08927e-07
1.72962e-11
3.94735e-11
-1.39073e-11
4.21587e-12
1.96824e-11
-1.96969e-11
-2.45993e-11
-2.6771e-08
7.71461e-11
5.35448e-14
5.03757e-11
3.05301e-11
2.66129e-08
2.35796e-13
2.58366e-12
-1.10713e-07
-1.52461e-12
-3.10806e-13
1.10712e-07
-1.08088e-07
-3.5665e-11
-1.17666e-12
-1.04659e-12
1.08086e-07
2.71517e-11
3.67924e-11
-2.23586e-11
-5.62972e-11
5.49786e-11
5.7432e-11
-5.81592e-11
-1.09013e-07
-4.01692e-11
-1.03354e-12
-6.43608e-13
1.09012e-07
1.38135e-11
4.14695e-11
-1.34406e-11
4.81298e-12
2.25053e-11
-3.88516e-12
-2.31144e-11
-2.6761e-08
2.62178e-11
4.09318e-11
4.97214e-11
3.3314e-11
2.66109e-08
1.30954e-13
1.01127e-12
-1.10711e-07
-7.77777e-13
-6.08601e-14
1.10711e-07
-1.08086e-07
-3.55502e-11
-7.62369e-13
-1.21785e-12
1.08085e-07
2.77418e-11
3.71535e-11
-2.68597e-11
-5.63951e-11
5.48885e-11
5.73235e-11
-5.57487e-11
-1.09012e-07
-4.01294e-11
-9.53798e-13
-5.05011e-13
1.09012e-07
1.38852e-11
4.09596e-11
-1.40654e-11
4.92983e-12
2.27651e-11
-3.74211e-12
-2.28725e-11
-2.67606e-08
2.61276e-11
4.0867e-11
4.97329e-11
3.34991e-11
2.66104e-08
3.25442e-13
-2.28657e-13
-1.1071e-07
1.36912e-13
-3.94513e-15
1.1071e-07
-1.08084e-07
-3.5553e-11
-6.66692e-13
-1.05761e-12
1.08082e-07
2.7302e-11
3.68817e-11
-2.22267e-11
-5.64298e-11
5.47489e-11
5.72442e-11
-5.83695e-11
-1.09011e-07
-4.04287e-11
-1.22953e-12
5.1043e-13
1.09011e-07
1.3461e-11
4.06907e-11
-1.44435e-11
4.9889e-12
2.29234e-11
-3.67457e-12
-2.27157e-11
-2.676e-08
2.61215e-11
4.08693e-11
4.96835e-11
3.3507e-11
2.66098e-08
-7.9969e-13
-8.03685e-13
-1.1071e-07
6.36329e-13
5.67842e-13
1.10711e-07
-1.08083e-07
-3.58393e-11
-9.2844e-13
-5.36075e-13
1.08084e-07
2.7364e-11
3.68894e-11
-2.71962e-11
-5.64176e-11
5.47484e-11
5.72006e-11
-5.57774e-11
-1.09012e-07
-4.06476e-11
-2.75374e-14
1.12859e-12
1.09012e-07
1.3217e-11
4.05207e-11
-1.46234e-11
4.70724e-12
2.24661e-11
-3.96493e-12
-2.31939e-11
-2.676e-08
2.63468e-11
4.0866e-11
4.97487e-11
3.31615e-11
2.66099e-08
-1.2341e-12
1.14065e-13
-1.10712e-07
-2.73638e-14
8.51774e-13
1.10712e-07
-1.08085e-07
-3.58806e-11
-1.46118e-12
-4.02222e-13
1.08084e-07
2.69418e-11
3.65842e-11
-2.25438e-11
-5.62198e-11
5.49599e-11
5.7418e-11
-5.81272e-11
-1.09013e-07
-4.04246e-11
3.0747e-13
5.24545e-13
1.09013e-07
1.35326e-11
4.07557e-11
-1.43067e-11
4.61867e-12
2.22971e-11
-4.05925e-12
-2.3335e-11
-2.67603e-08
2.64358e-11
4.07524e-11
4.99403e-11
3.29994e-11
2.66102e-08
-7.91919e-13
1.2725e-12
-1.10712e-07
-7.22989e-13
4.87965e-13
1.10712e-07
-1.08086e-07
-3.57767e-11
-1.53591e-12
-8.91572e-13
1.08087e-07
2.71626e-11
3.69801e-11
-2.67298e-11
-5.62253e-11
5.49381e-11
5.73987e-11
-5.5582e-11
-1.09013e-07
-4.02304e-11
1.7394e-14
-2.14907e-13
1.09013e-07
1.37452e-11
4.09363e-11
-1.41153e-11
4.67359e-12
2.23661e-11
-4.0071e-12
-2.32589e-11
-2.67605e-08
2.63545e-11
4.08093e-11
4.9876e-11
3.30983e-11
2.66103e-08
-9.39844e-13
8.50475e-13
-1.10712e-07
-5.27814e-13
6.17272e-13
1.10712e-07
-1.08087e-07
-3.57679e-11
-1.08284e-12
-7.35129e-13
1.08086e-07
2.67669e-11
3.67041e-11
-2.20755e-11
-5.62903e-11
5.48666e-11
5.7345e-11
-5.81956e-11
-1.09013e-07
-4.03096e-11
2.98144e-13
1.07747e-13
1.09013e-07
1.36321e-11
4.08466e-11
-1.42372e-11
4.65167e-12
2.23311e-11
-4.02903e-12
-2.32936e-11
-2.67606e-08
2.63762e-11
4.088e-11
4.97951e-11
3.31081e-11
2.66104e-08
-9.76508e-13
7.8014e-13
-1.10713e-07
-4.95828e-13
6.61823e-13
1.10713e-07
-1.08087e-07
-3.58099e-11
-1.14412e-12
-7.50808e-13
1.08087e-07
2.71354e-11
3.69483e-11
-2.67586e-11
-5.62813e-11
5.48834e-11
5.73371e-11
-5.56313e-11
-1.09013e-07
-4.03601e-11
3.67963e-13
2.98342e-13
1.09013e-07
1.35637e-11
4.08039e-11
-1.42972e-11
4.65287e-12
2.23417e-11
-4.02747e-12
-2.32833e-11
-2.67605e-08
2.63751e-11
4.08745e-11
4.98033e-11
3.3109e-11
2.66103e-08
-9.48328e-13
8.96739e-13
-1.10713e-07
-5.67529e-13
6.63157e-13
1.10713e-07
-1.08087e-07
-3.57947e-11
-1.02716e-12
-5.87883e-13
1.08086e-07
2.6744e-11
3.66789e-11
-2.21001e-11
-5.62908e-11
5.48617e-11
5.73429e-11
-5.81996e-11
-1.09013e-07
-4.03629e-11
2.45796e-13
3.11519e-13
1.09013e-07
1.35486e-11
4.07972e-11
-1.43154e-11
4.66885e-12
2.23712e-11
-4.01214e-12
-2.32549e-11
-2.67605e-08
2.63461e-11
4.08921e-11
4.97793e-11
3.31354e-11
2.66103e-08
-8.90783e-13
9.34156e-13
-1.10713e-07
-5.7988e-13
6.46162e-13
1.10713e-07
-1.08087e-07
-3.58139e-11
-1.1986e-12
-6.9807e-13
1.08087e-07
2.71343e-11
3.69402e-11
-2.67683e-11
-5.62832e-11
5.48837e-11
5.73381e-11
-5.5633e-11
-1.09013e-07
-4.03735e-11
1.82336e-13
3.22237e-13
1.09013e-07
1.35373e-11
4.07896e-11
-1.43239e-11
4.67728e-12
2.23881e-11
-4.00166e-12
-2.32422e-11
-2.67605e-08
2.63458e-11
4.08951e-11
4.9777e-11
3.31362e-11
2.66103e-08
-8.65854e-13
9.4576e-13
-1.10713e-07
-5.55014e-13
6.55636e-13
1.10713e-07
-1.08087e-07
-3.57915e-11
-1.12607e-12
-5.67579e-13
1.08086e-07
2.67523e-11
3.66641e-11
-2.21221e-11
-5.62783e-11
5.48796e-11
5.73622e-11
-5.81891e-11
-1.09013e-07
-4.03751e-11
1.61528e-13
3.43668e-13
1.09013e-07
1.35365e-11
4.07831e-11
-1.43318e-11
4.67799e-12
2.23986e-11
-3.99485e-12
-2.32424e-11
-2.67605e-08
2.63386e-11
4.08906e-11
4.97849e-11
3.3143e-11
2.66103e-08
-7.86662e-13
1.01819e-12
-1.10713e-07
-5.09019e-13
6.94017e-13
1.10713e-07
-1.08087e-07
-3.58027e-11
-1.2891e-12
-6.62084e-13
1.08087e-07
2.71578e-11
3.69104e-11
-2.68095e-11
-5.62673e-11
5.49115e-11
5.73675e-11
-5.56137e-11
-1.09013e-07
-4.03687e-11
8.67982e-14
3.26455e-13
1.09013e-07
1.35486e-11
4.07802e-11
-1.43361e-11
4.67924e-12
2.24243e-11
-3.977e-12
-2.32386e-11
-2.67605e-08
2.63266e-11
4.08872e-11
4.97907e-11
3.31527e-11
2.66103e-08
-5.489e-13
1.31969e-12
-1.10713e-07
-5.2997e-13
7.21777e-13
1.10712e-07
-1.08087e-07
-3.57504e-11
-1.47212e-12
-5.9257e-13
1.08086e-07
2.68181e-11
3.66204e-11
-2.21898e-11
-5.62173e-11
5.4952e-11
5.74442e-11
-5.81272e-11
-1.09013e-07
-4.03384e-11
-2.23592e-13
2.27044e-13
1.09013e-07
1.35915e-11
4.07917e-11
-1.43205e-11
4.68867e-12
2.2489e-11
-3.92636e-12
-2.32106e-11
-2.67605e-08
2.62862e-11
4.08623e-11
4.98164e-11
3.31873e-11
2.66103e-08
-8.38973e-13
2.05514e-12
-1.10714e-07
-3.21773e-12
3.15003e-12
1.10713e-07
-1.08088e-07
-3.58421e-11
-2.39884e-12
-6.9986e-13
1.08088e-07
2.72233e-11
3.67353e-11
-2.69909e-11
-5.60844e-11
5.50665e-11
5.75498e-11
-5.54036e-11
-1.09013e-07
-4.02017e-11
-1.70291e-12
-5.96122e-13
1.09013e-07
1.37017e-11
4.09895e-11
-1.40289e-11
5.033e-12
2.26701e-11
-3.78053e-12
-2.29346e-11
-2.67604e-08
2.62322e-11
4.07335e-11
4.98952e-11
3.32629e-11
2.66103e-08
4.03185e-12
-1.11437e-07
-2.47751e-12
1.46867e-12
-3.00974e-12
1.11437e-07
-1.08862e-07
-4.18393e-11
-3.74253e-12
8.80924e-13
9.7004e-11
4.15961e-11
-9.74707e-11
-4.62896e-10
3.47358e-10
4.65306e-10
-3.47421e-10
-1.09504e-07
2.56875e-10
4.08535e-13
-2.81839e-12
1.96515e-10
-2.54511e-10
-1.94012e-10
-1.12352e-10
2.49536e-10
1.14896e-10
-2.48528e-10
1.09498e-07
-2.69099e-08
-2.7782e-10
-2.57021e-10
3.24556e-10
2.65717e-10
2.68545e-08
3.25896e-10
2.65404e-10
2.68503e-08
-2.69121e-08
-2.18253e-10
5.5815e-12
2.67648e-08
-2.66101e-08
-5.22073e-11
-2.97226e-11
-7.83579e-11
1.76642e-10
1.08548e-07
1.75187e-11
-1.27873e-11
-2.15271e-11
2.05732e-11
2.26847e-11
-1.68248e-11
-1.84823e-11
-1.08681e-07
-5.63675e-11
-1.08987e-07
1.91015e-10
-3.57468e-10
-1.93216e-11
-1.84211e-10
-3.14005e-10
-2.34446e-11
1.70648e-11
-2.28203e-10
1.26796e-09
-4.65056e-13
1.08626e-07
-1.08499e-07
-2.35289e-10
4.8621e-12
-1.91766e-11
2.06265e-11
-2.09678e-11
-2.24965e-11
1.51711e-11
1.82705e-11
1.1185e-10
-2.66139e-08
-5.21643e-11
-2.80223e-11
-7.73632e-11
3.33229e-11
3.64142e-11
4.0306e-11
4.06426e-11
2.66005e-08
-2.67512e-08
-3.36166e-11
-3.64981e-11
2.67495e-08
-2.6599e-08
-4.03714e-11
-4.00297e-11
4.52708e-12
1.10015e-07
7.33105e-12
3.24221e-11
-9.39879e-12
2.33771e-11
1.91972e-11
-2.35898e-11
-2.54848e-11
-1.10014e-07
-3.31617e-11
-6.21648e-13
5.78109e-12
1.10049e-07
7.74117e-12
3.31921e-11
-9.35335e-12
2.48453e-11
2.00796e-11
-2.1932e-11
-2.50247e-11
-1.10051e-07
1.10018e-07
1.26723e-13
-1.10018e-07
1.69409e-13
-3.23704e-11
-8.35525e-12
8.27801e-12
-2.43796e-11
-2.20097e-11
2.06464e-11
2.45992e-11
3.32683e-11
1.1005e-07
6.16995e-13
-1.1005e-07
1.52555e-12
-3.3025e-11
-9.21618e-12
8.02093e-12
-2.45158e-11
-2.17992e-11
2.01004e-11
2.44266e-11
4.04276e-11
4.13451e-11
2.65998e-08
-2.67505e-08
-3.68283e-11
2.67502e-08
-2.65991e-08
-3.98275e-11
-4.12152e-11
-6.67964e-12
1.08098e-07
2.63937e-11
3.53368e-11
-2.81122e-11
-5.68539e-11
5.40817e-11
-5.60366e-11
5.67694e-11
-1.08094e-07
-8.39642e-11
-3.24661e-10
6.42537e-10
1.09213e-07
1.7723e-11
2.80166e-11
-2.42869e-11
-3.65966e-11
5.41266e-11
-5.50608e-11
5.09682e-11
-1.09482e-07
1.08098e-07
-1.89992e-12
-1.08099e-07
1.29007e-13
-3.57166e-11
-2.73028e-11
2.71564e-11
5.77556e-11
-5.50844e-11
5.50091e-11
-5.59223e-11
2.74754e-11
1.09098e-07
-1.78179e-12
-1.09098e-07
5.32036e-13
-2.64855e-11
-2.3647e-11
2.33632e-11
3.62148e-11
-5.42894e-11
5.38753e-11
-3.49278e-11
-3.07859e-10
6.5265e-10
1.09214e-07
1.93691e-11
3.08078e-11
-2.30327e-11
-3.69489e-11
5.42225e-11
-5.59196e-11
5.14726e-11
-1.09521e-07
-7.42053e-13
-1.08088e-07
-3.92453e-13
-3.58364e-11
-2.69777e-11
2.71134e-11
5.72778e-11
-5.5716e-11
-5.64269e-11
5.48201e-11
2.76635e-11
1.09096e-07
8.62686e-13
-1.09097e-07
4.00067e-13
-2.63409e-11
-2.35194e-11
2.30134e-11
3.59545e-11
-5.52587e-11
5.38864e-11
-3.5831e-11
5.21283e-11
2.93072e-11
2.66081e-08
-4.14687e-11
2.6755e-08
-2.66056e-08
-4.79324e-11
-3.2516e-11
4.53086e-10
-8.03001e-10
1.08958e-07
1.60185e-11
3.60274e-11
-1.5638e-11
4.41319e-12
2.00352e-11
-2.3448e-11
-1.97191e-11
-3.55221e-13
-1.09013e-07
-2.04058e-13
-4.01978e-11
-1.34643e-11
1.37317e-11
-4.28883e-12
-2.33092e-11
4.68266e-12
2.22473e-11
4.12031e-11
1.09052e-07
1.87144e-13
-1.09052e-07
6.11503e-13
-4.08945e-11
-1.41001e-11
1.35872e-11
-4.2246e-12
-2.29129e-11
2.19084e-11
4.8549e-12
-2.66109e-08
-4.94505e-11
-3.17973e-11
3.22609e-11
3.55736e-11
4.13151e-11
4.16094e-11
2.65987e-08
-3.34249e-11
-3.66564e-11
2.6749e-08
-2.65984e-08
-4.0144e-11
-4.03352e-11
-3.51052e-13
1.10017e-07
8.47485e-12
3.3662e-11
-8.26429e-12
2.4705e-11
2.09441e-11
-2.4161e-11
-2.1831e-11
-3.29789e-11
6.8388e-13
1.37373e-12
1.10051e-07
7.94764e-12
3.3162e-11
-1.32299e-11
2.45375e-11
2.06423e-11
-2.43614e-11
-1.9075e-11
1.10016e-07
5.88687e-14
-1.10016e-07
9.07868e-14
-3.24303e-11
-8.57012e-12
8.22885e-12
-2.41727e-11
-2.18369e-11
2.09769e-11
2.46656e-11
3.34131e-11
1.10048e-07
2.77474e-13
-1.10048e-07
1.09323e-12
-3.30731e-11
-9.57667e-12
8.14886e-12
-2.41965e-11
-2.17389e-11
2.08574e-11
2.47008e-11
4.09335e-11
4.18972e-11
2.65988e-08
-3.71527e-11
2.67498e-08
-2.65987e-08
-3.94417e-11
-4.10958e-11
-5.32354e-13
1.08098e-07
2.73154e-11
3.66051e-11
-2.71995e-11
-5.58135e-11
5.51596e-11
5.79069e-11
-5.50268e-11
-2.63541e-11
-1.92448e-12
1.01619e-13
1.09097e-07
2.35031e-11
2.75766e-11
-2.35531e-11
-3.48635e-11
5.40019e-11
3.63153e-11
-5.42383e-11
1.08096e-07
-1.27983e-12
-1.08097e-07
-3.83523e-13
-3.54654e-11
-2.71521e-11
2.7381e-11
5.75619e-11
-5.53932e-11
5.48268e-11
-5.61608e-11
2.76148e-11
1.09096e-07
-5.98125e-13
-1.09096e-07
-9.21027e-14
-2.62771e-11
-2.35214e-11
2.35416e-11
3.59566e-11
-5.45595e-11
5.36992e-11
-3.52163e-11
-7.87284e-15
-1.26833e-13
1.09095e-07
2.32576e-11
2.77641e-11
-2.33067e-11
-3.57521e-11
5.40408e-11
-5.51554e-11
3.60985e-11
-7.2826e-13
-1.08087e-07
-9.52886e-13
-3.55069e-11
-2.69023e-11
2.77689e-11
5.73588e-11
-5.57103e-11
-5.63798e-11
5.49523e-11
2.78072e-11
1.09093e-07
2.08873e-13
-1.09094e-07
-3.87458e-13
-2.61206e-11
-2.31648e-11
2.34814e-11
3.60045e-11
-5.52731e-11
5.39796e-11
-3.58303e-11
4.94397e-11
3.36909e-11
2.66053e-08
-4.09947e-11
2.67541e-08
-2.6605e-08
-4.82206e-11
-3.23186e-11
-5.60642e-13
6.18327e-13
1.09052e-07
1.35113e-11
4.12031e-11
-1.41334e-11
4.94693e-12
2.20595e-11
-2.27486e-11
-4.12067e-12
-8.06333e-13
-1.09012e-07
-5.263e-13
-4.00666e-11
-1.39949e-11
1.39609e-11
-3.80547e-12
-2.29994e-11
4.86519e-12
2.26434e-11
4.12661e-11
1.09051e-07
-8.7843e-13
-1.09051e-07
5.75548e-13
-4.08596e-11
-1.41531e-11
1.34789e-11
-3.9748e-12
-2.24549e-11
2.23402e-11
5.10681e-12
-2.66105e-08
-4.94311e-11
-3.1575e-11
3.25046e-11
3.54486e-11
4.15329e-11
4.12681e-11
2.65982e-08
-3.32207e-11
-3.67717e-11
2.67481e-08
-2.65978e-08
-3.96543e-11
-4.06377e-11
1.52393e-13
1.10015e-07
8.132e-12
3.33956e-11
-8.64311e-12
2.47305e-11
2.10888e-11
-2.41038e-11
-2.17212e-11
-3.29783e-11
2.62075e-13
1.34584e-12
1.10047e-07
8.19642e-12
3.34725e-11
-9.52294e-12
2.47593e-11
2.10012e-11
-2.41126e-11
-2.16217e-11
1.10014e-07
-3.73237e-13
-1.10014e-07
9.34401e-13
-3.26913e-11
-8.8999e-12
7.81902e-12
-2.40444e-11
-2.159e-11
2.12043e-11
2.48098e-11
3.33684e-11
1.10046e-07
-8.12939e-14
-1.10046e-07
7.15547e-13
-3.28972e-11
-9.2006e-12
8.05716e-12
-2.41249e-11
-2.15464e-11
2.10619e-11
2.47584e-11
4.11426e-11
4.17098e-11
2.65984e-08
-3.70611e-11
2.67491e-08
-2.65979e-08
-3.94991e-11
-4.12095e-11
-7.21482e-13
1.08096e-07
2.74114e-11
3.67052e-11
-2.71165e-11
-5.62469e-11
5.47582e-11
5.74868e-11
-5.54661e-11
-2.62565e-11
-2.87918e-13
-1.65314e-13
1.09095e-07
2.3573e-11
2.76638e-11
-2.34829e-11
-3.53132e-11
5.36298e-11
3.5876e-11
-5.46351e-11
1.08094e-07
3.26333e-14
-1.08095e-07
-5.38202e-13
-3.53765e-11
-2.70598e-11
2.74435e-11
5.71377e-11
-5.57553e-11
5.44147e-11
-5.65345e-11
2.77339e-11
1.09094e-07
7.35247e-13
-1.09094e-07
-2.74146e-13
-2.61895e-11
-2.34189e-11
2.36102e-11
3.55002e-11
-5.49314e-11
5.32755e-11
-3.56181e-11
2.34832e-13
-4.07585e-13
1.09092e-07
2.35034e-11
2.78157e-11
-2.31284e-11
-3.58423e-11
5.39857e-11
-5.52768e-11
3.6006e-11
-4.83477e-13
-1.08084e-07
-9.02989e-13
-3.55567e-11
-2.66652e-11
2.74657e-11
5.71832e-11
-5.58478e-11
-5.64838e-11
5.47007e-11
2.78564e-11
1.09091e-07
3.84277e-13
-1.09091e-07
-5.38118e-13
-2.61001e-11
-2.30883e-11
2.35308e-11
3.58638e-11
-5.53735e-11
5.38328e-11
-3.59141e-11
4.91105e-11
3.38619e-11
2.66047e-08
-4.07411e-11
2.67536e-08
-2.66044e-08
-4.85688e-11
-3.213e-11
-9.46985e-13
4.4146e-13
1.0905e-07
1.34738e-11
4.12708e-11
-1.41478e-11
5.14571e-12
2.24529e-11
-2.23583e-11
-3.91785e-12
-1.28447e-12
-1.09011e-07
4.14043e-13
-4.03521e-11
-1.43559e-11
1.35558e-11
-3.68396e-12
-2.27209e-11
4.99024e-12
2.28988e-11
4.12924e-11
1.0905e-07
-1.28996e-12
-1.0905e-07
1.88082e-13
-4.08589e-11
-1.41791e-11
1.34072e-11
-3.91476e-12
-2.22615e-11
2.25296e-11
5.18265e-12
-2.66099e-08
-4.9451e-11
-3.15075e-11
3.27755e-11
3.54059e-11
4.13212e-11
4.0927e-11
2.65977e-08
-3.30011e-11
-3.6574e-11
2.67481e-08
-2.65977e-08
-3.99454e-11
-4.08428e-11
1.02806e-12
1.10014e-07
7.71872e-12
3.31634e-11
-8.99639e-12
2.47883e-11
2.12207e-11
-2.40399e-11
-2.16038e-11
-3.2955e-11
6.62102e-15
9.93784e-13
1.10047e-07
7.85634e-12
3.31891e-11
-1.32758e-11
2.4722e-11
2.10537e-11
-2.41379e-11
-1.86999e-11
1.10014e-07
5.72892e-13
-1.10014e-07
1.7756e-12