/*--------------------------------*- C++ -*----------------------------------*\
| =========                 |                                                 |
| \\      /  F ield         | OpenFOAM: The Open Source CFD Toolbox           |
|  \\    /   O peration     | Version:  2206                                  |
|   \\  /    A nd           | Website:  www.openfoam.com                      |
|    \\/     M anipulation  |                                                 |
\*---------------------------------------------------------------------------*/
FoamFile
{
    version     2.0;
    format      ascii;
    arch        "LSB;label=32;scalar=64";
    class       volVectorField;
    location    "0.3";
    object      U;
}
// * * * * * * * * * * * * * * * * * * * * * * * * * * * * * * * * * * * * * //

dimensions      [0 1 -1 0 0 0 0];

internalField   nonuniform List<vector> 
66701
(
(7.18799e-06 6.10759e-06 0.0730749)
(8.2047e-06 -9.70082e-07 0.0705669)
(2.10291e-05 3.16557e-06 0.0841808)
(2.50933e-05 1.93164e-06 0.0955708)
(8.65403e-06 -1.44203e-06 0.0787152)
(3.21388e-05 3.64399e-07 0.10783)
(3.22316e-05 5.8477e-07 0.104966)
(8.25989e-06 -9.90743e-08 0.0814248)
(8.70928e-06 2.77226e-06 0.0705682)
(2.19268e-05 -1.72288e-06 0.0841803)
(2.60566e-05 -2.54143e-07 0.0955703)
(8.72626e-06 3.04855e-06 0.0787154)
(3.22304e-05 8.56134e-07 0.107831)
(8.33442e-06 1.49051e-06 0.0814247)
(3.21585e-05 8.71144e-07 0.104968)
(8.34822e-06 -4.60718e-06 0.0730725)
(1.83634e-06 3.93531e-06 0.0527606)
(1.58214e-07 2.92604e-06 0.036315)
(-3.368e-07 2.03088e-06 0.022858)
(-3.58346e-07 1.13878e-06 0.0121327)
(-1.41294e-07 3.62926e-07 0.00370636)
(3.84998e-06 -1.25415e-06 0.0524396)
(1.82324e-06 -9.47574e-07 0.0361261)
(8.5306e-07 -6.78609e-07 0.0227526)
(3.37173e-07 -4.33153e-07 0.0120819)
(9.06355e-08 -1.60716e-07 0.00369226)
(4.75923e-06 9.48198e-07 0.0510442)
(1.93115e-06 7.23565e-07 0.035019)
(7.62719e-07 5.06725e-07 0.0219902)
(2.19062e-07 2.59212e-07 0.0116513)
(3.5252e-08 7.30554e-08 0.00355297)
(5.6096e-06 7.90982e-07 0.0510452)
(2.64504e-06 9.10287e-07 0.0350202)
(1.28636e-06 7.57115e-07 0.0219911)
(5.28247e-07 5.09001e-07 0.0116514)
(1.37898e-07 1.86435e-07 0.00355289)
(3.03352e-06 -2.04555e-06 0.0527597)
(1.27275e-06 -1.08093e-06 0.0363149)
(5.12304e-07 -5.59091e-07 0.0228584)
(1.51011e-07 -2.24383e-07 0.0121333)
(2.95323e-08 -4.90002e-08 0.00370663)
(4.382e-06 3.15106e-06 0.0524411)
(2.31005e-06 2.64045e-06 0.0361271)
(1.21416e-06 1.9549e-06 0.0227534)
(5.50031e-07 1.19788e-06 0.0120822)
(1.60846e-07 4.16887e-07 0.00369211)
(1.92326e-06 -5.72122e-07 0.051939)
(7.91937e-07 -1.15361e-07 0.0356874)
(3.52291e-07 1.76117e-08 0.0224333)
(1.23421e-07 1.50008e-08 0.0118948)
(3.31895e-08 -2.06808e-10 0.00362978)
(1.49296e-06 2.42346e-07 0.0522429)
(5.85249e-07 3.33798e-07 0.0359196)
(2.59551e-07 2.76828e-07 0.0225903)
(8.91857e-08 1.62835e-07 0.0119828)
(2.55039e-08 5.12296e-08 0.0036582)
(2.15123e-06 2.24731e-06 0.0519399)
(1.00736e-06 1.61201e-06 0.0356877)
(5.16042e-07 1.10649e-06 0.0224335)
(2.22394e-07 6.55616e-07 0.0118951)
(6.65612e-08 2.23739e-07 0.00362984)
(1.57347e-06 1.30758e-06 0.0522428)
(6.59131e-07 1.07241e-06 0.0359194)
(3.16651e-07 7.87496e-07 0.0225901)
(1.23143e-07 4.75657e-07 0.0119826)
(3.67109e-08 1.6284e-07 0.00365814)
(6.77761e-06 1.10709e-05 0.0731313)
(5.97517e-06 5.68817e-06 0.0730739)
(0.00019954 0.000195236 0.12554)
(1.85191e-05 1.84157e-05 0.0974725)
(1.4296e-05 1.58634e-05 0.0973189)
(3.73306e-06 2.32385e-05 0.084291)
(8.43822e-06 6.15039e-06 0.12699)
(1.61427e-05 5.44311e-05 0.109438)
(3.02844e-05 1.24549e-07 0.10783)
(1.95537e-05 2.96124e-06 0.084181)
(6.25464e-05 -1.26475e-06 0.120374)
(2.35154e-06 -6.42989e-07 0.12691)
(5.12945e-05 1.33075e-05 0.109378)
(-1.91576e-06 -2.18361e-06 0.127791)
(3.0221e-05 6.37953e-07 0.107831)
(2.00986e-05 -2.12042e-06 0.0841808)
(6.25401e-05 2.04633e-06 0.120375)
(5.29955e-06 -9.84819e-07 0.126909)
(1.16133e-07 4.89931e-06 0.127788)
(5.19518e-05 -1.28496e-05 0.109378)
(6.45606e-06 -4.91265e-06 0.0730722)
(0.000198268 -0.000195345 0.125546)
(1.48089e-05 -1.53615e-05 0.0973238)
(-9.59e-06 -4.29644e-06 0.0729711)
(-1.30798e-05 -1.10652e-05 0.08962)
(6.51488e-06 6.45893e-06 0.0719424)
(5.28942e-06 4.51094e-06 0.0718945)
(1.34978e-05 1.30963e-05 0.0898665)
(-5.16662e-06 -4.19074e-06 0.0718449)
(-7.13485e-06 -4.73428e-06 0.07178)
(-1.89398e-05 -4.00422e-05 0.106263)
(9.0834e-06 1.23126e-05 0.0836086)
(3.67108e-05 6.45103e-05 0.115616)
(-1.35204e-05 -1.24984e-05 0.0974326)
(2.32796e-05 4.37626e-05 0.10655)
(-5.60613e-06 -1.00604e-05 0.083487)
(-2.79691e-05 -5.61126e-05 0.11544)
(-4.20408e-05 -1.93088e-05 0.106059)
(1.09757e-05 5.64536e-06 0.0833907)
(6.11625e-05 3.07031e-05 0.115466)
(-1.64e-05 -1.52901e-05 0.0970502)
(4.42512e-05 1.74247e-05 0.106394)
(-1.20424e-05 -7.1142e-06 0.0832102)
(-5.99515e-05 -3.13178e-05 0.115145)
(-9.78047e-06 2.84047e-06 0.0785284)
(3.06199e-05 3.3945e-07 0.104966)
(8.20841e-06 -3.25438e-07 0.0814246)
(-3.33175e-05 3.63062e-07 0.107431)
(8.72487e-06 -1.93702e-06 0.0787135)
(-3.30522e-05 1.84073e-07 0.104585)
(-9.48234e-06 1.09246e-06 0.0812197)
(-9.73486e-06 3.086e-06 0.0704601)
(2.33007e-05 2.06612e-06 0.0955719)
(-2.26389e-05 -3.24116e-06 0.0840207)
(7.66927e-06 -1.10762e-06 0.0705691)
(-2.70999e-05 -7.01025e-07 0.0953081)
(-9.76665e-06 -1.52114e-06 0.0785288)
(8.20715e-06 1.2432e-06 0.0814246)
(3.02464e-05 7.75941e-07 0.104967)
(-3.32328e-05 5.99553e-07 0.107431)
(8.66968e-06 3.08355e-06 0.0787139)
(-9.42289e-06 3.73777e-08 0.0812196)
(-3.32842e-05 1.02024e-06 0.104587)
(-9.29829e-06 -1.53279e-06 0.0704618)
(2.39653e-05 -7.81281e-07 0.0955718)
(-2.17047e-05 4.44937e-06 0.0840201)
(8.0678e-06 2.46601e-06 0.0705708)
(-2.63168e-05 2.20757e-06 0.095308)
(-8.78425e-06 5.41291e-06 0.0729691)
(-1.31955e-05 1.28044e-05 0.0896311)
(-6.60013e-06 6.01489e-06 0.0717803)
(-6.49623e-06 6.64908e-06 0.071853)
(-4.28409e-05 1.98745e-05 0.106055)
(6.03682e-05 -3.24574e-05 0.115485)
(-1.54264e-05 1.59583e-05 0.0970544)
(-5.93808e-05 3.15859e-05 0.115165)
(-1.13443e-05 7.88328e-06 0.0832026)
(-1.86141e-05 4.35937e-05 0.106276)
(-1.70936e-05 1.3829e-05 0.0974644)
(-7.9819e-06 1.17068e-05 0.0835072)
(-2.73811e-05 5.71104e-05 0.115417)
(-5.76034e-06 8.48685e-06 0.0732042)
(9.13749e-07 -2.6411e-06 0.12833)
(8.81329e-07 -2.64462e-06 0.12864)
(2.79954e-06 6.74035e-07 0.12862)
(1.30154e-06 2.28163e-06 0.128767)
(-7.0248e-07 -1.73718e-07 0.12833)
(-9.1235e-07 -1.92958e-06 0.128641)
(-2.66826e-06 1.38124e-06 0.12862)
(-3.49381e-08 2.38265e-06 0.128768)
(4.37348e-06 3.48637e-06 0.128622)
(2.78207e-06 2.20451e-06 0.128769)
(-4.48027e-06 3.01224e-06 0.128623)
(-1.82522e-06 2.69319e-06 0.12877)
(-5.65378e-05 -5.69855e-05 0.117001)
(-0.000195401 -0.000201674 0.125488)
(0.000222827 5.34674e-05 0.122419)
(5.41275e-05 0.000215661 0.12233)
(6.04783e-05 5.3546e-05 0.117236)
(-0.000214992 -5.11496e-05 0.122295)
(-5.00768e-05 -0.000218501 0.122162)
(7.14432e-06 -0.000249935 0.123261)
(2.38232e-06 6.42715e-05 0.115654)
(1.33469e-05 0.00025536 0.120305)
(-1.17299e-05 -4.57956e-05 0.109572)
(-4.68941e-06 -0.000240624 0.12034)
(-3.9948e-07 0.000252797 0.123138)
(-5.21171e-07 -5.59025e-05 0.115759)
(-0.000246352 -2.55946e-06 0.124286)
(6.37968e-05 -2.18626e-06 0.118993)
(0.000232822 -4.68153e-07 0.125064)
(-6.2571e-05 8.07799e-07 0.120042)
(0.000246451 -5.42351e-07 0.124441)
(-6.36514e-05 7.32125e-07 0.118658)
(-0.000236241 2.55625e-07 0.124904)
(-0.000261279 -4.23334e-06 0.122967)
(6.07673e-05 3.0424e-07 0.115611)
(0.000258195 1.29762e-05 0.120256)
(-5.05375e-05 -1.64157e-05 0.109076)
(-0.000249296 -1.53843e-05 0.120029)
(0.000260548 1.31162e-07 0.123133)
(-6.22363e-05 -2.96101e-06 0.115284)
(-0.000247203 3.61958e-06 0.124283)
(0.000232953 2.11522e-06 0.125063)
(6.34006e-05 3.41947e-06 0.118995)
(-6.25081e-05 3.48795e-07 0.120042)
(0.000244047 1.98106e-06 0.124443)
(-0.000234642 1.19371e-06 0.124903)
(-6.44126e-05 6.66109e-07 0.118658)
(-0.000257414 5.40549e-06 0.122961)
(6.19928e-05 9.30241e-07 0.115613)
(0.000257868 -1.33164e-05 0.120257)
(-4.96728e-05 1.71898e-05 0.109075)
(0.000260687 5.93299e-07 0.123131)
(-6.22341e-05 4.56562e-06 0.115284)
(-0.000246464 1.69873e-05 0.120029)
(-5.38027e-05 5.89343e-05 0.117008)
(-0.000196153 0.000203675 0.125489)
(5.23945e-05 -0.000223874 0.122366)
(-5.12235e-05 0.000217823 0.122203)
(-0.000209021 5.29526e-05 0.122249)
(2.80934e-06 4.73735e-06 0.0527657)
(6.91336e-07 1.93105e-06 0.0363239)
(-1.57909e-07 8.29919e-07 0.0228646)
(-2.99507e-07 3.65226e-07 0.0121361)
(-1.33413e-07 1.12791e-07 0.00370731)
(1.77068e-06 3.55413e-06 0.0527585)
(4.80332e-07 2.6878e-06 0.0363137)
(-1.25969e-07 1.94396e-06 0.0228572)
(-3.09056e-07 1.16584e-06 0.0121321)
(-1.57341e-07 4.08673e-07 0.0037061)
(1.46783e-06 7.74465e-06 0.0510614)
(7.30747e-07 3.06551e-06 0.0350366)
(3.86387e-07 9.75138e-07 0.0220015)
(2.45376e-07 2.13082e-07 0.0116566)
(1.1378e-07 7.08194e-09 0.00355444)
(4.92653e-06 7.47293e-07 0.0510414)
(2.49145e-06 5.70749e-07 0.0350171)
(1.14058e-06 3.64813e-07 0.0219891)
(3.71867e-07 1.75127e-07 0.0116506)
(6.02717e-08 5.20464e-08 0.00355272)
(5.4621e-06 3.11496e-07 0.0510427)
(2.93046e-06 4.75977e-07 0.0350188)
(1.48017e-06 4.82678e-07 0.0219905)
(5.82459e-07 3.58827e-07 0.0116511)
(1.32602e-07 1.33256e-07 0.00355276)
(2.32906e-06 -2.48576e-06 0.0527581)
(1.0947e-06 -1.58433e-06 0.0363142)
(3.9419e-07 -1.00941e-06 0.0228581)
(2.5075e-08 -5.59196e-07 0.0121331)
(-3.97669e-08 -1.93803e-07 0.00370653)
(-3.91023e-06 -1.35825e-06 0.0527295)
(-1.89211e-06 -1.85688e-07 0.0363045)
(-9.70323e-07 1.99939e-07 0.0228538)
(-4.16676e-07 2.31938e-07 0.0121308)
(-1.12355e-07 9.34414e-08 0.00370575)
(-2.90498e-06 3.15497e-06 0.0518796)
(-1.40011e-06 2.81868e-06 0.0356602)
(-7.63637e-07 2.16658e-06 0.0224196)
(-3.56481e-07 1.34283e-06 0.0118882)
(-1.09436e-07 4.68012e-07 0.00362777)
(2.11563e-06 8.26977e-08 0.0522418)
(1.32636e-06 2.346e-07 0.0359193)
(6.77111e-07 2.29454e-07 0.0225903)
(2.38111e-07 1.47743e-07 0.0119828)
(4.50694e-08 5.03028e-08 0.00365816)
(2.56275e-06 -1.01624e-06 0.0519376)
(1.4518e-06 -3.94462e-07 0.0356872)
(7.11127e-07 -9.41223e-08 0.0224336)
(2.47255e-07 7.3724e-10 0.0118949)
(4.83399e-08 1.13348e-08 0.00362981)
(-2.14254e-06 1.36056e-06 0.0521803)
(-8.57044e-07 1.23078e-06 0.0358901)
(-4.14322e-07 9.30046e-07 0.0225751)
(-1.63008e-07 5.6163e-07 0.0119753)
(-4.6444e-08 1.89704e-07 0.00365594)
(-5.94238e-06 -1.97249e-07 0.0510195)
(-2.70067e-06 2.844e-07 0.0350139)
(-1.26e-06 3.67598e-07 0.0219895)
(-4.82594e-07 2.86959e-07 0.0116512)
(-1.13368e-07 1.07179e-07 0.0035529)
(-2.73096e-06 -1.7583e-06 0.0518806)
(-1.22129e-06 -1.53675e-06 0.0356606)
(-6.19315e-07 -1.1779e-06 0.0224199)
(-2.66808e-07 -7.40089e-07 0.0118885)
(-7.88133e-08 -2.63413e-07 0.00362786)
(2.17379e-06 9.53035e-07 0.0522417)
(1.37619e-06 7.5285e-07 0.0359192)
(7.17998e-07 5.57788e-07 0.0225902)
(2.64225e-07 3.44743e-07 0.0119827)
(5.4082e-08 1.20618e-07 0.00365813)
(2.70214e-06 2.19505e-06 0.0519386)
(1.60074e-06 1.48409e-06 0.0356877)
(8.34312e-07 9.47577e-07 0.0224339)
(3.25101e-07 5.27435e-07 0.0118953)
(7.55224e-08 1.70182e-07 0.00362991)
(-2.05837e-06 -6.74674e-08 0.0521802)
(-7.86853e-07 -1.53567e-08 0.0358899)
(-3.61558e-07 2.01754e-08 0.0225749)
(-1.31742e-07 2.27502e-08 0.0119752)
(-3.61077e-08 1.01664e-08 0.00365588)
(-5.20971e-06 1.65781e-06 0.0510207)
(-2.07462e-06 1.11286e-06 0.0350154)
(-7.9172e-07 7.40334e-07 0.0219906)
(-2.0168e-07 4.00024e-07 0.0116515)
(-1.92763e-08 1.28507e-07 0.00355288)
(-3.10052e-06 2.81369e-06 0.052729)
(-1.07064e-06 1.65864e-06 0.036305)
(-3.01688e-07 1.00873e-06 0.0228546)
(1.8398e-09 5.33148e-07 0.0121317)
(3.17435e-08 1.72559e-07 0.00370613)
(-2.76389e-06 3.79813e-06 0.0512794)
(-1.30685e-06 1.62887e-06 0.0351885)
(-5.77708e-07 6.61473e-07 0.0220984)
(-2.00311e-07 2.09552e-07 0.0117089)
(-4.05377e-08 4.26899e-08 0.00357076)
(-3.12835e-06 2.97408e-06 0.0527357)
(-1.80041e-06 1.03845e-06 0.036306)
(-1.0426e-06 2.92746e-07 0.0228545)
(-5.23885e-07 2.40419e-09 0.0121315)
(-1.63449e-07 -2.49711e-08 0.00370628)
(1.7784e-06 3.99803e-06 0.0528285)
(-2.45257e-07 2.62922e-06 0.0363582)
(-9.59487e-07 1.74544e-06 0.0228812)
(-8.51351e-07 1.00751e-06 0.0121427)
(-3.39116e-07 3.45587e-07 0.00370843)
(1.35524e-06 4.66871e-06 0.0513267)
(-5.42561e-07 2.57812e-06 0.0352137)
(-1.05752e-06 1.50814e-06 0.0221116)
(-8.34691e-07 8.05602e-07 0.0117153)
(-3.11748e-07 2.64362e-07 0.00357231)
(-3.16563e-06 -1.18655e-06 0.0512977)
(-2.96276e-06 7.8786e-08 0.0352049)
(-2.25192e-06 5.48008e-07 0.0221091)
(-1.29857e-06 5.35179e-07 0.0117148)
(-4.14918e-07 2.10748e-07 0.00357234)
(1.40291e-06 2.9089e-06 0.0528251)
(-2.65741e-07 2.51801e-06 0.0363539)
(-8.44416e-07 1.95078e-06 0.0228783)
(-7.62884e-07 1.20135e-06 0.0121407)
(-3.10382e-07 4.23125e-07 0.00370759)
(1.8842e-06 2.13986e-06 0.0513107)
(5.00694e-07 1.86582e-06 0.0352003)
(-1.52217e-07 1.44858e-06 0.0221034)
(-3.27095e-07 8.918e-07 0.0117104)
(-1.60495e-07 3.17712e-07 0.0035707)
(-4.52289e-06 -1.25337e-06 0.0512704)
(-2.50975e-06 2.30206e-07 0.0351845)
(-1.45094e-06 6.47697e-07 0.0220965)
(-7.16092e-07 5.52519e-07 0.0117074)
(-2.154e-07 2.13243e-07 0.00356992)
(-4.12055e-06 -1.78984e-07 0.0527935)
(-3.71978e-06 1.30547e-06 0.0363448)
(-2.86358e-06 1.57643e-06 0.0228758)
(-1.72667e-06 1.1775e-06 0.0121406)
(-5.88613e-07 4.4107e-07 0.00370796)
(-4.50165e-06 -7.12818e-07 0.0527852)
(-3.12419e-06 8.55035e-07 0.0363383)
(-2.06629e-06 1.19549e-06 0.0228716)
(-1.12532e-06 9.04695e-07 0.0121379)
(-3.59727e-07 3.33687e-07 0.00370689)
(-5.41232e-06 2.98101e-06 0.0524065)
(-2.81579e-06 2.49077e-06 0.0361154)
(-1.4313e-06 1.89584e-06 0.0227486)
(-6.22262e-07 1.18712e-06 0.0120801)
(-1.70995e-07 4.17453e-07 0.0036917)
(3.78178e-06 -1.68431e-06 0.0524397)
(2.08175e-06 -1.40174e-06 0.0361262)
(1.08274e-06 -1.01809e-06 0.0227528)
(4.51149e-07 -6.22254e-07 0.0120819)
(1.18719e-07 -2.16307e-07 0.00369223)
(-4.93783e-06 -1.34572e-06 0.0524083)
(-2.37657e-06 -1.00211e-06 0.0361167)
(-1.10069e-06 -7.45472e-07 0.0227496)
(-4.25229e-07 -4.82555e-07 0.0120806)
(-1.05078e-07 -1.76967e-07 0.0036916)
(4.16691e-06 3.0564e-06 0.0524415)
(2.44409e-06 2.64218e-06 0.0361276)
(1.36007e-06 1.98458e-06 0.0227539)
(6.19256e-07 1.22036e-06 0.0120825)
(1.75424e-07 4.22507e-07 0.00369216)
(-3.43298e-06 2.63751e-06 0.0512707)
(-1.39088e-06 1.34261e-06 0.0351853)
(-5.09092e-07 6.82589e-07 0.0220973)
(-1.16476e-07 2.97028e-07 0.0117083)
(-8.14949e-09 8.34022e-08 0.00357033)
(-3.35411e-06 2.58642e-06 0.0527848)
(-1.6137e-06 1.1026e-06 0.0363378)
(-7.37448e-07 3.97717e-07 0.0228708)
(-2.76116e-07 8.5141e-08 0.0121375)
(-6.72938e-08 3.01034e-09 0.00370702)
(-3.0113e-06 3.45305e-06 0.0527922)
(-1.42538e-06 1.56981e-06 0.0363421)
(-6.28039e-07 6.39127e-07 0.0228733)
(-2.195e-07 1.92875e-07 0.0121392)
(-4.70322e-08 3.30796e-08 0.00370758)
(1.93849e-07 5.15888e-07 0.127057)
(-0.000197117 -0.000191996 0.125541)
(8.48004e-07 3.73512e-06 0.12833)
(-3.17602e-07 1.94736e-06 0.12691)
(2.35008e-06 -7.23568e-06 0.126989)
(-0.000195085 -0.000194959 0.125544)
(-3.35276e-06 -1.25447e-06 0.12833)
(6.75204e-07 -1.61807e-07 0.126908)
(6.20246e-07 1.10069e-07 0.126989)
(-0.000195231 -0.000194346 0.125541)
(-1.53067e-06 -6.78257e-07 0.128328)
(2.74254e-07 -4.3258e-07 0.126906)
(1.14485e-06 6.28781e-07 0.126988)
(-0.000195047 -0.000193885 0.125539)
(-2.77168e-07 -4.48238e-07 0.128326)
(1.16578e-07 -3.90601e-07 0.126903)
(2.36993e-06 1.24867e-06 0.126986)
(-0.000195173 -0.000193975 0.125536)
(3.25217e-07 2.8343e-07 0.128327)
(2.23019e-07 5.19343e-07 0.126904)
(3.31989e-06 -3.41781e-07 0.126987)
(-0.000195096 -0.000195104 0.125536)
(-4.73294e-07 5.37655e-07 0.128329)
(1.04864e-06 5.4566e-07 0.126905)
(2.4146e-06 -9.67632e-07 0.126989)
(-0.000194456 -0.000195616 0.125538)
(-1.34588e-06 2.81008e-08 0.128329)
(1.10649e-06 3.96971e-08 0.126907)
(1.50177e-06 -5.61319e-07 0.126989)
(-0.000194675 -0.000195266 0.125539)
(-9.70139e-07 2.46243e-07 0.128329)
(7.90817e-07 1.29605e-07 0.126907)
(1.93741e-06 -8.66794e-07 0.126989)
(-0.000194978 -0.00019532 0.125539)
(-8.77226e-07 3.04248e-07 0.128329)
(7.95448e-07 2.3801e-07 0.126908)
(2.21334e-06 -9.14938e-07 0.126989)
(-0.000194947 -0.000195325 0.125539)
(-9.85067e-07 2.66115e-07 0.128329)
(7.63683e-07 2.71812e-07 0.126907)
(2.23981e-06 -7.66878e-07 0.126989)
(-0.000195034 -0.000195202 0.125539)
(-9.95532e-07 2.26404e-07 0.128329)
(8.57513e-07 2.68614e-07 0.126907)
(2.25996e-06 -6.73611e-07 0.126989)
(-0.000195049 -0.000195205 0.125538)
(-9.7258e-07 2.38972e-07 0.128329)
(9.00864e-07 3.16866e-07 0.126907)
(2.28682e-06 -6.33749e-07 0.126988)
(-0.000195021 -0.00019517 0.125538)
(-8.80761e-07 2.86264e-07 0.128328)
(1.12657e-06 3.29382e-07 0.126906)
(2.23671e-06 -4.73503e-07 0.126988)
(-0.000195002 -0.000195142 0.125538)
(-8.87853e-07 3.08282e-07 0.128328)
(1.65455e-06 2.90812e-07 0.126905)
(2.02426e-06 -4.7844e-08 0.126987)
(-0.000194894 -0.000195024 0.125537)
(-8.81526e-07 1.23354e-06 0.128328)
(3.11243e-06 4.5255e-07 0.126902)
(8.39137e-07 1.35689e-06 0.126985)
(-0.000194551 -0.000195027 0.125534)
(-3.75297e-06 3.06361e-06 0.12833)
(2.53284e-06 2.48178e-06 0.126997)
(-3.91813e-06 1.59168e-06 0.127058)
(-0.000192101 -0.000195117 0.125629)
(0.000192146 -0.000190626 0.125553)
(-0.000196475 0.000197192 0.125495)
(-4.68682e-06 -1.56097e-06 0.126994)
(3.70871e-06 -8.19434e-06 0.126991)
(-3.82328e-06 -2.01531e-06 0.126993)
(0.000200123 0.000203906 0.125488)
(0.000197179 0.000201013 0.125551)
(-0.000202104 -0.000202956 0.125486)
(4.27066e-06 8.52533e-06 0.126989)
(-4.57882e-06 3.91508e-06 0.126994)
(1.45152e-06 1.50671e-06 0.126986)
(-2.88646e-06 2.29199e-06 0.126992)
(-0.000194311 0.000197018 0.125544)
(0.000198951 -0.000203206 0.125487)
(6.25087e-06 4.99922e-06 0.126912)
(7.24016e-06 -5.62153e-06 0.126911)
(-1.14308e-06 1.5684e-06 0.126908)
(4.22629e-07 -2.09126e-06 0.126907)
(-2.55519e-06 -2.76179e-06 0.12691)
(6.19282e-08 6.11108e-07 0.126908)
(-1.525e-06 -1.51408e-06 0.126906)
(0.000197409 -0.000199332 0.125549)
(-0.000202183 0.00020347 0.125485)
(-2.21665e-06 -2.66509e-06 0.126993)
(8.18902e-07 -8.42752e-07 0.126988)
(-2.42914e-06 -4.92528e-07 0.126995)
(0.000199523 0.000204672 0.125486)
(0.000192562 0.0001958 0.12554)
(-0.000201049 -0.000203684 0.125483)
(8.18778e-07 6.93273e-07 0.126986)
(-3.50165e-06 1.72994e-06 0.126992)
(1.41704e-06 8.52358e-07 0.126986)
(-2.34719e-06 8.36616e-07 0.12699)
(-0.000193185 0.000195516 0.125541)
(0.000199515 -0.000205138 0.125484)
(-1.59035e-06 9.22847e-07 0.126908)
(-2.76494e-07 -1.43072e-06 0.126906)
(-3.81071e-07 4.8733e-07 0.126908)
(4.96205e-07 -1.01485e-06 0.126905)
(-9.62357e-07 -7.57723e-07 0.126906)
(2.42666e-07 -2.77696e-07 0.126907)
(-1.01634e-06 -3.53185e-07 0.126904)
(0.000193312 -0.000194834 0.125539)
(-0.000201231 0.000204077 0.125482)
(-2.43724e-06 1.51746e-07 0.126994)
(1.00298e-06 2.87532e-07 0.126988)
(-2.11016e-06 8.74123e-07 0.126993)
(0.000199699 0.000205174 0.125484)
(0.000193654 0.000195081 0.125538)
(-0.000200103 -0.000204276 0.125481)
(1.65347e-06 5.29275e-07 0.126985)
(-2.7694e-06 6.42062e-07 0.126989)
(2.45504e-06 -2.42775e-08 0.126983)
(-2.21445e-06 1.80212e-07 0.126987)
(-0.000194133 0.000194578 0.125539)
(0.000199188 -0.000204293 0.125481)
(-1.64863e-07 3.70763e-07 0.126907)
(7.13165e-07 -8.69784e-07 0.126904)
(7.15339e-07 1.67166e-07 0.126905)
(1.70403e-06 -6.58899e-07 0.126902)
(-1.03622e-06 -3.15908e-07 0.126903)
(-2.14129e-07 -2.5453e-07 0.126904)
(-1.32054e-06 -1.23774e-07 0.126901)
(0.000194365 -0.0001943 0.125537)
(-0.000200066 0.00020471 0.125479)
(-2.00035e-06 1.05552e-06 0.126993)
(2.10027e-06 1.20401e-06 0.126986)
(-1.87457e-06 1.41737e-06 0.126991)
(0.000199785 0.000205374 0.125481)
(0.000194895 0.000194899 0.125535)
(-0.000199284 -0.000203353 0.12548)
(2.7365e-06 -4.08282e-08 0.126983)
(-3.19859e-06 3.59972e-07 0.126987)
(3.53814e-06 1.30192e-06 0.126983)
(-2.06506e-06 1.5044e-06 0.126987)
(-0.000193178 0.000194854 0.125536)
(0.000199766 -0.000204292 0.125481)
(9.41271e-07 2.28704e-07 0.126905)
(1.9364e-06 -6.9967e-07 0.126902)
(1.81293e-06 8.36603e-07 0.126905)
(2.6917e-06 -1.25046e-06 0.126902)
(-1.17312e-06 -1.04294e-07 0.126901)
(-1.17924e-07 4.52163e-07 0.126904)
(-1.08605e-06 -6.24968e-07 0.126901)
(0.000195795 -0.000194062 0.125534)
(-0.000199126 0.000203889 0.125479)
(-1.81889e-06 1.36716e-06 0.126991)
(3.2888e-06 3.68024e-08 0.126987)
(-1.80418e-06 3.03038e-07 0.126992)
(0.00019996 0.000204514 0.125481)
(0.000195674 0.000196053 0.125535)
(-0.000200098 -0.000202803 0.125482)
(3.57178e-06 1.70472e-06 0.126984)
(-2.45583e-06 2.07024e-06 0.126987)
(3.02028e-06 2.59589e-06 0.126985)
(-1.66272e-06 2.86744e-06 0.126988)
(-0.000194238 0.000196043 0.125536)
(0.00020004 -0.000202651 0.125483)
(1.66799e-06 9.59778e-07 0.126905)
(2.53216e-06 -1.33051e-06 0.126902)
(8.6405e-07 1.00585e-06 0.126907)
(1.6516e-06 -1.2966e-06 0.126904)
(-7.63232e-07 -8.1354e-07 0.126901)
(6.31038e-07 8.01724e-07 0.126905)
(-9.90679e-08 -1.0048e-06 0.126902)
(0.000196718 -0.000195102 0.125534)
(-0.000199988 0.000203421 0.125481)
(-1.80151e-06 -2.65838e-07 0.126992)
(2.76368e-06 -1.05651e-06 0.126989)
(-1.53521e-06 -1.07671e-06 0.126993)
(0.000200605 0.000203799 0.125482)
(0.000194702 0.000196363 0.125537)
(-0.000201096 -0.000203303 0.125483)
(2.71376e-06 2.41481e-06 0.126985)
(-2.78163e-06 2.97193e-06 0.126988)
(1.93541e-06 2.10222e-06 0.126985)
(-1.78594e-06 2.24896e-06 0.126988)
(-0.000192481 0.000196542 0.125537)
(0.00020034 -0.000204276 0.125484)
(3.78239e-07 8.51902e-07 0.126908)
(1.15855e-06 -1.15724e-06 0.126905)
(-6.11164e-07 4.07277e-07 0.126908)
(1.03856e-07 -7.51819e-07 0.126905)
(7.54602e-08 -9.77123e-07 0.126903)
(9.96617e-07 2.1654e-07 0.126907)
(1.18455e-07 -6.29673e-07 0.126903)
(0.000195653 -0.000195362 0.125536)
(-0.000200963 0.000203786 0.125482)
(-1.56122e-06 -1.11301e-06 0.126993)
(1.61787e-06 -6.3576e-07 0.126989)
(-1.78604e-06 -7.34421e-07 0.126993)
(0.000200494 0.000204161 0.125483)
(0.000193868 0.000195965 0.125538)
(-0.000200848 -0.000203316 0.125484)
(1.82129e-06 1.92866e-06 0.126985)
(-2.3801e-06 2.13714e-06 0.126988)
(2.12306e-06 2.09889e-06 0.126985)
(-2.19368e-06 2.0201e-06 0.126989)
(-0.000193818 0.000195835 0.125539)
(0.000199692 -0.000203344 0.125485)
(-8.22579e-07 3.66565e-07 0.126908)
(-8.29596e-08 -7.15506e-07 0.126906)
(-5.26366e-07 4.37207e-07 0.126909)
(1.46674e-07 -8.44091e-07 0.126906)
(1.12015e-07 -6.05743e-07 0.126904)
(5.43124e-07 2.50209e-07 0.126907)
(-2.03278e-07 -6.88513e-07 0.126904)
(0.000194834 -0.000195055 0.125537)
(-0.000200792 0.000203694 0.125483)
(-1.95775e-06 -6.01341e-07 0.126993)
(1.79023e-06 -8.07338e-07 0.126989)
(-2.21105e-06 -7.20893e-07 0.126993)
(0.000200166 0.000204172 0.125483)
(0.000194277 0.000196024 0.125539)
(-0.000200557 -0.000203354 0.125484)
(2.28216e-06 2.04346e-06 0.126985)
(-3.32606e-06 2.28896e-06 0.126989)
(2.53976e-06 2.16993e-06 0.126985)
(-2.22046e-06 2.28027e-06 0.126988)
(-0.000192991 0.000196004 0.125539)
(0.000200026 -0.000204256 0.125485)
(-4.26899e-07 4.76168e-07 0.126909)
(2.44293e-07 -9.03456e-07 0.126906)
(-2.51131e-07 4.41206e-07 0.126909)
(4.11487e-07 -8.89457e-07 0.126907)
(-2.08649e-07 -7.58918e-07 0.126904)
(6.01828e-07 3.36281e-07 0.126907)
(-2.75422e-07 -7.55078e-07 0.126904)
(0.000195147 -0.000195216 0.125538)
(-0.000200503 0.000203683 0.125483)
(-2.28131e-06 -7.46619e-07 0.126993)
(2.22455e-06 -9.69624e-07 0.126989)
(-2.226e-06 -9.05024e-07 0.126992)
(0.000200154 0.000204111 0.125483)
(0.000194446 0.000195948 0.125539)
(-0.000200662 -0.000203403 0.125484)
(2.51276e-06 2.06066e-06 0.126985)
(-2.71487e-06 2.30856e-06 0.126988)
(2.40119e-06 2.14853e-06 0.126985)
(-2.26396e-06 2.21743e-06 0.126989)
(-0.000194141 0.000195946 0.12554)
(0.000199642 -0.000203221 0.125485)
(-3.7992e-07 4.0068e-07 0.126909)
(2.9839e-07 -8.14555e-07 0.126907)
(-4.13491e-07 3.65238e-07 0.126909)
(3.04907e-07 -6.97983e-07 0.126907)
(-1.80359e-07 -7.22728e-07 0.126904)
(4.40997e-07 4.33397e-07 0.126907)
(-3.27118e-07 -6.31057e-07 0.126904)
(0.00019534 -0.000195157 0.125538)
(-0.000200509 0.00020386 0.125483)
(-2.25536e-06 -8.58478e-07 0.126992)
(2.23641e-06 -8.41345e-07 0.126989)
(-2.27607e-06 -8.01835e-07 0.126992)
(0.000200095 0.000204243 0.125483)
(0.000194378 0.000195916 0.125539)
(-0.000200588 -0.000203402 0.125484)
(2.4405e-06 2.03716e-06 0.126985)
(-3.3901e-06 2.40559e-06 0.126989)
(2.50774e-06 2.18805e-06 0.126985)
(-2.24283e-06 2.38484e-06 0.126989)
(-0.000193031 0.000196108 0.12554)
(0.000200001 -0.000204204 0.125485)
(-4.86641e-07 3.66647e-07 0.12691)
(2.0604e-07 -6.2137e-07 0.126907)
(-3.19048e-07 3.61981e-07 0.12691)
(4.23775e-07 -6.50904e-07 0.126907)
(-2.28797e-07 -5.85965e-07 0.126904)
(5.20886e-07 3.93618e-07 0.126908)
(-4.2904e-07 -6.26643e-07 0.126904)
(0.000195355 -0.000194989 0.125538)
(-0.000200422 0.000203911 0.125483)
(-2.32982e-06 -7.17652e-07 0.126992)
(2.33192e-06 -7.89813e-07 0.126989)
(-2.33103e-06 -7.92625e-07 0.126992)
(0.000200043 0.000204238 0.125483)
(0.000194406 0.000195876 0.125539)
(-0.000200553 -0.000203373 0.125484)
(2.50613e-06 1.9491e-06 0.126985)
(-2.72543e-06 2.25382e-06 0.126988)
(2.48259e-06 2.25365e-06 0.126986)
(-2.23092e-06 2.36071e-06 0.126989)
(-0.000194138 0.000195952 0.12554)
(0.000199624 -0.000203163 0.125485)
(-5.46336e-07 3.44735e-07 0.126909)
(1.49049e-07 -5.59009e-07 0.126907)
(-2.5441e-07 3.22322e-07 0.12691)
(5.14687e-07 -6.3761e-07 0.126907)
(-1.66666e-07 -5.66735e-07 0.126904)
(3.4004e-07 4.14947e-07 0.126908)
(-4.93117e-07 -6.28729e-07 0.126904)
(0.000195408 -0.000194938 0.125538)
(-0.000200402 0.000203911 0.125483)
(-2.32215e-06 -6.66995e-07 0.126992)
(2.33895e-06 -8.19634e-07 0.126989)
(-2.29869e-06 -8.36043e-07 0.126992)
(0.000200051 0.000204243 0.125483)
(0.000194389 0.000195841 0.125539)
(-0.000200484 -0.000203285 0.125485)
(2.52122e-06 1.88626e-06 0.126984)
(-3.39542e-06 2.29046e-06 0.126988)
(2.50181e-06 2.4542e-06 0.126987)
(-2.19227e-06 2.66588e-06 0.12699)
(-0.000192969 0.000196061 0.125539)
(0.000199915 -0.000204063 0.125486)
(-5.84857e-07 3.9075e-07 0.126909)
(6.4618e-08 -5.44648e-07 0.126907)
(-9.07486e-08 3.14544e-07 0.126911)
(7.70129e-07 -7.23872e-07 0.126908)
(-6.63177e-08 -5.40877e-07 0.126904)
(3.16023e-07 3.59459e-07 0.126908)
(-7.40085e-07 -7.12092e-07 0.126905)
(0.000195406 -0.000194911 0.125538)
(-0.000200354 0.000203883 0.125483)
(-2.3194e-06 -6.15712e-07 0.126992)
(2.37974e-06 -9.59603e-07 0.126989)
(-2.33108e-06 -9.6761e-07 0.126993)
(0.000199998 0.000204203 0.125483)
(0.000194309 0.000195761 0.125538)
(-0.000200311 -0.000203116 0.125487)
(2.56415e-06 1.66911e-06 0.126983)
(-2.76774e-06 1.96252e-06 0.126986)
(2.55157e-06 2.89851e-06 0.126988)
(-2.31839e-06 3.04448e-06 0.126992)
(-0.000194027 0.000195835 0.125539)
(0.000199386 -0.00020287 0.125488)
(-8.13471e-07 4.04146e-07 0.126909)
(-2.35165e-07 -4.23658e-07 0.126906)
(2.75591e-07 3.08096e-07 0.126912)
(1.29557e-06 -8.90995e-07 0.126909)
(2.12545e-07 -4.19866e-07 0.126903)
(-2.03258e-07 4.34409e-07 0.126909)
(-1.25262e-06 -8.97283e-07 0.126906)
(0.000195374 -0.000194872 0.125538)
(-0.000200275 0.00020385 0.125484)
(-2.28372e-06 -4.64134e-07 0.126991)
(2.49627e-06 -1.25522e-06 0.12699)
(-2.43259e-06 -1.24606e-06 0.126993)
(0.000199931 0.00020418 0.125484)
(0.000194117 0.000195587 0.125536)
(-0.000200981 -0.000202588 0.125494)
(2.40833e-06 1.12146e-06 0.126981)
(-3.30812e-06 1.48645e-06 0.126985)
(2.10403e-06 3.99107e-06 0.126991)
(-1.82472e-06 4.19146e-06 0.126994)
(-0.000192755 0.000195786 0.125537)
(0.000200452 -0.000203338 0.125495)
(-1.36668e-06 3.83555e-07 0.126907)
(-9.13984e-07 -1.0914e-07 0.126904)
(1.00861e-06 6.65524e-07 0.126915)
(2.24715e-06 -1.48249e-06 0.126912)
(8.51263e-07 -8.63392e-08 0.126901)
(-7.71642e-07 7.38546e-07 0.126912)
(-2.11137e-06 -1.4647e-06 0.126909)
(0.000195251 -0.000194777 0.125537)
(-0.0002005 0.000203871 0.125487)
(-2.11264e-06 -5.09868e-08 0.12699)
(2.56853e-06 -1.87409e-06 0.126992)
(-2.50787e-06 -1.83562e-06 0.126995)
(0.000200211 0.000204214 0.125487)
(0.000193528 0.000195929 0.125527)
(-0.00020708 -0.000200182 0.1255)
(1.68253e-07 1.68208e-08 0.126977)
(-3.70939e-07 9.49474e-08 0.12698)
(-2.29865e-06 5.84869e-06 0.126893)
(1.94758e-06 6.35501e-06 0.126895)
(-0.000193421 0.000195891 0.125528)
(0.000206931 -0.000199778 0.1255)
(-2.68309e-06 7.22858e-07 0.126905)
(-2.86267e-06 4.97647e-07 0.126901)
(2.51319e-06 3.59916e-06 0.126919)
(2.74272e-06 -4.01518e-06 0.126918)
(2.8335e-06 6.83293e-07 0.126898)
(-2.43599e-06 3.55658e-06 0.126916)
(-1.75677e-06 -3.16328e-06 0.126916)
(0.000194908 -0.000194928 0.125535)
(-0.00020725 0.000207887 0.125496)
(-1.02397e-06 1.57221e-06 0.126988)
(3.33689e-07 -1.69594e-06 0.126994)
(1.66934e-08 -7.05866e-07 0.126998)
(0.000206491 0.000207867 0.125499)
(-1.85236e-06 5.62037e-06 0.126895)
(-0.000191497 0.000199494 0.125527)
(-3.17732e-06 2.279e-06 0.126997)
(-3.22846e-06 -1.90061e-07 0.127006)
(3.80027e-06 7.08375e-07 0.127002)
(0.000192657 -0.000196353 0.125633)
(4.30457e-06 2.68251e-06 0.127062)
(1.07236e-05 -7.40091e-06 0.0731193)
(-5.73061e-06 4.25758e-06 0.0731637)
(-1.75104e-07 5.90602e-05 0.120664)
(1.21766e-06 -8.41339e-07 0.127895)
(1.90964e-05 -5.0836e-05 0.109808)
(3.31825e-06 -2.21953e-06 0.127058)
(-1.82911e-05 4.4909e-05 0.109816)
(-3.94103e-06 -6.55095e-05 0.120719)
(3.39013e-08 -3.37321e-06 0.127886)
(-1.49675e-05 -1.71505e-05 0.0973487)
(-1.74802e-05 -1.69929e-05 0.0975656)
(0.000203336 0.000202275 0.125487)
(2.20198e-05 1.16625e-05 0.0974137)
(1.65568e-05 1.21427e-05 0.0970873)
(-1.56812e-06 -3.13487e-05 0.108262)
(-1.622e-07 2.38715e-05 0.0845162)
(-6.46926e-06 -1.99053e-05 0.0844715)
(-3.75075e-07 3.68518e-05 0.108388)
(-5.78013e-06 9.27171e-06 0.0732225)
(4.63435e-06 -7.19452e-06 0.0731852)
(-3.23489e-05 -2.0191e-09 0.107434)
(1.89593e-05 9.54407e-08 0.0841952)
(-2.26105e-05 -5.38831e-06 0.0840298)
(3.16814e-05 -4.25513e-07 0.107844)
(-9.55435e-07 1.39885e-06 0.128333)
(-8.49828e-07 -3.33885e-06 0.12833)
(1.52614e-07 -6.86383e-07 0.128333)
(-3.33268e-06 -1.17625e-06 0.128329)
(1.28283e-06 4.77989e-07 0.128331)
(-3.31302e-06 1.28698e-06 0.128328)
(1.09355e-06 -1.78005e-07 0.128331)