/*--------------------------------*- C++ -*----------------------------------*\
| =========                 |                                                 |
| \\      /  F ield         | OpenFOAM: The Open Source CFD Toolbox           |
|  \\    /   O peration     | Version:  2206                                  |
|   \\  /    A nd           | Website:  www.openfoam.com                      |
|    \\/     M anipulation  |                                                 |
\*---------------------------------------------------------------------------*/
FoamFile
{
    version     2.0;
    format      ascii;
    arch        "LSB;label=32;scalar=64";
    class       volScalarField;
    location    "100";
    object      p;
}
// * * * * * * * * * * * * * * * * * * * * * * * * * * * * * * * * * * * * * //

dimensions      [0 2 -2 0 0 0 0];

internalField   nonuniform List<scalar> 
66940
(
-0.0164398
-0.0164397
-0.0164399
-0.0164283
-0.0166209
-0.016621
-0.0166211
-0.0166096
-0.0168023
-0.0168024
-0.0168024
-0.0167908
-0.016984
-0.016984
-0.016984
-0.0169722
-0.0171657
-0.0171657
-0.0171657
-0.0171536
-0.0173477
-0.0173472
-0.0173473
-0.0173347
-0.0175299
-0.0175286
-0.0175286
-0.017515
-0.0177126
-0.0177087
-0.0177089
-0.0176939
-0.0178961
-0.0178857
-0.0178861
-0.0178703
-0.0180693
-0.018048
-0.018049
-0.0180414
-0.0181106
-0.0181243
-0.0181256
-0.0181943
-0.0166496
-0.0174336
-0.0173812
-0.0180031
-0.0164058
-0.0163947
-0.0163948
-0.0164058
-0.0163943
-0.0163943
-0.0163942
-0.0163943
-0.0164058
-0.0163947
-0.0163947
-0.0164058
-0.0164283
-0.016587
-0.0164399
-0.0164398
-0.0165756
-0.0165756
-0.0164283
-0.0165871
-0.0164398
-0.0164399
-0.0165756
-0.0165756
-0.0164396
-0.0165756
-0.0165756
-0.0164284
-0.016587
-0.0164399
-0.0165756
-0.0165756
-0.0165871
-0.0166096
-0.0167684
-0.016621
-0.0166211
-0.0167569
-0.0167569
-0.0166096
-0.0167683
-0.016621
-0.0166211
-0.0167569
-0.0167569
-0.016621
-0.0167568
-0.0167569
-0.0166095
-0.0167683
-0.0166211
-0.0167569
-0.0167569
-0.0167683
-0.0167908
-0.0169499
-0.0168024
-0.0168024
-0.0169384
-0.0169385
-0.0167907
-0.0169499
-0.0168024
-0.0168024
-0.0169384
-0.0169384
-0.0168023
-0.0169384
-0.0169385
-0.0167908
-0.0169499
-0.0168025
-0.0169384
-0.0169383
-0.0169499
-0.0169722
-0.0171316
-0.016984
-0.016984
-0.01712
-0.0171202
-0.0169721
-0.0171316
-0.0169839
-0.016984
-0.01712
-0.0171201
-0.016984
-0.0171201
-0.0171201
-0.0169723
-0.0171316
-0.0169841
-0.01712
-0.01712
-0.0171316
-0.0171535
-0.0173134
-0.0171656
-0.0171657
-0.0173019
-0.0173018
-0.0171535
-0.0173133
-0.0171656
-0.0171656
-0.0173018
-0.0173017
-0.0171656
-0.0173018
-0.0173018
-0.0171536
-0.0173133
-0.0171658
-0.0173017
-0.0173017
-0.0173133
-0.0173344
-0.0174951
-0.0173472
-0.0173473
-0.0174836
-0.0174836
-0.0173344
-0.0174951
-0.0173472
-0.0173473
-0.0174836
-0.0174835
-0.0173473
-0.0174835
-0.0174835
-0.0173346
-0.0174951
-0.0173475
-0.0174835
-0.0174835
-0.0174951
-0.0175147
-0.0176768
-0.0175285
-0.0175286
-0.0176659
-0.0176657
-0.0175148
-0.0176768
-0.0175285
-0.0175286
-0.0176658
-0.0176657
-0.0175285
-0.0176658
-0.0176657
-0.017515
-0.0176768
-0.0175287
-0.0176656
-0.0176656
-0.0176768
-0.0176934
-0.0178594
-0.0177086
-0.0177088
-0.0178509
-0.0178506
-0.0176935
-0.0178594
-0.0177087
-0.0177088
-0.0178508
-0.0178507
-0.0177089
-0.0178508
-0.0178506
-0.0176938
-0.0178594
-0.017709
-0.0178504
-0.0178504
-0.0178594
-0.0178698
-0.0180431
-0.0178857
-0.017886
-0.0180431
-0.0180426
-0.01787
-0.018043
-0.0178857
-0.0178859
-0.0180431
-0.018043
-0.0178859
-0.0180432
-0.018043
-0.0178701
-0.018043
-0.0178862
-0.0180424
-0.0180423
-0.018043
-0.0180407
-0.0182187
-0.018048
-0.0180486
-0.0182413
-0.0182404
-0.0180413
-0.0182185
-0.0180482
-0.0180484
-0.0182414
-0.0182415
-0.0180485
-0.0182419
-0.0182418
-0.018041
-0.0182184
-0.018049
-0.0182397
-0.0182396
-0.0182187
-0.0181938
-0.0181277
-0.0181236
-0.0181245
-0.0181381
-0.0181312
-0.0181954
-0.018139
-0.0181256
-0.018125
-0.0181318
-0.0181363
-0.0181254
-0.0181427
-0.018135
-0.0181934
-0.018127
-0.0181255
-0.0181336
-0.0181355
-0.0181284
-0.0180027
-0.0173829
-0.0173732
-0.018031
-0.0173821
-0.0173868
-0.0166065
-0.0166541
-0.0166512
-0.0173872
-0.0180014
-0.0173801
-0.0163149
-0.0163945
-0.0163946
-0.0163945
-0.0163946
-0.0163146
-0.0163045
-0.0163146
-0.0163048
-0.0163149
-0.016315
-0.0163149
-0.016496
-0.0164285
-0.0164287
-0.0164961
-0.0164285
-0.0164961
-0.0164966
-0.0164284
-0.0164281
-0.0164964
-0.0164397
-0.0164399
-0.0164397
-0.0165755
-0.0165755
-0.0165755
-0.0165755
-0.016496
-0.0164288
-0.0164396
-0.016485
-0.0164287
-0.0164961
-0.0164851
-0.0164284
-0.0164964
-0.0164953
-0.0164399
-0.016429
-0.0164851
-0.0164295
-0.016485
-0.0164957
-0.0164283
-0.0164286
-0.0164964
-0.0164964
-0.0164959
-0.0166774
-0.0166098
-0.0166099
-0.0166774
-0.0166098
-0.0166774
-0.0166779
-0.0166096
-0.0166094
-0.0166776
-0.016621
-0.0166211
-0.0166211
-0.0167568
-0.0167568
-0.0167568
-0.0167568
-0.0166772
-0.01661
-0.0166209
-0.0166663
-0.01661
-0.0166773
-0.0166664
-0.0166097
-0.0166776
-0.0166766
-0.016621
-0.0166103
-0.0166664
-0.0166106
-0.0166664
-0.016677
-0.0166096
-0.0166099
-0.0166776
-0.0166776
-0.0166774
-0.0168589
-0.0167912
-0.0167912
-0.0168589
-0.0167911
-0.0168588
-0.0168593
-0.016791
-0.0167906
-0.016859
-0.0168025
-0.0168024
-0.0168024
-0.0169383
-0.0169383
-0.0169383
-0.0169383
-0.0168586
-0.0167913
-0.0168022
-0.0168478
-0.0167912
-0.0168587
-0.0168478
-0.016791
-0.0168589
-0.0168581
-0.0168023
-0.0167917
-0.0168477
-0.0167919
-0.0168478
-0.0168584
-0.0167909
-0.0167913
-0.0168591
-0.0168591
-0.0168587
-0.0170404
-0.0169727
-0.0169728
-0.0170404
-0.0169727
-0.0170404
-0.0170409
-0.0169726
-0.0169723
-0.0170406
-0.0169841
-0.0169841
-0.0169841
-0.0171199
-0.0171199
-0.0171198
-0.0171199
-0.0170402
-0.0169729
-0.0169837
-0.0170293
-0.0169728
-0.0170404
-0.0170296
-0.0169726
-0.0170406
-0.0170397
-0.0169838
-0.0169733
-0.0170294
-0.0169735
-0.0170295
-0.0170401
-0.0169725
-0.0169728
-0.0170407
-0.0170406
-0.0170405
-0.0172221
-0.0171544
-0.0171544
-0.0172221
-0.0171544
-0.0172221
-0.0172226
-0.0171542
-0.0171539
-0.0172223
-0.0171659
-0.0171659
-0.0171659
-0.0173013
-0.0173013
-0.0173013
-0.0173014
-0.0172219
-0.0171546
-0.0171652
-0.017211
-0.0171543
-0.0172221
-0.0172114
-0.0171542
-0.0172222
-0.0172212
-0.0171654
-0.017155
-0.017211
-0.017155
-0.0172114
-0.0172219
-0.0171542
-0.0171545
-0.0172226
-0.0172225
-0.017222
-0.0174037
-0.0173361
-0.0173361
-0.0174036
-0.0173361
-0.0174037
-0.0174042
-0.0173359
-0.0173356
-0.0174039
-0.0173478
-0.0173478
-0.0173479
-0.0174824
-0.0174823
-0.0174823
-0.0174823
-0.0174032
-0.0173364
-0.0173466
-0.0173927
-0.0173358
-0.0174037
-0.0173934
-0.017336
-0.0174038
-0.0174026
-0.0173468
-0.0173368
-0.0173927
-0.0173365
-0.0173932
-0.0174035
-0.0173359
-0.0173362
-0.0174043
-0.017404
-0.0174038
-0.0175851
-0.0175178
-0.0175176
-0.017585
-0.0175178
-0.0175849
-0.0175855
-0.0175176
-0.0175172
-0.0175851
-0.01753
-0.01753
-0.01753
-0.0176625
-0.0176624
-0.0176624
-0.0176624
-0.0175841
-0.0175183
-0.0175276
-0.0175746
-0.017517
-0.0175853
-0.0175755
-0.0175176
-0.0175851
-0.0175836
-0.0175279
-0.0175186
-0.0175745
-0.0175177
-0.0175752
-0.017585
-0.0175175
-0.0175179
-0.0175859
-0.0175854
-0.017585
-0.0177664
-0.0176995
-0.0176992
-0.0177661
-0.0176996
-0.0177661
-0.0177668
-0.0176993
-0.0176987
-0.0177663
-0.0177128
-0.0177128
-0.0177128
-0.0178417
-0.0178415
-0.0178416
-0.0178417
-0.0177644
-0.0177003
-0.0177079
-0.0177578
-0.0176973
-0.0177668
-0.0177582
-0.0176994
-0.0177663
-0.0177637
-0.0177084
-0.0177007
-0.0177576
-0.0176981
-0.0177578
-0.0177665
-0.0176993
-0.0176996
-0.0177679
-0.0177665
-0.0177664
-0.0179476
-0.0178817
-0.0178808
-0.0179471
-0.017882
-0.0179468
-0.017948
-0.0178816
-0.0178804
-0.0179473
-0.0178964
-0.0178963
-0.0178962
-0.0180197
-0.0180193
-0.0180196
-0.0180197
-0.0179431
-0.0178832
-0.0178864
-0.0179457
-0.0178764
-0.0179485
-0.0179439
-0.0178819
-0.017947
-0.0179423
-0.0178871
-0.0178836
-0.0179453
-0.0178773
-0.0179434
-0.0179482
-0.0178818
-0.0178821
-0.0179511
-0.0179476
-0.0179472
-0.0181288
-0.018064
-0.0180611
-0.0181279
-0.018065
-0.0181271
-0.0181292
-0.018064
-0.0180609
-0.0181283
-0.0180699
-0.0180697
-0.0180695
-0.0181802
-0.0181787
-0.0181796
-0.01818
-0.0181156
-0.0180668
-0.0180516
-0.0181442
-0.018049
-0.0181313
-0.0181368
-0.018065
-0.0181272
-0.0181145
-0.0180522
-0.0180671
-0.0181428
-0.0180498
-0.0181361
-0.0181309
-0.0180651
-0.0180653
-0.0181344
-0.0181279
-0.0181278
-0.0183267
-0.0182508
-0.0182374
-0.0183463
-0.0182565
-0.0183411
-0.0183281
-0.0182515
-0.0182373
-0.0183467
-0.0181124
-0.0181116
-0.018111
-0.0177995
-0.0177761
-0.0177986
-0.0177996
-0.0182497
-0.0182512
-0.0181058
-0.0182958
-0.0181916
-0.0183334
-0.0182815
-0.018257
-0.0183416
-0.0182457
-0.018102
-0.0182511
-0.0182945
-0.0181937
-0.0182808
-0.0183323
-0.0182549
-0.0182547
-0.0182596
-0.0183371
-0.0183362
-0.0188626
-0.0185664
-0.0184417
-0.0196928
-0.0186267
-0.019932
-0.0188614
-0.018567
-0.0184425
-0.0196937
-0.0143324
-0.0171984
-0.0172029
-0.0161439
-0.0170524
-0.0152161
-0.0152145
-0.0178794
-0.0184739
-0.0171269
-0.0167165
-0.018087
-0.0191776
-0.0159264
-0.0186269
-0.0199327
-0.0178715
-0.0171258
-0.0184719
-0.0166722
-0.0180889
-0.0159305
-0.0191786
-0.0185883
-0.0185883
-0.0170041
-0.0194646
-0.0194623
-0.0164055
-0.016338
-0.0164056
-0.0163377
-0.0163375
-0.0164055
-0.0164056
-0.0163379
-0.0163377
-0.016315
-0.0163031
-0.0163141
-0.0163381
-0.0164054
-0.0163382
-0.0164054
-0.016338
-0.0164054
-0.0163382
-0.0164054
-0.0163387
-0.0163485
-0.0164052
-0.0163949
-0.0163385
-0.0163482
-0.016405
-0.0163387
-0.0163487
-0.0164052
-0.0163948
-0.0163385
-0.0163482
-0.016405
-0.0163149
-0.0163149
-0.016315
-0.016315
-0.0164055
-0.016338
-0.0163376
-0.0164055
-0.0164057
-0.0163379
-0.0163377
-0.0164057
-0.0163378
-0.0163374
-0.0164057
-0.0163377
-0.0164059
-0.016338
-0.0163488
-0.0164053
-0.0163943
-0.016338
-0.0163487
-0.0164054
-0.0163374
-0.0164057
-0.0163377
-0.0164059
-0.0163379
-0.0163488
-0.0163943
-0.0164054
-0.0163487
-0.016338
-0.0164054
-0.0163152
-0.0163151
-0.0163146
-0.0163044
-0.0163046
-0.0163147
-0.0163152
-0.0163151
-0.0163379
-0.0163489
-0.0164054
-0.0163942
-0.016338
-0.0163489
-0.0164054
-0.0163374
-0.0164058
-0.0163377
-0.016406
-0.0163379
-0.016349
-0.0163943
-0.0164053
-0.016349
-0.016338
-0.0164054
-0.0163374
-0.0164057
-0.0163377
-0.016406
-0.0164057
-0.0163377
-0.0163375
-0.0164057
-0.0164055
-0.0163377
-0.016338
-0.0164054
-0.016338
-0.0163387
-0.0163486
-0.0163948
-0.0164051
-0.0163482
-0.0163385
-0.0164051
-0.0163387
-0.0163487
-0.0163948
-0.0164051
-0.0163482
-0.0163385
-0.016405
-0.0163381
-0.0164054
-0.0163382
-0.0164054
-0.0163381
-0.0164054
-0.0163382
-0.0164054
-0.016315
-0.0163149
-0.0163376
-0.0164056
-0.0164055
-0.0163377
-0.0163379
-0.0164056
-0.0163378
-0.0164054
-0.016338
-0.0164285
-0.0164961
-0.0164284
-0.0164963
-0.0164285
-0.0164283
-0.0164963
-0.0164961
-0.0164964
-0.0165868
-0.0165191
-0.0165869
-0.016519
-0.0165188
-0.0165868
-0.0165869
-0.0165191
-0.016519
-0.0164961
-0.0164285
-0.0164286
-0.0164961
-0.0164953
-0.016429
-0.0164399
-0.0164851
-0.0164295
-0.0164957
-0.0164851
-0.0164953
-0.016429
-0.0164399
-0.016485
-0.0164295
-0.0164957
-0.0164851
-0.0165191
-0.0165868
-0.0165191
-0.0165868
-0.0165191
-0.0165868
-0.0165191
-0.0165868
-0.0165199
-0.0165303
-0.0165863
-0.0165756
-0.0165195
-0.0165302
-0.016586
-0.0165199
-0.0165304
-0.0165864
-0.0165756
-0.0165195
-0.0165302
-0.016586
-0.0164285
-0.0164284
-0.0164964
-0.016496
-0.0164965
-0.0164284
-0.0164964
-0.0165868
-0.0165192
-0.0165189
-0.0165868
-0.0165869
-0.0165192
-0.016519
-0.0165869
-0.016519
-0.016496
-0.0164287
-0.0164398
-0.016485
-0.0164287
-0.0164961
-0.0164851
-0.0164966
-0.0164284
-0.0164281
-0.0164964
-0.016496
-0.0164398
-0.0164287
-0.016485
-0.0164287
-0.0164851
-0.0164961
-0.0165187
-0.016587
-0.016519
-0.0165873
-0.0165193
-0.0165303
-0.0165867
-0.0165756
-0.0165193
-0.0165302
-0.0165866
-0.0165187
-0.016587
-0.016519
-0.0165873
-0.0165193
-0.0165303
-0.0165756
-0.0165867
-0.0165302
-0.0165193
-0.0165867
-0.0164966
-0.0164284
-0.0164281
-0.0164964
-0.0164961
-0.0164396
-0.0164287
-0.0164851
-0.0164286
-0.0164851
-0.0164961
-0.0164966
-0.0164284
-0.0164281
-0.0164964
-0.0165193
-0.0165303
-0.0165866
-0.0165756
-0.0165193
-0.0165303
-0.0165867
-0.0165187
-0.0165869
-0.016519
-0.0165872
-0.0165193
-0.0165302
-0.0165756
-0.0165867
-0.0165302
-0.0165193
-0.0165867
-0.0165188
-0.016587
-0.016519
-0.0165872
-0.0164284
-0.0164285
-0.0164964
-0.0164964
-0.0164961
-0.0164285
-0.0164961
-0.016587
-0.0165191
-0.0165189
-0.016587
-0.0165867
-0.016519
-0.0165192
-0.0165868
-0.0165192
-0.0164953
-0.0164399
-0.016429
-0.016485
-0.0164294
-0.016485
-0.0164956
-0.0164961
-0.0164284
-0.0164286
-0.0164961
-0.0164961
-0.0164284
-0.0164286
-0.016496
-0.0165199
-0.0165304
-0.0165756
-0.0165864
-0.0165303
-0.0165196
-0.016586
-0.0165199
-0.0165305
-0.0165756
-0.0165864
-0.0165302
-0.0165195
-0.016586
-0.0165192
-0.0165868
-0.0165191
-0.0165868
-0.0165192
-0.0165868
-0.0165191
-0.0165868
-0.0164284
-0.0164963
-0.0164285
-0.016496
-0.0165189
-0.0165869
-0.0165869
-0.0165188
-0.0165192
-0.0165869
-0.016519
-0.0165869
-0.0165191
-0.0166098
-0.0166774
-0.0166097
-0.0166776
-0.0166098
-0.0166097
-0.0166777
-0.0166774
-0.0166776
-0.0167681
-0.0167005
-0.0167683
-0.0167003
-0.0167001
-0.0167681
-0.0167683
-0.0167004
-0.0167003
-0.0166774
-0.0166098
-0.0166098
-0.0166774
-0.0166767
-0.0166103
-0.016621
-0.0166664
-0.0166105
-0.016677
-0.0166664
-0.0166767
-0.0166103
-0.016621
-0.0166664
-0.0166105
-0.016677
-0.0166664
-0.0167005
-0.0167681
-0.0167005
-0.0167681
-0.0167004
-0.0167681
-0.0167004
-0.0167681
-0.0167012
-0.0167116
-0.0167677
-0.016757
-0.0167009
-0.0167115
-0.0167674
-0.0167012
-0.0167116
-0.0167677
-0.016757
-0.0167008
-0.0167115
-0.0167673
-0.0166098
-0.0166096
-0.0166777
-0.0166774
-0.0166776
-0.0166096
-0.0166775
-0.0167681
-0.0167004
-0.0167001
-0.0167681
-0.0167682
-0.0167004
-0.0167002
-0.0167682
-0.0167003
-0.0166773
-0.01661
-0.0166209
-0.0166663
-0.01661
-0.0166773
-0.0166663
-0.0166779
-0.0166097
-0.0166094
-0.0166776
-0.0166773
-0.016621
-0.01661
-0.0166663
-0.0166099
-0.0166664
-0.0166773
-0.0167001
-0.0167683
-0.0167003
-0.0167685
-0.0167006
-0.0167117
-0.016768
-0.0167569
-0.0167006
-0.0167114
-0.0167679
-0.0167001
-0.0167683
-0.0167003
-0.0167685
-0.0167006
-0.0167116
-0.016757
-0.016768
-0.0167115
-0.0167006
-0.0167679
-0.0166778
-0.0166096
-0.0166093
-0.0166776
-0.0166773
-0.016621
-0.0166099
-0.0166663
-0.0166099
-0.0166664
-0.0166773
-0.0166778
-0.0166096
-0.0166093
-0.0166776
-0.0167005
-0.0167116
-0.0167679
-0.0167569
-0.0167005
-0.0167114
-0.0167679
-0.0167
-0.0167682
-0.0167002
-0.0167685
-0.0167006
-0.0167115
-0.0167569
-0.0167679
-0.0167115
-0.0167005
-0.0167678
-0.0167
-0.0167682
-0.0167002
-0.0167685
-0.0166097
-0.0166098
-0.0166776
-0.0166777
-0.0166774
-0.0166098
-0.0166775
-0.0167682
-0.0167003
-0.0167001
-0.0167683
-0.0167681
-0.0167002
-0.0167005
-0.0167681
-0.0167005
-0.0166767
-0.016621
-0.0166103
-0.0166663
-0.0166105
-0.0166664
-0.016677
-0.0166774
-0.0166098
-0.0166098
-0.0166774
-0.0166774
-0.0166099
-0.0166098
-0.0166775
-0.0167012
-0.0167117
-0.016757
-0.0167677
-0.0167116
-0.0167009
-0.0167673
-0.0167012
-0.0167117
-0.0167569
-0.0167677
-0.0167115
-0.0167009
-0.0167673
-0.0167005
-0.0167681
-0.0167005
-0.0167681
-0.0167005
-0.0167681
-0.0167005
-0.0167681
-0.0166096
-0.0166775
-0.0166099
-0.0166774
-0.0167001
-0.0167682
-0.0167682
-0.0167002
-0.0167004
-0.0167682
-0.0167003
-0.0167681
-0.0167004
-0.0167912
-0.0168589
-0.016791
-0.0168589
-0.0167912
-0.016791
-0.0168592
-0.0168589
-0.016859
-0.0169497
-0.0168819
-0.0169498
-0.0168817
-0.0168814
-0.0169497
-0.0169498
-0.0168819
-0.0168817
-0.0168589
-0.0167912
-0.0167912
-0.0168588
-0.0168581
-0.0167916
-0.0168023
-0.0168478
-0.0167918
-0.0168585
-0.0168479
-0.0168581
-0.0167916
-0.0168023
-0.0168477
-0.0167919
-0.0168584
-0.0168479
-0.016882
-0.0169497
-0.0168819
-0.0169497
-0.016882
-0.0169496
-0.0168819
-0.0169496
-0.0168827
-0.0168931
-0.0169493
-0.0169386
-0.0168824
-0.0168929
-0.0169489
-0.0168826
-0.0168931
-0.0169492
-0.0169386
-0.0168824
-0.0168929
-0.0169489
-0.0167911
-0.0167909
-0.0168592
-0.0168587
-0.0168591
-0.0167909
-0.016859
-0.0169496
-0.0168819
-0.0168815
-0.0169497
-0.0169498
-0.0168819
-0.0168816
-0.0169497
-0.0168817
-0.0168587
-0.0167914
-0.0168023
-0.0168478
-0.0167912
-0.0168587
-0.0168479
-0.0168593
-0.0167909
-0.0167906
-0.016859
-0.0168587
-0.0168023
-0.0167913
-0.0168477
-0.0167912
-0.0168479
-0.0168588
-0.0168815
-0.0169498
-0.0168817
-0.0169501
-0.016882
-0.0168931
-0.0169495
-0.0169386
-0.016882
-0.0168929
-0.0169495
-0.0168815
-0.0169499
-0.0168817
-0.0169501
-0.016882
-0.016893
-0.0169385
-0.0169496
-0.0168929
-0.016882
-0.0169495
-0.0168592
-0.0167909
-0.0167907
-0.016859
-0.0168586
-0.0168022
-0.0167912
-0.0168477
-0.0167912
-0.0168479
-0.0168588
-0.0168592
-0.0167909
-0.0167907
-0.016859
-0.0168819
-0.0168931
-0.0169495
-0.0169386
-0.016882
-0.0168929
-0.0169494
-0.0168814
-0.0169498
-0.0168817
-0.0169501
-0.0168819
-0.0168929
-0.0169386
-0.0169496
-0.0168928
-0.016882
-0.0169495
-0.0168814
-0.0169498
-0.0168817
-0.0169501
-0.016791
-0.0167911
-0.0168591
-0.016859
-0.0168588
-0.0167911
-0.0168588
-0.0169498
-0.0168817
-0.0168814
-0.0169499
-0.0169496
-0.0168817
-0.0168819
-0.0169496
-0.0168819
-0.0168581
-0.0168023
-0.0167917
-0.0168476
-0.0167918
-0.0168478
-0.0168584
-0.0168588
-0.0167912
-0.0167911
-0.0168588
-0.0168588
-0.0167912
-0.0167911
-0.0168588
-0.0168827
-0.0168931
-0.0169385
-0.0169492
-0.0168929
-0.0168824
-0.0169489
-0.0168826
-0.0168932
-0.0169385
-0.0169493
-0.0168929
-0.0168824
-0.0169489
-0.0168819
-0.0169496
-0.0168819
-0.0169496
-0.0168819
-0.0169497
-0.0168819
-0.0169496
-0.0167909
-0.016859
-0.0167912
-0.0168588
-0.0168814
-0.0169498
-0.0169497
-0.0168815
-0.016882
-0.0169497
-0.0168817
-0.0169497
-0.0168819
-0.0169727
-0.0170404
-0.0169726
-0.0170406
-0.0169727
-0.0169726
-0.0170407
-0.0170405
-0.0170406
-0.0171312
-0.0170635
-0.0171314
-0.0170634
-0.0170627
-0.0171313
-0.0171314
-0.0170635
-0.0170634
-0.0170404
-0.0169727
-0.0169727
-0.0170404
-0.0170397
-0.0169732
-0.0169838
-0.0170293
-0.0169734
-0.0170401
-0.0170297
-0.0170397
-0.0169732
-0.0169838
-0.0170294
-0.0169734
-0.0170401
-0.0170297
-0.0170635
-0.0171312
-0.0170635
-0.0171313
-0.0170635
-0.0171313
-0.0170635
-0.0171313
-0.0170642
-0.0170747
-0.0171309
-0.0171204
-0.017064
-0.0170744
-0.0171304
-0.0170642
-0.0170748
-0.0171309
-0.0171204
-0.017064
-0.0170744
-0.0171304
-0.0169727
-0.0169725
-0.0170408
-0.0170405
-0.0170407
-0.0169725
-0.0170406
-0.0171313
-0.0170635
-0.0170628
-0.0171313
-0.0171314
-0.0170635
-0.0170634
-0.0171314
-0.0170634
-0.0170403
-0.016973
-0.0169837
-0.0170293
-0.0169727
-0.0170404
-0.0170296
-0.0170409
-0.0169726
-0.0169722
-0.0170406
-0.0170402
-0.0169838
-0.0169729
-0.0170294
-0.0169727
-0.0170296
-0.0170403
-0.0170631
-0.0171314
-0.0170634
-0.0171317
-0.0170635
-0.0170747
-0.0171311
-0.0171204
-0.0170637
-0.0170744
-0.017131
-0.0170631
-0.0171314
-0.0170633
-0.0171317
-0.0170635
-0.0170748
-0.0171203
-0.0171312
-0.0170744
-0.0170637
-0.017131
-0.0170409
-0.0169725
-0.0169722
-0.0170407
-0.0170402
-0.0169838
-0.0169729
-0.0170293
-0.0169727
-0.0170296
-0.0170404
-0.0170409
-0.0169725
-0.0169722
-0.0170406
-0.0170635
-0.0170748
-0.0171312
-0.0171205
-0.0170637
-0.0170745
-0.017131
-0.0170631
-0.0171314
-0.0170634
-0.0171317
-0.0170635
-0.0170747
-0.0171204
-0.0171311
-0.0170745
-0.0170637
-0.0171311
-0.0170631
-0.0171314
-0.0170633
-0.0171318
-0.0169726
-0.0169727
-0.0170408
-0.0170407
-0.0170404
-0.0169727
-0.0170404
-0.0171314
-0.0170634
-0.0170629
-0.0171315
-0.0171312
-0.0170633
-0.0170636
-0.0171313
-0.0170636
-0.0170397
-0.0169838
-0.0169733
-0.0170293
-0.0169735
-0.0170295
-0.0170401
-0.0170405
-0.0169727
-0.0169727
-0.0170405
-0.0170405
-0.0169728
-0.0169727
-0.0170405
-0.0170642
-0.0170748
-0.0171203
-0.0171309
-0.0170745
-0.017064
-0.0171305
-0.0170642
-0.0170748
-0.0171203
-0.0171309
-0.0170744
-0.0170641
-0.0171305
-0.0170636
-0.0171313
-0.0170636
-0.0171313
-0.0170636
-0.0171313
-0.0170636
-0.0171313
-0.0169725
-0.0170406
-0.0169728
-0.0170405
-0.0170628
-0.0171314
-0.0171314
-0.0170633
-0.0170636
-0.0171314
-0.0170634
-0.0171313
-0.0170636
-0.0171544
-0.0172221
-0.0171542
-0.0172222
-0.0171544
-0.0171542
-0.0172226
-0.0172222
-0.0172223
-0.0173129
-0.0172453
-0.0173131
-0.0172451
-0.017244
-0.017313
-0.0173131
-0.0172452
-0.0172451
-0.0172221
-0.0171544
-0.0171544
-0.0172221
-0.0172212
-0.017155
-0.0171653
-0.0172111
-0.017155
-0.0172218
-0.0172114
-0.0172212
-0.0171549
-0.0171653
-0.017211
-0.017155
-0.0172218
-0.0172115
-0.0172453
-0.0173129
-0.0172453
-0.017313
-0.0172453
-0.0173129
-0.0172453
-0.017313
-0.0172457
-0.0172564
-0.0173126
-0.0173023
-0.0172458
-0.0172559
-0.017312
-0.0172457
-0.0172564
-0.0173126
-0.0173023
-0.0172458
-0.0172559
-0.017312
-0.0171544
-0.0171542
-0.0172226
-0.017222
-0.0172225
-0.0171542
-0.0172223
-0.0173129
-0.0172453
-0.017244
-0.017313
-0.0173131
-0.0172452
-0.017245
-0.0173131
-0.0172451
-0.0172218
-0.0171546
-0.0171652
-0.017211
-0.0171543
-0.0172221
-0.0172114
-0.0172226
-0.0171542
-0.0171539
-0.0172223
-0.0172218
-0.0171653
-0.0171546
-0.0172109
-0.0171543
-0.0172114
-0.0172221
-0.0172448
-0.0173131
-0.017245
-0.0173134
-0.0172451
-0.0172564
-0.0173129
-0.0173023
-0.0172455
-0.0172558
-0.0173126
-0.0172448
-0.0173131
-0.017245
-0.0173134
-0.0172451
-0.0172564
-0.0173023
-0.0173129
-0.0172559
-0.0172455
-0.0173125
-0.0172226
-0.0171542
-0.0171539
-0.0172223
-0.0172219
-0.0171653
-0.0171546
-0.0172111
-0.0171544
-0.0172114
-0.0172222
-0.0172226
-0.0171542
-0.0171539
-0.0172223
-0.0172452
-0.0172564
-0.0173129
-0.0173023
-0.0172455
-0.0172558
-0.0173126
-0.0172448
-0.0173131
-0.0172451
-0.0173134
-0.0172451
-0.0172563
-0.0173023
-0.0173129
-0.0172559
-0.0172455
-0.0173126
-0.0172448
-0.0173131
-0.0172451
-0.0173134
-0.0171543
-0.0171544
-0.0172225
-0.0172224
-0.0172221
-0.0171543
-0.0172221
-0.0173131
-0.0172451
-0.0172441
-0.0173132
-0.0173129
-0.017245
-0.0172453
-0.0173129
-0.0172453
-0.0172212
-0.0171654
-0.017155
-0.0172109
-0.017155
-0.0172114
-0.0172218
-0.0172221
-0.0171544
-0.0171544
-0.0172221
-0.0172221
-0.0171544
-0.0171544
-0.0172221
-0.0172458
-0.0172565
-0.0173022
-0.0173126
-0.0172561
-0.0172459
-0.017312
-0.0172458
-0.0172567
-0.0173022
-0.0173126
-0.0172561
-0.0172458
-0.017312
-0.0172452
-0.0173129
-0.0172453
-0.017313
-0.0172452
-0.0173129
-0.0172452
-0.017313
-0.0171542
-0.0172223
-0.0171544
-0.0172221
-0.0172442
-0.0173131
-0.017313
-0.017245
-0.0172454
-0.0173131
-0.0172451
-0.017313
-0.0172452
-0.0173361
-0.0174037
-0.017336
-0.0174038
-0.0173361
-0.017336
-0.0174043
-0.0174038
-0.0174039
-0.0174944
-0.0174269
-0.0174945
-0.0174268
-0.0174247
-0.0174945
-0.0174946
-0.0174269
-0.0174268
-0.0174037
-0.0173361
-0.0173361
-0.0174037
-0.0174026
-0.0173368
-0.0173467
-0.0173928
-0.0173365
-0.0174034
-0.0173934
-0.0174027
-0.0173367
-0.0173467
-0.0173927
-0.0173365
-0.0174035
-0.0173934
-0.0174268
-0.0174944
-0.0174269
-0.0174944
-0.0174269
-0.0174944
-0.017427
-0.0174944
-0.0174271
-0.0174379
-0.0174942
-0.0174843
-0.0174277
-0.0174372
-0.0174932
-0.0174271
-0.0174379
-0.0174942
-0.0174843
-0.0174277
-0.0174372
-0.0174932
-0.0173361
-0.0173359
-0.0174043
-0.0174038
-0.017404
-0.017336
-0.0174039
-0.0174944
-0.017427
-0.0174247
-0.0174946
-0.0174947
-0.017427
-0.0174268
-0.0174946
-0.0174268
-0.0174032
-0.0173364
-0.0173466
-0.0173927
-0.0173358
-0.0174037
-0.0173934
-0.0174042
-0.0173359
-0.0173356
-0.0174039
-0.0174033
-0.0173467
-0.0173364
-0.0173926
-0.0173358
-0.0173933
-0.0174038
-0.0174264
-0.0174945
-0.0174268
-0.0174949
-0.0174264
-0.0174379
-0.0174945
-0.0174843
-0.0174273
-0.0174371
-0.0174938
-0.0174264
-0.0174945
-0.0174267
-0.0174949
-0.0174264
-0.0174379
-0.0174842
-0.0174945
-0.0174371
-0.0174273
-0.0174938
-0.0174042
-0.0173359
-0.0173356
-0.0174039
-0.0174033
-0.0173467
-0.0173365
-0.0173926
-0.0173358
-0.0173933
-0.0174038
-0.0174042
-0.0173359
-0.0173356
-0.0174039
-0.0174264
-0.0174379
-0.0174945
-0.0174843
-0.0174274
-0.0174371
-0.0174938
-0.0174264
-0.0174946
-0.0174268
-0.017495
-0.0174264
-0.0174379
-0.0174842
-0.0174945
-0.0174371
-0.0174273
-0.0174939
-0.0174264
-0.0174945
-0.0174268
-0.017495
-0.017336
-0.0173361
-0.0174042
-0.017404
-0.0174037
-0.0173361
-0.0174037
-0.0174945
-0.0174268
-0.0174248
-0.0174947
-0.0174944
-0.0174267
-0.017427
-0.0174943
-0.017427
-0.0174026
-0.0173468
-0.0173368
-0.0173926
-0.0173365
-0.0173933
-0.0174035
-0.0174037
-0.0173361
-0.017336
-0.0174037
-0.0174037
-0.0173361
-0.0173361
-0.0174037
-0.0174272
-0.017438
-0.0174841
-0.0174942
-0.0174373
-0.0174277
-0.0174932
-0.0174271
-0.017438
-0.0174841
-0.0174942
-0.0174373
-0.0174277
-0.0174932
-0.0174269
-0.0174943
-0.017427
-0.0174945
-0.0174269
-0.0174943
-0.017427
-0.0174944
-0.017336
-0.0174039
-0.0173361
-0.0174037
-0.0174249
-0.0174946
-0.0174946
-0.0174268
-0.017427
-0.0174945
-0.0174268
-0.0174944
-0.017427
-0.0175178
-0.017585
-0.0175176
-0.0175851
-0.0175178
-0.0175176
-0.017586
-0.0175852
-0.0175853
-0.0176756
-0.0176086
-0.0176757
-0.0176084
-0.0176043
-0.0176758
-0.0176759
-0.0176086
-0.0176084
-0.0175851
-0.0175178
-0.0175176
-0.0175849
-0.0175836
-0.0175186
-0.0175278
-0.0175747
-0.0175176
-0.017585
-0.0175754
-0.0175837
-0.0175186
-0.0175278
-0.0175747
-0.0175175
-0.0175849
-0.0175754
-0.0176084
-0.0176756
-0.0176086
-0.0176757
-0.0176083
-0.0176756
-0.0176085
-0.0176757
-0.0176079
-0.0176187
-0.0176757
-0.0176664
-0.0176095
-0.017618
-0.0176738
-0.017608
-0.0176188
-0.0176757
-0.0176664
-0.0176095
-0.017618
-0.0176738
-0.0175178
-0.0175176
-0.017586
-0.0175849
-0.0175855
-0.0175176
-0.0175852
-0.0176756
-0.0176085
-0.0176044
-0.0176758
-0.0176759
-0.0176085
-0.0176084
-0.0176757
-0.0176084
-0.0175841
-0.0175183
-0.0175276
-0.0175747
-0.0175169
-0.0175852
-0.0175755
-0.0175855
-0.0175176
-0.0175171
-0.0175851
-0.0175842
-0.0175277
-0.0175182
-0.0175745
-0.0175169
-0.0175754
-0.0175852
-0.0176079
-0.0176757
-0.0176084
-0.0176761
-0.0176072
-0.0176188
-0.0176759
-0.0176665
-0.0176092
-0.0176178
-0.0176744
-0.0176079
-0.0176757
-0.0176084
-0.0176762
-0.0176073
-0.0176188
-0.0176664
-0.0176759
-0.0176179
-0.0176092
-0.0176744
-0.0175855
-0.0175176
-0.0175171
-0.0175852
-0.0175841
-0.0175278
-0.0175183
-0.0175746
-0.0175169
-0.0175754
-0.0175852
-0.0175855
-0.0175176
-0.0175172
-0.0175851
-0.0176072
-0.0176188
-0.0176759
-0.0176665
-0.0176092
-0.0176178
-0.0176744
-0.0176079
-0.0176757
-0.0176084
-0.0176761
-0.0176072
-0.0176187
-0.0176664
-0.0176759
-0.0176179
-0.0176091
-0.0176744
-0.0176079
-0.0176757
-0.0176083
-0.0176761
-0.0175176
-0.0175177
-0.0175859
-0.0175854
-0.0175851
-0.0175177
-0.017585
-0.0176757
-0.0176084
-0.0176046
-0.0176759
-0.0176758
-0.0176084
-0.0176086
-0.0176756
-0.0176086
-0.0175836
-0.017528
-0.0175187
-0.0175744
-0.0175177
-0.0175752
-0.0175849
-0.017585
-0.0175177
-0.0175176
-0.0175849
-0.0175851
-0.0175178
-0.0175176
-0.017585
-0.017608
-0.0176189
-0.0176662
-0.0176757
-0.0176182
-0.0176095
-0.0176737
-0.017608
-0.017619
-0.0176661
-0.0176756
-0.0176182
-0.0176096
-0.0176738
-0.0176084
-0.0176756
-0.0176086
-0.0176757
-0.0176084
-0.0176755
-0.0176085
-0.0176757
-0.0175176
-0.0175851
-0.0175178
-0.0175849
-0.0176045
-0.0176759
-0.0176758
-0.0176083
-0.0176087
-0.0176757
-0.0176084
-0.0176756
-0.0176086
-0.0176995
-0.0177661
-0.0176994
-0.0177663
-0.0176995
-0.0176994
-0.0177681
-0.0177664
-0.0177666
-0.0178566
-0.0177906
-0.0178568
-0.0177905
-0.0177821
-0.017857
-0.0178572
-0.0177906
-0.0177905
-0.0177664
-0.0176995
-0.0176991
-0.0177661
-0.0177638
-0.0177007
-0.0177082
-0.0177579
-0.017698
-0.0177665
-0.0177581
-0.0177638
-0.0177007
-0.0177082
-0.0177577
-0.017698
-0.0177665
-0.017758
-0.01779
-0.0178567
-0.0177905
-0.0178571
-0.01779
-0.0178567
-0.0177905
-0.0178571
-0.0177879
-0.0177978
-0.0178574
-0.0178502
-0.0177919
-0.0177979
-0.0178535
-0.0177879
-0.017798
-0.0178575
-0.0178501
-0.017792
-0.0177979
-0.0178535
-0.0176996
-0.0176994
-0.017768
-0.0177664
-0.0177666
-0.0176994
-0.0177663
-0.0178566
-0.0177906
-0.0177822
-0.0178571
-0.0178572
-0.0177906
-0.0177905
-0.0178568
-0.0177905
-0.0177645
-0.0177003
-0.0177078
-0.0177578
-0.0176973
-0.0177667
-0.0177583
-0.0177668
-0.0176993
-0.0176987
-0.0177663
-0.0177645
-0.0177081
-0.0177003
-0.0177577
-0.0176974
-0.0177581
-0.0177667
-0.0177896
-0.0178569
-0.0177903
-0.0178575
-0.0177872
-0.0177978
-0.0178576
-0.0178505
-0.0177916
-0.0177975
-0.0178542
-0.0177895
-0.0178569
-0.0177903
-0.0178575
-0.0177872
-0.017798
-0.0178502
-0.0178576
-0.0177978
-0.0177916
-0.0178542
-0.0177668
-0.0176992
-0.0176986
-0.0177663
-0.0177644
-0.0177081
-0.0177003
-0.0177577
-0.0176972
-0.017758
-0.0177667
-0.0177668
-0.0176993
-0.0176986
-0.0177663
-0.0177872
-0.0177979
-0.0178576
-0.0178504
-0.0177916
-0.0177976
-0.0178541
-0.0177895
-0.0178569
-0.0177903
-0.0178575
-0.0177872
-0.017798
-0.0178502
-0.0178576
-0.0177978
-0.0177915
-0.0178541
-0.0177895
-0.0178569
-0.0177903
-0.0178575
-0.0176994
-0.0176995
-0.0177679
-0.0177666
-0.0177663
-0.0176995
-0.0177661
-0.0178568
-0.0177905
-0.0177824
-0.0178572
-0.017857
-0.0177905
-0.0177906
-0.0178566
-0.0177906
-0.0177637
-0.0177084
-0.0177007
-0.0177575
-0.0176981
-0.0177577
-0.0177665
-0.0177664
-0.0176995
-0.017699
-0.0177661
-0.0177664
-0.0176995
-0.017699
-0.0177661
-0.017788
-0.0177982
-0.0178499
-0.0178574
-0.0177982
-0.0177919
-0.0178535
-0.017788
-0.0177982
-0.0178499
-0.0178575
-0.0177982
-0.017792
-0.0178535
-0.01779
-0.0178567
-0.0177905
-0.0178571
-0.01779
-0.0178567
-0.0177905
-0.0178571
-0.0176993
-0.0177662
-0.0176995
-0.0177661
-0.0177824
-0.0178571
-0.017857
-0.0177905
-0.0177907
-0.0178568
-0.0177905
-0.0178566
-0.0177906
-0.0178819
-0.0179469
-0.0178818
-0.017947
-0.017882
-0.0178819
-0.0179512
-0.0179474
-0.0179475
-0.0180367
-0.0179734
-0.0180368
-0.0179733
-0.017956
-0.0180373
-0.0180375
-0.0179735
-0.0179733
-0.0179476
-0.0178817
-0.0178808
-0.017947
-0.0179424