/*--------------------------------*- C++ -*----------------------------------*\
| =========                 |                                                 |
| \\      /  F ield         | OpenFOAM: The Open Source CFD Toolbox           |
|  \\    /   O peration     | Version:  2206                                  |
|   \\  /    A nd           | Website:  www.openfoam.com                      |
|    \\/     M anipulation  |                                                 |
\*---------------------------------------------------------------------------*/
FoamFile
{
    version     2.0;
    format      ascii;
    arch        "LSB;label=32;scalar=64";
    class       surfaceScalarField;
    location    "100";
    object      phi;
}
// * * * * * * * * * * * * * * * * * * * * * * * * * * * * * * * * * * * * * //

dimensions      [0 3 -1 0 0 0 0];

oriented        oriented;

internalField   nonuniform List<scalar> 
199822
(
-4.77593e-12
-2.40257e-12
-1.2299e-07
2.72464e-12
4.28034e-12
1.2299e-07
-1.14829e-07
-3.34697e-11
2.4116e-12
-1.98027e-12
1.14825e-07
3.63697e-11
3.47811e-11
-3.18238e-11
-6.30866e-11
6.09467e-11
6.37766e-11
-6.39788e-11
-1.15965e-07
-3.90046e-11
5.2075e-12
-4.46016e-12
1.15965e-07
2.33028e-11
3.95296e-11
-2.38761e-11
-7.86738e-12
3.15708e-11
8.36857e-12
-3.33014e-11
-2.76523e-08
-1.27834e-10
1.79546e-10
-7.18144e-11
1.7185e-10
2.75006e-08
-5.67192e-12
-6.10426e-12
-1.2299e-07
5.61921e-12
5.8002e-12
1.2299e-07
-1.14822e-07
-3.33615e-11
4.7585e-12
-5.86905e-12
1.14821e-07
3.62607e-11
3.49579e-11
-3.55274e-11
-6.33196e-11
6.10782e-11
6.3804e-11
-6.19897e-11
-1.15963e-07
-3.86503e-11
8.25564e-12
-5.55138e-12
1.15961e-07
2.35919e-11
3.97175e-11
-2.36281e-11
-8.32498e-12
3.17265e-11
7.89846e-12
-3.31654e-11
-2.76518e-08
4.58943e-11
1.88613e-11
6.57452e-11
2.21158e-11
2.74992e-08
-1.2036e-11
-9.52142e-12
-1.22988e-07
9.74521e-12
1.04126e-11
1.2299e-07
-1.1482e-07
-3.35664e-11
8.12171e-12
-8.66978e-12
1.1482e-07
3.62451e-11
3.51109e-11
-3.18764e-11
-6.39698e-11
6.04511e-11
6.32045e-11
-6.45012e-11
-1.1596e-07
-3.83582e-11
1.54534e-11
-1.14302e-11
1.15959e-07
2.36001e-11
3.99266e-11
-2.35014e-11
-9.15122e-12
3.10129e-11
7.363e-12
-3.3947e-11
-2.76511e-08
-1.28299e-10
1.79348e-10
-7.18704e-11
1.7245e-10
2.74995e-08
-2.05151e-11
-1.81649e-11
-1.2299e-07
1.83731e-11
1.80364e-11
1.22992e-07
-1.14826e-07
-3.36223e-11
1.78069e-11
-1.52274e-11
1.14828e-07
3.60858e-11
3.49058e-11
-3.53604e-11
-6.53398e-11
5.96809e-11
6.26195e-11
-6.35353e-11
-1.15957e-07
-3.8253e-11
2.42747e-11
-1.82222e-11
1.15957e-07
2.40864e-11
4.01123e-11
-2.34595e-11
-1.03301e-11
3.00841e-11
6.42818e-12
-3.52107e-11
-2.76513e-08
4.53734e-11
1.84409e-11
6.58619e-11
2.25973e-11
2.7499e-08
-3.63983e-11
-3.19252e-11
-1.22996e-07
3.42794e-11
3.41338e-11
1.22996e-07
-1.14827e-07
-3.29572e-11
2.92811e-11
-2.60604e-11
1.1483e-07
3.685e-11
3.55315e-11
-3.09674e-11
-6.67651e-11
5.81453e-11
6.16076e-11
-6.77692e-11
-1.15959e-07
-3.80282e-11
4.0866e-11
-3.34299e-11
1.15962e-07
2.42912e-11
4.0379e-11
-2.28057e-11
-1.2114e-11
2.90889e-11
5.46896e-12
-3.67497e-11
-2.765e-08
-1.28847e-10
1.78492e-10
-7.15631e-11
1.72817e-10
2.74991e-08
-6.1052e-11
-5.56053e-11
-1.22998e-07
6.19176e-11
6.24352e-11
1.2299e-07
-1.14826e-07
-3.16812e-11
5.2597e-11
-4.68923e-11
1.14834e-07
3.8311e-11
3.64822e-11
-3.34119e-11
-7.04859e-11
5.65425e-11
5.92798e-11
-6.87481e-11
-1.1596e-07
-3.73141e-11
6.88133e-11
-5.59277e-11
1.15966e-07
2.5507e-11
4.08897e-11
-2.1868e-11
-1.59008e-11
2.69449e-11
3.41981e-12
-4.05431e-11
-2.76497e-08
4.3788e-11
1.73011e-11
6.62785e-11
2.37994e-11
2.74985e-08
-1.02732e-10
-9.25742e-11
-1.23005e-07
1.10135e-10
1.11651e-10
1.22979e-07
-1.14817e-07
-2.9805e-11
8.78427e-11
-8.21352e-11
1.14838e-07
4.06403e-11
3.81602e-11
-2.77663e-11
-7.75202e-11
5.22843e-11
5.48946e-11
-7.74159e-11
-1.15958e-07
-3.53214e-11
1.14764e-10
-1.00657e-10
1.15978e-07
2.76678e-11
4.23453e-11
-1.9912e-11
-2.26376e-11
2.24273e-11
-1.16401e-12
-4.74621e-11
-2.76488e-08
-1.31604e-10
1.75977e-10
-7.01489e-11
1.74579e-10
2.75e-08
-1.61708e-10
-1.42362e-10
-1.23021e-07
1.82784e-10
1.91457e-10
1.22951e-07
-1.14795e-07
-2.76377e-11
1.35269e-10
-1.5209e-10
1.14866e-07
4.39027e-11
4.22155e-11
-2.65454e-11
-8.80988e-11
4.30342e-11
4.56308e-11
-8.60727e-11
-1.15943e-07
-3.3415e-11
1.81025e-10
-1.79425e-10
1.16005e-07
3.09819e-11
4.59172e-11
-1.55425e-11
-3.4496e-11
1.32117e-11
-1.10419e-11
-5.87959e-11
-2.76454e-08
3.99443e-11
1.36464e-11
6.74987e-11
2.54985e-11
2.74988e-08
-2.12896e-10
-1.77433e-10
-1.2305e-07
2.54774e-10
2.7899e-10
1.22907e-07
-1.14733e-07
-2.79154e-11
1.63786e-10
-2.7855e-10
1.14951e-07
4.55774e-11
5.45952e-11
-9.86571e-12
-1.0386e-10
2.19354e-11
2.23947e-11
-1.0653e-10
-1.15891e-07
-3.42804e-11
2.43798e-10
-3.25807e-10
1.16093e-07
3.27103e-11
5.69842e-11
-3.37813e-12
-5.10649e-11
-8.70765e-12
-3.5295e-11
-7.73194e-11
-2.76393e-08
-1.32227e-10
1.74592e-10
-7.39993e-11
1.69978e-10
2.75009e-08
-9.27879e-11
-3.52875e-11
-1.23025e-07
1.04884e-10
1.55777e-10
1.22892e-07
-1.14531e-07
-4.86509e-11
9.90658e-12
-4.72789e-10
1.15214e-07
2.80718e-11
9.43491e-11
2.28656e-11
-1.12304e-10
-3.29563e-11
-4.27884e-11
-1.28611e-10
-1.15704e-07
-5.53435e-11
1.38431e-10
-5.3639e-10
1.16349e-07
1.57472e-11
9.46726e-11
3.1677e-11
-6.22444e-11
-6.53516e-11
-1.0233e-10
-1.04026e-10
-2.76245e-08
6.31881e-11
3.71266e-11
3.15626e-11
-6.20529e-12
2.74988e-08
3.16195e-10
1.27649e-09
-1.22227e-07
-1.27194e-09
-1.55751e-09
1.23463e-07
-1.13759e-07
-1.3194e-10
-1.34445e-09
-5.58684e-10
1.15723e-07
-4.19709e-11
3.11451e-10
1.82864e-10
3.53773e-11
-1.33245e-10
-1.9619e-10
-8.72453e-11
-1.14953e-07
-1.37803e-10
-3.07311e-10
2.77109e-10
1.16546e-07
-5.02491e-11
3.02708e-10
1.08063e-10
-3.68811e-10
-3.02092e-10
-7.43963e-10
-3.70119e-10
-2.75865e-08
-2.03866e-11
2.79754e-10
-1.96642e-10
4.60441e-11
2.74778e-08
8.7544e-10
9.8218e-10
-1.33661e-07
-9.69861e-09
-9.81136e-09
3.16417e-08
3.14188e-08
3.1648e-08
3.16558e-08
2.0984e-09
5.74321e-09
4.65993e-09
2.14183e-09
5.68994e-09
4.61453e-09
-2.74155e-08
-3.28713e-09
-1.37907e-10
-3.58125e-09
1.96974e-09
3.24521e-08
-2.6229e-08
-9.75493e-10
-2.81416e-09
1.12833e-09
-3.1513e-09
3.20416e-08
-2.75769e-08
2.81944e-09
2.82147e-09
-2.95926e-09
-2.65143e-09
2.75468e-08
-3.11994e-11
-3.4861e-11
2.76383e-08
-2.74862e-08
-4.37556e-11
-4.2378e-11
1.17062e-07
-3.15811e-12
-1.17062e-07
1.73878e-12
-3.00587e-11
-1.96614e-11
1.89873e-11
-1.51773e-11
-3.10175e-11
3.10105e-11
1.68018e-11
3.06605e-11
1.17076e-07
-2.65303e-12
-1.17077e-07
2.16504e-12
-3.03337e-11
-2.07683e-11
1.98114e-11
-1.50386e-11
-3.10982e-11
3.12063e-11
1.64369e-11
-3.50622e-11
2.7635e-08
-2.74826e-08
-4.35726e-11
-4.30773e-11
1.14868e-07
-5.67325e-12
-1.14869e-07
8.92424e-13
-3.35433e-11
-3.5398e-11
3.61672e-11
6.43278e-11
-6.00886e-11
6.1312e-11
-6.22455e-11
2.3915e-11
1.15904e-07
-3.9812e-12
-1.15906e-07
1.90259e-12
-2.30124e-11
-3.31566e-11
3.63536e-11
4.4207e-11
-5.96641e-11
5.77177e-11
-4.22972e-11
-3.88108e-12
-1.14832e-07
2.73647e-12
-3.38343e-11
-3.55496e-11
3.58574e-11
6.44661e-11
-6.06649e-11
-6.24051e-11
6.1479e-11
4.70531e-11
1.15881e-07
4.94208e-11
-1.15933e-07
-2.5296e-11
-2.13104e-11
-3.21901e-11
3.22716e-11
4.39662e-11
-5.9113e-11
6.04434e-11
-4.33174e-11
-3.94701e-11
2.76374e-08
-2.74865e-08
-5.10138e-11
-3.64423e-11
-4.27508e-12
-1.15964e-07
1.79206e-12
-3.92263e-11
-2.36689e-11
1.96939e-11
9.44151e-12
-3.22795e-11
-7.09046e-12
3.5603e-11
1.89594e-11
1.16087e-07
-7.35479e-11
-1.1603e-07
3.506e-11
-4.0998e-11
-2.3461e-11
2.36801e-11
9.21654e-12
-3.25623e-11
3.24475e-11
-6.70602e-12
-2.75e-08
-6.54138e-11
-2.0951e-11
3.04162e-11
3.34869e-11
4.4672e-11
4.38851e-11
2.74859e-08
-3.09058e-11
-3.44888e-11
2.76365e-08
-2.74845e-08
-4.4002e-11
-4.25878e-11
-1.79149e-12
1.17062e-07
1.85331e-11
3.08901e-11
-1.9752e-11
1.54224e-11
3.0061e-11
-1.65452e-11
-3.18286e-11
-3.03376e-11
5.60591e-12
-1.64475e-12
1.17077e-07
1.94713e-11
3.0594e-11
-2.41128e-11
1.57695e-11
2.96218e-11
-1.65463e-11
-2.93288e-11
1.17062e-07
-5.83655e-12
-1.17062e-07
4.88089e-12
-3.05368e-11
-1.98174e-11
1.86629e-11
-1.58798e-11
-3.03034e-11
3.06111e-11
1.72749e-11
3.10385e-11
1.17076e-07
-5.82947e-12
-1.17076e-07
5.77023e-12
-3.01443e-11
-2.05895e-11
1.93522e-11
-1.59522e-11
-3.06894e-11
3.01683e-11
1.66875e-11
4.47483e-11
4.41612e-11
2.74823e-08
-3.49267e-11
2.76347e-08
-2.74821e-08
-4.37733e-11
-4.28342e-11
-3.18515e-12
1.14868e-07
3.60179e-11
3.45264e-11
-3.57482e-11
-6.29809e-11
6.06686e-11
6.35777e-11
-6.13083e-11
-2.27708e-11
4.03568e-12
-1.35739e-12
1.15902e-07
3.27316e-11
2.37857e-11
-3.31043e-11
-4.36715e-11
5.9853e-11
4.36626e-11
-6.07437e-11
1.14864e-07
-6.59604e-12
-1.14866e-07
3.37284e-12
-3.35919e-11
-3.57197e-11
3.58061e-11
6.43808e-11
-6.01509e-11
6.12076e-11
-6.18913e-11
2.41797e-11
1.15898e-07
-6.09161e-12
-1.15901e-07
3.52946e-12
-2.28314e-11
-3.29038e-11
3.6712e-11
4.41547e-11
-5.9396e-11
5.79648e-11
-4.2406e-11
4.82331e-10
-1.45634e-10
1.15108e-07
8.06754e-11
1.95281e-10
6.24537e-11
-4.61793e-11
5.98436e-11
-8.77321e-11
4.45597e-11
-6.94062e-12
-1.14823e-07
1.38654e-12
-3.35763e-11
-3.53835e-11
3.64517e-11
6.42949e-11
-6.00523e-11
-6.21109e-11
6.1576e-11
-1.26468e-10
1.15876e-07
-4.85617e-10
-1.15107e-07
1.47075e-10
-1.93863e-10
-8.07672e-11
-5.95242e-11
4.74196e-11
-5.93624e-11
8.55103e-11
-4.33195e-11
5.1818e-11
3.7656e-11
2.74861e-08
-3.94172e-11
2.76355e-08
-2.74849e-08
-5.09152e-11
-3.608e-11
-5.72279e-10
1.75455e-10
1.16906e-07
-2.28765e-11
-1.25727e-10
-1.22421e-10
-4.81407e-12
3.09703e-11
-3.8191e-12
6.35544e-12
-7.20313e-12
-1.15963e-07
7.06231e-12
-3.91602e-11
-2.37026e-11
1.94445e-11
8.51462e-12
-3.17829e-11
-7.14768e-12
3.46914e-11
1.79968e-10
1.16092e-07
5.70256e-10
-1.16907e-07
-1.74749e-10
1.2589e-10
2.31433e-11
1.18757e-10
4.68928e-12
-3.11766e-11
4.85716e-12
-5.88227e-12
-2.75002e-08
7.19554e-11
-1.70147e-10
3.02299e-11
3.34697e-11
4.45752e-11
4.38184e-11
2.74844e-08
-3.12326e-11
-3.46487e-11
2.76366e-08
-2.74845e-08
-4.3637e-11
-4.26089e-11
-4.84518e-12
1.17063e-07
1.88666e-11
3.14349e-11
-1.89694e-11
1.57574e-11
3.02635e-11
-1.65136e-11
-3.21367e-11
-2.98079e-11
8.1643e-12
-4.31361e-12
1.17075e-07
1.97495e-11
3.11698e-11
-2.03679e-11
1.53109e-11
2.95425e-11
-1.67805e-11
-3.24023e-11
1.17063e-07
-9.18269e-12
-1.17063e-07
8.82155e-12
-3.05186e-11
-1.94451e-11
1.86277e-11
-1.61028e-11
-3.04686e-11
3.0404e-11
1.71061e-11
3.08186e-11
1.17078e-07
-1.04002e-11
-1.17077e-07
9.17612e-12
-3.0372e-11
-2.07382e-11
1.94082e-11
-1.57496e-11
-3.05315e-11
3.07116e-11
1.71659e-11
4.47893e-11
4.44527e-11
2.74822e-08
-3.49275e-11
2.76343e-08
-2.7482e-08
-4.34513e-11
-4.3091e-11
-5.34578e-12
1.14863e-07
3.61038e-11
3.47618e-11
-3.55801e-11
-6.35497e-11
6.06667e-11
6.34574e-11
-6.13825e-11
-2.27236e-11
6.21668e-12
-3.80823e-12
1.15896e-07
3.2726e-11
2.39617e-11
-3.31533e-11
-4.37156e-11
5.97977e-11
4.35123e-11
-6.06603e-11
1.14861e-07
-1.11024e-11
-1.14862e-07
7.04534e-12
-3.3803e-11
-3.59564e-11
3.56637e-11
6.45564e-11
-5.99694e-11
6.13529e-11
-6.15904e-11
2.43298e-11
1.15896e-07
-1.12226e-11
-1.15897e-07
5.42952e-12
-2.28918e-11
-3.30329e-11
3.64465e-11
4.45084e-11
-5.90442e-11
5.79012e-11
-4.20122e-11
-4.77802e-11
2.25046e-11
1.15926e-07
3.13935e-11
2.26222e-11
-3.26486e-11
-4.36373e-11
5.92687e-11
-6.09305e-11
4.42522e-11
-1.06274e-11
-1.14821e-07
6.26437e-12
-3.36748e-11
-3.60675e-11
3.54566e-11
6.43928e-11
-5.99166e-11
-6.20242e-11
6.15475e-11
4.74101e-11
1.15874e-07
4.26279e-11
-1.15926e-07
-2.14379e-11
-2.08048e-11
-3.26342e-11
3.16083e-11
4.45982e-11
-5.82881e-11
6.0785e-11
-4.24274e-11
5.17071e-11
3.77304e-11
2.74847e-08
-3.9531e-11
2.76344e-08
-2.74836e-08
-5.07049e-11
-3.61985e-11
7.87846e-11
-3.91892e-11
1.16031e-07
2.37665e-11
4.16645e-11
-2.30963e-11
-8.17196e-12
3.20471e-11
-3.34698e-11
7.06767e-12
-1.06463e-11
-1.15959e-07
9.1982e-12
-3.92351e-11
-2.41933e-11
1.94139e-11
8.57541e-12
-3.1518e-11
-6.63363e-12
3.48618e-11
1.88541e-11
1.16091e-07
-8.23322e-11
-1.16032e-07
4.24485e-11
-4.14955e-11
-2.34045e-11
2.33166e-11
8.80491e-12
-3.19507e-11
3.25581e-11
-5.74575e-12
-2.74989e-08
-6.56737e-11
-2.02589e-11
2.98654e-11
3.31906e-11
4.49584e-11
4.37189e-11
2.74849e-08
-3.07595e-11
-3.41586e-11
2.76377e-08
-2.74861e-08
-4.38902e-11
-4.27583e-11
-8.97888e-12
1.17063e-07
1.935e-11
3.16573e-11
-1.86527e-11
1.48026e-11
2.92716e-11
-1.71614e-11
-3.27872e-11
-3.00272e-11
1.3414e-11
-9.01858e-12
1.1708e-07
1.97672e-11
3.13666e-11
-2.40353e-11
1.48701e-11
2.90132e-11
-1.71489e-11
-3.03427e-11
1.17062e-07
-1.54331e-11
-1.17063e-07
1.44009e-11
-3.05363e-11
-2.00676e-11
1.82201e-11
-1.54993e-11
-2.99238e-11
3.09264e-11
1.81917e-11
3.03602e-11
1.1708e-07
-1.68844e-11
-1.1708e-07
1.5859e-11
-3.08467e-11
-2.15457e-11
1.87978e-11
-1.56202e-11
-2.97089e-11
3.11299e-11
1.80717e-11
4.46566e-11
4.42777e-11
2.74818e-08
-3.43694e-11
2.76339e-08
-2.74819e-08
-4.3945e-11
-4.32762e-11
-8.51475e-12
1.14862e-07
3.59342e-11
3.49864e-11
-3.53612e-11
-6.425e-11
5.98621e-11
6.29115e-11
-6.21401e-11
-2.25546e-11
9.94624e-12
-6.99076e-12
1.15896e-07
3.29383e-11
2.40485e-11
-3.26648e-11
-4.44589e-11
5.89253e-11
4.27665e-11
-6.17215e-11
1.14864e-07
-1.78801e-11
-1.14864e-07
1.2112e-11
-3.39464e-11
-3.63468e-11
3.53297e-11
6.45715e-11
-5.90688e-11
6.17738e-11
-6.08851e-11
2.41398e-11
1.15896e-07
-1.69e-11
-1.15897e-07
1.11849e-11
-2.28714e-11
-3.3254e-11
3.63674e-11
4.47355e-11
-5.86858e-11
5.82846e-11
-4.12165e-11
4.88748e-10
-1.50984e-10
1.15102e-07
8.05326e-11
1.95788e-10
6.2383e-11
-4.69849e-11
5.92543e-11
-8.88067e-11
4.45073e-11
-1.62613e-11
-1.14825e-07
1.03508e-11
-3.43763e-11
-3.66489e-11
3.54549e-11
6.48222e-11
-5.9483e-11
-6.09742e-11
6.19147e-11
-1.2647e-10
1.1587e-07
-4.94281e-10
-1.15101e-07
1.55891e-10
-1.94066e-10
-8.17331e-11
-6.01909e-11
4.77255e-11
-5.90508e-11
8.55908e-11
-4.25771e-11
5.19912e-11
3.76244e-11
2.74839e-08
-3.9043e-11
2.76344e-08
-2.74841e-08
-5.10853e-11
-3.61262e-11
-5.63295e-10
1.68553e-10
1.16908e-07
-2.27264e-11
-1.25418e-10
-1.21774e-10
-5.29698e-12
3.02535e-11
-4.59015e-12
6.05457e-12
-1.99733e-11
-1.15956e-07
1.72079e-11
-3.94854e-11
-2.43579e-11
1.91295e-11
9.36187e-12
-3.06804e-11
-5.9932e-12
3.5585e-11
1.79508e-10
1.16089e-07
5.57794e-10
-1.16906e-07
-1.63517e-10
1.25238e-10
2.22904e-11
1.18495e-10
5.85891e-12
-3.01161e-11
5.76192e-12
-4.26543e-12
-2.74999e-08
7.15101e-11
-1.69877e-10
2.97888e-11
3.29723e-11
4.50189e-11
4.39916e-11
2.74859e-08
-2.98032e-11
-3.35231e-11
2.76363e-08
-2.74855e-08
-4.41003e-11
-4.33791e-11
-1.57646e-11
1.17063e-07
1.94137e-11
3.1611e-11
-1.86175e-11
1.42314e-11
2.87476e-11
-1.76877e-11
-3.34547e-11
-3.0009e-11
2.19062e-11
-1.58366e-11
1.17083e-07
1.97169e-11
3.11828e-11
-2.00336e-11
1.36872e-11
2.83412e-11
-1.7903e-11
-3.37315e-11
1.17059e-07
-2.82538e-11
-1.17062e-07
2.67292e-11
-3.11629e-11
-2.1054e-11
1.76653e-11
-1.4353e-11
-2.82134e-11
3.22312e-11
1.95214e-11
2.97654e-11
1.17083e-07
-3.00179e-11
-1.17084e-07
2.75914e-11
-3.10529e-11
-2.24693e-11
1.84719e-11
-1.44408e-11
-2.80287e-11
3.19548e-11
1.93121e-11
4.45022e-11
4.4209e-11
2.74815e-08
-3.3954e-11
2.76335e-08
-2.7482e-08
-4.40481e-11
-4.37195e-11
-1.60501e-11
1.14865e-07
3.6485e-11
3.51289e-11
-3.50536e-11
-6.48935e-11
5.90348e-11
6.26849e-11
-6.31196e-11
-2.2357e-11
1.83507e-11
-1.2876e-11
1.15896e-07
3.31367e-11
2.42866e-11
-3.26561e-11
-4.57862e-11
5.82283e-11
4.21268e-11
-6.26931e-11
1.14863e-07
-2.92572e-11
-1.14865e-07
2.32458e-11
-3.42288e-11
-3.71347e-11
3.52141e-11
6.58464e-11
-5.76771e-11
6.25699e-11
-5.95144e-11
2.32113e-11
1.15899e-07
-2.78839e-11
-1.159e-07
2.09284e-11
-2.35075e-11
-3.44172e-11
3.59039e-11
4.55137e-11
-5.73849e-11
5.87853e-11
-4.01309e-11
-3.33278e-11
1.37592e-11
1.15922e-07
3.15921e-11
2.26126e-11
-3.26161e-11
-4.56845e-11
5.71949e-11
-6.30371e-11
4.24596e-11
-2.89738e-11
-1.14828e-07
2.16609e-11
-3.4303e-11
-3.7559e-11
3.51825e-11
6.58567e-11
-5.81728e-11
-5.95649e-11
6.30392e-11
4.67237e-11
1.15871e-07
2.48977e-11
-1.15923e-07
-5.33404e-12
-2.14609e-11
-3.43432e-11
3.08568e-11
4.58778e-11
-5.64981e-11
6.17327e-11
-4.0352e-11
5.18297e-11
3.79521e-11
2.74841e-08
-3.81876e-11
2.76344e-08
-2.74847e-08
-5.1651e-11
-3.66387e-11
9.39423e-11
-5.15346e-11
1.1603e-07
2.4118e-11
4.1614e-11
-2.27862e-11
-9.918e-12
3.09757e-11
-3.48589e-11
5.69752e-12
-3.40397e-11
-1.15958e-07
2.78833e-11
-4.00006e-11
-2.57496e-11
1.85917e-11
1.02743e-11
-2.87512e-11
-4.37118e-12
3.67062e-11
1.81938e-11
1.16088e-07
-1.04507e-10
-1.1603e-07
6.11981e-11
-4.20108e-11
-2.45421e-11
2.30598e-11
1.01387e-11
-2.91537e-11
3.38803e-11
-3.68853e-12
-2.74984e-08
-6.61618e-11
-2.04638e-11
2.96329e-11
3.25721e-11
4.5321e-11
4.40197e-11
2.74848e-08
-2.86905e-11
-3.23901e-11
2.76347e-08
-2.7485e-08
-4.46205e-11
-4.39502e-11
-2.68921e-11
1.17062e-07
1.96487e-11
3.1594e-11
-1.86654e-11
1.21818e-11
2.72493e-11
-1.91177e-11
-3.57962e-11
-2.95618e-11
3.81681e-11
-2.86353e-11
1.17088e-07
2.01343e-11
3.16601e-11
-2.32579e-11
1.15076e-11
2.73023e-11
-1.96818e-11
-3.32893e-11
1.17058e-07
-5.14226e-11
-1.17064e-07
4.57955e-11
-3.14541e-11
-2.31243e-11
1.75008e-11
-1.18712e-11
-2.51505e-11
3.42256e-11
2.27556e-11
2.87545e-11
1.17083e-07
-5.38854e-11
-1.17089e-07
4.70197e-11
-3.13296e-11
-2.37395e-11
1.83126e-11
-1.18791e-11
-2.45122e-11
3.43838e-11
2.27097e-11
4.48556e-11
4.44088e-11
2.74817e-08
-3.30382e-11
2.76326e-08
-2.74825e-08
-4.42104e-11
-4.41051e-11
-2.6367e-11
1.14864e-07
3.68987e-11
3.53101e-11
-3.46407e-11
-6.67385e-11
5.80994e-11
6.11657e-11
-6.50386e-11
-2.22791e-11
3.2231e-11
-2.28867e-11
1.15901e-07
3.35766e-11
2.43477e-11
-3.19411e-11
-4.79152e-11
5.69195e-11
4.08982e-11
-6.49218e-11
1.14857e-07
-4.89091e-11
-1.14864e-07
4.12585e-11
-3.45928e-11
-3.89656e-11
3.4598e-11
6.79945e-11
-5.51567e-11
6.44736e-11
-5.68882e-11
2.29711e-11
1.15901e-07
-4.84109e-11
-1.15905e-07
3.57893e-11
-2.29884e-11
-3.53562e-11
3.60946e-11
4.73868e-11
-5.463e-11
6.08875e-11
-3.76898e-11
5.11493e-10
-1.66735e-10
1.15101e-07
8.098e-11
1.95785e-10
6.29198e-11
-5.0489e-11
5.72023e-11
-9.21341e-11
4.21715e-11
-4.69912e-11
-1.14833e-07
3.73301e-11
-3.46616e-11
-3.87434e-11
3.5128e-11
6.82045e-11
-5.51189e-11
-5.67637e-11
6.51453e-11
-1.27817e-10
1.15869e-07
-5.27031e-10
-1.15103e-07
1.813e-10
-1.94235e-10
-8.39065e-11
-6.04572e-11
5.05528e-11
-5.44983e-11
8.86133e-11
-3.84575e-11
5.1869e-11
3.79302e-11
2.74843e-08
-3.70449e-11
2.76344e-08
-2.74858e-08
-5.21405e-11
-3.64681e-11
-5.36658e-10
1.47865e-10
1.16908e-07
-2.17268e-11
-1.25198e-10
-1.21188e-10
-8.87495e-12
2.84494e-11
-7.86164e-12
3.91059e-12
-6.03471e-11
-1.15963e-07
5.06421e-11
-4.02836e-11
-2.72134e-11
1.81517e-11
1.28203e-11
-2.56078e-11
-6.97794e-13
3.86434e-11
1.77446e-10
1.1609e-07
5.16861e-10
-1.16909e-07
-1.31041e-10
1.24458e-10
1.98063e-11
1.17563e-10
8.99438e-12
-2.49099e-11
9.29626e-12
3.46505e-13
-2.75e-08
7.0267e-11
-1.70286e-10
2.88167e-11
3.16813e-11
4.58594e-11
4.44268e-11
2.74839e-08
-2.66337e-11
-3.07378e-11
2.76326e-08
-2.74853e-08
-4.52756e-11
-4.46132e-11
-5.01276e-11
1.17066e-07
2.07244e-11
3.22223e-11
-1.76006e-11
8.57259e-12
2.54674e-11
-2.12598e-11
-3.88539e-11
-2.86156e-11
6.39621e-11
-5.13625e-11
1.17091e-07
2.17791e-11
3.22758e-11
-1.81124e-11
7.59849e-12
2.51651e-11
-2.14896e-11
-3.93967e-11
1.17054e-07
-8.87987e-11
-1.1707e-07
8.2541e-11
-3.22362e-11
-2.67154e-11
1.65743e-11
-8.0178e-12
-1.98702e-11
3.82097e-11
2.80047e-11
2.64886e-11
1.17077e-07
-9.27441e-11
-1.17094e-07
8.31515e-11
-3.19494e-11
-2.70877e-11
1.78084e-11
-7.41419e-12
-1.90822e-11
3.83671e-11
2.90211e-11
4.60002e-11
4.50434e-11
2.74813e-08
-3.09312e-11
2.76305e-08
-2.7483e-08
-4.5136e-11
-4.50237e-11
-4.69498e-11
1.14864e-07
3.80273e-11
3.6018e-11
-3.37211e-11
-7.05981e-11
5.6007e-11
5.90642e-11
-6.83531e-11
-2.10367e-11
5.45132e-11
-4.3537e-11
1.15906e-07
3.49953e-11
2.54077e-11
-3.09724e-11
-5.08895e-11
5.49041e-11
3.92145e-11
-6.8042e-11
1.14851e-07
-8.26554e-11
-1.14866e-07
7.18026e-11
-3.50221e-11
-4.18591e-11
3.445e-11
7.16281e-11
-4.98319e-11
6.81398e-11
-5.21492e-11
2.11808e-11
1.15896e-07
-7.99374e-11
-1.1591e-07
6.60504e-11
-2.36528e-11
-3.82568e-11
3.55002e-11
5.14475e-11
-4.97521e-11
6.46183e-11
-3.25764e-11
4.0017e-12
-1.73744e-11
1.15927e-07
3.3368e-11
2.37297e-11
-3.10121e-11
-5.14979e-11
5.39626e-11
-6.85947e-11
3.94884e-11
-7.91704e-11
-1.14836e-07
7.01839e-11
-3.5103e-11
-4.15836e-11
3.45862e-11
7.21001e-11
-5.00252e-11
-5.18581e-11
6.88285e-11
4.42401e-11
1.15864e-07
-2.81311e-11
-1.1593e-07
4.11068e-11
-2.17101e-11
-3.81831e-11
3.04641e-11
5.14985e-11
-4.88323e-11
6.73122e-11
-3.27125e-11
5.226e-11
3.89797e-11
2.74848e-08
-3.47139e-11
2.76323e-08
-2.74861e-08
-5.31046e-11
-3.72013e-11
1.38109e-10
-8.87537e-11
1.16038e-07
2.5718e-11
4.2484e-11
-2.17337e-11
-1.58867e-11
2.75244e-11
-4.02999e-11
2.45546e-12
-1.02468e-10
-1.15969e-07
8.79859e-11
-4.1439e-11
-3.06514e-11
1.73024e-11
1.74793e-11
-1.95589e-11
4.98303e-12
4.33214e-11
1.48462e-11
1.16088e-07
-1.73131e-10
-1.16042e-07
1.19392e-10
-4.31493e-11
-2.92291e-11
2.19303e-11
1.69935e-11
-2.00658e-11
4.03252e-11
6.06572e-12
-2.75006e-08
-6.76337e-11
-2.14203e-11
2.71741e-11
2.95937e-11
4.69391e-11
4.53014e-11
2.74835e-08
-2.30451e-11
-2.68394e-11
2.76291e-08
-2.74876e-08
-4.58174e-11
-4.57827e-11
-9.13055e-11
1.17077e-07
2.31042e-11
3.36917e-11
-1.55583e-11
1.27453e-12
2.09951e-11
-2.58201e-11
-4.55653e-11
-2.70055e-11
1.06675e-10
-9.24599e-11
1.17101e-07
2.39436e-11
3.36885e-11
-1.99116e-11
4.32918e-13
2.02656e-11
-2.60842e-11
-4.37008e-11
1.17038e-07
-1.45646e-10
-1.17088e-07
1.48956e-10
-3.3381e-11
-3.26172e-11
1.49046e-11
-2.83276e-13
-9.16673e-12
4.5646e-11
3.89632e-11
2.34143e-11
1.17064e-07
-1.51277e-10
-1.17112e-07
1.47053e-10
-3.28997e-11
-3.28045e-11
1.6297e-11
1.77699e-13
-7.86768e-12
4.6126e-11
4.03451e-11
4.70165e-11
4.60078e-11
2.74807e-08
-2.70804e-11
2.7628e-08
-2.74856e-08
-4.60112e-11
-4.58849e-11
-8.54285e-11
1.14872e-07
4.03492e-11
3.79232e-11
-3.13235e-11
-7.73087e-11
5.20288e-11
5.49128e-11
-7.50135e-11
-1.92032e-11
9.23201e-11
-7.86586e-11
1.15913e-07
3.73416e-11
2.64869e-11
-2.8924e-11
-5.77452e-11
5.06613e-11
3.48011e-11
-7.44197e-11
1.14834e-07
-1.30996e-10
-1.14882e-07
1.32507e-10
-3.67239e-11
-4.79292e-11
3.27535e-11
7.8898e-11
-4.05065e-11
7.53706e-11
-4.2056e-11
1.76393e-11
1.15876e-07
-1.27327e-10
-1.15922e-07
1.24371e-10
-2.471e-11
-4.41017e-11
3.42916e-11
5.79624e-11
-4.02646e-11
7.11627e-11
-2.29309e-11
5.71811e-10
-2.24085e-10
1.15112e-07
8.46798e-11
1.9824e-10
6.57985e-11
-6.05751e-11
5.08038e-11
-1.01768e-10
3.60659e-11
-1.24878e-10
-1.14848e-07
1.27822e-10
-3.69397e-11
-4.74693e-11
3.3284e-11
7.94737e-11
-4.01579e-11
-4.15736e-11
7.58659e-11
-1.32961e-10
1.15849e-07
-6.09246e-10
-1.15124e-07
2.71773e-10
-1.96179e-10
-9.29889e-11
-6.23658e-11
6.15151e-11
-4.013e-11
9.89581e-11
-2.36924e-11
5.34133e-11
3.99994e-11
2.74844e-08
-3.08048e-11
2.76292e-08
-2.74883e-08
-5.44296e-11
-3.80719e-11
-4.62552e-10
8.07185e-11
1.16925e-07
-1.84819e-11
-1.23242e-10
-1.18558e-10
-1.95507e-11
2.16834e-11
-1.8361e-11
-2.7102e-12
-1.66043e-10
-1.15987e-07
1.59913e-10
-4.29436e-11
-3.63823e-11
1.57876e-11
2.49981e-11
-9.11289e-12
1.63989e-11
5.03274e-11
1.71748e-10
1.16074e-07
4.12596e-10
-1.16934e-07
-2.55153e-11
1.22029e-10
1.12108e-11
1.1557e-10
2.10538e-11
-7.95819e-12
2.14341e-11
1.78969e-11
-2.75034e-08
6.82077e-11
-1.715e-10
2.5252e-11
2.70802e-11
4.78502e-11
4.57843e-11
2.74831e-08
-1.86268e-11
-2.16657e-11
2.76216e-08
-2.74923e-08
-4.44443e-11
-4.457e-11
-1.69033e-10
1.17107e-07
2.66041e-11
3.72248e-11
-1.0538e-11
-9.529e-12
1.17955e-11
-3.55581e-11
-5.6578e-11
-2.57031e-11
1.68526e-10
-1.67211e-10
1.17131e-07
2.67613e-11
3.66184e-11
-1.21538e-11
-1.06379e-11
1.05597e-11
-3.60684e-11
-5.77921e-11
1.16983e-07
-2.1031e-10
-1.1714e-07
2.73136e-10
-3.77316e-11
-4.19015e-11
1.08176e-11
1.15242e-11
1.21683e-11
5.86926e-11
6.23105e-11
1.98728e-11
1.1701e-07
-2.188e-10
-1.17164e-07
2.67107e-10
-3.70111e-11
-4.11646e-11
1.21798e-11
1.27255e-11
1.43054e-11
5.97719e-11
6.42221e-11
4.74922e-11
4.6144e-11
2.74811e-08
-2.23478e-11
2.7621e-08
-2.74905e-08
-4.40171e-11
-4.42978e-11
-1.5654e-10
1.14899e-07
4.39863e-11
4.20849e-11
-2.6264e-11
-8.77959e-11
4.31702e-11
4.58879e-11
-8.54709e-11
-1.73188e-11
1.41815e-10
-1.47921e-10
1.15937e-07
4.07375e-11
3.02747e-11
-2.44285e-11
-6.77537e-11
4.21721e-11
2.62141e-11
-8.48289e-11
1.14775e-07
-1.80543e-10
-1.14929e-07
2.46889e-10
-4.19401e-11
-5.71629e-11
2.86e-11
9.071e-11
-2.11106e-11
8.7895e-11
-2.09464e-11
1.26585e-11
1.15817e-07
-1.75018e-10
-1.15968e-07
2.38909e-10
-2.94426e-11
-5.36607e-11
3.01284e-11
6.90011e-11
-2.16795e-11
8.31434e-11
-2.84736e-12
9.11408e-11
-1.23707e-10
1.15964e-07
3.91755e-11
2.88734e-11
-2.42929e-11
-6.79415e-11
4.10915e-11
-8.49939e-11
2.63507e-11
-1.69728e-10
-1.14897e-07
2.41758e-10
-4.20336e-11
-5.64377e-11
2.8867e-11
9.10144e-11
-2.00309e-11
-2.04464e-11
8.84371e-11
3.64505e-11
1.15796e-07
-1.26185e-10
-1.15997e-07
2.14346e-10
-2.7837e-11
-5.35532e-11
2.48246e-11
6.98048e-11
-2.01187e-11
8.60894e-11
-2.38964e-12
5.36725e-11
4.03555e-11
2.74844e-08
-2.61513e-11
2.76218e-08
-2.74932e-08
-5.30475e-11
-3.67411e-11
2.51256e-10
-2.11484e-10
1.16078e-07
3.12399e-11
4.75486e-11
-1.50103e-11
-3.52936e-11
1.29983e-11
-5.92283e-11
-1.25257e-11
-2.39572e-10
-1.16035e-07
2.85721e-10
-4.77128e-11
-4.52377e-11
1.14816e-11
3.73952e-11
1.27774e-11
4.01394e-11
6.3587e-11
6.89893e-12
1.16026e-07
-3.10204e-10
-1.16112e-07
3.12397e-10
-4.9669e-11
-4.30707e-11
1.65976e-11
3.76809e-11
1.30127e-11
6.11785e-11
4.17955e-11
-2.75085e-08
-6.73932e-11
-2.00372e-11
2.68541e-11
2.77047e-11
4.2635e-11
4.13584e-11
2.74831e-08
-2.79661e-11
-2.84456e-11
2.76044e-08
-2.7503e-08
-2.15506e-11
-2.33668e-11
-3.10446e-10
1.17197e-07
2.81819e-11
4.83326e-11
1.99666e-12
-2.4958e-11
-1.00593e-11
-5.9009e-11
-7.46031e-11
-2.78886e-11
2.22867e-10
-3.02072e-10
1.17221e-07
2.75865e-11
4.7128e-11
-4.08848e-12
-2.78712e-11
-1.16108e-11
-6.05366e-11
-7.45184e-11
1.16782e-07
-2.02825e-10
-1.17293e-07
4.71237e-10
-5.07262e-11
-4.0911e-11
1.08165e-12
3.08672e-11
6.57339e-11
8.56803e-11
1.23082e-10
3.20414e-11
1.16815e-07
-2.20293e-10
-1.17315e-07
4.54544e-10
-4.96648e-11
-3.73227e-11
2.5695e-12
3.3072e-11
6.97204e-11
8.78812e-11
1.27481e-10
4.28252e-11
4.13075e-11
2.74811e-08
-2.95041e-11
2.76046e-08
-2.75009e-08
-2.08064e-11
-2.13285e-11
-2.86043e-10
1.14985e-07
4.57372e-11
5.43319e-11
-1.33354e-11
-1.0248e-10
2.23791e-11
2.3186e-11
-1.03147e-10
-1.84225e-11
1.74144e-10
-2.77436e-10
1.16022e-07
4.22676e-11
4.15466e-11
-1.18026e-11
-8.12236e-11
2.25726e-11
4.83058e-12
-1.01179e-10
1.14582e-07
-1.5603e-10
-1.15081e-07
4.32213e-10
-5.75601e-11
-5.78973e-11
1.78196e-11
1.10221e-10
2.98514e-11
1.14997e-10
3.75094e-11
1.95884e-11
1.15621e-07
-1.45e-10
-1.1612e-07
4.28483e-10
-4.37355e-11
-5.52973e-11
1.92109e-11
8.73263e-11
2.66348e-11
1.09013e-10
5.23859e-11
6.56558e-10
-4.23968e-10
1.15231e-07
8.96834e-11
2.14342e-10
8.36379e-11
-8.52316e-11
2.19236e-11
-1.29145e-10
4.79351e-12
-1.33706e-10
-1.15051e-07
4.23317e-10
-5.80911e-11
-5.67801e-11
1.7532e-11
1.12005e-10
3.11421e-11
3.8327e-11
1.15986e-10
-1.29192e-10
1.15602e-07
-6.33593e-10
-1.1533e-07
5.74955e-10
-2.15473e-10
-1.03845e-10
-7.75889e-11
9.19218e-11
2.89534e-11
1.37844e-10
5.39796e-11
4.90091e-11
3.59223e-11
2.74842e-08
-3.48305e-11
2.76058e-08
-2.75049e-08
-3.08473e-11
-1.56684e-11
-3.35338e-10
-1.39694e-10
1.17045e-07
-1.3636e-11
-1.08592e-10
-1.02053e-10
-4.81431e-11
-1.00882e-11
-4.91575e-11
-3.75814e-11
-2.50971e-10
-1.16188e-07
4.87641e-10
-6.15719e-11
-4.47541e-11
1.12356e-12
5.74872e-11
6.63576e-11
1.02444e-10
9.1252e-11
1.77154e-10
1.15833e-07
3.34084e-10
-1.17139e-07
2.94341e-10
1.03375e-10
5.6819e-12
1.01819e-10
5.3854e-11
6.84616e-11
6.21934e-11
1.04567e-10
-2.7522e-08
9.25364e-11
-1.4703e-10
4.96214e-11
4.80222e-11
1.21383e-11
1.38617e-11
2.74807e-08
-1.85246e-10
-1.75994e-10
2.75677e-08
-2.752e-08
1.6314e-10
1.50476e-10
-5.20572e-10
1.17452e-07
1.05838e-11
8.55739e-11
3.72383e-11
-3.46081e-11
-6.6773e-11
-1.25788e-10
-9.90393e-11
-5.27176e-11
1.09857e-10
-4.9876e-10
1.17474e-07
7.98632e-12
8.26148e-11
3.38934e-11
-4.00416e-11
-6.91065e-11
-1.27787e-10
-1.04404e-10
1.16004e-07
8.01248e-12
-1.17703e-07
4.64392e-10
-6.92711e-11
9.6267e-11
1.38658e-11
1.05788e-10
2.97054e-10
2.0549e-10
3.92251e-10
1.94155e-10
1.1604e-07
-1.78748e-11
-1.17718e-07
4.25845e-10
-6.83056e-11
1.06374e-10
1.57875e-11
1.09656e-10
3.04186e-10
2.08422e-10
3.99281e-10
1.19775e-11
1.25619e-11
2.74787e-08
-1.76957e-10
2.75696e-08
-2.75191e-08
1.62868e-10
1.57706e-10
-4.81158e-10
1.15242e-07
2.92778e-11
9.39392e-11
2.14625e-11
-1.1115e-10
-3.0933e-11
-4.12496e-11
-1.28035e-10
-3.90094e-11
2.78211e-11
-4.82292e-10
1.16281e-07
2.54158e-11
8.15653e-11
2.48886e-11
-8.76939e-11
-2.95219e-11
-5.78107e-11
-1.22761e-10
1.13835e-07
4.18714e-11
-1.15486e-07
4.33079e-10
-8.4017e-11
7.21366e-11
2.63739e-11
1.8986e-10
2.55585e-10
2.37689e-10
3.02332e-10
1.70519e-10
1.14859e-07
6.93499e-11
-1.16532e-07
4.41453e-10
-6.55471e-11
7.79216e-11
3.03797e-11
1.6342e-10
2.47342e-10
2.2809e-10
3.10036e-10
-1.88839e-11
-4.55248e-10
1.16316e-07
2.26206e-11
8.06994e-11
2.42418e-11
-8.83761e-11
-3.18661e-11
-1.24558e-10
-5.90344e-11
9.0519e-11
-1.15465e-07
4.24741e-10
-8.44504e-11
7.44437e-11
2.59062e-11
1.92113e-10
2.61355e-10
3.05571e-10
2.39482e-10
1.98829e-10
1.14842e-07
1.08552e-10
-1.16568e-07
4.14405e-10
-6.68519e-11
7.96706e-11
2.5288e-11
1.641e-10
2.5349e-10
2.32838e-10
3.15697e-10
2.0063e-11
8.43559e-12
2.7483e-08
-1.825e-10
2.75697e-08
-2.7523e-08
1.4868e-10
1.57537e-10
2.07398e-10
-5.59692e-10
1.16419e-07
1.58546e-11
9.60274e-11
3.28921e-11
-6.44648e-11
-6.63888e-11
-1.05302e-10
-1.05184e-10
-6.91712e-11
-1.16592e-07
4.89477e-10
-8.21751e-11
8.5028e-11
1.10209e-11
1.36118e-10
2.99221e-10
3.73767e-10
2.12966e-10
1.66903e-10
1.15082e-07
-1.37106e-10
-1.16662e-07
4.99739e-10
-8.57887e-11
9.16633e-11
1.48193e-11
1.36927e-10
3.02811e-10
2.10661e-10
3.79229e-10
-2.75379e-08
1.3815e-10
1.78835e-10
1.38284e-10
1.32341e-10
-8.66172e-11
-7.40211e-11
2.74577e-08
-6.93136e-10
1.00046e-10
2.75722e-08
-2.68867e-08
1.93564e-10
-2.85858e-10
2.03352e-10
1.17681e-07
-6.08692e-11