/*--------------------------------*- C++ -*----------------------------------*\
| =========                 |                                                 |
| \\      /  F ield         | OpenFOAM: The Open Source CFD Toolbox           |
|  \\    /   O peration     | Version:  2206                                  |
|   \\  /    A nd           | Website:  www.openfoam.com                      |
|    \\/     M anipulation  |                                                 |
\*---------------------------------------------------------------------------*/
FoamFile
{
    version     2.0;
    format      ascii;
    arch        "LSB;label=32;scalar=64";
    class       volVectorField;
    location    "100";
    object      U;
}
// * * * * * * * * * * * * * * * * * * * * * * * * * * * * * * * * * * * * * //

dimensions      [0 1 -1 0 0 0 0];

internalField   nonuniform List<vector> 
66940
(
(2.4508e-06 4.17452e-06 0.142536)
(-3.38955e-06 -1.49032e-06 0.134816)
(2.68932e-07 -5.35649e-06 0.135085)
(-0.000159693 -0.000157711 0.129772)
(4.64864e-06 4.75421e-06 0.142525)
(-5.69677e-06 -3.1098e-06 0.134808)
(-1.68333e-06 -8.95423e-06 0.13508)
(-0.000159533 -0.00015624 0.129769)
(6.81191e-06 8.48658e-06 0.142512)
(-1.13267e-05 -6.45261e-06 0.134802)
(-4.72342e-06 -1.72988e-05 0.135074)
(-0.000159291 -0.000154879 0.129767)
(1.02902e-05 1.21296e-05 0.142498)
(-2.5546e-05 -1.02809e-05 0.134803)
(-1.10345e-05 -2.9775e-05 0.135067)
(-0.000159238 -0.000153837 0.129766)
(1.50924e-05 1.73153e-05 0.142485)
(-4.81561e-05 -2.13528e-05 0.13479)
(-2.27125e-05 -5.39116e-05 0.135061)
(-0.000158115 -0.000153989 0.129758)
(1.41784e-05 1.80044e-05 0.142463)
(-9.2904e-05 -4.2775e-05 0.134761)
(-4.177e-05 -0.000102132 0.135041)
(-0.000158392 -0.000149998 0.129744)
(-6.55728e-06 -6.25107e-07 0.142454)
(-0.000182099 -7.9097e-05 0.134699)
(-7.89809e-05 -0.000192573 0.134999)
(-0.000155185 -0.000148305 0.129713)
(-0.000100592 -8.57985e-05 0.142482)
(-0.000356017 -0.00014076 0.134576)
(-0.000140229 -0.000374075 0.134903)
(-0.000159083 -0.00014723 0.129621)
(-0.000440565 -0.000410528 0.142607)
(-0.000721076 -0.000219962 0.134311)
(-0.000220312 -0.000746486 0.134685)
(-0.000183565 -0.000176082 0.129405)
(-0.00165644 -0.0016108 0.142846)
(-0.00158682 -0.00016706 0.133698)
(-0.000174099 -0.00162286 0.134154)
(-0.000320921 -0.000301556 0.12887)
(-0.00631629 -0.00633277 0.142405)
(-0.00395679 0.000853125 0.131972)
(0.000804415 -0.00400705 0.132588)
(-0.000713662 -0.000713503 0.127456)
(-0.0231424 -0.0234132 0.129272)
(-0.00421842 0.004899 0.121488)
(0.00458953 -0.00434805 0.122126)
(-0.000828613 -0.000857174 0.12034)
(-0.000166566 -0.000165914 0.129617)
(2.31844e-06 -2.70968e-06 0.135119)
(-3.19975e-06 -2.08926e-06 0.135104)
(0.000163367 -0.000165727 0.129598)
(-6.54762e-06 3.33552e-07 0.134854)
(-4.92436e-06 -2.07356e-06 0.134823)
(4.91985e-06 1.94403e-06 0.134826)
(3.69038e-06 -5.16529e-07 0.134835)
(-0.000163167 0.000164174 0.129582)
(2.12058e-06 4.03446e-06 0.135089)
(-3.13696e-06 2.87057e-06 0.135137)
(0.000163315 0.000163156 0.129615)
(0.000157946 0.000157729 0.129771)
(-0.000165154 -0.000164838 0.129609)
(1.41748e-06 6.77771e-06 0.135117)
(-6.30289e-07 7.27249e-06 0.135097)
(5.28517e-06 -5.86966e-06 0.135116)
(-6.06211e-06 -5.33774e-06 0.1351)
(-0.00015801 0.00015591 0.129751)
(0.000165094 -0.000164619 0.129596)
(3.12153e-06 -1.22565e-06 0.134855)
(5.61253e-06 -1.63047e-06 0.134821)
(-7.5377e-06 2.78845e-06 0.134851)
(-7.81089e-06 -3.0406e-06 0.134816)
(-4.47549e-06 -1.38949e-06 0.134882)
(8.48479e-06 1.36843e-06 0.134818)
(8.7591e-06 -1.04893e-06 0.134837)
(0.000156421 -0.000155442 0.129736)
(-0.000163866 0.000165277 0.129575)
(1.29075e-06 -7.19597e-06 0.135099)
(5.23931e-06 6.94222e-06 0.135085)
(-5.18259e-06 6.33336e-06 0.135134)
(0.000164246 0.000165794 0.129614)
(0.000159016 0.000158163 0.129761)
(-0.000167119 -0.000166263 0.129609)
(-2.1525e-06 7.86995e-06 0.135117)
(7.24307e-07 1.08438e-05 0.135095)
(7.90023e-06 -1.00352e-05 0.135118)
(-8.72535e-06 -1.18128e-05 0.135103)
(-0.000155402 0.000155795 0.129749)
(0.000165078 -0.000165741 0.129596)
(8.22564e-06 -2.30284e-06 0.134849)
(7.70483e-06 8.74724e-07 0.134813)
(-1.27049e-05 5.53961e-06 0.134848)
(-1.43699e-05 -4.0681e-06 0.134814)
(-6.29347e-06 1.67576e-06 0.134867)
(1.34756e-05 4.29732e-06 0.134818)
(1.31175e-05 -3.09013e-06 0.134828)
(0.000156701 -0.000155625 0.129729)
(-0.00016549 0.000166214 0.12957)
(1.83983e-06 -1.11551e-05 0.135107)
(8.09894e-06 1.15352e-05 0.135082)
(-8.88485e-06 1.39446e-05 0.13514)
(0.000163465 0.000166017 0.12961)
(0.000157577 0.000157157 0.129763)
(-0.000166104 -0.000165342 0.129617)
(-5.73414e-06 1.60888e-05 0.135117)
(4.95106e-06 1.76182e-05 0.135096)
(1.24766e-05 -2.04479e-05 0.135119)
(-1.45642e-05 -2.1637e-05 0.135111)
(-0.00015758 0.000157447 0.129746)
(0.000164619 -0.000164844 0.129596)
(1.26741e-05 -5.89737e-06 0.134846)
(1.39028e-05 3.28887e-06 0.134812)
(-2.33705e-05 1.05158e-05 0.134853)
(-2.34757e-05 -7.68045e-06 0.134817)
(-1.28779e-05 3.15371e-06 0.134873)
(2.31114e-05 9.99964e-06 0.13483)
(2.17315e-05 -8.26124e-06 0.134833)
(0.000156017 -0.000155332 0.129724)
(-0.000164139 0.000166054 0.129572)
(5.90941e-06 -1.7046e-05 0.135099)
(1.28756e-05 2.2717e-05 0.135081)
(-1.37185e-05 2.38498e-05 0.135137)
(0.000164516 0.000168708 0.129614)
(0.000157904 0.000157047 0.129766)
(-0.000163878 -0.000164563 0.129616)
(-1.12743e-05 2.87538e-05 0.135113)
(1.07741e-05 2.95449e-05 0.135094)
(2.42492e-05 -4.02458e-05 0.135126)
(-2.55564e-05 -4.17205e-05 0.135125)
(-0.000158067 0.000157915 0.129744)
(0.000164553 -0.000165355 0.1296)
(2.5797e-05 -1.1953e-05 0.134846)
(2.61338e-05 9.25301e-06 0.134807)
(-4.24885e-05 2.03337e-05 0.134861)
(-4.01267e-05 -1.90511e-05 0.134827)
(-2.68189e-05 8.73024e-06 0.134856)
(4.36338e-05 1.90841e-05 0.134845)
(4.10017e-05 -1.72933e-05 0.134834)
(0.000156739 -0.000155341 0.129723)
(-0.000162839 0.000165173 0.129578)
(1.09461e-05 -2.96506e-05 0.135098)
(2.29943e-05 4.41823e-05 0.135093)
(-2.34076e-05 4.55841e-05 0.13515)
(0.000164657 0.000166808 0.129611)
(0.000157823 0.000156472 0.129757)
(-0.000163266 -0.000164515 0.129624)
(-2.02976e-05 5.44248e-05 0.1351)
(2.09417e-05 5.6962e-05 0.135086)
(4.19484e-05 -8.14175e-05 0.135144)
(-4.24113e-05 -8.46611e-05 0.135149)
(-0.000157385 0.000156299 0.129738)
(0.000163386 -0.000165685 0.129612)
(4.80447e-05 -2.23188e-05 0.134835)
(5.03205e-05 1.76546e-05 0.134804)
(-7.87452e-05 3.92117e-05 0.134873)
(-7.84847e-05 -3.24292e-05 0.134846)
(-4.98236e-05 1.68449e-05 0.134858)
(8.09727e-05 3.60684e-05 0.134874)
(7.92034e-05 -3.25756e-05 0.134859)
(0.000157469 -0.000155555 0.129719)
(-0.000161795 0.00016704 0.129593)
(2.24514e-05 -5.51401e-05 0.135082)
(4.11198e-05 8.52901e-05 0.135115)
(-4.0247e-05 8.72613e-05 0.135168)
(0.000160885 0.000168797 0.129626)
(0.000157159 0.000155107 0.129738)
(-0.000163209 -0.000165613 0.129651)
(-4.21504e-05 9.89593e-05 0.135081)
(4.21762e-05 0.000104435 0.135063)
(7.66056e-05 -0.000157514 0.135182)
(-7.4324e-05 -0.00016511 0.13519)
(-0.000155346 0.000153095 0.129724)
(0.000160923 -0.000163931 0.129639)
(9.334e-05 -4.26603e-05 0.134812)
(9.25561e-05 3.82426e-05 0.13479)
(-0.000153668 6.88675e-05 0.134907)
(-0.000148964 -6.20491e-05 0.134878)
(-9.42498e-05 3.81368e-05 0.134829)
(0.000155572 6.64101e-05 0.134919)
(0.000149603 -6.19724e-05 0.134887)
(0.000157083 -0.000152474 0.129708)
(-0.00015986 0.000166702 0.129619)
(4.12376e-05 -0.000103289 0.135069)
(7.43303e-05 0.000165443 0.135157)
(-7.29758e-05 0.000167802 0.135217)
(0.000160885 0.000166017 0.129658)
(0.000154746 0.000152133 0.1297)
(-0.000161633 -0.000165393 0.129728)
(-7.88236e-05 0.000191136 0.135039)
(7.86118e-05 0.000199061 0.135014)
(0.000132017 -0.000309493 0.135269)
(-0.000126472 -0.000323587 0.135285)
(-0.000152733 0.000150256 0.129685)
(0.000160557 -0.000163311 0.129721)
(0.00018002 -8.14937e-05 0.134768)
(0.000179628 7.26805e-05 0.134751)
(-0.000297523 0.000126027 0.134987)
(-0.000289369 -0.000114806 0.134949)
(-0.00017999 7.2158e-05 0.134796)
(0.000302922 0.0001215 0.135018)
(0.000294961 -0.000116501 0.134976)
(0.000153653 -0.000148511 0.129671)
(-0.000157449 0.000165171 0.129695)
(7.85931e-05 -0.000197621 0.135021)
(0.000130742 0.000318159 0.135243)
(-0.00012573 0.000321553 0.135298)
(0.000157154 0.000169965 0.129735)
(0.000156384 0.000152861 0.129609)
(-0.000168793 -0.000173732 0.129919)
(-0.000142645 0.000368376 0.134942)
(0.000137066 0.000384845 0.134913)
(0.00021157 -0.000618519 0.135461)
(-0.000200692 -0.000641869 0.135485)
(-0.000155785 0.000152154 0.129597)
(0.000169676 -0.000173099 0.129917)
(0.000350664 -0.000145904 0.134674)
(0.000345453 0.000134054 0.13466)
(-0.000593598 0.000207735 0.13517)
(-0.000576111 -0.000195789 0.135122)
(-0.000347329 0.000132988 0.134695)
(0.000604376 0.00020021 0.135236)
(0.000584243 -0.000192974 0.135156)
(0.000156844 -0.000150977 0.129583)
(-0.000165508 0.000172711 0.129883)
(0.000139275 -0.000382242 0.134929)
(0.000210286 0.000628325 0.135434)
(-0.000204274 0.000639024 0.135502)
(0.000168893 0.00017556 0.12993)
(0.000183191 0.000181616 0.129387)
(-0.00024258 -0.000248518 0.130383)
(-0.000222284 0.000738409 0.134722)
(0.000207273 0.000766841 0.134686)
(0.000220126 -0.00133404 0.135895)
(-0.000191956 -0.00138242 0.135928)
(-0.000182223 0.000178829 0.129373)
(0.000249676 -0.000247781 0.130398)
(0.000708261 -0.000227581 0.134454)
(0.000690021 0.000215863 0.13445)
(-0.00129354 0.000220367 0.135605)
(-0.00125265 -0.000215373 0.135543)
(-0.000697694 0.000211019 0.134491)
(0.00131479 0.00020769 0.135731)
(0.00127798 -0.00021007 0.1356)
(0.000183162 -0.000177405 0.129364)
(-0.000242597 0.000244865 0.130345)
(0.000216525 -0.000761438 0.134708)
(0.000221879 0.00134884 0.135872)
(-0.000205474 0.00136429 0.135929)
(0.000238774 0.000259123 0.13041)
(0.000309375 0.000314138 0.128844)
(-0.000818077 -0.000831536 0.131514)
(-0.000171921 0.00161456 0.134175)
(0.00013659 0.00166738 0.134139)
(-0.000600544 -0.00360884 0.136793)
(0.000667219 -0.00368824 0.13682)
(-0.000309162 0.000312142 0.128818)
(0.000837354 -0.000827072 0.131599)
(0.00155899 -0.000182302 0.133918)
(0.0015135 0.000182023 0.133924)
(-0.00353073 -0.000594758 0.136504)
(-0.00344185 0.000575756 0.136434)
(-0.00153302 0.000166326 0.133944)
(0.00358343 -0.000626442 0.136749)
(0.00348818 0.000602596 0.136501)
(0.000309335 -0.000302769 0.128832)
(-0.000815516 0.000806199 0.131466)
(0.000167366 -0.00165527 0.134177)
(-0.000582604 0.00362154 0.136768)
(0.000606807 0.00366495 0.136821)
(0.000834444 0.00082523 0.131538)
(0.000698285 0.000727458 0.127433)
(-0.00666841 -0.00671226 0.12983)
(0.000819964 0.00400193 0.13259)
(-0.000908484 0.00409475 0.132557)
(-0.00723024 -0.014523 0.134639)
(0.00741097 -0.014673 0.134614)
(-0.000706129 0.000721832 0.127342)
(0.00674914 -0.00658934 0.129969)
(0.00389351 0.000816475 0.13235)
(0.00379148 -0.000779543 0.132357)
(-0.0144931 -0.00733293 0.134705)
(-0.014286 0.00722027 0.134615)
(-0.0038355 -0.000817646 0.132381)
(0.0146607 -0.00745384 0.135276)
(0.0143844 0.00724415 0.134691)
(0.000698508 -0.00068578 0.127435)
(-0.00662581 0.00666237 0.129789)
(-0.000824841 -0.00407137 0.132613)
(-0.00722738 0.0145289 0.134646)
(0.00730446 0.0145911 0.134684)
(0.00666405 0.00672736 0.129858)
(0.000821416 0.000839778 0.120317)
(0.00467504 0.00441554 0.122107)
(-0.00474735 0.00441827 0.121896)
(-0.000745565 0.000779412 0.119874)
(0.00427075 0.00468361 0.122212)
(0.00418738 -0.00464648 0.122181)
(0.0240038 -0.0237928 0.128908)
(-0.0230468 0.0232873 0.129286)
(0.0230574 0.0233671 0.129281)
(-0.00426477 -0.00474504 0.122219)
(0.000745935 -0.000813225 0.120297)
(-0.0046151 -0.00444339 0.122161)
(7.15745e-06 -5.87463e-06 0.0603334)
(-5.42098e-06 -2.22725e-06 0.14259)
(5.33699e-06 -2.09795e-06 0.142578)
(-3.72692e-06 3.05888e-06 0.142571)
(5.58802e-06 2.5602e-06 0.142582)
(4.0308e-05 -1.31776e-06 0.115479)
(5.06181e-06 1.2187e-06 0.134837)
(2.24535e-05 -1.89825e-05 0.0990364)
(2.34262e-06 7.28851e-09 0.138863)
(0.000165617 0.00016222 0.12961)
(5.68488e-06 1.09741e-05 0.0838056)
(2.26181e-05 3.2096e-06 0.0839293)
(2.69364e-07 -4.27187e-05 0.0971351)
(9.94426e-06 2.43662e-05 0.0708503)
(5.0952e-07 3.6973e-05 0.0972897)
(-4.488e-06 -2.44548e-05 0.0707914)
(-8.99614e-06 7.79549e-06 0.0604808)
(8.00851e-06 -5.64394e-06 0.0604194)
(-3.34085e-05 7.1143e-07 0.0960305)
(1.9804e-05 -1.13589e-06 0.0705981)
(3.16415e-05 -2.09574e-06 0.0966537)
(-1.9463e-05 1.72785e-06 0.0703434)
(-2.84078e-06 4.49579e-06 0.142519)
(3.1817e-06 -4.97211e-06 0.142511)
(-3.31321e-06 -4.08845e-06 0.142542)
(-5.61923e-06 -5.20806e-06 0.142597)
(5.97629e-06 -5.55261e-06 0.14258)
(-4.42254e-06 5.69827e-06 0.142571)
(5.98062e-06 6.5945e-06 0.142592)
(3.89285e-05 6.61265e-07 0.115484)
(-2.2272e-05 1.42618e-05 0.0995499)
(2.95433e-06 -3.88818e-06 0.138882)
(6.79679e-06 5.58419e-07 0.134821)
(-3.85024e-05 -2.73487e-06 0.116206)
(2.35603e-05 -1.91699e-05 0.0990478)
(-7.16742e-07 3.61727e-06 0.138833)
(4.98648e-06 -4.16506e-07 0.0604249)
(-3.32806e-06 8.08843e-07 0.060252)
(-2.07317e-06 4.20805e-05 0.116568)
(-5.15859e-06 -3.94615e-07 0.139274)
(2.50566e-05 -2.3768e-05 0.0999112)
(4.47319e-06 4.11181e-06 0.135085)
(-1.8404e-07 -4.50445e-05 0.116753)
(3.6718e-06 -5.71363e-06 0.139223)
(-2.85592e-05 2.49702e-05 0.0997086)
(-3.13629e-06 -1.17048e-05 0.0841855)
(-2.00462e-05 -4.61313e-06 0.084358)
(0.000165666 0.000165555 0.129615)
(4.49301e-06 9.38679e-06 0.0838087)
(1.95845e-05 7.09568e-06 0.0841544)
(-1.16478e-06 -4.21926e-05 0.0971428)
(5.86071e-06 2.47024e-05 0.0708541)
(-2.10911e-07 4.02367e-05 0.0972946)
(-8.43096e-06 -2.32193e-05 0.0707967)
(-8.05112e-06 6.61809e-06 0.0604841)
(7.68541e-06 -5.68228e-06 0.0604318)
(-3.24682e-05 4.70573e-07 0.0960398)
(1.96749e-05 -9.61795e-07 0.0706056)
(3.03067e-05 -1.63739e-06 0.0966623)
(-2.11368e-05 1.24862e-06 0.0703505)
(-4.0331e-06 6.1875e-06 0.142502)
(4.83065e-06 -7.71917e-06 0.142495)
(-4.4264e-06 -6.20545e-06 0.142525)
(-9.02198e-06 -7.67517e-06 0.142607)
(7.83313e-06 -8.27147e-06 0.142589)
(-7.42607e-06 9.22348e-06 0.142582)
(7.88602e-06 9.33333e-06 0.142601)
(3.74127e-05 6.76999e-07 0.115482)
(-2.21293e-05 1.4729e-05 0.0995548)
(7.81105e-06 -7.38665e-06 0.138895)
(9.84118e-06 2.86829e-06 0.134817)
(-3.9372e-05 -1.77455e-06 0.116207)
(2.3945e-05 -1.74665e-05 0.0990483)
(-4.02548e-06 6.11525e-06 0.138802)
(4.73318e-06 -3.12205e-07 0.0604357)
(-3.92979e-06 6.50002e-07 0.0602622)
(-2.13802e-06 4.34628e-05 0.116562)
(-8.57284e-06 3.68827e-06 0.139292)
(2.35301e-05 -2.43157e-05 0.0999141)
(6.0902e-06 9.17802e-06 0.135082)
(5.62233e-07 -4.38339e-05 0.116746)
(7.9847e-06 -9.1247e-06 0.139195)
(-2.79958e-05 2.66162e-05 0.0997119)
(-5.5904e-06 -8.71484e-06 0.0841824)
(-2.03061e-05 -3.96959e-06 0.0843691)
(0.000164899 0.00016762 0.129613)
(6.70858e-06 1.08987e-05 0.0838085)
(1.94014e-05 6.5436e-06 0.0841663)
(-5.04514e-07 -4.20359e-05 0.0971403)
(5.34727e-06 2.60338e-05 0.0708606)
(3.46363e-07 4.28881e-05 0.0972951)
(-6.08617e-06 -2.36795e-05 0.070803)
(-9.26599e-06 6.96365e-06 0.0604912)
(6.10387e-06 -6.81998e-06 0.0604326)
(-3.12091e-05 2.34123e-06 0.0960406)
(2.00993e-05 -1.75799e-06 0.0706165)
(3.11712e-05 -1.76824e-06 0.0966713)
(-2.01609e-05 1.76071e-06 0.0703556)
(-5.5661e-06 8.59856e-06 0.142485)
(6.16587e-06 -1.19975e-05 0.14248)
(-7.83681e-06 -1.02115e-05 0.142516)
(-1.22568e-05 -9.82137e-06 0.142623)
(9.69507e-06 -1.0656e-05 0.142609)
(-9.96585e-06 1.48651e-05 0.142599)
(9.55443e-06 1.37054e-05 0.142621)
(3.6617e-05 -5.48029e-09 0.115481)
(-2.27322e-05 1.65152e-05 0.0995516)
(1.4004e-05 -1.18318e-05 0.138926)
(1.93153e-05 5.32648e-06 0.134822)
(-4.03561e-05 -9.97181e-07 0.116205)
(2.5605e-05 -1.69543e-05 0.0990441)
(-1.36344e-05 9.97747e-06 0.138759)
(4.33461e-06 -2.45597e-06 0.0604394)
(-4.76871e-06 -1.73594e-06 0.0602621)
(-1.21588e-06 4.28045e-05 0.116558)
(-1.44064e-05 9.43744e-06 0.139327)
(2.59793e-05 -2.6025e-05 0.0999166)
(1.02125e-05 1.59417e-05 0.13508)
(1.54053e-06 -4.63062e-05 0.116739)
(1.34732e-05 -1.69592e-05 0.139152)
(-2.56548e-05 2.51907e-05 0.0997114)
(-4.24159e-06 -9.85206e-06 0.084185)
(-2.07651e-05 -5.65013e-06 0.0843734)
(0.00016429 0.000166707 0.129611)
(3.97466e-06 9.50983e-06 0.0838109)
(1.77542e-05 8.22256e-06 0.08417)
(-1.5916e-06 -4.09901e-05 0.0971369)
(4.86067e-06 2.63395e-05 0.0708668)
(-2.65872e-07 4.37445e-05 0.0972928)
(-7.51565e-06 -2.35484e-05 0.0708036)
(-7.64191e-06 7.76874e-06 0.060491)
(7.62928e-06 -5.02047e-06 0.0604306)
(-3.04229e-05 -3.44375e-07 0.0960454)
(2.16007e-05 -2.13691e-06 0.070616)
(3.20437e-05 -1.50438e-06 0.0966662)
(-2.09122e-05 1.01524e-06 0.0703596)
(-9.31367e-06 1.35442e-05 0.142469)
(1.07553e-05 -1.81834e-05 0.142467)
(-1.26736e-05 -1.67977e-05 0.142495)
(-1.49335e-05 -1.44864e-05 0.142649)
(1.23589e-05 -1.57498e-05 0.142637)
(-1.40211e-05 2.15722e-05 0.142621)
(1.43e-05 2.00951e-05 0.14264)
(3.42867e-05 2.92334e-07 0.11548)
(-2.49636e-05 1.52811e-05 0.0995507)
(2.68734e-05 -1.78838e-05 0.138982)
(2.89586e-05 1.47149e-05 0.134837)
(-4.15424e-05 -1.40101e-06 0.116203)
(2.3978e-05 -1.68997e-05 0.099045)
(-3.02287e-05 1.88125e-05 0.138693)
(5.22844e-06 -2.44713e-06 0.0604321)
(-4.47936e-06 -7.227e-07 0.0602586)
(-1.54142e-06 3.82034e-05 0.116561)
(-2.34999e-05 2.26199e-05 0.139385)
(2.67204e-05 -2.7556e-05 0.0999141)
(1.78626e-05 3.1038e-05 0.135085)
(6.29354e-07 -4.60488e-05 0.116741)
(2.44644e-05 -3.34596e-05 0.139082)
(-2.48122e-05 2.67442e-05 0.0997109)
(-6.54671e-06 -1.02518e-05 0.0841784)
(-2.16657e-05 -3.83194e-06 0.084379)
(0.00016309 0.000166107 0.129614)
(5.29537e-06 1.14487e-05 0.0838102)
(1.792e-05 5.23861e-06 0.0841775)
(6.97267e-07 -4.13042e-05 0.0971403)
(5.51959e-06 2.78838e-05 0.0708586)
(8.47287e-07 4.26737e-05 0.0972831)
(-4.86648e-06 -2.54745e-05 0.0708023)
(-6.48894e-06 8.83224e-06 0.0604761)
(6.19835e-06 -7.33833e-06 0.0604315)
(-2.98659e-05 1.03012e-06 0.0960471)
(2.15706e-05 -3.36683e-06 0.0706234)
(3.2726e-05 -1.74295e-06 0.0966689)
(-2.02631e-05 2.18387e-06 0.070367)
(-1.06051e-05 1.78501e-05 0.14245)
(1.25743e-05 -2.39785e-05 0.142448)
(-1.56874e-05 -2.32955e-05 0.142479)
(-1.51264e-05 -1.53544e-05 0.142669)
(1.02905e-05 -1.7589e-05 0.142663)
(-1.50176e-05 2.84485e-05 0.142647)
(1.52131e-05 2.79978e-05 0.142667)
(3.16941e-05 -1.01096e-07 0.115486)
(-2.53052e-05 1.30456e-05 0.0995489)
(5.59279e-05 -2.98442e-05 0.139081)
(5.87237e-05 2.54776e-05 0.13486)
(-4.28552e-05 -1.32149e-06 0.116205)
(2.73445e-05 -1.61627e-05 0.0990485)
(-6.18414e-05 2.93134e-05 0.138589)
(7.26049e-06 9.15988e-07 0.0604276)
(-3.77232e-06 5.72563e-07 0.0602627)
(-2.89259e-07 3.67887e-05 0.116566)
(-3.9513e-05 4.81591e-05 0.139482)
(2.5405e-05 -2.68804e-05 0.0999083)
(3.03332e-05 6.10804e-05 0.135102)
(7.5951e-07 -4.68407e-05 0.116742)
(4.24882e-05 -6.44431e-05 0.138976)
(-2.2753e-05 3.07743e-05 0.0997116)
(-6.02877e-06 -9.6753e-06 0.084169)
(-1.85298e-05 -4.98929e-06 0.0843724)
(0.00016259 0.000166363 0.129619)
(4.34445e-06 8.12749e-06 0.0838133)
(1.55816e-05 9.21052e-06 0.0841881)
(1.48667e-06 -4.02798e-05 0.0971642)
(3.82087e-06 2.79447e-05 0.0708502)
(1.74511e-06 4.11497e-05 0.0972783)
(-3.05481e-06 -2.96108e-05 0.0708102)
(-5.59789e-06 9.26528e-06 0.0604683)
(2.85199e-06 -7.40388e-06 0.0604509)
(-2.87833e-05 2.4825e-06 0.0960682)
(2.26925e-05 -3.8268e-06 0.0706101)
(3.10778e-05 -8.87361e-08 0.0966487)
(-2.35739e-05 5.38281e-06 0.070369)
(-7.10896e-06 1.75009e-05 0.142426)
(1.312e-05 -2.9285e-05 0.142433)
(-1.68035e-05 -2.61942e-05 0.142454)
(-9.0455e-07 -6.27296e-06 0.142681)
(-7.86252e-06 -6.9086e-06 0.142686)
(-1.61113e-06 2.43689e-05 0.142661)
(4.14721e-06 2.24822e-05 0.14268)
(2.37466e-05 1.5899e-06 0.115499)
(-2.57844e-05 9.37824e-06 0.0995411)
(0.000113208 -4.71638e-05 0.139232)
(0.00011182 4.8723e-05 0.134892)
(-4.03916e-05 -2.82345e-06 0.116199)
(3.47322e-05 -1.27301e-05 0.0990645)
(-0.000131762 5.19542e-05 0.138415)
(8.4125e-06 2.24834e-06 0.0604075)
(-5.46977e-06 -1.77377e-06 0.0602749)
(-1.37688e-06 3.17735e-05 0.116584)
(-6.72093e-05 0.000105588 0.139641)
(2.23556e-05 -2.85366e-05 0.0999086)
(5.56435e-05 0.000117973 0.135131)
(-3.02627e-07 -4.38427e-05 0.11674)
(7.47756e-05 -0.000130253 0.138805)
(-1.79314e-05 3.6053e-05 0.0997311)
(-9.2631e-06 -5.23996e-06 0.0841434)
(-1.95578e-05 -5.23472e-06 0.0843495)
(0.000161375 0.000167103 0.129638)
(8.46168e-06 6.85181e-06 0.0838408)
(1.20007e-05 1.11188e-05 0.084217)
(-1.13204e-06 -3.95636e-05 0.0972076)
(-1.29888e-06 3.29135e-05 0.0708254)
(3.80467e-08 4.0577e-05 0.0972402)
(5.65525e-06 -3.52321e-05 0.0708309)
(2.19596e-07 1.48934e-05 0.0604352)
(-3.62857e-06 -1.64695e-05 0.0605018)
(-2.72362e-05 8.53232e-07 0.0961208)
(2.80164e-05 -9.58458e-06 0.0705891)
(3.24695e-05 -2.01628e-06 0.0966087)
(-2.89906e-05 9.30834e-06 0.0703941)
(1.82242e-05 -8.47618e-07 0.142415)
(-5.1169e-06 -1.84274e-05 0.142422)
(2.74345e-06 -1.39547e-05 0.14245)
(6.50051e-05 5.33407e-05 0.142657)
(-8.22564e-05 5.53906e-05 0.142672)
(6.0737e-05 -2.55651e-05 0.142641)
(-5.98246e-05 -2.89606e-05 0.142668)
(1.05938e-05 2.01055e-06 0.115538)
(-3.03935e-05 2.49727e-06 0.0995182)
(0.000232142 -8.29523e-05 0.139466)
(0.000216102 9.00905e-05 0.134958)
(-3.88013e-05 -3.65505e-06 0.116168)
(4.5994e-05 -3.93905e-06 0.0991073)
(-0.000276887 9.69739e-05 0.138148)
(1.29878e-05 7.13766e-06 0.0603729)
(-1.09871e-05 -8.50112e-06 0.0603242)
(2.25448e-07 1.99698e-05 0.116627)
(-0.000118056 0.000224986 0.139884)
(1.60173e-05 -3.21038e-05 0.0998855)
(9.86859e-05 0.000229833 0.135191)
(-7.45816e-07 -4.33943e-05 0.116719)
(0.00013803 -0.000274096 0.138538)
(-8.84944e-06 4.90291e-05 0.0997708)
(-1.52998e-05 -1.36913e-07 0.0840745)
(-1.1153e-05 -1.31083e-05 0.0842917)
(0.000157943 0.000166067 0.129688)
(1.42891e-05 -1.17398e-06 0.0839122)
(3.68456e-06 2.27896e-05 0.0843017)
(-2.00128e-06 -4.38741e-05 0.097324)
(-1.21018e-05 4.58909e-05 0.0707973)
(1.06612e-06 4.48334e-05 0.09715)
(2.26479e-05 -5.28326e-05 0.0708714)
(1.32192e-05 2.80751e-05 0.0603491)
(-2.46623e-05 -3.22526e-05 0.0606078)
(-3.06782e-05 -1.49822e-06 0.0962487)
(4.05894e-05 -2.18447e-05 0.0705393)
(3.92163e-05 8.04628e-07 0.0964989)
(-4.63304e-05 2.60768e-05 0.0704262)
(0.000121869 -8.83185e-05 0.142435)
(-9.17835e-05 5.67227e-05 0.142451)
(8.77349e-05 6.36905e-05 0.142476)
(0.000310611 0.000285894 0.142551)
(-0.000345822 0.000291738 0.142575)
(0.000295579 -0.000243358 0.142535)
(-0.000294057 -0.000252848 0.142559)
(-1.61965e-05 3.39416e-06 0.115624)
(-4.00953e-05 -1.52158e-05 0.099457)
(0.000494869 -0.000165376 0.139821)
(0.000425023 0.00015955 0.135106)
(-4.15971e-05 -5.40893e-06 0.116082)
(7.28024e-05 1.64661e-05 0.0991871)
(-0.000598945 0.000202859 0.137747)
(2.58769e-05 2.11061e-05 0.0602863)
(-2.7256e-05 -2.68517e-05 0.0604361)
(8.34884e-07 -4.45003e-06 0.116712)
(-0.000225137 0.00049155 0.140253)
(-2.09172e-06 -4.12517e-05 0.0998454)
(0.00016979 0.000443766 0.135318)
(-2.30898e-06 -4.35547e-05 0.11666)
(0.000269388 -0.000597845 0.13814)
(1.07467e-05 7.91581e-05 0.099848)
(-3.23616e-05 1.80716e-05 0.0839148)
(3.41601e-06 -2.59305e-05 0.0841479)
(0.000162202 0.000170225 0.129812)
(3.89088e-05 -2.67176e-05 0.0841075)
(-2.10619e-05 4.57303e-05 0.084504)
(-1.44069e-05 -6.91508e-05 0.0975747)
(-4.5591e-05 7.61984e-05 0.0707807)
(8.87172e-06 6.06638e-05 0.0969564)
(6.60384e-05 -9.35262e-05 0.0708521)
(5.44945e-05 6.47178e-05 0.0601713)
(-8.195e-05 -8.12559e-05 0.0608159)
(-5.3539e-05 -1.55584e-05 0.0965209)
(7.11619e-05 -5.21276e-05 0.0705037)
(5.46388e-05 8.42425e-06 0.0962621)
(-8.71222e-05 6.92354e-05 0.0704195)
(0.000482584 -0.000419343 0.142545)
(-0.000419282 0.000367007 0.142575)
(0.000417777 0.000381047 0.142601)
(0.0011605 0.00112057 0.142276)
(-0.00123373 0.00113504 0.142314)
(0.00112443 -0.0010563 0.14226)
(-0.00113499 -0.00107482 0.14229)
(-6.87689e-05 -2.59645e-08 0.115823)
(-7.19583e-05 -4.82979e-05 0.09937)
(0.00110679 -0.000372141 0.140335)
(0.000876823 0.000229899 0.135434)
(-5.50652e-05 -7.46383e-06 0.115885)
(0.000137838 5.53737e-05 0.0992835)
(-0.00135602 0.000475469 0.137181)
(6.2318e-05 6.22273e-05 0.0600995)
(-7.31828e-05 -8.36718e-05 0.0606544)
(-4.02972e-06 -5.15369e-05 0.116877)
(-0.000465812 0.00111399 0.140781)
(-3.46341e-05 -7.20149e-05 0.0997806)
(0.00024269 0.000904193 0.135607)
(-2.11513e-06 -6.1972e-05 0.116484)
(0.000573624 -0.00136719 0.137586)
(4.65813e-05 0.000145949 0.0999171)
(-7.64462e-05 5.91193e-05 0.0835624)
(4.60203e-05 -7.68234e-05 0.0838133)
(0.000186188 0.000199708 0.130119)
(0.000104605 -8.36476e-05 0.0845641)
(-7.52241e-05 0.000113641 0.0849456)
(-7.41216e-05 -0.00022262 0.0980594)
(-0.000135814 0.000147048 0.0710156)
(4.31946e-05 0.000115097 0.0965782)
(0.000160886 -0.000225367 0.070463)
(0.000175938 0.000158516 0.0599149)
(-0.000215082 -0.000222114 0.0611923)
(-0.000209045 -7.4926e-05 0.0970678)
(0.000140824 -0.000137119 0.0707176)
(0.000107625 4.21033e-05 0.0958164)
(-0.000219188 0.00016529 0.0700332)
(0.00174758 -0.00163057 0.142774)
(-0.00160568 0.00154515 0.142818)
(0.00160981 0.00157852 0.142838)
(0.00393235 0.00393456 0.141706)
(-0.00410427 0.00396896 0.141752)
(0.00386382 -0.00382929 0.141681)
(-0.00388213 -0.00387066 0.141714)
(-0.000106032 -2.43756e-05 0.116229)
(-0.000143713 -0.000114456 0.0994078)
(0.00270136 -0.000908612 0.140964)
(0.00208431 2.07966e-05 0.136165)
(-0.00010189 -3.17494e-06 0.11545)
(0.000348662 8.38622e-05 0.0991738)
(-0.00324121 0.00117037 0.136528)
(0.000154945 0.000178298 0.0598193)
(-0.000219928 -0.000223474 0.0610352)
(-3.66185e-05 -8.24266e-05 0.117182)
(-0.00102626 0.00273753 0.141407)
(-9.83977e-05 -0.000143799 0.0998588)
(4.37407e-05 0.00212037 0.136257)
(5.44956e-06 -0.000111639 0.116115)
(0.00127312 -0.00327082 0.136955)
(6.68782e-05 0.000353928 0.0997496)
(-0.000207688 0.000155901 0.082856)
(0.000141016 -0.000200258 0.0831715)
(0.000397307 0.000398844 0.130855)
(0.000330374 -0.000159127 0.0854878)
(-0.000143547 0.000336667 0.0858542)
(-0.000302789 -0.00147413 0.0978494)
(-0.00039312 0.000261028 0.0727501)
(0.000157811 8.98528e-05 0.0956895)
(7.90177e-05 -0.0013265 0.0681745)
(0.00048049 0.000312567 0.0602434)
(-0.000208639 -0.00126965 0.0623674)
(-0.00144698 -0.000296988 0.0977885)
(0.000258252 -0.000378598 0.0725428)
(9.1106e-05 0.000156474 0.0953163)
(-0.00132322 9.34418e-05 0.0681469)
(0.00655212 -0.00639256 0.142326)
(-0.00622298 0.00623703 0.142386)
(0.00624317 0.00628475 0.142399)
(0.0100909 0.0101764 0.137377)
(-0.0105107 0.0102554 0.137287)
(0.00994223 -0.0101661 0.137348)
(-0.00996228 -0.0102171 0.137394)
(0.000857716 -0.000166676 0.116157)
(-6.40695e-05 -0.000293512 0.10066)
(0.00778692 -0.00225744 0.140904)
(0.00692562 -0.00255765 0.137309)
(2.74521e-05 -1.13652e-05 0.114529)
(0.00152379 -0.000292134 0.0973889)
(-0.00745144 0.00252574 0.13595)
(0.000316503 0.000465705 0.0601272)
(-0.0012629 -0.000222308 0.0623633)
(-0.000212525 0.000890249 0.116111)
(-0.0022993 0.00781876 0.141228)
(-0.000283777 -6.22565e-05 0.101153)
(-0.00242326 0.00687807 0.136884)
(1.39389e-05 2.85555e-05 0.114975)
(0.0024357 -0.00752364 0.13578)
(-0.000326429 0.00150992 0.0972963)
(-0.000399649 0.000284867 0.0821304)
(0.000283377 -0.000397728 0.0825633)
(0.0021319 0.00214778 0.131903)
(0.00144256 0.000348838 0.0870603)
(0.000371038 0.00144916 0.0871186)
(-0.00136686 -0.0249202 0.100302)
(-0.000756672 -0.00369186 0.0455433)
(-0.000307086 -0.00641647 0.0884583)
(-0.0074456 -0.0165678 0.0873074)
(0.00010111 -0.00188434 0.0352191)
(0.00788871 -0.0154856 0.085111)
(-0.0248806 -0.00137084 0.100296)
(-0.00369899 -0.000758309 0.0455403)
(-0.00642884 -0.0003133 0.0885015)
(-0.0165836 -0.00746633 0.0873072)
(-0.00565428 -0.00556983 0.114899)
(-0.00377735 -0.0180719 0.135113)
(-0.0181474 -0.00401585 0.135242)
(-0.0247148 -0.0249479 0.123418)
(-0.00683313 -0.00673118 0.136991)
(-0.00456186 -0.0220069 0.119815)
(-0.0219881 -0.00468372 0.119888)
(0.0278253 -0.00261522 0.108089)
(0.00591153 -0.00312244 0.0876834)
(0.0281541 -0.0049065 0.129272)
(0.0311952 -0.022834 0.119838)
(0.00513859 -0.000390389 0.107657)
(0.0208424 -0.0100311 0.100438)
(0.0320554 -0.00497411 0.119965)
(-0.00189857 7.60555e-05 0.0352144)
(-0.0155041 0.00784054 0.0850815)
(-0.00280298 0.0274694 0.108011)
(-0.0046977 0.028385 0.129147)
(-0.00311299 0.00585394 0.0876705)
(-0.0219529 0.0308614 0.119768)
(-0.00027924 0.00519805 0.107536)
(-0.00472615 0.032176 0.119822)
(-0.0100884 0.0208619 0.100515)
(0.00339836 0.00210007 0.0772682)
(0.00212782 0.00337776 0.0773963)
(0.0246624 0.0246048 0.117127)
(0.0175908 0.00954634 0.093698)
(0.00961083 0.0175806 0.0937518)
(-5.74014e-06 -5.87471e-06 0.060418)
(1.06544e-05 9.82326e-06 0.0603651)
(-6.82364e-06 -8.59712e-07 0.0601967)
(4.64117e-06 4.23637e-07 0.0603673)
(0.000160047 0.000160824 0.129765)
(-1.90087e-05 -6.30963e-06 0.0841993)
(-7.10124e-06 -1.18157e-05 0.0837456)
(2.02507e-05 3.83974e-06 0.0842551)
(3.61208e-06 8.80197e-06 0.0841215)
(8.22372e-06 -2.87184e-05 0.0705702)
(-7.6639e-06 1.05306e-07 0.13478)
(2.76708e-05 -2.85446e-05 0.0993037)
(3.02202e-07 3.47227e-05 0.0966417)
(-3.66692e-06 -2.62266e-05 0.0707884)
(6.36498e-06 2.58618e-05 0.0706014)
(-1.67431e-07 -5.01627e-05 0.097128)
(6.9159e-07 3.48685e-05 0.096648)
(3.84362e-06 -2.63261e-05 0.0708066)
(-7.12926e-06 2.5607e-05 0.0706223)
(5.77054e-07 -5.07629e-05 0.0971354)
(6.89034e-07 4.18209e-05 0.116109)
(-1.21337e-06 7.78269e-06 0.13511)
(-2.68085e-05 -2.6654e-05 0.0997048)
(1.27507e-06 4.29699e-06 0.139279)
(2.32056e-05 2.36038e-05 0.0995101)
(-4.02818e-06 1.52016e-06 0.13924)
(-9.59583e-07 -4.44111e-05 0.116562)
(1.4931e-07 4.07856e-05 0.116107)
(1.66723e-06 7.46041e-06 0.135089)
(2.7141e-05 -2.63447e-05 0.0997013)
(-2.57137e-06 3.73261e-06 0.139268)
(-2.40628e-05 2.45602e-05 0.0995063)
(2.74489e-06 3.22847e-06 0.13923)
(2.72724e-06 -4.44896e-05 0.116565)
(0.00016411 -0.000161155 0.129593)
(2.20349e-05 -4.56135e-06 0.0839579)
(4.74063e-06 -1.09399e-05 0.0838258)
(4.55649e-06 -1.20876e-06 0.0602472)
(6.46096e-06 -5.73167e-06 0.0604273)
(-1.18831e-05 9.60345e-06 0.0603751)
(-0.00015847 0.000158905 0.129749)
(2.04212e-05 -5.03939e-06 0.084173)
(6.47188e-06 -1.14036e-05 0.0838316)
(-2.19586e-05 4.40567e-06 0.0842388)
(-4.60768e-06 9.21538e-06 0.084199)