/*--------------------------------*- C++ -*----------------------------------*\
| =========                 |                                                 |
| \\      /  F ield         | OpenFOAM: The Open Source CFD Toolbox           |
|  \\    /   O peration     | Version:  2206                                  |
|   \\  /    A nd           | Website:  www.openfoam.com                      |
|    \\/     M anipulation  |                                                 |
\*---------------------------------------------------------------------------*/
FoamFile
{
    version     2.0;
    format      ascii;
    arch        "LSB;label=32;scalar=64";
    class       volVectorField;
    location    "100";
    object      wallShearStress;
}
// * * * * * * * * * * * * * * * * * * * * * * * * * * * * * * * * * * * * * //

dimensions      [0 2 -2 0 0 0 0];

internalField   uniform (0 0 0);

boundaryField
{
    topPatch
    {
        type            calculated;
        value           nonuniform List<vector> 0();
    }
    wall
    {
        type            calculated;
        value           nonuniform List<vector> 
7778
(
(-4.64307e-06 1.7383e-05 -0.000221069)
(-5.61082e-07 -6.37285e-06 -0.000118849)
(1.73995e-05 -4.6871e-06 -0.000221026)
(-6.36542e-06 -5.82014e-07 -0.000118861)
(4.61526e-06 1.7398e-05 -0.000221187)
(1.73355e-05 4.59583e-06 -0.000221048)
(-1.7346e-05 -4.70991e-06 -0.000221144)
(-1.73815e-05 4.70042e-06 -0.000221134)
(-4.6109e-06 -1.73736e-05 -0.000221065)
(-5.45798e-07 6.36544e-06 -0.00011888)
(4.63311e-06 -1.74139e-05 -0.000221083)
(9.26989e-06 4.47209e-05 -0.000187253)
(-1.89549e-05 3.90548e-07 -0.000276288)
(-5.92687e-06 8.04765e-06 -0.000222724)
(-2.77621e-05 3.48444e-05 -0.000215934)
(4.45696e-05 8.91554e-06 -0.000187103)
(5.05591e-07 -1.86896e-05 -0.00027604)
(8.13983e-06 -5.68259e-06 -0.000222682)
(3.4954e-05 -2.75766e-05 -0.000215792)
(1.86056e-05 4.50573e-07 -0.000275452)
(2.74031e-05 3.52109e-05 -0.000215867)
(5.37494e-06 8.32324e-06 -0.000222745)
(4.1904e-07 1.86031e-05 -0.000275531)
(3.51346e-05 2.74333e-05 -0.000215898)
(8.2631e-06 5.4259e-06 -0.000222849)
(-9.02189e-06 4.45851e-05 -0.000187231)
(-3.92152e-07 1.87244e-05 -0.000275952)
(-8.02886e-06 5.74485e-06 -0.000222515)
(-3.48246e-05 2.75988e-05 -0.000215611)
(4.46893e-05 -9.31422e-06 -0.000187268)
(-4.45627e-05 8.88159e-06 -0.000187026)
(-4.44381e-05 -8.61405e-06 -0.000186941)
(1.89504e-05 -3.48936e-07 -0.00027631)
(5.96741e-06 -7.95048e-06 -0.000222801)
(2.78095e-05 -3.47628e-05 -0.000215896)
(9.29867e-06 -4.4714e-05 -0.000187274)
(-8.96973e-06 -4.45915e-05 -0.000187159)
(-4.85023e-07 -1.85271e-05 -0.000275377)
(-3.52354e-05 -2.73666e-05 -0.000215839)
(-8.33415e-06 -5.27279e-06 -0.000222699)
(-1.87072e-05 -3.45406e-07 -0.000275676)
(-2.74913e-05 -3.50964e-05 -0.00021597)
(-5.55189e-06 -8.23258e-06 -0.000222898)
(-9.21105e-06 1.16103e-05 -0.00015469)
(-1.85082e-06 2.10026e-05 -0.000145589)
(1.16052e-05 -9.21459e-06 -0.000154653)
(9.21587e-06 1.15988e-05 -0.000154782)
(1.84627e-06 2.10101e-05 -0.000145697)
(1.15284e-05 9.18977e-06 -0.000154704)
(2.09947e-05 1.86957e-06 -0.00014562)
(-1.15094e-05 -9.1388e-06 -0.000154756)
(-1.55887e-05 1.00953e-05 -0.000159999)
(-1.15546e-05 9.13924e-06 -0.000154628)
(-9.22168e-06 -1.15808e-05 -0.000154707)
(1.00771e-05 -1.56088e-05 -0.000159977)
(9.19435e-06 -1.16299e-05 -0.000154663)
(5.42624e-07 -6.36549e-06 -0.000118934)
(-6.37851e-06 5.79428e-07 -0.000118986)
(1.0085e-05 1.55783e-05 -0.000159828)
(2.10042e-05 -1.86845e-06 -0.000145542)
(1.5589e-05 1.00444e-05 -0.000159788)
(1.55915e-05 -1.00416e-05 -0.00015989)
(6.37228e-06 -5.49066e-07 -0.000119049)
(-2.09932e-05 -1.80386e-06 -0.000145705)
(6.37807e-06 5.35846e-07 -0.000118904)
(-2.09957e-05 1.81929e-06 -0.000145523)
(-1.55776e-05 -1.0068e-05 -0.000159773)
(-1.88125e-06 -2.1e-05 -0.000145648)
(5.29531e-07 6.37099e-06 -0.00011881)
(1.8369e-06 -2.09994e-05 -0.000145589)
(3.14776e-06 1.81696e-05 -0.000160683)
(1.81484e-05 3.11641e-06 -0.000160681)
(-3.1618e-06 1.81622e-05 -0.000160752)
(-1.01083e-05 1.55939e-05 -0.000160006)
(1.80985e-05 -3.12628e-06 -0.00016076)
(-1.80779e-05 3.16182e-06 -0.00016083)
(-1.80716e-05 -3.18867e-06 -0.000160795)
(3.15219e-06 -1.81673e-05 -0.00016068)
(-3.18473e-06 -1.81797e-05 -0.000160655)
(-1.01068e-05 -1.5584e-05 -0.000159872)
(-9.38522e-09 -7.27328e-10 -0.000112243)
(-1.67816e-08 7.41571e-10 -0.000105421)
(2.2391e-08 -4.24765e-09 -0.000105459)
(8.24242e-09 8.87128e-10 -0.000112164)
(-2.0199e-08 -7.07831e-09 -0.00011215)
(-1.75304e-09 -1.57712e-09 -0.000105536)
(2.60192e-09 -2.52983e-09 -0.00010543)
(-3.26963e-09 -2.92773e-09 -0.000112338)
(7.34377e-10 8.91957e-10 -0.00011221)
(-1.1104e-08 -9.22692e-10 -0.000105395)
(2.68935e-08 -5.24507e-09 -0.000105458)
(1.87152e-08 5.83478e-09 -0.000112153)
(-1.5252e-08 -4.37445e-09 -0.000112163)
(-3.15231e-09 1.94768e-09 -0.000105551)
(2.70671e-09 1.60434e-09 -0.000105442)
(-4.60009e-09 -3.75474e-09 -0.000112351)
(1.5029e-09 -5.95255e-10 -0.000112225)
(-1.6645e-08 1.08192e-10 -0.000105401)
(1.60577e-08 -8.81903e-11 -0.000105474)
(2.29611e-08 7.9013e-09 -0.000112173)
(-6.16535e-09 5.3865e-10 -0.00011217)
(-3.61434e-09 1.31076e-09 -0.000105561)
(3.11434e-09 -9.22536e-10 -0.00010546)
(1.89074e-09 6.1835e-09 -0.00011237)
(4.88294e-09 5.14995e-09 -0.000112244)
(-1.08391e-08 -1.86599e-09 -0.000105419)
(2.25877e-08 -2.35058e-09 -0.000105492)
(1.51467e-08 4.21111e-09 -0.000112187)
(-2.09979e-08 -5.86513e-09 -0.0001122)
(-4.2134e-09 4.99807e-09 -0.000105583)
(2.53013e-09 3.1499e-09 -0.000105483)
(8.84345e-10 4.90968e-09 -0.000112373)
(2.62178e-09 1.50091e-09 -0.000112243)
(-1.69081e-08 8.02948e-10 -0.000105418)
(1.90549e-08 -1.03347e-09 -0.000105482)
(1.43697e-08 3.28568e-09 -0.000112166)
(-9.47214e-09 -1.98384e-09 -0.000112181)
(-3.82933e-09 1.66242e-09 -0.000105591)
(4.38775e-09 -2.74145e-09 -0.000105492)
(-5.11434e-09 -3.69093e-09 -0.000112359)
(-2.86755e-10 -3.77742e-09 -0.000112246)
(-1.2321e-08 -1.12803e-09 -0.000105392)
(1.74609e-08 1.44384e-09 -0.000105489)
(1.54465e-08 3.29081e-09 -0.000112149)
(-1.33581e-08 -2.25486e-09 -0.00011222)
(-4.28948e-09 4.04208e-09 -0.000105573)
(5.93007e-09 -1.86086e-09 -0.000105497)
(-5.72814e-09 -4.62674e-09 -0.00011233)
(2.81828e-09 -4.83182e-10 -0.000112275)
(-6.6108e-09 -4.27075e-09 -0.000105373)
(4.69343e-09 7.3477e-09 -0.000105529)
(5.29525e-09 -3.44595e-09 -0.000112082)
(2.4294e-09 8.80414e-09 -0.000112289)
(-8.20827e-09 9.07663e-09 -0.000105538)
(8.39426e-09 -3.39786e-09 -0.000105535)
(-9.45609e-09 -9.65657e-09 -0.000112275)
(1.04664e-08 1.12903e-08 -0.000112343)
(-2.2546e-09 -1.06484e-08 -0.000105304)
(-1.88588e-08 2.25469e-08 -0.000105599)
(-1.6909e-08 -2.08025e-08 -0.000111945)
(4.17286e-08 3.46602e-08 -0.000112446)
(-1.65837e-08 2.28401e-08 -0.000105446)
(2.29757e-08 -2.7614e-08 -0.000105587)
(-2.83057e-08 -3.90472e-08 -0.000112123)
(3.64884e-08 4.84511e-08 -0.000112503)
(5.678e-08 -4.18385e-08 -0.000105222)
(-7.57967e-08 5.18254e-08 -0.000105715)
(-1.10155e-07 -8.07628e-08 -0.000111653)
(1.84231e-07 1.25998e-07 -0.000112846)
(-4.43665e-08 6.88958e-08 -0.000105337)
(5.59171e-08 -8.96679e-08 -0.000105709)
(-9.09196e-08 -1.33052e-07 -0.000111821)
(1.21261e-07 1.8386e-07 -0.000112912)
(2.43507e-07 -1.14223e-07 -0.000105341)
(-2.20866e-07 1.33348e-07 -0.000105793)
(-4.89969e-07 -3.07147e-07 -0.000111206)
(6.62164e-07 4.1668e-07 -0.0001138)
(-1.08304e-07 2.35077e-07 -0.000105443)
(1.41713e-07 -2.48386e-07 -0.000105797)
(-3.04867e-07 -4.88459e-07 -0.000111326)
(4.36043e-07 7.01938e-07 -0.000113887)
(8.20863e-07 -3.59169e-07 -0.000109615)
(-1.16618e-06 6.11719e-07 -9.42708e-05)
(-1.86494e-06 -1.08955e-06 -0.00011397)
(2.35305e-06 8.61098e-07 -0.000108671)
(-3.3155e-07 7.3252e-07 -0.000109652)
(6.32589e-07 -1.21528e-06 -9.4299e-05)
(-1.05501e-06 -1.79487e-06 -0.00011406)
(8.76584e-07 2.39067e-06 -0.000108663)
(1.06596e-05 2.29933e-05 -0.00011349)
(4.99803e-06 -2.72755e-06 -0.000122496)
(2.29876e-05 1.06649e-05 -0.000113503)
(-2.64609e-06 5.15824e-06 -0.000122446)
(1.71384e-08 -5.36133e-09 -0.000112171)
(-2.37955e-08 9.26642e-09 -0.00011218)
(7.34909e-09 -7.65999e-09 -0.000112119)
(-2.35601e-09 2.63873e-09 -0.000112225)
(-4.71471e-09 3.41691e-09 -0.000105551)
(1.04294e-08 2.53432e-09 -0.000105483)
(-2.92074e-08 6.05634e-09 -0.000105435)
(-1.28547e-08 2.67596e-09 -0.00010551)
(2.73559e-08 4.5092e-09 -0.000105461)
(-2.44965e-09 -1.44046e-09 -0.000112226)
(-2.70741e-08 -1.03666e-08 -0.000112183)
(2.45027e-08 8.8589e-09 -0.000112196)
(-5.42412e-09 -8.90633e-09 -0.000112203)
(3.46813e-09 4.81985e-09 -0.000112327)
(4.83476e-09 -3.29349e-09 -0.000105425)
(-3.98944e-09 1.81338e-09 -0.000105517)
(1.03025e-09 -3.61368e-09 -0.000105512)
(-3.08264e-09 -2.87054e-09 -0.00010561)
(-1.05929e-09 5.48537e-09 -0.00010553)
(-2.85637e-09 -1.13889e-09 -0.000105478)
(-1.76536e-09 9.23558e-10 -0.000105503)
(3.75732e-09 3.28318e-09 -0.000105613)
(-5.83995e-09 7.10601e-09 -0.000105452)
(2.04065e-09 2.46113e-10 -0.000105559)
(6.20438e-10 5.86657e-11 -0.000112213)
(-5.65619e-09 -1.07898e-08 -0.000112322)
(2.32727e-08 8.61627e-09 -0.000112227)
(-3.51296e-08 -1.47586e-08 -0.000112242)
(2.51672e-08 3.77157e-09 -0.00010553)
(-2.70953e-08 -4.54884e-09 -0.000105476)
(-2.08113e-08 2.10153e-10 -0.000105485)
(2.47371e-08 -3.45397e-09 -0.000105433)
(-1.27392e-09 -3.35625e-10 -0.000112161)
(-8.13341e-09 5.97483e-10 -0.000112208)
(-8.03544e-09 1.01537e-08 -0.000112143)
(1.85434e-09 -1.34869e-09 -0.000112263)
(-2.44918e-08 9.01726e-09 -0.000112149)
(2.43791e-08 -9.23685e-09 -0.000112164)
(-1.02955e-08 9.56506e-10 -0.000112155)
(2.01319e-08 -7.30425e-09 -0.000112141)
(6.13733e-10 -3.04413e-09 -0.000112249)
(5.07247e-09 -8.69544e-09 -0.000112119)
(1.97619e-08 -7.35163e-09 -0.000112138)
(-1.17574e-08 2.44822e-09 -0.000112128)
(5.21981e-09 -5.6384e-09 -0.000112128)
(1.00291e-10 -5.3272e-09 -0.00011224)
(1.20967e-08 -3.78307e-10 -0.000105444)
(-2.68633e-08 -6.13001e-09 -0.000105482)
(2.21294e-08 -3.61172e-09 -0.000105454)
(-1.01591e-08 -1.87557e-09 -0.000105393)
(-2.36336e-08 -4.29841e-09 -0.00010548)
(5.50985e-09 -4.32104e-09 -0.000105421)
(1.50548e-09 4.52313e-10 -0.000112335)
(9.14607e-11 1.53734e-09 -0.000112224)
(-1.70182e-08 -5.66426e-09 -0.000112154)
(1.26253e-08 2.02625e-09 -0.000112147)
(-6.45696e-09 -7.82594e-09 -0.00011223)
(3.7085e-09 2.91566e-09 -0.000112336)
(-5.04269e-09 -4.26583e-09 -0.000105621)
(4.36384e-10 -3.21688e-09 -0.000105511)
(3.63714e-09 -6.64626e-10 -0.00010544)
(-2.1513e-09 -5.02979e-09 -0.000105533)
(1.62222e-09 -4.91503e-09 -0.00010552)
(-5.64511e-09 -4.42791e-09 -0.000105617)
(1.82026e-09 -3.20685e-09 -0.000105614)
(-1.8947e-09 6.90718e-10 -0.000105515)
(9.63358e-11 7.93705e-09 -0.000105561)
(-4.71743e-10 -2.80711e-09 -0.000105456)
(-6.66649e-09 -9.00536e-09 -0.000105523)
(3.1213e-09 -1.2752e-09 -0.000105617)
(-4.14827e-09 3.90484e-09 -0.000105459)
(4.81891e-09 -1.84323e-09 -0.000105557)
(4.45362e-10 4.45883e-09 -0.000112221)
(2.3011e-08 8.12139e-09 -0.000112234)
(3.64109e-11 -1.82482e-09 -0.000112224)
(-7.49295e-09 -8.14392e-09 -0.000112329)
(1.61269e-08 5.08899e-09 -0.000112224)
(-1.47655e-08 -3.21251e-09 -0.000112227)
(-2.21094e-09 3.92317e-09 -0.000105481)
(2.90147e-08 7.00678e-09 -0.000105534)
(9.28666e-09 1.68898e-09 -0.000105429)
(-2.13421e-08 2.38556e-09 -0.000105472)
(1.9649e-08 3.59011e-09 -0.00010552)
(-9.04233e-09 2.75283e-09 -0.00010547)
(-2.01664e-08 3.99643e-09 -0.000105457)
(8.27956e-09 1.83664e-09 -0.000105418)
(-4.33872e-09 1.06996e-08 -0.000112268)
(5.43714e-10 -7.13565e-10 -0.000112145)
(1.33845e-09 4.03309e-09 -0.000112139)
(-1.70858e-08 3.63519e-09 -0.000112148)
(-2.2246e-09 1.38411e-09 -0.000112148)
(2.1929e-09 -2.3195e-10 -0.00011226)
(-1.18948e-08 4.42479e-09 -0.000112144)
(6.67196e-09 5.77035e-10 -0.00011215)
(-1.03696e-08 1.59844e-09 -0.000112131)
(1.89571e-08 -5.99418e-09 -0.000112148)
(-2.20019e-09 1.74092e-09 -0.000112254)
(3.0474e-09 -3.06282e-09 -0.000112127)
(8.6754e-09 -1.46189e-09 -0.000112151)
(-1.50926e-08 4.19118e-09 -0.000112139)
(4.13601e-09 -5.01943e-09 -0.000112139)
(-1.90374e-09 1.96134e-09 -0.000112257)
(1.27727e-08 -1.82072e-10 -0.000105421)
(-2.06494e-08 -2.46103e-09 -0.000105482)
(1.72365e-08 -1.90697e-09 -0.00010546)
(-9.60645e-09 -1.28438e-09 -0.000105397)
(-1.39283e-08 -3.38727e-11 -0.000105498)
(1.74367e-08 4.97035e-10 -0.000105421)
(1.98229e-10 -2.09209e-09 -0.000112359)
(-6.91723e-09 -1.04091e-08 -0.000112233)
(-1.31929e-08 -1.89371e-09 -0.000112184)
(2.08729e-08 7.03372e-09 -0.000112158)
(-7.90533e-09 -1.04708e-08 -0.000112235)
(-4.75891e-11 -2.64491e-09 -0.000112352)
(-5.75443e-09 -5.5715e-09 -0.000105629)
(3.03899e-09 6.5379e-10 -0.000105518)
(2.63303e-09 5.47686e-10 -0.000105451)
(-2.8902e-09 9.98025e-10 -0.000105553)
(5.23132e-09 4.96345e-09 -0.000105536)
(-2.55815e-10 4.28102e-09 -0.000105628)
(-2.84869e-10 -7.34432e-09 -0.000105634)
(-4.97646e-09 -6.16399e-09 -0.000105525)
(3.67421e-11 6.23951e-09 -0.000105569)
(-2.23328e-09 -1.09324e-11 -0.000105465)
(-7.11187e-09 -1.11506e-08 -0.00010553)
(1.88447e-10 -7.36283e-09 -0.000105631)
(-4.40283e-09 2.48229e-09 -0.000105486)
(2.9143e-09 6.35851e-10 -0.000105577)
(-1.26858e-08 -3.17336e-09 -0.00011222)
(1.13136e-08 1.57205e-09 -0.000112236)
(4.9646e-09 6.20052e-09 -0.00011224)
(-4.93975e-09 -7.8075e-09 -0.000112344)
(9.50246e-09 1.41288e-09 -0.000112231)
(-2.58281e-08 -1.0499e-08 -0.000112231)
(-1.81897e-08 -1.48603e-09 -0.000105465)
(1.55144e-08 2.91796e-10 -0.000105525)
(1.39666e-08 4.34493e-10 -0.000105396)
(-1.02266e-08 -7.33447e-10 -0.00010545)
(1.33711e-08 -2.59622e-10 -0.00010552)
(-2.09982e-08 -3.02766e-09 -0.000105464)
(-1.82771e-08 2.07078e-09 -0.000105454)
(2.41325e-08 -3.97305e-09 -0.000105392)
(6.29615e-10 2.93356e-10 -0.00011228)
(-3.43168e-09 4.3859e-09 -0.000112156)
(1.92492e-08 -5.57978e-09 -0.000112131)
(-9.01636e-09 3.58163e-10 -0.000112142)
(-1.32811e-09 -1.75556e-09 -0.000112169)
(2.48027e-09 -1.73752e-09 -0.000112282)
(-1.30687e-08 3.37619e-09 -0.000112144)
(2.09722e-08 -8.42366e-09 -0.000112135)
(-2.17426e-08 7.21115e-09 -0.000112144)
(9.83383e-09 -1.28465e-09 -0.000112163)
(-2.36507e-09 9.65304e-10 -0.000112266)
(3.691e-09 -3.16101e-09 -0.000112149)
(1.72499e-08 -5.30068e-09 -0.000112169)
(-2.18731e-08 8.06145e-09 -0.000112155)
(4.90771e-09 -5.28405e-09 -0.000112167)
(-4.89566e-10 6.51468e-10 -0.000112278)
(1.78003e-08 5.57549e-10 -0.000105434)
(-1.24135e-08 -9.24941e-11 -0.000105485)
(2.28401e-08 -3.76386e-09 -0.000105476)
(-1.79379e-08 1.27652e-09 -0.000105413)
(-1.53988e-08 -6.57054e-10 -0.0001055)
(2.17743e-08 3.58415e-09 -0.000105435)
(-1.66891e-10 -3.28942e-09 -0.00011236)
(1.407e-10 1.52754e-09 -0.000112242)
(-1.62133e-08 -4.6095e-09 -0.000112195)
(2.12826e-08 8.42107e-09 -0.000112177)
(-3.90823e-09 -2.06313e-09 -0.000112246)
(2.33737e-09 3.10995e-09 -0.000112353)
(-1.06494e-09 4.67869e-09 -0.000105648)
(4.42188e-09 5.34755e-09 -0.000105542)
(3.37381e-09 8.13414e-11 -0.000105476)
(-3.76505e-11 -4.32629e-09 -0.000105573)
(4.36683e-09 4.34212e-09 -0.000105555)
(1.27525e-10 5.24307e-09 -0.000105655)
(-1.62959e-09 -1.11203e-08 -0.000105638)
(-3.79742e-09 -1.77142e-10 -0.00010554)
(1.42809e-09 2.78104e-09 -0.000105595)
(-2.47119e-09 -2.69716e-09 -0.000105488)
(-3.95988e-09 1.75399e-09 -0.000105545)
(1.47137e-09 -3.28898e-09 -0.000105643)
(-1.15112e-09 -4.89053e-09 -0.000105492)
(3.52543e-09 -2.08954e-09 -0.000105594)
(-1.94283e-08 -7.0411e-09 -0.000112229)
(1.23458e-08 2.6786e-09 -0.000112248)
(5.28861e-09 5.69555e-09 -0.000112254)
(-3.41617e-09 -4.01857e-09 -0.000112364)
(7.49275e-09 -9.75512e-10 -0.000112257)
(-2.09043e-08 -8.63591e-09 -0.000112247)
(-2.04896e-08 -2.69492e-09 -0.000105464)
(1.61838e-08 1.51765e-09 -0.000105527)
(1.74884e-08 -9.38298e-10 -0.000105393)
(-9.36113e-09 -1.86196e-09 -0.000105457)
(1.10952e-08 -1.50515e-09 -0.000105533)
(-1.83615e-08 -2.50548e-09 -0.000105474)
(-1.85411e-08 1.55837e-09 -0.000105473)
(2.1229e-08 -2.86785e-09 -0.000105409)
(1.10906e-09 -1.3294e-09 -0.0001123)
(1.52236e-09 -5.32385e-09 -0.000112173)
(1.73275e-08 -4.00289e-09 -0.000112132)
(4.50246e-09 -7.60284e-09 -0.000112156)
(7.28835e-10 -7.09866e-09 -0.000112176)
(3.31274e-09 -4.42098e-09 -0.000112292)
(-1.1124e-08 1.56127e-09 -0.000112169)
(2.66986e-08 -1.10434e-08 -0.000112161)
(-1.30617e-08 3.65757e-09 -0.000112164)
(2.23645e-08 -7.12669e-09 -0.000112187)
(-3.48604e-10 -1.51839e-10 -0.000112287)
(2.97224e-09 -1.05831e-09 -0.000112172)
(1.34402e-08 -3.03668e-09 -0.000112183)
(-1.16026e-08 1.98041e-09 -0.000112167)
(3.31986e-09 -1.81659e-09 -0.000112176)
(-3.21054e-09 3.07406e-09 -0.000112288)
(1.65386e-08 1.41225e-09 -0.00010544)
(-1.99439e-08 -1.60533e-09 -0.000105501)
(1.54088e-08 -2.24547e-10 -0.000105481)
(-1.2633e-08 -7.98321e-10 -0.000105424)
(-2.2102e-08 -2.8022e-09 -0.000105495)
(1.19848e-08 -2.11508e-09 -0.000105433)
(3.18121e-09 4.73602e-09 -0.00011237)
(-2.47651e-09 -2.93175e-09 -0.000112236)
(-2.11453e-08 -6.8258e-09 -0.00011219)
(1.51272e-08 3.24482e-09 -0.000112174)
(-3.30189e-09 -1.55645e-09 -0.000112243)
(5.815e-09 5.84611e-09 -0.000112348)
(-1.34172e-09 1.96719e-09 -0.000105663)
(2.55004e-09 -2.05142e-09 -0.000105552)
(3.40449e-09 1.19989e-09 -0.000105484)
(-3.82522e-09 1.45995e-09 -0.000105587)
(1.64678e-09 -3.24131e-09 -0.000105554)
(-3.57576e-09 -1.73849e-09 -0.000105657)
(3.49673e-09 4.66111e-09 -0.000105655)
(1.47661e-10 5.14668e-09 -0.000105536)
(3.47512e-09 -3.51128e-09 -0.000105605)
(-1.55017e-09 -3.07118e-09 -0.000105498)
(-3.32181e-09 -1.98533e-10 -0.000105542)
(6.35969e-09 3.72889e-09 -0.000105636)
(-4.1898e-09 2.33984e-09 -0.000105501)
(3.95748e-09 -4.44417e-09 -0.000105602)
(-2.13975e-08 -8.08215e-09 -0.000112242)
(5.51149e-09 -1.42183e-09 -0.00011226)
(5.11013e-10 -2.10856e-09 -0.000112251)
(-7.58428e-09 -9.39619e-09 -0.000112353)
(6.06142e-09 -7.0461e-10 -0.000112252)
(-2.86102e-08 -1.13782e-08 -0.00011225)
(-2.2109e-08 -3.35556e-09 -0.00010547)
(1.16092e-08 -1.08772e-09 -0.000105533)
(1.6165e-08 -1.14765e-09 -0.000105416)
(-1.4828e-08 1.89549e-10 -0.000105469)
(9.06203e-09 -1.92097e-09 -0.000105527)
(-2.27882e-08 -2.73442e-09 -0.000105473)
(-1.33709e-08 -3.66292e-10 -0.000105463)
(1.92215e-08 -1.46064e-09 -0.000105406)
(5.65812e-09 -9.11771e-09 -0.000112307)
(1.89266e-09 -6.16483e-09 -0.000112183)
(1.88371e-08 -6.94847e-09 -0.00011216)
(-1.23802e-08 2.95178e-09 -0.000112165)
(-3.81365e-09 2.92029e-09 -0.000112184)
(6.24538e-09 -9.20648e-09 -0.000112298)
(-1.03366e-08 1.28112e-09 -0.000112166)
(1.84455e-08 -5.66716e-09 -0.000112148)
(-1.6848e-08 5.23848e-09 -0.000112163)
(1.36551e-08 -3.81303e-09 -0.000112186)
(-4.36157e-09 3.98793e-09 -0.000112291)
(2.51041e-09 -2.17863e-09 -0.00011219)
(1.03898e-08 1.20359e-10 -0.000112196)
(-1.57155e-08 4.10512e-09 -0.000112149)
(2.70661e-09 9.96913e-10 -0.000112197)
(-4.73886e-09 5.49186e-09 -0.000112284)
(1.06682e-08 -4.27855e-10 -0.000105429)
(-1.63278e-08 -1.69713e-09 -0.000105485)
(1.35831e-08 1.30153e-09 -0.000105477)
(-1.51476e-08 -4.59671e-10 -0.000105405)
(-1.22776e-08 1.14328e-09 -0.000105497)
(1.80925e-08 -6.46007e-10 -0.000105413)
(6.48652e-09 8.10411e-09 -0.000112357)
(8.6623e-10 1.81775e-09 -0.00011224)
(-1.13106e-08 -2.77278e-10 -0.000112205)
(2.10539e-08 6.16822e-09 -0.000112153)
(-6.72225e-09 -8.22947e-09 -0.000112252)
(4.77874e-09 4.26294e-09 -0.000112323)
(-5.61249e-09 -4.84686e-09 -0.000105656)
(3.57765e-09 -1.70697e-09 -0.000105549)
(5.34173e-09 -1.14441e-09 -0.000105493)
(-3.44774e-09 -5.57779e-10 -0.000105582)
(1.5102e-09 -9.00579e-10 -0.000105552)
(-3.71899e-09 -1.52627e-09 -0.000105641)
(3.73084e-09 5.67173e-10 -0.000105645)
(-1.46793e-09 4.66881e-09 -0.000105535)
(8.53483e-10 4.94009e-09 -0.000105603)
(-2.95335e-09 -1.99961e-09 -0.000105491)
(-4.01434e-09 -8.66539e-10 -0.000105541)
(4.99297e-09 2.18885e-09 -0.00010562)
(-2.82199e-09 -2.88486e-09 -0.000105488)
(4.8037e-09 2.59863e-11 -0.000105577)
(-2.06054e-08 -7.01766e-09 -0.000112231)
(5.74455e-09 -9.23232e-10 -0.000112255)
(3.40918e-09 3.4605e-09 -0.000112257)
(-8.66598e-09 -1.25869e-08 -0.000112335)
(8.37473e-09 -7.97238e-10 -0.000112257)
(-2.65911e-08 -1.02809e-08 -0.000112224)
(-2.51952e-08 -4.69529e-09 -0.000105466)
(1.14632e-08 -1.72958e-09 -0.000105528)
(1.98382e-08 -1.59987e-09 -0.000105398)
(-1.01013e-08 -1.50871e-09 -0.000105455)
(1.24404e-08 -1.48981e-09 -0.000105527)
(-2.35033e-08 -2.2159e-09 -0.000105455)
(-1.06269e-08 -1.10129e-09 -0.000105463)
(2.09693e-08 -1.69492e-09 -0.000105392)
(-8.3866e-10 3.76805e-09 -0.000112297)
(1.56081e-09 -4.34704e-09 -0.000112171)
(1.67738e-08 -4.64586e-09 -0.000112143)
(-4.00776e-09 -2.01328e-09 -0.000112161)
(-7.23705e-10 -2.19593e-09 -0.000112172)
(3.9412e-09 -4.27533e-09 -0.000112258)
(-6.62253e-09 -6.03732e-10 -0.000112176)
(1.57597e-08 -3.91937e-09 -0.000112136)
(-1.37942e-08 1.5839e-09 -0.000112133)
(1.36607e-08 -2.14479e-09 -0.000112212)
(-8.15605e-09 9.05135e-09 -0.000112266)
(8.63005e-09 -9.79307e-09 -0.000112206)
(7.61604e-09 2.01207e-09 -0.000112251)
(-7.37341e-09 4.29316e-10 -0.000112117)
(8.69333e-09 -8.05894e-09 -0.000112235)
(-2.77149e-09 2.22381e-10 -0.000112236)
(1.56133e-08 2.20825e-10 -0.000105421)
(-2.2672e-08 -2.2602e-09 -0.000105506)
(1.03842e-08 4.61785e-09 -0.000105512)
(-1.08594e-08 -1.83486e-09 -0.000105386)
(-2.09456e-08 1.25358e-12 -0.000105521)
(3.55657e-09 -6.07081e-09 -0.000105399)
(5.36523e-09 4.73425e-09 -0.000112327)
(-6.24885e-09 -5.53107e-09 -0.000112281)
(-1.37049e-08 -2.47281e-09 -0.000112243)
(7.86102e-09 -1.43248e-09 -0.000112119)
(-1.04318e-08 -1.44178e-08 -0.000112303)
(9.51472e-09 1.63731e-08 -0.000112316)
(-6.83791e-09 -5.47679e-09 -0.000105634)
(4.12073e-09 -1.98014e-09 -0.000105564)
(6.80451e-09 -3.53681e-09 -0.000105511)
(-4.91829e-09 1.0004e-09 -0.000105549)
(6.67037e-09 -3.58425e-11 -0.000105581)
(-7.41007e-09 -8.60429e-09 -0.000105619)
(4.64033e-09 4.02804e-09 -0.000105628)
(-5.38675e-09 4.28256e-10 -0.000105561)
(3.89087e-09 -2.7325e-09 -0.000105574)
(-4.87035e-09 8.98382e-10 -0.000105502)
(-8.40399e-09 -1.00287e-08 -0.000105568)
(5.80927e-09 8.59586e-09 -0.000105625)
(-9.05077e-09 8.40743e-09 -0.000105513)
(5.05546e-09 -2.33207e-09 -0.00010556)
(-1.60014e-08 -2.7948e-09 -0.000112198)
(6.89713e-09 -2.24056e-09 -0.00011228)
(7.35399e-09 6.68397e-09 -0.000112306)
(-1.33594e-08 -2.01455e-08 -0.000112298)
(6.48807e-09 -3.71392e-09 -0.0001123)
(-1.70977e-08 -4.89629e-09 -0.000112186)
(-1.57751e-08 6.53548e-11 -0.000105446)
(1.43005e-08 -1.87293e-09 -0.000105543)
(1.88581e-08 -1.40238e-09 -0.000105386)
(-1.6092e-08 -2.39784e-09 -0.000105472)
(8.55249e-09 -6.38005e-09 -0.000105549)
(-1.79024e-08 -1.82704e-10 -0.000105436)
(-1.52365e-08 -3.31763e-09 -0.000105485)
(1.01539e-08 2.55305e-09 -0.000105369)
(5.36626e-09 -6.66538e-09 -0.000112254)
(-4.4719e-09 3.2682e-09 -0.000112194)
(1.83619e-08 -5.45218e-09 -0.000112122)
(-7.45359e-09 -1.7825e-09 -0.00011219)
(-8.85993e-09 8.88102e-09 -0.000112219)
(7.99592e-09 -9.47172e-09 -0.000112226)
(-9.57741e-09 -9.94085e-10 -0.000112219)
(1.36025e-08 -2.10489e-09 -0.000112093)
(-3.32108e-09 -5.45781e-09 -0.000112084)
(-1.55008e-09 8.66888e-09 -0.000112286)
(-1.46886e-08 1.91196e-08 -0.000112204)
(9.84657e-09 -7.57434e-09 -0.000112276)
(-1.80515e-08 1.81617e-08 -0.000112356)
(-5.7181e-10 -9.11279e-09 -0.000112023)
(1.90187e-08 -2.32734e-08 -0.000112333)
(-2.15838e-08 2.71525e-08 -0.00011214)
(3.88752e-09 -6.04742e-09 -0.000105384)
(-2.74286e-09 7.87031e-09 -0.000105543)
(-5.70605e-09 1.24916e-08 -0.000105561)
(-4.94894e-09 -8.01086e-09 -0.000105338)
(4.42291e-09 1.20742e-08 -0.000105573)
(8.25224e-09 -4.37786e-09 -0.000105364)
(9.59784e-09 9.06507e-09 -0.00011227)
(-1.38045e-08 -1.67032e-08 -0.000112355)
(1.60127e-08 1.63254e-08 -0.000112366)
(-2.92781e-09 -9.04127e-09 -0.000112042)
(-2.3656e-08 -3.00845e-08 -0.000112426)
(1.7643e-08 2.15564e-08 -0.000112209)
(-8.48674e-09 -9.24147e-09 -0.000105607)
(7.19425e-09 3.33378e-09 -0.0001056)
(1.3302e-08 -1.2169e-08 -0.000105551)
(-1.25265e-08 1.48076e-08 -0.000105501)
(1.25848e-08 1.12071e-08 -0.000105636)
(-1.31181e-08 -1.63811e-08 -0.000105571)
(4.79382e-09 5.47803e-10 -0.000105593)
(-1.07753e-08 -1.23131e-08 -0.0001056)
(5.8966e-09 -3.03934e-09 -0.000105538)
(-7.25003e-09 1.06912e-09 -0.000105526)
(-1.53104e-08 -1.66217e-08 -0.000105637)
(1.04354e-08 9.60706e-09 -0.000105568)
(-1.21807e-08 1.10534e-08 -0.000105548)
(1.3772e-08 -1.94867e-08 -0.000105495)
(-3.91484e-09 3.07748e-09 -0.000112145)
(-5.58821e-09 -1.06224e-08 -0.000112348)
(1.84525e-08 2.32765e-08 -0.000112416)
(-2.25835e-08 -2.91138e-08 -0.000112204)
(-1.46954e-08 -1.64284e-08 -0.000112405)
(-8.69932e-09 5.06253e-09 -0.000112095)
(-1.25615e-08 1.47775e-09 -0.000105418)
(8.52961e-09 -6.20294e-09 -0.000105575)
(9.8022e-09 2.93136e-09 -0.000105356)
(1.24385e-09 -8.52095e-09 -0.000105502)
(-6.96429e-10 -1.06168e-08 -0.000105595)
(-4.55277e-09 8.93973e-09 -0.000105386)
(7.08271e-09 -1.40212e-08 -0.000105552)
(5.984e-09 6.28274e-09 -0.000105329)
(9.19954e-09 -1.00939e-08 -0.000112189)
(-5.4146e-09 1.61835e-09 -0.000112248)
(1.75913e-09 5.50558e-09 -0.000112062)
(1.43747e-08 -1.58613e-08 -0.000112265)
(-1.69466e-08 2.20737e-08 -0.000112307)
(2.40406e-08 -3.28298e-08 -0.000112106)
(2.37463e-08 -2.11844e-08 -0.000112344)
(-1.92438e-09 9.85799e-09 -0.000112017)
(1.52382e-08 -1.94464e-08 -0.000111939)
(-4.30729e-08 3.59742e-08 -0.000112456)
(-3.13227e-08 4.24658e-08 -0.000112039)
(3.89273e-08 -5.28781e-08 -0.000112431)
(-8.95177e-08 6.45654e-08 -0.000112624)
(4.90741e-08 -4.04627e-08 -0.00011181)
(6.72469e-08 -9.78682e-08 -0.000112598)
(-4.89918e-08 6.69015e-08 -0.000111902)
(-3.3911e-09 -1.28025e-08 -0.000105315)
(2.12226e-08 2.19881e-08 -0.000105594)
(-4.09059e-08 3.40231e-08 -0.000105665)
(1.86127e-08 -2.10215e-08 -0.00010525)
(4.39867e-08 3.62287e-08 -0.000105663)
(-1.72478e-08 -2.0506e-08 -0.000105252)
(3.06396e-08 4.15598e-08 -0.000112128)
(-4.08267e-08 -5.75392e-08 -0.00011252)
(8.84429e-08 6.43023e-08 -0.000112615)
(-4.96606e-08 -4.13983e-08 -0.000111807)
(-7.16854e-08 -1.05583e-07 -0.000112692)
(5.13396e-08 7.09477e-08 -0.000111986)
(-1.79136e-08 -2.72052e-08 -0.000105529)
(2.09367e-08 2.4724e-08 -0.000105667)
(3.65831e-08 -5.0516e-08 -0.000105655)
(-2.54676e-08 3.50844e-08 -0.000105375)
(3.50337e-08 4.79915e-08 -0.000105732)
(-2.59939e-08 -3.8419e-08 -0.00010546)
(1.65571e-08 2.39102e-08 -0.000105536)
(-2.37442e-08 -3.15205e-08 -0.00010567)
(1.66611e-08 -2.14475e-08 -0.000105447)
(-2.65074e-08 3.69067e-08 -0.000105589)
(-3.66191e-08 -5.31916e-08 -0.000105735)
(2.56273e-08 3.6288e-08 -0.000105464)
(-3.58739e-08 5.00874e-08 -0.00010565)
(2.50845e-08 -3.50137e-08 -0.000105386)
(2.13921e-08 2.21857e-08 -0.000111998)
(-4.8606e-08 -3.89287e-08 -0.000112505)
(6.40031e-08 9.09249e-08 -0.000112682)
(-5.46326e-08 -7.71413e-08 -0.000111969)
(-8.65613e-08 -6.30633e-08 -0.000112663)
(3.83038e-08 3.41771e-08 -0.000111883)
(3.34682e-09 1.14558e-08 -0.000105348)
(-2.01068e-08 -2.20968e-08 -0.000105637)
(3.13437e-09 9.50964e-09 -0.000105298)
(2.20618e-08 -2.35833e-08 -0.000105585)
(-3.78162e-08 -3.44912e-08 -0.0001057)
(1.17502e-08 1.97039e-08 -0.000105298)
(3.60662e-08 -3.36101e-08 -0.000105654)
(-1.95475e-08 2.1331e-08 -0.000105244)
(2.93999e-08 -3.99779e-08 -0.00011202)
(-4.22811e-08 5.91427e-08 -0.000112418)
(-9.46305e-09 1.55481e-08 -0.000111929)
(5.21679e-08 -4.10971e-08 -0.000112433)
(-6.88072e-08 1.01631e-07 -0.000112577)
(4.88758e-08 -6.72281e-08 -0.000111889)
(8.53363e-08 -6.28992e-08 -0.000112604)
(-4.45856e-08 3.86386e-08 -0.000111794)
(1.19751e-07 -8.63751e-08 -0.00011165)
(-1.7321e-07 1.16826e-07 -0.000112862)
(-8.91435e-08 1.30192e-07 -0.000111737)
(1.239e-07 -1.87846e-07 -0.000112841)
(-3.52645e-07 2.35493e-07 -0.000113201)
(2.44585e-07 -1.61087e-07 -0.000111423)
(2.40337e-07 -3.67495e-07 -0.000113191)
(-1.60747e-07 2.50338e-07 -0.000111504)
(-5.33427e-08 -4.0114e-08 -0.000105227)
(8.62761e-08 5.68388e-08 -0.00010571)
(-1.41156e-07 9.14698e-08 -0.000105729)
(1.22872e-07 -7.19445e-08 -0.000105215)
(1.34301e-07 8.87976e-08 -0.000105731)
(-1.16516e-07 -6.69239e-08 -0.000105241)
(9.30854e-08 1.37027e-07 -0.000111827)
(-1.20272e-07 -1.81421e-07 -0.000112941)
(3.47732e-07 2.27717e-07 -0.000113174)
(-2.36191e-07 -1.54915e-07 -0.00011145)
(-2.44416e-07 -3.71961e-07 -0.000113292)
(1.67981e-07 2.61239e-07 -0.000111589)
(-4.33156e-08 -7.15991e-08 -0.000105419)
(5.35661e-08 8.86156e-08 -0.000105772)
(9.5575e-08 -1.56292e-07 -0.000105733)
(-6.9919e-08 1.23163e-07 -0.000105322)
(9.46965e-08 1.58394e-07 -0.000105789)
(-6.91419e-08 -1.23862e-07 -0.000105389)
(4.56357e-08 7.42426e-08 -0.000105431)
(-5.50242e-08 -8.78993e-08 -0.000105793)
(4.53274e-08 -7.26955e-08 -0.000105348)
(-5.59588e-08 9.13668e-08 -0.000105704)
(-9.98011e-08 -1.62338e-07 -0.000105814)
(7.4356e-08 1.35782e-07 -0.000105413)
(-9.4005e-08 1.56117e-07 -0.000105713)
(7.29704e-08 -1.34298e-07 -0.000105331)
(1.19e-07 8.4423e-08 -0.000111722)
(-1.71537e-07 -1.16846e-07 -0.000112896)
(2.3753e-07 3.6934e-07 -0.000113255)
(-1.62835e-07 -2.52482e-07 -0.000111571)
(-3.43811e-07 -2.28942e-07 -0.000113217)
(2.36844e-07 1.54974e-07 -0.00011152)
(5.28647e-08 3.86351e-08 -0.000105274)
(-7.7286e-08 -5.35916e-08 -0.000105746)
(-5.59911e-08 4.1103e-08 -0.000105219)
(8.51763e-08 -5.54933e-08 -0.000105702)
(-1.33486e-07 -8.97138e-08 -0.000105752)
(1.10175e-07 6.56382e-08 -0.000105275)
(1.38903e-07 -9.02343e-08 -0.000105716)
(-1.18118e-07 6.92331e-08 -0.000105221)
(9.06195e-08 -1.33402e-07 -0.000111715)
(-1.19857e-07 1.82249e-07 -0.000112822)
(-1.20547e-07 8.61358e-08 -0.000111644)
(1.84815e-07 -1.24094e-07 -0.000112851)
(-2.3951e-07 3.68881e-07 -0.000113154)
(1.65221e-07 -2.58593e-07 -0.000111471)
(3.51619e-07 -2.32843e-07 -0.00011319)
(-2.42075e-07 1.59382e-07 -0.000111439)
(4.89602e-07 -3.06092e-07 -0.00011118)
(-6.71206e-07 4.21842e-07 -0.000113845)
(-3.03219e-07 4.87991e-07 -0.000111247)
(4.38091e-07 -7.06717e-07 -0.000113846)
(-1.23511e-06 8.0093e-07 -0.000115164)
(1.02628e-06 -6.06405e-07 -0.00011126)
(8.17739e-07 -1.26578e-06 -0.0001152)
(-5.92926e-07 1.00269e-06 -0.000111312)
(-2.44988e-07 -1.17615e-07 -0.00010537)
(2.07549e-07 1.25428e-07 -0.000105785)
(-2.84863e-07 2.18935e-07 -0.000106062)