/*--------------------------------*- C++ -*----------------------------------*\
| =========                 |                                                 |
| \\      /  F ield         | OpenFOAM: The Open Source CFD Toolbox           |
|  \\    /   O peration     | Version:  2206                                  |
|   \\  /    A nd           | Website:  www.openfoam.com                      |
|    \\/     M anipulation  |                                                 |
\*---------------------------------------------------------------------------*/
FoamFile
{
    version     2.0;
    format      ascii;
    arch        "LSB;label=32;scalar=64";
    class       volScalarField;
    location    "0.5";
    object      nut;
}
// * * * * * * * * * * * * * * * * * * * * * * * * * * * * * * * * * * * * * //

dimensions      [0 2 -1 0 0 0 0];

internalField   nonuniform List<scalar> 
66701
(
2.51018e-08
2.22019e-08
5.30886e-08
1.03877e-07
3.95022e-08
2.07513e-07
1.774e-07
4.63375e-08
2.21876e-08
5.30409e-08
1.03791e-07
3.94838e-08
2.07479e-07
4.63267e-08
1.77307e-07
2.50777e-08
4.19853e-09
4.62423e-10
3.15745e-11
3.45555e-12
2.88387e-12
4.24357e-09
4.65856e-10
3.17616e-11
3.43589e-12
2.85638e-12
4.2425e-09
4.69804e-10
3.17756e-11
3.26116e-12
2.66432e-12
4.23899e-09
4.69434e-10
3.17526e-11
3.26011e-12
2.66395e-12
4.19441e-09
4.62001e-10
3.15516e-11
3.45584e-12
2.8847e-12
4.24076e-09
4.65537e-10
3.17415e-11
3.43486e-12
2.8559e-12
4.26949e-09
4.69867e-10
3.18821e-11
3.36076e-12
2.77086e-12
4.402e-09
4.86195e-10
3.29824e-11
3.43307e-12
2.81919e-12
4.26782e-09
4.69665e-10
3.18699e-11
3.36069e-12
2.77107e-12
4.4011e-09
4.86094e-10
3.2976e-11
3.43287e-12
2.81916e-12
2.54382e-08
2.5111e-08
7.34797e-07
1.10802e-07
1.08694e-07
5.41475e-08
7.82486e-07
2.1455e-07
2.07541e-07
5.31102e-08
4.17244e-07
7.7721e-07
2.10576e-07
9.81471e-07
2.07507e-07
5.30645e-08
4.17235e-07
7.75311e-07
9.80669e-07
2.10418e-07
2.50885e-08
7.34882e-07
1.08658e-07
2.50801e-08
6.88834e-08
2.21202e-08
2.19348e-08
6.90147e-08
2.21032e-08
2.19102e-08
1.80333e-07
5.19142e-08
2.92113e-07
1.11232e-07
1.7981e-07
5.18682e-08
2.9204e-07
1.79272e-07
5.05736e-08
2.87711e-07
1.08506e-07
1.78562e-07
5.05052e-08
2.87459e-07
3.94352e-08
1.77424e-07
4.63506e-08
2.08989e-07
3.95064e-08
1.78658e-07
4.62595e-08
2.21847e-08
1.03916e-07
5.30242e-08
2.22163e-08
1.03724e-07
3.94173e-08
4.63404e-08
1.77335e-07
2.08956e-07
3.9489e-08
4.6249e-08
1.78576e-07
2.21706e-08
1.03833e-07
5.29771e-08
2.22025e-08
1.03639e-07
2.50567e-08
6.89869e-08
2.19202e-08
2.21594e-08
1.79398e-07
2.87767e-07
1.08465e-07
2.87494e-07
5.04493e-08
1.80487e-07
1.11536e-07
5.19763e-08
2.92677e-07
2.56816e-08
1.0331e-06
1.0498e-06
1.05125e-06
1.02737e-06
1.0333e-06
1.04989e-06
1.05139e-06
1.02715e-06
1.05088e-06
1.02705e-06
1.05084e-06
1.02707e-06
3.28194e-07
7.33638e-07
4.61503e-07
4.60574e-07
3.29768e-07
4.5543e-07
4.51885e-07
5.58812e-07
3.01516e-07
4.09158e-07
2.16232e-07
4.09083e-07
5.56284e-07
3.02401e-07
6.13893e-07
3.77448e-07
7.04566e-07
4.15128e-07
6.29726e-07
3.76104e-07
6.81874e-07
5.39033e-07
2.95196e-07
4.02932e-07
2.11521e-07
3.98419e-07
5.49254e-07
2.95373e-07
6.1463e-07
7.05782e-07
3.77318e-07
4.15129e-07
6.30552e-07
6.83028e-07
3.7606e-07
5.39914e-07
2.94972e-07
4.0409e-07
2.11363e-07
5.50046e-07
2.95201e-07
3.99605e-07
3.2841e-07
7.33488e-07
4.57453e-07
4.4913e-07
4.58713e-07
4.23681e-09
4.66889e-10
3.18666e-11
3.46561e-12
2.88643e-12
4.19957e-09
4.62515e-10
3.15801e-11
3.45584e-12
2.88402e-12
4.29897e-09
4.76141e-10
3.21791e-11
3.2737e-12
2.66656e-12
4.24437e-09
4.7002e-10
3.17897e-11
3.26184e-12
2.66465e-12
4.24101e-09
4.69665e-10
3.17677e-11
3.26091e-12
2.6644e-12
4.19566e-09
4.62117e-10
3.15587e-11
3.4563e-12
2.885e-12
4.19763e-09
4.6238e-10
3.15695e-11
3.45186e-12
2.87983e-12
4.26658e-09
4.69632e-10
3.18642e-11
3.35449e-12
2.76428e-12
4.40342e-09
4.86378e-10
3.29953e-11
3.43407e-12
2.8199e-12
4.27001e-09
4.6995e-10
3.18886e-11
3.36157e-12
2.77154e-12
4.39913e-09
4.85961e-10
3.29642e-11
3.42631e-12
2.81208e-12
4.24243e-09
4.69866e-10
3.17778e-11
3.25855e-12
2.66131e-12
4.26496e-09
4.69435e-10
3.18524e-11
3.35445e-12
2.76452e-12
4.40256e-09
4.86282e-10
3.29891e-11
3.43389e-12
2.81989e-12
4.26844e-09
4.69757e-10
3.1877e-11
3.36155e-12
2.7718e-12
4.39824e-09
4.85862e-10
3.29579e-11
3.42613e-12
2.81206e-12
4.23898e-09
4.69502e-10
3.17551e-11
3.25754e-12
2.66098e-12
4.19361e-09
4.6197e-10
3.15474e-11
3.45227e-12
2.88079e-12
4.30036e-09
4.74652e-10
3.20753e-11
3.29211e-12
2.68982e-12
4.24999e-09
4.68473e-10
3.1967e-11
3.46712e-12
2.88504e-12
3.93093e-09
4.31561e-10
2.95992e-11
3.38956e-12
2.86742e-12
4.29115e-09
4.73426e-10
3.19964e-11
3.29265e-12
2.69278e-12
4.29015e-09
4.73464e-10
3.19983e-11
3.2903e-12
2.69007e-12
3.91042e-09
4.29215e-10
2.94469e-11
3.38398e-12
2.86584e-12
4.23207e-09
4.67056e-10
3.15957e-11
3.27871e-12
2.68913e-12
4.23024e-09
4.66918e-10
3.15847e-11
3.27434e-12
2.68453e-12
3.92952e-09
4.31453e-10
2.95901e-11
3.38601e-12
2.86368e-12
3.90895e-09
4.29122e-10
2.94389e-11
3.37999e-12
2.86157e-12
4.24331e-09
4.65899e-10
3.17622e-11
3.43225e-12
2.85225e-12
4.24649e-09
4.66179e-10
3.17825e-11
3.43701e-12
2.85701e-12
4.24054e-09
4.65583e-10
3.17423e-11
3.43129e-12
2.85183e-12
4.24377e-09
4.6587e-10
3.1763e-11
3.43607e-12
2.85661e-12
4.22622e-09
4.66507e-10
3.15608e-11
3.27464e-12
2.68539e-12
3.9111e-09
4.29348e-10
2.94511e-11
3.38072e-12
2.86198e-12
3.94022e-09
4.32638e-10
2.96631e-11
3.38802e-12
2.86378e-12
8.06676e-07
7.35539e-07
1.03165e-06
7.67957e-07
7.81534e-07
7.23752e-07
1.02716e-06
7.71601e-07
7.85681e-07
7.28644e-07
1.03238e-06
7.76116e-07
7.90178e-07
7.33103e-07
1.03541e-06
7.77526e-07
7.91632e-07
7.34401e-07
1.03707e-06
7.78788e-07
7.92658e-07
7.36082e-07
1.03704e-06
7.78551e-07
7.92638e-07
7.35106e-07
1.03771e-06
7.785e-07
7.92753e-07
7.35836e-07
1.03828e-06
7.78455e-07
7.92909e-07
7.35198e-07
1.03895e-06
7.79012e-07
7.93451e-07
7.35835e-07
1.0391e-06
7.79335e-07
7.93667e-07
7.36239e-07
1.03852e-06
7.78861e-07
7.9329e-07
7.35702e-07
1.03806e-06
7.78533e-07
7.93111e-07
7.35381e-07
1.0379e-06
7.78188e-07
7.9298e-07
7.35247e-07
1.0377e-06
7.77985e-07
7.9284e-07
7.34951e-07
1.03767e-06
7.78149e-07
7.93083e-07
7.35121e-07
1.03483e-06
7.83912e-07
7.97163e-07
7.43126e-07
7.42731e-07
7.23213e-07
8.01273e-07
7.85584e-07
7.82707e-07
7.22793e-07
7.23963e-07
7.26784e-07
7.79916e-07
7.79897e-07
7.82197e-07
7.81877e-07
7.23403e-07
7.26635e-07
7.65633e-07
7.63867e-07
7.68579e-07
7.66421e-07
7.66367e-07
7.69739e-07
7.67848e-07
7.23939e-07
7.26675e-07
7.81377e-07
7.83978e-07
7.83742e-07
7.27083e-07
7.28255e-07
7.30974e-07
7.83821e-07
7.83541e-07
7.87563e-07
7.8726e-07
7.28187e-07
7.31718e-07
7.70401e-07
7.6824e-07
7.74427e-07
7.72313e-07
7.6967e-07
7.75429e-07
7.7362e-07
7.28134e-07
7.30727e-07
7.85538e-07
7.89466e-07
7.8933e-07
7.31801e-07
7.32235e-07
7.32102e-07
7.8827e-07
7.88011e-07
7.89275e-07
7.891e-07
7.33029e-07
7.33243e-07
7.75125e-07
7.73065e-07
7.7617e-07
7.74267e-07
7.74358e-07
7.77182e-07
7.75572e-07
7.31983e-07
7.31835e-07
7.90055e-07
7.91325e-07
7.9131e-07
7.33149e-07
7.3332e-07
7.33852e-07
7.8952e-07
7.89334e-07
7.90328e-07
7.90272e-07
7.34504e-07
7.35327e-07
7.76463e-07
7.74615e-07
7.77494e-07
7.75739e-07
7.75908e-07
7.78613e-07
7.76884e-07
7.3306e-07
7.33706e-07
7.91637e-07
7.92511e-07
7.92447e-07
7.34773e-07
7.3519e-07
7.34072e-07
7.90489e-07
7.90494e-07
7.90485e-07
7.90483e-07
7.36679e-07
7.35244e-07
7.77664e-07
7.75932e-07
7.77597e-07
7.75918e-07
7.77008e-07
7.78645e-07
7.76841e-07
7.35047e-07
7.33836e-07
7.92568e-07
7.92682e-07
7.92551e-07
7.34289e-07
7.34869e-07
7.33904e-07
7.90431e-07
7.9038e-07
7.90503e-07
7.9038e-07
7.35883e-07
7.34562e-07
7.77534e-07
7.75874e-07
7.77714e-07
7.76089e-07
7.7677e-07
7.785e-07
7.76789e-07
7.34663e-07
7.33811e-07
7.92527e-07
7.92707e-07
7.92552e-07
7.34545e-07
7.35291e-07
7.34116e-07
7.90587e-07
7.90457e-07
7.90607e-07
7.90311e-07
7.35943e-07
7.3379e-07
7.77864e-07
7.76233e-07
7.78051e-07
7.76458e-07
7.76796e-07
7.78378e-07
7.76752e-07
7.35161e-07
7.3392e-07
7.9253e-07
7.92825e-07
7.92538e-07
7.33849e-07
7.35201e-07
7.3475e-07
7.9069e-07
7.90376e-07
7.90976e-07
7.90711e-07
7.34915e-07
7.34677e-07
7.7816e-07
7.76587e-07
7.78418e-07
7.7685e-07
7.76857e-07
7.78791e-07
7.77266e-07
7.35069e-07
7.34697e-07
7.92637e-07
7.9329e-07
7.93058e-07
7.34699e-07
7.35888e-07
7.34827e-07
7.91199e-07
7.90977e-07
7.91337e-07
7.91113e-07
7.35743e-07
7.34821e-07
7.78588e-07
7.77017e-07
7.78815e-07
7.77241e-07
7.77493e-07
7.79207e-07
7.77689e-07
7.3581e-07
7.3479e-07
7.93241e-07
7.93611e-07
7.93387e-07
7.35032e-07
7.36057e-07
7.34514e-07
7.91493e-07
7.91257e-07
7.91061e-07
7.9083e-07
7.35972e-07
7.34504e-07
7.78927e-07
7.77353e-07
7.78561e-07
7.76989e-07
7.77803e-07
7.78876e-07
7.77345e-07
7.36034e-07
7.3442e-07
7.93451e-07
7.93311e-07
7.93061e-07
7.34556e-07
7.35597e-07
7.34236e-07
7.91162e-07
7.90935e-07
7.90633e-07
7.9034e-07
7.35538e-07
7.33939e-07
7.7854e-07
7.76983e-07
7.77996e-07
7.76403e-07
7.77362e-07
7.78301e-07
7.76841e-07
7.35528e-07
7.34124e-07
7.93059e-07
7.92918e-07
7.92736e-07
7.34173e-07
7.35388e-07
7.34194e-07
7.91033e-07
7.90698e-07
7.90501e-07
7.9013e-07
7.35097e-07
7.33848e-07
7.78246e-07
7.76675e-07
7.77807e-07
7.76144e-07
7.77107e-07
7.77936e-07
7.76496e-07
7.3527e-07
7.34033e-07
7.92951e-07
7.92779e-07
7.92622e-07
7.34098e-07
7.35334e-07
7.33724e-07
7.91051e-07
7.9068e-07
7.90095e-07
7.89705e-07
7.34921e-07
7.33303e-07
7.78061e-07
7.76473e-07
7.77275e-07
7.75574e-07
7.76846e-07
7.77408e-07
7.76007e-07
7.35156e-07
7.33564e-07
7.92855e-07
7.92427e-07
7.92383e-07
7.33726e-07
7.34908e-07
7.33856e-07
7.90996e-07
7.90576e-07
7.89979e-07
7.89532e-07
7.34476e-07
7.33413e-07
7.77853e-07
7.76292e-07
7.77233e-07
7.7548e-07
7.76777e-07
7.77261e-07
7.75882e-07
7.34752e-07
7.33722e-07
7.92831e-07
7.92411e-07
7.92391e-07
7.33885e-07
7.35113e-07
7.33938e-07
7.91395e-07
7.90958e-07
7.82129e-07
7.81031e-07
7.34614e-07
7.3333e-07
7.78125e-07
7.76647e-07
7.7825e-07
7.76396e-07
7.77076e-07
7.7846e-07
7.76687e-07
7.34958e-07
7.35141e-07
7.93067e-07
7.93048e-07
7.9293e-07
7.35255e-07
7.7837e-07
7.34211e-07
7.83391e-07
7.82045e-07
7.82227e-07
7.42933e-07
7.9676e-07
2.47495e-08
2.52061e-08
4.19525e-07
1.02127e-06
2.11652e-07
7.99235e-07
2.13919e-07
4.20602e-07
1.00795e-06
1.06699e-07
1.08965e-07
7.26532e-07
1.09444e-07
1.06973e-07
2.16033e-07
5.45e-08
5.45295e-08
2.14758e-07
2.54619e-08
2.5489e-08
2.0732e-07
5.29598e-08
5.29307e-08
2.05079e-07
1.0356e-06
1.03099e-06
1.03495e-06
1.02639e-06
1.03029e-06
1.02554e-06
1.02942e-06
4.10578e-07
2.08405e-07
9.74855e-07
7.67379e-07
2.10169e-07
9.72804e-07
4.09474e-07
2.50305e-08
2.50174e-08
4.28444e-07
9.87545e-07
2.14672e-07
7.81544e-07
4.26824e-07
9.85975e-07
2.15782e-07
1.08116e-07
1.10481e-07
7.23901e-07
1.0819e-07
1.10653e-07
2.17151e-07
5.46277e-08
2.16647e-07
5.4588e-08
2.55381e-08
2.55348e-08
2.08483e-07
5.30248e-08
2.06776e-07
5.29566e-08
1.03062e-06
1.02612e-06
1.02965e-06
1.03123e-06
1.03419e-06
1.03023e-06
1.03322e-06
4.14616e-07
2.10134e-07
9.7574e-07
7.73087e-07
4.15605e-07
2.11333e-07
9.78007e-07
2.50543e-08
2.50326e-08
4.32832e-07
9.91321e-07
2.16467e-07
7.87218e-07
4.33714e-07
9.93633e-07
2.16905e-07
1.08643e-07
1.11071e-07
7.29973e-07
1.08551e-07
1.11025e-07
2.17319e-07
5.46594e-08
2.16966e-07
5.46594e-08
2.55824e-08
2.55939e-08
2.0894e-07
5.30661e-08
2.07311e-07
5.30179e-08
1.03511e-06
1.03144e-06
1.03415e-06
1.03485e-06
1.0368e-06
1.03403e-06
1.03603e-06
4.15929e-07
2.1072e-07
9.82422e-07
7.76576e-07
4.17641e-07
2.11902e-07
9.83126e-07
2.50818e-08
2.50719e-08
4.33566e-07
9.98589e-07
2.16872e-07
7.90676e-07
4.35392e-07
9.99575e-07
2.1722e-07
1.08897e-07
1.11282e-07
7.32593e-07
1.08822e-07
1.11244e-07
2.178e-07
5.47705e-08
2.17296e-07
5.47557e-08
2.56479e-08
2.56427e-08
2.09415e-07
5.31177e-08
2.07816e-07
5.30313e-08
1.03718e-06
1.03473e-06
1.03649e-06
1.03685e-06
1.03793e-06
1.03626e-06
1.03726e-06
4.16983e-07
2.11354e-07
9.84293e-07
7.77801e-07
4.18661e-07
2.12499e-07
9.84805e-07
2.51117e-08
2.50786e-08
4.34165e-07
1.00154e-06
2.17372e-07
7.91961e-07
4.35839e-07
1.00209e-06
2.17764e-07
1.09155e-07
1.11516e-07
7.33896e-07
1.0902e-07
1.11441e-07
2.18107e-07
5.47982e-08
2.17722e-07
5.47561e-08
2.56593e-08
2.56426e-08
2.09191e-07
5.30567e-08
2.07891e-07
5.29523e-08
1.03801e-06
1.03648e-06
1.03729e-06
1.03708e-06
1.0376e-06
1.03651e-06
1.03696e-06
4.17425e-07
2.11645e-07
9.86244e-07
7.78825e-07
4.19628e-07
2.12406e-07
9.86321e-07
2.508e-08
2.50414e-08
4.34765e-07
1.00322e-06
2.17662e-07
7.92715e-07
4.36602e-07
1.00333e-06
2.17823e-07
1.0914e-07
1.11543e-07
7.35206e-07
1.08902e-07
1.11384e-07
2.18205e-07
5.48019e-08
2.17813e-07
5.47643e-08
2.56505e-08
2.56316e-08
2.08991e-07
5.30198e-08
2.07543e-07
5.29618e-08
1.03752e-06
1.03654e-06
1.03688e-06
1.03753e-06
1.03748e-06
1.03702e-06
1.03701e-06
4.1666e-07
2.11252e-07
9.85389e-07
7.78383e-07
4.1891e-07
2.12257e-07
9.85261e-07
2.5064e-08
2.50425e-08
4.34994e-07
1.0034e-06
2.17522e-07
7.92635e-07
4.36921e-07
1.00343e-06
2.17808e-07
1.09028e-07
1.11482e-07
7.33591e-07
1.08857e-07
1.11352e-07
2.18222e-07
5.48002e-08
2.17935e-07
5.47705e-08
2.56431e-08
2.56335e-08
2.09191e-07
5.30493e-08
2.0769e-07
5.29811e-08
1.03754e-06
1.03719e-06
1.03709e-06
1.03814e-06
1.03772e-06
1.03762e-06
1.03736e-06
4.16539e-07
2.11148e-07
9.85662e-07
7.78416e-07
4.18968e-07
2.12053e-07
9.8558e-07
2.50727e-08
2.50492e-08
4.34939e-07
1.00349e-06
2.17536e-07
7.92768e-07
4.36974e-07
1.0035e-06
2.17743e-07
1.08998e-07
1.11447e-07
7.34234e-07
1.08839e-07
1.11359e-07
2.18406e-07
5.48372e-08
2.18017e-07
5.48066e-08
2.56551e-08
2.56415e-08
2.09321e-07
5.30702e-08
2.07793e-07
5.30013e-08
1.03788e-06
1.03777e-06
1.03754e-06
1.03875e-06
1.03854e-06
1.03825e-06
1.03819e-06
4.16759e-07
2.11191e-07
9.85652e-07
7.78392e-07
4.18712e-07
2.12142e-07
9.85933e-07
2.50827e-08
2.50578e-08
4.35361e-07
1.00367e-06
2.17639e-07
7.93019e-07
4.37212e-07
1.00383e-06
2.17912e-07
1.09059e-07
1.11517e-07
7.34722e-07
1.08894e-07
1.11406e-07
2.18514e-07
5.48474e-08
2.18167e-07
5.48065e-08
2.56538e-08
2.56382e-08
2.09436e-07
5.30775e-08
2.07905e-07
5.30028e-08
1.03879e-06
1.03838e-06
1.03836e-06
1.03907e-06
1.03902e-06
1.03852e-06
1.03856e-06
4.16984e-07
2.11256e-07
9.86421e-07
7.79094e-07
4.18925e-07
2.12251e-07
9.8661e-07
2.50857e-08
2.50565e-08
4.35631e-07
1.00432e-06
2.17717e-07
7.93516e-07
4.37577e-07
1.00442e-06
2.17949e-07
1.09078e-07
1.11531e-07
7.34832e-07
1.0888e-07
1.11397e-07
2.18465e-07
5.48401e-08
2.18183e-07
5.47919e-08
2.56435e-08
2.56223e-08
2.09363e-07
5.30571e-08
2.07985e-07
5.29698e-08
1.03906e-06
1.0385e-06
1.03855e-06
1.0387e-06
1.03872e-06
1.03813e-06
1.03818e-06
4.16874e-07
2.1116e-07
9.86821e-07
7.79068e-07
4.19187e-07
2.12032e-07
9.86838e-07
2.50729e-08
2.50396e-08
4.35517e-07
1.00449e-06
2.17668e-07
7.93554e-07
4.3765e-07
1.00445e-06
2.17864e-07
1.09005e-07
1.11495e-07
7.34939e-07
1.08797e-07
1.11353e-07
2.1846e-07
5.48266e-08
2.18148e-07
5.478e-08
2.56311e-08
2.56149e-08
2.09228e-07
5.30218e-08
2.07805e-07
5.29372e-08
1.03854e-06
1.03791e-06
1.03799e-06
1.03807e-06
1.03811e-06
1.03752e-06
1.03763e-06
4.16467e-07
2.10952e-07
9.86277e-07
7.78527e-07
4.18694e-07
2.11878e-07
9.86149e-07
2.50555e-08
2.50234e-08
4.35386e-07
1.00397e-06
2.17601e-07
7.93047e-07
4.37417e-07
1.00386e-06
2.17804e-07
1.08928e-07
1.11458e-07
7.34523e-07
1.08729e-07
1.11328e-07
2.18478e-07
5.48119e-08
2.18173e-07
5.47621e-08
2.5621e-08
2.56005e-08
2.09159e-07
5.29958e-08
2.07692e-07
5.29118e-08
1.03809e-06
1.03747e-06
1.03759e-06
1.03792e-06
1.03788e-06
1.03734e-06
1.03745e-06
4.16253e-07
2.10813e-07
9.85836e-07
7.78054e-07
4.18365e-07
2.11719e-07
9.85806e-07
2.50418e-08
2.50108e-08
4.35574e-07
1.00375e-06
2.1756e-07
7.92866e-07
4.37525e-07
1.00377e-06
2.17737e-07
1.0887e-07
1.11434e-07
7.34441e-07
1.08676e-07
1.11287e-07
2.18386e-07
5.47979e-08
2.18089e-07
5.4751e-08
2.56122e-08
2.55998e-08
2.08945e-07
5.29722e-08
2.07566e-07
5.29006e-08
1.03786e-06
1.03729e-06
1.03741e-06
1.03769e-06
1.03762e-06
1.03712e-06
1.03727e-06
4.15878e-07
2.1065e-07
9.85577e-07
7.77627e-07
4.18186e-07
2.11592e-07
9.85449e-07
2.50332e-08
2.50085e-08
4.3538e-07
1.00377e-06
2.17439e-07
7.92562e-07
4.37429e-07
1.00373e-06
2.17652e-07
1.08823e-07
1.1141e-07
7.34111e-07
1.08651e-07
1.11288e-07
2.18426e-07
5.47924e-08
2.18061e-07
5.47519e-08
2.56113e-08
2.55965e-08
2.09055e-07
5.29849e-08
2.07606e-07
5.29174e-08
1.03763e-06
1.0371e-06
1.03726e-06
1.03764e-06
1.03752e-06
1.03707e-06
1.03724e-06
4.15952e-07
2.10662e-07
9.85153e-07
7.7721e-07
4.17929e-07
2.11569e-07
9.85154e-07
2.50399e-08
2.50154e-08
4.35462e-07
1.00363e-06
2.17473e-07
7.92381e-07
4.3738e-07
1.00363e-06
2.1765e-07
1.08848e-07
1.11423e-07
7.34116e-07
1.08662e-07
1.11284e-07
2.17023e-07
5.47991e-08
2.17935e-07
5.48639e-08
2.56115e-08
2.56585e-08
2.08981e-07
5.29872e-08
2.07718e-07
5.29097e-08
1.03755e-06
1.03708e-06
1.03724e-06
1.03481e-06
1.03502e-06
1.0384e-06
1.03851e-06
4.15842e-07
2.10727e-07
9.85115e-07
7.77201e-07
4.1808e-07
2.11526e-07
9.8511e-07
2.50402e-08
2.5014e-08
4.35521e-07
1.00363e-06
2.17543e-07
7.9247e-07
4.37363e-07
1.00364e-06
2.1758e-07
1.0885e-07
1.11417e-07
7.34163e-07
1.08647e-07
1.11284e-07
2.53389e-08
5.37197e-08
2.09414e-07
1.03498e-06
1.0405e-06
1.0406e-06
2.12447e-07
9.92399e-07
4.22071e-07
2.52289e-08
1.00503e-06
2.18776e-07
4.37451e-07
1.10248e-07
1.12493e-07
1.07338e-07
1.09753e-07
7.41802e-07
1.11405e-07
1.09871e-07
2.53175e-08
2.55688e-08
2.4994e-08
2.51283e-08
7.34761e-07
1.07791e-07
1.10567e-07
1.11271e-07
1.09045e-07
2.55167e-08
2.55795e-08
4.19413e-07
1.02069e-06
2.10542e-07
7.91761e-07
2.12211e-07
4.20616e-07
1.00697e-06
2.11961e-07
5.42596e-08
5.46104e-08
2.10141e-07
2.11923e-07
5.38638e-08
5.4067e-08
2.10135e-07
4.21901e-07
7.91522e-07
9.91784e-07
2.14327e-07
2.14291e-07
4.23621e-07
1.00002e-06
4.21907e-07
7.85897e-07
9.91933e-07
2.1426e-07
2.12718e-07
4.23603e-07
9.97997e-07
2.12552e-07
5.4425e-08
5.46792e-08
2.14232e-07
2.12552e-07
5.43431e-08
5.42193e-08
2.14231e-07
2.46642e-08
2.47639e-08
2.52389e-08
2.53285e-08
7.25494e-07
1.07758e-07
1.10132e-07
1.09843e-07
1.075e-07
2.49012e-08
2.48474e-08
2.5451e-08
2.5386e-08
2.55253e-08
2.5538e-08
2.50554e-08
2.50421e-08
1.10821e-07
1.08132e-07
7.24009e-07
1.109e-07
1.08117e-07
2.55588e-08
2.55592e-08
2.50506e-08
2.5072e-08
7.25307e-07
1.11084e-07
1.08271e-07
1.11102e-07
1.08354e-07
2.15973e-07
5.43892e-08
5.44372e-08
2.14716e-07
4.28603e-07
2.14571e-07
9.87159e-07
7.79588e-07
2.15686e-07
9.85586e-07
4.2695e-07
4.28495e-07
2.14365e-07
9.87598e-07
7.79349e-07
2.15493e-07
9.86133e-07
4.26852e-07
2.16067e-07
5.45824e-08
5.45915e-08
2.1682e-07
2.16022e-07
5.4504e-08
5.45047e-08
2.16766e-07
4.31222e-07
7.80593e-07
2.16454e-07
9.87713e-07
2.15774e-07
9.8552e-07
4.31554e-07
4.3115e-07
7.80071e-07
2.16258e-07
9.88229e-07
2.15578e-07
9.86061e-07
4.31455e-07
1.10381e-07
1.08063e-07
7.23477e-07
1.10529e-07
1.08155e-07
2.49475e-08
2.49702e-08
2.55206e-08
2.55148e-08
7.24824e-07
1.10765e-07
1.08406e-07
1.10757e-07
1.08434e-07
2.50134e-08
2.50097e-08
4.09062e-07
2.08245e-07
9.65538e-07
7.65567e-07
2.09961e-07
9.64401e-07
4.07595e-07
2.07285e-07
5.29075e-08
5.28785e-08
2.05045e-07
4.09058e-07
9.64977e-07
2.08087e-07
7.63478e-07
9.63902e-07
2.09801e-07
4.07588e-07
2.06171e-07
5.29512e-08
5.30144e-08
2.08079e-07
4.11761e-07
7.6683e-07
2.10699e-07
9.67892e-07
2.09305e-07
9.6512e-07
4.12026e-07
2.06135e-07
5.28986e-08
5.29618e-08
2.08041e-07
4.11753e-07
7.64693e-07
9.67255e-07
2.10531e-07
9.64468e-07
2.09136e-07
4.12028e-07
2.07517e-07
5.26861e-08
5.27206e-08
2.05242e-07
4.10616e-07
9.7416e-07
2.0843e-07
7.65377e-07
9.72252e-07
2.10177e-07
4.09513e-07
2.07508e-07
5.26832e-08
5.27151e-08
2.05237e-07
4.13198e-07
7.67868e-07
2.10953e-07
9.7324e-07
2.09515e-07
9.71901e-07
4.13195e-07
2.06389e-07
5.28247e-08
5.28361e-08
2.08325e-07
4.13243e-07
7.65993e-07
9.72657e-07
2.10937e-07
9.71384e-07
2.09524e-07
4.13247e-07
2.06383e-07
5.28167e-08
5.28306e-08
2.08318e-07
1.08096e-07
1.10871e-07
7.23984e-07
1.0808e-07
1.10954e-07
2.55502e-08
2.55632e-08
2.50263e-08
2.50473e-08
7.25281e-07
1.08232e-07
1.11135e-07
1.08318e-07
1.11153e-07
2.55845e-08
2.55838e-08
4.28444e-07
9.88033e-07
2.14627e-07
7.81374e-07
4.26807e-07
9.86613e-07
2.15723e-07
2.15937e-07
5.45146e-08
2.14668e-07
5.45465e-08
2.15936e-07
5.44487e-08
2.14671e-07
5.44977e-08
4.31056e-07
7.82193e-07
9.88886e-07
2.16553e-07
9.86811e-07
2.15878e-07
4.31399e-07
4.31065e-07
7.81876e-07
9.89591e-07
2.16493e-07
9.87466e-07
2.1583e-07
4.31407e-07
2.15986e-07
5.46012e-08
5.46089e-08
2.16749e-07
2.1599e-07
5.45672e-08
5.45672e-08
2.16751e-07
2.49528e-08
2.49694e-08
2.54966e-08
2.55276e-08
7.25299e-07
1.08421e-07
1.10904e-07
1.08462e-07
1.10886e-07
2.50061e-08
2.50075e-08
2.55646e-08
2.55561e-08
2.55757e-08
2.55676e-08
2.50783e-08
2.5055e-08
1.1124e-07
1.08474e-07
7.29412e-07
1.11164e-07
1.08345e-07
2.55817e-08
2.55831e-08
2.50688e-08
2.50838e-08
7.30816e-07
1.11204e-07
1.08402e-07
1.11297e-07
1.0853e-07
2.17103e-07
5.45535e-08
2.16609e-07
5.45259e-08
4.32961e-07
2.16364e-07
9.90148e-07
7.85335e-07
4.33861e-07
2.16805e-07
9.92358e-07
4.3287e-07
2.16171e-07
9.90628e-07
7.85213e-07
4.33799e-07
2.16634e-07
9.92784e-07
2.16879e-07
5.46033e-08
5.4629e-08
2.1727e-07
2.16846e-07
5.4558e-08
5.45708e-08
2.1723e-07
4.35069e-07
7.86592e-07
2.16945e-07
9.95752e-07
2.16617e-07
9.94218e-07
4.33442e-07
4.35012e-07
7.86366e-07
2.16768e-07
9.96113e-07
2.16438e-07
9.94614e-07
4.33363e-07
1.10935e-07
1.08635e-07
7.29673e-07
1.1088e-07
1.08478e-07
2.5049e-08
2.50499e-08
2.55588e-08
2.55545e-08
7.31194e-07
1.10943e-07
1.08672e-07
1.11008e-07
1.08741e-07
2.50868e-08
2.50846e-08
4.13678e-07
2.09898e-07
9.70848e-07
7.72088e-07
4.14491e-07
2.11099e-07
9.7354e-07
2.08441e-07
5.29724e-08
2.06737e-07
5.29062e-08
4.13677e-07
9.70257e-07
2.09722e-07
7.69911e-07
4.14487e-07
9.72953e-07
2.10928e-07
2.07098e-07
5.29807e-08
5.30344e-08
2.08715e-07
4.15979e-07
7.73424e-07
2.11316e-07
9.7755e-07
2.10213e-07
9.75804e-07
4.14512e-07
2.07054e-07
5.29359e-08
5.29858e-08
2.0867e-07
4.15973e-07
7.71272e-07
9.76971e-07
2.1115e-07
9.75222e-07
2.10037e-07
4.14508e-07
2.08756e-07
5.29242e-08
2.07032e-07
5.29002e-08
4.14673e-07
9.75262e-07
2.10124e-07
7.7129e-07
4.15659e-07
9.77557e-07
2.11329e-07
2.08749e-07
5.29159e-08
2.07028e-07
5.28892e-08
4.16899e-07
7.74455e-07
2.11622e-07
9.81364e-07
2.10465e-07
9.79898e-07
4.15404e-07
2.07385e-07
5.29817e-08
5.30002e-08
2.09037e-07
4.16958e-07
7.72608e-07
9.80894e-07
2.11575e-07
9.7944e-07
2.1044e-07
4.15464e-07
2.0738e-07
5.29652e-08
5.29882e-08
2.09031e-07
1.08436e-07
1.11288e-07
7.29205e-07
1.0831e-07
1.11219e-07
2.56007e-08
2.55979e-08
2.50492e-08
2.50622e-08
7.30601e-07
1.0838e-07
1.11305e-07
1.08501e-07
1.1136e-07
2.56235e-08
2.56161e-08
4.32846e-07
9.92033e-07
2.16422e-07
7.87092e-07
4.33729e-07
9.943e-07
2.16848e-07
2.17101e-07
5.46473e-08
2.16591e-07
5.46165e-08
2.17104e-07
5.46182e-08
2.16597e-07
5.45954e-08
4.34951e-07
7.88486e-07
9.97232e-07
2.17069e-07
9.95599e-07
2.16729e-07
4.33341e-07
4.34969e-07
7.88361e-07
9.97784e-07
2.17024e-07
9.96205e-07
2.16688e-07
4.33356e-07
2.16844e-07
5.46625e-08
5.46633e-08
2.17241e-07
2.1685e-07
5.46417e-08
5.46444e-08
2.17246e-07
2.50402e-08
2.50353e-08
2.55847e-08
2.55869e-08
7.31437e-07
1.08676e-07
1.11126e-07
1.08763e-07
1.11176e-07
2.50691e-08
2.50702e-08
2.56144e-08
2.56076e-08
2.56034e-08
2.56113e-08
2.51009e-08
2.509e-08
1.11357e-07
1.08607e-07
7.3167e-07
1.11315e-07
1.08507e-07
2.5638e-08
2.56334e-08
2.51027e-08
2.51214e-08
7.32867e-07
1.11449e-07
1.08615e-07
1.11481e-07
1.0872e-07
2.17292e-07
5.46182e-08
2.16941e-07
5.4623e-08
4.33613e-07
2.16721e-07
9.97046e-07
7.88742e-07
4.35485e-07
2.16993e-07
9.98005e-07
4.33547e-07
2.16566e-07
9.97396e-07
7.88523e-07
4.3544e-07
2.16855e-07
9.98355e-07
2.17046e-07
5.47176e-08
5.47173e-08
2.17529e-07
2.17032e-07
5.46941e-08
5.46872e-08
2.17501e-07
4.35633e-07
7.89043e-07
2.17235e-07
9.99251e-07
2.16794e-07
9.98706e-07
4.3376e-07
4.35601e-07
7.88846e-07
2.17112e-07
9.99584e-07
2.16678e-07
9.9905e-07
4.33708e-07
1.1111e-07
1.08906e-07
7.32568e-07
1.11079e-07
1.0886e-07
2.51239e-08
2.51269e-08
2.56276e-08
2.56192e-08
7.3378e-07
1.11236e-07
1.09034e-07
1.11261e-07
1.09097e-07
2.51549e-08
2.51622e-08
4.15016e-07
2.10401e-07
9.78836e-07
7.75599e-07
4.16759e-07
2.11461e-07
9.79695e-07
2.08898e-07
5.30239e-08
2.07266e-07
5.29801e-08
4.15011e-07
9.78231e-07
2.10233e-07
7.73586e-07
4.16748e-07
9.79087e-07
2.11327e-07
2.07556e-07
5.30437e-08
5.31024e-08
2.09209e-07
4.17235e-07
7.75902e-07
2.11691e-07
9.80715e-07
2.10558e-07
9.80297e-07
4.15413e-07
2.07517e-07
5.30097e-08
5.30664e-08
2.09174e-07
4.17224e-07
7.73947e-07
9.801e-07
2.11565e-07
9.79666e-07
2.10426e-07
4.15413e-07
2.09318e-07
5.30845e-08
2.07654e-07
5.30646e-08
4.15988e-07
9.81943e-07
2.10673e-07
7.7488e-07
4.17701e-07
9.82645e-07
2.11827e-07
2.09311e-07
5.30665e-08
2.0765e-07
5.30419e-08
4.18151e-07
7.76909e-07
2.12237e-07
9.83914e-07
2.11021e-07
9.83576e-07
4.16429e-07
2.07946e-07
5.3125e-08
5.31621e-08
2.09623e-07
4.18211e-07
7.75251e-07
9.83439e-07
2.12125e-07
9.831e-07
2.10945e-07
4.16486e-07
2.07942e-07
5.30969e-08
5.3138e-08
2.09616e-07
1.08588e-07
1.11466e-07
7.31392e-07
1.08491e-07
1.11443e-07
2.56472e-08
2.56578e-08
2.50848e-08
2.51035e-08
7.32586e-07
1.08598e-07
1.11587e-07
1.08705e-07
1.11616e-07
2.56832e-08
2.56801e-08
4.3358e-07
9.99085e-07
2.16845e-07
7.9058e-07
4.3541e-07
1.00006e-06
2.17161e-07
2.1736e-07
5.47214e-08
2.16955e-07
5.47258e-08
2.17366e-07
5.47005e-08
2.16965e-07
5.47023e-08
4.35601e-07
7.91021e-07
1.00095e-06
2.17514e-07
1.00033e-06
2.1708e-07
4.33785e-07
4.35618e-07
7.90979e-07
1.00143e-06
2.17428e-07
1.0008e-06
2.1702e-07
4.33796e-07
2.17098e-07
5.47824e-08
5.47853e-08
2.17545e-07
2.17105e-07
5.47604e-08
5.47624e-08
2.17547e-07
2.5105e-08
2.51028e-08
2.56374e-08
2.56448e-08
7.33792e-07
1.08951e-07
1.11366e-07
1.09044e-07
1.11407e-07
2.51246e-08
2.51366e-08
2.56689e-08
2.56667e-08
2.56558e-08
2.56503e-08
2.51297e-08
2.50971e-08
1.11608e-07
1.0881e-07
7.32835e-07
1.11544e-07
1.08661e-07
2.56486e-08
2.56641e-08
2.50778e-08
2.51196e-08
7.34123e-07
1.11563e-07
1.08593e-07
1.1168e-07
1.08829e-07
2.17775e-07
5.47536e-08
2.17282e-07
5.47452e-08
4.3418e-07
2.17076e-07
9.99757e-07
7.89812e-07
4.35802e-07
2.17494e-07
1.00027e-06
4.34134e-07
2.16981e-07
1.00009e-06
7.89822e-07
4.35782e-07
2.17446e-07
1.00061e-06
2.17558e-07
5.47592e-08
5.47995e-08
2.18005e-07
2.17547e-07
5.47631e-08
5.47951e-08
2.17983e-07
4.36266e-07
7.90098e-07
2.17651e-07
1.00126e-06
2.17303e-07
1.0008e-06
4.34702e-07
4.36253e-07
7.90074e-07
2.17616e-07
1.0016e-06
2.17261e-07
1.00114e-06
4.34669e-07
1.11412e-07
1.09249e-07
7.34161e-07
1.11356e-07
1.09058e-07
2.51853e-08
2.51638e-08
2.56467e-08
2.566e-08
7.35479e-07
1.1137e-07
1.09065e-07
1.11481e-07
1.09268e-07
2.51468e-08
2.51864e-08
4.1585e-07
2.10793e-07
9.81167e-07
7.76841e-07
4.17632e-07
2.11894e-07
9.81681e-07
2.09387e-07
5.30843e-08
2.07783e-07
5.29995e-08
4.15862e-07
9.80546e-07
2.10662e-07
7.75015e-07
4.17627e-07
9.8109e-07
2.11773e-07
2.07974e-07
5.29909e-08
5.30996e-08
2.09403e-07
4.18078e-07
7.772e-07
2.11952e-07
9.82961e-07
2.10974e-07
9.82332e-07
4.16221e-07
2.07947e-07
5.29593e-08
5.30679e-08
2.09384e-07
4.18086e-07
7.75412e-07
9.82398e-07
2.11838e-07
9.81742e-07
2.10848e-07
4.16246e-07
2.09863e-07
5.32087e-08
2.0824e-07
5.31445e-08
4.17037e-07
9.83812e-07
2.1124e-07
7.76278e-07
4.18719e-07
9.84311e-07
2.12381e-07
2.09855e-07
5.318e-08
2.08235e-07
5.31134e-08
4.19221e-07
7.78289e-07
2.12651e-07
9.85921e-07
2.11599e-07
9.85394e-07
4.17428e-07
2.08429e-07
5.3119e-08
5.32148e-08
2.09913e-07
4.19276e-07
7.76626e-07
9.85395e-07
2.12482e-07
9.84885e-07
2.11461e-07
4.17481e-07
2.08423e-07
5.30863e-08
5.31841e-08
2.09903e-07
1.08794e-07
1.11742e-07
7.32626e-07
1.08641e-07
1.1167e-07
2.56998e-08
2.56909e-08
2.50584e-08
2.51009e-08
7.33937e-07
1.08569e-07
1.11653e-07
1.08808e-07
1.118e-07
2.56844e-08
2.57034e-08
4.34177e-07
1.002e-06
2.17293e-07
7.91953e-07
4.35854e-07
1.00255e-06
2.17671e-07
2.1775e-07
5.48336e-08
2.17299e-07
5.48111e-08
2.17754e-07
5.48141e-08
2.17304e-07
5.47982e-08
4.36237e-07
7.92264e-07
1.00297e-06
2.17886e-07
1.00259e-06
2.1758e-07
4.34546e-07
4.36253e-07
7.92237e-07
1.00337e-06
2.17801e-07
1.00302e-06
2.17501e-07
4.34561e-07
2.17492e-07
5.4808e-08
5.48519e-08
2.17905e-07
2.17498e-07
5.48053e-08
5.48444e-08
2.1791e-07
2.51539e-08
2.51282e-08
2.56862e-08
2.5679e-08
7.35172e-07
1.08981e-07
1.11436e-07
1.09199e-07
1.11573e-07
2.51148e-08
2.51527e-08
2.56752e-08
2.56927e-08
2.566e-08
2.56423e-08
2.50997e-08
2.50622e-08
1.11672e-07
1.08751e-07
7.3463e-07
1.11507e-07
1.08506e-07
2.56409e-08
2.56549e-08
2.50593e-08
2.50867e-08
7.35763e-07
1.1148e-07
1.08465e-07
1.11619e-07
1.08667e-07
2.18084e-07
5.48042e-08
2.17713e-07
5.4762e-08
4.35005e-07
2.17431e-07
1.00157e-06
7.90546e-07
4.36775e-07
2.17644e-07
1.00171e-06
4.34972e-07
2.1741e-07
1.0019e-06
7.90563e-07
4.36774e-07
2.17646e-07
1.00202e-06
2.17798e-07
5.47575e-08
5.47956e-08
2.18126e-07
2.17789e-07
5.47587e-08
5.48018e-08
2.18102e-07
4.37046e-07
7.90556e-07
2.17549e-07
1.0017e-06
2.17384e-07
1.00173e-06
4.35078e-07
4.37046e-07
7.90577e-07
2.17542e-07
1.00196e-06
2.17384e-07
1.00204e-06
4.3504e-07
1.11495e-07
1.09227e-07
7.3607e-07
1.11344e-07
1.08985e-07
2.51681e-08
2.51286e-08
2.56385e-08
2.56544e-08
7.37169e-07
1.11314e-07
1.08936e-07
1.1146e-07
1.09145e-07
2.51182e-08
2.51513e-08
4.16279e-07
2.1095e-07
9.83501e-07
7.77718e-07
4.18424e-07
2.11703e-07
9.83789e-07
2.09172e-07
5.30248e-08
2.07871e-07
5.29188e-08
4.16312e-07
9.8293e-07
2.1083e-07
7.75995e-07
4.18443e-07
9.83242e-07
2.11587e-07
2.07686e-07
5.29431e-08
5.30214e-08
2.09033e-07
4.18294e-07
7.77706e-07
2.11539e-07
9.83824e-07
2.10697e-07
9.83923e-07
4.15815e-07
2.07666e-07
5.29066e-08
5.29875e-08
2.09014e-07
4.18322e-07
7.75998e-07
9.83294e-07
2.11418e-07
9.83364e-07
2.10575e-07
4.1585e-07
2.09706e-07
5.31849e-08
2.08398e-07
5.30795e-08
4.17477e-07
9.85701e-07
2.11479e-07
7.77027e-07
4.19681e-07
9.85771e-07
2.12238e-07
2.09696e-07
5.31532e-08
2.0839e-07
5.30492e-08
4.19403e-07
7.78803e-07
2.12239e-07
9.85838e-07
2.11377e-07
9.8624e-07
4.16887e-07
2.08198e-07
5.30584e-08