/*--------------------------------*- C++ -*----------------------------------*\
| =========                 |                                                 |
| \\      /  F ield         | OpenFOAM: The Open Source CFD Toolbox           |
|  \\    /   O peration     | Version:  2206                                  |
|   \\  /    A nd           | Website:  www.openfoam.com                      |
|    \\/     M anipulation  |                                                 |
\*---------------------------------------------------------------------------*/
FoamFile
{
    version     2.0;
    format      ascii;
    arch        "LSB;label=32;scalar=64";
    class       surfaceScalarField;
    location    "0.5";
    object      phi;
}
// * * * * * * * * * * * * * * * * * * * * * * * * * * * * * * * * * * * * * //

dimensions      [0 3 -1 0 0 0 0];

oriented        oriented;

internalField   nonuniform List<scalar> 
196491
(
-1.94885e-12
-1.63112e-12
-7.02873e-09
-3.46379e-12
-1.68835e-12
-1.92553e-12
-5.76131e-09
-3.2193e-12
-1.40069e-12
-1.39816e-08
-6.34698e-12
-2.12715e-08
-1.23586e-11
-9.89833e-13
-7.82614e-13
-1.04017e-08
4.29162e-12
1.52895e-11
6.86341e-14
-2.0532e-08
-1.9506e-08
5.96371e-14
-7.89049e-13
-1.26389e-08
-3.27918e-12
-1.83713e-12
-1.94126e-12
-5.758e-09
-3.46233e-12
2.07264e-12
-1.45427e-12
-1.39774e-08
-6.58467e-12
-2.12611e-08
-1.10696e-12
-1.23713e-11
-7.71167e-13
-1.03962e-08
1.52777e-11
4.42571e-12
-2.05288e-08
-7.88649e-13
-1.26359e-08
-1.94979e-08
-1.71472e-12
-7.02761e-09
-7.95633e-13
-3.74572e-14
-4.63863e-09
-3.56065e-13
1.56926e-15
-2.50387e-09
-1.3945e-13
1.47915e-14
-1.2321e-09
-3.49737e-14
1.1046e-14
-5.0971e-10
4.10536e-15
-1.21036e-10
-9.59893e-13
1.73409e-13
-1.4308e-13
-4.6104e-09
-4.38968e-13
8.06137e-14
-6.48609e-14
-2.48802e-09
-1.72324e-13
3.52822e-14
-2.95077e-14
-1.22406e-09
-4.25266e-14
1.40445e-14
-1.19732e-14
-5.06342e-10
3.87247e-15
-2.8557e-15
-1.20254e-10
-6.71531e-13
-2.48658e-09
-3.12792e-13
-1.34991e-09
-1.23858e-13
-6.67041e-10
-3.12363e-14
-2.76802e-10
-6.58585e-11
-7.09918e-13
9.78329e-14
-2.31894e-13
-2.48597e-09
-3.3224e-13
3.91774e-14
-1.18478e-13
-1.34966e-09
-1.33488e-13
1.49249e-14
-5.65344e-14
-6.6689e-10
-3.45163e-14
5.04184e-15
-2.32277e-14
-2.76766e-10
1.13564e-15
-5.57112e-15
-6.58378e-11
-8.39322e-13
-4.63798e-09
-3.75671e-13
-2.50358e-09
-1.4433e-13
-1.23198e-09
-3.48479e-14
-5.09714e-10
-1.21047e-10
-9.69376e-13
-2.07293e-13
-4.60805e-09
-4.40163e-13
-1.06387e-13
-2.48686e-09
-1.70858e-13
-5.37395e-14
-1.22342e-09
-4.16635e-14
-2.35531e-14
-5.06132e-10
-6.03531e-15
-1.2018e-10
-3.87993e-13
-7.63193e-14
-2.8823e-09
-1.79655e-13
-3.24127e-14
-1.56104e-09
-7.15113e-14
-1.36425e-14
-7.70026e-10
-1.80571e-14
-5.49071e-15
-3.19125e-10
-1.51982e-15
-7.58719e-11
-3.9172e-13
2.30328e-14
-3.1485e-09
-1.84089e-13
1.58009e-14
-1.70293e-09
-7.41345e-14
9.37556e-15
-8.39251e-10
-1.87838e-14
4.46555e-15
-3.47579e-10
1.14894e-15
-8.26142e-11
-3.88583e-13
-1.20047e-13
-2.88105e-09
-1.82441e-13
-6.17412e-14
-1.56036e-09
-7.38213e-14
-3.04607e-14
-7.69654e-10
-1.88249e-14
-1.30917e-14
-3.18995e-10
-3.25124e-15
-7.58406e-11
-3.89725e-13
-3.14778e-09
-1.81831e-13
-1.70255e-09
-7.25066e-14
-8.39064e-10
-1.83497e-14
-3.47503e-10
-8.25962e-11
-2.95335e-11
-1.16034e-11
-3.29744e-12
-7.07694e-09
-5.12731e-12
-2.15822e-12
7.03719e-09
-1.29616e-12
-7.02861e-09
4.10898e-11
3.32316e-11
2.73655e-08
3.92376e-11
4.00866e-11
-2.75191e-08
-5.72755e-11
2.09811e-11
-1.20615e-10
2.26536e-08
-2.25263e-08
-1.07791e-11
4.5104e-12
-2.23334e-11
2.22363e-08
-2.22128e-08
-8.19271e-11
-2.35325e-12
-1.40812e-08
-1.01625e-09
3.51553e-11
9.8212e-11
-1.05788e-11
5.0927e-10
3.49412e-10
1.10256e-10
4.51384e-10
-1.14887e-07
-7.23532e-11
-2.01136e-10
2.18481e-08
-2.17138e-08
-4.9879e-11
4.54258e-14
4.42312e-12
1.57087e-11
2.0562e-08
-2.05323e-08
-1.22447e-11
-3.34974e-12
1.39962e-08
-1.2703e-12
-1.39815e-08
1.38601e-13
1.10393e-11
-9.21066e-11
2.45917e-08
-2.45606e-08
-1.80883e-10
9.82285e-11
3.91347e-11
2.82098e-11
-2.81012e-11
-5.7941e-11
5.6075e-11
-5.75492e-11
5.67429e-11
-1.12791e-07
-1.73607e-11
-2.25999e-11
2.15853e-08
-2.15683e-08
-3.41994e-11
9.00699e-11
-9.81067e-11
1.3359e-10
9.75246e-11
-1.32035e-10
-1.1612e-07
-4.98544e-11
1.57113e-11
4.45332e-12
2.05588e-08
-2.05291e-08
-1.22996e-11
2.23607e-12
-3.53129e-12
1.39922e-08
-1.29454e-12
-1.39773e-08
-9.20304e-11
1.08611e-11
2.4589e-08
-2.45575e-08
9.23751e-13
-8.34081e-11
-3.67242e-11
5.60152e-11
3.60946e-11
-5.81544e-11
8.52563e-11
1.11992e-12
-2.96177e-12
-1.13981e-07
-1.53871e-11
5.64149e-13
-7.88696e-11
1.32562e-10
7.99807e-11
-1.31928e-10
-1.17128e-07
1.10292e-11
-1.72026e-11
-2.24569e-11
2.15711e-08
-2.15548e-08
-5.25135e-12
7.03627e-09
-1.3149e-12
-7.02747e-09
2.75638e-08
9.40386e-11
-2.76163e-08
-1.37521e-10
1.26617e-11
-2.23915e-11
2.22852e-08
-2.2261e-08
3.95647e-12
4.79935e-12
1.98467e-12
1.67153e-12
-1.59313e-08
-2.92409e-12
-3.44159e-12
1.24865e-11
1.30896e-11
-3.14405e-12
5.86982e-09
-1.74331e-12
-1.98548e-12
-5.86295e-09
-3.1256e-12
5.83987e-09
-2.91004e-12
-1.22646e-12
-5.83261e-09
-1.19757e-11
-1.34745e-11
-1.59121e-08
2.71782e-12
1.01118e-12
2.54709e-12
1.39094e-12
-2.03852e-08
-8.50496e-12
1.68205e-11
2.04805e-11
-4.26667e-11
1.36315e-08
-1.23852e-12
-1.35684e-08
4.64344e-11
2.41876e-08
-1.49207e-10
-1.4312e-10
-2.40623e-08
-3.30774e-12
-3.75163e-11
-4.34636e-11
-2.09605e-11
-2.03725e-08
6.17478e-13
3.20303e-11
-1.35738e-11
-1.93543e-08
-1.08956e-11
2.04494e-11
1.96338e-11
-1.06784e-11
1.32809e-08
-7.34881e-13
-1.32679e-08
2.08174e-11
2.31466e-08
-4.00707e-11
-3.18876e-11
-2.31178e-08
-3.87612e-12
2.19288e-11
1.03416e-11
-1.9332e-11
-1.93383e-08
8.90494e-13
3.99713e-11
3.09172e-11
-1.04138e-08
1.24266e-11
1.08936e-12
-1.95464e-12
5.87602e-13
1.26879e-11
1.95319e-08
6.51625e-12
-4.06209e-11
-1.95061e-08
1.13972e-12
1.26538e-08
3.85473e-14
-6.99469e-13
-1.26385e-08
-4.28372e-12
-1.53712e-11
4.90773e-14
4.96055e-11
1.79517e-12
-7.1733e-13
-1.04011e-08
-6.45915e-12
4.05334e-11
4.60569e-14
5.44769e-13
-5.7686e-09
3.51741e-12
1.82339e-12
3.93469e-12
2.12967e-08
-2.5597e-11
-2.12718e-08
2.93766e-12
1.23116e-11
1.34424e-12
-1.41557e-12
-5.76146e-09
2.51603e-11
-1.04083e-08
9.88398e-13
1.23812e-11
-1.83469e-12
6.10128e-13
1.21255e-12
1.26508e-08
-6.95083e-13
-1.26356e-08
1.27365e-11
1.95241e-08
6.69317e-12
-4.09897e-11
-1.94981e-08
-1.53787e-11
-4.20617e-12
4.96614e-11
1.92708e-12
-6.92754e-13
-1.03956e-08
5.38576e-13
-6.30273e-12
4.06728e-11
-5.76531e-09
3.68522e-12
1.78817e-12
3.79456e-12
2.12865e-08
-2.56312e-11
-2.12615e-08
2.71494e-12
-1.92661e-12
1.27179e-11
1.30687e-12
-1.42381e-12
-5.75816e-09
2.5534e-11
5.16263e-12
1.58225e-12
-3.40228e-12
-2.72104e-12
1.22928e-11
1.3067e-11
-1.59354e-08
2.40537e-12
1.4279e-12
-5.83942e-09
1.96988e-12
1.58016e-12
-5.87063e-09
1.37965e-11
-1.09361e-11
2.62635e-11
-1.93522e-08
2.35225e-08
-2.98699e-11
-4.7184e-11
-2.34821e-08
1.4263e-11
2.27255e-11
-3.43301e-12
1.05006e-11
2.89195e-11
4.80825e-11
8.59514e-13
-1.32663e-08
-7.61703e-12
2.96794e-11
1.06631e-11
-2.04004e-08
-4.25038e-12
1.08111e-11
-2.60658e-12
-2.26716e-08
1.26516e-11
9.4158e-13
-1.36483e-08
-1.49367e-12
-2.38028e-08
6.65006e-11
1.54474e-12
-7.18084e-09
1.33804e-12
2.458e-10
-4.75589e-10
-1.18709e-07
-3.32301e-10
4.33364e-10
-1.26455e-07
3.95061e-10
-3.75533e-11
-1.21544e-07
3.75751e-10
-4.02395e-12
-1.3103e-07
-3.81838e-10
1.05593e-11
-1.18552e-07
2.57694e-12
-1.26534e-07
-1.40081e-11
-6.40003e-12
-1.20668e-07
-7.47821e-17
-1.30315e-07
2.62712e-12
-1.24448e-07
-1.37413e-11
3.75944e-10
-1.31277e-07
1.349e-11
-7.72013e-12
-1.24411e-07
-1.53118e-11
-1.30423e-07
-2.36455e-11
-2.32323e-08
1.45856e-11
2.12511e-11
-3.95308e-11
-3.94628e-11
1.45398e-11
2.61819e-08
-2.62082e-08
2.18852e-11
2.49157e-08
-2.49093e-08
-2.32361e-08
1.10372e-10
-2.64808e-08
4.11836e-10
-3.07263e-10
2.37866e-08
-2.36282e-08
2.5344e-08
-1.66622e-10
-2.51722e-08
-2.08912e-10
-8.45677e-11
-2.63633e-08
-2.61603e-08
-7.01365e-11
1.75845e-11
2.66033e-11
-7.00197e-11
2.38388e-08
1.52509e-11
-2.38136e-08
1.90432e-11
2.70618e-08
7.14628e-12
-2.70465e-08
-1.02703e-11
9.16018e-11
-1.72703e-14
-2.1059e-11
-2.60927e-08
-1.44002e-11
-7.02199e-12
-3.63795e-11
-2.61581e-08
-4.36421e-11
-4.41635e-11
2.34727e-08
-2.34562e-08
2.49723e-08
-3.81597e-11
-2.49325e-08
2.35738e-11
1.60079e-11
-2.62047e-08
-2.616e-08
2.09943e-11
-6.89212e-11
-2.85844e-11
2.19256e-11
2.70592e-08
-2.70334e-08
-6.97476e-11
2.38312e-08
1.82393e-11
-2.38099e-08
9.1494e-11
-1.0345e-11
2.99629e-11
-2.61578e-08
-1.69962e-11
-2.61314e-08
-4.34874e-11
-3.93394e-11
-4.32093e-11
2.34626e-08
-2.3444e-08
-4.06648e-11
2.49815e-08
-2.49372e-08
1.58331e-11
2.4343e-11
-2.61492e-08
-1.76309e-11
5.96143e-11
-2.32354e-08
-9.13578e-11
-1.13012e-11
1.28495e-10
2.60921e-08
-2.6026e-08
-1.81764e-11
1.97694e-10
-2.52199e-08
-1.46924e-12
1.19699e-13
-1.47062e-13
-4.64225e-09
-6.15857e-13
1.20513e-13
-8.81342e-14
-2.50601e-09
-2.1975e-13
8.08081e-14
-4.77025e-14
-1.23311e-09
-4.84893e-14
4.04058e-14
-2.12677e-14
-5.10149e-10
1.11949e-14
-5.43333e-15
-1.21134e-10
-7.11339e-13
-8.25141e-14
4.63779e-09
5.61602e-14
-4.63835e-09
-3.57609e-13
-3.90602e-14
2.50345e-09
2.71982e-14
-2.50379e-09
-1.50256e-13
-1.63545e-14
1.2319e-09
9.27874e-15
-1.2321e-09
-3.8418e-14
-5.06962e-15
5.09618e-10
1.83307e-15
-5.09725e-10
-5.37488e-16
1.21007e-10
3.77621e-16
-1.21044e-10
-1.03924e-12
-2.48888e-09
-4.48675e-13
-1.35119e-09
-1.63282e-13
-6.67643e-10
-3.6292e-14
-2.77047e-10
-6.59068e-11
-6.63531e-13
2.48594e-09
-2.21816e-13
-2.48641e-09
-3.3022e-13
1.34962e-09
-1.24249e-13
-1.34987e-09
-1.36094e-13
6.66908e-10
-6.42761e-14
-6.67056e-10
-3.42333e-14
2.76739e-10
-2.84474e-14
-2.7682e-10
6.58372e-11
-7.82647e-15
-6.58651e-11
-6.82265e-13
1.04676e-13
2.48534e-09
-2.56936e-13
-2.4858e-09
-3.42342e-13
5.18101e-14
1.34939e-09
-1.44006e-13
-1.34963e-09
-1.42561e-13
2.42846e-14
6.66765e-10
-7.49884e-14
-6.6691e-10
-3.64948e-14
9.26825e-15
2.76708e-10
-3.32191e-14
-2.76787e-10
1.88112e-15
6.58187e-11
-8.85659e-15
-6.58457e-11
-7.1315e-13
4.63713e-09
-4.63767e-09
3.58494e-14
-3.55136e-13
2.50314e-09
-2.50348e-09
1.56328e-14
-1.46628e-13
1.23178e-09
-1.23198e-09
4.68684e-15
-3.60151e-14
5.0962e-10
-5.09729e-10
5.07724e-16
1.21015e-10
-1.21054e-10
-1.09856e-16
7.65469e-13
4.91896e-15
5.09248e-14
3.24501e-13
-1.66903e-14
2.63523e-14
1.22601e-13
-1.16146e-14
9.56524e-15
2.95202e-14
-5.64467e-15
2.46525e-15
-1.77221e-15
2.93772e-16
2.24974e-13
-2.88181e-09
1.30703e-13
-2.46977e-13
8.41099e-14
-1.56084e-09
8.50041e-14
-1.44071e-13
3.17155e-14
-7.69941e-10
4.9768e-14
-8.11363e-14
8.92534e-15
-3.19086e-10
2.35627e-14
-3.84032e-14
-7.58583e-11
6.14432e-15
-1.0438e-14
-4.29179e-13
1.07222e-13
3.14803e-09
1.18425e-14
-3.14842e-09
-2.34009e-13
5.02946e-14
1.70273e-09
7.5231e-15
-1.70299e-09
-1.01242e-13
2.14792e-14
8.3917e-10
4.46768e-15
-8.39328e-10
-2.59366e-14
8.05558e-15
3.47543e-10
2.16877e-15
-3.47628e-10
1.98232e-15
8.26012e-11
5.04666e-16
-8.26291e-11
-4.26346e-13
1.81819e-13
-2.88218e-09
-2.25575e-13
9.45395e-14
-1.56109e-09
-9.64434e-14
4.50723e-14
-7.70095e-10
-2.47875e-14
1.8139e-14
-3.19169e-10
4.22794e-15
-7.58856e-11
1.83066e-13
1.59963e-14
6.27021e-14
1.07668e-14
2.44619e-14
6.45257e-15
7.61763e-15
3.10454e-15
7.56657e-16
6.07903e-13
1.01906e-13
2.64542e-13
4.42279e-14
1.00994e-13
2.11597e-14
2.51409e-14
9.28855e-15
2.28544e-15
2.36645e-13
-2.88058e-09
9.57506e-14
-1.97407e-13
9.00394e-14
-1.56017e-09
6.12329e-14
-1.12926e-13
3.44529e-14
-7.69573e-10
3.54642e-14
-6.33785e-14
9.69537e-15
-3.18958e-10
1.67025e-14
-3.02015e-14
-7.58276e-11
4.47055e-15
-8.43692e-15
-4.25864e-13
1.32585e-13
3.14731e-09
-3.1477e-09
-2.31882e-13
6.61549e-14
1.70235e-09
-1.7026e-09
-9.99975e-14
3.05776e-14
8.38984e-10
-8.39142e-10
-2.53831e-14
1.22672e-14
3.47466e-10
-3.47551e-10
2.89321e-15
8.25832e-11
-8.26111e-11
-4.1567e-13
2.22137e-13
-2.88094e-09
-2.21677e-13
1.18615e-13
-1.56041e-09
-9.53551e-14
5.8713e-14
-7.69725e-10
-2.43694e-14
2.45794e-14
-3.1904e-10
5.92599e-15
-7.58546e-11
1.7802e-13
5.9342e-14
2.29688e-14
7.77404e-15
5.91502e-13
2.76386e-14
5.2245e-14
2.58155e-13
3.75512e-14
1.14597e-14
9.89166e-14
2.39024e-14
1.75619e-15
2.38562e-14
1.11007e-14
-1.54349e-16
2.74264e-15
-4.49504e-16
7.18897e-13
7.04476e-14
2.99378e-13
4.65402e-14
1.13469e-13
2.59588e-14
3.05553e-14
1.22642e-14
3.72638e-15
4.09605e-13
-2.42982e-14
-4.34128e-15
-2.47144e-09
1.75497e-13
-1.47292e-14
1.7407e-15
-1.34142e-09
6.6514e-14
-7.12988e-15
1.91054e-15
-6.62762e-10
1.61489e-14
-2.56608e-15
1.50332e-15
-2.74973e-10
-1.54557e-16
8.92669e-16
-6.5428e-11
6.84095e-13
-4.63912e-09
3.24268e-15
2.84806e-13
-2.5041e-09
-2.6689e-14
1.08548e-13
-1.23225e-09
-2.22547e-14
2.74535e-14
-5.09781e-10
-1.2485e-14
-1.21067e-10
-3.96634e-15
-9.1629e-13
8.87616e-14
-8.72369e-14
4.43985e-09
-4.44092e-09
-4.01e-13
5.34874e-14
-3.59294e-14
2.39847e-09
-2.399e-09
-1.51342e-13
2.70411e-14
-1.17507e-14
1.18078e-09
-1.18105e-09
-3.58685e-14
1.12427e-14
-2.32824e-15
4.88733e-10
-4.88855e-10
2.96706e-15
-3.01113e-18
1.16096e-10
-1.16133e-10
-5.39847e-13
2.47202e-09
-2.47278e-09
-2.33199e-13
1.34186e-09
-1.34221e-09
-8.72558e-14
6.6287e-10
-6.63041e-10
-2.09144e-14
2.75067e-10
-2.75146e-10
6.54317e-11
-6.54563e-11
3.43037e-13
-3.84106e-14
1.85488e-13
-4.91789e-15
8.31031e-14
7.88443e-15
2.31294e-14
7.55211e-15
3.22677e-15
-6.38583e-13
-7.54677e-14
4.43955e-09
-4.44015e-09
-3.07821e-13
-2.90662e-14
2.39801e-09
-2.39835e-09
-1.26615e-13
-8.12493e-15
1.18068e-09
-1.18086e-09
-3.22385e-14
-9.85522e-16
4.88677e-10
-4.88773e-10
7.2651e-16
1.1606e-10
-1.16092e-10
-3.85863e-13
2.47038e-09
-2.47075e-09
-1.9617e-13
1.34081e-09
-1.341e-09
-8.27926e-14
6.62467e-10
-6.62582e-10
-2.18923e-14
2.74867e-10
-2.74929e-10
6.53798e-11
-6.54013e-11
3.95698e-13
1.45394e-14
1.71969e-13
4.81599e-15
6.64069e-14
-2.63968e-15
1.68121e-14
-3.03195e-15
-1.01794e-15
4.78854e-13
-1.29322e-15
2.18576e-13
1.89929e-14
8.91068e-14
1.90623e-14
2.24556e-14
1.09887e-14
2.89536e-15
6.6012e-13
2.90694e-13
1.13723e-13
2.87255e-14
8.80756e-13
-4.60961e-09
3.88694e-13
-2.48763e-09
1.50234e-13
-1.22389e-09
3.66776e-14
-5.0626e-10
-1.20225e-10
-7.31835e-13
-4.61033e-09
-3.57689e-13
-2.48804e-09
-1.49673e-13
-1.22412e-09
-3.83254e-14
-5.06381e-10
-1.20267e-10
8.58244e-13
-4.60725e-09
3.76152e-13
-2.48647e-09
1.45668e-13
-1.22324e-09
3.72751e-14
-5.0605e-10
-1.20151e-10
-7.36361e-13
-4.60798e-09
-3.60226e-13
-2.48688e-09
-1.50991e-13
-1.22347e-09
-3.91043e-14
-5.06173e-10
-1.20193e-10
3.77883e-13
1.28007e-14
-2.47016e-09
1.62677e-13
1.00328e-14
-1.34078e-09
6.32326e-14
3.87421e-15
-6.62462e-10
1.61641e-14
3.30772e-16
-2.74863e-10
-8.03414e-16
-6.53898e-11
6.75967e-13
1.08588e-14
-4.43926e-09
2.88594e-13
6.21062e-15
-2.398e-09
1.09556e-13
2.82401e-15
-1.18062e-09
2.76665e-14
1.38406e-15
-4.88611e-10
6.69987e-16
-1.16065e-10
7.51128e-13
-4.43998e-09
3.26257e-13
-2.39838e-09
1.23786e-13
-1.18081e-09
2.92191e-14
-4.8867e-10
-1.16094e-10
3.18629e-10
2.5036e-10
1.13236e-07
2.02083e-10
2.58464e-10
1.3393e-10
2.81886e-11
2.37978e-10
6.46142e-11
9.16929e-11
-1.1404e-07
-7.8173e-10
-1.76334e-11
6.25762e-11
1.02144e-11
2.73883e-08
-2.75457e-08
1.02199e-10
-1.74403e-11
-1.95609e-11
4.99915e-11
-2.575e-11
1.17974e-07
-1.17961e-07
-3.97096e-11
1.48267e-11
-8.09394e-12
1.1289e-07
2.6757e-11
3.83225e-11
-2.86138e-11
-5.97351e-11
5.50843e-11
-5.94176e-11
5.60248e-11
-1.12885e-07
-1.1357e-07
5.46382e-12
5.07593e-10
-8.1787e-10
1.13865e-07
1.65078e-11
4.08346e-11
-1.59231e-11
2.18079e-12
1.85367e-11
-2.27098e-11
-2.93265e-11
-2.75485e-08
8.3024e-11
2.27464e-12
4.86526e-11
2.83022e-11
2.73862e-08
-5.37372e-12
-2.31906e-12
-1.17994e-07
2.03218e-12
3.54693e-12
1.17996e-07
-1.1288e-07
-3.85724e-11
2.45866e-12
3.46897e-13
1.12875e-07
2.77045e-11
3.92732e-11
-2.34082e-11
-5.77348e-11
5.65688e-11
5.82087e-11
-6.0339e-11
-1.13947e-07
-4.35557e-11
4.63326e-12
1.74404e-12
1.13944e-07
1.37568e-11
4.38529e-11
-1.48612e-11
3.82102e-12
2.35507e-11
-4.29455e-12
-2.60446e-11
-2.75336e-08
2.87908e-11
4.40611e-11
4.88749e-11
3.22292e-11
2.73797e-08
-1.58095e-12
5.77312e-13
-1.17999e-07
-2.43037e-13
1.25465e-12
1.17999e-07
-1.1287e-07
-3.81176e-11
-5.7784e-13
-1.10524e-12
1.12868e-07
2.84971e-11
3.98565e-11
-2.77283e-11
-5.74221e-11
5.69482e-11
5.87022e-11
-5.75564e-11
-1.1394e-07
-4.29816e-11
8.76684e-13
8.6953e-14
1.13939e-07
1.4364e-11
4.37755e-11
-1.49983e-11
4.33823e-12
2.42651e-11
-3.69131e-12
-2.54187e-11
-2.75311e-08
2.83566e-11
4.36865e-11
4.90808e-11
3.25565e-11
2.73775e-08
-9.05516e-13
8.01627e-13
-1.17998e-07
-5.45157e-13
6.71832e-13
1.17998e-07
-1.12865e-07
-3.81315e-11
-5.6992e-13
-8.15129e-13
1.12863e-07
2.80454e-11
3.95508e-11
-2.31794e-11
-5.75528e-11
5.67691e-11
5.85521e-11
-6.02558e-11
-1.13939e-07
-4.30667e-11
1.20064e-13
1.23346e-13
1.13939e-07
1.42666e-11
4.36811e-11
-1.50833e-11
4.41839e-12
2.44125e-11
-3.59025e-12
-2.52737e-11
-2.75302e-08
2.83436e-11
4.37274e-11
4.89718e-11
3.25438e-11
2.73766e-08
-1.11658e-12
1.35826e-12
-1.17999e-07
-9.65935e-13
6.52012e-13
1.17999e-07
-1.12863e-07
-3.82228e-11
-9.13519e-13
-7.82122e-13
1.12863e-07
2.83434e-11
3.9713e-11
-2.78893e-11
-5.75861e-11
5.6748e-11
5.85292e-11
-5.77278e-11
-1.13939e-07
-4.29858e-11
1.64997e-13
-1.50029e-13
1.13939e-07
1.43436e-11
4.37444e-11
-1.50249e-11
4.38655e-12
2.43826e-11
-3.62599e-12
-2.53291e-11
-2.75298e-08
2.83799e-11
4.36845e-11
4.89889e-11
3.24733e-11
2.73762e-08
-9.31623e-13
1.40999e-12
-1.17999e-07
-9.17683e-13
6.13184e-13
1.17998e-07
-1.12862e-07
-3.81692e-11
-1.27949e-12
-7.74626e-13
1.12861e-07
2.80083e-11
3.95197e-11
-2.32056e-11
-5.7506e-11
5.67831e-11
5.85861e-11
-6.02277e-11
-1.13939e-07
-4.29985e-11
-6.58038e-14
1.98828e-14
1.13939e-07
1.4292e-11
4.3721e-11
-1.50837e-11
4.4433e-12
2.44841e-11
-3.56231e-12
-2.52218e-11
-2.75298e-08
2.83532e-11
4.36185e-11
4.90375e-11
3.24901e-11
2.73763e-08
-4.25991e-13
9.90002e-13
-1.17997e-07
-4.9484e-13
3.99087e-13
1.17997e-07
-1.12862e-07
-3.80786e-11
-1.72143e-12
-1.24956e-12
1.12862e-07
2.82079e-11
3.98766e-11
-2.73733e-11
-5.74414e-11
5.68525e-11
5.86616e-11
-5.76011e-11
-1.13938e-07
-4.30196e-11
-5.94595e-13
2.49423e-13
1.13938e-07
1.42502e-11
4.3688e-11
-1.5134e-11
4.54521e-12
2.46678e-11
-3.4436e-12
-2.50523e-11
-2.75296e-08
2.82625e-11
4.35226e-11
4.91142e-11
3.26084e-11
2.73761e-08
-4.99939e-13
4.31062e-13
-1.17996e-07
-1.98653e-13
5.09325e-13
1.17996e-07
-1.12861e-07
-3.80442e-11
-1.39274e-12
-1.18798e-12
1.12859e-07
2.78325e-11
3.96464e-11
-2.27359e-11
-5.74755e-11
5.67915e-11
5.86096e-11
-6.01891e-11
-1.13937e-07
-4.3125e-11
-3.48116e-13
5.32059e-13
1.13937e-07
1.41012e-11
4.35823e-11
-1.52739e-11
4.52433e-12
2.46465e-11
-3.46745e-12
-2.5065e-11
-2.75295e-08
2.82734e-11
4.355e-11
4.90869e-11
3.2616e-11
2.7376e-08
-9.11115e-13
-1.58977e-13
-1.17996e-07
1.1344e-13
8.12965e-13
1.17996e-07
-1.12861e-07
-3.81945e-11
-9.86744e-13
-8.88751e-13
1.1286e-07
2.80163e-11
3.97587e-11
-2.75588e-11
-5.75923e-11
5.67012e-11
5.8482e-11
-5.77111e-11
-1.13937e-07
-4.32977e-11
3.72761e-14
9.73954e-13
1.13937e-07
1.39249e-11
4.34255e-11
-1.54175e-11
4.46154e-12
2.45121e-11
-3.54798e-12
-2.52014e-11
-2.75294e-08
2.83547e-11
4.36686e-11
4.89947e-11
3.24946e-11
2.73759e-08
-1.29512e-12
9.69414e-14
-1.17997e-07
-4.96172e-14
9.8102e-13
1.17997e-07
-1.12861e-07
-3.83139e-11
-1.10328e-12
-4.55539e-13
1.12859e-07
2.74776e-11
3.93842e-11
-2.30753e-11
-5.75442e-11
5.67076e-11
5.85001e-11
-6.02327e-11
-1.13938e-07
-4.33007e-11
3.26068e-13
9.60667e-13
1.13938e-07
1.39924e-11
4.34475e-11
-1.53279e-11
4.35898e-12
2.43213e-11
-3.65858e-12
-2.53863e-11
-2.75294e-08
2.84923e-11
4.36804e-11
4.90219e-11
3.22902e-11
2.73759e-08
-1.56576e-12
1.01873e-12
-1.17998e-07
-5.69709e-13
1.03515e-12
1.17998e-07
-1.12862e-07
-3.83773e-11
-1.63913e-12
-5.27423e-13
1.12862e-07
2.78558e-11
3.95937e-11
-2.76937e-11
-5.74613e-11
5.68049e-11
5.85881e-11
-5.75936e-11
-1.13938e-07
-4.3122e-11
6.05134e-13
3.91679e-13
1.13938e-07
1.42202e-11
4.36239e-11
-1.51149e-11
4.28679e-12
2.42175e-11
-3.73024e-12
-2.54901e-11
-2.75297e-08
2.85546e-11
4.36148e-11
4.91023e-11
3.22176e-11
2.73762e-08
-1.29534e-12
1.63269e-12
-1.17999e-07
-9.03693e-13
8.57605e-13
1.17998e-07
-1.12863e-07
-3.82567e-11
-1.83182e-12
-6.90753e-13
1.12862e-07
2.7613e-11
3.94317e-11
-2.29634e-11
-5.73954e-11
5.68381e-11
5.8658e-11
-6.01064e-11
-1.13938e-07
-4.29989e-11
4.5123e-13
1.64882e-15
1.13938e-07
1.43291e-11
4.37278e-11
-1.50358e-11
4.30575e-12
2.42752e-11
-3.68955e-12
-2.5437e-11
-2.75298e-08
2.84846e-11
4.35843e-11
4.91126e-11
3.23071e-11
2.73763e-08
-1.09589e-12
1.86518e-12
-1.17999e-07
-1.02046e-12
8.70531e-13
1.17998e-07
-1.12864e-07
-3.82362e-11
-1.98519e-12
-8.57174e-13
1.12865e-07
2.80262e-11
3.96682e-11
-2.76101e-11
-5.74043e-11
5.6845e-11
5.86517e-11
-5.75569e-11
-1.13938e-07
-4.301e-11
2.33642e-13
-8.5472e-15
1.13939e-07
1.42856e-11
4.36989e-11
-1.50933e-11
4.32315e-12
2.43401e-11
-3.64346e-12
-2.53938e-11
-2.75299e-08
2.84376e-11
4.36236e-11
4.90661e-11
3.23564e-11
2.73764e-08
-8.28791e-13
1.85867e-12
-1.17999e-07
-7.74338e-13
8.89978e-13
1.17998e-07
-1.12865e-07
-3.81495e-11
-2.04612e-12
-9.11829e-13
1.12864e-07
2.77185e-11
3.94172e-11
-2.29979e-11
-5.73457e-11
5.68811e-11
5.87153e-11
-6.00471e-11
-1.13939e-07
-4.30393e-11
-5.05799e-14
9.94047e-14
1.13939e-07
1.42588e-11
4.36505e-11
-1.51279e-11
4.36515e-12
2.44464e-11
-3.56271e-12
-2.5312e-11
-2.75299e-08
2.83711e-11
4.36181e-11
4.90759e-11
3.24149e-11
2.73764e-08
-1.34688e-12
2.4826e-12
-1.18e-07
-3.63827e-12
3.48615e-12
1.17999e-07
-1.12866e-07
-3.82811e-11
-2.74155e-12
-9.22483e-13
1.12867e-07
2.80465e-11
3.94842e-11
-2.77634e-11
-5.71918e-11
5.69596e-11
5.8778e-11
-5.73728e-11
-1.13938e-07
-4.2919e-11
-1.78234e-12
-6.43757e-13
1.13939e-07
1.43178e-11
4.38649e-11
-1.48104e-11
4.77063e-12
2.46484e-11
-3.40148e-12
-2.49687e-11
-2.75298e-08
2.82728e-11
4.34864e-11
4.91253e-11
3.25246e-11
2.73764e-08
3.20853e-12
-1.18762e-07
-1.92397e-12
1.39364e-12
-3.31012e-12
1.18762e-07
-1.13728e-07
-4.4486e-11
-2.99187e-12
8.89066e-13
9.88013e-11
4.45803e-11
-9.9013e-11
-4.71674e-10
3.51182e-10
4.74441e-10
-3.51158e-10
-1.14492e-07
2.64316e-10
8.7982e-13
-1.91079e-12
1.99631e-10
-2.61628e-10
-1.97413e-10
-1.14718e-10
2.52697e-10
1.17282e-10
-2.51958e-10
1.14485e-07
-2.76958e-08
-2.8608e-10
-2.6442e-10
3.2827e-10
2.68684e-10
2.76494e-08
3.27156e-10
2.6541e-10
2.76521e-08
-2.77038e-08
-2.22246e-10
6.07618e-12
2.7545e-08
-2.73869e-08
-5.27724e-11
-3.05685e-11
-8.07493e-11
1.88569e-10
1.13466e-07
1.66528e-11
-1.35903e-11
-2.36457e-11
1.73188e-11
1.97779e-11
-2.32827e-11
-2.25784e-11
-1.13593e-07
-4.97447e-11
-1.13965e-07
2.0573e-10
-3.73644e-10
-2.13244e-11
-1.88956e-10
-3.25103e-10
-2.86037e-11
1.44086e-11
-2.32815e-10
1.35201e-09
-5.92179e-13
1.13555e-07
-1.13422e-07
-2.43595e-10
9.35997e-13
-2.10719e-11
1.98762e-11
-2.43358e-11
-2.7578e-11
1.36654e-11
1.5662e-11
1.33343e-10
-2.73879e-08
-5.26073e-11
-2.8474e-11
-8.01067e-11
3.77035e-11
4.07654e-11
3.79912e-11
3.84828e-11
2.73763e-08
-2.75312e-08
-3.55998e-11
-3.89032e-11
2.75236e-08
-2.73703e-08
-3.95149e-11
-3.93159e-11
9.40743e-12
1.15009e-07
6.34553e-12
3.34991e-11
-1.16978e-11
2.12201e-11
1.80159e-11
-2.83088e-11
-2.87549e-11
-1.15009e-07
-3.71744e-11
1.24913e-11
1.01025e-11
1.15047e-07
7.03648e-12
3.46164e-11
-1.1406e-11
2.28382e-11
1.92045e-11
-2.64548e-11
-2.80275e-11
-1.1505e-07
1.15003e-07
7.53024e-12
-1.15006e-07
3.41654e-12
-3.5668e-11
-1.00588e-11
8.12922e-12
-2.57885e-11
-2.51416e-11
2.14067e-11
2.38892e-11
3.54854e-11
1.15039e-07
7.8447e-12
-1.15042e-07
3.5563e-12
-3.60481e-11
-1.05915e-11
8.22466e-12
-2.59598e-11
-2.48587e-11
2.09246e-11
2.37e-11
3.83367e-11
3.94965e-11
2.73735e-08
-2.75282e-08
-3.91984e-11
2.75234e-08
-2.73692e-08
-3.90757e-11
-4.03505e-11
-3.19799e-12
1.12903e-07
2.59525e-11
3.66824e-11
-2.98826e-11
-6.05264e-11
5.34e-11
-6.01121e-11
5.49325e-11
-1.12899e-07
-9.04379e-11
-3.29631e-10
6.78073e-10
1.14073e-07
1.71545e-11
2.88968e-11
-2.62798e-11
-4.01821e-11
5.3428e-11
-5.92217e-11
4.89988e-11
-1.14354e-07
1.12894e-07
4.64341e-12
-1.12898e-07
1.76384e-12
-3.87547e-11
-2.83489e-11
2.77039e-11
5.79615e-11
-5.77232e-11
5.60861e-11
-5.78783e-11
2.9544e-11
1.13943e-07
4.76088e-12
-1.13947e-07
2.25447e-12
-2.92656e-11
-2.4768e-11
2.38956e-11
3.5997e-11
-5.69065e-11
5.48799e-11
-3.66736e-11
-3.14772e-10
6.89e-10
1.1407e-07
1.92249e-11
3.21888e-11
-2.46342e-11
-3.99208e-11
5.43001e-11
-5.93987e-11
5.01883e-11
-1.14393e-07
4.43178e-12
-1.12883e-07
1.19524e-12
-3.89014e-11
-2.8044e-11
2.75987e-11
5.77509e-11
-5.80974e-11
-5.81305e-11
5.61847e-11
2.96479e-11
1.13937e-07
6.4169e-12
-1.13941e-07
2.29602e-12
-2.91216e-11
-2.474e-11
2.34929e-11
3.60996e-11
-5.76326e-11
5.52165e-11
-3.73374e-11
4.98501e-11
2.65756e-11
2.73836e-08
-4.3718e-11
2.75289e-08
-2.73767e-08
-4.73091e-11
-3.16372e-11
4.92118e-10
-8.4157e-10
1.13901e-07
1.55201e-11
3.74905e-11
-1.73948e-11
2.20743e-12
1.91531e-11
-2.80234e-11
-2.25542e-11
7.04009e-12
-1.1395e-07
2.73556e-12
-4.38155e-11
-1.49989e-11
1.35157e-11
-4.97147e-12
-2.64685e-11
3.49864e-12
2.29865e-11
4.36711e-11
1.1399e-07
7.36689e-12
-1.13993e-07
2.41424e-12
-4.42643e-11
-1.52833e-11
1.37625e-11
-4.93911e-12
-2.61026e-11
2.26528e-11
3.62291e-12
-2.73806e-08
-4.86424e-11
-3.10258e-11
3.53474e-11
3.84656e-11
4.03096e-11
4.05105e-11
2.7369e-08
-3.5971e-11
-3.93364e-11
2.75202e-08
-2.73664e-08
-3.92167e-11
-3.92758e-11
2.47191e-12
1.15e-07
8.47462e-12
3.57799e-11
-9.85984e-12
2.42043e-11
2.19826e-11
-2.53325e-11
-2.47372e-11
-3.58061e-11
6.38603e-12
2.8631e-12
1.15038e-07
8.34733e-12
3.55117e-11
-1.44752e-11
2.40331e-11
2.17113e-11
-2.55588e-11
-2.19491e-11
1.14994e-07
2.15823e-12
-1.14995e-07
1.0398e-12
-3.50468e-11
-9.67654e-12
8.76033e-12
-2.47984e-11
-2.42569e-11
2.257e-11
2.4646e-11
3.60188e-11
1.1503e-07
2.47566e-12
-1.15031e-07
1.60804e-12
-3.55632e-11
-1.05572e-11
8.86011e-12
-2.48574e-11
-2.41507e-11
2.24317e-11
2.46584e-11
3.98291e-11
4.11024e-11
2.7368e-08
-3.988e-11
2.75208e-08
-2.73664e-08
-3.85456e-11
-3.99999e-11
9.09786e-13
1.1289e-07
2.79127e-11
3.90754e-11
-2.82405e-11
-5.75793e-11
5.64467e-11
5.84053e-11
-5.74884e-11
-2.89041e-11
3.10082e-12
1.58503e-12
1.1394e-07
2.41715e-11
2.9763e-11
-2.4613e-11
-3.63894e-11
5.52589e-11
3.64687e-11
-5.6669e-11
1.12883e-07
-2.13961e-13
-1.12885e-07
1.774e-13
-3.81079e-11
-2.80887e-11
2.81125e-11
5.87703e-11
-5.73113e-11
5.67022e-11
-5.73116e-11
3.00058e-11
1.13932e-07
4.78119e-13
-1.13934e-07
4.10039e-13
-2.8551e-11
-2.44887e-11
2.4365e-11
3.68429e-11
-5.64537e-11
5.5552e-11
-3.61185e-11
3.74718e-12
1.35412e-12
1.13933e-07
2.38308e-11
2.99034e-11
-2.44635e-11
-3.69834e-11
5.55994e-11
-5.73186e-11
3.65391e-11
-2.38999e-13
-1.12872e-07
-8.20387e-13
-3.81292e-11
-2.77453e-11
2.85293e-11
5.87582e-11
-5.74675e-11
-5.73757e-11
5.7041e-11
3.01884e-11
1.13925e-07
7.90964e-13
-1.13928e-07
6.40366e-14
-2.83731e-11
-2.41513e-11
2.42703e-11
3.70568e-11
-5.70475e-11
5.60152e-11
-3.66267e-11
4.83559e-11
3.26843e-11
2.73754e-08
-4.37824e-11
2.75252e-08
-2.73729e-08
-4.72192e-11
-3.13415e-11
5.12962e-12
1.89875e-12
1.13987e-07
1.38774e-11
4.38402e-11
-1.51805e-11
3.93925e-12
2.30888e-11
-2.56997e-11
-4.5775e-12
1.38575e-12
-1.13941e-07
2.77808e-13
-4.29929e-11
-1.49839e-11
1.43663e-11
-3.75166e-12
-2.54802e-11
4.28266e-12
2.42012e-11
4.41221e-11
1.13983e-07
1.41038e-12
-1.13984e-07
9.48491e-13
-4.36965e-11
-1.50071e-11
1.40954e-11
-3.94195e-12
-2.49855e-11
2.38666e-11
4.50881e-12
-2.73778e-08
-4.83825e-11
-3.06275e-11
3.50335e-11
3.8061e-11
4.06048e-11
4.05703e-11
2.73659e-08
-3.59239e-11
-3.93863e-11
2.75189e-08
-2.73652e-08
-3.89084e-11
-3.94669e-11
7.93125e-13
1.14993e-07
8.74975e-12
3.59811e-11
-9.68084e-12
2.4705e-11
2.26426e-11
-2.47385e-11
-2.41807e-11
-3.54745e-11
2.02312e-12
1.81464e-12
1.15029e-07
8.88901e-12
3.60469e-11
-1.05137e-11
2.47322e-11
2.25504e-11
-2.47555e-11
-2.40655e-11
1.14992e-07
8.92422e-13
-1.14992e-07
8.34762e-13
-3.50959e-11
-9.72016e-12
8.68366e-12
-2.46561e-11
-2.40941e-11
2.27299e-11
2.47755e-11
3.58761e-11
1.15027e-07
1.18636e-12
-1.15028e-07
1.4487e-12
-3.54309e-11
-1.02529e-11
8.76071e-12
-2.47032e-11
-2.40179e-11
2.26069e-11
2.47613e-11
4.02139e-11
4.10702e-11
2.7366e-08
-3.97371e-11
2.75197e-08
-2.73652e-08
-3.86904e-11
-4.02521e-11
-2.49707e-13
1.12882e-07
2.81263e-11
3.93723e-11
-2.80748e-11
-5.73358e-11
5.66684e-11
5.87491e-11
-5.73456e-11
-2.85163e-11
1.82585e-13
2.63834e-13
1.1393e-07
2.43668e-11
3.00319e-11
-2.44859e-11
-3.6146e-11
5.55254e-11
3.68215e-11
-5.64851e-11
1.12879e-07
-8.02289e-13
-1.1288e-07
-1.34745e-13
-3.80293e-11
-2.80712e-11
2.81285e-11
5.86091e-11
-5.74418e-11
5.65492e-11
-5.74659e-11
3.0044e-11
1.13927e-07
8.9999e-14
-1.13928e-07
4.67901e-14
-2.84874e-11
-2.44841e-11
2.43664e-11
3.66492e-11
-5.65987e-11
5.53924e-11
-3.63113e-11
5.32048e-13
-6.10122e-14
1.13924e-07
2.42771e-11
3.01921e-11
-2.41507e-11
-3.66644e-11
5.59871e-11
-5.70916e-11
3.70292e-11
-5.39524e-13
-1.12866e-07
-7.40759e-13
-3.81445e-11
-2.75933e-11
2.81942e-11
5.8547e-11
-5.76832e-11
-5.75609e-11
5.67667e-11
3.0203e-11
1.13921e-07
3.50547e-13
-1.13921e-07
-2.71032e-13
-2.83471e-11
-2.41152e-11
2.42994e-11
3.69012e-11
-5.71853e-11
5.58693e-11
-3.67783e-11
4.83937e-11
3.29221e-11
2.73724e-08
-4.36882e-11
2.75242e-08
-2.73717e-08
-4.74386e-11
-3.13518e-11
9.59556e-13
8.27237e-13
1.13982e-07
1.4084e-11
4.41105e-11
-1.50315e-11
4.55726e-12
2.39426e-11
-2.49295e-11
-3.87622e-12
1.48315e-13
-1.13939e-07
2.39881e-13
-4.30619e-11
-1.50864e-11
1.42639e-11
-3.59786e-12
-2.52804e-11
4.41579e-12
2.43939e-11
4.40708e-11
1.13981e-07
2.02512e-13
-1.13981e-07
6.76016e-13
-4.37284e-11
-1.50857e-11
1.401e-11
-3.80435e-12
-2.48223e-11
2.40448e-11
4.63504e-12
-2.73768e-08
-4.85174e-11
-3.06417e-11
3.50967e-11
3.80392e-11
4.02824e-11
4.04168e-11
2.73651e-08
-3.59732e-11
-3.93319e-11
2.75184e-08
-2.73647e-08
-3.8998e-11
-3.94123e-11
6.90596e-13
1.14992e-07
8.69423e-12
3.59199e-11
-9.71164e-12
2.47489e-11
2.27374e-11
-2.46713e-11
-2.4099e-11
-3.54912e-11
1.30598e-12
1.73359e-12
1.15029e-07
8.56481e-12
3.56693e-11
-1.43587e-11
2.47195e-11
2.25874e-11
-2.47346e-11
-2.1203e-11
1.14992e-07
1.10342e-12
-1.14992e-07
6.01381e-13
-3.50322e-11
-9.64853e-12
8.77027e-12