/*--------------------------------*- C++ -*----------------------------------*\
| =========                 |                                                 |
| \\      /  F ield         | OpenFOAM: The Open Source CFD Toolbox           |
|  \\    /   O peration     | Version:  2206                                  |
|   \\  /    A nd           | Website:  www.openfoam.com                      |
|    \\/     M anipulation  |                                                 |
\*---------------------------------------------------------------------------*/
FoamFile
{
    version     2.0;
    format      ascii;
    arch        "LSB;label=32;scalar=64";
    class       volVectorField;
    location    "0.5";
    object      U;
}
// * * * * * * * * * * * * * * * * * * * * * * * * * * * * * * * * * * * * * //

dimensions      [0 1 -1 0 0 0 0];

internalField   nonuniform List<vector> 
66701
(
(6.44481e-06 4.9682e-06 0.0647421)
(8.43454e-06 -1.32267e-06 0.0624232)
(1.89878e-05 2.51992e-06 0.075304)
(2.32184e-05 1.19204e-06 0.08685)
(8.36308e-06 -1.60848e-06 0.0701315)
(3.02328e-05 4.79312e-10 0.101248)
(3.02356e-05 2.72051e-08 0.0977495)
(7.78522e-06 -4.22844e-07 0.0726978)
(8.67719e-06 2.28846e-06 0.0624249)
(1.9757e-05 -1.81877e-06 0.075303)
(2.39182e-05 -2.26564e-07 0.0868494)
(8.34998e-06 2.3879e-06 0.070132)
(3.03197e-05 6.54761e-07 0.101249)
(7.83598e-06 9.78096e-07 0.0726978)
(3.00614e-05 8.1058e-07 0.0977514)
(7.01365e-06 -4.42689e-06 0.0647391)
(2.11871e-06 2.63836e-06 0.0461469)
(6.1529e-07 1.77467e-06 0.0315621)
(2.91699e-08 1.22254e-06 0.019805)
(-1.48717e-07 7.08895e-07 0.0104977)
(-7.8549e-08 2.38761e-07 0.00320539)
(4.29629e-06 -1.66263e-06 0.0458274)
(2.15891e-06 -1.33642e-06 0.0313626)
(1.04069e-06 -9.55974e-07 0.0196888)
(4.15813e-07 -5.79981e-07 0.0104401)
(1.06067e-07 -2.04198e-07 0.003189)
(5.00719e-06 2.40852e-07 0.0447412)
(2.23962e-06 8.18148e-08 0.0304971)
(9.65152e-07 7.00964e-08 0.01909)
(3.13331e-07 4.08548e-08 0.0101002)
(5.50781e-08 1.57863e-08 0.00307845)
(5.50327e-06 3.7793e-07 0.0447418)
(2.61519e-06 4.8573e-07 0.030498)
(1.2209e-06 3.82974e-07 0.0190907)
(4.62228e-07 2.462e-07 0.0101004)
(1.05184e-07 8.76364e-08 0.00307839)
(2.57894e-06 -2.10779e-06 0.0461451)
(9.8993e-07 -1.23366e-06 0.0315614)
(3.00325e-07 -7.6242e-07 0.0198049)
(5.84249e-09 -4.11946e-07 0.0104981)
(-3.36657e-08 -1.40835e-07 0.00320558)
(4.54481e-06 2.5106e-06 0.0458291)
(2.36108e-06 2.03806e-06 0.0313637)
(1.17668e-06 1.47404e-06 0.0196896)
(4.91507e-07 8.85821e-07 0.0104404)
(1.27707e-07 2.98582e-07 0.0031889)
(2.48513e-06 -1.03829e-06 0.0454646)
(1.14415e-06 -5.78743e-07 0.0310289)
(5.24656e-07 -3.17376e-07 0.0194401)
(1.85926e-07 -1.6878e-07 0.0102925)
(4.26491e-08 -5.64147e-08 0.00313924)
(2.20024e-06 -2.68576e-07 0.0457696)
(9.96191e-07 -1.50956e-07 0.0312556)
(4.58335e-07 -8.3787e-08 0.0195917)
(1.58683e-07 -4.7057e-08 0.0103768)
(3.46516e-08 -1.90879e-08 0.0031663)
(2.56831e-06 1.7041e-06 0.0454655)
(1.24359e-06 1.14565e-06 0.0310292)
(6.03441e-07 7.42545e-07 0.0194403)
(2.33289e-07 4.26144e-07 0.0102927)
(5.80258e-08 1.41864e-07 0.00313931)
(2.21999e-06 8.04208e-07 0.0457695)
(1.0097e-06 6.28265e-07 0.0312555)
(4.67385e-07 4.4946e-07 0.0195915)
(1.64949e-07 2.69655e-07 0.0103767)
(3.64998e-08 9.00674e-08 0.00316626)
(8.46786e-06 1.01384e-05 0.0647993)
(5.252e-06 3.94214e-06 0.0647419)
(0.000211133 0.000207719 0.129194)
(1.78812e-05 1.48193e-05 0.0888944)
(1.26836e-05 1.34277e-05 0.0887187)
(4.94708e-06 2.08514e-05 0.0754092)
(8.19586e-06 6.3586e-06 0.13273)
(1.52939e-05 4.75036e-05 0.103232)
(2.95782e-05 -1.78993e-07 0.101248)
(1.753e-05 1.55227e-06 0.075304)
(6.13673e-05 -9.6403e-07 0.118866)
(1.53337e-06 -8.89022e-08 0.132521)
(4.66086e-05 1.21546e-05 0.103156)
(-2.03769e-06 -2.01347e-06 0.134973)
(2.95338e-05 6.53139e-07 0.101249)
(1.80068e-05 -1.07097e-06 0.0753035)
(6.14062e-05 1.45628e-06 0.118866)
(5.12397e-06 -1.50731e-06 0.132525)
(-9.12361e-08 4.52756e-06 0.134963)
(4.71969e-05 -1.18082e-05 0.103156)
(5.57567e-06 -3.65418e-06 0.0647394)
(0.000210355 -0.000207327 0.12921)
(1.29357e-05 -1.34723e-05 0.0887234)
(-6.84578e-06 -4.54452e-06 0.06459)
(-1.05261e-05 -1.05972e-05 0.0807775)
(7.19173e-06 4.24706e-06 0.063556)
(5.2098e-06 2.7543e-06 0.063512)
(1.25054e-05 1.02846e-05 0.0810749)
(-2.68456e-06 -4.41542e-06 0.0634276)
(-4.48526e-06 -4.60343e-06 0.0633634)
(-1.72199e-05 -3.86079e-05 0.0994758)
(9.59104e-06 9.4893e-06 0.0747339)
(3.45247e-05 5.88532e-05 0.111654)
(-1.13073e-05 -1.19167e-05 0.0888172)
(2.13847e-05 3.9566e-05 0.0998601)
(-2.90778e-06 -9.74746e-06 0.0745748)
(-2.66956e-05 -5.49394e-05 0.111356)
(-3.89649e-05 -1.82112e-05 0.0992192)
(9.92874e-06 3.71044e-06 0.0745092)
(5.77315e-05 2.79207e-05 0.111432)
(-1.3271e-05 -1.43724e-05 0.0883656)
(4.15032e-05 1.4833e-05 0.0996672)
(-9.39216e-06 -6.49876e-06 0.0742804)
(-5.65395e-05 -3.02653e-05 0.110917)
(-7.83266e-06 2.50255e-06 0.0698821)
(2.94351e-05 -2.33701e-07 0.0977491)
(6.67515e-06 -7.42049e-07 0.0726973)
(-2.98104e-05 2.12391e-07 0.100662)
(7.37379e-06 -2.46953e-06 0.0701295)
(-2.97243e-05 -6.40477e-08 0.0972143)
(-7.52736e-06 7.32058e-07 0.0724222)
(-7.71029e-06 2.65539e-06 0.0622635)
(2.16306e-05 1.23394e-06 0.0868512)
(-1.89832e-05 -3.53267e-06 0.0750803)
(6.76201e-06 -1.62552e-06 0.0624257)
(-2.3915e-05 -1.047e-06 0.0864909)
(-7.89879e-06 -1.83855e-06 0.0698827)
(6.6901e-06 1.1138e-06 0.0726973)
(2.89888e-05 9.71958e-07 0.0977514)
(-2.96992e-05 3.52424e-07 0.100664)
(7.28782e-06 3.07883e-06 0.0701301)
(-7.45622e-06 -2.94637e-07 0.0724221)
(-2.99727e-05 8.15291e-07 0.0972159)
(-7.40181e-06 -1.78604e-06 0.0622654)
(2.20683e-05 -3.8083e-07 0.0868511)
(-1.81619e-05 4.11007e-06 0.075079)
(6.98275e-06 2.41981e-06 0.0624278)
(-2.3296e-05 1.99366e-06 0.0864903)
(-6.20292e-06 4.82905e-06 0.0645869)
(-1.08819e-05 1.07174e-05 0.0807888)
(-4.5271e-06 4.59475e-06 0.0633637)
(-4.88736e-06 4.93533e-06 0.0634387)
(-3.95365e-05 1.81748e-05 0.099214)
(5.73328e-05 -2.96656e-05 0.111461)
(-1.26133e-05 1.4247e-05 0.088369)
(-5.5603e-05 3.01384e-05 0.110947)
(-8.85472e-06 6.21953e-06 0.0742715)
(-1.68674e-05 4.07169e-05 0.0994946)
(-1.51304e-05 1.19595e-05 0.088846)
(-6.20179e-06 9.70991e-06 0.0745973)
(-2.59822e-05 5.46985e-05 0.111327)
(-4.3938e-06 6.43899e-06 0.0648487)
(-8.1774e-08 -1.84839e-06 0.136775)
(3.81729e-07 -2.22299e-06 0.138015)
(1.5799e-06 1.25132e-06 0.137918)
(1.34926e-07 1.84644e-06 0.138744)
(7.95711e-07 3.09175e-07 0.136776)
(-5.64683e-07 -1.43666e-06 0.138016)
(-1.04324e-06 1.91781e-06 0.137918)
(9.78395e-07 1.80832e-06 0.138745)
(2.44111e-06 2.57754e-06 0.137927)
(1.02219e-06 1.66293e-06 0.138745)
(-2.10963e-06 1.946e-06 0.137927)
(-3.29292e-07 1.83824e-06 0.138745)
(-5.50437e-05 -5.59812e-05 0.113694)
(-0.000210086 -0.000215933 0.129062)
(0.000221038 5.20966e-05 0.122805)
(5.30817e-05 0.000214005 0.122639)
(5.77363e-05 5.05561e-05 0.114079)
(-0.000214804 -5.16829e-05 0.122542)
(-5.04071e-05 -0.000217324 0.12229)
(6.38374e-06 -0.000253159 0.124265)
(3.2555e-06 5.78655e-05 0.111598)
(1.24117e-05 0.000243705 0.119013)
(-1.18473e-05 -4.34945e-05 0.103381)
(-5.57925e-06 -0.00023217 0.119029)
(-2.23096e-08 0.000251821 0.124041)
(-3.00914e-06 -5.54829e-05 0.111745)
(-0.000255632 -3.70928e-06 0.126361)
(6.20578e-05 -1.18314e-06 0.116577)
(0.000248366 -5.57802e-07 0.128124)
(-5.99576e-05 3.80224e-07 0.118229)
(0.000257586 -6.71966e-07 0.126754)
(-6.06016e-05 -4.13269e-07 0.11598)
(-0.000250728 -2.15694e-08 0.127691)
(-0.00026165 -5.58973e-06 0.123661)
(5.75429e-05 1.28735e-06 0.11154)
(0.000247847 1.19985e-05 0.118916)
(-4.4823e-05 -1.58727e-05 0.102718)
(-0.000237904 -1.58756e-05 0.118474)
(0.000260709 1.21496e-07 0.124023)
(-5.79785e-05 -4.2545e-06 0.111017)
(-0.000256883 4.39528e-06 0.126351)
(0.000248657 1.93148e-06 0.12812)
(6.14863e-05 2.02594e-06 0.116579)
(-5.98545e-05 4.1327e-07 0.118229)
(0.000254744 1.51451e-06 0.126751)
(-0.000248954 1.21513e-06 0.127686)
(-6.13325e-05 1.4013e-06 0.115979)
(-0.00025744 6.39919e-06 0.123647)
(5.85066e-05 -3.21963e-07 0.11154)
(0.000247819 -1.24295e-05 0.118915)
(-4.39978e-05 1.63151e-05 0.102716)
(0.000261133 1.39023e-07 0.124017)
(-5.79096e-05 5.49322e-06 0.111015)
(-0.000234921 1.70018e-05 0.118473)
(-5.25847e-05 5.70725e-05 0.113704)
(-0.000210315 0.000217168 0.129062)
(5.33806e-05 -0.000222016 0.122702)
(-5.05576e-05 0.000215706 0.122359)
(-0.000207754 5.2683e-05 0.122465)
(5.55159e-06 4.31693e-06 0.0461554)
(3.4326e-06 1.2502e-06 0.0315741)
(2.02351e-06 4.4309e-08 0.0198138)
(1.04985e-06 -2.39927e-07 0.0105025)
(3.30119e-07 -1.2754e-07 0.00320678)
(1.94901e-06 1.67738e-06 0.0461458)
(1.0049e-06 9.60546e-07 0.0315617)
(4.23373e-07 5.938e-07 0.019805)
(8.70198e-08 3.23384e-07 0.0104979)
(-5.92769e-09 1.08506e-07 0.00320548)
(3.91797e-06 7.04086e-06 0.0447543)
(3.13154e-06 2.58312e-06 0.0305122)
(2.20602e-06 5.5179e-07 0.0191001)
(1.29978e-06 -1.01494e-07 0.0101052)
(4.49442e-07 -1.19343e-07 0.00307984)
(4.85037e-06 -4.44328e-07 0.04474)
(2.58083e-06 -5.39558e-07 0.030497)
(1.28786e-06 -4.75291e-07 0.0190904)
(4.99736e-07 -3.26793e-07 0.0101007)
(1.12398e-07 -1.20597e-07 0.00307864)
(5.09299e-06 7.33857e-07 0.0447409)
(2.75191e-06 7.63513e-07 0.0304982)
(1.40538e-06 6.49004e-07 0.0190914)
(5.67377e-07 4.39851e-07 0.010101)
(1.34372e-07 1.62327e-07 0.00307865)
(2.0319e-06 -1.56315e-06 0.0461442)
(1.03216e-06 -8.99128e-07 0.0315612)
(4.42076e-07 -5.35597e-07 0.0198052)
(9.99694e-08 -2.75723e-07 0.0104985)
(-1.58655e-09 -9.01281e-08 0.00320575)
(-2.19486e-06 -2.28509e-06 0.0460843)
(-7.38554e-07 -1.25779e-06 0.0315316)
(-2.37886e-07 -6.67008e-07 0.0197891)
(-3.45119e-08 -2.98557e-07 0.01049)
(3.49726e-09 -8.78143e-08 0.00320312)
(-1.71054e-06 2.42706e-06 0.0453698)
(-7.98481e-07 2.10643e-06 0.0309799)
(-4.53857e-07 1.6233e-06 0.0194138)
(-2.27886e-07 1.01437e-06 0.0102796)
(-7.92807e-08 3.52372e-07 0.00313548)
(2.06059e-06 -4.11292e-07 0.0457699)
(1.25487e-06 -2.43734e-07 0.031257)
(6.38685e-07 -1.42104e-07 0.0195932)
(2.2662e-07 -7.71383e-08 0.0103779)
(4.07003e-08 -2.92449e-08 0.0031667)
(2.53628e-06 -1.67163e-06 0.0454643)
(1.46177e-06 -1.00832e-06 0.03103)
(7.34552e-07 -5.53248e-07 0.0194415)
(2.67959e-07 -2.68302e-07 0.0102935)
(5.36245e-08 -8.05004e-08 0.00313963)
(-1.00518e-06 7.9592e-07 0.0456698)
(-3.45592e-07 6.85433e-07 0.0312037)
(-1.66302e-07 5.12243e-07 0.0195637)
(-7.06793e-08 3.09961e-07 0.0103631)
(-2.97652e-08 1.01712e-07 0.00316227)
(-4.18267e-06 -1.09775e-06 0.0446827)
(-1.67622e-06 -6.6276e-07 0.030471)
(-6.7632e-07 -3.72978e-07 0.0190771)
(-2.04648e-07 -1.66818e-07 0.0100942)
(-3.43251e-08 -5.28634e-08 0.00307669)
(-1.71289e-06 -1.90535e-06 0.0453708)
(-7.67566e-07 -1.66939e-06 0.0309803)
(-4.21602e-07 -1.29333e-06 0.0194141)
(-2.04758e-07 -8.13676e-07 0.0102799)
(-7.17424e-08 -2.88996e-07 0.00313556)
(2.05726e-06 6.85519e-07 0.0457698)
(1.25525e-06 4.71209e-07 0.0312569)
(6.40708e-07 3.18205e-07 0.0195931)
(2.28463e-07 1.87822e-07 0.0103778)
(4.121e-08 6.20197e-08 0.00316667)
(2.52221e-06 2.0978e-06 0.0454653)
(1.48632e-06 1.34208e-06 0.0310304)
(7.64653e-07 7.97757e-07 0.0194418)
(2.88932e-07 4.15953e-07 0.0102938)
(6.05599e-08 1.27162e-07 0.00313972)
(-9.6355e-07 -4.03948e-07 0.0456698)
(-3.11099e-07 -3.33619e-07 0.0312036)
(-1.42666e-07 -2.33456e-07 0.0195635)
(-5.96155e-08 -1.3367e-07 0.010363)
(-2.68536e-08 -4.527e-08 0.00316224)
(-3.8648e-06 1.5614e-06 0.0446832)
(-1.46611e-06 1.06777e-06 0.0304719)
(-5.35967e-07 6.89974e-07 0.0190779)
(-1.23395e-07 3.61109e-07 0.0100943)
(-9.88229e-09 1.14233e-07 0.00307664)
(-1.86078e-06 2.52385e-06 0.0460827)
(-4.8892e-07 1.51017e-06 0.0315312)
(-5.10201e-08 9.08085e-07 0.0197893)
(7.59115e-08 4.75484e-07 0.0104906)
(4.20441e-08 1.56531e-07 0.0032034)
(-1.70499e-06 2.59012e-06 0.0449186)
(-6.99875e-07 1.03023e-06 0.0306288)
(-2.80331e-07 4.19045e-07 0.0191751)
(-8.55569e-08 1.36328e-07 0.0101459)
(-1.84257e-08 3.13624e-08 0.00309259)
(-2.26001e-06 1.88284e-06 0.0461219)
(-1.297e-06 5.55757e-07 0.0315546)
(-7.72335e-07 1.12022e-07 0.0198029)
(-4.03469e-07 -3.87519e-08 0.0104975)
(-1.29854e-07 -2.33912e-08 0.00320556)
(3.52029e-06 1.94705e-06 0.0460692)
(1.85198e-06 7.10583e-07 0.0314951)
(8.63172e-07 1.78663e-07 0.0197566)
(3.28885e-07 1.04199e-09 0.0104698)
(7.89415e-08 -1.67868e-08 0.00319616)
(3.35729e-06 2.73628e-06 0.0449753)
(1.76273e-06 9.36697e-07 0.0306582)
(9.02053e-07 2.0474e-07 0.0191905)
(4.09844e-07 -2.98287e-08 0.0101534)
(1.2143e-07 -3.57824e-08 0.00309455)
(-1.79185e-07 -2.29543e-06 0.044924)
(-7.57087e-08 -1.33228e-06 0.0306345)
(-1.47234e-08 -7.20324e-07 0.0191787)
(3.89709e-08 -2.96575e-07 0.0101479)
(2.85475e-08 -7.7562e-08 0.00309298)
(2.32893e-06 9.29925e-07 0.0460676)
(1.0991e-06 5.95924e-07 0.0314923)
(4.08978e-07 3.95488e-07 0.0197547)
(6.91207e-08 2.17446e-07 0.0104685)
(-1.32186e-08 7.59605e-08 0.00319556)
(2.66694e-06 3.79377e-07 0.0449526)
(1.48006e-06 1.33841e-07 0.0306411)
(7.29259e-07 4.90394e-08 0.0191803)
(2.64959e-07 2.65473e-09 0.0101476)
(5.48197e-08 -2.54889e-09 0.00309274)
(-2.23274e-06 -1.99372e-06 0.0448836)
(-8.54697e-07 -8.74711e-07 0.0306068)
(-3.8184e-07 -3.33739e-07 0.019162)
(-1.50459e-07 -7.78397e-08 0.0101386)
(-4.20619e-08 -6.08447e-09 0.00309007)
(-1.29517e-06 -1.30707e-06 0.0460128)
(-1.09084e-06 -2.13807e-07 0.031467)
(-8.57355e-07 2.04577e-07 0.0197418)
(-5.30143e-07 2.7131e-07 0.0104626)
(-1.89915e-07 1.18811e-07 0.00319406)
(-1.93726e-06 -1.77166e-06 0.0460037)
(-9.64692e-07 -6.77534e-07 0.0314608)
(-5.11324e-07 -1.77606e-07 0.019738)
(-2.28712e-07 9.80337e-09 0.0104603)
(-6.27855e-08 1.67368e-08 0.00319316)
(-4.10248e-06 2.27741e-06 0.0457597)
(-2.05803e-06 1.78864e-06 0.0313302)
(-1.02576e-06 1.34407e-06 0.0196721)
(-4.41954e-07 8.46076e-07 0.0104321)
(-1.23528e-07 2.96098e-07 0.00318666)
(3.39212e-06 -2.35305e-06 0.0458289)
(1.96565e-06 -2.00283e-06 0.0313641)
(1.07878e-06 -1.45952e-06 0.0196902)
(4.77749e-07 -8.79469e-07 0.010441)
(1.31779e-07 -3.05349e-07 0.00318935)
(-3.81915e-06 -1.53942e-06 0.0457614)
(-1.84061e-06 -1.17932e-06 0.0313314)
(-8.76643e-07 -8.86253e-07 0.0196731)
(-3.60023e-07 -5.64515e-07 0.0104325)
(-9.74801e-08 -1.99641e-07 0.00318661)
(3.56653e-06 2.94564e-06 0.0458307)
(2.0965e-06 2.44453e-06 0.0313654)
(1.16913e-06 1.77293e-06 0.0196911)
(5.30346e-07 1.0639e-06 0.0104415)
(1.47868e-07 3.63481e-07 0.00318929)
(-2.03651e-06 1.92443e-06 0.0448825)
(-6.94891e-07 9.86714e-07 0.0306066)
(-2.29517e-07 5.12843e-07 0.0191621)
(-4.46918e-08 2.2487e-07 0.010139)
(-6.56038e-09 6.22301e-08 0.00309032)
(-1.97316e-06 1.84372e-06 0.046004)
(-8.54912e-07 8.03293e-07 0.0314609)
(-3.70672e-07 3.10111e-07 0.0197378)
(-1.35257e-07 7.99326e-08 0.0104602)
(-3.80802e-08 6.24052e-09 0.00319334)
(-1.98638e-06 2.33073e-06 0.0460162)
(-8.71846e-07 1.02238e-06 0.0314683)
(-3.63408e-07 4.22906e-07 0.0197421)
(-1.18509e-07 1.34416e-07 0.0104627)
(-2.77889e-08 2.70986e-08 0.00319413)
(4.99053e-06 -1.8241e-05 0.132892)
(-0.00021988 -0.000215672 0.129221)
(9.83328e-06 1.43381e-05 0.136742)
(-1.20713e-05 6.58399e-06 0.132549)
(9.28595e-06 -2.59323e-05 0.132747)
(-0.000213722 -0.000214407 0.129229)
(1.9233e-06 3.84088e-06 0.136771)
(-2.52144e-06 1.94222e-06 0.132533)
(4.62229e-06 -7.09858e-06 0.132735)
(-0.000208694 -0.000208231 0.129205)
(-6.92435e-07 7.41472e-07 0.136775)
(6.63013e-07 -1.45441e-07 0.132522)
(2.42797e-06 -1.73677e-06 0.132728)
(-0.00020747 -0.000206371 0.129194)
(-1.06941e-06 5.35699e-08 0.136775)
(3.1858e-07 4.28714e-08 0.132517)
(2.47555e-06 -7.48426e-07 0.132727)
(-0.000207791 -0.000206439 0.12919)
(-1.49637e-06 1.28336e-07 0.136775)
(5.70064e-07 2.29129e-07 0.132515)
(2.10765e-06 -9.32173e-07 0.132727)
(-0.000207585 -0.00020666 0.129188)
(-1.51859e-06 -7.68664e-09 0.136775)
(9.05424e-07 1.43079e-07 0.132514)
(2.20276e-06 -5.70651e-07 0.132727)
(-0.000207308 -0.000206593 0.129188)
(-9.77658e-07 -2.27141e-07 0.136773)
(1.30198e-06 -3.54689e-07 0.132513)
(2.35009e-06 2.59713e-07 0.132726)
(-0.000206924 -0.000206181 0.129187)
(-5.53618e-07 -2.25495e-08 0.136771)
(1.06961e-06 -4.08516e-07 0.132512)
(2.79589e-06 1.18543e-07 0.132725)
(-0.000207064 -0.00020623 0.129187)
(-7.68849e-08 3.47753e-07 0.136771)
(5.84582e-07 1.19319e-07 0.132511)
(3.58422e-06 -3.57766e-07 0.132724)
(-0.000207559 -0.000206584 0.129186)
(-3.21641e-07 4.77034e-07 0.136772)
(7.36384e-07 6.26844e-07 0.132511)
(3.61706e-06 -1.09215e-06 0.132725)
(-0.00020754 -0.000207263 0.129186)
(-1.05354e-06 5.47812e-07 0.136772)
(1.2821e-06 6.93663e-07 0.132512)
(2.78271e-06 -1.6554e-06 0.132725)
(-0.000207186 -0.000207584 0.129187)
(-1.46202e-06 3.39922e-07 0.136772)
(1.67025e-06 3.36999e-07 0.132512)
(2.16736e-06 -1.38618e-06 0.132724)
(-0.000207074 -0.000207288 0.129188)
(-1.59893e-06 3.36509e-07 0.136772)
(1.84177e-06 2.72232e-07 0.132512)
(2.18118e-06 -1.01028e-06 0.132723)
(-0.000207245 -0.000207087 0.129188)
(-1.19409e-06 4.17324e-07 0.136772)
(2.36989e-06 4.88949e-08 0.13251)
(2.2303e-06 -3.46754e-07 0.132722)
(-0.000207236 -0.00020689 0.129185)
(-1.08002e-06 1.30202e-06 0.136773)
(3.64514e-06 1.78036e-07 0.132507)
(1.05766e-06 1.35941e-06 0.132718)
(-0.00020694 -0.000206714 0.129177)
(-3.06098e-06 2.81761e-06 0.136776)
(1.88248e-06 2.46146e-06 0.132725)
(-2.70994e-06 8.67426e-07 0.132887)
(-0.000204739 -0.000207118 0.129379)
(0.000214622 -0.000213748 0.129233)
(-0.000204099 0.00020288 0.129117)
(-8.4759e-06 -2.16585e-05 0.132742)
(1.03329e-05 -2.80213e-05 0.132749)
(-1.03913e-05 -2.25766e-05 0.132755)
(0.000208611 0.000211283 0.129097)
(0.000217302 0.000221416 0.129249)
(-0.000214086 -0.000216048 0.129082)
(1.1242e-05 2.72624e-05 0.132754)
(-1.11198e-05 2.22785e-05 0.132762)
(5.98813e-06 1.08426e-05 0.132741)
(-6.30847e-06 1.14637e-05 0.132751)
(-0.000212853 0.000215652 0.129233)
(0.000211817 -0.000215954 0.129079)
(2.02629e-05 1.11158e-05 0.132554)
(2.10919e-05 -1.15476e-05 0.13256)
(5.37594e-06 4.16133e-06 0.13254)
(6.96795e-06 -4.38156e-06 0.132545)
(-1.41137e-05 -7.19215e-06 0.132555)
(-4.74959e-06 3.22612e-06 0.132537)
(-6.5991e-06 -3.98124e-06 0.13254)
(0.000217431 -0.000220644 0.129247)
(-0.00021421 0.00021637 0.129079)
(-8.86344e-06 -2.09395e-05 0.132755)
(5.64114e-06 -1.03886e-05 0.132737)
(-6.10622e-06 -1.00135e-05 0.132746)
(0.000212371 0.000217167 0.129073)
(0.000206994 0.000209384 0.129213)
(-0.000214999 -0.000217527 0.129066)
(4.81295e-06 7.86515e-06 0.132739)
(-6.01463e-06 8.9265e-06 0.132747)
(3.04833e-06 3.59951e-06 0.132732)
(-3.41953e-06 3.71444e-06 0.132739)
(-0.000206511 0.000209274 0.129209)
(0.000213494 -0.00021898 0.129065)
(3.09501e-06 3.17037e-06 0.132537)
(4.55217e-06 -3.28635e-06 0.132541)
(4.96283e-08 1.30503e-06 0.132528)
(1.01485e-06 -1.789e-06 0.132532)
(-4.42297e-06 -2.67274e-06 0.132536)
(4.94537e-07 -9.74264e-09 0.132524)
(-1.02428e-06 -8.96472e-07 0.132526)
(0.00020794 -0.000208576 0.12921)
(-0.000214945 0.000218045 0.129063)
(-5.14001e-06 -7.09486e-06 0.132743)
(2.58177e-06 -2.34766e-06 0.132729)
(-3.30316e-06 -1.8996e-06 0.132736)
(0.000213537 0.000219022 0.129061)
(0.000205951 0.000207717 0.129197)
(-0.000214444 -0.000217511 0.12906)
(2.91183e-06 2.95143e-06 0.132731)
(-3.79581e-06 3.18353e-06 0.132738)
(2.82016e-06 2.14551e-06 0.132729)
(-3.44709e-06 2.35975e-06 0.132736)
(-0.000206217 0.000207011 0.129198)
(0.000212532 -0.00021774 0.129061)
(-2.15515e-07 1.04701e-06 0.132526)
(7.18444e-07 -1.59394e-06 0.132529)
(-2.86293e-07 7.448e-07 0.132522)
(6.66277e-07 -1.26685e-06 0.132525)
(-8.50275e-07 -8.00112e-07 0.132524)
(2.2051e-07 2.77877e-08 0.132518)
(-8.97823e-07 -5.63688e-07 0.13252)
(0.000207053 -0.000206863 0.129195)
(-0.00021422 0.000218011 0.129057)
(-3.16252e-06 -1.37203e-06 0.132735)
(2.50881e-06 -8.02988e-07 0.132727)
(-3.07039e-06 -5.57604e-07 0.132733)
(0.000213086 0.000218922 0.129056)
(0.000206407 0.000207777 0.129193)
(-0.000214656 -0.000217148 0.129058)
(2.78371e-06 2.16459e-06 0.132729)
(-4.30832e-06 2.6532e-06 0.132735)
(2.5036e-06 2.50629e-06 0.132728)
(-3.24478e-06 2.72104e-06 0.132733)
(-0.000205501 0.000207341 0.129192)
(0.000213006 -0.000218324 0.129057)
(-2.68309e-07 7.42246e-07 0.132522)
(6.70737e-07 -1.21424e-06 0.132525)
(-7.1629e-07 6.54289e-07 0.132521)
(2.04356e-07 -9.95988e-07 0.132523)
(-9.3287e-07 -5.16839e-07 0.132519)
(3.77405e-07 1.80125e-07 0.132515)
(-7.5799e-07 -4.91077e-07 0.132517)
(0.000207639 -0.000206874 0.129191)
(-0.000214371 0.000217806 0.129055)
(-3.07767e-06 -6.03693e-07 0.132733)
(2.19112e-06 -8.67674e-07 0.132727)
(-2.95959e-06 -5.4986e-07 0.132733)
(0.000213166 0.000218645 0.129054)
(0.000206003 0.000207958 0.129191)
(-0.000214617 -0.000217309 0.129058)
(2.44077e-06 2.57025e-06 0.132728)
(-3.63765e-06 2.87758e-06 0.132733)
(2.46684e-06 2.4995e-06 0.132728)
(-3.04701e-06 2.62934e-06 0.132732)
(-0.000206394 0.000207545 0.12919)
(0.000212902 -0.00021733 0.129057)
(-8.66727e-07 6.41639e-07 0.132521)
(4.33933e-08 -9.67946e-07 0.132523)
(-9.73497e-07 5.82178e-07 0.132521)
(-6.59819e-08 -8.96476e-07 0.132523)
(-6.40254e-07 -5.35668e-07 0.132516)
(5.87044e-07 2.94457e-07 0.132514)
(-3.64683e-07 -5.61005e-07 0.132516)
(0.000207265 -0.000206883 0.129189)
(-0.000214316 0.00021794 0.129055)
(-2.89972e-06 -7.28659e-07 0.132733)
(2.17e-06 -8.09115e-07 0.132727)
(-2.745e-06 -5.3856e-07 0.132733)
(0.000213446 0.000218598 0.129054)
(0.000206121 0.0002077 0.129191)
(-0.000214358 -0.000218057 0.129057)
(2.53977e-06 2.29711e-06 0.132728)
(-3.81136e-06 2.74277e-06 0.132732)
(2.70626e-06 1.53246e-06 0.132727)
(-2.43722e-06 1.87202e-06 0.132731)
(-0.000205037 0.000207558 0.129189)
(0.00021359 -0.000218848 0.129056)
(-9.29918e-07 4.38973e-07 0.132521)
(-2.78382e-09 -7.13827e-07 0.132523)
(-7.71704e-07 -1.47382e-07 0.13252)
(2.35118e-07 -1.80701e-07 0.132522)
(-2.62753e-07 -3.91367e-07 0.132516)
(1.18067e-06 -2.98816e-07 0.132514)
(1.35852e-08 -5.88009e-08 0.132515)
(0.000207364 -0.000206623 0.129189)
(-0.000214171 0.000218641 0.129054)
(-2.63792e-06 -3.84409e-07 0.132733)
(2.31174e-06 1.66292e-07 0.132726)
(-2.247e-06 2.00195e-07 0.132732)
(0.000213821 0.00021904 0.129053)
(0.000206323 0.000206939 0.12919)
(-0.000213936 -0.000218209 0.129056)
(2.81081e-06 1.3412e-06 0.132726)
(-2.86742e-06 1.76909e-06 0.132731)
(3.12085e-06 1.28053e-06 0.132726)
(-2.4661e-06 1.42875e-06 0.132731)
(-0.000205897 0.000206926 0.129189)
(0.000213192 -0.000218082 0.129057)
(-6.68304e-07 -2.18539e-07 0.132519)
(3.19299e-07 -1.62169e-07 0.132521)
(-2.12237e-07 -2.52858e-07 0.132518)
(7.73801e-07 -2.04813e-07 0.13252)
(2.46533e-08 -1.03097e-07 0.132515)
(9.4151e-07 -4.39974e-07 0.132513)
(-1.17922e-07 -9.24517e-08 0.132514)
(0.000207445 -0.000205929 0.129188)
(-0.000213838 0.000218699 0.129054)
(-2.19179e-06 2.54231e-07 0.132732)
(2.64704e-06 1.89204e-07 0.132725)
(-2.1672e-06 2.59264e-07 0.132732)
(0.000213804 0.000219071 0.129053)
(0.000206876 0.000206975 0.129189)
(-0.000213414 -0.000217885 0.129055)
(3.28874e-06 1.33764e-06 0.132725)
(-3.4098e-06 1.80598e-06 0.13273)
(3.72337e-06 1.76488e-06 0.132726)
(-2.77747e-06 2.14113e-06 0.132731)
(-0.000204954 0.000207016 0.129188)
(0.000213253 -0.000218624 0.129056)
(-7.0856e-08 -2.04212e-07 0.132517)
(9.20157e-07 -2.23177e-07 0.132519)
(4.82873e-07 2.07869e-08 0.132516)
(1.55191e-06 -4.0143e-07 0.132518)
(-1.93376e-07 -1.14581e-07 0.132513)
(4.71765e-07 -2.25067e-08 0.132512)
(-6.4024e-07 -3.25233e-07 0.132513)
(0.000207913 -0.000205987 0.129187)
(-0.000213127 0.000218512 0.129053)
(-2.23432e-06 1.9099e-07 0.132731)
(3.4322e-06 -2.45905e-07 0.132725)
(-2.6239e-06 -1.91253e-07 0.132732)
(0.000213379 0.000218817 0.129052)
(0.000207403 0.000207352 0.129188)
(-0.000213392 -0.000217257 0.129055)
(3.92105e-06 1.93103e-06 0.132724)
(-3.44915e-06 2.42878e-06 0.13273)
(3.8617e-06 2.55988e-06 0.132727)
(-3.02887e-06 2.86443e-06 0.132732)
(-0.000206472 0.000207446 0.129188)
(0.000212817 -0.00021693 0.129057)
(5.68012e-07 1.62233e-07 0.132515)
(1.59235e-06 -4.9816e-07 0.132517)
(5.09572e-07 3.92004e-07 0.132516)
(1.59318e-06 -7.20655e-07 0.132518)
(-6.12953e-07 -3.97969e-07 0.132512)
(3.27313e-07 5.03343e-07 0.132512)
(-6.17903e-07 -7.08799e-07 0.132513)
(0.000208648 -0.000206249 0.129186)
(-0.000213055 0.000217968 0.129052)
(-2.74641e-06 -3.21352e-07 0.132731)
(3.74716e-06 -9.43496e-07 0.132726)
(-2.8877e-06 -9.36563e-07 0.132733)
(0.000213324 0.00021817 0.129053)
(0.000207289 0.000207995 0.129187)
(-0.000214044 -0.000216767 0.129055)
(3.86651e-06 2.69235e-06 0.132724)
(-3.99015e-06 3.28849e-06 0.13273)
(3.24069e-06 3.25396e-06 0.132728)
(-2.66426e-06 3.5195e-06 0.132734)
(-0.000205319 0.00020826 0.129188)
(0.000213563 -0.000217602 0.129058)
(2.42114e-07 5.92541e-07 0.132514)
(1.25477e-06 -8.33125e-07 0.132516)
(-2.359e-07 6.89682e-07 0.132517)
(7.22723e-07 -1.00954e-06 0.132519)
(-3.79701e-07 -8.22779e-07 0.132512)
(8.58134e-07 6.01927e-07 0.132514)
(-2.00195e-07 -1.0068e-06 0.132516)
(0.000208591 -0.000206828 0.129186)
(-0.000213792 0.000217454 0.129053)
(-2.87396e-06 -1.10426e-06 0.132732)
(3.01408e-06 -1.60807e-06 0.132727)
(-2.68382e-06 -1.6319e-06 0.132734)
(0.000213657 0.000217757 0.129054)
(0.000206572 0.000208342 0.129188)
(-0.000214553 -0.000216908 0.129057)
(3.19207e-06 3.19453e-06 0.132724)
(-3.25644e-06 3.50097e-06 0.13273)
(2.5424e-06 3.3611e-06 0.132729)
(-2.57927e-06 3.38675e-06 0.132735)
(-0.000206071 0.000208324 0.12919)
(0.000213243 -0.00021687 0.12906)
(-6.40308e-07 8.39966e-07 0.132515)
(2.06131e-07 -1.0363e-06 0.132517)
(-7.29833e-07 5.23555e-07 0.13252)
(2.22019e-07 -9.51561e-07 0.132522)
(1.71159e-07 -1.00681e-06 0.132513)
(8.48667e-07 4.28721e-07 0.132517)
(-1.37847e-07 -9.84939e-07 0.132518)
(0.000207807 -0.000207271 0.129186)
(-0.000214336 0.00021752 0.129054)
(-2.69407e-06 -1.67476e-06 0.132732)
(2.34969e-06 -1.83121e-06 0.132728)
(-2.61611e-06 -1.74082e-06 0.132734)
(0.000213767 0.000217925 0.129055)
(0.000206012 0.000208019 0.129188)
(-0.000214333 -0.000216838 0.12906)
(2.65801e-06 2.77875e-06 0.132722)
(-3.65036e-06 3.03694e-06 0.132729)
(2.56663e-06 3.34836e-06 0.132731)
(-2.65442e-06 3.36641e-06 0.132737)
(-0.000204805 0.000208023 0.12919)
(0.000213359 -0.000217934 0.129063)
(-1.39781e-06 5.34577e-07 0.132515)
(-6.25261e-07 -7.26162e-07 0.132517)
(-6.16821e-07 4.78481e-07 0.132522)
(4.11764e-07 -9.85634e-07 0.132525)
(6.2307e-07 -7.08002e-07 0.132513)
(6.57989e-07 2.23714e-07 0.13252)
(-5.12572e-07 -8.7484e-07 0.132521)
(0.00020729 -0.000207091 0.129187)
(-0.000214207 0.00021756 0.129056)
(-2.54286e-06 -1.28267e-06 0.132731)
(2.38466e-06 -1.81176e-06 0.132729)
(-2.82466e-06 -1.59127e-06 0.132735)
(0.000213524 0.000218087 0.129056)
(0.000206054 0.000207887 0.129186)
(-0.00021387 -0.000216749 0.129067)
(2.72338e-06 2.34313e-06 0.13272)
(-3.32018e-06 2.44422e-06 0.132726)
(3.11005e-06 3.69399e-06 0.132734)
(-3.07223e-06 3.70182e-06 0.13274)
(-0.000206003 0.000207629 0.129189)
(0.000212679 -0.000216769 0.129071)
(-1.69413e-06 5.91679e-07 0.132514)
(-1.07188e-06 -5.98104e-07 0.132516)
(1.18577e-07 5.05523e-07 0.132526)
(1.28828e-06 -1.21409e-06 0.132529)
(8.64867e-07 -5.01474e-07 0.132512)
(-6.89519e-08 3.4231e-07 0.132523)
(-1.31693e-06 -1.20021e-06 0.132524)
(0.000207375 -0.000207032 0.129188)
(-0.000213876 0.000217684 0.129058)
(-2.72134e-06 -8.50696e-07 0.13273)
(2.89736e-06 -2.10024e-06 0.13273)
(-3.13572e-06 -1.93754e-06 0.132736)
(0.000213328 0.000218104 0.129058)
(0.000206046 0.000207513 0.12918)
(-0.000214566 -0.000216232 0.129088)
(2.77558e-06 1.67412e-06 0.132718)
(-3.64214e-06 1.85243e-06 0.132724)
(3.14058e-06 4.85174e-06 0.132737)
(-2.90481e-06 5.06183e-06 0.132744)
(-0.000204763 0.000207449 0.129182)
(0.000213806 -0.000217071 0.129091)
(-2.08397e-06 3.53337e-07 0.132513)
(-1.58307e-06 -8.9722e-08 0.132515)
(1.04113e-06 1.08999e-06 0.132531)
(2.5615e-06 -1.79201e-06 0.132533)
(1.55839e-06 5.61194e-08 0.132509)
(-8.5024e-07 1.0626e-06 0.132528)
(-2.46173e-06 -1.73937e-06 0.132529)
(0.000207495 -0.0002068 0.129186)
(-0.00021405 0.000217981 0.129064)
(-2.55441e-06 -2.56648e-07 0.132728)
(3.35466e-06 -2.75445e-06 0.132733)
(-3.33348e-06 -2.51981e-06 0.132738)
(0.000213647 0.000218323 0.129066)
(0.000205771 0.00020791 0.129157)
(-0.000219569 -0.000214833 0.129093)
(5.80754e-07 1.02225e-06 0.132714)
(-1.04496e-06 1.09931e-06 0.13272)
(1.04592e-07 5.93692e-06 0.132509)
(-1.90997e-07 6.51244e-06 0.132513)
(-0.00020584 0.000207835 0.129159)
(0.000219035 -0.000214652 0.129095)
(-3.34858e-06 4.55665e-07 0.132509)
(-3.58357e-06 7.94678e-07 0.13251)
(2.72608e-06 3.55214e-06 0.132537)
(2.72084e-06 -3.85133e-06 0.13254)
(3.58378e-06 1.08487e-06 0.132504)
(-2.64543e-06 3.3592e-06 0.132535)
(-1.97689e-06 -3.18319e-06 0.132536)
(0.00020726 -0.000206848 0.12918)
(-0.000220406 0.000222146 0.129077)
(-1.36597e-06 1.48429e-06 0.132724)
(1.49947e-06 -2.13738e-06 0.132737)
(-1.28132e-06 -9.81313e-07 0.132742)
(0.000219366 0.000221886 0.129086)
(-2.65671e-06 6.28046e-06 0.132517)
(-0.000204183 0.000211589 0.129156)
(-2.20268e-06 2.49994e-06 0.132725)
(-2.64791e-06 -9.17711e-07 0.132758)
(3.28209e-06 4.00337e-07 0.132752)
(0.000205268 -0.000208454 0.12939)
(2.79517e-06 1.81946e-06 0.132893)
(8.9314e-06 -7.79278e-06 0.0647766)
(-7.34106e-06 4.77366e-06 0.0647878)
(-1.96385e-06 5.15628e-05 0.119441)
(1.07533e-06 -2.099e-05 0.135288)
(1.3486e-05 -4.87526e-05 0.10375)
(9.89887e-06 -2.28776e-05 0.132895)
(-2.09948e-05 3.7674e-05 0.103724)
(-5.65556e-06 -7.02985e-05 0.119589)
(1.10216e-06 -2.9829e-05 0.135262)
(-1.23209e-05 -1.46608e-05 0.0887615)
(-1.55308e-05 -1.38005e-05 0.0890094)
(0.000209214 0.000207291 0.129101)
(1.98428e-05 1.1132e-05 0.0887969)
(1.51967e-05 1.03143e-05 0.0884084)
(-6.70958e-07 -2.91642e-05 0.101744)
(2.00896e-06 2.17877e-05 0.0756452)
(-4.45743e-06 -1.69272e-05 0.0755712)
(8.01517e-08 3.53523e-05 0.101936)
(-5.89481e-06 7.96437e-06 0.0648893)
(4.28357e-06 -5.56513e-06 0.0648204)
(-2.81951e-05 1.34397e-07 0.10066)
(1.82158e-05 5.70963e-07 0.0753068)
(-1.86446e-05 -3.70593e-06 0.0750813)
(3.21453e-05 -3.99083e-07 0.101256)
(-1.01774e-05 1.16076e-05 0.136745)
(8.20796e-06 -1.42047e-05 0.136742)
(-9.24465e-06 -1.11317e-05 0.136746)
(3.59673e-06 5.5588e-06 0.136766)
(-4.30313e-06 6.92871e-06 0.136769)
(3.39088e-06 -5.39378e-06 0.136765)
(-4.4972e-06 -6.6991e-06 0.136768)