/*--------------------------------*- C++ -*----------------------------------*\
| =========                 |                                                 |
| \\      /  F ield         | OpenFOAM: The Open Source CFD Toolbox           |
|  \\    /   O peration     | Version:  2206                                  |
|   \\  /    A nd           | Website:  www.openfoam.com                      |
|    \\/     M anipulation  |                                                 |
\*---------------------------------------------------------------------------*/
FoamFile
{
    version     2.0;
    format      ascii;
    arch        "LSB;label=32;scalar=64";
    class       volScalarField;
    location    "50";
    object      k;
}
// * * * * * * * * * * * * * * * * * * * * * * * * * * * * * * * * * * * * * //

dimensions      [0 2 -2 0 0 0 0];

internalField   nonuniform List<scalar> 
67442
(
2.15343e-05
2.6854e-05
2.69768e-05
2.63016e-05
2.62233e-05
2.68594e-05
2.69954e-05
2.63441e-05
2.67643e-05
2.70689e-05
2.69812e-05
2.6439e-05
2.68231e-05
9.2281e-06
2.05831e-05
5.95997e-06
9.08566e-06
2.01975e-05
2.16807e-05
2.16739e-05
2.16579e-05
2.09133e-05
2.58344e-05
2.47724e-05
5.94387e-06
2.58171e-05
2.0868e-05
2.4592e-05
1.29065e-05
1.30404e-05
5.90737e-06
5.84713e-06
1.3237e-05
1.30633e-05
9.38709e-06
2.04207e-05
2.05299e-05
2.56987e-05
2.46337e-05
2.09736e-05
2.57744e-05
2.46131e-05
1.32454e-05
1.32301e-05
5.90291e-06
2.06154e-05
2.573e-05
2.43329e-05
9.38524e-06
2.04165e-05
2.58055e-05
2.09034e-05
2.45794e-05
9.2089e-06
2.06423e-05
2.57637e-05
2.02371e-05
2.46563e-05
9.12242e-06
2.03193e-05
1.3219e-05
1.34271e-05
5.9454e-06
2.58011e-05
2.05691e-05
2.44362e-05
9.30059e-06
2.05088e-05
9.23069e-06
2.04959e-05
5.79974e-06
5.84187e-06
5.39349e-06
9.28194e-06
1.29236e-05
1.2982e-05
5.37634e-06
6.85256e-06
2.06325e-05
7.45049e-06
1.9079e-05
7.44892e-06
1.92905e-05
6.82996e-06
5.96509e-06
6.77658e-06
2.01482e-05
1.899e-05
7.33623e-06
5.37445e-06
9.15185e-06
1.28688e-05
1.28187e-05
5.37663e-06
5.38308e-06
9.16127e-06
1.28524e-05
6.74005e-06
2.02357e-05
1.89999e-05
7.31053e-06
1.90107e-05
7.2788e-06
6.77045e-06
5.96073e-06
5.98764e-06
1.9228e-05
2.29506e-05
1.29472e-05
8.84373e-06
2.28379e-05
8.81303e-06
1.92444e-05
1.90207e-05
2.26632e-05
1.30924e-05
8.71802e-06
2.25798e-05
8.76307e-06
1.88437e-05
9.64538e-06
5.05603e-06
5.0253e-06
5.04377e-06
5.03025e-06
9.72463e-06
5.91412e-06
5.85061e-06
5.8701e-06
1.91812e-05
2.2783e-05
1.32725e-05
8.94375e-06
8.97557e-06
2.28827e-05
1.92167e-05
1.90083e-05
2.27954e-05
1.31119e-05
8.80151e-06
8.77505e-06
2.28475e-05
1.90061e-05
9.8513e-06
5.0878e-06
5.07979e-06
5.09615e-06
5.07814e-06
9.86346e-06
5.41915e-06
9.39209e-06
1.30446e-05
1.30281e-05
5.41187e-06
6.82505e-06
2.05696e-05
7.42124e-06
1.90875e-05
7.42438e-06
1.89978e-05
6.82133e-06
1.89576e-05
2.29045e-05
1.32471e-05
8.9193e-06
8.92027e-06
2.29229e-05
1.91034e-05
1.92975e-05
2.29257e-05
1.31468e-05
8.95449e-06
2.27313e-05
8.94566e-06
1.91191e-05
9.69046e-06
5.10022e-06
5.10742e-06
5.09761e-06
5.09993e-06
9.7451e-06
5.89759e-06
6.79271e-06
2.03544e-05
7.39197e-06
1.88964e-05
5.46179e-06
9.37185e-06
1.31334e-05
1.3155e-05
5.45695e-06
5.47487e-06
9.4029e-06
1.312e-05
6.80754e-06
2.04098e-05
7.37868e-06
1.90777e-05
7.33798e-06
1.89644e-05
6.81467e-06
5.42316e-06
9.19384e-06
1.29119e-05
1.29538e-05
5.42247e-06
6.84616e-06
2.0633e-05
1.91391e-05
7.44837e-06
1.91029e-05
7.44166e-06
6.84922e-06
5.35032e-06
9.11401e-06
1.28376e-05
1.28535e-05
5.35128e-06
6.73406e-06
2.01997e-05
7.38854e-06
1.87121e-05
7.36453e-06
1.87995e-05
6.74392e-06
1.94066e-05
2.31572e-05
1.32551e-05
8.95379e-06
8.91565e-06
2.2922e-05
1.944e-05
1.95563e-05
2.31895e-05
1.33847e-05
9.13e-06
2.32322e-05
9.13545e-06
1.94743e-05
1.0073e-05
5.16674e-06
5.2034e-06
5.1691e-06
5.21709e-06
1.00808e-05
5.95603e-06
5.38103e-06
9.29946e-06
1.29869e-05
1.29234e-05
5.38266e-06
6.72545e-06
2.04161e-05
1.89426e-05
7.39315e-06
1.90716e-05
7.39219e-06
6.74987e-06
5.39627e-06
9.23743e-06
1.29439e-05
1.30579e-05
5.38873e-06
6.80685e-06
2.05323e-05
1.91377e-05
7.37025e-06
1.91614e-05
7.37238e-06
6.80024e-06
5.79606e-06
5.84025e-06
1.91681e-05
1.92524e-05
1.64212e-05
2.36523e-05
2.54188e-05
2.54083e-05
2.63096e-05
2.56043e-05
2.53141e-05
2.36491e-05
2.34158e-05
2.53607e-05
2.54415e-05
2.61528e-05
2.544e-05
2.54474e-05
2.31968e-05
2.34156e-05
2.55923e-05
2.54978e-05
2.63621e-05
2.55082e-05
2.55161e-05
2.32427e-05
2.39313e-05
2.59022e-05
2.57671e-05
2.65251e-05
2.57925e-05
2.58864e-05
2.37346e-05
1.91839e-05
1.94115e-05
1.64296e-05
1.92736e-05
1.92983e-05
1.63702e-05
1.93632e-05
1.93049e-05
1.6416e-05
2.55731e-05
2.48226e-05
2.09165e-05
2.32304e-05
2.48929e-05
2.32897e-05
2.57059e-05
2.60588e-05
2.47875e-05
2.44922e-05
2.61143e-05
2.44031e-05
2.61397e-05
2.59867e-05
2.55816e-05
2.50685e-05
2.06649e-05
2.29229e-05
2.50867e-05
2.31552e-05
2.54451e-05
2.5983e-05
2.45833e-05
2.61338e-05
2.40419e-05
2.61413e-05
2.42404e-05
2.5883e-05
2.55627e-05
2.47489e-05
2.07655e-05
2.31007e-05
2.30878e-05
2.48312e-05
2.55439e-05
2.59327e-05
2.46397e-05
2.43224e-05
2.60929e-05
2.43503e-05
2.61033e-05
2.58091e-05
2.58212e-05
2.50797e-05
2.09586e-05
2.32941e-05
2.33653e-05
2.50923e-05
2.56908e-05
2.60709e-05
2.4668e-05
2.4425e-05
2.60694e-05
2.43986e-05
2.61305e-05
2.59624e-05
2.55422e-05
2.48036e-05
2.06667e-05
2.29836e-05
2.30214e-05
2.48223e-05
2.55449e-05
2.5968e-05
2.44847e-05
2.40432e-05
2.60772e-05
2.42063e-05
2.60795e-05
2.59537e-05
2.56305e-05
2.49126e-05
2.09586e-05
2.3358e-05
2.33341e-05
2.50351e-05
2.57373e-05
2.60378e-05
2.44941e-05
2.60858e-05
2.42166e-05
2.61015e-05
2.44438e-05
2.60217e-05
2.55498e-05
2.47535e-05
2.02767e-05
2.26765e-05
2.46247e-05
2.28516e-05
2.55531e-05
2.59227e-05
2.45269e-05
2.61087e-05
2.41453e-05
2.60291e-05
2.42046e-05
2.59156e-05
2.55668e-05
2.47967e-05
2.07285e-05
2.31017e-05
2.48407e-05
2.31419e-05
2.54571e-05
2.59538e-05
2.46432e-05
2.61e-05
2.41782e-05
2.61861e-05
2.42572e-05
2.59539e-05
1.71659e-06
4.04532e-07
7.99112e-08
5.4241e-08
3.58984e-07
1.72726e-06
4.17558e-07
8.46392e-08
6.06261e-08
4.06122e-07
1.71176e-06
4.03677e-07
7.97974e-08
5.43435e-08
3.59886e-07
1.73974e-06
4.20835e-07
8.52441e-08
6.08087e-08
4.07069e-07
1.71364e-06
4.14516e-07
8.41399e-08
6.06078e-08
4.06253e-07
1.71043e-06
4.13582e-07
8.39488e-08
6.06603e-08
4.06932e-07
1.74435e-06
4.11038e-07
8.09819e-08
5.43315e-08
3.58946e-07
1.72511e-06
4.17274e-07
8.46285e-08
6.07677e-08
4.0719e-07
1.7641e-06
4.1517e-07
8.16815e-08
5.4526e-08
3.59987e-07
1.73259e-06
4.08496e-07
8.06154e-08
5.44445e-08
3.60075e-07
1.7162e-06
4.04627e-07
7.99491e-08
5.43706e-08
3.59975e-07
1.72828e-06
4.17759e-07
8.46776e-08
6.06569e-08
4.06298e-07
1.72726e-06
4.0663e-07
8.02051e-08
5.4255e-08
3.58953e-07
1.71486e-06
4.03998e-07
7.97768e-08
5.42003e-08
3.58855e-07
1.69807e-06
4.10722e-07
8.34705e-08
6.06144e-08
4.06914e-07
1.69434e-06
4.09658e-07
8.32523e-08
6.04723e-08
4.06005e-07
1.69775e-06
4.10601e-07
8.34908e-08
6.07784e-08
4.08092e-07
1.72596e-06
4.06855e-07
8.03464e-08
5.44475e-08
3.60294e-07
1.73029e-06
4.1839e-07
8.48065e-08
6.07749e-08
4.07188e-07
1.55427e-06
3.70065e-07
7.48058e-08
5.57052e-08
3.74542e-07
1.58711e-06
3.80131e-07
7.71427e-08
5.74288e-08
3.86483e-07
1.70725e-06
4.12619e-07
8.37851e-08
6.08348e-08
4.08328e-07
1.72395e-06
4.06474e-07
8.02735e-08
5.44806e-08
3.60627e-07
1.7237e-06
4.06208e-07
8.01962e-08
5.43684e-08
3.59813e-07
1.74356e-06
4.21825e-07
8.54369e-08
6.09066e-08
4.07695e-07
1.74802e-06
4.22807e-07
8.55801e-08
6.0829e-08
4.06984e-07
1.7085e-06
4.02434e-07
7.96159e-08
5.47831e-08
3.63556e-07
1.70727e-06
4.02654e-07
7.96992e-08
5.48787e-08
3.64231e-07
1.68537e-06
3.97244e-07
7.87541e-08
5.4633e-08
3.63008e-07
1.68964e-06
3.98132e-07
7.89228e-08
5.47732e-08
3.64e-07
1.54002e-06
3.71422e-07
7.63859e-08
5.9537e-08
4.03556e-07
1.52985e-06
3.6913e-07
7.59919e-08
5.9476e-08
4.03389e-07
1.53944e-06
3.71702e-07
7.64685e-08
5.96307e-08
4.04232e-07
1.53196e-06
3.69733e-07
7.61117e-08
5.95857e-08
4.04162e-07
1.71861e-06
4.15854e-07
8.44024e-08
6.07723e-08
4.07361e-07
1.71062e-06
4.13972e-07
8.40591e-08
6.07474e-08
4.0752e-07
1.71381e-06
4.14562e-07
8.41398e-08
6.06683e-08
4.06843e-07
1.74891e-06
4.12056e-07
8.11781e-08
5.4509e-08
3.60213e-07
1.72913e-06
4.07469e-07
8.05204e-08
5.48908e-08
3.63691e-07
1.73261e-06
4.08303e-07
8.06824e-08
5.49946e-08
3.6439e-07
1.55799e-06
3.75703e-07
7.71376e-08
5.96241e-08
4.03666e-07
1.55768e-06
3.76027e-07
7.72275e-08
5.97248e-08
4.04382e-07
1.72554e-06
4.17428e-07
8.46749e-08
6.08401e-08
4.07719e-07
1.56005e-06
3.71888e-07
7.51472e-08
5.57497e-08
3.74627e-07
1.59734e-06
3.82118e-07
7.74304e-08
5.74541e-08
3.86491e-07
1.73525e-06
4.19179e-07
8.49164e-08
6.09455e-08
4.08385e-07
1.76587e-06
4.16171e-07
8.19159e-08
5.46435e-08
3.60714e-07
1.77032e-06
4.16678e-07
8.19424e-08
5.45388e-08
3.59899e-07
1.7356e-06
4.09198e-07
8.07443e-08
5.45396e-08
3.60728e-07
1.70008e-06
4.10737e-07
8.34465e-08
6.07965e-08
4.08286e-07
1.71945e-06
4.05589e-07
8.01364e-08
5.44731e-08
3.60637e-07
1.75718e-06
4.13657e-07
8.15403e-08
5.49557e-08
3.63376e-07
1.75909e-06
4.14477e-07
8.17314e-08
5.51032e-08
3.64396e-07
1.58528e-06
3.82412e-07
7.82965e-08
5.97391e-08
4.0363e-07
1.73095e-06
4.18635e-07
8.48557e-08
6.08032e-08
4.07334e-07
1.69068e-06
4.08477e-07
8.30508e-08
6.07031e-08
4.07895e-07
1.72913e-06
4.07359e-07
8.03661e-08
5.44299e-08
3.60219e-07
1.69514e-06
4.09519e-07
8.32348e-08
6.07214e-08
4.07905e-07
1.71864e-06
4.04859e-07
7.99527e-08
5.4379e-08
3.60147e-07
1.69826e-06
4.11135e-07
8.35824e-08
6.06968e-08
4.07472e-07
1.69482e-06
4.10129e-07
8.33789e-08
6.06205e-08
4.07076e-07
1.70481e-06
4.12103e-07
8.37143e-08
6.07945e-08
4.08081e-07
1.72293e-06
4.16122e-07
8.44014e-08
6.09055e-08
4.08429e-07
1.55059e-06
3.69623e-07
7.47782e-08
5.57397e-08
3.74864e-07
1.5857e-06
3.79155e-07
7.69093e-08
5.72827e-08
3.85564e-07
1.58739e-06
3.80185e-07
7.71642e-08
5.74566e-08
3.86741e-07
1.54266e-06
3.67623e-07
7.43957e-08
5.55468e-08
3.73632e-07
1.69078e-06
4.08801e-07
8.31405e-08
6.05405e-08
4.06459e-07
1.72075e-06
4.05273e-07
8.01256e-08
5.47989e-08
3.63257e-07
1.72198e-06
4.05842e-07
8.02554e-08
5.49297e-08
3.64187e-07
1.55075e-06
3.74136e-07
7.68657e-08
5.95949e-08
4.0359e-07
1.55296e-06
3.74642e-07
7.69685e-08
5.96949e-08
4.04306e-07
1.70272e-06
4.11137e-07
8.35058e-08
6.07102e-08
4.07561e-07
1.54928e-06
3.69495e-07
7.47569e-08
5.57458e-08
3.74867e-07
1.58103e-06
3.78448e-07
7.68363e-08
5.74006e-08
3.86493e-07
1.58004e-06
3.78662e-07
7.69198e-08
5.74395e-08
3.86706e-07
1.54783e-06
3.68864e-07
7.46077e-08
5.56866e-08
3.74543e-07
1.7086e-06
4.12756e-07
8.37807e-08
6.07304e-08
4.07517e-07
1.73544e-06
4.08677e-07
8.07139e-08
5.49085e-08
3.63665e-07
1.73339e-06
4.08913e-07
8.08197e-08
5.50048e-08
3.64322e-07
1.57645e-06
3.80171e-07
7.78885e-08
5.96974e-08
4.03661e-07
1.57832e-06
3.81059e-07
7.80935e-08
5.97925e-08
4.04239e-07
1.72221e-06
4.05427e-07
8.01269e-08
5.47966e-08
3.63237e-07
1.72747e-06
4.06759e-07
8.03967e-08
5.4951e-08
3.64245e-07
1.54817e-06
3.73463e-07
7.67197e-08
5.95319e-08
4.03307e-07
1.55226e-06
3.7468e-07
7.69577e-08
5.96609e-08
4.04153e-07
1.7064e-06
4.01997e-07
7.95518e-08
5.4773e-08
3.63528e-07
1.70726e-06
4.02521e-07
7.96732e-08
5.48741e-08
3.64237e-07
1.54457e-06
3.7223e-07
7.64748e-08
5.95361e-08
4.03539e-07
1.54875e-06
3.73397e-07
7.66853e-08
5.964e-08
4.04208e-07
1.54606e-06
3.68829e-07
7.46472e-08
5.57416e-08
3.74942e-07
1.57953e-06
3.78186e-07
7.6798e-08
5.7295e-08
3.85681e-07
1.58496e-06
3.79799e-07
7.70936e-08
5.7463e-08
3.86808e-07
1.54009e-06
3.67417e-07
7.43888e-08
5.55651e-08
3.73725e-07
1.70274e-06
4.11392e-07
8.35495e-08
6.05813e-08
4.06504e-07
1.56395e-06
3.72793e-07
7.5303e-08
5.58061e-08
3.74942e-07
1.59436e-06
3.81224e-07
7.72813e-08
5.74427e-08
3.86501e-07
1.59079e-06
3.81009e-07
7.72887e-08
5.74732e-08
3.86716e-07
1.55915e-06
3.71545e-07
7.50914e-08
5.57453e-08
3.74627e-07
1.7295e-06
4.17607e-07
8.46277e-08
6.08207e-08
4.07612e-07
1.73892e-06
4.19831e-07
8.49897e-08
6.08481e-08
4.07575e-07
1.72057e-06
4.15509e-07
8.42842e-08
6.08001e-08
4.07685e-07
1.57194e-06
3.74758e-07
7.56485e-08
5.5835e-08
3.74951e-07
1.60812e-06
3.8452e-07
7.78677e-08
5.75014e-08
3.86585e-07
1.60836e-06
3.84721e-07
7.79159e-08
5.75293e-08
3.86755e-07
1.56752e-06
3.73755e-07
7.54961e-08
5.57789e-08
3.74623e-07
1.54619e-06
3.68385e-07
7.45298e-08
5.5714e-08
3.74836e-07
1.59215e-06
3.80657e-07
7.71805e-08
5.74247e-08
3.86493e-07
1.59411e-06
3.81533e-07
7.73547e-08
5.74661e-08
3.86669e-07
1.54214e-06
3.67551e-07
7.4388e-08
5.56598e-08
3.74524e-07
1.6955e-06
4.09618e-07
8.3253e-08
6.06852e-08
4.07549e-07
1.58846e-06
3.83411e-07
7.8504e-08
5.98726e-08
4.04528e-07
1.68999e-06
4.08009e-07
8.29237e-08
6.04903e-08
4.06298e-07
1.52347e-06
3.63629e-07
7.37722e-08
5.56303e-08
3.74744e-07
1.56916e-06
3.75321e-07
7.62435e-08
5.72182e-08
3.85524e-07
1.57353e-06
3.76492e-07
7.64738e-08
5.73741e-08
3.86626e-07
1.52346e-06
3.63147e-07
7.36299e-08
5.54671e-08
3.73548e-07
1.69197e-06
4.08556e-07
8.30299e-08
6.05018e-08
4.06317e-07
1.53778e-06
3.66538e-07
7.42195e-08
5.56805e-08
3.7481e-07
1.56931e-06
3.75754e-07
7.6349e-08
5.72336e-08
3.85559e-07
1.5721e-06
3.76435e-07
7.65e-08
5.73903e-08
3.86687e-07
1.53557e-06
3.6575e-07
7.40503e-08
5.55089e-08
3.73568e-07
2.70414e-05
2.65202e-05
2.69452e-05
2.1676e-05
2.0191e-05
2.57309e-05
2.45468e-05
9.38554e-06
2.04204e-05
2.58033e-05
2.09938e-05
2.46152e-05
5.95774e-06
1.33077e-05
6.75159e-06
1.99479e-05
1.88455e-05
7.31297e-06
1.88613e-05
7.25345e-06
6.7207e-06
5.43302e-06
9.32088e-06
1.3032e-05
1.30396e-05
5.43232e-06
6.79712e-06
2.01668e-05
7.38728e-06
1.91338e-05
7.31663e-06
1.9055e-05
6.79357e-06
5.94172e-06
1.93562e-05
2.32186e-05
1.32634e-05
8.96024e-06
2.29656e-05
8.9377e-06
1.93837e-05
1.93404e-05
2.31679e-05
2.29175e-05
1.92496e-05
1.00219e-05
5.16289e-06
5.15503e-06
1.00178e-05
2.38538e-05
2.65159e-05
2.57471e-05
2.56123e-05
2.58706e-05
2.56745e-05
2.38231e-05
1.9301e-05
1.63395e-05
1.92765e-05
1.93074e-05
1.63548e-05
2.58938e-05
2.4522e-05
2.42499e-05
2.60844e-05
2.42285e-05
2.607e-05
2.58469e-05
2.57402e-05
2.51275e-05
2.09099e-05
2.33861e-05
2.33706e-05
2.5097e-05
2.57645e-05
2.59671e-05
2.46032e-05
2.60757e-05
2.42891e-05
2.60389e-05
2.41052e-05
2.60064e-05
2.55559e-05
2.50657e-05
2.50432e-05
2.55998e-05
2.62218e-05
2.68576e-05
2.67999e-05
2.15329e-05
5.87159e-06
5.82971e-06
1.31445e-05
1.31074e-05
9.23885e-06
2.05753e-05
2.06516e-05
2.56786e-05
2.44208e-05
9.09113e-06
2.04104e-05
5.86755e-06
5.81987e-06
1.91136e-05
2.27869e-05
1.31401e-05
8.95533e-06
8.90233e-06
2.2577e-05
1.89955e-05
1.88117e-05
2.28123e-05
1.30106e-05
8.79724e-06
8.77075e-06
2.27963e-05
1.88571e-05
9.79571e-06
5.06797e-06
5.03515e-06
5.07579e-06
5.0442e-06
9.77907e-06
5.37846e-06
9.1845e-06
1.29802e-05
1.29859e-05
5.38397e-06
6.80979e-06
2.04094e-05
7.46626e-06
1.91545e-05
7.45343e-06
1.91462e-05
6.788e-06
5.3608e-06
9.09346e-06
1.28376e-05
1.28517e-05
5.35611e-06
2.32743e-05
2.61961e-05
2.5442e-05
2.54458e-05
2.52498e-05
2.54237e-05
2.32242e-05
1.9112e-05
2.54764e-05
2.46219e-05
2.06197e-05
2.30469e-05
2.48267e-05
2.29922e-05
2.54076e-05
2.58154e-05
2.44633e-05
2.43194e-05
2.60823e-05
2.43008e-05
2.60601e-05
2.58271e-05
2.54727e-05
2.48146e-05
2.04046e-05
2.30315e-05
2.46918e-05
2.30042e-05
2.55658e-05
1.76505e-06
4.15477e-07
8.17558e-08
5.46356e-08
3.60786e-07
1.73809e-06
4.20145e-07
8.51253e-08
6.0884e-08
4.07757e-07
1.72271e-06
4.16178e-07
8.43925e-08
6.0798e-08
4.07606e-07
1.75498e-06
4.13555e-07
8.14487e-08
5.4504e-08
3.59974e-07
1.73308e-06
4.18981e-07
8.49236e-08
6.0778e-08
4.07073e-07
1.54419e-06
3.68236e-07
7.45216e-08
5.56847e-08
3.7458e-07
1.58098e-06
3.78283e-07
7.68001e-08
5.74395e-08
3.86818e-07
1.57232e-06
3.76703e-07
7.65569e-08
5.7377e-08
3.86519e-07
1.54391e-06
3.68448e-07
7.45748e-08
5.57358e-08
3.74939e-07
1.55607e-06
3.70778e-07
7.4959e-08
5.5739e-08
3.74677e-07
1.59521e-06
3.81455e-07
7.73429e-08
5.7493e-08
3.86834e-07
1.58542e-06
3.79409e-07
7.70068e-08
5.74201e-08
3.86511e-07
1.55654e-06
3.70999e-07
7.50114e-08
5.5788e-08
3.75005e-07
1.72702e-06
4.16999e-07
8.45468e-08
6.09176e-08
4.08435e-07
1.73729e-06
4.0915e-07
8.08012e-08
5.50079e-08
3.64388e-07
1.7271e-06
4.0686e-07
8.04249e-08
5.48848e-08
3.63688e-07
1.57444e-06
3.79291e-07
7.7734e-08
5.97684e-08
4.04337e-07
1.56741e-06
3.77985e-07
7.75331e-08
5.96825e-08
4.03804e-07
1.70829e-06
4.13513e-07
8.40199e-08
6.07413e-08
4.07394e-07
1.70578e-06
4.12651e-07
8.38327e-08
6.07319e-08
4.07559e-07
1.7179e-06
4.04756e-07
7.99691e-08
5.44153e-08
3.6033e-07
1.71235e-06
4.03447e-07
7.97345e-08
5.44374e-08
3.60695e-07
1.70456e-06
4.12569e-07
8.38213e-08
6.05716e-08
4.06204e-07
1.70363e-06
4.12036e-07
8.37057e-08
6.06362e-08
4.06917e-07
1.68852e-06
4.07757e-07
8.29281e-08
6.05138e-08
4.06423e-07
1.7101e-06
4.03126e-07
7.96755e-08
5.42115e-08
3.58933e-07
1.70773e-06
4.02373e-07
7.95304e-08
5.43112e-08
3.59865e-07
1.54396e-06
3.72471e-07
7.65804e-08
5.96286e-08
4.04169e-07
1.53487e-06
3.70337e-07
7.62105e-08
5.96006e-08
4.04215e-07
1.69741e-06
4.09897e-07
8.32943e-08
6.06902e-08
4.07563e-07
1.70012e-06
4.10531e-07
8.3421e-08
6.08067e-08
4.08379e-07
1.72552e-06
4.06145e-07
8.02596e-08
5.49426e-08
3.64297e-07
1.7162e-06
4.0443e-07
7.99861e-08
5.47827e-08
3.63221e-07
1.70383e-06
4.013e-07
7.9459e-08
5.48625e-08
3.64295e-07
1.69954e-06
3.99975e-07
7.91964e-08
5.47375e-08
3.63517e-07
1.53557e-06
3.70046e-07
7.61232e-08
5.95097e-08
4.03582e-07
1.54237e-06
3.71919e-07
7.64629e-08
5.95119e-08
4.03337e-07
1.53495e-06
3.65828e-07
7.41026e-08
5.55213e-08
3.73645e-07
1.58903e-06
3.79766e-07
7.70087e-08
5.74417e-08
3.8678e-07
1.58209e-06
3.78379e-07
7.67594e-08
5.72611e-08
3.8552e-07
1.53598e-06
3.66567e-07
7.42843e-08
5.56941e-08
3.74865e-07
1.69084e-06
4.08763e-07
8.31619e-08
6.07471e-08
4.08099e-07
2.63178e-05
2.15762e-05
2.70117e-05
2.68567e-05
2.62469e-05
2.62842e-05
2.61373e-05
2.69261e-05
2.69887e-05
2.63266e-05
2.68555e-05
2.71155e-05
2.70114e-05
2.62902e-05
2.68702e-05
1.28677e-05
1.30169e-05
2.62467e-05
1.28513e-05
1.30294e-05
1.93915e-05
9.32416e-06
1.97981e-05
5.93562e-06
5.87087e-06
8.87292e-06
2.00372e-05
2.16368e-05
2.1635e-05
2.16576e-05
2.08556e-05
2.58386e-05
2.69544e-05
2.45298e-05
5.88367e-06
2.5765e-05
2.06043e-05
2.46838e-05
1.28891e-05
1.29843e-05
5.74091e-06
5.76887e-06
5.86107e-06
5.86462e-06
2.63433e-05
1.29128e-05
1.30531e-05
1.29075e-05
1.29546e-05
5.76954e-06
5.78538e-06
5.86232e-06
5.86032e-06
5.92218e-06
5.71294e-06
1.31764e-05
1.27878e-05
1.96046e-05
9.32009e-06
9.18059e-06
2.00308e-05
2.39146e-05
2.04015e-05
2.57344e-05
2.57698e-05
2.43961e-05
2.41174e-05
2.07288e-05
2.57418e-05
2.69716e-05
2.02984e-05
2.57861e-05
2.46067e-05
1.32601e-05
1.32318e-05
2.63613e-05
1.30279e-05
5.923e-06
2.02119e-05
2.57194e-05
2.43463e-05
9.25014e-06
2.0099e-05
2.57582e-05
2.06625e-05
2.45452e-05
9.20982e-06
2.03236e-05
2.57896e-05
2.02972e-05
2.45759e-05
8.99669e-06
2.01499e-05
1.31009e-05
1.30993e-05
5.84169e-06
2.57422e-05
2.06746e-05
2.47023e-05
9.10759e-06
2.05713e-05
9.21394e-06
2.04344e-05
5.77349e-06
5.84438e-06
9.81965e-06
5.05433e-06
5.0733e-06
5.07623e-06
5.07546e-06
9.81195e-06
1.92616e-05
2.28469e-05
8.78574e-06
1.29005e-05
8.81926e-06
1.92815e-05
2.28504e-05
1.88235e-05
2.28875e-05
8.72057e-06
1.31426e-05
8.74543e-06
1.89829e-05
2.29066e-05
9.81828e-06
5.08152e-06
5.06769e-06
5.05921e-06
5.05389e-06
9.85918e-06
1.92982e-05
8.76371e-06
1.28256e-05
2.28307e-05
8.81191e-06
1.91847e-05
2.2891e-05
1.90378e-05
8.77145e-06
1.30276e-05
2.27449e-05
8.77479e-06
1.90443e-05
2.27715e-05
6.6803e-06
7.19849e-06
1.83741e-05
1.95913e-05
7.25068e-06
1.83204e-05
6.64364e-06
5.44111e-06
9.26513e-06
1.31032e-05
1.29327e-05
5.47083e-06
5.38898e-06
9.18988e-06
1.27905e-05
6.79606e-06
1.96525e-05
7.3794e-06
1.87869e-05
7.3488e-06
1.84961e-05
6.83851e-06
5.93342e-06
5.90231e-06
5.27038e-06
8.89207e-06
1.25494e-05
1.26168e-05
5.25487e-06
6.61339e-06
1.98723e-05
1.85898e-05
7.19085e-06
1.8601e-05
7.18928e-06
6.63207e-06
5.88736e-06
1.91132e-05
2.27939e-05
8.72992e-06
1.29013e-05
1.91867e-05
2.26317e-05
8.75508e-06
1.88325e-05
2.27573e-05
8.74971e-06
1.30016e-05
1.91031e-05
2.27307e-05
8.75135e-06
9.79334e-06
5.06052e-06
5.05976e-06
9.78313e-06
5.04478e-06
5.06223e-06
5.75792e-06
5.77043e-06
5.89452e-06
5.86864e-06
9.84186e-06
5.08411e-06
5.08055e-06
9.86041e-06
5.07938e-06
5.06466e-06
1.91341e-05
2.28008e-05
8.77584e-06
1.29446e-05
1.9228e-05
8.83839e-06
2.26043e-05
1.89963e-05
2.27563e-05
8.81186e-06
1.30457e-05
1.88946e-05
8.81012e-06
2.25377e-05
9.89824e-06
5.08529e-06
5.09265e-06
9.88734e-06
5.08628e-06
5.08598e-06
1.91236e-05
8.78782e-06
2.26866e-05
1.28973e-05
1.91611e-05
8.78339e-06
2.26674e-05
1.90543e-05
8.77143e-06
2.25288e-05
1.30547e-05
1.90455e-05
8.81061e-06
2.26758e-05
5.79358e-06
5.78274e-06
5.85238e-06
5.84317e-06
5.90789e-06
5.88603e-06
5.70966e-06
1.89557e-05
2.2725e-05
1.31611e-05
8.83808e-06
8.80932e-06
2.28111e-05
1.88917e-05
1.86661e-05
2.25972e-05
1.27722e-05
8.51583e-06
8.53123e-06
2.24527e-05
1.87517e-05
1.31364e-05
2.26699e-05
9.69984e-06
5.04528e-06
4.96994e-06
5.02627e-06
4.95337e-06
9.71741e-06
6.72181e-06
7.19224e-06
1.84331e-05
1.98209e-05
7.26695e-06
1.85856e-05
6.66095e-06
5.45301e-06
9.26979e-06
1.31323e-05
1.29933e-05
5.47762e-06
5.38363e-06
1.26689e-05
9.2321e-06
1.27729e-05
5.33987e-06
6.82349e-06
1.98345e-05
7.37163e-06
1.9124e-05
7.33871e-06
1.89335e-05
6.86233e-06
9.73752e-06
5.07744e-06
5.0697e-06
5.0884e-06
1.90867e-05
2.30635e-05
1.32645e-05
8.83375e-06
8.81781e-06
2.30895e-05
1.90165e-05
1.93917e-05
2.30101e-05
1.32229e-05
8.959e-06
2.30847e-05
8.93169e-06
1.94387e-05
1.88499e-05
8.80701e-06
1.31459e-05
2.25425e-05
8.86743e-06
2.28138e-05
1.89211e-05
1.93597e-05
1.31502e-05
2.31236e-05
8.8764e-06
9.74232e-06
5.08179e-06
5.10971e-06
5.08868e-06
5.11294e-06
9.79341e-06
5.91817e-06
5.90964e-06
5.41727e-06
9.24901e-06
1.29075e-05
1.29314e-05
5.40457e-06
6.75166e-06
1.99347e-05
7.24622e-06
1.89201e-05
7.2135e-06
1.87835e-05
6.78111e-06
6.7973e-06
2.02883e-05
1.8925e-05
7.30077e-06
5.41322e-06
9.21837e-06
1.29341e-05
1.29341e-05
5.41196e-06
5.40639e-06
9.21322e-06
1.29083e-05
6.80395e-06
2.03435e-05
1.90142e-05
7.33345e-06
1.90115e-05
7.33567e-06
6.80484e-06
6.64e-06
2.01181e-05
7.22778e-06
1.86018e-05
5.30171e-06
8.98741e-06
1.26897e-05
1.26779e-05
5.29335e-06
5.28813e-06
8.96493e-06
1.26124e-05
6.64476e-06
2.01711e-05
7.22041e-06
1.84688e-05
7.24072e-06
1.85761e-05
6.64493e-06
1.9004e-05
2.29592e-05
1.30799e-05
8.78293e-06
8.7903e-06
2.27033e-05
1.90062e-05
1.9302e-05
2.28825e-05
1.31125e-05
8.88792e-06
2.29074e-05
8.92884e-06
1.92956e-05
9.86348e-06
5.07933e-06
5.10543e-06
5.09011e-06
5.09371e-06
9.86892e-06
5.84432e-06
5.37125e-06
9.12696e-06
1.28731e-05
1.2888e-05
5.36441e-06
6.7779e-06
2.05867e-05
1.9081e-05
7.35136e-06
1.91062e-05
7.37753e-06
6.76796e-06
5.38173e-06
9.18427e-06
1.29477e-05
1.29878e-05
5.38238e-06
6.74999e-06
2.04221e-05
1.90424e-05
7.35919e-06
1.90498e-05
7.33797e-06
6.78944e-06
5.77241e-06
5.7627e-06
5.84979e-06
2.35391e-05
2.55857e-05
2.55252e-05
2.62738e-05
2.35863e-05
2.56186e-05
2.53898e-05
1.91358e-05
1.9263e-05
1.62744e-05
2.32722e-05
2.54286e-05
2.55637e-05
2.63384e-05
2.35773e-05
2.54565e-05
2.54395e-05
2.35717e-05
2.63416e-05
2.53039e-05
2.55525e-05
2.36129e-05
2.55392e-05
2.53926e-05
2.32775e-05
2.54895e-05
2.51719e-05
2.62261e-05
2.54772e-05
2.52806e-05
2.33181e-05
2.36577e-05
2.57527e-05
2.55532e-05
2.64317e-05
2.5623e-05
2.57783e-05
2.36809e-05
2.3565e-05
2.55461e-05
2.55496e-05
2.63729e-05
2.53578e-05
2.56865e-05
2.34678e-05
2.3461e-05
2.62697e-05
2.56489e-05
2.54932e-05
2.36539e-05
2.56372e-05
2.55256e-05
1.92032e-05
1.93373e-05
1.63689e-05
1.92681e-05
1.92484e-05
1.63445e-05
1.93112e-05
1.92295e-05
1.63802e-05
2.57911e-05
2.51464e-05
2.08582e-05
2.3222e-05
2.51361e-05
2.32283e-05
2.56492e-05
2.56799e-05
2.08352e-05
2.50807e-05
2.319e-05
2.61092e-05
2.46267e-05
2.4267e-05
2.616e-05
2.43723e-05
2.61677e-05
2.60818e-05
2.56095e-05
2.48205e-05
2.04306e-05
2.3053e-05
2.4854e-05
2.30374e-05
2.5501e-05
2.59888e-05
2.47186e-05
2.61686e-05
2.43171e-05
2.61746e-05
2.43289e-05
2.5957e-05
2.36298e-05
2.63614e-05
2.56211e-05
2.5339e-05
2.36398e-05
2.56487e-05
2.54639e-05
2.57434e-05
2.3861e-05
2.59497e-05
2.41453e-05
2.39111e-05
2.5981e-05
2.56597e-05
2.55667e-05
2.49424e-05
2.0467e-05
2.31526e-05
2.27386e-05
2.49073e-05
2.55319e-05
2.54936e-05
2.04113e-05
2.27021e-05
2.47987e-05
2.58517e-05
2.43292e-05
2.42465e-05
2.61242e-05
2.39595e-05
2.60015e-05
2.60032e-05
2.57475e-05
2.36934e-05
2.59198e-05
2.4052e-05
2.40161e-05
2.58871e-05
2.57608e-05
2.54523e-05
2.48102e-05
2.0703e-05
2.3116e-05
2.29382e-05
2.48562e-05
2.56167e-05
2.54514e-05
2.27021e-05
2.06027e-05
2.45873e-05
2.28124e-05
2.53992e-05
2.47986e-05
2.59339e-05
2.43163e-05
2.4344e-05
2.61279e-05
2.41293e-05
2.60472e-05
2.60194e-05
2.35862e-05
2.64207e-05
2.57023e-05
2.56574e-05
2.56658e-05
2.57384e-05
2.35934e-05
2.53962e-05
2.45776e-05
2.02859e-05
2.27356e-05
2.27425e-05
2.45842e-05
2.54276e-05
2.58191e-05
2.44986e-05
2.39213e-05
2.59889e-05
2.39898e-05
2.5998e-05
2.58183e-05
2.56633e-05
2.48447e-05
2.07051e-05
2.32052e-05
2.30228e-05
2.47376e-05
2.56361e-05
2.59229e-05
2.44111e-05
2.60014e-05
2.42642e-05
2.60078e-05
2.42864e-05
2.58647e-05
2.53159e-05
2.47743e-05
2.04399e-05
2.29032e-05
2.47641e-05
2.29311e-05
2.54577e-05
2.58239e-05
2.45755e-05
2.60006e-05
2.40819e-05
2.60888e-05
2.3896e-05
2.5807e-05
2.54148e-05
2.48666e-05
2.07125e-05
2.30792e-05
2.48598e-05
2.30904e-05
2.55574e-05
2.59688e-05
2.47229e-05
2.61393e-05
2.42825e-05
2.61524e-05
2.43186e-05
2.586e-05
2.15236e-05
2.69662e-05
2.69622e-05
2.63524e-05
2.15295e-05
2.70223e-05
2.69351e-05
2.62448e-05
2.15572e-05
2.70504e-05
2.69237e-05
2.62845e-05
2.1575e-05
2.70442e-05
2.69303e-05
2.63552e-05
2.1568e-05
2.70508e-05
2.68975e-05
2.63834e-05
2.15772e-05
2.70071e-05
2.68579e-05
2.63693e-05
2.15999e-05
2.69676e-05
2.6903e-05
2.62699e-05
2.16037e-05
2.69706e-05
2.69034e-05
2.62604e-05
2.15983e-05
2.6967e-05
2.68417e-05
2.63072e-05
2.16211e-05
2.69003e-05
2.6875e-05
2.63188e-05
2.16191e-05
2.69747e-05
2.68823e-05
2.62564e-05
2.16072e-05
2.69624e-05
2.68637e-05
2.6355e-05
2.16028e-05
2.69824e-05
2.6827e-05
2.63055e-05
2.16048e-05
2.6996e-05
2.68621e-05
2.63779e-05
2.15924e-05
2.69723e-05
2.67836e-05
2.63031e-05
2.15892e-05
2.69063e-05
2.68557e-05
2.62318e-05
2.68865e-05
2.70385e-05
2.63869e-05
2.6868e-05
2.70998e-05
2.69641e-05
2.69089e-05
2.64817e-05
2.69574e-05
2.69032e-05
2.63564e-05
2.62103e-05
2.61455e-05
2.68344e-05
2.70334e-05
2.68803e-05
2.70452e-05
2.63314e-05
2.63695e-05
2.6854e-05
2.70967e-05
2.67848e-05
2.7119e-05
2.69908e-05
2.70079e-05
2.68896e-05
2.64769e-05
2.65309e-05
2.69046e-05
2.69655e-05
2.69188e-05
2.6281e-05
2.62236e-05
2.62822e-05
2.68276e-05
2.69838e-05
2.68069e-05
2.7033e-05
2.63175e-05
2.64627e-05
2.68802e-05
2.70395e-05
2.68751e-05
2.71423e-05
2.69661e-05
2.70497e-05
2.68993e-05
2.64971e-05
2.64706e-05
2.69226e-05
2.69188e-05
2.68872e-05
2.6298e-05
2.62378e-05
2.63269e-05
2.6909e-05
2.70076e-05
2.69407e-05
2.70567e-05
2.64459e-05
2.64881e-05
2.68965e-05
2.71321e-05
2.68174e-05
2.71403e-05
2.68779e-05
2.70221e-05
2.6952e-05
2.64652e-05
2.64836e-05
2.68344e-05
2.69439e-05
2.68876e-05
2.62904e-05
2.62823e-05
2.62461e-05
2.69548e-05
2.70479e-05
2.69261e-05
2.70153e-05
2.64565e-05
2.65005e-05
2.68296e-05
2.71208e-05
2.69e-05
2.71321e-05
2.69328e-05
2.69639e-05
2.69686e-05
2.64093e-05
2.64351e-05
2.68988e-05
2.69173e-05
2.68902e-05
2.63884e-05
2.6331e-05
2.63308e-05
2.69265e-05
2.70284e-05
2.69587e-05
2.69689e-05
2.64717e-05
2.65096e-05
2.68375e-05
2.71256e-05
2.69145e-05
2.7151e-05
2.69484e-05
2.70754e-05
2.68803e-05
2.64199e-05
2.64979e-05
2.68164e-05
2.69174e-05
2.68164e-05
2.63816e-05
2.63448e-05
2.63663e-05
2.6955e-05
2.7024e-05
2.6875e-05
2.69156e-05
2.65091e-05
2.64592e-05
2.69171e-05
2.71289e-05
2.69283e-05
2.7058e-05
2.69518e-05
2.70585e-05
2.68911e-05
2.65022e-05
2.64976e-05
2.68885e-05
2.69015e-05
2.68865e-05
2.63426e-05
2.63134e-05
2.64379e-05
2.695e-05
2.69702e-05
2.70044e-05
2.70078e-05
2.64622e-05
2.64408e-05
2.69369e-05
2.70773e-05
2.68367e-05
2.71509e-05
2.68215e-05
2.69945e-05
2.68537e-05
2.64905e-05
2.6481e-05
2.6854e-05
2.69062e-05
2.68182e-05
2.62778e-05
2.6407e-05
2.63485e-05
2.70086e-05
2.69473e-05
2.69609e-05
2.69631e-05
2.64391e-05
2.64072e-05
2.68288e-05
2.71389e-05
2.68627e-05
2.7039e-05
2.69394e-05
2.69641e-05
2.68618e-05
2.64823e-05
2.64299e-05
2.68058e-05
2.67877e-05
2.68226e-05
2.63121e-05
2.63423e-05
2.63196e-05
2.69246e-05
2.6898e-05
2.70029e-05
2.69079e-05
2.62968e-05
2.64263e-05
2.68902e-05
2.7112e-05
2.68979e-05
2.70584e-05
2.69539e-05
2.69643e-05
2.6938e-05
2.64301e-05
2.63206e-05
2.67479e-05
2.67892e-05
2.68163e-05
2.63102e-05
2.63129e-05
2.62045e-05
2.70054e-05
2.69761e-05
2.69217e-05
2.69194e-05
2.64092e-05
2.64009e-05
2.6918e-05
2.70559e-05
2.68859e-05
2.70911e-05
2.69719e-05
2.6989e-05
2.69179e-05
2.64086e-05
2.64123e-05
2.68337e-05
2.68086e-05
2.68911e-05
2.63036e-05
2.6162e-05
2.62774e-05
2.69962e-05
2.6979e-05
2.69922e-05
2.69127e-05
2.63127e-05
2.63016e-05
2.6837e-05
2.71012e-05
2.68432e-05
2.71031e-05
2.69075e-05
2.69794e-05
2.69746e-05
2.63506e-05
2.63782e-05
2.6882e-05
2.68511e-05
2.68703e-05
2.63818e-05
2.62673e-05
2.63428e-05
2.69999e-05
2.68991e-05
2.69829e-05
2.69787e-05
2.62866e-05
2.63364e-05
2.6869e-05
2.70539e-05
2.68718e-05
2.7021e-05
2.6998e-05
2.69715e-05
2.69113e-05
2.64057e-05
2.64092e-05
2.67896e-05
2.6838e-05
2.67702e-05
2.63351e-05
2.63408e-05
2.62654e-05
2.69896e-05
2.6934e-05
2.6915e-05
2.69661e-05
2.63532e-05
2.63439e-05
2.6879e-05
2.70728e-05
2.68608e-05
2.70407e-05
2.69823e-05
2.6982e-05
2.69685e-05
2.64009e-05
2.62594e-05
2.68681e-05
2.67901e-05
2.68792e-05
2.63726e-05
2.61858e-05
2.62219e-05
2.69397e-05
2.69896e-05
2.69223e-05
2.69869e-05
2.63223e-05
2.63987e-05
2.67675e-05
2.70753e-05
2.68372e-05
2.70644e-05
2.70055e-05
2.69591e-05
2.69421e-05
2.63442e-05
2.63552e-05
2.68912e-05
2.68564e-05
2.68993e-05
2.63032e-05
2.61862e-05
2.62616e-05
2.68822e-05
2.69941e-05
2.6927e-05
2.6989e-05
2.64129e-05
2.63472e-05
2.68587e-05
2.70637e-05
2.68333e-05
2.70537e-05
2.68699e-05
2.69807e-05