/*--------------------------------*- C++ -*----------------------------------*\
| =========                 |                                                 |
| \\      /  F ield         | OpenFOAM: The Open Source CFD Toolbox           |
|  \\    /   O peration     | Version:  2206                                  |
|   \\  /    A nd           | Website:  www.openfoam.com                      |
|    \\/     M anipulation  |                                                 |
\*---------------------------------------------------------------------------*/
FoamFile
{
    version     2.0;
    format      ascii;
    arch        "LSB;label=32;scalar=64";
    class       volScalarField;
    location    "50";
    object      nut;
}
// * * * * * * * * * * * * * * * * * * * * * * * * * * * * * * * * * * * * * //

dimensions      [0 2 -1 0 0 0 0];

internalField   nonuniform List<scalar> 
67442
(
1.21843e-06
8.34008e-07
8.53284e-07
8.14636e-07
8.11982e-07
8.45525e-07
8.5013e-07
8.16492e-07
8.30411e-07
8.3676e-07
8.34325e-07
8.18901e-07
8.48252e-07
3.16754e-08
1.37772e-07
1.44471e-08
3.09419e-08
1.30883e-07
1.22961e-06
1.23065e-06
1.22741e-06
1.45956e-07
1.05457e-06
3.78706e-07
1.4372e-08
1.07884e-06
1.48782e-07
3.96377e-07
7.24826e-08
7.3828e-08
1.43383e-08
1.41275e-08
7.51322e-08
7.32117e-08
3.25215e-08
1.3669e-07
1.46422e-07
1.07751e-06
3.97418e-07
1.49506e-07
1.08102e-06
3.97099e-07
7.50708e-08
7.42758e-08
1.42524e-08
1.43739e-07
1.05018e-06
3.71989e-07
3.19618e-08
1.32321e-07
1.05471e-06
1.4586e-07
3.75755e-07
3.18294e-08
1.33817e-07
1.05319e-06
1.41222e-07
3.77001e-07
3.12964e-08
1.31696e-07
7.41485e-08
7.61852e-08
1.44181e-08
1.07818e-06
1.46491e-07
3.93871e-07
3.24468e-08
1.3721e-07
3.1924e-08
1.37132e-07
1.40048e-08
1.41691e-08
1.25774e-08
3.21166e-08
6.86647e-08
6.92268e-08
1.2524e-08
2.09097e-08
1.38533e-07
2.45771e-08
1.13121e-07
2.47031e-08
1.14752e-07
2.08803e-08
1.44804e-08
2.03853e-08
1.3057e-07
1.09534e-07
2.38737e-08
1.24522e-08
3.14322e-08
6.71958e-08
6.73565e-08
1.24481e-08
1.24584e-08
3.15476e-08
6.71097e-08
2.03235e-08
1.31818e-07
1.09587e-07
2.37705e-08
1.10259e-07
2.37328e-08
2.04121e-08
1.44262e-08
1.44898e-08
1.16815e-07
2.31147e-07
7.3155e-08
2.93011e-08
2.29802e-07
2.92609e-08
1.16467e-07
1.17377e-07
2.31344e-07
7.44765e-08
2.911e-08
2.30414e-07
2.88766e-08
1.15874e-07
4.2713e-08
1.2112e-08
1.20395e-08
1.20957e-08
1.20687e-08
4.34234e-08
1.43698e-08
1.41597e-08
1.41822e-08
1.17076e-07
2.32859e-07
7.56904e-08
2.94947e-08
2.97938e-08
2.33746e-07
1.16891e-07
1.16761e-07
2.2926e-07
7.39361e-08
2.89041e-08
2.92508e-08
2.29572e-07
1.16294e-07
4.31769e-08
1.22315e-08
1.21818e-08
1.22557e-08
1.21832e-08
4.35239e-08
1.25988e-08
3.23632e-08
6.93117e-08
6.94702e-08
1.25631e-08
2.08718e-08
1.38126e-07
2.46146e-08
1.13177e-07
2.46717e-08
1.12999e-07
2.09084e-08
1.16833e-07
2.33663e-07
7.54205e-08
2.9547e-08
2.9431e-08
2.33885e-07
1.1757e-07
1.1749e-07
2.31159e-07
7.42735e-08
2.96703e-08
2.28867e-07
2.95043e-08
1.15728e-07
4.29023e-08
1.22151e-08
1.22363e-08
1.22513e-08
1.22293e-08
4.35171e-08
1.42522e-08
2.04362e-08
1.3192e-07
2.4057e-08
1.09018e-07
1.26595e-08
3.2101e-08
6.85983e-08
6.91424e-08
1.2634e-08
1.26865e-08
3.21459e-08
6.85274e-08
2.05287e-08
1.32968e-07
2.39956e-08
1.10065e-07
2.39173e-08
1.10012e-07
2.0549e-08
1.25408e-08
3.12825e-08
6.74339e-08
6.80747e-08
1.25166e-08
2.07103e-08
1.34468e-07
1.10427e-07
2.43641e-08
1.10823e-07
2.44016e-08
2.07676e-08
1.23789e-08
3.14008e-08
6.70316e-08
6.75316e-08
1.23704e-08
2.03564e-08
1.31613e-07
2.41796e-08
1.07928e-07
2.39992e-08
1.09022e-07
2.0441e-08
1.19289e-07
2.32848e-07
7.4789e-08
2.93951e-08
2.93759e-08
2.30377e-07
1.19081e-07
1.19454e-07
2.37303e-07
7.63221e-08
3.04254e-08
2.37524e-07
3.02741e-08
1.18493e-07
4.41863e-08
1.23959e-08
1.25015e-08
1.24032e-08
1.25339e-08
4.45275e-08
1.44498e-08
1.25128e-08
3.19386e-08
6.89814e-08
6.88917e-08
1.25088e-08
2.05509e-08
1.37035e-07
1.12265e-07
2.44986e-08
1.1339e-07
2.43878e-08
2.06859e-08
1.25586e-08
3.20511e-08
6.87522e-08
6.96065e-08
1.25274e-08
2.08083e-08
1.3783e-07
1.13429e-07
2.45702e-08
1.13928e-07
2.42799e-08
2.08355e-08
1.4007e-08
1.41626e-08
1.14671e-06
1.14794e-06
1.01283e-06
2.80067e-07
4.60748e-07
4.67773e-07
7.96962e-07
4.56195e-07
4.59893e-07
2.81379e-07
2.77291e-07
4.63309e-07
4.64369e-07
7.92089e-07
4.58566e-07
4.56401e-07
2.75991e-07
2.77427e-07
4.664e-07
4.66985e-07
7.99346e-07
4.58889e-07
4.59251e-07
2.76768e-07
2.83691e-07
4.68231e-07
4.7579e-07
8.03737e-07
4.69748e-07
4.60196e-07
2.82659e-07
1.14329e-06
1.15713e-06
1.01156e-06
1.1562e-06
1.16037e-06
1.01447e-06
1.15053e-06
1.15737e-06
1.00428e-06
5.40131e-07
3.69683e-07
1.46633e-07
2.33629e-07
3.66763e-07
2.3441e-07
5.522e-07
6.16795e-07
3.77537e-07
3.27965e-07
6.92139e-07
3.25606e-07
6.76847e-07
6.27592e-07
5.62848e-07
3.81993e-07
1.47837e-07
2.38587e-07
3.80213e-07
2.41351e-07
5.6318e-07
6.43977e-07
3.95924e-07
7.1375e-07
3.37635e-07
7.10017e-07
3.40105e-07
6.44889e-07
5.63874e-07
3.78449e-07
1.48589e-07
2.40608e-07
2.40697e-07
3.77688e-07
5.66894e-07
6.43469e-07
3.96972e-07
3.4189e-07
7.13368e-07
3.41839e-07
7.09708e-07
6.43739e-07
5.6975e-07
3.83155e-07
1.49929e-07
2.42644e-07
2.43663e-07
3.81514e-07
5.70363e-07
6.47111e-07
3.97583e-07
3.43426e-07
7.12957e-07
3.42588e-07
7.10658e-07
6.47817e-07
5.39064e-07
3.68702e-07
1.44729e-07
2.3106e-07
2.31557e-07
3.65088e-07
5.4835e-07
6.14382e-07
3.72762e-07
3.21861e-07
6.91006e-07
3.22791e-07
6.75045e-07
6.266e-07
5.42494e-07
3.71731e-07
1.4688e-07
2.34943e-07
2.34763e-07
3.69744e-07
5.53982e-07
6.16586e-07
3.72944e-07
6.92008e-07
3.24328e-07
6.76412e-07
3.26073e-07
6.28746e-07
5.40818e-07
3.69748e-07
1.42135e-07
2.28033e-07
3.63988e-07
2.29886e-07
5.50139e-07
6.14053e-07
3.73586e-07
6.92582e-07
3.23342e-07
6.74603e-07
3.22863e-07
6.26384e-07
5.62289e-07
3.77277e-07
1.48141e-07
2.40422e-07
3.76e-07
2.41141e-07
5.63255e-07
6.4317e-07
3.96944e-07
7.12635e-07
3.39561e-07
7.11048e-07
3.40333e-07
6.46543e-07
2.28236e-09
2.49854e-10
1.80682e-11
3.29173e-12
3.07398e-12
2.35046e-09
2.60892e-10
1.92761e-11
3.69054e-12
3.47376e-12
2.27639e-09
2.49335e-10
1.8042e-11
3.29759e-12
3.08115e-12
2.37459e-09
2.63077e-10
1.94162e-11
3.70218e-12
3.48245e-12
2.33612e-09
2.59124e-10
1.91652e-11
3.69031e-12
3.47634e-12
2.33226e-09
2.58525e-10
1.91198e-11
3.69263e-12
3.48068e-12
2.31462e-09
2.53775e-10
1.83093e-11
3.29683e-12
3.0731e-12
2.34808e-09
2.60742e-10
1.92767e-11
3.69999e-12
3.48406e-12
2.3465e-09
2.5643e-10
1.8468e-11
3.30864e-12
3.08171e-12
2.30001e-09
2.52229e-10
1.82286e-11
3.30426e-12
3.08332e-12
2.2791e-09
2.49844e-10
1.80775e-11
3.29984e-12
3.08271e-12
2.35229e-09
2.61043e-10
1.92873e-11
3.69306e-12
3.47618e-12
2.29253e-09
2.51072e-10
1.81345e-11
3.29241e-12
3.07335e-12
2.27614e-09
2.49446e-10
1.80378e-11
3.28912e-12
3.07232e-12
2.31182e-09
2.56642e-10
1.90118e-11
3.69034e-12
3.48111e-12
2.30603e-09
2.55972e-10
1.89608e-11
3.68127e-12
3.47276e-12
2.32568e-09
2.56847e-10
1.90233e-11
3.7017e-12
3.49288e-12
2.29404e-09
2.51338e-10
1.81684e-11
3.30434e-12
3.08519e-12
2.35664e-09
2.6155e-10
1.93161e-11
3.69966e-12
3.48287e-12
2.09947e-09
2.29922e-10
1.69741e-11
3.38689e-12
3.20802e-12
2.14601e-09
2.36941e-10
1.75469e-11
3.49631e-12
3.31101e-12
2.34051e-09
2.58117e-10
1.90899e-11
3.70496e-12
3.49476e-12
2.29433e-09
2.51128e-10
1.81513e-11
3.30597e-12
3.08749e-12
2.29321e-09
2.5091e-10
1.81323e-11
3.29909e-12
3.08053e-12
2.37829e-09
2.63723e-10
1.94614e-11
3.70819e-12
3.4878e-12
2.38428e-09
2.64312e-10
1.9493e-11
3.70341e-12
3.48172e-12
2.27154e-09
2.48626e-10
1.80091e-11
3.32513e-12
3.11276e-12
2.27264e-09
2.48885e-10
1.80297e-11
3.331e-12
3.11855e-12
2.24034e-09
2.45414e-10
1.78138e-11
3.31603e-12
3.10807e-12
2.2485e-09
2.4609e-10
1.7854e-11
3.3246e-12
3.11657e-12
2.09828e-09
2.31531e-10
1.7367e-11
3.62109e-12
3.45162e-12
2.08401e-09
2.30102e-10
1.72777e-11
3.61732e-12
3.45011e-12
2.09988e-09
2.31838e-10
1.73875e-11
3.62684e-12
3.4574e-12
2.08896e-09
2.30605e-10
1.73064e-11
3.62404e-12
3.45672e-12
2.34344e-09
2.6001e-10
1.92264e-11
3.70038e-12
3.48583e-12
2.33318e-09
2.58816e-10
1.91461e-11
3.69799e-12
3.48571e-12
2.33883e-09
2.59158e-10
1.91636e-11
3.69312e-12
3.47992e-12
2.3237e-09
2.54538e-10
1.83557e-11
3.30767e-12
3.08395e-12
2.29844e-09
2.51727e-10
1.82139e-11
3.33188e-12
3.11407e-12
2.30606e-09
2.52376e-10
1.82526e-11
3.33824e-12
3.12006e-12
2.12309e-09
2.34198e-10
1.75383e-11
3.62635e-12
3.45254e-12
2.12588e-09
2.34536e-10
1.75604e-11
3.63253e-12
3.45866e-12
2.35225e-09
2.60969e-10
1.92889e-11
3.70445e-12
3.48859e-12
2.10728e-09
2.31057e-10
1.70516e-11
3.38972e-12
3.20887e-12
2.16134e-09
2.38186e-10
1.76126e-11
3.4979e-12
3.31113e-12
2.37927e-09
2.62222e-10
1.93475e-11
3.71167e-12
3.49488e-12
2.34853e-09
2.57102e-10
1.85227e-11
3.31584e-12
3.08794e-12
2.35386e-09
2.57374e-10
1.85273e-11
3.30942e-12
3.08096e-12
2.3071e-09
2.52796e-10
1.82597e-11
3.31009e-12
3.08891e-12
2.32749e-09
2.56902e-10
1.90132e-11
3.70287e-12
3.49469e-12
2.28612e-09
2.50564e-10
1.81218e-11
3.30613e-12
3.08837e-12
2.336e-09
2.5556e-10
1.84454e-11
3.33616e-12
3.1122e-12
2.34104e-09
2.56194e-10
1.84906e-11
3.34518e-12
3.12093e-12
2.16056e-09
2.38377e-10
1.7801e-11
3.63341e-12
3.45266e-12
2.35897e-09
2.6172e-10
1.93297e-11
3.70203e-12
3.48504e-12
2.31345e-09
2.55484e-10
1.89229e-11
3.69712e-12
3.49118e-12
2.2974e-09
2.5165e-10
1.8173e-11
3.3031e-12
3.08419e-12
2.32001e-09
2.56144e-10
1.89654e-11
3.69825e-12
3.49115e-12
2.28387e-09
2.50108e-10
1.80797e-11
3.30002e-12
3.08338e-12
2.31517e-09
2.57027e-10
1.9039e-11
3.69541e-12
3.48588e-12
2.30827e-09
2.56393e-10
1.89913e-11
3.69035e-12
3.48192e-12
2.33302e-09
2.57762e-10
1.90746e-11
3.70257e-12
3.4927e-12
2.35911e-09
2.60275e-10
1.9231e-11
3.70944e-12
3.49562e-12
2.09566e-09
2.29672e-10
1.69679e-11
3.38894e-12
3.21033e-12
2.14338e-09
2.36298e-10
1.74927e-11
3.4872e-12
3.30256e-12
2.14344e-09
2.36983e-10
1.75521e-11
3.49784e-12
3.31263e-12
2.08266e-09
2.28374e-10
1.688e-11
3.37715e-12
3.19977e-12
2.31546e-09
2.55674e-10
1.89419e-11
3.68713e-12
3.4789e-12
2.28679e-09
2.50378e-10
1.81252e-11
3.32646e-12
3.11071e-12
2.29132e-09
2.50856e-10
1.81564e-11
3.33447e-12
3.11867e-12
2.11271e-09
2.33228e-10
1.74777e-11
3.62512e-12
3.45282e-12
2.11795e-09
2.33677e-10
1.75028e-11
3.63126e-12
3.45895e-12
2.33145e-09
2.57122e-10
1.90249e-11
3.6973e-12
3.48819e-12
2.09502e-09
2.29608e-10
1.69639e-11
3.3894e-12
3.21079e-12
2.13857e-09
2.35878e-10
1.7477e-11
3.49458e-12
3.3111e-12
2.13618e-09
2.36045e-10
1.74972e-11
3.49701e-12
3.31292e-12
2.09022e-09
2.29157e-10
1.6929e-11
3.38575e-12
3.20802e-12
2.33872e-09
2.58137e-10
1.90878e-11
3.69854e-12
3.48781e-12
2.31135e-09
2.52568e-10
1.82584e-11
3.33309e-12
3.11417e-12
2.30783e-09
2.5276e-10
1.82838e-11
3.33899e-12
3.1198e-12
2.15354e-09
2.37082e-10
1.77083e-11
3.6307e-12
3.45253e-12
2.15483e-09
2.37681e-10
1.77563e-11
3.63654e-12
3.45747e-12
2.29352e-09
2.50566e-10
1.81256e-11
3.32628e-12
3.11054e-12
2.29964e-09
2.51435e-10
1.81882e-11
3.33573e-12
3.11918e-12
2.11566e-09
2.32909e-10
1.74429e-11
3.62059e-12
3.44905e-12
2.1196e-09
2.33697e-10
1.74983e-11
3.62849e-12
3.45629e-12
2.27238e-09
2.48447e-10
1.79949e-11
3.32463e-12
3.11252e-12
2.27449e-09
2.48826e-10
1.8024e-11
3.33082e-12
3.1186e-12
2.1106e-09
2.32141e-10
1.7388e-11
3.62109e-12
3.45139e-12
2.11482e-09
2.32898e-10
1.74371e-11
3.62747e-12
3.45711e-12
2.08686e-09
2.29152e-10
1.69391e-11
3.38917e-12
3.21147e-12
2.13032e-09
2.35603e-10
1.74679e-11
3.48815e-12
3.30414e-12
2.14078e-09
2.36732e-10
1.75368e-11
3.49844e-12
3.3138e-12
2.07455e-09
2.28159e-10
1.6879e-11
3.37838e-12
3.20104e-12
2.32546e-09
2.57182e-10
1.90352e-11
3.68951e-12
3.4792e-12
2.11489e-09
2.31658e-10
1.70879e-11
3.3932e-12
3.21157e-12
2.15639e-09
2.37608e-10
1.75785e-11
3.4972e-12
3.31121e-12
2.15066e-09
2.37512e-10
1.75814e-11
3.49911e-12
3.31305e-12
2.10565e-09
2.30825e-10
1.70389e-11
3.38946e-12
3.20886e-12
2.36827e-09
2.61168e-10
1.92803e-11
3.70401e-12
3.48827e-12
2.38075e-09
2.62564e-10
1.9363e-11
3.70568e-12
3.48795e-12
2.35078e-09
2.59756e-10
1.92027e-11
3.70296e-12
3.48925e-12
2.12301e-09
2.32827e-10
1.71649e-11
3.39456e-12
3.2109e-12
2.17048e-09
2.39558e-10
1.77104e-11
3.50065e-12
3.31125e-12
2.17399e-09
2.39805e-10
1.77228e-11
3.5024e-12
3.31272e-12
2.11234e-09
2.32093e-10
1.71292e-11
3.39111e-12
3.2081e-12
2.0881e-09
2.2887e-10
1.6911e-11
3.38717e-12
3.21005e-12
2.14878e-09
2.37153e-10
1.7554e-11
3.49584e-12
3.31051e-12
2.15318e-09
2.37825e-10
1.75952e-11
3.49841e-12
3.31201e-12
2.07804e-09
2.28242e-10
1.68777e-11
3.38383e-12
3.20738e-12
2.31646e-09
2.56072e-10
1.89675e-11
3.69603e-12
3.48837e-12
2.16827e-09
2.39141e-10
1.785e-11
3.64159e-12
3.46033e-12
2.30836e-09
2.5506e-10
1.88921e-11
3.68408e-12
3.47751e-12
2.05596e-09
2.2591e-10
1.67397e-11
3.38238e-12
3.20957e-12
2.11617e-09
2.33816e-10
1.73413e-11
3.48353e-12
3.30284e-12
2.12362e-09
2.34673e-10
1.73953e-11
3.49295e-12
3.31197e-12
2.05151e-09
2.25502e-10
1.67063e-11
3.37253e-12
3.19963e-12
2.31187e-09
2.55414e-10
1.8917e-11
3.6848e-12
3.47757e-12
2.07561e-09
2.27728e-10
1.6842e-11
3.38543e-12
3.21031e-12
2.11638e-09
2.34088e-10
1.73658e-11
3.48441e-12
3.30309e-12
2.12162e-09
2.34638e-10
1.74018e-11
3.49401e-12
3.31276e-12
2.06835e-09
2.27121e-10
1.6802e-11
3.37493e-12
3.19967e-12
8.36261e-07
8.03888e-07
8.52465e-07
1.23019e-06
1.31523e-07
1.05042e-06
3.73666e-07
3.24602e-08
1.33036e-07
1.05512e-06
1.47135e-07
3.74724e-07
1.44368e-08
7.50845e-08
2.04183e-08
1.29269e-07
1.09301e-07
2.40614e-08
1.08775e-07
2.38057e-08
2.04078e-08
1.25568e-08
3.21886e-08
6.84917e-08
6.8097e-08
1.25863e-08
2.05774e-08
1.30704e-07
2.43085e-08
1.10997e-07
2.40219e-08
1.0992e-07
2.06371e-08
1.43654e-08
1.18366e-07
2.33378e-07
7.43956e-08
2.98283e-08
2.30962e-07
2.96888e-08
1.19133e-07
1.17869e-07
2.3686e-07
2.34511e-07
1.17583e-07
4.47028e-08
1.2402e-08
1.23495e-08
4.43273e-08
2.84005e-07
8.21519e-07
4.57783e-07
4.66481e-07
4.67915e-07
4.74018e-07
2.82395e-07
1.14896e-06
9.96077e-07
1.155e-06
1.1593e-06
1.01102e-06
6.25146e-07
3.74869e-07
3.2334e-07
6.75364e-07
3.243e-07
6.90885e-07
6.1166e-07
5.5404e-07
3.7118e-07
1.45916e-07
2.353e-07
2.35061e-07
3.74573e-07
5.45395e-07
6.2741e-07
3.76142e-07
6.75919e-07
3.23942e-07
6.90793e-07
3.22785e-07
6.15977e-07
5.657e-07
3.79913e-07
3.81601e-07
5.63307e-07
7.94686e-07
8.45723e-07
8.31726e-07
1.21887e-06
1.42774e-08
1.41002e-08
7.4953e-08
7.39068e-08
3.2206e-08
1.38149e-07
1.47774e-07
1.07692e-06
3.93458e-07
3.11244e-08
1.42936e-07
1.42444e-08
1.40507e-08
1.16254e-07
2.32772e-07
7.4573e-08
2.99511e-08
2.96796e-08
2.30765e-07
1.15934e-07
1.15098e-07
2.2923e-07
7.29083e-08
2.90189e-08
2.92229e-08
2.29287e-07
1.15826e-07
4.36919e-08
1.21937e-08
1.20789e-08
1.21685e-08
1.20661e-08
4.32545e-08
1.25008e-08
3.19208e-08
6.9208e-08
6.89835e-08
1.25446e-08
2.09091e-08
1.36609e-07
2.49204e-08
1.13934e-07
2.48348e-08
1.13504e-07
2.0929e-08
1.23797e-08
3.15258e-08
6.74517e-08
6.70973e-08
1.24052e-08
2.76866e-07
8.11443e-07
4.58739e-07
4.5648e-07
4.61415e-07
4.6414e-07
2.75009e-07
1.14128e-06
5.65389e-07
3.74575e-07
1.4707e-07
2.40276e-07
3.7972e-07
2.39469e-07
5.60573e-07
6.4394e-07
3.94709e-07
3.41425e-07
7.09306e-07
3.41582e-07
7.12561e-07
6.41007e-07
5.46762e-07
3.65063e-07
1.42273e-07
2.31671e-07
3.67087e-07
2.31269e-07
5.39679e-07
2.34872e-09
2.56666e-10
1.84863e-11
3.31536e-12
3.08855e-12
2.37003e-09
2.62646e-10
1.93901e-11
3.70681e-12
3.48834e-12
2.35415e-09
2.6017e-10
1.92263e-11
3.70263e-12
3.48822e-12
2.32992e-09
2.55348e-10
1.84153e-11
3.30732e-12
3.0816e-12
2.35894e-09
2.61802e-10
1.93429e-11
3.70032e-12
3.48248e-12
2.08145e-09
2.28679e-10
1.69092e-11
3.38565e-12
3.20834e-12
2.13897e-09
2.35801e-10
1.74697e-11
3.497e-12
3.31388e-12
2.12187e-09
2.34702e-10
1.74134e-11
3.49317e-12
3.31132e-12
2.0838e-09
2.28926e-10
1.69228e-11
3.3888e-12
3.21141e-12
2.0976e-09
2.30263e-10
1.70086e-11
3.38907e-12
3.2093e-12
2.15804e-09
2.3778e-10
1.75935e-11
3.50031e-12
3.31407e-12
2.13948e-09
2.36385e-10
1.75158e-11
3.49583e-12
3.3113e-12
2.10095e-09
2.3051e-10
1.70218e-11
3.3921e-12
3.21211e-12
2.3631e-09
2.60822e-10
1.92635e-11
3.70998e-12
3.49531e-12
2.31458e-09
2.52902e-10
1.82795e-11
3.33918e-12
3.12036e-12
2.29578e-09
2.51361e-10
1.81928e-11
3.33165e-12
3.11437e-12
2.14984e-09
2.36541e-10
1.76741e-11
3.63507e-12
3.45831e-12
2.1355e-09
2.35611e-10
1.76272e-11
3.6298e-12
3.45375e-12
2.3294e-09
2.58516e-10
1.9139e-11
3.69849e-12
3.48611e-12
2.32658e-09
2.5796e-10
1.90943e-11
3.69704e-12
3.48604e-12
2.28473e-09
2.5004e-10
1.8083e-11
3.30239e-12
3.0855e-12
2.2777e-09
2.49227e-10
1.80292e-11
3.30335e-12
3.08808e-12
2.31963e-09
2.578e-10
1.90923e-11
3.68811e-12
3.47592e-12
2.31855e-09
2.57454e-10
1.90642e-11
3.69117e-12
3.48055e-12
2.30643e-09
2.54906e-10
1.88931e-11
3.68551e-12
3.4786e-12
2.26909e-09
2.48905e-10
1.80149e-11
3.28995e-12
3.07354e-12
2.26709e-09
2.48435e-10
1.79812e-11
3.29562e-12
3.08097e-12
2.10775e-09
2.32294e-10
1.74122e-11
3.62652e-12
3.45642e-12
2.09478e-09
2.30956e-10
1.73287e-11
3.62507e-12
3.45717e-12
2.31932e-09
2.56246e-10
1.89765e-11
3.69609e-12
3.48821e-12
2.32613e-09
2.56775e-10
1.90071e-11
3.70325e-12
3.49519e-12
2.29937e-09
2.51059e-10
1.81571e-11
3.33521e-12
3.11962e-12
2.28361e-09
2.4988e-10
1.80937e-11
3.32544e-12
3.11041e-12
2.26944e-09
2.48046e-10
1.79754e-11
3.33012e-12
3.11909e-12
2.25939e-09
2.47097e-10
1.79141e-11
3.32246e-12
3.11243e-12
2.09173e-09
2.30669e-10
1.73078e-11
3.61949e-12
3.45176e-12
2.10174e-09
2.31833e-10
1.7384e-11
3.61936e-12
3.44931e-12
2.06785e-09
2.27169e-10
1.68131e-11
3.37559e-12
3.19989e-12
2.14794e-09
2.36703e-10
1.75165e-11
3.49694e-12
3.31297e-12
2.13344e-09
2.35713e-10
1.74581e-11
3.48588e-12
3.30218e-12
2.072e-09
2.27742e-10
1.68559e-11
3.38617e-12
3.21034e-12
2.31283e-09
2.55679e-10
1.89487e-11
3.6998e-12
3.49294e-12
8.04747e-07
1.22121e-06
8.30229e-07
8.41678e-07
7.93277e-07
8.13094e-07
7.97747e-07
8.44956e-07
8.46885e-07
8.0373e-07
8.25103e-07
8.25673e-07
8.23107e-07
7.94438e-07
8.41969e-07
7.22904e-08
7.37365e-08
8.07026e-07
7.25686e-08
7.40994e-08
1.27987e-07
3.17594e-08
1.32386e-07
1.43579e-08
1.41837e-08
2.9876e-08
1.29935e-07
1.23023e-06
1.22736e-06
1.23195e-06
1.45714e-07
1.0397e-06
8.46724e-07
3.74463e-07
1.41836e-08
1.07188e-06
1.46926e-07
3.97929e-07
7.23529e-08
7.36067e-08
1.38528e-08
1.39232e-08
1.41991e-08
1.42092e-08
8.01702e-07
7.2874e-08
7.41947e-08
7.25432e-08
7.34029e-08
1.39311e-08
1.39632e-08
1.42112e-08
1.41961e-08
1.43352e-08
1.37621e-08
7.48426e-08
7.17425e-08
1.29387e-07
3.17196e-08
3.11181e-08
1.3395e-07
3.7588e-07
1.45543e-07
1.08229e-06
1.05965e-06
3.93344e-07
3.79064e-07
1.47789e-07
1.08286e-06
8.46275e-07
1.43974e-07
1.06063e-06
3.96778e-07
7.52109e-08
7.44036e-08
8.13608e-07
7.38665e-08
1.42926e-08
1.40975e-07
1.03512e-06
3.71551e-07
3.12922e-08
1.30369e-07
1.0356e-06
1.44289e-07
3.74681e-07
3.10887e-08
1.31846e-07
1.03743e-06
1.41749e-07
3.7515e-07
3.03573e-08
1.30689e-07
7.35896e-08
7.43797e-08
1.414e-08
1.07091e-06
1.47358e-07
3.98252e-07
3.09707e-08
1.37695e-07
3.14098e-08
1.36769e-07
1.39275e-08
1.41591e-08
4.26413e-08
1.21268e-08
1.21711e-08
1.21636e-08
1.21683e-08
4.39866e-08
1.17022e-07
2.29972e-07
2.87115e-08
7.28624e-08
2.908e-08
1.16718e-07
2.30081e-07
1.16176e-07
2.336e-07
2.84365e-08
7.4757e-08
2.89377e-08
1.16772e-07
2.3396e-07
4.34246e-08
1.21789e-08
1.21434e-08
1.21311e-08
1.21116e-08
4.32032e-08
1.16832e-07
2.86288e-08
7.20635e-08
2.29933e-07
2.90514e-08
1.16532e-07
2.30352e-07
1.17122e-07
2.86697e-08
7.38037e-08
2.32336e-07
2.87025e-08
1.17519e-07
2.32388e-07
2.01851e-08
2.33802e-08
1.07612e-07
1.29732e-07
2.37902e-08
1.07658e-07
2.00797e-08
1.26385e-08
3.17204e-08
6.97106e-08
6.87326e-08
1.27239e-08
1.24814e-08
3.13236e-08
6.76626e-08
2.06805e-08
1.31282e-07
2.40736e-08
1.11378e-07
2.40886e-08
1.09513e-07
2.0796e-08
1.43718e-08
1.4296e-08
1.21913e-08
3.01317e-08
6.56041e-08
6.61497e-08
1.21464e-08
1.98902e-08
1.29286e-07
1.07298e-07
2.32277e-08
1.07691e-07
2.33487e-08
2.00391e-08
1.41955e-08
1.16036e-07
2.29411e-07
2.84445e-08
7.27717e-08
1.16232e-07
2.27901e-07
2.86645e-08
1.1616e-07
2.32246e-07
2.85847e-08
7.38796e-08
1.17582e-07
2.32207e-07
2.88242e-08
4.27687e-08
1.21232e-08
1.21243e-08
4.29758e-08
1.20764e-08
1.21236e-08
1.38967e-08
1.39272e-08
1.42861e-08
1.42007e-08
4.26941e-08
1.21846e-08
1.21699e-08
4.29612e-08
1.21744e-08
1.21579e-08
1.15874e-07
2.2964e-07
2.88539e-08
7.27716e-08
1.1675e-07
2.89846e-08
2.2743e-07
1.16896e-07
2.32472e-07
2.88695e-08
7.39322e-08
1.16552e-07
2.8855e-08
2.29952e-07
4.40064e-08
1.21944e-08
1.22127e-08
4.35118e-08
1.21961e-08
1.2196e-08
1.16149e-07
2.88286e-08
2.28321e-07
7.28149e-08
1.16019e-07
2.90461e-08
2.28269e-07
1.17571e-07
2.90516e-08
2.29902e-07
7.42298e-08
1.1718e-07
2.89244e-08
2.31621e-07
1.39853e-08
1.39521e-08
1.41758e-08
1.41657e-08
1.42988e-08
1.42277e-08
1.37559e-08
1.15646e-07
2.32191e-07
7.50169e-08
2.88901e-08
2.89812e-08
2.33226e-07
1.14962e-07
1.1456e-07
2.27092e-07
7.18767e-08
2.76789e-08
2.78778e-08
2.25766e-07
1.14784e-07
7.45335e-08
2.31623e-07
4.23388e-08
1.21032e-08
1.18916e-08
1.20528e-08
1.18487e-08
4.26361e-08
2.03007e-08
2.33732e-08
1.07957e-07
1.31252e-07
2.38529e-08
1.09217e-07
2.01485e-08
1.26625e-08
3.21706e-08
6.98666e-08
6.90479e-08
1.27292e-08
1.24736e-08
6.68353e-08
3.14086e-08
6.75713e-08
1.2359e-08
2.06861e-08
1.32497e-07
2.40569e-08
1.13381e-07
2.4042e-08
1.12108e-07
2.08354e-08
4.21778e-08
1.22089e-08
1.21732e-08
1.218e-08
1.17588e-07
2.35176e-07
7.54746e-08
2.88223e-08
2.9229e-08
2.35811e-07
1.17117e-07
1.18036e-07
2.32001e-07
7.46062e-08
2.92378e-08
2.32653e-07
2.93083e-08
1.17775e-07
1.15606e-07
2.88235e-08
7.45426e-08
2.294e-07
2.9083e-08
2.32467e-07
1.16234e-07
1.17814e-07
7.39288e-08
2.33375e-07
2.90471e-08
4.22779e-08
1.21717e-08
1.22362e-08
1.21993e-08
1.22367e-08
4.25759e-08
1.42728e-08
1.42424e-08
1.25299e-08
3.14509e-08
6.75212e-08
6.78405e-08
1.24894e-08
2.03193e-08
1.29726e-07
2.34211e-08
1.09277e-07
2.35325e-08
1.08823e-07
2.04338e-08
2.0423e-08
1.31675e-07
1.09359e-07
2.36976e-08
1.25155e-08
3.13355e-08
6.76521e-08
6.78602e-08
1.25026e-08
1.24869e-08
3.12529e-08
6.75567e-08
2.04758e-08
1.32401e-07
1.09823e-07
2.3716e-08
1.10155e-07
2.38496e-08
2.04755e-08
1.99377e-08
1.30539e-07
2.34434e-08
1.07437e-07
1.22562e-08
3.07152e-08
6.635e-08
6.64874e-08
1.22363e-08
1.22051e-08
3.03175e-08
6.59867e-08
2.00087e-08
1.3125e-07
2.33249e-08
1.06617e-07
2.35077e-08
1.07571e-07
2.00038e-08
1.16692e-07
2.30679e-07
7.36718e-08
2.85999e-08
2.87415e-08
2.28305e-07
1.165e-07
1.17772e-07
2.33957e-07
7.46461e-08
2.9118e-08
2.34359e-07
2.95407e-08
1.17451e-07
4.3081e-08
1.21676e-08
1.2256e-08
1.21841e-08
1.22262e-08
4.33086e-08
1.41457e-08
1.24901e-08
3.13252e-08
6.84343e-08
6.86384e-08
1.24668e-08
2.0595e-08
1.38223e-07
1.13134e-07
2.40299e-08
1.13604e-07
2.4276e-08
2.06616e-08
1.25155e-08
3.1498e-08
6.88312e-08
6.91708e-08
1.25015e-08
2.05364e-08
1.37108e-07
1.12893e-07
2.40604e-08
1.13253e-07
2.42081e-08
2.06848e-08
1.39287e-08
1.39184e-08
1.41648e-08
2.79122e-07
4.61176e-07
4.68016e-07
7.92499e-07
2.80346e-07
4.56419e-07
4.61501e-07
1.1497e-06
1.15516e-06
1.01056e-06
2.76238e-07
4.55871e-07
4.6678e-07
7.9673e-07
2.79967e-07
4.54409e-07
4.63312e-07
2.79888e-07
8.18612e-07
4.555e-07
4.67969e-07
2.8021e-07
4.62288e-07
4.66547e-07
2.7603e-07
4.64266e-07
4.55263e-07
7.95231e-07
4.60824e-07
4.54438e-07
2.77146e-07
2.808e-07
4.67656e-07
4.63682e-07
8.01907e-07
4.61737e-07
4.65289e-07
2.81745e-07
2.79916e-07
4.56683e-07
4.67801e-07
7.97784e-07
4.62959e-07
4.57412e-07
2.78869e-07
2.7874e-07
8.17309e-07
4.60461e-07
4.6581e-07
2.80574e-07
4.6459e-07
4.69463e-07
1.15736e-06
1.16467e-06
1.02272e-06
1.15868e-06
1.15752e-06
1.021e-06
1.16461e-06
1.16033e-06
1.02508e-06
5.45661e-07
3.71165e-07
1.46128e-07
2.33497e-07
3.70813e-07
2.33881e-07
5.43573e-07
5.50598e-07
1.45628e-07
3.73112e-07
2.33212e-07
6.16545e-07
3.75506e-07
3.24493e-07
6.79217e-07
3.25582e-07
6.75721e-07
6.18027e-07
5.63503e-07
3.75371e-07
1.46062e-07
2.39823e-07
3.77011e-07
2.40256e-07
5.58713e-07
6.44652e-07
3.98378e-07
7.11612e-07
3.41319e-07
7.09924e-07
3.41741e-07
6.43075e-07
2.80332e-07
7.95853e-07
4.60732e-07
4.63744e-07
2.80853e-07
4.57332e-07
4.63237e-07
6.35531e-07
3.27406e-07
6.92459e-07
3.83e-07
3.31205e-07
7.02455e-07
6.271e-07
5.66904e-07
3.79741e-07
1.46497e-07
2.41388e-07
2.36817e-07
3.80718e-07
5.63747e-07
5.58465e-07
1.45156e-07
2.34696e-07
3.76362e-07
6.40499e-07
3.89535e-07
3.41126e-07
7.10106e-07
3.34644e-07
7.03551e-07
6.44458e-07
6.35771e-07
3.25093e-07
6.91761e-07
3.81537e-07
3.32666e-07
7.00019e-07
6.29655e-07
5.64411e-07
3.77213e-07
1.48103e-07
2.40991e-07
2.3886e-07
3.79605e-07
5.65619e-07
5.57805e-07
2.33249e-07
1.46415e-07
3.71218e-07
2.35786e-07
5.50992e-07
3.75877e-07
6.42572e-07
3.89344e-07
3.42525e-07
7.10203e-07
3.37035e-07
7.04775e-07
6.44898e-07
2.80542e-07
8.16891e-07
4.63484e-07
4.66927e-07
4.68894e-07
4.67538e-07
2.80057e-07
5.36816e-07
3.61899e-07
1.41901e-07
2.28372e-07
2.28753e-07
3.62048e-07
5.38367e-07
6.09472e-07
3.73487e-07
3.19656e-07
6.74448e-07
3.20237e-07
6.70977e-07
6.11647e-07
5.43281e-07
3.66914e-07
1.44997e-07
2.33336e-07
2.31769e-07
3.65533e-07
5.43636e-07
6.12154e-07
3.72243e-07
6.75363e-07
3.24522e-07
6.71813e-07
3.24431e-07
6.13016e-07
5.36043e-07
3.66306e-07
1.43145e-07
2.30186e-07
3.6629e-07
2.30722e-07
5.39993e-07
6.10182e-07
3.74709e-07
6.75553e-07
3.21952e-07
6.74125e-07
3.19046e-07
6.11992e-07
5.59048e-07
3.75622e-07
1.48009e-07
2.40116e-07
3.76715e-07
2.40798e-07
5.59902e-07
6.44151e-07
3.98479e-07
7.10817e-07
3.40866e-07
7.09271e-07
3.41579e-07
6.40781e-07
1.21586e-06
8.37536e-07
8.52729e-07
8.16198e-07
1.21493e-06
8.39039e-07
8.51807e-07
8.12558e-07
1.21502e-06
8.3973e-07
8.51212e-07
8.13736e-07
1.2168e-06
8.3949e-07
8.51462e-07
8.16186e-07
1.21763e-06
8.39825e-07
8.50527e-07
8.17367e-07
1.21906e-06
8.38508e-07
8.4927e-07
8.16922e-07
1.22226e-06
8.37232e-07
8.50649e-07
8.13582e-07
1.22345e-06
8.37109e-07
8.50501e-07
8.13023e-07
1.22322e-06
8.36849e-07
8.48291e-07
8.14274e-07
1.22554e-06
8.3464e-07
8.49188e-07
8.14604e-07
1.22522e-06
8.36687e-07
8.49115e-07
8.12516e-07
1.2247e-06
8.35753e-07
8.48114e-07
8.15109e-07
1.22282e-06
8.35635e-07
8.46323e-07
8.12777e-07
1.2238e-06
8.35017e-07
8.46544e-07
8.1379e-07
1.22386e-06
8.32992e-07
8.42827e-07
8.09017e-07
1.22441e-06
8.29208e-07
8.43508e-07
7.94354e-07
8.46044e-07
8.51401e-07
7.99997e-07
8.3334e-07
8.37467e-07
8.37539e-07
8.32165e-07
8.02374e-07
8.52567e-07
8.50892e-07
7.98441e-07
8.11299e-07
7.91832e-07
8.44366e-07
8.5119e-07
8.45874e-07
8.51444e-07
8.16053e-07
7.99202e-07
8.32861e-07
8.37419e-07
8.30775e-07
8.3815e-07
8.34663e-07
8.3868e-07
8.3136e-07
8.20013e-07
8.03761e-07
8.5091e-07
8.52825e-07
8.51163e-07
7.9589e-07
8.11799e-07
7.96119e-07
8.44169e-07
8.49446e-07
8.43525e-07
8.50826e-07
8.15284e-07
8.01834e-07
8.33659e-07
8.35648e-07
8.3353e-07
8.38674e-07
8.33661e-07
8.3978e-07
8.31524e-07
8.20478e-07
8.01721e-07
8.51168e-07
8.51138e-07
8.49889e-07
7.9626e-07
8.12411e-07
7.9779e-07
8.46704e-07
8.49958e-07
8.47877e-07
8.5158e-07
8.1917e-07
8.02751e-07
8.34153e-07
8.38289e-07
8.31852e-07
8.38574e-07
8.30868e-07
8.3881e-07
8.33263e-07
8.1926e-07
8.02133e-07
8.48183e-07
8.51919e-07
8.49943e-07
7.96275e-07
8.14103e-07
7.95551e-07
8.48329e-07
8.51295e-07
8.47675e-07
8.50446e-07
8.19554e-07
8.034e-07
8.32188e-07
8.37964e-07
8.34567e-07
8.38434e-07
8.32706e-07
8.37138e-07
8.34111e-07
8.17611e-07
8.00891e-07
8.50333e-07
8.51217e-07
8.5028e-07
7.99558e-07
8.15771e-07
7.98136e-07
8.47653e-07
8.50827e-07
8.48885e-07
8.49111e-07
8.20393e-07
8.03959e-07
8.32533e-07
8.38166e-07
8.351e-07
8.39109e-07
8.33485e-07
8.40711e-07
8.31542e-07
8.18084e-07
8.02852e-07
8.47943e-07
8.51276e-07
8.48077e-07
7.99474e-07
8.1619e-07
7.99352e-07
8.48656e-07
8.50749e-07
8.46311e-07
8.47417e-07
8.21707e-07
8.02373e-07
8.35084e-07
8.38345e-07
8.35747e-07
8.36372e-07
8.33639e-07
8.40259e-07
8.31771e-07
8.20727e-07
8.02927e-07
8.50228e-07
8.50804e-07
8.50215e-07
7.98135e-07
8.15285e-07
8.01714e-07
8.48471e-07
8.48924e-07
8.50508e-07
8.50264e-07
8.20186e-07
8.01636e-07
8.35862e-07
8.36782e-07
8.33133e-07
8.39253e-07
8.29345e-07
8.38197e-07
8.30436e-07
8.2033e-07
8.02341e-07
8.48955e-07
8.50962e-07
8.48015e-07
7.95954e-07
8.18311e-07
7.9912e-07
8.50368e-07
8.48045e-07
8.49296e-07
8.48834e-07
8.19092e-07
8.00466e-07
8.32576e-07
8.38492e-07
8.34125e-07
8.35846e-07
8.32664e-07
8.37278e-07
8.30647e-07
8.19893e-07
8.00776e-07
8.47297e-07
8.47176e-07
8.4822e-07
7.97004e-07
8.16243e-07
7.98211e-07
8.47702e-07
8.46358e-07
8.50674e-07
8.47243e-07
8.14574e-07
8.01271e-07
8.34417e-07
8.37436e-07
8.35374e-07
8.36723e-07
8.32812e-07
8.375e-07
8.3329e-07
8.18009e-07
7.97742e-07
8.45275e-07
8.47431e-07
8.48192e-07
7.97193e-07
8.15033e-07
7.94535e-07
8.50056e-07
8.48765e-07
8.48061e-07
8.47761e-07
8.17903e-07
8.00615e-07
8.35047e-07
8.35502e-07
8.35092e-07
8.38119e-07
8.33213e-07
8.38579e-07
8.3323e-07
8.17362e-07
8.00737e-07
8.47797e-07
8.48335e-07
8.50901e-07
7.974e-07
8.09862e-07
7.9684e-07
8.49406e-07
8.48731e-07
8.50347e-07
8.47692e-07
8.14875e-07
7.97733e-07
8.32047e-07
8.36448e-07
8.3398e-07
8.39102e-07
8.30957e-07
8.38565e-07
8.35635e-07
8.15205e-07
8.0005e-07
8.49075e-07
8.50112e-07
8.50734e-07
8.00245e-07
8.12752e-07
7.99251e-07
8.49241e-07
8.46006e-07
8.50315e-07
8.49917e-07
8.13572e-07
7.98998e-07
8.32442e-07
8.34354e-07
8.35354e-07
8.3742e-07
8.33132e-07
8.38815e-07
8.34534e-07
8.16354e-07
8.01614e-07
8.45755e-07
8.5037e-07
8.4818e-07
7.99455e-07
8.14626e-07
7.97428e-07
8.48707e-07
8.46699e-07
8.48564e-07
8.49777e-07
8.15196e-07
7.99869e-07
8.32004e-07
8.33906e-07
8.35864e-07
8.39257e-07
8.31649e-07
8.3989e-07
8.37645e-07
8.15382e-07
7.98072e-07
8.47588e-07
8.4972e-07
8.525e-07
8.01683e-07
8.08995e-07
7.97028e-07
8.46794e-07
8.48096e-07
8.49159e-07
8.50925e-07
8.13422e-07
8.0269e-07
8.27574e-07
8.32523e-07
8.36323e-07
8.41839e-07
8.31018e-07
8.40451e-07
8.38818e-07
8.12278e-07
8.0288e-07
8.47396e-07
8.53033e-07
8.54301e-07
8.01488e-07
8.075e-07
8.00576e-07
8.44523e-07
8.47812e-07
8.49916e-07
8.51727e-07
8.1496e-07
8.03546e-07
8.29061e-07
8.30126e-07
8.38132e-07
8.44277e-07
8.24956e-07
8.43073e-07
8.3897e-07
8.099e-07
8.05253e-07
8.44558e-07