/*--------------------------------*- C++ -*----------------------------------*\
| =========                 |                                                 |
| \\      /  F ield         | OpenFOAM: The Open Source CFD Toolbox           |
|  \\    /   O peration     | Version:  2206                                  |
|   \\  /    A nd           | Website:  www.openfoam.com                      |
|    \\/     M anipulation  |                                                 |
\*---------------------------------------------------------------------------*/
FoamFile
{
    version     2.0;
    format      ascii;
    arch        "LSB;label=32;scalar=64";
    class       volVectorField;
    location    "50";
    object      U;
}
// * * * * * * * * * * * * * * * * * * * * * * * * * * * * * * * * * * * * * //

dimensions      [0 1 -1 0 0 0 0];

internalField   nonuniform List<vector> 
67442
(
(4.78752e-07 1.56711e-06 0.132594)
(-2.6324e-08 1.84239e-06 0.128391)
(3.78571e-06 -4.47204e-06 0.128471)
(-0.000199621 -0.000199956 0.124736)
(0.000200445 0.000200791 0.124738)
(5.90994e-06 5.55797e-06 0.128493)
(-5.28614e-06 3.59228e-06 0.128485)
(-0.000198927 0.00019979 0.124735)
(2.36994e-06 3.33484e-06 0.128403)
(3.64735e-06 -4.40953e-06 0.128401)
(-8.52903e-07 -2.30294e-06 0.128411)
(0.000200184 -0.000199565 0.124729)
(-4.21522e-06 -2.20932e-06 0.128483)
(8.10705e-06 4.15223e-05 0.0819509)
(5.97965e-07 6.16728e-05 0.1061)
(-1.05054e-05 1.58071e-05 0.0702901)
(3.95938e-05 3.81635e-06 0.0816413)
(6.02917e-05 -1.10063e-07 0.10558)
(-3.58437e-07 4.47875e-07 0.132583)
(7.6171e-07 -2.34015e-06 0.132586)
(-6.35307e-07 -6.87141e-07 0.132592)
(-4.24116e-05 3.12786e-05 0.107679)
(1.422e-06 -1.18483e-06 0.130202)
(-5.78513e-05 -6.06605e-07 0.117538)
(1.44053e-05 -6.12304e-06 0.0701751)
(-2.38685e-06 -4.36383e-06 0.130325)
(3.65823e-05 -4.21414e-05 0.107953)
(4.93942e-07 -5.79616e-05 0.117733)
(-1.62941e-05 -2.43453e-05 0.0955564)
(-3.02481e-05 -1.50471e-05 0.0957643)
(1.06896e-05 1.46102e-05 0.0702893)
(1.38174e-05 6.78184e-06 0.0701704)
(2.96263e-05 1.59902e-05 0.0958058)
(1.67002e-05 2.37514e-05 0.0955167)
(-7.93796e-06 4.22255e-05 0.0819542)
(-8.48087e-07 6.13981e-05 0.106101)
(3.63523e-05 4.28442e-05 0.107949)
(-1.3282e-06 5.10003e-06 0.130358)
(9.54364e-07 5.79309e-05 0.117729)
(-3.58226e-05 4.21531e-05 0.107943)
(-8.32548e-07 3.39071e-06 0.130354)
(-1.06816e-06 5.7452e-05 0.117729)
(-3.01541e-05 1.61891e-05 0.0957693)
(-1.52008e-05 2.40736e-05 0.0955575)
(-1.29347e-05 7.79648e-06 0.0701801)
(4.38097e-05 3.08874e-05 0.107674)
(1.37095e-06 -5.29447e-07 0.130209)
(5.90912e-05 -2.44428e-07 0.117542)
(3.95475e-05 -3.2201e-06 0.0816478)
(5.99393e-05 2.28366e-07 0.105578)
(1.77649e-06 5.02386e-07 0.130221)
(4.40097e-05 -3.03296e-05 0.107665)
(5.91026e-05 -1.23187e-07 0.11754)
(-3.91019e-05 4.70282e-06 0.0816481)
(-5.92133e-05 -1.74401e-07 0.105577)
(1.25564e-06 1.00571e-06 0.130223)
(-4.29493e-05 -3.11657e-05 0.107673)
(-5.76806e-05 -6.07729e-08 0.11754)
(-3.91645e-05 -4.04411e-06 0.0816335)
(-5.88207e-05 -6.55547e-08 0.105578)
(1.76548e-05 -2.44536e-05 0.0955258)
(2.92809e-05 -1.56244e-05 0.0958054)
(1.11125e-05 -1.49173e-05 0.0702998)
(7.59793e-07 -3.20296e-06 0.130329)
(-3.63855e-05 -4.16368e-05 0.107952)
(-4.50256e-07 -5.80529e-05 0.117732)
(8.21291e-06 -4.23125e-05 0.0819524)
(7.73702e-07 -6.28906e-05 0.106094)
(-8.11464e-06 -4.20378e-05 0.0819452)
(-3.52469e-07 -6.2625e-05 0.106094)
(-1.37329e-05 -7.14299e-06 0.0701641)
(-1.1122e-05 -1.50307e-05 0.0702821)
(-1.81019e-06 -1.7513e-05 0.0683742)
(-7.99379e-06 -3.99935e-05 0.0819959)
(6.49743e-06 4.62525e-05 0.0942196)
(-7.45047e-06 -4.64926e-05 0.0942256)
(1.70161e-06 1.82456e-05 0.0682755)
(-4.20717e-07 -1.91116e-05 0.0755317)
(-2.87692e-07 -6.09231e-05 0.106049)
(-6.21983e-07 1.88288e-05 0.0783956)
(2.86457e-06 5.95961e-05 0.103372)
(-1.89467e-07 -1.88595e-05 0.0784498)
(-2.90429e-06 -5.88109e-05 0.103332)
(-2.63875e-07 1.88589e-05 0.0754662)
(8.82737e-06 -1.35723e-05 0.0703368)
(1.42512e-05 -1.70923e-06 0.0751129)
(5.89974e-05 -3.10872e-07 0.105577)
(5.78976e-05 -1.18096e-07 0.102837)
(1.33982e-05 -7.41455e-07 0.077967)
(-1.44842e-05 2.41546e-06 0.0680918)
(-3.8257e-05 -3.56096e-06 0.0815418)
(4.42704e-05 3.33098e-06 0.0937334)
(-4.42435e-05 -1.794e-06 0.0935301)
(1.52267e-05 3.18956e-08 0.0681263)
(1.55463e-05 -7.23883e-07 0.0681242)
(4.04132e-05 4.15712e-06 0.0816403)
(4.44544e-05 2.6399e-06 0.0937324)
(-1.2718e-05 2.76282e-06 0.0749961)
(-5.6504e-05 5.41524e-07 0.105238)
(5.86602e-05 8.78352e-07 0.102839)
(1.43725e-05 -6.96927e-07 0.0779679)
(-5.47038e-05 9.77514e-07 0.102518)
(-1.21426e-05 5.23189e-07 0.0778319)
(1.51234e-05 -1.33743e-06 0.0751143)
(-1.31817e-05 6.10094e-06 0.0701362)
(1.64165e-05 -6.43566e-06 0.070174)
(7.32774e-05 1.93349e-05 0.104425)
(-7.4481e-05 -2.03089e-05 0.113751)
(1.70977e-05 2.255e-05 0.0953621)
(-1.64589e-05 -1.32151e-05 0.0808394)
(7.21621e-05 1.83328e-05 0.113452)
(1.84179e-05 1.24857e-05 0.0807693)
(-7.34974e-05 -1.85594e-05 0.104692)
(1.84665e-05 7.14276e-05 0.104485)
(-2.47e-05 -7.13641e-05 0.113806)
(2.72699e-05 1.53702e-05 0.0956889)
(-1.83158e-05 -1.48337e-05 0.0808478)
(1.81243e-05 7.11656e-05 0.113607)
(1.67409e-05 1.67387e-05 0.0808414)
(-2.06554e-05 -7.04815e-05 0.104702)
(1.91879e-05 1.63205e-05 0.0873969)
(-5.26283e-06 -1.27545e-05 0.0689496)
(-1.71174e-05 -2.68141e-06 0.0689841)
(8.34557e-06 1.28299e-05 0.0689158)
(1.59188e-05 6.28597e-06 0.0689683)
(-1.91902e-05 -1.49529e-05 0.0875883)
(-9.01098e-06 -1.41652e-05 0.0703307)
(-1.34458e-05 -5.9718e-06 0.0701256)
(1.54799e-05 7.16536e-06 0.0701689)
(-2.09012e-05 -7.02177e-05 0.104546)
(2.63886e-05 7.23946e-05 0.113837)
(-2.67854e-05 -1.49527e-05 0.0957254)
(1.79167e-05 1.61537e-05 0.0809571)
(-1.66869e-05 -1.57086e-05 0.080948)
(-1.91178e-05 -6.8561e-05 0.11364)
(2.42465e-05 7.12857e-05 0.104757)
(-7.2012e-05 -1.68615e-05 0.10436)
(7.62266e-05 1.86844e-05 0.113713)
(-1.59186e-05 -2.36307e-05 0.0953164)
(1.7452e-05 1.18393e-05 0.0807385)
(-1.62072e-05 -1.3525e-05 0.0806603)
(-7.14282e-05 -1.73793e-05 0.113408)
(7.5263e-05 1.52126e-05 0.104627)
(-1.78464e-05 -1.57174e-05 0.0873984)
(1.73384e-05 4.59255e-06 0.0689877)
(7.42822e-06 1.22257e-05 0.0689518)
(-1.57108e-05 -4.72513e-06 0.0689741)
(-5.73968e-06 -1.33968e-05 0.0689115)
(2.05717e-05 1.52246e-05 0.0875853)
(2.56931e-06 -1.72872e-05 0.0683763)
(7.67703e-06 -3.98421e-05 0.0820058)
(-6.36616e-06 4.68987e-05 0.0942238)
(7.38384e-06 -4.59573e-05 0.094236)
(-1.12704e-06 1.84203e-05 0.0682796)
(-1.71056e-07 -1.88576e-05 0.0755291)
(7.68107e-07 -6.14918e-05 0.106054)
(-5.1662e-07 1.94361e-05 0.0783977)
(-3.0448e-06 5.93187e-05 0.103376)
(-3.55901e-07 -1.86243e-05 0.0784538)
(2.64611e-06 -5.86714e-05 0.103338)
(-3.97779e-07 1.90409e-05 0.0754706)
(1.78255e-05 -7.08742e-05 0.1045)
(-2.63641e-05 7.22717e-05 0.113814)
(2.67969e-05 -1.48071e-05 0.0957063)
(-1.88627e-05 1.51615e-05 0.0808645)
(1.62502e-05 -1.64368e-05 0.0808338)
(1.73115e-05 -6.91764e-05 0.113628)
(-2.31957e-05 7.10172e-05 0.104695)
(7.31259e-05 -1.8808e-05 0.104423)
(-7.31159e-05 1.90649e-05 0.11374)
(1.69883e-05 -2.31033e-05 0.0953532)
(-1.57487e-05 1.20683e-05 0.0808402)
(7.33491e-05 -1.84303e-05 0.11343)
(1.85085e-05 -1.31365e-05 0.0807929)
(-7.34605e-05 1.71788e-05 0.104707)
(1.77265e-05 -1.78806e-05 0.0874097)
(-1.71803e-05 2.22217e-06 0.0689959)
(-5.93019e-06 1.23615e-05 0.0689535)
(1.43119e-05 -6.45837e-06 0.0689653)
(7.39636e-06 -1.42894e-05 0.0689361)
(-2.00124e-05 1.42472e-05 0.0875982)
(1.36341e-05 -4.68396e-06 0.0701361)
(1.38488e-05 2.50861e-06 0.0751187)
(5.87819e-05 7.21008e-07 0.105575)
(1.3498e-05 7.62633e-07 0.0779689)
(5.6838e-05 7.97744e-07 0.102837)
(-1.42326e-05 -1.1055e-06 0.0680988)
(-3.76249e-05 3.89133e-06 0.0815483)
(4.44298e-05 -2.53088e-06 0.093733)
(-4.3278e-05 2.67532e-06 0.0935286)
(1.52961e-05 1.09358e-06 0.0681334)
(1.57308e-05 2.16753e-06 0.0681312)
(4.0609e-05 -3.30525e-06 0.0816471)
(4.44986e-05 -1.24947e-06 0.0937318)
(-1.30174e-05 -1.89701e-06 0.0750013)
(-5.66414e-05 2.12259e-08 0.105237)
(1.43491e-05 8.83124e-07 0.077971)
(5.72833e-05 -3.73667e-07 0.102838)
(-1.20614e-05 -3.98819e-07 0.0778342)
(-5.55077e-05 -3.70679e-07 0.102518)
(1.48435e-05 1.969e-06 0.0751212)
(1.3848e-05 1.88593e-06 0.0680996)
(3.79776e-05 -2.02443e-06 0.0815564)
(-4.36574e-05 3.32712e-06 0.0937353)
(4.40247e-05 -1.8208e-06 0.0935429)
(-1.42863e-05 -1.0485e-07 0.0681315)
(1.25418e-05 3.14715e-06 0.0750041)
(5.75211e-05 2.6599e-07 0.105241)
(-5.79076e-05 7.33317e-07 0.102838)
(-1.33903e-05 -4.47956e-07 0.0779774)
(5.47639e-05 7.38396e-07 0.102526)
(1.22259e-05 1.11528e-06 0.0778452)
(-1.40581e-05 -1.01203e-06 0.0751231)
(1.40214e-05 -9.67499e-07 0.0680858)
(3.83429e-05 2.583e-06 0.0815398)
(-4.42826e-05 -2.47694e-06 0.0937248)
(4.39588e-05 2.56148e-06 0.0935276)
(-1.42736e-05 1.27425e-06 0.06812)
(1.32397e-05 -2.66629e-06 0.0749915)
(5.76775e-05 -5.57172e-07 0.105241)
(-1.35894e-05 2.68067e-07 0.0779705)
(-5.67484e-05 -3.44629e-07 0.102836)
(1.22939e-05 -1.32612e-06 0.0778377)
(5.59991e-05 -5.13949e-07 0.102519)
(-1.34935e-05 1.53409e-06 0.0751135)
(-7.16467e-05 1.783e-05 0.104383)
(7.74709e-05 -2.04732e-05 0.113722)
(-1.57794e-05 2.24787e-05 0.0953369)
(1.80355e-05 -1.22309e-05 0.0807515)
(-1.65769e-05 1.36764e-05 0.0806634)
(-6.95387e-05 1.59604e-05 0.113433)
(7.5736e-05 -1.63335e-05 0.104627)
(-1.96579e-05 7.0215e-05 0.104539)
(2.45105e-05 -7.11506e-05 0.113823)
(-2.78332e-05 1.46407e-05 0.0957181)
(1.79779e-05 -1.54866e-05 0.0809684)
(-2.03124e-05 7.01244e-05 0.113612)
(-1.61502e-05 1.54321e-05 0.0809733)
(2.29865e-05 -7.06863e-05 0.104767)
(-1.96309e-05 1.44726e-05 0.0874181)
(7.7452e-06 -1.24116e-05 0.0689595)
(1.75408e-05 -3.81396e-06 0.0690086)
(-6.53227e-06 1.2262e-05 0.0689151)
(-1.64786e-05 4.60157e-06 0.0690033)
(1.98372e-05 -1.58432e-05 0.0876022)
(-9.26129e-06 1.39374e-05 0.070338)
(-2.10886e-06 1.75648e-05 0.0683633)
(-8.08448e-06 3.97018e-05 0.0820024)
(6.64004e-06 -4.67675e-05 0.0942153)
(-7.33657e-06 4.63834e-05 0.0942268)
(1.79912e-06 -1.83848e-05 0.0682654)
(3.48597e-07 1.83251e-05 0.0755142)
(-6.54651e-07 6.1041e-05 0.106049)
(3.43134e-06 -6.16533e-05 0.103366)
(1.8869e-07 -1.97852e-05 0.0783822)
(-2.51728e-06 5.77249e-05 0.103329)
(3.74361e-07 1.85279e-05 0.0784417)
(7.04148e-07 -1.97501e-05 0.0754534)
(2.06339e-06 1.78084e-05 0.0683652)
(7.98266e-06 4.0497e-05 0.0819955)
(-6.85945e-06 -4.68942e-05 0.0942172)
(7.03821e-06 4.66897e-05 0.0942267)
(-1.88767e-06 -1.82312e-05 0.0682685)
(-1.26132e-07 1.83812e-05 0.0755177)
(8.49727e-07 6.09275e-05 0.106051)
(-3.59873e-06 -6.14748e-05 0.103367)
(4.30767e-07 -1.97728e-05 0.0783845)
(2.38682e-06 5.79039e-05 0.103331)
(2.32123e-08 1.8191e-05 0.0784458)
(-4.53437e-07 -1.97449e-05 0.0754572)
(1.35399e-05 4.74626e-06 0.0701222)
(9.03335e-06 1.45485e-05 0.0703259)
(-1.80104e-06 1.13557e-06 0.133991)
(1.17381e-06 1.29293e-06 0.133896)
(-2.39832e-06 5.48756e-07 0.135226)
(6.89219e-05 6.97473e-05 0.115128)
(-6.16326e-05 -0.000208036 0.120803)
(-0.000204459 -5.78094e-05 0.120796)
(0.000205171 0.000209403 0.124678)
(5.88246e-05 0.000206225 0.12062)
(0.000199739 5.85169e-05 0.120653)
(-6.95075e-05 -6.72824e-05 0.115323)
(-7.08911e-05 -6.71012e-05 0.11513)
(0.000209877 5.98752e-05 0.120824)
(6.23073e-05 0.000204481 0.120775)
(-0.000204947 -0.000206995 0.124684)
(-0.00020216 -5.6422e-05 0.120685)
(-5.79178e-05 -0.00020138 0.12059)
(7.31645e-05 6.5801e-05 0.115325)
(6.96818e-05 -6.6749e-05 0.115135)
(-0.000208485 5.94741e-05 0.120823)
(-6.04836e-05 0.000204302 0.120775)
(0.000205034 -0.000207582 0.124678)
(5.94134e-05 -0.000203335 0.120587)
(0.000200351 -5.65434e-05 0.120687)
(-7.2139e-05 6.58117e-05 0.115327)
(-6.72442e-05 6.97457e-05 0.115129)
(6.37139e-05 -0.000207553 0.120796)
(0.000205454 -5.85142e-05 0.120788)
(-0.000203454 0.000207183 0.124674)
(-0.000200019 5.76126e-05 0.120645)
(-5.62197e-05 0.000202511 0.120619)
(7.12542e-05 -6.71299e-05 0.11532)
(-1.21993e-06 7.71592e-07 0.133986)
(-1.39e-06 5.61828e-07 0.133891)
(-5.94524e-07 3.26443e-07 0.135224)
(7.60345e-07 -1.1871e-06 0.133917)
(-2.49085e-06 -3.54103e-06 0.133964)
(-2.93016e-06 -1.17136e-06 0.135226)
(-7.13075e-07 -1.33201e-06 0.133918)
(-1.19192e-06 -2.48371e-06 0.133966)
(-7.56907e-07 -1.45261e-06 0.135225)
(0.000250527 -5.73084e-06 0.121108)
(-0.000245532 1.147e-05 0.118656)
(4.03417e-05 -3.2157e-05 0.107422)
(-5.35659e-05 9.36342e-06 0.113512)
(0.000240164 -1.29156e-05 0.118404)
(5.1203e-05 -9.97177e-06 0.113217)
(-0.000246674 2.74032e-06 0.12131)
(0.000238163 -3.26548e-06 0.122402)
(5.38878e-05 -9.44545e-07 0.117202)
(-5.9777e-05 2.3884e-06 0.116404)
(-0.000234344 -1.12264e-06 0.123201)
(5.44451e-05 -2.59655e-06 0.116082)
(0.000232879 -5.95057e-07 0.122932)
(-0.000243851 -1.7445e-07 0.122631)
(-2.80756e-06 0.000243208 0.121361)
(1.48692e-05 -0.000241484 0.118748)
(-3.65053e-05 3.8001e-05 0.107886)
(1.40273e-05 -5.28907e-05 0.113759)
(-1.0387e-05 0.000233413 0.118639)
(-1.28271e-05 5.08498e-05 0.113694)
(5.02981e-06 -0.000240835 0.121394)
(2.77935e-07 0.000229819 0.12268)
(-1.58639e-06 5.4201e-05 0.117665)
(-8.07977e-07 -0.000227403 0.123251)
(5.78692e-06 -5.94331e-05 0.116629)
(-4.79136e-07 0.000224741 0.123222)
(-3.75607e-06 5.43878e-05 0.116565)
(2.40577e-07 -0.000237345 0.122695)
(-2.45132e-06 -0.000238319 0.121353)
(1.5208e-05 0.000241529 0.118743)
(-3.51471e-05 -3.72403e-05 0.107882)
(1.29678e-05 5.39164e-05 0.113754)
(-1.32925e-05 -5.01789e-05 0.113689)
(-9.85646e-06 -0.000229956 0.118639)
(5.20102e-06 0.000241145 0.121377)
(1.16057e-06 -0.000230386 0.122675)
(-9.0657e-07 -5.37433e-05 0.117662)
(5.10028e-06 5.83332e-05 0.116624)
(-5.56426e-07 0.000225783 0.123242)
(-4.133e-06 -5.50224e-05 0.116561)
(3.27474e-07 -0.000222756 0.123216)
(7.03365e-07 0.000233068 0.122686)
(1.5213e-06 -0.000239115 0.121353)
(-1.48899e-05 0.000239751 0.11874)
(3.51389e-05 -3.82581e-05 0.107883)
(-1.2732e-05 5.3562e-05 0.113753)
(1.32371e-05 -5.05161e-05 0.11369)
(8.99991e-06 -0.000230924 0.118637)
(-5.22294e-06 0.000239124 0.121374)
(-7.71573e-07 -0.000231463 0.122676)
(9.08832e-07 -5.42659e-05 0.117662)
(-4.93027e-06 5.79225e-05 0.116626)
(-8.91902e-08 0.000224561 0.123243)
(4.42043e-06 -5.54996e-05 0.116562)
(-6.01099e-07 -0.00022375 0.123214)
(-5.74272e-07 0.000231296 0.122684)
(-0.000249361 -5.12754e-06 0.12111)
(0.000248211 1.13991e-05 0.118655)
(-3.91706e-05 -3.23603e-05 0.107414)
(5.45955e-05 9.53277e-06 0.113513)
(-5.06214e-05 -9.75992e-06 0.113215)
(-0.000237815 -1.23718e-05 0.118405)
(0.000249186 3.0199e-06 0.121315)
(-0.000236443 -1.83673e-06 0.122403)
(-5.2021e-05 -3.23218e-07 0.117205)
(6.05769e-05 2.84174e-06 0.116407)
(0.000236188 -4.00573e-07 0.123203)
(-5.38879e-05 -2.11119e-06 0.116083)
(-0.000231072 5.28671e-07 0.122936)
(0.000246399 6.37519e-07 0.122636)
(-0.000244582 4.97471e-06 0.121097)
(0.000247326 -1.13702e-05 0.11864)
(-3.89346e-05 3.14071e-05 0.107408)
(5.51555e-05 -8.26714e-06 0.113502)
(-5.05363e-05 1.09463e-05 0.113206)
(-0.000234082 1.16899e-05 0.118394)
(0.000248667 -2.66231e-06 0.121296)
(-0.000238559 2.10929e-06 0.122398)
(-5.19614e-05 9.7301e-07 0.117202)
(0.000235642 9.53304e-07 0.1232)
(5.99516e-05 -2.573e-06 0.116402)
(-0.000230067 -4.56699e-08 0.122933)
(-5.47547e-05 3.06702e-06 0.116078)
(0.000241917 -3.56023e-07 0.122628)
(0.000247886 4.95711e-06 0.121103)
(-0.000245974 -1.17604e-05 0.118651)
(4.03439e-05 3.15918e-05 0.107417)
(-5.39056e-05 -8.44961e-06 0.113508)
(0.000237925 1.24355e-05 0.118402)
(5.21192e-05 1.07766e-05 0.113213)
(-0.000247648 -3.05462e-06 0.121299)
(0.000241421 2.59927e-06 0.122402)
(5.41828e-05 3.41628e-07 0.117203)
(-0.000233901 1.13255e-06 0.123199)
(-5.87178e-05 -2.2926e-06 0.116405)
(0.000232472 1.83517e-07 0.12293)
(5.60769e-05 2.6215e-06 0.116083)
(-0.000240427 -7.28452e-08 0.122628)
(1.88694e-06 0.000244433 0.121367)
(-1.44321e-05 -0.000240433 0.118754)
(3.58519e-05 3.9081e-05 0.107887)
(-1.37418e-05 -5.22261e-05 0.113762)
(9.55247e-06 0.000234981 0.118647)
(1.24957e-05 5.15544e-05 0.113697)
(-5.00323e-06 -0.000239666 0.121396)
(-6.00825e-07 0.000230031 0.122683)
(1.45964e-06 5.41018e-05 0.117665)
(4.77647e-07 -0.000227102 0.123251)
(-5.52203e-06 -5.92014e-05 0.116629)
(-1.80363e-07 0.000225041 0.123221)
(3.76221e-06 5.46424e-05 0.116566)
(-3.15034e-07 -0.00023694 0.122696)
(4.72499e-06 1.12444e-05 0.0482774)
(3.5425e-06 5.53177e-06 0.0327691)
(2.32058e-06 2.31492e-06 0.0204208)
(1.30658e-06 7.48668e-07 0.0107613)
(3.97677e-07 6.37676e-08 0.00326807)
(-6.54109e-06 6.79377e-06 0.0499393)
(-4.07961e-06 3.2191e-06 0.0341384)
(-2.40437e-06 1.17918e-06 0.0214241)
(-1.24064e-06 1.8145e-07 0.011366)
(-3.74511e-07 1.47184e-08 0.00347733)
(1.03014e-05 2.13943e-06 0.0483537)
(5.05298e-06 1.69952e-06 0.0328172)
(2.06586e-06 1.07883e-06 0.0204489)
(4.01531e-07 5.16078e-07 0.0107753)
(1.28769e-07 1.8462e-07 0.00327207)
(6.51977e-06 -3.22126e-06 0.0500014)
(3.4966e-06 -1.5861e-06 0.0341794)
(1.65157e-06 -6.37287e-07 0.0214495)
(6.36326e-07 -1.81336e-07 0.0113795)
(1.41427e-07 -2.83439e-08 0.00348139)
(6.76706e-06 6.17832e-06 0.0499381)
(4.1825e-06 2.8863e-06 0.034138)
(2.37761e-06 1.01192e-06 0.0214243)
(1.1325e-06 1.21226e-07 0.011367)
(3.6744e-07 -1.29314e-08 0.00347794)
(5.89894e-06 3.77209e-06 0.0499973)
(3.05767e-06 2.11852e-06 0.0341763)
(1.42687e-06 1.10777e-06 0.0214471)
(6.43574e-07 5.65534e-07 0.0113779)
(8.78441e-08 1.11112e-07 0.00348087)
(-4.17768e-06 1.15917e-05 0.0482812)
(-2.97886e-06 5.71137e-06 0.0327711)
(-1.8626e-06 2.37638e-06 0.0204215)
(-9.75577e-07 6.51497e-07 0.0107611)
(-3.1896e-07 1.02658e-07 0.00326792)
(-5.24601e-06 4.55853e-06 0.0500045)
(-2.65986e-06 2.7444e-06 0.0341818)
(-1.18804e-06 1.52685e-06 0.0214512)
(-4.61588e-07 7.34228e-07 0.0113806)
(-5.97248e-08 2.11397e-07 0.003482)
(1.04182e-05 -1.50673e-06 0.0483622)
(5.29473e-06 -1.14428e-06 0.0328235)
(2.37671e-06 -6.83287e-07 0.0204531)
(8.38252e-07 -3.69678e-07 0.0107773)
(1.50572e-07 -6.87645e-08 0.00327255)
(-9.76666e-06 2.71074e-06 0.0483599)
(-4.82413e-06 2.18939e-06 0.0328225)
(-2.04396e-06 1.43978e-06 0.0204531)
(-5.75538e-07 7.72079e-07 0.0107778)
(-9.49192e-08 2.40084e-07 0.003273)
(-9.90648e-06 -1.99765e-06 0.0483513)
(-5.01064e-06 -1.57492e-06 0.0328162)
(-2.24541e-06 -9.83502e-07 0.0204492)
(-7.61596e-07 -4.76116e-07 0.010776)
(-1.39996e-07 -1.81119e-07 0.00327254)
(6.7916e-06 -6.13914e-06 0.0499458)
(4.18755e-06 -2.845e-06 0.0341431)
(2.44682e-06 -1.0264e-06 0.0214275)
(1.24276e-06 -1.67631e-07 0.0113681)
(3.78287e-07 1.08801e-08 0.00347814)
(4.37195e-06 -1.13962e-05 0.048279)
(3.1992e-06 -5.5675e-06 0.0327702)
(2.07072e-06 -2.30943e-06 0.0204212)
(1.12363e-06 -6.47179e-07 0.0107612)
(3.75796e-07 -8.65637e-08 0.00326798)
(-4.40016e-06 -1.11648e-05 0.0482737)
(-3.15047e-06 -5.35421e-06 0.0327662)
(-1.94252e-06 -2.07769e-06 0.0204188)
(-9.15971e-07 -2.56579e-07 0.0107598)
(-3.58987e-07 -1.05356e-07 0.00326741)
(-5.75441e-06 -3.96878e-06 0.0499914)
(-2.94024e-06 -2.25868e-06 0.0341722)
(-1.27843e-06 -1.17665e-06 0.0214451)
(-3.50688e-07 -5.0034e-07 0.0113773)
(-9.93078e-08 -1.48697e-07 0.00348077)
(-6.96871e-06 -6.24783e-06 0.0499326)
(-4.38541e-06 -2.95903e-06 0.0341341)
(-2.60713e-06 -1.14406e-06 0.0214218)
(-1.39294e-06 -3.39577e-07 0.0113649)
(-3.92147e-07 5.68794e-09 0.00347695)
(-4.85243e-07 -1.15574e-05 0.0500256)
(1.0902e-07 -6.01907e-06 0.0342095)
(3.34591e-07 -2.66192e-06 0.0214711)
(3.13246e-07 -8.42829e-07 0.0113912)
(1.32919e-07 -2.32315e-07 0.00348511)
(-4.47533e-06 -9.32972e-06 0.0483618)
(-3.38752e-06 -4.20698e-06 0.0328314)
(-2.32827e-06 -1.59715e-06 0.0204593)
(-1.36481e-06 -3.62764e-07 0.010781)
(-4.33363e-07 -1.66704e-08 0.00327397)
(5.49679e-06 -5.0623e-06 0.0500011)
(3.44647e-06 -2.18318e-06 0.0341854)
(2.08049e-06 -6.97489e-07 0.0214538)
(1.07776e-06 -1.26919e-08 0.0113814)
(3.57005e-07 2.19821e-08 0.00348193)
(7.04048e-06 -2.16415e-06 0.0486757)
(3.77138e-06 -1.98005e-06 0.0331548)
(1.83097e-06 -1.60889e-06 0.0207246)
(7.35552e-07 -1.08619e-06 0.0109517)
(1.84407e-07 -3.46598e-07 0.00333603)
(6.13323e-06 -8.07404e-07 0.0490954)
(3.19906e-06 -7.16048e-07 0.0334884)
(1.51956e-06 -5.58535e-07 0.0209691)
(6.37138e-07 -3.59505e-07 0.011101)
(1.18544e-07 -1.093e-07 0.00338866)
(-9.92363e-06 3.209e-06 0.050032)
(-5.48698e-06 2.90161e-06 0.0342169)
(-2.72286e-06 2.25087e-06 0.0214763)
(-1.20158e-06 1.38197e-06 0.0113939)
(-2.72017e-07 5.08342e-07 0.00348588)
(-9.16005e-06 -1.21932e-06 0.0483781)
(-4.43339e-06 -8.94938e-07 0.0328457)
(-1.92299e-06 -5.54013e-07 0.0204686)
(-5.97081e-07 -2.65861e-07 0.0107857)
(-1.15308e-07 -1.08471e-07 0.0032753)
(1.06572e-05 2.14316e-06 0.0483515)
(5.23497e-06 1.53409e-06 0.032815)
(2.31198e-06 9.22476e-07 0.0204474)
(7.42486e-07 4.38559e-07 0.0107743)
(1.37589e-07 1.47073e-07 0.00327191)
(-5.08273e-06 3.24062e-06 0.0500188)
(-2.3698e-06 1.85622e-06 0.0342005)
(-9.65936e-07 9.96817e-07 0.0214644)
(-2.90538e-07 4.52639e-07 0.0113875)
(-5.24037e-08 1.34904e-07 0.00348387)
(7.38427e-06 -3.17093e-06 0.0499993)
(3.80383e-06 -1.53639e-06 0.0341771)
(1.77364e-06 -6.66637e-07 0.0214478)
(6.68401e-07 -2.13784e-07 0.0113784)
(1.30289e-07 -6.26473e-08 0.00348116)
(-8.29146e-06 -5.30112e-06 0.0485569)
(-4.48075e-06 -2.50928e-06 0.0329606)
(-2.15446e-06 -9.44923e-07 0.0205424)
(-9.29216e-07 -2.40283e-07 0.0108267)
(-1.91336e-07 -1.44032e-08 0.00328862)
(8.59687e-06 4.3e-06 0.0485839)
(4.59377e-06 1.53009e-06 0.0329881)
(2.31633e-06 2.24491e-07 0.0205606)
(1.07802e-06 -1.74822e-07 0.0108361)
(2.57629e-07 -1.31938e-07 0.00329142)
(-8.63249e-06 -7.47473e-06 0.0485149)
(-4.82728e-06 -3.53348e-06 0.0329332)
(-2.43215e-06 -1.20821e-06 0.0205257)
(-9.58052e-07 -3.2052e-08 0.0108181)
(-3.00923e-07 -4.38544e-08 0.00328601)
(7.36398e-06 7.41102e-06 0.0485718)
(3.80385e-06 3.3899e-06 0.0329791)
(1.74518e-06 1.23915e-06 0.0205549)
(5.62619e-07 1.66734e-07 0.0108332)
(2.01045e-07 5.33073e-08 0.00329057)
(-3.40793e-06 -6.55027e-06 0.0500039)
(-1.78469e-06 -3.56356e-06 0.0341413)
(-6.44631e-07 -1.80033e-06 0.021398)
(8.23587e-09 -7.07636e-07 0.0113378)
(-1.38958e-08 -2.3766e-07 0.00346392)
(-9.71345e-06 -1.35018e-06 0.0499947)
(-5.93612e-06 -1.43004e-07 0.0341356)
(-3.52253e-06 5.38187e-07 0.0213947)
(-1.88918e-06 6.06549e-07 0.011336)
(-5.34838e-07 2.62479e-07 0.00346337)
(4.43484e-06 6.74308e-06 0.0500249)
(2.13708e-06 3.49811e-06 0.0341658)
(8.11304e-07 1.66688e-06 0.0214152)
(1.18679e-07 6.28298e-07 0.0113471)
(3.35294e-08 1.89197e-07 0.00346679)
(9.06705e-06 2.8096e-06 0.0500246)
(5.2351e-06 8.40708e-07 0.0341643)
(2.91417e-06 -1.14431e-07 0.0214139)
(1.46835e-06 -3.53303e-07 0.0113462)
(4.16953e-07 -1.82796e-07 0.00346645)
(-5.27884e-06 -5.44163e-06 0.0499985)
(-3.20656e-06 -2.40898e-06 0.0341844)
(-1.86946e-06 -8.38449e-07 0.0214537)
(-9.67105e-07 -1.17214e-07 0.0113823)
(-2.76179e-07 -1.02045e-08 0.00348261)
(-5.50378e-06 -2.76776e-06 0.0500112)
(-2.78571e-06 -1.30946e-06 0.0341953)
(-1.28661e-06 -5.50879e-07 0.0214608)
(-5.10479e-07 -1.92954e-07 0.0113853)
(-1.07905e-07 -3.38625e-08 0.00348314)
(6.57244e-06 3.74548e-06 0.0499945)
(3.29245e-06 1.96072e-06 0.0341736)
(1.51032e-06 9.34792e-07 0.0214453)
(5.72607e-07 3.64782e-07 0.0113768)
(1.05366e-07 9.38845e-08 0.00348061)
(4.54979e-06 -9.21763e-06 0.0483644)
(3.4745e-06 -4.11517e-06 0.0328326)
(2.3153e-06 -1.55562e-06 0.0204593)
(1.24991e-06 -3.68827e-07 0.0107804)
(4.49601e-07 7.39617e-09 0.00327364)
(-8.78448e-06 5.13111e-06 0.0485609)
(-4.75561e-06 2.29841e-06 0.0329641)
(-2.23306e-06 7.50433e-07 0.020545)
(-7.55361e-07 3.0434e-08 0.0108283)
(-2.5995e-07 -1.47829e-08 0.00328909)
(9.88371e-06 -5.66308e-06 0.0485953)
(5.10059e-06 -2.20905e-06 0.0329951)
(2.38059e-06 -4.31441e-07 0.0205653)
(8.95827e-07 2.17988e-07 0.0108387)
(2.90147e-07 1.45108e-07 0.00329222)
(-4.37076e-06 5.92427e-06 0.0500091)
(-2.5715e-06 3.05221e-06 0.0341459)
(-1.17097e-06 1.50074e-06 0.0214016)
(-3.87099e-07 6.99572e-07 0.0113398)
(-5.92999e-08 1.50926e-07 0.00346453)
(4.74096e-06 -8.10395e-06 0.0500376)
(2.12716e-06 -4.30429e-06 0.0341728)
(6.94195e-07 -2.20473e-06 0.0214194)
(9.33167e-08 -1.02866e-06 0.0113491)
(-6.71524e-08 -2.57632e-07 0.00346733)
(5.79746e-06 -1.7099e-06 0.0500174)
(3.08801e-06 -4.12159e-07 0.0341999)
(1.58785e-06 1.57935e-07 0.021464)
(7.33303e-07 2.64737e-07 0.0113874)
(1.92263e-07 1.30034e-07 0.00348405)
(6.83516e-06 2.79237e-06 0.0486811)
(3.69633e-06 2.46219e-06 0.0331584)
(1.85153e-06 1.90993e-06 0.020727)
(8.51633e-07 1.21088e-06 0.010953)
(1.78316e-07 4.0636e-07 0.00333645)
(6.09176e-06 7.33959e-07 0.0490968)
(3.15105e-06 6.08108e-07 0.0334891)
(1.45264e-06 4.49087e-07 0.0209694)
(5.15028e-07 2.83716e-07 0.0111011)
(1.29338e-07 8.07374e-08 0.00338867)
(-9.62922e-06 -2.02056e-06 0.0500383)
(-5.17576e-06 -1.93149e-06 0.0342212)
(-2.43079e-06 -1.56742e-06 0.0214791)
(-9.00594e-07 -1.03352e-06 0.0113953)
(-2.4191e-07 -3.48857e-07 0.00348612)
(-8.8409e-06 1.91471e-06 0.0483867)
(-4.14711e-06 1.58813e-06 0.0328517)
(-1.72636e-06 1.11746e-06 0.0204724)
(-5.19543e-07 6.37173e-07 0.0107875)
(-6.62025e-08 2.26054e-07 0.00327563)
(1.12364e-05 -1.15078e-06 0.0483602)
(5.71244e-06 -6.68088e-07 0.0328211)
(2.63679e-06 -2.75583e-07 0.0204513)
(9.50591e-07 -5.33438e-08 0.0107762)
(1.75096e-07 -1.97857e-08 0.00327229)
(8.77522e-06 -3.13939e-07 0.0483841)
(4.24104e-06 -2.31124e-07 0.0328495)
(1.91173e-06 -1.18412e-07 0.0204712)
(6.61584e-07 -5.00375e-08 0.0107871)
(1.42458e-07 -1.18198e-08 0.00327577)
(9.45711e-06 -2.27742e-06 0.0500273)
(5.06462e-06 -2.29567e-06 0.0342139)
(2.466e-06 -1.87663e-06 0.0214747)
(1.0479e-06 -1.19625e-06 0.0113932)
(2.44725e-07 -4.56597e-07 0.00348571)
(8.71058e-06 7.39705e-07 0.0483748)
(4.20557e-06 5.80782e-07 0.0328429)
(1.89313e-06 3.34172e-07 0.0204673)
(6.96573e-07 1.46675e-07 0.0107854)
(1.26424e-07 5.07119e-08 0.00327535)
(8.22945e-06 -8.59295e-06 0.0485328)
(4.24291e-06 -4.27942e-06 0.0329455)
(1.99378e-06 -1.77114e-06 0.0205337)
(8.12595e-07 -5.40338e-07 0.0108228)
(1.86095e-07 -1.00191e-07 0.00328771)
(-7.57269e-06 7.66412e-06 0.0485936)
(-3.98901e-06 3.67064e-06 0.0329931)
(-1.83633e-06 1.4789e-06 0.0205636)
(-6.81803e-07 4.4697e-07 0.0108382)
(-1.56537e-07 9.07579e-08 0.0032923)
(9.82361e-06 -2.07207e-06 0.0500082)
(5.67363e-06 -6.83681e-07 0.0341431)
(3.10755e-06 1.39645e-07 0.0213989)
(1.49485e-06 3.97454e-07 0.0113385)
(4.39943e-07 1.67329e-07 0.00346428)
(-5.37056e-06 5.5492e-06 0.0500035)
(-3.11598e-06 2.55765e-06 0.0341877)
(-1.70083e-06 9.93163e-07 0.0214556)
(-8.09613e-07 2.48542e-07 0.0113827)
(-2.27323e-07 3.6176e-08 0.00348254)
(-4.98656e-07 1.1681e-05 0.0500167)
(2.15341e-07 6.05158e-06 0.0342034)
(4.69074e-07 2.73429e-06 0.0214672)
(4.0464e-07 9.56395e-07 0.0113889)
(1.95191e-07 2.27998e-07 0.00348436)
(-4.65011e-06 9.42965e-06 0.0483627)
(-3.42981e-06 4.27212e-06 0.0328318)
(-2.26647e-06 1.64481e-06 0.0204592)
(-1.28255e-06 4.01586e-07 0.0107806)
(-3.88555e-07 3.0837e-08 0.00327372)
(5.40893e-07 1.1796e-05 0.0500177)
(-9.97438e-08 6.1517e-06 0.0342043)
(-3.00565e-07 2.88481e-06 0.0214677)
(-2.04514e-07 1.2713e-06 0.0113891)
(-1.61892e-07 2.2982e-07 0.0034843)
(4.5872e-06 9.50638e-06 0.0483585)
(3.45361e-06 4.2108e-06 0.0328293)
(2.30292e-06 1.53343e-06 0.0204579)
(1.25623e-06 2.40409e-07 0.0107798)
(4.26237e-07 1.19273e-08 0.00327341)
(5.60266e-06 1.93397e-06 0.0500062)
(2.9517e-06 6.6126e-07 0.0341918)
(1.45262e-06 7.8779e-08 0.0214589)
(5.91664e-07 -9.60023e-08 0.0113846)
(1.67533e-07 -6.65901e-08 0.00348301)
(5.46993e-06 5.61813e-06 0.0499928)
(3.37168e-06 2.4689e-06 0.0341799)
(1.96728e-06 8.86293e-07 0.0214504)
(1.00725e-06 2.38065e-07 0.0113797)
(3.12807e-07 -2.48778e-08 0.00348136)
(9.23274e-07 -1.1447e-05 0.050027)
(2.08083e-07 -5.85862e-06 0.0342113)
(-9.28971e-08 -2.62952e-06 0.0214722)
(-1.35653e-07 -9.75898e-07 0.0113914)
(-9.90613e-08 -2.05092e-07 0.0034851)
(9.53269e-06 3.13781e-06 0.0500379)
(5.12846e-06 2.9178e-06 0.0342217)
(2.4967e-06 2.28425e-06 0.0214797)
(1.03346e-06 1.44894e-06 0.0113957)
(2.84317e-07 4.96385e-07 0.00348635)
(8.45071e-07 -9.69749e-06 0.0486834)
(1.02318e-06 -5.04922e-06 0.0331678)
(9.07626e-07 -2.31742e-06 0.020734)
(5.97502e-07 -9.02485e-07 0.0109566)
(2.47051e-07 -1.9979e-07 0.00333725)
(-6.5424e-07 9.44274e-06 0.0490278)
(-6.08928e-07 4.93325e-06 0.033446)
(-4.68954e-07 2.13769e-06 0.0209439)
(-2.88819e-07 5.41191e-07 0.0110878)
(-9.06678e-08 2.07464e-07 0.00338439)
(2.16822e-07 -8.84828e-06 0.0491004)
(3.25305e-07 -4.37834e-06 0.0334994)
(3.27285e-07 -1.91099e-06 0.0209772)
(2.45811e-07 -6.13964e-07 0.0111051)
(7.99384e-08 -1.70968e-07 0.00338964)
(-1.07703e-06 1.04114e-05 0.0486065)
(-1.20711e-06 5.49653e-06 0.0331111)
(-1.03344e-06 2.58087e-06 0.0206989)
(-6.48906e-07 1.03623e-06 0.0109385)
(-2.71939e-07 2.09918e-07 0.00333183)
(4.10732e-07 1.23022e-05 0.049927)
(-2.78218e-07 6.54165e-06 0.0341377)
(-5.42813e-07 3.00549e-06 0.0214264)
(-4.78074e-07 1.05256e-06 0.0113681)
(-2.05732e-07 2.62885e-07 0.00347811)
(-8.5058e-06 7.35093e-06 0.0485288)
(-4.83742e-06 3.5573e-06 0.0329427)
(-2.49736e-06 1.31894e-06 0.020532)
(-1.13413e-06 3.59339e-07 0.0108218)
(-3.05681e-07 -1.2274e-08 0.00328729)
(6.17364e-06 -5.58032e-06 0.0485756)
(3.38322e-06 -2.59404e-06 0.0329831)
(1.79689e-06 -1.01539e-06 0.0205579)
(8.76437e-07 -2.96372e-07 0.0108352)
(2.12475e-07 -7.60211e-09 0.00329128)
(-1.00472e-05 8.04955e-07 0.0500015)
(-6.24122e-06 -3.00397e-07 0.0341393)
(-3.65318e-06 -8.3207e-07 0.021397)
(-1.80274e-06 -8.08958e-07 0.0113377)
(-6.03959e-07 -2.92873e-07 0.00346412)
(7.72354e-06 -2.07306e-06 0.0500241)
(4.51266e-06 -6.16078e-07 0.0341654)
(2.45076e-06 1.08624e-07 0.0214154)
(1.15837e-06 3.23645e-07 0.0113476)
(3.40844e-07 1.10266e-07 0.00346715)
(1.0243e-05 -1.15409e-06 0.0500094)
(5.59543e-06 -1.38295e-06 0.0341904)
(2.75033e-06 -1.25546e-06 0.0214579)
(1.20703e-06 -8.52799e-07 0.011384)
(2.48523e-07 -3.46881e-07 0.00348291)
(-6.53814e-06 3.10491e-06 0.0486662)
(-3.48524e-06 2.71187e-06 0.0331609)
(-1.62345e-06 2.06038e-06 0.020731)
(-5.81099e-07 1.26477e-06 0.0109554)
(-1.86458e-07 4.53054e-07 0.00333714)
(7.37696e-06 -6.68077e-07 0.0490964)
(3.90251e-06 -6.42047e-07 0.0334892)
(1.86752e-06 -5.29581e-07 0.0209695)
(9.05669e-07 -3.44739e-07 0.0111011)