/*--------------------------------*- C++ -*----------------------------------*\
| =========                 |                                                 |
| \\      /  F ield         | OpenFOAM: The Open Source CFD Toolbox           |
|  \\    /   O peration     | Version:  2206                                  |
|   \\  /    A nd           | Website:  www.openfoam.com                      |
|    \\/     M anipulation  |                                                 |
\*---------------------------------------------------------------------------*/
FoamFile
{
    version     2.0;
    format      ascii;
    arch        "LSB;label=32;scalar=64";
    class       volVectorField;
    location    "50";
    object      wallShearStress;
}
// * * * * * * * * * * * * * * * * * * * * * * * * * * * * * * * * * * * * * //

dimensions      [0 2 -2 0 0 0 0];

internalField   uniform (0 0 0);

boundaryField
{
    topPatch
    {
        type            calculated;
        value           nonuniform List<vector> 0();
    }
    wall
    {
        type            calculated;
        value           nonuniform List<vector> 
7803
(
(-1.63371e-08 -5.23056e-09 -0.000124863)
(1.55678e-08 -2.68499e-09 -0.000132932)
(-7.54427e-09 -8.06901e-09 -0.000125027)
(-6.96932e-09 1.89975e-09 -0.000133076)
(-1.50413e-08 -1.235e-09 -0.000132927)
(-4.66115e-09 -4.95886e-09 -0.000133067)
(1.33715e-08 -6.89812e-09 -0.000124869)
(3.81588e-09 -8.87996e-09 -0.000133088)
(-8.12867e-09 3.51746e-09 -0.000125052)
(6.05592e-09 -1.01232e-08 -0.000125051)
(8.01829e-09 7.92173e-09 -0.000125029)
(-1.54735e-08 1.3232e-09 -0.000132946)
(-1.55287e-08 6.20126e-09 -0.000124867)
(1.49576e-08 7.06981e-09 -0.000124849)
(5.44274e-09 6.60394e-09 -0.000133052)
(1.61019e-08 1.69415e-09 -0.000132917)
(-4.36302e-09 1.15095e-08 -0.000133186)
(1.74275e-08 2.71201e-09 -0.000125088)
(-1.44198e-08 4.08403e-10 -0.000133108)
(-8.37069e-09 1.31414e-08 -0.000127443)
(-5.51783e-09 4.15987e-09 -0.00012944)
(1.22604e-08 -1.89895e-08 -0.000133218)
(6.37581e-09 4.87565e-09 -0.00012515)
(-7.74615e-09 -6.57068e-09 -0.000125021)
(2.96891e-09 -5.69374e-09 -0.000133171)
(-6.63256e-09 3.26176e-09 -0.000133067)
(9.00509e-09 1.74668e-09 -0.000125655)
(-1.12767e-08 4.08628e-09 -0.000125763)
(1.31534e-08 3.85617e-09 -0.000125556)
(-8.86626e-09 -3.63255e-09 -0.00012573)
(1.87251e-09 1.01685e-08 -0.000132423)
(2.15219e-08 -8.86024e-09 -0.000132404)
(-2.75161e-09 -8.41141e-09 -0.000132532)
(-1.69944e-08 5.78809e-09 -0.000132521)
(1.13072e-08 1.62458e-09 -0.000133106)
(5.1493e-09 1.84001e-09 -0.000133154)
(-5.47738e-09 -4.36669e-09 -0.000133057)
(-1.79431e-08 1.55293e-09 -0.000125087)
(1.20774e-08 -9.62139e-10 -0.00012567)
(-1.3068e-08 -4.1768e-09 -0.00012579)
(3.46105e-09 -6.73941e-09 -0.000132446)
(1.16637e-09 1.10046e-08 -0.000132554)
(-8.25567e-09 -4.53836e-09 -0.000133166)
(-7.83585e-09 -1.54662e-08 -0.000127457)
(-6.05712e-09 -3.06149e-09 -0.000129439)
(1.13437e-08 1.28155e-08 -0.000133234)
(4.3733e-09 -9.36232e-09 -0.000125169)
(-9.13818e-09 1.66316e-09 -0.000125042)
(-6.9612e-09 1.0025e-09 -0.000125157)
(-1.08751e-08 1.70887e-08 -0.000133206)
(-6.43455e-09 -2.50079e-09 -0.000125136)
(-8.58757e-09 5.81069e-09 -0.000125601)
(7.31275e-09 -5.25646e-09 -0.000125776)
(-1.79951e-08 -5.0823e-09 -0.000132429)
(9.41784e-09 -2.63034e-09 -0.000133113)
(-6.83139e-09 -1.09765e-08 -0.000133158)
(1.56678e-08 -3.20947e-09 -0.000125086)
(5.53769e-09 -1.12081e-08 -0.000133157)
(-1.71575e-08 -2.517e-09 -0.000125078)
(-7.43374e-09 2.02062e-09 -0.000133138)
(-1.26208e-08 -1.49371e-10 -0.000133086)
(3.15445e-09 1.00902e-08 -0.000133187)
(-1.26744e-08 -1.85751e-08 -0.000133236)
(-9.19647e-09 9.55737e-09 -0.000127499)
(3.35536e-09 -1.03285e-08 -0.000129288)
(-2.97467e-09 8.37082e-09 -0.000129489)
(1.01278e-08 -9.95125e-09 -0.000127292)
(7.13092e-09 -1.28417e-08 -0.000132919)
(1.30058e-08 -1.25197e-09 -0.000125595)
(-8.79561e-09 1.13926e-09 -0.000125747)
(2.43018e-08 9.83628e-09 -0.000132413)
(-1.38824e-08 -3.22269e-09 -0.000132529)
(-1.16746e-08 1.27335e-08 -0.000133105)
(8.40167e-09 -1.72092e-08 -0.000127486)
(-6.21963e-09 4.47138e-09 -0.000129439)
(5.04161e-09 -3.89223e-09 -0.000129461)
(-8.71297e-09 1.17354e-08 -0.000127439)
(-1.26268e-08 1.5233e-08 -0.000133101)
(-1.13211e-08 -5.82383e-10 -0.000125662)
(7.82539e-09 -6.2737e-10 -0.000125768)
(-1.06327e-09 9.91373e-09 -0.000132444)
(7.19311e-09 -1.07802e-09 -0.000132531)
(-1.07111e-08 -5.05535e-09 -0.000125588)
(7.35063e-09 3.89878e-09 -0.000125758)
(-2.11619e-08 7.39422e-09 -0.000132392)
(1.7514e-08 -6.0554e-09 -0.000132526)
(-1.1783e-08 1.75019e-09 -0.000125646)
(8.78052e-09 3.18113e-10 -0.000125765)
(-3.4388e-09 -7.29923e-09 -0.000132427)
(8.43294e-10 9.03297e-09 -0.000132528)
(9.09843e-09 9.63683e-09 -0.000127505)
(-1.99668e-09 -8.72003e-09 -0.000129301)
(3.37576e-09 8.07575e-09 -0.000129488)
(-8.7013e-09 -1.04009e-08 -0.000127296)
(-1.06904e-08 -1.4073e-08 -0.00013293)
(7.7539e-09 1.464e-08 -0.000127494)
(-7.00807e-09 -4.75377e-09 -0.000129436)
(5.57386e-09 4.90036e-09 -0.000129464)
(-8.21797e-09 -1.45104e-08 -0.000127452)
(-1.31716e-08 -1.72727e-08 -0.000133115)
(-1.4177e-08 -2.10906e-08 -0.000133115)
(1.29435e-08 1.31308e-08 -0.000133121)
(-6.5076e-09 -1.69714e-08 -0.000127509)
(8.61515e-09 2.30224e-09 -0.00012946)
(-5.39567e-09 -4.66085e-09 -0.000129483)
(7.89373e-09 1.17576e-08 -0.000127466)
(-8.76502e-09 1.63357e-08 -0.000127491)
(6.01914e-09 -3.02251e-09 -0.000129449)
(-4.80104e-09 6.18301e-09 -0.000129466)
(8.89548e-09 -1.21061e-08 -0.000127444)
(1.28969e-08 -1.70235e-08 -0.000133096)
(2.58311e-08 1.18398e-08 -0.000132572)
(7.11565e-09 1.22496e-08 -0.000132896)
(-1.13771e-08 -1.12236e-08 -0.000127476)
(1.33601e-09 8.93347e-09 -0.000129272)
(-3.93045e-09 -8.73526e-09 -0.000129465)
(6.12916e-09 1.02003e-08 -0.000127268)
(-7.3815e-09 1.35548e-08 -0.000132902)
(1.07537e-08 -8.98952e-09 -0.000127485)
(-2.99248e-09 9.54874e-09 -0.000129281)
(2.24185e-09 -7.79297e-09 -0.000129468)
(-8.14382e-09 1.00795e-08 -0.000127271)
(6.02124e-09 -8.49669e-09 -0.000125177)
(2.89804e-09 -8.05774e-09 -0.000133177)
(-1.29307e-08 -1.64308e-08 -0.00013311)
(-6.65325e-09 4.43337e-09 -0.000125046)
(-5.60251e-09 1.4445e-09 -0.000133074)
(-1.01039e-08 1.37195e-08 -0.000127437)
(4.79014e-09 -4.65264e-09 -0.000129473)
(-5.17115e-09 5.04096e-09 -0.000129439)
(8.50947e-09 -1.69116e-08 -0.000127495)
(-7.7026e-09 -1.49621e-08 -0.000127458)
(5.89767e-09 2.14362e-09 -0.000129479)
(-6.80576e-09 -6.85583e-09 -0.000129431)
(7.57237e-09 1.45314e-08 -0.0001275)
(1.26158e-08 1.54765e-08 -0.000133239)
(7.9231e-09 -2.8167e-09 -0.000125776)
(-1.08462e-08 -1.69554e-09 -0.000125663)
(3.3166e-09 -4.60899e-09 -0.000132542)
(-7.75281e-09 1.59881e-09 -0.000132465)
(1.29889e-08 1.33882e-09 -0.000133106)
(6.16963e-09 2.99815e-09 -0.000133154)
(1.77909e-08 3.98929e-09 -0.00012509)
(6.93589e-09 6.18427e-09 -0.000125159)
(-1.4034e-08 -8.72144e-13 -0.000132915)
(-4.67433e-09 -3.1547e-09 -0.000133062)
(6.73227e-09 -1.24207e-08 -0.000132908)
(-1.52494e-08 -4.28472e-09 -0.00012485)
(-6.39965e-09 -6.54617e-09 -0.000125018)
(2.0529e-08 -9.16982e-09 -0.000132524)
(4.32673e-10 1.07605e-08 -0.000132524)
(-1.07005e-08 1.35686e-08 -0.000133101)
(1.29973e-08 -1.87744e-08 -0.000133221)
(1.15746e-08 3.28017e-09 -0.000125763)
(-8.94744e-09 -4.53505e-09 -0.000125582)
(7.87453e-09 2.64271e-09 -0.000125771)
(-1.05774e-08 3.40271e-09 -0.00012564)
(-3.85228e-09 -6.60884e-09 -0.000132431)
(-1.91064e-08 7.01812e-09 -0.000132394)
(1.03904e-08 -9.24709e-09 -0.00012729)
(8.20785e-10 9.51332e-09 -0.000129492)
(2.80395e-09 -8.88645e-09 -0.000129276)
(-8.48726e-09 9.2244e-09 -0.000127493)
(-5.5146e-09 1.2116e-08 -0.000133182)
(-1.51131e-08 -7.78937e-09 -0.000124988)
(1.46685e-08 -2.99151e-09 -0.000133047)
(-1.35991e-08 5.94992e-09 -0.000133336)
(-8.87943e-09 -1.08798e-08 -0.000125074)
(-8.24441e-09 6.34487e-09 -0.000133149)
(5.35448e-09 8.2458e-09 -0.000133164)
(-7.60947e-09 -4.40079e-09 -0.000133387)
(1.27469e-08 3.74711e-09 -0.000133065)
(-9.02648e-09 -5.89122e-09 -0.000133335)
(-8.148e-09 -7.10404e-09 -0.000133395)
(6.40194e-09 8.17887e-09 -0.000133144)
(-8.49621e-09 -7.19048e-09 -0.000133335)
(9.16701e-09 6.22597e-09 -0.000133054)
(-1.19825e-08 -4.17769e-09 -0.000133046)
(-7.6066e-09 -8.82316e-09 -0.00013311)
(1.32796e-08 -8.11416e-09 -0.000124983)
(-1.25006e-08 7.88866e-09 -0.000125349)
(4.4518e-09 -1.03585e-08 -0.000133176)
(-1.0453e-08 8.8694e-09 -0.000125123)
(6.478e-09 -1.30504e-08 -0.00012513)
(9.06639e-09 8.58537e-09 -0.000125095)
(-7.96202e-09 8.00582e-09 -0.000133021)
(-1.13214e-08 8.16318e-09 -0.00012496)
(8.92356e-09 8.57215e-09 -0.000124971)
(9.03483e-09 4.45081e-09 -0.000133128)
(9.45946e-09 7.68082e-09 -0.000133027)
(9.34307e-09 2.97043e-09 -0.000125774)
(-1.09886e-08 4.29678e-10 -0.000125998)
(7.63975e-09 7.12661e-09 -0.000125705)
(-5.68742e-09 -7.28997e-09 -0.00012596)
(1.09398e-09 1.31949e-08 -0.00013255)
(1.64659e-08 -2.07526e-09 -0.000132534)
(-1.08086e-08 -1.18732e-09 -0.000126013)
(8.67348e-09 5.40362e-09 -0.000125758)
(-7.48842e-09 -7.03105e-09 -0.000125973)
(7.44892e-09 8.94507e-09 -0.000125691)
(6.34041e-09 -9.02456e-09 -0.00012749)
(-4.68318e-09 1.03432e-08 -0.000129768)
(-7.10399e-10 -7.43731e-09 -0.000129489)
(-7.49376e-09 1.30165e-08 -0.000127763)
(4.99999e-09 1.27136e-08 -0.00013342)
(2.3395e-08 4.92599e-09 -0.000125316)
(1.20324e-08 -1.33529e-08 -0.000133096)
(-1.61201e-08 -4.80199e-09 -0.000125011)
(-1.62949e-08 2.52106e-09 -0.000133327)
(1.04922e-08 -4.31918e-09 -0.000133048)
(1.66939e-08 -1.4004e-08 -0.000133425)
(8.65447e-09 9.46296e-09 -0.000125349)
(6.62685e-09 -9.83255e-09 -0.000133391)
(1.28184e-08 6.67831e-10 -0.000125737)
(-1.2101e-08 -3.1004e-09 -0.000125999)
(5.13469e-09 1.04458e-08 -0.00012567)
(-9.02302e-09 -8.61109e-09 -0.000125957)
(-7.87223e-09 -3.06825e-09 -0.000133373)
(5.38973e-09 9.24261e-09 -0.000133146)
(-8.12863e-09 -5.64524e-09 -0.000133323)
(1.07362e-08 5.21012e-09 -0.000133051)
(-1.14152e-08 -3.77988e-09 -0.000126022)
(1.24833e-08 2.86215e-09 -0.000125738)
(-6.54581e-09 -1.00693e-08 -0.00012598)
(5.29311e-09 1.11909e-08 -0.000125675)
(-3.39062e-09 -1.35375e-08 -0.000132791)
(-1.66679e-08 3.26901e-10 -0.000132784)
(1.03143e-08 4.29786e-09 -0.000125753)
(-1.1285e-08 -1.86987e-09 -0.000126018)
(5.15659e-09 1.01172e-08 -0.00012569)
(-6.38729e-09 -8.71477e-09 -0.000125977)
(7.52694e-09 5.7055e-09 -0.000133131)
(-7.37836e-09 -5.24682e-09 -0.000133391)
(8.79418e-09 6.4233e-09 -0.00013304)
(-8.35651e-09 -6.27492e-09 -0.000133337)
(1.34294e-08 4.73687e-09 -0.000133325)
(-1.19473e-08 -1.17561e-09 -0.000133054)
(7.75973e-09 1.01151e-08 -0.000133354)
(-6.19895e-09 -8.60743e-09 -0.000127482)
(1.17335e-08 1.19174e-08 -0.000129765)
(3.66936e-09 -8.30327e-09 -0.000129491)
(1.45693e-08 1.3159e-08 -0.000127761)
(-2.52437e-08 3.92821e-09 -0.000125321)
(1.41278e-08 -5.90432e-09 -0.000125003)
(1.07345e-08 -2.93826e-09 -0.000125772)
(-1.14468e-08 7.30316e-09 -0.000126032)
(9.99221e-09 -3.5439e-09 -0.000125797)
(2.37151e-09 -1.08011e-08 -0.000132552)
(3.1645e-09 2.21328e-08 -0.000132789)
(-8.72411e-09 6.86066e-09 -0.000133416)
(5.36859e-09 -1.05895e-08 -0.00013319)
(9.15063e-09 -9.38666e-09 -0.000125395)
(1.01907e-08 9.94837e-09 -0.000127543)
(9.32205e-09 3.56365e-09 -0.00012953)
(-8.90324e-09 8.42029e-09 -0.000125399)
(7.30195e-09 -1.10713e-08 -0.000125143)
(1.19824e-08 -8.71093e-09 -0.000127517)
(8.3099e-09 -3.71928e-09 -0.000129517)
(-1.66846e-08 1.5754e-08 -0.000133437)
(-9.56145e-09 -7.00854e-09 -0.000125368)
(9.81017e-09 1.03832e-08 -0.00012511)
(4.22365e-10 1.28359e-08 -0.000125673)
(1.08363e-08 -8.32628e-09 -0.000125974)
(9.27139e-09 -7.84373e-09 -0.000133304)
(1.03755e-08 -8.92288e-09 -0.000125279)
(1.29896e-08 -1.79071e-08 -0.000133362)
(-1.22882e-08 -7.67242e-09 -0.000125288)
(-8.20326e-09 -6.10833e-09 -0.000133371)
(8.9379e-09 4.63214e-09 -0.00013315)
(-1.15772e-08 -6.85426e-09 -0.000133312)
(1.68101e-08 4.85889e-09 -0.000125094)
(-1.17247e-08 3.80973e-09 -0.000133114)
(7.79012e-09 4.17034e-09 -0.000125148)
(6.07819e-09 -2.78299e-09 -0.000133169)
(-1.60383e-08 -4.04653e-09 -0.000124877)
(1.72193e-08 4.88417e-09 -0.000125117)
(1.37767e-08 -1.9245e-09 -0.000132944)
(-1.67164e-08 1.32762e-09 -0.000133144)
(-7.04515e-09 -6.05038e-09 -0.000125037)
(8.75028e-09 3.65535e-09 -0.000125164)
(-5.69134e-09 6.01599e-09 -0.000133091)
(7.97144e-09 -1.1423e-09 -0.000133198)
(-1.5437e-08 -5.67938e-09 -0.000124896)
(1.80619e-08 4.06612e-09 -0.000125136)
(1.62105e-08 -4.85431e-10 -0.000132969)
(-1.0236e-08 5.06639e-09 -0.000133162)
(-6.72387e-09 -7.17309e-09 -0.000125053)
(8.40732e-09 3.0269e-09 -0.000125184)
(-5.03051e-09 6.20549e-09 -0.000133115)
(6.68876e-09 -3.39185e-09 -0.000133222)
(-1.30775e-08 -5.96634e-09 -0.000124911)
(1.79657e-08 4.37615e-09 -0.000125152)
(1.43956e-08 -2.10801e-09 -0.00013298)
(-1.54364e-08 1.48104e-09 -0.000133174)
(-6.80527e-09 -5.49013e-09 -0.000125077)
(7.43083e-09 5.9695e-09 -0.000125209)
(-5.26535e-09 4.8076e-09 -0.000133136)
(5.98043e-09 -3.04816e-09 -0.000133235)
(-1.7206e-08 -4.57364e-09 -0.000124927)
(1.24364e-08 5.78573e-09 -0.000125162)
(1.67873e-08 2.88563e-10 -0.00013299)
(-9.55286e-09 4.32691e-09 -0.000133177)
(-7.10464e-09 -6.35374e-09 -0.000125098)
(7.93717e-09 4.1574e-09 -0.000125222)
(-6.2237e-09 3.15434e-09 -0.000133145)
(5.31058e-09 -5.43607e-09 -0.000133244)
(-1.69381e-08 -4.05457e-09 -0.000124937)
(1.38193e-08 6.35019e-09 -0.000125173)
(1.16373e-08 -2.80892e-09 -0.000132998)
(-1.55286e-08 8.94854e-10 -0.000133193)
(-6.26406e-09 -6.95384e-09 -0.000125104)
(8.13866e-09 3.6844e-09 -0.000125226)
(-7.39731e-09 -1.52878e-10 -0.000133154)
(4.21951e-09 -5.70284e-09 -0.000133253)
(-1.6048e-08 -3.4436e-09 -0.000124942)
(1.7465e-08 4.28356e-09 -0.000125179)
(1.62988e-08 -2.95164e-10 -0.000133014)
(-1.01057e-08 4.19434e-09 -0.000133204)
(-5.00244e-09 -9.01032e-09 -0.000125104)
(8.39312e-09 1.57416e-09 -0.000125226)
(-6.19437e-09 3.30069e-09 -0.000133165)
(5.21041e-09 -4.48114e-09 -0.000133266)
(-1.07322e-08 -6.63386e-09 -0.000124951)
(1.91555e-08 3.31251e-09 -0.000125184)
(1.45047e-08 -1.08929e-09 -0.00013302)
(-1.33658e-08 1.46854e-09 -0.000133209)
(-6.70299e-09 -5.59226e-09 -0.000125102)
(8.05937e-09 2.95073e-09 -0.000125222)
(-5.72088e-09 3.79299e-09 -0.000133173)
(6.32354e-09 -3.65311e-09 -0.00013327)
(-1.59439e-08 -4.53967e-09 -0.000124951)
(1.43996e-08 5.75621e-09 -0.000125185)
(1.50089e-08 -1.34974e-09 -0.000133016)
(-1.159e-08 3.99245e-09 -0.0001332)
(-6.37052e-09 -5.91104e-09 -0.0001251)
(8.30309e-09 5.26949e-09 -0.000125224)
(-4.58283e-09 4.76824e-09 -0.000133175)
(6.73907e-09 -2.86448e-09 -0.000133269)
(-1.60051e-08 -3.83456e-09 -0.000124951)
(1.61432e-08 5.60548e-09 -0.000125182)
(1.24318e-08 -1.7051e-09 -0.000133008)
(-1.5984e-08 1.84911e-09 -0.000133192)
(-7.02547e-09 -4.42608e-09 -0.000125098)
(8.03469e-09 4.25863e-09 -0.000125219)
(-5.59159e-09 4.36946e-09 -0.000133168)
(6.31293e-09 -4.69741e-09 -0.000133255)
(-1.6032e-08 -3.55626e-09 -0.000124949)
(1.39189e-08 5.101e-09 -0.000125177)
(1.5268e-08 -1.40748e-09 -0.000133)
(-1.09742e-08 3.10324e-09 -0.000133183)
(-5.71884e-09 -8.14447e-09 -0.000125094)
(7.55959e-09 2.82002e-09 -0.000125212)
(-5.72729e-09 3.08742e-09 -0.000133153)
(3.90558e-09 -4.31818e-09 -0.000133245)
(-1.70734e-08 -5.54434e-09 -0.000124946)
(1.48138e-08 3.92421e-09 -0.000125183)
(1.35457e-08 -6.92796e-10 -0.000133001)
(-1.61958e-08 1.90522e-09 -0.000133193)
(-7.86395e-09 -6.31576e-09 -0.000125093)
(5.96587e-09 3.38568e-09 -0.00012522)
(-3.80494e-09 5.149e-09 -0.000133152)
(5.21028e-09 -5.67321e-09 -0.000133253)
(-1.66013e-08 -5.77677e-09 -0.000124956)
(1.40163e-08 2.66505e-09 -0.000125191)
(1.42996e-08 -5.0691e-10 -0.000133014)
(-1.12628e-08 3.70238e-09 -0.000133206)
(-7.30818e-09 -7.16419e-09 -0.000125108)
(5.92174e-09 2.71557e-09 -0.00012524)
(-5.50507e-09 2.87562e-09 -0.000133163)
(3.75643e-09 -6.43402e-09 -0.000133269)
(-1.65996e-08 -5.14802e-09 -0.000124977)
(1.51296e-08 2.21083e-09 -0.000125216)
(1.74502e-08 -1.27373e-09 -0.000133034)
(-1.30557e-08 1.95856e-09 -0.00013324)
(-8.25541e-09 -7.15696e-09 -0.000125131)
(5.54117e-09 3.53548e-09 -0.000125266)
(-6.41189e-09 3.62812e-09 -0.000133186)
(5.41716e-09 -3.47338e-09 -0.000133299)
(-1.6086e-08 -7.29818e-09 -0.000124991)
(1.57048e-08 3.14631e-09 -0.000125241)
(1.64009e-08 -1.75893e-09 -0.000133057)
(-9.1359e-09 5.54626e-09 -0.000133264)
(-9.22006e-09 -9.06422e-09 -0.000125139)
(6.51429e-09 3.03786e-09 -0.000125285)
(-6.25992e-09 5.26043e-09 -0.000133202)
(5.63466e-09 -4.82453e-09 -0.000133324)
(-1.61513e-08 -5.46045e-09 -0.000125005)
(1.37347e-08 5.45942e-09 -0.000125279)
(1.46207e-08 -5.72854e-10 -0.000133071)
(-1.33987e-08 2.14133e-09 -0.000133303)
(-6.56757e-09 -9.17959e-09 -0.000125142)
(6.93692e-09 5.47259e-09 -0.000125319)
(-4.61863e-09 5.31935e-09 -0.000133206)
(5.5673e-09 -4.66216e-09 -0.000133363)
(-1.34221e-08 -5.38844e-09 -0.000125006)
(1.56183e-08 6.87291e-09 -0.000125329)
(1.67132e-08 -1.8373e-09 -0.000133063)
(-1.15503e-08 5.10968e-09 -0.00013335)
(-5.05236e-09 -1.07284e-08 -0.000125126)
(8.42099e-09 8.20095e-09 -0.000125364)
(-4.39634e-09 9.13843e-09 -0.000133188)
(7.05254e-09 -5.68167e-09 -0.000133411)
(1.27982e-08 2.47811e-09 -0.000133109)
(6.65237e-09 2.02094e-09 -0.000133152)
(1.19299e-08 3.50964e-09 -0.000133119)
(-1.60086e-08 -1.25359e-09 -0.000132937)
(6.21679e-09 2.96516e-09 -0.000133159)
(-5.55594e-09 -4.2185e-09 -0.000133068)
(-1.53849e-08 4.12863e-09 -0.000125096)
(1.70172e-08 4.30024e-09 -0.000125099)
(-1.57253e-08 -5.92422e-09 -0.000124869)
(-2.05486e-08 2.82149e-09 -0.000125107)
(1.47485e-08 -6.02689e-09 -0.000124874)
(-3.86447e-09 4.01548e-09 -0.00013317)
(-1.61616e-08 -2.97313e-10 -0.000133124)
(1.63089e-08 -1.64108e-09 -0.000132943)
(-6.27921e-09 1.29387e-09 -0.000133178)
(6.10958e-09 -4.47448e-09 -0.000133081)
(5.94761e-09 -6.8314e-09 -0.000125166)
(7.0615e-09 6.725e-09 -0.000125154)
(-7.26095e-09 -7.09972e-09 -0.000125028)
(5.28656e-09 -7.26283e-09 -0.000125182)
(-7.86494e-09 4.20802e-09 -0.00012505)
(-6.35701e-09 5.8651e-09 -0.000125166)
(-7.33762e-09 -2.65036e-09 -0.000125147)
(-6.19077e-09 5.01046e-09 -0.000125171)
(7.78291e-09 -6.90066e-09 -0.000125048)
(-5.80589e-09 -5.55666e-09 -0.000125153)
(7.58356e-09 7.5296e-09 -0.000125033)
(1.24157e-08 -2.43429e-09 -0.000133126)
(5.35343e-09 -3.82017e-09 -0.000133188)
(-7.68588e-09 1.2246e-09 -0.000133077)
(1.1546e-08 -2.57248e-09 -0.00013313)
(-1.89276e-08 -1.23506e-10 -0.000132959)
(1.46669e-08 -5.31913e-09 -0.000125099)
(-1.70342e-08 -3.75749e-09 -0.00012509)
(1.6598e-08 -4.1747e-09 -0.000125103)
(-1.83322e-08 4.84316e-09 -0.000124874)
(-1.92321e-08 -3.10245e-09 -0.000125098)
(1.58161e-08 6.50137e-09 -0.000124861)
(-6.8781e-09 -4.94618e-10 -0.000133147)
(-1.46092e-08 -5.57007e-10 -0.000133098)
(-7.17572e-09 -1.08503e-09 -0.000133154)
(5.68512e-09 6.444e-09 -0.000133059)
(-1.38763e-08 -1.36223e-09 -0.000133111)
(1.57595e-08 1.36509e-09 -0.000132927)
(-1.54172e-08 -7.57553e-10 -0.000132939)
(1.29933e-08 3.01892e-09 -0.000133133)
(-5.50274e-09 -3.8127e-09 -0.000133071)
(7.90179e-09 -4.84755e-11 -0.00013317)
(1.43308e-08 9.77838e-10 -0.000133139)
(-1.53733e-08 -1.21126e-09 -0.000132957)
(6.87213e-09 5.68883e-10 -0.000133177)
(-3.74152e-09 -7.36784e-09 -0.000133085)
(1.35287e-08 -6.41304e-09 -0.000124875)
(-1.75613e-08 4.52334e-09 -0.000125122)
(1.82767e-08 3.62241e-09 -0.000125123)
(-1.43518e-08 -5.2084e-09 -0.00012489)
(-1.78589e-08 4.44505e-09 -0.000125127)
(1.52767e-08 -5.25134e-09 -0.000124894)
(5.76918e-09 -4.68559e-09 -0.000133089)
(-7.15385e-09 1.07438e-09 -0.00013319)
(-1.46676e-08 1.04602e-09 -0.000133149)
(1.56443e-08 -8.16653e-10 -0.000132965)
(-8.28947e-09 -1.69997e-09 -0.000133196)
(4.7849e-09 -4.53518e-09 -0.000133107)
(-8.08272e-09 5.56362e-09 -0.000125062)
(8.83315e-09 -3.61007e-09 -0.000125192)
(7.04485e-09 5.08795e-09 -0.000125168)
(-7.04408e-09 -7.20565e-09 -0.000125045)
(6.7737e-09 -3.96949e-09 -0.000125201)
(-6.26875e-09 7.48284e-09 -0.000125076)
(7.30613e-09 -7.66566e-09 -0.000125054)
(-7.80674e-09 4.29704e-09 -0.000125187)
(7.38952e-09 6.39948e-09 -0.000125038)
(-8.07224e-09 -4.41629e-09 -0.000125171)
(-7.38316e-09 4.07767e-09 -0.000125192)
(7.18974e-09 -6.72882e-09 -0.00012507)
(-7.46949e-09 -4.69913e-09 -0.000125172)
(6.47805e-09 6.76069e-09 -0.000125056)
(-1.5753e-08 6.30571e-10 -0.000132956)
(1.21064e-08 -3.23712e-09 -0.000133144)
(6.41629e-09 -2.41359e-09 -0.00013321)
(-5.23148e-09 4.38344e-09 -0.000133105)
(1.26828e-08 -1.72489e-09 -0.000133139)
(-1.9061e-08 -2.03628e-09 -0.000132976)
(-1.78774e-08 4.80651e-09 -0.000124872)
(1.64482e-08 -5.4806e-09 -0.000125118)
(1.56317e-08 5.87302e-09 -0.000124868)
(-1.74154e-08 -5.34577e-09 -0.000125115)
(1.82512e-08 -4.04711e-09 -0.000125113)
(-1.67095e-08 4.75239e-09 -0.000124886)
(-1.67766e-08 -4.01683e-09 -0.000125118)
(1.56612e-08 4.82743e-09 -0.000124886)
(5.19227e-09 5.24357e-09 -0.000133064)
(-6.70681e-09 -2.93904e-09 -0.00013317)
(1.58759e-08 7.27938e-10 -0.000132934)
(-1.44614e-08 -1.89857e-09 -0.00013313)
(-7.27077e-09 -9.2179e-12 -0.000133173)
(4.90735e-09 4.51029e-09 -0.000133084)
(-1.17296e-08 -2.90763e-09 -0.000133136)
(1.60308e-08 -2.39268e-10 -0.000132955)
(-1.30622e-08 -2.44766e-09 -0.000132962)
(1.48428e-08 1.66724e-09 -0.000133151)
(-5.17617e-09 -5.83556e-09 -0.000133089)
(7.93955e-09 1.30964e-09 -0.000133197)
(1.37412e-08 1.4122e-09 -0.000133154)
(-1.3413e-08 -1.39723e-09 -0.000132979)
(7.19706e-09 2.37166e-09 -0.000133205)
(-3.85087e-09 -6.29574e-09 -0.000133111)
(1.67019e-08 -5.28776e-09 -0.000124894)
(-1.20322e-08 6.45488e-09 -0.00012514)
(2.02277e-08 4.04736e-09 -0.000125139)
(-1.39873e-08 -6.08052e-09 -0.000124909)
(-1.77309e-08 4.2537e-09 -0.000125141)
(1.84794e-08 -3.51605e-09 -0.000124915)
(4.45601e-09 -6.84151e-09 -0.00013311)
(-5.18058e-09 5.02186e-09 -0.000133216)
(-1.43134e-08 1.64251e-09 -0.000133163)
(1.67889e-08 5.72704e-10 -0.000132991)
(-7.40477e-09 -1.99146e-10 -0.000133222)
(4.23619e-09 -4.7564e-09 -0.000133124)
(-6.33715e-09 7.89374e-09 -0.000125083)
(8.87851e-09 -3.0108e-09 -0.000125216)
(7.62345e-09 6.42173e-09 -0.000125192)
(-6.44885e-09 -7.23323e-09 -0.00012507)
(8.25984e-09 -4.58701e-09 -0.000125224)
(-6.50263e-09 6.95058e-09 -0.000125101)
(6.06839e-09 -9.37066e-09 -0.000125073)
(-7.15118e-09 6.98815e-09 -0.00012521)
(7.04977e-09 8.5505e-09 -0.000125054)
(-8.08365e-09 -3.35089e-09 -0.000125186)
(-8.04713e-09 5.4291e-09 -0.000125215)
(7.16585e-09 -5.77654e-09 -0.000125088)
(-7.5844e-09 -4.86639e-09 -0.000125186)
(6.31142e-09 7.10109e-09 -0.000125069)
(-1.59428e-08 4.5147e-10 -0.000132967)
(1.24247e-08 -3.23701e-09 -0.000133156)
(6.34113e-09 -2.47037e-09 -0.000133232)
(-6.15053e-09 1.40681e-09 -0.000133131)
(9.96325e-09 -4.22712e-09 -0.000133155)
(-1.84726e-08 -8.80709e-10 -0.000132988)
(-1.71784e-08 4.826e-09 -0.000124882)
(1.45433e-08 -5.24599e-09 -0.000125125)
(1.85528e-08 4.52446e-09 -0.000124888)
(-1.49059e-08 -5.15233e-09 -0.000125133)
(1.47078e-08 -6.48941e-09 -0.000125124)
(-1.87102e-08 3.84841e-09 -0.000124898)
(-1.54456e-08 -5.05845e-09 -0.000125134)
(1.72817e-08 4.07381e-09 -0.000124904)
(3.8348e-09 7.40531e-09 -0.000133084)
(-6.92986e-09 -1.73576e-09 -0.000133186)
(1.82953e-08 -1.94794e-10 -0.000132959)
(-1.3184e-08 -2.43772e-09 -0.00013315)
(-6.69726e-09 -1.38721e-09 -0.000133185)
(4.5777e-09 4.46592e-09 -0.000133097)
(-1.15252e-08 -2.92219e-09 -0.000133149)
(1.72423e-08 -7.23883e-10 -0.000132972)
(-1.29072e-08 -2.26233e-09 -0.000132977)
(1.36591e-08 2.32218e-09 -0.00013317)
(-5.83704e-09 -4.08797e-09 -0.000133115)
(7.18816e-09 2.34137e-09 -0.000133219)
(1.21863e-08 2.45146e-09 -0.000133174)
(-1.59351e-08 -1.07494e-09 -0.000132994)
(6.12711e-09 3.14158e-09 -0.000133225)
(-5.13397e-09 -4.60373e-09 -0.000133133)
(1.55386e-08 -5.65819e-09 -0.00012491)
(-1.66507e-08 4.90353e-09 -0.000125156)
(1.66996e-08 4.50507e-09 -0.000125154)
(-1.45189e-08 -5.6671e-09 -0.000124923)
(-1.67895e-08 4.28748e-09 -0.000125156)
(1.63856e-08 -4.41657e-09 -0.000124926)
(4.89693e-09 -5.47646e-09 -0.000133135)
(-7.31858e-09 2.08842e-09 -0.000133238)
(-1.42372e-08 1.22647e-09 -0.000133174)
(1.65291e-08 -4.8494e-10 -0.000132994)
(-7.25525e-09 7.27806e-10 -0.000133242)
(4.9031e-09 -4.06635e-09 -0.000133153)
(-7.44264e-09 6.33961e-09 -0.000125101)
(7.89296e-09 -5.26936e-09 -0.000125233)
(7.03321e-09 6.91086e-09 -0.000125214)
(-7.28223e-09 -5.76561e-09 -0.000125093)
(6.56921e-09 -6.3839e-09 -0.000125236)
(-7.44816e-09 6.8085e-09 -0.000125116)
(7.07373e-09 -7.67185e-09 -0.000125094)
(-7.34661e-09 5.86426e-09 -0.000125231)
(7.4227e-09 6.87717e-09 -0.000125069)
(-7.53016e-09 -5.75273e-09 -0.000125198)
(-7.08671e-09 6.38217e-09 -0.000125233)
(7.04592e-09 -5.39014e-09 -0.000125113)
(-6.03997e-09 -7.49825e-09 -0.000125199)
(7.37923e-09 5.52906e-09 -0.00012508)
(-1.77151e-08 -7.51796e-11 -0.000132981)
(9.76203e-09 -4.6173e-09 -0.000133166)
(5.09982e-09 -4.04227e-09 -0.000133241)
(-6.20593e-09 2.65554e-09 -0.000133144)
(7.9882e-09 -5.45964e-09 -0.000133164)
(-2.2509e-08 -2.12267e-09 -0.000132995)
(-1.99688e-08 3.8666e-09 -0.000124892)
(1.34662e-08 -4.90075e-09 -0.000125135)
(1.8817e-08 4.73246e-09 -0.000124904)
(-1.50734e-08 -5.27266e-09 -0.000125146)
(1.38561e-08 -5.92813e-09 -0.000125136)
(-1.91987e-08 3.75175e-09 -0.000124908)
(-1.70581e-08 -3.83622e-09 -0.000125148)
(1.81942e-08 4.38319e-09 -0.000124918)
(5.20962e-09 5.32857e-09 -0.000133096)
(-6.29002e-09 -3.33207e-09 -0.000133194)
(1.79501e-08 4.97006e-10 -0.00013297)
(-1.29508e-08 -2.43053e-09 -0.000133158)
(-5.04831e-09 -4.24755e-09 -0.000133194)
(5.33349e-09 4.22479e-09 -0.000133105)
(-1.30486e-08 -1.97209e-09 -0.000133161)
(1.66936e-08 3.15085e-10 -0.000132981)
(-1.56226e-08 -9.30351e-10 -0.000132995)
(1.18186e-08 3.24477e-09 -0.000133183)
(-5.86922e-09 -3.12714e-09 -0.000133137)
(6.31466e-09 3.212e-09 -0.000133235)
(1.20822e-08 3.10526e-09 -0.000133185)
(-1.72165e-08 -1.07083e-09 -0.000133007)
(6.31876e-09 4.00531e-09 -0.000133236)
(-5.77645e-09 -4.52475e-09 -0.000133147)
(1.72532e-08 -5.20574e-09 -0.000124922)
(-1.37642e-08 5.72198e-09 -0.000125163)
(1.64375e-08 4.74691e-09 -0.000125163)
(-1.9442e-08 -3.85934e-09 -0.000124935)
(-2.15722e-08 2.66284e-09 -0.000125165)
(1.61124e-08 -5.3425e-09 -0.000124936)
(5.26104e-09 -4.48646e-09 -0.000133154)
(-3.99453e-09 6.95265e-09 -0.00013325)
(-1.76636e-08 -1.91296e-11 -0.000133182)
(1.7378e-08 -4.13685e-10 -0.000133005)
(-7.3153e-09 1.85593e-09 -0.000133247)
(6.28022e-09 -2.80731e-09 -0.000133157)
(-7.43811e-09 5.2046e-09 -0.000125116)
(7.3798e-09 -6.12645e-09 -0.000125243)
(7.64037e-09 5.25538e-09 -0.000125222)
(-7.14723e-09 -7.0495e-09 -0.000125103)
(5.5507e-09 -1.05331e-08 -0.000125245)
(-7.87831e-09 4.36324e-09 -0.000125125)
(7.37679e-09 -6.75863e-09 -0.000125112)
(-6.21333e-09 8.52628e-09 -0.00012524)
(7.70752e-09 5.25522e-09 -0.000125079)
(-7.97141e-09 -6.23374e-09 -0.000125205)
(-6.78475e-09 5.70241e-09 -0.000125235)
(7.44609e-09 -4.68231e-09 -0.00012512)
(-6.46432e-09 -7.18909e-09 -0.000125203)
(7.37928e-09 5.13732e-09 -0.000125086)
(-1.99657e-08 -1.64002e-09 -0.000132988)
(8.57503e-09 -5.33227e-09 -0.000133173)
(3.6809e-09 -7.99304e-09 -0.00013325)
(-7.51951e-09 1.74683e-10 -0.000133151)
(1.05234e-08 -4.65328e-09 -0.00013317)
(-2.23077e-08 -2.74942e-09 -0.000133006)
(-2.09927e-08 3.29962e-09 -0.000124905)
(1.1771e-08 -6.97299e-09 -0.000125147)
(1.71998e-08 5.02405e-09 -0.000124917)
(-1.87635e-08 -4.35482e-09 -0.000125156)
(1.63838e-08 -4.51657e-09 -0.000125145)
(-2.08779e-08 2.49969e-09 -0.000124921)
(-2.103e-08 -2.2763e-09 -0.000125155)
(1.41636e-08 4.75509e-09 -0.000124928)
(5.97784e-09 3.53188e-09 -0.000133104)
(-5.6471e-09 -3.88247e-09 -0.0001332)
(1.64593e-08 6.51447e-10 -0.00013298)
(-1.66931e-08 -5.22577e-10 -0.000133165)
(-7.11488e-09 -2.17478e-09 -0.0001332)
(5.25745e-09 3.64832e-09 -0.000133113)
(-1.70869e-08 -5.30862e-10 -0.000133168)
(1.24421e-08 1.89345e-09 -0.000132989)
(-1.40258e-08 -5.25742e-10 -0.000133008)
(1.12726e-08 3.17057e-09 -0.000133192)
(-5.59492e-09 -2.87567e-09 -0.000133146)
(6.59568e-09 1.85047e-09 -0.000133239)
(1.14047e-08 3.34278e-09 -0.000133191)
(-1.69164e-08 -3.09097e-11 -0.000133015)
(8.05792e-09 -4.79984e-10 -0.000133239)
(-4.74445e-09 -6.52405e-09 -0.00013315)
(1.18511e-08 -6.76139e-09 -0.000124933)
(-1.76683e-08 4.33709e-09 -0.000125176)
(1.5872e-08 5.1156e-09 -0.000125169)
(-1.78876e-08 -3.99455e-09 -0.000124942)
(-1.76228e-08 4.26264e-09 -0.000125179)
(1.51268e-08 -5.7144e-09 -0.000124948)
(5.03458e-09 -4.82417e-09 -0.000133158)
(-8.55977e-09 -1.494e-09 -0.000133247)
(-1.38439e-08 9.52292e-10 -0.000133197)
(1.66269e-08 -6.43851e-10 -0.000133015)
(-8.64806e-09 -3.71945e-09 -0.000133244)
(4.15831e-09 -7.36345e-09 -0.00013316)
(-9.5897e-09 1.25175e-09 -0.000125124)
(7.11701e-09 -7.42034e-09 -0.000125251)
(8.72444e-09 2.38261e-09 -0.000125223)
(-6.51231e-09 -8.53711e-09 -0.000125106)
(6.12766e-09 -7.06327e-09 -0.000125254)
(-8.11284e-09 4.26986e-09 -0.000125135)
(6.72856e-09 -8.01233e-09 -0.000125115)
(-9.5266e-09 5.39249e-10 -0.000125239)
(7.7163e-09 5.06264e-09 -0.000125084)
(-7.48806e-09 -4.35051e-09 -0.000125211)
(-8.95946e-09 3.42626e-10 -0.000125237)
(5.83754e-09 -1.17048e-08 -0.000125118)
(-7.84618e-09 -3.14747e-09 -0.000125214)
(7.44316e-09 7.79463e-09 -0.000125094)
(-1.63996e-08 3.82196e-12 -0.000132995)
(1.07906e-08 -4.49126e-09 -0.000133179)
(4.20886e-09 -4.12523e-09 -0.00013326)
(-8.28653e-09 -3.45493e-10 -0.00013316)
(7.86499e-09 -4.97277e-09 -0.000133177)
(-2.11549e-08 -1.36208e-09 -0.000133009)
(-1.87772e-08 4.28023e-09 -0.000124915)
(1.45725e-08 -5.58231e-09 -0.000125157)
(1.42248e-08 5.59436e-09 -0.000124926)
(-1.78017e-08 -3.8386e-09 -0.000125162)
(1.41536e-08 -5.16216e-09 -0.000125156)
(-1.84078e-08 4.20925e-09 -0.000124928)
(-1.44168e-08 -4.90506e-09 -0.000125165)
(1.5715e-08 5.71764e-09 -0.000124934)
(4.50484e-09 4.84922e-09 -0.000133112)
(-6.67081e-09 -1.85979e-09 -0.000133204)
(1.37372e-08 1.63679e-09 -0.000132989)
(-1.45717e-08 -1.84919e-09 -0.000133174)
(-6.6643e-09 4.75649e-10 -0.000133209)
(5.50719e-09 5.18804e-09 -0.000133118)
(-1.05733e-08 -2.85104e-09 -0.000133177)
(1.60649e-08 1.22781e-09 -0.000132995)
(-1.44599e-08 -7.82395e-10 -0.000133011)