/*--------------------------------*- C++ -*----------------------------------*\
| =========                 |                                                 |
| \\      /  F ield         | OpenFOAM: The Open Source CFD Toolbox           |
|  \\    /   O peration     | Version:  2206                                  |
|   \\  /    A nd           | Website:  www.openfoam.com                      |
|    \\/     M anipulation  |                                                 |
\*---------------------------------------------------------------------------*/
FoamFile
{
    version     2.0;
    format      ascii;
    arch        "LSB;label=32;scalar=64";
    class       volScalarField;
    location    "90";
    object      omega;
}
// * * * * * * * * * * * * * * * * * * * * * * * * * * * * * * * * * * * * * //

dimensions      [0 0 -1 0 0 0 0];

internalField   nonuniform List<scalar> 
66616
(
21.5888
22.0832
22.0811
22.1094
20.5862
22.1998
22.0255
22.5096
19.8767
23.7355
23.3715
25.3328
19.199
23.7752
23.3748
26.7195
18.5836
23.4834
23.035
26.0261
18.079
23.1996
22.9684
26.129
17.7815
23.3103
22.9434
26.2127
17.6319
23.4919
23.0823
26.3258
17.6265
23.7549
23.3088
26.4119
17.6312
24.0714
23.5362
26.7037
17.7021
24.1777
23.7356
26.9402
17.6588
24.4211
24.1188
26.9072
22.2534
21.9788
21.9764
22.2582
21.9784
21.9751
21.817
21.8082
21.8098
21.8121
21.976
21.9772
22.2487
21.9763
21.9773
22.2572
22.0622
22.3393
22.0761
22.078
21.852
21.8409
22.0807
22.3435
22.0727
22.0766
21.9432
21.9501
22.0787
21.9571
21.9545
22.0793
22.349
22.0749
21.8529
21.8406
22.3561
22.4934
25.453
21.9595
21.9814
23.1374
23.0559
22.4879
24.9276
22.1465
22.1201
23.4831
23.4235
22.1385
23.1697
23.4453
22.4889
24.979
21.9924
22.8134
23.0699
24.9291
25.6412
26.4157
23.1751
23.1173
23.5307
23.4803
25.1922
26.6225
23.5067
23.5424
23.8126
23.846
23.2115
23.7355
23.7901
25.3854
26.6914
23.1474
23.1466
23.3736
26.6097
26.1857
26.1599
23.189
22.7924
23.0743
23.2065
25.8834
26.2587
23.1818
23.4971
23.3946
23.5175
23.3445
23.4507
23.4093
26.2571
26.1354
22.6761
23.14
23.0729
25.9404
25.6897
25.7447
22.4929
22.523
22.8928
22.9404
25.8025
25.8479
22.9577
22.7172
23.1281
23.3605
22.9556
23.0881
23.2291
25.7299
25.8205
22.4105
22.6182
22.9288
25.5907
24.9898
25.7441
22.2064
22.363
22.7873
23.0256
25.3449
25.9498
22.8258
22.9097
23.1674
23.2952
22.9381
22.8307
23.3011
25.5089
25.8204
22.6633
22.4595
22.8926
25.6061
25.3187
25.9981
22.5084
22.7986
22.9776
23.1722
25.3897
26.189
23.0067
22.8465
23.3445
23.3823
23.1476
22.8766
23.4806
25.3237
25.871
22.2549
22.9171
23.1272
26.1276
25.5184
26.1578
22.7908
22.8763
23.2197
23.4935
25.656
26.453
23.1845
22.8025
23.5964
23.7187
23.3313
23.0981
23.7414
25.2693
26.0303
22.8827
23.1255
23.2584
26.2128
25.6836
26.3739
23.0879
23.1492
23.6095
23.6523
25.4463
26.248
23.453
23.5119
23.9988
23.9306
23.04
23.4038
24.0705
25.4884
26.1912
22.9553
22.8486
23.5781
26.5832
25.6351
26.4384
23.445
23.1646
23.7463
23.8091
25.5377
26.3383
23.1424
23.5251
24.2896
24.0743
23.3378
23.3914
24.3605
25.6269
26.3958
23.2326
23.0232
23.6766
26.1727
25.4573
26.5181
23.4549
23.3063
23.9658
23.9224
25.3283
26.6769
23.9061
23.6615
24.379
24.4206
24.0594
23.6955
24.3215
25.9363
26.3324
22.9155
23.4115
24.0419
26.7671
25.4693
23.0931
23.5221
26.1687
23.9125
23.4794
23.6092
25.6062
23.069
22.1642
22.2159
22.1834
22.1828
22.741
22.2621
35.6024
22.2032
22.7353
22.2629
22.2049
35.8509
22.3609
69.306
70.7549
88.6373
687.59
72.5841
447.268
522.679
557.249
89.0917
687.204
72.6805
447.229
21.5915
21.5908
21.5888
20.832
20.8159
20.8185
20.8221
29.4772
114.633
21.6775
21.9479
26.3221
114.364
21.4219
522.715
557.227
29.338
21.6879
114.536
21.9464
26.3226
21.4099
114.396
200.846
201.043
22.0374
203.996
204.179
127.9
341.698
116.81
320.907
444.096
430.216
133.881
343.972
120.049
323.027
20.5892
20.5868
20.5854
20.0446
20.0253
20.0281
20.028
46.6438
132.963
20.8348
22.4596
39.5463
131.456
20.8177
445.807
431.851
43.8855
20.7688
129.519
22.1941
37.4934
20.5925
129.953
206.743
205.052
23.6295
200.566
199.301
130.382
307.63
131.148
305.458
422.651
420.721
133.236
310.453
135.753
308.131
19.8693
19.8712
19.8709
19.3848
19.3771
19.3802
19.3693
53.6762
127.655
20.7174
23.7118
54.1514
121.19
20.5491
424.584
422.634
50.4683
20.4575
125.557
23.2081
50.4614
20.3064
122.605
196.106
194.607
26.4506
193.624
191.935
127.883
304.284
129.617
302.885
418.228
416.478
132.959
306.491
133.988
305.098
19.2056
19.2151
19.1879
18.7289
18.7293
18.7358
18.7385
51.4495
122.923
20.2594
23.1722
52.4038
121.162
20.0636
420.352
418.64
48.8911
19.9825
119.799
23.1298
49.8527
19.7968
118.376
193.056
190.227
26.3703
191.795
189.309
128.319
302.275
129.213
301.401
415.089
414.217
132.522
304.633
133.388
303.703
18.5812
18.5858
18.5994
18.2002
18.19
18.2141
18.2218
50.0117
121.476
19.8304
22.8445
50.3779
120.844
19.6513
416.868
415.708
48.0728
19.5705
119.342
22.4527
47.8131
19.4697
118.555
191.786
189.469
25.9179
191.614
188.741
128.586
300.759
129.33
300.38
412.18
411.565
132.828
303.15
133.184
302.736
18.0916
18.1216
18.0896
17.8413
17.8247
17.8583
17.8066
50.0496
122.002
19.7399
22.5229
50.2069
121.565
19.6292
413.677
413.005
47.9268
19.4374
118.153
22.72
47.9366
19.4415
118.23
191.604
189.033
26.0413
191.395
189.002
128.914
299.922
130.028
299.587
411.567
410.102
133.119
302.497
134.382
302.021
17.7559
17.7805
17.7179
17.6264
17.6474
17.6784
17.6105
50.5356
122.548
19.5775
23.1343
50.6691
122.013
19.663
412.002
411.229
48.0172
19.462
118.854
22.7131
48.7847
19.4231
118.35
191.44
190.253
26.1815
190.66
188.846
127.816
299.373
130.034
298.881
409.157
408.868
133.608
301.704
133.51
300.894
17.6516
17.6515
17.6299
17.5959
17.5932
17.6395
17.6277
51.2337
122.679
19.767
23.3528
51.022
122.005
19.7416
410.353
410.149
48.167
19.5342
119.043
22.7099
48.4821
19.5063
118.804
191.578
189.401
26.3655
191.015
188.994
128.681
299.178
130.049
298.257
408.145
408.069
133.083
301.273
134.489
300.654
17.6188
17.6172
17.6081
17.6625
17.618
17.6467
17.6372
50.9056
121.974
19.9385
23.0022
51.2625
121.836
19.9003
409.485
409.456
48.5741
19.6538
120.044
23.0336
48.3132
19.622
119.17
190.288
189.419
26.4733
190.719
188.889
128.744
298.368
129.142
298.02
408.235
407.252
133.556
300.923
134.667
300.262
17.5978
17.6317
17.6143
17.6954
17.6568
17.6902
17.6377
51.472
122.408
20.0966
23.763
51.7134
122.216
20.0846
408.657
408.711
49.335
19.7952
118.949
23.3768
49.8738
19.7836
118.987
191.703
189.087
26.5896
190.752
188.136
127.907
297.858
129.962
297.543
406.879
406.887
132.844
300.451
133.643
300.043
17.6178
17.6621
17.6777
17.6931
17.6623
17.7145
17.6807
51.3588
122.874
20.2386
23.3414
52.0463
122.19
20.0795
408.29
408.109
49.01
19.9335
119.553
22.902
49.4484
19.7215
119.172
191.338
189.25
26.8006
190.723
188.743
131.833
297.895
128.108
298.866
407.43
408.208
299.956
133.822
17.6906
17.684
17.6612
51.8946
123.053
20.365
23.4481
52.644
122.337
20.1148
407.274
51.5096
20.0401
120.129
49.5896
20.0451
191.406
188.184
26.7262
190.631
190.096
22.362
68.41
68.3172
1097.55
285.266
1097.78
286.716
22.4518
256.937
257.148
76.1079
76.2315
22.7259
22.2622
35.7582
22.2041
22.8322
22.2629
35.8096
22.2057
27.3795
1691.03
173.746
78.3554
27.805
1693.36
177.576
78.4809
23.5384
22.2103
191.851
21.9377
38.8873
22.1343
26.1068
23.2415
22.2111
192.594
21.9302
39.6088
22.132
25.9345
22.3617
68.9306
68.546
1097.09
286.785
22.4507
256.875
257.004
76.0017
76.7853
1098.2
286.825
22.8289
22.2625
35.598
22.2026
22.8297
22.2619
22.2045
36.6161
27.7542
1691.17
179.184
78.4682
23.2273
22.2095
191.93
21.9464
40.1907
22.1371
25.9255
27.7335
1691.71
171.337
78.4526
23.2313
22.21
21.9465
191.809
22.1379
39.8686
25.9378
22.1652
22.2161
22.1859
22.1844
22.1671
22.2156
22.1838
22.184
22.1665
22.2159
22.1848
22.1871
22.0498
22.1141
21.7754
21.7739
22.0851
22.0844
21.7236
22.0516
22.1128
21.7692
21.7698
22.0832
22.0833
21.7237
22.0497
22.1135
21.7709
21.7727
22.0833
22.0838
21.7207
22.0498
22.1142
21.7701
21.7709
22.0833
22.0837
21.7223
22.8257
22.2626
22.2039
36.3802
23.4337
22.2086
191.842
21.9458
39.7584
22.1338
26.02
27.4035
1691.39
175.381
78.4526
23.2353
22.211
21.9449
191.569
22.1377
39.8526
25.9923
27.8093
1691.2
173.395
78.563
22.3617
70.7301
68.7365
1098.33
286.6
22.4522
256.935
257.028
77.5472
76.4922
1098.13
287.337
22.826
22.2631
22.2067
36.5561
23.4885
22.2095
21.9376
191.832
22.1309
38.7303
26.0495
23.2513
22.2104
21.933
191.563
22.1333
40.5046
25.9983
27.4302
1692.13
173.818
78.4936
27.8107
1692.07
175.121
78.5342
22.4536
256.833
257.12
76.7689
77.5933
1098.5
286.503
1098.29
286.506
525.357
559.857
525.269
559.878
200.621
200.75
22.016
204.325
204.438
453.122
533.421
454.497
533.597
21.9318
205.537
207.713
206.902
207.181
88.6143
684.766
71.2705
447.544
29.4596
113.852
21.6768
21.9545
26.1081
114.504
21.4274
29.4519
114.992
21.6864
21.9531
26.2343
114.793
21.4172
97.3361
352.321
420.602
113.594
96.7995
352.434
420.52
114.153
31.1204
21.9283
125.862
20.9494
119.042
21.1898
36.625
31.1412
21.9265
126.027
20.9415
119.297
21.1986
36.558
200.636
200.527
22.0402
204.443
204.159
523.169
560.15
453.205
534.915
21.9959
205.968
207.493
207.214
206.975
454.444
533.705
29.4529
113.932
21.6653
21.9517
26.2181
114.553
21.4403
89.2281
689.155
71.2465
447.3
29.5809
21.6659
114.127
21.9503
26.2288
21.4448
114.57
96.4021
354.534
420.672
117.21
31.1216
21.787
128.739
20.9886
119.285
21.1751
38.0109
96.2729
354.484
420.548
116.886
31.0396
21.8002
20.9973
128.852
21.1739
119.206
37.9873
89.1539
689.245
71.3625
447.244
29.6004
21.6695
114.041
21.9553
26.2172
21.4375
114.458
89.1433
689.867
71.3825
447.091
31.0705
21.8178
128.867
20.9798
119.383
21.1852
38.1509
96.2151
354.668
420.537
116.964
30.9909
21.7958
20.9918
129.132
21.1785
119.23
38.0861
96.1727
354.467
420.501
116.944
200.571
200.511
22.0182
204.409
204.196
523.331
560.237
454.422
534.947
21.9231
207.968
205.558
207.292
206.946
453.207
533.66
29.5495
21.6833
114.45
21.9539
26.2295
21.4244
114.462
88.5932
689.266
71.3543
447.34
89.0013
688.98
71.463
447.218
31.2476
21.9225
20.936
126.323
21.2012
119.372
36.669
31.1106
21.9268
20.9443
126.044
21.1945
119.082
36.5966
97.1072
352.53
420.506
113.935
96.7202
352.335
420.48
114.37
524.752
559.712
524.89
559.912
21.9931
207.414
205.762
206.972
207.114
454.439
533.412
453.369
533.481
445.016
430.228
446.787
431.895
204.909
206.931
23.609
198.466
201.395
423.747
428.574
425.53
430.449
23.8023
190.698
195.324
195.42
197.356
128.992
342.193
116.103
321.091
43.5291
130.083
20.7399
22.2721
37.5184
129.443
20.6305
43.7487
129.424
20.745
22.2522
37.5076
129.685
20.6235
128.338
308.02
315.937
130.283
129.933
308.252
316.783
131.73
44.7752
22.4779
125.278
20.5109
129.847
20.5544
49.3612
44.9982
22.4922
125.554
20.5107
125.413
20.5642
50.5783
204.788
206.646
23.537
198.383
199.975
446.653
431.875
423.375
428.619
23.711
188.156
195.084
195.171
199.712
425.189
430.552
46.5532
132.956
20.8392
22.5351
39.4864
133.1
20.7455
133.654
344.775
120.307
323.412
46.8141
20.8408
133.025
22.5122
39.5455
20.7611
131.237
133.243
310.957
318.457
135.126
47.5016
22.8004
124.428
20.694
131.315
20.7226
52.9262
134.022
310.03
318.618
133.036
48.7753
22.8147
20.7063
122.359
20.7344
131.698
52.9428
133.405
344.619
120.216
323.436
47.0127
20.842
131.976
22.5352
39.4709
20.7612
133.348
133.17
344.698
119.941
323.429
48.5522
22.8256
127.788
20.7267
129.688
20.8129
52.5074
131.952
310.238
318.803
137.186
48.2602
22.8527
20.7147
127.498
20.737
130.836
53.0595
133.533
310.165
318.695
135.737
206.877
204.943
23.5857
199.955
199.638
445.083
430.311
425.412
430.399
23.7786
195.716
194.255
199.761
196.096
423.893
428.9
43.8462
20.7375
129.498
22.2494
37.5397
20.6209
130.432
128.109
342.339
116.159
320.905
128.903
342.332
116.281
321.276
44.9416
22.6348
20.5057
124.929
20.5756
126.617
49.7528
45.3932
22.5213
20.5005
123.138
20.5541
126.175
50.2688
128.851
307.864
316.384
131.536
128.632
307.391
316.29
131.717
446.617
431.782
445.108
430.411
23.8312
196.424
194.863
200.007
195.951
425.117
430.703
423.663
428.963
422.606
420.917
425.165
422.659
188.283
193.121
26.5379
192.023
193.476
418.866
420.931
420.372
422.116
26.1866
190.226
192.156
189.97
190.095
129.548
307.269
128.986
305.911
50.4813
117.558
20.4437
23.3415
49.8347
118.803
20.3537
49.3213
117.894
20.4417
23.314
49.4436
119.352
20.3416
128.482
304.188
303.486
126.101
124.331
303.968
303.716
128.552
49.7095
23.1804
116.143
20.1405
115.782
20.2639
48.8908
48.4676
23.3873
118.205
20.1201
115.968
20.2585
48.8227
190.425
193.945
26.3592
191.416
192.989
424.427
422.458
418.769
420.568
26.059
190.005
191.241
189.882
190.651
420.114
421.736
52.8597
126.209
20.6359
23.662
52.2167
121.302
20.538
133.625
309.274
127.132
307.878
52.6622
20.6635
124.437
23.7037
50.5446
20.5758
120.818
128.78
306.497
306.241
132.977
51.6526
23.4682
121.858
20.3252
122.458
20.4663
51.921
126.591
306.972
306.726
133.814
48.9089
23.7591
20.3506
118.226
20.4958
122.52
51.4804
135.895
309.436
130.171
307.867
53.3746
20.6746
122.688
23.7171
53.0733
20.5841
122.858
134.688
309.65
131.758
307.816
49.7223
23.7234
122.715
20.358
118.422
20.5181
50.8471
132.084
306.446
306.912
133.701
50.2905
23.7203
20.3745
121.784
20.5048
123.108
52.124
131.323
305.924
306.55
133.814
193.959
189.853
26.4514
193.836
189.153
422.33
420.853
420.511
422.479
25.6651
192.362
190.537
190.662
189.951
418.681
420.784
50.6345
20.4195
118.662
23.2884
48.2721
20.3269
120.114
130.818
305.923
124.388
305.624
129.515
305.754
124.534
305.398
48.1822
23.2651
20.1009
119.124
20.2602
119.694
49.7457
47.5524
23.2999
20.105
119.267
20.2362
114.902
49.7373
128.195
303.932
303.333
129.297
126.732
304.013
303.03
128.06
424.875
422.414
422.127
420.763
26.2336
192.759
189.77
191.319
187.167
419.469
422.18
418.436
420.8
418.784
417.032
420.296
418.494
184.407
189.008
26.35
189.12
191.235
415.62
416.306
417.433
417.832
25.4279
190.352
191.852
187.89
188.641
129.188
302.863
123.912
302.612
49.1592
117.961
19.9814
23.1491
49.013
119.051
19.8745
49.1336
114.692
19.9686
23.1977
48.8493
117.982
19.86
123.409
301.971
300.561
123.786
122.485
301.537
300.546
127.681
45.7978
23.0328
118.005
19.6793
116.664
19.7848
46.5813
45.5371
23.176
117.355
19.6715
109.541
19.774
48.2115
186.066
186.004
26.4409
188.387
192.202
420.127
418.618
414.8
416.367
26.0543
187.896
191.029
184.107
190.272
416.082
418.703
50.988
115.455
20.1541
23.271
50.2329
120.79
20.0399
131.661
305.424
130.68
305.638
51.4137
20.1859
120.306
23.5083
50.6015
20.056
121.281
130.033
304.548
303.197
132.131
46.9765
23.3786
121.161
19.8712
117.919
19.9669
50.7079
128.235
304.518
304.169
132.034
50.3472
23.4828
19.8553
120.458
19.9824
118.613
50.6228
132.229
304.222
127.794
304.543
51.9533
20.2155
119.33
23.3835
48.83
20.1082
121.795
133.058
305.983
130.198
305.647
49.0576
23.0948
120.59
19.8955
118.901
20.022
49.432
124.742
304.629
303.866
132.239
50.1407
23.3232
19.9354
120.532
20.0465
116.682
50.9504
127.88
304.057
304.056
132.181
189.66
186.469
26.4341
191.845
188.494
418.004
416.76
417.075
418.628
26.0014
191.629
188.51
189.188
185.097
414.598
416.101
49.0285
19.9419
112.733
23.0677
45.9365
19.8291
118.013
128.172
302.541
124.605
302.789
127.966
302.686
125.071
302.957
47.4202
22.8383
19.6334
114.618
19.7437
112.714
46.5419
47.6767
23.0252
19.6495
118.867
19.7558
112.005
48.1992
123.882
302.13
302.245
126.987
122.267
301.828
299.91
127.494
419.728
418.566
418.395
416.907
25.8387
187.925
188.846
187.068
184.731
415.801
417.912
414.462
416.996
415.467
413.399
416.338
415.076
186.946
184.816
25.8222
188.508
191.037
412.391
413.336
414.498
415.216
25.362
188.217
190.797
180.854
183.73
128.049
299.302
123.359
300.972
48.6246
115.765
19.5651
22.3704
47.6994
117.783
19.4921
48.9812
109.229
19.5549
22.9286
45.6948
118.011
19.485
121.719
300.268
299.262
128.317
119.176
300.81
299.861
128.154
44.8729
22.8463
117.144
19.3597
108.464
19.4428
48.0177
47.0409
22.5764
117.111
19.3679
114.172
19.4363
48.0582
185.045
186.513
25.9689
188.506
190.538
416.539
415.044
412.96
413.398
25.4958
188.187
189.72
185.644
185.347
413.56
415.383
50.3504
112.644
19.7091
22.6847
49.4108
121.115
19.8252
133.281
303.352
125.095
303.866
50.2901
19.7499
118.424
23.1809
49.3724
19.6298
122.065
126.255
302.673
302.772
131.482
49.2958
22.9892
120.837
19.7577
118.56
19.799
50.5275
122.191
303.093
302.191
132.696
46.7806
22.9491
19.7705
121.411
19.7759
118.41
50.2724
131.146
303.14
126.12
303.606
50.8171
19.8532
115.526
23.095
49.6113
19.7381
120.298
132.059
302.525
126.886
303.472
47.8757
22.6869
116.947
19.7572
114.764
19.7668
49.3903
125.148
302.916
302.472
131.503
49.3266
23.093
19.8569
120.511
19.8693
115.102
50.7599
128.208
302.703
301.485
133.275
188.957
185.786
25.9
190.793
188.665
414.867
414.225
414.479
415.031
25.4026
190.921
188.142
187.411
186.13
411.978
414.266
47.9562
19.5559
115.695
22.8223
47.1477
19.4986
117.466
128.198
299.796
118.673
301.643
126.78
300.868
121.221
301.197
46.8602
22.8375
19.4239
116.635
19.4865
109.648
46.3525
46.1396
22.5555
19.4322
118.17
19.4649
109.876
47.9913
123.99
300.804
300.686
127.535
121.088
300.885
300.012
127.987
416.391
415.201
414.779
413.655
25.3058
190.439
187.82
189.293
185.46
413.561
415.594
412.118
414.052
412.404
411.385
413.868
413
180.871
188.224
25.8391
188.46
190.528
411.281
411.546
412.123
413.393
25.1644
188.36
190.442
181.17
187.523
127.757
298.383
124.424
300.286
48.5835
108.523
19.4252
22.7143
46.4368
118.035
19.4174
47.6177
111.292
19.4329
22.8548
45.3312
117.59
19.4235
124.904
299.574
299.35
124.138
121.946
300
299.248
128.082
44.8712
22.6301
116.918
19.407
115.094
19.3588
47.9856
45.7914
22.5487
118.868
19.4208
108.094
19.3466
47.9565
186.39
185.21
25.7917
188.407
189.723
414.011
412.54
411.312
411.837
25.3178
189.244
189.857
183.116
185.422
411.669
413.632
50.7745
113.841
19.6818
22.682
49.0737
120.657
19.5888
132.57
300.89
129.639
302.523
50.9031
19.6396
118.941
22.5516
48.9775
19.6598
120.568
126.113
301.967
300.734
128.84
48.0485
22.6977
120.302
19.7353
114.944
19.7302
50.586
128.764
302.234
300.613
132.284
48.3762
23.1828
19.7028
120.416
19.6755
117.683
50.5781
131.83
301.462
126.439
302.322
50.691
19.6486
114.75
22.8356
46.6
19.7719
120.851
131.986
301.053
130.637
302.26
46.2698
23.0277
117.092
19.6692
113.878
19.5666
50.2178
127.565
301.907
300.881
132.38
46.1875
22.8683
19.79
119.883
19.7771
113.804
50.9815
129.218
301.806
299.86
132.325
187.926
184.418
25.7448
190.464
187.996
412.43
411.265
412.609
413.124
25.4333
190.587
188.264
182.721
180.542
410.377
411.999
47.4997
19.3347
114.954
22.7533
46.8029
19.4475
117.397
127.738
299.424
123.183
300.011
127.915
299.637
123.273
300.133
44.3525
22.5348
19.4278
117.834
19.4441
111.914
48.5382
46.1281
22.7662
19.4515
117.587
19.379
115.196
47.7605
124.183
299.564
298.205
128.046
123.117
299.769
299.205
127.629
414.148
412.89
412.516
411.546
25.2443
190.858
189.918
186.137
182.987
411.53
413.376
410.592
412.09
410.507
409.77
412.491
411.292
185.603
186.034
25.8367
187.431
189.975
409.202
410.029
411.142
412.22
25.2382
188.017
190.779
180.487
182.582
128.306
297.875
123.945
299.827
48.3977
108.905
19.3701
22.4119
46.0512
118.505
19.3864
48.4815
115.241
19.3843
22.9461
44.3436
118.735
19.401
120.106
298.926
297.067
129.377
126.116
299.24
298.479
128.81
45.7708
22.6837
117.219
19.3671
115.382
19.3518
48.7536
44.9567
22.9748
118.082
19.3691
112.529
19.3721
48.57
185.095
186.505
26.1535
188.805
190.424
412.336
411.251
409.262
410.519
25.3934
188.467
189.914
184.009
187.463
411.106
412.488
50.9564
116.304
19.5924
22.8177
48.8505
120.8
19.7657
131.84
300.324
126.098
301.633
50.4713
19.6348
117.891
23.0652
47.6442
19.6529
120.551
127.503
300.494
300.932
131.779
46.3265
22.8774
121.287
19.8072
111.737
19.7602
51.3066
125.948
301.229
299.989
132.029
48.426
23.1649
19.8106
120.454
19.6643
118.025
51.1418
131.829
300.891
126.568
301.668
50.5564
19.6947
114.147
22.958
49.3221
19.7321
120.256
132.344
300.979
129.76
301.493
48.4758
22.9456
117.18
19.6551
118.717
19.6132
50.4539
123.539
301.178
299.452
132.13
49.3172
23.0175
19.8029
120.538
19.7516
115.13
50.841
129.727
301.185
299.986
132.499
188.029
181.265
25.8099
189.931
188.57
411.03
409.91
411.388
411.82
25.4335
190.304
187.652
188.001
185.237
408.821
411.247
47.5518
19.4043
109.922
22.8192
46.6084
19.3708
117.396
127.352
298.092
124.028
299.214
126.875
298.553
121.821
299.185
44.431
22.834
19.4154
117.612
19.441
110.358
47.0106
45.8675
22.6031
19.4868
117.251
19.3683
111.579
47.9543
120.365
299.042
297.808
127.365
121.028
298.647
297.574
126.926
412.254
411.256
411.246
409.983
25.785
190.986
188.29
184.423
184.916
410.256
412.032
408.674
409.959
409.73
408.685
412.004
410.048
184.826
188.031
26.1374
187.459
190.025
408.131
409.118
410.559
410.96
25.5168
187.436
190.156
183.747
187.832
128.462
297.117
119.04
299.015
48.2177
109.03
19.3892
22.6415
45.4504
118.526
19.4919
48.2754
111.948
19.4727
22.7535
45.423
118.683
19.4608
119.912
298.133
297.896
129.213
124.662
298.619
298.098
128.862
45.7763
22.7843
117.449
19.6388
115.349
19.4817
48.6292
46.6707
23.3292
119.166
19.6292
113.887
19.4766
49.1898
184.726
187.054
26.2633
188.146
190.019
411.864
409.777
408.32
409.479
25.3197
188.35
189.578
183.425
185.506
408.869
411.319
51.3633
112.928
19.6828
23.0084
46.6872
120.716
19.8376
132.548
299.523
127.874
300.673
51.1489
19.6932
116.721
23.5018
49.8707
19.8835
120.611
130.449
301.037
299.545
129.091
46.7743
23.1129
121.978
19.9304
113.163
19.8331
51.6407
129.426
300.424
299.278
132.594
46.2864
23.0689
19.9697
120.174
19.79
114.231
51.7828
131.879
300.39
125.893
300.784
51.4606
19.7541
114.425
23.1116
46.589
19.7498
121.086
132.488
300.029
129.959
300.908
49.6978
23.1743
120.502
19.7464
112.434
19.738
50.9811
125.309
300.411
299.73
132.25
49.6782
23.4135
19.9426
120.35
19.7711
113.83
51.1051
129.93
300.324
299.289
132.412
187.408
182.522
25.9148
189.944
187.537
409.536
408.241
410.45
410.775
25.2741
189.978
186.959
186.652
181.966
407.429
409.674
48.1717
19.4667
111.147
23.013
46.0267
19.446
117.962
127.314
297.463
121.86
298.659
127.151
296.938
121.776
298.275
44.4562
22.9303
19.5613
119.399
19.5067
110.297
47.4601
46.2497
23.0478
19.6008
117.441
19.4541
111.513
48.1871
123.134
298.286
296.845
127.293
120.669
298.04
297.081
128.08
411.237
410.19
409.369
408.7
25.1675
186.027
186.139
188.5
183.996
408.521
411.942
407.689
410.444
408.857
407.866
409.817
409.337
185.788
187.964
26.2707
187.914
189.903
407.495
408.384
409.011
409.894
25.6446
186.919
190.338
183.106
182.779
127.914
297.583
119.255
298.22
49.0422
115.163
19.6149
22.9604
46.918
117.684
19.6808
48.7461
110.449
19.6221
23.0153
47.6042
119.278
19.5982
125.552
297.966
296.547
128.017
122.136
297.828
297.017
128.025
46.398
22.9332
117.463
19.7707
115.425
19.7162
48.7601
45.7192
22.9841
118.787
19.789
109.648
19.6071
48.6803
183.924
184.636
26.4832
187.739
189.205
409.804
409.161
407.538
408.506
25.6436
188.092
189.153
183.825
185.03
408.233
409.962
51.6545
118.283
19.7914
23.2988
46.9922
121.451
20.0359
132.6
299.008
124.909
300.078
51.3117
19.8119
114.178
23.2452
49.8736
20.0399
120.464
127.652
300.737
299.615
133.453
49.5397
23.2952
121.901
20.1078
111.565
20.023
51.5764
126.351
300.245
298.979
132.98
49.1749
23.5664
20.1068
121.563
19.9915
110.875
51.5926
132.631
299.213
120.986
300.36
51.6503
19.9079
116.245
23.7969
46.8587
19.8446
122.002
132.344
298.954
128.481
300.228
47.7492
23.7252
121.384
19.8376
115.245
19.8511
48.8906
123.096
300.383
299.177
133.753
49.3407
23.3761
20.1257
121.276
20.0975
119.519
51.3648
126.184
299.914
298.99
132.113
186.664
182.221
26.0675
189.881
186.938
408.357
407.481
408.763
409.936
25.5887
189.781
187.147
186.062
183.213
407.227
408.192
48.3449
19.5697
111.769
22.83
46.9974
19.6279
118.274
128.101
296.157
116.585
297.643
128.216
296.938
122.858
298.092
47.0432
22.9208
19.594
117.488
19.609
109.926
47.2687
45.4011
23.3324
19.7295
118.457
19.6599
108.009
48.5699
124.825
298.409
298.339
127.369
124.548
297.688
296.866
127.574
409.863
409.186
408.763
408.032
26.101
187.87
188.64
185.742
185.852
408.33
410.065
406.951
409.743
408.008
407.25
410.213
408.671
180.709
183.121
26.4647
187.301
190.542
406.702
407.788
408.485
409.324
25.6338
186.9
190.532
181.967
183.152
127.404
295.786
122.388
297.887
49.1583
107.635
19.5825
23.1284
43.9553
118.912
19.8081
48.8105
109.607
19.7447
22.7599
46.4031
119.541
19.7199
125.2
297.436
295.973
129.147
119.139
297.86
296.645
128.695
47.7669
23.3471
118.169
19.8972
115.031
19.6895
48.8384
46.8433
23.6259
118.18
19.9034
116.296
19.7243
48.6715
181.433
185.897
26.2403
188.851
189.684
409.219
408.714
406.813
407.605
25.6655
187.646
189.962
185.542
183.266
407.774
410.643
51.2662
118.006
19.9132
23.9268
48.2092
121.937
20.165
132.064
299.262
125.915
299.658
51.6085
19.9114
112.344
23.7507
49.8985
20.1813
121.943
128.571
299.449
298.036
132.292
48.267
23.5672
122.764
20.249
112.386
20.1596
51.4359
126.253
299.759
297.536
132.173
48.2743
23.8227
20.3183
121.631
20.115
112.207
51.7449
133.035
299.567
129.751
299.933
51.1164
20.0423
118.41
24.1244
48.4053
19.9203
121.31
131.893
297.976
126.463
300.059
48.6938
23.5221
117.418
20.1434
119.407
20.1199
51.5598
128.095
299.685
298.552
132.883
48.1594
23.6774
20.2518
121.313
20.1991
118.82
51.1036
125.323
299.811
298.35
132.208
182.59
179.568
26.2141
190.29
187.72
408.228
407.226
408.122
410.096
25.1572
190.012
187.204
182.829
185.485
406.703
408.189
48.3085
19.6365
110.25
23.0164
45.2067
19.7588
118.545
127.838
297.286
124.402
297.933
126.995
296.022
120.807
297.426
47.6853
23.1435
19.7145
118.477
19.7424
112.339
48.9514
45.7073
23.2758
19.8538
118.195
19.7681
115.688
48.6223
125.065
297.75
296.455
127.842
121.01
297.254
296.298
127.294
409.48
408.824
407.999
407.165
25.7897
190.719
188.612
184.667
182.255
407.818
410.779
406.492
408.102
407.492
406.727
409.065
408.341
182.163
183.361
26.5813
187.602
190.78
406.554
407.256
408.012
408.671
25.7651
187.075
189.656
182.429
187.289
127.624
296.322
124.183
297.371
48.7798
112.507
19.8067
23.2595
47.1678
117.679
19.8785
48.8179
109.596
19.7138
23.5446
44.0721
119.368
19.9467
119.797
297.045
296.002
122.675
120.928
297.447
296.517
127.732
46.5979
23.1921
117.548
19.9869
109.408
19.9005
48.8758
47.515
23.7118
118.897
20.0513
115.373
19.8428
48.6672
181.605
186.973
26.3679
187.861
189.637
408.854
407.941
406.393
408.277
25.2316
188.088
189.18
181.026
186.1
407.43
408.655
51.3788
120.102
20.1313
24.085
48.1885
122.769
20.1081
132.044
298.738
126.386
299.502
51.3047
20.0511
112.137
23.3856
48.0444
20.3088
122.334
126.32
299.842
299.209
133.044
49.1081
24.1262
122.036
20.3939
120.598
20.1292
52.0239
127.893
299.428
297.64
133.132
48.4057
24.2766
20.3857
120.73
20.1541
118.866
51.6835
132.059
298.091
128.647
299.488
50.8952
19.9573
118.669
23.6661
47.6908
20.2548
121.157
131.355
299.117
124.509
299.605
46.8315
24.2314
117.432
20.0539
114.104
20.0827
52.4875
125.512
299.408
298.978
131.804
47.9915
23.8216
20.3388
121.707
20.327
112.372
51.4867
125.177
299.405
297.962
131.884
187.441
184.98
26.4018
189.319
187.145
407.777
406.36
408.908
408.632
25.5448
189.668
187.191
183.452
185.356
405.945
408.247
49.0567
19.7411
115.096
23.7355
46.8232
19.8445
118.271
127.835
296.702
124.112
297.428
127.542
296.342
122.238
297.366
47.2821
23.7127
20.0327
119.494
19.9816
115.867
46.6658
46.8163
23.3284
19.9725
118.282
19.8839
115.973
48.7508
122.74
297.419
296.049
127.455
122.941
297.253
296.781
128.124
409.034
407.951
407.67
406.944
25.8277
187.926
183.504
188.075
186.799
407.532
409.974
405.962
408.942
407.155
409.768
181.3
186.068
132.163
295.638
121.419
298.466
51.1191
116.443
19.7233
24.2427
47.698
120.789
20.1345
51.0784
113.002
19.6927
23.3287
47.7296
121.777
20.3583
185.596
187.303
26.5615
189.019
189.18
408.622
407.424
112.849
20.1853
49.9258
298.308
130.116
20.2761
112.134
48.7273
132.05
298.077
126.098
299.471
51.3237
20.2612
112.839
23.5176
48.1108
20.192
121.361
132.048
297.622
126.31
299.541
47.2619
19.9121
123.981
47.6096
24.0925
20.1483
113.847
125.929
298.963
186.239
180.459
406.957
50.7794
19.7462
109.842
24.216
47.219
20
121.685
131.388
296.574
118.878
131.788
296.645
117.481
298.594
408.794
407.872
408.261
407.415
25.6328
185.37
188.722
408.623
409.334
24.9278
204.346
290.575
24.9327
203.952
290.565
287.765
289.578
24.9122
203.96
290.087
24.9008
203.849
24.8992
203.335
24.9324
204.358
290.443
24.9214
204.355
24.935
204.721
290.238
290.274
22.1797
22.1783
22.1824
22.2008
22.2008
22.1866
22.1805
22.1879
22.1823
22.1802
22.1877
22.1809
23.9853
22.4286
22.4465
22.3944
22.231
22.354
23.6055
22.6827
22.5603
22.3118
22.2117
22.3177
22.4286
24.0519
22.4456
22.2296
22.395
22.3529
22.3141
22.2129
22.3178
24.2372
22.6972
22.5602
9463.35
9463.95
52.6106
22.6311
22.6274
25.3596
6232.15
23.0281
29.0705
6232.91
22.8259
29.1281
502.364
84.0985
395.444
144.069
388.127
140.339
491.053
650.499
448.315
509.589
1272.38
327.056
507.742
76.7714
346.275
146.886
639.186
356.939
131.416
676.589
295.635
481.38
310.171
659.365
526.488
562.455
502.372
84.0356
144.21
395.469
140.352
388.189
491.144
650.891
447.486
509.567
1272.12
327.137
507.6
76.8821
146.997
346.395
639.474
131.252
357.084
676.903
295.735
481.4
310.286
659.603
525.748
562.244
221.048
486.071
485.463
464.73
464.141
226.187
70.7178
36.9469
330.52
195.404
65.5205
39.6092
333.548
70.5667
37.065
330.785
195.513
65.9833
39.4327
334.193
209.553
375.372
375.679
208.054
447.642
447.601
81.6622
349.014
201.736
46.1966
43.9001
343.659
86.8465
81.2836
350.153
201.935
46.3343
43.7069
344.467
87.2382
360.713
123.435
327.725
159.551
332.717
160.591
355.461
462.49
248.802
333.079
471.593
241.727
366.294
120.601
344.082
161.006
376.067
337.039
159.783
458.408
228.578
326.734
234.525
453.541
438.095
433.841
364.067
128.451
163.834
331.391
165.324
336.028
358.85
464.629
252.04
335.445
473.496
245.094
369.587
126.406
164.638
346.444
378.591
167.457
340.472
461.047
232.036
329.064
238.426
455.929
439.621
435.709
243.167
431.622
431.45
433.854
433.761
242.61
122.258
64.4765
329.045
204.444
118.285
67.8291
325.237
121.954
63.2762
328.949
203.408
117.262
66.7993
325.272
242.817
439.629
439.479
241.441
435.626
435.539
125.443
320.079
204.048
73.718
69.5172
323.269
129.651