/*--------------------------------*- C++ -*----------------------------------*\
| =========                 |                                                 |
| \\      /  F ield         | OpenFOAM: The Open Source CFD Toolbox           |
|  \\    /   O peration     | Version:  2206                                  |
|   \\  /    A nd           | Website:  www.openfoam.com                      |
|    \\/     M anipulation  |                                                 |
\*---------------------------------------------------------------------------*/
FoamFile
{
    version     2.0;
    format      ascii;
    arch        "LSB;label=32;scalar=64";
    class       volScalarField;
    location    "90";
    object      p;
}
// * * * * * * * * * * * * * * * * * * * * * * * * * * * * * * * * * * * * * //

dimensions      [0 2 -2 0 0 0 0];

internalField   nonuniform List<scalar> 
66616
(
-0.00029514
-0.00026905
-0.000268961
-0.00023027
-0.000810009
-0.00082056
-0.000820353
-0.000797415
-0.00115479
-0.00115766
-0.00115768
-0.0011399
-0.00144381
-0.00144491
-0.00144493
-0.00142799
-0.00171609
-0.00171686
-0.00171686
-0.00170053
-0.00197789
-0.00197855
-0.00197858
-0.00196277
-0.00223042
-0.00223111
-0.00223114
-0.00221584
-0.00247279
-0.00247377
-0.0024738
-0.00245908
-0.00270255
-0.00270344
-0.00270354
-0.0026896
-0.00292147
-0.00292198
-0.00292213
-0.0029088
-0.00313441
-0.00313457
-0.00313475
-0.00312179
-0.00334376
-0.00334362
-0.00334415
-0.00333146
-0.000189437
-0.000201211
-0.000201243
-0.000189447
-0.000201225
-0.000201237
-0.000204643
-0.000204661
-0.000204645
-0.000204661
-0.000201248
-0.000201262
-0.000189436
-0.000201231
-0.000201255
-0.000189464
-0.000230301
-0.00074023
-0.000269408
-0.000269442
-0.000708001
-0.000708012
-0.000230321
-0.00074023
-0.000269036
-0.000269469
-0.000708444
-0.000708388
-0.000269485
-0.000708478
-0.00070842
-0.0002303
-0.000740234
-0.000269
-0.000708119
-0.000708131
-0.000740255
-0.000797397
-0.00110092
-0.000820295
-0.000820305
-0.00108113
-0.00108115
-0.000797408
-0.00110092
-0.000820555
-0.000820528
-0.0010812
-0.00108116
-0.000820541
-0.0010812
-0.00108117
-0.000797415
-0.00110091
-0.000820393
-0.00108118
-0.00108118
-0.00110092
-0.00113991
-0.00139213
-0.00115767
-0.00115768
-0.00137492
-0.00137492
-0.00113991
-0.00139212
-0.00115768
-0.00115766
-0.00137492
-0.00137491
-0.00115765
-0.00137493
-0.00137491
-0.0011399
-0.00139213
-0.00115771
-0.00137496
-0.00137496
-0.00139214
-0.00142798
-0.0016662
-0.00144493
-0.00144494
-0.00164991
-0.00164992
-0.00142798
-0.00166619
-0.00144492
-0.00144492
-0.00164994
-0.00164991
-0.00144492
-0.00164992
-0.00164991
-0.00142798
-0.00166619
-0.00144497
-0.00164992
-0.00164993
-0.0016662
-0.00170054
-0.00192964
-0.00171687
-0.00171688
-0.001914
-0.001914
-0.00170053
-0.00192964
-0.00171689
-0.00171688
-0.00191403
-0.00191401
-0.00171686
-0.00191403
-0.00191401
-0.00170052
-0.00192966
-0.00171689
-0.00191404
-0.00191403
-0.00192968
-0.00196274
-0.00218392
-0.00197856
-0.00197856
-0.00216885
-0.00216887
-0.00196274
-0.00218392
-0.00197856
-0.00197855
-0.00216889
-0.00216888
-0.00197854
-0.00216889
-0.00216888
-0.00196275
-0.00218392
-0.0019786
-0.00216889
-0.00216889
-0.00218393
-0.00221582
-0.00242865
-0.00223114
-0.00223115
-0.0024143
-0.0024143
-0.00221583
-0.00242864
-0.00223112
-0.00223111
-0.00241434
-0.00241432
-0.00223112
-0.00241434
-0.00241434
-0.00221582
-0.00242865
-0.00223118
-0.00241429
-0.0024143
-0.00242864
-0.00245911
-0.00266097
-0.00247381
-0.00247383
-0.00264743
-0.00264742
-0.0024591
-0.00266095
-0.00247378
-0.00247376
-0.00264746
-0.00264749
-0.00247379
-0.00264745
-0.00264747
-0.00245909
-0.00266095
-0.00247384
-0.00264743
-0.00264743
-0.00266099
-0.00268963
-0.00288132
-0.00270358
-0.00270355
-0.00286824
-0.00286828
-0.00268957
-0.00288136
-0.00270348
-0.0027035
-0.00286837
-0.00286838
-0.00270345
-0.00286837
-0.0028684
-0.00268961
-0.0028814
-0.00270357
-0.0028683
-0.00286833
-0.00288142
-0.00290879
-0.00309492
-0.00292211
-0.00292212
-0.00308213
-0.00308214
-0.00290878
-0.00309492
-0.00292201
-0.00292199
-0.00308236
-0.0030823
-0.00292202
-0.00308233
-0.00308235
-0.00290883
-0.00309487
-0.00292214
-0.0030821
-0.00308216
-0.00309495
-0.00312183
-0.00330456
-0.00313481
-0.0031348
-0.00329211
-0.00329215
-0.00312177
-0.00330469
-0.00313462
-0.00313463
-0.0032924
-0.00329244
-0.00313458
-0.00329251
-0.00329245
-0.00312178
-0.00330458
-0.00313485
-0.00329213
-0.00329215
-0.00330468
-0.00333151
-0.00334417
-0.0033442
-0.00333148
-0.0033436
-0.00334361
-0.00334363
-0.00333149
-0.0033442
-0.000112928
-8.79847e-05
-0.000100191
-0.000100254
-3.9872e-05
-7.41203e-05
-6.24446e-05
-8.68694e-05
-3.96784e-05
-7.4102e-05
-8.6824e-05
-6.23714e-05
-5.83083e-05
-6.97261e-05
-6.96527e-05
-0.000460789
-8.37302e-05
-0.000146636
-0.00047588
-0.000146296
-0.000470372
-0.000460958
-8.37374e-05
-0.000146602
-0.000476012
-0.000295168
-0.000295153
-0.000295171
-0.000697586
-0.0006976
-0.000697615
-0.000697628
-0.000456897
-0.000143567
-0.000276173
-0.000418615
-0.000190127
-0.00046574
-0.000421136
-0.000146295
-0.000470381
-0.00045685
-0.000276039
-0.000143398
-0.000418758
-0.000190217
-0.00042134
-0.000465678
-0.000190443
-0.00019029
-0.000455418
-0.000463524
-0.000463559
-0.000951899
-0.000828692
-0.000823041
-0.000953876
-0.000828544
-0.000954866
-0.000952317
-0.00082867
-0.000823141
-0.000953938
-0.000810081
-0.000810084
-0.000810099
-0.0010771
-0.0010771
-0.0010771
-0.00107711
-0.000945093
-0.000818491
-0.000815873
-0.000915708
-0.00081106
-0.000948305
-0.000912148
-0.000828524
-0.00095491
-0.000944343
-0.000815206
-0.000818542
-0.000915502
-0.000810641
-0.000911558
-0.000948011
-0.000821044
-0.000821191
-0.000938927
-0.000950954
-0.000950863
-0.00125191
-0.00114449
-0.00114439
-0.00125212
-0.00114527
-0.00125271
-0.00125215
-0.00114416
-0.00114386
-0.00125215
-0.00115485
-0.00115486
-0.00115486
-0.00137363
-0.00137362
-0.00137363
-0.00137363
-0.00125008
-0.0011436
-0.00115658
-0.00123173
-0.00114308
-0.00125044
-0.00123094
-0.00114499
-0.00125271
-0.00124973
-0.00115641
-0.00114391
-0.00123175
-0.00114353
-0.00123083
-0.00125028
-0.00114333
-0.00114357
-0.0012497
-0.00125131
-0.00125126
-0.00153146
-0.0014294
-0.00142928
-0.0015318
-0.00142969
-0.00153201
-0.00153184
-0.00142921
-0.00142888
-0.00153197
-0.00144387
-0.00144387
-0.00144388
-0.00164909
-0.00164908
-0.00164909
-0.00164909
-0.00153029
-0.00142951
-0.00144454
-0.0015141
-0.00142942
-0.0015307
-0.00151374
-0.00142954
-0.00153214
-0.00152985
-0.00144449
-0.00142977
-0.00151408
-0.00142987
-0.00151368
-0.00153041
-0.00142867
-0.00142883
-0.00153066
-0.00153124
-0.0015311
-0.00179972
-0.00170164
-0.00170141
-0.00180014
-0.00170178
-0.00180026
-0.00180019
-0.00170151
-0.00170109
-0.00180035
-0.00171613
-0.00171614
-0.00171615
-0.00191333
-0.00191332
-0.00191332
-0.00191332
-0.00179871
-0.00170193
-0.0017166
-0.00178328
-0.00170175
-0.00179915
-0.001783
-0.00170165
-0.00180041
-0.00179818
-0.00171656
-0.00170214
-0.00178325
-0.00170215
-0.00178295
-0.00179887
-0.00170107
-0.00170119
-0.00179914
-0.0017997
-0.00179953
-0.00205847
-0.00196379
-0.00196353
-0.0020589
-0.00196387
-0.00205894
-0.00205893
-0.00196367
-0.00196321
-0.00205908
-0.00197794
-0.00197795
-0.00197795
-0.00216818
-0.00216818
-0.00216817
-0.00216819
-0.00205753
-0.00196412
-0.00197836
-0.00204267
-0.00196389
-0.00205805
-0.00204247
-0.00196379
-0.00205914
-0.00205699
-0.00197832
-0.00196437
-0.00204267
-0.00196433
-0.00204241
-0.00205772
-0.00196331
-0.00196343
-0.00205793
-0.00205855
-0.00205838
-0.00230821
-0.0022168
-0.00221661
-0.00230851
-0.00221688
-0.0023086
-0.00230867
-0.00221666
-0.00221627
-0.00230872
-0.00223048
-0.00223048
-0.00223049
-0.00241334
-0.00241335
-0.00241334
-0.00241335
-0.00230728
-0.00221715
-0.00223096
-0.00229297
-0.00221692
-0.00230776
-0.00229279
-0.00221681
-0.00230877
-0.00230675
-0.00223094
-0.00221742
-0.00229295
-0.00221738
-0.00229275
-0.00230748
-0.00221638
-0.00221653
-0.00230763
-0.00230826
-0.00230808
-0.0025471
-0.0024601
-0.0024599
-0.0025474
-0.00246006
-0.00254735
-0.0025475
-0.00245993
-0.00245954
-0.00254755
-0.00247286
-0.00247285
-0.00247287
-0.00264634
-0.00264633
-0.00264633
-0.00264633
-0.00254621
-0.00246039
-0.00247359
-0.00253274
-0.00246017
-0.00254673
-0.00253247
-0.00245996
-0.00254754
-0.00254568
-0.00247356
-0.00246066
-0.00253267
-0.00246063
-0.00253241
-0.00254638
-0.00245967
-0.00245982
-0.00254655
-0.00254715
-0.00254702
-0.00277249
-0.00269045
-0.00269029
-0.00277282
-0.00269051
-0.00277288
-0.00277298
-0.00269037
-0.00268993
-0.00277305
-0.0027026
-0.0027026
-0.00270259
-0.0028675
-0.00286749
-0.00286751
-0.00286752
-0.00277179
-0.00269083
-0.0027032
-0.00275926
-0.00269048
-0.00277234
-0.00275896
-0.0026904
-0.00277304
-0.0027712
-0.00270324
-0.00269101
-0.0027592
-0.00269095
-0.00275889
-0.002772
-0.00269026
-0.00269035
-0.00277237
-0.00277285
-0.00277261
-0.00298869
-0.00290943
-0.00290915
-0.00298898
-0.00290948
-0.00298902
-0.00298908
-0.00290932
-0.00290893
-0.00298913
-0.00292154
-0.00292154
-0.00292156
-0.00308165
-0.00308165
-0.00308164
-0.00308166
-0.00298803
-0.00290979
-0.00292178
-0.00297608
-0.00290956
-0.00298854
-0.00297581
-0.00290944
-0.00298923
-0.00298742
-0.00292183
-0.00291003
-0.00297592
-0.00290992
-0.00297566
-0.00298822
-0.00290926
-0.0029094
-0.00298874
-0.00298902
-0.00298895
-0.00320022
-0.00312238
-0.00312227
-0.00320039
-0.0031225
-0.00320058
-0.00320059
-0.00312237
-0.00312206
-0.00320067
-0.00313448
-0.00313449
-0.0031345
-0.00329181
-0.00329186
-0.00329185
-0.00329188
-0.00319958
-0.00312284
-0.00313441
-0.00318791
-0.00312259
-0.0032
-0.00318769
-0.00312247
-0.00320058
-0.00319906
-0.00313456
-0.00312307
-0.00318762
-0.00312305
-0.00318749
-0.00319968
-0.00312238
-0.00312243
-0.00320019
-0.0032006
-0.00320037
-0.00340859
-0.00333201
-0.00333189
-0.00340884
-0.00333203
-0.00340899
-0.00333209
-0.00333182
-0.00334388
-0.00334386
-0.00334388
-0.00340781
-0.00333255
-0.00334345
-0.00339674
-0.00333248
-0.00340837
-0.00339676
-0.00333211
-0.00340729
-0.00334406
-0.00333277
-0.00333275
-0.00339663
-0.00333198
-0.00333201
-0.00340846
-0.00340896
-0.00340873
-5.83776e-05
-6.92041e-05
-6.92538e-05
-6.3465e-05
-9.42049e-05
-6.37741e-05
-9.42656e-05
-8.84464e-05
-0.000103576
-0.000103489
-7.59133e-05
-7.59203e-05
-3.96967e-05
-7.40056e-05
-6.23792e-05
-8.68501e-05
-3.96878e-05
-7.3985e-05
-6.25054e-05
-8.68454e-05
-6.3212e-05
-3.84307e-05
-8.78738e-05
-0.000148283
-6.32039e-05
-3.84791e-05
-8.7925e-05
-0.00014829
-7.29446e-05
-9.9968e-05
-0.000120549
-0.000186069
-7.16548e-05
-0.000118933
-0.000161684
-7.29385e-05
-9.9963e-05
-0.000120609
-0.000186077
-7.16994e-05
-0.000118927
-0.000161687
-5.83568e-05
-6.96796e-05
-6.92577e-05
-6.35832e-05
-9.40971e-05
-8.84307e-05
-0.000103913
-0.000103742
-7.54964e-05
-7.59434e-05
-6.38091e-05
-9.42784e-05
-3.98574e-05
-7.41256e-05
-6.24351e-05
-8.68661e-05
-3.98536e-05
-7.3976e-05
-8.68648e-05
-6.25525e-05
-6.32041e-05
-3.91649e-05
-8.79166e-05
-0.000148376
-7.29e-05
-0.000100239
-0.000120924
-0.000186012
-7.16374e-05
-0.000118914
-0.000161688
-6.31953e-05
-3.92466e-05
-8.7927e-05
-0.000148384
-7.28939e-05
-9.99541e-05
-0.000186034
-0.000121083
-0.000118908
-7.17665e-05
-0.000161702
-0.000112931
-8.79886e-05
-0.000100194
-0.000100261
-0.000112932
-8.79758e-05
-0.000100258
-0.000100183
-0.000112937
-8.7965e-05
-0.000100262
-0.000100182
-0.000146174
-0.000107353
-0.000221053
-0.00022092
-0.00012639
-0.000126328
-0.000235726
-0.00014617
-0.000107344
-0.000221056
-0.000220924
-0.000126388
-0.000126336
-0.000235734
-0.000146181
-0.000107332
-0.000220927
-0.000221044
-0.000126324
-0.00012639
-0.000235771
-0.000146178
-0.000107324
-0.000220933
-0.000221051
-0.000126329
-0.000126385
-0.000235774
-3.98696e-05
-7.39729e-05
-8.68757e-05
-6.25589e-05
-7.29199e-05
-0.000100229
-0.000121037
-0.000186029
-7.16769e-05
-0.000118922
-0.000161726
-6.3231e-05
-3.91848e-05
-8.79436e-05
-0.000148421
-7.29154e-05
-9.9942e-05
-0.000186048
-0.000121196
-0.00011892
-7.17749e-05
-0.000161739
-6.32266e-05
-3.92955e-05
-8.79441e-05
-0.000148424
-5.8342e-05
-6.97177e-05
-6.91907e-05
-6.38851e-05
-9.41071e-05
-8.84167e-05
-0.00010406
-0.000103574
-7.55159e-05
-7.5902e-05
-6.34941e-05
-9.4204e-05
-3.96704e-05
-7.4086e-05
-8.68285e-05
-6.24812e-05
-7.29382e-05
-0.000100214
-0.000186082
-0.000120531
-0.000118932
-7.16509e-05
-0.000161677
-7.29338e-05
-0.000100194
-0.000186089
-0.000120584
-0.000118928
-7.17045e-05
-0.000161677
-6.32054e-05
-3.83871e-05
-8.78831e-05
-0.000148288
-6.32021e-05
-3.84013e-05
-8.78925e-05
-0.000148299
-8.83867e-05
-0.000104315
-0.000103913
-7.55376e-05
-7.54562e-05
-6.39269e-05
-9.41353e-05
-6.3586e-05
-9.40545e-05
-0.000146244
-0.000470345
-0.000146282
-0.000470374
-0.000190197
-0.000190153
-0.000455404
-0.000463488
-0.00046348
-0.00077789
-0.000531648
-0.00077813
-0.000531489
-0.000536006
-0.000768797
-0.000769233
-0.000533107
-0.000533051
-0.00046079
-8.37537e-05
-0.000146641
-0.000475903
-0.00045685
-0.000143422
-0.000276149
-0.000418587
-0.000190225
-0.000465694
-0.000421372
-0.000456853
-0.00014344
-0.000276159
-0.0004186
-0.000190225
-0.00046571
-0.00042138
-0.00054173
-0.000779028
-0.000540832
-0.000771682
-0.000541725
-0.000779032
-0.000540834
-0.000771691
-0.000541455
-0.000571769
-0.000763616
-0.00070253
-0.00054323
-0.00056889
-0.000753333
-0.00054146
-0.000571774
-0.000763629
-0.000702546
-0.000543225
-0.000568891
-0.000753332
-0.000190323
-0.000190201
-0.00045541
-0.000463546
-0.00046348
-0.000146248
-0.000470389
-0.000777914
-0.000531659
-0.000536024
-0.000768857
-0.000769201
-0.000533142
-0.000533058
-0.000778121
-0.000531506
-0.000456872
-0.000143556
-0.000276169
-0.000418583
-0.000190103
-0.000465718
-0.000421118
-0.000460961
-8.37546e-05
-0.000146601
-0.000476023
-0.000456885
-0.000276206
-0.00014358
-0.00041845
-0.000190107
-0.000421096
-0.000465755
-0.000541496
-0.000779303
-0.00054065
-0.000772674
-0.000541381
-0.000571808
-0.00076459
-0.000703507
-0.00054314
-0.000569054
-0.000754583
-0.000541491
-0.000779308
-0.000540646
-0.000772687
-0.000541381
-0.000571742
-0.000703466
-0.000764627
-0.000568969
-0.000543127
-0.000754595
-0.000460981
-8.37324e-05
-0.000146642
-0.000476036
-0.000456911
-0.000276222
-0.000143622
-0.000418481
-0.00019014
-0.000421116
-0.000465794
-0.000460987
-8.37756e-05
-0.000146639
-0.000476068
-0.000541396
-0.000571857
-0.00076459
-0.000703526
-0.000543175
-0.000569085
-0.000754572
-0.000541512
-0.000779306
-0.000540671
-0.000772682
-0.000541395
-0.000571768
-0.000703475
-0.000764636
-0.000568981
-0.000543171
-0.00075459
-0.000541509
-0.000779311
-0.000540673
-0.000772685
-0.000190373
-0.000190141
-0.000455406
-0.000463516
-0.000463507
-0.000146223
-0.000470365
-0.000778125
-0.000531481
-0.000536013
-0.000769246
-0.00076882
-0.000533051
-0.00053314
-0.000777914
-0.000531674
-0.000456853
-0.000276063
-0.000143454
-0.000418773
-0.00019023
-0.000421349
-0.000465705
-0.000460806
-8.37005e-05
-0.000146637
-0.000475888
-0.000460801
-8.37251e-05
-0.000146648
-0.00047592
-0.000541502
-0.000571898
-0.000702612
-0.000763606
-0.000568957
-0.000543264
-0.000753339
-0.000541507
-0.000571887
-0.000702613
-0.000763625
-0.000568938
-0.000543272
-0.000753345
-0.000541751
-0.000779034
-0.000540844
-0.000771704
-0.000541756
-0.000779044
-0.000540865
-0.000771702
-0.000146271
-0.000470412
-0.00014629
-0.000470392
-0.000536011
-0.000769229
-0.00076887
-0.000533079
-0.00053319
-0.000778117
-0.000531519
-0.000777937
-0.000531697
-0.00082852
-0.000954907
-0.000828526
-0.000954904
-0.000821115
-0.000821051
-0.00093891
-0.00095088
-0.000950959
-0.00110749
-0.000995126
-0.0011074
-0.000994886
-0.000982342
-0.00110529
-0.0011053
-0.000991975
-0.000991782
-0.000951902
-0.000828682
-0.000823009
-0.000953859
-0.000944357
-0.000818513
-0.000815194
-0.000915438
-0.000810618
-0.000948051
-0.00091155
-0.000944352
-0.000818523
-0.000815217
-0.00091542
-0.000810615
-0.000948021
-0.000911549
-0.000993007
-0.00110654
-0.000994111
-0.00110615
-0.000992993
-0.00110654
-0.0009941
-0.00110616
-0.000989194
-0.00100101
-0.00110378
-0.00107933
-0.000991326
-0.000998303
-0.00110255
-0.000989187
-0.00100099
-0.00110378
-0.00107934
-0.000991336
-0.00099829
-0.00110255
-0.000821171
-0.000821008
-0.000938913
-0.000950788
-0.000951049
-0.000828516
-0.000954945
-0.00110751
-0.000995116
-0.000982345
-0.00110533
-0.00110526
-0.000991985
-0.000991789
-0.00110738
-0.000994896
-0.000945099
-0.000818481
-0.000815903
-0.000915685
-0.000811072
-0.000948283
-0.000912159
-0.000952326
-0.000828653
-0.000823108
-0.000953952
-0.00094511
-0.000815892
-0.000818493
-0.000915639
-0.00081107
-0.000912143
-0.000948317
-0.000992652
-0.00110651
-0.00099383
-0.00110634
-0.00098903
-0.00100118
-0.00110391
-0.00107959
-0.000991078
-0.000998754
-0.00110297
-0.000992642
-0.00110651
-0.000993817
-0.00110636
-0.00098903
-0.00100112
-0.0010796
-0.00110392
-0.00099873
-0.00099108
-0.00110298
-0.00095232
-0.000828659
-0.000823101
-0.000953969
-0.000945107
-0.000815886
-0.000818494
-0.000915636
-0.000811069
-0.000912139
-0.000948307
-0.000952323
-0.000828655
-0.000823104
-0.00095395
-0.000989027
-0.00100119
-0.00110389
-0.0010796
-0.000991088
-0.000998779
-0.00110296
-0.000992639
-0.0011065
-0.000993839
-0.00110635
-0.000989032
-0.00100113
-0.00107961
-0.00110393
-0.00099874
-0.000991086
-0.00110298
-0.00099264
-0.00110651
-0.000993823
-0.00110635
-0.000821053
-0.000821137
-0.000938923
-0.00095097
-0.000950871
-0.000828541
-0.000954902
-0.00110739
-0.000994869
-0.000982356
-0.00110531
-0.00110527
-0.000991793
-0.000991971
-0.00110747
-0.00099512
-0.000944348
-0.000815255
-0.000818538
-0.000915499
-0.000810647
-0.000911567
-0.000948029
-0.000951899
-0.000828688
-0.000823016
-0.000953873
-0.000951904
-0.000828692
-0.000823016
-0.000953867
-0.0009892
-0.00100111
-0.00107933
-0.00110376
-0.00099834
-0.000991322
-0.00110255
-0.000989203
-0.00100107
-0.00107932
-0.00110377
-0.000998305
-0.000991322
-0.00110254
-0.000992995
-0.00110653
-0.000994104
-0.00110616
-0.000992995
-0.00110653
-0.000994099
-0.00110615
-0.000828511
-0.000954896
-0.000828554
-0.000954895
-0.000982359
-0.00110532
-0.00110529
-0.000991794
-0.000991999
-0.00110739
-0.000994878
-0.00110746
-0.000995127
-0.00114527
-0.00125271
-0.001145
-0.00125271
-0.00114354
-0.00114331
-0.00124971
-0.00125126
-0.00125131
-0.00139393
-0.00128929
-0.00139397
-0.00128909
-0.00128664
-0.00139277
-0.00139288
-0.00128813
-0.00128794
-0.00125192
-0.00114448
-0.00114436
-0.00125212
-0.00124973
-0.0011439
-0.00115646
-0.00123173
-0.00114355
-0.00125031
-0.00123086
-0.00124973
-0.00114391
-0.00115647
-0.00123172
-0.00114355
-0.00125031
-0.00123085
-0.00128881
-0.00139355
-0.00128881
-0.00139329
-0.0012888
-0.00139354
-0.0012888
-0.0013933
-0.00128902
-0.00130391
-0.00139202
-0.00137443
-0.00128891
-0.00130327
-0.00139156
-0.00128901
-0.0013039
-0.00139202
-0.00137442
-0.00128891
-0.00130325
-0.00139156
-0.00114357
-0.00114328
-0.0012497
-0.00125127
-0.0012513
-0.00114498
-0.0012527
-0.00139392
-0.00128928
-0.00128664
-0.00139279
-0.00139284
-0.00128814
-0.00128793
-0.00139398
-0.00128909
-0.00125009
-0.00114358
-0.0011566
-0.00123174
-0.0011431
-0.00125044
-0.00123095
-0.00125215
-0.00114415
-0.00114383
-0.00125216
-0.00125009
-0.00115663
-0.00114358
-0.0012317
-0.00114309
-0.00123097
-0.00125046
-0.00128835
-0.00139365
-0.00128856
-0.00139361
-0.00128856
-0.00130391
-0.00139225
-0.00137446
-0.00128863
-0.00130332
-0.00139197
-0.00128834
-0.00139366
-0.00128855
-0.00139362
-0.00128856
-0.00130387
-0.00137449
-0.00139224
-0.00130333
-0.00128861
-0.00139198
-0.00125214
-0.00114415
-0.00114382
-0.00125215
-0.00125009
-0.00115662
-0.00114358
-0.00123169
-0.00114309
-0.00123096
-0.00125046
-0.00125215
-0.00114416
-0.00114382
-0.00125215
-0.00128855
-0.00130393
-0.0013922
-0.00137447
-0.00128863
-0.00130334
-0.00139195
-0.00128833
-0.00139364
-0.00128856
-0.00139361
-0.00128856
-0.00130387
-0.00137449
-0.00139225
-0.00130333
-0.00128862
-0.00139197
-0.00128833
-0.00139364
-0.00128854
-0.0013936
-0.00114332
-0.00114353
-0.0012497
-0.00125132
-0.00125125
-0.00114526
-0.00125273
-0.00139398
-0.0012891
-0.00128664
-0.00139289
-0.00139277
-0.00128795
-0.00128813
-0.00139392
-0.00128928
-0.00124972
-0.00115645
-0.0011439
-0.00123175
-0.00114353
-0.00123084
-0.0012503
-0.00125193
-0.00114447
-0.00114434
-0.00125211
-0.00125193
-0.00114447
-0.00114434
-0.00125213
-0.00128903
-0.00130396
-0.00137442
-0.00139201
-0.00130327
-0.00128893
-0.00139156
-0.00128903
-0.00130393
-0.00137441
-0.00139204
-0.00130324
-0.00128892
-0.00139156
-0.00128881
-0.00139354
-0.0012888
-0.0013933
-0.00128881
-0.00139353
-0.00128881
-0.0013933
-0.00114499
-0.0012527
-0.00114526
-0.00125273
-0.00128663
-0.00139288
-0.00139279
-0.00128795
-0.00128816
-0.00139395
-0.00128909
-0.00139391
-0.00128932
-0.00142969
-0.00153204
-0.00142953
-0.00153216
-0.0014288
-0.00142868
-0.00153071
-0.00153111
-0.00153125
-0.00166742
-0.00156704
-0.00166755
-0.00156696
-0.00156568
-0.00166658
-0.00166675
-0.00156633
-0.00156623
-0.00153146
-0.00142939
-0.00142924
-0.00153178
-0.00152985
-0.00142973
-0.00144454
-0.00151407
-0.00142987
-0.00153044
-0.00151372
-0.00152985
-0.00142975
-0.00144455
-0.00151405
-0.00142986
-0.00153039
-0.00151371
-0.00156671
-0.00166724
-0.00156686
-0.00166687
-0.00156669
-0.00166723
-0.00156685
-0.00166688
-0.00156737
-0.00158227
-0.00166593
-0.00164961
-0.0015673
-0.00158195
-0.00166532
-0.00156737
-0.00158226
-0.00166593
-0.00164961
-0.00156729
-0.00158193
-0.00166532
-0.00142884
-0.00142863
-0.0015307
-0.00153099
-0.00153133
-0.00142953
-0.00153217
-0.00166744
-0.00156705
-0.00156568
-0.00166664
-0.00166667
-0.00156632
-0.00156621
-0.00166751
-0.00156694
-0.00153031
-0.00142952
-0.00144456
-0.00151409
-0.00142944
-0.00153068
-0.00151374
-0.00153185
-0.00142919
-0.00142885
-0.00153195
-0.00153034
-0.0014446
-0.0014295
-0.00151406
-0.00142944
-0.00151377
-0.00153067
-0.00156635
-0.00166742
-0.00156673
-0.0016673
-0.00156698
-0.00158228
-0.00166619
-0.00164964
-0.00156709
-0.00158198
-0.00166582
-0.00156636
-0.00166739
-0.00156669
-0.00166731
-0.00156701
-0.00158225
-0.00164967
-0.00166619
-0.00158199
-0.00156704
-0.00166582
-0.00153183
-0.0014292
-0.00142883
-0.00153197
-0.00153032
-0.00144459
-0.0014295
-0.00151404
-0.00142942
-0.00151376
-0.00153067
-0.00153184
-0.00142919
-0.00142883
-0.00153196
-0.00156697
-0.0015823
-0.00166617
-0.00164964
-0.00156707
-0.001582
-0.00166578
-0.00156633
-0.0016674
-0.00156671
-0.0016673
-0.00156699
-0.00158223
-0.00164967
-0.00166619
-0.00158198
-0.00156706
-0.00166579
-0.00156634
-0.00166742
-0.00156671
-0.0016673
-0.00142867
-0.00142881
-0.0015307
-0.00153124
-0.0015311
-0.00142969
-0.00153207
-0.00166752
-0.00156694
-0.00156567
-0.00166673
-0.00166656
-0.00156621
-0.00156633
-0.00166741
-0.00156707
-0.00152986
-0.00144453
-0.00142975
-0.00151407
-0.00142987
-0.00151369
-0.00153042
-0.00153147
-0.0014294
-0.00142924
-0.00153182
-0.00153146
-0.00142939
-0.00142924
-0.00153181
-0.00156738
-0.00158231
-0.00164959
-0.0016659
-0.00158194
-0.0015673
-0.00166528
-0.00156739
-0.00158226
-0.00164959
-0.00166592
-0.00158191
-0.00156729
-0.0016653
-0.0015667
-0.00166723
-0.00156687
-0.00166685
-0.00156669
-0.00166722
-0.00156686
-0.00166686
-0.00142952
-0.00153215
-0.00142968
-0.00153205
-0.00156563
-0.00166674
-0.00166659
-0.00156622
-0.00156635
-0.00166756
-0.00156696
-0.0016674
-0.00156708
-0.00170178
-0.00180029
-0.00170169
-0.00180044
-0.00170117
-0.00170108
-0.00179914
-0.00179955
-0.00179973
-0.00193077
-0.00183398
-0.00193092
-0.00183391
-0.00183278
-0.00193009
-0.00193027
-0.00183343
-0.00183335
-0.00179972
-0.00170162
-0.00170137
-0.00180011
-0.00179821
-0.00170214
-0.00171661
-0.00178325
-0.00170217
-0.0017989
-0.00178299
-0.00179821
-0.00170213
-0.00171662
-0.00178324
-0.00170215
-0.00179887
-0.00178299
-0.00183364
-0.00193064
-0.00183386
-0.00193023
-0.00183363
-0.00193063
-0.00183383
-0.00193025
-0.00183442
-0.00184884
-0.00192943
-0.00191377
-0.00183437
-0.00184859
-0.00192873
-0.0018344
-0.00184882
-0.00192944
-0.00191377
-0.00183434
-0.00184858
-0.00192874
-0.0017012
-0.00170103
-0.00179915
-0.00179954
-0.00179969
-0.00170166
-0.00180041
-0.00193077
-0.00183395
-0.00183279
-0.00193011
-0.00193022
-0.00183343
-0.00183333
-0.00193091
-0.00183389
-0.00179873
-0.00170193
-0.00171663
-0.00178327
-0.00170177
-0.0017992
-0.00178302
-0.00180019
-0.00170147
-0.00170106
-0.00180032
-0.00179873
-0.00171667
-0.00170191
-0.00178326
-0.00170176
-0.00178304
-0.00179918
-0.00183334
-0.00193086
-0.00183376
-0.0019307
-0.00183401
-0.00184885
-0.00192973
-0.00191381
-0.00183419
-0.00184863
-0.00192924
-0.00183334
-0.00193084
-0.00183373
-0.00193071
-0.00183402
-0.00184881
-0.00191384
-0.00192973
-0.00184863
-0.00183415
-0.00192926
-0.00180017
-0.00170148
-0.00170105
-0.00180033
-0.00179872
-0.00171666
-0.00170192
-0.00178324
-0.00170175
-0.00178303
-0.00179917
-0.00180017
-0.00170149
-0.00170105
-0.00180032
-0.00183401
-0.00184885
-0.00192969
-0.00191381
-0.00183417
-0.00184862
-0.00192923
-0.00183331
-0.00193085
-0.00183374
-0.0019307
-0.00183401
-0.00184881
-0.00191383
-0.00192973
-0.00184862
-0.00183415
-0.00192926
-0.0018333
-0.00193082
-0.00183372
-0.00193071
-0.00170106
-0.00170114
-0.00179914
-0.0017997
-0.00179953
-0.00170175
-0.00180026
-0.00193092
-0.00183388
-0.0018328
-0.00193027
-0.00193008
-0.00183332
-0.00183343
-0.00193076
-0.00183396
-0.00179819
-0.00171659
-0.00170214
-0.00178325
-0.00170214
-0.00178296
-0.00179888
-0.00179972
-0.00170162
-0.00170137
-0.00180012
-0.00179972
-0.0017016
-0.00170136
-0.00180012
-0.00183442
-0.00184888
-0.00191376
-0.00192943
-0.00184859
-0.00183439
-0.00192874
-0.00183441
-0.00184884
-0.00191376
-0.00192943
-0.00184855
-0.00183438
-0.00192875
-0.00183363
-0.00193064
-0.00183386
-0.00193026
-0.00183363
-0.00193063
-0.00183385
-0.00193025
-0.00170166
-0.00180041
-0.00170174
-0.00180026
-0.00183278
-0.00193025
-0.00193008
-0.00183333
-0.00183345
-0.00193089
-0.00183389
-0.00193076
-0.00183396
-0.00196386
-0.00205899
-0.00196379
-0.00205913
-0.0019634
-0.00196331
-0.00205794
-0.00205838
-0.00205854
-0.00218495
-0.00209148
-0.00218509
-0.00209139
-0.0020904
-0.00218439
-0.00218455
-0.00209104
-0.00209094
-0.00205848
-0.00196378
-0.00196351
-0.00205885
-0.00205699
-0.00196433
-0.00197836
-0.00204264
-0.0019643
-0.00205773
-0.00204243
-0.002057
-0.00196434
-0.00197837
-0.00204261
-0.0019643
-0.0020577
-0.00204242
-0.00209117
-0.00218486
-0.00209141
-0.00218452
-0.00209118
-0.00218487
-0.00209138
-0.00218451
-0.00209195
-0.00210594
-0.00218376
-0.00216868
-0.00209193
-0.00210573
-0.00218304
-0.00209195
-0.00210591
-0.00218377
-0.00216868
-0.00209196
-0.00210571
-0.00218304
-0.00196344
-0.00196327
-0.00205793
-0.00205826
-0.00205865
-0.00196378
-0.00205916
-0.00218498
-0.00209146
-0.00209039
-0.00218445
-0.00218447
-0.00209105
-0.00209096
-0.00218505
-0.00209139
-0.00205753
-0.00196413
-0.00197838
-0.00204267
-0.00196388
-0.00205801
-0.00204248
-0.00205893
-0.00196365
-0.00196318
-0.00205908
-0.00205754
-0.00197842
-0.00196412
-0.00204265
-0.00196388
-0.0020425
-0.00205803
-0.00209086
-0.00218505
-0.00209127
-0.00218497
-0.00209155
-0.00210593
-0.00218404
-0.00216871
-0.00209172
-0.00210576
-0.00218358
-0.00209086
-0.00218509
-0.00209127
-0.00218499
-0.00209155
-0.00210589
-0.00216874
-0.00218403
-0.00210577
-0.00209172
-0.00218358
-0.00205891
-0.00196366
-0.00196316
-0.00205909
-0.00205754
-0.0019784
-0.00196412
-0.00204263
-0.0019639
-0.00204248
-0.00205802
-0.00205892
-0.00196363
-0.00196318
-0.00205909
-0.00209156
-0.00210593
-0.002184
-0.00216872
-0.00209172
-0.00210578
-0.00218354
-0.00209082
-0.00218503
-0.00209125
-0.00218496
-0.00209156
-0.00210589
-0.00216874
-0.00218403
-0.00210577
-0.00209171
-0.00218356
-0.00209083
-0.00218505
-0.00209128
-0.00218496
-0.00196332
-0.00196341
-0.00205796
-0.00205856
-0.00205837
-0.00196386
-0.002059
-0.00218513
-0.0020914
-0.00209041
-0.00218458
-0.0021844
-0.00209096
-0.00209106
-0.00218497
-0.00209149
-0.00205699
-0.00197835
-0.00196435
-0.00204265
-0.00196433
-0.00204241
-0.00205774
-0.00205849
-0.00196378
-0.00196351
-0.0020589
-0.00205849
-0.00196378
-0.0019635
-0.0020589
-0.00209198
-0.00210598
-0.00216866
-0.00218376
-0.00210574
-0.00209198
-0.00218301
-0.00209197
-0.00210594
-0.00216867
-0.00218375
-0.00210571
-0.00209198
-0.00218305
-0.0020912
-0.00218488
-0.00209144
-0.00218455
-0.0020912
-0.00218487
-0.00209141
-0.00218456
-0.00196377
-0.00205914
-0.00196386
-0.00205899
-0.00209039
-0.00218455
-0.0021844
-0.00209097
-0.00209108
-0.00218509
-0.00209141
-0.00218496
-0.00209148
-0.00221686
-0.0023086
-0.00221675
-0.00230874
-0.00221651
-0.00221638
-0.00230764
-0.00230811
-0.00230826
-0.00242959
-0.00233984
-0.00242972
-0.00233976
-0.00233883
-0.00242913
-0.00242927
-0.00233949
-0.00233941
-0.00230822
-0.00221682
-0.00221657
-0.00230852
-0.00230678
-0.00221738
-0.00223099
-0.00229295
-0.00221735
-0.00230749
-0.00229278
-0.00230677
-0.00221738
-0.002231
-0.00229294
-0.00221736
-0.00230748
-0.00229278
-0.00233965
-0.00242956
-0.0023398
-0.00242924
-0.00233963
-0.0024295
-0.0023398
-0.00242926
-0.0023404
-0.00235386
-0.00242851
-0.0024141
-0.00234033
-0.00235367
-0.00242786
-0.0023404
-0.00235384
-0.0024285
-0.00241409
-0.00234033
-0.00235366
-0.00242782
-0.00221654
-0.00221635
-0.00230761
-0.0023081
-0.00230826
-0.00221675
-0.00230875
-0.00242956
-0.00233985
-0.00233881
-0.00242913
-0.00242926
-0.00233952
-0.00233941
-0.00242971
-0.00233978
-0.00230731
-0.00221716
-0.00223098
-0.00229298
-0.00221693
-0.00230776
-0.0022928
-0.00230869
-0.00221671
-0.00221625
-0.00230877
-0.00230732
-0.00223102
-0.00221713
-0.00229294
-0.00221692
-0.00229281
-0.00230781
-0.00233932
-0.00242974
-0.00233967
-0.0024297
-0.00233998
-0.00235384
-0.00242877
-0.00241413
-0.00234011
-0.00235366
-0.00242835
-0.00233932
-0.0024297
-0.00233968
-0.00242969
-0.00233998
-0.0023538
-0.00241415
-0.00242878
-0.00235367
-0.00234012
-0.00242838
-0.0023087
-0.00221665
-0.00221623
-0.00230876
-0.00230728
-0.00223101
-0.00221713
-0.00229295
-0.00221691
-0.00229281