/*--------------------------------*- C++ -*----------------------------------*\
| =========                 |                                                 |
| \\      /  F ield         | OpenFOAM: The Open Source CFD Toolbox           |
|  \\    /   O peration     | Version:  2206                                  |
|   \\  /    A nd           | Website:  www.openfoam.com                      |
|    \\/     M anipulation  |                                                 |
\*---------------------------------------------------------------------------*/
FoamFile
{
    version     2.0;
    format      ascii;
    arch        "LSB;label=32;scalar=64";
    class       volScalarField;
    location    "0.4";
    object      k;
}
// * * * * * * * * * * * * * * * * * * * * * * * * * * * * * * * * * * * * * //

dimensions      [0 2 -2 0 0 0 0];

internalField   nonuniform List<scalar> 
66928
(
3.17815e-05
2.76875e-05
2.79913e-05
2.79776e-05
3.17651e-05
2.76971e-05
3.17592e-05
3.17849e-05
2.06735e-05
2.06572e-05
1.40934e-05
1.38166e-05
2.91904e-05
2.87355e-05
2.17138e-05
4.21788e-05
2.10822e-05
4.31731e-05
4.17996e-05
2.34778e-05
4.30158e-05
2.10573e-05
4.3165e-05
2.34817e-05
4.17568e-05
4.30074e-05
1.38001e-05
2.87155e-05
2.92859e-05
1.41114e-05
4.23766e-05
2.16843e-05
1.40978e-05
1.40585e-05
1.38342e-05
1.38075e-05
2.92107e-05
2.87706e-05
3.17831e-05
2.9173e-05
2.87284e-05
1.40503e-05
1.40653e-05
1.38095e-05
1.38262e-05
3.17602e-05
2.91725e-05
2.87237e-05
2.91959e-05
2.87622e-05
1.41162e-05
3.93916e-05
4.27105e-05
2.92345e-05
2.08831e-05
2.09118e-05
4.2707e-05
3.93594e-05
3.88477e-05
4.24478e-05
2.87726e-05
2.04496e-05
2.04813e-05
4.24478e-05
3.88092e-05
2.15806e-05
1.20265e-05
1.19388e-05
1.20411e-05
1.1956e-05
2.15408e-05
2.17522e-05
2.97755e-05
2.98138e-05
1.30544e-05
2.89337e-05
1.26055e-05
4.06709e-05
1.83077e-05
1.67766e-05
2.88994e-05
1.25929e-05
1.83028e-05
4.06472e-05
1.67669e-05
3.88208e-05
4.2489e-05
2.87535e-05
2.04201e-05
4.2489e-05
2.04528e-05
3.87819e-05
3.9425e-05
4.2689e-05
2.93134e-05
2.09433e-05
2.09693e-05
4.26857e-05
3.93911e-05
2.16114e-05
1.19416e-05
1.20567e-05
1.19599e-05
1.20729e-05
2.15702e-05
1.41241e-05
2.17042e-05
2.98187e-05
2.98375e-05
1.29656e-05
1.40738e-05
1.40791e-05
1.38118e-05
1.38296e-05
2.15777e-05
1.20241e-05
1.19354e-05
1.20389e-05
1.19521e-05
2.15391e-05
3.9359e-05
4.27151e-05
2.09034e-05
2.91788e-05
3.93902e-05
2.08749e-05
4.2718e-05
3.8805e-05
4.24542e-05
2.0478e-05
2.87333e-05
3.88425e-05
2.04458e-05
4.24526e-05
2.15393e-05
1.20405e-05
1.19542e-05
2.15784e-05
1.20254e-05
1.19369e-05
3.93906e-05
2.08673e-05
2.92007e-05
4.27196e-05
2.08949e-05
3.93596e-05
4.27181e-05
3.88394e-05
2.04412e-05
2.87671e-05
4.24525e-05
2.0473e-05
3.88029e-05
4.24565e-05
1.406e-05
1.40501e-05
1.38268e-05
1.38057e-05
2.15395e-05
1.20385e-05
1.19518e-05
2.15777e-05
1.20253e-05
1.19366e-05
3.93878e-05
4.27163e-05
2.91946e-05
2.08679e-05
2.08884e-05
4.27164e-05
3.93561e-05
3.88363e-05
4.24468e-05
2.87587e-05
2.04447e-05
2.0471e-05
4.24542e-05
3.88001e-05
3.93581e-05
2.08881e-05
4.27182e-05
2.91702e-05
3.93905e-05
2.08641e-05
4.27185e-05
3.88015e-05
2.04695e-05
4.24559e-05
2.87241e-05
3.8838e-05
2.04397e-05
4.24502e-05
2.15806e-05
1.20316e-05
1.1943e-05
1.20421e-05
1.19553e-05
2.15467e-05
4.21831e-05
3.17568e-05
3.82899e-05
3.83374e-05
3.82572e-05
3.82977e-05
4.21882e-05
4.21473e-05
3.17359e-05
3.83966e-05
3.82661e-05
3.83592e-05
3.82334e-05
4.21553e-05
4.21846e-05
3.82531e-05
3.82945e-05
3.17829e-05
4.21807e-05
3.82853e-05
3.83326e-05
4.21715e-05
3.17611e-05
3.82763e-05
3.83189e-05
3.82428e-05
3.82798e-05
4.21759e-05
1.90743e-05
1.90641e-05
3.75149e-05
4.10698e-05
4.21881e-05
4.42282e-05
4.10562e-05
4.42186e-05
3.75157e-05
3.77912e-05
4.11287e-05
4.18247e-05
4.40032e-05
4.10965e-05
4.4006e-05
3.78279e-05
3.5284e-05
4.29749e-05
4.38324e-05
3.37894e-05
4.38062e-05
3.37205e-05
3.53426e-05
3.77721e-05
4.10925e-05
4.17824e-05
4.39653e-05
4.39686e-05
4.10613e-05
3.78089e-05
3.52731e-05
4.29668e-05
3.37873e-05
4.38086e-05
3.37186e-05
4.37832e-05
3.5331e-05
3.75669e-05
4.11114e-05
4.23916e-05
4.44166e-05
4.10915e-05
4.44161e-05
3.7579e-05
4.21768e-05
3.176e-05
3.82811e-05
3.83265e-05
4.21811e-05
3.82485e-05
3.82888e-05
4.21787e-05
3.17837e-05
3.8245e-05
3.82833e-05
4.21742e-05
3.82782e-05
3.83221e-05
2.06703e-05
2.79785e-05
2.77005e-05
3.17641e-05
2.06615e-05
2.79868e-05
2.77032e-05
3.17686e-05
2.06526e-05
2.80134e-05
2.77162e-05
3.17836e-05
2.0642e-05
2.80111e-05
2.77234e-05
3.18084e-05
2.06373e-05
2.80114e-05
2.77257e-05
3.1812e-05
2.06389e-05
2.80142e-05
2.77263e-05
3.17988e-05
2.06543e-05
2.8036e-05
2.77411e-05
3.18113e-05
2.06624e-05
2.8047e-05
2.77626e-05
3.18484e-05
2.06524e-05
2.80285e-05
2.77554e-05
3.18364e-05
2.06413e-05
2.80155e-05
2.7736e-05
3.18042e-05
2.06391e-05
2.8e-05
2.77256e-05
3.18009e-05
2.06347e-05
2.79877e-05
2.77095e-05
3.17744e-05
2.06325e-05
2.79875e-05
2.7705e-05
3.17713e-05
2.06324e-05
2.79862e-05
2.77057e-05
3.1774e-05
2.06321e-05
2.7988e-05
2.77051e-05
3.17717e-05
2.06321e-05
2.79862e-05
2.77052e-05
3.17725e-05
2.06322e-05
2.79877e-05
2.77052e-05
3.17764e-05
2.76933e-05
2.76903e-05
2.77087e-05
2.77076e-05
3.17408e-05
3.1771e-05
2.79939e-05
2.79821e-05
2.80013e-05
2.79885e-05
2.79804e-05
2.79848e-05
2.79865e-05
3.17464e-05
3.17804e-05
2.77142e-05
2.77038e-05
2.77157e-05
3.17933e-05
3.17622e-05
3.17979e-05
2.77116e-05
2.77117e-05
2.77192e-05
2.77231e-05
3.17487e-05
3.1806e-05
2.80018e-05
2.79882e-05
2.80074e-05
2.79918e-05
2.79868e-05
2.80091e-05
2.79974e-05
3.17564e-05
3.17827e-05
2.77148e-05
2.77086e-05
2.772e-05
3.17974e-05
3.17813e-05
3.1844e-05
2.77225e-05
2.77237e-05
2.77211e-05
2.77139e-05
3.17907e-05
3.1798e-05
2.80158e-05
2.79997e-05
2.80284e-05
2.80125e-05
2.80041e-05
2.80106e-05
2.80064e-05
3.17671e-05
3.18364e-05
2.77278e-05
2.77248e-05
2.77357e-05
3.18384e-05
3.18162e-05
3.18253e-05
2.77161e-05
2.77124e-05
2.77122e-05
2.77097e-05
3.17715e-05
3.18063e-05
2.8027e-05
2.80114e-05
2.80287e-05
2.80143e-05
2.80051e-05
2.80131e-05
2.80086e-05
3.18098e-05
3.18244e-05
2.77342e-05
2.77251e-05
2.77349e-05
3.18323e-05
3.18074e-05
3.18136e-05
2.77117e-05
2.77076e-05
2.77088e-05
2.7706e-05
3.17785e-05
3.17904e-05
2.80297e-05
2.80157e-05
2.80277e-05
2.80147e-05
2.80083e-05
2.80114e-05
2.80085e-05
3.18072e-05
3.18157e-05
2.7735e-05
2.77254e-05
2.77346e-05
3.1819e-05
3.1791e-05
3.18158e-05
2.77088e-05
2.77066e-05
2.77135e-05
2.77177e-05
3.17693e-05
3.18049e-05
2.80281e-05
2.80157e-05
2.80347e-05
2.80241e-05
2.80112e-05
2.80297e-05
2.80243e-05
3.17941e-05
3.18231e-05
2.77367e-05
2.7735e-05
2.77482e-05
3.18312e-05
3.17949e-05
3.18425e-05
2.77175e-05
2.77225e-05
2.77307e-05
2.77311e-05
3.17858e-05
3.18261e-05
2.8039e-05
2.80291e-05
2.80575e-05
2.80484e-05
2.80313e-05
2.80465e-05
2.80489e-05
3.18033e-05
3.18582e-05
2.7755e-05
2.776e-05
2.77734e-05
3.18686e-05
3.18251e-05
3.1841e-05
2.77323e-05
2.77313e-05
2.77289e-05
2.77209e-05
3.18051e-05
3.18139e-05
2.8061e-05
2.8052e-05
2.80602e-05
2.80514e-05
2.80505e-05
2.80354e-05
2.80438e-05
3.18409e-05
3.1858e-05
2.77756e-05
2.77607e-05
2.77719e-05
3.18629e-05
3.18166e-05
3.18152e-05
2.77239e-05
2.77153e-05
2.77152e-05
2.77103e-05
3.17874e-05
3.17869e-05
2.80557e-05
2.80472e-05
2.80388e-05
2.80286e-05
2.80367e-05
2.80166e-05
2.80202e-05
3.18342e-05
3.18277e-05
2.77653e-05
2.77387e-05
2.77489e-05
3.18299e-05
3.17903e-05
3.18174e-05
2.7715e-05
2.77108e-05
2.77154e-05
2.77097e-05
3.17671e-05
3.17857e-05
2.80363e-05
2.80255e-05
2.80334e-05
2.80219e-05
2.80184e-05
2.8005e-05
2.80108e-05
3.18015e-05
3.18239e-05
2.77467e-05
2.77294e-05
2.77401e-05
3.18269e-05
3.17941e-05
3.17881e-05
2.77145e-05
2.77068e-05
2.77059e-05
2.77005e-05
3.17591e-05
3.1762e-05
2.80301e-05
2.80183e-05
2.80149e-05
2.80024e-05
2.80063e-05
2.79885e-05
2.7994e-05
3.18004e-05
3.17931e-05
2.77362e-05
2.77128e-05
2.77245e-05
3.17987e-05
3.17643e-05
3.17809e-05
2.77037e-05
2.76998e-05
2.77001e-05
2.76993e-05
3.17405e-05
3.17658e-05
2.8011e-05
2.79985e-05
2.80054e-05
2.79935e-05
2.79916e-05
2.79873e-05
2.79891e-05
3.17687e-05
3.17862e-05
2.77217e-05
2.77051e-05
2.77171e-05
3.17937e-05
3.17592e-05
3.17845e-05
2.76999e-05
2.76989e-05
2.77002e-05
2.76985e-05
3.17434e-05
3.17609e-05
2.80053e-05
2.79936e-05
2.80063e-05
2.79948e-05
2.79893e-05
2.79859e-05
2.79898e-05
3.17646e-05
3.17912e-05
2.77171e-05
2.77056e-05
2.7717e-05
3.17972e-05
3.17638e-05
3.17804e-05
2.77003e-05
2.76986e-05
2.76996e-05
2.76989e-05
3.174e-05
3.1766e-05
2.80066e-05
2.79951e-05
2.80052e-05
2.79938e-05
2.79896e-05
2.79878e-05
2.79894e-05
3.17701e-05
3.17859e-05
2.7717e-05
2.77047e-05
2.77165e-05
3.17942e-05
3.17587e-05
3.17864e-05
2.76998e-05
2.76987e-05
2.77e-05
2.7698e-05
3.17436e-05
3.176e-05
2.80054e-05
2.79942e-05
2.80063e-05
2.79947e-05
2.79901e-05
2.79856e-05
2.79893e-05
3.17642e-05
3.17923e-05
2.7717e-05
2.77053e-05
2.7717e-05
3.17971e-05
3.1764e-05
3.17829e-05
2.76997e-05
2.76982e-05
2.77e-05
2.76987e-05
3.1739e-05
3.17664e-05
2.80058e-05
2.79941e-05
2.80059e-05
2.79943e-05
2.79894e-05
2.79876e-05
2.79901e-05
3.17696e-05
3.17887e-05
2.7717e-05
2.77048e-05
2.77171e-05
3.17988e-05
3.17632e-05
2.77002e-05
2.76984e-05
3.1744e-05
2.80063e-05
2.79946e-05
2.79901e-05
2.799e-05
3.17686e-05
2.77173e-05
2.77176e-05
3.17957e-05
4.3987e-05
2.17154e-05
4.39573e-05
2.16336e-05
1.40887e-05
1.4047e-05
4.31751e-05
2.11099e-05
4.31996e-05
2.10652e-05
2.06629e-05
2.06558e-05
2.0656e-05
2.06631e-05
2.06579e-05
2.06509e-05
2.06522e-05
4.30267e-05
4.17949e-05
2.34846e-05
2.79821e-05
4.17712e-05
2.34832e-05
4.29781e-05
1.38173e-05
1.37904e-05
4.30781e-05
2.30481e-05
4.23923e-05
2.7703e-05
2.3048e-05
4.23797e-05
4.30545e-05
2.88198e-05
2.9281e-05
3.17947e-05
2.87752e-05
2.92511e-05
4.40759e-05
2.16205e-05
4.40361e-05
2.16214e-05
1.40744e-05
1.40799e-05
4.31738e-05
2.10981e-05
4.31997e-05
2.10997e-05
2.06564e-05
2.06492e-05
2.06505e-05
2.06551e-05
2.06514e-05
2.06438e-05
2.06451e-05
4.3102e-05
4.18589e-05
2.34787e-05
2.79917e-05
4.30117e-05
4.19164e-05
2.34793e-05
1.3818e-05
1.38253e-05
4.30881e-05
2.30472e-05
4.23939e-05
2.77032e-05
4.30529e-05
2.30473e-05
4.24078e-05
2.88491e-05
2.92873e-05
3.17867e-05
2.88654e-05
2.93118e-05
4.41558e-05
2.16611e-05
4.41543e-05
2.16407e-05
1.41019e-05
1.40895e-05
4.3374e-05
2.11923e-05
4.33514e-05
2.11624e-05
2.06488e-05
2.06424e-05
2.06436e-05
2.06447e-05
2.06404e-05
2.06379e-05
2.06382e-05
4.32054e-05
4.20245e-05
2.34859e-05
2.80136e-05
4.31675e-05
4.19763e-05
2.34857e-05
1.3884e-05
1.38651e-05
4.32152e-05
2.3051e-05
4.25847e-05
2.7722e-05
4.31553e-05
2.30524e-05
4.25959e-05
2.89519e-05
2.94313e-05
3.18341e-05
2.89062e-05
2.94113e-05
4.42233e-05
2.16665e-05
4.42125e-05
2.16539e-05
1.40994e-05
1.4086e-05
4.33262e-05
2.11801e-05
4.33673e-05
2.11414e-05
2.06382e-05
2.06363e-05
2.06366e-05
2.06377e-05
2.06349e-05
2.06356e-05
2.06359e-05
4.31791e-05
4.19849e-05
2.34812e-05
2.80133e-05
4.31077e-05
4.19561e-05
2.34821e-05
1.38761e-05
1.38486e-05
4.31934e-05
2.30514e-05
4.25932e-05
2.77226e-05
4.31959e-05
2.30512e-05
4.25679e-05
2.89252e-05
2.94105e-05
3.18154e-05
2.88772e-05
2.93672e-05
4.42509e-05
2.16652e-05
4.42533e-05
2.16495e-05
1.40934e-05
1.40785e-05
4.32972e-05
2.11577e-05
4.33512e-05
2.11158e-05
2.06347e-05
2.0636e-05
2.06363e-05
2.06376e-05
2.06355e-05
2.06383e-05
2.06389e-05
4.31359e-05
4.19451e-05
2.34833e-05
2.80104e-05
4.31096e-05
4.1908e-05
2.34835e-05
1.38541e-05
1.38271e-05
4.31722e-05
2.30534e-05
4.25577e-05
2.77255e-05
4.31765e-05
2.30541e-05
4.25213e-05
2.88919e-05
2.93691e-05
3.18256e-05
2.88458e-05
2.93328e-05
4.42893e-05
2.16762e-05
4.42838e-05
2.16658e-05
1.4095e-05
1.40879e-05
4.32731e-05
2.11396e-05
4.33037e-05
2.11087e-05
2.06376e-05
2.06413e-05
2.06424e-05
2.06504e-05
2.06528e-05
2.06545e-05
2.06581e-05
4.31423e-05
4.19446e-05
2.34904e-05
2.80183e-05
4.31064e-05
4.19098e-05
2.34946e-05
1.38425e-05
1.38224e-05
4.31443e-05
2.30596e-05
4.25119e-05
2.77278e-05
4.31366e-05
2.30631e-05
4.249e-05
2.88774e-05
2.93488e-05
3.18297e-05
2.88455e-05
2.93259e-05
4.43288e-05
2.16909e-05
4.43293e-05
2.16781e-05
1.41038e-05
1.40903e-05
4.32907e-05
2.11424e-05
4.33064e-05
2.11126e-05
2.06572e-05
2.0659e-05
2.06632e-05
2.06619e-05
2.06626e-05
2.0668e-05
2.06719e-05
4.31728e-05
4.19591e-05
2.3509e-05
2.80408e-05
4.3109e-05
4.19272e-05
2.35142e-05
1.38445e-05
1.3825e-05
4.31655e-05
2.3077e-05
4.25239e-05
2.77481e-05
4.31267e-05
2.30826e-05
4.25182e-05
2.8892e-05
2.93626e-05
3.18522e-05
2.88596e-05
2.93434e-05
4.43429e-05
2.16949e-05
4.43509e-05
2.16815e-05
1.40997e-05
1.40884e-05
4.33071e-05
2.11396e-05
4.33348e-05
2.11033e-05
2.06625e-05
2.06687e-05
2.06722e-05
2.06574e-05
2.06517e-05
2.06642e-05
2.06649e-05
4.31789e-05
4.19634e-05
2.35204e-05
2.80462e-05
4.31555e-05
4.19138e-05
2.35196e-05
1.38426e-05
1.3819e-05
4.31907e-05
2.30917e-05
4.25411e-05
2.7763e-05
4.31711e-05
2.30919e-05
4.25139e-05
2.88915e-05
2.93661e-05
3.18769e-05
2.88473e-05
2.93342e-05
4.43584e-05
2.16948e-05
4.43676e-05
2.16825e-05
1.40983e-05
1.40828e-05
4.32819e-05
2.11241e-05
4.3317e-05
2.10858e-05
2.06466e-05
2.06588e-05
2.06588e-05
2.06426e-05
2.06381e-05
2.06467e-05
2.06468e-05
4.31397e-05
4.19217e-05
2.35028e-05
2.80224e-05
4.31242e-05
4.18746e-05
2.34972e-05
1.38312e-05
1.38061e-05
4.31582e-05
2.30814e-05
4.25195e-05
2.77487e-05
4.31525e-05
2.30759e-05
4.24892e-05
2.88694e-05
2.93474e-05
3.18527e-05
2.88223e-05
2.93132e-05
4.43663e-05
2.16937e-05
4.438e-05
2.16763e-05
1.40898e-05
1.40771e-05
4.32544e-05
2.11054e-05
4.32863e-05
2.10667e-05
2.0637e-05
2.06447e-05
2.0645e-05
2.06398e-05
2.06343e-05
2.06416e-05
2.06413e-05
4.31282e-05
4.18906e-05
2.34904e-05
2.80135e-05
4.30809e-05
4.18449e-05
2.34899e-05
1.38178e-05
1.37926e-05
4.31388e-05
2.30657e-05
4.24871e-05
2.77341e-05
4.31195e-05
2.30646e-05
4.24586e-05
2.88442e-05
2.93243e-05
3.18314e-05
2.87976e-05
2.9289e-05
4.43516e-05
2.16841e-05
4.43698e-05
2.16676e-05
1.40869e-05
1.40732e-05
4.32184e-05
2.10867e-05
4.32613e-05
2.10506e-05
2.06332e-05
2.06403e-05
2.06399e-05
2.06358e-05
2.06304e-05
2.06359e-05
2.0636e-05
4.30725e-05
4.18487e-05
2.34803e-05
2.79948e-05
4.30567e-05
4.18069e-05
2.34767e-05
1.38049e-05
1.37819e-05
4.31035e-05
2.30587e-05
4.24531e-05
2.7721e-05
4.31016e-05
2.30562e-05
4.24251e-05
2.88214e-05
2.93002e-05
3.18157e-05
2.87798e-05
2.9269e-05
4.43491e-05
2.16809e-05
4.43653e-05
2.16677e-05
1.40845e-05
1.40737e-05
4.31992e-05
2.1078e-05
4.32255e-05
2.10474e-05
2.063e-05
2.06347e-05
2.06349e-05
2.06327e-05
2.06296e-05
2.06326e-05
2.06334e-05
4.30676e-05
4.18416e-05
2.34705e-05
2.79873e-05
4.30306e-05
4.18071e-05
2.347e-05
1.38006e-05
1.37814e-05
4.30753e-05
2.30485e-05
4.24285e-05
2.7707e-05
4.3062e-05
2.30468e-05
4.2409e-05
2.88129e-05
2.92882e-05
3.17999e-05
2.87789e-05
2.92656e-05
4.43537e-05
2.16801e-05
4.43721e-05
2.16669e-05
1.40855e-05
1.4072e-05
4.32076e-05
2.1079e-05
4.32315e-05
2.10485e-05
2.06296e-05
2.06324e-05
2.06333e-05
2.06324e-05
2.06293e-05
2.06324e-05
2.06332e-05
4.30758e-05
4.18457e-05
2.34699e-05
2.79866e-05
4.30328e-05
4.18023e-05
2.34702e-05
1.38021e-05
1.37823e-05
4.30744e-05
2.30442e-05
4.2433e-05
2.7705e-05
4.30501e-05
2.30442e-05
4.24092e-05
2.88145e-05
2.92903e-05
3.18018e-05
2.87795e-05
2.9267e-05
4.43486e-05
2.16795e-05
4.43672e-05
2.16666e-05
1.40835e-05
1.40732e-05
4.32081e-05
2.10794e-05
4.32342e-05
2.10487e-05
2.06294e-05
2.06324e-05
2.06331e-05
2.06321e-05
2.06295e-05
2.06323e-05
2.06332e-05
4.30716e-05
4.18474e-05
2.34701e-05
2.79869e-05
4.30369e-05
4.18105e-05
2.34702e-05
1.38024e-05
1.37823e-05
4.30797e-05
2.30443e-05
4.24339e-05
2.77052e-05
4.30557e-05
2.30443e-05
4.24098e-05
2.88149e-05
2.92895e-05
3.1801e-05
2.87801e-05
2.92679e-05
4.43481e-05
2.16794e-05
4.43666e-05
2.16672e-05
1.40849e-05
1.40716e-05
4.32094e-05
2.10803e-05
4.32346e-05
2.10493e-05
2.06295e-05
2.06323e-05
2.06332e-05
2.06322e-05
2.06293e-05
2.06324e-05
2.06332e-05
4.30784e-05
4.18468e-05
2.34707e-05
2.79867e-05
4.30402e-05
4.18022e-05
2.34709e-05
1.38015e-05
1.37817e-05
4.30806e-05
2.3044e-05
4.24323e-05
2.77053e-05
4.30536e-05
2.30443e-05
4.24098e-05
2.88146e-05
2.92913e-05
3.18035e-05
2.87797e-05
2.927e-05
4.43492e-05
2.16809e-05
4.4366e-05
2.16682e-05
1.40832e-05
1.4073e-05
4.32087e-05
2.10796e-05
4.32342e-05
2.10491e-05
2.06293e-05
2.06323e-05
2.06332e-05
2.06321e-05
2.06294e-05
2.06323e-05
2.06333e-05
4.30747e-05
4.18474e-05
2.34702e-05
2.7987e-05
4.30333e-05
4.18094e-05
2.34703e-05
1.38017e-05
1.3782e-05
4.308e-05
2.30441e-05
4.24312e-05
2.77046e-05
4.3054e-05
2.30441e-05
4.24063e-05
2.88154e-05
2.92911e-05
3.17989e-05
2.87803e-05
2.9267e-05
4.43464e-05
2.16795e-05
4.43654e-05
2.16673e-05
1.40869e-05
1.40746e-05
4.32099e-05
2.10796e-05
4.32353e-05
2.10488e-05
2.06294e-05
2.06323e-05
2.06333e-05
2.06332e-05
4.30728e-05
4.1846e-05
2.34706e-05
2.79861e-05
4.30392e-05
4.18017e-05
2.34704e-05
1.38007e-05
1.37766e-05
4.308e-05
2.3044e-05
4.24301e-05
2.77047e-05
4.30524e-05
2.30441e-05
4.24069e-05
2.88143e-05
2.92913e-05
3.18025e-05
2.87799e-05
2.92694e-05
4.39623e-05
2.16994e-05
2.16209e-05
4.39315e-05
4.2985e-05
4.22062e-05
2.30772e-05
2.76987e-05
2.30678e-05
4.29946e-05
4.22111e-05
4.29699e-05
4.21987e-05
2.30845e-05
2.76967e-05
4.22036e-05
2.30734e-05
4.29792e-05
4.40084e-05
2.16053e-05
4.40123e-05
2.16418e-05
4.39857e-05
2.16008e-05
2.163e-05
4.39932e-05
4.2958e-05
2.77042e-05
4.22232e-05
2.30526e-05
2.30597e-05
4.29445e-05
4.22304e-05
4.29437e-05
2.77031e-05
4.22223e-05
2.30559e-05
4.22213e-05
2.30641e-05
4.29319e-05
2.91566e-05
2.87934e-05
3.17672e-05
2.91172e-05
2.87519e-05
1.38263e-05
1.38134e-05
1.40547e-05
1.40551e-05
3.17457e-05
2.91433e-05
2.8797e-05
2.91401e-05
2.8792e-05
1.38446e-05
1.384e-05
4.30366e-05
4.18274e-05
2.34778e-05
2.79975e-05
2.34779e-05
4.29873e-05
4.1803e-05
4.31684e-05
2.10849e-05
2.10406e-05
4.31917e-05
4.30275e-05
2.34816e-05
4.17843e-05
2.79861e-05
2.3481e-05
4.17595e-05
4.29787e-05
4.32014e-05
2.10609e-05
4.31776e-05
2.10931e-05
4.3006e-05
2.80002e-05
4.17966e-05
2.34773e-05
2.34774e-05
4.30452e-05
4.18286e-05
4.31943e-05
2.10365e-05
2.10686e-05
4.31688e-05
4.2997e-05
2.79881e-05
2.3479e-05
4.17529e-05
2.348e-05
4.17852e-05
4.30361e-05
4.31664e-05
2.10835e-05
2.10562e-05
4.31861e-05
4.30222e-05
2.34829e-05
4.1791e-05
2.79842e-05
2.3482e-05
4.17655e-05
4.29741e-05
4.31656e-05
2.10863e-05
2.105e-05
4.31855e-05
4.29973e-05
2.79835e-05
4.18003e-05
2.34789e-05
4.18008e-05
2.34812e-05
4.3042e-05
4.31966e-05
2.11048e-05
2.10977e-05
4.32091e-05
4.29929e-05
2.79861e-05
2.34793e-05
4.17689e-05
2.34809e-05
4.17916e-05
4.30376e-05
4.31944e-05
2.10728e-05
2.10832e-05
4.31991e-05
2.87504e-05
2.93092e-05
3.17779e-05
2.87071e-05
2.92788e-05
1.4121e-05
1.41057e-05
1.37922e-05
1.3809e-05
3.17559e-05
2.87019e-05
2.92759e-05
2.87409e-05
2.93013e-05
1.41096e-05
1.41159e-05
4.30767e-05
2.30529e-05
4.24232e-05
2.77158e-05
2.3052e-05
4.2406e-05
4.30551e-05
4.43254e-05
2.16977e-05
2.16737e-05
4.43356e-05
4.43239e-05
2.17075e-05
2.1682e-05
4.43337e-05
4.30634e-05
2.77039e-05
2.30474e-05
4.23793e-05
2.30478e-05
4.23954e-05
4.30689e-05
4.30628e-05
2.77161e-05
2.30506e-05
4.24014e-05
2.30514e-05
4.24201e-05
4.30706e-05
4.43337e-05
2.16724e-05
2.16874e-05
4.43242e-05
4.43325e-05
2.16812e-05
2.16958e-05
4.43238e-05
1.38304e-05
1.38073e-05
1.4125e-05
1.41091e-05
3.17721e-05
2.87908e-05
2.92494e-05
2.88098e-05
2.92734e-05
1.38249e-05
1.38288e-05
1.41139e-05
1.41195e-05
1.40652e-05
1.40744e-05
1.38353e-05
1.38421e-05
2.9209e-05
2.87676e-05
3.17861e-05
2.92303e-05
2.87736e-05
1.41015e-05
1.40967e-05
1.38759e-05
1.38751e-05
3.1764e-05
2.93165e-05
2.88643e-05
2.92889e-05
2.8844e-05
4.40621e-05
2.16201e-05
4.40189e-05
2.16222e-05
4.29171e-05
4.22419e-05
2.30462e-05
2.77133e-05
4.29175e-05
4.22569e-05
2.30406e-05
4.29076e-05
4.22506e-05
2.30489e-05
2.77159e-05
4.29063e-05
4.22816e-05
2.30427e-05
4.4116e-05
2.16438e-05
2.16469e-05
4.41368e-05
4.41038e-05
2.16296e-05
2.16428e-05
4.41261e-05
4.29008e-05
2.77157e-05
4.23573e-05
2.30307e-05
4.23004e-05
2.30353e-05
4.29317e-05
4.28919e-05
2.77202e-05
4.2344e-05
2.30319e-05
4.23228e-05
2.30371e-05
4.29247e-05
2.91962e-05
2.88665e-05
3.17764e-05
2.92215e-05
2.88893e-05
1.38761e-05
1.38758e-05
1.40904e-05
1.40952e-05
3.17581e-05
2.92611e-05
2.89203e-05
2.92649e-05
2.89448e-05
1.38788e-05
1.38987e-05
4.30347e-05
4.18211e-05
2.34769e-05
2.80024e-05
4.30097e-05
4.18189e-05
2.34765e-05
4.31676e-05
2.10738e-05
4.31915e-05
2.10766e-05
4.30253e-05
2.34784e-05
4.17773e-05
2.79882e-05
4.30003e-05
2.34771e-05
4.17737e-05
4.32272e-05
2.11544e-05
2.11535e-05
4.32821e-05
4.2999e-05
2.80038e-05
4.19295e-05
2.34771e-05
4.18765e-05
2.34765e-05
4.30793e-05
4.32208e-05
2.11351e-05
2.11317e-05
4.32754e-05
4.29899e-05
2.79889e-05
2.34771e-05
4.18857e-05
2.34767e-05
4.18315e-05
4.30707e-05
4.33251e-05
2.11581e-05
4.32694e-05
2.11552e-05
4.30838e-05
2.34792e-05
4.18076e-05
2.79876e-05
4.30058e-05
2.34797e-05
4.18412e-05
4.33044e-05
2.11219e-05
4.32535e-05
2.11237e-05
4.30853e-05
2.80011e-05
4.19941e-05
2.34844e-05
4.19806e-05
2.34813e-05
4.31911e-05
4.33884e-05
2.11592e-05
2.11905e-05
4.3397e-05
4.30668e-05
2.79903e-05
2.34841e-05
4.19359e-05
2.34811e-05
4.19042e-05
4.31766e-05
4.33704e-05
2.11414e-05
2.11652e-05
4.3388e-05
2.87458e-05
2.9311e-05
3.17744e-05
2.87515e-05
2.93338e-05
1.41293e-05
1.4148e-05
1.38603e-05
1.38588e-05
3.17502e-05
2.88422e-05
2.94262e-05
2.8822e-05
2.93946e-05
1.41845e-05
1.41752e-05
4.30863e-05
2.30498e-05
4.24178e-05
2.77147e-05
4.30539e-05
2.30496e-05
4.24371e-05
4.43713e-05
2.17015e-05
4.43427e-05
2.17294e-05
4.43682e-05
2.17106e-05
4.4341e-05
2.17357e-05
4.30815e-05
2.77043e-05
2.30489e-05
4.2542e-05
2.30476e-05
4.24599e-05
4.3158e-05
4.30799e-05
2.77158e-05
2.30504e-05
4.25606e-05
2.30497e-05
4.24863e-05
4.31558e-05
4.44243e-05
2.17903e-05
2.17718e-05
4.45081e-05
4.44205e-05
2.17929e-05
2.17763e-05
4.45047e-05
1.38545e-05
1.38581e-05
1.41345e-05
1.41522e-05
3.17628e-05
2.89141e-05
2.93938e-05
2.89261e-05
2.93699e-05
1.38689e-05
1.38835e-05
1.41843e-05
1.4178e-05
1.41149e-05
1.4106e-05
1.38994e-05
1.38801e-05
2.93573e-05
2.8919e-05
3.18302e-05
2.93431e-05
2.88938e-05
1.41058e-05
1.41171e-05
1.3873e-05
1.38989e-05
3.1814e-05
2.93332e-05
2.88776e-05
2.93674e-05
2.89278e-05
4.41472e-05
2.16444e-05
4.41443e-05
2.16304e-05
4.29468e-05
4.23952e-05
2.30269e-05
2.7724e-05
4.2923e-05
4.24026e-05
2.30235e-05
4.29388e-05
4.23669e-05
2.30273e-05
2.77227e-05
4.29158e-05
4.23651e-05
2.30231e-05
4.41747e-05
2.16483e-05
2.16566e-05
4.41887e-05
4.41669e-05
2.16375e-05
2.16485e-05
4.41812e-05
4.29285e-05
2.77239e-05
4.24008e-05
2.30181e-05
4.24205e-05
2.30205e-05
4.29405e-05
4.29202e-05
2.77183e-05
4.23774e-05
2.30171e-05
4.23816e-05
2.30196e-05
4.29352e-05
2.9289e-05
2.89547e-05
3.18228e-05
2.92691e-05
2.89049e-05
1.38975e-05
1.38746e-05
1.40891e-05
1.40991e-05
3.17969e-05
2.92583e-05
2.88776e-05
2.92888e-05
2.8938e-05
1.38602e-05
1.38929e-05
4.31738e-05
4.19934e-05
2.34786e-05
2.80236e-05
4.30628e-05
4.20102e-05
2.34818e-05
4.33681e-05
2.11743e-05
4.33448e-05
2.11461e-05
4.31653e-05
2.34783e-05
4.19508e-05
2.80075e-05
4.30542e-05
2.3481e-05
4.19691e-05
4.34047e-05
2.11517e-05
2.11916e-05
4.33496e-05
4.31517e-05
2.80278e-05
4.19982e-05
2.34837e-05
4.20422e-05
2.34835e-05
4.32012e-05
4.33991e-05
2.11359e-05
2.11755e-05
4.33459e-05
4.31433e-05
2.80118e-05
2.34827e-05
4.19609e-05
2.34827e-05
4.20017e-05
4.31936e-05
4.33592e-05
2.11879e-05
4.34222e-05
2.11468e-05
4.32026e-05
2.34861e-05
4.19756e-05
2.80076e-05
4.31543e-05
2.34863e-05
4.19553e-05
4.33577e-05
2.11715e-05
4.34168e-05
2.11344e-05
4.31484e-05
2.80118e-05
4.19569e-05
2.34813e-05
4.19959e-05
2.34833e-05
4.31446e-05
4.33778e-05
2.11333e-05
2.11747e-05
4.334e-05
4.31494e-05
2.8008e-05
2.34818e-05
4.19233e-05
2.34844e-05
4.19732e-05
4.314e-05
4.33757e-05
2.11223e-05
2.11627e-05
4.33354e-05
2.88968e-05
2.94674e-05
3.18198e-05
2.88709e-05
2.94516e-05
1.41984e-05
1.41866e-05
1.38581e-05
1.38841e-05
3.18041e-05
2.88545e-05
2.94312e-05
2.89049e-05
2.94735e-05
1.41764e-05
1.41955e-05
4.32142e-05
2.30523e-05
4.26044e-05
2.77334e-05
4.31532e-05
2.30535e-05
4.26177e-05
4.45523e-05
2.18132e-05
4.45438e-05
2.17977e-05
4.45504e-05
2.18164e-05
4.4541e-05
2.18037e-05
4.32057e-05
2.77246e-05
2.30523e-05
4.2584e-05
2.30526e-05
4.26129e-05
4.32213e-05
4.32049e-05
2.77357e-05
2.30534e-05
4.26104e-05
2.30538e-05
4.26359e-05
4.32224e-05
4.45638e-05
2.17788e-05
2.18096e-05
4.45366e-05
4.4562e-05
2.17857e-05
2.18166e-05
4.45364e-05
1.38884e-05
1.38638e-05
1.41977e-05
1.41853e-05
3.1816e-05
2.88915e-05
2.93898e-05
2.89389e-05
2.94322e-05
1.38565e-05
1.3882e-05
1.41752e-05
1.41944e-05
1.41164e-05
1.41027e-05
1.3891e-05
1.3864e-05
2.93555e-05
2.89103e-05
3.18174e-05
2.93214e-05
2.88603e-05
1.40973e-05
1.41125e-05
1.38536e-05
1.38817e-05
3.17913e-05
2.93056e-05
2.88396e-05
2.93434e-05
2.88933e-05
4.42127e-05
2.16536e-05
4.42043e-05
2.16348e-05
4.29772e-05
4.24131e-05
2.30162e-05
2.77131e-05
4.29332e-05
4.24007e-05
2.30145e-05
4.29712e-05
4.23959e-05
2.30153e-05
2.77121e-05
4.29281e-05
4.23872e-05
2.30136e-05
4.42404e-05
2.165e-05
2.16694e-05
4.42403e-05
4.42285e-05
2.16291e-05
2.16493e-05
4.42267e-05
4.29672e-05
2.77123e-05
4.24055e-05
2.30107e-05
4.24194e-05
2.30127e-05
4.29914e-05
4.29609e-05
2.77114e-05
4.23787e-05
2.30095e-05
4.24019e-05
2.30117e-05
4.2983e-05
2.9281e-05
2.89089e-05
3.18012e-05
2.92502e-05
2.88504e-05
1.38761e-05
1.38458e-05
1.40834e-05
1.40961e-05
3.1783e-05
2.92407e-05
2.88343e-05
2.92722e-05
2.88824e-05
1.38379e-05
1.3863e-05
4.314e-05
4.20157e-05
2.34821e-05
2.80257e-05
4.31489e-05
4.19761e-05
2.34808e-05
4.33239e-05
2.11641e-05
4.33638e-05
2.11226e-05
4.31337e-05
2.34811e-05
4.19784e-05
2.80104e-05
4.31422e-05
2.34798e-05
4.19385e-05
4.3354e-05
2.11297e-05
2.11702e-05
4.33333e-05
4.31014e-05
2.80262e-05
4.19832e-05
2.34827e-05
4.20053e-05
2.34809e-05
4.3175e-05
4.33525e-05
2.11056e-05
2.11508e-05
4.33308e-05
4.30953e-05
2.80112e-05
2.34818e-05
4.19433e-05
2.348e-05
4.19677e-05
4.31692e-05
4.33357e-05
2.11612e-05
4.3367e-05
2.11185e-05
4.31706e-05
2.34813e-05
4.19486e-05
2.80055e-05
4.31005e-05
2.3482e-05
4.19353e-05
4.33358e-05
2.11508e-05
4.33621e-05
2.11103e-05
4.31508e-05
2.80139e-05
4.19251e-05
2.34835e-05
4.19746e-05
2.34834e-05
4.31583e-05
4.33544e-05
2.11058e-05
2.11462e-05
4.33064e-05
4.31439e-05
2.80076e-05
2.34843e-05
4.19096e-05
2.34838e-05
4.19614e-05
4.31583e-05
4.33543e-05
2.10967e-05
2.11384e-05
4.33043e-05
2.88875e-05
2.94518e-05
3.18134e-05
2.88377e-05
2.94075e-05
1.41846e-05
1.41634e-05
1.38368e-05
1.38661e-05
3.17876e-05
2.88165e-05
2.93817e-05
2.88709e-05
2.94279e-05
1.41504e-05
1.41715e-05
4.31952e-05
2.30527e-05
4.26189e-05
2.77335e-05
4.31981e-05
2.30525e-05
4.25839e-05
4.45124e-05
2.17912e-05
4.45426e-05
2.17612e-05
4.45125e-05
2.17982e-05
4.45423e-05
2.17656e-05
4.31756e-05
2.77232e-05
2.30525e-05
4.25492e-05
2.30514e-05
4.25818e-05
4.31936e-05
4.31774e-05
2.77339e-05
2.30538e-05
4.25597e-05
2.30527e-05
4.25937e-05
4.31953e-05
4.45178e-05
2.17425e-05
2.17735e-05
4.44823e-05
4.45178e-05
2.17475e-05
2.1778e-05
4.44823e-05
1.38746e-05
1.38477e-05
1.41837e-05
1.41627e-05
3.17926e-05
2.88588e-05
2.93478e-05
2.89099e-05
2.93879e-05
1.38391e-05
1.38654e-05
1.41528e-05
1.41713e-05
1.41072e-05
1.4094e-05
1.38711e-05
1.38445e-05
2.93271e-05
2.88717e-05
3.18279e-05
2.92909e-05
2.88184e-05
1.40948e-05
1.41049e-05
1.38404e-05
1.3863e-05
3.17991e-05
2.92832e-05
2.88075e-05
2.93132e-05
2.88516e-05
4.42346e-05
2.16438e-05
4.42395e-05
2.16259e-05
4.29949e-05
4.24169e-05
2.3009e-05
2.77104e-05
4.29764e-05
4.23905e-05
2.30078e-05
4.29858e-05
4.23904e-05
2.30076e-05
2.77063e-05
4.29675e-05
4.23672e-05
2.30063e-05
4.42653e-05
2.16579e-05
2.16664e-05
4.42674e-05
4.42474e-05
2.16338e-05
2.16425e-05
4.42488e-05
4.2982e-05
2.77092e-05
4.23856e-05
2.30073e-05
4.24037e-05
2.30073e-05
4.3001e-05
4.29728e-05
2.77061e-05
4.2365e-05
2.30057e-05
4.23791e-05
2.30057e-05
4.29901e-05
2.92619e-05
2.88689e-05
3.17893e-05
2.92322e-05
2.88324e-05
1.3857e-05
1.38407e-05
1.40828e-05
1.40888e-05
3.17654e-05
2.92281e-05
2.88345e-05
2.92521e-05
2.88697e-05
1.38389e-05
1.38616e-05
4.31669e-05
4.20012e-05
2.3485e-05
2.80292e-05
4.31486e-05
4.19487e-05
2.34859e-05
4.32942e-05
2.1133e-05
4.33487e-05
2.10899e-05
4.31615e-05
2.34843e-05
4.19606e-05
2.80154e-05
4.31427e-05
2.34851e-05
4.19061e-05
4.33173e-05
2.11097e-05
2.11445e-05
4.32796e-05
4.31163e-05
2.80279e-05
4.19298e-05
2.34869e-05
4.19686e-05
2.34861e-05
4.31299e-05
4.33141e-05
2.10833e-05
2.11186e-05
4.32747e-05
4.31109e-05
2.80146e-05
2.34862e-05
4.18848e-05
2.34855e-05
4.19258e-05
4.31238e-05
4.32921e-05
2.11342e-05
4.33272e-05
2.11003e-05
4.31292e-05
2.34842e-05
4.19291e-05
2.80075e-05
4.3108e-05
2.34844e-05
4.18891e-05
4.32877e-05
2.11252e-05
4.33248e-05
2.10888e-05
4.31077e-05
2.80103e-05
4.19177e-05
2.34867e-05
4.19361e-05
2.34844e-05
4.31457e-05
4.3316e-05
2.10997e-05
2.11304e-05
4.32859e-05
4.30997e-05
2.80075e-05
2.34871e-05
4.18877e-05
2.34851e-05
4.19143e-05
4.31393e-05
4.33112e-05
2.10868e-05
2.11186e-05
4.32812e-05
2.88486e-05
2.94021e-05
3.18283e-05
2.87944e-05
2.93608e-05
1.41588e-05
1.41415e-05
1.38229e-05
1.38457e-05
3.17994e-05
2.87835e-05
2.93509e-05
2.88276e-05
2.93825e-05
1.41379e-05
1.4151e-05
4.31733e-05
2.30547e-05
4.25693e-05
2.77343e-05
4.31781e-05
2.30553e-05
4.25358e-05
4.44504e-05
2.17549e-05
4.44871e-05
2.17276e-05
4.44501e-05
2.17604e-05
4.4487e-05
2.17343e-05
4.31512e-05
2.77251e-05
2.3057e-05
4.2501e-05
2.30549e-05
4.25309e-05
4.31546e-05
4.31521e-05
2.77341e-05
2.30582e-05
4.25196e-05
2.30562e-05
4.25461e-05
4.31544e-05
4.44558e-05
2.17183e-05
2.17408e-05
4.44275e-05
4.44553e-05
2.17266e-05
2.17479e-05
4.44269e-05
1.38575e-05
1.38337e-05
1.41618e-05
1.41458e-05
3.17973e-05
2.88414e-05
2.93254e-05
2.88798e-05
2.93549e-05
1.38327e-05
1.38529e-05
1.41432e-05
1.41557e-05
1.41064e-05
1.40979e-05
1.386e-05
1.38404e-05
2.93065e-05
2.88419e-05
3.18153e-05
2.92829e-05
2.88041e-05
1.41018e-05
1.41101e-05
1.38425e-05
1.38609e-05
3.17914e-05
2.9292e-05
2.88093e-05
2.93102e-05
2.884e-05
4.42704e-05
2.16522e-05
4.42653e-05
2.16429e-05
4.30146e-05
4.23998e-05
2.30076e-05
2.77091e-05
4.29873e-05
4.23873e-05
2.30088e-05
4.30027e-05
4.23809e-05
2.3006e-05
2.77082e-05
4.29758e-05
4.23744e-05
2.30075e-05
4.43078e-05