/*--------------------------------*- C++ -*----------------------------------*\
| =========                 |                                                 |
| \\      /  F ield         | OpenFOAM: The Open Source CFD Toolbox           |
|  \\    /   O peration     | Version:  2206                                  |
|   \\  /    A nd           | Website:  www.openfoam.com                      |
|    \\/     M anipulation  |                                                 |
\*---------------------------------------------------------------------------*/
FoamFile
{
    version     2.0;
    format      ascii;
    arch        "LSB;label=32;scalar=64";
    class       volScalarField;
    location    "0.4";
    object      nut;
}
// * * * * * * * * * * * * * * * * * * * * * * * * * * * * * * * * * * * * * //

dimensions      [0 2 -1 0 0 0 0];

internalField   nonuniform List<scalar> 
66928
(
9.27193e-07
9.86551e-07
9.67207e-07
9.65477e-07
9.2588e-07
9.90011e-07
9.56191e-07
9.27138e-07
1.10292e-06
1.10288e-06
3.43672e-08
3.35592e-08
1.47631e-07
1.43969e-07
7.24159e-08
2.70227e-07
6.98164e-08
2.5765e-07
2.63935e-07
1.13689e-06
5.03265e-07
6.97298e-08
2.576e-07
1.13633e-06
2.63704e-07
5.03268e-07
3.35207e-08
1.43902e-07
1.48299e-07
3.4399e-08
2.71634e-07
7.23093e-08
3.43644e-08
3.42742e-08
3.35878e-08
3.35373e-08
1.47873e-07
1.44274e-07
9.2713e-07
1.47681e-07
1.43937e-07
3.42533e-08
3.42804e-08
3.35432e-08
3.35689e-08
9.55934e-07
1.47714e-07
1.43912e-07
1.47898e-07
1.44232e-07
3.44179e-08
2.2084e-07
3.59332e-07
1.47865e-07
6.79194e-08
6.80041e-08
3.60349e-07
2.21331e-07
2.19519e-07
3.53631e-07
1.44284e-07
6.61784e-08
6.62646e-08
3.54397e-07
2.20172e-07
8.75963e-08
2.88355e-08
2.85746e-08
2.88589e-08
2.86039e-08
8.74384e-08
7.25276e-08
1.42325e-07
1.42323e-07
3.02728e-08
1.36302e-07
2.90448e-08
2.21852e-07
5.84422e-08
5.00607e-08
1.36132e-07
2.90156e-08
5.84256e-08
2.21716e-07
5.00301e-08
2.19478e-07
3.53389e-07
1.44222e-07
6.60885e-08
3.54144e-07
6.61778e-08
2.20162e-07
2.2101e-07
3.6005e-07
1.48519e-07
6.80996e-08
6.8171e-08
3.61089e-07
2.21517e-07
8.77428e-08
2.85833e-08
2.89043e-08
2.86152e-08
2.89322e-08
8.75757e-08
3.44205e-08
7.23687e-08
1.43016e-07
1.43128e-07
3.00707e-08
3.43137e-08
3.43151e-08
3.35475e-08
3.35767e-08
8.75841e-08
2.88297e-08
2.85665e-08
2.88535e-08
2.85941e-08
8.74313e-08
2.21336e-07
3.60459e-07
6.79668e-08
1.47661e-07
2.20833e-07
6.78862e-08
3.59444e-07
2.20148e-07
3.54455e-07
6.62526e-08
1.4396e-07
2.19489e-07
6.61653e-08
3.5367e-07
8.7432e-08
2.88574e-08
2.85991e-08
8.75872e-08
2.88326e-08
2.85698e-08
2.20842e-07
6.78596e-08
1.47887e-07
3.59468e-07
6.79356e-08
2.21343e-07
3.60511e-07
2.1947e-07
6.61504e-08
1.44256e-07
3.53662e-07
6.6236e-08
2.20133e-07
3.54469e-07
3.42669e-08
3.42529e-08
3.35709e-08
3.35335e-08
8.74336e-08
2.88529e-08
2.85936e-08
8.75844e-08
2.88327e-08
2.85698e-08
2.20835e-07
3.59456e-07
1.47906e-07
6.78629e-08
6.79148e-08
3.60511e-07
2.21334e-07
2.1945e-07
3.53611e-07
1.44212e-07
6.61639e-08
6.62309e-08
3.54443e-07
2.20117e-07
2.21339e-07
6.79132e-08
3.60518e-07
1.4769e-07
2.20844e-07
6.78495e-08
3.59467e-07
2.20124e-07
6.62251e-08
3.54458e-07
1.43915e-07
2.1946e-07
6.61461e-08
3.53641e-07
8.75979e-08
2.88484e-08
2.85854e-08
2.88618e-08
2.86026e-08
8.74654e-08
4.03582e-07
9.56059e-07
5.5965e-07
5.56143e-07
5.68674e-07
5.6743e-07
4.01053e-07
4.03504e-07
9.53826e-07
5.52028e-07
5.64544e-07
5.63269e-07
5.73569e-07
4.01009e-07
4.01036e-07
5.6864e-07
5.67429e-07
9.27221e-07
4.03575e-07
5.59566e-07
5.56099e-07
4.03488e-07
9.55991e-07
5.59346e-07
5.55905e-07
5.68369e-07
5.67214e-07
4.0095e-07
1.06267e-06
1.0623e-06
6.92892e-07
5.10152e-07
2.6994e-07
3.73615e-07
5.1452e-07
3.73813e-07
6.86321e-07
6.72974e-07
4.95276e-07
2.63052e-07
3.62341e-07
5.01518e-07
3.6266e-07
6.59317e-07
7.8549e-07
5.0736e-07
4.57945e-07
8.51082e-07
4.60774e-07
8.81374e-07
7.64028e-07
6.74071e-07
4.96718e-07
2.62817e-07
3.62086e-07
3.62341e-07
5.02955e-07
6.60518e-07
7.86771e-07
5.07358e-07
8.52613e-07
4.57881e-07
8.83024e-07
4.60612e-07
7.65176e-07
6.91824e-07
5.08656e-07
2.71419e-07
3.75597e-07
5.12963e-07
3.76294e-07
6.85557e-07
4.03542e-07
9.56e-07
5.59468e-07
5.56007e-07
4.01002e-07
5.68515e-07
5.67334e-07
4.0098e-07
9.27091e-07
5.6842e-07
5.67251e-07
4.03515e-07
5.59391e-07
5.55943e-07
1.10319e-06
9.67652e-07
9.90326e-07
9.55706e-07
1.10436e-06
9.6779e-07
9.89901e-07
9.55961e-07
1.10444e-06
9.68471e-07
9.90137e-07
9.56228e-07
1.10365e-06
9.6836e-07
9.90247e-07
9.56953e-07
1.104e-06
9.68404e-07
9.90312e-07
9.5709e-07
1.10438e-06
9.68571e-07
9.90423e-07
9.56779e-07
1.10525e-06
9.69324e-07
9.90964e-07
9.57181e-07
1.10565e-06
9.69577e-07
9.91624e-07
9.58233e-07
1.1051e-06
9.68907e-07
9.91297e-07
9.5783e-07
1.10451e-06
9.68542e-07
9.90633e-07
9.56897e-07
1.10442e-06
9.68156e-07
9.90406e-07
9.56942e-07
1.10423e-06
9.67792e-07
9.89957e-07
9.56173e-07
1.10412e-06
9.67814e-07
9.89815e-07
9.56067e-07
1.10411e-06
9.67775e-07
9.8983e-07
9.56159e-07
1.1041e-06
9.67844e-07
9.89815e-07
9.5609e-07
1.1041e-06
9.67741e-07
9.89863e-07
9.56082e-07
1.1041e-06
9.67789e-07
9.8984e-07
9.56213e-07
9.86715e-07
9.8602e-07
9.87351e-07
9.86855e-07
9.55378e-07
9.27132e-07
9.67279e-07
9.65452e-07
9.67596e-07
9.65643e-07
9.66202e-07
9.6778e-07
9.66209e-07
9.55321e-07
9.2664e-07
9.89969e-07
9.90046e-07
9.89671e-07
9.27081e-07
9.5596e-07
9.27255e-07
9.87429e-07
9.86905e-07
9.87705e-07
9.87297e-07
9.55684e-07
9.2771e-07
9.67532e-07
9.65566e-07
9.67591e-07
9.65585e-07
9.66159e-07
9.68342e-07
9.66382e-07
9.55558e-07
9.26543e-07
9.89553e-07
9.89987e-07
9.89663e-07
9.27044e-07
9.56271e-07
9.28414e-07
9.87742e-07
9.87236e-07
9.87579e-07
9.86909e-07
9.56444e-07
9.27584e-07
9.67778e-07
9.65755e-07
9.68116e-07
9.66114e-07
9.66549e-07
9.68326e-07
9.66593e-07
9.5569e-07
9.28021e-07
9.89828e-07
9.90307e-07
9.89995e-07
9.282e-07
9.57178e-07
9.27835e-07
9.8739e-07
9.86772e-07
9.87259e-07
9.86699e-07
9.56038e-07
9.27668e-07
9.68048e-07
9.6607e-07
9.68081e-07
9.66138e-07
9.66544e-07
9.68427e-07
9.66649e-07
9.56918e-07
9.27673e-07
9.89935e-07
9.90285e-07
9.89956e-07
9.28035e-07
9.56907e-07
9.27652e-07
9.87257e-07
9.86615e-07
9.87276e-07
9.86774e-07
9.5603e-07
9.27492e-07
9.68116e-07
9.66191e-07
9.68145e-07
9.66229e-07
9.6665e-07
9.68431e-07
9.66705e-07
9.56857e-07
9.27518e-07
9.89966e-07
9.90376e-07
9.90018e-07
9.27718e-07
9.56599e-07
9.27881e-07
9.87321e-07
9.86751e-07
9.87639e-07
9.87259e-07
9.56143e-07
9.27844e-07
9.68182e-07
9.66284e-07
9.68482e-07
9.66605e-07
9.66809e-07
9.69111e-07
9.67257e-07
9.56579e-07
9.2778e-07
9.90104e-07
9.90768e-07
9.90537e-07
9.28115e-07
9.56867e-07
9.28671e-07
9.87816e-07
9.87418e-07
9.88332e-07
9.87885e-07
9.56474e-07
9.28645e-07
9.68615e-07
9.66761e-07
9.69167e-07
9.6734e-07
9.67475e-07
9.69567e-07
9.67991e-07
9.56886e-07
9.2876e-07
9.9076e-07
9.91561e-07
9.91344e-07
9.29151e-07
9.57751e-07
9.28538e-07
9.88392e-07
9.87822e-07
9.88233e-07
9.87431e-07
9.57291e-07
9.28016e-07
9.69243e-07
9.67434e-07
9.6914e-07
9.67354e-07
9.68018e-07
9.69117e-07
9.67743e-07
9.57955e-07
9.28702e-07
9.91394e-07
9.91505e-07
9.912e-07
9.28923e-07
9.57376e-07
9.27746e-07
9.88033e-07
9.87185e-07
9.87661e-07
9.8706e-07
9.564e-07
9.2739e-07
9.68958e-07
9.67195e-07
9.68374e-07
9.66564e-07
9.67493e-07
9.68525e-07
9.66978e-07
9.57691e-07
9.27821e-07
9.90945e-07
9.90714e-07
9.9037e-07
9.27963e-07
9.56529e-07
9.27978e-07
9.87644e-07
9.87004e-07
9.87704e-07
9.87013e-07
9.56087e-07
9.27253e-07
9.68297e-07
9.66482e-07
9.68309e-07
9.66468e-07
9.66945e-07
9.68277e-07
9.66795e-07
9.5673e-07
9.27836e-07
9.90311e-07
9.90505e-07
9.90175e-07
9.27977e-07
9.56757e-07
9.27232e-07
9.877e-07
9.86895e-07
9.8748e-07
9.86828e-07
9.55698e-07
9.26747e-07
9.68237e-07
9.66395e-07
9.6784e-07
9.65962e-07
9.66679e-07
9.67791e-07
9.66336e-07
9.56835e-07
9.27002e-07
9.90073e-07
9.90056e-07
9.89751e-07
9.2719e-07
9.55937e-07
9.2702e-07
9.87417e-07
9.86739e-07
9.87315e-07
9.86734e-07
9.55462e-07
9.26709e-07
9.67722e-07
9.65851e-07
9.6756e-07
9.65696e-07
9.66262e-07
9.67779e-07
9.66186e-07
9.55936e-07
9.26775e-07
9.8967e-07
9.89823e-07
9.89533e-07
9.27024e-07
9.55777e-07
9.27133e-07
9.87303e-07
9.86695e-07
9.87333e-07
9.86777e-07
9.55286e-07
9.26729e-07
9.67543e-07
9.65694e-07
9.67604e-07
9.65747e-07
9.66196e-07
9.67714e-07
9.66206e-07
9.5578e-07
9.26935e-07
9.89532e-07
9.89849e-07
9.89522e-07
9.27122e-07
9.5591e-07
9.27009e-07
9.87302e-07
9.8673e-07
9.87319e-07
9.86707e-07
9.55471e-07
9.26701e-07
9.67571e-07
9.65725e-07
9.67568e-07
9.65716e-07
9.66224e-07
9.67777e-07
9.66177e-07
9.55932e-07
9.268e-07
9.8955e-07
9.89822e-07
9.8949e-07
9.27019e-07
9.55752e-07
9.27149e-07
9.87294e-07
9.86705e-07
9.87267e-07
9.86808e-07
9.55314e-07
9.26705e-07
9.67535e-07
9.65706e-07
9.67548e-07
9.65689e-07
9.66238e-07
9.67743e-07
9.66218e-07
9.55719e-07
9.27021e-07
9.89545e-07
9.89798e-07
9.89555e-07
9.2712e-07
9.55955e-07
9.27072e-07
9.8735e-07
9.86678e-07
9.87331e-07
9.86761e-07
9.55431e-07
9.26723e-07
9.67606e-07
9.65768e-07
9.67574e-07
9.65707e-07
9.66181e-07
9.6784e-07
9.66264e-07
9.55837e-07
9.27132e-07
9.89509e-07
9.89835e-07
9.89571e-07
9.27189e-07
9.5588e-07
9.87304e-07
9.86647e-07
9.55364e-07
9.6756e-07
9.65701e-07
9.66186e-07
9.66163e-07
9.55486e-07
9.89499e-07
9.89488e-07
9.27032e-07
2.67501e-07
7.24086e-08
2.66957e-07
7.21393e-08
3.43395e-08
3.42455e-08
2.57672e-07
6.98898e-08
2.56307e-07
6.97553e-08
1.10305e-06
1.10314e-06
1.10322e-06
1.10411e-06
1.10377e-06
1.10382e-06
1.10386e-06
5.03445e-07
2.63015e-07
1.13726e-06
9.67639e-07
2.63881e-07
1.13781e-06
5.07431e-07
3.35479e-08
3.34974e-08
5.26351e-07
1.14345e-06
2.71423e-07
9.90223e-07
1.14349e-06
2.71655e-07
5.28846e-07
1.44661e-07
1.48227e-07
9.27094e-07
1.44329e-07
1.48003e-07
2.67853e-07
7.20848e-08
2.67269e-07
7.21001e-08
3.43005e-08
3.43239e-08
2.5769e-07
6.98488e-08
2.56329e-07
6.98756e-08
1.1041e-06
1.10394e-06
1.104e-06
1.10453e-06
1.10446e-06
1.10401e-06
1.10416e-06
5.04312e-07
2.6343e-07
1.13885e-06
9.67822e-07
5.07827e-07
2.64876e-07
1.13951e-06
3.35516e-08
3.3585e-08
5.26478e-07
1.14364e-06
2.71435e-07
9.8982e-07
5.28787e-07
1.14372e-06
2.71851e-07
1.44858e-07
1.48278e-07
9.26817e-07
1.4485e-07
1.48364e-07
2.68231e-07
7.22269e-08
2.67858e-07
7.21677e-08
3.43681e-08
3.43498e-08
2.5894e-07
7.01721e-08
2.57281e-07
7.00883e-08
1.10429e-06
1.10396e-06
1.10408e-06
1.10384e-06
1.10337e-06
1.10349e-06
1.10341e-06
5.05593e-07
2.64526e-07
1.14139e-06
9.68346e-07
5.09721e-07
2.65247e-07
1.14135e-06
3.37143e-08
3.36819e-08
5.28052e-07
1.14449e-06
2.72713e-07
9.90248e-07
5.3004e-07
1.14458e-06
2.7311e-07
1.45427e-07
1.49094e-07
9.28038e-07
1.45048e-07
1.48895e-07
2.68592e-07
7.22434e-08
2.68135e-07
7.22101e-08
3.43623e-08
3.43391e-08
2.58659e-07
7.01252e-08
2.57394e-07
7.00118e-08
1.10325e-06
1.10336e-06
1.10328e-06
1.10381e-06
1.10354e-06
1.1037e-06
1.10364e-06
5.05311e-07
2.64278e-07
1.14059e-06
9.6842e-07
5.09042e-07
2.65159e-07
1.14082e-06
3.36929e-08
3.36398e-08
5.2779e-07
1.14399e-06
2.72782e-07
9.90209e-07
5.30568e-07
1.1439e-06
2.72932e-07
1.45249e-07
1.48941e-07
9.27519e-07
1.44872e-07
1.48625e-07
2.68791e-07
7.22388e-08
2.68387e-07
7.2196e-08
3.43478e-08
3.43235e-08
2.58473e-07
7.00478e-08
2.57291e-07
6.99246e-08
1.10374e-06
1.10393e-06
1.10387e-06
1.10428e-06
1.10414e-06
1.10429e-06
1.10434e-06
5.04825e-07
2.64024e-07
1.14091e-06
9.68286e-07
5.09094e-07
2.64806e-07
1.14093e-06
3.36382e-08
3.35869e-08
5.27541e-07
1.14419e-06
2.72546e-07
9.9033e-07
5.30331e-07
1.14429e-06
2.7262e-07
1.45065e-07
1.48711e-07
9.27873e-07
1.447e-07
1.48439e-07
2.69104e-07
7.22763e-08
2.68639e-07
7.22503e-08
3.43522e-08
3.43434e-08
2.58321e-07
6.99868e-08
2.56997e-07
6.99008e-08
1.10429e-06
1.10448e-06
1.10457e-06
1.10504e-06
1.10513e-06
1.10522e-06
1.10543e-06
5.04901e-07
2.64008e-07
1.14145e-06
9.68719e-07
5.09067e-07
2.6485e-07
1.14169e-06
3.36102e-08
3.35757e-08
5.27214e-07
1.14468e-06
2.72242e-07
9.90499e-07
5.29858e-07
1.14487e-06
2.72415e-07
1.44991e-07
1.48607e-07
9.28063e-07
1.44699e-07
1.48404e-07
2.69402e-07
7.23234e-08
2.68991e-07
7.22888e-08
3.43715e-08
3.43496e-08
2.58433e-07
6.99955e-08
2.57015e-07
6.99126e-08
1.10536e-06
1.10546e-06
1.1057e-06
1.10563e-06
1.10562e-06
1.1059e-06
1.10613e-06
5.05262e-07
2.64099e-07
1.14234e-06
9.69355e-07
5.09095e-07
2.64914e-07
1.14257e-06
3.36149e-08
3.35818e-08
5.27498e-07
1.14559e-06
2.72324e-07
9.91188e-07
5.29751e-07
1.14585e-06
2.72602e-07
1.45065e-07
1.48677e-07
9.28699e-07
1.4477e-07
1.48492e-07
2.69478e-07
7.23335e-08
2.69135e-07
7.22972e-08
3.43601e-08
3.43415e-08
2.5853e-07
6.99852e-08
2.57188e-07
6.98813e-08
1.10562e-06
1.10593e-06
1.10614e-06
1.10537e-06
1.10505e-06
1.10569e-06
1.10574e-06
5.05319e-07
2.64116e-07
1.14281e-06
9.69515e-07
5.09645e-07
2.64865e-07
1.14279e-06
3.361e-08
3.35672e-08
5.27808e-07
1.14624e-06
2.72432e-07
9.91619e-07
5.30322e-07
1.14624e-06
2.72566e-07
1.45062e-07
1.48693e-07
9.29357e-07
1.44707e-07
1.48443e-07
2.69556e-07
7.23321e-08
2.69215e-07
7.23001e-08
3.4356e-08
3.43304e-08
2.5837e-07
6.9934e-08
2.57075e-07
6.98233e-08
1.10477e-06
1.1054e-06
1.10543e-06
1.10458e-06
1.10432e-06
1.10478e-06
1.10481e-06
5.04832e-07
2.63852e-07
1.14198e-06
9.68602e-07
5.0925e-07
2.64567e-07
1.14176e-06
3.35824e-08
3.35359e-08
5.27362e-07
1.14574e-06
2.72282e-07
9.91055e-07
5.3005e-07
1.14547e-06
2.72396e-07
1.4495e-07
1.48596e-07
9.28614e-07
1.44581e-07
1.48337e-07
2.69613e-07
7.23289e-08
2.69293e-07
7.22803e-08
3.4336e-08
3.43143e-08
2.58196e-07
6.98718e-08
2.56883e-07
6.97597e-08
1.10427e-06
1.10468e-06
1.10472e-06
1.10446e-06
1.10415e-06
1.10454e-06
1.10454e-06
5.04692e-07
2.6363e-07
1.14147e-06
9.68495e-07
5.08726e-07
2.64397e-07
1.14148e-06
3.355e-08
3.3503e-08
5.27125e-07
1.14502e-06
2.72061e-07
9.90595e-07
5.2962e-07
1.14497e-06
2.72185e-07
1.44821e-07
1.48479e-07
9.28054e-07
1.44453e-07
1.48212e-07
2.69529e-07
7.22979e-08
2.6924e-07
7.22519e-08
3.4328e-08
3.43065e-08
2.57967e-07
6.98092e-08
2.56721e-07
6.97057e-08
1.10409e-06
1.10448e-06
1.10448e-06
1.10428e-06
1.10396e-06
1.10428e-06
1.1043e-06
5.04002e-07
2.63349e-07
1.14109e-06
9.67898e-07
5.08411e-07
2.64103e-07
1.14096e-06
3.35185e-08
3.34768e-08
5.26679e-07
1.14475e-06
2.71826e-07
9.90286e-07
5.29402e-07
1.14464e-06
2.71953e-07
1.44703e-07
1.48353e-07
9.27678e-07
1.44362e-07
1.48109e-07
2.69517e-07
7.22881e-08
2.69216e-07
7.22532e-08
3.43222e-08
3.43048e-08
2.57844e-07
6.97801e-08
2.56497e-07
6.96951e-08
1.10395e-06
1.10422e-06
1.10426e-06
1.10414e-06
1.10393e-06
1.10412e-06
1.10418e-06
5.03934e-07
2.63295e-07
1.14068e-06
9.67776e-07
5.08078e-07
2.64143e-07
1.14067e-06
3.35082e-08
3.34758e-08
5.26312e-07
1.14432e-06
2.71658e-07
9.89882e-07
5.28889e-07
1.14425e-06
2.71843e-07
1.4466e-07
1.48291e-07
9.27212e-07
1.44358e-07
1.48091e-07
2.69545e-07
7.22856e-08
2.69259e-07
7.22503e-08
3.43239e-08
3.4303e-08
2.57895e-07
6.97833e-08
2.56531e-07
6.96988e-08
1.10393e-06
1.10411e-06
1.10417e-06
1.10411e-06
1.10391e-06
1.10411e-06
1.10417e-06
5.04037e-07
2.63326e-07
1.14065e-06
9.6767e-07
5.08108e-07
2.64074e-07
1.14066e-06
3.35119e-08
3.34779e-08
5.26295e-07
1.14413e-06
2.71685e-07
9.89822e-07
5.2873e-07
1.14413e-06
2.71844e-07
1.44668e-07
1.48303e-07
9.27255e-07
1.4436e-07
1.48099e-07
2.69514e-07
7.22836e-08
2.69229e-07
7.22494e-08
3.43192e-08
3.43035e-08
2.57898e-07
6.97849e-08
2.56547e-07
6.96994e-08
1.10391e-06
1.10411e-06
1.10416e-06
1.1041e-06
1.10392e-06
1.1041e-06
1.10416e-06
5.03985e-07
2.63332e-07
1.14066e-06
9.67748e-07
5.08157e-07
2.64166e-07
1.14067e-06
3.35125e-08
3.34778e-08
5.26359e-07
1.14414e-06
2.71691e-07
9.89844e-07
5.28799e-07
1.14414e-06
2.71847e-07
1.4467e-07
1.48298e-07
9.27221e-07
1.44363e-07
1.48103e-07
2.6951e-07
7.2283e-08
2.69225e-07
7.22514e-08
3.43224e-08
3.43019e-08
2.57907e-07
6.97877e-08
2.5655e-07
6.97013e-08
1.10392e-06
1.1041e-06
1.10416e-06
1.1041e-06
1.10391e-06
1.10411e-06
1.10417e-06
5.04067e-07
2.63333e-07
1.14068e-06
9.67675e-07
5.08202e-07
2.64073e-07
1.14069e-06
3.35104e-08
3.34764e-08
5.26372e-07
1.14413e-06
2.7168e-07
9.89817e-07
5.28773e-07
1.14414e-06
2.71848e-07
1.44668e-07
1.48308e-07
9.27294e-07
1.44362e-07
1.48115e-07
2.69517e-07
7.22882e-08
2.69222e-07
7.22547e-08
3.43186e-08
3.43031e-08
2.57902e-07
6.97855e-08
2.56549e-07
6.97008e-08
1.10391e-06
1.1041e-06
1.10417e-06
1.1041e-06
1.10392e-06
1.1041e-06
1.10417e-06
5.04025e-07
2.63333e-07
1.14066e-06
9.678e-07
5.08115e-07
2.64157e-07
1.14068e-06
3.35108e-08
3.34771e-08
5.26366e-07
1.14413e-06
2.71673e-07
9.89787e-07
5.28781e-07
1.14413e-06
2.71825e-07
1.44672e-07
1.48306e-07
9.27201e-07
1.44364e-07
1.48098e-07
2.695e-07
7.22834e-08
2.69217e-07
7.22517e-08
3.43273e-08
3.43098e-08
2.5791e-07
6.97856e-08
2.56556e-07
6.96997e-08
1.10392e-06
1.1041e-06
1.10417e-06
1.10416e-06
5.04003e-07
2.6333e-07
1.14067e-06
9.67639e-07
5.08192e-07
2.6408e-07
1.14067e-06
3.35079e-08
3.34658e-08
5.26365e-07
1.14412e-06
2.71664e-07
9.89698e-07
5.28759e-07
1.14413e-06
2.71786e-07
1.44667e-07
1.48308e-07
9.27265e-07
1.44362e-07
1.4811e-07
2.67336e-07
7.23553e-08
7.2097e-08
2.66803e-07
5.25499e-07
2.70091e-07
1.1365e-06
9.86994e-07
1.13758e-06
5.28467e-07
2.70455e-07
5.25279e-07
2.69855e-07
1.13647e-06
9.86587e-07
2.70264e-07
1.1376e-06
5.28305e-07
2.67208e-07
7.20428e-08
2.67547e-07
7.2156e-08
2.67074e-07
7.20288e-08
7.21171e-08
2.67418e-07
5.27894e-07
9.87176e-07
2.7054e-07
1.13944e-06
1.13859e-06
5.24895e-07
2.70257e-07
5.27733e-07
9.86871e-07
2.70366e-07
1.13946e-06
2.70045e-07
1.1386e-06
5.24703e-07
1.47457e-07
1.44451e-07
9.26845e-07
1.47248e-07
1.44102e-07
3.35725e-08
3.35546e-08
3.42628e-08
3.42558e-08
9.55616e-07
1.4743e-07
1.4436e-07
1.47418e-07
1.44415e-07
3.3633e-08
3.3604e-08
5.03517e-07
2.63071e-07
1.13737e-06
9.6737e-07
1.13786e-06
5.07521e-07
2.63952e-07
2.57629e-07
6.9803e-08
6.96703e-08
2.56256e-07
5.03519e-07
1.13694e-06
2.62833e-07
9.6554e-07
1.13749e-06
2.63712e-07
5.07517e-07
2.56327e-07
6.9741e-08
2.577e-07
6.9831e-08
5.07741e-07
9.6748e-07
2.63911e-07
1.13875e-06
1.13833e-06
5.03629e-07
2.63074e-07
2.56281e-07
6.96565e-08
6.97464e-08
2.57644e-07
5.0774e-07
9.65584e-07
1.1384e-06
2.63669e-07
1.13797e-06
2.62829e-07
5.03633e-07
2.57628e-07
6.9804e-08
6.973e-08
2.56227e-07
5.03507e-07
1.13688e-06
2.63052e-07
9.66233e-07
1.13741e-06
2.63933e-07
5.07505e-07
2.57622e-07
6.98113e-08
6.97065e-08
2.56226e-07
5.07668e-07
9.67627e-07
2.64108e-07
1.13842e-06
2.63021e-07
1.13817e-06
5.03619e-07
2.56304e-07
6.98964e-08
6.98517e-08
2.57909e-07
5.07736e-07
9.66203e-07
1.13813e-06
2.63956e-07
1.13782e-06
2.63052e-07
5.03686e-07
2.56293e-07
6.97853e-08
6.98006e-08
2.57845e-07
1.44206e-07
1.485e-07
9.26524e-07
1.43865e-07
1.48268e-07
3.44127e-08
3.43857e-08
3.35027e-08
3.35286e-08
9.55451e-07
1.43836e-07
1.48254e-07
1.4416e-07
1.48463e-07
3.43963e-08
3.44011e-08
5.26334e-07
1.14358e-06
2.71477e-07
9.89906e-07
1.14364e-06
2.7165e-07
5.28817e-07
2.6934e-07
7.23441e-08
7.22718e-08
2.69013e-07
2.69339e-07
7.23746e-08
7.22974e-08
2.69e-07
5.28912e-07
9.90069e-07
1.1436e-06
2.71651e-07
1.14356e-06
2.71443e-07
5.26248e-07
5.28874e-07
9.89726e-07
1.14376e-06
2.7162e-07
1.14372e-06
2.71441e-07
5.26265e-07
2.68995e-07
7.22691e-08
7.23083e-08
2.69337e-07
2.68986e-07
7.22964e-08
7.23347e-08
2.69342e-07
3.35837e-08
3.35432e-08
3.44177e-08
3.43893e-08
9.55978e-07
1.44427e-07
1.47997e-07
1.44629e-07
1.48196e-07
3.35874e-08
3.35816e-08
3.4402e-08
3.44054e-08
3.42798e-08
3.43133e-08
3.35922e-08
3.36241e-08
1.47994e-07
1.44262e-07
9.27039e-07
1.48061e-07
1.44201e-07
3.43804e-08
3.43582e-08
3.37071e-08
3.36907e-08
9.55922e-07
1.48549e-07
1.44705e-07
1.48461e-07
1.44697e-07
2.67757e-07
7.20844e-08
2.67171e-07
7.21028e-08
5.24413e-07
2.70339e-07
1.14015e-06
9.87471e-07
5.2728e-07
2.70772e-07
1.14072e-06
5.24254e-07
2.70224e-07
1.14022e-06
9.87036e-07
5.27155e-07
2.70753e-07
1.14084e-06
2.67681e-07
7.2178e-08
7.21771e-08
2.68164e-07
2.67614e-07
7.21287e-08
7.21629e-08
2.68089e-07
5.26929e-07
9.87587e-07
2.71447e-07
1.14152e-06
2.70734e-07
1.14117e-06
5.24497e-07
5.26826e-07
9.87227e-07
2.71179e-07
1.1416e-06
2.70698e-07
1.1413e-06
5.24368e-07
1.47812e-07
1.44866e-07
9.26963e-07
1.47896e-07
1.44938e-07
3.36967e-08
3.37119e-08
3.43499e-08
3.43516e-08
9.55693e-07
1.48123e-07
1.4512e-07
1.48211e-07
1.45338e-07
3.3719e-08
3.37532e-08
5.03501e-07
2.63028e-07
1.13907e-06
9.67473e-07
5.07796e-07
2.64065e-07
1.13928e-06
2.5765e-07
6.97647e-08
2.56277e-07
6.97952e-08
5.03503e-07
1.13872e-06
2.62779e-07
9.655e-07
5.07792e-07
1.13891e-06
2.6381e-07
2.5651e-07
7.00626e-08
7.00392e-08
2.58369e-07
5.07656e-07
9.67501e-07
2.64798e-07
1.13993e-06
2.63397e-07
1.13955e-06
5.04019e-07
2.56469e-07
6.99949e-08
6.99629e-08
2.58328e-07
5.07657e-07
9.65527e-07
1.13955e-06
2.64552e-07
1.13915e-06
2.63138e-07
5.04034e-07
2.58633e-07
7.0058e-08
2.56767e-07
7.0069e-08
5.04213e-07
1.13853e-06
2.63159e-07
9.66105e-07
5.07879e-07
1.13908e-06
2.64433e-07
2.58506e-07
6.9933e-08
2.56671e-07
6.99592e-08
5.08699e-07
9.68087e-07
2.65392e-07
1.14109e-06
2.64229e-07
1.14034e-06
5.05398e-07
2.57502e-07
7.00815e-08
7.01699e-08
2.59083e-07
5.08598e-07
9.6617e-07
1.14056e-06
2.65056e-07
1.1398e-06
2.63791e-07
5.05342e-07
2.57396e-07
7.00189e-08
7.00811e-08
2.59028e-07
1.44186e-07
1.48518e-07
9.26377e-07
1.44123e-07
1.48594e-07
3.4435e-08
3.44916e-08
3.3671e-08
3.36525e-08
9.55318e-07
1.44627e-07
1.49109e-07
1.4462e-07
1.49001e-07
3.45814e-08
3.45487e-08
5.26452e-07
1.14377e-06
2.71429e-07
9.89491e-07
5.28767e-07
1.14383e-06
2.71865e-07
2.69639e-07
7.23586e-08
2.69058e-07
7.24664e-08
2.69627e-07
7.23869e-08
2.69046e-07
7.24851e-08
5.29127e-07
9.89863e-07
1.14422e-06
2.72746e-07
1.14391e-06
2.71881e-07
5.27326e-07
5.29074e-07
9.8954e-07
1.14428e-06
2.72692e-07
1.144e-06
2.7189e-07
5.27295e-07
2.69576e-07
7.26748e-08
7.26009e-08
2.70503e-07
2.6955e-07
7.2681e-08
7.26134e-08
2.7049e-07
3.36457e-08
3.36694e-08
3.44434e-08
3.44973e-08
9.55709e-07
1.4511e-07
1.48819e-07
1.45291e-07
1.48755e-07
3.36955e-08
3.3717e-08
3.45761e-08
3.4551e-08
3.44035e-08
3.43915e-08
3.37499e-08
3.37164e-08
1.48846e-07
1.45112e-07
9.28044e-07
1.48683e-07
1.44848e-07
3.43907e-08
3.44086e-08
3.36978e-08
3.37475e-08
9.57133e-07
1.48613e-07
1.44734e-07
1.48887e-07
1.45142e-07
2.6817e-07
7.21688e-08
2.67806e-07
7.21315e-08
5.24636e-07
2.71372e-07
1.14175e-06
9.87721e-07
5.27127e-07
2.71759e-07
1.14182e-06
5.24495e-07
2.71002e-07
1.14173e-06
9.87318e-07
5.27045e-07
2.71371e-07
1.14169e-06
2.67935e-07
7.21919e-08
7.22111e-08
2.68395e-07
2.67897e-07
7.2155e-08
7.2183e-08
2.68342e-07
5.27148e-07
9.87684e-07
2.71761e-07
1.14174e-06
2.71552e-07
1.14177e-06
5.24508e-07
5.27052e-07
9.87227e-07
2.71436e-07
1.1416e-06
2.71144e-07
1.1416e-06
5.244e-07
1.48333e-07
1.45376e-07
9.2806e-07
1.48139e-07
1.44939e-07
3.37496e-08
3.37048e-08
3.43476e-08
3.43645e-08
9.56779e-07
1.48064e-07
1.44765e-07
1.48279e-07
1.4521e-07
3.3669e-08
3.37332e-08
5.05162e-07
2.64166e-07
1.14049e-06
9.67983e-07
5.08417e-07
2.6533e-07
1.14108e-06
2.58903e-07
7.01087e-08
2.57238e-07
7.00301e-08
5.05178e-07
1.1401e-06
2.63922e-07
9.65954e-07
5.08425e-07
1.14068e-06
2.65099e-07
2.57613e-07
7.00485e-08
7.01676e-08
2.58799e-07
5.09512e-07
9.68097e-07
2.6526e-07
1.1413e-06
2.64491e-07
1.14134e-06
5.05507e-07
2.57577e-07
6.99915e-08
7.011e-08
2.58775e-07
5.09522e-07
9.66087e-07
1.14091e-06
2.65051e-07
1.14095e-06
2.64258e-07
5.05535e-07
2.58865e-07
7.01587e-08
2.5772e-07
7.00357e-08
5.05677e-07
1.14099e-06
2.64262e-07
9.66621e-07
5.09684e-07
1.14101e-06
2.65188e-07
2.58854e-07
7.01017e-08
2.5769e-07
6.99916e-08
5.09512e-07
9.68258e-07
2.65158e-07
1.14061e-06
2.6432e-07
1.14099e-06
5.04886e-07
2.57462e-07
6.99884e-08
7.01105e-08
2.58752e-07
5.09645e-07
9.66633e-07
1.14025e-06
2.64987e-07
1.14073e-06
2.64253e-07
5.04948e-07
2.57451e-07
6.99482e-08
7.00678e-08
2.58723e-07
1.45035e-07
1.49403e-07
9.2751e-07
1.44766e-07
1.49227e-07
3.46055e-08
3.45858e-08
3.36637e-08
3.37134e-08
9.56724e-07
1.44652e-07
1.49094e-07
1.4506e-07
1.49415e-07
3.45596e-08
3.45974e-08
5.28034e-07
1.14454e-06
2.72679e-07
9.89938e-07
5.29979e-07
1.14464e-06
2.73077e-07
2.70788e-07
7.27421e-08
2.70331e-07
7.2697e-08
2.70784e-07
7.27505e-08
2.70312e-07
7.2715e-08
5.30685e-07
9.90301e-07
1.14423e-06
2.73037e-07
1.14451e-06
2.72907e-07
5.28135e-07
5.30641e-07
9.89994e-07
1.14433e-06
2.73034e-07
1.14459e-06
2.72896e-07
5.28144e-07
2.70464e-07
7.26298e-08
7.27264e-08
2.70694e-07
2.70451e-07
7.26512e-08
7.27481e-08
2.70702e-07
3.37286e-08
3.36821e-08
3.45992e-08
3.45777e-08
9.57155e-07
1.44952e-07
1.48758e-07
1.45333e-07
1.49077e-07
3.36636e-08
3.37119e-08
3.45519e-08
3.459e-08
3.44068e-08
3.43832e-08
3.37269e-08
3.36752e-08
1.48808e-07
1.45022e-07
9.27599e-07
1.48543e-07
1.4463e-07
3.437e-08
3.43974e-08
3.36494e-08
3.37036e-08
9.56398e-07
1.4846e-07
1.44517e-07
1.4874e-07
1.44923e-07
2.6852e-07
7.21992e-08
2.68094e-07
7.21451e-08
5.24905e-07
2.71518e-07
1.14182e-06
9.87279e-07
5.27151e-07
2.71772e-07
1.14197e-06
5.24791e-07
2.7123e-07
1.14173e-06
9.86775e-07
5.27098e-07
2.71499e-07
1.14191e-06
2.68296e-07
7.21973e-08
7.22528e-08
2.68701e-07
2.68232e-07
7.21258e-08
7.21843e-08
2.6861e-07
5.2752e-07
9.87253e-07
2.71816e-07
1.14218e-06
2.71571e-07
1.14211e-06
5.25052e-07
5.27451e-07
9.86784e-07
2.71456e-07
1.1421e-06
2.7127e-07
1.14204e-06
5.24908e-07
1.48275e-07
1.45059e-07
9.27512e-07
1.48039e-07
1.44676e-07
3.3694e-08
3.36355e-08
3.43329e-08
3.4354e-08
9.56275e-07
1.48002e-07
1.44616e-07
1.48236e-07
1.44951e-07
3.36161e-08
3.36626e-08
5.04792e-07
2.64328e-07
1.14097e-06
9.67998e-07
5.09493e-07
2.65123e-07
1.14065e-06
2.58644e-07
7.00672e-08
2.5737e-07
6.99445e-08
5.04833e-07
1.14058e-06
2.64113e-07
9.66026e-07
5.09524e-07
1.14027e-06
2.64909e-07
2.57314e-07
6.99721e-08
7.00907e-08
2.58696e-07
5.08937e-07
9.67996e-07
2.65164e-07
1.14103e-06
2.64264e-07
1.14068e-06
5.05221e-07
2.57302e-07
6.98861e-08
7.00209e-08
2.58679e-07
5.08974e-07
9.66038e-07
1.14066e-06
2.64933e-07
1.1403e-06
2.64044e-07
5.05268e-07
2.58724e-07
7.00639e-08
2.57399e-07
6.99379e-08
5.05326e-07
1.14015e-06
2.64098e-07
9.66543e-07
5.09075e-07
1.14034e-06
2.65061e-07
2.58723e-07
7.00256e-08
2.57372e-07
6.99068e-08
5.09574e-07
9.68441e-07
2.64959e-07
1.14097e-06
2.64215e-07
1.141e-06
5.05075e-07
2.5732e-07
6.98946e-08
7.00128e-08
2.58543e-07
5.09611e-07
9.6661e-07
1.14069e-06
2.64893e-07
1.14065e-06
2.64176e-07
5.05192e-07
2.57321e-07
6.98603e-08
6.99832e-08
2.58528e-07
1.44941e-07
1.49277e-07
9.27344e-07
1.4455e-07
1.48955e-07
3.45698e-08
3.45272e-08
3.36106e-08
3.36679e-08
9.56235e-07
1.44435e-07
1.48812e-07
1.44845e-07
1.49139e-07
3.44952e-08
3.4537e-08
5.27808e-07
1.1441e-06
2.72788e-07
9.89898e-07
5.30561e-07
1.144e-06
2.7286e-07
2.70543e-07
7.26613e-08
2.70335e-07
7.25684e-08
2.70552e-07
7.26828e-08
2.70332e-07
7.25809e-08
5.30315e-07
9.9021e-07
1.14403e-06
2.72806e-07
1.14391e-06
2.72706e-07
5.27795e-07
5.30305e-07
9.89911e-07
1.14412e-06
2.72699e-07
1.14401e-06
2.72623e-07
5.27811e-07
2.70179e-07
7.25042e-08
7.25999e-08
2.70352e-07
2.70178e-07
7.25189e-08
7.26127e-08
2.70361e-07
3.36933e-08
3.36417e-08
3.45629e-08
3.45209e-08
9.56465e-07
1.44771e-07
1.48521e-07
1.45163e-07
1.48812e-07
3.36206e-08
3.36705e-08
3.44964e-08
3.4532e-08
3.43846e-08
3.4362e-08
3.36773e-08
3.36268e-08
1.48654e-07
1.44804e-07
9.27974e-07
1.48384e-07
1.444e-07
3.43639e-08
3.43792e-08
3.36171e-08
3.36575e-08
9.56739e-07
1.48349e-07
1.44346e-07
1.48583e-07
1.44694e-07
2.68682e-07
7.21657e-08
2.68309e-07
7.21156e-08
5.25115e-07
2.71567e-07
1.14221e-06
9.87244e-07
5.27616e-07
2.71735e-07
1.14222e-06
5.24962e-07
2.71206e-07
1.14212e-06
9.86773e-07
5.27515e-07
2.71436e-07
1.14213e-06
2.68487e-07
7.22245e-08
7.22434e-08
2.68928e-07
2.68385e-07
7.2142e-08
7.21618e-08
2.68804e-07
5.27715e-07
9.87246e-07
2.71724e-07
1.14229e-06
2.71499e-07
1.14225e-06
5.25251e-07
5.27609e-07
9.86892e-07
2.71412e-07
1.14218e-06
2.7118e-07
1.14215e-06
5.25074e-07
1.48175e-07
1.4488e-07
9.27126e-07
1.47942e-07
1.44536e-07
3.36481e-08
3.36202e-08
3.43324e-08
3.43399e-08
9.55906e-07
1.47913e-07
1.44535e-07
1.48085e-07
1.44836e-07
3.36164e-08
3.36553e-08
5.05136e-07
2.64233e-07
1.1413e-06
9.68132e-07
5.09517e-07
2.64939e-07
1.14132e-06
2.58453e-07
6.99598e-08
2.57272e-07
6.98327e-08
5.05189e-07
1.14093e-06
2.63992e-07
9.66203e-07
5.09557e-07
1.14095e-06
2.64689e-07
2.57082e-07
6.99043e-08
7.00031e-08
2.58362e-07
5.09142e-07
9.68115e-07
2.64814e-07
1.14118e-06
2.64022e-07
1.14125e-06
5.04707e-07
2.57059e-07
6.98108e-08
6.9911e-08
2.5833e-07
5.09188e-07
9.66203e-07
1.1408e-06
2.64549e-07
1.14087e-06
2.63765e-07
5.04749e-07
2.58452e-07
6.99722e-08
2.57152e-07
6.98762e-08
5.04859e-07
1.14063e-06
2.63966e-07
9.66639e-07
5.09194e-07
1.14062e-06
2.64757e-07
2.58423e-07
6.99377e-08
2.57139e-07
6.98336e-08
5.09083e-07
9.68272e-07
2.64895e-07
1.14123e-06
2.63932e-07
1.14107e-06
5.04942e-07
2.57081e-07
6.98739e-08
6.99591e-08
2.5841e-07
5.09105e-07
9.66657e-07
1.14089e-06
2.64746e-07
1.14073e-06
2.63868e-07
5.0498e-07
2.57053e-07
6.98273e-08
6.99158e-08
2.58379e-07
1.44723e-07
1.48997e-07
9.27831e-07
1.44312e-07
1.48699e-07
3.45058e-08
3.44735e-08
3.35767e-08
3.36179e-08
9.56677e-07
1.44257e-07
1.4865e-07
1.44607e-07
1.48892e-07
3.44648e-08
3.44868e-08
5.27549e-07
1.14427e-06
2.72459e-07
9.89961e-07
5.30318e-07
1.14437e-06
2.7254e-07
2.70153e-07
7.25362e-08
2.69985e-07
7.24538e-08
2.70159e-07
7.25526e-08
2.69983e-07
7.2474e-08
5.30029e-07
9.90339e-07
1.14451e-06
2.72485e-07
1.14439e-06
2.72367e-07
5.27335e-07
5.30005e-07
9.89976e-07
1.14459e-06
2.72433e-07
1.14446e-06
2.72306e-07
5.27326e-07
2.6979e-07
7.24226e-08
7.24887e-08
2.7001e-07
2.69785e-07
7.24486e-08
7.25107e-08
2.70014e-07
3.3651e-08
3.36072e-08
3.4509e-08
3.44795e-08
9.56683e-07
1.4468e-07
1.48405e-07
1.44998e-07
1.48634e-07
3.36051e-08
3.36399e-08
3.44731e-08
3.44941e-08
3.43826e-08
3.43709e-08
3.36503e-08
3.36175e-08
1.48553e-07
1.44648e-07
9.27796e-07
1.4835e-07
1.4433e-07
3.43797e-08
3.43908e-08
3.36227e-08
3.36529e-08
9.56708e-07
1.48396e-07
1.44357e-07
1.48574e-07
1.44638e-07
2.68979e-07
7.21941e-08
2.68532e-07
7.21723e-08
5.25517e-07
2.71496e-07
1.14232e-06
9.87382e-07
5.27853e-07
2.71758e-07
1.1424e-06
5.25331e-07
2.71192e-07
1.14222e-06
9.8687e-07
5.27721e-07
2.71486e-07
1.14231e-06
2.68827e-07
7.22734e-08
7.22997e-08
2.69289e-07
2.68716e-07