/*--------------------------------*- C++ -*----------------------------------*\
| =========                 |                                                 |
| \\      /  F ield         | OpenFOAM: The Open Source CFD Toolbox           |
|  \\    /   O peration     | Version:  2206                                  |
|   \\  /    A nd           | Website:  www.openfoam.com                      |
|    \\/     M anipulation  |                                                 |
\*---------------------------------------------------------------------------*/
FoamFile
{
    version     2.0;
    format      ascii;
    arch        "LSB;label=32;scalar=64";
    class       surfaceScalarField;
    location    "0.4";
    object      phi;
}
// * * * * * * * * * * * * * * * * * * * * * * * * * * * * * * * * * * * * * //

dimensions      [0 3 -1 0 0 0 0];

oriented        oriented;

internalField   nonuniform List<scalar> 
197159
(
-3.34702e-11
-3.77027e-11
2.72323e-08
-2.70794e-08
-4.07213e-11
-4.09883e-11
-6.38874e-12
-3.47069e-11
-1.13125e-11
8.26398e-12
-2.44508e-11
-2.47783e-11
2.21962e-11
2.3771e-11
1.1289e-07
2.40329e-11
6.62974e-12
-1.37544e-11
-3.66986e-11
-2.8403e-11
2.85873e-11
5.82687e-11
-5.77365e-11
5.63337e-11
-5.77315e-11
1.10868e-07
3.00483e-11
5.22641e-11
-3.41406e-12
-9.8028e-12
-2.41095e-11
2.84065e-11
3.58401e-11
-5.72788e-11
5.46493e-11
-3.70387e-11
1.11896e-07
-2.98235e-11
-2.71051e-08
-5.15381e-11
-2.35694e-11
2.72401e-08
-3.34393e-11
-1.03378e-10
-2.77197e-11
-4.34895e-11
-3.61509e-12
-2.47349e-11
3.56358e-11
3.85901e-12
1.11849e-07
-1.50096e-11
4.10818e-11
4.07294e-11
2.70793e-08
3.44139e-11
3.67675e-11
-2.70794e-08
-4.05494e-11
-4.02924e-11
-3.44619e-11
-3.74122e-11
2.72321e-08
-5.08986e-11
1.14675e-07
7.25379e-11
-9.19851e-12
1.14961e-07
-1.3647e-11
3.73559e-12
1.34324e-12
7.57248e-09
-7.57844e-09
8.85104e-13
5.18094e-12
2.22454e-12
7.42041e-09
1.71194e-12
6.35222e-12
2.36652e-08
1.63183e-11
-2.3681e-08
-3.10206e-12
1.0886e-11
2.31661e-08
2.29379e-11
-2.31903e-08
-4.44902e-12
5.88663e-12
-1.50483e-08
2.38013e-12
1.50405e-08
8.89422e-13
4.27802e-12
-2.25697e-08
8.73643e-12
2.25689e-08
1.30195e-11
3.2103e-12
1.47018e-08
1.44805e-12
5.07537e-11
7.93793e-14
-4.51733e-12
-1.60751e-11
2.11482e-08
2.4615e-11
-2.21882e-08
1.65663e-11
2.21709e-08
-1.0459e-13
7.0378e-12
9.83149e-11
-1.31735e-10
1.32918e-10
-9.80564e-11
1.13143e-07
-7.10996e-14
-2.47987e-08
-1.06699e-11
9.26641e-11
2.47675e-08
1.32615e-11
-2.00028e-12
2.82345e-12
1.46973e-08
1.406e-12
5.07892e-11
-1.60828e-11
-4.34526e-12
2.11448e-08
4.65018e-12
7.97959e-11
-1.31323e-10
1.3222e-10
-7.90455e-11
1.1434e-07
-1.08966e-11
2.50276e-11
-2.21736e-08
1.63158e-11
2.21564e-08
-2.4796e-08
9.2829e-11
-1.05235e-11
2.47644e-08
5.54033e-12
7.41913e-09
1.62658e-12
2.33662e-11
-2.32403e-08
-4.14841e-12
2.32157e-08
-2.8663e-12
6.55542e-12
1.53599e-11
-2.36332e-08
-2.88021e-12
2.3617e-08
1.09922e-12
-7.57939e-09
7.57365e-09
1.76788e-12
-5.38755e-12
3.25261e-12
-2.25799e-08
9.54495e-12
2.25791e-08
-1.50534e-08
2.01035e-12
1.50455e-08
1.52857e-12
-2.0148e-12
7.57797e-09
-8.52297e-13
-2.62126e-12
3.74956e-12
7.57158e-09
-7.57749e-09
9.56814e-13
1.1994e-12
-5.51333e-12
7.42953e-09
-1.91732e-12
-1.69393e-12
5.00153e-12
7.4205e-09
-7.42958e-09
2.29171e-12
1.78703e-12
-1.48049e-11
2.56481e-12
2.36817e-08
-6.31048e-12
-2.27659e-11
4.09092e-12
2.31901e-08
-1.08151e-11
2.7232e-08
-2.70793e-08
-4.06748e-11
-4.05435e-11
-3.41389e-11
-3.7334e-11
2.3666e-08
-2.62952e-12
-2.36821e-08
1.61354e-11
6.2851e-12
2.31658e-08
-4.5725e-12
-2.31899e-08
2.27786e-11
1.09188e-11
3.54969e-12
-7.57697e-09
7.44069e-13
7.57122e-09
1.46477e-12
-2.12161e-12
7.57716e-09
-1.15726e-12
-2.29675e-12
4.85944e-12
-7.42976e-09
2.31896e-12
7.42072e-09
1.86265e-12
-5.64106e-12
7.42966e-09
-1.87907e-12
-1.63027e-12
2.70793e-08
4.11141e-11
4.122e-11
3.37534e-11
3.65645e-11
1.60232e-11
-2.36828e-08
-2.40352e-12
5.99196e-12
2.36667e-08
2.25968e-11
-2.31899e-08
-4.56058e-12
1.08939e-11
2.31658e-08
2.92672e-12
-1.50812e-11
2.36824e-08
-6.32354e-12
4.01796e-12
-2.29242e-11
2.31899e-08
-1.08016e-11
-2.44896e-12
-3.47451e-13
-2.9588e-12
-7.57269e-09
8.92126e-12
-1.67687e-11
2.10116e-08
1.26241e-11
-2.12979e-11
-2.45921e-08
-1.747e-11
2.45687e-08
3.33611e-11
2.38007e-11
2.08122e-12
-1.50063e-11
-5.47345e-12
-1.43366e-08
9.54478e-12
-2.48376e-12
1.43258e-08
5.55654e-13
2.012e-12
-1.39478e-12
-3.19819e-11
-2.19582e-11
-1.27994e-11
2.09948e-08
2.16583e-11
1.1285e-11
-2.1168e-11
1.99536e-08
1.37158e-11
-1.99669e-11
-2.35615e-08
-2.11076e-11
2.3533e-08
4.0679e-11
3.18183e-11
4.2483e-12
-2.27488e-11
-1.08601e-11
-1.39704e-08
1.1248e-11
-2.93264e-12
1.39566e-08
9.7016e-13
2.71362e-12
-8.31731e-13
-4.01965e-11
-3.19702e-11
-1.38422e-11
1.99374e-08
2.01494e-11
2.96302e-12
3.57536e-12
1.66868e-08
-6.20064e-09
3.39325e-12
6.19363e-09
1.13259e-12
-6.16914e-09
3.34263e-12
6.1614e-09
1.46369e-12
-1.88192e-12
-1.41602e-12
1.66669e-08
-7.54915e-12
-3.1904e-11
-2.47869e-12
-1.50067e-08
-2.28276e-08
9.97945e-12
1.02589e-11
2.2809e-08
7.37949e-13
-1.36922e-10
3.77347e-11
-2.27025e-08
-3.34703e-11
6.27771e-09
1.28579e-12
-6.26727e-09
-1.7467e-12
-3.74747e-12
6.80682e-12
2.62606e-11
2.22133e-08
2.10813e-12
6.08385e-09
1.81952e-12
-1.30139e-11
4.18289e-11
2.01619e-08
-1.22862e-12
9.00712e-14
1.32964e-08
6.49934e-13
1.09529e-08
6.88742e-13
-3.98666e-12
6.53865e-12
2.64131e-11
2.22023e-08
1.90142e-12
6.08027e-09
1.80152e-12
-1.04461e-12
1.32932e-08
6.4855e-13
-1.29741e-11
4.16997e-11
2.01535e-08
1.0947e-08
7.10024e-13
-2.23332e-11
1.10583e-11
1.99514e-08
1.33111e-11
-1.88767e-11
-2.39298e-08
-2.07864e-11
4.33706e-11
3.09773e-11
2.38996e-08
-2.25346e-11
4.49823e-12
-1.12335e-11
-1.39555e-08
1.16207e-11
-2.66063e-12
1.39415e-08
8.59155e-13
-4.01872e-11
-3.17966e-11
2.74268e-12
-9.09045e-13
-1.34323e-11
2.06884e-11
1.9935e-08
9.00563e-12
-1.48082e-11
2.1023e-08
1.21008e-11
-2.26059e-11
-2.42132e-08
-1.7212e-11
3.01546e-11
2.53304e-11
2.41903e-08
2.4586e-12
-1.60783e-11
2.88676e-12
-4.49401e-12
-1.43527e-08
9.12716e-12
-2.45056e-12
1.43423e-08
9.14965e-13
2.04061e-12
-9.69973e-13
-4.52123e-11
-4.95926e-12
-1.28199e-11
2.1308e-11
2.10064e-08
3.33755e-12
2.97351e-12
1.66903e-08
-6.16862e-09
3.59392e-12
6.16096e-09
1.40636e-12
-6.20141e-09
2.952e-12
6.19457e-09
1.43727e-12
-1.44072e-12
-1.52193e-12
1.66706e-08
-8.02277e-13
-1.96615e-12
-1.85609e-12
-4.99467e-12
-1.65733e-12
-2.2835e-08
1.79884e-13
9.6913e-12
2.28236e-08
3.59532e-12
-9.74147e-12
-2.31277e-13
-3.1831e-12
6.28152e-09
2.1955e-12
-6.28474e-09
1.20166e-12
7.57198e-09
3.80125e-12
1.15306e-12
1.03018e-12
-2.08017e-12
-9.07896e-13
-2.51569e-12
7.42045e-09
5.01749e-12
2.27646e-12
1.792e-12
-5.58646e-12
-1.8869e-12
-1.66551e-12
2.92998e-12
3.66616e-12
1.66866e-08
-1.66668e-08
-1.27178e-11
-1.3691e-11
-6.20042e-09
3.3235e-12
2.27518e-12
6.19348e-09
1.33819e-12
-6.16912e-09
3.26653e-12
2.96336e-12
6.1614e-09
1.49176e-12
-6.19351e-09
-2.27081e-12
-1.70932e-12
-6.16138e-09
-2.66583e-12
-1.4085e-12
1.263e-11
1.37948e-11
1.66668e-08
-2.10113e-08
-9.61523e-12
1.73298e-11
-1.27499e-11
2.09947e-08
2.16657e-11
1.6393e-11
2.45914e-08
-3.21443e-11
-2.1761e-11
-8.83273e-12
1.43364e-08
2.19103e-12
-1.31548e-12
-2.77123e-12
1.63342e-11
2.36657e-08
6.24357e-12
1.25883e-11
-2.14676e-11
-2.36283e-12
1.43257e-08
6.20151e-13
2.45685e-08
3.3321e-11
2.3285e-11
-1.99535e-08
-1.11766e-11
2.10764e-11
-1.38455e-11
1.99374e-08
2.00999e-11
2.11987e-11
2.35615e-08
-4.03165e-11
-3.21436e-11
-1.13741e-11
1.39703e-08
2.65416e-12
-8.18367e-13
-4.53913e-12
2.28356e-11
2.31659e-08
1.0913e-11
1.36538e-11
-1.99323e-11
-2.97616e-12
1.39565e-08
9.70606e-13
2.3533e-08
4.05519e-11
3.1857e-11
-1.66867e-08
-3.40037e-12
-3.31562e-12
-2.86347e-12
6.20049e-09
-1.80938e-12
-3.65087e-12
6.16912e-09
-1.41535e-12
1.21697e-12
1.44797e-12
8.97446e-12
2.1011e-08
-1.67319e-11
-2.12636e-11
-1.43363e-08
9.50525e-12
1.43258e-08
7.29125e-13
2.70296e-12
-1.49746e-11
-6.1831e-12
-1.71364e-11
-2.45909e-08
2.45682e-08
3.28857e-11
2.30996e-11
-1.20947e-12
2.09946e-08
2.13614e-11
-3.20429e-11
-2.20756e-11
1.14422e-11
1.99535e-08
-2.12191e-11
-2.00644e-11
-1.39702e-08
1.11158e-11
1.39565e-08
9.62921e-13
4.05153e-12
-2.28685e-11
-1.07972e-11
-2.10599e-11
-2.35615e-08
2.35331e-08
4.04364e-11
3.18701e-11
-8.33003e-13
1.99374e-08
1.99734e-11
-4.04617e-11
-3.21279e-11
-7.57133e-09
-2.22574e-12
-1.24579e-12
-2.17514e-12
3.68828e-12
7.66703e-13
1.37289e-12
-7.42059e-09
-5.72754e-12
-1.85416e-12
-1.59247e-12
4.89579e-12
2.33105e-12
1.84185e-12
-1.66866e-08
-3.2824e-12
-3.19146e-12
1.25385e-11
1.37479e-11
1.66668e-08
-2.98578e-12
6.20043e-09
-2.39266e-12
-1.57186e-12
-3.75212e-12
6.16916e-09
-2.6749e-12
-1.33395e-12
-1.28178e-11
-1.37446e-11
2.16567e-12
6.19353e-09
1.45142e-12
2.95176e-12
6.16146e-09
1.5555e-12
9.12448e-12
-1.691e-11
2.10109e-08
-2.09945e-08
1.28898e-11
-2.14393e-11
-2.45905e-08
-1.69875e-11
3.26909e-11
2.45679e-08
2.29187e-11
3.03233e-12
-1.5161e-11
-2.36664e-08
-6.49515e-12
-1.43367e-08
9.35389e-12
-2.14861e-12
1.43262e-08
8.77528e-13
-1.43259e-08
2.44384e-12
-1.02241e-12
-2.4568e-08
-3.22676e-11
-2.22957e-11
-1.25048e-11
2.12005e-11
2.09945e-08
1.16153e-11
-2.12983e-11
1.99536e-08
-1.99374e-08
1.37909e-11
-2.02882e-11
-2.35617e-08
-2.09603e-11
4.02357e-11
2.35332e-08
3.17872e-11
4.00333e-12
-2.30435e-11
-2.31658e-08
-1.08076e-11
-1.39703e-08
1.09445e-11
-2.88488e-12
1.39567e-08
9.85535e-13
-1.39565e-08
2.70717e-12
-8.12455e-13
-2.35331e-08
-4.06903e-11
-3.21863e-11
-1.36867e-11
1.97778e-11
1.99375e-08
-2.10109e-08
-9.42394e-12
1.70452e-11
2.12723e-11
-9.06127e-12
1.43364e-08
-1.09335e-12
1.68311e-11
2.45907e-08
-3.2175e-11
-2.22e-11
-2.43303e-12
1.60889e-11
6.07509e-12
-2.13488e-11
8.26382e-13
3.27881e-11
2.30053e-11
-1.99535e-08
-1.10131e-11
2.10139e-11
1.98695e-11
-1.15066e-11
1.39702e-08
-8.22988e-13
2.12443e-11
2.35616e-08
-4.05748e-11
-3.21276e-11
-4.60869e-12
2.26885e-11
1.09139e-11
-2.0168e-11
9.80074e-13
4.03402e-11
3.18337e-11
3.03714e-12
3.77339e-12
1.66866e-08
-6.20052e-09
3.21658e-12
6.19365e-09
1.50338e-12
-6.16924e-09
3.22067e-12
6.16156e-09
1.57315e-12
-1.50288e-12
-1.30355e-12
1.66669e-08
-1.49513e-11
-2.27342e-11
2.35653e-08
4.07113e-11
4.05945e-11
-2.62093e-08
-1.58969e-11
2.62065e-08
-2.49516e-08
-2.22717e-11
2.49452e-08
2.35689e-08
-3.49592e-11
-1.13994e-12
2.35571e-08
3.16954e-11
8.55481e-11
-2.60486e-08
-1.78031e-11
2.60342e-08
-2.50947e-08
-2.00343e-11
2.50936e-08
2.35613e-08
-2.35651e-08
1.57274e-11
2.22791e-11
2.35689e-08
1.491e-11
2.6209e-08
-8.42534e-12
2.27094e-11
2.49516e-08
-2.87157e-11
-4.06246e-11
-4.07635e-11
2.7232e-08
-3.38028e-11
-3.74221e-11
2.62064e-08
1.09981e-11
2.49451e-08
2.85307e-11
-1.54947e-11
-2.27548e-11
2.35655e-08
-2.35689e-08
4.11669e-11
4.13857e-11
-2.7232e-08
3.36079e-11
3.6498e-11
-2.62091e-08
-1.52523e-11
1.01962e-11
2.62063e-08
-2.49517e-08
-2.22011e-11
2.8619e-11
2.49452e-08
-2.62063e-08
-9.39068e-12
-2.49452e-08
-2.85918e-11
2.3569e-08
1.39318e-12
1.16915e-07
5.57091e-11
1.20518e-07
-6.8297e-13
2.37168e-11
9.59353e-11
2.64995e-08
-3.3775e-11
-2.55341e-08
2.7588e-11
2.55098e-08
-2.01265e-12
-2.15076e-11
-2.43983e-08
5.46654e-12
2.44026e-08
9.17082e-12
-5.32589e-11
2.65475e-08
8.79188e-12
3.75138e-11
4.54896e-11
2.61434e-08
2.52892e-11
-2.51563e-08
3.67464e-11
2.51182e-08
-2.35138e-11
-1.73345e-11
-2.38977e-08
4.48561e-11
1.48583e-11
2.38808e-08
-1.52538e-11
-2.61771e-11
2.61935e-08
7.14531e-11
-1.82944e-11
2.60151e-08
1.0844e-11
-9.31844e-11
1.30994e-13
-2.41172e-08
7.14756e-11
2.40917e-08
-2.68424e-08
-1.806e-11
-7.09786e-12
2.68285e-08
7.09569e-12
2.59443e-08
4.41117e-11
4.07027e-11
2.61172e-08
-2.98671e-11
-2.51629e-08
3.95721e-11
2.5122e-08
-1.75285e-11
-2.32977e-11
-2.38874e-08
4.4348e-11
1.74262e-11
2.38684e-08
-1.85722e-11
2.85684e-11
2.61355e-08
-2.17953e-11
7.05535e-11
2.60155e-08
-9.28076e-11
1.10454e-11
-2.68401e-08
-2.09571e-11
2.68154e-08
-2.41095e-08
7.02363e-11
2.40879e-08
2.60143e-08
1.97997e-11
5.05135e-12
2.65222e-08
5.2377e-11
-2.55179e-08
2.2976e-11
2.54988e-08
-3.09589e-12
-9.49291e-12
-2.43965e-08
4.39247e-12
2.44046e-08
6.7566e-12
-6.00966e-12
2.66069e-08
-5.34741e-11
2.35654e-08
-1.51393e-11
-2.26863e-11
4.11182e-11
4.09806e-11
3.40399e-11
3.65182e-11
-1.54895e-11
-2.62092e-08
2.62063e-08
1.05914e-11
-2.23218e-11
-2.49516e-08
2.49451e-08
2.86514e-11
2.35689e-08
-8.85727e-12
-2.86204e-11
-2.35654e-08
1.53383e-11
2.2286e-11
-4.06438e-11
-4.03862e-11
-3.43638e-11
-3.73106e-11
1.53431e-11
2.62091e-08
-9.21018e-12
2.26754e-11
2.49516e-08
-2.85418e-11
1.03097e-11
2.86938e-11
-2.18844e-12
6.9306e-13
2.1387e-12
-1.25829e-12
1.14676e-07
-3.68879e-11
-1.01513e-12
5.70288e-14
1.10856e-07
2.75016e-11
3.78164e-11
-2.31171e-11
-5.74542e-11
5.67287e-11
-6.02014e-11
5.84683e-11
-1.10858e-07
-4.32314e-11
9.01209e-13
-2.47734e-12
1.11856e-07
1.2689e-11
4.20967e-11
-1.54589e-11
4.09758e-12
2.40382e-11
-2.54759e-11
-3.72954e-12
2.70868e-11
4.21659e-11
4.96502e-11
3.33373e-11
2.70917e-08
-2.72439e-08
-1.78162e-12
2.22814e-12
-1.14676e-07
-1.4057e-12
1.21603e-12
1.14676e-07
-1.10858e-07
-3.7018e-11
-2.37123e-12
-4.1099e-14
1.10858e-07
2.81508e-11
3.79933e-11
-2.78255e-11
-5.72953e-11
5.71054e-11
5.87346e-11
-5.74234e-11
-1.11857e-07
-4.13795e-11
-7.35982e-13
-1.15062e-14
1.11857e-07
1.463e-11
4.22046e-11
-1.52782e-11
4.36895e-12
2.46903e-11
-3.31278e-12
-2.50533e-11
-2.72437e-08
2.69543e-11
4.19695e-11
5.00484e-11
3.35013e-11
2.70912e-08
-1.42096e-12
1.43593e-12
-1.14676e-07
-9.99823e-13
1.02449e-12
1.14676e-07
-1.10857e-07
-3.68709e-11
-1.40422e-12
-2.4642e-13
1.10855e-07
2.76755e-11
3.78503e-11
-2.30321e-11
-5.74384e-11
5.69361e-11
5.86078e-11
-6.01236e-11
-1.11857e-07
-4.14974e-11
7.91782e-14
2.68166e-13
1.11857e-07
1.45392e-11
4.21122e-11
-1.53538e-11
4.25288e-12
2.45032e-11
-3.45932e-12
-2.52318e-11
-2.72434e-08
2.70637e-11
4.20703e-11
4.99975e-11
3.33882e-11
2.70909e-08
-1.18057e-12
1.15693e-12
-1.14677e-07
-8.28097e-13
7.43855e-13
1.14677e-07
-1.10857e-07
-3.68479e-11
-1.54043e-12
-6.55182e-13
1.10857e-07
2.82613e-11
3.81459e-11
-2.77217e-11
-5.74782e-11
5.69782e-11
5.85797e-11
-5.75759e-11
-1.11857e-07
-4.15506e-11
4.19919e-13
4.33915e-13
1.11857e-07
1.4473e-11
4.20416e-11
-1.54306e-11
4.1559e-12
2.43491e-11
-3.55134e-12
-2.53884e-11
-2.72432e-08
2.716e-11
4.20755e-11
4.99895e-11
3.32305e-11
2.70908e-08
-6.10019e-13
1.07697e-12
-1.14677e-07
-6.5933e-13
2.82552e-13
1.14677e-07
-1.10857e-07
-3.66736e-11
-1.47883e-12
-1.1401e-12
1.10855e-07
2.79145e-11
3.80514e-11
-2.2774e-11
-5.74651e-11
5.69289e-11
5.85937e-11
-6.01422e-11
-1.11857e-07
-4.15592e-11
5.11489e-13
4.77466e-13
1.11857e-07
1.44691e-11
4.203e-11
-1.5435e-11
4.15425e-12
2.4348e-11
-3.54983e-12
-2.5381e-11
-2.72432e-08
2.71866e-11
4.2057e-11
5.00203e-11
3.32086e-11
2.70908e-08
1.43442e-13
1.30397e-12
-1.14676e-07
-8.53488e-13
-1.9765e-13
1.14676e-07
-1.10856e-07
-3.65286e-11
-1.3744e-12
-1.70808e-12
1.10856e-07
2.86556e-11
3.84507e-11
-2.73409e-11
-5.749e-11
5.69468e-11
5.8582e-11
-5.76196e-11
-1.11856e-07
-4.14723e-11
3.67819e-13
2.20954e-13
1.11856e-07
1.4572e-11
4.21088e-11
-1.53387e-11
4.1967e-12
2.44131e-11
-3.5001e-12
-2.53219e-11
-2.72431e-08
2.71339e-11
4.20386e-11
5.00365e-11
3.32896e-11
2.70906e-08
1.2909e-13
7.44459e-13
-1.14675e-07
-5.6175e-13
-1.64219e-13
1.14675e-07
-1.10855e-07
-3.65097e-11
-6.79906e-13
-1.66078e-12
1.10852e-07
2.81248e-11
3.81976e-11
-2.25755e-11
-5.7633e-11
5.67078e-11
5.84228e-11
-6.03498e-11
-1.11855e-07
-4.15341e-11
7.57618e-13
4.25445e-13
1.11855e-07
1.44961e-11
4.20374e-11
-1.54196e-11
4.14069e-12
2.43241e-11
-3.56164e-12
-2.54034e-11
-2.72428e-08
2.72017e-11
4.2116e-11
4.99629e-11
3.32326e-11
2.70903e-08
-3.16277e-13
3.26715e-14
-1.14675e-07
-1.07525e-13
2.33431e-13
1.14676e-07
-1.10854e-07
-3.66687e-11
-6.58806e-13
-1.3292e-12
1.10854e-07
2.84486e-11
3.83008e-11
-2.75588e-11
-5.76707e-11
5.66992e-11
5.83547e-11
-5.78085e-11
-1.11854e-07
-4.16635e-11
8.30853e-13
7.95979e-13
1.11854e-07
1.43403e-11
4.19121e-11
-1.55655e-11
4.10817e-12
2.42547e-11
-3.60389e-12
-2.54601e-11
-2.72425e-08
2.72604e-11
4.2172e-11
4.98974e-11
3.31405e-11
2.709e-08
-1.25801e-12
4.60288e-13
-1.14676e-07
-2.9124e-13
9.09177e-13
1.14677e-07
-1.10855e-07
-3.69097e-11
-1.22302e-12
-3.88547e-13
1.10853e-07
2.75913e-11
3.77991e-11
-2.31058e-11
-5.7483e-11
5.68361e-11
5.8506e-11
-6.01614e-11
-1.11855e-07
-4.16672e-11
4.54101e-13
7.60932e-13
1.11855e-07
1.43355e-11
4.19325e-11
-1.55451e-11
4.14615e-12
2.4297e-11
-3.58181e-12
-2.53962e-11
-2.72426e-08
2.71965e-11
4.21109e-11
4.99579e-11
3.31577e-11
2.70902e-08
-1.66291e-12
1.23176e-12
-1.14677e-07
-7.05796e-13
1.2375e-12
1.14677e-07
-1.10856e-07
-3.69893e-11
-2.02556e-12
-2.8132e-13
1.10856e-07
2.81295e-11
3.80258e-11
-2.78125e-11
-5.73289e-11
5.7044e-11
5.86752e-11
-5.74602e-11
-1.11856e-07
-4.15609e-11
5.33655e-14
4.16387e-13
1.11856e-07
1.44532e-11
4.20449e-11
-1.5421e-11
4.23149e-12
2.44144e-11
-3.50487e-12
-2.52743e-11
-2.72429e-08
2.70909e-11
4.20486e-11
5.00133e-11
3.32779e-11
2.70905e-08
-1.34972e-12
1.49406e-12
-1.14676e-07
-9.09517e-13
9.40953e-13
1.14676e-07
-1.10857e-07
-3.68901e-11
-1.67629e-12
-3.87124e-13
1.10855e-07
2.76864e-11
3.78526e-11
-2.29726e-11
-5.73925e-11
5.69e-11
5.85975e-11
-6.01055e-11
-1.11856e-07
-4.15187e-11
-6.01059e-14
2.70767e-13
1.11856e-07
1.44973e-11
4.20881e-11
-1.53773e-11
4.24796e-12
2.44267e-11
-3.4893e-12
-2.52605e-11
-2.72431e-08
2.70676e-11
4.2064e-11
4.99858e-11
3.33086e-11
2.70907e-08
-1.14507e-12
1.30905e-12
-1.14675e-07
-8.53852e-13
8.10875e-13
1.14675e-07
-1.10857e-07
-3.68698e-11
-1.55293e-12
-6.7459e-13
1.10857e-07
2.86011e-11
3.81635e-11
-2.79839e-11
-5.74235e-11
5.69488e-11
5.85663e-11
-5.75628e-11
-1.11857e-07
-4.15445e-11
1.41836e-13
3.3604e-13
1.11857e-07
1.44687e-11
4.20682e-11
-1.54006e-11
4.22631e-12
2.43875e-11
-3.51743e-12
-2.52919e-11
-2.72434e-08
2.71036e-11
4.20962e-11
4.9969e-11
3.32831e-11
2.70909e-08
-1.07561e-12
1.08405e-12
-1.14675e-07
-6.69258e-13
7.27077e-13
1.14675e-07
-1.10856e-07
-3.68299e-11
-1.31399e-12
-6.46677e-13
1.10855e-07
2.80582e-11
3.79038e-11
-2.32473e-11
-5.74436e-11
5.68736e-11
5.85444e-11
-6.01477e-11
-1.11857e-07
-4.1564e-11
2.65265e-13
4.29883e-13
1.11857e-07
1.44539e-11
4.20521e-11
-1.54112e-11
4.21748e-12
2.43766e-11
-3.53079e-12
-2.53024e-11
-2.72434e-08
2.71285e-11
4.20905e-11
4.99835e-11
3.32664e-11
2.7091e-08
-1.05379e-12
1.04347e-12
-1.14675e-07
-6.16626e-13
7.06852e-13
1.14675e-07
-1.10857e-07
-3.68619e-11
-1.44488e-12
-7.33414e-13
1.10856e-07
2.86079e-11
3.81692e-11
-2.79799e-11
-5.74375e-11
5.69373e-11
5.8553e-11
-5.75748e-11
-1.11857e-07
-4.15674e-11
3.06177e-13
4.57329e-13
1.11857e-07
1.44485e-11
4.20483e-11
-1.54131e-11
4.20825e-12
2.43643e-11
-3.54097e-12
-2.53132e-11
-2.72434e-08
2.71408e-11
4.20906e-11
4.9982e-11
3.32541e-11
2.7091e-08
-1.1204e-12
9.93147e-13
-1.14675e-07
-7.66034e-13
7.44052e-13
1.14675e-07
-1.10856e-07
-3.6824e-11
-1.31282e-12
-6.9701e-13
1.10855e-07
2.80678e-11
3.79107e-11
-2.32433e-11
-5.7435e-11
5.68773e-11
5.85482e-11
-6.01374e-11
-1.11857e-07
-4.15611e-11
4.10917e-13
3.29176e-13
1.11857e-07
1.44462e-11
4.20543e-11
-1.53925e-11
4.19829e-12
2.43569e-11
-3.54398e-12
-2.5323e-11
-2.72434e-08
2.71337e-11
4.20862e-11
4.99868e-11
3.32559e-11
2.7091e-08
-9.33486e-13
1.05738e-12
-1.14675e-07
-3.52284e-13
6.50308e-13
1.14675e-07
-1.10857e-07
-3.68678e-11
-1.55696e-12
-6.97188e-13
1.10857e-07
2.8614e-11
3.81509e-11
-2.80144e-11
-5.74445e-11
5.6937e-11
5.85503e-11
-5.7586e-11
-1.11857e-07
-4.15772e-11
1.83483e-13
6.70227e-13
1.11857e-07
1.43478e-11
4.20161e-11
-1.53367e-11
4.22248e-12
2.43787e-11
-3.52647e-12
-2.52855e-11
-2.72434e-08
2.71491e-11
4.2094e-11
4.99763e-11
3.32537e-11
2.7091e-08
-1.15341e-12
1.0643e-12
-1.14675e-07
-9.49664e-13
7.58472e-13
1.14675e-07
-1.10857e-07
-3.67813e-11
-1.37103e-12
-8.07163e-13
1.10855e-07
2.81718e-11
3.7931e-11
-2.33312e-11
-5.74133e-11
5.69128e-11
5.85792e-11
-6.0127e-11
-1.11857e-07
-4.13838e-11
4.29972e-13
1.47825e-13
1.11856e-07
1.39747e-11
4.17416e-11
-1.01878e-11
4.17376e-12
2.43435e-11
-3.55023e-12
-2.8122e-11
-2.72434e-08
2.71158e-11
4.2073e-11
5.00061e-11
3.32734e-11
2.70909e-08
3.98141e-12
1.12891e-07
2.397e-11
2.18171e-11
-2.54633e-11
-2.47967e-11
-3.46533e-11
2.07523e-12
3.80493e-12
1.12925e-07
7.51646e-12
3.36673e-11
-1.50619e-11
2.39449e-11
2.13059e-11
-2.16133e-11
-2.55242e-11
-1.1292e-07
1.1289e-07
2.01259e-12
-1.12891e-07
9.39823e-13
-2.4583e-11
-2.43802e-11
2.41099e-11
2.23869e-11
3.45837e-11
1.12922e-07
2.26944e-12
-1.12923e-07
6.93914e-13
-3.39185e-11
-1.02503e-11
1.39893e-11
-2.49226e-11
-2.41222e-11
1.88952e-11
2.43833e-11
4.01851e-11
4.18038e-11
2.70804e-08
-2.72339e-08
-3.79368e-11
2.72338e-08
-2.70804e-08
-3.99489e-11
-4.10026e-11
-1.66531e-13
1.10869e-07
-5.76148e-11
5.64119e-11
5.8362e-11
-5.76319e-11
-2.71573e-11
1.55665e-12
-7.80738e-13
1.11896e-07
2.47144e-11
2.82872e-11
-2.44124e-11
-3.65307e-11
5.48635e-11
-5.67998e-11
3.64582e-11
1.10869e-07
-2.36655e-12
-1.10869e-07
2.35465e-13
5.87542e-11
-5.72254e-11
-5.72151e-11
5.68102e-11
2.87916e-11
1.11896e-07
-1.27711e-12
-1.11896e-07
-9.53706e-13
-2.70044e-11
-2.4374e-11
2.48231e-11
3.68634e-11
-5.64443e-11
5.56021e-11
-3.61927e-11
7.37482e-13
-3.6208e-13
1.11891e-07
2.44714e-11
2.8736e-11
-2.43163e-11
-3.69293e-11
5.59101e-11
-5.76946e-11
3.67515e-11
-1.11891e-07
-2.53253e-12
-1.10856e-07
1.39687e-13
-3.72486e-11
-2.77002e-11
2.43502e-11
5.87398e-11
-5.73981e-11
-5.72764e-11
5.96647e-11
2.88509e-11
1.1189e-07
-1.15135e-12
-1.1189e-07
-9.04747e-13
-2.69479e-11
-2.41896e-11
2.46031e-11
3.7177e-11
-5.7035e-11
5.60803e-11
-3.66052e-11
4.88294e-11
3.42741e-11
2.70866e-08
-4.22414e-11
2.72378e-08
-2.70862e-08
-4.83046e-11
-3.21954e-11
6.41981e-13
1.65316e-12
1.11898e-07
1.4055e-11
4.21154e-11
-1.54314e-11
4.3422e-12
2.35854e-11
-2.5069e-11
-3.93777e-12
-1.11898e-07
-8.22651e-13
-1.11858e-07
7.69621e-14
-4.13982e-11
-1.52482e-11
1.45921e-11
-3.31179e-12
-2.49671e-11
4.40931e-12
2.47051e-11
4.2708e-11
1.11897e-07
-9.62796e-13
-1.11897e-07
1.9223e-13
-4.19516e-11
-1.50776e-11
1.45335e-11
-3.50968e-12
-2.45634e-11
2.43058e-11
4.63214e-12
-2.70912e-08
-4.93099e-11
-3.15656e-11
3.35795e-11
3.64216e-11
4.12573e-11
4.1454e-11
2.70794e-08
-3.43516e-11
-3.74573e-11
2.72319e-08
-2.70792e-08
-4.04151e-11
-4.04114e-11
8.52585e-13
1.1289e-07
9.41611e-12
3.4425e-11
-1.02483e-11
2.40853e-11
2.24101e-11
-2.45637e-11
-2.441e-11
-3.40805e-11
2.23929e-12
1.21611e-12
1.12922e-07
8.73614e-12
3.45468e-11
-1.03624e-11
2.44061e-11
2.18003e-11
-2.48748e-11
-2.40736e-11
1.1289e-07
1.70136e-12
-1.1289e-07
1.06366e-12
-3.36874e-11
-1.03189e-11
9.30855e-12
-2.45173e-11
-2.43122e-11
2.24635e-11
2.41732e-11
3.44533e-11
1.12922e-07
1.91471e-12
-1.12922e-07
9.66103e-13
-3.391e-11
-9.93287e-12
8.73252e-12
-2.48179e-11
-2.3954e-11
2.19423e-11
2.44549e-11
4.01753e-11
4.19975e-11
2.70806e-08
-3.79787e-11
2.72336e-08
-2.70804e-08
-3.97317e-11
-4.10605e-11
-2.83547e-14
1.10869e-07
2.8659e-11
3.7444e-11
-2.8603e-11
-5.72096e-11
5.68796e-11
5.88247e-11
-5.72442e-11
-2.69646e-11
-1.02664e-12
-1.04401e-12
1.11896e-07
2.48541e-11
2.87851e-11
-2.43928e-11
-3.62012e-11
5.56447e-11
3.69165e-11
-5.6472e-11
1.10869e-07
-1.38729e-12
-1.10869e-07
7.30555e-14
-3.64219e-11
-2.86255e-11
2.86337e-11
5.85971e-11
-5.74104e-11
5.67089e-11
-5.74252e-11
2.8666e-11
1.11896e-07
-3.14591e-13
-1.11896e-07
-5.61371e-13
-2.71061e-11
-2.45111e-11
2.47167e-11
3.67349e-11
-5.65942e-11
5.55011e-11
-3.63699e-11
-8.48158e-13
-9.83893e-13
1.1189e-07
2.45976e-11
2.88258e-11
-2.42184e-11
-3.66663e-11
5.60435e-11
-5.70797e-11
3.71295e-11
-1.28716e-12
-1.10857e-07
2.32918e-14
-3.69456e-11
-2.75592e-11
2.78431e-11
5.85579e-11
-5.76017e-11
-5.74768e-11
5.68896e-11
2.8716e-11
1.1189e-07
-1.05475e-14
-1.1189e-07
-6.43934e-13
-2.70839e-11
-2.43021e-11
2.44953e-11
3.70363e-11
-5.71769e-11
5.5946e-11
-3.67601e-11
4.92725e-11
3.39842e-11
2.70862e-08
-4.20782e-11
2.72374e-08
-2.70859e-08
-4.84373e-11
-3.23253e-11
-7.79693e-13
8.98767e-14
1.11897e-07
1.4505e-11
4.26619e-11
-1.51407e-11
4.58399e-12
2.4278e-11
-2.46524e-11
-3.5233e-12
1.09952e-13
-1.11857e-07
4.56521e-13
-4.15429e-11
-1.53899e-11
1.44874e-11
-3.49493e-12
-2.52542e-11
4.22301e-12
2.44589e-11
4.25448e-11
1.11897e-07
7.68497e-14
-1.11897e-07
6.88777e-13
-4.21252e-11
-1.52871e-11
1.43201e-11
-3.69528e-12
-2.48316e-11
2.40539e-11
4.43047e-12
-2.7091e-08
-4.94426e-11
-3.17085e-11
3.36467e-11
3.63645e-11
4.14052e-11
4.13475e-11
2.70791e-08
-3.43472e-11
-3.75437e-11
2.72316e-08
-2.70789e-08
-4.03263e-11
-4.04951e-11
8.0233e-13
1.1289e-07
9.34823e-12
3.43848e-11
-1.02935e-11
2.42578e-11
2.25738e-11
-2.44155e-11
-2.42232e-11
-3.39494e-11
1.62213e-12
1.32989e-12
1.12924e-07
8.48646e-12
3.4195e-11
-1.43449e-11
2.44997e-11
2.20223e-11
-2.4757e-11
-2.10454e-11
1.1289e-07
1.22065e-12
-1.1289e-07
1.0063e-12
-3.36741e-11
-1.0363e-11
9.27859e-12
-2.43808e-11
-2.42051e-11
2.26083e-11
2.42594e-11
3.45207e-11
1.12921e-07
1.44885e-12
-1.12923e-07
8.3449e-13
-3.39598e-11
-1.03435e-11
1.39305e-11
-2.47363e-11
-2.39529e-11
1.91161e-11
2.45186e-11
4.05193e-11
4.21855e-11
2.70801e-08
-3.81143e-11
2.72335e-08
-2.708e-08
-3.97112e-11
-4.11173e-11
-1.74301e-13
1.10869e-07
2.86703e-11
3.75046e-11
-2.86e-11
-5.7406e-11
5.67438e-11
5.8631e-11
-5.74002e-11
-2.70821e-11
-4.25173e-13
-5.27186e-13
1.11895e-07
2.47327e-11
2.86766e-11
-2.45141e-11
-3.63331e-11
5.55458e-11
3.67895e-11
-5.65799e-11
1.10869e-07
-1.2056e-12
-1.10869e-07
-2.68663e-13
-3.63176e-11
-2.85722e-11
2.86918e-11
5.85391e-11
-5.75013e-11
5.66382e-11
-5.75084e-11
2.86047e-11
1.11895e-07
-2.38381e-13
-1.11895e-07
-2.99223e-13
-2.71424e-11
-2.46034e-11
2.46437e-11
3.67143e-11
-5.66785e-11
5.54445e-11
-3.64217e-11
-2.52938e-13
-5.7675e-13
1.1189e-07
2.45137e-11
2.87305e-11
-2.42968e-11
-3.67225e-11
5.59766e-11
-5.71495e-11
3.70827e-11
-1.49084e-12
-1.10856e-07
-4.37056e-13
-3.70786e-11
-2.7605e-11
2.44409e-11
5.85727e-11
-5.75427e-11
-5.74689e-11
5.95443e-11
2.86363e-11
1.11889e-07
-2.40143e-13
-1.11889e-07
-2.73275e-13
-2.71457e-11
-2.44091e-11
2.44069e-11
3.7038e-11
-5.71968e-11
5.59331e-11
-3.67694e-11
4.91751e-11
3.38754e-11
2.70858e-08
-4.20508e-11
2.72372e-08
-2.70856e-08
-4.84926e-11
-3.24284e-11
4.16714e-14
3.20816e-13
1.11896e-07
1.43759e-11
4.25948e-11
-1.5239e-11
4.45537e-12
2.41013e-11
-2.48104e-11
-3.66292e-12
3.34067e-13
-1.11857e-07
4.96835e-13
-4.15408e-11
-1.54195e-11
1.44843e-11
-3.53246e-12
-2.53708e-11
4.16909e-12
2.43679e-11
4.25775e-11
1.11896e-07
2.89135e-13
-1.11896e-07
5.45208e-13
-4.20667e-11
-1.52579e-11
1.43701e-11
-3.73883e-12
-2.49432e-11
2.3969e-11
4.37181e-12
-2.70908e-08
-4.94225e-11
-3.18514e-11
3.36826e-11
3.63019e-11
4.14759e-11
4.12515e-11
2.70789e-08
-3.43062e-11
-3.76511e-11
2.72315e-08
-2.70788e-08
-4.01773e-11
-4.05514e-11
9.30308e-13
1.1289e-07
9.25654e-12
3.43367e-11
-1.03863e-11
2.42617e-11
2.26213e-11
-2.43763e-11
-2.41986e-11
-3.41187e-11
1.64185e-12
1.21219e-12
1.12922e-07
8.6633e-12
3.45208e-11
-1.04244e-11
2.4564e-11
2.19987e-11
-2.46955e-11
-2.38864e-11
1.12889e-07
8.42162e-13
-1.1289e-07
1.23811e-12
-3.37114e-11
-1.04463e-11
9.19772e-12
-2.42822e-11
-2.40747e-11
2.27318e-11
2.43547e-11
3.45186e-11
1.12922e-07
1.04444e-12
-1.12922e-07
7.48955e-13
-3.38292e-11
-9.92047e-12
8.75589e-12
-2.46014e-11
-2.37259e-11
2.21993e-11
2.46239e-11
4.04177e-11
4.19078e-11
2.70802e-08
-3.81664e-11
2.72335e-08
-2.70802e-08
-3.95277e-11
-4.10952e-11
-4.79304e-13
1.10869e-07
2.87095e-11
3.75574e-11
-2.85547e-11
-5.7521e-11
5.66331e-11
5.85276e-11
-5.75145e-11
-2.71601e-11
-1.70083e-13
-2.00922e-13
1.11895e-07
2.46233e-11
2.85855e-11
-2.46273e-11
-3.64392e-11
5.5433e-11
3.66974e-11
-5.66991e-11
1.10869e-07
-1.01919e-12
-1.10869e-07
-7.61927e-13
-3.62139e-11
-2.84278e-11
2.88285e-11
5.85e-11
-5.75374e-11
5.66043e-11
-5.75574e-11
2.85515e-11
1.11895e-07
-9.52635e-14
-1.11895e-07
-3.88989e-14
-2.71898e-11
-2.46622e-11
2.45889e-11
3.66771e-11
-5.67099e-11
5.54135e-11
-3.64631e-11
-2.00358e-13
-1.87677e-13
1.11889e-07
2.4387e-11
2.86223e-11
-2.44281e-11
-3.67764e-11
5.59305e-11
-5.72042e-11
3.70348e-11
-1.52445e-12
-1.10857e-07
-8.75083e-13
-3.67552e-11
-2.73472e-11
2.80369e-11
5.85497e-11
-5.75967e-11
-5.74913e-11
5.6893e-11
2.85773e-11
1.11889e-07
-3.04272e-13
-1.11889e-07
1.62634e-14
-2.72026e-11
-2.44625e-11
2.43504e-11
3.70542e-11
-5.71792e-11
5.59487e-11
-3.67581e-11
4.90959e-11
3.37548e-11
2.70856e-08
-4.20064e-11
2.72371e-08
-2.70856e-08
-4.8529e-11
-3.24645e-11
3.7849e-13
3.36685e-13
1.11896e-07
1.43639e-11
4.25688e-11
-1.52651e-11
4.35764e-12
2.39496e-11
-2.49662e-11
-3.75618e-12
5.36678e-13
-1.11857e-07
6.41653e-13
-4.15808e-11
-1.54592e-11
1.4448e-11
-3.56019e-12
-2.54091e-11
4.14194e-12
2.43233e-11
4.25646e-11
1.11896e-07
5.31856e-13
-1.11896e-07
5.35617e-13
-4.20766e-11
-1.52635e-11
1.43686e-11
-3.77419e-12
-2.49935e-11
2.39118e-11
4.33951e-12
-2.70908e-08
-4.94176e-11
-3.19022e-11
3.3688e-11
3.61603e-11
4.16597e-11
4.12068e-11
2.70788e-08
-3.4419e-11
-3.78505e-11
2.72314e-08
-2.70787e-08
-3.99254e-11
-4.05046e-11
1.02956e-12
1.12889e-07
9.20892e-12
3.43297e-11
-1.04339e-11
2.44111e-11
2.28198e-11
-2.42201e-11
-2.3993e-11
-3.39102e-11
7.98498e-13
1.28129e-12
1.12924e-07
8.46734e-12
3.42124e-11
-1.43813e-11
2.46577e-11
2.22699e-11
-2.45603e-11
-2.08167e-11
1.12889e-07
-9.54359e-16
-1.12889e-07
7.682e-13
-3.36014e-11
-1.03521e-11
9.28306e-12
-2.40589e-11
-2.37794e-11
2.30384e-11
2.45612e-11
3.4532e-11
1.12921e-07
2.18758e-13
-1.12922e-07
8.38348e-13
-3.39339e-11
-1.04082e-11
1.38813e-11
-2.44054e-11
-2.35158e-11
1.95668e-11
2.48284e-11
4.07345e-11
4.21495e-11
2.708e-08
-3.84229e-11
2.72334e-08
-2.708e-08
-3.92791e-11
-4.1188e-11
-1.05151e-12
1.10869e-07
2.88906e-11
3.77034e-11
-2.83661e-11
-5.75396e-11
5.66213e-11
5.85184e-11
-5.75231e-11
-2.71814e-11
-1.64947e-13
4.48456e-15
1.11895e-07
2.4594e-11
2.85598e-11
-2.46563e-11
-3.64436e-11
5.54333e-11
3.66976e-11
-5.66922e-11
1.10868e-07
-1.28861e-12
-1.10868e-07
-1.41795e-12
-3.60079e-11
-2.81885e-11
2.90734e-11
5.85707e-11
-5.74845e-11
5.66529e-11
-5.74854e-11
2.85961e-11
1.11894e-07
-4.82339e-13
-1.11894e-07
1.00647e-14
-2.71395e-11
-2.46185e-11
2.46356e-11
3.67685e-11
-5.66165e-11
5.55033e-11
-3.63696e-11
-3.40343e-13
1.94084e-14
1.11889e-07
2.4365e-11