/*--------------------------------*- C++ -*----------------------------------*\
| =========                 |                                                 |
| \\      /  F ield         | OpenFOAM: The Open Source CFD Toolbox           |
|  \\    /   O peration     | Version:  2206                                  |
|   \\  /    A nd           | Website:  www.openfoam.com                      |
|    \\/     M anipulation  |                                                 |
\*---------------------------------------------------------------------------*/
FoamFile
{
    version     2.0;
    format      ascii;
    arch        "LSB;label=32;scalar=64";
    class       volVectorField;
    location    "0.4";
    object      U;
}
// * * * * * * * * * * * * * * * * * * * * * * * * * * * * * * * * * * * * * //

dimensions      [0 1 -1 0 0 0 0];

internalField   nonuniform List<vector> 
66928
(
(-0.000202664 -0.000207717 0.127733)
(8.68639e-06 4.32631e-06 0.130304)
(7.42129e-07 -3.64072e-07 0.130162)
(3.20091e-06 1.07629e-06 0.130161)
(-0.000204701 0.00020716 0.127733)
(5.09649e-06 -4.24146e-06 0.130303)
(0.000201472 0.00020104 0.127829)
(-0.00020665 -0.00020825 0.127733)
(-4.60781e-07 -2.1951e-06 0.132922)
(1.85208e-06 1.51686e-06 0.132921)
(-4.47101e-06 -3.25573e-06 0.0684408)
(-7.28655e-06 -3.87114e-06 0.0682011)
(-1.50751e-05 -1.08699e-05 0.0926123)
(-1.41092e-05 -1.38017e-05 0.0921824)
(-6.67871e-07 -1.66066e-05 0.0794377)
(-1.67752e-05 -4.27426e-05 0.106254)
(-1.9506e-05 -3.02285e-06 0.0789636)
(-3.01476e-05 4.34921e-07 0.103728)
(-4.63043e-05 -1.53711e-05 0.105622)
(-2.77684e-06 -1.672e-06 0.131809)
(-5.9391e-05 6.66785e-07 0.119297)
(-1.85487e-05 4.22662e-06 0.0789619)
(-3.00199e-05 4.20368e-07 0.103729)
(-9.61997e-07 3.7447e-06 0.131802)
(-4.52003e-05 1.6287e-05 0.10562)
(-5.92629e-05 4.3976e-07 0.119297)
(-6.36966e-06 4.94335e-06 0.0681973)
(-1.26181e-05 1.45144e-05 0.092185)
(-1.51892e-05 1.35121e-05 0.092636)
(-4.7335e-06 6.91851e-06 0.0684548)
(-1.61711e-05 4.49205e-05 0.106268)
(-3.23305e-06 2.04251e-05 0.0794687)
(5.37262e-06 1.0391e-05 0.0684964)
(-6.87633e-06 -3.71264e-06 0.0684326)
(6.21766e-06 5.99573e-06 0.0683374)
(-7.81268e-06 -3.4987e-06 0.0682018)
(1.74929e-05 1.60511e-05 0.0928037)
(1.35178e-05 1.58636e-05 0.092499)
(-0.000205536 -0.000207805 0.127732)
(-1.63353e-05 -1.0793e-05 0.0926158)
(-1.48405e-05 -1.36727e-05 0.092181)
(-7.07966e-06 -4.6755e-06 0.0684286)
(3.61817e-06 9.84654e-06 0.0684888)
(-8.2107e-06 -3.49694e-06 0.0682035)
(5.82775e-06 6.24456e-06 0.0683384)
(0.000198966 0.000201279 0.127829)
(-1.73315e-05 -1.12748e-05 0.0926184)
(-1.54243e-05 -1.37801e-05 0.092181)
(1.65418e-05 1.52856e-05 0.0928068)
(1.2921e-05 1.58178e-05 0.092498)
(7.80692e-06 9.87419e-06 0.0685011)
(1.97117e-05 4.09752e-05 0.102904)
(-2.73463e-05 -5.35603e-05 0.113332)
(1.97319e-05 1.42599e-05 0.0928016)
(-5.09846e-06 -8.34301e-06 0.0784406)
(8.89773e-06 1.04579e-05 0.078593)
(3.22245e-05 5.92539e-05 0.113631)
(-1.8157e-05 -3.84369e-05 0.102559)
(4.14285e-05 1.71381e-05 0.102723)
(-5.67919e-05 -2.96567e-05 0.112954)
(1.37553e-05 1.54829e-05 0.0925004)
(-1.05955e-05 -5.70597e-06 0.0781512)
(9.97431e-06 5.54778e-06 0.0783619)
(5.95622e-05 3.0004e-05 0.113384)
(-3.9994e-05 -1.75924e-05 0.102323)
(1.17331e-05 1.1884e-05 0.0849031)
(-4.51285e-06 -3.41799e-06 0.0670114)
(-5.81223e-06 -3.54604e-06 0.0669463)
(5.72762e-06 5.66888e-06 0.0671288)
(4.59516e-06 4.61451e-06 0.0670824)
(-1.19033e-05 -1.01201e-05 0.0846254)
(7.15078e-06 2.56436e-05 0.0794995)
(-3.6921e-06 -2.63941e-05 0.0910799)
(1.22272e-06 2.70529e-05 0.0911579)
(-3.5307e-07 -7.6682e-06 0.0661556)
(-2.4206e-05 -9.22349e-07 0.0903448)
(-8.04319e-06 3.07144e-06 0.0657618)
(-3.01714e-05 2.57254e-07 0.100522)
(-7.75913e-06 1.0778e-06 0.0762079)
(-8.25439e-06 3.10982e-06 0.0736022)
(-2.34886e-05 2.30026e-06 0.0903441)
(-7.68477e-06 -1.69966e-06 0.0657629)
(-7.70424e-06 -2.19262e-07 0.0762075)
(-3.0368e-05 8.248e-07 0.100523)
(-8.28471e-06 -2.00758e-06 0.0736022)
(4.23974e-05 -1.76686e-05 0.102715)
(-5.40186e-05 3.04698e-05 0.112978)
(1.52928e-05 -1.49864e-05 0.0925039)
(-8.9443e-06 6.38862e-06 0.078142)
(6.0696e-05 -3.06393e-05 0.113409)
(1.1386e-05 -5.16204e-06 0.0783527)
(-3.75429e-05 1.79385e-05 0.102316)
(1.91813e-05 -4.1426e-05 0.102917)
(-2.78664e-05 5.87827e-05 0.113305)
(1.85341e-05 -1.27661e-05 0.0928247)
(-6.50369e-06 9.78997e-06 0.0784629)
(7.06328e-06 -9.86727e-06 0.0786128)
(3.21771e-05 -5.61573e-05 0.113602)
(-1.84854e-05 3.86997e-05 0.102574)
(1.23732e-05 -1.15822e-05 0.0849092)
(-4.57664e-06 4.42766e-06 0.0669455)
(-4.54814e-06 4.84181e-06 0.0670213)
(5.62103e-06 -3.86126e-06 0.067081)
(5.12168e-06 -4.61236e-06 0.0671365)
(-1.08785e-05 1.08052e-05 0.0846335)
(6.5605e-06 -7.13104e-06 0.0685114)
(3.72312e-06 -2.18441e-05 0.0795281)
(-1.39294e-06 2.52549e-05 0.091149)
(2.76368e-06 -2.54962e-05 0.0912462)
(2.39573e-06 8.68496e-06 0.0662066)
(-5.96214e-06 -3.48672e-06 0.0684366)
(4.51854e-06 1.01285e-05 0.0684921)
(-7.80732e-06 -3.59235e-06 0.0682013)
(6.01807e-06 6.1369e-06 0.0683378)
(1.13716e-05 1.1829e-05 0.0849018)
(-5.46247e-06 -3.59823e-06 0.0670094)
(-6.15913e-06 -3.3562e-06 0.0669462)
(4.56078e-06 5.88418e-06 0.0671261)
(4.12056e-06 5.15773e-06 0.067082)
(-1.23692e-05 -1.04772e-05 0.0846244)
(-1.8367e-05 -3.83232e-05 0.102558)
(3.26191e-05 6.01454e-05 0.113629)
(7.93201e-06 1.17318e-05 0.078592)
(-1.60665e-05 -1.02184e-05 0.0926143)
(1.9952e-05 4.12911e-05 0.102903)
(-5.84444e-06 -7.84789e-06 0.0784396)
(-2.81824e-05 -5.31954e-05 0.113329)
(-4.035e-05 -1.7569e-05 0.102323)
(5.95319e-05 3.0363e-05 0.113384)
(9.46578e-06 6.13041e-06 0.0783612)
(-1.46668e-05 -1.36049e-05 0.0921814)
(4.13102e-05 1.74688e-05 0.102722)
(-1.11318e-05 -5.43825e-06 0.0781507)
(-5.70962e-05 -2.95835e-05 0.112954)
(-1.20245e-05 -1.01301e-05 0.0846247)
(4.96556e-06 6.0413e-06 0.0671271)
(4.19146e-06 5.11887e-06 0.0670821)
(1.16177e-05 1.21478e-05 0.0849023)
(-5.01633e-06 -3.37378e-06 0.0670099)
(-6.01533e-06 -3.32281e-06 0.0669461)
(1.94801e-05 4.09822e-05 0.102902)
(-6.63808e-06 -8.17572e-06 0.0784396)
(1.73162e-05 1.5631e-05 0.0928056)
(-2.84312e-05 -5.38813e-05 0.113328)
(7.25864e-06 1.15461e-05 0.0785916)
(-1.88164e-05 -3.88133e-05 0.102558)
(3.18581e-05 5.97778e-05 0.113627)
(4.07602e-05 1.73277e-05 0.102722)
(-1.11941e-05 -5.27967e-06 0.0781505)
(1.30645e-05 1.58659e-05 0.0924984)
(-5.74702e-05 -2.96364e-05 0.112954)
(9.20921e-06 6.23233e-06 0.078361)
(-4.07657e-05 -1.77341e-05 0.102323)
(5.90568e-05 3.03432e-05 0.113384)
(3.62657e-06 9.36228e-06 0.0684868)
(-7.34456e-06 -4.12375e-06 0.0684299)
(5.60868e-06 6.28196e-06 0.0683393)
(-8.14649e-06 -3.37402e-06 0.0682025)
(-1.28018e-05 -1.06079e-05 0.0846244)
(4.07874e-06 5.62793e-06 0.0671261)
(3.84015e-06 5.10321e-06 0.0670823)
(1.09234e-05 1.16049e-05 0.0849017)
(-5.81333e-06 -3.87275e-06 0.0670097)
(-6.38011e-06 -3.45698e-06 0.0669468)
(1.86644e-05 4.01547e-05 0.102902)
(-2.89918e-05 -5.49579e-05 0.113326)
(1.59999e-05 1.50521e-05 0.0928082)
(-7.50039e-06 -8.67874e-06 0.0784417)
(6.03112e-06 1.10229e-05 0.078593)
(3.14074e-05 5.85194e-05 0.113625)
(-1.95075e-05 -3.94354e-05 0.102557)
(3.98404e-05 1.70237e-05 0.102723)
(-5.83041e-05 -3.00009e-05 0.112954)
(1.2489e-05 1.58304e-05 0.092498)
(-1.1606e-05 -5.39063e-06 0.0781511)
(8.69792e-06 6.39279e-06 0.0783611)
(5.82342e-05 3.00345e-05 0.113384)
(-4.16407e-05 -1.80801e-05 0.102323)
(-1.92789e-05 -3.91862e-05 0.102557)
(6.39169e-06 1.13085e-05 0.0785919)
(3.18012e-05 5.9074e-05 0.113626)
(-1.71975e-05 -1.10043e-05 0.0926169)
(1.90615e-05 4.04939e-05 0.102902)
(-7.30896e-06 -8.41547e-06 0.0784403)
(-2.86481e-05 -5.44895e-05 0.113327)
(-4.12036e-05 -1.78825e-05 0.102323)
(8.99495e-06 6.42043e-06 0.0783608)
(5.87283e-05 3.02702e-05 0.113384)
(-1.51842e-05 -1.36576e-05 0.0921808)
(4.04018e-05 1.71844e-05 0.102722)
(-1.15799e-05 -5.16257e-06 0.0781505)
(-5.78133e-05 -2.98087e-05 0.112954)
(1.06808e-05 1.14311e-05 0.0849019)
(-5.763e-06 -4.17944e-06 0.0670108)
(-6.195e-06 -3.75487e-06 0.0669478)
(3.99198e-06 5.34627e-06 0.0671268)
(3.8467e-06 4.91789e-06 0.0670831)
(-1.27897e-05 -1.0891e-05 0.0846248)
(5.60686e-05 5.34815e-05 0.115677)
(0.000202497 0.000201575 0.12783)
(-0.000212561 -4.9998e-05 0.122706)
(-4.96039e-05 -0.000214813 0.122503)
(0.000219106 5.50042e-05 0.122918)
(5.32756e-05 0.000213245 0.122777)
(-5.49772e-05 -5.44175e-05 0.115355)
(5.31199e-05 -5.48092e-05 0.115683)
(0.000201123 -0.000201592 0.127832)
(-4.99398e-05 0.000217435 0.122562)
(-0.000210254 4.95219e-05 0.12264)
(5.53665e-05 -0.000216913 0.122836)
(0.000216793 -5.36411e-05 0.122851)
(-5.64804e-05 5.48457e-05 0.115358)
(-5.50601e-05 -5.44858e-05 0.115355)
(0.000218906 5.4639e-05 0.122917)
(5.30252e-05 0.000213617 0.122776)
(-0.00020429 -0.000208123 0.127732)
(5.64351e-05 5.37431e-05 0.115677)
(-0.000213652 -5.03432e-05 0.122704)
(-5.00529e-05 -0.000214667 0.122502)
(5.47507e-05 5.311e-05 0.115677)
(0.000198256 0.000201037 0.127829)
(-0.000215214 -5.10042e-05 0.122703)
(-5.13264e-05 -0.000214526 0.122503)
(0.000216588 5.40181e-05 0.122915)
(5.16484e-05 0.000213991 0.122777)
(-5.66552e-05 -5.5139e-05 0.115355)
(1.98312e-06 1.34438e-06 0.133597)
(3.42122e-06 2.33586e-06 0.133601)
(5.21596e-06 0.000249305 0.124198)
(-3.7421e-06 -0.000231066 0.119853)
(1.85838e-05 4.5013e-05 0.106399)
(-7.75219e-06 -5.04133e-05 0.113848)
(1.57547e-05 0.000241602 0.120002)
(1.51777e-06 5.86052e-05 0.113976)
(5.92462e-06 -0.00024553 0.124147)
(0.000257378 9.40725e-07 0.123911)
(-0.000239413 -1.53466e-05 0.119401)
(4.8663e-05 1.36972e-05 0.106001)
(-5.87206e-05 -3.8829e-06 0.113075)
(0.000247339 1.29258e-05 0.119745)
(5.93808e-05 1.40076e-06 0.113511)
(-0.000260834 -4.74545e-06 0.12364)
(0.00025143 -1.43523e-08 0.125998)
(6.23362e-05 -8.0184e-07 0.119796)
(-6.07011e-05 -3.11723e-08 0.117397)
(-0.000244224 2.58668e-07 0.126725)
(6.32669e-05 -1.38366e-06 0.117876)
(0.000240266 -2.31933e-07 0.127023)
(-0.000250751 -2.83693e-06 0.12572)
(0.000257809 -1.9095e-07 0.123906)
(-0.000237206 1.71485e-05 0.119399)
(4.98801e-05 -1.30381e-05 0.106001)
(-5.84409e-05 5.43251e-06 0.113074)
(6.08591e-05 -1.49307e-07 0.113512)
(0.000247032 -1.2628e-05 0.119745)
(-0.000257281 5.94642e-06 0.123629)
(0.000248314 1.58953e-06 0.125997)
(6.2477e-05 1.86363e-06 0.119796)
(-0.000242858 1.24555e-06 0.126721)
(-6.13007e-05 1.29913e-06 0.117397)
(0.000240303 2.23244e-06 0.12702)
(6.30553e-05 2.58933e-06 0.117879)
(-0.000252367 4.01322e-06 0.125713)
(2.4802e-06 -0.000249422 0.124212)
(-8.76039e-06 0.000234594 0.119854)
(1.74355e-05 -4.55987e-05 0.106408)
(-2.7085e-06 5.81001e-05 0.113852)
(1.40873e-05 -0.000242417 0.119999)
(5.12022e-06 -5.67571e-05 0.113976)
(1.89972e-06 0.000253578 0.124175)
(5.58728e-05 5.36189e-05 0.115677)
(0.000200127 0.0002011 0.127829)
(-0.000214539 -5.04876e-05 0.122703)
(-5.05591e-05 -0.000214263 0.122503)
(-5.57287e-05 -5.45514e-05 0.115355)
(0.000217943 5.44667e-05 0.122915)
(5.25233e-05 0.000213922 0.122776)
(-5.62659e-05 -5.47996e-05 0.115355)
(-0.000206305 -0.000207814 0.127733)
(0.000217117 5.42902e-05 0.122915)
(5.20588e-05 0.000214171 0.122776)
(5.52842e-05 5.34852e-05 0.115677)
(-0.000215018 -5.06801e-05 0.122703)
(-5.096e-05 -0.000214216 0.122503)
(-1.17653e-06 -8.92088e-07 0.132922)
(2.60458e-07 1.09878e-06 0.130159)
(4.46676e-06 -2.55578e-06 0.1303)
(-0.000201284 -0.000198975 0.127827)
(-2.31377e-06 6.08992e-07 0.132923)
(1.78092e-06 1.04868e-06 0.13016)
(2.00633e-06 1.03454e-07 0.130302)
(-0.000198957 -0.000198343 0.127826)
(-1.56494e-06 4.32212e-07 0.132923)
(1.02066e-06 7.88455e-07 0.130158)
(2.41316e-06 -6.54411e-07 0.130302)
(-0.000199352 -0.00019887 0.127825)
(-1.33215e-06 2.1323e-07 0.132924)
(1.08592e-06 5.27047e-07 0.130159)
(2.68003e-06 -1.25406e-06 0.130301)
(-0.000199364 -0.000199343 0.127824)
(-1.17549e-06 -2.28933e-07 0.132924)
(1.13534e-06 -1.24345e-07 0.130158)
(2.73781e-06 -1.33765e-06 0.130301)
(-0.000199254 -0.000199438 0.127824)
(-1.34532e-06 -7.18608e-07 0.132923)
(1.05104e-06 -6.3485e-07 0.130158)
(2.35212e-06 -1.01999e-06 0.1303)
(-0.000199156 -0.00019916 0.127823)
(-9.08144e-07 -5.47168e-07 0.132922)
(3.81009e-07 -7.07634e-07 0.130156)
(2.68766e-06 -1.51386e-06 0.130299)
(-0.000199467 -0.000199428 0.127822)
(-3.53744e-07 -1.49424e-07 0.132922)
(2.00767e-07 -1.07504e-07 0.130156)
(3.26157e-06 -1.75637e-06 0.130298)
(-0.000199731 -0.000199738 0.127821)
(-7.22172e-07 4.39607e-07 0.132924)
(8.55393e-07 7.69952e-07 0.130157)
(3.18451e-06 -1.3772e-06 0.130299)
(-0.000199506 -0.000199562 0.127821)
(-1.31621e-06 7.29053e-07 0.132924)
(1.6621e-06 8.74029e-07 0.130158)
(2.66636e-06 -7.39119e-07 0.1303)
(-0.000199255 -0.000199114 0.127823)
(-1.56285e-06 4.19285e-07 0.132923)
(1.3694e-06 6.19891e-07 0.130159)
(2.44491e-06 -5.75353e-07 0.130301)
(-0.000199355 -0.000198998 0.127824)
(-1.40856e-06 2.45952e-07 0.132923)
(1.2081e-06 4.52318e-07 0.130159)
(2.56486e-06 -8.31124e-07 0.130301)
(-0.000199479 -0.00019915 0.127825)
(-1.18708e-06 1.92372e-07 0.132923)
(1.04117e-06 4.01424e-07 0.130159)
(2.68127e-06 -9.68407e-07 0.130302)
(-0.000199432 -0.000199244 0.127825)
(-1.12766e-06 1.76095e-07 0.132923)
(1.08767e-06 4.41135e-07 0.130159)
(2.70949e-06 -1.03548e-06 0.130302)
(-0.000199428 -0.000199296 0.127825)
(-1.16471e-06 2.34633e-07 0.132923)
(1.11244e-06 3.22844e-07 0.130159)
(2.6308e-06 -1.14446e-06 0.130302)
(-0.000199409 -0.000199295 0.127825)
(-1.00405e-06 1.00099e-07 0.132922)
(1.05679e-06 5.49863e-07 0.130159)
(2.87675e-06 -8.49649e-07 0.130301)
(-0.000199446 -0.000199295 0.127825)
(-1.28949e-06 2.63244e-07 0.132923)
(1.30926e-06 1.08193e-07 0.130159)
(2.52206e-06 -1.20236e-06 0.130302)
(-0.000199366 -0.000199252 0.127825)
(7.18021e-06 4.82888e-06 0.130302)
(-7.41945e-06 4.85715e-06 0.130307)
(2.79217e-06 3.71592e-06 0.130303)
(-1.76528e-06 3.90936e-06 0.130307)
(-0.000199733 0.000200494 0.127829)
(0.000204879 -0.000209094 0.127734)
(1.50602e-07 8.31008e-07 0.130161)
(1.83926e-06 -4.50941e-07 0.13016)
(-1.847e-06 1.07473e-06 0.130161)
(-5.92684e-07 -2.48461e-07 0.130162)
(-1.70436e-06 -1.29494e-06 0.130157)
(1.65813e-06 1.11585e-06 0.130159)
(3.94401e-07 -3.95362e-07 0.130157)
(0.000200769 -0.000200569 0.127828)
(-0.000206578 0.000210255 0.127731)
(-4.18287e-06 -2.57983e-06 0.130305)
(1.94423e-06 2.95704e-07 0.130302)
(-2.03475e-06 4.93236e-07 0.130307)
(0.000205865 0.000210889 0.12773)
(0.000198065 0.000200664 0.127829)
(-0.000205997 -0.000208527 0.127732)
(2.85875e-06 3.57972e-06 0.130303)
(-3.01342e-06 3.89671e-06 0.130307)
(2.99405e-06 3.33344e-06 0.130303)
(-2.56683e-06 3.54907e-06 0.130307)
(-0.000198683 0.00020053 0.12783)
(0.000204495 -0.000208446 0.127734)
(-1.78369e-06 8.12746e-07 0.130162)
(-4.51198e-07 -1.36606e-07 0.130162)
(-9.14362e-07 8.60423e-07 0.130162)
(1.38818e-07 -6.10728e-07 0.130161)
(1.35626e-07 -2.98016e-07 0.130157)
(7.32632e-07 9.51998e-07 0.130159)
(-4.18695e-07 -6.08242e-07 0.130157)
(0.000199028 -0.000198317 0.127827)
(-0.00020593 0.000209659 0.127729)
(-2.16201e-06 1.61239e-07 0.130307)
(2.58705e-06 -8.15525e-07 0.130302)
(-2.83707e-06 -7.04232e-07 0.130306)
(0.000205273 0.000210195 0.127728)
(0.000198526 0.000200245 0.127828)
(-0.00020589 -0.000208904 0.12773)
(2.83483e-06 2.89206e-06 0.130302)
(-3.97827e-06 3.23011e-06 0.130307)
(2.94197e-06 2.66986e-06 0.130302)
(-1.94562e-06 3.03262e-06 0.130306)
(-0.000197115 0.000200373 0.127828)
(0.000204449 -0.000209922 0.127733)
(-9.54916e-07 7.47278e-07 0.130162)
(2.22087e-08 -6.26348e-07 0.130161)
(-6.68464e-07 5.532e-07 0.130161)
(2.49982e-07 -8.59409e-07 0.130161)
(-1.99922e-07 -6.18085e-07 0.130157)
(9.20757e-07 4.25531e-07 0.130159)
(-2.84131e-07 -8.87019e-07 0.130156)
(0.000199526 -0.000198803 0.127826)
(-0.000205772 0.000209382 0.127728)
(-2.61053e-06 -5.63587e-07 0.130306)
(2.63233e-06 -1.12953e-06 0.130301)
(-2.62791e-06 -1.04855e-06 0.130306)
(0.00020538 0.000209787 0.127727)
(0.00019874 0.000200003 0.127827)
(-0.000205711 -0.000209389 0.12773)
(3.00704e-06 2.64015e-06 0.130302)
(-3.10845e-06 3.11827e-06 0.130306)
(3.14029e-06 2.12927e-06 0.130302)
(-2.25576e-06 2.46874e-06 0.130307)
(-0.000198954 0.000199645 0.127828)
(0.000204679 -0.000209222 0.127733)
(-6.16088e-07 5.16265e-07 0.130161)
(3.30864e-07 -9.63005e-07 0.130161)
(-5.56981e-07 7.87436e-08 0.130161)
(3.7006e-07 -1.04207e-06 0.130161)
(-3.15382e-07 -9.51561e-07 0.130157)
(9.8681e-07 1.16986e-07 0.130159)
(-2.09189e-07 -1.10599e-06 0.130157)
(0.000199763 -0.000199149 0.127824)
(-0.000205612 0.000209159 0.127728)
(-2.67725e-06 -1.20217e-06 0.130306)
(2.83387e-06 -1.40214e-06 0.130301)
(-2.65663e-06 -1.40514e-06 0.130306)
(0.000205345 0.000209529 0.127728)
(0.000198773 0.000199348 0.127826)
(-0.000206091 -0.000210261 0.12773)
(3.03998e-06 1.77683e-06 0.130302)
(-3.90065e-06 2.1699e-06 0.130307)
(2.59243e-06 7.4714e-07 0.130301)
(-1.88128e-06 1.17082e-06 0.130306)
(-0.000196962 0.000199521 0.127828)
(0.000204366 -0.000211331 0.127732)
(-6.02388e-07 -8.78965e-08 0.130161)
(3.30326e-07 -1.07162e-06 0.130161)
(-8.48667e-07 -7.12312e-07 0.130161)
(4.1936e-10 -9.36952e-07 0.13016)
(-1.75504e-07 -1.09074e-06 0.130156)
(1.00403e-06 -7.63386e-07 0.130158)
(-9.80738e-08 -9.14333e-07 0.130156)
(0.000199759 -0.000199212 0.127824)
(-0.000205958 0.000209359 0.127727)
(-2.61066e-06 -1.34864e-06 0.130306)
(2.41467e-06 -1.00186e-06 0.130301)
(-2.54447e-06 -9.4931e-07 0.130305)
(0.000205432 0.000209776 0.127727)
(0.000198368 0.000198523 0.127826)
(-0.000205903 -0.000210369 0.127729)
(2.47165e-06 5.71375e-07 0.130301)
(-3.04409e-06 1.11714e-06 0.130305)
(2.59308e-06 4.45887e-07 0.1303)
(-2.49142e-06 8.36336e-07 0.130305)
(-0.000198933 0.000198156 0.127827)
(0.000204373 -0.000210202 0.127732)
(-8.491e-07 -7.9395e-07 0.130161)
(-1.30069e-08 -1.01768e-06 0.130159)
(-4.46677e-07 -8.09114e-07 0.13016)
(1.67865e-07 -1.28794e-06 0.130158)
(-1.8221e-07 -9.44225e-07 0.130155)
(3.92935e-07 -7.06393e-07 0.130156)
(-5.1024e-07 -1.1925e-06 0.130154)
(0.000199385 -0.000198998 0.127824)
(-0.000205809 0.000209071 0.127726)
(-2.57774e-06 -9.28349e-07 0.130305)
(2.58955e-06 -1.40109e-06 0.130299)
(-2.8834e-06 -1.24712e-06 0.130304)
(0.000205149 0.00020957 0.127726)
(0.000198727 0.000198536 0.127826)
(-0.000205252 -0.00020988 0.127729)
(2.75414e-06 4.33969e-07 0.1303)
(-4.22306e-06 8.94032e-07 0.130305)
(3.39367e-06 8.18605e-07 0.1303)
(-2.4376e-06 1.33044e-06 0.130305)
(-0.000197357 0.000198723 0.127826)
(0.000203815 -0.000210969 0.127731)
(-2.51452e-07 -7.27628e-07 0.130159)
(3.20076e-07 -1.38662e-06 0.130158)
(3.01881e-07 -3.56096e-07 0.130159)
(7.51981e-07 -1.34438e-06 0.130157)
(-6.14559e-07 -1.28142e-06 0.130153)
(2.07263e-08 -4.68686e-07 0.130156)
(-7.65948e-07 -1.4167e-06 0.130153)
(0.000199627 -0.000199322 0.127822)
(-0.000205264 0.000208974 0.127724)
(-2.96527e-06 -1.4097e-06 0.130304)
(3.17396e-06 -1.75682e-06 0.130298)
(-3.16449e-06 -1.76384e-06 0.130303)
(0.000204882 0.000209266 0.127724)
(0.000199393 0.000199167 0.127825)
(-0.000205381 -0.000208795 0.127729)
(3.51906e-06 1.05028e-06 0.1303)
(-3.54685e-06 1.71172e-06 0.130305)
(3.50765e-06 2.26653e-06 0.130301)
(-2.48386e-06 2.85428e-06 0.130306)
(-0.000199589 0.00019881 0.127826)
(0.000204639 -0.000208523 0.127732)
(3.83102e-07 -1.4194e-07 0.130159)
(8.53568e-07 -1.32884e-06 0.130157)
(2.65257e-07 5.45837e-07 0.130159)
(7.85368e-07 -9.72511e-07 0.130157)
(-7.38104e-07 -1.40386e-06 0.130153)
(4.63245e-07 6.00782e-07 0.130156)
(-3.89015e-07 -1.10384e-06 0.130153)
(0.000200193 -0.000199406 0.127821)
(-0.000205151 0.000209244 0.127725)
(-3.15093e-06 -1.80426e-06 0.130303)
(3.32625e-06 -1.54463e-06 0.130299)
(-2.93409e-06 -1.65394e-06 0.130304)
(0.000205115 0.000209446 0.127724)
(0.000199172 0.000200301 0.127825)
(-0.000206169 -0.000208326 0.127729)
(3.33809e-06 2.6298e-06 0.130301)
(-4.00717e-06 3.3272e-06 0.130307)
(2.8585e-06 3.26874e-06 0.130301)
(-1.61781e-06 3.8284e-06 0.130306)
(-0.000197077 0.000200648 0.127827)
(0.000205045 -0.000209283 0.127732)
(4.98099e-08 7.57553e-07 0.130159)
(6.73139e-07 -8.60762e-07 0.130158)
(-5.97327e-07 9.77468e-07 0.13016)
(2.39809e-07 -4.87731e-07 0.130159)
(-2.34028e-07 -9.63218e-07 0.130154)
(1.42168e-06 7.4218e-07 0.130158)
(8.57159e-08 -5.92067e-07 0.130155)
(0.000200262 -0.000199142 0.127821)
(-0.000205615 0.000209708 0.127726)
(-2.79788e-06 -1.52309e-06 0.130304)
(2.80211e-06 -8.87115e-07 0.1303)
(-2.56151e-06 -1.03933e-06 0.130305)
(0.00020545 0.000209949 0.127726)
(0.000198419 0.000200591 0.127825)
(-0.000206305 -0.000208707 0.127729)
(2.74231e-06 3.19598e-06 0.130301)
(-2.69275e-06 3.90513e-06 0.130306)
(2.55838e-06 2.91671e-06 0.1303)
(-2.09729e-06 3.42485e-06 0.130306)
(-0.000198425 0.000200367 0.127828)
(0.000205057 -0.000208501 0.127733)
(-7.75312e-07 9.11115e-07 0.13016)
(1.3947e-07 -4.23734e-07 0.130159)
(-9.88659e-07 5.97392e-07 0.13016)
(-8.00303e-08 -3.29443e-07 0.130159)
(1.31463e-07 -5.01972e-07 0.130155)
(1.36329e-06 6.98763e-07 0.130159)
(7.81193e-08 -4.488e-07 0.130156)
(0.000199832 -0.000198731 0.127823)
(-0.000205871 0.000209833 0.127727)
(-2.51348e-06 -8.81289e-07 0.130305)
(2.50453e-06 -5.54883e-07 0.130301)
(-2.52712e-06 -5.84983e-07 0.130305)
(0.000205427 0.000210171 0.127727)
(0.000198354 0.00020019 0.127825)
(-0.0002062 -0.000208865 0.127731)
(2.52771e-06 2.80375e-06 0.1303)
(-3.8845e-06 3.40013e-06 0.130305)
(2.65299e-06 2.62046e-06 0.1303)
(-2.05323e-06 3.1008e-06 0.130305)
(-0.000196803 0.000200574 0.127828)
(0.000204482 -0.000210069 0.127733)
(-1.0168e-06 5.86011e-07 0.13016)
(-9.72376e-08 -4.3397e-07 0.130159)
(-8.77403e-07 4.95746e-07 0.130161)
(-2.62826e-08 -5.61727e-07 0.13016)
(2.76631e-08 -4.47384e-07 0.130156)
(1.09401e-06 3.0123e-07 0.130159)
(-1.23038e-07 -5.32823e-07 0.130156)
(0.000199668 -0.000198731 0.127824)
(-0.000205847 0.000209655 0.127728)
(-2.55596e-06 -5.61079e-07 0.130305)
(2.55505e-06 -7.55222e-07 0.130301)
(-2.69637e-06 -6.73894e-07 0.130306)
(0.000205334 0.00021008 0.127728)
(0.000198519 0.000200084 0.127826)
(-0.000206016 -0.000208945 0.127731)
(2.70625e-06 2.53541e-06 0.1303)
(-3.19358e-06 3.10572e-06 0.130304)
(2.82944e-06 2.49664e-06 0.1303)
(-2.41896e-06 2.94279e-06 0.130305)
(-0.000199025 0.000199823 0.127828)
(0.000204761 -0.000208857 0.127733)
(-8.27622e-07 4.91319e-07 0.130161)
(4.88991e-08 -6.78557e-07 0.13016)
(-6.27568e-07 4.70856e-07 0.130161)
(1.85305e-07 -6.54126e-07 0.130161)
(-1.60518e-07 -5.81634e-07 0.130156)
(9.4886e-07 4.16844e-07 0.130159)
(-2.01781e-07 -6.96453e-07 0.130157)
(0.00019977 -0.000198959 0.127825)
(-0.000205773 0.000209604 0.127729)
(-2.70612e-06 -7.36728e-07 0.130306)
(2.70667e-06 -9.37433e-07 0.130302)
(-2.72619e-06 -8.98709e-07 0.130306)
(0.000205368 0.000209972 0.127728)
(0.00019868 0.000200012 0.127827)
(-0.000206003 -0.000208976 0.127731)
(2.84332e-06 2.436e-06 0.1303)
(-4.09166e-06 3.01139e-06 0.130305)
(2.90407e-06 2.48057e-06 0.1303)
(-2.0921e-06 2.9294e-06 0.130304)
(-0.000197097 0.00020029 0.127828)
(0.000204432 -0.000210132 0.127733)
(-6.28786e-07 4.6442e-07 0.130161)
(2.09377e-07 -7.73597e-07 0.130161)
(-5.61688e-07 4.5677e-07 0.130161)
(2.54124e-07 -6.25219e-07 0.130161)
(-2.05516e-07 -7.14917e-07 0.130157)
(9.58457e-07 2.26173e-07 0.130159)
(-1.99068e-07 -7.19268e-07 0.130157)
(0.000199833 -0.000198996 0.127825)
(-0.000205765 0.000209598 0.127729)
(-2.70253e-06 -9.4664e-07 0.130306)
(2.72564e-06 -1.03205e-06 0.130302)
(-2.69894e-06 -1.00751e-06 0.130307)
(0.000205382 0.000209913 0.127728)
(0.000198692 0.000199992 0.127827)
(-0.000205973 -0.000208987 0.127731)
(2.90304e-06 2.40686e-06 0.1303)
(-3.18396e-06 3.04765e-06 0.130304)
(2.89564e-06 2.36962e-06 0.1303)
(-2.40757e-06 2.90551e-06 0.130305)
(-0.000199068 0.000199777 0.127828)
(0.000204759 -0.000208847 0.127733)
(-6.04054e-07 4.41058e-07 0.130161)
(2.38764e-07 -8.21058e-07 0.130161)
(-6.09719e-07 3.96628e-07 0.130161)
(1.7914e-07 -4.62236e-07 0.130161)
(-2.46658e-07 -7.6663e-07 0.130156)
(8.92921e-07 4.4235e-07 0.130159)
(-2.0936e-07 -7.85752e-07 0.130157)
(0.000199849 -0.00019901 0.127825)
(-0.000205753 0.000209615 0.127729)
(-2.71308e-06 -1.06094e-06 0.130306)
(2.79122e-06 -9.26458e-07 0.130302)
(-2.69667e-06 -1.04499e-06 0.130307)
(0.000205397 0.000209914 0.127728)
(0.000198709 0.00019998 0.127827)
(-0.000205997 -0.000208931 0.127731)
(2.89152e-06 2.49547e-06 0.1303)
(-4.02986e-06 2.93623e-06 0.130305)
(2.93747e-06 2.59061e-06 0.1303)
(-2.23003e-06 2.94959e-06 0.130304)
(-0.000197107 0.000200294 0.127828)
(0.000204418 -0.000210108 0.127733)
(-4.80779e-07 5.44046e-07 0.130161)
(3.27607e-07 -1.05049e-06 0.130161)
(-4.44429e-07 5.91004e-07 0.130162)
(3.66261e-07 -4.59686e-07 0.130161)
(-1.28403e-07 -6.8408e-07 0.130156)
(8.52279e-07 2.52154e-07 0.130159)
(-2.91693e-07 -7.50933e-07 0.130156)
(0.000199843 -0.000198993 0.127825)
(-0.0002057 0.000209523 0.127729)
(-2.68728e-06 -9.70523e-07 0.130306)
(2.71881e-06 -1.10051e-06 0.130302)
(-2.78197e-06 -1.07985e-06 0.130306)
(0.000205335 0.000209899 0.127728)
(0.000198736 0.00020005 0.127827)
(-0.000205987 -0.000209002 0.127731)
(2.92493e-06 2.21182e-06 0.1303)
(-3.01404e-06 3.19315e-06 0.130304)
(2.83274e-06 2.24454e-06 0.1303)
(-2.51136e-06 2.72214e-06 0.130304)
(-0.000199096 0.000199768 0.127828)
(0.00020492 -0.000208721 0.127733)
(-7.60549e-07 2.92515e-07 0.130161)
(5.53634e-08 -9.7149e-07 0.13016)
(-7.44622e-07 2.44785e-07 0.130161)
(4.59539e-08 3.12897e-07 0.130161)
(-3.0718e-07 -8.89518e-07 0.130157)
(9.43803e-07 4.98914e-07 0.130159)
(-1.14407e-07 -8.16904e-07 0.130156)
(0.000199838 -0.00019895 0.127825)
(-0.000204777 0.00020881 0.127729)
(-2.71671e-06 -1.13586e-06 0.130307)
(2.72997e-06 -8.43763e-07 0.130302)
(-2.6649e-06 -9.92573e-07 0.130306)
(0.000205346 0.000209837 0.127728)
(0.000198685 0.000199988 0.127827)
(2.74898e-06 2.54437e-06 0.1303)
(-3.77886e-06 2.88883e-06 0.130305)
(-0.000197186 0.000200179 0.127828)
(-4.83865e-07 5.88569e-07 0.130162)
(2.99815e-07 -1.93601e-06 0.130161)
(7.36251e-09 -5.17045e-07 0.130157)
(-2.6769e-08 -5.47543e-07 0.130157)
(0.000198774 -0.000197723 0.127824)
(-2.60819e-06 -7.59652e-07 0.130307)
(-2.5894e-06 -7.71591e-07 0.130307)
(0.000205362 0.000209925 0.127728)
(1.02111e-07 -2.98201e-05 0.104706)
(5.64967e-06 2.53241e-05 0.0794981)
(7.32756e-08 3.07197e-05 0.104865)
(-2.46361e-06 -1.7074e-05 0.0794344)
(-4.4259e-06 1.15182e-05 0.0684892)
(7.0699e-06 -3.74941e-06 0.0684262)
(-3.03818e-05 7.06274e-07 0.103728)
(1.94955e-05 3.37315e-06 0.0791653)
(3.07431e-05 1.88507e-07 0.104237)
(-1.99783e-05 -2.50449e-06 0.0789635)
(1.6275e-06 2.60093e-07 0.132922)
(7.42565e-07 1.2731e-06 0.13292)
(-3.77587e-07 5.75743e-07 0.132921)
(-2.51879e-06 9.26195e-07 0.132923)
(2.81387e-06 1.02791e-06 0.132923)
(-1.66069e-06 1.11971e-06 0.132923)
(1.67291e-06 1.1428e-06 0.132923)
(5.96957e-05 6.23011e-07 0.119298)
(-4.84835e-05 1.4408e-05 0.106011)
(2.01071e-06 -9.90307e-07 0.131807)
(1.24874e-06 8.77246e-07 0.130159)
(4.73831e-05 -1.51016e-05 0.105632)
(2.35588e-06 -5.06895e-07 0.131807)
(-6.3046e-05 -8.41542e-07 0.119796)
(7.08958e-06 -4.79134e-06 0.0683332)
(-7.09873e-06 4.91889e-06 0.0681973)
(6.46908e-07 5.93872e-05 0.120168)
(-1.43057e-06 -4.47529e-06 0.131982)
(1.76224e-05 -4.58014e-05 0.106406)
(3.0744e-06 -8.6797e-07 0.130301)
(-1.60215e-06 -2.71142e-06 0.131982)
(-1.66845e-05 4.49888e-05 0.106266)
(-5.38039e-07 -6.16702e-05 0.120295)
(-1.47276e-05 -1.46386e-05 0.0925383)
(-1.89298e-05 -1.30834e-05 0.0927857)
(0.000205499 0.00021071 0.12773)
(1.4464e-05 1.47801e-05 0.0922224)
(1.56789e-05 1.36319e-05 0.0925978)
(-5.49995e-07 -3.0528e-05 0.104702)
(2.02154e-06 2.35541e-05 0.0794952)
(-4.11127e-07 3.43978e-05 0.104865)
(-4.87411e-06 -1.90058e-05 0.0794352)
(-3.85067e-06 9.05677e-06 0.0684814)
(6.0263e-06 -5.66295e-06 0.0684266)
(-3.08926e-05 5.51503e-07 0.103729)
(1.87185e-05 3.88485e-06 0.0791663)
(3.00072e-05 3.82676e-07 0.104237)
(-2.06334e-05 -2.45548e-06 0.0789662)
(2.46487e-06 9.84055e-07 0.132923)
(-1.39687e-06 1.13251e-06 0.132923)
(1.40459e-06 1.13572e-06 0.132923)
(-1.50451e-06 6.10407e-07 0.132923)
(1.53429e-06 9.30165e-07 0.132924)
(-6.03711e-07 4.12285e-07 0.132923)
(3.82753e-07 3.77552e-07 0.132923)
(5.99507e-05 5.62354e-07 0.119296)
(-4.70878e-05 1.36927e-05 0.10601)
(3.08898e-06 -8.0935e-07 0.131806)
(1.17082e-06 1.07933e-06 0.13016)
(-6.20297e-05 -7.15508e-07 0.119795)
(4.7565e-05 -1.56561e-05 0.10563)
(2.61784e-06 -8.25383e-07 0.131807)
(6.2827e-06 -4.94906e-06 0.068336)
(-7.64442e-06 4.50068e-06 0.0682023)
(5.00169e-07 5.95333e-05 0.120168)
(-1.6867e-06 -1.21345e-06 0.131983)
(1.661e-05 -4.479e-05 0.106406)
(2.49689e-06 -6.89856e-07 0.130302)
(-7.68072e-07 -6.0259e-05 0.120295)
(-1.55329e-06 -2.37732e-06 0.131983)
(-1.72776e-05 4.54986e-05 0.106266)
(-1.34046e-05 -1.44257e-05 0.092537)
(-1.77638e-05 -1.21717e-05 0.0927849)
(0.000205221 0.000210306 0.127729)
(1.47459e-05 1.48857e-05 0.0922215)
(1.59664e-05 1.40454e-05 0.0925981)
(-2.02054e-07 -3.17232e-05 0.104698)
(2.43155e-06 2.22659e-05 0.0794991)
(-3.15487e-07 3.35317e-05 0.104859)
(-3.81333e-06 -1.98917e-05 0.0794389)
(-5.25607e-06 8.00743e-06 0.0684823)
(4.79119e-06 -6.86108e-06 0.0684264)
(-3.06526e-05 2.03786e-07 0.103729)
(1.89425e-05 3.61861e-06 0.0791721)
(2.98463e-05 -1.77932e-08 0.104237)
(-1.97776e-05 -2.90475e-06 0.0789717)
(1.53622e-06 6.94546e-07 0.132924)
(-7.03248e-07 3.47782e-07 0.132923)
(5.68723e-07 3.42336e-07 0.132923)
(-1.37943e-06 2.62165e-07 0.132924)
(1.57918e-06 2.58797e-07 0.132924)
(-6.02453e-07 1.42958e-07 0.132923)
(6.33375e-07 1.68415e-07 0.132924)
(5.96287e-05 3.50214e-07 0.119295)
(-4.76704e-05 1.40349e-05 0.106009)
(2.69878e-06 -9.8962e-07 0.131806)
(1.02295e-06 5.08233e-07 0.130158)
(-6.21923e-05 -9.71089e-07 0.119792)
(4.71156e-05 -1.53663e-05 0.10563)
(2.77172e-06 -9.60846e-07 0.131805)
(6.3306e-06 -5.43247e-06 0.0683423)
(-7.34893e-06 4.11777e-06 0.0682066)
(4.97485e-07 5.95158e-05 0.120164)
(-1.48598e-06 -2.3443e-06 0.131983)
(1.65267e-05 -4.48585e-05 0.106404)
(2.50771e-06 -8.25003e-07 0.130301)
(-8.60886e-07 -6.04094e-05 0.120291)
(-1.48331e-06 -2.52268e-06 0.131983)
(-1.70121e-05 4.51904e-05 0.106265)
(-1.36034e-05 -1.46196e-05 0.092538)
(-1.78738e-05 -1.22768e-05 0.0927865)
(0.000205481 0.000210076 0.127728)
(1.45535e-05 1.4085e-05 0.0922235)