/*--------------------------------*- C++ -*----------------------------------*\
| =========                 |                                                 |
| \\      /  F ield         | OpenFOAM: The Open Source CFD Toolbox           |
|  \\    /   O peration     | Version:  2206                                  |
|   \\  /    A nd           | Website:  www.openfoam.com                      |
|    \\/     M anipulation  |                                                 |
\*---------------------------------------------------------------------------*/
FoamFile
{
    version     2.0;
    format      ascii;
    arch        "LSB;label=32;scalar=64";
    class       volScalarField;
    location    "500";
    object      div(phi);
}
// * * * * * * * * * * * * * * * * * * * * * * * * * * * * * * * * * * * * * //

dimensions      [0 0 -1 0 0 0 0];

internalField   nonuniform List<scalar> 
10720
(
1.65386e-06
-1.49316e-06
7.60091e-07
-9.35248e-07
2.94336e-07
-2.59206e-08
3.46641e-07
1.67782e-07
-7.66494e-08
-2.54921e-07
-2.09095e-07
-2.16391e-07
-1.15756e-07
-1.02509e-07
-1.32898e-08
-3.58857e-09
1.2356e-07
1.56727e-07
3.99421e-07
2.91971e-07
7.7092e-07
8.69251e-07
5.01703e-06
5.10379e-08
-1.74345e-05
1.51848e-05
3.0621e-05
-1.70609e-05
-2.07624e-05
2.07746e-05
-3.8594e-06
1.23551e-05
-2.56857e-06
-1.43732e-05
2.01808e-05
1.67428e-05
2.25376e-06
3.42257e-05
0.000392239
-1.40333e-06
1.00589e-06
-5.37547e-07
1.04896e-07
-2.13687e-07
-2.19046e-07
-5.65144e-08
1.24769e-07
4.29939e-08
1.37808e-07
8.9221e-08
1.85425e-07
1.47162e-07
2.02522e-07
1.54801e-07
1.92363e-07
1.33817e-07
1.79684e-07
7.67946e-08
1.32522e-07
-8.44492e-08
-6.14876e-08
-5.57882e-07
-6.92621e-07
-6.81458e-07
-6.61411e-07
-4.8778e-07
-4.78133e-07
-1.03012e-07
-7.652e-07
-6.12047e-07
-1.36204e-06
-2.09614e-07
2.60006e-06
-3.54888e-06
-8.65071e-06
7.96471e-06
-7.49034e-07
-7.45109e-06
7.42539e-07
-4.69763e-07
5.29549e-07
-7.55928e-07
5.12171e-07
6.11723e-08
4.11612e-07
9.18031e-08
-1.65247e-07
-2.58587e-07
-2.09222e-07
-2.08937e-07
-1.28454e-07
-1.70466e-07
-1.20346e-07
-1.88724e-07
-1.20497e-07
-1.71535e-07
-6.30433e-08
-1.50849e-07
-3.61851e-08
4.99676e-08
1.32993e-06
1.30174e-06
-1.69354e-06
1.30871e-06
7.44058e-06
-2.64357e-06
-5.5727e-06
8.9238e-06
1.45191e-07
7.68121e-06
1.93794e-06
-5.18725e-06
1.21606e-05
1.09995e-05
1.4097e-06
3.15785e-05
0.000229445
-7.26541e-08
5.13699e-07
-3.06769e-07
3.69804e-08
-3.19393e-07
-5.21787e-08
3.16696e-08
5.98347e-08
4.17845e-08
8.05369e-08
8.03946e-08
1.49537e-07
1.32121e-07
1.86153e-07
1.48799e-07
1.9217e-07
1.41064e-07
1.78604e-07
9.33481e-08
1.10335e-07
-6.52893e-08
-1.20905e-07
-5.40323e-07
-6.97733e-07
-8.04883e-07
-7.24362e-07
-6.18732e-07
-4.9508e-07
-2.7991e-07
-8.64994e-07
-7.58749e-07
-1.42476e-06
-9.9144e-07
1.37996e-06
-2.2803e-06
-6.48546e-06
7.22624e-06
-3.23996e-06
-4.93909e-06
-1.62271e-06
1.06885e-06
-1.08872e-06
7.42724e-07
-1.37104e-07
5.64109e-07
2.69411e-07
-2.22703e-08
-2.46146e-07
-2.53211e-07
-2.73418e-07
-1.71521e-07
-1.56301e-07
-5.51307e-08
-3.76649e-08
5.25723e-08
1.14563e-07
2.25674e-07
3.53824e-07
4.14543e-07
5.28613e-07
6.12809e-07
1.89389e-06
3.31222e-07
-6.28101e-06
7.19023e-06
1.94482e-05
-1.00951e-05
-1.42093e-05
1.27772e-05
-3.21837e-06
6.92602e-06
-3.17912e-06
-9.55245e-06
1.10943e-05
8.05402e-06
1.67695e-06
7.89005e-06
0.000116455
1.10685e-06
-5.98738e-07
2.37757e-07
-3.40749e-07
-5.53432e-08
-6.67155e-08
8.56603e-08
3.55572e-08
9.37973e-08
5.098e-08
1.39851e-07
1.10755e-07
1.76182e-07
1.39578e-07
1.738e-07
1.37446e-07
1.51461e-07
1.21203e-07
1.10662e-07
7.22556e-08
4.08285e-09
-8.40288e-08
-3.22044e-07
-4.72524e-07
-4.84883e-07
-4.74156e-07
-4.32396e-07
-3.56034e-07
-9.926e-08
-5.2372e-07
-4.44521e-07
-1.30592e-06
1.9562e-07
3.2749e-06
-3.78224e-06
-9.37641e-06
8.79261e-06
-7.83819e-07
-5.27124e-06
9.50747e-07
-5.98989e-07
4.02941e-07
-7.06272e-08
5.39473e-07
4.57112e-07
1.51334e-07
-1.27679e-07
-2.67083e-07
-2.68509e-07
-2.58486e-07
-1.70892e-07
-1.84639e-07
-1.17358e-07
-1.87965e-07
-1.31501e-07
-2.10286e-07
-1.22016e-07
-1.67875e-07
-1.03508e-07
-1.9944e-07
3.71598e-08
7.98513e-07
7.27443e-07
-1.29373e-06
6.26756e-07
4.38511e-06
-1.09611e-06
-2.88157e-06
6.29309e-06
6.05164e-07
5.69652e-06
2.0967e-06
-3.24266e-06
9.17593e-06
7.88175e-06
8.52458e-07
2.16621e-05
0.000119908
-4.3656e-07
9.22069e-08
-2.73893e-07
-1.52131e-07
-1.12186e-07
1.17195e-07
6.48152e-08
6.85423e-08
5.47219e-08
6.8474e-08
1.06201e-07
1.08073e-07
1.5291e-07
1.2544e-07
1.67566e-07
1.25119e-07
1.6353e-07
1.09376e-07
1.27677e-07
4.59158e-08
4.49596e-09
-1.50264e-07
-3.45837e-07
-5.59865e-07
-6.38127e-07
-6.80913e-07
-5.96204e-07
-5.15772e-07
-3.38649e-07
-7.25652e-07
-7.43079e-07
-1.46874e-06
-1.06433e-06
1.55385e-06
-2.39123e-06
-7.26221e-06
8.57703e-06
-4.59397e-06
-4.27279e-06
5.53584e-07
8.20912e-08
1.07226e-07
4.31189e-07
5.03296e-07
3.58111e-07
6.74746e-08
-2.01016e-07
-2.58308e-07
-3.15067e-07
-2.15162e-07
-2.16202e-07
-1.07506e-07
-1.11609e-07
-2.10167e-08
-8.67517e-09
1.03093e-07
1.79239e-07
3.36038e-07
4.1169e-07
4.79299e-07
5.64648e-07
1.63941e-06
6.95196e-07
-4.11299e-06
8.12025e-06
1.84393e-05
-7.79493e-06
-1.56543e-05
1.24477e-05
-2.2968e-06
6.36999e-06
-3.52236e-06
-1.15356e-05
1.06671e-05
7.39653e-06
1.06155e-06
3.27797e-06
5.98723e-05
-2.16097e-07
-1.04495e-07
-2.99927e-07
-1.4637e-07
7.56053e-08
4.42803e-08
7.1907e-08
7.85888e-08
3.99688e-08
1.05551e-07
8.43546e-08
1.53731e-07
1.17434e-07
1.65294e-07
1.20221e-07
1.52283e-07
1.06756e-07
1.29304e-07
7.76211e-08
8.62207e-08
1.73684e-09
-2.75051e-08
-2.10457e-07
-2.56827e-07
-3.70848e-07
-3.3699e-07
-3.7319e-07
-2.49962e-07
-1.24376e-07
-2.16036e-07
-3.28339e-07
-1.1732e-06
3.59374e-07
3.89739e-06
-3.74624e-06
-1.06894e-05
1.03456e-05
-2.11191e-06
-3.76217e-06
1.90171e-08
1.44476e-07
4.92379e-07
3.12822e-07
4.91533e-07
2.76752e-07
-4.35361e-08
-2.01194e-07
-2.82413e-07
-2.86765e-07
-2.12918e-07
-2.0046e-07
-1.27313e-07
-1.69688e-07
-1.18399e-07
-1.96007e-07
-1.35693e-07
-2.00624e-07
-1.07001e-07
-2.01064e-07
-1.93935e-07
-1.13711e-07
5.53313e-07
2.46982e-07
-9.83194e-07
1.98725e-07
2.89162e-06
-5.51707e-07
-1.62783e-06
5.59202e-06
8.84352e-07
5.48112e-06
2.32527e-06
-3.45034e-06
9.63621e-06
8.03148e-06
3.72952e-08
1.88514e-05
7.82127e-05
-2.49949e-08
-2.66227e-07
-2.87064e-07
-5.3021e-08
3.3109e-08
1.24886e-07
8.28948e-08
5.02063e-08
6.11954e-08
7.55316e-08
9.88272e-08
1.26581e-07
1.20615e-07
1.40411e-07
1.15931e-07
1.34948e-07
1.05027e-07
1.16654e-07
7.79571e-08
5.81353e-08
-9.37032e-09
-1.02937e-07
-2.43869e-07
-4.0519e-07
-5.07819e-07
-6.00054e-07
-5.65548e-07
-5.39239e-07
-3.54698e-07
-5.96448e-07
-6.78009e-07
-1.37257e-06
-1.01268e-06
1.43846e-06
-2.11737e-06
-6.83714e-06
8.6308e-06
-5.49246e-06
-3.36489e-06
-5.24153e-07
5.89026e-07
1.35887e-07
4.80782e-07
3.88137e-07
1.28713e-07
-5.93646e-08
-2.04836e-07
-3.10229e-07
-2.37772e-07
-2.48978e-07
-1.38675e-07
-1.55398e-07
-7.06721e-08
-8.74137e-08
-5.87684e-09
2.21759e-08
1.49021e-07
2.49328e-07
3.5409e-07
3.61732e-07
4.82912e-07
1.45601e-06
8.86954e-07
-1.49354e-06
6.39735e-06
1.58786e-05
-5.72738e-06
-1.55598e-05
1.08933e-05
-1.33709e-06
5.83294e-06
-4.60101e-06
-1.34112e-05
1.19224e-05
8.32995e-06
-1.26942e-06
2.01135e-06
3.56032e-05
6.29812e-08
-4.97682e-07
-1.43517e-07
-4.42748e-08
9.41394e-08
6.72318e-08
8.12124e-08
4.20915e-08
6.65365e-08
6.23412e-08
1.24029e-07
1.02999e-07
1.49826e-07
1.0657e-07
1.39647e-07
9.23822e-08
1.20929e-07
7.07164e-08
9.87559e-08
3.17821e-08
5.69287e-08
-5.5529e-08
-5.02501e-08
-2.05544e-07
-1.58897e-07
-3.07523e-07
-2.00916e-07
-2.44446e-07
2.13936e-08
-2.82411e-08
-1.71163e-07
-1.09813e-06
5.21186e-07
4.01025e-06
-3.6354e-06
-1.06866e-05
1.15792e-05
-2.95695e-06
-2.33719e-06
1.08774e-06
1.96105e-07
5.11151e-07
4.13306e-07
2.23713e-07
1.22555e-07
-9.43087e-08
-1.93081e-07
-2.59158e-07
-2.32793e-07
-2.12462e-07
-1.39993e-07
-1.55056e-07
-1.0171e-07
-1.62464e-07
-1.09688e-07
-1.8304e-07
-1.04512e-07
-1.70917e-07
-1.30044e-07
-2.85102e-07
-5.05054e-08
2.82286e-07
1.30677e-07
-9.40852e-07
5.91516e-08
1.70237e-06
-7.97485e-08
-5.01259e-07
4.5399e-06
8.49238e-07
4.49296e-06
2.43256e-06
-3.04359e-06
9.37398e-06
8.31186e-06
-9.33163e-07
1.83913e-05
5.69733e-05
-5.062e-07
-5.66578e-08
-2.06694e-07
-1.55112e-08
5.42596e-08
1.05918e-07
5.68187e-08
4.74843e-08
4.42218e-08
7.61593e-08
9.63351e-08
1.20792e-07
1.19867e-07
1.18417e-07
1.06016e-07
1.02202e-07
8.6351e-08
8.56671e-08
5.67653e-08
4.59735e-08
-1.28058e-08
-6.54462e-08
-1.7315e-07
-2.8204e-07
-3.90286e-07
-4.89584e-07
-5.14116e-07
-5.18824e-07
-3.63242e-07
-5.12814e-07
-6.48115e-07
-1.24435e-06
-9.40168e-07
1.27045e-06
-1.85734e-06
-6.07481e-06
8.12552e-06
-5.64744e-06
-2.53928e-06
-1.76118e-07
5.45402e-07
4.45477e-07
2.88929e-07
2.5837e-07
2.45997e-08
-2.10446e-08
-2.24319e-07
-2.11722e-07
-2.61599e-07
-1.55752e-07
-1.7452e-07
-8.57788e-08
-1.25085e-07
-5.21617e-08
-7.87443e-08
1.80244e-08
5.17146e-08
1.94915e-07
2.07721e-07
2.44052e-07
3.75762e-07
1.18568e-06
9.82308e-07
-6.55254e-07
4.49831e-06
1.12601e-05
-4.46917e-06
-1.25471e-05
8.42035e-06
3.31611e-07
4.95014e-06
-4.5873e-06
-1.4397e-05
1.12906e-05
8.61399e-06
-3.39258e-06
1.54268e-06
2.19577e-05
1.18905e-07
-2.9445e-07
-1.09329e-07
6.88933e-09
8.34126e-08
6.76034e-08
5.32046e-08
4.09405e-08
3.87039e-08
7.85555e-08
8.835e-08
1.28476e-07
1.04595e-07
1.22673e-07
8.5707e-08
1.00354e-07
6.3365e-08
8.12785e-08
3.94463e-08
6.0518e-08
4.83382e-09
1.94049e-08
-5.91291e-08
-5.28284e-08
-1.30259e-07
-1.19575e-07
-1.67725e-07
-7.74841e-08
6.4437e-08
1.36072e-07
-7.987e-08
-9.77722e-07
4.83791e-07
4.12239e-06
-3.3612e-06
-1.09272e-05
1.19772e-05
-3.64657e-06
-1.26735e-06
5.01413e-07
4.74755e-07
3.56642e-07
3.17092e-07
1.08149e-07
1.22823e-07
-1.12263e-07
-1.45585e-07
-2.2556e-07
-2.17107e-07
-1.63176e-07
-1.46857e-07
-9.91779e-08
-1.24813e-07
-9.37637e-08
-1.36833e-07
-9.50117e-08
-1.25958e-07
-9.71575e-08
-1.75952e-07
-2.09411e-07
-7.80315e-08
2.42934e-07
-5.21364e-08
-8.05673e-07
-4.17894e-08
1.05121e-06
1.50635e-07
3.39665e-07
3.64367e-06
6.70446e-07
3.61746e-06
2.33781e-06
-2.30441e-06
7.97877e-06
7.42294e-06
-1.63662e-06
1.73333e-05
4.36674e-05
-1.28969e-07
-1.80322e-07
-8.11241e-08
3.72678e-08
7.25478e-08
7.52728e-08
4.94304e-08
2.81002e-08
4.38745e-08
5.71934e-08
1.05109e-07
1.0171e-07
1.2374e-07
9.04196e-08
1.01148e-07
6.4723e-08
7.97088e-08
4.35751e-08
5.72454e-08
1.28897e-08
9.41817e-09
-6.13066e-08
-9.94008e-08
-2.10817e-07
-2.67956e-07
-3.91984e-07
-4.13436e-07
-4.74552e-07
-3.47684e-07
-4.79262e-07
-6.09595e-07
-1.14155e-06
-8.54463e-07
1.1236e-06
-1.64208e-06
-5.38574e-06
7.3813e-06
-5.52029e-06
-1.98882e-06
5.19984e-07
3.80635e-07
3.17772e-07
1.80364e-07
2.17748e-07
5.13598e-09
-2.86108e-08
-1.5441e-07
-2.4211e-07
-1.77681e-07
-1.95736e-07
-9.78079e-08
-1.33879e-07
-6.12572e-08
-1.14681e-07
-3.75727e-08
-7.19035e-08
5.55918e-08
3.85536e-08
1.43866e-07
2.94357e-08
3.23843e-07
7.39096e-07
7.93594e-07
-7.18852e-07
2.706e-06
6.14173e-06
-2.42497e-06
-9.75292e-06
5.91981e-06
1.22091e-06
5.06329e-06
-4.79305e-06
-1.42189e-05
1.05684e-05
8.13137e-06
-5.84079e-06
5.33869e-07
1.60266e-05
-1.61622e-07
-8.90735e-08
-2.55959e-08
4.00668e-08
8.24753e-08
6.49594e-08
4.21445e-08
2.85472e-08
3.60947e-08
6.26454e-08
9.25445e-08
1.06388e-07
1.04265e-07
9.24488e-08
7.76798e-08
6.524e-08
5.51814e-08
4.37016e-08
3.94585e-08
2.46348e-08
2.4311e-08
-6.13906e-10
9.93081e-10
-3.72919e-08
-2.28494e-08
-7.0833e-08
-2.7536e-08
-2.05128e-08
1.56388e-07
2.06068e-07
1.68523e-08
-9.34645e-07
5.57011e-07
4.07215e-06
-3.35672e-06
-1.07759e-05
1.28462e-05
-3.98432e-06
-6.64567e-07
1.90279e-07
2.76996e-07
2.11795e-07
2.39901e-07
7.08379e-08
1.07116e-07
-6.17639e-08
-1.39641e-07
-1.81102e-07
-1.96114e-07
-1.5432e-07
-1.26515e-07
-9.38518e-08
-9.50357e-08
-8.50392e-08
-1.0091e-07
-7.39721e-08
-8.94898e-08
-7.87834e-08
-1.6479e-07
-1.62449e-07
-5.55427e-08
1.96793e-07
-1.49402e-07
-6.62844e-07
-9.92783e-08
7.61288e-07
3.67183e-07
6.73936e-07
2.73662e-06
6.62614e-07
2.81743e-06
2.26111e-06
-1.43714e-06
6.78626e-06
6.27413e-06
-2.00895e-06
1.4986e-05
3.15608e-05
4.17694e-08
-4.7463e-08
-1.44751e-08
7.59794e-08
7.61281e-08
6.37359e-08
3.73873e-08
2.67839e-08
2.62033e-08
6.78096e-08
7.96247e-08
1.13104e-07
8.82844e-08
9.60983e-08
5.99686e-08
6.92954e-08
3.65514e-08
5.13348e-08
1.8215e-08
3.13089e-08
-1.2293e-08
-1.66537e-08
-8.16713e-08
-1.21297e-07
-2.01537e-07
-2.69273e-07
-3.32423e-07
-3.77944e-07
-3.4045e-07
-4.28373e-07
-5.98155e-07
-1.01297e-06
-7.84499e-07
9.00065e-07
-1.46227e-06
-4.63342e-06
6.65273e-06
-5.17367e-06
-1.62285e-06
2.73185e-07
1.6885e-07
2.03151e-07
1.1895e-07
1.97016e-07
1.8678e-08
7.62463e-09
-1.21462e-07
-1.68919e-07
-2.10762e-07
-1.43495e-07
-1.41532e-07
-7.66453e-08
-1.04193e-07
-5.86846e-08
-9.6998e-08
-2.78857e-08
-5.71006e-08
3.44814e-08
-5.32894e-08
1.08062e-08
5.70094e-08
5.41818e-07
2.06549e-07
-6.27234e-07
7.94699e-07
3.53565e-06
-1.84431e-06
-6.24129e-06
3.52017e-06
1.86574e-06
3.95995e-06
-4.43582e-06
-1.40555e-05
9.54003e-06
7.94472e-06
-7.23286e-06
4.43186e-07
9.03817e-06
1.66917e-08
-1.19105e-08
6.59047e-08
6.11628e-08
8.46651e-08
5.89223e-08
3.5705e-08
2.1438e-08
3.61989e-08
5.16182e-08
8.91642e-08
8.35154e-08
9.65423e-08
6.38386e-08
6.95786e-08
3.86014e-08
4.65823e-08
2.26475e-08
3.04125e-08
1.33823e-08
1.80982e-08
5.38317e-09
8.13801e-09
-3.9841e-09
7.28167e-09
-7.98147e-09
2.77539e-08
4.67412e-08
1.7065e-07
2.1703e-07
3.48734e-08
-7.03628e-07
6.12373e-07
3.9509e-06
-3.10256e-06
-1.04779e-05
1.29376e-05
-4.26436e-06
-2.75859e-07
1.36715e-07
1.64847e-07
1.28655e-07
1.96536e-07
5.8875e-08
1.30337e-07
-2.46261e-08
-8.98257e-08
-1.83458e-07
-1.70415e-07
-1.76997e-07
-9.86674e-08
-1.10107e-07
-5.20633e-08
-9.87021e-08
-4.26537e-08
-9.29295e-08
-2.44955e-08
-1.11179e-07
-9.49405e-08
-1.75306e-07
3.30765e-08
9.49771e-08
-1.21569e-07
-5.70367e-07
2.19875e-08
6.54011e-07
5.05823e-07
7.42791e-07
2.07055e-06
6.37522e-07
2.24074e-06
2.08646e-06
-6.89326e-07
5.55334e-06
5.2836e-06
-2.14081e-06
1.25024e-05
2.06541e-05
3.31382e-08
6.23404e-08
3.56409e-08
1.00022e-07
7.44788e-08
5.2303e-08
3.45577e-08
1.61135e-08
3.4832e-08
5.05186e-08
8.42756e-08
8.24248e-08
8.46321e-08
6.27945e-08
5.90147e-08
3.75572e-08
4.12086e-08
2.12858e-08
3.07299e-08
8.30453e-09
1.33949e-08
-1.90337e-08
-3.27808e-08
-8.56328e-08
-1.21413e-07
-1.93408e-07
-2.35223e-07
-3.00115e-07
-3.02222e-07
-4.00171e-07
-5.40613e-07
-8.95928e-07
-6.92707e-07
7.09165e-07
-1.23281e-06
-3.96038e-06
5.7727e-06
-4.77879e-06
-1.34765e-06
1.26491e-07
8.62296e-08
1.45983e-07
9.52128e-08
1.92847e-07
3.39517e-08
2.79489e-08
-8.32124e-08
-1.75255e-07
-1.94715e-07
-1.62947e-07
-1.24879e-07
-8.81454e-08
-7.76669e-08
-7.06982e-08
-6.86226e-08
-6.36558e-08
-4.86707e-08
-6.50842e-08
-7.79326e-08
-1.23907e-07
2.56293e-08
1.82659e-07
5.2734e-09
-7.82452e-07
1.2971e-07
1.6606e-06
-8.92747e-07
-3.77118e-06
1.68086e-06
1.56499e-06
2.76382e-06
-3.92826e-06
-1.41447e-05
8.51314e-06
7.59156e-06
-8.60971e-06
2.27443e-07
3.93943e-06
6.38326e-08
3.40592e-08
9.80791e-08
6.41966e-08
7.99117e-08
5.31784e-08
2.80601e-08
2.47996e-08
2.52991e-08
5.65948e-08
5.73677e-08
8.3427e-08
5.47356e-08
6.74382e-08
3.32131e-08
4.67287e-08
1.70805e-08
3.17013e-08
7.8852e-09
2.12855e-08
2.69155e-09
1.46418e-08
6.59874e-10
1.45698e-08
7.48381e-09
2.51247e-08
3.25679e-08
7.51787e-08
1.22781e-07
1.71401e-07
5.24066e-08
-4.67262e-07
5.97639e-07
3.94608e-06
-3.12773e-06
-9.88635e-06
1.30412e-05
-4.2821e-06
-5.36326e-08
8.24111e-08
1.11531e-07
9.73962e-08
1.71041e-07
5.21291e-08
1.416e-07
1.58679e-08
-1.15033e-07
-1.48364e-07
-2.04388e-07
-1.39704e-07
-1.34871e-07
-5.96779e-08
-8.79671e-08
-3.34368e-08
-8.20558e-08
-2.04078e-08
-7.69155e-08
-3.37751e-08
-1.42878e-07
-6.16181e-08
-1.62702e-08
1.35307e-07
-1.71558e-07
-3.24414e-07
6.48415e-08
6.85222e-07
5.42217e-07
7.10792e-07
1.40575e-06
7.82988e-07
1.80636e-06
1.88084e-06
-1.52019e-07
4.48799e-06
4.10292e-06
-2.20973e-06
1.01055e-05
1.29279e-05
3.44352e-08
8.12658e-08
4.21167e-08
1.03949e-07
6.80196e-08
4.96657e-08
2.49781e-08
2.32358e-08
2.60731e-08
5.28472e-08
6.30019e-08
6.77746e-08
5.91326e-08
5.04276e-08
3.8904e-08
3.3417e-08
2.31388e-08
2.46394e-08
1.43065e-08
1.97751e-08
4.38372e-09
5.19799e-09
-2.37652e-08
-3.89842e-08
-8.56133e-08
-1.18656e-07
-1.77971e-07
-2.19656e-07
-2.77646e-07
-3.37996e-07
-4.88988e-07
-7.53109e-07
-5.76836e-07
5.50467e-07
-1.03676e-06
-3.11846e-06
4.97328e-06
-4.27964e-06
-1.13716e-06
7.25097e-08
5.19606e-08
1.16806e-07
7.66201e-08
1.90313e-07
5.97833e-08
6.23382e-09
-3.28952e-08
-1.845e-07
-1.73916e-07
-1.79413e-07
-9.7572e-08
-1.02351e-07
-4.72259e-08
-8.06401e-08
-4.33509e-08
-7.72809e-08
-4.86683e-08
-9.984e-08
-1.09392e-07
-1.43204e-07
-4.01928e-08
3.98617e-08
-1.51209e-07
-6.4215e-07
-1.84484e-07
8.29692e-07
-3.52681e-07
-2.27753e-06
3.97718e-07
8.63987e-07
1.5528e-06
-3.9668e-06
-1.16964e-05
6.96458e-06
7.31635e-06
-9.27671e-06
6.35401e-07
9.31138e-07
6.00886e-08
3.88186e-08
1.01048e-07
6.21459e-08
7.81621e-08
4.61556e-08
2.82716e-08
1.54079e-08
3.12571e-08
3.14481e-08
5.72786e-08
4.15514e-08
5.62652e-08
2.95907e-08
4.29687e-08
1.64677e-08
3.09367e-08
7.75515e-09
2.13025e-08
1.92792e-09
1.28097e-08
-2.15692e-09
7.10868e-09
-1.20018e-09
1.05591e-08
7.82701e-09
2.70329e-08
3.80985e-08
6.8395e-08
9.96539e-08
4.64974e-08
-3.043e-07
6.57749e-07
3.15008e-06
-3.20269e-06
-9.05572e-06
1.25609e-05
-4.19035e-06
9.51477e-08
4.96823e-08
8.93401e-08
7.25672e-08
1.53795e-07
6.24157e-08
1.32144e-07
4.79971e-08
-1.05421e-07
-1.5421e-07
-1.65407e-07
-1.55985e-07
-9.27485e-08
-8.36042e-08
-4.06634e-08
-6.32002e-08
-2.62871e-08
-5.87837e-08
-2.00452e-08
-8.01137e-08
-5.75826e-08
-8.31067e-08
6.43437e-08
6.08475e-08
-6.46645e-08
-2.19321e-07
1.98714e-07
5.98035e-07
5.64369e-07
5.11035e-07
1.00481e-06
8.20523e-07
1.53473e-06
1.59306e-06
4.01257e-07
3.47274e-06
3.01386e-06
-2.20146e-06
8.04749e-06
7.93596e-06
3.14355e-08
7.83012e-08
4.27102e-08
1.00156e-07
6.36661e-08
3.47519e-08
2.64062e-08
1.46854e-08
3.07201e-08
3.89047e-08
4.94218e-08
4.64113e-08
4.11041e-08
3.56459e-08
2.78636e-08
2.28873e-08
1.85879e-08
1.35188e-08
1.57557e-08
8.37567e-09
1.26786e-08
-1.02973e-09
-3.68839e-09
-3.04472e-08
-4.73608e-08
-8.96952e-08
-1.21928e-07
-1.82596e-07
-2.2371e-07
-2.95721e-07
-4.04854e-07
-6.1925e-07
-4.40739e-07
3.56032e-07
-8.3334e-07
-2.32116e-06
4.14562e-06
-3.80476e-06
-9.69883e-07
5.54346e-08
3.42424e-08
9.60653e-08
7.58739e-08
1.81955e-07
5.21199e-08
2.06161e-08
-3.63564e-08
-1.36829e-07
-1.90431e-07
-1.1733e-07
-1.21425e-07
-4.5619e-08
-7.69813e-08
-2.54642e-08
-7.15041e-08
-2.86568e-08
-8.19443e-08
-6.16138e-08
-1.36075e-07
-9.40152e-08
-7.59895e-08
8.96618e-09
-1.9459e-07
-4.2954e-07
-2.25216e-07
4.52444e-07
-1.50323e-07
-1.37361e-06
-3.20473e-07
3.6091e-07
2.90494e-07
-2.95104e-06
-9.05528e-06
5.05487e-06
7.36896e-06
-9.34178e-06
7.88184e-07
-6.34072e-07
5.27135e-08
3.87725e-08
9.63733e-08
5.68203e-08
6.20899e-08
4.80775e-08
1.59132e-08
1.74974e-08
1.27147e-08
3.26125e-08
2.39862e-08
4.06196e-08
2.21739e-08
3.54664e-08
1.46118e-08
2.73289e-08
6.84861e-09
2.03245e-08
1.76468e-09
1.2195e-08
-4.66906e-09
1.81936e-09
-1.15827e-08
-5.10785e-09
-1.44247e-08
-6.64253e-09
-1.20449e-08
-2.55989e-10
1.68338e-09
4.08002e-08
-1.03886e-09
-1.8366e-07
4.44656e-07
2.1368e-06
-2.7894e-06
-8.81253e-06
1.15551e-05
-3.86463e-06
2.07146e-07
4.1282e-08
7.05212e-08
6.36975e-08
1.40044e-07
4.19702e-08
1.40293e-07
4.71922e-08
-1.1266e-07
-1.25183e-07
-1.46725e-07
-1.1177e-07
-8.58319e-08
-4.88963e-08
-4.71355e-08
-2.49339e-08
-4.02743e-08
-1.5733e-08
-4.3418e-08
-2.59953e-08
-6.79122e-08
7.52044e-10
3.99515e-08
1.01834e-07
-5.27951e-08
-5.08851e-08
1.93851e-07
5.54685e-07
4.44952e-07
4.25524e-07
6.99119e-07
8.39913e-07
1.31252e-06
1.3804e-06
6.12489e-07
2.6729e-06
2.03268e-06
-2.17042e-06
6.19799e-06
4.90874e-06
2.80378e-08
7.25606e-08
3.90203e-08
8.99725e-08
5.86546e-08
2.31275e-08
1.84992e-08
1.81152e-08
2.16252e-08
3.20266e-08
3.26709e-08
3.02527e-08
2.85222e-08
2.30155e-08
2.03287e-08
1.35745e-08
1.11116e-08
8.4974e-09
5.92431e-09
7.00109e-09
9.56332e-10
2.08357e-09
-1.1267e-08
-1.76071e-08
-4.3292e-08
-6.22273e-08
-1.04372e-07
-1.4073e-07
-1.93179e-07
-2.3485e-07
-3.43265e-07
-4.86903e-07
-3.49218e-07
2.50511e-07
-7.24781e-07
-1.56652e-06
3.37827e-06
-3.24167e-06
-8.16733e-07
3.8936e-08
2.04155e-08
8.30747e-08
5.79097e-08
1.77089e-07
5.29604e-08
-7.91255e-09
1.71917e-08
-1.44911e-07
-1.11347e-07
-1.2283e-07
-5.10984e-08
-6.7458e-08
-1.25984e-08
-5.01304e-08
-6.81133e-09
-5.16204e-08
-1.82844e-08
-7.84941e-08
-5.37495e-08
-9.07087e-08
-5.04593e-09
-3.11984e-08
-1.014e-07
-2.79053e-07
-1.06157e-07
2.21291e-07
-7.53484e-09
-8.5655e-07
-4.6448e-07
-6.84872e-08
4.01055e-08
-2.096e-06
-6.03733e-06
3.76789e-06
6.12563e-06
-8.93104e-06
1.24267e-06
-1.01672e-06
4.69041e-08
3.70085e-08
8.97797e-08
5.22912e-08
5.28077e-08
4.47684e-08
1.42995e-08
7.62394e-10
1.52974e-08
9.06999e-09
2.43306e-08
1.32354e-08
2.69045e-08
9.78526e-09
2.25958e-08
2.51755e-09
1.56742e-08
-1.35939e-10
1.11461e-08
-4.66587e-09
1.26818e-09
-1.49637e-08
-1.27223e-08
-2.65703e-08
-2.4645e-08
-3.77581e-08
-3.58256e-08
-4.78533e-08
-3.56232e-08
-2.37015e-08
-3.80814e-08
-1.92033e-07
1.8844e-07
1.28443e-06
-2.70221e-06
-7.15033e-06
1.01124e-05
-3.4144e-06
2.62948e-07
2.5179e-08
6.12233e-08
4.74671e-08
1.2649e-07
4.18459e-08
1.23974e-07
7.49255e-08
-1.02337e-07
-7.83439e-08
-9.47583e-08
-8.08544e-08
-5.06068e-08
-3.429e-08
-1.56683e-08
-1.74527e-08
-3.73291e-09
-1.43038e-08
-1.45047e-09
-2.31925e-08
-3.0615e-09
1.29219e-08
8.97153e-08
7.87792e-08
3.14054e-08
2.20255e-09
2.27791e-07
4.28201e-07
3.91593e-07
3.34356e-07
5.41814e-07
7.92676e-07
1.17274e-06
1.14615e-06
7.48522e-07
2.08825e-06
1.15531e-06
-2.06743e-06
4.75361e-06
3.07456e-06
2.5487e-08
6.59682e-08
3.75366e-08
8.24602e-08
5.26753e-08
6.91782e-09
1.39952e-08
1.27189e-08
1.6524e-08
2.20897e-08
2.0525e-08
2.18887e-08
1.61464e-08
2.02014e-08
4.68197e-09
9.67045e-09
2.98398e-09
3.22555e-09
-2.26072e-10
-1.6241e-09
-3.21431e-09
-9.26245e-09
-1.28238e-08
-2.54721e-08
-3.72174e-08
-6.03873e-08
-8.61232e-08
-1.22854e-07
-1.55328e-07
-1.97949e-07
-2.83119e-07
-3.97482e-07
-2.59651e-07
1.18311e-07
-6.56116e-07
-8.13598e-07
2.66202e-06
-2.69406e-06
-6.61483e-07
3.15122e-08
1.16732e-08
6.93544e-08
5.53726e-08
1.64204e-07
4.48027e-08
1.45088e-08
2.91628e-08
-6.43351e-08
-9.85449e-08
-5.02294e-08
-5.91984e-08
-4.1306e-09
-2.74673e-08
1.48016e-08
-1.95962e-08
1.64643e-08
-2.58465e-08
1.31937e-09
-4.18065e-08
7.77981e-09
-1.38399e-09
4.03844e-08
-6.34566e-08
-8.93769e-08
-4.68671e-08
1.90776e-07
1.01101e-08
-4.22472e-07
-4.43112e-07
-5.25631e-08
1.94006e-08
-1.16856e-06
-3.4219e-06
2.40789e-06
4.37518e-06
-7.54643e-06
1.41309e-06
-1.08139e-06
4.09792e-08
3.5021e-08
8.34575e-08
4.25735e-08
3.85622e-08
4.36121e-08
-1.14559e-09
1.35332e-09
-4.06214e-10
1.06129e-08
5.99086e-09
1.65495e-08
1.08355e-08
9.49137e-09
1.20009e-09
6.95803e-09
-7.99575e-09
7.24873e-09
-3.64164e-09
3.86856e-09
-1.06387e-08
-1.08821e-08
-2.68434e-08
-2.92724e-08
-4.42894e-08
-4.7532e-08
-6.37391e-08
-6.4581e-08
-7.22606e-08
-5.21894e-08
-9.98316e-08
-1.98736e-07
-2.65203e-09
5.979e-07
-2.14577e-06
-5.07798e-06
7.85349e-06
-2.89564e-06
3.02116e-07
2.25967e-08
4.91883e-08
4.21205e-08
1.12527e-07
2.44798e-08
1.30856e-07
7.32145e-08
-6.05377e-08
-3.81044e-08
-5.42423e-08
-4.80052e-08
-2.50688e-08
-1.11907e-08
5.28135e-09
9.40524e-09
1.62426e-08
1.70146e-08
1.83147e-08
1.77313e-08
2.63026e-08
6.06168e-08
9.83153e-08
1.03712e-07
6.18503e-08
6.61565e-08
2.08306e-07
3.47487e-07
3.23624e-07
2.93518e-07
4.41799e-07
7.26675e-07
1.00886e-06
9.69043e-07
7.28682e-07
1.63358e-06
5.43764e-07
-1.77827e-06
3.58514e-06
1.95763e-06
2.15386e-08
5.97397e-08
3.00637e-08
7.33847e-08
4.53236e-08
-8.84035e-09
1.23789e-08
7.45327e-09
1.34346e-08
1.2903e-08
1.66942e-08
1.48172e-08
1.09318e-08
4.48477e-09
-1.37762e-10
-1.48073e-08
1.49443e-08
-1.43192e-08
1.46585e-10
-5.7639e-09
-6.65142e-09
-1.38866e-08
-2.02921e-08
-2.98102e-08
-4.15685e-08
-5.83748e-08
-7.99484e-08
-1.05665e-07
-1.31562e-07
-1.67323e-07
-2.43852e-07
-3.18715e-07
-2.14849e-07
3.49669e-08
-5.99671e-07
-2.65306e-07
1.93721e-06
-2.14415e-06
-5.10065e-07
2.11254e-08
3.2151e-09
5.98623e-08
4.06165e-08
1.54801e-07
4.62078e-08
2.0449e-08
7.36172e-08
-4.95942e-08
-3.82067e-08
-5.08317e-08
-1.05136e-08
-1.33444e-08
2.318e-08
8.53639e-09
3.66527e-08
1.49086e-08
3.7501e-08
1.04035e-08
3.95454e-08
2.63032e-08
7.39466e-08
4.45163e-08
3.60731e-08
-1.17653e-08
6.70708e-08
1.39762e-07
9.50505e-08
-1.9366e-07
-2.29166e-07
3.47279e-09
1.537e-07
-4.88216e-07
-1.92173e-06
1.45603e-06
2.56917e-06
-6.37641e-06
1.68369e-06
-7.28534e-07
3.61505e-08
3.03733e-08
7.59892e-08
3.50878e-08
2.79399e-08
4.17951e-08
-4.31005e-09
-7.10591e-09
-1.97887e-10
1.67263e-09
9.47141e-09
4.83822e-09
9.37471e-09
-8.06391e-09
-1.70421e-08
2.03501e-08
-1.87275e-08
-3.71432e-09
-1.41965e-08
-4.5027e-09
-3.76549e-09
-1.59158e-08
-2.35115e-08
-3.85689e-08
-4.5578e-08
-6.00883e-08
-6.70727e-08
-8.04265e-08
-7.7665e-08
-8.61722e-08
-1.19364e-07
-2.08573e-07
-7.92491e-08
2.89099e-07
-1.473e-06
-3.04027e-06
5.98963e-06
-2.36976e-06
2.4245e-07
1.1827e-08
4.37852e-08
3.01558e-08
9.89211e-08
2.55963e-08
1.2219e-07
9.4202e-08
-3.64949e-08
-6.59933e-12
-3.02364e-08
-2.38412e-08
-1.74778e-08
1.03311e-08
1.538e-08
3.53413e-08
3.173e-08
4.54419e-08
3.83605e-08
5.16821e-08
5.31778e-08
9.10391e-08
1.08789e-07
1.1824e-07
8.65856e-08
1.01821e-07
1.87312e-07
2.79479e-07
2.716e-07
2.59469e-07
3.76032e-07
6.2196e-07
8.38421e-07
7.47418e-07
6.27963e-07
1.28378e-06
1.34074e-07
-1.44762e-06
2.74796e-06
1.30702e-06
1.81846e-08
5.27166e-08
2.52023e-08
6.48842e-08
3.83015e-08
-1.65461e-08
7.80624e-09
5.89175e-09
7.3805e-09
1.18165e-08
1.04901e-08
1.4305e-08
-5.48869e-09
-1.65122e-08
1.49497e-08
-8.74101e-09
6.04842e-09
-3.48842e-08
-9.16328e-09
-1.98003e-08
-1.32595e-08
-1.45273e-08
-2.4315e-08
-3.27763e-08
-4.52065e-08
-5.77118e-08
-7.52274e-08
-9.29405e-08
-1.14325e-07
-1.47224e-07
-2.09111e-07
-2.60734e-07
-1.61273e-07
-3.71356e-08
-5.17643e-07
9.82953e-08
1.36815e-06
-1.65762e-06
-3.86057e-07
1.68631e-08
-1.48179e-09
4.91404e-08
3.90885e-08
1.40448e-07
4.35909e-08
4.18441e-08
8.00152e-08
-6.64418e-09
-3.21537e-08
-2.4088e-08
-1.66589e-08
1.05691e-08
2.08419e-08
3.94817e-08
4.00632e-08
5.13801e-08
4.67331e-08
5.6018e-08
5.66662e-08
7.94506e-08
8.36299e-08
8.87916e-08
6.44386e-08
7.21675e-08
1.00613e-07
1.56607e-07
1.14499e-07
-1.87896e-08
-7.21291e-08
9.7061e-08
2.13366e-07
-1.72153e-07
-1.07215e-06
9.15056e-07
8.45401e-07
-4.91713e-06
1.74779e-06
-3.44422e-07
3.09798e-08
2.59113e-08
6.83918e-08
2.41412e-08
2.03313e-08
3.58872e-08
-9.03458e-09
-9.02867e-09
-2.76248e-09
1.67799e-09
7.56076e-09
-1.0512e-09
-1.09431e-08
6.98065e-09
-9.69517e-09
2.09608e-08
-3.41104e-08
-9.01767e-09
-4.88773e-08
-1.52221e-08
-2.29876e-08
-1.80495e-08
-2.67505e-08
-3.70989e-08
-4.90933e-08
-5.84755e-08
-7.00013e-08
-7.74181e-08
-8.50058e-08
-9.43456e-08
-1.34508e-07
-1.76437e-07
-8.83844e-08
1.91937e-07
-9.93741e-07
-1.15575e-06
4.13892e-06
-1.87875e-06
1.91291e-07
1.17171e-08
3.52317e-08
2.68085e-08
8.56912e-08
1.57406e-08
1.229e-07
8.96597e-08
-1.06859e-08
1.42067e-08
-1.36807e-08
-2.26879e-08
-6.46466e-09
7.85305e-09
3.1221e-08
3.86399e-08
5.22193e-08
5.27793e-08
6.16799e-08
6.27562e-08
7.90142e-08
9.53931e-08
1.19191e-07
1.14995e-07
1.05471e-07
1.10488e-07
1.68957e-07
2.20408e-07
2.26344e-07
2.23092e-07
3.16467e-07
5.00725e-07
6.39127e-07
5.31235e-07
5.49932e-07
9.69302e-07
-1.14668e-07
-1.03476e-06
2.12165e-06
9.22589e-07
1.39745e-08
4.61091e-08
1.63188e-08
5.67103e-08
2.92415e-08
-2.04689e-08
5.2284e-09
4.11461e-09
5.10392e-09
9.27247e-09
8.97292e-09
2.68258e-09
-9.27651e-10
-6.43176e-09
1.96017e-08
-9.92668e-09
-5.50817e-09
-4.63508e-08
-1.95761e-08
-4.02658e-08
-3.01622e-08
-2.65636e-08
-2.70228e-08
-3.52931e-08
-4.51094e-08
-5.68558e-08
-6.89527e-08
-8.36587e-08
-1.00939e-07
-1.3255e-07
-1.77372e-07
-2.08584e-07
-1.17429e-07
-1.1317e-07
-3.98479e-07
2.80745e-07
8.64724e-07
-1.24703e-06
-2.89772e-07
1.00006e-08
-6.82782e-09
4.19304e-08
2.87536e-08
1.29048e-07
4.48109e-08
4.4309e-08
9.58841e-08
-2.80219e-10
-1.6971e-08
-2.52717e-08
-1.25346e-08
8.98272e-09
2.80301e-08
4.2503e-08
5.16756e-08
5.78201e-08
6.20552e-08
6.68003e-08
7.57826e-08
8.93452e-08
9.76044e-08
9.41597e-08
8.95281e-08
9.84096e-08
1.24599e-07
1.48016e-07
1.30987e-07
6.30428e-08
3.89447e-08
1.3518e-07
1.99743e-07
-5.65929e-08
-5.17796e-07
5.17469e-07
-1.03257e-07
-3.69198e-06
1.66673e-06
3.71107e-08
2.6713e-08
2.04527e-08
5.98638e-08
1.67817e-08
1.54667e-08
3.19731e-08
-1.06041e-08
-8.47829e-09
-3.7232e-09
1.84784e-09
4.77802e-09
-5.4939e-09
1.1805e-09
7.67912e-09
9.30697e-09
-3.67854e-09
-1.83491e-08
-1.56662e-08
-3.90379e-08
-4.07124e-08
-4.00928e-08
-2.42056e-08
-2.71059e-08
-3.60076e-08
-4.63333e-08
-5.60263e-08
-6.50517e-08
-7.37876e-08
-8.2805e-08
-9.88989e-08
-1.26422e-07
-1.46385e-07
-6.01182e-08
7.07775e-08
-5.51971e-07
-1.65074e-07
2.75117e-06
-1.37136e-06
1.13951e-07
4.30356e-09
3.16831e-08
1.79442e-08
7.40804e-08
1.7628e-08
1.12154e-07
9.62675e-08
1.19576e-09
2.45475e-08
-7.18263e-09
-2.04776e-08
-9.53012e-09
1.0144e-08
2.90631e-08
4.34953e-08
5.24676e-08
5.90606e-08
6.34653e-08
7.00867e-08
7.98995e-08
9.47834e-08
1.08573e-07
1.09152e-07
1.02444e-07
1.10039e-07
1.40893e-07
1.73256e-07
1.80029e-07
1.854e-07
2.53565e-07
3.744e-07
4.49106e-07
3.74313e-07
4.86242e-07
6.98552e-07
-2.31978e-07
-6.74185e-07
1.64195e-06
7.14071e-07
1.1035e-08
3.91268e-08
1.11742e-08
4.86707e-08
2.37765e-08
-2.13985e-08
5.45899e-09
1.221e-09
4.17555e-09
6.51253e-09
5.62179e-09
-1.27082e-10
-3.74425e-09
1.34026e-08
5.74321e-09
-4.32125e-09
-9.18557e-09
-1.95681e-08
-3.44599e-08
-5.43123e-08
-2.956e-08
-3.50856e-08
-2.96901e-08
-3.39364e-08
-4.30139e-08
-5.26314e-08
-6.28105e-08
-7.43839e-08
-9.11219e-08
-1.16938e-07
-1.49008e-07
-1.61315e-07
-1.02834e-07
-1.65956e-07
-2.83601e-07
2.98399e-07
5.06911e-07
-9.07511e-07
-2.32915e-07
7.48952e-09
-9.30197e-09
3.37322e-08
2.7986e-08
1.14857e-07
4.0426e-08
5.28266e-08
9.04114e-08
1.4157e-08
-1.47386e-08
-2.29498e-08
-1.38864e-08
6.40364e-09
2.58462e-08
4.02968e-08
5.02459e-08
5.64345e-08