/*--------------------------------*- C++ -*----------------------------------*\
| =========                 |                                                 |
| \\      /  F ield         | OpenFOAM: The Open Source CFD Toolbox           |
|  \\    /   O peration     | Version:  2206                                  |
|   \\  /    A nd           | Website:  www.openfoam.com                      |
|    \\/     M anipulation  |                                                 |
\*---------------------------------------------------------------------------*/
FoamFile
{
    version     2.0;
    format      ascii;
    arch        "LSB;label=32;scalar=64";
    class       volVectorField;
    location    "500";
    object      momentError;
}
// * * * * * * * * * * * * * * * * * * * * * * * * * * * * * * * * * * * * * //

dimensions      [0 1 -2 0 0 0 0];

internalField   nonuniform List<vector> 
10720
(
(0.000136183 -0.000458638 -4.161e-15)
(0.000109344 -0.000498201 -2.46501e-15)
(6.51002e-05 -0.00050332 -2.15845e-14)
(3.10618e-06 -0.000485269 9.99158e-14)
(-3.97103e-05 -0.000472907 7.47326e-14)
(-8.01248e-05 -0.000448963 -1.8512e-13)
(-0.000121645 -0.000433107 -1.39562e-13)
(-0.000156133 -0.000408264 -1.07606e-13)
(-0.000186524 -0.000379425 2.1549e-14)
(-0.000210726 -0.000343596 5.47612e-15)
(-0.00022707 -0.000300635 -1.55953e-14)
(-0.000249108 -0.000286144 6.7376e-14)
(-0.000264787 -0.000268114 -2.19364e-13)
(-0.000280325 -0.000248822 -4.01236e-13)
(-0.000307229 -0.000238467 7.43286e-14)
(-0.000354823 -0.000239635 -1.06086e-13)
(-0.000416595 -0.000245402 1.15543e-13)
(-0.000559211 -0.000258558 8.86576e-13)
(-0.00039348 -0.000173232 2.34708e-13)
(-0.000600841 -0.000339963 -4.6666e-13)
(-0.00129225 -0.000473152 -2.31247e-13)
(0.00118624 0.000709308 9.58783e-14)
(0.00893906 0.00182713 3.38089e-13)
(0.0294858 0.00532014 -2.47251e-13)
(0.00979796 0.00351692 4.59153e-14)
(-0.010584 8.11838e-06 -4.01601e-14)
(-0.0149561 -0.00265882 -6.94574e-14)
(-0.00701435 -0.00303858 1.3124e-14)
(-0.00057791 -0.0020217 1.00903e-14)
(0.00192724 -0.000836328 2.09895e-13)
(0.00242647 -0.000177914 1.55013e-13)
(0.00158063 -1.23382e-06 -1.77288e-13)
(0.000446297 -3.23709e-06 -1.33399e-13)
(0.00030803 -4.82207e-05 -2.39303e-13)
(0.000235072 6.67471e-05 -1.59706e-13)
(-0.000277996 0.00128435 1.54551e-13)
(0.00126683 0.0115177 -1.0865e-14)
(0.0532809 0.0720957 -5.80998e-16)
(1.09167 -0.120207 -6.35197e-14)
(0.000168054 -0.000426393 8.10905e-15)
(0.000175566 -0.000326924 -2.00082e-14)
(0.000188095 -0.000229826 2.29202e-14)
(0.000167689 -0.000129289 1.04293e-13)
(0.000145302 -5.75611e-05 3.60744e-14)
(5.84134e-05 6.01755e-05 -2.84893e-13)
(4.56094e-06 9.84783e-05 -1.55795e-13)
(-9.26864e-05 0.000177461 1.61066e-13)
(-0.00010592 9.41069e-05 -6.37558e-14)
(-5.58468e-05 1.97472e-05 5.91477e-14)
(-5.61367e-06 -4.07537e-05 -8.07545e-14)
(5.13258e-05 -6.4768e-05 -1.38034e-13)
(7.22991e-05 -6.2951e-05 3.60444e-14)
(8.23506e-05 -5.55058e-05 7.11214e-14)
(8.40033e-05 -4.63567e-05 -1.17393e-13)
(8.16965e-05 -3.80598e-05 -1.01456e-13)
(7.74581e-05 -3.10205e-05 -7.23975e-14)
(7.20819e-05 -2.52209e-05 -8.85835e-14)
(6.63866e-05 -2.06423e-05 -3.26375e-14)
(6.07797e-05 -1.70021e-05 -2.8342e-15)
(5.55395e-05 -1.4376e-05 3.10517e-14)
(5.09603e-05 -1.23421e-05 6.26777e-14)
(4.72717e-05 -1.12859e-05 -2.99156e-14)
(4.58723e-05 -1.04512e-05 -2.12858e-14)
(4.62971e-05 -9.13127e-06 2.58181e-14)
(4.66971e-05 -7.4667e-06 -4.02068e-15)
(4.69332e-05 -5.83578e-06 -9.91166e-16)
(4.66816e-05 -5.26002e-06 -2.05137e-15)
(4.57541e-05 -4.34342e-06 4.71601e-16)
(4.40353e-05 -3.86322e-06 1.09792e-16)
(4.32087e-05 -1.93028e-06 4.97792e-16)
(5.12849e-05 -7.46071e-07 -1.32948e-15)
(7.25594e-05 2.26435e-06 -2.52114e-15)
(6.85856e-05 3.04246e-06 -4.07225e-15)
(6.72898e-05 6.75864e-07 -5.36087e-15)
(7.59871e-05 -1.5089e-06 -2.34868e-15)
(0.000274598 1.12782e-05 1.2809e-14)
(0.000343558 -0.000167539 -3.3824e-15)
(0.00190218 -0.00152121 -5.8347e-14)
(0.000142917 -0.00042181 -3.87951e-15)
(0.000112741 -0.00045402 2.20513e-15)
(7.36473e-05 -0.000454119 -2.0451e-17)
(9.79533e-06 -0.000447008 -7.55924e-15)
(-3.55902e-05 -0.000430376 9.99728e-15)
(-7.2615e-05 -0.00041904 6.71981e-14)
(-0.000115357 -0.000406356 8.02704e-14)
(-0.000149142 -0.000384569 2.64619e-14)
(-0.000177602 -0.000358104 -8.61517e-14)
(-0.00020001 -0.000323551 -4.18874e-14)
(-0.00021558 -0.000288075 -2.56348e-13)
(-0.000218371 -0.000233613 -4.72142e-13)
(-0.000222402 -0.000192917 -2.36367e-14)
(-0.000222087 -0.000164998 -2.0703e-14)
(-0.000250131 -0.000126594 -8.27854e-14)
(-0.000283868 -9.04424e-05 8.65156e-14)
(-0.000262469 -7.71541e-05 3.88938e-13)
(-0.000243575 -0.000104491 -6.87352e-13)
(0.000334187 -0.00036073 -5.72203e-13)
(0.00570389 -0.00103241 -3.58389e-13)
(0.00179022 -0.000409857 2.15282e-13)
(-0.00246684 0.00205012 2.96315e-13)
(0.0210519 0.00970488 -3.85725e-13)
(-0.0548393 -0.00288159 5.93563e-14)
(-0.10398 -0.0168125 -2.10271e-15)
(-0.0393737 -0.00955731 -1.16526e-14)
(0.0127427 -0.00549319 -4.08203e-15)
(0.0377969 -0.00130693 1.23268e-14)
(0.0127636 -0.000655383 -2.74871e-14)
(-3.55123e-06 -0.000337335 -1.02249e-14)
(-0.000787001 5.02293e-05 9.33964e-15)
(0.000344957 0.00012678 -5.55289e-15)
(0.00100484 -0.000100525 -1.1472e-13)
(0.00100252 -0.000167514 -7.19229e-14)
(0.000583159 -3.83961e-05 1.60269e-13)
(-8.59586e-05 0.000375834 2.84536e-14)
(-0.000760854 0.00226016 6.35441e-14)
(-0.0316847 0.0143291 -1.17538e-14)
(-0.892472 0.108719 -3.26024e-14)
(0.000169531 -0.000384206 -1.63936e-14)
(0.0001944 -0.000311112 1.50207e-13)
(0.000206845 -0.000220374 -4.71479e-14)
(0.000203033 -0.000135681 -1.15848e-13)
(0.000177317 -5.31567e-05 8.28568e-14)
(0.00012685 2.42261e-05 6.6934e-14)
(7.61487e-05 7.01338e-05 2.90927e-14)
(1.2876e-05 9.35458e-05 1.54085e-13)
(-2.25762e-05 3.92953e-05 -2.99552e-15)
(-1.33002e-05 -1.44219e-05 -4.39992e-14)
(1.2865e-05 -5.3342e-05 7.29925e-14)
(4.57652e-05 -6.56316e-05 -9.49626e-14)
(6.46978e-05 -6.30769e-05 1.99596e-14)
(7.4919e-05 -5.55292e-05 1.04082e-14)
(7.85227e-05 -4.66574e-05 2.46884e-14)
(7.78311e-05 -3.83906e-05 2.76952e-14)
(7.49101e-05 -3.1124e-05 4.69668e-14)
(7.04344e-05 -2.50696e-05 -1.40527e-14)
(6.53879e-05 -2.02286e-05 3.03486e-15)
(6.01141e-05 -1.66287e-05 -7.01879e-15)
(5.5198e-05 -1.38634e-05 1.82707e-14)
(5.07299e-05 -1.20548e-05 5.3008e-14)
(4.73103e-05 -1.09587e-05 -8.85935e-16)
(4.56849e-05 -1.08254e-05 -1.76477e-14)
(4.58984e-05 -9.78878e-06 -1.49692e-14)
(4.63124e-05 -8.26367e-06 2.14085e-14)
(4.67857e-05 -6.58498e-06 6.15475e-15)
(4.72752e-05 -4.77001e-06 -1.60836e-15)
(4.6672e-05 -2.91129e-06 4.65889e-17)
(4.57499e-05 -1.1906e-06 -1.0615e-16)
(4.80098e-05 -1.73224e-06 -1.99658e-16)
(4.99897e-05 4.63161e-07 -4.30372e-16)
(5.2042e-05 3.55861e-06 2.17608e-15)
(4.59608e-05 5.46483e-06 2.41727e-15)
(3.34813e-05 2.58004e-06 2.74981e-15)
(0.000126652 7.10982e-07 -7.42688e-15)
(0.000101714 -2.88944e-06 7.85727e-16)
(0.000173653 -2.99966e-06 1.33746e-14)
(0.00138448 0.000174345 1.57994e-14)
(0.000101016 -0.000375014 2.1028e-15)
(7.51175e-05 -0.000396835 -1.43488e-15)
(3.42056e-05 -0.000387044 -2.62747e-15)
(-2.42764e-05 -0.000384071 1.35795e-15)
(-6.06073e-05 -0.000369078 5.77425e-14)
(-9.52534e-05 -0.000362611 -6.42719e-14)
(-0.000129916 -0.000352447 -8.81763e-14)
(-0.000158594 -0.000335846 1.60614e-13)
(-0.000184006 -0.000310871 6.56113e-14)
(-0.000205074 -0.000279769 8.88352e-14)
(-0.000219204 -0.000245113 2.04932e-14)
(-0.00022985 -0.000212641 -7.66033e-16)
(-0.000238358 -0.000181739 3.55633e-13)
(-0.000252106 -0.000150701 1.20171e-14)
(-0.000248683 -0.000133128 2.16429e-13)
(-0.000228239 -0.000118168 1.20401e-15)
(-0.000262345 -3.5294e-05 -6.83821e-13)
(-0.000362305 0.000181694 4.11917e-13)
(-0.000933057 0.00160369 9.19859e-13)
(-0.00565756 0.00389243 1.65784e-13)
(-0.00308464 -0.00134332 -2.66416e-14)
(-0.00227674 -0.00795443 -6.79526e-14)
(-0.0392994 -0.00924091 1.64963e-13)
(0.000665942 0.0022577 1.18987e-13)
(0.0558451 0.0169765 -9.77139e-14)
(0.0427664 0.00639671 -2.1843e-14)
(0.0597072 0.00265861 -5.6267e-14)
(0.00945231 0.000400334 3.08582e-14)
(-0.022941 -0.0022935 -2.82457e-14)
(-0.000736233 -0.000736669 -1.56282e-13)
(-0.00127753 0.000674261 -7.8018e-15)
(0.000943805 0.00086734 2.3733e-13)
(0.000952777 0.000367683 3.59836e-14)
(0.00115302 7.5006e-05 1.12191e-13)
(0.000379507 0.000104177 1.33279e-13)
(-0.000631153 0.000402001 2.20492e-14)
(-0.00251071 0.00140805 -8.48639e-14)
(-0.0161342 0.00213188 8.48953e-15)
(-0.112813 0.00973028 1.56887e-14)
(0.000131467 -0.000340154 2.43133e-14)
(0.000152363 -0.000281594 -3.70469e-14)
(0.000167594 -0.000204533 -4.65103e-14)
(0.000168699 -0.000136194 -1.31008e-14)
(0.000153652 -7.01285e-05 1.12871e-14)
(0.000125734 -1.21331e-05 -1.20767e-13)
(9.38782e-05 2.74789e-05 2.34735e-14)
(5.28321e-05 3.62437e-05 -1.49195e-13)
(2.42495e-05 4.55684e-06 -1.24959e-13)
(2.00252e-05 -2.72592e-05 -1.15753e-13)
(3.30552e-05 -5.00736e-05 1.18262e-13)
(5.12301e-05 -5.82529e-05 1.03766e-13)
(6.46842e-05 -5.70736e-05 -6.46438e-14)
(7.27506e-05 -5.15042e-05 -1.48448e-13)
(7.60251e-05 -4.44373e-05 4.05276e-14)
(7.57201e-05 -3.71493e-05 6.98167e-14)
(7.32721e-05 -3.04869e-05 -1.89662e-14)
(6.9332e-05 -2.47677e-05 -9.26359e-14)
(6.46711e-05 -2.01178e-05 -2.68353e-14)
(5.97226e-05 -1.65217e-05 2.52983e-15)
(5.49843e-05 -1.39675e-05 -2.07011e-14)
(5.06166e-05 -1.23933e-05 -4.13921e-14)
(4.71799e-05 -1.18441e-05 9.12869e-15)
(4.53942e-05 -1.17313e-05 -6.39723e-16)
(4.5309e-05 -1.07013e-05 2.87546e-15)
(4.55281e-05 -9.1604e-06 -9.68785e-15)
(4.56068e-05 -7.60122e-06 -1.78535e-14)
(4.57908e-05 -6.31746e-06 3.97404e-15)
(4.54457e-05 -4.93678e-06 7.53498e-16)
(4.46281e-05 -4.59262e-06 -1.71283e-16)
(4.51754e-05 -2.75235e-06 1.19202e-16)
(4.92868e-05 -2.7289e-06 4.7116e-16)
(6.03664e-05 -1.45988e-06 -7.56727e-16)
(5.57639e-05 4.57564e-06 -1.43221e-15)
(6.21757e-05 -1.1785e-05 6.41951e-16)
(0.000132884 -7.61795e-05 -1.15908e-15)
(0.000277335 -2.78558e-05 8.75204e-15)
(0.000201534 -1.57955e-05 8.12861e-15)
(0.00106823 0.000194146 -8.31855e-14)
(7.96687e-05 -0.00032961 1.05194e-14)
(5.35024e-05 -0.000351238 2.79072e-15)
(1.7754e-05 -0.00034285 1.07524e-15)
(-3.39792e-05 -0.00034511 -6.51955e-15)
(-6.48114e-05 -0.000334093 1.0342e-15)
(-9.62951e-05 -0.000331668 -1.45222e-14)
(-0.000127062 -0.00032643 1.04186e-13)
(-0.000152986 -0.000310377 3.08579e-14)
(-0.000175656 -0.000288333 -2.52686e-13)
(-0.000194473 -0.000261046 8.50905e-14)
(-0.000206629 -0.000229995 2.72085e-13)
(-0.000216414 -0.000200779 3.41576e-13)
(-0.000224089 -0.000172939 7.8785e-14)
(-0.000231831 -0.000148055 -3.85239e-13)
(-0.000236258 -0.000129144 -9.7881e-14)
(-0.000284415 -7.88658e-05 -9.90241e-14)
(-0.000326779 -5.04793e-05 -1.7903e-13)
(-0.000359849 -3.1021e-05 -3.62121e-13)
(-0.000561873 -0.000235702 -6.29136e-13)
(-0.000595296 -0.0020586 1.5905e-13)
(-0.000673015 -0.00143464 -1.26899e-13)
(0.0031609 0.00426964 -1.78373e-13)
(0.0120756 0.00663804 2.33592e-15)
(0.00783538 0.0039451 -2.523e-13)
(-0.00323317 -0.00276125 -4.63963e-14)
(-0.00115788 -0.00810801 4.39722e-14)
(-0.0627723 0.00144707 5.28102e-14)
(0.0236734 -2.45088e-05 -2.40924e-14)
(0.0768852 -0.00317171 3.3486e-14)
(-0.0274762 0.00674797 6.48575e-14)
(-0.00405695 -0.0013525 -5.63715e-14)
(-0.0165463 0.00152582 1.21428e-14)
(-0.00559087 0.000193709 1.77483e-13)
(-0.000329891 0.000310609 8.07669e-14)
(0.000266383 0.000297055 -3.26427e-14)
(-0.000750779 0.000521063 -1.08668e-13)
(-0.00169112 0.00093578 -2.72139e-14)
(-0.00656122 -6.73332e-05 -1.97177e-14)
(-0.0330646 0.00896045 5.50556e-14)
(0.0001073 -0.000299876 -1.74209e-15)
(0.000128392 -0.000253801 -3.89804e-14)
(0.00014257 -0.000190157 -3.45706e-14)
(0.000145009 -0.00013425 -2.81678e-14)
(0.000135294 -8.05186e-05 1.1397e-13)
(0.000117776 -3.41928e-05 2.05741e-13)
(9.37523e-05 -1.22455e-07 1.17493e-14)
(6.37755e-05 5.7899e-06 1.41483e-13)
(4.73751e-05 -1.51386e-05 5.36109e-16)
(4.10634e-05 -3.39882e-05 -3.11182e-14)
(4.68992e-05 -4.8638e-05 -9.01097e-14)
(5.62992e-05 -5.44972e-05 -2.98119e-14)
(6.49658e-05 -5.39719e-05 -1.54224e-14)
(7.08242e-05 -4.95243e-05 7.44051e-14)
(7.34913e-05 -4.33295e-05 -3.90149e-14)
(7.33698e-05 -3.66526e-05 -1.3229e-13)
(7.14106e-05 -3.03064e-05 -1.6807e-14)
(6.80048e-05 -2.46921e-05 8.63532e-14)
(6.38252e-05 -2.01513e-05 -2.61242e-15)
(5.92664e-05 -1.66056e-05 -2.43509e-14)
(5.48192e-05 -1.41005e-05 -6.56388e-14)
(5.06753e-05 -1.2471e-05 2.67982e-14)
(4.73547e-05 -1.18389e-05 3.52151e-14)
(4.55059e-05 -1.16361e-05 -6.07082e-15)
(4.51967e-05 -1.07421e-05 -2.76234e-15)
(4.53518e-05 -9.30785e-06 6.02179e-15)
(4.53979e-05 -7.81238e-06 8.65956e-15)
(4.55183e-05 -6.41745e-06 -2.03035e-15)
(4.51656e-05 -4.88799e-06 -7.46292e-16)
(4.45286e-05 -3.9031e-06 1.85033e-16)
(4.51e-05 -2.72609e-06 -1.01403e-16)
(5.09619e-05 5.80733e-06 -1.65275e-16)
(6.51778e-05 2.61988e-05 6.50624e-17)
(2.18472e-05 -0.000110816 -2.61822e-16)
(-0.000655503 -0.00228313 -2.03307e-15)
(-0.000400355 -0.00182159 1.47242e-14)
(1.68021e-05 -0.000253197 -2.21199e-14)
(0.000298615 0.00068894 -5.54582e-14)
(0.000960894 0.000149132 -3.03442e-14)
(6.03895e-05 -0.000290733 -8.92766e-15)
(3.55494e-05 -0.00030784 4.80219e-15)
(2.36431e-06 -0.000302755 4.19011e-15)
(-4.30779e-05 -0.000307438 -1.73961e-14)
(-7.12687e-05 -0.000300141 -1.48378e-14)
(-9.89603e-05 -0.000300081 3.52274e-14)
(-0.000128289 -0.000295128 -1.29234e-14)
(-0.000152124 -0.000279339 1.36912e-14)
(-0.000173098 -0.000258912 -9.40593e-14)
(-0.000190354 -0.000233253 -2.87265e-13)
(-0.000201928 -0.000204429 -1.03063e-14)
(-0.000211679 -0.000176689 -1.25279e-13)
(-0.000219584 -0.000149561 -8.11744e-14)
(-0.000227433 -0.000123863 -1.43819e-14)
(-0.000238694 -9.70804e-05 -3.30097e-13)
(-0.000244344 -7.66874e-05 2.99776e-13)
(-0.000255993 -5.55236e-05 1.71946e-13)
(-0.000272347 -1.73395e-05 -3.86695e-13)
(-0.000381683 -8.61878e-06 1.22222e-13)
(-0.000444654 7.94315e-05 -2.00976e-13)
(-0.000428919 0.000212879 -1.39519e-13)
(-0.000657117 -7.00403e-05 2.51198e-13)
(0.000472328 0.00092097 6.09915e-15)
(-0.00384066 0.00133529 2.21506e-13)
(-0.00137834 0.000878803 1.01107e-13)
(-0.0048714 -0.00394399 -2.0467e-14)
(0.0351904 -0.0129547 6.24796e-15)
(-0.014218 -0.00254757 2.47295e-14)
(-0.0335216 0.00154911 -3.01111e-14)
(0.00465001 0.00336391 -5.40633e-14)
(0.0124395 0.00493685 2.1832e-14)
(-0.0100479 -0.00177846 -5.2769e-14)
(-0.00558403 0.000130138 -4.00107e-14)
(-0.00503292 0.000286186 -1.49119e-13)
(-0.00180224 0.000389222 -2.39497e-13)
(-0.00193763 0.000566114 4.13592e-14)
(-0.00158077 0.000768842 -1.05424e-14)
(-0.00380482 -0.000489321 -9.33284e-15)
(-0.0195482 0.00918098 -1.94184e-14)
(8.25829e-05 -0.000264648 2.00439e-14)
(0.000102701 -0.000227351 3.82118e-14)
(0.000116231 -0.000175719 -5.04889e-14)
(0.000120925 -0.000129249 -1.94963e-14)
(0.000115991 -8.54565e-05 7.47186e-14)
(0.000105386 -4.70586e-05 -1.50772e-13)
(8.95645e-05 -2.10634e-05 -9.96701e-14)
(6.97214e-05 -1.69479e-05 2.05194e-13)
(5.85021e-05 -2.85616e-05 1.92425e-13)
(5.35801e-05 -3.91283e-05 -8.41548e-15)
(5.58996e-05 -4.75016e-05 -5.58726e-14)
(6.08422e-05 -5.08012e-05 -3.47737e-14)
(6.60644e-05 -4.99387e-05 1.17142e-13)
(6.99815e-05 -4.61829e-05 -5.81125e-14)
(7.18279e-05 -4.09247e-05 -1.3047e-14)
(7.15388e-05 -3.50909e-05 9.83205e-14)
(6.97808e-05 -2.95597e-05 -4.44031e-14)
(6.66944e-05 -2.44923e-05 4.07386e-14)
(6.29115e-05 -2.03038e-05 2.43684e-14)
(5.86719e-05 -1.69718e-05 4.24637e-15)
(5.44826e-05 -1.46634e-05 6.83438e-14)
(5.05382e-05 -1.31031e-05 -2.5625e-14)
(4.73146e-05 -1.2482e-05 -4.77241e-14)
(4.53719e-05 -1.21597e-05 -7.62214e-15)
(4.48763e-05 -1.12874e-05 1.90808e-14)
(4.49449e-05 -9.75701e-06 6.49147e-16)
(4.50188e-05 -8.04986e-06 9.25366e-15)
(4.51659e-05 -6.42439e-06 -1.7358e-15)
(4.48985e-05 -4.80391e-06 1.12328e-16)
(4.42631e-05 -4.27495e-06 -2.76174e-16)
(4.44125e-05 -4.98409e-06 -5.07184e-16)
(4.80938e-05 -1.2365e-05 4.14044e-17)
(5.41587e-05 -2.8927e-05 3.84645e-17)
(3.26749e-05 0.000238208 4.79939e-16)
(0.000260724 0.00339549 -1.39367e-15)
(0.000182987 0.00262188 5.36373e-15)
(0.000237002 0.000295232 1.7468e-15)
(0.00030254 -0.000725156 -1.14588e-14)
(0.0007878 0.000261751 4.31189e-14)
(4.44834e-05 -0.000257558 2.18002e-15)
(2.2704e-05 -0.000271708 -4.30827e-16)
(-7.074e-06 -0.000269236 2.42883e-15)
(-4.67078e-05 -0.00027746 -3.35115e-15)
(-7.22391e-05 -0.000273326 1.12899e-14)
(-9.78193e-05 -0.000274107 -1.49608e-15)
(-0.000125563 -0.00026986 -4.20214e-14)
(-0.00014788 -0.000254836 7.85323e-14)
(-0.000167283 -0.000236047 1.69725e-13)
(-0.000183094 -0.000212418 -1.05787e-13)
(-0.000193623 -0.000186087 -1.08078e-13)
(-0.000202308 -0.000160608 6.48635e-14)
(-0.000209713 -0.000135502 -1.49792e-13)
(-0.000216278 -0.00011126 -2.85001e-14)
(-0.000224354 -8.69469e-05 -4.61248e-14)
(-0.000231704 -6.3848e-05 1.98241e-14)
(-0.000257542 -2.12867e-05 4.02798e-14)
(-0.00028774 1.97212e-05 4.46983e-13)
(-0.000351324 2.23215e-05 3.53054e-13)
(-0.0004914 9.30587e-05 -1.57619e-13)
(-0.0005528 0.000473465 2.26014e-13)
(-0.000436278 0.000981162 1.87448e-14)
(-0.000674594 0.00176785 -5.70832e-14)
(0.0008227 0.00315701 -1.18267e-13)
(0.00239206 0.00176287 9.30104e-15)
(0.00301416 -0.00196306 3.23152e-14)
(-0.000187215 -0.00491374 4.00187e-14)
(-0.0128548 -0.00267719 -3.78615e-14)
(-0.00680069 0.0007339 9.83878e-15)
(0.029418 -0.0013607 7.59894e-14)
(-0.0136772 0.00366891 -2.97425e-14)
(0.00697989 -0.000567982 -1.67238e-13)
(-0.00185057 -0.000294004 -8.93906e-14)
(-0.00134129 -0.000267022 -6.14211e-14)
(-0.000927306 4.48169e-05 6.35079e-14)
(-0.00113642 -8.61624e-05 5.72922e-14)
(-0.00161069 0.000799805 5.8127e-14)
(-0.0037167 -0.000424472 6.38961e-14)
(-0.0163728 0.00965596 -1.02334e-15)
(6.48185e-05 -0.000235069 -9.13892e-15)
(8.25786e-05 -0.00020432 -1.05373e-14)
(9.55441e-05 -0.000161903 2.56521e-15)
(0.000101392 -0.000122793 3.37493e-14)
(9.97935e-05 -8.65479e-05 2.23685e-14)
(9.42106e-05 -5.5267e-05 -1.94163e-13)
(8.39627e-05 -3.56323e-05 -1.16773e-13)
(7.156e-05 -3.19143e-05 -1.8451e-13)
(6.42463e-05 -3.73798e-05 2.24459e-14)
(6.07471e-05 -4.26721e-05 2.06536e-14)
(6.14698e-05 -4.67319e-05 -5.19206e-14)
(6.4053e-05 -4.80052e-05 4.96175e-15)
(6.70061e-05 -4.66191e-05 -2.45833e-14)
(6.93956e-05 -4.32658e-05 -4.58441e-14)
(7.04394e-05 -3.8781e-05 -1.42141e-13)
(6.99272e-05 -3.37039e-05 -1.19727e-14)
(6.82566e-05 -2.87624e-05 8.63151e-14)
(6.54519e-05 -2.41545e-05 -1.33704e-14)
(6.19957e-05 -2.02369e-05 1.66973e-14)
(5.80869e-05 -1.70571e-05 -3.05232e-14)
(5.41692e-05 -1.47446e-05 -4.6858e-14)
(5.04266e-05 -1.32106e-05 -4.23001e-15)
(4.73267e-05 -1.24559e-05 1.76736e-14)
(4.53129e-05 -1.19835e-05 1.90788e-14)
(4.46456e-05 -1.10926e-05 -5.85356e-16)
(4.46134e-05 -9.68635e-06 -1.00548e-14)
(4.46843e-05 -7.98343e-06 -1.69473e-14)
(4.4843e-05 -6.39361e-06 3.28143e-15)
(4.46508e-05 -4.74346e-06 -1.9298e-16)
(4.40422e-05 -3.97041e-06 3.04069e-16)
(4.39908e-05 -2.79399e-06 4.82955e-16)
(4.76054e-05 1.14436e-06 -4.13952e-17)
(5.75764e-05 7.79648e-06 2.0493e-16)
(8.18176e-05 -5.86192e-05 -9.88226e-16)
(0.000431023 -0.00111719 3.27281e-16)
(0.000418336 -0.000886153 -1.44601e-14)
(0.000160709 3.29944e-05 2.26534e-14)
(9.55977e-05 0.000185192 5.78701e-14)
(0.00114135 -0.000498128 -2.15255e-14)
(3.02563e-05 -0.000228136 9.78901e-16)
(1.10507e-05 -0.00024157 -2.75262e-16)
(-1.44055e-05 -0.0002408 6.46656e-16)
(-4.97238e-05 -0.000250825 3.38155e-15)
(-7.28525e-05 -0.000248374 -9.01466e-15)
(-9.6872e-05 -0.000249616 -1.90844e-14)
(-0.000123494 -0.000244778 4.55213e-14)
(-0.000144571 -0.000230604 -8.91914e-15)
(-0.00016294 -0.000212758 5.05045e-14)
(-0.00017776 -0.000190459 1.03017e-13)
(-0.000187593 -0.000165682 2.22672e-14)
(-0.000195796 -0.000141394 3.44753e-14)
(-0.000202733 -0.000117081 2.16523e-13)
(-0.000208672 -9.29485e-05 3.67193e-13)
(-0.000215554 -6.84866e-05 3.3283e-13)
(-0.000224149 -4.10295e-05 -5.40281e-15)
(-0.000232623 -1.50525e-05 4.05362e-13)
(-0.000252603 1.42081e-05 2.67815e-14)
(-0.000298059 4.13213e-05 -1.19161e-13)
(-0.000371331 0.000128546 1.57428e-13)
(-0.000385739 0.000342071 -2.60852e-13)
(-0.000382515 0.000616437 1.10134e-13)
(-1.61e-05 0.00123646 1.10509e-13)
(0.00105961 0.00199438 4.48836e-14)
(0.00238705 0.00130609 1.20483e-13)
(0.00253887 -0.00107557 -4.94954e-14)
(0.000260337 -0.00287267 -4.27899e-14)
(-0.00173122 -0.00257402 6.3179e-15)
(-0.00286007 -0.000400495 2.63844e-14)
(-0.00221975 0.0016263 -7.03062e-14)
(0.00156795 0.00142778 -6.87095e-14)
(0.00278405 5.07766e-05 1.40186e-13)
(0.000647048 -0.000364733 3.15555e-14)
(9.93814e-05 -0.000395825 -6.0344e-14)
(0.0023482 -0.000528712 -4.98629e-16)
(0.0238004 -0.00740325 -1.43331e-13)
(-0.0072942 0.00312614 -5.09417e-14)
(-0.00349412 -0.000954033 -1.97427e-14)
(-0.0126822 0.00889516 -3.18946e-14)
(4.98318e-05 -0.000208428 -6.63897e-15)
(6.57733e-05 -0.000183617 -1.26862e-14)
(7.87208e-05 -0.00014813 6.04155e-15)
(8.5441e-05 -0.000115306 8.31815e-14)
(8.68031e-05 -8.50048e-05 3.54648e-14)
(8.34459e-05 -5.80186e-05 7.07781e-16)
(7.65575e-05 -4.32975e-05 1.82773e-13)
(7.04456e-05 -4.14502e-05 -8.38916e-14)
(6.63526e-05 -4.30622e-05 -1.35035e-13)
(6.43756e-05 -4.49758e-05 4.91428e-14)
(6.46352e-05 -4.60474e-05 9.80662e-14)
(6.59889e-05 -4.57267e-05 -2.41897e-14)
(6.76021e-05 -4.3732e-05 6.85659e-14)
(6.89138e-05 -4.05356e-05 9.30817e-15)
(6.93213e-05 -3.64972e-05 3.53118e-14)
(6.85604e-05 -3.20252e-05 1.24892e-14)
(6.69259e-05 -2.759e-05 -3.93439e-14)
(6.43158e-05 -2.34469e-05 3.24361e-14)
(6.11267e-05 -1.98299e-05 -2.44821e-14)
(5.75107e-05 -1.68688e-05 4.50141e-15)
(5.38497e-05 -1.46092e-05 6.51072e-14)
(5.03077e-05 -1.31015e-05 -2.25276e-14)
(4.73123e-05 -1.22572e-05 -3.04272e-14)
(4.5245e-05 -1.16951e-05 6.58053e-15)
(4.44034e-05 -1.08005e-05 -1.63339e-15)
(4.42621e-05 -9.46949e-06 2.98723e-15)
(4.42937e-05 -7.80562e-06 8.56719e-15)
(4.44797e-05 -6.10048e-06 -1.47177e-15)
(4.43657e-05 -4.41722e-06 -1.4086e-16)
(4.38557e-05 -3.52242e-06 1.95108e-16)
(4.38671e-05 -2.77579e-06 1.43997e-15)
(4.81594e-05 -1.61791e-06 1.80598e-16)
(5.89815e-05 9.89745e-07 -9.8722e-16)
(5.73242e-05 9.05255e-06 -1.77737e-16)
(5.54209e-05 3.23019e-05 -4.28344e-16)
(0.000124352 0.000102487 4.325e-15)
(0.000112021 1.03105e-05 -8.98039e-15)
(0.000141675 -2.92924e-05 -1.42481e-14)
(0.000546204 0.000398586 -5.28113e-14)
(2.19462e-05 -0.000202352 2.71825e-15)
(4.15188e-06 -0.000215887 -3.0507e-15)
(-1.90943e-05 -0.000217338 -6.57237e-17)
(-5.0683e-05 -0.000227233 2.66496e-15)
(-7.21396e-05 -0.000226478 -2.03481e-15)
(-9.4967e-05 -0.000226855 2.5447e-15)
(-0.000120189 -0.000222227 8.73274e-15)
(-0.000140125 -0.000208902 -1.0919e-13)
(-0.000157266 -0.000192168 -1.46973e-14)
(-0.00017125 -0.000171428 1.70477e-13)
(-0.000180301 -0.000148182 -7.2111e-14)
(-0.000187853 -0.000125434 -1.53075e-13)
(-0.000193968 -0.000102302 -2.98876e-13)
(-0.000199061 -7.91194e-05 -2.46504e-13)
(-0.000204537 -5.54028e-05 -1.6944e-13)
(-0.000210343 -2.98545e-05 -6.17305e-14)
(-0.000216293 -3.54699e-06 -2.26996e-13)
(-0.000237109 3.68056e-05 -3.15548e-13)
(-0.000275885 8.54591e-05 -1.3907e-13)
(-0.000326126 0.000191452 3.57507e-13)
(-0.000334636 0.000381768 3.28294e-13)
(-0.000295984 0.000597113 -2.15575e-14)
(-7.04582e-05 0.00100625 -5.04577e-14)
(0.000780694 0.00146403 -1.5941e-13)
(0.00189531 0.000808036 -9.28592e-14)
(0.00190338 -0.0010758 4.27683e-14)
(0.00049858 -0.00241059 3.30657e-14)
(-0.00150517 -0.0019324 3.72104e-15)
(-0.00240988 -0.000289311 -1.98413e-14)
(-0.00108974 0.000792539 7.40332e-14)
(-2.07694e-05 0.000744498 1.54705e-13)
(0.000947579 0.000110214 -1.04797e-14)
(0.000306345 -0.00028572 2.72345e-14)
(-0.000500749 -8.81738e-05 4.73938e-14)
(-0.000471419 0.00207623 -1.85017e-14)
(-0.0134363 0.0022542 1.74088e-13)
(-0.00248113 -0.00136734 7.94543e-14)
(-0.00175288 0.000269503 -6.40064e-14)
(-0.00743406 0.00790761 -1.89423e-14)
(3.83473e-05 -0.000185659 1.65632e-14)
(5.33839e-05 -0.000164783 2.03052e-14)
(6.53388e-05 -0.000135267 8.21889e-15)
(7.24619e-05 -0.000107602 9.76996e-14)
(7.54e-05 -8.20328e-05 -1.73046e-13)
(7.42678e-05 -6.01038e-05 8.97389e-14)
(7.02282e-05 -4.87595e-05 1.5156e-13)
(6.7916e-05 -4.72105e-05 6.62417e-14)
(6.63324e-05 -4.65708e-05 -3.67948e-14)
(6.56686e-05 -4.61133e-05 -3.43623e-14)
(6.60247e-05 -4.52938e-05 2.17044e-14)
(6.68815e-05 -4.37392e-05 3.71884e-14)
(6.77471e-05 -4.12198e-05 -8.99177e-14)
(6.83764e-05 -3.80469e-05 6.45166e-14)
(6.83142e-05 -3.4351e-05 1.64818e-14)
(6.73626e-05 -3.03209e-05 -1.11059e-14)
(6.57162e-05 -2.63899e-05 -5.77501e-14)
(6.32608e-05 -2.26499e-05 -5.77494e-14)
(6.02856e-05 -1.93456e-05 4.89963e-14)
(5.69235e-05 -1.65806e-05 1.42858e-14)
(5.34847e-05 -1.44513e-05 4.90984e-15)
(5.01391e-05 -1.29504e-05 5.15996e-14)
(4.72323e-05 -1.20322e-05 2.09199e-14)
(4.51358e-05 -1.13455e-05 -2.44622e-15)
(4.41542e-05 -1.04775e-05 6.82628e-15)
(4.39046e-05 -9.20078e-06 -4.74812e-15)
(4.38929e-05 -7.62765e-06 -9.33758e-15)
(4.40967e-05 -5.89453e-06 1.37019e-15)
(4.40414e-05 -4.21886e-06 -1.20136e-15)
(4.35962e-05 -3.10793e-06 -4.10691e-16)
(4.35563e-05 -2.24513e-06 -1.06081e-15)
(4.76924e-05 -6.27417e-07 1.15088e-15)
(5.81411e-05 3.39723e-06 2.86156e-15)
(5.49681e-05 1.11355e-05 2.4207e-15)
(4.77576e-05 3.76618e-06 1.38502e-15)
(8.98581e-05 1.43685e-07 -5.26337e-15)
(0.000147679 1.21335e-06 3.20971e-15)
(0.000161068 8.25164e-05 3.60457e-14)
(0.000162193 0.000577578 4.11092e-14)
(1.55595e-05 -0.000181455 7.45405e-16)
(-1.82118e-07 -0.000193153 1.78231e-15)
(-2.16034e-05 -0.0001959 -2.56843e-15)
(-5.01894e-05 -0.000206345 3.64686e-15)
(-7.08071e-05 -0.000205682 -7.1842e-15)
(-9.23743e-05 -0.000205802 1.08663e-14)
(-0.000116255 -0.000201377 -1.31811e-14)
(-0.000135084 -0.000188851 -2.47128e-14)
(-0.000151221 -0.00017323 -3.28609e-14)
(-0.000164353 -0.000153799 -4.65142e-14)
(-0.000172779 -0.000131977 1.86695e-14)
(-0.000179781 -0.000110352 1.77962e-13)
(-0.000185288 -8.81753e-05 2.41113e-13)
(-0.000189517 -6.56764e-05 3.87509e-14)
(-0.000193709 -4.24126e-05 4.91631e-15)
(-0.000197854 -1.7296e-05 1.13683e-14)
(-0.000202431 1.09113e-05 -4.05341e-14)
(-0.000211198 4.23193e-05 1.2842e-13)
(-0.000236559 9.07141e-05 1.17378e-13)
(-0.000260649 0.000182874 -2.70505e-13)
(-0.000249162 0.000334451 -2.75396e-14)
(-0.000187166 0.000511151 5.69529e-14)
(2.91678e-05 0.000797463 -7.35858e-14)
(0.000671739 0.00105179 7.80082e-14)
(0.00146126 0.000497414 1.13751e-15)
(0.00140673 -0.000957403 -1.45165e-14)
(9.67066e-05 -0.0019784 -4.25885e-14)
(-0.0014637 -0.00154944 1.75285e-15)
(-0.00189378 -0.000188094 -4.27384e-17)
(-0.00110645 0.000706443 3.50162e-14)
(-8.18196e-05 0.000581923 1.70216e-14)
(0.000461198 7.51604e-05 -7.45393e-14)
(0.00024569 -0.000260296 -3.4402e-14)
(-0.000405393 -0.000183542 1.72303e-13)
(-0.00149397 0.000370194 2.68267e-14)
(-0.00916156 0.00555503 -1.2764e-13)
(0.00705429 -0.00249503 -4.21441e-14)
(-0.0131699 0.00957264 5.05098e-14)
(-0.0035371 0.00651742 -1.68374e-15)
(3.0478e-05 -0.000166195 3.43912e-15)
(4.37548e-05 -0.000148372 -4.87419e-14)
(5.46214e-05 -0.000123726 2.41588e-14)
(6.16184e-05 -9.99663e-05 2.13205e-14)
(6.53698e-05 -7.8345e-05 4.61673e-14)
(6.63877e-05 -6.11658e-05 -1.54634e-14)
(6.51368e-05 -5.2512e-05 -3.71499e-14)
(6.50216e-05 -5.0347e-05 -3.78738e-15)
(6.51162e-05 -4.83732e-05 -2.62784e-15)
(6.55047e-05 -4.63606e-05 1.39789e-14)
(6.61696e-05 -4.43074e-05 4.0125e-14)
(6.69294e-05 -4.19018e-05 6.60048e-14)
(6.74474e-05 -3.89952e-05 -4.62635e-15)
(6.77218e-05 -3.57475e-05 -1.34747e-13)
(6.735e-05 -3.22751e-05 2.62857e-14)
(6.62833e-05 -2.86233e-05 7.69864e-14)
(6.4631e-05 -2.50891e-05 5.91137e-14)
(6.22805e-05 -2.17197e-05 2.68665e-14)
(5.95012e-05 -1.87253e-05 -2.22931e-14)
(5.63559e-05 -1.61303e-05 -5.94896e-15)
(5.31286e-05 -1.4119e-05 -2.35505e-14)
(4.99544e-05 -1.26324e-05 -4.32073e-14)
(4.71462e-05 -1.16354e-05 1.77986e-14)
(4.50172e-05 -1.08517e-05 1.67718e-14)
(4.39231e-05 -9.9639e-06 2.99204e-15)
(4.35456e-05 -8.74518e-06 1.6989e-14)
(4.34842e-05 -7.21389e-06 5.94044e-15)
(4.36681e-05 -5.50703e-06 -1.00105e-15)
(4.36867e-05 -3.73873e-06 1.12608e-15)
(4.33079e-05 -2.48228e-06 4.59695e-16)
(4.32247e-05 -1.50633e-06 -1.28754e-15)
(4.7247e-05 -1.99703e-07 -1.52275e-15)
(5.76846e-05 2.83232e-06 -7.61907e-16)
(5.4846e-05 9.40019e-06 -4.20773e-16)
(4.62875e-05 8.76575e-06 2.76732e-15)
(9.20757e-05 1.31808e-05 -4.82087e-16)
(0.00014681 2.44068e-05 1.16825e-14)
(0.000181868 5.56938e-05 -1.28356e-14)
(0.000519582 0.000176968 -6.19248e-15)
(1.06354e-05 -0.000162556 3.83315e-15)
(-3.63745e-06 -0.000174307 -1.3807e-15)
(-2.28974e-05 -0.000177335 -2.60868e-15)
(-4.9209e-05 -0.000186791 -3.57704e-15)
(-6.8789e-05 -0.000186701 1.34918e-14)
(-8.92717e-05 -0.000186486 -1.8015e-14)
(-0.000111834 -0.000182235 -5.31756e-15)
(-0.000129557 -0.000170631 3.49407e-14)
(-0.000144646 -0.000156114 1.94607e-14)
(-0.000156926 -0.000137952 3.56098e-14)
(-0.000164746 -0.000117552 8.00849e-14)
(-0.000171155 -9.71006e-05 6.46421e-14)
(-0.000176002 -7.59528e-05 -1.52415e-13)
(-0.000179312 -5.43739e-05 -2.45574e-13)
(-0.000182403 -3.18393e-05 4.21371e-14)
(-0.000184705 -7.52078e-06 3.1238e-13)
(-0.000186362 1.89895e-05 6.40585e-14)
(-0.000190088 5.11306e-05 -1.77644e-13)
(-0.000206932 0.000103558 -3.3632e-14)
(-0.000216473 0.000190198 3.07008e-14)
(-0.000193731 0.000315469 -6.9081e-14)
(-0.000118327 0.000456779 -8.93602e-14)
(8.18036e-05 0.000656555 1.02186e-14)
(0.000572734 0.00078618 6.91388e-14)
(0.00115094 0.000309048 6.00082e-14)
(0.00109343 -0.000833074 -3.41399e-15)
(5.43296e-05 -0.0016664 3.58791e-14)
(-0.00117977 -0.00132215 6.43369e-15)
(-0.00144697 -0.000172052 6.16362e-14)
(-0.000738425 0.000577009 -4.5863e-14)
(2.12027e-05 0.00047974 -1.60004e-13)
(0.000315886 6.19903e-05 -5.10115e-14)
(0.000164528 -0.000221305 2.84612e-14)
(-0.000165261 -0.00018775 1.54502e-14)
(-0.000537561 5.53799e-05 -4.28702e-15)
(0.000385445 -0.000446895 5.12065e-15)
(-0.000948433 -0.000464953 1.82075e-14)
(-0.00188091 0.000705181 4.48233e-15)
(0.000790276 0.00336544 2.44301e-14)
(2.43111e-05 -0.00014916 -8.58974e-15)
(3.58708e-05 -0.000134425 -7.71766e-15)
(4.59247e-05 -0.000113236 -1.34545e-14)
(5.27996e-05 -9.27895e-05 -1.72125e-14)
(5.73208e-05 -7.47311e-05 2.98368e-14)
(5.9626e-05 -6.12194e-05 -4.30608e-14)