/*--------------------------------*- C++ -*----------------------------------*\
| =========                 |                                                 |
| \\      /  F ield         | OpenFOAM: The Open Source CFD Toolbox           |
|  \\    /   O peration     | Version:  2206                                  |
|   \\  /    A nd           | Website:  www.openfoam.com                      |
|    \\/     M anipulation  |                                                 |
\*---------------------------------------------------------------------------*/
FoamFile
{
    version     2.0;
    format      ascii;
    arch        "LSB;label=32;scalar=64";
    class       volScalarField;
    location    "500";
    object      nuTilda;
}
// * * * * * * * * * * * * * * * * * * * * * * * * * * * * * * * * * * * * * //

dimensions      [0 2 -1 0 0 0 0];

internalField   nonuniform List<scalar> 
10720
(
6.29092e-05
6.61137e-05
7.02153e-05
7.53178e-05
8.16866e-05
8.97462e-05
0.000100161
0.000113483
0.000130973
0.000154081
0.00018512
0.000227459
0.000285633
0.000367523
0.000486575
0.000664671
0.000946283
0.00139545
0.00221746
0.00358946
0.00690164
0.0127115
0.0339108
0.0760454
0.0937417
0.0946748
0.0957137
0.0992389
0.10275
0.104485
0.104461
0.103212
0.100844
0.0974132
0.0927939
0.0869126
0.0784499
0.0683195
0.0332564
6.00005e-05
5.73604e-05
5.46052e-05
5.19066e-05
4.91579e-05
4.63757e-05
4.36718e-05
4.15912e-05
4.34422e-05
4.72961e-05
5.29035e-05
6.05937e-05
7.10608e-05
8.55651e-05
0.000105909
0.000135074
0.00017782
0.000242227
0.000342409
0.00050322
0.000773851
0.00124219
0.00211765
0.00376992
0.0073281
0.0147229
0.0324777
0.0663218
0.0934699
0.105026
0.108434
0.109375
0.109471
0.108975
0.107974
0.106577
0.104431
0.101996
0.0924608
3.8071e-05
3.78508e-05
3.76496e-05
3.74809e-05
3.72852e-05
3.71033e-05
3.69672e-05
3.68471e-05
3.67951e-05
3.68408e-05
3.69025e-05
3.75059e-05
3.96453e-05
4.42922e-05
5.39072e-05
7.20387e-05
0.000107841
0.000173884
0.000318926
0.000589936
0.00131785
0.00282034
0.0070641
0.0204241
0.0394834
0.0633234
0.0925895
0.123715
0.148726
0.162668
0.167957
0.168779
0.167195
0.163848
0.159337
0.153837
0.148527
0.139508
0.139918
3.8244e-05
3.84755e-05
3.86703e-05
3.89311e-05
3.91945e-05
3.9457e-05
3.97066e-05
3.99145e-05
3.97971e-05
3.95291e-05
3.91564e-05
3.86932e-05
3.81511e-05
3.75296e-05
3.67953e-05
3.59241e-05
3.48274e-05
3.34377e-05
3.15607e-05
2.8973e-05
2.51729e-05
1.98026e-05
1.18098e-05
4.78889e-06
7.59904e-06
0.000115493
0.000541169
0.00415677
0.0141155
0.0287196
0.0437273
0.0550627
0.0618256
0.0656075
0.0680053
0.0699956
0.0717271
0.0752991
0.0784603
4.03655e-05
4.03971e-05
4.04297e-05
4.04648e-05
4.05077e-05
4.05556e-05
4.06102e-05
4.06739e-05
4.07487e-05
4.0836e-05
4.09392e-05
4.10652e-05
4.12038e-05
4.14545e-05
4.1458e-05
4.07837e-05
3.76625e-05
3.54421e-05
1.72678e-05
0.000118314
0.000268671
0.000204781
0.000336299
0.000991498
0.00325419
0.00758546
0.0155765
0.0309206
0.0573049
0.0937349
0.132764
0.164475
0.184893
0.196739
0.203437
0.206321
0.207571
0.201483
0.210277
4.03413e-05
4.03065e-05
4.02799e-05
4.02404e-05
4.02063e-05
4.01696e-05
4.01369e-05
4.0111e-05
4.01198e-05
4.01475e-05
4.01836e-05
4.02277e-05
4.02815e-05
4.03416e-05
4.0409e-05
4.04833e-05
4.05673e-05
4.06631e-05
4.0777e-05
4.09146e-05
4.10897e-05
4.13121e-05
4.16237e-05
4.19506e-05
4.23858e-05
4.19223e-05
4.20738e-05
3.13479e-05
0.000107678
0.000790913
0.00301746
0.00754193
0.0142528
0.022436
0.0311572
0.0396009
0.0470007
0.0536734
0.0631671
4.00344e-05
4.00299e-05
4.00288e-05
4.00295e-05
4.00312e-05
4.00361e-05
4.00452e-05
4.00577e-05
4.00763e-05
4.01015e-05
4.01347e-05
4.0178e-05
4.02343e-05
4.03057e-05
4.0397e-05
4.05093e-05
4.02865e-05
3.96541e-05
3.60411e-05
2.55699e-05
7.94576e-06
4.31002e-05
6.77454e-05
0.000203535
0.000679948
0.00163284
0.00052057
0.00138871
0.00416579
0.0134313
0.0355331
0.0726992
0.118781
0.161302
0.193202
0.215344
0.23194
0.239145
0.255242
4.00356e-05
4.004e-05
4.00458e-05
4.00498e-05
4.00569e-05
4.00606e-05
4.00631e-05
4.00648e-05
4.00608e-05
4.00558e-05
4.00494e-05
4.00425e-05
4.0036e-05
4.00297e-05
4.00235e-05
4.0017e-05
4.00102e-05
4.00028e-05
3.99934e-05
3.99839e-05
3.99739e-05
3.99632e-05
3.99506e-05
3.99389e-05
3.99262e-05
3.99306e-05
3.9917e-05
4.00278e-05
3.98715e-05
3.97851e-05
3.83243e-05
3.60446e-05
0.000233111
0.00104666
0.00304153
0.00688875
0.0130929
0.0218338
0.0392171
4.00808e-05
4.00819e-05
4.00824e-05
4.0084e-05
4.00869e-05
4.00905e-05
4.00955e-05
4.01021e-05
4.01108e-05
4.01222e-05
4.01371e-05
4.01566e-05
4.01822e-05
4.0215e-05
4.02596e-05
4.03101e-05
4.03992e-05
4.04431e-05
4.08722e-05
4.08423e-05
3.41785e-05
1.41321e-05
7.10167e-06
3.14219e-06
0
0
0.000111445
0.000301761
0.000934675
0.000503846
0.00159078
0.00794621
0.0295322
0.0706701
0.12409
0.175034
0.217166
0.248039
0.278266
4.00809e-05
4.00784e-05
4.00797e-05
4.00777e-05
4.00793e-05
4.00771e-05
4.00732e-05
4.00697e-05
4.00677e-05
4.00673e-05
4.00672e-05
4.00671e-05
4.00677e-05
4.00687e-05
4.00705e-05
4.00728e-05
4.00756e-05
4.00791e-05
4.00831e-05
4.00877e-05
4.00928e-05
4.00984e-05
4.01048e-05
4.01118e-05
4.01209e-05
4.01288e-05
4.01533e-05
4.01157e-05
4.03775e-05
3.92931e-05
4.43766e-05
2.15032e-05
6.2751e-05
0.000253299
9.30208e-05
0.000313401
0.00104199
0.00174144
0.0136979
4.00695e-05
4.00691e-05
4.00696e-05
4.00701e-05
4.00703e-05
4.0071e-05
4.00721e-05
4.00736e-05
4.00758e-05
4.0079e-05
4.00832e-05
4.00892e-05
4.00973e-05
4.01082e-05
4.01233e-05
4.01429e-05
4.01727e-05
4.01956e-05
4.02833e-05
4.04939e-05
4.06703e-05
3.95277e-05
3.30268e-05
1.62085e-05
7.63617e-06
5.32575e-06
2.59732e-06
0
0
0.000111677
0.000356945
0.00181339
0.000366148
0.00871992
0.0380489
0.0932635
0.160389
0.223983
0.278314
4.00686e-05
4.00673e-05
4.0069e-05
4.00686e-05
4.00718e-05
4.00713e-05
4.00687e-05
4.00665e-05
4.00647e-05
4.00636e-05
4.00628e-05
4.00619e-05
4.00614e-05
4.00611e-05
4.00611e-05
4.00611e-05
4.00614e-05
4.00617e-05
4.00622e-05
4.00627e-05
4.00631e-05
4.00633e-05
4.00635e-05
4.00628e-05
4.00627e-05
4.00633e-05
4.0064e-05
4.00674e-05
4.00666e-05
4.00832e-05
4.00469e-05
4.02e-05
3.89103e-05
3.61287e-05
3.005e-05
7.7829e-05
0.000247003
0.000455283
0.00238377
4.00699e-05
4.00703e-05
4.00706e-05
4.00707e-05
4.00709e-05
4.00711e-05
4.00714e-05
4.00721e-05
4.0073e-05
4.00743e-05
4.00762e-05
4.00789e-05
4.00827e-05
4.0088e-05
4.00954e-05
4.01057e-05
4.01195e-05
4.01354e-05
4.01512e-05
4.01809e-05
4.03551e-05
4.05296e-05
4.08042e-05
3.95495e-05
3.47796e-05
2.67959e-05
1.286e-05
7.52615e-06
5.92832e-06
2.04059e-06
0
0
8.35003e-05
0.00204925
0.00166821
0.0217099
0.0781924
0.166171
0.252292
4.00691e-05
4.00671e-05
4.00678e-05
4.00672e-05
4.00703e-05
4.00702e-05
4.0068e-05
4.00658e-05
4.00642e-05
4.00632e-05
4.00626e-05
4.00622e-05
4.0062e-05
4.00621e-05
4.0062e-05
4.0062e-05
4.00623e-05
4.00628e-05
4.00634e-05
4.00642e-05
4.00651e-05
4.00662e-05
4.00674e-05
4.00689e-05
4.00707e-05
4.00731e-05
4.00762e-05
4.00801e-05
4.00849e-05
4.0091e-05
4.0099e-05
4.01174e-05
4.02456e-05
3.94402e-05
3.38304e-05
1.83647e-05
7.688e-06
1.58825e-06
9.10521e-05
4.00691e-05
4.00694e-05
4.00699e-05
4.00699e-05
4.00696e-05
4.00693e-05
4.0069e-05
4.00687e-05
4.00686e-05
4.00687e-05
4.00688e-05
4.00692e-05
4.00699e-05
4.0071e-05
4.00727e-05
4.00752e-05
4.00789e-05
4.00838e-05
4.0088e-05
4.00916e-05
4.01041e-05
4.01273e-05
4.02622e-05
4.08011e-05
4.12322e-05
4.07754e-05
3.88357e-05
3.42703e-05
2.87301e-05
9.75783e-06
7.28878e-06
1.57924e-06
0
0
0.000385927
0.00541411
0.0161375
0.0904156
0.200015
4.0068e-05
4.00659e-05
4.00659e-05
4.00652e-05
4.00682e-05
4.00684e-05
4.00668e-05
4.00648e-05
4.00633e-05
4.00625e-05
4.00619e-05
4.00616e-05
4.00615e-05
4.00616e-05
4.00618e-05
4.0062e-05
4.00621e-05
4.00621e-05
4.00623e-05
4.00625e-05
4.00627e-05
4.0063e-05
4.00633e-05
4.00636e-05
4.00638e-05
4.00641e-05
4.00645e-05
4.0065e-05
4.00655e-05
4.00657e-05
4.00667e-05
4.00622e-05
4.00828e-05
3.99989e-05
4.02334e-05
3.79615e-05
3.26099e-05
8.9805e-06
2.17177e-05
4.0069e-05
4.00693e-05
4.00695e-05
4.00692e-05
4.00688e-05
4.00683e-05
4.00679e-05
4.00677e-05
4.00674e-05
4.00673e-05
4.00674e-05
4.00676e-05
4.0068e-05
4.00687e-05
4.00699e-05
4.00716e-05
4.00743e-05
4.00778e-05
4.00813e-05
4.00846e-05
4.0086e-05
4.00919e-05
4.00666e-05
4.01092e-05
4.04043e-05
4.08744e-05
4.14341e-05
4.18634e-05
4.17394e-05
3.81504e-05
3.29999e-05
7.41945e-06
5.78221e-06
0
0
0
0.0044118
0.0305446
0.132822
4.00679e-05
4.00656e-05
4.0065e-05
4.00639e-05
4.00667e-05
4.00672e-05
4.00659e-05
4.00641e-05
4.00629e-05
4.0062e-05
4.00616e-05
4.00613e-05
4.00612e-05
4.00614e-05
4.00615e-05
4.00618e-05
4.00621e-05
4.00623e-05
4.00625e-05
4.00625e-05
4.00626e-05
4.00628e-05
4.00631e-05
4.00635e-05
4.00639e-05
4.00645e-05
4.00655e-05
4.00667e-05
4.00683e-05
4.00702e-05
4.00728e-05
4.00756e-05
4.0081e-05
4.0081e-05
4.01347e-05
4.02747e-05
4.10403e-05
3.7041e-05
5.55019e-06
4.00689e-05
4.00689e-05
4.00689e-05
4.00684e-05
4.00678e-05
4.00673e-05
4.00667e-05
4.00663e-05
4.00659e-05
4.00656e-05
4.00653e-05
4.00651e-05
4.00649e-05
4.00648e-05
4.00648e-05
4.00648e-05
4.00649e-05
4.00651e-05
4.00655e-05
4.00667e-05
4.00682e-05
4.00739e-05
4.00752e-05
4.00487e-05
4.00384e-05
4.01045e-05
4.03284e-05
4.07791e-05
4.14181e-05
4.21046e-05
4.26035e-05
3.82926e-05
2.5927e-05
7.89673e-06
0
0
9.57806e-06
0.000442341
0.0723805
4.00679e-05
4.00656e-05
4.00644e-05
4.00629e-05
4.00655e-05
4.00662e-05
4.00651e-05
4.00635e-05
4.00624e-05
4.00617e-05
4.00614e-05
4.00611e-05
4.0061e-05
4.0061e-05
4.00612e-05
4.00615e-05
4.00618e-05
4.00621e-05
4.00624e-05
4.00627e-05
4.00629e-05
4.0063e-05
4.0063e-05
4.00631e-05
4.00631e-05
4.00633e-05
4.00636e-05
4.00641e-05
4.00648e-05
4.00656e-05
4.00663e-05
4.00677e-05
4.00671e-05
4.0077e-05
4.00392e-05
4.02016e-05
3.95121e-05
4.4473e-05
2.14486e-05
4.00686e-05
4.00684e-05
4.00681e-05
4.00675e-05
4.00669e-05
4.00662e-05
4.00657e-05
4.00653e-05
4.0065e-05
4.00647e-05
4.00646e-05
4.00644e-05
4.00644e-05
4.00645e-05
4.00647e-05
4.0065e-05
4.00656e-05
4.00666e-05
4.00676e-05
4.00687e-05
4.00695e-05
4.00706e-05
4.00752e-05
4.00746e-05
4.00571e-05
4.003e-05
4.00168e-05
4.00743e-05
4.02409e-05
4.06924e-05
4.14309e-05
4.27172e-05
4.19726e-05
3.30407e-05
8.67952e-06
0
0
0.00079866
0.0332838
4.0068e-05
4.00657e-05
4.00641e-05
4.00623e-05
4.00646e-05
4.00653e-05
4.00645e-05
4.0063e-05
4.0062e-05
4.00614e-05
4.00611e-05
4.00608e-05
4.00607e-05
4.00607e-05
4.00608e-05
4.0061e-05
4.00613e-05
4.00617e-05
4.0062e-05
4.00624e-05
4.00627e-05
4.00629e-05
4.00631e-05
4.00633e-05
4.00634e-05
4.00635e-05
4.00638e-05
4.00642e-05
4.00648e-05
4.00656e-05
4.00666e-05
4.00682e-05
4.00681e-05
4.00765e-05
4.00481e-05
4.01788e-05
3.96022e-05
4.1916e-05
3.65157e-05
4.00683e-05
4.00678e-05
4.00673e-05
4.00666e-05
4.00659e-05
4.00653e-05
4.00648e-05
4.00644e-05
4.00641e-05
4.00638e-05
4.00636e-05
4.00635e-05
4.00633e-05
4.00633e-05
4.00633e-05
4.00634e-05
4.00635e-05
4.00637e-05
4.00641e-05
4.00649e-05
4.0066e-05
4.00672e-05
4.00694e-05
4.00736e-05
4.0075e-05
4.00683e-05
4.00489e-05
4.00253e-05
4.00056e-05
4.0052e-05
4.01849e-05
4.07976e-05
4.20187e-05
4.29614e-05
3.56693e-05
7.83543e-06
0
0.000286926
0.0131016
4.00679e-05
4.00658e-05
4.00639e-05
4.00619e-05
4.00639e-05
4.00646e-05
4.00639e-05
4.00625e-05
4.00617e-05
4.00611e-05
4.00608e-05
4.00606e-05
4.00604e-05
4.00603e-05
4.00603e-05
4.00605e-05
4.00608e-05
4.00612e-05
4.00615e-05
4.00619e-05
4.00623e-05
4.00627e-05
4.0063e-05
4.00633e-05
4.00636e-05
4.00637e-05
4.00638e-05
4.0064e-05
4.00643e-05
4.00647e-05
4.00653e-05
4.00661e-05
4.00665e-05
4.00695e-05
4.0063e-05
4.00953e-05
3.99847e-05
4.02527e-05
4.0179e-05
4.00679e-05
4.00671e-05
4.00665e-05
4.00658e-05
4.00651e-05
4.00645e-05
4.0064e-05
4.00637e-05
4.00634e-05
4.00632e-05
4.00631e-05
4.0063e-05
4.00629e-05
4.00629e-05
4.0063e-05
4.00631e-05
4.00633e-05
4.00636e-05
4.00641e-05
4.00647e-05
4.00654e-05
4.00663e-05
4.00673e-05
4.00694e-05
4.00726e-05
4.00755e-05
4.00749e-05
4.0068e-05
4.00514e-05
4.0028e-05
3.99956e-05
4.00072e-05
4.03357e-05
4.1315e-05
4.41112e-05
3.14329e-05
1.23467e-06
9.95709e-05
0.00433661
4.00678e-05
4.00659e-05
4.00638e-05
4.00616e-05
4.00634e-05
4.0064e-05
4.00633e-05
4.00621e-05
4.00613e-05
4.00608e-05
4.00605e-05
4.00603e-05
4.006e-05
4.00599e-05
4.00599e-05
4.00601e-05
4.00603e-05
4.00606e-05
4.0061e-05
4.00615e-05
4.00619e-05
4.00624e-05
4.00628e-05
4.00631e-05
4.00635e-05
4.00638e-05
4.00639e-05
4.00639e-05
4.00641e-05
4.00644e-05
4.00648e-05
4.00654e-05
4.00662e-05
4.00669e-05
4.00689e-05
4.00653e-05
4.00914e-05
3.9972e-05
4.03496e-05
4.00673e-05
4.00664e-05
4.00657e-05
4.0065e-05
4.00644e-05
4.00637e-05
4.00633e-05
4.0063e-05
4.00628e-05
4.00627e-05
4.00626e-05
4.00626e-05
4.00626e-05
4.00626e-05
4.00626e-05
4.00627e-05
4.00628e-05
4.0063e-05
4.00633e-05
4.00637e-05
4.00643e-05
4.00651e-05
4.0066e-05
4.00672e-05
4.00692e-05
4.0072e-05
4.00752e-05
4.00777e-05
4.00784e-05
4.00731e-05
4.00588e-05
4.00094e-05
3.99687e-05
4.00248e-05
4.10809e-05
4.61855e-05
1.71307e-06
2.67347e-05
0.00110903
4.00676e-05
4.00659e-05
4.00638e-05
4.00614e-05
4.00629e-05
4.00635e-05
4.00629e-05
4.00617e-05
4.0061e-05
4.00605e-05
4.00602e-05
4.006e-05
4.00597e-05
4.00595e-05
4.00595e-05
4.00596e-05
4.00598e-05
4.00602e-05
4.00605e-05
4.0061e-05
4.00614e-05
4.00619e-05
4.00624e-05
4.00628e-05
4.00633e-05
4.00636e-05
4.00638e-05
4.0064e-05
4.0064e-05
4.00641e-05
4.00644e-05
4.00647e-05
4.00653e-05
4.00657e-05
4.00677e-05
4.0064e-05
4.00834e-05
4.00254e-05
4.01458e-05
4.00667e-05
4.00657e-05
4.0065e-05
4.00643e-05
4.00637e-05
4.00631e-05
4.00627e-05
4.00625e-05
4.00624e-05
4.00624e-05
4.00624e-05
4.00624e-05
4.00625e-05
4.00625e-05
4.00626e-05
4.00627e-05
4.00628e-05
4.0063e-05
4.00632e-05
4.00635e-05
4.0064e-05
4.00646e-05
4.00653e-05
4.00662e-05
4.00675e-05
4.00693e-05
4.00718e-05
4.00748e-05
4.00785e-05
4.00822e-05
4.00853e-05
4.00822e-05
4.00239e-05
4.00712e-05
3.91803e-05
4.52361e-05
3.20106e-05
3.32179e-06
9.67038e-05
4.00672e-05
4.00658e-05
4.00638e-05
4.00613e-05
4.00625e-05
4.0063e-05
4.00624e-05
4.00614e-05
4.00607e-05
4.00602e-05
4.00599e-05
4.00596e-05
4.00593e-05
4.00592e-05
4.00591e-05
4.00592e-05
4.00594e-05
4.00597e-05
4.006e-05
4.00605e-05
4.00609e-05
4.00614e-05
4.00619e-05
4.00624e-05
4.00629e-05
4.00633e-05
4.00637e-05
4.00639e-05
4.0064e-05
4.0064e-05
4.00642e-05
4.00644e-05
4.00648e-05
4.00652e-05
4.00661e-05
4.00659e-05
4.00704e-05
4.00639e-05
4.00736e-05
4.00661e-05
4.00651e-05
4.00644e-05
4.00637e-05
4.00631e-05
4.00626e-05
4.00623e-05
4.00622e-05
4.00622e-05
4.00623e-05
4.00623e-05
4.00624e-05
4.00625e-05
4.00626e-05
4.00627e-05
4.00628e-05
4.00629e-05
4.0063e-05
4.00632e-05
4.00634e-05
4.00638e-05
4.00642e-05
4.00648e-05
4.00656e-05
4.00666e-05
4.0068e-05
4.00698e-05
4.00721e-05
4.00748e-05
4.00787e-05
4.00824e-05
4.00962e-05
4.00664e-05
4.01825e-05
3.95254e-05
4.06573e-05
4.54681e-05
2.01521e-06
2.22741e-05
4.00668e-05
4.00657e-05
4.00637e-05
4.00612e-05
4.00621e-05
4.00626e-05
4.0062e-05
4.00611e-05
4.00604e-05
4.00598e-05
4.00595e-05
4.00593e-05
4.0059e-05
4.00588e-05
4.00587e-05
4.00588e-05
4.0059e-05
4.00592e-05
4.00596e-05
4.006e-05
4.00605e-05
4.0061e-05
4.00615e-05
4.0062e-05
4.00626e-05
4.0063e-05
4.00634e-05
4.00637e-05
4.00639e-05
4.0064e-05
4.00641e-05
4.00642e-05
4.00644e-05
4.00648e-05
4.00652e-05
4.00659e-05
4.00663e-05
4.00707e-05
4.00651e-05
4.00655e-05
4.00645e-05
4.00637e-05
4.00631e-05
4.00626e-05
4.00622e-05
4.0062e-05
4.0062e-05
4.00621e-05
4.00622e-05
4.00624e-05
4.00625e-05
4.00626e-05
4.00627e-05
4.00628e-05
4.00629e-05
4.0063e-05
4.00631e-05
4.00633e-05
4.00635e-05
4.00638e-05
4.00642e-05
4.00646e-05
4.00652e-05
4.00661e-05
4.00672e-05
4.00687e-05
4.00706e-05
4.00727e-05
4.00756e-05
4.00779e-05
4.00869e-05
4.00845e-05
4.01069e-05
4.02265e-05
3.84382e-05
4.89636e-05
3.2388e-06
9.03985e-08
4.00663e-05
4.00655e-05
4.00636e-05
4.00611e-05
4.00618e-05
4.00622e-05
4.00617e-05
4.00608e-05
4.006e-05
4.00595e-05
4.00592e-05
4.00589e-05
4.00586e-05
4.00585e-05
4.00584e-05
4.00585e-05
4.00586e-05
4.00588e-05
4.00591e-05
4.00595e-05
4.006e-05
4.00605e-05
4.00611e-05
4.00616e-05
4.00622e-05
4.00627e-05
4.00631e-05
4.00635e-05
4.00638e-05
4.0064e-05
4.00641e-05
4.00641e-05
4.00642e-05
4.00644e-05
4.00648e-05
4.00654e-05
4.00656e-05
4.00692e-05
4.00667e-05
4.0065e-05
4.0064e-05
4.00632e-05
4.00626e-05
4.00622e-05
4.00619e-05
4.00618e-05
4.00619e-05
4.00621e-05
4.00623e-05
4.00624e-05
4.00626e-05
4.00627e-05
4.00629e-05
4.0063e-05
4.00631e-05
4.00632e-05
4.00633e-05
4.00635e-05
4.00636e-05
4.00639e-05
4.00642e-05
4.00646e-05
4.00651e-05
4.00658e-05
4.00667e-05
4.0068e-05
4.00696e-05
4.00715e-05
4.00737e-05
4.00763e-05
4.00782e-05
4.00948e-05
4.00303e-05
4.04479e-05
3.85282e-05
4.5459e-05
2.79456e-05
3.69922e-06
4.00658e-05
4.00652e-05
4.00635e-05
4.0061e-05
4.00615e-05
4.00618e-05
4.00613e-05
4.00604e-05
4.00597e-05
4.00592e-05
4.00589e-05
4.00586e-05
4.00583e-05
4.00582e-05
4.00581e-05
4.00581e-05
4.00582e-05
4.00585e-05
4.00588e-05
4.00591e-05
4.00596e-05
4.00601e-05
4.00606e-05
4.00612e-05
4.00618e-05
4.00623e-05
4.00628e-05
4.00632e-05
4.00636e-05
4.00638e-05
4.0064e-05
4.00641e-05
4.00641e-05
4.00642e-05
4.00645e-05
4.00649e-05
4.00653e-05
4.00676e-05
4.00672e-05
4.00644e-05
4.00635e-05
4.00627e-05
4.00622e-05
4.00618e-05
4.00617e-05
4.00617e-05
4.00619e-05
4.00621e-05
4.00623e-05
4.00625e-05
4.00627e-05
4.00629e-05
4.0063e-05
4.00632e-05
4.00633e-05
4.00634e-05
4.00635e-05
4.00636e-05
4.00638e-05
4.0064e-05
4.00642e-05
4.00646e-05
4.0065e-05
4.00656e-05
4.00664e-05
4.00674e-05
4.00688e-05
4.00706e-05
4.00724e-05
4.00754e-05
4.00745e-05
4.00946e-05
4.00257e-05
4.03257e-05
3.93856e-05
4.15195e-05
4.13749e-05
1.33414e-05
4.00653e-05
4.00649e-05
4.00633e-05
4.0061e-05
4.00613e-05
4.00614e-05
4.00609e-05
4.00601e-05
4.00594e-05
4.00589e-05
4.00586e-05
4.00583e-05
4.0058e-05
4.00579e-05
4.00578e-05
4.00578e-05
4.00579e-05
4.00581e-05
4.00584e-05
4.00588e-05
4.00592e-05
4.00597e-05
4.00602e-05
4.00608e-05
4.00614e-05
4.00619e-05
4.00624e-05
4.00629e-05
4.00633e-05
4.00636e-05
4.00639e-05
4.00641e-05
4.00641e-05
4.00642e-05
4.00643e-05
4.00646e-05
4.00649e-05
4.00667e-05
4.00667e-05
4.00639e-05
4.0063e-05
4.00622e-05
4.00618e-05
4.00616e-05
4.00616e-05
4.00617e-05
4.00619e-05
4.00622e-05
4.00624e-05
4.00626e-05
4.00628e-05
4.0063e-05
4.00632e-05
4.00633e-05
4.00635e-05
4.00636e-05
4.00637e-05
4.00638e-05
4.0064e-05
4.00641e-05
4.00644e-05
4.00646e-05
4.0065e-05
4.00655e-05
4.00661e-05
4.00671e-05
4.00682e-05
4.00698e-05
4.00714e-05
4.00742e-05
4.00739e-05
4.0087e-05
4.00553e-05
4.01568e-05
4.00167e-05
3.96341e-05
4.40471e-05
2.83626e-05
4.00648e-05
4.00646e-05
4.00631e-05
4.00609e-05
4.0061e-05
4.00611e-05
4.00606e-05
4.00598e-05
4.00591e-05
4.00586e-05
4.00583e-05
4.0058e-05
4.00577e-05
4.00576e-05
4.00575e-05
4.00576e-05
4.00577e-05
4.00579e-05
4.00581e-05
4.00584e-05
4.00588e-05
4.00593e-05
4.00598e-05
4.00604e-05
4.0061e-05
4.00615e-05
4.0062e-05
4.00625e-05
4.00629e-05
4.00633e-05
4.00636e-05
4.00639e-05
4.00641e-05
4.00641e-05
4.00642e-05
4.00644e-05
4.00646e-05
4.00662e-05
4.00662e-05
4.00635e-05
4.00626e-05
4.00618e-05
4.00615e-05
4.00615e-05
4.00615e-05
4.00617e-05
4.0062e-05
4.00622e-05
4.00625e-05
4.00628e-05
4.0063e-05
4.00632e-05
4.00634e-05
4.00635e-05
4.00637e-05
4.00638e-05
4.00639e-05
4.00641e-05
4.00642e-05
4.00644e-05
4.00646e-05
4.00648e-05
4.00651e-05
4.00655e-05
4.00661e-05
4.00669e-05
4.00679e-05
4.00692e-05
4.00707e-05
4.00729e-05
4.00741e-05
4.00794e-05
4.00787e-05
4.00675e-05
4.0235e-05
3.93637e-05
4.26122e-05
3.70381e-05
4.00643e-05
4.00643e-05
4.00629e-05
4.00607e-05
4.00607e-05
4.00608e-05
4.00603e-05
4.00595e-05
4.00588e-05
4.00583e-05
4.0058e-05
4.00577e-05
4.00574e-05
4.00573e-05
4.00573e-05
4.00573e-05
4.00574e-05
4.00576e-05
4.00578e-05
4.00581e-05
4.00585e-05
4.00589e-05
4.00594e-05
4.006e-05
4.00605e-05
4.00611e-05
4.00616e-05
4.00621e-05
4.00625e-05
4.0063e-05
4.00633e-05
4.00637e-05
4.00639e-05
4.00641e-05
4.00641e-05
4.00642e-05
4.00644e-05
4.00657e-05
4.00657e-05
4.00631e-05
4.00622e-05
4.00615e-05
4.00614e-05
4.00614e-05
4.00615e-05
4.00617e-05
4.0062e-05
4.00623e-05
4.00626e-05
4.00629e-05
4.00631e-05
4.00633e-05
4.00635e-05
4.00637e-05
4.00639e-05
4.0064e-05
4.00642e-05
4.00643e-05
4.00644e-05
4.00646e-05
4.00648e-05
4.0065e-05
4.00653e-05
4.00656e-05
4.00661e-05
4.00668e-05
4.00677e-05
4.00688e-05
4.00701e-05
4.00718e-05
4.00739e-05
4.00751e-05
4.00858e-05
4.00497e-05
4.02179e-05
3.96695e-05
4.09915e-05
4.01592e-05
4.00638e-05
4.00639e-05
4.00627e-05
4.00606e-05
4.00605e-05
4.00604e-05
4.00599e-05
4.00592e-05
4.00586e-05
4.00581e-05
4.00577e-05
4.00574e-05
4.00572e-05
4.00571e-05
4.0057e-05
4.00571e-05
4.00572e-05
4.00573e-05
4.00575e-05
4.00578e-05
4.00581e-05
4.00585e-05
4.0059e-05
4.00595e-05
4.00601e-05
4.00606e-05
4.00611e-05
4.00617e-05
4.00621e-05
4.00626e-05
4.0063e-05
4.00634e-05
4.00637e-05
4.0064e-05
4.00641e-05
4.00641e-05
4.00642e-05
4.00654e-05
4.00654e-05
4.00627e-05
4.00619e-05
4.00612e-05
4.00612e-05
4.00613e-05
4.00615e-05
4.00617e-05
4.00621e-05
4.00624e-05
4.00627e-05
4.0063e-05
4.00632e-05
4.00635e-05
4.00637e-05
4.00639e-05
4.00641e-05
4.00642e-05
4.00644e-05
4.00646e-05
4.00647e-05
4.00649e-05
4.00651e-05
4.00653e-05
4.00655e-05
4.00658e-05
4.00662e-05
4.00668e-05
4.00676e-05
4.00686e-05
4.00698e-05
4.00712e-05
4.00734e-05
4.00737e-05
4.00835e-05
4.00607e-05
4.01453e-05
3.99564e-05
4.01915e-05
4.06383e-05
4.00634e-05
4.00635e-05
4.00624e-05
4.00605e-05
4.00602e-05
4.00601e-05
4.00596e-05
4.00589e-05
4.00582e-05
4.00578e-05
4.00574e-05
4.00571e-05
4.00569e-05
4.00568e-05
4.00568e-05
4.00568e-05
4.00569e-05
4.0057e-05
4.00572e-05
4.00575e-05
4.00578e-05
4.00582e-05
4.00586e-05
4.00591e-05
4.00597e-05
4.00602e-05
4.00607e-05
4.00612e-05
4.00617e-05
4.00622e-05
4.00627e-05
4.00631e-05
4.00635e-05
4.00638e-05
4.0064e-05
4.00641e-05
4.00641e-05
4.00651e-05
4.00651e-05
4.00623e-05
4.00616e-05
4.0061e-05
4.00611e-05
4.00612e-05
4.00614e-05
4.00618e-05
4.00621e-05
4.00624e-05
4.00628e-05
4.00631e-05
4.00634e-05
4.00636e-05
4.00639e-05
4.00641e-05
4.00643e-05
4.00645e-05
4.00646e-05
4.00648e-05
4.0065e-05
4.00651e-05
4.00653e-05
4.00655e-05
4.00657e-05
4.0066e-05
4.00664e-05
4.00669e-05
4.00676e-05
4.00684e-05
4.00695e-05
4.00708e-05
4.00727e-05
4.00736e-05
4.00792e-05
4.00728e-05
4.00961e-05
4.00857e-05
3.99891e-05
4.0401e-05
4.0063e-05
4.00631e-05
4.00621e-05
4.00603e-05
4.006e-05
4.00598e-05
4.00592e-05
4.00585e-05
4.00579e-05
4.00575e-05
4.00571e-05
4.00568e-05
4.00567e-05
4.00566e-05
4.00565e-05
4.00566e-05
4.00566e-05
4.00568e-05
4.00569e-05
4.00572e-05
4.00574e-05
4.00578e-05
4.00582e-05
4.00587e-05
4.00592e-05
4.00597e-05
4.00602e-05
4.00608e-05
4.00613e-05
4.00618e-05
4.00623e-05
4.00627e-05
4.00631e-05
4.00635e-05
4.00638e-05
4.0064e-05
4.0064e-05
4.00648e-05
4.00648e-05
4.0062e-05
4.00614e-05
4.00609e-05
4.0061e-05
4.00612e-05
4.00614e-05
4.00618e-05
4.00622e-05
4.00625e-05
4.00629e-05
4.00632e-05
4.00635e-05
4.00638e-05
4.0064e-05
4.00643e-05
4.00645e-05
4.00647e-05
4.00649e-05
4.00651e-05
4.00652e-05
4.00654e-05
4.00656e-05
4.00658e-05
4.0066e-05
4.00663e-05
4.00666e-05
4.00671e-05
4.00677e-05
4.00684e-05
4.00694e-05
4.00705e-05
4.00721e-05
4.00735e-05
4.00763e-05
4.00783e-05
4.00777e-05
4.01105e-05
4.00119e-05
4.01802e-05
4.00626e-05
4.00628e-05
4.00619e-05
4.00601e-05
4.00597e-05
4.00594e-05
4.00589e-05
4.00582e-05
4.00576e-05
4.00572e-05
4.00568e-05
4.00566e-05
4.00564e-05
4.00563e-05
4.00563e-05
4.00563e-05
4.00564e-05
4.00565e-05
4.00566e-05
4.00568e-05
4.00571e-05
4.00574e-05
4.00579e-05
4.00583e-05
4.00588e-05
4.00593e-05
4.00598e-05
4.00603e-05
4.00608e-05
4.00613e-05
4.00618e-05
4.00623e-05
4.00628e-05
4.00632e-05
4.00635e-05
4.00638e-05
4.00638e-05
4.00644e-05
4.00646e-05
4.00617e-05
4.00611e-05
4.00607e-05
4.00609e-05
4.00611e-05
4.00614e-05
4.00618e-05
4.00622e-05
4.00626e-05
4.0063e-05
4.00633e-05
4.00636e-05
4.00639e-05
4.00642e-05
4.00645e-05
4.00647e-05
4.00649e-05
4.00651e-05
4.00653e-05
4.00655e-05
4.00657e-05
4.00659e-05
4.00661e-05
4.00663e-05
4.00666e-05
4.00669e-05
4.00673e-05
4.00678e-05
4.00685e-05
4.00693e-05
4.00704e-05
4.00717e-05
4.00733e-05
4.0075e-05
4.00789e-05
4.00754e-05
4.00999e-05
4.0061e-05
4.0093e-05
4.00622e-05
4.00624e-05
4.00615e-05
4.00599e-05
4.00594e-05
4.00591e-05
4.00585e-05
4.00578e-05
4.00572e-05
4.00568e-05
4.00565e-05
4.00562e-05
4.00561e-05
4.0056e-05
4.0056e-05
4.0056e-05
4.00561e-05
4.00562e-05
4.00563e-05
4.00565e-05
4.00568e-05
4.00571e-05
4.00575e-05
4.00579e-05
4.00584e-05
4.00588e-05
4.00593e-05
4.00598e-05
4.00603e-05
4.00609e-05
4.00614e-05
4.00619e-05
4.00624e-05
4.00629e-05
4.00633e-05
4.00636e-05
4.00636e-05
4.00641e-05
4.00643e-05
4.00614e-05
4.00609e-05
4.00606e-05
4.00608e-05
4.00611e-05
4.00614e-05
4.00618e-05
4.00622e-05
4.00627e-05
4.00631e-05
4.00634e-05
4.00638e-05
4.00641e-05
4.00644e-05
4.00647e-05
4.00649e-05
4.00651e-05
4.00654e-05
4.00656e-05
4.00658e-05
4.0066e-05
4.00662e-05
4.00664e-05
4.00667e-05
4.00669e-05
4.00672e-05
4.00676e-05
4.0068e-05
4.00686e-05
4.00694e-05
4.00703e-05
4.00715e-05
4.0073e-05
4.00744e-05
4.00778e-05
4.00771e-05
4.00881e-05
4.00846e-05
4.00802e-05
4.00618e-05
4.0062e-05
4.00612e-05
4.00596e-05
4.00591e-05
4.00587e-05
4.00581e-05
4.00574e-05
4.00569e-05
4.00565e-05
4.00562e-05
4.00559e-05
4.00558e-05
4.00557e-05
4.00557e-05
4.00557e-05
4.00558e-05
4.00559e-05
4.0056e-05
4.00562e-05
4.00564e-05
4.00567e-05
4.00571e-05
4.00575e-05
4.00579e-05
4.00584e-05
4.00588e-05
4.00593e-05
4.00599e-05
4.00604e-05
4.00609e-05
4.00615e-05
4.0062e-05
4.00625e-05
4.00629e-05
4.00633e-05
4.00635e-05
4.00638e-05
4.0064e-05
4.00611e-05
4.00607e-05
4.00605e-05
4.00608e-05
4.00611e-05
4.00614e-05
4.00619e-05
4.00623e-05
4.00627e-05
4.00632e-05
4.00635e-05
4.00639e-05
4.00642e-05
4.00646e-05
4.00648e-05
4.00651e-05
4.00654e-05
4.00656e-05
4.00658e-05
4.00661e-05
4.00663e-05
4.00665e-05
4.00667e-05
4.0067e-05
4.00672e-05
4.00675e-05
4.00678e-05
4.00683e-05
4.00688e-05
4.00695e-05
4.00704e-05
4.00714e-05
4.00728e-05
4.00742e-05
4.00767e-05
4.00782e-05
4.00825e-05
4.00885e-05
4.00866e-05
4.00614e-05
4.00616e-05
4.00609e-05
4.00594e-05
4.00588e-05
4.00584e-05
4.00578e-05
4.00571e-05
4.00565e-05
4.00561e-05
4.00558e-05
4.00556e-05
4.00555e-05
4.00554e-05
4.00554e-05
4.00554e-05
4.00554e-05
4.00555e-05
4.00557e-05
4.00558e-05
4.0056e-05
4.00563e-05
4.00567e-05
4.00571e-05
4.00575e-05
4.00579e-05
4.00584e-05
4.00588e-05
4.00593e-05
4.00599e-05
4.00604e-05
4.0061e-05
4.00615e-05
4.00621e-05
4.00625e-05
4.0063e-05
4.00632e-05
4.00634e-05
4.00638e-05
4.00608e-05
4.00605e-05
4.00603e-05
4.00607e-05
4.0061e-05
4.00614e-05
4.00619e-05
4.00623e-05
4.00628e-05
4.00632e-05
4.00636e-05
4.0064e-05
4.00644e-05
4.00647e-05
4.0065e-05
4.00653e-05
4.00656e-05
4.00658e-05
4.00661e-05
4.00663e-05
4.00666e-05
4.00668e-05
4.00671e-05
4.00673e-05
4.00675e-05
4.00678e-05
4.00681e-05
4.00685e-05
4.00691e-05
4.00697e-05
4.00705e-05
4.00714e-05
4.00726e-05
4.00741e-05
4.0076e-05
4.00782e-05
4.00809e-05
4.00859e-05
4.0091e-05
4.00611e-05
4.00613e-05
4.00606e-05
4.00591e-05
4.00585e-05
4.0058e-05
4.00574e-05
4.00567e-05
4.00561e-05
4.00557e-05
4.00554e-05
4.00552e-05
4.00551e-05
4.00551e-05
4.0055e-05
4.00551e-05
4.00551e-05
4.00552e-05
4.00553e-05
4.00555e-05
4.00557e-05
4.00559e-05
4.00563e-05
4.00566e-05
4.0057e-05
4.00574e-05
4.00579e-05
4.00583e-05
4.00588e-05
4.00594e-05
4.00599e-05
4.00605e-05
4.0061e-05
4.00616e-05
4.00621e-05
4.00626e-05
4.00629e-05
4.00631e-05
4.00635e-05
4.00606e-05
4.00603e-05
4.00602e-05
4.00606e-05
4.0061e-05
4.00614e-05
4.00619e-05
4.00624e-05
4.00629e-05
4.00633e-05
4.00637e-05
4.00641e-05
4.00645e-05
4.00649e-05
4.00652e-05
4.00655e-05
4.00658e-05
4.00661e-05
4.00663e-05
4.00666e-05
4.00669e-05
4.00671e-05
4.00674e-05
4.00676e-05
4.00679e-05
4.00682e-05
4.00685e-05
4.00689e-05
4.00693e-05
4.00699e-05
4.00706e-05
4.00715e-05
4.00726e-05
4.0074e-05
4.00757e-05
4.00778e-05
4.00806e-05
4.00832e-05
4.00912e-05
4.00608e-05
4.00609e-05
4.00602e-05
4.00588e-05
4.00581e-05
4.00576e-05
4.00569e-05
4.00563e-05
4.00557e-05
4.00553e-05
4.00551e-05
4.00549e-05
4.00547e-05
4.00547e-05
4.00547e-05
4.00547e-05
4.00548e-05
4.00548e-05
4.00549e-05
4.00551e-05
4.00553e-05
4.00555e-05
4.00558e-05
4.00562e-05
4.00565e-05
4.00569e-05
4.00573e-05
4.00578e-05
4.00583e-05
4.00588e-05
4.00594e-05
4.00599e-05
4.00605e-05
4.00611e-05
4.00616e-05
4.00621e-05
4.00626e-05
4.00627e-05
4.00633e-05
4.00603e-05
4.00601e-05
4.006e-05
4.00605e-05
4.00609e-05
4.00614e-05
4.00619e-05
4.00624e-05
4.00629e-05
4.00634e-05
4.00638e-05
4.00643e-05
4.00647e-05
4.0065e-05
4.00654e-05
4.00657e-05
4.0066e-05
4.00663e-05
4.00666e-05
4.00669e-05
4.00672e-05
4.00674e-05
4.00677e-05
4.0068e-05
4.00682e-05
4.00685e-05
4.00688e-05
4.00692e-05
4.00696e-05
4.00702e-05
4.00708e-05
4.00716e-05
4.00727e-05
4.00739e-05
4.00755e-05
4.00773e-05
4.00804e-05
4.00818e-05
4.00897e-05
4.00604e-05
4.00606e-05
4.00599e-05
4.00585e-05
4.00578e-05
4.00572e-05
4.00565e-05
4.00558e-05
4.00553e-05
4.00549e-05
4.00547e-05
4.00545e-05
4.00544e-05
4.00543e-05
4.00543e-05
4.00543e-05
4.00544e-05
4.00544e-05
4.00546e-05
4.00547e-05
4.00549e-05
4.00551e-05
4.00554e-05
4.00557e-05
4.0056e-05
4.00564e-05
4.00568e-05
4.00572e-05
4.00577e-05
4.00582e-05
4.00588e-05
4.00593e-05
4.00599e-05
4.00605e-05
4.00611e-05
4.00616e-05
4.00622e-05
4.00624e-05
4.0063e-05
4.006e-05
4.00599e-05
4.00599e-05
4.00604e-05
4.00608e-05
4.00613e-05
4.00619e-05
4.00624e-05
4.0063e-05
4.00635e-05
4.00639e-05
4.00644e-05
4.00648e-05
4.00652e-05
4.00655e-05
4.00659e-05
4.00662e-05
4.00665e-05
4.00668e-05
4.00671e-05
4.00674e-05
4.00677e-05
4.0068e-05
4.00683e-05
4.00686e-05
4.00689e-05
4.00692e-05
4.00695e-05
4.007e-05
4.00705e-05
4.00711e-05
4.00718e-05
4.00728e-05
4.00739e-05
4.00754e-05
4.00771e-05
4.008e-05
4.00811e-05
4.00883e-05
4.00601e-05
4.00602e-05
4.00595e-05
4.00582e-05
4.00574e-05
4.00568e-05
4.00561e-05
4.00554e-05
4.00549e-05
4.00545e-05
4.00542e-05
4.00541e-05
4.00539e-05
4.00539e-05
4.00539e-05
4.00539e-05
4.0054e-05
4.0054e-05
4.00541e-05
4.00543e-05
4.00544e-05
4.00546e-05
4.00549e-05
4.00552e-05
4.00555e-05
4.00559e-05
4.00562e-05
4.00567e-05