/*--------------------------------*- C++ -*----------------------------------*\
| =========                 |                                                 |
| \\      /  F ield         | OpenFOAM: The Open Source CFD Toolbox           |
|  \\    /   O peration     | Version:  2206                                  |
|   \\  /    A nd           | Website:  www.openfoam.com                      |
|    \\/     M anipulation  |                                                 |
\*---------------------------------------------------------------------------*/
FoamFile
{
    version     2.0;
    format      ascii;
    arch        "LSB;label=32;scalar=64";
    class       volScalarField;
    location    "0.5";
    object      k;
}
// * * * * * * * * * * * * * * * * * * * * * * * * * * * * * * * * * * * * * //

dimensions      [0 2 -2 0 0 0 0];

internalField   nonuniform List<scalar> 
66701
(
1.02564e-05
9.56543e-06
1.60796e-05
2.27207e-05
1.32189e-05
3.72208e-05
3.44398e-05
1.45334e-05
9.55927e-06
1.60659e-05
2.27023e-05
1.32132e-05
3.72147e-05
1.45302e-05
3.44239e-05
1.02461e-05
3.04942e-06
7.39647e-07
1.38893e-07
5.68334e-08
3.37157e-07
3.07018e-06
7.44296e-07
1.39622e-07
5.64757e-08
3.33738e-07
3.13928e-06
7.53465e-07
1.39886e-07
5.36279e-08
3.11199e-07
3.13672e-06
7.52862e-07
1.39784e-07
5.36113e-08
3.11187e-07
3.04639e-06
7.38949e-07
1.38783e-07
5.68302e-08
3.37197e-07
3.06816e-06
7.43788e-07
1.39535e-07
5.64593e-08
3.33718e-07
3.12245e-06
7.5207e-07
1.40207e-07
5.5227e-08
3.23502e-07
3.2258e-06
7.77914e-07
1.4498e-07
5.63978e-08
3.29074e-07
3.12119e-06
7.51743e-07
1.40153e-07
5.52236e-08
3.23516e-07
3.22511e-06
7.77745e-07
1.4495e-07
5.63937e-08
3.29066e-07
1.03781e-05
1.02593e-05
3.40411e-05
2.28283e-05
2.24927e-05
1.63722e-05
3.05225e-05
3.63661e-05
3.72251e-05
1.60845e-05
4.16799e-05
3.0849e-05
3.60502e-05
2.55047e-05
3.72191e-05
1.60714e-05
4.16704e-05
3.08326e-05
2.55103e-05
3.60174e-05
1.02495e-05
3.40388e-05
2.24805e-05
1.02421e-05
1.72465e-05
9.15159e-06
9.08916e-06
1.72823e-05
9.14001e-06
9.07535e-06
3.40483e-05
1.59789e-05
3.90394e-05
2.28637e-05
3.40806e-05
1.59598e-05
3.90488e-05
3.35276e-05
1.56417e-05
3.87472e-05
2.24536e-05
3.35714e-05
1.56154e-05
3.87287e-05
1.31899e-05
3.44451e-05
1.45353e-05
3.71861e-05
1.32185e-05
3.44002e-05
1.45017e-05
9.5516e-06
2.27264e-05
1.60541e-05
9.57028e-06
2.26843e-05
1.31843e-05
1.45322e-05
3.44302e-05
3.71802e-05
1.32131e-05
1.44986e-05
3.43849e-05
9.54552e-06
2.27086e-05
1.60405e-05
9.56433e-06
2.2666e-05
1.0232e-05
1.72674e-05
9.07882e-06
9.1638e-06
3.35269e-05
3.88111e-05
2.24406e-05
3.87939e-05
1.55966e-05
3.40849e-05
2.28717e-05
1.59996e-05
3.90267e-05
1.04515e-05
2.10872e-05
1.79985e-05
1.817e-05
1.6338e-05
2.10813e-05
1.79952e-05
1.81645e-05
1.63254e-05
1.81486e-05
1.63126e-05
1.81545e-05
1.63138e-05
3.9488e-05
3.40613e-05
3.87058e-05
3.86121e-05
3.94865e-05
3.8723e-05
3.86363e-05
3.84482e-05
4.04676e-05
3.96799e-05
3.64606e-05
3.96896e-05
3.85481e-05
4.04721e-05
3.69568e-05
4.15999e-05
3.57519e-05
4.16973e-05
3.69156e-05
4.16093e-05
3.58076e-05
3.84628e-05
4.01392e-05
3.96116e-05
3.60129e-05
3.96336e-05
3.84383e-05
4.01218e-05
3.69347e-05
3.57466e-05
4.15766e-05
4.1688e-05
3.68947e-05
3.58021e-05
4.15856e-05
3.84299e-05
4.01078e-05
3.95725e-05
3.59797e-05
3.84053e-05
4.00899e-05
3.95937e-05
3.94708e-05
3.40673e-05
3.87237e-05
3.87529e-05
3.85879e-05
3.07798e-06
7.46832e-07
1.40179e-07
5.69979e-08
3.37457e-07
3.05011e-06
7.39792e-07
1.38918e-07
5.68382e-08
3.37175e-07
3.18213e-06
7.63689e-07
1.41667e-07
5.38369e-08
3.11492e-07
3.14061e-06
7.5381e-07
1.39948e-07
5.36391e-08
3.11238e-07
3.13815e-06
7.53231e-07
1.3985e-07
5.36246e-08
3.11239e-07
3.04721e-06
7.39129e-07
1.38814e-07
5.68379e-08
3.37232e-07
3.04791e-06
7.39504e-07
1.38868e-07
5.67724e-08
3.36685e-07
3.11936e-06
7.51621e-07
1.40125e-07
5.51238e-08
3.22735e-07
3.22679e-06
7.78208e-07
1.45038e-07
5.64142e-08
3.29157e-07
3.12278e-06
7.52204e-07
1.40236e-07
5.52403e-08
3.23582e-07
3.22269e-06
7.77466e-07
1.44898e-07
5.62866e-08
3.28244e-07
3.13815e-06
7.53464e-07
1.3989e-07
5.35846e-08
3.10848e-07
3.11813e-06
7.51301e-07
1.40073e-07
5.51208e-08
3.22751e-07
3.22613e-06
7.78046e-07
1.45009e-07
5.64106e-08
3.29151e-07
3.12158e-06
7.5189e-07
1.40185e-07
5.52378e-08
3.23601e-07
3.22202e-06
7.77299e-07
1.44868e-07
5.62828e-08
3.28237e-07
3.13563e-06
7.52872e-07
1.3979e-07
5.35687e-08
3.10839e-07
3.04494e-06
7.38822e-07
1.38761e-07
5.67713e-08
3.3674e-07
3.17784e-06
7.61034e-07
1.41171e-07
5.41226e-08
3.1406e-07
3.08759e-06
7.49254e-07
1.40602e-07
5.70136e-08
3.37205e-07
2.84572e-06
6.90449e-07
1.30248e-07
5.57537e-08
3.35204e-07
3.17145e-06
7.59145e-07
1.40835e-07
5.41328e-08
3.14453e-07
3.17012e-06
7.59132e-07
1.40839e-07
5.40939e-08
3.14137e-07
2.83067e-06
6.86702e-07
1.29579e-07
5.5666e-08
3.35077e-07
3.12694e-06
7.48925e-07
1.39072e-07
5.391e-08
3.14078e-07
3.1247e-06
7.48628e-07
1.3902e-07
5.38379e-08
3.13541e-07
2.84401e-06
6.90211e-07
1.30205e-07
5.5695e-08
3.34768e-07
2.82887e-06
6.86488e-07
1.29541e-07
5.56e-08
3.34577e-07
3.06898e-06
7.44275e-07
1.3962e-07
5.64156e-08
3.33255e-07
3.07216e-06
7.44801e-07
1.39713e-07
5.64941e-08
3.33812e-07
3.06698e-06
7.43771e-07
1.39534e-07
5.64002e-08
3.33243e-07
3.0702e-06
7.44308e-07
1.39629e-07
5.64791e-08
3.33801e-07
3.12164e-06
7.47948e-07
1.38909e-07
5.38386e-08
3.13593e-07
2.83043e-06
6.86862e-07
1.29601e-07
5.56154e-08
3.34616e-07
2.85181e-06
6.92124e-07
1.30532e-07
5.57326e-08
3.34788e-07
3.04466e-05
3.39843e-05
2.10164e-05
3.03621e-05
3.00161e-05
3.35064e-05
2.09594e-05
3.05875e-05
3.02563e-05
3.37815e-05
2.10498e-05
3.0783e-05
3.04502e-05
3.39774e-05
2.10761e-05
3.08446e-05
3.05099e-05
3.40414e-05
2.10822e-05
3.08984e-05
3.05515e-05
3.40979e-05
2.10702e-05
3.08876e-05
3.05481e-05
3.40747e-05
2.10682e-05
3.08834e-05
3.05488e-05
3.40825e-05
2.10715e-05
3.08789e-05
3.05509e-05
3.40717e-05
2.10853e-05
3.09006e-05
3.05705e-05
3.40974e-05
2.10916e-05
3.09126e-05
3.058e-05
3.41159e-05
2.10804e-05
3.08918e-05
3.05669e-05
3.40938e-05
2.10701e-05
3.08748e-05
3.05579e-05
3.40792e-05
2.10648e-05
3.08557e-05
3.05488e-05
3.40705e-05
2.10587e-05
3.08422e-05
3.05402e-05
3.40583e-05
2.10588e-05
3.08409e-05
3.05417e-05
3.40651e-05
2.11016e-05
3.05951e-05
3.03519e-05
3.38564e-05
3.3913e-05
3.35029e-05
3.06443e-05
3.00426e-05
3.00815e-05
3.35225e-05
3.34885e-05
3.37748e-05
3.00192e-05
3.0058e-05
3.01913e-05
3.02093e-05
3.34808e-05
3.37675e-05
3.02766e-05
3.02489e-05
3.04768e-05
3.04536e-05
3.03449e-05
3.0502e-05
3.04954e-05
3.34887e-05
3.37697e-05
3.00542e-05
3.01735e-05
3.01966e-05
3.37824e-05
3.37739e-05
3.39766e-05
3.02714e-05
3.02876e-05
3.04333e-05
3.0447e-05
3.37673e-05
3.39821e-05
3.05647e-05
3.05401e-05
3.07378e-05
3.07147e-05
3.05791e-05
3.07544e-05
3.07491e-05
3.37682e-05
3.39674e-05
3.02789e-05
3.04215e-05
3.04418e-05
3.39911e-05
3.39621e-05
3.4028e-05
3.04611e-05
3.04759e-05
3.05006e-05
3.05194e-05
3.39686e-05
3.40537e-05
3.07662e-05
3.07448e-05
3.08089e-05
3.07934e-05
3.07793e-05
3.08291e-05
3.08295e-05
3.39528e-05
3.40224e-05
3.04712e-05
3.04966e-05
3.05212e-05
3.40584e-05
3.40104e-05
3.40885e-05
3.05112e-05
3.05305e-05
3.05448e-05
3.05694e-05
3.40375e-05
3.4128e-05
3.08219e-05
3.08082e-05
3.08639e-05
3.08538e-05
3.08443e-05
3.08913e-05
3.08849e-05
3.40051e-05
3.40863e-05
3.05348e-05
3.05459e-05
3.0568e-05
3.41161e-05
3.40713e-05
3.40856e-05
3.0551e-05
3.05769e-05
3.05497e-05
3.05763e-05
3.41111e-05
3.41238e-05
3.08705e-05
3.08609e-05
3.08658e-05
3.08582e-05
3.08896e-05
3.08921e-05
3.08819e-05
3.40688e-05
3.40834e-05
3.05724e-05
3.05505e-05
3.05703e-05
3.41031e-05
3.40563e-05
3.40809e-05
3.05468e-05
3.0572e-05
3.0548e-05
3.05702e-05
3.4092e-05
3.41044e-05
3.08629e-05
3.08559e-05
3.08695e-05
3.08637e-05
3.08786e-05
3.08848e-05
3.08786e-05
3.40547e-05
3.40806e-05
3.05685e-05
3.05485e-05
3.05673e-05
3.41032e-05
3.40628e-05
3.40845e-05
3.05491e-05
3.05696e-05
3.05484e-05
3.05622e-05
3.40852e-05
3.40831e-05
3.08746e-05
3.08684e-05
3.08821e-05
3.08772e-05
3.08776e-05
3.08777e-05
3.08752e-05
3.4062e-05
3.4083e-05
3.0565e-05
3.05491e-05
3.0563e-05
3.40899e-05
3.40625e-05
3.41059e-05
3.0549e-05
3.05623e-05
3.05623e-05
3.05754e-05
3.40613e-05
3.41036e-05
3.08856e-05
3.08814e-05
3.09e-05
3.08958e-05
3.08781e-05
3.08942e-05
3.08961e-05
3.40626e-05
3.41086e-05
3.05649e-05
3.05657e-05
3.05801e-05
3.41168e-05
3.40864e-05
3.41253e-05
3.05673e-05
3.05805e-05
3.0579e-05
3.05912e-05
3.40841e-05
3.412e-05
3.09055e-05
3.09012e-05
3.09205e-05
3.09163e-05
3.09027e-05
3.09123e-05
3.09139e-05
3.40886e-05
3.41272e-05
3.05851e-05
3.05798e-05
3.05931e-05
3.41364e-05
3.41057e-05
3.41125e-05
3.05796e-05
3.05915e-05
3.05733e-05
3.05841e-05
3.40999e-05
3.41032e-05
3.09216e-05
3.09173e-05
3.09137e-05
3.09097e-05
3.09137e-05
3.09e-05
3.09012e-05
3.41074e-05
3.41141e-05
3.0593e-05
3.0572e-05
3.0584e-05
3.41182e-05
3.40877e-05
3.40938e-05
3.05677e-05
3.05774e-05
3.05608e-05
3.05684e-05
3.40769e-05
3.40786e-05
3.0906e-05
3.0902e-05
3.08927e-05
3.08879e-05
3.08938e-05
3.0878e-05
3.08824e-05
3.40891e-05
3.40937e-05
3.05795e-05
3.05593e-05
3.05748e-05
3.41001e-05
3.40714e-05
3.40894e-05
3.05596e-05
3.05664e-05
3.05575e-05
3.05629e-05
3.40561e-05
3.40699e-05
3.08906e-05
3.08849e-05
3.08849e-05
3.0878e-05
3.08793e-05
3.0864e-05
3.08707e-05
3.40704e-05
3.4087e-05
3.05746e-05
3.05539e-05
3.05719e-05
3.40941e-05
3.40655e-05
3.40658e-05
3.05532e-05
3.05574e-05
3.05445e-05
3.05484e-05
3.40443e-05
3.40456e-05
3.08773e-05
3.08702e-05
3.08652e-05
3.08584e-05
3.08632e-05
3.08445e-05
3.0855e-05
3.40619e-05
3.40643e-05
3.05679e-05
3.05413e-05
3.05638e-05
3.40776e-05
3.40444e-05
3.40734e-05
3.05424e-05
3.05458e-05
3.05429e-05
3.05446e-05
3.40245e-05
3.40481e-05
3.0864e-05
3.0857e-05
3.08674e-05
3.08609e-05
3.08542e-05
3.08417e-05
3.08556e-05
3.40427e-05
3.40732e-05
3.05636e-05
3.05419e-05
3.05643e-05
3.40842e-05
3.40554e-05
3.40726e-05
3.05424e-05
3.05435e-05
3.0804e-05
3.08074e-05
3.40295e-05
3.40443e-05
3.08679e-05
3.0861e-05
3.0768e-05
3.0731e-05
3.08547e-05
3.07317e-05
3.07231e-05
3.40533e-05
3.40202e-05
3.05636e-05
3.04601e-05
3.04822e-05
3.40275e-05
3.08901e-05
3.40263e-05
3.06378e-05
3.05733e-05
3.05652e-05
3.38458e-05
3.03749e-05
1.00973e-05
1.02404e-05
4.07627e-05
2.51963e-05
3.56289e-05
3.00796e-05
3.58816e-05
4.06922e-05
2.48906e-05
2.20812e-05
2.2383e-05
3.36531e-05
2.24759e-05
2.21392e-05
3.79105e-05
1.63982e-05
1.64059e-05
3.77722e-05
1.03659e-05
1.03735e-05
3.69237e-05
1.60384e-05
1.6027e-05
3.68381e-05
2.09692e-05
2.09953e-05
2.09403e-05
2.09427e-05
2.09141e-05
2.09266e-05
2.08939e-05
4.13012e-05
3.56882e-05
2.51523e-05
3.03692e-05
3.57767e-05
2.51513e-05
4.10022e-05
1.02264e-05
1.02169e-05
4.15753e-05
2.45812e-05
3.62001e-05
3.00294e-05
4.12485e-05
2.45894e-05
3.63142e-05
2.23649e-05
2.26769e-05
3.36198e-05
2.23742e-05
2.27112e-05
3.80953e-05
1.64372e-05
3.80796e-05
1.64224e-05
1.03968e-05
1.03911e-05
3.71071e-05
1.6061e-05
3.71064e-05
1.60349e-05
2.09277e-05
2.09439e-05
2.09108e-05
2.10346e-05
2.1007e-05
2.10249e-05
2.09977e-05
4.16574e-05
3.59616e-05
2.53054e-05
3.0658e-05
4.15441e-05
3.59655e-05
2.53721e-05
1.02364e-05
1.02223e-05
4.19626e-05
2.47722e-05
3.64752e-05
3.03257e-05
4.18564e-05
2.48324e-05
3.64865e-05
2.24632e-05
2.27955e-05
3.39129e-05
2.24429e-05
2.27851e-05
3.81231e-05
1.64462e-05
3.81327e-05
1.64435e-05
1.04144e-05
1.04157e-05
3.71768e-05
1.60734e-05
3.71878e-05
1.60536e-05
2.10244e-05
2.10416e-05
2.10173e-05
2.10722e-05
2.10525e-05
2.10688e-05
2.10518e-05
4.17734e-05
3.60547e-05
2.54948e-05
3.0802e-05
4.17219e-05
3.60517e-05
2.55146e-05
1.02475e-05
1.02384e-05
4.20302e-05
2.49452e-05
3.65351e-05
3.04697e-05
4.20062e-05
2.49634e-05
3.65334e-05
2.25141e-05
2.28369e-05
3.40312e-05
2.24978e-05
2.28284e-05
3.82052e-05
1.64794e-05
3.81889e-05
1.64724e-05
1.04411e-05
1.0435e-05
3.72539e-05
1.60894e-05
3.72692e-05
1.6058e-05
2.10581e-05
2.10742e-05
2.10589e-05
2.10825e-05
2.10697e-05
2.10831e-05
2.10712e-05
4.18726e-05
3.61568e-05
2.55463e-05
3.08615e-05
4.18158e-05
3.61525e-05
2.55568e-05
1.026e-05
1.02414e-05
4.20885e-05
2.49929e-05
3.66139e-05
3.05236e-05
4.20505e-05
2.50004e-05
3.66201e-05
2.25666e-05
2.28833e-05
3.40885e-05
2.25383e-05
2.28677e-05
3.82573e-05
1.64878e-05
3.82619e-05
1.64726e-05
1.04458e-05
1.04357e-05
3.72155e-05
1.60712e-05
3.72809e-05
1.60344e-05
2.10704e-05
2.10832e-05
2.10719e-05
2.10733e-05
2.1067e-05
2.10756e-05
2.10686e-05
4.19146e-05
3.62056e-05
2.55843e-05
3.08998e-05
4.19064e-05
3.61338e-05
2.55861e-05
1.02472e-05
1.02263e-05
4.21449e-05
2.50147e-05
3.66605e-05
3.05532e-05
4.21225e-05
2.50163e-05
3.66289e-05
2.2564e-05
2.28886e-05
3.41249e-05
2.25149e-05
2.28559e-05
3.82694e-05
1.6489e-05
3.82742e-05
1.64752e-05
1.04425e-05
1.04307e-05
3.71807e-05
1.60602e-05
3.72205e-05
1.60373e-05
2.10652e-05
2.10729e-05
2.10673e-05
2.1068e-05
2.10639e-05
2.10707e-05
2.10665e-05
4.18403e-05
3.61405e-05
2.55751e-05
3.08854e-05
4.18375e-05
3.61145e-05
2.55736e-05
1.02408e-05
1.02268e-05
4.21616e-05
2.50168e-05
3.66362e-05
3.05474e-05
4.21496e-05
2.50167e-05
3.66249e-05
2.25416e-05
2.28761e-05
3.409e-05
2.25055e-05
2.28488e-05
3.82673e-05
1.64889e-05
3.829e-05
1.64774e-05
1.04393e-05
1.04319e-05
3.72152e-05
1.6069e-05
3.7246e-05
1.6043e-05
2.10637e-05
2.10709e-05
2.10664e-05
2.10699e-05
2.10644e-05
2.1073e-05
2.10678e-05
4.18288e-05
3.61237e-05
2.5576e-05
3.08801e-05
4.18437e-05
3.60763e-05
2.55744e-05
1.02443e-05
1.02295e-05
4.2148e-05
2.50148e-05
3.66365e-05
3.05488e-05
4.21469e-05
2.50142e-05
3.66118e-05
2.25349e-05
2.28682e-05
3.40934e-05
2.25016e-05
2.28497e-05
3.82974e-05
1.65003e-05
3.83009e-05
1.64886e-05
1.04443e-05
1.04348e-05
3.72371e-05
1.60753e-05
3.72631e-05
1.60491e-05
2.10666e-05
2.10752e-05
2.10708e-05
2.10816e-05
2.10803e-05
2.10851e-05
2.10841e-05
4.18495e-05
3.61305e-05
2.55749e-05
3.08822e-05
4.18181e-05
3.60949e-05
2.55804e-05
1.02483e-05
1.02329e-05
4.21795e-05
2.50159e-05
3.66515e-05
3.05556e-05
4.216e-05
2.50199e-05
3.66386e-05
2.25471e-05
2.28823e-05
3.4107e-05
2.25127e-05
2.28596e-05
3.83186e-05
1.65037e-05
3.83279e-05
1.64888e-05
1.04441e-05
1.04343e-05
3.72568e-05
1.60775e-05
3.72824e-05
1.60495e-05
2.10849e-05
2.10884e-05
2.10881e-05
2.10916e-05
2.10919e-05
2.1094e-05
2.10938e-05
4.18697e-05
3.61406e-05
2.55961e-05
3.09072e-05
4.1837e-05
3.61088e-05
2.56025e-05
1.02494e-05
1.02323e-05
4.22022e-05
2.50333e-05
3.66649e-05
3.0575e-05
4.21881e-05
2.50368e-05
3.66462e-05
2.25511e-05
2.2886e-05
3.41275e-05
2.251e-05
2.28587e-05
3.83126e-05
1.65015e-05
3.83336e-05
1.64844e-05
1.04399e-05
1.04271e-05
3.72443e-05
1.60712e-05
3.72966e-05
1.60393e-05
2.1092e-05
2.1094e-05
2.10938e-05
2.10849e-05
2.10853e-05
2.10867e-05
2.10859e-05
4.18599e-05
3.61255e-05
2.56097e-05
3.09111e-05
4.18623e-05
3.6078e-05
2.56092e-05
1.02441e-05
1.02253e-05
4.21959e-05
2.50395e-05
3.66587e-05
3.05794e-05
4.21976e-05
2.50389e-05
3.6634e-05
2.25364e-05
2.28792e-05
3.41297e-05
2.24933e-05
2.28502e-05
3.83112e-05
1.64973e-05
3.83279e-05
1.64807e-05
1.04347e-05
1.04247e-05
3.7221e-05
1.60604e-05
3.72646e-05
1.60294e-05
2.10808e-05
2.10821e-05
2.10818e-05
2.10712e-05
2.10712e-05
2.10729e-05
2.10741e-05
4.18224e-05
3.60922e-05
2.55917e-05
3.08869e-05
4.1817e-05
3.60501e-05
2.55874e-05
1.02369e-05
1.02187e-05
4.21857e-05
2.50274e-05
3.66485e-05
3.05635e-05
4.21806e-05
2.50251e-05
3.66246e-05
2.2521e-05
2.28718e-05
3.41073e-05
2.24796e-05
2.2845e-05
3.83137e-05
1.64928e-05
3.83309e-05
1.64754e-05
1.04305e-05
1.04182e-05
3.72107e-05
1.60526e-05
3.72447e-05
1.60219e-05
2.10699e-05
2.10716e-05
2.1073e-05
2.10662e-05
2.10644e-05
2.10672e-05
2.10688e-05
4.18024e-05
3.60705e-05
2.5576e-05
3.08724e-05
4.17873e-05
3.603e-05
2.55754e-05
1.02314e-05
1.02136e-05
4.22015e-05
2.50239e-05
3.66418e-05
3.05574e-05
4.21904e-05
2.50246e-05
3.66145e-05
2.25094e-05
2.28665e-05
3.41016e-05
2.2469e-05
2.28365e-05
3.82971e-05
1.64885e-05
3.83165e-05
1.64722e-05
1.04268e-05
1.04186e-05
3.71762e-05
1.60455e-05
3.72226e-05
1.60186e-05
2.10629e-05
2.10652e-05
2.10672e-05
2.10591e-05
2.10568e-05
2.10601e-05
2.10635e-05
4.17676e-05
3.60431e-05
2.55649e-05
3.08523e-05
4.17725e-05
3.60068e-05
2.55603e-05
1.02278e-05
1.02127e-05
4.21821e-05
2.50227e-05
3.66212e-05
3.05458e-05
4.21815e-05
2.50211e-05
3.66019e-05
2.24994e-05
2.28614e-05
3.40836e-05
2.24641e-05
2.2837e-05
3.82972e-05
1.64865e-05
3.83147e-05
1.64729e-05
1.04262e-05
1.04169e-05
3.72007e-05
1.60492e-05
3.72256e-05
1.60238e-05
2.10562e-05
2.10597e-05
2.10634e-05
2.10582e-05
2.10543e-05
2.10597e-05
2.1063e-05
4.17768e-05
3.60425e-05
2.55515e-05
3.08422e-05
4.17482e-05
3.60116e-05
2.55521e-05
1.02305e-05
1.02156e-05
4.21879e-05
2.50182e-05
3.66238e-05
3.05406e-05
4.21783e-05
2.50182e-05
3.66055e-05
2.25039e-05
2.28635e-05
3.40851e-05
2.24674e-05
2.28366e-05
3.82211e-05
1.64866e-05
3.83144e-05
1.64971e-05
1.04257e-05
1.0438e-05
3.72013e-05
1.60498e-05
3.72358e-05
1.60219e-05
2.10543e-05
2.10599e-05
2.10631e-05
2.11048e-05
2.11054e-05
2.09515e-05
2.09539e-05
4.17779e-05
3.60454e-05
2.55509e-05
3.08415e-05
4.17569e-05
3.60117e-05
2.5552e-05
1.02305e-05
1.02153e-05
4.21894e-05
2.50182e-05
3.66264e-05
3.05423e-05
4.2178e-05
2.50186e-05
3.66058e-05
2.2503e-05
2.28613e-05
3.40864e-05
2.24648e-05
2.28367e-05
1.03523e-05
1.62186e-05
3.73624e-05
2.1102e-05
2.08211e-05
2.08225e-05
3.6185e-05
2.51776e-05
4.16766e-05
1.02845e-05
2.4953e-05
3.67139e-05
4.21788e-05
2.26969e-05
2.30091e-05
2.21518e-05
2.24866e-05
3.32654e-05
2.2725e-05
2.25122e-05
1.02918e-05
1.03822e-05
1.02052e-05
1.02394e-05
3.3292e-05
2.22933e-05
2.26707e-05
2.27297e-05
2.24416e-05
1.03835e-05
1.03975e-05
4.07649e-05
2.52521e-05
3.55823e-05
3.03292e-05
3.5772e-05
4.06939e-05
2.49262e-05
3.72636e-05
1.63026e-05
1.63907e-05
3.70196e-05
3.72623e-05
1.62135e-05
1.62698e-05
3.70199e-05
4.08194e-05
2.99864e-05
2.46223e-05
3.60902e-05
3.5987e-05
4.11756e-05
2.46533e-05
4.08212e-05
3.01559e-05
2.46271e-05
3.60986e-05
3.59068e-05
4.11784e-05
2.47244e-05
3.74021e-05
1.63722e-05
1.64177e-05
3.76378e-05
3.74028e-05
1.63511e-05
1.63175e-05
3.76377e-05
1.00769e-05
1.01132e-05
1.0276e-05
1.03084e-05
3.35407e-05
2.22958e-05
2.26071e-05
2.25481e-05
2.22416e-05
1.01686e-05
1.01528e-05
1.03586e-05
1.03346e-05
1.03905e-05
1.0393e-05
1.02371e-05
1.02275e-05
2.27167e-05
2.23704e-05
3.36109e-05
2.27372e-05
2.23722e-05
1.04009e-05
1.04048e-05
1.02305e-05
1.02447e-05
3.36104e-05
2.2775e-05
2.24049e-05
2.27784e-05
2.24221e-05
3.79015e-05
1.63672e-05
1.63785e-05
3.77637e-05
4.15717e-05
3.61736e-05
2.45475e-05
3.00372e-05
3.62868e-05
2.45475e-05
4.12464e-05
4.15664e-05
3.61626e-05
2.4542e-05
3.00681e-05
3.62781e-05
2.45438e-05
4.12406e-05
3.7984e-05
1.64213e-05
1.6427e-05
3.804e-05
3.79751e-05
1.63981e-05
1.64013e-05
3.80314e-05
4.16202e-05
3.01055e-05
3.64059e-05
2.4645e-05
3.63576e-05
2.45733e-05
4.18304e-05
4.16145e-05
3.01201e-05
3.63965e-05
2.46425e-05
3.63487e-05
2.45704e-05
4.18247e-05
2.26511e-05
2.23515e-05
3.35967e-05
2.26802e-05
2.23686e-05
1.01923e-05
1.01965e-05
1.03863e-05
1.03874e-05
3.35961e-05
2.27271e-05
2.2419e-05
2.27256e-05
2.24264e-05
1.0214e-05
1.02177e-05
4.11678e-05
3.56722e-05
2.50807e-05
3.03044e-05
3.57569e-05
2.50862e-05
4.08316e-05
3.69176e-05
1.60232e-05
1.60118e-05
3.68322e-05
4.11595e-05
2.50857e-05
3.56386e-05
3.0281e-05
2.50939e-05
3.57225e-05
4.08238e-05
3.70105e-05
1.60334e-05
1.60579e-05
3.70441e-05
4.12057e-05
3.03846e-05
3.5877e-05
2.52116e-05
3.58406e-05
2.51271e-05
4.14348e-05
3.70044e-05
1.60181e-05
1.60426e-05
3.70377e-05
4.11974e-05
3.03632e-05
2.52095e-05
3.58417e-05
2.51263e-05
3.5806e-05
4.14259e-05
3.69392e-05
1.59594e-05
1.5964e-05
3.68457e-05
4.12974e-05
2.51579e-05
3.56834e-05
3.03539e-05
2.516e-05
3.57701e-05
4.09979e-05
3.69376e-05
1.59592e-05
1.59631e-05
3.6844e-05
4.13322e-05
3.04111e-05
3.59009e-05
2.5226e-05
3.58631e-05
2.51663e-05
4.15327e-05
3.7031e-05
1.5995e-05
1.60043e-05
3.70705e-05
4.13285e-05
3.04056e-05
2.52279e-05
3.5891e-05
2.51732e-05
3.58552e-05
4.15288e-05
3.70294e-05
1.59933e-05
1.60033e-05
3.70691e-05
2.23579e-05
2.27339e-05
3.36103e-05
2.23595e-05
2.2754e-05
1.04012e-05
1.04038e-05
1.022e-05
1.02341e-05
3.36092e-05
2.23918e-05
2.27913e-05
2.24094e-05
2.27952e-05
1.0412e-05
1.04155e-05
4.15783e-05
2.4591e-05
3.62111e-05
3.00648e-05
4.12513e-05
2.46002e-05
3.63266e-05
3.78993e-05
1.64028e-05
3.77606e-05
1.64111e-05
3.78989e-05
1.63853e-05
3.77603e-05
1.63969e-05
4.1624e-05
3.00818e-05
2.47041e-05
3.64329e-05
2.46371e-05
3.63849e-05
4.18358e-05
4.16269e-05
3.0106e-05
2.47146e-05
3.64451e-05
2.46473e-05
3.63972e-05
4.18388e-05
3.79738e-05
1.64271e-05
1.64324e-05
3.80319e-05
3.79735e-05
1.64173e-05
1.64202e-05
3.80317e-05
1.01943e-05
1.01957e-05
1.03809e-05
1.03903e-05
3.36182e-05
2.24176e-05
2.27614e-05
2.24288e-05
2.27586e-05
1.02104e-05
1.02163e-05
1.04052e-05
1.04052e-05
1.04108e-05
1.0404e-05
1.02468e-05
1.0232e-05
2.28065e-05
2.24472e-05
3.39039e-05
2.27907e-05
2.242e-05
1.04096e-05
1.04136e-05
1.02376e-05
1.02488e-05
3.38958e-05
2.27982e-05
2.24319e-05
2.28176e-05
2.24586e-05
3.80877e-05
1.64154e-05
3.80715e-05
1.64041e-05
4.1953e-05
3.6449e-05
2.4715e-05
3.03398e-05
4.18504e-05
3.64601e-05
2.47735e-05
4.19475e-05
3.64396e-05
2.47125e-05
3.03545e-05
4.18448e-05
3.64512e-05
2.47704e-05
3.81183e-05
1.64268e-05
1.64372e-05
3.81153e-05
3.81112e-05
1.64135e-05
1.64201e-05
3.81088e-05
4.19554e-05
3.03935e-05
3.64807e-05
2.48551e-05
3.64876e-05
2.48199e-05
4.19944e-05
4.195e-05
3.04068e-05
3.64746e-05
2.48517e-05
3.6479e-05
2.48165e-05
4.19898e-05
2.27604e-05
2.24668e-05
3.39019e-05
2.2754e-05
2.24445e-05
1.02335e-05
1.02296e-05
1.04014e-05
1.04026e-05
3.38947e-05
2.27628e-05
2.24767e-05
2.2779e-05
2.24958e-05
1.02439e-05
1.02487e-05
4.15816e-05
3.5938e-05
2.52931e-05
3.06392e-05
4.14513e-05
3.59426e-05
2.53639e-05
3.70999e-05
1.60458e-05
3.70998e-05
1.60203e-05
4.15717e-05
2.5292e-05
3.59025e-05
3.06139e-05
4.14422e-05
2.53624e-05
3.59071e-05
3.71558e-05
1.60422e-05
1.60638e-05
3.71419e-05
4.1582e-05
3.06964e-05
3.5978e-05
2.54604e-05
3.59895e-05
2.54193e-05
4.16527e-05
3.71483e-05
1.60293e-05
1.60497e-05
3.71341e-05
4.1572e-05
3.06719e-05
2.54584e-05
3.59436e-05
2.54179e-05
3.59543e-05
4.1642e-05
3.71411e-05
1.60304e-05
3.71358e-05
1.60175e-05
4.16531e-05
2.53085e-05
3.59508e-05
3.06502e-05
4.15401e-05
2.53755e-05
3.59541e-05
3.71397e-05
1.60286e-05
3.71344e-05
1.60148e-05
4.1657e-05
3.07137e-05
3.6008e-05
2.54656e-05
3.60147e-05
2.54252e-05
4.17263e-05
3.71936e-05
1.60419e-05
1.6053e-05
3.71874e-05
4.16527e-05
3.07067e-05
2.54685e-05
3.59934e-05
2.54285e-05
3.60017e-05
4.17216e-05
3.71923e-05
1.60375e-05
1.605e-05
3.71861e-05
2.24343e-05
2.28228e-05
3.38957e-05
2.24076e-05
2.2808e-05
1.04219e-05
1.04172e-05
1.0229e-05
1.02395e-05
3.38872e-05
2.24221e-05
2.28248e-05
2.24474e-05
2.28369e-05
1.04275e-05
1.04279e-05
4.19656e-05
2.47828e-05
3.64876e-05
3.03471e-05
4.18594e-05
2.48417e-05
3.64995e-05
3.80905e-05
1.64434e-05
3.80726e-05
1.64312e-05
3.80903e-05
1.64351e-05
3.80724e-05
1.64254e-05
4.19658e-05
3.03806e-05
2.49186e-05
3.65108e-05
2.48812e-05
3.65142e-05
4.20082e-05
4.19688e-05
3.04011e-05
2.49249e-05
3.65259e-05
2.48891e-05
3.65278e-05
4.20113e-05
3.81147e-05
1.64448e-05
1.64478e-05
3.81141e-05
3.81146e-05
1.6439e-05
1.64426e-05
3.81143e-05
1.02294e-05
1.02222e-05
1.04167e-05
1.0414e-05
3.39052e-05
2.2468e-05
2.28049e-05
2.24869e-05
2.2816e-05
1.0236e-05
1.02416e-05
1.04251e-05
1.04257e-05
1.04217e-05
1.04216e-05
1.02558e-05
1.02463e-05
2.28294e-05
2.24746e-05
3.40093e-05
2.28203e-05
2.24538e-05
1.04324e-05
1.04339e-05
1.02516e-05
1.02643e-05
3.39915e-05
2.28472e-05
2.24761e-05
2.28542e-05
2.24981e-05
3.8119e-05
1.64341e-05
3.8127e-05
1.64329e-05
4.20102e-05
3.65028e-05
2.48806e-05
3.04791e-05
4.19917e-05
3.64862e-05
2.48977e-05
4.2007e-05
3.64988e-05
2.48776e-05
3.04955e-05
4.19873e-05
3.64876e-05
2.48954e-05
3.8146e-05
1.64609e-05
1.64635e-05
3.81585e-05
3.81422e-05
1.64542e-05
1.64547e-05
3.81544e-05
4.20059e-05
3.04909e-05
3.65246e-05
2.49164e-05
3.6513e-05
2.49087e-05
4.20248e-05
4.20029e-05
3.05081e-05
3.65279e-05
2.49152e-05
3.65156e-05
2.4907e-05
4.20229e-05
2.27958e-05
2.2524e-05
3.40233e-05
2.27895e-05
2.25117e-05
1.02641e-05
1.02602e-05
1.04294e-05
1.04293e-05
3.40068e-05
2.28212e-05
2.25461e-05
2.28254e-05
2.25609e-05
1.02717e-05
1.02798e-05
4.16958e-05
3.602e-05
2.54885e-05
3.07847e-05
4.16484e-05
3.60011e-05
2.55066e-05
3.71695e-05
1.60613e-05
3.71801e-05
1.60428e-05
4.16847e-05
2.54863e-05
3.59864e-05
3.07652e-05
4.16375e-05
2.55038e-05
3.59721e-05
3.72269e-05
1.60616e-05
1.60846e-05
3.72201e-05
4.16895e-05
3.07976e-05
3.60385e-05
2.55233e-05
3.60452e-05
2.55169e-05
4.17313e-05
3.72199e-05
1.6052e-05
1.60744e-05
3.72139e-05
4.16784e-05
3.078e-05
2.55202e-05
3.60108e-05
2.5514e-05
3.60178e-05
4.17205e-05
3.72343e-05
1.60784e-05
3.72383e-05
1.60669e-05
4.17684e-05
2.54975e-05
3.6039e-05
3.08001e-05
4.17172e-05
2.55171e-05
3.60335e-05
3.72328e-05
1.60735e-05
3.7237e-05
1.60606e-05
4.17681e-05
3.08164e-05
3.61054e-05
2.55371e-05
3.61027e-05
2.55276e-05
4.18203e-05
3.72877e-05
1.60852e-05
1.61018e-05
3.72859e-05
4.17631e-05
3.08156e-05
2.55393e-05
3.60815e-05
2.553e-05
3.60827e-05
4.1815e-05
3.72862e-05
1.60772e-05
1.60951e-05
3.72843e-05
2.24654e-05
2.2858e-05
3.4001e-05
2.24453e-05
2.28526e-05
1.04405e-05
1.04414e-05
1.02438e-05
1.02565e-05
3.39832e-05
2.24676e-05
2.28816e-05
2.24899e-05
2.28881e-05
1.04518e-05
1.04539e-05
4.20335e-05
2.49508e-05
3.65513e-05
3.04918e-05
4.20093e-05
2.49685e-05
3.65464e-05
3.81342e-05
1.64651e-05
3.81336e-05
1.64637e-05
3.81347e-05
1.64593e-05
3.81341e-05
1.64571e-05
4.2027e-05
3.04839e-05
2.49849e-05
3.658e-05
2.49756e-05
3.65673e-05
4.20522e-05
4.20302e-05
3.05074e-05
2.49901e-05
3.65888e-05
2.49808e-05
3.65783e-05
4.20553e-05
3.81579e-05
1.64807e-05
1.64842e-05
3.8166e-05
3.81582e-05
1.64745e-05
1.64777e-05
3.8166e-05
1.02558e-05
1.02498e-05
1.04377e-05
1.04374e-05
3.40143e-05
2.25243e-05
2.28526e-05
2.2544e-05
2.28617e-05
1.02588e-05
1.02688e-05
1.04473e-05
1.04497e-05
1.0443e-05
1.04375e-05
1.02678e-05
1.02494e-05
2.28796e-05
2.2517e-05
3.40569e-05
2.28662e-05
2.24859e-05
1.04369e-05
1.04465e-05
1.02416e-05
1.02638e-05
3.40408e-05
2.287e-05
2.24721e-05
2.28941e-05
2.2521e-05
3.82017e-05
1.64746e-05
3.81851e-05
1.64694e-05
4.20645e-05
3.65579e-05
2.49232e-05
3.05236e-05
4.20227e-05
3.65661e-05
2.49304e-05
4.20633e-05
3.65637e-05
2.49227e-05
3.05449e-05
4.20209e-05
3.65773e-05
2.49306e-05
3.82338e-05
1.64734e-05
1.64882e-05
3.82406e-05
3.82307e-05
1.64749e-05
1.6487e-05
3.82376e-05
4.20657e-05
3.05354e-05
3.65914e-05
2.49438e-05
3.65943e-05
2.49376e-05
4.21131e-05
4.20649e-05
3.05581e-05
3.66078e-05
2.49455e-05
3.66079e-05
2.49386e-05
4.21133e-05
2.28552e-05
2.25912e-05
3.40911e-05
2.28496e-05
2.25619e-05
1.02892e-05
1.02763e-05
1.04373e-05
1.04455e-05
3.40757e-05
2.28486e-05
2.25565e-05
2.28739e-05
2.26028e-05
1.02687e-05
1.02905e-05
4.17704e-05
3.60838e-05
2.55286e-05
3.08374e-05
4.1725e-05
3.6072e-05
2.55354e-05
3.72487e-05
1.608e-05
3.72633e-05
1.60491e-05
4.17607e-05
2.55258e-05
3.60566e-05
3.08247e-05
4.17143e-05
2.55328e-05
3.60454e-05
3.72952e-05
1.60459e-05
1.60841e-05
3.72518e-05
4.17643e-05
3.08523e-05
3.60826e-05
2.55506e-05
3.61141e-05
2.55431e-05
4.18028e-05
3.72903e-05
1.6037e-05
1.60752e-05
3.72482e-05
4.17547e-05
3.08409e-05
2.55487e-05
3.6057e-05
2.5541e-05
3.60878e-05
4.17941e-05
3.73273e-05
1.61159e-05
3.73379e-05
1.60912e-05
4.18668e-05
2.55483e-05
3.61307e-05
3.086e-05
4.18103e-05
2.55586e-05
3.61237e-05
3.73255e-05
1.61078e-05
3.73363e-05
1.60823e-05
4.1868e-05
3.08785e-05
3.61747e-05
2.55781e-05
3.61977e-05
2.55683e-05
4.19147e-05
3.73709e-05
1.60835e-05
1.61179e-05
3.73368e-05
4.18622e-05
3.08745e-05
2.55791e-05
3.61412e-05
2.55696e-05
3.61674e-05
4.19086e-05
3.73691e-05
1.60742e-05
1.61091e-05
3.73347e-05
2.25085e-05
2.29134e-05
3.40539e-05
2.24768e-05
2.28982e-05
1.04619e-05
1.0455e-05
1.02332e-05
1.02557e-05
3.40378e-05
2.24621e-05
2.28946e-05
2.25116e-05
2.29251e-05
1.04524e-05
1.04634e-05
4.20918e-05
2.49983e-05
3.6622e-05
3.0548e-05
4.20535e-05
2.50057e-05
3.66278e-05
3.82017e-05
1.64986e-05
3.81926e-05
1.64893e-05
3.82021e-05
1.64932e-05
3.81927e-05
1.64858e-05
4.20881e-05
3.05362e-05
2.50117e-05
3.66396e-05
2.50068e-05
3.66472e-05
4.21246e-05
4.20913e-05
3.05596e-05
2.50166e-05
3.6649e-05
2.5012e-05
3.66554e-05
4.21282e-05
3.82263e-05
1.64884e-05
1.65041e-05
3.82286e-05
3.82269e-05
1.6488e-05
1.65023e-05
3.82294e-05
1.02759e-05
1.02603e-05
1.04576e-05
1.04514e-05
3.40719e-05
2.25306e-05
2.28665e-05
2.25757e-05
2.28947e-05
1.02549e-05
1.02755e-05
1.04499e-05
1.04603e-05
1.04449e-05
1.04344e-05
1.02557e-05
1.02353e-05
2.28924e-05
2.25053e-05
3.4103e-05
2.28589e-05
2.24548e-05
1.04339e-05
1.04428e-05
1.02342e-05
1.02505e-05
3.40801e-05
2.28533e-05
2.24466e-05
2.28818e-05
2.24885e-05
3.82544e-05
1.64898e-05
3.8259e-05
1.64746e-05
4.21411e-05
3.66148e-05
2.49481e-05
3.0553e-05
4.21124e-05
3.65902e-05
2.49503e-05
4.21416e-05
3.6633e-05
2.49503e-05
3.05796e-05
4.21127e-05
3.66126e-05
2.49528e-05
3.82738e-05
1.64731e-05
1.64871e-05
3.82586e-05
3.8271e-05
1.64737e-05
1.64892e-05
3.82554e-05
4.2137e-05
3.05526e-05
3.65738e-05
2.49505e-05
3.66061e-05
2.49507e-05
4.21463e-05
4.21375e-05
3.05794e-05
3.65942e-05
2.49532e-05
3.66288e-05
2.49534e-05
4.21464e-05
2.28731e-05
2.25895e-05
3.41443e-05
2.28427e-05
2.25375e-05
1.02825e-05
1.02611e-05
1.04342e-05
1.04439e-05
3.41211e-05
2.28366e-05
2.2527e-05
2.28658e-05
2.25712e-05
1.02568e-05
1.02755e-05
4.18067e-05
3.6111e-05
2.55556e-05
3.08719e-05
4.17941e-05
3.60415e-05
2.55574e-05
3.72118e-05
1.60623e-05
3.72772e-05
1.6025e-05
4.17986e-05
2.5554e-05
3.60858e-05
3.08627e-05
4.17855e-05
2.55558e-05
3.6016e-05
3.72457e-05
1.60316e-05
1.60607e-05
3.71884e-05
4.17802e-05
3.08707e-05
3.60144e-05
2.55531e-05
3.6069e-05
2.55568e-05
4.17611e-05
3.72419e-05
1.60213e-05
1.60512e-05
3.71846e-05
4.17723e-05
3.08619e-05
2.5552e-05
3.59881e-05
2.55554e-05
3.60434e-05
4.17531e-05
3.73016e-05
1.6109e-05
3.73664e-05
1.60717e-05
4.19083e-05
2.55848e-05
3.61712e-05
3.089e-05
4.19003e-05
2.55864e-05
3.6101e-05
3.72994e-05
1.60999e-05
3.73643e-05
1.60631e-05
4.1885e-05
3.08984e-05
3.61062e-05
2.55801e-05
3.61611e-05
2.55853e-05
4.18625e-05
3.73321e-05
1.60654e-05