/*--------------------------------*- C++ -*----------------------------------*\
| =========                 |                                                 |
| \\      /  F ield         | OpenFOAM: The Open Source CFD Toolbox           |
|  \\    /   O peration     | Version:  2206                                  |
|   \\  /    A nd           | Website:  www.openfoam.com                      |
|    \\/     M anipulation  |                                                 |
\*---------------------------------------------------------------------------*/
FoamFile
{
    version     2.0;
    format      ascii;
    arch        "LSB;label=32;scalar=64";
    class       volScalarField;
    location    "0.5";
    object      omega;
}
// * * * * * * * * * * * * * * * * * * * * * * * * * * * * * * * * * * * * * //

dimensions      [0 0 -1 0 0 0 0];

internalField   nonuniform List<scalar> 
66701
(
408.592
430.838
302.882
218.726
334.638
167.415
181.505
313.643
430.839
302.897
218.73
334.649
167.412
313.646
181.504
408.574
726.307
1599.5
4398.9
16447
116912
723.491
1597.7
4395.93
16437
116840
739.96
1603.79
4402.31
16444.4
116802
739.968
1603.77
4402.28
16444.6
116814
726.299
1599.45
4398.6
16444.7
116892
723.494
1597.7
4395.98
16437.1
116852
731.341
1600.6
4397.68
16432.9
116752
732.803
1600.01
4395.69
16427.8
116727
731.331
1600.59
4397.66
16432.2
116747
732.798
1599.99
4395.64
16427.6
116725
407.972
408.559
46.3272
206.028
206.937
302.364
34.5097
156.291
167.415
302.852
91.0607
35.2681
157.232
25.9862
167.412
302.865
91.054
35.2783
26.0131
157.214
408.533
46.3187
206.893
408.375
250.373
413.722
414.371
250.414
413.515
414.208
175.426
307.795
120.664
205.55
175.204
307.698
120.696
175.114
309.286
121.55
206.935
174.855
309.184
121.812
334.47
181.51
313.595
167.691
334.592
181.771
313.487
430.549
218.701
302.768
430.777
218.698
334.48
313.598
181.508
167.688
334.603
313.49
181.769
430.548
218.704
302.782
430.777
218.702
408.352
250.299
414.176
413.539
175.11
121.606
206.892
121.862
309.153
175.49
205.061
307.825
120.618
406.965
20.4117
17.1447
17.2841
15.9027
20.4018
17.1401
17.2766
15.8939
17.2699
15.883
17.2762
15.8837
111.887
46.428
74.5882
75.2047
111.641
74.768
75.4706
65.3771
120.439
88.4514
155.147
87.8045
66.4345
119.19
56.0438
100.531
50.3463
91.4029
55.7913
100.854
50.6034
67.3583
121.404
89.6467
157.489
89.9748
67.1411
121.698
56.0462
50.3491
100.515
91.3963
55.7867
50.6059
100.84
67.3584
121.392
89.562
157.474
67.1344
121.687
89.8892
111.861
46.4456
75.1458
75.4112
74.6027
726.485
1599.59
4398.93
16446.7
116912
726.291
1599.5
4398.91
16447
116912
740.208
1603.91
4402.46
16445.3
116814
739.948
1603.78
4402.31
16444.4
116802
739.955
1603.76
4402.29
16444.6
116814
726.278
1599.44
4398.59
16444.7
116892
726.103
1599.34
4398.79
16446.9
116912
731.115
1600.45
4397.59
16432.8
116752
732.791
1600.01
4395.7
16427.8
116727
731.328
1600.6
4397.7
16432.9
116752
732.575
1599.85
4395.6
16427.7
116727
739.705
1603.57
4402.14
16444.3
116802
731.104
1600.44
4397.57
16432.2
116747
732.785
1599.99
4395.65
16427.6
116725
731.317
1600.6
4397.67
16432.2
116747
732.569
1599.84
4395.54
16427.5
116725
739.713
1603.55
4402.12
16444.5
116814
726.09
1599.29
4398.47
16444.6
116892
738.97
1603.35
4401.23
16440.1
116759
726.494
1599.35
4398.36
16444.1
116881
723.931
1599.89
4400.39
16448.6
116901
739.067
1603.51
4401.58
16440.5
116776
738.93
1603.36
4401.45
16440.4
116776
723.878
1599.9
4400.43
16449.8
116921
738.867
1603.5
4401.61
16442.4
116795
738.657
1603.34
4401.49
16442.4
116795
723.755
1599.74
4400.28
16448.6
116901
723.692
1599.75
4400.32
16449.8
116921
723.251
1597.5
4395.8
16436.9
116840
723.46
1597.67
4395.92
16437
116840
723.252
1597.51
4395.84
16437
116852
723.461
1597.67
4395.96
16437.1
116852
738.637
1603.29
4401.32
16441.1
116778
723.691
1599.78
4400.57
16450.8
116918
723.77
1599.78
4400.48
16449.9
116904
33.6372
46.2033
20.3716
35.1029
34.3548
46.2954
20.4052
35.2148
34.4225
46.3621
20.3896
35.2188
34.4104
46.3474
20.3552
35.2185
34.3888
46.3526
20.3286
35.1993
34.3611
46.3235
20.3176
35.2209
34.3612
46.3535
20.3025
35.2154
34.3511
46.3182
20.2947
35.2139
34.3452
46.3436
20.2948
35.2162
34.347
46.3384
20.298
35.2186
34.3518
46.3381
20.2986
35.2142
34.3529
46.3419
20.2975
35.2088
34.3512
46.3422
20.2955
35.2041
34.3469
46.3389
20.2935
35.2017
34.3461
46.3409
20.2944
35.2022
34.3462
46.3395
20.3914
34.5928
33.8942
45.5594
45.6599
46.325
34.0669
34.3482
34.2602
46.3791
46.2572
46.4716
34.3974
34.331
34.4682
34.4196
46.2823
46.4711
35.2222
35.1903
35.2986
35.2826
35.0707
35.2048
35.1913
46.259
46.4715
34.2788
34.4152
34.3533
46.4629
46.3764
46.4813
34.4735
34.4254
34.4633
34.4266
46.3717
46.4415
35.3047
35.2921
35.2997
35.2975
35.2062
35.2181
35.2218
46.3763
46.4844
34.3651
34.4165
34.3703
46.4486
46.3815
46.4798
34.4564
34.4212
34.4394
34.4111
46.3401
46.4426
35.2959
35.2955
35.2848
35.2882
35.2239
35.2202
35.2279
46.3847
46.4892
34.369
34.3954
34.3638
46.455
46.3787
46.4515
34.433
34.4049
34.4089
34.3906
46.3408
46.412
35.2788
35.2833
35.2475
35.2537
35.2276
35.2007
35.2151
46.3878
46.4578
34.3596
34.3653
34.3454
46.4307
46.3435
46.4337
34.4044
34.3875
34.4027
34.3931
46.3039
46.4115
35.2388
35.245
35.2331
35.2398
35.2141
35.2129
35.2262
46.3492
46.4455
34.3443
34.3607
34.3504
46.4437
46.3434
46.4378
34.4043
34.3968
34.3954
34.3979
46.328
46.4282
35.2337
35.2401
35.2157
35.2232
35.2303
35.2155
35.2237
46.3542
46.4432
34.3515
34.3538
34.3469
46.4277
46.3255
46.4293
34.3923
34.3962
34.3883
34.395
46.315
46.448
35.2099
35.2184
35.205
35.2135
35.2234
35.2163
35.2231
46.3326
46.4397
34.3466
34.3462
34.3433
46.4535
46.3308
46.4183
34.3884
34.3931
34.3878
34.3928
46.3473
46.4199
35.2051
35.2127
35.2065
35.214
35.2207
35.2146
35.2223
46.3393
46.4254
34.3416
34.3455
34.342
46.4365
46.3201
46.4399
34.3891
34.3935
34.3946
34.3947
46.3261
46.4331
35.209
35.2167
35.2167
35.2236
35.2237
35.2185
35.227
46.328
46.4448
34.343
34.351
34.3454
46.442
46.3357
46.4424
34.3954
34.3944
34.3969
34.3964
46.3331
46.4303
35.2174
35.2243
35.2181
35.2255
35.2262
35.2155
35.2244
46.3395
46.4503
34.3457
34.3532
34.3468
46.4474
46.3401
46.4344
34.3973
34.3966
34.3962
34.3939
46.3292
46.4325
35.2162
35.2232
35.2129
35.2196
35.2222
35.2103
35.2199
46.3464
46.4413
34.3469
34.352
34.3479
46.4469
46.3313
46.431
34.3962
34.3929
34.3934
34.3926
46.3287
46.4263
35.2113
35.2173
35.208
35.2148
35.2181
35.2056
35.2162
46.3373
46.438
34.3475
34.3487
34.3459
46.4435
46.3265
46.4286
34.3922
34.3908
34.3903
34.388
46.3237
46.4278
35.2061
35.2119
35.2044
35.2109
35.2138
35.2023
35.2136
46.3329
46.4366
34.3447
34.3463
34.3448
46.4446
46.3248
46.4307
34.3904
34.3869
34.3908
34.389
46.3248
46.4241
35.2046
35.2104
35.2062
35.2126
35.2129
35.2025
35.2143
46.3323
46.4388
34.3445
34.3471
34.3448
46.4436
46.3268
46.4244
34.3908
34.3879
35.1642
35.1611
46.3229
46.4242
35.2061
35.2115
35.0337
35.0133
35.2128
35.0333
35.0152
46.3337
46.2771
34.3438
34.2222
34.22
46.2799
35.2617
46.3441
34.6209
34.5148
34.5161
45.557
33.8962
407.98
406.266
88.1128
24.6715
154.412
33.6214
154.099
87.9329
24.6943
206.949
205.414
46.3201
205.364
206.961
164.262
300.885
300.862
164.167
407.116
406.979
167.78
302.842
302.792
167.552
20.2483
20.3642
20.2331
20.4042
20.2992
20.4055
20.2969
91.5663
157.277
25.801
35.1528
157.506
25.8544
91.2823
408.556
408.39
88.1252
24.8912
154.901
34.372
88.0097
24.9392
155.028
206.86
205.257
46.4425
206.805
205.247
164.251
300.896
164.121
300.843
407.109
406.941
167.721
302.896
167.458
302.793
20.3059
20.4108
20.3086
20.3976
20.3126
20.408
20.3226
91.5055
157.212
25.9346
35.2187
91.2033
157.466
25.9426
408.57
408.358
88.1353
24.9891
154.841
34.4238
87.9972
24.9916
154.994
206.762
205.234
46.4578
206.75
205.226
164.26
300.884
164.131
300.836
407.092
406.959
167.703
302.895
167.433
302.796
20.3113
20.4002
20.3232
20.3626
20.3052
20.3754
20.3197
91.4961
157.194
25.9509
35.2198
91.1744
157.45
25.9525
408.563
408.362
88.16
24.9805
154.83
34.4052
88.0242
24.974
154.989
206.746
205.216
46.4531
206.74
205.21
164.253
300.882
164.133
300.834
407.094
406.938
167.687
302.901
167.419
302.802
20.3033
20.3668
20.3176
20.3332
20.2998
20.3453
20.3143
91.475
157.172
25.9539
35.2144
91.1704
157.426
25.9512
408.574
408.372
88.1648
24.9545
154.817
34.3808
88.0411
24.9483
154.967
206.74
205.203
46.4487
206.736
205.199
164.24
300.883
164.112
300.836
407.097
406.968
167.691
302.907
167.406
302.808
20.2988
20.341
20.3144
20.32
20.3036
20.3332
20.3178
91.4196
157.156
25.9411
35.2
91.1084
157.432
25.941
408.581
408.377
88.1275
24.9345
154.798
34.3598
88.002
24.9333
154.965
206.743
205.2
46.4154
206.745
205.2
164.233
300.884
164.117
300.838
407.108
406.945
167.697
302.91
167.43
302.808
20.3035
20.33
20.318
20.3059
20.3029
20.3185
20.3146
91.5285
157.193
25.9543
35.2219
91.202
157.444
25.9561
408.584
408.378
88.1418
24.932
154.807
34.3605
88.0247
24.9312
154.959
206.75
205.199
46.47
206.744
205.194
164.212
300.891
164.087
300.844
407.098
406.964
167.684
302.907
167.407
302.807
20.3015
20.3153
20.313
20.2958
20.2988
20.309
20.309
91.4952
157.181
25.948
35.2169
91.1149
157.455
25.9486
408.583
408.376
88.1411
24.9278
154.791
34.3493
88.0028
24.9269
154.952
206.746
205.193
46.434
206.742
205.19
164.202
300.896
164.079
300.851
407.105
406.949
167.685
302.907
167.41
302.805
20.2977
20.3082
20.3084
20.2952
20.298
20.3082
20.3085
91.4491
157.173
25.9472
35.2131
91.168
157.442
25.9454
408.58
408.372
88.1075
24.9244
154.785
34.3449
87.9848
24.9244
154.946
206.742
205.191
46.4216
206.739
205.192
164.214
300.902
164.082
300.855
407.116
406.983
167.692
302.906
167.413
302.804
20.2975
20.3089
20.3092
20.2985
20.2998
20.3115
20.3107
91.4791
157.187
25.9485
35.2183
91.1818
157.444
25.9499
408.575
408.368
88.1105
24.9257
154.792
34.3491
87.9838
24.9266
154.956
206.743
205.199
46.4426
206.741
205.201
164.224
300.903
164.094
300.854
407.117
406.955
167.689
302.903
167.41
302.801
20.2991
20.312
20.3108
20.2994
20.2994
20.3123
20.3105
91.4783
157.185
25.9517
35.2176
91.1743
157.451
25.9507
408.571
408.365
88.1205
24.9276
154.801
34.3528
87.9863
24.9279
154.964
206.747
205.205
46.4388
206.745
205.205
164.222
300.9
164.098
300.853
407.111
406.978
167.686
302.902
167.413
302.801
20.2985
20.312
20.3102
20.2984
20.2978
20.3109
20.3098
91.484
157.194
25.9478
35.2143
91.1794
157.456
25.9469
408.57
408.366
88.1246
24.9285
154.804
34.353
87.9971
24.929
154.965
206.751
205.205
46.4346
206.749
205.204
164.217
300.898
164.093
300.853
407.109
406.952
167.688
302.903
167.414
302.803
20.2968
20.3106
20.3096
20.2966
20.2956
20.3088
20.3081
91.4868
157.195
25.9435
35.208
91.1767
157.462
25.9436
408.571
408.367
88.1177
24.9305
154.803
34.3511
87.9974
24.9307
154.965
206.754
205.203
46.4321
206.753
205.204
164.218
300.896
164.091
300.856
407.102
406.981
167.693
302.903
167.418
302.805
20.2946
20.3079
20.3075
20.2943
20.2933
20.3065
20.3067
91.4887
157.203
25.939
35.2044
91.1766
157.464
25.9378
408.57
408.369
88.118
24.9286
154.804
34.347
87.9953
24.9282
154.966
206.753
205.2
46.4285
206.756
205.206
164.218
300.889
164.092
300.864
407.094
406.966
167.692
302.902
167.418
302.807
20.2925
20.3064
20.3067
20.2945
20.2929
20.3069
20.3069
91.4875
157.199
25.9365
35.2028
91.178
157.465
25.9372
408.569
408.372
88.1161
24.9276
154.803
34.3469
87.9953
24.9277
154.966
206.746
205.195
46.4301
206.764
205.211
164.878
300.856
164.141
300.691
407.072
406.806
167.694
302.899
167.415
302.815
20.2922
20.3069
20.3068
20.395
20.3914
20.1767
20.1768
91.4879
157.203
25.937
35.204
91.1776
157.466
25.9382
408.563
408.382
88.114
24.9277
154.801
34.3469
87.9946
24.9279
154.942
206.734
205.188
46.4289
206.77
205.211
408.554
301.913
166.022
20.3889
20.0107
20.0102
155.831
25.3704
89.6191
407.646
24.8281
153.89
87.9902
205.871
204.538
206.374
204.884
44.8441
203.985
204.897
406.509
406.048
408.307
407.484
45.3099
206.819
205.041
204.274
205.801
406.93
406.475
88.1173
24.7403
155.118
34.1252
155.204
87.9361
24.7537
164.418
300.456
300.138
164.378
164.427
301.01
300.918
164.38
88.0065
33.7629
24.8263
155.074
154.059
88.1493
24.6529
88.0095
34.1848
24.8274
155.142
155.025
88.154
24.774
164.276
300.822
300.255
164.339
164.275
300.887
300.955
164.343
408.566
408.387
407.151
406.988
46.2316
206.906
205.273
205.276
206.898
408.358
408.608
407.004
407.096
407.066
406.961
408.577
408.412
204.985
206.881
46.4233
205.023
206.925
406.94
407.089
408.392
408.613
46.3396
205.025
206.934
205.022
206.933
164.265
300.928
300.869
164.172
88.0895
154.865
24.8668
34.4362
154.996
24.9065
87.9588
88.0922
154.954
24.8502
34.3756
155.076
24.889
87.9636
164.129
300.853
300.907
164.248
164.13
300.86
300.915
164.25
87.9609
34.458
154.974
24.9516
154.83
24.9344
88.0926
87.9635
34.4037
155.047
24.9361
154.908
24.9177
88.0945
205.21
206.837
46.4379
205.196
206.819
408.55
408.347
406.975
407.112
46.3507
205.183
206.806
205.185
206.821
408.341
408.551
91.4774
157.275
25.9759
35.2625
157.498
26.0123
91.115
167.777
302.854
302.804
167.549
91.4707
25.9961
157.257
35.2341
26.0336
157.481
91.1083
167.491
302.797
302.897
167.739
91.1583
35.2864
157.479
26.0479
157.228
26.0352
91.4857
167.488
302.808
302.909
167.736
91.1516
35.2648
26.0629
157.463
26.052
157.211
91.4799
167.754
302.915
302.805
167.526
91.5599
25.8252
157.271
35.1259
25.8781
157.498
91.2753
167.749
302.928
302.818
167.52
91.2349
35.1862
157.479
25.9196
157.236
25.8939
91.533
167.467
302.794
302.904
167.717
91.2288
35.166
25.9371
157.467
25.9148
157.227
91.5276
167.462
302.808
302.917
167.713
206.834
205.049
46.4241
206.879
205.077
407.09
406.983
408.371
408.592
46.3396
206.887
205.078
206.886
205.08
406.966
407.113
88.1282
24.8888
154.969
34.2991
88.0145
24.934
155.094
164.289
300.889
164.194
300.865
164.289
300.93
164.198
300.873
87.9949
34.3973
24.9818
155.004
24.9664
154.862
88.1239
87.9976
34.3299
24.9746
155.068
24.9602
154.926
88.1258
164.153
300.856
300.91
164.268
164.152
300.864
300.917
164.267
408.543
408.328
407.149
407.024
46.3507
206.765
205.236
206.79
205.243
408.319
408.529
407.016
407.153
407.059
406.921
408.591
408.38
205.021
206.937
46.4811
205.018
206.932
406.915
407.048
408.379
408.583
46.3808
205.012
206.931
205.015
206.935
164.253
300.905
164.121
300.85
88.1052
154.81
24.9609
34.4741
87.9664
154.965
24.9642
88.1073
154.882
24.9463
34.4328
87.9686
155.032
24.9505
164.125
300.839
300.888
164.257
164.127
300.845
300.895
164.26
87.9808
34.4716
154.963
24.9611
154.803
24.9642
88.1213
87.9831
34.4314
155.03
24.9487
154.87
24.9508
88.1233
205.169
206.811
46.4618
205.214
206.902
408.541
408.37
406.96
407.076
46.3553
205.176
206.83
205.202
206.875
408.339
408.568
91.4917
157.216
26.0526
35.3062
91.1645
157.48
26.0532
167.718
302.908
167.455
302.805
91.4864
26.0673
157.2
35.2965
91.1589
26.0674
157.464
167.442
302.793
302.894
167.71
91.1721
35.3047
157.487
26.0452
157.219
26.0496
91.5031
167.44
302.805
302.906
167.708
91.1669
35.2978
26.0585
157.472
26.0637
157.203
91.4982
167.696
302.894
167.435
302.787
91.5003
25.9505
157.2
35.2146
91.1983
25.9581
157.448
167.692
302.907
167.431
302.799
91.1798
35.2189
157.457
25.9492
157.201
25.9468
91.4973
167.416
302.782
302.887
167.684
91.1744
35.2191
25.9646
157.438
25.9622
157.183
91.4918
167.412
302.794
302.898
167.68
206.889
205.079
46.4831
206.884
205.072
407.095
406.954
408.357
408.562
46.3826
206.884
205.066
206.887
205.072
406.949
407.084
88.1379
24.9819
154.902
34.3698
87.9994
24.9841
155.056
164.267
300.9
164.139
300.847
164.267
300.909
164.139
300.857
88.0106
34.4222
24.9877
154.991
24.9912
154.832
88.1501
88.0133
34.3707
24.9802
155.051
24.9839
154.892
88.1524
164.141
300.843
300.892
164.272
164.142
300.852
300.902
164.273
408.52
408.312
407.144
407.007
46.3543
206.744
205.217
206.751
205.224
408.311
408.515
407.001
407.134
407.043
406.912
408.584
408.383
205.01
206.935
46.4818
205.006
206.933
406.913
407.043
408.388
408.589
46.3816
205.002
206.934
205.006
206.936
164.263
300.891
164.132
300.842
88.1316
154.802
24.9543
34.4508
87.9958
154.962
24.9475
88.1334
154.866
24.9426
34.4179
87.9982
155.023
24.9364
164.134
300.835
300.883
164.261
164.135
300.84
300.888
164.263
88.005
34.4453
154.957
24.9351
154.802
24.941
88.1392
88.0069
34.4134
155.016
24.9256
154.859
24.9307
88.1407
205.164
206.821
46.4438
205.165
206.795
408.541
408.336
406.961
407.09
46.3446
205.16
206.781
205.152
206.796
408.338
408.541
91.5146
157.227
26.0396
35.2927
91.1841
157.496
26.0353
167.701
302.907
167.431
302.808
91.5099
26.0534
157.211
35.2932
91.1793
26.0485
157.481
167.426
302.799
302.898
167.697
91.195
35.289
157.502
26.0252
157.236
26.0298
91.5228
167.424
302.812
302.911
167.694
91.1905
35.2911
26.0384
157.487
26.0436
157.221
91.5181
167.677
302.883
167.406
302.78
91.4911
25.9663
157.175
35.2258
91.1693
25.9677
157.432
167.673
302.894
167.403
302.792
91.1752
35.2202
157.437
25.9546
157.186
25.9539
91.496
167.4
302.78
302.882
167.669
91.1699
35.2272
25.9694
157.423
25.9688
157.168
91.4902
167.396
302.791
302.892
167.665
206.887
205.066
46.4881
206.886
205.061
407.08
406.949
408.367
408.569
46.3881
206.888
205.056
206.889
205.062
406.95
407.08
88.1622
24.9737
154.887
34.3678
88.0266
24.9669
155.046
164.276
300.889
164.146
300.841
164.277
300.897
164.147
300.849
88.0335
34.4005
24.9612
154.981
24.9673
154.827
88.1688
88.0358
34.3665
24.9544
155.036
24.9608
154.882
88.1709
164.15
300.839
300.887
164.277
164.151
300.846
300.895
164.278
408.515
408.314
407.129
407
46.3542
206.737
205.203
206.743
205.209
408.317
408.518
407.001
407.129
407.045
406.916
408.594
408.392
205.001
206.938
46.4728
204.998
206.936
406.917
407.047
408.394
408.598
46.3694
204.996
206.939
204.997
206.939
164.256
300.887
164.134
300.838
88.1369
154.795
24.9293
34.4276
88.0112
154.945
24.9236
88.1386
154.851
24.9204
34.4052
88.013
154.999
24.9153
164.123
300.834
300.882
164.241
164.125
300.839
300.885
164.244
88.0037
34.4191
154.935
24.9124
154.783
24.9178
88.1099
88.0057
34.3996
154.99
24.9055
154.835
24.9101
88.1115
205.142
206.786
46.4355
205.193
206.881
408.541
408.376
406.965
407.074
46.3313
205.16
206.817
205.182
206.857
408.349
408.576
91.5234
157.24
26.0186
35.2714
91.2021
157.498
26.0119
167.684
302.914
167.416
302.815
91.5182
26.0323
157.225
35.2753
91.1973
26.0249
157.483
167.409
302.805
302.904
167.681
91.1988
35.2606
157.49
25.9935
157.234
26.0025
91.5015
167.406
302.818
302.917
167.677
91.1935
35.2647
26.0065
157.476
26.016
157.219
91.4958
167.655
302.882
167.39
302.782
91.4699
25.9687
157.157
35.2244
91.165
25.9659
157.409
167.652
302.892
167.386
302.792
91.1464
35.2072
157.416
25.9434
157.16
25.9472
91.4413
167.377
302.784
302.884
167.65
91.1411
35.219
25.9582
157.401
25.962
157.144
91.4353
167.373
302.794
302.894
167.646
206.891
205.057
46.4819
206.89
205.053
407.082
406.952
408.375
408.578
46.3769
206.893
205.052
206.893
205.054
406.954
407.084
88.167
24.9484
154.871
34.3541
88.0433
24.9421
155.022
164.27
300.885
164.149
300.838
164.272
300.893
164.15
300.846
88.0307
34.3723
24.9377
154.959
24.9421
154.804
88.1374
88.0331
34.3488
24.9324
155.014
24.9368
154.857
88.139
164.141
300.839
300.885
164.265
164.143
300.846
300.892
164.266
408.522
408.32
407.129
407.002
46.3454
206.739
205.198
206.739
205.2
408.322
408.525
407.003
407.131
407.049
406.921
408.6
408.396
204.996
206.943
46.422
204.998
206.945
406.922
407.05
408.397
408.602
46.3194
204.998
206.948
204.998
206.949
164.243
300.886
164.114
300.84
88.0789
154.774
24.9091
34.4033
87.9715
154.935
24.9078
88.08
154.826
24.9031
34.3872
87.9732
154.989
24.9025
164.115
300.837
300.884
164.245
164.117
300.842
300.889
164.249
87.95
34.4024
154.943
24.9081
154.778
24.9076
88.1035
87.9515
34.3881
154.998
24.9043
154.832
24.9027
88.106
205.15
206.812
46.3873
205.154
206.796
408.552
408.344
406.974
407.102
46.2867
205.155
206.791
205.148
206.799
408.341
408.548
91.4773
157.229
25.9843
35.2348
91.1708
157.501
25.9785
167.688
302.92
167.403
302.821
91.4714
25.9977
157.214
35.2404
91.1651
25.9914
157.487
167.42
302.809
302.91
167.705
91.1589
35.2329
157.521
25.9732
157.245
25.9744
91.5198
167.417
302.823
302.924
167.702
91.153
35.2394
25.9861
157.507
25.9878
157.23
91.5136
167.667
302.886
167.376
302.786
91.4142
25.956
157.14
35.2148
91.1026
25.9558
157.419
167.663
302.896
167.372
302.797
91.109
35.2034
157.455
25.9476
157.178
25.9423
91.5023
167.398
302.786
302.888
167.687
91.1034
35.2182
25.962
157.44
25.957
157.164
91.4957
167.394
302.797
302.898
167.683
206.897
205.054
46.4314
206.9
205.054
407.085
406.954
408.378
408.583
46.3292
206.904
205.054
206.904
205.057
406.953
407.085
88.1291
24.9301
154.851
34.3447
88.0035
24.9292
155.02
164.267
300.887
164.138
300.841
164.269
300.893
164.14
300.847
88.0037
34.3599
24.9326
154.969
24.9327
154.806
88.1512
88.0056
34.3469
24.9293
155.023
24.9292
154.86
88.1537
164.141
300.842
300.889
164.265
164.143
300.847
300.894
164.267
408.527
408.323
407.132
407.003
46.3175
206.747
205.198
206.749
205.201
408.322
408.527
407.002
407.131
407.05
406.922
408.603
408.397
204.999
206.951
46.4666
204.995
206.946
406.928
407.056
408.397
408.603
46.3657
204.993
206.944
204.995
206.948
164.236
300.889
164.119
300.838
88.1295
154.781
24.909
34.4045
87.9867
154.935
24.9092
88.1326
154.837
24.9062
34.4046
87.9899
154.988
24.907
164.101
300.84
300.885
164.216
164.103
300.838
300.886
164.22
87.9939
34.4022
154.923
24.9068
154.769
24.9085
88.0886
87.9971
34.4033
154.979
24.906
154.826
24.9069
88.0905
205.142
206.797
46.4698
205.19
206.891
408.543
408.374
406.968
407.082
46.3689
205.153
206.825
205.179
206.866
408.342
408.572
91.5423
157.259
25.9706
35.232
91.2123
157.509
25.9664
167.694
302.925
167.427
302.822
91.5365
25.984
157.245
35.2381
91.2062
25.9794
157.496
167.418
302.807
302.908
167.684
91.2081
35.2246
157.496
25.9517
157.242
25.9589
91.4808
167.414
302.821
302.923
167.681
91.2025
35.2306
25.9649
157.484
25.9724
157.229
91.4749
167.678
302.887
167.411
302.785
91.5232
25.9684
157.177
35.2304
91.1958
25.9701
157.425
167.674
302.897
167.407
302.794
91.1864
35.2199
157.438
25.9497
157.176
25.9544
91.4414
167.398
302.783
302.886
167.67
91.1811
35.2269
25.9635
157.419
25.9683
157.158
91.4352
167.394
302.793
302.895
167.666
206.906
205.055
46.4733
206.901
205.05
407.084
406.953
408.377
408.584
46.3704
206.9
205.048
206.903
205.052
406.955
407.084
88.1439
24.9293
154.859
34.3511
88.0274
24.9287
155.011
164.254
300.889
164.135
300.842
164.256
300.893
164.138
300.845
88.0064
34.3573
24.929
154.953
24.9299
154.796
88.1285
88.0084
34.3486
24.9273
155.009
24.9281
154.848
88.131
164.124
300.843
300.889
164.247
164.127
300.845
300.892
164.249
408.525
408.319
407.13
407.001
46.364
206.743
205.192
206.747
205.195
408.316
408.522
407.003
407.13
407.065
406.938
408.602
408.399
204.995
206.947
46.4105
204.995
206.946
406.945
407.071
408.397
408.604
46.3134
204.996
206.945
204.995
206.949
164.216
300.885
164.089
300.836
88.0832
154.761
24.905
34.3918
87.9524
154.924
24.9042
88.0855
154.818
24.905
34.3964
87.9545
154.981
24.9045
164.084
300.847
300.893
164.208
164.087
300.839
300.885
164.212
87.9594
34.3908
154.922
24.9027
154.763
24.9034
88.0963
87.9625
34.3962
154.978
24.9039
154.821
24.9043
88.1015
205.147
206.818
46.414
205.146
206.796
408.543
408.335
406.968
407.096
46.324
205.146
206.786
205.139
206.799
408.332
408.538
91.4794
157.235
25.9456
35.2085
91.1497
157.502
25.9426
167.681
302.923
167.404
302.821
91.4726
25.9591
157.222
35.2162
91.1436
25.9558
157.49
167.41
302.806
302.908
167.686
91.1639
35.2069
157.504
25.939
157.242
25.9402
91.4912
167.406
302.82
302.923
167.683
91.1572
35.2147
25.9523
157.492
25.9537
157.229
91.4852
167.682
302.885
167.397
302.783
91.4883
25.9617
157.162
35.2243
91.1085
25.9622
157.435
167.678
302.894
167.393
302.792
91.1968
35.2179
157.439
25.9502
157.192
25.9501
91.5141
167.408
302.782
302.884
167.673
91.1897
35.2249
25.9636
157.42
25.9635
157.171
91.5073
167.403
302.791
302.893
167.668
206.903
205.051
46.4244
206.901
205.049
407.086
406.959
408.375
408.582
46.3273
206.901
205.049
206.904
205.051
406.965
407.09
88.1453
24.9269
154.848
34.3467
88.006
24.9261
155.006
164.239
300.891
164.118
300.846
164.241
300.891
164.121
300.846
88.0109
34.3477
24.9249
154.947
24.9257
154.79
88.1207
88.015
34.3457
24.9242
154.997
24.9252
154.841
88.1227
164.109
300.848
300.894
164.229
164.112
300.848
300.892
164.231
408.52
408.315
407.132
407.007
46.3452
206.739
205.189
206.744
205.191
408.314
408.518
407.012
407.137
407.078
406.951
408.602
408.395
204.996
206.948
46.4239
204.998
206.945
406.955
407.085
408.393
408.599
46.3202
205.003
206.946
204.998
206.948
164.206
300.888
164.082
300.842
88.0758
154.759
24.9023
34.3886
87.9651
154.918
24.9021
88.0784
154.814
24.9033
34.3955
87.9702
154.969
24.903
164.075
300.854
300.899
164.208
164.078
300.849
300.892
164.211
87.9421
34.3878
154.922
24.9022
154.756
24.902
88.071
87.9442
34.3937
154.978
24.903
154.811
24.9029
88.074
205.133
206.792
46.4251
205.189
206.888
408.533
408.368
406.981
407.091
46.3177
205.159
206.826
205.18
206.866
408.341
408.567
91.4868
157.241
25.9382
35.2056
91.1672
157.5
25.9384
167.682
302.922
167.407
302.82
91.4815
25.9517
157.229
35.2126
91.1616
25.9518
157.488
167.41
302.805
302.907
167.687
91.1647
35.2056
157.506
25.9397
157.238
25.9388
91.4828
167.407
302.819
302.921
167.684
91.1593
35.2129
25.953
157.494
25.9523
157.226
91.4766
167.667
302.883
167.393
302.784
91.4437
25.9608
157.155
35.2204
91.1618
25.9591
157.42
167.663
302.892
167.388
302.791
91.1373
35.2136
157.45
25.9468
157.183
25.9456
91.5036
167.394
302.784
302.886
167.675
91.1318
35.2211
25.9605
157.424
25.9594
157.16
91.4968
167.39
302.793
302.893
167.67
206.903
205.052
46.431
206.901
205.052
407.097
406.971
408.37
408.577
46.3267
206.902
205.057
206.903
205.055
406.975
407.103
88.1101
24.9237
154.834
34.3414
87.9865
24.9236
154.998
164.228
300.896
164.101
300.851
164.23
300.896
164.103
300.853
87.9811
34.3449
24.9251
154.951
24.9244
154.785
88.1142
87.9844
34.3416
24.9241
155
24.9237
154.836
88.1172
164.102
300.854
300.899
164.232
164.104
300.858
300.901
164.234
408.517
408.315
407.143
407.019
46.3216
206.74
205.197
206.742
205.194
408.317
408.518
407.024
407.15
407.089
406.957
408.597
408.391
205.003
206.948
46.4336
205.007
206.945
406.958
407.093
408.389
408.595
46.3379
205.008
206.944
205.005
206.947
164.217
300.898
164.084
300.853
88.0785
154.763
24.9029
34.3931
87.9447
154.93
24.9044
88.0815
154.818
24.9036
34.3954
87.9482
154.984
24.9049
164.088
300.856
300.904
164.22
164.091
300.855
300.901
164.224
87.9505
34.3942
154.932
24.9061
154.769
24.9052
88.0812
87.9533
34.3953
154.988
24.9062
154.823
24.9056
88.084
205.154
206.818
46.4372
205.158
206.798
408.542
408.337
406.982
407.116
46.3368
205.161
206.792
205.151
206.801
408.336
408.54
91.5075
157.247
25.9408
35.2145
91.1616
157.509
25.9442
167.689
302.921
167.41
302.818
91.5015
25.9543
157.234
35.2208
91.1553
25.9575
157.497
167.416
302.802
302.905
167.687
91.1943
35.2163
157.503
25.9495
157.245
25.9478
91.5055
167.414
302.816
302.919
167.684
91.1887
35.2227
25.9629
157.49
25.9613
157.232
91.5003
167.672
302.886
167.398
302.785
91.4726
25.9622
157.16
35.2256
91.1749
25.9637
157.421
167.667
302.895
167.394
302.795
91.1565
35.2188
157.446
25.9521
157.183
25.9511
91.4965
167.397
302.786
302.887
167.676
91.1502
35.2265
25.966
157.424
25.9649
157.159
91.4899
167.393
302.796
302.897
167.672
206.904
205.059
46.4458
206.901
205.06
407.108
406.977
408.366
408.573
46.3491
206.9
205.062
206.903
205.062
406.976
407.11
88.1125
24.9248
154.839
34.3444
87.9862
24.9254
155.007
164.239
300.902
164.106
300.856
164.24
300.906
164.108
300.862
87.983
34.3501
24.9276
154.96
24.9269
154.795
88.1158
87.9854
34.3451
24.926
155.011
24.9258
154.846
88.1185
164.113
300.856
300.903
164.246
164.115
300.864
300.909
164.248
408.521
408.319
407.155
407.026
46.3432
206.743
205.204
206.744
205.202
408.321
408.523
407.025
407.156
407.091
406.956
408.593
408.388
205.006
206.947
46.4304
205.009
206.944
406.953
407.088
408.388
408.592
46.3332
205.008
206.944
205.006
206.947
164.228
300.903
164.097
300.854
88.0826
154.772
24.9065
34.3973
87.9522
154.937
24.9073
88.0852
154.828
24.9065
34.3992
87.9551
154.99
24.9071
164.098
300.853
300.901
164.226
164.1
300.854
300.902
164.23
87.9566
34.3974
154.937
24.9081
154.776
24.9076
88.0933
87.9591
34.3983
154.996
24.9076
154.833
24.9073
88.0964
205.147
206.798
46.4353
205.201
206.896
408.538
408.373
406.979
407.093
46.3345
205.169
206.833
205.191
206.873
408.345
408.572
91.4837
157.242
25.9494
35.2185
91.1703
157.509
25.9495
167.686
302.918
167.407
302.815
91.477
25.9628
157.229
35.2251
91.1649
25.9628
157.496
167.415
302.801
302.902
167.69
91.1742
35.2189
157.505
25.9507
157.246
25.9499
91.5216
167.412
302.815
302.917
167.687
91.1676
35.2254
25.9639
157.492
25.9633
157.233
91.5162
167.677
302.888
167.401
302.789
91.472
25.9655
157.162
35.2262
91.1678
25.9645
157.426
167.673
302.898
167.397
302.798
91.1565
35.2168
157.455
25.9493
157.19
25.9493
91.4993
167.403
302.789
302.89
167.683
91.1499
35.2247
25.963
157.429
25.963
157.164
91.4919
167.399
302.8
302.9
167.679
206.902
205.063
46.4403
206.9
205.062
407.109
406.974
408.365
408.57
46.3443
206.899
205.062
206.902
205.063
406.973
407.107
88.1227
24.9261
154.851
34.3463
87.989
24.9262
155.017
164.251
300.902
164.12
300.855
164.253
300.91
164.122
300.864
87.9943
34.353
24.9284
154.964
24.9279
154.803
88.1281
87.9964
34.3466
24.9268
155.017
24.9265
154.855
88.1307
164.124
300.854
300.901
164.251
164.126
300.863
300.91
164.253
408.525
408.323
407.155
407.023
46.3424
206.747
205.205
206.749
205.205
408.324
408.526
407.021
407.152
407.085
406.952
408.592
408.389
205.004
206.946
46.4325
205.008
206.945
406.952
407.083
408.39
408.592
46.3328
205.01
206.947
205.003
206.947
164.226
300.901
164.101
300.854
88.0892
154.775
24.9084
34.3982
87.9643
154.935
24.9088
88.0923
154.834
24.9078
34.3968
87.9676
154.994
24.9082
164.095
300.853
300.899
164.221
164.098
300.853
300.9
164.226
87.9606
34.3976
154.934
24.9095
154.773
24.909
88.0915
87.9637
34.396
154.994
24.9087
154.832
24.9083
88.0949
205.159
206.825
46.4329
205.163
206.806
408.546
408.339
406.977
407.108
46.3353
205.163
206.799
205.152
206.808
408.338
408.542
91.4856
157.242
25.9493
35.2161