/*--------------------------------*- C++ -*----------------------------------*\
| =========                 |                                                 |
| \\      /  F ield         | OpenFOAM: The Open Source CFD Toolbox           |
|  \\    /   O peration     | Version:  2206                                  |
|   \\  /    A nd           | Website:  www.openfoam.com                      |
|    \\/     M anipulation  |                                                 |
\*---------------------------------------------------------------------------*/
FoamFile
{
    version     2.0;
    format      ascii;
    arch        "LSB;label=32;scalar=64";
    class       volVectorField;
    location    "0.5";
    object      wallShearStress;
}
// * * * * * * * * * * * * * * * * * * * * * * * * * * * * * * * * * * * * * //

dimensions      [0 2 -2 0 0 0 0];

internalField   uniform (0 0 0);

boundaryField
{
    topPatch
    {
        type            calculated;
        value           nonuniform List<vector> 0();
    }
    wall
    {
        type            calculated;
        value           nonuniform List<vector> 
7718
(
(2.45687e-09 -9.45337e-09 -0.000122536)
(-4.88766e-09 7.60441e-09 -0.000121872)
(-3.0773e-09 -9.94876e-10 -0.000117629)
(-5.13712e-09 -2.9194e-09 -0.000117632)
(6.98196e-10 5.70758e-09 -0.000122533)
(-5.70529e-09 -1.12409e-08 -0.000121875)
(-2.05709e-09 2.12877e-09 -0.000119925)
(-1.77206e-09 7.05083e-10 -0.000120946)
(-2.68101e-09 -5.40347e-09 -0.000119926)
(-1.82327e-09 -3.4343e-09 -0.000120944)
(-1.3259e-08 3.84158e-09 -0.00012259)
(-5.54714e-10 -4.56318e-09 -0.00012254)
(-1.78794e-08 2.94655e-09 -0.000117688)
(-5.56323e-09 4.13153e-09 -0.000117636)
(-6.49178e-09 -5.69486e-09 -0.000117642)
(-6.77314e-10 3.83997e-09 -0.000122539)
(2.19841e-10 3.56267e-09 -0.000122449)
(2.97729e-09 -1.35262e-08 -0.000119782)
(-2.48508e-09 1.07508e-09 -0.000120961)
(-2.93055e-09 2.9867e-09 -0.00011994)
(9.26068e-10 -3.92964e-09 -0.000120792)
(2.03249e-09 2.2821e-09 -0.000117561)
(2.72199e-09 1.10848e-08 -0.000119783)
(-2.47863e-09 -2.33517e-09 -0.000120959)
(-3.17661e-09 -4.78265e-09 -0.000119941)
(8.12044e-10 1.76347e-09 -0.00012079)
(1.04329e-09 -4.62633e-09 -0.000117565)
(-1.31719e-09 -6.16717e-09 -0.00012245)
(9.04633e-10 -1.46168e-09 -0.000118147)
(5.12119e-09 6.60069e-10 -0.000122526)
(-3.53156e-09 5.57309e-11 -0.000122178)
(-5.09066e-09 7.9781e-10 -0.000118231)
(-7.36424e-10 3.46239e-09 -0.000118171)
(-4.68521e-12 -3.3368e-09 -0.000122165)
(-2.70754e-09 -3.54471e-10 -0.000118171)
(1.95077e-09 4.76157e-10 -0.000118069)
(7.48661e-09 -4.29383e-09 -0.000122098)
(2.72197e-09 -3.90327e-10 -0.000122073)
(5.25671e-09 -1.12255e-08 -0.000121783)
(-5.85598e-09 1.14882e-08 -0.000121886)
(4.2383e-09 7.53094e-09 -0.000121787)
(-6.47093e-09 -1.37249e-08 -0.00012189)
(5.08865e-10 -2.57817e-09 -0.00011807)
(1.72126e-09 -4.78142e-10 -0.000122079)
(1.37607e-09 -1.39264e-09 -0.000122102)
(4.2235e-09 1.22436e-08 -0.000122531)
(-4.2226e-09 -1.5118e-08 -0.000122396)
(5.97276e-09 -6.88621e-09 -0.000117582)
(6.06674e-09 6.53757e-10 -0.000117591)
(1.03702e-08 2.70358e-09 -0.000122513)
(-4.04375e-09 -1.57216e-10 -0.000122483)
(-6.20904e-09 4.87043e-09 -0.000117625)
(4.84666e-09 -3.77706e-09 -0.000117551)
(3.52036e-09 1.25065e-08 -0.000122531)
(4.80184e-09 4.60172e-09 -0.00012244)
(-3.15039e-09 -2.3856e-09 -0.000117567)
(1.19489e-09 3.024e-09 -0.0001176)
(9.85548e-09 2.61743e-09 -0.000122485)
(-1.23401e-09 2.01785e-09 -0.000122469)
(-1.66014e-09 -3.62436e-09 -0.000117638)
(3.95074e-09 -1.49321e-09 -0.000117574)
(3.84475e-09 1.11883e-08 -0.00012254)
(1.16065e-09 -2.44031e-09 -0.000122457)
(-4.76683e-09 -1.62566e-09 -0.000117577)
(1.41416e-09 2.91694e-09 -0.000117611)
(1.07057e-08 3.24966e-09 -0.000122491)
(-4.43384e-09 4.37875e-11 -0.000122481)
(-2.88353e-09 -7.92213e-10 -0.000117648)
(3.18647e-09 1.95259e-10 -0.000117581)
(1.23277e-09 6.5288e-09 -0.00012255)
(-2.29876e-10 -4.89891e-09 -0.000122464)
(-3.33684e-09 -2.18739e-09 -0.000117587)
(1.7411e-09 2.75155e-09 -0.000117618)
(9.86607e-09 2.82021e-09 -0.000122502)
(-1.19934e-09 2.05207e-09 -0.000122487)
(-3.02436e-09 -6.64486e-10 -0.000117652)
(3.30084e-09 5.03715e-11 -0.000117581)
(9.70835e-10 6.15964e-09 -0.000122552)
(-3.84681e-10 -5.00611e-09 -0.000122462)
(-5.03805e-09 -1.72264e-09 -0.000117593)
(6.36816e-10 3.26662e-09 -0.000117625)
(1.02033e-08 2.80911e-09 -0.000122506)
(-4.29391e-09 -3.12664e-10 -0.000122494)
(-3.21092e-09 -1.34083e-10 -0.000117648)
(2.92797e-09 9.48784e-10 -0.000117577)
(6.68793e-10 5.69559e-09 -0.000122547)
(-6.92971e-10 -5.61623e-09 -0.000122458)
(-5.58587e-09 -1.20123e-09 -0.000117597)
(-3.96439e-10 3.69669e-09 -0.000117626)
(9.12771e-09 1.94669e-09 -0.000122506)
(-2.53973e-09 1.4508e-09 -0.000122492)
(-3.33542e-09 1.03537e-10 -0.000117644)
(3.06511e-09 5.80725e-10 -0.000117572)
(5.77164e-10 5.43156e-09 -0.000122542)
(-7.34274e-10 -5.74009e-09 -0.000122453)
(-5.46214e-09 -1.37869e-09 -0.000117604)
(1.35386e-09 3.00314e-09 -0.000117636)
(8.72676e-09 2.72675e-09 -0.00012251)
(-7.05811e-09 -1.27677e-09 -0.000122502)
(-2.95609e-09 -8.81679e-10 -0.00011764)
(3.49585e-09 -7.8043e-10 -0.000117571)
(1.06695e-09 6.37541e-09 -0.00012254)
(1.18914e-10 -4.00009e-09 -0.000122453)
(-2.4345e-09 -2.51329e-09 -0.000117612)
(4.36646e-09 1.76391e-09 -0.000117641)
(6.63227e-09 1.01877e-09 -0.000122519)
(-4.59559e-09 2.84752e-10 -0.000122505)
(-2.51789e-09 -2.08139e-09 -0.000117642)
(4.16235e-09 -2.25685e-09 -0.000117572)
(2.07769e-09 7.98757e-09 -0.000122541)
(1.10874e-09 -2.53125e-09 -0.000122454)
(1.66685e-12 -3.6311e-09 -0.000117614)
(6.11934e-09 9.66741e-10 -0.000117641)
(7.25724e-09 1.37224e-09 -0.00012252)
(-7.48792e-09 -1.58341e-09 -0.000122507)
(-2.26815e-09 -2.61072e-09 -0.000117642)
(3.9989e-09 -2.04181e-09 -0.000117572)
(2.52026e-09 9.08e-09 -0.000122542)
(1.19714e-09 -1.97874e-09 -0.000122454)
(-2.85225e-10 -3.59705e-09 -0.00011761)
(4.62033e-09 1.56243e-09 -0.000117637)
(7.24598e-09 1.1337e-09 -0.000122517)
(-3.88487e-09 4.48558e-10 -0.000122502)
(-2.0634e-09 -2.9946e-09 -0.000117639)
(4.28172e-09 -2.66342e-09 -0.000117568)
(2.27484e-09 8.70033e-09 -0.00012254)
(8.62855e-10 -2.75168e-09 -0.000122452)
(-1.60661e-09 -3.05122e-09 -0.000117606)
(3.89968e-09 1.90681e-09 -0.000117635)
(7.89125e-09 1.72463e-09 -0.000122511)
(-6.44713e-09 -1.04273e-09 -0.0001225)
(-2.09924e-09 -3.06254e-09 -0.000117636)
(3.9338e-09 -2.04554e-09 -0.000117566)
(1.93657e-09 7.99181e-09 -0.000122536)
(5.45467e-10 -3.25166e-09 -0.000122449)
(-1.56771e-09 -3.0509e-09 -0.000117601)
(3.62776e-09 2.00455e-09 -0.000117633)
(7.65094e-09 1.37215e-09 -0.000122507)
(-3.92925e-09 6.47884e-10 -0.000122498)
(-2.39858e-09 -2.2032e-09 -0.000117633)
(4.13375e-09 -2.1665e-09 -0.000117565)
(1.88375e-09 7.8831e-09 -0.000122535)
(5.14312e-10 -3.44504e-09 -0.000122449)
(-1.46493e-09 -3.06496e-09 -0.000117598)
(3.61557e-09 2.08911e-09 -0.000117638)
(7.47096e-09 1.42881e-09 -0.000122503)
(-7.03622e-09 -1.29652e-09 -0.000122504)
(-2.19947e-09 -2.98347e-09 -0.000117632)
(4.26741e-09 -2.56869e-09 -0.000117568)
(1.7392e-09 7.52884e-09 -0.000122534)
(1.88399e-10 -4.03493e-09 -0.00012245)
(-1.66781e-10 -3.6921e-09 -0.000117587)
(3.31321e-09 2.23949e-09 -0.000117652)
(7.65978e-09 1.34769e-09 -0.000122492)
(-5.17322e-09 -2.50536e-11 -0.000122517)
(-2.0984e-09 -2.99989e-09 -0.000117632)
(4.68822e-09 -3.56142e-09 -0.000117571)
(1.53389e-09 7.18771e-09 -0.000122534)
(8.45891e-11 -4.30029e-09 -0.000122454)
(5.36246e-09 -5.99009e-09 -0.000117562)
(2.00141e-08 -4.0549e-09 -0.000117665)
(3.72622e-09 -1.11536e-09 -0.000122468)
(-1.0213e-08 -3.40265e-09 -0.000122522)
(-1.53649e-09 -4.41828e-09 -0.000117632)
(5.34807e-09 -5.61464e-09 -0.000117573)
(1.82953e-09 7.75064e-09 -0.000122534)
(8.43573e-10 -2.63859e-09 -0.000122456)
(2.30342e-08 9.09967e-09 -0.000122579)
(-1.60012e-09 -9.54111e-09 -0.000117583)
(-5.61213e-10 7.86642e-09 -0.000122496)
(-7.96704e-09 -7.44906e-10 -0.000122535)
(1.26377e-08 5.35782e-09 -0.000122525)
(-4.84141e-10 -3.46937e-09 -0.000122454)
(-4.03862e-09 -7.93247e-09 -0.000122497)
(1.16552e-08 4.62215e-09 -0.000122518)
(-1.32069e-08 -4.5596e-09 -0.000122514)
(-3.56739e-09 3.48296e-09 -0.00011761)
(9.89965e-09 1.02986e-09 -0.000117646)
(-2.34077e-09 5.25804e-09 -0.000117649)
(-6.21636e-09 -7.02296e-10 -0.000117655)
(1.21122e-08 2.16423e-09 -0.000117638)
(-1.37536e-09 3.22444e-09 -0.000117592)
(-4.73215e-09 -1.26374e-09 -0.00011764)
(2.22063e-09 3.13416e-09 -0.000117622)
(-4.45741e-09 1.24531e-08 -0.000122589)
(-2.72205e-09 1.37194e-09 -0.000122513)
(2.63126e-10 2.95757e-09 -0.000122576)
(-1.066e-08 3.46952e-09 -0.000122531)
(-2.83063e-09 8.56858e-10 -0.000122486)
(-1.65417e-09 8.70894e-09 -0.000122594)
(-8.0416e-09 2.5446e-09 -0.000122523)
(7.84923e-09 -1.73794e-09 -0.000122542)
(-5.16972e-09 -7.23004e-10 -0.000122504)
(5.61299e-09 -9.71479e-10 -0.000122473)
(2.77426e-09 -1.12574e-08 -0.000122538)
(3.84591e-09 -2.90615e-09 -0.000122445)
(3.6643e-09 3.86927e-10 -0.000122477)
(-9.59247e-09 2.82293e-09 -0.000122488)
(2.05582e-09 8.8315e-10 -0.000122455)
(4.93176e-09 -1.33792e-08 -0.000122533)
(2.34255e-09 -3.17349e-09 -0.00011759)
(-2.09898e-09 2.30298e-09 -0.000117601)
(2.85715e-09 2.32823e-09 -0.000117594)
(-7.64016e-10 -3.46945e-09 -0.000117562)
(-2.86542e-09 2.25887e-09 -0.00011759)
(3.76595e-09 -2.48305e-09 -0.000117569)
(-1.54798e-09 -7.78827e-09 -0.000122575)
(-3.89046e-10 3.34957e-09 -0.000122477)
(-4.92366e-09 -4.3318e-10 -0.000122473)
(1.20493e-08 3.4095e-09 -0.000122492)
(-2.90608e-10 3.8439e-09 -0.000122467)
(-9.76038e-10 -6.38401e-09 -0.000122559)
(-5.60458e-09 -3.59159e-09 -0.000117625)
(5.26519e-09 5.07842e-09 -0.000117552)
(4.94065e-09 -3.62034e-09 -0.000117565)
(-1.13728e-09 -5.0285e-09 -0.000117624)
(5.43067e-09 4.77032e-09 -0.000117566)
(-6.67372e-10 6.30131e-09 -0.000117625)
(2.18971e-09 -3.3968e-09 -0.000117665)
(-3.78926e-09 -1.82451e-09 -0.000117584)
(7.87099e-10 7.00672e-09 -0.000117668)
(-5.04533e-09 5.22096e-09 -0.000117588)
(-3.49789e-09 -6.83795e-10 -0.000117576)
(2.5979e-09 -2.2185e-09 -0.00011765)
(-4.12421e-09 2.32495e-09 -0.000117577)
(1.50778e-09 5.06265e-09 -0.000117654)
(-5.59461e-09 3.68457e-10 -0.000122519)
(6.27706e-09 1.13533e-09 -0.000122493)
(3.10607e-09 1.13308e-09 -0.000122449)
(5.96185e-09 1.5264e-08 -0.000122528)
(4.11921e-09 -3.36249e-10 -0.000122499)
(-9.28926e-09 -2.37553e-09 -0.000122506)
(4.36794e-09 6.27319e-09 -0.000117592)
(6.67279e-09 -5.99528e-10 -0.000117606)
(1.43093e-09 3.5502e-09 -0.000117603)
(-3.25312e-09 -1.91641e-09 -0.000117616)
(2.6269e-09 -2.49683e-09 -0.000117611)
(-8.59792e-10 3.40272e-09 -0.000117576)
(-1.98825e-09 -2.64781e-09 -0.000117607)
(3.46024e-09 2.51467e-09 -0.000117583)
(-4.06943e-09 1.19295e-08 -0.000122574)
(-1.64314e-09 -8.30138e-10 -0.000122476)
(7.7784e-09 -1.0682e-09 -0.000122528)
(-4.22914e-09 7.68074e-11 -0.000122499)
(-5.36101e-10 -3.22424e-09 -0.000122462)
(-2.35258e-09 9.11917e-09 -0.000122559)
(-3.54093e-09 -4.91915e-10 -0.000122493)
(1.1519e-08 -3.48932e-09 -0.00012251)
(-1.11384e-08 3.56928e-09 -0.000122494)
(3.00945e-09 8.43664e-10 -0.000122486)
(2.90386e-09 -9.28529e-09 -0.000122545)
(4.75085e-10 3.7948e-09 -0.000122463)
(3.17342e-09 7.55788e-10 -0.000122492)
(-1.19741e-08 4.01943e-09 -0.000122502)
(-3.14669e-10 5.28167e-09 -0.000122467)
(1.42445e-09 -6.88643e-09 -0.000122552)
(2.73144e-09 -2.58331e-09 -0.000117562)
(3.12368e-10 3.54372e-09 -0.000117589)
(6.27567e-10 3.31612e-09 -0.000117605)
(-4.83816e-09 -1.66449e-09 -0.000117573)
(-2.16538e-09 2.62198e-09 -0.000117593)
(5.70381e-09 -1.33969e-09 -0.000117564)
(-1.23587e-09 -6.35758e-09 -0.000122554)
(2.2572e-09 8.30416e-09 -0.00012247)
(-4.69864e-09 -1.74277e-10 -0.000122476)
(1.28429e-08 4.51205e-09 -0.00012249)
(-1.58733e-10 4.63353e-09 -0.00012247)
(8.09343e-10 -2.90297e-09 -0.000122551)
(-1.1983e-09 4.70704e-09 -0.000117639)
(4.35373e-09 2.52351e-09 -0.000117574)
(3.45011e-09 -3.37542e-10 -0.000117578)
(-2.44309e-09 -1.86691e-09 -0.000117645)
(3.65904e-09 7.96809e-10 -0.000117578)
(-2.05876e-09 2.85984e-09 -0.000117646)
(2.74214e-09 -1.29928e-09 -0.000117644)
(-2.10094e-09 3.02302e-09 -0.000117576)
(2.36922e-09 2.47154e-09 -0.000117646)
(-3.601e-09 8.73608e-10 -0.000117575)
(-3.64462e-09 -6.60301e-10 -0.000117578)
(3.88351e-09 1.79602e-09 -0.000117643)
(-3.30656e-09 1.24526e-10 -0.000117577)
(2.70708e-09 1.43425e-09 -0.000117645)
(-1.12193e-08 -3.54532e-09 -0.000122513)
(3.6674e-09 -4.25855e-10 -0.000122505)
(1.27151e-10 -4.32311e-09 -0.000122462)
(2.07036e-09 8.10223e-09 -0.000122546)
(3.16784e-09 -8.52237e-10 -0.000122511)
(-1.16001e-08 -3.79955e-09 -0.000122519)
(-4.08049e-09 2.0235e-09 -0.000117581)
(1.09961e-09 -3.07712e-09 -0.000117616)
(4.42465e-09 1.94312e-09 -0.000117576)
(-1.01509e-09 -3.03427e-09 -0.000117607)
(3.34371e-11 -3.5512e-09 -0.000117622)
(-5.51466e-09 1.49488e-09 -0.000117587)
(-6.53163e-10 -3.2729e-09 -0.000117611)
(5.21642e-09 1.58109e-09 -0.000117578)
(-1.35968e-09 6.96773e-09 -0.000122547)
(-1.03073e-10 -4.12708e-09 -0.000122458)
(1.18686e-08 -3.8557e-09 -0.000122506)
(-3.42042e-09 -6.41842e-10 -0.000122495)
(2.7478e-10 -4.85788e-09 -0.000122459)
(-1.09723e-09 6.43707e-09 -0.000122545)
(-3.35797e-09 -7.00297e-10 -0.000122499)
(1.21164e-08 -3.9856e-09 -0.000122509)
(-1.12839e-08 3.79131e-09 -0.000122507)
(3.97001e-09 3.27662e-10 -0.000122498)
(8.80092e-10 -5.68843e-09 -0.000122555)
(-6.49869e-10 5.63525e-09 -0.00012247)
(4.86699e-09 -1.52229e-10 -0.000122502)
(-1.04073e-08 3.14828e-09 -0.000122512)
(-4.97259e-10 5.26778e-09 -0.00012247)
(6.50137e-10 -5.52157e-09 -0.000122557)
(3.50137e-09 -2.21894e-09 -0.000117567)
(-1.83397e-09 2.75626e-09 -0.000117599)
(2.25683e-09 2.61106e-09 -0.000117616)
(-4.01545e-09 -1.98887e-09 -0.000117583)
(-1.80244e-09 2.82184e-09 -0.000117605)
(3.90536e-09 -2.06995e-09 -0.000117573)
(-1.11098e-09 -6.04065e-09 -0.000122558)
(-8.77233e-11 4.39284e-09 -0.000122474)
(-4.9721e-09 -2.34362e-10 -0.000122488)
(1.14317e-08 3.70495e-09 -0.000122498)
(-5.76511e-10 3.63165e-09 -0.000122474)
(-8.22157e-10 -5.66159e-09 -0.00012256)
(-2.65937e-09 1.3798e-09 -0.00011765)
(3.29249e-09 5.83804e-12 -0.000117582)
(3.30595e-09 2.83744e-12 -0.000117582)
(-3.10084e-09 -4.12711e-10 -0.000117651)
(3.21375e-09 -1.44396e-10 -0.000117583)
(-2.94898e-09 6.0619e-10 -0.000117652)
(2.55222e-09 -1.5779e-09 -0.000117648)
(-3.57332e-09 -6.6508e-10 -0.000117581)
(2.99634e-09 6.97694e-10 -0.000117648)
(-3.0803e-09 -3.84887e-10 -0.00011758)
(-3.70319e-09 -1.06908e-09 -0.000117583)
(2.68222e-09 -1.45036e-09 -0.00011765)
(-3.20138e-09 -3.05284e-10 -0.000117581)
(3.17103e-09 3.4019e-10 -0.00011765)
(-1.19776e-08 -3.99915e-09 -0.000122525)
(3.63331e-09 -6.18141e-10 -0.000122516)
(-3.20806e-10 -5.03292e-09 -0.000122464)
(1.03927e-09 6.16926e-09 -0.000122552)
(4.25916e-09 -2.61099e-10 -0.00012252)
(-1.13357e-08 -3.65261e-09 -0.000122529)
(-6.06664e-09 1.14986e-09 -0.000117592)
(4.1081e-10 -3.39642e-09 -0.000117627)
(5.43466e-09 1.53813e-09 -0.000117582)
(-9.42421e-10 -3.20949e-09 -0.000117616)
(9.98313e-10 -3.18069e-09 -0.000117631)
(-5.60139e-09 1.35992e-09 -0.000117597)
(-1.12193e-09 -3.16445e-09 -0.000117619)
(5.05647e-09 1.60106e-09 -0.000117587)
(-7.91031e-10 5.71682e-09 -0.000122546)
(4.10921e-10 -5.14775e-09 -0.00012246)
(1.1954e-08 -3.96884e-09 -0.000122514)
(-3.79146e-09 -4.90439e-10 -0.000122504)
(4.7004e-10 -5.19106e-09 -0.000122461)
(-6.1672e-10 5.50839e-09 -0.000122547)
(-4.14044e-09 -3.28145e-10 -0.000122507)
(1.15213e-08 -3.78194e-09 -0.000122518)
(-9.63114e-09 2.77629e-09 -0.000122516)
(4.64739e-09 6.75702e-12 -0.000122505)
(7.96129e-10 -5.81376e-09 -0.000122557)
(-2.61399e-10 4.96848e-09 -0.000122469)
(3.83353e-09 3.19043e-10 -0.000122506)
(-1.01159e-08 2.94047e-09 -0.000122519)
(-4.39306e-10 5.36174e-09 -0.000122467)
(9.75244e-10 -6.10115e-09 -0.000122555)
(3.55095e-09 -2.17253e-09 -0.000117578)
(8.80144e-10 3.79066e-09 -0.000117607)
(1.03892e-09 3.02067e-09 -0.00011762)
(-3.91618e-09 -2.05861e-09 -0.00011759)
(-2.13868e-09 2.54327e-09 -0.000117609)
(5.95077e-09 -1.31537e-09 -0.000117581)
(-1.54776e-09 -6.90293e-09 -0.000122561)
(1.52578e-09 6.8903e-09 -0.000122476)
(-4.8536e-09 -5.18795e-10 -0.000122492)
(1.30785e-08 4.64631e-09 -0.000122506)
(-6.31434e-10 3.33296e-09 -0.000122471)
(-6.79984e-11 -4.44243e-09 -0.000122556)
(-3.05723e-09 4.86299e-10 -0.000117653)
(3.04155e-09 -4.25405e-10 -0.000117582)
(3.1071e-09 3.36593e-10 -0.000117579)
(-3.06241e-09 -5.46101e-10 -0.00011765)
(3.07313e-09 -4.09386e-10 -0.00011758)
(-3.23563e-09 3.47234e-10 -0.000117651)
(2.50714e-09 -1.83041e-09 -0.000117652)
(-2.60514e-09 1.70822e-09 -0.000117583)
(3.05876e-09 5.93255e-10 -0.000117651)
(-3.14501e-09 -1.07776e-10 -0.00011758)
(-3.99771e-09 -1.87074e-09 -0.000117579)
(3.42775e-09 3.97367e-10 -0.000117649)
(-3.24066e-09 1.58249e-10 -0.000117578)
(3.01279e-09 6.49147e-10 -0.00011765)
(-1.07507e-08 -3.35753e-09 -0.000122532)
(4.21921e-09 -1.50583e-10 -0.000122521)
(-5.28758e-10 -5.33871e-09 -0.00012246)
(9.41727e-10 6.04576e-09 -0.000122549)
(3.81291e-09 -4.30449e-10 -0.000122523)
(-1.09274e-08 -3.44967e-09 -0.000122534)
(-5.24902e-09 1.53032e-09 -0.0001176)
(6.28902e-10 -3.38228e-09 -0.000117633)
(5.07492e-09 1.5991e-09 -0.00011759)
(-7.2717e-10 -3.28945e-09 -0.000117623)
(1.07916e-10 -3.51821e-09 -0.000117635)
(-5.65039e-09 1.38184e-09 -0.000117602)
(-8.66237e-10 -3.11386e-09 -0.000117625)
(5.38618e-09 1.47858e-09 -0.000117594)
(-7.48809e-10 5.6846e-09 -0.000122548)
(2.57669e-10 -4.80974e-09 -0.00012246)
(1.1256e-08 -3.57874e-09 -0.000122521)
(-4.18946e-09 -2.63618e-10 -0.00012251)
(1.76892e-10 -4.66375e-09 -0.000122458)
(-8.53174e-10 5.98307e-09 -0.000122547)
(-4.53245e-09 -7.45439e-12 -0.000122511)
(1.12407e-08 -3.54725e-09 -0.000122523)
(-1.07717e-08 3.15641e-09 -0.000122521)
(3.52744e-09 4.09278e-10 -0.000122508)
(6.67341e-10 -5.51992e-09 -0.000122553)
(-9.82742e-10 6.19669e-09 -0.000122465)
(2.51839e-09 7.88073e-10 -0.000122509)
(-1.14761e-08 3.64015e-09 -0.000122523)
(-9.51904e-10 6.12372e-09 -0.000122462)
(3.16673e-10 -4.87713e-09 -0.000122551)
(3.13472e-09 -2.37029e-09 -0.000117581)
(-1.71253e-09 2.49125e-09 -0.000117611)
(-5.18939e-10 3.28625e-09 -0.000117625)
(-5.40948e-09 -1.4571e-09 -0.000117598)
(-2.64479e-09 2.36256e-09 -0.000117615)
(3.75189e-09 -2.32312e-09 -0.000117584)
(-1.42413e-09 -6.96581e-09 -0.000122557)
(-2.45336e-10 4.03963e-09 -0.000122469)
(-5.4366e-09 -4.93986e-10 -0.000122495)
(1.1237e-08 3.11982e-09 -0.000122507)
(-4.41293e-10 3.56705e-09 -0.000122464)
(-8.13995e-10 -5.82977e-09 -0.000122553)
(-3.20664e-09 2.36961e-10 -0.000117649)
(2.87213e-09 -7.79596e-10 -0.000117578)
(2.94625e-09 8.34083e-10 -0.000117575)
(-3.45282e-09 3.47354e-10 -0.000117646)
(2.97131e-09 -6.56676e-10 -0.000117575)
(-3.38294e-09 -5.12618e-11 -0.000117647)
(2.31188e-09 -2.41262e-09 -0.000117648)
(-3.62955e-09 -1.09592e-09 -0.000117577)
(2.97933e-09 8.84289e-10 -0.000117647)
(-3.24656e-09 -3.28644e-11 -0.000117575)
(-3.63079e-09 -1.16376e-09 -0.000117574)
(2.64615e-09 -1.68804e-09 -0.000117644)
(-3.26534e-09 2.77541e-10 -0.000117572)
(3.03416e-09 7.39876e-10 -0.000117644)
(-1.13887e-08 -3.59544e-09 -0.000122535)
(3.58104e-09 -5.91989e-10 -0.000122524)
(-7.7962e-10 -5.6904e-09 -0.000122455)
(5.29767e-10 5.46923e-09 -0.000122545)
(2.94366e-09 -8.38654e-10 -0.000122524)
(-1.17416e-08 -3.81691e-09 -0.000122536)
(-6.07759e-09 1.16716e-09 -0.000117604)
(-1.67314e-10 -3.5338e-09 -0.000117636)
(5.05407e-09 1.69992e-09 -0.000117595)
(-1.29154e-09 -2.98633e-09 -0.000117627)
(-8.33149e-10 -3.88747e-09 -0.000117638)
(-6.41539e-09 1.11142e-09 -0.000117606)
(-1.56861e-09 -2.92351e-09 -0.000117629)
(4.73148e-09 1.85509e-09 -0.000117598)
(-9.68193e-10 6.15223e-09 -0.000122544)
(2.28657e-10 -4.69065e-09 -0.000122456)
(1.07968e-08 -3.31105e-09 -0.000122524)
(-4.96131e-09 2.25229e-10 -0.000122512)
(2.62685e-11 -4.34634e-09 -0.000122454)
(-8.89664e-10 6.04312e-09 -0.000122543)
(-5.07565e-09 3.15582e-10 -0.000122513)
(1.0388e-08 -3.03745e-09 -0.000122526)
(-1.22745e-08 4.52143e-09 -0.000122522)
(2.73812e-09 8.96534e-10 -0.000122507)
(4.15415e-10 -5.14074e-09 -0.000122548)
(-7.0569e-10 5.79241e-09 -0.000122459)
(3.72106e-09 2.06202e-10 -0.000122512)
(-1.15344e-08 3.59426e-09 -0.000122522)
(-4.89412e-10 5.33257e-09 -0.000122458)
(6.86656e-10 -5.56414e-09 -0.000122546)
(2.52043e-09 -2.68506e-09 -0.000117586)
(-1.03256e-09 3.04099e-09 -0.000117615)
(-6.73462e-11 3.47353e-09 -0.00011763)
(-5.96447e-09 -1.26552e-09 -0.000117599)
(-5.19876e-09 1.47723e-09 -0.000117617)
(4.00175e-09 -1.94098e-09 -0.000117589)
(-1.62702e-09 -7.12895e-09 -0.000122551)
(1.47043e-09 6.64248e-09 -0.000122464)
(-6.76628e-09 -1.06327e-09 -0.000122498)
(1.12825e-08 3.79473e-09 -0.000122512)
(-9.92791e-10 2.76996e-09 -0.000122462)
(-2.29921e-10 -4.80861e-09 -0.000122545)
(-3.29602e-09 7.17378e-11 -0.000117644)
(2.92738e-09 -6.62135e-10 -0.000117572)
(3.23064e-09 7.03191e-11 -0.000117571)
(-3.12085e-09 -3.63113e-10 -0.000117641)
(3.21282e-09 6.61684e-11 -0.000117571)
(-3.21644e-09 2.24535e-10 -0.000117642)
(2.41334e-09 -2.24701e-09 -0.000117641)
(-2.71092e-09 1.31137e-09 -0.000117571)
(2.89323e-09 1.10004e-09 -0.000117641)
(-3.39167e-09 5.46476e-10 -0.000117569)
(-4.16718e-09 -2.18301e-09 -0.00011757)
(3.30148e-09 7.26549e-11 -0.000117637)
(-3.63675e-09 8.04413e-10 -0.000117569)
(2.75102e-09 1.44176e-09 -0.000117639)
(-1.2322e-08 -4.10702e-09 -0.000122537)
(2.83104e-09 -1.00736e-09 -0.000122525)
(-3.45585e-10 -5.00116e-09 -0.000122452)
(5.93627e-10 5.4909e-09 -0.00012254)
(3.52465e-09 -6.93664e-10 -0.000122527)
(-1.21524e-08 -4.05079e-09 -0.000122538)
(-7.12841e-09 8.23156e-10 -0.000117607)
(-9.67551e-10 -3.93302e-09 -0.000117639)
(4.19748e-09 1.95389e-09 -0.000117599)
(-2.43921e-09 -2.67757e-09 -0.000117631)
(-2.30966e-10 -3.68545e-09 -0.000117643)
(-6.76157e-09 9.281e-10 -0.000117609)
(-3.02218e-09 -2.37663e-09 -0.000117635)
(3.52434e-09 2.16256e-09 -0.000117602)
(-1.10855e-09 6.53844e-09 -0.00012254)
(-1.67386e-10 -3.95519e-09 -0.000122452)
(1.01138e-08 -2.94229e-09 -0.000122526)
(-5.87772e-09 6.56677e-10 -0.000122514)
(-5.3401e-10 -3.45171e-09 -0.000122453)
(-1.37997e-09 6.93058e-09 -0.000122539)
(-6.49716e-09 9.58645e-10 -0.000122517)
(9.53808e-09 -2.62834e-09 -0.000122528)
(-1.09116e-08 3.02825e-09 -0.000122526)
(4.29911e-09 1.13235e-10 -0.000122514)
(1.02031e-09 -6.08737e-09 -0.000122546)
(5.74487e-11 4.25842e-09 -0.000122459)
(6.03374e-09 -7.31585e-10 -0.000122516)
(-9.79507e-09 2.85589e-09 -0.000122529)
(6.30497e-10 3.339e-09 -0.00012246)
(1.45715e-09 -7.06508e-09 -0.000122546)
(2.29924e-10 -2.7212e-09 -0.00011759)
(-4.06266e-09 1.93388e-09 -0.000117623)
(2.85466e-09 2.41549e-09 -0.000117639)
(-3.89886e-09 -1.99421e-09 -0.000117609)
(-4.71301e-09 1.66267e-09 -0.000117628)
(1.27339e-09 -3.03205e-09 -0.000117597)
(-1.97932e-09 -7.76195e-09 -0.000122549)
(-1.18406e-09 2.22051e-09 -0.000122464)
(-8.04556e-09 -1.91485e-09 -0.000122506)
(8.66812e-09 2.21362e-09 -0.000122516)
(-2.14423e-09 5.88919e-10 -0.000122465)
(-1.96148e-09 -7.93575e-09 -0.00012255)
(-2.9256e-09 9.51552e-10 -0.000117641)
(3.38947e-09 4.91332e-10 -0.000117572)
(3.73589e-09 -1.27219e-09 -0.000117572)
(-2.69251e-09 -1.51402e-09 -0.000117641)
(3.58524e-09 8.3699e-10 -0.000117572)
(-2.89745e-09 1.3129e-09 -0.000117642)
(2.07774e-09 -3.09546e-09 -0.000117639)
(-4.12305e-09 -2.45872e-09 -0.000117572)
(2.65204e-09 1.62619e-09 -0.00011764)
(-3.73426e-09 1.19643e-09 -0.000117572)
(-4.7104e-09 -3.54639e-09 -0.000117574)
(2.02858e-09 -3.24574e-09 -0.000117641)
(-3.97539e-09 1.90368e-09 -0.000117574)
(2.43735e-09 2.07574e-09 -0.000117642)
(-1.15167e-08 -3.75432e-09 -0.00012254)
(4.16118e-09 -2.35172e-10 -0.00012253)
(6.12348e-10 -3.18722e-09 -0.000122454)
(1.5957e-09 7.35826e-09 -0.000122541)
(5.95003e-09 6.95797e-10 -0.000122532)
(-1.06931e-08 -3.28222e-09 -0.000122543)
(-5.97842e-09 1.1761e-09 -0.000117613)
(4.15926e-10 -3.43992e-09 -0.000117647)
(2.89717e-09 2.40525e-09 -0.000117607)
(-3.33672e-09 -2.24726e-09 -0.000117641)
(2.09904e-09 -2.77327e-09 -0.000117651)
(-5.39517e-09 1.42748e-09 -0.000117617)
(-3.58178e-09 -2.24083e-09 -0.000117644)
(2.70414e-09 2.52362e-09 -0.000117612)
(-1.72796e-09 7.43264e-09 -0.000122541)
(-8.88627e-10 -2.80487e-09 -0.000122456)
(8.79188e-09 -2.2762e-09 -0.000122532)
(-6.97932e-09 1.22134e-09 -0.000122522)
(-1.22984e-09 -2.203e-09 -0.000122458)
(-2.02505e-09 8.08654e-09 -0.000122543)
(-7.35986e-09 1.39428e-09 -0.000122524)
(8.3625e-09 -2.08782e-09 -0.000122536)
(-8.33067e-09 2.00615e-09 -0.00012253)
(7.33262e-09 -1.51334e-09 -0.000122517)
(2.02472e-09 -7.99235e-09 -0.000122547)
(1.0295e-09 2.46355e-09 -0.00012246)
(8.50268e-09 -2.2382e-09 -0.000122517)
(-7.00439e-09 1.30259e-09 -0.000122531)
(1.21949e-09 2.31743e-09 -0.000122461)
(2.39815e-09 -8.80211e-09 -0.000122548)
(7.0304e-10 -3.27791e-09 -0.000117601)
(-2.15225e-09 2.62968e-09 -0.00011763)
(5.37071e-09 1.31598e-09 -0.000117642)
(-1.05681e-09 -3.21602e-09 -0.000117613)
(-4.81922e-09 1.49821e-09 -0.000117631)
(3.13471e-09 -2.32287e-09 -0.000117604)
(-3.15995e-09 -9.92132e-09 -0.000122553)
(8.09035e-11 4.15238e-09 -0.000122469)
(-7.9941e-09 -2.02587e-09 -0.000122508)
(9.49046e-09 2.69241e-09 -0.000122523)
(-1.72899e-09 1.42972e-09 -0.000122469)
(-1.33905e-09 -6.90337e-09 -0.000122551)
(-2.63591e-09 1.63673e-09 -0.000117642)
(3.8795e-09 1.60217e-09 -0.000117572)
(4.01034e-09 -2.03502e-09 -0.000117572)
(-2.06844e-09 -2.9359e-09 -0.000117642)
(3.98516e-09 1.95936e-09 -0.000117572)
(-2.2903e-09 2.41597e-09 -0.000117643)
(1.53363e-09 -4.32361e-09 -0.000117643)
(-3.34858e-09 -2.12852e-10 -0.000117576)
(2.22696e-09 2.70301e-09 -0.000117644)
(-4.00503e-09 1.80573e-09 -0.000117577)
(-4.48547e-09 -3.11093e-09 -0.000117577)
(2.79152e-09 -1.25453e-09 -0.000117643)
(-3.87622e-09 1.79373e-09 -0.000117579)
(2.30917e-09 2.47188e-09 -0.000117647)
(-8.69997e-09 -2.24196e-09 -0.000122545)
(7.50147e-09 1.52715e-09 -0.000122533)
(1.25106e-09 -2.05178e-09 -0.000122454)
(2.45554e-09 8.82146e-09 -0.000122542)
(8.26116e-09 2.01734e-09 -0.000122533)
(-7.39252e-09 -1.52755e-09 -0.000122545)
(-3.60021e-09 2.14449e-09 -0.00011762)
(3.5764e-09 -2.18255e-09 -0.000117652)
(2.61488e-09 2.53022e-09 -0.000117615)
(-3.24001e-09 -2.34621e-09 -0.000117647)
(4.34884e-09 -1.86371e-09 -0.000117653)
(-2.31673e-09 2.68447e-09 -0.000117622)
(-2.85073e-09 -2.47817e-09 -0.000117649)
(3.12295e-09 2.32994e-09 -0.000117618)
(-2.37795e-09 8.63834e-09 -0.000122546)
(-1.28623e-09 -2.06127e-09 -0.000122461)
(8.13358e-09 -1.93106e-09 -0.000122538)
(-7.25087e-09 1.3549e-09 -0.000122526)
(-1.1122e-09 -2.29174e-09 -0.000122463)
(-2.33063e-09 8.62482e-09 -0.000122549)
(-7.14512e-09 1.32095e-09 -0.000122528)
(8.24713e-09 -1.98688e-09 -0.00012254)
(-5.95871e-09 7.01637e-10 -0.000122531)
(8.94783e-09 -2.35757e-09 -0.000122516)
(2.3992e-09 -8.72201e-09 -0.000122548)
(9.41225e-10 2.53777e-09 -0.00012246)
(8.58576e-09 -2.28567e-09 -0.000122514)
(-5.65e-09 5.51075e-10 -0.000122529)
(1.17691e-09 2.38401e-09 -0.000122459)
(2.22773e-09 -8.49995e-09 -0.000122547)
(7.1766e-10 -3.34514e-09 -0.000117602)
(-4.09741e-09 1.91275e-09 -0.00011763)
(5.61056e-09 1.23545e-09 -0.000117639)
(5.06296e-10 -3.87085e-09 -0.000117612)
(-3.9487e-09 1.79945e-09 -0.000117629)
(1.71861e-09 -2.90949e-09 -0.000117602)
(-2.45306e-09 -8.81678e-09 -0.000122555)
(-1.18428e-09 2.24318e-09 -0.000122469)
(-7.51947e-09 -1.72315e-09 -0.000122507)
(8.47471e-09 2.02581e-09 -0.000122519)
(-1.33264e-09 1.94319e-09 -0.000122466)
(-1.77639e-09 -7.5731e-09 -0.000122554)
(-2.29868e-09 2.68927e-09 -0.000117642)
(3.87346e-09 2.04112e-09 -0.000117572)
(4.14676e-09 -2.35569e-09 -0.00011757)
(-2.30492e-09 -2.67014e-09 -0.000117641)
(3.91959e-09 1.94794e-09 -0.000117571)
(-2.31147e-09 2.69838e-09 -0.000117641)
(1.85155e-09 -3.66252e-09 -0.000117645)
(-4.22141e-09 -2.48125e-09 -0.000117577)
(2.38814e-09 2.37106e-09 -0.000117649)
(-3.61253e-09 1.19128e-09 -0.000117579)
(-4.08359e-09 -2.26804e-09 -0.000117576)
(2.08769e-09 -2.98295e-09 -0.000117645)
(-3.62725e-09 1.00723e-09 -0.000117578)
(2.6383e-09 1.83038e-09 -0.000117649)
(-6.83988e-09 -1.13876e-09 -0.000122546)
(8.52677e-09 2.12108e-09 -0.000122533)
(1.06235e-09 -2.33998e-09 -0.000122453)
(2.45468e-09 9.0768e-09 -0.000122541)
(8.64294e-09 2.20106e-09 -0.000122531)
(-6.44057e-09 -9.99556e-10 -0.000122545)
(-1.81556e-09 2.88827e-09 -0.000117622)
(4.83901e-09 -1.62356e-09 -0.000117653)
(3.32585e-09 2.27619e-09 -0.000117619)
(-3.01595e-09 -2.34645e-09 -0.000117647)
(4.97747e-09 -1.57104e-09 -0.000117651)
(-1.15616e-09 3.18133e-09 -0.000117621)
(-2.84102e-09 -2.43178e-09 -0.000117646)
(3.25789e-09 2.37437e-09 -0.000117617)
(-2.12092e-09 8.34138e-09 -0.00012255)
(-6.87667e-10 -3.15945e-09 -0.000122464)
(8.47934e-09 -2.0951e-09 -0.000122541)
(-7.05737e-09 1.30035e-09 -0.000122526)
(-5.99844e-10 -3.24641e-09 -0.000122463)
(-1.76622e-09 7.59017e-09 -0.000122551)
(-6.76782e-09 1.17893e-09 -0.000122525)
(8.41706e-09 -2.05159e-09 -0.000122539)
(-6.18711e-09 8.25439e-10 -0.000122527)
(7.48626e-09 -1.66984e-09 -0.000122512)
(2.40722e-09 -8.80874e-09 -0.000122545)
(1.25983e-09 1.972e-09 -0.000122457)
(6.89195e-09 -1.36946e-09 -0.000122511)
(-7.3618e-09 1.35097e-09 -0.000122525)
(1.0885e-09 2.3788e-09 -0.000122456)
(2.50264e-09 -9.0232e-09 -0.000122543)
(1.38226e-09 -3.16116e-09 -0.0001176)
(-1.59747e-09 2.7225e-09 -0.000117627)
(3.97448e-09 1.85495e-09 -0.000117635)
(-1.26685e-09 -3.18242e-09 -0.000117607)
(-4.57141e-09 1.66572e-09 -0.000117624)
(3.47753e-09 -2.2984e-09 -0.000117599)
(-2.24504e-09 -8.387e-09 -0.000122553)
(1.0962e-09 5.92256e-09 -0.000122468)
(-7.39294e-09 -1.65004e-09 -0.000122501)
(1.01206e-08 3.02129e-09 -0.000122518)
(-1.24914e-09 2.28462e-09 -0.000122463)
(-4.146e-10 -5.26928e-09 -0.000122548)
(-2.35249e-09 2.60814e-09 -0.00011764)
(3.74646e-09 1.5294e-09 -0.000117569)
(4.21682e-09 -2.53094e-09 -0.000117567)
(-2.04006e-09 -3.31615e-09 -0.000117637)
(3.7028e-09 1.33205e-09 -0.000117567)
(-2.51141e-09 2.06304e-09 -0.000117638)
(2.12535e-09 -3.05461e-09 -0.000117644)
(-2.80733e-09 9.01231e-10 -0.000117575)
(2.70874e-09 1.67799e-09 -0.000117648)
(-3.70797e-09 1.41142e-09 -0.000117577)
(-4.29232e-09 -2.6525e-09 -0.000117572)