/*--------------------------------*- C++ -*----------------------------------*\
| =========                 |                                                 |
| \\      /  F ield         | OpenFOAM: The Open Source CFD Toolbox           |
|  \\    /   O peration     | Version:  2206                                  |
|   \\  /    A nd           | Website:  www.openfoam.com                      |
|    \\/     M anipulation  |                                                 |
\*---------------------------------------------------------------------------*/
FoamFile
{
    version     2.0;
    format      ascii;
    arch        "LSB;label=32;scalar=64";
    class       volScalarField;
    location    "0.4";
    object      k;
}
// * * * * * * * * * * * * * * * * * * * * * * * * * * * * * * * * * * * * * //

dimensions      [0 2 -2 0 0 0 0];

internalField   nonuniform List<scalar> 
66616
(
3.6073e-05
4.28868e-05
3.16391e-05
5.00556e-05
3.38594e-05
3.73276e-05
3.94947e-05
2.22362e-05
3.12263e-05
3.81711e-05
3.80044e-05
4.08202e-05
3.06453e-05
3.93457e-05
3.8981e-05
4.46834e-05
3.00559e-05
3.9509e-05
3.91028e-05
4.53174e-05
2.93893e-05
3.99215e-05
3.94673e-05
4.63434e-05
2.83996e-05
3.93389e-05
3.887e-05
4.58632e-05
2.70452e-05
3.76333e-05
3.71857e-05
4.3768e-05
2.53055e-05
3.47839e-05
3.4382e-05
4.01337e-05
2.32325e-05
3.10949e-05
3.07622e-05
3.54535e-05
2.12671e-05
2.80178e-05
2.77275e-05
3.1708e-05
2.05305e-05
2.74381e-05
2.7118e-05
3.10696e-05
4.891e-05
4.73583e-05
4.80172e-05
3.76992e-05
4.68307e-05
4.27907e-05
3.64376e-05
3.80165e-05
3.73335e-05
3.74529e-05
4.95251e-05
4.88891e-05
4.89351e-05
4.5178e-05
5.01665e-05
5.04913e-05
4.85027e-05
3.04009e-05
4.37156e-05
4.43673e-05
4.06811e-05
3.82675e-05
3.24387e-05
2.4967e-05
4.35314e-05
4.19789e-05
4.09166e-05
4.14327e-05
4.50208e-05
3.86378e-05
3.64288e-05
4.8778e-05
3.57832e-05
4.54817e-05
4.07363e-05
3.65937e-05
2.0863e-05
2.95096e-05
4.03621e-05
3.80659e-05
3.55771e-05
3.73535e-05
3.66126e-05
2.52058e-05
3.96071e-05
3.86931e-05
3.88662e-05
3.78009e-05
3.77032e-05
3.48952e-05
3.74956e-05
3.69808e-05
3.2963e-05
4.02392e-05
3.52993e-05
3.77087e-05
3.69239e-05
3.94658e-05
4.13981e-05
4.46534e-05
3.79466e-05
3.76198e-05
3.89073e-05
3.88833e-05
4.09293e-05
4.4632e-05
3.83046e-05
3.82292e-05
3.92634e-05
3.92721e-05
3.79521e-05
3.92394e-05
3.924e-05
4.12921e-05
4.46567e-05
3.77446e-05
3.88917e-05
3.88724e-05
4.46366e-05
4.46953e-05
4.52699e-05
3.90034e-05
3.89934e-05
3.90719e-05
3.90733e-05
4.46769e-05
4.52573e-05
3.93632e-05
3.93791e-05
3.94407e-05
3.94666e-05
3.93597e-05
3.94292e-05
3.94566e-05
4.46984e-05
4.52736e-05
3.89752e-05
3.90408e-05
3.90466e-05
4.52741e-05
4.53125e-05
4.63312e-05
3.91384e-05
3.9141e-05
3.94832e-05
3.94834e-05
4.53002e-05
4.63114e-05
3.95173e-05
3.95497e-05
3.99083e-05
3.9938e-05
3.95411e-05
3.98989e-05
3.993e-05
4.53167e-05
4.6339e-05
3.91109e-05
3.94508e-05
3.94594e-05
4.6342e-05
4.63329e-05
4.6081e-05
3.94989e-05
3.94985e-05
3.91602e-05
3.91605e-05
4.63128e-05
4.60615e-05
3.99313e-05
3.99602e-05
3.96117e-05
3.96376e-05
3.99523e-05
3.95991e-05
3.96298e-05
4.63404e-05
4.60887e-05
3.9476e-05
3.91306e-05
3.91396e-05
4.60936e-05
4.5851e-05
4.42272e-05
3.88991e-05
3.88993e-05
3.7736e-05
3.77336e-05
4.58333e-05
4.42026e-05
3.93506e-05
3.93756e-05
3.81753e-05
3.81953e-05
3.9368e-05
3.81623e-05
3.81882e-05
4.58583e-05
4.42369e-05
3.88793e-05
3.77112e-05
3.77207e-05
4.42439e-05
4.37541e-05
4.07559e-05
3.72093e-05
3.72054e-05
3.51877e-05
3.51862e-05
4.37314e-05
4.07344e-05
3.76466e-05
3.76651e-05
3.55965e-05
3.56093e-05
3.76582e-05
3.55816e-05
3.56021e-05
4.37622e-05
4.07648e-05
3.71955e-05
3.51704e-05
3.51808e-05
4.07724e-05
4.01203e-05
3.61285e-05
3.43977e-05
3.43965e-05
3.17233e-05
3.17208e-05
4.0101e-05
3.61084e-05
3.47978e-05
3.48087e-05
3.20692e-05
3.20764e-05
3.48024e-05
3.20561e-05
3.20702e-05
4.01278e-05
3.61346e-05
3.4393e-05
3.17098e-05
3.17205e-05
3.61432e-05
3.5443e-05
3.20461e-05
3.07747e-05
3.07729e-05
2.82706e-05
2.82693e-05
3.54227e-05
3.20325e-05
3.11072e-05
3.11139e-05
2.85565e-05
2.85627e-05
3.11084e-05
2.85463e-05
2.85572e-05
3.5448e-05
3.20544e-05
3.07731e-05
2.8262e-05
2.82722e-05
3.20631e-05
3.16943e-05
3.10525e-05
2.77348e-05
2.77349e-05
2.71559e-05
2.71575e-05
3.16798e-05
3.10412e-05
2.80265e-05
2.80325e-05
2.74462e-05
2.74471e-05
2.80276e-05
2.74357e-05
2.74419e-05
3.17023e-05
3.10614e-05
2.77381e-05
2.71533e-05
2.71647e-05
3.10721e-05
3.10532e-05
2.71204e-05
2.71192e-05
3.10381e-05
2.74498e-05
2.74515e-05
2.7445e-05
3.10617e-05
2.71321e-05
3.20706e-05
3.73242e-05
3.29196e-05
3.30818e-05
4.89156e-05
4.24826e-05
4.05356e-06
3.37961e-05
4.84694e-05
3.97175e-05
3.42494e-05
1.2542e-06
5.05305e-05
2.11324e-06
2.34083e-06
3.32464e-05
9.81047e-06
3.33658e-05
6.39197e-06
1.02132e-05
5.06885e-06
3.11486e-05
8.75987e-06
2.28696e-05
1.05003e-05
3.79524e-05
3.69676e-05
3.77447e-05
3.51148e-05
3.57332e-05
3.48786e-05
3.68026e-05
5.04421e-05
3.02585e-05
3.71472e-05
4.04698e-05
5.42515e-05
2.96437e-05
3.69022e-05
5.79208e-06
5.11889e-06
4.99745e-05
4.00486e-05
1.96557e-06
3.7445e-05
4.79251e-05
3.77215e-05
1.34733e-05
3.40084e-05
1.39813e-05
2.74675e-05
2.0705e-05
1.71005e-05
5.43654e-05
1.7072e-05
5.0236e-05
1.93322e-05
1.15223e-05
1.39732e-05
5.41007e-05
1.72932e-05
5.14081e-05
1.89212e-05
3.39668e-05
3.37154e-05
3.47408e-05
3.15005e-05
3.14742e-05
3.14638e-05
3.15387e-05
5.43138e-05
4.20065e-05
3.45881e-05
3.70243e-05
5.18303e-05
4.89036e-05
3.41786e-05
9.89061e-06
1.33006e-05
5.35696e-05
3.41691e-05
3.76607e-05
3.80058e-05
5.0968e-05
3.37591e-05
4.81625e-05
2.34707e-05
2.47244e-05
2.94422e-05
3.25919e-05
3.32628e-05
5.20011e-05
1.91115e-05
5.31007e-05
1.89513e-05
1.40959e-05
1.39816e-05
5.12644e-05
1.88266e-05
5.2526e-05
1.87128e-05
3.12119e-05
3.11961e-05
3.12416e-05
3.07699e-05
3.07697e-05
3.07652e-05
3.07749e-05
5.4097e-05
4.90288e-05
3.40305e-05
3.86845e-05
5.44231e-05
4.77224e-05
3.39927e-05
1.38677e-05
1.37793e-05
5.37359e-05
3.35392e-05
4.92145e-05
3.84164e-05
5.39838e-05
3.34915e-05
4.8066e-05
3.38574e-05
3.41901e-05
4.35017e-05
3.3087e-05
3.34219e-05
5.06552e-05
1.96261e-05
5.07706e-05
2.06402e-05
1.4473e-05
1.51582e-05
4.99404e-05
1.94348e-05
5.00755e-05
2.03889e-05
3.06455e-05
3.06437e-05
3.06491e-05
3.02074e-05
3.02071e-05
3.02083e-05
3.02093e-05
5.30753e-05
4.66018e-05
3.38136e-05
3.93816e-05
5.33644e-05
4.65836e-05
3.37109e-05
1.42868e-05
1.49492e-05
5.28165e-05
3.32896e-05
4.69096e-05
3.90081e-05
5.31259e-05
3.31825e-05
4.69003e-05
3.30225e-05
3.33247e-05
4.49897e-05
3.36208e-05
3.39461e-05
5.46101e-05
2.34425e-05
5.27106e-05
2.46212e-05
1.68284e-05
1.7451e-05
5.37393e-05
2.31183e-05
5.19939e-05
2.42107e-05
3.00557e-05
3.0057e-05
3.00577e-05
2.95797e-05
2.9579e-05
2.95807e-05
2.9581e-05
5.48778e-05
4.91894e-05
3.34012e-05
3.96646e-05
5.3477e-05
5.11727e-05
3.33572e-05
1.66488e-05
1.72425e-05
5.45778e-05
3.28414e-05
4.94655e-05
3.92427e-05
5.32249e-05
3.27771e-05
5.15362e-05
3.62982e-05
3.66255e-05
4.58504e-05
3.74394e-05
3.77968e-05
5.7438e-05
2.61651e-05
5.6853e-05
2.65321e-05
1.81895e-05
1.8289e-05
5.64097e-05
2.56982e-05
5.59421e-05
2.59884e-05
2.93887e-05
2.93903e-05
2.93906e-05
2.86802e-05
2.86789e-05
2.86806e-05
2.86806e-05
5.70721e-05
5.3517e-05
3.31667e-05
3.99039e-05
5.65398e-05
5.40014e-05
3.30249e-05
1.79456e-05
1.80159e-05
5.68122e-05
3.25264e-05
5.38851e-05
3.94462e-05
5.63084e-05
3.23729e-05
5.44392e-05
3.87313e-05
3.912e-05
4.64223e-05
3.88003e-05
3.92177e-05
5.7117e-05
2.67321e-05
5.75868e-05
2.64231e-05
1.81916e-05
1.78178e-05
5.59451e-05
2.61439e-05
5.64963e-05
2.58138e-05
2.83984e-05
2.83998e-05
2.83998e-05
2.7424e-05
2.74217e-05
2.74234e-05
2.74232e-05
5.66471e-05
5.40988e-05
3.23572e-05
3.9012e-05
5.69766e-05
5.35688e-05
3.2062e-05
1.79184e-05
1.75299e-05
5.64448e-05
3.1695e-05
5.45536e-05
3.85485e-05
5.67777e-05
3.14047e-05
5.4069e-05
3.85567e-05
3.89719e-05
4.53611e-05
3.78187e-05
3.82591e-05
5.35596e-05
2.5364e-05
5.5349e-05
2.4162e-05
1.69057e-05
1.59908e-05
5.23139e-05
2.47833e-05
5.42426e-05
2.35829e-05
2.70429e-05
2.70445e-05
2.70444e-05
2.57692e-05
2.57667e-05
2.57681e-05
2.57679e-05
5.3822e-05
5.19821e-05
3.09486e-05
3.70163e-05
5.50472e-05
5.01967e-05
3.04757e-05
1.66366e-05
1.57284e-05
5.36314e-05
3.0306e-05
5.24422e-05
3.65804e-05
5.49321e-05
2.98496e-05
5.07536e-05
3.61911e-05
3.66114e-05
4.26974e-05
3.44436e-05
3.48778e-05
4.74275e-05
2.22818e-05
4.99192e-05
2.11912e-05
1.46365e-05
1.38668e-05
4.61884e-05
2.17825e-05
4.87917e-05
2.06169e-05
2.53032e-05
2.53047e-05
2.53048e-05
2.37905e-05
2.37879e-05
2.37896e-05
2.37898e-05
4.84299e-05
4.68788e-05
2.88082e-05
3.3917e-05
5.04746e-05
4.44588e-05
2.81672e-05
1.441e-05
1.36038e-05
4.83508e-05
2.82363e-05
4.73648e-05
3.35356e-05
5.04617e-05
2.76276e-05
4.5036e-05
3.1692e-05
3.20742e-05
3.85451e-05
2.97243e-05
3.01793e-05
4.25055e-05
2.03548e-05
4.3861e-05
2.02978e-05
1.33147e-05
1.32745e-05
4.14088e-05
1.98406e-05
4.27683e-05
1.97484e-05
2.32304e-05
2.32319e-05
2.32323e-05
2.16707e-05
2.16689e-05
2.16707e-05
2.16711e-05
4.27922e-05
4.13131e-05
2.6086e-05
3.01348e-05
4.45335e-05
4.00922e-05
2.53584e-05
1.30779e-05
1.30261e-05
4.27892e-05
2.56225e-05
4.18136e-05
2.98295e-05
4.46091e-05
2.49331e-05
4.06204e-05
2.79673e-05
2.83488e-05
3.38235e-05
2.74528e-05
2.7863e-05
4.25129e-05
2.07977e-05
4.20428e-05
2.10759e-05
1.35827e-05
1.37475e-05
4.14448e-05
2.02361e-05
4.10586e-05
2.04846e-05
2.1266e-05
2.12675e-05
2.12682e-05
2.06178e-05
2.06164e-05
2.06196e-05
2.0619e-05
4.11462e-05
3.97998e-05
2.36536e-05
2.76626e-05
4.11539e-05
4.01615e-05
2.33271e-05
1.33216e-05
1.34701e-05
4.10394e-05
2.3252e-05
4.02753e-05
2.73769e-05
4.11019e-05
2.29316e-05
4.07057e-05
2.7691e-05
2.81115e-05
3.12054e-05
2.79656e-05
2.84154e-05
4.36893e-05
2.1471e-05
4.35113e-05
2.14366e-05
1.39678e-05
1.39894e-05
2.0882e-05
4.24534e-05
2.05286e-05
2.05273e-05
2.05319e-05
4.23028e-05
4.10928e-05
2.30681e-05
2.75232e-05
4.1776e-05
4.14527e-05
2.3162e-05
1.36921e-05
4.24483e-05
2.25668e-05
4.16197e-05
4.17415e-05
2.28161e-05
2.85095e-05
2.89645e-05
3.12393e-05
2.86354e-05
2.90269e-05
5.20813e-05
3.9037e-06
1.19905e-06
3.41915e-06
5.34553e-06
1.70768e-06
8.75903e-07
5.47845e-05
1.5627e-05
8.86024e-06
3.13833e-06
1.18637e-06
4.78604e-05
4.18559e-05
3.97954e-05
3.37498e-05
4.87831e-05
4.23599e-05
3.50087e-05
3.38327e-05
5.81457e-05
2.62003e-06
2.18986e-05
3.07873e-05
5.77861e-05
1.29284e-06
2.22457e-05
2.92173e-05
4.97677e-05
4.33251e-05
3.02498e-05
3.67166e-05
3.19152e-05
3.39714e-05
5.27002e-05
5.08589e-05
4.44306e-05
3.33812e-05
3.70103e-05
3.02955e-05
3.40834e-05
5.36273e-05
5.05677e-05
3.25884e-06
1.40307e-06
4.93057e-06
4.87032e-06
5.43761e-05
3.19103e-05
1.96387e-05
3.52737e-06
1.16558e-06
3.27937e-06
5.5782e-07
4.93005e-05
4.17601e-05
2.97697e-06
3.40825e-05
4.83004e-05
3.99874e-05
3.40641e-05
1.82207e-06
5.50865e-05
5.4053e-07
1.70021e-06
2.3882e-05
5.21138e-05
4.32668e-05
2.03103e-05
3.84328e-05
2.05114e-06
3.44659e-05
5.09928e-05
5.41304e-05
2.37006e-06
2.05741e-06
3.20415e-05
5.06662e-05
4.24678e-05
3.72396e-05
3.30139e-06
3.44221e-05
1.54224e-06
5.25515e-05
3.20479e-05
3.80914e-05
3.29836e-05
3.29899e-05
3.21414e-05
3.65467e-05
3.30756e-05
3.32651e-05
3.20991e-05
3.80557e-05
3.3029e-05
3.31639e-05
3.1975e-05
3.79446e-05
3.30854e-05
3.33552e-05
3.30035e-05
3.32288e-05
3.19189e-05
3.19531e-05
3.88406e-05
3.33436e-05
3.34006e-05
3.30952e-05
3.30977e-05
3.19076e-05
3.20528e-05
3.70573e-05
3.33829e-05
3.44292e-05
3.32237e-05
3.3424e-05
3.22959e-05
3.20125e-05
3.88919e-05
3.34973e-05
3.37092e-05
3.31613e-05
3.33233e-05
3.21213e-05
4.85758e-05
4.19227e-05
3.38737e-05
2.24279e-05
5.06756e-05
4.44713e-05
2.57833e-05
3.7195e-05
3.18866e-06
3.4026e-05
5.41801e-05
5.70192e-05
2.56354e-06
1.91045e-06
3.82338e-05
5.13229e-05
4.45691e-05
3.76462e-05
3.30833e-05
3.41485e-05
2.38581e-05
4.86229e-05
5.61518e-05
2.2194e-06
1.49278e-05
2.30718e-05
4.39441e-05
1.6328e-06
1.09948e-06
1.43187e-06
2.96627e-06
4.47672e-05
7.56148e-06
3.04381e-06
1.55979e-06
1.50946e-06
1.78792e-06
3.89106e-06
4.84164e-05
4.24472e-05
3.40175e-05
8.95103e-06
5.09868e-05
4.06558e-05
4.03014e-05
2.19515e-06
3.47892e-05
1.3436e-06
4.71645e-05
4.99839e-05
4.54206e-05
3.76976e-05
1.36824e-05
3.43925e-05
9.08614e-06
5.42195e-05
5.40959e-05
5.50814e-06
2.7559e-06
4.22126e-05
5.71344e-05
2.12028e-06
4.37308e-06
4.41519e-05
5.61684e-05
3.64601e-05
6.39959e-06
4.04692e-06
2.83144e-06
5.31916e-06
2.08619e-06
1.71897e-06
9.09307e-07
8.27242e-06
4.2045e-06
1.1079e-05
7.00397e-06
2.24845e-05
1.9629e-05
4.94376e-05
1.75008e-05
2.16771e-05
9.14512e-06
4.22469e-06
9.69241e-06
6.26512e-06
4.69094e-05
2.00322e-05
2.21251e-05
1.56951e-05
1.92315e-05
3.4998e-05
9.86315e-06
3.24078e-05
7.541e-06
4.95601e-05
3.32452e-05
3.66048e-05
4.34783e-05
5.23811e-05
2.72973e-05
3.65165e-05
5.10177e-05
3.63716e-05
3.70197e-05
4.39894e-05
5.319e-05
3.15107e-05
3.70014e-05
3.44623e-05
1.45464e-05
6.70612e-06
4.66779e-05
3.63122e-05
1.45182e-05
7.79309e-06
4.68971e-05
4.89695e-05
4.27276e-05
3.70056e-05
3.52997e-05
2.78255e-05
3.61639e-05
4.98283e-05
5.01655e-05
4.24568e-05
3.31346e-05
3.60286e-05
3.05381e-05
3.67452e-05
4.96923e-05
3.19716e-05
2.22166e-05
3.09352e-05
2.03352e-05
2.17624e-05
8.46934e-06
5.88836e-06
9.74041e-06
5.06663e-06
2.97926e-05
2.08417e-05
2.18859e-05
1.83261e-05
2.09067e-05
8.79609e-06
5.67728e-06
4.39975e-05
2.92252e-05
3.80135e-05
4.30611e-05
4.63979e-05
3.5775e-05
3.72454e-05
3.73782e-05
6.02811e-06
3.67767e-05
6.41493e-06
4.95056e-05
3.67246e-05
1.65381e-05
4.28748e-05
5.17233e-05
3.65316e-05
2.74118e-05
3.63421e-05
1.53624e-05
1.06601e-05
4.87257e-05
4.59505e-05
4.23971e-05
3.8808e-05
3.53417e-05
3.58911e-05
3.63836e-05
5.03549e-05
3.89738e-05
1.23761e-05
6.68797e-06
4.8287e-05
4.92947e-05
4.25778e-05
3.5934e-05
3.23199e-05
3.63285e-05
2.78611e-05
5.04856e-05
2.69063e-05
8.78122e-06
3.55371e-05
7.86133e-06
4.70428e-05
3.7612e-05
3.50588e-05
4.42578e-05
4.66305e-05
3.73749e-05
3.07189e-05
2.92246e-05
9.69295e-06
2.32322e-05
7.44418e-06
4.96403e-05
3.99604e-05
3.86543e-05
3.55411e-05
3.1553e-05
3.64483e-05
5.0977e-05
2.93207e-05
1.41315e-05
8.33637e-06
4.58834e-05
4.80155e-05
4.08864e-05
3.61656e-05
3.65501e-05
3.70011e-05
3.08978e-05
5.11196e-05
3.41207e-05
1.42992e-05
7.84963e-06
4.7335e-05
1.5174e-05
6.17947e-06
5.06863e-05
1.67225e-05
1.62631e-05
3.42294e-06
3.97167e-06
7.6432e-06
4.6023e-06
5.01403e-05
1.58895e-05
1.71695e-05
1.41249e-05
1.56013e-05
7.77711e-06
4.07567e-06
5.12495e-05
3.76553e-05
2.84816e-05
4.42887e-05
5.43881e-05
3.74314e-05
3.37479e-05
3.63646e-05
5.22921e-06
4.46399e-05
4.9023e-06
3.81879e-05
8.6498e-06
4.54829e-05
9.86377e-06
4.92843e-05
4.0643e-05
3.49666e-05
3.22895e-05
3.61743e-05
1.9066e-05
5.01594e-05
5.05027e-05
4.06384e-05
3.60686e-05
3.77757e-05
3.69605e-05
3.38093e-05
5.09783e-05
3.66853e-05
1.25565e-05
5.41511e-06
4.67443e-05
3.85817e-05
1.41542e-05
9.97859e-06
4.72573e-05
9.70205e-06
4.81525e-06
6.19164e-06
4.64854e-06
2.24862e-05
1.90028e-05
2.03206e-05
1.77583e-05
1.67247e-05
8.54317e-06
4.68856e-06
8.51244e-06
4.49488e-06
1.11541e-05
1.38958e-05
1.14805e-05
1.37099e-05
2.50713e-05
2.65177e-05
3.23065e-05
3.34003e-05
3.3559e-05
1.41371e-05
1.41745e-05
1.38971e-05
1.39441e-05
3.44758e-05
3.42866e-05
3.39243e-05
3.42405e-05
3.42017e-05
5.45211e-05
1.73845e-05
5.03288e-05
1.97225e-05
5.34292e-05
4.15532e-05
3.42534e-05
3.70963e-05
5.06228e-05
4.94851e-05
3.37602e-05
5.31155e-05
3.76051e-05
3.46896e-05
3.52203e-05
5.01898e-05
4.82668e-05
3.39353e-05
5.44391e-05
1.91568e-05
1.94542e-05
5.3452e-05
5.45914e-05
1.91881e-05
1.97337e-05
5.35119e-05
5.38015e-05
3.70946e-05
4.96031e-05
3.3582e-05
5.01179e-05
3.36202e-05
5.40526e-05
5.3593e-05
3.55308e-05
4.96528e-05
3.3602e-05
4.95311e-05
3.36731e-05
5.40155e-05
2.52001e-05
2.49622e-05
2.98089e-05
3.33039e-05
3.29735e-05
1.07172e-05
1.35608e-05
1.4126e-05
1.41837e-05
3.23761e-05
3.42703e-05
3.40252e-05
3.41766e-05
3.39438e-05
1.39651e-05
1.39357e-05
5.42095e-05
4.21204e-05
3.45302e-05
3.77025e-05
5.14331e-05
4.91205e-05
3.41827e-05
5.39073e-05
1.52401e-05
5.09207e-05
1.85254e-05
5.41323e-05
3.4829e-05
3.73824e-05
3.76368e-05
5.13844e-05
3.42324e-05
4.77053e-05
5.41152e-05
1.88235e-05
1.90482e-05
5.27873e-05
5.44728e-05
3.76357e-05
4.93236e-05
3.40763e-05
4.98187e-05
3.40994e-05
5.45808e-05
5.39617e-05
1.88129e-05
1.88844e-05
5.2777e-05
5.44161e-05
3.75423e-05
3.40328e-05
4.91821e-05
3.40659e-05
4.89822e-05
5.45641e-05
5.37029e-05
1.6317e-05
4.9512e-05
1.87089e-05
5.43477e-05
3.49259e-05
4.05563e-05
3.50032e-05
5.19527e-05
3.42751e-05
4.86662e-05
5.3859e-05
1.66048e-05
5.03176e-05
1.89432e-05
5.4533e-05
3.71166e-05
4.93137e-05
3.40549e-05
4.96353e-05
3.40753e-05
5.4613e-05
5.38476e-05
1.8931e-05
1.90506e-05
5.28391e-05
5.45565e-05
3.57024e-05
3.40509e-05
4.93538e-05
3.40817e-05
4.95803e-05
5.46272e-05
5.39607e-05
1.89667e-05
1.91852e-05
5.2866e-05
2.09771e-05
2.20512e-05
3.28693e-05
3.17456e-05
3.24954e-05
9.98881e-06
1.35354e-05
1.38674e-05
1.37377e-05
3.45118e-05
3.37709e-05
3.42263e-05
3.31898e-05
3.37652e-05
1.41053e-05
1.39587e-05
5.37539e-05
3.47466e-05
4.12127e-05
3.53692e-05
5.1607e-05
3.39927e-05
4.88628e-05
5.39929e-05
1.53253e-05
4.9951e-05
1.87342e-05
5.40846e-05
1.63574e-05
5.01889e-05
1.90692e-05
5.38973e-05
3.76551e-05
3.35802e-05
4.95321e-05
3.36255e-05
4.93663e-05
5.40866e-05
5.40192e-05
3.58914e-05
3.36339e-05
4.97081e-05
3.37188e-05
4.98033e-05
5.41339e-05
5.41409e-05
1.91091e-05
1.91001e-05
5.33909e-05
5.42347e-05
1.91617e-05
1.92721e-05
5.34575e-05
1.06044e-05
1.35617e-05
1.05712e-05
1.37221e-05
3.21602e-05
3.39341e-05
3.43151e-05
3.36985e-05
3.42121e-05
1.39571e-05
1.39211e-05
1.41319e-05
1.4062e-05
1.4101e-05
1.39737e-05
1.38854e-05
1.37932e-05
3.41669e-05
3.38048e-05
4.36462e-05
3.34122e-05
3.30542e-05
1.42324e-05
1.40077e-05
1.40579e-05
1.38433e-05
4.38971e-05
3.32202e-05
3.28669e-05
3.3384e-05
3.30499e-05
5.20111e-05
1.91278e-05
5.31392e-05
1.89569e-05
5.37221e-05
4.9237e-05
3.35397e-05
3.84048e-05
5.39582e-05
4.80578e-05
3.34831e-05
5.37234e-05
4.92883e-05
3.35528e-05
3.82648e-05
5.3946e-05
4.80893e-05
3.34933e-05
5.17589e-05
1.92921e-05
1.9002e-05
5.09242e-05
5.17644e-05
1.92971e-05
1.90072e-05
5.09233e-05
5.35898e-05
3.87153e-05
4.70133e-05
3.33504e-05
4.78331e-05
3.34207e-05
5.33046e-05
5.35892e-05
3.86569e-05
4.70292e-05
3.33552e-05
4.78573e-05
3.34283e-05
5.33014e-05
3.41549e-05
3.39225e-05
4.35384e-05
3.34182e-05
3.31011e-05
1.39467e-05
1.3812e-05
1.42407e-05
1.40164e-05
4.38351e-05
3.32088e-05
3.28914e-05
3.33866e-05
3.30882e-05
1.40566e-05
1.38533e-05
5.40862e-05
4.90106e-05
3.40422e-05
3.87559e-05
5.44016e-05
4.77064e-05
3.39974e-05
5.12659e-05
1.88187e-05
5.25223e-05
1.87054e-05
5.40858e-05
3.4013e-05
4.89408e-05
3.87263e-05
5.43963e-05
3.39833e-05
4.7677e-05
5.11097e-05
1.90766e-05
1.88015e-05
5.0165e-05
5.38994e-05
3.90673e-05
4.66724e-05
3.38922e-05
4.75421e-05
3.39491e-05
5.35848e-05
5.11109e-05
1.90692e-05
1.87935e-05
5.01646e-05
5.38994e-05
3.90631e-05
3.38936e-05
4.66421e-05
3.39455e-05
4.75137e-05
5.35837e-05
5.12962e-05
1.89268e-05
5.25805e-05
1.87583e-05
5.41007e-05
3.40311e-05
4.90435e-05
3.85986e-05
5.44345e-05
3.39972e-05
4.77008e-05
5.1299e-05
1.89493e-05
5.26e-05
1.87546e-05
5.39043e-05
3.90289e-05
4.66564e-05
3.3891e-05
4.7548e-05
3.39476e-05
5.35846e-05
5.11346e-05
1.9084e-05
1.88317e-05
5.01737e-05
5.39047e-05
3.90026e-05
3.38972e-05
4.66337e-05
3.39537e-05
4.75238e-05
5.35825e-05
5.11359e-05
1.90784e-05
1.88267e-05
5.01731e-05
3.37316e-05
3.41474e-05
4.36218e-05
3.30288e-05
3.34178e-05
1.40872e-05
1.39764e-05
1.4046e-05
1.38289e-05
4.38843e-05
3.28468e-05
3.32199e-05
3.30258e-05
3.33889e-05
1.4234e-05
1.40108e-05
5.37481e-05
3.35782e-05
4.93283e-05
3.83051e-05
5.40122e-05
3.35185e-05
4.81064e-05
5.19951e-05
1.90854e-05
5.30669e-05
1.89473e-05
5.20138e-05
1.9122e-05
5.31164e-05
1.89584e-05
5.36004e-05
3.87089e-05
3.33737e-05
4.70134e-05
3.34378e-05
4.78389e-05
5.3312e-05
5.36078e-05
3.8662e-05
3.33843e-05
4.70376e-05
3.34555e-05
4.78693e-05
5.33149e-05
5.17543e-05
1.92873e-05
1.89996e-05
5.09202e-05
5.17672e-05
1.92956e-05
1.90087e-05
5.09262e-05
1.39388e-05
1.38032e-05
1.41076e-05
1.39885e-05
4.38122e-05
3.2885e-05
3.3208e-05
3.30764e-05
3.33876e-05
1.40483e-05
1.38449e-05
1.42443e-05
1.40223e-05
1.44663e-05
1.51572e-05
1.42959e-05
1.49521e-05
3.33428e-05
3.3e-05
4.49916e-05
3.39794e-05
3.35797e-05
1.64296e-05
1.55864e-05
1.6232e-05
1.53885e-05
4.49947e-05
3.59071e-05
3.54641e-05
3.45519e-05
3.41605e-05
5.06508e-05
1.96292e-05
5.07682e-05
2.06435e-05
5.28131e-05
4.6911e-05
3.32629e-05
3.90348e-05
5.31201e-05
4.69027e-05
3.31532e-05
5.28079e-05
4.6924e-05
3.32658e-05
3.90321e-05
5.31162e-05
4.69115e-05
3.31545e-05
5.07702e-05
2.27552e-05
2.13069e-05
5.20005e-05
5.07656e-05
2.2756e-05
2.13084e-05
5.19968e-05
5.27667e-05
3.90472e-05
4.86679e-05
3.29049e-05
4.71425e-05
3.30271e-05
5.30065e-05
5.27614e-05
3.90475e-05
4.86636e-05
3.29046e-05
4.7147e-05
3.30276e-05
5.30015e-05
3.33245e-05
3.30258e-05
4.49759e-05
3.39461e-05
3.36216e-05
1.4295e-05
1.49587e-05
1.64239e-05
1.55837e-05
4.49801e-05
3.5831e-05
3.55288e-05
3.45099e-05
3.42024e-05
1.6239e-05
1.53974e-05
5.308e-05
4.66171e-05
3.38151e-05
3.93963e-05
5.33671e-05
4.65934e-05
3.37133e-05
4.99402e-05
1.94298e-05
5.00746e-05
2.03909e-05
5.30779e-05
3.38194e-05
4.65895e-05
3.94165e-05
5.33656e-05
3.37186e-05
4.65728e-05
5.01239e-05
2.23944e-05
2.10531e-05
5.11816e-05
5.30079e-05
3.94111e-05
4.8296e-05
3.34819e-05
4.68763e-05
3.35941e-05
5.33079e-05
5.0125e-05
2.24008e-05
2.10579e-05
5.11865e-05
5.30063e-05
3.94337e-05
3.34894e-05
4.8294e-05
3.36006e-05
4.68622e-05
5.33085e-05
4.99389e-05
1.94395e-05
5.00785e-05
2.03959e-05
5.30731e-05
3.382e-05
4.65802e-05
3.94032e-05
5.33622e-05
3.37175e-05
4.65622e-05
4.9939e-05
1.94344e-05
5.00781e-05
2.03902e-05
5.30025e-05
3.93975e-05
4.83036e-05
3.34791e-05
4.68736e-05
3.35915e-05
5.33025e-05
5.0121e-05
2.24027e-05
2.10609e-05
5.11804e-05
5.30006e-05
3.94223e-05
3.34868e-05
4.82823e-05
3.35985e-05
4.68509e-05
5.33013e-05
5.01216e-05
2.23973e-05
2.10556e-05
5.11812e-05
3.29845e-05
3.33408e-05
4.49935e-05
3.35801e-05
3.3975e-05
1.4467e-05
1.51576e-05
1.62304e-05
1.53873e-05
4.4996e-05
3.54753e-05
3.59041e-05
3.41666e-05
3.45465e-05
1.64336e-05
1.55875e-05
5.28184e-05
3.32965e-05
4.69324e-05
3.90094e-05
5.31284e-05
3.31866e-05
4.69204e-05
5.06477e-05
1.96194e-05
5.07657e-05
2.06323e-05
5.06517e-05
1.96275e-05
5.07707e-05
2.06383e-05
5.2769e-05
3.90185e-05
3.29354e-05
4.8663e-05
3.30575e-05
4.71391e-05
5.30051e-05
5.2771e-05
3.90222e-05
3.29374e-05
4.86808e-05
3.30606e-05
4.71572e-05
5.30082e-05
5.0761e-05
2.27463e-05
2.12971e-05
5.19858e-05
5.07649e-05
2.27511e-05
2.1304e-05
5.19898e-05
1.42871e-05
1.49471e-05
1.44767e-05
1.51641e-05
4.49934e-05
3.55227e-05
3.58611e-05
3.4208e-05
3.45108e-05
1.62277e-05
1.53843e-05
1.64383e-05
1.55937e-05
1.6835e-05
1.74568e-05
1.66514e-05
1.72459e-05
3.66723e-05
3.62362e-05
4.58403e-05
3.78506e-05
3.7374e-05
1.80591e-05
1.7723e-05
1.78143e-05
1.7513e-05
4.59075e-05
3.89471e-05
3.84244e-05
3.83671e-05
3.78966e-05
5.46057e-05
2.34389e-05
5.27044e-05
2.46209e-05
5.45844e-05
4.94693e-05
3.2812e-05
3.92779e-05
5.32297e-05
5.15337e-05
3.27475e-05
5.45784e-05
4.94635e-05
3.28113e-05
3.92796e-05
5.32239e-05
5.15276e-05
3.27464e-05
5.5235e-05
2.58503e-05
2.51244e-05
5.6502e-05
5.5231e-05
2.5844e-05
2.51206e-05
5.6501e-05
5.49612e-05
3.94075e-05
5.35218e-05
3.26083e-05
5.22083e-05
3.26885e-05
5.61116e-05
5.49553e-05
3.94087e-05
5.35149e-05
3.2607e-05
5.22024e-05
3.26873e-05
5.61077e-05
3.65944e-05
3.62962e-05
4.5827e-05
3.77781e-05
3.74267e-05
1.66561e-05
1.72484e-05
1.80523e-05
1.7717e-05
4.58935e-05
3.8875e-05
3.84798e-05
3.82949e-05
3.79476e-05
1.78164e-05
1.75142e-05
5.48781e-05
4.91785e-05
3.34035e-05
3.96721e-05
5.34816e-05
5.1165e-05
3.33592e-05
5.37437e-05
2.31245e-05
5.19981e-05
2.42165e-05
5.48806e-05
3.34129e-05
4.91783e-05
3.97049e-05
5.34829e-05
3.33696e-05
5.11625e-05
5.44284e-05
2.53775e-05
2.4728e-05
5.55419e-05
5.51697e-05
3.9819e-05
5.31184e-05
3.3264e-05
5.18935e-05
3.33231e-05
5.64062e-05
5.44331e-05
2.53806e-05
2.47334e-05
5.55471e-05
5.51726e-05
3.98504e-05
3.32756e-05
5.31105e-05
3.33346e-05
5.18901e-05
5.64085e-05
5.37411e-05
2.31257e-05
5.19922e-05
2.42168e-05
5.4875e-05
3.341e-05
4.9167e-05
3.96964e-05
5.34757e-05
3.33667e-05
5.11529e-05
5.37398e-05
2.3121e-05
5.19926e-05
2.42132e-05
5.51707e-05
3.98109e-05
5.31174e-05
3.32623e-05
5.18997e-05
3.33216e-05
5.64082e-05
5.44318e-05
2.53789e-05
2.47323e-05
5.55475e-05
5.51676e-05
3.98422e-05
3.32729e-05
5.31039e-05
3.33318e-05
5.18811e-05
5.6405e-05
5.443e-05
2.53778e-05
2.47301e-05
5.55457e-05
3.62471e-05
3.66712e-05
4.58487e-05
3.7382e-05
3.78502e-05
1.68388e-05
1.74607e-05
1.78099e-05
1.75094e-05
4.59155e-05
3.84301e-05
3.89441e-05
3.79035e-05
3.83655e-05
1.80607e-05
1.7726e-05
5.45792e-05
3.28434e-05
4.94815e-05
3.92509e-05
5.32272e-05
3.27784e-05
5.15513e-05
5.45936e-05
2.3432e-05
5.26914e-05
2.46148e-05
5.45955e-05
2.34392e-05
5.26946e-05
2.462e-05
5.49547e-05
3.93738e-05
3.26398e-05
5.35257e-05
3.27185e-05
5.22104e-05
5.61088e-05
5.49558e-05
3.93822e-05
3.26407e-05
5.35419e-05
3.272e-05
5.22261e-05
5.61106e-05
5.52194e-05
2.58391e-05
2.51152e-05
5.6492e-05
5.52208e-05
2.58445e-05
2.51219e-05
5.64935e-05
1.66466e-05
1.72422e-05
1.68436e-05
1.74626e-05
4.59175e-05
3.84979e-05
3.88868e-05
3.79633e-05
3.83092e-05
1.78135e-05
1.75099e-05
1.8061e-05
1.77274e-05
1.81974e-05
1.8301e-05
1.79505e-05
1.80216e-05
3.91818e-05
3.8654e-05
4.64104e-05
3.92806e-05
3.87195e-05
1.82417e-05
1.83321e-05
1.79453e-05
1.80536e-05
4.63225e-05
3.908e-05
3.84967e-05
3.93176e-05
3.87649e-05
5.74363e-05
2.61566e-05
5.68508e-05
2.65234e-05
5.68125e-05
5.38803e-05
3.24944e-05
3.94773e-05
5.63103e-05
5.44346e-05
3.23399e-05
5.68091e-05
5.38714e-05
3.24931e-05
3.94773e-05
5.63065e-05
5.4426e-05
3.23384e-05
5.75601e-05
2.6723e-05
2.66837e-05
5.76027e-05
5.75573e-05
2.67063e-05
2.6672e-05
5.75975e-05
5.68406e-05
3.93732e-05
5.45722e-05
3.19187e-05
5.45558e-05
3.21477e-05
5.68698e-05
5.6837e-05
3.93743e-05
5.45583e-05
3.19171e-05
5.45442e-05
3.21462e-05
5.68655e-05
3.91083e-05
3.87135e-05
4.63879e-05
3.92084e-05
3.87831e-05
1.79533e-05
1.80318e-05
1.82236e-05
1.83163e-05
4.63009e-05
3.89936e-05
3.8569e-05
3.9241e-05
3.88307e-05
1.79563e-05
1.8066e-05
5.70714e-05
5.3517e-05
3.31683e-05
3.99148e-05
5.65376e-05
5.40029e-05
3.3027e-05
5.6413e-05
2.56999e-05
5.59461e-05
2.59878e-05
5.70725e-05
3.31805e-05
5.3508e-05
3.99431e-05
5.65398e-05
3.30391e-05
5.39902e-05
5.65366e-05
2.61165e-05
2.61292e-05
5.65107e-05
5.70671e-05
3.98247e-05
5.41077e-05
3.26168e-05
5.41307e-05
3.2844e-05
5.7111e-05
5.65399e-05
2.61106e-05
2.61271e-05
5.65134e-05
5.70683e-05
3.98518e-05
3.26288e-05
5.40911e-05
3.28564e-05
5.41166e-05
5.71115e-05
5.64132e-05
2.56981e-05
5.59465e-05
2.59882e-05
5.70691e-05
3.31778e-05
5.35025e-05
3.99353e-05
5.65365e-05
3.30362e-05
5.39873e-05
5.64113e-05
2.56975e-05
5.59446e-05
2.59867e-05
5.70678e-05
3.98113e-05
5.41092e-05
3.26143e-05
5.41315e-05
3.2842e-05
5.71108e-05
5.654e-05
2.61135e-05
2.61277e-05
5.65133e-05
5.70648e-05
3.98441e-05
3.26259e-05
5.40926e-05
3.28536e-05
5.41151e-05
5.71078e-05
5.65381e-05
2.61117e-05
2.61266e-05
5.65117e-05
3.86592e-05
3.91776e-05
4.64184e-05
3.87235e-05
3.92754e-05
1.8198e-05
1.83011e-05
1.79379e-05
1.80475e-05
4.633e-05
3.84994e-05
3.90794e-05
3.87685e-05
3.93118e-05
1.82437e-05
1.83315e-05
5.68135e-05
3.25279e-05
5.38998e-05
3.94551e-05
5.63096e-05
3.23739e-05
5.44536e-05
5.74274e-05
2.61525e-05
5.68416e-05
2.65182e-05
5.74281e-05
2.6158e-05
5.68428e-05
2.65241e-05
5.68402e-05
3.93431e-05
3.19532e-05
5.45739e-05
3.21811e-05
5.45584e-05
5.68686e-05
5.68413e-05
3.93526e-05
3.19538e-05
5.45904e-05
3.21824e-05
5.45737e-05
5.68695e-05
5.75476e-05
2.67058e-05
2.66672e-05
5.75866e-05
5.7548e-05
2.67122e-05
2.66741e-05
5.75865e-05
1.79509e-05
1.80239e-05
1.81986e-05
1.83012e-05
4.63344e-05
3.85857e-05
3.90233e-05
3.88465e-05
3.92539e-05
1.7951e-05
1.80563e-05
1.82442e-05
1.83321e-05
1.82103e-05
1.78344e-05
1.79259e-05
1.75373e-05
3.9027e-05
3.84661e-05
4.53476e-05
3.83057e-05
3.77249e-05
1.70712e-05
1.77423e-05
1.67805e-05
1.74563e-05
4.49963e-05
3.69203e-05
3.63399e-05
3.81488e-05
3.75872e-05
5.7102e-05
2.67141e-05
5.758e-05
2.64034e-05
5.64516e-05
5.45514e-05
3.16604e-05
3.85761e-05
5.67801e-05
5.40591e-05
3.13693e-05
5.64433e-05
5.45361e-05
3.16587e-05
3.85753e-05
5.67749e-05
5.4039e-05
3.13673e-05
5.69153e-05
2.555e-05
2.63345e-05
5.57677e-05
5.68999e-05
2.5529e-05
2.63143e-05
5.57501e-05
5.6178e-05
3.81931e-05
5.27973e-05
3.06793e-05
5.38835e-05
3.10453e-05
5.54174e-05
5.61684e-05
3.81914e-05
5.27773e-05
3.06767e-05
5.38625e-05
3.10431e-05
5.54066e-05
3.894e-05
3.85365e-05
4.53298e-05
3.8223e-05
3.77878e-05
1.79356e-05
1.75434e-05
1.70577e-05
1.77256e-05
4.49778e-05
3.68471e-05
3.63948e-05
3.80664e-05
3.76478e-05
1.67832e-05
1.7461e-05
5.66499e-05
5.40971e-05
3.23597e-05
3.90235e-05
5.69774e-05
5.35668e-05
3.20649e-05
5.59453e-05
2.61374e-05
5.64985e-05
2.58059e-05
5.6649e-05
3.23719e-05
5.40796e-05
3.9047e-05
5.69777e-05
3.20766e-05
5.35452e-05
5.57946e-05
2.49392e-05
2.57505e-05
5.45433e-05
5.6335e-05
3.86389e-05
5.22703e-05
3.1365e-05
5.343e-05
3.17395e-05
5.55842e-05
5.57947e-05
2.49307e-05
2.57427e-05
5.45442e-05
5.63334e-05
3.86607e-05
3.13756e-05
5.22481e-05
3.17509e-05
5.34082e-05
5.55823e-05
5.59444e-05
2.61404e-05
5.64983e-05
2.58097e-05
5.66444e-05
3.2369e-05
5.40824e-05
3.90395e-05
5.69738e-05
3.20735e-05
5.35529e-05
5.59423e-05
2.61388e-05
5.64966e-05
2.58084e-05
5.63317e-05
3.8627e-05
5.22643e-05
3.13619e-05
5.3431e-05
3.17369e-05
5.55817e-05
5.57941e-05
2.49311e-05
2.57455e-05
5.45449e-05
5.63288e-05
3.86538e-05
3.13725e-05
5.22571e-05
3.17481e-05
5.34162e-05
5.55784e-05
5.57918e-05
2.49327e-05
2.57452e-05
5.45428e-05
3.84686e-05
3.90276e-05
4.53556e-05
3.77263e-05
3.83138e-05
1.82125e-05
1.78397e-05
1.67734e-05
1.74489e-05
4.5004e-05
3.63414e-05
3.69309e-05
3.75885e-05
3.81568e-05
1.70769e-05
1.7747e-05
5.6445e-05
3.16961e-05
5.45704e-05
3.85577e-05
5.67784e-05
3.14052e-05
5.40851e-05
5.70844e-05
2.67144e-05
5.75681e-05
2.64084e-05
5.70833e-05
2.67212e-05
5.75678e-05
2.64148e-05
5.61692e-05