/*--------------------------------*- C++ -*----------------------------------*\
| =========                 |                                                 |
| \\      /  F ield         | OpenFOAM: The Open Source CFD Toolbox           |
|  \\    /   O peration     | Version:  2206                                  |
|   \\  /    A nd           | Website:  www.openfoam.com                      |
|    \\/     M anipulation  |                                                 |
\*---------------------------------------------------------------------------*/
FoamFile
{
    version     2.0;
    format      ascii;
    arch        "LSB;label=32;scalar=64";
    class       volScalarField;
    location    "0.4";
    object      omega;
}
// * * * * * * * * * * * * * * * * * * * * * * * * * * * * * * * * * * * * * //

dimensions      [0 0 -1 0 0 0 0];

internalField   nonuniform List<scalar> 
66616
(
24.4499
97.4638
277.608
118.453
24.7398
62.7554
48.3214
155.404
21.1285
30.5046
29.4104
44.6902
19.8849
27.9917
27.4452
35.6618
19.5093
28.0465
27.4815
36.0306
19.135
26.8725
26.3401
34.6468
19.0179
26.5483
26.0359
34.1319
18.9422
26.2533
25.7463
33.6068
18.8228
25.6907
25.2022
32.79
18.6914
25.1034
24.6263
32.0093
18.6384
24.9706
24.5026
31.8414
18.6531
25.1665
24.6482
32.1307
140.86
55.0496
88.9848
214.273
52.0275
41.2401
25.4911
28.895
31.1837
27.298
94.1015
55.5335
72.0836
160.932
58.6556
118.354
106.375
137.233
42.5751
59.4452
56.5687
77.5363
226.692
158.441
45.9841
38.1565
55.1047
52.8831
46.7391
76.3611
92.3995
81.0251
119.943
56.8474
51.689
89.9613
169.156
133.729
46.7111
55.055
72.52
33.1398
35.8182
147.397
49.4338
53.5103
52.2568
33.0934
33.6602
84.5891
34.2023
37.4373
119.76
47.43
80.449
32.3019
35.9426
51.2634
41.7245
35.5942
29.7234
30.9368
27.4482
27.4984
43.452
35.5997
29.9642
30.2889
27.946
27.9724
31.9081
27.9753
28.0497
42.2667
35.6574
30.9703
27.426
27.4854
35.6674
35.6157
36.1833
27.4651
27.4855
27.5937
27.5844
35.6135
36.1819
27.9762
27.9888
28.1307
28.1258
28.0303
28.1337
28.1305
35.6699
36.2297
27.4669
27.5708
27.549
36.2222
35.9965
34.8619
27.5075
27.4976
26.5766
26.5654
35.9951
34.8672
28.0425
28.0391
27.0637
27.0795
28.0461
27.0748
27.0911
36.0356
34.8966
27.4609
26.5368
26.5189
34.8954
34.6152
34.2213
26.3826
26.3702
26.1252
26.117
34.6216
34.2234
26.859
26.879
26.5844
26.6079
26.8907
26.5972
26.6205
34.6485
34.2587
26.3226
26.0832
26.0654
34.259
34.0935
33.7382
26.0784
26.0678
25.8827
25.8709
34.0951
33.7438
26.5356
26.5584
26.3348
26.3539
26.5712
26.3486
26.3666
34.1314
33.7827
26.0187
25.8407
25.8237
33.784
33.5603
32.9624
25.7883
25.7748
25.3966
25.3894
33.5673
32.9682
26.2387
26.2564
25.8361
25.8499
26.2693
25.8476
25.8629
33.6057
33.0129
25.7303
25.357
25.3413
33.0152
32.739
32.114
25.2401
25.231
24.7798
24.7711
32.7438
32.1212
25.6793
25.6919
25.2109
25.2214
25.7051
25.2224
25.2332
32.7888
32.1565
25.1874
24.7461
24.7319
32.1587
31.9672
31.8592
24.6594
24.6476
24.524
24.5212
31.9754
31.8673
25.0904
25.1005
24.9496
24.9575
25.1121
24.9605
24.9683
32.0081
31.8967
24.6125
24.4935
24.482
31.9001
31.8031
32.1298
24.5331
24.5296
24.7038
24.6975
31.8118
32.1367
24.9602
24.9677
25.1193
25.1197
24.9781
25.1297
25.1337
31.8401
32.1683
24.4912
24.6758
24.6653
32.1724
32.092
24.6783
24.6696
32.1028
25.158
25.1673
25.1722
32.1304
24.6417
21.2309
27.4865
21.5368
21.6836
34.9031
39.4526
1773.48
21.9122
34.6634
30.6435
22.5998
3396.08
61.0638
2869.66
2108.31
213.074
1015.51
228.419
578.513
741.077
700.202
224.953
888.742
310.701
495.719
29.1665
31.9952
27.2149
24.8945
27.8199
24.4917
30.1853
85.1016
329.49
25.314
97.0955
78.6289
223.568
25.3362
795.447
671.991
88.3568
54.9819
1204.2
113.617
235.396
32.9008
378.941
296.849
448.59
192.347
303.61
345.89
158.279
330.22
167.373
307.427
435.694
409.336
163.096
325.972
168.465
308.58
26.9587
24.1759
29.3695
21.936
22.3692
21.8476
22.7887
69.0619
162.562
24.017
50.4031
68.1255
153.863
23.546
440.877
411.996
65.9239
23.0643
170.847
43.6851
64.596
22.8555
153.294
251.152
251.926
104.966
214.977
214.998
156.673
301.974
155.949
301.659
407.605
408.208
160.704
304.154
160.175
303.787
21.3566
21.0998
21.5497
20.0471
20.065
20.0475
20.0808
74.7615
149.995
22.4894
28.7687
72.2597
150.348
22.3089
409.453
409.88
71.4326
22.07
148.061
28.0417
69.2141
21.8808
148.065
203.687
202.412
36.7631
203.619
202.118
156.292
301.154
156.666
300.621
408.429
408.147
159.876
303.248
160.249
302.729
19.891
19.8849
19.8968
19.6005
19.6006
19.5999
19.5993
76.7686
149.616
22.093
28.0958
76.0323
149.122
22.0865
410.04
409.722
73.5375
21.5915
147.325
27.5436
72.9737
21.5694
146.738
202.829
201.357
36.1316
202.167
200.636
152.338
299.624
153.649
299.263
408.084
408.037
156.03
301.752
157.098
301.371
19.509
19.5082
19.5074
19.2017
19.202
19.2013
19.2007
74.1335
145.577
21.9878
27.7463
75.2524
144.144
21.8119
409.684
409.589
70.9387
21.4358
143.19
27.1873
72.351
21.2699
141.528
200.262
198.718
35.6673
199.579
197.969
149.922
298.989
150.328
298.858
408.288
408.267
153.655
301.157
153.927
301.009
19.1352
19.1343
19.1337
19.0352
19.036
19.0355
19.0349
71.2416
141.94
21.3192
26.7406
71.4942
141.696
21.2381
409.886
409.845
68.1161
20.824
139.379
26.2156
68.4668
20.7499
139.03
198.741
197.142
34.4799
198.68
197.028
148.571
298.819
148.834
298.821
408.668
408.804
152.362
301.002
152.456
300.974
19.0181
19.0177
19.0171
18.9648
18.9653
18.9647
18.9641
70.3173
140.788
21.1344
26.4936
70.2867
140.788
21.1153
410.261
410.347
67.2431
20.6579
138.211
25.9831
67.3882
20.6386
138.064
198.333
196.715
34.0529
198.422
196.748
147.962
299.043
147.917
299.289
409.401
409.627
151.836
301.213
151.59
301.397
18.9425
18.9417
18.9412
18.857
18.8577
18.8567
18.8562
69.4854
140.155
21.0221
26.1343
69.4817
140.353
20.9687
410.96
411.117
66.3814
20.5507
137.531
25.6328
66.5522
20.5045
137.597
198.296
196.66
33.4377
198.594
196.868
148.531
299.732
148.048
299.982
410.252
410.341
152.495
301.891
151.817
302.074
18.8232
18.8224
18.8221
18.7224
18.723
18.7225
18.7221
68.9043
140.144
20.7676
25.5243
68.7467
140.653
20.6909
411.748
411.753
65.7344
20.3241
137.459
25.0422
65.7722
20.2563
137.815
198.776
197.1
32.5606
199.203
197.469
149.135
300.217
148.847
300.205
410.55
410.378
153.168
302.334
152.678
302.299
18.692
18.6915
18.6912
18.6415
18.6423
18.6416
18.6413
68.9897
140.757
20.4955
25.0103
68.5843
141.221
20.4483
411.994
411.81
65.7057
20.0744
138.043
24.5392
65.5164
20.0327
138.368
199.316
197.661
31.9277
199.583
197.867
148.909
300.114
148.935
300.071
410.399
410.297
152.908
302.239
152.763
302.162
18.6391
18.6385
18.6381
18.6552
18.6558
18.6549
18.6549
69.2444
140.926
20.4159
25.0016
68.8777
141.139
20.4236
411.86
411.739
65.9941
19.998
138.244
24.5414
65.7735
20.0057
138.328
199.349
197.695
32.0246
199.504
197.787
151.344
299.907
148.672
301.137
410.295
411.061
301.987
152.365
18.655
18.6524
18.6525
69.222
140.646
20.4994
25.3385
69.0075
140.829
20.6388
411.762
68.219
19.9637
138.043
65.8926
20.3289
199.207
197.596
32.257
199.339
198.255
68.0065
2396.04
2995.85
1442.08
1687.49
1339.68
3674.83
95.0193
526.876
632.695
2166.18
2800.03
32.0983
37.0399
612.691
21.8706
34.6926
38.773
613.97
21.9281
99.8927
2083.31
602.474
316.465
106.278
2021.74
610.754
323.603
38.8745
40.0236
407.351
24.1365
702.924
21.9776
66.9004
43.5757
45.5558
421.432
24.497
620.49
22.075
73.26
61.0234
1970.29
2426.54
1448.6
1418.12
126.526
415.442
501.844
1680.05
2195.07
1498.33
2898.59
37.1518
36.8912
2154.24
22.2856
33.4769
30.8977
22.2693
3695.13
101.386
1838.93
2206.48
335.162
45.1628
39.5809
553.886
30.6195
2133.53
22.5812
131.087
115.626
1932.42
4508.89
270.644
42.7315
43.6816
25.6976
827.776
22.495
3519.02
67.8868
21.223
29.6043
21.5756
21.5817
21.2564
25.4294
21.6856
21.8762
21.241
29.4646
21.607
21.7407
21.1744
28.4654
21.5844
21.8767
21.548
21.745
21.0773
21.1666
30.957
21.8033
21.8542
21.596
21.5994
21.0719
21.201
26.4333
21.8964
24.005
21.7253
22.0858
21.2528
21.1872
31.0221
21.9881
22.0841
21.6436
21.8548
21.1498
35.2922
37.5679
21.9871
1224.41
43.0439
45.2093
500.119
25.0003
1643.28
22.0323
69.4499
103.443
2148.71
1826.56
246.84
41.771
43.8639
30.7757
405.619
22.1726
995.524
151.978
95.2137
1995.23
924.883
369.316
35.2301
3907.43
3647.55
1439.96
5915.68
40.4725
587.626
863.329
3555.61
3373.94
1613.07
5235.48
33.286
39.6343
22.1712
1318.84
45.1364
33.3066
80.3722
1727.83
23.1994
3499.57
243.296
42.8374
47.2266
26.1671
609.827
22.4686
1229.02
74.3902
151.34
2094.3
5482.51
256.168
127.093
2079.43
1581.75
213.787
112.676
375.778
653.653
2006.71
1939.03
1403.18
2350.86
1604.39
2849.89
806.049
709.11
699.377
642.489
370.158
425.856
82.205
325.858
291.92
460.969
624.777
456.778
592.615
110.078
265.635
261.256
320.751
292.338
205.075
909.394
236.859
525.162
65.3707
263.896
23.8042
42.5412
63.4208
238.794
23.7694
67.1998
239.978
24.2978
71.1061
68.853
191.425
25.013
205.094
349.263
493.059
175.136
199.046
340.517
463.088
173.158
65.9475
52.7667
165.654
23.3698
214.454
23.6696
62.5894
68.7706
78.1788
171.85
24.7163
186.846
25.0775
66.2987
315.197
401.673
192.464
309.059
311.838
839.442
675.391
458.174
619.172
187.334
262.204
266.393
305.264
302.835
459.827
598.767
111.489
339.353
29.3963
43.3228
147.456
178.998
28.1781
190.334
948.686
198.758
538.164
68.9976
24.1716
439.442
35.5221
67.1162
23.9271
220.094
203.976
339.389
441.15
172.796
93.3454
51.4494
160.075
24.4598
170.335
25.9498
68.7076
187.28
350.397
475.853
172.394
68.8681
45.4349
24.057
180.646
24.0669
206.984
66.3141
249.376
1046.48
236.69
534.307
100.079
29.5032
255.752
75.6245
153.811
28.5359
208.217
236.936
933.261
328.497
532.142
82.5145
88.8123
168.88
24.6567
201.433
25.0545
69.5876
226.519
344.979
461.506
180.487
84.7141
92.8494
27.2164
170.231
27.6852
197.431
67.2744
213.282
346.146
464.781
176.938
416.493
586.878
61.3873
303.968
324.97
1011.1
672.44
463.193
605.363
71.7692
270.176
269.422
302.104
308.432
461.839
597.894
63.5696
25.5887
333.953
78.3776
75.1227
25.6453
194.359
210.629
1179.24
219.263
564.671
203.464
961.327
184.151
503.614
78.4049
62.0602
23.5572
184.252
25.5655
285.426
66.3093
64.0075
91.2557
25.0846
166.111
25.5153
186.023
62.7667
206.598
350.121
486.013
176.978
201.196
347.4
452.16
176.835
749.833
691.669
839.054
694.199
195.777
270.216
270.362
304.859
332.143
463.064
612.197
465.317
616.527
437.762
410.167
437.414
412.384
246.568
245.464
91.5456
212.295
214.698
407.031
408.21
409.369
410.852
76.3193
202.633
204.887
207.329
209.826
157.633
323.742
165.898
305.058
64.788
158.306
23.2343
48.5375
61.8478
150.2
23.0637
65.5607
164.244
24.491
58.1679
64.8986
150.958
24.0369
156.831
302.196
305.095
156.04
156.405
301.707
303.387
155.923
65.2689
39.3335
147.887
22.379
148.859
22.7402
68.5276
65.7948
44.6431
147.638
22.6611
148.949
23.2919
68.5004
245.631
249.575
100.166
213.121
215.015
438.976
411.305
407.196
407.795
83.5346
202.683
204.372
207.83
209.72
408.173
409.454
68.8541
156.374
23.7207
47.2782
67.08
152.316
23.282
163.329
331.306
168.745
308.627
69.0119
23.7777
171.184
47.8099
66.1192
23.3375
156.071
161.441
304.37
306.84
160.585
69.0684
38.7978
150.682
22.6368
151.182
22.9157
72.3866
161.578
304.151
306.578
160.618
69.1886
39.573
22.6716
151.126
22.9619
153.238
72.4161
163.907
329.064
173.342
308.304
68.7136
26.0199
163.126
64.1513
66.3694
24.7133
153.465
163.618
329.799
171.431
308.565
69.1163
40.7395
150.412
22.7515
151.797
23.1127
72.1521
161.639
303.758
306.262
160.263
68.8793
47.701
23.0633
150.258
23.7387
151.491
72.0911
161.487
303.841
306.445
160.222
251.829
251.055
91.1766
216.106
214.569
440.011
411.203
409.058
410.274
76.8125
204.906
203.097
210.551
208.927
407.302
409.08
65.6428
24.7976
160.69
60.1309
62.3849
24.155
151.36
159.997
330.658
169.469
307.608
160.013
329.809
169.633
306.84
66.2199
37.247
22.3102
148.435
22.5894
150.733
68.8883
66.0257
45.1832
22.6816
147.917
23.3282
149.502
68.8293
158.169
302.309
305.269
156.565
158.133
301.901
304.48
156.501
440.781
411.573
441.89
411.137
87.5533
204.131
202.957
209.434
209.114
408.26
409.691
407.363
408.933
407.479
408.159
409.686
409.968
202.221
204.336
36.1265
202.037
204.034
408.305
408.359
409.981
410.172
35.6062
201.485
203.461
201.819
203.764
156.655
301.649
155.876
301.524
71.3425
147.661
22.0915
28.1546
68.9208
147.976
21.884
71.3241
147.455
22.2252
28.6446
68.8883
147.873
21.9433
156.628
301.307
301.591
156.878
156.611
301.266
301.497
156.872
71.5174
27.5775
147.707
21.6413
147.801
21.7367
72.9311
71.5024
27.7494
147.707
21.6508
147.733
21.7615
72.924
202.237
203.87
36.4347
202.036
203.713
408.661
409.474
408.359
408.406
35.7557
201.597
203.228
201.845
203.493
409.77
409.777
74.9509
150.325
22.4373
28.5451
72.5001
150.725
22.2934
160.706
304.022
160.194
303.721
74.9569
22.4635
150.607
28.7022
72.5238
22.3129
150.673
160.432
303.389
303.746
160.699
74.8794
28.0434
150.293
22.126
150.416
22.1894
76.3072
160.435
303.37
303.702
160.7
74.8848
28.1082
22.1405
150.28
22.2055
150.345
76.3093
160.42
303.677
159.822
303.507
74.7483
22.6357
149.865
29.337
72.2096
22.377
150.32
160.414
303.731
159.793
303.53
74.7034
28.1225
150.168
22.1202
150.124
22.1887
76.2114
160.196
303.278
303.542
160.582
74.6924
28.3335
22.1414
150.152
22.2233
150.099
76.2082
160.191
303.284
303.558
160.58
204.314
202.52
36.32
203.963
202.137
407.602
408.165
409.938
410.104
35.7413
203.394
201.552
203.696
201.907
408.317
408.363
71.409
22.2414
147.647
28.6509
69.1611
21.9541
147.924
156.745
302.06
156.323
301.665
156.72
301.748
156.264
301.555
71.5891
27.5346
21.6422
147.739
21.7378
147.86
72.9553
71.5706
27.7433
21.6534
147.743
21.7674
147.779
72.948
156.676
301.301
301.588
156.889
156.657
301.276
301.517
156.88
408.707
409.476
407.642
408.219
35.9544
203.173
201.658
203.401
201.935
409.757
409.771
408.382
408.419
408.372
408.113
410.081
409.761
201.165
203.103
36.0942
200.428
202.425
407.947
408.156
409.59
409.848
36.0807
198.943
200.976
199.968
201.94
156.29
301.126
156.662
300.617
73.5262
147.293
21.5919
27.565
72.9565
146.711
21.5707
73.5231
147.305
21.5948
27.5532
72.9514
146.737
21.5709
155.724
299.802
300.413
154.57
155.721
299.807
300.412
154.569
73.4048
27.6059
144.268
21.5175
145.929
21.5525
73.0196
73.4022
27.5979
144.306
21.5167
145.968
21.552
73.0179
201.284
202.892
36.0897
200.635
202.33
409.905
409.673
407.992
408.176
36.0782
199.144
200.886
200.175
201.846
409.522
409.785
76.8149
149.734
22.0992
28.0958
76.1181
149.213
22.0919
159.875
303.234
160.25
302.719
76.8164
22.1131
149.717
28.0911
76.12
22.1054
149.191
159.108
301.919
302.507
158.186
76.5006
28.1426
146.92
22.0586
148.335
22.0828
76.1916
159.107
301.912
302.498
158.183
76.5016
28.1372
22.0715
146.886
22.0963
148.309
76.1895
159.834
303.165
160.182
302.676
76.7664
22.1089
149.599
28.0945
76.0296
22.1004
149.101
159.832
303.167
160.18
302.675
76.4637
28.1444
146.853
22.0556
148.253
22.0786
76.1746
159.076
301.886
302.463
158.169
76.4615
28.141
22.0683
146.822
22.0919
148.23
76.1714
159.073
301.885
302.46
158.166
203.044
201.235
36.1459
202.356
200.49
408.386
408.137
409.555
409.809
36.132
200.908
199.001
201.874
200.036
407.976
408.181
73.5351
21.5952
147.334
27.5236
72.9706
21.5698
146.764
156.289
301.149
156.666
300.618
156.286
301.131
156.661
300.618
73.4159
27.5837
21.5177
144.291
21.5515
145.958
73.0326
73.4136
27.5618
21.5166
144.331
21.5511
145.988
73.0297
155.722
299.802
300.412
154.573
155.718
299.808
300.412
154.569
409.888
409.624
408.448
408.202
36.1188
200.73
199.157
201.691
200.188
409.485
409.72
408.04
408.242
408.031
407.977
409.72
409.623
198.496
200.502
35.6362
197.753
199.815
408.1
408.103
409.748
409.795
35.2687
197.13
199.216
197.452
199.488
152.339
299.632
153.649
299.272
70.9215
143.16
21.4325
27.2207
72.336
141.51
21.2656
70.9222
143.212
21.4314
27.2107
72.3352
141.554
21.2647
151.578
299.009
299.191
150.825
151.576
299.02
299.202
150.824
70.0041
26.8604
139.847
20.9342
140.672
21.0876
68.988
70.0048
26.849
139.892
20.9332
140.725
21.0868
68.9869
198.688
200.399
35.6347
197.932
199.667
409.647
409.548
408.16
408.162
35.2688
197.294
199.034
197.628
199.345
409.679
409.723
74.1476
145.639
21.9894
27.7414
75.2685
144.2
21.8133
156.027
301.746
157.095
301.368
74.1433
22.0013
145.604
27.7433
75.2653
21.8233
144.168
155.137
301.138
301.345
154.574
73.0348
27.3608
142.57
21.4431
143.221
21.6122
72.2354
155.133
301.14
301.343
154.57
73.0303
27.3705
21.4531
142.545
21.6223
143.192
72.2311
156.02
301.725
157.085
301.347
74.131
21.9997
145.543
27.754
75.2499
21.8231
144.111
156.018
301.721
157.083
301.346
73.0204
27.3691
142.522
21.4415
143.17
21.6104
72.222
155.128
301.12
301.325
154.565
73.0182
27.3817
21.4524
142.49
21.6217
143.136
72.2194
155.126
301.12
301.321
154.563
200.437
198.56
35.6705
199.751
197.809
408.06
408.009
409.717
409.761
35.3024
199.154
197.187
199.427
197.515
408.134
408.135
70.9379
21.4341
143.229
27.1685
72.349
21.2682
141.573
152.341
299.624
153.653
299.261
152.341
299.629
153.65
299.27
70.0197
26.823
20.9374
139.866
21.0914
140.699
69.0001
70.0197
26.8048
20.9361
139.91
21.0902
140.74
69.0002
151.578
299.012
299.191
150.825
151.578
299.021
299.198
150.825
409.616
409.528
408.121
408.072
35.2992
198.981
197.345
199.257
197.675
409.659
409.7
408.197
408.195
408.222
408.224
409.916
409.873
196.92
198.972
34.445
196.811
198.915
408.438
408.363
410.079
410.056
34.3009
196.632
198.747
196.64
198.712
149.923
299.005
150.327
298.872
68.1041
139.355
20.8213
26.259
68.4561
139.005
20.7471
68.1031
139.407
20.8203
26.2465
68.4548
139.053
20.7458
149.526
298.792
298.863
149.198
149.526
298.808
298.876
149.202
67.7995
26.181
138.454
20.6747
138.667
20.7024
67.627
67.7994
26.175
138.508
20.6736
138.722
20.7012
67.6278
197.107
198.836
34.4492
197.005
198.827
409.85
409.832
408.5
408.402
34.3058
196.852
198.668
196.902
198.639
410.03
410.031
71.2516
141.985
21.32
26.7263
71.5071
141.74
21.2386
153.651
301.16
153.924
301.014
71.2475
21.3304
141.962
26.7488
71.5029
21.2488
141.719
153.115
300.948
301.044
152.952
70.7512
26.6436
141.223
21.1555
141.314
21.1881
70.7217
153.111
300.957
301.05
152.948
70.7471
26.6672
21.1655
141.203
21.1985
141.294
70.7175
153.649
301.14
153.92
300.991
71.2375
21.3298
141.907
26.7607
71.4918
21.2482
141.663
153.646
301.139
153.917
300.993
70.7418
26.6561
141.182
21.1554
141.272
21.188
70.7132
153.109
300.931
301.028
152.947
70.7376
26.6794
21.1652
141.144
21.1981
141.237
70.7088
153.106
300.935
301.029
152.944
198.913
196.983
34.4804
198.855
196.87
408.259
408.262
410.055
410.029
34.3359
198.688
196.688
198.654
196.708
408.473
408.402
68.1159
20.8227
139.423
26.1974
68.4676
20.7482
139.074
149.926
298.994
150.329
298.863
149.926
299.002
150.329
298.873
67.812
26.1381
20.6775
138.482
20.7051
138.698
67.6406
67.8123
26.12
20.6763
138.528
20.7038
138.742
67.6414
149.53
298.797
298.869
149.208
149.53
298.809
298.879
149.208
409.826
409.787
408.318
408.324
34.3353
198.507
196.847
198.481
196.869
409.995
409.969
408.535
408.461
408.599
408.736
410.285
410.369
196.492
198.569
34.0096
196.534
198.659
409.134
408.916
410.733
410.595
33.8613
196.528
198.672
196.418
198.502
148.577
298.837
148.838
298.838
67.226
138.18
20.6548
26.0256
67.374
138.039
20.6353
67.2294
138.239
20.6539
26.0142
67.376
138.098
20.6346
148.259
298.986
298.866
148.114
148.265
299.003
298.885
148.123
66.9673
25.9625
137.733
20.5843
137.788
20.6133
66.7979
66.9719
25.9498
137.793
20.5838
137.849
20.6128
66.803
196.695
198.48
34.011
196.726
198.505
410.227
410.303
409.203
408.985
33.8646
196.705
198.482
196.603
198.368
410.673
410.534
70.323
140.828
21.1338
26.4806
70.2951
140.834
21.1148
152.359
301.013
152.453
300.985
70.3191
21.1438
140.809
26.5022
70.2908
21.1246
140.818
151.934
301.112
301.052
151.971
69.9093
26.4174
140.555
21.0624
140.46
21.0943
69.9205
151.931
301.126
301.064
151.968
69.9056
26.4378
21.0721
140.54
21.1043
140.443
69.9171
152.358
300.985
152.452
300.957
70.3121
21.1437
140.749
26.515
70.2827
21.1245
140.754
152.356
300.99
152.449
300.963
69.904
26.431
140.507
21.0627
140.414
21.0949
69.9143
151.93
301.099
301.037
151.966
69.899
26.4506
21.0719
140.476
21.1042
140.38
69.9102
151.927
301.105
301.042
151.964
198.513
196.555
34.0514
198.603
196.588
408.635
408.768
410.714
410.574
33.9031
198.618
196.58
198.447
196.479
409.167
408.949
67.2444
20.6568
138.256
25.9655
67.39
20.6375
138.112
148.587
298.824
148.846
298.825
148.588
298.835
148.847
298.836
66.9859
25.92
20.5877
137.757
20.6167
137.816
66.8181
66.9875
25.9027
20.5867
137.805
20.6158
137.863
66.82
148.276
298.987
298.871
148.135
148.277
298.998
298.882
148.137
410.2
410.29
408.694
408.827
33.9044
198.435
196.739
198.269
196.641
410.659
410.517
409.224
409.005
409.328
409.591
410.98
411.136
196.44
198.53
33.3865
196.652
198.827
409.989
409.794
411.517
411.399
33.1798
196.919
199.108
196.592
198.709
147.97
299.061
147.924
299.3
66.3598
137.504
20.5473
25.6747
66.5318
137.575
20.5014
66.365
137.567
20.5469
25.662
66.5373
137.632
20.5009
147.82
299.652
299.359
148.113
147.826
299.664
299.371
148.12
66.1009
25.5451
137.58
20.3878
137.378
20.4485
65.9682
66.106
25.5405
137.637
20.3872
137.439
20.448
65.9728
196.634
198.391
33.3931
196.853
198.741
410.923
411.104
410.047
409.826
33.1876
197.134
199.035
196.831
198.627
411.48
411.381
69.4919
140.201
21.0216
26.1199
69.4892
140.4
20.9686
151.833
301.227
151.588
301.411
69.4883
21.0311
140.187
26.1364
69.4858
20.9776
140.385
151.538
301.758
301.52
152.038
69.0759
25.9883
140.446
20.8391
140.09
20.9091
69.1343
151.536
301.772
301.532
152.038
69.0724
26.0034
20.848
140.43
20.9182
140.075
69.1316
151.831
301.202
151.586
301.382
69.4809
21.0309
140.123
26.1493
69.4784
20.9774
140.322
151.829
301.206
151.583
301.39
69.0698
26.0002
140.398
20.8392
140.042
20.9094
69.1291
151.535
301.743
301.506
152.038
69.0654
26.0165
20.8479
140.367
20.9181
140.012
69.1252
151.532
301.751
301.512
152.036
198.476
196.5
33.435
198.774
196.706
409.362
409.621
411.499
411.38
33.2287
199.055
196.976
198.655
196.653
410.02
409.828
66.383
20.5498
137.579
25.6167
66.5549
20.5036
137.65
147.984
299.044
147.938
299.29
147.986
299.055
147.939
299.301
66.1226
25.5036
20.3899
137.606
20.451
137.403
65.9903
66.1243
25.4879
20.3889
137.656
20.4503
137.454
65.992
147.841
299.652
299.363
148.139
147.843
299.661
299.372
148.141
410.905
411.064
409.416
409.676
33.2316
198.872
197.136
198.478
196.815
411.445
411.326
410.074
409.881
410.184
410.271
411.765
411.771
196.879
199.01
32.508
197.25
199.441
410.371
410.427
411.855
411.976
32.2983
197.53
199.702
197.206
199.334
148.541
299.747
148.055
299.996
65.7084
137.429
20.3225
25.0796
65.7497
137.793
20.2555
65.715
137.489
20.3219
25.0693
65.7548
137.854
20.255
148.48
300.172
300.061
148.907
148.489
300.185
300.076
148.919
65.547
24.9266
138.12
20.1302
137.711
20.1909
65.6111
65.5541
24.916
138.182
20.13
137.772
20.1905
65.6191
197.081
198.916
32.5107
197.437
199.296
411.72
411.715
410.437
410.498
32.3026
197.705
199.509
197.393
199.187
411.792
411.921
68.91
140.191
20.7672
25.5131
68.7522
140.696
20.6908
152.493
301.904
151.818
302.088
68.9071
20.776
140.175
25.5248
68.7496
20.6993
140.682
152.294
302.259
302.191
152.914
68.5727
25.3591
141.03
20.5517
140.484
20.6203
68.8833
152.293
302.275
302.205
152.916
68.5695
25.3701
20.5602
141.02
20.6289
140.472
68.8807
152.491
301.879
151.818
302.059
68.9006
20.7762
140.112
25.5377
68.7433
20.6994
140.617
152.489
301.884
151.816
302.067
68.5667
25.3708
140.978
20.5517
140.441
20.6206
68.8786
152.291
302.243
302.178
152.914
68.5629
25.3828
20.5601
140.953
20.6291
140.405
68.8744
152.289
302.253
302.185
152.913
198.958
196.939
32.5569
199.387
197.305
410.217
410.3
411.838
411.959
32.3444
199.648
197.582
199.281
197.264
410.398
410.457
65.7365
20.3233
137.506
25.0275
65.7747
20.2554
137.868
148.565
299.733
148.074
299.981
148.567
299.742
148.076
299.99
65.5735
24.8894
20.1285
138.134
20.1904
137.729
65.6389
65.5756
24.8754
20.1278
138.187
20.1898
137.784
65.6415
148.513
300.173
300.06
148.942
148.515
300.182
300.07
148.944
411.693
411.699
410.27
410.354
32.3476
199.464
197.745
199.1
197.428
411.782
411.906
410.451
410.511
410.477
410.34
412.012
411.829
197.445
199.552
31.8863
197.661
199.821
410.28
410.414
411.779
411.952
31.7942
197.649
199.808
197.521
199.623
149.148
300.232
148.857
300.216
65.6777
138.031
20.0775
24.5729
65.4887
138.363
20.0367
65.6863
138.093
20.0773
24.5663
65.4971
138.425
20.0365
149.013
300.145
300.21
149.127
149.025
300.152
300.222
149.138
65.5888
24.531
138.431
20.0024
138.219
20.0114
65.839
65.5976
24.53
138.493
20.0024
138.287
20.0114
65.8471
197.646
199.413
31.8939
197.837
199.725
411.951
411.795
410.325
410.447
31.8038
197.855
199.722
197.786
199.553
411.742
411.942
68.9963
140.807
20.4951
24.9984
68.5889
141.273
20.4481
153.169
302.35
152.681
302.315
68.9968
20.5036
140.798
25.0077
68.5873
20.4564
141.265
152.871
302.232
302.331
153.14
68.7219
24.9574
141.307
20.4131
141.003
20.422
69.1578
152.868
302.249
302.347
153.136
68.7215
24.9659
20.4211
141.3
20.4303
140.995
69.1524
153.166
302.319
152.679
302.281
68.989
20.5037
140.731
25.0187
68.581
20.4563
141.199
153.165
302.33
152.678
302.294
68.7138
24.9681
141.254
20.4136
140.951
20.4226
69.155
152.864
302.216
302.319
153.136
68.7131
24.9769
20.421
141.237
20.4303
140.93
69.1468
152.863
302.227
302.33
153.131
199.499
197.498
31.9255
199.766
197.706
410.506
410.367
411.76
411.932
31.8328
199.755
197.696
199.569
197.573
410.306
410.442
65.7078
20.0739
138.095
24.5262
65.5195
20.032
138.424
149.168
300.219
148.881
300.206
149.17
300.229
148.883
300.214
65.616
24.4994
19.9978
138.436
20.0069
138.224
65.8594
65.6178
24.4875
19.9973
138.491
20.0065
138.279
65.8625
149.045
300.147
300.212
149.153
149.047
300.152
300.221
149.156
411.94
411.754
410.56
410.419
31.8353
199.569
197.853
199.391
197.74
411.701
411.88
410.355
410.498
410.336
410.247
411.879
411.758
197.487
199.583
31.9883
197.581
199.74
410.255
410.282
411.771
411.83
31.9599
197.485
199.667
197.411
199.506
148.921
300.127
148.943
300.069
65.9733
138.237
20.0026
24.571
65.7549
138.321
20.0096
65.9801
138.298
20.0026
24.5648
65.7624
138.38
20.0096
148.723
300.02
299.979
148.646
148.732
300.023
300.003
148.655
65.8763
24.6152
138.158
20.0591
138.109
20.0233
66.0221
65.8831
24.6087
138.217
20.059
138.169
20.0232
66.0279
197.689
199.49
31.9923
197.759
199.592
411.839
411.694
410.29
410.345
31.9623
197.658
199.506
197.593
199.362
411.703
411.78
69.2489
140.981
20.4152
24.9922
68.8775
141.188
20.4234
152.91
302.256
152.764
302.179
69.2473
20.4232
140.974
24.9975
68.8723
20.4315
141.182
152.541
302.152
302.119
152.74
68.9524
25.0549
141.037
20.4775
140.844
20.445
69.3072
152.538
302.171
302.136
152.736
68.9504
25.0641
20.4887
141.034
20.4505
140.839
69.3001
152.908
302.228
152.766
302.132
69.2413
20.4233
140.911
25.0079
68.8679
20.431
141.118
152.906
302.24
152.761
302.144
68.9417
25.0626
140.984
20.4748
140.802
20.4465
69.3001
152.534
302.121
302.127
152.734
68.9414
25.0706
20.4832
140.971
20.4532
140.776
69.2919
152.532
302.134
302.138
152.729
199.531
197.537
32.0265
199.688
197.629
410.362
410.271
411.753
411.81
31.9986
199.617
197.534
199.455
197.462
410.279
410.307
65.9977
19.9976
138.295
24.53
65.7777
20.0052
138.379
148.94
300.116
148.958
300.073
148.943
300.126
148.962
300.072
65.8981
24.586
20.0565
138.166
20.0201
138.117
66.0446
65.9012
24.5753
20.0561
138.214
20.0196
138.167
66.0474
148.752
300.023
299.982
148.67
148.755
300.023
300
148.674
411.808
411.678
410.418
410.319
31.9982
199.439
197.684
199.278
197.623
411.689
411.763
410.316
410.367
410.227
411.781
197.384
199.431
151.357
299.924
148.68
301.124
68.1899
138.035
19.9736
24.8384
65.8733
139.348
20.3109
68.1991
138.096
19.9724
24.8371
65.8774
139.408
20.3124
197.565
199.274
32.2349
198.219
199.396
411.747
411.766
140.702
20.4966
69.0089
302.006
152.367
20.4991
140.7
69.002
152.531
301.99
152.37
302.087
69.2186
20.505
140.638
25.347
68.9965
20.6402
140.807
152.529
302.001
152.365
302.1
69.3583
20.3325
152.682
69.3556
24.9483
20.3344
140.973
152.679
302.308
199.382
197.435
410.255
68.2241
19.9699
138.093
24.7941
65.8955
20.3148
139.403
151.371
299.91
148.705
151.377
299.923
148.706
301.122
411.729
411.753
410.32
411.092
32.3248
199.487
199.02
411.89
411.766
73.8464
765.52
1777.75
76.7761
2455.14
6277.74
1996.12
3827.88
80.58
845.463
3194.15
84.6402
4959.06
79.9063
2232.34
74.7389
1455.97
5058.62
105.051
4835.25
97.301
1776.92
3066.31
2938.42
21.2969
21.317
21.389
23.238
23.4498
22.0342
21.3825
21.8817
21.5364
21.4382
22.1021
21.5965
50.9894
25.7555
25.6555
42.5106
27.1474
28.7747
66.9844
55.0521
28.4937
22.87
22.9149
23.7746
27.0521
85.3728
40.4644
26.6814
71.7425
45.304
24.0408
23.8991
27.2711
219.724
395.934
253.517
12831.2
10614.8
500.684
59.0989
66.5892
201.909
8963.29
63.9673
414.555
11068.3
68.4955
443.533
775.252
218.727
541.837
303.223
584.502
315.701
682.818
1498.07
999.906
744.246
2323.64
747.014
803.738
219.601
612.548
383.327
1056.88
593.782
312.431
1296.79
519.281
674.99
648.551
977.146
728.725
730.9
665.002
256.862
298.792
489.474
356.641
529.542
565.829
1220.54
980.295
638.474
2262.17
630.771
762.704
290.975
516.292
583.098
999.987
417.318
551.989
949.742
391.494
560.139
482.476
757.631
717.771
702.314
470.858
647.838
642.59
640.207
660.994
451.717
305.043
149.06
406.532
289.765
347.261
142.949
394.177
393.923
349.99
550
381.944
428.062
310.539
496.11
472.906
548.605
681.27
471.628
613.302
693.684
305.792
458.75
295.923
167.605
151.347
418.8
310.987
384.409
486.316
359.754
267.773
286.909
491.813
368.258
345.098
159.846
318.184
181.475
323.179
185.079
339.753
446.713
261.837
318.557
461.236
247.142
353.477
162.953
343.407
199.016
367.954
330.713
191.045
439
229.605
311.768
236.711
433.861
421.366
413.77
347.504
163.94
184.787
321.525
186.763
326.339
342.719
447.504
257.855
317.108
458.542
247.028
353.702
166.648
194.734
342.573
364.405
190.877
332.521
441.841
232.485
312.149
238.599
437.24
425.33
417.226
243.435
403.61
403.26
402.763
402.26
240.172
198.627
155.499
318.947
235.415
216.765
144.653
304.58
198.509
162.613
316.769
236.139
217.399
147.511
303.447
251.131
410.749
409.288
263.988
403.643
402.893
184.293
297.618
223.225
125.95
133.64
298.753
174.898
183.699
297.4
223.689
125.033
134.182