/*--------------------------------*- C++ -*----------------------------------*\
| =========                 |                                                 |
| \\      /  F ield         | OpenFOAM: The Open Source CFD Toolbox           |
|  \\    /   O peration     | Version:  2206                                  |
|   \\  /    A nd           | Website:  www.openfoam.com                      |
|    \\/     M anipulation  |                                                 |
\*---------------------------------------------------------------------------*/
FoamFile
{
    version     2.0;
    format      ascii;
    arch        "LSB;label=32;scalar=64";
    class       surfaceScalarField;
    location    "0.4";
    object      phi;
}
// * * * * * * * * * * * * * * * * * * * * * * * * * * * * * * * * * * * * * //

dimensions      [0 3 -1 0 0 0 0];

oriented        oriented;

internalField   nonuniform List<scalar> 
198849
(
-1.26048e-07
6.45806e-09
4.4126e-09
2.63356e-09
6.75013e-10
1.11869e-07
-2.08025e-08
-4.59123e-10
-3.73983e-09
-7.16347e-10
9.84041e-08
-3.38848e-09
-1.95086e-10
-3.65084e-09
1.37577e-09
1.64434e-09
1.95462e-09
1.00727e-09
-1.96854e-08
-2.76606e-08
-2.4088e-08
-2.3846e-08
3.70193e-09
1.1969e-08
3.32953e-09
1.1603e-07
5.22357e-09
3.60634e-09
4.09974e-09
-5.83696e-09
-1.35763e-08
-8.85583e-09
-9.22644e-09
-2.79587e-08
-3.11431e-08
-2.7517e-08
-1.80843e-08
6.34981e-10
-6.74648e-10
3.38934e-10
-5.04395e-10
1.82894e-08
4.34054e-10
1.23101e-10
-1.17863e-07
1.49546e-10
-5.98998e-10
1.17755e-07
-1.08137e-07
-5.19745e-10
-7.24159e-10
-5.87694e-10
1.09993e-07
-3.70982e-10
-1.82997e-10
-1.40552e-10
7.32456e-12
3.59415e-10
1.41655e-10
1.61985e-10
-1.12794e-07
-4.88189e-10
5.8457e-10
5.20907e-10
1.13023e-07
-5.05499e-10
-1.84668e-10
-2.82657e-10
-5.37053e-11
1.83331e-10
-1.02204e-10
9.93175e-11
-2.27641e-08
1.01581e-09
5.65729e-10
-1.08952e-09
-1.31006e-09
2.35822e-08
3.85648e-10
2.2977e-10
-1.16495e-07
-9.47938e-11
-2.86701e-10
1.16261e-07
-1.11321e-07
9.3686e-11
-4.54875e-10
-3.54468e-10
1.11378e-07
1.90165e-10
1.29675e-10
8.03885e-11
3.96804e-12
1.2263e-10
1.29269e-10
2.40818e-12
-1.12719e-07
5.50146e-11
-2.99874e-10
-1.61103e-10
1.12629e-07
1.42441e-10
1.07007e-10
6.41842e-11
4.01809e-11
7.46808e-11
5.25718e-11
1.48331e-11
-2.70461e-08
-8.30317e-11
-1.23577e-10
1.73485e-10
9.22733e-11
2.69869e-08
9.51167e-11
7.23164e-11
-1.1589e-07
-2.99892e-11
-5.58718e-11
1.15808e-07
-1.11383e-07
-1.62686e-11
-1.09257e-10
-4.49676e-11
1.11351e-07
4.98195e-11
4.63745e-11
-1.48568e-11
-3.29469e-11
9.36061e-11
9.75865e-11
-3.63191e-11
-1.1246e-07
-2.43101e-11
-9.34964e-11
-2.49196e-11
1.1241e-07
3.42521e-11
4.78105e-11
-9.51531e-12
2.32771e-11
6.06947e-11
3.61664e-11
6.95896e-13
-2.72814e-08
7.36994e-12
1.70596e-11
7.73611e-11
5.46022e-11
2.7125e-08
6.62166e-11
6.50659e-11
-1.156e-07
-3.47731e-11
-3.61481e-11
1.1554e-07
-1.11227e-07
-1.9125e-11
-6.94379e-11
-3.03513e-11
1.11183e-07
4.80416e-11
4.48551e-11
-2.09216e-11
-4.09872e-11
8.51692e-11
8.82543e-11
-4.09263e-11
-1.12262e-07
-2.43542e-11
-6.89343e-11
-2.82168e-11
1.12215e-07
3.41276e-11
4.84523e-11
-8.56604e-12
1.77021e-11
5.42064e-11
2.86024e-11
-6.02743e-12
-2.72388e-08
9.24082e-12
2.40839e-11
7.09176e-11
5.33555e-11
2.70812e-08
5.93555e-11
5.98811e-11
-1.15376e-07
-3.42857e-11
-3.31804e-11
1.15324e-07
-1.11061e-07
-2.01183e-11
-6.09585e-11
-2.94125e-11
1.11023e-07
4.59002e-11
4.47555e-11
-1.60877e-11
-4.3771e-11
8.04843e-11
8.36815e-11
-4.66026e-11
-1.12089e-07
-2.51039e-11
-6.1431e-11
-2.92782e-11
1.12051e-07
3.31414e-11
4.86353e-11
-8.19289e-12
1.53341e-11
4.98376e-11
2.40609e-11
-9.58551e-12
-2.71984e-08
1.02487e-11
2.55288e-11
6.81231e-11
5.12912e-11
2.70433e-08
5.93006e-11
6.0113e-11
-1.15173e-07
-3.52774e-11
-3.38429e-11
1.15123e-07
-1.10928e-07
-2.06377e-11
-6.06262e-11
-3.15461e-11
1.10899e-07
4.55094e-11
4.61921e-11
-1.94929e-11
-4.38897e-11
7.74153e-11
8.08249e-11
-4.44635e-11
-1.11952e-07
-2.55091e-11
-6.13769e-11
-3.18564e-11
1.11923e-07
3.20363e-11
5.00293e-11
-6.65074e-12
1.51685e-11
4.67662e-11
2.12153e-11
-1.01022e-11
-2.71756e-08
1.08251e-11
2.5994e-11
6.64141e-11
4.96642e-11
2.70227e-08
6.34877e-11
6.45468e-11
-1.14969e-07
-3.89057e-11
-3.72198e-11
1.14917e-07
-1.10825e-07
-2.09633e-11
-6.54019e-11
-3.46639e-11
1.10803e-07
4.34106e-11
4.80481e-11
-1.29383e-11
-4.26761e-11
7.49114e-11
7.84827e-11
-4.63253e-11
-1.11844e-07
-2.58779e-11
-6.52608e-11
-3.56258e-11
1.11823e-07
3.07059e-11
5.19052e-11
-4.76121e-12
1.61498e-11
4.46436e-11
1.8934e-11
-9.13583e-12
-2.7169e-08
1.12361e-11
2.63582e-11
6.49387e-11
4.83327e-11
2.70182e-08
6.32142e-11
6.34682e-11
-1.14759e-07
-3.90109e-11
-3.75255e-11
1.14709e-07
-1.10764e-07
-2.34032e-11
-6.37411e-11
-3.3024e-11
1.10759e-07
4.026e-11
4.81767e-11
-1.85392e-11
-4.34969e-11
7.03978e-11
7.46616e-11
-4.56551e-11
-1.11777e-07
-2.82662e-11
-6.46052e-11
-3.37398e-11
1.1177e-07
2.69617e-11
5.19948e-11
-5.43093e-12
1.59404e-11
4.03571e-11
1.51175e-11
-1.08851e-11
-2.71805e-08
1.37079e-11
2.87964e-11
6.11635e-11
4.4988e-11
2.70319e-08
2.96208e-11
2.77229e-11
-1.14592e-07
-1.86217e-11
-1.82515e-11
1.14572e-07
-1.10775e-07
-3.15869e-11
-2.81051e-11
-1.62767e-11
1.10788e-07
3.16464e-11
4.1733e-11
-1.96646e-11
-5.40728e-11
5.88535e-11
6.25325e-11
-5.82973e-11
-1.11783e-07
-3.55542e-11
-3.11849e-11
-1.91696e-11
1.11798e-07
1.98892e-11
4.65889e-11
-1.06364e-11
7.89168e-12
2.8117e-11
6.38835e-13
-2.17416e-11
-2.7212e-08
2.15948e-11
3.60952e-11
5.31414e-11
3.66645e-11
2.70645e-08
-1.25928e-11
-8.92056e-12
-1.14568e-07
2.74139e-12
5.32501e-12
1.14582e-07
-1.10842e-07
-3.82533e-11
8.15534e-12
-3.54607e-13
1.10855e-07
2.73164e-11
3.67842e-11
-2.8462e-11
-6.23992e-11
5.22719e-11
5.34555e-11
-6.19163e-11
-1.11846e-07
-4.30339e-11
1.11742e-11
9.67971e-13
1.11858e-07
1.35114e-11
4.04389e-11
-1.62947e-11
7.95074e-13
1.83329e-11
-7.55349e-12
-3.07197e-11
-2.72435e-08
2.85633e-11
4.35956e-11
4.76967e-11
3.0498e-11
2.70932e-08
-2.11798e-11
-1.21499e-11
-1.14628e-07
1.14001e-13
1.51407e-11
1.14646e-07
-1.10874e-07
-3.90246e-11
5.37297e-12
1.81705e-11
1.10869e-07
2.70269e-11
3.62358e-11
-2.96224e-11
-6.1419e-11
5.43129e-11
5.51042e-11
-6.07613e-11
-1.11865e-07
-4.33978e-11
-9.46695e-11
1.93408e-10
1.28496e-11
3.61706e-11
-1.60914e-11
3.14428e-12
2.01031e-11
-7.04665e-12
-2.89725e-11
1.11789e-07
-2.72507e-08
2.94367e-11
4.35162e-11
4.85737e-11
3.12049e-11
2.70979e-08
2.81008e-10
-4.38201e-10
2.1374e-08
-2.01408e-08
-1.03814e-10
-9.72145e-10
6.87609e-10
2.32271e-08
-2.65584e-08
1.71885e-09
1.20588e-09
-6.23746e-10
5.20827e-10
2.12325e-08
-2.47188e-08
2.46256e-09
1.12658e-09
-3.88671e-10
1.76732e-08
-1.7219e-08
7.24338e-10
-1.41363e-09
1.37416e-09
2.3415e-08
-2.67138e-08
8.24266e-10
6.62156e-10
-1.90061e-10
3.26788e-09
2.41021e-08
-2.81644e-08
-1.57871e-10
1.1424e-09
1.60875e-09
-2.16765e-10
-3.10054e-08
-2.76027e-08
-3.00769e-08
-2.98182e-08
-1.1146e-09
-1.39476e-09
2.04256e-10
-1.765e-09
-2.16091e-09
-6.44048e-10
-1.4352e-09
1.23314e-07
2.90701e-10
2.52982e-10
-3.09813e-08
-2.67303e-08
-2.97449e-08
-2.96088e-08
-9.83389e-10
-1.4389e-09
1.29943e-10
-1.15094e-09
-1.57758e-09
1.84304e-10
-3.95447e-09
1.23771e-07
4.8411e-09
1.46508e-09
-2.99682e-08
-2.69098e-08
-2.90514e-08
-2.81985e-08
-1.29029e-09
-9.11041e-10
1.25257e-10
-2.55014e-09
-5.23241e-09
-2.32601e-09
-1.70054e-10
-1.02438e-09
1.22391e-07
7.61757e-10
-1.95569e-09
-3.05597e-08
-2.65043e-08
-2.94098e-08
-2.9226e-08
-4.51776e-10
-1.19237e-09
5.50259e-10
-1.29386e-09
-1.79727e-09
-1.17795e-10
-2.39967e-08
4.0255e-10
9.67839e-10
4.13803e-10
2.14103e-08
-2.49255e-08
5.83603e-10
2.3477e-09
-5.89856e-09
2.29338e-08
-2.19368e-08
3.33226e-09
4.83711e-09
-2.64168e-08
-9.78267e-10
-6.30394e-09
1.33411e-09
2.12984e-08
-2.44727e-08
-2.83298e-10
1.09911e-09
-1.7571e-08
1.5712e-09
-3.36567e-10
6.95965e-10
-4.33757e-10
-3.74135e-10
-3.0242e-10
2.17883e-08
6.74569e-10
6.42749e-10
2.45713e-08
-2.39754e-08
-1.05511e-09
-8.58076e-10
-1.89421e-09
1.06329e-07
-8.84304e-10
7.02893e-10
-1.81655e-10
9.3166e-10
8.48626e-10
1.73133e-09
1.89205e-10
-2.27337e-08
-2.91044e-08
-2.55532e-08
-1.11865e-09
-7.40953e-09
-3.86465e-09
1.01851e-07
-1.73051e-10
-6.19781e-11
1.09252e-10
1.85043e-09
1.49127e-09
2.62969e-09
9.05583e-10
-2.17265e-08
-2.82662e-08
-2.49843e-08
1.11386e-07
-2.16439e-10
-1.09279e-07
7.27071e-10
-1.03785e-09
-1.15215e-09
-1.4178e-09
3.03727e-10
3.27334e-10
5.35232e-10
4.98879e-10
-7.35446e-10
1.09023e-07
-8.83752e-11
-1.06068e-07
3.09178e-11
-1.0248e-09
-1.46126e-09
-1.71716e-09
3.24978e-10
4.70443e-10
7.05788e-10
5.40637e-10
-6.81219e-10
-1.58085e-09
1.83575e-08
8.52816e-10
2.36977e-08
-2.29251e-08
-1.36388e-09
-9.96939e-10
-3.56684e-09
1.06276e-07
-1.10218e-10
8.73305e-10
-1.10719e-10
5.90005e-10
3.97517e-10
3.82492e-10
3.18753e-10
-2.32391e-08
-2.90464e-08
-2.53708e-08
1.19758e-09
-1.07139e-08
-2.56448e-09
1.08985e-07
1.59218e-09
1.56622e-09
1.34116e-09
1.33158e-09
-2.51244e-10
1.67833e-09
1.84663e-10
-2.9553e-08
-2.47777e-08
-2.59139e-08
1.09625e-07
7.94306e-10
-1.07774e-07
5.04605e-10
-1.03055e-09
-9.81391e-10
-1.32434e-09
8.20891e-11
2.81019e-10
4.3356e-10
3.27579e-11
-9.20843e-10
1.11128e-07
1.06105e-09
-1.09519e-07
2.26533e-09
-1.29157e-09
-1.40189e-09
-1.70644e-09
-2.17766e-11
1.6327e-10
2.05979e-10
3.75658e-11
-7.51507e-09
-2.16413e-09
1.00132e-07
-4.3341e-10
1.37947e-10
-9.25786e-10
2.15759e-09
1.46098e-09
1.41578e-09
2.53443e-09
-2.80667e-08
-2.1791e-08
-2.48973e-08
2.27644e-10
-1.05137e-07
5.41295e-10
-1.29877e-09
-9.17393e-10
-1.34247e-09
5.54176e-11
2.19938e-10
-2.78535e-11
3.94182e-10
-1.46441e-09
1.06604e-07
5.11934e-10
-1.03148e-07
2.37591e-09
-2.02584e-09
-1.65077e-09
-2.09564e-09
1.37571e-10
2.55816e-10
4.69418e-10
2.96971e-11
2.18887e-09
2.83458e-09
2.28099e-08
6.18247e-10
2.51315e-08
-2.46849e-08
-9.71031e-10
-1.01467e-09
-3.69298e-09
-7.00428e-09
9.8693e-08
-2.31734e-10
7.38039e-10
-8.96173e-10
1.73967e-09
1.0329e-09
1.01122e-09
2.07577e-09
-2.79337e-08
-2.05318e-08
-2.43762e-08
1.58557e-09
-1.12206e-07
9.71136e-10
-9.44108e-10
-8.98084e-10
-1.00296e-09
-1.10752e-10
8.51512e-11
2.27179e-10
1.16904e-10
-9.3946e-10
1.0767e-07
1.06644e-09
-1.04008e-07
-4.16716e-10
-1.3578e-09
-1.24723e-09
-1.63725e-09
9.10202e-11
1.49804e-10
4.44661e-10
1.85092e-10
-2.18068e-08
-1.56775e-09
-1.79349e-09
4.54794e-10
3.91484e-10
-6.78675e-10
-5.78532e-10
2.49822e-08
-1.37335e-10
-1.99625e-10
2.7173e-08
-2.69284e-08
7.97173e-11
1.26514e-11
3.49243e-10
1.12563e-07
-6.5647e-10
-1.69921e-10
-3.87272e-10
7.24121e-11
2.97609e-10
4.71373e-11
1.58964e-10
-4.94462e-10
-3.53999e-10
-2.93468e-10
1.10997e-07
-9.1751e-10
-2.3105e-10
-5.83775e-10
1.19148e-10
4.27539e-10
9.95848e-11
2.53963e-10
1.13504e-07
-5.89314e-10
-1.13403e-07
-3.03989e-10
1.00459e-10
1.17634e-10
1.85943e-10
4.9673e-11
2.9993e-11
8.96728e-11
8.20055e-11
1.82355e-10
1.132e-07
-5.66502e-10
-1.1286e-07
-6.85414e-10
1.49277e-10
1.60792e-10
2.22877e-10
3.94915e-11
1.55181e-11
7.11641e-11
7.0739e-11
-8.91036e-10
-7.31044e-10
2.43055e-08
-2.00415e-10
2.70861e-08
-2.68142e-08
6.4757e-11
4.61362e-11
-5.71531e-10
1.10819e-07
-4.61623e-10
-9.05975e-11
-2.12888e-10
3.19382e-13
3.62976e-10
1.46158e-10
1.47938e-10
-6.64756e-10
8.93365e-11
7.06941e-10
1.12061e-07
-8.13719e-10
-3.41414e-10
-5.3645e-10
4.16912e-11
3.18996e-10
1.30993e-10
1.35987e-10
1.11548e-07
-3.61993e-10
-1.11516e-07
-6.00357e-10
1.64291e-10
1.67671e-10
2.81533e-10
9.15531e-11
-3.07026e-11
8.6234e-11
-2.94844e-11
1.50502e-10
1.12584e-07
-3.80694e-10
-1.12577e-07
-4.135e-10
1.24038e-10
1.32431e-10
2.2017e-10
8.13047e-11
-2.02025e-11
1.00814e-10
-1.05464e-12
-6.24462e-10
6.11156e-10
1.09256e-07
-9.88551e-10
-5.88695e-10
-6.59644e-10
2.81221e-13
3.58258e-10
1.42065e-10
1.13676e-10
-6.81346e-10
-1.11188e-07
-6.03909e-10
1.6141e-10
1.80914e-10
2.95478e-10
1.39495e-10
1.69286e-11
1.69025e-11
1.40352e-10
1.50074e-10
1.12073e-07
-7.58281e-10
-1.11665e-07
-5.27929e-10
1.15195e-10
1.34643e-10
2.17173e-10
1.08072e-10
5.29091e-12
1.1924e-10
2.78683e-11
-6.55541e-10
-7.25149e-10
2.53593e-08
-1.61966e-10
2.71954e-08
-2.69633e-08
3.69992e-11
4.33583e-11
4.51545e-10
-7.31454e-10
1.1008e-07
-6.55222e-10
-2.21591e-10
-3.29913e-10
-2.34729e-10
1.08517e-10
-5.08203e-12
-2.26223e-10
-4.15626e-10
-1.12857e-07
-2.85204e-10
1.08294e-10
1.42025e-10
2.22993e-10
5.36477e-11
2.18125e-11
4.44357e-11
8.33512e-11
2.41551e-10
1.12289e-07
-4.3329e-10
-1.12015e-07
-8.39921e-10
1.95931e-10
2.21824e-10
3.05574e-10
3.41405e-12
-1.08588e-11
3.04038e-11
1.15124e-11
-2.67444e-08
8.01188e-11
9.81782e-12
-5.10726e-11
-9.48225e-11
1.50192e-10
9.61319e-11
2.70726e-08
-4.07973e-11
-5.17335e-11
2.7282e-08
-2.7134e-08
-2.37984e-11
-3.15971e-11
-1.71576e-10
1.13545e-07
1.18201e-10
8.74328e-11
5.37922e-11
6.97177e-11
7.83027e-11
3.71567e-11
1.9913e-11
9.84665e-11
-3.71376e-10
-4.47876e-10
1.13385e-07
1.61826e-10
1.28309e-10
9.22902e-11
5.78137e-11
6.34761e-11
2.31023e-11
9.2148e-12
1.13494e-07
-1.17995e-10
-1.1353e-07
-3.06199e-11
-1.48852e-11
-2.08729e-12
3.1567e-11
1.32205e-11
4.27485e-12
6.3524e-11
4.82137e-11
5.30605e-11
1.1349e-07
-1.09132e-10
-1.13499e-07
-1.03492e-10
-2.6009e-12
7.94791e-12
4.63263e-11
8.43758e-12
2.49078e-12
5.9904e-11
4.58246e-11
1.38625e-10
1.31964e-10
2.70077e-08
-5.02831e-11
2.72728e-08
-2.71207e-08
-2.58936e-11
-2.2884e-11
-3.56154e-10
1.11545e-07
1.83306e-10
1.30086e-10
7.59574e-11
-3.40871e-11
8.34366e-11
9.07314e-11
-3.57823e-11
8.2014e-11
-2.46865e-10
-2.73651e-10
1.12571e-07
1.57679e-10
1.02762e-10
6.47896e-11
-8.23862e-12
8.96983e-11
7.4609e-11
-2.9855e-11
1.11441e-07
-7.87236e-11
-1.11486e-07
-6.75604e-11
-9.52195e-12
-1.46174e-11
5.80367e-11
9.2132e-11
-3.77792e-11
8.82321e-11
-3.73532e-11
4.15852e-11
1.12463e-07
-8.23507e-11
-1.12507e-07
-6.45328e-11
-2.15669e-12
-1.02185e-11
5.42412e-11
7.12477e-11
-3.6323e-11
8.75675e-11
-1.51429e-11
-5.12683e-10
-3.44395e-10
1.12281e-07
1.61188e-10
1.05185e-10
6.93932e-11
1.84244e-11
1.1254e-10
-3.96423e-12
1.03294e-10
-1.39225e-10
-1.11403e-07
-6.36748e-11
-1.14175e-11
-1.53606e-11
5.56222e-11
1.02348e-10
-2.92606e-11
-2.82344e-11
9.82157e-11
3.97063e-11
1.12405e-07
-1.47139e-10
-1.12409e-07
-6.84846e-11
-3.42985e-12
-1.19242e-11
5.2225e-11
8.12636e-11
-2.87402e-11
9.68382e-11
-5.94953e-12
1.29543e-10
1.12529e-10
2.70904e-08
-4.94097e-11
2.72855e-08
-2.71385e-08
-3.85782e-11
-1.73741e-11
-3.084e-10
-5.31224e-10
1.12415e-07
2.08001e-10
1.64359e-10
1.1972e-10
2.33994e-11
4.77492e-11
4.06506e-13
2.60032e-11
-1.10869e-10
-1.12511e-07
-2.73213e-11
-2.17968e-11
-7.59731e-12
3.7193e-11
3.91701e-11
3.09295e-12
2.59112e-11
6.37071e-11
6.22287e-11
1.1246e-07
-1.04695e-10
-1.12478e-07
-1.07007e-10
-8.71633e-12
5.17394e-12
5.1563e-11
3.49967e-11
1.309e-12
5.98258e-11
2.32247e-11
-2.71292e-08
-3.0027e-11
-2.02651e-11
1.61918e-11
1.47526e-11
6.7037e-11
6.03674e-11
2.71236e-08
-4.15091e-11
-4.50108e-11
2.72304e-08
-2.70848e-08
-2.88935e-11
-3.01639e-11
-2.80968e-11
1.1345e-07
2.99002e-11
4.01503e-11
-3.17116e-12
4.52647e-11
6.04206e-11
9.46297e-12
1.95776e-12
-8.69569e-12
-8.77956e-11
-7.06591e-11
1.1346e-07
3.82884e-11
4.72795e-11
7.55898e-13
4.38638e-11
5.81149e-11
6.0144e-12
2.99503e-12
1.13304e-07
-7.00203e-11
-1.13352e-07
-3.18079e-11
-1.53385e-11
-1.26377e-12
3.05867e-11
1.4997e-12
-2.30767e-12
5.53192e-11
4.03124e-11
4.29637e-11
1.13331e-07
-6.86434e-11
-1.1338e-07
-4.04351e-11
-1.41361e-11
2.53027e-13
3.78861e-11
9.95786e-13
-2.10821e-12
5.18332e-11
4.06274e-11
6.3921e-11
6.79773e-11
2.7116e-08
-4.48659e-11
2.72305e-08
-2.70839e-08
-2.87689e-11
-2.99072e-11
-4.78585e-11
1.11393e-07
5.22938e-11
4.75071e-11
-1.91408e-11
-3.82861e-11
8.76906e-11
9.16395e-11
-3.85922e-11
-5.76476e-12
-7.38519e-11
-4.88781e-11
1.12415e-07
4.9292e-11
3.81127e-11
-1.43071e-11
-1.63562e-11
8.67942e-11
7.04585e-11
-3.73968e-11
1.11246e-07
-6.70718e-11
-1.11294e-07
-3.20461e-11
-1.81975e-11
-2.15624e-11
4.8751e-11
8.89387e-11
-4.04401e-11
8.53456e-11
-4.05334e-11
3.59647e-11
1.12268e-07
-6.63099e-11
-1.12316e-07
-3.55271e-11
-8.49798e-12
-1.67311e-11
4.59117e-11
6.76366e-11
-3.94917e-11
8.42609e-11
-1.89164e-11
-1.11638e-10
-4.84695e-11
1.12379e-07
4.72786e-11
3.64149e-11
-1.57443e-11
-1.11608e-11
9.2622e-11
-3.30865e-11
7.65784e-11
-7.47294e-11
-1.11271e-07
-3.16792e-11
-1.90522e-11
-2.04744e-11
4.45468e-11
8.99441e-11
-3.9683e-11
-3.9584e-11
8.91544e-11
3.54983e-11
1.12257e-07
-7.34176e-11
-1.12301e-07
-3.44299e-11
-9.05413e-12
-1.70473e-11
4.50927e-11
6.90235e-11
-3.91175e-11
8.57558e-11
-1.82333e-11
6.96532e-11
5.8124e-11
2.71276e-08
-4.83464e-11
2.72337e-08
-2.7089e-08
-3.86938e-11
-2.17725e-11
-8.82513e-11
-7.03974e-11
1.12427e-07
4.21646e-11
5.51456e-11
-7.4395e-13
2.14659e-11
5.80859e-11
-6.1138e-13
3.33343e-11
-7.28904e-11
-1.1231e-07
-2.75395e-11
-2.43199e-11
-8.80047e-12
3.41572e-11
2.98715e-11
-4.71242e-12
1.85204e-11
5.54826e-11
5.01139e-11
1.12297e-07
-7.12098e-11
-1.12342e-07
-3.58207e-11
-2.34402e-11
-7.2133e-12
3.55073e-11
2.93285e-11
-4.764e-12
5.45261e-11
1.83984e-11
-2.70928e-08
-3.85521e-11
-2.188e-11
1.53077e-11
1.85831e-11
6.30184e-11
6.08825e-11
2.70726e-08
-4.18098e-11
-4.42643e-11
2.71891e-08
-2.70418e-08
-3.00781e-11
-3.12019e-11
-3.26081e-11
1.13255e-07
3.05959e-11
4.16951e-11
-1.01731e-12
3.97682e-11
5.41213e-11
4.00056e-13
-3.24066e-12
-1.49511e-11
-6.54421e-11
-3.73464e-11
1.13285e-07
3.23605e-11
4.24828e-11
-5.91462e-13
3.95545e-11
5.32858e-11
-3.58308e-13
-3.55089e-12
1.13127e-07
-6.02483e-11
-1.13167e-07
-3.35221e-11
-1.58703e-11
-7.56917e-13
2.98654e-11
-2.80729e-12
-5.93378e-12
5.01864e-11
3.76679e-11
4.2233e-11
1.1316e-07
-5.9843e-11
-1.13199e-07
-3.50227e-11
-1.5852e-11
-7.2033e-13
3.04917e-11
-2.85468e-12
-6.34276e-12
5.02116e-11
3.76639e-11
6.18128e-11
6.22822e-11
2.70723e-08
-4.47194e-11
2.71903e-08
-2.70419e-08
-2.98016e-11
-3.16131e-11
-3.0904e-11
1.112e-07
4.83561e-11
4.48226e-11
-2.16581e-11
-4.14708e-11
8.43369e-11
8.77333e-11
-4.12385e-11
-8.89324e-12
-6.42648e-11
-3.41425e-11
1.12221e-07
4.54562e-11
3.57547e-11
-1.68814e-11
-1.98836e-11
8.32576e-11
6.64523e-11
-4.02951e-11
1.11075e-07
-6.05283e-11
-1.11114e-07
-2.9405e-11
-1.93155e-11
-2.17206e-11
4.72763e-11
8.44582e-11
-4.34952e-11
8.10924e-11
-4.35627e-11
3.54407e-11
1.12096e-07
-5.98219e-11
-1.12135e-07
-3.24207e-11
-9.93277e-12
-1.70892e-11
4.42251e-11
6.32158e-11
-4.25398e-11
8.00519e-11
-2.20461e-11
-6.8276e-11
-3.34015e-11
1.12212e-07
4.48527e-11
3.54768e-11
-1.70113e-11
-1.96506e-11
8.43517e-11
-4.02853e-11
6.73684e-11
-6.1661e-11
-1.111e-07
-2.93221e-11
-1.99702e-11
-2.0753e-11
4.64727e-11
8.45357e-11
-4.35161e-11
-4.34521e-11
8.14604e-11
3.53876e-11
1.1209e-07
-6.05535e-11
-1.12129e-07
-3.23377e-11
-1.00282e-11
-1.69869e-11
4.38899e-11
6.36607e-11
-4.29053e-11
8.07331e-11
-2.22575e-11
6.92028e-11
5.44664e-11
2.70768e-08
-4.8518e-11
2.71924e-08
-2.70459e-08
-3.94777e-11
-2.30695e-11
-6.79051e-11
-3.28463e-11
1.12251e-07
3.48535e-11
4.96862e-11
-7.58337e-12
1.74655e-11
5.34178e-11
-5.91397e-12
2.79559e-11
-6.24449e-11
-1.12128e-07
-2.88299e-11
-2.49341e-11
-8.29204e-12
3.34443e-11
2.46126e-11
-9.00203e-12
1.5381e-11
5.07848e-11
4.91871e-11
1.12128e-07
-6.23114e-11
-1.12167e-07
-2.9754e-11
-2.53028e-11
-7.94203e-12
3.35093e-11
2.45297e-11
-8.67758e-12
5.0211e-11
1.55689e-11
-2.7051e-08
-4.01899e-11
-2.26861e-11
1.60501e-11
1.95485e-11
6.05493e-11
5.91051e-11
2.70339e-08
-4.26343e-11
-4.49305e-11
2.71659e-08
-2.70167e-08
-3.01852e-11
-3.14042e-11
-3.42353e-11
1.13089e-07
2.95357e-11
4.19424e-11
-6.85379e-13
3.73553e-11
4.92098e-11
-3.41402e-12
-6.52381e-12
-1.60544e-11
-5.83871e-11
-3.34328e-11
1.13121e-07
2.97864e-11
4.22392e-11
-5.33478e-12
3.7454e-11
4.93191e-11
-3.43223e-12
-3.46185e-12
1.12987e-07
-5.79326e-11
-1.13019e-07
-3.51796e-11
-1.6611e-11
-1.56579e-13
2.8359e-11
-4.85526e-12
-7.42845e-12
4.65914e-11
3.65717e-11
4.27727e-11
1.1302e-07
-5.77882e-11
-1.13056e-07
-3.50543e-11
-1.69435e-11
-3.87004e-14
3.38591e-11
-4.92312e-12
-7.2592e-12
4.40939e-11
3.7012e-11
5.97575e-11
6.01716e-11
2.70342e-08
-4.54355e-11
2.71672e-08
-2.70172e-08
-2.97501e-11
-3.20168e-11
-2.95347e-11
1.11038e-07
4.69277e-11
4.43409e-11
-2.16638e-11
-4.38695e-11
8.01449e-11
8.36165e-11
-4.39755e-11
-1.01729e-11
-5.91199e-11
-3.23499e-11
1.12059e-07
4.38263e-11
3.5513e-11
-1.70667e-11
-2.23895e-11
7.91018e-11
6.23694e-11
-4.30337e-11
1.10941e-07
-5.8606e-11
-1.10971e-07
-2.9853e-11
-2.01889e-11
-2.114e-11
4.57187e-11
8.12397e-11
-4.47617e-11
7.74538e-11
-4.42834e-11
3.60973e-11
1.11962e-07
-5.79816e-11
-1.11992e-07
-3.26492e-11
-1.08334e-11
-1.65577e-11
4.25499e-11
6.00018e-11
-4.37821e-11
7.64527e-11
-2.28298e-11
-5.95364e-11
-3.22851e-11
1.12054e-07
4.35197e-11
3.54731e-11
-1.69441e-11
-2.26381e-11
7.97663e-11
-4.34091e-11
6.27796e-11
-5.91854e-11
-1.10958e-07
-3.03746e-11
-2.08492e-11
-1.98538e-11
4.18219e-11
8.1284e-11
-4.47677e-11
-4.42164e-11
8.04098e-11
3.60759e-11
1.11956e-07
-5.81867e-11
-1.11987e-07
-3.26281e-11
-1.08833e-11
-1.64189e-11
4.22749e-11
6.03849e-11
-4.41943e-11
7.70823e-11
-2.31089e-11
6.70156e-11
5.20289e-11
2.70381e-08
-4.93373e-11
2.71695e-08
-2.70212e-08
-3.96306e-11
-2.32243e-11
-6.13818e-11
-2.97285e-11
1.12091e-07
3.31495e-11
4.92534e-11
-7.89916e-12
1.52798e-11
4.92844e-11
-9.2498e-12
2.36805e-11
-5.99956e-11
-1.11983e-07
-3.01705e-11
-2.56103e-11
-7.46384e-12
3.2077e-11
2.13778e-11
-1.0458e-11
1.46755e-11
4.72005e-11
4.99071e-11
1.11992e-07
-6.00131e-11
-1.12023e-07
-3.0383e-11
-2.60923e-11
-7.22244e-12
3.20238e-11
2.13454e-11
-1.00961e-11
4.66782e-11
1.4896e-11
-2.70264e-08
-4.04112e-11
-2.28067e-11
1.65327e-11
2.00994e-11
5.8853e-11
5.74623e-11
2.70129e-08
-4.49139e-11
-4.71964e-11
2.7159e-08
-2.70074e-08
-2.91513e-11
-3.02632e-11
-3.68628e-11
1.12957e-07
2.82865e-11
4.33249e-11
4.6819e-13
3.68191e-11
4.61427e-11
-5.21312e-12
-7.07754e-12
-1.69636e-11
-5.9409e-11
-3.68791e-11
1.1299e-07
2.89892e-11
4.34291e-11
1.41027e-13
3.70985e-11
4.58684e-11
-5.39562e-12
-7.11501e-12
1.12877e-07
-6.26015e-11
-1.12902e-07
-3.95816e-11
-1.6611e-11
1.73266e-12
2.75259e-11
-6.39617e-12
-6.70337e-12
4.48874e-11
3.75098e-11
4.52069e-11
1.12912e-07
-6.2402e-11
-1.12936e-07
-4.02753e-11
-1.67408e-11
1.60561e-12
2.7892e-11
-6.65457e-12
-6.40774e-12
4.43156e-11
3.77635e-11
5.80067e-11
5.82674e-11
2.70133e-08
-4.76703e-11
2.71603e-08
-2.70082e-08
-2.85406e-11
-3.07236e-11
-3.14992e-11
1.10912e-07
4.56775e-11
4.56349e-11
-2.04028e-11
-4.39337e-11
7.70006e-11
8.0774e-11
-4.44248e-11
-1.07684e-11
-5.95406e-11
-3.41936e-11
1.11933e-07
4.2484e-11
3.67965e-11
-1.58023e-11
-2.24694e-11
7.60004e-11
5.95395e-11
-4.34453e-11
1.10837e-07
-6.36552e-11
-1.1086e-07
-3.40581e-11
-2.01834e-11
-1.89259e-11
4.49225e-11
7.90307e-11
-4.37989e-11
7.52806e-11
-4.30651e-11
3.83338e-11
1.11859e-07
-6.30293e-11
-1.11882e-07
-3.67997e-11
-1.09326e-11
-1.42901e-11
4.16831e-11
5.77933e-11
-4.28379e-11
7.42793e-11
-2.16037e-11
-5.96837e-11
-3.40989e-11
1.11928e-07
4.21963e-11
3.67659e-11
-1.56805e-11
-2.27505e-11
7.66381e-11
-4.38464e-11
5.99209e-11
-6.43445e-11
-1.10847e-07
-3.41084e-11
-2.07712e-11
-1.78966e-11
4.41606e-11
7.90797e-11
-4.38511e-11
-4.29861e-11
7.56143e-11
3.83226e-11
1.11854e-07
-6.31533e-11
-1.11876e-07
-3.68679e-11
-1.09863e-11
-1.41534e-11
4.13926e-11
5.81742e-11
-4.3257e-11
7.48973e-11
-2.18852e-11
6.53436e-11
5.03808e-11
2.70175e-08
-5.15315e-11
2.71628e-08
-2.70125e-08
-3.84468e-11
-2.20344e-11
-6.13515e-11
-3.19247e-11
1.11962e-07
3.19779e-11
5.05996e-11
-6.40736e-12
1.5128e-11
4.62427e-11
-9.75017e-12
2.0853e-11
-6.44824e-11
-1.11868e-07
-3.47652e-11
-2.55957e-11
-5.05327e-12
3.1308e-11
1.92543e-11
-9.30411e-12
1.56333e-11
4.52966e-11
5.21051e-11
1.11884e-07
-6.45515e-11
-1.11908e-07
-3.48483e-11
-2.60764e-11
-4.80757e-12
3.12483e-11
1.92235e-11
-8.93978e-12
4.478e-11
1.58571e-11
-2.70178e-08
-3.92146e-11
-2.161e-11
1.68649e-11
2.04063e-11
5.78164e-11
5.6125e-11
2.70077e-08
-4.58525e-11
-4.80655e-11
2.71702e-08
-2.70158e-08
-2.95654e-11
-3.08903e-11
-4.05435e-11
1.12855e-07
2.69259e-11
4.53536e-11
1.78669e-12
3.77823e-11
4.42192e-11
-6.87511e-12
-6.51896e-12
-1.70093e-11
-6.27371e-11
-3.9741e-11
1.12889e-07
2.69507e-11
4.55097e-11
-1.51531e-12
3.80992e-11
4.37109e-11
-7.11599e-12
-3.1386e-12
1.12809e-07
-6.54926e-11
-1.12821e-07
-4.04128e-11
-1.82891e-11
1.98078e-12
2.44002e-11
-8.5108e-12
-7.22939e-12
4.14438e-11
3.80727e-11
4.60652e-11
1.12842e-07
-6.53595e-11
-1.12858e-07
-3.97133e-11
-1.8557e-11
1.79952e-12
2.95781e-11
-8.59823e-12
-6.72325e-12
3.85631e-11
3.85814e-11
5.66235e-11
5.71169e-11
2.70086e-08
-4.86736e-11
2.71716e-08
-2.70167e-08
-2.87406e-11
-3.14246e-11
-3.48163e-11
1.10817e-07
4.43932e-11
4.76798e-11
-1.85925e-11
-4.27721e-11
7.45768e-11
7.84082e-11
-4.36928e-11
-1.11777e-11
-6.39527e-11
-3.7331e-11
1.11839e-07
4.11379e-11
3.88128e-11
-1.39338e-11
-2.13241e-11
7.35373e-11
5.71312e-11
-4.27696e-11
1.10777e-07
-6.64107e-11
-1.10786e-07
-3.41653e-11
-2.18741e-11
-1.87695e-11
4.18786e-11
7.61028e-11
-4.43973e-11
7.172e-11
-4.26022e-11
3.92599e-11
1.11799e-07
-6.63555e-11
-1.11808e-07
-3.64367e-11
-1.2651e-11
-1.40921e-11
3.85628e-11
5.48349e-11
-4.33926e-11
7.07403e-11
-2.10725e-11
-6.40443e-11
-3.72794e-11
1.11834e-07
4.08416e-11
3.87957e-11
-1.38009e-11
-2.16083e-11
7.41628e-11
-4.31779e-11
5.75094e-11
-6.68438e-11
-1.10773e-07
-3.44857e-11
-2.24332e-11
-1.76557e-11
3.77889e-11
7.61459e-11
-4.44122e-11
-4.25353e-11
7.46384e-11
3.92772e-11
1.11794e-07
-6.6398e-11
-1.11803e-07
-3.65073e-11
-1.26865e-11
-1.39045e-11
3.83002e-11
5.51724e-11
-4.38601e-11
7.12998e-11
-2.13979e-11
6.38822e-11
4.90364e-11
2.70129e-08
-5.2365e-11
2.71743e-08
-2.70211e-08
-3.91077e-11
-2.24472e-11
-6.52917e-11
-3.55882e-11
1.11863e-07
3.06356e-11
5.24777e-11
-4.52485e-12
1.61154e-11
4.41321e-11
-8.7732e-12
1.85737e-11
-6.70462e-11
-1.11789e-07
-3.47712e-11
-2.73285e-11
-4.82372e-12
2.82343e-11
1.63367e-11
-9.65594e-12
1.63111e-11
4.19959e-11
5.2893e-11
1.11817e-07
-6.71604e-11
-1.11829e-07
-3.47328e-11
-2.78473e-11
-4.64654e-12
2.81096e-11
1.63396e-11
-9.23849e-12
4.15327e-11
1.65616e-11
-2.70265e-08
-3.99535e-11
-2.19531e-11
1.93194e-11
2.29042e-11
5.41413e-11
5.26326e-11
2.70212e-08
-4.09664e-11
-4.30722e-11
2.72013e-08
-2.70443e-08
-3.62586e-11
-3.67614e-11
-3.89689e-11
1.12802e-07
2.29878e-11
4.53693e-11
1.43658e-12
3.73031e-11
3.96867e-11
-9.66091e-12
-8.66838e-12
-1.97121e-11
-6.35151e-11
-3.85616e-11
1.12836e-07
2.33341e-11
4.55051e-11
9.95845e-13
3.76823e-11
3.91227e-11
-9.84699e-12
-8.30393e-12
1.12815e-07
-4.21459e-11
-1.12805e-07
-2.52158e-11
-2.51068e-11
-2.57602e-12
1.70096e-11
-1.67226e-11
-1.72619e-11
3.01637e-11
3.10762e-11
4.1161e-11
1.12849e-07
-4.19606e-11
-1.12839e-07
-2.53367e-11
-2.53105e-11
-2.80462e-12
1.71713e-11
-1.69665e-11
-1.69203e-11
2.96938e-11
3.13847e-11
5.30536e-11
5.34311e-11
2.7022e-08
-4.35967e-11
2.72025e-08
-2.70449e-08
-3.55569e-11
-3.72963e-11
-3.26709e-11
1.10771e-07
4.05388e-11
4.75783e-11
-1.94287e-11
-4.35033e-11
7.00601e-11
7.46531e-11
-4.55639e-11
-1.3659e-11
-6.37788e-11
-3.49526e-11
1.11794e-07
3.72007e-11
3.88332e-11
-1.47552e-11
-2.19397e-11
6.91425e-11
5.34044e-11
-4.44958e-11
1.10788e-07
-3.91045e-11
-1.10777e-07
-2.05702e-11
-2.8822e-11
-2.38096e-11
3.44823e-11
6.59803e-11
-5.28775e-11
6.16058e-11
-5.09399e-11
3.45201e-11
1.11811e-07
-3.9143e-11
-1.118e-07
-2.24812e-11
-1.93382e-11
-1.92813e-11
3.10061e-11
4.45466e-11
-5.188e-11
6.06542e-11
-2.96521e-11
-6.37715e-11
-3.47163e-11
1.11789e-07
3.69186e-11
3.88375e-11
-1.45875e-11
-2.22798e-11
6.96881e-11
-4.49705e-11
5.37218e-11
-3.94471e-11
-1.10764e-07
-2.05786e-11
-2.93876e-11
-2.26831e-11
3.37332e-11
6.59734e-11
-5.29773e-11
-5.08915e-11
6.18482e-11
3.45766e-11
1.11806e-07
-3.90901e-11
-1.11795e-07
-2.27185e-11
-1.93609e-11
-1.90429e-11
3.07421e-11
4.48565e-11
-5.23684e-11
6.11633e-11
-2.99706e-11
6.02143e-11
4.56193e-11
2.70266e-08
-4.82305e-11
2.72058e-08
-2.70499e-08
-4.47217e-11
-2.84017e-11
-6.45493e-11
-3.3605e-11
1.1181e-07
2.68246e-11
5.25162e-11
-5.26762e-12
1.59234e-11
3.98939e-11
-1.0485e-11
1.47754e-11
-4.31829e-11
-1.11772e-07
-2.25227e-11
-3.34701e-11
-9.17569e-12
2.1706e-11
4.83864e-12
-1.86047e-11
1.01452e-11
3.15578e-11
4.87447e-11
1.11823e-07
-4.33456e-11
-1.11812e-07
-2.23725e-11
-3.40298e-11
-9.01325e-12
2.15397e-11
4.89089e-12
-1.81735e-11
3.11645e-11
1.03892e-11
-2.70552e-08
-4.56121e-11
-2.78277e-11
2.74322e-11
3.10652e-11
4.48698e-11
4.45704e-11
2.70534e-08
-3.3616e-11
-3.67925e-11
2.72324e-08
-2.70768e-08
-4.26686e-11
-4.24742e-11
-2.06043e-11
1.12829e-07
1.48515e-11
3.90818e-11
-4.65917e-12
2.82267e-11
2.64083e-11
-1.99305e-11
-2.06834e-11
-2.76903e-11
-2.93411e-11
-2.01556e-11
1.12865e-07
1.46213e-11
3.90342e-11
-9.22219e-12
2.85181e-11
2.59436e-11
-2.02021e-11
-1.78105e-11
1.12876e-07
3.85721e-12
-1.12861e-07
-3.10897e-13
-3.40084e-11
-1.00523e-11
8.94159e-12
-2.76252e-11
-2.82974e-11
1.79671e-11
2.14639e-11
3.38839e-11
1.12909e-07
3.97475e-12
-1.12896e-07
-2.97799e-13
-3.43063e-11
-1.08225e-11
1.38219e-11
-2.77002e-11
-2.80412e-11
1.48389e-11
2.14216e-11
4.37783e-11
4.5516e-11
2.7054e-08
-3.74963e-11
2.72335e-08
-2.70774e-08
-4.17576e-11
-4.30209e-11
-1.62143e-11
1.10803e-07
3.25452e-11
4.13615e-11
-2.52746e-11
-5.41248e-11
5.86065e-11
6.25247e-11
-5.56074e-11
-2.15386e-11
-2.76598e-11
-1.77797e-11
1.11826e-07
2.9018e-11
3.28034e-11
-2.08179e-11
-3.29398e-11
5.75809e-11
4.09377e-11
-5.46687e-11
1.10855e-07
2.73142e-12
-1.10838e-07
-3.01066e-12
-3.6749e-11
-2.87127e-11
2.84065e-11
5.4393e-11
-6.12732e-11
5.24277e-11
-6.14501e-11
2.797e-11
1.11879e-07
3.03215e-12
-1.11862e-07
-3.18746e-12
-2.74252e-11
-2.46053e-11
2.45437e-11
3.25612e-11
-6.03787e-11
5.13379e-11
-4.0419e-11
-2.77157e-11
-1.75399e-11
1.11821e-07
2.87192e-11
3.28251e-11
-2.0609e-11
-3.32442e-11
5.81038e-11
-5.51386e-11
4.12546e-11
2.52256e-12
-1.10825e-07
-3.19653e-12
-3.74665e-11
-2.77715e-11
2.40179e-11
5.44659e-11
-6.12366e-11
-6.12906e-11
5.53764e-11
2.8089e-11
1.11873e-07
3.14878e-12
-1.11857e-07
-3.69259e-12
-2.74472e-11
-2.42806e-11
2.42887e-11
3.28782e-11
-6.08635e-11
5.18386e-11
-4.06948e-11
5.22474e-11
3.72622e-11
2.70592e-08
-4.11871e-11
2.72374e-08
-2.7083e-08
-5.05548e-11
-3.46505e-11
-3.10898e-11
-1.91412e-11
1.11838e-07
1.97401e-11
4.71381e-11
-1.04421e-11
7.86912e-12
2.76787e-11
-2.1345e-11
3.37507e-13
2.8823e-12