/*--------------------------------*- C++ -*----------------------------------*\
| =========                 |                                                 |
| \\      /  F ield         | OpenFOAM: The Open Source CFD Toolbox           |
|  \\    /   O peration     | Version:  2206                                  |
|   \\  /    A nd           | Website:  www.openfoam.com                      |
|    \\/     M anipulation  |                                                 |
\*---------------------------------------------------------------------------*/
FoamFile
{
    version     2.0;
    format      ascii;
    arch        "LSB;label=32;scalar=64";
    class       volScalarField;
    location    "149";
    object      nut;
}
// * * * * * * * * * * * * * * * * * * * * * * * * * * * * * * * * * * * * * //

dimensions      [0 2 -1 0 0 0 0];

internalField   nonuniform List<scalar> 
66701
(
5.28273e-08
4.77413e-08
1.10787e-07
2.25265e-07
8.13094e-08
4.54108e-07
3.88377e-07
9.49025e-08
4.8036e-08
1.11575e-07
2.26814e-07
8.16755e-08
4.55068e-07
9.50672e-08
3.90513e-07
5.32e-08
8.58483e-09
9.27471e-10
6.01038e-11
3.63667e-12
2.31127e-12
8.81325e-09
9.47413e-10
6.12225e-11
3.66038e-12
2.32075e-12
8.3405e-09
8.88685e-10
5.61212e-11
3.19727e-12
2.05262e-12
8.39545e-09
8.94067e-10
5.63871e-11
3.19548e-12
2.0553e-12
8.64583e-09
9.34067e-10
6.05084e-11
3.64648e-12
2.31524e-12
8.86896e-09
9.53247e-10
6.15629e-11
3.66549e-12
2.32301e-12
8.40851e-09
8.98508e-10
5.73815e-11
3.35308e-12
2.13317e-12
8.70646e-09
9.35142e-10
5.97091e-11
3.44608e-12
2.19428e-12
8.44391e-09
9.02055e-10
5.75753e-11
3.35471e-12
2.13531e-12
8.72024e-09
9.36516e-10
5.97803e-11
3.44602e-12
2.19497e-12
5.29751e-08
5.27659e-08
1.7391e-06
2.44322e-07
2.41149e-07
1.11471e-07
1.63933e-06
4.80093e-07
4.53519e-07
1.10635e-07
9.24026e-07
1.63484e-06
4.74402e-07
1.91246e-06
4.54435e-07
1.11392e-07
9.25358e-07
1.63927e-06
1.90615e-06
4.77608e-07
5.31018e-08
1.73501e-06
2.42699e-07
5.26917e-08
1.61451e-07
4.87504e-08
4.85126e-08
1.61605e-07
4.87205e-08
4.84658e-08
4.22543e-07
1.08385e-07
6.78404e-07
2.46095e-07
4.20623e-07
1.08449e-07
6.81121e-07
4.20729e-07
1.06344e-07
6.69568e-07
2.4084e-07
4.18317e-07
1.06184e-07
6.70773e-07
8.10327e-08
3.8783e-07
9.47367e-08
4.56657e-07
8.11514e-08
3.9053e-07
9.45719e-08
4.76199e-08
2.24906e-07
1.10447e-07
4.76703e-08
2.2458e-07
8.1373e-08
9.48988e-08
3.89733e-07
4.57596e-07
8.14904e-08
9.47339e-08
3.9257e-07
4.79017e-08
2.26368e-07
1.11206e-07
4.79448e-08
2.26076e-07
5.3045e-08
1.62038e-07
4.86693e-08
4.88162e-08
4.23617e-07
6.74434e-07
2.42584e-07
6.75687e-07
1.067e-07
4.2299e-07
2.44995e-07
1.08299e-07
6.79181e-07
5.30956e-08
2.24491e-06
2.49918e-06
2.49374e-06
2.43976e-06
2.23132e-06
2.51399e-06
2.48132e-06
2.44034e-06
2.42069e-06
2.39771e-06
2.44498e-06
2.40683e-06
7.71554e-07
1.70401e-06
1.04732e-06
1.04489e-06
7.72684e-07
1.03754e-06
1.03021e-06
1.2333e-06
6.78775e-07
9.08346e-07
4.86983e-07
9.09745e-07
1.22553e-06
6.84335e-07
1.28006e-06
8.41249e-07
1.43916e-06
9.22193e-07
1.3008e-06
8.39956e-07
1.40937e-06
1.20093e-06
6.69547e-07
8.98694e-07
4.76855e-07
8.90831e-07
1.21753e-06
6.70605e-07
1.28575e-06
1.44146e-06
8.45589e-07
9.23464e-07
1.30618e-06
1.41169e-06
8.45007e-07
1.21092e-06
6.73853e-07
9.08091e-07
4.80418e-07
1.22793e-06
6.75106e-07
9.0029e-07
7.76077e-07
1.70182e-06
1.04339e-06
1.02966e-06
1.04545e-06
8.55327e-09
9.23829e-10
5.9875e-11
3.62844e-12
2.30695e-12
8.57433e-09
9.26361e-10
6.00378e-11
3.63467e-12
2.31031e-12
8.3219e-09
8.86383e-10
5.59668e-11
3.18965e-12
2.04744e-12
8.32959e-09
8.87661e-10
5.60727e-11
3.19721e-12
2.05188e-12
8.38262e-09
8.9283e-10
5.63283e-11
3.19568e-12
2.05439e-12
8.62937e-09
9.32322e-10
6.04056e-11
3.64406e-12
2.31415e-12
8.56815e-09
9.25665e-10
5.99756e-11
3.62348e-12
2.30172e-12
8.38559e-09
8.96034e-10
5.71993e-11
3.33557e-12
2.12264e-12
8.6903e-09
9.33586e-10
5.96329e-11
3.4461e-12
2.19362e-12
8.39143e-09
8.96829e-10
5.72949e-11
3.35242e-12
2.13253e-12
8.68184e-09
9.32388e-10
5.9499e-11
3.42577e-12
2.18264e-12
8.32331e-09
8.86801e-10
5.59757e-11
3.18297e-12
2.0449e-12
8.41911e-09
8.99401e-10
5.73828e-11
3.33696e-12
2.12455e-12
8.70366e-09
9.34909e-10
5.97021e-11
3.4462e-12
2.19426e-12
8.42455e-09
9.00152e-10
5.74785e-11
3.35437e-12
2.1345e-12
8.69502e-09
9.33686e-10
5.95663e-11
3.42574e-12
2.18338e-12
8.37596e-09
8.91943e-10
5.62287e-11
3.18097e-12
2.04728e-12
8.62554e-09
9.31868e-10
6.0357e-11
3.63295e-12
2.30582e-12
8.51344e-09
9.04654e-10
5.69201e-11
3.20234e-12
2.06513e-12
8.52933e-09
9.22071e-10
5.97832e-11
3.62344e-12
2.30359e-12
8.31175e-09
8.9144e-10
5.77548e-11
3.54916e-12
2.26967e-12
8.52548e-09
9.05442e-10
5.69787e-11
3.20952e-12
2.06906e-12
8.52692e-09
9.05514e-10
5.69432e-11
3.19938e-12
2.06444e-12
8.30759e-09
8.91107e-10
5.77392e-11
3.54898e-12
2.26989e-12
8.47046e-09
9.00713e-10
5.67877e-11
3.21522e-12
2.06816e-12
8.46332e-09
8.9976e-10
5.66887e-11
3.20163e-12
2.0616e-12
8.31167e-09
8.91486e-10
5.77475e-11
3.54237e-12
2.26362e-12
8.30645e-09
8.91027e-10
5.77199e-11
3.54033e-12
2.26224e-12
8.79609e-09
9.45564e-10
6.10866e-11
3.64591e-12
2.31088e-12
8.80071e-09
9.46128e-10
6.11486e-11
3.65847e-12
2.31986e-12
8.84933e-09
9.51131e-10
6.14105e-11
3.65068e-12
2.31313e-12
8.85251e-09
9.51556e-10
6.14667e-11
3.66356e-12
2.32196e-12
8.50406e-09
9.03803e-10
5.68886e-11
3.2014e-12
2.06441e-12
8.34258e-09
8.94887e-10
5.79557e-11
3.5473e-12
2.26492e-12
8.32873e-09
8.935e-10
5.7874e-11
3.54623e-12
2.26508e-12
9.20529e-07
9.33064e-07
1.52697e-06
9.35356e-07
9.48415e-07
9.69554e-07
1.53797e-06
9.73962e-07
9.84409e-07
1.01615e-06
1.55637e-06
1.01169e-06
1.02156e-06
1.06389e-06
1.57191e-06
1.05359e-06
1.05899e-06
1.11181e-06
1.5894e-06
1.10047e-06
1.0994e-06
1.16099e-06
1.61859e-06
1.14648e-06
1.14593e-06
1.2061e-06
1.65465e-06
1.18773e-06
1.2001e-06
1.2657e-06
1.69649e-06
1.2355e-06
1.25116e-06
1.32239e-06
1.74221e-06
1.29003e-06
1.30317e-06
1.38272e-06
1.80181e-06
1.34979e-06
1.35745e-06
1.44556e-06
1.85952e-06
1.40306e-06
1.41531e-06
1.50199e-06
1.9184e-06
1.45069e-06
1.4689e-06
1.55363e-06
1.98447e-06
1.49735e-06
1.51112e-06
1.59995e-06
2.05022e-06
1.53979e-06
1.5539e-06
1.64086e-06
2.12414e-06
1.5787e-06
1.59804e-06
1.67713e-06
2.20412e-06
1.62168e-06
1.6402e-06
1.72392e-06
9.34118e-07
9.51437e-07
9.24759e-07
9.45661e-07
9.4198e-07
9.40625e-07
9.72283e-07
9.8776e-07
9.48229e-07
9.42042e-07
9.71643e-07
9.68986e-07
9.8105e-07
9.97247e-07
9.33753e-07
9.34463e-07
9.59057e-07
9.63061e-07
9.24147e-07
9.65152e-07
9.46225e-07
9.80775e-07
9.9401e-07
9.49446e-07
9.76912e-07
9.71748e-07
9.85794e-07
1.01858e-06
1.03541e-06
9.82862e-07
9.80513e-07
1.01097e-06
1.00934e-06
1.02786e-06
1.04271e-06
9.68142e-07
9.73971e-07
9.98949e-07
1.00491e-06
9.55947e-07
1.00333e-06
9.83461e-07
1.02483e-06
1.0355e-06
9.82809e-07
1.01364e-06
1.01075e-06
1.0317e-06
1.06766e-06
1.08091e-06
1.02147e-06
1.02119e-06
1.04566e-06
1.05178e-06
1.07497e-06
1.08959e-06
1.0091e-06
1.01574e-06
1.04148e-06
1.04699e-06
9.95194e-07
1.04406e-06
1.02566e-06
1.06778e-06
1.08423e-06
1.02279e-06
1.0501e-06
1.05333e-06
1.07796e-06
1.11471e-06
1.13346e-06
1.05699e-06
1.06475e-06
1.08612e-06
1.09555e-06
1.12356e-06
1.1404e-06
1.0537e-06
1.0578e-06
1.08105e-06
1.0829e-06
1.03861e-06
1.09048e-06
1.07264e-06
1.11823e-06
1.13461e-06
1.06396e-06
1.09113e-06
1.09017e-06
1.12591e-06
1.16849e-06
1.1814e-06
1.0993e-06
1.10695e-06
1.13435e-06
1.13422e-06
1.17537e-06
1.18566e-06
1.09155e-06
1.09454e-06
1.12103e-06
1.12462e-06
1.08546e-06
1.13755e-06
1.1188e-06
1.17006e-06
1.1883e-06
1.10055e-06
1.13593e-06
1.1293e-06
1.17017e-06
1.21784e-06
1.22881e-06
1.14864e-06
1.14546e-06
1.18253e-06
1.17717e-06
1.22215e-06
1.24143e-06
1.13194e-06
1.13726e-06
1.16133e-06
1.16762e-06
1.13181e-06
1.17875e-06
1.16423e-06
1.22582e-06
1.2433e-06
1.14069e-06
1.18782e-06
1.17375e-06
1.22732e-06
1.26605e-06
1.28251e-06
1.19617e-06
1.19157e-06
1.23071e-06
1.23047e-06
1.27982e-06
1.30133e-06
1.17115e-06
1.17957e-06
1.20083e-06
1.2116e-06
1.17618e-06
1.22454e-06
1.21261e-06
1.28222e-06
1.29738e-06
1.18652e-06
1.24042e-06
1.22322e-06
1.28295e-06
1.32283e-06
1.34733e-06
1.24556e-06
1.24641e-06
1.28433e-06
1.28767e-06
1.34182e-06
1.36129e-06
1.21291e-06
1.22521e-06
1.25006e-06
1.26477e-06
1.2271e-06
1.27822e-06
1.26743e-06
1.33744e-06
1.35707e-06
1.23712e-06
1.29143e-06
1.27632e-06
1.34111e-06
1.38881e-06
1.40429e-06
1.29958e-06
1.30385e-06
1.33727e-06
1.34484e-06
1.40317e-06
1.41842e-06
1.26528e-06
1.27991e-06
1.30809e-06
1.32211e-06
1.28243e-06
1.33614e-06
1.32397e-06
1.39855e-06
1.41638e-06
1.29017e-06
1.34478e-06
1.32648e-06
1.40217e-06
1.4475e-06
1.46386e-06
1.35268e-06
1.35987e-06
1.39377e-06
1.39909e-06
1.46073e-06
1.47356e-06
1.32435e-06
1.33719e-06
1.36684e-06
1.37588e-06
1.3394e-06
1.39208e-06
1.38014e-06
1.4595e-06
1.47576e-06
1.33949e-06
1.40254e-06
1.38017e-06
1.45771e-06
1.50797e-06
1.51276e-06
1.40874e-06
1.41512e-06
1.44514e-06
1.45426e-06
1.5178e-06
1.52726e-06
1.38198e-06
1.39019e-06
1.41889e-06
1.42963e-06
1.39448e-06
1.43984e-06
1.43078e-06
1.51982e-06
1.52593e-06
1.39472e-06
1.45777e-06
1.43747e-06
1.50876e-06
1.55769e-06
1.56002e-06
1.45803e-06
1.46906e-06
1.49141e-06
1.50336e-06
1.57248e-06
1.57091e-06
1.43147e-06
1.44391e-06
1.46586e-06
1.48018e-06
1.44335e-06
1.48711e-06
1.47644e-06
1.5713e-06
1.56944e-06
1.45137e-06
1.50131e-06
1.4883e-06
1.5541e-06
1.60597e-06
1.60753e-06
1.50473e-06
1.51701e-06
1.53792e-06
1.54861e-06
1.61586e-06
1.61276e-06
1.47986e-06
1.49475e-06
1.51422e-06
1.5262e-06
1.48852e-06
1.52791e-06
1.51774e-06
1.61575e-06
1.61251e-06
1.50149e-06
1.5429e-06
1.53588e-06
1.59522e-06
1.65276e-06
1.65076e-06
1.55316e-06
1.56294e-06
1.58228e-06
1.59012e-06
1.65717e-06
1.65045e-06
1.52948e-06
1.54123e-06
1.56201e-06
1.56831e-06
1.53169e-06
1.56501e-06
1.55621e-06
1.65919e-06
1.65335e-06
1.55028e-06
1.58375e-06
1.57781e-06
1.63384e-06
1.69089e-06
1.69829e-06
1.59881e-06
1.60593e-06
1.61126e-06
1.61595e-06
1.69026e-06
1.6978e-06
1.57897e-06
1.58474e-06
1.61308e-06
1.61438e-06
1.57083e-06
1.61041e-06
1.59513e-06
1.70003e-06
1.69783e-06
1.59184e-06
1.62831e-06
1.6203e-06
1.67599e-06
1.61735e-06
1.72415e-06
1.62865e-06
1.62703e-06
1.60656e-06
1.74868e-06
1.6294e-06
2.7642e-08
2.86794e-08
5.41844e-07
1.19186e-06
2.63044e-07
9.3393e-07
2.70635e-07
5.31767e-07
1.2047e-06
1.25393e-07
1.29907e-07
9.22085e-07
1.32628e-07
1.27558e-07
2.8127e-07
6.42926e-08
6.54191e-08
2.75541e-07
2.98386e-08
3.03922e-08
2.67546e-07
6.15108e-08
6.2439e-08
2.59986e-07
1.51954e-06
1.51813e-06
1.52812e-06
1.53682e-06
1.53465e-06
1.52997e-06
1.52656e-06
5.52133e-07
2.7126e-07
1.17398e-06
9.46785e-07
2.78338e-07
1.18042e-06
5.41435e-07
2.92632e-08
2.97169e-08
5.76511e-07
1.20973e-06
2.7882e-07
9.58799e-07
5.64582e-07
1.21519e-06
2.84982e-07
1.34361e-07
1.38931e-07
9.62562e-07
1.37133e-07
1.41608e-07
2.97569e-07
6.82971e-08
2.91071e-07
6.95426e-08
3.16646e-08
3.22409e-08
2.85214e-07
6.54751e-08
2.78445e-07
6.66392e-08
1.53948e-06
1.53544e-06
1.53359e-06
1.55508e-06
1.55389e-06
1.55183e-06
1.54561e-06
5.83354e-07
2.87237e-07
1.197e-06
9.84739e-07
5.73173e-07
2.94553e-07
1.20371e-06
3.10353e-08
3.15537e-08
6.07606e-07
1.23194e-06
2.95394e-07
9.94659e-07
5.97959e-07
1.23878e-06
3.02489e-07
1.44198e-07
1.488e-07
1.00859e-06
1.46669e-07
1.52311e-07
3.12886e-07
7.22442e-08
3.0742e-07
7.33211e-08
3.36166e-08
3.42232e-08
2.9844e-07
6.91234e-08
2.92152e-07
7.0025e-08
1.55828e-06
1.55791e-06
1.55084e-06
1.57109e-06
1.58361e-06
1.57079e-06
1.57157e-06
6.14583e-07
3.06081e-07
1.22126e-06
1.02267e-06
6.03915e-07
3.13417e-07
1.22951e-06
3.29217e-08
3.34461e-08
6.36227e-07
1.25365e-06
3.14584e-07
1.03183e-06
6.26916e-07
1.26128e-06
3.21375e-07
1.53389e-07
1.58718e-07
1.05396e-06
1.56058e-07
1.60595e-07
3.27089e-07
7.58001e-08
3.21248e-07
7.69102e-08
3.55367e-08
3.60113e-08
3.13256e-07
7.31909e-08
3.05501e-07
7.41898e-08
1.59103e-06
1.5759e-06
1.58168e-06
1.58733e-06
1.61743e-06
1.5881e-06
1.58988e-06
6.45568e-07
3.23611e-07
1.25192e-06
1.06633e-06
6.35795e-07
3.31821e-07
1.2633e-06
3.47714e-08
3.52915e-08
6.65921e-07
1.2794e-06
3.30409e-07
1.07045e-06
6.56079e-07
1.28939e-06
3.36084e-07
1.61909e-07
1.66e-07
1.10271e-06
1.63879e-07
1.68139e-07
3.46459e-07
7.98388e-08
3.38627e-07
8.11042e-08
3.71909e-08
3.77175e-08
3.25321e-07
7.66891e-08
3.17981e-07
7.75276e-08
1.61884e-06
1.59177e-06
1.59376e-06
1.61506e-06
1.6378e-06
1.61404e-06
1.60927e-06
6.69939e-07
3.38892e-07
1.29636e-06
1.11489e-06
6.62449e-07
3.45285e-07
1.3096e-06
3.67895e-08
3.73383e-08
6.95357e-07
1.31386e-06
3.45671e-07
1.11242e-06
6.85717e-07
1.32454e-06
3.51961e-07
1.68251e-07
1.73698e-07
1.14775e-06
1.70186e-07
1.75846e-07
3.63241e-07
8.39232e-08
3.57842e-07
8.48254e-08
3.93989e-08
4.01094e-08
3.41705e-07
8.08354e-08
3.337e-07
8.19039e-08
1.63904e-06
1.61859e-06
1.61713e-06
1.65073e-06
1.66308e-06
1.64515e-06
1.63641e-06
7.00053e-07
3.535e-07
1.34674e-06
1.15771e-06
6.89073e-07
3.60061e-07
1.35925e-06
3.86272e-08
3.8986e-08
7.29777e-07
1.35753e-06
3.64601e-07
1.16056e-06
7.17857e-07
1.37097e-06
3.72233e-07
1.77095e-07
1.8246e-07
1.19632e-06
1.80241e-07
1.84744e-07
3.77368e-07
8.75889e-08
3.71164e-07
8.90742e-08
4.15906e-08
4.21679e-08
3.62272e-07
8.46797e-08
3.53105e-07
8.58425e-08
1.66888e-06
1.65623e-06
1.64471e-06
1.68855e-06
1.70284e-06
1.68705e-06
1.67281e-06
7.39557e-07
3.70164e-07
1.39363e-06
1.20004e-06
7.25687e-07
3.78374e-07
1.40441e-06
4.03027e-08
4.08677e-08
7.65602e-07
1.41015e-06
3.83672e-07
1.2148e-06
7.53908e-07
1.4242e-06
3.89672e-07
1.88604e-07
1.89914e-07
1.25539e-06
1.90384e-07
1.92076e-07
3.95087e-07
9.27597e-08
3.88811e-07
9.39849e-08
4.36547e-08
4.42227e-08
3.78768e-07
8.89739e-08
3.71879e-07
8.99503e-08
1.70975e-06
1.6997e-06
1.68492e-06
1.73191e-06
1.74743e-06
1.73948e-06
1.72143e-06
7.76273e-07
3.89489e-07
1.43423e-06
1.24947e-06
7.65501e-07
3.95749e-07
1.44791e-06
4.25563e-08
4.31288e-08
7.97323e-07
1.46579e-06
3.98639e-07
1.26495e-06
7.87969e-07
1.48136e-06
4.03882e-07
1.95948e-07
1.99151e-07
1.31038e-06
1.9809e-07
2.01754e-07
4.1011e-07
9.60475e-08
4.04565e-07
9.68524e-08
4.58363e-08
4.62146e-08
3.93551e-07
9.31337e-08
3.86081e-07
9.42925e-08
1.75619e-06
1.75314e-06
1.73395e-06
1.78705e-06
1.80269e-06
1.79083e-06
1.77593e-06
8.02844e-07
4.04236e-07
1.49237e-06
1.30571e-06
7.94619e-07
4.10803e-07
1.50933e-06
4.46259e-08
4.51529e-08
8.23885e-07
1.52413e-06
4.13488e-07
1.31724e-06
8.16308e-07
1.53762e-06
4.19694e-07
2.04822e-07
2.08142e-07
1.37206e-06
2.07032e-07
2.1094e-07
4.22591e-07
9.98515e-08
4.17896e-07
1.00857e-07
4.69952e-08
4.74184e-08
4.06674e-07
9.70146e-08
4.00147e-07
9.76479e-08
1.81638e-06
1.80105e-06
1.79146e-06
1.84808e-06
1.8674e-06
1.83728e-06
1.84428e-06
8.2697e-07
4.1996e-07
1.55997e-06
1.36467e-06
8.19368e-07
4.26659e-07
1.57783e-06
4.65087e-08
4.70073e-08
8.51553e-07
1.57444e-06
4.3013e-07
1.37214e-06
8.42813e-07
1.58829e-06
4.36588e-07
2.12094e-07
2.15793e-07
1.4298e-06
2.13944e-07
2.17552e-07
4.33671e-07
1.03335e-07
4.2939e-07
1.04001e-07
4.85826e-08
4.89983e-08
4.18523e-07
9.99805e-08
4.1247e-07
1.0075e-07
1.88213e-06
1.85321e-06
1.86316e-06
1.90615e-06
1.92986e-06
1.90262e-06
1.92131e-06
8.47061e-07
4.32145e-07
1.62571e-06
1.41606e-06
8.4293e-07
4.36699e-07
1.63919e-06
4.81839e-08
4.84798e-08
8.74985e-07
1.63245e-06
4.42955e-07
1.43086e-06
8.69396e-07
1.64806e-06
4.46045e-07
2.18335e-07
2.21396e-07
1.4827e-06
2.19916e-07
2.23197e-07
4.42738e-07
1.05544e-07
4.3896e-07
1.06104e-07
4.99334e-08
5.02452e-08
4.27875e-07
1.02906e-07
4.22624e-07
1.03402e-07
1.94469e-06
1.92103e-06
1.94223e-06
1.96919e-06
1.99753e-06
1.97118e-06
2.00583e-06
8.59544e-07
4.38918e-07
1.67539e-06
1.46252e-06
8.56456e-07
4.42444e-07
1.68822e-06
4.93507e-08
4.96274e-08
8.94555e-07
1.69332e-06
4.50039e-07
1.47993e-06
8.89533e-07
1.70802e-06
4.5253e-07
2.23417e-07
2.27668e-07
1.53136e-06
2.24538e-07
2.28824e-07
4.51315e-07
1.0778e-07
4.4803e-07
1.08191e-07
5.10124e-08
5.12884e-08
4.369e-07
1.05142e-07
4.31639e-07
1.0567e-07
2.01283e-06
1.98655e-06
2.01017e-06
2.03438e-06
2.0695e-06
2.04432e-06
2.02969e-06
8.68177e-07
4.42853e-07
1.73142e-06
1.50752e-06
8.67154e-07
4.46425e-07
1.74398e-06
5.04757e-08
5.07567e-08
9.11777e-07
1.75255e-06
4.57226e-07
1.52112e-06
9.07721e-07
1.76854e-06
4.61859e-07
2.26956e-07
2.32438e-07
1.57461e-06
2.27372e-07
2.33373e-07
4.57026e-07
1.09472e-07
4.54184e-07
1.09831e-07
5.18718e-08
5.20945e-08
4.44969e-07
1.07061e-07
4.40061e-07
1.07336e-07
2.08782e-06
2.06088e-06
2.04965e-06
2.10333e-06
2.15505e-06
2.11269e-06
2.09851e-06
8.82742e-07
4.51968e-07
1.78559e-06
1.5459e-06
8.78879e-07
4.57719e-07
1.79373e-06
5.1525e-08
5.17371e-08
9.25366e-07
1.81974e-06
4.66237e-07
1.56282e-06
9.22922e-07
1.83632e-06
4.69635e-07
2.29599e-07
2.36653e-07
1.61386e-06
2.30363e-07
2.37465e-07
4.59114e-07
1.11255e-07
4.59367e-07
1.11745e-07
5.25876e-08
5.29254e-08
4.50552e-07
1.0857e-07
4.46265e-07
1.08994e-07
2.17577e-06
2.12868e-06
2.12397e-06
2.18639e-06
2.19018e-06
2.17731e-06
2.17634e-06
9.03361e-07
4.63658e-07
1.84285e-06
1.58261e-06
8.98742e-07
4.67959e-07
1.84628e-06
5.22693e-08
5.23826e-08
9.37307e-07
1.88223e-06
4.7375e-07
1.60262e-06
9.35349e-07
1.88106e-06
4.76204e-07
2.33856e-07
2.39752e-07
1.65032e-06
2.35194e-07
2.40645e-07
5.24817e-08
1.11524e-07
4.56624e-07
2.2036e-06
2.18393e-06
2.18313e-06
4.77158e-07
1.89507e-06
9.25751e-07
5.32269e-08
1.905e-06
4.83851e-07
9.45688e-07
2.4174e-07
2.44989e-07
1.29445e-07
1.32171e-07
9.58173e-07
1.37485e-07
1.35014e-07
2.81415e-08
2.90698e-08
2.8875e-08
2.87161e-08
9.71407e-07
1.34282e-07
1.38127e-07
1.37322e-07
1.34194e-07
2.9605e-08
2.93401e-08
5.42685e-07
1.20274e-06
2.62089e-07
9.30044e-07
2.68766e-07
5.32849e-07
1.20749e-06
2.66677e-07
6.03397e-08
6.20203e-08
2.60243e-07
2.67033e-07
6.01114e-08
6.1468e-08
2.60602e-07
5.47239e-07
9.33574e-07
1.20652e-06
2.76823e-07
2.72726e-07
5.58534e-07
1.19832e-06
5.48268e-07
9.36555e-07
1.21013e-06
2.7714e-07
2.71047e-07
5.59305e-07
1.21014e-06
2.69054e-07
6.34691e-08
6.27175e-08
2.75697e-07
2.69531e-07
6.35193e-08
6.22913e-08
2.76323e-07
2.69142e-08
2.74168e-08
2.79059e-08
2.84843e-08
9.49783e-07
1.32236e-07
1.37012e-07
1.34552e-07
1.29624e-07
2.838e-08
2.78243e-08
2.94526e-08
2.88663e-08
2.99734e-08
3.04548e-08
2.9116e-08
2.95589e-08
1.39991e-07
1.35429e-07
9.64507e-07
1.42226e-07
1.37541e-07
3.14013e-08
3.08323e-08
3.04987e-08
2.99566e-08
9.94539e-07
1.46577e-07
1.41938e-07
1.44117e-07
1.39586e-07
2.81282e-07
6.40758e-08
6.52812e-08
2.75728e-07
5.71172e-07
2.79556e-07
1.20908e-06
9.55068e-07
2.85496e-07
1.21203e-06
5.61893e-07
5.70776e-07
2.78758e-07
1.20563e-06
9.50221e-07
2.85101e-07
1.20787e-06
5.61578e-07
2.83018e-07
6.74705e-08
6.62214e-08
2.88995e-07
2.82918e-07
6.71383e-08
6.60328e-08
2.88578e-07
5.7647e-07
9.63856e-07
2.94164e-07
1.22095e-06
2.8769e-07
1.21773e-06
5.85838e-07
5.75996e-07
9.60071e-07
2.93143e-07
1.21683e-06
2.87121e-07
1.2136e-06
5.85133e-07
1.39274e-07
1.36166e-07
9.74787e-07
1.41829e-07
1.38638e-07
2.92205e-08
2.97734e-08
3.12762e-08
3.0747e-08
1.00506e-06
1.46009e-07
1.42726e-07
1.43621e-07
1.40599e-07
3.06839e-08
3.01747e-08
5.47621e-07
2.68805e-07
1.17508e-06
9.41808e-07
2.75398e-07
1.18085e-06
5.37358e-07
2.68156e-07
6.17885e-08
6.27598e-08
2.60426e-07
5.49183e-07
1.17437e-06
2.69872e-07
9.43067e-07
1.1801e-06
2.76686e-07
5.38672e-07
2.68599e-07
6.44639e-08
6.3357e-08
2.76851e-07
5.53386e-07
9.50444e-07
2.84083e-07
1.19293e-06
2.76873e-07
1.18688e-06
5.6494e-07
2.69286e-07
6.48527e-08
6.37021e-08
2.77185e-07
5.55167e-07
9.53415e-07
1.19336e-06
2.85268e-07
1.18809e-06
2.78203e-07
5.65152e-07
2.69784e-07
6.18862e-08
6.30558e-08
2.62054e-07
5.51201e-07
1.17067e-06
2.67563e-07
9.30183e-07
1.17649e-06
2.75129e-07
5.40628e-07
2.69288e-07
6.10857e-08
6.22999e-08
2.61483e-07
5.57392e-07
9.54952e-07
2.85962e-07
1.19183e-06
2.79582e-07
1.1853e-06
5.68115e-07
2.70961e-07
6.49414e-08
6.38712e-08
2.78659e-07
5.57083e-07
9.38866e-07
1.18663e-06
2.84471e-07
1.1823e-06
2.77013e-07
5.67738e-07
2.70581e-07
6.46056e-08
6.3353e-08
2.78522e-07
1.36222e-07
1.39853e-07
9.73313e-07
1.38322e-07
1.41989e-07
2.99287e-08
3.04179e-08
3.06182e-08
3.01094e-08
1.00353e-06
1.42267e-07
1.46055e-07
1.40306e-07
1.43755e-07
3.13071e-08
3.07715e-08
5.77361e-07
1.21444e-06
2.79284e-07
9.56111e-07
5.66022e-07
1.2175e-06
2.85588e-07
2.84873e-07
6.42153e-08
2.78217e-07
6.53646e-08
2.85173e-07
6.4299e-08
2.78793e-07
6.55057e-08
5.82095e-07
9.66394e-07
1.22645e-06
2.93203e-07
1.21992e-06
2.87027e-07
5.92738e-07
5.8327e-07
9.64637e-07
1.22546e-06
2.94991e-07
1.22131e-06
2.87851e-07
5.93383e-07
2.86911e-07
6.72896e-08
6.61282e-08
2.92464e-07
2.87146e-07
6.77389e-08
6.63335e-08
2.9284e-07
2.88181e-08
2.94218e-08
2.98285e-08
3.04112e-08
9.92822e-07
1.42064e-07
1.46553e-07
1.3944e-07
1.43595e-07
3.05082e-08
2.98903e-08
3.14851e-08
3.08088e-08
3.17849e-08
3.23401e-08
3.09441e-08
3.15009e-08
1.48471e-07
1.44142e-07
1.01192e-06
1.509e-07
1.46381e-07
3.32417e-08
3.27121e-08
3.23498e-08
3.18982e-08
1.04367e-06
1.55102e-07
1.50167e-07
1.52736e-07
1.48328e-07
2.96365e-07
6.79059e-08
2.90506e-07
6.9071e-08
6.02148e-07
2.96348e-07
1.22851e-06
9.91831e-07
5.91749e-07
3.02754e-07
1.23308e-06
6.00523e-07
2.95251e-07
1.22437e-06
9.88879e-07
5.9074e-07
3.01488e-07
1.22991e-06
2.99682e-07
7.14689e-08
7.03442e-08
3.05688e-07
2.98299e-07
7.10403e-08
6.98476e-08
3.04283e-07
6.0813e-07
1.00254e-06
3.10893e-07
1.24364e-06
3.0487e-07
1.24004e-06
6.18286e-07
6.06109e-07
1.00093e-06
3.09838e-07
1.24366e-06
3.03451e-07
1.23909e-06
6.15781e-07
1.47939e-07
1.44717e-07
1.01946e-06
1.50542e-07
1.47222e-07
3.10957e-08
3.16674e-08
3.32071e-08
3.26297e-08
1.05094e-06
1.55097e-07
1.52291e-07
1.52445e-07
1.49565e-07
3.27814e-08
3.21424e-08
5.80713e-07
2.85828e-07
1.2001e-06
9.79358e-07
5.70953e-07
2.93174e-07
1.2072e-06
2.85659e-07
6.56606e-08
2.7829e-07
6.69439e-08
5.80323e-07
1.20185e-06
2.86938e-07
9.84954e-07
5.70967e-07
1.20872e-06
2.94132e-07
2.85564e-07
6.83558e-08
6.74873e-08
2.92054e-07
5.85396e-07
9.88627e-07
3.00626e-07
1.22372e-06
2.94463e-07
1.2168e-06
5.92619e-07
2.86102e-07
6.89178e-08
6.78068e-08
2.92648e-07
5.85494e-07
9.95227e-07
1.22465e-06
3.02349e-07
1.21822e-06
2.95591e-07
5.93667e-07
2.87062e-07
6.58996e-08
2.79609e-07
6.70504e-08
5.83083e-07
1.19259e-06
2.86082e-07
9.63768e-07
5.73273e-07
1.1976e-06
2.93248e-07
2.86862e-07
6.56271e-08
2.79527e-07
6.67678e-08
5.88337e-07
9.92547e-07
3.04323e-07
1.2167e-06
2.96424e-07
1.20893e-06
5.98773e-07
2.87943e-07
6.94124e-08
6.81201e-08
2.95679e-07
5.88283e-07
9.74795e-07
1.20928e-06
3.02128e-07
1.2043e-06
2.94912e-07
5.98159e-07
2.87736e-07
6.89096e-08
6.77872e-08
2.95243e-07
1.44276e-07
1.47994e-07
1.01456e-06
1.46381e-07
1.50705e-07
3.16957e-08
3.23298e-08
3.24957e-08
3.19681e-08
1.04545e-06
1.50601e-07
1.5587e-07
1.48489e-07
1.52861e-07
3.3448e-08
3.27666e-08
6.08721e-07
1.23142e-06
2.97814e-07
9.90533e-07
5.99168e-07
1.23658e-06
3.0578e-07
2.9963e-07
6.81101e-08
2.94103e-07
6.94726e-08
3.00489e-07
6.87092e-08
2.94684e-07
7.02971e-08
6.12722e-07
1.0025e-06
1.24969e-06
3.12145e-07
1.24346e-06
3.05036e-07
6.2216e-07
6.14053e-07
1.00178e-06
1.24894e-06
3.15233e-07
1.24476e-06
3.08532e-07
6.22844e-07
3.01463e-07
7.17819e-08
7.03849e-08
3.07258e-07
3.02257e-07
7.24971e-08
7.12524e-08
3.07617e-07
3.09608e-08
3.15357e-08
3.19529e-08
3.27313e-08
1.04026e-06
1.51219e-07
1.57119e-07
1.48862e-07
1.54657e-07
3.25556e-08
3.1985e-08
3.37842e-08
3.32104e-08
3.36187e-08
3.41671e-08
3.27301e-08
3.32122e-08
1.56974e-07
1.52124e-07
1.05826e-06
1.59466e-07
1.54099e-07
3.50776e-08
3.45492e-08
3.42397e-08
3.36607e-08
1.09099e-06
1.63846e-07
1.58995e-07
1.61411e-07
1.56401e-07
3.12358e-07
7.1892e-08
3.06282e-07
7.32586e-08
6.32929e-07
3.12966e-07
1.25085e-06
1.02814e-06
6.23945e-07
3.18997e-07
1.25618e-06
6.31204e-07
3.12151e-07
1.25389e-06
1.03102e-06
6.21601e-07
3.19242e-07
1.25898e-06
3.14406e-07
7.50392e-08
7.40493e-08
3.19671e-07
3.14332e-07
7.53791e-08
7.41494e-08
3.20339e-07
6.3807e-07
1.03871e-06
3.26696e-07
1.27051e-06
3.20906e-07
1.26473e-06
6.45991e-07
6.36727e-07
1.04213e-06
3.27953e-07
1.27542e-06
3.21601e-07
1.26956e-06
6.464e-07
1.57064e-07
1.54426e-07
1.06624e-06
1.59717e-07
1.56401e-07
3.32496e-08
3.37834e-08
3.51728e-08
3.46277e-08
1.0993e-06
1.63997e-07
1.61354e-07
1.61646e-07
1.58661e-07
3.4774e-08
3.42113e-08
6.04433e-07
3.01618e-07
1.23322e-06
1.02029e-06
5.97179e-07
3.07889e-07
1.24024e-06
2.99334e-07
6.97883e-08
2.92887e-07
7.07331e-08
6.06669e-07
1.23339e-06
3.03609e-07
1.02613e-06
5.98686e-07
1.24121e-06
3.10198e-07
2.9859e-07
7.21827e-08
7.10624e-08
3.05279e-07
6.09143e-07
1.0319e-06
3.16832e-07
1.25484e-06
3.09218e-07
1.24902e-06
6.17282e-07
2.9961e-07
7.25151e-08
7.14525e-08
3.06368e-07
6.11525e-07
1.03728e-06
1.25815e-06
3.17887e-07
1.25124e-06
3.11381e-07
6.19681e-07
3.04131e-07
7.04963e-08
2.96637e-07
7.15836e-08
6.14014e-07
1.21619e-06
3.03854e-07
1.00415e-06
6.03609e-07
1.2218e-06
3.11576e-07
3.03698e-07
6.99513e-08
2.96187e-07
7.11637e-08
6.19933e-07
1.03172e-06
3.22037e-07
1.24542e-06
3.14857e-07
1.23446e-06
6.30595e-07
3.04835e-07
7.34447e-08
7.24262e-08
3.12104e-07
6.19464e-07
1.01647e-06
1.23777e-06
3.21038e-07
1.23053e-06
3.13695e-07
6.29934e-07
3.04424e-07
7.32275e-08
7.22037e-08
3.1174e-07
1.5277e-07
1.58326e-07
1.05988e-06
1.55298e-07
1.60794e-07
3.39222e-08
3.44944e-08
3.43603e-08
3.38722e-08
1.09325e-06
1.59254e-07
1.646e-07
1.57455e-07
1.62695e-07
3.53267e-08
3.48586e-08
6.37293e-07
1.25613e-06
3.1697e-07
1.03241e-06
6.283e-07
1.26076e-06
3.22076e-07
3.14658e-07
7.26764e-08
3.08961e-07
7.39367e-08
3.14917e-07
7.32238e-08
3.09292e-07
7.41184e-08
6.41373e-07
1.0396e-06
1.27417e-06
3.28775e-07
1.26595e-06
3.23268e-07
6.50949e-07
6.42637e-07
1.04489e-06
1.27469e-06
3.2949e-07
1.26965e-06
3.23761e-07
6.51597e-07
3.16494e-07
7.56856e-08
7.47087e-08
3.22556e-07
3.16754e-07
7.58935e-08
7.48337e-08
3.22785e-07
3.30104e-08
3.36024e-08
3.41072e-08
3.45331e-08
1.08658e-06
1.60549e-07
1.64229e-07
1.58284e-07
1.62215e-07
3.45796e-08
3.40662e-08
3.53296e-08
3.48601e-08
3.54607e-08
3.59959e-08
3.46913e-08
3.51746e-08
1.65785e-07
1.61166e-07
1.10738e-06
1.68147e-07
1.63256e-07
3.68925e-08
3.63772e-08
3.59345e-08
3.55443e-08
1.14246e-06
1.72051e-07
1.66612e-07
1.69981e-07
1.65009e-07
3.27877e-07
7.61542e-08
3.2218e-07
7.71157e-08
6.60408e-07
3.28707e-07
1.27917e-06
1.06568e-06
6.51359e-07
3.34853e-07
1.28467e-06
6.6139e-07
3.2981e-07
1.28496e-06
1.07434e-06
6.52305e-07
3.3507e-07
1.29252e-06
3.29169e-07
7.89589e-08
7.77366e-08
3.36101e-07
3.29693e-07
7.86798e-08
7.7802e-08
3.35886e-07
6.66287e-07
1.07709e-06
3.43175e-07
1.30131e-06
3.36913e-07
1.29416e-06
6.76714e-07
6.67048e-07
1.08648e-06
3.41511e-07
1.30922e-06
3.36462e-07
1.30198e-06
6.76501e-07
1.65708e-07
1.63467e-07
1.11523e-06
1.6768e-07
1.66265e-07
3.5247e-08
3.58435e-08
3.68179e-08
3.63534e-08
1.15015e-06
1.71548e-07
1.7005e-07
1.69437e-07
1.68385e-07
3.67159e-08
3.62888e-08
6.31632e-07
3.18303e-07
1.26306e-06
1.06201e-06
6.22326e-07
3.2524e-07
1.26694e-06
3.14121e-07
7.3504e-08
3.06693e-07
7.46335e-08
6.33333e-07
1.26726e-06
3.1924e-07
1.06555e-06
6.24603e-07
1.2727e-06
3.26504e-07
3.12472e-07
7.58525e-08
7.50607e-08
3.18642e-07
6.36485e-07
1.07269e-06
3.32292e-07
1.27796e-06
3.26439e-07
1.27494e-06
6.43502e-07
3.13295e-07
7.65751e-08
7.54249e-08
3.19637e-07
6.38099e-07
1.0758e-06
1.28477e-06
3.35361e-07
1.28125e-06
3.28176e-07
6.45561e-07
3.20044e-07
7.45602e-08
3.12615e-07
7.58312e-08
6.44988e-07
1.24823e-06
3.22114e-07
1.04934e-06
6.35443e-07
1.25655e-06
3.28681e-07
3.19462e-07
7.39492e-08
3.12384e-07
7.49738e-08
6.50481e-07
1.07622e-06
3.39314e-07
1.28489e-06
3.33908e-07
1.27292e-06
6.58161e-07
3.19063e-07
7.76224e-08
7.66329e-08
3.25061e-07
6.49795e-07
1.06235e-06
1.27885e-06
3.34037e-07
1.27089e-06
3.28655e-07
6.57028e-07
3.18529e-07
7.64237e-08
7.57294e-08
3.24547e-07
1.61081e-07
1.66337e-07
1.10942e-06
1.63469e-07
1.68368e-07
3.56678e-08
3.61407e-08
3.63181e-08
3.57507e-08
1.14409e-06
1.68244e-07
1.72344e-07
1.65779e-07
1.70202e-07
3.70139e-08
3.65073e-08
6.66971e-07
1.28313e-06
3.31531e-07
1.07265e-06
6.57251e-07
1.28922e-06
3.37892e-07
3.30995e-07
7.64036e-08
3.24599e-07
7.74072e-08
3.31356e-07
7.67314e-08
3.24802e-07
7.79453e-08
6.71091e-07
1.07837e-06
1.30623e-06
3.4386e-07
1.29586e-06
3.38029e-07
6.80724e-07
6.72759e-07
1.08297e-06
1.30587e-06
3.4578e-07
1.29878e-06
3.4e-07
6.82024e-07
3.33114e-07
7.924e-08
7.81807e-08
3.39071e-07
3.33517e-07
7.98305e-08
7.87869e-08
3.39494e-07
3.49029e-08
3.53696e-08
3.5702e-08
3.62193e-08
1.13691e-06
1.66937e-07
1.71949e-07
1.6517e-07
1.69946e-07
3.60628e-08
3.56545e-08
3.70839e-08
3.65945e-08
3.72788e-08
3.78369e-08
3.63139e-08
3.68217e-08
1.739e-07
1.68353e-07
1.1571e-06
1.7622e-07
1.70626e-07
3.88274e-08
3.82478e-08
3.79667e-08
3.73042e-08
1.19276e-06
1.8079e-07
1.76173e-07
1.78165e-07
1.72957e-07
3.45905e-07
7.9436e-08
3.38246e-07
8.06138e-08
6.95347e-07
3.45266e-07
1.3107e-06
1.10939e-06
6.83098e-07
3.51752e-07
1.31969e-06
6.94007e-07
3.43318e-07
1.31855e-06
1.11528e-06
6.82642e-07
3.49705e-07
1.32552e-06
3.49211e-07
8.31464e-08
8.19856e-08
3.56054e-07
3.48627e-07
8.30745e-08
8.15687e-08
3.55666e-07
7.02283e-07
1.12353e-06
3.60359e-07
1.34114e-06
3.54051e-07
1.33126e-06
7.14326e-07
7.00681e-07
1.12612e-06
3.60087e-07
1.34408e-06
3.52304e-07
1.33545e-06
7.12644e-07
1.73368e-07
1.71753e-07
1.1626e-06
1.7563e-07
1.73124e-07
3.70635e-08
3.74015e-08
3.88841e-08
3.81644e-08
1.19777e-06
1.80877e-07
1.76702e-07
1.77776e-07
1.74802e-07
3.82128e-08
3.77875e-08
6.54747e-07
3.33139e-07
1.28554e-06
1.10039e-06
6.47646e-07
3.39391e-07
1.29069e-06
3.26768e-07
7.7472e-08
3.19929e-07
7.86317e-08
6.57834e-07
1.2926e-06
3.36871e-07
1.10336e-06
6.49951e-07
1.29663e-06
3.44476e-07
3.25706e-07
7.97665e-08
7.83864e-08
3.3304e-07
6.59855e-07
1.11186e-06
3.48771e-07
1.30386e-06
3.40929e-07
1.29911e-06
6.69665e-07
3.27079e-07
8.05528e-08
7.96271e-08
3.34071e-07
6.6296e-07
1.11524e-06
1.30986e-06
3.52254e-07
1.30519e-06
3.46196e-07
6.72144e-07
3.31837e-07
7.82297e-08
3.24303e-07
7.90749e-08
6.68832e-07
1.2946e-06
3.34776e-07
1.09556e-06
6.61307e-07
1.30459e-06
3.40493e-07
3.31482e-07
7.72121e-08
3.23901e-07
7.79705e-08
6.74644e-07
1.12463e-06
3.52405e-07
1.33484e-06
3.46189e-07
1.32099e-06
6.83769e-07