/*--------------------------------*- C++ -*----------------------------------*\
| =========                 |                                                 |
| \\      /  F ield         | OpenFOAM: The Open Source CFD Toolbox           |
|  \\    /   O peration     | Version:  2206                                  |
|   \\  /    A nd           | Website:  www.openfoam.com                      |
|    \\/     M anipulation  |                                                 |
\*---------------------------------------------------------------------------*/
FoamFile
{
    version     2.0;
    format      ascii;
    arch        "LSB;label=32;scalar=64";
    class       volScalarField;
    location    "149";
    object      omega;
}
// * * * * * * * * * * * * * * * * * * * * * * * * * * * * * * * * * * * * * //

dimensions      [0 0 -1 0 0 0 0];

internalField   nonuniform List<scalar> 
66701
(
398.577
417.372
298.004
216.732
329.041
174.587
186.375
309.345
417.481
298.03
216.656
329.069
174.538
309.353
186.244
398.661
717.247
1593.72
4406.9
16553.4
116912
715.003
1594.36
4411.95
16586.4
116840
742.309
1625.56
4490.88
16927.5
116802
742.817
1627.03
4496.81
16965.2
116814
717.484
1594.28
4408.85
16565.3
116892
715.28
1595.1
4414.79
16603.9
116852
728.513
1609.86
4448.07
16724.8
116752
728.421
1607.21
4449.06
16776.1
116727
728.759
1610.59
4450.88
16742
116747
728.535
1607.53
4450.3
16784
116725
397.801
398.484
65.7344
207.29
208.069
297.304
55.3904
164.258
174.695
297.945
107.717
56.8509
165.768
42.8866
174.588
297.96
107.765
56.606
42.8983
165.526
398.556
65.9807
207.955
398.435
247.978
401.219
402.092
248.011
401.164
402.048
182.059
305.69
134.427
206.818
181.86
305.433
134.071
181.661
306.774
135.146
208.139
181.368
306.775
135.32
328.888
186.442
309.252
174.661
328.982
186.435
309.224
417.152
216.728
297.934
417.333
216.71
328.915
309.251
186.311
174.595
329.008
309.227
186.29
417.254
216.636
297.965
417.436
216.628
398.515
247.874
402.061
401.201
181.446
135.325
207.993
135.143
306.733
182.031
206.336
305.534
134.502
396.846
34.2451
25.0796
25.7305
18.2338
34.2052
25.0186
25.964
18.3126
26.2491
18.3458
26.1852
18.3706
126.95
64.9253
94.1315
94.806
126.437
93.5964
94.5556
83.0348
131.868
105.818
163.265
105.34
83.4058
130.719
75.2827
116.087
68.5494
107.578
74.4312
115.75
68.2122
86.0344
133.789
108.338
165.705
108.03
85.7551
133.666
75.0378
68.7675
115.796
107.551
73.9638
68.2604
115.595
85.9807
133.488
108.003
165.489
85.1426
133.397
108.074
126.759
65.1772
94.9852
94.767
93.7257
717.233
1593.51
4406.15
16548.5
116912
717.171
1593.59
4406.55
16551.8
116912
742.256
1625.33
4490.55
16925.2
116814
742.215
1625.31
4489.84
16921.3
116802
742.668
1626.65
4495.34
16956.5
116814
717.38
1594.07
4408.16
16561.6
116892
717.114
1593.8
4407.6
16558.1
116912
728.39
1610.1
4449.92
16737.5
116752
728.312
1606.89
4447.72
16768.1
116727
728.436
1609.61
4446.97
16718.1
116752
728.339
1607.59
4451.54
16792.6
116727
742.232
1625.97
4493.23
16942.3
116802
728.622
1610.79
4452.58
16753.9
116747
728.408
1607.17
4448.81
16775.1
116725
728.657
1610.25
4449.37
16732.7
116747
728.466
1607.95
4452.8
16800.4
116725
742.764
1627.46
4499.06
16978.9
116814
717.369
1594.39
4409.56
16569.6
116892
741.998
1627.31
4502.79
17013
116759
717.313
1593.32
4405.54
16546.4
116881
715.151
1595.55
4408.1
16528.9
116901
741.909
1627.14
4501.64
17004.1
116776
742.016
1627.8
4504.79
17023.4
116776
715.145
1595.54
4407.94
16529.1
116921
741.439
1625.94
4495.36
16965.6
116795
741.526
1626.68
4498.72
16985.6
116795
715.109
1595.67
4408.81
16532.9
116901
715.056
1595.61
4408.63
16533.6
116921
714.836
1594.44
4412.97
16593.6
116840
714.969
1594.28
4411.61
16584.3
116840
715.108
1595.16
4415.75
16610.9
116852
715.228
1594.93
4414.08
16599.6
116852
741.758
1627.46
4502.6
17012.1
116777
715.17
1595.88
4409.81
16540.3
116918
715.175
1595.77
4409.38
16537.3
116904
47.4814
60.4718
27.2334
50.1814
48.8004
61.7637
27.5141
51.3174
50.4061
62.5423
28.5133
52.6367
51.3001
63.5154
29.819
53.562
51.6595
64.2586
30.5975
54.4947
53.1528
64.832
31.1878
55.0968
53.768
65.3391
31.5175
55.6082
54.3414
65.7278
32.3327
56.1666
54.7913
65.874
32.8327
56.6073
55.2504
66.1989
33.2562
56.7915
55.5275
66.4671
33.6344
56.9115
55.639
66.3898
33.8749
56.9588
55.7505
66.356
33.9879
57.1141
55.7441
66.2238
34.174
57.122
55.6658
66.1814
34.277
56.9596
55.6303
66.0825
34.4031
56.0031
54.2841
65.248
59.5122
60.8546
47.6828
48.0033
49.1978
60.9721
61.368
62.0896
48.5446
49.5422
49.3808
49.8041
61.3178
62.3045
48.2122
48.4341
50.1857
49.5137
50.9078
51.3126
51.5606
60.1749
61.9543
48.4605
49.5103
49.5024
62.2802
61.3889
62.8095
49.2286
50.4314
50.6377
51.3345
61.1028
62.9402
50.0334
49.7944
50.9475
50.8021
52.1091
52.1715
52.7011
60.757
62.72
49.704
50.2556
51.4083
62.6964
62.0907
63.4853
51.602
51.2031
52.2739
51.8924
62.586
63.5488
51.6364
51.4833
52.1564
51.8153
52.5854
52.5312
53.5252
62.5214
63.3957
51.1569
51.3664
52.3566
63.9888
62.6861
64.3557
51.9664
52.1315
52.9929
53.1704
62.8316
64.3805
52.5067
52.7355
54.2365
54.0779
53.1901
53.6383
54.5161
62.839
64.2099
52.3091
52.6553
53.3802
64.0992
63.9425
64.8012
52.7618
53.1567
53.6618
53.879
63.2024
64.7013
53.8779
53.7809
54.9581
55.1377
54.256
54.7539
55.2617
63.4641
64.5483
52.4687
53.3917
54.0191
65.0914
64.3091
65.0312
53.6357
53.7816
54.4051
54.3508
63.4905
65.0345
54.9494
54.415
55.5185
55.6655
54.6646
54.894
55.7421
63.7562
64.8185
53.7167
53.9572
54.4175
65.5911
64.4791
65.3503
54.2032
54.1442
54.9229
55.1604
64.6638
65.295
54.6652
55.3129
56.2162
56.1214
55.3847
55.4222
56.3325
64.2729
65.2289
53.9735
54.5374
54.963
65.654
64.626
65.638
54.5545
54.9036
55.3755
55.4548
64.2521
65.6451
55.4394
55.4675
56.5871
56.6401
55.8858
56.432
56.7738
64.4697
65.7449
54.5362
54.508
55.4168
66.0125
64.8311
65.6566
55.0746
54.7224
55.7137
55.7617
64.4089
65.6266
56.2511
56.3866
56.8962
57.1209
56.4347
56.0925
57.0826
64.6142
65.9322
55.1136
54.7722
55.7545
65.8687
64.8375
65.6638
55.3589
55.5293
55.9608
56.1337
64.5395
65.7693
56.2321
56.7046
57.0647
57.2199
56.3795
56.2091
57.3764
65.4237
65.9354
55.0293
55.3945
55.9808
65.7653
64.8433
65.7401
55.7527
55.4401
56.0019
55.9834
64.9341
65.7147
56.2349
56.4118
57.2296
57.5084
56.5496
56.4661
57.3562
65.0135
65.7707
55.4242
55.4915
56.0661
66.2504
65.1873
65.7322
55.6003
55.5756
56.0322
56.0797
65.1525
65.9354
56.277
57.194
57.2707
57.3969
56.5752
56.9915
57.4353
65.2092
65.8181
55.2541
55.5444
56.2022
66.0619
64.8621
65.725
55.4848
55.6538
55.9961
56.0555
65.4903
65.7146
56.8837
56.8324
57.2165
57.2434
56.8124
56.5082
57.317
65.3099
65.7083
55.3238
55.4752
56.1882
66.1296
64.5059
65.6728
54.9398
55.8009
55.9885
56.0125
65.3725
65.6193
56.1918
56.6527
57.146
57.1737
56.643
56.7835
57.1696
64.5051
65.4369
55.7282
55.4605
55.9886
65.9637
64.6188
65.7319
55.0447
55.1214
56.8021
56.4933
64.7481
65.4638
56.8625
56.7772
55.533
55.4627
56.7589
55.8656
56.1718
64.9992
65.194
55.5071
54.7788
55.3565
65.3351
56.1048
64.4393
55.6939
54.8302
55.3599
64.2619
55.1585
399.37
397.547
104.522
33.2967
166.048
47.4413
165.976
104.264
33.2453
210.787
209.272
61.0114
209.081
210.644
175.337
297.8
297.559
175.587
397.847
397.507
178.244
299.592
299.341
178.379
27.4238
27.2678
27.2533
27.4741
27.8889
27.6416
27.7113
108.677
169.137
35.3162
50.0032
168.925
35.5612
108.433
399.198
398.85
105.244
33.2558
166.996
48.7692
105.122
33.4423
166.886
210.435
208.939
62.0512
210.218
208.774
175.021
297.373
175.228
297.128
397.407
397.076
177.897
299.243
178.112
298.981
27.9865
27.8526
27.7867
28.1387
28.8212
28.0278
28.8462
109.104
168.917
37.0429
51.9053
108.872
168.531
37.1409
398.823
398.477
105.587
34.6113
166.888
50.443
105.528
35.2697
166.477
210.051
208.568
62.7682
209.883
208.381
174.738
296.972
174.891
296.753
397.058
396.794
177.856
298.895
177.991
298.646
28.4682
28.2165
28.7549
29.2244
29.4517
29.0841
29.2072
109.271
168.55
37.9984
52.3992
109.2
168.389
38.0163
398.506
398.203
105.944
36.4021
166.562
51.3194
105.954
36.1621
166.358
209.772
208.296
63.9239
209.61
208.134
174.301
296.628
174.561
296.44
396.78
396.502
177.34
298.559
177.679
298.335
29.5809
29.5239
29.5834
30.1295
30.27
30.4583
30.6057
109.476
168.376
38.7596
53.1183
109.371
168.135
38.7721
398.271
398.007
106.285
37.2654
166.342
52.5594
106.165
36.9736
165.901
209.529
208.032
64.5184
209.421
207.903
173.781
296.361
174.084
296.196
396.527
396.333
176.974
298.27
177.274
298.063
30.1757
30.4315
30.4981
30.5728
30.946
31.0825
31.1981
109.531
168.071
39.6634
54.2489
109.554
167.642
39.7949
398.089
397.836
106.278
37.9195
166.07
52.7863
106.405
37.8093
165.634
209.305
207.77
64.9191
209.144
207.611
173.417
296.111
173.663
295.954
396.389
396.193
176.486
298.03
176.804
297.859
30.7723
31.1109
31.1442
31.4994
31.5572
31.3439
31.702
109.612
167.725
40.495
54.7514
109.425
167.42
40.3849
397.907
397.682
106.262
38.6726
165.63
53.3347
106.284
38.3272
165.335
209.023
207.506
65.5408
208.879
207.385
172.979
295.88
173.302
295.732
396.29
396.14
175.97
297.842
176.271
297.67
31.492
31.8212
31.7013
31.8637
32.3026
32.2974
32.3281
109.322
167.387
41.0099
54.8306
109.405
167.209
40.4318
397.786
397.599
106.296
39.4454
165.377
54.1208
106.307
39.3228
165.219
208.782
207.296
65.7453
208.659
207.172
172.731
295.693
172.905
295.59
396.217
396.078
175.625
297.661
175.9
297.533
32.2847
32.206
32.3115
32.5046
32.9245
32.812
33.0003
109.144
167.057
41.679
55.8458
109.171
166.784
41.5102
397.739
397.584
106.122
39.9935
165.062
53.8547
106.213
39.9177
164.905
208.587
207.056
66.0706
208.5
206.95
172.421
295.597
172.538
295.525
396.222
396.124
175.34
297.555
175.576
297.456
32.5458
32.6023
32.7254
32.7125
33.2651
33.3279
33.3892
109.195
166.868
42.0388
55.5416
109.178
166.59
41.9189
397.765
397.628
106.022
40.457
164.857
55.0044
106.197
40.344
164.595
208.414
206.88
66.2623
208.339
206.8
172.189
295.541
172.327
295.486
396.268
396.156
175.22
297.523
175.313
297.441
33.1858
33.2224
33.1616
33.1368
33.5894
33.7278
33.6968
109.059
166.522
42.3939
56.5037
108.998
166.287
41.716
397.816
397.7
105.904
40.8024
164.508
54.9699
105.912
40.1551
164.385
208.301
206.738
66.3374
208.259
206.707
172.025
295.551
172.067
295.524
396.336
396.273
175.035
297.522
175.111
297.461
33.3575
33.5969
33.3275
33.7345
33.9201
34.0117
34.0746
109.057
166.417
42.7386
56.1528
108.901
166.297
42.4282
397.903
397.804
105.794
41.1528
164.38
55.0555
105.916
40.9243
164.198
208.234
206.683
66.3267
208.193
206.627
171.877
295.611
171.961
295.598
396.45
396.38
174.936
297.57
174.9
297.537
33.6741
33.5392
33.8593
33.6597
34.1284
34.3234
34.2611
108.769
166.283
42.9047
56.4866
108.756
166.165
42.0028
398.021
397.936
105.496
41.2541
164.279
55.1478
105.67
40.6643
164.09
208.169
206.595
66.2884
208.14
206.564
171.795
295.691
171.885
295.683
396.58
396.534
174.864
297.659
174.885
297.631
33.5965
33.7222
33.8999
34.0165
34.3065
34.4482
34.3855
108.631
166.191
42.7718
56.151
108.69
166.026
42.063
398.146
398.068
105.439
41.413
164.046
55.0636
105.51
40.7345
163.762
208.112
206.558
66.1462
208.077
206.513
171.726
295.77
171.848
295.773
396.686
396.62
174.823
297.75
174.808
297.722
34.0652
33.8456
33.9622
34.1022
34.3865
34.5277
34.5222
108.454
165.901
43.0208
56.5393
108.497
165.798
42.3005
398.289
398.215
105.434
41.3175
163.887
55.0397
105.538
40.8605
163.785
208.059
206.524
65.9572
208.032
206.515
172.156
295.91
171.733
295.794
396.79
396.656
174.807
297.841
174.759
297.832
34.0963
34.3593
34.2423
34.2667
34.5818
33.6127
33.7667
108.372
165.762
42.8711
56.1949
108.449
165.589
42.1414
398.412
398.326
105.306
41.1919
163.784
55.1627
105.419
40.8083
163.693
208.024
206.515
66.0156
208.026
206.515
398.33
297.077
173.159
34.1958
33.5963
33.6603
164.087
41.8951
105.967
397.722
41.1673
162.492
105.296
207.187
205.907
210.126
208.662
58.7347
207.771
208.517
398.027
397.239
398.974
398.458
59.8692
210.106
208.65
207.977
209.21
397.653
397.495
104.554
33.0402
167.047
48.7309
166.791
104.086
33.0979
175.49
298.017
297.344
175.579
175.532
298.381
298.082
175.552
103.58
47.2277
33.0974
166.689
165.647
104.46
32.8859
104.295
48.8323
34.0659
167.019
166.947
104.847
33.9414
175.331
297.77
297.475
175.498
175.263
297.832
298.148
175.386
399.841
399.405
398.444
398.026
60.8713
210.452
208.941
209.02
210.618
399.09
399.642
397.775
398.15
397.763
397.457
399.206
398.856
208.647
210.22
61.7961
208.549
210.13
397.244
397.616
398.654
399.081
61.0924
208.463
210.105
208.521
210.103
175.394
297.86
297.583
175.598
105.437
166.846
34.2229
49.6761
166.83
34.4047
105.075
105.326
167.124
33.8915
48.7201
166.942
34.6017
105.136
175.172
297.338
297.614
175.187
175.258
297.342
297.639
174.975
105.117
49.7268
166.687
34.5064
166.463
34.5782
105.525
105.053
49.7256
166.821
34.8641
166.779
34.3181
105.476
208.914
210.384
61.6921
208.766
210.215
399.276
398.884
397.29
397.671
60.8283
208.586
210.088
208.731
210.244
398.665
399.109
107.833
168.6
35.0726
49.3866
168.279
34.9673
107.391
178.135
299.6
299.366
178.182
107.702
34.794
168.623
48.9019
34.9937
168.698
105.553
178.031
299.169
299.458
178.077
107.34
49.791
168.781
34.9618
168.428
35.3501
108.1
177.966
299.174
299.472
178.092
107.158
49.2553
35.6764
168.677
35.2617
168.522
108.542
178.194
299.749
299.43
178.609
108.559
36.1421
169.101
50.5241
35.9025
168.97
108.513
178.284
299.742
299.421
178.778
108.281
51.2052
168.895
36.2186
168.846
36.1967
108.841
177.915
299.204
299.535
178.18
107.69
51.5608
36.6224
168.953
36.4005
168.792
108.889
178.093
299.191
299.522
178.067
210.123
208.646
61.4463
210.083
208.623
397.851
397.483
398.648
399.071
61.1763
210.041
208.52
210.015
208.612
397.264
397.648
105.291
33.7242
166.772
49.4848
104.097
34.1243
166.841
175.196
297.866
175.415
297.59
175.417
297.898
175.471
297.583
104.71
49.1702
34.3123
166.862
33.8923
166.577
105.343
104.963
49.2618
34.5822
166.71
34.976
166.697
105.385
175.262
297.355
297.65
175.128
175.251
297.33
297.643
175.227
399.292
398.822
397.943
397.551
61.4372
210.05
208.573
210.167
208.724
398.602
399.043
397.324
397.715
397.412
397.059
398.888
398.48
208.436
210.092
62.4099
208.317
209.997
396.893
397.235
398.33
398.718
62.0209
208.169
209.909
208.313
210.023
175.026
297.4
175.185
297.118
105.613
166.687
34.428
49.5936
105.115
166.599
35.1823
105.649
166.605
34.41
50.6068
105.253
166.725
34.6379
174.717
296.942
297.191
174.878
174.779
296.918
297.177
174.679
105.085
50.1087
166.552
36.1743
166.298
35.787
105.815
104.98
50.3482
166.476
35.4526
166.592
35.0271
105.818
208.594
210.095
62.7135
208.516
209.928
398.894
398.506
396.936
397.259
62.289
208.297
209.784
208.463
209.947
398.322
398.735
108.95
168.445
35.6934
50.3454
107.817
168.766
35.2399
178.049
299.285
177.775
298.979
108.869
35.6057
168.706
50.1525
107.956
35.7973
168.597
177.639
298.817
299.093
177.969
108.686
51.5368
168.823
35.768
168.516
35.5507
109.225
177.936
298.806
299.081
177.972
108.408
51.4754
36.7528
168.667
36.007
168.294
109.168
177.964
299.297
178.081
298.964
109.096
36.5537
168.822
52.2257
108.495
36.8979
168.743
177.977
299.3
177.936
298.981
108.719
52.0866
168.448
37.2576
168.488
37.0599
108.846
177.974
298.771
299.067
177.829
108.678
52.0361
37.9566
168.73
37.1337
168.373
109.324
177.647
298.802
299.092
177.87
210.084
208.472
62.4865
209.98
208.365
397.438
397.079
398.329
398.711
62.1321
209.852
208.181
209.952
208.318
396.916
397.26
105.43
35.114
166.488
50.8636
104.636
35.055
166.403
175.062
297.401
175.171
297.113
174.904
297.384
175.027
297.093
104.885
50.2498
35.7449
166.53
35.6916
166.411
105.844
104.746
50.9911
36.2696
166.389
35.4747
166.517
105.684
174.783
296.907
297.175
174.791
174.675
296.901
297.158
174.828
398.83
398.426
397.492
397.136
62.0564
209.765
208.296
209.855
208.396
398.281
398.662
396.979
397.313
397.075
396.745
398.573
398.202
208.177
209.918
63.1416
208.041
209.807
396.616
396.929
398.089
398.442
62.3755
207.924
209.659
208.046
209.777
174.728
296.992
174.793
296.737
106.012
166.351
36.1272
51.763
105.465
166.419
36.0344
106.071
166.505
35.519
51.6225
105.24
166.324
36.3682
174.537
296.591
296.82
174.462
174.487
296.571
296.811
174.476
105.707
51.7524
166.306
36.7378
166.261
36.4777
106.078
105.726
51.8766
166.124
37.0225
166.396
36.2585
106.037
208.294
209.794
63.2041
208.143
209.651
398.569
398.214
396.656
396.978
62.7605
207.984
209.548
208.145
209.668
398.118
398.466
109.448
168.735
36.0517
51.2735
108.558
168.699
36.5428
177.818
298.919
177.868
298.638
109.371
36.6781
168.501
51.1401
108.596
36.31
168.48
177.74
298.484
298.755
177.717
108.902
51.62
168.412
37.3496
168.571
36.9485
109.528
177.693
298.485
298.744
177.634
108.809
51.519
36.8293
168.451
36.5186
168.394
109.466
177.59
298.884
177.454
298.608
109.457
37.8399
168.495
52.9464
108.936
38.3122
168.368
177.697
298.921
177.474
298.634
108.683
52.5073
168.226
37.8656
168.088
37.8317
109.344
177.613
298.481
298.733
177.444
109.038
53.0992
38.7603
168.379
38.0198
168.137
109.58
177.701
298.505
298.764
177.47
209.863
208.169
63.1452
209.722
208.044
397.107
396.788
398.096
398.443
62.6671
209.627
207.924
209.728
207.956
396.666
396.977
105.824
36.3888
166.308
51.279
104.93
36.3327
166.356
174.461
296.969
174.824
296.722
174.683
296.981
174.683
296.734
105.216
51.6303
36.9897
166.144
36.9566
166.28
105.984
105.198
51.4495
37.1212
166.17
36.378
166.018
106.037
174.513
296.578
296.808
174.292
174.52
296.578
296.811
174.317
398.521
398.167
397.162
396.845
63.5494
209.514
208.029
209.631
208.149
398.064
398.411
396.713
397.031
396.807
396.501
398.335
397.994
207.911
209.671
63.744
207.781
209.533
396.393
396.681
397.903
398.236
62.8624
207.668
209.405
207.779
209.558
174.198
296.647
174.303
296.414
106.008
166.066
37.3657
52.4199
105.366
166.087
37.4866
106.208
166.201
37.0754
52.4012
105.247
166.14
36.9131
174.031
296.314
296.523
173.954
174.233
296.279
296.485
173.957
105.53
52.6455
165.818
37.9014
165.972
37.5654
106.23
105.85
52.2075
165.986
37.6251
165.964
37.5851
106.292
207.97
209.526
64.0265
207.898
209.415
398.36
398.054
396.413
396.676
62.934
207.728
209.294
207.837
209.426
397.934
398.285
109.576
168.314
38.2583
53.6808
109.056
168.346
38.501
177.274
298.595
177.501
298.327
109.587
37.1337
168.141
53.2338
109.083
37.6162
168.013
177.311
298.197
298.448
177.172
109.019
53.8367
168.008
39.5496
168.227
39.3071
109.749
176.908
298.198
298.437
177.106
109.162
53.3499
38.963
168.07
38.0248
167.797
109.726
177.223
298.604
177.084
298.333
109.616
38.7382
168.267
53.7404
109.172
38.7625
168.311
177.324
298.64
177.237
298.377
108.914
54.032
168.05
38.9893
167.908
38.9534
109.561
177.321
298.218
298.455
177.156
109.178
54.0517
39.5782
167.876
38.8475
168.202
109.68
177.337
298.235
298.504
177.132
209.597
207.902
63.794
209.479
207.803
396.863
396.562
397.917
398.244
63.5886
209.339
207.679
209.479
207.8
396.451
396.746
106.125
37.1487
166.219
52.2352
105.277
37.0175
166.04
174.137
296.662
174.319
296.43
174.09
296.658
174.339
296.42
105.81
52.2452
37.5607
166.078
37.3222
165.604
106.355
105.688
53.143
37.9271
165.925
37.0999
165.713
106.293
173.96
296.301
296.509
173.933
174.154
296.275
296.5
174.09
398.3
397.968
396.891
396.589
64.1787
209.297
207.767
209.413
207.872
397.864
398.201
396.47
396.767
396.569
396.304
398.141
397.816
207.631
209.424
64.4921
207.518
209.266
396.223
396.474
397.731
398.041
63.5478
207.417
209.157
207.513
209.269
173.76
296.354
173.96
296.145
106.136
165.954
37.7328
52.9046
105.889
165.881
37.561
106.209
165.693
38.0899
53.0211
105.956
165.753
38.2003
173.448
296.069
296.266
173.684
173.654
296.022
296.218
173.454
105.124
52.8232
165.608
38.5939
165.568
38.3288
106.161
105.902
53.0435
165.663
38.6044
165.659
38.2484
106.139
207.699
209.2
64.6577
207.601
209.128
398.166
397.853
396.269
396.513
64.1992
207.446
209.051
207.569
209.157
397.78
398.083
109.718
167.944
39.2081
53.9528
109.135
167.895
39.3052
176.912
298.317
177.05
298.075
109.791
39.1631
167.85
54.8016
109.352
39.6151
167.833
176.973
297.955
298.176
176.835
108.948
54.034
167.719
40.3193
167.638
40.106
109.677
176.951
297.959
298.19
176.655
109.287
54.8108
40.2291
167.596
39.8568
167.804
109.747
176.85
298.344
177.142
298.097
109.487
39.5206
168.003
53.9447
109.252
39.8313
167.875
176.853
298.35
177.106
298.088
108.919
54.5995
167.71
39.8068
167.442
39.8932
109.403
176.843
297.982
298.211
176.748
108.899
54.9837
40.277
167.581
39.9667
167.777
109.545
176.852
297.969
298.206
176.482
209.346
207.574
64.4151
209.232
207.52
396.628
396.355
397.746
398.057
63.7025
209.067
207.389
209.198
207.482
396.281
396.535
106.256
38.0044
165.81
53.4172
105.162
37.9636
165.81
173.833
296.375
173.983
296.156
173.742
296.358
173.897
296.142
105.778
53.1787
38.0791
165.443
37.8384
165.657
105.744
105.877
53.2008
38.6822
165.596
38.1869
165.577
106.205
173.622
296.032
296.236
173.517
173.451
296.025
296.224
173.57
398.084
397.773
396.643
396.372
64.5427
209.018
207.499
209.175
207.618
397.695
397.999
396.287
396.548
396.397
396.159
397.951
397.668
207.385
209.123
64.8856
207.29
209.018
396.107
396.335
397.624
397.887
64.3593
207.131
208.909
207.25
208.991
173.412
296.096
173.469
295.902
106.119
165.512
38.194
53.5542
105.785
165.413
38.6145
105.984
165.472
38.461
53.3834
105.308
165.48
38.6507
173.227
295.841
296.03
173.332
173.19
295.802
295.969
173.158
105.803
53.722
165.176
39.175
165.364
38.4517
106.15
105.527
53.8765
165.119
38.8904
165.015
38.5634
106.193
207.456
209.074
64.9588
207.384
208.979
398.005
397.746
396.177
396.378
64.6163
207.213
208.815
207.331
208.972
397.66
397.964
109.642
167.476
40.0418
55.139
109.159
167.605
39.8673
176.499
298.087
176.733
297.863
109.773
40.0456
167.691
55.3542
108.789
40.4428
167.534
176.1
297.765
297.981
176.198
108.821
55.2298
167.314
40.7739
167.49
40.2663
109.404
176.49
297.773
297.981
176.265
109.258
55.1284
40.9333
167.426
40.6569
167.306
109.5
176.312
298.097
176.518
297.872
109.64
39.8001
167.692
55.1193
109.18
40.6184
167.399
176.406
298.086
176.308
297.858
109.176
54.7791
167.398
40.2572
167.519
40.2645
109.374
176.325
297.768
297.987
176.016
109.144
55.3361
40.9759
167.302
40.6185
167.474
109.528
176.304
297.768
297.982
175.97
209.078
207.289
64.6645
208.965
207.254
396.46
396.225
397.632
397.899
63.8661
208.86
207.159
208.943
207.234
396.184
396.407
106.198
38.5991
165.464
53.9572
105.93
38.4911
165.528
173.303
296.114
173.549
295.924
173.301
296.113
173.297
295.92
105.181
53.7388
38.735
165.228
39.0389
165.361
106.168
105.478
54.0672
39.2203
165.228
38.4628
165.305
106.062
173.334
295.841
296.012
173.086
173.345
295.833
296.008
173.236
397.915
397.647
396.462
396.224
64.6731
208.77
207.286
208.863
207.358
397.615
397.87
396.168
396.401
396.292
396.071
397.849
397.598
207.142
208.876
65.3497
206.988
208.794
396.043
396.246
397.579
397.822
64.5244
206.879
208.69
206.986
208.763
172.938
295.895
173.157
295.721
106.145
165.04
39.14
54.5291
105.271
165.022
38.8387
106.187
164.966
38.8569
54.2406
105.215
164.986
39.6682
173.035
295.651
295.809
172.938
172.958
295.642
295.806
172.798
105.752
54.6077
164.916
39.7302
164.899
39.34
106.024
105.832
54.3661
164.847
39.9319
164.933
39.7175
106.127
207.209
208.818
65.3704
207.075
208.694
397.887
397.628
396.106
396.305
64.738
206.954
208.606
206.999
208.688
397.608
397.857
109.517
167.296
40.7248
55.5817
108.747
167.229
40.8242
175.943
297.897
176.162
297.677
109.409
40.7613
167.295
55.6672
108.851
40.7941
167.156
175.983
297.594
297.785
175.95
109.091
55.4438
167.079
41.6797
167.124
40.9611
109.519
175.729
297.588
297.786
175.798
108.572
55.7727
41.638
167.03
40.9243
167.018
109.384
175.877
297.88
175.691
297.669
109.212
40.7696
167.246
55.1021
108.984
41.047
167.226
175.897
297.899
175.661
297.697
108.656
55.6829
167.055
41.0017
166.717
41.2008
109.212
175.632
297.603
297.783
175.676
108.576
56.0706
41.5925
166.844
40.8966
167.001
109.228
175.682
297.628
297.827
175.817
208.841
207.091
65.155
208.746
207.043
396.366
396.149
397.579
397.818
64.538
208.61
206.988
208.713
207.068
396.115
396.328
106.21
39.2589
165.364
53.7081
105.261
39.2348
165.143
172.993
295.932
173.11
295.76
172.825
295.923
172.998
295.729
105.309
54.383
39.2768
164.915
39.2738
164.986
106.09
105.826
54.6885
39.989
164.909
39.3029
165.012
106.153
172.857
295.687
295.85
172.793
172.903
295.635
295.813
172.742
397.838
397.596
396.336
396.117
64.6055
208.574
207.045
208.676
207.14
397.587
397.824
396.076
396.286
396.226
396.039
397.813
397.579
206.887
208.69
65.5654
206.787
208.596
396.048
396.224
397.583
397.808
64.7368
206.728
208.481
206.799
208.567
172.735
295.735
172.78
295.584
106.002
164.736
39.4551
54.5406
104.864
164.717
39.8089
106.065
164.711
39.6192
55.1195
105.135
164.752
39.6214
172.523
295.547
295.683
172.423
172.564
295.535
295.667
172.593
105.579
54.905
164.532
40.2994
164.663
39.9883
105.843
105.695
55.1663
164.591
40.3337
164.389
39.9457
106.007
206.891
208.583
65.5132
206.891
208.541
397.837
397.632
396.109
396.263
65.1087
206.8
208.428
206.86
208.535
397.603
397.858
109.378
166.694
41.6561
56.273
108.989
166.965
41.7661
175.64
297.697
175.539
297.514
109.383
41.6415
166.72
56.3563
108.909
41.4663
166.751
175.662
297.484
297.654
175.528
108.904
55.8387
166.688
42.0497
166.682
41.7927
109.378
175.695
297.467
297.636
175.434
108.934
56.1908
42.1031
166.669
41.6484
166.733
109.123
175.579
297.727
175.487
297.546
109.132
41.5019
166.914
55.898
108.613
41.3836
166.767
175.551
297.756
175.716
297.569
108.585
55.7277
166.893
41.3298
166.64
41.3704
109.207
175.269
297.517
297.678
175.426
108.442
56.3789
42.1687
166.76
41.9119
166.836
109.139
175.431
297.52
297.698
175.393
208.608
207.001
65.4173
208.49
206.909
396.298
396.101
397.599
397.814
65.021
208.405
206.844
208.435
206.926
396.09
396.283
106.066
39.9573
164.893
54.5476
105.79
39.8502
164.785
172.625
295.779
172.724
295.623
172.608
295.726
172.787
295.566
105.604
54.7337
39.7815
164.752
39.814
164.809
105.764
105.608
54.9598
40.511
164.681
39.885
164.692
106.061
172.437
295.577
295.72
172.588
172.66
295.529
295.669
172.501
397.817
397.591
396.248
396.07
65.5237
208.408
206.868
208.487
206.941
397.592
397.823
396.084
396.257
396.243
396.075
397.818
397.605
206.744
208.468
65.6987
206.662
208.391
396.096
396.262
397.629
397.834
64.726
206.593
208.338
206.635
208.382
172.364
295.641
172.391
295.511
105.789
164.519
39.8319
55.3697
105.467
164.526
40.5278
105.914
164.48
40.0643
55.5442
105.646
164.426
40.3172
172.256
295.489
295.616
172.328
172.23
295.498
295.617
172.213
105.082
55.5006
164.226
40.7042
164.076
40.5169
105.76
105.517
55.1254
164.303
40.6952
164.326
40.4254
105.761
206.796
208.426
65.7601
206.728
208.326
397.836
397.615
396.148
396.309
65.2871
206.659
208.251
206.717
208.332
397.628
397.847
109.173
166.315
41.6561
56.5036
108.941
166.517
42.0377
175.359
297.601
175.443
297.44
109.065
41.9417
166.529
56.2968
108.655
41.8688
166.346
175.387
297.439
297.593
175.332
108.721
56.6083
166.549
42.4851
166.554
42.2453
109.161
175.081
297.43
297.576
175.231
108.251
56.812
42.5797
166.315
41.8987
166.397
109.165
175.373
297.649
175.232
297.475
109.114
41.9123
166.454
56.72
108.665
41.92
166.646
175.459
297.649
175.114
297.487
108.716
56.3481
166.517
41.714
166.415
41.7738
108.747
175.178
297.459
297.613
175.33
108.541
56.8003
42.4242
166.347
42.0911
166.529
109.11
175.301
297.471
297.629
175.338
208.397
206.831
65.9195
208.304
206.751
396.276
396.105
397.656
397.86
64.7219
208.238
206.666
208.284
206.752
396.128
396.296
105.982
40.2986
164.572
55.4011
105.667
40.4851
164.461
172.465
295.676
172.451
295.536
172.379
295.638
172.534
295.501
105.444
54.8073
40.1475
164.437
40.2066
164.459
105.791
104.976
55.4757
40.7971
164.496
40.5659
164.487
105.925
172.283
295.525
295.644
172.199
172.387
295.491
295.614
172.241
397.825
397.614
396.268
396.103
65.6025
208.29
206.716
208.333
206.799
397.638
397.85
396.127
396.286
396.291
396.141
397.872
397.675
206.602
208.354
65.6489
206.52
208.249
396.173
396.325
397.704
397.906
64.8496
206.437
208.215
206.498
208.277
172.15
295.61
172.286
295.491
105.591
164.175
40.014
55.2539
104.904
164.085
40.7067
105.743
164.041
40.323
55.2275
105.279
164.189
40.0603
171.973
295.493
295.601
172.051
172.178
295.483
295.595
172.097
104.845
55.2649
163.96
40.9752
164.121
40.3407
105.64
105.409
56.0193
164.022
41.0368
164.025
40.8542
105.655
206.664
208.234
65.8869
206.641
208.305
397.862
397.698
396.218
396.348
65.2967
206.571
208.245
206.627
208.289
397.701
397.931
109.046
166.433
42.2122
56.9775
108.638
166.333
42.487
175.151
297.573
174.981
297.44
109.021
42.4801
165.965
56.9567
108.154
42.3319
166.172
174.948
297.44
297.586
175.133
108.563
56.8133
166.246
42.8175
166.344
42.6293
109.047
175.068
297.454
297.583
175.058
108.507
56.975
42.9279
166.12
42.3265
165.858
108.962
175.196
297.602
175.148
297.453
109.112
42.2113
166.138
57.1199
108.495
42.1098
166.385
175.195
297.619
175.073
297.479
108.545
56.28
166.41
42.1668
166.079
42.4176
108.624
174.976
297.456
297.595
175.173
108.77
56.7292
42.9131
166.242
42.7832
166.151
109.181
174.938
297.495
297.632
175.21
208.247
206.662
65.8057
208.184
206.617
396.324
396.175
397.745
397.933
65.508
208.142
206.596
208.15
206.622
396.211
396.365
105.812
40.3648
164.174
55.7763
105.517
40.6542
164.4
172.079
295.642
172.077
295.527
172.252
295.615
172.126
295.508
105.548
54.7444
40.5826
164.266
40.8087
164.278
105.814
105.541
55.3085
41.0222
164.283
40.7745
164.321
105.862
172.185
295.539
295.647
172.054
172.164
295.516
295.635
172.128
397.872
397.677
396.314
396.173
65.827
208.218
206.662
208.264
206.718
397.708
397.91
396.213
396.358
396.368
396.234
397.943
397.76
206.454
208.23
65.717
206.411
208.184
396.279
396.417
397.808
397.993
64.7837
206.385
208.168
206.407
208.195
172.023
295.609
172.027
295.515
105.478
164.036
40.6846
55.3373
104.873
163.975
40.8982
105.658
163.995
40.3537
55.6709
105.296
163.97
41.0384
171.941
295.554
295.642
171.876
171.967
295.541
295.638
171.995
104.81
55.7301
163.928
41.1363
163.793
40.9237
105.395
105.286
55.7175
163.808
41.2596
163.969
40.6877
105.49
206.573
208.252
65.7279
206.515
208.206
397.94
397.735
396.329
396.463
64.939
206.482
208.166
206.491
208.221
397.755
397.967
108.983
166.118
42.0521
57.0095
108.624
166.135
42.7245