/*--------------------------------*- C++ -*----------------------------------*\
| =========                 |                                                 |
| \\      /  F ield         | OpenFOAM: The Open Source CFD Toolbox           |
|  \\    /   O peration     | Version:  2206                                  |
|   \\  /    A nd           | Website:  www.openfoam.com                      |
|    \\/     M anipulation  |                                                 |
\*---------------------------------------------------------------------------*/
FoamFile
{
    version     2.0;
    format      ascii;
    arch        "LSB;label=32;scalar=64";
    class       volScalarField;
    location    "149";
    object      p;
}
// * * * * * * * * * * * * * * * * * * * * * * * * * * * * * * * * * * * * * //

dimensions      [0 2 -2 0 0 0 0];

internalField   nonuniform List<scalar> 
66701
(
-0.00651475
-0.00651482
-0.00651474
-0.00651467
-0.00651478
-0.00651449
-0.00651454
-0.00651477
-0.00651485
-0.00651478
-0.0065147
-0.00651479
-0.0065145
-0.00651478
-0.00651455
-0.0065148
-0.00651481
-0.00651482
-0.00651482
-0.00651482
-0.00651481
-0.00651485
-0.00651485
-0.00651485
-0.00651485
-0.00651484
-0.00651486
-0.00651487
-0.00651486
-0.00651486
-0.00651486
-0.0065149
-0.00651491
-0.0065149
-0.0065149
-0.0065149
-0.00651486
-0.00651487
-0.00651486
-0.00651486
-0.00651486
-0.00651488
-0.00651488
-0.00651488
-0.00651488
-0.00651487
-0.00651483
-0.00651483
-0.00651483
-0.00651482
-0.00651482
-0.00651483
-0.00651483
-0.00651483
-0.00651482
-0.00651482
-0.00651485
-0.00651485
-0.00651484
-0.00651484
-0.00651483
-0.00651483
-0.00651484
-0.00651483
-0.00651483
-0.00651482
-0.00647116
-0.00647096
-0.00647057
-0.00647107
-0.00647091
-0.00647135
-0.00648121
-0.0064715
-0.00647068
-0.00647096
-0.00647087
-0.00648148
-0.00647106
-0.00648116
-0.00647069
-0.00647102
-0.00647088
-0.00648148
-0.00648122
-0.00647111
-0.00647103
-0.00647032
-0.00647098
-0.00649312
-0.00649316
-0.00647104
-0.00647097
-0.00647085
-0.00649298
-0.00649301
-0.00649318
-0.00647111
-0.00647041
-0.00649291
-0.00647085
-0.00649292
-0.00649341
-0.00649322
-0.00647103
-0.00647032
-0.00649322
-0.00647076
-0.00649303
-0.0064936
-0.00649319
-0.00647072
-0.00647099
-0.00649351
-0.00647099
-0.00649344
-0.00649321
-0.00649309
-0.00647089
-0.00649318
-0.00647103
-0.00649328
-0.00649321
-0.006471
-0.00647075
-0.00649352
-0.00647101
-0.00649322
-0.00649347
-0.00649314
-0.00647094
-0.00649324
-0.00647107
-0.00649333
-0.00649318
-0.00649323
-0.00649309
-0.00649304
-0.00649328
-0.00647041
-0.00649329
-0.00649363
-0.0064931
-0.00649317
-0.00649308
-0.00649298
-0.00649341
-0.00649301
-0.00648103
-0.00648092
-0.00648057
-0.00648087
-0.00648097
-0.00648081
-0.0064806
-0.00648086
-0.00648066
-0.00648089
-0.00648062
-0.00648091
-0.0064924
-0.00649299
-0.00647063
-0.00647062
-0.00647157
-0.00649301
-0.0064931
-0.00649281
-0.0064716
-0.00647027
-0.00649224
-0.00649328
-0.00647099
-0.006492
-0.00649386
-0.00647094
-0.00646959
-0.00649319
-0.00646976
-0.00649313
-0.00649401
-0.00649373
-0.006471
-0.00646985
-0.00649306
-0.00649392
-0.00646987
-0.00649306
-0.00649391
-0.0064696
-0.00647095
-0.00649321
-0.0064698
-0.00649402
-0.00649315
-0.00649377
-0.00647105
-0.00646994
-0.00649311
-0.00646995
-0.00649311
-0.00649396
-0.00649242
-0.00649292
-0.00647067
-0.0064931
-0.00649303
-0.0064711
-0.00647109
-0.00647109
-0.0064711
-0.0064711
-0.00647101
-0.00647101
-0.006471
-0.006471
-0.00647099
-0.00647118
-0.00647117
-0.00647117
-0.00647118
-0.00647118
-0.00647107
-0.00647107
-0.00647107
-0.00647106
-0.00647106
-0.00647113
-0.00647113
-0.00647112
-0.00647112
-0.00647112
-0.00647108
-0.00647108
-0.00647108
-0.00647107
-0.00647107
-0.00649304
-0.00649303
-0.00649303
-0.00649303
-0.00649303
-0.00649312
-0.00649312
-0.00649312
-0.00649312
-0.00649312
-0.00647104
-0.00647104
-0.00647103
-0.00647103
-0.00647103
-0.00647104
-0.00647104
-0.00647103
-0.00647103
-0.00647103
-0.00649314
-0.00649314
-0.00649314
-0.00649314
-0.00649314
-0.00649303
-0.00649302
-0.00649302
-0.00649302
-0.00649302
-0.00649314
-0.00649314
-0.00649314
-0.00649314
-0.00649314
-0.00647105
-0.00647105
-0.00647104
-0.00647104
-0.00647103
-0.00647106
-0.00647106
-0.00647105
-0.00647105
-0.00647105
-0.00649315
-0.00649314
-0.00649315
-0.00649315
-0.00649315
-0.00649308
-0.00649307
-0.00649307
-0.00649307
-0.00649307
-0.0064931
-0.00649309
-0.00649309
-0.00649309
-0.00649309
-0.00649296
-0.00649295
-0.00649295
-0.00649295
-0.00649295
-0.00649295
-0.00649294
-0.00649293
-0.00649293
-0.00649293
-0.00647104
-0.00647103
-0.00647103
-0.00647103
-0.00647103
-0.00647106
-0.00647106
-0.00647106
-0.00647106
-0.00647106
-0.00649284
-0.00649284
-0.00649284
-0.00649284
-0.00649284
-0.00647101
-0.00647101
-0.006471
-0.006471
-0.006471
-0.00647105
-0.00647104
-0.00647103
-0.00647103
-0.00647103
-0.00649298
-0.00649298
-0.00649298
-0.00649298
-0.00649298
-0.00649293
-0.00649293
-0.00649293
-0.00649293
-0.00649293
-0.00649296
-0.00649295
-0.00649295
-0.00649295
-0.00649295
-0.00649306
-0.00649306
-0.00649306
-0.00649306
-0.00649306
-0.00647106
-0.00647105
-0.00647105
-0.00647104
-0.00647104
-0.0064931
-0.00649309
-0.00649309
-0.00649309
-0.00649309
-0.0064711
-0.00647109
-0.00647109
-0.00647109
-0.00647108
-0.00649305
-0.00649305
-0.00649305
-0.00649305
-0.00649305
-0.00649304
-0.00649303
-0.00649303
-0.00649303
-0.00649303
-0.006493
-0.006493
-0.00649299
-0.00649299
-0.00649299
-0.00349608
-0.00348397
-0.00369186
-0.00369271
-0.00369245
-0.00368054
-0.00388491
-0.00388525
-0.00388528
-0.00387324
-0.00407422
-0.00407441
-0.0040744
-0.00406259
-0.00426091
-0.00426115
-0.0042611
-0.00424951
-0.00444551
-0.00444571
-0.00444566
-0.00443425
-0.00462782
-0.00462807
-0.00462798
-0.00461662
-0.00480826
-0.00480841
-0.00480842
-0.00479708
-0.004987
-0.00498712
-0.00498727
-0.004976
-0.00516459
-0.00516474
-0.00516492
-0.0051537
-0.00534157
-0.00534181
-0.00534175
-0.0053307
-0.00551796
-0.00551827
-0.00551822
-0.0055072
-0.0056939
-0.0056943
-0.00569425
-0.00568322
-0.00586939
-0.00586988
-0.00586975
-0.00585871
-0.0060444
-0.00604487
-0.00604463
-0.00603377
-0.0062192
-0.00621935
-0.00621939
-0.0062084
-0.00639367
-0.00639371
-0.00639405
-0.00638313
-0.00348471
-0.00365566
-0.00349636
-0.00364419
-0.00364411
-0.00365617
-0.00368014
-0.00384942
-0.00369242
-0.00369268
-0.00383748
-0.00383747
-0.00368054
-0.00384946
-0.00369217
-0.00369215
-0.00383746
-0.00383747
-0.00369271
-0.0038375
-0.00383742
-0.00368013
-0.0038495
-0.00369271
-0.00383756
-0.00383747
-0.00384939
-0.00387328
-0.00403931
-0.0038852
-0.0038852
-0.0040275
-0.00402746
-0.00387332
-0.00403928
-0.00388519
-0.00388519
-0.00402751
-0.00402746
-0.00388514
-0.00402744
-0.00402733
-0.00387335
-0.00403925
-0.00388516
-0.00402745
-0.00402737
-0.00403916
-0.00406272
-0.00422642
-0.00407442
-0.00407438
-0.00421474
-0.00421478
-0.00406269
-0.00422645
-0.00407445
-0.0040744
-0.00421474
-0.00421473
-0.00407428
-0.00421474
-0.00421467
-0.00406265
-0.00422641
-0.00407432
-0.00421472
-0.00421472
-0.0042264
-0.00424949
-0.00441145
-0.00426108
-0.00426115
-0.00439986
-0.00439989
-0.00424954
-0.00441144
-0.00426108
-0.00426107
-0.00439986
-0.00439974
-0.00426107
-0.00439985
-0.00439986
-0.00424948
-0.00441135
-0.0042611
-0.0043998
-0.00439983
-0.00441146
-0.00443424
-0.00459419
-0.00444569
-0.00444567
-0.00458274
-0.00458267
-0.00443422
-0.00459417
-0.0044457
-0.00444558
-0.00458272
-0.0045827
-0.00444572
-0.00458275
-0.00458274
-0.00443413
-0.00459414
-0.00444568
-0.00458268
-0.00458273
-0.00459415
-0.00461666
-0.004775
-0.004628
-0.00462792
-0.00476363
-0.00476355
-0.00461665
-0.00477494
-0.004628
-0.00462797
-0.00476362
-0.00476356
-0.00462797
-0.00476357
-0.00476343
-0.00461661
-0.00477495
-0.00462798
-0.00476355
-0.00476352
-0.00477485
-0.00479722
-0.00495403
-0.00480846
-0.00480837
-0.00494273
-0.00494266
-0.00479716
-0.00495395
-0.00480846
-0.00480839
-0.00494275
-0.00494273
-0.00480826
-0.00494263
-0.00494262
-0.00479717
-0.00495409
-0.00480835
-0.00494277
-0.00494268
-0.00495398
-0.00497602
-0.00513182
-0.00498716
-0.00498707
-0.00512055
-0.00512044
-0.00497595
-0.00513174
-0.00498718
-0.00498719
-0.0051205
-0.00512057
-0.00498711
-0.00512046
-0.00512052
-0.00497609
-0.00513191
-0.00498716
-0.00512066
-0.00512057
-0.00513181
-0.0051537
-0.00530896
-0.00516479
-0.00516468
-0.00529769
-0.00529764
-0.00515362
-0.00530893
-0.00516474
-0.0051648
-0.00529769
-0.00529762
-0.00516477
-0.00529762
-0.00529763
-0.00515378
-0.00530891
-0.00516482
-0.00529764
-0.00529764
-0.00530891
-0.00533075
-0.00548546
-0.00534179
-0.00534175
-0.00547419
-0.00547422
-0.00533073
-0.00548548
-0.00534181
-0.00534171
-0.00547421
-0.00547418
-0.00534175
-0.00547426
-0.00547422
-0.00533068
-0.00548546
-0.00534175
-0.00547417
-0.0054742
-0.00548548
-0.00550715
-0.00566144
-0.00551816
-0.00551819
-0.00565018
-0.00565025
-0.00550719
-0.00566156
-0.00551819
-0.00551816
-0.00565021
-0.00565025
-0.00551826
-0.00565032
-0.00565036
-0.00550717
-0.00566155
-0.00551822
-0.0056503
-0.00565029
-0.00566156
-0.0056831
-0.00583708
-0.00569411
-0.00569418
-0.00582587
-0.00582594
-0.00568323
-0.00583721
-0.00569411
-0.00569418
-0.00582585
-0.00582585
-0.00569429
-0.00582602
-0.00582592
-0.00568319
-0.00583711
-0.00569421
-0.00582594
-0.00582587
-0.00583713
-0.00585867
-0.00601216
-0.00586968
-0.00586977
-0.00600096
-0.00600108
-0.00585883
-0.00601231
-0.00586964
-0.00586964
-0.00600094
-0.00600087
-0.00586974
-0.00600114
-0.00600108
-0.00585868
-0.00601209
-0.00586967
-0.00600094
-0.00600104
-0.00601225
-0.00603372
-0.00618683
-0.00604471
-0.00604482
-0.00617569
-0.00617565
-0.00603387
-0.00618675
-0.00604466
-0.00604459
-0.00617572
-0.00617566
-0.00604482
-0.00617563
-0.00617569
-0.00603359
-0.00618687
-0.00604475
-0.00617567
-0.00617577
-0.00618689
-0.00620847
-0.0063613
-0.00621948
-0.0062194
-0.00635082
-0.00635065
-0.00620838
-0.00636114
-0.00621946
-0.00621942
-0.00635044
-0.00635055
-0.00621946
-0.00635027
-0.00635042
-0.00620837
-0.00636196
-0.00621947
-0.00635059
-0.00635056
-0.00636179
-0.00639354
-0.00638312
-0.00639383
-0.00639392
-0.00639377
-0.00638324
-0.00639397
-0.0034851
-0.00355872
-0.00355741
-0.00349626
-0.00348547
-0.0035462
-0.00355802
-0.0034854
-0.00354597
-0.00348475
-0.0034851
-0.00355807
-0.00355867
-0.00355916
-0.0037538
-0.00368169
-0.00375405
-0.00368151
-0.00368165
-0.00375405
-0.00375437
-0.00368157
-0.00375431
-0.00368113
-0.00369231
-0.00369192
-0.00369238
-0.00383721
-0.00383716
-0.00383716
-0.00383715
-0.00375335
-0.00368178
-0.00369257
-0.00374108
-0.00375368
-0.00374089
-0.00368142
-0.00368156
-0.00375426
-0.00375271
-0.00369231
-0.003682
-0.00374107
-0.00368203
-0.00374081
-0.00375338
-0.00368149
-0.00368167
-0.00375319
-0.00375417
-0.003754
-0.00394526
-0.00387442
-0.00387426
-0.00394547
-0.00387442
-0.00394549
-0.00394574
-0.00387427
-0.00387385
-0.00394568
-0.00388488
-0.00388484
-0.00388483
-0.00402728
-0.00402721
-0.0040272
-0.00402712
-0.00394478
-0.00387444
-0.00388503
-0.00393277
-0.00387405
-0.00394518
-0.00393256
-0.00387431
-0.00394567
-0.00394412
-0.00388503
-0.00387478
-0.00393278
-0.0038747
-0.00393254
-0.00394482
-0.00387416
-0.00387434
-0.00394464
-0.0039455
-0.00394535
-0.00413362
-0.00406377
-0.00406364
-0.0041338
-0.0040638
-0.00413388
-0.00413413
-0.00406358
-0.00406319
-0.00413405
-0.00407407
-0.00407409
-0.00407401
-0.00421457
-0.00421451
-0.00421455
-0.0042145
-0.00413318
-0.00406376
-0.00407422
-0.00412125
-0.00406334
-0.00413346
-0.00412107
-0.00406363
-0.004134
-0.0041325
-0.00407422
-0.00406404
-0.00412124
-0.00406397
-0.00412107
-0.00413313
-0.00406345
-0.00406357
-0.00413305
-0.00413383
-0.00413363
-0.00431967
-0.00425056
-0.00425044
-0.00431982
-0.00425058
-0.00431979
-0.00432005
-0.00425038
-0.00424998
-0.00431996
-0.00426082
-0.00426084
-0.00426081
-0.00439969
-0.00439968
-0.00439962
-0.00439965
-0.00431936
-0.00425057
-0.00426094
-0.00430745
-0.00425022
-0.0043196
-0.00430728
-0.00425038
-0.00431994
-0.00431859
-0.00426091
-0.00425081
-0.00430738
-0.00425079
-0.00430721
-0.00431916
-0.00425028
-0.00425045
-0.0043192
-0.00431988
-0.00431972
-0.00450361
-0.00443531
-0.00443519
-0.00450377
-0.00443521
-0.00450374
-0.00450396
-0.00443497
-0.00443456
-0.00450388
-0.00444542
-0.00444536
-0.00444542
-0.00458256
-0.00458254
-0.00458249
-0.00458253
-0.00450327
-0.00443519
-0.00444553
-0.00449145
-0.00443491
-0.00450342
-0.00449127
-0.00443502
-0.00450384
-0.00450258
-0.00444546
-0.00443548
-0.00449139
-0.00443551
-0.00449122
-0.00450312
-0.00443501
-0.00443515
-0.00450311
-0.00450386
-0.00450368
-0.00468525
-0.00461768
-0.00461762
-0.00468535
-0.00461776
-0.00468542
-0.00468576
-0.00461752
-0.00461717
-0.00468559
-0.00462777
-0.00462771
-0.00462772
-0.00476344
-0.00476337
-0.00476337
-0.00476332
-0.00468502
-0.00461771
-0.00462787
-0.0046733
-0.00461737
-0.00468526
-0.00467311
-0.00461749
-0.00468551
-0.00468432
-0.00462779
-0.004618
-0.00467319
-0.00461799
-0.00467299
-0.00468485
-0.00461758
-0.00461768
-0.00468469
-0.00468562
-0.00468535
-0.00486525
-0.00479831
-0.00479819
-0.00486544
-0.00479825
-0.00486536
-0.00486571
-0.00479807
-0.00479774
-0.00486556
-0.00480812
-0.00480812
-0.00480807
-0.00494256
-0.00494246
-0.00494254
-0.00494245
-0.00486483
-0.00479817
-0.00480817
-0.00485316
-0.00479777
-0.00486503
-0.00485292
-0.00479806
-0.0048655
-0.00486423
-0.00480818
-0.00479845
-0.00485322
-0.00479845
-0.00485299
-0.00486474
-0.00479792
-0.00479807
-0.00486461
-0.0048653
-0.0048652
-0.00504347
-0.00497713
-0.00497701
-0.00504358
-0.00497704
-0.00504354
-0.00504397
-0.00497689
-0.00497655
-0.00504382
-0.00498684
-0.00498693
-0.00498686
-0.00512038
-0.0051203
-0.0051204
-0.00512037
-0.00504327
-0.00497691
-0.00498695
-0.00503155
-0.0049766
-0.00504337
-0.00503139
-0.00497696
-0.00504385
-0.00504272
-0.00498707
-0.00497734
-0.00503173
-0.00497738
-0.00503154
-0.00504318
-0.0049768
-0.00497703
-0.00504301
-0.00504378
-0.00504364
-0.00522082
-0.00515463
-0.00515456
-0.00522095
-0.00515457
-0.00522083
-0.00522136
-0.00515452
-0.00515416
-0.00522117
-0.00516445
-0.00516456
-0.00516453
-0.00529749
-0.0052974
-0.00529746
-0.00529743
-0.00522067
-0.00515453
-0.00516463
-0.00520899
-0.00515429
-0.0052207
-0.00520887
-0.0051546
-0.00522118
-0.00522009
-0.00516479
-0.00515504
-0.00520912
-0.00515509
-0.00520898
-0.00522056
-0.0051545
-0.00515468
-0.00522042
-0.00522111
-0.00522096
-0.00539762
-0.00533169
-0.00533158
-0.00539772
-0.00533156
-0.00539767
-0.0053981
-0.00533145
-0.00533113
-0.00539791
-0.00534145
-0.00534147
-0.00534145
-0.00547402
-0.00547401
-0.00547396
-0.00547395
-0.00539747
-0.0053315
-0.00534161
-0.00538593
-0.00533122
-0.00539757
-0.00538572
-0.00533145
-0.00539781
-0.00539677
-0.00534161
-0.00533184
-0.00538583
-0.00533191
-0.00538571
-0.00539716
-0.00533134
-0.00533151
-0.00539725
-0.00539778
-0.00539761
-0.0055737
-0.00550794
-0.0055079
-0.00557373
-0.00550797
-0.00557384
-0.0055742
-0.00550776
-0.00550745
-0.00557396
-0.00551791
-0.00551787
-0.00551788
-0.00565005
-0.00565004
-0.00565002
-0.00565004
-0.00557371
-0.00550786
-0.00551816
-0.00556222
-0.00550763
-0.00557366
-0.00556213
-0.00550774
-0.00557394
-0.00557302
-0.00551803
-0.00550813
-0.00556219
-0.00550828
-0.00556202
-0.00557334
-0.0055077
-0.00550789
-0.00557357
-0.00557397
-0.00557385
-0.00574948
-0.00568375
-0.00568376
-0.0057495
-0.00568382
-0.00574954
-0.00574995
-0.00568356
-0.00568329
-0.0057497
-0.00569389
-0.00569384
-0.00569387
-0.00582565
-0.00582571
-0.00582564
-0.00582571
-0.00574958
-0.00568377
-0.00569419
-0.00573816
-0.0056836
-0.00574954
-0.00573806
-0.00568365
-0.00574973
-0.00574884
-0.00569402
-0.00568407
-0.0057381
-0.00568423
-0.00573789
-0.00574917
-0.00568362
-0.00568381
-0.0057494
-0.00574975
-0.0057496
-0.00592476
-0.00585929
-0.00585928
-0.00592477
-0.00585934
-0.00592489
-0.0059252
-0.00585908
-0.00585878
-0.00592498
-0.00586943
-0.00586934
-0.00586942
-0.00600074
-0.00600082
-0.00600067
-0.00600077
-0.00592493
-0.00585934
-0.0058697
-0.00591357
-0.00585915
-0.00592487
-0.00591337
-0.00585912
-0.00592494
-0.00592412
-0.00586956
-0.00585956
-0.00591341
-0.00585972
-0.00591323
-0.0059244
-0.0058591
-0.00585926
-0.00592474
-0.00592506
-0.00592486
-0.00609953
-0.0060343
-0.0060343
-0.00609955
-0.00603436
-0.00609955
-0.0061
-0.00603401
-0.00603371
-0.00609977
-0.00604442
-0.00604431
-0.0060444
-0.00617551
-0.00617547
-0.00617544
-0.00617542
-0.00609965
-0.00603439
-0.00604471
-0.00608837
-0.00603413
-0.00609968
-0.00608817
-0.00603398
-0.00609968
-0.00609891
-0.00604449
-0.00603443
-0.0060882
-0.00603465
-0.00608812
-0.00609917
-0.00603416
-0.00603425
-0.00609959
-0.00609992
-0.00609967
-0.00627389
-0.00620899
-0.00620891
-0.00627376
-0.00620892
-0.00627392
-0.0062747
-0.0062088
-0.0062085
-0.00627445
-0.00621914
-0.00621917
-0.00621916
-0.00635024
-0.0063502
-0.00635008
-0.00635011
-0.00627404
-0.00620885
-0.00621929
-0.0062628
-0.00620866
-0.00627401
-0.00626261
-0.00620877
-0.00627445
-0.00627359
-0.00621927
-0.00620919
-0.00626294
-0.00620937
-0.00626289
-0.00627388
-0.00620878
-0.00620891
-0.00627411
-0.00627444
-0.00627427
-0.00638356
-0.00638336
-0.00638293
-0.00639351
-0.00639372
-0.00639376
-0.00638311
-0.00639342
-0.0063829
-0.00638357
-0.00639399
-0.00638369
-0.00638409
-0.00638318
-0.00638342
-0.00348513
-0.00348522
-0.00355805
-0.00355848
-0.0035586
-0.00348519
-0.00355881
-0.00365721
-0.00358352
-0.00358379
-0.00365702
-0.00365684
-0.00358374
-0.00358361
-0.00365702
-0.00358376
-0.00355741
-0.00349629
-0.00348551
-0.00354582
-0.00355816
-0.00348542
-0.00354576
-0.0035586
-0.00348517
-0.00355879
-0.00348494
-0.00355861
-0.00348513
-0.00355893
-0.00348494
-0.00358427
-0.00359524
-0.00364393
-0.00365616
-0.00358426
-0.00365549
-0.00359488
-0.00358427
-0.00359511
-0.00364391
-0.00365635
-0.00358427
-0.00365548
-0.00359496
-0.00358377
-0.00365702
-0.00358378
-0.00365671
-0.00358378
-0.00365704
-0.00358393
-0.00365671
-0.00348493
-0.00355922
-0.00348512
-0.00355891
-0.00358277
-0.00365705
-0.00365699
-0.00358367
-0.00358393
-0.00365722
-0.00358388
-0.00365708
-0.00358386
-0.00368165
-0.00375407
-0.00368154
-0.00375424
-0.00368155
-0.00368142
-0.00375311
-0.00375393
-0.00375411
-0.00385025
-0.00377849
-0.00385042
-0.00377838
-0.00377733
-0.00385014
-0.00385033
-0.00377844
-0.00377831
-0.00375379
-0.00368167
-0.00375402
-0.0036815
-0.00375266
-0.00368198
-0.00369239
-0.003741
-0.00375335
-0.00374086
-0.00368196
-0.00375266
-0.003682
-0.00369251
-0.00374106
-0.00375334
-0.00374087
-0.00368195
-0.00377832
-0.00385022
-0.00377853
-0.00384995
-0.00377832
-0.00385021
-0.00377849
-0.00384995
-0.00377876
-0.00378941
-0.00384956
-0.00383732
-0.00377887
-0.00378926
-0.00384884
-0.00377876
-0.00378938
-0.00384957
-0.0038373
-0.00377884
-0.00378923
-0.00384886
-0.00368158
-0.00368148
-0.00375319
-0.00375392
-0.00375411
-0.00368158
-0.00375423
-0.00385025
-0.00377846
-0.00377737
-0.00385016
-0.00385027
-0.00377841
-0.00377829
-0.00385037
-0.00377836
-0.00375336
-0.00368171
-0.00369194
-0.00374096
-0.00375368
-0.00374078
-0.00368131
-0.00375438
-0.00368158
-0.00375433
-0.00368114
-0.00375337
-0.00369199
-0.00368172
-0.00374095
-0.00374083
-0.0037537
-0.00368131
-0.00377796
-0.00385047
-0.00377838
-0.0038505
-0.0037782
-0.0037894
-0.00384989
-0.00383731
-0.00377861
-0.00378927
-0.00384954
-0.00377797
-0.00385048
-0.0037784
-0.0038505
-0.00377821
-0.00378941
-0.00383732
-0.00384991
-0.0037893
-0.00377861
-0.00384956
-0.00375434
-0.00368157
-0.00375428
-0.00368116
-0.00375336
-0.00369262
-0.00368181
-0.00374107
-0.00374094
-0.00375372
-0.00368142
-0.00375435
-0.00368159
-0.00375434
-0.00368116
-0.00377817
-0.0037894
-0.00384984
-0.00383731
-0.00377858
-0.00378921
-0.00384951
-0.00377792
-0.00385041
-0.00377834
-0.00385044
-0.00377818
-0.00378936
-0.00383733
-0.00384985
-0.00378924
-0.00377861
-0.00384951
-0.00377793
-0.00385042
-0.00377839
-0.00385045
-0.00368145
-0.00368158
-0.00375318
-0.00375413
-0.00375395
-0.00368166
-0.00375409
-0.00385044
-0.0037784
-0.0037774
-0.00385034
-0.00385017
-0.00377833
-0.00377847
-0.00385028
-0.00377852
-0.00375271
-0.00369238
-0.0036821
-0.00374114
-0.00368204
-0.00374085
-0.00375338
-0.00375387
-0.00368173
-0.00368162
-0.00375408
-0.00375387
-0.00368175
-0.00368162
-0.0037541
-0.00377883
-0.00378948
-0.00383731
-0.00384958
-0.00378923
-0.00377892
-0.00384889
-0.00377883
-0.00378945
-0.0038373
-0.00384954
-0.00378926
-0.00377891
-0.00384887
-0.00377841
-0.00385025
-0.00377857
-0.00384999
-0.00377841
-0.00385023
-0.00377857
-0.00384998
-0.0036816
-0.0037543
-0.00368173
-0.00375413
-0.00377735
-0.00385028
-0.00385013
-0.00377834
-0.00377849
-0.00385038
-0.00377841
-0.00385026
-0.00377854
-0.00387441
-0.00394551
-0.0038743
-0.00394564
-0.00387436
-0.00387423
-0.00394472
-0.0039454
-0.00394555
-0.00404001
-0.00396947
-0.00404015
-0.00396931
-0.00396842
-0.00403993
-0.00404008
-0.00396944
-0.00396928
-0.00394526
-0.00387443
-0.00387428
-0.00394547
-0.00394416
-0.00387477
-0.00388501
-0.00393275
-0.00387468
-0.00394482
-0.00393257
-0.00394417
-0.00387478
-0.00388503
-0.00393277
-0.00387469
-0.00394479
-0.00393261
-0.00396932
-0.00403997
-0.00396949
-0.00403976
-0.00396933
-0.00404
-0.00396951
-0.00403976
-0.00396973
-0.00398026
-0.00403936
-0.00402732
-0.00396984
-0.0039801
-0.00403872
-0.00396974
-0.00398029
-0.00403938
-0.0040273
-0.00396986
-0.00398014
-0.00403871
-0.00387439
-0.00387419
-0.00394473
-0.00394527
-0.00394575
-0.00387426
-0.00394573
-0.00404005
-0.0039695
-0.00396842
-0.00403996
-0.00404007
-0.00396949
-0.0039693
-0.00404014
-0.00396935
-0.00394485
-0.0038745
-0.00388502
-0.00393275
-0.00387411
-0.00394512
-0.00393262
-0.00394575
-0.00387428
-0.00387388
-0.0039457
-0.00394485
-0.00388502
-0.0038745
-0.00393277
-0.00387412
-0.00393262
-0.00394515
-0.00396886
-0.00404018
-0.00396928
-0.00404024
-0.00396915
-0.00398026
-0.00403967
-0.00402739
-0.00396954
-0.00398016
-0.00403939
-0.00396887
-0.0040402
-0.00396931
-0.00404025
-0.00396915
-0.00398025
-0.00402736
-0.00403969
-0.00398015
-0.00396956
-0.0040394
-0.00394571
-0.00387424
-0.00387383
-0.00394572
-0.00394478
-0.00388502
-0.00387443
-0.00393268
-0.00387407
-0.00393257
-0.00394506
-0.00394571
-0.00387422
-0.00387383
-0.00394563
-0.00396907
-0.0039802
-0.00403963
-0.00402728
-0.00396953
-0.00398003
-0.00403928
-0.00396885
-0.00404017
-0.00396932
-0.00404018
-0.00396907
-0.00398015
-0.00402723
-0.00403956
-0.00398006
-0.00396946
-0.00403927
-0.00396884
-0.00404011
-0.00396924
-0.00404017
-0.00387424
-0.00387439
-0.00394474
-0.00394558
-0.00394542
-0.00387444
-0.00394553
-0.00404017
-0.00396934
-0.00396841
-0.0040401
-0.00403991
-0.0039693
-0.00396945
-0.00403999
-0.00396948
-0.00394412
-0.00388497
-0.00387474
-0.00393271
-0.0038747
-0.00393253
-0.00394474
-0.00394522
-0.00387447
-0.00387431
-0.00394549
-0.00394521
-0.00387444
-0.0038743
-0.00394543
-0.00396968
-0.00398022
-0.00402726
-0.0040393
-0.00398
-0.00396982
-0.00403862
-0.00396968
-0.00398018
-0.00402723
-0.00403923
-0.00398006
-0.00396975
-0.00403861
-0.00396928
-0.00403994
-0.0039695
-0.00403966
-0.00396927
-0.00403984
-0.00396942
-0.00403965
-0.00387424
-0.0039456
-0.00387441
-0.00394547
-0.00396833
-0.00403998
-0.00403978
-0.0039692
-0.00396936
-0.00404006
-0.00396926
-0.00403987
-0.0039694
-0.00406377
-0.00413385
-0.00406363
-0.00413402
-0.00406374
-0.00406358
-0.00413312
-0.00413376
-0.00413394
-0.00422711
-0.00415746
-0.00422727
-0.00415735
-0.00415645
-0.00422705
-0.00422722
-0.00415744
-0.00415732
-0.00413362
-0.00406381
-0.00406366
-0.00413384
-0.00413259
-0.00406411
-0.00407421
-0.00412127
-0.00406406
-0.00413318
-0.0041211
-0.00413258
-0.00406411
-0.00407417
-0.00412128
-0.00406405
-0.0041332
-0.00412109
-0.00415731
-0.00422706
-0.00415746
-0.00422689
-0.00415733
-0.00422711
-0.0041575
-0.0042269
-0.00415774
-0.00416814
-0.00422648
-0.00421465
-0.0041578
-0.00416803
-0.00422589
-0.00415773
-0.00416817
-0.00422653
-0.0042146
-0.00415782
-0.004168
-0.0042259
-0.00406376
-0.00406355
-0.00413311
-0.00413378
-0.00413389
-0.0040636
-0.00413395
-0.00422714
-0.00415748
-0.00415645
-0.00422709
-0.0042272
-0.00415745
-0.00415727
-0.00422727
-0.00415729
-0.00413327
-0.00406383
-0.0040743
-0.0041213
-0.00406348
-0.00413351
-0.00412115
-0.00413413
-0.0040636
-0.00406322
-0.00413403
-0.00413328
-0.00407426
-0.00406383
-0.00412129
-0.00406348
-0.00412114
-0.00413351
-0.0041569
-0.00422731
-0.00415732
-0.00422737
-0.00415714
-0.00416814
-0.00422681
-0.00421458
-0.00415755
-0.00416802
-0.00422651
-0.00415691
-0.00422728
-0.0041573
-0.00422737
-0.00415715
-0.00416816
-0.00421465
-0.00422679
-0.00416807
-0.00415753
-0.00422653
-0.00413404
-0.00406357
-0.00406314
-0.00413398
-0.00413317
-0.00407415
-0.0040637
-0.00412119
-0.00406334
-0.00412107
-0.0041334
-0.00413404
-0.00406351
-0.00406314
-0.00413394
-0.00415706
-0.0041681
-0.00422679
-0.00421454
-0.00415748
-0.00416792
-0.00422654
-0.00415683
-0.0042273
-0.00415726
-0.00422735
-0.00415705
-0.00416806
-0.00421457
-0.00422675
-0.00416798
-0.00415743
-0.00422653
-0.00415682
-0.00422723
-0.00415721
-0.00422735
-0.00406358
-0.00406371
-0.00413307
-0.00413392
-0.00413371
-0.00406374
-0.00413379
-0.00422724
-0.00415731
-0.0041564
-0.00422719
-0.00422698
-0.00415728
-0.00415738
-0.00422705
-0.00415739
-0.00413249
-0.00407415
-0.00406398
-0.00412124
-0.00406396
-0.00412105
-0.00413308
-0.00413352
-0.00406374
-0.00406356
-0.00413373
-0.00413352
-0.00406364
-0.00406355
-0.00413369
-0.00415767
-0.00416808
-0.00421455
-0.00422643
-0.0041679
-0.00415775
-0.00422582
-0.00415767
-0.00416812
-0.00421454
-0.00422642
-0.00416795
-0.00415772
-0.00422581
-0.00415725
-0.00422701
-0.0041574
-0.00422683
-0.00415725
-0.00422703
-0.00415737
-0.00422683
-0.00406353
-0.0041339
-0.00406362
-0.00413372
-0.00415639
-0.00422712
-0.00422696
-0.00415718
-0.00415732
-0.00422719
-0.00415723
-0.00422705
-0.00415734
-0.00425056
-0.00431985
-0.00425042
-0.00431993
-0.00425052
-0.00425037
-0.00431913
-0.00431976
-0.00431988
-0.00441211
-0.00434318
-0.00441214
-0.00434295
-0.00434218
-0.00441203
-0.00441211
-0.00434315
-0.00434294
-0.00431967
-0.0042506
-0.00425047
-0.00431979
-0.00431865
-0.00425087
-0.00426094
-0.00430739
-0.00425086
-0.00431921
-0.00430725
-0.00431867
-0.00425091
-0.00426093
-0.00430749
-0.00425087
-0.00431917
-0.00430727
-0.00434308
-0.00441209
-0.00434321
-0.00441193
-0.00434308
-0.00441204
-0.00434318
-0.00441191
-0.00434346
-0.00435376
-0.00441151
-0.00439974
-0.00434351
-0.00435366
-0.00441091
-0.00434348
-0.00435386
-0.00441147
-0.00439975
-0.00434351
-0.00435369
-0.00441092
-0.00425056
-0.00425037
-0.00431918
-0.00431961
-0.0043201
-0.00425043
-0.00432005
-0.00441206
-0.00434315
-0.00434222
-0.004412
-0.0044121
-0.00434315
-0.00434298
-0.00441214
-0.00434301
-0.00431924
-0.00425059
-0.00426088
-0.00430739
-0.0042502
-0.00431948
-0.0043072
-0.00432005
-0.00425036
-0.00425
-0.00431996
-0.00431925
-0.00426095
-0.00425056
-0.00430737
-0.00425021
-0.00430727
-0.00431947
-0.00434251
-0.00441216
-0.00434292
-0.00441222
-0.00434277
-0.00435374
-0.00441171
-0.00439969
-0.00434317
-0.00435356
-0.00441147
-0.00434251
-0.00441218
-0.00434293
-0.00441222
-0.00434277
-0.00435369
-0.00439966
-0.00441173
-0.00435361
-0.00434315
-0.00441147
-0.00432014
-0.0042504
-0.00425001
-0.00432006
-0.00431937
-0.00426093
-0.00425055
-0.00430744
-0.00425023
-0.00430731
-0.00431952
-0.00432014
-0.00425033
-0.00425
-0.00431998
-0.00434287
-0.00435374
-0.00441176
-0.00439971
-0.00434322
-0.00435359
-0.00441159
-0.00434261
-0.00441219
-0.00434301
-0.00441233
-0.00434289
-0.00435379
-0.00439972
-0.00441179
-0.00435367
-0.00434321
-0.0044116
-0.00434261
-0.00441225
-0.00434296
-0.00441234
-0.00425034
-0.00425047
-0.00431909
-0.00431988
-0.00431971
-0.0042505
-0.00431979
-0.00441215
-0.00434296
-0.00434211
-0.00441213
-0.00441196
-0.00434294
-0.00434309
-0.00441202
-0.00434311
-0.00431859
-0.00426085
-0.00425083
-0.00430744
-0.0042508
-0.00430721
-0.00431917
-0.00431959
-0.00425052
-0.00425042
-0.00431976
-0.0043196
-0.00425054
-0.00425042
-0.00431978
-0.00434341
-0.00435369
-0.00439965
-0.00441142
-0.00435355
-0.00434345
-0.00441087
-0.00434341
-0.00435378
-0.00439963
-0.00441144
-0.00435358
-0.00434347
-0.00441087
-0.00434301
-0.004412
-0.00434314
-0.00441182
-0.00434301
-0.00441201
-0.00434316
-0.00441182
-0.00425035
-0.00431995
-0.0042505
-0.0043198
-0.00434223
-0.00441215
-0.00441196
-0.00434293
-0.00434309
-0.0044122
-0.00434297
-0.00441203
-0.00434312
-0.00443527
-0.00450378
-0.00443502
-0.00450387
-0.00443522
-0.004435
-0.00450306
-0.00450371
-0.00450383
-0.00459481
-0.00452679
-0.00459499
-0.00452662
-0.00452578
-0.00459477
-0.00459496
-0.00452677
-0.0045266
-0.0045036
-0.00443526
-0.00443521
-0.00450374
-0.0045026
-0.00443558
-0.00444551
-0.00449143
-0.00443554
-0.00450318
-0.00449125
-0.00450259
-0.00443553
-0.00444549
-0.00449143
-0.00443554
-0.00450313
-0.00449125
-0.0045267
-0.0045948
-0.00452683
-0.00459467
-0.0045267
-0.00459488
-0.00452683
-0.00459467
-0.00452704
-0.00453722
-0.00459426
-0.00458254
-0.00452712
-0.00453704
-0.00459372
-0.00452703
-0.00453719
-0.00459431
-0.0045825
-0.00452708
-0.00453704
-0.00459372
-0.00443518
-0.00443497
-0.00450305
-0.00450367
-0.00450377
-0.004435
-0.00450382
-0.0045949
-0.00452677
-0.00452576
-0.00459486
-0.00459495
-0.00452675
-0.00452655
-0.00459499
-0.00452657
-0.00450318
-0.00443519
-0.00444552
-0.00449144
-0.00443483
-0.00450341
-0.00449129
-0.00450397
-0.00443499
-0.00443458
-0.00450387
-0.00450319
-0.00444545
-0.00443518
-0.00449138
-0.00443483
-0.00449126
-0.0045034
-0.00452615
-0.00459503
-0.00452658
-0.00459513
-0.00452637
-0.00453721
-0.00459457
-0.00458257
-0.00452677
-0.00453707
-0.00459433
-0.00452616
-0.00459497
-0.00452655
-0.00459512
-0.00452637
-0.00453718
-0.00458258
-0.00459456
-0.00453706
-0.00452675
-0.00459435
-0.00450404
-0.00443499
-0.00443469
-0.00450387
-0.00450328
-0.00444551
-0.00443526
-0.00449152
-0.00443494
-0.00449132
-0.00450348
-0.00450406
-0.00443506
-0.0044347
-0.00450395
-0.00452642
-0.00453721
-0.0045946
-0.00458257
-0.00452677
-0.00453704
-0.0045944
-0.00452623