/*--------------------------------*- C++ -*----------------------------------*\
| =========                 |                                                 |
| \\      /  F ield         | OpenFOAM: The Open Source CFD Toolbox           |
|  \\    /   O peration     | Version:  2206                                  |
|   \\  /    A nd           | Website:  www.openfoam.com                      |
|    \\/     M anipulation  |                                                 |
\*---------------------------------------------------------------------------*/
FoamFile
{
    version     2.0;
    format      ascii;
    arch        "LSB;label=32;scalar=64";
    class       volVectorField;
    location    "149";
    object      wallShearStress;
}
// * * * * * * * * * * * * * * * * * * * * * * * * * * * * * * * * * * * * * //

dimensions      [0 2 -2 0 0 0 0];

internalField   uniform (0 0 0);

boundaryField
{
    topPatch
    {
        type            calculated;
        value           nonuniform List<vector> 0();
    }
    wall
    {
        type            calculated;
        value           nonuniform List<vector> 
7718
(
(7.09869e-09 -8.32076e-09 -0.000109489)
(1.03322e-09 1.94321e-09 -0.000109652)
(2.65833e-09 -7.15332e-09 -0.000103043)
(-3.04138e-09 -4.07086e-09 -0.000103114)
(9.69443e-10 -2.87992e-09 -0.000109558)
(-3.30912e-09 -1.89376e-08 -0.00010971)
(1.99609e-09 -7.40433e-10 -0.000105031)
(2.52015e-09 -7.32999e-09 -0.000106513)
(-8.42107e-10 -1.73696e-08 -0.000105074)
(2.04831e-09 -1.1938e-08 -0.000106527)
(-1.76185e-08 7.03753e-09 -0.000109386)
(7.99548e-09 -9.09991e-09 -0.000109465)
(-1.26541e-08 2.43207e-09 -0.000102926)
(3.01266e-09 -9.8945e-09 -0.000103023)
(-3.50697e-09 -5.63466e-09 -0.000103091)
(-9.69741e-11 -4.79879e-09 -0.000109531)
(5.70058e-09 -1.29642e-08 -0.000109258)
(2.70251e-09 -2.48756e-08 -0.000104769)
(2.33886e-09 -8.38651e-09 -0.000106496)
(1.62006e-09 -1.45854e-09 -0.000105013)
(-8.74669e-10 -1.51602e-08 -0.000106228)
(7.21593e-09 -1.43324e-08 -0.000102849)
(-2.34561e-10 4.40236e-09 -0.000104807)
(1.33284e-09 -1.29771e-08 -0.000106508)
(-1.40076e-09 -1.90463e-08 -0.000105053)
(-1.8949e-09 -6.4291e-09 -0.000106242)
(1.68517e-09 3.66677e-10 -0.000102913)
(1.78015e-10 1.57806e-09 -0.000109331)
(1.68094e-08 8.10828e-09 -0.000103313)
(2.12769e-08 1.05158e-08 -0.00010927)
(-8.93735e-09 7.00413e-09 -0.000108491)
(-6.72359e-09 5.9962e-09 -0.000103434)
(1.48075e-08 -8.64085e-09 -0.000103316)
(6.49893e-09 -2.93342e-09 -0.000108517)
(1.53276e-09 -2.61566e-09 -0.000103424)
(1.27511e-08 -1.52625e-08 -0.000103262)
(2.58922e-08 -1.98995e-08 -0.000108348)
(9.49654e-09 -1.17127e-08 -0.000108329)
(7.43658e-09 -2.81037e-08 -0.000109415)
(7.66373e-10 1.70147e-09 -0.000109629)
(2.2971e-09 9.71024e-09 -0.000109473)
(-4.80268e-09 -2.15995e-08 -0.000109684)
(5.43239e-09 6.05292e-09 -0.000103312)
(4.83948e-09 5.03339e-09 -0.000108386)
(1.64894e-08 1.29216e-08 -0.000108378)
(-3.68598e-09 7.65345e-09 -0.00011064)
(-3.47042e-09 -9.01536e-09 -0.000110188)
(-7.60549e-09 -7.29201e-09 -0.000103674)
(3.35709e-08 -1.16633e-08 -0.00010351)
(1.69468e-09 -6.92352e-09 -0.000110002)
(-3.71666e-08 -2.02248e-08 -0.00010976)
(-7.31927e-09 -1.35992e-09 -0.000103694)
(3.70078e-10 -1.21604e-09 -0.000103361)
(-5.85568e-09 4.83173e-10 -0.000110052)
(-1.79469e-09 2.55976e-09 -0.000109682)
(1.16491e-08 -1.32605e-08 -0.000103232)
(4.39479e-08 -1.47506e-08 -0.000103105)
(-1.33738e-08 -1.47961e-08 -0.000109515)
(-4.89589e-08 -2.57091e-08 -0.000109321)
(-1.14919e-08 1.56331e-08 -0.000103242)
(-7.26505e-09 1.78337e-08 -0.000102949)
(-1.22137e-08 -1.3319e-08 -0.000109569)
(-7.70531e-09 -1.11405e-08 -0.000109256)
(1.4654e-08 -1.318e-08 -0.000102895)
(4.86562e-08 -1.59382e-08 -0.000102795)
(-1.49311e-08 -1.38438e-08 -0.000109195)
(-4.36816e-08 -2.25123e-08 -0.000109053)
(-1.33514e-08 2.32603e-08 -0.000102926)
(-7.02359e-09 1.87488e-08 -0.000102668)
(-1.30392e-08 -1.76032e-08 -0.000109265)
(-8.22089e-09 -1.21449e-08 -0.000108997)
(1.18458e-08 -1.04805e-08 -0.000102642)
(3.1917e-08 -9.38968e-09 -0.000102557)
(-5.06791e-09 -7.517e-09 -0.000108986)
(-3.1385e-08 -1.44354e-08 -0.000108852)
(-1.31488e-08 2.35454e-08 -0.000102703)
(-7.05227e-09 2.00863e-08 -0.000102469)
(-1.12093e-08 -1.68284e-08 -0.000109076)
(-8.15735e-09 -1.38977e-08 -0.000108827)
(-1.33876e-08 -7.8688e-10 -0.000102442)
(1.70787e-08 -3.72116e-09 -0.00010237)
(1.64417e-08 4.78642e-09 -0.000108811)
(-9.90196e-09 -4.17077e-09 -0.000108689)
(-1.45456e-08 3.05949e-08 -0.000102545)
(-8.57669e-09 2.27369e-08 -0.000102314)
(-1.3541e-08 -2.13848e-08 -0.000108937)
(-7.89648e-09 -1.20002e-08 -0.000108694)
(-1.63983e-08 1.3449e-09 -0.000102306)
(1.25553e-08 -7.14213e-10 -0.000102264)
(1.64229e-08 4.57829e-09 -0.000108694)
(-1.48931e-08 -5.05489e-09 -0.000108609)
(-3.42937e-09 2.26604e-09 -0.000102416)
(7.66936e-09 -1.77087e-08 -0.000102223)
(-7.21784e-09 -1.13033e-08 -0.000108829)
(1.60048e-09 2.56008e-09 -0.000108597)
(-8.95149e-09 -1.30671e-09 -0.000102239)
(2.64949e-08 -7.07141e-09 -0.000102202)
(1.81901e-08 7.75474e-09 -0.000108679)
(-1.12805e-08 -4.1347e-09 -0.000108597)
(3.29031e-09 -1.17133e-08 -0.000102389)
(4.16215e-09 -7.69632e-09 -0.00010219)
(7.77172e-09 1.41792e-08 -0.000108752)
(1.14619e-08 2.22204e-08 -0.000108529)
(-7.45245e-09 -8.24543e-10 -0.000102233)
(1.99396e-08 -3.34853e-09 -0.000102235)
(2.12493e-08 9.1028e-09 -0.000108683)
(-8.1189e-09 -8.01596e-10 -0.000108626)
(-4.85879e-09 1.07573e-08 -0.000102371)
(-3.30567e-10 6.1543e-09 -0.000102202)
(2.64183e-10 -5.60775e-11 -0.000108758)
(-3.1535e-09 -6.09017e-09 -0.000108585)
(-1.15937e-08 1.67717e-09 -0.000102295)
(2.46205e-08 -5.42065e-09 -0.000102284)
(2.57935e-08 1.23378e-08 -0.000108749)
(-7.40969e-09 -9.78546e-11 -0.000108702)
(-2.99893e-09 5.93706e-09 -0.000102428)
(1.867e-09 -6.52567e-10 -0.000102268)
(-7.85062e-09 -1.65206e-08 -0.000108854)
(-2.83595e-09 -7.19492e-09 -0.00010868)
(-2.6413e-09 -2.42172e-09 -0.000102341)
(2.55791e-08 -6.31547e-09 -0.000102345)
(2.38104e-08 1.15732e-08 -0.000108806)
(-1.0315e-08 -2.68437e-09 -0.000108726)
(-2.07875e-09 5.25045e-09 -0.000102504)
(1.47727e-09 -2.68887e-10 -0.000102334)
(1.68622e-10 -2.66961e-09 -0.000108944)
(6.01578e-09 9.62938e-09 -0.000108767)
(-9.9557e-09 1.08082e-09 -0.000102422)
(1.48388e-08 -1.29695e-09 -0.000102431)
(1.44183e-08 6.1824e-09 -0.000108845)
(-2.11507e-08 -8.72611e-09 -0.000108802)
(-9.97703e-10 2.5872e-09 -0.000102557)
(5.09586e-09 -8.70932e-09 -0.0001024)
(4.24575e-09 5.35077e-09 -0.000109029)
(5.09989e-09 7.99337e-09 -0.000108851)
(-2.21471e-08 6.09699e-09 -0.000102512)
(6.64981e-09 1.51299e-09 -0.000102515)
(1.74269e-08 7.95852e-09 -0.000108946)
(-1.11461e-08 -2.46931e-09 -0.000108903)
(6.91922e-10 -1.4305e-09 -0.000102645)
(3.46867e-09 -5.16063e-09 -0.000102487)
(6.42856e-10 -8.94353e-10 -0.000109119)
(1.8897e-09 3.57776e-09 -0.000108939)
(-1.69874e-08 3.78624e-09 -0.000102561)
(1.48486e-08 -1.10473e-09 -0.000102583)
(1.25163e-08 4.78304e-09 -0.000109022)
(-2.86457e-08 -1.27659e-08 -0.000108997)
(-2.13848e-09 4.62557e-09 -0.000102707)
(2.18268e-09 -2.9038e-09 -0.00010255)
(8.74362e-10 -7.12044e-10 -0.000109194)
(3.6533e-09 6.06361e-09 -0.00010902)
(-1.44587e-08 2.06921e-09 -0.000102611)
(1.87331e-08 -2.10916e-09 -0.000102678)
(7.04612e-09 1.4672e-09 -0.000109072)
(-2.18718e-08 -7.37418e-09 -0.000109086)
(-3.46431e-09 8.83643e-09 -0.000102776)
(2.33717e-09 -1.5811e-09 -0.000102639)
(3.67484e-09 4.11971e-09 -0.000109282)
(3.18206e-09 4.66264e-09 -0.000109129)
(3.57168e-10 -5.54894e-09 -0.000102656)
(3.43698e-08 -6.74261e-09 -0.000102764)
(2.03618e-08 7.30451e-09 -0.000109119)
(-1.97028e-08 -6.16103e-09 -0.00010917)
(-1.96044e-09 3.31789e-09 -0.000102854)
(8.88933e-09 -1.63874e-08 -0.000102728)
(-6.7109e-10 -3.02198e-09 -0.000109374)
(1.03725e-09 5.00788e-11 -0.000109215)
(3.62897e-08 1.75549e-08 -0.000109319)
(4.6029e-09 -1.7389e-08 -0.000102915)
(-1.87928e-09 -3.57018e-10 -0.000109425)
(-1.96719e-08 1.57194e-09 -0.000110625)
(1.58924e-08 8.72539e-09 -0.000110376)
(-2.29439e-09 4.69689e-09 -0.000109971)
(-1.2865e-08 -1.5492e-08 -0.000110308)
(1.67717e-08 1.04236e-08 -0.000110087)
(-2.80377e-08 -6.37977e-09 -0.000110311)
(-1.84817e-08 5.10962e-09 -0.000104233)
(1.81962e-08 5.07821e-09 -0.000104072)
(1.68864e-08 4.70262e-09 -0.000104279)
(-2.20762e-08 6.91385e-09 -0.000104076)
(1.64893e-08 5.87257e-09 -0.000103797)
(-2.50704e-08 4.11896e-10 -0.000103952)
(-2.98157e-08 1.03863e-08 -0.000103803)
(1.24678e-08 5.5981e-09 -0.000103981)
(3.35446e-09 6.69262e-09 -0.000110658)
(-3.34331e-09 1.40045e-08 -0.000110256)
(2.07493e-08 -1.24081e-09 -0.000110658)
(-2.72097e-08 1.56391e-08 -0.00011036)
(2.14924e-09 2.13982e-09 -0.000109923)
(7.649e-09 7.82276e-11 -0.000110332)
(-2.99265e-08 1.6994e-08 -0.000110074)
(1.06305e-08 2.63199e-09 -0.00011032)
(-1.01014e-08 -3.20348e-09 -0.000110022)
(2.93358e-08 -1.62869e-08 -0.000109787)
(-6.47622e-09 5.48556e-10 -0.000110038)
(-1.92931e-09 -1.94087e-09 -0.000109668)
(4.12897e-08 -2.28403e-08 -0.000109556)
(1.8602e-10 -7.96552e-09 -0.000109766)
(-6.18454e-09 6.24035e-09 -0.000109427)
(-8.40078e-09 5.90061e-09 -0.000109777)
(1.54676e-09 -8.96036e-09 -0.000103668)
(-3.72321e-08 -1.25526e-08 -0.000103497)
(4.39131e-08 -1.52066e-08 -0.000103294)
(4.86139e-09 -1.1088e-08 -0.000103437)
(-4.87555e-08 -1.71569e-08 -0.000103272)
(-6.46199e-09 -1.14914e-08 -0.000103422)
(5.27446e-09 -1.5871e-09 -0.000110077)
(2.12005e-09 -1.49663e-09 -0.000109715)
(-4.78055e-08 -2.62103e-08 -0.000109527)
(-3.21544e-09 -9.33012e-09 -0.000109741)
(7.19298e-09 9.06644e-09 -0.000109495)
(1.02784e-08 9.75048e-09 -0.000109827)
(-8.74021e-09 -1.79085e-09 -0.000103711)
(-9.9338e-10 -7.62365e-10 -0.000103379)
(-4.57077e-09 9.94371e-09 -0.000103137)
(-8.28089e-09 5.29838e-09 -0.000103455)
(-5.55827e-09 -1.19125e-08 -0.000103161)
(-9.1083e-09 -7.06123e-09 -0.000103476)
(6.85821e-09 -4.45389e-10 -0.000103745)
(9.83884e-10 7.298e-10 -0.000103419)
(9.22654e-09 -4.66294e-09 -0.000103706)
(3.73195e-09 -7.20079e-09 -0.000103374)
(5.69185e-09 1.35376e-08 -0.000103211)
(8.92086e-09 7.3021e-09 -0.000103515)
(6.4755e-09 -1.48926e-08 -0.000103169)
(1.17777e-08 -1.3322e-08 -0.000103472)
(-1.60545e-08 -3.64932e-11 -0.000110033)
(2.36084e-08 1.35996e-08 -0.000109791)
(-6.31994e-09 -6.39623e-09 -0.000109445)
(-8.48083e-09 -5.36576e-09 -0.000109794)
(3.8555e-08 2.12326e-08 -0.000109556)
(-5.43272e-09 5.0704e-09 -0.000109768)
(-1.55796e-08 4.26332e-09 -0.000103688)
(2.67179e-08 8.69553e-09 -0.00010352)
(2.42865e-09 8.85277e-09 -0.000103712)
(-3.39313e-08 1.13429e-08 -0.000103541)
(4.39128e-08 1.56698e-08 -0.000103298)
(-1.63722e-09 8.56958e-09 -0.000103444)
(-4.25577e-08 1.51039e-08 -0.00010332)
(-2.88933e-09 1.01462e-08 -0.000103466)
(8.88251e-09 -5.90036e-09 -0.000110025)
(5.70099e-09 -4.71941e-09 -0.000109661)
(1.96291e-09 7.50745e-09 -0.000110032)
(-3.24793e-08 1.78406e-08 -0.000109794)
(9.04519e-09 -1.30803e-08 -0.000109444)
(1.26873e-08 -1.34172e-08 -0.000109775)
(-3.63256e-08 1.98746e-08 -0.000109567)
(4.90854e-10 7.38212e-09 -0.000109773)
(1.06973e-08 -1.29817e-08 -0.000109547)
(4.53026e-08 -2.42738e-08 -0.000109361)
(-1.26378e-08 1.36597e-08 -0.000109547)
(-9.11068e-09 1.37187e-08 -0.000109234)
(4.67809e-08 -2.48855e-08 -0.000109199)
(1.30237e-08 -1.33346e-08 -0.000109366)
(-9.71915e-09 1.52581e-08 -0.000109089)
(-1.50211e-08 2.03352e-08 -0.000109375)
(-1.81593e-08 -1.60262e-08 -0.000103203)
(-5.12976e-08 -1.77723e-08 -0.000103066)
(4.5794e-08 -1.52894e-08 -0.000102939)
(1.2252e-08 -1.28422e-08 -0.000103051)
(-5.33962e-08 -1.86297e-08 -0.000102905)
(-2.11594e-08 -1.63427e-08 -0.00010302)
(1.58615e-08 2.10919e-08 -0.00010962)
(1.63527e-08 2.46804e-08 -0.000109312)
(-5.09254e-08 -2.68841e-08 -0.000109174)
(-1.79112e-08 -1.60788e-08 -0.000109341)
(1.17707e-08 1.90003e-08 -0.000109175)
(2.0191e-08 2.93067e-08 -0.000109442)
(-1.25108e-08 -1.72864e-08 -0.000103268)
(-7.28845e-09 -1.77615e-08 -0.000102979)
(-7.76962e-09 1.96697e-08 -0.000102798)
(-1.39899e-08 2.27677e-08 -0.000103068)
(-8.14093e-09 -1.95573e-08 -0.000102835)
(-1.36035e-08 -2.21739e-08 -0.000103101)
(1.29982e-08 1.93236e-08 -0.000103318)
(1.15553e-08 2.82737e-08 -0.000103033)
(1.2711e-08 -1.86899e-08 -0.00010328)
(5.83785e-09 -1.44406e-08 -0.000102997)
(9.74572e-09 2.50334e-08 -0.000102892)
(1.75426e-08 3.1309e-08 -0.000103147)
(4.87737e-09 -1.24472e-08 -0.000102855)
(1.18757e-08 -1.82679e-08 -0.000103119)
(7.99018e-09 1.20146e-08 -0.000109546)
(4.6652e-08 2.50058e-08 -0.00010937)
(-7.95041e-09 -1.15831e-08 -0.000109113)
(-1.29239e-08 -1.62807e-08 -0.000109398)
(5.35523e-08 2.83342e-08 -0.000109235)
(1.51754e-08 1.4673e-08 -0.00010938)
(1.36911e-08 1.41096e-08 -0.000103233)
(5.30285e-08 1.85025e-08 -0.000103113)
(-1.13259e-08 1.32306e-08 -0.000103258)
(-4.90783e-08 1.64323e-08 -0.000103139)
(5.85659e-08 2.02812e-08 -0.000102971)
(2.20216e-08 1.69685e-08 -0.000103064)
(-4.63853e-08 1.53507e-08 -0.000102992)
(-1.69857e-08 1.49999e-08 -0.00010309)
(1.53878e-08 -2.03912e-08 -0.000109572)
(8.94839e-09 -1.33376e-08 -0.000109269)
(-4.44926e-09 9.47719e-09 -0.00010956)
(-4.35001e-08 2.33795e-08 -0.000109388)
(5.40413e-09 -7.70683e-09 -0.000109131)
(1.37439e-08 -1.83331e-08 -0.00010941)
(-4.65873e-08 2.38539e-08 -0.000109253)
(-1.18029e-08 1.28062e-08 -0.000109397)
(1.53955e-08 -1.39597e-08 -0.000109211)
(4.99985e-08 -2.58947e-08 -0.000109063)
(-1.44584e-08 2.09455e-08 -0.000109237)
(-8.63059e-09 1.27825e-08 -0.000108965)
(4.56829e-08 -2.28345e-08 -0.000108955)
(1.78115e-08 -1.45826e-08 -0.000109088)
(-7.83124e-09 1.20342e-08 -0.000108866)
(-1.25079e-08 1.80557e-08 -0.000109125)
(-1.9089e-08 -1.49516e-08 -0.000102864)
(-4.72546e-08 -1.58321e-08 -0.000102771)
(4.64011e-08 -1.4466e-08 -0.000102671)
(1.79447e-08 -1.36438e-08 -0.00010276)
(-4.27741e-08 -1.36765e-08 -0.000102662)
(-1.38567e-08 -1.2485e-08 -0.000102742)
(1.6807e-08 2.5792e-08 -0.000109329)
(1.07233e-08 1.81166e-08 -0.000109081)
(-4.20889e-08 -2.14383e-08 -0.000108954)
(-7.12797e-09 -8.93947e-09 -0.000109086)
(7.20934e-09 1.18327e-08 -0.000108991)
(1.64246e-08 2.64081e-08 -0.000109242)
(-1.40162e-08 -2.29332e-08 -0.000102965)
(-6.50318e-09 -1.67123e-08 -0.000102713)
(-7.21689e-09 2.06101e-08 -0.00010256)
(-1.3487e-08 2.35638e-08 -0.000102802)
(-5.5374e-09 -1.54926e-08 -0.000102613)
(-1.2185e-08 -2.02788e-08 -0.000102853)
(1.53693e-08 2.80699e-08 -0.000103024)
(7.63002e-09 2.23823e-08 -0.00010279)
(1.04226e-08 -1.6223e-08 -0.000102988)
(3.29628e-09 -1.15899e-08 -0.000102743)
(7.17816e-09 2.01637e-08 -0.000102689)
(1.395e-08 2.7526e-08 -0.000102929)
(1.63037e-09 -6.55586e-09 -0.000102637)
(9.92367e-09 -1.53533e-08 -0.000102881)
(2.21241e-08 1.76142e-08 -0.000109255)
(5.29835e-08 2.71296e-08 -0.000109124)
(-6.84638e-09 -1.12598e-08 -0.000108908)
(-1.186e-08 -1.7002e-08 -0.000109161)
(4.25556e-08 2.09898e-08 -0.000109021)
(1.74889e-08 1.41115e-08 -0.000109152)
(2.57855e-08 1.728e-08 -0.000102932)
(5.20072e-08 1.68173e-08 -0.00010285)
(-1.15855e-08 1.14777e-08 -0.000102952)
(-3.85563e-08 1.15004e-08 -0.000102859)
(4.01193e-08 1.20522e-08 -0.000102734)
(1.62646e-08 1.30123e-08 -0.000102817)
(-3.41147e-08 1.03204e-08 -0.000102727)
(-4.74162e-09 8.50338e-09 -0.000102823)
(1.0188e-08 -1.35551e-08 -0.000109283)
(4.05553e-09 -4.95799e-09 -0.000109022)
(-1.27308e-08 1.19078e-08 -0.000109272)
(-4.12011e-08 2.10061e-08 -0.00010913)
(1.83766e-09 -1.34881e-09 -0.000108923)
(8.68915e-09 -1.13591e-08 -0.000109183)
(-3.37847e-08 1.67944e-08 -0.000109003)
(-5.86693e-09 8.00554e-09 -0.000109152)
(1.06124e-08 -1.05807e-08 -0.000108984)
(3.12005e-08 -1.50686e-08 -0.000108858)
(-1.26402e-08 1.90225e-08 -0.000109031)
(-9.94594e-09 1.69908e-08 -0.000108782)
(1.68771e-08 -8.04745e-09 -0.000108768)
(-5.54453e-09 -1.3812e-09 -0.000108895)
(-1.30091e-08 2.30527e-08 -0.000108709)
(-1.47756e-08 2.48483e-08 -0.000108956)
(-8.55475e-09 -9.96307e-09 -0.000102635)
(-2.8183e-08 -7.52221e-09 -0.000102557)
(1.99185e-08 -4.72796e-09 -0.000102457)
(-2.5096e-09 -5.1256e-09 -0.000102535)
(-1.71522e-08 -3.49111e-09 -0.000102462)
(4.95833e-09 -3.94143e-09 -0.000102543)
(1.29208e-08 1.96898e-08 -0.000109156)
(8.5634e-09 1.23243e-08 -0.00010891)
(-2.1316e-08 -1.02349e-08 -0.000108768)
(2.37407e-09 -2.76017e-09 -0.000108902)
(1.97602e-09 2.50781e-09 -0.000108839)
(1.07444e-08 1.52741e-08 -0.00010907)
(-1.08477e-08 -1.89692e-08 -0.000102758)
(-6.76556e-09 -1.9257e-08 -0.000102524)
(-9.55752e-09 2.59579e-08 -0.00010239)
(-1.34381e-08 2.63207e-08 -0.000102619)
(-9.18594e-09 -2.43487e-08 -0.000102447)
(-1.34035e-08 -2.62144e-08 -0.000102676)
(1.22637e-08 2.22709e-08 -0.000102831)
(7.37904e-09 1.87533e-08 -0.000102595)
(6.85462e-09 -9.00997e-09 -0.000102778)
(7.4242e-10 -2.40739e-09 -0.000102532)
(1.42727e-09 4.93597e-09 -0.000102516)
(1.14291e-08 1.96827e-08 -0.000102738)
(2.58054e-09 -6.41811e-09 -0.000102439)
(6.54469e-09 -8.22511e-09 -0.00010268)
(7.32017e-09 8.97176e-09 -0.00010905)
(3.62117e-08 1.78302e-08 -0.000108921)
(-1.02198e-08 -1.68381e-08 -0.000108759)
(-1.2886e-08 -2.08198e-08 -0.000109002)
(3.18425e-08 1.59116e-08 -0.000108835)
(2.22129e-09 5.48172e-09 -0.000108958)
(5.05418e-09 8.07575e-09 -0.000102703)
(3.47704e-08 1.02089e-08 -0.000102622)
(-2.98976e-10 6.60644e-09 -0.000102697)
(-3.08239e-08 8.96443e-09 -0.000102614)
(3.31481e-08 9.60031e-09 -0.000102525)
(2.53397e-09 7.10733e-09 -0.0001026)
(-3.18345e-08 9.52529e-09 -0.000102519)
(9.77525e-10 6.0643e-09 -0.000102593)
(5.86371e-09 -6.7659e-09 -0.000109086)
(6.82881e-10 1.07602e-09 -0.000108825)
(1.06552e-09 4.36831e-09 -0.000109029)
(-3.01153e-08 1.48961e-08 -0.000108892)
(1.50118e-09 -2.32994e-10 -0.000108736)
(5.59154e-09 -6.26368e-09 -0.000108994)
(-3.00427e-08 1.48338e-08 -0.000108798)
(3.40895e-09 2.82133e-09 -0.000108927)
(-1.65311e-08 4.22527e-09 -0.000108807)
(1.53331e-08 -7.44842e-09 -0.000108683)
(-1.77211e-08 2.97443e-08 -0.000108883)
(-1.15784e-08 1.9746e-08 -0.000108639)
(1.52547e-08 -7.31314e-09 -0.000108619)
(-1.63509e-08 4.08379e-09 -0.000108731)
(-1.33044e-09 1.72886e-10 -0.000108584)
(-1.36295e-08 2.17921e-08 -0.000108819)
(1.77596e-08 1.30922e-09 -0.000102446)
(-1.13827e-08 -1.13547e-09 -0.000102376)
(1.60346e-08 -3.10226e-09 -0.000102304)
(-1.35942e-08 -7.61775e-10 -0.000102362)
(-2.53797e-08 -6.77931e-09 -0.000102317)
(1.74281e-08 9.08954e-10 -0.000102369)
(5.92007e-09 8.43131e-09 -0.000109013)
(-2.89206e-10 -1.89178e-09 -0.000108771)
(-1.80876e-08 -8.48632e-09 -0.000108637)
(2.43492e-08 8.94444e-09 -0.000108741)
(-1.53285e-09 -4.98292e-09 -0.000108696)
(4.99071e-09 6.26021e-09 -0.000108945)
(-1.35429e-08 -2.7327e-08 -0.000102602)
(-6.08175e-09 -1.60382e-08 -0.000102369)
(-1.46083e-09 4.43981e-09 -0.000102247)
(-1.26388e-08 2.52915e-08 -0.000102471)
(-1.0883e-09 -2.83473e-09 -0.000102305)
(-1.05208e-08 -1.79345e-08 -0.000102528)
(5.76275e-09 7.18461e-09 -0.000102669)
(-1.64482e-09 -2.04824e-09 -0.000102443)
(7.72804e-09 -1.12192e-08 -0.000102593)
(2.09971e-09 -6.06897e-09 -0.000102363)
(-1.8618e-09 -4.29975e-09 -0.000102369)
(3.96893e-09 2.90557e-09 -0.000102598)
(1.33988e-09 -3.82936e-09 -0.000102308)
(7.27812e-09 -1.1799e-08 -0.000102526)
(-2.43366e-09 2.79378e-09 -0.000108877)
(2.48953e-08 1.171e-08 -0.000108762)
(-4.97739e-09 -7.58905e-09 -0.000108641)
(-1.08828e-08 -1.63958e-08 -0.000108877)
(1.53956e-08 7.20107e-09 -0.000108703)
(-1.0735e-08 -1.60511e-09 -0.000108811)
(-4.48383e-10 5.70853e-09 -0.000102508)
(2.68162e-08 7.2347e-09 -0.000102442)
(7.09698e-10 5.44627e-09 -0.000102503)
(-2.9078e-08 7.92298e-09 -0.000102434)
(2.0283e-08 4.80348e-09 -0.000102373)
(-6.43696e-09 3.00998e-09 -0.000102433)
(-2.36532e-08 5.79119e-09 -0.000102355)
(3.81557e-09 4.18403e-09 -0.000102422)
(6.30872e-09 -7.4771e-09 -0.00010891)
(2.24117e-09 -2.19193e-09 -0.000108664)
(3.48126e-09 2.3797e-09 -0.000108838)
(-2.85133e-08 1.39214e-08 -0.000108718)
(4.77483e-10 1.39271e-09 -0.000108613)
(6.57306e-09 -9.28433e-09 -0.000108847)
(-2.69386e-08 1.36618e-08 -0.000108649)
(5.66166e-09 1.12321e-09 -0.000108764)
(-1.75723e-08 6.7451e-09 -0.000108675)
(1.10892e-08 -3.85471e-09 -0.000108582)
(-7.01858e-10 -6.85113e-10 -0.000108774)
(1.11419e-08 -1.99088e-08 -0.000108565)
(1.14262e-08 -4.67768e-09 -0.000108553)
(-2.21382e-08 9.18132e-09 -0.000108647)
(9.14534e-09 -1.72242e-08 -0.000108545)
(8.32368e-09 -1.61759e-08 -0.000108763)
(3.16011e-09 -4.0459e-09 -0.000102317)
(-2.48235e-08 -5.85407e-09 -0.000102284)
(1.96739e-08 -4.29477e-09 -0.000102228)
(-1.74565e-08 2.27225e-09 -0.000102271)
(-2.38025e-08 -5.79327e-09 -0.000102276)
(4.66986e-09 -2.76735e-09 -0.000102302)
(3.43344e-09 4.50931e-09 -0.000108878)
(1.56712e-09 1.43847e-09 -0.000108647)
(-1.70509e-08 -6.97016e-09 -0.00010861)
(1.6551e-08 5.89133e-09 -0.00010869)
(-8.03534e-11 -7.5093e-10 -0.000108613)
(3.93912e-09 5.54942e-09 -0.000108826)
(-3.61481e-09 -3.83427e-09 -0.000102471)
(5.60722e-09 1.05209e-08 -0.000102256)
(8.61853e-09 -1.90951e-08 -0.000102211)
(4.4314e-09 -1.52596e-08 -0.000102402)
(8.75449e-09 1.91225e-08 -0.000102218)
(1.89833e-09 8.20248e-09 -0.000102428)
(2.05258e-09 -5.01176e-10 -0.000102531)
(-1.55803e-09 -2.04154e-09 -0.000102321)
(5.40514e-09 -7.81413e-09 -0.000102477)
(-1.44078e-09 2.80406e-09 -0.000102277)
(-1.53244e-09 -1.60811e-09 -0.000102287)
(2.63859e-09 1.68956e-09 -0.000102485)
(-6.30898e-09 1.36253e-08 -0.000102268)
(2.14816e-09 -8.39866e-10 -0.000102455)
(-1.90165e-08 -6.47163e-09 -0.000108758)
(1.20824e-08 4.68841e-09 -0.000108669)
(8.97725e-09 1.70523e-08 -0.000108557)
(6.1177e-11 5.94863e-10 -0.000108789)
(1.41334e-08 5.37205e-09 -0.00010865)
(-2.07348e-08 -7.7515e-09 -0.000108733)
(-1.31441e-08 3.22445e-10 -0.00010237)
(1.70281e-08 2.94979e-09 -0.000102332)
(1.00366e-08 1.3776e-09 -0.000102349)
(-1.75272e-08 2.73269e-09 -0.000102292)
(1.55231e-08 2.45165e-09 -0.000102307)
(-1.45905e-08 -1.06991e-09 -0.000102339)
(-1.14259e-08 5.12411e-10 -0.000102245)
(1.55149e-08 -1.55369e-09 -0.000102294)
(3.141e-09 -3.86746e-09 -0.000108803)
(-4.56013e-09 9.25645e-09 -0.000108586)
(6.06067e-09 2.44338e-10 -0.000108702)
(-2.68979e-08 1.20436e-08 -0.000108598)
(-1.05217e-08 2.00483e-08 -0.000108582)
(-1.62941e-09 5.0585e-09 -0.000108783)
(-1.69781e-08 6.97897e-09 -0.000108554)
(7.98393e-09 -1.51e-09 -0.000108657)
(-1.98202e-08 7.61075e-09 -0.000108617)
(1.56861e-08 -7.18057e-09 -0.000108531)
(4.09505e-09 -7.84232e-09 -0.000108738)
(2.10933e-09 -4.08984e-09 -0.000108513)
(1.82361e-08 -7.96731e-09 -0.000108543)
(-1.63092e-08 5.45055e-09 -0.000108605)
(-2.92247e-09 4.96573e-09 -0.000108504)
(-3.00512e-09 4.75356e-09 -0.000108712)
(9.93412e-09 -2.62003e-10 -0.000102287)
(-1.43561e-08 -1.69076e-09 -0.000102257)
(2.42199e-08 -6.02148e-09 -0.000102205)
(-4.15326e-09 -3.54838e-09 -0.000102218)
(-1.42601e-08 -1.88786e-09 -0.000102256)
(1.71677e-08 2.21515e-09 -0.000102274)
(4.51951e-09 8.57389e-09 -0.000108808)
(3.07734e-09 6.09907e-09 -0.000108602)
(-1.42986e-08 -5.63152e-09 -0.000108603)
(2.39821e-08 9.98893e-09 -0.000108672)
(2.49346e-09 5.39271e-09 -0.00010861)
(8.38928e-09 1.58711e-08 -0.000108804)
(4.73197e-09 1.54421e-08 -0.000102393)
(7.90487e-09 1.67509e-08 -0.000102197)
(5.45904e-11 3.64653e-09 -0.000102183)
(-1.71341e-09 6.85906e-10 -0.000102369)
(7.99816e-10 -9.19881e-10 -0.000102213)
(1.5024e-09 8.03399e-09 -0.000102383)
(3.76785e-09 5.81071e-09 -0.000102462)
(1.26264e-10 5.25612e-09 -0.000102275)
(-2.24393e-09 1.00365e-08 -0.000102452)
(-7.39219e-09 1.34542e-08 -0.00010228)
(8.61132e-10 5.0546e-09 -0.000102275)
(5.77987e-09 1.2092e-08 -0.000102456)
(-1.54283e-09 1.08394e-09 -0.000102279)
(-1.76436e-09 5.06306e-09 -0.000102467)
(-1.92661e-08 -7.89056e-09 -0.000108714)
(1.53477e-08 6.25446e-09 -0.000108621)
(4.87422e-09 9.97431e-09 -0.000108541)
(7.73616e-09 1.46944e-08 -0.000108735)
(1.93863e-08 8.06681e-09 -0.000108602)
(-1.68332e-08 -6.55312e-09 -0.00010869)
(-1.72467e-08 -2.34613e-09 -0.000102316)
(1.42517e-08 1.28535e-09 -0.000102283)
(2.23829e-08 -4.3788e-09 -0.000102251)
(-9.08989e-09 -8.41874e-10 -0.000102213)
(1.74718e-08 3.29848e-09 -0.000102265)
(-1.70404e-08 -2.08036e-09 -0.000102294)
(-1.61072e-08 3.09829e-09 -0.000102205)
(2.06989e-08 -3.68699e-09 -0.000102226)
(-7.75443e-09 1.34635e-08 -0.000108786)
(-7.18059e-09 1.21388e-08 -0.000108591)
(2.03261e-08 -8.87428e-09 -0.000108617)
(-4.94835e-09 6.06679e-10 -0.000108524)
(2.74323e-10 -4.04003e-10 -0.000108589)
(-1.43869e-09 1.24614e-09 -0.000108797)
(-7.54302e-09 2.22971e-09 -0.00010852)
(2.93298e-08 -1.29706e-08 -0.000108594)
(-1.32948e-08 4.47472e-09 -0.000108626)
(2.27422e-08 -9.02238e-09 -0.000108581)
(-6.22601e-09 1.20025e-08 -0.000108712)
(-2.19688e-09 4.49875e-09 -0.000108527)
(2.28835e-08 -9.64759e-09 -0.000108617)
(-1.01337e-08 4.10521e-09 -0.000108669)
(2.19185e-09 -4.47347e-09 -0.00010857)
(-3.52899e-09 8.41771e-09 -0.000108745)
(1.58663e-08 2.1056e-09 -0.000102277)
(-1.0804e-08 1.59026e-10 -0.000102271)
(1.81154e-08 -2.4873e-09 -0.000102264)
(-1.18019e-08 1.21337e-09 -0.000102265)
(-1.26449e-08 -1.01881e-09 -0.000102299)
(1.74894e-08 3.259e-09 -0.000102304)
(6.94e-09 1.40701e-08 -0.000108816)
(4.55166e-09 7.68656e-09 -0.00010863)
(-9.37545e-09 -2.8725e-09 -0.000108662)
(2.41145e-08 1.12882e-08 -0.000108721)
(-2.68414e-09 -4.8771e-09 -0.000108643)
(4.6629e-09 1.0492e-08 -0.00010883)
(-4.97826e-09 -1.01166e-08 -0.000102407)
(-3.65841e-09 -1.3244e-08 -0.000102252)
(1.33828e-09 1.34308e-09 -0.000102232)
(-4.8503e-09 1.07786e-08 -0.000102394)
(-4.69039e-09 -1.53144e-08 -0.00010229)
(-9.07857e-09 -2.02944e-08 -0.00010245)
(4.2075e-09 8.32356e-09 -0.00010246)
(-1.41033e-09 1.97267e-09 -0.000102286)
(4.06326e-09 -8.06377e-09 -0.000102463)
(2.55569e-09 -9.3111e-09 -0.000102276)
(-4.64129e-09 -7.85051e-09 -0.000102291)
(2.09256e-09 3.8869e-09 -0.000102467)
(4.21396e-09 -1.29758e-08 -0.000102286)
(7.81281e-09 -1.68697e-08 -0.000102464)
(-1.28378e-08 -4.65944e-09 -0.000108674)
(2.39891e-08 1.08795e-08 -0.000108596)
(-5.91247e-09 -1.10137e-08 -0.000108632)
(-7.06863e-09 -1.41341e-08 -0.000108806)
(2.23149e-08 1.01981e-08 -0.000108605)
(-9.06818e-09 -2.63902e-09 -0.000108674)
(-1.31221e-08 -9.55727e-10 -0.000102281)
(2.34322e-08 5.14469e-09 -0.00010226)
(1.44834e-08 -1.49917e-09 -0.000102229)
(-1.81133e-08 2.85473e-09 -0.000102227)
(2.52241e-08 6.17163e-09 -0.000102261)
(-6.89006e-09 1.28682e-09 -0.00010228)
(-1.66143e-08 2.38183e-09 -0.000102248)
(1.31798e-08 -1.34919e-09 -0.000102255)
(4.89128e-09 -9.6117e-09 -0.000108792)
(4.05065e-09 -6.9756e-09 -0.000108586)
(2.3794e-08 -1.00928e-08 -0.0001086)
(-1.62338e-08 6.25316e-09 -0.000108549)
(5.05417e-09 -9.00041e-09 -0.000108605)
(7.81394e-09 -1.48306e-08 -0.000108796)
(-1.62012e-08 6.29637e-09 -0.000108577)
(1.67143e-08 -7.13309e-09 -0.000108634)
(-9.60701e-09 4.20957e-09 -0.000108703)
(2.38621e-08 -9.84577e-09 -0.000108643)
(1.24611e-09 -9.82284e-11 -0.000108789)
(3.04852e-09 -4.408e-09 -0.000108617)
(2.10289e-08 -9.42887e-09 -0.000108671)
(-1.02291e-08 3.9644e-09 -0.000108729)
(1.00281e-09 -1.24723e-09 -0.000108661)
(4.11654e-11 2.24445e-09 -0.000108839)
(2.09129e-08 4.5881e-09 -0.000102329)
(-3.02561e-09 3.54145e-09 -0.000102334)
(2.84764e-08 -7.5914e-09 -0.000102306)
(-4.33599e-09 -1.61475e-09 -0.000102314)
(-6.84497e-09 1.65595e-09 -0.000102358)
(2.79049e-08 8.5242e-09 -0.000102368)
(-1.02199e-09 2.95062e-10 -0.000108851)
(-7.15723e-09 -1.23372e-08 -0.000108662)
(-1.101e-08 -3.50901e-09 -0.000108726)
(2.78084e-08 1.42095e-08 -0.000108791)
(-5.76595e-09 -1.14058e-08 -0.000108684)
(-3.45524e-09 -4.63093e-09 -0.000108873)
(-7.92183e-09 -1.97079e-08 -0.000102488)
(-1.89981e-09 -8.791e-09 -0.000102326)
(1.71458e-09 -7.40864e-10 -0.000102305)
(-2.27034e-09 5.08262e-09 -0.000102468)
(1.30055e-09 -5.64418e-10 -0.00010236)
(-5.22448e-09 -1.31581e-08 -0.000102527)
(-7.0436e-10 -2.85615e-09 -0.000102476)
(-5.25557e-09 -9.67337e-09 -0.000102304)
(8.03568e-09 -1.94382e-08 -0.00010248)
(3.80276e-09 -1.20804e-08 -0.00010231)
(-2.03994e-09 -3.13621e-09 -0.000102324)
(-4.25596e-10 -2.32783e-09 -0.000102494)
(5.70982e-10 -5.4894e-09 -0.000102344)
(7.11216e-09 -1.70027e-08 -0.000102508)
(-1.19927e-08 -4.51266e-09 -0.000108687)
(1.94927e-08 7.83576e-09 -0.000108636)
(4.91598e-10 6.85637e-10 -0.000108722)
(-4.64333e-09 -1.10176e-08 -0.000108902)
(1.89712e-08 7.74343e-09 -0.00010868)
(-1.45898e-08 -6.29381e-09 -0.000108726)
(-6.5392e-09 1.31233e-09 -0.000102284)
(2.36198e-08 5.2786e-09 -0.000102279)
(1.55372e-08 -2.56744e-09 -0.000102274)
(-1.40398e-08 1.10033e-09 -0.000102267)
(2.2199e-08 4.66983e-09 -0.000102313)
(-7.94963e-09 3.66984e-10 -0.00010231)
(-9.63489e-09 -6.76218e-10 -0.000102299)
(1.87962e-08 -4.01716e-09 -0.000102298)
(7.98106e-09 -1.633e-08 -0.000108821)
(3.90913e-09 -8.09801e-09 -0.00010864)
(1.83183e-08 -8.45035e-09 -0.000108662)
(-1.31564e-08 4.43553e-09 -0.000108603)
(1.90048e-09 -3.53694e-09 -0.000108681)
(6.30231e-09 -1.36547e-08 -0.000108858)
(-9.46906e-09 2.39935e-09 -0.000108643)
(2.18508e-08 -1.05459e-08 -0.000108692)
(-1.24481e-08 5.30779e-09 -0.000108761)
(2.13784e-08 -8.87193e-09 -0.000108718)
(-1.5966e-09 5.90167e-09 -0.00010888)
(-1.6822e-10 1.22785e-09 -0.000108694)
(2.09599e-08 -8.81106e-09 -0.000108765)
(-1.19046e-08 5.00319e-09 -0.000108809)
(1.80804e-09 -3.33149e-09 -0.000108726)
(-2.38502e-09 6.23653e-09 -0.000108912)
(2.09394e-08 4.91574e-09 -0.000102383)
(-1.31583e-08 -1.10687e-09 -0.000102361)
(2.29555e-08 -4.77895e-09 -0.000102385)
(-5.35044e-09 -1.2342e-09 -0.00010238)
(-2.50578e-08 -6.28801e-09 -0.000102385)
(1.28967e-08 1.23785e-09 -0.000102394)
(-4.9468e-10 1.41081e-09 -0.000108898)
(6.04114e-09 9.89163e-09 -0.000108712)
(-1.83512e-08 -7.89937e-09 -0.000108755)
(2.01765e-08 9.22888e-09 -0.00010882)
(5.82395e-09 1.16514e-08 -0.000108735)
(8.09099e-09 1.63525e-08 -0.000108915)
(-1.40809e-09 -3.49275e-09 -0.000102559)
(5.33809e-09 9.60767e-09 -0.000102396)
(1.82354e-09 -1.55112e-09 -0.000102358)
(-2.51398e-09 6.16692e-09 -0.00010253)
(5.20129e-09 9.85542e-09 -0.000102432)
(1.95432e-09 4.70743e-09 -0.000102598)
(2.49041e-09 5.25297e-09 -0.000102517)
(3.06905e-09 1.02485e-08 -0.000102351)
(4.01545e-09 -9.70169e-09 -0.000102541)
(-9.95098e-10 -8.00296e-10 -0.000102369)
(1.68637e-09 7.52617e-09 -0.000102368)
(6.86829e-09 1.57815e-08 -0.000102538)