# Force and moment coefficients
# dragDir     : (1.000000e+00 0.000000e+00 0.000000e+00)
# sideDir     : (0.000000e+00 1.000000e+00 0.000000e+00)
# liftDir     : (0.000000e+00 0.000000e+00 1.000000e+00)
# rollAxis    : (1.000000e+00 0.000000e+00 0.000000e+00)
# pitchAxis   : (0.000000e+00 1.000000e+00 0.000000e+00)
# yawAxis     : (0.000000e+00 0.000000e+00 1.000000e+00)
# magUInf     : 2.600000e+01
# lRef        : 1.420000e+00
# Aref        : 7.500000e-01
# CofR        : (7.200000e-01 0.000000e+00 0.000000e+00)
#
# Time        	Cd            	Cd(f)         	Cd(r)         	Cl            	Cl(f)         	Cl(r)         	CmPitch       	CmRoll        	CmYaw         	Cs            	Cs(f)         	Cs(r)         
1             	2.909097e+00	1.345023e+00	1.564074e+00	2.345977e-16	5.121650e-02	-5.121650e-02	5.121650e-02	-1.095253e-01	-1.591629e+01	6.221035e+00	-1.280577e+01	1.902681e+01
2             	2.121414e+00	9.796931e-01	1.141721e+00	2.350857e-16	3.734884e-02	-3.734884e-02	3.734884e-02	-8.101388e-02	-9.133061e+00	4.601588e+00	-6.832267e+00	1.143385e+01
3             	7.350209e-03	1.706998e-03	5.643211e-03	7.764172e-17	1.294051e-04	-1.294051e-04	1.294051e-04	-1.968107e-03	1.840491e+00	1.117885e-01	1.896386e+00	-1.784597e+00
4             	-1.278549e+00	-6.051711e-01	-6.733776e-01	-1.525109e-16	-2.250966e-02	2.250966e-02	-2.250966e-02	3.410325e-02	6.557868e+00	-1.937064e+00	5.589336e+00	-7.526400e+00
5             	-1.016060e+00	-5.010984e-01	-5.149618e-01	-3.081939e-16	-1.788838e-02	1.788838e-02	-1.788838e-02	6.931714e-03	4.994495e+00	-3.937214e-01	4.797634e+00	-5.191356e+00
6             	4.124367e-02	-1.565693e-02	5.690060e-02	-2.994298e-16	7.261210e-04	-7.261210e-04	7.261210e-04	-3.627876e-02	-8.617738e-01	2.060634e+00	1.685430e-01	1.892091e+00
7             	7.694634e-01	3.320956e-01	4.373679e-01	-1.944341e-16	1.354689e-02	-1.354689e-02	1.354689e-02	-5.263616e-02	-7.074312e+00	2.989734e+00	-5.579445e+00	8.569179e+00
8             	8.283468e-01	3.768313e-01	4.515155e-01	-5.091050e-17	1.458357e-02	-1.458357e-02	1.458357e-02	-3.734211e-02	-1.065559e+01	2.121032e+00	-9.595072e+00	1.171610e+01
9             	3.559422e-01	1.643112e-01	1.916310e-01	4.110821e-18	6.266587e-03	-6.266587e-03	6.266587e-03	-1.365991e-02	-9.939395e+00	7.758827e-01	-9.551453e+00	1.032734e+01
10            	-1.172212e-01	-6.205179e-02	-5.516944e-02	-3.683683e-17	-2.063754e-03	2.063754e-03	-2.063754e-03	-3.441175e-03	-6.167439e+00	1.954587e-01	-6.069710e+00	6.265169e+00
11            	-3.177470e-01	-1.693141e-01	-1.484329e-01	-1.181547e-16	-5.594137e-03	5.594137e-03	-5.594137e-03	-1.044063e-02	-3.207184e+00	5.930279e-01	-2.910670e+00	3.503698e+00
12            	-1.730450e-01	-1.115228e-01	-6.152215e-02	-1.661021e-16	-3.046566e-03	3.046566e-03	-3.046566e-03	-2.500033e-02	-3.203155e+00	1.420019e+00	-2.493146e+00	3.913164e+00
13            	1.079469e-01	2.084833e-02	8.709858e-02	-1.590062e-16	1.900474e-03	-1.900474e-03	1.900474e-03	-3.312513e-02	-5.661203e+00	1.881507e+00	-4.720450e+00	6.601957e+00
14            	2.938823e-01	1.151266e-01	1.787557e-01	-1.179308e-16	5.173984e-03	-5.173984e-03	5.173984e-03	-3.181457e-02	-8.388542e+00	1.807068e+00	-7.485008e+00	9.292076e+00
15            	2.750653e-01	1.127835e-01	1.622818e-01	-7.374303e-17	4.842699e-03	-4.842699e-03	4.842699e-03	-2.474919e-02	-9.418221e+00	1.405754e+00	-8.715344e+00	1.012110e+01
16            	1.184923e-01	4.063887e-02	7.785346e-02	-6.757495e-17	2.086133e-03	-2.086133e-03	2.086133e-03	-1.860730e-02	-8.163356e+00	1.056895e+00	-7.634908e+00	8.691803e+00
17            	-2.920151e-02	-3.230231e-02	3.100799e-03	-9.114015e-17	-5.141110e-04	5.141110e-04	-5.141110e-04	-1.770155e-02	-6.131501e+00	1.005448e+00	-5.628777e+00	6.634225e+00
18            	-9.499530e-02	-6.822666e-02	-2.676864e-02	-1.225155e-16	-1.672452e-03	1.672452e-03	-1.672452e-03	-2.072901e-02	-4.630887e+00	1.177408e+00	-4.042183e+00	5.219590e+00
19            	-3.167881e-02	-4.090668e-02	9.227867e-03	-1.343508e-16	-5.577255e-04	5.577255e-04	-5.577255e-04	-2.506727e-02	-4.661777e+00	1.423821e+00	-3.949866e+00	5.373687e+00
20            	6.779497e-02	6.611816e-03	6.118315e-02	-1.205051e-16	1.193573e-03	-1.193573e-03	1.193573e-03	-2.728567e-02	-5.865105e+00	1.549826e+00	-5.090192e+00	6.640018e+00
21            	1.388199e-01	4.219386e-02	9.662603e-02	-9.668581e-17	2.444012e-03	-2.444012e-03	2.444012e-03	-2.721608e-02	-6.926835e+00	1.545874e+00	-6.153898e+00	7.699772e+00
22            	1.481486e-01	4.967179e-02	9.847684e-02	-6.439959e-17	2.608250e-03	-2.608250e-03	2.608250e-03	-2.440253e-02	-6.639583e+00	1.386063e+00	-5.946552e+00	7.332615e+00
23            	9.343917e-02	2.479363e-02	6.864555e-02	-3.910393e-17	1.645056e-03	-1.645056e-03	1.645056e-03	-2.192596e-02	-5.382120e+00	1.245395e+00	-4.759423e+00	6.004817e+00
24            	3.170416e-02	-6.379659e-03	3.808382e-02	-2.010984e-17	5.581718e-04	-5.581718e-04	5.581718e-04	-2.223174e-02	-4.214177e+00	1.262763e+00	-3.582795e+00	4.845558e+00
25            	4.797260e-03	-2.176698e-02	2.656424e-02	-2.910813e-18	8.445880e-05	-8.445880e-05	8.445880e-05	-2.416561e-02	-3.618512e+00	1.372607e+00	-2.932209e+00	4.304815e+00
26            	3.029104e-02	-1.079168e-02	4.108272e-02	1.338707e-17	5.332930e-04	-5.332930e-04	5.332930e-04	-2.593720e-02	-3.632313e+00	1.473233e+00	-2.895696e+00	4.368929e+00
27            	8.070235e-02	1.400809e-02	6.669426e-02	2.512834e-17	1.420816e-03	-1.420816e-03	1.420816e-03	-2.634308e-02	-4.080844e+00	1.496287e+00	-3.332701e+00	4.828988e+00
28            	1.169450e-01	3.378151e-02	8.316350e-02	3.512135e-17	2.058891e-03	-2.058891e-03	2.058891e-03	-2.469099e-02	-4.435116e+00	1.402448e+00	-3.733892e+00	5.136340e+00
29            	1.143215e-01	3.490470e-02	7.941679e-02	4.170131e-17	2.012702e-03	-2.012702e-03	2.012702e-03	-2.225605e-02	-4.506411e+00	1.264144e+00	-3.874340e+00	5.138483e+00
30            	8.058899e-02	2.040291e-02	6.018608e-02	5.244749e-17	1.418820e-03	-1.418820e-03	1.418820e-03	-1.989159e-02	-4.330439e+00	1.129842e+00	-3.765518e+00	4.895360e+00
31            	4.209959e-02	2.610184e-03	3.948941e-02	7.133483e-17	7.411900e-04	-7.411900e-04	7.411900e-04	-1.843961e-02	-4.144335e+00	1.047370e+00	-3.620650e+00	4.668020e+00
32            	2.253596e-02	-6.840926e-03	2.937688e-02	9.803207e-17	3.967598e-04	-3.967598e-04	3.967598e-04	-1.810891e-02	-4.271025e+00	1.028586e+00	-3.756733e+00	4.785318e+00
33            	2.007966e-02	-7.341891e-03	2.742155e-02	1.272554e-16	3.535152e-04	-3.535152e-04	3.535152e-04	-1.738172e-02	-5.068385e+00	9.872818e-01	-4.574744e+00	5.562026e+00
34            	2.591585e-02	-2.862229e-03	2.877808e-02	1.481782e-16	4.562649e-04	-4.562649e-04	4.562649e-04	-1.582015e-02	-6.390218e+00	8.985847e-01	-5.940926e+00	6.839511e+00
35            	2.582697e-02	-5.128062e-04	2.633978e-02	1.550785e-16	4.547002e-04	-4.547002e-04	4.547002e-04	-1.342629e-02	-7.712330e+00	7.626134e-01	-7.331024e+00	8.093637e+00
36            	8.104864e-03	-5.833043e-03	1.393791e-02	1.435100e-16	1.426913e-04	-1.426913e-04	1.426913e-04	-9.885475e-03	-8.777204e+00	5.614950e-01	-8.496457e+00	9.057952e+00
37            	-1.566996e-02	-1.541934e-02	-2.506164e-04	1.219126e-16	-2.758795e-04	2.758795e-04	-2.758795e-04	-7.584362e-03	-9.250145e+00	4.307918e-01	-9.034749e+00	9.465541e+00
38            	-3.898002e-02	-2.583929e-02	-1.314073e-02	9.386988e-17	-6.862679e-04	6.862679e-04	-6.862679e-04	-6.349282e-03	-9.435537e+00	3.606392e-01	-9.255217e+00	9.615856e+00
39            	-5.066161e-02	-3.212962e-02	-1.853200e-02	6.605763e-17	-8.919298e-04	8.919298e-04	-8.919298e-04	-6.798809e-03	-9.494454e+00	3.861724e-01	-9.301368e+00	9.687540e+00
40            	-4.988427e-02	-3.342472e-02	-1.645955e-02	4.156197e-17	-8.782443e-04	8.782443e-04	-8.782443e-04	-8.482583e-03	-9.557614e+00	4.818107e-01	-9.316708e+00	9.798519e+00
41            	-4.413071e-02	-3.256807e-02	-1.156264e-02	2.078640e-17	-7.769491e-04	7.769491e-04	-7.769491e-04	-1.050271e-02	-9.631702e+00	5.965541e-01	-9.333425e+00	9.929979e+00
42            	-4.056686e-02	-3.288602e-02	-7.680832e-03	2.531199e-18	-7.142052e-04	7.142052e-04	-7.142052e-04	-1.260260e-02	-9.645716e+00	7.158274e-01	-9.287803e+00	1.000363e+01
43            	-4.251840e-02	-3.575660e-02	-6.761800e-03	-1.468081e-17	-7.485633e-04	7.485633e-04	-7.485633e-04	-1.449740e-02	-9.518900e+00	8.234522e-01	-9.107174e+00	9.930626e+00
44            	-4.717454e-02	-4.003694e-02	-7.137604e-03	-3.124385e-17	-8.305377e-04	8.305377e-04	-8.305377e-04	-1.644967e-02	-9.213510e+00	9.343411e-01	-8.746339e+00	9.680680e+00
45            	-5.178443e-02	-4.406670e-02	-7.717732e-03	-4.370292e-17	-9.116977e-04	9.116977e-04	-9.116977e-04	-1.817448e-02	-8.871671e+00	1.032311e+00	-8.355516e+00	9.387826e+00
46            	-5.281004e-02	-4.621918e-02	-6.590863e-03	-5.073963e-17	-9.297542e-04	9.297542e-04	-9.297542e-04	-1.981416e-02	-8.566334e+00	1.125444e+00	-8.003612e+00	9.129056e+00
47            	-4.925764e-02	-4.651396e-02	-2.743685e-03	-5.272788e-17	-8.672120e-04	8.672120e-04	-8.672120e-04	-2.188514e-02	-8.279720e+00	1.243076e+00	-7.658182e+00	8.901258e+00
48            	-4.553508e-02	-4.630272e-02	7.676337e-04	-5.003532e-17	-8.016740e-04	8.016740e-04	-8.016740e-04	-2.353518e-02	-8.131254e+00	1.336798e+00	-7.462855e+00	8.799653e+00
49            	-4.532694e-02	-4.721189e-02	1.884949e-03	-4.571332e-17	-7.980096e-04	7.980096e-04	-7.980096e-04	-2.454842e-02	-8.124668e+00	1.394350e+00	-7.427493e+00	8.821843e+00
50            	-4.755194e-02	-4.869691e-02	1.144978e-03	-4.046907e-17	-8.371820e-04	8.371820e-04	-8.371820e-04	-2.492095e-02	-8.157440e+00	1.415510e+00	-7.449686e+00	8.865195e+00
51            	-5.100819e-02	-5.053223e-02	-4.759617e-04	-3.657400e-17	-8.980315e-04	8.980315e-04	-8.980315e-04	-2.502813e-02	-8.191168e+00	1.421598e+00	-7.480369e+00	8.901967e+00
52            	-5.254679e-02	-5.137334e-02	-1.173451e-03	-3.331106e-17	-9.251196e-04	9.251196e-04	-9.251196e-04	-2.509995e-02	-8.184308e+00	1.425677e+00	-7.471470e+00	8.897147e+00
53            	-5.188125e-02	-5.132770e-02	-5.535518e-04	-3.095282e-17	-9.134023e-04	9.134023e-04	-9.134023e-04	-2.538707e-02	-8.158892e+00	1.441986e+00	-7.437899e+00	8.879885e+00
54            	-5.108263e-02	-5.129552e-02	2.128974e-04	-2.862477e-17	-8.993420e-04	8.993420e-04	-8.993420e-04	-2.575421e-02	-8.183447e+00	1.462839e+00	-7.452027e+00	8.914867e+00
55            	-5.145682e-02	-5.167039e-02	2.135649e-04	-2.682273e-17	-9.059299e-04	9.059299e-04	-9.059299e-04	-2.594198e-02	-8.249081e+00	1.473504e+00	-7.512329e+00	8.985833e+00
56            	-5.337190e-02	-5.263407e-02	-7.378275e-04	-2.433819e-17	-9.396461e-04	9.396461e-04	-9.396461e-04	-2.594812e-02	-8.322665e+00	1.473853e+00	-7.585739e+00	9.059592e+00
57            	-5.629010e-02	-5.397532e-02	-2.314777e-03	-2.201395e-17	-9.910228e-04	9.910228e-04	-9.910228e-04	-2.583027e-02	-8.385426e+00	1.467159e+00	-7.651846e+00	9.119005e+00
58            	-5.922963e-02	-5.532006e-02	-3.909564e-03	-1.949212e-17	-1.042775e-03	1.042775e-03	-1.042775e-03	-2.570525e-02	-8.434242e+00	1.460058e+00	-7.704213e+00	9.164271e+00
59            	-6.228927e-02	-5.678940e-02	-5.499876e-03	-1.742941e-17	-1.096642e-03	1.096642e-03	-1.096642e-03	-2.564476e-02	-8.494175e+00	1.456622e+00	-7.765864e+00	9.222486e+00
60            	-6.436980e-02	-5.777125e-02	-6.598545e-03	-1.449180e-17	-1.133271e-03	1.133271e-03	-1.133271e-03	-2.558635e-02	-8.553973e+00	1.453305e+00	-7.827320e+00	9.280625e+00
61            	-6.624218e-02	-5.865809e-02	-7.584085e-03	-1.135654e-17	-1.166236e-03	1.166236e-03	-1.166236e-03	-2.553700e-02	-8.632249e+00	1.450502e+00	-7.906998e+00	9.357500e+00
62            	-6.826127e-02	-5.956991e-02	-8.691358e-03	-7.571787e-18	-1.201783e-03	1.201783e-03	-1.201783e-03	-2.543927e-02	-8.726109e+00	1.444951e+00	-8.003634e+00	9.448584e+00
63            	-7.031576e-02	-6.039301e-02	-9.922752e-03	-3.769323e-18	-1.237954e-03	1.237954e-03	-1.237954e-03	-2.523513e-02	-8.824142e+00	1.433355e+00	-8.107464e+00	9.540819e+00
64            	-7.319093e-02	-6.161666e-02	-1.157426e-02	-3.932780e-19	-1.288573e-03	1.288573e-03	-1.288573e-03	-2.502120e-02	-8.934541e+00	1.421204e+00	-8.223939e+00	9.645143e+00
65            	-7.632181e-02	-6.292318e-02	-1.339863e-02	2.001682e-18	-1.343694e-03	1.343694e-03	-1.343694e-03	-2.476228e-02	-9.056949e+00	1.406497e+00	-8.353701e+00	9.760198e+00
66            	-7.934311e-02	-6.423997e-02	-1.510314e-02	4.071328e-18	-1.396886e-03	1.396886e-03	-1.396886e-03	-2.456842e-02	-9.174540e+00	1.395486e+00	-8.476797e+00	9.872284e+00
67            	-8.236045e-02	-6.556444e-02	-1.679601e-02	5.388905e-18	-1.450008e-03	1.450008e-03	-1.450008e-03	-2.438422e-02	-9.302740e+00	1.385023e+00	-8.610228e+00	9.995252e+00
68            	-8.551739e-02	-6.693501e-02	-1.858238e-02	6.551983e-18	-1.505588e-03	1.505588e-03	-1.505588e-03	-2.417631e-02	-9.439182e+00	1.373215e+00	-8.752575e+00	1.012579e+01
69            	-8.851633e-02	-6.827111e-02	-2.024523e-02	7.177810e-18	-1.558386e-03	1.558386e-03	-1.558386e-03	-2.401294e-02	-9.571440e+00	1.363935e+00	-8.889473e+00	1.025341e+01
70            	-9.141483e-02	-6.958348e-02	-2.183135e-02	7.841899e-18	-1.609416e-03	1.609416e-03	-1.609416e-03	-2.387607e-02	-9.698366e+00	1.356161e+00	-9.020286e+00	1.037645e+01
71            	-9.415312e-02	-7.085010e-02	-2.330302e-02	8.301038e-18	-1.657625e-03	1.657625e-03	-1.657625e-03	-2.377354e-02	-9.820324e+00	1.350337e+00	-9.145155e+00	1.049549e+01
72            	-9.714460e-02	-7.222998e-02	-2.491462e-02	8.561784e-18	-1.710292e-03	1.710292e-03	-1.710292e-03	-2.365768e-02	-9.948355e+00	1.343756e+00	-9.276477e+00	1.062023e+01
73            	-1.002417e-01	-7.366715e-02	-2.657458e-02	8.320907e-18	-1.764819e-03	1.764819e-03	-1.764819e-03	-2.354629e-02	-1.008093e+01	1.337429e+00	-9.412217e+00	1.074965e+01
74            	-1.033859e-01	-7.512525e-02	-2.826067e-02	7.691991e-18	-1.820175e-03	1.820175e-03	-1.820175e-03	-2.343229e-02	-1.021877e+01	1.330954e+00	-9.553290e+00	1.088424e+01
75            	-1.062377e-01	-7.649400e-02	-2.974367e-02	6.559344e-18	-1.870382e-03	1.870382e-03	-1.870382e-03	-2.337517e-02	-1.035062e+01	1.327709e+00	-9.686764e+00	1.101447e+01
76            	-1.088408e-01	-7.780776e-02	-3.103301e-02	5.114254e-18	-1.916211e-03	1.916211e-03	-1.916211e-03	-2.338737e-02	-1.047230e+01	1.328403e+00	-9.808101e+00	1.113650e+01
77            	-1.117003e-01	-7.926114e-02	-3.243919e-02	2.961871e-18	-1.966555e-03	1.966555e-03	-1.966555e-03	-2.341098e-02	-1.060027e+01	1.329743e+00	-9.935399e+00	1.126514e+01
78            	-1.147628e-01	-8.082748e-02	-3.393537e-02	2.391371e-19	-2.020473e-03	2.020473e-03	-2.020473e-03	-2.344606e-02	-1.073185e+01	1.331736e+00	-1.006599e+01	1.139772e+01
79            	-1.180165e-01	-8.248330e-02	-3.553319e-02	-3.257352e-18	-2.077755e-03	2.077755e-03	-2.077755e-03	-2.347506e-02	-1.086652e+01	1.333383e+00	-1.019983e+01	1.153321e+01
80            	-1.208822e-01	-8.400347e-02	-3.687873e-02	-7.032013e-18	-2.128208e-03	2.128208e-03	-2.128208e-03	-2.356237e-02	-1.098686e+01	1.338343e+00	-1.031769e+01	1.165603e+01
81            	-1.234060e-01	-8.541332e-02	-3.799265e-02	-1.090696e-17	-2.172640e-03	2.172640e-03	-2.172640e-03	-2.371033e-02	-1.109136e+01	1.346747e+00	-1.041799e+01	1.176474e+01
82            	-1.255730e-01	-8.671165e-02	-3.886132e-02	-1.460055e-17	-2.210792e-03	2.210792e-03	-2.210792e-03	-2.392517e-02	-1.117640e+01	1.358949e+00	-1.049693e+01	1.185588e+01
83            	-1.278418e-01	-8.810760e-02	-3.973420e-02	-1.841992e-17	-2.250736e-03	2.250736e-03	-2.250736e-03	-2.418670e-02	-1.125418e+01	1.373805e+00	-1.056727e+01	1.194108e+01
84            	-1.303651e-01	-8.961439e-02	-4.075074e-02	-2.212129e-17	-2.295161e-03	2.295161e-03	-2.295161e-03	-2.443183e-02	-1.133011e+01	1.387728e+00	-1.063625e+01	1.202397e+01
85            	-1.324536e-01	-9.098733e-02	-4.146623e-02	-2.612846e-17	-2.331929e-03	2.331929e-03	-2.331929e-03	-2.476055e-02	-1.138568e+01	1.406399e+00	-1.068248e+01	1.208888e+01
86            	-1.344868e-01	-9.236142e-02	-4.212534e-02	-3.009234e-17	-2.367725e-03	2.367725e-03	-2.367725e-03	-2.511804e-02	-1.143336e+01	1.426705e+00	-1.072001e+01	1.214671e+01
87            	-1.355368e-01	-9.333141e-02	-4.220539e-02	-3.348439e-17	-2.386211e-03	2.386211e-03	-2.386211e-03	-2.556301e-02	-1.144755e+01	1.451979e+00	-1.072156e+01	1.217354e+01
88            	-1.367015e-01	-9.438411e-02	-4.231737e-02	-3.648093e-17	-2.406716e-03	2.406716e-03	-2.406716e-03	-2.603337e-02	-1.146077e+01	1.478696e+00	-1.072142e+01	1.220012e+01
89            	-1.375014e-01	-9.532133e-02	-4.218004e-02	-3.909234e-17	-2.420799e-03	2.420799e-03	-2.420799e-03	-2.657064e-02	-1.145713e+01	1.509212e+00	-1.070252e+01	1.221173e+01
90            	-1.383763e-01	-9.628769e-02	-4.208865e-02	-4.144831e-17	-2.436203e-03	2.436203e-03	-2.436203e-03	-2.709952e-02	-1.145466e+01	1.539253e+00	-1.068503e+01	1.222429e+01
91            	-1.395232e-01	-9.739142e-02	-4.213178e-02	-4.359375e-17	-2.456394e-03	2.456394e-03	-2.456394e-03	-2.762982e-02	-1.145955e+01	1.569374e+00	-1.067486e+01	1.224424e+01
92            	-1.409235e-01	-9.857949e-02	-4.234405e-02	-4.560517e-17	-2.481048e-03	2.481048e-03	-2.481048e-03	-2.811772e-02	-1.147686e+01	1.597087e+00	-1.067831e+01	1.227540e+01
93            	-1.423676e-01	-9.974381e-02	-4.262375e-02	-4.732507e-17	-2.506471e-03	2.506471e-03	-2.506471e-03	-2.856003e-02	-1.150179e+01	1.622210e+00	-1.069069e+01	1.231290e+01
94            	-1.437358e-01	-1.008295e-01	-4.290631e-02	-4.872470e-17	-2.530561e-03	2.530561e-03	-2.530561e-03	-2.896161e-02	-1.153126e+01	1.645020e+00	-1.070875e+01	1.235377e+01
95            	-1.450486e-01	-1.018571e-01	-4.319153e-02	-4.987366e-17	-2.553673e-03	2.553673e-03	-2.553673e-03	-2.933277e-02	-1.156456e+01	1.666102e+00	-1.073151e+01	1.239761e+01
96            	-1.463767e-01	-1.028533e-01	-4.352333e-02	-5.083924e-17	-2.577054e-03	2.577054e-03	-2.577054e-03	-2.966501e-02	-1.160270e+01	1.684972e+00	-1.076021e+01	1.244518e+01
97            	-1.478426e-01	-1.039235e-01	-4.391908e-02	-5.186186e-17	-2.602863e-03	2.602863e-03	-2.602863e-03	-3.000222e-02	-1.164612e+01	1.704126e+00	-1.079406e+01	1.249818e+01
98            	-1.493630e-01	-1.049755e-01	-4.438741e-02	-5.284153e-17	-2.629630e-03	2.629630e-03	-2.629630e-03	-3.029407e-02	-1.169305e+01	1.720703e+00	-1.083269e+01	1.255340e+01
99            	-1.509869e-01	-1.060693e-01	-4.491761e-02	-5.389428e-17	-2.658220e-03	2.658220e-03	-2.658220e-03	-3.057583e-02	-1.174286e+01	1.736707e+00	-1.087451e+01	1.261121e+01
100           	-1.526173e-01	-1.071500e-01	-4.546736e-02	-5.487394e-17	-2.686924e-03	2.686924e-03	-2.686924e-03	-3.084130e-02	-1.179327e+01	1.751786e+00	-1.091738e+01	1.266916e+01
101           	-1.541610e-01	-1.081511e-01	-4.600985e-02	-5.566778e-17	-2.714102e-03	2.714102e-03	-2.714102e-03	-3.107064e-02	-1.184175e+01	1.764812e+00	-1.095934e+01	1.272416e+01
102           	-1.557314e-01	-1.091731e-01	-4.655830e-02	-5.637647e-17	-2.741750e-03	2.741750e-03	-2.741750e-03	-3.130741e-02	-1.189055e+01	1.778261e+00	-1.100142e+01	1.277968e+01
103           	-1.573179e-01	-1.102006e-01	-4.711726e-02	-5.696624e-17	-2.769681e-03	2.769681e-03	-2.769681e-03	-3.154169e-02	-1.193894e+01	1.791568e+00	-1.104316e+01	1.283473e+01
104           	-1.589119e-01	-1.112206e-01	-4.769126e-02	-5.746166e-17	-2.797744e-03	2.797744e-03	-2.797744e-03	-3.176467e-02	-1.198641e+01	1.804233e+00	-1.108429e+01	1.288852e+01
105           	-1.605137e-01	-1.122301e-01	-4.828362e-02	-5.791825e-17	-2.825945e-03	2.825945e-03	-2.825945e-03	-3.197323e-02	-1.203337e+01	1.816079e+00	-1.112533e+01	1.294141e+01
106           	-1.621050e-01	-1.132253e-01	-4.887972e-02	-5.835334e-17	-2.853962e-03	2.853962e-03	-2.853962e-03	-3.217279e-02	-1.207941e+01	1.827415e+00	-1.116570e+01	1.299311e+01
107           	-1.636929e-01	-1.142141e-01	-4.947877e-02	-5.877794e-17	-2.881918e-03	2.881918e-03	-2.881918e-03	-3.236769e-02	-1.212478e+01	1.838485e+00	-1.120554e+01	1.304403e+01
108           	-1.652709e-01	-1.151972e-01	-5.007368e-02	-5.916504e-17	-2.909698e-03	2.909698e-03	-2.909698e-03	-3.256174e-02	-1.216897e+01	1.849507e+00	-1.124421e+01	1.309372e+01
109           	-1.668553e-01	-1.161808e-01	-5.067451e-02	-5.950912e-17	-2.937593e-03	2.937593e-03	-2.937593e-03	-3.275314e-02	-1.221262e+01	1.860378e+00	-1.128243e+01	1.314281e+01
110           	-1.684356e-01	-1.171579e-01	-5.127768e-02	-5.979639e-17	-2.965415e-03	2.965415e-03	-2.965415e-03	-3.294012e-02	-1.225556e+01	1.870999e+00	-1.132006e+01	1.319106e+01
111           	-1.700153e-01	-1.181264e-01	-5.188888e-02	-6.004533e-17	-2.993227e-03	2.993227e-03	-2.993227e-03	-3.311878e-02	-1.229842e+01	1.881147e+00	-1.135785e+01	1.323900e+01
112           	-1.715524e-01	-1.190559e-01	-5.249644e-02	-6.025550e-17	-3.020288e-03	3.020288e-03	-3.020288e-03	-3.327973e-02	-1.234028e+01	1.890289e+00	-1.139514e+01	1.328543e+01
113           	-1.731814e-01	-1.200575e-01	-5.312391e-02	-6.049382e-17	-3.048968e-03	3.048968e-03	-3.048968e-03	-3.346680e-02	-1.238898e+01	1.900914e+00	-1.143852e+01	1.333944e+01
114           	-1.747328e-01	-1.209993e-01	-5.373344e-02	-6.068541e-17	-3.076281e-03	3.076281e-03	-3.076281e-03	-3.363294e-02	-1.243517e+01	1.910351e+00	-1.148000e+01	1.339035e+01
115           	-1.762385e-01	-1.219002e-01	-5.433833e-02	-6.085181e-17	-3.102790e-03	3.102790e-03	-3.102790e-03	-3.378092e-02	-1.247731e+01	1.918756e+00	-1.151793e+01	1.343669e+01
116           	-1.777097e-01	-1.227709e-01	-5.493876e-02	-6.098660e-17	-3.128692e-03	3.128692e-03	-3.128692e-03	-3.391609e-02	-1.251632e+01	1.926434e+00	-1.155310e+01	1.347953e+01
117           	-1.791761e-01	-1.236360e-01	-5.554007e-02	-6.109860e-17	-3.154509e-03	3.154509e-03	-3.154509e-03	-3.404799e-02	-1.255484e+01	1.933926e+00	-1.158787e+01	1.352180e+01
118           	-1.806627e-01	-1.245197e-01	-5.614298e-02	-6.119340e-17	-3.180681e-03	3.180681e-03	-3.180681e-03	-3.418837e-02	-1.259443e+01	1.941899e+00	-1.162348e+01	1.356538e+01
119           	-1.821348e-01	-1.253912e-01	-5.674363e-02	-6.127253e-17	-3.206599e-03	3.206599e-03	-3.206599e-03	-3.432377e-02	-1.263464e+01	1.949590e+00	-1.165984e+01	1.360943e+01
120           	-1.835538e-01	-1.262233e-01	-5.733050e-02	-6.133535e-17	-3.231582e-03	3.231582e-03	-3.231582e-03	-3.444641e-02	-1.267420e+01	1.956556e+00	-1.169592e+01	1.365248e+01
121           	-1.849619e-01	-1.270478e-01	-5.791412e-02	-6.139228e-17	-3.256371e-03	3.256371e-03	-3.256371e-03	-3.456683e-02	-1.271346e+01	1.963396e+00	-1.173176e+01	1.369516e+01
122           	-1.863534e-01	-1.278621e-01	-5.849127e-02	-6.144134e-17	-3.280870e-03	3.280870e-03	-3.280870e-03	-3.468543e-02	-1.275161e+01	1.970132e+00	-1.176654e+01	1.373667e+01
123           	-1.877220e-01	-1.286609e-01	-5.906108e-02	-6.148396e-17	-3.304965e-03	3.304965e-03	-3.304965e-03	-3.479992e-02	-1.278820e+01	1.976635e+00	-1.179989e+01	1.377652e+01
124           	-1.890654e-01	-1.294429e-01	-5.962254e-02	-6.152245e-17	-3.328616e-03	3.328616e-03	-3.328616e-03	-3.491016e-02	-1.282341e+01	1.982897e+00	-1.183196e+01	1.381486e+01
125           	-1.903870e-01	-1.302104e-01	-6.017659e-02	-6.156129e-17	-3.351884e-03	3.351884e-03	-3.351884e-03	-3.501691e-02	-1.285794e+01	1.988961e+00	-1.186346e+01	1.385242e+01
126           	-1.916947e-01	-1.309723e-01	-6.072243e-02	-6.159457e-17	-3.374907e-03	3.374907e-03	-3.374907e-03	-3.512494e-02	-1.289240e+01	1.995096e+00	-1.189485e+01	1.388995e+01
127           	-1.929481e-01	-1.316969e-01	-6.125113e-02	-6.163264e-17	-3.396973e-03	3.396973e-03	-3.396973e-03	-3.522291e-02	-1.292595e+01	2.000661e+00	-1.192562e+01	1.392628e+01
128           	-1.941737e-01	-1.324050e-01	-6.176877e-02	-6.166455e-17	-3.418552e-03	3.418552e-03	-3.418552e-03	-3.531809e-02	-1.295884e+01	2.006068e+00	-1.195580e+01	1.396187e+01
129           	-1.953826e-01	-1.331027e-01	-6.227986e-02	-6.168966e-17	-3.439834e-03	3.439834e-03	-3.439834e-03	-3.541142e-02	-1.299081e+01	2.011369e+00	-1.198512e+01	1.399649e+01
130           	-1.965822e-01	-1.337967e-01	-6.278555e-02	-6.169877e-17	-3.460955e-03	3.460955e-03	-3.460955e-03	-3.550556e-02	-1.302175e+01	2.016716e+00	-1.201339e+01	1.403010e+01
131           	-1.977481e-01	-1.344685e-01	-6.327952e-02	-6.170547e-17	-3.481480e-03	3.481480e-03	-3.481480e-03	-3.559451e-02	-1.305131e+01	2.021768e+00	-1.204042e+01	1.406219e+01
132           	-1.988688e-01	-1.351129e-01	-6.375591e-02	-6.171250e-17	-3.501211e-03	3.501211e-03	-3.501211e-03	-3.567849e-02	-1.307977e+01	2.026538e+00	-1.206650e+01	1.409304e+01
133           	-1.999463e-01	-1.357321e-01	-6.421422e-02	-6.172350e-17	-3.520182e-03	3.520182e-03	-3.520182e-03	-3.575894e-02	-1.310763e+01	2.031108e+00	-1.209207e+01	1.412318e+01
134           	-2.009912e-01	-1.363334e-01	-6.465784e-02	-6.173736e-17	-3.538577e-03	3.538577e-03	-3.538577e-03	-3.583776e-02	-1.313500e+01	2.035585e+00	-1.211720e+01	1.415279e+01
135           	-2.020181e-01	-1.369243e-01	-6.509385e-02	-6.175496e-17	-3.556657e-03	3.556657e-03	-3.556657e-03	-3.591521e-02	-1.316179e+01	2.039984e+00	-1.214180e+01	1.418178e+01
136           	-2.030264e-01	-1.375034e-01	-6.552300e-02	-6.177039e-17	-3.574408e-03	3.574408e-03	-3.574408e-03	-3.599019e-02	-1.318760e+01	2.044243e+00	-1.216548e+01	1.420973e+01
137           	-2.040087e-01	-1.380660e-01	-6.594270e-02	-6.178175e-17	-3.591702e-03	3.591702e-03	-3.591702e-03	-3.606164e-02	-1.321225e+01	2.048301e+00	-1.218810e+01	1.423640e+01
138           	-2.049531e-01	-1.386065e-01	-6.634659e-02	-6.178660e-17	-3.608330e-03	3.608330e-03	-3.608330e-03	-3.612998e-02	-1.323571e+01	2.052183e+00	-1.220962e+01	1.426180e+01
139           	-2.058567e-01	-1.391244e-01	-6.673230e-02	-6.178828e-17	-3.624238e-03	3.624238e-03	-3.624238e-03	-3.619605e-02	-1.325826e+01	2.055936e+00	-1.223029e+01	1.428623e+01
140           	-2.067215e-01	-1.396213e-01	-6.710018e-02	-6.178780e-17	-3.639462e-03	3.639462e-03	-3.639462e-03	-3.626055e-02	-1.328011e+01	2.059599e+00	-1.225031e+01	1.430990e+01
141           	-2.075521e-01	-1.400976e-01	-6.745452e-02	-6.179293e-17	-3.654086e-03	3.654086e-03	-3.654086e-03	-3.632153e-02	-1.330136e+01	2.063063e+00	-1.226983e+01	1.433289e+01
142           	-2.083666e-01	-1.405658e-01	-6.780075e-02	-6.179247e-17	-3.668425e-03	3.668425e-03	-3.668425e-03	-3.638252e-02	-1.332209e+01	2.066527e+00	-1.228882e+01	1.435535e+01
143           	-2.091635e-01	-1.410232e-01	-6.814032e-02	-6.179586e-17	-3.682456e-03	3.682456e-03	-3.682456e-03	-3.644143e-02	-1.334215e+01	2.069873e+00	-1.230721e+01	1.437708e+01
144           	-2.099314e-01	-1.414630e-01	-6.846840e-02	-6.179975e-17	-3.695975e-03	3.695975e-03	-3.695975e-03	-3.649730e-02	-1.336121e+01	2.073046e+00	-1.232469e+01	1.439774e+01
145           	-2.106618e-01	-1.418806e-01	-6.878111e-02	-6.180382e-17	-3.708834e-03	3.708834e-03	-3.708834e-03	-3.654977e-02	-1.337926e+01	2.076027e+00	-1.234125e+01	1.441728e+01
146           	-2.113543e-01	-1.422775e-01	-6.907680e-02	-6.180538e-17	-3.721027e-03	3.721027e-03	-3.721027e-03	-3.660036e-02	-1.339641e+01	2.078900e+00	-1.235696e+01	1.443586e+01
147           	-2.120161e-01	-1.426567e-01	-6.935935e-02	-6.180995e-17	-3.732677e-03	3.732677e-03	-3.732677e-03	-3.664868e-02	-1.341294e+01	2.081645e+00	-1.237212e+01	1.445376e+01
148           	-2.126574e-01	-1.430264e-01	-6.963101e-02	-6.180634e-17	-3.743968e-03	3.743968e-03	-3.743968e-03	-3.669768e-02	-1.342897e+01	2.084428e+00	-1.238676e+01	1.447119e+01
149           	-2.132852e-01	-1.433883e-01	-6.989689e-02	-6.180365e-17	-3.755021e-03	3.755021e-03	-3.755021e-03	-3.674570e-02	-1.344463e+01	2.087156e+00	-1.240105e+01	1.448820e+01
150           	-2.138890e-01	-1.437354e-01	-7.015362e-02	-6.179919e-17	-3.765652e-03	3.765652e-03	-3.765652e-03	-3.679089e-02	-1.345961e+01	2.089723e+00	-1.241475e+01	1.450447e+01
151           	-2.144656e-01	-1.440655e-01	-7.040010e-02	-6.179759e-17	-3.775802e-03	3.775802e-03	-3.775802e-03	-3.683268e-02	-1.347393e+01	2.092096e+00	-1.242788e+01	1.451998e+01
152           	-2.150121e-01	-1.443786e-01	-7.063346e-02	-6.179639e-17	-3.785424e-03	3.785424e-03	-3.785424e-03	-3.687258e-02	-1.348748e+01	2.094362e+00	-1.244030e+01	1.453466e+01
153           	-2.155354e-01	-1.446791e-01	-7.085630e-02	-6.179886e-17	-3.794637e-03	3.794637e-03	-3.794637e-03	-3.691138e-02	-1.350050e+01	2.096566e+00	-1.245221e+01	1.454878e+01
154           	-2.160370e-01	-1.449683e-01	-7.106868e-02	-6.179893e-17	-3.803467e-03	3.803467e-03	-3.803467e-03	-3.694980e-02	-1.351291e+01	2.098749e+00	-1.246353e+01	1.456228e+01
155           	-2.165233e-01	-1.452485e-01	-7.127476e-02	-6.180034e-17	-3.812030e-03	3.812030e-03	-3.812030e-03	-3.698689e-02	-1.352496e+01	2.100855e+00	-1.247454e+01	1.457539e+01
156           	-2.169906e-01	-1.455180e-01	-7.147258e-02	-6.179745e-17	-3.820257e-03	3.820257e-03	-3.820257e-03	-3.702271e-02	-1.353648e+01	2.102890e+00	-1.248503e+01	1.458792e+01
157           	-2.174415e-01	-1.457772e-01	-7.166434e-02	-6.179752e-17	-3.828196e-03	3.828196e-03	-3.828196e-03	-3.705642e-02	-1.354765e+01	2.104805e+00	-1.249525e+01	1.460005e+01
158           	-2.178692e-01	-1.460236e-01	-7.184566e-02	-6.179409e-17	-3.835726e-03	3.835726e-03	-3.835726e-03	-3.708894e-02	-1.355820e+01	2.106652e+00	-1.250488e+01	1.461153e+01
159           	-2.182803e-01	-1.462600e-01	-7.202033e-02	-6.179597e-17	-3.842963e-03	3.842963e-03	-3.842963e-03	-3.711983e-02	-1.356844e+01	2.108407e+00	-1.251423e+01	1.462264e+01
160           	-2.186697e-01	-1.464850e-01	-7.218463e-02	-6.179345e-17	-3.849818e-03	3.849818e-03	-3.849818e-03	-3.715020e-02	-1.357805e+01	2.110132e+00	-1.252298e+01	1.463311e+01
161           	-2.190484e-01	-1.467032e-01	-7.234517e-02	-6.179735e-17	-3.856485e-03	3.856485e-03	-3.856485e-03	-3.717902e-02	-1.358748e+01	2.111768e+00	-1.253160e+01	1.464337e+01
162           	-2.194083e-01	-1.469116e-01	-7.249669e-02	-6.179439e-17	-3.862822e-03	3.862822e-03	-3.862822e-03	-3.720745e-02	-1.359631e+01	2.113383e+00	-1.253962e+01	1.465300e+01
163           	-2.197585e-01	-1.471125e-01	-7.264594e-02	-6.180031e-17	-3.868987e-03	3.868987e-03	-3.868987e-03	-3.723330e-02	-1.360505e+01	2.114851e+00	-1.254762e+01	1.466248e+01