/*--------------------------------*- C++ -*----------------------------------*\
| =========                 |                                                 |
| \\      /  F ield         | OpenFOAM: The Open Source CFD Toolbox           |
|  \\    /   O peration     | Version:  2206                                  |
|   \\  /    A nd           | Website:  www.openfoam.com                      |
|    \\/     M anipulation  |                                                 |
\*---------------------------------------------------------------------------*/
FoamFile
{
    version     2.0;
    format      ascii;
    arch        "LSB;label=32;scalar=64";
    class       volScalarField;
    location    "90";
    object      k;
}
// * * * * * * * * * * * * * * * * * * * * * * * * * * * * * * * * * * * * * //

dimensions      [0 2 -2 0 0 0 0];

internalField   nonuniform List<scalar> 
66701
(
1.06529e-05
9.94375e-06
1.67302e-05
2.60698e-05
1.31034e-05
4.60858e-05
4.12928e-05
1.4365e-05
1.00744e-05
1.70239e-05
2.65888e-05
1.31144e-05
4.63234e-05
1.43997e-05
4.19017e-05
1.08262e-05
3.03759e-06
7.21375e-07
1.33187e-07
5.08701e-08
2.95563e-07
3.0776e-06
7.3115e-07
1.34852e-07
5.09891e-08
2.95195e-07
3.05451e-06
7.08142e-07
1.27962e-07
4.60334e-08
2.61638e-07
3.10949e-06
7.21322e-07
1.30264e-07
4.62862e-08
2.61882e-07
3.08704e-06
7.33232e-07
1.35278e-07
5.11198e-08
2.95917e-07
3.13557e-06
7.45198e-07
1.37307e-07
5.12551e-08
2.95444e-07
2.92016e-06
6.84065e-07
1.24859e-07
4.67203e-08
2.69393e-07
3.01719e-06
7.09686e-07
1.29883e-07
4.81147e-08
2.76579e-07
2.94062e-06
6.90298e-07
1.26022e-07
4.6861e-08
2.69589e-07
3.02481e-06
7.12025e-07
1.30346e-07
4.81747e-08
2.7667e-07
1.05447e-05
1.06164e-05
5.27385e-05
2.75342e-05
2.75862e-05
1.65587e-05
5.14801e-05
4.73078e-05
4.58475e-05
1.67145e-05
5.72657e-05
5.19106e-05
4.76554e-05
4.22191e-05
4.61207e-05
1.69135e-05
5.68949e-05
5.19423e-05
4.23404e-05
4.78017e-05
1.07505e-05
5.26487e-05
2.79062e-05
1.05939e-05
2.07511e-05
9.60521e-06
9.55054e-06
2.08888e-05
9.57149e-06
9.47294e-06
4.47528e-05
1.68751e-05
5.5891e-05
2.78508e-05
4.53462e-05
1.6848e-05
5.58098e-05
4.40557e-05
1.66075e-05
5.55082e-05
2.72327e-05
4.46231e-05
1.6543e-05
5.55502e-05
1.30791e-05
4.16458e-05
1.43372e-05
4.62547e-05
1.30772e-05
4.15186e-05
1.4306e-05
9.92476e-06
2.59812e-05
1.6674e-05
9.89774e-06
2.59729e-05
1.3192e-05
1.42642e-05
4.19632e-05
4.57078e-05
1.32014e-05
1.426e-05
4.19986e-05
1.01384e-05
2.66795e-05
1.69353e-05
1.01537e-05
2.66584e-05
1.07697e-05
2.0987e-05
9.67201e-06
9.69878e-06
4.45703e-05
5.63376e-05
2.75595e-05
5.58186e-05
1.67794e-05
4.52665e-05
2.78439e-05
1.69745e-05
5.49593e-05
1.07091e-05
3.38549e-05
2.43623e-05
2.46566e-05
1.74346e-05
3.33934e-05
2.41462e-05
2.48515e-05
1.73782e-05
2.45821e-05
1.70847e-05
2.4942e-05
1.7126e-05
5.71151e-05
5.28407e-05
5.84648e-05
5.81598e-05
5.72104e-05
5.86208e-05
5.82623e-05
5.50203e-05
5.46621e-05
5.77389e-05
4.7717e-05
5.78089e-05
5.5144e-05
5.48269e-05
5.31068e-05
5.71346e-05
5.13797e-05
5.73686e-05
5.23031e-05
5.70177e-05
5.13187e-05
5.52119e-05
5.44096e-05
5.70748e-05
4.76761e-05
5.80912e-05
5.45749e-05
5.44665e-05
5.32123e-05
5.06404e-05
5.75906e-05
5.63583e-05
5.34298e-05
5.04584e-05
5.75839e-05
5.53763e-05
5.56346e-05
5.88606e-05
4.76836e-05
5.59845e-05
5.4891e-05
5.8865e-05
5.76977e-05
5.25592e-05
5.79208e-05
5.8993e-05
5.75327e-05
3.01701e-06
7.1797e-07
1.32692e-07
5.08012e-08
2.95352e-07
3.04285e-06
7.23998e-07
1.3368e-07
5.09093e-08
2.95511e-07
3.0163e-06
7.00023e-07
1.26658e-07
4.58558e-08
2.61171e-07
3.06558e-06
7.11633e-07
1.28588e-07
4.60887e-08
2.6161e-07
3.11387e-06
7.23601e-07
1.30662e-07
4.6317e-08
2.61861e-07
3.08676e-06
7.3504e-07
1.35681e-07
5.11593e-08
2.95894e-07
3.03318e-06
7.21285e-07
1.33201e-07
5.08208e-08
2.95153e-07
2.91934e-06
6.84309e-07
1.24881e-07
4.66384e-08
2.68732e-07
3.02896e-06
7.13615e-07
1.30599e-07
4.81886e-08
2.76629e-07
2.92806e-06
6.86829e-07
1.2534e-07
4.67685e-08
2.6943e-07
3.0134e-06
7.096e-07
1.29883e-07
4.80238e-08
2.75846e-07
3.04986e-06
7.07919e-07
1.27953e-07
4.59869e-08
2.61266e-07
2.94634e-06
6.91189e-07
1.26165e-07
4.67955e-08
2.68936e-07
3.0257e-06
7.14145e-07
1.30799e-07
4.82276e-08
2.76731e-07
2.94809e-06
6.91709e-07
1.26258e-07
4.68877e-08
2.69624e-07
3.01573e-06
7.1118e-07
1.30257e-07
4.80749e-08
2.75915e-07
3.10606e-06
7.21225e-07
1.30256e-07
4.62404e-08
2.6153e-07
3.08361e-06
7.33295e-07
1.35315e-07
5.10697e-08
2.95487e-07
3.17206e-06
7.35718e-07
1.32717e-07
4.68088e-08
2.64139e-07
3.04389e-06
7.24718e-07
1.33877e-07
5.09498e-08
2.95591e-07
2.84873e-06
6.75319e-07
1.24833e-07
4.93453e-08
2.89884e-07
3.14236e-06
7.27747e-07
1.31354e-07
4.66378e-08
2.63829e-07
3.14264e-06
7.28107e-07
1.31412e-07
4.66683e-08
2.64034e-07
2.83261e-06
6.70948e-07
1.24071e-07
4.92617e-08
2.8983e-07
3.1147e-06
7.22007e-07
1.3036e-07
4.653e-08
2.63813e-07
3.10589e-06
7.19711e-07
1.29956e-07
4.64607e-08
2.63552e-07
2.84349e-06
6.74458e-07
1.24693e-07
4.93075e-08
2.89683e-07
2.82472e-06
6.70172e-07
1.23986e-07
4.92273e-08
2.89609e-07
3.07786e-06
7.31758e-07
1.34963e-07
5.09513e-08
2.94806e-07
3.0811e-06
7.32988e-07
1.35233e-07
5.10298e-08
2.95203e-07
3.14654e-06
7.46616e-07
1.37491e-07
5.12196e-08
2.95016e-07
3.14643e-06
7.46729e-07
1.37514e-07
5.12728e-08
2.95439e-07
3.16004e-06
7.32531e-07
1.32135e-07
4.6713e-08
2.63868e-07
2.88428e-06
6.84296e-07
1.26414e-07
4.95052e-08
2.89906e-07
2.88919e-06
6.86009e-07
1.26745e-07
4.95483e-08
2.89976e-07
4.15365e-05
4.51974e-05
2.99283e-05
4.49114e-05
4.39616e-05
4.61411e-05
3.03802e-05
4.51726e-05
4.41993e-05
4.76246e-05
3.10419e-05
4.54439e-05
4.51961e-05
4.86767e-05
3.14344e-05
4.75302e-05
4.60659e-05
4.92837e-05
3.17046e-05
4.86252e-05
4.77402e-05
5.01502e-05
3.22935e-05
5.00969e-05
4.9151e-05
5.15114e-05
3.21874e-05
5.04415e-05
4.90049e-05
5.18461e-05
3.28683e-05
5.04896e-05
4.83949e-05
5.23204e-05
3.30175e-05
5.11242e-05
5.04834e-05
5.21022e-05
3.34012e-05
5.11024e-05
5.1269e-05
5.23252e-05
3.3398e-05
5.01017e-05
5.10541e-05
5.12079e-05
3.39784e-05
5.05038e-05
5.17626e-05
5.23714e-05
3.39551e-05
5.15654e-05
5.18589e-05
5.26125e-05
3.41549e-05
5.17492e-05
5.15322e-05
5.17801e-05
3.36805e-05
5.28809e-05
5.166e-05
5.21836e-05
3.40854e-05
5.23266e-05
5.10081e-05
5.10747e-05
4.52311e-05
4.68899e-05
4.20757e-05
4.31627e-05
4.31965e-05
4.56645e-05
4.61826e-05
4.79154e-05
4.36837e-05
4.38747e-05
4.48721e-05
4.54429e-05
4.71868e-05
4.71527e-05
4.38086e-05
4.36107e-05
4.5508e-05
4.52289e-05
4.45556e-05
4.52096e-05
4.48343e-05
4.69257e-05
4.75328e-05
4.28265e-05
4.46467e-05
4.39244e-05
4.76402e-05
4.74747e-05
4.88982e-05
4.51276e-05
4.5575e-05
4.62433e-05
4.56644e-05
4.728e-05
4.87249e-05
4.56165e-05
4.53407e-05
4.55525e-05
4.63982e-05
4.52623e-05
4.49972e-05
4.65265e-05
4.82575e-05
4.87809e-05
4.4527e-05
4.49694e-05
4.61491e-05
4.87884e-05
4.84462e-05
4.95038e-05
4.66232e-05
4.57447e-05
4.69446e-05
4.68342e-05
4.85556e-05
5.01923e-05
4.63747e-05
4.54056e-05
4.79244e-05
4.55618e-05
4.67231e-05
4.7068e-05
4.80187e-05
4.84458e-05
4.9585e-05
4.63467e-05
4.60036e-05
4.61242e-05
4.86939e-05
4.96396e-05
4.98258e-05
4.64415e-05
4.79225e-05
4.64936e-05
4.82328e-05
4.95985e-05
5.02994e-05
4.81357e-05
4.58662e-05
4.78633e-05
4.76078e-05
4.77163e-05
4.86287e-05
4.80006e-05
4.96576e-05
5.00295e-05
4.54427e-05
4.67689e-05
4.58519e-05
4.95982e-05
5.04563e-05
5.08069e-05
4.71369e-05
4.73717e-05
4.82031e-05
4.78473e-05
5.09471e-05
5.15211e-05
4.73408e-05
4.80906e-05
4.85881e-05
4.98626e-05
4.89917e-05
5.0009e-05
4.93937e-05
5.03532e-05
5.16431e-05
4.62675e-05
4.90132e-05
4.78603e-05
5.07936e-05
5.06291e-05
5.15751e-05
4.8469e-05
4.82454e-05
4.94448e-05
4.93317e-05
5.15176e-05
5.18301e-05
4.88096e-05
4.93435e-05
5.07491e-05
5.07658e-05
4.94528e-05
5.02342e-05
5.00072e-05
5.17074e-05
5.10918e-05
4.81682e-05
4.90721e-05
4.96836e-05
5.17596e-05
5.10486e-05
5.22209e-05
4.97304e-05
4.99448e-05
4.98394e-05
4.98336e-05
5.1196e-05
5.15985e-05
5.01209e-05
5.07737e-05
5.12673e-05
5.13765e-05
4.99445e-05
5.14476e-05
5.05467e-05
5.15872e-05
5.23973e-05
4.98033e-05
4.83087e-05
5.00834e-05
5.22522e-05
5.21646e-05
5.22226e-05
4.95674e-05
5.07821e-05
5.03016e-05
5.05472e-05
5.13699e-05
5.20697e-05
5.14914e-05
5.09808e-05
5.16815e-05
5.19334e-05
5.06353e-05
5.13381e-05
5.12362e-05
5.22002e-05
5.24068e-05
4.98588e-05
5.04201e-05
5.10536e-05
5.22907e-05
5.22768e-05
5.24107e-05
5.01511e-05
5.02744e-05
5.11764e-05
5.01363e-05
5.19412e-05
5.13305e-05
5.16368e-05
5.18311e-05
5.15361e-05
5.17847e-05
5.1307e-05
5.11166e-05
5.15914e-05
5.18386e-05
5.31469e-05
5.05722e-05
5.10834e-05
5.10761e-05
5.22499e-05
5.17285e-05
5.22213e-05
5.06226e-05
5.08684e-05
5.13027e-05
5.03891e-05
5.19313e-05
5.20799e-05
5.11703e-05
5.10725e-05
5.20903e-05
5.15511e-05
5.13047e-05
5.05321e-05
5.25601e-05
5.31921e-05
5.21877e-05
5.11614e-05
5.15427e-05
5.13766e-05
5.22091e-05
5.30523e-05
5.27156e-05
5.15969e-05
5.06259e-05
5.17899e-05
5.1282e-05
5.13092e-05
5.26929e-05
5.22075e-05
5.14606e-05
5.19708e-05
5.19962e-05
5.21028e-05
5.07899e-05
5.1998e-05
5.23118e-05
5.28348e-05
5.14889e-05
5.09265e-05
5.15597e-05
5.2449e-05
5.34121e-05
5.16306e-05
5.18504e-05
5.13941e-05
5.14425e-05
5.15816e-05
5.24739e-05
5.29306e-05
5.21128e-05
5.14618e-05
5.21686e-05
5.23062e-05
5.22445e-05
5.20449e-05
5.16551e-05
5.26466e-05
5.32047e-05
5.15624e-05
5.1829e-05
5.06636e-05
5.2551e-05
5.22572e-05
5.27453e-05
5.13437e-05
5.17143e-05
5.20864e-05
5.1958e-05
5.30065e-05
5.25769e-05
5.16856e-05
5.26186e-05
5.23045e-05
5.27201e-05
5.25545e-05
5.2065e-05
5.21551e-05
5.31738e-05
5.32423e-05
5.03422e-05
5.09364e-05
5.05782e-05
5.17245e-05
5.27772e-05
5.20803e-05
5.15903e-05
5.19155e-05
5.17369e-05
5.16117e-05
5.27667e-05
5.26085e-05
5.24718e-05
5.27774e-05
5.23187e-05
5.20312e-05
5.22324e-05
5.28212e-05
5.15265e-05
5.33211e-05
5.30912e-05
5.13571e-05
5.20746e-05
4.98115e-05
5.21129e-05
5.23152e-05
5.21761e-05
5.19377e-05
5.08769e-05
5.22506e-05
5.08405e-05
5.21683e-05
5.15392e-05
5.15746e-05
5.2616e-05
5.15538e-05
5.12348e-05
5.12736e-05
5.16214e-05
5.15892e-05
5.31277e-05
5.25275e-05
5.03923e-05
5.11886e-05
5.01836e-05
5.15365e-05
5.0996e-05
5.22558e-05
5.08957e-05
5.17217e-05
5.11181e-05
5.23039e-05
4.9769e-05
9.92115e-06
1.01201e-05
5.30088e-05
3.53498e-05
4.37113e-05
4.20954e-05
4.41014e-05
5.21848e-05
3.54646e-05
2.51186e-05
2.51801e-05
4.60039e-05
2.548e-05
2.54472e-05
4.47799e-05
1.57796e-05
1.59501e-05
4.40735e-05
9.97069e-06
1.00262e-05
4.45259e-05
1.57255e-05
1.57849e-05
4.40229e-05
3.02018e-05
2.95906e-05
3.00744e-05
3.03101e-05
3.08007e-05
3.02639e-05
2.99621e-05
5.46631e-05
4.4848e-05
3.65846e-05
4.4928e-05
4.48732e-05
3.69319e-05
5.4258e-05
1.01988e-05
1.0234e-05
5.37179e-05
3.56922e-05
4.41611e-05
4.41865e-05
5.42286e-05
3.57751e-05
4.47728e-05
2.55869e-05
2.54142e-05
4.57659e-05
2.57587e-05
2.58222e-05
4.55924e-05
1.60932e-05
4.52616e-05
1.61446e-05
1.01659e-05
1.02743e-05
4.53351e-05
1.60608e-05
4.51457e-05
1.59898e-05
3.08586e-05
3.03255e-05
3.01283e-05
3.10235e-05
3.07052e-05
3.06374e-05
3.07449e-05
5.54371e-05
4.51936e-05
3.83267e-05
4.46909e-05
5.60201e-05
4.54896e-05
3.8439e-05
1.03403e-05
1.04223e-05
5.49843e-05
3.69533e-05
4.51598e-05
4.42211e-05
5.5086e-05
3.70097e-05
4.51182e-05
2.57626e-05
2.62847e-05
4.83143e-05
2.56928e-05
2.64349e-05
4.6052e-05
1.61561e-05
4.56938e-05
1.64385e-05
1.04732e-05
1.05297e-05
4.56651e-05
1.64121e-05
4.57224e-05
1.64795e-05
3.06688e-05
3.02722e-05
3.1211e-05
3.09993e-05
3.11061e-05
3.0354e-05
3.12754e-05
5.51328e-05
4.4748e-05
3.85221e-05
4.58055e-05
5.51205e-05
4.48077e-05
3.90212e-05
1.05362e-05
1.06139e-05
5.49033e-05
3.70499e-05
4.51858e-05
4.55322e-05
5.53904e-05
3.77445e-05
4.50174e-05
2.56799e-05
2.63748e-05
4.90894e-05
2.54569e-05
2.67726e-05
4.67225e-05
1.66247e-05
4.66208e-05
1.6718e-05
1.06569e-05
1.0713e-05
4.59671e-05
1.65275e-05
4.57135e-05
1.6716e-05
3.13836e-05
3.04849e-05
3.08274e-05
3.15529e-05
3.20993e-05
3.11618e-05
3.09406e-05
5.59039e-05
4.38755e-05
3.953e-05
4.7933e-05
5.59967e-05
4.51063e-05
3.97485e-05
1.07406e-05
1.07919e-05
5.605e-05
3.80945e-05
4.44597e-05
4.622e-05
5.5789e-05
3.81386e-05
4.43652e-05
2.59562e-05
2.6906e-05
4.94728e-05
2.64181e-05
2.71896e-05
4.68508e-05
1.69247e-05
4.69217e-05
1.68953e-05
1.08221e-05
1.08114e-05
4.65974e-05
1.67422e-05
4.69107e-05
1.67974e-05
3.22474e-05
3.14704e-05
3.10743e-05
3.22815e-05
3.2344e-05
3.21813e-05
3.17501e-05
5.79691e-05
4.71756e-05
3.99249e-05
4.96254e-05
5.76655e-05
4.73873e-05
3.99634e-05
1.09376e-05
1.08697e-05
5.6833e-05
3.7985e-05
4.6496e-05
4.7995e-05
5.66305e-05
3.82525e-05
4.67031e-05
2.71213e-05
2.7678e-05
5.03516e-05
2.7518e-05
2.77748e-05
4.71077e-05
1.70033e-05
4.74337e-05
1.71683e-05
1.09306e-05
1.0878e-05
4.72262e-05
1.68964e-05
4.66733e-05
1.69468e-05
3.2111e-05
3.22211e-05
3.19166e-05
3.2155e-05
3.23607e-05
3.27672e-05
3.23585e-05
5.90186e-05
4.82445e-05
4.02384e-05
5.04763e-05
5.80727e-05
4.85624e-05
4.05277e-05
1.09929e-05
1.08651e-05
5.67255e-05
3.91562e-05
4.75838e-05
4.93125e-05
5.74939e-05
3.98622e-05
4.78303e-05
2.7879e-05
2.77399e-05
5.16877e-05
2.79211e-05
2.75033e-05
4.71341e-05
1.71956e-05
4.77428e-05
1.72797e-05
1.09374e-05
1.09603e-05
4.70707e-05
1.69892e-05
4.67151e-05
1.69897e-05
3.23927e-05
3.26024e-05
3.24e-05
3.27853e-05
3.31786e-05
3.2708e-05
3.2934e-05
5.90158e-05
4.8751e-05
4.1281e-05
5.03618e-05
5.90477e-05
4.85596e-05
4.127e-05
1.10561e-05
1.10459e-05
5.76616e-05
4.01378e-05
4.81172e-05
4.89446e-05
5.75421e-05
4.00882e-05
4.75791e-05
2.7944e-05
2.80397e-05
5.16108e-05
2.79893e-05
2.78991e-05
4.76886e-05
1.71649e-05
4.77545e-05
1.72639e-05
1.09343e-05
1.08719e-05
4.69353e-05
1.68809e-05
4.66973e-05
1.68019e-05
3.32681e-05
3.31714e-05
3.25137e-05
3.31002e-05
3.32208e-05
3.29176e-05
3.28515e-05
5.8797e-05
4.88823e-05
4.15345e-05
5.11906e-05
5.85195e-05
4.79925e-05
4.15373e-05
1.10106e-05
1.09988e-05
5.77228e-05
4.0261e-05
4.80834e-05
4.96963e-05
5.75839e-05
4.04276e-05
4.82723e-05
2.78821e-05
2.7971e-05
5.14537e-05
2.79902e-05
2.75815e-05
4.72873e-05
1.72548e-05
4.7392e-05
1.7135e-05
1.09349e-05
1.0955e-05
4.69064e-05
1.67737e-05
4.67765e-05
1.69024e-05
3.27059e-05
3.33318e-05
3.27503e-05
3.30206e-05
3.3263e-05
3.36541e-05
3.34933e-05
5.90847e-05
4.80355e-05
4.21816e-05
5.03618e-05
5.82454e-05
4.87189e-05
4.22935e-05
1.1019e-05
1.09419e-05
5.77851e-05
4.08898e-05
4.83417e-05
5.00178e-05
5.7168e-05
4.07378e-05
4.78262e-05
2.78429e-05
2.75067e-05
5.23187e-05
2.78767e-05
2.78899e-05
4.71895e-05
1.7127e-05
4.72412e-05
1.71766e-05
1.09456e-05
1.09247e-05
4.73182e-05
1.69563e-05
4.68861e-05
1.69826e-05
3.33353e-05
3.37016e-05
3.33212e-05
3.34732e-05
3.33359e-05
3.3697e-05
3.36281e-05
5.9256e-05
4.80811e-05
4.25247e-05
5.08002e-05
5.91193e-05
4.86306e-05
4.24924e-05
1.0993e-05
1.09407e-05
5.72385e-05
4.09923e-05
4.87055e-05
5.14133e-05
5.77405e-05
4.1011e-05
4.84484e-05
2.78797e-05
2.761e-05
5.27308e-05
2.77646e-05
2.78476e-05
4.8046e-05
1.71259e-05
4.74107e-05
1.72856e-05
1.08651e-05
1.0879e-05
4.75635e-05
1.7024e-05
4.7574e-05
1.70066e-05
3.33389e-05
3.36304e-05
3.33704e-05
3.35151e-05
3.36718e-05
3.33927e-05
3.359e-05
5.8819e-05
4.87387e-05
4.25068e-05
4.99896e-05
5.8855e-05
4.86152e-05
4.21177e-05
1.09503e-05
1.08363e-05
5.68795e-05
4.11398e-05
4.84334e-05
5.06186e-05
5.7181e-05
4.13518e-05
4.77741e-05
2.76703e-05
2.74833e-05
5.20486e-05
2.79477e-05
2.78125e-05
4.79799e-05
1.73209e-05
4.76786e-05
1.7248e-05
1.08869e-05
1.08879e-05
4.75177e-05
1.69454e-05
4.74719e-05
1.69589e-05
3.37316e-05
3.35776e-05
3.35057e-05
3.40005e-05
3.38496e-05
3.38606e-05
3.40049e-05
5.74689e-05
4.78612e-05
4.22643e-05
5.13032e-05
5.81893e-05
4.81967e-05
4.28447e-05
1.09712e-05
1.08909e-05
5.73962e-05
4.16529e-05
4.81888e-05
5.18523e-05
5.71298e-05
4.16622e-05
4.84645e-05
2.80234e-05
2.78975e-05
5.25205e-05
2.8042e-05
2.79278e-05
4.7347e-05
1.72712e-05
4.73191e-05
1.69651e-05
1.09332e-05
1.08889e-05
4.73527e-05
1.69421e-05
4.73588e-05
1.69848e-05
3.3493e-05
3.39015e-05
3.40368e-05
3.36762e-05
3.40911e-05
3.40974e-05
3.34873e-05
5.83108e-05
4.81355e-05
4.28492e-05
5.25197e-05
5.73134e-05
4.81088e-05
4.286e-05
1.09168e-05
1.09222e-05
5.67156e-05
4.19239e-05
4.82952e-05
5.16721e-05
5.76271e-05
4.20265e-05
4.80239e-05
2.78017e-05
2.77351e-05
5.24159e-05
2.74897e-05
2.7737e-05
4.75023e-05
1.70679e-05
4.74391e-05
1.71248e-05
1.08461e-05
1.08743e-05
4.70317e-05
1.68434e-05
4.71161e-05
1.69188e-05
3.37307e-05
3.41288e-05
3.39141e-05
3.40169e-05
3.41015e-05
3.40528e-05
3.37613e-05
5.7257e-05
4.73925e-05
4.22126e-05
5.26818e-05
5.81545e-05
4.69287e-05
4.28983e-05
1.09124e-05
1.09494e-05
5.68104e-05
4.1448e-05
4.81472e-05
5.1358e-05
5.73928e-05
4.20338e-05
4.77699e-05
2.76353e-05
2.77939e-05
5.20457e-05
2.7697e-05
2.77032e-05
4.68803e-05
1.71007e-05
4.80858e-05
1.69325e-05
1.08142e-05
1.07685e-05
4.7094e-05
1.67424e-05
4.69033e-05
1.67163e-05
3.41993e-05
3.3845e-05
3.33968e-05
3.40175e-05
3.36931e-05
3.3289e-05
3.29909e-05
5.75828e-05
4.76991e-05
4.30513e-05
5.29616e-05
5.80589e-05
4.79077e-05
4.30969e-05
1.09736e-05
1.08876e-05
5.71123e-05
4.20252e-05
4.73847e-05
5.06358e-05
5.61496e-05
4.18272e-05
4.75363e-05
2.77449e-05
2.75806e-05
5.21369e-05
2.76024e-05
2.76142e-05
1.06682e-05
1.70718e-05
4.68883e-05
3.40482e-05
3.2714e-05
3.24851e-05
4.76548e-05
4.19728e-05
5.8027e-05
1.10411e-05
4.16348e-05
4.80884e-05
5.68068e-05
2.76073e-05
2.77922e-05
2.57447e-05
2.55688e-05
4.58957e-05
2.60842e-05
2.62223e-05
9.91414e-06
1.00492e-05
1.01249e-05
1.01137e-05
4.6163e-05
2.59509e-05
2.58993e-05
2.57908e-05
2.62122e-05
1.00327e-05
1.00038e-05
5.26635e-05
3.52224e-05
4.36736e-05
4.30275e-05
4.3826e-05
5.2312e-05
3.58041e-05
4.44175e-05
1.57419e-05
1.58472e-05
4.43305e-05
4.45837e-05
1.56409e-05
1.58299e-05
4.42525e-05
5.28789e-05
4.25415e-05
3.57293e-05
4.46042e-05
4.44243e-05
5.40938e-05
3.52112e-05
5.34996e-05
4.24995e-05
3.59355e-05
4.44824e-05
4.35782e-05
5.35366e-05
3.54796e-05
4.43693e-05
1.5927e-05
1.59204e-05
4.50983e-05
4.41649e-05
1.57874e-05
1.57269e-05
4.43294e-05
9.81956e-06
9.92209e-06
9.79885e-06
9.9109e-06
4.61381e-05
2.56727e-05
2.57014e-05
2.5597e-05
2.55868e-05
9.97181e-06
9.96414e-06
9.94522e-06
9.90224e-06
1.0067e-05
1.0116e-05
9.9655e-06
1.00373e-05
2.59739e-05
2.54329e-05
4.74806e-05
2.61823e-05
2.58479e-05
1.01626e-05
1.01018e-05
1.00887e-05
1.00634e-05
4.75481e-05
2.62972e-05
2.61407e-05
2.62346e-05
2.56706e-05
4.45912e-05
1.58554e-05
1.59866e-05
4.43023e-05
5.38027e-05
4.40978e-05
3.5711e-05
4.46627e-05
4.46478e-05
3.62372e-05
5.347e-05
5.37871e-05
4.41818e-05
3.56037e-05
4.41483e-05
4.45544e-05
3.595e-05
5.26279e-05
4.48299e-05
1.59621e-05
1.5921e-05
4.53361e-05
4.51311e-05
1.60932e-05
1.60069e-05
4.51753e-05
5.33844e-05
4.48263e-05
4.50544e-05
3.64138e-05
4.44769e-05
3.62542e-05
5.47511e-05
5.38144e-05
4.4864e-05
4.53518e-05
3.67666e-05
4.45944e-05
3.61049e-05
5.38744e-05
2.57715e-05
2.61558e-05
4.738e-05
2.58333e-05
2.63262e-05
1.01883e-05
1.01765e-05
1.01307e-05
1.01349e-05
4.69208e-05
2.6107e-05
2.63991e-05
2.62635e-05
2.65004e-05
1.03035e-05
1.0272e-05
5.42094e-05
4.40595e-05
3.63264e-05
4.43053e-05
4.38808e-05
3.69522e-05
5.37373e-05
4.4423e-05
1.5999e-05
1.59777e-05
4.42374e-05
5.43212e-05
3.61256e-05
4.48681e-05
4.41225e-05
3.63832e-05
4.46334e-05
5.33492e-05
4.418e-05
1.5852e-05
1.5896e-05
4.51135e-05
5.44168e-05
4.45001e-05
4.50026e-05
3.65994e-05
4.43024e-05
3.69822e-05
5.41192e-05
4.47156e-05
1.61724e-05
1.61924e-05
4.51076e-05
5.43699e-05
4.47136e-05
3.68893e-05
4.56047e-05
3.66144e-05
4.54255e-05
5.4782e-05
4.50136e-05
1.59666e-05
1.61141e-05
4.53488e-05
5.50798e-05
3.66715e-05
4.44296e-05
4.43242e-05
3.70263e-05
4.47337e-05
5.41962e-05
4.51276e-05
1.57468e-05
1.57913e-05
4.51352e-05
5.52888e-05
4.52019e-05
4.55437e-05
3.76203e-05
4.4892e-05
3.72995e-05
5.5861e-05
4.55773e-05
1.62872e-05
1.6129e-05
4.53839e-05
5.46114e-05
4.45326e-05
3.77055e-05
4.46602e-05
3.74144e-05
4.458e-05
5.56605e-05
4.50378e-05
1.59598e-05
1.59481e-05
4.53894e-05
2.63186e-05
2.59397e-05
4.74979e-05
2.63288e-05
2.59142e-05
1.00265e-05
1.00653e-05
1.02924e-05
1.02317e-05
4.75205e-05
2.62933e-05
2.62928e-05
2.63873e-05
2.63095e-05
1.01664e-05
1.01428e-05
5.36891e-05
3.59577e-05
4.48128e-05
4.30301e-05
5.38229e-05
3.60863e-05
4.51225e-05
4.53992e-05
1.5945e-05
4.51222e-05
1.60098e-05
4.54839e-05
1.58749e-05
4.49682e-05
1.59315e-05
5.45901e-05
4.45524e-05
3.63617e-05
4.51503e-05
3.6337e-05
4.50777e-05
5.50197e-05
5.46001e-05
4.34489e-05
3.66534e-05
4.56477e-05
3.62639e-05
4.52025e-05
5.44314e-05
4.56042e-05
1.60672e-05
1.6037e-05
4.59295e-05
4.56112e-05
1.6166e-05
1.61604e-05
4.53849e-05
9.91984e-06
9.98839e-06
9.95039e-06
1.00228e-05
4.64005e-05
2.57964e-05
2.63744e-05
2.55756e-05
2.57966e-05
9.98136e-06
9.93813e-06
1.02157e-05
1.00792e-05
1.01811e-05
1.01998e-05
1.01797e-05
1.02261e-05
2.63444e-05
2.59434e-05
4.80453e-05
2.6605e-05
2.62901e-05
1.02981e-05
1.02456e-05
1.03775e-05
1.02782e-05
4.8789e-05
2.65898e-05
2.6528e-05
2.66631e-05
2.64129e-05
4.58944e-05
1.61992e-05
4.56799e-05
1.61776e-05
5.46614e-05
4.49509e-05
3.58806e-05
4.51502e-05
5.40935e-05
4.49347e-05
3.63772e-05
5.46542e-05
4.52996e-05
3.68191e-05
4.58631e-05
5.3787e-05
4.54772e-05
3.65757e-05
4.57246e-05
1.62273e-05
1.62491e-05
4.58023e-05
4.59999e-05
1.6506e-05
1.63662e-05
4.52944e-05
5.52007e-05
4.61128e-05
4.58118e-05
3.59481e-05
4.56822e-05
3.60304e-05
5.50983e-05
5.49808e-05
4.59393e-05
4.63435e-05
3.67851e-05
4.53555e-05
3.65555e-05
5.52044e-05
2.63139e-05
2.68021e-05
4.79032e-05
2.66537e-05
2.65993e-05
1.03287e-05
1.03045e-05
1.03516e-05
1.03146e-05
4.80389e-05
2.69584e-05
2.66948e-05
2.6501e-05
2.66114e-05
1.02518e-05
1.02439e-05
5.46074e-05
4.51586e-05
3.66539e-05
4.51576e-05
5.47064e-05
4.50339e-05
3.68083e-05
4.53938e-05
1.63152e-05
4.52612e-05
1.63228e-05
5.56336e-05
3.73907e-05
4.53321e-05
4.63935e-05
5.47939e-05
3.7715e-05
4.52016e-05
4.54773e-05
1.63191e-05
1.62102e-05
4.5806e-05
5.54899e-05
4.5183e-05
4.5532e-05
3.75408e-05
4.55765e-05
3.71293e-05
5.53382e-05
4.55806e-05
1.64624e-05
1.6407e-05
4.59143e-05
5.57127e-05
4.62634e-05
3.85065e-05
4.56406e-05
3.78136e-05
4.60345e-05
5.519e-05
4.51961e-05
1.62291e-05
4.61136e-05
1.62701e-05
5.58074e-05
3.8427e-05
4.45859e-05
4.59386e-05
5.55134e-05
3.84896e-05
4.46945e-05
4.5815e-05
1.59455e-05
4.56455e-05
1.57725e-05
5.5887e-05
4.47134e-05
4.48587e-05
3.89434e-05
4.51769e-05
3.83538e-05
5.56246e-05
4.57272e-05
1.6169e-05
1.61761e-05
4.53011e-05
5.57383e-05
4.62205e-05
3.84509e-05
4.47628e-05
3.80543e-05
4.45837e-05
5.57129e-05
4.58536e-05
1.5921e-05
1.60007e-05
4.60195e-05
2.67527e-05
2.65524e-05
4.85195e-05
2.68805e-05
2.65943e-05
1.02195e-05
1.02309e-05
1.04369e-05
1.04223e-05
4.84913e-05
2.70273e-05
2.67058e-05
2.69184e-05
2.67664e-05
1.0172e-05
1.01664e-05
5.50341e-05
3.65318e-05
4.56695e-05
4.50513e-05
5.45e-05
3.71293e-05
4.58925e-05
4.63914e-05
1.60356e-05
4.5768e-05
1.61526e-05
4.60065e-05
1.61896e-05
4.57556e-05
1.63473e-05
5.49596e-05
4.45973e-05
3.70099e-05
4.51823e-05
3.66163e-05
4.47188e-05
5.53108e-05
5.43956e-05
4.51837e-05
3.70625e-05
4.63433e-05
3.65633e-05
4.57715e-05
5.55282e-05
4.66071e-05
1.6043e-05
1.60233e-05
4.66703e-05
4.63035e-05
1.64865e-05
1.63555e-05
4.62608e-05
1.00247e-05
9.97178e-06
1.0204e-05
1.0308e-05
4.76995e-05
2.58924e-05
2.6716e-05
2.55971e-05
2.6596e-05
9.92401e-06
9.99274e-06
1.0282e-05
1.03021e-05
1.02981e-05
1.04151e-05
1.04471e-05
1.04609e-05
2.66671e-05
2.70022e-05
4.85429e-05
2.69444e-05
2.71156e-05
1.05744e-05
1.04995e-05
1.06041e-05
1.05611e-05
4.93606e-05
2.71555e-05
2.7248e-05
2.72895e-05
2.72469e-05
4.63558e-05
1.63987e-05
4.60985e-05
1.66343e-05
5.41933e-05
4.58199e-05
3.61233e-05
4.66338e-05
5.45312e-05
4.63589e-05
3.63704e-05
5.54014e-05
4.63996e-05
3.70811e-05
4.59497e-05
5.51135e-05
4.65367e-05
3.73797e-05
4.57968e-05
1.66085e-05
1.65111e-05
4.66703e-05
4.64191e-05
1.66456e-05
1.65399e-05
4.63334e-05
5.49551e-05
4.68859e-05
4.66171e-05
3.72002e-05
4.62203e-05
3.68291e-05
5.50201e-05
5.49788e-05
4.66887e-05
4.71222e-05
3.81898e-05
4.59885e-05
3.80992e-05
5.56614e-05
2.70407e-05
2.68561e-05
4.93279e-05
2.69513e-05
2.68795e-05
1.03297e-05
1.02818e-05
1.05939e-05
1.0542e-05
4.9234e-05
2.73321e-05
2.66706e-05
2.74127e-05
2.70009e-05
1.03519e-05
1.03136e-05
5.605e-05
4.63524e-05
3.78415e-05
4.66121e-05
5.46632e-05
4.62992e-05
3.80562e-05
4.5944e-05
1.657e-05
4.60363e-05
1.66797e-05
5.57437e-05
3.86065e-05
4.65134e-05
4.61424e-05
5.59935e-05
3.87019e-05
4.663e-05
4.59916e-05
1.66264e-05
1.65859e-05
4.6183e-05
5.60652e-05
4.77383e-05
4.60056e-05
3.904e-05
4.61013e-05
3.88713e-05
5.58972e-05
4.61851e-05
1.67328e-05
1.6719e-05
4.64597e-05
5.59821e-05
4.55916e-05
3.82214e-05
4.70664e-05
3.8434e-05
4.69849e-05
5.5727e-05
4.61045e-05
1.62027e-05
4.61217e-05
1.60158e-05
5.59728e-05
3.82281e-05
4.4958e-05
4.70858e-05
5.59928e-05
3.8592e-05
4.41775e-05
4.62888e-05
1.59641e-05
4.62378e-05
1.59444e-05
5.61166e-05
4.64409e-05
4.42579e-05
3.94948e-05
4.48946e-05
3.89161e-05
5.59169e-05
4.57421e-05
1.61088e-05
1.61721e-05
4.64054e-05
5.60301e-05
4.71272e-05
3.91742e-05
4.39264e-05
3.87699e-05
4.43696e-05
5.6092e-05
4.63063e-05
1.58894e-05
1.59061e-05
4.6368e-05
2.71452e-05
2.66307e-05
4.92013e-05
2.73216e-05
2.6005e-05
1.01391e-05
1.01575e-05
1.06807e-05
1.06754e-05
4.89806e-05
2.75851e-05
2.62122e-05
2.75317e-05
2.62673e-05
1.00937e-05
1.0125e-05
5.55915e-05
3.70531e-05
4.57995e-05
4.61653e-05
5.54044e-05
3.7138e-05
4.67012e-05
4.61915e-05
1.60987e-05
4.67467e-05
1.61048e-05
4.62821e-05
1.64e-05
4.65743e-05
1.65509e-05
5.49734e-05
4.61585e-05
3.80374e-05
4.4087e-05
3.78175e-05
4.50505e-05
5.57165e-05
5.54793e-05
4.62586e-05
3.73651e-05
4.67459e-05
3.73227e-05
4.67809e-05
5.58369e-05
4.6564e-05
1.59667e-05
1.60674e-05
4.62969e-05
4.58885e-05
1.66464e-05
1.66123e-05
4.63435e-05
9.97983e-06
9.94915e-06
1.03406e-05
1.03625e-05
4.91354e-05
2.55287e-05
2.68469e-05
2.54219e-05
2.66725e-05
9.99776e-06
9.94207e-06
1.0481e-05
1.03389e-05
1.05577e-05
1.06768e-05
1.06365e-05
1.06418e-05
2.74319e-05
2.74534e-05
4.98095e-05
2.76892e-05
2.75115e-05
1.07604e-05
1.06971e-05
1.06172e-05
1.06632e-05
5.00492e-05
2.7913e-05
2.76038e-05
2.77757e-05
2.73893e-05
4.69598e-05
1.68353e-05
4.59158e-05
1.69728e-05
5.61912e-05
4.65937e-05
3.77972e-05
4.63575e-05
5.48483e-05
4.67961e-05
3.79478e-05
5.5881e-05
4.71768e-05
3.84451e-05
4.81024e-05
5.53074e-05
4.75351e-05
3.8431e-05
4.70048e-05
1.69401e-05
1.68057e-05
4.69352e-05
4.72178e-05
1.70683e-05
1.70267e-05
4.70698e-05
5.61373e-05
4.64244e-05
4.77493e-05
3.82922e-05
4.69397e-05
3.82094e-05
5.67709e-05
5.59163e-05
4.82846e-05
4.79445e-05
3.80027e-05
4.7265e-05
3.85738e-05
5.64406e-05
2.7691e-05
2.70564e-05
5.05519e-05
2.7513e-05
2.73433e-05
1.04361e-05
1.05749e-05
1.0753e-05
1.06526e-05
5.00322e-05
2.74972e-05
2.74558e-05
2.76673e-05
2.72075e-05
1.08197e-05
1.06926e-05
5.58499e-05
4.67524e-05
3.9219e-05
4.80342e-05
5.61384e-05
4.69358e-05
3.93186e-05
4.65452e-05
1.69253e-05
4.64769e-05
1.67947e-05
5.65902e-05
3.85159e-05
4.72668e-05
4.64018e-05
5.55581e-05
3.83501e-05
4.67389e-05
4.64266e-05
1.68632e-05
1.68258e-05
4.68082e-05
5.65957e-05
4.71599e-05
4.73594e-05
3.92046e-05
4.68878e-05
3.87473e-05
5.73017e-05
4.63713e-05
1.70626e-05
1.70273e-05
4.68121e-05
5.65727e-05
4.70264e-05
3.86355e-05
4.78814e-05
3.8259e-05
4.75862e-05
5.70685e-05
4.69705e-05
1.61402e-05
4.64811e-05
1.63959e-05
5.56212e-05
3.9504e-05
4.36605e-05
4.79012e-05
5.60521e-05
3.96454e-05
4.45675e-05
4.64066e-05
1.58782e-05
4.66681e-05
1.61604e-05
5.6059e-05
4.82525e-05
4.70448e-05
3.98304e-05
4.55968e-05
3.97761e-05
5.6801e-05
4.69425e-05
1.69255e-05
1.65384e-05
4.74985e-05
5.6515e-05
4.80493e-05
3.98986e-05
4.60401e-05
3.93259e-05
4.50371e-05
5.70062e-05
4.65357e-05
1.6485e-05
1.62827e-05
4.70697e-05
2.77323e-05
2.62133e-05
4.95593e-05
2.78033e-05
2.61786e-05
1.01091e-05
1.02386e-05
1.08469e-05
1.08559e-05
4.97224e-05
2.81268e-05
2.72095e-05
2.80199e-05
2.64959e-05
1.05806e-05
1.0382e-05
5.55756e-05
3.8001e-05
4.69504e-05
4.53643e-05
5.60383e-05
3.80043e-05
4.6693e-05
4.67587e-05
1.59583e-05
4.63968e-05
1.61958e-05
4.63697e-05
1.67615e-05
4.65138e-05
1.68142e-05
5.52807e-05
4.65881e-05
3.78734e-05
4.58141e-05
3.80646e-05
4.46722e-05
5.57312e-05
5.55027e-05
4.55308e-05
3.76578e-05
4.72632e-05
3.76545e-05
4.66711e-05
5.62307e-05
4.68581e-05
1.65556e-05
1.6342e-05
4.70802e-05
4.71142e-05
1.68787e-05
1.68406e-05
4.7146e-05
1.01148e-05
1.02976e-05
1.05194e-05
1.0516e-05
4.9523e-05
2.66781e-05
2.76693e-05
2.66719e-05
2.72109e-05
1.04585e-05
1.034e-05
1.06843e-05
1.05653e-05
1.07717e-05
1.0764e-05
1.07081e-05
1.06478e-05
2.79831e-05
2.75988e-05
5.08246e-05
2.80499e-05
2.73437e-05
1.07901e-05
1.07756e-05
1.06625e-05
1.06671e-05
5.08434e-05
2.80004e-05
2.75657e-05
2.81293e-05
2.75313e-05
4.6899e-05
1.70983e-05
4.7531e-05
1.719e-05
5.71254e-05
4.7455e-05
3.8026e-05
4.73551e-05
5.6923e-05
4.80907e-05
3.80675e-05
5.65376e-05
4.80775e-05
3.84628e-05
4.80495e-05
5.6267e-05
4.82074e-05
3.80975e-05
4.75792e-05
1.70319e-05
1.68168e-05
4.73083e-05
4.74669e-05
1.72153e-05
1.70962e-05
4.76094e-05
5.72184e-05
4.78895e-05
4.7762e-05
3.87813e-05
4.81542e-05
3.83516e-05
5.68391e-05
5.60702e-05
4.74925e-05
4.77614e-05
3.85205e-05
4.82406e-05
3.82211e-05
5.59519e-05
2.80032e-05
2.79094e-05
5.08745e-05
2.80723e-05
2.80466e-05
1.08503e-05
1.09029e-05
1.0925e-05
1.08994e-05
5.08993e-05
2.8334e-05
2.80188e-05
2.82624e-05
2.79914e-05
1.09851e-05
1.09577e-05
5.7796e-05
4.69588e-05
3.87563e-05
4.7405e-05
5.76491e-05
4.73669e-05
3.87909e-05
4.68861e-05
1.69674e-05
4.67995e-05
1.69071e-05
5.75175e-05
3.91817e-05
4.78368e-05
4.91908e-05
5.62512e-05
3.9252e-05
4.75645e-05
4.72734e-05
1.68953e-05
1.67457e-05
4.72365e-05
5.70709e-05
4.7952e-05
4.744e-05
3.93906e-05
4.73914e-05
3.90809e-05
5.71908e-05
4.62754e-05
1.71346e-05
1.72049e-05
4.70013e-05
5.76988e-05
4.97566e-05
4.00884e-05
4.7881e-05
4.00735e-05
4.83001e-05
5.69098e-05
4.72104e-05
1.69778e-05
4.76466e-05
1.71858e-05
5.78623e-05
3.99144e-05
4.62534e-05
4.88979e-05
5.64262e-05
3.97347e-05
4.71201e-05
4.7904e-05
1.6795e-05
4.72496e-05
1.6818e-05
5.81192e-05
4.97694e-05
4.83832e-05
4.00132e-05
4.80826e-05
3.99091e-05
5.80808e-05
4.79379e-05
1.73089e-05
1.72749e-05
4.78827e-05