/*--------------------------------*- C++ -*----------------------------------*\
| =========                 |                                                 |
| \\      /  F ield         | OpenFOAM: The Open Source CFD Toolbox           |
|  \\    /   O peration     | Version:  2206                                  |
|   \\  /    A nd           | Website:  www.openfoam.com                      |
|    \\/     M anipulation  |                                                 |
\*---------------------------------------------------------------------------*/
FoamFile
{
    version     2.0;
    format      ascii;
    arch        "LSB;label=32;scalar=64";
    class       surfaceScalarField;
    location    "90";
    object      phi;
}
// * * * * * * * * * * * * * * * * * * * * * * * * * * * * * * * * * * * * * //

dimensions      [0 3 -1 0 0 0 0];

oriented        oriented;

internalField   nonuniform List<scalar> 
196491
(
-2.35886e-12
-1.27359e-12
-6.65893e-09
-3.0623e-12
-1.88188e-12
-2.03663e-12
-5.48686e-09
-4.11264e-12
-1.27554e-12
-1.33106e-08
-6.71459e-12
-2.04384e-08
-1.14076e-11
-1.30334e-12
-7.27129e-13
-9.73915e-09
4.52857e-12
1.42404e-11
-4.28075e-14
-1.98419e-08
-1.88288e-08
-9.65852e-15
-6.77497e-13
-1.18215e-08
-3.08892e-12
-2.1424e-12
-1.73343e-12
-5.48624e-09
-4.30497e-12
2.51301e-12
-1.36837e-12
-1.33131e-08
-6.98907e-12
-2.04354e-08
-1.28306e-12
-1.18054e-11
-5.21318e-13
-9.73744e-09
1.43183e-11
4.49914e-12
-1.98383e-08
-6.26908e-13
-1.18203e-08
-1.88234e-08
-1.31758e-12
-6.66156e-09
-7.79568e-13
-7.5276e-14
-4.34936e-09
-4.30834e-13
1.35225e-14
-2.33604e-09
-2.10289e-13
2.93156e-14
-1.14753e-09
-7.22451e-14
2.29122e-14
-4.74793e-10
5.50893e-15
-1.12927e-10
-1.21434e-12
2.6967e-13
-2.60777e-13
-4.34983e-09
-6.35886e-13
1.31445e-13
-1.35728e-13
-2.33444e-09
-2.8746e-13
6.41332e-14
-6.45012e-14
-1.14606e-09
-9.65374e-14
3.10549e-14
-2.51093e-14
-4.73986e-10
3.96552e-15
-7.46778e-15
-1.12711e-10
-6.76776e-13
-2.3266e-09
-3.04572e-13
-1.25207e-09
-1.17336e-13
-6.14801e-10
-3.75412e-14
-2.53918e-10
-6.01705e-11
-7.45912e-13
1.7686e-13
-3.29266e-13
-2.3273e-09
-3.51232e-13
7.30871e-14
-1.61659e-13
-1.2525e-09
-1.43178e-13
3.61848e-14
-7.10905e-14
-6.14966e-10
-5.26062e-14
1.84379e-14
-2.54825e-14
-2.54004e-10
5.71909e-17
-7.80307e-15
-6.01824e-11
-7.30814e-13
-4.35128e-09
-3.44897e-13
-2.33711e-09
-1.35398e-13
-1.14809e-09
-3.4968e-14
-4.75079e-10
-1.12996e-10
-9.76527e-13
-3.45784e-13
-4.34963e-09
-4.69227e-13
-1.96627e-13
-2.3344e-09
-1.85786e-13
-1.04991e-13
-1.14595e-09
-5.08112e-14
-4.86947e-14
-4.73992e-10
-1.1192e-14
-1.12687e-10
-3.90169e-13
-1.88384e-13
-2.66093e-09
-1.70055e-13
-1.12546e-13
-1.43152e-09
-5.55952e-14
-6.48708e-14
-7.03218e-10
-1.54461e-14
-3.34303e-14
-2.90688e-10
-6.22846e-15
-6.89964e-11
-4.04282e-13
-2.53186e-15
-2.90475e-09
-2.05952e-13
-1.4618e-15
-1.56197e-09
-8.85061e-14
9.71798e-16
-7.67566e-10
-3.43261e-14
2.56172e-15
-3.17526e-10
-8.76644e-16
-7.54764e-11
-2.87665e-13
-1.57042e-13
-2.66076e-09
-1.38e-13
-7.84127e-14
-1.43141e-09
-5.91557e-14
-3.24058e-14
-7.03113e-10
-2.78361e-14
-9.37088e-15
-2.90656e-10
-3.57212e-15
-6.89905e-11
-3.52384e-13
-2.90456e-09
-1.66319e-13
-1.56188e-09
-6.60629e-14
-7.67524e-10
-2.27493e-14
-3.17511e-10
-7.54715e-11
-2.81113e-11
-9.56463e-12
-4.44443e-12
-6.7006e-09
-4.15171e-12
-2.34469e-12
6.66725e-09
-1.66696e-12
-6.65909e-09
3.81046e-11
3.12492e-11
2.74207e-08
4.14374e-11
4.14136e-11
-2.75729e-08
-5.25808e-11
1.75881e-11
-1.18523e-10
2.18091e-08
-2.16837e-08
-9.37701e-12
4.22387e-12
-2.17247e-11
2.14108e-08
-2.13881e-08
-7.89032e-11
-3.46487e-12
-1.33935e-08
-1.03774e-09
3.38303e-11
9.99805e-11
-1.76085e-11
5.19013e-10
3.42925e-10
1.11298e-10
4.44634e-10
-1.16409e-07
-6.84064e-11
-1.9729e-10
2.13178e-08
-2.11836e-08
-4.83699e-11
-3.90606e-15
4.5625e-12
1.39385e-11
1.98718e-08
-1.98419e-08
-1.17268e-11
-4.40043e-12
1.33262e-08
-1.67991e-12
-1.33108e-08
1.04742e-13
1.07581e-11
-9.32212e-11
2.41655e-08
-2.41315e-08
-1.7903e-10
9.83026e-11
3.63268e-11
3.32715e-11
-3.4328e-11
-6.08492e-11
5.73822e-11
-5.94158e-11
5.914e-11
-1.1431e-07
-1.54821e-11
-2.8643e-11
2.10754e-08
-2.10524e-08
-3.59891e-11
9.1721e-11
-9.88191e-11
1.31358e-10
9.68654e-11
-1.31181e-10
-1.18557e-07
-4.85293e-11
1.40744e-11
4.57516e-12
1.98683e-08
-1.98384e-08
-1.21173e-11
2.4726e-12
-4.36309e-12
1.33291e-08
-1.64636e-12
-1.33134e-08
-9.33569e-11
1.0277e-11
2.41616e-08
-2.4127e-08
2.72082e-12
-8.40618e-11
-4.09103e-11
5.80778e-11
4.03762e-11
-5.96473e-11
8.42607e-11
1.19729e-11
-1.29061e-11
-1.15506e-07
-1.7179e-11
-8.98166e-13
-8.03417e-11
1.30613e-10
8.0513e-11
-1.30855e-10
-1.19608e-07
9.7207e-12
-1.52346e-11
-2.89548e-11
2.10632e-08
-2.10408e-08
-4.24853e-12
6.67014e-09
-1.6606e-12
-6.66176e-09
2.76125e-08
9.23199e-11
-2.76685e-08
-1.36741e-10
1.63898e-11
-2.19898e-11
2.14664e-08
-2.14429e-08
3.9522e-12
4.44578e-12
2.14431e-12
1.70595e-12
-1.52356e-08
-3.61483e-12
-3.31856e-12
1.17614e-11
1.3766e-11
-4.39403e-12
5.54304e-09
4.14145e-13
-2.37267e-12
-5.53669e-09
-3.14912e-12
5.51578e-09
-2.38048e-12
-1.34257e-12
-5.5089e-09
-1.14114e-11
-1.43673e-11
-1.52174e-08
1.05188e-12
1.50475e-12
1.56455e-12
2.00912e-12
-1.98495e-08
-6.87294e-12
1.77087e-11
1.83385e-11
-3.98495e-11
1.29709e-08
-2.12023e-12
-1.29109e-08
4.61893e-11
2.37905e-08
-1.47566e-10
-1.41099e-10
-2.36665e-08
-1.18405e-12
-3.58813e-11
-4.61625e-11
-1.85876e-11
-1.9836e-08
1.84123e-12
3.27839e-11
-1.27019e-11
-1.88454e-08
-9.02884e-12
2.32172e-11
1.65083e-11
-8.97727e-12
1.26386e-08
-1.26952e-12
-1.26266e-08
2.32254e-11
2.27707e-08
-3.91872e-11
-3.37129e-11
-2.27427e-08
-3.78031e-12
2.22139e-11
9.26679e-12
-1.63659e-11
-1.88291e-08
1.5659e-12
3.93728e-11
3.32501e-11
-9.7509e-09
1.21815e-11
1.09498e-12
-1.91624e-12
3.95047e-13
1.10947e-11
1.8855e-08
6.79345e-12
-3.92818e-11
-1.88291e-08
1.34846e-12
1.18357e-08
-4.53752e-14
-8.78453e-13
-1.18222e-08
-4.61871e-12
-1.48924e-11
3.18743e-14
4.94085e-11
2.01519e-12
-8.56649e-13
-9.73962e-09
-6.78967e-12
4.06164e-11
7.79806e-14
4.04717e-13
-5.49396e-09
3.16115e-12
2.00716e-12
2.68274e-12
2.04644e-08
-2.53636e-11
-2.04393e-08
3.64278e-12
1.29326e-11
1.30341e-12
-2.1022e-12
-5.48715e-09
2.59779e-11
-9.74928e-09
1.00754e-12
1.20132e-11
-1.69672e-12
5.17825e-13
1.43912e-12
1.18345e-08
-7.42643e-13
-1.18212e-08
1.1198e-11
1.88498e-08
6.92152e-12
-3.9828e-11
-1.88236e-08
-1.4999e-11
-4.51571e-12
4.95342e-11
2.20183e-12
-8.21175e-13
-9.73803e-09
2.90187e-13
-6.6618e-12
4.06284e-11
-5.49328e-09
3.43865e-12
1.89962e-12
2.52965e-12
2.04614e-08
-2.55093e-11
-2.04359e-08
3.6287e-12
-2.08857e-12
1.31437e-11
1.34024e-12
-2.14529e-12
-5.4864e-09
2.6449e-11
4.90473e-12
1.60218e-12
-3.61954e-12
-3.64818e-12
1.29878e-11
1.27264e-11
-1.52451e-08
1.62935e-12
1.59902e-12
-5.5183e-09
3.88613e-13
1.85805e-12
-5.54634e-09
1.67105e-11
-9.58819e-12
2.28386e-11
-1.88464e-08
2.31408e-08
-3.19389e-11
-4.66639e-11
-2.31012e-08
1.69744e-11
2.29019e-11
-3.00276e-12
9.31293e-12
3.1127e-11
4.75492e-11
1.37126e-12
-1.26308e-08
-6.73493e-12
3.10443e-11
8.26164e-12
-1.98665e-08
-2.31833e-12
1.13966e-11
-2.39808e-12
-2.18303e-08
9.7455e-12
1.73802e-12
-1.29913e-08
-1.42969e-12
-2.34107e-08
6.64153e-11
2.56574e-12
-6.80097e-09
1.43278e-13
2.53112e-10
-4.9381e-10
-1.22522e-07
-3.49833e-10
4.56115e-10
-1.31651e-07
4.08721e-10
-4.20206e-11
-1.26468e-07
3.92516e-10
-6.74895e-12
-1.37746e-07
-3.99573e-10
1.25662e-11
-1.22362e-07
3.53937e-12
-1.31737e-07
-1.65773e-11
-8.37536e-12
-1.25562e-07
-1.43666e-12
-1.37001e-07
-1.61624e-13
-1.29516e-07
-1.56447e-11
3.95668e-10
-1.38018e-07
1.62552e-11
-1.23354e-11
-1.29489e-07
-1.66499e-11
-1.37124e-07
-2.19819e-11
-2.29085e-08
1.9002e-11
2.61074e-11
-4.19945e-11
-4.03688e-11
1.88871e-11
2.60331e-08
-2.60582e-08
2.58455e-11
2.47771e-08
-2.47674e-08
-2.28988e-08
1.12976e-10
-2.62934e-08
4.11582e-10
-3.01229e-10
2.33231e-08
-2.31654e-08
2.51058e-08
-1.6452e-10
-2.49368e-08
-2.06753e-10
-8.58029e-11
-2.61758e-08
-2.6035e-08
-7.37008e-11
1.78148e-11
2.60194e-11
-7.23221e-11
2.34258e-08
1.42914e-11
-2.33963e-08
1.91467e-11
2.69358e-08
7.00897e-12
-2.69238e-08
-9.97876e-12
9.39985e-11
-1.01634e-13
-2.10838e-11
-2.59702e-08
-1.36595e-11
-7.08223e-12
-3.7287e-11
-2.59951e-08
-4.93767e-11
-4.91239e-11
2.30374e-08
-2.30148e-08
2.47489e-08
-3.86264e-11
-2.47153e-08
3.03136e-11
1.45831e-11
-2.60448e-08
-2.6032e-08
2.12742e-11
-7.25597e-11
-2.90015e-11
2.16351e-11
2.6933e-08
-2.69104e-08
-7.22925e-11
2.34156e-08
1.69724e-11
-2.33898e-08
9.37612e-11
-1.01149e-11
2.94163e-11
-2.60316e-08
-1.65497e-11
-2.59634e-08
-4.92409e-11
-4.02985e-11
-4.84107e-11
2.30251e-08
-2.30005e-08
-4.13948e-11
2.47538e-08
-2.47152e-08
1.44885e-11
3.06649e-11
-2.59834e-08
-1.21371e-11
6.03779e-11
-2.2908e-08
-9.01275e-11
-1.60822e-11
1.27676e-10
2.59423e-08
-2.58719e-08
-1.27839e-11
1.94764e-10
-2.50732e-08
-2.23364e-12
3.629e-13
-4.10444e-13
-4.35031e-09
-1.0077e-12
2.64261e-13
-2.32636e-13
-2.33682e-09
-3.79787e-13
1.59664e-13
-1.25029e-13
-1.14794e-09
-9.59827e-14
7.87176e-14
-5.71715e-14
-4.75013e-10
1.97798e-14
-1.33192e-14
-1.12972e-10
-9.66621e-13
-1.76379e-13
4.34866e-09
2.07502e-13
-4.34937e-09
-5.16864e-13
-5.8306e-14
2.33559e-09
1.25268e-13
-2.33606e-09
-2.50325e-13
-1.37802e-14
1.14732e-09
6.99997e-14
-1.14757e-09
-9.94221e-14
1.58272e-15
4.74707e-10
3.43614e-14
-4.74815e-10
1.58244e-15
1.12881e-10
7.69019e-15
-1.12934e-10
-1.76486e-12
-2.3266e-09
-8.27873e-13
-1.25214e-09
-3.20805e-13
-6.14836e-10
-7.58503e-14
-2.53947e-10
-6.01706e-11
-9.36004e-13
2.32603e-09
-3.54741e-13
-2.32661e-09
-4.39194e-13
1.25171e-09
-1.89206e-13
-1.25211e-09
-1.63772e-13
6.14602e-10
-9.62126e-14
-6.14839e-10
-3.77228e-14
2.53818e-10
-4.41369e-14
-2.53936e-10
6.01351e-11
-8.81227e-15
-6.01779e-11
-9.29612e-13
2.36998e-13
2.32678e-09
-3.83063e-13
-2.32734e-09
-4.5026e-13
1.12144e-13
1.25218e-09
-2.05401e-13
-1.25256e-09
-1.83685e-13
5.65367e-14
6.14805e-10
-9.87508e-14
-6.1502e-10
-5.89868e-14
2.70233e-14
2.53933e-10
-3.9639e-14
-2.54034e-10
2.13285e-15
6.01485e-11
-1.02661e-14
-6.01898e-11
-9.50436e-13
4.35058e-09
-4.35132e-09
2.56546e-13
-4.69238e-13
2.33662e-09
-2.33716e-09
1.46867e-13
-1.82292e-13
1.14781e-09
-1.14814e-09
7.39473e-14
-3.38625e-14
4.74932e-10
-4.75108e-10
2.9998e-14
1.12948e-10
-1.13004e-10
9.96772e-15
9.56712e-13
6.97965e-14
-1.17601e-13
4.77782e-13
1.36237e-14
-9.28074e-14
2.08855e-13
4.35581e-17
-6.79954e-14
6.66244e-14
-4.54134e-15
-4.01656e-14
7.06389e-16
-8.81538e-15
1.86641e-13
-2.66058e-09
1.36725e-13
-2.61138e-13
6.60756e-14
-1.43131e-09
9.19988e-14
-1.57462e-13
1.78172e-14
-7.03107e-10
5.57905e-14
-8.7662e-14
2.54779e-15
-2.90633e-10
2.77475e-14
-3.96033e-14
-6.89733e-11
7.21978e-15
-1.30564e-14
-5.49471e-13
2.12192e-13
2.90445e-09
-1.46152e-14
-2.90497e-09
-2.87145e-13
1.25515e-13
1.5618e-09
-1.04319e-14
-1.56217e-09
-1.23009e-13
6.72445e-14
7.67487e-10
-6.15648e-15
-7.67699e-10
-4.1462e-14
3.01325e-14
3.17492e-10
-2.77485e-15
-3.17588e-10
7.59203e-15
7.54558e-11
-8.03052e-16
-7.54945e-11
-4.97635e-13
3.65731e-13
-2.66111e-09
-2.32235e-13
2.13435e-13
-1.43168e-09
-8.53322e-14
1.13159e-13
-7.03322e-10
-2.45239e-14
5.03172e-14
-2.90732e-10
1.26517e-14
-6.90113e-11
2.04548e-13
1.80178e-14
9.96832e-14
6.88328e-15
4.57466e-14
1.83954e-15
1.70627e-14
3.00511e-16
-9.95314e-17
6.71254e-13
1.75926e-13
2.94583e-13
9.16249e-14
1.11762e-13
4.8866e-14
3.43176e-14
2.28928e-14
6.09942e-15
2.72173e-13
-2.66043e-09
8.84858e-14
-1.78756e-13
1.26532e-13
-1.43122e-09
5.74333e-14
-1.12697e-13
5.72273e-14
-7.03026e-10
3.45103e-14
-6.97163e-14
2.56338e-14
-2.90621e-10
1.63226e-14
-3.62118e-14
-6.89687e-11
5.58726e-15
-9.92226e-15
-4.48027e-13
2.39738e-13
2.90427e-09
-2.90483e-09
-2.19992e-13
1.39507e-13
1.56172e-09
-1.56211e-09
-8.44028e-14
7.21418e-14
7.67445e-10
-7.6767e-10
-2.44937e-14
3.06437e-14
3.17474e-10
-3.17579e-10
8.12555e-15
7.54514e-11
-7.54911e-11
-4.95835e-13
4.3395e-13
-2.66094e-09
-2.45688e-13
2.58914e-13
-1.43159e-09
-9.98615e-14
1.41461e-13
-7.03235e-10
-3.31715e-14
6.54912e-14
-2.90716e-10
1.55023e-14
-6.90067e-11
1.22829e-13
4.49087e-14
1.91233e-14
1.46349e-14
7.2784e-13
-3.55929e-14
1.2223e-13
3.38099e-13
4.24495e-15
4.75719e-14
1.35513e-13
1.82145e-15
1.75859e-14
4.52854e-14
-1.80457e-15
4.56981e-15
1.899e-15
3.0792e-15
8.89204e-13
4.45871e-16
4.22114e-13
9.65793e-16
1.68615e-13
2.82267e-15
4.02992e-14
5.00722e-15
-2.85865e-15
9.1978e-13
-2.1989e-13
3.17591e-13
-2.31098e-09
4.46625e-13
-1.31342e-13
1.73186e-13
-1.24319e-09
1.83377e-13
-7.04875e-14
9.53219e-14
-6.10381e-10
4.82269e-14
-3.14385e-14
4.61497e-14
-2.52082e-10
-7.61422e-15
1.04575e-14
-5.97492e-11
1.35485e-12
-4.34833e-09
-1.84678e-13
6.18017e-13
-2.3354e-09
-1.51979e-13
2.39392e-13
-1.14726e-09
-9.7327e-14
6.56418e-14
-4.7469e-10
-4.96321e-14
-1.12895e-10
-1.34079e-14
-1.21684e-12
5.12348e-13
-3.54181e-13
4.14961e-09
-4.15095e-09
-5.27331e-13
2.72882e-13
-1.98685e-13
2.22889e-09
-2.22968e-09
-1.77756e-13
1.37594e-13
-1.04414e-13
1.09445e-09
-1.09488e-09
-3.16911e-14
5.75522e-14
-4.65644e-14
4.52647e-10
-4.52853e-10
1.59712e-14
-1.11239e-14
1.07567e-10
-1.0764e-10
-1.07157e-12
2.31059e-09
-2.31153e-09
-5.07116e-13
1.24308e-09
-1.24359e-09
-2.03716e-13
6.10249e-10
-6.10521e-10
-5.8065e-14
2.52076e-10
-2.52205e-10
5.97291e-11
-5.97779e-11
1.08481e-12
1.85206e-13
5.66575e-13
9.71926e-14
2.45311e-13
5.41071e-14
6.62377e-14
2.60189e-14
9.15472e-15
-8.76479e-13
-1.12517e-13
4.1502e-09
-4.15088e-09
-4.881e-13
-7.13017e-14
2.22889e-09
-2.22935e-09
-2.41001e-13
-3.01852e-14
1.09457e-09
-1.09481e-09
-9.42838e-14
-7.51279e-15
4.52689e-10
-4.52802e-10
-3.28726e-15
1.07555e-10
-1.07611e-10
-6.49646e-13
2.30976e-09
-2.31033e-09
-2.89008e-13
1.24253e-09
-1.24289e-09
-1.00377e-13
6.10074e-10
-6.10289e-10
-2.24792e-14
2.51974e-10
-2.52083e-10
5.97046e-11
-5.97442e-11
7.81098e-13
6.24731e-14
3.39421e-13
1.47795e-14
1.20234e-13
5.6735e-15
3.12175e-14
4.32048e-15
-8.94504e-16
8.44602e-13
9.41523e-14
3.85995e-13
7.58483e-14
1.47667e-13
5.42286e-14
4.336e-14
3.09873e-14
7.03944e-15
1.16325e-12
5.74939e-13
2.30876e-13
5.18827e-14
1.13309e-12
-4.3491e-09
5.57291e-13
-2.33399e-09
2.29751e-13
-1.14584e-09
6.37148e-14
-4.73886e-10
-1.12662e-10
-1.24059e-12
-4.34992e-09
-6.15526e-13
-2.33455e-09
-2.46956e-13
-1.14615e-09
-7.0034e-14
-4.74028e-10
-1.12725e-10
1.05595e-12
-4.34884e-09
5.01027e-13
-2.33389e-09
1.99075e-13
-1.14569e-09
5.36655e-14
-4.73864e-10
-1.12636e-10
-1.2737e-12
-4.34967e-09
-6.34874e-13
-2.3345e-09
-2.54609e-13
-1.14604e-09
-6.67257e-14
-4.74041e-10
-1.12701e-10
6.81178e-13
7.96274e-14
-2.31086e-09
3.03651e-13
1.44438e-14
-1.2432e-09
1.19223e-13
-6.98754e-15
-6.10403e-10
4.37707e-14
-1.11205e-14
-2.52107e-10
1.92849e-16
-5.97427e-11
9.44668e-13
-1.28343e-13
-4.15226e-09
4.70137e-13
-7.71931e-14
-2.23007e-09
1.94994e-13
-4.06142e-14
-1.09506e-09
4.34317e-14
-1.62924e-14
-4.52837e-10
-6.61008e-15
-1.07614e-10
1.04732e-12
-4.1518e-09
4.88771e-13
-2.22986e-09
1.96071e-13
-1.09498e-09
6.33662e-14
-4.52792e-10
-1.07612e-10
2.96201e-10
3.08133e-10
1.14876e-07
1.84192e-10
2.48496e-10
1.20004e-10
2.51749e-12
2.10802e-10
4.36792e-11
6.89394e-11
-1.15644e-07
-7.14961e-10
-2.40436e-12
4.29318e-11
-5.54472e-12
2.75094e-08
-2.76697e-08
1.25231e-10
-8.28329e-11
-8.80078e-11
9.22496e-11
1.14244e-11
1.213e-07
-1.21232e-07
-5.38438e-11
8.32961e-11
2.92802e-11
1.14547e-07
1.88021e-11
2.28284e-11
-4.61994e-11
-7.89956e-11
3.79669e-11
-7.72006e-11
3.93261e-11
-1.14522e-07
-1.1524e-07
-4.35727e-12
5.8875e-10
-7.97166e-10
1.15551e-07
1.02623e-11
2.67161e-11
-3.32102e-11
-2.38628e-11
5.99548e-12
-3.50112e-11
-4.9365e-11
-2.76627e-08
1.00993e-10
1.16005e-11
3.33718e-11
1.4922e-11
2.75018e-08
-6.42689e-11
-6.20658e-11
-1.21475e-07
3.90717e-11
3.95198e-11
1.21523e-07
-1.14581e-07
-4.89945e-11
6.13687e-11
3.24572e-11
1.14584e-07
2.33321e-11
2.69072e-11
-3.94457e-11
-7.34225e-11
4.36091e-11
4.56351e-11
-7.43983e-11
-1.15678e-07
-5.41521e-11
6.45134e-11
3.11719e-11
1.15683e-07
1.05961e-11
3.2422e-11
-3.0581e-11
-1.8779e-11
1.36073e-11
-1.04201e-11
-4.36852e-11
-2.76418e-08
3.8914e-11
5.41787e-11
3.83081e-11
2.28808e-11
2.74875e-08
-4.30147e-11
-4.21366e-11
-1.21637e-07
2.84197e-11
2.93598e-11
1.21664e-07
-1.14586e-07
-4.36027e-11
4.0158e-11
2.13621e-11
1.14581e-07
2.78875e-11
3.131e-11
-3.93794e-11
-6.81034e-11
4.98416e-11
5.21798e-11
-6.68621e-11
-1.15686e-07
-4.8849e-11
4.25437e-11
2.09364e-11
1.15682e-07
1.5256e-11
3.6101e-11
-2.72739e-11
-1.3028e-11
2.02305e-11
-3.72156e-12
-3.81437e-11
-2.76271e-08
3.31527e-11
4.92215e-11
4.33721e-11
2.85857e-11
2.74728e-08
-2.69609e-11
-2.50429e-11
-1.21724e-07
1.95142e-11
1.99095e-11
1.21737e-07
-1.14554e-07
-3.87714e-11
2.69753e-11
1.11378e-11
1.14538e-07
3.20185e-11
3.5238e-11
-3.16203e-11
-6.45259e-11
5.44707e-11
5.66213e-11
-6.55619e-11
-1.15661e-07
-4.44748e-11
2.71688e-11
1.10597e-11
1.1565e-07
1.86277e-11
3.9563e-11
-2.41983e-11
-8.87311e-12
2.51448e-11
1.42755e-12
-3.41277e-11
-2.76116e-08
2.85266e-11
4.54719e-11
4.71372e-11
3.27261e-11
2.74578e-08
-1.62947e-11
-1.60046e-11
-1.21765e-07
1.39483e-11
1.35658e-11
1.21769e-07
-1.14492e-07
-3.64658e-11
1.83552e-11
3.37476e-12
1.14477e-07
3.39416e-11
3.70386e-11
-3.40633e-11
-6.2452e-11
5.71236e-11
5.94101e-11
-6.10064e-11
-1.1561e-07
-4.24058e-11
1.86905e-11
6.31233e-12
1.15596e-07
2.04938e-11
4.08769e-11
-2.28073e-11
-6.69346e-12
2.79468e-11
3.89761e-12
-3.19573e-11
-2.75997e-08
2.60311e-11
4.3841e-11
4.88052e-11
3.46398e-11
2.74463e-08
-1.06401e-11
-9.00804e-12
-1.2178e-07
8.86907e-12
9.41714e-12
1.21781e-07
-1.1444e-07
-3.6049e-11
1.12873e-11
1.88341e-12
1.14429e-07
3.42176e-11
3.70662e-11
-3.02557e-11
-6.17087e-11
5.78833e-11
6.04638e-11
-6.28973e-11
-1.15561e-07
-4.17573e-11
1.24026e-11
3.5249e-12
1.15551e-07
2.09094e-11
4.12158e-11
-2.27263e-11
-6.03782e-12
2.88929e-11
5.09644e-12
-3.13542e-11
-2.75923e-08
2.5508e-11
4.28029e-11
4.93328e-11
3.49383e-11
2.74397e-08
-7.51869e-12
-5.36592e-12
-1.21786e-07
6.04891e-12
6.85007e-12
1.21786e-07
-1.14407e-07
-3.61548e-11
6.80682e-12
8.28594e-13
1.14401e-07
3.39466e-11
3.68424e-11
-3.37603e-11
-6.13215e-11
5.83045e-11
6.06921e-11
-5.99249e-11
-1.15527e-07
-4.14978e-11
7.64238e-12
2.31803e-12
1.1552e-07
2.09649e-11
4.13622e-11
-2.26405e-11
-5.50695e-12
2.95482e-11
5.49131e-12
-3.05203e-11
-2.75881e-08
2.52957e-11
4.22498e-11
4.98979e-11
3.49208e-11
2.74358e-08
-5.01459e-12
-3.38779e-12
-1.21788e-07
4.17103e-12
4.76329e-12
1.21788e-07
-1.14388e-07
-3.60177e-11
3.34482e-12
7.93693e-13
1.14383e-07
3.36896e-11
3.68927e-11
-3.03027e-11
-6.08222e-11
5.84737e-11
6.11819e-11
-6.22572e-11
-1.15502e-07
-4.15255e-11
5.86475e-12
2.56264e-12
1.15496e-07
2.07386e-11
4.12112e-11
-2.29544e-11
-5.3001e-12
2.96287e-11
5.87354e-12
-3.04922e-11
-2.75863e-08
2.53443e-11
4.18041e-11
5.00946e-11
3.48411e-11
2.74342e-08
-3.8697e-12
-2.52365e-12
-1.21788e-07
3.42568e-12
3.63647e-12
1.21788e-07
-1.14377e-07
-3.60801e-11
1.02331e-12
3.9735e-13
1.14375e-07
3.36503e-11
3.67923e-11
-3.40325e-11
-6.05407e-11
5.88266e-11
6.14001e-11
-5.92821e-11
-1.15485e-07
-4.1584e-11
3.73869e-12
2.26606e-12
1.15482e-07
2.10033e-11
4.11044e-11
-2.26917e-11
-5.41854e-12
2.95684e-11
5.79209e-12
-3.0523e-11
-2.75864e-08
2.54514e-11
4.15872e-11
5.03382e-11
3.46409e-11
2.74344e-08
-3.01136e-12
-1.42096e-12
-1.21789e-07
2.2128e-12
3.08724e-12
1.21788e-07
-1.14372e-07
-3.61259e-11
7.77225e-13
1.32027e-12
1.14369e-07
3.35031e-11
3.65746e-11
-3.04354e-11
-6.08178e-11
5.88407e-11
6.12105e-11
-6.18824e-11
-1.15476e-07
-4.13056e-11
2.4665e-12
1.60864e-12
1.15474e-07
2.11943e-11
4.15126e-11
-2.22027e-11
-5.55963e-12
2.933e-11
5.6295e-12
-3.07739e-11
-2.75867e-08
2.50858e-11
4.16851e-11
5.01746e-11
3.50472e-11
2.74347e-08
-4.10878e-12
3.38978e-13
-1.21789e-07
7.88341e-13
3.32939e-12
1.21788e-07
-1.14367e-07
-3.60779e-11
5.38297e-13
1.08342e-12
1.14367e-07
3.3489e-11
3.65132e-11
-3.4083e-11
-6.08087e-11
5.87324e-11
6.09019e-11
-5.95951e-11
-1.15472e-07
-4.1098e-11
2.69816e-12
1.16634e-12
1.1547e-07
2.15209e-11
4.16316e-11
-2.21321e-11
-5.82663e-12
2.92935e-11
5.41962e-12
-3.10135e-11
-2.75867e-08
2.51652e-11
4.19069e-11
5.00091e-11
3.50165e-11
2.74346e-08
-3.49822e-12
3.09304e-13
-1.2179e-07
6.13572e-13
3.09875e-12
1.2179e-07
-1.14368e-07
-3.62363e-11
5.11294e-14
1.21206e-12
1.14367e-07
3.34747e-11
3.64802e-11
-3.06216e-11
-6.09647e-11
5.84552e-11
6.09299e-11
-6.2127e-11
-1.15471e-07
-4.0861e-11
1.35374e-12
-4.56804e-13
1.15471e-07
2.14679e-11
4.17678e-11
-2.20011e-11
-5.60181e-12
2.93366e-11
5.5508e-12
-3.11897e-11
-2.75866e-08
2.53192e-11
4.18275e-11
5.01514e-11
3.47216e-11
2.74346e-08
-2.08822e-12
3.50406e-13
-1.21791e-07
1.74334e-13
2.03239e-12
1.2179e-07
-1.14371e-07
-3.58107e-11
-8.8852e-14
2.03288e-14
1.14371e-07
3.38893e-11
3.67833e-11
-3.39492e-11
-6.09891e-11
5.83475e-11
6.098e-11
-5.97315e-11
-1.15475e-07
-4.08397e-11
2.05557e-12
-5.38806e-13
1.15476e-07
2.1377e-11
4.15556e-11
-2.23547e-11
-5.68249e-12
2.93911e-11
5.60107e-12
-3.09827e-11
-2.75871e-08
2.53294e-11
4.20495e-11
4.97746e-11
3.48612e-11
2.74351e-08
-2.25549e-12
6.40374e-13
-1.21792e-07
-1.42113e-13
2.69391e-12
1.21791e-07
-1.14374e-07
-3.58042e-11
3.45285e-13
1.07551e-13
1.14373e-07
3.39376e-11
3.66703e-11
-3.05359e-11
-6.10538e-11
5.83054e-11
6.09983e-11
-6.23054e-11
-1.15478e-07
-4.09914e-11
1.52328e-12
-4.14451e-13
1.15479e-07
2.14824e-11
4.15411e-11
-2.23882e-11
-5.80308e-12
2.9657e-11
5.61916e-12
-3.07404e-11
-2.75879e-08
2.5145e-11
4.20071e-11
4.98659e-11
3.48706e-11
2.74361e-08
-2.05773e-12
1.01057e-12
-1.21795e-07
-2.94214e-12
4.93353e-12
1.21794e-07
-1.14378e-07
-3.5363e-11
-5.37842e-13
-7.53086e-13
1.1438e-07
3.40172e-11
3.62165e-11
-3.47089e-11
-6.11045e-11
5.85672e-11
6.13661e-11
-5.99227e-11
-1.15481e-07
-4.08768e-11
2.62319e-14
-4.18133e-13
1.15483e-07
2.13034e-11
4.13528e-11
-2.25424e-11
-5.2973e-12
2.97253e-11
6.03222e-12
-3.08513e-11
-2.75884e-08
2.50022e-11
4.16432e-11
5.01651e-11
3.49937e-11
2.74366e-08
-1.38605e-12
-1.22573e-07
2.66583e-12
1.49055e-12
-3.54429e-12
1.22574e-07
-1.15288e-07
-4.12946e-11
2.99567e-13
-1.60824e-12
1.0146e-10
4.23923e-11
-1.00854e-10
-4.65014e-10
3.4338e-10
4.66185e-10
-3.43943e-10
-1.16066e-07
2.60458e-10
1.43274e-12
2.23705e-12
1.95834e-10
-2.59e-10
-1.96668e-10
-1.17015e-10
2.47383e-10
1.17411e-10
-2.47931e-10
1.16062e-07
-2.77604e-08
-2.83224e-10
-2.60765e-10
3.219e-10
2.63849e-10
2.77186e-08
3.01253e-10
2.41617e-10
2.77816e-08
-2.78285e-08
-1.99748e-10
2.53132e-11
2.76545e-08
-2.7499e-08
-6.73494e-11
-4.70347e-11
-6.64373e-11
2.35698e-10
1.15074e-07
7.55442e-12
-3.34445e-11
-4.36252e-11
-9.7701e-12
2.64971e-12
-4.76009e-11
-4.04026e-11
-1.15184e-07
3.65677e-11
-1.15627e-07
2.52905e-10
-3.98439e-10
-3.90332e-11
-2.05659e-10
-3.51319e-10
-4.98127e-11
-9.58005e-12
-2.57186e-10
1.46991e-09
-2.09412e-11
1.15229e-07
-1.15073e-07
-2.09334e-10
-8.42014e-12
-3.89664e-11
1.1916e-11
-3.9149e-11
-4.9542e-11
-2.80732e-13
-9.11229e-12
2.07772e-10
-2.75052e-08
-6.74166e-11
-4.55534e-11
-6.54695e-11
5.16179e-11
5.46219e-11
2.4255e-11
2.43701e-11
2.7485e-08
-2.76398e-08
-2.16988e-11
-2.54823e-11
2.76249e-08
-2.74737e-08
-5.30019e-11
-5.10791e-11
4.73958e-11
1.1671e-07
1.67408e-12
1.82347e-11
-2.99587e-11
-5.61535e-13
5.55729e-12
-4.82273e-11
-4.17596e-11
-1.16694e-07
-5.12968e-11
8.18874e-11
4.67722e-11
1.16755e-07
1.79965e-12
1.91395e-11
-3.08376e-11
1.69498e-13
5.72848e-12
-4.75942e-11
-4.20029e-11
-1.16739e-07
1.16744e-07
6.97678e-11
-1.16736e-07
3.77688e-11
-4.74054e-11
-2.79599e-11
4.56517e-12
-3.65737e-11
-4.41682e-11
1.06064e-11
3.73313e-12
2.20903e-11
1.16789e-07
7.00361e-11
-1.16781e-07
3.76239e-11
-4.73442e-11
-2.85357e-11
5.10268e-12
-3.6724e-11
-4.36749e-11
1.01681e-11
3.61773e-12
2.44878e-11
2.51787e-11
2.74841e-08
-2.76389e-08
-2.57647e-11
2.76267e-08
-2.74746e-08
-5.25877e-11
-5.16632e-11
3.38157e-11
1.14561e-07
1.8678e-11
2.16613e-11
-4.64097e-11
-7.89863e-11
3.6895e-11
-7.70718e-11
3.87901e-11
-1.14542e-07
-1.07987e-10
-2.70683e-10
7.34019e-10
1.15753e-07
1.01809e-11
1.23102e-11
-4.40836e-11
-6.00251e-11
3.68161e-11
-7.64706e-11
3.32267e-11
-1.16021e-07
1.14588e-07
6.80951e-11
-1.14583e-07
3.58191e-11
-5.00702e-11
-4.40537e-11
2.19233e-11
4.39752e-11
-7.33694e-11
4.18307e-11
-7.51048e-11
1.43054e-11
1.15659e-07
6.79528e-11
-1.15652e-07
3.86909e-11
-4.07463e-11
-4.18327e-11
1.7849e-11
2.38629e-11
-7.2753e-11
4.07479e-11
-5.52274e-11
-2.56936e-10
7.46305e-10
1.1577e-07
1.0993e-11
1.51349e-11
-4.35506e-11
-6.04038e-11
3.7243e-11
-7.69722e-11
3.39656e-11
-1.16074e-07
6.59662e-11
-1.14574e-07
3.45026e-11
-5.0203e-11
-4.38271e-11
2.22102e-11
4.41802e-11
-7.34189e-11
-7.47483e-11
4.17715e-11
1.46784e-11
1.15678e-07
6.73221e-11
-1.15671e-07
3.83753e-11
-4.06377e-11
-4.13681e-11
1.75169e-11
2.40762e-11
-7.29643e-11
4.10233e-11
-5.55148e-11
3.49938e-11
1.36325e-11
2.74936e-08
-3.11251e-11
2.76307e-08
-2.74808e-08
-5.93885e-11
-4.5079e-11
5.78158e-10
-8.25801e-10
1.15597e-07
8.92627e-12
2.26693e-11
-3.51791e-11
-2.48326e-11
5.55933e-12
-4.94372e-11
-3.61989e-11
6.95429e-11
-1.15669e-07
3.3976e-11
-5.55341e-11
-3.13342e-11
9.2899e-12
-1.26603e-11
-4.52329e-11
-2.01351e-11
1.18372e-11
3.17139e-11
1.15731e-07
7.07714e-11
-1.15722e-07
3.29962e-11
-5.57116e-11
-3.15149e-11
9.83347e-12
-1.26253e-11
-4.49127e-11
1.15004e-11
-2.01998e-11
-2.74908e-08
-6.0145e-11
-4.44348e-11
4.57428e-11
4.85647e-11
3.0629e-11
3.0196e-11
2.74698e-08
-2.64635e-11
-3.01687e-11
2.76098e-08
-2.74585e-08
-4.82056e-11
-4.648e-11
3.48427e-11
1.16749e-07
5.90582e-12
2.29812e-11
-2.6911e-11
4.91128e-12
1.21753e-11
-3.49122e-11
-4.29603e-11
-4.59822e-11
6.535e-11
3.44539e-11
1.16794e-07
6.51536e-12
2.3331e-11
-3.12564e-11
4.99274e-12
1.25123e-11
-3.48716e-11
-4.02584e-11
1.16748e-07
4.85025e-11
-1.16751e-07
2.65274e-11
-4.15498e-11
-2.42302e-11
9.22353e-12
-2.99049e-11
-3.85549e-11
1.7106e-11
9.69501e-12
2.66628e-11
1.16788e-07
4.94673e-11
-1.16792e-07
2.66719e-11
-4.18036e-11
-2.4748e-11
9.82808e-12
-2.97376e-11
-3.83984e-11
1.71571e-11
9.55692e-12
3.00989e-11
3.067e-11
2.7471e-08
-3.01135e-11
2.76118e-08
-2.74599e-08
-4.78126e-11
-4.73652e-11
3.26689e-11
1.14592e-07
2.32127e-11
2.67078e-11
-4.29832e-11
-7.37327e-11
4.35063e-11
4.57619e-11
-7.19666e-11
-3.90574e-11
6.2878e-11
3.52213e-11
1.15663e-07
1.93243e-11
1.58645e-11
-4.05638e-11
-5.39443e-11
4.22295e-11
2.55364e-11
-7.14108e-11
1.14583e-07
4.7479e-11
-1.14589e-07
2.53604e-11
-4.43589e-11
-4.00368e-11
2.66314e-11
5.04769e-11
-6.80322e-11
4.79674e-11
-6.9588e-11
1.96235e-11
1.1566e-07
4.69623e-11
-1.15664e-07
2.59856e-11
-3.43858e-11
-3.74582e-11
2.30775e-11
3.04326e-11
-6.74091e-11
4.69112e-11
-4.9568e-11
6.20216e-11
3.50277e-11
1.15683e-07
1.9024e-11
1.59206e-11
-4.01964e-11
-5.4325e-11
4.247e-11
-7.1747e-11
2.54949e-11
4.40675e-11
-1.14588e-07
2.45346e-11
-4.50182e-11
-4.0114e-11
2.64407e-11
5.06184e-11
-6.80562e-11
-6.89948e-11
4.82328e-11
1.96008e-11
1.15684e-07
4.48189e-11
-1.15687e-07
2.60755e-11
-3.4635e-11
-3.72114e-11
2.26251e-11
3.04855e-11
-6.72441e-11
4.77207e-11
-4.99325e-11
3.73159e-11
2.32674e-11
2.74769e-08
-3.50237e-11
2.7615e-08
-2.74655e-08
-5.48347e-11
-4.00459e-11
6.49098e-11
3.02539e-11
1.15736e-07
1.08959e-11
3.27543e-11
-3.06828e-11
-1.86931e-11
1.35101e-11
-4.32957e-11
-1.09705e-11
4.70598e-11
-1.15688e-07
2.40465e-11
-5.00906e-11
-2.81565e-11
1.37558e-11
-5.45906e-12
-3.9427e-11
-1.42034e-11
1.86927e-11
3.5858e-11
1.15737e-07
4.77955e-11
-1.1574e-07
2.36763e-11
-5.05769e-11
-2.80258e-11
1.40657e-11
-5.40434e-12
-3.90209e-11
1.83996e-11
-1.39018e-11
-2.74766e-08
-5.56777e-11
-3.93745e-11
4.03505e-11
4.31481e-11
3.60008e-11
3.51959e-11
2.74551e-08
-3.00406e-11
-3.38568e-11
2.7596e-08
-2.74449e-08
-4.39854e-11
-4.32041e-11
2.35991e-11
1.16743e-07
1.03134e-11
2.73639e-11
-2.32085e-11
1.05228e-11
1.87483e-11
-2.82123e-11
-3.74243e-11
-4.05857e-11
4.48198e-11
2.37975e-11
1.16781e-07
1.08264e-11
2.75848e-11
-2.38124e-11
1.04761e-11
1.87121e-11
-2.82514e-11
-3.7383e-11
1.16718e-07
3.10168e-11
-1.16729e-07
1.62035e-11
-3.72252e-11
-2.08369e-11
1.31529e-11
-2.43024e-11
-3.39672e-11
2.26063e-11
1.39626e-11
2.98774e-11
1.16754e-07
3.02358e-11
-1.16764e-07
1.69126e-11
-3.7628e-11
-2.17214e-11
1.34672e-11
-2.41679e-11
-3.34656e-11
2.25919e-11
1.43069e-11
3.55251e-11
3.55906e-11
2.74565e-08
-3.42675e-11
2.75983e-08
-2.74465e-08
-4.35816e-11
-4.41026e-11
2.21295e-11
1.14575e-07
2.77597e-11
3.11124e-11
-3.92879e-11
-6.83628e-11
4.95551e-11
5.20859e-11
-6.68977e-11
-3.30602e-11
4.26134e-11
2.29526e-11
1.15653e-07
2.43704e-11
2.06427e-11
-3.65596e-11
-4.86856e-11
4.85011e-11
3.18296e-11
-6.60379e-11
1.14546e-07
2.8571e-11
-1.14557e-07
1.3427e-11
-3.99413e-11
-3.6742e-11
3.05882e-11
5.61066e-11
-6.31585e-11
5.34201e-11
-6.45526e-11
2.31995e-11
1.15622e-07
2.96705e-11
-1.15634e-07
1.56684e-11
-2.98419e-11
-3.40755e-11
2.71517e-11
3.57386e-11
-6.25417e-11
5.23325e-11
-4.51273e-11
4.06668e-11
2.31427e-11
1.1568e-07
2.38184e-11
2.05709e-11
-3.62386e-11
-4.87573e-11
4.88421e-11
-6.63879e-11
3.20463e-11
2.8647e-11
-1.14565e-07
1.38898e-11
-3.98654e-11
-3.65651e-11
3.08476e-11
5.57188e-11
-6.37214e-11
-6.5031e-11
5.34424e-11
2.36247e-11
1.15651e-07
2.85989e-11
-1.15663e-07
1.55856e-11
-2.96411e-11
-3.33596e-11
2.70703e-11
3.61242e-11
-6.32419e-11
5.23688e-11
-4.51438e-11
4.25133e-11
2.8886e-11
2.74617e-08
-3.87455e-11
2.76011e-08
-2.74515e-08
-5.09817e-11
-3.67421e-11
4.29402e-11
2.11072e-11
1.15732e-07
1.51912e-11
3.6735e-11
-2.71545e-11
-1.29013e-11
1.99973e-11
-3.78426e-11
-3.90263e-12
2.91605e-11
-1.1567e-07
1.33592e-11
-4.54491e-11
-2.49196e-11
1.79223e-11
9.64006e-14
-3.4626e-11
-9.71074e-12
2.41125e-11
3.91242e-11
1.15703e-07
2.99294e-11
-1.15715e-07
1.46542e-11
-4.63527e-11
-2.47747e-11
1.76816e-11
1.10974e-13
-3.37758e-11
2.42008e-11
-9.08125e-12
-2.74612e-08
-5.22255e-11
-3.54921e-11
3.61672e-11
3.88038e-11
4.00027e-11
3.88958e-11
2.74421e-08
-3.19324e-11
-3.57851e-11
2.75865e-08
-2.74349e-08
-4.23566e-11
-4.15099e-11
1.38123e-11
1.16707e-07
1.39947e-11
3.06365e-11
-2.02082e-11
1.47797e-11
2.38061e-11
-2.33974e-11
-3.31526e-11
-3.67155e-11
2.66822e-11
1.44573e-11
1.16744e-07
1.41407e-11
3.06138e-11
-2.4857e-11
1.49516e-11
2.3965e-11
-2.30439e-11
-3.05397e-11
1.16671e-07
1.91172e-11
-1.16684e-07
9.29833e-12
-3.46059e-11
-1.9223e-11
1.53378e-11