/*--------------------------------*- C++ -*----------------------------------*\
| =========                 |                                                 |
| \\      /  F ield         | OpenFOAM: The Open Source CFD Toolbox           |
|  \\    /   O peration     | Version:  2206                                  |
|   \\  /    A nd           | Website:  www.openfoam.com                      |
|    \\/     M anipulation  |                                                 |
\*---------------------------------------------------------------------------*/
FoamFile
{
    version     2.0;
    format      ascii;
    arch        "LSB;label=32;scalar=64";
    class       volVectorField;
    location    "90";
    object      wallShearStress;
}
// * * * * * * * * * * * * * * * * * * * * * * * * * * * * * * * * * * * * * //

dimensions      [0 2 -2 0 0 0 0];

internalField   uniform (0 0 0);

boundaryField
{
    topPatch
    {
        type            calculated;
        value           nonuniform List<vector> 0();
    }
    wall
    {
        type            calculated;
        value           nonuniform List<vector> 
7718
(
(-4.31982e-09 -9.12082e-10 -0.000114321)
(-8.33942e-09 1.18515e-08 -0.000114218)
(-1.55812e-09 -5.21668e-09 -0.000107468)
(-2.1543e-09 -1.62243e-09 -0.000107527)
(-6.49919e-09 -3.21879e-09 -0.00011438)
(-8.98958e-09 -1.92964e-08 -0.000114271)
(-3.06313e-09 9.58941e-09 -0.000109055)
(-1.91561e-09 5.32679e-09 -0.000110498)
(-2.61095e-09 -1.03378e-08 -0.000109093)
(-1.72571e-09 -1.11295e-09 -0.000110513)
(-2.60906e-08 5.81069e-09 -0.000114276)
(-5.25219e-09 -1.22968e-09 -0.000114315)
(-2.38934e-08 2.24808e-09 -0.000107378)
(-5.04878e-09 7.96284e-10 -0.000107464)
(-4.74082e-09 -4.05138e-09 -0.000107522)
(-7.56564e-09 -4.23307e-09 -0.000114376)
(7.4591e-09 -5.53904e-09 -0.000114236)
(2.73345e-09 -1.60456e-08 -0.000108914)
(-2.69417e-09 6.10306e-09 -0.000110509)
(-4.33157e-09 1.44013e-08 -0.000109064)
(1.35702e-09 -3.73727e-09 -0.000110343)
(3.72935e-09 6.50191e-11 -0.000107385)
(2.80624e-09 1.17325e-08 -0.000108951)
(-2.72904e-09 -4.25513e-09 -0.000110527)
(-4.82667e-09 -1.7598e-08 -0.000109101)
(1.27353e-09 3.854e-09 -0.000110356)
(2.22462e-09 -2.73206e-09 -0.000107444)
(4.12405e-09 -1.39572e-09 -0.000114294)
(1.29743e-08 -4.56742e-12 -0.000107958)
(1.47583e-08 3.62888e-09 -0.000114307)
(-2.23897e-08 1.55149e-08 -0.000113207)
(-1.73342e-08 6.46029e-09 -0.000107908)
(5.77844e-09 2.63142e-09 -0.000107936)
(-5.22492e-09 -7.78103e-10 -0.00011321)
(-7.47519e-09 6.94515e-09 -0.000107914)
(7.71127e-09 -4.70328e-09 -0.000107853)
(1.78888e-08 -1.10214e-08 -0.000113164)
(9.67758e-10 3.55353e-09 -0.000113158)
(7.8481e-09 -1.72097e-08 -0.000114135)
(-9.43587e-09 1.9968e-08 -0.000114221)
(6.80597e-09 1.23665e-08 -0.000114182)
(-1.08354e-08 -2.33101e-08 -0.000114272)
(3.35459e-09 1.24211e-09 -0.000107906)
(2.47104e-09 -4.34822e-09 -0.000113216)
(1.65168e-08 1.02459e-08 -0.000113219)
(-1.78327e-08 -1.81416e-08 -0.00011622)
(-1.38819e-08 -2.98275e-08 -0.000115891)
(1.13209e-08 -1.65391e-08 -0.0001086)
(3.91577e-08 -1.21876e-08 -0.000108506)
(2.84256e-09 -8.92305e-09 -0.000115527)
(-2.64386e-08 -1.39832e-08 -0.000115377)
(-1.75559e-08 1.91368e-08 -0.00010875)
(-5.31013e-09 1.54345e-08 -0.000108509)
(-1.47583e-08 -1.09653e-08 -0.000115674)
(-5.9075e-09 -7.72449e-09 -0.000115412)
(1.81233e-09 -1.28137e-08 -0.000108122)
(3.75229e-08 -1.13871e-08 -0.000108065)
(5.17722e-09 -7.02957e-09 -0.000115042)
(-2.0689e-08 -9.61064e-09 -0.000114922)
(-1.37532e-08 1.3456e-08 -0.000108304)
(-5.81326e-09 1.54935e-08 -0.000108091)
(-1.25415e-08 -8.84447e-09 -0.000115208)
(-2.55704e-09 -1.92118e-09 -0.000114968)
(-4.22669e-09 -9.08255e-09 -0.000107759)
(2.88667e-08 -7.82342e-09 -0.000107753)
(1.42252e-08 -1.28859e-09 -0.000114674)
(-1.47667e-08 -6.11712e-09 -0.000114612)
(-1.15704e-08 9.1595e-09 -0.000107953)
(-3.45812e-09 1.19591e-08 -0.000107783)
(-9.8993e-09 -4.05333e-09 -0.000114842)
(-1.63431e-09 -7.14769e-10 -0.00011465)
(-1.6646e-08 -1.78251e-09 -0.00010754)
(1.78665e-08 -2.9508e-09 -0.000107583)
(2.05283e-08 3.8405e-09 -0.000114444)
(-4.85294e-09 1.98586e-09 -0.000114433)
(-7.75471e-09 4.8155e-09 -0.00010773)
(9.02205e-10 5.31734e-09 -0.000107609)
(-7.76733e-09 -5.45085e-09 -0.000114622)
(-5.86295e-10 -1.03457e-09 -0.000114472)
(-2.12411e-08 2.56958e-10 -0.00010745)
(1.69986e-08 -1.76829e-10 -0.00010753)
(2.25725e-08 6.65496e-09 -0.000114363)
(-1.10598e-08 -2.14173e-09 -0.000114381)
(-3.24397e-09 -2.72444e-09 -0.000107623)
(1.39869e-09 5.20648e-09 -0.000107524)
(-5.78503e-09 -4.38309e-09 -0.00011451)
(1.76715e-09 -7.33841e-10 -0.000114398)
(-1.87572e-08 1.04537e-09 -0.000107429)
(1.81896e-08 -1.19528e-09 -0.00010751)
(1.95467e-08 4.65521e-09 -0.000114332)
(-6.02239e-09 1.19798e-09 -0.000114361)
(-4.69272e-09 2.25779e-09 -0.000107574)
(5.11312e-10 7.21265e-09 -0.000107495)
(-2.79077e-09 2.75845e-10 -0.000114472)
(3.55045e-09 2.79857e-09 -0.000114365)
(-1.94738e-08 1.26794e-10 -0.00010742)
(1.51936e-08 -1.68461e-10 -0.000107512)
(1.45791e-08 2.22296e-09 -0.000114319)
(-2.24104e-08 -7.3854e-09 -0.000114359)
(-5.9815e-09 3.90412e-09 -0.000107554)
(2.50139e-09 3.36825e-09 -0.000107473)
(-5.6925e-09 -4.05817e-09 -0.000114446)
(1.017e-09 -1.50639e-09 -0.000114347)
(-2.02837e-08 8.47688e-10 -0.000107425)
(1.73523e-08 2.57489e-10 -0.000107519)
(1.71325e-08 3.88879e-09 -0.000114317)
(-1.18108e-08 -4.752e-10 -0.000114356)
(-4.16859e-09 6.33685e-10 -0.000107531)
(2.6579e-09 4.44947e-09 -0.000107462)
(-5.18469e-09 -5.32323e-09 -0.000114447)
(4.6504e-09 5.27539e-09 -0.000114347)
(-9.49431e-09 -3.35776e-09 -0.000107424)
(2.90867e-08 -4.97393e-09 -0.000107514)
(1.6002e-08 3.57029e-09 -0.000114314)
(-1.93629e-08 -6.11722e-09 -0.000114346)
(-1.52606e-09 -6.37147e-09 -0.000107521)
(6.03684e-09 -6.94397e-09 -0.000107446)
(-2.19884e-09 2.05887e-09 -0.000114434)
(6.13741e-09 5.30039e-09 -0.000114343)
(-7.49415e-09 -4.249e-09 -0.000107419)
(2.43219e-08 -3.00143e-09 -0.000107509)
(1.76317e-08 4.00029e-09 -0.000114294)
(-8.37274e-09 9.32623e-10 -0.000114322)
(2.01654e-10 -1.30993e-08 -0.000107514)
(7.02926e-09 -8.52835e-09 -0.000107445)
(-1.45665e-09 3.61231e-09 -0.000114428)
(7.9597e-09 1.00654e-08 -0.000114332)
(-1.66738e-08 -8.35706e-10 -0.000107404)
(2.10321e-08 -1.3899e-09 -0.0001075)
(1.93561e-08 5.18764e-09 -0.00011427)
(-1.24723e-08 -2.27351e-09 -0.00011431)
(-1.03188e-09 -6.41896e-09 -0.000107515)
(4.27785e-09 -2.53231e-09 -0.000107445)
(-6.80746e-10 3.79219e-09 -0.00011442)
(6.18561e-09 6.2047e-09 -0.000114325)
(-2.07227e-08 1.45177e-09 -0.000107386)
(1.92627e-08 -4.56388e-10 -0.000107481)
(1.86502e-08 4.89802e-09 -0.000114251)
(-1.09745e-08 -1.76384e-10 -0.000114296)
(-2.04255e-09 -2.80225e-09 -0.000107513)
(3.66445e-09 7.55184e-10 -0.000107439)
(-1.09178e-09 1.77145e-09 -0.000114417)
(4.95412e-09 4.41571e-09 -0.000114329)
(-1.86015e-08 -5.41542e-10 -0.000107359)
(1.54822e-08 6.83941e-10 -0.00010748)
(1.51465e-08 3.03512e-09 -0.000114233)
(-9.64301e-09 -1.03946e-09 -0.000114298)
(-3.4574e-09 -2.6394e-09 -0.000107503)
(2.29299e-09 3.11717e-09 -0.000107445)
(-3.92619e-09 -2.26869e-09 -0.000114407)
(1.51664e-09 -7.27848e-10 -0.000114323)
(-2.03633e-08 -8.89897e-10 -0.000107332)
(1.94338e-08 -1.49404e-09 -0.000107487)
(1.92491e-08 3.82427e-09 -0.000114206)
(-1.1899e-08 1.43494e-10 -0.000114321)
(-5.35073e-09 5.15567e-10 -0.000107489)
(4.09445e-09 -1.10922e-09 -0.000107436)
(-3.29752e-09 -6.78277e-10 -0.000114391)
(1.56021e-09 1.339e-09 -0.000114318)
(-8.01923e-09 -5.76114e-09 -0.000107286)
(4.04486e-08 -6.99141e-09 -0.000107469)
(1.40274e-08 2.22175e-10 -0.000114167)
(-2.84228e-08 -8.59202e-09 -0.000114298)
(-5.30479e-09 2.2957e-09 -0.000107471)
(3.82295e-09 1.10679e-09 -0.000107415)
(-1.67804e-09 3.81426e-09 -0.000114387)
(5.33839e-09 3.39808e-09 -0.000114318)
(3.20794e-08 1.1074e-08 -0.000114253)
(-5.62365e-09 -4.82551e-10 -0.000107407)
(-8.10231e-09 -5.09599e-09 -0.000114341)
(1.12699e-08 1.90162e-08 -0.00011609)
(3.65789e-08 1.90414e-08 -0.000115943)
(-9.23752e-09 -1.08796e-08 -0.000115673)
(-2.52199e-08 -3.37971e-08 -0.000115922)
(3.86619e-08 2.2151e-08 -0.000115665)
(-4.63627e-09 8.3913e-09 -0.000115802)
(1.34942e-08 1.82799e-08 -0.000109169)
(4.6648e-08 1.62294e-08 -0.000109081)
(-1.16587e-08 1.80366e-08 -0.000109198)
(-4.05534e-08 1.27606e-08 -0.000109073)
(4.83541e-08 1.73987e-08 -0.000108802)
(3.2209e-09 1.42758e-08 -0.000108883)
(-3.93053e-08 1.29341e-08 -0.000108806)
(3.80346e-11 1.14044e-08 -0.000108906)
(1.50252e-08 -1.31238e-08 -0.000116212)
(3.92649e-09 -1.92707e-09 -0.000115936)
(-8.54522e-09 1.56275e-08 -0.000116115)
(-3.91107e-08 1.97206e-08 -0.000115921)
(8.2746e-09 -1.27254e-08 -0.000115645)
(1.62054e-08 -1.37543e-08 -0.000115936)
(-2.89808e-08 1.56058e-08 -0.000115666)
(4.51676e-10 8.60382e-09 -0.000115812)
(5.11474e-09 -1.37332e-08 -0.000115523)
(2.89988e-08 -1.49779e-08 -0.00011538)
(-1.57541e-08 1.37005e-08 -0.000115639)
(-3.18675e-09 3.44033e-09 -0.00011538)
(2.69543e-08 -1.40136e-08 -0.000115144)
(-2.50705e-09 -7.90202e-09 -0.000115274)
(-4.53143e-09 4.44815e-09 -0.000115148)
(-1.09064e-08 7.51291e-09 -0.000115409)
(-6.14004e-09 -1.51091e-08 -0.000108615)
(-3.7255e-08 -1.18669e-08 -0.000108522)
(3.60297e-08 -1.04842e-08 -0.000108278)
(1.35769e-09 -1.20642e-08 -0.000108348)
(-3.49984e-08 -1.05053e-08 -0.000108284)
(-6.11929e-10 -1.152e-08 -0.000108365)
(2.05022e-08 2.34317e-08 -0.000115716)
(1.12407e-08 1.63857e-08 -0.000115438)
(-2.9387e-08 -1.55661e-08 -0.000115139)
(7.83745e-09 -5.71173e-09 -0.000115274)
(6.92624e-09 1.0327e-08 -0.000115189)
(1.86372e-08 2.06628e-08 -0.000115456)
(-1.59797e-08 -1.53171e-08 -0.000108786)
(-5.07553e-09 -1.35673e-08 -0.000108539)
(-6.46202e-09 1.65618e-08 -0.000108288)
(-1.29926e-08 1.23463e-08 -0.00010852)
(-4.84291e-09 -1.37531e-08 -0.000108309)
(-1.26315e-08 -1.04527e-08 -0.000108548)
(1.80453e-08 2.41546e-08 -0.000108831)
(1.00661e-08 2.54552e-08 -0.000108574)
(1.49541e-08 -1.58254e-08 -0.000108786)
(7.49692e-09 -1.73838e-08 -0.000108523)
(7.62511e-09 1.96143e-08 -0.000108326)
(1.68177e-08 2.07712e-08 -0.000108575)
(7.2298e-09 -1.8783e-08 -0.00010827)
(1.46982e-08 -1.46782e-08 -0.000108524)
(6.36069e-09 1.38699e-08 -0.000115539)
(3.09201e-08 1.64296e-08 -0.000115389)
(-5.15239e-09 -6.27321e-09 -0.000115177)
(-1.357e-08 -1.02859e-08 -0.000115436)
(3.04292e-08 1.63947e-08 -0.000115142)
(-1.66595e-09 8.4383e-09 -0.000115281)
(1.06407e-08 1.65371e-08 -0.00010862)
(3.92267e-08 1.2671e-08 -0.000108524)
(-5.01135e-09 1.41356e-08 -0.000108637)
(-3.98838e-08 1.31339e-08 -0.000108537)
(3.65475e-08 1.12214e-08 -0.00010828)
(1.17698e-09 1.21599e-08 -0.00010836)
(-3.74222e-08 1.18766e-08 -0.000108294)
(-3.74258e-09 1.33129e-08 -0.000108378)
(1.76811e-08 -1.84157e-08 -0.000115663)
(9.75374e-09 -1.51682e-08 -0.000115378)
(3.11987e-09 9.19399e-09 -0.000115546)
(-2.73539e-08 1.45969e-08 -0.000115394)
(9.65145e-09 -1.40952e-08 -0.000115115)
(1.87723e-08 -1.92919e-08 -0.000115392)
(-2.60731e-08 1.43676e-08 -0.00011515)
(2.79892e-09 8.3201e-09 -0.000115285)
(-5.26947e-09 -7.44378e-09 -0.000115043)
(2.61708e-08 -1.34763e-08 -0.000114929)
(-1.21928e-08 8.42466e-09 -0.000115183)
(-2.84433e-09 2.53961e-09 -0.000114945)
(2.34567e-08 -1.14831e-08 -0.000114756)
(-5.86302e-09 -6.30131e-09 -0.000114838)
(-3.60012e-09 4.09306e-09 -0.00011477)
(-1.00239e-08 6.08745e-09 -0.000114983)
(-9.15294e-10 -1.14047e-08 -0.000108132)
(-3.06565e-08 -8.66493e-09 -0.000108067)
(3.21244e-08 -8.7073e-09 -0.000107896)
(2.85032e-09 -1.1945e-08 -0.000107922)
(-2.92848e-08 -8.55173e-09 -0.000107896)
(4.42123e-09 -9.07346e-09 -0.000107931)
(1.82255e-08 1.93892e-08 -0.000115218)
(1.4693e-08 2.49415e-08 -0.000114978)
(-1.94016e-08 -9.80747e-09 -0.00011475)
(1.24215e-08 -2.84417e-09 -0.000114843)
(7.77833e-09 1.43986e-08 -0.000114802)
(2.07938e-08 2.66851e-08 -0.000115007)
(-1.3159e-08 -1.29325e-08 -0.000108325)
(-4.94538e-09 -1.4313e-08 -0.000108104)
(-4.41695e-09 1.25128e-08 -0.000107923)
(-1.36709e-08 1.33553e-08 -0.000108111)
(-5.12517e-09 -1.41607e-08 -0.000107934)
(-1.19135e-08 -1.0778e-08 -0.000108128)
(1.60473e-08 1.74398e-08 -0.000108338)
(7.84247e-09 2.23827e-08 -0.000108115)
(1.57925e-08 -1.8005e-08 -0.000108281)
(6.5914e-09 -1.65667e-08 -0.000108046)
(3.84858e-09 1.58081e-08 -0.000107941)
(1.44017e-08 1.76211e-08 -0.000108133)
(5.47678e-09 -1.60751e-08 -0.000107876)
(1.53519e-08 -1.58742e-08 -0.000108068)
(-1.24219e-09 9.13782e-09 -0.000115045)
(2.55414e-08 1.32006e-08 -0.000114927)
(-2.46796e-09 -2.24736e-09 -0.000114793)
(-1.00652e-08 -6.73143e-09 -0.000115008)
(2.19211e-08 1.07547e-08 -0.000114743)
(-5.78413e-09 6.00523e-09 -0.000114834)
(-1.09364e-09 1.07433e-08 -0.00010813)
(2.97724e-08 7.87336e-09 -0.000108062)
(-1.40156e-09 1.19714e-08 -0.000108143)
(-2.97887e-08 1.02305e-08 -0.000108076)
(2.63092e-08 7.48557e-09 -0.00010788)
(-7.35502e-09 7.7131e-09 -0.000107917)
(-2.90918e-08 8.2643e-09 -0.000107905)
(6.15825e-09 8.7172e-09 -0.000107935)
(1.81355e-08 -1.81821e-08 -0.000115141)
(7.80896e-09 -1.12993e-08 -0.000114889)
(5.96634e-09 6.92022e-09 -0.000115049)
(-2.02567e-08 1.07445e-08 -0.000114933)
(7.04269e-09 -1.06907e-08 -0.000114708)
(1.56405e-08 -1.5907e-08 -0.000114924)
(-1.99256e-08 9.30467e-09 -0.000114759)
(1.04175e-08 3.58444e-09 -0.000114841)
(-1.02891e-08 -4.15953e-09 -0.000114673)
(1.88388e-08 -8.16373e-09 -0.000114617)
(-1.09811e-08 8.08595e-09 -0.000114818)
(-3.02477e-09 4.00509e-09 -0.000114628)
(1.10665e-08 -3.5666e-09 -0.000114512)
(-1.20679e-08 -1.77193e-09 -0.000114543)
(1.0304e-09 3.85634e-10 -0.000114522)
(-9.67489e-09 6.7437e-09 -0.000114681)
(6.96814e-09 -8.03104e-09 -0.000107767)
(-2.4071e-08 -4.51048e-09 -0.000107757)
(1.91989e-08 -2.95984e-09 -0.000107654)
(-7.74973e-09 -7.24047e-09 -0.000107628)
(-2.03417e-08 -3.81827e-09 -0.000107654)
(1.11291e-08 -6.18279e-09 -0.000107632)
(1.49949e-08 1.71618e-08 -0.00011485)
(3.52203e-09 6.31872e-09 -0.000114669)
(-1.38158e-08 -5.29971e-09 -0.000114503)
(1.92321e-08 1.85374e-09 -0.00011454)
(-4.62616e-09 -7.93039e-09 -0.00011457)
(1.07733e-08 1.12854e-08 -0.000114724)
(-1.22367e-08 -1.25397e-08 -0.000107969)
(-4.97607e-09 -1.32078e-08 -0.000107795)
(7.44247e-11 6.43167e-09 -0.00010768)
(-1.05042e-08 8.79533e-09 -0.000107818)
(-2.03256e-09 -1.11556e-08 -0.000107705)
(-1.05796e-08 -9.97195e-09 -0.000107837)
(1.24033e-08 1.31725e-08 -0.00010797)
(2.97396e-09 1.3804e-08 -0.000107803)
(1.27403e-08 -1.27222e-08 -0.000107911)
(4.30912e-09 -1.60574e-08 -0.000107748)
(1.37541e-09 8.57861e-09 -0.00010771)
(9.61489e-09 1.14691e-08 -0.000107844)
(4.55779e-09 -1.86777e-08 -0.000107665)
(1.13321e-08 -1.53158e-08 -0.000107795)
(-1.17262e-08 2.99934e-09 -0.00011466)
(1.88531e-08 7.54528e-09 -0.000114602)
(-1.0676e-09 -2.67152e-09 -0.000114553)
(-8.55645e-09 -5.34819e-09 -0.000114707)
(1.51822e-08 4.86483e-09 -0.000114517)
(-1.21416e-08 -1.42281e-10 -0.000114535)
(-7.72202e-09 8.03142e-09 -0.000107745)
(2.49319e-08 5.37954e-09 -0.000107744)
(5.91371e-09 8.73913e-09 -0.000107772)
(-2.61213e-08 6.96769e-09 -0.000107764)
(2.62292e-08 5.32997e-09 -0.00010766)
(-1.11426e-08 4.09534e-09 -0.000107624)
(-1.72295e-08 1.97073e-09 -0.000107671)
(9.19741e-09 5.81648e-09 -0.000107644)
(1.46635e-08 -1.44592e-08 -0.000114757)
(4.7668e-09 -9.67983e-09 -0.000114583)
(1.38715e-08 2.5061e-09 -0.000114674)
(-1.65246e-08 7.5271e-09 -0.000114616)
(2.17766e-09 -3.37609e-09 -0.000114504)
(1.16555e-08 -1.43897e-08 -0.000114648)
(-1.43149e-08 4.66211e-09 -0.000114522)
(1.30983e-08 8.06818e-10 -0.000114546)
(-2.06804e-08 5.11604e-09 -0.000114454)
(7.68931e-09 -1.30972e-09 -0.000114443)
(-6.26068e-09 3.30128e-09 -0.00011459)
(-1.9272e-10 1.53956e-09 -0.000114451)
(5.92704e-09 9.31228e-10 -0.000114406)
(-2.32623e-08 5.72055e-09 -0.000114386)
(3.51868e-09 -2.46917e-09 -0.000114407)
(-7.24925e-09 5.59461e-09 -0.000114521)
(1.54763e-08 -2.55946e-09 -0.000107543)
(-1.21031e-08 2.56665e-10 -0.000107584)
(1.24519e-08 1.02281e-09 -0.00010755)
(-1.5926e-08 -1.92514e-09 -0.000107475)
(-1.2433e-08 9.15456e-10 -0.000107556)
(2.36982e-08 1.00257e-09 -0.000107486)
(2.6039e-09 -4.97017e-09 -0.000114639)
(-5.56682e-09 -1.24727e-08 -0.000114505)
(-8.27616e-09 -6.13929e-10 -0.000114406)
(2.47111e-08 7.29316e-09 -0.00011439)
(-8.24458e-09 -1.24049e-08 -0.000114465)
(-9.74471e-10 -9.72035e-09 -0.000114568)
(-8.94192e-09 -8.26842e-09 -0.000107756)
(-3.00166e-09 -1.04941e-08 -0.000107626)
(4.02747e-09 -1.73061e-09 -0.000107563)
(-6.43956e-09 1.46198e-09 -0.000107661)
(1.02551e-09 -4.4377e-09 -0.000107585)
(-8.15423e-09 -5.65253e-09 -0.000107684)
(7.7001e-09 3.22263e-09 -0.000107762)
(8.26947e-10 4.09942e-09 -0.000107646)
(1.15716e-08 -1.57935e-08 -0.000107721)
(3.71987e-10 -5.41459e-09 -0.000107608)
(-4.08936e-09 -3.11782e-09 -0.000107613)
(4.86235e-09 -3.759e-09 -0.0001077)
(-5.6288e-09 6.04327e-09 -0.000107578)
(5.0756e-09 2.76046e-11 -0.000107672)
(-1.60059e-08 -1.67693e-09 -0.000114457)
(1.14771e-08 4.33283e-09 -0.000114453)
(6.50285e-10 -2.19049e-09 -0.00011443)
(-8.25796e-09 -5.93733e-09 -0.000114544)
(9.89002e-09 1.77537e-09 -0.000114425)
(-2.01636e-08 -3.74842e-09 -0.000114399)
(-6.98065e-09 5.63846e-09 -0.000107548)
(3.05209e-08 8.01052e-09 -0.000107596)
(1.76267e-08 1.43711e-09 -0.000107557)
(-1.6738e-08 1.57296e-09 -0.000107596)
(1.80856e-08 2.19321e-09 -0.000107566)
(-8.58054e-09 5.20163e-09 -0.000107491)
(-1.25546e-08 -1.23649e-09 -0.000107558)
(2.12142e-08 -4.28477e-10 -0.000107488)
(8.11315e-09 -5.85961e-09 -0.000114577)
(-4.4248e-09 6.47403e-09 -0.000114453)
(1.85638e-08 -3.46505e-09 -0.00011446)
(-1.30895e-08 4.07998e-09 -0.000114447)
(-9.06502e-09 1.4237e-08 -0.000114417)
(2.55634e-09 2.50278e-09 -0.000114529)
(-9.23107e-09 7.01736e-10 -0.00011441)
(1.88953e-08 -3.86079e-09 -0.00011439)
(-2.33597e-08 6.04525e-09 -0.000114358)
(1.02512e-08 -1.24186e-09 -0.000114381)
(-4.3587e-09 2.14691e-09 -0.000114484)
(2.13299e-09 -2.211e-09 -0.000114364)
(7.5588e-09 2.70688e-10 -0.000114369)
(-2.29411e-08 7.74577e-09 -0.000114338)
(4.29955e-09 -3.25557e-09 -0.000114341)
(-3.33433e-09 7.05155e-10 -0.00011444)
(2.06968e-08 1.97245e-09 -0.000107462)
(-1.87242e-08 -1.19155e-09 -0.000107532)
(1.36972e-08 4.88883e-10 -0.000107522)
(-2.03063e-08 1.89853e-09 -0.000107436)
(-1.93687e-08 -1.10413e-09 -0.00010753)
(1.54084e-08 -3.83736e-10 -0.000107436)
(1.32599e-09 -6.36585e-09 -0.00011454)
(-5.28455e-09 -4.24618e-09 -0.000114438)
(-1.45244e-08 -3.05199e-09 -0.000114378)
(2.02547e-08 5.58939e-09 -0.000114334)
(-5.57009e-09 -6.53408e-09 -0.000114412)
(4.38032e-09 2.71817e-09 -0.000114514)
(-5.59853e-09 -3.66595e-09 -0.000107648)
(2.98156e-10 -6.88262e-09 -0.000107552)
(2.47462e-09 2.96824e-09 -0.000107506)
(-5.69997e-09 2.91772e-09 -0.000107584)
(4.8183e-09 7.74136e-10 -0.000107536)
(-5.66412e-09 -2.53828e-09 -0.000107618)
(5.38169e-09 -1.90978e-09 -0.000107674)
(-4.02044e-09 1.39394e-09 -0.00010759)
(3.22558e-09 5.58185e-09 -0.000107641)
(-3.73686e-09 9.53714e-10 -0.000107552)
(-3.91515e-09 -1.05584e-09 -0.000107565)
(4.74116e-09 1.25075e-09 -0.000107651)
(-1.96356e-09 -3.89365e-09 -0.000107535)
(3.26162e-09 1.68083e-09 -0.000107619)
(-2.07985e-08 -5.29809e-09 -0.000114378)
(7.74436e-09 -7.42256e-10 -0.000114403)
(4.37283e-09 2.39306e-09 -0.000114387)
(-5.36887e-09 -3.50886e-09 -0.000114479)
(1.03975e-08 4.25292e-10 -0.000114397)
(-2.25467e-08 -7.3596e-09 -0.000114357)
(-1.77561e-08 4.2729e-10 -0.000107468)
(1.68341e-08 2.91665e-10 -0.000107547)
(2.22493e-08 -1.10397e-09 -0.000107457)
(-1.30375e-08 -1.32467e-09 -0.000107529)
(1.18958e-08 -2.64144e-09 -0.000107545)
(-2.01348e-08 -9.62394e-10 -0.000107449)
(-1.66149e-08 3.68523e-10 -0.000107518)
(2.04509e-08 -1.36919e-09 -0.00010743)
(-4.18482e-11 7.99105e-09 -0.000114495)
(-7.66065e-09 8.98364e-09 -0.00011439)
(2.28424e-08 -6.22194e-09 -0.000114357)
(-6.31863e-09 -6.58598e-10 -0.000114377)
(-5.52196e-09 6.09476e-09 -0.000114369)
(1.66184e-09 1.81751e-09 -0.000114471)
(-1.04438e-08 1.09519e-09 -0.000114358)
(2.30974e-08 -7.56448e-09 -0.000114328)
(-2.15556e-08 7.4467e-09 -0.000114327)
(1.00543e-08 -1.82927e-09 -0.000114355)
(-3.22499e-09 6.1645e-10 -0.000114428)
(2.11295e-09 -3.55453e-10 -0.000114334)
(7.33583e-09 6.63384e-10 -0.000114364)
(-1.99773e-08 5.53728e-09 -0.000114315)
(1.26863e-09 1.98862e-09 -0.000114324)
(-4.54847e-09 3.34809e-09 -0.000114417)
(1.35974e-08 -1.30199e-09 -0.000107433)
(-1.42427e-08 -1.8128e-10 -0.000107514)
(1.2987e-08 7.52623e-10 -0.000107515)
(-1.89341e-08 5.52006e-10 -0.000107417)
(-1.90852e-08 -1.33389e-09 -0.00010752)
(1.62902e-08 -1.07626e-09 -0.000107421)
(3.1499e-09 1.49647e-09 -0.000114501)
(-2.30116e-09 -2.11237e-09 -0.000114404)
(-1.5709e-08 -3.2129e-09 -0.000114366)
(2.19967e-08 6.46443e-09 -0.000114324)
(-5.96958e-09 -5.73691e-09 -0.000114392)
(3.55694e-09 2.65866e-10 -0.000114473)
(-3.79125e-09 1.97208e-09 -0.000107603)
(2.8544e-09 -2.97351e-09 -0.000107514)
(6.99491e-10 6.09069e-09 -0.000107485)
(-7.09626e-09 5.64922e-09 -0.000107558)
(7.50735e-11 -7.24805e-09 -0.00010751)
(-4.94754e-09 -3.38396e-09 -0.000107584)
(1.95415e-09 -3.67407e-09 -0.000107634)
(-2.39243e-09 1.99679e-09 -0.000107549)
(4.86612e-09 -7.62347e-10 -0.000107602)
(-1.8187e-09 -2.40258e-09 -0.000107515)
(-3.87253e-09 -3.38754e-10 -0.000107541)
(4.39253e-09 -1.04457e-09 -0.000107608)
(-3.17609e-09 -1.13621e-09 -0.000107511)
(4.18945e-09 1.76668e-10 -0.000107585)
(-2.29294e-08 -7.28914e-09 -0.000114353)
(8.64564e-09 3.39986e-10 -0.000114382)
(1.02942e-09 -1.29971e-09 -0.000114359)
(-3.88582e-09 -3.30134e-09 -0.000114452)
(1.16369e-08 1.24942e-09 -0.000114381)
(-1.90225e-08 -5.37389e-09 -0.000114338)
(-2.36794e-08 -1.82887e-09 -0.000107446)
(1.47755e-08 -8.69212e-10 -0.000107528)
(1.89726e-08 3.19341e-10 -0.000107422)
(-1.92182e-08 2.12966e-09 -0.000107504)
(1.92718e-08 1.33604e-09 -0.00010753)
(-1.76447e-08 -1.71489e-10 -0.000107432)
(-2.46091e-08 2.38399e-09 -0.000107508)
(1.39702e-08 1.52407e-09 -0.000107409)
(2.19006e-09 2.10014e-09 -0.000114451)
(-5.054e-09 6.07521e-09 -0.00011435)
(2.24937e-08 -6.40794e-09 -0.000114312)
(-1.00747e-08 1.7309e-09 -0.000114342)
(-2.59444e-09 2.06169e-09 -0.000114341)
(3.00412e-09 -1.52502e-09 -0.000114436)
(-2.06825e-08 6.60262e-09 -0.000114341)
(1.66048e-08 -3.66579e-09 -0.000114297)
(-2.39543e-08 6.72701e-09 -0.000114319)
(1.18861e-08 -2.50027e-09 -0.000114356)
(-6.88174e-09 7.40126e-09 -0.000114414)
(-2.94987e-10 4.71538e-09 -0.000114315)
(7.67867e-09 -1.05945e-10 -0.000114355)
(-1.91891e-08 5.82182e-09 -0.000114315)
(2.41884e-09 -6.01492e-10 -0.000114309)
(-5.49501e-09 5.56783e-09 -0.000114399)
(1.35269e-08 -1.87621e-09 -0.000107424)
(-2.38173e-08 -3.04993e-09 -0.000107518)
(1.28206e-08 8.86722e-10 -0.000107517)
(-2.08628e-08 1.68372e-09 -0.000107421)
(-1.8042e-08 -1.39567e-09 -0.000107517)
(1.2968e-08 -6.11832e-10 -0.000107426)
(3.06043e-09 -1.11342e-10 -0.000114474)
(-5.25871e-09 -6.21294e-09 -0.000114382)
(-1.78449e-08 -5.42659e-09 -0.00011436)
(1.20731e-08 1.52364e-09 -0.000114316)
(-6.13154e-09 -5.95028e-09 -0.000114377)
(3.65853e-09 1.2074e-09 -0.00011446)
(-6.95122e-09 -5.84953e-09 -0.00010758)
(3.74059e-10 -6.12717e-09 -0.000107496)
(3.36293e-09 1.10041e-10 -0.000107463)
(-4.46966e-09 -1.55676e-09 -0.000107536)
(4.28096e-09 -1.75361e-10 -0.000107506)
(-4.9235e-09 -2.78964e-09 -0.000107567)
(3.14428e-09 -3.75434e-09 -0.000107607)
(-4.83058e-09 -3.00726e-09 -0.000107531)
(2.58032e-09 4.37083e-09 -0.000107579)
(-5.30435e-09 4.81665e-09 -0.000107499)
(-4.50626e-09 -1.4222e-09 -0.00010753)
(4.09161e-09 -1.75871e-09 -0.000107595)
(-2.68711e-09 -9.08028e-10 -0.000107495)
(1.4619e-09 6.82923e-09 -0.00010757)
(-1.87651e-08 -4.53701e-09 -0.000114338)
(1.15241e-08 1.40368e-09 -0.000114375)
(1.60825e-09 -2.37345e-09 -0.000114357)
(-5.71613e-09 -5.05249e-09 -0.000114433)
(1.26549e-08 2.65578e-09 -0.000114374)
(-2.0315e-08 -5.51078e-09 -0.000114331)
(-1.66225e-08 6.06957e-10 -0.000107437)
(1.69295e-08 3.63542e-10 -0.000107526)
(1.33193e-08 1.914e-09 -0.000107415)
(-1.82668e-08 1.21138e-09 -0.000107501)
(1.87036e-08 1.39603e-09 -0.000107527)
(-1.72893e-08 2.79993e-10 -0.00010743)
(-1.86169e-08 4.80441e-10 -0.000107499)
(1.70087e-08 3.86546e-10 -0.000107404)
(2.67165e-09 5.27717e-10 -0.000114426)
(-7.42947e-09 9.43611e-09 -0.000114333)
(1.29466e-08 -1.95253e-09 -0.000114299)
(-1.59963e-08 4.04238e-09 -0.000114335)
(-5.69776e-09 7.31084e-09 -0.000114327)
(1.84607e-10 4.38013e-09 -0.000114418)
(-1.62056e-08 4.29971e-09 -0.000114333)
(1.48009e-08 -2.82455e-09 -0.000114288)
(-2.14445e-08 6.80526e-09 -0.000114318)
(1.47336e-08 -3.72824e-09 -0.000114359)
(-4.26118e-09 3.02237e-09 -0.000114397)
(4.15008e-09 -2.12072e-09 -0.00011431)
(2.20733e-08 -7.6246e-09 -0.000114359)
(-1.40317e-08 3.23591e-09 -0.000114317)
(8.08656e-09 -8.78977e-09 -0.000114307)
(-1.82779e-09 -7.68654e-10 -0.000114395)
(1.51229e-08 -1.24021e-09 -0.000107422)
(-1.76387e-08 -1.43379e-11 -0.000107514)
(2.55161e-08 -2.83136e-09 -0.00010752)
(-1.70805e-08 -1.04636e-10 -0.000107422)
(-1.95798e-08 -1.32804e-09 -0.000107516)
(1.39408e-08 1.12489e-11 -0.000107426)
(3.36653e-09 8.79449e-10 -0.000114463)
(-3.74642e-09 -2.44898e-09 -0.000114378)
(-1.71535e-08 -3.95532e-09 -0.000114358)
(1.68382e-08 4.34365e-09 -0.000114321)
(-1.01606e-08 -1.36383e-08 -0.000114365)
(5.69441e-10 -3.40051e-09 -0.000114453)
(-3.36236e-09 -3.15705e-10 -0.000107578)
(2.83059e-09 -1.53594e-09 -0.000107495)
(5.45162e-09 -3.98175e-09 -0.000107454)
(-3.93324e-09 6.03318e-10 -0.000107528)
(2.8626e-09 -3.08427e-10 -0.000107495)
(-2.19821e-09 3.42825e-09 -0.000107567)
(2.849e-09 -3.30413e-09 -0.000107599)
(-5.16414e-09 -3.03375e-09 -0.000107527)
(4.75175e-09 -2.06377e-10 -0.000107566)
(-2.88769e-09 -1.12593e-09 -0.000107489)
(-7.3713e-09 -8.88146e-09 -0.000107518)
(-1.0322e-10 -1.00441e-08 -0.000107589)
(-3.32007e-09 -9.96266e-10 -0.000107492)
(3.96991e-09 -3.70249e-11 -0.00010756)
(-2.02746e-08 -5.44222e-09 -0.000114332)
(1.22966e-08 1.46354e-09 -0.000114379)
(5.43697e-09 5.99358e-09 -0.000114345)
(1.38235e-10 3.82359e-09 -0.000114434)
(1.80718e-08 5.30761e-09 -0.00011437)
(-1.82372e-08 -5.29774e-09 -0.000114334)
(-1.84764e-08 -1.14009e-10 -0.000107429)
(1.58215e-08 -7.98563e-11 -0.000107527)
(1.62378e-08 1.64136e-09 -0.0001074)
(-1.77037e-08 -5.18007e-11 -0.000107494)
(2.26651e-08 3.17212e-09 -0.00010752)
(-1.74241e-08 -3.91886e-10 -0.00010743)
(-2.20643e-08 1.49071e-09 -0.00010749)
(1.72919e-08 -1.62127e-10 -0.000107396)
(2.65787e-09 1.44112e-09 -0.000114412)
(-6.16955e-09 6.9996e-09 -0.000114322)
(1.69316e-08 -3.61192e-09 -0.000114287)
(-1.64527e-08 4.09549e-09 -0.000114327)
(-3.64073e-09 1.72384e-09 -0.000114328)
(3.36885e-09 -1.48549e-09 -0.000114408)
(-1.70168e-08 4.07011e-09 -0.000114318)
(1.66994e-08 -4.33574e-09 -0.000114279)
(-8.62415e-09 -3.12689e-10 -0.000114318)
(2.39849e-08 -8.46718e-09 -0.000114355)
(4.39698e-10 -5.85963e-09 -0.000114392)
(9.09796e-09 -1.26796e-08 -0.0001143)
(2.60826e-08 -9.03453e-09 -0.000114358)
(-7.51256e-09 -9.33317e-10 -0.00011431)
(9.22487e-09 -1.30788e-08 -0.000114297)
(1.71707e-09 -7.65913e-09 -0.000114384)
(1.35914e-08 -1.41851e-09 -0.00010742)
(-2.08837e-08 -1.37876e-09 -0.000107508)
(2.70906e-08 -3.62438e-09 -0.000107515)
(-5.58864e-09 -4.74922e-09 -0.000107417)
(-1.48893e-08 4.7254e-10 -0.0001075)
(1.6392e-08 -2.06803e-11 -0.00010741)
(-2.27439e-09 -9.19084e-09 -0.000114447)
(-8.40095e-09 -1.11585e-08 -0.000114362)
(-1.66345e-08 -4.3956e-09 -0.000114341)
(1.48369e-08 3.13717e-09 -0.000114301)
(-9.03511e-09 -1.09899e-08 -0.000114366)
(7.69324e-10 -3.57678e-09 -0.000114442)
(-3.35733e-09 1.88145e-09 -0.000107567)
(5.55204e-09 4.11473e-09 -0.000107489)
(8.31851e-09 -1.22949e-08 -0.000107446)
(-2.7423e-10 -9.46993e-09 -0.000107514)
(7.66679e-09 6.60367e-09 -0.000107492)
(-1.42964e-09 6.41373e-09 -0.000107558)
(3.71707e-10 -9.49462e-09 -0.000107583)
(-5.97442e-09 -4.46389e-09 -0.000107514)
(2.43069e-09 1.13608e-09 -0.000107566)
(-1.14282e-09 -4.91459e-09 -0.000107485)
(-6.05239e-09 -5.48914e-09 -0.000107515)
(1.27653e-09 -5.87961e-09 -0.000107579)
(-1.03608e-09 -5.55241e-09 -0.000107483)
(6.00726e-09 -4.04484e-09 -0.000107553)
(-1.15217e-08 -1.59576e-09 -0.000114328)
(1.81997e-08 5.65316e-09 -0.000114363)
(5.72806e-09 5.46008e-09 -0.000114341)
(-9.59062e-10 3.70883e-09 -0.000114427)
(1.72548e-08 4.98046e-09 -0.000114358)
(-1.28196e-08 -2.05241e-09 -0.000114318)
(-1.30072e-08 6.43206e-10 -0.000107427)
(2.25643e-08 2.84986e-09 -0.000107512)
(1.24586e-08 1.86959e-09 -0.000107395)
(-2.01948e-08 1.7512e-09 -0.000107481)
(2.26035e-08 2.95064e-09 -0.000107507)
(-1.33878e-08 1.63146e-09 -0.000107412)
(-1.73487e-08 7.39525e-10 -0.000107479)
(1.55539e-08 7.51274e-10 -0.000107388)
(3.36799e-09 -3.15514e-09 -0.000114416)
(-5.29644e-09 5.9038e-09 -0.000114326)
(1.79823e-08 -4.28924e-09 -0.000114274)
(-1.31167e-08 2.363e-09 -0.000114309)
(-2.9154e-09 1.30053e-09 -0.000114323)
(3.75814e-09 -7.05881e-10 -0.000114407)
(-1.4646e-08 3.97349e-09 -0.000114305)
(1.72912e-08 -4.72507e-09 -0.000114266)
(-4.59213e-09 -2.59016e-09 -0.000114316)
(2.24918e-08 -7.36921e-09 -0.000114354)
(1.61001e-09 -8.59132e-09 -0.000114384)
(7.56636e-09 -9.61193e-09 -0.000114292)
(1.53918e-08 -3.51919e-09 -0.00011435)
(-1.00908e-08 -1.35464e-10 -0.000114308)
(7.53616e-09 -8.49273e-09 -0.000114293)
(5.1659e-10 -5.72102e-09 -0.000114377)
(1.69439e-08 -2.49023e-10 -0.000107403)
(-1.24283e-08 1.65442e-09 -0.000107485)
(1.74042e-08 -5.63325e-10 -0.000107502)
(-1.19243e-08 -2.66972e-09 -0.00010741)
(-1.80376e-08 -1.20018e-09 -0.000107475)
(1.95452e-08 1.56261e-09 -0.000107391)
(6.47828e-10 -3.54952e-09 -0.000114454)
(-5.98062e-10 1.8028e-09 -0.000114369)
(-1.14985e-08 -1.42557e-09 -0.000114313)
(2.1303e-08 6.85107e-09 -0.00011428)
(-5.13403e-09 -3.91012e-09 -0.000114358)
(5.25418e-09 4.39902e-09 -0.000114439)
(-1.29563e-09 8.02603e-09 -0.000107562)
(5.1369e-09 4.55933e-09 -0.000107482)
(7.23275e-09 -7.79821e-09 -0.000107446)
(-6.34708e-10 -1.01355e-08 -0.000107511)
(4.96218e-09 3.36974e-09 -0.000107486)
(-1.65603e-09 8.46857e-09 -0.000107553)
(2.2679e-09 -6.17871e-09 -0.000107584)
(-1.23253e-09 6.71044e-09 -0.000107515)
(7.16118e-09 -4.73305e-09 -0.000107553)
(-1.88965e-09 -1.33709e-09 -0.000107487)