/*--------------------------------*- C++ -*----------------------------------*\
| =========                 |                                                 |
| \\      /  F ield         | OpenFOAM: The Open Source CFD Toolbox           |
|  \\    /   O peration     | Version:  2206                                  |
|   \\  /    A nd           | Website:  www.openfoam.com                      |
|    \\/     M anipulation  |                                                 |
\*---------------------------------------------------------------------------*/
FoamFile
{
    version     2.0;
    format      ascii;
    arch        "LSB;label=32;scalar=64";
    class       volScalarField;
    location    "100";
    object      k;
}
// * * * * * * * * * * * * * * * * * * * * * * * * * * * * * * * * * * * * * //

dimensions      [0 2 -2 0 0 0 0];

internalField   nonuniform List<scalar> 
67442
(
4.23391e-05
6.62227e-05
6.60677e-05
6.70789e-05
6.65788e-05
6.56992e-05
6.5421e-05
6.7011e-05
6.70189e-05
6.79218e-05
6.74127e-05
6.73313e-05
6.55959e-05
2.1061e-05
5.86747e-05
1.35067e-05
2.1032e-05
5.70604e-05
4.28511e-05
4.2542e-05
4.1686e-05
6.02916e-05
5.43749e-05
7.34868e-05
1.35724e-05
5.18873e-05
6.02493e-05
7.35963e-05
3.45838e-05
3.42261e-05
1.339e-05
1.34312e-05
3.49366e-05
3.4793e-05
2.12295e-05
5.92679e-05
5.95094e-05
5.22183e-05
7.36407e-05
6.09773e-05
5.19347e-05
7.36567e-05
3.50497e-05
3.49341e-05
1.35262e-05
5.92514e-05
5.30518e-05
7.33588e-05
2.11093e-05
5.87532e-05
5.41939e-05
6.02791e-05
7.40531e-05
2.13812e-05
5.92926e-05
5.36722e-05
5.94467e-05
7.3482e-05
2.12291e-05
5.93605e-05
3.52342e-05
3.49486e-05
1.34195e-05
5.14836e-05
5.97806e-05
7.37442e-05
2.10784e-05
5.95021e-05
2.12475e-05
5.92195e-05
1.34114e-05
1.3228e-05
1.25807e-05
2.10726e-05
3.33197e-05
3.32943e-05
1.24971e-05
1.66042e-05
5.87184e-05
1.82929e-05
5.32211e-05
1.8343e-05
5.29806e-05
1.66183e-05
1.3481e-05
1.64869e-05
5.80482e-05
5.16033e-05
1.8001e-05
1.25028e-05
2.0852e-05
3.25791e-05
3.27489e-05
1.25237e-05
1.25951e-05
2.11686e-05
3.30401e-05
1.64473e-05
5.76973e-05
5.15831e-05
1.80663e-05
5.19543e-05
1.80232e-05
1.64584e-05
1.3488e-05
1.3652e-05
5.61159e-05
6.98445e-05
3.44607e-05
2.07715e-05
6.93984e-05
2.05967e-05
5.61331e-05
5.567e-05
6.94094e-05
3.44191e-05
2.06272e-05
6.97053e-05
2.06054e-05
5.59769e-05
2.56216e-05
1.18617e-05
1.18958e-05
1.18743e-05
1.18663e-05
2.59115e-05
1.34098e-05
1.34015e-05
1.34441e-05
5.60576e-05
7.00856e-05
3.50996e-05
2.08228e-05
2.09633e-05
7.00467e-05
5.62759e-05
5.61572e-05
7.08121e-05
3.45303e-05
2.09442e-05
2.08243e-05
7.10904e-05
5.62523e-05
2.61552e-05
1.2004e-05
1.20194e-05
1.20023e-05
1.19777e-05
2.61956e-05
1.25423e-05
2.14267e-05
3.35115e-05
3.34436e-05
1.26024e-05
1.66363e-05
5.94e-05
1.82339e-05
5.31009e-05
1.81803e-05
5.28521e-05
1.64976e-05
5.58152e-05
7.01874e-05
3.51436e-05
2.08193e-05
2.06507e-05
6.9847e-05
5.51287e-05
5.62303e-05
7.06436e-05
3.48272e-05
2.10979e-05
7.05882e-05
2.10745e-05
5.68633e-05
2.58071e-05
1.19931e-05
1.20236e-05
1.19351e-05
1.1989e-05
2.59135e-05
1.35021e-05
1.69263e-05
5.81276e-05
1.84545e-05
5.37451e-05
1.27024e-05
2.12509e-05
3.34627e-05
3.34301e-05
1.27202e-05
1.28479e-05
2.14205e-05
3.3666e-05
1.68249e-05
5.83727e-05
1.84307e-05
5.34912e-05
1.8374e-05
5.30143e-05
1.68819e-05
1.27629e-05
2.12487e-05
3.35548e-05
3.33301e-05
1.27867e-05
1.69726e-05
5.91645e-05
5.37671e-05
1.86321e-05
5.36336e-05
1.85938e-05
1.70222e-05
1.26072e-05
2.11394e-05
3.31848e-05
3.28692e-05
1.26649e-05
1.68359e-05
5.94348e-05
1.86208e-05
5.33454e-05
1.85794e-05
5.32801e-05
1.68888e-05
5.72413e-05
7.07102e-05
3.49149e-05
2.0962e-05
2.11283e-05
7.081e-05
5.7294e-05
5.78124e-05
7.07644e-05
3.53567e-05
2.14135e-05
7.19757e-05
2.13289e-05
5.73182e-05
2.66076e-05
1.21737e-05
1.22411e-05
1.21538e-05
1.21993e-05
2.66642e-05
1.34197e-05
1.26134e-05
2.12804e-05
3.3557e-05
3.35113e-05
1.25661e-05
1.65207e-05
5.95196e-05
5.28244e-05
1.82489e-05
5.26626e-05
1.82863e-05
1.64371e-05
1.2596e-05
2.12573e-05
3.34766e-05
3.34558e-05
1.26328e-05
1.64985e-05
5.91865e-05
5.34863e-05
1.82687e-05
5.33633e-05
1.81332e-05
1.67011e-05
1.3363e-05
1.32911e-05
3.00865e-05
3.09394e-05
1.9579e-05
7.18014e-05
7.33037e-05
7.32298e-05
6.72068e-05
7.44509e-05
7.44313e-05
7.19395e-05
7.28414e-05
7.44971e-05
7.38317e-05
6.77365e-05
7.46188e-05
7.47665e-05
7.28394e-05
7.26534e-05
7.39039e-05
7.40607e-05
6.689e-05
7.38888e-05
7.39355e-05
7.16186e-05
7.35418e-05
7.48007e-05
7.51621e-05
6.85609e-05
7.49861e-05
7.59451e-05
7.36983e-05
3.03614e-05
3.15785e-05
1.94987e-05
3.12424e-05
3.01526e-05
1.9539e-05
3.11643e-05
3.02279e-05
1.93825e-05
7.14552e-05
7.4602e-05
6.00919e-05
7.0126e-05
7.46179e-05
7.02354e-05
7.10947e-05
6.87151e-05
7.46574e-05
7.44276e-05
6.64774e-05
7.47664e-05
6.71428e-05
6.83647e-05
7.12072e-05
7.46983e-05
6.02937e-05
7.04756e-05
7.38183e-05
6.93841e-05
7.15892e-05
6.74079e-05
7.35315e-05
6.39233e-05
7.33473e-05
6.499e-05
7.30836e-05
6.73774e-05
7.093e-05
7.42731e-05
6.06502e-05
7.03983e-05
7.06871e-05
7.426e-05
7.09814e-05
6.62738e-05
7.3631e-05
7.25756e-05
6.38665e-05
7.36455e-05
6.40351e-05
6.71375e-05
7.12505e-05
7.37348e-05
6.11365e-05
6.96931e-05
7.06696e-05
7.50804e-05
7.02482e-05
6.72231e-05
7.27278e-05
7.20959e-05
6.42067e-05
7.25546e-05
6.37847e-05
6.76586e-05
7.07102e-05
7.41892e-05
5.90256e-05
6.86027e-05
6.96674e-05
7.33951e-05
7.16471e-05
6.7962e-05
7.35491e-05
7.30476e-05
6.51237e-05
7.3285e-05
6.63699e-05
6.72022e-05
7.24896e-05
7.49635e-05
6.02051e-05
7.01986e-05
6.98166e-05
7.37967e-05
7.28205e-05
6.93561e-05
7.42375e-05
6.59272e-05
7.4065e-05
6.63938e-05
7.34337e-05
6.8271e-05
7.13319e-05
7.46024e-05
5.9244e-05
6.92706e-05
7.4431e-05
6.88755e-05
7.14658e-05
6.86393e-05
7.31477e-05
6.6625e-05
7.24265e-05
6.55873e-05
7.32983e-05
6.82914e-05
6.97999e-05
7.4077e-05
6.0492e-05
6.95682e-05
7.41515e-05
7.0552e-05
7.07488e-05
6.64274e-05
7.33111e-05
6.41394e-05
7.2627e-05
6.50827e-05
7.24463e-05
6.66943e-05
3.8057e-06
8.81948e-07
1.57163e-07
4.74418e-08
2.51017e-07
3.82852e-06
9.09216e-07
1.65121e-07
5.24106e-08
2.83802e-07
3.85434e-06
8.93382e-07
1.59052e-07
4.7712e-08
2.51794e-07
3.8789e-06
9.20298e-07
1.67038e-07
5.27092e-08
2.84643e-07
3.79379e-06
9.00106e-07
1.63568e-07
5.22773e-08
2.83793e-07
3.83096e-06
9.0847e-07
1.64948e-07
5.24636e-08
2.84336e-07
3.8569e-06
8.944e-07
1.59181e-07
4.76403e-08
2.51177e-07
3.87422e-06
9.19351e-07
1.6691e-07
5.27151e-08
2.84741e-07
3.88411e-06
9.01131e-07
1.60465e-07
4.78779e-08
2.52006e-07
3.91303e-06
9.06648e-07
1.61319e-07
4.79746e-08
2.52138e-07
3.87735e-06
8.97664e-07
1.59758e-07
4.78103e-08
2.52006e-07
3.82083e-06
9.06906e-07
1.64774e-07
5.24237e-08
2.84055e-07
3.82816e-06
8.87191e-07
1.57963e-07
4.75352e-08
2.51238e-07
3.84297e-06
8.88608e-07
1.58059e-07
4.75179e-08
2.51117e-07
3.82007e-06
9.05346e-07
1.64416e-07
5.24331e-08
2.84475e-07
3.75887e-06
8.9234e-07
1.62272e-07
5.21368e-08
2.8373e-07
3.85167e-06
9.13558e-07
1.659e-07
5.24813e-08
2.83628e-07
3.81986e-06
8.85492e-07
1.57697e-07
4.75266e-08
2.51352e-07
3.82273e-06
9.07479e-07
1.64863e-07
5.23949e-08
2.83845e-07
3.68344e-06
8.62946e-07
1.55113e-07
4.83213e-08
2.59438e-07
3.80659e-06
8.96184e-07
1.61658e-07
4.98572e-08
2.66422e-07
3.88444e-06
9.22567e-07
1.67537e-07
5.26379e-08
2.83558e-07
3.84022e-06
8.9121e-07
1.58761e-07
4.76359e-08
2.51359e-07
3.8634e-06
8.94648e-07
1.59239e-07
4.77361e-08
2.51839e-07
3.87061e-06
9.19504e-07
1.67003e-07
5.26422e-08
2.8406e-07
3.89123e-06
9.23317e-07
1.67684e-07
5.27872e-08
2.84665e-07
3.89314e-06
9.01588e-07
1.60471e-07
4.81237e-08
2.53997e-07
3.87973e-06
8.99425e-07
1.60178e-07
4.80474e-08
2.53565e-07
3.85512e-06
8.92635e-07
1.59008e-07
4.79366e-08
2.53564e-07
3.86392e-06
8.95289e-07
1.59447e-07
4.79686e-08
2.53514e-07
3.53663e-06
8.37808e-07
1.52441e-07
5.05518e-08
2.78714e-07
3.52488e-06
8.34308e-07
1.51818e-07
5.04749e-08
2.78593e-07
3.53452e-06
8.36893e-07
1.52225e-07
5.04649e-08
2.78203e-07
3.52994e-06
8.35729e-07
1.51993e-07
5.04445e-08
2.7825e-07
3.80593e-06
9.02822e-07
1.63986e-07
5.23227e-08
2.83869e-07
3.82836e-06
9.09005e-07
1.65117e-07
5.24147e-08
2.83771e-07
3.83833e-06
9.11328e-07
1.65569e-07
5.25381e-08
2.8438e-07
3.8739e-06
8.96725e-07
1.59442e-07
4.7696e-08
2.51472e-07
3.95372e-06
9.15424e-07
1.62855e-07
4.83689e-08
2.5412e-07
3.96319e-06
9.17745e-07
1.63162e-07
4.83447e-08
2.53768e-07
3.57218e-06
8.45276e-07
1.53641e-07
5.06685e-08
2.78785e-07
3.56422e-06
8.43465e-07
1.53299e-07
5.05802e-08
2.78348e-07
3.86361e-06
9.17033e-07
1.66521e-07
5.26033e-08
2.84117e-07
3.76889e-06
8.81651e-07
1.58202e-07
4.86466e-08
2.59719e-07
3.87924e-06
9.11848e-07
1.64178e-07
5.01017e-08
2.66544e-07
3.95043e-06
9.37942e-07
1.70143e-07
5.29102e-08
2.8379e-07
3.89816e-06
9.04253e-07
1.61005e-07
4.7874e-08
2.51549e-07
3.92161e-06
9.09434e-07
1.61893e-07
4.80196e-08
2.52041e-07
3.91064e-06
9.07405e-07
1.61486e-07
4.79283e-08
2.51645e-07
3.90664e-06
9.26294e-07
1.68067e-07
5.27009e-08
2.83685e-07
3.87269e-06
8.97211e-07
1.59686e-07
4.77386e-08
2.51492e-07
3.98316e-06
9.21893e-07
1.63888e-07
4.84467e-08
2.53935e-07
3.97618e-06
9.20717e-07
1.63725e-07
4.84476e-08
2.54039e-07
3.62637e-06
8.57288e-07
1.55586e-07
5.08597e-08
2.78835e-07
3.81656e-06
9.06745e-07
1.648e-07
5.2436e-08
2.84111e-07
3.86853e-06
9.16461e-07
1.66233e-07
5.25202e-08
2.8374e-07
3.84155e-06
8.89428e-07
1.58301e-07
4.76028e-08
2.51532e-07
3.86507e-06
9.16549e-07
1.66378e-07
5.25318e-08
2.83714e-07
3.8527e-06
8.91069e-07
1.58432e-07
4.75837e-08
2.51405e-07
3.81347e-06
9.04352e-07
1.64252e-07
5.23385e-08
2.83834e-07
3.76763e-06
8.93605e-07
1.62464e-07
5.21604e-08
2.83772e-07
3.85661e-06
9.15447e-07
1.66225e-07
5.25335e-08
2.838e-07
3.97251e-06
9.42809e-07
1.70935e-07
5.30043e-08
2.8391e-07
3.66077e-06
8.56775e-07
1.54015e-07
4.81221e-08
2.58736e-07
3.79341e-06
8.91029e-07
1.60575e-07
4.95841e-08
2.65232e-07
3.80374e-06
8.94216e-07
1.61176e-07
4.96813e-08
2.65536e-07
3.65294e-06
8.54706e-07
1.53569e-07
4.80297e-08
2.58383e-07
3.83797e-06
9.10571e-07
1.65348e-07
5.23594e-08
2.83114e-07
3.90019e-06
9.02909e-07
1.60708e-07
4.81121e-08
2.53724e-07
3.88797e-06
9.01172e-07
1.60493e-07
4.80823e-08
2.53597e-07
3.55893e-06
8.42012e-07
1.5304e-07
5.05998e-08
2.78681e-07
3.54566e-06
8.39407e-07
1.5264e-07
5.05163e-08
2.78274e-07
3.88859e-06
9.23102e-07
1.67571e-07
5.27041e-08
2.84119e-07
3.67794e-06
8.61467e-07
1.54786e-07
4.81878e-08
2.58659e-07
3.8039e-06
8.94156e-07
1.61224e-07
4.9811e-08
2.66411e-07
3.80156e-06
8.94259e-07
1.61248e-07
4.97036e-08
2.65532e-07
3.67131e-06
8.59226e-07
1.54409e-07
4.82493e-08
2.59433e-07
3.90472e-06
9.26461e-07
1.68175e-07
5.27701e-08
2.84156e-07
3.95848e-06
9.16538e-07
1.62941e-07
4.8378e-08
2.54176e-07
3.96388e-06
9.16701e-07
1.62944e-07
4.83151e-08
2.53665e-07
3.60779e-06
8.52197e-07
1.54704e-07
5.07778e-08
2.78903e-07
3.60515e-06
8.52107e-07
1.54744e-07
5.07198e-08
2.78359e-07
3.90128e-06
9.03629e-07
1.609e-07
4.81368e-08
2.53686e-07
3.91583e-06
9.05996e-07
1.61239e-07
4.81662e-08
2.53684e-07
3.55416e-06
8.40372e-07
1.52722e-07
5.05281e-08
2.78423e-07
3.56362e-06
8.43614e-07
1.5332e-07
5.05535e-08
2.78157e-07
3.92132e-06
9.06179e-07
1.61066e-07
4.81453e-08
2.53841e-07
3.91139e-06
9.05449e-07
1.61093e-07
4.81117e-08
2.53469e-07
3.56367e-06
8.42076e-07
1.53e-07
5.05831e-08
2.78641e-07
3.55723e-06
8.41209e-07
1.52881e-07
5.05186e-08
2.78194e-07
3.66121e-06
8.56729e-07
1.53979e-07
4.81379e-08
2.5886e-07
3.78796e-06
8.91134e-07
1.60645e-07
4.96119e-08
2.65358e-07
3.78748e-06
8.92106e-07
1.60869e-07
4.967e-08
2.65637e-07
3.63926e-06
8.53599e-07
1.53556e-07
4.80663e-08
2.58561e-07
3.86284e-06
9.15648e-07
1.66172e-07
5.24667e-08
2.83341e-07
3.75415e-06
8.78261e-07
1.57624e-07
4.84953e-08
2.58929e-07
3.87043e-06
9.09211e-07
1.63692e-07
5.00531e-08
2.66541e-07
3.86781e-06
9.09475e-07
1.63753e-07
4.9949e-08
2.65654e-07
3.75687e-06
8.78471e-07
1.57682e-07
4.8601e-08
2.59715e-07
3.94655e-06
9.35639e-07
1.69682e-07
5.29351e-08
2.84373e-07
3.98203e-06
9.43572e-07
1.70993e-07
5.3059e-08
2.84388e-07
3.97018e-06
9.42334e-07
1.70909e-07
5.30848e-08
2.84549e-07
3.78626e-06
8.85834e-07
1.58934e-07
4.86281e-08
2.59021e-07
3.92113e-06
9.2165e-07
1.65914e-07
5.02938e-08
2.66765e-07
3.92761e-06
9.24003e-07
1.6633e-07
5.02182e-08
2.65835e-07
3.78804e-06
8.86022e-07
1.58985e-07
4.87388e-08
2.59866e-07
3.75677e-06
8.78867e-07
1.57723e-07
4.84944e-08
2.58874e-07
3.91196e-06
9.18892e-07
1.65408e-07
5.02378e-08
2.66726e-07
3.90958e-06
9.18819e-07
1.6541e-07
5.01226e-08
2.65777e-07
3.76053e-06
8.79432e-07
1.5783e-07
4.86103e-08
2.59724e-07
3.91577e-06
9.27913e-07
1.68332e-07
5.28041e-08
2.84331e-07
3.61584e-06
8.54938e-07
1.5518e-07
5.07999e-08
2.78662e-07
3.85987e-06
9.15257e-07
1.66075e-07
5.2449e-08
2.83285e-07
3.63318e-06
8.50788e-07
1.53018e-07
4.8035e-08
2.58767e-07
3.77282e-06
8.86154e-07
1.59735e-07
4.95186e-08
2.65295e-07
3.78351e-06
8.88958e-07
1.60246e-07
4.9601e-08
2.65571e-07
3.62545e-06
8.4908e-07
1.52714e-07
4.79712e-08
2.58481e-07
3.86904e-06
9.16769e-07
1.66399e-07
5.24751e-08
2.83264e-07
3.64993e-06
8.55647e-07
1.53882e-07
4.81278e-08
2.58836e-07
3.78507e-06
8.90066e-07
1.6051e-07
4.96076e-08
2.65365e-07
3.77721e-06
8.89658e-07
1.60526e-07
4.96455e-08
2.65639e-07
3.66202e-06
8.56228e-07
1.53853e-07
4.80812e-08
2.58519e-07
6.77571e-05
6.76425e-05
6.61466e-05
4.26079e-05
5.75049e-05
5.35239e-05
7.3575e-05
2.12622e-05
5.87393e-05
5.32823e-05
6.03248e-05
7.39802e-05
1.35321e-05
3.52635e-05
1.64934e-05
5.78752e-05
5.23643e-05
1.79622e-05
5.23545e-05
1.80602e-05
1.63607e-05
1.26864e-05
2.11384e-05
3.29171e-05
3.30801e-05
1.26237e-05
1.6801e-05
5.80275e-05
1.83218e-05
5.27473e-05
1.83434e-05
5.30476e-05
1.67101e-05
1.34638e-05
5.7168e-05
7.06267e-05
3.49321e-05
2.10548e-05
7.14868e-05
2.09984e-05
5.70738e-05
5.74555e-05
7.13894e-05
7.14767e-05
5.77222e-05
2.6547e-05
1.21182e-05
1.2136e-05
2.63117e-05
7.37023e-05
6.73843e-05
7.5744e-05
7.51885e-05
7.56741e-05
7.52768e-05
7.36144e-05
3.12098e-05
1.93255e-05
3.09554e-05
3.03535e-05
1.92713e-05
6.79253e-05
7.23174e-05
7.30678e-05
6.57009e-05
7.18862e-05
6.61247e-05
6.78422e-05
7.27664e-05
7.5173e-05
6.04772e-05
7.05674e-05
7.04236e-05
7.40455e-05
7.28202e-05
6.86532e-05
7.24871e-05
6.60841e-05
7.40951e-05
6.60007e-05
7.28398e-05
6.90118e-05
7.18519e-05
7.47236e-05
7.34769e-05
7.16909e-05
6.72095e-05
6.56825e-05
6.58047e-05
4.22011e-05
1.33305e-05
1.33923e-05
3.44663e-05
3.47618e-05
2.09452e-05
5.89103e-05
5.98017e-05
5.21886e-05
7.37634e-05
2.09544e-05
5.94799e-05
1.33447e-05
1.342e-05
5.66112e-05
7.0185e-05
3.45685e-05
2.0912e-05
2.08472e-05
6.92823e-05
5.65909e-05
5.54859e-05
7.0979e-05
3.48049e-05
2.06503e-05
2.08075e-05
6.9947e-05
5.62953e-05
2.60607e-05
1.19525e-05
1.19653e-05
1.19469e-05
1.19855e-05
2.60579e-05
1.24998e-05
2.07952e-05
3.32904e-05
3.27608e-05
1.25408e-05
1.66092e-05
5.93411e-05
1.82883e-05
5.33754e-05
1.82566e-05
5.3234e-05
1.65974e-05
1.24859e-05
2.09933e-05
3.25089e-05
3.26784e-05
1.24194e-05
7.15383e-05
6.73521e-05
7.43223e-05
7.37029e-05
7.30578e-05
7.40456e-05
7.27353e-05
3.0098e-05
7.01826e-05
7.31487e-05
5.98528e-05
6.9468e-05
7.35774e-05
6.99224e-05
7.0431e-05
6.68188e-05
7.36717e-05
7.26246e-05
6.32523e-05
7.26457e-05
6.4019e-05
6.7133e-05
7.05722e-05
7.47686e-05
5.95314e-05
6.86703e-05
7.44601e-05
6.82587e-05
7.05048e-05
3.89183e-06
9.01665e-07
1.60411e-07
4.78052e-08
2.51562e-07
3.86896e-06
9.18089e-07
1.66687e-07
5.26107e-08
2.84092e-07
3.936e-06
9.34546e-07
1.69555e-07
5.29415e-08
2.84521e-07
3.8913e-06
9.03006e-07
1.6074e-07
4.79128e-08
2.52158e-07
3.86579e-06
9.18926e-07
1.66922e-07
5.27254e-08
2.84836e-07
3.66933e-06
8.57901e-07
1.54122e-07
4.82331e-08
2.5955e-07
3.78684e-06
8.90682e-07
1.60611e-07
4.964e-08
2.65533e-07
3.80137e-06
8.93738e-07
1.61127e-07
4.98122e-08
2.6655e-07
3.6581e-06
8.56406e-07
1.53913e-07
4.81055e-08
2.58662e-07
3.74666e-06
8.7665e-07
1.57415e-07
4.85918e-08
2.59826e-07
3.85471e-06
9.05655e-07
1.63088e-07
4.98859e-08
2.6564e-07
3.85768e-06
9.06329e-07
1.63233e-07
5.00282e-08
2.66669e-07
3.7382e-06
8.75375e-07
1.57209e-07
4.84616e-08
2.58937e-07
3.9283e-06
9.328e-07
1.69268e-07
5.28279e-08
2.83798e-07
3.95906e-06
9.16226e-07
1.6288e-07
4.83158e-08
2.53703e-07
3.94695e-06
9.13254e-07
1.62385e-07
4.83473e-08
2.54325e-07
3.59732e-06
8.50358e-07
1.54391e-07
5.06904e-08
2.78422e-07
3.6012e-06
8.51585e-07
1.54652e-07
5.07992e-08
2.7908e-07
3.78837e-06
8.98967e-07
1.63362e-07
5.22701e-08
2.83893e-07
3.82281e-06
9.06305e-07
1.64567e-07
5.23592e-08
2.83771e-07
3.78721e-06
8.76716e-07
1.56209e-07
4.73915e-08
2.51356e-07
3.84487e-06
8.91566e-07
1.58756e-07
4.7628e-08
2.51346e-07
3.78944e-06
8.99751e-07
1.6351e-07
5.22868e-08
2.83937e-07
3.82935e-06
9.07876e-07
1.64882e-07
5.24787e-08
2.84473e-07
3.83255e-06
9.08469e-07
1.64937e-07
5.23356e-08
2.83256e-07
3.77289e-06
8.74696e-07
1.55913e-07
4.73369e-08
2.5115e-07
3.83765e-06
8.89283e-07
1.58384e-07
4.76681e-08
2.51928e-07
3.54755e-06
8.38781e-07
1.52441e-07
5.04674e-08
2.78162e-07
3.55429e-06
8.40548e-07
1.5276e-07
5.05055e-08
2.782e-07
3.87078e-06
9.17954e-07
1.66636e-07
5.26288e-08
2.84245e-07
3.86327e-06
9.17659e-07
1.66716e-07
5.25612e-08
2.83555e-07
3.90561e-06
9.04093e-07
1.60948e-07
4.81406e-08
2.53686e-07
3.89067e-06
9.00882e-07
1.60412e-07
4.81022e-08
2.53789e-07
3.90066e-06
9.0293e-07
1.60636e-07
4.80639e-08
2.53456e-07
3.90837e-06
9.044e-07
1.6088e-07
4.81493e-08
2.53963e-07
3.56127e-06
8.42164e-07
1.53021e-07
5.05923e-08
2.7874e-07
3.54534e-06
8.38717e-07
1.52471e-07
5.05147e-08
2.78514e-07
3.64774e-06
8.54006e-07
1.53492e-07
4.80349e-08
2.58498e-07
3.79193e-06
8.9122e-07
1.60581e-07
4.96226e-08
2.65572e-07
3.78641e-06
8.90372e-07
1.6047e-07
4.95851e-08
2.65352e-07
3.64833e-06
8.54246e-07
1.53519e-07
4.80713e-08
2.58758e-07
3.84162e-06
9.10879e-07
1.65361e-07
5.24239e-08
2.83641e-07
6.69104e-05
4.21596e-05
6.7489e-05
6.63149e-05
6.68669e-05
6.63718e-05
6.70783e-05
6.57782e-05
6.4635e-05
6.66811e-05
6.67185e-05
6.74409e-05
6.76031e-05
6.72629e-05
6.62182e-05
3.44753e-05
3.451e-05
6.69852e-05
3.45746e-05
3.4543e-05
5.70967e-05
2.10531e-05
5.85354e-05
1.35545e-05
1.31734e-05
2.06326e-05
5.75105e-05
4.24153e-05
4.28951e-05
4.18642e-05
5.95101e-05
5.41405e-05
6.70642e-05
7.39662e-05
1.35825e-05
5.11965e-05
5.88631e-05
7.32893e-05
3.42752e-05
3.42594e-05
1.33177e-05
1.33979e-05
1.33044e-05
1.33313e-05
6.63536e-05
3.4634e-05
3.45812e-05
3.47015e-05
3.4571e-05
1.33908e-05
1.33721e-05
1.33574e-05
1.32921e-05
1.34446e-05
1.31113e-05
3.50893e-05
3.40343e-05
5.62967e-05
2.11717e-05
2.04963e-05
5.86324e-05
7.18319e-05
5.95183e-05
5.09892e-05
5.05418e-05
7.29046e-05
7.24398e-05
5.96376e-05
5.2055e-05
6.58557e-05
5.8718e-05
5.15045e-05
7.2613e-05
3.51529e-05
3.4939e-05
6.68394e-05
3.39446e-05
1.35553e-05
5.82931e-05
5.37126e-05
7.27113e-05
2.14157e-05
5.84149e-05
5.4028e-05
6.03195e-05
7.36466e-05
2.11566e-05
5.91833e-05
5.43178e-05
5.95042e-05
7.28892e-05
2.08612e-05
5.85384e-05
3.49878e-05
3.46491e-05
1.33453e-05
5.19192e-05
6.00295e-05
7.33779e-05
2.09049e-05
5.89248e-05
2.09527e-05
5.8923e-05
1.32819e-05
1.3297e-05
2.60803e-05
1.2032e-05
1.18631e-05
1.20461e-05
1.19444e-05
2.58152e-05
5.64383e-05
7.09159e-05
2.08849e-05
3.46161e-05
2.06813e-05
5.70215e-05
7.09585e-05
5.56821e-05
6.9277e-05
2.06621e-05
3.41562e-05
2.06544e-05
5.5889e-05
7.01117e-05
2.60988e-05
1.20275e-05
1.19829e-05
1.19552e-05
1.19666e-05
2.59959e-05
5.70284e-05
2.0965e-05
3.43568e-05
7.09822e-05
2.09037e-05
5.72431e-05
7.02475e-05
5.59985e-05
2.04406e-05
3.46361e-05
6.9612e-05
2.06318e-05
5.56204e-05
6.90555e-05
1.60135e-05
1.76134e-05
5.07111e-05
5.72994e-05
1.76144e-05
5.07935e-05
1.60165e-05
1.2425e-05
2.11076e-05
3.30711e-05
3.26274e-05
1.25186e-05
1.21484e-05
2.06323e-05
3.16478e-05
1.6316e-05
5.74621e-05
1.80453e-05
5.25542e-05
1.79455e-05
5.16066e-05
1.6396e-05
1.35889e-05
1.3442e-05
1.24683e-05
2.05889e-05
3.25483e-05
3.25611e-05
1.24684e-05
1.6424e-05
5.7574e-05
5.20526e-05
1.80091e-05
5.15158e-05
1.79758e-05
1.64364e-05
1.3585e-05
5.70724e-05
7.07665e-05
2.1021e-05
3.44295e-05
5.71479e-05
7.09182e-05
2.07814e-05
5.6138e-05
6.98756e-05
2.06288e-05
3.3801e-05
5.56629e-05
6.92178e-05
2.06055e-05
2.60728e-05
1.19979e-05
1.19589e-05
2.61806e-05
1.19912e-05
1.19631e-05
1.34137e-05
1.33306e-05
1.32971e-05
1.33098e-05
2.59323e-05
1.20361e-05
1.18826e-05
2.61431e-05
1.2011e-05
1.19478e-05
5.65013e-05
7.09189e-05
2.0982e-05
3.45926e-05
5.68743e-05
2.09866e-05
7.05988e-05
5.53063e-05
7.0053e-05
2.06812e-05
3.45761e-05
5.61805e-05
2.05857e-05
6.91246e-05
2.6228e-05
1.20349e-05
1.19847e-05
2.61482e-05
1.20203e-05
1.19498e-05
5.71149e-05
2.08583e-05
7.06999e-05
3.46633e-05
5.67613e-05
2.09334e-05
6.98265e-05
5.55972e-05
2.05344e-05
6.98084e-05
3.45885e-05
5.51659e-05
2.06007e-05
6.9705e-05
1.33759e-05
1.33736e-05
1.3311e-05
1.33189e-05
1.33921e-05
1.31747e-05
1.30194e-05
5.62674e-05
7.04998e-05
3.49841e-05
2.10564e-05
2.10456e-05
7.06899e-05
5.63069e-05
5.49154e-05
6.962e-05
3.35705e-05
2.03372e-05
2.00995e-05
6.89598e-05
5.50011e-05
3.4547e-05
6.9624e-05
2.54592e-05
1.18872e-05
1.17218e-05
1.18862e-05
1.17238e-05
2.53888e-05
1.62078e-05
1.76196e-05
5.1318e-05
5.67629e-05
1.76416e-05
5.15503e-05
1.6142e-05
1.25733e-05
2.12317e-05
3.31745e-05
3.2825e-05
1.25712e-05
1.23055e-05
3.21746e-05
2.08637e-05
3.23895e-05
1.22819e-05
1.64074e-05
5.77046e-05
1.8078e-05
5.28673e-05
1.79786e-05
5.17155e-05
1.65086e-05
2.60444e-05
1.19689e-05
1.1936e-05
1.20569e-05
5.53628e-05
7.0589e-05
3.51854e-05
2.07975e-05
2.08217e-05
7.09578e-05
5.588e-05
5.70408e-05
7.14267e-05
3.46474e-05
2.11631e-05
7.15596e-05
2.11629e-05
5.65471e-05
5.53643e-05
2.05363e-05
3.47115e-05
6.98723e-05
2.08891e-05
7.07456e-05
5.6051e-05
5.69634e-05
3.46628e-05
7.15165e-05
2.11458e-05
2.60199e-05
1.1925e-05
1.20054e-05
1.19952e-05
1.20896e-05
2.59592e-05
1.35326e-05
1.34949e-05
1.27711e-05
2.13982e-05
3.33916e-05
3.35439e-05
1.28171e-05
1.67624e-05
5.79294e-05
1.81775e-05
5.28069e-05
1.8134e-05
5.30138e-05
1.67533e-05
1.66789e-05
5.85956e-05
5.28594e-05
1.83399e-05
1.27514e-05
2.11717e-05
3.31589e-05
3.32392e-05
1.26627e-05
1.26963e-05
2.10005e-05
3.32415e-05
1.6795e-05
5.91469e-05
5.30935e-05
1.84347e-05
5.25997e-05
1.84285e-05
1.6827e-05
1.64836e-05
5.78898e-05
1.82151e-05
5.20824e-05
1.26018e-05
2.09401e-05
3.26981e-05
3.28941e-05
1.25869e-05
1.24779e-05
2.08082e-05
3.24864e-05
1.66447e-05
5.85826e-05
1.82972e-05
5.24027e-05
1.80883e-05
5.25343e-05
1.65576e-05
5.54895e-05
7.0733e-05
3.49878e-05
2.07429e-05
2.06529e-05
6.98225e-05
5.61307e-05
5.68911e-05
6.96076e-05
3.43994e-05
2.103e-05
7.01738e-05
2.10373e-05
5.70439e-05
2.58737e-05
1.19999e-05
1.20233e-05
1.19928e-05
1.20257e-05
2.61288e-05
1.32732e-05
1.2545e-05
2.0737e-05
3.27194e-05
3.30784e-05
1.24338e-05
1.66163e-05
5.88158e-05
5.30985e-05
1.82379e-05
5.31675e-05
1.80597e-05
1.66002e-05
1.25898e-05
2.11171e-05
3.31487e-05
3.31177e-05
1.25047e-05
1.66523e-05
5.81409e-05
5.25626e-05
1.82008e-05
5.28722e-05
1.82673e-05
1.65384e-05
1.32899e-05
1.33469e-05
1.32816e-05
7.21104e-05
7.54105e-05
7.31251e-05
6.72269e-05
7.34088e-05
7.51257e-05
7.38533e-05
2.99347e-05
3.10537e-05
1.92873e-05
7.35309e-05
7.53659e-05
7.32902e-05
6.73552e-05
7.25413e-05
7.51352e-05
7.46631e-05
7.28859e-05
6.64578e-05
7.52725e-05
7.34331e-05
7.28145e-05
7.49187e-05
7.32465e-05
7.04334e-05
7.42844e-05
7.3122e-05
6.73947e-05
7.45981e-05
7.42535e-05
7.1157e-05
7.2044e-05
7.46218e-05
7.55585e-05
6.78699e-05
7.5704e-05
7.50046e-05
7.12829e-05
7.14295e-05
7.47937e-05
7.43617e-05
6.7138e-05
7.45333e-05
7.47811e-05
7.24487e-05
7.29867e-05
6.69837e-05
7.38113e-05
7.39107e-05
7.31389e-05
7.40411e-05
7.39686e-05
3.01112e-05
3.11091e-05
1.95769e-05
3.13412e-05
3.03499e-05
1.95671e-05
3.10639e-05
3.027e-05
1.96398e-05
7.2526e-05
7.54138e-05
6.0162e-05
7.03044e-05
7.48412e-05
6.95911e-05
7.29293e-05
7.25015e-05
5.98136e-05
7.49563e-05
7.03659e-05
6.92833e-05
7.41157e-05
7.37522e-05
6.71321e-05
7.36746e-05
6.64892e-05
6.9557e-05
7.09985e-05
7.38249e-05
5.91972e-05
6.9432e-05
7.39196e-05
6.86921e-05
6.99674e-05
6.68883e-05
7.33761e-05
6.44845e-05
7.28877e-05
6.34143e-05
7.26247e-05
6.69634e-05
7.30487e-05
6.74871e-05
7.44449e-05
7.29614e-05
7.29745e-05
7.49966e-05
7.34858e-05
6.70112e-05
7.18249e-05
6.51716e-05
7.24725e-05
7.18349e-05
6.52044e-05
6.75951e-05
7.11837e-05
7.42247e-05
5.89731e-05
6.91312e-05
6.92112e-05
7.41843e-05
7.10691e-05
7.10975e-05
5.8322e-05
6.88747e-05
7.32816e-05
6.66324e-05
7.28703e-05
7.23047e-05
6.47899e-05
7.31563e-05
6.47937e-05
6.7414e-05
6.76344e-05
7.12572e-05
6.49403e-05
7.29081e-05
7.25178e-05
6.40685e-05
6.66165e-05
7.20817e-05
7.38156e-05
5.93997e-05
6.95728e-05
7.01226e-05
7.44946e-05
7.20816e-05
7.16513e-05
6.93265e-05
5.93517e-05
7.41694e-05
6.96591e-05
7.16182e-05
7.34212e-05
6.73179e-05
7.31511e-05
7.27996e-05
6.40842e-05
7.29537e-05
6.51946e-05
6.73179e-05
7.17983e-05
6.76643e-05
7.41995e-05
7.53532e-05
7.54336e-05
7.50107e-05
7.18332e-05
7.05482e-05
7.21485e-05
5.84858e-05
6.88735e-05
6.87889e-05
7.25077e-05
7.0194e-05
6.74906e-05
7.32582e-05
7.17131e-05
6.56044e-05
7.21215e-05
6.5739e-05
6.7248e-05
7.18551e-05
7.44068e-05
6.03802e-05
7.02012e-05
7.05949e-05
7.41964e-05
7.26674e-05
6.87321e-05
7.35711e-05
6.49629e-05
7.40496e-05
6.61193e-05
7.40362e-05
6.89899e-05
7.18858e-05
7.37536e-05
5.87787e-05
6.88791e-05
7.45681e-05
6.98493e-05
7.22479e-05
6.81327e-05
7.34928e-05
6.58592e-05
7.32252e-05
6.68458e-05
7.25651e-05
6.93085e-05
7.05883e-05
7.25205e-05
6.00803e-05
6.94183e-05
7.37682e-05
6.87783e-05
7.0493e-05
6.70904e-05
7.31428e-05
6.43186e-05
7.28615e-05
6.43744e-05
7.22593e-05
6.61659e-05
4.22136e-05
6.7541e-05
6.62039e-05
6.73756e-05
4.24446e-05
6.76028e-05
6.61345e-05
6.75002e-05
4.1775e-05
6.60137e-05
6.66448e-05
6.74761e-05
4.24708e-05
6.73705e-05
6.63966e-05
6.83838e-05
4.24609e-05
6.59325e-05
6.59993e-05
6.73908e-05
4.24479e-05
6.7147e-05
6.49059e-05
6.81198e-05
4.25049e-05
6.71602e-05
6.51975e-05
6.79357e-05
4.23156e-05
6.60227e-05
6.56363e-05
6.69059e-05
4.13844e-05
6.68162e-05
6.6624e-05
6.73146e-05
4.22439e-05
6.70802e-05
6.45823e-05
6.76532e-05
4.18791e-05
6.64401e-05
6.61902e-05
6.6584e-05
4.20106e-05
6.7229e-05
6.62948e-05
6.69178e-05
4.18361e-05
6.62332e-05
6.60669e-05
6.75751e-05
4.18688e-05
6.69524e-05
6.53398e-05
6.76368e-05
4.16745e-05
6.56082e-05
6.65019e-05
6.72073e-05
4.20753e-05
6.71465e-05
6.55162e-05
6.70345e-05
6.56833e-05
6.63131e-05
6.78011e-05
6.71376e-05
6.57956e-05
6.76303e-05
6.70317e-05
6.7456e-05
6.58483e-05
6.55559e-05
6.6708e-05
6.65206e-05
6.62623e-05
6.60221e-05
6.65626e-05
6.46322e-05
6.64845e-05
6.65476e-05
6.70154e-05
6.64206e-05
6.68808e-05
6.51398e-05
6.72713e-05
6.61836e-05
6.64945e-05
6.579e-05
6.8244e-05
6.74301e-05
6.54563e-05
6.53858e-05
6.48017e-05
6.75985e-05
6.70133e-05
6.78956e-05
6.55233e-05
6.64306e-05
6.58979e-05
6.66203e-05
6.80109e-05
6.72709e-05
6.61728e-05
6.65349e-05
6.60674e-05
6.67947e-05
6.70215e-05
6.71879e-05
6.70088e-05
6.72693e-05
6.81603e-05
6.58148e-05
6.6606e-05
6.61329e-05
6.79844e-05
6.71261e-05
6.78982e-05
6.56737e-05
6.66666e-05
6.61482e-05
6.6492e-05
6.74511e-05
6.77223e-05
6.62305e-05
6.7307e-05
6.6067e-05
6.74428e-05
6.72839e-05
6.7325e-05
6.69991e-05
6.77788e-05
6.80362e-05
6.61967e-05
6.64778e-05
6.65583e-05
6.86028e-05
6.76629e-05
6.75922e-05
6.62739e-05
6.65656e-05
6.47094e-05
6.65822e-05
6.67388e-05
6.71509e-05
6.71654e-05
6.75962e-05
6.67685e-05
6.65476e-05
6.66741e-05
6.68964e-05
6.74291e-05
6.81513e-05
6.86282e-05
6.66581e-05
6.53643e-05
6.55326e-05
6.7462e-05
6.74328e-05
6.75328e-05
6.54774e-05
6.6635e-05
6.60207e-05
6.62458e-05
6.81593e-05
6.82271e-05
6.6971e-05
6.74135e-05
6.72332e-05
6.65025e-05
6.68914e-05
6.70728e-05
6.73287e-05
6.87772e-05
6.79821e-05
6.53152e-05
6.52054e-05
6.51564e-05
6.80131e-05
6.65407e-05
6.78632e-05
6.60173e-05
6.62162e-05
6.60312e-05
6.66514e-05
6.80272e-05
6.76023e-05
6.74541e-05
6.77548e-05
6.73252e-05
6.80768e-05
6.63045e-05
6.62368e-05
6.73894e-05
6.79509e-05
6.82953e-05
6.61692e-05
6.63684e-05
6.56535e-05
6.80184e-05
6.72341e-05
6.76665e-05
6.50932e-05
6.67297e-05
6.49788e-05
6.64748e-05
6.76084e-05
6.78394e-05
6.74726e-05
6.8145e-05
6.74145e-05
6.65042e-05
6.70911e-05
6.58277e-05
6.72237e-05
6.83392e-05
6.81244e-05
6.52455e-05
6.50452e-05
6.62066e-05
6.72414e-05
6.77851e-05
6.7462e-05
6.47754e-05
6.65829e-05
6.59121e-05
6.4797e-05
6.6742e-05
6.7739e-05
6.66126e-05
6.73248e-05
6.69108e-05
6.81246e-05
6.70777e-05
6.59187e-05
6.71268e-05
6.81324e-05
6.87169e-05
6.63428e-05
6.65152e-05
6.60595e-05
6.77787e-05
6.7381e-05
6.76658e-05
6.53415e-05
6.5665e-05
6.60844e-05
6.63277e-05
6.78264e-05
6.72235e-05
6.71837e-05
6.83012e-05
6.73498e-05
6.71562e-05
6.74037e-05
6.72322e-05
6.74203e-05
6.82192e-05
6.77788e-05
6.59416e-05
6.59368e-05
6.58044e-05
6.78575e-05
6.76846e-05
6.71681e-05
6.62273e-05
6.64051e-05
6.53635e-05
6.57442e-05
6.81264e-05
6.76801e-05
6.70336e-05
6.7802e-05
6.62017e-05
6.58954e-05
6.72824e-05
6.70436e-05
6.75648e-05
6.73484e-05
6.71176e-05
6.58372e-05
6.60024e-05
6.48897e-05
6.76995e-05
6.74431e-05
6.69754e-05
6.43713e-05
6.54742e-05
6.48761e-05
6.6601e-05
6.76768e-05
6.81121e-05
6.65431e-05
6.71833e-05
6.58613e-05
6.76571e-05
6.76044e-05
6.69722e-05
6.68571e-05
6.82485e-05
6.81947e-05
6.56639e-05
6.62995e-05
6.55452e-05
6.69669e-05
6.78919e-05
6.70345e-05
6.61496e-05
6.52146e-05
6.48222e-05
6.60942e-05
6.83187e-05
6.71447e-05
6.68182e-05
6.75032e-05
6.70769e-05
6.6973e-05
6.72399e-05
6.70742e-05
6.74609e-05
6.8208e-05
6.78356e-05
6.58042e-05
6.62415e-05
6.4996e-05
6.68317e-05
6.66133e-05
6.74008e-05
6.59343e-05
6.5907e-05
6.48353e-05
6.56157e-05
6.80576e-05
6.82182e-05
6.69454e-05
6.60763e-05
6.58441e-05
6.70014e-05
6.69108e-05
6.69683e-05
6.71788e-05
6.68445e-05
6.74672e-05
6.60207e-05
6.614e-05
6.45366e-05
6.67686e-05
6.72511e-05
6.79515e-05
6.5234e-05
6.5515e-05
6.5472e-05
6.58991e-05
6.79472e-05
6.76431e-05
6.57941e-05
6.66196e-05
6.68351e-05
6.74754e-05
6.63162e-05
6.6266e-05
6.67641e-05
6.8496e-05
6.75116e-05
6.57655e-05
6.62447e-05
6.54609e-05
6.75121e-05
6.80212e-05
6.77265e-05
6.48271e-05
6.60267e-05
6.48861e-05
6.70626e-05
6.67523e-05
6.82269e-05
6.67404e-05
6.76703e-05
6.68664e-05
6.74525e-05
6.70854e-05
6.7023e-05
6.67476e-05
6.838e-05