/*--------------------------------*- C++ -*----------------------------------*\
| =========                 |                                                 |
| \\      /  F ield         | OpenFOAM: The Open Source CFD Toolbox           |
|  \\    /   O peration     | Version:  2206                                  |
|   \\  /    A nd           | Website:  www.openfoam.com                      |
|    \\/     M anipulation  |                                                 |
\*---------------------------------------------------------------------------*/
FoamFile
{
    version     2.0;
    format      ascii;
    arch        "LSB;label=32;scalar=64";
    class       volScalarField;
    location    "100";
    object      nut;
}
// * * * * * * * * * * * * * * * * * * * * * * * * * * * * * * * * * * * * * //

dimensions      [0 2 -1 0 0 0 0];

internalField   nonuniform List<scalar> 
67442
(
1.6625e-06
1.16552e-06
1.1864e-06
1.15712e-06
1.14839e-06
1.17523e-06
1.16994e-06
1.15705e-06
1.17819e-06
1.19146e-06
1.18295e-06
1.16268e-06
1.17696e-06
7.12277e-08
3.13902e-07
3.34577e-08
7.05728e-08
2.98721e-07
1.68164e-06
1.6634e-06
1.63445e-06
3.29703e-07
1.33549e-06
6.34505e-07
3.35748e-08
1.32219e-06
3.34173e-07
6.57105e-07
1.78686e-07
1.77902e-07
3.3305e-08
3.32714e-08
1.81939e-07
1.79525e-07
7.16829e-08
3.17117e-07
3.30008e-07
1.33402e-06
6.57698e-07
3.38229e-07
1.32618e-06
6.58014e-07
1.82343e-07
1.80504e-07
3.33799e-08
3.23657e-07
1.30367e-06
6.32954e-07
7.08995e-08
3.07786e-07
1.33167e-06
3.29617e-07
6.39067e-07
7.16882e-08
3.10837e-07
1.31878e-06
3.24944e-07
6.34509e-07
7.12107e-08
3.1115e-07
1.81972e-07
1.8201e-07
3.32588e-08
1.31258e-06
3.31241e-07
6.58246e-07
7.115e-08
3.18311e-07
7.1765e-08
3.16804e-07
3.31312e-08
3.2788e-08
3.01072e-08
7.14496e-08
1.654e-07
1.65894e-07
2.979e-08
5.07746e-08
3.15145e-07
5.9808e-08
2.65487e-07
5.99905e-08
2.65153e-07
5.07765e-08
3.34249e-08
4.98985e-08
3.03913e-07
2.52567e-07
5.81714e-08
2.9748e-08
7.01548e-08
1.5963e-07
1.61898e-07
2.96727e-08
2.99139e-08
7.12661e-08
1.61905e-07
4.98116e-08
3.04748e-07
2.52475e-07
5.84016e-08
2.56568e-07
5.82632e-08
4.98042e-08
3.35155e-08
3.38784e-08
2.80018e-07
4.67243e-07
1.79568e-07
6.76118e-08
4.64974e-07
6.71499e-08
2.78379e-07
2.81959e-07
4.69193e-07
1.79959e-07
6.71528e-08
4.71508e-07
6.72078e-08
2.82034e-07
1.06702e-07
2.90667e-08
2.91513e-08
2.91758e-08
2.90752e-08
1.08145e-07
3.32957e-08
3.32118e-08
3.33472e-08
2.80504e-07
4.73358e-07
1.83871e-07
6.81229e-08
6.86426e-08
4.73385e-07
2.80123e-07
2.83765e-07
4.74361e-07
1.79684e-07
6.81931e-08
6.78137e-08
4.76936e-07
2.82516e-07
1.08508e-07
2.96019e-08
2.95679e-08
2.9552e-08
2.94222e-08
1.09515e-07
2.98866e-08
7.24357e-08
1.66409e-07
1.66703e-07
2.99385e-08
5.07619e-08
3.18834e-07
5.94908e-08
2.6497e-07
5.93114e-08
2.64581e-07
5.03238e-08
2.82377e-07
4.73999e-07
1.83897e-07
6.77312e-08
6.73095e-08
4.71972e-07
2.78081e-07
2.8117e-07
4.73518e-07
1.81517e-07
6.86185e-08
4.73959e-07
6.86367e-08
2.82016e-07
1.0737e-07
2.93892e-08
2.94577e-08
2.92754e-08
2.93825e-08
1.07927e-07
3.34365e-08
5.12382e-08
3.04498e-07
5.96389e-08
2.63364e-07
3.02283e-08
7.1549e-08
1.64047e-07
1.65346e-07
3.01446e-08
3.0515e-08
7.20829e-08
1.65052e-07
5.09672e-08
3.08501e-07
5.95874e-08
2.62097e-07
5.94012e-08
2.62084e-07
5.11009e-08
3.02612e-08
7.13604e-08
1.64544e-07
1.64898e-07
3.02145e-08
5.12717e-08
3.12924e-07
2.63569e-07
6.00717e-08
2.65267e-07
5.99769e-08
5.14078e-08
2.98228e-08
7.09562e-08
1.62629e-07
1.62528e-07
2.99582e-08
5.0873e-08
3.14332e-07
6e-08
2.61335e-07
5.99162e-08
2.63356e-07
5.0923e-08
2.8967e-07
4.73581e-07
1.8182e-07
6.8265e-08
6.88947e-08
4.74887e-07
2.88295e-07
2.89476e-07
4.79127e-07
1.85257e-07
7.00224e-08
4.87715e-07
6.97453e-08
2.85411e-07
1.10426e-07
2.99541e-08
3.00819e-08
2.97883e-08
2.99591e-08
1.11458e-07
3.3352e-08
3.00717e-08
7.19992e-08
1.66586e-07
1.66996e-07
2.98822e-08
5.03831e-08
3.19417e-07
2.63497e-07
5.94574e-08
2.63555e-07
5.9617e-08
5.00609e-08
3.00171e-08
7.18587e-08
1.66214e-07
1.66742e-07
3.00297e-08
5.02911e-08
3.17626e-07
2.66835e-07
5.95034e-08
2.67071e-07
5.9178e-08
5.08692e-08
3.29826e-08
3.30196e-08
1.81927e-06
1.86221e-06
1.24752e-06
5.33048e-07
7.16704e-07
7.24798e-07
1.12763e-06
7.1543e-07
7.2693e-07
5.34915e-07
5.4091e-07
7.32488e-07
7.26689e-07
1.13691e-06
7.23842e-07
7.23373e-07
5.41939e-07
5.3983e-07
7.24841e-07
7.31587e-07
1.12368e-06
7.17212e-07
7.15657e-07
5.33052e-07
5.47069e-07
7.30107e-07
7.4724e-07
1.15204e-06
7.35405e-07
7.28729e-07
5.49225e-07
1.84034e-06
1.90018e-06
1.23205e-06
1.88385e-06
1.82809e-06
1.2456e-06
1.87913e-06
1.83028e-06
1.23126e-06
8.21899e-07
6.45349e-07
3.3074e-07
4.70788e-07
6.38439e-07
4.7246e-07
8.31985e-07
8.67651e-07
6.43525e-07
5.94276e-07
9.5658e-07
5.96354e-07
9.4006e-07
8.82087e-07
8.46014e-07
6.55933e-07
3.35545e-07
4.83301e-07
6.43527e-07
4.75704e-07
8.57901e-07
8.87761e-07
6.55156e-07
9.46497e-07
6.03433e-07
9.54813e-07
5.99966e-07
8.93703e-07
8.44346e-07
6.54455e-07
3.37469e-07
4.8274e-07
4.84637e-07
6.49561e-07
8.52202e-07
8.74075e-07
6.56237e-07
5.97111e-07
9.47136e-07
6.04647e-07
9.42156e-07
8.91883e-07
8.48489e-07
6.49353e-07
3.40224e-07
4.78272e-07
4.84835e-07
6.56478e-07
8.43613e-07
8.86813e-07
6.48253e-07
5.93381e-07
9.52301e-07
5.95986e-07
9.38679e-07
8.98812e-07
8.12567e-07
6.40534e-07
3.24521e-07
4.60095e-07
4.68218e-07
6.26874e-07
8.37784e-07
8.57946e-07
6.33313e-07
5.82517e-07
9.37296e-07
5.83742e-07
9.29409e-07
8.67036e-07
8.36169e-07
6.50433e-07
3.31313e-07
4.71329e-07
4.69739e-07
6.33499e-07
8.54642e-07
8.76818e-07
6.39451e-07
9.49899e-07
5.91306e-07
9.30955e-07
5.85567e-07
8.82021e-07
8.22283e-07
6.47483e-07
3.2593e-07
4.64701e-07
6.39114e-07
4.63047e-07
8.38182e-07
8.67837e-07
6.30474e-07
9.59576e-07
5.78126e-07
9.19241e-07
5.84371e-07
8.8224e-07
8.27858e-07
6.49044e-07
3.36275e-07
4.76871e-07
6.44811e-07
4.83437e-07
8.46349e-07
8.74407e-07
6.53144e-07
9.49302e-07
5.97093e-07
9.55845e-07
5.94337e-07
8.84054e-07
5.13615e-09
5.47492e-10
3.55634e-11
2.87911e-12
2.14946e-12
5.30533e-09
5.71342e-10
3.76387e-11
3.1905e-12
2.42749e-12
5.20272e-09
5.54596e-10
3.59897e-11
2.89517e-12
2.15573e-12
5.38867e-09
5.78542e-10
3.80802e-11
3.20911e-12
2.4351e-12
5.26763e-09
5.65835e-10
3.72899e-11
3.18313e-12
2.42844e-12
5.32096e-09
5.71085e-10
3.76009e-11
3.19373e-12
2.43206e-12
5.19619e-09
5.55087e-10
3.60182e-11
2.89079e-12
2.15044e-12
5.37061e-09
5.77786e-10
3.80526e-11
3.20975e-12
2.43634e-12
5.2434e-09
5.59412e-10
3.63095e-11
2.90521e-12
2.15733e-12
5.27478e-09
5.6276e-10
3.65064e-11
2.91157e-12
2.15906e-12
5.22824e-09
5.57187e-10
3.61526e-11
2.90168e-12
2.15809e-12
5.29547e-09
5.69939e-10
3.75643e-11
3.19185e-12
2.4303e-12
5.15864e-09
5.50654e-10
3.57444e-11
2.88462e-12
2.1511e-12
5.17896e-09
5.51535e-10
3.57664e-11
2.88358e-12
2.14993e-12
5.29646e-09
5.6897e-10
3.7482e-11
3.19231e-12
2.43366e-12
5.20943e-09
5.60765e-10
3.69904e-11
3.17392e-12
2.42688e-12
5.37406e-09
5.74673e-10
3.78324e-11
3.19639e-12
2.42759e-12
5.15438e-09
5.49788e-10
3.56865e-11
2.88429e-12
2.15232e-12
5.30222e-09
5.70447e-10
3.75819e-11
3.18957e-12
2.42786e-12
5.05576e-09
5.39005e-10
3.5226e-11
2.93797e-12
2.22213e-12
5.23352e-09
5.61671e-10
3.68025e-11
3.03537e-12
2.28244e-12
5.42237e-09
5.80334e-10
3.82047e-11
3.20577e-12
2.42689e-12
5.18464e-09
5.53346e-10
3.59256e-11
2.89057e-12
2.152e-12
5.21537e-09
5.55423e-10
3.60324e-11
2.89663e-12
2.15611e-12
5.37675e-09
5.78116e-10
3.80732e-11
3.20505e-12
2.43011e-12
5.40547e-09
5.80453e-10
3.82276e-11
3.21386e-12
2.43529e-12
5.25663e-09
5.59959e-10
3.63278e-11
2.92091e-12
2.17472e-12
5.24333e-09
5.58779e-10
3.62633e-11
2.91631e-12
2.17102e-12
5.20418e-09
5.54389e-10
3.59962e-11
2.90957e-12
2.17102e-12
5.22117e-09
5.56208e-10
3.60977e-11
2.91153e-12
2.17059e-12
4.91303e-09
5.25403e-10
3.46906e-11
3.07469e-12
2.38385e-12
4.89574e-09
5.232e-10
3.45492e-11
3.06995e-12
2.38275e-12
4.91552e-09
5.25002e-10
3.4643e-11
3.06942e-12
2.37947e-12
4.90784e-09
5.24266e-10
3.45906e-11
3.06812e-12
2.37982e-12
5.28377e-09
5.67612e-10
3.73866e-11
3.18593e-12
2.42909e-12
5.31727e-09
5.71485e-10
3.76402e-11
3.19076e-12
2.42723e-12
5.32971e-09
5.72905e-10
3.77428e-11
3.19827e-12
2.43244e-12
5.22414e-09
5.56739e-10
3.60799e-11
2.89421e-12
2.15297e-12
5.33681e-09
5.68535e-10
3.68681e-11
2.93597e-12
2.17588e-12
5.35463e-09
5.70176e-10
3.69398e-11
2.93453e-12
2.17287e-12
4.96291e-09
5.30074e-10
3.49644e-11
3.08175e-12
2.38444e-12
4.95669e-09
5.29121e-10
3.48883e-11
3.0764e-12
2.3807e-12
5.36157e-09
5.76521e-10
3.79655e-11
3.20296e-12
2.431e-12
5.17345e-09
5.50674e-10
3.59274e-11
2.95786e-12
2.22462e-12
5.33299e-09
5.71484e-10
3.73764e-11
3.05028e-12
2.28353e-12
5.51446e-09
5.89998e-10
3.87984e-11
3.22232e-12
2.42862e-12
5.26301e-09
5.61451e-10
3.64336e-11
2.905e-12
2.15342e-12
5.29324e-09
5.6462e-10
3.66332e-11
2.91381e-12
2.15763e-12
5.27799e-09
5.63415e-10
3.65461e-11
2.90878e-12
2.15484e-12
5.44469e-09
5.82581e-10
3.83261e-11
3.20981e-12
2.42818e-12
5.22605e-09
5.5709e-10
3.61382e-11
2.89734e-12
2.1537e-12
5.3771e-09
5.72567e-10
3.71033e-11
2.94099e-12
2.17487e-12
5.37258e-09
5.72012e-10
3.70688e-11
2.94108e-12
2.17576e-12
5.03905e-09
5.37612e-10
3.54058e-11
3.09343e-12
2.38516e-12
5.29459e-09
5.70033e-10
3.75722e-11
3.19262e-12
2.43078e-12
5.38901e-09
5.76389e-10
3.79079e-11
3.19876e-12
2.42854e-12
5.1808e-09
5.5224e-10
3.58235e-11
2.88876e-12
2.15362e-12
5.38372e-09
5.76452e-10
3.79422e-11
3.19949e-12
2.42823e-12
5.19573e-09
5.53254e-10
3.58532e-11
2.8876e-12
2.1524e-12
5.29174e-09
5.68539e-10
3.7446e-11
3.18656e-12
2.42817e-12
5.22613e-09
5.61748e-10
3.70358e-11
3.17538e-12
2.42723e-12
5.37199e-09
5.75764e-10
3.79072e-11
3.19948e-12
2.429e-12
5.53631e-09
5.92964e-10
3.89805e-11
3.22823e-12
2.4299e-12
5.0247e-09
5.35176e-10
3.49758e-11
2.9258e-12
2.21581e-12
5.21177e-09
5.58395e-10
3.65535e-11
3.01855e-12
2.27185e-12
5.22415e-09
5.60458e-10
3.66922e-11
3.02449e-12
2.27445e-12
5.011e-09
5.33793e-10
3.48729e-11
2.92015e-12
2.21279e-12
5.3488e-09
5.72664e-10
3.77045e-11
3.18893e-12
2.42319e-12
5.26397e-09
5.60779e-10
3.63832e-11
2.92054e-12
2.17273e-12
5.25249e-09
5.59883e-10
3.63364e-11
2.91875e-12
2.17165e-12
4.94362e-09
5.28049e-10
3.48302e-11
3.07804e-12
2.38419e-12
4.93024e-09
5.26589e-10
3.47406e-11
3.07297e-12
2.38071e-12
5.42167e-09
5.80559e-10
3.82112e-11
3.20978e-12
2.43169e-12
5.05144e-09
5.38135e-10
3.51523e-11
2.92986e-12
2.21546e-12
5.23056e-09
5.60434e-10
3.67041e-11
3.03256e-12
2.28235e-12
5.22646e-09
5.60541e-10
3.671e-11
3.02602e-12
2.27482e-12
5.03933e-09
5.36667e-10
3.50661e-11
2.9336e-12
2.22208e-12
5.44517e-09
5.82706e-10
3.83491e-11
3.2138e-12
2.432e-12
5.35284e-09
5.69359e-10
3.68887e-11
2.93665e-12
2.17658e-12
5.3606e-09
5.69565e-10
3.68911e-11
2.93284e-12
2.1722e-12
5.0225e-09
5.34571e-10
3.5205e-11
3.08831e-12
2.38547e-12
5.01753e-09
5.34582e-10
3.52152e-11
3.08479e-12
2.38081e-12
5.27388e-09
5.61339e-10
3.64266e-11
2.922e-12
2.17242e-12
5.2934e-09
5.62907e-10
3.65053e-11
2.92381e-12
2.1724e-12
4.94817e-09
5.27163e-10
3.47544e-11
3.07308e-12
2.38105e-12
4.95917e-09
5.29282e-10
3.48916e-11
3.07465e-12
2.37878e-12
5.30228e-09
5.62912e-10
3.6463e-11
2.92231e-12
2.17338e-12
5.28816e-09
5.62558e-10
3.64706e-11
2.92029e-12
2.1702e-12
4.96122e-09
5.28238e-10
3.48192e-11
3.07664e-12
2.38316e-12
4.9504e-09
5.27779e-10
3.47932e-11
3.07274e-12
2.37934e-12
5.01959e-09
5.35079e-10
3.49694e-11
2.92686e-12
2.21719e-12
5.19509e-09
5.58321e-10
3.65709e-11
3.02043e-12
2.27333e-12
5.19861e-09
5.59114e-10
3.66241e-11
3.024e-12
2.27572e-12
4.98327e-09
5.32992e-10
3.48716e-11
2.92248e-12
2.21463e-12
5.37288e-09
5.75725e-10
3.78927e-11
3.19537e-12
2.42507e-12
5.15604e-09
5.4862e-10
3.57969e-11
2.94867e-12
2.21786e-12
5.32123e-09
5.69824e-10
3.72658e-11
3.04733e-12
2.2835e-12
5.31649e-09
5.70041e-10
3.72804e-11
3.041e-12
2.2759e-12
5.15701e-09
5.48686e-10
3.58095e-11
2.95509e-12
2.22459e-12
5.50251e-09
5.88437e-10
3.86919e-11
3.22382e-12
2.43361e-12
5.55294e-09
5.93462e-10
3.89912e-11
3.23136e-12
2.43374e-12
5.52502e-09
5.92517e-10
3.89733e-11
3.23311e-12
2.43537e-12
5.19455e-09
5.53236e-10
3.60911e-11
2.95638e-12
2.21813e-12
5.38155e-09
5.77456e-10
3.77687e-11
3.06186e-12
2.28495e-12
5.39475e-09
5.79097e-10
3.78646e-11
3.05727e-12
2.27698e-12
5.19024e-09
5.53243e-10
3.61023e-11
2.96311e-12
2.22537e-12
5.15433e-09
5.48897e-10
3.58162e-11
2.94824e-12
2.21697e-12
5.36856e-09
5.75737e-10
3.76534e-11
3.05833e-12
2.28464e-12
5.36983e-09
5.75855e-10
3.76551e-11
3.05132e-12
2.27652e-12
5.15245e-09
5.49133e-10
3.58398e-11
2.95528e-12
2.22425e-12
5.44965e-09
5.8346e-10
3.83854e-11
3.21608e-12
2.4337e-12
5.02865e-09
5.36316e-10
3.53151e-11
3.08982e-12
2.38368e-12
5.37053e-09
5.75476e-10
3.78697e-11
3.19439e-12
2.42464e-12
4.9812e-09
5.31362e-10
3.47494e-11
2.92059e-12
2.21626e-12
5.17407e-09
5.55195e-10
3.63628e-11
3.01478e-12
2.27282e-12
5.19255e-09
5.5713e-10
3.64809e-11
3.01972e-12
2.27497e-12
4.96409e-09
5.30165e-10
3.4679e-11
2.91679e-12
2.21402e-12
5.38283e-09
5.76433e-10
3.79447e-11
3.196e-12
2.42438e-12
5.00381e-09
5.34395e-10
3.4947e-11
2.92622e-12
2.21697e-12
5.19076e-09
5.57644e-10
3.654e-11
3.02017e-12
2.27339e-12
5.18427e-09
5.57579e-10
3.65461e-11
3.02251e-12
2.27574e-12
5.01408e-09
5.34627e-10
3.49386e-11
2.92336e-12
2.21426e-12
1.18792e-06
1.13624e-06
1.18745e-06
1.66474e-06
3.0373e-07
1.31445e-06
6.33741e-07
7.15024e-08
3.1045e-07
1.30825e-06
3.31972e-07
6.37441e-07
3.34633e-08
1.83639e-07
4.97689e-08
3.0301e-07
2.58608e-07
5.80675e-08
2.5627e-07
5.82096e-08
4.9484e-08
2.99901e-08
7.10014e-08
1.62792e-07
1.62173e-07
2.99227e-08
5.07047e-08
3.03968e-07
5.92413e-08
2.60739e-07
5.91451e-08
2.5991e-07
5.05565e-08
3.3246e-08
2.87113e-07
4.7368e-07
1.80438e-07
6.8575e-08
4.78781e-07
6.82806e-08
2.88774e-07
2.86594e-07
4.8368e-07
4.84042e-07
2.89055e-07
1.11474e-07
2.96861e-08
2.97256e-08
1.0942e-07
5.49337e-07
1.16305e-06
7.26849e-07
7.37633e-07
7.38823e-07
7.48193e-07
5.4768e-07
1.87951e-06
1.22941e-06
1.86561e-06
1.84066e-06
1.22719e-06
8.76166e-07
6.23783e-07
5.8202e-07
9.19881e-07
5.73163e-07
9.51286e-07
8.56297e-07
8.53869e-07
6.45432e-07
3.30721e-07
4.74807e-07
4.72818e-07
6.42373e-07
8.40081e-07
8.86453e-07
6.25483e-07
9.26239e-07
5.9094e-07
9.50592e-07
5.81507e-07
8.72241e-07
8.60916e-07
6.51388e-07
6.45078e-07
8.51807e-07
1.12751e-06
1.17448e-06
1.15639e-06
1.65576e-06
3.3137e-08
3.3168e-08
1.80539e-07
1.80894e-07
7.09026e-08
3.16151e-07
3.32685e-07
1.33245e-06
6.57484e-07
7.03634e-08
3.26997e-07
3.30597e-08
3.31081e-08
2.81809e-07
4.74262e-07
1.80041e-07
6.84098e-08
6.80018e-08
4.67847e-07
2.83162e-07
2.78687e-07
4.762e-07
1.79614e-07
6.72665e-08
6.75808e-08
4.68541e-07
2.84489e-07
1.09603e-07
2.93403e-08
2.93e-08
2.93116e-08
2.93334e-08
1.08423e-07
2.97263e-08
7.03175e-08
1.65876e-07
1.62632e-07
2.99013e-08
5.0653e-08
3.17463e-07
5.98296e-08
2.67117e-07
5.95424e-08
2.65564e-07
5.07285e-08
2.95117e-08
7.03671e-08
1.60697e-07
1.60121e-07
2.9432e-08
5.32212e-07
1.16139e-06
7.20865e-07
7.12908e-07
7.181e-07
7.28554e-07
5.40116e-07
1.82021e-06
8.42385e-07
6.39905e-07
3.31872e-07
4.76309e-07
6.48067e-07
4.79365e-07
8.38591e-07
8.87232e-07
6.57864e-07
5.96361e-07
9.30562e-07
5.97644e-07
9.49071e-07
8.85472e-07
8.24958e-07
6.38657e-07
3.25175e-07
4.615e-07
6.42641e-07
4.57661e-07
8.10239e-07
5.25335e-09
5.59772e-10
3.62984e-11
2.90082e-12
2.15353e-12
5.36953e-09
5.77089e-10
3.8e-11
3.20313e-12
2.43038e-12
5.47871e-09
5.87614e-10
3.86625e-11
3.22421e-12
2.43488e-12
5.24507e-09
5.60464e-10
3.63714e-11
2.90733e-12
2.15863e-12
5.35907e-09
5.77503e-10
3.80532e-11
3.21011e-12
2.43676e-12
5.029e-09
5.35724e-10
3.50004e-11
2.93261e-12
2.22309e-12
5.20408e-09
5.58205e-10
3.65642e-11
3.02215e-12
2.27483e-12
5.21659e-09
5.59994e-10
3.6681e-11
3.03263e-12
2.28355e-12
5.01876e-09
5.34927e-10
3.4954e-11
2.92487e-12
2.21549e-12
5.13548e-09
5.47441e-10
3.57484e-11
2.95453e-12
2.22554e-12
5.29726e-09
5.67574e-10
3.71285e-11
3.03715e-12
2.27578e-12
5.29403e-09
5.67893e-10
3.7161e-11
3.04582e-12
2.28459e-12
5.12899e-09
5.46775e-10
3.57024e-11
2.94662e-12
2.21793e-12
5.47482e-09
5.86694e-10
3.85986e-11
3.21731e-12
2.42869e-12
5.35176e-09
5.69172e-10
3.68757e-11
2.93289e-12
2.17253e-12
5.32798e-09
5.67202e-10
3.67625e-11
2.93479e-12
2.17786e-12
5.00226e-09
5.33359e-10
3.5134e-11
3.08301e-12
2.38135e-12
5.00257e-09
5.34018e-10
3.51927e-11
3.08961e-12
2.38698e-12
5.25617e-09
5.65091e-10
3.72434e-11
3.18272e-12
2.4293e-12
5.30596e-09
5.69675e-10
3.75142e-11
3.18739e-12
2.42723e-12
5.10946e-09
5.44272e-10
3.5349e-11
2.87609e-12
2.15236e-12
5.18971e-09
5.53503e-10
3.59237e-11
2.89009e-12
2.15189e-12
5.25106e-09
5.65446e-10
3.7276e-11
3.18372e-12
2.42967e-12
5.3082e-09
5.70534e-10
3.75852e-11
3.19466e-12
2.43324e-12
5.33324e-09
5.71213e-10
3.76101e-11
3.18748e-12
2.42441e-12
5.08296e-09
5.42877e-10
3.52802e-11
2.87274e-12
2.1506e-12
5.17253e-09
5.51941e-10
3.5838e-11
2.8925e-12
2.15687e-12
4.93394e-09
5.26124e-10
3.46909e-11
3.06941e-12
2.37882e-12
4.94257e-09
5.27227e-10
3.47648e-11
3.07194e-12
2.37939e-12
5.38787e-09
5.77185e-10
3.79974e-11
3.2052e-12
2.43277e-12
5.38449e-09
5.77186e-10
3.80175e-11
3.2011e-12
2.42686e-12
5.27767e-09
5.61642e-10
3.64387e-11
2.92226e-12
2.17242e-12
5.25019e-09
5.59506e-10
3.63154e-11
2.9199e-12
2.1733e-12
5.27251e-09
5.60905e-10
3.63668e-11
2.9174e-12
2.17009e-12
5.27562e-09
5.61684e-10
3.64206e-11
2.92256e-12
2.17443e-12
4.94695e-09
5.2812e-10
3.48234e-11
3.0772e-12
2.384e-12
4.92635e-09
5.25962e-10
3.46965e-11
3.07227e-12
2.38183e-12
4.99607e-09
5.33244e-10
3.48551e-11
2.92047e-12
2.21377e-12
5.20675e-09
5.58509e-10
3.65559e-11
3.02092e-12
2.27476e-12
5.19202e-09
5.57824e-10
3.6529e-11
3.01861e-12
2.27288e-12
5.00193e-09
5.33548e-10
3.48631e-11
2.92271e-12
2.216e-12
5.35193e-09
5.72924e-10
3.77094e-11
3.1929e-12
2.4277e-12
1.13883e-06
1.66355e-06
1.17625e-06
1.17948e-06
1.12503e-06
1.13653e-06
1.14036e-06
1.17285e-06
1.15266e-06
1.13453e-06
1.16179e-06
1.16516e-06
1.16847e-06
1.13285e-06
1.1769e-06
1.76713e-07
1.78872e-07
1.14064e-06
1.77822e-07
1.79204e-07
3.02531e-07
7.09515e-08
3.12994e-07
3.36054e-08
3.26702e-08
6.8989e-08
3.01856e-07
1.67202e-06
1.68313e-06
1.64565e-06
3.26204e-07
1.30916e-06
1.19423e-06
6.38879e-07
3.36515e-08
1.29925e-06
3.26717e-07
6.53905e-07
1.75142e-07
1.77363e-07
3.30222e-08
3.32319e-08
3.3031e-08
3.32088e-08
1.12429e-06
1.79703e-07
1.80043e-07
1.79599e-07
1.79878e-07
3.32377e-08
3.29804e-08
3.32851e-08
3.29274e-08
3.34395e-08
3.24716e-08
1.81748e-07
1.73549e-07
2.98279e-07
7.13398e-08
6.88074e-08
3.13509e-07
6.28305e-07
3.30557e-07
1.30685e-06
1.26057e-06
6.51427e-07
6.33396e-07
3.31094e-07
1.33509e-06
1.17312e-06
3.24447e-07
1.28532e-06
6.48741e-07
1.81676e-07
1.79876e-07
1.14296e-06
1.7515e-07
3.35654e-08
3.18825e-07
1.2998e-06
6.27304e-07
7.17363e-08
3.06749e-07
1.30386e-06
3.30556e-07
6.35894e-07
7.08564e-08
3.1096e-07
1.31131e-06
3.26012e-07
6.29555e-07
6.97905e-08
3.07511e-07
1.79214e-07
1.79313e-07
3.31394e-08
1.31778e-06
3.32938e-07
6.54717e-07
7.04792e-08
3.15326e-07
7.06684e-08
3.15363e-07
3.28341e-08
3.302e-08
1.07702e-07
2.96329e-08
2.92151e-08
2.96316e-08
2.93731e-08
1.07134e-07
2.81593e-07
4.74854e-07
6.79746e-08
1.80264e-07
6.72504e-08
2.8311e-07
4.75908e-07
2.8187e-07
4.68244e-07
6.7282e-08
1.78448e-07
6.72193e-08
2.81781e-07
4.74351e-07
1.07779e-07
2.95905e-08
2.94911e-08
2.93803e-08
2.94091e-08
1.07894e-07
2.8323e-07
6.82524e-08
1.77619e-07
4.76067e-07
6.79206e-08
2.85518e-07
4.70207e-07
2.82395e-07
6.64802e-08
1.80181e-07
4.70943e-07
6.70952e-08
2.81495e-07
4.66667e-07
4.85662e-08
5.7011e-08
2.50847e-07
3.04534e-07
5.7161e-08
2.52089e-07
4.85529e-08
2.96078e-08
7.11544e-08
1.63519e-07
1.61922e-07
2.97812e-08
2.88576e-08
6.93393e-08
1.56347e-07
4.96601e-08
3.06924e-07
5.87231e-08
2.62261e-07
5.82939e-08
2.57036e-07
4.99618e-08
3.38e-08
3.3379e-08
2.96025e-08
6.88749e-08
1.58115e-07
1.59861e-07
2.9581e-08
4.96855e-08
3.03228e-07
2.55443e-07
5.80626e-08
2.53624e-07
5.78558e-08
4.97074e-08
3.36154e-08
2.84271e-07
4.74331e-07
6.84107e-08
1.78934e-07
2.8421e-07
4.74795e-07
6.75447e-08
2.83767e-07
4.72757e-07
6.70731e-08
1.76338e-07
2.81052e-07
4.6781e-07
6.70906e-08
1.07991e-07
2.94708e-08
2.93731e-08
1.09099e-07
2.95274e-08
2.94599e-08
3.32229e-08
3.30227e-08
3.30863e-08
3.30455e-08
1.07318e-07
2.95609e-08
2.91995e-08
1.08683e-07
2.95508e-08
2.93986e-08
2.80841e-07
4.75299e-07
6.83435e-08
1.7911e-07
2.8341e-07
6.82741e-08
4.72775e-07
2.79095e-07
4.73758e-07
6.74065e-08
1.79969e-07
2.84106e-07
6.70055e-08
4.67348e-07
1.09947e-07
2.96357e-08
2.95093e-08
1.0853e-07
2.95599e-08
2.93952e-08
2.84821e-07
6.78377e-08
4.73515e-07
1.80101e-07
2.82013e-07
6.81681e-08
4.68045e-07
2.81308e-07
6.67741e-08
4.71896e-07
1.80628e-07
2.78277e-07
6.71551e-08
4.71427e-07
3.31801e-08
3.31577e-08
3.31332e-08
3.31589e-08
3.32654e-08
3.2691e-08
3.22138e-08
2.81097e-07
4.76471e-07
1.82562e-07
6.86974e-08
6.86114e-08
4.77555e-07
2.80522e-07
2.76791e-07
4.66396e-07
1.73073e-07
6.59963e-08
6.51416e-08
4.61779e-07
2.76474e-07
1.79862e-07
4.70615e-07
1.05425e-07
2.92206e-08
2.87396e-08
2.93318e-08
2.88608e-08
1.05311e-07
4.91422e-08
5.70621e-08
2.53902e-07
3.01693e-07
5.72237e-08
2.55871e-07
4.89469e-08
2.99141e-08
7.15602e-08
1.64198e-07
1.62924e-07
2.99518e-08
2.91853e-08
1.57664e-07
7.03163e-08
1.59624e-07
2.92198e-08
4.99236e-08
3.08209e-07
5.88354e-08
2.63873e-07
5.84027e-08
2.57633e-07
5.03346e-08
1.07599e-07
2.95318e-08
2.94293e-08
2.96513e-08
2.79734e-07
4.77018e-07
1.83848e-07
6.77579e-08
6.78026e-08
4.7925e-07
2.82249e-07
2.84828e-07
4.7958e-07
1.8011e-07
6.87813e-08
4.80445e-07
6.88785e-08
2.80991e-07
2.7844e-07
6.68714e-08
1.80138e-07
4.70805e-07
6.79913e-08
4.77967e-07
2.82371e-07
2.84462e-07
1.79274e-07
4.80716e-07
6.87532e-08
1.07774e-07
2.93086e-08
2.94814e-08
2.94697e-08
2.9749e-08
1.07609e-07
3.35565e-08
3.34316e-08
3.03587e-08
7.17327e-08
1.62644e-07
1.65452e-07
3.03733e-08
5.07088e-08
3.05289e-07
5.86189e-08
2.59442e-07
5.83805e-08
2.6132e-07
5.06913e-08
5.03901e-08
3.08155e-07
2.59942e-07
5.91445e-08
3.02837e-08
7.08075e-08
1.61154e-07
1.63913e-07
3.00445e-08
3.00647e-08
7.02902e-08
1.61853e-07
5.07906e-08
3.11892e-07
2.6085e-07
5.94808e-08
2.59289e-07
5.93889e-08
5.08944e-08
4.97859e-08
3.04361e-07
5.87382e-08
2.55979e-07
2.9931e-08
6.99734e-08
1.5815e-07
1.60101e-07
2.97981e-08
2.95648e-08
6.98291e-08
1.58583e-07
5.03086e-08
3.08825e-07
5.89632e-08
2.57341e-07
5.82319e-08
2.58848e-07
5.00405e-08
2.7998e-07
4.73977e-07
1.81665e-07
6.73846e-08
6.70516e-08
4.67256e-07
2.82911e-07
2.84089e-07
4.7136e-07
1.79774e-07
6.85367e-08
4.74637e-07
6.86315e-08
2.8443e-07
1.07111e-07
2.94482e-08
2.95802e-08
2.9508e-08
2.96197e-08
1.08538e-07
3.3012e-08
2.99408e-08
6.98828e-08
1.61698e-07
1.64556e-07
2.96367e-08
5.07439e-08
3.15507e-07
2.6505e-07
5.94167e-08
2.65894e-07
5.88942e-08
5.06753e-08
3.00801e-08
7.11896e-08
1.63958e-07
1.64773e-07
2.97845e-08
5.08709e-08
3.11936e-07
2.6238e-07
5.93215e-08
2.64392e-07
5.94555e-08
5.05129e-08
3.28218e-08
3.31862e-08
3.30044e-08
5.35882e-07
7.33711e-07
7.2132e-07
1.12365e-06
5.46016e-07
7.21972e-07
7.21626e-07
1.81163e-06
1.86812e-06
1.23355e-06
5.45974e-07
7.30128e-07
7.20616e-07
1.12904e-06
5.39946e-07
7.22505e-07
7.30241e-07
5.42089e-07
1.14891e-06
7.29907e-07
7.22069e-07
5.41097e-07
7.3204e-07
7.23947e-07
5.22665e-07
7.28509e-07
7.13936e-07
1.13258e-06
7.25316e-07
7.18952e-07
5.2928e-07
5.3532e-07
7.29967e-07
7.40616e-07
1.14175e-06
7.35968e-07
7.27727e-07
5.30911e-07
5.30723e-07
7.2284e-07
7.3369e-07
1.12676e-06
7.31388e-07
7.17433e-07
5.397e-07
5.42663e-07
1.16007e-06
7.14261e-07
7.25644e-07
5.43635e-07
7.23873e-07
7.31536e-07
1.82201e-06
1.8739e-06
1.25431e-06
1.8869e-06
1.83667e-06
1.25459e-06
1.87537e-06
1.83457e-06
1.26431e-06
8.3484e-07
6.47749e-07
3.30451e-07
4.72575e-07
6.40512e-07
4.67519e-07
8.44095e-07
8.48279e-07
3.28103e-07
6.49102e-07
4.73239e-07
8.73208e-07
6.38377e-07
5.8919e-07
9.47342e-07
5.87009e-07
9.29082e-07
8.82595e-07
8.42899e-07
6.43707e-07
3.28741e-07
4.76035e-07
6.43769e-07
4.70611e-07
8.30299e-07
8.81239e-07
6.53436e-07
9.50449e-07
5.99161e-07
9.30258e-07
5.95858e-07
8.82849e-07
5.42759e-07
1.12879e-06
7.2273e-07
7.18519e-07
5.42784e-07
7.20937e-07
7.18353e-07
8.80586e-07
5.79789e-07
9.3899e-07
6.40099e-07
5.8578e-07
9.54348e-07
8.77696e-07
8.51226e-07
6.52198e-07
3.27822e-07
4.7494e-07
4.73593e-07
6.50909e-07
8.49611e-07
8.45253e-07
3.23089e-07
4.70264e-07
6.4241e-07
8.78347e-07
6.4634e-07
5.95827e-07
9.56217e-07
5.97881e-07
9.50027e-07
8.90275e-07
8.88975e-07
5.75278e-07
9.35669e-07
6.43827e-07
5.91342e-07
9.37873e-07
8.64951e-07
8.62014e-07
6.47869e-07
3.30077e-07
4.77991e-07
4.79901e-07
6.5304e-07
8.61789e-07
8.51717e-07
4.7005e-07
3.2874e-07
6.44813e-07
4.75635e-07
8.40441e-07
6.42893e-07
8.87667e-07
6.48616e-07
5.99865e-07
9.46199e-07
5.9617e-07
9.56416e-07
8.89355e-07
5.34804e-07
1.16491e-06
7.19406e-07
7.38585e-07
7.43844e-07
7.34056e-07
5.33512e-07
8.10608e-07
6.17625e-07
3.20476e-07
4.62079e-07
4.61199e-07
6.18512e-07
8.11027e-07
8.49782e-07
6.30418e-07
5.71841e-07
9.25108e-07
5.73454e-07
9.18158e-07
8.52516e-07
8.27967e-07
6.3996e-07
3.31499e-07
4.72049e-07
4.74346e-07
6.36061e-07
8.41992e-07
8.66631e-07
6.33432e-07
9.17368e-07
5.91782e-07
9.24725e-07
5.90019e-07
8.75893e-07
8.2833e-07
6.348e-07
3.22617e-07
4.62747e-07
6.39662e-07
4.68952e-07
8.37063e-07
8.59414e-07
6.32902e-07
9.29941e-07
5.84998e-07
9.34889e-07
5.78066e-07
8.80268e-07
8.37072e-07
6.31059e-07
3.33442e-07
4.75763e-07
6.41305e-07
4.70947e-07
8.35812e-07
8.83757e-07
6.51353e-07
9.47762e-07
5.98878e-07
9.44095e-07
5.928e-07
8.72387e-07
1.65674e-06
1.18884e-06
1.18887e-06
1.16208e-06
1.6661e-06
1.18975e-06
1.18733e-06
1.1643e-06
1.6389e-06
1.1614e-06
1.19654e-06
1.16451e-06
1.66615e-06
1.18529e-06
1.19206e-06
1.17989e-06
1.6658e-06
1.15993e-06
1.18469e-06
1.16196e-06
1.66502e-06
1.18125e-06
1.16503e-06
1.17505e-06
1.66722e-06
1.1815e-06
1.17026e-06
1.17174e-06
1.65921e-06
1.16114e-06
1.17816e-06
1.15351e-06
1.62212e-06
1.17518e-06
1.19573e-06
1.16072e-06
1.6566e-06
1.17935e-06
1.15845e-06
1.1658e-06
1.64282e-06
1.16726e-06
1.18715e-06
1.14686e-06
1.64727e-06
1.18062e-06
1.18839e-06
1.15158e-06
1.64086e-06
1.16225e-06
1.18332e-06
1.16191e-06
1.64308e-06
1.17358e-06
1.16921e-06
1.16111e-06
1.6367e-06
1.1485e-06
1.18849e-06
1.15045e-06
1.65549e-06
1.17329e-06
1.16844e-06
1.1244e-06
1.1749e-06
1.186e-06
1.1389e-06
1.1801e-06
1.1537e-06
1.19037e-06
1.17597e-06
1.13298e-06
1.18249e-06
1.17622e-06
1.11908e-06
1.14718e-06
1.11147e-06
1.18119e-06
1.19055e-06
1.15616e-06
1.18914e-06
1.14881e-06
1.12569e-06
1.16749e-06
1.17252e-06
1.14472e-06
1.17925e-06
1.161e-06
1.17026e-06
1.15416e-06
1.17806e-06
1.13189e-06
1.17435e-06
1.17401e-06
1.1626e-06
1.13408e-06
1.15526e-06
1.13872e-06
1.17198e-06
1.18811e-06
1.17873e-06
1.19144e-06
1.17403e-06
1.12947e-06
1.16278e-06
1.1662e-06
1.16107e-06
1.17077e-06
1.17572e-06
1.18216e-06
1.17595e-06
1.16061e-06
1.14406e-06
1.1808e-06
1.19597e-06
1.18698e-06
1.14135e-06
1.15716e-06
1.13937e-06
1.17478e-06
1.1922e-06
1.18336e-06
1.18927e-06
1.16361e-06
1.13727e-06
1.16394e-06
1.17972e-06
1.16145e-06
1.18257e-06
1.18052e-06
1.18469e-06
1.17597e-06
1.1689e-06
1.14215e-06
1.18805e-06
1.19386e-06
1.19461e-06
1.15164e-06
1.16654e-06
1.13434e-06
1.18534e-06
1.19051e-06
1.1577e-06
1.19099e-06
1.15189e-06
1.12779e-06
1.18068e-06
1.18483e-06
1.17403e-06
1.16678e-06
1.16993e-06
1.17736e-06
1.18312e-06
1.17561e-06
1.15221e-06
1.19614e-06
1.17373e-06
1.17579e-06
1.13156e-06
1.16272e-06
1.13362e-06
1.17121e-06
1.19158e-06
1.18156e-06
1.18478e-06
1.17652e-06
1.14612e-06
1.17733e-06
1.18141e-06
1.18256e-06
1.16605e-06
1.17333e-06
1.18051e-06
1.18147e-06
1.18678e-06
1.14167e-06
1.17161e-06
1.17088e-06
1.16912e-06
1.14154e-06
1.14761e-06
1.13881e-06
1.18116e-06
1.184e-06
1.18137e-06
1.19242e-06
1.17418e-06
1.13532e-06
1.18588e-06
1.18727e-06
1.18393e-06
1.19358e-06
1.16274e-06
1.16606e-06
1.18265e-06
1.17217e-06
1.14699e-06
1.1867e-06
1.19197e-06
1.17833e-06
1.14188e-06
1.15925e-06
1.13586e-06
1.16412e-06
1.1933e-06
1.16259e-06
1.18928e-06
1.16685e-06
1.13979e-06
1.18578e-06
1.19377e-06
1.1855e-06
1.1663e-06
1.17633e-06
1.15869e-06
1.17996e-06
1.17875e-06
1.14467e-06
1.17037e-06
1.16869e-06
1.18839e-06
1.1286e-06
1.16903e-06
1.1323e-06
1.15847e-06
1.19053e-06
1.17934e-06
1.15929e-06
1.15162e-06
1.13792e-06
1.17032e-06
1.17928e-06
1.1767e-06
1.19487e-06
1.17565e-06
1.16086e-06
1.17826e-06
1.17584e-06
1.1548e-06
1.18957e-06
1.19537e-06
1.18593e-06
1.13784e-06
1.16176e-06
1.13583e-06
1.16832e-06
1.17407e-06
1.18254e-06
1.18709e-06
1.17052e-06
1.12959e-06
1.18004e-06
1.19592e-06
1.18485e-06
1.17834e-06
1.18116e-06
1.18428e-06
1.18403e-06
1.17675e-06
1.13901e-06
1.1822e-06
1.18511e-06
1.1816e-06
1.13953e-06
1.16662e-06
1.12825e-06
1.18416e-06
1.18724e-06
1.16975e-06
1.17647e-06
1.17551e-06
1.13714e-06
1.17714e-06
1.18664e-06
1.16537e-06
1.15675e-06
1.17847e-06
1.1809e-06
1.18727e-06
1.16125e-06
1.12834e-06
1.18009e-06
1.18684e-06
1.16573e-06
1.13705e-06
1.1626e-06
1.12491e-06
1.15057e-06
1.17017e-06
1.16111e-06
1.1918e-06
1.16698e-06
1.1446e-06
1.16839e-06
1.1752e-06
1.15948e-06
1.18888e-06
1.1837e-06
1.18004e-06
1.17554e-06
1.17623e-06
1.14738e-06
1.17647e-06
1.19284e-06
1.17799e-06
1.12506e-06
1.16957e-06
1.12651e-06
1.18199e-06
1.165e-06
1.16006e-06
1.18295e-06
1.17758e-06
1.12909e-06
1.17217e-06
1.18002e-06
1.18186e-06
1.17804e-06
1.17613e-06
1.18269e-06
1.18709e-06
1.17526e-06
1.14204e-06
1.17843e-06
1.19259e-06
1.16885e-06
1.12414e-06
1.14684e-06
1.1336e-06
1.17755e-06
1.17711e-06
1.16077e-06
1.17515e-06
1.17258e-06
1.14877e-06
1.17385e-06
1.15399e-06
1.16103e-06
1.1805e-06
1.16888e-06
1.18191e-06
1.18376e-06
1.1498e-06
1.13757e-06
1.1813e-06
1.1919e-06
1.16147e-06
1.12456e-06
1.15647e-06
1.14468e-06
1.16465e-06
1.17018e-06
1.17273e-06
1.18075e-06
1.1699e-06
1.14005e-06
1.1524e-06
1.16179e-06
1.1804e-06
1.19139e-06
1.1567e-06
1.1711e-06
1.17903e-06
1.17711e-06
1.14087e-06
1.17552e-06
1.19544e-06
1.17978e-06
1.14011e-06
1.16841e-06
1.14432e-06
1.15694e-06
1.17872e-06
1.16334e-06
1.20247e-06
1.14703e-06
1.15368e-06
1.16738e-06
1.17756e-06
1.18372e-06
1.19454e-06
1.16773e-06
1.18723e-06
1.18251e-06
1.17115e-06
1.12951e-06
1.15705e-06