/*--------------------------------*- C++ -*----------------------------------*\
| =========                 |                                                 |
| \\      /  F ield         | OpenFOAM: The Open Source CFD Toolbox           |
|  \\    /   O peration     | Version:  2206                                  |
|   \\  /    A nd           | Website:  www.openfoam.com                      |
|    \\/     M anipulation  |                                                 |
\*---------------------------------------------------------------------------*/
FoamFile
{
    version     2.0;
    format      ascii;
    arch        "LSB;label=32;scalar=64";
    class       volScalarField;
    location    "100";
    object      p;
}
// * * * * * * * * * * * * * * * * * * * * * * * * * * * * * * * * * * * * * //

dimensions      [0 2 -2 0 0 0 0];

internalField   nonuniform List<scalar> 
67442
(
-0.00990857
-0.00990873
-0.00990873
-0.00989745
-0.00989735
-0.00990871
-0.0099087
-0.00989744
-0.00990873
-0.00990868
-0.00990882
-0.00989741
-0.00990888
-0.00989782
-0.00989774
-0.00989781
-0.0098976
-0.00989725
-0.00990854
-0.00990856
-0.00990871
-0.00989793
-0.00990869
-0.00989787
-0.00989763
-0.00990868
-0.00989818
-0.00989846
-0.00989766
-0.00989779
-0.00989781
-0.00989764
-0.00989777
-0.00989757
-0.00989782
-0.00989777
-0.00989811
-0.00990863
-0.00989838
-0.00989828
-0.00990864
-0.00989845
-0.00989786
-0.00989766
-0.00989767
-0.00989782
-0.00990862
-0.00989782
-0.00989757
-0.00989725
-0.00990859
-0.0098978
-0.00989784
-0.00989764
-0.00989737
-0.00990874
-0.00989796
-0.00989787
-0.00989763
-0.00989737
-0.00989758
-0.00989774
-0.00989774
-0.00990874
-0.00989821
-0.00989849
-0.00989778
-0.00989776
-0.00989781
-0.00989782
-0.00989765
-0.00989777
-0.00991994
-0.00992008
-0.00989776
-0.00992004
-0.00989794
-0.00991997
-0.00991997
-0.00989791
-0.00989774
-0.00991998
-0.00991998
-0.00989791
-0.00992007
-0.00994299
-0.00994271
-0.00994272
-0.00994298
-0.00992017
-0.00992028
-0.00989748
-0.00992033
-0.00989773
-0.00994304
-0.00994293
-0.00994284
-0.00992024
-0.00992052
-0.00989734
-0.00989763
-0.00992046
-0.00992027
-0.00989763
-0.00992025
-0.00994298
-0.00992026
-0.00989723
-0.00992017
-0.0098978
-0.0099205
-0.00992005
-0.00989763
-0.00992016
-0.00989739
-0.00991996
-0.00989789
-0.00992035
-0.00991991
-0.00989769
-0.00992028
-0.00989772
-0.00989776
-0.00992011
-0.00992006
-0.00989759
-0.00992011
-0.00992022
-0.00994296
-0.00992016
-0.00989727
-0.00992006
-0.0098979
-0.00992
-0.00992032
-0.00989762
-0.00992023
-0.0098971
-0.00992018
-0.00989776
-0.00992004
-0.00992053
-0.00989751
-0.00992029
-0.00989779
-0.00989773
-0.00992011
-0.00992012
-0.00989755
-0.00991993
-0.00992005
-0.00989783
-0.00992003
-0.00989797
-0.00991998
-0.00991996
-0.00989792
-0.00989785
-0.00991996
-0.00992002
-0.00989796
-0.00992044
-0.00989744
-0.00992009
-0.00989797
-0.00992017
-0.00992043
-0.00989785
-0.00992008
-0.00989718
-0.00992014
-0.00989784
-0.00992051
-0.00991988
-0.00989762
-0.00992032
-0.00989784
-0.0098978
-0.00992018
-0.00992011
-0.00989768
-0.00992023
-0.00994296
-0.00994268
-0.00994295
-0.00994274
-0.00992018
-0.00992029
-0.00989748
-0.00992034
-0.00989773
-0.00994304
-0.00994296
-0.00994286
-0.00992026
-0.00992052
-0.00989762
-0.00989733
-0.00992026
-0.00992048
-0.00989766
-0.00992015
-0.00992025
-0.00989755
-0.0099203
-0.00989776
-0.00992021
-0.00992044
-0.00989742
-0.00989765
-0.0099204
-0.00992022
-0.00989768
-0.00992016
-0.00992024
-0.00989757
-0.00992032
-0.00989775
-0.00992022
-0.00992042
-0.00989764
-0.00989741
-0.00992022
-0.0099204
-0.00989767
-0.00992024
-0.00989709
-0.00992022
-0.00989775
-0.0099201
-0.00992053
-0.00989748
-0.0099201
-0.00989715
-0.00991995
-0.00989784
-0.00992028
-0.00991984
-0.00989756
-0.00992023
-0.00989771
-0.00989771
-0.00992013
-0.00991999
-0.00989751
-0.00991999
-0.00991984
-0.00991998
-0.00989776
-0.00991995
-0.0098979
-0.0099199
-0.00991989
-0.00989779
-0.00989791
-0.00991993
-0.0099199
-0.00989792
-0.00991984
-0.00992
-0.0098978
-0.00991998
-0.00989792
-0.0099199
-0.0099199
-0.00989783
-0.00989789
-0.00991995
-0.00991989
-0.0098979
-0.00992019
-0.00992002
-0.00990846
-0.00990851
-0.0099084
-0.0099192
-0.00989768
-0.00989781
-0.00992014
-0.00991992
-0.00991983
-0.00989867
-0.00991915
-0.00989773
-0.00989763
-0.00992013
-0.00991977
-0.00991993
-0.00989859
-0.00991923
-0.00989782
-0.00989765
-0.0099201
-0.00991997
-0.00991977
-0.00989869
-0.0099191
-0.00989761
-0.00989763
-0.00992011
-0.00991973
-0.00991987
-0.00989847
-0.00990851
-0.00990859
-0.00990845
-0.00990853
-0.00990855
-0.00990841
-0.00990864
-0.00990863
-0.00990849
-0.00992078
-0.00989672
-0.00991981
-0.00989794
-0.00992091
-0.00991973
-0.00989683
-0.00992081
-0.00991975
-0.00989792
-0.00989654
-0.00991975
-0.00992092
-0.00989666
-0.00992022
-0.00989693
-0.00991949
-0.00989829
-0.00992053
-0.00991924
-0.00989726
-0.00992014
-0.00991913
-0.00989736
-0.00989841
-0.00992018
-0.00991918
-0.00989736
-0.00992028
-0.00989694
-0.00991952
-0.00989824
-0.00991932
-0.00992055
-0.00989727
-0.00992018
-0.00991916
-0.00989833
-0.00989737
-0.00991918
-0.00992018
-0.00989736
-0.00992027
-0.00989715
-0.00991955
-0.00989843
-0.00991933
-0.00992058
-0.0098974
-0.00992011
-0.00991916
-0.00989847
-0.00989741
-0.00991916
-0.00992018
-0.0098974
-0.0099208
-0.00989663
-0.00991979
-0.00989784
-0.0099197
-0.00992087
-0.00989676
-0.0099209
-0.00991981
-0.00989788
-0.00989655
-0.00991981
-0.00992099
-0.00989663
-0.00992074
-0.00989659
-0.00991982
-0.0098978
-0.00991972
-0.00992082
-0.00989674
-0.00992085
-0.00991985
-0.00989656
-0.00989781
-0.00992098
-0.00991975
-0.00989661
-0.00992077
-0.00989677
-0.0099198
-0.00989796
-0.00992089
-0.00991975
-0.00989684
-0.00992083
-0.00991974
-0.00989654
-0.00989791
-0.00992093
-0.00991974
-0.00989667
-0.00992031
-0.00989712
-0.00991947
-0.00989835
-0.00992058
-0.00991929
-0.00989742
-0.00992018
-0.00991912
-0.00989739
-0.00989851
-0.0099202
-0.0099192
-0.00989748
-0.00989795
-0.00989797
-0.00989797
-0.00989797
-0.00989798
-0.00989785
-0.00989785
-0.00989786
-0.00989787
-0.00989787
-0.00989778
-0.0098978
-0.0098978
-0.0098978
-0.0098978
-0.00989771
-0.00989773
-0.00989773
-0.00989774
-0.00989774
-0.00989787
-0.00989788
-0.00989789
-0.00989789
-0.0098979
-0.00989772
-0.00989774
-0.00989774
-0.00989774
-0.00989775
-0.00989793
-0.00989794
-0.00989794
-0.00989795
-0.00989795
-0.00989773
-0.00989774
-0.00989774
-0.00989774
-0.00989775
-0.00989776
-0.00989778
-0.00989778
-0.00989778
-0.00989778
-0.00989778
-0.00989779
-0.00989779
-0.00989779
-0.0098978
-0.00989776
-0.00989777
-0.00989776
-0.00989777
-0.00989777
-0.00989778
-0.00989779
-0.00989779
-0.0098978
-0.0098978
-0.00989787
-0.00989788
-0.00989788
-0.00989789
-0.00989789
-0.00989789
-0.00989789
-0.00989789
-0.0098979
-0.0098979
-0.0098977
-0.00989771
-0.00989771
-0.00989772
-0.00989772
-0.0098978
-0.00989781
-0.00989781
-0.00989782
-0.00989782
-0.00991995
-0.00991996
-0.00991995
-0.00991994
-0.00991994
-0.00991999
-0.00991998
-0.00991998
-0.00991997
-0.00991997
-0.00992003
-0.00992003
-0.00992003
-0.00992002
-0.00992002
-0.00994302
-0.00994302
-0.00994303
-0.00994303
-0.00994303
-0.00994301
-0.00994301
-0.00994301
-0.00994301
-0.00994301
-0.00992015
-0.00992015
-0.00992015
-0.00992014
-0.00992014
-0.00992013
-0.00992012
-0.00992012
-0.00992012
-0.00992011
-0.00994307
-0.00994308
-0.00994308
-0.00994308
-0.00994308
-0.00992019
-0.00992017
-0.00992017
-0.00992017
-0.00992017
-0.00994303
-0.00994304
-0.00994304
-0.00994304
-0.00994304
-0.00989775
-0.00989774
-0.00989775
-0.00989775
-0.00989775
-0.00992007
-0.00992007
-0.00992007
-0.00992007
-0.00992006
-0.00989783
-0.00989782
-0.00989782
-0.00989783
-0.00989783
-0.00991997
-0.00991997
-0.00991997
-0.00991996
-0.00991996
-0.00989774
-0.00989773
-0.00989774
-0.00989774
-0.00989774
-0.00989776
-0.00989776
-0.00989776
-0.00989777
-0.00989777
-0.00992008
-0.00992007
-0.00992007
-0.00992007
-0.00992007
-0.00992004
-0.00992004
-0.00992004
-0.00992003
-0.00992003
-0.00992007
-0.00992007
-0.00992006
-0.00992006
-0.00992005
-0.00992016
-0.00992015
-0.00992015
-0.00992015
-0.00992014
-0.00994302
-0.00994303
-0.00994303
-0.00994303
-0.00994303
-0.00991996
-0.00991995
-0.00991995
-0.00991995
-0.00991994
-0.00989781
-0.00989781
-0.00989781
-0.00989782
-0.00989782
-0.00992006
-0.00992008
-0.00992007
-0.00992007
-0.00992006
-0.00989781
-0.00989781
-0.00989781
-0.00989781
-0.00989781
-0.0099201
-0.0099201
-0.00992009
-0.00992009
-0.00992009
-0.00992017
-0.00992016
-0.00992016
-0.00992016
-0.00992016
-0.00994301
-0.00994301
-0.00994301
-0.00994301
-0.00994301
-0.00994299
-0.009943
-0.009943
-0.009943
-0.009943
-0.00992016
-0.00992016
-0.00992015
-0.00992015
-0.00992015
-0.00992015
-0.00992013
-0.00992013
-0.00992013
-0.00992013
-0.00994308
-0.00994309
-0.00994309
-0.00994309
-0.00994309
-0.00992012
-0.00992011
-0.00992011
-0.00992011
-0.00992011
-0.00992013
-0.00992013
-0.00992013
-0.00992013
-0.00992012
-0.00992011
-0.0099201
-0.0099201
-0.0099201
-0.00992009
-0.0098978
-0.0098978
-0.0098978
-0.00989781
-0.00989781
-0.00991991
-0.00991992
-0.00991992
-0.00991991
-0.00991991
-0.00989774
-0.00989774
-0.00989775
-0.00989775
-0.00989775
-0.00991996
-0.00991995
-0.00991995
-0.00991994
-0.00991994
-0.00991985
-0.00991986
-0.00991986
-0.00991985
-0.00991984
-0.00991989
-0.00991989
-0.00991989
-0.00991988
-0.00991987
-0.00991985
-0.00991986
-0.00991985
-0.00991984
-0.00991984
-0.0099199
-0.00991989
-0.00991989
-0.00991988
-0.00991988
-0.00992013
-0.00992012
-0.00992012
-0.00992012
-0.00992012
-0.00991998
-0.00991997
-0.00991997
-0.00991996
-0.00991996
-0.00991994
-0.00991994
-0.00991994
-0.00991993
-0.00991993
-0.00992013
-0.00992013
-0.00992013
-0.00992013
-0.00992012
-0.00991998
-0.00991998
-0.00991997
-0.00991997
-0.00991996
-0.00989792
-0.00989793
-0.00989793
-0.00989794
-0.00989795
-0.00991999
-0.00991998
-0.00991998
-0.00991997
-0.00991997
-0.00989792
-0.00989793
-0.00989793
-0.00989794
-0.00989794
-0.00989795
-0.00989796
-0.00989796
-0.00989797
-0.00989798
-0.00989788
-0.00989787
-0.00989787
-0.00989788
-0.00989788
-0.00992007
-0.00992006
-0.00992006
-0.00992006
-0.00992006
-0.00989784
-0.00989783
-0.00989783
-0.00989784
-0.00989784
-0.00992013
-0.00992012
-0.00992012
-0.00992012
-0.00992012
-0.00989777
-0.00989777
-0.00989777
-0.00989778
-0.00989778
-0.0099202
-0.00992019
-0.00992019
-0.00992019
-0.00992019
-0.0098977
-0.00989771
-0.00989771
-0.00989771
-0.00989771
-0.00992021
-0.00992021
-0.00992021
-0.00992021
-0.00992021
-0.00989771
-0.00989772
-0.00989772
-0.00989772
-0.00989772
-0.00994306
-0.00994306
-0.00994306
-0.00994306
-0.00994306
-0.00989776
-0.00989776
-0.00989777
-0.00989777
-0.00989777
-0.00992011
-0.00992011
-0.0099201
-0.0099201
-0.0099201
-0.00989775
-0.00989776
-0.00989776
-0.00989777
-0.00989777
-0.00992011
-0.00992011
-0.00992011
-0.0099201
-0.0099201
-0.00989788
-0.00989789
-0.00989789
-0.0098979
-0.0098979
-0.00992005
-0.00992005
-0.00992004
-0.00992004
-0.00992003
-0.00989783
-0.00989783
-0.00989784
-0.00989784
-0.00989784
-0.00992009
-0.00992009
-0.00992009
-0.00992008
-0.00992008
-0.00989778
-0.00989778
-0.00989779
-0.00989779
-0.00989779
-0.00992008
-0.00992008
-0.00992008
-0.00992008
-0.00992007
-0.00989778
-0.00989779
-0.00989779
-0.00989779
-0.0098978
-0.0099201
-0.0099201
-0.00992009
-0.00992009
-0.00992009
-0.00991998
-0.00991997
-0.00991997
-0.00991997
-0.00991996
-0.00989792
-0.00989792
-0.00989793
-0.00989793
-0.00989794
-0.00991997
-0.00991997
-0.00991996
-0.00991996
-0.00991995
-0.00989795
-0.00989794
-0.00989795
-0.00989795
-0.00989796
-0.00989796
-0.00989795
-0.00989796
-0.00989797
-0.00989797
-0.00992021
-0.00992021
-0.0099202
-0.0099202
-0.0099202
-0.0098977
-0.00989771
-0.00989771
-0.00989771
-0.00989771
-0.00992021
-0.00992021
-0.0099202
-0.0099202
-0.0099202
-0.00989772
-0.00989772
-0.00989773
-0.00989773
-0.00989773
-0.00989777
-0.00989777
-0.00989777
-0.00989777
-0.00989778
-0.00994306
-0.00994306
-0.00994306
-0.00994306
-0.00994306
-0.00989777
-0.00989777
-0.00989777
-0.00989777
-0.00989778
-0.00992017
-0.00992017
-0.00992017
-0.00992017
-0.00992017
-0.00989769
-0.00989769
-0.00989769
-0.0098977
-0.0098977
-0.00992018
-0.00992018
-0.00992018
-0.00992018
-0.00992018
-0.0098977
-0.0098977
-0.0098977
-0.00989771
-0.00989771
-0.00992018
-0.00992017
-0.00992017
-0.00992017
-0.00992017
-0.00989768
-0.00989768
-0.00989768
-0.00989769
-0.00989769
-0.00992018
-0.00992018
-0.00992018
-0.00992017
-0.00992018
-0.00989771
-0.00989771
-0.00989771
-0.00989771
-0.00989771
-0.00989776
-0.00989776
-0.00989776
-0.00989776
-0.00989777
-0.00991997
-0.00991997
-0.00991996
-0.00991996
-0.00991996
-0.00989788
-0.00989788
-0.00989789
-0.0098979
-0.0098979
-0.00991991
-0.00991991
-0.0099199
-0.0099199
-0.00991989
-0.00989789
-0.00989789
-0.00989789
-0.0098979
-0.0098979
-0.00991991
-0.00991991
-0.00991991
-0.0099199
-0.0099199
-0.00989789
-0.00989789
-0.00989789
-0.0098979
-0.00989791
-0.00989791
-0.0098979
-0.00989791
-0.00989792
-0.00989792
-0.0099199
-0.0099199
-0.00991989
-0.00991989
-0.00991988
-0.00989787
-0.00989788
-0.00989788
-0.00989789
-0.0098979
-0.0099199
-0.00991989
-0.00991989
-0.00991988
-0.00991988
-0.00989788
-0.00989788
-0.00989788
-0.00989789
-0.0098979
-0.00986341
-0.00987482
-0.00986338
-0.00986318
-0.00987524
-0.00986326
-0.00987454
-0.00987501
-0.00987522
-0.00986327
-0.00987467
-0.00987454
-0.00987496
-0.00987502
-0.00985243
-0.00985222
-0.0098752
-0.00987497
-0.00985227
-0.00985241
-0.00987494
-0.00985248
-0.00985238
-0.0098751
-0.00985236
-0.0098749
-0.00985244
-0.00985224
-0.00987499
-0.00987519
-0.00985244
-0.00985226
-0.00987497
-0.00985239
-0.0098522
-0.00987539
-0.00985247
-0.00987486
-0.00985203
-0.00985255
-0.00987495
-0.00985245
-0.00987502
-0.00985207
-0.00987478
-0.00985226
-0.00987488
-0.00985248
-0.00987497
-0.00985333
-0.00985206
-0.00987473
-0.00987449
-0.00985246
-0.00985239
-0.0098738
-0.00986311
-0.00986311
-0.00986309
-0.00986315
-0.00986306
-0.0098513
-0.00985264
-0.00987454
-0.00987556
-0.00985272
-0.00985118
-0.00987549
-0.00985151
-0.00987566
-0.0098528
-0.00987454
-0.00985275
-0.00985152
-0.00987546
-0.00985134
-0.00985261
-0.00987559
-0.00987455
-0.00985119
-0.00985269
-0.00987553
-0.00985204
-0.00987528
-0.00985179
-0.009875
-0.00987476
-0.0098634
-0.00986342
-0.00986318
-0.00987486
-0.00987496
-0.00987487
-0.00987499
-0.00987487
-0.0098748
-0.00987442
-0.00986334
-0.00987394
-0.00987504
-0.00987469
-0.00985258
-0.00985243
-0.00985246
-0.00987521
-0.00985265
-0.00987476
-0.0098527
-0.00985225
-0.00987494
-0.00985237
-0.0098754
-0.00985251
-0.00987482
-0.00985261
-0.00985197
-0.00987501
-0.00985234
-0.00987486
-0.00987488
-0.00985255
-0.00985251
-0.00987502
-0.00985271
-0.00985262
-0.00987485
-0.00985265
-0.00987468
-0.00985267
-0.00985261
-0.0098747
-0.0098748
-0.00985264
-0.00985263
-0.00987469
-0.00985248
-0.00985241
-0.00987512
-0.00985237
-0.0098749
-0.00985336
-0.00985209
-0.00987454
-0.00987469
-0.00985251
-0.00985233
-0.00987392
-0.00986313
-0.00985212
-0.00987536
-0.00985314
-0.00987415
-0.00985194
-0.00985325
-0.00987496
-0.00985216
-0.00985329
-0.00987402
-0.00987483
-0.00985331
-0.00985214
-0.00987486
-0.00985153
-0.0098757
-0.00985283
-0.00987455
-0.00985152
-0.00985281
-0.00987545
-0.00987485
-0.00987484
-0.00987484
-0.00987485
-0.00987485
-0.00987489
-0.00987488
-0.00987488
-0.00987488
-0.00987488
-0.00985247
-0.00985246
-0.00985246
-0.00985246
-0.00985246
-0.00985246
-0.00985246
-0.00985245
-0.00985246
-0.00985246
-0.00985241
-0.00985241
-0.00985241
-0.00985241
-0.00985241
-0.00985243
-0.00985243
-0.00985243
-0.00985243
-0.00985243
-0.00987493
-0.00987492
-0.00987493
-0.00987493
-0.00987493
-0.00985241
-0.0098524
-0.0098524
-0.0098524
-0.0098524
-0.00987491
-0.00987491
-0.00987491
-0.00987491
-0.00987491
-0.00985243
-0.00985242
-0.00985242
-0.00985242
-0.00985242
-0.00987494
-0.00987493
-0.00987493
-0.00987493
-0.00987493
-0.00985243
-0.00985242
-0.00985242
-0.00985242
-0.00985242
-0.00987493
-0.00987493
-0.00987493
-0.00987493
-0.00987493
-0.00987488
-0.00987488
-0.00987487
-0.00987487
-0.00987487
-0.00987484
-0.00987483
-0.00987483
-0.00987483
-0.00987483
-0.00985249
-0.00985247
-0.00985246
-0.00985247
-0.00985247
-0.00987484
-0.00987483
-0.00987483
-0.00987483
-0.00987483
-0.00985246
-0.00985245
-0.00985244
-0.00985245
-0.00985245
-0.00987481
-0.0098748
-0.0098748
-0.0098748
-0.00987479
-0.0098749
-0.00987489
-0.00987489
-0.00987489
-0.00987489
-0.00987474
-0.00987473
-0.00987473
-0.00987473
-0.00987472
-0.00987486
-0.00987485
-0.00987485
-0.00987485
-0.00987485
-0.00985259
-0.00985259
-0.00985259
-0.00985259
-0.0098526
-0.00985245
-0.00985245
-0.00985245
-0.00985246
-0.00985246
-0.00985267
-0.00985266
-0.00985266
-0.00985267
-0.00985268
-0.00985266
-0.00985266
-0.00985266
-0.00985267
-0.00985268
-0.0098525
-0.0098525
-0.00985249
-0.0098525
-0.0098525
-0.00987483
-0.00987483
-0.00987483
-0.00987483
-0.00987482
-0.00987485
-0.00987484
-0.00987484
-0.00987484
-0.00987484
-0.00985247
-0.00985246
-0.00985247
-0.00985247
-0.00985247
-0.00987488
-0.00987488
-0.00987488
-0.00987488
-0.00987488
-0.00987479
-0.00987479
-0.00987479
-0.00987478
-0.00987478
-0.00985262
-0.00985261
-0.00985261
-0.00985262
-0.00985262
-0.00987483
-0.00987483
-0.00987483
-0.00987483
-0.00987483
-0.00985253
-0.00985252
-0.00985252
-0.00985252
-0.00985252
-0.00985252
-0.00985251
-0.00985252
-0.00985252
-0.00985252
-0.00985255
-0.00985255
-0.00985255
-0.00985256
-0.00985256
-0.00985262
-0.00985262
-0.00985262
-0.00985263
-0.00985263
-0.00987468
-0.00987468
-0.00987468
-0.00987467
-0.00987467
-0.00985261
-0.00985261
-0.00985261
-0.00985262
-0.00985262
-0.00987469
-0.00987469
-0.00987469
-0.00987468
-0.00987468
-0.00987469
-0.00987469
-0.00987469
-0.00987468
-0.00987467
-0.0127988
-0.0129912
-0.0129908
-0.0129909
-0.0129806
-0.0129574
-0.0129804
-0.0129915
-0.0129915
-0.0129804
-0.0129908
-0.0129906
-0.0129906
-0.0129807
-0.0129909
-0.0127989
-0.012799
-0.0128668
-0.0128666
-0.0128664
-0.0130477
-0.0129804
-0.0129805
-0.0129804
-0.0130478
-0.0129805
-0.0129804
-0.0129913
-0.0129908
-0.0129909
-0.0129809
-0.0129906
-0.0130378
-0.012981
-0.0129806
-0.0129911
-0.0129811
-0.0129814
-0.0129805
-0.0129806
-0.012799
-0.0128665
-0.012799
-0.0128665
-0.0128896
-0.0129573
-0.0129572
-0.0128896
-0.0128898
-0.0129572
-0.0128897
-0.0129572
-0.0128898
-0.0129804
-0.0129805
-0.0129805
-0.0129805
-0.0130477
-0.0129804
-0.0130478
-0.0129805
-0.0130469
-0.0129812
-0.0129914
-0.0130376
-0.0129814
-0.0130469
-0.0129812
-0.0129914
-0.0130373
-0.0130474
-0.0130377
-0.0129814
-0.0129805
-0.0129804
-0.0130481
-0.0130477
-0.0129805
-0.012981
-0.0129906
-0.0129811
-0.0129806
-0.0129804
-0.0129906
-0.012981
-0.0129812
-0.0129805
-0.0129803
-0.0129906
-0.0129809
-0.012981
-0.0129804
-0.0129802
-0.0129806
-0.0129806
-0.0129806
-0.0129911
-0.0129811
-0.0129814
-0.0129806
-0.0129805
-0.0129806
-0.0129806
-0.0129805
-0.0129806
-0.0128442
-0.0128665
-0.0128664
-0.0128444
-0.0128444
-0.0128666
-0.0128212
-0.0127985
-0.0127991
-0.0128212
-0.0128211
-0.0127989
-0.0128215
-0.0128212
-0.0127986
-0.0127991
-0.012821
-0.012821
-0.0127989
-0.0128214
-0.0128213
-0.012799
-0.012799
-0.0128211
-0.0128211
-0.0127988
-0.0128443
-0.0128664
-0.0128443
-0.012867
-0.0128445
-0.0128666
-0.012844
-0.0128443
-0.0128663
-0.0128444
-0.0128669
-0.0128445
-0.0128666
-0.0128441
-0.0130257
-0.0130478
-0.0130477
-0.0130258
-0.0130256
-0.0130258
-0.0130478
-0.0130021
-0.0130021
-0.0129803
-0.0130021
-0.0129804
-0.0130257
-0.0130256
-0.0130257
-0.013002
-0.0130022
-0.0129802
-0.0129804
-0.0130019
-0.0130023
-0.0129802
-0.0130023
-0.0130256
-0.0130026
-0.0130026
-0.0129805
-0.0130027
-0.0129807
-0.0130026
-0.0130027
-0.0129804
-0.0129806
-0.0130027
-0.0130026
-0.0129806
-0.0130027
-0.0130025
-0.0129801
-0.0129806
-0.0130025
-0.0129804
-0.0130026
-0.0130024
-0.0130025
-0.0129803
-0.0129807
-0.0130025
-0.0129805
-0.0130027
-0.0130024
-0.0130027
-0.0129806
-0.0129806
-0.0129804
-0.0130025
-0.0130025
-0.0128212
-0.0128443
-0.0128211
-0.0128444
-0.012912
-0.0128898
-0.0128898
-0.0128896
-0.0129118
-0.0129118
-0.0129351
-0.0129576
-0.0129571
-0.0129351
-0.0129573
-0.0129352
-0.0129348
-0.0129351
-0.0129575
-0.0129571
-0.0129352
-0.0129572
-0.0129353
-0.0129349
-0.012935
-0.0129571
-0.0129571
-0.0129573
-0.0129352
-0.0129352
-0.0129119
-0.0128898
-0.0128892
-0.0129118
-0.0128896
-0.0129117
-0.0129122
-0.0129119
-0.0128899
-0.0128894
-0.0129118
-0.0128897
-0.0129117
-0.0129121
-0.0129351
-0.0129118
-0.0129352
-0.0129118
-0.0130023
-0.0130257
-0.0130026
-0.0130027
-0.0129803
-0.0130024
-0.0129806
-0.0130024
-0.0130029
-0.0129804
-0.0130027
-0.0129802
-0.0130026
-0.0129806
-0.0130025
-0.0130028
-0.0129804
-0.0130258
-0.0130258
-0.0130028
-0.0129805
-0.0129805
-0.0130026
-0.0130026
-0.0129803
-0.0130257
-0.0130478
-0.0130477
-0.0130258
-0.0130256
-0.0130258
-0.0130478
-0.013002
-0.013002
-0.0129803
-0.0130021
-0.0129804
-0.0130257
-0.0130478
-0.0130255
-0.0130256
-0.0130477
-0.013002
-0.0130022
-0.0129801
-0.0129804
-0.0130019
-0.0130023
-0.0129802
-0.0130257
-0.0130479
-0.0130258
-0.013026
-0.0130028
-0.0129802
-0.0130024
-0.0129806
-0.0130026
-0.0130028
-0.0129805
-0.0130024
-0.0129801
-0.0130025
-0.0129806
-0.0130027
-0.0130023
-0.0129803
-0.013026
-0.0130475
-0.0130258
-0.0130481
-0.0130258
-0.0130257
-0.0130477
-0.0130258
-0.0130259
-0.0130258
-0.0130261
-0.0130027
-0.0129805
-0.0129805
-0.0130026
-0.0130025
-0.0129803
-0.0130026
-0.0130259
-0.0130026
-0.0130027
-0.0129805
-0.0130027
-0.0129807
-0.0130026
-0.0130026
-0.0129806
-0.0129804
-0.0130026
-0.0130027
-0.0129806
-0.0130259
-0.0130259
-0.0130259
-0.0130259
-0.0130025
-0.0130026
-0.0129804
-0.0130026
-0.0129806
-0.0130259
-0.0130259
-0.0130259
-0.0130025
-0.0130026
-0.0129803
-0.0129805
-0.0130026
-0.0130025
-0.0129805
-0.0130259
-0.0130259
-0.0130259
-0.0130258
-0.0130024
-0.0130025
-0.0129804
-0.0130026
-0.0129805
-0.0130259
-0.0130259
-0.0130258
-0.0130025
-0.0130026
-0.0129804
-0.0129803
-0.0130025
-0.0130026
-0.0129805
-0.0130026
-0.0129803
-0.0130026
-0.0129807
-0.0130026
-0.0130028
-0.0129805
-0.0130025
-0.0129803
-0.0130025
-0.0129807
-0.0130026
-0.0130024
-0.0129805
-0.0130028
-0.0129806
-0.0129807
-0.0130026
-0.0130025
-0.0129804
-0.0130026
-0.0130025
-0.0130025
-0.0129806
-0.0130025
-0.0129807
-0.0130025
-0.0130025
-0.0129806
-0.0129806
-0.0130025
-0.0130025
-0.0129806
-0.0130024
-0.0130025
-0.0129805
-0.0130025
-0.0129807
-0.0130025
-0.0130025
-0.0129806
-0.0129806
-0.0130025
-0.0130025
-0.0129806
-0.0130025
-0.0130259
-0.0130025
-0.0128202
-0.0127989
-0.0127991
-0.0128213
-0.0127999
-0.012821
-0.0128209
-0.0129915
-0.0129907
-0.0129909
-0.0130013
-0.0129807
-0.0129809
-0.0130022
-0.0129816
-0.0130019
-0.0130019
-0.0129361
-0.012935
-0.0129571
-0.012957
-0.0129563
-0.0129353
-0.0129352
-0.0130016
-0.0129807
-0.0129806
-0.0130026
-0.0130023
-0.0130022
-0.0129815
-0.0130015
-0.0129807
-0.0129806
-0.0130025
-0.0130022
-0.0130022
-0.0129814
-0.0130015
-0.0129809
-0.0129809
-0.0130022
-0.013002
-0.0130021
-0.0129816
-0.0128452
-0.0128443
-0.0128665
-0.0128664
-0.0128656
-0.0128445
-0.0128445
-0.0129915
-0.0129907
-0.0129909
-0.0129906
-0.012991
-0.0129907
-0.0129906
-0.012991
-0.0129907
-0.0130027
-0.0129798
-0.013002
-0.012981
-0.013003
-0.0130018
-0.0129801
-0.0130254
-0.0130263
-0.0130254
-0.0130265
-0.0130027
-0.0130017
-0.0129811
-0.0129801
-0.0130017
-0.0130028
-0.0129801
-0.0130026
-0.0129801
-0.0130019
-0.0129813
-0.0130028
-0.0130017
-0.0129803
-0.0130026
-0.0130016
-0.0129803
-0.0129813
-0.0130027
-0.0130017
-0.0129803
-0.0129109
-0.0129117
-0.0128897
-0.0128899
-0.0128908
-0.0129115
-0.0129114
-0.0130265
-0.013047
-0.0130479
-0.013027
-0.013027
-0.0130264
-0.0130479
-0.0130026
-0.0129802
-0.0130018
-0.0129814
-0.0130017
-0.013003
-0.0129807
-0.0130264
-0.0130267
-0.0130271
-0.0130258
-0.0130025
-0.0130018
-0.0129814
-0.0129806
-0.0130018
-0.0130027
-0.0129807
-0.0130264
-0.0130469
-0.0130478
-0.0130269
-0.0130269
-0.0130263
-0.0130479
-0.0130025
-0.0129801
-0.0130017
-0.0129813
-0.0130017
-0.0130029
-0.0129806
-0.0130264
-0.0130471
-0.0130267
-0.0130484
-0.013027
-0.0130479
-0.0130258
-0.0130025
-0.0130018
-0.0129814
-0.0129806
-0.0130017
-0.0130027
-0.0129807
-0.0130268
-0.0130261
-0.0130477
-0.0130478
-0.0130263
-0.0130262
-0.013047
-0.0130028
-0.0129799
-0.0130021
-0.0129811
-0.0130019
-0.013003
-0.0129801
-0.0130027
-0.0130018
-0.0129812
-0.0129801
-0.0130018
-0.0130028
-0.0129801
-0.0130027
-0.0129799
-0.0130021
-0.0129811
-0.0130019
-0.0130029
-0.0129801
-0.0130027
-0.0130018
-0.0129801
-0.0129812
-0.0130028
-0.0130018
-0.0129801
-0.0130027
-0.0129798
-0.0130019
-0.012981
-0.0130028
-0.0130018
-0.01298
-0.0130027
-0.0130017
-0.01298
-0.0129811
-0.0130028
-0.0130017
-0.01298
-0.0130026
-0.01298
-0.0130019
-0.0129813
-0.0130028
-0.0130017
-0.0129803
-0.0130026
-0.0130017
-0.0129802
-0.0129814
-0.0130027
-0.0130017
-0.0129803
-0.01009
-0.01009
-0.0100901
-0.0100786
-0.010271
-0.0102712
-0.0102712
-0.0102598
-0.0104522
-0.0104523
-0.0104523
-0.010441
-0.0106335
-0.0106336
-0.0106336
-0.0106223
-0.0108149
-0.010815
-0.010815
-0.0108036
-0.0109964
-0.0109964
-0.0109964
-0.010985
-0.0111778
-0.0111778
-0.0111779
-0.0111665
-0.0113592
-0.0113593
-0.0113593
-0.0113478
-0.0115406
-0.0115407
-0.0115406
-0.0115293
-0.011722
-0.011722
-0.011722
-0.0117107
-0.0119033
-0.0119033
-0.0119034
-0.011892
-0.0120846
-0.0120846
-0.0120847
-0.0120733
-0.0122659
-0.0122659
-0.0122659
-0.0122545
-0.0124471
-0.0124472
-0.0124472
-0.0124359
-0.0126285
-0.0126283
-0.0126284
-0.0126173
-0.0128099
-0.0128097
-0.0128097
-0.0100561
-0.0100446
-0.0100447
-0.010056
-0.0100446
-0.0100447
-0.0100447
-0.0100447
-0.010056
-0.0100447
-0.0100447
-0.010056
-0.0100787
-0.0102372
-0.0100901
-0.0100901
-0.0102258
-0.0102258
-0.0100786
-0.0102372
-0.0100901
-0.0100901
-0.0102258
-0.0102258
-0.01009
-0.0102258
-0.0102258
-0.0100787
-0.0102372
-0.01009
-0.0102258
-0.0102258
-0.0102372
-0.0102598
-0.0104183
-0.0102712
-0.0102712
-0.0104069
-0.010407
-0.0102598
-0.0104183
-0.0102711
-0.0102712
-0.0104069
-0.0104069
-0.0102712
-0.0104069
-0.0104069
-0.0102598
-0.0104183
-0.0102712
-0.010407
-0.010407
-0.0104184
-0.0104409
-0.0105996
-0.0104523
-0.0104523
-0.0105882
-0.0105882
-0.0104409
-0.0105996
-0.0104522
-0.0104524
-0.0105882
-0.0105882
-0.0104523
-0.0105882
-0.0105883
-0.010441
-0.0105996
-0.0104523
-0.0105882
-0.0105883
-0.0105996
-0.0106222
-0.010781
-0.0106336
-0.0106336
-0.0107696
-0.0107696
-0.0106222
-0.010781
-0.0106336
-0.0106336
-0.0107696
-0.0107696
-0.0106337
-0.0107696
-0.0107696
-0.0106221
-0.0107809
-0.0106337
-0.0107696
-0.0107696
-0.010781
-0.0108036
-0.0109624
-0.010815
-0.010815
-0.010951
-0.010951
-0.0108036
-0.0109624
-0.010815
-0.010815
-0.010951
-0.0109511
-0.010815
-0.010951
-0.010951
-0.0108036
-0.0109624
-0.0108151
-0.010951
-0.010951
-0.0109623
-0.010985
-0.0111438
-0.0109965
-0.0109964
-0.0111324
-0.0111325
-0.010985
-0.0111438
-0.0109965
-0.0109965
-0.0111324
-0.0111325
-0.0109964
-0.0111325
-0.0111325
-0.0109851
-0.0111438
-0.0109964
-0.0111325
-0.0111325
-0.0111439
-0.0111664
-0.0113252
-0.0111778
-0.0111778
-0.0113138
-0.0113139
-0.0111664
-0.0113253
-0.0111778
-0.0111779
-0.0113138
-0.0113139
-0.0111778
-0.0113139
-0.0113139
-0.0111665
-0.0113253
-0.0111779
-0.0113139
-0.0113139
-0.0113252
-0.0113479
-0.0115066
-0.0113593
-0.0113593
-0.0114953
-0.0114954
-0.0113479
-0.0115067
-0.0113593
-0.0113593
-0.0114953
-0.0114953
-0.0113592
-0.0114954
-0.0114953
-0.0113479
-0.0115067
-0.0113593
-0.0114953
-0.0114954
-0.0115067
-0.0115293
-0.0116881
-0.0115407
-0.0115407
-0.0116767
-0.0116767
-0.0115293
-0.011688
-0.0115407
-0.0115407
-0.0116767
-0.0116768
-0.0115407
-0.0116767
-0.0116767
-0.0115293
-0.011688
-0.0115407
-0.0116767
-0.0116768
-0.0116881
-0.0117107
-0.0118693
-0.011722
-0.011722
-0.011858
-0.011858
-0.0117106
-0.0118694
-0.011722
-0.0117221
-0.011858
-0.0118581
-0.0117221
-0.0118581
-0.0118581
-0.0117106
-0.0118694
-0.0117221
-0.0118581
-0.0118581
-0.0118694
-0.0118919
-0.0120507
-0.0119033
-0.0119034
-0.0120394
-0.0120394
-0.0118919
-0.0120507
-0.0119033
-0.0119034
-0.0120394
-0.0120394
-0.0119034
-0.0120394
-0.0120394
-0.011892
-0.0120508
-0.0119034
-0.0120394
-0.0120395
-0.0120507
-0.0120733
-0.0122321
-0.0120847
-0.0120847
-0.0122207
-0.0122208
-0.0120732
-0.0122321
-0.0120846
-0.0120847
-0.0122208
-0.0122208
-0.0120847
-0.0122208
-0.0122208
-0.0120733
-0.012232
-0.0120847
-0.0122208
-0.0122207
-0.012232
-0.0122546
-0.0124134
-0.012266
-0.012266
-0.0124021
-0.0124021
-0.0122546
-0.0124133
-0.0122659
-0.0122659
-0.0124022
-0.0124022
-0.0122659
-0.0124021
-0.0124021
-0.0122546
-0.0124134
-0.0122659
-0.0124021
-0.0124021
-0.0124134
-0.0124359
-0.0125947
-0.0124473
-0.0124473
-0.0125834
-0.0125834
-0.0124358
-0.0125947
-0.0124472
-0.0124471
-0.0125835
-0.0125836
-0.0124471
-0.0125835
-0.0125836
-0.0124359
-0.0125948
-0.0124472
-0.0125836
-0.0125836
-0.0125947
-0.0126172
-0.0127761
-0.0126285
-0.0126285
-0.0127649
-0.0127649
-0.0126172
-0.0127761
-0.0126284
-0.0126284
-0.0127651
-0.0127652
-0.0126284
-0.0127651
-0.0127652
-0.0126173
-0.0127761
-0.0126285
-0.0127651
-0.0127651
-0.0127762
-0.0127986
-0.0129575
-0.0128099
-0.0128099
-0.0129464
-0.0129464
-0.0127986
-0.0129575
-0.0128097
-0.0128096
-0.0129468
-0.0129469
-0.0128096
-0.0129468
-0.0129469
-0.0127988
-0.0129575
-0.0128098
-0.0129467
-0.0129467
-0.00996534
-0.00996534
-0.0099653
-0.00996569
-0.00996556
-0.0100445
-0.0100447
-0.0100446
-0.0100447
-0.00996511
-0.00995412
-0.00996523
-0.00995415
-0.00996549
-0.0099645
-0.0099543
-0.0099542
-0.00996485
-0.0099655
-0.00996552
-0.00996526
-0.0101464
-0.0100789
-0.0100789
-0.0101464
-0.0100789
-0.0101464
-0.0101469
-0.0100787
-0.0100784
-0.0101466
-0.01009
-0.0100901
-0.01009
-0.0102258
-0.0102258
-0.0102258
-0.0102257
-0.0101463
-0.010079
-0.01009
-0.0101354
-0.010079
-0.0101463
-0.0101353
-0.0100787
-0.0101465
-0.0101456
-0.01009
-0.0100793
-0.0101354
-0.0100796
-0.0101353
-0.0101459
-0.0100787
-0.0100789
-0.0101466
-0.0101466
-0.0101465
-0.0103275
-0.01026
-0.01026
-0.0103275
-0.01026
-0.0103275
-0.010328