/*--------------------------------*- C++ -*----------------------------------*\
| =========                 |                                                 |
| \\      /  F ield         | OpenFOAM: The Open Source CFD Toolbox           |
|  \\    /   O peration     | Version:  2206                                  |
|   \\  /    A nd           | Website:  www.openfoam.com                      |
|    \\/     M anipulation  |                                                 |
\*---------------------------------------------------------------------------*/
FoamFile
{
    version     2.0;
    format      ascii;
    arch        "LSB;label=32;scalar=64";
    class       surfaceScalarField;
    location    "100";
    object      phi;
}
// * * * * * * * * * * * * * * * * * * * * * * * * * * * * * * * * * * * * * //

dimensions      [0 3 -1 0 0 0 0];

oriented        oriented;

internalField   nonuniform List<scalar> 
198714
(
-1.26665e-13
2.78607e-12
-9.31907e-13
-1.58316e-14
-1.22994e-07
1.22992e-07
-3.35195e-11
-1.71154e-12
-6.68747e-13
3.60554e-11
3.51417e-11
-3.16324e-11
-6.29062e-11
6.11529e-11
-6.34215e-11
6.39537e-11
1.14835e-07
-3.84996e-11
-1.65208e-12
-1.37474e-12
2.38832e-11
4.00003e-11
-2.34121e-11
-7.28399e-12
3.19235e-11
-3.2445e-11
8.56101e-12
-1.15968e-07
1.15968e-07
2.2723e-11
3.95592e-11
5.25496e-11
3.70917e-11
2.7499e-08
3.03586e-11
3.35317e-11
4.47437e-11
4.38045e-11
2.74844e-08
-2.76368e-08
7.5664e-13
1.87302e-11
3.14037e-11
-1.93911e-11
1.64404e-11
3.03861e-11
-3.127e-11
-1.60588e-11
-1.17067e-07
1.17066e-07
-3.02327e-11
3.85381e-13
6.07231e-13
1.95012e-11
3.1114e-11
-2.40493e-11
1.63576e-11
3.03308e-11
-2.87809e-11
-1.62061e-11
1.17085e-07
4.48294e-11
4.39949e-11
2.74844e-08
-1.66163e-12
3.6042e-11
3.4819e-11
-3.55628e-11
-6.22948e-11
6.1039e-11
-6.04764e-11
6.39913e-11
-1.14856e-07
1.14856e-07
-2.24882e-11
-1.87388e-12
-1.36523e-12
3.27932e-11
2.44743e-11
-3.28739e-11
-4.29386e-11
5.98487e-11
-6.03397e-11
4.38535e-11
-1.15901e-07
1.15902e-07
-1.82221e-12
-1.62372e-12
3.25263e-11
2.45259e-11
-3.22687e-11
-4.34109e-11
6.04449e-11
-6.01914e-11
4.39469e-11
1.15927e-07
5.15948e-11
3.79538e-11
2.74869e-08
-2.76374e-08
-1.05785e-12
-1.43167e-12
2.30081e-11
4.02633e-11
-2.38344e-11
-7.08671e-12
3.21512e-11
-3.18797e-11
8.42985e-12
1.16037e-07
1.9075e-13
-5.37805e-12
1.34102e-08
-1.53291e-12
-1.98018e-12
-1.34015e-08
9.91596e-14
-1.62529e-11
2.02559e-08
3.3601e-12
1.56774e-12
-2.02447e-08
1.38279e-13
-2.89419e-12
6.69094e-09
-2.34183e-12
2.37967e-12
-1.36257e-11
1.31189e-08
-3.98452e-12
-1.08213e-12
-1.31026e-08
-5.01506e-11
-2.41634e-13
1.96234e-08
5.02197e-12
1.54753e-11
-1.95935e-08
-1.72302e-12
2.4583e-14
1.22979e-07
-6.71005e-13
-1.2498e-12
-1.23294e-07
1.23293e-07
-8.29169e-14
-1.57994e-12
1.23334e-07
1.05569e-11
1.33273e-11
-3.16221e-11
2.08327e-08
-1.60693e-11
9.48961e-13
-2.55684e-12
-1.01132e-10
1.35156e-10
-1.3383e-10
1.01904e-10
1.19193e-07
5.03129e-11
7.71393e-14
2.40355e-08
1.07469e-11
-9.63672e-11
-2.33327e-12
-5.48524e-12
6.56398e-09
-8.70231e-13
-6.55529e-09
8.56211e-13
-4.25184e-13
-7.36563e-12
3.59474e-12
-3.38475e-12
7.20527e-12
1.18769e-07
3.29613e-12
5.46934e-12
-1.37029e-11
2.12e-08
-6.45094e-12
8.64668e-14
1.58572e-11
2.46666e-08
-2.56723e-11
4.065e-12
-1.01776e-11
5.72843e-12
-2.3302e-11
2.1244e-08
4.20704e-12
-3.69617e-12
3.50469e-12
-1.58836e-11
2.13684e-08
7.11027e-13
-3.17516e-12
6.68943e-09
-2.2336e-12
-6.68383e-09
-5.54241e-12
6.56164e-09
-7.36826e-13
-6.55298e-09
-4.12092e-12
-1.57223e-11
2.15356e-08
5.74216e-13
-2.15195e-08
-1.03941e-11
-2.29978e-11
2.10812e-08
4.77366e-12
-2.10582e-08
-5.23319e-12
1.34173e-08
-7.84876e-13
-2.04486e-12
-1.63256e-11
2.02596e-08
3.60193e-12
1.7916e-12
-1.32566e-11
2.11893e-08
-6.85127e-12
-2.11787e-08
1.26261e-12
-4.62254e-13
1.58311e-11
3.29231e-12
-2.57313e-12
-1.47373e-11
-1.21341e-07
1.21339e-07
2.63117e-13
2.46673e-08
4.22014e-12
-2.58158e-11
-2.46622e-08
3.52292e-12
-1.32781e-11
2.11837e-08
-6.50295e-12
7.81468e-13
1.54774e-11
3.14135e-12
-2.74297e-12
-1.52645e-11
1.21348e-07
2.46706e-08
4.30965e-12
-2.56843e-11
-1.58965e-11
2.14226e-08
5.69827e-13
5.24846e-12
-2.32171e-11
2.12016e-08
4.6358e-12
-2.37563e-12
6.56494e-09
-8.93396e-13
-3.14147e-11
2.082e-08
-1.57482e-11
-2.07968e-08
4.69842e-13
-3.06118e-12
-1.00911e-10
1.3551e-10
-1.33443e-10
1.01966e-10
-1.19204e-07
1.19202e-07
1.15089e-13
2.40379e-08
1.06838e-11
-9.61905e-11
-2.40026e-08
-1.38077e-11
1.31201e-08
-3.73905e-12
-9.58764e-13
-1.31039e-08
-5.02274e-11
1.96199e-08
1.55907e-11
4.48072e-12
-1.959e-08
-3.28193e-12
-8.26251e-11
1.34783e-10
-1.33255e-10
8.43548e-11
-1.20474e-07
1.20473e-07
1.04155e-11
-3.15345e-11
2.08078e-08
-1.56585e-11
-2.07848e-08
2.40332e-08
-9.62359e-11
1.03102e-11
-2.39974e-08
1.31256e-08
-4.15116e-12
-1.21699e-12
4.46359e-14
1.96264e-08
4.78352e-12
1.54221e-11
-3.17477e-12
-8.29339e-11
1.34799e-10
-1.3327e-10
8.42073e-11
1.20482e-07
1.37323e-11
-3.15673e-11
2.08176e-08
-1.55801e-11
5.04308e-11
2.4033e-08
-9.64648e-11
1.05159e-11
2.14306e-12
1.31173e-08
-3.65078e-12
-1.18892e-12
1.96224e-08
1.54954e-11
4.7278e-12
-2.28845e-11
2.11356e-08
4.3913e-12
-2.11122e-08
3.44415e-12
-1.66467e-11
2.14922e-08
6.85195e-13
3.03279e-13
6.69221e-09
-2.09852e-12
1.63565e-12
-7.57041e-12
3.74709e-12
-3.82082e-12
6.7313e-12
1.18789e-07
5.77052e-12
-1.34227e-11
2.11911e-08
-6.45419e-12
1.60737e-11
2.46695e-08
-2.57515e-11
3.96703e-12
1.34136e-08
-8.78369e-13
-2.08097e-12
5.18772e-14
2.02543e-08
1.50741e-12
3.06756e-12
-9.49631e-14
1.34133e-08
-9.76639e-13
-2.04163e-12
2.02579e-08
1.37069e-12
2.96646e-12
6.56132e-09
-8.20672e-13
6.68915e-09
-2.05221e-12
-1.02266e-12
-5.56621e-09
3.07276e-13
3.39842e-12
5.56353e-09
6.31661e-13
-5.2287e-14
5.56724e-12
1.92917e-12
1.34021e-08
2.06851e-08
-8.13961e-13
-2.70559e-12
-1.013e-11
-2.0673e-08
2.22958e-12
9.50028e-12
2.0673e-08
-4.2843e-13
-3.12659e-12
-5.56347e-09
3.54145e-13
2.02936e-12
-9.90224e-09
1.66587e-12
9.89849e-09
-3.19639e-12
-1.64224e-12
1.49947e-13
1.61201e-11
2.02445e-08
1.20341e-08
2.75302e-13
1.93364e-14
-1.77822e-12
-1.20293e-08
1.91734e-08
2.60178e-12
-1.40398e-11
-1.91631e-08
-1.00114e-14
1.60582e-12
1.20297e-08
1.33919e-11
1.91626e-08
-1.59967e-12
-9.89819e-09
3.02122e-13
3.37536e-12
1.65599e-12
6.68561e-09
-1.25306e-11
-1.35941e-12
2.00927e-12
-9.5935e-09
-3.13302e-13
9.6057e-09
4.6919e-12
1.53556e-11
-1.95934e-08
-2.98901e-13
1.96239e-08
-5.02772e-11
6.98308e-12
-1.85816e-08
1.86084e-08
-4.157e-11
-1.16447e-08
-3.65462e-13
-2.40471e-13
1.16593e-08
3.69625e-12
-5.40844e-09
5.40154e-09
1.92603e-12
1.27357e-12
3.92645e-12
1.31033e-08
-2.60784e-12
1.31526e-11
1.09056e-12
2.01526e-08
3.75916e-12
-7.13953e-12
-2.70492e-11
-2.01261e-08
2.01269e-08
6.7584e-12
2.65312e-11
-2.26912e-12
-1.26722e-12
-5.40114e-09
-4.17452e-12
-1.0854e-12
5.40881e-09
-4.19404e-12
2.60279e-12
-8.76792e-13
1.31197e-08
-1.39277e-11
2.0153e-08
-2.74925e-11
1.24783e-11
1.05735e-12
-9.60531e-09
1.97374e-13
-4.31848e-12
-1.52522e-11
-2.2462e-13
4.98148e-11
1.86079e-08
1.25613e-11
-4.14039e-11
-1.85812e-08
1.16587e-08
1.42817e-12
-2.33535e-13
-5.36762e-14
-1.16443e-08
4.1214e-11
-2.56049e-13
4.21386e-14
-1.29004e-13
-9.59346e-09
6.55548e-09
2.86977e-12
4.99319e-12
6.38956e-13
-2.23658e-12
-7.6805e-13
6.56434e-09
-5.85078e-12
2.26358e-11
-9.68554e-12
-1.95196e-08
-1.38808e-11
2.12131e-11
1.94993e-08
2.33371e-08
2.33237e-11
-4.45656e-11
-3.3998e-11
2.26709e-11
-4.55732e-12
-5.10295e-12
1.0154e-11
2.12208e-08
1.26475e-08
-1.00174e-11
2.45716e-12
-9.73765e-13
4.40256e-11
3.33085e-11
2.33051e-08
-2.69162e-12
9.12491e-13
1.26351e-08
1.41524e-11
-2.15345e-11
1.77622e-11
-7.56107e-12
-1.86984e-08
-1.24065e-11
1.65003e-11
1.86841e-08
2.27697e-08
1.79817e-11
-3.18527e-11
-2.29488e-11
1.53505e-11
-4.45769e-13
-3.22041e-12
3.66231e-12
2.1353e-08
1.25581e-08
-7.91376e-12
7.47289e-13
-1.41251e-12
3.08414e-11
2.31647e-11
2.27488e-08
-6.09109e-13
1.4486e-12
1.25493e-08
1.27049e-11
-1.72854e-11
-3.50255e-12
-4.43988e-12
-1.50027e-08
1.49844e-08
5.42212e-09
-3.577e-12
-8.70884e-13
5.45655e-09
-4.33885e-12
-1.23988e-12
6.13016e-13
5.41532e-09
1.05694e-12
5.45045e-09
3.29762e-12
1.89497e-12
6.68418e-09
6.55312e-09
4.9255e-12
9.84918e-13
-4.77861e-13
6.56195e-09
-5.74307e-12
-7.57905e-12
1.77245e-11
-1.96077e-08
-1.19363e-11
1.96481e-11
1.95899e-08
2.35581e-08
1.71182e-11
-3.36808e-11
-2.20022e-11
-2.35353e-08
-1.00335e-12
1.56609e-11
3.82337e-12
2.15204e-08
1.27692e-08
-7.90332e-12
2.24729e-13
-1.45883e-12
-1.27594e-08
-9.18931e-13
1.35369e-12
1.27601e-08
3.36116e-11
2.26492e-11
2.35352e-08
1.13858e-11
-2.03699e-11
-1.95895e-08
-9.43205e-12
2.30852e-11
-1.86151e-08
-1.38773e-11
1.73137e-11
1.8598e-08
2.25613e-08
2.43669e-11
-4.06089e-11
-3.43778e-11
-2.25337e-08
-4.15031e-12
2.25218e-11
9.51403e-12
2.10583e-08
1.24415e-08
-9.76636e-12
2.82564e-12
-8.16798e-13
-1.24289e-08
-2.05305e-12
1.26089e-12
1.24287e-08
4.00753e-11
3.28147e-11
2.25341e-08
1.49746e-11
-1.76678e-11
-1.85978e-08
-3.59395e-12
-3.69891e-12
-1.50045e-08
1.4986e-08
5.45263e-09
-4.37955e-12
-1.37808e-12
-5.44664e-09
5.42631e-09
-3.33026e-12
-8.1568e-13
-5.41935e-09
1.3412e-12
5.44677e-09
1.20113e-12
5.41937e-09
-1.49858e-08
-7.62582e-13
-5.57137e-09
4.68274e-13
2.9422e-12
5.56872e-09
9.51152e-13
5.75305e-12
1.7989e-12
1.3409e-08
2.06993e-08
-9.56977e-13
-2.51786e-12
-1.00188e-11
2.4868e-12
1.00578e-11
2.06869e-08
-2.36736e-13
-3.51291e-12
1.95738e-13
2.55171e-12
-9.90883e-09
1.41784e-12
9.90513e-09
-3.23322e-12
-1.30032e-12
1.59459e-11
2.02483e-08
1.20379e-08
3.51963e-13
-1.77394e-12
1.91819e-08
2.39673e-12
-1.36801e-11
1.70517e-12
1.20331e-08
1.36062e-11
1.9172e-08
-1.81288e-12
1.5995e-11
5.95612e-11
-1.87296e-08
-1.09426e-10
-1.0701e-10
1.88705e-08
2.3142e-08
1.44298e-11
-3.51769e-11
-2.18391e-11
-8.58889e-12
1.12598e-11
4.09736e-12
2.14192e-08
1.25517e-08
-9.25009e-12
-1.21439e-12
-1.53668e-12
-2.0564e-11
6.14252e-13
1.25791e-08
5.35085e-13
2.66348e-11
2.31856e-08
-1.12306e-12
-3.46242e-11
-1.92096e-11
-3.27422e-11
-1.95063e-08
8.9712e-11
1.36695e-10
1.93318e-08
2.29789e-08
2.68049e-11
-4.00779e-11
-3.49198e-11
2.78856e-11
3.09641e-12
-5.12903e-12
9.84526e-12
2.11659e-08
1.26614e-08
-8.58984e-12
4.23603e-12
-1.10999e-12
7.29647e-11
2.99602e-11
2.28846e-08
1.76915e-11
1.63759e-12
1.26125e-08
2.8387e-11
-4.94177e-12
1.53898e-11
-2.27616e-11
-1.50108e-08
1.49985e-08
5.45675e-09
-5.9052e-12
-1.37686e-12
5.42438e-09
-1.6517e-12
-1.24011e-12
4.71722e-13
5.4511e-09
1.17165e-12
5.41814e-09
2.52146e-12
6.35534e-13
6.55666e-09
-9.9136e-13
-1.28616e-11
1.95708e-12
-9.59438e-09
-1.35041e-13
9.60641e-09
1.56348e-11
4.51479e-12
-1.95898e-08
1.96199e-08
-5.06342e-11
-1.16452e-08
-3.50523e-14
1.16595e-08
6.88104e-12
-1.8576e-08
1.86029e-08
-4.21839e-11
3.58233e-12
-5.40807e-09
5.40107e-09
2.2101e-12
1.20633e-12
4.19089e-12
1.31045e-08
1.33156e-11
9.8084e-13
2.01489e-08
4.12251e-12
-6.84864e-12
-2.73044e-11
-2.01226e-08
2.01232e-08
7.03985e-12
2.65037e-11
-1.91099e-12
-1.2219e-12
-5.40082e-09
-4.23907e-12
-1.06367e-12
5.40833e-09
-3.84676e-12
-1.04927e-12
1.3121e-08
-1.38476e-11
2.01494e-08
-2.74742e-11
1.36141e-12
1.24258e-11
-9.60608e-09
1.23504e-13
-1.51879e-11
-4.64607e-12
4.97918e-11
1.16594e-08
1.06202e-12
-1.04902e-14
-1.16451e-08
1.86022e-08
1.27504e-11
-4.16444e-11
-1.85757e-08
1.17157e-13
4.10525e-11
-1.9051e-13
-9.59398e-09
3.78724e-12
-5.41247e-09
2.01315e-12
9.96819e-13
5.40567e-09
3.80266e-12
1.34407e-11
9.53594e-13
1.311e-08
2.01602e-08
3.56432e-12
-7.12549e-12
-2.69572e-11
6.73532e-12
2.67332e-11
2.01343e-08
-2.15248e-12
-1.40743e-12
1.22653e-11
1.29486e-12
-9.61425e-09
6.94098e-14
9.60262e-09
-4.51859e-12
-1.53692e-11
9.8754e-15
4.99839e-11
1.95963e-08
1.86131e-08
1.23826e-11
-4.13678e-11
1.16672e-08
1.25294e-12
-3.37563e-14
-1.46685e-13
4.10563e-11
1.85865e-08
6.36358e-14
-3.06629e-14
1.16531e-08
-2.88244e-13
4.01704e-12
-5.40681e-09
2.06904e-12
8.34116e-13
5.39989e-09
4.35966e-12
-2.87167e-12
1.33648e-11
9.30884e-13
1.31015e-08
2.01452e-08
3.71582e-12
-7.04287e-12
-2.71066e-11
6.83e-12
2.6957e-11
2.01198e-08
-2.11357e-12
-1.50106e-12
1.11662e-12
1.24123e-11
-9.60639e-09
3.06905e-14
9.5949e-09
-1.52992e-11
-4.38506e-12
4.98533e-11
1.95922e-08
1.16643e-08
1.33069e-12
-1.01197e-13
1.86028e-08
1.26273e-11
-4.17689e-11
-9.27102e-15
1.16501e-08
4.10703e-11
1.85766e-08
-2.49165e-13
-9.0226e-12
2.32035e-11
-1.86199e-08
-1.45813e-11
1.7051e-11
1.86033e-08
2.29181e-08
2.35584e-11
-4.2275e-11
-3.38562e-11
-2.28884e-08
-4.76977e-12
2.27622e-11
1.0166e-11
2.11125e-08
1.24356e-08
-9.77936e-12
2.46307e-12
-8.73554e-13
-1.2423e-08
-2.61211e-12
9.79777e-13
1.24234e-08
4.26826e-11
3.34253e-11
2.2888e-08
1.50918e-11
-1.73382e-11
-1.86039e-08
1.75738e-11
-7.83408e-12
-1.96217e-08
-1.10786e-11
1.9912e-11
1.96032e-08
2.31934e-08
1.7881e-11
-3.33207e-11
-2.25811e-11
-2.3172e-08
1.58283e-11
-1.4811e-12
-2.82924e-12
3.76591e-12
2.14769e-08
1.27882e-08
-8.58303e-12
6.00384e-13
-1.41053e-12
3.2007e-11
2.30381e-11
2.31717e-08
-6.14008e-13
1.62981e-12
1.27778e-08
1.14738e-11
-2.14624e-11
-1.96024e-08
-2.89094e-12
-4.11939e-12
-1.50157e-08
1.4997e-08
5.4283e-09
-3.64829e-12
-9.5941e-13
-5.42123e-09
5.45692e-09
-4.39932e-12
-1.008e-12
1.01811e-12
5.42178e-09
1.65252e-12
5.45055e-09
-1.49972e-08
3.86891e-13
1.88324e-12
6.68712e-09
-1.10958e-12
-5.56695e-09
6.16401e-13
3.1979e-12
5.56424e-09
1.18109e-12
5.56932e-12
1.81544e-12
1.34054e-08
2.06869e-08
-5.78991e-13
-2.19629e-12
-1.04648e-11
2.56178e-12
9.60224e-12
2.06748e-08
-7.91978e-15
-3.26823e-12
2.52871e-12
2.90769e-13
-9.9016e-09
1.431e-12
9.89796e-09
-1.55042e-12
-3.17785e-12
-1.42955e-14
1.61438e-11
2.02429e-08
1.91723e-08
2.21582e-12
-1.33529e-11
1.20331e-08
2.32931e-13
-2.08362e-13
-1.98156e-12
1.37159e-11
1.91621e-08
-1.65335e-13
1.6367e-12
1.20287e-08
-1.94846e-12
-8.21308e-13
-5.57007e-09
5.5754e-13
3.17291e-12
5.56716e-09
1.126e-12
-9.07075e-14
5.58388e-12
1.88112e-12
1.34048e-08
2.06933e-08
-5.15395e-13
-2.19675e-12
-1.03679e-11
2.69661e-12
9.70918e-12
2.06812e-08
-1.76267e-13
-3.32466e-12
2.46772e-12
4.14231e-13
-9.90697e-09
1.53677e-12
9.90311e-09
-1.6383e-12
-3.05143e-12
1.61564e-11
2.02464e-08
1.91784e-08
2.28905e-12
-1.34362e-11
1.20361e-08
1.07598e-13
-1.80905e-12
1.37231e-11
1.91682e-08
1.59033e-12
1.20317e-08
-1.81416e-12
6.24566e-13
6.55273e-09
1.97866e-12
6.68387e-09
-1.6105e-13
1.74717e-12
-1.29832e-07
1.29829e-07
-8.31946e-13
4.1115e-13
-1.27059e-07
1.27056e-07
1.56631e-12
-2.77622e-13
-1.39331e-07
1.39329e-07
2.3202e-11
2.50842e-11
-2.27429e-08
2.27323e-08
2.5864e-08
2.42814e-11
2.48172e-08
2.52603e-11
-5.14999e-11
-3.53838e-11
2.76507e-08
2.58475e-08
2.48139e-08
2.06594e-11
2.77248e-11
-2.27337e-08
2.27223e-08
2.59659e-08
2.11634e-11
-2.59573e-08
2.47099e-08
2.88985e-11
-2.46996e-08
-4.36536e-11
-4.24261e-11
2.76367e-08
2.59571e-08
2.46997e-08
-2.27217e-08
-1.58573e-11
6.41071e-11
-2.27417e-08
2.27232e-08
2.59164e-08
1.91368e-11
2.47612e-08
3.01667e-11
-4.90755e-11
-3.75876e-11
2.76373e-08
2.47375e-08
2.59194e-08
2.29329e-11
2.53078e-11
-2.27269e-08
2.27156e-08
2.57962e-08
2.63119e-11
-2.57804e-08
2.48532e-08
2.36415e-11
-2.48484e-08
-3.59475e-11
-5.08335e-11
2.76381e-08
2.48488e-08
2.57804e-08
-2.27157e-08
2.05586e-13
1.29827e-07
-2.0805e-12
-1.08046e-14
1.27054e-07
-8.39876e-13
1.39331e-07
-1.56595e-12
-1.31007e-07
1.31005e-07
-4.20144e-14
7.80485e-13
-1.24943e-07
1.2494e-07
1.60417e-12
-1.39484e-07
1.39481e-07
-2.4797e-12
1.31016e-07
1.60599e-12
1.24947e-07
1.39488e-07
-3.74448e-11
-5.13537e-11
-2.59463e-08
-2.57514e-11
2.5998e-08
2.46683e-08
-3.89461e-11
3.17971e-11
1.4996e-11
2.08092e-08
2.28296e-08
-5.21198e-11
-1.45952e-11
2.46292e-08
1.37336e-11
2.28062e-08
2.45238e-11
-7.51231e-11
1.80566e-11
-2.60491e-08
2.59793e-08
-1.00267e-11
9.55395e-11
-3.58861e-14
2.4e-08
2.32669e-08
-7.56224e-11
2.69886e-08
1.90978e-11
7.09311e-12
2.32365e-08
-6.91545e-12
2.69753e-08
-2.14883e-11
-1.55825e-11
-2.63423e-08
-5.42608e-11
2.64264e-08
2.49844e-08
-2.11049e-11
-2.49677e-08
1.39283e-11
6.46987e-12
2.11889e-08
2.33228e-08
-1.68185e-11
-4.17459e-12
2.49674e-08
4.55137e-12
2.33188e-08
5.42329e-11
-2.64259e-08
5.32252e-12
-2.05081e-11
-2.64589e-08
2.64124e-08
2.57906e-11
-4.04181e-12
-4.68204e-14
2.4661e-08
2.75164e-08
5.76861e-12
4.28325e-13
2.38102e-08
-2.00262e-11
-1.72816e-13
2.75443e-08
2.38039e-08
-1.48415e-11
-2.49307e-11
-2.63224e-08
7.77727e-12
2.63708e-08
2.49978e-08
-2.43718e-11
-2.49783e-08
6.28037e-12
1.3868e-11
2.11785e-08
2.33209e-08
-1.53807e-11
-7.71229e-12
-2.33148e-08
7.12548e-12
2.33147e-08
2.49781e-08
-7.75429e-12
-2.63704e-08
-1.85309e-11
8.92141e-12
-2.64699e-08
2.65032e-08
-4.05158e-12
2.52217e-11
1.77422e-13
2.46621e-08
2.38112e-08
-1.96211e-11
-2.38091e-08
2.75175e-08
9.34522e-12
5.1959e-13
-2.75499e-08
2.38092e-08
-1.77623e-13
2.75493e-08
-2.65027e-08
-1.50083e-11
-2.5026e-11
-2.63212e-08
7.85107e-12
2.63698e-08
2.49448e-08
-2.43098e-11
6.33257e-12
1.40004e-11
2.11732e-08
2.33257e-08
-1.52998e-11
-7.79349e-12
7.19416e-12
2.33199e-08
2.49316e-08
-7.8377e-12
-1.90816e-11
9.18615e-12
-2.64724e-08
2.65056e-08
-3.94323e-12
2.51586e-11
2.46655e-08
2.3817e-08
-1.93566e-11
2.75199e-08
9.09059e-12
2.38147e-08
2.75513e-08
-5.10117e-11
-3.69771e-11
-2.59432e-08
-2.59521e-11
2.59948e-08
2.46132e-08
-3.8416e-11
-2.45795e-08
1.48953e-11
3.11754e-11
2.07966e-08
2.28271e-08
-5.18523e-11
-1.43412e-11
-2.28037e-08
1.40514e-11
2.28034e-08
2.45797e-08
2.4908e-11
-2.59943e-08
-7.54264e-11
1.80562e-11
-2.6052e-08
2.59825e-08
-1.0023e-11
9.53884e-11
-4.89173e-14
2.40024e-08
2.32685e-08
-7.54309e-11
-2.32381e-08
2.69916e-08
1.88495e-11
7.40601e-12
-2.69786e-08
2.32383e-08
-6.95032e-12
2.69786e-08
-2.59817e-08
-5.04608e-11
-4.06883e-11
-2.59135e-08
2.91068e-11
2.59326e-08
2.46177e-08
-4.1374e-11
-2.45819e-08
1.51223e-11
3.16094e-11
2.07846e-08
2.28174e-08
-5.1168e-11
-1.70927e-11
-2.27921e-08
1.69183e-11
2.27916e-08
2.45818e-08
-2.99036e-11
-2.59323e-08
2.14531e-11
-7.42851e-11
-2.60488e-08
2.60481e-08
9.54559e-11
-1.04626e-11
2.39979e-08
2.6988e-08
2.1911e-11
-2.69639e-08
2.32587e-08
-7.50885e-11
-2.32321e-08
2.69647e-08
2.32319e-08
-2.60475e-08
-4.03981e-11
-5.0447e-11
-2.59221e-08
2.89479e-11
2.59406e-08
2.46757e-08
-4.17034e-11
3.13058e-11
1.51456e-11
2.07947e-08
2.28199e-08
-5.08281e-11
-1.72678e-11
2.46397e-08
1.66538e-11
2.27949e-08
-2.9849e-11
2.13538e-11
-7.39504e-11
-2.60517e-08
2.60503e-08
9.53339e-11
-1.00673e-11
2.39976e-08
2.69871e-08
2.18362e-11
2.32609e-08
-7.50563e-11
2.69637e-08
2.32346e-08
-2.11919e-11
-1.56858e-11
-2.6347e-08
-5.44019e-11
2.64312e-08
2.49351e-08
-2.0899e-11
1.34487e-11
6.6401e-12
2.11802e-08
2.33261e-08
-1.66908e-11
-3.91646e-12
2.49186e-08
4.67272e-12
2.3322e-08
5.44877e-11
5.48529e-12
-2.06448e-11
-2.64663e-08
2.64195e-08
2.58715e-11
-4.14817e-12
2.46638e-08
2.75208e-08
5.58043e-12
2.38151e-08
-1.99339e-11
2.75481e-08
2.38087e-08
-1.11171e-12
-1.60093e-13
2.28471e-09
-4.0051e-14
-2.28538e-09
-5.44894e-13
-1.27017e-13
1.22858e-09
-5.04097e-15
-1.22901e-09
-2.24203e-13
-7.80379e-14
6.03011e-10
3.261e-15
-6.0325e-10
-5.92521e-14
-3.8632e-14
2.49007e-10
1.65832e-15
-2.49127e-10
-1.10765e-14
5.89856e-11
2.43512e-15
-5.90297e-11
-1.23715e-12
2.36059e-13
4.27331e-09
-2.76094e-13
-5.57286e-13
1.7353e-13
2.29354e-09
-1.65876e-13
-2.04827e-13
9.99945e-14
1.1262e-09
-8.85054e-14
-4.76138e-14
4.54512e-14
4.65887e-10
-3.93577e-14
1.43451e-14
1.10757e-10
-9.50981e-15
-6.12985e-13
6.97784e-14
2.28747e-09
-2.28641e-13
-2.28779e-09
-2.93406e-13
8.37232e-15
1.23009e-09
-1.11819e-13
-1.2303e-09
-1.22182e-13
-2.47101e-15
6.0375e-10
-5.12674e-14
-6.03858e-10
-3.81933e-14
-2.36616e-15
2.49293e-10
-2.11073e-14
-2.49342e-10
-2.80835e-15
5.90485e-11
-4.66784e-15
-5.90704e-11
-4.48084e-13
-3.0945e-14
4.27701e-09
3.39218e-14
-4.27744e-09
-1.76145e-13
1.5558e-14
2.29553e-09
9.44871e-15
-2.29583e-09
-5.10918e-14
1.37927e-14
1.12721e-09
3.33478e-15
-1.12737e-09
-9.27522e-15
6.40933e-15
4.66343e-10
1.45012e-15
-4.66414e-10
3.51886e-15
1.10876e-10
9.0769e-16
-1.10906e-10
-1.21122e-12
4.27215e-09
-2.84697e-13
-4.27305e-09
-5.61443e-13
2.29293e-09
-1.69632e-13
-2.29353e-09
-2.16895e-13
1.12585e-09
-9.26892e-14
-1.12619e-09
-5.37903e-14
4.65755e-10
-4.24729e-14
-4.65924e-10
1.10772e-10
-9.96961e-15
-1.10832e-10
-3.6104e-13
4.27539e-09
1.26313e-13
-4.27583e-09
-1.3559e-13
2.29464e-09
7.2173e-14
-2.29494e-09
-4.01349e-14
1.12676e-09
3.67439e-14
-1.12691e-09
-6.10072e-15
4.66105e-10
1.47011e-14
-4.66178e-10
1.10816e-10
5.69032e-15
-1.10844e-10
-1.11885e-12
2.28615e-09
9.51161e-14
-5.38809e-13
1.22938e-09
9.02792e-14
-2.18099e-13
6.03428e-10
6.17058e-14
-6.12258e-14
2.49154e-10
3.17913e-14
5.90099e-11
8.30278e-15
-4.33181e-13
-8.31798e-14
1.56227e-13
4.27731e-09
-1.5993e-13
-2.19853e-14
9.77828e-14
2.29582e-09
-3.89378e-14
-9.33961e-15
5.57756e-14
1.12737e-09
-2.48978e-15
-5.24204e-15
2.6525e-14
4.66378e-10
1.51842e-15
7.84877e-15
1.10906e-10
-5.29215e-13
2.28797e-09
-1.15092e-13
-2.28831e-09
-2.42449e-13
1.23044e-09
-3.93218e-14
-1.23065e-09
-9.91017e-14
6.03897e-10
-6.23414e-15
-6.04002e-10
-3.7915e-14
2.49385e-10
5.32539e-15
-2.49427e-10
5.90571e-11
-2.74557e-15
-5.90796e-11
-7.11559e-13
2.2887e-09
-2.35904e-13
-3.58736e-13
1.23082e-09
-1.14575e-13
-1.54393e-13
6.04122e-10
-5.05701e-14
-4.80677e-14
2.49471e-10
-1.8632e-14
5.90911e-11
-5.41695e-15
-6.85901e-13
-1.62884e-14
2.28751e-09
-1.31565e-13
-3.41477e-13
-4.06771e-14
1.23011e-09
-4.71758e-14
-1.48511e-13
-2.78746e-14
6.03747e-10
-1.32406e-14
-4.97865e-14
-1.38738e-14
2.49327e-10
-1.5736e-15
-4.37352e-15
5.90634e-11
-1.45674e-15
-1.10305e-12
2.79786e-13
-3.01057e-13
4.27436e-09
-4.84841e-13
1.92647e-13
-1.72486e-13
2.29406e-09
-1.683e-13
1.09136e-13
-9.4099e-14
1.12652e-09
-3.47879e-14
4.94403e-14
-4.37121e-14
4.66015e-10
1.58912e-14
-1.01598e-14
1.10809e-10
-1.16134e-12
2.28559e-09
1.00663e-13
-5.73669e-13
1.22915e-09
8.77706e-14
-2.36933e-13
6.03302e-10
5.75399e-14
-6.47495e-14
2.49113e-10
2.7977e-14
5.90029e-11
8.33984e-15
-1.15949e-12
-2.30497e-13
2.28563e-09
8.82359e-14
-5.85327e-13
-1.63766e-13
1.22918e-09
8.2289e-14
-2.5103e-13
-9.57276e-14
6.03299e-10
5.71595e-14
-7.3043e-14
-4.59347e-14
2.49132e-10
3.07276e-14
-1.25654e-14
5.90007e-11
7.13812e-15
-3.92298e-13
1.91695e-14
4.27526e-09
-1.38459e-13
-1.17802e-15
2.29461e-09
-3.35921e-14
-7.34468e-15
1.12678e-09
-1.07274e-14
-7.96537e-15
4.66164e-10
2.28056e-15
1.10835e-10
-1.12548e-12
-2.54474e-13
4.27237e-09
-5.31245e-13
-1.52467e-13
2.29318e-09
-2.07277e-13
-8.65801e-14
1.12601e-09
-5.2641e-14
-4.30993e-14
4.65825e-10
-7.23764e-15
1.10739e-10
1.86734e-12
1.43565e-13
9.85905e-14
-4.27101e-09
4.2723e-09
8.92631e-13
1.19424e-13
4.34595e-14
-2.29031e-09
2.29112e-09
3.53017e-13
7.6408e-14
2.02515e-14
-1.12387e-09
1.12431e-09
9.02369e-14
3.79953e-14
8.90686e-15
-4.64728e-10
4.64948e-10
1.0135e-14
2.3119e-15
-1.10452e-10
1.10534e-10
1.02222e-12
2.68719e-13
2.28549e-09
4.8638e-13
1.94534e-13
1.22904e-09
1.95456e-13
1.13954e-13
6.0326e-10
5.29647e-14
5.39502e-14
2.49128e-10
1.5505e-14
5.90311e-11
8.65799e-13
-1.5759e-13
2.44e-13
4.27404e-09
3.95923e-13
-1.27674e-13
1.56772e-13
2.294e-09
1.53793e-13
-7.83533e-14
9.85856e-14
1.12645e-09
3.96337e-14
-3.73719e-14
5.2238e-14
4.66012e-10
-1.26733e-14
1.1714e-14
1.10809e-10
-1.80056e-13
-1.96058e-13
-2.61781e-09
2.58012e-13
2.61762e-09
-8.48173e-14
-1.15352e-13
-1.40721e-09
1.47919e-13
1.40708e-09
-3.3846e-14
-6.14803e-14
-6.90975e-10
7.83604e-14
6.90903e-10
-1.10633e-14
-2.77397e-14
-2.85561e-10
3.49936e-14
2.85527e-10
-6.86337e-15
-6.77597e-11
9.39126e-15
6.77436e-11
-1.35663e-13
-1.05822e-13
-2.85789e-09
2.8577e-09
-6.14961e-14
-6.29532e-14
-1.53558e-09
1.53545e-09
-2.66095e-14
-3.50977e-14
-7.54273e-10
7.54213e-10
-1.42453e-14
-1.71068e-14
-3.11957e-10
3.11935e-10
-3.45066e-15
-7.41307e-11
7.41155e-11
6.5485e-13
-2.44098e-13
-4.27689e-09
2.15815e-13
4.27754e-09
2.77353e-13
-1.29112e-13
-2.29359e-09
1.23806e-13
2.29396e-09
9.93261e-14
-6.61606e-14
-1.12555e-09
6.52388e-14
1.12573e-09
3.63859e-14
-2.98994e-14
-4.65407e-10
2.68949e-14
4.65477e-10
-7.01633e-15
-1.1062e-10
1.03916e-14
1.10657e-10
5.8107e-13
2.28791e-09
-1.69047e-13
2.67638e-13
1.23034e-09
-7.64239e-14
1.0499e-13
6.03878e-10
-3.86983e-14
3.18479e-14
2.49347e-10
-1.75809e-14
5.90739e-11
-2.56896e-15
-4.70554e-13
8.88196e-14
-2.08743e-13
2.28762e-09
-2.15927e-13
1.78497e-14
-9.73457e-14
1.23017e-09
-8.47776e-14
-1.31544e-16
-4.19721e-14
6.03787e-10
-2.72341e-14
-4.07302e-15
-1.51224e-14
2.49307e-10
-1.05137e-15
-5.12619e-15
5.90513e-11
2.75417e-13
4.27744e-09
2.13022e-13
-2.66942e-13
9.6663e-14
2.29578e-09
9.55966e-14
-1.65989e-13
3.35345e-14
1.12734e-09
4.42198e-14
-9.27675e-14
1.60122e-14
4.66393e-10
1.781e-14
-4.24591e-14
1.10902e-10
2.86132e-15
-1.20537e-14
-4.49862e-13
-4.15319e-15
4.27715e-09
-2.90211e-14
-2.2454e-13
3.11126e-14
2.29555e-09
-3.75704e-14
-9.44636e-14
2.51649e-14
1.1272e-09
-2.59284e-14
-3.02391e-14
1.42404e-14
4.66328e-10
-1.36754e-14
4.07476e-15
1.10872e-10
-1.64131e-15
-4.98359e-13
2.27147e-09
-1.23782e-15
-2.33932e-13
1.22119e-09
1.3508e-14
-9.69605e-14
5.99389e-10
1.1313e-14
-3.66479e-14
2.47501e-10
6.83371e-15
5.8631e-11
1.3339e-15
4.47971e-13
-1.03558e-13
1.97744e-13
2.27183e-09
2.19281e-13
-8.23299e-14
1.18676e-13
1.22136e-09
9.99504e-14
-5.092e-14
6.55431e-14
5.99469e-10
3.68426e-14
-2.54153e-14
3.0551e-14
2.47533e-10
-5.34129e-15
7.76672e-15
5.86512e-11
-7.57498e-13
2.27021e-09
-3.76833e-13
-3.70051e-13
1.22053e-09
-2.07603e-13
-1.5023e-13
5.99046e-10
-1.12905e-13
-4.29462e-14
2.47357e-10
-5.3972e-14
5.85973e-11
-1.17454e-14
7.32183e-13
4.45501e-13
-2.99714e-13
2.27078e-09
3.49441e-13
2.5377e-13
-1.89759e-13
1.22085e-09
1.45132e-13
1.36448e-13
-1.04162e-13
5.99213e-10
4.33753e-14
6.06719e-14
-4.55844e-14
2.47437e-10
1.77626e-14
-1.32315e-14
5.86306e-11
-4.80891e-13
2.08924e-13
4.07793e-09
-2.01174e-13
1.21187e-13
2.18901e-09
-7.25904e-14
6.66419e-14
1.07453e-09
-3.30692e-14
3.19322e-14
4.44316e-10
6.83886e-15
1.05553e-10
-7.36001e-13
4.07794e-09
-3.54299e-13
2.18888e-09
-1.4436e-13
1.07453e-09
-4.72573e-14
4.44284e-10
1.05544e-10
2.99056e-13
-2.78192e-13
4.07843e-09
1.1985e-13
-1.67945e-13
2.18929e-09
4.67999e-14
-9.19486e-14
1.07466e-09
2.06365e-14
-4.10762e-14
4.44376e-10
-1.17731e-14
1.05585e-10
5.61632e-13
4.07859e-09
2.56469e-13
2.18927e-09
1.04355e-13
1.07472e-09
3.46396e-14
4.44371e-10
1.05584e-10
9.82864e-13
2.09619e-13
4.27313e-09
4.50646e-13
1.22585e-13
2.29353e-09
1.78652e-13
6.29476e-14
1.12617e-09
5.1493e-14
2.64553e-14
4.6591e-10
6.95361e-15
1.10831e-10
4.91087e-13
4.27587e-09
-1.53448e-13
1.98256e-13
2.29496e-09
-9.61567e-14
6.57183e-14
1.12692e-09
-5.6829e-14
2.00269e-14
4.66177e-10
-2.81875e-14
1.10849e-10
-7.8422e-15
-2.4955e-13
4.27558e-09
1.37015e-13
-9.98713e-14
2.29475e-09
7.61431e-14
-3.90848e-14
1.12682e-09
3.97955e-14
-2.27739e-14
4.66137e-10
1.71132e-14
1.10819e-10
6.01524e-15
9.63909e-13
-9.17964e-15
2.28682e-09
4.61503e-13
-3.08362e-14
1.22977e-09
1.87706e-13
-2.5941e-14
6.0363e-10
5.45221e-14
-1.38749e-14
2.49249e-10
-5.00592e-15
5.90515e-11
-6.49651e-13
2.2725e-09
1.28372e-13
-3.34911e-13
1.22161e-09
9.49598e-14
-1.43801e-13
5.9955e-10
5.60391e-14
-4.13115e-14
2.47582e-10
2.63442e-14
5.86499e-11
6.50263e-15
8.38472e-13
2.28097e-14
1.6366e-13
2.27311e-09
4.00756e-13
-1.46665e-14
9.56071e-14
1.22196e-09
1.62202e-13
-1.17495e-14
5.65334e-14
5.99728e-10
4.7488e-14
-5.99048e-15
2.73839e-14
2.47661e-10
-1.00541e-15
9.61985e-15
5.86819e-11
-7.81764e-13
4.07951e-09
3.34936e-13
-3.86778e-13
2.18944e-09
1.98736e-13
-1.5922e-13
1.07483e-09
1.02566e-13
-4.57321e-14
4.44393e-10
4.25246e-14
1.05573e-10
1.2389e-14
7.09653e-13
-7.8361e-14
4.08008e-09
3.33675e-13
-4.22469e-14
2.18986e-09
1.3136e-13
-1.77452e-14
1.07505e-09
4.25864e-14
-5.98617e-15
4.44498e-10
-3.01726e-16
1.05618e-10
2.63839e-13
1.13445e-13
4.27775e-09
7.86257e-14
4.79281e-14
2.29608e-09
1.5154e-14
2.44398e-14
1.1275e-09
4.07689e-15
1.16115e-14
4.66439e-10
1.01522e-15
1.10933e-10
-8.41666e-14
-7.41068e-14
-2.61826e-09
2.05965e-13
2.61807e-09
-3.96638e-14
-5.01491e-14
-1.40738e-09
1.21755e-13
1.40726e-09
-1.69064e-14
-3.29237e-14
-6.90998e-10
6.75702e-14
6.90937e-10
-6.80951e-15
-1.88638e-14
-2.85581e-10
3.10586e-14
2.85555e-10
-3.20726e-15
-6.77655e-11
9.22877e-15
6.77507e-11
5.76504e-15
-2.85811e-09
2.8579e-09
1.87914e-14
-1.53567e-09
1.53554e-09
6.7752e-15
-7.543e-10
7.54241e-10
-1.10955e-14
-3.11962e-10
3.11943e-10
-7.41328e-11
7.41176e-11
6.34053e-13
-2.90255e-13
3.29745e-13
-4.27687e-09
4.27741e-09
2.78038e-13
-1.47761e-13
1.8779e-13
-2.29363e-09
2.29395e-09
1.03002e-13
-7.23826e-14
1.00332e-13
-1.12548e-09
1.12563e-09
3.29763e-14
-3.20178e-14
4.5848e-14
-4.65421e-10
4.65483e-10
-6.38705e-15
1.18067e-14
-1.10603e-10
1.10636e-10
5.10937e-13
2.28836e-09
2.28733e-13
1.23065e-09
8.7276e-14
6.04e-10
2.4387e-14
2.49427e-10
5.90785e-11
-6.0362e-13
-1.82529e-13
2.28809e-09
-2.95717e-13
-9.01241e-14
1.23047e-09
-1.20394e-13
-4.41954e-14
6.03894e-10
-3.33933e-14
-2.00022e-14
2.49375e-10
-4.51477e-15
5.90556e-11
4.8988e-13
1.92355e-13
2.28906e-09
2.25374e-13
8.67582e-14
1.23102e-09
9.44038e-14
3.4383e-14
6.04212e-10
3.54367e-14
9.79294e-15
2.49504e-10
4.50399e-15
5.91129e-11
3.89527e-13
-3.09946e-13
2.58968e-13
-4.27589e-09
4.27641e-09
1.41866e-13
-1.63365e-13
1.53663e-13
-2.29303e-09
2.29331e-09
3.73924e-14
-8.05908e-14
8.53855e-14
-1.12523e-09
1.12536e-09
1.19204e-14
-3.43471e-14
3.99904e-14
-4.65298e-10
4.65349e-10
-8.43228e-15
1.07489e-14
-1.10597e-10
1.10629e-10
4.90583e-13
-2.26586e-13
2.28785e-09
2.27883e-13
-1.11161e-13
1.2303e-09
9.47799e-14
-5.82725e-14
6.0383e-10
3.3567e-14
-2.78906e-14
2.49357e-10
-3.56635e-15
5.9084e-11
-7.40777e-13
2.27231e-09
-4.05814e-13
-3.6487e-13
1.22148e-09
-2.0632e-13
-1.5564e-13
5.99484e-10
-1.01778e-13
-4.82706e-14
2.47536e-10
-4.30877e-14
5.86561e-11
-1.22543e-14
9.03302e-13
-1.20912e-13
3.27657e-13
2.27282e-09
4.56419e-13
-7.20345e-14
1.86904e-13
1.22179e-09
1.95664e-13
-3.94801e-14
1.02e-13
5.99655e-10
6.12187e-14
-1.89317e-14
4.63071e-14
2.47615e-10
-3.00839e-15
1.27756e-14
5.86926e-11
-5.03024e-13
-2.21712e-13
4.08063e-09
-2.13387e-13
-1.06102e-13
2.1901e-09
-8.17538e-14
-4.76777e-14
1.07504e-09
-3.08293e-14
-1.87241e-14
4.44463e-10
-4.05168e-15
1.0561e-10
9.69736e-13
-1.07798e-13
4.27529e-09
4.27618e-13