/*--------------------------------*- C++ -*----------------------------------*\
| =========                 |                                                 |
| \\      /  F ield         | OpenFOAM: The Open Source CFD Toolbox           |
|  \\    /   O peration     | Version:  2206                                  |
|   \\  /    A nd           | Website:  www.openfoam.com                      |
|    \\/     M anipulation  |                                                 |
\*---------------------------------------------------------------------------*/
FoamFile
{
    version     2.0;
    format      ascii;
    arch        "LSB;label=32;scalar=64";
    class       volVectorField;
    location    "100";
    object      wallShearStress;
}
// * * * * * * * * * * * * * * * * * * * * * * * * * * * * * * * * * * * * * //

dimensions      [0 2 -2 0 0 0 0];

internalField   uniform (0 0 0);

boundaryField
{
    topPatch
    {
        type            calculated;
        value           nonuniform List<vector> 0();
    }
    wall
    {
        type            calculated;
        value           nonuniform List<vector> 
7803
(
(-1.29613e-08 -2.03199e-09 -0.000105352)
(1.74648e-08 5.17713e-09 -0.000112133)
(-3.27245e-09 -2.89785e-09 -0.000105522)
(1.16906e-09 5.09495e-09 -0.000112292)
(-1.6187e-08 4.44762e-09 -0.000112106)
(6.80004e-10 -1.50418e-09 -0.000112238)
(1.91434e-08 1.42708e-09 -0.000105395)
(6.36591e-10 1.09891e-09 -0.0001123)
(-2.64694e-09 3.56065e-09 -0.000105575)
(4.40937e-09 -2.05541e-09 -0.000105584)
(3.5384e-09 6.77868e-09 -0.000105553)
(-1.97278e-08 -8.00549e-09 -0.000112167)
(-2.03896e-08 -4.43826e-10 -0.000105401)
(1.76817e-08 1.32066e-09 -0.000105379)
(-1.27255e-09 3.31117e-09 -0.00011226)
(1.51108e-08 -3.66806e-09 -0.000112117)
(3.36128e-09 4.03061e-09 -0.000112057)
(2.17357e-08 -2.75422e-09 -0.000105417)
(-1.81928e-08 -6.44373e-09 -0.000112134)
(-2.68541e-09 1.14236e-08 -0.000107124)
(-5.06956e-10 7.71421e-09 -0.000108554)
(5.32323e-09 -1.64736e-08 -0.00011204)
(4.23022e-09 -2.7799e-09 -0.000105425)
(-2.53143e-09 3.28547e-10 -0.000105533)
(6.22093e-09 9.5848e-09 -0.000112165)
(1.73626e-09 7.33888e-09 -0.000112289)
(5.48435e-09 -1.93134e-09 -0.000105984)
(-8.54357e-09 6.68186e-09 -0.000105888)
(1.12928e-08 -3.17168e-09 -0.000105892)
(-1.93294e-08 8.23087e-09 -0.000105876)
(1.8041e-10 9.16013e-10 -0.000111126)
(1.71894e-08 -1.12642e-08 -0.0001111)
(-4.54055e-09 4.05657e-09 -0.000111014)
(-2.21974e-08 1.61251e-08 -0.000111027)
(1.66188e-08 -4.98994e-09 -0.000112114)
(5.68849e-09 -6.73557e-09 -0.000112118)
(-1.12788e-09 5.64725e-11 -0.000112246)
(-1.5447e-08 -1.23932e-09 -0.00010545)
(1.0356e-08 7.81864e-09 -0.000106004)
(-1.0006e-08 -5.97676e-09 -0.000105926)
(6.9652e-09 4.51449e-09 -0.000111139)
(4.1023e-09 7.91412e-09 -0.000111044)
(-4.54299e-09 -7.38261e-09 -0.000112166)
(-2.3267e-09 -9.68003e-09 -0.000107179)
(6.93502e-10 1.14358e-09 -0.000108579)
(5.69482e-09 1.60256e-08 -0.000112093)
(3.16193e-09 2.26096e-09 -0.000105469)
(-2.48742e-09 2.20363e-09 -0.000105576)
(-3.27186e-09 2.71215e-10 -0.000105477)
(-4.51335e-09 1.82843e-08 -0.00011206)
(-5.26585e-09 5.12798e-09 -0.000105442)
(-1.37526e-08 -4.28373e-09 -0.000105951)
(8.57853e-09 -8.04867e-10 -0.000105968)
(-1.41163e-08 -1.0648e-08 -0.000111143)
(6.79305e-09 9.10494e-10 -0.000112169)
(-5.06622e-09 -5.54742e-09 -0.000112078)
(1.26412e-08 -3.8831e-10 -0.000105459)
(3.8288e-09 -5.92894e-09 -0.000112072)
(-1.95372e-08 1.6078e-09 -0.000105436)
(-3.30982e-09 5.8464e-09 -0.000112122)
(-1.9762e-08 6.99826e-09 -0.000112118)
(4.11149e-09 5.67766e-09 -0.000112091)
(-4.06273e-09 -1.37899e-08 -0.000112111)
(-4.23315e-09 5.90586e-09 -0.000106981)
(1.99893e-09 -3.19947e-09 -0.000108322)
(1.83395e-09 3.34298e-09 -0.000108374)
(4.94515e-09 -5.44836e-09 -0.000106914)
(5.84622e-09 -6.60647e-09 -0.000111964)
(1.30679e-08 5.16508e-09 -0.000105919)
(-1.39898e-08 -7.78991e-09 -0.000105884)
(2.20981e-08 1.4973e-08 -0.000111102)
(-9.59226e-09 -7.10278e-09 -0.000111015)
(-6.84798e-09 1.66637e-08 -0.000112161)
(2.95798e-09 -1.15408e-08 -0.000106957)
(-1.04626e-09 7.75179e-09 -0.000108553)
(-3.5457e-12 7.88314e-10 -0.000108364)
(-2.43648e-09 1.53759e-08 -0.000107125)
(-4.8352e-09 1.34479e-08 -0.000112169)
(-3.01914e-09 -1.00186e-09 -0.000106015)
(1.01468e-08 1.24652e-08 -0.0001059)
(7.55091e-10 4.4396e-09 -0.000111164)
(1.55422e-08 1.51682e-08 -0.000111048)
(-1.46038e-08 6.60833e-09 -0.000105908)
(9.68296e-09 -2.24489e-09 -0.000105901)
(-2.30045e-08 1.60375e-08 -0.000111071)
(1.2364e-08 -6.31121e-09 -0.000111013)
(-8.27487e-09 7.2984e-09 -0.000105951)
(8.19403e-09 -4.2233e-09 -0.000105868)
(-6.75207e-09 6.89207e-09 -0.000111112)
(-1.43017e-09 5.69283e-09 -0.000111016)
(5.47266e-09 4.48593e-09 -0.000106996)
(-2.05145e-09 -5.65216e-09 -0.000108334)
(1.65584e-09 4.54812e-09 -0.000108388)
(-4.78467e-09 -5.81231e-09 -0.000106941)
(2.96502e-09 -5.72918e-09 -0.000112008)
(2.73113e-09 1.37466e-08 -0.00010701)
(2.48114e-10 6.44733e-10 -0.000108579)
(1.28227e-09 5.49666e-09 -0.000108389)
(-2.78496e-09 -9.71592e-09 -0.00010718)
(-5.5239e-09 -1.29869e-08 -0.000112219)
(-5.96451e-09 -1.46792e-08 -0.000112219)
(7.11577e-09 1.85635e-08 -0.000112248)
(-3.34055e-09 -1.46697e-08 -0.000107044)
(-5.50029e-10 3.79221e-09 -0.000108636)
(-1.17434e-10 -4.69143e-09 -0.000108438)
(2.78943e-09 1.21855e-08 -0.000107224)
(-1.73433e-09 1.06334e-08 -0.000107009)
(1.13582e-12 -4.27117e-09 -0.000108629)
(4.03445e-10 2.64183e-09 -0.000108426)
(4.20244e-09 -1.63398e-08 -0.000107192)
(6.4184e-09 -1.24576e-08 -0.0001122)
(2.86054e-08 2.14103e-08 -0.0001111)
(-3.08835e-09 3.91412e-09 -0.000111995)
(-7.70971e-09 -5.50014e-09 -0.00010698)
(4.88681e-09 6.53429e-09 -0.000108318)
(4.31961e-09 -4.83038e-09 -0.000108376)
(3.10892e-10 5.9883e-09 -0.000106921)
(1.88761e-09 4.89812e-09 -0.000111991)
(7.8885e-09 -7.07429e-09 -0.000106994)
(3.25163e-09 4.04403e-09 -0.000108335)
(4.80354e-09 -4.17789e-09 -0.000108387)
(-1.99277e-09 5.57702e-09 -0.000106929)
(4.72699e-09 3.45019e-09 -0.000105479)
(2.26339e-09 6.57434e-09 -0.000112174)
(-3.26721e-09 -5.92432e-09 -0.00011225)
(-7.43777e-10 6.7418e-09 -0.000105609)
(-6.22888e-11 7.65424e-10 -0.000112333)
(-4.07419e-09 1.67175e-08 -0.000107151)
(4.93013e-10 -2.18791e-09 -0.00010837)
(-8.5987e-10 5.27652e-09 -0.000108584)
(1.72175e-09 -9.70789e-09 -0.000106959)
(-4.0298e-09 -5.78328e-09 -0.000107202)
(-1.72e-09 4.8196e-09 -0.000108387)
(-1.67009e-09 -4.43961e-09 -0.000108606)
(2.32413e-09 1.6372e-08 -0.000107013)
(6.07754e-09 1.94535e-08 -0.000112097)
(7.9661e-09 1.03951e-08 -0.000105909)
(-6.38261e-09 -4.24782e-09 -0.000106047)
(1.07454e-08 1.24585e-08 -0.000111061)
(-7.21929e-09 -4.0463e-09 -0.0001112)
(1.34243e-08 -6.16268e-09 -0.00011212)
(1.38929e-09 -6.25732e-09 -0.000112118)
(2.08661e-08 -4.68556e-09 -0.00010542)
(3.55377e-09 -1.65888e-09 -0.000105427)
(-1.43052e-08 2.93629e-09 -0.000112137)
(-2.22117e-09 4.40199e-09 -0.00011227)
(8.522e-09 -7.16562e-09 -0.000111996)
(-1.20691e-08 -1.7929e-09 -0.000105383)
(-3.97281e-09 7.9145e-10 -0.000105554)
(1.11068e-08 -6.42299e-09 -0.000111014)
(-2.94798e-09 2.51946e-09 -0.000111015)
(-6.43569e-09 1.53239e-08 -0.000112191)
(4.30627e-09 -1.2849e-08 -0.000112043)
(7.63965e-09 -2.85062e-09 -0.0001059)
(-1.36545e-08 4.07208e-09 -0.000105931)
(6.00532e-09 -4.94313e-09 -0.000105867)
(-1.20502e-08 9.87317e-09 -0.000105978)
(-8.40181e-09 6.97283e-09 -0.000111135)
(-2.40846e-08 1.57566e-08 -0.00011109)
(8.51844e-09 -6.95292e-09 -0.000106939)
(1.91776e-09 1.82435e-09 -0.000108386)
(6.03411e-09 -3.6486e-09 -0.00010835)
(-1.22041e-09 4.57567e-09 -0.00010699)
(8.19249e-09 1.65009e-09 -0.000112063)
(-7.22848e-09 -8.85229e-09 -0.000105319)
(1.01115e-08 -1.79343e-09 -0.000112092)
(-3.15917e-08 -1.11223e-08 -0.000112241)
(-4.11614e-09 -1.67843e-08 -0.000105401)
(-4.86022e-10 1.0755e-08 -0.000112207)
(3.10329e-09 3.22504e-09 -0.000112214)
(-3.42448e-09 -2.55991e-09 -0.000112253)
(1.79672e-08 -4.58178e-09 -0.000112075)
(-2.88082e-09 -3.68122e-09 -0.000112199)
(-1.5787e-09 -7.8149e-09 -0.000112263)
(5.89437e-09 -6.68434e-10 -0.000112182)
(-3.29817e-09 -4.12153e-09 -0.00011221)
(1.36922e-08 -1.79182e-09 -0.000112058)
(-1.05503e-08 -8.9348e-10 -0.000112084)
(2.98432e-09 -1.57116e-08 -0.000112117)
(3.98868e-09 -8.47229e-09 -0.00010533)
(-2.40685e-08 8.80651e-10 -0.00010559)
(2.62113e-09 -3.80951e-09 -0.000112231)
(-5.82187e-09 8.72875e-09 -0.000105501)
(7.5532e-09 -5.55094e-09 -0.000105503)
(7.39545e-09 1.90519e-09 -0.00010546)
(-1.00133e-08 4.4842e-10 -0.000112088)
(-1.19752e-08 5.15734e-09 -0.000105334)
(1.46777e-08 4.79862e-09 -0.000105322)
(8.38103e-09 -4.41998e-09 -0.000112172)
(1.71961e-08 -2.30405e-09 -0.00011205)
(6.47793e-09 -1.37938e-09 -0.00010595)
(-8.22623e-09 4.28793e-09 -0.000105997)
(1.03423e-08 -1.21e-09 -0.000105847)
(-5.87216e-09 -3.29995e-09 -0.00010595)
(6.82496e-10 5.58134e-09 -0.000111075)
(1.36808e-08 -6.62745e-09 -0.000111049)
(-6.09093e-09 -6.20815e-10 -0.000106012)
(6.26983e-09 -1.17086e-09 -0.000105943)
(-3.74449e-09 -5.86782e-09 -0.000105961)
(1.28944e-08 -1.97655e-09 -0.000105842)
(1.84778e-08 -6.6873e-09 -0.000106974)
(1.47334e-09 6.84683e-09 -0.00010854)
(7.36524e-09 -4.386e-09 -0.000108384)
(8.79054e-10 7.12235e-09 -0.000107129)
(2.51623e-08 1.91503e-09 -0.000112147)
(4.01541e-08 -5.20743e-09 -0.000105516)
(2.23507e-08 -9.05479e-09 -0.000112027)
(6.10806e-09 -8.49528e-09 -0.000105388)
(-3.56492e-08 -1.50911e-08 -0.000112198)
(-1.80829e-08 -1.24672e-08 -0.000112114)
(1.06796e-08 -1.95794e-08 -0.000112135)
(9.21741e-09 -1.91124e-09 -0.000105507)
(6.34297e-09 8.14327e-10 -0.00011227)
(1.54037e-08 -1.00327e-08 -0.000105917)
(-4.82427e-09 -5.84414e-09 -0.000106016)
(1.48377e-08 -2.97835e-10 -0.000105814)
(-3.08314e-09 -8.76582e-09 -0.000105968)
(-4.39015e-09 1.48779e-09 -0.000112238)
(2.54749e-09 2.67988e-09 -0.000112196)
(-3.51949e-09 -4.60379e-09 -0.000112192)
(1.71112e-08 -2.95863e-09 -0.000112069)
(-3.21551e-09 -5.32753e-09 -0.000106025)
(1.2639e-08 -8.10949e-09 -0.000105921)
(-1.03245e-09 -7.41678e-09 -0.000105969)
(1.13451e-08 1.53492e-09 -0.00010582)
(2.53328e-09 -1.25182e-08 -0.000111151)
(-5.67943e-09 -2.75382e-09 -0.000111138)
(1.0674e-08 -5.62565e-09 -0.000105927)
(-3.2543e-09 -4.95236e-09 -0.000106019)
(9.89225e-09 1.40904e-09 -0.000105827)
(-4.12859e-09 -4.79842e-09 -0.000105966)
(7.92459e-09 -2.88967e-09 -0.000112176)
(-2.64069e-09 -6.45464e-09 -0.000112263)
(1.27061e-08 -6.99626e-10 -0.000112056)
(-6.52306e-09 -3.11511e-09 -0.000112207)
(3.03577e-08 -1.17296e-08 -0.000112205)
(1.20113e-08 -9.92568e-09 -0.000112127)
(6.98565e-09 -1.87068e-09 -0.00011219)
(-1.29847e-08 -7.40385e-09 -0.000106985)
(2.351e-09 5.43512e-09 -0.000108539)
(-1.57461e-09 -2.70878e-09 -0.000108391)
(3.23531e-09 8.05516e-09 -0.000107144)
(-4.36548e-08 -7.07917e-09 -0.000105515)
(-5.59823e-09 -7.42615e-09 -0.000105389)
(6.78111e-09 -3.40258e-09 -0.000105951)
(-8.04845e-09 4.85724e-09 -0.00010606)
(5.8111e-09 -4.43374e-09 -0.000106004)
(-1.03995e-09 -8.69988e-09 -0.000111098)
(4.93368e-09 1.35625e-08 -0.000111154)
(-3.39338e-09 3.21345e-09 -0.0001123)
(1.36357e-09 -8.10736e-09 -0.000112275)
(5.83842e-09 -3.60875e-09 -0.000105595)
(1.01825e-08 1.10946e-08 -0.000107137)
(4.86961e-09 6.73365e-09 -0.000108559)
(-5.95536e-09 9.57706e-09 -0.0001056)
(7.86045e-09 -4.19947e-09 -0.000105533)
(6.93238e-09 -6.87089e-09 -0.000107116)
(5.00714e-09 5.52827e-10 -0.000108543)
(-9.74308e-09 9.85896e-09 -0.000112186)
(-5.65694e-09 -7.95342e-09 -0.000105557)
(9.42612e-09 -8.76637e-10 -0.0001055)
(-7.77885e-09 3.48978e-09 -0.000105866)
(8.40374e-09 -5.27406e-09 -0.000106038)
(8.24339e-09 -3.58933e-09 -0.000112239)
(1.03949e-08 -6.55842e-09 -0.000105527)
(1.35767e-08 -1.10367e-08 -0.000112137)
(-6.1562e-09 -6.83918e-09 -0.000105511)
(-3.0053e-09 -7.27691e-09 -0.000112247)
(1.05617e-08 -6.14648e-09 -0.000112216)
(-2.47076e-09 -6.22493e-09 -0.000112201)
(2.26514e-08 -3.7292e-09 -0.000105414)
(-1.45565e-08 -4.01343e-09 -0.000112123)
(2.67607e-09 1.03223e-09 -0.000105424)
(6.58692e-09 9.46939e-09 -0.000112162)
(-1.77154e-08 3.63457e-10 -0.000105359)
(1.92138e-08 -1.99082e-09 -0.000105429)
(1.44623e-08 3.39954e-09 -0.000112132)
(-1.44447e-08 -3.54049e-09 -0.000112146)
(-1.29388e-09 -3.00255e-09 -0.000105537)
(4.24002e-09 -3.55408e-09 -0.000105433)
(-8.04524e-10 1.95165e-09 -0.00011231)
(5.34962e-09 6.18447e-09 -0.000112186)
(-2.29694e-08 3.67109e-09 -0.000105377)
(1.54955e-08 -9.67638e-10 -0.000105439)
(2.47343e-08 9.52343e-09 -0.000112151)
(-9.33253e-09 -6.67212e-10 -0.000112161)
(-4.74259e-09 5.13359e-09 -0.000105557)
(1.01166e-09 3.59479e-09 -0.00010545)
(-1.17123e-09 1.46506e-09 -0.000112327)
(3.67241e-09 2.37737e-09 -0.000112207)
(-1.71346e-08 8.06412e-10 -0.000105393)
(1.82358e-08 -2.12585e-09 -0.000105455)
(1.59674e-08 5.6542e-09 -0.000112179)
(-1.80457e-08 -4.54433e-09 -0.000112183)
(-1.23496e-09 -5.02668e-09 -0.000105564)
(5.23371e-09 -6.1366e-09 -0.000105456)
(-1.15302e-09 6.59232e-10 -0.000112344)
(3.81527e-09 2.57677e-09 -0.000112228)
(-1.84134e-08 1.76361e-09 -0.000105403)
(1.61614e-08 -8.01216e-10 -0.000105462)
(1.45581e-08 3.66735e-09 -0.000112176)
(-9.41321e-09 -7.14046e-10 -0.000112175)
(-7.29043e-10 -5.64745e-09 -0.000105566)
(6.91206e-09 -8.87543e-09 -0.000105462)
(-4.30211e-09 -3.113e-09 -0.00011235)
(3.25098e-09 2.28616e-09 -0.000112216)
(-2.00085e-08 9.2179e-10 -0.000105393)
(2.02026e-08 -3.32924e-09 -0.000105448)
(2.13656e-08 7.72854e-09 -0.000112166)
(-9.90505e-09 -1.30024e-09 -0.000112175)
(-3.34493e-09 3.13599e-11 -0.000105572)
(2.58596e-09 1.17109e-11 -0.000105458)
(2.00569e-10 2.45778e-09 -0.000112347)
(1.96723e-09 2.32927e-09 -0.000112218)
(-1.45987e-08 5.13882e-10 -0.00010538)
(2.50547e-08 -4.36168e-09 -0.000105446)
(1.98147e-08 6.25788e-09 -0.000112166)
(-9.40813e-09 4.9424e-10 -0.000112179)
(-4.81061e-09 4.00658e-09 -0.000105566)
(3.69e-09 -2.01221e-09 -0.000105463)
(-1.47119e-09 1.03255e-09 -0.000112357)
(3.2159e-09 2.62162e-09 -0.000112226)
(-1.78353e-08 1.49524e-09 -0.000105382)
(1.17971e-08 2.70554e-10 -0.000105454)
(1.96857e-08 6.47384e-09 -0.000112171)
(-1.29743e-08 -4.4905e-09 -0.000112173)
(-1.858e-09 -2.50569e-09 -0.000105569)
(6.25882e-09 -7.54607e-09 -0.000105465)
(-5.99763e-10 2.72205e-09 -0.000112347)
(4.07089e-09 2.91569e-09 -0.000112219)
(-1.90581e-08 1.48023e-09 -0.000105389)
(1.72419e-08 -1.79512e-09 -0.00010545)
(1.7414e-08 4.89519e-09 -0.000112158)
(-1.18501e-08 -1.42792e-09 -0.000112169)
(-3.08645e-09 1.7461e-09 -0.000105575)
(1.48618e-09 6.44616e-10 -0.000105467)
(-4.95553e-09 -5.65694e-09 -0.000112343)
(4.14373e-11 -3.68026e-09 -0.000112213)
(-1.42228e-08 6.54345e-10 -0.000105391)
(1.97448e-08 -2.85177e-09 -0.000105448)
(1.27449e-08 3.8047e-09 -0.000112171)
(-1.8962e-08 -7.74287e-09 -0.000112161)
(-2.3896e-09 5.15176e-10 -0.000105571)
(2.91727e-09 1.49274e-09 -0.000105458)
(-2.25835e-09 -1.67514e-09 -0.000112342)
(1.17556e-09 -4.04354e-10 -0.00011221)
(-1.98843e-08 1.57717e-09 -0.000105387)
(1.49541e-08 -8.08289e-10 -0.000105453)
(1.62316e-08 5.71321e-09 -0.000112165)
(-7.13232e-09 -3.72628e-10 -0.000112167)
(-3.1687e-09 2.0708e-09 -0.000105562)
(1.90297e-09 -7.62067e-10 -0.000105443)
(-1.88692e-09 -2.99946e-10 -0.000112344)
(3.52035e-09 3.28593e-09 -0.000112211)
(-1.63278e-08 6.42048e-10 -0.000105399)
(2.01332e-08 -3.25787e-09 -0.000105458)
(1.45026e-08 3.25506e-09 -0.000112165)
(-1.85184e-08 -5.94025e-09 -0.000112169)
(-2.87183e-09 -3.01518e-10 -0.000105545)
(7.07868e-10 4.89976e-09 -0.000105439)
(-4.63928e-09 -4.8245e-09 -0.000112335)
(1.60493e-09 -1.98838e-09 -0.00011221)
(-1.97234e-08 2.93384e-09 -0.000105402)
(2.06492e-08 -2.90236e-09 -0.000105458)
(1.67078e-08 5.66957e-09 -0.000112166)
(-9.7578e-09 -6.16363e-10 -0.000112166)
(-9.18781e-10 -4.03809e-09 -0.000105545)
(2.75008e-09 -1.89564e-09 -0.000105437)
(-6.37118e-10 4.01676e-09 -0.000112324)
(2.8385e-09 3.83676e-09 -0.000112199)
(-1.42245e-08 -3.10626e-10 -0.000105387)
(2.11332e-08 -3.23643e-09 -0.000105464)
(2.26966e-08 7.9497e-09 -0.000112161)
(-1.69724e-08 -5.92961e-09 -0.00011217)
(-1.47124e-09 -1.87391e-09 -0.000105539)
(3.21507e-09 -1.77312e-09 -0.000105441)
(4.53762e-10 4.63653e-09 -0.00011231)
(1.73273e-09 -1.10711e-09 -0.000112195)
(-1.84387e-08 9.11682e-10 -0.000105394)
(1.45374e-08 -6.82632e-10 -0.000105473)
(1.56312e-08 3.66205e-09 -0.000112146)
(-8.09843e-09 1.7549e-10 -0.000112169)
(-4.623e-09 2.71045e-09 -0.000105519)
(1.98881e-09 3.45456e-09 -0.000105451)
(-2.55462e-09 -9.70483e-10 -0.000112296)
(2.61365e-09 2.58361e-09 -0.000112195)
(-1.57561e-08 -1.21617e-09 -0.000105382)
(1.96829e-08 -1.83908e-09 -0.000105493)
(1.41959e-08 2.60147e-09 -0.00011214)
(-2.04014e-08 -7.00137e-09 -0.000112196)
(-9.21767e-10 -7.83361e-09 -0.000105506)
(4.52159e-09 -1.38311e-09 -0.000105474)
(-1.80323e-10 2.5599e-09 -0.000112284)
(1.12258e-09 -9.96411e-10 -0.000112228)
(-1.44348e-08 -1.03086e-09 -0.000105362)
(1.65911e-08 6.22695e-10 -0.000105536)
(2.14738e-08 5.79697e-09 -0.000112111)
(-1.2456e-08 -3.32102e-11 -0.00011223)
(-3.19785e-09 -5.81176e-09 -0.000105456)
(5.014e-09 4.23019e-09 -0.000105511)
(-5.50358e-09 -2.35798e-09 -0.000112243)
(2.9394e-09 -3.88664e-09 -0.000112285)
(2.02546e-08 -7.3834e-09 -0.000112112)
(3.28965e-09 -3.63024e-09 -0.000112116)
(1.63075e-08 -5.1715e-09 -0.000112123)
(-9.99327e-09 1.74337e-09 -0.000112107)
(2.5795e-09 -1.68005e-09 -0.000112125)
(-2.87026e-09 3.29602e-09 -0.00011224)
(-1.52305e-08 1.88085e-10 -0.000105442)
(1.75675e-08 -1.21388e-09 -0.000105421)
(-1.24246e-08 5.81316e-10 -0.000105356)
(-2.06328e-08 -2.40837e-09 -0.000105454)
(1.87407e-08 2.5157e-09 -0.000105391)
(3.84774e-10 2.42329e-10 -0.000112165)
(-1.9093e-08 -6.71229e-09 -0.000112139)
(1.40843e-08 4.74299e-09 -0.00011213)
(-4.52262e-09 -5.75519e-09 -0.000112167)
(2.7947e-09 3.71066e-09 -0.000112281)
(4.36389e-09 4.10601e-09 -0.000105467)
(4.12352e-09 -2.73797e-09 -0.000105429)
(-3.52495e-09 7.25876e-10 -0.000105531)
(3.84341e-09 1.71412e-09 -0.000105487)
(-2.22822e-09 3.33843e-09 -0.000105577)
(-2.09743e-09 1.42262e-09 -0.000105477)
(-4.59607e-09 3.40792e-09 -0.00010544)
(-2.52746e-09 9.40558e-10 -0.000105477)
(6.40651e-10 -3.32998e-09 -0.000105579)
(-3.68036e-09 -1.25155e-09 -0.000105447)
(1.91754e-09 3.85253e-09 -0.000105545)
(6.89711e-09 -3.4341e-10 -0.000112178)
(4.20668e-09 4.82886e-09 -0.000112183)
(-1.07076e-09 9.26536e-10 -0.000112283)
(1.40048e-08 3.54827e-09 -0.00011217)
(-2.81614e-08 -1.1266e-08 -0.000112172)
(1.162e-08 -1.7679e-09 -0.000105469)
(-2.02599e-08 5.8985e-10 -0.000105434)
(1.72461e-08 -1.3974e-10 -0.000105466)
(-2.13277e-08 -1.47669e-09 -0.000105401)
(-1.79656e-08 1.6156e-09 -0.000105439)
(1.66117e-08 -2.96297e-09 -0.000105377)
(-2.53728e-09 3.30707e-09 -0.000112119)
(-2.30172e-08 8.35045e-09 -0.000112115)
(-2.51782e-09 1.42831e-09 -0.000112127)
(1.86853e-09 -1.82268e-09 -0.000112244)
(-1.49389e-08 4.13631e-09 -0.000112121)
(1.10835e-08 -3.39345e-09 -0.000112109)
(-1.69477e-08 5.12301e-09 -0.000112114)
(1.39822e-08 -2.75498e-09 -0.000112135)
(-1.99937e-09 1.84736e-09 -0.000112254)
(5.30479e-09 -7.33336e-09 -0.000112133)
(1.0135e-08 -1.24595e-09 -0.000112138)
(-1.87992e-08 5.17169e-09 -0.000112125)
(3.09518e-09 -2.4221e-09 -0.000112144)
(4.46555e-10 -1.61863e-09 -0.000112258)
(1.2669e-08 -1.21636e-09 -0.000105392)
(-1.68889e-08 -7.8368e-10 -0.000105455)
(1.05913e-08 1.09632e-09 -0.000105435)
(-1.7001e-08 1.24544e-09 -0.00010537)
(-1.4561e-08 -7.31329e-10 -0.000105464)
(1.73356e-08 3.20697e-09 -0.000105397)
(2.75501e-09 2.9715e-09 -0.000112292)
(-2.89375e-09 -3.9093e-09 -0.000112173)
(-9.71857e-09 -2.02648e-09 -0.000112157)
(1.95596e-08 7.9647e-09 -0.000112142)
(-5.44287e-09 -5.55268e-09 -0.000112183)
(2.94054e-09 1.98786e-09 -0.000112294)
(-1.96571e-09 1.27847e-09 -0.000105597)
(4.43264e-09 4.82458e-09 -0.000105489)
(2.77551e-09 3.49954e-09 -0.000105449)
(-1.70788e-09 -2.46805e-09 -0.000105538)
(2.08328e-09 -7.75534e-10 -0.000105506)
(-1.75177e-09 3.35125e-09 -0.000105598)
(3.77324e-09 2.88024e-09 -0.000105586)
(-7.85582e-10 3.83355e-09 -0.000105486)
(2.06239e-09 -2.96731e-10 -0.000105558)
(-6.30765e-10 -3.62171e-09 -0.000105454)
(-5.11529e-09 -4.34199e-09 -0.000105491)
(4.18791e-09 1.65998e-09 -0.00010559)
(-1.4455e-09 -1.38346e-09 -0.000105456)
(4.0104e-09 -5.86086e-09 -0.000105566)
(-1.56059e-08 -5.09076e-09 -0.000112166)
(1.12338e-08 1.34008e-09 -0.000112181)
(4.37643e-09 4.78881e-09 -0.000112203)
(-3.98557e-09 -4.25623e-09 -0.000112304)
(1.44544e-08 3.26528e-09 -0.000112184)
(-2.38453e-08 -9.23846e-09 -0.000112176)
(-1.86791e-08 -2.42572e-09 -0.000105406)
(1.418e-08 5.07915e-10 -0.000105467)
(1.64686e-08 -6.83632e-10 -0.000105376)
(-2.63322e-08 5.81621e-09 -0.000105431)
(1.67301e-08 6.86254e-10 -0.000105471)
(-2.02556e-08 -2.24712e-09 -0.000105407)
(-2.19487e-08 3.3739e-09 -0.000105443)
(8.21899e-09 2.18904e-09 -0.000105376)
(2.75477e-09 -4.11983e-09 -0.000112258)
(-1.22018e-09 -5.9042e-10 -0.000112142)
(1.87959e-08 -6.01802e-09 -0.00011211)
(-1.62347e-08 5.6061e-09 -0.000112118)
(-3.06528e-09 3.06442e-09 -0.000112143)
(5.33228e-09 -9.17361e-09 -0.000112267)
(-1.85007e-08 6.15758e-09 -0.000112132)
(1.42777e-08 -3.04895e-09 -0.000112113)
(-1.96307e-08 7.58473e-09 -0.000112135)
(1.30841e-08 -3.114e-09 -0.00011214)
(-3.5698e-09 4.4778e-09 -0.000112274)
(6.27719e-10 9.11971e-10 -0.000112151)
(1.20843e-08 -2.07024e-09 -0.000112147)
(-1.88107e-08 6.71477e-09 -0.000112134)
(4.36479e-09 -3.12273e-09 -0.000112167)
(-4.47405e-09 4.01615e-09 -0.000112275)
(1.74978e-08 7.9578e-10 -0.000105401)
(-1.60111e-08 -1.28605e-09 -0.000105467)
(1.62439e-08 -6.48658e-10 -0.000105451)
(-1.92829e-08 2.41015e-09 -0.00010538)
(-1.60376e-08 6.12749e-11 -0.000105487)
(1.70486e-08 3.12429e-10 -0.000105407)
(2.27686e-09 4.2031e-09 -0.000112317)
(3.23158e-09 7.59085e-09 -0.000112197)
(-1.7715e-08 -4.1052e-09 -0.000112182)
(2.02781e-08 6.66191e-09 -0.000112158)
(-4.25815e-09 -5.46718e-09 -0.000112194)
(3.44849e-09 5.05044e-09 -0.000112311)
(-3.68868e-09 -2.76063e-09 -0.000105616)
(2.04775e-09 -1.92973e-09 -0.000105513)
(6.02488e-09 -5.20631e-09 -0.000105461)
(-3.90405e-09 2.39899e-09 -0.000105555)
(2.3451e-09 1.40422e-09 -0.000105516)
(-2.8614e-09 -1.65192e-09 -0.000105618)
(3.02598e-10 -5.51338e-09 -0.000105602)
(-3.64253e-09 1.25942e-09 -0.000105502)
(8.14548e-10 2.00313e-09 -0.00010557)
(-3.79946e-09 4.72363e-09 -0.000105465)
(-4.34185e-09 -4.00847e-09 -0.000105494)
(1.04124e-09 -3.74235e-09 -0.000105599)
(-1.66175e-09 -9.83028e-12 -0.000105461)
(5.21232e-10 4.83162e-09 -0.000105575)
(-1.37276e-08 -3.76516e-09 -0.000112175)
(1.5186e-08 4.43368e-09 -0.000112189)
(1.7017e-09 2.57381e-09 -0.000112213)
(-3.6349e-09 -4.73156e-09 -0.000112326)
(9.91549e-09 1.00861e-09 -0.000112183)
(-2.38313e-08 -9.84326e-09 -0.000112186)
(-1.86169e-08 -2.1131e-09 -0.000105412)
(1.31173e-08 -5.27183e-10 -0.000105474)
(1.64448e-08 -2.03578e-10 -0.000105381)
(-1.45097e-08 -3.2581e-10 -0.00010545)
(1.33169e-08 -9.30015e-10 -0.000105465)
(-2.59927e-08 -4.5915e-09 -0.000105411)
(-1.78925e-08 1.33159e-09 -0.000105455)
(1.87213e-08 -1.63245e-09 -0.00010539)
(1.15083e-09 -6.06222e-10 -0.000112274)
(-5.87922e-09 9.14825e-09 -0.000112157)
(1.91733e-08 -6.12394e-09 -0.000112124)
(-1.40632e-08 2.79513e-09 -0.000112143)
(-2.94729e-09 4.45948e-09 -0.000112151)
(-6.15989e-10 2.51694e-09 -0.000112284)
(-1.55624e-08 4.24517e-09 -0.000112141)
(1.82882e-08 -6.65068e-09 -0.000112137)
(-1.76932e-08 5.28445e-09 -0.000112141)
(1.31838e-08 -2.66749e-09 -0.000112151)
(-1.12376e-09 6.61416e-10 -0.000112291)
(6.09235e-09 -7.87468e-09 -0.000112162)
(1.56347e-08 -3.20127e-09 -0.000112156)
(-1.66265e-08 5.59123e-09 -0.000112141)
(7.6038e-09 -1.02695e-08 -0.000112165)
(2.4562e-10 -3.45165e-09 -0.000112288)
(1.78588e-08 2.04657e-09 -0.000105428)
(-1.87921e-08 -8.77952e-10 -0.00010549)
(1.72182e-08 -2.6789e-10 -0.000105464)
(-1.49482e-08 1.05869e-09 -0.000105395)
(-2.02029e-08 -3.51791e-09 -0.000105493)
(1.86077e-08 2.18908e-09 -0.000105431)
(1.79998e-09 3.09816e-09 -0.000112322)
(-4.52559e-09 -8.1929e-09 -0.000112196)
(-2.09595e-08 -8.03491e-09 -0.000112184)
(1.9345e-08 6.78914e-09 -0.000112179)
(-4.16464e-09 -2.94917e-09 -0.000112208)
(2.04331e-09 -2.03741e-10 -0.000112316)
(-7.82391e-10 4.27809e-09 -0.000105628)
(5.27907e-09 4.95711e-09 -0.000105527)
(5.38697e-09 -7.66323e-09 -0.000105461)
(1.01173e-09 -9.24187e-09 -0.000105563)
(2.36778e-09 8.28558e-10 -0.000105522)
(-1.52262e-09 3.49196e-09 -0.000105631)
(7.47748e-10 -3.58409e-09 -0.000105603)
(-1.62315e-09 -2.66029e-10 -0.000105495)
(3.51104e-09 8.32178e-10 -0.000105568)
(-3.87576e-09 2.41979e-09 -0.000105466)
(-5.28448e-09 -3.15141e-09 -0.000105511)
(2.9077e-09 -8.72397e-10 -0.0001056)
(2.0484e-10 -6.39567e-09 -0.000105468)
(3.54783e-09 -2.55313e-09 -0.000105569)
(-1.8569e-08 -7.42902e-09 -0.000112178)
(9.04724e-09 1.91801e-10 -0.000112199)
(1.06873e-09 2.10611e-10 -0.000112223)
(-4.2609e-09 -5.69496e-09 -0.000112344)
(1.03208e-08 1.50911e-09 -0.000112187)
(-2.73388e-08 -1.15223e-08 -0.000112196)
(-2.11325e-08 -4.15189e-09 -0.000105412)
(1.03586e-08 -1.80438e-09 -0.000105479)
(1.92592e-08 -3.06705e-09 -0.000105398)
(-1.36429e-08 6.48045e-10 -0.000105458)
(1.23841e-08 -8.078e-10 -0.000105473)
(-2.43194e-08 -4.71195e-09 -0.000105419)
(-1.06685e-08 -2.08791e-09 -0.000105467)
(2.28734e-08 -2.83604e-09 -0.000105396)
(2.6387e-09 -1.64957e-09 -0.000112275)
(-3.66157e-09 2.67435e-09 -0.00011216)
(1.92214e-08 -7.22639e-09 -0.000112135)
(-8.17686e-09 1.41702e-09 -0.00011214)
(-1.25702e-09 -3.91275e-10 -0.00011216)
(2.85086e-09 -2.71537e-09 -0.00011228)
(-1.10324e-08 1.66958e-09 -0.000112146)
(2.38198e-08 -9.00243e-09 -0.000112132)
(-1.70856e-08 5.58056e-09 -0.000112151)
(1.42347e-08 -3.8763e-09 -0.000112155)
(1.38868e-09 -5.49068e-09 -0.000112286)
(6.77061e-09 -9.73622e-09 -0.000112162)
(1.24285e-08 -2.56745e-09 -0.000112155)
(-2.13683e-08 6.73557e-09 -0.000112145)
(3.264e-09 -2.36066e-09 -0.000112166)
(8.97301e-10 -4.92441e-09 -0.000112282)
(1.43136e-08 4.31932e-10 -0.000105433)
(-1.32189e-08 -5.44378e-10 -0.000105486)
(1.25709e-08 5.59308e-10 -0.00010546)
(-2.14814e-08 2.22775e-09 -0.000105395)
(-1.62066e-08 -1.5643e-09 -0.000105492)
(1.97794e-08 3.50393e-09 -0.000105432)
(1.95464e-09 3.50548e-09 -0.000112339)
(1.58294e-11 3.68002e-10 -0.000112214)
(-1.25047e-08 -3.02407e-09 -0.000112174)
(1.91096e-08 7.56083e-09 -0.000112176)
(-1.75942e-09 -1.0625e-09 -0.000112206)
(5.568e-09 6.98063e-09 -0.000112323)
(-3.88198e-09 -9.91958e-10 -0.00010563)
(4.21755e-09 4.54008e-09 -0.000105518)
(5.51156e-09 -5.36406e-09 -0.000105467)
(7.35824e-11 -7.97344e-09 -0.000105566)
(4.28636e-09 1.52879e-09 -0.000105524)
(-1.68746e-09 2.84076e-09 -0.00010562)
(5.14389e-11 -3.90607e-09 -0.000105622)
(4.82566e-10 4.57264e-09 -0.000105513)
(4.78286e-09 -5.00901e-09 -0.000105578)
(-3.84848e-09 1.90952e-09 -0.000105474)
(-1.63009e-09 2.47874e-09 -0.00010551)
(4.34359e-09 3.00228e-09 -0.000105613)
(-4.67289e-09 6.29525e-09 -0.000105472)
(9.91857e-10 3.32596e-09 -0.000105579)
(-1.80297e-08 -6.03203e-09 -0.000112179)
(1.68287e-08 4.92267e-09 -0.000112188)
(5.03493e-09 5.18506e-09 -0.000112221)
(-3.72215e-09 -3.10082e-09 -0.00011233)
(1.2096e-08 1.59542e-09 -0.000112187)
(-1.82436e-08 -5.61537e-09 -0.000112183)
(-2.01188e-08 -1.9454e-09 -0.00010541)
(2.00344e-08 3.15282e-09 -0.00010547)
(2.46462e-08 -4.73744e-09 -0.000105405)
(-1.49e-08 1.01059e-09 -0.000105465)
(1.56329e-08 6.65362e-10 -0.00010547)
(-1.49956e-08 -2.34518e-10 -0.000105409)
(-1.60283e-08 1.16727e-09 -0.00010547)
(2.00786e-08 -1.7098e-09 -0.000105403)
(4.75681e-09 -4.53298e-09 -0.000112289)
(-2.4963e-09 7.55489e-10 -0.000112171)
(2.17983e-08 -8.61222e-09 -0.000112142)
(-1.13155e-08 3.01286e-09 -0.000112149)
(-5.40676e-09 5.98886e-09 -0.000112168)
(3.22637e-09 -3.58378e-09 -0.000112292)
(-1.07718e-08 2.00895e-09 -0.000112154)
(1.89811e-08 -6.26755e-09 -0.00011214)
(-1.84258e-08 5.52917e-09 -0.000112144)
(1.63573e-08 -5.78199e-09 -0.000112143)
(-3.22067e-09 2.60423e-09 -0.00011229)
(3.14678e-09 -3.64914e-09 -0.000112157)
(1.69547e-08 -5.26802e-09 -0.000112145)
(-1.35458e-08 4.22525e-09 -0.000112136)
(2.61362e-09 -9.76555e-10 -0.000112154)
(-1.44004e-09 7.0863e-10 -0.000112282)
(1.93325e-08 1.77879e-09 -0.00010543)
(-1.46963e-08 -9.96325e-10 -0.000105492)
(1.65662e-08 -1.619e-09 -0.000105439)
(-1.61067e-08 1.13179e-09 -0.000105386)
(-1.57585e-08 -1.65791e-09 -0.000105492)
(1.91144e-08 1.662e-09 -0.000105427)
(3.57701e-09 2.71418e-09 -0.000112329)
(-3.63116e-09 -4.81662e-09 -0.000112201)
(-1.47264e-08 -4.93018e-09 -0.000112172)
(2.2836e-08 7.96075e-09 -0.000112164)
(-5.51875e-09 -7.58314e-09 -0.000112193)
(3.23031e-09 4.83495e-09 -0.000112324)
(-2.03931e-09 -3.62264e-10 -0.000105634)
(-9.82077e-10 -6.23258e-09 -0.000105524)
(2.11826e-09 3.20783e-09 -0.000105459)
(-2.11344e-09 -9.87371e-10 -0.000105566)
(1.59544e-09 6.89273e-11 -0.000105534)
(-6.44876e-09 -6.46279e-09 -0.000105631)
(2.87251e-09 2.00287e-09 -0.000105617)
(-4.00012e-09 -4.66048e-09 -0.000105503)
(5.31692e-10 5.60682e-09 -0.00010558)
(-3.25738e-09 3.00177e-09 -0.000105468)
(-3.70598e-09 -3.06998e-09 -0.000105501)
(6.27556e-10 -4.85618e-09 -0.000105609)
(-2.71129e-09 2.66428e-09 -0.000105465)
(1.09074e-09 2.93822e-09 -0.000105576)
(-2.05154e-08 -7.89066e-09 -0.000112183)
(9.2568e-09 1.54411e-09 -0.000112189)
(3.15739e-09 3.82613e-09 -0.00011223)
(-6.08397e-09 -5.83132e-09 -0.000112333)
(1.31501e-08 2.78383e-09 -0.000112183)
(-2.43892e-08 -8.78457e-09 -0.000112181)
(-2.21596e-08 -3.98731e-09 -0.000105413)
(1.92843e-08 3.24561e-09 -0.000105468)
(1.6446e-08 -9.99549e-10 -0.000105409)
(-1.45325e-08 6.7374e-10 -0.000105467)
(1.60999e-08 6.09941e-10 -0.000105472)
(-1.54064e-08 -6.09469e-11 -0.000105407)
(-2.10326e-08 3.56512e-09 -0.000105468)
(1.83508e-08 -1.90935e-09 -0.000105408)
(1.10161e-09 2.97262e-10 -0.000112294)
(-4.04301e-09 5.26432e-09 -0.000112159)
(1.85082e-08 -6.13511e-09 -0.000112146)
(-1.4007e-08 3.8153e-09 -0.000112154)
(-4.70692e-09 7.11555e-09 -0.000112155)
(2.92905e-09 -2.13626e-09 -0.000112282)
(-1.45754e-08 4.59582e-09 -0.000112151)
(1.65058e-08 -5.63376e-09 -0.000112146)
(-1.16085e-08 3.0505e-09 -0.000112139)
(2.0031e-08 -7.03534e-09 -0.000112151)