/*--------------------------------*- C++ -*----------------------------------*\
| =========                 |                                                 |
| \\      /  F ield         | OpenFOAM: The Open Source CFD Toolbox           |
|  \\    /   O peration     | Version:  2206                                  |
|   \\  /    A nd           | Website:  www.openfoam.com                      |
|    \\/     M anipulation  |                                                 |
\*---------------------------------------------------------------------------*/
FoamFile
{
    version     2.0;
    format      ascii;
    arch        "LSB;label=32;scalar=64";
    class       volScalarField;
    location    "0.5";
    object      k;
}
// * * * * * * * * * * * * * * * * * * * * * * * * * * * * * * * * * * * * * //

dimensions      [0 2 -2 0 0 0 0];

internalField   nonuniform List<scalar> 
67442
(
2.10587e-05
3.08387e-05
3.05444e-05
3.40624e-05
3.40519e-05
3.05435e-05
3.05401e-05
3.40225e-05
3.08681e-05
3.08635e-05
3.08551e-05
3.40545e-05
3.05637e-05
1.64888e-05
3.83126e-05
1.04246e-05
1.60502e-05
3.72268e-05
2.10525e-05
2.10614e-05
2.1063e-05
3.60388e-05
2.55507e-05
4.1754e-05
1.02293e-05
2.502e-05
3.66281e-05
4.21794e-05
2.25044e-05
2.28625e-05
1.0437e-05
1.02411e-05
2.2864e-05
2.24723e-05
1.64721e-05
3.83009e-05
3.66001e-05
2.49541e-05
4.21705e-05
3.65766e-05
2.49507e-05
4.21616e-05
2.28145e-05
2.24801e-05
1.02348e-05
3.60659e-05
2.55592e-05
4.17634e-05
1.60347e-05
3.72185e-05
2.55572e-05
3.6031e-05
4.17524e-05
1.60392e-05
3.72224e-05
2.55537e-05
3.60417e-05
4.1747e-05
1.60404e-05
3.72187e-05
2.24564e-05
2.28852e-05
1.04483e-05
2.50226e-05
3.66451e-05
4.21807e-05
1.64927e-05
3.82991e-05
1.64971e-05
3.83013e-05
1.02387e-05
1.04492e-05
9.81703e-06
1.64738e-05
2.33735e-05
2.33552e-05
9.82212e-06
1.35116e-05
3.82996e-05
1.48842e-05
3.54252e-05
1.48712e-05
3.54061e-05
1.35239e-05
1.04157e-05
1.32081e-05
3.72357e-05
3.44407e-05
1.45199e-05
9.53548e-06
1.60229e-05
2.26938e-05
2.26552e-05
9.55164e-06
9.55154e-06
1.605e-05
2.26937e-05
1.31788e-05
3.71945e-05
3.44339e-05
1.45195e-05
3.43962e-05
1.44869e-05
1.32079e-05
1.02134e-05
1.02292e-05
3.39443e-05
3.896e-05
2.24677e-05
1.58065e-05
3.89398e-05
1.57805e-05
3.39836e-05
3.37015e-05
3.90112e-05
2.28374e-05
1.58228e-05
3.89967e-05
1.5803e-05
3.37345e-05
1.72675e-05
9.1155e-06
9.14329e-06
9.10194e-06
9.13109e-06
1.73037e-05
1.04282e-05
1.02251e-05
1.02409e-05
3.40594e-05
3.91378e-05
2.28388e-05
1.59754e-05
1.59555e-05
3.91214e-05
3.41002e-05
3.35256e-05
3.87885e-05
2.24356e-05
1.56284e-05
1.56023e-05
3.87653e-05
3.35712e-05
1.72504e-05
9.15612e-06
9.08583e-06
9.14431e-06
9.0722e-06
1.72866e-05
9.8082e-06
1.64574e-05
2.33537e-05
2.33357e-05
9.81327e-06
1.35038e-05
3.82885e-05
1.48802e-05
3.54018e-05
1.48671e-05
3.53843e-05
1.35161e-05
3.36437e-05
3.89984e-05
2.27883e-05
1.57958e-05
1.57802e-05
3.89881e-05
3.36869e-05
3.38543e-05
3.88115e-05
2.24451e-05
1.57988e-05
3.88025e-05
1.57634e-05
3.38728e-05
1.7272e-05
9.13861e-06
9.11559e-06
9.12598e-06
9.10225e-06
1.73015e-05
1.02194e-05
1.32018e-05
3.72268e-05
1.45164e-05
3.44193e-05
9.52875e-06
1.60073e-05
2.26726e-05
2.26345e-05
9.54478e-06
9.54492e-06
1.60343e-05
2.26736e-05
1.31723e-05
3.71852e-05
1.45158e-05
3.44128e-05
1.44833e-05
3.43737e-05
1.32013e-05
9.52942e-06
1.60123e-05
2.26785e-05
2.26403e-05
9.54533e-06
1.31723e-05
3.71884e-05
3.44204e-05
1.45151e-05
3.43805e-05
1.44824e-05
1.32012e-05
9.52899e-06
1.60129e-05
2.26754e-05
2.26369e-05
9.54514e-06
1.31715e-05
3.71853e-05
1.45144e-05
3.44146e-05
1.44817e-05
3.43756e-05
1.32007e-05
3.35816e-05
3.88448e-05
2.24204e-05
1.56378e-05
1.5612e-05
3.88232e-05
3.36369e-05
3.4025e-05
3.90557e-05
2.28583e-05
1.60167e-05
3.90438e-05
1.599e-05
3.40551e-05
1.7304e-05
9.10455e-06
9.19046e-06
9.0912e-06
9.17478e-06
1.73501e-05
1.04391e-05
9.81251e-06
1.64776e-05
2.33698e-05
2.33513e-05
9.81769e-06
1.35017e-05
3.82839e-05
3.54051e-05
1.48748e-05
3.53868e-05
1.48622e-05
1.35137e-05
9.81382e-06
1.64817e-05
2.33759e-05
2.33575e-05
9.81922e-06
1.35037e-05
3.82867e-05
3.54128e-05
1.48751e-05
3.53942e-05
1.48626e-05
1.3516e-05
1.02226e-05
1.04403e-05
1.79288e-05
1.81543e-05
1.6252e-05
3.95218e-05
3.87557e-05
3.86163e-05
3.40857e-05
3.87806e-05
3.86368e-05
3.95219e-05
3.94927e-05
3.87095e-05
3.86246e-05
3.40723e-05
3.87262e-05
3.86445e-05
3.94941e-05
3.93763e-05
3.86668e-05
3.8561e-05
3.40415e-05
3.85803e-05
3.8681e-05
3.93837e-05
3.94383e-05
3.87413e-05
3.85884e-05
3.40748e-05
3.86035e-05
3.87605e-05
3.94375e-05
1.79274e-05
1.81517e-05
1.62516e-05
1.81326e-05
1.79542e-05
1.62523e-05
1.81322e-05
1.79542e-05
1.62522e-05
3.84604e-05
3.96356e-05
3.60067e-05
4.01773e-05
3.96459e-05
4.01581e-05
3.84373e-05
3.68951e-05
4.17726e-05
4.16595e-05
3.57116e-05
4.16622e-05
3.57688e-05
3.68472e-05
3.84391e-05
3.98212e-05
3.66092e-05
4.07435e-05
3.98279e-05
4.07337e-05
3.84337e-05
3.66584e-05
4.21877e-05
3.54219e-05
4.21469e-05
3.54371e-05
4.21496e-05
3.66473e-05
3.84082e-05
3.97787e-05
3.65791e-05
4.073e-05
4.07187e-05
3.97852e-05
3.84034e-05
3.66342e-05
4.21786e-05
4.21399e-05
3.54024e-05
4.21418e-05
3.54184e-05
3.66248e-05
3.83948e-05
3.97502e-05
3.65558e-05
4.07078e-05
4.06975e-05
3.97569e-05
3.83901e-05
3.66219e-05
4.21704e-05
4.21205e-05
3.53974e-05
4.2123e-05
3.54133e-05
3.66124e-05
3.8486e-05
3.96682e-05
3.60319e-05
4.01996e-05
4.0178e-05
3.96781e-05
3.84688e-05
3.69164e-05
4.17744e-05
4.16739e-05
3.57306e-05
4.16757e-05
3.57849e-05
3.6873e-05
3.84534e-05
3.96272e-05
3.59962e-05
4.01668e-05
4.01452e-05
3.96369e-05
3.84363e-05
3.68877e-05
4.17632e-05
3.57214e-05
4.16474e-05
3.57754e-05
4.16487e-05
3.68463e-05
3.84497e-05
3.96397e-05
3.6007e-05
4.01686e-05
3.96504e-05
4.01486e-05
3.84297e-05
3.68814e-05
4.17651e-05
3.57081e-05
4.1647e-05
3.57645e-05
4.16497e-05
3.68372e-05
3.84567e-05
3.98427e-05
3.66242e-05
4.07584e-05
3.98502e-05
4.07487e-05
3.84505e-05
3.66655e-05
4.21893e-05
3.54237e-05
4.21541e-05
3.54387e-05
4.21569e-05
3.66547e-05
3.18363e-06
7.64092e-07
1.41742e-07
5.38057e-08
3.11134e-07
3.0762e-06
7.46203e-07
1.40042e-07
5.69269e-08
3.37002e-07
3.13315e-06
7.51987e-07
1.3963e-07
5.36075e-08
3.11235e-07
3.04142e-06
7.37746e-07
1.38574e-07
5.68115e-08
3.3721e-07
3.081e-06
7.47476e-07
1.40289e-07
5.69912e-08
3.37225e-07
3.04474e-06
7.38501e-07
1.38694e-07
5.68177e-08
3.37187e-07
3.18018e-06
7.63253e-07
1.41581e-07
5.3772e-08
3.11026e-07
3.04431e-06
7.38562e-07
1.38729e-07
5.68466e-08
3.37327e-07
3.13022e-06
7.51298e-07
1.39513e-07
5.35881e-08
3.11212e-07
3.13109e-06
7.51552e-07
1.39569e-07
5.36107e-08
3.11296e-07
3.1314e-06
7.51593e-07
1.39584e-07
5.36213e-08
3.11341e-07
3.08491e-06
7.4846e-07
1.40458e-07
5.7006e-08
3.37259e-07
3.18447e-06
7.64312e-07
1.41773e-07
5.38056e-08
3.1114e-07
3.18513e-06
7.64457e-07
1.41801e-07
5.38003e-08
3.11105e-07
3.04532e-06
7.38771e-07
1.3876e-07
5.6835e-08
3.37251e-07
3.08366e-06
7.48011e-07
1.40362e-07
5.69734e-08
3.37134e-07
3.12139e-06
7.56811e-07
1.41851e-07
5.68307e-08
3.3481e-07
3.1836e-06
7.64273e-07
1.41786e-07
5.38283e-08
3.11281e-07
3.07553e-06
7.46198e-07
1.40048e-07
5.69182e-08
3.36928e-07
3.11949e-06
7.51327e-07
1.40077e-07
5.52202e-08
3.23549e-07
3.22235e-06
7.77054e-07
1.4483e-07
5.63887e-08
3.29118e-07
3.06296e-06
7.42768e-07
1.39352e-07
5.63727e-08
3.33126e-07
3.13141e-06
7.51839e-07
1.39609e-07
5.35598e-08
3.10869e-07
3.13309e-06
7.51974e-07
1.39628e-07
5.36071e-08
3.11233e-07
3.03952e-06
7.37517e-07
1.38534e-07
5.67486e-08
3.36736e-07
3.04141e-06
7.37746e-07
1.38573e-07
5.68081e-08
3.37183e-07
3.14842e-06
7.53758e-07
1.39887e-07
5.40159e-08
3.14283e-07
3.14629e-06
7.53483e-07
1.39839e-07
5.39468e-08
3.13765e-07
3.15145e-06
7.54816e-07
1.40083e-07
5.40082e-08
3.14064e-07
3.1501e-06
7.54681e-07
1.40062e-07
5.397e-08
3.13773e-07
2.83996e-06
6.89008e-07
1.2998e-07
5.57127e-08
3.35116e-07
2.8422e-06
6.89578e-07
1.3008e-07
5.572e-08
3.35102e-07
2.8381e-06
6.88764e-07
1.29936e-07
5.56476e-08
3.34627e-07
2.84062e-06
6.89386e-07
1.30047e-07
5.56662e-08
3.34696e-07
3.08036e-06
7.47478e-07
1.40296e-07
5.6982e-08
3.37146e-07
3.04276e-06
7.38256e-07
1.38651e-07
5.67545e-08
3.36711e-07
3.04469e-06
7.3849e-07
1.38692e-07
5.68174e-08
3.37185e-07
3.18016e-06
7.63434e-07
1.41624e-07
5.37949e-08
3.11176e-07
3.14685e-06
7.53427e-07
1.39842e-07
5.40084e-08
3.14257e-07
3.14436e-06
7.53101e-07
1.39788e-07
5.39468e-08
3.13805e-07
2.84057e-06
6.89221e-07
1.30021e-07
5.57143e-08
3.35098e-07
2.83855e-06
6.88936e-07
1.29972e-07
5.56572e-08
3.34677e-07
3.04243e-06
7.38332e-07
1.38689e-07
5.67856e-08
3.36867e-07
3.11815e-06
7.50984e-07
1.40021e-07
5.52162e-08
3.2356e-07
3.22162e-06
7.76875e-07
1.44798e-07
5.63844e-08
3.29109e-07
3.06075e-06
7.42215e-07
1.39257e-07
5.63552e-08
3.33102e-07
3.12849e-06
7.5115e-07
1.39491e-07
5.35398e-08
3.10841e-07
3.13017e-06
7.51286e-07
1.39511e-07
5.35863e-08
3.11199e-07
3.1294e-06
7.51414e-07
1.39549e-07
5.35648e-08
3.10943e-07
3.06084e-06
7.4225e-07
1.39266e-07
5.63704e-08
3.33163e-07
3.12965e-06
7.51443e-07
1.39563e-07
5.35735e-08
3.10975e-07
3.17871e-06
7.61105e-07
1.41183e-07
5.41553e-08
3.14315e-07
3.17656e-06
7.60804e-07
1.41137e-07
5.41285e-08
3.14133e-07
2.85837e-06
6.93531e-07
1.30776e-07
5.58034e-08
3.35167e-07
3.08411e-06
7.48426e-07
1.40459e-07
5.69989e-08
3.372e-07
3.11984e-06
7.56403e-07
1.41777e-07
5.68177e-08
3.3477e-07
3.18441e-06
7.64481e-07
1.41815e-07
5.38304e-08
3.11305e-07
3.12032e-06
7.56544e-07
1.41799e-07
5.68134e-08
3.34736e-07
3.18505e-06
7.64629e-07
1.41844e-07
5.3824e-08
3.11261e-07
3.04335e-06
7.38527e-07
1.38718e-07
5.6772e-08
3.36776e-07
3.08299e-06
7.48008e-07
1.40367e-07
5.69651e-08
3.37061e-07
3.11835e-06
7.5609e-07
1.41717e-07
5.68099e-08
3.34754e-07
3.06087e-06
7.4227e-07
1.39268e-07
5.6361e-08
3.33119e-07
3.14937e-06
7.58802e-07
1.41369e-07
5.52066e-08
3.22487e-07
3.25184e-06
7.84113e-07
1.46024e-07
5.63393e-08
3.27866e-07
3.25103e-06
7.84058e-07
1.46019e-07
5.63275e-08
3.27774e-07
3.15009e-06
7.58827e-07
1.41368e-07
5.52136e-08
3.22546e-07
3.12123e-06
7.56629e-07
1.41808e-07
5.68049e-08
3.34637e-07
3.1464e-06
7.53666e-07
1.399e-07
5.40019e-08
3.14129e-07
3.14472e-06
7.53436e-07
1.39859e-07
5.3953e-08
3.13766e-07
2.84107e-06
6.89348e-07
1.3005e-07
5.57306e-08
3.35148e-07
2.83926e-06
6.89092e-07
1.30004e-07
5.56712e-08
3.34707e-07
3.06511e-06
7.43031e-07
1.39397e-07
5.64418e-08
3.33646e-07
3.11625e-06
7.50829e-07
1.39986e-07
5.51126e-08
3.22756e-07
3.22232e-06
7.77053e-07
1.4483e-07
5.6389e-08
3.29121e-07
3.21881e-06
7.76491e-07
1.44726e-07
5.6272e-08
3.28262e-07
3.1195e-06
7.51334e-07
1.40079e-07
5.52206e-08
3.23552e-07
3.06508e-06
7.43024e-07
1.39396e-07
5.64414e-08
3.33644e-07
3.12541e-06
7.48542e-07
1.3901e-07
5.39204e-08
3.14174e-07
3.12333e-06
7.48285e-07
1.38962e-07
5.38381e-08
3.13549e-07
2.83531e-06
6.87776e-07
1.29759e-07
5.5687e-08
3.3507e-07
2.83375e-06
6.87617e-07
1.29728e-07
5.56126e-08
3.34498e-07
3.1708e-06
7.59132e-07
1.40832e-07
5.41134e-08
3.1429e-07
3.16951e-06
7.59014e-07
1.40814e-07
5.40764e-08
3.14006e-07
2.8469e-06
6.90726e-07
1.30281e-07
5.57285e-08
3.35044e-07
2.84542e-06
6.90556e-07
1.30252e-07
5.56769e-08
3.34651e-07
3.12382e-06
7.48184e-07
1.38945e-07
5.39035e-08
3.14125e-07
3.12166e-06
7.47901e-07
1.38895e-07
5.38324e-08
3.13592e-07
2.82985e-06
6.86527e-07
1.2955e-07
5.56662e-08
3.35101e-07
2.828e-06
6.86285e-07
1.29506e-07
5.56e-08
3.34603e-07
3.14735e-06
7.5835e-07
1.41289e-07
5.52098e-08
3.22527e-07
3.25099e-06
7.83939e-07
1.45999e-07
5.63529e-08
3.27942e-07
3.25015e-06
7.83877e-07
1.45993e-07
5.63398e-08
3.2784e-07
3.1481e-06
7.58384e-07
1.4129e-07
5.52179e-08
3.22594e-07
3.11821e-06
7.55911e-07
1.41674e-07
5.67851e-08
3.34587e-07
3.11486e-06
7.50479e-07
1.39928e-07
5.51086e-08
3.22767e-07
3.22157e-06
7.76869e-07
1.44798e-07
5.63848e-08
3.29113e-07
3.21806e-06
7.76309e-07
1.44694e-07
5.62676e-08
3.28252e-07
3.11809e-06
7.50977e-07
1.4002e-07
5.52166e-08
3.23564e-07
3.06288e-06
7.42472e-07
1.39301e-07
5.64244e-08
3.33624e-07
3.0629e-06
7.42475e-07
1.39302e-07
5.64236e-08
3.33618e-07
3.06299e-06
7.42525e-07
1.39311e-07
5.64278e-08
3.33623e-07
3.11451e-06
7.50368e-07
1.39904e-07
5.50891e-08
3.22684e-07
3.22127e-06
7.7674e-07
1.4478e-07
5.63664e-08
3.29052e-07
3.21774e-06
7.76175e-07
1.44675e-07
5.625e-08
3.28198e-07
3.11773e-06
7.50867e-07
1.39995e-07
5.51955e-08
3.23468e-07
3.11448e-06
7.50359e-07
1.39898e-07
5.50928e-08
3.22696e-07
3.2211e-06
7.7671e-07
1.44765e-07
5.63656e-08
3.29039e-07
3.21758e-06
7.76144e-07
1.4466e-07
5.62487e-08
3.28181e-07
3.11774e-06
7.50864e-07
1.3999e-07
5.52006e-08
3.2349e-07
3.063e-06
7.42515e-07
1.39312e-07
5.64395e-08
3.33683e-07
2.85593e-06
6.93167e-07
1.30718e-07
5.57617e-08
3.34875e-07
3.11973e-06
7.56233e-07
1.41735e-07
5.67899e-08
3.3458e-07
3.14697e-06
7.58215e-07
1.41267e-07
5.51972e-08
3.22465e-07
3.24984e-06
7.83637e-07
1.45946e-07
5.63405e-08
3.27882e-07
3.2491e-06
7.83593e-07
1.4594e-07
5.63228e-08
3.2777e-07
3.14765e-06
7.58239e-07
1.41268e-07
5.521e-08
3.22543e-07
3.12023e-06
7.56375e-07
1.41758e-07
5.67868e-08
3.34556e-07
3.14733e-06
7.58343e-07
1.41286e-07
5.52055e-08
3.22496e-07
3.2499e-06
7.83673e-07
1.45952e-07
5.63425e-08
3.27895e-07
3.24917e-06
7.83633e-07
1.4595e-07
5.63326e-08
3.27817e-07
3.14803e-06
7.58367e-07
1.41284e-07
5.52112e-08
3.22545e-07
3.08638e-05
3.40749e-05
3.05446e-05
2.10614e-05
3.7189e-05
2.55599e-05
4.17792e-05
1.60072e-05
3.71822e-05
2.55577e-05
3.59943e-05
4.17684e-05
1.02132e-05
2.24202e-05
1.32072e-05
3.72277e-05
3.4388e-05
1.44863e-05
3.44288e-05
1.4519e-05
1.31782e-05
9.54452e-06
1.60342e-05
2.26332e-05
2.26717e-05
9.52851e-06
1.32009e-05
3.7222e-05
1.44826e-05
3.43699e-05
1.45155e-05
3.44138e-05
1.31717e-05
1.02284e-05
3.36826e-05
3.88232e-05
2.24573e-05
1.5611e-05
3.88448e-05
1.56344e-05
3.36082e-05
3.4047e-05
3.90397e-05
3.90531e-05
3.4012e-05
1.73661e-05
9.0892e-06
9.0992e-06
1.7322e-05
3.94223e-05
3.40524e-05
3.87644e-05
3.86079e-05
3.87429e-05
3.85887e-05
3.94248e-05
1.81544e-05
1.6252e-05
1.81326e-05
1.79542e-05
1.62523e-05
3.6878e-05
4.17709e-05
4.16759e-05
3.57952e-05
4.16753e-05
3.574e-05
3.6923e-05
3.84405e-05
3.96407e-05
3.60297e-05
4.01458e-05
4.01693e-05
3.96313e-05
3.84591e-05
3.68525e-05
4.17602e-05
3.5786e-05
4.16495e-05
3.57311e-05
4.16495e-05
3.68953e-05
3.84325e-05
3.98318e-05
3.98238e-05
3.844e-05
3.40719e-05
3.05436e-05
3.08683e-05
2.10588e-05
1.04282e-05
1.02252e-05
2.2839e-05
2.2436e-05
1.6474e-05
3.8294e-05
3.65793e-05
2.49541e-05
4.2175e-05
1.60227e-05
3.60287e-05
1.0437e-05
1.02412e-05
3.41004e-05
3.9124e-05
2.28642e-05
1.59563e-05
1.5976e-05
3.9138e-05
3.4067e-05
3.35712e-05
3.87668e-05
2.24718e-05
1.5603e-05
1.56289e-05
3.87871e-05
3.35327e-05
1.72894e-05
9.14471e-06
9.07262e-06
9.15665e-06
9.08637e-06
1.72532e-05
9.82211e-06
1.64888e-05
2.33549e-05
2.33734e-05
9.81699e-06
1.35241e-05
3.8306e-05
1.48716e-05
3.54055e-05
1.48841e-05
3.54213e-05
1.35123e-05
9.55141e-06
1.60497e-05
2.26544e-05
2.26923e-05
9.53542e-06
3.94949e-05
3.4049e-05
3.87272e-05
3.86456e-05
3.87055e-05
3.86212e-05
3.9495e-05
1.79289e-05
3.8402e-05
3.97891e-05
3.65997e-05
4.07203e-05
3.97812e-05
4.07304e-05
3.84097e-05
3.66232e-05
4.21664e-05
4.21422e-05
3.54168e-05
4.21396e-05
3.54021e-05
3.66336e-05
3.84716e-05
3.96817e-05
3.60634e-05
4.01788e-05
3.96712e-05
4.02016e-05
3.84912e-05
3.12851e-06
7.51158e-07
1.39493e-07
5.35417e-08
3.10855e-07
3.03942e-06
7.37493e-07
1.3853e-07
5.67516e-08
3.36762e-07
3.06281e-06
7.4246e-07
1.39299e-07
5.64244e-08
3.33625e-07
3.13019e-06
7.51294e-07
1.39513e-07
5.35889e-08
3.11218e-07
3.04117e-06
7.37691e-07
1.38565e-07
5.68124e-08
3.37225e-07
3.11942e-06
7.51322e-07
1.40077e-07
5.52204e-08
3.23552e-07
3.21874e-06
7.7648e-07
1.44725e-07
5.62722e-08
3.28265e-07
3.22224e-06
7.77037e-07
1.44828e-07
5.63887e-08
3.29121e-07
3.1162e-06
7.50826e-07
1.39986e-07
5.51127e-08
3.22758e-07
3.11801e-06
7.50959e-07
1.40017e-07
5.52163e-08
3.23564e-07
3.21798e-06
7.76294e-07
1.44692e-07
5.62676e-08
3.28254e-07
3.22148e-06
7.76851e-07
1.44795e-07
5.63844e-08
3.29113e-07
3.11478e-06
7.50465e-07
1.39926e-07
5.51088e-08
3.22771e-07
3.0607e-06
7.42207e-07
1.39256e-07
5.63557e-08
3.33108e-07
3.12276e-06
7.48133e-07
1.38936e-07
5.38381e-08
3.13571e-07
3.12412e-06
7.48264e-07
1.38964e-07
5.3917e-08
3.14183e-07
2.83273e-06
6.87352e-07
1.29683e-07
5.56167e-08
3.34564e-07
2.83378e-06
6.87438e-07
1.29704e-07
5.56915e-08
3.35148e-07
3.08036e-06
7.47477e-07
1.40296e-07
5.69822e-08
3.37148e-07
3.04281e-06
7.38267e-07
1.38653e-07
5.67549e-08
3.36714e-07
3.18363e-06
7.64276e-07
1.41786e-07
5.38282e-08
3.1128e-07
3.13143e-06
7.51847e-07
1.39611e-07
5.35601e-08
3.10871e-07
3.08099e-06
7.47473e-07
1.40289e-07
5.69912e-08
3.37226e-07
3.04476e-06
7.38509e-07
1.38695e-07
5.68178e-08
3.37187e-07
3.1212e-06
7.5662e-07
1.41806e-07
5.68047e-08
3.34637e-07
3.18364e-06
7.64095e-07
1.41743e-07
5.38059e-08
3.11135e-07
3.13312e-06
7.51987e-07
1.39631e-07
5.36076e-08
3.11236e-07
2.84547e-06
6.9056e-07
1.30252e-07
5.5677e-08
3.34653e-07
2.82805e-06
6.86289e-07
1.29506e-07
5.56001e-08
3.34605e-07
3.06509e-06
7.43029e-07
1.39397e-07
5.64417e-08
3.33646e-07
3.06297e-06
7.42773e-07
1.39352e-07
5.63729e-08
3.33128e-07
3.16956e-06
7.5902e-07
1.40815e-07
5.40764e-08
3.14006e-07
3.17087e-06
7.59145e-07
1.40834e-07
5.41136e-08
3.14291e-07
3.12173e-06
7.47912e-07
1.38897e-07
5.38326e-08
3.13593e-07
3.12389e-06
7.48198e-07
1.38947e-07
5.39037e-08
3.14125e-07
2.82995e-06
6.86543e-07
1.29552e-07
5.56664e-08
3.35101e-07
2.847e-06
6.90741e-07
1.30283e-07
5.57287e-08
3.35044e-07
3.15017e-06
7.58845e-07
1.41371e-07
5.52141e-08
3.22547e-07
3.25113e-06
7.84077e-07
1.46022e-07
5.6328e-08
3.27775e-07
3.2519e-06
7.84129e-07
1.46027e-07
5.63398e-08
3.27868e-07
3.14946e-06
7.58814e-07
1.4137e-07
5.52067e-08
3.22486e-07
3.12135e-06
7.56802e-07
1.4185e-07
5.68306e-08
3.3481e-07
3.40631e-05
2.10494e-05
3.084e-05
3.0523e-05
3.40599e-05
3.40683e-05
3.40523e-05
3.05081e-05
3.05107e-05
3.40279e-05
3.08669e-05
3.08409e-05
3.08536e-05
3.40016e-05
3.0563e-05
2.25022e-05
2.28606e-05
3.40775e-05
2.2465e-05
2.28361e-05
3.80095e-05
1.64827e-05
3.82888e-05
1.04237e-05
1.03824e-05
1.60473e-05
3.72233e-05
2.10426e-05
2.10522e-05
2.10616e-05
3.60374e-05
2.55503e-05
3.08985e-05
4.17544e-05
1.02192e-05
2.50161e-05
3.66058e-05
4.21823e-05
2.25021e-05
2.28601e-05
1.02366e-05
1.0224e-05
1.04482e-05
1.04412e-05
3.40615e-05
2.24682e-05
2.28372e-05
2.24995e-05
2.28599e-05
1.02256e-05
1.02356e-05
1.04419e-05
1.04478e-05
1.04337e-05
1.02375e-05
2.28622e-05
2.24708e-05
3.79999e-05
1.64698e-05
1.63354e-05
3.82794e-05
4.2126e-05
3.65909e-05
2.48673e-05
2.51202e-05
4.21606e-05
4.21188e-05
3.65758e-05
2.48629e-05
3.05804e-05
3.64397e-05
2.51193e-05
4.21538e-05
2.28171e-05
2.24847e-05
3.403e-05
2.27143e-05
1.02332e-05
3.60653e-05
2.55605e-05
4.176e-05
1.60271e-05
3.7215e-05
2.5552e-05
3.60114e-05
4.17479e-05
1.60373e-05
3.72182e-05
2.5553e-05
3.60363e-05
4.17484e-05
1.60382e-05
3.72159e-05
2.24357e-05
2.28501e-05
1.04361e-05
2.50216e-05
3.66449e-05
4.21838e-05
1.64859e-05
3.83002e-05
1.64969e-05
3.83014e-05
1.02351e-05
1.04475e-05
1.72988e-05
9.10273e-06
9.13168e-06
9.1129e-06
9.14075e-06
1.72648e-05
3.39405e-05
3.89597e-05
1.58037e-05
2.24664e-05
1.57809e-05
3.39792e-05
3.8939e-05
3.36963e-05
3.90107e-05
1.58206e-05
2.28362e-05
1.58023e-05
3.37295e-05
3.89951e-05
1.72658e-05
9.11336e-06
9.14118e-06
9.10241e-06
9.1314e-06
1.73003e-05
3.39768e-05
1.57803e-05
2.25005e-05
3.89359e-05
1.58028e-05
3.39343e-05
3.89584e-05
3.37305e-05
1.58018e-05
2.28602e-05
3.89923e-05
1.58198e-05
3.36931e-05
3.90091e-05
1.33709e-05
1.46526e-05
3.51031e-05
3.80928e-05
1.47019e-05
3.51924e-05
1.33292e-05
9.80796e-06
1.6497e-05
2.33816e-05
2.3342e-05
9.81991e-06
9.74996e-06
1.64007e-05
2.32042e-05
1.34521e-05
3.82299e-05
1.48615e-05
3.5415e-05
1.47919e-05
3.53532e-05
1.35157e-05
1.04386e-05
1.04002e-05
9.53871e-06
1.60238e-05
2.26915e-05
2.26569e-05
9.54779e-06
1.31815e-05
3.71956e-05
3.44317e-05
1.45146e-05
3.43983e-05
1.44897e-05
1.32044e-05
1.02103e-05
3.39462e-05
3.89569e-05
1.58036e-05
2.24694e-05
3.39825e-05
3.89401e-05
1.57828e-05
3.37004e-05
3.90067e-05
1.58199e-05
2.28376e-05
3.37316e-05
3.89982e-05
1.58032e-05
1.72678e-05
9.11193e-06
9.13985e-06
1.7301e-05
9.10417e-06
9.1328e-06
1.02237e-05
1.02359e-05
1.04412e-05
1.04479e-05
1.72666e-05
9.11279e-06
9.14061e-06
1.72987e-05
9.10361e-06
9.13244e-06
3.39731e-05
3.89357e-05
1.5783e-05
2.25007e-05
3.39405e-05
1.58033e-05
3.89547e-05
3.37238e-05
3.89951e-05
1.58035e-05
2.286e-05
3.36936e-05
1.58199e-05
3.90067e-05
1.73009e-05
9.10433e-06
9.13303e-06
1.72689e-05
9.11261e-06
9.14038e-06
3.39317e-05
1.58023e-05
3.89546e-05
2.24658e-05
3.39699e-05
1.57813e-05
3.89337e-05
3.36885e-05
1.58193e-05
3.9006e-05
2.28365e-05
3.37245e-05
1.58024e-05
3.89909e-05
1.02352e-05
1.02249e-05
1.04478e-05
1.04415e-05
1.04486e-05
1.04116e-05
1.02284e-05
3.40605e-05
3.9131e-05
2.28478e-05
1.59736e-05
1.59563e-05
3.9127e-05
3.40993e-05
3.35277e-05
3.87891e-05
2.24373e-05
1.56259e-05
1.56042e-05
3.87674e-05
3.3571e-05
2.28437e-05
3.91272e-05
1.72517e-05
9.15455e-06
9.08357e-06
9.14582e-06
9.07458e-06
1.72858e-05
1.3364e-05
1.4649e-05
3.50837e-05
3.80837e-05
1.46984e-05
3.51735e-05
1.33222e-05
9.80054e-06
1.64841e-05
2.33662e-05
2.33265e-05
9.81252e-06
9.74247e-06
2.31158e-05
1.63875e-05
2.31883e-05
9.72579e-06
1.34451e-05
3.82209e-05
1.48582e-05
3.5395e-05
1.47883e-05
3.53348e-05
1.3509e-05
1.73333e-05
9.14072e-06
9.14284e-06
9.11603e-06
3.36582e-05
3.901e-05
2.28034e-05
1.57929e-05
1.57809e-05
3.90009e-05
3.36933e-05
3.38755e-05
3.88208e-05
2.24541e-05
1.58051e-05
3.88146e-05
1.57778e-05
3.38915e-05
3.36673e-05
1.57956e-05
2.2798e-05
3.89834e-05
1.58463e-05
3.89931e-05
3.37046e-05
3.39469e-05
2.24815e-05
3.88339e-05
1.57678e-05
1.72767e-05
9.13685e-06
9.11687e-06
9.12754e-06
9.10785e-06
1.73039e-05
1.02244e-05
1.02334e-05
9.53117e-06
1.60036e-05
2.26675e-05
2.26333e-05
9.54012e-06
1.31745e-05
3.7186e-05
1.45108e-05
3.44103e-05
1.44859e-05
3.43753e-05
1.31973e-05
1.31964e-05
3.72213e-05
3.4418e-05
1.45095e-05
9.53231e-06
1.60141e-05
2.26748e-05
2.2641e-05
9.54102e-06
9.54031e-06
1.60364e-05
2.26747e-05
1.31738e-05
3.71855e-05
3.44154e-05
1.45095e-05
3.43781e-05
1.44841e-05
1.31966e-05
1.31966e-05
3.722e-05
1.45094e-05
3.44158e-05
9.53227e-06
1.60149e-05
2.26725e-05
2.26384e-05
9.54123e-06
9.54052e-06
1.60372e-05
2.26725e-05
1.31737e-05
3.71838e-05
1.45093e-05
3.4412e-05
1.4484e-05
3.43753e-05
1.31968e-05
3.35076e-05
3.87846e-05
2.24029e-05
1.56155e-05
1.55945e-05
3.87661e-05
3.35554e-05
3.39361e-05
3.89738e-05
2.28269e-05
1.59795e-05
3.89686e-05
1.59602e-05
3.39623e-05
1.72717e-05
9.08949e-06
9.16823e-06
9.0815e-06
9.15748e-06
1.73138e-05
1.04307e-05
9.81517e-06
1.6476e-05
2.33656e-05
2.33503e-05
9.81567e-06
1.35032e-05
3.82855e-05
3.54051e-05
1.48755e-05
3.53874e-05
1.48638e-05
1.35138e-05
9.81741e-06
1.64857e-05
2.33761e-05
2.33605e-05
9.81849e-06
1.35058e-05
3.82878e-05
3.54128e-05
1.48761e-05
3.53957e-05
1.48645e-05
1.35166e-05
1.02261e-05
1.02342e-05
1.04423e-05
3.95187e-05
3.8757e-05
3.86176e-05
3.40909e-05
3.95218e-05
3.87821e-05
3.86381e-05
1.79174e-05
1.81539e-05
1.6252e-05
3.95201e-05
3.87537e-05
3.86148e-05
3.40893e-05
3.95209e-05
3.87791e-05
3.86356e-05
3.95201e-05
3.40643e-05
3.87688e-05
3.86266e-05
3.95197e-05
3.87492e-05
3.86091e-05
3.9494e-05
3.87096e-05
3.86259e-05
3.40741e-05
3.87256e-05
3.86469e-05
3.94949e-05
3.93947e-05
3.86783e-05
3.85717e-05
3.40486e-05
3.85925e-05
3.86922e-05
3.94018e-05
3.93297e-05
3.86684e-05
3.85074e-05
3.40285e-05
3.85231e-05
3.86884e-05
3.93257e-05
3.95202e-05
3.40676e-05
3.87748e-05
3.86307e-05
3.95159e-05
3.87597e-05
3.86195e-05
1.79104e-05
1.81517e-05
1.6251e-05
1.81301e-05
1.7952e-05
1.62518e-05
1.81319e-05
1.79517e-05
1.62518e-05
3.84592e-05
3.96354e-05
3.60083e-05
4.01723e-05
3.96491e-05
4.01533e-05
3.84385e-05
3.84421e-05
3.60461e-05
3.96425e-05
4.01744e-05
3.68978e-05
4.17659e-05
4.16561e-05
3.5722e-05
4.16582e-05
3.57753e-05
3.6853e-05
3.84266e-05
3.97795e-05
3.65912e-05
4.07335e-05
3.97893e-05
4.07287e-05
3.842e-05
3.66507e-05
4.21902e-05
3.54232e-05
4.21466e-05
3.54397e-05
4.21479e-05
3.66484e-05
3.95161e-05
3.40858e-05
3.87508e-05
3.861e-05
3.95176e-05
3.87706e-05
3.86258e-05
3.68669e-05
4.2063e-05
3.58919e-05
4.21257e-05
4.20629e-05
3.57385e-05
3.69951e-05
3.83733e-05
3.97758e-05
3.66201e-05
4.07214e-05
4.07174e-05
3.97812e-05
3.83995e-05
3.84541e-05
3.65119e-05
4.06116e-05
3.9771e-05
3.66131e-05
4.21667e-05
4.21334e-05
3.53764e-05
4.21258e-05
3.54321e-05
3.66224e-05
3.68584e-05
4.20466e-05
3.58881e-05
4.21186e-05
4.20472e-05
3.57348e-05
3.69862e-05
3.83677e-05
3.97583e-05
3.66049e-05
4.07076e-05
4.07032e-05
3.97639e-05
3.83939e-05
3.8446e-05
4.05713e-05
3.6494e-05
3.97586e-05
4.05967e-05
3.85024e-05
3.97499e-05
3.6605e-05
4.21601e-05
4.21183e-05
3.53728e-05
4.21105e-05
3.54285e-05
3.66144e-05
3.93826e-05
3.40286e-05
3.8681e-05
3.85795e-05
3.85682e-05
3.86723e-05
3.93622e-05
3.8487e-05
3.96682e-05
3.60336e-05
4.01992e-05
4.01796e-05
3.96828e-05
3.84678e-05
3.69162e-05
4.17717e-05
4.16723e-05
3.57275e-05
4.16754e-05
3.57832e-05
3.68709e-05
3.84395e-05
3.95912e-05
3.59797e-05
4.01561e-05
4.01365e-05
3.96075e-05
3.84199e-05
3.68813e-05
4.17594e-05
3.57168e-05
4.1642e-05
3.57721e-05
4.16447e-05
3.68383e-05
3.84492e-05
3.96345e-05
3.60053e-05
4.01631e-05
3.96499e-05
4.01428e-05
3.84305e-05
3.68851e-05
4.17592e-05
3.57186e-05
4.16441e-05
3.57713e-05
4.16458e-05
3.68439e-05
3.84598e-05
3.98408e-05
3.66268e-05
4.07578e-05
3.98505e-05
4.07528e-05
3.84533e-05
3.66646e-05
4.21922e-05
3.54263e-05
4.21567e-05
3.54426e-05
4.21582e-05
3.66621e-05
2.10586e-05
3.08369e-05
3.05438e-05
3.40627e-05
2.10585e-05
3.08375e-05
3.05427e-05
3.40602e-05
2.10581e-05
3.08357e-05
3.05403e-05
3.40598e-05
2.10583e-05
3.08381e-05
3.05393e-05
3.40626e-05
2.10669e-05
3.0863e-05
3.05691e-05
3.41013e-05
2.10693e-05
3.08921e-05
3.05819e-05
3.41561e-05
2.1067e-05
3.08757e-05
3.05695e-05
3.4107e-05
2.10706e-05
3.08709e-05
3.05604e-05
3.41039e-05
2.10883e-05
3.08795e-05
3.05726e-05
3.41064e-05
2.1103e-05
3.09036e-05
3.05918e-05
3.41278e-05
2.10994e-05
3.09049e-05
3.05871e-05
3.41335e-05
2.10823e-05
3.08844e-05
3.05657e-05
3.41089e-05
2.10728e-05
3.08691e-05
3.05516e-05
3.40908e-05
2.10625e-05
3.08495e-05
3.05326e-05
3.4069e-05
2.10589e-05
3.08423e-05
3.05263e-05
3.40599e-05
2.1058e-05
3.08428e-05
3.0526e-05
3.40719e-05
3.05434e-05
3.05389e-05
3.4032e-05
3.08686e-05
3.08638e-05
3.08367e-05
3.08552e-05
3.40728e-05
3.05443e-05
3.05638e-05
3.40822e-05
3.4052e-05
3.40679e-05
3.05433e-05
3.0539e-05
3.05428e-05
3.05395e-05
3.40126e-05
3.40405e-05
3.08685e-05
3.08635e-05
3.08679e-05
3.08619e-05
3.08548e-05
3.08379e-05
3.08548e-05
3.40522e-05
3.40646e-05
3.05636e-05
3.05427e-05
3.05628e-05
3.40794e-05
3.40485e-05
3.40701e-05
3.05429e-05
3.05388e-05
3.05422e-05
3.05382e-05
3.40197e-05
3.40312e-05
3.08681e-05
3.08618e-05
3.08675e-05
3.08598e-05
3.08548e-05
3.08354e-05
3.08537e-05
3.40447e-05
3.4061e-05
3.05632e-05
3.05417e-05
3.05633e-05
3.40795e-05
3.40496e-05
3.40726e-05
3.05417e-05
3.05384e-05
3.05427e-05
3.05395e-05
3.40118e-05
3.40423e-05
3.08667e-05
3.08582e-05
3.08675e-05
3.0858e-05
3.08536e-05
3.08374e-05
3.08539e-05
3.4039e-05
3.40549e-05
3.0563e-05
3.05386e-05
3.05626e-05
3.40817e-05
3.40537e-05
3.41229e-05
3.05448e-05
3.05398e-05
3.05714e-05
3.05533e-05
3.40222e-05
3.40692e-05
3.08695e-05
3.08591e-05
3.08954e-05
3.08812e-05
3.08545e-05
3.0849e-05
3.08677e-05
3.40353e-05
3.40921e-05
3.05635e-05
3.05574e-05
3.05785e-05
3.41171e-05
3.41074e-05
3.41667e-05
3.05843e-05
3.05667e-05
3.05976e-05
3.05926e-05
3.40536e-05
3.4131e-05
3.09098e-05
3.08944e-05
3.0925e-05
3.09075e-05
3.08816e-05
3.08916e-05
3.09103e-05
3.40759e-05
3.41296e-05
3.05917e-05
3.05834e-05
3.06158e-05
3.41762e-05
3.4139e-05
3.41199e-05
3.05956e-05
3.05928e-05
3.05839e-05
3.05821e-05
3.41115e-05
3.40928e-05
3.0922e-05
3.09044e-05
3.09076e-05
3.0889e-05
3.09105e-05
3.08771e-05
3.08949e-05
3.41017e-05
3.40842e-05
3.06157e-05
3.05714e-05
3.06028e-05
3.41331e-05
3.40991e-05
3.41152e-05
3.05826e-05
3.05798e-05
3.0576e-05
3.05745e-05
3.40674e-05
3.4093e-05
3.09073e-05
3.0888e-05
3.09005e-05
3.08792e-05
3.08929e-05
3.08729e-05
3.08886e-05
3.40626e-05
3.40736e-05
3.06008e-05
3.05611e-05
3.05951e-05
3.41319e-05
3.40884e-05
3.41256e-05
3.05756e-05
3.05732e-05
3.05837e-05
3.05773e-05
3.40661e-05
3.40894e-05
3.09e-05
3.08784e-05
3.09091e-05
3.08861e-05
3.08856e-05
3.0874e-05
3.08876e-05
3.40471e-05
3.40832e-05
3.05934e-05
3.05667e-05
3.05959e-05
3.41246e-05
3.41067e-05
3.41481e-05
3.05903e-05
3.05829e-05
3.06082e-05
3.06007e-05
3.40712e-05
3.41095e-05
3.09153e-05
3.08929e-05
3.09343e-05
3.09096e-05
3.08933e-05
3.0897e-05
3.0911e-05
3.40638e-05
3.41016e-05
3.06018e-05
3.05888e-05
3.06196e-05
3.41465e-05
3.4129e-05
3.4148e-05
3.06117e-05
3.06055e-05
3.06103e-05
3.0608e-05
3.40911e-05
3.41212e-05
3.09386e-05
3.09133e-05
3.09368e-05
3.09104e-05
3.09176e-05
3.09067e-05
3.09211e-05
3.40822e-05
3.40999e-05
3.06247e-05
3.05904e-05
3.06268e-05
3.41587e-05
3.4122e-05
3.41198e-05
3.06068e-05
3.06059e-05
3.0588e-05
3.05888e-05
3.40958e-05
3.40947e-05
3.09333e-05
3.09069e-05
3.0912e-05
3.08852e-05
3.09195e-05
3.08867e-05
3.0901e-05
3.4074e-05
3.4072e-05
3.06252e-05
3.0568e-05
3.06086e-05
3.41328e-05
3.40953e-05
3.41027e-05
3.05854e-05
3.05861e-05
3.05726e-05
3.05742e-05
3.40711e-05
3.40779e-05
3.09095e-05
3.08826e-05
3.08974e-05
3.08701e-05
3.08981e-05
3.08708e-05
3.08841e-05
3.40474e-05
3.40556e-05
3.06059e-05
3.05537e-05
3.05928e-05
3.41119e-05
3.40809e-05
3.40768e-05
3.05699e-05
3.05717e-05
3.05519e-05
3.05551e-05
3.40553e-05
3.40545e-05
3.08955e-05
3.08685e-05
3.08749e-05
3.08488e-05
3.08832e-05
3.08511e-05
3.08653e-05
3.40333e-05
3.40311e-05
3.05912e-05
3.05341e-05
3.05753e-05
3.40918e-05
3.40538e-05
3.40697e-05
3.055e-05
3.05528e-05
3.05432e-05
3.05446e-05
3.40317e-05
3.40449e-05
3.08736e-05
3.0848e-05
3.08675e-05
3.08403e-05
3.08636e-05
3.08397e-05
3.08528e-05
3.40086e-05
3.40218e-05
3.05735e-05
3.05242e-05
3.05637e-05
3.40776e-05
3.40517e-05
3.40704e-05
3.05441e-05
3.05451e-05
3.05422e-05
3.05427e-05
3.40262e-05
3.40415e-05
3.08705e-05
3.08442e-05
3.08664e-05
3.08383e-05
3.08568e-05
3.08378e-05
3.0851e-05
3.40032e-05