/*--------------------------------*- C++ -*----------------------------------*\
| =========                 |                                                 |
| \\      /  F ield         | OpenFOAM: The Open Source CFD Toolbox           |
|  \\    /   O peration     | Version:  2206                                  |
|   \\  /    A nd           | Website:  www.openfoam.com                      |
|    \\/     M anipulation  |                                                 |
\*---------------------------------------------------------------------------*/
FoamFile
{
    version     2.0;
    format      ascii;
    arch        "LSB;label=32;scalar=64";
    class       volScalarField;
    location    "0.5";
    object      nut;
}
// * * * * * * * * * * * * * * * * * * * * * * * * * * * * * * * * * * * * * //

dimensions      [0 2 -1 0 0 0 0];

internalField   nonuniform List<scalar> 
67442
(
1.03765e-06
7.77524e-07
7.92682e-07
7.35041e-07
7.35018e-07
7.90433e-07
7.89851e-07
7.34534e-07
7.77576e-07
7.76055e-07
7.76351e-07
7.34928e-07
7.92577e-07
5.47997e-08
2.18066e-07
2.56051e-08
5.29876e-08
2.07577e-07
1.03746e-06
1.03708e-06
1.03722e-06
2.10605e-07
9.85086e-07
4.17996e-07
2.50366e-08
1.00362e-06
2.17466e-07
4.3742e-07
1.08846e-07
1.11414e-07
2.564e-08
2.50643e-08
1.11529e-07
1.08586e-07
5.4742e-08
2.18002e-07
2.17361e-07
1.00184e-06
4.37613e-07
2.17075e-07
1.00182e-06
4.37514e-07
1.11202e-07
1.08688e-07
2.50521e-08
2.10663e-07
9.85313e-07
4.18075e-07
5.29338e-08
2.0753e-07
9.84748e-07
2.10491e-07
4.18074e-07
5.29531e-08
2.0755e-07
9.84658e-07
2.10683e-07
4.18044e-07
5.29554e-08
2.07535e-07
1.08529e-07
1.11562e-07
2.56645e-08
1.00377e-06
2.17456e-07
4.37404e-07
5.48106e-08
2.17958e-07
5.48252e-08
2.17971e-07
2.50625e-08
2.56645e-08
2.29452e-08
5.47582e-08
1.08554e-07
1.08473e-07
2.29494e-08
4.07404e-08
2.18397e-07
4.79178e-08
1.85956e-07
4.78841e-08
1.8626e-07
4.07698e-08
2.55915e-08
3.94657e-08
2.07627e-07
1.77423e-07
4.62892e-08
2.21444e-08
5.2915e-08
1.03731e-07
1.03561e-07
2.21683e-08
2.21681e-08
5.29868e-08
1.0373e-07
3.93957e-08
2.09067e-07
1.77388e-07
4.62877e-08
1.78659e-07
4.62038e-08
3.94651e-08
2.50099e-08
2.50355e-08
1.79373e-07
2.8911e-07
1.08669e-07
5.12397e-08
2.88838e-07
5.1174e-08
1.78624e-07
1.80681e-07
2.92717e-07
1.11292e-07
5.12529e-08
2.9212e-07
5.12035e-08
1.80093e-07
6.89687e-08
2.20013e-08
2.20953e-08
2.1979e-08
2.20754e-08
6.91033e-08
2.56264e-08
2.50375e-08
2.50637e-08
1.80429e-07
2.93448e-07
1.11404e-07
5.18876e-08
5.18378e-08
2.92782e-07
1.79891e-07
1.79257e-07
2.88015e-07
1.0841e-07
5.0527e-08
5.04606e-08
2.87729e-07
1.78553e-07
6.89015e-08
2.21324e-08
2.19237e-08
2.21134e-08
2.19012e-08
6.90362e-08
2.29246e-08
5.47017e-08
1.08458e-07
1.08378e-07
2.29287e-08
4.07178e-08
2.18326e-07
4.79058e-08
1.85827e-07
4.78715e-08
1.86135e-07
4.07475e-08
1.80085e-07
2.92116e-07
1.11066e-07
5.11782e-08
5.11437e-08
2.91557e-07
1.79932e-07
1.79182e-07
2.88377e-07
1.08525e-07
5.12093e-08
2.88212e-07
5.11102e-08
1.7793e-07
6.89611e-08
2.20875e-08
2.20002e-08
2.20716e-08
2.19764e-08
6.90785e-08
2.50269e-08
3.94459e-08
2.07577e-07
4.62776e-08
1.77301e-07
2.21289e-08
5.28609e-08
1.03632e-07
1.03465e-07
2.21525e-08
2.21528e-08
5.29324e-08
1.03636e-07
3.93751e-08
2.09015e-07
4.62756e-08
1.77267e-07
4.61918e-08
1.78539e-07
3.94442e-08
2.21305e-08
5.28822e-08
1.03662e-07
1.03495e-07
2.21538e-08
3.93765e-08
2.09033e-07
1.77315e-07
4.62738e-08
1.78577e-07
4.61895e-08
3.94453e-08
2.21298e-08
5.28823e-08
1.03649e-07
1.0348e-07
2.21537e-08
3.93731e-08
2.09019e-07
4.62714e-08
1.77285e-07
4.61872e-08
1.78554e-07
3.94427e-08
1.79633e-07
2.87981e-07
1.08353e-07
5.05834e-08
5.05078e-08
2.8773e-07
1.79041e-07
1.80213e-07
2.93237e-07
1.11438e-07
5.20099e-08
2.92641e-07
5.19423e-08
1.79541e-07
6.90842e-08
2.19706e-08
2.22167e-08
2.19485e-08
2.21863e-08
6.92449e-08
2.56507e-08
2.29347e-08
5.47691e-08
1.08533e-07
1.0845e-07
2.29391e-08
4.07099e-08
2.18273e-07
1.85843e-07
4.78866e-08
1.86132e-07
4.78543e-08
4.07385e-08
2.29376e-08
5.47823e-08
1.08559e-07
1.08477e-07
2.29425e-08
4.07169e-08
2.18296e-07
1.85887e-07
4.78881e-08
1.86171e-07
4.78562e-08
4.07463e-08
2.50357e-08
2.56508e-08
1.05403e-06
1.05462e-06
1.02609e-06
3.28531e-07
4.59683e-07
4.64222e-07
7.34011e-07
4.51042e-07
4.57409e-07
3.30001e-07
3.28313e-07
4.62528e-07
4.60818e-07
7.33882e-07
4.55663e-07
4.5212e-07
3.29831e-07
3.27401e-07
4.60498e-07
4.6163e-07
7.33357e-07
4.5265e-07
4.53744e-07
3.28943e-07
3.28001e-07
4.57955e-07
4.65429e-07
7.33782e-07
4.58509e-07
4.49436e-07
3.29416e-07
1.05396e-06
1.05449e-06
1.02604e-06
1.05396e-06
1.05483e-06
1.02609e-06
1.05395e-06
1.05491e-06
1.0261e-06
5.3925e-07
4.03892e-07
2.11597e-07
2.95497e-07
3.99196e-07
2.95688e-07
5.49534e-07
6.1284e-07
4.15911e-07
3.77968e-07
7.03777e-07
3.76615e-07
6.81105e-07
6.28488e-07
5.60537e-07
4.13111e-07
2.17707e-07
3.07213e-07
4.097e-07
3.06586e-07
5.65586e-07
6.43542e-07
4.35437e-07
7.2696e-07
3.95078e-07
7.20102e-07
3.9329e-07
6.48706e-07
5.61653e-07
4.14374e-07
2.1759e-07
3.07139e-07
3.06605e-07
4.11055e-07
5.66603e-07
6.44466e-07
4.35615e-07
3.95159e-07
7.28244e-07
3.93508e-07
7.21253e-07
6.4985e-07
5.61143e-07
4.13335e-07
2.17317e-07
3.06899e-07
3.0637e-07
4.10093e-07
5.66111e-07
6.44209e-07
4.35496e-07
3.94961e-07
7.28109e-07
3.93288e-07
7.2111e-07
6.4962e-07
5.39322e-07
4.03522e-07
2.11628e-07
2.95639e-07
2.95787e-07
3.98871e-07
5.49696e-07
6.13025e-07
4.15906e-07
3.781e-07
7.04061e-07
3.76697e-07
6.81305e-07
6.28824e-07
5.40235e-07
4.04637e-07
2.11451e-07
2.95396e-07
2.95604e-07
4.00086e-07
5.50476e-07
6.13762e-07
4.1591e-07
7.05321e-07
3.77961e-07
6.82499e-07
3.76641e-07
6.29648e-07
5.40469e-07
4.05469e-07
2.11652e-07
2.95474e-07
4.00857e-07
2.95689e-07
5.50685e-07
6.1377e-07
4.15955e-07
7.05143e-07
3.77994e-07
6.82384e-07
3.76683e-07
6.29585e-07
5.60497e-07
4.1263e-07
2.17672e-07
3.07293e-07
4.09223e-07
3.06645e-07
5.65542e-07
6.43612e-07
4.35446e-07
7.26951e-07
3.95134e-07
7.2009e-07
3.93343e-07
6.48772e-07
4.29972e-09
4.76407e-10
3.21984e-11
3.27235e-12
2.66424e-12
4.23339e-09
4.66497e-10
3.1835e-11
3.46123e-12
2.88254e-12
4.23422e-09
4.68884e-10
3.17176e-11
3.25992e-12
2.66463e-12
4.1876e-09
4.6125e-10
3.15041e-11
3.4547e-12
2.88481e-12
4.24027e-09
4.67334e-10
3.18951e-11
3.46595e-12
2.88567e-12
4.19209e-09
4.61707e-10
3.15291e-11
3.4546e-12
2.88412e-12
4.29503e-09
4.75881e-10
3.21606e-11
3.26991e-12
2.66283e-12
4.19172e-09
4.61787e-10
3.15416e-11
3.45712e-12
2.88629e-12
4.23024e-09
4.68461e-10
3.16911e-11
3.2587e-12
2.66417e-12
4.23154e-09
4.68647e-10
3.17072e-11
3.26065e-12
2.66563e-12
4.232e-09
4.6866e-10
3.17101e-11
3.26134e-12
2.66622e-12
4.24555e-09
4.67945e-10
3.19337e-11
3.46664e-12
2.8855e-12
4.30088e-09
4.76558e-10
3.22057e-11
3.27218e-12
2.66397e-12
4.30176e-09
4.76649e-10
3.22121e-11
3.27182e-12
2.66351e-12
4.19301e-09
4.61892e-10
3.15467e-11
3.45613e-12
2.88514e-12
4.24369e-09
4.67642e-10
3.19083e-11
3.46416e-12
2.88366e-12
4.31269e-09
4.73698e-10
3.22697e-11
3.45764e-12
2.86565e-12
4.30067e-09
4.76571e-10
3.22095e-11
3.27375e-12
2.66549e-12
4.23325e-09
4.66531e-10
3.1837e-11
3.46072e-12
2.8819e-12
4.26541e-09
4.69404e-10
3.18525e-11
3.36034e-12
2.77125e-12
4.39728e-09
4.85659e-10
3.29483e-11
3.43252e-12
2.81957e-12
4.23488e-09
4.64955e-10
3.17011e-11
3.42963e-12
2.85112e-12
4.23331e-09
4.68854e-10
3.1714e-11
3.25704e-12
2.66149e-12
4.23414e-09
4.68876e-10
3.17171e-11
3.25989e-12
2.66461e-12
4.1861e-09
4.61153e-10
3.14959e-11
3.4509e-12
2.88075e-12
4.18754e-09
4.61249e-10
3.1504e-11
3.4545e-12
2.88458e-12
4.26079e-09
4.70073e-10
3.17809e-11
3.28507e-12
2.69088e-12
4.25911e-09
4.69949e-10
3.17708e-11
3.28089e-12
2.68645e-12
4.26402e-09
4.70728e-10
3.18251e-11
3.28461e-12
2.68901e-12
4.26318e-09
4.70685e-10
3.18211e-11
3.2823e-12
2.68652e-12
3.92317e-09
4.30665e-10
2.95375e-11
3.38675e-12
2.86626e-12
3.92599e-09
4.31018e-10
2.95606e-11
3.38714e-12
2.86606e-12
3.92164e-09
4.30553e-10
2.95282e-11
3.38281e-12
2.86207e-12
3.92475e-09
4.30937e-10
2.95537e-11
3.38389e-12
2.86259e-12
4.24017e-09
4.67372e-10
3.18972e-11
3.46541e-12
2.88498e-12
4.19052e-09
4.616e-10
3.15203e-11
3.45077e-12
2.88005e-12
4.19203e-09
4.617e-10
3.15287e-11
3.45458e-12
2.88411e-12
4.296e-09
4.76045e-10
3.21717e-11
3.27133e-12
2.66412e-12
4.25877e-09
4.6987e-10
3.17713e-11
3.2848e-12
2.6908e-12
4.25659e-09
4.69715e-10
3.17599e-11
3.28108e-12
2.68693e-12
3.92413e-09
4.30796e-10
2.95475e-11
3.38682e-12
2.86608e-12
3.9223e-09
4.30659e-10
2.95371e-11
3.38337e-12
2.86248e-12
4.19026e-09
4.61688e-10
3.15333e-11
3.45343e-12
2.88235e-12
4.26365e-09
4.69193e-10
3.18399e-11
3.36024e-12
2.77145e-12
4.39632e-09
4.85553e-10
3.29415e-11
3.43231e-12
2.81953e-12
4.23183e-09
4.6461e-10
3.16793e-11
3.42855e-12
2.85062e-12
4.22932e-09
4.6843e-10
3.16874e-11
3.25579e-12
2.66099e-12
4.23016e-09
4.68453e-10
3.16906e-11
3.25859e-12
2.66406e-12
4.23069e-09
4.68623e-10
3.1704e-11
3.25788e-12
2.66261e-12
4.23208e-09
4.64643e-10
3.16826e-11
3.42972e-12
2.85168e-12
4.23107e-09
4.68629e-10
3.17064e-11
3.25846e-12
2.66308e-12
4.30056e-09
4.74657e-10
3.20773e-11
3.29409e-12
2.692e-12
4.29863e-09
4.74511e-10
3.20677e-11
3.29247e-12
2.69044e-12
3.94843e-09
4.33482e-10
2.97181e-11
3.39232e-12
2.86703e-12
4.24524e-09
4.6796e-10
3.19345e-11
3.46623e-12
2.885e-12
4.31055e-09
4.73441e-10
3.22528e-11
3.45686e-12
2.8653e-12
4.30179e-09
4.76714e-10
3.22164e-11
3.27371e-12
2.66539e-12
4.31122e-09
4.73539e-10
3.22589e-11
3.45662e-12
2.86492e-12
4.30266e-09
4.76808e-10
3.22229e-11
3.27329e-12
2.66485e-12
4.19144e-09
4.61786e-10
3.15379e-11
3.45231e-12
2.88109e-12
4.24355e-09
4.67677e-10
3.19104e-11
3.46367e-12
2.88304e-12
4.30854e-09
4.73258e-10
3.224e-11
3.45628e-12
2.8651e-12
4.23206e-09
4.64656e-10
3.16833e-11
3.42909e-12
2.85107e-12
4.30378e-09
4.74076e-10
3.21453e-11
3.35944e-12
2.76177e-12
4.43431e-09
4.90048e-10
3.32182e-11
3.4293e-12
2.80834e-12
4.43386e-09
4.90042e-10
3.32178e-11
3.4286e-12
2.80756e-12
4.30412e-09
4.74062e-10
3.21444e-11
3.35985e-12
2.76227e-12
4.31171e-09
4.73543e-10
3.2259e-11
3.45606e-12
2.86418e-12
4.2573e-09
4.70024e-10
3.17851e-11
3.28458e-12
2.69e-12
4.25601e-09
4.6992e-10
3.17766e-11
3.28161e-12
2.6869e-12
3.92459e-09
4.30894e-10
2.95563e-11
3.38833e-12
2.86728e-12
3.92314e-09
4.30771e-10
2.95464e-11
3.38473e-12
2.86351e-12
4.23653e-09
4.65066e-10
3.17104e-11
3.43381e-12
2.85557e-12
4.26227e-09
4.69138e-10
3.18324e-11
3.35381e-12
2.76445e-12
4.39724e-09
4.85658e-10
3.29483e-11
3.43254e-12
2.81959e-12
4.39379e-09
4.85354e-10
3.29253e-11
3.42543e-12
2.81223e-12
4.26543e-09
4.69407e-10
3.18528e-11
3.36037e-12
2.77127e-12
4.23649e-09
4.65062e-10
3.17101e-11
3.43379e-12
2.85556e-12
4.23022e-09
4.66832e-10
3.15829e-11
3.2796e-12
2.69037e-12
4.2286e-09
4.66719e-10
3.15729e-11
3.27461e-12
2.68502e-12
3.91676e-09
4.29875e-10
2.94861e-11
3.38505e-12
2.86587e-12
3.91565e-09
4.29818e-10
2.94797e-11
3.38055e-12
2.86097e-12
4.29e-09
4.73422e-10
3.19964e-11
3.29131e-12
2.69139e-12
4.28926e-09
4.7339e-10
3.19931e-11
3.28907e-12
2.68896e-12
3.93248e-09
4.31723e-10
2.96053e-11
3.38755e-12
2.86527e-12
3.93139e-09
4.31655e-10
2.95992e-11
3.38443e-12
2.86191e-12
4.22788e-09
4.66595e-10
3.1567e-11
3.27832e-12
2.68954e-12
4.22615e-09
4.66465e-10
3.15565e-11
3.27401e-12
2.68497e-12
3.90925e-09
4.29107e-10
2.94404e-11
3.384e-12
2.86606e-12
3.90772e-09
4.28995e-10
2.94311e-11
3.37999e-12
2.86179e-12
4.30109e-09
4.73806e-10
3.21291e-11
3.35974e-12
2.76252e-12
4.43322e-09
4.89948e-10
3.32144e-11
3.43034e-12
2.80949e-12
4.43274e-09
4.89938e-10
3.32136e-11
3.42955e-12
2.80862e-12
4.30147e-09
4.73797e-10
3.21286e-11
3.36023e-12
2.76309e-12
4.30757e-09
4.73105e-10
3.22294e-11
3.45474e-12
2.86368e-12
4.26045e-09
4.68924e-10
3.18196e-11
3.35371e-12
2.76466e-12
4.39625e-09
4.85549e-10
3.29413e-11
3.43233e-12
2.81956e-12
4.3928e-09
4.85245e-10
3.29184e-11
3.42521e-12
2.81219e-12
4.26358e-09
4.69188e-10
3.18397e-11
3.36027e-12
2.77149e-12
4.23344e-09
4.64717e-10
3.16884e-11
3.43274e-12
2.8551e-12
4.23347e-09
4.64719e-10
3.16885e-11
3.43269e-12
2.85504e-12
4.23366e-09
4.64762e-10
3.16923e-11
3.43314e-12
2.85538e-12
4.2598e-09
4.68825e-10
3.18116e-11
3.35212e-12
2.76331e-12
4.39581e-09
4.85448e-10
3.29352e-11
3.43109e-12
2.81846e-12
4.39234e-09
4.85142e-10
3.29121e-11
3.42401e-12
2.81115e-12
4.26293e-09
4.69091e-10
3.18317e-11
3.35858e-12
2.77002e-12
4.25977e-09
4.68825e-10
3.18101e-11
3.35232e-12
2.76354e-12
4.39555e-09
4.85434e-10
3.29317e-11
3.4309e-12
2.81838e-12
4.39208e-09
4.85127e-10
3.29085e-11
3.42379e-12
2.81103e-12
4.26294e-09
4.69094e-10
3.18304e-11
3.35886e-12
2.77033e-12
4.23374e-09
4.64755e-10
3.1692e-11
3.43391e-12
2.85613e-12
3.94593e-09
4.3329e-10
2.97054e-11
3.38979e-12
2.86453e-12
4.30963e-09
4.73293e-10
3.22424e-11
3.45514e-12
2.86367e-12
4.30052e-09
4.73712e-10
3.21224e-11
3.35896e-12
2.76181e-12
4.43166e-09
4.89761e-10
3.32015e-11
3.42963e-12
2.80902e-12
4.4313e-09
4.89759e-10
3.32004e-11
3.42844e-12
2.80779e-12
4.30081e-09
4.737e-10
3.21224e-11
3.35985e-12
2.76274e-12
4.31031e-09
4.73391e-10
3.22486e-11
3.45498e-12
2.86338e-12
4.30103e-09
4.73798e-10
3.21281e-11
3.35946e-12
2.76223e-12
4.43176e-09
4.89783e-10
3.32036e-11
3.4297e-12
2.80909e-12
4.43143e-09
4.89787e-10
3.32037e-11
3.42912e-12
2.80842e-12
4.30134e-09
4.73783e-10
3.21271e-11
3.35979e-12
2.76264e-12
7.76099e-07
7.33726e-07
7.92671e-07
1.03713e-06
2.09036e-07
9.85342e-07
4.15955e-07
5.28609e-08
2.08998e-07
9.84773e-07
2.11442e-07
4.15963e-07
2.50103e-08
1.08348e-07
3.94631e-08
2.07581e-07
1.78616e-07
4.62019e-08
1.77361e-07
4.62863e-08
3.9394e-08
2.21518e-08
5.29325e-08
1.03459e-07
1.03627e-07
2.21283e-08
3.94431e-08
2.07549e-07
4.61899e-08
1.7852e-07
4.62746e-08
1.77272e-07
3.93733e-08
2.50359e-08
1.78977e-07
2.87717e-07
1.08523e-07
5.0529e-08
2.87957e-07
5.06144e-08
1.79763e-07
1.79833e-07
2.92605e-07
2.93255e-07
1.8018e-07
6.92585e-08
2.19448e-08
2.19599e-08
6.91143e-08
3.29221e-07
7.348e-07
4.49433e-07
4.58491e-07
4.5803e-07
4.65253e-07
3.27847e-07
1.05462e-06
1.02607e-06
1.05396e-06
1.05483e-06
1.02609e-06
6.28924e-07
4.18151e-07
3.767e-07
6.81515e-07
3.78113e-07
7.04262e-07
6.13147e-07
5.50522e-07
4.00122e-07
2.10487e-07
2.95609e-07
2.95411e-07
4.04703e-07
5.40304e-07
6.29755e-07
4.18155e-07
6.82705e-07
3.76649e-07
7.05517e-07
3.77978e-07
6.13888e-07
5.65572e-07
4.09737e-07
4.13116e-07
5.60562e-07
7.33823e-07
7.90442e-07
7.77592e-07
1.03764e-06
2.56265e-08
2.50379e-08
1.11406e-07
1.08413e-07
5.4759e-08
2.18366e-07
2.17591e-07
1.0019e-06
4.35579e-07
5.29145e-08
2.11609e-07
2.564e-08
2.50643e-08
1.79892e-07
2.92803e-07
1.11531e-07
5.18404e-08
5.18897e-08
2.9345e-07
1.80469e-07
1.78554e-07
2.8774e-07
1.08585e-07
5.04629e-08
5.05286e-08
2.88005e-07
1.79295e-07
6.90476e-08
2.21144e-08
2.19022e-08
2.21337e-08
2.1925e-08
6.89132e-08
2.29494e-08
5.47996e-08
1.08472e-07
1.08554e-07
2.29451e-08
4.07705e-08
2.18028e-07
4.78855e-08
1.86257e-07
4.79177e-08
1.85935e-07
4.07424e-08
2.21678e-08
5.2986e-08
1.03558e-07
1.03724e-07
2.21443e-08
3.29838e-07
7.34884e-07
4.55675e-07
4.52134e-07
4.62481e-07
4.60778e-07
3.28331e-07
1.05403e-06
5.66586e-07
4.11097e-07
2.17359e-07
3.06618e-07
4.14401e-07
3.07141e-07
5.61678e-07
6.49831e-07
4.37571e-07
3.93512e-07
7.2122e-07
3.9516e-07
7.28245e-07
6.44458e-07
5.49739e-07
3.98908e-07
2.10648e-07
2.95794e-07
4.03553e-07
2.95653e-07
5.39398e-07
4.22936e-09
4.68436e-10
3.16879e-11
3.2559e-12
2.66111e-12
4.18603e-09
4.61141e-10
3.14951e-11
3.45107e-12
2.88097e-12
4.23335e-09
4.64709e-10
3.1688e-11
3.43274e-12
2.8551e-12
4.2302e-09
4.68459e-10
3.1691e-11
3.25875e-12
2.66422e-12
4.18735e-09
4.6122e-10
3.15022e-11
3.45476e-12
2.88494e-12
4.26532e-09
4.694e-10
3.18525e-11
3.36036e-12
2.77128e-12
4.39369e-09
4.85347e-10
3.2925e-11
3.42544e-12
2.81226e-12
4.39713e-09
4.85648e-10
3.29477e-11
3.43252e-12
2.81959e-12
4.26221e-09
4.69136e-10
3.18324e-11
3.35382e-12
2.76447e-12
4.26346e-09
4.69177e-10
3.1839e-11
3.36024e-12
2.77149e-12
4.39269e-09
4.85236e-10
3.29179e-11
3.42521e-12
2.8122e-12
4.39613e-09
4.85538e-10
3.29407e-11
3.43231e-12
2.81956e-12
4.26034e-09
4.68914e-10
3.18191e-11
3.35372e-12
2.76469e-12
4.23177e-09
4.64604e-10
3.16791e-11
3.42858e-12
2.85068e-12
4.22796e-09
4.66627e-10
3.15669e-11
3.27461e-12
2.6852e-12
4.22864e-09
4.66666e-10
3.15725e-11
3.2794e-12
2.69044e-12
3.91433e-09
4.29652e-10
2.94694e-11
3.38079e-12
2.86154e-12
3.91485e-09
4.29671e-10
2.94737e-11
3.38533e-12
2.86653e-12
4.24017e-09
4.67371e-10
3.18972e-11
3.46542e-12
2.885e-12
4.19058e-09
4.61607e-10
3.15207e-11
3.4508e-12
2.88007e-12
4.3007e-09
4.76572e-10
3.22095e-11
3.27375e-12
2.66549e-12
4.23334e-09
4.68859e-10
3.17143e-11
3.25706e-12
2.66151e-12
4.24026e-09
4.67332e-10
3.1895e-11
3.46595e-12
2.88567e-12
4.19213e-09
4.61712e-10
3.15294e-11
3.45461e-12
2.88412e-12
4.31167e-09
4.73537e-10
3.22585e-11
3.45604e-12
2.86418e-12
4.29973e-09
4.76408e-10
3.21985e-11
3.27236e-12
2.66425e-12
4.23418e-09
4.68884e-10
3.17177e-11
3.25992e-12
2.66463e-12
3.93145e-09
4.31657e-10
2.95993e-11
3.38444e-12
2.86192e-12
3.90779e-09
4.28998e-10
2.94312e-11
3.37999e-12
2.86181e-12
4.2365e-09
4.65065e-10
3.17104e-11
3.43381e-12
2.85558e-12
4.2349e-09
4.64958e-10
3.17013e-11
3.42965e-12
2.85114e-12
4.28933e-09
4.73394e-10
3.19933e-11
3.28908e-12
2.68896e-12
4.29011e-09
4.7343e-10
3.19968e-11
3.29132e-12
2.6914e-12
4.22624e-09
4.66472e-10
3.15568e-11
3.27402e-12
2.68499e-12
4.22797e-09
4.66604e-10
3.15675e-11
3.27833e-12
2.68954e-12
3.90939e-09
4.29117e-10
2.94409e-11
3.38401e-12
2.86606e-12
3.93261e-09
4.31732e-10
2.96057e-11
3.38756e-12
2.86527e-12
4.30422e-09
4.74073e-10
3.21451e-11
3.35987e-12
2.76228e-12
4.43399e-09
4.90054e-10
3.32184e-11
3.42863e-12
2.80756e-12
4.43439e-09
4.90059e-10
3.3219e-11
3.42934e-12
2.80836e-12
4.3039e-09
4.74084e-10
3.21456e-11
3.35944e-12
2.76176e-12
4.31264e-09
4.73692e-10
3.22694e-11
3.45764e-12
2.86566e-12
7.35073e-07
1.03789e-06
7.71337e-07
7.86598e-07
7.3502e-07
7.33633e-07
7.35068e-07
7.87406e-07
7.87009e-07
7.34588e-07
7.71382e-07
7.66562e-07
7.67378e-07
7.33815e-07
7.86994e-07
1.08872e-07
1.11434e-07
7.34025e-07
1.08611e-07
1.11251e-07
2.13818e-07
5.47906e-08
2.17687e-07
2.56075e-08
2.54629e-08
5.29943e-08
2.08064e-07
1.03776e-06
1.0368e-06
1.03717e-06
2.11041e-07
9.85024e-07
7.87004e-07
4.17651e-07
2.50165e-08
1.00357e-06
2.17571e-07
4.37323e-07
1.08888e-07
1.11442e-07
2.50594e-08
2.50363e-08
2.56635e-08
2.56512e-08
7.35164e-07
1.08624e-07
1.11255e-07
1.08872e-07
1.11439e-07
2.50388e-08
2.50581e-08
2.56518e-08
2.56635e-08
2.56359e-08
2.50602e-08
1.11528e-07
1.08633e-07
2.1376e-07
5.47457e-08
5.40948e-08
2.17635e-07
4.25321e-07
2.17432e-07
1.00467e-06
9.95688e-07
4.37211e-07
4.25224e-07
2.17206e-07
1.00461e-06
7.86784e-07
2.15102e-07
9.95511e-07
4.37123e-07
1.11222e-07
1.08753e-07
7.33724e-07
1.10386e-07
2.50529e-08
2.11093e-07
9.85208e-07
4.17687e-07
5.29251e-08
2.08016e-07
9.84477e-07
2.10802e-07
4.17677e-07
5.29632e-08
2.08033e-07
9.84579e-07
2.11093e-07
4.1771e-07
5.29648e-08
2.08025e-07
1.08466e-07
1.11433e-07
2.56383e-08
1.00379e-06
2.1771e-07
4.37326e-07
5.48006e-08
2.18026e-07
5.48372e-08
2.18035e-07
2.50587e-08
2.5664e-08
6.90938e-08
2.19789e-08
2.20751e-08
2.19969e-08
2.20909e-08
6.8946e-08
1.79178e-07
2.89133e-07
5.12347e-08
1.08624e-07
5.11712e-08
1.78752e-07
2.88771e-07
1.80497e-07
2.9272e-07
5.1249e-08
1.11257e-07
5.11978e-08
1.80201e-07
2.92079e-07
6.89563e-08
2.19977e-08
2.20916e-08
2.19786e-08
2.20747e-08
6.90941e-08
1.78786e-07
5.11685e-08
1.08871e-07
2.88767e-07
5.12327e-08
1.79094e-07
2.89131e-07
1.80247e-07
5.11953e-08
1.11437e-07
2.92066e-07
5.12473e-08
1.80434e-07
2.92715e-07
4.01382e-08
4.68892e-08
1.82413e-07
2.15188e-07
4.71126e-08
1.8363e-07
3.99614e-08
2.28964e-08
5.48565e-08
1.08637e-07
1.08297e-07
2.29442e-08
2.27162e-08
5.43906e-08
1.0715e-07
4.04875e-08
2.16985e-07
4.78138e-08
1.85848e-07
4.75315e-08
1.85122e-07
4.07313e-08
2.56562e-08
2.5521e-08
2.21467e-08
5.28983e-08
1.03774e-07
1.03517e-07
2.21638e-08
3.9395e-08
2.08498e-07
1.77839e-07
4.62805e-08
1.78147e-07
4.62029e-08
3.94619e-08
2.49967e-08
1.78936e-07
2.89334e-07
5.12441e-08
1.08628e-07
1.79014e-07
2.88491e-07
5.11647e-08
1.80279e-07
2.92846e-07
5.12558e-08
1.11256e-07
1.80428e-07
2.91901e-07
5.11897e-08
6.894e-08
2.19964e-08
2.20905e-08
6.91248e-08
2.19801e-08
2.20756e-08
2.5036e-08
2.50584e-08
2.56514e-08
2.56632e-08
6.89456e-08
2.19971e-08
2.2091e-08
6.91006e-08
2.19806e-08
2.20764e-08
1.78889e-07
2.88646e-07
5.11727e-08
1.0888e-07
1.78992e-07
5.1237e-08
2.89204e-07
1.8032e-07
2.92003e-07
5.11965e-08
1.11441e-07
1.80317e-07
5.12498e-08
2.92769e-07
6.91174e-08
2.19816e-08
2.20772e-08
6.89476e-08
2.19972e-08
2.2091e-08
1.79023e-07
5.12323e-08
2.89164e-07
1.08612e-07
1.788e-07
5.11703e-08
2.88635e-07
1.80359e-07
5.12467e-08
2.92733e-07
1.11252e-07
1.8026e-07
5.11964e-08
2.91981e-07
2.50579e-08
2.50379e-08
2.56639e-08
2.56515e-08
2.56849e-08
2.5552e-08
2.50402e-08
1.80202e-07
2.9345e-07
1.11513e-07
5.18877e-08
5.18365e-08
2.9272e-07
1.80088e-07
1.78941e-07
2.88197e-07
1.08369e-07
5.05269e-08
5.04559e-08
2.87476e-07
1.78841e-07
1.1131e-07
2.93386e-07
6.88958e-08
2.21304e-08
2.19209e-08
2.21153e-08
2.19042e-08
6.90447e-08
4.01183e-08
4.68783e-08
1.82304e-07
2.15136e-07
4.71017e-08
1.83525e-07
3.99415e-08
2.28788e-08
5.48118e-08
1.08561e-07
1.0822e-07
2.29267e-08
2.26985e-08
1.06449e-07
5.43447e-08
1.07071e-07
2.26372e-08
4.04673e-08
2.16928e-07
4.7804e-08
1.85736e-07
4.75203e-08
1.85017e-07
4.07119e-08
6.91766e-08
2.21212e-08
2.21296e-08
2.20009e-08
1.79919e-07
2.9227e-07
1.11178e-07
5.11762e-08
5.11336e-08
2.91548e-07
1.80185e-07
1.78982e-07
2.88647e-07
1.08541e-07
5.12387e-08
2.88051e-07
5.1144e-08
1.78316e-07
1.79283e-07
5.12523e-08
1.10985e-07
2.90736e-07
5.1381e-08
2.91929e-07
1.79647e-07
1.79491e-07
1.08738e-07
2.89014e-07
5.11271e-08
6.89747e-08
2.2085e-08
2.2006e-08
2.20725e-08
2.19871e-08
6.91074e-08
2.50338e-08
2.5055e-08
2.21294e-08
5.28295e-08
1.03663e-07
1.03408e-07
2.21461e-08
3.93728e-08
2.08447e-07
4.62677e-08
1.77716e-07
4.61902e-08
1.78025e-07
3.94394e-08
3.94418e-08
2.08187e-07
1.77889e-07
4.62685e-08
2.2132e-08
5.28688e-08
1.03699e-07
1.03447e-07
2.21482e-08
2.21477e-08
5.29638e-08
1.03697e-07
3.9372e-08
2.08442e-07
1.77752e-07
4.62643e-08
1.78042e-07
4.6185e-08
3.94387e-08
3.94415e-08
2.08184e-07
4.62677e-08
1.77875e-07
2.21323e-08
5.28698e-08
1.0369e-07
1.03435e-07
2.2149e-08
2.21485e-08
5.29652e-08
1.03688e-07
3.93707e-08
2.08436e-07
4.62633e-08
1.77732e-07
4.61843e-08
1.7803e-07
3.94382e-08
1.78762e-07
2.87725e-07
1.08208e-07
5.05214e-08
5.0433e-08
2.86877e-07
1.78977e-07
1.79304e-07
2.92728e-07
1.11252e-07
5.19025e-08
2.91786e-07
5.18329e-08
1.79365e-07
6.8927e-08
2.19388e-08
2.21655e-08
2.19214e-08
2.21403e-08
6.91253e-08
2.56259e-08
2.29385e-08
5.47503e-08
1.08543e-07
1.08415e-07
2.29368e-08
4.07118e-08
2.18222e-07
1.85958e-07
4.78907e-08
1.86009e-07
4.7858e-08
4.07411e-08
2.29435e-08
5.47826e-08
1.08591e-07
1.08461e-07
2.29431e-08
4.07209e-08
2.18241e-07
1.86002e-07
4.78929e-08
1.86058e-07
4.7861e-08
4.07505e-08
2.50386e-08
2.50583e-08
2.56516e-08
3.28592e-07
4.57505e-07
4.626e-07
7.3412e-07
3.29883e-07
4.51359e-07
4.57876e-07
1.05457e-06
1.05458e-06
1.02606e-06
3.28505e-07
4.55442e-07
4.61013e-07
7.34204e-07
3.29918e-07
4.521e-07
4.58566e-07
3.29856e-07
7.35015e-07
4.54688e-07
4.6024e-07
3.28634e-07
4.58682e-07
4.63085e-07
3.28297e-07
4.61128e-07
4.57175e-07
7.34094e-07
4.5667e-07
4.53147e-07
3.29782e-07
3.27556e-07
4.59197e-07
4.58059e-07
7.33565e-07
4.53856e-07
4.54946e-07
3.29059e-07
3.26962e-07
4.5287e-07
4.61216e-07
7.32806e-07
4.58654e-07
4.4957e-07
3.28327e-07
3.29843e-07
7.35293e-07
4.53724e-07
4.59474e-07
3.28628e-07
4.59241e-07
4.63608e-07
1.05457e-06
1.05447e-06
1.02603e-06
1.05381e-06
1.05479e-06
1.02606e-06
1.05391e-06
1.05491e-06
1.02608e-06
5.40448e-07
4.01e-07
2.11095e-07
2.95742e-07
3.99448e-07
2.95265e-07
5.43226e-07
5.48103e-07
2.11192e-07
4.03587e-07
2.95837e-07
6.14238e-07
4.16012e-07
3.77895e-07
6.90493e-07
3.76513e-07
6.83073e-07
6.18515e-07
5.61199e-07
4.10258e-07
2.17283e-07
3.07135e-07
4.09639e-07
3.06487e-07
5.60607e-07
6.45135e-07
4.356e-07
7.24273e-07
3.94864e-07
7.20341e-07
3.93504e-07
6.45381e-07
3.28548e-07
7.33959e-07
4.56552e-07
4.61828e-07
3.29846e-07
4.51555e-07
4.58046e-07
6.44232e-07
3.85031e-07
7.10784e-07
4.30754e-07
3.89733e-07
7.21529e-07
6.37141e-07
5.63711e-07
4.12973e-07
2.1764e-07
3.07387e-07
3.06054e-07
4.12201e-07
5.63997e-07
5.60811e-07
2.16412e-07
3.04458e-07
4.11866e-07
6.43997e-07
4.33459e-07
3.9533e-07
7.24663e-07
3.91719e-07
7.18753e-07
6.4637e-07
6.44054e-07
3.8486e-07
7.10672e-07
4.30662e-07
3.89549e-07
7.21425e-07
6.36964e-07
5.63376e-07
4.12048e-07
2.1741e-07
3.07211e-07
3.0588e-07
4.11377e-07
5.63605e-07
5.60378e-07
3.01573e-07
2.16193e-07
4.07693e-07
3.04274e-07
5.53538e-07
4.10919e-07
6.43902e-07
4.33367e-07
3.95155e-07
7.24667e-07
3.91551e-07
7.18744e-07
6.4628e-07
3.288e-07
7.3413e-07
4.54709e-07
4.57078e-07
4.60038e-07
4.59381e-07
3.27273e-07
5.40569e-07
4.00628e-07
2.1113e-07
2.95909e-07
2.95414e-07
3.99149e-07
5.43351e-07
6.14434e-07
4.16048e-07
3.78037e-07
6.90569e-07
3.76633e-07
6.83182e-07
6.1876e-07
5.40845e-07
4.01086e-07
2.10832e-07
2.95589e-07
2.95153e-07
3.99839e-07
5.4353e-07
6.14965e-07
4.16048e-07
6.91699e-07
3.77843e-07
6.84243e-07
3.76525e-07
6.19392e-07
5.41306e-07
4.02242e-07
2.11131e-07
2.95713e-07
4.00955e-07
2.95264e-07
5.44001e-07
6.15167e-07
4.1607e-07
6.91853e-07
3.77904e-07
6.84343e-07
3.76568e-07
6.19601e-07
5.61424e-07
4.10227e-07
2.17393e-07
3.07304e-07
4.09625e-07
3.06635e-07
5.60888e-07
6.45275e-07
4.3561e-07
7.24383e-07
3.94976e-07
7.20389e-07
3.93583e-07
6.45659e-07
1.03763e-06
7.7749e-07
7.92676e-07
7.34909e-07
1.03764e-06
7.77519e-07
7.9267e-07
7.34865e-07
1.03763e-06
7.77498e-07
7.92661e-07
7.34956e-07
1.0376e-06
7.77533e-07
7.92589e-07
7.35031e-07
1.03785e-06
7.7798e-07
7.93205e-07
7.35855e-07
1.03769e-06
7.7867e-07
7.93515e-07
7.37667e-07
1.03747e-06
7.78276e-07
7.93237e-07
7.35368e-07
1.03786e-06
7.78222e-07
7.93058e-07
7.36192e-07
1.03884e-06
7.78424e-07
7.93361e-07
7.36171e-07
1.03947e-06
7.78914e-07
7.93752e-07
7.3628e-07
1.03927e-06
7.78741e-07
7.93429e-07
7.36473e-07
1.03853e-06
7.77963e-07
7.92612e-07
7.3598e-07
1.0382e-06
7.77216e-07
7.91886e-07
7.35631e-07
1.03784e-06
7.76098e-07
7.90778e-07
7.35209e-07
1.03771e-06
7.74918e-07
7.89681e-07
7.35001e-07
1.03769e-06
7.73469e-07
7.88361e-07
7.33669e-07
7.90434e-07
7.8983e-07
7.3279e-07
7.77596e-07
7.76107e-07
7.77477e-07
7.76356e-07
7.33529e-07
7.9266e-07
7.92582e-07
7.33664e-07
7.34893e-07
7.3365e-07
7.90432e-07
7.89866e-07
7.90438e-07
7.89874e-07
7.34042e-07
7.33168e-07
7.77588e-07
7.76069e-07
7.77595e-07
7.76091e-07
7.76356e-07
7.77526e-07
7.76367e-07
7.34752e-07
7.33409e-07
7.92586e-07
7.9264e-07
7.92581e-07
7.33658e-07
7.3488e-07
7.33721e-07
7.90446e-07
7.89832e-07
7.90456e-07
7.89858e-07
7.34346e-07
7.32851e-07
7.77599e-07
7.76062e-07
7.77613e-07
7.7608e-07
7.76363e-07
7.77497e-07
7.76371e-07
7.34642e-07
7.33346e-07
7.92582e-07
7.92664e-07
7.92628e-07
7.33744e-07
7.3494e-07
7.33818e-07
7.90444e-07
7.89886e-07
7.90425e-07
7.89882e-07
7.3409e-07
7.3331e-07
7.77587e-07
7.76007e-07
7.77583e-07
7.76012e-07
7.76362e-07
7.77537e-07
7.76366e-07
7.34542e-07
7.33208e-07
7.92616e-07
7.9258e-07
7.9259e-07
7.33803e-07
7.3505e-07
7.34899e-07
7.90433e-07
7.89844e-07
7.90977e-07
7.90064e-07
7.34498e-07
7.33676e-07
7.77583e-07
7.75967e-07
7.78107e-07
7.76432e-07
7.76355e-07
7.77674e-07
7.76552e-07
7.34441e-07
7.34008e-07
7.9258e-07
7.92911e-07
7.92837e-07
7.3455e-07
7.36259e-07
7.36524e-07
7.91274e-07
7.90386e-07
7.91616e-07
7.90993e-07
7.35002e-07
7.35701e-07
7.78429e-07
7.76698e-07
7.78823e-07
7.77067e-07
7.76854e-07
7.78662e-07
7.77542e-07
7.35366e-07
7.35389e-07
7.93129e-07
7.93531e-07
7.93724e-07
7.36375e-07
7.37544e-07
7.34241e-07
7.91563e-07
7.90976e-07
7.91316e-07
7.90756e-07
7.3698e-07
7.3385e-07
7.78738e-07
7.76948e-07
7.78433e-07
7.76652e-07
7.77538e-07
7.78335e-07
7.77202e-07
7.36418e-07
7.33296e-07
7.93716e-07
7.93276e-07
7.93437e-07
7.34407e-07
7.35552e-07
7.34792e-07
7.91278e-07
7.90714e-07
7.91208e-07
7.90663e-07
7.34824e-07
7.34616e-07
7.78401e-07
7.76568e-07
7.78354e-07
7.76505e-07
7.7713e-07
7.78316e-07
7.77158e-07
7.34593e-07
7.33617e-07
7.93367e-07
7.93113e-07
7.93342e-07
7.35285e-07
7.35605e-07
7.35199e-07
7.91162e-07
7.90581e-07
7.9147e-07
7.90809e-07
7.35556e-07
7.34211e-07
7.78277e-07
7.76374e-07
7.78648e-07
7.76773e-07
7.77014e-07
7.78448e-07
7.77242e-07
7.3446e-07
7.34097e-07
7.93241e-07
7.93349e-07
7.93458e-07
7.34772e-07
7.36417e-07
7.35335e-07
7.91533e-07
7.90877e-07
7.92132e-07
7.91457e-07
7.35576e-07
7.34433e-07
7.7864e-07
7.767e-07
7.79341e-07
7.77451e-07
7.77176e-07
7.79081e-07
7.77913e-07
7.35285e-07
7.34166e-07
7.93442e-07
7.93999e-07
7.9413e-07
7.35065e-07
7.36561e-07
7.35351e-07
7.92002e-07
7.91345e-07
7.92221e-07
7.91663e-07
7.35646e-07
7.34812e-07
7.79107e-07
7.7706e-07
7.79506e-07
7.77619e-07
7.77625e-07
7.79414e-07
7.78305e-07
7.35395e-07
7.34128e-07
7.93904e-07
7.94144e-07
7.94408e-07
7.35389e-07
7.36439e-07
7.34766e-07
7.91753e-07
7.91258e-07
7.91761e-07
7.91275e-07
7.35866e-07
7.34199e-07
7.78784e-07
7.76646e-07
7.791e-07
7.77296e-07
7.77413e-07
7.79117e-07
7.78105e-07
7.35213e-07
7.33564e-07
7.93708e-07
7.93778e-07
7.94148e-07
7.34832e-07
7.35906e-07
7.34461e-07
7.91083e-07
7.90579e-07
7.91601e-07
7.91124e-07
7.35343e-07
7.33994e-07
7.77939e-07
7.75678e-07
7.79169e-07
7.77511e-07
7.76513e-07
7.79158e-07
7.7828e-07
7.34695e-07
7.33286e-07
7.92946e-07
7.93845e-07
7.9417e-07
7.34439e-07
7.35647e-07
7.33969e-07
7.90551e-07
7.90115e-07
7.91405e-07
7.90978e-07
7.35136e-07
7.33481e-07
7.77224e-07
7.74774e-07
7.79277e-07
7.77927e-07
7.75595e-07
7.79347e-07
7.78775e-07
7.34457e-07
7.32822e-07
7.92206e-07
7.94015e-07
7.94397e-07
7.34062e-07
7.3512e-07
7.33805e-07
7.89786e-07
7.89363e-07
7.9159e-07
7.91112e-07
7.34626e-07
7.33358e-07
7.76035e-07
7.73325e-07
7.80078e-07
7.79142e-07
7.74186e-07
7.80072e-07
7.79888e-07
7.3398e-07
7.32634e-07
7.91146e-07
7.94718e-07
7.95046e-07
7.33773e-07
7.35055e-07
7.33822e-07
7.8927e-07
7.88851e-07
7.92151e-07
7.91647e-07
7.34561e-07
7.3322e-07
7.74962e-07
7.71779e-07
7.81572e-07
7.81282e-07
7.72556e-07
7.81551e-07
7.82033e-07