/*--------------------------------*- C++ -*----------------------------------*\
| =========                 |                                                 |
| \\      /  F ield         | OpenFOAM: The Open Source CFD Toolbox           |
|  \\    /   O peration     | Version:  2206                                  |
|   \\  /    A nd           | Website:  www.openfoam.com                      |
|    \\/     M anipulation  |                                                 |
\*---------------------------------------------------------------------------*/
FoamFile
{
    version     2.0;
    format      ascii;
    arch        "LSB;label=32;scalar=64";
    class       surfaceScalarField;
    location    "0.5";
    object      phi;
}
// * * * * * * * * * * * * * * * * * * * * * * * * * * * * * * * * * * * * * //

dimensions      [0 3 -1 0 0 0 0];

oriented        oriented;

internalField   nonuniform List<scalar> 
198714
(
-1.25296e-12
1.10903e-12
-6.89601e-13
8.32518e-13
-1.17998e-07
1.17998e-07
-3.82276e-11
-1.51612e-12
-8.15489e-13
2.80034e-11
3.94886e-11
-2.31639e-11
-5.74443e-11
5.68369e-11
-6.01423e-11
5.86006e-11
1.12864e-07
-4.30235e-11
3.87364e-13
4.07274e-13
1.39068e-11
4.35571e-11
-1.47849e-11
4.33918e-12
2.43808e-11
-2.53378e-11
-3.6501e-12
-1.13939e-07
1.13939e-07
2.84422e-11
4.36732e-11
4.90279e-11
3.23692e-11
2.73763e-08
3.51425e-11
3.80074e-11
4.02518e-11
4.03568e-11
2.73643e-08
-2.75181e-08
9.0158e-13
8.57405e-12
3.58739e-11
-9.81705e-12
2.46375e-11
2.2622e-11
-2.42298e-11
-2.47635e-11
-1.1499e-07
1.1499e-07
-3.51621e-11
1.70964e-12
1.43109e-12
8.82835e-12
3.55242e-11
-1.4686e-11
2.46039e-11
2.23672e-11
-2.13879e-11
-2.48457e-11
1.15027e-07
3.99052e-11
4.09649e-11
2.73654e-08
-7.4902e-13
2.82092e-11
3.94012e-11
-2.79804e-11
-5.75031e-11
5.65224e-11
-5.74567e-11
5.85577e-11
-1.12877e-07
1.12877e-07
-2.83462e-11
-2.87874e-13
-3.87492e-13
2.39732e-11
3.0018e-11
-2.42321e-11
-3.63347e-11
5.52836e-11
-5.6633e-11
3.65991e-11
-1.13924e-07
1.13925e-07
-2.5342e-13
-5.48318e-13
2.42623e-11
3.01148e-11
-2.41419e-11
-3.67034e-11
5.58808e-11
-5.71294e-11
3.69248e-11
1.13919e-07
4.81001e-11
3.30951e-11
2.73712e-08
-2.75238e-08
4.16971e-13
4.25771e-13
1.40134e-11
4.4133e-11
-1.50781e-11
4.55436e-12
2.4253e-11
-2.52739e-11
-3.86316e-12
1.13979e-07
1.00033e-12
-4.85425e-12
1.43205e-08
-2.02496e-12
-1.52565e-12
-1.43131e-08
1.28992e-14
-1.6777e-11
2.12176e-08
5.17957e-12
2.01035e-12
-2.1208e-08
-8.97021e-13
-2.6001e-12
7.17941e-09
-1.90194e-12
1.91036e-12
-1.23417e-11
1.39964e-08
-3.0575e-12
-1.36465e-12
-1.39815e-08
-4.95688e-11
2.00699e-15
2.05621e-08
4.33103e-12
1.53367e-11
-2.05322e-08
-8.38369e-13
9.35115e-13
1.17998e-07
6.64974e-13
-5.55483e-13
-1.18302e-07
1.18302e-07
5.13066e-13
-5.64233e-13
1.18324e-07
1.08141e-11
1.21667e-11
-2.31931e-11
2.1598e-08
-1.72162e-11
5.00671e-13
-1.65627e-12
-9.85608e-11
1.33356e-10
-1.32416e-10
9.83412e-11
1.15861e-07
4.95421e-11
1.45138e-13
2.45929e-08
1.09589e-11
-9.19952e-11
-1.98013e-12
-5.05206e-12
7.03614e-09
-1.64465e-12
-7.02747e-09
4.12479e-13
1.93271e-12
3.58298e-12
-6.9733e-12
6.83902e-12
-4.4438e-12
1.15351e-07
5.42397e-12
4.90593e-12
-1.55771e-12
2.19808e-08
-9.39952e-12
1.46176e-13
1.64171e-11
2.5235e-08
-1.71105e-11
5.14927e-12
-1.08392e-11
5.14678e-12
-2.22357e-11
2.24076e-08
4.00621e-12
-5.65339e-12
3.11211e-12
-1.4449e-11
2.25442e-08
1.99507e-12
-2.98464e-12
7.18027e-09
-1.7518e-12
-7.17453e-09
-5.20616e-12
7.03735e-09
-1.5573e-12
-7.02868e-09
-5.95111e-12
-1.46065e-11
2.27212e-08
2.04886e-12
-2.27056e-08
-1.06181e-11
-2.22154e-11
2.22354e-08
4.16189e-12
-2.22119e-08
-4.86107e-12
1.43218e-08
-1.80333e-12
-1.52387e-12
-1.67663e-11
2.12208e-08
5.37851e-12
2.02078e-12
-1.28726e-12
2.19721e-08
-9.62731e-12
-2.1972e-08
2.11057e-13
1.10311e-12
2.31247e-11
-7.43163e-12
7.44217e-12
-2.30772e-11
-1.17821e-07
1.1782e-07
1.43142e-13
2.5236e-08
5.13672e-12
-1.7349e-11
-2.52407e-08
5.75782e-12
-1.25021e-12
2.19639e-08
-9.34998e-12
1.24319e-12
2.31197e-11
-7.46046e-12
7.4286e-12
-2.31225e-11
1.17837e-07
2.52394e-08
5.04964e-12
-1.70065e-11
-1.46282e-11
2.25973e-08
2.0706e-12
5.23299e-12
-2.25619e-11
2.2359e-08
3.99608e-12
-1.84159e-12
7.03832e-09
-1.43847e-12
-2.28825e-11
2.15853e-08
-1.69991e-11
-2.15683e-08
6.55684e-13
-1.50573e-12
-9.85833e-11
1.33683e-10
-1.32425e-10
9.8642e-11
-1.15858e-07
1.15857e-07
1.71426e-13
2.45914e-08
1.09086e-11
-9.2014e-11
-2.456e-08
-1.22686e-11
1.3992e-08
-3.15896e-12
-1.38237e-12
-1.39772e-08
-4.95929e-11
2.05588e-08
1.53592e-11
4.29751e-12
-2.05289e-08
-1.81802e-12
-7.92971e-11
1.32832e-10
-1.32122e-10
8.02633e-11
-1.1708e-07
1.1708e-07
1.08655e-11
-2.28385e-11
2.15709e-08
-1.70882e-11
-2.15541e-08
2.45886e-08
-9.20222e-11
1.07962e-11
-2.45568e-08
1.39978e-08
-3.01995e-12
-1.37114e-12
1.19443e-15
2.05632e-08
4.34809e-12
1.53125e-11
-1.89673e-12
-7.93399e-11
1.32797e-10
-1.32158e-10
8.02327e-11
1.17081e-07
1.22811e-11
-2.29317e-11
2.15832e-08
-1.69775e-11
4.95509e-11
2.45899e-08
-9.1984e-11
1.07869e-11
1.93624e-12
1.39935e-08
-3.12077e-12
-1.38019e-12
2.05596e-08
1.53264e-11
4.28696e-12
-2.199e-11
2.22841e-08
4.09953e-12
-2.22605e-08
3.02036e-12
-1.51596e-11
2.26679e-08
2.21376e-12
-7.32591e-13
7.18053e-09
-1.64881e-12
2.04623e-12
3.56758e-12
-6.9865e-12
6.57541e-12
-4.68005e-12
1.15364e-07
5.11122e-12
-1.20519e-12
2.19726e-08
-9.41535e-12
1.64262e-11
2.5238e-08
-1.71085e-11
5.07342e-12
1.43206e-08
-1.76926e-12
-1.51703e-12
1.03146e-14
2.12155e-08
1.98863e-12
4.9962e-12
7.78506e-13
1.43225e-08
-1.78785e-12
-1.51869e-12
2.12192e-08
1.95361e-12
4.79947e-12
7.03711e-09
-1.58784e-12
7.18036e-09
-1.72518e-12
-1.21495e-13
-5.95315e-09
9.33059e-13
2.1744e-12
5.95016e-09
1.86423e-12
-1.14936e-12
5.26789e-12
1.42246e-12
1.43131e-08
2.18805e-08
-1.95048e-13
-3.33445e-12
-9.45319e-12
-2.18695e-08
3.20571e-12
9.49412e-12
2.18695e-08
-1.04436e-12
-2.13778e-12
-5.95016e-09
6.0155e-13
3.87824e-12
-1.07348e-08
8.71476e-13
1.07304e-08
-5.1109e-12
-1.96999e-12
6.51632e-15
1.66544e-11
2.1208e-08
1.30546e-08
6.4719e-13
3.09679e-15
-8.44235e-13
-1.30492e-08
2.01248e-08
3.98552e-12
-1.42638e-11
-2.01159e-08
9.15074e-15
8.60616e-13
1.30492e-08
1.40642e-11
2.01159e-08
-8.26979e-13
-1.07304e-08
1.03559e-12
2.89073e-12
1.55355e-12
7.17393e-09
-1.23656e-11
-1.01273e-12
1.74833e-12
-1.04022e-08
-7.34074e-13
1.04146e-08
4.32865e-12
1.53262e-11
-2.05321e-08
-7.09939e-15
2.05621e-08
-4.95682e-11
6.38676e-12
-1.95062e-08
1.95323e-08
-4.05696e-11
-1.26397e-08
-4.02751e-15
-7.07148e-13
1.26547e-08
3.44911e-12
-5.76801e-09
5.76081e-09
1.94793e-12
1.80835e-12
3.1578e-12
1.39815e-08
-2.08889e-12
1.24175e-11
1.36702e-12
2.12956e-08
3.67121e-12
-6.4076e-12
-2.56358e-11
-2.12703e-08
2.12703e-08
6.54999e-12
2.53408e-11
-1.75071e-12
-1.78517e-12
-5.76081e-09
-3.66917e-12
-1.7884e-12
5.76801e-09
-3.05681e-12
1.91257e-12
-1.3667e-12
1.39964e-08
-1.23431e-11
2.12956e-08
-2.56349e-11
1.25517e-11
1.12012e-12
-1.04146e-08
6.38013e-13
-4.31364e-12
-1.55304e-11
-1.44368e-14
4.97684e-11
1.95323e-08
1.23657e-11
-4.05668e-11
-1.95062e-08
1.26547e-08
1.01876e-12
-6.84482e-15
-7.0262e-13
-1.26397e-08
4.09226e-11
-7.20631e-15
6.16511e-13
-7.33374e-13
-1.04022e-08
7.02746e-09
2.07189e-12
5.05226e-12
1.55357e-12
-2.02179e-12
-1.73871e-12
7.03607e-09
-4.84896e-12
1.96228e-11
-1.07472e-11
-2.02916e-08
-1.24908e-11
2.29986e-11
2.02722e-08
2.39375e-08
2.01542e-11
-4.34452e-11
-3.16164e-11
2.23606e-11
-4.02323e-12
-4.9963e-12
1.05856e-11
2.23837e-08
1.35009e-08
-1.08723e-11
2.67898e-12
-8.26989e-13
4.36574e-11
3.09982e-11
2.39049e-08
-2.61285e-12
8.75346e-13
1.34878e-08
1.2936e-11
-2.30367e-11
1.69727e-11
-8.08889e-12
-1.94421e-08
-1.28403e-11
1.73326e-11
1.94287e-08
2.33606e-08
1.64176e-11
-3.01331e-11
-2.23181e-11
1.43086e-11
-2.52597e-12
-2.86668e-12
6.07872e-12
2.25292e-08
1.34095e-08
-8.41014e-12
2.07563e-12
-8.86357e-13
2.94928e-11
2.33694e-11
2.33391e-08
-2.28953e-12
8.93784e-13
1.34002e-08
1.26934e-11
-1.80671e-11
-3.18783e-12
-2.81179e-12
-1.59295e-08
1.59102e-08
5.83601e-09
-3.21455e-12
-1.30142e-12
5.87357e-09
-3.09046e-12
-1.37222e-12
1.39722e-12
5.82881e-09
1.43917e-12
5.86703e-09
2.94265e-12
1.64297e-12
7.17453e-09
7.02868e-09
4.93386e-12
1.6493e-12
-1.55865e-12
7.03735e-09
-5.20395e-12
-8.26117e-12
1.66129e-11
-2.03852e-08
-1.21201e-11
2.03676e-11
2.03686e-08
2.41695e-08
1.5955e-11
-3.21666e-11
-2.16142e-11
-2.41463e-08
-2.66649e-12
1.47263e-11
6.40333e-12
2.27056e-08
1.36333e-08
-8.52436e-12
1.84661e-12
-9.14325e-13
-1.36236e-08
-2.16141e-12
8.74794e-13
1.36236e-08
3.19236e-11
2.26243e-11
2.41463e-08
1.18772e-11
-2.10555e-11
-2.03686e-08
-1.07038e-11
2.03087e-11
-1.93543e-08
-1.29893e-11
1.94071e-11
1.93383e-08
2.31468e-08
2.10257e-11
-4.00033e-11
-3.17228e-11
-2.31183e-08
-4.06628e-12
2.21277e-11
1.03301e-11
2.22119e-08
1.32805e-08
-1.08841e-11
2.77154e-12
-7.92203e-13
-1.32674e-08
-2.59048e-12
8.86095e-13
1.32674e-08
3.98837e-11
3.10242e-11
2.31183e-08
1.35477e-11
-1.94405e-11
-1.93383e-08
-2.67877e-12
-3.33018e-12
-1.59309e-08
1.59118e-08
5.86963e-09
-3.03194e-12
-1.39526e-12
-5.86335e-09
5.83971e-09
-3.28892e-12
-1.27361e-12
-5.83238e-09
1.42957e-12
5.86335e-09
1.4098e-12
5.83238e-09
-1.59118e-08
-1.24563e-13
-5.95634e-09
9.38073e-13
2.17901e-12
5.95335e-09
1.61623e-12
5.28298e-12
1.41369e-12
1.43145e-08
2.18892e-08
-1.98791e-13
-3.37595e-12
-9.70352e-12
3.22836e-12
9.7273e-12
2.18777e-08
-1.0775e-12
-2.11632e-12
5.94058e-13
4.08092e-12
-1.07403e-08
8.7127e-13
1.07357e-08
-5.32118e-12
-1.96391e-12
1.66585e-11
2.12114e-08
1.30576e-08
6.56221e-13
-8.35443e-13
2.01325e-08
4.19125e-12
-1.42612e-11
8.54037e-13
1.3052e-08
1.40635e-11
2.01238e-08
-8.23673e-13
1.64455e-11
6.0132e-11
-1.94731e-08
-1.13685e-10
-1.11179e-10
1.96214e-08
2.37434e-08
1.36479e-11
-3.47034e-11
-2.16798e-11
-1.06585e-11
9.91794e-12
6.27614e-12
2.25947e-08
1.34005e-08
-1.04365e-11
9.86368e-14
-1.00584e-12
-2.31963e-11
5.02763e-13
1.34289e-08
-7.71524e-13
2.64762e-11
2.37877e-08
-9.66872e-13
-3.55421e-11
-2.28839e-11
-3.55923e-11
-2.02762e-08
9.63756e-11
1.41835e-10
2.00965e-08
2.3572e-08
2.3266e-11
-3.90193e-11
-3.23404e-11
2.69461e-11
4.36758e-12
-4.64042e-12
1.0445e-11
2.23219e-08
1.35106e-08
-1.00267e-11
4.68115e-12
-7.34932e-13
7.38302e-11
2.7793e-11
2.34744e-08
1.86787e-11
1.21126e-12
1.34595e-08
2.79089e-11
-6.8787e-12
1.84664e-11
-2.34884e-11
-1.59352e-08
1.5923e-08
5.87287e-09
-5.05825e-12
-1.29365e-12
5.83682e-09
-1.5663e-12
-1.17504e-12
1.2489e-12
5.86689e-09
1.73931e-12
5.83027e-09
2.04992e-12
1.72862e-12
7.02991e-09
-1.01977e-12
-1.24741e-11
1.82556e-12
-1.03967e-08
-6.88877e-13
1.0409e-08
1.53431e-11
4.30584e-12
-2.05289e-08
2.05588e-08
-4.95848e-11
-1.26366e-08
-7.02453e-13
1.26517e-08
6.54782e-12
-1.9498e-08
1.95241e-08
-4.08189e-11
3.48951e-12
-5.76467e-09
5.75747e-09
1.88177e-12
1.8257e-12
3.07555e-12
1.39771e-08
1.24933e-11
1.33919e-12
2.1285e-08
3.61255e-12
-6.53857e-12
-2.55041e-11
-2.12597e-08
2.12597e-08
6.46659e-12
2.53618e-11
-1.81605e-12
-1.77642e-12
-5.75747e-09
-3.60864e-12
-1.76653e-12
5.76467e-09
-3.18129e-12
-1.382e-12
1.39919e-08
-1.2256e-11
2.1285e-08
-2.55194e-11
1.12352e-12
1.24231e-11
-1.0409e-08
6.82314e-13
-1.55084e-11
-4.3428e-12
4.97557e-11
1.26516e-08
1.0178e-12
-6.94776e-13
-1.26366e-08
1.95241e-08
1.24739e-11
-4.08155e-11
-1.9498e-08
6.21938e-13
4.06324e-11
-6.86781e-13
-1.03967e-08
3.27119e-12
-5.76809e-09
1.92391e-12
1.79647e-12
5.7611e-09
3.15469e-12
1.22243e-11
1.36271e-12
1.39831e-08
2.12967e-08
3.46635e-12
-6.33412e-12
-2.53961e-11
6.53053e-12
2.51483e-11
2.12714e-08
-1.70429e-12
-1.81765e-12
1.23766e-11
1.13168e-12
-1.04146e-08
6.31447e-13
1.04024e-08
-4.33346e-12
-1.55495e-11
-6.82816e-15
4.97994e-11
2.05333e-08
1.95333e-08
1.21594e-11
-4.0296e-11
1.26548e-08
1.01092e-12
-5.73049e-15
-7.1549e-13
4.0708e-11
1.95072e-08
-3.10639e-15
6.08742e-13
1.26398e-08
-7.45554e-13
3.50467e-12
-5.76492e-09
1.89058e-12
1.80814e-12
5.75772e-09
3.07518e-12
-2.07269e-12
1.25069e-11
1.34473e-12
1.39787e-08
2.12868e-08
3.6087e-12
-6.51418e-12
-2.55047e-11
6.47646e-12
2.53981e-11
2.12615e-08
-1.80414e-12
-1.78712e-12
1.12601e-12
1.2453e-11
-1.04094e-08
6.69806e-13
1.0397e-08
-1.55386e-11
-4.34655e-12
4.98016e-11
2.05297e-08
1.2652e-08
1.0066e-12
-7.09848e-13
1.9525e-08
1.24478e-11
-4.07741e-11
6.09775e-13
1.2637e-08
4.0686e-11
1.94989e-08
-7.01925e-13
-1.06187e-11
1.9871e-11
-1.93541e-08
-1.35011e-11
1.91561e-11
1.93392e-08
2.35109e-08
2.02457e-11
-4.14065e-11
-3.15862e-11
-2.34801e-08
-4.18734e-12
2.23589e-11
1.06388e-11
2.22604e-08
1.32668e-08
-1.09002e-11
2.6789e-12
-7.98638e-13
-1.32537e-08
-2.58425e-12
8.25177e-13
1.32538e-08
4.20607e-11
3.1157e-11
2.34799e-08
1.38132e-11
-1.90361e-11
-1.93395e-08
1.65988e-11
-8.77562e-12
-2.03938e-08
-1.16035e-11
2.12319e-11
2.03763e-08
2.37953e-08
1.63698e-11
-3.16806e-11
-2.2003e-11
-2.37732e-08
1.47792e-11
-2.60459e-12
-2.60481e-12
5.78123e-12
2.26526e-08
1.36462e-08
-9.08448e-12
2.02071e-12
-8.56946e-13
3.06027e-11
2.28363e-11
2.37733e-08
-2.14891e-12
9.65791e-13
1.3636e-08
1.14506e-11
-2.1908e-11
-2.03761e-08
-3.0141e-12
-2.89823e-12
-1.5934e-08
1.59148e-08
5.83858e-09
-3.27795e-12
-1.43006e-12
-5.8312e-09
5.87078e-09
-3.04904e-12
-1.18937e-12
1.34235e-12
5.83164e-09
1.59699e-12
5.86413e-09
-1.59151e-08
1.00973e-12
1.80422e-12
7.1751e-09
-3.52427e-13
-5.95256e-09
1.08672e-12
2.23348e-12
5.9496e-09
1.94865e-12
5.0607e-12
1.47438e-12
1.43131e-08
2.18791e-08
-9.92145e-14
-3.11764e-12
-9.56333e-12
3.36185e-12
9.23731e-12
2.18681e-08
-8.85325e-13
-2.17368e-12
4.12156e-12
6.8141e-13
-1.07336e-08
8.32774e-13
1.07291e-08
-2.06509e-12
-5.15163e-12
-4.28393e-15
1.66831e-11
2.1206e-08
2.01224e-08
3.91606e-12
-1.36262e-11
1.3053e-08
5.98811e-13
2.58062e-16
-8.9328e-13
1.39951e-11
2.01138e-08
-3.88526e-15
8.44149e-13
1.30476e-08
-9.22992e-13
-1.86914e-13
-5.95589e-09
1.11728e-12
2.24209e-12
5.95271e-09
1.95874e-12
-1.03154e-12
5.23871e-12
1.481e-12
1.43149e-08
2.18877e-08
7.24315e-14
-3.13359e-12
-9.56775e-12
3.40091e-12
9.21586e-12
2.18768e-08
-9.18609e-13
-2.17767e-12
4.10596e-12
6.79e-13
-1.07391e-08
8.36547e-13
1.07346e-08
-2.06991e-12
-4.9509e-12
1.6687e-11
2.12096e-08
2.01306e-08
3.93308e-12
-1.36505e-11
1.30559e-08
5.75278e-13
-8.92057e-13
1.39762e-11
2.01221e-08
8.43702e-13
1.30507e-08
-9.1326e-13
1.605e-12
7.02843e-09
1.7167e-12
7.17475e-09
4.2467e-13
4.57946e-14
-1.23202e-07
1.23202e-07
-7.17598e-13
9.93764e-14
-1.20689e-07
1.20689e-07
1.44103e-14
-2.90776e-13
-1.30706e-07
1.30706e-07
1.6251e-11
1.94624e-11
-2.32414e-08
2.3246e-08
2.6075e-08
1.71624e-11
2.5021e-08
1.93261e-11
-4.84529e-11
-3.08024e-11
2.75298e-08
2.60623e-08
2.5024e-08
1.47037e-11
2.12306e-11
-2.32324e-08
2.32362e-08
2.61786e-08
1.45118e-11
-2.61765e-08
2.49158e-08
2.21607e-11
-2.49094e-08
-3.89548e-11
-3.95339e-11
2.75181e-08
2.61765e-08
2.49094e-08
-2.32362e-08
-2.29563e-11
6.13381e-11
-2.324e-08
2.32323e-08
2.61274e-08
1.20347e-11
2.49674e-08
2.36965e-11
-4.61265e-11
-3.30138e-11
2.75195e-08
2.4949e-08
2.61403e-08
1.69599e-11
1.78103e-11
-2.32243e-08
2.32299e-08
2.60116e-08
1.87047e-11
-2.59997e-08
2.50612e-08
1.68241e-11
-2.50627e-08
-3.1265e-11
-4.76504e-11
2.75237e-08
2.50627e-08
2.59996e-08
-2.32297e-08
4.65315e-13
1.23206e-07
-8.53604e-13
8.44454e-14
1.20697e-07
-2.99124e-13
1.3071e-07
-1.1107e-12
-1.24421e-07
1.24421e-07
1.47259e-12
3.71436e-14
-1.1859e-07
1.1859e-07
4.75744e-14
-1.30851e-07
1.30851e-07
-1.23279e-12
1.2443e-07
1.44641e-12
1.18593e-07
1.30855e-07
-3.67541e-11
-4.3746e-11
-2.6162e-08
-2.61473e-11
2.62112e-08
2.50277e-08
-3.80639e-11
2.38887e-11
1.62303e-11
2.15806e-08
2.34761e-08
-4.46847e-11
-1.4904e-11
2.49825e-08
1.46159e-11
2.34591e-08
2.50151e-11
-7.04478e-11
1.78534e-11
-2.61619e-08
2.60897e-08
-1.03262e-11
9.17878e-11
-4.936e-14
2.45613e-08
2.38404e-08
-6.9787e-11
2.70624e-08
1.87551e-11
7.32062e-12
2.3815e-08
-6.90233e-12
2.70465e-08
-2.25877e-11
-3.61995e-12
-2.65608e-08
-5.37479e-11
2.66451e-08
2.5351e-08
-2.1817e-11
-2.53284e-08
2.37341e-12
9.12581e-12
2.19801e-08
2.39849e-08
-4.82794e-12
-5.9313e-12
2.53283e-08
6.49782e-12
2.39932e-08
5.39687e-11
-2.66451e-08
5.74399e-12
-1.11636e-11
-2.65684e-08
2.65237e-08
1.7323e-11
-4.96209e-12
-1.02315e-15
2.52393e-08
2.75842e-08
5.84221e-12
4.35339e-13
2.43935e-08
-1.01089e-11
-1.3251e-13
2.76143e-08
2.43979e-08
-3.3637e-12
-2.62681e-11
-2.65423e-08
8.61288e-12
2.65879e-08
2.53648e-08
-2.55199e-11
-2.53396e-08
9.12975e-12
2.64487e-12
2.1972e-08
2.39842e-08
-3.59906e-12
-9.52875e-12
-2.39902e-08
9.27331e-12
2.39902e-08
2.53396e-08
-8.31771e-12
-2.65878e-08
-9.47873e-12
8.96092e-12
-2.65792e-08
2.66115e-08
-4.92428e-12
1.68412e-11
-1.88714e-14
2.52408e-08
2.43955e-08
-1.01414e-11
-2.4404e-08
2.75845e-08
9.19927e-12
4.73747e-13
-2.76189e-08
2.44044e-08
-2.70801e-13
2.7618e-08
-2.66116e-08
-3.3658e-12
-2.65568e-11
-2.65444e-08
8.94429e-12
2.659e-08
2.53128e-08
-2.54084e-11
9.02061e-12
2.65296e-12
2.19638e-08
2.39894e-08
-3.56901e-12
-9.47037e-12
9.34065e-12
2.39954e-08
2.5294e-08
-8.31369e-12
-9.79779e-12
9.28189e-12
-2.65842e-08
2.66167e-08
-4.99502e-12
1.68403e-11
2.52441e-08
2.4402e-08
-1.01258e-11
2.75878e-08
9.04776e-12
2.44106e-08
2.76211e-08
-4.3714e-11
-3.64881e-11
-2.61572e-08
-2.63615e-11
2.62062e-08
2.49723e-08
-3.74306e-11
-2.49329e-08
1.60767e-11
2.35776e-11
2.15683e-08
2.34729e-08
-4.47053e-11
-1.49167e-11
-2.34559e-08
1.46399e-11
2.34559e-08
2.49329e-08
2.53985e-11
-2.62062e-08
-7.07211e-11
1.77946e-11
-2.61606e-08
2.60886e-08
-1.02967e-11
9.17651e-11
-5.6577e-14
2.45598e-08
2.38385e-08
-7.00978e-11
-2.3813e-08
2.70619e-08
1.86424e-11
7.44185e-12
-2.70463e-08
2.3813e-08
-6.97733e-12
2.7046e-08
-2.6088e-08
-4.30801e-11
-3.96079e-11
-2.61301e-08
2.87612e-11
2.61477e-08
2.49782e-08
-4.04684e-11
-2.49369e-08
1.60501e-11
2.38227e-11
2.15541e-08
2.34625e-08
-4.35346e-11
-1.80633e-11
-2.34435e-08
1.73457e-11
2.34434e-08
2.49369e-08
-2.98207e-11
-2.61477e-08
2.10983e-11
-6.92144e-11
-2.61602e-08
2.61577e-08
9.18573e-11
-1.04656e-11
2.45569e-08
2.70589e-08
2.18777e-11
-2.70325e-08
2.38307e-08
-6.98042e-11
-2.3809e-08
2.70327e-08
2.3809e-08
-2.61577e-08
-3.94985e-11
-4.28443e-11
-2.61347e-08
2.87076e-11
2.61516e-08
2.50333e-08
-4.07233e-11
2.38561e-11
1.60237e-11
2.15664e-08
2.34652e-08
-4.32305e-11
-1.80328e-11
2.49916e-08
1.73313e-11
2.34465e-08
-2.98411e-11
2.10915e-11
-6.89822e-11
-2.6161e-08
2.61583e-08
9.19025e-11
-1.04765e-11
2.45582e-08
2.70596e-08
2.18652e-11
2.38321e-08
-6.9465e-11
2.70335e-08
2.38106e-08
-2.24103e-11
-3.59193e-12
-2.65636e-08
-5.37065e-11
2.66478e-08
2.52988e-08
-2.15899e-11
1.99138e-12
9.17718e-12
2.19727e-08
2.39899e-08
-4.84601e-12
-5.86388e-12
2.52765e-08
6.52947e-12
2.39981e-08
5.39501e-11
5.83955e-12
-1.11531e-11
-2.65733e-08
2.65285e-08
1.73275e-11
-5.00193e-12
2.52424e-08
2.75876e-08
5.7054e-12
2.43993e-08
-1.01135e-11
2.76172e-08
2.44037e-08
-7.22901e-13
9.00805e-15
2.48595e-09
-1.51293e-13
-2.48661e-09
-3.28835e-13
-1.89102e-14
1.34954e-09
-7.12294e-14
-1.34985e-09
-1.27752e-13
-1.75577e-14
6.6685e-10
-3.28698e-14
-6.67003e-10
-3.09684e-14
-1.03003e-14
2.76738e-10
-1.37432e-14
-2.76813e-10
-3.4306e-15
6.58445e-11
-3.74271e-15
-6.587e-11
-9.21329e-13
-3.31697e-14
4.63815e-09
-8.00987e-14
-4.09435e-13
-3.33515e-15
2.5036e-09
-5.12079e-14
-1.5814e-13
6.05591e-15
1.23193e-09
-2.91094e-14
-3.91424e-14
5.33977e-15
5.09643e-10
-1.37794e-14
2.0518e-15
1.21011e-10
-3.8223e-15
-6.4979e-13
2.16317e-15
2.48604e-09
-1.16692e-13
-2.48665e-09
-2.96446e-13
-2.39637e-14
1.34968e-09
-4.98526e-14
-1.34996e-09
-1.16061e-13
-1.95625e-14
6.6693e-10
-2.17359e-14
-6.6707e-10
-2.85358e-14
-1.08029e-14
2.76747e-10
-8.88346e-15
-2.76815e-10
-3.33768e-15
6.58388e-11
-2.43169e-15
-6.5862e-11
-8.13663e-13
-2.01878e-14
4.63719e-09
-2.47919e-14
-4.63798e-09
-3.67283e-13
6.24732e-15
2.50317e-09
-2.65988e-14
-2.5036e-09
-1.42947e-13
8.28865e-15
1.23178e-09
-1.74319e-14
-1.232e-09
-3.48302e-14
5.05526e-15
5.09617e-10
-8.51412e-15
-5.09723e-10
1.74753e-15
1.21014e-10
-2.21758e-15
-1.21049e-10
-8.31631e-13
4.63851e-09
-8.12266e-14
-4.63934e-09
-3.65912e-13
2.50382e-09
-4.9865e-14
-2.50426e-09
-1.40785e-13
1.23199e-09
-2.73399e-14
-1.2322e-09
-3.44638e-14
5.09676e-10
-1.22446e-14
-5.0978e-10
1.21067e-10
-2.96769e-15
-1.21101e-10
-7.41383e-13
4.63794e-09
-3.53317e-14
-4.63872e-09
-3.26519e-13
2.50355e-09
-2.95084e-14
-2.50396e-09
-1.26325e-13
1.23195e-09
-1.86388e-14
-1.23215e-09
-3.12143e-14
5.09635e-10
-9.08058e-15
-5.09734e-10
1.2101e-10
-2.3334e-15
-1.21044e-10
-7.21028e-13
2.48628e-09
-1.69184e-13
-3.2997e-13
1.34976e-09
-8.39499e-14
-1.28764e-13
6.66988e-10
-3.96332e-14
-3.14357e-14
2.76765e-10
-1.6146e-14
6.58426e-11
-3.75528e-15
-6.70209e-13
2.81451e-14
-4.55834e-14
4.63808e-09
-2.90932e-13
4.32098e-14
-3.45073e-14
2.50373e-09
-1.12246e-13
3.0611e-14
-2.11401e-14
1.23207e-09
-2.77768e-14
1.60164e-14
-9.8784e-15
5.0971e-10
4.93649e-15
-2.29802e-15
1.21057e-10
-6.59525e-13
2.48539e-09
-1.38861e-13
-2.486e-09
-3.01973e-13
1.34941e-09
-6.74302e-14
-1.3497e-09
-1.1805e-13
6.66767e-10
-3.3563e-14
-6.66912e-10
-2.88821e-14
2.76706e-10
-1.50609e-14
-2.76777e-10
6.58172e-11
-4.21787e-15
-6.58412e-11
-6.50864e-13
2.48605e-09
-9.9194e-14
-2.97138e-13
1.34975e-09
-3.65329e-14
-1.1694e-13
6.66978e-10
-1.38018e-14
-2.92681e-14
2.76793e-10
-5.34109e-15
6.58522e-11
-1.66703e-15
-6.57355e-13
1.10497e-14
2.48567e-09
-1.32953e-13
-3.01062e-13
-1.64182e-14
1.34945e-09
-5.9939e-14
-1.18601e-13
-1.55513e-14
6.66793e-10
-2.74313e-14
-2.96328e-14
-9.02705e-15
2.76721e-10
-1.16761e-14
-3.048e-15
6.58431e-11
-3.29925e-15
-7.48935e-13
3.90484e-14
-9.5848e-14
4.63903e-09
-3.18419e-13
5.01071e-14
-5.48654e-14
2.50405e-09
-1.2053e-13
3.60345e-14
-3.02747e-14
1.23222e-09
-2.93736e-14
1.93842e-14
-1.38839e-14
5.09764e-10
6.05014e-15
-3.45095e-15
1.21063e-10
-7.14466e-13
2.48614e-09
-9.67765e-14
-3.24757e-13
1.34973e-09
-3.48925e-14
-1.27171e-13
6.66951e-10
-1.13246e-14
-3.16792e-14
2.76762e-10
-3.36168e-15
6.5841e-11
-9.08117e-16
-7.19363e-13
-2.7474e-14
2.48658e-09
-1.01757e-13
-3.28324e-13
-4.0438e-14
1.35e-09
-4.16174e-14
-1.28743e-13
-2.87877e-14
6.67071e-10
-1.69658e-14
-3.18859e-14
-1.54441e-14
2.76831e-10
-6.4597e-15
-4.93566e-15
6.58505e-11
-1.71258e-15
-7.56922e-13
-3.71553e-14
4.63768e-09
-3.32644e-13
-2.99092e-14
2.50336e-09
-1.27796e-13
-1.82939e-14
1.23187e-09
-3.09983e-14
-8.5304e-15
5.09647e-10
-2.00699e-15
1.21021e-10
-8.14346e-13
-9.16154e-14
4.63895e-09
-3.57122e-13
-5.66819e-14
2.50416e-09
-1.37157e-13
-3.15565e-14
1.23218e-09
-3.35368e-14
-1.45826e-14
5.09764e-10
-3.87845e-15
1.21033e-10
1.06195e-12
-9.6153e-14
1.8641e-13
-4.61667e-09
4.61769e-09
4.82491e-13
-3.81608e-14
9.78258e-14
-2.49114e-09
2.49166e-09
1.89305e-13
-1.42772e-14
5.08348e-14
-1.22546e-09
1.22571e-09
4.67732e-14
-4.78889e-15
2.27739e-14
-5.06914e-10
5.07037e-10
-9.46042e-16
5.83757e-15
-1.20374e-10
1.20415e-10
6.7024e-13
-5.73544e-15
2.48661e-09
3.05293e-13
2.19388e-14
1.34985e-09
1.19746e-13
1.95431e-14
6.67003e-10
2.98011e-14
1.13267e-14
2.76813e-10
3.7538e-15
6.58696e-11
7.32219e-13
4.98537e-16
5.80736e-15
4.63896e-09
3.24237e-13
-2.77123e-14
1.16333e-14
2.50402e-09
1.27532e-13
-2.28179e-14
1.10248e-14
1.23214e-09
3.23337e-14
-1.2593e-14
6.76263e-15
5.09743e-10
-3.85359e-15
2.11824e-15
1.21045e-10
-3.47478e-13
-8.99932e-14
-2.88248e-09
1.65137e-13
2.88202e-09
-1.56036e-13
-4.87585e-14
-1.56114e-09
8.47514e-14
1.56091e-09
-6.20732e-14
-2.52741e-14
-7.7007e-10
4.40506e-14
7.69958e-10
-1.60295e-14
-1.13124e-14
-3.19142e-10
2.00051e-14
3.19089e-10
-3.01582e-15
-7.58756e-11
5.45459e-15
7.58578e-11
-3.23987e-13
2.70038e-16
-3.14869e-09
3.14822e-09
-1.44708e-13
8.44561e-16
-1.70302e-09
1.70279e-09
-5.77833e-14
7.52979e-16
-8.39295e-10
8.39182e-10
-1.50023e-14
4.21683e-16
-3.47597e-10
3.47543e-10
9.07774e-17
-8.26181e-11
8.26002e-11
8.85689e-13
-1.87615e-13
-4.60892e-09
2.48216e-13
4.60978e-09
3.993e-13
-9.79621e-14
-2.48721e-09
1.37386e-13
2.48765e-09
1.56188e-13
-4.84528e-14
-1.22365e-09
7.30809e-14
1.22387e-09
3.85808e-14
-2.06691e-14
-5.06155e-10
3.30797e-14
5.0626e-10
-5.09693e-15
-1.20199e-10
8.64776e-15
1.20234e-10
6.46656e-13
2.48664e-09
-7.22133e-14
2.93899e-13
1.34996e-09
-2.65503e-14
1.14707e-13
6.67069e-10
-9.48498e-15
2.80721e-14
2.76814e-10
-2.54762e-15
6.58614e-11
2.32423e-17
-6.51362e-13
2.21912e-15
-1.16332e-13
2.48604e-09
-2.97482e-13
-2.42855e-14
-4.95466e-14
1.34968e-09
-1.16667e-13
-1.97222e-14
-2.15868e-14
6.6693e-10
-2.88456e-14
-1.08147e-14
-8.89421e-15
2.76746e-10
-3.27506e-15
-2.51946e-15
6.58385e-11
7.29442e-13
4.63794e-09
5.13351e-14
1.05335e-14
3.18349e-13
2.50356e-09
8.8248e-15
1.40742e-14
1.22704e-13
1.23196e-09
-2.76763e-15
1.099e-14
3.05315e-14
5.09706e-10
-4.61105e-15
6.14103e-15
1.21044e-10
-2.17141e-15
1.89426e-15
-8.5142e-13
-4.36163e-14
4.63711e-09
-1.53992e-14
-3.80559e-13
-7.75998e-15
2.50312e-09
-2.23037e-14
-1.46503e-13
1.43464e-15
1.23174e-09
-1.6543e-14
-3.55307e-14
2.79325e-15
5.096e-10
-8.70233e-15
1.2098e-15
1.21009e-10
-2.32163e-15
-3.80821e-13
2.471e-09
3.46663e-15
-1.72801e-13
1.34128e-09
-1.02103e-14
-6.92243e-14
6.62708e-10
-8.28354e-15
-1.80998e-14
2.74941e-10
-4.36335e-15
6.54003e-11
-1.38784e-15
4.04501e-13
-2.27054e-14
7.543e-15
2.47148e-09
1.83451e-13
-5.44744e-15
-1.09914e-15
1.34151e-09
7.29418e-14
-7.77948e-16
-2.3059e-15
6.62821e-10
1.87367e-14
5.39021e-16
-1.65306e-15
2.74996e-10
4.65795e-16
-4.59944e-16
6.54188e-11
-4.04917e-13
2.47062e-09
-6.30211e-14
-1.83123e-13
1.34108e-09
-4.14913e-14
-7.26804e-14
6.62589e-10
-2.33667e-14
-1.85905e-14
2.74898e-10
-1.09247e-14
6.53901e-11
-3.02743e-15
4.10772e-13
-1.17908e-15
-2.50089e-14
2.47113e-09
1.86194e-13
9.45363e-15
-2.21555e-14
1.34132e-09
7.38865e-14
7.81875e-15
-1.46136e-14
6.62708e-10
1.88728e-14
4.07897e-15
-7.23355e-15
2.74955e-10
1.0717e-15
-1.84513e-15
6.54093e-11
-6.19835e-13
3.75563e-14
4.43911e-09
-2.73579e-13
1.89223e-14
2.39817e-09
-1.06925e-13
9.56952e-15
1.18067e-09
-2.67399e-14
4.42205e-15
4.88655e-10
1.34944e-15
1.16066e-10
-6.55009e-13
4.43966e-09
-2.90689e-13
2.39836e-09
-1.14337e-13
1.18084e-09
-2.90902e-14
4.88694e-10
1.16072e-10
6.69488e-13
-8.48913e-15
4.43982e-09
2.95878e-13
-5.97626e-15
2.39855e-09
1.14858e-13
-3.55585e-15
1.18085e-09
2.8462e-14
-1.63371e-15
4.88744e-10
-4.26762e-16
1.16095e-10
6.87805e-13
4.4404e-09
3.04854e-13
2.39874e-09
1.19122e-13
1.18103e-09
2.99139e-14
4.88786e-10
1.16103e-10
7.78541e-13
2.33772e-14
4.63934e-09
3.43541e-13
2.10392e-14
2.50426e-09
1.33225e-13
1.41887e-14
1.2322e-09
3.28613e-14
7.33402e-15
5.09779e-10
2.10474e-15
1.21101e-10
7.93965e-13
4.63872e-09
-2.51794e-15
3.51833e-13
2.50396e-09
3.7663e-15
1.35879e-13
1.23215e-09
3.55647e-15
3.3199e-14
5.09732e-10
2.07659e-15
1.21042e-10
6.53189e-16
-7.41933e-13
4.63794e-09
-3.54209e-14
-3.27126e-13
2.50355e-09
-2.9588e-14
-1.26844e-13
1.23195e-09
-1.8603e-14
-3.15672e-14
5.09634e-10
-8.96123e-15
1.2101e-10
-2.23981e-15
6.66997e-13
8.46949e-14
2.48694e-09
3.03628e-13
3.02623e-14
1.35007e-09
1.18811e-13
9.92253e-15
6.67141e-10
2.92279e-14
3.02073e-15
2.7684e-10
5.50351e-16
6.58676e-11
-3.53623e-13
2.47115e-09
3.75263e-14
-1.64608e-13
1.34128e-09
1.35825e-14
-6.7531e-14
6.62688e-10
4.53568e-15
-1.82051e-14
2.7496e-10
9.17775e-16
6.54044e-11
-2.17433e-16
5.69738e-13
7.71336e-15
-8.28172e-15
2.47179e-09
2.57012e-13
7.84653e-15
-7.45642e-15
1.34159e-09
9.85144e-14
5.02797e-15
-2.9548e-15
6.62845e-10
2.34957e-14
2.37765e-15
-6.10638e-16
2.75033e-10
6.05362e-16
7.7249e-17
6.54272e-11
-5.57794e-13
4.43976e-09
1.43335e-13
-2.44175e-13
2.39817e-09
8.95642e-14
-9.5919e-14
1.1808e-09
4.87218e-14
-2.4318e-14
4.88675e-10
2.19176e-14
1.16071e-10
5.84077e-15
9.28328e-13
7.68281e-14
4.4405e-09
4.3231e-13
4.35133e-14
2.39863e-09
1.68702e-13
2.59161e-14
1.18105e-09
4.03144e-14
1.32252e-14
4.88793e-10
3.98044e-15
1.16108e-10
8.32546e-13
8.01424e-14
4.63889e-09
3.6748e-13
3.29739e-14
2.50415e-09
1.404e-13
1.34404e-14
1.23228e-09
3.3734e-14
4.36298e-15
5.09811e-10
4.57165e-16
1.21091e-10
-3.23422e-13
-9.38604e-14
-2.88124e-09
1.91173e-13
2.88077e-09
-1.44781e-13
-5.26821e-14
-1.56046e-09
1.02322e-13
1.56023e-09
-5.76741e-14
-2.80794e-14
-7.69697e-10
5.40708e-14
7.69584e-10
-1.48858e-14
-1.26989e-14
-3.19012e-10
2.45908e-14
3.18957e-10
-3.31757e-15
-7.58443e-11
6.5806e-15
7.58262e-11
-3.21923e-13
-3.14796e-09
3.14749e-09
-1.43994e-13
-1.70264e-09
1.70241e-09
-5.76307e-14
-8.39105e-10
8.38993e-10
-1.48995e-14
-3.47519e-10
3.47465e-10
-8.25997e-11
8.25818e-11
8.95788e-13
-1.63259e-13
2.28327e-13
-4.60653e-09
4.60739e-09
4.04504e-13
-7.80323e-14
1.22757e-13
-2.48601e-09
2.48645e-09
1.58567e-13
-3.55601e-14
6.3908e-14
-1.22299e-09
1.22321e-09
3.93926e-14
-1.43446e-14
2.8504e-14
-5.05938e-10
5.06042e-10
-3.47778e-15
7.34767e-15
-1.20123e-10
1.20158e-10
6.30582e-13
2.48599e-09
2.86852e-13
1.34969e-09
1.1294e-13
6.66902e-10
2.79153e-14
2.76772e-10
6.58394e-11
-6.57478e-13
-1.56507e-13
2.48537e-09
-3.00487e-13
-7.7763e-14
1.3494e-09
-1.17903e-13
-3.78875e-14
6.66759e-10
-2.90487e-14
-1.63787e-14
2.76702e-10
-4.40159e-15
6.58161e-11
6.45947e-13
1.9677e-13
2.48665e-09
2.93547e-13
1.05518e-13
1.35003e-09
1.14599e-13
5.29461e-14
6.67118e-10
2.82186e-14
2.27785e-14
2.76861e-10
5.78928e-15
6.58753e-11
8.85073e-13
-1.69245e-13
2.33373e-13
-4.60678e-09
4.60763e-09
3.97985e-13
-8.69277e-14
1.28139e-13
-2.486e-09
2.48645e-09
1.54925e-13
-4.24754e-14
6.77183e-14
-1.22301e-09
1.22323e-09
3.77964e-14
-1.80142e-14
3.04042e-14
-5.05917e-10
5.06022e-10
-4.57828e-15
7.84432e-15
-1.20146e-10
1.20181e-10
6.35767e-13
-6.06352e-14
2.48627e-09
2.89418e-13
-1.99075e-14
1.34973e-09
1.13555e-13
-5.6911e-15
6.66932e-10
2.8237e-14
-6.72655e-16
2.76789e-10
6.04127e-16
6.58661e-11
-3.76744e-13
2.47149e-09
-6.69256e-14
-1.644e-13
1.34146e-09
-3.49434e-14
-6.45591e-14
6.62782e-10
-1.70414e-14
-1.68896e-14
2.7498e-10
-7.49629e-15
6.543e-11
-2.20059e-15
4.75829e-13
-1.52579e-14
1.60524e-14
2.47197e-09
2.25807e-13
-1.07325e-14
2.28228e-14
1.3417e-09
9.10204e-14
-5.56179e-15
1.67564e-14
6.62904e-10
2.30747e-14
-2.28892e-15
8.59268e-15
2.75041e-10
-4.65798e-16
2.33363e-15
6.54503e-11
-4.97438e-13
-3.66094e-14
4.44031e-09
-1.99869e-13
-4.66842e-15
2.39856e-09
-7.71529e-14
8.47197e-15
1.18088e-09
-2.04061e-14
7.34876e-15
4.88696e-10
2.76163e-15
1.16099e-10
8.77077e-13
4.29086e-14
4.6399e-09
3.92514e-13
9.7292e-15