/*--------------------------------*- C++ -*----------------------------------*\
| =========                 |                                                 |
| \\      /  F ield         | OpenFOAM: The Open Source CFD Toolbox           |
|  \\    /   O peration     | Version:  2206                                  |
|   \\  /    A nd           | Website:  www.openfoam.com                      |
|    \\/     M anipulation  |                                                 |
\*---------------------------------------------------------------------------*/
FoamFile
{
    version     2.0;
    format      ascii;
    arch        "LSB;label=32;scalar=64";
    class       volScalarField;
    location    "0.9";
    object      k;
}
// * * * * * * * * * * * * * * * * * * * * * * * * * * * * * * * * * * * * * //

dimensions      [0 2 -2 0 0 0 0];

internalField   nonuniform List<scalar> 
184485
(
7.08683e-09
7.02491e-09
1.5216e-08
7.12339e-09
6.79729e-09
6.7698e-09
6.98202e-09
7.00846e-09
6.83426e-09
7.03255e-09
6.91312e-09
6.80171e-09
6.9061e-09
7.03041e-09
6.8199e-09
7.09434e-09
6.87059e-09
1.13104e-08
6.74859e-09
7.62415e-09
6.90925e-09
6.93455e-09
7.97122e-09
6.92065e-09
7.04622e-09
6.72338e-09
7.0368e-09
1.02854e-08
6.95305e-09
6.76573e-09
6.93789e-09
6.71781e-09
6.85333e-09
6.97201e-09
7.05795e-09
6.73242e-09
6.76444e-09
6.7937e-09
6.97769e-09
6.7445e-09
6.76888e-09
6.93804e-09
6.75257e-09
6.8334e-09
6.91307e-09
6.92554e-09
7.14928e-09
6.73206e-09
7.45671e-09
7.06528e-09
6.94266e-09
6.8117e-09
6.78973e-09
9.14055e-09
6.80442e-09
7.65609e-09
6.80941e-09
7.11306e-09
7.06835e-09
7.49593e-09
8.97348e-09
6.74155e-09
7.27626e-09
6.8786e-09
6.9262e-09
6.75851e-09
6.92212e-09
6.71057e-09
6.94477e-09
7.11719e-09
6.69572e-09
7.06114e-09
6.78279e-09
6.7736e-09
6.72042e-09
6.98122e-09
6.90756e-09
6.83833e-09
7.02525e-09
6.73074e-09
6.78933e-09
6.90341e-09
6.79373e-09
6.69109e-09
7.08714e-09
6.70108e-09
6.69896e-09
6.83521e-09
6.91466e-09
6.89393e-09
7.08439e-09
6.83102e-09
7.08951e-09
6.95992e-09
2.8763e-08
1.50252e-08
6.73841e-09
1.37729e-08
6.97557e-09
7.11347e-09
1.78801e-08
6.9363e-09
7.03352e-09
6.99701e-09
6.92837e-09
6.74044e-09
6.69503e-09
6.85666e-09
3.32039e-07
7.11923e-09
6.96249e-09
9.88485e-09
6.9944e-09
6.73001e-09
7.08831e-09
6.85899e-09
6.88037e-09
7.21218e-09
6.91158e-09
6.86525e-09
6.81244e-09
1.06562e-07
6.98497e-09
7.06104e-09
7.10973e-09
4.45875e-08
6.96312e-09
1.05679e-07
7.12368e-09
7.09041e-09
7.098e-09
7.10792e-09
6.95931e-09
6.81615e-09
2.1004e-08
6.86068e-09
7.56405e-09
7.09291e-09
7.10309e-09
7.0953e-09
8.38257e-09
6.99829e-09
7.01706e-09
6.82434e-09
7.08651e-09
7.07136e-09
6.84516e-09
7.03994e-09
1.0286e-08
6.82752e-09
8.45766e-09
7.12561e-09
7.35336e-09
6.71147e-09
7.02088e-09
7.64855e-09
6.86702e-09
8.5158e-09
7.00512e-09
6.83779e-09
7.46458e-09
7.08536e-09
7.09015e-09
6.93641e-09
6.86342e-09
6.90632e-09
6.82434e-09
1.03014e-08
6.84751e-09
3.29262e-07
4.40533e-08
8.95974e-09
6.85878e-09
7.08611e-09
7.07972e-09
6.84576e-09
7.05626e-09
6.89347e-09
6.90519e-09
6.74474e-09
9.14101e-09
6.80439e-09
7.01481e-09
8.40614e-09
7.06419e-09
6.85438e-09
6.867e-09
6.82879e-09
6.93346e-09
7.04666e-09
6.85746e-09
6.84489e-09
6.9673e-09
7.07167e-09
7.06369e-09
7.13695e-09
6.81226e-09
6.96695e-09
6.91809e-09
7.00999e-09
7.03158e-09
6.85691e-09
6.79708e-09
6.79894e-09
7.08138e-09
6.95426e-09
7.0632e-09
6.88142e-09
6.89371e-09
6.87724e-09
6.98207e-09
7.07712e-09
6.95406e-09
6.8472e-09
7.76385e-09
6.82127e-09
6.77535e-09
6.97971e-09
6.79503e-09
7.02471e-09
6.79254e-09
7.6107e-09
6.77059e-09
6.85058e-09
7.08091e-09
6.88831e-09
7.04313e-09
6.96028e-09
6.98382e-09
6.84656e-09
6.99095e-09
7.13309e-09
7.69896e-09
7.07166e-09
7.10976e-09
9.1396e-09
7.32707e-09
7.10131e-09
6.98432e-09
2.88506e-08
6.97481e-09
6.92659e-09
6.816e-09
7.05293e-09
7.02875e-09
6.87329e-09
6.85454e-09
7.24649e-09
6.81426e-09
6.86628e-09
6.80775e-09
7.09001e-09
6.9906e-09
1.35491e-08
1.01711e-08
7.37819e-09
6.87242e-09
6.9941e-09
7.09432e-09
9.038e-09
7.11644e-09
7.12566e-09
7.62026e-09
7.04818e-09
7.72622e-09
7.08745e-09
7.27053e-09
7.05087e-09
2.13821e-08
6.78569e-09
7.94162e-09
6.98346e-09
7.28876e-09
7.27264e-09
6.96168e-09
6.83641e-09
6.7566e-09
7.07721e-09
7.01807e-09
7.02229e-09
6.8865e-09
6.8692e-09
7.01431e-09
6.83281e-09
7.06262e-09
7.13636e-09
6.94637e-09
6.88048e-09
7.00291e-09
6.89991e-09
6.88152e-09
7.09218e-09
7.03639e-09
6.90186e-09
6.91198e-09
6.91534e-09
1.79418e-08
7.00162e-09
1.18889e-08
7.11126e-09
6.90892e-09
7.43431e-09
6.93498e-09
6.9283e-09
6.88486e-09
6.9214e-09
7.23081e-09
7.33313e-09
8.46397e-09
7.00615e-09
6.88583e-09
6.72791e-09
6.80028e-09
6.93566e-09
6.87691e-09
7.06215e-09
7.20445e-09
7.08303e-09
7.51057e-09
1.37897e-08
8.36049e-09
1.77922e-08
7.9784e-09
1.13368e-08
7.00296e-09
6.86354e-09
6.88589e-09
7.04893e-09
1.48598e-08
1.06145e-07
6.88141e-09
8.94039e-09
7.91343e-09
6.91185e-09
6.9708e-09
7.18156e-09
6.88953e-09
6.83257e-09
6.88342e-09
6.86397e-09
6.78292e-09
6.9484e-09
7.20155e-09
7.15116e-09
6.91618e-09
7.63973e-09
6.8523e-09
6.84913e-09
7.09446e-09
7.06958e-09
6.88044e-09
7.02035e-09
6.86804e-09
7.05488e-09
7.02691e-09
6.87741e-09
7.20476e-09
1.11708e-08
6.96671e-09
6.87642e-09
6.84832e-09
6.89463e-09
6.93361e-09
7.03947e-09
7.28336e-09
6.8237e-09
6.86231e-09
6.83769e-09
7.1215e-09
6.90006e-09
6.88019e-09
7.92197e-09
7.19117e-09
1.12881e-08
6.9037e-09
7.12843e-09
7.09918e-09
7.10757e-09
7.05365e-09
7.0498e-09
6.88329e-09
3.30849e-07
6.88774e-09
6.96217e-09
6.89718e-09
6.72041e-09
6.86449e-09
7.06227e-09
6.94343e-09
6.97953e-09
6.97359e-09
7.13244e-09
6.82959e-09
6.97489e-09
1.52812e-08
1.36429e-08
6.93954e-09
7.1656e-09
4.42849e-08
7.07076e-09
6.80066e-09
7.09004e-09
7.11204e-09
6.88166e-09
6.93304e-09
7.2187e-09
7.03209e-09
7.04833e-09
6.91224e-09
6.74337e-09
6.89476e-09
6.86027e-09
7.01565e-09
6.72133e-09
7.06302e-09
6.71384e-09
6.75216e-09
7.14358e-09
6.81736e-09
6.84151e-09
6.92001e-09
6.73314e-09
6.72248e-09
6.91288e-09
6.90641e-09
7.0948e-09
6.99105e-09
6.89435e-09
6.77594e-09
6.97881e-09
6.89361e-09
1.49897e-08
2.08486e-08
6.83327e-09
6.92673e-09
1.20474e-08
6.74741e-09
6.83172e-09
7.03999e-09
7.04359e-09
6.76069e-09
2.90199e-08
8.40872e-09
6.97705e-09
2.90175e-08
7.32291e-09
7.10793e-09
2.14462e-08
2.8448e-08
6.7257e-09
6.94446e-09
6.998e-09
6.82382e-09
7.95983e-09
7.10392e-09
6.89893e-09
6.88575e-09
6.87855e-09
6.88642e-09
7.14801e-09
7.06654e-09
7.10762e-09
6.96718e-09
6.79522e-09
7.21089e-09
7.07733e-09
7.01875e-09
6.89458e-09
6.89586e-09
7.06961e-09
7.46526e-09
6.7917e-09
6.76789e-09
7.11663e-09
6.91515e-09
7.04587e-09
7.12851e-09
6.88817e-09
6.67938e-09
6.88624e-09
6.68679e-09
7.1016e-09
6.93559e-09
7.38521e-09
6.95339e-09
6.94083e-09
6.83817e-09
7.52201e-09
7.11184e-09
6.76478e-09
7.1219e-09
6.8362e-09
7.31556e-09
7.47206e-09
7.4841e-09
7.11283e-09
6.86087e-09
6.95926e-09
6.81153e-09
1.1365e-08
1.20654e-08
6.86033e-09
7.04036e-09
7.60384e-09
6.85663e-09
7.02101e-09
6.83218e-09
6.9226e-09
7.67543e-09
7.78166e-09
7.06737e-09
7.06648e-09
1.78701e-08
8.02184e-09
8.01339e-09
6.9187e-09
7.07569e-09
7.129e-09
7.05063e-09
6.88521e-09
7.26628e-09
6.79443e-09
6.81007e-09
6.88461e-09
7.05015e-09
7.38228e-09
6.79598e-09
8.02092e-09
6.77515e-09
6.87459e-09
7.09643e-09
6.8926e-09
1.2166e-08
9.84143e-09
7.32563e-09
6.73199e-09
6.74339e-09
1.06456e-07
6.88743e-09
7.03266e-09
6.65264e-09
6.74653e-09
7.01233e-09
6.86817e-09
6.93095e-09
6.73697e-09
7.04333e-09
6.85509e-09
9.87765e-09
7.12887e-09
6.86565e-09
7.08365e-09
6.79996e-09
3.35431e-07
7.22389e-09
6.90587e-09
6.84781e-09
6.88852e-09
8.016e-09
6.86363e-09
1.20115e-08
6.93581e-09
7.11766e-09
4.45434e-08
6.86066e-09
7.11772e-09
8.62411e-09
7.01649e-09
7.05997e-09
6.95003e-09
7.03977e-09
1.8028e-08
2.12163e-08
7.11548e-09
7.00243e-09
6.99826e-09
8.36114e-09
6.93066e-09
9.26841e-09
6.72584e-09
6.99e-09
9.08779e-09
6.99565e-09
6.89548e-09
7.0866e-09
6.93172e-09
6.83273e-09
7.11445e-09
6.84011e-09
7.03645e-09
7.13563e-09
6.77882e-09
3.33189e-07
1.07689e-07
4.49038e-08
1.34853e-08
9.79291e-09
8.86697e-09
8.31242e-09
7.5613e-09
7.4681e-09
7.15421e-09
7.08686e-09
7.25104e-09
7.09631e-09
6.92439e-09
7.03673e-09
7.06507e-09
6.91728e-09
7.08276e-09
7.04274e-09
7.02076e-09
6.87522e-09
7.03252e-09
6.88235e-09
7.03987e-09
7.03527e-09
6.89965e-09
7.05444e-09
7.05074e-09
6.86752e-09
6.84056e-09
6.83997e-09
6.98511e-09
6.83132e-09
7.00066e-09
6.99252e-09
7.03636e-09
6.88393e-09
7.07897e-09
7.04804e-09
6.87134e-09
1.03074e-08
7.07576e-09
6.93589e-09
7.09874e-09
6.9196e-09
6.9117e-09
7.09317e-09
7.0948e-09
6.95441e-09
7.09706e-09
9.91317e-09
6.914e-09
6.92391e-09
7.07269e-09
6.94498e-09
7.11386e-09
6.85028e-09
6.8699e-09
7.03944e-09
6.85981e-09
6.87318e-09
7.04279e-09
7.0593e-09
6.88792e-09
6.87496e-09
7.04742e-09
6.82366e-09
6.8831e-09
3.33974e-07
1.06828e-07
4.42257e-08
2.90025e-08
2.17222e-08
1.78904e-08
1.49188e-08
1.36077e-08
1.198e-08
1.12197e-08
1.01651e-08
9.82696e-09
9.05738e-09
8.95873e-09
8.42644e-09
8.39705e-09
7.97459e-09
7.97793e-09
7.63068e-09
7.7173e-09
7.43759e-09
7.53841e-09
7.28227e-09
7.53621e-09
7.31435e-09
7.38565e-09
7.12264e-09
7.2524e-09
7.05618e-09
7.20471e-09
7.06277e-09
7.16994e-09
6.97513e-09
7.12046e-09
6.92434e-09
7.09791e-09
6.88326e-09
7.04747e-09
6.88303e-09
7.04473e-09
6.872e-09
7.04205e-09
6.85688e-09
7.03624e-09
6.85071e-09
7.02024e-09
6.84247e-09
7.01972e-09
6.84233e-09
7.03915e-09
6.85234e-09
7.0206e-09
6.85745e-09
7.01977e-09
6.86199e-09
7.02675e-09
6.81441e-09
6.99828e-09
6.80648e-09
6.96623e-09
6.79761e-09
6.99062e-09
6.84014e-09
7.00154e-09
6.80879e-09
7.00813e-09
6.82544e-09
6.99858e-09
6.83539e-09
7.01983e-09
6.84538e-09
7.03597e-09
6.86929e-09
7.04294e-09
6.88961e-09
7.08063e-09
6.90135e-09
7.06962e-09
6.85675e-09
7.07138e-09
6.91754e-09
7.10107e-09
6.92598e-09
7.11104e-09
6.89996e-09
7.06344e-09
6.89152e-09
7.08981e-09
6.90547e-09
7.05521e-09
6.86451e-09
7.08603e-09
6.93392e-09
7.08789e-09
6.89882e-09
7.0891e-09
6.90841e-09
7.07562e-09
6.89384e-09
7.04734e-09
6.8588e-09
7.06785e-09
6.9052e-09
7.08679e-09
6.88904e-09
7.0674e-09
6.87826e-09
7.05044e-09
6.88441e-09
7.06502e-09
6.87291e-09
7.06427e-09
6.8669e-09
7.07997e-09
6.89482e-09
7.08196e-09
6.87921e-09
7.08041e-09
6.90867e-09
7.08551e-09
6.88856e-09
7.10975e-09
6.9374e-09
7.06092e-09
6.86603e-09
7.07718e-09
6.90882e-09
7.09641e-09
6.87661e-09
7.06809e-09
6.87562e-09
7.07945e-09
3.33436e-07
1.06732e-07
4.41194e-08
2.85865e-08
2.14625e-08
1.80377e-08
1.49838e-08
1.37523e-08
1.21725e-08
1.1361e-08
1.03078e-08
9.92597e-09
9.16068e-09
9.02865e-09
8.46913e-09
8.4032e-09
7.9854e-09
8.00288e-09
7.64619e-09
7.72294e-09
7.44749e-09
7.56568e-09
7.31612e-09
7.53352e-09
7.31012e-09
7.28633e-09
7.06979e-09
7.24268e-09
7.02961e-09
7.18176e-09
7.00312e-09
7.14234e-09
6.9494e-09
7.09854e-09
6.91148e-09
7.07456e-09
6.88041e-09
7.04714e-09
6.87572e-09
7.04691e-09
6.87738e-09
7.04553e-09
6.87662e-09
7.04744e-09
6.87312e-09
7.01433e-09
6.84154e-09
7.03142e-09
6.85675e-09
7.04426e-09
6.86156e-09
7.03953e-09
6.8522e-09
7.01282e-09
6.85722e-09
7.01769e-09
6.82799e-09
7.01557e-09
6.82192e-09
6.99194e-09
6.79919e-09
6.98941e-09
6.8348e-09
7.01263e-09
6.83321e-09
7.01998e-09
6.81799e-09
7.00019e-09
6.83241e-09
7.0172e-09
6.83845e-09
7.0433e-09
6.86587e-09
7.04434e-09
6.88264e-09
7.07491e-09
6.91049e-09
7.10261e-09
6.88259e-09
7.09918e-09
6.94383e-09
7.09906e-09
6.93849e-09
7.14518e-09
6.95251e-09
7.12231e-09
6.94409e-09
7.1326e-09
6.95148e-09
7.10657e-09
6.90943e-09
7.10832e-09
6.93993e-09
7.08239e-09
6.90261e-09
7.08803e-09
6.92236e-09
7.07628e-09
6.89545e-09
7.04543e-09
6.8683e-09
7.08088e-09
6.9029e-09
7.07641e-09
6.8938e-09
7.04875e-09
6.86728e-09
7.05728e-09
6.8968e-09
7.0646e-09
6.89834e-09
7.08574e-09
6.90049e-09
7.09015e-09
6.92755e-09
7.10965e-09
6.92135e-09
7.08932e-09
6.93755e-09
7.10245e-09
6.9027e-09
7.11195e-09
6.94976e-09
7.08512e-09
6.87954e-09
7.06767e-09
6.89831e-09
7.07863e-09
6.90201e-09
7.06658e-09
6.86571e-09
7.07239e-09
3.32546e-07
1.06816e-07
4.38296e-08
2.86479e-08
2.1363e-08
1.78406e-08
1.48537e-08
1.35245e-08
1.2008e-08
1.12942e-08
1.02342e-08
9.83235e-09
9.09007e-09
8.98648e-09
8.44622e-09
8.40247e-09
7.9589e-09
7.99563e-09
7.65065e-09
7.72295e-09
7.44488e-09
7.54161e-09
7.36898e-09
7.52576e-09
7.31707e-09
7.328e-09
7.10145e-09
7.2424e-09
7.03294e-09
7.18127e-09
6.99244e-09
7.12758e-09
6.9283e-09
7.09825e-09
6.91716e-09
7.05451e-09
6.86798e-09
7.03555e-09
6.87238e-09
7.04393e-09
6.86731e-09
7.03952e-09
6.85747e-09
7.02967e-09
6.85387e-09
7.00984e-09
6.83964e-09
7.01873e-09
6.8316e-09
6.99531e-09
6.82862e-09
7.00373e-09
6.82522e-09
6.99452e-09
6.83788e-09
6.99433e-09
6.81904e-09
6.99997e-09
6.81704e-09
6.99811e-09
6.80751e-09
6.97975e-09
6.79892e-09
6.99866e-09
6.85018e-09
7.01084e-09
6.8279e-09
7.02161e-09
6.86033e-09
7.04331e-09
6.88102e-09
7.04888e-09
6.88451e-09
7.04767e-09
6.89439e-09
7.04598e-09
6.93192e-09
7.08191e-09
6.90552e-09
7.10374e-09
6.90937e-09
7.07104e-09
6.93147e-09
7.10531e-09
6.93787e-09
7.09533e-09
6.91543e-09
7.09055e-09
6.92338e-09
7.06925e-09
6.8987e-09
7.08414e-09
6.91406e-09
7.06368e-09
6.88238e-09
7.06047e-09
6.89673e-09
7.04642e-09
6.87439e-09
7.00869e-09
6.83784e-09
7.05002e-09
6.88807e-09
7.06324e-09
6.8858e-09
7.02522e-09
6.85348e-09
7.03063e-09
6.86976e-09
7.05624e-09
6.88882e-09
7.07301e-09
6.88738e-09
7.07521e-09
6.90297e-09
7.09715e-09
6.92187e-09
7.08929e-09
6.93379e-09
7.10431e-09
6.92311e-09
7.1138e-09
6.95809e-09
7.10488e-09
6.91922e-09
7.10003e-09
6.9027e-09
7.07522e-09
6.90404e-09
7.06063e-09
6.86646e-09
7.0621e-09
3.33214e-07
1.06489e-07
4.42752e-08
2.89214e-08
2.13517e-08
1.80285e-08
1.50009e-08
1.35776e-08
1.20872e-08
1.1382e-08
1.03583e-08
9.91669e-09
9.1428e-09
8.98988e-09
8.47216e-09
8.39704e-09
7.97726e-09
7.99434e-09
7.66464e-09
7.72582e-09
7.45058e-09
7.55521e-09
7.39191e-09
7.41114e-09
7.18595e-09
7.32437e-09
7.11459e-09
7.24668e-09
7.01806e-09
7.17272e-09
6.97532e-09
7.10273e-09
6.90585e-09
7.10127e-09
6.9148e-09
7.06725e-09
6.86023e-09
7.03984e-09
6.85948e-09
7.03159e-09
6.85797e-09
7.03606e-09
6.8242e-09
7.00904e-09
6.8262e-09
7.01378e-09
6.83272e-09
7.04691e-09
6.83646e-09
7.01891e-09
6.81189e-09
7.00136e-09
6.80334e-09
7.01756e-09
6.84458e-09
7.02568e-09
6.84157e-09
7.02668e-09
6.82596e-09
7.01745e-09
6.84097e-09
7.00007e-09
6.80403e-09
7.02161e-09
6.85654e-09
7.01461e-09
6.83846e-09
7.01454e-09
6.85001e-09
7.03995e-09
6.88189e-09
7.03836e-09
6.85701e-09
7.03656e-09
6.84274e-09
7.02133e-09
6.87559e-09
7.05432e-09
6.90171e-09
7.04073e-09
6.82304e-09
7.02678e-09
6.86677e-09
7.04653e-09
6.88229e-09
7.05545e-09
6.8551e-09
7.05689e-09
6.87984e-09
7.04177e-09
6.8579e-09
7.04882e-09
6.87727e-09
7.05036e-09
6.85979e-09
7.0366e-09
6.84396e-09
7.01645e-09
6.8529e-09
6.99977e-09
6.81002e-09
7.03563e-09
6.87483e-09
7.06572e-09
6.88549e-09
7.04792e-09
6.86153e-09
7.02759e-09
6.8695e-09
7.05658e-09
6.89336e-09
7.06191e-09
6.8906e-09
7.07306e-09
6.89982e-09
7.08493e-09
6.91876e-09
7.08571e-09
6.91567e-09
7.06927e-09
6.89663e-09
7.09518e-09
6.93144e-09
7.07615e-09
6.91297e-09
7.09076e-09
6.90065e-09
7.06013e-09
6.88475e-09
7.03944e-09
6.86224e-09
7.04184e-09
3.32515e-07
1.06726e-07
4.44082e-08
2.85696e-08
2.12374e-08
1.79336e-08
1.48725e-08
1.3475e-08
1.19603e-08
1.12845e-08
1.02995e-08
9.87873e-09
9.0788e-09
8.92101e-09
8.43406e-09
8.3636e-09
7.95432e-09
7.97838e-09
7.65744e-09
7.72981e-09
7.44078e-09
7.55739e-09
7.30608e-09
7.4117e-09
7.16e-09
7.30065e-09
7.11178e-09
7.24329e-09
7.01352e-09
7.18634e-09
6.96734e-09
7.11098e-09
6.90442e-09
7.08923e-09
6.90787e-09
7.06941e-09
6.87714e-09
7.06546e-09
6.87447e-09
7.042e-09
6.88635e-09
7.05294e-09
6.84251e-09
7.04884e-09
6.87322e-09
7.03261e-09
6.85538e-09
7.06411e-09
6.89669e-09
7.07753e-09
6.88444e-09
7.05473e-09
6.85652e-09
7.03001e-09
6.86392e-09
7.03247e-09
6.86494e-09
7.04668e-09
6.85205e-09
7.02293e-09
6.85366e-09
6.9994e-09
6.82042e-09
7.01371e-09
6.83565e-09
7.02127e-09
6.83493e-09
7.01793e-09
6.83083e-09
7.01963e-09
6.87302e-09
7.04897e-09
6.84794e-09
7.04698e-09
6.83919e-09
7.04359e-09
6.85318e-09
7.06724e-09
6.90498e-09
7.04933e-09
6.84393e-09
7.0621e-09
6.88905e-09
7.08234e-09
6.90553e-09
7.08253e-09
6.89657e-09
7.09466e-09
6.92411e-09
7.09308e-09
6.89221e-09
7.06977e-09
6.88922e-09
7.06593e-09
6.88378e-09
7.06692e-09
6.87129e-09
7.03678e-09
6.86584e-09
7.02887e-09
6.83607e-09
7.04526e-09
6.86978e-09
7.05984e-09
6.88927e-09
7.05222e-09
6.86056e-09
7.03571e-09
6.86239e-09
7.04645e-09
6.87438e-09
7.03719e-09
6.86337e-09
7.04346e-09
6.87874e-09
7.06312e-09
6.90289e-09
7.07467e-09
6.88862e-09
7.0474e-09
6.8516e-09
7.06158e-09
6.88545e-09
7.04728e-09
6.87347e-09
7.05419e-09
6.88496e-09
7.04908e-09
6.86931e-09
7.0364e-09
6.86565e-09
7.04245e-09
3.48114e-07
1.08791e-07
4.44864e-08
2.84873e-08
2.11668e-08
1.79669e-08
1.50159e-08
1.35958e-08
1.19984e-08
1.13269e-08
1.03564e-08
9.93613e-09
9.16306e-09
9.02332e-09
8.44522e-09
8.43798e-09
8.02747e-09
8.03744e-09
7.68693e-09
7.75256e-09
7.47139e-09
7.58154e-09
7.33128e-09
7.45444e-09
7.18288e-09
7.31209e-09
7.11557e-09
7.2297e-09
7.04042e-09
7.19678e-09
7.00678e-09
7.14828e-09
6.95601e-09
7.12676e-09
6.90491e-09
7.08603e-09
6.90356e-09
7.04886e-09
6.89885e-09
7.05322e-09
6.93209e-09
7.05077e-09
6.86811e-09
7.08356e-09
6.87249e-09
7.039e-09
6.87224e-09
7.03739e-09
6.86859e-09
7.0358e-09
6.85992e-09
7.0341e-09
6.83835e-09
6.99346e-09
6.83574e-09
6.99532e-09
6.83561e-09
7.01668e-09
6.83377e-09
6.98876e-09
6.82318e-09
6.96409e-09
6.79703e-09
6.99029e-09
6.83292e-09
7.01572e-09
6.83759e-09
7.03475e-09
6.82805e-09
6.99385e-09
6.85434e-09
7.03364e-09
6.86767e-09
7.04954e-09
6.86198e-09
7.06325e-09
6.88708e-09
7.07964e-09
6.91244e-09
7.06775e-09
6.8821e-09
7.0674e-09
6.8943e-09
7.09646e-09
6.91039e-09
7.08435e-09
6.89978e-09
7.08305e-09
6.92136e-09
7.08122e-09
6.90518e-09
7.09131e-09
6.90263e-09
7.07892e-09
6.8892e-09
7.07697e-09
6.8863e-09
7.05391e-09
6.8671e-09
7.03711e-09
6.86477e-09
7.07438e-09
6.88353e-09
7.06407e-09
6.90637e-09
7.06439e-09
6.87592e-09
7.05352e-09
6.8666e-09
7.05895e-09
6.87775e-09
7.04818e-09
6.85005e-09
7.03927e-09
6.8517e-09
7.05873e-09
6.89701e-09
7.05241e-09
6.88619e-09
7.05599e-09
6.85754e-09
7.04102e-09
6.86932e-09
7.06043e-09
6.87422e-09
7.05507e-09
6.88105e-09
7.04722e-09
6.85262e-09
7.03912e-09
6.84538e-09
7.02743e-09
3.34774e-07
1.0753e-07
4.48044e-08
2.86386e-08
2.10853e-08
1.79621e-08
1.50317e-08
1.36253e-08
1.19726e-08
1.12651e-08
1.03228e-08
9.90011e-09
9.13893e-09
8.98511e-09
8.4253e-09
8.41354e-09
8.03739e-09
8.05062e-09
7.70531e-09
7.75221e-09
7.46892e-09
7.57623e-09
7.33711e-09
7.45742e-09
7.20108e-09
7.34992e-09
7.11455e-09
7.24654e-09
7.04682e-09
7.21506e-09
7.02529e-09
7.17336e-09
6.99742e-09
7.12257e-09
6.87456e-09
7.06461e-09
6.86896e-09
7.04529e-09
6.86017e-09
7.04869e-09
6.8847e-09
7.02879e-09
6.85161e-09
7.02353e-09
6.82558e-09
7.02097e-09
6.85131e-09
7.03374e-09
6.83427e-09
7.01398e-09
6.84059e-09
7.0228e-09
6.83157e-09
6.99986e-09
6.83376e-09
6.99977e-09
6.82843e-09
7.00746e-09
6.82351e-09
6.99092e-09
6.81585e-09
6.97182e-09
6.76881e-09
6.95893e-09
6.81088e-09
6.99202e-09
6.82957e-09
7.04756e-09
6.84033e-09
7.0165e-09
6.85453e-09
7.04147e-09
6.88752e-09
7.05606e-09
6.86321e-09
7.05969e-09
6.88343e-09
7.07988e-09
6.90577e-09
7.07949e-09
6.90655e-09
7.08493e-09
6.89119e-09
7.08337e-09
6.90866e-09
7.08052e-09
6.88957e-09
7.08605e-09
6.918e-09
7.06991e-09
6.89936e-09
7.08835e-09
6.90542e-09
7.06774e-09
6.88011e-09
7.04579e-09
6.88292e-09
7.06574e-09
6.86873e-09
7.01834e-09
6.84618e-09
7.06741e-09
6.8707e-09
7.04804e-09
6.87411e-09
7.05265e-09
6.88587e-09
7.06565e-09
6.87616e-09
7.06489e-09
6.91278e-09
7.07128e-09
6.8783e-09
7.0688e-09
6.85935e-09
7.08098e-09
6.91012e-09
7.04199e-09
6.8683e-09
7.05962e-09
6.87655e-09
7.0422e-09
6.85898e-09
7.05797e-09
6.89416e-09
7.06299e-09
6.89574e-09
7.05222e-09
6.8743e-09
7.03669e-09
6.84997e-09
7.03619e-09
3.33132e-07
1.06807e-07
4.49254e-08
2.86846e-08
2.11458e-08
1.79692e-08
1.50517e-08
1.36587e-08
1.20195e-08
1.12712e-08
1.03071e-08
9.88399e-09
9.12206e-09
8.96963e-09
8.40199e-09
8.36133e-09
7.98964e-09
8.03938e-09
7.73463e-09
7.76503e-09
7.47574e-09
7.58431e-09
7.35022e-09
7.44731e-09
7.2161e-09
7.35632e-09
7.12735e-09
7.2509e-09
7.03789e-09
7.21706e-09
7.00821e-09
7.169e-09
6.99759e-09
7.11275e-09
6.88531e-09
7.09194e-09
6.91405e-09
7.078e-09
6.88453e-09
7.06788e-09
6.8912e-09
7.06187e-09
6.86106e-09
7.02766e-09
6.83384e-09
7.0198e-09
6.87014e-09
7.05853e-09
6.85503e-09
7.03434e-09
6.85679e-09
7.02245e-09
6.82578e-09
7.01367e-09
6.83524e-09
7.01076e-09
6.80887e-09
6.98473e-09
6.80458e-09
6.96208e-09
6.80024e-09
6.98654e-09
6.78905e-09
6.96962e-09
6.80346e-09
6.98984e-09
6.82237e-09
7.03856e-09
6.83814e-09
7.00995e-09
6.85253e-09
7.03363e-09
6.89746e-09
7.05909e-09
6.86669e-09
7.05106e-09
6.86742e-09
7.08176e-09
6.9219e-09
7.09653e-09
6.94599e-09
7.13148e-09
6.94616e-09
7.11652e-09
6.93017e-09
7.11018e-09
6.8979e-09
7.09763e-09
6.9111e-09
7.0684e-09
6.87874e-09
7.06896e-09
6.90394e-09
7.06876e-09
6.86397e-09
7.04871e-09
6.87559e-09
7.07458e-09
6.8956e-09
7.04489e-09
6.86399e-09
7.05908e-09
6.89944e-09
7.08494e-09
6.89649e-09
7.06157e-09
6.89551e-09
7.08637e-09
6.89335e-09
7.06034e-09
6.91099e-09
7.0576e-09
6.88255e-09
7.05301e-09
6.85858e-09
7.06976e-09
6.90894e-09
7.05181e-09
6.87229e-09
7.061e-09
6.88202e-09
7.05918e-09
6.84211e-09
7.04719e-09
6.86324e-09
7.03139e-09
6.87073e-09
7.04196e-09
6.87821e-09
7.04873e-09
6.85506e-09
7.04911e-09
3.32872e-07
1.06783e-07
4.42182e-08
2.84865e-08
2.11378e-08
1.78609e-08
1.49652e-08
1.35721e-08
1.2026e-08
1.13088e-08
1.03084e-08
9.89226e-09
9.14555e-09
9.02254e-09
8.45195e-09
8.36476e-09
7.92541e-09
7.98895e-09
7.7347e-09
7.75607e-09
7.48263e-09
7.5774e-09
7.3387e-09
7.4151e-09
7.1876e-09
7.30729e-09
7.10538e-09
7.24636e-09
7.01923e-09
7.16295e-09
6.97308e-09
7.11438e-09
6.93601e-09
7.08058e-09
6.86789e-09
7.05646e-09
6.8928e-09
7.05064e-09
6.8747e-09
7.02995e-09
6.87074e-09
7.04617e-09
6.88061e-09
7.05128e-09
6.85152e-09
7.03257e-09
6.86223e-09
7.04503e-09
6.86199e-09
7.03928e-09
6.85569e-09
7.03266e-09
6.84547e-09
7.02045e-09
6.85108e-09
7.03354e-09
6.8234e-09
7.01346e-09
6.8191e-09
6.97448e-09
6.77687e-09
6.97941e-09
6.81361e-09
7.01183e-09
6.8329e-09
7.02437e-09
6.83902e-09
7.04732e-09
6.8573e-09
7.0338e-09
6.85099e-09
7.04016e-09
6.89804e-09
7.06584e-09
6.88911e-09
7.06977e-09
6.86869e-09
7.09314e-09
6.92122e-09
7.09293e-09
6.9261e-09
7.09608e-09
6.94326e-09
7.11176e-09
6.93108e-09
7.10285e-09
6.92095e-09
7.09091e-09
6.90625e-09
7.08938e-09
6.88494e-09
7.06374e-09
6.90587e-09
7.08238e-09
6.88997e-09
7.06437e-09
6.87316e-09
7.05089e-09
6.88322e-09
7.05699e-09
6.86815e-09
7.03603e-09
6.8748e-09
7.0693e-09
6.88967e-09
7.03787e-09
6.86351e-09
7.04839e-09
6.87119e-09
7.03474e-09
6.86371e-09
7.04424e-09
6.8754e-09
7.04774e-09
6.85146e-09
7.06262e-09
6.88344e-09
7.03716e-09
6.87645e-09
7.06162e-09
6.90565e-09
7.08103e-09
6.88157e-09
7.07913e-09
6.86138e-09
7.05042e-09
6.85869e-09
7.04499e-09
6.88967e-09
7.07342e-09
6.88903e-09
7.06286e-09
3.33218e-07
1.06539e-07
4.40184e-08
2.85498e-08
2.13258e-08
1.80022e-08
1.489e-08
1.35366e-08
1.19467e-08
1.12821e-08
1.02745e-08
9.88685e-09
9.11938e-09
8.99244e-09
8.45203e-09
8.3734e-09
7.88448e-09
7.97227e-09
7.70574e-09
7.75895e-09
7.4737e-09
7.59686e-09
7.3362e-09
7.43317e-09
7.1824e-09
7.30639e-09
7.07967e-09
7.22303e-09
7.01882e-09
7.18305e-09
6.98656e-09
7.11314e-09
6.91116e-09
7.06053e-09
6.86633e-09
7.05908e-09
6.87136e-09
7.06082e-09
6.88236e-09
7.02227e-09
6.82451e-09
7.02413e-09
6.88122e-09
7.04693e-09
6.86545e-09
7.05866e-09
6.86101e-09
7.04133e-09
6.86814e-09
7.01622e-09
6.84187e-09
7.03246e-09
6.85339e-09
7.02261e-09
6.85758e-09
7.02663e-09
6.85602e-09
7.03121e-09
6.85996e-09
7.03319e-09
6.81313e-09
6.98355e-09
6.81363e-09
7.01485e-09
6.86186e-09
7.06162e-09
6.88057e-09
7.06872e-09
6.90137e-09
7.06708e-09
6.87014e-09
7.0625e-09
6.91132e-09
7.06847e-09
6.91117e-09
7.06923e-09
6.87856e-09
7.07847e-09
6.90144e-09
7.08871e-09
6.90153e-09
7.05621e-09
6.89363e-09
7.09209e-09
6.91501e-09
7.10369e-09
6.91504e-09
7.0711e-09
6.89658e-09
7.07968e-09
6.88801e-09
7.07506e-09
6.908e-09
7.09684e-09
6.92294e-09
7.09347e-09
6.8915e-09
7.05926e-09
6.86261e-09
7.05485e-09
6.88698e-09
7.05177e-09
6.8668e-09
7.0587e-09
6.89371e-09
7.06765e-09
6.8743e-09
7.05295e-09
6.87042e-09
7.03235e-09
6.86137e-09
7.0516e-09
6.89076e-09
7.06318e-09
6.87047e-09
7.09169e-09
6.88497e-09
7.03568e-09
6.84956e-09
7.03783e-09
6.87381e-09
7.04886e-09
6.89193e-09
7.09588e-09
6.89593e-09
7.08905e-09
6.88625e-09
7.05687e-09
6.88601e-09
7.09515e-09
6.93727e-09
7.08288e-09
3.33432e-07
1.06532e-07
4.37362e-08
2.84686e-08
2.13659e-08
1.79708e-08
1.50607e-08
1.36351e-08
1.20103e-08
1.13322e-08
1.03283e-08
9.93359e-09
9.17251e-09
8.99178e-09
8.46921e-09
8.39093e-09
7.90754e-09
7.98049e-09
7.71238e-09
7.75039e-09
7.46904e-09
7.5653e-09
7.31552e-09
7.40708e-09
7.17761e-09
7.31936e-09
7.11134e-09
7.25379e-09
7.03503e-09
7.20918e-09
7.00112e-09
7.16793e-09
6.94111e-09
7.08001e-09
6.88778e-09
7.05125e-09
6.85845e-09
7.05506e-09
6.90086e-09
7.06322e-09
6.85972e-09
7.02531e-09
6.85975e-09
7.02389e-09
6.88068e-09
7.04278e-09
6.86075e-09
7.02311e-09
6.84063e-09
6.99488e-09
6.82452e-09
7.00013e-09
6.82274e-09
7.00711e-09
6.81997e-09
6.98259e-09
6.8227e-09
6.98393e-09
6.83987e-09
7.02031e-09
6.83971e-09
7.01065e-09
6.82534e-09
7.01272e-09
6.86358e-09
7.05773e-09
6.88787e-09
7.05736e-09
6.90027e-09
7.06278e-09
6.87022e-09
7.06298e-09
6.89429e-09
7.06878e-09
6.9075e-09
7.07795e-09
6.89924e-09
7.07058e-09
6.87497e-09
7.03618e-09
6.87527e-09
7.04401e-09
6.8658e-09
7.06365e-09
6.90749e-09
7.09056e-09
6.89862e-09
7.07031e-09
6.89971e-09
7.06645e-09
6.88636e-09
7.07225e-09
6.88015e-09
7.07194e-09
6.92677e-09
7.08257e-09
6.91665e-09
7.09742e-09
6.88265e-09
7.06229e-09
6.89027e-09
7.08514e-09
6.8841e-09
7.06498e-09
6.88244e-09
7.05676e-09
6.87236e-09
7.0688e-09
6.87623e-09
7.04225e-09
6.86194e-09
7.04567e-09
6.88766e-09
7.03862e-09
6.87319e-09
7.0787e-09
6.90188e-09
7.06106e-09
6.86738e-09
7.06363e-09
6.87401e-09
7.05604e-09
6.89228e-09
7.06371e-09
6.91322e-09
7.09842e-09
6.91662e-09
7.07903e-09
6.88043e-09
7.07879e-09
6.92797e-09
7.08274e-09
3.33037e-07
1.06373e-07
4.38739e-08
2.85135e-08
2.12736e-08
1.78243e-08
1.49606e-08
1.35285e-08
1.1929e-08
1.12907e-08
1.02496e-08
9.8515e-09
9.14354e-09
8.92979e-09
8.41756e-09
8.32306e-09
7.8897e-09
7.94344e-09
7.66138e-09
7.71878e-09
7.48552e-09
7.55975e-09
7.3028e-09
7.40449e-09
7.16942e-09
7.3267e-09
7.12467e-09
7.282e-09
7.09189e-09
7.21526e-09
7.01219e-09
7.18742e-09
6.98473e-09
7.19799e-09
6.89509e-09
7.05098e-09
6.85073e-09
7.03778e-09
6.89257e-09
7.06037e-09
6.86682e-09
7.02239e-09
6.80051e-09
6.98822e-09
6.85003e-09
7.02318e-09
6.84592e-09
7.01241e-09
6.81191e-09
6.98263e-09
6.81072e-09
6.98917e-09
6.81452e-09
7.00311e-09
6.81434e-09
6.99222e-09
6.80788e-09
6.98861e-09
6.82273e-09
6.99903e-09
6.82599e-09
7.00885e-09
6.8213e-09
7.00416e-09
6.83755e-09
7.01694e-09
6.84876e-09
7.03584e-09
6.87728e-09
7.04702e-09
6.85923e-09
7.05334e-09
6.87849e-09
7.04896e-09
6.88399e-09
7.06088e-09
6.89392e-09
7.08493e-09
6.86832e-09
7.03201e-09
6.87643e-09
7.07071e-09
6.87705e-09
7.0698e-09
6.91458e-09
7.09373e-09
6.90291e-09
7.07876e-09
6.90817e-09
7.08019e-09
6.89898e-09
7.07915e-09
6.87703e-09
7.07426e-09
6.89976e-09
7.06023e-09
6.89654e-09
7.09035e-09
6.90461e-09
7.07634e-09
6.9038e-09
7.10329e-09
6.93228e-09
7.12044e-09
6.92516e-09
7.08288e-09
6.89397e-09
7.06932e-09
6.89305e-09
7.05294e-09
6.86988e-09
7.06057e-09
6.89103e-09
7.04652e-09
6.85915e-09
7.02898e-09
6.87561e-09
7.04289e-09
6.87337e-09
7.04993e-09
6.85776e-09
7.05756e-09
6.86596e-09
7.0185e-09
6.87024e-09
7.05536e-09
6.91389e-09
7.08154e-09
6.87841e-09
7.06608e-09
6.90429e-09
7.09697e-09
3.31048e-07
1.06132e-07
4.38873e-08
2.8612e-08
2.13537e-08
1.79407e-08
1.496e-08
1.35504e-08
1.19317e-08
1.13107e-08
1.02912e-08
9.88695e-09
9.16422e-09
8.97703e-09
8.43606e-09
8.34883e-09
7.9143e-09
7.93516e-09
7.60406e-09
7.65563e-09
7.43252e-09
7.50263e-09
7.30049e-09
7.41187e-09
7.15527e-09
7.32498e-09
7.09249e-09
7.22414e-09
7.06086e-09
7.18796e-09
6.98685e-09
7.20023e-09
7.09102e-09
7.1302e-09
6.91513e-09
7.0699e-09
6.86099e-09
7.04178e-09
6.87287e-09
7.04417e-09
6.88377e-09
7.05754e-09
6.81144e-09
7.00165e-09
6.84269e-09
7.0262e-09
6.84379e-09
7.03137e-09
6.83786e-09
7.0062e-09
6.81532e-09
7.01192e-09
6.84818e-09
7.03419e-09
6.85686e-09
7.03371e-09
6.8455e-09
7.03153e-09
6.85013e-09
7.0159e-09
6.82254e-09
6.99631e-09
6.83215e-09
7.02371e-09
6.83924e-09
7.02525e-09
6.84437e-09
7.03598e-09
6.87135e-09
7.03476e-09
6.8501e-09
7.05295e-09
6.87308e-09
7.05393e-09
6.89556e-09
7.0591e-09
6.90539e-09
7.07141e-09
6.88258e-09
7.02666e-09
6.88204e-09
7.0539e-09
6.8908e-09
7.09305e-09
6.8793e-09
7.08583e-09
6.9085e-09
7.06936e-09
6.9107e-09
7.06765e-09
6.90962e-09
7.05969e-09
6.88477e-09
7.07517e-09
6.89978e-09
7.07666e-09
6.90065e-09
7.07528e-09
6.90505e-09
7.09166e-09
6.91207e-09
7.09087e-09
6.9241e-09
7.10213e-09
6.9121e-09
7.08799e-09
6.88812e-09
7.05577e-09
6.87241e-09
7.03633e-09
6.85272e-09
7.03324e-09
6.87073e-09
7.05843e-09
6.86462e-09
7.02826e-09
6.86214e-09
7.044e-09
6.87908e-09
7.05109e-09
6.8711e-09
7.07587e-09
6.87993e-09
7.04473e-09
6.84908e-09
7.0312e-09
6.88603e-09
7.03875e-09
6.87647e-09
7.06474e-09
6.90733e-09
7.0861e-09
3.31052e-07
1.06036e-07
4.40588e-08
2.84837e-08
2.1391e-08
1.79218e-08
1.49979e-08
1.35306e-08
1.19365e-08
1.12916e-08
1.02491e-08
9.89083e-09
9.14663e-09
8.96435e-09
8.42772e-09
8.35798e-09
7.95181e-09
7.99009e-09
7.61219e-09
7.67583e-09
7.41323e-09
7.50836e-09
7.28652e-09
7.39712e-09
7.15772e-09
7.34557e-09
7.10219e-09
7.22784e-09
7.0321e-09
7.20401e-09
6.96435e-09
7.16107e-09
6.97941e-09
7.1225e-09
6.91804e-09
7.09821e-09
6.90075e-09
7.09321e-09
6.89096e-09
7.06208e-09
6.90547e-09
7.07001e-09
6.86443e-09
7.02963e-09
6.84027e-09
7.03499e-09
6.86381e-09
7.03936e-09
6.86157e-09
7.04056e-09
6.83147e-09
7.03333e-09
6.85028e-09
7.05805e-09
6.86036e-09
7.03239e-09
6.84942e-09
7.03128e-09
6.86039e-09
7.0371e-09
6.83791e-09
7.02013e-09
6.86033e-09
7.04249e-09
6.86927e-09
7.05079e-09
6.87127e-09
7.04404e-09
6.88154e-09
7.0565e-09
6.88522e-09