/*--------------------------------*- C++ -*----------------------------------*\
| =========                 |                                                 |
| \\      /  F ield         | OpenFOAM: The Open Source CFD Toolbox           |
|  \\    /   O peration     | Version:  2206                                  |
|   \\  /    A nd           | Website:  www.openfoam.com                      |
|    \\/     M anipulation  |                                                 |
\*---------------------------------------------------------------------------*/
FoamFile
{
    version     2.0;
    format      ascii;
    arch        "LSB;label=32;scalar=64";
    class       volScalarField;
    location    "0.9";
    object      nut;
}
// * * * * * * * * * * * * * * * * * * * * * * * * * * * * * * * * * * * * * //

dimensions      [0 2 -1 0 0 0 0];

internalField   nonuniform List<scalar> 
184485
(
5.01483e-16
4.97101e-16
1.0763e-15
5.04069e-16
4.80994e-16
4.79049e-16
4.94066e-16
4.95937e-16
4.8361e-16
4.97641e-16
4.8919e-16
4.81307e-16
4.88694e-16
4.9749e-16
4.82594e-16
5.02014e-16
4.86181e-16
8.00349e-16
4.77548e-16
5.39504e-16
4.88916e-16
4.90707e-16
5.64064e-16
4.89723e-16
4.98609e-16
4.75764e-16
4.97942e-16
7.27816e-16
4.92016e-16
4.7876e-16
4.90943e-16
4.7537e-16
4.8496e-16
4.93357e-16
4.99439e-16
4.76403e-16
4.7867e-16
4.80739e-16
4.9376e-16
4.77258e-16
4.78983e-16
4.90954e-16
4.7783e-16
4.83549e-16
4.89186e-16
4.90069e-16
5.05901e-16
4.76378e-16
5.27656e-16
4.99958e-16
4.91281e-16
4.82013e-16
4.80459e-16
6.46809e-16
4.81498e-16
5.41765e-16
4.81851e-16
5.03338e-16
5.00175e-16
5.30431e-16
6.34987e-16
4.77049e-16
5.14887e-16
4.86747e-16
4.90116e-16
4.7825e-16
4.89827e-16
4.74857e-16
4.9143e-16
5.0363e-16
4.73807e-16
4.99665e-16
4.79967e-16
4.79317e-16
4.75554e-16
4.94009e-16
4.88797e-16
4.83898e-16
4.97125e-16
4.76285e-16
4.80431e-16
4.88503e-16
4.80742e-16
4.73479e-16
5.01505e-16
4.74186e-16
4.74036e-16
4.83677e-16
4.89299e-16
4.87832e-16
5.0131e-16
4.8338e-16
5.01672e-16
4.92502e-16
2.00033e-15
1.06271e-15
4.76827e-16
9.74349e-16
4.93609e-16
5.03367e-16
1.26216e-15
4.9083e-16
4.9771e-16
4.95127e-16
4.90269e-16
4.76971e-16
4.73758e-16
4.85195e-16
2.10325e-14
5.03775e-16
4.92684e-16
6.99476e-16
4.94942e-16
4.76233e-16
5.01587e-16
4.8536e-16
4.86872e-16
5.10352e-16
4.89081e-16
4.85803e-16
4.82066e-16
6.99999e-15
4.94274e-16
4.99657e-16
5.03103e-16
3.06391e-15
4.92728e-16
6.85773e-15
5.0409e-16
5.01736e-16
5.02273e-16
5.02975e-16
4.92459e-16
4.82328e-16
1.4799e-15
4.85479e-16
5.35252e-16
5.01913e-16
5.02633e-16
5.02082e-16
5.93172e-16
4.95217e-16
4.96545e-16
4.82908e-16
5.01459e-16
5.00388e-16
4.84381e-16
4.98164e-16
7.27863e-16
4.83133e-16
5.98486e-16
5.04226e-16
5.20343e-16
4.74921e-16
4.96816e-16
5.41231e-16
4.85928e-16
6.026e-16
4.957e-16
4.8386e-16
5.28213e-16
5.01378e-16
5.01717e-16
4.90838e-16
4.85674e-16
4.88709e-16
4.82908e-16
7.28952e-16
4.84548e-16
2.05832e-14
3.01916e-15
6.34014e-16
4.85345e-16
5.01431e-16
5.00979e-16
4.84424e-16
4.99319e-16
4.878e-16
4.88629e-16
4.77275e-16
6.46841e-16
4.81497e-16
4.96386e-16
5.9484e-16
4.9988e-16
4.85034e-16
4.85926e-16
4.83223e-16
4.9063e-16
4.9864e-16
4.85252e-16
4.84362e-16
4.93024e-16
5.00409e-16
4.99845e-16
5.05029e-16
4.82053e-16
4.92999e-16
4.89542e-16
4.96045e-16
4.97573e-16
4.85212e-16
4.80979e-16
4.8111e-16
5.01096e-16
4.92101e-16
4.9981e-16
4.86947e-16
4.87817e-16
4.86651e-16
4.94069e-16
5.00795e-16
4.92087e-16
4.84526e-16
5.4939e-16
4.82691e-16
4.79441e-16
4.93902e-16
4.80834e-16
4.97087e-16
4.80657e-16
5.38553e-16
4.79104e-16
4.84765e-16
5.01064e-16
4.87434e-16
4.9839e-16
4.92527e-16
4.94193e-16
4.8448e-16
4.94698e-16
5.04756e-16
5.44798e-16
5.00409e-16
5.03105e-16
6.46741e-16
5.18482e-16
5.02507e-16
4.94229e-16
2.00684e-15
4.93555e-16
4.90144e-16
4.82317e-16
4.99083e-16
4.97372e-16
4.86372e-16
4.85045e-16
5.1278e-16
4.82195e-16
4.85876e-16
4.81734e-16
5.01707e-16
4.94673e-16
9.58706e-16
7.19731e-16
5.221e-16
4.8631e-16
4.9492e-16
5.02012e-16
6.39552e-16
5.03577e-16
5.0423e-16
5.39229e-16
4.98748e-16
5.46727e-16
5.01526e-16
5.14481e-16
4.98937e-16
1.50684e-15
4.80173e-16
5.6197e-16
4.94168e-16
5.15772e-16
5.14631e-16
4.92626e-16
4.83762e-16
4.78115e-16
5.00801e-16
4.96617e-16
4.96915e-16
4.87306e-16
4.86082e-16
4.96351e-16
4.83507e-16
4.99769e-16
5.04987e-16
4.91543e-16
4.86881e-16
4.95544e-16
4.88256e-16
4.86954e-16
5.01861e-16
4.97913e-16
4.88394e-16
4.89109e-16
4.89347e-16
1.26657e-15
4.95452e-16
8.41251e-16
5.03211e-16
4.88893e-16
5.26071e-16
4.90737e-16
4.90264e-16
4.8719e-16
4.89776e-16
5.11671e-16
5.18911e-16
5.98932e-16
4.95773e-16
4.87259e-16
4.76085e-16
4.81205e-16
4.90785e-16
4.86628e-16
4.99736e-16
5.09806e-16
5.01213e-16
5.31467e-16
9.7552e-16
5.9161e-16
1.25577e-15
5.64572e-16
8.02196e-16
4.95547e-16
4.85682e-16
4.87263e-16
4.98801e-16
1.05104e-15
6.95136e-15
4.86946e-16
6.32645e-16
5.59975e-16
4.891e-16
4.93272e-16
5.08186e-16
4.87521e-16
4.8349e-16
4.87089e-16
4.85712e-16
4.79977e-16
4.91687e-16
5.09601e-16
5.06034e-16
4.89407e-16
5.40607e-16
4.84886e-16
4.84662e-16
5.02022e-16
5.00262e-16
4.86877e-16
4.96778e-16
4.86e-16
4.99221e-16
4.97242e-16
4.86663e-16
5.09827e-16
7.90457e-16
4.92982e-16
4.86593e-16
4.84605e-16
4.87882e-16
4.9064e-16
4.98131e-16
5.15389e-16
4.82862e-16
4.85595e-16
4.83853e-16
5.03936e-16
4.88266e-16
4.8686e-16
5.60579e-16
5.08865e-16
7.98754e-16
4.88524e-16
5.04426e-16
5.02356e-16
5.0295e-16
4.99134e-16
4.98862e-16
4.8708e-16
2.08672e-14
4.87394e-16
4.92661e-16
4.88062e-16
4.75553e-16
4.85749e-16
4.99744e-16
4.91335e-16
4.93889e-16
4.93469e-16
5.0471e-16
4.83279e-16
4.93561e-16
1.08066e-15
9.65093e-16
4.9106e-16
5.07056e-16
3.01057e-15
5.00345e-16
4.81232e-16
5.0171e-16
5.03267e-16
4.86964e-16
4.906e-16
5.10814e-16
4.97609e-16
4.98758e-16
4.89128e-16
4.77178e-16
4.87891e-16
4.8545e-16
4.96446e-16
4.75619e-16
4.99798e-16
4.75089e-16
4.778e-16
5.05498e-16
4.82414e-16
4.84123e-16
4.89678e-16
4.76454e-16
4.757e-16
4.89173e-16
4.88716e-16
5.02046e-16
4.94705e-16
4.87862e-16
4.79483e-16
4.93839e-16
4.8781e-16
1.06015e-15
1.46828e-15
4.8354e-16
4.90154e-16
8.52479e-16
4.77464e-16
4.8343e-16
4.98168e-16
4.98422e-16
4.78404e-16
2.03174e-15
5.95022e-16
4.93714e-16
2.01003e-15
5.18188e-16
5.02975e-16
1.51126e-15
1.9767e-15
4.75928e-16
4.91408e-16
4.95197e-16
4.82871e-16
5.63258e-16
5.02692e-16
4.88186e-16
4.87254e-16
4.86744e-16
4.87301e-16
5.05811e-16
5.00046e-16
5.02953e-16
4.93016e-16
4.80847e-16
5.10261e-16
5.0081e-16
4.96665e-16
4.87878e-16
4.87969e-16
5.00264e-16
5.28261e-16
4.80598e-16
4.78913e-16
5.03591e-16
4.89334e-16
4.98584e-16
5.04432e-16
4.87424e-16
4.7265e-16
4.87288e-16
4.73175e-16
5.02528e-16
4.90781e-16
5.22597e-16
4.9204e-16
4.91151e-16
4.83887e-16
5.32277e-16
5.03252e-16
4.78694e-16
5.03964e-16
4.83747e-16
5.17668e-16
5.28742e-16
5.29594e-16
5.03322e-16
4.85493e-16
4.92455e-16
4.82001e-16
8.04189e-16
8.53731e-16
4.85455e-16
4.98194e-16
5.38067e-16
4.85192e-16
4.96825e-16
4.83462e-16
4.89861e-16
5.43133e-16
5.5065e-16
5.00105e-16
5.00043e-16
1.26341e-15
5.67646e-16
5.67048e-16
4.89585e-16
5.00694e-16
5.04467e-16
4.98921e-16
4.87215e-16
5.14181e-16
4.80791e-16
4.81898e-16
4.87173e-16
4.98887e-16
5.22389e-16
4.80901e-16
5.67581e-16
4.79427e-16
4.86464e-16
5.02162e-16
4.87738e-16
8.60855e-16
6.96403e-16
5.18381e-16
4.76373e-16
4.7718e-16
6.95619e-15
4.87373e-16
4.97649e-16
4.70758e-16
4.77402e-16
4.9621e-16
4.8601e-16
4.90452e-16
4.76726e-16
4.98404e-16
4.85084e-16
6.98966e-16
5.04457e-16
4.85831e-16
5.01257e-16
4.81182e-16
2.13542e-14
5.11181e-16
4.88677e-16
4.84568e-16
4.8745e-16
5.67233e-16
4.85688e-16
8.49921e-16
4.90796e-16
5.03664e-16
3.0527e-15
4.85478e-16
5.03668e-16
6.10264e-16
4.96505e-16
4.99582e-16
4.91802e-16
4.98152e-16
1.27186e-15
1.49245e-15
5.0351e-16
4.9551e-16
4.95215e-16
5.91656e-16
4.90431e-16
6.55857e-16
4.75938e-16
4.94631e-16
6.43075e-16
4.9503e-16
4.87942e-16
5.01466e-16
4.90507e-16
4.83502e-16
5.03437e-16
4.84024e-16
4.97917e-16
5.04936e-16
4.79687e-16
2.11323e-14
7.07915e-15
3.08756e-15
9.54008e-16
6.9297e-16
6.2745e-16
5.88209e-16
5.35057e-16
5.28462e-16
5.06251e-16
5.01485e-16
5.13102e-16
5.02153e-16
4.89988e-16
4.97937e-16
4.99942e-16
4.89484e-16
5.01194e-16
4.98362e-16
4.96807e-16
4.86508e-16
4.97639e-16
4.87013e-16
4.9816e-16
4.97834e-16
4.88237e-16
4.9919e-16
4.98929e-16
4.85964e-16
4.84055e-16
4.84014e-16
4.94284e-16
4.83402e-16
4.95385e-16
4.94809e-16
4.97911e-16
4.87125e-16
5.00926e-16
4.98737e-16
4.86234e-16
7.29379e-16
5.00699e-16
4.90801e-16
5.02325e-16
4.89649e-16
4.89089e-16
5.01931e-16
5.02046e-16
4.92112e-16
5.02207e-16
7.01481e-16
4.89253e-16
4.89954e-16
5.00482e-16
4.91444e-16
5.03395e-16
4.84744e-16
4.86132e-16
4.98129e-16
4.85418e-16
4.86364e-16
4.98366e-16
4.99535e-16
4.87407e-16
4.8649e-16
4.98693e-16
4.8286e-16
4.87066e-16
2.1189e-14
7.02362e-15
3.04134e-15
2.0175e-15
1.53075e-15
1.26295e-15
1.05521e-15
9.6267e-16
8.47695e-16
7.93912e-16
7.19307e-16
6.95379e-16
6.40923e-16
6.33942e-16
5.96276e-16
5.94197e-16
5.64302e-16
5.64539e-16
5.39967e-16
5.46096e-16
5.26303e-16
5.33437e-16
5.15312e-16
5.33281e-16
5.17582e-16
5.22627e-16
5.04016e-16
5.13199e-16
4.99313e-16
5.09824e-16
4.9978e-16
5.07364e-16
4.93578e-16
5.03862e-16
4.89984e-16
5.02266e-16
4.87077e-16
4.98697e-16
4.87061e-16
4.98503e-16
4.8628e-16
4.98313e-16
4.85211e-16
4.97902e-16
4.84774e-16
4.9677e-16
4.84191e-16
4.96733e-16
4.84181e-16
4.98109e-16
4.84889e-16
4.96796e-16
4.85251e-16
4.96737e-16
4.85572e-16
4.97231e-16
4.82205e-16
4.95216e-16
4.81644e-16
4.92949e-16
4.81016e-16
4.94674e-16
4.84026e-16
4.95447e-16
4.81808e-16
4.95914e-16
4.82986e-16
4.95238e-16
4.8369e-16
4.96742e-16
4.84397e-16
4.97884e-16
4.86089e-16
4.98377e-16
4.87527e-16
5.01043e-16
4.88357e-16
5.00265e-16
4.85201e-16
5.00389e-16
4.89503e-16
5.0249e-16
4.901e-16
5.03195e-16
4.88259e-16
4.99827e-16
4.87662e-16
5.01693e-16
4.88649e-16
4.99245e-16
4.8575e-16
5.01426e-16
4.90662e-16
5.01557e-16
4.88178e-16
5.01643e-16
4.88857e-16
5.00689e-16
4.87826e-16
4.98688e-16
4.85347e-16
5.00139e-16
4.8863e-16
5.0148e-16
4.87487e-16
5.00107e-16
4.86723e-16
4.98907e-16
4.87159e-16
4.99939e-16
4.86345e-16
4.99886e-16
4.8592e-16
5.00997e-16
4.87895e-16
5.01138e-16
4.8679e-16
5.01028e-16
4.88876e-16
5.01389e-16
4.87452e-16
5.03105e-16
4.90908e-16
4.99649e-16
4.85858e-16
5.00799e-16
4.88886e-16
5.0216e-16
4.86607e-16
5.00156e-16
4.86536e-16
5.0096e-16
2.11565e-14
7.01756e-15
3.03411e-15
1.98858e-15
1.51246e-15
1.27335e-15
1.05981e-15
9.72899e-16
8.6132e-16
8.03915e-16
7.29404e-16
7.02386e-16
6.48233e-16
6.3889e-16
5.99297e-16
5.94632e-16
5.65068e-16
5.66304e-16
5.41064e-16
5.46495e-16
5.27004e-16
5.35367e-16
5.17707e-16
5.33091e-16
5.17283e-16
5.156e-16
5.00277e-16
5.12511e-16
4.97434e-16
5.082e-16
4.95559e-16
5.05411e-16
4.91757e-16
5.02311e-16
4.89074e-16
5.00614e-16
4.86875e-16
4.98674e-16
4.86543e-16
4.98657e-16
4.86661e-16
4.9856e-16
4.86607e-16
4.98695e-16
4.8636e-16
4.96352e-16
4.84125e-16
4.97561e-16
4.85201e-16
4.9847e-16
4.85541e-16
4.98135e-16
4.84879e-16
4.96245e-16
4.85235e-16
4.9659e-16
4.83166e-16
4.9644e-16
4.82737e-16
4.94768e-16
4.81128e-16
4.94589e-16
4.83648e-16
4.96232e-16
4.83535e-16
4.96752e-16
4.82459e-16
4.95352e-16
4.83479e-16
4.96555e-16
4.83906e-16
4.98402e-16
4.85847e-16
4.98476e-16
4.87033e-16
5.00639e-16
4.89004e-16
5.02599e-16
4.8703e-16
5.02356e-16
4.91364e-16
5.02348e-16
4.90985e-16
5.05611e-16
4.91977e-16
5.03993e-16
4.91382e-16
5.04721e-16
4.91905e-16
5.02879e-16
4.88929e-16
5.03003e-16
4.91087e-16
5.01168e-16
4.88447e-16
5.01567e-16
4.89844e-16
5.00736e-16
4.8794e-16
4.98553e-16
4.86018e-16
5.01061e-16
4.88467e-16
5.00745e-16
4.87823e-16
4.98788e-16
4.85946e-16
4.99391e-16
4.88036e-16
4.99909e-16
4.88144e-16
5.01405e-16
4.88296e-16
5.01718e-16
4.90211e-16
5.03097e-16
4.89773e-16
5.01659e-16
4.90919e-16
5.02587e-16
4.88453e-16
5.0326e-16
4.91783e-16
5.01361e-16
4.86814e-16
5.00127e-16
4.88142e-16
5.00902e-16
4.88404e-16
5.0005e-16
4.85835e-16
5.0046e-16
2.11003e-14
7.02314e-15
3.0142e-15
1.99286e-15
1.50545e-15
1.25944e-15
1.05061e-15
9.56785e-16
8.49677e-16
7.99188e-16
7.24195e-16
6.9576e-16
6.43237e-16
6.35906e-16
5.97677e-16
5.9458e-16
5.63192e-16
5.65791e-16
5.4138e-16
5.46496e-16
5.26819e-16
5.33663e-16
5.21448e-16
5.32542e-16
5.17774e-16
5.18548e-16
5.02517e-16
5.12491e-16
4.97669e-16
5.08165e-16
4.94803e-16
5.04366e-16
4.90265e-16
5.0229e-16
4.89476e-16
4.99196e-16
4.85996e-16
4.97854e-16
4.86307e-16
4.98447e-16
4.85949e-16
4.98134e-16
4.85252e-16
4.97437e-16
4.84998e-16
4.96034e-16
4.8399e-16
4.96664e-16
4.83422e-16
4.95006e-16
4.83211e-16
4.95602e-16
4.8297e-16
4.9495e-16
4.83866e-16
4.94937e-16
4.82533e-16
4.95336e-16
4.82391e-16
4.95204e-16
4.81717e-16
4.93905e-16
4.81109e-16
4.95243e-16
4.84736e-16
4.96105e-16
4.8316e-16
4.96867e-16
4.85455e-16
4.98403e-16
4.86919e-16
4.98797e-16
4.87166e-16
4.98711e-16
4.87865e-16
4.98592e-16
4.90521e-16
5.01134e-16
4.88652e-16
5.02679e-16
4.88925e-16
5.00365e-16
4.90488e-16
5.0279e-16
4.90942e-16
5.02083e-16
4.89354e-16
5.01745e-16
4.89916e-16
5.00238e-16
4.8817e-16
5.01292e-16
4.89257e-16
4.99844e-16
4.87015e-16
4.99617e-16
4.88031e-16
4.98623e-16
4.86449e-16
4.95953e-16
4.83863e-16
4.98877e-16
4.87418e-16
4.99813e-16
4.87257e-16
4.97123e-16
4.8497e-16
4.97506e-16
4.86122e-16
4.99318e-16
4.8747e-16
5.00505e-16
4.87369e-16
5.0066e-16
4.88472e-16
5.02213e-16
4.8981e-16
5.01656e-16
4.90653e-16
5.02719e-16
4.89897e-16
5.03391e-16
4.92372e-16
5.02759e-16
4.89622e-16
5.02416e-16
4.88453e-16
5.00661e-16
4.88548e-16
4.99628e-16
4.85889e-16
4.99732e-16
2.11428e-14
7.00164e-15
3.04484e-15
2.01189e-15
1.50465e-15
1.2727e-15
1.06102e-15
9.60542e-16
8.55281e-16
8.054e-16
7.32975e-16
7.01729e-16
6.46967e-16
6.36147e-16
5.99512e-16
5.94196e-16
5.64492e-16
5.657e-16
5.4237e-16
5.46699e-16
5.27222e-16
5.34626e-16
5.23071e-16
5.24431e-16
5.08496e-16
5.18292e-16
5.03447e-16
5.12794e-16
4.96616e-16
5.0756e-16
4.93592e-16
5.02607e-16
4.88676e-16
5.02504e-16
4.89309e-16
5.00097e-16
4.85447e-16
4.98157e-16
4.85395e-16
4.97573e-16
4.85288e-16
4.9789e-16
4.82898e-16
4.95978e-16
4.8304e-16
4.96313e-16
4.83501e-16
4.98658e-16
4.83766e-16
4.96676e-16
4.82027e-16
4.95434e-16
4.81422e-16
4.9658e-16
4.8434e-16
4.97155e-16
4.84127e-16
4.97226e-16
4.83022e-16
4.96573e-16
4.84084e-16
4.95343e-16
4.81471e-16
4.96867e-16
4.85186e-16
4.96372e-16
4.83907e-16
4.96367e-16
4.84724e-16
4.98165e-16
4.8698e-16
4.98052e-16
4.8522e-16
4.97925e-16
4.8421e-16
4.96847e-16
4.86534e-16
4.99182e-16
4.88383e-16
4.9822e-16
4.82816e-16
4.97233e-16
4.8591e-16
4.98631e-16
4.87008e-16
4.99262e-16
4.85084e-16
4.99363e-16
4.86835e-16
4.98294e-16
4.85283e-16
4.98792e-16
4.86653e-16
4.98902e-16
4.85416e-16
4.97928e-16
4.84296e-16
4.96502e-16
4.84928e-16
4.95322e-16
4.81894e-16
4.97859e-16
4.86481e-16
4.99989e-16
4.87235e-16
4.98729e-16
4.85539e-16
4.9729e-16
4.86103e-16
4.99342e-16
4.87792e-16
4.99719e-16
4.87596e-16
5.00508e-16
4.88249e-16
5.01348e-16
4.89589e-16
5.01403e-16
4.8937e-16
5.0024e-16
4.88023e-16
5.02073e-16
4.90487e-16
5.00726e-16
4.89179e-16
5.0176e-16
4.88308e-16
4.99593e-16
4.87182e-16
4.98129e-16
4.85589e-16
4.98299e-16
2.10984e-14
7.01724e-15
3.05399e-15
1.98742e-15
1.4966e-15
1.266e-15
1.05194e-15
9.5328e-16
8.46302e-16
7.985e-16
7.28817e-16
6.99043e-16
6.42439e-16
6.31274e-16
5.96816e-16
5.9183e-16
5.62868e-16
5.64571e-16
5.4186e-16
5.46981e-16
5.26529e-16
5.3478e-16
5.16997e-16
5.24471e-16
5.0666e-16
5.16613e-16
5.03248e-16
5.12554e-16
4.96295e-16
5.08524e-16
4.93027e-16
5.03191e-16
4.88574e-16
5.01652e-16
4.88819e-16
5.00249e-16
4.86644e-16
4.9997e-16
4.86455e-16
4.9831e-16
4.87296e-16
4.99084e-16
4.84194e-16
4.98794e-16
4.86367e-16
4.97646e-16
4.85105e-16
4.99875e-16
4.88028e-16
5.00824e-16
4.87161e-16
4.99211e-16
4.85185e-16
4.97461e-16
4.85709e-16
4.97636e-16
4.85781e-16
4.98641e-16
4.84869e-16
4.96961e-16
4.84983e-16
4.95295e-16
4.82631e-16
4.96308e-16
4.83708e-16
4.96843e-16
4.83657e-16
4.96607e-16
4.83367e-16
4.96727e-16
4.86352e-16
4.98803e-16
4.84578e-16
4.98663e-16
4.83958e-16
4.98423e-16
4.84949e-16
5.00096e-16
4.88614e-16
4.98829e-16
4.84294e-16
4.99732e-16
4.87487e-16
5.01165e-16
4.88653e-16
5.01178e-16
4.88019e-16
5.02037e-16
4.89968e-16
5.01924e-16
4.87711e-16
5.00275e-16
4.87499e-16
5.00004e-16
4.87114e-16
5.00073e-16
4.8623e-16
4.97941e-16
4.85844e-16
4.97381e-16
4.83738e-16
4.9854e-16
4.86124e-16
4.99572e-16
4.87503e-16
4.99033e-16
4.85471e-16
4.97865e-16
4.85601e-16
4.98625e-16
4.86449e-16
4.9797e-16
4.85669e-16
4.98413e-16
4.86757e-16
4.99804e-16
4.88466e-16
5.00622e-16
4.87456e-16
4.98692e-16
4.84837e-16
4.99696e-16
4.87232e-16
4.98684e-16
4.86385e-16
4.99172e-16
4.87197e-16
4.98811e-16
4.8609e-16
4.97914e-16
4.85831e-16
4.98342e-16
2.20882e-14
7.153e-15
3.05937e-15
1.98169e-15
1.49162e-15
1.26835e-15
1.06208e-15
9.61823e-16
8.49002e-16
8.01503e-16
7.32844e-16
7.03105e-16
6.48401e-16
6.38513e-16
5.97606e-16
5.97093e-16
5.68044e-16
5.6875e-16
5.43947e-16
5.48591e-16
5.28695e-16
5.36489e-16
5.1878e-16
5.27495e-16
5.08279e-16
5.17422e-16
5.03516e-16
5.11592e-16
4.98198e-16
5.09263e-16
4.95818e-16
5.05831e-16
4.92225e-16
5.04308e-16
4.88609e-16
5.01426e-16
4.88514e-16
4.98795e-16
4.88181e-16
4.99104e-16
4.90532e-16
4.9893e-16
4.86005e-16
5.01251e-16
4.86315e-16
4.98097e-16
4.86298e-16
4.97984e-16
4.86039e-16
4.97871e-16
4.85425e-16
4.97751e-16
4.83899e-16
4.94875e-16
4.83715e-16
4.95007e-16
4.83705e-16
4.96519e-16
4.83575e-16
4.94543e-16
4.82826e-16
4.92797e-16
4.80976e-16
4.94651e-16
4.83515e-16
4.9645e-16
4.83846e-16
4.97797e-16
4.8317e-16
4.94903e-16
4.85031e-16
4.97718e-16
4.85974e-16
4.98844e-16
4.85572e-16
4.99813e-16
4.87348e-16
5.00974e-16
4.89142e-16
5.00133e-16
4.86995e-16
5.00108e-16
4.87859e-16
5.02164e-16
4.88997e-16
5.01307e-16
4.88246e-16
5.01215e-16
4.89773e-16
5.01086e-16
4.88628e-16
5.01799e-16
4.88448e-16
5.00923e-16
4.87497e-16
5.00785e-16
4.87292e-16
4.99153e-16
4.85934e-16
4.97964e-16
4.85768e-16
5.00601e-16
4.87096e-16
4.99872e-16
4.88712e-16
4.99895e-16
4.86558e-16
4.99125e-16
4.85898e-16
4.99509e-16
4.86687e-16
4.98747e-16
4.84727e-16
4.98117e-16
4.84844e-16
4.99494e-16
4.8805e-16
4.99046e-16
4.87285e-16
4.993e-16
4.85257e-16
4.9824e-16
4.86091e-16
4.99614e-16
4.86438e-16
4.99235e-16
4.86921e-16
4.98679e-16
4.84909e-16
4.98106e-16
4.84397e-16
4.97279e-16
2.12418e-14
7.07008e-15
3.08124e-15
1.99221e-15
1.48588e-15
1.26801e-15
1.0632e-15
9.63912e-16
8.47177e-16
7.9713e-16
7.30463e-16
7.00556e-16
6.46694e-16
6.35809e-16
5.96196e-16
5.95364e-16
5.68747e-16
5.69682e-16
5.45247e-16
5.48566e-16
5.2852e-16
5.36114e-16
5.19193e-16
5.27706e-16
5.09567e-16
5.20099e-16
5.03444e-16
5.12784e-16
4.98651e-16
5.10556e-16
4.97128e-16
5.07605e-16
4.95155e-16
5.04011e-16
4.86462e-16
4.9991e-16
4.86065e-16
4.98543e-16
4.85443e-16
4.98783e-16
4.87179e-16
4.97375e-16
4.84837e-16
4.97003e-16
4.82996e-16
4.96822e-16
4.84817e-16
4.97725e-16
4.8361e-16
4.96327e-16
4.84058e-16
4.96952e-16
4.83419e-16
4.95328e-16
4.83575e-16
4.95322e-16
4.83197e-16
4.95866e-16
4.82849e-16
4.94696e-16
4.82307e-16
4.93344e-16
4.78979e-16
4.92432e-16
4.81956e-16
4.94773e-16
4.83278e-16
4.98703e-16
4.84039e-16
4.96506e-16
4.85044e-16
4.98273e-16
4.87378e-16
4.99305e-16
4.85658e-16
4.99561e-16
4.87089e-16
5.0099e-16
4.8867e-16
5.00963e-16
4.88725e-16
5.01347e-16
4.87638e-16
5.01238e-16
4.88874e-16
5.01035e-16
4.87524e-16
5.01427e-16
4.89535e-16
5.00285e-16
4.88216e-16
5.01589e-16
4.88645e-16
5.00132e-16
4.86854e-16
4.98578e-16
4.87053e-16
4.9999e-16
4.86049e-16
4.96636e-16
4.84453e-16
5.00108e-16
4.86188e-16
4.98737e-16
4.8643e-16
4.99064e-16
4.87262e-16
4.99984e-16
4.86575e-16
4.9993e-16
4.89166e-16
5.00382e-16
4.86726e-16
5.00206e-16
4.85386e-16
5.01068e-16
4.88978e-16
4.98309e-16
4.86018e-16
4.99557e-16
4.86603e-16
4.98324e-16
4.85359e-16
4.9944e-16
4.87848e-16
4.99795e-16
4.8796e-16
4.99033e-16
4.86443e-16
4.97934e-16
4.84722e-16
4.97899e-16
2.11376e-14
7.02254e-15
3.08956e-15
1.99542e-15
1.49014e-15
1.26851e-15
1.06461e-15
9.66273e-16
8.50494e-16
7.97562e-16
7.29356e-16
6.99415e-16
6.455e-16
6.34714e-16
5.94547e-16
5.91669e-16
5.65368e-16
5.68887e-16
5.47323e-16
5.49473e-16
5.29003e-16
5.36685e-16
5.2012e-16
5.26991e-16
5.1063e-16
5.20552e-16
5.04349e-16
5.13093e-16
4.98019e-16
5.10698e-16
4.95919e-16
5.07297e-16
4.95168e-16
5.03316e-16
4.87222e-16
5.01844e-16
4.89256e-16
5.00857e-16
4.87167e-16
5.00141e-16
4.87639e-16
4.99716e-16
4.85506e-16
4.97296e-16
4.8358e-16
4.96739e-16
4.86149e-16
4.9948e-16
4.85079e-16
4.97768e-16
4.85204e-16
4.96926e-16
4.8301e-16
4.96305e-16
4.83679e-16
4.961e-16
4.81813e-16
4.94257e-16
4.81509e-16
4.92655e-16
4.81202e-16
4.94386e-16
4.80411e-16
4.93188e-16
4.8143e-16
4.94619e-16
4.82768e-16
4.98067e-16
4.83885e-16
4.96042e-16
4.84903e-16
4.97718e-16
4.88082e-16
4.99519e-16
4.85905e-16
4.98951e-16
4.85956e-16
5.01123e-16
4.89811e-16
5.02169e-16
4.91516e-16
5.04642e-16
4.91528e-16
5.03584e-16
4.90397e-16
5.03135e-16
4.88113e-16
5.02246e-16
4.89047e-16
5.00178e-16
4.86757e-16
5.00218e-16
4.8854e-16
5.00204e-16
4.85712e-16
4.98785e-16
4.86534e-16
5.00616e-16
4.8795e-16
4.98515e-16
4.85714e-16
4.99519e-16
4.88222e-16
5.01348e-16
4.88013e-16
4.99695e-16
4.87944e-16
5.01449e-16
4.87791e-16
4.99608e-16
4.8904e-16
4.99414e-16
4.87027e-16
4.99089e-16
4.85331e-16
5.00274e-16
4.88894e-16
4.99004e-16
4.86301e-16
4.99655e-16
4.86989e-16
4.99526e-16
4.84165e-16
4.98677e-16
4.8566e-16
4.97559e-16
4.86191e-16
4.98308e-16
4.8672e-16
4.98786e-16
4.85082e-16
4.98813e-16
2.11211e-14
7.02096e-15
3.04093e-15
1.98163e-15
1.48958e-15
1.26087e-15
1.0585e-15
9.60149e-16
8.50952e-16
8.00218e-16
7.29445e-16
7.00001e-16
6.47163e-16
6.38458e-16
5.98082e-16
5.91912e-16
5.60822e-16
5.65319e-16
5.47327e-16
5.4884e-16
5.2949e-16
5.36196e-16
5.19305e-16
5.24712e-16
5.08613e-16
5.17082e-16
5.02795e-16
5.12771e-16
4.96699e-16
5.06869e-16
4.93433e-16
5.03432e-16
4.9081e-16
5.0104e-16
4.8599e-16
4.99333e-16
4.87753e-16
4.98922e-16
4.86472e-16
4.97457e-16
4.86191e-16
4.98605e-16
4.8689e-16
4.98967e-16
4.84831e-16
4.97643e-16
4.85589e-16
4.98524e-16
4.85572e-16
4.98118e-16
4.85126e-16
4.97649e-16
4.84403e-16
4.96785e-16
4.848e-16
4.97711e-16
4.82842e-16
4.96291e-16
4.82537e-16
4.93532e-16
4.79549e-16
4.93881e-16
4.82149e-16
4.96175e-16
4.83514e-16
4.97063e-16
4.83947e-16
4.98687e-16
4.8524e-16
4.9773e-16
4.84794e-16
4.9818e-16
4.88123e-16
4.99997e-16
4.87491e-16
5.00275e-16
4.86046e-16
5.01929e-16
4.89764e-16
5.01914e-16
4.90109e-16
5.02137e-16
4.91323e-16
5.03247e-16
4.90461e-16
5.02616e-16
4.89744e-16
5.01771e-16
4.88704e-16
5.01663e-16
4.87196e-16
4.99848e-16
4.88677e-16
5.01168e-16
4.87552e-16
4.99893e-16
4.86362e-16
4.98939e-16
4.87074e-16
4.99371e-16
4.86008e-16
4.97888e-16
4.86479e-16
5.00242e-16
4.87531e-16
4.98018e-16
4.85679e-16
4.98763e-16
4.86223e-16
4.97797e-16
4.85694e-16
4.98469e-16
4.86521e-16
4.98716e-16
4.84827e-16
4.9977e-16
4.8709e-16
4.97967e-16
4.86596e-16
4.99698e-16
4.88662e-16
5.01072e-16
4.86958e-16
5.00938e-16
4.85529e-16
4.98906e-16
4.85339e-16
4.98522e-16
4.87531e-16
5.00534e-16
4.87485e-16
4.99786e-16
2.11431e-14
7.00489e-15
3.02718e-15
1.98604e-15
1.50283e-15
1.27084e-15
1.05318e-15
9.57637e-16
8.45345e-16
7.98329e-16
7.27044e-16
6.99617e-16
6.4531e-16
6.36328e-16
5.98087e-16
5.92524e-16
5.57926e-16
5.64139e-16
5.45278e-16
5.49044e-16
5.28859e-16
5.37574e-16
5.19128e-16
5.2599e-16
5.08245e-16
5.17019e-16
5.00976e-16
5.1112e-16
4.9667e-16
5.08291e-16
4.94387e-16
5.03344e-16
4.89052e-16
4.99621e-16
4.85879e-16
4.99519e-16
4.86235e-16
4.99642e-16
4.87014e-16
4.96914e-16
4.8292e-16
4.97045e-16
4.86933e-16
4.98659e-16
4.85817e-16
4.99489e-16
4.85503e-16
4.98263e-16
4.86008e-16
4.96486e-16
4.84149e-16
4.97635e-16
4.84964e-16
4.96938e-16
4.8526e-16
4.97222e-16
4.8515e-16
4.97547e-16
4.85429e-16
4.97686e-16
4.82115e-16
4.94174e-16
4.8215e-16
4.96389e-16
4.85563e-16
4.99698e-16
4.86887e-16
5.00201e-16
4.88359e-16
5.00085e-16
4.86149e-16
4.99761e-16
4.89063e-16
5.00183e-16
4.89052e-16
5.00237e-16
4.86745e-16
5.00891e-16
4.88363e-16
5.01616e-16
4.8837e-16
4.99316e-16
4.87811e-16
5.01855e-16
4.89324e-16
5.02676e-16
4.89326e-16
5.00369e-16
4.8802e-16
5.00977e-16
4.87413e-16
5.00649e-16
4.88828e-16
5.0219e-16
4.89885e-16
5.01952e-16
4.8766e-16
4.99531e-16
4.85616e-16
4.99219e-16
4.8734e-16
4.99002e-16
4.85913e-16
4.99492e-16
4.87816e-16
5.00125e-16
4.86443e-16
4.99085e-16
4.86168e-16
4.97628e-16
4.85528e-16
4.98989e-16
4.87608e-16
4.99809e-16
4.86172e-16
5.01826e-16
4.87198e-16
4.97863e-16
4.84692e-16
4.98015e-16
4.86409e-16
4.98795e-16
4.87691e-16
5.02123e-16
4.87974e-16
5.01639e-16
4.87289e-16
4.99362e-16
4.87272e-16
5.02071e-16
4.90899e-16
5.01203e-16
2.11567e-14
7.00445e-15
3.00778e-15
1.98039e-15
1.50566e-15
1.26863e-15
1.06525e-15
9.64608e-16
8.49845e-16
8.01878e-16
7.30852e-16
7.02925e-16
6.4907e-16
6.36282e-16
5.99303e-16
5.93764e-16
5.59558e-16
5.6472e-16
5.45748e-16
5.48438e-16
5.28529e-16
5.3534e-16
5.17665e-16
5.24144e-16
5.07906e-16
5.17937e-16
5.03217e-16
5.13297e-16
4.97817e-16
5.1014e-16
4.95417e-16
5.07221e-16
4.91171e-16
5.00999e-16
4.87397e-16
4.98965e-16
4.85322e-16
4.99234e-16
4.88323e-16
4.99812e-16
4.85412e-16
4.97129e-16
4.85413e-16
4.97029e-16
4.86894e-16
4.98365e-16
4.85485e-16
4.96974e-16
4.8406e-16
4.94975e-16
4.82921e-16
4.95347e-16
4.82795e-16
4.95841e-16
4.82598e-16
4.94106e-16
4.82792e-16
4.94201e-16
4.84007e-16
4.96776e-16
4.83995e-16
4.96091e-16
4.82979e-16
4.96238e-16
4.85684e-16
4.99423e-16
4.87403e-16
4.99397e-16
4.88281e-16
4.9978e-16
4.86154e-16
4.99795e-16
4.87858e-16
5.00205e-16
4.88792e-16
5.00854e-16
4.88208e-16
5.00333e-16
4.86491e-16
4.97898e-16
4.86512e-16
4.98452e-16
4.85842e-16
4.99842e-16
4.88792e-16
5.01747e-16
4.88164e-16
5.00313e-16
4.88241e-16
5.0004e-16
4.87296e-16
5.00451e-16
4.86857e-16
5.00429e-16
4.90156e-16
5.01181e-16
4.8944e-16
5.02231e-16
4.87034e-16
4.99746e-16
4.87573e-16
5.01363e-16
4.87137e-16
4.99936e-16
4.87019e-16
4.99354e-16
4.86306e-16
5.00206e-16
4.8658e-16
4.98328e-16
4.85569e-16
4.9857e-16
4.87389e-16
4.98071e-16
4.86365e-16
5.00907e-16
4.88395e-16
4.99659e-16
4.85953e-16
4.9984e-16
4.86422e-16
4.99304e-16
4.87715e-16
4.99847e-16
4.89197e-16
5.02303e-16
4.89438e-16
5.0093e-16
4.86877e-16
5.00913e-16
4.90241e-16
5.01193e-16
2.11316e-14
6.994e-15
3.01724e-15
1.98351e-15
1.49915e-15
1.25829e-15
1.05817e-15
9.57063e-16
8.44087e-16
7.98942e-16
7.25285e-16
6.97116e-16
6.4702e-16
6.31895e-16
5.95648e-16
5.88961e-16
5.58295e-16
5.62098e-16
5.42139e-16
5.46201e-16
5.29695e-16
5.34947e-16
5.16765e-16
5.23961e-16
5.07327e-16
5.18456e-16
5.0416e-16
5.15293e-16
5.0184e-16
5.10571e-16
4.96201e-16
5.086e-16
4.94258e-16
5.09348e-16
4.87914e-16
4.98945e-16
4.84775e-16
4.98011e-16
4.87736e-16
4.9961e-16
4.85914e-16
4.96922e-16
4.81221e-16
4.94504e-16
4.84726e-16
4.96979e-16
4.84435e-16
4.96216e-16
4.82028e-16
4.94109e-16
4.81944e-16
4.94572e-16
4.82213e-16
4.95558e-16
4.822e-16
4.94787e-16
4.81743e-16
4.94532e-16
4.82794e-16
4.95269e-16
4.83025e-16
4.95965e-16
4.82693e-16
4.95632e-16
4.83843e-16
4.96537e-16
4.84636e-16
4.97874e-16
4.86654e-16
4.98665e-16
4.85377e-16
4.99113e-16
4.8674e-16
4.98802e-16
4.87129e-16
4.99646e-16
4.87832e-16
5.01348e-16
4.8602e-16
4.97603e-16
4.86594e-16
5.00341e-16
4.86638e-16
5.00277e-16
4.89293e-16
5.0197e-16
4.88467e-16
5.00912e-16
4.8884e-16
5.01012e-16
4.8819e-16
5.00939e-16
4.86636e-16
5.00593e-16
4.88245e-16
4.996e-16
4.88017e-16
5.01732e-16
4.88588e-16
5.0074e-16
4.88531e-16
5.02647e-16
4.90546e-16
5.03861e-16
4.90042e-16
5.01203e-16
4.87835e-16
5.00243e-16
4.8777e-16
4.99084e-16
4.8613e-16
4.99624e-16
4.87627e-16
4.9863e-16
4.85371e-16
4.97389e-16
4.86536e-16
4.98373e-16
4.86377e-16
4.98872e-16
4.85273e-16
4.99411e-16
4.85853e-16
4.96648e-16
4.86156e-16
4.99256e-16
4.89245e-16
5.01108e-16
4.86734e-16
5.00014e-16
4.88565e-16
5.022e-16
2.10054e-14
6.97818e-15
3.01817e-15
1.99036e-15
1.50479e-15
1.2665e-15
1.05813e-15
9.58617e-16
8.44281e-16
8.00354e-16
7.28229e-16
6.99624e-16
6.48484e-16
6.35237e-16
5.96957e-16
5.90784e-16
5.60037e-16
5.61513e-16
5.38083e-16
5.41732e-16
5.25944e-16
5.30906e-16
5.16601e-16
5.24483e-16
5.06325e-16
5.18335e-16
5.01883e-16
5.11198e-16
4.99645e-16
5.08638e-16
4.94408e-16
5.09507e-16
5.01779e-16
5.04551e-16
4.89333e-16
5.00284e-16
4.85502e-16
4.98294e-16
4.86342e-16
4.98464e-16
4.87114e-16
4.9941e-16
4.81995e-16
4.95455e-16
4.84206e-16
4.97192e-16
4.84284e-16
4.97558e-16
4.83864e-16
4.95777e-16
4.8227e-16
4.96182e-16
4.84595e-16
4.97757e-16
4.85209e-16
4.97723e-16
4.84405e-16
4.97569e-16
4.84733e-16
4.96463e-16
4.82781e-16
4.95077e-16
4.83461e-16
4.97016e-16
4.83962e-16
4.97125e-16
4.84325e-16
4.97884e-16
4.86234e-16
4.97798e-16
4.84731e-16
4.99085e-16
4.86357e-16
4.99154e-16
4.87947e-16
4.9952e-16
4.88643e-16
5.00391e-16
4.87029e-16
4.97225e-16
4.86991e-16
4.99152e-16
4.87611e-16
5.01923e-16
4.86797e-16
5.01411e-16
4.88863e-16
5.00246e-16
4.89019e-16
5.00125e-16
4.88942e-16
4.99562e-16
4.87184e-16
5.00658e-16
4.88246e-16
5.00763e-16
4.88308e-16
5.00665e-16
4.88619e-16
5.01824e-16
4.89116e-16
5.01768e-16
4.89967e-16
5.02565e-16
4.89118e-16
5.01564e-16
4.87421e-16
4.99284e-16
4.8631e-16
4.97909e-16
4.84916e-16
4.9769e-16
4.86191e-16
4.99473e-16
4.85758e-16
4.97338e-16
4.85583e-16
4.98451e-16
4.86781e-16
4.98953e-16
4.86216e-16
5.00707e-16
4.86842e-16
4.98503e-16
4.84658e-16
4.97546e-16
4.87273e-16
4.9808e-16
4.86597e-16
4.99919e-16
4.8878e-16
5.01431e-16
2.10057e-14
6.97182e-15
3.02996e-15
1.98144e-15
1.50742e-15
1.26517e-15
1.06081e-15
9.57211e-16
8.44617e-16
7.99e-16
7.25251e-16
6.99899e-16
6.47239e-16
6.3434e-16
5.96367e-16
5.91432e-16
5.62691e-16
5.65399e-16
5.38658e-16
5.43162e-16
5.24579e-16
5.31311e-16
5.15613e-16
5.23439e-16
5.06499e-16
5.19791e-16
5.02569e-16
5.11461e-16
4.97609e-16
5.09774e-16
4.92815e-16
5.06736e-16
4.93881e-16
5.04006e-16
4.89539e-16
5.02288e-16
4.88315e-16
5.01934e-16
4.87622e-16
4.99731e-16
4.88649e-16
5.00292e-16
4.85745e-16
4.97435e-16
4.84035e-16
4.97814e-16
4.85701e-16
4.98123e-16
4.85542e-16
4.98208e-16
4.83412e-16
4.97696e-16
4.84743e-16
4.99446e-16
4.85457e-16
4.9763e-16
4.84683e-16
4.97552e-16
4.85459e-16
4.97963e-16
4.83868e-16
4.96762e-16
4.85455e-16
4.98345e-16
4.86087e-16
4.98932e-16
4.86229e-16
4.98455e-16
4.86956e-16
4.99336e-16
4.87216e-16
4.9989e-16