/*--------------------------------*- C++ -*----------------------------------*\
| =========                 |                                                 |
| \\      /  F ield         | OpenFOAM: The Open Source CFD Toolbox           |
|  \\    /   O peration     | Version:  2206                                  |
|   \\  /    A nd           | Website:  www.openfoam.com                      |
|    \\/     M anipulation  |                                                 |
\*---------------------------------------------------------------------------*/
FoamFile
{
    version     2.0;
    format      ascii;
    arch        "LSB;label=32;scalar=64";
    class       volScalarField;
    location    "0.9";
    object      p;
}
// * * * * * * * * * * * * * * * * * * * * * * * * * * * * * * * * * * * * * //

dimensions      [0 2 -2 0 0 0 0];

internalField   nonuniform List<scalar> 
184485
(
0.0515618
0.0543706
0.0582457
0.0527532
0.0558482
0.0545403
0.0558249
0.0559739
0.0560007
0.0545145
0.0527831
0.0546858
0.0500964
0.0546617
0.0548271
0.051857
0.0517434
0.0580757
0.0505638
0.0574167
0.0510001
0.0499502
0.0575227
0.0523057
0.0548003
0.0495373
0.0567163
0.0579476
0.0511237
0.0498309
0.0515669
0.0521869
0.0493866
0.0509767
0.0492209
0.0513034
0.0507114
0.0511535
0.0512726
0.0508592
0.0510037
0.0514188
0.0515971
0.0549722
0.0496584
0.0493677
0.0564013
0.0496867
0.0572881
0.0549456
0.0517198
0.0551199
0.0495427
0.057825
0.0538215
0.0574299
0.0546821
0.0533408
0.0550948
0.0571195
0.0577894
0.0520412
0.05683
0.0546597
0.0527508
0.0533793
0.0536553
0.0551263
0.056288
0.0559695
0.0538278
0.0553853
0.0499753
0.0502637
0.0536854
0.0495176
0.0538001
0.0496894
0.0498063
0.0557133
0.0501204
0.0539414
0.0493973
0.0541159
0.0565505
0.0546896
0.0549792
0.0545451
0.0550961
0.0555651
0.0556772
0.0498334
0.0523039
0.0559731
0.0586055
0.058264
0.0524832
0.0582092
0.050095
0.0530459
0.0583972
0.0552433
0.0568661
0.0496639
0.0556855
0.0558586
0.0544024
0.0552692
0.0614927
0.0528924
0.0502399
0.0579156
0.0499503
0.0555686
0.05024
0.0512944
0.0505576
0.0571533
0.0549498
0.0504093
0.0504114
0.0594867
0.0503863
0.0552423
0.0562558
0.0587243
0.0567237
0.0594821
0.0521543
0.0515706
0.0534973
0.0520084
0.0561188
0.0507084
0.05845
0.0554125
0.057429
0.0553885
0.0570076
0.0524507
0.0576619
0.0505316
0.0508319
0.0505573
0.0536526
0.0509731
0.0494026
0.0515667
0.0579567
0.0511483
0.0576932
0.0498001
0.0571204
0.054833
0.0512746
0.0573983
0.0510043
0.0576914
0.0511233
0.0555613
0.0572626
0.0514195
0.0555349
0.0527786
0.0514473
0.0521891
0.0507093
0.0579598
0.0557079
0.0615155
0.0587469
0.0577906
0.0499788
0.0556832
0.0498065
0.0501165
0.050093
0.0498367
0.0496935
0.0552748
0.0578202
0.0539662
0.0521569
0.0576579
0.0492251
0.0558526
0.0554171
0.052182
0.0553904
0.0518637
0.0517415
0.0518893
0.0533503
0.0499485
0.0493736
0.049654
0.053073
0.0540887
0.0492578
0.053348
0.0517182
0.0515938
0.0535257
0.053679
0.05583
0.0543734
0.0495178
0.0496781
0.0498253
0.0495479
0.0535008
0.0496603
0.0542334
0.0559966
0.0573988
0.0529217
0.052776
0.0526043
0.052629
0.0530458
0.0548225
0.057258
0.0545382
0.0515912
0.0559721
0.0520358
0.0502387
0.0539461
0.0546574
0.0502704
0.0552416
0.0512667
0.0573925
0.0558204
0.0561149
0.057809
0.0571517
0.0514133
0.0550959
0.0586227
0.0549471
0.056003
0.0551209
0.0503856
0.0506778
0.0504186
0.056142
0.0570074
0.0554146
0.0505651
0.0552679
0.0561193
0.0553927
0.0582297
0.0579612
0.0569734
0.0518895
0.0536495
0.0535017
0.0578256
0.0518628
0.0533473
0.0574273
0.0565756
0.057394
0.0567238
0.0568358
0.0511243
0.0584423
0.0532281
0.0575268
0.0564303
0.0570072
0.0566918
0.0531976
0.0542621
0.0529269
0.0550951
0.056259
0.0543728
0.0555657
0.0544037
0.0561126
0.056142
0.0540901
0.0506799
0.0562857
0.054829
0.0524535
0.0513052
0.0545144
0.0512724
0.0498037
0.0551226
0.0514536
0.0517465
0.0583974
0.054656
0.0581047
0.0518646
0.0518957
0.0572837
0.0558287
0.0516016
0.0565782
0.0517514
0.0568382
0.0571472
0.0576785
0.0545165
0.0558518
0.0526332
0.0541175
0.0561454
0.0562837
0.0564067
0.0570031
0.049365
0.0571193
0.0582226
0.0576513
0.0584046
0.057549
0.0580635
0.0539403
0.0514373
0.0557075
0.0492206
0.0582677
0.0594867
0.0564286
0.0577809
0.0575615
0.0526331
0.0542282
0.0566917
0.0562859
0.0538247
0.055275
0.0523321
0.0542553
0.0564311
0.0568615
0.0563993
0.0523358
0.0572556
0.0511542
0.0536791
0.056262
0.0549442
0.0539743
0.0537943
0.0548309
0.0534955
0.0493689
0.0508595
0.0565442
0.0580627
0.0565691
0.0521811
0.0526272
0.0551289
0.0564328
0.0548006
0.0571477
0.0513004
0.0501255
0.0564385
0.0505322
0.0507048
0.0546899
0.0575304
0.056541
0.058057
0.052482
0.0564082
0.0562561
0.0525997
0.0545159
0.0558209
0.0557052
0.0615027
0.0558518
0.0508284
0.0511494
0.0535344
0.0549771
0.0536553
0.0535044
0.0527496
0.0545171
0.0499474
0.0520344
0.0565707
0.0582618
0.058224
0.0555362
0.0565486
0.0587555
0.056717
0.0541085
0.0511183
0.0503858
0.05353
0.0529259
0.0566922
0.0523025
0.0546577
0.0495112
0.0514442
0.053374
0.0536833
0.0520092
0.049979
0.0537987
0.0493919
0.0560022
0.0568583
0.0536817
0.0492452
0.0521591
0.0504147
0.0501234
0.0532209
0.0542324
0.0528943
0.0531963
0.0510056
0.0538248
0.0528979
0.053372
0.0582479
0.0584493
0.0523304
0.0524538
0.0580949
0.0518948
0.0538268
0.0539423
0.0539382
0.0561468
0.0586224
0.0576945
0.0547991
0.058635
0.0568347
0.049507
0.0584547
0.0586052
0.05027
0.0506831
0.0555352
0.055558
0.057562
0.0527482
0.0532207
0.0530709
0.0529223
0.0508524
0.050829
0.0508269
0.0524541
0.0530464
0.0543964
0.057002
0.0552464
0.0514206
0.0530766
0.0502403
0.0555332
0.0572903
0.0539699
0.0542578
0.0500943
0.0523278
0.0508264
0.0566922
0.0543724
0.054263
0.0540889
0.0539721
0.0517159
0.049804
0.0569807
0.0518627
0.0520108
0.0492524
0.0572608
0.0517204
0.0541135
0.0520114
0.0532194
0.0571454
0.05712
0.0572871
0.0526004
0.0496926
0.0538003
0.056292
0.0580677
0.0581067
0.0499738
0.0502377
0.0572636
0.0539714
0.0542308
0.0541199
0.050386
0.0574241
0.0574058
0.0511178
0.0509697
0.0584081
0.0575297
0.0575622
0.0532213
0.053189
0.0568623
0.0505352
0.0521833
0.0569775
0.0524789
0.0533713
0.0495306
0.049662
0.0572936
0.0557008
0.0575563
0.0530755
0.0533726
0.0517146
0.0508578
0.0581011
0.0579143
0.0569804
0.0523365
0.0554202
0.0594771
0.0492221
0.0506805
0.0545443
0.0517483
0.0564063
0.0502652
0.0528963
0.0527822
0.0505309
0.0505616
0.0579216
0.0521574
0.0524783
0.0525959
0.0543972
0.0614951
0.056837
0.0548016
0.050996
0.0511468
0.0575392
0.0499773
0.0581029
0.0505333
0.052898
0.0587301
0.0527769
0.0523066
0.0576837
0.0540847
0.0565497
0.0562622
0.0522963
0.0584065
0.0584603
0.0509725
0.0493758
0.0492242
0.0576703
0.0520397
0.0578165
0.0492504
0.0556749
0.0578032
0.0506848
0.0514502
0.0514195
0.0526041
0.0535298
0.053047
0.0508567
0.0509742
0.0531926
0.0549712
0.0614913
0.0594761
0.0587191
0.0582169
0.0579213
0.0577881
0.057661
0.0571164
0.0569759
0.0568654
0.0567244
0.0566929
0.0565769
0.0561401
0.05423
0.05611
0.0560006
0.0559707
0.0556742
0.0555356
0.055419
0.0553879
0.055271
0.0552389
0.0550908
0.0549753
0.0549432
0.0547983
0.0546863
0.0545453
0.0544034
0.0543733
0.0542596
0.0540872
0.0537937
0.053648
0.0535275
0.0533404
0.0531906
0.0530733
0.0579513
0.0530435
0.0529241
0.0527468
0.0526273
0.0524778
0.0524461
0.0521519
0.0520356
0.0520033
0.0579359
0.0518894
0.051596
0.0515654
0.0513021
0.0512693
0.0507103
0.0504143
0.0503839
0.0502689
0.0501234
0.0500923
0.049946
0.0498331
0.0495448
0.0495131
0.0493984
0.0492513
0.0614942
0.059476
0.05872
0.0586288
0.0584548
0.0584008
0.0582736
0.058222
0.0581077
0.0580636
0.0579631
0.0579229
0.0578253
0.0577884
0.0576927
0.0576577
0.0575593
0.0575256
0.0574282
0.0573964
0.0572912
0.0572585
0.0571505
0.0571181
0.0570074
0.0569762
0.0568664
0.056836
0.056723
0.0566931
0.0565761
0.0565438
0.0564301
0.056399
0.056286
0.056257
0.056143
0.0561149
0.0560022
0.0559721
0.0558504
0.0558201
0.0557047
0.0556761
0.0555661
0.0555364
0.0554213
0.0553905
0.0552714
0.0552404
0.0551224
0.0550917
0.0549746
0.0549438
0.0548295
0.0547995
0.0546839
0.0546554
0.0545432
0.0545149
0.0544028
0.0543747
0.0542595
0.0542287
0.0541155
0.0540862
0.0539702
0.0539413
0.0538249
0.0537949
0.053679
0.0536488
0.0535264
0.0534962
0.0533731
0.053343
0.0532228
0.0531924
0.053074
0.0530449
0.0529251
0.0528957
0.0527791
0.0527478
0.0526251
0.0525951
0.0524769
0.0524465
0.0523271
0.0522961
0.0521814
0.0521508
0.0520338
0.0520033
0.0518888
0.0518586
0.051746
0.0517155
0.0515979
0.0515669
0.0514499
0.0514195
0.0512975
0.0512665
0.0511469
0.0511177
0.0510003
0.0509714
0.0508575
0.0508279
0.0507105
0.0506809
0.050562
0.050534
0.0504149
0.0503856
0.050267
0.050238
0.0501237
0.0500935
0.0499788
0.0499485
0.0498336
0.0498024
0.0496912
0.0496613
0.0495448
0.0495138
0.0493985
0.0493678
0.0492497
0.0492195
0.0614839
0.0594707
0.058724
0.0586299
0.0584542
0.0584014
0.0582779
0.0582297
0.058113
0.058065
0.0579661
0.0579239
0.0578299
0.0577913
0.0576943
0.0576583
0.0575607
0.0575269
0.0574266
0.0573934
0.05729
0.0572572
0.0571499
0.0571171
0.0570089
0.0569763
0.0568671
0.0568353
0.0567207
0.0566888
0.0565726
0.0565419
0.0564286
0.0563968
0.0562858
0.0562558
0.0561435
0.0561131
0.0559998
0.0559683
0.0558516
0.0558218
0.0557089
0.0556786
0.0555673
0.0555356
0.0554187
0.0553861
0.0552678
0.0552362
0.0551207
0.0550898
0.0549742
0.0549434
0.0548306
0.0547994
0.0546857
0.0546564
0.0545447
0.0545154
0.0544041
0.0543762
0.0542622
0.054232
0.0541179
0.0540876
0.0539718
0.0539423
0.0538243
0.0537938
0.053677
0.0536464
0.053526
0.0534952
0.0533735
0.0533416
0.0532244
0.0531928
0.0530746
0.0530449
0.0529268
0.0528958
0.0527794
0.0527472
0.0526264
0.052595
0.0524775
0.0524462
0.0523277
0.0522958
0.0521809
0.05215
0.0520338
0.0520037
0.0518877
0.0518581
0.0517446
0.0517132
0.0515979
0.0515667
0.0514509
0.0514192
0.051296
0.0512647
0.051145
0.0511148
0.0510016
0.0509727
0.0508591
0.0508289
0.0507134
0.0506827
0.0505662
0.0505367
0.0504185
0.050388
0.0502696
0.0502399
0.0501252
0.0500943
0.0499789
0.0499489
0.0498356
0.049803
0.0496911
0.0496589
0.0495435
0.0495125
0.0493968
0.0493651
0.0492485
0.0492183
0.0614857
0.0594685
0.0587241
0.0586294
0.0584492
0.0583944
0.0582685
0.05822
0.0581074
0.0580605
0.0579604
0.0579205
0.0578272
0.0577895
0.0576928
0.0576574
0.0575592
0.0575261
0.0574251
0.0573931
0.0572889
0.0572563
0.0571472
0.0571153
0.0570082
0.0569749
0.0568668
0.0568344
0.0567204
0.0566877
0.0565728
0.0565413
0.056428
0.056398
0.056286
0.0562551
0.0561438
0.0561129
0.0559988
0.0559667
0.0558511
0.0558213
0.0557086
0.055678
0.0555669
0.055535
0.0554178
0.0553847
0.055264
0.0552325
0.0551168
0.0550861
0.0549728
0.0549423
0.05483
0.0548002
0.0546877
0.0546581
0.0545461
0.0545159
0.0544039
0.0543748
0.05426
0.0542314
0.054117
0.0540864
0.0539728
0.053943
0.0538267
0.0537962
0.0536777
0.0536468
0.0535261
0.0534941
0.0533736
0.0533416
0.0532265
0.0531933
0.0530764
0.0530473
0.0529273
0.052897
0.0527794
0.0527487
0.0526275
0.0525963
0.0524761
0.052445
0.0523256
0.0522953
0.0521801
0.0521497
0.052034
0.052003
0.0518866
0.0518575
0.0517443
0.051714
0.0515975
0.0515667
0.0514499
0.0514184
0.051296
0.0512651
0.0511455
0.0511148
0.0510019
0.0509725
0.0508606
0.0508311
0.0507146
0.0506843
0.0505669
0.0505363
0.0504174
0.0503868
0.0502695
0.0502394
0.0501245
0.050094
0.0499789
0.0499487
0.0498336
0.0498023
0.0496882
0.0496559
0.0495416
0.0495112
0.0493952
0.0493635
0.0492466
0.049215
0.0614851
0.0594749
0.0587246
0.0586191
0.0584492
0.0583982
0.0582689
0.058222
0.0581109
0.0580642
0.0579637
0.0579211
0.0578283
0.0577912
0.0576952
0.0576591
0.0575583
0.0575248
0.057424
0.0573909
0.0572878
0.0572545
0.0571472
0.0571151
0.0570079
0.0569758
0.0568658
0.0568324
0.0567184
0.0566857
0.056571
0.056539
0.0564281
0.0563982
0.0562853
0.0562541
0.056142
0.0561104
0.0559963
0.0559643
0.0558499
0.0558191
0.0557046
0.0556731
0.0555611
0.0555301
0.0554139
0.0553809
0.0552619
0.0552298
0.0551136
0.0550833
0.0549712
0.0549416
0.0548308
0.0548011
0.0546881
0.0546587
0.0545463
0.0545173
0.054406
0.0543753
0.0542624
0.0542337
0.0541178
0.0540865
0.0539731
0.0539426
0.053827
0.0537962
0.0536767
0.0536452
0.0535251
0.0534938
0.0533721
0.0533417
0.0532258
0.053194
0.0530789
0.0530473
0.0529284
0.0528996
0.0527774
0.0527468
0.0526255
0.0525935
0.0524743
0.0524435
0.0523243
0.0522939
0.0521784
0.0521481
0.0520345
0.0520033
0.0518881
0.0518579
0.051744
0.0517133
0.0515959
0.0515637
0.0514468
0.0514158
0.0512948
0.0512644
0.051146
0.0511162
0.0510037
0.0509732
0.050861
0.0508305
0.0507138
0.0506835
0.0505672
0.050537
0.0504178
0.0503873
0.05027
0.0502396
0.0501243
0.050094
0.0499797
0.0499489
0.0498338
0.0498029
0.0496869
0.0496547
0.0495393
0.0495086
0.0493931
0.0493623
0.0492443
0.0492135
0.0614862
0.0594762
0.0587153
0.0586095
0.058449
0.0583932
0.0582627
0.0582159
0.058106
0.0580628
0.0579648
0.0579244
0.0578271
0.0577898
0.0576921
0.0576555
0.0575585
0.0575246
0.057425
0.0573915
0.0572874
0.0572548
0.0571473
0.0571143
0.0570058
0.0569744
0.0568642
0.0568308
0.0567183
0.0566859
0.0565716
0.0565393
0.0564275
0.0563967
0.0562848
0.0562541
0.0561399
0.0561082
0.0559937
0.0559621
0.0558503
0.0558186
0.0557058
0.0556738
0.0555606
0.0555284
0.0554098
0.0553785
0.0552595
0.0552283
0.0551143
0.0550841
0.0549709
0.0549429
0.0548348
0.0548062
0.0546901
0.0546599
0.0545477
0.054519
0.0544084
0.0543774
0.0542646
0.0542333
0.0541167
0.0540866
0.0539722
0.0539414
0.0538251
0.0537956
0.0536764
0.0536453
0.0535244
0.0534938
0.053374
0.0533444
0.0532253
0.0531964
0.0530793
0.0530464
0.0529288
0.0528981
0.0527772
0.0527468
0.0526244
0.0525937
0.0524748
0.0524436
0.0523267
0.0522952
0.0521793
0.0521478
0.0520336
0.0520021
0.0518864
0.0518546
0.0517446
0.0517137
0.0515976
0.0515648
0.0514467
0.0514147
0.0512943
0.0512639
0.0511462
0.0511163
0.0510042
0.0509743
0.0508614
0.0508302
0.0507134
0.0506828
0.050567
0.0505367
0.0504181
0.0503874
0.0502705
0.0502404
0.0501238
0.0500928
0.0499775
0.0499474
0.0498322
0.0498011
0.0496832
0.0496522
0.0495378
0.0495078
0.0493914
0.0493611
0.0492427
0.049212
0.0614906
0.0594737
0.0587048
0.0586112
0.0584519
0.0583957
0.0582688
0.058219
0.058111
0.058066
0.0579656
0.0579228
0.0578281
0.0577909
0.0576926
0.0576587
0.0575588
0.057525
0.0574228
0.0573898
0.057286
0.0572527
0.0571466
0.0571131
0.0570055
0.0569731
0.0568614
0.0568288
0.0567167
0.0566836
0.0565723
0.0565387
0.0564276
0.0563961
0.0562838
0.0562519
0.0561373
0.0561062
0.0559931
0.0559615
0.0558498
0.0558161
0.0557053
0.055675
0.055561
0.0555296
0.0554095
0.0553787
0.0552584
0.0552287
0.0551151
0.0550857
0.0549727
0.0549438
0.0548355
0.0548058
0.0546898
0.0546596
0.0545471
0.0545176
0.0544064
0.0543763
0.0542639
0.054233
0.0541178
0.0540876
0.0539717
0.0539416
0.0538239
0.0537941
0.0536749
0.0536436
0.0535239
0.0534937
0.0533754
0.0533447
0.0532273
0.0531975
0.0530794
0.0530482
0.0529298
0.0528982
0.0527774
0.0527465
0.0526248
0.0525948
0.0524733
0.0524423
0.0523241
0.0522932
0.0521775
0.052146
0.0520334
0.052003
0.051887
0.0518562
0.0517425
0.0517103
0.0515933
0.0515621
0.0514459
0.0514136
0.0512942
0.0512642
0.0511484
0.0511175
0.0510037
0.0509735
0.0508609
0.0508299
0.0507131
0.0506822
0.0505661
0.0505355
0.0504163
0.0503856
0.0502707
0.0502408
0.0501252
0.0500939
0.0499761
0.0499455
0.0498309
0.0497994
0.049682
0.0496516
0.0495395
0.0495086
0.0493916
0.0493615
0.0492428
0.0492129
0.0614937
0.0594791
0.0587115
0.0586073
0.0584455
0.0583952
0.0582646
0.0582133
0.0581065
0.0580644
0.0579645
0.0579214
0.0578269
0.0577887
0.0576926
0.0576596
0.0575594
0.0575248
0.057423
0.0573905
0.0572864
0.0572533
0.0571452
0.0571115
0.057004
0.0569713
0.0568613
0.0568296
0.0567162
0.0566839
0.0565721
0.056539
0.0564293
0.0563972
0.0562835
0.0562525
0.0561356
0.0561047
0.055992
0.0559618
0.0558488
0.0558159
0.0557046
0.0556726
0.0555619
0.0555317
0.055409
0.0553774
0.0552581
0.0552287
0.055116
0.055087
0.054975
0.0549454
0.0548351
0.0548038
0.0546892
0.0546589
0.054548
0.0545189
0.0544076
0.0543773
0.0542616
0.0542318
0.0541173
0.0540862
0.0539715
0.0539413
0.0538238
0.0537945
0.0536749
0.0536447
0.0535251
0.053494
0.0533754
0.053345
0.0532285
0.0531977
0.0530794
0.0530488
0.0529303
0.0528985
0.0527764
0.0527455
0.0526248
0.052594
0.0524729
0.0524425
0.052326
0.0522953
0.0521791
0.0521479
0.0520329
0.0520012
0.0518861
0.051855
0.0517429
0.0517113
0.0515931
0.0515616
0.0514434
0.0514114
0.0512924
0.051262
0.0511466
0.0511164
0.0510029
0.0509721
0.0508577
0.0508274
0.0507129
0.0506809
0.0505666
0.0505354
0.0504162
0.0503862
0.0502705
0.0502392
0.0501241
0.0500923
0.0499761
0.0499447
0.0498289
0.0497983
0.0496815
0.0496513
0.0495392
0.0495076
0.049392
0.0493616
0.0492445
0.0492142
0.0614928
0.059486
0.0587224
0.0586089
0.0584487
0.0584006
0.0582718
0.058222
0.058107
0.0580609
0.0579631
0.0579201
0.0578247
0.0577866
0.057692
0.0576622
0.0575612
0.0575292
0.0574247
0.0573908
0.0572869
0.0572536
0.0571464
0.0571126
0.057005
0.0569725
0.0568625
0.0568304
0.0567141
0.0566827
0.0565688
0.0565383
0.0564278
0.0563946
0.056281
0.0562503
0.0561346
0.0561035
0.0559903
0.0559606
0.0558477
0.0558176
0.0557029
0.0556711
0.0555591
0.055527
0.0554084
0.0553774
0.0552596
0.0552302
0.0551179
0.0550879
0.0549752
0.0549452
0.0548338
0.0548019
0.0546874
0.0546567
0.0545474
0.0545188
0.0544079
0.0543777
0.0542616
0.054231
0.0541156
0.0540847
0.0539704
0.0539407
0.0538233
0.053794
0.0536753
0.0536455
0.0535254
0.0534934
0.0533741
0.0533435
0.0532272
0.0531968
0.0530789
0.053048
0.0529301
0.0528977
0.0527773
0.0527453
0.0526259
0.0525947
0.052473
0.0524427
0.0523254
0.0522942
0.052177
0.0521466
0.0520326
0.0520013
0.0518836
0.051853
0.0517395
0.0517084
0.0515911
0.051559
0.0514397
0.0514095
0.0512928
0.0512617
0.0511466
0.0511171
0.0510036
0.0509724
0.0508569
0.0508265
0.0507117
0.0506794
0.0505649
0.0505328
0.0504156
0.0503859
0.0502698
0.0502387
0.0501228
0.0500915
0.0499757
0.0499438
0.0498277
0.0497977
0.0496817
0.049652
0.0495398
0.0495097
0.0493936
0.0493625
0.0492447
0.0492146
0.0614924
0.0594849
0.0587245
0.0586255
0.0584521
0.0584005
0.058272
0.0582228
0.0581105
0.058066
0.0579644
0.0579209
0.0578289
0.0577894
0.0576945
0.0576588
0.0575591
0.057528
0.0574217
0.0573894
0.057286
0.057253
0.0571445
0.0571108
0.057005
0.056973
0.0568638
0.0568311
0.0567148
0.0566821
0.056568
0.0565374
0.0564262
0.0563939
0.0562794
0.0562485
0.0561341
0.0561033
0.0559892
0.0559591
0.0558471
0.0558174
0.0557021
0.0556715
0.0555571
0.0555258
0.0554066
0.0553756
0.0552597
0.0552309
0.0551188
0.0550881
0.0549747
0.0549449
0.0548315
0.0547999
0.0546865
0.054656
0.0545473
0.0545173
0.0544065
0.0543778
0.0542633
0.0542334
0.0541167
0.0540857
0.0539711
0.0539411
0.0538232
0.0537937
0.0536744
0.0536444
0.0535251
0.0534931
0.0533748
0.0533432
0.0532274
0.0531965
0.0530769
0.0530456
0.0529267
0.0528955
0.0527784
0.0527459
0.0526263
0.0525946
0.0524739
0.0524432
0.0523272
0.0522972
0.0521783
0.052149
0.052034
0.0520023
0.0518843
0.0518529
0.0517383
0.0517075
0.0515904
0.0515581
0.0514404
0.0514096
0.0512938
0.0512622
0.0511463
0.0511147
0.0510009
0.0509705
0.0508557
0.050825
0.0507093
0.0506785
0.0505622
0.0505307
0.0504139
0.0503833
0.0502675
0.0502372
0.0501215
0.0500906
0.0499764
0.0499453
0.049829
0.0497989
0.0496823
0.0496537
0.0495399
0.0495107
0.0493955
0.0493638
0.0492456
0.049215
0.0614972
0.0594838
0.0587318
0.0586322
0.0584532
0.0583988
0.0582691
0.0582206
0.0581064
0.0580607
0.05796
0.0579187
0.0578249
0.0577878
0.0576924
0.0576564
0.0575597
0.0575278
0.0574212
0.0573884
0.0572848
0.0572527
0.0571437
0.0571107
0.057005
0.0569722
0.0568619
0.0568294
0.0567141
0.0566813
0.0565686
0.056536
0.0564227
0.0563917
0.0562777
0.0562476
0.0561357
0.0561052
0.0559903
0.0559594
0.0558458
0.055816
0.0557011
0.0556702
0.0555547
0.0555235
0.055406
0.0553757
0.0552601
0.0552302
0.0551178
0.0550881
0.0549749
0.0549444
0.0548296
0.0547995
0.0546868
0.0546569
0.0545499
0.0545192
0.0544079
0.0543787
0.054263
0.0542337
0.0541156
0.0540861
0.0539723
0.0539423
0.0538248
0.0537936
0.0536745
0.0536445
0.0535244
0.0534934
0.0533751
0.0533424
0.0532259
0.0531939
0.0530759
0.0530446
0.0529246
0.0528941
0.0527756
0.052744
0.0526245
0.0525938
0.0524712
0.0524406
0.0523256
0.0522956
0.0521788
0.0521495
0.0520338
0.052003
0.0518846
0.0518525
0.0517383
0.051706
0.0515871
0.0515565
0.0514396
0.0514075
0.051291
0.0512604
0.0511466
0.0511152
0.0510001
0.0509691
0.0508534
0.0508225
0.0507097
0.0506796
0.0505641
0.0505331
0.050416
0.0503849
0.0502677
0.050237
0.0501198
0.0500889
0.0499753
0.0499451
0.0498309
0.049801
0.049684
0.0496539
0.0495386
0.0495095
0.0493939
0.0493636
0.0492454
0.0492138
0.0614899
0.0594779
0.0587299
0.0586397
0.0584558
0.0584008
0.0582724
0.0582218
0.0581073
0.0580626
0.0579601
0.0579167
0.0578216
0.0577837
0.0576898
0.0576532
0.0575569
0.0575244
0.0574215
0.057387
0.0572828
0.0572505
0.0571439
0.0571124
0.0570067
0.056974
0.0568629
0.05683
0.0567132
0.0566818
0.0565691
0.0565366
0.0564227
0.0563922
0.0562783
0.0562479
0.0561353
0.056105
0.0559907
0.0559586
0.0558462
0.0558166
0.0557021
0.0556708
0.0555537
0.0555221
0.0554066
0.0553767
0.0552621
0.0552322
0.0551179
0.055088
0.0549734
0.0549431
0.0548279
0.0547986
0.0546859
0.0546569
0.0545492
0.0545194
0.0544085
0.0543786
0.0542642
0.054235
0.0541174
0.054088
0.0539732
0.0539434
0.0538253
0.0537948
0.053675
0.0536445
0.0535237
0.053493
0.0533749
0.0533433
0.0532249
0.0531927
0.0530735
0.0530422
0.0529247
0.0528933
0.0527744
0.0527433
0.0526245
0.0525936
0.0524733
0.0524441
0.0523275
0.0522969
0.0521799
0.0521491
0.0520318
0.0520021
0.0518827
0.0518509
0.0517378
0.051705
0.0515872
0.0515568
0.0514401
0.0514076
0.0512902
0.0512589
0.0511442
0.0511135
0.0509998
0.0509693
0.0508532
0.0508225
0.0507097
0.0506788
0.0505618
0.0505309
0.0504148
0.0503844
0.0502674
0.0502361
0.0501194
0.050089
0.0499756
0.0499453
0.049831
0.0498011
0.0496866
0.0496564
0.0495405
0.04951
0.0493943
0.0493651
0.0492461
0.0492141
0.0614949
0.0594776
0.0587305
0.0586329
0.0584515
0.0583997
0.058269
0.0582162
0.0581017
0.0580571
0.0579517
0.0579112
0.0578177
0.0577798
0.0576871
0.0576504
0.057556
0.057524
0.0574228
0.0573906
0.057287
0.0572532
0.0571463
0.0571137
0.0570049
0.0569729
0.0568616
0.0568283
0.0567148
0.0566829
0.0565692
0.0565381
0.0564224
0.0563919
0.0562796
0.0562491
0.0561361
0.0561065
0.0559919
0.0559608
0.0558466
0.0558154
0.0556999
0.0556709
0.0555543
0.0555237
0.0554079
0.0553774
0.0552633
0.0552337
0.0551198
0.0550892
0.0549737
0.0549436
0.0548284
0.0547993
0.0546872
0.0546583
0.0545502
0.0545216
0.0544099
0.0543798
0.0542647
0.0542348
0.0541169
0.0540869
0.053973
0.0539431
0.0538254
0.053795
0.0536746
0.0536435
0.0535223
0.053491
0.0533736
0.0533426
0.053223
0.0531909
0.0530706
0.0530398
0.0529245
0.0528921
0.0527735
0.0527423
0.0526242
0.0525928
0.0524751
0.0524454
0.0523278
0.0522975
0.0521802
0.0521497
0.0520328
0.0520033
0.0518805
0.0518488
0.051735
0.0517031
0.0515863
0.0515547
0.0514376
0.0514066
0.0512905
0.051259
0.0511444
0.0511135
0.0509991
0.0509689
0.0508528
0.0508225
0.0507095
0.0506792
0.0505637
0.0505326
0.0504149
0.050385
0.0502682
0.0502371
0.0501206
0.0500892
0.0499756
0.0499448
0.0498295
0.0497993
0.0496866
0.0496563
0.0495419
0.0495104
0.0493941
0.0493638
0.0492453
0.0492152
0.0614971
0.0594899
0.058735
0.0586299
0.0584507
0.0583956
0.0582676
0.0582168
0.0581074
0.0580619
0.0579576
0.0579162
0.0578208
0.0577832
0.0576877
0.0576524
0.0575571
0.0575225
0.0574229
0.0573915
0.0572872
0.057253
0.0571479
0.0571138
0.0570057
0.0569739
0.0568586
0.0568278
0.0567148
0.056682
0.0565683
0.0565381
0.0564229
0.0563927
0.05628
0.0562498
0.0561356
0.0561048
0.0559913
0.0559613
0.0558473
0.0558156
0.0556999
0.0556701
0.0555552
0.0555245
0.055409
0.0553788
0.0552648
0.0552352
0.0551202
0.0550905
0.0549757
0.0549459
0.0548307
0.0548015
0.0546896
0.0546602
0.054551
0.0545215
0.0544096
0.0543803
0.0542664
0.0542361
0.0541185
0.0540884
0.0539746
0.0539441
0.0538267
0.0537946
0.0536734
0.0536427
0.0535216
0.0534909
0.0533742
0.0533428
0.0532222
0.0531894
0.0530701
0.0530384
0.052924
0.0528909
0.0527745
0.0527443
0.0526248
0.0525952
0.0524771
0.0524473
0.0523312
0.0523014
0.0521831
0.0521527
0.0520341
0.0520031
0.0518809
0.0518505
0.0517352
0.0517052
0.0515886
0.0515566
0.0514372
0.0514059
0.0512895
0.0512584
0.0511444
0.0511135
0.0509982
0.0509673
0.050851
0.0508207
0.050708
0.0506782
0.0505639
0.0505331
0.0504147
0.0503838
0.0502671
0.0502362
0.0501211
0.0500899
0.0499772
0.0499464
0.0498307
0.0497999
0.0496859
0.0496551
0.0495402
0.0495092
0.0493952
0.0493641
0.0492467
0.0492158
0.0614993
0.0594991
0.0587375
0.0586401
0.0584529
0.058395
0.0582623
0.058209
0.0581021
0.0580597
0.0579565
0.0579158
0.0578182
0.0577808
0.0576858
0.0576523
0.0575549
0.0575214
0.0574207
0.0573888
0.0572844
0.0572525
0.0571467
0.057113
0.0570057
0.0569718
0.0568582
0.0568266
0.0567149
0.0566819
0.0565687
0.0565378
0.0564233
0.0563927
0.0562799
0.0562497
0.0561347
0.0561043
0.0559917
0.0559618
0.0558479
0.0558159
0.0557013
0.0556709
0.0555556
0.0555253
0.0554107
0.0553807
0.0552667
0.0552365
0.0551217
0.0550923
0.0549769
0.0549471
0.0548309
0.0548018
0.0546899
0.054661
0.0545517
0.0545218
0.0544101
0.0543802
0.0542654
0.0542344
0.0541179
0.054087
0.0539729
0.0539432
0.053828
0.0537965
0.0536744
0.0536427
0.05352
0.0534898
0.053371
0.05334
0.0532179
0.053187
0.053068
0.0530373
0.052923
0.0528908
0.0527764
0.0527432
0.0526243
0.0525947
0.052475
0.0524461
0.052331
0.0523019
0.0521857
0.0521564
0.0520338
0.0520043
0.0518827
0.0518522
0.051735
0.0517044
0.051586
0.0515536
0.0514359
0.0514039
0.0512873
0.0512558
0.0511427
0.0511125
0.0509984
0.0509669
0.050851
0.0508205
0.0507076
0.0506768
0.0505628
0.0505319
0.0504147
0.0503839
0.0502681
0.0502371
0.0501191
0.050089
0.0499759
0.0499458
0.0498321
0.0498012
0.0496871
0.0496562
0.0495399
0.0495091
0.0493952
0.0493636
0.0492457
0.0492139
0.0615059
0.0594995
0.0587367
0.0586455
0.0584529
0.0583992
0.0582676
0.0582146
0.0581049
0.0580571
0.0579528
0.0579122
0.0578146
0.057778
0.0576839
0.0576493
0.0575541
0.0575207
0.0574213
0.0573887
0.0572842
0.057253
0.0571459
0.0571139
0.0570035
0.0569715
0.0568594
0.056827
0.0567147
0.056682
0.0565688
0.0565372
0.0564238
0.0563932
0.0562807
0.0562496
0.0561336
0.0561025
0.0559883
0.0559597
0.0558454
0.0558155
0.0557001
0.0556687
0.055555
0.0555246
0.055411
0.0553799
0.0552671
0.0552371
0.0551235
0.0550933
0.0549789
0.0549496
0.0548333
0.0548043
0.0546912
0.0546618
0.0545519
0.0545219
0.0544101
0.0543804
0.0542646
0.0542346
0.0541174
0.0540874
0.0539723
0.0539423
0.0538264
0.0537966
0.0536748
0.0536434
0.0535203
0.0534897
0.0533723
0.053341
0.0532201
0.0531887
0.0530685
0.053038
0.0529196
0.0528901
0.0527751
0.0527417
0.052625
0.0525945
0.0524766
0.0524472
0.0523314
0.0523033
0.0521879
0.0521575
0.0520334
0.052004
0.0518835
0.0518534
0.0517363
0.0517054
0.0515844
0.0515536
0.0514365
0.0514047
0.0512886
0.0512568
0.0511427
0.0511115
0.050996
0.0509654
0.0508507
0.0508198
0.0507084
0.0506772
0.0505615
0.0505309
0.0504131
0.0503832
0.0502685
0.0502371
0.0501201
0.0500903
0.049976
0.0499456
0.0498311
0.0498007
0.0496864
0.0496556
0.0495392
0.0495076
0.0493928
0.0493615
0.0492451
0.0492131
0.0615209
0.0594991
0.0587327
0.0586349
0.058449
0.0583999
0.0582632
0.0582118
0.0581043
0.0580549
0.0579543
0.0579128
0.0578165
0.0577796
0.057684
0.05765
0.0575544
0.0575213
0.0574233
0.0573906
0.0572857
0.0572531
0.0571471
0.0571147
0.0570022
0.0569698
0.0568586
0.0568266
0.0567156
0.0566837
0.0565709
0.0565389
0.0564241
0.0563933
0.0562793
0.0562489
0.0561341
0.0561034
0.0559893
0.05596
0.0558469
0.0558183
0.055702
0.05567
0.0555548
0.0555239
0.0554106
0.0553803
0.0552684
0.0552387
0.0551251
0.055095
0.0549803
0.0549504
0.054835
0.054806
0.0546927
0.0546634
0.0545522
0.0545214
0.0544087
0.0543786
0.0542636
0.0542333
0.0541165
0.0540867
0.0539723
0.053941
0.0538242
0.0537939
0.0536735
0.0536429
0.05352
0.0534885
0.0533698
0.0533387
0.0532192
0.0531879
0.0530703
0.0530385
0.0529194
0.0528896
0.0527722
0.0527411
0.0526245
0.0525933
0.0524779
0.0524474
0.0523329
0.0523038
0.052191
0.0521607
0.0520373
0.0520074
0.0518842
0.0518544
0.0517342
0.0517026
0.0515812
0.0515507
0.0514342
0.0514031
0.0512881
0.0512576
0.0511426
0.0511115
0.0509953
0.0509653
0.0508496
0.0508189
0.0507075
0.0506771
0.0505623
0.0505323
0.0504153
0.0503851
0.0502682
0.0502372
0.0501204
0.05009
0.0499749
0.0499443
0.0498318
0.049802
0.0496858
0.0496556
0.0495394
0.0495076
0.0493913
0.0493595
0.0492426
0.0492111
0.0615168
0.0594999
0.0587291
0.0586256
0.0584508
0.0583993
0.0582638
0.0582164
0.0581056
0.0580589
0.0579579
0.057917
0.0578202
0.0577821
0.0576839
0.0576497
0.0575509
0.0575176
0.0574212
0.0573879
0.0572864
0.0572519
0.057148
0.0571152
0.057004
0.056972
0.0568603
0.0568288
0.0567147
0.056684
0.0565719
0.05654
0.0564258
0.0563939
0.0562796
0.056249
0.0561341
0.0561039
0.055991
0.0559604
0.0558479
0.0558191
0.0557022
0.055671
0.0555549
0.0555233
0.05541
0.0553796
0.0552676
0.0552378
0.0551249
0.0550953
0.0549805
0.0549505
0.0548339
0.0548036
0.0546907
0.0546614
0.0545504
0.0545204
0.0544077
0.0543773
0.0542633
0.0542328
0.0541181
0.0540881
0.053974
0.0539417
0.0538252
0.0537928
0.0536734
0.0536428
0.0535212
0.0534892
0.0533689
0.0533369
0.0532162
0.0531855
0.0530683
0.0530373
0.0529193
0.0528889
0.0527708
0.0527409
0.0526249
0.052594
0.0524776
0.0524472
0.0523329
0.0523026
0.0521875
0.0521572
0.0520377
0.0520065
0.0518862
0.0518577
0.0517352
0.0517048
0.0515846
0.0515534
0.0514359
0.0514051
0.0512893
0.051258
0.0511417
0.0511119
0.050995
0.0509659
0.050851
0.0508208
0.0507076
0.0506771
0.0505626
0.0505327
0.0504166
0.0503866
0.0502691
0.0502385
0.0501221
0.0500915
0.0499747
0.0499434
0.0498306
0.0497996
0.0496828
0.0496523
0.0495359
0.0495056
0.0493903
0.0493588
0.0492401
0.0492098
0.0615056
0.0594966
0.0587292
0.0586254
0.0584541
0.0583962
0.0582672
0.0582193
0.0581046
0.0580582
0.0579568
0.0579143
0.0578173
0.0577793
0.0576842
0.0576496
0.0575516
0.0575198
0.057421
0.05739
0.0572862
0.0572537
0.0571478
0.057115
0.0570032
0.056971
0.0568605
0.0568292
0.0567153
0.0566851
0.0565707
0.0565396
0.056425
0.0563943
0.0562808
0.0562502
0.0561352
0.0561057
0.0559921