/*--------------------------------*- C++ -*----------------------------------*\
| =========                 |                                                 |
| \\      /  F ield         | OpenFOAM: The Open Source CFD Toolbox           |
|  \\    /   O peration     | Version:  2206                                  |
|   \\  /    A nd           | Website:  www.openfoam.com                      |
|    \\/     M anipulation  |                                                 |
\*---------------------------------------------------------------------------*/
FoamFile
{
    version     2.0;
    format      ascii;
    arch        "LSB;label=32;scalar=64";
    class       volScalarField;
    location    "0.2";
    object      k;
}
// * * * * * * * * * * * * * * * * * * * * * * * * * * * * * * * * * * * * * //

dimensions      [0 2 -2 0 0 0 0];

internalField   nonuniform List<scalar> 
66940
(
2.57893e-05
2.58135e-05
2.58171e-05
2.58802e-05
2.5754e-05
2.57834e-05
2.57788e-05
2.58682e-05
2.57443e-05
2.57725e-05
2.57687e-05
2.58428e-05
2.57457e-05
2.57699e-05
2.57691e-05
2.58464e-05
2.57458e-05
2.57656e-05
2.57673e-05
2.58264e-05
2.57464e-05
2.57661e-05
2.57683e-05
2.58337e-05
2.5746e-05
2.57659e-05
2.57687e-05
2.58279e-05
2.57457e-05
2.57665e-05
2.57693e-05
2.58367e-05
2.5746e-05
2.57679e-05
2.57705e-05
2.58248e-05
2.57542e-05
2.5773e-05
2.57761e-05
2.58416e-05
2.58784e-05
2.58171e-05
2.58241e-05
2.58525e-05
2.7344e-05
2.66444e-05
2.66761e-05
2.65539e-05
2.58848e-05
2.58181e-05
2.58184e-05
2.58754e-05
2.58188e-05
2.58173e-05
2.58133e-05
2.5819e-05
2.58827e-05
2.5819e-05
2.58182e-05
2.58821e-05
2.58849e-05
2.58699e-05
2.58177e-05
2.58193e-05
2.5794e-05
2.57993e-05
2.58755e-05
2.58653e-05
2.58207e-05
2.58188e-05
2.58027e-05
2.58009e-05
2.58217e-05
2.57991e-05
2.58078e-05
2.58824e-05
2.58672e-05
2.58204e-05
2.57951e-05
2.5801e-05
2.58855e-05
2.58592e-05
2.58519e-05
2.57803e-05
2.57842e-05
2.57661e-05
2.57669e-05
2.5854e-05
2.58468e-05
2.57892e-05
2.57868e-05
2.57754e-05
2.57715e-05
2.57919e-05
2.57725e-05
2.57707e-05
2.58545e-05
2.58463e-05
2.57864e-05
2.57686e-05
2.57693e-05
2.58467e-05
2.58529e-05
2.58479e-05
2.57699e-05
2.57702e-05
2.57681e-05
2.57686e-05
2.58477e-05
2.58451e-05
2.57785e-05
2.57741e-05
2.57752e-05
2.57715e-05
2.57728e-05
2.57725e-05
2.57707e-05
2.58471e-05
2.58425e-05
2.5773e-05
2.57699e-05
2.57717e-05
2.58552e-05
2.58462e-05
2.58391e-05
2.57698e-05
2.57703e-05
2.57661e-05
2.57664e-05
2.58403e-05
2.58336e-05
2.57765e-05
2.57729e-05
2.57711e-05
2.57676e-05
2.57719e-05
2.57665e-05
2.57655e-05
2.58426e-05
2.58332e-05
2.57726e-05
2.57677e-05
2.57679e-05
2.58306e-05
2.58395e-05
2.58368e-05
2.57684e-05
2.57688e-05
2.57675e-05
2.57682e-05
2.58342e-05
2.58327e-05
2.57727e-05
2.57691e-05
2.57699e-05
2.57664e-05
2.57673e-05
2.57665e-05
2.57652e-05
2.58333e-05
2.58295e-05
2.57705e-05
2.57686e-05
2.57693e-05
2.58403e-05
2.5838e-05
2.58376e-05
2.57708e-05
2.57718e-05
2.57689e-05
2.57697e-05
2.58335e-05
2.58323e-05
2.57723e-05
2.57687e-05
2.57703e-05
2.57665e-05
2.5768e-05
2.57659e-05
2.57645e-05
2.58303e-05
2.58293e-05
2.57707e-05
2.57688e-05
2.57695e-05
2.58315e-05
2.58388e-05
2.58365e-05
2.57712e-05
2.57721e-05
2.57687e-05
2.57698e-05
2.58336e-05
2.58323e-05
2.57724e-05
2.57686e-05
2.57699e-05
2.57663e-05
2.57667e-05
2.57665e-05
2.57655e-05
2.58304e-05
2.58284e-05
2.5772e-05
2.57692e-05
2.57699e-05
2.58429e-05
2.58385e-05
2.58336e-05
2.57715e-05
2.57725e-05
2.57678e-05
2.57686e-05
2.58338e-05
2.58283e-05
2.57726e-05
2.5769e-05
2.57688e-05
2.57651e-05
2.57683e-05
2.57668e-05
2.57633e-05
2.58302e-05
2.58249e-05
2.5772e-05
2.57695e-05
2.57684e-05
2.58263e-05
2.58384e-05
2.58331e-05
2.57721e-05
2.57728e-05
2.57725e-05
2.57731e-05
2.58333e-05
2.58289e-05
2.57732e-05
2.57696e-05
2.57729e-05
2.5769e-05
2.57682e-05
2.57709e-05
2.57704e-05
2.58299e-05
2.58253e-05
2.57726e-05
2.57741e-05
2.57731e-05
2.58396e-05
2.58416e-05
2.58432e-05
2.57751e-05
2.57756e-05
2.58112e-05
2.58115e-05
2.5837e-05
2.58396e-05
2.57763e-05
2.57724e-05
2.58117e-05
2.58082e-05
2.57734e-05
2.58121e-05
2.58077e-05
2.58338e-05
2.58346e-05
2.57756e-05
2.5814e-05
2.581e-05
2.58344e-05
2.58668e-05
2.63794e-05
2.58217e-05
2.58216e-05
2.63109e-05
2.63146e-05
2.58629e-05
2.6388e-05
2.58182e-05
2.58143e-05
2.6297e-05
2.62874e-05
2.58126e-05
2.62996e-05
2.62859e-05
2.58588e-05
2.63706e-05
2.58217e-05
2.63175e-05
2.6316e-05
2.63689e-05
2.65668e-05
2.66797e-05
2.66865e-05
2.65492e-05
2.66761e-05
2.66694e-05
2.73529e-05
2.73424e-05
2.73405e-05
2.66665e-05
2.65571e-05
2.66787e-05
1.37955e-05
2.57895e-05
2.57977e-05
2.57935e-05
2.57986e-05
2.82731e-05
2.58127e-05
2.97509e-05
2.57607e-05
2.58741e-05
2.5119e-05
2.53262e-05
3.03864e-05
2.09467e-05
3.03734e-05
2.09112e-05
1.38443e-05
1.38047e-05
3.01652e-05
2.05162e-05
3.01711e-05
2.04996e-05
2.57977e-05
2.5793e-05
2.57985e-05
2.57713e-05
2.57752e-05
2.57727e-05
2.57755e-05
2.83229e-05
2.98164e-05
2.57593e-05
2.58148e-05
2.82964e-05
2.98183e-05
2.57575e-05
1.36129e-05
1.36045e-05
2.82663e-05
2.57629e-05
2.99601e-05
2.58149e-05
2.82265e-05
2.57608e-05
2.99751e-05
2.51524e-05
2.54124e-05
2.5895e-05
2.51345e-05
2.53851e-05
3.04287e-05
2.08854e-05
3.04218e-05
2.08742e-05
1.37909e-05
1.37846e-05
3.01689e-05
2.05009e-05
3.01832e-05
2.04867e-05
2.57603e-05
2.57589e-05
2.576e-05
2.57443e-05
2.57436e-05
2.57438e-05
2.57426e-05
2.83089e-05
2.9825e-05
2.57219e-05
2.57782e-05
2.83064e-05
2.98082e-05
2.57171e-05
1.36094e-05
1.35989e-05
2.8247e-05
2.5725e-05
2.99818e-05
2.57734e-05
2.82567e-05
2.57198e-05
2.99799e-05
2.51428e-05
2.53797e-05
2.58557e-05
2.51234e-05
2.53749e-05
3.04568e-05
2.08762e-05
3.04576e-05
2.08625e-05
1.37902e-05
1.37725e-05
3.01643e-05
2.05008e-05
3.01821e-05
2.04707e-05
2.57478e-05
2.57481e-05
2.57469e-05
2.57459e-05
2.57457e-05
2.57458e-05
2.57446e-05
2.83077e-05
2.98141e-05
2.57115e-05
2.57755e-05
2.82928e-05
2.97932e-05
2.57154e-05
1.35993e-05
1.35795e-05
2.82569e-05
2.57152e-05
2.99916e-05
2.57726e-05
2.8244e-05
2.57203e-05
2.99898e-05
2.51252e-05
2.54018e-05
2.58537e-05
2.50879e-05
2.53783e-05
3.04388e-05
2.08418e-05
3.04551e-05
2.08281e-05
1.37598e-05
1.37476e-05
3.01039e-05
2.04414e-05
3.0141e-05
2.04058e-05
2.57484e-05
2.57489e-05
2.57474e-05
2.57458e-05
2.57461e-05
2.57466e-05
2.57451e-05
2.82806e-05
2.97715e-05
2.57107e-05
2.57709e-05
2.82808e-05
2.97395e-05
2.57131e-05
1.35633e-05
1.3542e-05
2.82551e-05
2.57192e-05
2.99779e-05
2.5771e-05
2.82563e-05
2.57227e-05
2.99546e-05
2.50769e-05
2.53564e-05
2.58407e-05
2.50382e-05
2.53337e-05
3.04287e-05
2.08328e-05
3.04328e-05
2.08371e-05
1.37538e-05
1.37525e-05
3.00699e-05
2.03954e-05
3.00911e-05
2.03787e-05
2.57491e-05
2.57494e-05
2.57482e-05
2.57472e-05
2.57473e-05
2.57474e-05
2.57456e-05
2.82557e-05
2.97267e-05
2.57093e-05
2.57679e-05
2.82512e-05
2.97084e-05
2.57125e-05
1.35373e-05
1.35281e-05
2.82445e-05
2.5721e-05
2.99381e-05
2.57698e-05
2.82415e-05
2.57256e-05
2.99272e-05
2.50237e-05
2.53329e-05
2.58366e-05
2.49958e-05
2.53175e-05
3.0457e-05
2.08537e-05
3.04505e-05
2.0853e-05
1.3764e-05
1.37624e-05
3.00798e-05
2.03968e-05
3.00872e-05
2.03845e-05
2.57501e-05
2.57502e-05
2.57483e-05
2.57463e-05
2.57475e-05
2.57475e-05
2.5746e-05
2.82574e-05
2.97237e-05
2.57097e-05
2.57683e-05
2.82417e-05
2.97229e-05
2.57125e-05
1.35394e-05
1.35306e-05
2.82563e-05
2.57218e-05
2.99397e-05
2.57707e-05
2.82459e-05
2.57249e-05
2.99406e-05
2.50184e-05
2.5328e-05
2.58321e-05
2.50085e-05
2.53254e-05
3.04632e-05
2.08563e-05
3.04599e-05
2.08507e-05
1.3769e-05
1.37624e-05
3.0073e-05
2.03912e-05
3.00817e-05
2.03836e-05
2.57502e-05
2.57502e-05
2.57487e-05
2.57463e-05
2.57478e-05
2.57478e-05
2.57459e-05
2.82562e-05
2.97245e-05
2.57094e-05
2.57682e-05
2.82433e-05
2.97195e-05
2.57123e-05
1.35362e-05
1.353e-05
2.82617e-05
2.57221e-05
2.99424e-05
2.5771e-05
2.82556e-05
2.5725e-05
2.99425e-05
2.50244e-05
2.53454e-05
2.58386e-05
2.50019e-05
2.53272e-05
3.04651e-05
2.08567e-05
3.04615e-05
2.08488e-05
1.37639e-05
1.37601e-05
3.00788e-05
2.03925e-05
3.00906e-05
2.038e-05
2.57502e-05
2.57503e-05
2.57483e-05
2.5746e-05
2.57479e-05
2.5748e-05
2.57462e-05
2.82565e-05
2.97281e-05
2.57091e-05
2.57681e-05
2.82445e-05
2.97163e-05
2.5712e-05
1.35348e-05
1.35279e-05
2.8261e-05
2.57221e-05
2.99433e-05
2.57707e-05
2.82555e-05
2.57248e-05
2.99426e-05
2.50204e-05
2.53325e-05
2.583e-05
2.5008e-05
2.53265e-05
3.04646e-05
2.08542e-05
3.04623e-05
2.0839e-05
1.37644e-05
1.37609e-05
3.00922e-05
2.03961e-05
3.00883e-05
2.03739e-05
2.57507e-05
2.57508e-05
2.57495e-05
2.57503e-05
2.57512e-05
2.57514e-05
2.57495e-05
2.82573e-05
2.97274e-05
2.57115e-05
2.57687e-05
2.82428e-05
2.97279e-05
2.57133e-05
1.35318e-05
1.3524e-05
2.82593e-05
2.57241e-05
2.99423e-05
2.57718e-05
2.82521e-05
2.57265e-05
2.99465e-05
2.50272e-05
2.53456e-05
2.58336e-05
2.50045e-05
2.53224e-05
3.0446e-05
2.0876e-05
3.0446e-05
2.08406e-05
1.3775e-05
1.37951e-05
3.00841e-05
2.04123e-05
3.00794e-05
2.03682e-05
2.57601e-05
2.576e-05
2.57578e-05
2.58157e-05
2.58149e-05
2.58149e-05
2.58127e-05
2.82549e-05
2.97146e-05
2.57261e-05
2.57849e-05
2.82358e-05
2.97167e-05
2.57315e-05
1.35404e-05
1.35543e-05
2.82555e-05
2.57393e-05
2.99294e-05
2.57877e-05
2.82463e-05
2.57454e-05
2.99284e-05
2.50271e-05
2.53299e-05
2.58317e-05
2.50073e-05
2.53154e-05
3.01408e-05
2.09309e-05
3.02699e-05
2.0597e-05
1.38574e-05
1.39155e-05
2.99383e-05
2.05159e-05
3.00258e-05
2.02821e-05
2.58775e-05
2.58781e-05
2.58763e-05
2.67166e-05
2.67201e-05
2.67161e-05
2.67149e-05
2.81916e-05
2.96806e-05
2.58449e-05
2.58705e-05
2.81853e-05
2.95803e-05
2.60198e-05
1.36584e-05
1.37629e-05
2.83268e-05
2.58612e-05
2.98615e-05
2.58881e-05
2.82775e-05
2.60424e-05
2.97138e-05
2.50676e-05
2.5351e-05
2.59332e-05
2.48899e-05
2.51113e-05
2.35055e-05
4.66394e-06
2.63621e-05
8.3635e-06
5.76994e-06
7.54279e-06
2.33984e-05
4.61783e-06
2.61962e-05
8.32044e-06
2.76214e-05
2.68581e-05
2.68635e-05
2.81141e-05
2.67411e-05
2.75526e-05
2.75586e-05
2.63647e-05
2.23145e-05
2.71468e-05
2.77218e-05
2.76696e-05
1.65564e-05
2.80533e-05
5.74458e-06
7.49515e-06
2.64472e-05
2.716e-05
2.24815e-05
2.77417e-05
2.77812e-05
2.80596e-05
1.66286e-05
1.92958e-05
1.9434e-05
2.72878e-05
1.30892e-05
1.31563e-05
1.38399e-05
1.37932e-05
1.36186e-05
1.36237e-05
2.58731e-05
2.53776e-05
2.5135e-05
2.53595e-05
2.51424e-05
2.0834e-05
2.58287e-05
2.98977e-05
3.03396e-05
2.09474e-05
2.08395e-05
3.03539e-05
3.03371e-05
2.09368e-05
2.08306e-05
3.03488e-05
2.83239e-05
2.58197e-05
2.99121e-05
2.57692e-05
2.98912e-05
2.57728e-05
2.82245e-05
2.83222e-05
2.58196e-05
2.99204e-05
2.57695e-05
2.98899e-05
2.5773e-05
2.82234e-05
2.58687e-05
2.53166e-05
2.51155e-05
1.36008e-05
1.38481e-05
1.37995e-05
2.58686e-05
2.53809e-05
2.51341e-05
2.53561e-05
2.51347e-05
1.36062e-05
1.36129e-05
3.01319e-05
2.05047e-05
2.05134e-05
3.01575e-05
2.82652e-05
2.5818e-05
2.98114e-05
2.57621e-05
2.97943e-05
2.57631e-05
2.83048e-05
3.01305e-05
2.0489e-05
2.04969e-05
3.01504e-05
2.82639e-05
2.58165e-05
2.5762e-05
2.97913e-05
2.57631e-05
2.97745e-05
2.83038e-05
3.00961e-05
2.0485e-05
2.82732e-05
2.58194e-05
2.57664e-05
2.97435e-05
3.00963e-05
2.04848e-05
2.82629e-05
2.58131e-05
2.98077e-05
2.57602e-05
2.97661e-05
2.57607e-05
2.83054e-05
3.01219e-05
2.04955e-05
2.05033e-05
3.01608e-05
2.82632e-05
2.58195e-05
2.57661e-05
2.97935e-05
2.57675e-05
2.97585e-05
2.83058e-05
3.01224e-05
2.04928e-05
2.05017e-05
3.0162e-05
1.3603e-05
1.3609e-05
2.58711e-05
2.51129e-05
2.54105e-05
2.51169e-05
2.53899e-05
1.38626e-05
1.3812e-05
2.83244e-05
2.58204e-05
2.57655e-05
2.99462e-05
2.57688e-05
2.99115e-05
2.82257e-05
2.83247e-05
2.58197e-05
2.5768e-05
2.9954e-05
2.57712e-05
2.99239e-05
2.82261e-05
3.03455e-05
2.09723e-05
2.08504e-05
3.03583e-05
3.03454e-05
2.09742e-05
2.08554e-05
3.03585e-05
1.35996e-05
1.38086e-05
2.58739e-05
2.51372e-05
2.54074e-05
2.51373e-05
2.53708e-05
1.36039e-05
1.36112e-05
1.3867e-05
1.38154e-05
1.38374e-05
1.37985e-05
1.3628e-05
1.36179e-05
2.53814e-05
2.51477e-05
2.58872e-05
2.5368e-05
2.51383e-05
1.37797e-05
1.37995e-05
1.36143e-05
1.36266e-05
2.58824e-05
2.53539e-05
2.51332e-05
2.53687e-05
2.51488e-05
3.03964e-05
2.09365e-05
3.03604e-05
2.0902e-05
2.82577e-05
2.99218e-05
2.57677e-05
2.58155e-05
2.82222e-05
2.99389e-05
2.57639e-05
2.82594e-05
2.99354e-05
2.5768e-05
2.58177e-05
2.82233e-05
2.99507e-05
2.57642e-05
3.03956e-05
2.08832e-05
2.09118e-05
3.04177e-05
3.04027e-05
2.08743e-05
2.0902e-05
3.04106e-05
2.82539e-05
2.58096e-05
2.99392e-05
2.57438e-05
2.99348e-05
2.5758e-05
2.82618e-05
2.82553e-05
2.58129e-05
2.99503e-05
2.57451e-05
2.99453e-05
2.57586e-05
2.82619e-05
2.53858e-05
2.51464e-05
2.58802e-05
2.53657e-05
2.51312e-05
1.36161e-05
1.36088e-05
1.37869e-05
1.38055e-05
2.58769e-05
2.53586e-05
2.51289e-05
2.53662e-05
2.51428e-05
1.3599e-05
1.36168e-05
2.83206e-05
2.98229e-05
2.57614e-05
2.58201e-05
2.82935e-05
2.98316e-05
2.57589e-05
3.01711e-05
2.05008e-05
3.01651e-05
2.04867e-05
2.83204e-05
2.57612e-05
2.98023e-05
2.58182e-05
2.82926e-05
2.57586e-05
2.98115e-05
3.01731e-05
2.04899e-05
2.05101e-05
3.01756e-05
2.8307e-05
2.58162e-05
2.98359e-05
2.57372e-05
2.98332e-05
2.57529e-05
2.83196e-05
3.01782e-05
2.04738e-05
2.04966e-05
3.01796e-05
2.8307e-05
2.58143e-05
2.57366e-05
2.98152e-05
2.57525e-05
2.98125e-05
2.83201e-05
3.01805e-05
2.05067e-05
3.01726e-05
2.04884e-05
2.83228e-05
2.57654e-05
2.98042e-05
2.58218e-05
2.82944e-05
2.57626e-05
2.9813e-05
3.01812e-05
2.05035e-05
3.01731e-05
2.04845e-05
2.8309e-05
2.58111e-05
2.98206e-05
2.57377e-05
2.98187e-05
2.57515e-05
2.83225e-05
3.01868e-05
2.04733e-05
2.04977e-05
3.01871e-05
2.8309e-05
2.58177e-05
2.57423e-05
2.98106e-05
2.57566e-05
2.98046e-05
2.83225e-05
3.0188e-05
2.04695e-05
2.04936e-05
3.0188e-05
2.51269e-05
2.54165e-05
2.58845e-05
2.51218e-05
2.54103e-05
1.38609e-05
1.3824e-05
1.36007e-05
1.36127e-05
2.588e-05
2.51153e-05
2.53982e-05
2.51269e-05
2.54154e-05
1.38064e-05
1.38265e-05
2.82663e-05
2.57668e-05
2.99711e-05
2.58181e-05
2.82262e-05
2.57635e-05
2.99862e-05
3.0414e-05
2.09723e-05
3.03698e-05
2.09384e-05
3.04137e-05
2.0974e-05
3.03703e-05
2.09354e-05
2.8262e-05
2.58089e-05
2.57423e-05
2.99778e-05
2.57551e-05
2.99723e-05
2.82689e-05
2.82621e-05
2.58142e-05
2.57461e-05
2.99837e-05
2.57585e-05
2.99802e-05
2.82693e-05
3.0409e-05
2.09098e-05
2.09391e-05
3.04174e-05
3.04091e-05
2.09046e-05
2.09359e-05
3.0418e-05
1.36137e-05
1.36077e-05
1.38654e-05
1.38193e-05
2.58911e-05
2.51318e-05
2.53723e-05
2.51526e-05
2.53871e-05
1.35992e-05
1.36154e-05
1.37987e-05
1.38215e-05
1.37829e-05
1.37749e-05
1.36216e-05
1.36094e-05
2.53569e-05
2.51389e-05
2.58537e-05
2.53534e-05
2.51206e-05
1.37774e-05
1.37811e-05
1.36087e-05
1.36185e-05
2.58542e-05
2.53587e-05
2.51227e-05
2.53617e-05
2.513e-05
3.0421e-05
2.08754e-05
3.04058e-05
2.08578e-05
2.8243e-05
2.99405e-05
2.57294e-05
2.57721e-05
2.82484e-05
2.99495e-05
2.57201e-05
2.82423e-05
2.99506e-05
2.57304e-05
2.5775e-05
2.8248e-05
2.99592e-05
2.57205e-05
3.04268e-05
2.08715e-05
2.08796e-05
3.04517e-05
3.04306e-05
2.0854e-05
2.08605e-05
3.04514e-05
2.82339e-05
2.57663e-05
2.99547e-05
2.57136e-05
2.99459e-05
2.57138e-05
2.82434e-05
2.82337e-05
2.57675e-05
2.99648e-05
2.57138e-05
2.99512e-05
2.57139e-05
2.8243e-05
2.53644e-05
2.5135e-05
2.58484e-05
2.53609e-05
2.51174e-05
1.36074e-05
1.35948e-05
1.37859e-05
1.37905e-05
2.58489e-05
2.5367e-05
2.51173e-05
2.53695e-05
2.51271e-05
1.35881e-05
1.36031e-05
2.83084e-05
2.98373e-05
2.5724e-05
2.57818e-05
2.82998e-05
2.98304e-05
2.5717e-05
3.01731e-05
2.04827e-05
3.01687e-05
2.04625e-05
2.83083e-05
2.57234e-05
2.98166e-05
2.57795e-05
2.83e-05
2.57162e-05
2.98082e-05
3.01723e-05
2.04904e-05
2.04997e-05
3.01736e-05
2.82914e-05
2.57757e-05
2.98335e-05
2.57106e-05
2.98301e-05
2.57107e-05
2.83058e-05
3.01775e-05
2.04571e-05
2.04727e-05
3.01772e-05
2.82915e-05
2.57722e-05
2.57097e-05
2.98072e-05
2.57099e-05
2.98039e-05
2.83058e-05
3.01791e-05
2.04827e-05
3.01753e-05
2.04625e-05
2.83093e-05
2.57275e-05
2.98028e-05
2.57819e-05
2.83018e-05
2.57185e-05
2.98029e-05
3.01792e-05
2.04787e-05
3.01764e-05
2.04607e-05
2.82908e-05
2.5774e-05
2.9809e-05
2.57114e-05
2.98066e-05
2.57127e-05
2.83051e-05
3.01828e-05
2.04529e-05
2.04726e-05
3.01799e-05
2.82913e-05
2.5773e-05
2.57098e-05
2.9795e-05
2.57103e-05
2.97924e-05
2.83056e-05
3.01835e-05
2.04528e-05
2.04708e-05
3.01799e-05
2.5124e-05
2.54033e-05
2.58477e-05
2.5107e-05
2.54013e-05
1.38102e-05
1.38018e-05
1.35915e-05
1.36063e-05
2.58479e-05
2.5105e-05
2.54021e-05
2.51137e-05
2.54077e-05
1.38045e-05
1.38084e-05
2.82476e-05
2.5731e-05
2.99749e-05
2.57769e-05
2.82551e-05
2.57207e-05
2.99878e-05
3.04264e-05
2.09113e-05
3.04123e-05
2.08916e-05
3.04261e-05
2.09049e-05
3.04133e-05
2.08885e-05
2.82368e-05
2.57688e-05
2.5715e-05
2.99874e-05
2.5715e-05
2.99821e-05
2.8247e-05
2.82373e-05
2.57697e-05
2.57141e-05
2.99951e-05
2.57143e-05
2.99811e-05
2.82472e-05
3.04312e-05
2.08887e-05
2.08952e-05
3.04602e-05
3.04312e-05
2.08868e-05
2.08909e-05
3.04592e-05
1.36067e-05
1.3591e-05
1.38033e-05
1.37977e-05
2.58485e-05
2.51125e-05
2.53929e-05
2.51312e-05
2.53856e-05
1.35826e-05
1.35992e-05
1.38036e-05
1.38048e-05
1.3782e-05
1.37664e-05
1.36153e-05
1.35899e-05
2.53655e-05
2.51336e-05
2.58511e-05
2.53443e-05
2.51011e-05
1.37514e-05
1.37694e-05
1.35698e-05
1.3596e-05
2.58517e-05
2.53192e-05
2.50678e-05
2.53454e-05
2.51055e-05
3.04514e-05
2.08599e-05
3.04461e-05
2.08426e-05
2.82506e-05
2.99455e-05
2.57184e-05
2.57701e-05
2.82383e-05
2.99528e-05
2.57185e-05
2.82493e-05
2.99577e-05
2.57184e-05
2.57703e-05
2.82378e-05
2.99617e-05
2.57186e-05
3.04463e-05
2.08393e-05
2.08648e-05
3.04535e-05
3.0439e-05
2.08241e-05
2.08444e-05
3.04457e-05
2.82451e-05
2.57696e-05
2.99389e-05
2.57176e-05
2.99415e-05
2.57176e-05
2.82541e-05
2.82438e-05
2.57699e-05
2.99473e-05
2.57178e-05
2.99501e-05
2.57179e-05
2.82527e-05
2.53733e-05
2.51262e-05
2.58471e-05
2.53439e-05
2.5094e-05
1.35956e-05
1.35744e-05
1.37567e-05
1.37751e-05
2.58476e-05
2.53238e-05
2.5068e-05
2.53441e-05
2.51001e-05
1.3552e-05
1.35801e-05
2.83067e-05
2.98271e-05
2.57145e-05
2.57785e-05
2.82911e-05
2.98249e-05
2.57145e-05
3.01669e-05
2.04661e-05
3.01668e-05
2.04378e-05
2.83058e-05
2.57137e-05
2.98112e-05
2.5774e-05
2.8291e-05
2.57137e-05
2.98021e-05
3.01643e-05
2.04343e-05
2.04777e-05
3.01385e-05
2.82894e-05
2.57774e-05
2.97977e-05
2.5712e-05
2.98177e-05
2.5713e-05
2.82966e-05
3.01644e-05
2.04055e-05
2.04449e-05
3.01387e-05
2.82885e-05
2.57734e-05
2.57107e-05
2.97741e-05
2.57116e-05
2.97995e-05
2.82959e-05
3.01744e-05
2.0462e-05
3.01829e-05
2.04287e-05
2.83069e-05
2.57134e-05
2.97978e-05
2.57731e-05
2.82908e-05
2.57134e-05
2.97915e-05
3.01741e-05
2.04619e-05
3.01836e-05
2.04297e-05
2.82897e-05
2.57746e-05
2.97702e-05
2.57117e-05
2.97917e-05
2.57146e-05
2.82971e-05
3.01728e-05
2.0396e-05
2.04358e-05
3.01427e-05
2.82894e-05
2.57707e-05
2.57114e-05
2.97657e-05
2.57122e-05
2.97888e-05
2.8297e-05
3.01727e-05
2.0397e-05
2.04369e-05
3.01427e-05
2.51151e-05
2.54097e-05
2.58451e-05
2.50907e-05
2.54005e-05
1.38093e-05
1.37961e-05
1.35566e-05
1.35842e-05
2.58455e-05
2.50596e-05
2.53757e-05
2.50922e-05
2.54043e-05
1.37797e-05
1.38001e-05
2.82557e-05
2.57191e-05
2.99877e-05
2.57732e-05
2.8242e-05
2.57191e-05
2.99929e-05
3.04628e-05
2.08937e-05
3.04552e-05
2.08792e-05
3.04602e-05
2.08934e-05
3.04536e-05
2.08753e-05
2.8251e-05
2.5772e-05
2.57193e-05
2.99789e-05
2.57202e-05
2.99809e-05
2.82616e-05
2.825e-05
2.57736e-05
2.57187e-05
2.99779e-05
2.57187e-05
2.9981e-05
2.82602e-05
3.04499e-05
2.0859e-05
2.08819e-05
3.04581e-05
3.04476e-05
2.08531e-05
2.08775e-05
3.04556e-05
1.35902e-05
1.3571e-05
1.38102e-05
1.37919e-05
2.58497e-05
2.50702e-05
2.5352e-05
2.51031e-05
2.53788e-05
1.35483e-05
1.35769e-05
1.37753e-05
1.37961e-05
1.37539e-05
1.37395e-05
1.35753e-05
1.35496e-05
2.53192e-05
2.5072e-05
2.58428e-05
2.52966e-05
2.50353e-05
1.37368e-05
1.37433e-05
1.35404e-05
1.35566e-05
2.58431e-05
2.52831e-05
2.50131e-05
2.52976e-05
2.50403e-05
3.04317e-05
2.08244e-05
3.04313e-05
2.08101e-05
2.8249e-05
2.99341e-05
2.57208e-05
2.57693e-05
2.82478e-05
2.9919e-05
2.57208e-05
2.82472e-05
2.99429e-05
2.57213e-05
2.57698e-05
2.82463e-05
2.99264e-05
2.57209e-05
3.04335e-05
2.08248e-05
2.08313e-05
3.04308e-05
3.04195e-05
2.08109e-05
2.08119e-05
3.04234e-05
2.82392e-05
2.57668e-05
2.99101e-05
2.57192e-05
2.9914e-05
2.57192e-05
2.82423e-05
2.82374e-05
2.57672e-05
2.99174e-05
2.57194e-05
2.99207e-05
2.57194e-05
2.82407e-05
2.5324e-05
2.50722e-05
2.58364e-05
2.53027e-05
2.50378e-05
1.35585e-05
1.35354e-05
1.37463e-05
1.37508e-05
2.58368e-05
2.52907e-05
2.50172e-05
2.53029e-05
2.50432e-05
1.3525e-05
1.35427e-05
2.82819e-05
2.97967e-05
2.57144e-05
2.57759e-05
2.8276e-05
2.97698e-05
2.57142e-05
3.01098e-05
2.0412e-05
3.0137e-05
2.03794e-05
2.82812e-05
2.57132e-05
2.97732e-05
2.57723e-05
2.82756e-05
2.5713e-05
2.9748e-05
3.01038e-05
2.03854e-05
2.04137e-05
3.00866e-05
2.82615e-05
2.57733e-05
2.97502e-05
2.5711e-05
2.97673e-05
2.57121e-05
2.82684e-05
3.01085e-05
2.03621e-05
2.03873e-05
3.00872e-05
2.82608e-05
2.57699e-05
2.57098e-05
2.97282e-05
2.57109e-05
2.97448e-05
2.82678e-05
3.01127e-05
2.0403e-05
3.01417e-05
2.03682e-05
2.82815e-05
2.57137e-05
2.97648e-05
2.57711e-05
2.82762e-05
2.57134e-05
2.97393e-05
3.01127e-05
2.04041e-05
3.01425e-05
2.03685e-05
2.82594e-05
2.57697e-05
2.97245e-05
2.57094e-05
2.97383e-05
2.57121e-05
2.82665e-05
3.01118e-05
2.0351e-05
2.03765e-05
3.00884e-05
2.82603e-05
2.5768e-05
2.57098e-05
2.97189e-05
2.5711e-05
2.97367e-05
2.82669e-05
3.0111e-05
2.03514e-05
2.03765e-05
3.00888e-05
2.50646e-05
2.53757e-05
2.58372e-05
2.50295e-05
2.53472e-05
1.37821e-05
1.37628e-05
1.35288e-05
1.35474e-05
2.58372e-05
2.5006e-05
2.53274e-05
2.50291e-05
2.53513e-05
1.37551e-05
1.3767e-05
2.82547e-05
2.57221e-05
2.99732e-05
2.57723e-05
2.82535e-05
2.5722e-05
2.99546e-05
3.04438e-05
2.08605e-05
3.04435e-05
2.08344e-05
3.04415e-05
2.08542e-05
3.04413e-05
2.08282e-05
2.82439e-05
2.57702e-05
2.5721e-05
2.99374e-05
2.57215e-05
2.99477e-05
2.82476e-05
2.82439e-05
2.57691e-05
2.57203e-05
2.99374e-05
2.57203e-05
2.99452e-05
2.82466e-05
3.04309e-05
2.08207e-05
2.08369e-05
3.04334e-05
3.04297e-05
2.0816e-05
2.08309e-05
3.04314e-05
1.3554e-05
1.35286e-05
1.37785e-05
1.37626e-05
2.58338e-05
2.50133e-05
2.5325e-05
2.50432e-05
2.53349e-05
1.35167e-05
1.35358e-05
1.37591e-05
1.37669e-05
1.37436e-05
1.37434e-05
1.35476e-05
1.35346e-05
2.52888e-05
2.50191e-05
2.58364e-05
2.52874e-05
2.50007e-05
1.37502e-05
1.3751e-05
1.35405e-05
1.35443e-05
2.58375e-05
2.52994e-05
2.50069e-05
2.52973e-05
2.50106e-05
3.04176e-05
2.08198e-05
3.04097e-05
2.08227e-05
2.8243e-05
2.99027e-05
2.5723e-05
2.57683e-05
2.82358e-05
2.99076e-05
2.57229e-05
2.82399e-05
2.99095e-05
2.57234e-05
2.57687e-05
2.8234e-05
2.99186e-05
2.57231e-05
3.04309e-05
2.08459e-05
2.08473e-05
3.04462e-05
3.04205e-05
2.08335e-05
2.08318e-05
3.0435e-05
2.82374e-05
2.57676e-05
2.9917e-05
2.57213e-05
2.99102e-05
2.57213e-05
2.82493e-05
2.82344e-05
2.57681e-05
2.99267e-05
2.57214e-05
2.99197e-05
2.57214e-05
2.82461e-05
2.5297e-05
2.50214e-05
2.58325e-05
2.5294e-05
2.5003e-05
1.35334e-05
1.35248e-05
1.37572e-05
1.37594e-05
2.58335e-05
2.53036e-05
2.50147e-05
2.52968e-05
2.50172e-05
1.3528e-05
1.35343e-05
2.82587e-05
2.97494e-05
2.57135e-05
2.57723e-05
2.82488e-05
2.97358e-05
2.57134e-05
3.0078e-05
2.03715e-05
3.00869e-05
2.0354e-05
2.8258e-05
2.57122e-05
2.97281e-05
2.57688e-05
2.82484e-05
2.5712e-05
2.97152e-05
3.00747e-05
2.03836e-05
2.03908e-05
3.00781e-05
2.82425e-05
2.57702e-05
2.97407e-05
2.57111e-05
2.97365e-05
2.57117e-05
2.82569e-05
3.00779e-05
2.03596e-05
2.03659e-05
3.00802e-05
2.82417e-05
2.57669e-05
2.57097e-05
2.9717e-05
2.57101e-05
2.97158e-05
2.8256e-05
3.0079e-05
2.03607e-05
3.00877e-05
2.03441e-05
2.82566e-05
2.57121e-05
2.97182e-05
2.57673e-05
2.8247e-05
2.57119e-05
2.9706e-05
3.00778e-05
2.03613e-05
3.00877e-05
2.03446e-05
2.82383e-05
2.57678e-05
2.97163e-05
2.57101e-05
2.97109e-05
2.57122e-05
2.82534e-05
3.00787e-05
2.03516e-05
2.03567e-05
3.00798e-05
2.82396e-05
2.5765e-05
2.57094e-05
2.97079e-05
2.57096e-05
2.97058e-05
2.82545e-05
3.0077e-05
2.03508e-05
2.03568e-05
3.008e-05
2.50133e-05
2.5329e-05
2.58296e-05
2.4996e-05
2.53271e-05
1.37597e-05
1.37567e-05
1.35294e-05
1.35369e-05
2.58304e-05
2.49977e-05
2.53277e-05
2.50043e-05
2.53338e-05
1.37618e-05
1.37651e-05
2.82437e-05
2.57243e-05
2.99363e-05
2.57705e-05
2.82391e-05
2.57243e-05
2.99346e-05
3.04239e-05
2.08244e-05
3.04183e-05
2.08247e-05
3.04214e-05
2.08215e-05
3.04166e-05
2.08242e-05
2.82382e-05
2.57698e-05
2.5722e-05
2.99353e-05
2.57247e-05
2.99298e-05
2.82497e-05
2.82375e-05
2.57706e-05
2.57221e-05
2.99326e-05
2.57228e-05
2.99241e-05
2.8249e-05
3.04249e-05
2.08321e-05
2.08342e-05
3.04389e-05
3.04218e-05
2.08349e-05
2.08332e-05
3.04374e-05
1.35252e-05
1.35179e-05
1.37662e-05
1.37595e-05
2.58328e-05
2.50041e-05
2.53193e-05
2.50146e-05
2.53212e-05
1.35199e-05
1.35271e-05
1.37631e-05
1.37666e-05
1.37567e-05
1.37533e-05
1.35501e-05
1.35384e-05
2.5309e-05
2.50209e-05
2.5838e-05
2.53075e-05
2.50133e-05
1.37528e-05
1.37591e-05
1.35363e-05
1.35464e-05
2.58394e-05
2.53082e-05
2.50008e-05
2.53154e-05
2.50221e-05
3.04364e-05
2.08415e-05
3.04264e-05
2.08398e-05
2.82556e-05
2.9918e-05
2.57242e-05
2.57707e-05
2.82441e-05
2.99268e-05
2.57243e-05
2.82511e-05
2.99276e-05
2.57242e-05
2.57717e-05
2.82408e-05
2.99367e-05
2.57242e-05
3.04461e-05
2.08516e-05
2.08604e-05
3.04576e-05
3.04272e-05
2.08419e-05
2.08469e-05
3.04428e-05
2.825e-05
2.57694e-05
2.99211e-05
2.57225e-05
2.99167e-05
2.57228e-05
2.826e-05
2.82456e-05
2.57702e-05
2.99326e-05
2.57221e-05
2.99265e-05
2.57224e-05
2.82556e-05
2.53141e-05
2.50278e-05
2.58323e-05
2.53139e-05
2.5021e-05
1.3538e-05
1.35295e-05
1.3764e-05
1.37683e-05
2.58334e-05
2.53177e-05
2.50171e-05
2.53222e-05
2.50319e-05
1.35247e-05
1.35379e-05
2.82592e-05
2.97345e-05
2.57137e-05
2.57721e-05
2.82425e-05
2.97387e-05
2.57137e-05
3.00757e-05
2.03731e-05
3.00705e-05
2.03627e-05
2.82577e-05
2.57124e-05
2.97213e-05
2.57686e-05
2.82415e-05
2.57123e-05
2.97227e-05
3.00742e-05
2.03787e-05
2.03949e-05
3.00734e-05
2.82447e-05
2.57711e-05
2.97329e-05
2.57111e-05
2.97289e-05
2.57119e-05
2.82574e-05
3.0081e-05
2.03543e-05
2.03722e-05
3.00775e-05
2.82433e-05
2.57676e-05
2.57097e-05
2.97129e-05
2.57103e-05
2.97115e-05
2.82567e-05
3.00756e-05
2.03657e-05
3.00697e-05
2.03565e-05
2.82565e-05
2.5712e-05
2.97127e-05
2.57675e-05
2.82398e-05
2.5712e-05
2.97145e-05
3.00754e-05
2.03648e-05
3.00702e-05
2.03541e-05
2.82424e-05
2.57678e-05
2.97181e-05
2.57096e-05
2.9714e-05
2.57118e-05
2.82563e-05
3.0081e-05
2.03492e-05
2.03676e-05
3.00795e-05
2.82419e-05
2.57655e-05
2.57098e-05
2.97084e-05
2.57103e-05
2.97044e-05
2.82562e-05
3.00812e-05
2.03462e-05
2.0364e-05
3.00789e-05
2.50096e-05
2.5336e-05
2.58292e-05
2.50015e-05
2.53352e-05
1.37674e-05
1.37627e-05
1.35263e-05
1.35378e-05
2.58301e-05
2.49977e-05
2.53308e-05
2.50067e-05
2.53406e-05
1.37635e-05
1.37691e-05
2.82542e-05
2.57246e-05
2.99343e-05
2.57707e-05
2.82433e-05
2.57245e-05
2.99449e-05
3.04408e-05
2.08395e-05
3.04307e-05
2.08374e-05
3.04381e-05
2.0843e-05
3.04299e-05
2.08411e-05
2.82501e-05
2.57704e-05
2.57228e-05
2.99382e-05
2.57246e-05
2.99326e-05
2.82603e-05
2.82482e-05
2.57697e-05
2.57222e-05
2.99412e-05
2.57224e-05
2.99345e-05
2.82585e-05
3.04303e-05
2.08384e-05
2.08449e-05
3.04459e-05
3.0427e-05
2.08421e-05
2.0848e-05
3.04426e-05
1.35287e-05
1.35186e-05
1.37703e-05
1.37676e-05
2.5833e-05
2.5011e-05
2.5336e-05
2.50204e-05
2.53355e-05
1.35161e-05
1.35272e-05
1.37708e-05
1.37742e-05
1.37568e-05
1.3751e-05
1.35458e-05
1.35386e-05
2.53113e-05
2.50113e-05
2.58373e-05
2.53038e-05
2.50085e-05
1.37529e-05
1.3757e-05
1.35377e-05
1.35476e-05
2.58391e-05
2.53097e-05
2.50115e-05
2.53127e-05
2.50218e-05
3.044e-05
2.08466e-05
3.04355e-05
2.08386e-05
2.82625e-05
2.9921e-05
2.57252e-05
2.5771e-05
2.82542e-05
2.99279e-05
2.57251e-05
2.82573e-05
2.99288e-05
2.57248e-05
2.57721e-05
2.82498e-05
2.9939e-05
2.57247e-05
3.04505e-05
2.08502e-05
2.08581e-05
3.04611e-05
3.04289e-05
2.08343e-05
2.08451e-05
3.04451e-05
2.82563e-05
2.57699e-05
2.9921e-05
2.57229e-05
2.99172e-05
2.57235e-05
2.82635e-05
2.82509e-05
2.57711e-05
2.99311e-05
2.57225e-05
2.99277e-05
2.57229e-05
2.82583e-05
2.53242e-05
2.50247e-05
2.58334e-05
2.53132e-05
2.50136e-05
1.35339e-05
1.35297e-05
1.37596e-05
1.37664e-05
2.5835e-05
2.53121e-05
2.50184e-05
2.53138e-05
2.50289e-05
1.35257e-05
1.3538e-05
2.82566e-05
2.97375e-05
2.57136e-05
2.57722e-05
2.82419e-05
2.97417e-05
2.57135e-05
3.00787e-05
2.03668e-05
3.00747e-05
2.03596e-05
2.82558e-05
2.57122e-05
2.97176e-05
2.57684e-05
2.82413e-05
2.57121e-05
2.972e-05
3.00806e-05
2.03801e-05
2.03969e-05
3.00832e-05
2.82421e-05
2.5771e-05
2.97385e-05
2.57113e-05
2.97328e-05
2.57119e-05
2.82592e-05
3.00856e-05
2.03559e-05
2.03727e-05
3.00853e-05
2.82413e-05
2.57675e-05
2.57099e-05
2.97157e-05
2.57103e-05
2.97104e-05
2.82582e-05
3.00808e-05
2.03609e-05
3.00742e-05
2.03546e-05
2.82555e-05
2.57122e-05
2.97117e-05
2.57672e-05
2.82405e-05
2.57122e-05
2.97135e-05
3.00801e-05
2.03585e-05
3.00761e-05
2.03516e-05
2.82414e-05
2.57682e-05
2.97235e-05
2.57092e-05
2.97226e-05
2.57115e-05
2.82577e-05
3.00869e-05
2.03515e-05
2.03682e-05
3.0087e-05
2.82408e-05
2.57654e-05
2.57097e-05
2.97096e-05
2.57101e-05
2.97042e-05
2.82577e-05
3.00869e-05
2.03474e-05
2.03647e-05
3.00867e-05
2.50087e-05
2.53383e-05
2.58287e-05
2.5e-05
2.53367e-05
1.37681e-05
1.37625e-05
1.35262e-05
1.35377e-05
2.58303e-05
2.49987e-05
2.53323e-05
2.50063e-05
2.53426e-05
1.37622e-05
1.37682e-05
2.82598e-05
2.57249e-05
2.99389e-05
2.5772e-05
2.82523e-05
2.57248e-05
2.99479e-05
3.04446e-05
2.08433e-05
3.04387e-05
2.0837e-05
3.04413e-05
2.08473e-05
3.04351e-05
2.0841e-05
2.82541e-05
2.57709e-05
2.57222e-05
2.9939e-05
2.57242e-05
2.99329e-05
2.8261e-05
2.8253e-05
2.57721e-05
2.57229e-05
2.9941e-05
2.57234e-05
2.99366e-05
2.82604e-05
3.04331e-05
2.08363e-05
2.08431e-05
3.04503e-05
3.04304e-05
2.08415e-05
2.08475e-05
3.04476e-05
1.35257e-05
1.35219e-05
1.37768e-05
1.37671e-05
2.58349e-05
2.50069e-05
2.53242e-05
2.50203e-05
2.53302e-05
1.35173e-05
1.35297e-05
1.37647e-05
1.37722e-05
1.3757e-05
1.37503e-05
1.35449e-05
1.35352e-05
2.53168e-05
2.50185e-05
2.58338e-05
2.5307e-05
2.5004e-05
1.37503e-05
1.37552e-05
1.35363e-05
1.35445e-05
2.58364e-05
2.53077e-05