/*--------------------------------*- C++ -*----------------------------------*\
| =========                 |                                                 |
| \\      /  F ield         | OpenFOAM: The Open Source CFD Toolbox           |
|  \\    /   O peration     | Version:  2206                                  |
|   \\  /    A nd           | Website:  www.openfoam.com                      |
|    \\/     M anipulation  |                                                 |
\*---------------------------------------------------------------------------*/
FoamFile
{
    version     2.0;
    format      ascii;
    arch        "LSB;label=32;scalar=64";
    class       volScalarField;
    location    "0.2";
    object      omega;
}
// * * * * * * * * * * * * * * * * * * * * * * * * * * * * * * * * * * * * * //

dimensions      [0 0 -1 0 0 0 0];

internalField   nonuniform List<scalar> 
66940
(
20.2659
20.4189
20.3964
20.8097
20.26
20.4117
20.3906
20.8343
20.2601
20.4113
20.3897
20.8124
20.26
20.4116
20.3896
20.8323
20.26
20.4111
20.3896
20.8124
20.26
20.4115
20.3896
20.8323
20.2601
20.4112
20.3896
20.8124
20.26
20.4116
20.3897
20.8325
20.2601
20.4111
20.3897
20.8126
20.2606
20.4114
20.3898
20.8333
20.274
20.4045
20.3956
20.8081
20.6052
21.2911
21.2141
22.4709
20.8188
20.4079
20.4081
20.8202
20.4265
20.4294
20.4281
20.4314
20.8232
20.4044
20.401
20.8165
20.8097
20.8177
20.4009
20.4009
20.3931
20.3938
20.8105
20.8228
20.418
20.421
20.4099
20.4128
20.4219
20.4122
20.4179
20.8138
20.8227
20.4006
20.3915
20.3929
20.8447
20.8087
20.8159
20.394
20.3942
20.3919
20.3908
20.814
20.8165
20.411
20.4139
20.41
20.4131
20.4188
20.4114
20.4142
20.8138
20.8218
20.3928
20.3898
20.3884
20.8206
20.8073
20.8159
20.3931
20.3919
20.392
20.3913
20.8077
20.82
20.4117
20.4143
20.41
20.4132
20.4139
20.4116
20.4156
20.8134
20.822
20.3914
20.3897
20.3909
20.8422
20.8072
20.8159
20.3932
20.3927
20.3921
20.3909
20.8119
20.8171
20.4115
20.4143
20.4101
20.4131
20.4171
20.4113
20.4144
20.8135
20.8219
20.3909
20.3896
20.3884
20.8206
20.8073
20.8158
20.3932
20.392
20.392
20.3913
20.8082
20.8199
20.4116
20.4142
20.41
20.4132
20.414
20.4115
20.4156
20.8134
20.822
20.3915
20.3897
20.391
20.8422
20.8072
20.8159
20.3932
20.3926
20.3921
20.3909
20.8118
20.8166
20.4115
20.4144
20.41
20.4131
20.4171
20.4113
20.4144
20.8135
20.8219
20.3911
20.3896
20.3884
20.8206
20.8073
20.8157
20.3932
20.392
20.392
20.3913
20.8078
20.8199
20.4115
20.4142
20.41
20.4131
20.414
20.4115
20.4156
20.8133
20.8218
20.3915
20.3897
20.391
20.8421
20.8073
20.8153
20.3932
20.3926
20.3919
20.3908
20.8119
20.8159
20.4115
20.4142
20.4099
20.413
20.4171
20.4111
20.4142
20.8136
20.8208
20.391
20.3896
20.3883
20.8202
20.8076
20.8135
20.3933
20.3921
20.3919
20.3912
20.8082
20.8176
20.4115
20.4143
20.4097
20.4128
20.4141
20.4113
20.4154
20.8137
20.8195
20.3916
20.3897
20.3908
20.8406
20.8086
20.8034
20.3933
20.3926
20.3913
20.3901
20.8134
20.8054
20.4112
20.4142
20.4107
20.4138
20.417
20.4124
20.4143
20.8151
20.8095
20.391
20.3902
20.3869
20.8083
20.8045
21.2741
20.4003
20.3995
20.5005
20.4928
20.805
21.3567
20.4065
20.4102
20.4876
20.4859
20.4109
20.5235
20.4908
20.8103
21.2759
20.3975
20.5035
20.4971
21.2796
22.4586
21.2217
21.229
22.6526
21.2013
21.2086
20.6103
20.6033
20.6031
21.2163
22.457
21.2087
374.012
20.276
20.279
20.2758
20.2789
25.8748
20.4408
52.7997
20.3231
20.8234
105.121
104.542
57.6746
224.691
57.6656
224.621
373.161
373.007
60.1741
227.629
59.8108
227.598
20.2701
20.2679
20.2698
20.2602
20.2614
20.2601
20.2609
26.0041
53.1069
20.2993
20.4155
25.8716
53.2853
20.297
375.299
375.185
25.3675
20.2884
51.6401
20.3943
25.3499
20.2865
51.6807
105.791
104.238
20.8351
105.975
104.295
57.5256
224.737
57.5945
224.506
373.127
372.947
60.1675
227.707
59.9045
227.555
20.263
20.262
20.2625
20.2604
20.2603
20.2605
20.2603
25.995
53.2516
20.2923
20.4126
25.9166
53.3179
20.2941
375.328
375.194
25.3436
20.2828
51.6349
20.3913
25.3533
20.2845
51.6161
105.976
103.966
20.829
105.982
103.788
57.4259
224.752
57.4775
224.557
373.089
372.926
60.1656
227.69
59.9231
227.568
20.2621
20.2622
20.2622
20.2602
20.2604
20.2605
20.2608
25.9958
53.2375
20.2925
20.4122
25.9174
53.3013
20.2941
375.327
375.184
25.3209
20.2828
51.5952
20.3907
25.32
20.2845
51.5785
105.995
103.765
20.833
106.072
103.885
57.4129
224.724
57.4495
224.519
373.105
372.944
60.1651
227.768
59.9213
227.596
20.2622
20.2622
20.2624
20.2602
20.2604
20.2605
20.2604
25.9957
53.2323
20.2923
20.4129
25.9158
53.3107
20.2942
375.319
375.184
25.3175
20.2827
51.573
20.3905
25.3124
20.2844
51.5513
105.954
103.895
20.8281
105.971
103.753
57.414
224.719
57.455
224.518
373.106
372.92
60.1653
227.765
59.9213
227.596
20.2622
20.2622
20.2623
20.2603
20.2604
20.2605
20.2608
25.9957
53.2308
20.2922
20.412
25.9157
53.2941
20.2941
375.313
375.167
25.3232
20.2826
51.5608
20.3906
25.3153
20.2844
51.5472
105.991
103.768
20.8329
106.063
103.888
57.3729
224.719
57.4019
224.52
373.123
372.939
60.1652
227.765
59.9214
227.595
20.2622
20.2622
20.2625
20.2603
20.2604
20.2604
20.2604
25.9958
53.2322
20.2923
20.4128
25.9156
53.3102
20.2942
375.316
375.179
25.3216
20.2826
51.5732
20.3906
25.3188
20.2844
51.5676
105.954
103.896
20.8281
105.971
103.746
57.4198
224.719
57.45
224.517
373.107
372.923
60.1642
227.764
59.9215
227.594
20.2622
20.2622
20.2623
20.2602
20.2605
20.2604
20.2608
25.9954
53.2309
20.2922
20.4122
25.9156
53.293
20.2942
375.319
375.195
25.3174
20.2826
51.5845
20.3906
25.313
20.2843
51.5723
105.992
103.787
20.8329
106.06
103.895
57.4095
224.723
57.4559
224.5
373.106
372.979
60.1628
227.769
59.9207
227.578
20.2622
20.2622
20.2624
20.2603
20.2605
20.2605
20.2604
25.9955
53.2303
20.2922
20.4127
25.9151
53.3045
20.2942
375.319
375.222
25.3224
20.2826
51.5758
20.3906
25.3152
20.2844
51.5647
105.952
103.892
20.8279
105.975
103.756
57.3178
224.778
57.374
224.319
373.086
372.954
60.1553
227.762
59.9198
227.387
20.2622
20.2622
20.2622
20.2605
20.2606
20.2607
20.261
25.9938
53.2206
20.2923
20.4119
25.9142
53.2737
20.294
375.336
375.245
25.3209
20.2828
51.5777
20.3909
25.3166
20.2845
51.5623
105.992
103.782
20.8323
106.043
103.876
57.2561
224.904
57.3779
223.798
373.003
372.379
59.9665
227.919
59.9939
226.876
20.2627
20.2628
20.263
20.2675
20.2675
20.2676
20.2675
25.9808
53.1856
20.293
20.4122
25.9058
53.2532
20.2954
375.271
374.688
25.2958
20.2837
51.5396
20.3908
25.2922
20.286
51.5269
105.98
103.966
20.824
105.779
103.67
61.4042
226.788
59.3722
226.811
372.488
370.385
61.1238
228.326
59.5757
227.174
20.2745
20.2746
20.2744
20.5525
20.5531
20.5506
20.5507
26.527
52.8305
20.3019
20.4089
25.8277
55.2396
20.349
373.676
370.35
26.7687
20.3008
52.0072
20.4249
25.6718
20.3617
55.3356
105.494
103.979
20.8493
105.903
105.525
113.551
1696.43
137.593
446.635
1757.52
580.795
113.611
1696.7
137.208
446.528
20.7827
20.6345
20.636
21.0525
20.5501
20.8806
20.8817
43.4943
247.238
20.7548
21.8085
38.4371
227.854
21.1194
1757.58
580.772
43.6498
20.7612
247.316
21.8037
38.5425
21.1206
228.106
311.756
312.362
23.191
349.448
349.523
372.877
374.006
375.145
374.959
20.8173
104.186
105.846
104.28
105.084
225.995
20.449
52.4371
59.0938
224.566
226.003
57.6637
59.0627
224.799
225.801
57.651
25.7329
20.4183
51.7251
20.3016
52.2075
20.3142
25.3746
25.7309
20.4188
51.7591
20.302
52.1445
20.3144
25.3733
20.8273
104.669
105.28
374.694
373.006
373.868
20.8205
104.306
105.814
104.124
105.028
375.133
374.602
59.4057
227.572
226.983
59.9581
25.7919
20.4368
53.0852
20.3094
52.6107
20.3207
25.9439
59.3913
227.472
227.031
59.9359
25.7921
20.4397
20.3106
53.1275
20.3217
52.6744
25.9418
59.5476
226.766
25.8733
20.4437
20.3252
52.8298
59.5384
226.803
25.7866
20.4375
53.1321
20.3094
52.5778
20.3201
25.9354
59.2963
227.566
226.584
59.8478
25.7855
20.4406
20.3117
53.1407
20.3227
52.6108
25.9333
59.2914
227.612
226.615
59.8426
375.207
374.938
20.8209
105.742
104.121
105.243
104.006
372.769
373.789
25.7194
20.4145
20.2992
51.637
20.3116
52.0652
25.354
25.7158
20.4137
20.3015
51.554
20.3134
52.1041
25.3548
58.92
224.318
225.704
57.5542
58.9092
224.458
225.835
57.5529
374.64
373.906
20.816
105.801
104.201
104.877
103.883
375.117
374.566
372.913
373.667
372.79
373.018
375.105
375.263
103.991
105.603
20.8179
104.184
106.133
373.041
372.984
375.284
375.21
20.8099
104.008
106.151
103.96
105.878
57.726
224.472
57.5075
224.776
25.3709
51.6169
20.2924
20.3974
25.3283
51.8012
20.2883
25.3757
51.7157
20.2926
20.3983
25.329
51.8289
20.2885
57.547
224.699
224.437
57.6673
57.5894
224.821
224.736
57.6493
25.3319
20.3937
51.7043
20.2836
51.6314
20.2839
25.3662
25.3383
20.3953
51.7054
20.2837
51.6594
20.284
25.3748
104.114
105.548
20.8188
104.203
106.068
375.13
375.235
373.049
373.019
20.8118
103.977
106.106
103.816
105.852
375.343
375.213
26.0073
52.8874
20.3006
20.4142
25.8679
53.3239
20.2969
60.1264
227.238
59.6906
227.675
26.0043
20.3015
52.9197
20.4168
25.8681
20.2975
53.3498
59.893
227.826
227.393
60.1498
25.9173
20.4102
53.3326
20.2921
53.0879
20.2925
25.9995
59.8554
227.881
227.487
60.1392
25.9145
20.4132
20.2928
53.3674
20.293
53.1136
26.0042
60.111
227.367
59.6068
227.801
25.9981
20.3027
52.9257
20.4221
25.8536
20.2988
53.3696
60.1036
227.401
59.6065
227.817
25.9128
20.4133
53.4034
20.2928
53.0481
20.2951
26.0113
59.8463
227.87
227.627
60.1467
25.9093
20.4174
20.2942
53.3717
20.2949
53.1239
26.006
59.8436
227.858
227.626
60.1506
105.5
103.893
20.8214
105.978
104.015
372.732
372.993
375.259
375.183
20.8132
106.093
103.937
105.916
103.663
373.001
372.985
25.3712
20.2921
51.4203
20.395
25.3101
20.2878
51.78
57.7258
224.198
57.4226
224.633
57.7149
224.335
57.4228
224.757
25.3396
20.3924
20.2831
51.7499
20.2849
51.5237
25.3807
25.3393
20.3951
20.283
51.6891
20.2834
51.6173
25.3705
57.5923
224.701
224.538
57.6783
57.592
224.766
224.736
57.6708
375.112
375.262
372.89
373.182
20.8259
106.179
104.082
105.571
103.853
375.256
375.161
373.1
373.095
372.958
372.961
375.297
375.252
103.757
105.879
20.8152
103.877
106.181
372.996
372.937
375.295
375.224
20.8073
103.877
106.173
103.686
105.912
57.5699
224.705
57.5026
224.893
25.3452
51.5346
20.2854
20.3937
25.3224
51.6605
20.2853
25.3547
51.5447
20.2854
20.3936
25.3328
51.6938
20.2853
57.3838
224.713
224.4
57.5435
57.4398
224.755
224.743
57.5062
25.3029
20.3922
51.6384
20.2838
51.5083
20.2842
25.3381
25.3112
20.3914
51.6202
20.2837
51.5261
20.2839
25.3434
103.787
105.824
20.8185
103.888
106.059
375.216
375.228
373.013
372.927
20.8095
103.908
106.054
103.7
105.776
375.229
375.21
25.9899
53.0714
20.2938
20.411
25.896
53.3225
20.2938
60.1454
227.671
59.8543
227.885
25.9937
20.2945
53.1121
20.4138
25.9054
20.2945
53.3923
59.8823
227.752
227.337
60.1675
25.9001
20.41
53.3384
20.2925
53.0785
20.2927
26.0009
59.865
227.816
227.677
60.1455
25.9019
20.4131
20.2933
53.3726
20.2935
53.1451
26.0051
60.1473
227.654
59.8582
227.873
25.9906
20.2956
53.1019
20.4181
25.9033
20.2953
53.3662
60.1437
227.706
59.8651
227.806
25.8995
20.4121
53.389
20.2926
53.0637
20.2938
26.0063
59.8631
227.865
227.67
60.1386
25.8966
20.4155
20.2933
53.3764
20.2937
53.1131
26.0009
59.8622
227.859
227.608
60.1419
105.825
103.669
20.82
106.102
103.744
372.964
372.958
375.272
375.204
20.8118
106.106
103.84
106.002
103.411
372.979
372.928
25.3501
20.2846
51.5477
20.3919
25.3263
20.2845
51.6084
57.5785
224.588
57.5318
224.837
57.5806
224.709
57.525
224.72
25.3096
20.3905
20.2829
51.6729
20.2841
51.4468
25.3432
25.3093
20.389
20.283
51.5809
20.2833
51.4457
25.3367
57.4396
224.801
224.572
57.5073
57.4466
224.723
224.676
57.5123
375.169
375.272
372.992
373.01
20.8184
106.13
103.757
105.713
103.618
375.234
375.168
372.975
372.981
372.975
372.987
375.267
375.34
103.688
105.907
20.8149
103.909
106.214
373.011
372.959
375.295
375.235
20.8072
103.873
106.175
103.714
105.938
57.4978
224.635
57.367
224.847
25.3245
51.4796
20.2855
20.393
25.2966
51.6563
20.2854
25.3353
51.478
20.2853
20.392
25.3036
51.6764
20.2852
57.2904
224.703
224.441
57.5026
57.3599
224.69
224.692
57.5032
25.2849
20.392
51.644
20.2837
51.5078
20.2842
25.3327
25.2963
20.3913
51.6205
20.2836
51.5147
20.284
25.3391
103.733
105.761
20.8155
103.919
106.076
375.194
375.239
373.015
372.923
20.8086
103.824
106.058
103.634
105.834
375.225
375.229
25.9917
53.0809
20.2942
20.4113
25.9018
53.324
20.2941
60.1489
227.645
59.8617
227.747
25.9966
20.2949
53.107
20.4141
25.9097
20.2948
53.3705
59.879
227.883
227.345
60.1656
25.8995
20.41
53.3431
20.2926
53.08
20.293
26.0001
59.8663
227.799
227.578
60.1415
25.9024
20.4132
20.2932
53.3708
20.2935
53.1271
26.0033
60.1474
227.654
59.8544
227.882
25.993
20.2948
53.1107
20.4163
25.903
20.2947
53.361
60.145
227.643
59.8602
227.881
25.8983
20.4117
53.3773
20.2923
53.0477
20.2937
26.0041
59.8614
227.833
227.671
60.1335
25.8966
20.4132
20.2932
53.3486
20.2933
53.103
25.999
59.8618
227.863
227.664
60.1382
105.835
103.63
20.8201
106.081
103.764
372.965
372.968
375.262
375.162
20.8119
106.123
103.854
105.992
103.433
372.987
372.949
25.3307
20.2847
51.4206
20.3898
25.2941
20.2846
51.6287
57.4919
224.734
57.368
224.703
57.5038
224.646
57.3753
224.729
25.2889
20.39
20.2827
51.656
20.284
51.4167
25.3347
25.2929
20.3915
20.2831
51.6208
20.2835
51.4672
25.3297
57.3762
224.681
224.575
57.4539
57.3914
224.721
224.635
57.4731
375.143
375.282
372.981
372.988
20.8232
106.145
103.954
105.63
103.613
375.329
375.16
372.997
372.993
372.956
372.984
375.269
375.342
103.68
105.907
20.8148
103.901
106.213
373.012
372.946
375.295
375.234
20.8071
103.87
106.176
103.706
105.938
57.5088
224.667
57.3649
224.67
25.3242
51.482
20.2854
20.3931
25.2938
51.6449
20.2853
25.3378
51.4685
20.2853
20.3925
25.3012
51.6617
20.2852
57.2782
224.688
224.367
57.4918
57.3731
224.68
224.665
57.5274
25.2848
20.3921
51.6446
20.2837
51.4929
20.2841
25.3339
25.2997
20.3912
51.6171
20.2836
51.5002
20.2839
25.3441
103.637
105.784
20.8183
103.888
106.074
375.185
375.222
373.021
372.934
20.8096
103.903
106.052
103.701
105.792
375.215
375.181
25.9914
53.0865
20.2942
20.4112
25.9014
53.3292
20.2941
60.1483
227.647
59.8582
227.733
25.9964
20.2948
53.1101
20.4141
25.9085
20.2947
53.3725
59.8788
227.874
227.384
60.1657
25.8994
20.4101
53.3413
20.2926
53.0831
20.2929
26
59.8661
227.802
227.614
60.1416
25.9023
20.4132
20.2932
53.3654
20.2935
53.1286
26.0033
60.1477
227.618
59.8505
227.842
25.993
20.2948
53.0836
20.4169
25.9018
20.2947
53.3671
60.146
227.644
59.8575
227.876
25.8985
20.4123
53.3845
20.2922
53.0581
20.2936
26.0041
59.8621
227.832
227.643
60.1336
25.8967
20.4156
20.2932
53.3741
20.2935
53.1151
25.9991
59.8631
227.8
227.665
60.1388
105.85
103.638
20.8203
106.085
103.768
372.975
372.972
375.259
375.157
20.812
106.099
103.85
105.995
103.434
372.995
372.957
25.3281
20.2847
51.4592
20.3907
25.2875
20.2845
51.6313
57.4775
224.575
57.3196
224.701
57.4939
224.635
57.3389
224.719
25.2808
20.3899
20.2827
51.6277
20.2839
51.3876
25.3381
25.2886
20.3887
20.2829
51.5975
20.2832
51.4644
25.3347
57.3374
224.779
224.553
57.4807
57.3579
224.836
224.578
57.5066
375.177
375.299
372.979
373.027
20.8177
106.132
103.773
105.703
103.553
375.293
375.227
373.008
373.009
372.96
372.981
375.268
375.342
103.676
105.908
20.8148
103.891
106.213
373.007
372.942
375.295
375.234
20.807
103.859
106.175
103.693
105.937
57.5162
224.67
57.3876
224.676
25.3263
51.4826
20.2854
20.3931
25.2944
51.6433
20.2853
25.339
51.4723
20.2852
20.3921
25.3056
51.6696
20.2851
57.3173
224.688
224.366
57.4613
57.3784
224.689
224.671
57.5241
25.2857
20.3921
51.6409
20.2837
51.4905
20.2841
25.3292
25.3002
20.3913
51.6211
20.2835
51.5059
20.2839
25.344
103.726
105.76
20.8157
103.917
106.069
375.178
375.23
373.065
372.908
20.8086
103.834
106.057
103.636
105.827
375.223
375.24
25.9915
53.0853
20.2942
20.4113
25.9013
53.3293
20.2941
60.1493
227.591
59.8584
227.833
25.9965
20.2948
53.1063
20.4141
25.9084
20.2947
53.3787
59.8791
227.874
227.384
60.1658
25.8994
20.41
53.3411
20.2926
53.0831
20.2929
26.0001
59.8673
227.81
227.639
60.1428
25.9025
20.4132
20.2932
53.3726
20.2935
53.1339
26.0035
60.1472
227.615
59.8504
227.843
25.9929
20.2947
53.1055
20.4163
25.9018
20.2947
53.3541
60.1448
227.577
59.8578
227.859
25.8985
20.4116
53.3759
20.2923
53.0419
20.2936
26.004
59.8616
227.831
227.641
60.1336
25.8965
20.4132
20.2932
53.3485
20.2933
53.0979
25.999
59.862
227.863
227.649
60.1386
105.826
103.633
20.82
106.071
103.766
372.972
372.97
375.248
375.162
20.8119
106.112
103.853
105.984
103.432
372.998
372.957
25.332
20.2846
51.4331
20.3898
25.2925
20.2845
51.6264
57.5149
224.575
57.3444
224.668
57.5145
224.69
57.3709
224.687
25.29
20.39
20.2827
51.6396
20.2839
51.3865
25.3423
25.2962
20.3915
20.2831
51.6196
20.2835
51.4669
25.3308
57.3773
224.812
224.583
57.5203
57.4018
224.71
224.664
57.482
375.139
375.304
372.971
373.031
20.8232
106.144
103.955
105.62
103.613
375.32
375.147
373.003
373.003
372.97
372.983
375.269
375.342
103.667
105.907
20.8148
103.894
106.214
373.01
372.945
375.295
375.235
20.8071
103.869
106.175
103.7
105.938
57.5101
224.669
57.3844
224.675
25.3177
51.4798
20.2853
20.3932
25.289
51.6448
20.2852
25.3383
51.469
20.2852
20.3925
25.3053
51.6632
20.2851
57.2393
224.688
224.369
57.4708
57.3742
224.685
224.67
57.5287
25.2796
20.3921
51.6445
20.2837
51.493
20.2841
25.3337
25.2998
20.3912
51.6183
20.2836
51.5016
20.2839
25.3449
103.646
105.785
20.8181
103.89
106.067
375.186
375.227
373.021
372.944
20.8095
103.903
106.058
103.703
105.785
375.309
375.201
25.9914
53.0851
20.2942
20.4112
25.9013
53.3292
20.2941
60.1491
227.648
59.8594
227.735
25.9965
20.2948
53.1102
20.4141
25.9086
20.2947
53.3727
59.879
227.874
227.384
60.1654
25.8994
20.41
53.341
20.2926
53.083
20.2929
26
59.867
227.804
227.618
60.142
25.9025
20.4132
20.2932
53.3663
20.2935
53.1291
26.0034
60.1476
227.616
59.8505
227.846
25.9932
20.2948
53.084
20.4169
25.9018
20.2948
53.3675
60.1464
227.644
59.858
227.888
25.8986
20.4121
53.3845
20.2923
53.0576
20.2937
26.004
59.8622
227.842
227.648
60.1332
25.8969
20.4156
20.2932
53.378
20.2935
53.1154
25.999
59.8636
227.863
227.672
60.1382
105.84
103.637
20.8203
106.086
103.769
372.992
372.974
375.265
375.182
20.8121
106.105
103.852
105.999
103.436
373
372.957
25.3291
20.2847
51.4596
20.3907
25.2887
20.2845
51.6311
57.4979
224.705
57.38
224.701
57.4952
224.665
57.3463
224.682
25.2893
20.39
20.2827
51.6599
20.2839
51.4079
25.3353
25.292
20.3888
20.2829
51.5916
20.2832
51.4657
25.3298
57.3783
224.813
224.567
57.4547
57.3872
224.71
224.665
57.4728
375.175
375.3
372.994
373.032
20.8178
106.132
103.835
105.703
103.543
375.301
375.225
372.995
372.997
372.96
372.982
375.27
375.345
103.676
105.909
20.8147
103.891
106.208
373.019
372.945
375.309
375.236
20.8071
103.86
106.174
103.692
105.931
57.5146
224.67
57.3892
224.693
25.3256
51.4825
20.2854
20.3931
25.2943
51.6423
20.2853
25.3392
51.4734
20.2853
20.392
25.3063
51.6665
20.2852
57.2855
224.685
224.368
57.4908
57.3793
224.85
224.602
57.5253
25.2859
20.3921
51.6377
20.2836
51.4897
20.2841
25.333
25.3005
20.3913
51.6352
20.2836
51.505
20.2839
25.3441
103.726
105.764
20.8155
103.909
106.071
375.188
375.23
373.034
372.939
20.8087
103.821
106.058
103.618
105.824
375.237
375.242
25.9913
53.0851
20.2942
20.4112
25.9013
53.3281
20.2941
60.1476
227.593
59.8591
227.841
25.9963
20.2948
53.1077
20.4141
25.9086
20.2948
53.3834
59.8797
227.872
227.384
60.1641
25.8993
20.41
53.3382
20.2926
53.0821
20.2929
25.9996
59.8671
227.806
227.643
60.1391
25.9023
20.4132
20.2932
53.3687
20.2935
53.1382
26.0029
60.1459
227.62
59.8504
227.838
25.9926
20.2947
53.1109
20.4163
25.9017
20.2947
53.3567
60.1437
227.643
59.8575
227.874
25.8983
20.4118
53.3735
20.2923
53.041
20.2936
26.0036
59.8621
227.825
227.639
60.1313
25.8964
20.4132
20.2932
53.3457
20.2933
53.0995
25.9986
59.8626
227.856
227.66
60.1362
105.835
103.634
20.8201
106.105
103.765
372.98
372.973
375.272
375.169
20.812
106.104
103.852
105.998
103.432
373.003
372.965
25.328
20.2846
51.4292
20.3898
25.2876
20.2845
51.6314
57.4719
224.717
57.3215
224.694
57.493
224.668
57.3388
224.689
25.2809
20.3901
20.2827
51.6522
20.2839
51.4138
25.3382
25.289
20.3916
20.2831
51.6174
20.2834
51.4687
25.3336
57.333
224.683
224.691
57.4772
57.3586
224.708
224.671
57.5071
375.168
375.267
372.995
373.001
20.8232
106.144
103.951
105.618
103.611
375.337
375.171
373.013
373.005
372.973
373.021
375.268
375.38
103.665
105.905
20.8144
103.899
106.216
373.082
372.973
375.383
375.249
20.8075
103.879
106.177
103.699
105.936
57.5121
224.705
57.3895
224.673
25.3269
51.4777
20.2853
20.3931
25.2938
51.6376
20.2852
25.3391
51.48
20.2853
20.3923
25.3057
51.6553
20.2852
57.328
224.648
224.406
57.3759
57.3798
224.64
224.655
57.5139
25.2859
20.3921
51.6267
20.2836
51.4881
20.2841
25.3273
25.3002
20.3912
51.5932
20.2836
51.497
20.284
25.3438
103.631
105.782
20.8177
103.889
106.073
375.187
375.261
373.07
372.966
20.8099
103.913
106.053
103.701
105.787
375.302
375.228
25.991
53.0835
20.2941
20.4112
25.9009
53.3239
20.2941
60.1453
227.654
59.8589
227.718
25.9958
20.2948
53.1057
20.414
25.908
20.2947
53.3646
59.8801
227.655
227.417
60.1696
25.8985
20.41
53.327
20.2926
53.0799
20.2929
25.9994
59.8672
227.714
227.603
60.1381
25.9013
20.4132
20.2932
53.356
20.2934
53.1233
26.0028
60.1454
227.62
59.8515
227.822
25.9926
20.2948
53.0824
20.4169
25.9014
20.2948
53.3617
60.1434
227.648
59.8587
227.854
25.8977
20.4123
53.3775
20.2923
53.0537
20.2936
26.0042
59.864
227.758
227.662
60.1318
25.8958
20.4157
20.2932
53.3677
20.2935
53.1112
25.9985
59.8644
227.783
227.684
60.1347
105.829
103.631
20.82
106.087
103.762
372.976
373.01
375.403
375.15
20.8123
106.103
103.853
105.973
103.432
373.057
372.946
25.3319
20.2847
51.4586
20.3907
25.2916
20.2845
51.6237
57.5109
224.616
57.3457
224.675
57.5149
224.673
57.3751
224.672
25.2937
20.3901
20.2828
51.6556
20.284
51.4065
25.3391
25.294
20.3888
20.2829
51.5879
20.2832
51.4593
25.3331
57.3789
224.758
224.586
57.507
57.3837
224.778
224.621
57.5076
375.176
375.304
372.991
373.067
20.8181
106.131
103.889
105.701
103.55
375.39
375.151
373.072
373.019
372.979
373.042
375.24
375.451
103.687
105.904
20.8135
103.914
106.219
372.967
372.929
375.31
375.288
20.8083
103.889
106.183
103.723
105.949
57.4808
224.631
57.3791
224.51
25.3128
51.4758
20.2853
20.393
25.2844
51.62
20.2852
25.3335
51.4731
20.2853
20.392
25.3033
51.6298
20.2852
57.2967
224.371
224.375
57.3563
57.3784
224.437
224.494
57.4486
25.278
20.3922
51.6402
20.2839
51.4729
20.2843
25.3232
25.2981
20.3914
51.6184
20.2839
51.47
20.2842
25.3355
103.734
105.758
20.814
103.867
106.081
375.212
375.364
373.034
372.809
20.8097
103.843
106.046
103.557
105.827
375.232
375.212
25.9902
53.0704
20.2942
20.4111
25.8992
53.3062
20.2941
60.1379
227.71
59.8593
227.551
25.9953
20.2948
53.0963
20.4139
25.9067
20.2947
53.3483
59.8738
227.406
227.431
60.1913
25.8954
20.41
53.2937
20.2927
53.0547
20.2931
25.9973
59.8591
227.522
227.56
60.122
25.8982
20.4132
20.2934
53.3227
20.2936
53.0949
25.9998
60.1354
227.66
59.8517
227.624
25.9912
20.2947
53.1011
20.416
25.8996
20.2947
53.3387
60.1336
227.709
59.8574
227.654
25.8931
20.4118
53.368
20.2925
53.0164
20.2937
25.999
59.8524
227.493
227.661
60.1149
25.8914
20.4133
20.2933
53.3157
20.2934
53.0732
25.9945
59.8519
227.522
227.634
60.1204
105.833
103.625
20.8189
106.107
103.782
373.004
373.033
375.325
375.072
20.8131
106.088
103.87
105.958
103.465
372.964
372.948
25.3296
20.2847
51.4304
20.3896
25.2897
20.2846
51.604
57.4826
224.681
57.3769
224.501
57.4978
224.663
57.3762
224.517
25.2914
20.3905
20.2832
51.5885
20.2842
51.4113
25.32
25.2953
20.3918
20.2833
51.6067
20.2837
51.4406
25.3226
57.4027
224.46
224.545
57.3807
57.3834
224.351
224.527
57.4413
375.229
375.375
373.001
373.08
20.8232
106.079
103.998
105.619
103.622
375.261
375.227
372.941
373.014
372.828
372.433
375.155
374.783
103.736
105.938
20.8101
103.806
106.073
370.323
372.439
372.907
374.824
20.8089
103.243
105.589
103.709
105.973
57.3448
224.493
57.3364
223.968
25.3027
51.4666
20.2863
20.3933
25.2745
51.5919
20.2864
25.3169
51.4502
20.2862
20.3927
25.2877
51.6093
20.2864
57.2616
222.794
224.329
57.4185
57.3077
222.842
224.479
57.4057
25.2631
20.3931
51.0784
20.2902
51.4119
20.2881
25.338
25.2711
20.3923
51.0688
20.2901
51.4152
20.288
25.3532
103.704
105.8
20.8131
103.805
105.933
375.098
374.756
370.349
372.382
20.8111
103.272
105.495
103.727
105.85
372.836
374.78
25.9698
53.0316
20.2949
20.411
25.8932
53.2865
20.295
60.0395
227.552
59.8398
227.044
25.983
20.2956
53.0625
20.414
25.8997
20.2956
53.3282
59.7932
226.046
227.373
59.809
25.8674
20.4098
53.0941
20.2995
52.9777
20.2965
25.9216
59.8456
226.13
227.513
59.7652
25.8803
20.4129
20.3001
53.1185
20.2971
53.0145
25.9282
60.0553
227.529
59.8313
227.026
25.9788
20.2955
53.0455
20.4168
25.8915
20.2956
53.3198
60.0596
227.534
59.8366
227.008
25.8755
20.4115
53.1231
20.2998
52.9614
20.2968
25.9388
59.8448
226.088
227.505
59.7898
25.8744
20.4154
20.3001
53.1009
20.2971
53.0153
25.9284
59.8349
226.099
227.472
59.8054
105.855
103.734
20.8152
106.01
103.687
372.851
372.45
372.838
374.684
20.8133
105.636
103.251
105.94
103.428
370.344
372.475
25.3145
20.2857
51.4775
20.3907
25.2747
20.2858
51.5467
57.3361
224.516
57.3446
223.964
57.3478
224.433
57.3465
223.948
25.2592
20.3906
20.2895
51.0452
20.2875
51.3516
25.3534
25.2682
20.3901
20.2894
51.0185
20.2873
51.3713
25.3634
57.2978
222.83
224.478
57.3936
57.3134
222.84
224.458
57.4076
375.142
374.73
372.849
372.498
20.8188
105.41
103.28
105.783
103.683
372.794
374.738
370.347
372.503
372.188
370.42
373.384
370.514
103.721
105.494
20.8388
105.408
105.951
600.996
377.058
601.117
377.255
20.9412
139.633
140.391
107.91
108.416
61.4709
226.416
59.1833
226.968
26.7586
51.8713
20.301
20.4237
25.642
55.3314
20.361
26.7639
51.875
20.3008
20.4221
25.6393
55.3559
20.3606
63.1829
984.87
233.354
76.8944
63.0917
984.974
233.49
76.8562
26.8507
20.6047
218.771
20.8585
54.9088
20.371
30.4246
26.8508
20.6034
218.672
20.8575
54.9209
20.3704
30.4226
103.775
105.342
20.8375
105.526
105.963
373.35
370.513
600.892
377.076
20.9456
140.031
142.314
107.993
108.015
600.733
377.241
26.5141
52.7261
20.3027
20.4061
25.8021
55.247
20.3486
61.1124
227.882
59.5222
227.332
26.5115
20.3034
52.7568
20.407
25.8133
20.3498
55.2887
62.9312
984.828
233.602
76.8028
26.6299
20.5786
218.697
20.8499
54.851
20.3631
30.2876
62.9721
984.967
233.734
76.7354
26.6309
20.5862
20.8492
218.776
20.3623
54.883
30.2896
61.1678
227.859
59.516
227.318
26.5328
20.3032
52.7248
20.4105
25.8053
20.3498
55.254
61.2463
227.864
59.5136
227.309
26.6303
20.5743
218.642
20.851
54.8234
20.3632
30.2904
62.9045
984.887
233.704
76.7183
26.6323
20.5861
20.8495
218.877
20.3622
54.8459
30.284
62.8981
984.968
233.695
76.742
105.483
103.716
20.8434
105.905
105.473
372.214
370.468
600.955
377.25
20.9457
140.181
139.949
108.497
107.799
601.067
377.167
26.7724
20.3007
51.8035
20.4205
25.6376
20.3605
55.3166
61.4091
226.418
59.2107
226.985
61.473
226.423
59.1866
226.971
26.8511
20.6009
20.8599
218.813
20.3734
54.8874
30.4298
26.8505
20.5982
20.8587
218.8
20.3723
54.8808
30.4235
63.1647
984.946
233.504
76.8347
63.0961
985.072
233.487
76.8589
373.319
370.508
372.237
370.507
20.9471
140.054
140.16
108.415
107.785
601.089
377.242
601.024
377.156
1757.21
581.418
1757.32
581.285
311.285
312.302
23.1889
349.396
349.43
23.9684
313.1
313.036
113.673
1696.31
137.133
446.435
43.6599
247.182
20.7619
21.8173
38.502
228.129
21.1238
43.6623
247.087
20.7598
21.7983
38.45
227.997
21.1237
37.8818
22.3459
216.433
21.2976
37.8929
22.3283
216.334
21.2982
312.141
312.318
23.1115
349.527
349.361
1757.58
580.8
23.9028
313.02
312.756
43.6154
247.192
20.7571
21.7953
38.3444
228.096
21.119
113.48
1696.66
137.303
446.45
43.6139
20.7556
247.206
21.8098
38.3999
21.12
228.017
37.8816
22.2938
216.44
21.2966
37.8615
22.341
21.2954
216.283
20.7834
20.6346
20.6365
21.0501
20.5505
20.8802
20.8827
20.7826
20.6342
20.6332
21.052
20.5502
20.882
20.8788
20.7833
20.6336
20.6332
21.0528
20.55
20.8815
20.8793
20.7925
21.2621
20.9286
20.9331
20.7929
21.2684
20.9282
20.928
20.7921
21.2613
20.9297
20.9303
20.7929
21.2501
20.9277
20.9266
111.615
1696.68
137.225
446.405
43.4933
20.7539
247.326
21.8159
38.3321
21.1201
228.18
111.69
1696.72
136.892
446.609
38.23
22.3099
216.161
21.2955
38.228
22.3465
21.2967
216.47
312.153
311.415
23.1922
349.474
349.282
1757.32
580.78
23.9739
312.981
312.859
43.6523
20.7623
247.29
21.7974
38.45
21.1218
228.234
113.528
1696.44
137.41
446.525
113.673
1696.43
137.14
446.671
37.877
22.2989
21.2967
216.38
37.8871
22.2942
21.2978
216.511
1757.17
581.469
1757.28
581.47
23.9711
313.151
313.213
541.905
541.686
105.181
436.533
105.154
436.324
541.434
541.369
105.104
436.417
105.089
436.377
106.427
436.233
106.495
436.47
541.463
541.499
105.15
436.424
105.141
436.662
541.793
541.803
374.851
384.42
383.893
161.967
235.042
34.1619
66.173
235.555
33.9215
65.7557
272.378
57.5605
242.184
67.9558
242.074
67.8353
272.032
399.422
114.307
224.241
399.428
113.894
272.333
57.5655
242.143
67.9799
272.097
241.787
67.877
399.41
114.004
224.457
113.92
399.349
372.771
372.971
276.137
59.9119
70.7787
246.214
70.4958
246.035
275.833
402.984
117.139
227.366
402.986
116.905
276.175
60.0843
70.4038
246.187
275.923
70.7019
245.954
402.974
117.194
227.391
116.901
402.945
375.029
375.135
162.932
383.946
384.021
384.856
383.57
162.825
66.2466
34.3022
235.883
105.578
66.2623
34.284
235.258
66.4949
33.8366
236.228
104.169
65.9884
33.9019
235.575
163.086
385.114
384.133
162.329
384.804
382.953
65.9655
235.782
105.573
34.4787
34.2771
235.59
66.3849
66.1156
235.27
104.26
33.9877
33.9028
235.489
66.0647
272.021
57.4309
241.837
67.6286
241.782
67.564
271.624
399.147
113.555
224.233
399.211
113.221
272.101
57.5017
242.152
67.7888
272.113
241.69
67.6606
399.146
113.283
224.357
113.208
399.045
372.703
372.885
276.182
59.917
70.8106
246.217
70.5438
246.029
275.878
403.052
117.428
227.331
403.069
117.145
276.251
60.1284
70.5453
246.266
276.021
70.786
245.931
403.043
117.413
227.347
117.138
403.006
374.926
375.06
163.007
384.93
384.184
384.82
384.194
162.668
66.8301
34.4028
236.03
105.766
66.5292
34.4697
235.701
66.218
33.9071
235.811
103.616
65.9595
33.866
235.643
163.257
384.678
384.261
162.993
384.522
383.962
66.5387
235.903
105.751
34.4929
34.3592
235.703
66.7728
65.9565
236.023
103.609
33.8857
33.7884
235.816
66.1627