/*--------------------------------*- C++ -*----------------------------------*\
| =========                 |                                                 |
| \\      /  F ield         | OpenFOAM: The Open Source CFD Toolbox           |
|  \\    /   O peration     | Version:  2206                                  |
|   \\  /    A nd           | Website:  www.openfoam.com                      |
|    \\/     M anipulation  |                                                 |
\*---------------------------------------------------------------------------*/
FoamFile
{
    version     2.0;
    format      ascii;
    arch        "LSB;label=32;scalar=64";
    class       volScalarField;
    location    "0.1";
    object      omega;
}
// * * * * * * * * * * * * * * * * * * * * * * * * * * * * * * * * * * * * * //

dimensions      [0 0 -1 0 0 0 0];

internalField   nonuniform List<scalar> 
66701
(
338.732
369.651
193.531
95.1414
241.707
49.4013
57.1915
212.775
369.531
193.4
95.1311
241.795
49.3861
212.754
57.2043
338.905
732.95
1629.99
4418.74
16452.1
116912
731.073
1628.64
4415.98
16442.1
116840
744.875
1632.14
4420.93
16449.1
116803
744.874
1632.12
4420.91
16449.3
116814
732.989
1629.95
4418.43
16449.8
116892
731.008
1628.64
4416.03
16442.3
116852
738.085
1630.64
4417.13
16437.8
116752
738.65
1629.43
4414.9
16432.6
116727
738.092
1630.64
4417.11
16437.1
116748
738.644
1629.42
4414.85
16432.4
116725
339.047
339.244
20.8788
85.6022
86.2076
193.861
20.6265
43.6476
49.4342
193.762
24.3935
20.6445
44.0868
20.5775
49.42
193.777
24.3935
20.6463
20.5782
44.1201
339.292
20.8806
86.1546
338.903
136.724
351.881
352.72
136.449
351.772
352.648
54.3323
199.108
30.1124
85.1971
54.1403
199.133
30.0929
54.7107
201.456
30.3422
86.3445
54.4918
201.447
30.4183
241.801
57.2317
212.966
49.6111
241.558
57.4342
212.869
369.732
95.3838
193.717
369.62
95.3369
241.958
212.98
57.2589
49.5977
241.727
212.867
57.4568
369.487
95.4238
193.477
369.536
95.3653
339.162
137.054
352.592
351.696
54.8535
30.3521
86.3068
30.4248
201.605
54.4269
84.422
199.102
30.0814
336.798
20.5598
20.5557
20.5556
20.5521
20.5611
20.5563
20.5576
20.5506
20.5566
20.5508
20.5569
20.5506
28.0075
20.8806
22.3464
22.3958
27.9291
22.3683
22.4209
21.7464
29.8961
23.9004
43.1928
23.8168
21.8085
29.6949
21.2184
25.5945
21.0299
24.4508
21.2065
25.6599
21.0356
21.8657
30.2518
24.0177
44.2344
24.0579
21.8458
30.3426
21.219
21.0301
25.5992
24.4495
21.207
21.0358
25.6632
21.8683
30.2595
24.0271
44.2671
21.8478
30.3478
24.0679
28.0876
20.884
22.4154
22.4338
22.3688
733.225
1630.04
4418.72
16451.8
116912
733.051
1629.94
4418.7
16452.1
116912
745.125
1632.22
4421.05
16449.9
116814
744.904
1632.07
4420.89
16449.1
116803
744.918
1632.06
4420.88
16449.3
116814
733.063
1629.88
4418.38
16449.8
116892
732.863
1629.86
4418.56
16451.9
116912
737.974
1630.49
4416.97
16437.7
116752
738.705
1629.39
4414.88
16432.6
116727
738.087
1630.61
4417.09
16437.8
116752
738.516
1629.34
4414.77
16432.5
116727
744.642
1631.93
4420.69
16448.9
116803
737.986
1630.48
4416.95
16437
116748
738.707
1629.38
4414.82
16432.4
116725
738.107
1630.61
4417.07
16437.1
116748
738.516
1629.32
4414.71
16432.3
116725
744.636
1631.91
4420.67
16449.1
116814
732.898
1629.82
4418.24
16449.6
116892
743.905
1631.79
4419.86
16444.7
116759
733.164
1629.75
4418.09
16449.1
116881
732.339
1631.26
4420.55
16453.9
116901
744.025
1632
4420.26
16445.2
116776
743.939
1631.92
4420.12
16445
116776
732.338
1631.27
4420.57
16455.1
116921
743.904
1632.04
4420.32
16447.2
116795
743.808
1631.96
4420.17
16447
116795
732.26
1631.19
4420.4
16453.7
116901
732.251
1631.21
4420.43
16454.9
116921
730.922
1628.43
4415.76
16441.9
116840
731.05
1628.58
4415.93
16442.1
116840
730.87
1628.43
4415.8
16442.1
116852
731.057
1628.59
4415.97
16442.3
116852
743.762
1631.86
4420
16445.7
116778
732.249
1631.17
4420.67
16455.9
116918
732.24
1631.15
4420.56
16455
116904
20.6463
20.8927
20.5596
20.6361
20.6317
20.8785
20.5578
20.6365
20.6245
20.8722
20.5578
20.6368
20.6246
20.8717
20.5578
20.6367
20.6246
20.8718
20.5578
20.6369
20.6245
20.8718
20.5578
20.6366
20.6246
20.8718
20.5578
20.6369
20.6245
20.8718
20.5578
20.6365
20.6246
20.8718
20.5578
20.6368
20.6246
20.8718
20.5577
20.6366
20.6246
20.8718
20.5578
20.6368
20.6246
20.8718
20.5578
20.6366
20.6246
20.8719
20.5578
20.6369
20.6246
20.8717
20.5578
20.6366
20.6244
20.8719
20.5578
20.6369
20.6246
20.8717
20.5583
20.6207
20.6221
20.8504
20.8767
20.892
20.6477
20.6421
20.6266
20.8828
20.8886
20.877
20.6325
20.6254
20.6269
20.6251
20.8715
20.8734
20.6524
20.6536
20.6373
20.6385
20.6366
20.6367
20.6377
20.89
20.8767
20.6268
20.6251
20.6237
20.8759
20.8768
20.8747
20.628
20.6266
20.626
20.6257
20.8731
20.8778
20.6382
20.6395
20.6361
20.6375
20.6397
20.637
20.6379
20.8765
20.8748
20.6251
20.625
20.6239
20.875
20.8744
20.8747
20.6274
20.6271
20.6261
20.6255
20.8769
20.8749
20.6374
20.6388
20.6362
20.6373
20.6392
20.6369
20.6378
20.8743
20.8746
20.6253
20.6251
20.6239
20.875
20.8744
20.8747
20.6275
20.6269
20.6261
20.6257
20.8746
20.8779
20.6376
20.6387
20.6362
20.6374
20.6392
20.6372
20.6379
20.8742
20.8745
20.6252
20.6248
20.6238
20.8751
20.8744
20.8747
20.6275
20.6271
20.6261
20.6254
20.8769
20.8748
20.6375
20.6388
20.6362
20.6374
20.6392
20.6367
20.6379
20.8741
20.8746
20.6252
20.625
20.6238
20.8751
20.8745
20.8747
20.6275
20.6268
20.6261
20.6257
20.8745
20.8779
20.6375
20.6387
20.6362
20.6373
20.6393
20.6372
20.638
20.8743
20.8746
20.6252
20.6248
20.6238
20.8751
20.8744
20.8748
20.6275
20.6271
20.6261
20.6254
20.8769
20.8747
20.6376
20.6387
20.6362
20.6374
20.6393
20.6367
20.6379
20.8742
20.8746
20.6252
20.6249
20.6238
20.8751
20.8744
20.8747
20.6275
20.6268
20.6261
20.6257
20.8745
20.8778
20.6376
20.6388
20.6362
20.6373
20.6393
20.6372
20.6379
20.8742
20.8745
20.6252
20.6249
20.6238
20.8751
20.8744
20.8748
20.6275
20.6271
20.6261
20.6255
20.877
20.8752
20.6376
20.6387
20.6362
20.6374
20.6392
20.6369
20.6379
20.8742
20.8746
20.6252
20.6249
20.6239
20.8751
20.8745
20.8747
20.6275
20.6268
20.6261
20.6257
20.875
20.8778
20.6376
20.6388
20.6361
20.6374
20.6393
20.6371
20.638
20.8742
20.8746
20.6252
20.6249
20.6238
20.8751
20.8744
20.8747
20.6275
20.6271
20.6261
20.6254
20.8768
20.8748
20.6375
20.6387
20.6361
20.6374
20.6393
20.6367
20.6379
20.8742
20.8746
20.6252
20.6249
20.6239
20.8752
20.8744
20.8747
20.6275
20.6268
20.6261
20.6257
20.8745
20.8778
20.6375
20.6387
20.6361
20.6374
20.6393
20.6372
20.6379
20.8742
20.8746
20.6252
20.6251
20.6238
20.875
20.8744
20.8747
20.6275
20.6271
20.6261
20.6255
20.8768
20.8747
20.6375
20.6388
20.6362
20.6373
20.6393
20.6367
20.6379
20.8742
20.8745
20.6252
20.6246
20.6238
20.8752
20.8744
20.8747
20.6275
20.6268
20.6262
20.6258
20.8745
20.8777
20.6375
20.6387
20.6362
20.6374
20.6392
20.6372
20.6379
20.8741
20.8746
20.6252
20.625
20.6238
20.8749
20.8745
20.8796
20.6275
20.6271
20.6503
20.6498
20.8773
20.8799
20.6375
20.6387
20.6313
20.632
20.6392
20.6345
20.6325
20.8743
20.8725
20.6252
20.6228
20.6213
20.8709
20.6494
20.8798
20.6325
20.6335
20.6338
20.8513
20.623
337.214
335.459
23.8649
20.5954
41.8717
20.643
41.9024
23.8638
20.588
85.216
83.6391
20.8846
83.9329
85.8856
47.3602
190.953
190.765
47.3548
336.927
336.679
49.6224
193.771
193.705
49.6708
20.5585
20.5596
20.5585
20.5581
20.558
20.5583
20.5581
24.3807
43.9942
20.5739
20.6375
44.0538
20.5758
24.3071
339.275
339.225
23.8958
20.5698
42.7867
20.6289
23.8962
20.5711
42.7723
86.1262
84.2863
20.874
86.0857
84.1947
47.3166
191.023
47.3275
190.807
336.868
336.646
49.4472
193.787
49.255
193.662
20.5599
20.5601
20.5599
20.5581
20.5583
20.5583
20.5583
24.3667
44.0027
20.574
20.6378
24.3036
44.0392
20.5759
339.301
339.144
23.8933
20.5693
42.7496
20.6259
23.9001
20.5712
42.722
86.1138
84.2411
20.8709
86.0551
84.1765
47.3204
191.057
47.3495
190.807
336.931
336.677
49.4554
193.79
49.2318
193.664
20.56
20.56
20.56
20.558
20.5582
20.5582
20.5581
24.3698
44.0212
20.5741
20.6382
24.3081
44.0764
20.5759
339.366
339.156
23.8941
20.5693
42.7343
20.6259
23.8936
20.5711
42.716
86.0843
84.2644
20.8708
86.0499
84.1965
47.3186
191.059
47.3432
190.813
336.885
336.662
49.4558
193.791
49.2327
193.663
20.5599
20.5599
20.5598
20.5581
20.5582
20.5582
20.5581
24.3698
44.015
20.5741
20.638
24.3087
44.0619
20.5759
339.293
339.138
23.8897
20.5693
42.7333
20.6259
23.8944
20.5711
42.7149
86.1006
84.2354
20.871
86.0559
84.1637
47.3156
191.007
47.3474
190.779
336.913
336.673
49.4556
193.79
49.2327
193.663
20.5599
20.5599
20.5598
20.5581
20.5581
20.5582
20.5581
24.3697
44.0257
20.5741
20.6382
24.3084
44.0714
20.5759
339.292
339.146
23.8946
20.5693
42.7298
20.6259
23.8956
20.5711
42.7132
86.0993
84.2401
20.8709
86.0618
84.18
47.3151
191.056
47.3221
190.821
336.891
336.658
49.4556
193.791
49.2324
193.663
20.5599
20.5599
20.5598
20.5581
20.5582
20.5582
20.5581
24.3699
44.0134
20.5741
20.6379
24.3087
44.0617
20.5759
339.282
339.138
23.8894
20.5693
42.7317
20.6259
23.8939
20.5711
42.7144
86.0948
84.2373
20.871
86.0479
84.1694
47.3206
191.003
47.3312
190.786
336.901
336.662
49.4558
193.79
49.2328
193.661
20.5599
20.5599
20.5599
20.5582
20.5581
20.5582
20.5581
24.3698
44.0228
20.5741
20.6382
24.3084
44.073
20.5759
339.284
339.139
23.895
20.5693
42.7307
20.6259
23.8956
20.5711
42.7213
86.0935
84.2407
20.871
86.0546
84.1801
47.3179
190.998
47.3219
190.789
336.868
336.651
49.4552
193.792
49.2324
193.663
20.5599
20.5599
20.5598
20.5582
20.5582
20.5582
20.5581
24.3698
44.0135
20.5741
20.6379
24.3086
44.0614
20.5759
339.284
339.138
23.8897
20.5693
42.7302
20.626
23.8943
20.5712
42.7148
86.0948
84.2369
20.871
86.0476
84.169
47.3181
191.067
47.3234
190.818
336.894
336.661
49.4557
193.79
49.2326
193.664
20.5599
20.5599
20.5598
20.558
20.5582
20.5582
20.5581
24.3697
44.0224
20.5741
20.6382
24.3084
44.0705
20.576
339.282
339.134
23.8913
20.5693
42.7322
20.6259
23.8965
20.5712
42.7153
86.0938
84.2402
20.871
86.0505
84.1822
47.3237
191.072
47.3505
190.821
336.875
336.646
49.4552
193.792
49.2322
193.663
20.5599
20.5599
20.5598
20.5582
20.5582
20.5582
20.5581
24.3698
44.0134
20.5741
20.6379
24.3087
44.0613
20.5759
339.293
339.146
23.8913
20.5694
42.7328
20.6259
23.8966
20.5712
42.716
86.0985
84.2379
20.871
86.0609
84.1692
47.3209
191.015
47.3491
190.793
336.865
336.649
49.4557
193.79
49.2324
193.664
20.5599
20.5599
20.5598
20.5581
20.5581
20.5582
20.5581
24.3698
44.0224
20.5741
20.6381
24.3084
44.0704
20.576
339.285
339.142
23.8901
20.5693
42.7305
20.6259
23.8943
20.5711
42.7212
86.101
84.2402
20.871
86.0579
84.1801
47.3197
191.019
47.3502
190.796
336.875
336.646
49.4551
193.791
49.2321
193.663
20.5599
20.5599
20.5598
20.558
20.5582
20.5582
20.5581
24.3706
44.0134
20.5741
20.6379
24.3087
44.0614
20.576
339.283
339.137
23.8901
20.5693
42.7296
20.6259
23.8944
20.5711
42.7146
86.0947
84.2663
20.871
86.0507
84.1864
47.3171
191.014
47.3242
190.782
336.868
336.648
49.4557
193.825
49.2326
193.672
20.5599
20.5599
20.5599
20.5582
20.5581
20.5581
20.5581
24.3697
44.0221
20.5741
20.6382
24.3083
44.0731
20.5759
339.285
339.142
23.8895
20.5693
42.7312
20.6259
23.894
20.5711
42.7141
86.0954
84.233
20.8709
86.0516
84.1766
47.3269
191.058
47.3301
190.83
336.869
336.648
49.4514
193.792
49.2331
193.677
20.5599
20.5599
20.5599
20.5581
20.5582
20.5582
20.5581
24.3707
44.0132
20.5741
20.6379
24.3087
44.0617
20.576
339.283
339.133
23.8897
20.5693
42.7315
20.6258
23.894
20.5711
42.7137
86.0948
84.2362
20.871
86.0533
84.1689
47.8049
191.078
47.3628
190.617
336.904
336.604
49.4555
193.775
49.2316
193.658
20.5599
20.5599
20.5599
20.5587
20.559
20.5578
20.5577
24.3697
44.0218
20.5742
20.6382
24.3083
44.074
20.5759
339.272
339.155
23.8891
20.5693
42.7316
20.6259
23.8935
20.5711
42.7178
86.0897
84.2395
20.8707
86.0467
84.1813
339.106
192.441
48.5248
20.5606
20.5595
20.5595
43.1594
20.5687
24.0883
337.854
20.5686
42.2503
23.8939
85.3417
83.7216
84.2107
82.9739
20.8435
82.587
83.4533
335.042
335.025
339.221
336.744
20.8587
86.1289
84.1233
82.5362
84.3315
336.635
334.93
23.863
20.5952
42.3249
20.6408
42.4723
23.8626
20.5879
47.1938
188.78
189.16
47.1067
47.1798
190.259
190.637
47.1014
23.8609
20.6406
20.572
42.8188
41.8517
23.904
20.5766
23.8559
20.631
20.5717
42.6756
42.3893
23.9007
20.5759
47.1045
190.77
188.976
47.3529
47.0916
190.828
190.471
47.3777
338.597
338.986
336.25
336.487
20.8801
86.172
84.3683
83.6587
85.7161
339.144
338.797
336.706
336.378
336.928
336.689
339.279
339.156
84.1993
86.142
20.8818
84.2137
86.1409
336.75
336.646
339.251
339.122
20.8791
84.2807
86.2212
84.0576
85.9249
47.3095
191.112
190.865
47.319
23.8986
42.7849
20.5706
20.63
42.7519
20.5716
23.8739
23.8904
42.718
20.5703
20.6261
42.713
20.5713
23.8726
47.2849
190.986
190.646
47.3266
47.2127
190.913
190.861
47.3818
23.879
20.6276
42.7097
20.57
42.6383
20.5706
23.9037
23.8723
20.6253
42.7108
20.5699
42.5989
20.5702
23.9092
84.2587
86.0908
20.8706
84.1831
86.0716
339.301
339.103
336.771
336.694
20.8707
84.2612
86.1736
84.0344
85.8483
339.16
339.066
24.4574
44.2523
20.5797
20.6446
44.1615
20.5782
24.4978
49.6344
193.789
193.743
49.5986
24.4559
20.58
44.2815
20.6459
20.5785
44.2085
24.4947
49.3483
193.779
193.507
49.4527
24.3638
20.6389
44.0679
20.5748
43.9465
20.576
24.3745
49.3198
193.861
193.726
49.4081
24.3625
20.6401
20.5752
44.1129
20.5762
43.992
24.3747
49.4682
193.79
193.643
49.2289
24.3783
20.5741
44.0116
20.6379
20.5762
44.0465
24.3075
49.4616
193.731
193.524
49.2208
24.3108
20.6373
44.1232
20.5742
43.8616
20.5755
24.3649
49.2172
193.771
193.459
49.3806
24.3095
20.6377
20.5753
44.0612
20.5758
43.8534
24.3594
49.2196
193.651
193.306
49.3721
85.9167
83.9473
20.8853
86.2748
84.2068
336.633
336.723
339.262
339.091
20.8802
86.2903
84.2654
86.057
84.0356
336.759
336.68
23.9036
20.5723
42.6197
20.6259
23.8748
20.5717
42.6796
47.3795
190.592
47.2713
190.856
47.4138
190.808
47.2839
190.87
23.8825
20.6268
20.5695
42.8213
20.5707
42.6523
23.9116
23.8883
20.6239
20.5695
42.6894
20.57
42.5641
23.9058
47.275
191.069
190.838
47.4101
47.3372
190.911
190.812
47.3934
339.104
339.098
336.622
336.729
20.8739
86.2489
84.2337
85.8603
84.0209
339.101
339.044
336.725
336.705
336.735
336.715
339.173
339.186
84.1195
85.9941
20.8738
84.323
86.2883
336.748
336.649
339.251
339.166
20.8737
84.3108
86.2752
84.1579
86.0575
47.3945
190.888
47.2786
190.885
23.8928
42.6258
20.5717
20.6278
23.8759
42.7649
20.5717
23.9046
42.6289
20.5717
20.6267
23.8841
42.753
20.5716
47.2172
191.056
190.764
47.3963
47.2868
190.927
190.805
47.4065
23.8764
20.6265
42.7344
20.5701
42.6521
20.5707
23.907
23.882
20.6259
42.7379
20.5701
42.6341
20.5707
23.9124
84.1178
85.9243
20.8744
84.3094
86.1742
339.135
339.147
336.869
336.656
20.8747
84.25
86.2564
84.0674
85.9823
339.223
339.096
24.3641
43.8561
20.5763
20.6379
24.3006
44.0856
20.5762
49.4108
193.663
49.1781
193.861
24.363
20.5767
43.9049
20.6392
24.302
20.5765
44.1278
49.203
193.784
193.45
49.4069
24.2992
20.6364
44.0843
20.5743
43.8999
20.5749
24.3614
49.1863
193.908
193.671
49.4067
24.2998
20.6379
20.5747
44.1236
20.5752
43.9341
24.3693
49.4087
193.663
49.1618
193.739
24.3629
20.5769
43.8598
20.6395
24.2917
20.5767
44.0924
49.404
193.457
49.1562
193.725
24.2988
20.6376
44.1229
20.5743
43.8462
20.5756
24.3681
49.1818
193.8
193.577
49.4014
24.2969
20.6381
20.5746
44.0931
20.5752
43.8975
24.3659
49.1797
193.737
193.568
49.4043
86.051
84.0919
20.874
86.2915
84.2683
336.711
336.734
339.447
338.982
20.8737
86.2809
84.2623
86.0664
84.0934
336.736
336.683
23.8996
20.5712
42.625
20.625
23.8785
20.5711
42.6866
47.3634
190.847
47.3061
190.92
47.3776
190.869
47.2915
190.981
23.8795
20.6257
20.5696
42.7915
20.5709
42.6038
23.9057
23.882
20.624
20.5696
42.7041
20.5699
42.5687
23.9028
47.2846
191.029
190.856
47.3479
47.2689
190.97
190.827
47.3894
339.108
339.107
336.641
336.738
20.8713
86.2011
84.3109
85.8267
84.0024
339.133
339.112
336.726
336.678
336.745
336.72
339.14
339.245
84.1486
86.0508
20.8734
84.3427
86.3156
336.75
336.655
339.25
339.132
20.8735
84.316
86.2864
84.1789
86.0811
47.3794
190.898
47.2963
190.89
23.8927
42.6457
20.5717
20.6273
23.8796
42.7709
20.5716
23.9055
42.647
20.5718
20.6269
23.8861
42.7658
20.5716
47.2204
191.058
190.766
47.3714
47.303
190.927
190.824
47.3644
23.8759
20.6262
42.7374
20.57
42.6584
20.5704
23.9063
23.8815
20.6258
42.7384
20.5699
42.6427
20.5703
23.9077
84.087
86.045
20.875
84.3088
86.2164
339.137
339.235
336.792
336.676
20.8742
84.3114
86.2141
84.1456
85.9816
339.179
339.111
24.368
43.8775
20.576
20.6373
24.2959
44.0934
20.576
49.4207
193.702
49.1843
193.832
24.3687
20.5764
43.9225
20.6386
24.3037
20.5763
44.1294
49.2093
193.785
193.452
49.4085
24.3022
20.6363
44.0844
20.5743
43.9054
20.5748
24.3611
49.194
193.82
193.712
49.4078
24.3036
20.6375
20.5747
44.1069
20.575
43.9314
24.3686
49.4158
193.63
49.1778
193.864
24.367
20.5762
43.8892
20.6391
24.2994
20.5761
44.1042
49.4164
193.613
49.1835
193.753
24.3007
20.6378
44.131
20.5742
43.8797
20.5756
24.3686
49.1876
193.828
193.668
49.4041
24.2997
20.6379
20.5747
44.0989
20.575
43.9082
24.3661
49.1899
193.775
193.618
49.4062
86.042
84.0869
20.8734
86.2767
84.2458
336.683
336.718
339.239
339.108
20.8732
86.2428
84.2426
86.0441
84.0709
336.729
336.666
23.9021
20.5713
42.6062
20.6252
23.8763
20.5712
42.7242
47.3808
190.813
47.2444
190.885
47.3995
190.85
47.2858
190.986
23.8805
20.6257
20.5696
42.7878
20.5709
42.599
23.906
23.8845
20.624
20.5696
42.6952
20.5699
42.5992
23.9044
47.2981
191.006
190.833
47.3522
47.2924
190.908
190.816
47.4022
339.089
339.229
336.692
336.733
20.8711
86.2206
84.2337
85.8195
84.0235
339.205
339.058
336.729
336.666
336.722
336.709
339.14
339.247
84.1528
86.0584
20.8735
84.3208
86.3148
336.756
336.656
339.25
339.133
20.8735
84.3171
86.2858
84.1585
86.0805
47.3412
190.896
47.2615
190.89
23.8927
42.6452
20.5717
20.6274
23.879
42.7681
20.5716
23.8996
42.6527
20.5716
20.6268
23.8822
42.7706
20.5715
47.2194
190.953
190.777
47.394
47.2739
190.928
190.849
47.3473
23.8764
20.6263
42.7402
20.57
42.6599
20.5705
23.9065
23.877
20.626
42.7396
20.5699
42.6479
20.5703
23.9059
84.1607
85.9585
20.8748
84.3377
86.2053
339.125
339.241
336.835
336.661
20.8752
84.2437
86.2612
84.0858
86.0105
339.187
339.109
24.3681
43.8776
20.576
20.6375
24.2954
44.0929
20.576
49.4209
193.663
49.1855
193.752
24.3687
20.5764
43.904
20.6386
24.3032
20.5763
44.1218
49.2096
193.783
193.452
49.4084
24.3024
20.6364
44.0848
20.5743
43.9049
20.5749
24.3611
49.1937
193.818
193.69
49.4064
24.3035
20.6376
20.5747
44.1065
20.5752
43.9273
24.3681
49.4163
193.653
49.1803
193.879
24.3668
20.5763
43.8928
20.6391
24.2993
20.5763
44.1098
49.4161
193.593
49.1847
193.842
24.3007
20.6377
44.1309
20.5742
43.866
20.5755
24.3683
49.1876
193.806
193.677
49.403
24.2997
20.638
20.5747
44.1042
20.5751
43.9117
24.3662
49.1896
193.825
193.643
49.4063
86.0045
84.0788
20.8734
86.276
84.2007
336.7
336.715
339.238
339.088
20.8732
86.2387
84.2313
86.0437
84.0305
336.717
336.652
23.8987
20.5713
42.6257
20.6251
23.8773
20.5711
42.681
47.341
190.813
47.2741
190.885
47.368
190.907
47.2956
190.887
23.8769
20.6255
20.5695
42.7797
20.5709
42.5991
23.9064
23.8814
20.624
20.5695
42.6878
20.5699
42.5662
23.903
47.239
190.903
190.876
47.3776
47.2605
190.911
190.888
47.3921
339.067
339.133
336.691
336.73
20.8713
86.2191
84.2344
85.8285
83.9901
339.148
339.078
336.726
336.691
336.72
336.722
339.14
339.246
84.1576
86.0577
20.8735
84.3503
86.3138
336.757
336.666
339.25
339.133
20.8736
84.3254
86.2861
84.1841
86.0796
47.3475
190.9
47.2519
190.894
23.8928
42.6423
20.5717
20.6274
23.8792
42.7721
20.5716
23.8981
42.6478
20.5716
20.6269
23.8812
42.7624
20.5715
47.2377
191.056
190.767
47.3172
47.2427
190.926
190.828
47.3796
23.8756
20.6263
42.7388
20.57
42.6586
20.5705
23.9028
23.8761
20.6257
42.7367
20.5699
42.6416
20.5703
23.9094
84.0807
86.0535
20.875
84.3008
86.2123
339.16
339.158
336.793
336.686
20.8741
84.3075
86.2031
84.1431
85.9795
339.179
339.139
24.368
43.8774
20.576
20.6374
24.2953
44.0928
20.576
49.4205
193.66
49.1843
193.75
24.3687
20.5764
43.9036
20.6387
24.3027
20.5763
44.1216
49.2093
193.785
193.452
49.408
24.3023
20.6364
44.0842
20.5743
43.905
20.5749
24.361
49.1934
193.82
193.688
49.4064
24.3035
20.6376
20.5747
44.1072
20.5751
43.9274
24.368
49.4159
193.702
49.1792
193.782
24.3669
20.5763
43.8967
20.6391
24.2994
20.5763
44.1104
49.4162
193.637
49.1848
193.847
24.3007
20.6378
44.1297
20.5742
43.8757
20.5755
24.3686
49.1876
193.828
193.611
49.404
24.2997
20.6381
20.5747
44.0994
20.5751
43.9124
24.3661
49.1897
193.778
193.676
49.4062
86.0004
84.0695
20.8734
86.2715
84.197
336.69
336.712
339.238
339.018
20.8732
86.2471
84.2317
86.0478
84.0268
336.731
336.635
23.902
20.5712
42.6243
20.6251
23.8766
20.5711
42.6818
47.3847
190.842
47.2723
190.883
47.3915
190.91
47.2878
190.89
23.8806
20.6256
20.5697
42.7858
20.5709
42.5972
23.9057
23.8851
20.624
20.5696
42.687
20.5699
42.5671
23.9014
47.2999
191.007
190.832
47.3495
47.3096
190.907
190.891
47.3611
339.109
339.25
336.692
336.733
20.8713
86.2221
84.2324
85.8316
84.0058
339.13
339.041
336.727
336.694
336.753
336.734
339.14
339.246
84.1628
86.0584
20.8736
84.3519
86.3146
336.76
336.696
339.245
339.133
20.8736
84.3237
86.2867
84.1865
86.0804
47.3682
190.901
47.2758
190.896
23.8937
42.6461
20.5717
20.6274
23.8754
42.7776
20.5716
23.9011
42.6535
20.5716
20.6269
23.8844
42.765
20.5715
47.2362
190.948
190.783
47.3254
47.2593
190.939
190.832
47.3845
23.8767
20.6263
42.7443
20.57
42.6664
20.5705
23.9035
23.8778
20.626
42.7309
20.5699
42.6437
20.5703
23.9101
84.1589
85.9463
20.8747
84.3245
86.2007
339.121
339.236
336.819
336.679
20.8751
84.2316
86.2696
84.0597
86.0096
339.181
339.134
24.3681
43.8774
20.576
20.6374
24.2952
44.0927
20.576
49.4206
193.66
49.1843
193.748
24.3687
20.5764
43.9042
20.6386
24.3027
20.5763
44.1215
49.2095
193.783
193.451
49.4084
24.3023
20.6363
44.0848
20.5743
43.9047
20.5749
24.3611
49.1935
193.82
193.687
49.4066
24.3035
20.6375
20.5747
44.1067
20.5751
43.9271
24.3681
49.4163
193.654
49.1803
193.875
24.3669
20.5763
43.8928
20.6392
24.2993
20.5763
44.1089
49.4164
193.597
49.1848
193.847
24.3007
20.6377
44.1293
20.5742
43.8662
20.5755
24.3683
49.1876
193.748
193.669
49.403
24.2997
20.6381
20.5747
44.1033
20.5751
43.9105
24.3661
49.1898
193.826
193.644
49.4063
86.006
84.0694
20.8735
86.27
84.1979
336.706
336.713
339.241
338.986
20.8733
86.2433
84.2318
86.045
84.028
336.717
336.682
23.9002
20.5713
42.6235
20.6251
23.8744
20.5711
42.6804
47.3409
190.811
47.2713
190.893
47.3833
190.906
47.2583
190.886
23.8768
20.6255
20.5695
42.779
20.5708
42.5988
23.9067
23.8833
20.624
20.5695
42.6876
20.5699
42.5658
23.9039
47.2392
190.89
190.882
47.3799
47.28
190.91
190.888
47.4047
339.078
339.132
336.691
336.73
20.8713
86.2052
84.2353
85.8173
83.9963
339.146
339.075
336.727
336.691
336.733
336.728
339.162
339.185
84.1626
86.0517
20.8735
84.3497
86.3083
336.773
336.682
339.256
339.17
20.8735
84.3219
86.288
84.1865
86.0761
47.3669
190.868
47.2798
190.977
23.8948
42.6438
20.5717
20.6274
23.8762
42.7694
20.5716
23.9009
42.6535
20.5717
20.6269
23.8849
42.7583
20.5716
47.247
190.943
190.71
47.3156
47.2569
191.004
190.771
47.385
23.876
20.6263
42.7401
20.57
42.6616
20.5705
23.9026
23.8784
20.6257
42.7424
20.57
42.6392
20.5703
23.9102
84.0714
86.0333
20.875
84.286
86.2548
339.162
339.163
336.767
336.615
20.8741
84.2994
86.2053
84.1307
86.0149
339.179
339.142
24.3681
43.8773
20.576
20.6374
24.2953
44.0924
20.576
49.4208
193.66
49.1845
193.748
24.3688
20.5764
43.9038
20.6386
24.3027
20.5763
44.1216
49.2095
193.786
193.451
49.4081
24.3024
20.6364
44.0845
20.5743
43.9048
20.5748
24.361
49.1937
193.82
193.688
49.4065
24.3036
20.6376
20.5747
44.1073
20.5751
43.9275
24.3681
49.416
193.655
49.1792
193.772
24.3669
20.5763
43.8965
20.6392
24.2993
20.5763
44.1106
49.4164
193.638
49.1848
193.86
24.3007
20.6378
44.1303
20.5743
43.8775
20.5756
24.3685
49.1877
193.826
193.606
49.404
24.2997
20.6381
20.5747
44.1051
20.5751
43.9122
24.3662
49.1898
193.825
193.651
49.4063
86.0037
84.0698
20.8734
86.2694
84.199
336.692
336.714
339.241
338.987
20.8733
86.2469
84.2302
86.0458
84.0284
336.714
336.657
23.9024
20.5713
42.6243
20.6251
23.8772
20.5711
42.6821
47.3871
190.864
47.2736
191.036
47.3993
190.91
47.2978
190.903
23.8809
20.6256
20.5696
42.7771
20.5709
42.602
23.9059
23.8845
20.6239
20.5695
42.6902
20.5699
42.5669
23.9042
47.3008
190.881
190.794
47.3523
47.2919
190.972
190.86
47.4014
339.109
339.247
336.692
336.73
20.8713
86.2216
84.2325
85.8238
84.0061
339.137
339.046
336.727
336.711
336.739
336.729
339.145
339.25
84.1598
86.0603
20.8735
84.3445
86.3149
336.777
336.709
339.255
339.137
20.8735
84.321
86.2859
84.1803
86.0805
47.3934
190.877
47.2786
190.897
23.8944
42.6381
20.5717
20.6274
23.8751
42.7712
20.5716
23.9053
42.6548
20.5717
20.6268
23.8845
42.7673
20.5716
47.2421
191.068
190.777
47.3186
47.2863
190.927
190.831
47.4028
23.8772
20.6263
42.7396
20.57
42.6573
20.5705
23.9034
23.8829
20.626
42.7387
20.57
42.6455
20.5704
23.9123
84.1533
85.9477
20.8747
84.3312
86.2007
339.123
339.236
336.804
336.671
20.8751
84.2392
86.261
84.081
86.0084
339.182
339.133
24.368
43.8777
20.576
20.6375
24.2952
44.0927
20.5759
49.4206
193.66
49.1844
193.748
24.3687
20.5764
43.9043
20.6387
24.3027
20.5763
44.1215
49.2091
193.782
193.452
49.4079
24.3022
20.6363
44.084
20.5743
43.9047
20.5749
24.361
49.1935
193.82
193.687
49.4065
24.3035
20.6376
20.5747
44.1065
20.5751
43.9271
24.368
49.4161
193.654
49.1802
193.873
24.3669
20.5764
43.8975
20.6392
24.2993
20.5763
44.1093
49.4163
193.637
49.1849
193.854
24.3007
20.6377
44.1279
20.5742
43.8659
20.5755
24.3682
49.1874
193.747
193.667
49.4029
24.2997
20.6381
20.5747
44.103
20.5751
43.9106
24.3661
49.1898
193.826
193.647
49.4062
86.0068
84.0686
20.8734
86.2708
84.1989
336.691
336.707
339.24
338.986
20.8732
86.2435
84.2322
86.0456
84.0301
336.722
336.659
23.8985
20.5713
42.6243
20.6251
23.8771
20.5711
42.6811
47.3414
190.889
47.2743
190.892
47.3668
190.844
47.2946
190.89
23.877
20.6256
20.5697
42.7807
20.5709
42.5989
23.9069
23.881
20.624
20.5695
42.6998
20.5699
42.5664
23.9028
47.2389
190.897
190.872
47.3793
47.259
190.912
190.892
47.3924
339.082
339.132
336.665
336.73
20.8713
86.2057
84.2351
85.8172
83.9959
339.138
339.076
336.727
336.691
336.753
336.742
339.146
339.252
84.1595
86.0582
20.8736
84.3472
86.3132
336.777
336.677
339.256
339.139
20.8736
84.3257
86.2868
84.1823
86.0794
47.3924
190.901
47.292
190.876
23.8932
42.6487
20.5717
20.6274
23.8759
42.7761
20.5716
23.9053
42.648
20.5717
20.6269
23.8859
42.7608
20.5716
47.2186
191.073
190.776
47.3886
47.2856
191.008
190.816
47.4051
23.8766
20.6264
42.7402
20.57
42.6607
20.5705
23.9072
23.8828
20.6258
42.7419
20.5699
42.6469
20.5703
23.9126
84.0787
86.0533
20.8754
84.2949
86.213
339.157
339.157
336.779
336.639
20.8746
84.3055
86.2064
84.1376
85.9795
339.179
339.139
24.3681
43.8772
20.576
20.6374
24.2953
44.0928
20.576
49.4208
193.66
49.1844
193.749
24.3688
20.5764
43.9036
20.6386
24.3027
20.5763
44.1216
49.2095
193.786
193.453
49.408
24.3024
20.6364
44.0844
20.5744
43.905
20.5749
24.361
49.1937
193.819
193.688
49.4066
24.3036
20.6376
20.5747
44.1072
20.5751
43.9274
24.3681
49.4161
193.654
49.1792
193.772
24.3669
20.5763
43.8961
20.6391
24.2993
20.5763
44.1101
49.4165
193.637
49.1847
193.843
24.3007
20.6378
44.1296
20.5743
43.8753
20.5756
24.3686
49.1877
193.826
193.605
49.4042
24.2997
20.638
20.5747
44.0988
20.5751
43.9122
24.3662
49.1899
193.777
193.676
49.4063
86.0037
84.0703
20.8734
86.2707
84.2007
336.703
336.714
339.238
339.041
20.8732
86.2422
84.234
86.0411
84.0304
336.724
336.683
23.899
20.5713
42.6068
20.6251
23.8763
20.5711
42.7192
47.3547
190.882
47.2864
190.887
47.3694
190.914
47.2905
190.888
23.8776
20.6256
20.5698
42.7869
20.571
42.5993
23.9071
23.8815
20.624
20.5696
42.6948
20.5699
42.5982
23.9034
47.249
191.007
190.834
47.3807
47.2605
190.911
190.893
47.3925
339.083
339.135
336.692
336.733
20.8713
86.2163
84.2335
85.8231
84.0078
339.14
339.133
336.728
336.695
336.781
336.739
339.146
339.252
84.1637
86.059
20.8735
84.3493
86.315
336.782
336.685
339.255
339.138
20.8736
84.3202
86.2869
84.1868
86.0808
47.3935
190.875
47.2949
190.889
23.8936
42.6496
20.5717
20.6274
23.88
42.777
20.5716
23.9055
42.6547
20.5716
20.6268
23.8862
42.7691
20.5715
47.2237
190.96
190.79
47.3876
47.2863
190.928
190.872
47.4026
23.8768
20.6264
42.7435
20.57
42.667
20.5705
23.9072
23.8827
20.626
42.7367
20.57
42.6474
20.5704
23.9127
84.1571
85.9492
20.8747
84.3238
86.2009
339.122
339.236
336.768
336.666
20.8751
84.2277
86.2608
84.0645
86.0083
339.182
339.133
24.368
43.8776
20.576
20.6374
24.2953
44.0927
20.576
49.4206
193.661
49.1845
193.75
24.3688
20.5764
43.9043
20.6387
24.3027
20.5763
44.1216
49.209
193.783
193.452
49.4078
24.3023
20.6363
44.0842
20.5743
43.9047
20.5749
24.361
49.1934
193.82
193.688
49.4063
24.3036
20.6376
20.5747
44.1066
20.5751
43.9272
24.368
49.4162
193.653
49.1804
193.873
24.3669
20.5763
43.8926
20.6392
24.2994
20.5763
44.1098
49.4162
193.597
49.1848
193.835
24.3007
20.6377
44.1279
20.5743
43.8658
20.5756
24.3682
49.1874
193.747
193.667
49.4028
24.2997
20.6381
20.5747
44.0989
20.5751
43.9121
24.3661
49.1896
193.781
193.673
49.4061
86.0037
84.0608
20.8735
86.2735
84.2334
336.703
336.719
339.244
339.021
20.8733
86.2451
84.2367
86.0484
84.0608
336.717
336.653
23.8994
20.5713
42.6257
20.6251
23.8768
20.5712
42.6814
47.3532
190.813
47.2799
190.884
47.3718
190.906
47.2919
190.894
23.8784
20.6256
20.5696
42.7792
20.5709
42.5996
23.9052
23.8819
20.624
20.5695
42.6882
20.5699
42.5668
23.9031
47.2771
190.887
190.876
47.3436
47.2622
190.913
190.894
47.3892
339.105
339.258
336.692
336.73
20.8713
86.2225
84.2349
85.8303
83.9961
339.197
339.025
336.727
336.691
336.744
336.732
339.146
339.252
84.1548
86.0592
20.8734
84.3254
86.3137
336.783
336.711
339.255
339.139
20.8735
84.3201
86.2875
84.1617
86.0799
47.3724
190.898
47.2942
190.896
23.8928
42.6403
20.5717
20.6274
23.8798
42.7683
20.5716
23.9017
42.647
20.5717
20.6269
23.8868
42.7619
20.5716
47.2206
190.962
190.785
47.3954
47.2625
190.928
190.827
47.3892
23.876
20.6263
42.7427
20.57
42.6607
20.5705
23.9069
23.8785
20.6257
42.7372
20.5699
42.6403
20.5703
23.9105
84.0682
86.0531
20.8749
84.2823
86.2128
339.157
339.157
336.777
336.602
20.8741
84.3039
86.2064
84.1295
85.9793
339.179
339.139
24.3681
43.8772
20.576