/*--------------------------------*- C++ -*----------------------------------*\
| =========                 |                                                 |
| \\      /  F ield         | OpenFOAM: The Open Source CFD Toolbox           |
|  \\    /   O peration     | Version:  2206                                  |
|   \\  /    A nd           | Website:  www.openfoam.com                      |
|    \\/     M anipulation  |                                                 |
\*---------------------------------------------------------------------------*/
FoamFile
{
    version     2.0;
    format      ascii;
    arch        "LSB;label=32;scalar=64";
    class       volScalarField;
    location    "20";
    object      k;
}
// * * * * * * * * * * * * * * * * * * * * * * * * * * * * * * * * * * * * * //

dimensions      [0 2 -2 0 0 0 0];

internalField   nonuniform List<scalar> 
66621
(
9.40754e-06
1.69818e-05
9.09481e-06
2.43058e-05
1.80698e-05
2.88369e-05
6.48306e-06
2.46089e-05
2.91404e-05
2.87711e-05
1.77547e-05
2.93299e-05
1.19937e-05
1.18443e-05
6.50128e-06
6.29337e-06
2.9075e-05
1.216e-05
1.15955e-05
2.92016e-05
1.82317e-05
1.21844e-05
6.5322e-06
2.42745e-05
2.92548e-05
1.76669e-05
2.90047e-05
1.6821e-05
9.29763e-06
2.42667e-05
2.93316e-05
2.89086e-05
1.81782e-05
1.66535e-05
9.36626e-06
2.42522e-05
2.93765e-05
2.90159e-05
1.80529e-05
1.6564e-05
9.04916e-06
2.92586e-05
1.20105e-05
1.18104e-05
6.20272e-06
2.46207e-05
2.94333e-05
2.88247e-05
1.8093e-05
1.72517e-05
8.93002e-06
1.72238e-05
9.21532e-06
6.35042e-06
6.43928e-06
1.1914e-05
5.85486e-06
6.98263e-06
1.58535e-05
7.70786e-06
1.7012e-05
1.57414e-05
7.7155e-06
6.99832e-06
5.81138e-06
1.17097e-05
9.12625e-06
1.18247e-05
5.78873e-06
6.39457e-06
8.89e-06
5.76889e-06
5.7551e-06
5.82949e-06
5.70422e-06
8.93332e-06
1.63442e-05
9.04372e-06
1.18469e-05
2.13823e-05
2.13917e-05
9.04228e-06
1.63672e-05
1.62043e-05
8.76561e-06
1.18594e-05
2.12778e-05
2.15705e-05
8.78749e-06
1.61171e-05
6.30784e-06
8.73384e-06
5.70307e-06
5.64681e-06
5.68281e-06
5.67672e-06
8.78948e-06
1.61762e-05
8.86308e-06
2.12069e-05
8.86285e-06
1.63301e-05
1.59047e-05
8.67744e-06
1.16096e-05
2.09372e-05
8.67247e-06
1.61138e-05
2.099e-05
5.81683e-06
8.74729e-06
9.04483e-06
2.13637e-05
1.63551e-05
7.00936e-06
7.68829e-06
1.59013e-05
1.70656e-05
7.63515e-06
1.56593e-05
6.98257e-06
5.79491e-06
1.17409e-05
9.19441e-06
1.16852e-05
5.83412e-06
1.58363e-05
7.49243e-06
7.06273e-06
1.20009e-05
5.9213e-06
7.46495e-06
1.55455e-05
6.78189e-06
1.1427e-05
5.76101e-06
8.95989e-06
5.78776e-06
5.86754e-06
5.85494e-06
5.84844e-06
9.07676e-06
1.61153e-05
8.88772e-06
1.20311e-05
2.12944e-05
8.9926e-06
2.11344e-05
1.60996e-05
1.64661e-05
8.94971e-06
1.17465e-05
2.13993e-05
2.12266e-05
8.95198e-06
1.63414e-05
6.21095e-06
7.06208e-06
1.63382e-05
7.74822e-06
1.73213e-05
1.62417e-05
7.75635e-06
7.06874e-06
5.79577e-06
1.16051e-05
8.94151e-06
1.16217e-05
5.80967e-06
7.04879e-06
1.59429e-05
7.74494e-06
1.7287e-05
1.58001e-05
7.76116e-06
7.02427e-06
5.88014e-06
1.19945e-05
9.29316e-06
1.20878e-05
5.85257e-06
6.44673e-06
2.60831e-05
2.52095e-05
2.50964e-05
2.36972e-05
2.62813e-05
2.5091e-05
2.50308e-05
2.39821e-05
2.60234e-05
2.49613e-05
2.48107e-05
2.3753e-05
2.61211e-05
2.50187e-05
2.51029e-05
2.38995e-05
2.85019e-05
2.34839e-05
2.87315e-05
2.44387e-05
2.3565e-05
2.87775e-05
2.82658e-05
2.13652e-05
2.5196e-05
2.71624e-05
2.83236e-05
2.88954e-05
2.37049e-05
2.49089e-05
2.88391e-05
2.40406e-05
2.8346e-05
2.72826e-05
2.16779e-05
1.80052e-05
2.4824e-05
2.49231e-05
2.15795e-05
2.70508e-05
2.24723e-05
2.93342e-05
2.66559e-05
2.65984e-05
2.68968e-05
2.66438e-05
2.24078e-05
2.20694e-05
2.90332e-05
2.64149e-05
2.64267e-05
2.21169e-05
2.64127e-05
2.65264e-05
2.14167e-05
2.51425e-05
2.72242e-05
2.82263e-05
2.33653e-05
2.8768e-05
2.4303e-05
2.34373e-05
2.87505e-05
2.84219e-05
2.71076e-05
2.11303e-05
1.77179e-05
2.46348e-05
2.14389e-05
2.49233e-05
2.69427e-05
2.84386e-05
2.88692e-05
2.33232e-05
2.43298e-05
2.9068e-05
2.33663e-05
2.82185e-05
2.73175e-05
2.12733e-05
1.80626e-05
2.47849e-05
2.13619e-05
2.71064e-05
2.50546e-05
2.81876e-05
2.89077e-05
2.33214e-05
2.43206e-05
2.88928e-05
2.36487e-05
2.81654e-05
2.70669e-05
2.10624e-05
1.77871e-05
2.52864e-05
2.5132e-05
2.1115e-05
2.70116e-05
2.2658e-05
2.9229e-05
2.65867e-05
2.65133e-05
2.65785e-05
2.66717e-05
2.23346e-05
2.82543e-05
2.89191e-05
2.35667e-05
2.4677e-05
2.88279e-05
2.35628e-05
2.83281e-05
2.74229e-05
2.14276e-05
1.80868e-05
2.50358e-05
2.49581e-05
2.14744e-05
2.72112e-05
1.9444e-06
4.84038e-07
1.0945e-07
1.12855e-07
7.69866e-07
1.89728e-06
4.73277e-07
1.07528e-07
1.12842e-07
7.71328e-07
2.08081e-06
5.30669e-07
1.22209e-07
1.28156e-07
8.80728e-07
2.08101e-06
5.31276e-07
1.22474e-07
1.28103e-07
8.79908e-07
2.02874e-06
5.19106e-07
1.20249e-07
1.27915e-07
8.80407e-07
2.0882e-06
5.33331e-07
1.227e-07
1.28231e-07
8.80872e-07
1.93411e-06
4.80986e-07
1.08801e-07
1.12974e-07
7.71467e-07
1.94541e-06
4.84374e-07
1.09551e-07
1.13083e-07
7.71636e-07
1.88072e-06
4.68262e-07
1.06685e-07
1.12807e-07
7.71565e-07
1.98055e-06
5.06563e-07
1.17854e-07
1.27564e-07
8.79443e-07
1.83823e-06
4.5834e-07
1.04718e-07
1.12317e-07
7.69411e-07
1.89739e-06
4.73496e-07
1.07579e-07
1.1262e-07
7.69552e-07
2.03678e-06
5.19522e-07
1.20236e-07
1.27911e-07
8.80458e-07
2.05882e-06
5.24756e-07
1.21032e-07
1.27851e-07
8.79405e-07
1.80593e-06
4.58225e-07
1.07022e-07
1.18724e-07
8.17927e-07
1.88033e-06
4.77612e-07
1.11067e-07
1.21428e-07
8.36699e-07
1.88123e-06
4.7863e-07
1.11256e-07
1.21051e-07
8.33514e-07
1.81058e-06
4.60402e-07
1.07557e-07
1.19193e-07
8.2126e-07
1.895e-06
4.72713e-07
1.07402e-07
1.12365e-07
7.67646e-07
2.05411e-06
5.27537e-07
1.21784e-07
1.27682e-07
8.77209e-07
1.94334e-06
4.8446e-07
1.09816e-07
1.13967e-07
7.78474e-07
1.93469e-06
4.8294e-07
1.09462e-07
1.13495e-07
7.74973e-07
1.88385e-06
4.70987e-07
1.07358e-07
1.13637e-07
7.77781e-07
1.88101e-06
4.69647e-07
1.07125e-07
1.13155e-07
7.74138e-07
2.02523e-06
5.18539e-07
1.2014e-07
1.27475e-07
8.76926e-07
1.97449e-06
5.04694e-07
1.17675e-07
1.27551e-07
8.79243e-07
1.93846e-06
4.83101e-07
1.09511e-07
1.13951e-07
7.7854e-07
1.8087e-06
4.58118e-07
1.06938e-07
1.18732e-07
8.18043e-07
1.86634e-06
4.733e-07
1.1026e-07
1.21331e-07
8.3661e-07
1.85434e-06
4.72065e-07
1.10119e-07
1.20927e-07
8.33431e-07
1.7994e-06
4.56967e-07
1.07015e-07
1.19147e-07
8.21281e-07
1.91175e-06
4.77594e-07
1.08232e-07
1.12466e-07
7.67893e-07
1.81527e-06
4.61896e-07
1.08441e-07
1.21141e-07
8.36549e-07
1.82645e-06
4.62953e-07
1.07947e-07
1.1922e-07
8.21244e-07
1.81697e-06
4.62599e-07
1.08555e-07
1.21122e-07
8.36332e-07
1.75754e-06
4.46323e-07
1.05143e-07
1.18927e-07
8.21056e-07
2.01209e-06
5.16709e-07
1.19947e-07
1.27802e-07
8.79319e-07
1.91258e-06
4.78061e-07
1.08668e-07
1.13805e-07
7.7792e-07
1.91119e-06
4.77957e-07
1.08584e-07
1.1335e-07
7.74401e-07
1.97935e-06
5.05979e-07
1.17738e-07
1.27118e-07
8.75914e-07
1.79585e-06
4.54955e-07
1.06388e-07
1.18355e-07
8.15637e-07
1.85656e-06
4.73228e-07
1.10324e-07
1.20989e-07
8.33842e-07
1.85263e-06
4.71913e-07
1.10031e-07
1.2058e-07
8.30708e-07
1.79863e-06
4.56454e-07
1.06797e-07
1.18819e-07
8.18972e-07
1.83555e-06
4.57283e-07
1.04474e-07
1.11835e-07
7.65742e-07
1.79433e-06
4.53778e-07
1.0605e-07
1.18303e-07
8.15598e-07
1.8522e-06
4.71944e-07
1.10123e-07
1.20968e-07
8.3387e-07
1.86833e-06
4.7417e-07
1.10356e-07
1.20586e-07
8.30656e-07
1.78925e-06
4.54855e-07
1.0644e-07
1.18753e-07
8.18857e-07
1.89762e-06
4.73284e-07
1.07425e-07
1.12137e-07
7.65899e-07
2.0482e-06
5.22403e-07
1.20514e-07
1.27362e-07
8.75884e-07
1.96641e-06
5.05851e-07
1.18073e-07
1.2759e-07
8.79237e-07
1.95584e-06
5.01031e-07
1.16947e-07
1.27389e-07
8.78676e-07
2.03639e-06
5.23223e-07
1.21394e-07
1.28756e-07
8.85667e-07
2.02581e-06
5.18152e-07
1.20267e-07
1.28228e-07
8.82387e-07
2.02337e-06
5.19194e-07
1.20495e-07
1.28745e-07
8.86453e-07
1.98921e-06
5.12354e-07
1.19233e-07
1.27723e-07
8.79301e-07
1.92533e-06
4.81464e-07
1.09198e-07
1.13952e-07
7.78781e-07
1.92833e-06
4.81746e-07
1.09265e-07
1.13522e-07
7.75285e-07
1.98293e-06
5.07674e-07
1.18068e-07
1.27095e-07
8.75396e-07
1.93755e-06
4.97882e-07
1.16371e-07
1.26867e-07
8.74933e-07
1.94074e-06
4.99183e-07
1.16732e-07
1.27362e-07
8.7866e-07
1.90622e-06
4.75781e-07
1.08231e-07
1.13718e-07
7.7773e-07
1.89431e-06
4.72996e-07
1.07781e-07
1.13253e-07
7.74327e-07
1.92813e-06
4.95891e-07
1.16122e-07
1.27311e-07
8.78722e-07
1.88548e-06
4.71708e-07
1.07702e-07
1.13767e-07
7.78494e-07
1.87434e-06
4.70062e-07
1.07348e-07
1.1329e-07
7.74981e-07
1.92967e-06
4.96283e-07
1.16146e-07
1.2684e-07
8.74929e-07
1.92725e-06
4.95595e-07
1.15942e-07
1.26846e-07
8.75141e-07
2.03068e-06
5.2219e-07
1.21126e-07
1.28337e-07
8.82581e-07
2.04439e-06
5.25085e-07
1.2172e-07
1.28901e-07
8.8665e-07
2.08764e-06
5.34681e-07
1.23428e-07
1.29123e-07
8.86981e-07
2.00874e-06
5.15948e-07
1.20135e-07
1.28756e-07
8.86574e-07
1.98273e-06
5.09644e-07
1.18654e-07
1.27199e-07
8.75589e-07
1.99152e-06
5.12552e-07
1.19164e-07
1.27259e-07
8.75573e-07
1.99562e-06
5.11766e-07
1.19014e-07
1.27945e-07
8.81066e-07
2.00054e-06
5.13348e-07
1.19417e-07
1.285e-07
8.85205e-07
2.02617e-06
5.1715e-07
1.19998e-07
1.28058e-07
8.81174e-07
2.03277e-06
5.1956e-07
1.20641e-07
1.28627e-07
8.85297e-07
6.48517e-06
6.40191e-06
2.90473e-05
1.20389e-05
1.16906e-05
1.73151e-05
9.27418e-06
2.46265e-05
2.92405e-05
1.79365e-05
2.87513e-05
1.71089e-05
9.45008e-06
2.4357e-05
2.93307e-05
2.90442e-05
1.82549e-05
2.93468e-05
1.79898e-05
9.16872e-06
6.57321e-06
2.92519e-05
1.21496e-05
1.18128e-05
6.24929e-06
2.46692e-05
2.91402e-05
2.87628e-05
1.77823e-05
2.48551e-05
2.93234e-05
2.89909e-05
1.83842e-05
1.74541e-05
9.00038e-06
1.75201e-05
9.33411e-06
2.9392e-05
1.18709e-05
1.18727e-05
6.40347e-06
6.46008e-06
5.77146e-06
5.72737e-06
8.92274e-06
8.89785e-06
2.14562e-05
1.61639e-05
8.81556e-06
2.1041e-05
1.63003e-05
7.00386e-06
1.60811e-05
7.72427e-06
1.72868e-05
6.98448e-06
1.5996e-05
7.84532e-06
5.7874e-06
1.18363e-05
9.24549e-06
5.83228e-06
1.17892e-05
6.98869e-06
7.60193e-06
1.58823e-05
1.72662e-05
7.00075e-06
7.73981e-06
1.59239e-05
5.84859e-06
1.17941e-05
9.48239e-06
5.8976e-06
1.19226e-05
5.78723e-06
1.16536e-05
9.17175e-06
5.77246e-06
1.16385e-05
6.54598e-06
8.93676e-06
5.88545e-06
5.94473e-06
8.94608e-06
5.85106e-06
5.91512e-06
1.61458e-05
9.01168e-06
2.13353e-05
1.20991e-05
2.15833e-05
1.61468e-05
9.02432e-06
1.63323e-05
9.08952e-06
2.16053e-05
1.18134e-05
1.63296e-05
9.09323e-06
2.19341e-05
6.25209e-06
7.08695e-06
1.60828e-05
7.88053e-06
1.72419e-05
7.16423e-06
1.61078e-05
7.86627e-06
5.81759e-06
1.17034e-05
9.01095e-06
5.80366e-06
1.19376e-05
7.03676e-06
1.60124e-05
7.87857e-06
1.73208e-05
7.01095e-06
1.61709e-05
7.82888e-06
5.94629e-06
1.20049e-05
9.34452e-06
5.88502e-06
1.2074e-05
8.8139e-06
5.83466e-06
5.77708e-06
8.78308e-06
5.79775e-06
5.75275e-06
1.65496e-05
9.12686e-06
2.16276e-05
1.18744e-05
1.66736e-05
2.19022e-05
9.07107e-06
1.61763e-05
8.94135e-06
2.1339e-05
1.19627e-05
1.62429e-05
2.13538e-05
8.96344e-06
6.37596e-06
6.48379e-06
2.61738e-05
2.55202e-05
2.49967e-05
2.37229e-05
2.61502e-05
2.54768e-05
2.52155e-05
2.4077e-05
2.615e-05
2.50036e-05
2.50507e-05
2.37343e-05
2.62981e-05
2.513e-05
2.50512e-05
2.38583e-05
2.64009e-05
2.64644e-05
2.21245e-05
2.82639e-05
2.36053e-05
2.87556e-05
2.45939e-05
2.82496e-05
2.35178e-05
2.89501e-05
2.72534e-05
2.14083e-05
2.48886e-05
1.78777e-05
2.50155e-05
2.7255e-05
2.14127e-05
2.84047e-05
2.88292e-05
2.35735e-05
2.44439e-05
2.84773e-05
2.88282e-05
2.36936e-05
2.73869e-05
2.15556e-05
2.49296e-05
1.82252e-05
2.73663e-05
2.14706e-05
2.53335e-05
2.71355e-05
2.12623e-05
2.51179e-05
1.81506e-05
2.70819e-05
2.18193e-05
2.51633e-05
2.25644e-05
2.93337e-05
2.67533e-05
2.66309e-05
2.66832e-05
2.26598e-05
2.70636e-05
2.85899e-05
2.90679e-05
2.39018e-05
2.46121e-05
2.85114e-05
2.88912e-05
2.36741e-05
2.71139e-05
2.15191e-05
2.50516e-05
1.78314e-05
2.7098e-05
2.54123e-05
2.14679e-05
2.86859e-05
2.90931e-05
2.37081e-05
2.46483e-05
2.85351e-05
2.92528e-05
2.40383e-05
2.73824e-05
2.16642e-05
2.50639e-05
1.82988e-05
2.731e-05
2.17007e-05
2.53154e-05
2.26677e-05
2.92188e-05
2.67685e-05
2.68265e-05
2.23924e-05
2.71876e-05
2.67353e-05
2.60805e-05
2.93691e-05
2.59494e-05
2.93354e-05
2.93909e-05
2.9209e-05
2.90527e-05
2.91023e-05
2.92773e-05
2.93222e-05
2.94065e-05
2.94262e-05
2.91808e-05
2.90753e-05
2.9269e-05
2.93925e-05
2.93061e-05
2.94075e-05
2.92695e-05
2.92974e-05
2.93294e-05
2.91634e-05
2.9314e-05
2.92735e-05
2.90712e-05
2.92876e-05
2.9552e-05
2.93956e-05
2.92918e-05
2.92702e-05
1.73714e-05
9.4441e-06
9.33086e-06
1.73965e-05
6.36594e-06
6.34673e-06
1.67681e-05
9.05616e-06
9.07958e-06
1.68061e-05
2.62208e-05
2.597e-05
2.60264e-05
2.59707e-05
2.59994e-05
2.6111e-05
2.60656e-05
2.40834e-05
1.8106e-05
2.87862e-05
2.92992e-05
1.80671e-05
2.87903e-05
2.40531e-05
1.75706e-05
9.29717e-06
1.75134e-05
9.27307e-06
6.29205e-06
6.27059e-06
1.69084e-05
9.02425e-06
1.66685e-05
9.11614e-06
2.60029e-05
2.61625e-05
2.62331e-05
2.44593e-05
1.78999e-05
2.88028e-05
2.92964e-05
2.42347e-05
1.79292e-05
2.87776e-05
6.42099e-06
6.41454e-06
2.47196e-05
2.88115e-05
1.82546e-05
2.94163e-05
2.87864e-05
1.81793e-05
2.43594e-05
1.15142e-05
1.17038e-05
2.93288e-05
1.1581e-05
1.16937e-05
6.38265e-06
6.43471e-06
6.33078e-06
6.30505e-06
1.18904e-05
1.17395e-05
2.9104e-05
1.21096e-05
1.17283e-05
6.42362e-06
6.48139e-06
6.36087e-06
6.34197e-06
2.90625e-05
1.20778e-05
1.16351e-05
1.22553e-05
1.1857e-05
1.71819e-05
9.36047e-06
9.4021e-06
1.71816e-05
2.46455e-05
1.81526e-05
2.8818e-05
2.92907e-05
1.84008e-05
2.88066e-05
2.4665e-05
2.46448e-05
1.80569e-05
2.8879e-05
2.93036e-05
1.8103e-05
2.88431e-05
2.46235e-05
1.73434e-05
9.34417e-06
9.43117e-06
1.7569e-05
1.75148e-05
9.28783e-06
9.45318e-06
1.7231e-05
2.46212e-05
2.92576e-05
1.80409e-05
2.8862e-05
1.8158e-05
2.87868e-05
2.51814e-05
2.46549e-05
2.92996e-05
1.83482e-05
2.8806e-05
1.8403e-05
2.88207e-05
2.45546e-05
1.17696e-05
1.19529e-05
2.91673e-05
1.17524e-05
1.19981e-05
6.40155e-06
6.40214e-06
6.31924e-06
6.36122e-06
2.91205e-05
1.18098e-05
1.19388e-05
1.17215e-05
1.19769e-05
6.38893e-06
6.40173e-06
2.40965e-05
1.78674e-05
2.88497e-05
2.92192e-05
1.80347e-05
2.8701e-05
2.42126e-05
1.65847e-05
9.36439e-06
1.65597e-05
9.34626e-06
2.42003e-05
2.88834e-05
1.82947e-05
2.93798e-05
2.87378e-05
2.43037e-05
1.82108e-05
1.68794e-05
9.06118e-06
9.08117e-06
1.67271e-05
2.41035e-05
2.92002e-05
1.79781e-05
2.87362e-05
1.77685e-05
2.87417e-05
2.41957e-05
1.66052e-05
9.38218e-06
1.67216e-05
9.5005e-06
2.41697e-05
2.93748e-05
2.87434e-05
1.83361e-05
2.87715e-05
2.41317e-05
1.82867e-05
1.67527e-05
9.20017e-06
9.07592e-06
1.64703e-05
2.41858e-05
2.8842e-05
1.74485e-05
2.94362e-05
2.88955e-05
2.41488e-05
1.75224e-05
1.66962e-05
8.67093e-06
1.68494e-05
8.7175e-06
2.40922e-05
2.93234e-05
1.79471e-05
2.87701e-05
1.83097e-05
2.87706e-05
2.42996e-05
1.6527e-05
9.16399e-06
9.11634e-06
1.65996e-05
2.41424e-05
2.92976e-05
2.87038e-05
1.75738e-05
2.87279e-05
2.43858e-05
1.74993e-05
1.69103e-05
8.88807e-06
1.67037e-05
8.80573e-06
6.44772e-06
6.43463e-06
6.29518e-06
6.26506e-06
1.20384e-05
1.17365e-05
2.92591e-05
1.18368e-05
1.17054e-05
1.72868e-05
9.29905e-06
1.72157e-05
9.14458e-06
2.4934e-05
1.80282e-05
2.88413e-05
2.93521e-05
2.49168e-05
1.79675e-05
2.88097e-05
2.46321e-05
1.83906e-05
2.88135e-05
2.92994e-05
2.45354e-05
1.80098e-05
2.87999e-05
1.16405e-05
1.21276e-05
2.92288e-05
1.16171e-05
1.19349e-05
6.45289e-06
6.41656e-06
2.41939e-05
1.77375e-05
2.87879e-05
2.92499e-05
2.41802e-05
1.77999e-05
2.87656e-05
1.66166e-05
9.4346e-06
1.66916e-05
9.55084e-06
2.41859e-05
2.88459e-05
1.81237e-05
2.93664e-05
2.41627e-05
2.90052e-05
1.81271e-05
1.67341e-05
9.25689e-06
1.68851e-05
9.19398e-06
2.41968e-05
2.86915e-05
1.75869e-05
2.91965e-05
2.44061e-05
2.86999e-05
1.77941e-05
1.68092e-05
8.8275e-06
1.68158e-05
8.87019e-06
1.20343e-05
1.19901e-05
2.95005e-05
1.1909e-05
1.19885e-05
6.38488e-06
6.4333e-06
1.19943e-05
6.45017e-06
2.45375e-05
2.89391e-05
1.78973e-05
2.94186e-05
2.8802e-05
1.79257e-05
2.4441e-05
1.70543e-05
9.17666e-06
9.32624e-06
1.71666e-05
1.73268e-05
9.17634e-06
9.07163e-06
1.7142e-05
2.44263e-05
1.82197e-05
2.46352e-05
1.79782e-05
1.71804e-05
9.24833e-06
1.70285e-05
9.1601e-06
6.13252e-06
6.14355e-06
6.2829e-06
6.27642e-06
1.16914e-05
6.27043e-06
7.31691e-06
7.94952e-06
1.66118e-05
1.73458e-05
7.97922e-06
1.64187e-05
7.34226e-06
5.97018e-06
9.46731e-06
1.2087e-05
1.21339e-05
5.95007e-06
5.96631e-06
1.20831e-05
9.41187e-06
1.20759e-05
5.98748e-06
7.27724e-06
1.75683e-05
8.06069e-06
1.62913e-05
8.02047e-06
1.6341e-05
7.19152e-06
6.41639e-06
6.4674e-06
6.86933e-06
1.56041e-05
7.58658e-06
1.70697e-05
1.55595e-05
7.52045e-06
6.87453e-06
5.63674e-06
9.09258e-06
1.13755e-05
1.15563e-05
5.64666e-06
5.68831e-06
1.14253e-05
9.08044e-06
1.14268e-05
5.69392e-06
6.93318e-06
1.68588e-05
1.54849e-05
7.46521e-06
1.55222e-05
7.51738e-06
6.84653e-06
7.21908e-06
1.78795e-05
7.98241e-06
1.6309e-05
7.96193e-06
1.62706e-05
7.19646e-06
5.96688e-06
1.19857e-05
9.35848e-06
5.92994e-06
1.20311e-05
7.30455e-06
1.77146e-05
7.92406e-06
1.62868e-05
7.21169e-06
7.95541e-06
1.62858e-05
6.03912e-06
1.20046e-05
9.335e-06
1.22331e-05
5.9466e-06
6.36106e-06
6.31982e-06
6.93602e-06
1.66943e-05
1.56863e-05
7.40241e-06
1.56154e-05
7.4497e-06
6.84631e-06
5.72046e-06
1.13769e-05
9.0384e-06
5.67389e-06
1.13806e-05
6.867e-06
1.67241e-05
1.5725e-05
7.4177e-06
6.88386e-06
1.56751e-05
7.49357e-06
5.67529e-06
1.15327e-05
9.03069e-06
1.13813e-05
5.70085e-06
6.4856e-06
6.45655e-06
8.66462e-06
5.6792e-06
5.62008e-06
5.73129e-06
5.65201e-06
8.63407e-06
1.60699e-05
2.09766e-05
1.16861e-05
8.86777e-06
2.13901e-05
8.87205e-06
1.60412e-05
1.58736e-05
2.09817e-05
1.17335e-05
8.65389e-06
2.12368e-05
8.71602e-06
1.58357e-05
1.60234e-05
8.79435e-06
1.15307e-05
2.11556e-05
2.12274e-05
8.85797e-06
1.59834e-05
1.60823e-05
8.77726e-06
1.19419e-05
2.12323e-05
2.15242e-05
8.71264e-06
1.61592e-05
8.75727e-06
5.72353e-06
5.57698e-06
5.72826e-06
5.67208e-06
8.62444e-06
6.44619e-06
6.5235e-06
6.34541e-06
6.32283e-06
8.5129e-06
5.7415e-06
5.53442e-06
5.72921e-06
5.54738e-06
8.51878e-06
1.63388e-05
2.15504e-05
1.20992e-05
8.7717e-06
8.93035e-06
2.13923e-05
1.59501e-05
1.57007e-05
2.12909e-05
1.17851e-05
8.65031e-06
8.68113e-06
2.12233e-05
1.60046e-05
1.62409e-05
8.94064e-06
1.23232e-05
2.16155e-05
9.03758e-06
1.64026e-05
2.15924e-05
1.57055e-05
8.62143e-06
1.17318e-05
2.11565e-05
8.65092e-06
1.57277e-05
2.14881e-05
8.52314e-06
5.61183e-06
5.57824e-06
5.69602e-06
5.5609e-06
8.46737e-06
6.47882e-06
6.48303e-06
6.33137e-06
6.31923e-06
8.62788e-06
5.70765e-06
5.58039e-06
8.52623e-06
5.7354e-06
5.61887e-06
1.63477e-05
2.14483e-05
1.20447e-05
8.89677e-06
9.07417e-06
2.13303e-05
1.61412e-05
1.56201e-05
2.10412e-05
1.16733e-05
8.66744e-06
8.60078e-06
2.11317e-05
1.58464e-05
1.61411e-05
8.97839e-06
2.12979e-05
1.20402e-05
1.64698e-05
9.03197e-06
2.15362e-05
1.56314e-05
8.6277e-06
2.1074e-05
1.16432e-05
1.56629e-05
8.62057e-06
2.11902e-05
8.701e-06
5.71738e-06
5.56713e-06
5.73242e-06
5.63724e-06
8.76825e-06
7.10179e-06
7.91406e-06
1.60985e-05
1.71775e-05
7.93404e-06
1.61621e-05
7.13449e-06
5.8434e-06
9.44043e-06
1.18936e-05
1.19163e-05
5.91256e-06
5.92053e-06
1.18503e-05
9.54575e-06
1.19382e-05
5.87436e-06
7.12152e-06
1.71811e-05
7.83019e-06
1.617e-05
7.94767e-06
1.61088e-05
7.10369e-06
7.26282e-06
7.95402e-06
1.67713e-05
1.73266e-05
7.41341e-06
7.95507e-06
1.64869e-05
6.01701e-06
9.35256e-06
1.20319e-05
5.9479e-06
1.20575e-05
6.04379e-06
1.21791e-05
9.37308e-06
5.99973e-06
1.22554e-05
7.29466e-06
1.73221e-05
7.94874e-06
1.63365e-05
7.35066e-06
7.94975e-06
1.64645e-05
7.10907e-06
7.90184e-06
1.61345e-05
1.73401e-05
7.11163e-06
7.8859e-06
1.61306e-05
5.8453e-06
9.34951e-06
1.2168e-05
1.20683e-05
5.86826e-06
5.86447e-06
1.20245e-05
9.32862e-06
5.87055e-06
1.19325e-05
7.13176e-06
1.72699e-05
7.83516e-06
1.60573e-05
7.89168e-06
1.6183e-05
7.08488e-06
8.56999e-06
5.61644e-06
5.74995e-06
5.64545e-06
5.7071e-06
8.71775e-06
1.58481e-05
2.11754e-05
1.19872e-05
8.70227e-06
8.76851e-06
2.11783e-05
1.58774e-05
1.58519e-05
2.11261e-05
1.19746e-05
8.92775e-06
2.10613e-05
8.95352e-06
1.61237e-05
1.5845e-05
8.7253e-06
1.18522e-05
2.1128e-05
8.79121e-06
2.11549e-05
1.58844e-05
1.60433e-05
8.89024e-06
1.19812e-05
2.12645e-05
2.10461e-05
9.02683e-06
1.63616e-05
8.57582e-06
5.62197e-06
5.66549e-06
5.64555e-06
5.67259e-06
8.58447e-06
6.44206e-06
6.4823e-06
6.31021e-06
6.38251e-06
8.6814e-06
5.65388e-06
5.68784e-06
8.59911e-06
5.65428e-06
5.74047e-06
1.58272e-05
2.12266e-05
1.16908e-05
8.70111e-06
2.11875e-05
8.74351e-06
1.58174e-05
1.60675e-05
2.1162e-05
1.20296e-05
8.90053e-06
8.9381e-06
2.14777e-05
1.61138e-05
1.58472e-05
8.76627e-06
2.11182e-05
1.16995e-05
2.12065e-05
1.61103e-05
8.76126e-06
1.60658e-05
8.91809e-06
2.10316e-05
1.20236e-05
1.61702e-05
8.89549e-06
2.11348e-05
8.67036e-06
5.6258e-06
5.72583e-06
5.65837e-06
5.68962e-06
8.62339e-06
6.42145e-06
6.41338e-06
6.85833e-06
7.39685e-06
1.65685e-05
1.54989e-05
7.34913e-06
1.57293e-05
6.87829e-06
5.83158e-06
1.17611e-05
9.46352e-06
1.17852e-05
5.83987e-06
6.91403e-06
1.6567e-05
7.33728e-06
1.55283e-05
7.36227e-06
1.55277e-05
7.02962e-06
5.84002e-06
1.18736e-05
9.40586e-06
1.17324e-05
5.80584e-06
7.02096e-06
1.56134e-05
7.55066e-06
1.68659e-05
6.94615e-06
1.56247e-05
7.55278e-06
5.74232e-06
9.06534e-06
1.15817e-05
5.69036e-06
1.1499e-05
5.74156e-06
1.14522e-05
9.08178e-06
5.72359e-06
1.14867e-05
6.96687e-06
1.67892e-05
1.58186e-05
7.46604e-06
7.01509e-06
1.56219e-05
7.58581e-06
6.90337e-06
7.49386e-06
1.66364e-05
1.55188e-05
6.85788e-06
7.39393e-06
1.55083e-05
5.8126e-06
1.17783e-05
9.54198e-06
1.18004e-05
5.8504e-06
6.93451e-06
1.65903e-05
7.33216e-06
1.55598e-05
7.3587e-06
1.55049e-05
6.85757e-06
5.83866e-06
1.17623e-05
9.45906e-06
5.85617e-06
1.19278e-05
6.71373e-06
1.57053e-05
7.28999e-06
1.6675e-05
1.55038e-05
7.29158e-06
6.82337e-06
5.72693e-06
9.09131e-06
1.16156e-05
1.16649e-05
5.73847e-06
5.7504e-06
1.1676e-05
9.122e-06
1.16511e-05
5.75979e-06
6.73276e-06
1.64942e-05
1.55355e-05
7.26355e-06
1.5686e-05
7.33072e-06
6.82431e-06
6.6961e-06
7.45537e-06
1.66657e-05
1.5349e-05
7.45717e-06
1.53831e-05
6.73472e-06
5.61171e-06
1.14182e-05
8.79724e-06
1.13051e-05
5.61285e-06
6.73089e-06
1.69176e-05
7.32569e-06
1.54616e-05
7.37113e-06
1.5587e-05
6.80255e-06
5.60931e-06
1.12973e-05
8.74717e-06
1.13109e-05
5.61703e-06
6.77333e-06
1.55608e-05
7.29926e-06
1.67115e-05
6.79863e-06
1.56214e-05
7.40273e-06
5.76622e-06
9.12001e-06
1.18123e-05
1.17268e-05
5.80685e-06
5.77709e-06
1.16764e-05
9.18449e-06
5.76257e-06
1.17091e-05
6.81362e-06
1.65166e-05
1.58461e-05
7.32683e-06
1.56176e-05
7.36121e-06
6.89594e-06
6.72474e-06
7.38297e-06
1.66487e-05
1.53512e-05
6.81949e-06
7.40998e-06
1.54051e-05
5.62961e-06
1.15e-05
8.84191e-06
1.14245e-05
5.68542e-06
6.74037e-06
1.67167e-05
7.43318e-06
1.54312e-05
7.40543e-06
1.53778e-05
6.72613e-06
5.62903e-06
1.13286e-05
8.88742e-06
5.61227e-06
1.14186e-05
6.41277e-06
6.39628e-06
6.30478e-06
6.35737e-06
8.67586e-06
5.65788e-06
5.51894e-06
5.63279e-06
5.55062e-06
8.49282e-06
1.60671e-05
2.11661e-05
8.9294e-06
1.18854e-05
1.61923e-05
8.96106e-06
2.12213e-05
1.57532e-05
2.1341e-05
8.6625e-06
1.18707e-05
1.58967e-05
8.65022e-06
2.11946e-05
8.65197e-06
5.65353e-06
5.59513e-06
8.62353e-06
5.6497e-06
5.5598e-06
1.59854e-05
8.86096e-06
1.18721e-05
2.11553e-05
8.93069e-06
1.59293e-05
2.12366e-05
1.59063e-05
8.6667e-06
1.19809e-05
2.10861e-05
8.68739e-06
1.57198e-05
2.14292e-05
7.03401e-06
1.75384e-05
7.79786e-06
1.61012e-05
7.83018e-06
1.61572e-05
7.04028e-06
5.89421e-06
1.19928e-05
9.27436e-06
5.84496e-06
1.20835e-05
7.06244e-06
1.73857e-05
7.83481e-06
1.60992e-05
7.83332e-06
7.08728e-06
1.60954e-05
5.86518e-06
1.18329e-05
9.29535e-06
1.20955e-05
5.83553e-06
8.57264e-06
5.61184e-06
5.6495e-06
5.65518e-06
5.72926e-06
8.54383e-06
1.59811e-05
2.1415e-05
8.73793e-06
1.16623e-05
8.73665e-06
1.58004e-05
2.10865e-05
1.58816e-05
2.1174e-05
8.94907e-06
1.19903e-05
2.11972e-05
1.61835e-05
8.88949e-06
8.59017e-06
5.61599e-06
5.67323e-06
5.68254e-06
8.61829e-06
5.67245e-06
1.57842e-05
8.70349e-06
1.16895e-05
2.10346e-05
8.77105e-06
2.11302e-05
1.57521e-05
1.58629e-05
8.84248e-06
1.19367e-05
2.13119e-05
2.1137e-05
8.86859e-06
1.60135e-05
6.50675e-06
6.4625e-06
6.75665e-06
1.67179e-05
7.39055e-06
1.55523e-05
7.48087e-06
1.55987e-05
6.78251e-06
5.86749e-06
1.18595e-05
9.54461e-06
5.90872e-06
1.19049e-05
6.7732e-06
1.68658e-05
7.33245e-06
1.56089e-05
7.39352e-06
6.80878e-06
1.56436e-05
5.85885e-06
1.2058e-05
9.45076e-06
1.19034e-05
5.94368e-06
6.8418e-06
1.67318e-05
1.5686e-05
7.37038e-06
1.58937e-05
7.48958e-06
6.87385e-06
5.78e-06
1.16538e-05
9.25327e-06
1.17336e-05
5.79468e-06
6.88451e-06
1.66669e-05
1.57849e-05
7.38705e-06
1.57261e-05
6.98486e-06
7.37652e-06
5.78685e-06
1.16915e-05
9.24822e-06
1.1704e-05
5.75436e-06
6.7156e-06
1.70664e-05
7.43594e-06
1.54639e-05
7.4893e-06
1.54714e-05
6.74066e-06
5.69358e-06
1.17034e-05
8.95902e-06
5.69709e-06
1.16604e-05
6.74562e-06
1.67772e-05
7.44861e-06
1.54547e-05
6.73231e-06
7.49474e-06
1.5452e-05
5.69797e-06
1.14387e-05
8.90421e-06
1.17179e-05
5.65107e-06
9.01524e-06
5.73323e-06
5.85745e-06
5.82834e-06
5.88352e-06
8.90318e-06
1.6429e-05
2.14209e-05
1.18814e-05
8.75566e-06
8.84637e-06
2.16201e-05
1.64203e-05
1.63379e-05
2.13588e-05
1.22174e-05
9.01456e-06
2.13936e-05
9.1148e-06
1.6368e-05
1.64309e-05
8.72866e-06
1.19315e-05
2.1265e-05
8.79691e-06
2.13184e-05
1.61114e-05
1.63323e-05
9.0596e-06
1.20645e-05
2.13665e-05
2.14332e-05
9.09728e-06
1.65571e-05
8.99272e-06
5.70535e-06
5.83357e-06
5.75555e-06
5.93507e-06
8.90488e-06
6.41691e-06
6.41411e-06
5.90642e-06
9.19981e-06
6.88357e-06
1.56814e-05
7.65514e-06
1.70199e-05
1.59023e-05
7.67741e-06
6.92222e-06
5.74532e-06
9.29792e-06
1.16538e-05
1.18371e-05
5.80794e-06
5.80539e-06
1.16815e-05
9.2542e-06
1.16839e-05
5.7832e-06
6.98797e-06
1.70423e-05
1.56033e-05
7.54924e-06
1.56909e-05
7.69577e-06
6.96882e-06
6.9895e-06
1.59144e-05
7.67549e-06
1.72422e-05
1.58903e-05
7.67142e-06
6.98523e-06
5.83205e-06
9.1961e-06
1.17006e-05
1.17189e-05
5.80648e-06
5.83227e-06
1.1735e-05
9.15413e-06
1.17087e-05
5.83204e-06
7.03e-06
1.71796e-05
1.59132e-05
7.64177e-06
1.59115e-05
7.68281e-06
7.12397e-06
1.571e-05
7.65334e-06
7.00223e-06
1.16927e-05
5.75072e-06
1.58675e-05
7.62575e-06
6.96346e-06
1.1715e-05
5.79679e-06
6.17906e-06
6.22393e-06
6.31256e-06
6.33562e-06
5.64601e-06
8.71974e-06
2.50339e-05
2.51414e-05
2.6038e-05
2.49778e-05
2.49723e-05
2.38288e-05
2.38154e-05
2.51169e-05
2.50647e-05
2.59743e-05
2.4895e-05
2.4858e-05
2.38225e-05
2.38696e-05
2.21717e-05
2.64565e-05
2.6541e-05
2.93204e-05
2.67488e-05
2.64698e-05
2.21482e-05
2.19479e-05
2.64194e-05
2.64306e-05
2.90941e-05
2.64599e-05
2.63962e-05
2.1937e-05
2.23518e-05
2.91334e-05
2.66497e-05
2.63829e-05
2.67714e-05
2.66394e-05
2.23334e-05
2.21457e-05
2.6568e-05
2.63636e-05
2.92078e-05
2.64396e-05
2.68216e-05
2.24413e-05
2.2251e-05
2.90839e-05
2.65644e-05
2.65282e-05
2.65286e-05
2.65252e-05
2.22074e-05
2.27577e-05
2.66476e-05
2.63995e-05
2.93136e-05
2.24902e-05
2.69362e-05
2.67316e-05
2.22137e-05
2.65917e-05
2.64835e-05
2.90687e-05
2.64632e-05
2.25003e-05
2.65944e-05
2.25196e-05
2.69037e-05
2.69204e-05
2.9273e-05
2.6681e-05
2.6913e-05
2.25501e-05
2.50011e-05
2.4994e-05
2.61796e-05
2.51159e-05
2.4922e-05
2.38722e-05
2.37633e-05
2.49603e-05
2.50388e-05
2.61453e-05
2.48927e-05
2.51755e-05
2.40592e-05
2.40499e-05
2.48914e-05
2.51776e-05
2.60155e-05
2.49855e-05
2.50331e-05
2.37846e-05
2.36963e-05
2.59909e-05
2.5068e-05
2.48783e-05
2.50681e-05
2.50979e-05
2.41744e-05
2.3954e-05
2.62051e-05
2.49868e-05
2.49346e-05
2.48856e-05
2.49906e-05
2.38114e-05
2.37476e-05
2.62109e-05
2.49027e-05
2.50932e-05
2.49379e-05
2.5337e-05
2.40218e-05
2.40699e-05
2.60049e-05
2.49575e-05
2.50216e-05
2.49691e-05
2.49941e-05
2.37766e-05
2.40638e-05
2.80714e-05
2.32542e-05
2.86643e-05
2.4153e-05
2.31979e-05
2.8551e-05
2.82118e-05
2.72185e-05
2.51968e-05
1.79499e-05
2.11545e-05
2.49525e-05
2.14171e-05
2.71221e-05
2.69782e-05
2.124e-05
1.82456e-05
2.50635e-05
2.50153e-05
2.11745e-05
2.70389e-05
2.83258e-05
2.41446e-05
2.3347e-05
2.86148e-05
2.34859e-05
2.85801e-05
2.82869e-05
2.51693e-05
2.48787e-05
2.62416e-05
2.49735e-05
2.50482e-05
2.37288e-05
2.37693e-05
2.48419e-05
2.50626e-05
2.596e-05
2.48429e-05
2.49796e-05
2.38029e-05
2.37727e-05
2.49858e-05
2.49681e-05
2.60381e-05
2.51772e-05
2.49416e-05
2.39584e-05
2.38418e-05
2.84568e-05
2.42333e-05
2.33586e-05
2.86391e-05
2.33255e-05
2.8649e-05
2.82843e-05
2.70989e-05
2.47769e-05
2.13664e-05
1.81042e-05
2.70816e-05
2.47863e-05
2.1401e-05
2.83731e-05
2.42632e-05
2.34448e-05
2.87243e-05
2.825e-05
2.35783e-05
2.86909e-05
2.70688e-05
2.13656e-05
1.79949e-05
2.48549e-05
2.47805e-05
2.13241e-05
2.70972e-05
2.8305e-05
2.89133e-05
2.38691e-05
2.46152e-05
2.8981e-05
2.357e-05
2.8427e-05
2.73438e-05
2.5295e-05
1.82412e-05
2.14639e-05
2.53914e-05
2.17424e-05
2.72979e-05
2.75072e-05
2.1695e-05
1.82297e-05
2.51844e-05
2.51076e-05
2.14817e-05
2.75968e-05
2.85044e-05
2.44125e-05
2.89506e-05
2.35151e-05
2.91661e-05
2.35995e-05
2.83496e-05
2.24163e-05
2.91139e-05
2.66321e-05
2.64622e-05
2.66545e-05
2.65079e-05
2.24778e-05
2.19645e-05
2.90814e-05
2.64506e-05
2.63145e-05
2.22738e-05
2.64248e-05
2.65794e-05
2.20778e-05
2.91316e-05
2.66985e-05
2.62975e-05
2.21388e-05
2.64728e-05
2.63547e-05
2.85515e-05
2.41612e-05
2.89318e-05
2.49279e-05
2.40264e-05
2.89624e-05
2.85068e-05
2.73071e-05
2.48949e-05
1.82158e-05
2.19997e-05
2.19211e-05
2.48807e-05
2.72395e-05
2.72836e-05
2.19517e-05
1.83711e-05
2.48703e-05
2.1939e-05
2.51156e-05
2.73151e-05
2.87352e-05
2.47332e-05
2.3758e-05
2.89978e-05
2.38022e-05
2.91477e-05
2.84608e-05
2.8521e-05
2.40168e-05
2.89544e-05
2.45752e-05
2.38786e-05
2.8962e-05
2.84979e-05
2.73031e-05
2.48967e-05
1.8233e-05
2.15081e-05
2.1537e-05
2.49393e-05
2.73853e-05
2.74341e-05
2.1536e-05
1.81731e-05
2.52333e-05
2.14641e-05
2.73085e-05
2.49957e-05
2.87659e-05
2.46021e-05
2.37845e-05
2.90082e-05
2.40123e-05
2.89921e-05
2.85834e-05
2.8545e-05
2.3887e-05
2.89204e-05
2.46609e-05
2.84765e-05
2.4063e-05
2.89705e-05
2.73437e-05
2.49301e-05
1.80716e-05
2.17667e-05
2.51821e-05
2.18253e-05
2.75087e-05
2.7286e-05
2.20158e-05