/*--------------------------------*- C++ -*----------------------------------*\
| =========                 |                                                 |
| \\      /  F ield         | OpenFOAM: The Open Source CFD Toolbox           |
|  \\    /   O peration     | Version:  2206                                  |
|   \\  /    A nd           | Website:  www.openfoam.com                      |
|    \\/     M anipulation  |                                                 |
\*---------------------------------------------------------------------------*/
FoamFile
{
    version     2.0;
    format      ascii;
    arch        "LSB;label=32;scalar=64";
    class       surfaceScalarField;
    location    "20";
    object      phi;
}
// * * * * * * * * * * * * * * * * * * * * * * * * * * * * * * * * * * * * * //

dimensions      [0 3 -1 0 0 0 0];

oriented        oriented;

internalField   nonuniform List<scalar> 
196294
(
-1.44007e-11
9.16318e-11
1.47324e-11
6.20371e-12
1.84813e-08
4.3164e-11
-8.65734e-14
-4.03456e-12
-1.14945e-11
-2.23607e-08
2.23332e-08
-4.47297e-13
9.261e-12
3.08648e-12
-1.83937e-08
5.32645e-12
1.83765e-08
-4.33923e-11
-2.4782e-13
-9.42352e-12
7.78561e-11
-2.33665e-08
2.33417e-08
-1.07325e-11
-9.67972e-12
1.31053e-11
1.95693e-11
2.3163e-08
6.62622e-12
-5.61253e-12
8.0657e-11
-1.09978e-10
1.09556e-10
-8.19484e-11
1.03184e-07
7.50418e-13
2.06096e-12
-9.65612e-09
7.77074e-12
9.64554e-09
-2.02085e-13
-9.72903e-12
1.21945e-11
-4.44019e-12
-2.38206e-08
2.38228e-08
-1.5641e-12
4.58662e-11
-5.8657e-13
-5.34111e-12
-2.04319e-11
1.71024e-11
5.7535e-12
-4.56882e-11
-1.08264e-11
1.35053e-11
1.02347e-07
-3.38895e-11
2.17264e-12
-5.64581e-12
8.55888e-12
-8.63995e-12
4.38709e-12
1.02609e-07
-2.13063e-12
-8.07338e-13
6.26697e-12
-2.34859e-08
2.86986e-12
2.34797e-08
-3.26905e-11
-4.59703e-11
-2.4584e-08
-3.62076e-11
-2.1309e-11
2.47201e-08
6.9117e-12
-2.10368e-12
-1.71184e-12
-2.69797e-08
2.0085e-11
2.69565e-08
2.44198e-12
4.91492e-13
-3.77311e-13
-2.70761e-08
1.14416e-11
2.70621e-08
3.42667e-11
8.45881e-12
9.70401e-09
2.16311e-12
-9.65667e-09
7.67518e-12
9.64636e-09
-4.34328e-11
-3.77016e-11
-2.45725e-08
-2.7387e-11
-2.97835e-11
2.47108e-08
6.10206e-11
-2.48146e-11
1.27045e-10
2.7087e-08
6.4693e-12
-1.64936e-12
-2.6782e-08
2.03419e-11
2.6759e-08
9.05145e-10
-3.961e-11
-8.73175e-11
8.27857e-12
-3.11811e-10
-3.9508e-10
1.03222e-07
7.25408e-11
1.93678e-10
2.32598e-08
-2.58734e-12
-5.41677e-11
-9.82798e-12
2.68829e-08
5.31696e-13
7.45482e-12
9.64812e-09
-2.07725e-13
-9.44292e-12
7.7581e-11
-2.33655e-08
2.33407e-08
1.44694e-10
-8.36242e-11
-4.02332e-11
-2.53075e-11
2.55609e-11
4.67472e-11
-4.69722e-11
4.56404e-11
-4.51951e-11
1.01462e-07
1.28839e-11
-2.31706e-08
2.13571e-11
2.31521e-08
3.08643e-11
-7.96158e-11
8.06148e-11
-1.09997e-10
1.09699e-10
-8.02666e-11
1.03394e-07
4.32974e-11
-1.15087e-11
-4.31328e-12
-2.2357e-08
2.23294e-08
9.53909e-12
3.51487e-12
-1.83891e-08
5.31767e-12
1.83715e-08
7.77188e-11
-9.57263e-12
-2.33627e-08
2.33376e-08
-2.19038e-13
3.24017e-11
-2.78187e-12
2.85729e-11
-4.42384e-11
-2.88867e-11
4.48783e-11
-3.19669e-11
-2.63307e-11
2.16007e-11
1.02477e-07
-7.08612e-12
6.52196e-11
-1.09552e-10
1.09262e-10
-6.50886e-11
1.0433e-07
-7.12659e-12
1.31736e-11
-2.31551e-08
2.16215e-11
2.31369e-08
-2.59663e-14
-4.07784e-12
-1.14187e-11
2.23349e-08
3.22651e-12
5.29865e-12
1.83792e-08
-4.34093e-11
7.7859e-11
-9.54587e-12
-2.33636e-08
2.33385e-08
1.18856e-12
-2.18101e-12
-3.22019e-11
-2.24857e-11
2.13251e-11
2.82095e-11
-4.63166e-11
4.46795e-11
-2.8791e-11
1.02475e-07
-5.30794e-12
6.49921e-11
-1.09639e-10
1.0917e-10
-6.51916e-11
1.04309e-07
-9.53386e-12
1.30566e-11
-2.31666e-08
2.14583e-11
2.31485e-08
-1.14359e-11
-4.23334e-12
2.23308e-08
-5.29983e-13
3.45751e-12
5.32993e-12
1.83719e-08
-2.45789e-08
-3.02674e-11
-2.71855e-11
2.47146e-08
-1.21918e-11
-2.68398e-08
1.46733e-11
2.68323e-08
6.88272e-13
9.91781e-12
-2.72147e-08
1.74978e-11
2.71844e-08
-5.19642e-13
-9.83659e-09
7.31978e-12
9.83046e-09
-1.00664e-11
1.21591e-11
-4.45631e-12
-2.38232e-08
2.38254e-08
-9.84923e-13
-1.41564e-13
-4.5962e-11
-1.49889e-11
1.3729e-11
-5.33291e-12
-1.82196e-11
1.71409e-11
5.80544e-12
1.02377e-07
1.23e-12
-5.63325e-12
8.61097e-12
-8.3694e-12
4.59791e-12
1.02553e-07
-9.79571e-13
6.39364e-12
-2.34802e-08
2.62243e-12
2.34746e-08
-2.6712e-14
-1.82177e-12
1.49703e-13
-2.29076e-08
2.28995e-08
2.05668e-12
-1.87541e-08
5.18035e-12
1.87454e-08
-1.899e-12
3.94682e-13
-2.29115e-08
2.29029e-08
5.42118e-13
2.16806e-12
-1.87595e-08
5.17408e-12
1.87507e-08
7.81688e-12
9.64533e-09
-9.83864e-09
7.4256e-12
9.8322e-09
-2.84254e-11
1.55362e-10
2.6147e-08
1.10351e-11
8.07243e-09
-8.76811e-12
-9.23749e-13
1.40915e-08
1.02298e-12
-4.81262e-12
-2.1853e-08
-8.74637e-12
-5.95546e-12
3.56185e-11
2.18281e-08
-1.69337e-08
-9.40161e-13
2.36266e-14
5.20716e-12
1.69179e-08
4.22946e-12
1.19786e-11
-1.74573e-13
-4.39122e-11
6.20566e-12
-3.59373e-11
-1.49417e-13
-5.109e-12
-1.01869e-12
5.03026e-12
1.40778e-08
1.50791e-12
8.03595e-09
-8.86426e-12
-2.60309e-08
1.62777e-12
2.2357e-11
2.6004e-08
-3.38014e-12
2.24968e-13
-9.43146e-12
-5.37207e-12
-2.30759e-11
9.24599e-12
8.02729e-09
-7.50814e-14
-2.52771e-12
-7.97449e-12
1.65142e-12
1.13819e-12
2.02381e-08
-1.16102e-11
-1.25912e-11
-8.11592e-09
1.59895e-12
-6.93377e-13
7.86132e-12
8.10715e-09
-8.16325e-09
1.00811e-12
-7.32839e-13
7.4759e-12
8.1555e-09
1.32995e-12
-8.11812e-12
1.02721e-12
-7.57655e-12
1.16203e-11
1.26104e-11
2.02164e-08
-2.0333e-11
6.49584e-12
2.23289e-08
-1.56978e-11
-1.77892e-08
6.26138e-12
4.91365e-12
1.77758e-08
-2.03713e-11
1.20831e-12
-7.07444e-12
-2.41134e-08
-2.04678e-11
3.64989e-11
3.10121e-11
2.40864e-08
-3.65645e-11
-3.09089e-11
-5.05526e-12
1.54696e-11
2.23108e-08
-1.80029e-11
3.44644e-12
2.13869e-08
-9.60857e-12
-1.76566e-08
3.12806e-12
5.00618e-12
1.76473e-08
-1.17593e-11
-4.1757e-14
-1.46925e-13
-2.22406e-12
-2.34937e-08
-1.83753e-11
2.24024e-11
2.37408e-11
2.34773e-08
-2.324e-11
-2.27307e-11
-5.02876e-12
8.83018e-12
2.13754e-08
-2.25846e-12
-7.79608e-12
1.60074e-12
1.84437e-12
2.02389e-08
-1.05558e-11
-1.30325e-11
-8.15962e-09
1.13637e-12
-9.09107e-13
7.38878e-12
8.15201e-09
-8.11887e-09
2.17075e-12
-5.35325e-13
7.3178e-12
8.10991e-09
1.55679e-12
-7.42505e-12
6.83392e-13
-7.53416e-12
1.15491e-11
1.25839e-11
2.0218e-08
3.73119e-12
2.24064e-08
-1.29998e-11
-1.79399e-08
4.31567e-11
5.06047e-12
1.78659e-08
-4.92627e-11
1.37542e-10
1.41725e-10
2.421e-08
-4.79161e-12
1.19737e-11
2.23999e-08
6.74064e-12
2.1314e-08
-2.19488e-11
-1.14659e-11
-1.75093e-08
6.63769e-12
4.94678e-12
1.74955e-08
1.8027e-12
-2.04214e-11
-6.99057e-12
-2.11222e-11
-2.33317e-08
3.41142e-11
3.09179e-11
2.33081e-08
-5.01337e-12
1.22617e-11
2.12998e-08
-3.36105e-11
-3.15682e-11
-7.13831e-11
7.53053e-11
7.1826e-12
8.10947e-09
2.86718e-10
2.0232e-08
-8.27293e-11
4.99975e-12
1.77399e-08
-1.63588e-10
5.2826e-11
2.36579e-08
2.21158e-08
-7.32355e-13
-9.06267e-12
1.40837e-08
8.61576e-13
-4.639e-12
-1.69288e-08
-9.89754e-13
5.18874e-12
1.69131e-08
-2.18435e-08
-8.54558e-12
-6.20943e-12
3.55371e-11
2.18184e-08
1.19421e-11
3.93922e-12
-4.39109e-11
-5.17905e-12
6.02157e-12
-3.62914e-11
-1.08842e-12
4.96618e-12
1.40703e-08
1.26767e-12
8.03144e-09
-8.93257e-12
-2.60183e-08
1.90212e-12
2.24544e-11
2.59912e-08
-2.99113e-12
-9.99302e-12
-5.20782e-12
-2.32165e-11
9.26024e-12
8.0229e-09
-8.50448e-12
-5.92957e-12
3.55857e-11
2.18293e-08
-9.45793e-13
2.40531e-14
5.38504e-12
1.69166e-08
-9.19094e-13
5.03783e-12
1.4079e-08
2.00681e-12
2.23713e-11
2.60054e-08
9.24097e-12
8.02914e-09
-9.6038e-13
5.34946e-12
1.6912e-08
-8.50483e-12
-6.21573e-12
3.56531e-11
2.18202e-08
-1.04974e-12
5.04227e-12
1.40696e-08
1.98274e-12
2.25654e-11
2.59928e-08
9.36698e-12
8.02225e-09
4.1179e-12
-1.10064e-12
2.02443e-08
3.59878e-12
-2.90133e-11
-8.11938e-09
-2.63023e-11
2.70001e-11
7.71705e-12
8.11097e-09
-8.16063e-09
2.83598e-11
-2.95536e-11
7.55385e-12
8.15428e-09
3.56468e-12
-7.80775e-12
-1.47275e-12
-7.48437e-12
1.32184e-10
-1.15344e-10
2.02294e-08
8.79085e-12
-1.79466e-11
2.13442e-08
-3.14183e-11
-1.74986e-08
-2.33752e-11
4.86265e-12
1.7532e-08
1.42081e-12
-2.03942e-11
-7.04352e-12
-2.36976e-08
-6.62127e-11
3.45791e-11
5.02766e-12
2.37389e-08
-4.98416e-12
-3.08345e-11
-3.78855e-11
-1.18098e-10
2.15048e-08
-2.08834e-11
1.83559e-12
2.23834e-08
5.00286e-12
-1.79506e-08
3.25905e-11
5.10775e-12
1.78931e-08
-1.24977e-11
1.57141e-13
-1.58967e-13
-2.16019e-12
-2.3914e-08
2.77865e-11
1.9702e-11
5.49077e-11
2.3829e-08
-2.27728e-11
-2.19888e-11
-5.04409e-12
1.38059e-10
2.21903e-08
9.34849e-13
-7.32461e-12
8.19938e-13
-3.87573e-13
1.45008e-08
1.08443e-13
-4.58879e-12
-2.23612e-08
9.56633e-13
-2.87723e-12
7.76695e-12
2.23535e-08
-1.7437e-08
-4.68089e-13
1.00601e-13
4.89909e-12
1.74326e-08
1.93668e-12
4.11688e-13
-6.76286e-14
-1.02749e-11
2.87702e-12
-7.78395e-12
-7.50952e-14
-4.64719e-12
-1.4434e-13
4.83412e-12
1.44965e-08
5.47077e-12
8.26247e-09
-8.32507e-12
-2.65918e-08
6.09717e-12
4.56801e-12
2.65803e-08
-1.95904e-12
-8.09998e-13
-5.26563e-12
-5.27513e-12
8.88641e-12
8.25953e-09
7.9761e-13
-4.04938e-13
1.4507e-08
3.22568e-14
-4.42825e-12
-2.23701e-08
9.15433e-13
-2.99085e-12
8.11195e-12
2.23622e-08
-1.74404e-08
-4.44449e-13
4.93675e-12
1.74363e-08
1.83711e-12
9.09528e-14
-1.04606e-11
2.7071e-12
-8.05647e-12
-4.81763e-12
-1.40273e-13
4.66752e-12
1.45029e-08
5.28072e-12
8.26794e-09
-8.6007e-12
-2.66027e-08
5.9604e-12
4.63475e-12
2.65912e-08
-1.93118e-12
-8.74193e-13
-1.26232e-12
-5.08569e-12
-5.23512e-12
8.90672e-12
8.26478e-09
-7.441e-12
-1.59185e-10
3.75579e-10
1.05683e-07
2.5831e-10
-3.67088e-10
1.12244e-07
-3.0639e-10
3.44135e-11
1.07741e-07
-3.09912e-10
5.02791e-12
1.15998e-07
3.38175e-10
-7.32729e-12
1.05547e-07
-9.61342e-13
1.12253e-07
7.90544e-12
7.95521e-12
1.07058e-07
3.2823e-12
1.15401e-07
-4.89437e-12
-1.12196e-12
1.05328e-07
-9.18742e-13
1.10419e-07
2.14282e-11
-3.48765e-10
1.05529e-07
-3.17796e-10
1.16227e-07
-1.28143e-11
5.77902e-12
1.05348e-07
4.979e-12
1.10388e-07
-1.65355e-11
1.04826e-07
1.15503e-07
6.01781e-11
-1.61866e-11
2.36892e-08
-2.30556e-08
6.0186e-11
-1.29951e-11
2.30345e-08
-2.42724e-08
-1.5804e-11
-6.60202e-12
2.42627e-08
9.72824e-12
-7.84911e-11
-1.09464e-13
6.13734e-12
2.45444e-11
2.36271e-08
3.81353e-11
2.35885e-08
3.60565e-11
2.39099e-08
2.41874e-08
-5.45212e-12
7.53615e-12
2.395e-08
-4.85594e-11
-2.4625e-08
-5.56278e-12
-4.99329e-13
2.46518e-08
-2.34409e-08
8.0056e-12
-5.30261e-12
2.34415e-08
-1.28078e-11
4.46514e-12
-9.54407e-14
-2.12945e-14
4.94692e-12
4.82843e-11
2.39086e-08
2.15502e-11
4.00029e-12
2.44044e-08
-2.39795e-08
2.74835e-12
2.39822e-08
-2.54635e-12
-6.4974e-12
-2.41723e-08
2.20075e-11
2.41523e-08
2.44832e-08
-1.27122e-11
-1.55289e-11
2.29469e-08
3.74491e-11
2.3347e-11
-2.4301e-08
-1.16676e-11
2.42904e-08
-2.33106e-08
-1.49855e-11
2.33116e-08
2.29445e-08
2.29371e-08
-9.89253e-12
-1.76958e-11
3.04787e-11
2.93776e-11
-1.08951e-11
-2.43733e-08
2.4407e-08
-1.5613e-11
-2.32348e-08
2.32294e-08
2.29348e-08
2.82839e-10
2.3705e-08
1.57809e-10
2.40479e-08
2.42768e-08
6.03733e-11
-1.60621e-11
2.36882e-08
-2.40246e-11
-2.30538e-08
5.98104e-11
-1.29923e-11
2.30332e-08
-2.42714e-08
-1.58878e-11
-6.41857e-12
2.42613e-08
9.7202e-12
-7.88523e-11
-9.97472e-14
1.32678e-11
6.32935e-12
2.12031e-11
2.36306e-08
3.87016e-11
3.51697e-11
2.4133e-08
-2.36012e-08
3.74461e-11
2.35859e-08
-1.37295e-11
-2.11928e-11
-2.38939e-08
3.45754e-11
2.38646e-08
2.4181e-08
-1.8987e-11
6.0412e-11
2.36891e-08
2.62613e-11
-2.42701e-08
-1.86641e-11
2.42505e-08
-2.30463e-08
5.89625e-11
-1.57887e-11
2.30291e-08
-7.88784e-11
9.46214e-12
1.60653e-11
-2.56979e-11
2.369e-08
3.83844e-11
2.41096e-08
3.78935e-11
-2.35912e-08
3.72512e-11
2.35737e-08
-1.35625e-11
-2.15854e-11
3.78554e-11
-2.38994e-08
2.38734e-08
2.41301e-08
-1.89522e-11
5.99237e-11
2.36894e-08
2.63165e-11
-2.42701e-08
-1.86913e-11
2.42504e-08
-2.30475e-08
5.88662e-11
-1.58137e-11
2.30306e-08
-7.88533e-11
9.57984e-12
1.6122e-11
-2.57317e-11
2.36901e-08
3.79487e-11
3.774e-11
2.41129e-08
-2.35934e-08
3.70416e-11
2.35762e-08
-2.1241e-11
-1.35873e-11
-2.39498e-08
3.76279e-11
2.39183e-08
2.41331e-08
-1.69717e-11
-1.14074e-11
2.29277e-08
2.3743e-11
3.68241e-11
-2.4244e-08
-5.41653e-11
2.42465e-08
-2.33439e-08
2.71749e-11
2.33336e-08
2.29206e-08
-5.3814e-12
7.56485e-12
2.3954e-08
-4.86871e-11
-2.46278e-08
-5.54695e-12
2.46536e-08
-2.34464e-08
8.02395e-12
-5.33572e-12
2.34473e-08
-1.27739e-11
4.36023e-12
4.8574e-12
4.82985e-11
2.39128e-08
2.1293e-11
4.16674e-12
2.44076e-08
-2.39853e-08
2.8727e-12
2.39881e-08
-2.68487e-12
-6.53622e-12
-2.4126e-08
2.19138e-11
2.41122e-08
2.44865e-08
2.99092e-12
-2.34439e-13
2.86065e-13
3.58026e-09
1.36647e-12
-1.33247e-13
1.60371e-13
1.9929e-09
5.15944e-13
-6.68719e-14
9.28545e-14
9.92131e-10
1.29753e-13
-2.95619e-14
5.36828e-14
4.11692e-10
-4.75465e-15
3.17488e-15
9.81639e-11
3.014e-12
9.07078e-14
-3.58286e-09
9.22493e-14
3.58497e-09
1.49755e-12
1.25449e-13
-1.9944e-09
-8.13689e-15
1.99578e-09
6.13725e-13
8.3636e-14
-9.9277e-10
-2.11916e-14
9.93574e-10
1.84425e-13
3.52781e-14
-4.11856e-10
-9.85407e-15
4.12245e-10
1.60954e-14
-9.81233e-11
-6.24275e-15
9.82858e-11
4.64781e-12
3.51134e-14
-6.77012e-09
-1.42232e-13
6.77324e-09
2.47593e-12
-5.70279e-14
-3.75428e-09
-1.27877e-13
3.75643e-09
1.19783e-12
-6.8655e-14
-1.86827e-09
-1.0747e-13
1.86945e-09
5.09518e-13
-5.40444e-14
-7.76414e-10
-8.30101e-14
7.76912e-10
-1.13907e-14
-1.85598e-10
-1.06243e-14
1.85846e-10
4.46617e-12
-2.03584e-13
6.77016e-09
2.16143e-12
-1.57718e-13
3.75422e-09
8.78189e-13
-9.48415e-14
1.86813e-09
2.45054e-13
-4.11769e-14
7.76347e-10
-1.3837e-14
1.85758e-10
4.52617e-12
-6.77047e-09
3.8755e-14
6.77363e-09
2.31072e-12
-3.75435e-09
2.51754e-14
3.75659e-09
9.9439e-13
-1.86822e-09
6.07833e-15
1.86951e-09
3.09062e-13
-7.7627e-10
-8.0782e-15
7.76892e-10
-1.85561e-10
1.95892e-15
1.85819e-10
4.29731e-12
-3.84449e-14
1.02551e-13
6.77428e-09
2.13984e-12
-8.48317e-14
8.60861e-14
3.7571e-09
8.7087e-13
-5.67514e-14
6.52168e-14
1.86981e-09
2.33244e-13
-1.869e-14
4.01833e-14
7.77049e-10
-1.37626e-14
7.19409e-15
1.85904e-10
2.92867e-12
-3.5823e-09
2.60867e-13
3.58448e-09
1.39284e-12
-1.99423e-09
1.23845e-13
1.99567e-09
5.12808e-13
-9.92627e-10
7.19696e-14
9.93495e-10
1.04259e-13
-4.11824e-10
4.89501e-14
4.12277e-10
-9.81045e-11
3.10843e-15
9.82711e-11
2.97331e-12
1.48144e-13
3.5855e-09
1.48054e-12
2.35056e-14
1.99617e-09
6.11456e-13
-1.17478e-14
9.93779e-10
1.92741e-13
-1.28877e-14
4.12357e-10
-4.40597e-15
9.83233e-11
2.90024e-12
2.53945e-14
2.87559e-13
3.58433e-09
1.32552e-12
1.13427e-13
1.68906e-13
1.99543e-09
4.19389e-13
1.22574e-13
1.25908e-13
9.934e-10
1.84903e-14
9.95438e-14
9.76517e-14
4.12252e-10
1.47419e-14
8.26496e-15
9.82992e-11
4.1262e-12
4.12987e-14
-1.00401e-14
-6.76379e-09
6.76698e-09
1.92488e-12
-4.08386e-16
2.51907e-14
-3.75065e-09
3.75299e-09
6.25109e-13
2.35089e-14
4.11173e-14
-1.86644e-09
1.86791e-09
1.15717e-14
4.65249e-14
4.49822e-14
-7.75501e-10
7.76321e-10
-5.24766e-15
1.27786e-15
-1.85444e-10
1.85714e-10
2.97893e-12
-3.57511e-09
1.44653e-13
3.5771e-09
1.53549e-12
-1.99068e-09
7.17784e-15
1.99195e-09
7.00706e-13
-9.91052e-10
-4.23358e-14
9.91747e-10
2.8187e-13
-4.11206e-10
-5.09607e-14
4.11501e-10
-9.79719e-11
-3.80224e-15
9.81263e-11
2.91962e-12
-2.05909e-14
-3.57647e-09
2.33522e-13
3.5785e-09
1.44195e-12
3.5107e-14
-1.9914e-09
1.02557e-13
1.99273e-09
5.81782e-13
1.99902e-14
-9.91374e-10
5.19414e-14
9.92154e-10
1.70816e-13
-4.22199e-15
-4.11346e-10
3.05994e-14
4.11727e-10
9.07535e-15
-9.80007e-11
2.38566e-15
9.81609e-11
4.69235e-12
-1.20309e-13
6.77263e-09
2.47784e-12
-1.13866e-13
3.75592e-09
1.13027e-12
-1.10114e-13
1.86916e-09
4.05602e-13
-9.6275e-14
7.76755e-10
-8.60996e-15
1.85825e-10
4.33865e-12
-3.71833e-14
-6.76539e-09
6.76849e-09
2.15389e-12
-2.34231e-14
-3.75173e-09
3.75398e-09
8.49828e-13
-1.53014e-14
-1.86684e-09
1.8682e-09
2.00911e-13
-7.5506e-15
-7.75734e-10
7.76429e-10
-2.19122e-15
-1.85445e-10
1.85705e-10
-2.79945e-12
-2.12247e-13
4.19845e-09
3.89015e-13
-1.39677e-12
-1.16673e-13
2.32953e-09
2.38197e-13
-5.81627e-13
-4.55736e-14
1.15851e-09
1.36437e-13
-1.94354e-13
-5.6082e-15
4.80738e-10
6.95605e-14
-6.35654e-15
1.14661e-10
1.5396e-14
3.03611e-12
-4.56003e-09
-1.52618e-13
1.12814e-14
4.56232e-09
1.54185e-12
-2.53079e-09
-8.89141e-14
2.65822e-14
2.53233e-09
6.35822e-13
-1.2596e-09
-4.66709e-14
3.81284e-14
1.26051e-09
1.66339e-13
-5.23208e-10
-1.55068e-14
3.74173e-14
5.23663e-10
-1.24989e-10
-7.6935e-15
3.90106e-15
1.25173e-10
-2.93778e-12
-6.61615e-14
-1.43073e-12
-5.507e-14
-5.65039e-13
-4.22275e-14
-1.63062e-13
-3.0861e-14
-2.58122e-15
2.94761e-12
-3.38654e-13
4.20065e-09
1.50343e-12
-2.02794e-13
2.33099e-09
6.41802e-13
-1.21644e-13
1.15933e-09
2.07926e-13
-6.62609e-14
4.81113e-10
-1.4941e-14
1.14832e-10
-3.03988e-12
-1.45161e-14
-2.20213e-13
-1.4801e-12
-5.6401e-14
-9.35619e-14
-5.85341e-13
-5.13948e-14
-3.61902e-14
-1.67335e-13
-3.72633e-14
-8.31599e-15
-7.32303e-15
-4.35591e-15
-4.73432e-12
1.57368e-13
-3.8117e-14
-2.45728e-12
1.78454e-13
2.59113e-14
-1.10184e-12
1.47086e-13
6.30401e-14
-3.89182e-13
1.04238e-13
6.91753e-14
1.58002e-14
5.85872e-15
2.66905e-12
-3.55928e-09
1.65061e-13
3.56137e-09
1.202e-12
-1.98122e-09
1.28185e-13
1.98269e-09
3.60151e-13
-9.86241e-10
1.1947e-13
9.87184e-10
-1.48142e-14
-4.09108e-10
9.9077e-14
4.09638e-10
-9.7501e-11
1.17716e-14
9.76711e-11
-2.78071e-12
-3.36822e-13
-1.31535e-12
-2.15405e-13
-4.76074e-13
-1.58007e-13
-9.44335e-14
-1.15997e-13
-1.1145e-14
2.82354e-12
-3.55707e-09
9.27666e-14
3.55908e-09
1.43528e-12
-1.98017e-09
5.19963e-15
1.98147e-09
6.31338e-13
-9.85798e-10
-3.63462e-14
9.86529e-10
2.35631e-13
-4.09007e-10
-5.09744e-14
4.09339e-10
-9.74612e-11
-1.09587e-15
9.7613e-11
-2.90728e-12
3.75577e-14
-1.26193e-13
-1.47821e-12
2.228e-14
-1.44819e-14
-6.40477e-13
2.58508e-14
2.37145e-14
-2.28156e-13
3.32165e-14
3.24279e-14
-4.57642e-15
1.5514e-15
-4.57573e-12
2.5689e-14
-2.2877e-12
4.93416e-14
-9.53944e-13
4.65258e-14
-2.856e-13
3.16253e-14
8.10832e-15
4.14521e-12
-2.39409e-13
6.54544e-09
2.046e-12
-1.32255e-13
3.62564e-09
8.17887e-13
-6.64212e-14
1.80272e-09
2.18026e-13
-2.12957e-14
7.48467e-10
-1.13227e-14
1.78875e-10
2.78304e-12
3.56202e-09
1.36585e-12
1.98279e-09
5.50694e-13
9.87132e-10
1.62697e-13
4.09601e-10
9.76818e-11
-2.63654e-12
-1.82599e-13
4.19651e-09
2.42516e-13
-1.2414e-12
-1.39599e-13
2.32844e-09
1.15661e-13
-4.28249e-13
-1.0896e-13
1.15789e-09
4.38592e-14
-6.58581e-14
-7.99624e-14
4.80492e-10
5.58646e-15
-1.02691e-14
1.1461e-10
6.71491e-15
3.07846e-12
-4.55875e-09
-1.98838e-13
4.56098e-09
1.61908e-12
-2.53011e-09
-1.31966e-13
2.53159e-09
7.37626e-13
-1.2593e-09
-8.46671e-14
1.26013e-09
2.75577e-13
-5.23114e-10
-4.86207e-14
5.2348e-10
-1.24958e-10
-9.08395e-15
1.25135e-10
-3.02935e-12
-1.51262e-12
-6.12622e-13
-1.78315e-13
2.8516e-12
-3.59322e-13
4.1988e-09
1.4093e-12
-1.90854e-13
2.32999e-09
5.69732e-13
-8.67853e-14
1.15879e-09
1.61704e-13
-2.63251e-14
4.80942e-10
-1.22023e-14
1.14786e-10
-2.89444e-12
-1.34693e-13
-1.37959e-12
-6.03973e-14
-5.30017e-13
-4.74763e-14
-1.36222e-13
-4.30078e-14
-1.29766e-15
3.1081e-12
-1.88731e-13
2.14941e-14
4.56203e-09
1.57649e-12
-1.16164e-13
3.51169e-14
2.5322e-09
6.61062e-13
-6.89838e-14
4.39302e-14
1.26027e-09
1.99921e-13
-3.40071e-14
4.11505e-14
5.23681e-10
-9.74545e-15
3.4866e-15
1.25145e-10
2.93441e-12
-3.556e-13
4.20102e-09
1.49529e-12
-2.24537e-13
2.33112e-09
6.34734e-13
-1.43196e-13
1.15933e-09
1.98554e-13
-8.47392e-14
4.81155e-10
-1.63176e-14
1.14825e-10
3.13923e-12
-2.2036e-13
4.56047e-09
1.65326e-12
-1.59828e-13
2.53142e-09
7.62315e-13
-1.17925e-13
1.25991e-09
2.81376e-13
-7.99668e-14
5.23438e-10
-1.26134e-14
1.25107e-10
2.88715e-12
-3.45379e-13
4.19813e-09
1.41113e-12
-1.82643e-13
2.32963e-09
5.41459e-13
-8.40676e-14
1.15861e-09
1.23273e-13
-2.48177e-14
4.80851e-10
-1.30394e-14
1.14756e-10
4.35604e-12
-1.141e-13
1.19878e-13
-6.54171e-09
6.54495e-09
2.00735e-12
-1.56533e-14
1.08961e-13
-3.62328e-09
3.62573e-09
6.26647e-13
3.68538e-14
9.18776e-14
-1.80113e-09
1.80267e-09
-5.11224e-15
5.87554e-14
7.35788e-14
-7.47638e-10
7.48489e-10
5.92388e-16
7.40355e-15
-1.78607e-10
1.78882e-10
2.79308e-12
-3.55665e-09
3.55872e-09
1.41206e-12
-1.97993e-09
1.98116e-09
6.13607e-13
-9.8573e-10
9.86386e-10
2.25006e-13
-4.09015e-10
4.09286e-10
-9.74863e-11
9.76331e-11
-3.01387e-12
1.07362e-13
-7.19986e-14
-1.59387e-12
9.47388e-14
4.22594e-14
-7.50037e-13
9.6381e-14
8.42915e-14
-3.14029e-13
9.31247e-14
8.80252e-14
5.71757e-16
5.12339e-15
-4.23545e-12
2.97439e-14
-2.05279e-12
2.72783e-14
-8.03196e-13
-1.3651e-14
-1.90078e-13
-3.7284e-14
4.71648e-15
-2.72899e-12
-1.51908e-13
4.18941e-09
3.79071e-13
-1.44159e-12
-6.07654e-14
2.32469e-09
2.5431e-13
-6.68763e-13
-6.97154e-15
1.1561e-09
1.78908e-13
-2.60606e-13
1.95261e-14
4.79786e-10
1.19815e-13
-3.32926e-15
1.14427e-10
1.78454e-14
2.79815e-12
-4.54912e-09
-1.7288e-13
5.33354e-14
4.55132e-09
1.38259e-12
-2.52506e-09
-8.19239e-14
4.82102e-14
2.52654e-09
5.2462e-13
-1.25683e-09
-1.60326e-14
4.16322e-14
1.25773e-09
9.70567e-14
-5.22052e-10
2.11751e-14
3.43586e-14
5.22516e-10
-1.24714e-10
-5.37435e-15
3.48593e-15
1.24894e-10
-2.61625e-12
-5.13608e-14
-1.2579e-12
-5.97844e-14
-4.85829e-13
-6.77579e-14
-1.25852e-13
-6.24201e-14
-4.14294e-15
2.8314e-12
-4.04698e-13
4.19151e-09
1.4651e-12
-2.55639e-13
2.32604e-09
6.42013e-13
-1.59778e-13
1.15684e-09
2.24364e-13
-9.18067e-14
4.801e-10
-1.80384e-14
1.1459e-10
-3.07298e-12
-7.79288e-14
-1.5531e-12
3.42462e-14
-6.49063e-13
6.76194e-14
-2.08284e-13
6.67425e-14
4.62995e-15
-2.47164e-12
-2.4568e-13
4.19117e-09
3.11039e-13
-1.14869e-12
-1.72496e-13
2.32558e-09
1.61765e-13
-3.86286e-13
-1.16855e-13
1.15652e-09
6.88159e-14
-4.61405e-14
-7.4388e-14
4.79959e-10
1.53656e-14
-1.16109e-14
1.14467e-10
1.03794e-14
2.92624e-12
-4.55029e-09
-1.92679e-13
4.55244e-09
1.56474e-12
-2.52564e-09
-1.38908e-13
2.52702e-09
7.25819e-13
-1.25712e-09
-1.02332e-13
1.25789e-09
2.77177e-13
-5.2229e-10
-6.7853e-14
5.22625e-10
-1.24745e-10
-1.14263e-14
1.24915e-10
-2.77792e-12
-1.38901e-12
-5.64001e-13
-1.62635e-13
2.67098e-12
-3.47081e-13
4.19332e-09
1.32598e-12
-1.98865e-13
2.32701e-09
5.39817e-13
-1.0998e-13
1.15736e-09
1.59224e-13
-5.22513e-14
4.80375e-10
-1.42308e-14
1.14637e-10
-2.83668e-12
-6.59258e-14
-1.16911e-13
-1.37174e-12
-9.33907e-14
-2.15158e-14
-5.36426e-13
-6.53094e-14
2.96384e-15
-1.48231e-13
-3.57723e-14
7.2901e-15
-9.43152e-15
6.71947e-16
-4.33497e-12
-2.14654e-12
-8.86641e-13
-2.47791e-13
4.7828e-12
-2.64894e-14
-6.54189e-09
6.54496e-09
2.53225e-12
-2.73182e-14
-3.62374e-09
3.62589e-09
1.1671e-12
-2.60397e-14
-1.80142e-09
1.80259e-09
4.54812e-13
-2.46711e-14
-7.47938e-10
7.48425e-10
-1.05889e-15
-1.78602e-10
1.78853e-10
4.34225e-12
-6.53968e-09
6.54296e-09
2.08915e-12
-3.62237e-09
3.62478e-09
7.76476e-13
-1.80077e-09
1.80226e-09
1.50189e-13
-7.47532e-10
7.48324e-10
-1.78538e-10
1.7881e-10
6.06462e-12
6.7923e-09
2.97674e-12
3.76501e-09
1.22742e-12
1.87256e-09
3.54363e-13
7.77829e-10
1.85998e-10
-5.19187e-12
6.79445e-09
-2.57444e-12
3.76647e-09
-1.03833e-12
1.87335e-09
-2.82214e-13
7.78069e-10
1.85933e-10
5.50434e-12
6.79791e-09
2.78585e-12
3.76892e-09
1.15722e-12
1.87478e-09
3.28068e-13
7.78767e-10
1.8622e-10
4.65892e-12
-9.38016e-14
-6.54196e-09
6.54506e-09
2.48162e-12
-6.06693e-14
-3.62363e-09
3.62574e-09
1.17747e-12
-5.79007e-14
-1.80146e-09
1.8026e-09
4.73931e-13
-5.09175e-14
-7.47932e-10
7.48409e-10
-6.68391e-15
-1.78614e-10
1.78858e-10
2.74256e-12
-3.56018e-09
3.56214e-09
1.31065e-12
-1.98159e-09
1.983e-09
4.80833e-13
-9.8641e-10
9.8729e-10
9.53777e-14
-4.09227e-10
4.09701e-10
-9.75328e-11
9.7697e-11
-2.72928e-12
-3.43957e-13
-1.29258e-12
-2.27048e-13
-4.73994e-13
-1.69242e-13
-9.94418e-14
-1.21376e-13
-1.36825e-14
-4.83774e-12
4.01285e-14
-2.46643e-12
5.9519e-14
-1.02368e-12
7.62347e-14
-3.02732e-13
7.5135e-14
3.60827e-15
-4.54085e-12
-2.2604e-12
-9.38434e-13
-2.81205e-13
4.22706e-12
4.46398e-14
-8.31848e-14
-6.54051e-09
6.54367e-09
2.07369e-12
7.80978e-14
-5.51511e-14
-3.62262e-09
3.62476e-09
8.17272e-13
5.72985e-14
-2.29204e-14
-1.80085e-09
1.80211e-09
1.95621e-13
3.15694e-14
2.08231e-15
-7.4765e-10
7.48292e-10
7.81887e-15
-5.87063e-15
-1.78524e-10
1.7877e-10
2.69097e-12
-3.55692e-09
3.5591e-09
1.30996e-12
-1.98e-09
1.98128e-09
5.30253e-13
-9.85686e-10
9.86405e-10
1.56372e-13
-4.08972e-10
4.09312e-10
-9.74665e-11
9.76132e-11
-2.76577e-12
-3.4695e-13
-1.39822e-12
-1.81845e-13
-5.89512e-13
-7.86088e-14
-1.87378e-13
-1.66245e-14
-1.18586e-14
4.38151e-12
-2.24543e-13
-6.54103e-09
6.544e-09
2.25603e-12
-1.29006e-13
-3.62278e-09
3.62489e-09
9.82573e-13
-7.73772e-14
-1.80106e-09
1.80227e-09
3.24706e-13
-3.87119e-14
-7.47784e-10
7.48361e-10
-1.11092e-14
-1.7856e-10
1.78807e-10
2.74027e-12
-3.55994e-09
3.56196e-09
1.33807e-12
-1.98138e-09
1.98271e-09
5.26104e-13
-9.86342e-10
9.8713e-10
1.38781e-13
-4.09234e-10
4.09631e-10
-9.75109e-11
9.76665e-11
-2.80898e-12
-1.59433e-13
-1.37246e-12
-6.49123e-14
-5.40182e-13
-4.023e-14
-1.48501e-13
-2.90534e-14
-2.82e-15
-4.42366e-12
-1.35372e-13
-2.20277e-12
-1.02884e-13
-8.90692e-13
-6.4016e-14
-2.44021e-13
-3.23137e-14
-7.77897e-15
-4.49529e-12
-2.24699e-12
-9.12135e-13
-2.59936e-13
-5.28673e-12
6.79129e-09
-2.67663e-12
3.76499e-09
-1.11178e-12
1.87256e-09
-3.20541e-13
7.77864e-10
1.85841e-10
5.47007e-12
6.7948e-09
2.77129e-12
3.76738e-09
1.15478e-12
1.87388e-09
3.36158e-13
7.7846e-10
1.86118e-10
5.48513e-12
6.79944e-09
2.77235e-12
3.76984e-09
1.13551e-12
1.87526e-09
3.13288e-13
7.79007e-10
1.86268e-10
5.58487e-12
6.79419e-09
2.85894e-12
3.76679e-09
1.20191e-12
1.87361e-09
3.59447e-13
7.78271e-10
1.86134e-10
-4.66906e-12
7.09774e-15
-2.38245e-12
3.12819e-14
-1.00884e-12
5.21489e-14
-3.2288e-13
5.65187e-14
2.09496e-15
-4.56114e-12
-2.28953e-12
-9.5191e-13
-2.87189e-13
-4.91867e-12
6.78393e-09
-2.43438e-12
3.7608e-09
-9.7506e-13
1.87042e-09
-2.39446e-13
7.76881e-10
1.85676e-10
5.20503e-12
6.78745e-09
2.60988e-12
3.7633e-09
1.07165e-12
1.87194e-09
2.84095e-13
7.77685e-10
1.85964e-10
-5.10014e-12
6.7881e-09
-2.59717e-12
3.76319e-09
-1.08617e-12
1.87181e-09
-2.97963e-13
7.77504e-10
1.8579e-10
5.24739e-12
6.79154e-09
2.65885e-12
3.76554e-09
1.0994e-12
1.87316e-09
3.10441e-13
7.78145e-10
1.86067e-10
3.41264e-11
1.52538e-11
9.66009e-09
-5.45804e-12
-2.35042e-12
-4.65184e-13
9.65693e-09
-7.75401e-12
3.51716e-11
-1.4405e-10
2.83628e-11
1.81229e-10
2.46101e-08
-2.74701e-11
1.09402e-10
5.74608e-11
2.69817e-08
-6.98219e-12
2.08676e-12
-1.97698e-11
2.67813e-08
-4.364e-11
-6.42003e-14
4.40043e-12
1.21509e-11
2.23603e-08
-9.20484e-12
-3.60571e-12
1.83941e-08
-5.37934e-12
9.10271e-14
9.79684e-12
-7.75762e-11
2.33647e-08
-2.7242e-10
-1.44841e-09
2.70457e-11
4.54146e-10
4.55213e-11
3.0145e-10
4.62766e-11
1.01985e-07
1.50242e-10
2.09065e-10
-1.38447e-11
-2.03164e-11
2.317e-08
1.82711e-10
-3.48789e-09
5.63175e-10
1.10236e-10
8.05484e-11
6.47038e-10
1.05025e-07
-4.37291e-11
1.22003e-11
4.06843e-12
2.23568e-08
-9.67973e-12
2.2404e-13
-3.22136e-12
1.83894e-08
-5.26654e-12
-7.75814e-11
9.51015e-12
2.3362e-08
-7.09469e-10
-3.46805e-11
-1.68128e-09
4.57892e-10
5.63809e-11
2.95474e-11
2.90394e-10
3.98618e-10
4.23242e-13
2.42522e-10
1.03426e-07
-3.35707e-09
5.69538e-10
1.09539e-10
6.54359e-11
6.47349e-10
1.05769e-07
2.80743e-12
-1.39229e-11
-2.29108e-11
2.31612e-08
-3.14732e-11
-1.68208e-09
4.59044e-10
4.45733e-11
2.8199e-11
3.03444e-10
3.9505e-10
2.18675e-11
2.20749e-10
1.03419e-07
-7.03454e-10
9.41924e-12
6.88109e-12
-1.35096e-11
-2.01675e-11
2.31659e-08
3.15546e-13
-3.24209e-12
1.83894e-08
-5.22616e-12
-2.71708e-12
9.65629e-09
-7.81371e-12
4.16493e-11
2.45827e-08
6.5338e-11
-9.74035e-12
-5.1327e-11
-5.05082e-11
2.69341e-08
1.03516e-13
-5.84036e-12
5.39908e-11
1.94201e-11
2.71167e-08
9.84981e-13
9.83682e-09
-7.31021e-12
7.1144e-14
-2.04609e-11
4.22209e-11
-1.72322e-13
2.38011e-08
-4.56221e-10
-1.08798e-09
3.95653e-10
3.54505e-11
1.62526e-10
2.92531e-10
4.19959e-12
-5.90446e-12
2.38673e-10
1.0281e-07
-1.73146e-10
-6.64898e-10
1.97387e-10
-9.62918e-11
-4.63899e-11
9.70704e-11
1.02839e-07
6.13922e-13
-6.31017e-12
8.9168e-13
2.34787e-08
-2.0196e-11
4.22254e-11
-3.77367e-13
2.38038e-08
-4.22248e-10
-4.54019e-11
-1.07417e-09
2.8686e-10
1.68004e-11
-5.32499e-12
2.25304e-10
3.99634e-10
1.39775e-11
1.84948e-10
1.02797e-07
-6.53101e-10
1.9259e-10
-9.65337e-11
-4.69423e-11
9.70212e-11
1.02465e-07
9.60342e-13
1.97471e-12
-6.38986e-12
-1.70863e-12
2.34797e-08
-5.99876e-14
-4.38717e-13
-1.17055e-11
2.28913e-08
-1.9851e-12
1.87544e-08
-5.32259e-12
-5.35597e-13
-1.19153e-11
2.2895e-08
-9.24742e-13
-1.93447e-12
1.87596e-08
-5.19689e-12
2.45842e-08
3.66889e-11
2.23058e-11
2.71976e-12
1.55165e-12
-2.01211e-11
2.69793e-08
4.52704e-14
-1.40839e-13
-1.1479e-11
2.70756e-08
9.65608e-09
-7.61355e-12
9.83878e-09
-7.49286e-12
2.20796e-11
2.00018e-11
8.11664e-09
-6.7294e-12
-1.88155e-12
2.68394e-13
8.11896e-09
-7.4427e-12
1.27671e-11
-1.3313e-11
2.02387e-08
6.83209e-11
1.77944e-08
-4.25001e-12
-8.62197e-11
1.89235e-10
2.41051e-08
1.11264e-10
6.93459e-11
2.23254e-08
-6.36978e-12
1.75091e-08
-4.94692e-12
2.21168e-11
-3.33575e-11
-3.1837e-11
2.33314e-08
-1.16928e-11
2.13139e-08
-1.40919e-08
-6.87617e-11
-3.58351e-12
7.466e-12
1.41528e-08
3.9885e-12
9.0424e-12
2.18528e-08
6.2375e-12
-3.56594e-11
1.19563e-12
1.6934e-08
-1.28479e-13
-5.10278e-12
1.44934e-11
7.90454e-11
-5.64783e-14
-2.00764e-10
2.24676e-08
1.09949e-12
-4.99345e-12
2.34014e-11
-1.79142e-10
2.19543e-08
-8.02358e-14
1.70053e-08
4.2777e-12
-8.03618e-09
-3.71769e-11
8.07282e-09
8.0095e-12
-1.42663e-12
2.60308e-08
-2.27357e-11
-9.92256e-12
-8.6212e-11
1.53934e-11
1.84701e-08
4.80098e-12
-9.25624e-12
-1.36159e-10
2.61433e-08
-1.40844e-08
-3.5126e-12
-6.90791e-11
7.53247e-12
1.41453e-08
4.10251e-12
9.97776e-13
1.69292e-08
-5.07115e-12
9.34139e-12
2.18432e-08
6.00635e-12
-3.60752e-11
7.92541e-11
1.44442e-11
-2.00821e-10
2.24638e-08
1.01251e-12
-4.83777e-12
1.70005e-08
4.35569e-12
2.33059e-11
-1.79351e-10
2.19446e-08
-8.03194e-09
-3.7212e-11
8.06864e-09
8.04001e-12
-1.0532e-12
2.6018e-08
-2.29451e-11
-9.65517e-12
1.50808e-11
-8.61935e-11
1.84655e-08
4.70713e-12
-9.07124e-12
-1.36297e-10
2.61307e-08
-8.03117e-09
-3.72034e-11
-7.53569e-12
8.06787e-09
8.04617e-12
-1.06918e-12
2.60193e-08
-2.26207e-11
-5.97201e-12
-9.71697e-12