/*--------------------------------*- C++ -*----------------------------------*\
| =========                 |                                                 |
| \\      /  F ield         | OpenFOAM: The Open Source CFD Toolbox           |
|  \\    /   O peration     | Version:  2206                                  |
|   \\  /    A nd           | Website:  www.openfoam.com                      |
|    \\/     M anipulation  |                                                 |
\*---------------------------------------------------------------------------*/
FoamFile
{
    version     2.0;
    format      ascii;
    arch        "LSB;label=32;scalar=64";
    class       volVectorField;
    location    "20";
    object      U;
}
// * * * * * * * * * * * * * * * * * * * * * * * * * * * * * * * * * * * * * //

dimensions      [0 1 -1 0 0 0 0];

internalField   nonuniform List<vector> 
66621
(
(-1.26956e-05 -5.70796e-05 0.0990323)
(-7.58578e-05 -9.43435e-07 0.109829)
(-5.75797e-05 -1.23502e-05 0.098897)
(6.90357e-05 -1.54671e-06 0.112668)
(5.46193e-05 -4.07598e-05 0.110535)
(2.86433e-06 -1.67562e-06 0.120075)
(-2.83859e-05 1.30446e-05 0.0888245)
(-9.92209e-07 6.69926e-05 0.112683)
(2.46737e-06 -2.02681e-06 0.119152)
(-2.76848e-06 -1.32028e-06 0.120241)
(-3.86223e-05 5.23483e-05 0.110631)
(0.000241457 0.000247311 0.115998)
(2.77582e-05 3.34336e-05 0.106711)
(3.22264e-05 2.58847e-05 0.10683)
(-1.4826e-05 -2.87203e-05 0.0889056)
(-2.74341e-05 -1.42866e-05 0.0888212)
(-0.000241957 -0.000249408 0.115978)
(-3.04242e-05 -2.50541e-05 0.106773)
(-2.61153e-05 -3.43035e-05 0.106697)
(5.9683e-06 7.685e-08 0.119224)
(-3.59939e-05 -5.21022e-05 0.110536)
(2.61236e-05 -3.4616e-05 0.106706)
(2.6685e-05 -1.42186e-05 0.0888333)
(-6.96418e-05 -1.61099e-06 0.112668)
(-5.833e-07 1.56919e-06 0.119109)
(-5.47308e-05 -4.03955e-05 0.110537)
(-3.77061e-06 -1.27932e-06 0.120078)
(-7.53149e-05 -1.29516e-07 0.10983)
(-5.71309e-05 1.06993e-05 0.0988991)
(-6.91698e-05 3.46226e-07 0.112667)
(9.53676e-07 -4.17176e-06 0.119097)
(-2.58596e-06 9.6434e-07 0.12009)
(-5.53067e-05 3.81875e-05 0.110534)
(7.48561e-05 -6.97164e-07 0.109833)
(5.66302e-05 -1.17125e-05 0.0989137)
(6.86538e-05 5.812e-07 0.112666)
(-1.22288e-06 -4.12795e-06 0.1191)
(2.27463e-06 2.10697e-07 0.120092)
(5.5161e-05 3.94871e-05 0.110538)
(7.50912e-05 4.05612e-07 0.109833)
(5.70937e-05 1.12737e-05 0.0989011)
(-0.000242394 0.000247089 0.115996)
(-2.76711e-05 3.13067e-05 0.106708)
(-3.38021e-05 2.61987e-05 0.106828)
(-1.27819e-05 2.68576e-05 0.0889601)
(4.73605e-07 6.69906e-05 0.112682)
(-2.82361e-06 -2.12538e-06 0.119149)
(2.02525e-06 -1.50535e-06 0.120242)
(3.78388e-05 5.31073e-05 0.110632)
(-3.3449e-07 7.51657e-05 0.109973)
(-1.11193e-05 5.68951e-05 0.0991197)
(2.78341e-07 7.46821e-05 0.109972)
(1.11136e-05 5.69377e-05 0.0991277)
(2.82505e-05 1.41165e-05 0.0888205)
(1.29801e-05 2.72867e-05 0.0889741)
(-4.79191e-06 -6.17142e-05 0.106108)
(-4.50002e-06 -3.67672e-05 0.0870323)
(3.16547e-05 5.13088e-07 0.0946729)
(-7.39129e-05 -3.97532e-06 0.109112)
(-3.12351e-05 1.15072e-07 0.0971767)
(7.19816e-05 -3.33217e-07 0.109776)
(7.22017e-05 3.25269e-06 0.109048)
(3.06377e-05 -5.78845e-07 0.0970561)
(-3.12454e-05 -2.49944e-07 0.0948128)
(3.08077e-05 2.27159e-06 0.0867722)
(-6.31787e-05 -9.41227e-06 0.105997)
(5.69044e-05 1.19601e-05 0.0987521)
(6.04418e-05 7.52676e-06 0.105899)
(-3.12258e-05 -2.83028e-06 0.0869468)
(2.72639e-05 -1.67091e-05 0.0886727)
(-2.8368e-05 -2.88249e-05 0.102779)
(1.72264e-05 2.51081e-05 0.0883128)
(2.45367e-05 1.62533e-05 0.0883305)
(-1.67721e-05 -2.77322e-05 0.0881541)
(-2.55396e-05 -1.57399e-05 0.0881721)
(2.8566e-05 2.91911e-05 0.102874)
(-8.55074e-05 -2.78888e-05 0.109501)
(3.07534e-05 2.38536e-05 0.0982532)
(-2.58785e-05 -3.42896e-05 0.106632)
(8.43329e-05 2.56419e-05 0.112106)
(-8.4207e-05 -2.70103e-05 0.112066)
(-2.95804e-05 -2.62607e-05 0.0981023)
(8.60828e-05 2.79552e-05 0.109569)
(-2.22003e-05 -8.58435e-05 0.109521)
(2.31019e-05 2.96682e-05 0.0982602)
(-3.40955e-05 -2.458e-05 0.10675)
(2.04296e-05 8.61992e-05 0.112121)
(-2.42887e-05 -8.39989e-05 0.112081)
(-2.42685e-05 -2.9163e-05 0.0981093)
(2.24071e-05 8.84327e-05 0.10959)
(2.72623e-05 1.58879e-05 0.088671)
(2.86107e-05 2.72002e-05 0.102794)
(-2.33216e-05 -1.61633e-05 0.0883504)
(-1.46512e-05 -2.53369e-05 0.088277)
(2.66282e-05 1.37176e-05 0.0881973)
(1.55876e-05 2.57065e-05 0.0881311)
(-2.61467e-05 -2.92141e-05 0.10285)
(2.9131e-05 8.49851e-05 0.109549)
(-2.24128e-05 -2.9447e-05 0.0983207)
(-1.93775e-05 -8.33885e-05 0.112095)
(2.54937e-05 2.74471e-05 0.0982062)
(-2.48682e-05 -8.80143e-05 0.109573)
(8.60084e-05 2.34681e-05 0.109506)
(-2.87553e-05 -2.41621e-05 0.0981674)
(2.52539e-05 3.35047e-05 0.106617)
(-8.35276e-05 -2.61282e-05 0.112096)
(2.85117e-05 2.41501e-05 0.0980202)
(-8.54471e-05 -2.62975e-05 0.109545)
(8.4024e-05 2.43138e-05 0.112062)
(1.40356e-05 -2.60296e-05 0.0883041)
(2.45095e-05 -3.09982e-05 0.102857)
(2.99563e-05 -2.52241e-05 0.0982473)
(8.3481e-05 -2.75645e-05 0.1121)
(8.65075e-05 -3.08238e-05 0.109562)
(3.06588e-05 -1.62913e-06 0.094673)
(-3.15693e-05 -3.34042e-08 0.0971716)
(-7.3777e-05 2.72911e-06 0.109113)
(7.20386e-05 -1.288e-06 0.109775)
(3.09302e-05 -7.05171e-07 0.0970507)
(7.05955e-05 -4.46976e-06 0.109047)
(-3.21198e-05 -2.78739e-07 0.0948084)
(3.05206e-05 -3.34688e-06 0.0867749)
(-6.2792e-05 8.09919e-06 0.105996)
(5.55816e-05 -1.30873e-05 0.0987552)
(5.98059e-05 -8.70494e-06 0.1059)
(-3.20071e-05 1.91906e-06 0.0869506)
(7.31722e-05 -4.08763e-06 0.109115)
(3.20191e-05 1.19137e-07 0.0971683)
(3.13972e-05 -6.10023e-07 0.0948174)
(6.25488e-05 -8.97007e-06 0.106002)
(3.16439e-05 -2.63497e-06 0.0869639)
(3.18266e-05 1.20586e-07 0.0971632)
(7.38131e-05 2.9229e-06 0.109116)
(3.21188e-05 1.08354e-07 0.0948036)
(6.29695e-05 7.96174e-06 0.105998)
(3.22192e-05 1.91906e-06 0.0869433)
(2.82529e-05 -2.8868e-05 0.102777)
(-1.80278e-05 2.4659e-05 0.0882917)
(-2.48501e-05 1.59129e-05 0.0883614)
(1.57104e-05 -2.7446e-05 0.0881397)
(2.48656e-05 -1.54516e-05 0.088197)
(-2.98506e-05 2.75561e-05 0.102874)
(8.46583e-05 -2.55808e-05 0.109487)
(-3.08093e-05 2.32463e-05 0.0981806)
(2.6048e-05 -3.46093e-05 0.106615)
(-8.4748e-05 2.35136e-05 0.112106)
(2.88183e-05 -2.59257e-05 0.0980236)
(8.40791e-05 -2.67408e-05 0.112062)
(-8.67972e-05 2.49294e-05 0.109564)
(2.42439e-05 -8.55222e-05 0.109528)
(-2.34634e-05 3.04996e-05 0.0983323)
(3.43482e-05 -2.42049e-05 0.106759)
(-2.21692e-05 8.65061e-05 0.112114)
(2.43787e-05 -8.33695e-05 0.112078)
(2.38555e-05 -2.90791e-05 0.0981912)
(-2.47952e-05 8.77165e-05 0.109588)
(1.54447e-05 -2.54711e-05 0.0888128)
(8.17888e-08 -2.96508e-05 0.0950485)
(-2.16718e-06 7.33325e-05 0.109297)
(5.66829e-07 2.98292e-05 0.0975335)
(-7.45322e-07 -7.1928e-05 0.109947)
(2.21684e-06 -7.23736e-05 0.109248)
(-5.47409e-07 -2.81605e-05 0.0974401)
(5.38104e-07 3.02603e-05 0.0951699)
(2.113e-06 -2.85837e-05 0.0869721)
(-7.67159e-06 6.24872e-05 0.106256)
(1.19274e-05 -5.65586e-05 0.0989747)
(7.51319e-06 -5.95478e-05 0.106157)
(-1.57499e-06 3.0472e-05 0.0871494)
(-2.21207e-07 -2.93732e-05 0.0950432)
(1.7981e-06 7.28191e-05 0.109296)
(1.11128e-07 3.00126e-05 0.097532)
(2.07984e-07 -7.21858e-05 0.109945)
(-2.8384e-06 -7.22724e-05 0.109249)
(1.74745e-07 -2.85408e-05 0.0974385)
(-3.5953e-07 2.99083e-05 0.0951632)
(-2.76738e-06 -2.91706e-05 0.0869791)
(6.87898e-06 6.21516e-05 0.106252)
(-1.14998e-05 -5.60556e-05 0.0989858)
(-8.32253e-06 -6.01784e-05 0.106161)
(1.6044e-06 3.09346e-05 0.0871542)
(-1.50775e-05 -2.6462e-05 0.0888244)
(-2.74101e-06 -1.10508e-06 0.121756)
(-3.84527e-07 -2.72256e-06 0.122407)
(-5.82994e-06 9.43662e-07 0.122306)
(-3.24013e-06 2.33167e-06 0.122847)
(3.07809e-06 -8.76816e-07 0.121752)
(5.79366e-07 -3.06439e-06 0.122412)
(6.02608e-06 8.29635e-07 0.122307)
(3.45694e-06 2.71558e-06 0.122855)
(-3.94185e-06 1.15789e-06 0.121704)
(-4.17352e-06 -2.84593e-07 0.122295)
(-1.93422e-06 -2.0549e-06 0.122365)
(-1.35522e-06 -1.71981e-07 0.122792)
(3.25977e-06 4.62012e-07 0.121704)
(3.87294e-06 -9.81703e-07 0.122292)
(1.94459e-06 -2.19074e-06 0.12236)
(2.05191e-06 3.21856e-07 0.122785)
(-0.000275822 9.01946e-07 0.114586)
(6.96265e-05 -3.91276e-06 0.112483)
(0.000269259 -1.19213e-06 0.114768)
(-6.68879e-05 -6.00766e-07 0.112634)
(-6.85801e-05 2.63904e-06 0.112444)
(-0.000267164 -1.11513e-06 0.114712)
(0.000273926 -4.46865e-06 0.114647)
(6.61763e-05 -1.26204e-05 0.111919)
(0.000277017 -1.44074e-05 0.113621)
(0.000288959 -7.33682e-06 0.114302)
(-3.16113e-06 -0.000277639 0.114594)
(8.42395e-07 0.000269304 0.114755)
(-1.38157e-06 6.81175e-05 0.112516)
(-9.25256e-07 -6.57493e-05 0.112671)
(-2.51563e-06 -0.000268107 0.114725)
(2.47784e-06 -6.85678e-05 0.112487)
(3.31772e-06 0.000273541 0.114647)
(2.32657e-08 -0.00028314 0.114253)
(-1.00476e-05 6.56945e-05 0.11198)
(3.74149e-05 -5.2937e-05 0.110559)
(-5.97815e-06 0.000279213 0.113636)
(8.48954e-06 -0.000282211 0.113584)
(1.05183e-05 -6.35216e-05 0.11193)
(1.74171e-06 0.00029037 0.114309)
(-7.56309e-05 -7.86246e-05 0.112398)
(-0.000233706 -0.000235628 0.115913)
(6.61812e-05 0.000241017 0.114241)
(0.000232681 6.93714e-05 0.114238)
(-6.53331e-05 -0.000239621 0.114184)
(-0.000233397 -6.51903e-05 0.11418)
(7.81784e-05 8.30635e-05 0.112454)
(8.01192e-05 7.59371e-05 0.112413)
(0.000239244 0.000234483 0.11593)
(-0.000236192 -6.81545e-05 0.114221)
(-6.29982e-05 -0.000239451 0.114224)
(-7.92297e-05 -8.24304e-05 0.112433)
(0.000243619 6.3143e-05 0.114195)
(6.4747e-05 0.000235148 0.114193)
(-8.72763e-06 -6.49586e-05 0.11189)
(-6.26818e-06 -0.000277382 0.113577)
(3.41157e-07 -0.00028806 0.114225)
(0.000276412 6.48631e-07 0.114584)
(-7.03583e-05 -3.97886e-06 0.112482)
(-0.00027043 -1.16866e-06 0.114767)
(6.70636e-05 -7.87118e-07 0.112633)
(6.89051e-05 2.23446e-06 0.112442)
(0.000266562 -1.15074e-06 0.11471)
(-0.000275919 -4.84015e-06 0.114646)
(0.000285042 3.0932e-06 0.114244)
(-6.7467e-05 -1.28474e-05 0.111919)
(5.41397e-05 3.67132e-05 0.110464)
(-0.000278665 -1.40042e-05 0.113621)
(6.48958e-05 9.92567e-06 0.11187)
(0.000282507 1.05279e-05 0.113572)
(-0.000290954 -7.26317e-06 0.114302)
(0.000271727 -1.89394e-06 0.114582)
(-0.000269394 2.15826e-07 0.114767)
(-7.12318e-05 3.4718e-06 0.112481)
(6.6946e-05 -1.04127e-06 0.112632)
(0.000266081 4.03743e-07 0.114709)
(6.79087e-05 -3.69849e-06 0.11244)
(-0.000277132 3.54252e-06 0.114647)
(0.000281837 -4.31039e-06 0.114237)
(-6.77141e-05 1.27649e-05 0.111918)
(5.30303e-05 -3.73261e-05 0.110462)
(-0.000275049 1.13155e-05 0.113619)
(6.478e-05 -1.04472e-05 0.111868)
(-0.00028633 5.73135e-06 0.114299)
(0.000279477 -1.21515e-05 0.113569)
(-0.000273024 -1.47621e-06 0.11458)
(0.000269068 2.09125e-07 0.114764)
(7.0481e-05 3.54702e-06 0.112482)
(-6.66386e-05 -6.48573e-07 0.112632)
(-0.000266438 3.49917e-07 0.114707)
(-6.83005e-05 -2.98663e-06 0.112442)
(0.0002767 3.821e-06 0.114646)
(-0.000284076 -3.90485e-06 0.114236)
(6.69847e-05 1.27022e-05 0.11192)
(-5.4252e-05 -3.75064e-05 0.110466)
(0.000277264 1.28796e-05 0.113619)
(-0.000281511 -1.20599e-05 0.113569)
(-6.54275e-05 -1.00824e-05 0.11187)
(0.000286944 6.24872e-06 0.114299)
(7.52315e-05 -7.8167e-05 0.112395)
(0.000234063 -0.000235544 0.115909)
(-6.64579e-05 0.000238996 0.114244)
(-0.000235363 6.9846e-05 0.11423)
(0.000234836 -6.5215e-05 0.114174)
(6.4661e-05 -0.000238326 0.114184)
(-7.90778e-05 8.28219e-05 0.112451)
(2.91979e-06 -0.000277249 0.114595)
(-1.83062e-06 0.000269684 0.114755)
(1.18924e-06 6.80053e-05 0.112515)
(1.88744e-07 -6.62491e-05 0.112669)
(1.55829e-06 -0.000267949 0.114725)
(-2.97334e-06 -6.86949e-05 0.112486)
(-3.75281e-06 0.000273565 0.114645)
(-1.31483e-07 -0.000281676 0.114257)
(9.72471e-06 6.57562e-05 0.11198)
(-3.68953e-05 -5.14992e-05 0.110559)
(4.95667e-06 0.000277906 0.113641)
(-8.41229e-06 -0.000279933 0.113589)
(-1.07446e-05 -6.33907e-05 0.111932)
(-2.19453e-06 0.000289154 0.114312)
(-5.49962e-06 -2.20758e-05 0.064452)
(-2.26891e-06 -1.02926e-05 0.0450613)
(-5.93103e-07 -4.17014e-06 0.0284196)
(1.4297e-07 -1.43439e-06 0.0150345)
(-1.20311e-07 -1.94347e-07 0.00459061)
(-1.86513e-05 -7.89503e-06 0.0645289)
(-9.0987e-06 -5.63112e-06 0.0451168)
(-3.71192e-06 -3.44781e-06 0.0284532)
(-1.27594e-06 -1.69664e-06 0.0150513)
(-2.36062e-08 -6.29991e-07 0.00459543)
(-1.52928e-05 8.04884e-06 0.0674055)
(-8.43307e-06 4.34552e-06 0.0473758)
(-4.35077e-06 2.05719e-06 0.0300671)
(-2.44619e-06 9.11052e-07 0.0160094)
(-3.45169e-07 1.97697e-07 0.00492252)
(-6.80533e-06 -1.69812e-05 0.0673694)
(-1.90876e-06 -9.07605e-06 0.0473468)
(1.42513e-07 -4.38241e-06 0.0300478)
(6.05419e-07 -1.76897e-06 0.0159993)
(2.80573e-07 -5.15427e-07 0.00491988)
(-1.42104e-05 -9.5312e-06 0.0674015)
(-7.23409e-06 -5.69e-06 0.0473723)
(-3.19248e-06 -3.00019e-06 0.030064)
(-1.21041e-06 -1.16915e-06 0.0160071)
(-1.68849e-07 -4.79825e-07 0.00492166)
(1.3476e-05 -9.4629e-06 0.06741)
(6.50013e-06 -5.76293e-06 0.047378)
(2.54549e-06 -3.25845e-06 0.0300678)
(6.31112e-07 -1.48165e-06 0.0160094)
(6.04882e-08 -5.24804e-07 0.00492292)
(-1.93049e-05 5.94165e-06 0.0645348)
(-9.29028e-06 3.76152e-06 0.0451218)
(-3.65893e-06 2.06331e-06 0.0284567)
(-8.58356e-07 8.64625e-07 0.015053)
(-8.7408e-08 3.59788e-07 0.00459584)
(1.88864e-05 -6.94332e-06 0.0645412)
(9.28648e-06 -4.77936e-06 0.0451254)
(3.90696e-06 -2.89332e-06 0.0284594)
(1.39417e-06 -1.41595e-06 0.0150549)
(1.38647e-07 -5.51769e-07 0.00459683)
(1.9237e-05 6.11306e-06 0.0645298)
(9.0584e-06 3.71155e-06 0.0451164)
(3.26514e-06 1.82595e-06 0.0284533)
(2.39014e-07 5.04691e-07 0.0150517)
(2.76894e-08 2.8027e-07 0.00459609)
(-7.78405e-06 1.39515e-05 0.0673394)
(-4.05183e-06 6.8929e-06 0.0473314)
(-1.67731e-06 2.63129e-06 0.0300399)
(-8.44575e-08 1.27627e-07 0.015995)
(-2.71431e-07 2.33868e-07 0.00491867)
(-6.6481e-06 1.86788e-05 0.0644043)
(-4.55194e-06 9.57776e-06 0.0450406)
(-2.69519e-06 4.41859e-06 0.0284088)
(-1.42831e-06 2.22864e-06 0.015029)
(-4.12639e-07 1.64776e-07 0.00458908)
(5.99232e-06 1.87543e-05 0.0644149)
(3.74445e-06 9.45063e-06 0.0450478)
(1.84048e-06 4.11119e-06 0.0284132)
(5.3765e-07 1.6506e-06 0.0150307)
(2.98718e-07 5.61342e-08 0.00458947)
(1.52265e-05 8.59665e-06 0.0673992)
(8.26636e-06 4.89182e-06 0.0473705)
(4.03633e-06 2.57645e-06 0.0300637)
(1.87684e-06 1.20526e-06 0.0160074)
(3.00828e-07 3.18039e-07 0.00492203)
(8.27274e-06 1.41244e-05 0.0673521)
(4.62787e-06 7.32141e-06 0.0473391)
(2.1515e-06 3.16967e-06 0.030044)
(5.36921e-07 9.12372e-07 0.0159968)
(3.55245e-07 2.65364e-07 0.00491882)
(1.76324e-05 -1.45266e-06 0.0661072)
(9.17954e-06 -1.83134e-06 0.0462316)
(4.16489e-06 -1.52825e-06 0.0292067)
(1.75372e-06 -8.9658e-07 0.0154853)
(3.15165e-07 -3.86871e-07 0.0047403)
(-1.71618e-05 6.58236e-08 0.0663024)
(-8.98741e-06 3.76697e-07 0.0464775)
(-4.02473e-06 6.23281e-07 0.0294268)
(-1.3441e-06 6.28626e-07 0.0156338)
(-3.17152e-07 1.75233e-07 0.00479613)
(1.69587e-05 -9.18185e-07 0.0661734)
(8.56884e-06 -9.63907e-07 0.046379)
(3.60582e-06 -7.34432e-07 0.0293644)
(1.20634e-06 -4.27521e-07 0.0156015)
(2.76763e-07 -1.42944e-07 0.00478645)
(-1.84866e-05 7.45332e-07 0.0662486)
(-9.73867e-06 1.38963e-06 0.0463371)
(-4.55563e-06 1.51135e-06 0.0292725)
(-1.92025e-06 1.10882e-06 0.0155191)
(-3.75121e-07 4.48603e-07 0.00475034)
(1.97688e-05 6.40856e-06 0.0643715)
(9.79022e-06 3.97296e-06 0.0449981)
(3.99933e-06 2.21609e-06 0.0283792)
(1.22002e-06 1.24013e-06 0.0150134)
(1.82114e-07 2.51211e-07 0.00458423)
(1.4622e-05 -1.05746e-05 0.067261)
(7.66244e-06 -6.0431e-06 0.0472681)
(3.57334e-06 -3.15695e-06 0.0299989)
(1.58932e-06 -1.50024e-06 0.0159736)
(2.57413e-07 -3.63149e-07 0.00491198)
(1.64829e-05 1.06258e-05 0.0648106)
(8.00838e-06 4.87184e-06 0.0453193)
(2.95709e-06 1.59125e-06 0.0285855)
(2.27813e-07 -1.49851e-07 0.0151237)
(1.37461e-07 5.18326e-08 0.00461896)
(-1.63719e-05 -1.2191e-05 0.0646604)
(-8.22788e-06 -5.55362e-06 0.0452065)
(-3.50263e-06 -1.66293e-06 0.0285155)
(-1.04358e-06 1.52071e-07 0.0150881)
(-3.72713e-07 9.93977e-09 0.00460826)
(1.11213e-05 1.7094e-05 0.0647687)
(5.21167e-06 9.07229e-06 0.0452926)
(1.78142e-06 4.4916e-06 0.0285698)
(3.0435e-07 2.4555e-06 0.015116)
(-5.1979e-10 2.96956e-07 0.00461656)
(-1.19e-05 -1.71339e-05 0.0646162)
(-5.71339e-06 -9.12808e-06 0.0451783)
(-2.26821e-06 -4.30259e-06 0.0284988)
(-9.29748e-07 -1.99089e-06 0.0150796)
(6.05058e-08 -3.3932e-07 0.00460588)
(1.45908e-05 9.59291e-06 0.0672586)
(7.62304e-06 5.06225e-06 0.047265)
(3.41342e-06 2.36076e-06 0.0299958)
(1.23312e-06 9.65195e-07 0.0159713)
(2.84256e-07 1.9372e-07 0.00491107)
(8.55942e-06 -1.55725e-05 0.0679231)
(3.6201e-06 -8.89117e-06 0.0476262)
(8.5464e-07 -4.68533e-06 0.0301691)
(-1.87136e-07 -2.0832e-06 0.0160382)
(-1.99124e-07 -6.47099e-07 0.00492403)
(1.59297e-05 -1.24533e-05 0.0648188)
(7.55567e-06 -6.54264e-06 0.0453219)
(3.01033e-06 -3.21135e-06 0.0285875)
(9.78151e-07 -1.38875e-06 0.0151255)
(8.66388e-08 -3.55956e-07 0.00461942)
(1.66789e-05 3.59985e-07 0.0661084)
(8.34909e-06 1.04539e-06 0.0462322)
(3.39883e-06 1.27978e-06 0.0292073)
(7.91487e-07 1.16702e-06 0.0154859)
(2.6764e-07 3.04071e-07 0.00474049)
(-1.71171e-05 -1.47072e-07 0.0662973)
(-9.20598e-06 -2.27548e-07 0.0464737)
(-4.41038e-06 -1.24685e-07 0.0294244)
(-2.06582e-06 4.3178e-08 0.0156326)
(-3.3533e-07 -4.79065e-08 0.00479573)
(1.72329e-05 -5.4667e-08 0.0661701)
(8.94961e-06 3.17898e-07 0.0463764)
(3.95195e-06 5.88531e-07 0.0293627)
(1.46322e-06 6.64733e-07 0.0156006)
(3.03108e-07 1.40768e-07 0.00478617)
(-1.81266e-05 -1.19678e-06 0.0662462)
(-9.29973e-06 -1.63124e-06 0.0463356)
(-4.13126e-06 -1.51444e-06 0.0292717)
(-1.53361e-06 -1.01602e-06 0.0155187)
(-3.05361e-07 -4.13646e-07 0.00475025)
(1.83554e-05 -7.62592e-06 0.0643793)
(8.66838e-06 -5.0537e-06 0.0450055)
(3.24609e-06 -2.97183e-06 0.0283846)
(6.86118e-07 -1.54574e-06 0.0150162)
(1.35008e-07 -4.65682e-07 0.00458484)
(1.78835e-05 3.8676e-07 0.0662947)
(9.1823e-06 7.42563e-07 0.0464721)
(4.12469e-06 9.97342e-07 0.0294239)
(1.59272e-06 9.82374e-07 0.015632)
(2.74341e-07 2.26472e-07 0.00479542)
(1.84726e-05 9.33544e-07 0.0662514)
(9.72977e-06 1.70074e-06 0.046339)
(4.59044e-06 1.92058e-06 0.0292743)
(1.92306e-06 1.59923e-06 0.0155197)
(4.13414e-07 4.96441e-07 0.00475054)
(1.77771e-05 -2.94768e-07 0.0662899)
(9.42747e-06 -5.14437e-07 0.0464692)
(4.55535e-06 -5.43918e-07 0.0294221)
(2.11477e-06 -4.26098e-07 0.0156311)
(4.34306e-07 -1.39619e-07 0.0047953)
(1.84354e-05 -1.04182e-06 0.0662382)
(9.42814e-06 -1.65908e-06 0.0463295)
(4.1026e-06 -1.78974e-06 0.0292674)
(1.31797e-06 -1.43632e-06 0.0155157)
(2.93241e-07 -4.82993e-07 0.00474949)
(-1.5661e-05 1.00208e-05 0.0679243)
(-8.51306e-06 4.2595e-06 0.047627)
(-3.9196e-06 9.71741e-07 0.0301692)
(-9.66825e-07 -7.07789e-07 0.0160383)
(-5.23124e-07 -7.72074e-08 0.0049242)
(-1.13674e-05 1.69944e-05 0.0647568)
(-5.58165e-06 8.80357e-06 0.0452871)
(-2.22935e-06 4.1196e-06 0.0285679)
(-7.75601e-07 2.0605e-06 0.0151163)
(-6.77865e-08 2.8216e-07 0.00461697)
(1.21076e-05 -1.74069e-05 0.0646087)
(6.12408e-06 -9.55893e-06 0.0451754)
(2.70482e-06 -4.76924e-06 0.0284979)
(1.4068e-06 -2.57913e-06 0.01508)
(6.44054e-09 -3.85262e-07 0.00460636)
(9.94238e-06 -1.29787e-05 0.0671982)
(5.56812e-06 -6.35818e-06 0.0472246)
(2.8052e-06 -2.41321e-06 0.0299717)
(1.26866e-06 -3.38452e-07 0.0159594)
(2.73051e-07 -2.08056e-07 0.0049079)
(-1.10107e-06 -1.68581e-05 0.065998)
(-1.47631e-06 -9.16282e-06 0.0461567)
(-1.50643e-06 -4.55811e-06 0.0291603)
(-1.16715e-06 -2.35186e-06 0.0154608)
(-3.7659e-07 -3.46985e-07 0.00473296)
(5.94747e-07 1.58705e-05 0.0661536)
(6.24579e-07 8.22586e-06 0.0463805)
(4.27882e-07 3.48396e-06 0.0293678)
(1.383e-07 8.1719e-07 0.0156026)
(1.41213e-07 2.98793e-07 0.00478698)
(-5.76593e-07 -1.52051e-05 0.0660345)
(-6.29437e-07 -7.57014e-06 0.0462865)
(-6.59089e-07 -3.10716e-06 0.0293078)
(-5.67771e-07 -9.1078e-07 0.0155717)
(-1.19899e-07 -2.44648e-07 0.00477744)
(1.35851e-06 1.77504e-05 0.0661333)
(1.71005e-06 9.50607e-06 0.0462603)
(1.49223e-06 4.52651e-06 0.0292255)
(8.59868e-07 2.037e-06 0.0154944)
(4.35873e-07 3.70536e-07 0.00474307)
(7.3268e-06 -1.90679e-05 0.0642488)
(4.96398e-06 -9.76857e-06 0.044923)
(2.8773e-06 -4.24658e-06 0.0283354)
(1.49282e-06 -1.62701e-06 0.0149912)
(3.99495e-07 -1.67042e-07 0.00457781)
(1.54726e-06 -1.59628e-05 0.0659953)
(1.95899e-06 -7.94355e-06 0.046156)
(1.80474e-06 -3.20794e-06 0.029161)
(1.31991e-06 -7.11024e-07 0.0154615)
(4.32088e-07 -2.2323e-07 0.00473297)
(6.67593e-08 1.61674e-05 0.0661528)
(-1.88701e-07 8.87094e-06 0.0463802)
(-3.73308e-07 4.34218e-06 0.0293685)
(-3.41287e-07 2.06004e-06 0.0156035)
(-1.1445e-07 3.83291e-07 0.00478704)
(4.68043e-07 -1.59721e-05 0.0660333)
(5.2068e-07 -8.2564e-06 0.0462852)
(3.42608e-07 -3.64191e-06 0.0293072)
(9.86495e-08 -1.32491e-06 0.0155715)
(1.13812e-07 -2.9354e-07 0.0047773)
(-1.21906e-06 1.69292e-05 0.0661287)
(-1.80001e-06 8.80655e-06 0.0462574)
(-1.95715e-06 3.99509e-06 0.0292241)
(-1.62254e-06 1.57719e-06 0.0154934)
(-4.84466e-07 3.12534e-07 0.00474272)
(-7.00825e-06 -1.80476e-05 0.0642601)
(-4.72272e-06 -8.66269e-06 0.0449313)
(-2.77903e-06 -3.39634e-06 0.0283412)
(-1.48662e-06 -1.00461e-06 0.0149942)
(-3.7777e-07 -4.6835e-08 0.00457854)
(-9.43216e-06 -1.36013e-05 0.067209)
(-5.30648e-06 -6.86902e-06 0.047231)
(-2.79818e-06 -2.80073e-06 0.0299746)
(-1.4909e-06 -6.82541e-07 0.0159602)
(-2.32683e-07 -2.3749e-07 0.00490793)
(1.13203e-05 1.55612e-05 0.0679283)
(5.70962e-06 9.05556e-06 0.0476299)
(2.14816e-06 5.1542e-06 0.0301711)
(6.48971e-07 3.06945e-06 0.0160391)
(-6.18387e-08 5.71492e-07 0.00492401)
(1.46999e-05 1.04303e-05 0.0679042)
(7.79977e-06 5.02403e-06 0.0476139)
(3.46984e-06 1.84376e-06 0.0301613)
(9.32126e-07 3.19902e-07 0.0160336)
(4.02902e-07 4.47522e-08 0.00492251)
(-5.03428e-07 -2.56061e-05 0.0675656)
(1.77032e-06 -1.30925e-05 0.0475102)
(2.09732e-06 -6.02886e-06 0.0301562)
(1.53026e-06 -2.43196e-06 0.0160567)
(4.80433e-07 -4.94943e-07 0.00493676)
(2.06783e-05 2.64465e-08 0.0674249)
(1.10335e-05 -1.27027e-06 0.0474088)
(5.11747e-06 -1.63998e-06 0.0300934)
(1.92948e-06 -1.29947e-06 0.0160244)
(4.57162e-07 -4.80982e-07 0.00492724)
(-2.15231e-05 -1.25688e-06 0.0675947)
(-1.14745e-05 3.98234e-08 0.0475356)
(-5.3634e-06 7.59428e-07 0.0301732)
(-2.08149e-06 9.12038e-07 0.0160658)
(-4.46703e-07 2.68045e-07 0.00493954)
(-1.14851e-05 1.43471e-05 0.0679231)
(-6.28182e-06 8.0059e-06 0.0476284)
(-2.97708e-06 4.14882e-06 0.0301709)
(-1.55687e-06 2.11357e-06 0.0160394)
(-9.16652e-08 4.53917e-07 0.00492415)
(-1.70203e-05 1.02591e-05 0.0648255)
(-8.71146e-06 4.46547e-06 0.0453282)
(-3.82343e-06 1.36008e-06 0.0285913)
(-1.24343e-06 -6.7879e-08 0.0151273)
(-2.77662e-07 -1.95492e-08 0.00462002)
(1.56329e-05 -1.26812e-05 0.0646732)
(7.47563e-06 -6.38968e-06 0.0452146)
(2.75299e-06 -2.71862e-06 0.0285208)
(4.56119e-07 -8.54461e-07 0.0150914)
(2.09607e-07 -1.97109e-07 0.00460928)
(-1.07594e-05 -1.71596e-05 0.0677755)
(-5.10009e-06 -9.78665e-06 0.0475152)
(-1.77411e-06 -5.19278e-06 0.0300986)
(-3.31204e-07 -2.50978e-06 0.0160012)
(8.45109e-08 -5.89067e-07 0.00491292)
(-1.55588e-05 -1.02657e-05 0.0677515)
(-8.61981e-06 -4.91672e-06 0.0474996)
(-4.46955e-06 -1.52578e-06 0.0300891)
(-2.18555e-06 1.63477e-08 0.0159961)
(-4.93444e-07 5.70717e-09 0.00491134)
(-1.33732e-05 -1.10178e-05 0.0679091)
(-6.80123e-06 -5.80263e-06 0.0476164)
(-2.9841e-06 -2.39722e-06 0.0301627)
(-1.05361e-06 -5.51318e-07 0.0160342)
(-2.10533e-07 -2.1599e-07 0.00492227)
(-9.29193e-06 -1.79668e-05 0.0647587)
(-3.49617e-06 -9.6432e-06 0.0452873)
(-6.74503e-07 -4.58025e-06 0.0285676)
(1.67486e-07 -1.9385e-06 0.0151157)
(2.35365e-07 -4.75478e-07 0.00461658)
(1.33548e-05 1.47197e-05 0.0646133)
(7.33932e-06 7.26095e-06 0.0451766)
(3.42846e-06 3.10042e-06 0.028498)
(1.22409e-06 1.27847e-06 0.0150797)
(3.55976e-07 1.49197e-07 0.00460598)
(-9.537e-06 -1.55569e-05 0.067909)
(-4.52103e-06 -8.91972e-06 0.0476171)
(-1.62012e-06 -4.72631e-06 0.0301639)
(-4.77776e-07 -2.15107e-06 0.0160354)
(1.00929e-07 -6.61971e-07 0.00492266)
(-1.60133e-05 -1.19533e-05 0.0648153)
(-7.87025e-06 -6.10755e-06 0.0453213)
(-3.20811e-06 -2.67337e-06 0.0285872)
(-1.078e-06 -8.84997e-07 0.015125)
(-1.11909e-07 -2.36387e-07 0.00461897)
(1.69928e-05 1.16539e-05 0.064665)
(8.71179e-06 5.36701e-06 0.0452088)
(3.79105e-06 1.95943e-06 0.0285171)
(1.32966e-06 5.22817e-07 0.015089)
(3.29485e-07 -1.0718e-08 0.00460838)
(1.68624e-05 8.64332e-06 0.0677619)
(9.81258e-06 3.67545e-06 0.0475049)
(5.13288e-06 8.68305e-07 0.030092)
(2.19276e-06 -1.00408e-07 0.0159975)
(7.12893e-07 -2.41819e-07 0.0049114)
(1.08452e-05 1.48729e-05 0.0677639)
(5.59966e-06 7.87044e-06 0.0475078)
(2.19327e-06 3.82735e-06 0.0300946)
(4.95563e-07 1.6785e-06 0.0159992)
(8.30408e-08 3.84719e-07 0.00491203)
(2.05931e-05 -1.40732e-06 0.0674294)
(1.10294e-05 -5.9907e-08 0.0474133)
(5.18711e-06 6.2749e-07 0.0300967)
(2.07072e-06 7.33966e-07 0.0160263)
(4.34999e-07 2.32531e-07 0.00492758)
(-2.18179e-05 2.04908e-07 0.0676002)
(-1.16858e-05 -9.79603e-07 0.0475402)
(-5.568e-06 -1.35818e-06 0.0301766)
(-2.27393e-06 -1.13807e-06 0.0160678)
(-4.612e-07 -3.90399e-07 0.00493984)
(2.15298e-05 -8.51214e-07 0.0676103)
(1.15228e-05 4.10846e-07 0.0475468)
(5.37852e-06 1.05544e-06 0.0301804)
(2.04734e-06 1.12283e-06 0.0160694)
(4.39757e-07 3.19133e-07 0.00494075)
(2.21082e-05 1.36917e-07 0.0675917)
(1.21033e-05 -1.19984e-06 0.0475333)
(5.94621e-06 -1.83289e-06 0.0301723)
(2.5585e-06 -1.75364e-06 0.0160657)
(5.65658e-07 -4.85901e-07 0.00493982)
(1.00956e-05 -1.67104e-05 0.0677756)
(4.74896e-06 -9.62491e-06 0.0475169)
(1.56014e-06 -5.20484e-06 0.0301001)
(2.52371e-07 -2.65403e-06 0.0160023)
(-9.73164e-08 -6.01961e-07 0.00491332)
(1.49622e-05 -1.066e-05 0.0677696)
(8.03294e-06 -5.53669e-06 0.0475121)
(3.73795e-06 -2.21829e-06 0.0300969)
(1.36098e-06 -6.96589e-07 0.0160009)
(4.09787e-07 -6.35974e-08 0.00491301)
(5.08611e-07 -1.93111e-05 0.0673554)
(-6.46946e-07 -1.02755e-05 0.0473619)
(-1.15868e-06 -4.63955e-06 0.0300646)
(-1.06633e-06 -1.55902e-06 0.0160096)
(-3.75842e-07 -4.13781e-07 0.00492293)
(-2.57166e-07 2.07734e-05 0.0675269)
(7.99724e-07 1.10116e-05 0.0474901)
(1.12266e-06 5.05499e-06 0.0301454)
(8.54952e-07 1.74513e-06 0.0160512)
(3.83323e-07 4.89185e-07 0.00493551)
(-1.16069e-06 -1.98613e-05 0.0673613)
(-5.39503e-08 -1.06562e-05 0.0473664)
(3.74974e-07 -4.93943e-06 0.0300674)
(2.44083e-07 -1.79897e-06 0.0160108)
(2.63479e-07 -4.4181e-07 0.00492316)
(3.54829e-08 2.08824e-05 0.0675313)
(-1.06846e-06 1.12789e-05 0.0474943)
(-1.51863e-06 5.37231e-06 0.0301487)
(-1.34326e-06 2.12038e-06 0.0160531)
(-4.23694e-07 4.91933e-07 0.00493583)
(1.34452e-05 2.10797e-05 0.088714)
(2.70723e-05 1.46267e-05 0.0886562)
(0.00023959 0.0002374 0.115913)
(3.8435e-05 2.59026e-05 0.106661)
(2.58469e-05 3.31685e-05 0.106598)
(7.3402e-05 -3.68503e-07 0.109757)
(5.72517e-05 1.12857e-05 0.0987379)
(6.75825e-05 -5.80459e-07 0.11262)
(2.16035e-06 -2.87544e-06 0.119295)
(5.53672e-05 3.65153e-05 0.110443)
(9.60502e-07 -2.12191e-06 0.120358)
(7.27071e-05 -8.63437e-07 0.109756)
(5.60799e-05 -1.2501e-05 0.0987388)
(6.76713e-05 -9.65106e-07 0.112619)
(1.62422e-06 -6.62724e-07 0.119316)
(9.5482e-07 4.35571e-07 0.120371)
(5.44802e-05 -3.71654e-05 0.110442)
(-2.24289e-06 -6.72221e-07 0.119319)
(-5.63833e-05 -3.82864e-05 0.110445)
(-5.63836e-05 -1.22562e-05 0.0987334)
(2.6897e-05 -1.5849e-05 0.0886582)
(0.000236834 -0.000239871 0.115874)
(2.53533e-05 -3.29295e-05 0.106591)
(3.62791e-05 -2.40008e-05 0.106752)
(1.57319e-05 -2.50825e-05 0.0888014)
(-5.44344e-07 -6.7227e-05 0.112669)
(2.43953e-06 -1.64279e-06 0.119304)
(-1.1521e-06 -1.90075e-06 0.120291)
(3.88625e-05 -5.46056e-05 0.110545)
(2.004e-08 -6.69174e-05 0.112668)
(-3.363e-06 -2.20432e-06 0.119298)
(-2.0243e-07 -1.54754e-06 0.120291)
(-3.79453e-05 -5.3603e-05 0.110546)
(-4.80418e-07 -7.26331e-05 0.109945)
(1.20853e-05 -5.66142e-05 0.0989643)
(-3.80128e-08 -7.27948e-05 0.109944)
(-1.19876e-05 -5.65031e-05 0.0989751)
(-0.000236666 -0.000240146 0.115877)
(-2.61617e-05 -3.42544e-05 0.106613)
(-3.48446e-05 -2.50341e-05 0.106737)
(-2.64755e-05 -1.52174e-05 0.0886514)
(-1.52601e-05 -2.60509e-05 0.088813)
(2.49044e-05 1.32099e-05 0.0881817)
(1.5465e-05 2.39876e-05 0.0881166)
(2.93037e-05 2.71284e-05 0.102778)
(2.46687e-05 2.71514e-05 0.0981542)
(3.17547e-05 8.4283e-05 0.112048)
(3.01215e-05 8.57549e-05 0.109516)
(2.87188e-05 2.30578e-05 0.0980026)
(8.65619e-05 2.43096e-05 0.112047)
(8.7351e-05 2.20634e-05 0.109489)
(-2.7463e-05 1.03604e-06 0.0948378)
(7.35131e-05 2.77126e-06 0.109027)
(2.94594e-05 -1.05773e-06 0.0970415)
(-7.27869e-05 -9.94312e-07 0.109847)
(3.01458e-05 -5.07237e-07 0.0946536)
(-7.13755e-05 -3.32734e-06 0.109135)
(-2.75093e-05 -3.3819e-07 0.0971959)
(-2.70032e-05 -6.03313e-07 0.0869665)
(6.16327e-05 7.17065e-06 0.105882)
(-5.38507e-05 -1.06913e-05 0.0989173)
(3.09169e-05 1.79563e-06 0.0867579)
(-6.10574e-05 -8.76254e-06 0.106016)
(-2.78115e-05 -1.0303e-06 0.0948329)
(2.92707e-05 -1.8029e-07 0.0970377)
(7.16831e-05 -4.22932e-06 0.109023)
(-7.29138e-05 5.62104e-07 0.10985)
(2.91884e-05 -3.81066e-07 0.0946584)
(-2.75173e-05 -3.83911e-07 0.0971899)
(-7.27017e-05 2.79841e-06 0.109136)
(-2.73942e-05 8.77177e-07 0.086972)
(6.05048e-05 -8.24436e-06 0.10588)
(-5.40607e-05 9.32466e-06 0.0989193)
(2.98889e-05 -2.42668e-06 0.0867648)
(-6.08762e-05 8.46581e-06 0.106015)
(2.73711e-05 6.52273e-07 0.0869618)
(-6.082e-05 -8.57456e-06 0.10588)
(5.41731e-05 9.52173e-06 0.098917)
(-2.99007e-05 -2.63044e-06 0.0867529)
(6.07937e-05 8.35584e-06 0.106015)
(-2.47839e-05 1.12155e-05 0.0888421)
(-2.94241e-05 2.58339e-05 0.102898)
(1.55599e-05 -2.76576e-05 0.0881388)
(2.26021e-05 -1.49415e-05 0.0881757)
(2.80189e-05 -2.7821e-05 0.102755)
(-1.44035e-05 2.15728e-05 0.0883079)
(-2.45827e-05 1.27328e-05 0.0883714)
(-8.33846e-05 2.20942e-05 0.109574)
(2.78364e-05 -2.55166e-05 0.0980055)
(8.4617e-05 -2.55524e-05 0.112045)
(-2.56155e-05 3.22325e-05 0.106715)
(-8.19822e-05 2.31978e-05 0.112114)
(8.46276e-05 -2.5576e-05 0.109454)
(-2.66691e-05 2.00507e-05 0.0981957)
(-2.65397e-05 8.75769e-05 0.109623)
(2.32605e-05 -2.91914e-05 0.0981805)
(2.59936e-05 -8.46974e-05 0.112069)
(-3.26121e-05 2.42224e-05 0.106851)
(2.2925e-05 -8.58861e-05 0.10952)
(-2.39613e-05 2.89158e-05 0.0983492)
(-2.25853e-05 8.37742e-05 0.11213)
(-1.24169e-05 2.46465e-05 0.0889754)