/*--------------------------------*- C++ -*----------------------------------*\
| =========                 |                                                 |
| \\      /  F ield         | OpenFOAM: The Open Source CFD Toolbox           |
|  \\    /   O peration     | Version:  2206                                  |
|   \\  /    A nd           | Website:  www.openfoam.com                      |
|    \\/     M anipulation  |                                                 |
\*---------------------------------------------------------------------------*/
FoamFile
{
    version     2.0;
    format      ascii;
    arch        "LSB;label=32;scalar=64";
    class       volVectorField;
    location    "20";
    object      wallShearStress;
}
// * * * * * * * * * * * * * * * * * * * * * * * * * * * * * * * * * * * * * //

dimensions      [0 2 -2 0 0 0 0];

internalField   uniform (0 0 0);

boundaryField
{
    topPatch
    {
        type            calculated;
        value           nonuniform List<vector> 0();
    }
    wall
    {
        type            calculated;
        value           nonuniform List<vector> 
7709
(
(5.64006e-09 1.03029e-08 -0.000175393)
(4.60404e-09 2.55133e-08 -0.000175593)
(1.77698e-08 -1.00328e-08 -0.000188163)
(-9.05378e-09 2.29487e-08 -0.000188039)
(1.07542e-08 2.07666e-08 -0.000188146)
(-5.79275e-09 2.20716e-08 -0.000188162)
(6.55205e-09 -1.49095e-08 -0.000175617)
(-1.00185e-08 2.298e-08 -0.00017563)
(-3.57832e-09 -1.1654e-08 -0.000175596)
(1.24913e-08 -1.27599e-08 -0.000188007)
(1.74311e-08 -1.05343e-08 -0.000175345)
(-1.23626e-08 -4.73719e-09 -0.000175365)
(-1.64466e-08 -1.48321e-08 -0.000188144)
(-1.60097e-08 -1.47893e-08 -0.000188037)
(-1.56686e-08 1.43477e-08 -0.000181089)
(1.59295e-08 -6.51467e-09 -0.000183202)
(-1.42562e-08 5.25782e-09 -0.000182832)
(1.84011e-08 -1.66308e-08 -0.000181473)
(-1.11764e-08 -1.11753e-08 -0.000175165)
(-1.46181e-08 1.65156e-08 -0.00018776)
(-7.25611e-09 -3.53252e-09 -0.000176487)
(1.8195e-08 2.46172e-09 -0.000176078)
(-2.05233e-09 -1.40951e-08 -0.000176395)
(-8.44721e-11 1.60988e-08 -0.000175987)
(-1.51115e-08 -9.68443e-09 -0.000187741)
(4.9115e-09 2.70282e-08 -0.00018823)
(-6.44204e-09 1.59288e-08 -0.000176491)
(-1.34974e-08 -1.12145e-08 -0.000181093)
(1.69105e-08 1.57559e-09 -0.000183186)
(-1.56759e-08 -5.13309e-09 -0.00018282)
(1.48016e-08 1.53794e-08 -0.000181466)
(-9.69713e-09 1.95295e-08 -0.000175197)
(-1.37884e-08 -8.4337e-09 -0.000183192)
(-2.03927e-08 -1.84277e-08 -0.000181498)
(-2.17827e-08 5.04413e-09 -0.000183187)
(-1.4154e-08 1.80409e-08 -0.000181454)
(2.26149e-08 -2.40214e-10 -0.000188237)
(4.85014e-09 -1.38628e-08 -0.000176383)
(-3.01788e-09 1.86507e-08 -0.000175978)
(-1.23679e-08 1.15525e-08 -0.000187595)
(1.39508e-08 1.70028e-08 -0.000180822)
(-5.18253e-09 -1.47916e-08 -0.000182869)
(4.4617e-09 1.2284e-08 -0.000182505)
(-1.62168e-08 -1.7979e-08 -0.000181208)
(-1.69643e-08 1.08173e-08 -0.000174914)
(-1.62699e-08 1.06818e-08 -0.000180826)
(4.12184e-09 -1.91185e-08 -0.000182872)
(-4.11349e-09 1.47599e-08 -0.0001825)
(1.81082e-08 -1.4814e-08 -0.000181199)
(1.55714e-08 4.65952e-09 -0.000174948)
(1.07646e-08 1.26459e-08 -0.000187621)
(-1.25339e-09 -2.47425e-08 -0.000188241)
(-1.80481e-08 -4.9733e-09 -0.000188186)
(-1.7043e-08 2.39645e-08 -0.000188662)
(-2.22887e-08 1.71028e-08 -0.000188302)
(2.24358e-08 -8.72867e-09 -0.000188772)
(7.30396e-09 -2.04566e-08 -0.000188246)
(1.3367e-08 -1.22993e-09 -0.000176514)
(-1.17324e-08 1.02815e-08 -0.000176103)
(4.31169e-10 2.55867e-08 -0.000187817)
(2.17899e-08 3.38314e-09 -0.000187759)
(1.03275e-08 1.11709e-08 -0.000188187)
(-7.05582e-09 2.10146e-08 -0.000176381)
(-1.64262e-08 -9.50737e-09 -0.000175976)
(-2.87895e-10 2.83083e-08 -0.000188192)
(6.87565e-09 1.09607e-08 -0.000176487)
(-1.61437e-08 -2.11564e-09 -0.000176082)
(-3.0016e-08 6.07325e-09 -0.000187771)
(-6.71688e-09 -1.76223e-08 -0.000187785)
(-2.19492e-08 -7.4996e-09 -0.000188325)
(2.2625e-08 1.35478e-08 -0.000188793)
(-2.21329e-08 -1.07537e-08 -0.000188818)
(-2.77483e-08 1.68385e-08 -0.000188775)
(2.19849e-10 2.5972e-08 -0.000187832)
(-1.86417e-08 5.98292e-09 -0.00018781)
(1.31971e-08 2.01914e-08 -0.000188133)
(-1.32398e-08 -2.39375e-08 -0.000188614)
(-8.71646e-09 2.19633e-08 -0.000188146)
(1.47432e-08 -2.39579e-08 -0.00018863)
(-3.47829e-08 -8.21595e-10 -0.000187616)
(-1.40322e-08 -8.38686e-09 -0.000187764)
(-1.18543e-08 -1.21213e-08 -0.000175182)
(-8.67866e-09 1.64831e-08 -0.000175218)
(1.80222e-09 1.9702e-08 -0.000175208)
(-9.04989e-09 1.73992e-08 -0.000187783)
(-1.23728e-08 9.89227e-09 -0.000187614)
(-1.86875e-08 8.91896e-09 -0.00017493)
(1.80303e-08 6.98697e-09 -0.000174961)
(1.20938e-08 1.28177e-08 -0.000187767)
(1.40223e-08 1.05143e-08 -0.000187642)
(1.39585e-08 -9.92808e-09 -0.000181443)
(-1.33615e-08 5.72494e-09 -0.000182847)
(-1.59254e-08 1.32567e-08 -0.000181109)
(1.13962e-08 -3.08847e-09 -0.000183175)
(2.14488e-08 -1.48634e-08 -0.000188736)
(8.78893e-09 2.03231e-08 -0.000175575)
(1.08659e-08 4.80132e-09 -0.000181445)
(-1.53549e-08 -5.62046e-09 -0.000182837)
(-1.58762e-08 -1.14827e-08 -0.000181114)
(1.12489e-08 3.45157e-10 -0.000183164)
(5.7244e-09 -1.77636e-08 -0.0001756)
(-2.67495e-08 1.57266e-08 -0.000188754)
(-8.95749e-09 -1.38845e-08 -0.000175587)
(1.15384e-08 -8.20296e-09 -0.000188138)
(-2.20948e-08 -1.61318e-09 -0.000187839)
(-6.5122e-09 1.37385e-08 -0.000175986)
(5.24678e-09 -1.67976e-08 -0.00017638)
(1.25351e-08 -1.05454e-08 -0.000187988)
(-1.03563e-08 -1.72569e-08 -0.000181205)
(4.60995e-09 1.14331e-08 -0.000182508)
(1.03921e-08 1.43147e-08 -0.000180834)
(-4.38187e-09 -1.27005e-08 -0.000182867)
(2.05138e-08 -1.12252e-08 -0.000175338)
(1.32626e-08 -1.41279e-08 -0.000181196)
(-3.56401e-09 1.47127e-08 -0.000182507)
(-1.18182e-08 1.43488e-08 -0.000180833)
(4.32571e-09 -1.36628e-08 -0.000182868)
(1.28214e-08 -2.34955e-08 -0.000188619)
(-1.8703e-08 -9.12694e-09 -0.000175357)
(3.78757e-09 -2.86568e-08 -0.000188229)
(-2.0357e-08 -1.23576e-09 -0.00018817)
(1.66668e-08 -5.92569e-10 -0.000176105)
(-1.32544e-08 -2.89026e-09 -0.000176479)
(5.61498e-09 1.46738e-08 -0.000176001)
(-1.83541e-09 -1.62203e-08 -0.000176388)
(-1.27605e-08 -7.25165e-09 -0.000188124)
(-1.22491e-08 -9.98921e-09 -0.00018801)
(-1.99998e-09 2.27608e-08 -0.000187849)
(2.98393e-09 1.86352e-08 -0.000187846)
(2.62625e-08 -3.95906e-09 -0.000187786)
(-3.80035e-08 1.2811e-08 -0.000187759)
(-1.63024e-08 -8.58794e-09 -0.000175966)
(-8.15724e-09 -1.49986e-08 -0.000187791)
(-1.84904e-08 2.41983e-09 -0.000176092)
(-2.16517e-08 1.52571e-08 -0.000188321)
(2.03315e-08 1.05753e-08 -0.000188766)
(-2.23197e-08 -1.4866e-08 -0.000188345)
(2.04296e-08 -1.02979e-08 -0.000188331)
(-1.43154e-08 4.31301e-09 -0.000176128)
(1.58369e-08 -2.46229e-09 -0.000176497)
(-1.85885e-09 -2.4241e-08 -0.00018822)
(2.34826e-08 3.43542e-09 -0.000188218)
(-1.20699e-08 -2.13346e-08 -0.0001886)
(1.30759e-08 1.93329e-08 -0.000188144)
(-9.62146e-09 2.00239e-08 -0.00018816)
(-2.03866e-08 -8.4597e-09 -0.000174992)
(1.87551e-08 9.8751e-09 -0.000175394)
(1.24362e-08 -9.00812e-09 -0.000187671)
(-1.46533e-08 5.97494e-09 -0.000188032)
(-5.38554e-09 -2.66781e-08 -0.000175234)
(9.41878e-09 1.65125e-08 -0.000175632)
(-1.30128e-08 -1.6449e-08 -0.000174953)
(7.17132e-09 1.53428e-08 -0.000175415)
(1.66942e-08 -1.03376e-08 -0.000187625)
(-3.06937e-09 1.98761e-08 -0.000188036)
(-1.48927e-08 -1.17936e-08 -0.000175189)
(6.02801e-09 1.46412e-08 -0.000175634)
(-1.99961e-09 1.83068e-08 -0.000187747)
(-2.29415e-09 -6.75476e-09 -0.000188193)
(-1.43365e-08 -8.5239e-09 -0.000187678)
(1.24387e-08 7.45018e-09 -0.000188043)
(-4.80967e-09 -2.21197e-08 -0.000187821)
(8.25767e-09 1.17863e-08 -0.000188172)
(8.34213e-09 1.00292e-08 -0.000188054)
(-7.33219e-09 -1.01738e-08 -0.000187651)
(6.64265e-09 1.48981e-08 -0.00018818)
(-1.08451e-08 -1.0353e-08 -0.000187783)
(2.05515e-08 -8.96336e-09 -0.000174976)
(-1.92276e-08 9.38398e-09 -0.00017539)
(2.03882e-08 9.47439e-09 -0.000175393)
(-1.60058e-08 -1.08655e-08 -0.000174972)
(-1.52182e-08 9.81314e-09 -0.000175387)
(1.37801e-08 -1.43062e-08 -0.000174948)
(5.35626e-09 -2.4321e-08 -0.000187836)
(-1.20361e-08 8.56507e-09 -0.000188179)
(-1.48298e-08 7.70101e-09 -0.000188034)
(6.8605e-09 -1.07218e-08 -0.00018765)
(-1.15323e-08 1.19002e-08 -0.000188177)
(9.91303e-09 -1.36958e-08 -0.000187811)
(-7.4149e-09 2.18622e-08 -0.000175272)
(1.02628e-08 -1.5117e-08 -0.000175659)
(8.6348e-09 2.20336e-08 -0.000175634)
(-1.22094e-08 -1.31611e-08 -0.000175208)
(1.39237e-08 -1.47507e-08 -0.000175651)
(-1.26162e-08 1.5323e-08 -0.000175259)
(5.19782e-09 -2.14399e-08 -0.000175239)
(-8.09752e-09 1.55777e-08 -0.00017565)
(6.54141e-09 2.18388e-08 -0.000175209)
(-7.67781e-09 -1.67375e-08 -0.000175621)
(-8.63776e-09 1.71266e-08 -0.000175649)
(1.00898e-08 -1.81994e-08 -0.000175218)
(-7.70714e-09 -1.23827e-08 -0.000175626)
(1.10558e-08 1.41631e-08 -0.000175187)
(-1.22517e-08 -1.03655e-08 -0.000187625)
(3.68508e-10 1.81601e-08 -0.000188062)
(-1.35183e-08 -1.0358e-08 -0.000187756)
(1.31192e-08 1.06839e-08 -0.000188185)
(1.57467e-08 -1.18939e-08 -0.000174933)
(-6.10745e-09 9.40247e-09 -0.000175384)
(1.24326e-08 -1.69408e-08 -0.000187784)
(-1.88194e-08 1.94259e-08 -0.000188195)
(-1.59675e-08 2.04439e-08 -0.000175239)
(2.25979e-08 -1.80594e-08 -0.000175668)
(1.20345e-08 -1.64453e-08 -0.000175196)
(-3.24405e-09 1.62065e-08 -0.000175643)
(6.64186e-09 1.79361e-08 -0.000175167)
(5.90627e-09 -1.38417e-08 -0.000175602)
(-1.75751e-08 1.3701e-08 -0.000187652)
(9.99745e-09 -3.02314e-08 -0.000188088)
(-3.2287e-08 1.6331e-08 -0.000187629)
(-2.21863e-08 9.48318e-09 -0.000174955)
(6.30217e-09 -4.31601e-09 -0.000175425)
(1.77649e-08 1.29075e-08 -0.000174938)
(-6.16132e-09 -1.33698e-08 -0.000175415)
(-2.9012e-08 2.05579e-09 -0.000174987)
(2.96375e-08 6.6462e-09 -0.000174951)
(1.12148e-08 2.39266e-08 -0.000187748)
(-2.35962e-08 -1.46063e-08 -0.000188156)
(8.66978e-09 1.27686e-08 -0.000187619)
(-4.96021e-09 -1.22683e-08 -0.000188058)
(2.69571e-08 2.99485e-09 -0.000187634)
(1.62934e-08 -1.53966e-08 -0.00018087)
(-3.18492e-09 1.39025e-08 -0.000182916)
(5.26952e-09 -1.36262e-08 -0.000182534)
(-1.37438e-08 1.49388e-08 -0.000181256)
(1.71086e-08 9.69621e-09 -0.000175397)
(-1.70827e-08 -1.2147e-08 -0.000174963)
(-9.36171e-09 9.24597e-09 -0.000188041)
(1.368e-08 -7.28796e-09 -0.000187659)
(-1.74218e-08 2.11959e-08 -0.000181109)
(1.27941e-08 3.26422e-09 -0.000183201)
(-1.45565e-08 1.10147e-08 -0.000182846)
(1.4474e-08 -1.16635e-08 -0.000181489)
(2.08575e-08 -2.13415e-08 -0.0001888)
(1.2089e-08 8.18056e-09 -0.000175638)
(-1.95413e-08 7.05682e-09 -0.000188332)
(-7.92942e-09 -2.49601e-08 -0.000175213)
(1.46576e-08 -1.98754e-08 -0.000180881)
(-1.00997e-08 1.13096e-08 -0.000182945)
(2.83664e-09 -1.13903e-08 -0.000182543)
(-1.79048e-08 1.86448e-08 -0.000181296)
(-9.31936e-09 1.59543e-08 -0.000188688)
(1.68354e-08 1.03732e-08 -0.0001754)
(1.54952e-08 -2.22418e-08 -0.000188194)
(-2.0547e-08 -1.27982e-08 -0.000174943)
(-6.86307e-09 1.39314e-08 -0.000188028)
(2.50244e-08 -5.77743e-09 -0.000187605)
(-1.60559e-08 2.01626e-08 -0.000181103)
(1.90437e-08 -5.54705e-09 -0.000183229)
(-1.70311e-08 5.34136e-09 -0.000182831)
(1.44001e-08 -1.24692e-08 -0.000181519)
(1.8122e-08 -4.77018e-09 -0.000188807)
(5.15021e-09 2.24311e-08 -0.000175627)
(-1.09017e-08 -1.56934e-08 -0.000175175)
(3.85257e-09 -6.13274e-09 -0.000188216)
(-3.04961e-10 1.10997e-08 -0.000187731)
(1.12192e-08 1.96037e-09 -0.000176095)
(-5.98454e-09 1.87274e-09 -0.000176507)
(4.26661e-09 1.79793e-08 -0.000175975)
(-2.56519e-10 -1.95532e-08 -0.000176401)
(-3.62867e-09 -9.76049e-10 -0.000176472)
(5.96645e-09 2.34281e-09 -0.000176063)
(9.54775e-10 -2.42501e-08 -0.000176438)
(9.23155e-09 1.68876e-08 -0.00017599)
(1.27346e-08 1.46763e-08 -0.000187844)
(2.89451e-08 -7.36466e-09 -0.000187766)
(5.98741e-09 1.04635e-08 -0.000188052)
(-1.21717e-08 -8.71155e-09 -0.000187649)
(1.32548e-08 2.53178e-09 -0.000188184)
(-4.96089e-09 -1.78782e-08 -0.0001878)
(-1.19956e-08 -8.2526e-09 -0.000187633)
(1.28199e-08 9.02872e-09 -0.000188047)
(-8.91797e-09 -1.23952e-08 -0.000187767)
(7.04581e-09 1.67051e-08 -0.000188168)
(-1.18782e-08 -1.52854e-08 -0.000180851)
(3.73753e-09 1.51893e-08 -0.000182904)
(-1.93406e-09 -1.32121e-08 -0.000182537)
(1.54255e-08 1.46746e-08 -0.000181238)
(-1.63173e-08 9.62886e-09 -0.000175395)
(-1.08776e-08 -2.02271e-08 -0.000188181)
(2.14521e-08 -8.75809e-09 -0.000174959)
(-1.86016e-08 1.41762e-08 -0.000181259)
(5.57171e-09 -1.48523e-08 -0.000182543)
(1.22871e-08 -1.60924e-08 -0.000180886)
(-7.63573e-09 1.28232e-08 -0.00018292)
(-1.29795e-08 -1.36498e-08 -0.000174964)
(1.94351e-08 9.48402e-09 -0.000175389)
(2.06055e-08 1.45384e-08 -0.000181243)
(-1.90675e-09 -1.58165e-08 -0.000182539)
(-1.33979e-08 -1.52458e-08 -0.000180856)
(1.25923e-08 1.44679e-08 -0.000182907)
(-5.46252e-09 -2.06961e-08 -0.000188172)
(1.15337e-08 -1.38091e-08 -0.000174938)
(-1.86962e-08 9.39301e-09 -0.000175385)
(1.16255e-08 -4.79557e-09 -0.000176153)
(-1.60809e-08 -2.37642e-10 -0.000176535)
(-1.24762e-08 3.69688e-09 -0.000176518)
(1.59688e-08 -3.19608e-09 -0.000176127)
(5.28642e-09 -1.67873e-08 -0.000187887)
(-1.36029e-08 3.75563e-09 -0.000188188)
(6.64834e-09 -1.80708e-08 -0.000187823)
(7.5262e-09 -1.09433e-08 -0.000187627)
(-1.73116e-08 6.40032e-09 -0.000188025)
(4.78415e-09 -2.04647e-08 -0.000187858)
(-1.39089e-08 2.10479e-09 -0.000176514)
(1.34772e-08 -4.40377e-09 -0.000176095)
(1.51407e-08 -3.45811e-09 -0.000176107)
(-1.29045e-08 6.35965e-09 -0.000176503)
(3.49991e-09 -1.92475e-08 -0.000187848)
(8.10315e-09 -1.42382e-08 -0.000187793)
(-1.06237e-08 1.1337e-08 -0.00018817)
(-1.48736e-08 -7.04365e-09 -0.000181126)
(1.34116e-08 7.27019e-09 -0.0001832)
(-1.15882e-08 4.09234e-09 -0.000182833)
(1.50414e-08 1.94747e-08 -0.000181479)
(1.0659e-08 -1.32629e-08 -0.000175664)
(-1.9602e-08 -1.23493e-08 -0.000188352)
(-1.06448e-08 1.83088e-08 -0.000175259)
(1.37269e-08 -1.51638e-08 -0.0001815)
(-1.36659e-08 7.08778e-09 -0.000182858)
(-1.63574e-08 1.62461e-08 -0.000181122)
(1.3141e-08 -3.13593e-09 -0.000183208)
(-1.32005e-08 -1.23604e-08 -0.000175203)
(7.83006e-09 2.08735e-08 -0.000175627)
(1.43326e-08 2.2244e-08 -0.000181479)
(-1.44004e-08 2.94816e-09 -0.000182836)
(-1.48525e-08 -9.4415e-09 -0.000181134)
(1.29412e-08 9.68393e-09 -0.000183209)
(-1.19986e-08 1.76814e-08 -0.000175254)
(1.25427e-08 -1.51067e-08 -0.000175652)
(1.50904e-08 1.9528e-08 -0.00018112)
(-1.31538e-08 5.87476e-09 -0.0001832)
(1.32807e-08 8.9638e-09 -0.000182841)
(-1.32235e-08 -9.26245e-09 -0.000181481)
(-1.02361e-08 1.16555e-08 -0.000175648)
(2.15242e-08 1.19709e-08 -0.000188359)
(8.88096e-09 -2.34438e-08 -0.000175227)
(1.40733e-08 -1.20484e-08 -0.000181118)
(-1.43238e-08 9.06035e-09 -0.0001832)
(1.31384e-08 -1.29108e-09 -0.000182848)
(-1.46791e-08 1.62299e-08 -0.000181491)
(-8.86001e-09 -1.13525e-08 -0.000175616)
(2.21434e-08 -1.46363e-08 -0.000188343)
(8.81126e-09 2.00815e-08 -0.000175191)
(-1.47108e-08 -1.92045e-08 -0.000181484)
(1.42762e-08 1.04447e-08 -0.000182844)
(1.54529e-08 1.60101e-08 -0.000181118)
(-1.19399e-08 -4.51312e-09 -0.000183198)
(9.34187e-09 -1.50394e-08 -0.00017521)
(-1.05752e-08 1.6775e-08 -0.000175643)
(-1.4179e-08 2.30465e-08 -0.000181492)
(1.45588e-08 1.32729e-09 -0.00018285)
(1.3898e-08 -9.79782e-09 -0.000181119)
(-1.30376e-08 1.42755e-08 -0.000183195)
(7.95494e-09 1.78736e-08 -0.000175177)
(-1.07935e-08 -1.39204e-08 -0.000175619)
(6.15212e-09 1.08001e-08 -0.000188051)
(-2.03764e-08 -6.74683e-09 -0.000187616)
(9.87726e-09 1.27193e-08 -0.000188174)
(-9.35803e-09 -1.72492e-08 -0.000187737)
(-2.09964e-08 -1.13721e-08 -0.000180853)
(2.61301e-09 1.99633e-08 -0.00018294)
(-9.22797e-09 -1.58978e-08 -0.000182539)
(1.67246e-08 1.44561e-08 -0.000181275)
(-1.32063e-08 9.50129e-09 -0.000175384)
(-9.60486e-09 -2.61492e-08 -0.000188171)
(2.36864e-08 -9.89404e-09 -0.000174916)
(3.24056e-10 3.30706e-08 -0.000188273)
(1.20348e-08 -4.93318e-09 -0.000176086)
(-1.06405e-08 -8.07765e-10 -0.00017651)
(-1.08058e-08 4.09184e-09 -0.000176518)
(9.85115e-09 -5.98317e-09 -0.000176079)
(-1.3503e-08 1.16065e-08 -0.000188174)
(1.4605e-08 -1.31798e-08 -0.000187763)
(-2.42201e-08 -1.89813e-08 -0.000181092)
(9.8791e-09 6.106e-10 -0.000183212)
(-1.25631e-08 -9.14392e-09 -0.000182816)
(2.24011e-08 9.79639e-09 -0.00018152)
(1.41623e-08 -1.88455e-08 -0.000175644)
(-1.49738e-08 -1.69971e-08 -0.000188331)
(-1.58449e-08 1.69997e-08 -0.000175214)
(1.45186e-08 1.38363e-08 -0.000181113)
(-1.42699e-08 -2.78299e-09 -0.000183233)
(1.23671e-08 1.03781e-08 -0.000182849)
(-1.49497e-08 -1.70747e-08 -0.000181532)
(-4.00154e-09 2.37718e-08 -0.000175649)
(2.71062e-08 1.31986e-08 -0.000188334)
(1.16977e-08 -1.88404e-08 -0.000175182)
(8.31015e-09 -1.86482e-08 -0.000181093)
(-2.19088e-08 8.1952e-09 -0.00018323)
(1.62707e-08 -6.26165e-09 -0.000182836)
(-1.31677e-08 1.73743e-08 -0.00018151)
(1.08352e-09 -1.84159e-08 -0.000175619)
(3.16104e-08 -1.65056e-08 -0.000188312)
(5.17248e-09 1.44906e-08 -0.000175151)
(-6.62517e-09 7.25581e-09 -0.000175994)
(-3.2265e-09 -7.50336e-09 -0.000176425)
(-9.93395e-09 -1.9497e-09 -0.000176421)
(-6.05717e-09 1.89715e-09 -0.000175994)
(-2.54568e-08 6.04606e-09 -0.00018787)
(7.37182e-09 -1.65035e-08 -0.000188052)
(-1.80457e-08 1.38284e-08 -0.000187634)
(-4.1234e-08 9.96539e-09 -0.000187816)
(-1.44651e-08 3.97031e-09 -0.000176033)
(1.27687e-08 1.59938e-08 -0.000180848)
(-3.95238e-09 -1.49373e-08 -0.000182934)
(8.23404e-09 1.49328e-08 -0.00018251)
(-2.00335e-08 -1.36614e-08 -0.000181266)
(1.95412e-08 -5.3962e-09 -0.000175425)
(6.3335e-09 2.45895e-08 -0.000188162)
(-2.78691e-08 7.48527e-09 -0.000174947)
(-1.46141e-08 1.57721e-08 -0.00018084)
(8.27708e-09 -1.64609e-08 -0.000182925)
(-5.71862e-09 1.55707e-08 -0.00018252)
(2.09415e-08 -1.61606e-08 -0.000181281)
(-1.51189e-08 -1.00602e-08 -0.0001754)
(-8.98605e-09 2.27997e-08 -0.000188178)
(1.93095e-08 1.13736e-08 -0.000174927)
(3.19039e-09 1.64269e-08 -0.000182528)
(3.36603e-09 1.3396e-08 -0.000180858)
(-9.66147e-10 1.59548e-08 -0.000182534)
(-1.07099e-09 1.28616e-08 -0.000180846)
(-1.68872e-08 -7.73824e-09 -0.000188135)
(1.20053e-08 1.65398e-08 -0.00018771)
(-1.35826e-08 -7.89423e-09 -0.000188043)
(1.82798e-08 8.53812e-09 -0.000187603)
(1.8768e-08 1.25565e-08 -0.000176011)
(1.30808e-08 -2.08614e-08 -0.000175116)
(4.70464e-08 -4.96068e-09 -0.000175556)
(-1.40401e-08 -2.08408e-08 -0.000187732)
(-4.84597e-08 -1.0878e-08 -0.000188105)
(-1.50304e-08 -1.00702e-08 -0.000175184)
(7.72628e-09 1.4657e-08 -0.000175587)
(-8.84703e-09 1.51676e-08 -0.000187806)
(1.1238e-08 -1.1948e-08 -0.000188172)
(-3.72776e-08 -4.74166e-09 -0.00017498)
(6.79603e-09 9.74121e-09 -0.000175398)
(2.25926e-08 -5.2596e-09 -0.000187652)
(1.14207e-09 1.32051e-08 -0.00018802)
(-1.33416e-08 -1.25554e-08 -0.000175215)
(3.49656e-09 1.99962e-08 -0.000175647)
(-7.74833e-09 1.73658e-08 -0.000187857)
(8.15149e-09 -8.7316e-09 -0.000188218)
(-1.71852e-08 -1.03861e-08 -0.000174993)
(2.66695e-08 3.8464e-09 -0.000175409)
(9.97802e-09 -1.26085e-08 -0.000187685)
(-1.38985e-08 7.12305e-09 -0.000188043)
(-8.07742e-09 -2.57955e-08 -0.000175249)
(1.05701e-08 1.04217e-08 -0.000175643)
(-1.47133e-08 1.04599e-08 -0.000187859)
(8.19888e-09 -1.4749e-08 -0.000188201)
(-6.46158e-09 -1.53289e-08 -0.000175003)
(2.45722e-08 4.29378e-09 -0.0001754)
(6.51798e-10 -1.78128e-08 -0.000187677)
(-1.87084e-08 5.74501e-09 -0.000188041)
(-1.29165e-08 -1.22536e-08 -0.000175247)
(8.05398e-09 1.26678e-08 -0.000175633)
(-1.21981e-08 1.30524e-08 -0.000187848)
(8.81134e-09 -1.42031e-08 -0.000188205)
(-1.97337e-08 -1.22888e-08 -0.000174979)
(6.02268e-09 1.11861e-08 -0.000175381)
(1.62346e-08 -7.52475e-09 -0.000187673)
(-3.63753e-09 1.20056e-08 -0.000188039)
(-1.05367e-08 -1.51111e-08 -0.000175227)
(8.8912e-09 9.31018e-09 -0.000175614)
(-7.75153e-09 1.54398e-08 -0.000187845)
(1.06161e-08 -7.23881e-09 -0.000188197)
(-1.94593e-08 -1.07331e-08 -0.000174966)
(2.19454e-08 9.43726e-09 -0.000175377)
(8.66515e-09 -9.56789e-09 -0.000187643)
(-1.73147e-08 9.43497e-09 -0.000188005)
(-1.23074e-08 -1.07219e-08 -0.000175207)
(6.03545e-09 2.57285e-08 -0.00017561)
(-8.1957e-09 9.48348e-09 -0.000187822)
(6.77197e-09 -1.76353e-08 -0.000188166)
(-2.56737e-08 -6.56421e-09 -0.000174945)
(1.7418e-08 9.90381e-09 -0.000175355)
(1.35124e-08 -6.79164e-09 -0.000187626)
(-1.14347e-08 1.2464e-08 -0.000188011)
(-5.77066e-09 -1.84045e-08 -0.000175186)
(8.42186e-09 1.75524e-08 -0.00017559)
(-4.01136e-09 1.32911e-08 -0.000187821)
(1.32952e-08 -8.93109e-09 -0.000188176)
(-1.41781e-08 -8.47469e-09 -0.000174944)
(2.26698e-08 9.73673e-09 -0.000175359)
(7.60787e-09 -6.83047e-09 -0.000187632)
(-9.19279e-09 1.42857e-08 -0.000187995)
(-6.80088e-09 -1.32599e-08 -0.000175181)
(1.23232e-08 1.55813e-08 -0.000175585)
(-6.39681e-09 8.95309e-09 -0.000187815)
(1.38322e-08 -1.08232e-08 -0.000188158)
(-1.22932e-08 -9.56106e-09 -0.000174945)
(2.31297e-08 9.17821e-09 -0.000175358)
(9.27375e-09 -1.02373e-08 -0.000187629)
(-1.44392e-08 1.19437e-08 -0.000187989)
(-6.12787e-09 -1.61585e-08 -0.000175181)
(1.12944e-08 1.53867e-08 -0.000175576)
(-9.48476e-09 1.07936e-08 -0.000187798)
(1.21644e-08 -1.54448e-08 -0.000188149)
(-1.69608e-08 -9.54825e-09 -0.000174923)
(1.62486e-08 8.98556e-09 -0.000175355)
(1.07956e-08 -9.28527e-09 -0.000187601)
(-1.76624e-08 6.05134e-09 -0.000187974)
(-9.77482e-09 -1.69498e-08 -0.000175155)
(1.05498e-08 1.46476e-08 -0.000175575)
(-5.36045e-09 2.01096e-08 -0.000187779)
(1.03693e-08 -1.02746e-08 -0.000188138)
(-1.28074e-08 -9.25908e-09 -0.000174942)
(2.19819e-08 7.06468e-09 -0.000175357)
(1.24611e-08 -1.32158e-08 -0.000187608)
(-1.06187e-08 7.47371e-09 -0.000187993)
(-9.25468e-09 -1.16918e-08 -0.000175182)
(7.92502e-09 1.75332e-08 -0.000175587)
(-9.7269e-09 1.76457e-08 -0.000187793)
(7.89729e-09 -9.48957e-09 -0.000188154)
(-2.17706e-08 -8.65182e-09 -0.000174939)
(8.64822e-09 9.09198e-09 -0.000175362)
(1.27013e-08 -1.25526e-08 -0.000187637)
(-6.42213e-09 1.15794e-08 -0.000188019)
(-9.52022e-09 -2.09583e-08 -0.000175189)
(1.07041e-08 1.9729e-09 -0.000175599)
(-8.7929e-09 1.86099e-08 -0.000187806)
(9.61157e-09 -9.57816e-09 -0.000188169)
(-1.98396e-08 -1.38792e-08 -0.000174944)
(2.18126e-08 3.23224e-09 -0.000175356)
(1.36832e-08 -8.82888e-09 -0.000187644)
(-1.09893e-08 8.27115e-09 -0.000188009)
(-1.26872e-08 -1.91401e-08 -0.000175191)
(3.5796e-09 1.73975e-08 -0.000175594)
(-9.75333e-09 9.92487e-09 -0.000187803)
(6.93328e-09 -1.45562e-08 -0.000188154)
(-1.32659e-08 -1.03905e-08 -0.00017497)
(2.32032e-08 3.5811e-09 -0.000175393)
(7.57684e-09 -1.33429e-08 -0.000187664)
(-1.53587e-08 5.71273e-09 -0.000188036)
(-1.15699e-08 -1.36746e-08 -0.000175213)
(4.65336e-09 2.15227e-08 -0.00017562)
(-1.21495e-08 1.32154e-08 -0.000187834)
(7.55545e-09 -1.50215e-08 -0.000188188)
(-2.14385e-08 -1.04909e-08 -0.000174985)
(1.69709e-08 7.25225e-09 -0.000175402)
(1.46908e-08 -6.74287e-09 -0.000187675)
(-9.46243e-09 7.15612e-09 -0.000188038)
(-9.96881e-09 -1.97651e-08 -0.000175224)
(9.09564e-09 1.11453e-08 -0.00017563)
(-7.00829e-09 1.44403e-08 -0.000187852)
(7.90681e-09 -1.11571e-08 -0.000188206)
(-5.69998e-09 1.78095e-08 -0.000187836)
(7.77685e-09 -1.14219e-08 -0.000188221)
(3.19803e-08 1.69612e-09 -0.000188098)
(9.62752e-09 7.90569e-09 -0.000188148)
(4.40612e-08 1.99852e-09 -0.000175508)
(-2.52308e-08 -6.63076e-09 -0.000174954)
(-4.17724e-08 3.02583e-09 -0.000175489)
(2.25198e-08 -7.4263e-09 -0.000174951)
(-3.36984e-08 -1.74564e-10 -0.000188089)
(2.98323e-08 -3.51924e-09 -0.000187614)
(-1.13387e-08 5.69503e-09 -0.000188146)
(1.15847e-08 -7.78114e-09 -0.000187797)
(5.62488e-09 2.43599e-08 -0.000175618)
(4.76494e-09 -2.17035e-08 -0.000175645)
(-7.47577e-09 2.00576e-08 -0.000175628)
(1.01043e-08 -1.35791e-08 -0.000175222)
(-7.44868e-09 -1.77019e-08 -0.00017561)
(7.30076e-09 -1.1596e-08 -0.000188171)
(3.82297e-09 -1.17252e-08 -0.000188)
(2.34385e-08 -7.30089e-09 -0.000175358)
(-2.03377e-08 -7.50374e-09 -0.000175384)
(-1.10283e-08 -7.5135e-09 -0.000188136)
(-6.61017e-09 -1.03596e-08 -0.000188026)
(1.38914e-08 -2.00462e-08 -0.000187755)
(5.10072e-08 -1.32265e-08 -0.000188117)
(-5.72012e-09 -1.65443e-08 -0.000187783)
(1.19314e-08 6.34918e-09 -0.000188142)
(-3.44491e-09 1.45048e-08 -0.000188032)
(1.05707e-08 -2.68553e-08 -0.000187718)
(9.84933e-09 7.33755e-09 -0.000188177)
(-7.41404e-09 -1.92592e-08 -0.000187789)
(-6.12793e-09 -1.80698e-08 -0.000175106)
(-4.44912e-08 -3.23739e-09 -0.000175538)
(-2.98912e-09 1.5583e-08 -0.000175419)
(-3.25626e-09 -1.69909e-08 -0.000175105)
(-4.83386e-09 1.28356e-08 -0.000175406)
(-1.38057e-09 -1.77046e-08 -0.000175093)
(2.25896e-09 -2.05237e-08 -0.000187785)
(-9.66213e-09 1.23025e-08 -0.000188141)
(-6.48811e-09 1.02428e-08 -0.000188023)
(-9.03659e-09 -2.45958e-08 -0.000187704)
(-1.11549e-08 7.23903e-09 -0.00018818)
(1.20848e-08 -1.0262e-08 -0.000187794)
(-1.42987e-08 1.15215e-08 -0.000175222)
(6.09911e-09 -1.6692e-08 -0.000175634)
(1.0637e-08 1.34722e-08 -0.000175621)
(-8.66663e-09 -1.921e-08 -0.000175199)
(1.01529e-08 -1.09813e-08 -0.000175673)
(-8.28635e-09 1.5167e-08 -0.000175249)
(1.17712e-08 -1.51722e-08 -0.000175203)
(-7.16049e-09 1.68764e-08 -0.000175607)
(1.08011e-08 1.78448e-08 -0.000175186)
(-5.97233e-09 -1.78669e-08 -0.00017559)
(-9.56614e-09 1.65025e-08 -0.000175633)
(7.16984e-09 -1.69345e-08 -0.000175221)
(-1.13101e-08 -1.50809e-08 -0.000175617)
(8.5246e-09 1.50435e-08 -0.000175203)
(-1.82253e-08 4.32711e-09 -0.000187625)
(7.36112e-09 -1.10825e-08 -0.000188003)
(1.24499e-08 -5.36725e-09 -0.0001882)
(-8.17175e-09 1.64733e-08 -0.000187822)
(1.07098e-09 -1.4165e-08 -0.000188023)
(-2.16883e-08 6.27174e-09 -0.000187632)
(-1.38849e-08 1.30191e-08 -0.00017492)
(1.79606e-08 -7.19235e-09 -0.000175346)
(2.01896e-08 1.1534e-08 -0.000174943)
(-1.25668e-08 -8.88329e-09 -0.00017537)
(1.46942e-08 -1.12924e-08 -0.000175372)
(-2.29857e-08 6.93199e-09 -0.000174938)
(-1.59029e-08 -1.0208e-08 -0.000175387)
(2.4475e-08 4.67103e-09 -0.000174965)
(5.0373e-09 1.71948e-08 -0.000187766)
(-9.80156e-09 -1.02752e-08 -0.000188126)
(2.15472e-08 4.25219e-09 -0.000187648)
(-8.6285e-09 -1.14091e-08 -0.000188019)
(-8.70267e-09 -1.16519e-08 -0.000188147)
(1.16369e-08 1.03175e-08 -0.000187765)
(-7.21636e-09 -1.19903e-08 -0.000188026)
(1.74298e-08 7.71575e-09 -0.000187647)
(-2.92033e-08 -7.34504e-10 -0.000187668)
(-8.90241e-10 1.2579e-08 -0.000188033)
(-9.60436e-09 -1.12432e-08 -0.000187827)
(4.63791e-09 1.36567e-08 -0.000188195)
(1.3109e-08 8.46272e-09 -0.000188049)
(-2.29554e-08 -6.02659e-09 -0.000187664)
(1.01133e-08 6.17666e-09 -0.000188199)
(-1.07225e-08 -1.28454e-08 -0.000187837)
(3.24177e-08 -7.95812e-09 -0.000174961)
(-8.40904e-09 9.23084e-09 -0.000175373)
(1.45063e-08 1.09791e-08 -0.0001754)
(-3.05695e-08 -6.23813e-09 -0.00017498)
(-1.38476e-08 8.98749e-09 -0.00017539)
(2.58162e-08 -7.48804e-09 -0.000174959)
(7.39339e-09 -1.31084e-08 -0.000187837)
(-4.89918e-09 1.18444e-08 -0.000188193)
(-1.16408e-08 8.18012e-09 -0.000188046)
(2.32769e-08 -4.36619e-09 -0.000187657)
(-9.79644e-09 9.58201e-09 -0.000188207)
(1.22335e-08 -1.24377e-08 -0.00018784)
(-9.48418e-09 1.93505e-08 -0.000175278)
(4.96497e-09 -1.59461e-08 -0.000175697)
(1.49623e-08 3.51899e-09 -0.00017565)
(-1.10628e-08 -1.78309e-08 -0.000175249)
(7.55791e-09 -1.25999e-08 -0.000175691)
(-9.20872e-09 1.64205e-08 -0.000175296)
(1.25641e-08 -1.23344e-08 -0.000175235)
(5.96059e-10 2.83377e-08 -0.000175646)
(1.27682e-08 1.33639e-08 -0.000175216)
(-3.76771e-09 -1.94441e-08 -0.000175631)
(-8.11904e-09 1.25031e-08 -0.000175648)
(1.41747e-08 -7.79956e-09 -0.000175255)
(-6.40787e-09 -1.52189e-08 -0.000175639)
(1.12539e-08 1.48781e-08 -0.000175234)
(-2.04774e-08 3.29915e-09 -0.000187658)
(1.18589e-08 -5.11362e-09 -0.00018804)
(6.75935e-09 -1.60305e-08 -0.000188218)
(-9.82819e-09 1.43995e-08 -0.000187862)
(1.88119e-08 -2.76487e-09 -0.000188043)
(-9.60161e-09 1.24551e-08 -0.000187667)
(-1.97981e-08 9.69519e-09 -0.000174955)
(2.22275e-08 -4.18699e-09 -0.000175394)
(2.04574e-08 9.94517e-09 -0.000174968)
(-2.18954e-08 -4.23536e-09 -0.000175398)
(2.14803e-08 -7.28414e-09 -0.000175388)
(-1.84821e-08 1.02732e-08 -0.000174978)
(-2.47233e-08 -4.35918e-09 -0.0001754)
(1.26372e-08 1.16992e-08 -0.000174985)
(8.13018e-09 1.17622e-08 -0.000187801)
(-7.97665e-09 -7.89007e-09 -0.000188161)
(1.81302e-08 5.69441e-09 -0.000187665)
(-1.17948e-08 -8.29154e-09 -0.000188043)
(-7.5812e-09 -1.1518e-08 -0.000188171)
(8.19618e-09 1.61022e-08 -0.000187807)
(-1.77692e-08 -5.56588e-09 -0.000188052)
(1.33743e-08 1.05457e-08 -0.00018767)
(-7.01577e-09 -1.20443e-08 -0.00018768)
(1.70147e-08 6.38192e-09 -0.000188042)
(-7.39608e-09 -1.44722e-08 -0.000187839)
(1.07244e-08 3.5443e-09 -0.000188178)
(1.64599e-08 3.76976e-09 -0.000188058)
(-9.71826e-09 -1.12409e-08 -0.000187684)
(9.45123e-09 6.94327e-09 -0.000188193)
(-5.67522e-09 -1.76855e-08 -0.000187827)
(2.02423e-08 -1.04149e-08 -0.000174977)
(-2.00403e-08 7.10756e-09 -0.000175399)
(2.55499e-08 5.04785e-09 -0.000175415)
(-1.45169e-08 -1.44068e-08 -0.000174992)
(-2.69021e-08 3.97037e-09 -0.000175405)
(1.6835e-08 -1.36091e-08 -0.000174974)
(7.03853e-09 -1.81635e-08 -0.000187856)
(-8.92895e-09 7.57423e-09 -0.000188199)
(-2.3016e-08 1.48943e-09 -0.000188048)
(8.78558e-09 -1.09365e-08 -0.000187689)
(-1.29969e-08 -1.35392e-10 -0.000188217)
(8.33623e-09 -1.45732e-08 -0.000187848)
(-1.09858e-08 1.52786e-08 -0.000175295)
(6.45084e-09 -1.46717e-08 -0.00017568)
(8.96607e-09 1.31301e-08 -0.000175648)
(-9.67497e-09 -2.38188e-08 -0.000175239)
(6.54165e-09 -1.40469e-08 -0.000175681)
(-1.14301e-08 1.61356e-08 -0.000175271)
(9.00735e-09 -1.97862e-08 -0.000175263)
(-7.2122e-09 1.44585e-08 -0.000175651)
(1.08373e-08 1.75589e-08 -0.00017524)
(-8.70881e-09 -9.61019e-09 -0.000175639)
(-8.04434e-09 1.02287e-08 -0.000175654)
(1.13258e-08 -2.2919e-08 -0.000175254)
(-7.86526e-09 -1.10536e-08 -0.000175636)
(1.02102e-08 2.21656e-08 -0.000175231)
(-6.80993e-09 1.32205e-08 -0.000187667)
(1.61632e-08 -3.35568e-09 -0.000188024)
(9.77683e-09 -9.39385e-09 -0.000188209)
(-1.06641e-08 9.28051e-09 -0.000187852)
(1.16959e-08 -6.42396e-09 -0.000188032)
(-8.30439e-09 1.15753e-08 -0.000187655)
(-1.43735e-08 1.37531e-08 -0.00017497)
(2.61874e-08 -4.4797e-09 -0.000175377)
(1.40011e-08 1.16526e-08 -0.000174992)
(-1.89284e-08 -5.20899e-09 -0.0001754)