/*--------------------------------*- C++ -*----------------------------------*\
| =========                 |                                                 |
| \\      /  F ield         | OpenFOAM: The Open Source CFD Toolbox           |
|  \\    /   O peration     | Version:  2206                                  |
|   \\  /    A nd           | Website:  www.openfoam.com                      |
|    \\/     M anipulation  |                                                 |
\*---------------------------------------------------------------------------*/
FoamFile
{
    version     2.0;
    format      ascii;
    arch        "LSB;label=32;scalar=64";
    class       volScalarField;
    location    "26";
    object      k;
}
// * * * * * * * * * * * * * * * * * * * * * * * * * * * * * * * * * * * * * //

dimensions      [0 2 -2 0 0 0 0];

internalField   nonuniform List<scalar> 
66621
(
8.7441e-06
1.57631e-05
8.46209e-06
2.21856e-05
1.67324e-05
2.75562e-05
5.86002e-06
2.25227e-05
2.78142e-05
2.75853e-05
1.65375e-05
2.73255e-05
1.072e-05
1.08082e-05
5.85578e-06
5.70247e-06
2.73218e-05
1.07751e-05
1.04929e-05
2.78325e-05
1.68533e-05
1.08715e-05
5.87241e-06
2.22191e-05
2.78743e-05
1.64781e-05
2.76668e-05
1.57994e-05
8.68653e-06
2.22121e-05
2.78892e-05
2.76811e-05
1.68433e-05
1.56485e-05
8.64498e-06
2.21014e-05
2.78607e-05
2.75034e-05
1.65759e-05
1.54723e-05
8.34791e-06
2.73407e-05
1.07885e-05
1.06514e-05
5.69002e-06
2.26242e-05
2.79168e-05
2.75064e-05
1.68904e-05
1.59492e-05
8.38285e-06
1.59901e-05
8.59987e-06
5.75527e-06
5.81584e-06
1.10433e-05
5.33793e-06
6.3313e-06
1.48321e-05
6.93954e-06
1.5775e-05
1.48381e-05
6.9539e-06
6.34065e-06
5.2111e-06
1.06687e-05
8.46584e-06
1.06726e-05
5.22255e-06
5.8542e-06
7.96126e-06
5.14783e-06
5.11447e-06
5.15537e-06
5.10932e-06
7.99502e-06
1.50218e-05
8.37724e-06
1.0657e-05
1.93504e-05
1.92831e-05
8.34715e-06
1.50784e-05
1.4946e-05
8.18893e-06
1.08094e-05
1.93183e-05
1.93251e-05
8.20046e-06
1.4943e-05
5.71412e-06
7.78803e-06
5.00314e-06
4.94932e-06
5.01203e-06
4.95614e-06
7.78509e-06
1.4837e-05
8.14994e-06
1.94028e-05
8.1732e-06
1.47929e-05
1.46102e-05
7.95852e-06
1.05465e-05
1.90295e-05
7.97483e-06
1.46547e-05
1.90498e-05
5.10571e-06
7.88948e-06
8.29558e-06
1.96527e-05
1.5097e-05
6.33875e-06
6.8908e-06
1.49197e-05
1.58329e-05
6.8678e-06
1.49383e-05
6.37678e-06
5.27476e-06
1.09314e-05
8.69466e-06
1.09464e-05
5.28278e-06
1.50497e-05
6.78018e-06
6.35497e-06
1.08514e-05
5.28562e-06
6.74551e-06
1.4518e-05
6.15949e-06
1.05229e-05
5.09637e-06
8.00899e-06
5.12451e-06
5.11242e-06
5.12977e-06
5.11121e-06
8.01205e-06
1.50076e-05
8.29277e-06
1.07484e-05
1.94091e-05
8.30922e-06
1.93725e-05
1.50287e-05
1.50528e-05
8.2507e-06
1.06086e-05
1.94726e-05
1.93224e-05
8.25718e-06
1.50608e-05
5.71036e-06
6.36202e-06
1.49384e-05
6.98726e-06
1.59561e-05
1.49414e-05
7.00092e-06
6.34799e-06
5.18688e-06
1.06702e-05
8.3871e-06
1.069e-05
5.18816e-06
6.35427e-06
1.48953e-05
6.95653e-06
1.6e-05
1.48699e-05
6.96129e-06
6.36472e-06
5.24761e-06
1.08508e-05
8.6121e-06
1.08709e-05
5.28159e-06
5.81273e-06
2.43798e-05
2.34218e-05
2.30894e-05
2.15217e-05
2.47209e-05
2.34223e-05
2.3164e-05
2.16125e-05
2.44201e-05
2.30861e-05
2.30093e-05
2.15456e-05
2.4431e-05
2.31281e-05
2.3061e-05
2.17156e-05
2.63978e-05
2.15277e-05
2.68505e-05
2.2232e-05
2.15623e-05
2.68814e-05
2.63601e-05
1.96463e-05
2.3034e-05
2.51465e-05
2.6668e-05
2.7312e-05
2.18795e-05
2.25393e-05
2.72021e-05
2.17166e-05
2.66943e-05
2.52197e-05
1.95532e-05
1.65914e-05
2.28661e-05
2.30019e-05
1.94018e-05
2.51893e-05
2.04491e-05
2.72949e-05
2.46119e-05
2.45729e-05
2.47695e-05
2.45979e-05
2.04374e-05
2.02105e-05
2.74457e-05
2.47021e-05
2.43958e-05
2.03184e-05
2.46092e-05
2.45001e-05
1.97312e-05
2.29563e-05
2.52179e-05
2.63651e-05
2.12929e-05
2.69252e-05
2.2254e-05
2.13229e-05
2.71241e-05
2.62629e-05
2.49388e-05
1.93005e-05
1.64859e-05
2.27122e-05
1.93248e-05
2.27584e-05
2.49105e-05
2.63566e-05
2.70031e-05
2.13731e-05
2.22469e-05
2.68371e-05
2.14229e-05
2.6313e-05
2.52185e-05
1.95413e-05
1.68426e-05
2.29192e-05
1.95671e-05
2.51673e-05
2.30117e-05
2.62173e-05
2.67771e-05
2.11506e-05
2.21427e-05
2.68117e-05
2.13134e-05
2.61717e-05
2.50093e-05
1.9202e-05
1.65088e-05
2.28999e-05
2.279e-05
1.92252e-05
2.49713e-05
2.05927e-05
2.73993e-05
2.4659e-05
2.46001e-05
2.46441e-05
2.46837e-05
2.04418e-05
2.647e-05
2.71878e-05
2.15333e-05
2.24654e-05
2.70654e-05
2.14701e-05
2.66482e-05
2.52725e-05
1.9539e-05
1.68135e-05
2.31275e-05
2.30168e-05
1.95477e-05
2.52295e-05
1.74468e-06
4.24594e-07
9.17891e-08
8.62239e-08
5.89406e-07
1.70059e-06
4.14515e-07
9.01289e-08
8.62591e-08
5.90978e-07
1.8138e-06
4.52767e-07
1.00514e-07
9.81117e-08
6.76273e-07
1.80723e-06
4.5124e-07
1.00243e-07
9.79989e-08
6.75491e-07
1.76659e-06
4.41722e-07
9.86225e-08
9.78783e-08
6.75863e-07
1.82013e-06
4.54897e-07
1.01009e-07
9.81807e-08
6.76309e-07
1.74056e-06
4.23792e-07
9.17042e-08
8.63994e-08
5.90946e-07
1.73416e-06
4.22056e-07
9.14269e-08
8.64095e-08
5.91124e-07
1.6693e-06
4.06777e-07
8.87618e-08
8.61255e-08
5.90901e-07
1.74971e-06
4.37475e-07
9.7843e-08
9.76834e-08
6.74947e-07
1.66106e-06
4.04534e-07
8.82818e-08
8.5844e-08
5.89208e-07
1.70282e-06
4.14255e-07
8.99817e-08
8.60133e-08
5.89248e-07
1.78353e-06
4.45401e-07
9.92319e-08
9.79617e-08
6.76084e-07
1.78675e-06
4.46349e-07
9.9369e-08
9.78323e-08
6.74996e-07
1.56847e-06
3.88973e-07
8.74569e-08
9.07841e-08
6.28336e-07
1.62436e-06
4.04406e-07
9.08335e-08
9.31839e-08
6.45254e-07
1.62301e-06
4.03214e-07
9.05888e-08
9.28454e-08
6.42733e-07
1.57341e-06
3.90335e-07
8.77549e-08
9.11523e-08
6.31035e-07
1.69753e-06
4.13797e-07
8.99514e-08
8.58499e-08
5.87828e-07
1.80248e-06
4.50675e-07
1.00122e-07
9.76899e-08
6.73176e-07
1.73299e-06
4.22096e-07
9.17054e-08
8.72439e-08
5.97473e-07
1.71814e-06
4.18459e-07
9.1028e-08
8.68496e-08
5.94872e-07
1.69105e-06
4.12689e-07
8.99873e-08
8.69989e-08
5.96958e-07
1.6927e-06
4.12592e-07
8.98899e-08
8.66127e-08
5.93965e-07
1.76709e-06
4.41058e-07
9.84342e-08
9.75087e-08
6.73072e-07
1.66985e-06
4.17911e-07
9.44935e-08
9.78829e-08
6.78595e-07
1.71595e-06
4.18882e-07
9.11789e-08
8.72156e-08
5.97623e-07
1.56851e-06
3.87835e-07
8.71856e-08
9.07682e-08
6.28476e-07
1.61547e-06
4.01403e-07
9.02737e-08
9.31214e-08
6.45227e-07
1.60743e-06
3.99914e-07
8.99413e-08
9.27588e-08
6.42598e-07
1.57585e-06
3.89564e-07
8.75522e-08
9.112e-08
6.30956e-07
1.7396e-06
4.23284e-07
9.15321e-08
8.60264e-08
5.88143e-07
1.58233e-06
3.92881e-07
8.87045e-08
9.29181e-08
6.44959e-07
1.57393e-06
3.89716e-07
8.76275e-08
9.11248e-08
6.30976e-07
1.57071e-06
3.89914e-07
8.82031e-08
9.28645e-08
6.44865e-07
1.52451e-06
3.77472e-07
8.54528e-08
9.08738e-08
6.30679e-07
1.67852e-06
4.20879e-07
9.51092e-08
9.79416e-08
6.78465e-07
1.70001e-06
4.14876e-07
9.04413e-08
8.708e-08
5.97101e-07
1.69594e-06
4.14056e-07
9.02592e-08
8.66837e-08
5.94048e-07
1.75283e-06
4.37519e-07
9.76862e-08
9.73003e-08
6.72032e-07
1.55025e-06
3.83421e-07
8.63403e-08
9.04083e-08
6.26348e-07
1.6057e-06
3.99032e-07
8.97774e-08
9.27534e-08
6.428e-07
1.60696e-06
3.986e-07
8.96661e-08
9.24142e-08
6.40186e-07
1.5522e-06
3.84215e-07
8.65877e-08
9.0779e-08
6.2909e-07
1.65897e-06
4.03789e-07
8.80859e-08
8.54241e-08
5.85999e-07
1.55037e-06
3.83256e-07
8.63237e-08
9.04038e-08
6.26369e-07
1.60299e-06
3.98962e-07
8.97585e-08
9.27503e-08
6.42823e-07
1.60081e-06
3.98054e-07
8.95713e-08
9.24032e-08
6.4018e-07
1.553e-06
3.84554e-07
8.66889e-08
9.07761e-08
6.2903e-07
1.6989e-06
4.12873e-07
8.96792e-08
8.55964e-08
5.8616e-07
1.78637e-06
4.45771e-07
9.91687e-08
9.74368e-08
6.72015e-07
1.68529e-06
4.22058e-07
9.52388e-08
9.79481e-08
6.78633e-07
1.66726e-06
4.17911e-07
9.44722e-08
9.78008e-08
6.78067e-07
1.79179e-06
4.48442e-07
9.99124e-08
9.85264e-08
6.79785e-07
1.75276e-06
4.39511e-07
9.83983e-08
9.80691e-08
6.77195e-07
1.76009e-06
4.41257e-07
9.87464e-08
9.85138e-08
6.80484e-07
1.68557e-06
4.22254e-07
9.53131e-08
9.79644e-08
6.78626e-07
1.72016e-06
4.19585e-07
9.12543e-08
8.72406e-08
5.97789e-07
1.71812e-06
4.19054e-07
9.11058e-08
8.68875e-08
5.95118e-07
1.68287e-06
4.21414e-07
9.50677e-08
9.75366e-08
6.75449e-07
1.66086e-06
4.16033e-07
9.40522e-08
9.73881e-08
6.75143e-07
1.63624e-06
4.10008e-07
9.31298e-08
9.76826e-08
6.78209e-07
1.68483e-06
4.10922e-07
8.97121e-08
8.69605e-08
5.96745e-07
1.68004e-06
4.10019e-07
8.95071e-08
8.66207e-08
5.94286e-07
1.62523e-06
4.07807e-07
9.27284e-08
9.76377e-08
6.78085e-07
1.65407e-06
4.04149e-07
8.86538e-08
8.69661e-08
5.97649e-07
1.65413e-06
4.03722e-07
8.85047e-08
8.65795e-08
5.94652e-07
1.63868e-06
4.09772e-07
9.29936e-08
9.72658e-08
6.74982e-07
1.62342e-06
4.07107e-07
9.25832e-08
9.72776e-08
6.75373e-07
1.77375e-06
4.43732e-07
9.90712e-08
9.81179e-08
6.77138e-07
1.78191e-06
4.45772e-07
9.94879e-08
9.85896e-08
6.80604e-07
1.78026e-06
4.46207e-07
9.96836e-08
9.86493e-08
6.80799e-07
1.71498e-06
4.29087e-07
9.65761e-08
9.83077e-08
6.80507e-07
1.67722e-06
4.20796e-07
9.49928e-08
9.75435e-08
6.75491e-07
1.67082e-06
4.19157e-07
9.47215e-08
9.75262e-08
6.75518e-07
1.72397e-06
4.30586e-07
9.66716e-08
9.76917e-08
6.75609e-07
1.72531e-06
4.32172e-07
9.70923e-08
9.81744e-08
6.79121e-07
1.73941e-06
4.34429e-07
9.73233e-08
9.77666e-08
6.75711e-07
1.75444e-06
4.37971e-07
9.80314e-08
9.82738e-08
6.79202e-07
5.91586e-06
5.73253e-06
2.72843e-05
1.07798e-05
1.05735e-05
1.58309e-05
8.53615e-06
2.24177e-05
2.78934e-05
1.6588e-05
2.74883e-05
1.58427e-05
8.77304e-06
2.24136e-05
2.79227e-05
2.74672e-05
1.68751e-05
2.79675e-05
1.67188e-05
8.49802e-06
5.88464e-06
2.75022e-05
1.08802e-05
1.07695e-05
5.72796e-06
2.25393e-05
2.78575e-05
2.761e-05
1.6671e-05
2.25705e-05
2.78742e-05
2.74906e-05
1.69816e-05
1.60245e-05
8.43411e-06
1.60513e-05
8.70399e-06
2.73821e-05
1.08145e-05
1.08904e-05
5.79684e-06
5.88267e-06
5.03989e-06
5.00619e-06
7.81816e-06
8.18646e-06
1.92719e-05
1.47598e-05
8.06166e-06
1.91661e-05
1.46913e-05
6.35878e-06
1.49087e-05
6.97e-06
1.60246e-05
6.34079e-06
1.5061e-05
7.02627e-06
5.24438e-06
1.08138e-05
8.65362e-06
5.22766e-06
1.08557e-05
6.37305e-06
6.9609e-06
1.49954e-05
1.59733e-05
6.36805e-06
6.975e-06
1.50977e-05
5.29081e-06
1.09974e-05
8.78896e-06
5.29092e-06
1.09991e-05
5.16628e-06
1.06049e-05
8.59001e-06
5.14422e-06
1.07561e-05
5.91608e-06
8.09747e-06
5.14368e-06
5.16572e-06
8.03935e-06
5.15129e-06
5.18601e-06
1.51163e-05
8.32661e-06
1.95265e-05
1.09394e-05
1.96692e-05
1.50359e-05
8.36152e-06
1.51759e-05
8.3104e-06
1.95335e-05
1.08129e-05
1.51144e-05
8.41575e-06
1.96054e-05
5.78074e-06
6.37814e-06
1.50245e-05
7.05585e-06
1.60916e-05
6.36899e-06
1.5075e-05
7.01503e-06
5.20801e-06
1.07661e-05
8.55187e-06
5.217e-06
1.08325e-05
6.3972e-06
1.50042e-05
7.01772e-06
1.61138e-05
6.36494e-06
1.51013e-05
7.0227e-06
5.33812e-06
1.10056e-05
8.75674e-06
5.31043e-06
1.10541e-05
8.01332e-06
5.18139e-06
5.10384e-06
7.98877e-06
5.18006e-06
5.12586e-06
1.52603e-05
8.40596e-06
1.94821e-05
1.08991e-05
1.51518e-05
1.97055e-05
8.46849e-06
1.50636e-05
8.26672e-06
1.93979e-05
1.09544e-05
1.50105e-05
1.94536e-05
8.27936e-06
5.84134e-06
5.91335e-06
2.45487e-05
2.36375e-05
2.31693e-05
2.15714e-05
2.45993e-05
2.385e-05
2.32738e-05
2.16782e-05
2.4492e-05
2.3142e-05
2.30386e-05
2.17283e-05
2.45463e-05
2.31415e-05
2.31966e-05
2.17089e-05
2.44938e-05
2.44658e-05
2.02218e-05
2.63224e-05
2.14866e-05
2.69144e-05
2.24512e-05
2.63743e-05
2.15871e-05
2.69259e-05
2.50624e-05
1.94797e-05
2.29096e-05
1.67377e-05
2.31503e-05
2.50398e-05
1.96439e-05
2.6498e-05
2.69522e-05
2.15922e-05
2.25249e-05
2.64569e-05
2.69759e-05
2.16325e-05
2.54385e-05
1.96685e-05
2.30985e-05
1.69586e-05
2.52168e-05
1.97452e-05
2.33436e-05
2.52413e-05
1.93843e-05
2.31307e-05
1.68838e-05
2.51712e-05
1.95675e-05
2.33937e-05
2.07105e-05
2.7466e-05
2.48939e-05
2.47182e-05
2.49441e-05
2.05075e-05
2.48058e-05
2.65163e-05
2.71471e-05
2.17569e-05
2.26785e-05
2.65291e-05
2.7134e-05
2.1741e-05
2.53081e-05
1.95658e-05
2.30542e-05
1.67912e-05
2.53393e-05
2.32343e-05
1.96607e-05
2.66608e-05
2.71482e-05
2.1599e-05
2.25726e-05
2.65284e-05
2.72521e-05
2.17663e-05
2.55158e-05
1.9722e-05
2.30743e-05
1.70252e-05
2.52902e-05
1.97585e-05
2.32515e-05
2.05408e-05
2.74084e-05
2.4799e-05
2.46623e-05
2.05132e-05
2.50257e-05
2.48994e-05
2.45679e-05
2.79002e-05
2.44086e-05
2.79522e-05
2.78484e-05
2.74508e-05
2.72869e-05
2.72885e-05
2.80335e-05
2.79485e-05
2.80258e-05
2.80632e-05
2.7385e-05
2.7498e-05
2.77965e-05
2.7933e-05
2.77836e-05
2.80918e-05
2.8011e-05
2.78888e-05
2.78315e-05
2.73078e-05
2.78995e-05
2.79551e-05
2.73325e-05
2.77428e-05
2.80589e-05
2.78404e-05
2.74666e-05
2.80172e-05
1.61085e-05
8.79213e-06
8.78294e-06
1.6153e-05
5.83329e-06
5.79888e-06
1.54727e-05
8.35233e-06
8.35425e-06
1.54495e-05
2.45529e-05
2.45405e-05
2.44841e-05
2.45526e-05
2.44713e-05
2.46339e-05
2.46079e-05
2.21454e-05
1.67535e-05
2.75638e-05
2.80465e-05
1.6682e-05
2.76564e-05
2.22452e-05
1.61572e-05
8.70147e-06
1.61164e-05
8.72143e-06
5.77407e-06
5.77088e-06
1.55238e-05
8.37932e-06
1.55219e-05
8.36875e-06
2.44756e-05
2.45188e-05
2.46572e-05
2.21278e-05
1.66861e-05
2.75365e-05
2.80447e-05
2.20589e-05
1.66638e-05
2.74994e-05
5.85655e-06
5.85484e-06
2.22921e-05
2.75772e-05
1.6945e-05
2.78437e-05
2.76185e-05
1.68944e-05
2.22861e-05
1.0508e-05
1.06278e-05
2.73011e-05
1.05015e-05
1.0618e-05
5.84511e-06
5.82336e-06
5.72409e-06
5.70832e-06
1.07678e-05
1.07155e-05
2.74691e-05
1.07425e-05
1.06469e-05
5.86797e-06
5.85782e-06
5.72423e-06
5.73975e-06
2.73164e-05
1.0886e-05
1.05726e-05
1.0835e-05
1.06601e-05
1.60606e-05
8.75666e-06
8.68642e-06
1.61007e-05
2.27395e-05
1.68859e-05
2.76307e-05
2.79075e-05
1.68698e-05
2.76162e-05
2.25762e-05
2.26216e-05
1.69603e-05
2.76145e-05
2.8058e-05
1.68474e-05
2.76013e-05
2.26775e-05
1.61348e-05
8.73067e-06
8.78571e-06
1.61454e-05
1.60967e-05
8.65379e-06
8.70002e-06
1.6127e-05
2.27381e-05
2.79085e-05
1.6939e-05
2.75925e-05
1.68978e-05
2.76248e-05
2.25746e-05
2.26334e-05
2.79278e-05
1.67947e-05
2.77341e-05
1.68828e-05
2.76226e-05
2.26271e-05
1.08562e-05
1.08835e-05
2.73795e-05
1.07446e-05
1.08562e-05
5.81991e-06
5.83545e-06
5.78281e-06
5.84074e-06
2.75164e-05
1.06807e-05
1.07907e-05
1.07631e-05
1.08367e-05
5.7966e-06
5.80013e-06
2.21366e-05
1.65264e-05
2.75217e-05
2.77769e-05
1.64698e-05
2.75276e-05
2.21341e-05
1.55052e-05
8.68932e-06
1.55569e-05
8.67807e-06
2.22083e-05
2.75152e-05
1.69197e-05
2.79266e-05
2.75095e-05
2.21809e-05
1.69592e-05
1.55324e-05
8.42525e-06
8.40557e-06
1.55251e-05
2.21426e-05
2.79089e-05
1.65289e-05
2.75335e-05
1.64838e-05
2.75504e-05
2.22222e-05
1.55614e-05
8.69438e-06
1.55532e-05
8.72089e-06
2.22369e-05
2.79607e-05
2.75012e-05
1.69282e-05
2.76166e-05
2.2124e-05
1.69476e-05
1.54351e-05
8.49964e-06
8.46888e-06
1.55316e-05
2.22307e-05
2.74703e-05
1.6249e-05
2.78692e-05
2.74847e-05
2.22198e-05
1.62496e-05
1.55138e-05
8.12538e-06
1.55756e-05
8.13892e-06
2.21829e-05
2.79367e-05
1.67296e-05
2.75189e-05
1.66917e-05
2.75355e-05
2.20987e-05
1.54697e-05
8.51844e-06
8.50018e-06
1.53912e-05
2.2113e-05
2.78603e-05
2.75486e-05
1.63668e-05
2.75702e-05
2.21885e-05
1.6283e-05
1.5526e-05
8.20337e-06
1.54798e-05
8.19593e-06
5.89033e-06
5.84888e-06
5.69448e-06
5.6756e-06
1.08788e-05
1.05876e-05
2.74097e-05
1.0849e-05
1.05625e-05
1.61005e-05
8.70032e-06
1.60965e-05
8.68375e-06
2.25839e-05
1.69461e-05
2.76063e-05
2.78817e-05
2.25698e-05
1.69374e-05
2.76944e-05
2.24849e-05
1.68162e-05
2.76201e-05
2.79115e-05
2.24972e-05
1.68143e-05
2.76434e-05
1.07133e-05
1.0863e-05
2.74531e-05
1.06487e-05
1.0911e-05
5.8173e-06
5.80625e-06
2.21525e-05
1.65415e-05
2.75346e-05
2.78394e-05
2.21225e-05
1.6507e-05
2.75193e-05
1.55418e-05
8.73771e-06
1.5585e-05
8.73789e-06
2.22095e-05
2.75075e-05
1.69583e-05
2.81133e-05
2.21407e-05
2.75785e-05
1.69051e-05
1.55308e-05
8.50992e-06
1.5474e-05
8.53663e-06
2.21583e-05
2.75706e-05
1.63913e-05
2.78997e-05
2.20697e-05
2.74361e-05
1.6352e-05
1.55555e-05
8.26448e-06
1.54984e-05
8.25384e-06
1.08572e-05
1.08488e-05
2.75267e-05
1.08167e-05
1.08777e-05
5.79256e-06
5.82121e-06
1.0868e-05
5.85281e-06
2.24578e-05
2.77146e-05
1.66721e-05
2.78737e-05
2.75884e-05
1.66514e-05
2.2624e-05
1.56932e-05
8.6202e-06
8.59431e-06
1.56845e-05
1.58664e-05
8.47486e-06
8.5057e-06
1.58678e-05
2.22932e-05
1.69161e-05
2.24717e-05
1.66582e-05
1.57051e-05
8.62508e-06
1.58003e-05
8.55157e-06
5.60029e-06
5.59652e-06
5.70053e-06
5.71496e-06
1.06445e-05
5.71911e-06
6.4815e-06
7.08823e-06
1.52754e-05
1.61597e-05
7.11147e-06
1.52997e-05
6.5468e-06
5.32388e-06
8.817e-06
1.09988e-05
1.10701e-05
5.34917e-06
5.32469e-06
1.10015e-05
8.8426e-06
1.104e-05
5.34066e-06
6.4997e-06
1.61878e-05
7.0566e-06
1.51948e-05
7.12738e-06
1.5256e-05
6.47469e-06
5.85937e-06
5.86008e-06
6.13001e-06
1.45498e-05
6.70008e-06
1.55103e-05
1.45721e-05
6.70772e-06
6.16347e-06
5.06666e-06
8.41941e-06
1.04954e-05
1.05185e-05
5.08453e-06
5.07764e-06
1.04514e-05
8.39641e-06
1.05376e-05
5.0691e-06
6.15299e-06
1.54677e-05
1.45613e-05
6.71153e-06
1.45773e-05
6.721e-06
6.16671e-06
6.53976e-06
1.6194e-05
7.10337e-06
1.53988e-05
7.17449e-06
1.54567e-05
6.54742e-06
5.36939e-06
1.10629e-05
8.73579e-06
5.35389e-06
1.11258e-05
6.54244e-06
1.61666e-05
7.08645e-06
1.53698e-05
6.56394e-06
7.12115e-06
1.54001e-05
5.39066e-06
1.10533e-05
8.76266e-06
1.10995e-05
5.3582e-06
5.80451e-06
5.81046e-06
6.21062e-06
1.54902e-05
1.46579e-05
6.71799e-06
1.47006e-05
6.78351e-06
6.20466e-06
5.11478e-06
1.05321e-05
8.4101e-06
5.11492e-06
1.05594e-05
6.21938e-06
1.54817e-05
1.46248e-05
6.7129e-06
6.20583e-06
1.46295e-05
6.74765e-06
5.09295e-06
1.04936e-05
8.38625e-06
1.05413e-05
5.11001e-06
5.88048e-06
5.89017e-06
7.82138e-06
5.01949e-06
4.96833e-06
5.06225e-06
5.01454e-06
7.81067e-06
1.47867e-05
1.9205e-05
1.0518e-05
8.13946e-06
1.91485e-05
8.13997e-06
1.48767e-05
1.47917e-05
1.93125e-05
1.06373e-05
8.0435e-06
1.9192e-05
8.07897e-06
1.48721e-05
1.48049e-05
8.11707e-06
1.05005e-05
1.90989e-05
1.91676e-05
8.16016e-06
1.47704e-05
1.47921e-05
8.02535e-06
1.06231e-05
1.92113e-05
1.91982e-05
8.07884e-06
1.47552e-05
7.82415e-06
5.04201e-06
4.98017e-06
5.04449e-06
4.99861e-06
7.86328e-06
5.87866e-06
5.85102e-06
5.76249e-06
5.74065e-06
7.65053e-06
4.95341e-06
4.93514e-06
4.9931e-06
4.9686e-06
7.66287e-06
1.46091e-05
1.91963e-05
1.07841e-05
8.09762e-06
8.13544e-06
1.92766e-05
1.46292e-05
1.45802e-05
1.92162e-05
1.07206e-05
8.06995e-06
8.11756e-06
1.92083e-05
1.45608e-05
1.46128e-05
8.10379e-06
1.07764e-05
1.9314e-05
8.15489e-06
1.47186e-05
1.92479e-05
1.45696e-05
8.03704e-06
1.07485e-05
1.91595e-05
8.08891e-06
1.4603e-05
1.92313e-05
7.65976e-06
4.94247e-06
4.95389e-06
4.96314e-06
4.97694e-06
7.7186e-06
5.86138e-06
5.88629e-06
5.7219e-06
5.72613e-06
7.70455e-06
5.00588e-06
4.94175e-06
7.68266e-06
5.04799e-06
4.94805e-06
1.47462e-05
1.93054e-05
1.08546e-05
8.27751e-06
8.30507e-06
1.92842e-05
1.48022e-05
1.4544e-05
1.90797e-05
1.06699e-05
7.97532e-06
8.03332e-06
1.92239e-05
1.45526e-05
1.47922e-05
8.1924e-06
1.93842e-05
1.08313e-05
1.47302e-05
8.31148e-06
1.93609e-05
1.45931e-05
8.04511e-06
1.91512e-05
1.06406e-05
1.45959e-05
8.0392e-06
1.91299e-05
7.69862e-06
5.02942e-06
4.92891e-06
5.03563e-06
4.94893e-06
7.75398e-06
6.37556e-06
7.04149e-06
1.51442e-05
1.61385e-05
7.06109e-06
1.51652e-05
6.40917e-06
5.26218e-06
8.77065e-06
1.09894e-05
1.09821e-05
5.3004e-06
5.28354e-06
1.0945e-05
8.74879e-06
1.09989e-05
5.28375e-06
6.38593e-06
1.61196e-05
6.99918e-06
1.51075e-05
7.06398e-06
1.51258e-05
6.42659e-06
6.52008e-06
7.1052e-06
1.53379e-05
1.6134e-05
6.53361e-06
7.10238e-06
1.53553e-05
5.3497e-06
8.789e-06
1.1098e-05
5.36048e-06
1.11245e-05
5.35216e-06
1.10936e-05
8.80448e-06
5.33723e-06
1.11026e-05
6.56505e-06
1.61401e-05
7.1559e-06
1.53958e-05
6.56315e-06
7.14016e-06
1.53614e-05
6.41522e-06
7.09646e-06
1.51425e-05
1.60818e-05
6.40467e-06
7.09019e-06
1.51482e-05
5.26017e-06
8.69946e-06
1.09044e-05
1.09452e-05
5.27725e-06
5.29528e-06
1.09653e-05
8.69024e-06
5.29697e-06
1.09379e-05
6.44648e-06
1.61239e-05
7.05936e-06
1.51297e-05
7.12807e-06
1.51803e-05
6.446e-06
7.84228e-06
4.98489e-06
5.03562e-06
5.01404e-06
5.06063e-06
7.8127e-06
1.47694e-05
1.9498e-05
1.08307e-05
8.09506e-06
8.15008e-06
1.95484e-05
1.48049e-05
1.48076e-05
1.94253e-05
1.08934e-05
8.23176e-06
1.94913e-05
8.27695e-06
1.48797e-05
1.47977e-05
8.0897e-06
1.08101e-05
1.95213e-05
8.12708e-06
1.9593e-05
1.47671e-05
1.48269e-05
8.26979e-06
1.09197e-05
1.94767e-05
1.9392e-05
8.30123e-06
1.48357e-05
7.85341e-06
4.9883e-06
5.02918e-06
5.00493e-06
5.05996e-06
7.87248e-06
5.84467e-06
5.85322e-06
5.81858e-06
5.81417e-06
7.7856e-06
5.02185e-06
5.03296e-06
7.801e-06
4.99962e-06
5.02547e-06
1.46744e-05
1.93051e-05
1.07625e-05
8.09433e-06
1.93306e-05
8.13132e-06
1.47083e-05
1.47991e-05
1.93071e-05
1.08396e-05
8.21423e-06
8.25688e-06
1.93196e-05
1.48206e-05
1.47366e-05
8.11906e-06
1.95652e-05
1.07322e-05
1.93894e-05
1.47693e-05
8.16147e-06
1.48242e-05
8.26846e-06
1.94189e-05
1.08587e-05
1.4827e-05
8.24525e-06
1.94342e-05
7.81596e-06
4.99656e-06
5.0132e-06
4.98669e-06
5.02656e-06
7.81824e-06
5.82662e-06
5.83672e-06
6.20852e-06
6.69163e-06
1.55623e-05
1.47639e-05
6.67591e-06
1.48133e-05
6.23546e-06
5.23225e-06
1.08092e-05
8.73236e-06
1.08227e-05
5.246e-06
6.23107e-06
1.55733e-05
6.66866e-06
1.47847e-05
6.68516e-06
1.47973e-05
6.27994e-06
5.23724e-06
1.08468e-05
8.75666e-06
1.08823e-05
5.22066e-06
6.15467e-06
1.46379e-05
6.70668e-06
1.55058e-05
6.19255e-06
1.46648e-05
6.73955e-06
5.08331e-06
8.48114e-06
1.05387e-05
5.11288e-06
1.05152e-05
5.09063e-06
1.05028e-05
8.43353e-06
5.09662e-06
1.05283e-05
6.19918e-06
1.5545e-05
1.46617e-05
6.72628e-06
6.21855e-06
1.47174e-05
6.73712e-06
6.19637e-06
6.70553e-06
1.55798e-05
1.47873e-05
6.25281e-06
6.71772e-06
1.47668e-05
5.21368e-06
1.08472e-05
8.73212e-06
1.08899e-05
5.21796e-06
6.25771e-06
1.55988e-05
6.71538e-06
1.47334e-05
6.73539e-06
1.47779e-05
6.21855e-06
5.2269e-06
1.08335e-05
8.74341e-06
5.21512e-06
1.08677e-05
6.13643e-06
1.46741e-05
6.60714e-06
1.55369e-05
1.47494e-05
6.67137e-06
6.16614e-06
5.13099e-06
8.54361e-06
1.06458e-05
1.06639e-05
5.15455e-06
5.15165e-06
1.06362e-05
8.55418e-06
1.06846e-05
5.1535e-06
6.14784e-06
1.54862e-05
1.47242e-05
6.64405e-06
1.46947e-05
6.65127e-06
6.20082e-06
6.08596e-06
6.69152e-06
1.55788e-05
1.4494e-05
6.71344e-06
1.45325e-05
6.11549e-06
5.03493e-06
1.03092e-05
8.15858e-06
1.03687e-05
5.02916e-06
6.09652e-06
1.55891e-05
6.71613e-06
1.4429e-05
6.70229e-06
1.44645e-05
6.09697e-06
5.01237e-06
1.03153e-05
8.18821e-06
1.03507e-05
5.02256e-06
6.12515e-06
1.46625e-05
6.64692e-06
1.5439e-05
6.1805e-06
1.46413e-05
6.66343e-06
5.11599e-06
8.51311e-06
1.06056e-05
1.06824e-05
5.14201e-06
5.12572e-06
1.05938e-05
8.50873e-06
5.13092e-06
1.06153e-05
6.16966e-06
1.54768e-05
1.46209e-05
6.61985e-06
1.46682e-05
6.64151e-06
6.16068e-06
6.09728e-06
6.68355e-06
1.55296e-05
1.45141e-05
6.12135e-06
6.68318e-06
1.45181e-05
4.99985e-06
1.03928e-05
8.22646e-06
1.03589e-05
5.04831e-06
6.09731e-06
1.55242e-05
6.68667e-06
1.45076e-05
6.65934e-06
1.45268e-05
6.1275e-06
5.01873e-06
1.03486e-05
8.19606e-06
5.02635e-06
1.03712e-05
5.87704e-06
5.87892e-06
5.7198e-06
5.70194e-06
7.78263e-06
5.0252e-06
4.92581e-06
5.0263e-06
4.94958e-06
7.73475e-06
1.4808e-05
1.93161e-05
8.31509e-06
1.0914e-05
1.48838e-05
8.30933e-06
1.93936e-05
1.44826e-05
1.91282e-05
7.98831e-06
1.05954e-05
1.45729e-05
7.97251e-06
1.90977e-05
7.77566e-06
5.04992e-06
4.95308e-06
7.77735e-06
5.06998e-06
4.94248e-06
1.48396e-05
8.27534e-06
1.09049e-05
1.92967e-05
8.31766e-06
1.48182e-05
1.93348e-05
1.45266e-05
7.91119e-06
1.06166e-05
1.91221e-05
7.97285e-06
1.44717e-05
1.9127e-05
6.38875e-06
1.61293e-05
7.07191e-06
1.50967e-05
7.12004e-06
1.5134e-05
6.40059e-06
5.2655e-06
1.09492e-05
8.72189e-06
5.26613e-06
1.09494e-05
6.39189e-06
1.61176e-05
7.09131e-06
1.51442e-05
7.07866e-06
6.43049e-06
1.51192e-05
5.28179e-06
1.0927e-05
8.75084e-06
1.09642e-05
5.27309e-06
7.81935e-06
4.99121e-06
5.03765e-06
5.02255e-06
5.05702e-06
7.82906e-06
1.4659e-05
1.92945e-05
8.11434e-06
1.06926e-05
8.15859e-06
1.47308e-05
1.93881e-05
1.48544e-05
1.92999e-05
8.23198e-06
1.09111e-05
1.934e-05
1.48165e-05
8.28294e-06
7.82876e-06
4.99046e-06
5.03456e-06
5.00334e-06
7.79779e-06
5.04152e-06
1.4673e-05
8.08169e-06
1.07193e-05
1.93765e-05
8.16827e-06
1.93058e-05
1.46688e-05
1.49342e-05
8.25674e-06
1.09187e-05
1.93391e-05
1.94606e-05
8.28497e-06
1.48495e-05
5.81414e-06
5.83786e-06
6.19479e-06
1.56053e-05
6.70216e-06
1.47013e-05
6.73477e-06
1.47489e-05
6.18572e-06
5.23773e-06
1.08704e-05
8.84327e-06
5.23643e-06
1.09105e-05
6.22959e-06
1.55748e-05
6.75556e-06
1.47613e-05
6.72466e-06
6.21067e-06
1.47399e-05
5.2225e-06
1.0892e-05
8.79319e-06
1.08948e-05
5.25126e-06
6.14794e-06
1.55717e-05
1.4625e-05
6.63715e-06
1.46574e-05
6.65877e-06
6.17151e-06
5.13847e-06
1.06743e-05
8.54091e-06
1.06721e-05
5.15536e-06
6.16321e-06
1.55113e-05
1.46511e-05
6.64979e-06
1.46291e-05
6.163e-06
6.64185e-06
5.14107e-06
1.06322e-05
8.56873e-06
1.06723e-05
5.13633e-06
6.07987e-06
1.55303e-05
6.65418e-06
1.44997e-05
6.67966e-06
1.45294e-05
6.09376e-06
5.03887e-06
1.04049e-05
8.25695e-06
5.04205e-06
1.0478e-05
6.09928e-06
1.55361e-05
6.6782e-06
1.45277e-05
6.13977e-06
6.66931e-06
1.45172e-05
5.06114e-06
1.04733e-05
8.29089e-06
1.05154e-05
5.05311e-06
8.11734e-06
5.10191e-06
5.17053e-06
5.16022e-06
5.19753e-06
8.05931e-06
1.50786e-05
1.95007e-05
1.08758e-05
8.18505e-06
8.22912e-06
1.95722e-05
1.50454e-05
1.52003e-05
1.95053e-05
1.0878e-05
8.28516e-06
1.95206e-05
8.35788e-06
1.52383e-05
1.51054e-05
8.17131e-06
1.08718e-05
1.95204e-05
8.23644e-06
1.95436e-05
1.50698e-05
1.51717e-05
8.34415e-06
1.0897e-05
1.94592e-05
1.96072e-05
8.38164e-06
1.51916e-05
8.11969e-06
5.13591e-06
5.1697e-06
5.15076e-06
5.19936e-06
8.13063e-06
5.84679e-06
5.83803e-06
5.21558e-06
8.36506e-06
6.26806e-06
1.47974e-05
6.86446e-06
1.57168e-05
1.48061e-05
6.90356e-06
6.2674e-06
5.18905e-06
8.66075e-06
1.0845e-05
1.08325e-05
5.2292e-06
5.21109e-06
1.07849e-05
8.66227e-06
1.08274e-05
5.21558e-06
6.27756e-06
1.57252e-05
1.48208e-05
6.85492e-06
1.48243e-05
6.87341e-06
6.27367e-06
6.29998e-06
1.49544e-05
6.93222e-06
1.59039e-05
1.4979e-05
6.96726e-06
6.34061e-06
5.19372e-06
8.52267e-06
1.06907e-05
1.07308e-05
5.17359e-06
5.23203e-06
1.07477e-05
8.53978e-06
1.07449e-05
5.21055e-06
6.30834e-06
1.58817e-05
1.48851e-05
6.90418e-06
1.49422e-05
6.93971e-06
6.3219e-06
1.48651e-05
6.84962e-06
6.22717e-06
1.07883e-05
5.18222e-06
1.49979e-05
6.89473e-06
6.31872e-06
1.07396e-05
5.18637e-06
5.62926e-06
5.63836e-06
5.72219e-06
5.75094e-06
5.01884e-06
8.07069e-06
2.31605e-05
2.3201e-05
2.44252e-05
2.32592e-05
2.32406e-05
2.16863e-05
2.15333e-05
2.324e-05
2.32654e-05
2.44325e-05
2.31968e-05
2.33328e-05
2.15939e-05
2.1592e-05
2.03223e-05
2.4684e-05
2.4472e-05
2.73011e-05
2.45589e-05
2.45092e-05
2.03391e-05
1.9962e-05
2.4536e-05
2.43999e-05
2.7499e-05
2.44058e-05
2.45157e-05
1.99795e-05
2.00112e-05
2.73291e-05
2.46439e-05
2.44692e-05
2.45253e-05
2.43956e-05
2.0048e-05
2.01956e-05
2.47054e-05
2.46994e-05
2.75407e-05
2.46171e-05
2.47508e-05
2.03126e-05
2.01717e-05
2.74652e-05
2.45354e-05
2.45881e-05
2.45528e-05
2.45435e-05
2.02175e-05
2.01377e-05
2.45264e-05
2.46009e-05
2.73039e-05
2.00495e-05
2.46062e-05
2.44474e-05
2.03349e-05
2.45246e-05
2.44584e-05
2.73195e-05
2.45701e-05
2.0195e-05
2.4674e-05
2.05973e-05
2.47997e-05
2.47097e-05
2.74986e-05
2.47967e-05
2.4813e-05
2.05585e-05
2.30776e-05
2.32333e-05
2.45101e-05
2.31201e-05
2.3072e-05
2.15185e-05
2.17545e-05
2.33709e-05
2.31987e-05
2.4544e-05
2.32182e-05
2.32699e-05
2.17502e-05
2.17754e-05
2.33257e-05
2.31163e-05
2.44673e-05
2.31842e-05
2.33207e-05
2.16154e-05
2.18515e-05
2.44275e-05
2.31449e-05
2.3425e-05
2.3342e-05
2.32259e-05
2.18015e-05
2.15711e-05
2.45069e-05
2.3123e-05
2.31304e-05
2.32834e-05
2.32507e-05
2.14967e-05
2.14748e-05
2.44973e-05
2.30997e-05
2.31344e-05
2.32772e-05
2.30889e-05
2.17846e-05
2.15617e-05
2.45099e-05
2.32947e-05
2.31442e-05
2.33092e-05
2.3189e-05
2.15917e-05
2.15642e-05
2.63533e-05
2.13248e-05
2.695e-05
2.22082e-05
2.15062e-05
2.68784e-05
2.63523e-05
2.51052e-05
2.29328e-05
1.67292e-05
1.94971e-05
2.29816e-05
1.93956e-05
2.50834e-05
2.51089e-05
1.94459e-05
1.67757e-05
2.29663e-05
2.314e-05
1.94612e-05
2.51165e-05
2.63743e-05
2.21709e-05
2.15002e-05
2.69058e-05
2.14449e-05
2.68792e-05
2.63468e-05
2.3296e-05
2.3088e-05
2.44377e-05
2.31549e-05
2.3104e-05
2.17413e-05
2.15543e-05
2.3078e-05
2.31323e-05
2.44933e-05
2.31673e-05
2.31104e-05
2.17811e-05
2.15626e-05
2.3328e-05
2.31144e-05
2.44798e-05
2.31312e-05
2.31481e-05
2.17927e-05
2.16111e-05
2.64946e-05
2.20996e-05
2.14273e-05
2.67902e-05
2.13154e-05
2.67556e-05
2.64025e-05
2.50727e-05
2.29591e-05
1.94433e-05
1.67159e-05
2.52353e-05
2.29708e-05
1.94828e-05
2.63078e-05
2.20779e-05
2.12659e-05
2.67635e-05
2.64633e-05
2.1264e-05
2.68836e-05
2.50886e-05
1.94839e-05
1.67055e-05
2.29451e-05
2.28683e-05
1.94175e-05
2.50853e-05
2.6388e-05
2.70275e-05
2.15279e-05
2.23338e-05
2.71653e-05
2.14436e-05
2.65343e-05
2.51713e-05
2.30084e-05
1.69863e-05
1.95477e-05
2.30692e-05
1.95482e-05
2.51784e-05
2.51655e-05
1.95193e-05
1.70181e-05
2.30751e-05
2.32343e-05
1.9627e-05
2.52146e-05
2.65489e-05
2.2312e-05
2.69941e-05
2.15112e-05
2.7029e-05
2.15043e-05
2.64936e-05
2.04242e-05
2.72759e-05
2.4482e-05
2.4469e-05
2.45183e-05
2.46426e-05
2.02498e-05
1.99665e-05
2.73928e-05
2.44236e-05
2.44442e-05
2.00693e-05
2.43895e-05
2.46232e-05
2.01313e-05
2.73445e-05
2.45837e-05
2.45587e-05
2.00436e-05
2.44765e-05
2.44e-05
2.65981e-05
2.17291e-05
2.72361e-05
2.26673e-05
2.1696e-05
2.7392e-05
2.67113e-05
2.53728e-05
2.30404e-05
1.69003e-05
1.97534e-05
1.97457e-05
2.30351e-05
2.53531e-05
2.53291e-05
1.97285e-05
1.69212e-05
2.31027e-05
1.97178e-05
2.3093e-05
2.53312e-05
2.66222e-05
2.27303e-05
2.18245e-05
2.73028e-05
2.1709e-05
2.72831e-05
2.67806e-05
2.67031e-05
2.17359e-05
2.73123e-05
2.26611e-05
2.18609e-05
2.72598e-05
2.679e-05
2.54224e-05
2.31174e-05
1.69683e-05
1.98018e-05
1.98477e-05
2.3134e-05
2.53782e-05
2.53866e-05
1.97517e-05
1.69147e-05
2.30074e-05
1.99218e-05
2.53254e-05
2.31786e-05
2.68468e-05
2.26273e-05
2.18188e-05
2.73295e-05
2.18338e-05
2.72856e-05
2.67337e-05
2.68934e-05
2.17328e-05
2.72415e-05
2.27465e-05
2.68504e-05
2.18433e-05
2.72405e-05
2.52954e-05
2.31e-05
1.69696e-05
1.98755e-05
2.30661e-05
1.97456e-05
2.53304e-05
2.53367e-05