/*--------------------------------*- C++ -*----------------------------------*\
| =========                 |                                                 |
| \\      /  F ield         | OpenFOAM: The Open Source CFD Toolbox           |
|  \\    /   O peration     | Version:  2206                                  |
|   \\  /    A nd           | Website:  www.openfoam.com                      |
|    \\/     M anipulation  |                                                 |
\*---------------------------------------------------------------------------*/
FoamFile
{
    version     2.0;
    format      ascii;
    arch        "LSB;label=32;scalar=64";
    class       volScalarField;
    location    "26";
    object      nut;
}
// * * * * * * * * * * * * * * * * * * * * * * * * * * * * * * * * * * * * * //

dimensions      [0 2 -1 0 0 0 0];

internalField   nonuniform List<scalar> 
66621
(
3.37213e-08
1.83586e-07
3.21334e-08
6.30568e-07
2.15248e-07
1.43003e-06
1.4715e-08
6.66116e-07
1.27133e-06
1.43929e-06
2.13731e-07
1.20589e-06
7.54431e-08
7.70239e-08
1.49111e-08
1.43277e-08
1.19831e-06
7.87086e-08
7.37745e-08
1.25161e-06
2.20878e-07
7.82097e-08
1.49506e-08
6.36387e-07
1.26021e-06
2.10629e-07
1.4324e-06
1.82153e-07
3.30116e-08
6.34253e-07
1.26118e-06
1.43522e-06
2.16508e-07
1.82205e-07
3.32629e-08
6.23629e-07
1.25984e-06
1.42457e-06
2.10716e-07
1.8011e-07
3.21101e-08
1.20347e-06
7.60949e-08
7.55246e-08
1.43902e-08
6.67053e-07
1.27647e-06
1.43705e-06
2.22051e-07
1.91554e-07
3.20852e-08
1.91892e-07
3.30186e-08
1.4714e-08
1.47477e-08
7.49783e-08
1.28957e-08
2.08719e-08
1.43587e-07
2.46899e-08
1.82925e-07
1.42921e-07
2.5443e-08
2.07144e-08
1.25119e-08
6.99881e-08
3.24437e-08
7.07844e-08
1.25698e-08
1.49865e-08
4.14496e-08
1.26945e-08
1.26252e-08
1.29233e-08
1.27684e-08
4.11328e-08
1.6287e-07
3.06522e-08
7.58022e-08
3.81208e-07
3.82806e-07
3.05055e-08
1.64307e-07
1.64439e-07
2.98761e-08
7.83247e-08
3.89228e-07
3.94117e-07
2.9958e-08
1.59837e-07
1.46221e-08
4.03772e-08
1.23346e-08
1.21723e-08
1.23922e-08
1.22302e-08
3.99355e-08
1.61974e-07
2.984e-08
3.99792e-07
2.99365e-08
1.572e-07
1.59517e-07
2.901e-08
7.57478e-08
3.74642e-07
2.90477e-08
1.55548e-07
3.84972e-07
1.27185e-08
4.15588e-08
3.03237e-08
4.08172e-07
1.65205e-07
2.08222e-08
2.44513e-08
1.44431e-07
1.83609e-07
2.44839e-08
1.43926e-07
2.10768e-08
1.26969e-08
7.21235e-08
3.34191e-08
7.55664e-08
1.26343e-08
1.45707e-07
2.4343e-08
2.08025e-08
7.29747e-08
1.26549e-08
2.47754e-08
1.40428e-07
2.02306e-08
7.12314e-08
1.22286e-08
4.18318e-08
1.26319e-08
1.26241e-08
1.2846e-08
1.2661e-08
4.13661e-08
1.63309e-07
3.02091e-08
7.75597e-08
3.83629e-07
3.02813e-08
3.86705e-07
1.61768e-07
1.64421e-07
3.0258e-08
7.57366e-08
3.88728e-07
3.88012e-07
3.02579e-08
1.63968e-07
1.4625e-08
2.12023e-08
1.50351e-07
2.5186e-08
1.93405e-07
1.49597e-07
2.58916e-08
2.09794e-08
1.26382e-08
7.17652e-08
3.22819e-08
7.26294e-08
1.24717e-08
2.11646e-08
1.49909e-07
2.50323e-08
1.93689e-07
1.48877e-07
2.51694e-08
2.10355e-08
1.28004e-08
7.34319e-08
3.33352e-08
7.41505e-08
1.2705e-08
1.48268e-08
1.34848e-06
1.33685e-06
1.32901e-06
1.24449e-06
1.38263e-06
1.34329e-06
1.34119e-06
1.26997e-06
1.35971e-06
1.33147e-06
1.31594e-06
1.2506e-06
1.36565e-06
1.34026e-06
1.33048e-06
1.27429e-06
1.08595e-06
5.65455e-07
1.15248e-06
6.37425e-07
5.73077e-07
1.15086e-06
1.08831e-06
4.02573e-07
6.69109e-07
9.33577e-07
1.10892e-06
1.18117e-06
5.81356e-07
6.72284e-07
1.17577e-06
5.7927e-07
1.11369e-06
9.53056e-07
4.00319e-07
2.16429e-07
6.57098e-07
6.63195e-07
3.99673e-07
9.36206e-07
4.71012e-07
1.20716e-06
8.34296e-07
8.42866e-07
8.42405e-07
8.49549e-07
4.73267e-07
4.56211e-07
1.21729e-06
8.37522e-07
8.22965e-07
4.5538e-07
8.42352e-07
8.37439e-07
4.04943e-07
6.63734e-07
9.50571e-07
1.08039e-06
5.50118e-07
1.15239e-06
6.42385e-07
5.54447e-07
1.16103e-06
1.07466e-06
9.1225e-07
3.84269e-07
2.10773e-07
6.4501e-07
3.89797e-07
6.50564e-07
9.15974e-07
1.08506e-06
1.15464e-06
5.54948e-07
6.56149e-07
1.14973e-06
5.65278e-07
1.07509e-06
9.31292e-07
3.91919e-07
2.1552e-07
6.55396e-07
4.05616e-07
9.24926e-07
6.78607e-07
1.07937e-06
1.14034e-06
5.41616e-07
6.29814e-07
1.14667e-06
5.50189e-07
1.0682e-06
9.15437e-07
3.80787e-07
2.11318e-07
6.49967e-07
6.51106e-07
3.85242e-07
9.1224e-07
4.80739e-07
1.20888e-06
8.39366e-07
8.40225e-07
8.45899e-07
8.46258e-07
4.59305e-07
1.1007e-06
1.17544e-06
5.77023e-07
6.67813e-07
1.16986e-06
5.78478e-07
1.11163e-06
9.66276e-07
4.05833e-07
2.21214e-07
6.76041e-07
6.779e-07
4.09089e-07
9.50403e-07
2.28779e-09
2.5991e-10
2.07179e-11
5.23219e-12
5.04707e-12
2.23168e-09
2.53798e-10
2.03425e-11
5.2337e-12
5.05964e-12
2.4363e-09
2.80253e-10
2.28486e-11
5.97253e-12
5.78546e-12
2.427e-09
2.79291e-10
2.2787e-11
5.96623e-12
5.78023e-12
2.37283e-09
2.73408e-10
2.24171e-11
5.95751e-12
5.78098e-12
2.44475e-09
2.81481e-10
2.2962e-11
5.97724e-12
5.78673e-12
2.28267e-09
2.59471e-10
2.06983e-11
5.24221e-12
5.05887e-12
2.27443e-09
2.584e-10
2.06373e-11
5.24369e-12
5.0618e-12
2.18905e-09
2.49006e-10
2.00358e-11
5.2266e-12
5.06028e-12
2.34997e-09
2.70804e-10
2.22426e-11
5.94669e-12
5.77467e-12
2.17828e-09
2.47707e-10
1.99267e-11
5.20884e-12
5.04479e-12
2.23413e-09
2.53664e-10
2.03106e-11
5.21913e-12
5.04482e-12
2.39459e-09
2.75655e-10
2.25565e-11
5.96336e-12
5.78383e-12
2.40081e-09
2.76291e-10
2.25872e-11
5.95487e-12
5.77357e-12
2.08025e-09
2.39085e-10
1.98026e-11
5.51884e-12
5.3818e-12
2.15946e-09
2.49572e-10
2.06204e-11
5.67242e-12
5.52791e-12
2.15705e-09
2.487e-10
2.05624e-11
5.65165e-12
5.50631e-12
2.08653e-09
2.40045e-10
1.98732e-11
5.54141e-12
5.40492e-12
2.22475e-09
2.53188e-10
2.02993e-11
5.20868e-12
5.03266e-12
2.42142e-09
2.78812e-10
2.27568e-11
5.94666e-12
5.75897e-12
2.27621e-09
2.58568e-10
2.07078e-11
5.29486e-12
5.11556e-12
2.2555e-09
2.56162e-10
2.0551e-11
5.27073e-12
5.09329e-12
2.2205e-09
2.52801e-10
2.03193e-11
5.27996e-12
5.11115e-12
2.22011e-09
2.52583e-10
2.02946e-11
5.25632e-12
5.08552e-12
2.37396e-09
2.72851e-10
2.23714e-11
5.93484e-12
5.75711e-12
2.24066e-09
2.57893e-10
2.14403e-11
5.95279e-12
5.80474e-12
2.25283e-09
2.56563e-10
2.05888e-11
5.29366e-12
5.11762e-12
2.07974e-09
2.38388e-10
1.97414e-11
5.51811e-12
5.38321e-12
2.14789e-09
2.47725e-10
2.04936e-11
5.66869e-12
5.52775e-12
2.13457e-09
2.46652e-10
2.04156e-11
5.64646e-12
5.50523e-12
2.09032e-09
2.39576e-10
1.98274e-11
5.53967e-12
5.40445e-12
2.28078e-09
2.59e-10
2.0656e-11
5.21938e-12
5.03487e-12
2.10347e-09
2.42448e-10
2.01359e-11
5.65612e-12
5.52433e-12
2.0875e-09
2.39616e-10
1.98422e-11
5.53929e-12
5.40339e-12
2.08847e-09
2.40604e-10
2.00216e-11
5.6526e-12
5.5236e-12
2.02227e-09
2.32096e-10
1.935e-11
5.52401e-12
5.40107e-12
2.25302e-09
2.59754e-10
2.15795e-11
5.95618e-12
5.8036e-12
2.23264e-09
2.54145e-10
2.04232e-11
5.28575e-12
5.11398e-12
2.22467e-09
2.53491e-10
2.03795e-11
5.26149e-12
5.08783e-12
2.35356e-09
2.70667e-10
2.22038e-11
5.92319e-12
5.74973e-12
2.05447e-09
2.35675e-10
1.95488e-11
5.49552e-12
5.36398e-12
2.13315e-09
2.46262e-10
2.03797e-11
5.64558e-12
5.50591e-12
2.13439e-09
2.45858e-10
2.0352e-11
5.62477e-12
5.48352e-12
2.0571e-09
2.36276e-10
1.96076e-11
5.51824e-12
5.38747e-12
2.17324e-09
2.47099e-10
1.98799e-11
5.18321e-12
5.01731e-12
2.05446e-09
2.35572e-10
1.95452e-11
5.49531e-12
5.36393e-12
2.12991e-09
2.46215e-10
2.03755e-11
5.64561e-12
5.50603e-12
2.12465e-09
2.4551e-10
2.03306e-11
5.62433e-12
5.48339e-12
2.0582e-09
2.36483e-10
1.96307e-11
5.51812e-12
5.38673e-12
2.226e-09
2.5265e-10
2.02392e-11
5.19362e-12
5.01839e-12
2.39741e-09
2.75749e-10
2.25383e-11
5.93059e-12
5.74807e-12
2.26123e-09
2.60476e-10
2.16089e-11
5.9565e-12
5.80437e-12
2.23703e-09
2.57923e-10
2.14356e-11
5.94748e-12
5.79938e-12
2.41514e-09
2.7766e-10
2.27171e-11
5.99987e-12
5.81831e-12
2.36171e-09
2.71977e-10
2.23695e-11
5.97156e-12
5.7959e-12
2.37195e-09
2.73215e-10
2.24525e-11
5.99886e-12
5.82405e-12
2.26163e-09
2.60588e-10
2.1625e-11
5.95726e-12
5.8043e-12
2.25865e-09
2.5702e-10
2.06066e-11
5.2952e-12
5.11904e-12
2.25549e-09
2.56536e-10
2.05696e-11
5.27358e-12
5.09617e-12
2.25802e-09
2.59935e-10
2.15677e-11
5.93132e-12
5.77713e-12
2.22743e-09
2.56596e-10
2.13368e-11
5.92214e-12
5.77436e-12
2.19538e-09
2.53033e-10
2.11299e-11
5.94005e-12
5.79999e-12
2.2126e-09
2.5173e-10
2.02584e-11
5.27819e-12
5.11017e-12
2.20357e-09
2.51005e-10
2.02088e-11
5.25738e-12
5.08912e-12
2.18045e-09
2.51676e-10
2.104e-11
5.93775e-12
5.79953e-12
2.17299e-09
2.47558e-10
2.00183e-11
5.27812e-12
5.11707e-12
2.1702e-09
2.47144e-10
1.9982e-11
5.25448e-12
5.09141e-12
2.19631e-09
2.52727e-10
2.10965e-11
5.91456e-12
5.77239e-12
2.17584e-09
2.51076e-10
2.10038e-11
5.91564e-12
5.77633e-12
2.39035e-09
2.74596e-10
2.25224e-11
5.9745e-12
5.79482e-12
2.40097e-09
2.76004e-10
2.26207e-11
6.00342e-12
5.82448e-12
2.399e-09
2.76195e-10
2.26656e-11
6.00741e-12
5.82678e-12
2.31125e-09
2.65668e-10
2.19586e-11
5.98667e-12
5.82473e-12
2.25048e-09
2.59547e-10
2.15501e-11
5.93152e-12
5.77749e-12
2.23989e-09
2.58506e-10
2.14879e-11
5.93068e-12
5.77839e-12
2.32201e-09
2.66462e-10
2.19774e-11
5.94888e-12
5.78257e-12
2.3235e-09
2.67592e-10
2.2077e-11
5.9785e-12
5.81263e-12
2.34374e-09
2.68851e-10
2.21263e-11
5.95345e-12
5.78324e-12
2.36313e-09
2.71189e-10
2.22912e-11
5.98456e-12
5.81312e-12
1.51493e-08
1.4431e-08
1.19952e-06
7.7179e-08
7.73223e-08
1.83435e-07
3.2828e-08
6.55936e-07
1.23874e-06
2.12035e-07
1.4324e-06
1.8357e-07
3.37452e-08
6.55675e-07
1.22851e-06
1.43451e-06
2.15889e-07
1.23027e-06
2.13997e-07
3.26777e-08
1.48424e-08
1.21999e-06
7.77961e-08
8.03006e-08
1.45123e-08
6.91111e-07
1.25354e-06
1.44149e-06
2.19326e-07
6.77085e-07
1.2545e-06
1.43628e-06
2.23412e-07
1.94056e-07
3.26586e-08
1.94387e-07
3.37094e-08
1.22394e-06
7.74444e-08
8.09287e-08
1.45605e-08
1.50027e-08
1.2596e-08
1.23788e-08
4.07133e-08
2.99264e-08
3.77797e-07
1.5474e-07
2.93853e-08
3.83986e-07
1.54648e-07
2.06178e-08
1.43666e-07
2.49142e-08
1.87328e-07
2.06205e-08
1.46276e-07
2.50331e-08
1.24835e-08
7.3765e-08
3.33302e-08
1.25238e-08
7.13971e-08
2.06404e-08
2.53663e-08
1.44515e-07
1.86662e-07
2.07335e-08
2.48373e-08
1.46614e-07
1.26168e-08
7.49243e-08
3.33724e-08
1.26246e-08
7.24834e-08
1.23224e-08
7.17584e-08
3.28685e-08
1.23647e-08
7.38939e-08
1.48875e-08
4.11818e-08
1.2745e-08
1.29266e-08
4.12404e-08
1.27213e-08
1.28576e-08
1.61158e-07
3.04177e-08
4.01739e-07
7.74809e-08
4.0098e-07
1.60531e-07
3.05332e-08
1.63305e-07
3.04229e-08
4.01187e-07
7.77006e-08
1.63875e-07
3.08639e-08
4.0873e-07
1.47313e-08
2.09113e-08
1.50451e-07
2.59442e-08
1.95971e-07
2.09644e-08
1.51811e-07
2.52098e-08
1.2476e-08
7.46386e-08
3.31523e-08
1.26056e-08
7.35031e-08
2.09776e-08
1.50231e-07
2.59152e-08
1.96255e-07
2.09472e-08
1.52055e-07
2.52887e-08
1.28034e-08
7.72065e-08
3.38848e-08
1.28324e-08
7.53894e-08
4.06996e-08
1.28986e-08
1.26222e-08
4.08866e-08
1.27816e-08
1.27609e-08
1.62316e-07
3.07439e-08
3.93698e-07
7.96535e-08
1.64267e-07
4.0841e-07
3.1016e-08
1.60742e-07
3.02195e-08
4.06781e-07
7.85092e-08
1.60744e-07
3.95884e-07
3.0299e-08
1.4753e-08
1.51214e-08
1.36517e-06
1.3564e-06
1.3283e-06
1.26302e-06
1.37344e-06
1.37583e-06
1.34895e-06
1.27575e-06
1.37542e-06
1.33968e-06
1.33135e-06
1.27634e-06
1.38366e-06
1.33958e-06
1.34173e-06
1.27141e-06
8.43795e-07
8.44732e-07
4.5037e-07
1.06465e-06
5.77613e-07
1.12501e-06
6.68685e-07
1.06129e-06
5.68022e-07
1.13167e-06
9.1444e-07
4.03404e-07
6.73277e-07
2.15738e-07
6.69256e-07
9.12982e-07
3.96584e-07
1.07205e-06
1.12712e-06
5.84608e-07
6.65105e-07
1.06454e-06
1.13461e-06
5.73852e-07
9.35146e-07
4.00096e-07
6.64513e-07
2.1873e-07
9.26356e-07
4.11351e-07
6.86912e-07
9.21833e-07
3.99508e-07
6.71159e-07
2.17866e-07
9.26712e-07
3.94003e-07
6.99432e-07
4.62373e-07
1.22081e-06
8.60287e-07
8.5833e-07
8.70317e-07
4.5705e-07
8.72377e-07
1.10337e-06
1.17019e-06
5.90086e-07
6.78694e-07
1.10002e-06
1.16835e-06
5.96171e-07
9.39841e-07
4.10251e-07
6.76324e-07
2.21861e-07
9.49658e-07
6.81543e-07
4.16153e-07
1.10912e-06
1.16954e-06
5.89759e-07
6.84964e-07
1.09963e-06
1.17283e-06
5.99844e-07
9.53735e-07
4.21527e-07
6.94561e-07
2.25392e-07
9.57316e-07
4.16619e-07
6.83876e-07
4.6013e-07
1.23509e-06
8.63324e-07
8.73303e-07
4.58076e-07
8.73798e-07
8.68011e-07
1.37378e-06
1.24194e-06
1.36594e-06
1.2408e-06
1.25788e-06
1.19802e-06
1.18552e-06
1.18549e-06
1.2589e-06
1.25541e-06
1.26519e-06
1.26736e-06
1.19282e-06
1.20222e-06
1.23604e-06
1.23624e-06
1.24981e-06
1.25861e-06
1.23953e-06
1.25598e-06
1.24698e-06
1.20503e-06
1.25214e-06
1.2553e-06
1.2035e-06
1.23033e-06
1.23923e-06
1.22845e-06
1.20305e-06
1.26511e-06
1.90008e-07
3.32343e-08
3.31995e-08
1.90081e-07
1.45999e-08
1.45309e-08
1.73351e-07
3.12162e-08
3.12323e-08
1.72035e-07
1.38141e-06
1.37988e-06
1.38032e-06
1.36579e-06
1.37895e-06
1.38602e-06
1.388e-06
6.13069e-07
2.07941e-07
1.42614e-06
1.26019e-06
2.07637e-07
1.43092e-06
6.13839e-07
1.90215e-07
3.28066e-08
1.89703e-07
3.30056e-08
1.44856e-08
1.44596e-08
1.77901e-07
3.12288e-08
1.72714e-07
3.13107e-08
1.3766e-06
1.37621e-06
1.38864e-06
6.19365e-07
2.07893e-07
1.42595e-06
1.26567e-06
6.09923e-07
2.0833e-07
1.42436e-06
1.45847e-08
1.4608e-08
6.4559e-07
1.44167e-06
2.17935e-07
1.26662e-06
1.44431e-06
2.16675e-07
6.39224e-07
7.18339e-08
7.4004e-08
1.18921e-06
7.22043e-08
7.38091e-08
1.46325e-08
1.45981e-08
1.42707e-08
1.4242e-08
7.47561e-08
7.32647e-08
1.19372e-06
7.50206e-08
7.30091e-08
1.47312e-08
1.48597e-08
1.43841e-08
1.45599e-08
1.20455e-06
7.61389e-08
7.2924e-08
7.96361e-08
7.6561e-08
1.9019e-07
3.30208e-08
3.2823e-08
1.8788e-07
6.6606e-07
2.16157e-07
1.44606e-06
1.25862e-06
2.15677e-07
1.44463e-06
6.57984e-07
6.60427e-07
2.17681e-07
1.44378e-06
1.26574e-06
2.15379e-07
1.44331e-06
6.55342e-07
1.95597e-07
3.29949e-08
3.36382e-08
1.92377e-07
1.95135e-07
3.28047e-08
3.36342e-08
1.90732e-07
6.89626e-07
1.25322e-06
2.17744e-07
1.44356e-06
2.19755e-07
1.44495e-06
6.69562e-07
6.68099e-07
1.25426e-06
2.1474e-07
1.45092e-06
2.2201e-07
1.4445e-06
6.6023e-07
7.52397e-08
7.44107e-08
1.19416e-06
7.4702e-08
7.47581e-08
1.45009e-08
1.45627e-08
1.45436e-08
1.48793e-08
1.21328e-06
7.43053e-08
7.49714e-08
7.79932e-08
7.7438e-08
1.4475e-08
1.45496e-08
6.17022e-07
2.03777e-07
1.42428e-06
1.24679e-06
2.06091e-07
1.42555e-06
6.098e-07
1.74596e-07
3.24098e-08
1.73845e-07
3.25151e-08
6.22119e-07
1.42482e-06
2.11504e-07
1.2483e-06
1.42511e-06
6.13712e-07
2.12914e-07
1.79959e-07
3.15884e-08
3.21297e-08
1.73216e-07
6.32436e-07
1.2398e-06
2.05747e-07
1.42667e-06
2.09124e-07
1.42749e-06
6.19618e-07
1.8028e-07
3.27334e-08
1.75363e-07
3.34933e-08
6.37745e-07
1.23667e-06
1.42614e-06
2.13885e-07
1.4307e-06
6.17362e-07
2.16871e-07
1.72252e-07
3.17767e-08
3.16687e-08
1.72663e-07
6.17123e-07
1.42388e-06
1.99423e-07
1.24547e-06
1.42488e-06
6.15829e-07
2.01141e-07
1.74645e-07
3.02455e-08
1.75016e-07
3.03888e-08
6.30312e-07
1.24212e-06
2.15021e-07
1.42426e-06
2.12668e-07
1.42439e-06
6.12291e-07
1.79231e-07
3.19554e-08
3.23556e-08
1.72111e-07
6.31226e-07
1.23094e-06
1.42885e-06
2.04611e-07
1.42831e-06
6.1676e-07
2.08239e-07
1.79889e-07
3.06249e-08
1.74914e-07
3.14624e-08
1.48961e-08
1.46683e-08
1.42163e-08
1.41497e-08
7.75378e-08
7.52985e-08
1.19294e-06
7.60688e-08
7.25332e-08
1.90016e-07
3.35025e-08
1.93721e-07
3.28871e-08
6.59621e-07
2.23101e-07
1.44316e-06
1.26e-06
6.62259e-07
2.16752e-07
1.44829e-06
6.57364e-07
2.21242e-07
1.44454e-06
1.26172e-06
6.6202e-07
2.13869e-07
1.44596e-06
7.79019e-08
7.81523e-08
1.19917e-06
7.38662e-08
7.58287e-08
1.46238e-08
1.45285e-08
6.17226e-07
2.11416e-07
1.42778e-06
1.25553e-06
6.27707e-07
2.05827e-07
1.42717e-06
1.75239e-07
3.3559e-08
1.80551e-07
3.27858e-08
6.2288e-07
1.42743e-06
2.17e-07
1.26341e-06
6.33529e-07
1.43121e-06
2.14048e-07
1.76224e-07
3.22469e-08
1.79258e-07
3.20631e-08
6.1834e-07
1.42983e-06
2.09684e-07
1.25293e-06
6.32323e-07
1.42323e-06
2.04007e-07
1.76707e-07
3.17303e-08
1.79538e-07
3.07938e-08
7.45915e-08
7.57427e-08
1.20737e-06
7.46511e-08
7.58977e-08
1.45015e-08
1.46035e-08
7.72077e-08
1.48758e-08
6.49719e-07
1.44869e-06
2.12464e-07
1.26634e-06
1.4435e-06
2.11734e-07
6.51047e-07
1.84346e-07
3.25479e-08
3.25216e-08
1.82144e-07
1.85816e-07
3.19271e-08
3.21367e-08
1.85079e-07
6.63333e-07
2.2256e-07
6.64105e-07
2.18895e-07
1.89257e-07
3.33835e-08
1.88062e-07
3.29507e-08
1.39669e-08
1.39729e-08
1.42809e-08
1.43286e-08
7.6725e-08
1.44209e-08
2.10698e-08
2.53711e-08
1.5385e-07
1.92696e-07
2.55645e-08
1.5337e-07
2.18235e-08
1.2724e-08
3.39805e-08
7.20357e-08
7.59059e-08
1.28864e-08
1.27622e-08
7.2439e-08
3.41858e-08
7.30224e-08
1.28993e-08
2.14455e-08
1.9726e-07
2.514e-08
1.5228e-07
2.6107e-08
1.53673e-07
2.11763e-08
1.49453e-08
1.471e-08
1.9696e-08
1.40809e-07
2.3517e-08
1.79689e-07
1.40319e-07
2.39344e-08
2.03307e-08
1.20246e-08
3.2432e-08
6.70452e-08
7.0304e-08
1.2078e-08
1.21348e-08
6.69834e-08
3.1528e-08
6.79436e-08
1.20758e-08
1.98061e-08
1.77685e-07
1.40186e-07
2.3492e-08
1.41102e-07
2.37773e-08
2.0141e-08
2.12921e-08
1.96263e-07
2.53959e-08
1.55182e-07
2.6102e-08
1.54957e-07
2.16972e-08
1.28715e-08
7.29731e-08
3.36453e-08
1.28209e-08
7.68323e-08
2.13416e-08
1.96059e-07
2.52811e-08
1.54075e-07
2.14353e-08
2.58394e-08
1.55146e-07
1.29401e-08
7.29905e-08
3.38731e-08
7.37542e-08
1.28499e-08
1.47052e-08
1.47258e-08
1.9922e-08
1.75861e-07
1.41905e-07
2.3669e-08
1.41616e-07
2.4006e-08
2.0172e-08
1.21233e-08
6.74982e-08
3.23848e-08
1.22155e-08
7.04176e-08
1.99684e-08
1.77087e-07
1.40836e-07
2.35297e-08
2.01722e-08
1.41602e-07
2.43025e-08
1.21107e-08
6.72621e-08
3.14739e-08
6.78736e-08
1.21573e-08
1.47835e-08
1.48519e-08
3.92282e-08
1.23017e-08
1.21842e-08
1.25087e-08
1.23131e-08
4.02677e-08
1.53923e-07
3.6706e-07
7.5628e-08
2.92614e-08
3.7657e-07
2.97192e-08
1.5667e-07
1.54879e-07
3.72022e-07
7.69134e-08
2.89327e-08
3.781e-07
2.95635e-08
1.57156e-07
1.5781e-07
2.92909e-08
7.2813e-08
3.64868e-07
3.78322e-07
2.98049e-08
1.55272e-07
1.58987e-07
2.89556e-08
7.43247e-08
3.72784e-07
3.83295e-07
2.92051e-08
1.57011e-07
3.94775e-08
1.23382e-08
1.21815e-08
1.24301e-08
1.23796e-08
3.99179e-08
1.49407e-08
1.46833e-08
1.46109e-08
1.43423e-08
3.82344e-08
1.21513e-08
1.20678e-08
1.23617e-08
1.2259e-08
3.89713e-08
1.51722e-07
3.71237e-07
7.64469e-08
2.91816e-08
2.98739e-08
3.82956e-07
1.56746e-07
1.50066e-07
3.65624e-07
7.4714e-08
2.88644e-08
2.96493e-08
3.83938e-07
1.5454e-07
1.54854e-07
2.93722e-08
7.75083e-08
3.75823e-07
2.96628e-08
1.55402e-07
3.8729e-07
1.53193e-07
2.8856e-08
7.59161e-08
3.66004e-07
2.91348e-08
1.55513e-07
3.70908e-07
3.83805e-08
1.20981e-08
1.2119e-08
1.22629e-08
1.22713e-08
3.87837e-08
1.47661e-08
1.48598e-08
1.42723e-08
1.43206e-08
3.86512e-08
1.24473e-08
1.21454e-08
3.94394e-08
1.24195e-08
1.22377e-08
1.53042e-07
3.83121e-07
7.82467e-08
3.00725e-08
3.03429e-08
3.77476e-07
1.57245e-07
1.49262e-07
3.66899e-07
7.34359e-08
2.87035e-08
2.90839e-08
3.73985e-07
1.56131e-07
1.58359e-07
2.99974e-08
3.94183e-07
7.67625e-08
1.55807e-07
3.05195e-08
3.80798e-07
1.5419e-07
2.92829e-08
3.78585e-07
7.36524e-08
1.54456e-07
2.91921e-08
3.72965e-07
3.91471e-08
1.23591e-08
1.20669e-08
1.24415e-08
1.21311e-08
3.97238e-08
2.07605e-08
2.51686e-08
1.52468e-07
1.93312e-07
2.56738e-08
1.51963e-07
2.14613e-08
1.25776e-08
3.40107e-08
7.19491e-08
7.35131e-08
1.26839e-08
1.2735e-08
7.19764e-08
3.3155e-08
7.45361e-08
1.26789e-08
2.08248e-08
1.96367e-07
2.48973e-08
1.51342e-07
2.55527e-08
1.52278e-07
2.09691e-08
2.12605e-08
2.58865e-08
1.53754e-07
1.94089e-07
2.13468e-08
2.5657e-08
1.5469e-07
1.27727e-08
3.32491e-08
7.38708e-08
1.28907e-08
7.4174e-08
1.28064e-08
7.75155e-08
3.40033e-08
1.27378e-08
7.4567e-08
2.19864e-08
1.93252e-07
2.56383e-08
1.55111e-07
2.1514e-08
2.60034e-08
1.53981e-07
2.09326e-08
2.55974e-08
1.51718e-07
1.91587e-07
2.09631e-08
2.54436e-08
1.52518e-07
1.25689e-08
3.31982e-08
7.20979e-08
7.46998e-08
1.27861e-08
1.26834e-08
7.31935e-08
3.32552e-08
1.27815e-08
7.40191e-08
2.15183e-08
1.95474e-07
2.51756e-08
1.52319e-07
2.54853e-08
1.52129e-07
2.11e-08
3.93213e-08
1.22221e-08
1.23411e-08
1.24092e-08
1.25211e-08
3.97904e-08
1.54461e-07
3.76544e-07
7.83823e-08
2.91188e-08
2.98295e-08
3.84798e-07
1.56153e-07
1.54416e-07
3.72975e-07
7.79777e-08
2.96914e-08
3.89509e-07
3.03344e-08
1.56601e-07
1.58648e-07
2.92348e-08
7.55486e-08
3.78141e-07
2.94938e-08
3.91044e-07
1.56833e-07
1.59747e-07
2.98673e-08
7.57297e-08
3.73784e-07
3.75084e-07
3.03141e-08
1.57364e-07
4.02191e-08
1.22341e-08
1.23267e-08
1.23805e-08
1.25084e-08
4.00158e-08
1.47151e-08
1.47598e-08
1.46238e-08
1.45986e-08
3.90581e-08
1.24807e-08
1.24099e-08
4.00963e-08
1.22933e-08
1.23617e-08
1.53442e-07
3.76039e-07
7.7029e-08
2.92883e-08
3.87855e-07
2.9573e-08
1.61352e-07
1.52604e-07
3.75219e-07
7.62364e-08
2.96824e-08
3.01502e-08
3.79225e-07
1.59946e-07
1.55367e-07
2.96378e-08
3.97243e-07
7.5568e-08
3.80928e-07
1.55979e-07
2.9872e-08
1.57239e-07
3.00806e-08
3.87811e-07
7.66942e-08
1.56488e-07
3.02109e-08
3.90453e-07
3.98182e-08
1.23718e-08
1.229e-08
1.22405e-08
1.23429e-08
3.96144e-08
1.47023e-08
1.47154e-08
1.98981e-08
2.34907e-08
1.77174e-07
1.4291e-07
2.38021e-08
1.42703e-07
2.05391e-08
1.24115e-08
6.9354e-08
3.36256e-08
7.11981e-08
1.25555e-08
1.99836e-08
1.81309e-07
2.33091e-08
1.42408e-07
2.36117e-08
1.43267e-07
2.04279e-08
1.24794e-08
7.01837e-08
3.29212e-08
7.25478e-08
1.24263e-08
1.98066e-08
1.40947e-07
2.37873e-08
1.75449e-07
1.99899e-08
1.41954e-07
2.37985e-08
1.20562e-08
3.23058e-08
6.91545e-08
1.21986e-08
6.83508e-08
1.21122e-08
6.95954e-08
3.21922e-08
1.21258e-08
6.88399e-08
2.04036e-08
1.79145e-07
1.41916e-07
2.35983e-08
2.00595e-08
1.4174e-07
2.39685e-08
1.99366e-08
2.37379e-08
1.78629e-07
1.42436e-07
2.01712e-08
2.3999e-08
1.4296e-07
1.23585e-08
7.06334e-08
3.31192e-08
7.20924e-08
1.24568e-08
2.06274e-08
1.78377e-07
2.35969e-08
1.42601e-07
2.40852e-08
1.42363e-07
2.00678e-08
1.24973e-08
7.13031e-08
3.32859e-08
1.24098e-08
7.30782e-08
1.97081e-08
1.42049e-07
2.32093e-08
1.79314e-07
1.42074e-07
2.35154e-08
2.03378e-08
1.21776e-08
3.28694e-08
6.81733e-08
7.01209e-08
1.22495e-08
1.23e-08
6.82099e-08
3.20941e-08
7.06792e-08
1.23568e-08
1.97762e-08
1.75482e-07
1.41803e-07
2.32318e-08
1.42262e-07
2.37651e-08
1.99629e-08
1.95271e-08
2.35008e-08
1.77331e-07
1.40275e-07
2.39694e-08
1.3995e-07
1.98393e-08
1.19424e-08
6.54016e-08
3.09622e-08
6.87702e-08
1.20244e-08
1.98289e-08
1.81429e-07
2.3571e-08
1.38897e-07
2.38113e-08
1.39983e-07
1.97086e-08
1.19334e-08
6.58935e-08
3.12062e-08
6.64633e-08
1.2017e-08
1.97074e-08
1.41206e-07
2.37656e-08
1.74189e-07
1.99443e-08
1.41734e-07
2.36388e-08
1.21279e-08
3.24581e-08
6.83182e-08
7.10515e-08
1.22914e-08
1.21544e-08
6.87342e-08
3.25161e-08
1.21473e-08
6.99223e-08
2.01747e-08
1.78777e-07
1.4152e-07
2.32892e-08
1.41291e-07
2.34956e-08
1.99873e-08
1.95886e-08
2.37183e-08
1.7846e-07
1.3976e-07
1.99633e-08
2.39051e-08
1.4052e-07
1.18371e-08
6.69704e-08
3.12997e-08
6.74263e-08
1.21396e-08
1.97204e-08
1.77749e-07
2.36974e-08
1.40381e-07
2.33117e-08
1.39916e-07
2.00519e-08
1.1888e-08
6.84457e-08
3.08583e-08
1.19946e-08
6.76812e-08
1.49119e-08
1.4884e-08
1.44043e-08
1.4249e-08
3.8839e-08
1.23578e-08
1.20427e-08
1.23175e-08
1.21963e-08
3.93308e-08
1.53642e-07
3.9881e-07
3.04519e-08
7.70859e-08
1.59975e-07
3.04751e-08
3.82453e-07
1.48947e-07
3.759e-07
2.90782e-08
7.48617e-08
1.51182e-07
2.88726e-08
3.77129e-07
3.89318e-08
1.24792e-08
1.22921e-08
3.9815e-08
1.25452e-08
1.21157e-08
1.5638e-07
3.00784e-08
7.69862e-08
3.74865e-07
3.03976e-08
1.55723e-07
3.86991e-07
1.53569e-07
2.84236e-08
7.48281e-08
3.6623e-07
2.87435e-08
1.51168e-07
3.7944e-07
2.07914e-08
1.95461e-07
2.52656e-08
1.52081e-07
2.58387e-08
1.51666e-07
2.12465e-08
1.2573e-08
7.54857e-08
3.37301e-08
1.2586e-08
7.28937e-08
2.0832e-08
1.9569e-07
2.60984e-08
1.5176e-07
2.54408e-08
2.09774e-08
1.52252e-07
1.26956e-08
7.17205e-08
3.38451e-08
7.40165e-08
1.26432e-08
3.92365e-08
1.22604e-08
1.2373e-08
1.23721e-08
1.24139e-08
4.02847e-08
1.53106e-07
3.92423e-07
2.96294e-08
7.52001e-08
2.98699e-08
1.55329e-07
3.80139e-07
1.53946e-07
3.88027e-07
3.00062e-08
7.99448e-08
3.95407e-07
1.54428e-07
3.03333e-08
3.95413e-08
1.22699e-08
1.2424e-08
1.23057e-08
3.95529e-08
1.24028e-08
1.57012e-07
2.92429e-08
7.64756e-08
3.77453e-07
2.96271e-08
3.81723e-07
1.55697e-07
1.59783e-07
2.98609e-08
7.69086e-08
3.75721e-07
3.81721e-07
3.02017e-08
1.56763e-07
1.45769e-08
1.46378e-08
1.9841e-08
1.80843e-07
2.35535e-08
1.42346e-07
2.40268e-08
1.42092e-07
2.00096e-08
1.24341e-08
7.29779e-08
3.40629e-08
1.25208e-08
7.47765e-08
2.02171e-08
1.77905e-07
2.43661e-08
1.42193e-07
2.37487e-08
2.00637e-08
1.42702e-07
1.24526e-08
7.06918e-08
3.31047e-08
7.11746e-08
1.25007e-08
1.97693e-08
1.80469e-07
1.41596e-07
2.34018e-08
1.41217e-07
2.35907e-08
2.01549e-08
1.21792e-08
7.16548e-08
3.26891e-08
6.89977e-08
1.23267e-08
1.98941e-08
1.77294e-07
1.41122e-07
2.37604e-08
1.41617e-07
1.99022e-08
2.35668e-08
1.22581e-08
6.85352e-08
3.28563e-08
6.94941e-08
1.22243e-08
1.95094e-08
1.78294e-07
2.341e-08
1.40337e-07
2.35761e-08
1.39949e-07
1.97873e-08
1.19506e-08
6.84459e-08
3.10589e-08
1.19667e-08
6.92685e-08
1.96219e-08
1.80942e-07
2.36386e-08
1.39912e-07
1.97076e-08
2.35323e-08
1.405e-07
1.21519e-08
6.71749e-08
3.14951e-08
6.96122e-08
1.19796e-08
4.08054e-08
1.25134e-08
1.26868e-08
1.26651e-08
1.28773e-08
4.11926e-08
1.57728e-07
3.76532e-07
7.85485e-08
2.92156e-08
3.0045e-08
3.93735e-07
1.58731e-07
1.60205e-07
3.81755e-07
7.73628e-08
2.99417e-08
3.99163e-07
3.06986e-08
1.66437e-07
1.62175e-07
2.93971e-08
7.55721e-08
3.76657e-07
2.96928e-08
3.8029e-07
1.59758e-07
1.62337e-07
3.02076e-08
7.8488e-08
3.82551e-07
3.88041e-07
3.06933e-08
1.62052e-07
4.17654e-08
1.25815e-08
1.26939e-08
1.27795e-08
1.28794e-08
4.15514e-08
1.49136e-08
1.46669e-08
1.28814e-08
3.05858e-08
2.0342e-08
1.48939e-07
2.4492e-08
1.86641e-07
1.48207e-07
2.47116e-08
2.05187e-08
1.24003e-08
3.35757e-08
7.10265e-08
7.24821e-08
1.25093e-08
1.25551e-08
7.10199e-08
3.28754e-08
7.3372e-08
1.25999e-08
2.06703e-08
1.91543e-07
1.48375e-07
2.43237e-08
1.49228e-07
2.4957e-08
2.05639e-08
2.04896e-08
1.50559e-07
2.47405e-08
1.92558e-07
1.49977e-07
2.53149e-08
2.08577e-08
1.23997e-08
3.27804e-08
6.99866e-08
7.19123e-08
1.24537e-08
1.26615e-08
7.05728e-08
3.29919e-08
7.27531e-08
1.24674e-08
2.0551e-08
1.91123e-07
1.49037e-07
2.45649e-08
1.50444e-07
2.5112e-08
2.06249e-08
1.48736e-07
2.48108e-08
2.03375e-08
7.20351e-08
1.23511e-08
1.50107e-07
2.48188e-08
2.06946e-08
7.22341e-08
1.23795e-08
1.42753e-08
1.40838e-08
1.44774e-08
1.4569e-08
1.24485e-08
2.9461e-08
1.35089e-06
1.3444e-06
1.35426e-06
1.34615e-06
1.34041e-06
1.2836e-06
1.27137e-06
1.34977e-06
1.3462e-06
1.36133e-06
1.33479e-06
1.34343e-06
1.27444e-06
1.26015e-06
4.42838e-07
8.17515e-07
8.10748e-07
1.20606e-06
8.33088e-07
8.3575e-07
4.46061e-07
4.34036e-07
8.17244e-07
8.00676e-07
1.20643e-06
8.3582e-07
8.18858e-07
4.38538e-07
4.31218e-07
1.19873e-06
8.24168e-07
8.07923e-07
8.25997e-07
8.2187e-07
4.3792e-07
4.52207e-07
8.23561e-07
8.17008e-07
1.21789e-06
8.36268e-07
8.39618e-07
4.45417e-07
4.36734e-07
1.20526e-06
8.21329e-07
8.19899e-07
8.40016e-07
8.23668e-07
4.5721e-07
4.35841e-07
8.47373e-07
8.23185e-07
1.19404e-06
4.43788e-07
8.28429e-07
8.2389e-07
4.4153e-07
8.26236e-07
8.27732e-07
1.20674e-06
8.26413e-07
4.41462e-07
8.28458e-07
4.55935e-07
8.27945e-07
8.2828e-07
1.22354e-06
8.55808e-07
8.56088e-07
4.5855e-07
1.34735e-06
1.35095e-06
1.37449e-06
1.32768e-06
1.33464e-06
1.27775e-06
1.28761e-06
1.3595e-06
1.35712e-06
1.3759e-06
1.33304e-06
1.34278e-06
1.29095e-06
1.29082e-06
1.36386e-06
1.34748e-06
1.37376e-06
1.34263e-06
1.34038e-06
1.28222e-06
1.28289e-06
1.36255e-06
1.34066e-06
1.34651e-06
1.35257e-06
1.33451e-06
1.26407e-06
1.26598e-06
1.37268e-06
1.34545e-06
1.34713e-06
1.35117e-06
1.34207e-06
1.26443e-06
1.25631e-06
1.37035e-06
1.33951e-06
1.34938e-06
1.34845e-06
1.34439e-06
1.27837e-06
1.25936e-06
1.37453e-06
1.35882e-06
1.34845e-06
1.34752e-06
1.34705e-06
1.27212e-06
1.27453e-06
1.06541e-06
5.4182e-07
1.13772e-06
6.22271e-07
5.57523e-07
1.13978e-06
1.07321e-06
9.07475e-07
6.40783e-07
2.12774e-07
3.79052e-07
6.67738e-07
3.87604e-07
9.11224e-07
9.26142e-07
3.77614e-07
2.14723e-07
6.44152e-07
6.55703e-07
3.91407e-07
9.19211e-07
1.06281e-06
6.29124e-07
5.43104e-07
1.13429e-06
5.52497e-07
1.12481e-06
1.06868e-06
1.34684e-06
1.34054e-06
1.37495e-06
1.34345e-06
1.34255e-06
1.28482e-06
1.25841e-06
1.32713e-06
1.33783e-06
1.37561e-06
1.33802e-06
1.34088e-06
1.28559e-06
1.26088e-06
1.35724e-06
1.3386e-06
1.37912e-06
1.34678e-06
1.34504e-06
1.29265e-06
1.27745e-06
1.07002e-06
6.24488e-07
5.44347e-07
1.13501e-06
5.45405e-07
1.13638e-06
1.08399e-06
9.08644e-07
6.4093e-07
3.78421e-07
2.15098e-07
9.21387e-07
6.55446e-07
3.89999e-07
1.05807e-06
6.30126e-07
5.34431e-07
1.12087e-06
1.06688e-06
5.52764e-07
1.12249e-06
9.22988e-07
3.81081e-07
2.10821e-07
6.44475e-07
6.5734e-07
3.91146e-07
9.16418e-07
1.08711e-06
1.16706e-06
5.6577e-07
6.52233e-07
1.17444e-06
5.62683e-07
1.10744e-06
9.30648e-07
6.61054e-07
2.25033e-07
3.90897e-07
6.77541e-07
3.94604e-07
9.47524e-07
9.39698e-07
3.99701e-07
2.20546e-07
6.65173e-07
6.8572e-07
3.95436e-07
9.41292e-07
1.09943e-06
6.61415e-07
1.15972e-06
5.61108e-07
1.16108e-06
5.6522e-07
1.09666e-06
4.53795e-07
1.19202e-06
8.10813e-07
8.13495e-07
8.21666e-07
8.23139e-07
4.44798e-07
4.4777e-07
1.20316e-06
8.14613e-07
8.04864e-07
4.5346e-07
8.18744e-07
8.26493e-07
4.45611e-07
1.19412e-06
8.39185e-07
8.33953e-07
4.4178e-07
8.38341e-07
8.10585e-07
1.10135e-06
5.76993e-07
1.17841e-06
6.68769e-07
5.80233e-07
1.18664e-06
1.11341e-06
9.4567e-07
6.54193e-07
2.23436e-07
3.95706e-07
4.13503e-07
6.67751e-07
9.44701e-07
9.50743e-07
3.98169e-07
2.22943e-07
6.54502e-07
3.9946e-07
6.72611e-07
9.49407e-07
1.10519e-06
6.83788e-07
5.77575e-07
1.17737e-06
5.93734e-07
1.17534e-06
1.11273e-06
1.10015e-06
5.74095e-07
1.18173e-06
6.76651e-07
5.82475e-07
1.1807e-06
1.11677e-06
9.41189e-07
6.55252e-07
2.24641e-07
3.98778e-07
4.19272e-07
6.70326e-07
9.4161e-07
9.49417e-07
3.98264e-07
2.18099e-07
6.53472e-07
4.04853e-07
9.42502e-07
6.75298e-07
1.10785e-06
6.69122e-07
5.69152e-07
1.17791e-06
5.92048e-07
1.17564e-06
1.11095e-06
1.11395e-06
5.93146e-07
1.17405e-06
6.70146e-07
1.11497e-06
5.88025e-07
1.17341e-06
9.27746e-07
6.57773e-07
2.23468e-07
4.03264e-07
6.54876e-07
4.00499e-07
9.45791e-07
9.32575e-07
4.18749e-07