/*--------------------------------*- C++ -*----------------------------------*\
| =========                 |                                                 |
| \\      /  F ield         | OpenFOAM: The Open Source CFD Toolbox           |
|  \\    /   O peration     | Version:  2206                                  |
|   \\  /    A nd           | Website:  www.openfoam.com                      |
|    \\/     M anipulation  |                                                 |
\*---------------------------------------------------------------------------*/
FoamFile
{
    version     2.0;
    format      ascii;
    arch        "LSB;label=32;scalar=64";
    class       volVectorField;
    location    "26";
    object      wallShearStress;
}
// * * * * * * * * * * * * * * * * * * * * * * * * * * * * * * * * * * * * * //

dimensions      [0 2 -2 0 0 0 0];

internalField   uniform (0 0 0);

boundaryField
{
    topPatch
    {
        type            calculated;
        value           nonuniform List<vector> 0();
    }
    wall
    {
        type            calculated;
        value           nonuniform List<vector> 
7709
(
(-4.62456e-09 -6.13087e-09 -0.000156638)
(1.82619e-08 1.50283e-08 -0.000156896)
(2.46655e-08 -1.34181e-08 -0.000167883)
(-8.02737e-09 3.2874e-08 -0.000167771)
(1.60201e-09 1.10857e-08 -0.000167823)
(-9.93456e-09 1.66313e-08 -0.000167868)
(3.67801e-09 -8.07439e-09 -0.000156877)
(-6.31281e-09 1.48916e-08 -0.000156891)
(-1.66325e-10 -3.35884e-09 -0.000156845)
(1.03483e-08 -8.09097e-09 -0.000167694)
(1.04055e-08 -1.24101e-08 -0.000156647)
(-1.07078e-08 -8.82831e-09 -0.000156653)
(-2.09768e-08 -6.97436e-09 -0.000167862)
(-8.2265e-09 -1.01889e-08 -0.000167724)
(-2.21883e-08 2.12647e-08 -0.000161727)
(1.02928e-08 2.66308e-09 -0.000164019)
(-1.05762e-08 1.5582e-08 -0.000163708)
(1.43455e-08 -1.1827e-08 -0.000162077)
(-1.37657e-08 -2.20467e-08 -0.000156449)
(-1.40278e-08 2.11562e-08 -0.000167465)
(-5.18775e-09 4.69161e-09 -0.00015777)
(7.35918e-09 6.43747e-10 -0.000157446)
(-6.55001e-09 -1.69309e-08 -0.000157718)
(5.19887e-09 1.67225e-08 -0.000157305)
(9.01538e-11 -1.36425e-08 -0.000167492)
(-1.64985e-09 2.09443e-08 -0.000168257)
(-4.88043e-09 1.1474e-08 -0.000157786)
(-9.99809e-09 -1.99401e-08 -0.000161756)
(1.87708e-08 1.54909e-09 -0.000164027)
(-1.28667e-08 -8.74307e-09 -0.000163682)
(9.93723e-09 1.70732e-08 -0.000162055)
(-1.75562e-09 2.43319e-08 -0.000156519)
(-1.0592e-08 -7.78642e-09 -0.000164)
(-1.11545e-08 -1.7047e-08 -0.000162085)
(-1.35149e-08 8.27342e-09 -0.000163989)
(-9.2017e-09 2.02679e-08 -0.000162039)
(2.13237e-08 1.12232e-08 -0.000168219)
(9.9194e-09 -1.45862e-08 -0.000157713)
(-4.3246e-09 2.16808e-08 -0.000157281)
(-1.63168e-08 2.60791e-09 -0.000167326)
(2.11359e-08 1.67829e-08 -0.000161487)
(-7.38068e-10 -1.2513e-08 -0.000163734)
(1.17647e-08 1.03131e-08 -0.000163396)
(-1.68125e-08 -1.18725e-08 -0.000161843)
(-2.47336e-08 5.68506e-09 -0.0001562)
(-2.21355e-08 1.47877e-08 -0.000161496)
(-1.13571e-09 -1.36875e-08 -0.000163739)
(-1.20238e-08 1.01247e-08 -0.000163396)
(1.35576e-08 -1.13237e-08 -0.000161841)
(2.24e-08 5.05049e-09 -0.000156231)
(1.83162e-08 2.41581e-09 -0.000167346)
(-3.9537e-09 -2.71397e-08 -0.000168273)
(-2.056e-08 6.88933e-09 -0.000168192)
(-1.09781e-08 2.42193e-08 -0.000168254)
(-1.60976e-08 5.68634e-09 -0.000167928)
(1.96655e-08 -1.85947e-08 -0.000168328)
(9.87546e-09 -2.57058e-08 -0.000168268)
(8.1398e-09 -6.60396e-10 -0.000157796)
(-4.2003e-09 5.21018e-09 -0.000157464)
(2.6893e-10 2.60627e-08 -0.00016786)
(1.64596e-08 2.28699e-09 -0.000167839)
(2.63655e-08 2.11052e-08 -0.000168243)
(-1.55712e-08 1.20762e-08 -0.00015765)
(-1.18766e-08 9.94982e-09 -0.000157369)
(-1.51284e-08 1.89776e-08 -0.000168181)
(1.55728e-08 1.46359e-08 -0.000157819)
(-2.19785e-08 -5.84075e-09 -0.000157381)
(-3.83892e-08 6.78433e-09 -0.0001678)
(-4.92181e-09 -8.68851e-09 -0.000167876)
(-2.32214e-08 -4.42144e-09 -0.000167914)
(2.41016e-08 2.39567e-08 -0.000168357)
(-1.94461e-08 -1.62469e-08 -0.000168372)
(-2.42867e-08 2.39688e-08 -0.000168335)
(-1.69282e-09 2.56325e-08 -0.000167856)
(-1.20904e-08 4.77288e-09 -0.000167867)
(1.50955e-09 1.64402e-08 -0.000167708)
(-2.24018e-08 -2.13153e-08 -0.000168151)
(-5.46111e-09 1.79142e-08 -0.000167725)
(1.81607e-08 -2.02649e-08 -0.000168165)
(-4.27348e-08 -6.35759e-09 -0.000167286)
(-8.07157e-09 -8.95759e-09 -0.000167511)
(-1.52377e-08 -8.45409e-09 -0.000156493)
(-5.01653e-09 1.16168e-08 -0.00015655)
(3.4026e-09 1.63229e-08 -0.000156508)
(-1.02832e-08 1.63088e-08 -0.000167514)
(-1.49823e-08 8.54443e-09 -0.000167347)
(-1.68741e-08 1.091e-08 -0.000156233)
(1.71533e-08 9.91618e-09 -0.000156253)
(1.28262e-08 1.72587e-08 -0.000167473)
(1.88544e-08 7.31676e-09 -0.00016736)
(1.45939e-08 -1.90788e-08 -0.000162028)
(-1.15559e-08 2.72011e-09 -0.000163731)
(-1.4606e-08 1.13092e-08 -0.000161754)
(8.34434e-09 -1.11402e-08 -0.000163961)
(1.4058e-08 -1.14804e-08 -0.000168287)
(7.08759e-09 1.85488e-08 -0.000156815)
(1.06601e-08 2.01092e-08 -0.000162015)
(-1.48978e-08 2.3721e-09 -0.000163714)
(-1.0589e-08 -4.98066e-09 -0.000161773)
(8.28962e-09 5.53418e-09 -0.000163953)
(3.23894e-09 -1.38369e-08 -0.000156828)
(-2.22028e-08 1.19542e-08 -0.000168275)
(-3.73614e-09 -1.6351e-08 -0.000156794)
(1.09697e-08 -2.89704e-09 -0.000167803)
(-2.15151e-08 -3.92604e-09 -0.000167894)
(-1.22058e-08 1.13599e-08 -0.000157319)
(4.43649e-09 -1.07128e-08 -0.000157638)
(1.44357e-08 -2.2465e-09 -0.000167636)
(-1.8776e-08 -1.31756e-08 -0.000161818)
(-1.00018e-09 1.46507e-08 -0.000163399)
(7.20562e-09 1.38221e-08 -0.000161492)
(-9.56859e-09 -1.05512e-08 -0.000163694)
(2.49892e-08 -2.15857e-09 -0.000156577)
(1.65001e-08 -1.34379e-08 -0.000161815)
(-3.76681e-10 1.45564e-08 -0.000163398)
(-8.18243e-09 1.34765e-08 -0.000161494)
(7.98954e-09 -9.06781e-09 -0.000163695)
(9.23272e-09 -1.7289e-08 -0.000168143)
(-1.97216e-08 -6.22274e-09 -0.000156597)
(-2.50666e-09 -2.13015e-08 -0.000168199)
(-1.92771e-08 4.32085e-09 -0.000168137)
(1.09359e-08 4.8747e-09 -0.00015745)
(-1.03037e-08 1.96011e-09 -0.00015772)
(1.2592e-08 1.22189e-08 -0.000157325)
(-2.41695e-09 -1.33628e-08 -0.000157647)
(-7.88916e-09 -8.09993e-09 -0.000167775)
(-9.56139e-09 -6.29361e-09 -0.000167664)
(-2.88939e-09 2.25023e-08 -0.000167886)
(8.50104e-10 2.32221e-08 -0.000167885)
(2.39732e-08 -1.82688e-09 -0.000167846)
(-4.74345e-08 1.06885e-08 -0.000167788)
(-2.25921e-08 4.01761e-10 -0.000157323)
(-5.21006e-09 -1.02508e-08 -0.000167865)
(-1.95866e-08 -2.46784e-09 -0.000157411)
(-1.91393e-08 1.71707e-08 -0.00016795)
(1.90018e-08 1.62429e-08 -0.000168314)
(-1.81677e-08 -1.34469e-08 -0.000167958)
(2.29132e-08 -1.55215e-08 -0.000167901)
(-1.1582e-08 6.07513e-09 -0.000157478)
(1.41351e-08 5.50319e-09 -0.000157739)
(-2.34394e-10 -1.86715e-08 -0.000168192)
(1.64955e-08 3.21398e-09 -0.000168175)
(-6.09474e-09 -1.62816e-08 -0.00016813)
(9.12137e-09 1.82531e-08 -0.00016772)
(-1.12915e-08 1.87679e-08 -0.000167732)
(-1.88312e-08 -7.21361e-09 -0.000156201)
(1.78806e-08 1.2892e-08 -0.000156588)
(6.07796e-09 -9.66066e-09 -0.000167284)
(-1.54848e-08 8.25352e-09 -0.000167642)
(-5.22082e-09 -1.54396e-08 -0.000156445)
(1.36568e-08 1.06598e-08 -0.000156806)
(-1.49664e-08 -6.96402e-09 -0.000156169)
(1.07896e-08 2.02013e-08 -0.000156587)
(1.47518e-08 -2.20918e-09 -0.000167255)
(-8.37671e-09 1.74669e-08 -0.000167637)
(-4.71591e-09 -1.21176e-08 -0.000156409)
(5.58715e-09 1.75773e-08 -0.000156783)
(3.85189e-09 1.31392e-08 -0.000167448)
(-7.59838e-09 -1.1356e-08 -0.000167756)
(-1.20762e-08 -3.28344e-09 -0.000167298)
(1.68359e-08 6.26009e-09 -0.00016764)
(-5.16278e-09 -1.31974e-08 -0.000167455)
(1.18999e-08 1.0322e-08 -0.000167779)
(1.31494e-08 8.69915e-09 -0.00016765)
(-9.5679e-09 -6.57147e-09 -0.000167271)
(1.19432e-08 1.25848e-08 -0.000167777)
(-3.35904e-09 -1.56546e-08 -0.000167426)
(1.39774e-08 -8.07802e-09 -0.000156185)
(-1.65426e-08 1.11113e-08 -0.000156572)
(1.3431e-08 1.56305e-08 -0.000156591)
(-1.60884e-08 -7.75044e-09 -0.000156177)
(-1.40768e-08 1.46585e-08 -0.000156581)
(1.67226e-08 -7.53443e-09 -0.000156171)
(3.41499e-09 -1.39824e-08 -0.00016747)
(-1.2777e-08 9.98243e-09 -0.000167781)
(-1.31614e-08 8.99792e-09 -0.000167651)
(1.57281e-08 -4.8695e-09 -0.000167269)
(-1.13628e-08 9.90821e-09 -0.000167784)
(5.22852e-09 -1.38454e-08 -0.000167446)
(-6.77766e-09 1.40678e-08 -0.000156482)
(1.21843e-08 -1.07212e-08 -0.000156838)
(1.30097e-08 1.51945e-08 -0.000156808)
(-6.61638e-09 -1.98943e-08 -0.000156418)
(1.71317e-08 -1.46338e-08 -0.000156851)
(-6.12434e-09 1.65276e-08 -0.00015647)
(4.6553e-09 -1.6645e-08 -0.000156455)
(-1.24684e-08 1.33453e-08 -0.000156815)
(5.68872e-09 1.36639e-08 -0.000156424)
(-1.36447e-08 -1.49921e-08 -0.000156787)
(-1.11962e-08 1.53006e-08 -0.000156823)
(6.88464e-09 -1.69172e-08 -0.000156439)
(-1.53181e-08 -9.92159e-09 -0.000156798)
(9.19723e-09 1.19586e-08 -0.000156405)
(-1.15311e-08 -2.55149e-09 -0.000167264)
(7.4206e-09 1.52389e-08 -0.000167636)
(-7.37232e-09 -1.03683e-08 -0.000167402)
(1.604e-08 2.01666e-08 -0.00016778)
(1.68501e-08 -5.72665e-09 -0.000156155)
(-6.36096e-09 1.7304e-08 -0.000156566)
(6.00391e-09 -1.13388e-08 -0.000167418)
(-1.22814e-08 2.15597e-08 -0.000167786)
(-8.96573e-09 2.25339e-08 -0.00015643)
(2.63974e-08 -1.67044e-08 -0.000156874)
(6.14248e-09 -1.75433e-08 -0.00015642)
(-1.18642e-08 1.98195e-08 -0.000156815)
(2.63141e-09 2.31239e-08 -0.000156394)
(-1.08548e-08 -1.36755e-08 -0.00015678)
(-1.99415e-08 6.85823e-09 -0.000167248)
(1.44682e-08 -4.23132e-08 -0.000167692)
(-2.44635e-08 2.04535e-08 -0.000167172)
(-1.59799e-08 3.09114e-09 -0.000156172)
(4.34802e-09 2.73207e-09 -0.000156538)
(1.69534e-08 4.95236e-09 -0.000156152)
(-7.03954e-09 -1.77807e-08 -0.000156561)
(-2.7335e-08 -8.51421e-09 -0.000156179)
(2.46224e-08 3.69908e-09 -0.000156114)
(-8.16512e-11 2.19527e-08 -0.000167389)
(-1.59843e-08 -1.51878e-08 -0.000167755)
(9.83513e-09 2.97196e-09 -0.000167238)
(-3.60543e-09 -1.23478e-08 -0.000167617)
(2.50793e-08 -3.82024e-09 -0.000167207)
(1.33542e-08 -1.2448e-08 -0.000161449)
(-1.99185e-10 1.44868e-08 -0.000163681)
(6.66132e-11 -1.21312e-08 -0.000163326)
(-1.15776e-08 1.59058e-08 -0.000161808)
(1.85353e-08 7.92892e-09 -0.000156584)
(-1.50996e-08 -9.51735e-09 -0.000156173)
(-1.77065e-08 3.42626e-09 -0.000167633)
(1.03211e-08 -6.89293e-09 -0.000167262)
(-1.02884e-08 1.07103e-08 -0.000161665)
(1.38194e-08 -2.18706e-09 -0.000163921)
(-1.2446e-08 1.31212e-09 -0.000163611)
(1.56338e-08 -2.00997e-08 -0.000161985)
(2.002e-08 -1.51085e-08 -0.000168262)
(8.30901e-09 1.11237e-08 -0.0001568)
(-1.59375e-08 1.00161e-08 -0.000167848)
(-6.59804e-09 -1.75537e-08 -0.000156422)
(3.21345e-09 -1.24773e-08 -0.000161421)
(-7.42904e-09 1.84097e-08 -0.000163681)
(1.48838e-09 -1.16519e-08 -0.000163304)
(-2.42754e-08 2.18401e-08 -0.000161814)
(-1.67592e-08 2.12179e-08 -0.000168156)
(9.12972e-09 1.61551e-08 -0.0001566)
(4.39554e-09 -1.54041e-08 -0.000167654)
(-2.20299e-08 -7.98459e-09 -0.000156121)
(-1.04998e-08 1.12999e-08 -0.000167645)
(2.30694e-08 -1.41797e-09 -0.000167207)
(-5.85164e-09 1.20378e-08 -0.000161625)
(2.83471e-08 -4.26511e-09 -0.000163943)
(-1.55541e-08 3.79563e-09 -0.000163549)
(1.58358e-08 -1.85902e-08 -0.000161975)
(2.50095e-08 -1.33987e-08 -0.000168295)
(7.66067e-09 1.6764e-08 -0.000156811)
(-4.15315e-09 -1.25636e-08 -0.000156367)
(-1.82572e-10 -7.46359e-09 -0.000167792)
(2.14861e-09 1.04291e-08 -0.000167409)
(8.25743e-09 1.6007e-09 -0.000157363)
(-1.10515e-08 -6.29138e-09 -0.00015773)
(9.77367e-09 7.05754e-09 -0.000157201)
(-4.28155e-09 -2.19686e-08 -0.000157613)
(-9.4742e-09 -9.75114e-09 -0.000157685)
(1.05421e-08 4.01989e-09 -0.000157297)
(3.10217e-09 -2.68323e-08 -0.000157605)
(1.53102e-08 6.15372e-09 -0.000157197)
(1.05621e-08 3.92047e-09 -0.000167808)
(2.78889e-08 -1.22471e-08 -0.000167731)
(1.11181e-08 6.76954e-09 -0.000167641)
(-1.03641e-08 -7.54352e-09 -0.000167267)
(9.30163e-09 8.12909e-09 -0.000167776)
(-5.84127e-09 -1.26619e-08 -0.000167429)
(-1.26926e-08 -3.39067e-09 -0.000167256)
(1.48864e-08 7.2474e-09 -0.000167636)
(-2.54843e-09 -1.66256e-08 -0.000167405)
(1.12576e-08 8.24282e-09 -0.000167767)
(-9.3721e-09 -1.40748e-08 -0.000161424)
(3.23618e-09 1.32744e-08 -0.00016367)
(-3.34383e-09 -1.26136e-08 -0.00016332)
(1.71777e-08 1.61086e-08 -0.000161789)
(-1.75217e-08 6.92821e-09 -0.000156566)
(-1.0479e-08 -1.72195e-08 -0.000167666)
(1.64991e-08 -8.12649e-09 -0.000156158)
(-8.78144e-09 1.6984e-08 -0.000161813)
(6.86719e-09 -9.4528e-09 -0.000163327)
(1.54418e-08 -1.32317e-08 -0.000161442)
(-3.71522e-09 1.44203e-08 -0.000163685)
(-1.61783e-08 -7.91248e-09 -0.00015616)
(1.7483e-08 1.04811e-08 -0.00015658)
(1.44588e-08 1.67344e-08 -0.000161794)
(-1.92227e-09 -9.88598e-09 -0.000163324)
(-1.13363e-08 -1.21386e-08 -0.000161428)
(2.57114e-09 1.402e-08 -0.000163674)
(-1.11361e-08 -1.50211e-08 -0.00016767)
(1.61043e-08 -5.95166e-09 -0.000156157)
(-1.51375e-08 1.14796e-08 -0.000156572)
(1.52137e-08 3.76531e-09 -0.000157388)
(-1.13425e-08 5.36448e-09 -0.000157721)
(-1.25171e-08 6.10578e-09 -0.000157709)
(1.2754e-08 -3.15453e-09 -0.000157358)
(8.79762e-09 -4.9511e-09 -0.000167826)
(-9.12772e-09 8.04858e-09 -0.00016778)
(5.85027e-09 -1.28943e-08 -0.000167437)
(1.52854e-08 -2.89469e-09 -0.000167255)
(-1.19628e-08 8.57098e-09 -0.000167643)
(1.61709e-09 -1.64101e-08 -0.000167814)
(-1.48823e-08 6.36164e-09 -0.000157715)
(1.00036e-08 -4.26138e-09 -0.000157345)
(1.11529e-08 -4.72825e-09 -0.000157361)
(-1.44078e-08 2.75735e-09 -0.000157706)
(-1.45783e-09 -1.78995e-08 -0.000167797)
(4.28037e-09 -1.40281e-08 -0.000167423)
(-1.10523e-08 6.4289e-09 -0.000167778)
(-1.23874e-08 -8.58741e-09 -0.000161675)
(1.22921e-08 5.90992e-09 -0.000163914)
(-1.08178e-08 3.19063e-10 -0.000163605)
(1.62207e-08 1.91122e-08 -0.000161991)
(8.66612e-09 -1.12659e-08 -0.000156833)
(-1.66696e-08 -1.24351e-08 -0.000167876)
(-7.41323e-09 1.7088e-08 -0.00015646)
(1.57155e-08 -1.3024e-08 -0.000161989)
(-8.71992e-09 4.73905e-09 -0.000163608)
(-1.21396e-08 1.46639e-08 -0.000161653)
(1.36749e-08 -2.52137e-09 -0.000163925)
(-6.92349e-09 -1.73853e-08 -0.0001564)
(1.20077e-08 1.17455e-08 -0.000156801)
(1.74447e-08 1.67354e-08 -0.000161994)
(-8.31476e-09 4.90907e-10 -0.0001636)
(-1.15605e-08 -9.06572e-09 -0.000161668)
(1.18518e-08 4.54286e-09 -0.000163914)
(-7.01163e-09 1.66365e-08 -0.000156439)
(1.09165e-08 -1.39493e-08 -0.000156836)
(1.28632e-08 1.10196e-08 -0.000161663)
(-1.27946e-08 -4.91037e-09 -0.000163911)
(1.09293e-08 9.46249e-10 -0.000163609)
(-1.65879e-08 -2.0633e-08 -0.000161985)
(-8.62149e-09 1.24655e-08 -0.000156811)
(1.67775e-08 1.28643e-08 -0.000167861)
(8.31128e-09 -1.72456e-08 -0.000156425)
(1.26732e-08 -1.36473e-08 -0.000161657)
(-1.30385e-08 3.85176e-09 -0.000163915)
(1.08616e-08 -4.13864e-09 -0.000163608)
(-1.60635e-08 1.41916e-08 -0.000161981)
(-9.54573e-09 -1.05155e-08 -0.000156774)
(1.59997e-08 -1.49497e-08 -0.000167839)
(7.87494e-09 1.4993e-08 -0.000156398)
(-1.65437e-08 -1.36146e-08 -0.000161993)
(8.40908e-09 2.2361e-09 -0.000163609)
(1.09628e-08 1.1464e-08 -0.000161662)
(-1.23843e-08 -1.83353e-09 -0.000163913)
(7.39919e-09 -1.67416e-08 -0.000156419)
(-1.05904e-08 1.53256e-08 -0.000156817)
(-1.70097e-08 1.54479e-08 -0.000161986)
(8.94322e-09 -4.31873e-09 -0.000163608)
(1.23072e-08 -1.58939e-08 -0.000161656)
(-1.30572e-08 5.39325e-09 -0.000163914)
(4.97555e-09 1.72573e-08 -0.000156388)
(-1.16704e-08 -1.62084e-08 -0.000156782)
(8.49598e-09 9.07539e-09 -0.000167649)
(-2.23874e-08 -6.42293e-10 -0.000167222)
(1.00505e-08 1.37575e-08 -0.00016778)
(-7.76618e-09 -1.36565e-08 -0.000167349)
(-6.24647e-09 -8.86443e-09 -0.000161407)
(1.01651e-08 2.1309e-08 -0.000163684)
(2.78857e-09 -1.29391e-08 -0.000163292)
(2.4275e-08 1.92615e-08 -0.000161788)
(-1.02346e-08 1.37437e-08 -0.000156574)
(-2.44064e-09 -1.70861e-08 -0.000167628)
(2.21344e-08 -6.49736e-09 -0.000156112)
(-2.66662e-09 2.36385e-08 -0.000168162)
(1.07557e-08 -1.91972e-09 -0.000157335)
(-1.41126e-08 8.08334e-09 -0.000157715)
(-1.22677e-08 1.40979e-08 -0.000157714)
(9.92283e-09 -5.26809e-09 -0.000157298)
(-9.83916e-09 1.09741e-08 -0.000167782)
(8.598e-09 -1.02983e-08 -0.000167369)
(-2.04281e-08 -6.17321e-09 -0.000161591)
(1.28524e-08 5.12837e-09 -0.000163901)
(-1.04172e-08 2.56865e-09 -0.000163558)
(2.54192e-08 1.82243e-08 -0.00016201)
(1.84442e-08 -1.45071e-08 -0.000156862)
(-6.10301e-09 -7.13974e-09 -0.000167828)
(-1.01574e-08 1.80831e-08 -0.000156373)
(1.14013e-08 1.00525e-08 -0.000161615)
(-1.89084e-08 -5.30143e-09 -0.00016393)
(9.96951e-09 5.3242e-09 -0.000163559)
(-1.8469e-08 -1.68988e-08 -0.000161995)
(-9.62191e-09 1.55065e-08 -0.00015682)
(1.83298e-08 7.76164e-09 -0.000167802)
(8.58645e-09 -1.64305e-08 -0.000156375)
(7.44859e-09 -9.60033e-09 -0.00016161)
(-2.15577e-08 9.52719e-09 -0.000163927)
(1.09505e-08 1.55187e-09 -0.00016355)
(-1.85559e-08 2.18996e-08 -0.000161975)
(-1.17234e-08 -9.74371e-09 -0.000156795)
(1.97421e-08 -7.55316e-09 -0.000167777)
(4.85368e-09 1.96069e-08 -0.000156356)
(-5.60056e-09 1.60258e-09 -0.000157259)
(-4.35593e-09 -8.58051e-09 -0.000157603)
(-1.8474e-08 1.7316e-09 -0.000157542)
(-6.40773e-09 -6.64876e-09 -0.000157262)
(-2.61105e-08 -6.18336e-10 -0.000167777)
(1.10215e-08 -1.80397e-08 -0.000167683)
(-2.31264e-08 7.87365e-09 -0.000167209)
(-4.47928e-08 8.018e-09 -0.000167686)
(-1.34127e-08 -2.60959e-09 -0.000157272)
(2.54462e-09 1.60935e-09 -0.000161412)
(-1.04185e-08 -2.48491e-08 -0.000163662)
(-2.14948e-09 1.13902e-08 -0.000163272)
(-2.43108e-08 -8.93984e-09 -0.000161752)
(1.24597e-08 -6.04209e-09 -0.000156588)
(6.26062e-09 2.54133e-08 -0.000167617)
(-2.18671e-08 4.71537e-09 -0.000156161)
(-9.66636e-09 1.20355e-08 -0.000161401)
(6.10238e-09 -1.47856e-08 -0.000163653)
(-2.56938e-09 1.15854e-08 -0.000163288)
(1.93722e-08 -1.75266e-08 -0.00016178)
(-1.18261e-08 -1.58367e-08 -0.000156587)
(-6.58381e-09 1.5371e-08 -0.000167632)
(2.19974e-08 7.76289e-09 -0.000156123)
(4.68014e-09 1.59196e-08 -0.000163263)
(-2.57242e-09 1.59073e-09 -0.000161403)
(-1.52451e-09 8.22017e-09 -0.000163292)
(7.37747e-11 9.89051e-09 -0.000161381)
(-1.26954e-08 -6.29811e-09 -0.000167761)
(7.37752e-09 1.53827e-08 -0.000167332)
(-9.20062e-09 -1.04623e-08 -0.000167646)
(2.40865e-08 1.53507e-09 -0.00016721)
(1.25537e-08 9.02703e-09 -0.000157185)
(1.49326e-08 -1.32204e-08 -0.000156417)
(5.74523e-08 -6.17056e-09 -0.000156832)
(-1.97747e-08 -1.95569e-08 -0.000167428)
(-5.89619e-08 -2.10313e-08 -0.0001678)
(-5.58901e-09 -1.86261e-08 -0.000156479)
(1.394e-08 6.63844e-09 -0.000156844)
(-8.37073e-09 9.42768e-09 -0.000167512)
(6.22702e-09 -1.12166e-08 -0.000167819)
(-2.81785e-08 -1.9686e-09 -0.000156272)
(-4.94411e-09 1.45558e-08 -0.000156604)
(2.5795e-08 9.53251e-10 -0.000167335)
(4.03935e-09 1.74085e-08 -0.000167667)
(-8.44675e-09 -6.822e-09 -0.000156527)
(3.25709e-09 1.84879e-08 -0.000156861)
(-3.86171e-09 1.47695e-08 -0.00016755)
(1.12482e-08 -1.1668e-08 -0.000167876)
(-2.76137e-08 -5.68362e-09 -0.000156247)
(1.37656e-08 9.8387e-09 -0.000156645)
(2.29049e-08 7.50894e-10 -0.000167351)
(-8.78313e-09 1.06714e-08 -0.000167711)
(-1.02269e-08 -1.01013e-08 -0.00015654)
(1.35404e-08 2.09313e-09 -0.000156881)
(-6.88523e-09 1.19064e-08 -0.000167571)
(1.00166e-08 -1.30649e-08 -0.000167886)
(-7.32393e-09 -1.08942e-08 -0.00015628)
(2.74909e-08 7.77845e-09 -0.000156663)
(4.74915e-09 -8.78527e-09 -0.00016737)
(-2.37415e-08 1.76533e-09 -0.000167718)
(-4.05253e-09 -2.16145e-08 -0.000156535)
(1.4382e-08 8.49078e-09 -0.000156879)
(-6.74908e-09 1.16178e-08 -0.000167554)
(8.59604e-09 -1.39348e-08 -0.000167862)
(-1.24238e-08 -5.11883e-09 -0.000156276)
(1.6206e-08 4.9467e-09 -0.000156641)
(7.71977e-09 -1.08022e-08 -0.000167362)
(-1.70555e-08 8.18104e-09 -0.000167718)
(-4.40352e-09 -1.74559e-08 -0.000156526)
(1.07715e-08 9.26607e-09 -0.000156867)
(-9.7137e-09 8.07836e-09 -0.000167547)
(1.03061e-08 -1.66316e-08 -0.000167866)
(-1.91201e-08 -5.97918e-09 -0.000156264)
(1.24247e-08 1.17993e-08 -0.000156639)
(1.07663e-08 -5.36375e-09 -0.000167354)
(-1.3859e-08 7.13663e-09 -0.000167699)
(-9.54944e-09 -1.43897e-08 -0.000156516)
(9.7727e-09 1.35642e-08 -0.000156865)
(-7.99591e-09 1.14266e-08 -0.000167549)
(1.04761e-08 -1.38739e-08 -0.000167861)
(-2.0247e-08 -7.22225e-09 -0.000156259)
(1.28179e-08 1.00247e-08 -0.000156628)
(1.65764e-08 -5.25637e-09 -0.00016734)
(-1.14177e-08 8.70591e-09 -0.00016769)
(-8.89263e-09 -9.44073e-09 -0.000156516)
(9.21914e-09 1.26891e-08 -0.000156849)
(-8.90852e-09 1.20361e-08 -0.000167542)
(9.20415e-09 -1.35764e-08 -0.000167857)
(-1.95307e-08 -7.98664e-09 -0.000156258)
(1.52069e-08 1.06423e-08 -0.000156651)
(8.13593e-09 -6.79221e-09 -0.000167356)
(-1.01351e-08 8.48609e-09 -0.000167705)
(-7.31734e-09 -1.33134e-08 -0.000156513)
(1.13184e-08 1.2266e-08 -0.000156865)
(-6.1382e-09 1.07269e-08 -0.000167561)
(6.78136e-09 -1.20446e-08 -0.000167867)
(-7.42252e-09 -9.23379e-09 -0.00015626)
(1.93649e-08 9.56973e-09 -0.000156624)
(1.28103e-08 -7.5503e-09 -0.000167358)
(-1.28855e-08 9.40846e-09 -0.000167691)
(-6.35526e-09 -1.24215e-08 -0.00015651)
(1.21768e-08 7.48955e-09 -0.000156835)
(-4.42633e-09 1.26423e-08 -0.000167553)
(8.73447e-09 -1.19338e-08 -0.000167843)
(-1.50675e-08 -7.43156e-09 -0.000156248)
(1.73146e-08 1.20891e-08 -0.00015662)
(1.10306e-08 -1.02709e-08 -0.000167334)
(-1.14229e-08 1.03922e-08 -0.000167679)
(-6.92804e-09 -1.23507e-08 -0.000156495)
(1.31542e-08 9.36097e-09 -0.000156834)
(-7.65565e-09 1.04917e-08 -0.000167534)
(9.48575e-09 -8.11456e-09 -0.000167837)
(-1.20115e-08 -8.04054e-09 -0.000156226)
(1.50712e-08 1.0918e-08 -0.000156601)
(1.32706e-08 -6.88853e-09 -0.000167319)
(-1.5488e-08 1.04672e-08 -0.00016766)
(-7.5758e-09 -1.17632e-08 -0.00015647)
(1.06128e-08 1.29356e-08 -0.000156818)
(-4.98664e-09 1.26981e-08 -0.000167518)
(1.06726e-08 -1.16548e-08 -0.000167827)
(-1.55229e-08 -6.69387e-09 -0.000156214)
(1.30111e-08 1.40485e-08 -0.000156581)
(8.773e-09 -1.0317e-08 -0.000167298)
(-1.20311e-08 1.2783e-08 -0.000167656)
(-5.30068e-09 -8.8893e-09 -0.000156468)
(1.21514e-08 8.68337e-09 -0.000156804)
(-6.47877e-09 1.15867e-08 -0.000167499)
(1.42774e-08 -5.95999e-09 -0.000167813)
(-1.79558e-08 -5.19217e-09 -0.000156186)
(1.34607e-08 1.49929e-08 -0.00015656)
(1.44681e-08 -5.83477e-09 -0.0001673)
(-8.89293e-09 1.29338e-08 -0.000167633)
(-3.31938e-09 -1.54744e-08 -0.000156452)
(1.59506e-08 5.46161e-09 -0.000156781)
(-4.52851e-09 9.61607e-09 -0.000167484)
(7.27689e-09 -1.02686e-08 -0.000167774)
(-1.68148e-08 -6.13672e-09 -0.000156166)
(1.89576e-08 7.99866e-09 -0.000156544)
(6.71395e-09 -1.06723e-08 -0.000167263)
(-1.72785e-08 6.97021e-09 -0.000167621)
(-5.65366e-09 -1.31971e-08 -0.000156418)
(6.36819e-09 1.34332e-08 -0.000156756)
(-4.97934e-09 8.39406e-09 -0.000167454)
(6.29129e-09 -1.3797e-08 -0.000167762)
(-1.2234e-08 -1.194e-08 -0.000156168)
(1.35664e-08 1.03026e-08 -0.000156565)
(1.33317e-08 -9.37991e-09 -0.00016727)
(-1.28392e-08 9.37753e-09 -0.000167631)
(-9.17462e-09 -6.297e-09 -0.000156424)
(7.76104e-09 1.27519e-08 -0.000156786)
(-7.19944e-09 1.27372e-08 -0.000167462)
(9.42056e-09 -9.20227e-09 -0.000167793)
(-6.94111e-09 7.64528e-09 -0.000167471)
(1.20395e-08 -1.07398e-08 -0.000167822)
(3.86875e-08 2.30476e-09 -0.000167758)
(1.15352e-08 2.71239e-11 -0.000167787)
(3.76975e-08 8.47063e-10 -0.000156738)
(-2.22938e-08 -1.91428e-09 -0.000156276)
(-3.673e-08 5.88623e-09 -0.000156736)
(2.58601e-08 -1.1521e-08 -0.000156257)
(-3.49625e-08 -1.66338e-09 -0.00016774)
(3.91077e-08 4.37105e-09 -0.00016734)
(-1.59963e-08 -3.39329e-10 -0.000167813)
(1.43457e-08 -1.35441e-08 -0.000167504)
(1.38206e-08 8.50487e-09 -0.000156828)
(9.99925e-09 -1.11419e-08 -0.000156862)
(-7.44404e-09 8.1279e-09 -0.000156845)
(1.09013e-08 -1.47205e-08 -0.00015651)
(-7.42779e-09 -1.3722e-08 -0.000156835)
(9.0753e-09 -1.00017e-08 -0.000167827)
(1.21284e-08 -1.00312e-08 -0.000167664)
(1.8259e-08 -1.05044e-08 -0.000156604)
(-1.75505e-08 -1.21044e-08 -0.000156626)
(-1.04412e-08 -1.05187e-08 -0.000167806)
(-1.34973e-08 -6.78265e-09 -0.000167691)
(2.18619e-08 -2.30237e-08 -0.000167433)
(6.1149e-08 -2.01451e-08 -0.000167802)
(-2.6835e-09 -1.77717e-08 -0.000167479)
(1.33523e-08 -1.73167e-09 -0.000167802)
(7.5599e-09 1.02521e-08 -0.000167697)
(2.11024e-08 -2.76788e-08 -0.00016745)
(9.82213e-09 1.02254e-08 -0.000167829)
(-3.31478e-09 -1.84179e-08 -0.000167515)
(-1.00293e-08 -1.63066e-08 -0.000156395)
(-5.42833e-08 -3.26917e-09 -0.000156825)
(1.37907e-08 7.23417e-09 -0.000156656)
(1.48501e-08 -2.59389e-08 -0.000156405)
(-1.52635e-08 7.97392e-09 -0.000156641)
(-1.04875e-08 -2.49909e-08 -0.0001564)
(1.03813e-09 -2.49692e-08 -0.000167494)
(-1.45413e-08 1.22753e-09 -0.000167818)
(-1.11626e-08 5.07076e-09 -0.000167688)
(-1.84269e-08 -2.54108e-08 -0.000167451)
(-1.28674e-08 8.76936e-09 -0.000167827)
(3.26652e-09 -1.98864e-08 -0.000167532)
(-9.58391e-09 1.09972e-08 -0.000156523)
(1.16826e-08 -1.53084e-08 -0.000156872)
(8.4632e-09 1.5511e-08 -0.000156851)
(-1.03606e-08 -1.59043e-08 -0.000156498)
(7.59129e-09 -1.42145e-08 -0.000156876)
(-1.24392e-08 1.0981e-08 -0.000156536)
(4.66305e-09 -2.15525e-08 -0.000156509)
(-1.44445e-08 6.08482e-09 -0.000156873)
(9.17912e-09 1.2374e-08 -0.0001565)
(-1.25963e-08 -1.28018e-08 -0.000156842)
(-6.21567e-09 1.44841e-08 -0.000156862)
(8.27888e-09 -2.21444e-08 -0.00015653)
(-8.68502e-09 -1.35402e-08 -0.000156837)
(1.01995e-08 1.55876e-08 -0.000156498)
(-1.59506e-08 6.04453e-09 -0.000167327)
(1.10059e-08 -8.19079e-09 -0.000167657)
(9.72666e-09 -6.24927e-09 -0.000167842)
(-5.5925e-09 1.20831e-08 -0.000167533)
(7.12807e-09 -1.31459e-08 -0.000167674)
(-1.75578e-08 5.33843e-09 -0.000167337)
(-1.67293e-08 8.33098e-09 -0.000156221)
(1.68569e-08 -1.04674e-08 -0.000156608)
(1.97061e-08 7.87324e-09 -0.000156247)
(-1.67021e-08 -1.29667e-08 -0.000156632)
(1.53384e-08 -7.86658e-09 -0.000156604)
(-1.97329e-08 9.38491e-09 -0.000156226)
(-1.35484e-08 -9.91441e-09 -0.000156623)
(2.0969e-08 9.63892e-09 -0.00015625)
(6.48952e-09 1.49522e-08 -0.00016748)
(-7.5113e-09 -1.21932e-08 -0.000167786)
(2.01185e-08 1.96591e-09 -0.000167354)
(-1.20094e-08 -6.50463e-09 -0.000167681)
(-1.01386e-08 -7.33062e-09 -0.000167796)
(5.6247e-09 1.17421e-08 -0.00016749)
(-5.86916e-09 -1.19536e-08 -0.00016769)
(1.59931e-08 3.98741e-09 -0.00016736)
(-2.56459e-08 -6.29041e-10 -0.00016735)
(-6.087e-09 1.82636e-08 -0.00016767)
(-9.09267e-09 -7.41208e-09 -0.000167529)
(5.36761e-09 1.83955e-08 -0.000167846)
(1.41849e-09 1.08099e-08 -0.000167672)
(-3.26499e-08 2.57627e-09 -0.000167339)
(2.97527e-09 1.6934e-08 -0.000167844)
(-1.39385e-08 -4.10097e-09 -0.00016754)
(2.72081e-08 -4.07856e-09 -0.000156252)
(1.92077e-09 1.52926e-08 -0.000156597)
(4.8717e-09 1.56329e-08 -0.000156619)
(-3.71723e-08 -1.63483e-09 -0.000156231)
(-1.0348e-08 1.42194e-08 -0.000156614)
(3.39103e-08 -3.3985e-09 -0.000156224)
(8.25594e-09 -9.76227e-09 -0.000167533)
(-6.16739e-09 2.40086e-08 -0.000167849)
(-2.03624e-09 1.10333e-08 -0.000167676)
(3.08133e-08 2.90132e-09 -0.000167332)
(-3.45841e-09 1.51722e-08 -0.000167833)
(1.51219e-08 -1.83674e-09 -0.000167553)
(-7.4845e-09 1.14167e-08 -0.000156564)
(8.96206e-09 -1.08201e-08 -0.000156914)
(9.55915e-09 1.64861e-08 -0.000156878)
(-1.26759e-08 -6.86904e-09 -0.000156531)
(1.01339e-08 -1.28572e-08 -0.000156924)
(-7.97767e-09 1.34083e-08 -0.000156587)
(6.62794e-09 -9.00169e-09 -0.000156544)
(-3.41813e-09 2.10674e-08 -0.000156878)
(8.22281e-09 1.17348e-08 -0.000156514)
(-6.274e-09 -1.56736e-08 -0.000156862)
(-6.94887e-09 2.315e-08 -0.000156878)
(1.30001e-08 -5.49626e-09 -0.000156558)
(-1.0554e-08 -1.41289e-08 -0.000156866)
(1.19099e-08 1.02058e-08 -0.000156534)
(-2.24582e-08 1.89812e-09 -0.000167339)
(1.22736e-08 -1.09945e-08 -0.000167699)
(6.84736e-09 -9.69185e-09 -0.000167866)
(-6.79137e-09 1.30276e-08 -0.000167577)
(1.21165e-08 -3.8458e-09 -0.000167694)
(-1.68348e-08 4.74729e-09 -0.000167371)
(-2.00068e-08 4.62523e-09 -0.000156243)
(1.86868e-08 -7.54512e-09 -0.000156633)
(2.13742e-08 4.44857e-09 -0.000156264)
(-1.51366e-08 -6.9601e-09 -0.000156647)
(1.84716e-08 -1.02736e-08 -0.000156638)
(-1.75074e-08 9.15268e-09 -0.000156266)
(-1.89388e-08 -8.23031e-09 -0.000156648)
(2.0126e-08 7.38377e-09 -0.000156285)
(4.61657e-09 1.52276e-08 -0.000167491)
(-6.67175e-09 -1.53093e-08 -0.000167819)
(2.58586e-08 -2.06899e-10 -0.000167357)
(-1.37221e-08 -9.17822e-09 -0.000167712)
(-5.44451e-09 -7.78762e-09 -0.00016781)
(9.51371e-09 8.44976e-09 -0.000167518)
(-1.418e-08 -4.33196e-09 -0.000167698)
(1.73423e-08 5.43304e-09 -0.000167376)
(-1.91044e-08 -1.25942e-09 -0.000167353)
(9.6837e-09 9.7201e-09 -0.000167701)
(-9.25737e-09 -5.30808e-09 -0.000167551)
(1.35365e-08 3.62298e-09 -0.000167859)
(1.80346e-08 4.73935e-09 -0.000167698)
(-1.58066e-08 -8.06221e-09 -0.000167367)
(1.29572e-08 1.90511e-09 -0.000167841)
(-5.04714e-09 -1.89605e-08 -0.000167548)
(2.30915e-08 -6.93869e-09 -0.000156238)
(-1.18711e-08 1.19004e-08 -0.000156644)
(2.56921e-08 4.69443e-09 -0.000156642)
(-1.44975e-08 -7.97571e-09 -0.000156272)
(-2.31365e-08 6.13039e-09 -0.00015664)
(1.96249e-08 -6.71845e-09 -0.000156275)
(9.45018e-09 -5.52049e-09 -0.000167549)
(-1.23373e-08 1.15062e-08 -0.00016787)
(-2.46378e-08 8.2549e-10 -0.000167708)
(1.49694e-08 -6.20324e-09 -0.00016738)
(-1.82192e-08 -8.85628e-10 -0.000167858)
(7.4892e-09 -1.9137e-08 -0.000167557)
(-8.79481e-09 1.54264e-08 -0.000156583)
(1.08246e-08 -9.40563e-09 -0.000156931)
(1.29978e-08 1.81453e-09 -0.000156868)
(-4.42618e-09 -2.21386e-08 -0.000156545)
(8.01668e-09 -1.18262e-08 -0.000156898)
(-5.14209e-09 1.42718e-08 -0.000156598)
(1.1935e-08 -7.15968e-09 -0.000156542)
(-7.06648e-09 1.39086e-08 -0.000156885)
(1.06016e-08 1.59158e-08 -0.000156528)
(-1.11734e-08 -1.19076e-08 -0.000156874)
(-1.07563e-08 5.3628e-09 -0.000156873)
(6.82669e-09 -1.5113e-08 -0.000156559)
(-1.0002e-08 -1.00081e-08 -0.00015686)
(7.24923e-09 1.33069e-08 -0.000156539)
(-9.60675e-09 5.98882e-09 -0.000167367)
(2.02482e-08 -6.62051e-09 -0.000167716)
(7.69483e-09 -1.26353e-08 -0.000167857)
(-8.7696e-09 1.08425e-08 -0.000167576)
(1.84742e-08 -5.87561e-09 -0.000167688)
(-1.2826e-08 1.06329e-08 -0.000167372)
(-1.89705e-08 9.76601e-09 -0.00015626)
(1.93104e-08 -8.66845e-09 -0.000156647)
(1.68266e-08 1.0411e-08 -0.000156273)
(-2.05949e-08 -6.81016e-09 -0.000156661)
(2.23976e-08 -5.49313e-09 -0.000156618)