/*--------------------------------*- C++ -*----------------------------------*\
| =========                 |                                                 |
| \\      /  F ield         | OpenFOAM: The Open Source CFD Toolbox           |
|  \\    /   O peration     | Version:  2206                                  |
|   \\  /    A nd           | Website:  www.openfoam.com                      |
|    \\/     M anipulation  |                                                 |
\*---------------------------------------------------------------------------*/
FoamFile
{
    version     2.0;
    format      ascii;
    arch        "LSB;label=32;scalar=64";
    class       volScalarField;
    location    "100";
    object      k;
}
// * * * * * * * * * * * * * * * * * * * * * * * * * * * * * * * * * * * * * //

dimensions      [0 2 -2 0 0 0 0];

internalField   nonuniform List<scalar> 
66928
(
6.78523e-05
6.60752e-05
6.7131e-05
6.75968e-05
6.69568e-05
6.65079e-05
6.70445e-05
6.83909e-05
4.26934e-05
4.25923e-05
1.34041e-05
1.32631e-05
3.47805e-05
3.4413e-05
2.12342e-05
6.03889e-05
2.07326e-05
5.75067e-05
5.90588e-05
5.27397e-05
7.28595e-05
2.11391e-05
5.81207e-05
5.36609e-05
6.02867e-05
7.41423e-05
1.34108e-05
3.44233e-05
3.46931e-05
1.33639e-05
5.89146e-05
2.10168e-05
1.33391e-05
1.34854e-05
1.33013e-05
1.33252e-05
3.50924e-05
3.45896e-05
6.69399e-05
3.49476e-05
3.47346e-05
1.34835e-05
1.34533e-05
1.34667e-05
1.33951e-05
6.80674e-05
3.50713e-05
3.49196e-05
3.48203e-05
3.48651e-05
1.33714e-05
5.68481e-05
7.06529e-05
3.48819e-05
2.10443e-05
2.10531e-05
7.07519e-05
5.66913e-05
5.58766e-05
6.97227e-05
3.44258e-05
2.06853e-05
2.07108e-05
7.00997e-05
5.54168e-05
2.60827e-05
1.19962e-05
1.18543e-05
1.1935e-05
1.19326e-05
2.59959e-05
2.12782e-05
3.29019e-05
3.31618e-05
1.25327e-05
3.25408e-05
1.23208e-05
5.12335e-05
1.79066e-05
1.62815e-05
3.30641e-05
1.25722e-05
1.79474e-05
5.22023e-05
1.62698e-05
5.6622e-05
7.06493e-05
3.44457e-05
2.08678e-05
7.08503e-05
2.08808e-05
5.6733e-05
5.64558e-05
7.01892e-05
3.47755e-05
2.11493e-05
2.11787e-05
7.06896e-05
5.70228e-05
2.64917e-05
1.2092e-05
1.21106e-05
1.21225e-05
1.2155e-05
2.62174e-05
1.33517e-05
2.10256e-05
3.28482e-05
3.31952e-05
1.24406e-05
1.34248e-05
1.3395e-05
1.32584e-05
1.33691e-05
2.60158e-05
1.20131e-05
1.19847e-05
1.20367e-05
1.20216e-05
2.58488e-05
5.63154e-05
7.00567e-05
2.10598e-05
3.51015e-05
5.71115e-05
2.10931e-05
7.03116e-05
5.58611e-05
6.96227e-05
2.07796e-05
3.42557e-05
5.60445e-05
2.06594e-05
7.06133e-05
2.60829e-05
1.2018e-05
1.19631e-05
2.61418e-05
1.19803e-05
1.19026e-05
5.68217e-05
2.11266e-05
3.47602e-05
7.11608e-05
2.11255e-05
5.64801e-05
7.01786e-05
5.63561e-05
2.07994e-05
3.48338e-05
7.05367e-05
2.08927e-05
5.64009e-05
7.05624e-05
1.35257e-05
1.34853e-05
1.34651e-05
1.33653e-05
2.62611e-05
1.2099e-05
1.2074e-05
2.63301e-05
1.20701e-05
1.20711e-05
5.70497e-05
7.12647e-05
3.5019e-05
2.09446e-05
2.12486e-05
7.15304e-05
5.70245e-05
5.59426e-05
7.08452e-05
3.49534e-05
2.09888e-05
2.09927e-05
7.07431e-05
5.65348e-05
5.7069e-05
2.11323e-05
7.13489e-05
3.52745e-05
5.74136e-05
2.09987e-05
7.13324e-05
5.64076e-05
2.09782e-05
6.96453e-05
3.48099e-05
5.65437e-05
2.09095e-05
7.04374e-05
2.63552e-05
1.20748e-05
1.20927e-05
1.20978e-05
1.21079e-05
2.62642e-05
7.29869e-05
6.80424e-05
7.50946e-05
7.45734e-05
7.49575e-05
7.32758e-05
7.23168e-05
7.19004e-05
6.74802e-05
7.59667e-05
7.31056e-05
7.4859e-05
7.41681e-05
7.28932e-05
7.2526e-05
7.43532e-05
7.46809e-05
6.80985e-05
7.28249e-05
7.46436e-05
7.4607e-05
7.30739e-05
6.72797e-05
7.54853e-05
7.50531e-05
7.53585e-05
7.38686e-05
7.34096e-05
3.03461e-05
3.05742e-05
7.11908e-05
7.28401e-05
5.98186e-05
6.98541e-05
7.36089e-05
6.97805e-05
7.01334e-05
7.15148e-05
7.34642e-05
5.92548e-05
6.83039e-05
7.43893e-05
6.92041e-05
7.17275e-05
6.84589e-05
7.33722e-05
7.27608e-05
6.57523e-05
7.29105e-05
6.58237e-05
6.84138e-05
7.2124e-05
7.38882e-05
5.96991e-05
6.96659e-05
7.02427e-05
7.46158e-05
7.23388e-05
6.81078e-05
7.39606e-05
6.62115e-05
7.383e-05
6.63356e-05
7.36936e-05
6.92659e-05
7.05031e-05
7.38503e-05
5.91242e-05
6.83531e-05
7.31143e-05
6.84584e-05
7.01379e-05
7.23367e-05
6.77536e-05
7.44146e-05
7.38909e-05
7.35033e-05
7.51851e-05
7.42065e-05
7.33008e-05
6.79564e-05
7.49098e-05
7.52037e-05
7.33281e-05
7.41748e-05
7.49975e-05
4.26931e-05
6.61238e-05
6.57761e-05
6.71163e-05
4.27523e-05
6.70492e-05
6.6671e-05
6.74707e-05
4.26606e-05
6.62566e-05
6.68314e-05
6.72501e-05
4.27639e-05
6.7818e-05
6.6618e-05
6.75256e-05
4.18285e-05
6.71828e-05
6.61814e-05
6.74286e-05
4.20977e-05
6.76406e-05
6.62033e-05
6.75387e-05
4.17589e-05
6.68245e-05
6.57298e-05
6.74452e-05
4.22852e-05
6.71573e-05
6.62954e-05
6.63665e-05
4.21816e-05
6.69712e-05
6.6066e-05
6.70435e-05
4.16628e-05
6.64071e-05
6.48501e-05
6.74807e-05
4.22193e-05
6.66357e-05
6.53797e-05
6.60493e-05
4.23173e-05
6.67067e-05
6.50219e-05
6.74437e-05
4.17538e-05
6.70491e-05
6.56505e-05
6.71385e-05
4.20283e-05
6.63147e-05
6.59536e-05
6.61874e-05
4.2492e-05
6.48555e-05
6.40963e-05
6.698e-05
4.21623e-05
6.68289e-05
6.43715e-05
6.70543e-05
4.12203e-05
6.53582e-05
6.47628e-05
6.6797e-05
6.60847e-05
6.64148e-05
6.58492e-05
6.51994e-05
6.75507e-05
6.82256e-05
6.67542e-05
6.66804e-05
6.72671e-05
6.75772e-05
6.59927e-05
6.62787e-05
6.58572e-05
6.80492e-05
6.74912e-05
6.52997e-05
6.65304e-05
6.51504e-05
6.7336e-05
6.83898e-05
6.74102e-05
6.60428e-05
6.62008e-05
6.62878e-05
6.57131e-05
6.7998e-05
6.7338e-05
6.73501e-05
6.74994e-05
6.64751e-05
6.75561e-05
6.55836e-05
6.72805e-05
6.67373e-05
6.85232e-05
6.78153e-05
6.50593e-05
6.66912e-05
6.53391e-05
6.72731e-05
6.72278e-05
6.74414e-05
6.62456e-05
6.46605e-05
6.56497e-05
6.54959e-05
6.68814e-05
6.75205e-05
6.6438e-05
6.73911e-05
6.70157e-05
6.70423e-05
6.65235e-05
6.6696e-05
6.66617e-05
6.72472e-05
6.81153e-05
6.53899e-05
6.64421e-05
6.59161e-05
6.66213e-05
6.82161e-05
6.76602e-05
6.4519e-05
6.44279e-05
6.43045e-05
6.56779e-05
6.65132e-05
6.79831e-05
6.64525e-05
6.707e-05
6.58193e-05
6.67454e-05
6.65497e-05
6.75147e-05
6.59944e-05
6.82163e-05
6.83259e-05
6.56858e-05
6.65104e-05
6.58539e-05
6.76289e-05
6.69754e-05
6.67921e-05
6.54572e-05
6.5097e-05
6.55468e-05
6.6003e-05
6.80708e-05
6.80189e-05
6.68216e-05
6.62937e-05
6.66389e-05
6.76585e-05
6.64796e-05
6.75369e-05
6.6196e-05
6.7819e-05
6.88404e-05
6.49293e-05
6.63199e-05
6.54139e-05
6.64681e-05
6.66958e-05
6.6605e-05
6.55771e-05
6.61371e-05
6.51848e-05
6.54599e-05
6.8272e-05
6.78132e-05
6.61604e-05
6.7792e-05
6.67649e-05
6.77976e-05
6.59892e-05
6.70654e-05
6.68868e-05
6.85435e-05
6.82272e-05
6.58194e-05
6.6206e-05
6.47946e-05
6.74863e-05
6.65687e-05
6.77842e-05
6.49421e-05
6.58354e-05
6.48688e-05
6.49339e-05
6.77331e-05
6.79027e-05
6.70454e-05
6.64382e-05
6.612e-05
6.78667e-05
6.68465e-05
6.69316e-05
6.7061e-05
6.70739e-05
6.83952e-05
6.52477e-05
6.66466e-05
6.43041e-05
6.68927e-05
6.66072e-05
6.75672e-05
6.55142e-05
6.61296e-05
6.54693e-05
6.5234e-05
6.77728e-05
6.79664e-05
6.67015e-05
6.80506e-05
6.64571e-05
6.80892e-05
6.71629e-05
6.71029e-05
6.70854e-05
6.71011e-05
6.82887e-05
6.44163e-05
6.61554e-05
6.51021e-05
6.73462e-05
6.64622e-05
6.74176e-05
6.56254e-05
6.50947e-05
6.46441e-05
6.64333e-05
6.80103e-05
6.7746e-05
6.65307e-05
6.81525e-05
6.66747e-05
6.67661e-05
6.72138e-05
6.58665e-05
6.68441e-05
6.83934e-05
6.68121e-05
6.53612e-05
6.53264e-05
6.57685e-05
6.69197e-05
6.75637e-05
6.80918e-05
6.5821e-05
6.60953e-05
6.47075e-05
6.60835e-05
6.71356e-05
6.80942e-05
6.68037e-05
6.78045e-05
6.58289e-05
6.70079e-05
6.69416e-05
6.65578e-05
6.53668e-05
6.79632e-05
6.86438e-05
6.58998e-05
6.53773e-05
6.51003e-05
6.66547e-05
6.80583e-05
6.75025e-05
6.5517e-05
6.5995e-05
6.58016e-05
6.53647e-05
6.78484e-05
6.81036e-05
6.55926e-05
6.74452e-05
6.65105e-05
6.74758e-05
6.64971e-05
6.7059e-05
6.55438e-05
6.76402e-05
6.7328e-05
6.48851e-05
6.52587e-05
6.53459e-05
6.74149e-05
6.74442e-05
6.78814e-05
6.59343e-05
6.65714e-05
6.43294e-05
6.69357e-05
6.79429e-05
6.85075e-05
6.6817e-05
6.69258e-05
6.66553e-05
6.63195e-05
6.66271e-05
6.71535e-05
6.60859e-05
6.8333e-05
6.83677e-05
6.54203e-05
6.54878e-05
6.54028e-05
6.73908e-05
6.78511e-05
6.77858e-05
6.52412e-05
6.67449e-05
6.54131e-05
6.59713e-05
6.83397e-05
6.73026e-05
6.68079e-05
6.75896e-05
6.7102e-05
6.65517e-05
6.57871e-05
6.66404e-05
6.72933e-05
6.84274e-05
6.83898e-05
6.45739e-05
6.59938e-05
6.5838e-05
6.67192e-05
6.72872e-05
6.66442e-05
6.58095e-05
6.67074e-05
6.48131e-05
6.63244e-05
6.676e-05
6.7605e-05
6.69122e-05
6.68193e-05
6.71065e-05
6.69227e-05
6.64726e-05
6.50337e-05
6.69134e-05
6.76174e-05
6.79681e-05
6.59239e-05
6.52194e-05
6.48287e-05
6.60826e-05
6.74045e-05
6.69142e-05
6.5661e-05
6.56536e-05
6.58653e-05
6.62959e-05
6.76536e-05
6.71475e-05
6.73318e-05
6.62898e-05
6.61849e-05
6.56138e-05
6.59368e-05
6.56512e-05
6.71463e-05
6.66672e-05
6.72711e-05
6.50818e-05
6.47994e-05
6.39515e-05
6.69556e-05
6.67503e-05
6.74888e-05
6.62095e-05
6.65858e-05
6.59683e-05
6.6842e-05
6.80455e-05
6.7629e-05
6.58672e-05
6.67464e-05
6.53414e-05
6.76413e-05
6.73253e-05
6.61009e-05
6.71489e-05
6.80675e-05
6.71449e-05
6.51366e-05
6.5538e-05
6.516e-05
6.69679e-05
6.7628e-05
6.59525e-05
6.69466e-05
6.70948e-05
6.62575e-05
6.71686e-05
6.71463e-05
6.72412e-05
6.70176e-05
6.51691e-05
6.46165e-05
6.73521e-05
5.82837e-05
2.11766e-05
5.77976e-05
2.10505e-05
1.3491e-05
1.34707e-05
5.8077e-05
2.07051e-05
5.76271e-05
2.0807e-05
4.24902e-05
4.26878e-05
4.23758e-05
4.27348e-05
4.23038e-05
4.19688e-05
4.2186e-05
7.40825e-05
6.00485e-05
5.35857e-05
6.60652e-05
6.00716e-05
5.38212e-05
7.41809e-05
1.34263e-05
1.35831e-05
7.29996e-05
5.30138e-05
5.96171e-05
6.57167e-05
5.23731e-05
6.01953e-05
7.2819e-05
3.44079e-05
3.45343e-05
6.60855e-05
3.46018e-05
3.4786e-05
5.82936e-05
2.09987e-05
5.84341e-05
2.0921e-05
1.36207e-05
1.35932e-05
5.77544e-05
2.0993e-05
5.76057e-05
2.10065e-05
4.25254e-05
4.27294e-05
4.17163e-05
4.25119e-05
4.16033e-05
4.28612e-05
4.21468e-05
7.44988e-05
6.00481e-05
5.41324e-05
6.66132e-05
7.3572e-05
5.91986e-05
5.42275e-05
1.37942e-05
1.38112e-05
7.26411e-05
5.1994e-05
6.04092e-05
6.61296e-05
7.18976e-05
5.27841e-05
6.0365e-05
3.46477e-05
3.46802e-05
6.64692e-05
3.45459e-05
3.48189e-05
5.83915e-05
2.11497e-05
5.78009e-05
2.10037e-05
1.36098e-05
1.35904e-05
5.79578e-05
2.09553e-05
5.79313e-05
2.10075e-05
4.1982e-05
4.28258e-05
4.23017e-05
4.27795e-05
4.23145e-05
4.23391e-05
4.25797e-05
7.43672e-05
6.00093e-05
5.33662e-05
6.71968e-05
7.31859e-05
5.86838e-05
5.4319e-05
1.38441e-05
1.38339e-05
7.23399e-05
5.26338e-05
5.96196e-05
6.69265e-05
7.27805e-05
5.1855e-05
5.96937e-05
3.46202e-05
3.47654e-05
6.68394e-05
3.46655e-05
3.4689e-05
5.80635e-05
2.09289e-05
5.86912e-05
2.10157e-05
1.35957e-05
1.36172e-05
5.74295e-05
2.09585e-05
5.74849e-05
2.10173e-05
4.24709e-05
4.20397e-05
4.26492e-05
4.25977e-05
4.23284e-05
4.26263e-05
4.22938e-05
7.37238e-05
5.97376e-05
5.39225e-05
6.76544e-05
7.43205e-05
6.01775e-05
5.38351e-05
1.39239e-05
1.39169e-05
7.23383e-05
5.27832e-05
5.96704e-05
6.65591e-05
7.3208e-05
5.27728e-05
6.03426e-05
3.4654e-05
3.45276e-05
6.6497e-05
3.4604e-05
3.42945e-05
5.82949e-05
2.10417e-05
5.77215e-05
2.09756e-05
1.36582e-05
1.35172e-05
5.76413e-05
2.10485e-05
5.72616e-05
2.1024e-05
4.22754e-05
4.23329e-05
4.19371e-05
4.169e-05
4.26924e-05
4.203e-05
4.17635e-05
7.40482e-05
5.98231e-05
5.39302e-05
6.62092e-05
7.45057e-05
5.97813e-05
5.2824e-05
1.39096e-05
1.3792e-05
7.33766e-05
5.21066e-05
6.06206e-05
6.6331e-05
7.29816e-05
5.20612e-05
5.97695e-05
3.45146e-05
3.4304e-05
6.65944e-05
3.4683e-05
3.45128e-05
5.8312e-05
2.09053e-05
5.87593e-05
2.09135e-05
1.36121e-05
1.34903e-05
5.75133e-05
2.08134e-05
5.79072e-05
2.10085e-05
4.20071e-05
4.25115e-05
4.22331e-05
4.22212e-05
4.273e-05
4.25385e-05
4.23402e-05
7.33936e-05
5.96964e-05
5.35752e-05
6.67246e-05
7.43009e-05
6.00943e-05
5.38563e-05
1.37112e-05
1.37021e-05
7.3456e-05
5.17196e-05
5.95904e-05
6.65544e-05
7.21436e-05
5.18534e-05
6.01303e-05
3.45167e-05
3.46065e-05
6.78919e-05
3.45176e-05
3.45974e-05
5.85145e-05
2.08782e-05
5.83328e-05
2.08873e-05
1.34841e-05
1.35343e-05
5.81266e-05
2.10554e-05
5.81055e-05
2.10169e-05
4.28137e-05
4.25325e-05
4.17326e-05
4.24343e-05
4.18929e-05
4.27544e-05
4.22152e-05
7.41589e-05
5.97483e-05
5.37236e-05
6.59894e-05
7.36606e-05
5.9834e-05
5.39569e-05
1.37166e-05
1.35964e-05
7.36975e-05
5.16906e-05
6.01514e-05
6.69269e-05
7.25204e-05
5.22073e-05
5.98636e-05
3.43914e-05
3.42166e-05
6.7005e-05
3.45086e-05
3.44674e-05
5.88332e-05
2.08938e-05
5.8097e-05
2.09642e-05
1.34932e-05
1.35252e-05
5.77019e-05
2.0964e-05
5.78843e-05
2.09908e-05
4.23968e-05
4.20092e-05
4.20283e-05
4.20087e-05
4.18705e-05
4.28001e-05
4.20462e-05
7.48129e-05
5.95426e-05
5.40928e-05
6.69989e-05
7.47815e-05
5.85188e-05
5.40491e-05
1.36414e-05
1.35506e-05
7.36942e-05
5.24132e-05
5.9189e-05
6.61361e-05
7.26565e-05
5.23179e-05
5.932e-05
3.45135e-05
3.43556e-05
6.74005e-05
3.43958e-05
3.42476e-05
5.77809e-05
2.09616e-05
5.87957e-05
2.08934e-05
1.36044e-05
1.36146e-05
5.74058e-05
2.10648e-05
5.79886e-05
2.10607e-05
4.25038e-05
4.28492e-05
4.14528e-05
4.22203e-05
4.22649e-05
4.19175e-05
4.22228e-05
7.33607e-05
5.98802e-05
5.28279e-05
6.59053e-05
7.37907e-05
5.94124e-05
5.35959e-05
1.35697e-05
1.35643e-05
7.29611e-05
5.18352e-05
5.9556e-05
6.61309e-05
7.37448e-05
5.24914e-05
5.97014e-05
3.44011e-05
3.4187e-05
6.7279e-05
3.46425e-05
3.45421e-05
5.82057e-05
2.08682e-05
5.8721e-05
2.08998e-05
1.3714e-05
1.37382e-05
5.81543e-05
2.10294e-05
5.76883e-05
2.08862e-05
4.2183e-05
4.2601e-05
4.22818e-05
4.20634e-05
4.20463e-05
4.21994e-05
4.16209e-05
7.3602e-05
5.93345e-05
5.40369e-05
6.55137e-05
7.40799e-05
5.90962e-05
5.41288e-05
1.35548e-05
1.35088e-05
7.34246e-05
5.18796e-05
5.96103e-05
6.60131e-05
7.25306e-05
5.12042e-05
5.95521e-05
3.43602e-05
3.41401e-05
6.72926e-05
3.44179e-05
3.42911e-05
5.80874e-05
2.08938e-05
5.83386e-05
2.08269e-05
1.36815e-05
1.36193e-05
5.79087e-05
2.08115e-05
5.79894e-05
2.08677e-05
4.19568e-05
4.24532e-05
4.15478e-05
4.15729e-05
4.25976e-05
4.26124e-05
4.17315e-05
7.39035e-05
5.95154e-05
5.31132e-05
6.67044e-05
7.38626e-05
5.98571e-05
5.26294e-05
1.36332e-05
1.35175e-05
7.20745e-05
5.22341e-05
5.89281e-05
6.53062e-05
7.26555e-05
5.2167e-05
5.91979e-05
3.45728e-05
3.44367e-05
6.70009e-05
3.45124e-05
3.462e-05
5.80434e-05
2.08727e-05
5.82505e-05
2.09513e-05
1.35479e-05
1.35792e-05
5.81616e-05
2.08451e-05
5.81153e-05
2.10186e-05
4.24793e-05
4.265e-05
4.17367e-05
4.19531e-05
4.18582e-05
4.24465e-05
4.24749e-05
7.48918e-05
5.91593e-05
5.38726e-05
6.71038e-05
7.46443e-05
5.98161e-05
5.39804e-05
1.35526e-05
1.35387e-05
7.3572e-05
5.14761e-05
5.91227e-05
6.47087e-05
7.34728e-05
5.11474e-05
5.90981e-05
3.43027e-05
3.44463e-05
6.74184e-05
3.45393e-05
3.39913e-05
5.84673e-05
2.09342e-05
5.89996e-05
2.10501e-05
1.35889e-05
1.35825e-05
5.84857e-05
2.09353e-05
5.86519e-05
2.09211e-05
4.25858e-05
4.25312e-05
4.22775e-05
4.22771e-05
4.193e-05
4.17486e-05
4.16759e-05
7.30801e-05
5.97024e-05
5.39946e-05
6.63391e-05
7.41046e-05
5.9708e-05
5.39615e-05
1.35131e-05
1.33943e-05
7.32965e-05
5.18752e-05
5.96618e-05
6.59505e-05
7.37206e-05
5.21116e-05
5.97745e-05
3.41162e-05
3.44564e-05
6.75467e-05
3.4421e-05
3.42913e-05
5.9057e-05
2.10633e-05
5.86044e-05
2.10563e-05
1.3536e-05
1.35338e-05
5.87073e-05
2.09523e-05
5.85968e-05
2.10662e-05
4.17486e-05
4.24151e-05
4.24186e-05
4.25774e-05
4.17641e-05
4.23553e-05
4.19806e-05
7.39086e-05
5.93544e-05
5.30652e-05
6.63544e-05
7.35403e-05
5.97139e-05
5.4009e-05
1.35725e-05
1.34798e-05
7.31414e-05
5.13675e-05
5.92185e-05
6.59998e-05
7.28899e-05
5.22034e-05
5.95608e-05
3.45841e-05
3.42308e-05
6.63137e-05
3.45416e-05
3.44306e-05
5.86044e-05
2.0941e-05
5.90776e-05
2.09213e-05
1.35811e-05
1.36055e-05
5.81915e-05
2.11293e-05
5.78611e-05
2.11447e-05
4.19959e-05
4.1698e-05
4.21725e-05
4.25991e-05
4.25378e-05
4.20847e-05
4.20915e-05
7.32534e-05
5.986e-05
5.37197e-05
6.56642e-05
7.47507e-05
5.99651e-05
5.30785e-05
1.35646e-05
1.35648e-05
7.29986e-05
5.13786e-05
5.98512e-05
6.52371e-05
7.32556e-05
5.22077e-05
5.99391e-05
3.42618e-05
3.38465e-05
6.57039e-05
3.45308e-05
3.43417e-05
5.91927e-05
2.09326e-05
5.89216e-05
2.10123e-05
1.3649e-05
1.35475e-05
5.79851e-05
2.09504e-05
5.81321e-05
2.10849e-05
4.26185e-05
4.17789e-05
4.19652e-05
4.16378e-05
4.27002e-05
4.18797e-05
4.21271e-05
7.46233e-05
6.00852e-05
5.38811e-05
6.62319e-05
7.39892e-05
5.98214e-05
5.36326e-05
1.36405e-05
1.35298e-05
7.32236e-05
5.21463e-05
5.92311e-05
6.56792e-05
7.29563e-05
5.20334e-05
5.95707e-05
3.41258e-05
3.40559e-05
6.73338e-05
3.44682e-05
3.45194e-05
5.89247e-05
2.09992e-05
5.91184e-05
2.09877e-05
1.35934e-05
1.35802e-05
5.77903e-05
2.09258e-05
5.73149e-05
2.09611e-05
4.27457e-05
4.25897e-05
4.15154e-05
4.196e-05
7.50543e-05
5.962e-05
5.38712e-05
6.64084e-05
7.37532e-05
5.98061e-05
5.38683e-05
1.36211e-05
1.36418e-05
7.35976e-05
5.13872e-05
6.00953e-05
6.59618e-05
7.22638e-05
5.22688e-05
5.9552e-05
3.44408e-05
3.42587e-05
6.65851e-05
3.41256e-05
3.45203e-05
5.84622e-05
2.12564e-05
2.11359e-05
5.77909e-05
7.17948e-05
5.97211e-05
5.05994e-05
6.4637e-05
5.03513e-05
7.20985e-05
6.0203e-05
7.25588e-05
5.97589e-05
5.04015e-05
6.65047e-05
6.03514e-05
5.11095e-05
7.22539e-05
5.77678e-05
2.11046e-05
5.85315e-05
2.12585e-05
5.86558e-05
2.12485e-05
2.13691e-05
5.8653e-05
7.22243e-05
6.55182e-05
6.01962e-05
5.075e-05
4.9811e-05
7.19008e-05
6.00405e-05
7.27095e-05
6.63361e-05
6.06497e-05
5.1471e-05
5.99308e-05
5.13463e-05
7.17396e-05
3.47214e-05
3.47632e-05
6.74784e-05
3.46541e-05
3.41426e-05
1.34198e-05
1.33965e-05
1.35987e-05
1.34965e-05
6.71546e-05
3.49099e-05
3.47742e-05
3.48439e-05
3.47363e-05
1.34146e-05
1.34435e-05
7.38699e-05
5.8687e-05
5.363e-05
6.62916e-05
5.3758e-05
7.39363e-05
5.96464e-05
5.72731e-05
2.11134e-05
2.13399e-05
5.79853e-05
7.3914e-05
5.31174e-05
6.03044e-05
6.76442e-05
5.40077e-05
6.06943e-05
7.40369e-05
5.82946e-05
2.09102e-05
5.82433e-05
2.07586e-05
7.37144e-05
6.74983e-05
5.95986e-05
5.38333e-05
5.38388e-05
7.35612e-05
5.9624e-05
5.80059e-05
2.14762e-05
2.12104e-05
5.79175e-05
7.3772e-05
6.7734e-05
5.39396e-05
6.1025e-05
5.32925e-05
6.00727e-05
7.27781e-05
5.9114e-05
2.11488e-05
2.11417e-05
5.91323e-05
7.44107e-05
5.38385e-05
6.0105e-05
6.62081e-05
5.37126e-05
6.00707e-05
7.42012e-05
5.80354e-05
2.11208e-05
2.09625e-05
5.85214e-05
7.44289e-05
6.72953e-05
6.00877e-05
5.38489e-05
6.0084e-05
5.39818e-05
7.45463e-05
5.93757e-05
2.11302e-05
2.12025e-05
5.90355e-05
7.38355e-05
6.6136e-05
5.36542e-05
5.90348e-05
5.38548e-05
6.01552e-05
7.44853e-05
5.90462e-05
2.09702e-05
2.12138e-05
5.91709e-05
3.49127e-05
3.49188e-05
6.83044e-05
3.51894e-05
3.52018e-05
1.33674e-05
1.34943e-05
1.36958e-05
1.36357e-05
6.83498e-05
3.54393e-05
3.5348e-05
3.5162e-05
3.52144e-05
1.35463e-05
1.34863e-05
7.39325e-05
5.23548e-05
5.99906e-05
6.54333e-05
5.12941e-05
6.00182e-05
7.29218e-05
5.92143e-05
2.1046e-05
2.09598e-05
5.91313e-05
5.9628e-05
2.09964e-05
2.11576e-05
5.9651e-05
7.32736e-05
6.53939e-05
5.28237e-05
6.04257e-05
5.30954e-05
6.0478e-05
7.12554e-05
7.40489e-05
6.52607e-05
5.15118e-05
6.0359e-05
5.21067e-05
5.97081e-05
7.29159e-05
5.86025e-05
2.11804e-05
2.12244e-05
5.87895e-05
5.92207e-05
2.1204e-05
2.11444e-05
5.94736e-05
1.33588e-05
1.33976e-05
1.32145e-05
1.33256e-05
6.6968e-05
3.46038e-05
3.49438e-05
3.46359e-05
3.48051e-05
1.33821e-05
1.33798e-05
1.346e-05
1.34224e-05
1.34735e-05
1.33554e-05
1.34871e-05
1.3368e-05
3.50822e-05
3.4809e-05
6.67524e-05
3.45892e-05
3.49204e-05
1.34507e-05
1.34373e-05
1.34759e-05
1.34723e-05
6.77711e-05
3.49514e-05
3.50244e-05
3.49601e-05
3.50547e-05
5.82291e-05
2.11854e-05
5.85728e-05
2.12621e-05
7.24542e-05
6.023e-05
5.0848e-05
6.55115e-05
7.14535e-05
5.9865e-05
5.11841e-05
7.24187e-05
6.07221e-05
5.11319e-05
6.50493e-05
7.16792e-05
6.04926e-05
5.08224e-05
5.79858e-05
2.11374e-05
2.1082e-05
5.85257e-05
5.80635e-05
2.11735e-05
2.1198e-05
5.78453e-05
7.23336e-05
6.51541e-05
5.92825e-05
5.12207e-05
6.00547e-05
5.10849e-05
7.21238e-05
7.13096e-05
6.56452e-05
6.00027e-05
5.16223e-05
6.03866e-05
5.17269e-05
7.12458e-05
3.54563e-05
3.49742e-05
6.83021e-05
3.50322e-05
3.50487e-05
1.35025e-05
1.35514e-05
1.35877e-05
1.35454e-05
6.75037e-05
3.53866e-05
3.51565e-05
3.54927e-05
3.52055e-05
1.35866e-05
1.35947e-05
7.29825e-05
5.93442e-05
5.38761e-05
6.57046e-05
7.25129e-05
5.92087e-05
5.30206e-05
5.72151e-05
2.15921e-05
5.79057e-05
2.15124e-05
7.32213e-05
5.37111e-05
6.12412e-05
6.74015e-05
7.37859e-05
5.30222e-05
6.05849e-05
5.79988e-05
2.1e-05
2.10792e-05
5.80471e-05
7.32515e-05
6.65075e-05
5.94622e-05
5.36539e-05
5.95607e-05
5.36782e-05
7.33247e-05
5.79862e-05
2.15878e-05
2.15798e-05
5.80462e-05
7.35805e-05
6.72872e-05
5.27427e-05
6.10942e-05
5.29711e-05
6.0958e-05
7.33025e-05
5.88558e-05
2.12185e-05
5.90282e-05
2.10937e-05
7.29469e-05
5.29545e-05
5.98656e-05
6.68161e-05
7.45715e-05
5.38632e-05
5.97749e-05
5.9186e-05
2.1121e-05
5.93223e-05
2.11719e-05
7.37194e-05
6.76914e-05
5.99611e-05
5.36545e-05
5.99485e-05
5.37276e-05
7.43984e-05
5.86373e-05
2.1119e-05
2.12029e-05
5.83156e-05
7.4131e-05
6.67092e-05
5.31493e-05
5.97876e-05
5.37243e-05
5.93968e-05
7.39788e-05
5.91976e-05
2.12359e-05
2.12599e-05
5.81332e-05
3.5646e-05
3.54516e-05
6.84633e-05
3.57169e-05
3.52747e-05
1.35504e-05
1.35893e-05
1.3746e-05
1.38333e-05
6.84983e-05
3.57395e-05
3.51921e-05
3.57257e-05
3.50159e-05
1.35608e-05
1.35625e-05
7.22246e-05
5.2012e-05
5.98228e-05
6.54319e-05
7.37973e-05
5.23193e-05
5.97713e-05
5.89265e-05
2.11776e-05
5.85414e-05
2.12846e-05
5.93735e-05
2.099e-05
5.9368e-05
2.10748e-05
7.25626e-05
6.58548e-05
5.29085e-05
5.97319e-05
5.2848e-05
5.99297e-05
7.28645e-05
7.33877e-05
6.49918e-05
5.19666e-05
6.03682e-05
5.23623e-05
6.02776e-05
7.33728e-05
5.86282e-05
2.1173e-05
2.12539e-05
5.90316e-05
5.90943e-05
2.12878e-05
2.12152e-05
5.83124e-05
1.33895e-05
1.33907e-05
1.33615e-05
1.34407e-05
6.74975e-05
3.46748e-05
3.49113e-05
3.47743e-05
3.49686e-05
1.3449e-05
1.34529e-05
1.34667e-05
1.34189e-05
1.34121e-05
1.35162e-05
1.34932e-05
1.35074e-05
3.5124e-05
3.49292e-05
6.84532e-05
3.51967e-05
3.49703e-05
1.34811e-05
1.35277e-05
1.34952e-05
1.35196e-05
6.85192e-05
3.53734e-05
3.49367e-05
3.51217e-05
3.46249e-05
5.77277e-05
2.13017e-05
5.77061e-05
2.13235e-05
7.13978e-05
6.016e-05
5.1013e-05
6.64956e-05
7.28066e-05
5.96468e-05
5.08271e-05
7.17838e-05
6.08183e-05
5.15954e-05
6.56071e-05
7.21231e-05
5.97998e-05
5.14014e-05
5.88109e-05
2.11193e-05
2.1042e-05
5.86797e-05
5.85208e-05
2.1257e-05
2.12414e-05
5.86272e-05
7.25046e-05
6.53036e-05
6.00785e-05
5.12267e-05
5.96808e-05
5.16973e-05
7.25524e-05
7.28395e-05
6.59519e-05
6.00162e-05
5.07519e-05
6.00581e-05
5.08605e-05
7.20466e-05
3.53319e-05
3.53532e-05
6.8017e-05
3.52999e-05
3.49176e-05
1.36471e-05
1.35664e-05
1.3596e-05
1.35465e-05
6.80934e-05
3.49338e-05
3.51233e-05
3.53489e-05
3.51987e-05
1.35337e-05
1.3652e-05
7.36073e-05
5.94778e-05
5.33528e-05
6.68394e-05
7.31795e-05
5.98411e-05
5.27285e-05
5.77163e-05
2.15265e-05
5.74897e-05
2.15305e-05
7.33383e-05
5.36775e-05
6.03221e-05
6.74596e-05
7.31871e-05
5.37188e-05
6.10029e-05
5.7548e-05
2.1007e-05
2.11022e-05
5.76076e-05
7.36397e-05
6.67715e-05
6.00359e-05
5.30678e-05
6.01653e-05
5.25504e-05
7.23319e-05
5.85086e-05
2.16172e-05
2.16254e-05
5.71384e-05
7.25574e-05
6.75068e-05
5.3445e-05
6.10351e-05
5.37466e-05
6.13583e-05
7.34845e-05
5.82565e-05
2.13102e-05
5.846e-05
2.1232e-05
7.43248e-05
5.40003e-05
5.91314e-05
6.64474e-05
7.36201e-05
5.40388e-05
5.9898e-05
5.88817e-05
2.12921e-05
5.89579e-05
2.10012e-05
7.4197e-05
6.69938e-05
6.02246e-05
5.38116e-05
5.96301e-05
5.33749e-05
7.37923e-05
5.91424e-05
2.11618e-05
2.1349e-05
5.88263e-05
7.44456e-05
6.63479e-05
5.30349e-05
5.91549e-05
5.40759e-05
6.00551e-05
7.38267e-05
5.92114e-05
2.12269e-05
2.12018e-05
5.92783e-05
3.53773e-05
3.48015e-05
6.81885e-05
3.57658e-05
3.4782e-05
1.34656e-05
1.34965e-05
1.38812e-05
1.38695e-05
6.69866e-05
3.58107e-05
3.52297e-05
3.59203e-05
3.51808e-05
1.3573e-05
1.34524e-05
7.24835e-05
5.16672e-05
5.9839e-05
6.5309e-05
7.32209e-05
5.25229e-05
5.96478e-05
5.82811e-05
2.12329e-05
5.87654e-05
2.11241e-05
5.90261e-05
2.122e-05
5.88084e-05
2.12396e-05
7.2313e-05
6.63241e-05
5.27077e-05
5.99202e-05
5.26671e-05
5.99687e-05
7.22807e-05
7.25226e-05
6.48487e-05
5.24604e-05
6.00302e-05
5.24379e-05
6.04402e-05
7.35582e-05
5.89239e-05
2.13333e-05
2.09865e-05
5.93042e-05
5.88785e-05
2.12852e-05
2.13021e-05
5.90152e-05
1.34268e-05
1.33697e-05
1.34147e-05
1.33359e-05
6.65343e-05
3.46711e-05
3.45398e-05
3.42695e-05
3.47931e-05
1.34117e-05
1.3388e-05
1.34345e-05
1.3415e-05
1.34469e-05
1.33762e-05
1.3514e-05
1.35114e-05
3.52894e-05
3.47505e-05
6.67272e-05
3.4734e-05
3.46485e-05
1.34215e-05
1.34523e-05
1.34292e-05
1.35551e-05
6.69178e-05
3.48784e-05
3.46975e-05
3.50177e-05
3.52202e-05
5.87122e-05
2.13569e-05
5.86726e-05
2.14497e-05
7.19487e-05
6.00637e-05
5.03723e-05
6.55094e-05
7.17367e-05
5.90578e-05
5.0632e-05
7.31224e-05
5.96461e-05
5.0836e-05
6.53354e-05
7.19845e-05
6.0202e-05
5.0729e-05
5.86985e-05
2.0791e-05
2.10288e-05
5.85669e-05
5.89019e-05
2.14238e-05
2.1457e-05
5.84914e-05
7.18808e-05
6.531e-05
5.89282e-05
5.06948e-05
5.97965e-05
5.08212e-05
7.30338e-05
7.30339e-05
6.57409e-05
6.01692e-05
5.12774e-05
6.02388e-05
5.16657e-05
7.30531e-05
3.47392e-05
3.52364e-05
6.69294e-05
3.53292e-05
3.47942e-05
1.36643e-05
1.36196e-05
1.36078e-05
1.3612e-05
6.75601e-05
3.49112e-05
3.46415e-05
3.5342e-05
3.51199e-05
1.35297e-05
1.3551e-05
7.23906e-05
5.95374e-05
5.33814e-05
6.6628e-05
7.27016e-05
6.00226e-05
5.32174e-05
5.7967e-05
2.16596e-05
5.77069e-05
2.16153e-05
7.34495e-05
5.28241e-05
6.06171e-05
6.68271e-05
7.25969e-05
5.28104e-05
6.02838e-05
5.73303e-05
2.10106e-05
2.10832e-05
5.79221e-05
7.28581e-05
6.68043e-05
6.00171e-05
5.24251e-05
6.00106e-05
5.27151e-05
7.32833e-05
5.82353e-05
2.17259e-05
2.17485e-05
5.79303e-05
7.34557e-05
6.6826e-05
5.35092e-05
6.11775e-05
5.25914e-05
6.1277e-05
7.38733e-05
5.82925e-05
2.14165e-05
5.90816e-05
2.14052e-05
7.4528e-05
5.33951e-05
6.01389e-05
6.56639e-05
7.36229e-05
5.25156e-05
5.97918e-05
5.89721e-05
2.12805e-05
5.95493e-05
2.10148e-05
7.46067e-05
6.6557e-05
5.91e-05
5.38931e-05
5.97569e-05
5.40502e-05
7.4579e-05
5.88064e-05
2.1368e-05
2.14578e-05
5.86079e-05
7.43853e-05
6.68007e-05
5.34044e-05
5.98769e-05
5.3415e-05
5.96685e-05
7.42965e-05
5.91966e-05
2.12059e-05
2.12529e-05
5.90389e-05
3.59922e-05
3.54167e-05
6.82923e-05
3.58943e-05
3.51467e-05
1.36279e-05
1.36043e-05
1.38934e-05
1.39117e-05
6.83183e-05
3.5637e-05
3.50231e-05
3.59568e-05
3.55116e-05
1.36319e-05
1.35627e-05
7.3407e-05
5.2277e-05
6.01177e-05
6.48046e-05
7.36627e-05
5.2424e-05
5.97819e-05
5.96162e-05
2.13285e-05
5.92943e-05
2.13876e-05
5.93778e-05
2.12967e-05
5.90073e-05
2.11649e-05
7.32916e-05
6.54813e-05
5.20672e-05
6.06296e-05
5.15795e-05
5.97995e-05
7.30767e-05
7.33266e-05
6.5934e-05
5.25347e-05
5.99073e-05
5.24686e-05
5.9346e-05
7.33468e-05
5.96433e-05
2.13291e-05
2.11875e-05
5.88009e-05
5.87496e-05
2.11595e-05
2.11847e-05
5.91997e-05
1.34476e-05
1.34343e-05
1.34239e-05
1.34152e-05
6.73706e-05
3.4693e-05
3.44067e-05
3.44053e-05
3.48088e-05
1.34678e-05
1.34481e-05
1.33909e-05
1.34353e-05
1.34524e-05
1.34412e-05
1.34992e-05
1.34396e-05
3.50538e-05
3.50285e-05
6.79474e-05
3.47027e-05
3.47468e-05
1.33932e-05
1.33222e-05
1.34505e-05
1.34927e-05
6.78249e-05
3.46495e-05
3.46159e-05
3.42721e-05
3.49599e-05
5.80603e-05
2.14184e-05
5.86765e-05
2.13849e-05
7.27055e-05
5.97853e-05
5.0741e-05
6.55445e-05
7.31711e-05
5.96477e-05
5.09473e-05
7.30149e-05
6.10569e-05
5.05979e-05
6.62512e-05
7.3242e-05
6.00648e-05
5.12922e-05
5.82513e-05
2.09006e-05
2.08549e-05
5.87169e-05
5.89774e-05
2.11537e-05
2.14671e-05
5.80341e-05
7.30417e-05
6.50345e-05
5.91787e-05
5.16818e-05
5.98188e-05
5.07945e-05
7.31355e-05
7.31401e-05
6.52458e-05
5.96946e-05
5.09459e-05
6.10326e-05
5.1152e-05
7.2923e-05
3.53867e-05
3.51177e-05
6.66486e-05
3.51171e-05
3.49192e-05
1.3634e-05
1.35739e-05
1.34837e-05
1.36373e-05
6.7624e-05
3.48003e-05
3.45964e-05
3.53163e-05
3.47006e-05
1.3563e-05
1.35615e-05
7.28392e-05
5.95149e-05
5.33801e-05
6.69421e-05
7.32499e-05
5.92374e-05
5.32788e-05
5.82162e-05
2.15835e-05
5.82137e-05
2.13957e-05
7.33293e-05
5.36291e-05
6.12915e-05
6.75351e-05
7.37014e-05
5.32029e-05
6.02486e-05
5.78546e-05
2.09951e-05
2.10774e-05
5.73122e-05
7.27592e-05
6.66791e-05
5.94816e-05
5.26558e-05
5.91791e-05
5.29744e-05
7.37062e-05
5.84255e-05
2.15445e-05
2.16597e-05
5.84012e-05
7.35829e-05
6.74072e-05
5.32341e-05
6.072e-05
5.30844e-05
6.10627e-05
7.40568e-05
5.89454e-05
2.12466e-05
5.85104e-05
2.11084e-05
7.3172e-05
5.34675e-05
5.95194e-05
6.64647e-05
7.31504e-05
5.25877e-05
5.86984e-05
5.93096e-05
2.12702e-05
5.93546e-05
2.09755e-05
7.40292e-05
6.73879e-05
6.03417e-05
5.35848e-05
5.98804e-05
5.35238e-05
7.42077e-05
5.91587e-05
2.13143e-05
2.13757e-05
5.89887e-05
7.38553e-05
6.64136e-05
5.352e-05
5.91217e-05
5.32493e-05
5.96007e-05
7.30669e-05
5.94883e-05
2.09297e-05
2.11512e-05
5.925e-05
3.57984e-05
3.56074e-05
6.85081e-05
3.52524e-05
3.53313e-05
1.36575e-05
1.36034e-05
1.37808e-05
1.38241e-05
6.77547e-05
3.52329e-05
3.52016e-05
3.57326e-05
3.54759e-05
1.35124e-05
1.3619e-05
7.32594e-05
5.23568e-05
5.98297e-05
6.59574e-05
7.3423e-05
5.2359e-05
5.87233e-05
5.91397e-05
2.11853e-05
5.93241e-05
2.13254e-05
5.93155e-05
2.09518e-05
5.85614e-05
2.10617e-05
7.24126e-05
6.62838e-05
5.24963e-05
6.0257e-05
5.1638e-05
5.95122e-05
7.33173e-05
7.26213e-05
6.59394e-05
5.22391e-05
5.97202e-05
5.15654e-05
5.94846e-05
7.33648e-05
5.846e-05
2.12559e-05
2.1145e-05
5.86404e-05
5.94329e-05
2.10779e-05
2.09476e-05
5.90946e-05
1.34104e-05
1.3441e-05
1.32776e-05
1.33607e-05
6.75125e-05
3.45895e-05
3.42508e-05
3.47346e-05
3.41887e-05
1.3432e-05
1.34003e-05
1.3353e-05
1.32727e-05
1.33769e-05
1.33946e-05
1.3409e-05
1.34178e-05
3.45829e-05
3.44365e-05
6.74284e-05
3.45756e-05
3.43877e-05
1.33396e-05
1.33745e-05
1.34315e-05
1.34018e-05
6.69739e-05
3.47325e-05
3.47101e-05
3.48334e-05
3.49831e-05
5.84643e-05
2.13168e-05
5.88165e-05
2.13076e-05
7.29971e-05
5.99767e-05
5.13404e-05
6.55969e-05
7.3138e-05
5.92357e-05
5.14848e-05
7.25762e-05
6.05041e-05
5.18592e-05
6.58791e-05
7.26907e-05
5.97216e-05
5.19895e-05
5.90065e-05
2.09975e-05
2.09783e-05
5.89331e-05