/*--------------------------------*- C++ -*----------------------------------*\
| =========                 |                                                 |
| \\      /  F ield         | OpenFOAM: The Open Source CFD Toolbox           |
|  \\    /   O peration     | Version:  2206                                  |
|   \\  /    A nd           | Website:  www.openfoam.com                      |
|    \\/     M anipulation  |                                                 |
\*---------------------------------------------------------------------------*/
FoamFile
{
    version     2.0;
    format      ascii;
    arch        "LSB;label=32;scalar=64";
    class       volScalarField;
    location    "100";
    object      nut;
}
// * * * * * * * * * * * * * * * * * * * * * * * * * * * * * * * * * * * * * //

dimensions      [0 2 -1 0 0 0 0];

internalField   nonuniform List<scalar> 
66928
(
1.13949e-06
1.18305e-06
1.18175e-06
1.18552e-06
1.12352e-06
1.19492e-06
1.15755e-06
1.14875e-06
1.67846e-06
1.66801e-06
3.34125e-08
3.27561e-08
1.82157e-07
1.79025e-07
7.17943e-08
3.35834e-07
6.949e-08
3.03739e-07
3.24552e-07
1.29637e-06
6.27711e-07
7.09352e-08
3.07095e-07
1.31869e-06
3.31898e-07
6.39004e-07
3.30197e-08
1.79265e-07
1.81728e-07
3.32123e-08
3.27776e-07
7.10136e-08
3.31886e-08
3.36073e-08
3.29113e-08
3.30817e-08
1.8272e-07
1.78429e-07
1.124e-06
1.83029e-07
1.80536e-07
3.35908e-08
3.34448e-08
3.34142e-08
3.31811e-08
1.17518e-06
1.83701e-07
1.80931e-07
1.81302e-07
1.79855e-07
3.32959e-08
2.82931e-07
4.77331e-07
1.8164e-07
6.8734e-08
6.86032e-08
4.77697e-07
2.83592e-07
2.80631e-07
4.67745e-07
1.77602e-07
6.72692e-08
6.72444e-08
4.69497e-07
2.80015e-07
1.0853e-07
2.95251e-08
2.91147e-08
2.92863e-08
2.92235e-08
1.08428e-07
7.19759e-08
1.63909e-07
1.64281e-07
2.99924e-08
1.60805e-07
2.91366e-08
2.52935e-07
5.77282e-08
4.92091e-08
1.63516e-07
2.97458e-08
5.78358e-08
2.57926e-07
4.90533e-08
2.84868e-07
4.73871e-07
1.7789e-07
6.78992e-08
4.7456e-07
6.77532e-08
2.8718e-07
2.81158e-07
4.75648e-07
1.81096e-07
6.90517e-08
6.89844e-08
4.78709e-07
2.85439e-07
1.10522e-07
2.96957e-08
2.97981e-08
2.96753e-08
2.98124e-08
1.09248e-07
3.3057e-08
7.09876e-08
1.63664e-07
1.64792e-07
2.95604e-08
3.34501e-08
3.33849e-08
3.28843e-08
3.31794e-08
1.07746e-07
2.96564e-08
2.95248e-08
2.96983e-08
2.95288e-08
1.07826e-07
2.81739e-07
4.73038e-07
6.88554e-08
1.83851e-07
2.84261e-07
6.90269e-08
4.75087e-07
2.82274e-07
4.66343e-07
6.75876e-08
1.78218e-07
2.81478e-07
6.72719e-08
4.7375e-07
1.0817e-07
2.95412e-08
2.93401e-08
1.09061e-07
2.94478e-08
2.92003e-08
2.8281e-07
6.90677e-08
1.80992e-07
4.80928e-07
6.90197e-08
2.82559e-07
4.74009e-07
2.83046e-07
6.77047e-08
1.79698e-07
4.73197e-07
6.80116e-08
2.85011e-07
4.72672e-07
3.36899e-08
3.35795e-08
3.33828e-08
3.31557e-08
1.08667e-07
2.97647e-08
2.96711e-08
1.09831e-07
2.97373e-08
2.96779e-08
2.83967e-07
4.81682e-07
1.82346e-07
6.84626e-08
6.94282e-08
4.83236e-07
2.85294e-07
2.80985e-07
4.75221e-07
1.80337e-07
6.82381e-08
6.82593e-08
4.73874e-07
2.85707e-07
2.85539e-07
6.90679e-08
4.81961e-07
1.84765e-07
2.85795e-07
6.86557e-08
4.82058e-07
2.85063e-07
6.82578e-08
4.66484e-07
1.8112e-07
2.83997e-07
6.80773e-08
4.72466e-07
1.10331e-07
2.97789e-08
2.9756e-08
2.97875e-08
2.97553e-08
1.08937e-07
5.43082e-07
1.17495e-06
7.28833e-07
7.21722e-07
7.37467e-07
7.21375e-07
5.37073e-07
5.35995e-07
1.16312e-06
7.28627e-07
7.16854e-07
7.30412e-07
7.37148e-07
5.4229e-07
5.38723e-07
7.31529e-07
7.35416e-07
1.14363e-06
5.41877e-07
7.24417e-07
7.2198e-07
5.43835e-07
1.16162e-06
7.32791e-07
7.26335e-07
7.41587e-07
7.2737e-07
5.45279e-07
1.81738e-06
1.83136e-06
8.55524e-07
6.37287e-07
3.31561e-07
4.78654e-07
6.48651e-07
4.78008e-07
8.35458e-07
8.36729e-07
6.27491e-07
3.23539e-07
4.5882e-07
6.42077e-07
4.63942e-07
8.2471e-07
8.83923e-07
6.33139e-07
5.79673e-07
9.21054e-07
5.81621e-07
9.47432e-07
8.64508e-07
8.46127e-07
6.34396e-07
3.26585e-07
4.68788e-07
4.71731e-07
6.4746e-07
8.34289e-07
8.8e-07
6.38514e-07
9.28412e-07
5.88959e-07
9.55892e-07
5.88636e-07
8.7595e-07
8.43961e-07
6.43562e-07
3.27862e-07
4.68352e-07
6.41826e-07
4.69137e-07
8.32846e-07
5.38408e-07
1.16949e-06
7.22362e-07
7.15185e-07
5.45989e-07
7.39838e-07
7.30753e-07
5.44385e-07
1.14123e-06
7.37022e-07
7.40656e-07
5.45679e-07
7.19857e-07
7.25781e-07
1.67811e-06
1.16456e-06
1.18177e-06
1.15672e-06
1.67978e-06
1.18063e-06
1.19726e-06
1.16317e-06
1.67534e-06
1.16661e-06
1.20003e-06
1.15881e-06
1.67926e-06
1.19386e-06
1.19573e-06
1.16431e-06
1.64276e-06
1.18211e-06
1.18792e-06
1.16235e-06
1.65243e-06
1.19046e-06
1.18867e-06
1.1648e-06
1.63851e-06
1.17579e-06
1.18029e-06
1.16235e-06
1.65882e-06
1.18174e-06
1.18991e-06
1.14405e-06
1.6551e-06
1.17791e-06
1.18578e-06
1.15655e-06
1.63499e-06
1.16797e-06
1.16391e-06
1.16394e-06
1.65742e-06
1.17225e-06
1.17312e-06
1.1387e-06
1.66095e-06
1.17419e-06
1.16683e-06
1.16379e-06
1.63865e-06
1.17991e-06
1.17812e-06
1.15846e-06
1.6488e-06
1.16672e-06
1.18353e-06
1.14192e-06
1.66675e-06
1.14116e-06
1.14988e-06
1.15572e-06
1.65419e-06
1.17645e-06
1.15511e-06
1.15725e-06
1.61719e-06
1.15035e-06
1.16244e-06
1.15243e-06
1.18312e-06
1.18837e-06
1.17898e-06
1.16605e-06
1.16632e-06
1.14517e-06
1.17498e-06
1.16949e-06
1.18396e-06
1.18487e-06
1.15711e-06
1.16711e-06
1.15485e-06
1.17414e-06
1.13218e-06
1.17164e-06
1.19491e-06
1.16864e-06
1.12913e-06
1.1806e-06
1.13154e-06
1.18249e-06
1.18406e-06
1.18657e-06
1.17507e-06
1.17308e-06
1.13052e-06
1.18532e-06
1.18328e-06
1.16943e-06
1.18426e-06
1.15013e-06
1.1847e-06
1.1701e-06
1.18178e-06
1.13744e-06
1.16712e-06
1.1976e-06
1.17199e-06
1.12776e-06
1.16007e-06
1.13173e-06
1.18566e-06
1.15639e-06
1.17472e-06
1.17101e-06
1.15412e-06
1.1335e-06
1.16879e-06
1.18128e-06
1.17852e-06
1.17437e-06
1.16642e-06
1.174e-06
1.1692e-06
1.15994e-06
1.14231e-06
1.17302e-06
1.19245e-06
1.18261e-06
1.11713e-06
1.17644e-06
1.13488e-06
1.15445e-06
1.15173e-06
1.15013e-06
1.1738e-06
1.14751e-06
1.14113e-06
1.16856e-06
1.17496e-06
1.15723e-06
1.16939e-06
1.16721e-06
1.18796e-06
1.15716e-06
1.17633e-06
1.14677e-06
1.17832e-06
1.19371e-06
1.18129e-06
1.13413e-06
1.15447e-06
1.12011e-06
1.17088e-06
1.16352e-06
1.17227e-06
1.17976e-06
1.17414e-06
1.14184e-06
1.17483e-06
1.16176e-06
1.17124e-06
1.18582e-06
1.16565e-06
1.18843e-06
1.16082e-06
1.17038e-06
1.15583e-06
1.1646e-06
1.19073e-06
1.17318e-06
1.1146e-06
1.14968e-06
1.11686e-06
1.1729e-06
1.18229e-06
1.16559e-06
1.16991e-06
1.1783e-06
1.13862e-06
1.16291e-06
1.18827e-06
1.17304e-06
1.18837e-06
1.15728e-06
1.18002e-06
1.17286e-06
1.1832e-06
1.14519e-06
1.18049e-06
1.18877e-06
1.16176e-06
1.13128e-06
1.14774e-06
1.13697e-06
1.16149e-06
1.17689e-06
1.16002e-06
1.16086e-06
1.16886e-06
1.14023e-06
1.1783e-06
1.16448e-06
1.16192e-06
1.18925e-06
1.17225e-06
1.17761e-06
1.17579e-06
1.15753e-06
1.14743e-06
1.16991e-06
1.19633e-06
1.15275e-06
1.12145e-06
1.14853e-06
1.13354e-06
1.17164e-06
1.18234e-06
1.17117e-06
1.16603e-06
1.16988e-06
1.14126e-06
1.17215e-06
1.19252e-06
1.1678e-06
1.19257e-06
1.17754e-06
1.18027e-06
1.17606e-06
1.15732e-06
1.14512e-06
1.15499e-06
1.18728e-06
1.16732e-06
1.12941e-06
1.14608e-06
1.1306e-06
1.17406e-06
1.16362e-06
1.15651e-06
1.18746e-06
1.17334e-06
1.13741e-06
1.16925e-06
1.19377e-06
1.17184e-06
1.16924e-06
1.17849e-06
1.1585e-06
1.17186e-06
1.1791e-06
1.12032e-06
1.17213e-06
1.17233e-06
1.17951e-06
1.12231e-06
1.16468e-06
1.14235e-06
1.17766e-06
1.18135e-06
1.15758e-06
1.1812e-06
1.15878e-06
1.14378e-06
1.17418e-06
1.18755e-06
1.15692e-06
1.17344e-06
1.17367e-06
1.17083e-06
1.146e-06
1.17162e-06
1.15175e-06
1.18197e-06
1.17305e-06
1.16725e-06
1.11754e-06
1.17362e-06
1.13265e-06
1.17197e-06
1.17972e-06
1.17704e-06
1.16858e-06
1.17102e-06
1.14417e-06
1.15286e-06
1.18138e-06
1.16892e-06
1.1819e-06
1.16589e-06
1.18016e-06
1.14925e-06
1.16686e-06
1.12975e-06
1.16339e-06
1.17092e-06
1.17216e-06
1.13121e-06
1.16274e-06
1.13906e-06
1.17942e-06
1.19041e-06
1.15047e-06
1.19697e-06
1.17349e-06
1.15084e-06
1.17443e-06
1.17234e-06
1.1716e-06
1.16193e-06
1.16842e-06
1.18189e-06
1.1593e-06
1.17912e-06
1.14733e-06
1.17357e-06
1.17525e-06
1.17346e-06
1.13097e-06
1.17001e-06
1.13734e-06
1.16672e-06
1.19356e-06
1.16995e-06
1.17969e-06
1.17978e-06
1.13007e-06
1.17417e-06
1.18427e-06
1.17933e-06
1.16604e-06
1.15421e-06
1.17238e-06
1.18072e-06
1.18079e-06
1.14779e-06
1.15858e-06
1.18446e-06
1.18109e-06
1.11949e-06
1.16058e-06
1.11813e-06
1.17726e-06
1.19282e-06
1.15937e-06
1.18588e-06
1.15254e-06
1.13564e-06
1.17599e-06
1.17049e-06
1.17951e-06
1.17259e-06
1.16637e-06
1.1441e-06
1.17388e-06
1.16663e-06
1.14096e-06
1.18271e-06
1.17e-06
1.16263e-06
1.10871e-06
1.16245e-06
1.12265e-06
1.17451e-06
1.17415e-06
1.17823e-06
1.18556e-06
1.1681e-06
1.12835e-06
1.1835e-06
1.16158e-06
1.16325e-06
1.14991e-06
1.1568e-06
1.15548e-06
1.17821e-06
1.15049e-06
1.12936e-06
1.16753e-06
1.16271e-06
1.1473e-06
1.12397e-06
1.15116e-06
1.13251e-06
1.1845e-06
1.19083e-06
1.18001e-06
1.19541e-06
1.1753e-06
1.13601e-06
1.15782e-06
1.16974e-06
1.14847e-06
1.18583e-06
1.18148e-06
1.16334e-06
1.17827e-06
1.1746e-06
1.12712e-06
1.16855e-06
1.17631e-06
1.16875e-06
1.12365e-06
1.16653e-06
1.17964e-06
1.19744e-06
1.15827e-06
1.16446e-06
1.1775e-06
1.17816e-06
1.17988e-06
1.15639e-06
1.16895e-06
1.15923e-06
1.13013e-06
3.12593e-07
7.1733e-08
3.09004e-07
7.12089e-08
3.35891e-08
3.35804e-08
3.06707e-07
6.95191e-08
3.0169e-07
6.98229e-08
1.67008e-06
1.67298e-06
1.66497e-06
1.67872e-06
1.66307e-06
1.64425e-06
1.65708e-06
6.38242e-07
3.28231e-07
1.31688e-06
1.1633e-06
3.30446e-07
1.32275e-06
6.40441e-07
3.32775e-08
3.37169e-08
6.49721e-07
1.35427e-06
3.30584e-07
1.18045e-06
1.33742e-06
3.34879e-07
6.4931e-07
1.76969e-07
1.79487e-07
1.10765e-06
1.78131e-07
1.81877e-07
3.12571e-07
7.088e-08
3.12357e-07
7.06397e-08
3.38983e-08
3.38775e-08
3.05075e-07
7.03571e-08
3.01536e-07
7.04048e-08
1.67092e-06
1.67451e-06
1.63851e-06
1.66899e-06
1.6341e-06
1.67876e-06
1.65479e-06
6.4182e-07
3.28215e-07
1.33069e-06
1.17292e-06
6.35058e-07
3.25713e-07
1.33264e-06
3.42322e-08
3.4274e-08
6.46434e-07
1.32795e-06
3.34998e-07
1.18755e-06
6.40913e-07
1.34787e-06
3.35893e-07
1.78317e-07
1.80283e-07
1.11427e-06
1.77727e-07
1.81052e-07
3.13024e-07
7.13837e-08
3.08914e-07
7.09089e-08
3.39072e-08
3.38448e-08
3.06141e-07
7.01589e-08
3.03313e-07
7.04102e-08
1.64869e-06
1.67705e-06
1.66095e-06
1.67935e-06
1.66116e-06
1.65707e-06
1.67068e-06
6.40867e-07
3.28067e-07
1.31123e-06
1.18279e-06
6.31784e-07
3.22892e-07
1.33458e-06
3.43401e-08
3.43192e-08
6.43847e-07
1.34334e-06
3.30627e-07
1.20153e-06
6.4907e-07
1.32315e-06
3.32167e-07
1.77641e-07
1.80635e-07
1.12058e-06
1.77909e-07
1.80166e-07
3.1123e-07
7.05781e-08
3.13619e-07
7.09105e-08
3.38437e-08
3.39086e-08
3.03265e-07
7.01673e-08
3.00858e-07
7.04323e-08
1.66744e-06
1.64498e-06
1.67317e-06
1.6724e-06
1.66073e-06
1.66685e-06
1.65856e-06
6.35499e-07
3.26714e-07
1.32444e-06
1.19068e-06
6.41693e-07
3.3129e-07
1.32191e-06
3.45357e-08
3.4561e-08
6.44095e-07
1.34637e-06
3.3108e-07
1.19464e-06
6.53055e-07
1.34592e-06
3.35956e-07
1.78139e-07
1.78737e-07
1.11489e-06
1.77705e-07
1.77875e-07
3.12523e-07
7.09244e-08
3.08458e-07
7.07783e-08
3.4022e-08
3.36531e-08
3.04432e-07
7.04944e-08
2.99736e-07
7.04254e-08
1.65854e-06
1.6554e-06
1.6446e-06
1.6366e-06
1.67461e-06
1.64294e-06
1.63705e-06
6.38073e-07
3.27206e-07
1.32417e-06
1.16478e-06
6.43299e-07
3.29087e-07
1.29684e-06
3.45131e-08
3.42061e-08
6.53401e-07
1.32835e-06
3.36378e-07
1.19063e-06
6.51157e-07
1.32716e-06
3.32748e-07
1.77489e-07
1.78075e-07
1.11646e-06
1.78308e-07
1.7906e-07
3.12756e-07
7.04641e-08
3.14134e-07
7.05603e-08
3.38926e-08
3.35812e-08
3.03814e-07
6.96781e-08
3.03162e-07
7.04054e-08
1.64771e-06
1.66189e-06
1.655e-06
1.65685e-06
1.67622e-06
1.66334e-06
1.65915e-06
6.3238e-07
3.26499e-07
1.31535e-06
1.17419e-06
6.4143e-07
3.30795e-07
1.32227e-06
3.39274e-08
3.39889e-08
6.54089e-07
1.31867e-06
3.30574e-07
1.19499e-06
6.4364e-07
1.3219e-06
3.34638e-07
1.77051e-07
1.79321e-07
1.13848e-06
1.77321e-07
1.79346e-07
3.1386e-07
7.03843e-08
3.11894e-07
7.04742e-08
3.35664e-08
3.37164e-08
3.07059e-07
7.04629e-08
3.04198e-07
7.0427e-08
1.67948e-06
1.66337e-06
1.63527e-06
1.66446e-06
1.64285e-06
1.67225e-06
1.65398e-06
6.39215e-07
3.26759e-07
1.31873e-06
1.161e-06
6.35871e-07
3.29297e-07
1.32444e-06
3.40028e-08
3.37076e-08
6.56498e-07
1.31781e-06
3.33623e-07
1.2017e-06
6.47159e-07
1.33065e-06
3.33071e-07
1.76293e-07
1.76634e-07
1.12291e-06
1.77211e-07
1.78422e-07
3.15549e-07
7.03984e-08
3.10619e-07
7.06834e-08
3.35999e-08
3.36957e-08
3.04819e-07
7.01412e-08
3.03068e-07
7.03511e-08
1.66248e-06
1.64298e-06
1.64653e-06
1.64766e-06
1.6417e-06
1.67354e-06
1.64714e-06
6.44972e-07
3.25573e-07
1.32747e-06
1.17882e-06
6.459e-07
3.22072e-07
1.32622e-06
3.3804e-08
3.35916e-08
6.56318e-07
1.33614e-06
3.28275e-07
1.18692e-06
6.48451e-07
1.3334e-06
3.30082e-07
1.77038e-07
1.77274e-07
1.13002e-06
1.76932e-07
1.77455e-07
3.09979e-07
7.07013e-08
3.14415e-07
7.05066e-08
3.38672e-08
3.38985e-08
3.03297e-07
7.0493e-08
3.03649e-07
7.0549e-08
1.66682e-06
1.67556e-06
1.6239e-06
1.65627e-06
1.6572e-06
1.63929e-06
1.65433e-06
6.32435e-07
3.27467e-07
1.29603e-06
1.15891e-06
6.37276e-07
3.26959e-07
1.31467e-06
3.36515e-08
3.36412e-08
6.49755e-07
1.3213e-06
3.30252e-07
1.1868e-06
6.58127e-07
1.33804e-06
3.32148e-07
1.762e-07
1.77215e-07
1.12879e-06
1.77956e-07
1.79116e-07
3.12268e-07
7.03765e-08
3.14048e-07
7.05108e-08
3.41415e-08
3.42113e-08
3.07336e-07
7.04055e-08
3.02121e-07
6.99801e-08
1.65397e-06
1.66623e-06
1.6567e-06
1.65051e-06
1.64849e-06
1.6501e-06
1.63085e-06
6.34634e-07
3.24372e-07
1.32576e-06
1.15229e-06
6.39832e-07
3.25158e-07
1.32784e-06
3.36227e-08
3.34983e-08
6.5387e-07
1.32233e-06
3.30571e-07
1.18463e-06
6.47165e-07
1.30503e-06
3.31338e-07
1.76253e-07
1.76787e-07
1.12873e-06
1.76822e-07
1.77862e-07
3.1163e-07
7.04086e-08
3.11974e-07
7.02428e-08
3.40443e-08
3.38973e-08
3.06108e-07
6.96477e-08
3.03802e-07
6.99288e-08
1.64509e-06
1.66037e-06
1.62804e-06
1.63125e-06
1.67011e-06
1.66589e-06
1.63494e-06
6.37345e-07
3.25398e-07
1.30297e-06
1.17344e-06
6.3814e-07
3.29332e-07
1.29114e-06
3.38174e-08
3.35281e-08
6.41785e-07
1.3316e-06
3.26772e-07
1.17171e-06
6.48162e-07
1.32962e-06
3.29339e-07
1.77406e-07
1.78581e-07
1.12372e-06
1.77469e-07
1.79632e-07
3.11508e-07
7.03388e-08
3.11577e-07
7.0685e-08
3.37674e-08
3.3809e-08
3.07486e-07
6.97982e-08
3.04497e-07
7.04208e-08
1.66527e-06
1.66716e-06
1.63521e-06
1.64595e-06
1.6412e-06
1.65884e-06
1.66412e-06
6.4597e-07
3.23474e-07
1.32222e-06
1.18096e-06
6.44972e-07
3.29209e-07
1.32479e-06
3.36131e-08
3.35751e-08
6.55392e-07
1.31156e-06
3.27902e-07
1.16118e-06
6.55731e-07
1.3032e-06
3.28864e-07
1.75566e-07
1.78275e-07
1.13141e-06
1.775e-07
1.76242e-07
3.1383e-07
7.05994e-08
3.15656e-07
7.10419e-08
3.37237e-08
3.38014e-08
3.09165e-07
7.00539e-08
3.07309e-07
7.01136e-08
1.67013e-06
1.66224e-06
1.65625e-06
1.65828e-06
1.64466e-06
1.63205e-06
1.6328e-06
6.30046e-07
3.26492e-07
1.32598e-06
1.16706e-06
6.40252e-07
3.28628e-07
1.32511e-06
3.34944e-08
3.31978e-08
6.53013e-07
1.32174e-06
3.30861e-07
1.18367e-06
6.58086e-07
1.32791e-06
3.32579e-07
1.75244e-07
1.78373e-07
1.13373e-06
1.77053e-07
1.77953e-07
3.17038e-07
7.10414e-08
3.13623e-07
7.10445e-08
3.3594e-08
3.3654e-08
3.10347e-07
7.01854e-08
3.07039e-07
7.05905e-08
1.6379e-06
1.65832e-06
1.66218e-06
1.67059e-06
1.63806e-06
1.65617e-06
1.6448e-06
6.37282e-07
3.24608e-07
1.30299e-06
1.16721e-06
6.35308e-07
3.28728e-07
1.32604e-06
3.36443e-08
3.34195e-08
6.51564e-07
1.30894e-06
3.28437e-07
1.1844e-06
6.50621e-07
1.33018e-06
3.3145e-07
1.77276e-07
1.77282e-07
1.1129e-06
1.77587e-07
1.78691e-07
3.14626e-07
7.0572e-08
3.16154e-07
7.05852e-08
3.38213e-08
3.38842e-08
3.07502e-07
7.07489e-08
3.03115e-07
7.08423e-08
1.64694e-06
1.63034e-06
1.65279e-06
1.67138e-06
1.66843e-06
1.64499e-06
1.64923e-06
6.31577e-07
3.27364e-07
1.3188e-06
1.15528e-06
6.45786e-07
3.30036e-07
1.30327e-06
3.36267e-08
3.35525e-08
6.50124e-07
1.30918e-06
3.32038e-07
1.17042e-06
6.53843e-07
1.33056e-06
3.33604e-07
1.75706e-07
1.75099e-07
1.10253e-06
1.77784e-07
1.78279e-07
3.17729e-07
7.05621e-08
3.15286e-07
7.09035e-08
3.39972e-08
3.37292e-08
3.06358e-07
7.01307e-08
3.04402e-07
7.06495e-08
1.67154e-06
1.63258e-06
1.64427e-06
1.63387e-06
1.67512e-06
1.63728e-06
1.65113e-06
6.43289e-07
3.28535e-07
1.32314e-06
1.16571e-06
6.39078e-07
3.29216e-07
1.3169e-06
3.38421e-08
3.35572e-08
6.52194e-07
1.32895e-06
3.2859e-07
1.17865e-06
6.51005e-07
1.32617e-06
3.31592e-07
1.7448e-07
1.76261e-07
1.13009e-06
1.77132e-07
1.79223e-07
3.16253e-07
7.07763e-08
3.16304e-07
7.07872e-08
3.37956e-08
3.38244e-08
3.05297e-07
7.0017e-08
3.00105e-07
7.0184e-08
1.67724e-06
1.66484e-06
1.62699e-06
1.64482e-06
6.47089e-07
3.26012e-07
1.32299e-06
1.16864e-06
6.36996e-07
3.29117e-07
1.32281e-06
3.37413e-08
3.38505e-08
6.55603e-07
1.30967e-06
3.33342e-07
1.18406e-06
6.44979e-07
1.3321e-06
3.31358e-07
1.76532e-07
1.76778e-07
1.11736e-06
1.75236e-07
1.79061e-07
3.13592e-07
7.17865e-08
7.13921e-08
3.09002e-07
6.38748e-07
3.31066e-07
1.29479e-06
1.15705e-06
1.28815e-06
6.42761e-07
3.34859e-07
6.458e-07
3.31203e-07
1.28918e-06
1.18975e-06
3.35666e-07
1.30689e-06
6.44331e-07
3.08845e-07
7.13031e-08
3.13906e-07
7.19476e-08
3.13664e-07
7.1793e-08
7.22726e-08
3.14606e-07
6.4395e-07
1.17285e-06
3.34864e-07
1.29818e-06
1.27422e-06
6.39771e-07
3.32905e-07
6.48468e-07
1.1866e-06
3.37331e-07
1.3164e-06
3.32262e-07
1.31304e-06
6.3857e-07
1.80602e-07
1.79542e-07
1.13341e-06
1.81168e-07
1.76543e-07
3.32083e-08
3.32621e-08
3.38749e-08
3.35814e-08
1.15918e-06
1.8268e-07
1.80119e-07
1.81409e-07
1.79285e-07
3.33373e-08
3.32817e-08
6.36309e-07
3.2041e-07
1.31826e-06
1.16677e-06
1.32137e-06
6.38088e-07
3.27797e-07
3.0253e-07
7.092e-08
7.16185e-08
3.03656e-07
6.36925e-07
1.30522e-06
3.2988e-07
1.18605e-06
1.32701e-06
3.34132e-07
6.39253e-07
3.05129e-07
7.0148e-08
3.07575e-07
6.97202e-08
6.36143e-07
1.18803e-06
3.275e-07
1.3229e-06
1.32331e-06
6.33604e-07
3.25538e-07
3.03659e-07
7.20719e-08
7.12054e-08
3.059e-07
6.36743e-07
1.18753e-06
1.32563e-06
3.35999e-07
1.30951e-06
3.28617e-07
6.26969e-07
3.12419e-07
7.09747e-08
7.09869e-08
3.09784e-07
6.41182e-07
1.32317e-06
3.28687e-07
1.16064e-06
1.31974e-06
3.30602e-07
6.40683e-07
3.06693e-07
7.08299e-08
7.03496e-08
3.06493e-07
6.42515e-07
1.18491e-06
3.30586e-07
1.32368e-06
3.28339e-07
1.32674e-06
6.42293e-07
3.11007e-07
7.08258e-08
7.11786e-08
3.11993e-07
6.37354e-07
1.15949e-06
1.31867e-06
3.24827e-07
1.32349e-06
3.28918e-07
6.41764e-07
3.09285e-07
7.0389e-08
7.11815e-08
3.1273e-07
1.80288e-07
1.81847e-07
1.14591e-06
1.83278e-07
1.84403e-07
3.31889e-08
3.36203e-08
3.40202e-08
3.37517e-08
1.17888e-06
1.84005e-07
1.85182e-07
1.81594e-07
1.83378e-07
3.37662e-08
3.35021e-08
6.58126e-07
1.33707e-06
3.32295e-07
1.17356e-06
1.30941e-06
3.33524e-07
6.50457e-07
3.17623e-07
7.12672e-08
7.09555e-08
3.16196e-07
3.19858e-07
7.10591e-08
7.16308e-08
3.19026e-07
6.53367e-07
1.17455e-06
1.34913e-06
3.36195e-07
1.35588e-06
3.35364e-07
6.34028e-07
6.6045e-07
1.17044e-06
1.31553e-06
3.35475e-07
1.33019e-06
3.30748e-07
6.49039e-07
3.13315e-07
7.1616e-08
7.19295e-08
3.15272e-07
3.1667e-07
7.17142e-08
7.15491e-08
3.19026e-07
3.30454e-08
3.32741e-08
3.28156e-08
3.32291e-08
1.15401e-06
1.79077e-07
1.82439e-07
1.7896e-07
1.80911e-07
3.32293e-08
3.31201e-08
3.35562e-08
3.32578e-08
3.34789e-08
3.32734e-08
3.3375e-08
3.31477e-08
1.82665e-07
1.79596e-07
1.12049e-06
1.80808e-07
1.79942e-07
3.34964e-08
3.34009e-08
3.34413e-08
3.33242e-08
1.16927e-06
1.82833e-07
1.8056e-07
1.82028e-07
1.80847e-07
3.12258e-07
7.163e-08
3.13166e-07
7.18058e-08
6.44904e-07
3.33939e-07
1.3007e-06
1.17275e-06
6.37181e-07
3.3299e-07
1.30919e-06
6.44549e-07
3.36607e-07
1.30759e-06
1.16327e-06
6.39387e-07
3.36442e-07
1.29941e-06
3.09946e-07
7.1386e-08
7.11872e-08
3.13794e-07
3.10375e-07
7.15535e-08
7.17178e-08
3.10162e-07
6.4514e-07
1.16626e-06
3.2984e-07
1.30968e-06
3.32971e-07
1.30644e-06
6.41961e-07
6.35931e-07
1.17383e-06
3.33771e-07
1.31988e-06
3.34754e-07
1.32249e-06
6.34059e-07
1.84469e-07
1.80697e-07
1.14692e-06
1.83114e-07
1.815e-07
3.34423e-08
3.36256e-08
3.38502e-08
3.3691e-08
1.16525e-06
1.84969e-07
1.82125e-07
1.84671e-07
1.81906e-07
3.37439e-08
3.36233e-08
6.28776e-07
3.24013e-07
1.32414e-06
1.15606e-06
6.25746e-07
3.25417e-07
1.30317e-06
3.02231e-07
7.25374e-08
3.03148e-07
7.22078e-08
6.30706e-07
1.31984e-06
3.35045e-07
1.18138e-06
6.3685e-07
1.30265e-06
3.3356e-07
3.03629e-07
7.03634e-08
7.07065e-08
3.06654e-07
6.32067e-07
1.16995e-06
3.26843e-07
1.31859e-06
3.2525e-07
1.31931e-06
6.31519e-07
3.03596e-07
7.24211e-08
7.24722e-08
3.06675e-07
6.35104e-07
1.1793e-06
1.29585e-06
3.36413e-07
1.30138e-06
3.33503e-07
6.31554e-07
3.11042e-07
7.11173e-08
3.09174e-07
7.06769e-08
6.28423e-07
1.30146e-06
3.27303e-07
1.17151e-06
6.43622e-07
1.32358e-06
3.28913e-07
3.12868e-07
7.08812e-08
3.10756e-07
7.105e-08
6.36321e-07
1.19204e-06
3.29961e-07
1.31839e-06
3.27719e-07
1.32015e-06
6.41087e-07
3.07181e-07
7.08476e-08
7.10457e-08
3.08242e-07
6.39897e-07
1.16964e-06
1.30577e-06
3.29036e-07
1.31998e-06
3.2476e-07
6.37483e-07
3.10167e-07
7.12583e-08
7.13503e-08
3.07309e-07
1.84147e-07
1.84632e-07
1.14872e-06
1.85345e-07
1.84812e-07
3.35843e-08
3.38719e-08
3.41359e-08
3.42571e-08
1.18145e-06
1.85043e-07
1.84093e-07
1.84569e-07
1.82376e-07
3.38206e-08
3.37022e-08
6.42811e-07
1.32823e-06
3.31422e-07
1.1737e-06
6.58124e-07
1.33595e-06
3.32216e-07
3.16039e-07
7.16731e-08
3.12967e-07
7.19113e-08
3.18493e-07
7.10194e-08
3.17443e-07
7.12361e-08
6.47015e-07
1.18252e-06
1.3507e-06
3.32344e-07
1.34932e-06
3.32368e-07
6.486e-07
6.54521e-07
1.16586e-06
1.32661e-06
3.35552e-07
1.33685e-06
3.33945e-07
6.5319e-07
3.13493e-07
7.15143e-08
7.1849e-08
3.16692e-07
3.16018e-07
7.1937e-08
7.17124e-08
3.12849e-07
3.30498e-08
3.32336e-08
3.32124e-08
3.34612e-08
1.16356e-06
1.78752e-07
1.82392e-07
1.79699e-07
1.81774e-07
3.33893e-08
3.31912e-08
3.3587e-08
3.33213e-08
3.33262e-08
3.36605e-08
3.34054e-08
3.34983e-08
1.82919e-07
1.80222e-07
1.14895e-06
1.83931e-07
1.80477e-07
3.35727e-08
3.36292e-08
3.33512e-08
3.34456e-08
1.18231e-06
1.84418e-07
1.8011e-07
1.82946e-07
1.78685e-07
3.09516e-07
7.20715e-08
3.08439e-07
7.20734e-08
6.35398e-07
3.33623e-07
1.30457e-06
1.19016e-06
6.4921e-07
3.31893e-07
1.29979e-06
6.38871e-07
3.37221e-07
1.31913e-06
1.17312e-06
6.43168e-07
3.32702e-07
1.31371e-06
3.14277e-07
7.13054e-08
7.11478e-08
3.14556e-07
3.12799e-07
7.18083e-08
7.18467e-08
3.14343e-07
6.46498e-07
1.16871e-06
3.34292e-07
1.30994e-06
3.31006e-07
1.32201e-06
6.45575e-07
6.49648e-07
1.1794e-06
3.33951e-07
1.29706e-06
3.33085e-07
1.29966e-06
6.41076e-07
1.83883e-07
1.82671e-07
1.14189e-06
1.84051e-07
1.80619e-07
3.37972e-08
3.36617e-08
3.38672e-08
3.35668e-08
1.17501e-06
1.82364e-07
1.8144e-07
1.84091e-07
1.81748e-07
3.36053e-08
3.36808e-08
6.3394e-07
3.24842e-07
1.31112e-06
1.17579e-06
6.31301e-07
3.29002e-07
1.29576e-06
3.04934e-07
7.22345e-08
3.01048e-07
7.22089e-08
6.3185e-07
1.31873e-06
3.30054e-07
1.18206e-06
6.3169e-07
1.31945e-06
3.35989e-07
3.01235e-07
7.03761e-08
7.08049e-08
3.04226e-07
6.35302e-07
1.17428e-06
3.30112e-07
1.30429e-06
3.2868e-07
1.29149e-06
6.22832e-07
3.06359e-07
7.24973e-08
7.25868e-08
3.01868e-07
6.26177e-07
1.18273e-06
1.3126e-06
3.36219e-07
1.31997e-06
3.35803e-07
6.33058e-07
3.07934e-07
7.14904e-08
3.06254e-07
7.12408e-08
6.40612e-07
1.32666e-06
3.23347e-07
1.16502e-06
6.35525e-07
1.32722e-06
3.29674e-07
3.11298e-07
7.14458e-08
3.08923e-07
7.04521e-08
6.40575e-07
1.17924e-06
3.315e-07
1.32169e-06
3.25983e-07
1.31127e-06
6.36067e-07
3.09867e-07
7.09734e-08
7.16803e-08
3.11e-07
6.42725e-07
1.16348e-06
1.30247e-06
3.25582e-07
1.32804e-06
3.28404e-07
6.36372e-07
3.1031e-07
7.11892e-08
7.10967e-08
3.13478e-07
1.82784e-07
1.81258e-07
1.14353e-06
1.84968e-07
1.81217e-07
3.34895e-08
3.36053e-08
3.44445e-08
3.43237e-08
1.1551e-06
1.85473e-07
1.84039e-07
1.85601e-07
1.83231e-07
3.38189e-08
3.33876e-08
6.45354e-07
1.31879e-06
3.31553e-07
1.17142e-06
6.53131e-07
1.34039e-06
3.31581e-07
3.12682e-07
7.17722e-08
3.14287e-07
7.13705e-08
3.167e-07
7.17029e-08
3.14505e-07
7.17593e-08
6.44871e-07
1.19052e-06
1.34463e-06
3.33547e-07
1.34378e-06
3.32671e-07
6.43482e-07
6.47008e-07
1.16331e-06
1.33851e-06
3.33719e-07
1.33795e-06
3.34891e-07
6.55007e-07
3.15142e-07
7.20247e-08
7.08801e-08
3.18275e-07
3.14931e-07
7.19196e-08
7.20201e-08
3.16685e-07
3.32271e-08
3.31523e-08
3.33327e-08
3.3192e-08
1.14697e-06
1.80728e-07
1.7924e-07
1.77091e-07
1.80899e-07
3.33151e-08
3.3005e-08
3.34616e-08
3.32812e-08
3.34114e-08
3.33162e-08
3.34925e-08
3.35213e-08
1.83824e-07
1.79346e-07
1.11905e-06
1.81416e-07
1.78803e-07
3.33059e-08
3.3424e-08
3.33144e-08
3.35551e-08
1.15364e-06
1.82011e-07
1.78552e-07
1.82372e-07
1.81771e-07
3.14782e-07
7.22674e-08
3.13615e-07
7.24835e-08
6.40245e-07
3.3309e-07
1.28817e-06
1.17211e-06
6.39638e-07
3.28576e-07
1.29473e-06
6.50862e-07
3.30815e-07
1.29929e-06
1.16766e-06
6.41975e-07
3.35047e-07
1.2963e-06
3.13668e-07
7.009e-08
7.10174e-08
3.13955e-07
3.14849e-07
7.23891e-08
7.25546e-08
3.13597e-07
6.40939e-07
1.1683e-06
3.27816e-07
1.29614e-06
3.3156e-07
1.29943e-06
6.4998e-07
6.51286e-07
1.17501e-06
3.34898e-07
1.31036e-06
3.34172e-07
1.32024e-06
6.50162e-07
1.80775e-07
1.82132e-07
1.12338e-06
1.84568e-07
1.79837e-07
3.37254e-08
3.38035e-08
3.38853e-08
3.37312e-08
1.1653e-06
1.82303e-07
1.78275e-07
1.83928e-07
1.81501e-07
3.36084e-08
3.34382e-08
6.23387e-07
3.25275e-07
1.31206e-06
1.17135e-06
6.2715e-07
3.30078e-07
1.30788e-06
3.06257e-07
7.26816e-08
3.02132e-07
7.25162e-08
6.32756e-07
1.29741e-06
3.31771e-07
1.17057e-06
6.2655e-07
1.29716e-06
3.32113e-07
3.00067e-07
7.04055e-08
7.06627e-08
3.05913e-07
6.28406e-07
1.17448e-06
3.3003e-07
1.28836e-06
3.2789e-07
1.29549e-06
6.31057e-07
3.04957e-07
7.28754e-08
7.30615e-08
3.06049e-07
6.33892e-07
1.17066e-06
1.31431e-06
3.37035e-07
1.29178e-06
3.35435e-07
6.36484e-07
3.08243e-07
7.17763e-08
3.09585e-07
7.18173e-08
6.42411e-07
1.311e-06
3.2887e-07
1.1514e-06
6.35757e-07
1.28924e-06
3.29127e-07
3.11857e-07
7.1368e-08
3.1215e-07
7.04555e-08
6.44174e-07
1.17124e-06
3.25393e-07
1.32318e-06
3.26822e-07
1.32716e-06
6.42843e-07
3.08177e-07
7.16649e-08
7.20209e-08
3.09913e-07
6.42284e-07
1.17135e-06
1.31134e-06
3.29607e-07
1.31143e-06
3.26323e-07
6.40439e-07
3.10295e-07
7.11223e-08
7.11976e-08
3.12233e-07
1.86003e-07
1.845e-07
1.14577e-06
1.85811e-07
1.83246e-07
3.38583e-08
3.38666e-08
3.44645e-08
3.44753e-08
1.17844e-06
1.84247e-07
1.82527e-07
1.85824e-07
1.84986e-07
3.39915e-08
3.35792e-08
6.5363e-07
1.33361e-06
3.33102e-07
1.16239e-06
6.57286e-07
1.33725e-06
3.32317e-07
3.19996e-07
7.20487e-08
3.17227e-07
7.22173e-08
3.18648e-07
7.19727e-08
3.15633e-07
7.15101e-08
6.53898e-07
1.17524e-06
1.32731e-06
3.37552e-07
1.3151e-06
3.31805e-07
6.50855e-07
6.54226e-07
1.18275e-06
1.33995e-06
3.3305e-07
1.3382e-06
3.28835e-07
6.53196e-07
3.1913e-07
7.19972e-08
7.15309e-08
3.15642e-07
3.14291e-07
7.14315e-08
7.15577e-08
3.17713e-07
3.32774e-08
3.3323e-08
3.33469e-08
3.33874e-08
1.16132e-06
1.79274e-07
1.7957e-07
1.7782e-07
1.80996e-07
3.34462e-08
3.32631e-08
3.33717e-08
3.33525e-08
3.34656e-08
3.34944e-08
3.3397e-08
3.33291e-08
1.82571e-07
1.80769e-07
1.13962e-06
1.81311e-07
1.78515e-07
3.33619e-08
3.3131e-08
3.33545e-08
3.33692e-08
1.16947e-06
1.80872e-07
1.77974e-07
1.78489e-07
1.80407e-07
3.11348e-07
7.2435e-08
3.13642e-07
7.22333e-08
6.47031e-07
3.31484e-07
1.29742e-06
1.1724e-06
6.52548e-07
3.31803e-07
1.30246e-06
6.4978e-07
3.38713e-07
1.2929e-06
1.18426e-06
6.53223e-07
3.34344e-07
1.3103e-06
3.11331e-07
7.04761e-08
7.04049e-08
3.14874e-07
3.15307e-07
7.13884e-08
7.25665e-08
3.11236e-07
6.51424e-07
1.16313e-06
3.29226e-07
1.32101e-06
3.31681e-07
1.29845e-06
6.50939e-07
6.5222e-07
1.16635e-06
3.32231e-07
1.3016e-06
3.38639e-07
1.30677e-06
6.48931e-07
1.84205e-07
1.81471e-07
1.1187e-06
1.82917e-07
1.80255e-07
3.37678e-08
3.36771e-08
3.35827e-08
3.38934e-08
1.16647e-06
1.81115e-07
1.78458e-07
1.8397e-07
1.79179e-07
3.36781e-08
3.34507e-08
6.2721e-07
3.25154e-07
1.31192e-06
1.17675e-06
6.3191e-07
3.25743e-07
1.3091e-06
3.07578e-07
7.23665e-08
3.04845e-07
7.17463e-08
6.31818e-07
1.31719e-06
3.35444e-07
1.18352e-06
6.36097e-07
1.30654e-06
3.31838e-07
3.02858e-07
7.03422e-08
7.06609e-08
3.02728e-07
6.27731e-07
1.17205e-06
3.27115e-07
1.29381e-06
3.23309e-07
1.30149e-06
6.34683e-07
3.05975e-07
7.22521e-08
7.27074e-08
3.08586e-07
6.3501e-07
1.18117e-06
1.30742e-06
3.34407e-07
1.30362e-06
3.34173e-07
6.38061e-07
3.11669e-07
7.12893e-08
3.0667e-07
7.08349e-08
6.30539e-07
1.31292e-06
3.25523e-07
1.1653e-06
6.3155e-07
1.29122e-06
3.23096e-07
3.13652e-07
7.13209e-08
3.11124e-07
7.03577e-08
6.39037e-07
1.18569e-06
3.32216e-07
1.31551e-06
3.27513e-07
1.31389e-06
6.39531e-07
3.10019e-07
7.15105e-08
7.17309e-08
3.11879e-07
6.37481e-07
1.1645e-06
1.31418e-06
3.25416e-07
1.30741e-06
3.25926e-07
6.29712e-07
3.11807e-07
7.01675e-08
7.09002e-08
3.13329e-07
1.85001e-07
1.85486e-07
1.14971e-06
1.81505e-07
1.83996e-07
3.3963e-08
3.38653e-08
3.41847e-08
3.42171e-08
1.16924e-06
1.82219e-07
1.83304e-07
1.84625e-07
1.84796e-07
3.35669e-08
3.38194e-08
6.52274e-07
1.33543e-06
3.3154e-07
1.18302e-06
6.55081e-07
1.33513e-06
3.26453e-07
3.17413e-07
7.15632e-08
3.17421e-07
7.20059e-08
3.18384e-07
7.0738e-08
3.13323e-07
7.114e-08
6.46022e-07
1.18994e-06
1.33847e-06
3.35399e-07
1.31653e-06
3.30212e-07
6.52803e-07
6.4777e-07
1.18272e-06
1.33186e-06
3.32029e-07
1.31474e-06
3.29623e-07
6.53261e-07
3.12777e-07
7.17671e-08
7.14209e-08
3.14737e-07
3.18009e-07
7.12007e-08
7.06999e-08
3.17162e-07
3.32055e-08
3.3338e-08
3.29813e-08
3.32465e-08
1.16397e-06
1.78253e-07
1.7836e-07
1.79517e-07
1.77756e-07
3.33358e-08
3.31435e-08
3.32841e-08
3.29372e-08
3.32364e-08
3.33428e-08
3.31623e-08
3.32776e-08
1.80123e-07
1.77706e-07
1.13042e-06
1.80697e-07
1.76788e-07
3.32383e-08
3.32072e-08
3.33408e-08
3.31488e-08
1.15428e-06
1.81359e-07
1.78649e-07
1.81423e-07
1.80544e-07
3.13603e-07
7.19694e-08
3.14467e-07
7.19366e-08
6.49806e-07
3.32582e-07
1.31238e-06
1.17299e-06
6.52207e-07
3.29548e-07
1.3158e-06
6.4586e-07
3.3562e-07
1.325e-06
1.1774e-06
6.48176e-07
3.32354e-07
1.328e-06
3.15511e-07
7.07793e-08
7.08587e-08
3.16115e-07