/*--------------------------------*- C++ -*----------------------------------*\
| =========                 |                                                 |
| \\      /  F ield         | OpenFOAM: The Open Source CFD Toolbox           |
|  \\    /   O peration     | Version:  2206                                  |
|   \\  /    A nd           | Website:  www.openfoam.com                      |
|    \\/     M anipulation  |                                                 |
\*---------------------------------------------------------------------------*/
FoamFile
{
    version     2.0;
    format      ascii;
    arch        "LSB;label=32;scalar=64";
    class       volScalarField;
    location    "100";
    object      omega;
}
// * * * * * * * * * * * * * * * * * * * * * * * * * * * * * * * * * * * * * //

dimensions      [0 0 -1 0 0 0 0];

internalField   nonuniform List<scalar> 
66928
(
27.5128
24.2075
25.0604
24.1904
27.5663
23.6715
26.6047
27.9356
17.8496
18.0323
401.172
404.906
190.224
192.125
295.764
121.514
298.354
134.247
126.238
20.4147
54.5393
298.006
128.658
20.7803
125.53
53.9134
406.145
190.968
189.413
402.379
121.725
295.955
401.92
401.264
404.156
402.797
183.858
187.846
27.8712
190.859
192.396
401.404
402.255
403.024
403.696
26.3557
190.854
192.999
188.889
189.397
401.592
144.153
81.982
189.241
306.17
306.882
80.1028
142.062
141.426
83.92
187.554
307.5
307.993
77.2189
138.126
240.327
406.307
407.158
407.529
408.322
239.754
295.63
200.083
198.987
417.864
198.859
422.863
151.229
310.189
330.864
200.336
422.655
310.317
150.087
331.677
141.227
83.4151
189.353
307.335
76.7579
308.189
137.849
144.161
81.7527
188.333
306.283
307.006
79.7848
141.991
239.696
407.199
406.421
408.503
407.716
239.98
403.9
296.187
198.818
197.702
420.853
401.339
401.228
403.182
402.933
241.456
405.075
405.918
405.3
407.115
239.728
148.279
77.9193
305.856
188.018
142.478
305.578
75.4173
148.388
82.193
307.447
191.707
146.477
307.102
83.5267
241.13
406.823
407.74
239.7
406.831
407.619
146.325
305.883
186.909
83.8247
306.079
144.11
82.1228
143.706
307.208
189.146
85.6178
307.193
146.121
83.6541
401.476
401.592
403.354
403.107
241.666
406.487
406.929
239.733
405.892
406.737
150.598
83.8106
186.881
305.928
306.051
81.9869
140.993
151.302
85.5823
191.433
307.582
307.544
83.5509
147.272
149.704
305.965
78.0501
187.551
144.208
305.855
77.3491
146.228
307.337
80.5679
190.858
146.849
307.144
82.8635
238.873
405.483
406.396
406.137
406.916
241.096
68.406
26.8015
42.512
43.2138
41.1949
39.6143
66.1881
69.5739
27.2399
43.087
42.5533
39.2162
41.6134
69.3821
74.1883
40.4611
42.6341
25.9648
72.8684
39.0459
43.4663
76.3252
27.4861
43.6439
44.1704
42.7322
43.1791
71.7485
16.6977
16.6948
34.9831
53.3288
120.184
77.242
52.5774
74.0429
33.8141
36.7336
54.5503
124.431
82.5027
53.1831
80.6331
37.4314
30.845
53.1021
60.2002
29.1976
60.782
28.6787
30.712
35.892
53.9364
117.891
83.0605
81.7812
52.3735
34.7382
30.8151
50.3225
28.9994
62.0279
28.5363
60.7699
30.6269
34.7724
52.8459
119.516
79.651
51.6353
78.1771
37.05
70.7243
27.494
43.704
44.4144
69.6289
42.9627
43.7935
75.3093
26.9654
40.7331
41.0358
75.3854
40.3477
40.7488
18.1017
25.8013
25.106
27.7966
18.3128
26.3131
25.982
28.1913
18.2799
26.434
25.8085
28.4611
18.2507
26.2387
25.7912
28.5995
18.2846
26.3643
25.8126
28.6993
18.3217
26.4991
26.0174
28.5845
18.3346
26.4556
26.0128
28.5618
18.2839
26.4237
26.104
28.7256
18.157
26.2848
25.9573
28.7081
18.3001
26.3046
25.8697
28.5123
18.2639
26.2744
25.7586
28.4325
18.2763
26.3313
25.9777
28.4177
18.2872
26.5068
25.808
28.4938
18.2594
26.3943
26.0157
28.7398
18.2875
26.3034
25.8697
28.6647
18.1286
26.2653
26.0347
28.6264
18.2548
26.2464
26.0288
28.6761
23.7174
25.4811
25.8845
25.8381
27.7376
27.9126
24.3261
25.6994
26.306
26.3333
25.893
25.1386
26.3377
26.8119
28.0254
25.1146
25.7164
25.5912
27.875
26.8408
28.0625
24.8936
25.2496
25.9399
25.8217
26.9997
27.9851
24.7748
25.3994
26.5919
26.1758
25.2007
25.2917
26.3215
26.2352
27.9328
24.73
25.4789
25.8773
27.399
26.9783
28.0761
24.0315
24.9068
26.0779
25.7332
27.3719
27.9322
25.9608
25.7558
26.3877
26.4109
25.3988
25.8741
26.4252
26.4016
27.8908
24.1334
25.4299
26.1193
28.362
27.0401
28.2294
25.3768
25.0764
25.9446
25.8458
27.0718
28.3906
25.487
24.8889
26.388
26.5223
24.8535
25.9891
26.603
26.7603
27.9756
25.5803
24.9038
25.8731
28.5343
27.5161
28.2306
24.8964
24.3396
25.9462
25.9029
27.6389
28.3715
25.5687
25.8718
26.7342
26.392
25.7971
25.2414
26.502
26.312
28.0868
24.2969
24.9204
26.2044
28.2981
26.9196
28.1955
24.2653
25.3207
26.2183
25.9978
27.857
28.2855
24.5899
25.6493
26.6601
26.3113
25.4084
25.1932
26.466
27.355
28.0175
25.4967
24.8698
26.0498
28.1323
26.6611
28.2069
25.6815
24.5393
25.9507
26.0256
27.4316
28.2381
24.9429
25.6893
26.8129
26.37
25.4989
26.1257
26.4157
26.6019
28.2421
24.1701
24.9819
26.1407
28.5914
26.6447
28.3933
25.2672
25.2208
25.9824
25.9155
27.6502
28.4618
25.0858
25.6277
26.4015
26.4664
25.5087
25.9332
26.5196
27.6932
28.2236
25.4463
25.5188
25.9582
27.6349
26.6473
28.3306
24.939
24.3547
25.9222
26.0859
27.6869
28.2391
25.6762
25.5839
26.618
26.7641
24.6212
25.9628
26.7145
27.0631
28.1402
25.0605
25.5404
26.1329
28.2643
27.2642
28.5118
25.1934
25.4839
26.1544
25.9048
27.3223
28.4595
25.6158
25.7386
26.4646
26.5064
26.1026
25.9322
26.3912
26.9996
28.0548
25.0112
25.4541
25.8227
28.1421
27.6379
28.4289
24.2338
25.3082
26.19
25.9536
27.7104
28.2113
25.5663
24.9632
26.7269
26.5059
25.8249
26.0255
26.445
26.7841
27.9188
24.8082
24.8385
25.7854
27.8904
27.6328
28.4844
25.4879
24.537
26.0643
25.9664
26.6647
28.3275
25.5406
25.8663
26.3744
26.4218
25.6149
25.3225
26.4525
27.0317
28.1208
24.8604
24.6043
25.846
28.1847
27.7948
28.5875
24.8725
25.3699
26.1042
25.9755
27.064
28.3075
25.1306
24.6829
26.4882
26.7526
25.2702
26.0943
26.5964
26.4029
28.184
25.1007
25.783
26.1821
28.6157
27.604
28.2768
24.9478
25.0024
25.9526
25.8164
26.5111
28.4264
24.7652
26.1656
26.6923
26.4637
24.8382
25.902
26.7582
27.5625
28.3767
25.0509
24.9141
25.8704
28.3751
27.3947
28.3028
25.0054
24.2925
25.9434
26.0951
27.7404
28.3981
24.9885
24.6359
26.3605
26.3281
25.4938
25.9243
26.5871
27.5218
28.2731
25.0838
24.9606
25.9344
28.3729
26.6082
28.197
24.4471
25.5188
25.9425
25.9677
27.6189
28.1662
25.6464
24.8452
26.3664
26.5712
24.8302
25.9103
26.6396
27.5734
28.1485
24.1136
24.9462
26.0765
27.6113
26.9915
25.0337
24.3008
27.5312
25.5568
25.7095
25.8563
26.5297
26.8032
24.4814
26.1657
28.2896
135.98
295.214
135.474
295.616
401.647
401.146
140.119
297.833
131.023
297.996
17.7736
17.9802
18.106
18.1179
18.0907
18.294
18.1391
56.1352
127.578
21.2761
24.2124
128.753
20.8411
56.011
403.463
402.859
53.45
20.6235
118.729
25.4107
20.4492
123.97
52.4735
194.429
189.844
27.9379
194.25
190.84
136.574
296.258
137.335
296.165
401.81
401.246
140.893
298.378
141.743
298.367
18.0861
18.2071
18.0585
18.0783
18.2389
18.239
18.2813
56.8345
129.819
21.3603
24.5448
56.6106
129.7
20.8229
402.959
402.963
54.1484
20.9495
125.46
24.8609
54.532
20.6155
126.101
194.304
192.318
28.2568
194.376
192.314
135.08
296.282
136.675
296.207
401.385
401.549
140.204
298.683
141.431
298.359
17.9825
18.1639
18.1035
18.2101
18.278
18.2726
18.3028
56.7265
130.236
21.4019
25.1119
57.1788
129.666
20.854
403.147
403.095
53.7949
21.0891
127.433
24.8199
54.2385
20.6674
126.688
194.889
192.462
28.409
194.849
192.539
135.876
296.535
135.876
296.369
401.721
401.586
141.79
298.694
142.243
298.404
18.152
17.9183
18.2585
18.0659
18.2782
18.2706
18.343
57.1903
130.824
21.4633
25.2476
57.2161
129.943
20.9084
403.175
402.677
53.9583
21.042
127.207
25.0475
54.2463
20.6824
127.056
194.533
193.175
28.4804
194.727
192.801
135.976
296.678
136.867
296.356
401.451
401.662
140.166
298.584
141.624
298.529
18.2182
18.1357
18.264
18.169
18.2733
18.2223
18.3301
57.1882
130.242
21.4665
25.5507
56.9216
129.33
21.0822
403.024
403.204
54.5699
21.0649
127.605
24.2116
55.5887
20.3824
127.26
194.46
192.637
28.4059
194.512
192.744
136.596
296.68
137.401
296.392
401.624
401.721
141.153
298.707
141.467
298.393
18.2173
18.039
18.2665
18.3296
18.2258
18.2098
18.3118
57.2297
130.86
21.5084
26.039
57.0784
129.906
21.2135
404.133
403.134
54.5287
21.1521
127.33
24.4237
54.8282
20.8649
126.834
194.953
192.986
28.5063
194.662
192.909
136.517
296.631
137.901
296.383
401.714
401.415
140.994
298.816
140.673
298.421
18.1191
17.987
18.0315
18.248
18.236
18.242
18.3253
56.8287
130.235
21.5042
25.8133
57.5977
129.99
20.9846
403.396
403.365
54.222
21.1283
127.358
24.28
54.2106
20.3477
126.911
195.081
193.715
28.3767
194.732
193.18
135.906
296.794
136.449
296.593
401.584
401.391
141.426
298.882
143.109
298.373
18.0666
18.0176
17.9385
18.266
18.1977
18.1392
18.2238
57.4425
130.286
21.4335
25.0591
57.6772
129.389
21.0432
403.544
403.391
53.8123
21.1929
128.447
24.5185
54.4724
20.6418
127.565
194.95
193.799
28.5007
194.401
192.994
136.439
296.48
136.664
296.332
401.698
401.629
140.644
298.82
141.927
298.526
17.8835
18.1574
18.1254
18.3003
18.0927
18.2669
18.2581
56.7356
130.777
21.4172
25.0125
57.3943
130.067
21.1585
403.241
403.205
54.5762
21.0427
127.831
24.952
55.4148
20.2808
127.331
195.239
192.913
28.5488
194.669
192.847
136.272
296.522
137.681
296.406
401.68
401.568
141.444
298.69
142.558
298.459
17.8586
18.0667
18.1909
18.0578
18.1077
18.1496
18.2429
56.7578
130.919
21.4938
25.0217
57.1138
129.854
20.7095
403.144
403.268
54.2683
21.0791
128.017
24.657
54.3356
20.8092
126.941
194.948
193.115
28.3534
194.647
192.796
136.339
296.751
137.288
296.499
401.875
401.781
141.322
298.811
141.342
298.414
17.8667
17.9091
18.1536
18.0645
18.1146
18.2418
18.2599
56.5675
129.987
21.4823
25.2143
57.2715
129.813
20.9551
403.141
403.171
54.4017
21.0966
128.227
23.9668
54.4443
20.7208
126.743
194.88
192.835
28.372
194.47
192.728
135.36
296.745
137.029
296.403
401.213
401.644
140.419
298.648
141.093
298.472
18.1118
18.1065
18.05
18.2547
18.0813
18.1085
18.2845
56.5916
129.931
21.4057
24.4634
58.0158
129.765
21.0308
403.194
403.235
54.0742
21.0071
128.112
25.4087
55.4134
20.7908
127.372
195.383
193.221
28.4354
194.587
192.867
136.915
296.521
137.445
296.305
402.947
401.833
141.433
298.846
141.705
298.389
18.1081
17.893
18.1218
18.2229
18.2024
18.2597
18.2678
57.2096
130.564
21.4371
25.7886
57.4817
130.372
21.2352
403.443
403.469
54.0781
21.0376
127.537
24.4297
54.6111
20.5684
126.243
194.678
193.171
28.3893
194.41
192.699
136.809
296.493
137.367
296.382
402.929
402.145
140.651
298.528
141.255
298.429
18.0207
18.1145
18.1013
18.2618
18.2087
18.0595
18.0894
57.3036
130.94
21.4358
25.2517
58.3296
130.038
20.7926
403.413
403.351
53.8534
20.9814
127.976
25.0309
54.1265
20.4763
126.971
195.086
193.087
28.4834
194.505
192.682
136.525
296.733
136.771
296.397
401.553
401.53
140.741
298.651
141.051
298.476
18.0617
18.2127
18.2173
18.2752
18.1933
18.2206
18.3008
57.0481
129.913
21.4842
25.0719
57.845
130.041
20.9663
403.389
404.287
54.4035
20.9669
126.813
24.2684
53.7949
20.628
126.839
194.995
193.299
28.5266
194.229
192.629
136.423
296.656
136.975
296.351
401.473
401.654
140.699
298.734
141.513
298.444
17.9448
18.1455
18.0994
18.0473
18.1556
18.2278
18.2
57.0904
130.483
21.4225
24.9778
57.4362
129.185
20.8542
403.062
403.187
54.4204
21.0696
128.316
24.2565
55.5372
20.3693
127.402
195.586
193.213
28.5383
194.591
192.606
135.367
296.699
136.361
296.49
402.222
401.492
141.434
298.868
141.539
298.658
18.1047
17.8957
18.136
18.3271
56.6071
130.028
21.3845
25.1697
58.1916
129.915
20.6395
403.693
403.002
54.1012
21.1174
128.237
25.4869
54.6508
20.8137
127.277
195.097
193.795
28.4954
194.741
192.785
135.304
296.106
296.054
135.847
53.7841
117.022
20.8987
25.378
20.7304
53.6647
123.583
53.5531
124.673
20.849
25.049
125.615
20.7455
53.9387
132.69
295.984
131.72
295.472
127.81
295.969
295.674
136.423
48.7696
24.7054
125.357
20.9139
20.7486
54.2392
117.045
48.6698
24.6204
124.815
20.8324
119.212
20.8229
54.2273
190.609
193.407
27.974
191.282
193.396
404.11
402.757
401.439
401.906
26.6624
191.04
193.062
187.271
189.318
402.39
403.931
55.896
120.244
21.1172
25.9735
20.6762
52.2004
127.1
139.492
297.707
297.967
136.289
56.1398
20.7273
124.143
25.9538
20.8447
126.939
53.7272
134.261
298.087
136.811
297.742
52.4766
25.9759
127.144
21.4827
21.3613
56.7863
120.546
134.117
297.983
297.877
139.843
55.0788
26.091
21.4012
127.418
20.9301
124.351
56.7895
139.544
297.976
297.825
138.613
55.7858
21.2043
129.954
24.4637
20.549
129.099
55.5622
138.452
298.19
297.976
137.623
52.3845
25.6838
128.317
21.1782
123.776
21.0818
55.7997
131.045
298.34
297.878
140.715
52.0037
26.0039
21.3967
128.183
21.2757
122.866
56.359
132.797
297.918
298.024
139.415
188.335
186.959
27.7779
191.94
190.189
402.766
401.372
402.578
404.001
26.2445
192.6
190.757
189.068
185.324
401.179
402.55
52.72
20.6861
123.285
23.7499
20.414
124.972
52.1507
134.886
295.311
295.394
133.212
134.322
295.478
295.371
132.917
52.0394
25.6138
20.8185
123.767
20.6824
115.699
53.7278
49.6632
25.2475
20.87
125.824
20.3302
116.543
53.2263
132.161
295.749
295.073
135.53
126.049
295.673
295.522
135.964
404.256
402.644
402.689
401.022
26.9903
193.235
191.536
188.719
187.146
402.718
403.976
401.117
403.587
402.448
401.383
404.109
403.286
186.143
190.79
27.9232
191.304
194.065
401.556
402.304
402.971
404.28
26.933
191.166
193.977
188.513
188.198
135.309
295.762
132.198
296.106
53.6432
121.23
20.5212
24.0783
52.3876
125.275
20.7272
53.9407
120.854
20.5911
25.5495
48.6894
125.663
20.6925
132.55
296.1
296.148
135.929
129.339
295.912
295.575
135.014
48.7753
25.6807
125.499
20.9563
121.228
20.8002
54.3597
49.2835
25.5597
125.096
20.9317
118.965
20.4288
53.9871
187.679
189.339
27.9522
191.314
193.105
403.755
403.01
401.406
402.048
27.1648
191.311
193.035
188.204
189.932
402.639
404.323
56.4186
121.427
21.0348
26.2504
52.6885
128.313
20.8764
139.715
297.669
134.446
297.924
56.3443
21.168
118.949
24.9859
53.0871
21.3313
128.705
134.456
298.45
298.123
140.804
53.9773
25.3971
128.783
21.54
123.455
21.3692
57.3612
133.751
298.087
297.766
139.985
50.4769
25.041
21.515
128.092
21.4202
120.347
57.2875
139.905
298.359
137.484
298.453
56.013
20.8272
122.173
25.7539
52.3057
20.5808
128.156
139.937
297.978
134.64
297.986
55.2683
25.972
125.11
21.2367
126.921
20.7439
53.9591
137.751
298.091
298.44
140.548
52.6994
25.9765
21.478
128.029
21.3693
122.66
56.1992
137.099
298.013
297.965
139.957
189.424
186.488
28.0293
192.705
190.82
403.472
401.195
402.685
403.809
27.2042
193.142
191.165
189.178
187.959
400.961
402.422
53.3988
20.7225
122.358
24.4189
51.0079
20.8673
125.267
135.119
295.475
133.091
295.984
134.868
295.552
133.067
295.844
52.0613
25.2945
20.59
126.777
20.6246
123.174
53.2882
51.2645
25.5619
21.0411
125.435
20.9596
122.994
53.5382
132.421
296.066
295.814
135.739
126.681
295.922
295.838
136.191
405.13
402.926
402.305
401.681
27.6105
193.983
191.408
191.615
186.711
402.794
405.315
400.951
402.711
402.448
401.543
403.922
403.225
188.362
191.86
27.9712
191.358
193.766
401.55
402.26
404.64
404.227
26.6481
191.811
193.974
185.802
192.108
134.719
295.564
129.289
295.857
53.943
116.616
20.5045
25.4703
48.7476
126.34
20.2309
53.6551
119.505
20.5269
24.5952
51.6124
124.996
20.1925
127.58
296.18
295.751
134.26
128.925
296.025
295.649
135.037
51.5393
24.9074
126.415
21.0411
116.905
20.9418
53.688
51.1253
24.8983
125.118
20.9915
119.972
20.903
53.8988
189.38
189.858
27.9639
191.794
193.321
403.794
403.021
401.45
403.57
26.7068
191.56
193.581
189.446
191
402.725
405.337
56.6222
125.746
21.1686
25.2136
53.4857
128.592
20.9605
139.623
298.009
133.149
298.169
57.0819
21.1127
122.51
25.2827
55.6819
20.9254
128.104
134.706
298.496
298.032
137.177
52.8805
25.9074
129.226
21.4505
120.337
20.9
57.14
133.94
298.179
297.924
140.55
53.0804
25.1076
21.4264
127.81
20.8401
121.953
57.1182
139.581
298.085
133.752
298.031
56.0987
20.9519
122.084
25.9024
52.3044
21.208
128.313
139.458
298.017
135.086
298.091
52.7443
24.6705
125.768
21.3088
122.092
20.7752
54.0094
135.451
298.165
297.836
140.385
52.3014
26.0228
21.4734
128.835
21.3093
123.668
56.7702
133.988
298.176
298.21
139.747
189.674
185.561
27.8471
193.362
191.935
402.084
401.618
403.004
404.08
26.8362
193.077
191.425
189.366
188.102
401.343
402.915
53.5754
20.3212
121.606
25.5708
52.05
20.9499
125.672
135.387
295.838
132.366
295.978
135.097
295.943
133.31
295.983
52.0393
25.2202
20.9242
124.903
20.4814
123.45
53.7471
52.2108
24.9528
21.0255
125.598
20.6356
120.377
54.0094
130.748
296.194
296.085
135.64
132.678
295.958
295.78
135.451
404.092
403.281
402.449
401.781
27.148
191.115
192.701
193.294
188.123
402.573
405.637
401.488
403.079
402.465
401.493
403.493
403.069
189.281
192.236
28.0241
191.46
193.78
402.977
402.474
403.106
403.966
26.4794
191.628
194.327
188.689
188.638
134.913
295.526
129.772
295.925
53.6231
123.901
20.5593
25.6168
51.1286
127.272
20.7848
53.872
116.224
20.5054
25.4225
48.4594
126.294
20.5401
133.469
296.632
296.107
135.693
127.319
295.954
295.736
135.228
48.6172
25.6183
126.251
21.0517
121.858
20.926
54.4758
48.5922
25.4766
125.898
21.0616
116.988
20.5623
54.2269
187.897
191.569
28.1014
191.416
193.476
405.164
402.905
401.585
403.543
26.4069
191.501
194.315
187.292
190.75
402.569
405.254
57.3662
125.892
21.1918
25.8953
54.1774
128.611
21.3315
141.286
298.007
136.063
298.076
57.0159
20.7197
118.864
26.3474
53.0028
21.3905
129.186
138.894
298.423
298.364
139.954
55.9646
25.995
128.786
21.5039
126.219
21.3576
57.5262
132.493
298.124
297.673
141.351
54.4293
25.2915
21.5949
128.169
21.0725
122.444
57.3299
140.246
298.379
131.883
298.05
56.4309
20.9916
119.443
26.352
52.7288
20.7053
129.671
139.461
298.18
134.093
298.271
55.2337
25.7769
129.363
21.3341
123.015
20.8245
55.4254
137.266
298.165
297.938
140.528
52.6449
25.3606
21.5608
128.67
21.4552
126.683
56.884
133.697
298.161
298.506
140.334
189.782
188.132
28.0664
193.176
191.801
402.5
401.704
403.121
403.527
27.0027
193.42
191.878
189.874
186.14
401.038
403.901
54.2299
20.5816
116.491
24.9036
52.5358
20.3186
126.855
135.493
296.029
132.039
296.157
135.665
295.899
133.093
295.971
49.5416
24.8248
20.7202
126.171
20.6316
122.102
55.245
52.7067
24.9337
21.1283
126.506
21.0205
118.869
54.3356
133.426
296.249
296.201
136.52
132.495
296.221
296.05
136.108
404.106
403.154
402.553
401.804
27.7189
193.52
191.606
191.728
187.098
402.672
404.296
401.265
402.827
401.978
401.298
404.204
403.24
189.274
188.9
28.2907
191.398
194.643
401.454
402.105
403.259
404.347
27.0549
191.569
194.499
188.548
189.131
134.845
295.691
129.217
296.053
53.8605
120.585
20.7409
25.3918
52
125.791
20.5865
54.0003
117.913
20.4148
25.7536
48.8394
126.858
20.987
131.388
296.562
296.214
132.013
129.472
296.319
295.827
135.207
50.1009
25.5414
125.748
21.0401
120.625
20.5196
53.9435
49.4134
24.9154
126.518
21.1461
117.736
20.6848
53.7541
188.804
192.136
28.1693
191.984
193.721
403.756
403.061
401.507
402.358
27.5533
192.144
193.863
186.999
190.911
402.725
405.416
56.7219
120.491
20.9511
25.0472
55.5967
129.8
20.6459
140.201
298.253
132.783
298.213
57.27
21.2522
122.794
25.216
51.4047
21.3671
129.177
135.718
298.471
298.29
139.844
51.8946
26.5676
129.464
21.5478
120.434
21.4411
56.7387
135.77
298.185
297.902
140.221
51.444
25.8112
21.5045
128.339
21.3788
122.803
57.5068
140.498
298.034
130.416
297.994
56.5374
20.9462
120.263
26.113
52.4226
20.6797
129.556
139.552
298.232
133.429
298.126
55.2538
25.362
125.837
21.0896
122.337
21.0213
54.3256
131.634
298.059
297.998
141.196
52.9835
26.1518
21.5641
129.478
21.4706
120.305
56.5994
133.769
298.282
298.323
139.715
190.944
186.193
28.2052
194.223
192.022
402.129
401.69
403.126
404.011
26.6305
193.355
192.04
190.721
187.244
402.551
402.698
54.0243
20.6725
122.151
25.6564
52.7184
20.8967
125.986
135.807
296.037
132.555
296.162
136.704
296.188
131.843
296.06
52.6791
25.5637
20.6761
126.279
20.9881
123.273
54.1733
49.4874
25.048
21.1275
125.29
20.9794
119.904
53.9256
131.39
296.178
296.063
136.256
129.54
296.035
296.29
135.434
403.861
403.173
402.578
401.869
26.797
194.047
192.032
191.745
191.178
402.93
404.312
401.183
402.97
402.479
401.723
404.346
403.209
189.207
188.943
28.2596
191.346
194.514
401.333
402.759
402.854
404.292
26.8644
191.512
194.292
187.264
188.775
135.345
296.193
130.433
296.2
53.7692
120.441
20.3988
25.6539
51.003
125.727
20.9809
53.737
117.622
20.8615
24.9073
51.1231
126.712
20.961
132.764
296.662
296.059
132.569
126.168
296.096
295.844
136.442
51.8826
25.0665
125.505
21.1513
120.579
20.6799
53.9558
50.5359
24.7587
126.128
21.0768
117.27
20.9627
53.6424
187.775
188.766
28.3413
191.888
194.23
404.06
404.412
401.43
402.378
27.2531
191.87
193.929
185.895
188.549
402.443
403.365
56.9451
126.207
21.0534
26.0663
53.5221
128.983
20.9286
139.854
298.133
134.621
298.326
57.0805
20.9961
124.184
25.1425
55.7259
21.2195
128.803
134.624
298.905
298.434
139.09
53.0344
25.4385
129.966
21.5037
127.033
21.2298
56.9641
134.132
298.27
298.113
139.837
52.9228
25.5495
21.4624
128.816
21.3021
122.587
56.8963
140.079
298.306
138.054
298.292
56.2539
21.1041
126.084
25.9261
52.7211
21.3002
128.67
139.246
298.31
133.979
298.16
52.5916
25.513
129.322
21.3731
122.939
21.3399
54.4895
131.568
298.453
298.181
140.695
52.2648
26.0596
21.5166
129.339
21.4105
120.402
56.7664
133.348
298.166
298.257
139.947
189.92
190.112
28.0219
193.83
192.172
402.073
401.645
403.147
403.978
26.7086
194.212
191.821
187.706
190.17
400.974
403.005
54.3579
20.8333
120.653
25.7477
51.7211
20.9876
126.001
135.011
295.847
130.045
296.088
135.195
296.091
130.671
296.094
52.5023
25.7372
21.0484
125.846
20.9853
123.456
53.5897
52.2024
25.753
21.1598
126.321
21.0838
122.05
54.2058
127.716
296.215
295.939
135.69
129.77
296.103
295.979
135.367
404.102
403.206
402.26
401.819
26.9426
194.651
190.965
190.16
190.818
402.915
404.534
401.215
402.929
402.111
401.668
403.553
403.208
186.673
188.574
28.1804
191.491
194.385
401.794
402.532
403.234
404.111
26.967
191.732
194.397
188.163
188.736
135.374
295.853
133.425
295.981
53.8742
117.689
20.9048
24.9842
52.6424
123.783
20.6338
53.733
122.746
20.3915
25.8989
51.4522
125.196
21.0139
128.181
296.558
296.098
134.789
131.606
296.114
295.785
135.508
52.3759
25.0655
127.497
21.0245
117.156
20.51
53.8792
48.4523
24.855
125.872
21.0253
116.966
20.8717
54.4338
189.529
188.414
28.2413
191.549
194.223
403.624
403.168
401.282
402.377
27.3784
191.271
194.129
187.518
188.753
402.695
404.194
56.8814
124.25
20.6824
26.3485
53.0134
128.728
21.3643
140.229
297.993
135.978
298.351
56.563
21.0081
123.397
25.1686
52.907
21.2334
128.673
137.609
298.721
298.185
138.352
51.1105
25.6569
129.955
21.6245
125.132
21.0828
57.807
131.315
298.476
298.399
141.36
52.8686
25.622
21.4598
129.582
21.2926
124.541
57.0743
139.985
298.505
132.473
298.428
56.7334
21.0507
120.12
25.9953
53.4987
21.2359
129.775
139.934
298.054
135.034
298.064
53.595
26.0286
129.454
21.2792
127.723
21.2142
57.0168
132.885
298.382
298.31
140.015
54.557
26.0357
21.4177
128.616
21.2794
125.499
56.9153
137.66
298.051
298.197
140.652
192.219
189
28.1771
194.238
192.207
402.173
401.782
403.209
404.058
27.4541
194.899
192.146
188.439
186.764
401.289
402.814
54.278
20.5743
117.316
25.5798
51.5535
20.308
127.196
136.334
296.048
126.784
296.103
136.431
296.02
126.321
296.135
52.6714
25.6157
20.7246
123.36
20.9742
120.89
51.3784
52.1985
24.9772
21.113
126.69
21.0157
118.002
54.0647
132.448
296.15
295.964
135.47
133.67
296.073
296.034
136.35
404.056
403.199
402.493
401.84
26.6682
192.055
191.158
192.58
190.916
402.779
404.557
401.26
402.928
403.001
401.809
404.304
403.201
189.488
188.826
28.2165
192.443
194.423
401.502
402.569
403.06
404.285
26.4251
191.603
194.321
189.387
188.669
134.927
295.715
129.56
295.944
53.8822
124.752
20.5852
25.5862
51.8339
127.168
20.2606
54.1989
116.726
20.5943
25.5101
49.3856
126.306
20.7886
127.401
296.352
296.217
134.92
127.467
296.158
295.709
136.346
48.9968
25.6414
125.478
21.0694
120.849
20.9764
54.341
49.1959
25.5536
125.429
20.9957
122.058
20.8571
54.6789
187.89
191.66
28.1291
191.385
193.68
404.049
403.103
401.504
403.31
26.5003
191.904
193.486
185.948
190.218
402.726
405.417
57.2231
127.315
21.3084
26.4768
55.2016
129.137
21.4378
139.941
298.57
138.158
298.451
56.7278
21.0175
125.832
26.0309
53.1571
21.2586
129.26
134.748
298.644
298.231
141.282
53.4853
25.6855
129.596
21.5901
120.669
21.4566
57.1413
132.683
298.287
298.195
140.861
54.43
26.0846
21.4628
129.19
21.314
124.989
57.2569
139.711
298.415
133.801
298.134
57.4257
20.944
122.637
25.0977
51.4999
21.1802
128.299
140.525
297.877
131.767
298.066
55.462
24.7606
125.716
21.0295
123.244
20.9474
54.2573
135.596
298.243
298.131
140.874
55.074
26.0907
21.4241
128.526
21.2555
123.114
56.9015
131.517
298.096
297.975
141.361
193.567
188.743
28.2264
194.888
192.286
402.599
401.643
403.336
404.487
27.3721
194.44
192.384
192.979
189.508
401.232
402.699
54.0915
20.6361
117.561
25.6513
48.1364
20.8615
126.763
135.414
296.165
130.842
295.977
135.155
295.881
130.578
296.005
50.3748
25.868
20.92
126.402
20.4844
122.269
52.2067
49.2734
25.6485
21.0361
126.289
20.912
118.573
53.9738
132.443
296.132
295.899
136.099
130.001
295.987
296.011
135.129
404.336
403.064
402.508
401.799
27.925
194.228
191.941
190.648
190.937
402.821
405.46
401.13
403.111
402.472
401.724
404.032
403.227
188.056
192.04
28.5026
191.863
193.817
401.767
402.582
403.059
404.319
27.6505
191.6
194.314
188.68
188.712
136.338
296.061
129.31
296.205
54.8752
119.671
20.2529
25.3999
52.4335
125.906
20.8648
54.4738
119.425
20.6758
25.796
52.4958
125.64
20.516
130.329
296.378
296.154
132.506
129.695
296.028
295.822
135.136
50.8422
25.5237
125.667
21.0997
118.674
20.6239
53.9291
50.6242
24.9081
124.882
21.0461
118.808
20.8741
54.0051
186.799
189.888
28.3825
192.338
193.704
403.553
402.977
401.503
402.475
27.147
191.406
193.49
189.602
189.778
402.804
404.338
57.0588
126.561
21.0846
25.1514
53.7652
129.072
21.065
141.206
297.998
131.767
298.144
57.105
20.6198
124.104
25.0947
54.7796
21.3066
128.695
134.893
298.641
298.438
137.927
54.5602
26.2674
128.357
21.6186
123.34
21.0544
57.3048
137.009
298.299
297.776
140.443
55.452
26.573
21.5939
129.867
21.0578
119.625
57.1571
140.605
298.166
131.762
298.514
57.0015
20.9883
123.056
26.107
55.4432
20.8591
128.554
139.979
298.275
138.24
298.119
53.6362
24.7898
128.062
21.3798
121.322
21.3139
56.2946
131.462
298.512
298.364
141.037
50.7827
25.4671
21.5208
128.269
21.5697
122.841
57.6156
131.792
297.985
298.083
141.263
189.184
190.615
28.2391
193.894
191.958
402.296
401.678
403.24
404.265
26.8525
194.665
191.577
192.963
189.521
400.9
402.679
53.4909
20.2737
120.678
24.6299
49.8314
20.8863
125.819
135.703
295.903
132.742
296.136
134.916
295.837
129.545
295.982
52.3966
25.3553
20.6241
127.39
20.8984
123.971
51.3455
50.9565
25.8834
21.1105
125.736
20.6603
120.761
53.7113
129.925
296.215
296.006
135.517
130.949
296.054
296.116
135.861
405.284
402.92
402.42
401.796
27.3702
194.065
192.763
191.694
190.781
402.649
404.457
401.319
402.911
403.336
401.688
404.27
403.243
186.13
192.15
28.2092
192.252
193.893
401.807
402.543
403.137
404.41
26.4491
191.745
193.757
188.179
191.261
134.84
295.766
129.319
296.097
53.4112
117.35
20.8817
24.7422
49.7675
127.274
20.5949
53.427
118.796
20.276
24.8487
50.2228
125.38
20.8735
129.4
296.861
296.025
136.518
129.265
296.17
295.865
134.856
49.8249
25.8652
126.606
20.9913
123.613
20.6935
53.865
49.9396
25.2329
126.153
21.0799
120.581
20.6114
54.103
187.969
190.114
28.2452
191.48
193.615
404.006
402.949
401.609
402.719
26.4729
192.314
193.539
187.699
189.947
402.535
404.088
57.6124
123.05
21.456
26.0275
51.3968
128.689
21.1114
140.041
298.153
134.838
298.362
57.3992
21.3773
126.135
25.3441
55.7728
21.0889
128.985
132.225
298.837
298.523
139.766
55.5127
26.0898
128.61
21.525
122.846
21.1795
57.0827
134.443
298.171
298.036
139.755
53.9022
25.1986
21.552
128.44
20.9799
123.996
56.9777
140.775
298.366
131.613
298.3
56.6628
21.2402
122.173
25.3655
55.4316
21.3396
128.676
140.089
297.881
138.124
297.977
54.0496
24.7735
128.576
21.3681
121.558
21.3812
56.4719
137.565
298.617
298.548
140.403
51.9652
25.5719
21.4959
129.426
21.4098
118.696
56.7788
138.182
298.257
297.939
140.887
191.578
188.052
28.0657
194.322
191.416
401.974
401.575
402.9
405.224
26.8674
193.523
191.981
190.032
186.026
401.266
402.65
54.1663
20.3914
116.876
25.3706
48.5998
20.9793
126.689
135.92
295.936
125.707
296.166
135.088
295.903
130.944
296.049
52.3876
24.3738
21.0222
127.559
20.9179
119.507
51.4374
52.2437
25.4423
21.1428
126.557
20.6865
117.548
53.7818
132.229
296.213
296.081
135.673
131.008
296.037
295.956
135.853
403.967
403.107
402.314
401.824
27.4005
191.844
191.84
190.018
191.231
402.789
404.439
401.386
404.113
403.392
401.65
404.3
403.127
188.944
190.252
28.2143
192.054
193.882
401.477
402.768
403.082
403.963
26.3648
191.612
193.671
189.287
189.836
136.012
295.918
125.575
296.305
53.5657
118.371
20.3112
25.6624
49.8276
126.264
20.9297
54.6479
123.038
20.4
24.8812
51.4554
126.517
20.9908
133.823
296.5
296.09
136.333
127.274
296.121
295.746
136.947
50.1204
25.0362
127.094
20.9411
117.672
20.5832
54.0984
52.7008
24.7239
126.278
21.0639
118.04
20.5857
54.2818
189.265
188.113
28.1877
192.31
194.422
403.691
404.483
402.338
402.622
27.3736
191.99
194.04
189.338
189.412
402.475
403.576
57.4594
122.932
20.9524
25.0682
55.6674
129.102
20.6274
139.7
297.97
134.235
298.115
56.472
21.375
125.375
26.4116
52.9653
21.431
128.607
136.98
298.404
298.229
138.924
53.1101
26.565
128.628
21.5566
122.724
21.4403
57.039
133.84
298.19
297.995
140.149
53.2355
25.2594
21.5051
128.744
21.4226
125.278
56.6341
140.768
298.348
131.318
298.501
56.3698
21.0688
125.538
25.2326
53.2291
20.9204
129.188
139.884
298.444
136.281
298.347
51.5667
25.7534
128.378
21.2488
120.774
21.1744
57.7919
137.567
298.246
298.545
139.905
52.5046
25.8223
21.4403
130.116
20.8618
125.626
56.7345
137.3
298.359
298.497
139.98
189.944
190.197
28.0669
193.426
191.974
402.617
401.696
402.965
404.02
26.6351
193.329
191.693
190.025
189.839
401.288
402.978
54.3347
20.6022
123.059
25.2643
48.7634
20.2663
125.629
135.963
295.887
125.374
296.034
135.839
295.895
126.434
296.023
52.0381
25.3689
20.4693
123.045
20.59
120.758
52.2482
52.2343
25.3798
21.0562
127.071
20.964
118.717
54.2252
132.677
296.265
296.019