/*--------------------------------*- C++ -*----------------------------------*\
| =========                 |                                                 |
| \\      /  F ield         | OpenFOAM: The Open Source CFD Toolbox           |
|  \\    /   O peration     | Version:  2206                                  |
|   \\  /    A nd           | Website:  www.openfoam.com                      |
|    \\/     M anipulation  |                                                 |
\*---------------------------------------------------------------------------*/
FoamFile
{
    version     2.0;
    format      ascii;
    arch        "LSB;label=32;scalar=64";
    class       volScalarField;
    location    "100";
    object      p;
}
// * * * * * * * * * * * * * * * * * * * * * * * * * * * * * * * * * * * * * //

dimensions      [0 2 -2 0 0 0 0];

internalField   nonuniform List<scalar> 
66928
(
-0.00679592
-0.00678483
-0.00678449
-0.00678441
-0.00679578
-0.00678439
-0.00681856
-0.006977
-0.00678453
-0.00678426
-0.00679568
-0.00679596
-0.00679574
-0.00679599
-0.0067956
-0.00679541
-0.00679601
-0.00679626
-0.0067957
-0.00678436
-0.00679556
-0.00679602
-0.00679625
-0.00678438
-0.00679569
-0.00679557
-0.00679595
-0.00679598
-0.00679575
-0.00679577
-0.00679532
-0.0067958
-0.0068187
-0.00688635
-0.00681868
-0.00688653
-0.00681869
-0.00681862
-0.00688656
-0.00688636
-0.00688653
-0.00697682
-0.00690931
-0.00697697
-0.0069092
-0.00690912
-0.00697683
-0.00697699
-0.00690925
-0.00690913
-0.00677344
-0.0067734
-0.00679619
-0.00677355
-0.00679567
-0.00677358
-0.00677324
-0.00679587
-0.00677332
-0.00679638
-0.00677342
-0.00679582
-0.00677354
-0.00677295
-0.00679598
-0.00677327
-0.00679579
-0.00679585
-0.00677346
-0.00677344
-0.006796
-0.00677336
-0.00679562
-0.00677327
-0.00679544
-0.00679608
-0.00679588
-0.00679621
-0.00679599
-0.00679597
-0.00679609
-0.0067959
-0.006796
-0.0067962
-0.00679598
-0.00677325
-0.0067963
-0.00677339
-0.0067958
-0.00677287
-0.00677352
-0.00679595
-0.00677332
-0.00679608
-0.00677351
-0.00679568
-0.00677357
-0.00677308
-0.00679584
-0.00677322
-0.00679583
-0.00679578
-0.00677342
-0.00677344
-0.00679597
-0.00677347
-0.00677353
-0.00679579
-0.00677357
-0.00679561
-0.00684103
-0.00686408
-0.00684127
-0.00686401
-0.00686386
-0.00688639
-0.00688644
-0.00686408
-0.00686406
-0.00688657
-0.00684125
-0.00681829
-0.00681884
-0.00684102
-0.00681863
-0.00684096
-0.00684138
-0.0068413
-0.00681809
-0.00681881
-0.00684122
-0.00681855
-0.0068411
-0.00684158
-0.00684132
-0.00681877
-0.00681875
-0.00681857
-0.0068411
-0.00684116
-0.00686397
-0.00688628
-0.00686414
-0.00688667
-0.00686419
-0.00688642
-0.00686375
-0.00686387
-0.00688637
-0.00686401
-0.00688696
-0.00686415
-0.00688651
-0.00686358
-0.00695457
-0.00693158
-0.00695446
-0.00693176
-0.00693179
-0.00690931
-0.00690928
-0.0069091
-0.00693159
-0.00693164
-0.00695449
-0.00697725
-0.0069546
-0.00697674
-0.00695467
-0.00695426
-0.00697699
-0.00695438
-0.00697738
-0.00695446
-0.00697683
-0.0069546
-0.00695395
-0.00697706
-0.00693173
-0.0069094
-0.00690882
-0.00693154
-0.00690913
-0.00693146
-0.00693195
-0.00693181
-0.00690933
-0.00690863
-0.00693172
-0.00690906
-0.00693157
-0.00693204
-0.00695434
-0.00697684
-0.00697688
-0.00695455
-0.00695453
-0.00697705
-0.00677434
-0.00677316
-0.00679558
-0.00679569
-0.00677355
-0.00677334
-0.00679485
-0.00677429
-0.00677304
-0.00679568
-0.00679551
-0.00677338
-0.00677346
-0.00679481
-0.00684023
-0.00681876
-0.00681866
-0.00684122
-0.00681955
-0.0068408
-0.00684101
-0.00695544
-0.00695427
-0.00697666
-0.00697673
-0.00695464
-0.00695444
-0.00697594
-0.00678428
-0.00678424
-0.00677357
-0.00679657
-0.00677404
-0.00679533
-0.00677319
-0.00677404
-0.00679644
-0.00677258
-0.00679673
-0.00677376
-0.00679557
-0.00677249
-0.00677374
-0.00679654
-0.00677248
-0.00677374
-0.00679556
-0.00679669
-0.0067738
-0.00677232
-0.00679662
-0.00677264
-0.0067967
-0.00677368
-0.0067956
-0.00677374
-0.00677249
-0.00679652
-0.00677246
-0.0067737
-0.0067967
-0.00679556
-0.00677231
-0.00677374
-0.00679662
-0.00677309
-0.00679632
-0.00677402
-0.00679511
-0.00677283
-0.0067742
-0.00679594
-0.00686492
-0.00686379
-0.00688618
-0.00688637
-0.00688542
-0.0068641
-0.00686404
-0.00693076
-0.00693173
-0.0069094
-0.00690925
-0.00691011
-0.00693139
-0.00693149
-0.00682994
-0.00683002
-0.00682982
-0.00681839
-0.00701098
-0.00701095
-0.00701105
-0.00699968
-0.00719173
-0.00719184
-0.00719181
-0.00718051
-0.00737271
-0.00737269
-0.00737266
-0.00736129
-0.00755361
-0.00755369
-0.00755367
-0.00754233
-0.00773465
-0.00773474
-0.00773474
-0.00772339
-0.00791572
-0.00791586
-0.00791585
-0.00790447
-0.00809686
-0.00809695
-0.00809689
-0.0080856
-0.00827788
-0.008278
-0.00827798
-0.00826671
-0.00845892
-0.00845907
-0.00845905
-0.0084477
-0.00864003
-0.00864009
-0.00864017
-0.00862879
-0.00882108
-0.0088212
-0.00882124
-0.00880995
-0.00900234
-0.00900244
-0.00900236
-0.00899106
-0.00918353
-0.0091836
-0.00918367
-0.00917228
-0.00936482
-0.0093649
-0.0093649
-0.00935353
-0.00954611
-0.00954622
-0.00954622
-0.00953484
-0.00972761
-0.00972762
-0.00972762
-0.00971626
-0.00682998
-0.00683007
-0.00696565
-0.00696566
-0.00681858
-0.00697697
-0.00682993
-0.00682989
-0.00696565
-0.00696568
-0.00682992
-0.00696559
-0.00696563
-0.00681845
-0.00697701
-0.00682976
-0.00696566
-0.00696562
-0.00697703
-0.00699963
-0.00715795
-0.00701104
-0.007011
-0.00714656
-0.00714659
-0.00699961
-0.00715792
-0.00701103
-0.00701104
-0.00714659
-0.00714656
-0.00701108
-0.00714655
-0.00714656
-0.00699961
-0.0071579
-0.00701109
-0.00714657
-0.0071466
-0.0071579
-0.00718051
-0.00733876
-0.00719187
-0.00719189
-0.00732752
-0.00732745
-0.00718052
-0.00733876
-0.00719186
-0.00719183
-0.00732742
-0.0073274
-0.00719183
-0.00732738
-0.00732738
-0.0071804
-0.0073387
-0.00719192
-0.00732737
-0.00732736
-0.00733868
-0.00736137
-0.00751978
-0.0073728
-0.00737276
-0.00750843
-0.00750839
-0.00736134
-0.00751971
-0.00737277
-0.00737273
-0.00750841
-0.00750835
-0.00737271
-0.00750834
-0.00750833
-0.00736131
-0.00751971
-0.0073727
-0.00750833
-0.00750838
-0.00751965
-0.0075424
-0.00770075
-0.00755375
-0.00755375
-0.00768941
-0.00768944
-0.00754234
-0.00770081
-0.00755372
-0.00755369
-0.00768941
-0.00768939
-0.0075537
-0.00768942
-0.00768937
-0.00754233
-0.00770077
-0.00755373
-0.00768939
-0.00768939
-0.00770078
-0.00772334
-0.00788185
-0.00773475
-0.00773476
-0.00787044
-0.00787051
-0.00772338
-0.00788188
-0.00773471
-0.00773478
-0.00787045
-0.00787055
-0.00773477
-0.00787052
-0.00787049
-0.00772339
-0.00788189
-0.00773479
-0.0078706
-0.00787053
-0.00788185
-0.00790448
-0.00806291
-0.00791582
-0.00791587
-0.00805156
-0.00805159
-0.00790452
-0.00806295
-0.00791583
-0.00791583
-0.00805157
-0.00805159
-0.00791586
-0.00805157
-0.00805153
-0.00790444
-0.00806296
-0.0079159
-0.00805163
-0.00805159
-0.00806294
-0.0080855
-0.008244
-0.0080969
-0.00809694
-0.00823267
-0.00823265
-0.00808556
-0.00824399
-0.00809693
-0.00809691
-0.00823267
-0.00823267
-0.00809694
-0.00823265
-0.00823271
-0.00808552
-0.00824401
-0.00809701
-0.00823265
-0.00823267
-0.00824411
-0.00826657
-0.00842508
-0.00827801
-0.00827801
-0.00841367
-0.00841371
-0.00826658
-0.008425
-0.00827801
-0.00827804
-0.00841369
-0.00841372
-0.00827805
-0.0084137
-0.00841374
-0.00826665
-0.00842513
-0.00827804
-0.00841375
-0.00841373
-0.00842509
-0.00844776
-0.00860613
-0.00845905
-0.00845906
-0.00859476
-0.0085948
-0.00844762
-0.00860612
-0.00845906
-0.00845904
-0.00859482
-0.00859481
-0.00845907
-0.00859474
-0.00859481
-0.00844769
-0.00860617
-0.00845908
-0.00859487
-0.00859484
-0.00860614
-0.00862879
-0.00878718
-0.00864013
-0.00864015
-0.00877586
-0.00877589
-0.00862871
-0.00878727
-0.00864016
-0.0086402
-0.00877582
-0.00877583
-0.00864016
-0.00877585
-0.00877588
-0.00862877
-0.00878726
-0.00864021
-0.00877585
-0.00877593
-0.00878731
-0.00880982
-0.00896838
-0.00882122
-0.00882123
-0.00895701
-0.00895704
-0.00880987
-0.00896835
-0.0088212
-0.00882123
-0.00895706
-0.00895699
-0.00882129
-0.00895708
-0.00895701
-0.00880988
-0.00896835
-0.00882128
-0.00895705
-0.00895705
-0.00896845
-0.008991
-0.00914964
-0.0090024
-0.00900243
-0.00913826
-0.00913828
-0.00899099
-0.00914959
-0.00900242
-0.00900243
-0.00913824
-0.00913829
-0.00900238
-0.00913823
-0.00913826
-0.00899099
-0.00914961
-0.00900241
-0.00913831
-0.00913829
-0.00914958
-0.00917228
-0.00933088
-0.00918369
-0.0091837
-0.00931947
-0.00931949
-0.00917224
-0.0093309
-0.00918364
-0.00918367
-0.00931946
-0.0093195
-0.00918361
-0.00931951
-0.00931955
-0.00917224
-0.00933086
-0.00918368
-0.00931954
-0.00931955
-0.00933089
-0.0093535
-0.00951222
-0.00936488
-0.00936491
-0.00950079
-0.0095008
-0.00935357
-0.00951222
-0.00936491
-0.00936491
-0.00950081
-0.00950081
-0.00936489
-0.00950079
-0.00950082
-0.00935353
-0.0095122
-0.00936492
-0.00950084
-0.00950082
-0.00951221
-0.00953488
-0.00969356
-0.00954621
-0.00954623
-0.0096822
-0.0096822
-0.00953486
-0.00969352
-0.0095462
-0.00954626
-0.00968219
-0.00968218
-0.00954622
-0.00968219
-0.00968218
-0.00953483
-0.00969358
-0.00954625
-0.0096822
-0.0096822
-0.00969358
-0.00971627
-0.00972767
-0.00972767
-0.00971619
-0.00972766
-0.00972763
-0.00972765
-0.00986347
-0.00971624
-0.00972761
-0.00986347
-0.00987484
-0.00688624
-0.00681865
-0.00681883
-0.00688632
-0.00681878
-0.00688627
-0.00688678
-0.00681865
-0.00681837
-0.00688657
-0.00682997
-0.0068298
-0.00682981
-0.00696558
-0.00696558
-0.0069656
-0.00696552
-0.00688619
-0.00681895
-0.00683
-0.00687525
-0.00688628
-0.00687525
-0.00681896
-0.00681868
-0.00688657
-0.00688555
-0.00682974
-0.00681919
-0.00687533
-0.00687536
-0.0068859
-0.00681938
-0.00681865
-0.00681873
-0.00688652
-0.00688649
-0.00688628
-0.00706732
-0.00699983
-0.00699989
-0.00706734
-0.00699979
-0.00706729
-0.0070677
-0.00699961
-0.00699939
-0.00706749
-0.00701109
-0.00701106
-0.00701107
-0.0071465
-0.00714649
-0.00714649
-0.0071465
-0.00706707
-0.00699992
-0.00701097
-0.00705629
-0.00699988
-0.00706712
-0.0070562
-0.00699965
-0.00706746
-0.00706649
-0.00701102
-0.00700027
-0.00705629
-0.00700057
-0.00705625
-0.00706685
-0.00699964
-0.00699982
-0.0070675
-0.00706742
-0.00706727
-0.0072481
-0.00718074
-0.00718074
-0.00724814
-0.00718067
-0.0072481
-0.00724858
-0.0071805
-0.00718025
-0.00724836
-0.00719186
-0.00719189
-0.00719184
-0.00732744
-0.00732738
-0.00732737
-0.00732734
-0.00724792
-0.00718086
-0.0071918
-0.00723712
-0.00718077
-0.00724807
-0.00723705
-0.00718053
-0.00724827
-0.00724731
-0.00719181
-0.00718114
-0.00723706
-0.00718141
-0.007237
-0.00724769
-0.0071805
-0.00718065
-0.00724841
-0.00724828
-0.00724805
-0.00742907
-0.00736151
-0.00736157
-0.00742905
-0.00736158
-0.00742909
-0.00742941
-0.00736137
-0.00736111
-0.00742923
-0.00737275
-0.00737271
-0.00737275
-0.00750834
-0.00750833
-0.0075083
-0.00750832
-0.00742886
-0.00736169
-0.00737268
-0.00741796
-0.00736166
-0.00742889
-0.00741795
-0.00736137
-0.00742915
-0.00742822
-0.00737263
-0.00736201
-0.00741792
-0.00736227
-0.0074179
-0.00742851
-0.00736132
-0.00736152
-0.00742922
-0.00742914
-0.00742896
-0.00761003
-0.00754261
-0.00754262
-0.00761007
-0.00754255
-0.00760998
-0.00761048
-0.00754235
-0.00754206
-0.00761024
-0.00755369
-0.00755365
-0.0075537
-0.00768936
-0.00768937
-0.00768935
-0.00768935
-0.00760986
-0.00754263
-0.00755365
-0.00759905
-0.0075426
-0.00760994
-0.00759895
-0.00754235
-0.00761013
-0.00760922
-0.00755364
-0.00754293
-0.00759901
-0.00754324
-0.00759897
-0.00760959
-0.0075423
-0.00754245
-0.00761028
-0.00761016
-0.00760999
-0.0077911
-0.00772355
-0.00772358
-0.00779109
-0.00772357
-0.00779111
-0.0077915
-0.00772341
-0.00772313
-0.00779128
-0.00773477
-0.00773476
-0.00773478
-0.00787044
-0.00787047
-0.00787046
-0.00787049
-0.00779098
-0.00772374
-0.00773473
-0.00778011
-0.00772366
-0.00779095
-0.00778007
-0.00772339
-0.0077912
-0.00779033
-0.00773471
-0.00772404
-0.00778009
-0.0077243
-0.00778005
-0.00779066
-0.00772342
-0.00772358
-0.00779133
-0.00779125
-0.00779107
-0.0079722
-0.00790467
-0.00790465
-0.00797218
-0.00790466
-0.00797215
-0.00797263
-0.00790443
-0.00790421
-0.00797232
-0.00791586
-0.00791587
-0.00791589
-0.00805157
-0.00805152
-0.00805157
-0.00805158
-0.00797205
-0.00790481
-0.0079158
-0.00796115
-0.00790481
-0.00797209
-0.00796109
-0.00790451
-0.00797236
-0.00797146
-0.00791586
-0.00790518
-0.00796118
-0.00790537
-0.00796117
-0.00797177
-0.0079045
-0.00790466
-0.00797241
-0.00797237
-0.00797214
-0.00815326
-0.00808575
-0.00808579
-0.00815326
-0.00808578
-0.00815332
-0.0081537
-0.00808551
-0.00808523
-0.00815344
-0.00809694
-0.00809696
-0.00809698
-0.00823255
-0.00823256
-0.0082326
-0.00823258
-0.00815311
-0.00808591
-0.0080969
-0.00814226
-0.00808578
-0.00815311
-0.00814225
-0.00808557
-0.00815338
-0.00815255
-0.00809692
-0.00808623
-0.00814221
-0.00808646
-0.00814221
-0.00815287
-0.0080856
-0.00808573
-0.00815352
-0.00815347
-0.00815332
-0.00833429
-0.00826681
-0.00826678
-0.00833431
-0.00826681
-0.00833427
-0.00833476
-0.00826664
-0.00826636
-0.00833454
-0.00827799
-0.00827803
-0.00827801
-0.00841363
-0.0084137
-0.00841364
-0.00841373
-0.00833423
-0.00826693
-0.00827794
-0.00832329
-0.00826696
-0.00833427
-0.00832325
-0.00826666
-0.00833446
-0.00833355
-0.00827797
-0.0082673
-0.00832335
-0.00826754
-0.00832328
-0.00833391
-0.00826669
-0.00826689
-0.00833457
-0.00833449
-0.00833437
-0.00851535
-0.00844789
-0.0084479
-0.00851539
-0.00844789
-0.00851542
-0.00851579
-0.0084477
-0.0084475
-0.00851557
-0.00845909
-0.00845907
-0.0084591
-0.00859474
-0.00859471
-0.0085948
-0.00859475
-0.0085153
-0.00844801
-0.00845904
-0.00850438
-0.00844795
-0.0085153
-0.00850431
-0.00844778
-0.00851554
-0.0085146
-0.00845906
-0.00844837
-0.00850438
-0.00844858
-0.00850439
-0.00851494
-0.00844774
-0.00844788
-0.00851569
-0.00851557
-0.00851541
-0.00869644
-0.00862893
-0.00862887
-0.00869647
-0.00862892
-0.00869639
-0.00869696
-0.00862878
-0.00862858
-0.00869673
-0.0086401
-0.00864017
-0.00864014
-0.00877576
-0.00877578
-0.00877577
-0.00877585
-0.00869635
-0.00862914
-0.00864006
-0.00868547
-0.00862906
-0.0086964
-0.0086854
-0.00862883
-0.00869663
-0.00869576
-0.00864012
-0.00862944
-0.00868547
-0.0086297
-0.00868541
-0.00869609
-0.00862882
-0.00862896
-0.00869678
-0.00869667
-0.00869648
-0.00887758
-0.00881004
-0.00881007
-0.00887762
-0.00881005
-0.00887762
-0.008878
-0.00880988
-0.00880965
-0.00887781
-0.00882124
-0.00882122
-0.00882127
-0.00895702
-0.00895704
-0.00895697
-0.00895698
-0.00887741
-0.00881024
-0.0088212
-0.00886654
-0.00881023
-0.00887745
-0.00886651
-0.00880992
-0.00887774
-0.00887684
-0.00882119
-0.00881056
-0.00886655
-0.0088108
-0.00886651
-0.0088772
-0.0088099
-0.00881005
-0.00887786
-0.00887777
-0.00887765
-0.00905882
-0.00899125
-0.00899122
-0.00905881
-0.0089912
-0.00905873
-0.00905923
-0.00899098
-0.00899076
-0.00905897
-0.00900248
-0.00900241
-0.00900241
-0.00913819
-0.00913821
-0.00913826
-0.00913819
-0.0090586
-0.0089913
-0.00900241
-0.00904778
-0.00899136
-0.00905866
-0.00904771
-0.00899102
-0.0090589
-0.00905803
-0.00900234
-0.00899168
-0.00904773
-0.00899197
-0.00904768
-0.00905836
-0.0089911
-0.00899127
-0.00905905
-0.00905897
-0.00905882
-0.00924
-0.00917248
-0.00917248
-0.00924006
-0.00917243
-0.00924005
-0.00924046
-0.00917227
-0.00917199
-0.00924026
-0.00918366
-0.00918366
-0.00918365
-0.00931945
-0.00931945
-0.00931949
-0.0093195
-0.00923984
-0.00917262
-0.00918359
-0.00922895
-0.00917252
-0.00923993
-0.00922893
-0.00917227
-0.0092402
-0.00923918
-0.00918362
-0.00917292
-0.009229
-0.00917316
-0.00922897
-0.00923957
-0.00917227
-0.00917241
-0.00924018
-0.00924018
-0.00924001
-0.0094213
-0.00935375
-0.00935374
-0.00942131
-0.00935373
-0.00942127
-0.00942179
-0.00935356
-0.0093533
-0.00942149
-0.00936489
-0.00936491
-0.00936488
-0.00950073
-0.00950073
-0.00950075
-0.00950076
-0.00942117
-0.00935386
-0.00936484
-0.0094103
-0.00935383
-0.00942125
-0.00941023
-0.00935359
-0.00942152
-0.00942055
-0.00936486
-0.00935414
-0.00941021
-0.0093545
-0.00941023
-0.00942091
-0.00935355
-0.00935368
-0.00942148
-0.00942151
-0.00942133
-0.00960264
-0.00953497
-0.00953496
-0.00960265
-0.00953503
-0.0096026
-0.00960305
-0.00953483
-0.00953461
-0.00960283
-0.00954622
-0.00954619
-0.00954623
-0.00968229
-0.00968212
-0.00968213
-0.00968217
-0.00960251
-0.00953522
-0.00954616
-0.0095916
-0.00953516
-0.00960256
-0.00959156
-0.0095349
-0.0096028
-0.00960192
-0.0095462
-0.00953555
-0.00959158
-0.00953576
-0.00959154
-0.00960225
-0.00953492
-0.00953507
-0.00960282
-0.00960287
-0.00960269
-0.00978404
-0.00971642
-0.00971645
-0.00978407
-0.00971639
-0.00978403
-0.00978443
-0.00971616
-0.00971595
-0.0097842
-0.00972767
-0.00972766
-0.00972765
-0.00986328
-0.00978389
-0.0097165
-0.00972759
-0.009773
-0.00971653
-0.00978397
-0.00977298
-0.00971628
-0.00978412
-0.00978329
-0.00972757
-0.00971691
-0.00977299
-0.00971715
-0.00977293
-0.00978363
-0.00971618
-0.00971642
-0.00978433
-0.00978422
-0.00978402
-0.00688622
-0.00681873
-0.00688626
-0.00681885
-0.00688541
-0.00681913
-0.00683017
-0.00687521
-0.00687524
-0.00681975
-0.00688587
-0.0068854
-0.00681924
-0.00683019
-0.0068752
-0.00688579
-0.00687525
-0.0068197
-0.00690934
-0.0069768
-0.00697684
-0.0069093
-0.00690929
-0.00697678
-0.00690928
-0.00697687
-0.00691001
-0.0069204
-0.00697644
-0.0069656
-0.00692031
-0.00697606
-0.00690964
-0.00690998
-0.00692037
-0.00697632
-0.00696561
-0.00690966
-0.00692029
-0.00697605
-0.00681883
-0.00681864
-0.00688652
-0.00688619
-0.00688659
-0.00681866
-0.00688651
-0.00697682
-0.00690929
-0.006909
-0.00697684
-0.00697686
-0.00690926
-0.00690917
-0.00697692
-0.00690919
-0.00688618
-0.00681892
-0.00682992
-0.00687526
-0.00687525
-0.00681884
-0.00688628
-0.00688674
-0.00681862
-0.00688662
-0.00681835
-0.00688616
-0.00682995
-0.00681889
-0.00687524
-0.00687528
-0.00688628
-0.0068189
-0.00690885
-0.00697701
-0.00697728
-0.00690915
-0.00690942
-0.00692041
-0.00697665
-0.00696564
-0.0069204
-0.00697662
-0.00690941
-0.00690886
-0.00697699
-0.00690915
-0.00697727
-0.00690944
-0.0069204
-0.00696567
-0.00697665
-0.00692039
-0.00690943
-0.00697666
-0.00688678
-0.00681862
-0.00688655
-0.00681839
-0.00688616
-0.00683001
-0.00681894
-0.00687528
-0.00687528
-0.00688618
-0.00681896
-0.00688676
-0.00681862
-0.00688651
-0.00681837
-0.00690944
-0.00692036
-0.00697658
-0.0069656
-0.00690947
-0.00692035
-0.0069766
-0.00690893
-0.00697698
-0.00690914
-0.00697727
-0.00690943
-0.00692035
-0.00696561
-0.00697666
-0.00692033
-0.00690945
-0.00697662
-0.00690891
-0.00697699
-0.00690911
-0.00697725
-0.00681858
-0.00681875
-0.00688654
-0.00688658
-0.00688634
-0.00681876
-0.00688635
-0.00697697
-0.00690922
-0.00690907
-0.00697698
-0.00697683
-0.00690916
-0.00690928
-0.00697683
-0.00690929
-0.00688555
-0.00682976
-0.00681913
-0.00687533
-0.00687536
-0.00688585
-0.00681938
-0.00688624
-0.00681876
-0.00688635
-0.00681869
-0.00688625
-0.00681874
-0.0068863
-0.0068187
-0.00691007
-0.0069204
-0.00696561
-0.00697636
-0.00692036
-0.00690971
-0.00697606
-0.00691002
-0.00692038
-0.00696559
-0.0069764
-0.00692032
-0.00690968
-0.00697609
-0.00690929
-0.00697682
-0.0069093
-0.00697674
-0.00690928
-0.00697682
-0.00690929
-0.00697677
-0.00681864
-0.00688646
-0.00681877
-0.0068863
-0.00690905
-0.00697698
-0.00697682
-0.00690913
-0.00690925
-0.00697695
-0.00690916
-0.00697682
-0.00690928
-0.0069998
-0.00706734
-0.00699966
-0.00706744
-0.00699982
-0.00699967
-0.00706757
-0.00706734
-0.00706747
-0.00715776
-0.00709031
-0.00715783
-0.00709011
-0.0070901
-0.00715775
-0.00715785
-0.00709027
-0.00709008
-0.00706727
-0.0069998
-0.00699983
-0.00706727
-0.00706655
-0.00700032
-0.00701101
-0.00705631
-0.00700056
-0.00706694
-0.00705627
-0.00706656
-0.00700024
-0.00701105
-0.00705627
-0.00700054
-0.0070669
-0.00705629
-0.00709034
-0.00715775
-0.00709032
-0.0071577
-0.00709028
-0.00715772
-0.00709025
-0.00715775
-0.00709102
-0.00710139
-0.00715731
-0.00714654
-0.00709073
-0.00710134
-0.00715702
-0.00709101
-0.00710136
-0.00715727
-0.00714654
-0.00709063
-0.00710133
-0.00715702
-0.0069998
-0.0069996
-0.00706758
-0.00706729
-0.00706743
-0.00699964
-0.00706743
-0.00715772
-0.00709026
-0.00708999
-0.00715772
-0.00715786
-0.00709024
-0.00709009
-0.00715786
-0.00709012
-0.00706712
-0.00699996
-0.00701105
-0.00705628
-0.00699993
-0.00706718
-0.00705632
-0.00706775
-0.00699957
-0.00699933
-0.00706752
-0.00706713
-0.00701104
-0.0069999
-0.00705625
-0.00699993
-0.00705626
-0.00706719
-0.0070898
-0.00715789
-0.00709006
-0.00715813
-0.00709039
-0.00710141
-0.00715756
-0.00714653
-0.00709036
-0.00710141
-0.00715756
-0.00708985
-0.00715793
-0.0070901
-0.00715815
-0.00709036
-0.00710138
-0.00714653
-0.00715763
-0.00710131
-0.00709036
-0.00715755
-0.0070677
-0.00699959
-0.00699929
-0.00706747
-0.00706711
-0.00701106
-0.00699991
-0.00705625
-0.00699987
-0.00705621
-0.0070671
-0.00706772
-0.0069996
-0.0069993
-0.00706745
-0.00709037
-0.00710138
-0.00715757
-0.00714652
-0.00709037
-0.00710132
-0.00715756
-0.00708983
-0.00715792
-0.00709006
-0.00715816
-0.00709038
-0.00710131
-0.00714653
-0.00715755
-0.00710127
-0.0070903
-0.00715755
-0.0070898
-0.00715787
-0.00709002
-0.00715816
-0.00699963
-0.0069998
-0.00706751
-0.00706749
-0.00706728
-0.0069998
-0.00706729
-0.00715786
-0.00709014
-0.00709002
-0.00715788
-0.0071577
-0.00709011
-0.00709021
-0.00715769
-0.00709023
-0.00706647
-0.00701112
-0.00700031
-0.00705628
-0.0070006
-0.00705625
-0.00706685
-0.0070673
-0.00699982
-0.00699976
-0.00706729
-0.00706729
-0.00699978
-0.00699976
-0.00706727
-0.00709099
-0.00710142
-0.00714653
-0.00715728
-0.00710136
-0.00709068
-0.00715693
-0.007091
-0.00710132
-0.00714652
-0.00715721
-0.00710126
-0.00709066
-0.00715692
-0.00709027
-0.00715769
-0.00709022
-0.00715763
-0.00709025
-0.00715766
-0.00709023
-0.00715767
-0.00699964
-0.00706739
-0.00699977
-0.00706728
-0.00708994
-0.00715784
-0.00715767
-0.00709005
-0.00709024
-0.00715781
-0.00709009
-0.00715768
-0.00709023
-0.00718072
-0.00724815
-0.00718053
-0.00724829
-0.00718073
-0.00718053
-0.00724839
-0.00724816
-0.00724831
-0.00733848
-0.00727107
-0.00733871
-0.00727096
-0.00727079
-0.00733849
-0.00733873
-0.00727104
-0.00727092
-0.00724813
-0.0071807
-0.00718071
-0.00724813
-0.00724737
-0.00718117
-0.00719186
-0.00723711
-0.00718148
-0.0072477
-0.0072371
-0.00724736
-0.00718117
-0.00719189
-0.00723709
-0.00718142
-0.00724769
-0.00723708
-0.00727112
-0.00733847
-0.00727109
-0.00733854
-0.00727113
-0.00733859
-0.00727111
-0.00733859
-0.00727184
-0.00728224
-0.00733805
-0.00732747
-0.00727145
-0.00728222
-0.00733779
-0.00727186
-0.00728218
-0.00733809
-0.00732742
-0.00727152
-0.00728215
-0.00733778
-0.0071807
-0.0071805
-0.0072484
-0.00724802
-0.0072484
-0.00718054
-0.0072483
-0.00733861
-0.00727109
-0.00727091
-0.00733863
-0.00733866
-0.00727106
-0.0072709
-0.00733866
-0.00727094
-0.00724804
-0.00718082
-0.00719185
-0.0072371
-0.00718079
-0.00724803
-0.00723707
-0.00724858
-0.0071805
-0.0071802
-0.00724833
-0.00724801
-0.0071919
-0.00718085
-0.00723703
-0.00718074
-0.00723706
-0.00724801
-0.0072707
-0.00733876
-0.00727092
-0.00733902
-0.00727127
-0.00728221
-0.00733847
-0.00732736
-0.00727125
-0.00728213
-0.00733852
-0.00727069
-0.00733872
-0.00727087
-0.00733901
-0.00727124
-0.00728215
-0.00732737
-0.00733838
-0.00728212
-0.00727116
-0.00733851
-0.0072486
-0.0071805
-0.00718018
-0.00724835
-0.00724794
-0.00719185
-0.0071808
-0.00723699
-0.00718078
-0.00723704
-0.00724804
-0.00724857
-0.00718045
-0.00718017
-0.00724834
-0.00727117
-0.00728221
-0.00733837
-0.00732738
-0.00727118
-0.00728219
-0.00733836
-0.00727066
-0.00733876
-0.00727091
-0.00733896
-0.00727118
-0.00728214
-0.00732736
-0.00733836
-0.00728212
-0.00727117
-0.00733838
-0.00727065
-0.00733872
-0.00727089
-0.00733901
-0.00718051
-0.00718067
-0.00724831
-0.00724828
-0.00724813
-0.00718064
-0.0072481
-0.00733867
-0.00727093
-0.00727079
-0.00733867
-0.00733854
-0.00727089
-0.00727104
-0.00733856
-0.00727107
-0.00724731
-0.00719185
-0.00718108
-0.00723706
-0.00718136
-0.007237
-0.00724764
-0.00724808
-0.00718067
-0.00718058
-0.00724812
-0.00724808
-0.00718063
-0.00718057
-0.00724807
-0.00727178
-0.0072822
-0.00732732
-0.00733811
-0.00728215
-0.00727149
-0.00733772
-0.00727177
-0.00728216
-0.00732734
-0.00733809
-0.00728211
-0.00727146
-0.00733777
-0.00727111
-0.00733856
-0.0072711
-0.00733855
-0.00727107
-0.00733849
-0.00727102
-0.00733853
-0.00718049
-0.00724825
-0.0071806
-0.00724805
-0.0072709
-0.00733867
-0.00733852
-0.00727091
-0.007271
-0.00733867
-0.00727094
-0.0073385
-0.007271
-0.00736149
-0.00742904
-0.0073614
-0.00742918
-0.00736151
-0.00736136
-0.00742928
-0.00742906
-0.00742921
-0.0075196
-0.00745203
-0.00751967
-0.00745187
-0.0074518
-0.00751959
-0.0075197
-0.007452
-0.00745184
-0.00742905
-0.00736159
-0.0073616
-0.00742911
-0.00742825
-0.00736197
-0.00737278
-0.00741806
-0.00736231
-0.00742868
-0.00741801
-0.00742826
-0.00736196
-0.00737277
-0.00741795
-0.00736231
-0.0074287
-0.00741799
-0.00745211
-0.00751961
-0.00745205
-0.00751959
-0.00745208
-0.00751954
-0.00745207
-0.00751958
-0.00745277
-0.00746316
-0.00751916
-0.00750838
-0.0074525
-0.00746316
-0.00751883
-0.00745279
-0.00746311
-0.00751912
-0.00750841
-0.00745246
-0.00746312
-0.00751882
-0.00736157
-0.00736134
-0.00742923
-0.0074291
-0.00742914
-0.00736136
-0.0074291
-0.00751956
-0.00745205
-0.00745178
-0.00751957
-0.00751962
-0.00745202
-0.0074518
-0.0075196
-0.00745181
-0.00742885
-0.00736168
-0.00737275
-0.00741803
-0.0073617
-0.00742892
-0.00741802
-0.00742946
-0.00736134
-0.00736107
-0.00742923
-0.00742885
-0.00737275
-0.0073616
-0.00741794
-0.00736167
-0.00741798
-0.0074289
-0.00745156
-0.00751973
-0.00745181
-0.00752001
-0.00745214
-0.00746317
-0.00751937
-0.00750832
-0.00745216
-0.0074631
-0.00751938
-0.00745158
-0.00751969
-0.00745179
-0.00751998
-0.00745214
-0.00746305
-0.00750835
-0.00751937
-0.00746307
-0.00745213
-0.00751937
-0.0074294
-0.00736132
-0.00736102
-0.00742917
-0.00742886
-0.00737274
-0.00736161
-0.00741792
-0.00736163
-0.00741796
-0.00742886
-0.00742941
-0.0073613
-0.00736104
-0.00742915
-0.00745213
-0.00746315
-0.00751934
-0.00750834
-0.00745209
-0.00746311
-0.00751932
-0.00745152
-0.00751965
-0.00745176
-0.00751991
-0.00745213
-0.00746308
-0.00750834
-0.00751932
-0.00746305
-0.00745205
-0.00751932
-0.00745154
-0.00751965
-0.00745175
-0.00751988
-0.00736133
-0.00736152
-0.00742918
-0.00742917
-0.00742899
-0.00736153
-0.00742898
-0.00751963
-0.00745184
-0.00745171
-0.00751965
-0.00751946
-0.00745181
-0.00745195
-0.00751946
-0.00745195
-0.00742819
-0.00737269
-0.00736195
-0.00741794
-0.00736227
-0.00741789
-0.00742858
-0.00742896
-0.00736155
-0.00736152
-0.00742896
-0.00742894
-0.00736148
-0.00736148
-0.00742896
-0.00745271
-0.00746306
-0.00750832
-0.00751901
-0.00746309
-0.00745236
-0.0075187
-0.00745275
-0.00746304
-0.00750836
-0.00751899
-0.00746301
-0.00745239
-0.0075186
-0.00745199
-0.00751945
-0.00745195
-0.0075194
-0.00745199
-0.00751943
-0.00745197
-0.00751939
-0.00736133
-0.0074291
-0.00736148
-0.00742897
-0.00745172
-0.00751963
-0.00751946
-0.00745179
-0.00745195
-0.00751961
-0.00745181
-0.00751946
-0.00745195
-0.00754259
-0.00761005
-0.00754239
-0.00761019
-0.00754258
-0.00754239
-0.00761032
-0.00761006
-0.00761024
-0.00770057
-0.007633
-0.00770069
-0.00763289
-0.00763283
-0.00770056
-0.0077007
-0.00763299
-0.00763284
-0.00761004
-0.00754255
-0.00754256
-0.00761002
-0.00760928
-0.00754303
-0.00755373
-0.00759904
-0.0075433
-0.00760968
-0.00759901
-0.00760927
-0.007543
-0.00755377
-0.00759906
-0.00754327
-0.00760957
-0.00759901
-0.00763309
-0.00770057
-0.00763304
-0.00770051
-0.00763306
-0.00770054
-0.00763302
-0.00770053
-0.00763381
-0.00764421
-0.00770007
-0.0076894
-0.00763346
-0.00764414
-0.00769977
-0.00763378
-0.00764419
-0.00770015
-0.0076894
-0.00763338
-0.00764411
-0.00769981
-0.00754257
-0.00754233
-0.00761033
-0.00760991
-0.00761032
-0.00754234
-0.00761021
-0.00770055
-0.007633
-0.00763281
-0.00770058
-0.0077006
-0.00763298
-0.00763286
-0.00770063
-0.00763289
-0.00760988
-0.00754271
-0.00755371
-0.007599
-0.00754262
-0.00760996
-0.00759896
-0.00761045
-0.00754231
-0.00754202
-0.00761019
-0.00760992
-0.00755372
-0.00754266
-0.00759898
-0.00754261
-0.00759897
-0.00760991
-0.00763264
-0.00770077
-0.00763285
-0.007701
-0.0076332
-0.00764419
-0.00770042
-0.00768935
-0.00763315
-0.00764407
-0.0077004
-0.00763261
-0.00770076
-0.00763278
-0.00770101
-0.00763319
-0.00764411
-0.00768935
-0.0077004
-0.00764407
-0.00763308
-0.00770043
-0.00761044
-0.00754229
-0.00754198
-0.00761025
-0.00760984
-0.0075537
-0.00754259
-0.00759897
-0.0075426
-0.00759898
-0.00760988
-0.00761041
-0.00754228
-0.00754196
-0.00761018
-0.00763316
-0.00764418
-0.00770038
-0.00768938
-0.00763312
-0.00764414
-0.00770035
-0.00763259
-0.00770071
-0.00763284
-0.00770103
-0.00763312
-0.00764411
-0.00768935
-0.00770043
-0.00764409
-0.00763311
-0.00770038
-0.00763256
-0.00770077
-0.00763282
-0.00770102
-0.00754235
-0.00754245
-0.00761029
-0.00761017
-0.00760997
-0.00754245
-0.00760996
-0.00770069
-0.00763284
-0.00763284
-0.0077007
-0.00770051
-0.00763277
-0.00763291
-0.00770051
-0.00763294
-0.00760923
-0.00755373
-0.00754289
-0.00759897
-0.00754313
-0.00759895
-0.00760958
-0.00760996
-0.00754245
-0.0075424
-0.00760995
-0.00760995
-0.00754244
-0.00754238
-0.00760998
-0.00763377
-0.0076442
-0.00768933
-0.00770007
-0.00764411
-0.0076334
-0.00769979
-0.00763378
-0.0076441
-0.00768933
-0.0077001
-0.00764406
-0.00763339
-0.00769979
-0.00763297
-0.00770053
-0.00763293
-0.00770057
-0.00763302
-0.00770058
-0.00763299
-0.00770054
-0.0075423
-0.00761013
-0.00754243
-0.00760997
-0.00763275
-0.00770073
-0.00770055
-0.00763284
-0.00763297
-0.00770069
-0.00763288
-0.00770057
-0.00763298
-0.00772355
-0.00779107
-0.00772343
-0.00779124
-0.00772354
-0.00772343
-0.00779132
-0.00779108
-0.00779127
-0.00788167
-0.00781406
-0.00788177
-0.00781395
-0.00781384
-0.00788165
-0.00788178
-0.00781403
-0.00781391
-0.00779113
-0.00772358
-0.00772356
-0.00779112
-0.0077903
-0.00772396
-0.00773476
-0.00778007
-0.00772427
-0.00779065
-0.00778008
-0.00779031
-0.00772402
-0.00773477
-0.00778008
-0.0077243
-0.00779069
-0.00778007
-0.00781412
-0.00788167
-0.00781408
-0.00788161