/*--------------------------------*- C++ -*----------------------------------*\
| =========                 |                                                 |
| \\      /  F ield         | OpenFOAM: The Open Source CFD Toolbox           |
|  \\    /   O peration     | Version:  2206                                  |
|   \\  /    A nd           | Website:  www.openfoam.com                      |
|    \\/     M anipulation  |                                                 |
\*---------------------------------------------------------------------------*/
FoamFile
{
    version     2.0;
    format      ascii;
    arch        "LSB;label=32;scalar=64";
    class       surfaceScalarField;
    location    "100";
    object      phi;
}
// * * * * * * * * * * * * * * * * * * * * * * * * * * * * * * * * * * * * * //

dimensions      [0 3 -1 0 0 0 0];

oriented        oriented;

internalField   nonuniform List<scalar> 
197159
(
-3.05141e-11
-3.44806e-11
2.76375e-08
-2.74852e-08
-4.40337e-11
-4.32932e-11
-5.73075e-12
-3.06001e-11
-2.02059e-11
1.88714e-11
-1.57018e-11
-3.16986e-11
3.07668e-11
1.65135e-11
1.17061e-07
1.96918e-11
6.82196e-12
-1.41025e-11
-3.37319e-11
-3.62278e-11
3.56658e-11
6.36399e-11
-6.13127e-11
6.01206e-11
-6.28181e-11
1.14854e-07
2.56483e-11
5.44137e-11
-2.42379e-12
-3.43464e-12
-3.2407e-11
3.60831e-11
4.28083e-11
-6.11373e-11
5.90673e-11
-4.39821e-11
1.15907e-07
-2.60234e-11
-2.75089e-08
-5.37493e-11
-2.78121e-11
2.76421e-08
-3.36251e-11
-1.05362e-10
-3.48443e-11
-3.80042e-11
8.35753e-12
-3.13272e-11
4.25166e-11
-7.75175e-12
1.15972e-07
-1.56186e-11
4.49326e-11
4.32306e-11
2.74849e-08
3.0832e-11
3.35944e-11
-2.74843e-08
-4.42906e-11
-4.31304e-11
-3.06299e-11
-3.40796e-11
2.76364e-08
-5.51904e-11
1.22969e-07
7.99959e-11
-9.08306e-12
1.23276e-07
-1.54297e-11
3.86363e-12
4.22285e-13
6.68462e-09
-6.69e-09
1.09024e-12
6.41374e-12
2.28931e-12
6.55234e-09
7.4345e-14
4.02598e-12
2.15195e-08
1.64151e-11
-2.15345e-08
-1.63061e-12
9.60489e-12
2.10597e-08
2.34259e-11
-2.1082e-08
-4.25361e-12
6.07956e-12
-1.34106e-08
1.23224e-12
1.34019e-08
1.83011e-12
1.44007e-11
-2.11894e-08
6.19557e-12
2.11789e-08
1.43266e-11
3.35321e-12
1.31013e-08
7.37165e-13
5.0599e-11
-1.12613e-13
-4.56977e-12
-1.61526e-11
1.95939e-08
3.19322e-11
-2.08207e-08
1.46994e-11
2.0798e-08
-4.50481e-13
8.94595e-12
1.00825e-10
-1.34301e-10
1.33969e-10
-1.0156e-10
1.19197e-07
-2.43159e-13
-2.40369e-08
-1.02546e-11
9.57914e-11
2.40022e-08
1.45216e-11
-2.48046e-12
3.54064e-12
1.31059e-08
6.63365e-13
5.06787e-11
-1.61682e-11
-4.7761e-12
1.95913e-08
3.61373e-12
8.33067e-11
-1.33623e-10
1.33857e-10
-8.31103e-11
1.20473e-07
-1.02594e-11
3.23971e-11
-2.08091e-08
1.49661e-11
2.07865e-08
-2.40328e-08
9.57932e-11
-1.0365e-11
2.39979e-08
6.25934e-12
6.55551e-09
7.13572e-14
2.35375e-11
-2.11363e-08
-4.62132e-12
2.11134e-08
-3.5654e-12
4.44482e-12
1.64006e-11
-2.14942e-08
-1.49479e-12
2.14784e-08
5.39928e-13
-6.69229e-09
6.68692e-09
1.26648e-12
-5.94514e-12
1.4131e-11
-2.12002e-08
7.06109e-12
2.11894e-08
-1.34125e-08
1.51432e-12
1.34041e-08
1.4858e-12
-2.87915e-12
6.68981e-09
1.01193e-13
-2.40382e-12
4.12709e-12
6.68444e-09
-6.68968e-09
1.69569e-13
9.39962e-13
-4.88295e-12
6.56103e-09
-2.77649e-12
-1.03096e-12
5.78039e-12
6.55254e-09
-6.56119e-09
2.52292e-12
3.48426e-13
-1.59908e-11
5.9189e-13
2.15357e-08
-3.58865e-12
-2.24863e-11
4.95616e-12
2.10827e-08
-1.03979e-11
2.76366e-08
-2.74847e-08
-4.44329e-11
-4.32225e-11
-3.0435e-11
-3.38194e-11
2.15215e-08
-1.68504e-12
-2.15363e-08
1.65329e-11
4.03401e-12
2.10597e-08
-4.52022e-12
-2.10824e-08
2.31603e-11
9.85435e-12
3.63938e-12
-6.68991e-09
-1.74466e-13
6.68463e-09
1.80847e-12
-2.95319e-12
6.68978e-09
-1.07575e-13
-2.27902e-12
5.18879e-12
-6.56158e-09
2.55281e-12
6.55291e-09
9.30363e-13
-5.58726e-12
6.56132e-09
-2.64623e-12
-5.39742e-13
2.74844e-08
4.48664e-11
4.32865e-11
3.07522e-11
3.33847e-11
1.64357e-11
-2.15377e-08
-1.07662e-12
3.83242e-12
2.15221e-08
2.27515e-11
-2.1082e-08
-4.35584e-12
9.7155e-12
2.10591e-08
6.56172e-13
-1.60568e-11
2.15376e-08
-3.57216e-12
4.74714e-12
-2.27183e-11
2.10823e-08
-1.02386e-11
-3.38785e-12
6.69086e-13
-2.83965e-12
-6.68445e-09
8.10078e-12
-1.73815e-11
1.9611e-08
1.16113e-11
-2.04236e-11
-2.35619e-08
-1.85921e-11
2.35397e-08
3.37262e-11
2.34743e-11
4.36936e-13
-1.58506e-11
-3.79577e-12
-1.27698e-08
8.1856e-12
-1.36352e-12
1.27603e-08
9.74079e-13
3.24228e-13
-1.56694e-12
-3.36994e-11
-2.19734e-11
-1.2512e-11
1.95931e-08
2.00102e-11
9.28939e-12
-2.42819e-11
1.86171e-08
1.47892e-11
-1.71968e-11
-2.25626e-08
-2.36101e-11
2.25355e-08
4.07823e-11
3.33878e-11
5.17756e-12
-2.22719e-11
-1.04503e-11
-1.24425e-08
1.01042e-11
-2.60221e-12
1.24302e-08
6.35849e-13
2.87802e-12
-1.04246e-12
-3.99814e-11
-3.40701e-11
-1.44217e-11
1.86e-08
1.80363e-11
4.42835e-12
3.19853e-12
1.50071e-08
-5.45368e-09
4.29201e-12
5.44744e-09
5.99354e-13
-5.42718e-09
4.09924e-12
5.42013e-09
3.48579e-13
-1.55082e-12
-9.51634e-13
1.49886e-08
-5.69114e-12
-3.18219e-11
-1.75605e-12
-1.33707e-08
-2.06861e-08
1.02947e-11
9.91592e-12
2.0667e-08
7.91175e-14
-1.29762e-10
3.37257e-11
-2.0566e-08
-2.97109e-11
5.56316e-09
3.07144e-12
-5.55459e-09
-1.34772e-12
-4.6378e-12
6.80594e-12
2.73956e-11
2.01257e-08
1.98442e-12
5.40054e-09
7.18003e-13
-1.33404e-11
4.20072e-11
1.85817e-08
-1.04106e-12
-1.12052e-13
1.16441e-08
-3.94238e-13
9.59268e-09
-2.18814e-13
-4.78418e-12
6.93673e-12
2.77528e-11
2.01233e-08
1.92843e-12
5.40029e-09
5.96565e-13
-1.16542e-12
1.16427e-08
-4.35655e-13
-1.31445e-11
4.19105e-11
1.85768e-08
9.59129e-09
-1.70704e-13
-2.50026e-11
9.40006e-12
1.86178e-08
1.42143e-11
-1.66996e-11
-2.2918e-08
-2.35423e-11
4.304e-11
3.34103e-11
2.28886e-08
-2.24316e-11
4.96213e-12
-1.04536e-11
-1.24352e-08
1.00714e-11
-2.59956e-12
1.24224e-08
6.7755e-13
-4.05534e-11
-3.33863e-11
2.5739e-12
-1.09921e-12
-1.42503e-11
1.84066e-11
1.86002e-08
7.92003e-12
-1.48719e-11
1.96248e-08
1.12654e-11
-2.17454e-11
-2.31959e-08
-1.8776e-11
3.16747e-11
2.5632e-11
2.31738e-08
6.42053e-13
-1.66254e-11
3.28824e-12
-1.9161e-12
-1.27893e-08
8.03181e-12
-1.09012e-12
1.27797e-08
1.15913e-12
4.94252e-13
-1.46637e-12
-4.36416e-11
-5.57906e-12
-1.23022e-11
1.9658e-11
1.96067e-08
3.31526e-12
4.08628e-12
1.5016e-08
-5.42955e-09
3.83414e-12
5.4226e-09
5.23901e-13
-5.45719e-09
4.10888e-12
5.45102e-09
9.71953e-13
-1.02308e-12
-1.35998e-12
1.49974e-08
1.7765e-13
-1.95771e-12
-5.85807e-13
-5.36675e-12
-1.95714e-12
-2.06846e-08
4.96208e-13
1.00057e-11
2.06725e-08
3.08092e-12
-1.00883e-11
-3.40653e-13
-1.79541e-12
5.56358e-09
2.60136e-12
-5.56661e-09
9.32023e-13
6.68455e-09
3.59483e-12
2.01973e-13
1.45594e-12
-2.64953e-12
7.78807e-14
-2.5521e-12
6.55245e-09
5.63475e-12
2.40285e-12
5.40654e-13
-5.26006e-12
-2.62162e-12
-8.5001e-13
4.25763e-12
3.35671e-12
1.50077e-08
-1.49888e-08
-1.16072e-11
-1.4846e-11
-5.45361e-09
4.04321e-12
1.29688e-12
5.44738e-09
8.89506e-13
-5.42713e-09
3.78373e-12
2.48118e-12
5.42013e-09
7.37926e-13
-5.44738e-09
-4.73963e-13
-1.50951e-12
-5.42009e-09
-2.65598e-12
-1.02591e-12
1.24193e-11
1.41663e-11
1.49889e-08
-1.96112e-08
-8.39012e-12
1.83013e-11
-1.24207e-11
1.95937e-08
1.99438e-11
1.70827e-11
2.35622e-08
-3.40627e-11
-2.1488e-11
-8.07894e-12
1.27703e-08
3.71278e-13
-1.62685e-12
-1.41005e-12
1.66202e-11
2.15201e-08
3.89983e-12
1.15015e-11
-2.05601e-11
-1.09666e-12
1.27604e-08
1.1629e-12
2.35393e-08
3.43103e-11
2.35361e-11
-1.86175e-08
-1.0019e-11
2.31794e-11
-1.42506e-11
1.86005e-08
1.80127e-11
2.42834e-11
2.25631e-08
-4.00981e-11
-3.43413e-11
-9.38278e-12
1.2443e-08
2.53645e-12
-1.06033e-12
-4.03427e-12
2.3168e-11
2.10597e-08
9.52481e-12
1.46842e-11
-1.72481e-11
-2.4345e-12
1.24305e-08
9.46282e-13
2.25353e-08
4.08091e-11
3.33288e-11
-1.50074e-08
-4.23229e-12
-3.90556e-12
-4.15502e-12
5.45362e-09
-1.66742e-12
-3.2266e-12
5.42712e-09
-1.20907e-12
9.31215e-13
6.70923e-13
8.08141e-12
1.96114e-08
-1.7053e-11
-2.03423e-11
-1.27702e-08
8.19131e-12
1.27607e-08
9.51282e-13
5.4552e-13
-1.58423e-11
-3.49978e-12
-1.86808e-11
-2.35615e-08
2.35392e-08
3.40321e-11
2.34648e-11
-1.64726e-12
1.95935e-08
1.98504e-11
-3.35191e-11
-2.16172e-11
9.50812e-12
1.86176e-08
-2.41896e-11
-1.725e-11
-1.24433e-08
9.69655e-12
1.24308e-08
8.49675e-13
4.99061e-12
-2.26001e-11
-1.03394e-11
-2.37051e-11
-2.25631e-08
2.25357e-08
4.06601e-11
3.35653e-11
-1.03266e-12
1.86e-08
1.77802e-11
-4.01748e-11
-3.43822e-11
-6.68467e-09
-2.84781e-12
-2.55113e-13
-2.13249e-12
3.43709e-12
-1.01921e-13
1.77594e-12
-6.5528e-09
-5.63706e-12
-2.62616e-12
-5.15816e-13
5.12879e-12
2.46952e-12
9.13795e-13
-1.50075e-08
-4.00882e-12
-3.58756e-12
1.2161e-11
1.41259e-11
1.49888e-08
-4.54175e-12
5.45366e-09
-4.96654e-13
-1.24765e-12
-3.57827e-12
5.42719e-09
-2.6887e-12
-7.88805e-13
-1.17685e-11
-1.49424e-11
8.75005e-13
5.44749e-09
1.30036e-12
2.36658e-12
5.42022e-09
1.02294e-12
8.05085e-12
-1.72027e-11
1.96111e-08
-1.95932e-08
1.15588e-11
-2.03478e-11
-2.35612e-08
-1.82542e-11
3.36391e-11
2.35389e-08
2.32683e-11
8.07064e-13
-1.57904e-11
-2.15218e-08
-3.76509e-12
-1.27706e-08
8.33853e-12
-9.09521e-13
1.27609e-08
1.22918e-12
-1.27609e-08
6.39341e-13
-1.45088e-12
-2.35388e-08
-3.35051e-11
-2.18402e-11
-1.23079e-11
1.97754e-11
1.95937e-08
9.59418e-12
-2.43429e-11
1.86169e-08
-1.85995e-08
1.47553e-11
-1.74083e-11
-2.25621e-08
-2.33665e-11
4.04339e-11
2.25343e-08
3.35001e-11
4.77502e-12
-2.28343e-11
-2.10593e-08
-1.03546e-11
-1.24434e-08
9.87151e-12
-2.43422e-12
1.24306e-08
9.44998e-13
-1.24308e-08
2.68705e-12
-9.05235e-13
-2.25348e-08
-4.02345e-11
-3.42193e-11
-1.42657e-11
1.77958e-11
1.85999e-08
-1.96108e-08
-8.06434e-12
1.81737e-11
1.9646e-11
-8.42995e-12
1.27707e-08
-1.43518e-12
1.71553e-11
2.35613e-08
-3.35634e-11
-2.17743e-11
-1.18231e-12
1.66234e-11
3.79226e-12
-2.03042e-11
1.3974e-12
3.41067e-11
2.32243e-11
-1.86168e-08
-9.64055e-12
2.32198e-11
1.77599e-11
-9.84103e-12
1.24435e-08
-8.07135e-13
2.40823e-11
2.25632e-08
-4.01016e-11
-3.41081e-11
-4.33694e-12
2.29292e-11
9.59458e-12
-1.74571e-11
1.09603e-12
4.07993e-11
3.36761e-11
4.31859e-12
3.51222e-12
1.50073e-08
-5.45371e-09
4.14762e-12
5.44741e-09
1.24597e-12
-5.42723e-09
3.69584e-12
5.42017e-09
9.40246e-13
-1.25484e-12
-8.15399e-13
1.49886e-08
-2.09829e-11
-2.87856e-11
2.27359e-08
4.45618e-11
4.33087e-11
-2.5969e-08
-2.13593e-11
2.59599e-08
-2.47115e-08
-2.80867e-11
2.47008e-08
2.27245e-08
-3.95927e-11
-9.2187e-12
2.27271e-08
3.50904e-11
8.79602e-11
-2.57983e-08
-2.43928e-11
2.57796e-08
-2.48553e-08
-2.55448e-11
2.48499e-08
2.27152e-08
-2.27361e-08
2.13436e-11
2.79664e-11
2.27248e-08
2.07145e-11
2.59686e-08
-1.858e-11
2.86927e-11
2.47114e-08
-3.61109e-11
-4.45176e-11
-4.32514e-11
2.7637e-08
-3.0398e-11
-3.39387e-11
2.59591e-08
2.0682e-11
2.47006e-08
3.62603e-11
-2.07174e-11
-2.89018e-11
2.27361e-08
-2.27243e-08
4.47577e-11
4.3359e-11
-2.76365e-08
3.07401e-11
3.33953e-11
-2.59677e-08
-2.14129e-11
2.02362e-11
2.59582e-08
-2.47112e-08
-2.80301e-11
3.61468e-11
2.47004e-08
-2.59586e-08
-1.85429e-11
-2.47009e-08
-3.61686e-11
2.27242e-08
9.69839e-13
1.27049e-07
6.12658e-11
1.3099e-07
-3.05886e-12
2.41913e-11
9.89575e-11
2.63215e-08
-3.29679e-11
-2.50004e-08
2.51695e-11
2.49814e-08
-1.38296e-11
-1.74806e-11
-2.33236e-08
1.47129e-11
2.33178e-08
7.13427e-12
-4.90682e-11
2.63704e-08
7.50377e-12
3.80939e-11
5.15257e-11
2.59465e-08
2.51161e-11
-2.46159e-08
3.71832e-11
2.45828e-08
-3.06508e-11
-1.58792e-11
-2.28297e-08
5.12644e-11
1.39421e-11
2.28066e-08
-1.42071e-11
-2.56198e-11
2.59978e-08
7.47134e-11
-1.86217e-11
2.60509e-08
1.04296e-11
-9.51416e-11
-1.60215e-13
-2.32698e-08
7.56577e-11
2.32398e-08
-2.69903e-08
-1.83882e-11
-7.2942e-12
2.69775e-08
6.88551e-12
2.5981e-08
5.05002e-11
4.11736e-11
2.59131e-08
-2.97012e-11
-2.46167e-08
4.06557e-11
2.45807e-08
-1.55503e-11
-3.08351e-11
-2.28161e-08
5.1038e-11
1.66412e-11
2.27911e-08
-1.6952e-11
2.91465e-11
2.59317e-08
-2.17277e-11
7.42823e-11
2.6047e-08
-9.51916e-11
1.01941e-11
-2.69864e-08
-2.14558e-11
2.69627e-08
-2.32589e-08
7.45268e-11
2.32326e-08
2.60461e-08
1.89546e-11
1.60002e-11
2.63462e-08
5.36779e-11
-2.49826e-08
2.19327e-11
2.49691e-08
-1.39955e-11
-6.06368e-12
-2.33231e-08
1.57357e-11
2.33198e-08
4.65626e-12
-3.88167e-12
2.64301e-08
-5.40302e-11
2.27366e-08
-2.07693e-11
-2.86645e-11
4.48095e-11
4.33488e-11
3.07477e-11
3.33801e-11
-2.13682e-11
-2.59681e-08
2.59588e-08
2.02113e-11
-2.82603e-11
-2.47112e-08
2.47007e-08
3.61566e-11
2.27246e-08
-1.84497e-11
-3.60336e-11
-2.27361e-08
2.14483e-11
2.77746e-11
-4.45573e-11
-4.31381e-11
-3.05e-11
-3.39885e-11
2.06859e-11
2.59682e-08
-1.8728e-11
2.8542e-11
2.47114e-08
-3.60939e-11
2.05495e-11
3.60274e-11
-2.63184e-12
-3.25553e-13
3.60324e-12
-1.20166e-12
1.2297e-07
-3.41684e-11
-5.80153e-13
-3.28232e-13
1.14841e-07
3.51915e-11
3.42719e-11
-3.23142e-11
-6.29422e-11
6.07731e-11
-6.38375e-11
6.3855e-11
-1.14841e-07
-4.0851e-11
1.2664e-12
-3.64906e-12
1.15979e-07
2.1419e-11
3.95299e-11
-2.43475e-11
-7.65041e-12
3.16168e-11
-3.26048e-11
8.05851e-12
2.31596e-11
3.94335e-11
5.24911e-11
3.68176e-11
2.75006e-08
-2.76525e-08
-2.02715e-12
1.2832e-12
-1.2297e-07
-3.22832e-13
1.52228e-12
1.22969e-07
-1.14842e-07
-3.38362e-11
-8.72669e-13
4.23049e-13
1.14841e-07
3.58311e-11
3.4648e-11
-3.5568e-11
-6.29303e-11
6.10522e-11
6.40721e-11
-6.16923e-11
-1.15982e-07
-3.9147e-11
8.60117e-13
-1.43597e-13
1.15982e-07
2.29769e-11
3.95167e-11
-2.40425e-11
-7.86808e-12
3.19098e-11
8.49465e-12
-3.25416e-11
-2.76513e-08
2.28133e-11
3.96588e-11
5.22038e-11
3.72011e-11
2.74994e-08
-1.87306e-12
4.24753e-13
-1.22971e-07
-7.69339e-14
2.25941e-12
1.2297e-07
-1.14838e-07
-3.35407e-11
-9.90219e-13
-1.26232e-12
1.14836e-07
3.58617e-11
3.5017e-11
-3.16033e-11
-6.27862e-11
6.10128e-11
6.37692e-11
-6.37628e-11
-1.1598e-07
-3.88965e-11
8.47988e-13
-1.56883e-13
1.15979e-07
2.31143e-11
3.97952e-11
-2.37009e-11
-7.64462e-12
3.19632e-11
8.40088e-12
-3.22767e-11
-2.76501e-08
2.26496e-11
3.95463e-11
5.24798e-11
3.71577e-11
2.74983e-08
-1.13501e-12
1.16859e-12
-1.22973e-07
-9.98079e-13
-2.31871e-13
1.22975e-07
-1.14836e-07
-3.36626e-11
-1.79472e-13
-4.07113e-13
1.14834e-07
3.57778e-11
3.49222e-11
-3.54088e-11
-6.31597e-11
6.12578e-11
6.38074e-11
-6.13259e-11
-1.15974e-07
-3.86043e-11
2.76948e-12
2.775e-13
1.15972e-07
2.34724e-11
3.97074e-11
-2.38012e-11
-7.87356e-12
3.1608e-11
8.0829e-12
-3.28503e-11
-2.76501e-08
2.31126e-11
3.95263e-11
5.26187e-11
3.67903e-11
2.74981e-08
-5.92474e-13
1.3582e-12
-1.2298e-07
-1.04895e-12
-2.84935e-13
1.22981e-07
-1.14833e-07
-3.35629e-11
-4.24526e-14
-1.28482e-12
1.14832e-07
3.583e-11
3.4859e-11
-3.1785e-11
-6.30903e-11
6.07199e-11
6.3437e-11
-6.40435e-11
-1.15967e-07
-3.86568e-11
2.38415e-12
-3.84822e-13
1.15966e-07
2.33608e-11
3.97458e-11
-2.37675e-11
-8.29676e-12
3.1453e-11
7.95924e-12
-3.3045e-11
-2.76489e-08
2.30807e-11
3.96688e-11
5.22753e-11
3.67439e-11
2.74971e-08
3.44184e-13
1.55359e-13
-1.22985e-07
-9.01454e-13
-5.1009e-13
1.22986e-07
-1.14834e-07
-3.34721e-11
3.04715e-13
-1.33747e-12
1.14833e-07
3.58552e-11
3.51375e-11
-3.5287e-11
-6.32127e-11
6.08882e-11
6.33096e-11
-6.18463e-11
-1.15965e-07
-3.8799e-11
2.341e-12
-1.63209e-13
1.15966e-07
2.30753e-11
3.97446e-11
-2.42373e-11
-8.10848e-12
3.14493e-11
7.72399e-12
-3.32319e-11
-2.7649e-08
2.32578e-11
3.9629e-11
5.24593e-11
3.65477e-11
2.74971e-08
-1.08118e-12
2.81825e-13
-1.22989e-07
4.68544e-13
8.45779e-13
1.22988e-07
-1.14836e-07
-3.33278e-11
-1.03831e-12
-2.16557e-12
1.14835e-07
3.60452e-11
3.52051e-11
-3.12828e-11
-6.29522e-11
6.08025e-11
6.35937e-11
-6.37746e-11
-1.15969e-07
-3.91343e-11
1.22295e-12
4.25172e-14
1.1597e-07
2.28985e-11
3.9334e-11
-2.39651e-11
-7.72704e-12
3.14627e-11
7.89353e-12
-3.27034e-11
-2.76492e-08
2.31872e-11
3.9802e-11
5.20769e-11
3.67085e-11
2.74974e-08
-4.54443e-13
8.7387e-13
-1.2299e-07
-1.19456e-12
1.57679e-13
1.22991e-07
-1.14834e-07
-3.35802e-11
-4.56032e-13
-1.51203e-12
1.14834e-07
3.60254e-11
3.5051e-11
-3.48353e-11
-6.30743e-11
6.08257e-11
6.35754e-11
-6.1671e-11
-1.15973e-07
-3.89704e-11
1.03909e-12
8.36981e-14
1.15973e-07
2.29993e-11
3.94403e-11
-2.39753e-11
-7.6286e-12
3.15803e-11
7.85497e-12
-3.24109e-11
-2.7648e-08
2.28034e-11
3.98395e-11
5.23598e-11
3.69482e-11
2.74961e-08
1.23135e-13
8.42384e-13
-1.22991e-07
-8.84602e-14
6.5583e-13
1.22989e-07
-1.14834e-07
-3.31947e-11
-1.32342e-12
-2.57585e-12
1.14833e-07
3.61036e-11
3.52692e-11
-3.15408e-11
-6.30408e-11
6.08486e-11
6.38503e-11
-6.34614e-11
-1.15971e-07
-3.89607e-11
6.87194e-13
2.61146e-13
1.15971e-07
2.30042e-11
3.95461e-11
-2.39823e-11
-7.61494e-12
3.16036e-11
8.2174e-12
-3.25573e-11
-2.76475e-08
2.28969e-11
3.9607e-11
5.22734e-11
3.69103e-11
2.74958e-08
1.84999e-13
1.41434e-12
-1.22989e-07
-9.97047e-13
2.20691e-13
1.22988e-07
-1.14834e-07
-3.35488e-11
-1.7142e-12
-1.87022e-12
1.14834e-07
3.5865e-11
3.50485e-11
-3.50433e-11
-6.29266e-11
6.11902e-11
6.39874e-11
-6.09286e-11
-1.15974e-07
-3.91358e-11
8.3608e-13
-4.28825e-14
1.15974e-07
2.3032e-11
3.94165e-11
-2.40372e-11
-7.46333e-12
3.17092e-11
8.23135e-12
-3.25939e-11
-2.76479e-08
2.28295e-11
3.9629e-11
5.2228e-11
3.71889e-11
2.7496e-08
-1.01432e-13
1.82592e-12
-1.22989e-07
-1.15548e-12
1.57253e-13
1.22988e-07
-1.1483e-07
-3.36258e-11
-1.1966e-12
-7.89975e-13
1.14828e-07
3.56237e-11
3.4836e-11
-3.19998e-11
-6.25883e-11
6.1437e-11
6.40004e-11
-6.32187e-11
-1.15975e-07
-3.88426e-11
-2.89032e-13
-2.49525e-13
1.15976e-07
2.30005e-11
3.98664e-11
-2.41211e-11
-7.63342e-12
3.19907e-11
8.15976e-12
-3.23944e-11
-2.76476e-08
2.28288e-11
3.98413e-11
5.21051e-11
3.70541e-11
2.74957e-08
-1.55478e-12
1.31954e-12
-1.22988e-07
-1.78498e-13
1.96094e-12
1.22986e-07
-1.14826e-07
-3.37046e-11
-2.58365e-12
-4.60247e-13
1.14826e-07
3.58631e-11
3.47685e-11
-3.58795e-11
-6.27684e-11
6.1598e-11
6.41204e-11
-6.06426e-11
-1.15973e-07
-3.88669e-11
5.4894e-13
4.50503e-13
1.15972e-07
2.32727e-11
3.94939e-11
-2.41012e-11
-7.62876e-12
3.22219e-11
8.3691e-12
-3.24578e-11
-2.76481e-08
2.24764e-11
3.95052e-11
5.23129e-11
3.73257e-11
2.74965e-08
-1.81355e-12
2.0993e-12
-1.22987e-07
-1.07571e-12
1.20776e-12
1.22987e-07
-1.1483e-07
-3.41018e-11
-3.07001e-12
-4.48508e-13
1.1483e-07
3.55114e-11
3.46886e-11
-3.2505e-11
-6.29778e-11
6.14838e-11
6.38477e-11
-6.33243e-11
-1.15971e-07
-3.90739e-11
-9.22828e-14
1.71113e-13
1.15971e-07
2.29112e-11
3.96066e-11
-2.40951e-11
-7.3077e-12
3.21309e-11
8.31138e-12
-3.24533e-11
-2.76492e-08
2.26223e-11
3.94546e-11
5.24962e-11
3.7275e-11
2.74974e-08
-1.75402e-12
1.45753e-12
-1.22987e-07
-2.97179e-13
1.85543e-12
1.22986e-07
-1.14835e-07
-3.39436e-11
-1.44975e-12
-2.41434e-13
1.14835e-07
3.59639e-11
3.48716e-11
-3.58417e-11
-6.26862e-11
6.10229e-11
6.3891e-11
-6.13009e-11
-1.15972e-07
-3.8916e-11
-7.12008e-13
1.99678e-13
1.15972e-07
2.29329e-11
3.95527e-11
-2.39552e-11
-7.29206e-12
3.19372e-11
8.33823e-12
-3.24409e-11
-2.76494e-08
2.28561e-11
3.97897e-11
5.23179e-11
3.68506e-11
2.74976e-08
-1.93597e-12
1.30165e-12
-1.22985e-07
-9.71027e-13
1.60914e-12
1.22985e-07
-1.14833e-07
-3.36903e-11
-1.35912e-12
1.15967e-14
1.14831e-07
3.59011e-11
3.48456e-11
-3.20507e-11
-6.27257e-11
6.06289e-11
6.37276e-11
-6.39893e-11
-1.15973e-07
-3.8852e-11
-1.7141e-13
1.44497e-13
1.15973e-07
2.33471e-11
3.96066e-11
-2.39094e-11
-7.63655e-12
3.2262e-11
8.21152e-12
-3.26043e-11
-2.76494e-08
2.28264e-11
3.9683e-11
5.21645e-11
3.68811e-11
2.74979e-08
-1.51151e-12
1.17229e-12
-1.22986e-07
-6.53595e-13
8.69995e-13
1.22986e-07
-1.14834e-07
-3.36973e-11
-1.77402e-12
-3.95706e-13
1.14834e-07
3.62057e-11
3.47408e-11
-3.57414e-11
-6.30642e-11
6.11656e-11
6.3677e-11
-6.11855e-11
-1.1597e-07
-3.88143e-11
1.10691e-12
5.37818e-13
1.15969e-07
2.31874e-11
3.97349e-11
-2.39953e-11
-8.07522e-12
3.18766e-11
8.1764e-12
-3.27821e-11
-2.76506e-08
2.28943e-11
3.96696e-11
5.23051e-11
3.69102e-11
2.74988e-08
-1.54673e-12
2.41699e-13
-1.22991e-07
-1.03119e-12
4.13715e-13
1.22993e-07
-1.14836e-07
-3.40533e-11
-1.00699e-12
3.55987e-13
1.14835e-07
3.55854e-11
3.4508e-11
-3.24329e-11
-6.31559e-11
6.1078e-11
6.37253e-11
-6.37101e-11
-1.15968e-07
-3.90385e-11
1.96003e-12
3.08441e-13
1.15967e-07
2.30766e-11
3.94191e-11
-2.04953e-11
-7.96711e-12
3.15666e-11
8.00339e-12
-3.52014e-11
-2.76497e-08
2.2859e-11
3.94891e-11
5.25731e-11
3.67642e-11
2.7498e-08
3.0729e-12
1.1706e-07
1.6199e-11
2.99357e-11
-1.67466e-11
-3.2051e-11
-3.07307e-11
1.35074e-12
4.70381e-13
1.17094e-07
1.87954e-11
3.0954e-11
-2.42202e-11
1.58925e-11
2.96319e-11
-2.89853e-11
-1.70806e-11
-1.1709e-07
1.17057e-07
3.33008e-12
-1.17059e-07
2.42581e-12
-1.65314e-11
-3.16694e-11
1.59736e-11
3.00236e-11
3.13242e-11
1.17095e-07
7.76445e-13
-1.17096e-07
1.16385e-12
-3.04518e-11
-1.9995e-11
2.28659e-11
-1.67919e-11
-3.13229e-11
2.68307e-11
1.67264e-11
4.38908e-11
4.41039e-11
2.74861e-08
-2.7639e-08
-3.47421e-11
2.76387e-08
-2.74858e-08
-4.36416e-11
-4.32592e-11
4.22913e-13
1.14854e-07
-6.3253e-11
6.01384e-11
6.34092e-11
-6.16282e-11
-2.27697e-11
1.13896e-12
3.08718e-13
1.15908e-07
3.27934e-11
2.36174e-11
-3.2981e-11
-4.3746e-11
5.8843e-11
-6.082e-11
4.31811e-11
1.14852e-07
-1.07053e-12
-1.14853e-07
-1.4654e-13
6.34705e-11
-6.07103e-11
-6.27561e-11
6.0901e-11
2.38002e-11
1.15906e-07
-4.24363e-13
-1.15906e-07
-1.13718e-15
-2.30832e-11
-3.28539e-11
3.26207e-11
4.36513e-11
-6.04149e-11
5.96316e-11
-4.29029e-11
-1.49798e-12
7.18967e-15
1.15935e-07
3.24456e-11
2.42022e-11
-3.27562e-11
-4.35397e-11
6.05411e-11
-6.09962e-11
4.3897e-11
-1.15935e-07
-1.86355e-12
-1.14841e-07
1.35498e-13
-3.3992e-11
-3.55602e-11
3.17403e-11
6.39252e-11
-6.09343e-11
-6.24879e-11
6.3457e-11
2.42352e-11
1.15933e-07
-8.85688e-13
-1.15933e-07
3.35469e-13
-2.30397e-11
-3.24167e-11
3.24522e-11
4.38355e-11
-6.05788e-11
6.02878e-11
-4.32929e-11
5.13694e-11
3.77945e-11
2.74894e-08
-3.92654e-11
2.76381e-08
-2.74876e-08
-5.10114e-11
-3.63905e-11
6.2669e-13
6.13398e-13
1.16052e-07
2.29445e-11
4.01521e-11
-2.36681e-11
-7.20259e-12
3.12251e-11
-3.21126e-11
7.64039e-12
-1.16052e-07
2.12099e-13
-1.15981e-07
1.31614e-13
-3.91867e-11
-2.4175e-11
2.27277e-11
8.22126e-12
-3.22627e-11
-7.38477e-12
3.18738e-11
4.02075e-11
1.16049e-07
1.49448e-13
-1.1605e-07
7.29713e-13
-3.9757e-11
-2.36874e-11
2.30307e-11
8.1378e-12
-3.20203e-11
3.12952e-11
-7.02231e-12
-2.74994e-08
-5.18544e-11
-3.56465e-11
3.04185e-11
3.31647e-11
4.52203e-11
4.35235e-11
2.74841e-08
-3.08809e-11
-3.39654e-11
2.76353e-08
-2.74831e-08
-4.43131e-11
-4.29984e-11
1.759e-12
1.17057e-07
1.89354e-11
3.07665e-11
-2.01859e-11
1.59339e-11
2.9881e-11
-1.65437e-11
-3.16504e-11
-3.06529e-11
2.33514e-12
1.60317e-12
1.17095e-07
1.88509e-11
3.09109e-11
-2.00403e-11
1.61106e-11
2.93302e-11
-1.68166e-11
-3.17667e-11
1.17053e-07
2.07324e-12
-1.17055e-07
1.45198e-12
-3.03384e-11
-1.96062e-11
1.89797e-11
-1.68259e-11
-3.1578e-11
2.99559e-11
1.63577e-11
3.11446e-11
1.17096e-07
1.67192e-12
-1.17096e-07
8.80104e-13
-3.04449e-11
-1.96341e-11
1.90113e-11
-1.72264e-11
-3.12231e-11
2.94762e-11
1.63675e-11
4.39847e-11
4.43001e-11
2.7486e-08
-3.49262e-11
2.7639e-08
-2.74862e-08
-4.31333e-11
-4.3571e-11
1.6868e-14
1.14853e-07
3.59932e-11
3.40899e-11
-3.65126e-11
-6.28022e-11
6.07597e-11
6.38688e-11
-6.14537e-11
-2.2941e-11
-2.75485e-13
-5.76604e-13
1.15907e-07
3.268e-11
2.41617e-11
-3.30123e-11
-4.34329e-11
5.97074e-11
4.365e-11
-6.05193e-11
1.14853e-07
-4.40032e-13
-1.14853e-07
-4.7147e-13
-3.33311e-11
-3.62423e-11
3.62228e-11
6.37997e-11
-6.09794e-11
6.07015e-11
-6.26249e-11
2.4232e-11
1.15904e-07
5.54331e-14
-1.15906e-07
1.87535e-13
-2.24312e-11
-3.26325e-11
3.30442e-11
4.35629e-11
-6.06186e-11
5.98083e-11
-4.34216e-11
-6.54851e-13
-2.63295e-13
1.15932e-07
3.23649e-11
2.43731e-11
-3.26374e-11
-4.34535e-11
6.01668e-11
-6.06952e-11
4.38566e-11
-1.36438e-12
-1.14838e-07
-1.0674e-12
-3.34367e-11
-3.54776e-11
3.57232e-11
6.38747e-11
-6.11948e-11
-6.29273e-11
6.11449e-11
2.46051e-11
1.15932e-07
-5.31028e-13
-1.15933e-07
-2.46272e-13
-2.28e-11
-3.22212e-11
3.26897e-11
4.38462e-11
-6.09425e-11
5.99077e-11
-4.33681e-11
5.14366e-11
3.75419e-11
2.7487e-08
-3.95691e-11
2.76373e-08
-2.74867e-08
-5.07692e-11
-3.61036e-11
1.19334e-12
6.98147e-13
1.16048e-07
2.31e-11
4.02046e-11
-2.39128e-11
-7.36939e-12
3.13178e-11
-3.24755e-11
7.75993e-12
3.48057e-13
-1.15981e-07
3.52809e-13
-3.86705e-11
-2.3897e-11
2.34657e-11
8.31565e-12
-3.25057e-11
-7.62318e-12
3.17863e-11
4.03867e-11
1.16048e-07
1.34977e-13
-1.16048e-07
3.28107e-13
-3.97271e-11
-2.40797e-11
2.27826e-11
7.86673e-12
-3.18194e-11
3.16987e-11
-7.15224e-12
-2.74983e-08
-5.13045e-11
-3.55544e-11
3.03546e-11
3.33183e-11
4.49618e-11
4.35969e-11
2.7483e-08
-3.078e-11
-3.43411e-11
2.7635e-08
-2.74827e-08
-4.40587e-11
-4.30897e-11
1.31809e-12
1.17053e-07
1.90452e-11
3.07691e-11
-2.00888e-11
1.58673e-11
2.98239e-11
-1.65716e-11
-3.15777e-11
-3.0624e-11
2.13412e-12
7.70166e-13
1.17097e-07
1.90651e-11
3.12279e-11
-2.41063e-11
1.63361e-11
2.95383e-11
-1.67227e-11
-2.92435e-11
1.17056e-07
6.62122e-13
-1.17055e-07
-2.00032e-14
-3.0738e-11
-2.00536e-11
1.88268e-11
-1.641e-11
-3.15831e-11
3.00334e-11
1.65704e-11
3.14252e-11
1.17094e-07
8.88853e-13
-1.17096e-07
1.57689e-12
-3.04821e-11
-1.98604e-11
2.28767e-11
-1.69618e-11
-3.08803e-11
2.71592e-11
1.63069e-11
4.45098e-11
4.42513e-11
2.74861e-08
-3.48405e-11
2.76381e-08
-2.74853e-08
-4.34081e-11
-4.30762e-11
-7.4256e-14
1.14853e-07
3.59389e-11
3.39641e-11
-3.61358e-11
-6.32643e-11
6.0755e-11
6.35998e-11
-6.11282e-11
-2.26711e-11
-1.69367e-13
-9.81403e-14
1.15903e-07
3.30603e-11
2.43585e-11
-3.28355e-11
-4.33107e-11
5.9825e-11
4.34749e-11
-6.03641e-11
1.14852e-07
2.27349e-13
-1.14852e-07
-2.32059e-13
-3.32784e-11
-3.63359e-11
3.58832e-11
6.37074e-11
-6.12458e-11
6.05843e-11
-6.31009e-11
2.40315e-11
1.15901e-07
-1.40164e-12
-1.15901e-07
-2.63356e-13
-2.29974e-11
-3.27669e-11
3.30006e-11
4.37592e-11
-6.00303e-11
5.97615e-11
-4.28331e-11
3.54934e-13
2.6546e-14
1.1593e-07
3.2561e-11
2.44123e-11
-3.2586e-11
-4.36239e-11
6.00654e-11
-6.08787e-11
4.37935e-11
-8.85227e-13
-1.14835e-07
-6.38057e-13
-3.40371e-11
-3.52918e-11
3.18477e-11
6.39277e-11
-6.0974e-11
-6.27128e-11
6.33696e-11
2.41415e-11
1.15925e-07
1.03385e-13
-1.15926e-07
2.50638e-13
-2.30199e-11
-3.24958e-11
3.24454e-11
4.37404e-11
-6.05262e-11
6.02346e-11
-4.34891e-11
5.18656e-11
3.7728e-11
2.74862e-08
-3.97977e-11
2.76352e-08
-2.74844e-08
-5.05243e-11
-3.64202e-11
3.42173e-13
-1.42238e-13
1.16047e-07
2.31095e-11
4.01769e-11
-2.37649e-11
-7.33969e-12
3.14811e-11
-3.23565e-11
8.27564e-12
1.7006e-12
-1.15976e-07
-9.19445e-14
-3.88229e-11
-2.39103e-11
2.31382e-11
8.1229e-12
-3.26057e-11
-7.83663e-12
3.18959e-11
4.04955e-11
1.16044e-07
8.31553e-13
-1.16046e-07
-2.06018e-13
-3.93632e-11
-2.37901e-11
2.30897e-11
8.0997e-12
-3.20268e-11
3.14527e-11
-7.3428e-12
-2.74984e-08
-5.12716e-11
-3.58319e-11
3.04634e-11
3.30281e-11
4.49481e-11
4.36401e-11
2.74829e-08
-3.11332e-11
-3.45346e-11
2.76352e-08
-2.74829e-08
-4.38544e-11
-4.27927e-11
2.90393e-13
1.17059e-07
1.85298e-11
3.08177e-11
-2.02342e-11
1.60393e-11
2.96851e-11
-1.68154e-11
-3.17969e-11
-3.05209e-11
1.95795e-12
1.71264e-12
1.17094e-07
1.87341e-11
3.1176e-11
-2.00916e-11
1.61187e-11
2.99436e-11
-1.69309e-11
-3.16894e-11
1.17064e-07
3.35808e-13
-1.17064e-07
2.39979e-14
-3.05235e-11
-1.9847e-11
1.90526e-11
-1.65369e-11
-3.10421e-11
3.03601e-11
1.63754e-11
3.08549e-11
1.1709e-07
1.24709e-12
-1.17091e-07
2.64414e-12
-3.09572e-11
-2.01859e-11
1.87226e-11
-1.6657e-11
-3.08654e-11
2.98446e-11
1.65565e-11
4.4274e-11
4.44803e-11
2.74851e-08
-3.49562e-11
2.76372e-08
-2.74844e-08
-4.3286e-11
-4.37085e-11
-8.81837e-13
1.14852e-07
3.61927e-11
3.42428e-11
-3.59458e-11
-6.31435e-11
6.06947e-11
6.35754e-11
-6.12047e-11
-2.29094e-11
-8.60604e-13
5.86987e-13
1.15901e-07
3.25143e-11
2.38349e-11
-3.29857e-11
-4.31618e-11
5.98935e-11
4.3844e-11
-6.05017e-11
1.14853e-07
-1.01056e-12
-1.14853e-07
-1.40617e-12
-3.32286e-11
-3.58825e-11
3.60332e-11
6.36e-11
-6.08275e-11
6.10143e-11
-6.30476e-11
2.38336e-11
1.15898e-07
-3.7626e-13
-1.15899e-07
1.16336e-12
-2.30114e-11
-3.29451e-11
3.2767e-11
4.34936e-11
-6.01394e-11
5.98353e-11
-4.3305e-11
-1.45934e-14
4.50847e-15
1.15925e-07
3.24565e-11
2.42509e-11
-3.26194e-11
-4.35362e-11
6.00929e-11
-6.08283e-11
4.38629e-11
-7.33195e-13
-1.14833e-07
-1.20804e-12
-3.36552e-11
-3.51276e-11
3.59579e-11
6.36148e-11
-6.1379e-11
-6.31535e-11
6.08152e-11
2.40891e-11
1.15924e-07
9.05441e-16
-1.15924e-07
1.07534e-12
-2.33173e-11
-3.29517e-11
3.22047e-11
4.36942e-11
-6.07115e-11
5.97107e-11
-4.37204e-11
5.17849e-11
3.75445e-11
2.74843e-08
-3.97269e-11
2.76353e-08
-2.74843e-08
-5.08328e-11
-3.66735e-11
1.59502e-12
-4.72225e-13
1.16044e-07
2.30316e-11
4.04719e-11
-2.36531e-11
-7.5352e-12
3.12266e-11
-3.22744e-11
7.71434e-12
1.72297e-12
-1.15968e-07
-5.60109e-13
-3.86606e-11
-2.38808e-11
2.34609e-11
8.00373e-12
-3.26946e-11
-7.56528e-12
3.17261e-11
4.00966e-11
1.1604e-07
1.62198e-12
-1.16041e-07
7.91449e-13
-3.99161e-11
-2.38998e-11
2.28546e-11
7.97056e-12
-3.22247e-11
3.10255e-11
-7.31255e-12
-2.74971e-08
-5.1919e-11
-3.57292e-11
3.03117e-11
3.28492e-11
4.52197e-11
4.37006e-11
2.74831e-08
-3.10761e-11
-3.47631e-11
2.76356e-08
-2.74832e-08
-4.38143e-11
-4.27771e-11
9.74951e-13
1.17065e-07
1.87089e-11
3.08917e-11
-2.02171e-11
1.63963e-11
3.02681e-11
-1.65417e-11
-3.156e-11
-3.10357e-11
2.06057e-12
2.75558e-12
1.17091e-07
1.85067e-11
3.06604e-11
-2.44004e-11
1.62878e-11
2.96368e-11
-1.68135e-11
-2.87501e-11
1.17067e-07
8.81009e-14
-1.17067e-07
1.01984e-12
-3.041e-11
-2.01699e-11
1.87505e-11
-1.60174e-11
-3.12183e-11
3.01247e-11
1.68228e-11
3.11997e-11
1.17091e-07
3.60321e-13
-1.17092e-07
2.0211e-12
-3.06622e-11
-2.00141e-11
2.253e-11
-1.67515e-11
-3.10737e-11
2.74537e-11
1.65622e-11
4.43884e-11
4.39017e-11
2.74843e-08
-3.50625e-11
2.76373e-08
-2.74844e-08
-4.31897e-11
-4.34332e-11
-1.31008e-12
1.14854e-07
3.65243e-11
3.45341e-11
-3.57268e-11
-6.30018e-11
6.04282e-11
6.35754e-11
-6.13928e-11
-2.2997e-11
7.97881e-13
1.63573e-12
1.15897e-07
3.24294e-11
2.38554e-11
-3.32336e-11
-4.37915e-11
5.95289e-11
4.32644e-11
-6.08489e-11
1.14854e-07
-9.2981e-13
-1.14855e-07
-1.6589e-12
-3.284e-11
-3.56234e-11
3.66397e-11
6.382e-11
-6.10384e-11
6.06061e-11
-6.27602e-11
2.39844e-11
1.15896e-07
-1.88479e-13
-1.15897e-07
1.04531e-12
-2.28864e-11
-3.28443e-11
3.24222e-11
4.34068e-11
-6.03213e-11
5.97794e-11
-4.36365e-11
5.65336e-13
1.06601e-12
1.15924e-07