/*--------------------------------*- C++ -*----------------------------------*\
| =========                 |                                                 |
| \\      /  F ield         | OpenFOAM: The Open Source CFD Toolbox           |
|  \\    /   O peration     | Version:  2206                                  |
|   \\  /    A nd           | Website:  www.openfoam.com                      |
|    \\/     M anipulation  |                                                 |
\*---------------------------------------------------------------------------*/
FoamFile
{
    version     2.0;
    format      ascii;
    arch        "LSB;label=32;scalar=64";
    class       volVectorField;
    location    "100";
    object      U;
}
// * * * * * * * * * * * * * * * * * * * * * * * * * * * * * * * * * * * * * //

dimensions      [0 1 -1 0 0 0 0];

internalField   nonuniform List<vector> 
66928
(
(-0.000162857 -0.000164804 0.129611)
(2.78272e-06 2.37588e-06 0.135117)
(-6.24569e-07 1.36935e-06 0.134838)
(2.27058e-06 -7.56744e-07 0.134826)
(-0.000161341 0.000163794 0.129596)
(3.36975e-06 -1.05095e-06 0.1351)
(0.000160204 0.000157651 0.129765)
(-0.000163537 -0.000163493 0.129607)
(-4.82254e-07 1.52362e-06 0.142538)
(1.91421e-06 1.91761e-07 0.142539)
(-6.2538e-06 -3.79642e-06 0.0604135)
(-1.62427e-06 -2.33837e-06 0.0601981)
(-1.81408e-05 -3.42054e-06 0.0842013)
(-1.96964e-06 -1.13501e-05 0.0837602)
(-4.49009e-06 -2.39028e-05 0.0707858)
(-2.62827e-05 -2.43244e-05 0.0997026)
(-1.71514e-05 -1.05258e-06 0.0703341)
(-2.87147e-05 1.08669e-06 0.0960328)
(-2.13125e-05 -1.9148e-05 0.0990236)
(-1.88528e-07 -6.98213e-07 0.138858)
(-3.59689e-05 2.56814e-07 0.115501)
(-1.67289e-05 -1.28795e-08 0.0703772)
(-2.80411e-05 -1.8261e-06 0.0960354)
(-9.59018e-07 1.82706e-06 0.138868)
(-1.99609e-05 1.69699e-05 0.0990305)
(-3.63385e-05 -8.59066e-07 0.115493)
(-2.04049e-06 1.54359e-06 0.0602331)
(-2.26483e-06 9.71871e-06 0.0837958)
(-1.69204e-05 3.37793e-06 0.0842328)
(-5.8446e-06 4.88493e-06 0.0604376)
(-2.40324e-05 2.33251e-05 0.0997174)
(-4.94593e-06 2.35782e-05 0.070801)
(8.60094e-06 7.897e-06 0.06047)
(-7.78934e-06 -2.63659e-06 0.0604113)
(6.70327e-06 2.11973e-07 0.0603735)
(-3.60421e-06 -9.03587e-07 0.0601997)
(2.11176e-05 6.30041e-06 0.0844082)
(6.87795e-06 9.74396e-06 0.0841337)
(-0.000162436 -0.000162268 0.129609)
(-1.82035e-05 -3.20895e-06 0.0842073)
(-3.47356e-06 -1.01291e-05 0.0837598)
(-9.27515e-06 -5.07113e-06 0.060414)
(7.75322e-06 7.66726e-06 0.0604691)
(-5.79413e-06 -1.2342e-06 0.0602031)
(4.20781e-06 1.00265e-06 0.0603759)
(0.00015978 0.000158545 0.129763)
(-1.91177e-05 -3.7868e-06 0.0842101)
(-5.89385e-06 -1.12831e-05 0.0837556)
(2.11885e-05 6.28608e-06 0.0844181)
(5.10081e-06 1.06749e-05 0.0841342)
(1.15231e-05 6.71798e-06 0.0604735)
(1.57918e-05 4.38827e-05 0.0960724)
(-1.49659e-05 -4.8403e-05 0.10853)
(2.03403e-05 4.30414e-06 0.0844031)
(-8.36503e-06 -5.48802e-06 0.069867)
(1.41543e-05 4.84123e-06 0.0700034)
(2.10028e-05 4.95321e-05 0.108923)
(-1.1656e-05 -4.49316e-05 0.0956848)
(5.21517e-05 2.90114e-06 0.095881)
(-4.94594e-05 -1.00662e-05 0.108087)
(6.90906e-06 9.47071e-06 0.0841291)
(-5.25897e-06 -3.75187e-06 0.0695861)
(8.77317e-06 1.34462e-06 0.0698081)
(5.55478e-05 7.44292e-06 0.108653)
(-4.67082e-05 -5.28444e-06 0.095421)
(1.33293e-05 3.66181e-06 0.0763856)
(-7.84123e-06 2.36383e-06 0.0589279)
(2.37534e-07 -3.6853e-06 0.0588763)
(1.25562e-05 -2.58573e-06 0.0590521)
(3.06412e-06 2.8083e-06 0.0590307)
(-8.26356e-06 -4.38809e-06 0.0760738)
(1.0707e-05 2.14148e-05 0.0708469)
(-8.03907e-06 -3.25212e-05 0.0825316)
(3.80625e-06 2.57697e-05 0.0826036)
(4.92848e-10 -1.11008e-05 0.0586431)
(-2.13391e-05 1.19123e-06 0.0818083)
(-2.51037e-06 1.81878e-06 0.0583542)
(-2.75203e-05 3.21957e-06 0.0925786)
(2.41238e-06 1.20292e-07 0.0667018)
(1.23245e-06 2.0569e-06 0.0644295)
(-1.9823e-05 -1.56936e-06 0.0818375)
(-2.29389e-06 -1.60843e-06 0.058385)
(2.2677e-06 -1.27611e-06 0.06671)
(-2.7658e-05 -4.10396e-06 0.092594)
(2.11128e-07 -2.12475e-06 0.0644536)
(5.13191e-05 -4.33219e-06 0.0958884)
(-4.86703e-05 8.45715e-06 0.108121)
(6.87666e-06 -1.04845e-05 0.0841692)
(-5.52958e-06 3.0926e-06 0.06961)
(5.58376e-05 -1.04623e-05 0.108688)
(8.4332e-06 -2.01371e-06 0.0698337)
(-4.64133e-05 5.2641e-06 0.0954248)
(1.6047e-05 -4.53592e-05 0.0960986)
(-1.33827e-05 4.73586e-05 0.108491)
(2.21317e-05 -5.30539e-06 0.0844384)
(-9.9677e-06 5.2461e-06 0.0699128)
(1.20747e-05 -5.94748e-06 0.0700502)
(2.19704e-05 -4.93941e-05 0.108885)
(-1.1969e-05 4.48744e-05 0.0957133)
(1.30781e-05 -4.95127e-06 0.0764197)
(-8.60803e-07 3.02855e-06 0.0589067)
(-9.15717e-06 -1.94295e-06 0.0589669)
(2.50466e-06 -3.82053e-06 0.0590596)
(1.12515e-05 2.03924e-06 0.0590892)
(-9.35112e-06 3.93219e-06 0.0761108)
(9.10287e-06 -6.08458e-06 0.0604964)
(7.47231e-06 -2.46676e-05 0.0708566)
(-3.2599e-06 3.00225e-05 0.0825606)
(8.33869e-06 -2.97891e-05 0.0826509)
(1.02936e-06 9.09241e-06 0.058652)
(-7.84735e-06 -4.85395e-06 0.0604126)
(8.09769e-06 8.82433e-06 0.0604693)
(-4.18573e-06 -1.48988e-06 0.0601982)
(5.26789e-06 1.15286e-06 0.0603751)
(1.25324e-05 3.44083e-06 0.0763879)
(-8.32355e-06 1.41503e-06 0.0589267)
(-1.24083e-06 -4.2634e-06 0.0588759)
(1.16865e-05 -1.49226e-06 0.0590512)
(2.57489e-06 3.90326e-06 0.0590298)
(-9.11236e-06 -5.6583e-06 0.0760772)
(-1.32e-05 -4.52824e-05 0.0956864)
(2.25509e-05 4.89505e-05 0.108927)
(1.37564e-05 6.00948e-06 0.0700073)
(-1.8928e-05 -3.86273e-06 0.084203)
(1.73635e-05 4.42828e-05 0.0960707)
(-9.53282e-06 -4.35007e-06 0.0698681)
(-1.43969e-05 -4.60818e-05 0.108528)
(-4.70243e-05 -6.55962e-06 0.0954229)
(5.44928e-05 7.53406e-06 0.108659)
(8.62976e-06 2.8012e-06 0.0698117)
(-3.77575e-06 -1.21117e-05 0.0837603)
(5.11495e-05 3.58976e-06 0.0958812)
(-5.90755e-06 -4.733e-06 0.0695874)
(-4.97559e-05 -1.10114e-05 0.108086)
(-9.04547e-06 -5.26307e-06 0.0760755)
(1.20048e-05 -1.39509e-06 0.0590514)
(3.09866e-06 4.36265e-06 0.05903)
(1.25279e-05 4.24077e-06 0.0763865)
(-9.26363e-06 2.22809e-06 0.0589268)
(-4.36692e-07 -4.47767e-06 0.0588754)
(1.64492e-05 4.4337e-05 0.0960756)
(-8.3012e-06 -5.21533e-06 0.0698687)
(2.10293e-05 5.96106e-06 0.0844096)
(-1.42571e-05 -4.62952e-05 0.108529)
(1.34742e-05 6.35119e-06 0.0700062)
(-1.17205e-05 -4.46557e-05 0.0956876)
(2.22717e-05 5.02148e-05 0.108923)
(5.15849e-05 3.38623e-06 0.0958848)
(-7.20356e-06 -3.58552e-06 0.0695901)
(5.72238e-06 9.43301e-06 0.0841321)
(-5.046e-05 -9.44377e-06 0.108088)
(7.77813e-06 2.43149e-06 0.0698129)
(-4.80788e-05 -5.67946e-06 0.0954217)
(5.37178e-05 6.9783e-06 0.108657)
(6.98579e-06 7.71477e-06 0.0604709)
(-8.69125e-06 -5.72371e-06 0.0604132)
(3.92225e-06 1.05129e-06 0.060379)
(-5.96512e-06 -1.12825e-06 0.0602008)
(-1.02002e-05 -5.76348e-06 0.0760767)
(1.14551e-05 -2.87969e-06 0.0590517)
(1.56152e-06 3.52432e-06 0.0590305)
(1.11715e-05 2.46618e-06 0.076387)
(-1.01386e-05 1.23815e-06 0.0589276)
(-1.82412e-06 -4.89826e-06 0.0588765)
(1.64709e-05 4.4153e-05 0.0960733)
(-1.59384e-05 -4.80241e-05 0.108526)
(2.06281e-05 6.22904e-06 0.0844178)
(-1.09235e-05 -4.49107e-06 0.0698703)
(1.24129e-05 6.51559e-06 0.0700095)
(2.16292e-05 4.99349e-05 0.108922)
(-1.27966e-05 -4.49199e-05 0.0956865)
(5.05644e-05 2.33743e-06 0.0958814)
(-5.1333e-05 -9.68593e-06 0.108082)
(4.22559e-06 1.00876e-05 0.0841333)
(-6.79424e-06 -4.27334e-06 0.0695894)
(7.53303e-06 2.57736e-06 0.069814)
(5.38933e-05 8.32962e-06 0.108654)
(-4.79338e-05 -6.51085e-06 0.0954181)
(-1.37519e-05 -4.63735e-05 0.0956833)
(1.29731e-05 4.62691e-06 0.0700097)
(2.17262e-05 4.90341e-05 0.108923)
(-1.90509e-05 -3.52176e-06 0.084208)
(1.68978e-05 4.35876e-05 0.0960723)
(-1.08709e-05 -5.35513e-06 0.0698709)
(-1.55493e-05 -4.68229e-05 0.108525)
(-4.87789e-05 -7.62074e-06 0.0954162)
(6.22813e-06 2.51561e-06 0.0698143)
(5.39541e-05 8.84619e-06 0.10866)
(-5.78143e-06 -1.15321e-05 0.0837559)
(4.98789e-05 3.40038e-06 0.0958806)
(-7.52163e-06 -4.50013e-06 0.0695897)
(-4.93413e-05 -9.08384e-06 0.108085)
(1.24376e-05 4.09658e-06 0.0763865)
(-9.90618e-06 1.7072e-06 0.0589279)
(-1.53843e-06 -4.43353e-06 0.0588772)
(1.09791e-05 -2.10097e-06 0.0590526)
(1.76566e-06 3.6111e-06 0.0590311)
(-9.63883e-06 -5.14416e-06 0.076075)
(5.53041e-05 4.44279e-05 0.111625)
(0.000158874 0.000158007 0.129767)
(-0.00016072 -4.67696e-05 0.121504)
(-4.75771e-05 -0.000157928 0.12124)
(0.000163226 4.71398e-05 0.121837)
(5.2535e-05 0.000157818 0.121658)
(-5.20568e-05 -4.80231e-05 0.111204)
(5.41214e-05 -4.64676e-05 0.11162)
(0.000161379 -0.000157921 0.129755)
(-4.87526e-05 0.000160159 0.121299)
(-0.000156485 4.56464e-05 0.121403)
(5.33351e-05 -0.00016051 0.121712)
(0.000164993 -4.63719e-05 0.121737)
(-5.10371e-05 4.85931e-05 0.1112)
(-5.26929e-05 -4.77843e-05 0.111204)
(0.000164598 4.6075e-05 0.121836)
(5.13921e-05 0.000156933 0.121657)
(-0.000162477 -0.000163416 0.129611)
(5.59953e-05 4.53617e-05 0.111625)
(-0.000159005 -4.45212e-05 0.121501)
(-4.80666e-05 -0.000158558 0.12124)
(5.48452e-05 4.46832e-05 0.111625)
(0.000159508 0.000158422 0.129763)
(-0.000160288 -4.57727e-05 0.121497)
(-4.89393e-05 -0.000158277 0.12124)
(0.000165397 4.76895e-05 0.121829)
(5.11323e-05 0.000156787 0.121657)
(-5.25462e-05 -4.75957e-05 0.111203)
(1.44387e-06 2.1742e-06 0.145176)
(6.19854e-07 -1.95491e-07 0.145208)
(6.73918e-06 0.000187285 0.123383)
(-8.18756e-06 -0.000173608 0.117301)
(2.4798e-05 2.23638e-05 0.0998998)
(-1.52582e-05 -3.99246e-05 0.108791)
(1.38989e-05 0.000180372 0.117561)
(1.1139e-05 3.48104e-05 0.108963)
(-6.0409e-06 -0.000189288 0.123287)
(0.000196434 -1.18768e-07 0.12307)
(-0.000181123 -8.22262e-06 0.116749)
(2.60168e-05 1.41157e-05 0.0995237)
(-3.39133e-05 -5.49148e-06 0.107917)
(0.000191076 5.13825e-06 0.117279)
(3.78007e-05 3.1401e-06 0.108508)
(-0.00019887 -2.89217e-06 0.122625)
(0.000200957 -2.17038e-06 0.126286)
(4.40143e-05 -1.15721e-06 0.116223)
(-3.72197e-05 2.38971e-07 0.113155)
(-0.000192817 1.16049e-06 0.127293)
(4.41142e-05 -3.58546e-07 0.113824)
(0.000195829 -1.66339e-06 0.12786)
(-0.000195382 4.04815e-07 0.125784)
(0.000196945 -5.98118e-07 0.123026)
(-0.000178201 6.38141e-06 0.116723)
(2.62677e-05 -1.55042e-05 0.0995342)
(-3.28783e-05 5.85311e-06 0.107899)
(3.7269e-05 -3.44362e-06 0.108489)
(0.000187674 -5.41806e-06 0.117248)
(-0.000193706 2.42657e-06 0.122578)
(0.000196249 1.75615e-06 0.12626)
(4.28753e-05 6.80666e-09 0.116218)
(-0.00019189 -7.60896e-07 0.127282)
(-3.793e-05 1.75281e-07 0.113138)
(0.000193848 1.42753e-06 0.127849)
(4.2381e-05 -5.98029e-07 0.113808)
(-0.000196271 2.56016e-07 0.125756)
(9.02452e-06 -0.000188688 0.123418)
(-9.35624e-06 0.000177724 0.117296)
(2.81133e-05 -2.72145e-05 0.0999148)
(-1.02381e-05 3.8883e-05 0.108788)
(1.55954e-05 -0.000182475 0.117552)
(1.50789e-05 -3.90796e-05 0.108961)
(-3.15491e-06 0.00019104 0.123321)
(5.48055e-05 4.48968e-05 0.111627)
(0.000159058 0.00015767 0.129765)
(-0.000160049 -4.55843e-05 0.121499)
(-4.84466e-05 -0.000157443 0.12124)
(-5.31722e-05 -4.76469e-05 0.111205)
(0.000165425 4.76186e-05 0.121831)
(5.21849e-05 0.000157531 0.121656)
(-5.28784e-05 -4.79392e-05 0.111202)
(-0.000162892 -0.000163174 0.129608)
(0.000164523 4.65499e-05 0.121831)
(5.14755e-05 0.000157642 0.121657)
(5.53008e-05 4.5584e-05 0.111625)
(-0.000158744 -4.3669e-05 0.121499)
(-4.89017e-05 -0.000159355 0.121241)
(-1.03165e-07 7.2537e-07 0.142537)
(-9.00616e-07 2.15025e-06 0.134835)
(2.67386e-06 -1.39268e-06 0.135101)
(-0.000159017 -0.000158079 0.12978)
(-5.85461e-07 1.11249e-06 0.142536)
(6.32041e-07 1.12466e-06 0.134834)
(2.86084e-06 -1.8143e-06 0.135105)
(-0.000158062 -0.000155827 0.129775)
(-2.17897e-07 2.05721e-06 0.142538)
(1.41586e-06 -7.24805e-07 0.134829)
(1.78364e-06 -1.31612e-06 0.135101)
(-0.000157396 -0.000155852 0.129769)
(-3.73625e-07 -6.89562e-09 0.142542)
(6.56617e-07 4.82443e-07 0.134827)
(1.95418e-06 -3.66241e-06 0.135094)
(-0.000157571 -0.000157923 0.129768)
(-1.20808e-06 -8.87928e-07 0.142549)
(4.94257e-07 -3.99276e-07 0.134824)
(7.60032e-07 -2.40125e-06 0.135086)
(-0.000158169 -0.000157581 0.129763)
(-1.09407e-06 -1.08568e-06 0.142555)
(-5.0462e-07 -4.30126e-07 0.134825)
(2.22612e-06 -3.44593e-06 0.135085)
(-0.000158163 -0.000158401 0.129764)
(4.28882e-07 5.42992e-07 0.142558)
(9.58516e-07 -1.26118e-06 0.134827)
(2.59526e-06 -2.65453e-06 0.135091)
(-0.000159096 -0.000158016 0.129765)
(-1.08386e-06 -2.42457e-07 0.142561)
(-3.2744e-07 -3.27113e-07 0.134825)
(2.0224e-06 -1.63331e-06 0.135095)
(-0.000158804 -0.000156727 0.129759)
(-1.10219e-07 1.84449e-07 0.14256)
(1.10271e-06 -1.62396e-06 0.134827)
(2.34478e-06 -1.22524e-06 0.135092)
(-0.000158127 -0.000157634 0.129757)
(-1.38204e-06 -5.92401e-07 0.142559)
(2.40767e-06 -1.39601e-06 0.134825)
(2.5558e-06 -1.73597e-06 0.135095)
(-0.00015833 -0.000156588 0.129758)
(-1.3929e-06 1.35065e-07 0.14256)
(2.19272e-06 -1.63679e-07 0.134821)
(1.54947e-06 5.82329e-07 0.135097)
(-0.00015925 -0.000156704 0.129758)
(-2.59117e-07 1.62714e-06 0.142558)
(3.68772e-06 -3.19395e-07 0.134816)
(2.58458e-06 -1.64471e-06 0.135093)
(-0.000158324 -0.000155427 0.12976)
(-1.50053e-06 1.33745e-06 0.142559)
(3.33205e-06 1.14926e-06 0.134822)
(1.87963e-06 -3.70618e-07 0.135092)
(-0.000157696 -0.00015594 0.129766)
(-5.27036e-07 1.34887e-06 0.142557)
(2.30249e-06 3.42361e-07 0.134827)
(2.28858e-06 -1.55727e-07 0.135093)
(-0.000159252 -0.000157301 0.129766)
(-1.3083e-06 1.6227e-06 0.142557)
(1.03529e-06 9.82506e-07 0.134824)
(2.52093e-06 -9.04369e-07 0.135095)
(-0.000158704 -0.000157083 0.129766)
(-1.1122e-06 5.39836e-07 0.142558)
(1.75568e-06 2.35016e-07 0.134826)
(2.62454e-06 -1.75266e-06 0.13509)
(-0.000158314 -0.000157159 0.129772)
(-9.62895e-07 2.9831e-07 0.142565)
(4.75546e-07 1.75355e-06 0.13483)
(2.22787e-06 -3.22391e-06 0.135088)
(-0.000157636 -0.00015737 0.129768)
(5.20322e-06 3.99696e-06 0.135115)
(-2.41892e-06 2.99701e-06 0.135118)
(4.7079e-06 4.10474e-06 0.135112)
(-3.58458e-06 2.50047e-06 0.135122)
(-0.00015831 0.00015862 0.129767)
(0.0001649 -0.00016427 0.129611)
(1.35079e-06 1.95684e-06 0.134838)
(1.54176e-06 -1.72341e-06 0.134826)
(-2.58058e-06 3.73888e-07 0.134835)
(-5.08164e-07 -1.96357e-06 0.134824)
(4.01652e-07 -9.19514e-07 0.13486)
(1.91685e-06 1.18874e-06 0.134837)
(6.75624e-07 -1.46779e-06 0.134858)
(0.000160364 -0.000157391 0.129753)
(-0.000162547 0.000163678 0.129587)
(-1.61945e-06 -1.45564e-06 0.13514)
(3.19461e-06 -1.4647e-07 0.135103)
(-1.76855e-06 -5.84357e-07 0.135141)
(0.000163423 0.00016591 0.129618)
(0.000157956 0.000156944 0.129762)
(-0.000163666 -0.000162643 0.129601)
(4.14557e-06 3.72476e-06 0.13511)
(-3.58264e-06 4.68075e-06 0.13512)
(2.70922e-06 2.19443e-06 0.135106)
(-3.14234e-06 3.22433e-06 0.135123)
(-0.000157847 0.000157515 0.129766)
(0.000163703 -0.000164607 0.129614)
(-1.18774e-06 8.56276e-07 0.134836)
(-1.32232e-08 -1.0118e-06 0.134825)
(-7.45328e-07 1.05019e-06 0.134836)
(3.49179e-07 -9.86916e-07 0.134825)
(-2.06817e-07 -1.25175e-06 0.134857)
(1.97881e-06 -6.89175e-07 0.134832)
(1.17144e-06 -7.55253e-07 0.134858)
(0.000158333 -0.0001564 0.129741)
(-0.000163674 0.000165246 0.129584)
(-2.68787e-06 -2.5171e-06 0.135139)
(2.30187e-06 -9.17879e-07 0.135104)
(-3.14002e-06 -8.19862e-07 0.135139)
(0.000165589 0.000167751 0.129613)
(0.000158319 0.000157771 0.129758)
(-0.000163764 -0.000165224 0.1296)
(2.69569e-06 3.20404e-06 0.135107)
(-2.99875e-06 4.04443e-06 0.135121)
(2.59592e-06 1.64819e-06 0.13511)
(-2.76767e-06 1.71886e-06 0.13512)
(-0.000157718 0.000156557 0.129766)
(0.000165012 -0.000164562 0.129609)
(6.24003e-07 1.42633e-06 0.134836)
(-2.4411e-07 -1.25673e-07 0.134821)
(-6.14665e-07 7.88049e-07 0.134835)
(-2.80944e-06 -6.87243e-07 0.13482)
(-4.29875e-08 -6.00871e-07 0.134856)
(1.07342e-06 3.37e-07 0.134829)
(4.30807e-07 -1.29739e-06 0.13485)
(0.000157053 -0.000155268 0.129737)
(-0.000165119 0.000164301 0.129572)
(-2.6921e-06 -1.80632e-06 0.135138)
(1.64552e-06 -1.4411e-06 0.135098)
(-1.29298e-06 1.06231e-07 0.135136)
(0.000165591 0.000165554 0.129613)
(0.000158457 0.000156704 0.129756)
(-0.000165277 -0.000165699 0.129601)
(3.18633e-06 3.16799e-06 0.135111)
(-2.87814e-06 3.62791e-06 0.13512)
(2.27202e-06 1.25635e-06 0.135119)
(-4.01332e-06 1.67026e-06 0.135116)
(-0.000157025 0.000156531 0.129762)
(0.000162443 -0.00016484 0.129606)
(-1.16749e-06 -2.50893e-07 0.134834)
(-4.42981e-07 -1.38723e-06 0.134817)
(-9.24505e-07 -1.99637e-07 0.134837)
(-4.51331e-07 -2.24321e-06 0.134816)
(3.11549e-07 -8.50512e-07 0.134848)
(2.08233e-06 -7.71397e-07 0.134826)
(1.00755e-06 -2.08777e-06 0.134848)
(0.000155714 -0.000156334 0.129728)
(-0.000163762 0.000163366 0.129573)
(-1.37652e-06 -1.42012e-06 0.135133)
(5.60989e-07 -1.30695e-06 0.135087)
(-2.6742e-06 -1.40664e-06 0.13513)
(0.000163899 0.000165461 0.129607)
(0.000157976 0.000156171 0.129757)
(-0.000165262 -0.000166826 0.129603)
(3.73619e-06 3.35576e-06 0.13512)
(-5.04124e-06 4.06209e-06 0.135114)
(3.14018e-06 1.92529e-06 0.135122)
(-3.49223e-06 1.19734e-06 0.135116)
(-0.000159124 0.000156386 0.129757)
(0.000163759 -0.000165335 0.129606)
(-4.23644e-07 -4.15433e-07 0.134837)
(1.87385e-06 -2.9115e-06 0.134815)
(-1.69385e-07 -7.97558e-07 0.134839)
(1.87514e-07 -1.90925e-06 0.134813)
(-1.22374e-06 -2.19036e-06 0.134847)
(7.63139e-07 -9.65166e-07 0.134826)
(-6.24031e-07 -1.664e-06 0.134846)
(0.0001567 -0.00015643 0.129729)
(-0.000164002 0.000164333 0.129577)
(-2.6928e-06 -2.99545e-06 0.135129)
(1.64515e-06 -1.74676e-06 0.135085)
(-1.5522e-06 -1.78903e-06 0.135128)
(0.000164547 0.000164822 0.129607)
(0.000158728 0.00015542 0.129759)
(-0.000164153 -0.000165049 0.129601)
(3.26708e-06 1.54542e-06 0.135122)
(-3.12267e-06 2.69067e-06 0.135116)
(3.66159e-06 2.23552e-06 0.135126)
(-2.90297e-06 2.28226e-06 0.135119)
(-0.00015769 0.00015583 0.129759)
(0.000163193 -0.000165826 0.129605)
(1.45897e-06 6.87412e-07 0.134836)
(1.75786e-06 -2.51656e-06 0.134813)
(-1.60753e-06 -1.06911e-06 0.134836)
(-6.8525e-07 -1.19137e-06 0.134817)
(-1.11681e-06 -1.90794e-06 0.134845)
(2.20139e-06 -1.53042e-06 0.134829)
(1.99818e-07 -1.54616e-06 0.134846)
(0.000157132 -0.000156936 0.129734)
(-0.000162884 0.000164424 0.129581)
(-1.90532e-06 -2.77246e-06 0.135125)
(2.09288e-06 -1.82387e-06 0.135089)
(-1.97844e-06 -9.48445e-07 0.135127)
(0.00016358 0.000165104 0.129608)
(0.000158182 0.000156268 0.129757)
(-0.000164294 -0.000166554 0.1296)
(3.16535e-06 2.63367e-06 0.135122)
(-2.91417e-06 3.6074e-06 0.135116)
(2.46111e-06 -3.16104e-07 0.135123)
(-4.7344e-06 2.18078e-06 0.135117)
(-0.000158421 0.000155467 0.129758)
(0.000163439 -0.000164579 0.129605)
(3.00762e-08 -5.93858e-07 0.134834)
(4.37435e-07 -6.46638e-07 0.134816)
(-8.28032e-07 -8.61883e-08 0.134833)
(-3.70553e-07 -1.30051e-06 0.134819)
(-1.74182e-06 -2.0683e-06 0.134846)
(1.89367e-06 -1.3579e-06 0.134827)
(1.21722e-06 -6.03359e-07 0.134845)
(0.000158594 -0.000156725 0.129737)
(-0.000163396 0.000164979 0.129577)
(-2.20445e-06 -2.065e-06 0.135127)
(1.69731e-06 7.38769e-08 0.135093)
(-3.15637e-06 -1.32436e-06 0.13513)
(0.0001632 0.000166089 0.129603)
(0.000158685 0.000155753 0.129756)
(-0.000164821 -0.0001668 0.129607)
(2.77444e-06 1.83487e-06 0.135122)
(-3.85224e-06 2.04894e-06 0.135113)
(3.68388e-06 5.57111e-07 0.135124)
(-3.71189e-06 6.75298e-07 0.135114)
(-0.000158057 0.000156307 0.129758)
(0.00016403 -0.000167312 0.129602)
(4.17944e-07 1.19058e-07 0.134833)
(1.22364e-06 -1.73145e-06 0.134816)
(1.4965e-07 -8.06017e-07 0.134835)
(-1.74184e-06 -1.21389e-06 0.134818)
(-3.44035e-07 -6.32231e-07 0.134843)
(9.42869e-07 -8.88646e-07 0.134826)
(4.38718e-07 -5.24801e-07 0.134842)
(0.00015821 -0.000156445 0.129733)
(-0.00016369 0.000165118 0.129571)
(-3.56893e-06 -2.17095e-06 0.135129)
(3.69425e-06 -1.03769e-06 0.135092)
(-2.41541e-06 -4.80088e-07 0.135127)
(0.000164052 0.000165171 0.1296)
(0.000158562 0.000155132 0.129762)
(-0.000165361 -0.000166684 0.129604)
(3.45021e-06 1.22965e-06 0.135124)
(-3.81008e-06 2.25522e-06 0.135113)
(2.79125e-06 6.07642e-07 0.135125)
(-2.98015e-06 -3.06541e-08 0.135112)
(-0.00015819 0.000154499 0.129754)
(0.000165524 -0.000165909 0.1296)
(-1.63937e-07 -1.68041e-06 0.134835)
(1.16639e-06 -1.49271e-06 0.134817)
(-1.61361e-06 -1.33277e-06 0.134838)
(-2.6077e-07 -1.0737e-06 0.134822)
(-1.12256e-09 4.359e-07 0.134839)
(2.37407e-06 -1.43053e-06 0.134826)
(2.54682e-06 4.98152e-07 0.134844)
(0.000158165 -0.000156011 0.129726)
(-0.000162419 0.000164805 0.129572)
(-2.21058e-06 -2.15146e-06 0.135124)
(2.42678e-06 -1.90941e-06 0.135095)
(-1.79049e-06 -1.13967e-06 0.135123)
(0.000164837 0.000167088 0.129603)
(0.0001576 0.000155525 0.12976)
(-0.000165642 -0.000165457 0.129606)
(2.60126e-06 1.53596e-06 0.135124)
(-2.63515e-06 1.74604e-06 0.135109)
(1.38168e-06 3.29992e-07 0.135125)
(-3.02307e-06 9.23215e-07 0.135108)
(-0.000157008 0.000156361 0.129752)
(0.000164909 -0.000165265 0.129596)
(-1.96705e-07 -8.30519e-07 0.134838)
(4.58902e-07 -4.8155e-07 0.13482)
(-1.49654e-06 -1.94503e-07 0.134838)
(5.6149e-08 -4.50829e-07 0.134818)
(-1.94082e-07 -6.50394e-07 0.134843)
(2.4106e-06 -3.44789e-07 0.134823)
(4.73817e-07 -4.94241e-07 0.134845)
(0.000158879 -0.000155836 0.129727)
(-0.000163865 0.000165462 0.129568)
(-2.02527e-06 -2.66886e-06 0.13512)
(1.57121e-06 1.17363e-06 0.135097)
(-2.32133e-06 8.65343e-07 0.135123)
(0.000164082 0.000166841 0.1296)
(0.000156904 0.000156297 0.12976)
(-0.000167373 -0.000165665 0.129604)
(1.11064e-06 1.28479e-06 0.135126)
(-3.04269e-06 3.01515e-06 0.135106)
(1.84193e-06 1.92315e-06 0.135123)
(-1.7555e-06 2.76076e-06 0.135106)
(-0.000156615 0.000156761 0.129748)
(0.000166602 -0.000162863 0.129598)
(-9.32926e-07 -8.73078e-07 0.134838)
(1.71909e-06 -5.93739e-07 0.134817)
(-1.92342e-06 4.24927e-07 0.134838)
(-1.44604e-06 1.61369e-06 0.134816)
(-9.63032e-07 -3.84585e-07 0.134843)
(2.05536e-06 5.95594e-07 0.134819)
(9.91065e-07 9.4454e-07 0.134841)
(0.000157259 -0.000155116 0.129724)
(-0.000162983 0.000166118 0.129569)
(-2.71893e-06 -8.42312e-07 0.135123)
(2.6982e-06 -9.01887e-07 0.135096)
(-1.24733e-06 4.1215e-07 0.135121)
(0.000164658 0.000168382 0.129602)
(0.000156006 0.000156894 0.129758)
(-0.000166019 -0.000163463 0.129601)
(1.91168e-06 2.90184e-06 0.135123)
(-1.67222e-06 4.78746e-06 0.135104)
(1.05734e-06 1.89815e-06 0.135119)
(-1.0604e-06 2.89068e-06 0.135103)
(-0.000154631 0.000157377 0.129752)
(0.00016644 -0.000163379 0.129602)
(-1.3603e-06 4.7857e-07 0.134836)
(-4.70769e-07 2.50379e-06 0.134815)
(-3.20662e-06 5.80139e-07 0.134835)
(-6.93077e-07 6.56788e-07 0.134815)
(-2.65011e-07 6.11257e-07 0.134841)
(5.25311e-06 1.4993e-07 0.134821)
(9.46415e-07 3.52398e-07 0.134841)
(0.000157245 -0.000153493 0.129725)
(-0.000163076 0.000166195 0.129575)
(-1.21188e-06 2.72681e-07 0.135121)
(2.11095e-06 1.16634e-06 0.135092)
(-1.13252e-06 1.25965e-06 0.135122)
(0.000166083 0.000168384 0.129607)
(0.000157014 0.000157662 0.129755)
(-0.000165335 -0.000165117 0.1296)
(1.05069e-06 3.08863e-06 0.135119)
(-1.20848e-06 4.71509e-06 0.135102)
(1.90854e-06 2.41299e-06 0.135115)
(-1.79908e-06 2.26186e-06 0.135103)
(-0.000156367 0.000158659 0.129754)
(0.000165285 -0.000163864 0.1296)
(-1.82591e-06 4.4957e-07 0.134836)
(1.88464e-07 9.00921e-07 0.134816)
(-1.66039e-06 9.55017e-07 0.134834)
(-2.04183e-06 7.7733e-07 0.13482)
(-4.54375e-07 3.88542e-07 0.134839)
(3.23072e-06 6.8739e-07 0.134828)
(8.5151e-07 -2.23173e-07 0.134838)
(0.000158893 -0.000155568 0.12973)
(-0.000163003 0.00016577 0.129573)
(-1.23945e-06 -2.36504e-07 0.13512)
(2.5825e-06 1.05686e-06 0.135092)
(-1.58189e-06 8.08177e-07 0.135121)
(0.000164928 0.000167278 0.129608)
(0.000158308 0.000157444 0.129755)
(-0.000164769 -0.000164641 0.1296)
(2.64566e-06 3.66948e-06 0.135115)
(-1.60031e-06 3.15091e-06 0.135104)
(2.02547e-06 2.11829e-06 0.135116)
(-2.64326e-06 2.3368e-06 0.135104)
(-0.000158021 0.000158284 0.129753)
(0.000164852 -0.000164719 0.129601)
(-1.53216e-06 1.10892e-06 0.134833)
(1.06222e-07 3.77105e-07 0.134821)
(-1.4181e-06 1.01747e-06 0.134834)
(-7.84074e-07 9.37791e-08 0.134821)
(-8.66927e-07 1.63645e-07 0.134837)
(2.11032e-06 1.20683e-06 0.134826)
(1.63891e-06 4.16353e-07 0.134837)
(0.000157334 -0.000154422 0.129728)
(-0.000164341 0.000165625 0.12957)
(-1.98741e-06 -5.73023e-07 0.135122)
(1.62346e-06 1.41549e-06 0.135094)
(-1.55984e-06 1.90039e-07 0.135124)
(0.000165275 0.000167468 0.129609)
(0.00015888 0.000158311 0.129757)
(-0.000165227 -0.000164733 0.129605)
(1.93092e-06 2.97262e-06 0.135113)
(-2.18345e-06 4.16761e-06 0.1351)
(2.20562e-06 2.64592e-06 0.135116)
(-2.01969e-06 1.93808e-06 0.135102)
(-0.000156945 0.000156944 0.129754)
(0.000165325 -0.00016386 0.129605)
(-4.93881e-07 1.40748e-06 0.134831)
(9.56073e-07 -4.83589e-07 0.134818)
(-1.40508e-06 6.638e-07 0.134836)
(-2.22033e-06 3.4947e-07 0.134816)
(-8.51059e-07 4.5573e-07 0.134839)
(1.26083e-06 2.82533e-07 0.134826)
(1.64329e-06 -9.47561e-08 0.134841)
(0.000157351 -0.000155096 0.129728)
(-0.000164532 0.000165898 0.129574)
(-1.74047e-06 -1.60352e-06 0.135124)
(3.19892e-06 -9.82845e-07 0.135091)
(-1.77528e-06 -4.11109e-08 0.135123)
(0.000163909 0.000165606 0.129615)
(0.000158412 0.00015753 0.129761)
(-0.000164808 -0.000164727 0.129607)
(2.21355e-06 3.46673e-06 0.135114)
(-2.90905e-06 4.32785e-06 0.135099)
(1.25045e-06 7.73102e-07 0.135118)
(-3.81769e-06 3.30408e-06 0.135102)
(-0.000156183 0.000157203 0.129759)
(0.000164205 -0.000163879 0.129608)
(-3.6498e-07 5.29319e-07 0.134836)
(4.87526e-07 -1.29036e-06 0.134814)
(-2.14254e-06 4.50883e-07 0.134837)
(-1.19973e-06 -1.68518e-07 0.134817)
(4.37726e-07 -5.26176e-07 0.13484)
(1.80692e-06 1.22029e-06 0.134828)
(2.20339e-06 -8.99968e-07 0.134845)
(0.000156975 -0.000155215 0.129729)
(-0.000163504 0.000164888 0.12958)
(-2.21293e-06 -1.69497e-06 0.135123)
(2.10258e-06 -1.10267e-07 0.135089)
(-2.03343e-06 -3.10166e-07 0.135125)
(0.000164224 0.000165488 0.12961)
(0.000158195 0.000157151 0.129763)
(2.41253e-06 3.82992e-06 0.135119)
(-3.28292e-06 3.78111e-06 0.135103)
(-0.000158268 0.00015826 0.129761)
(1.12843e-06 1.43312e-06 0.134839)
(-2.21583e-07 -2.45474e-07 0.134816)
(1.19e-06 2.069e-07 0.134847)
(5.97971e-07 -1.11947e-07 0.134852)
(0.000158288 -0.000156638 0.129734)
(-1.96379e-06 -2.3608e-06 0.135123)
(-1.88637e-06 -1.33387e-06 0.135124)
(0.000165948 0.000167209 0.129617)
(3.68609e-07 -4.29057e-05 0.0971111)
(8.41287e-06 2.60611e-05 0.0708439)
(2.23934e-06 3.89839e-05 0.0972666)
(-6.44931e-06 -2.13631e-05 0.0707842)
(-7.13754e-06 9.61666e-06 0.0604671)
(9.77779e-06 -6.00435e-06 0.0604118)
(-3.01988e-05 5.50242e-07 0.0960315)
(2.23623e-05 -2.91857e-06 0.0705931)
(3.50052e-05 -1.95835e-06 0.0966593)
(-1.7991e-05 5.64384e-07 0.0703358)
(8.59697e-07 9.9883e-07 0.142538)
(1.03279e-07 -3.99338e-07 0.142534)
(1.68255e-06 4.49595e-08 0.142571)
(5.87481e-07 2.52718e-06 0.142538)
(2.14949e-06 -4.6028e-07 0.142541)
(4.44478e-08 -6.33175e-07 0.142538)
(8.6027e-07 -3.34254e-07 0.142574)
(3.67447e-05 -1.22498e-06 0.115504)
(-2.4517e-05 1.4592e-05 0.099546)
(2.33256e-06 -1.92093e-06 0.138855)
(2.51427e-07 1.78299e-06 0.134837)
(2.12906e-05 -1.79163e-05 0.0990395)
(1.36287e-06 -8.01336e-07 0.138856)
(-4.09294e-05 -2.44806e-06 0.116227)
(5.99806e-06 -4.15865e-07 0.0604106)
(-2.88934e-06 1.19987e-06 0.0602369)
(-8.60694e-07 4.38408e-05 0.116587)
(-1.80339e-06 -2.36292e-06 0.13926)
(2.74621e-05 -2.5965e-05 0.0999172)
(3.99898e-06 -1.50175e-06 0.135103)
(-2.05723e-06 -2.3468e-06 0.139264)
(-2.56653e-05 2.29823e-05 0.099714)
(1.96186e-06 -4.76246e-05 0.116766)
(-4.38088e-06 -1.01103e-05 0.0841822)
(-2.08272e-05 -5.70235e-06 0.0843717)
(0.000163688 0.000165568 0.12962)
(4.85071e-06 1.03511e-05 0.0838079)
(1.97249e-05 4.64522e-06 0.0841684)
(-1.81417e-06 -4.21266e-05 0.0971218)
(5.74004e-06 2.69445e-05 0.0708413)
(9.54463e-07 4.28527e-05 0.0972727)
(-7.8127e-06 -2.23221e-05 0.0707789)
(-6.82265e-06 7.84297e-06 0.0604728)
(8.44056e-06 -4.02606e-06 0.0604148)
(-3.38335e-05 1.75859e-06 0.096034)
(1.99821e-05 -2.90506e-07 0.0705925)
(3.1966e-05 -1.88399e-06 0.0966585)
(-2.00513e-05 1.60378e-06 0.070334)
(1.61468e-06 6.92213e-08 0.142542)
(-7.30043e-08 -4.94387e-07 0.142538)
(6.24525e-07 -6.889e-07 0.142571)
(2.46777e-07 2.35478e-06 0.14254)
(2.04466e-07 8.09472e-07 0.142546)
(1.65703e-07 -4.7427e-07 0.14254)
(-5.88537e-07 -4.20728e-07 0.142571)
(3.85814e-05 -1.46272e-07 0.115503)
(-2.31062e-05 1.39923e-05 0.0995482)
(2.41884e-06 3.41159e-07 0.138855)
(-7.25236e-07 1.06176e-06 0.134834)
(-3.95772e-05 -1.8397e-06 0.116231)
(2.32207e-05 -1.83248e-05 0.0990435)
(2.16429e-06 -2.58382e-07 0.138854)
(4.54912e-06 8.14983e-07 0.0604202)
(-3.93728e-06 -4.47963e-07 0.060245)
(-2.01082e-06 4.31483e-05 0.116589)
(-1.95222e-06 -1.82518e-06 0.139267)
(2.56713e-05 -2.51086e-05 0.0999141)
(2.72813e-06 -1.93321e-06 0.135104)
(2.16223e-06 -4.47137e-05 0.116772)
(-1.04166e-06 -3.28505e-06 0.139263)
(-2.64478e-05 2.51326e-05 0.0997094)
(-5.34657e-06 -9.11152e-06 0.0841811)
(-2.03434e-05 -4.05398e-06 0.0843722)
(0.000162955 0.00016578 0.129617)
(5.49882e-06 1.16028e-05 0.0838088)
(1.86355e-05 5.05928e-06 0.0841701)
(7.82994e-07 -4.16567e-05 0.097117)
(4.87952e-06 2.5931e-05 0.0708412)
(1.01556e-06 4.21353e-05 0.0972722)
(-7.11127e-06 -2.40128e-05 0.0707833)
(-8.20802e-06 6.8574e-06 0.0604759)
(6.84737e-06 -6.96196e-06 0.0604178)
(-3.23154e-05 9.0627e-07 0.0960277)
(1.94896e-05 -1.0069e-06 0.0705976)
(3.16134e-05 -1.36763e-06 0.0966515)
(-1.98217e-05 1.95552e-06 0.0703427)
(2.98365e-07 7.83456e-07 0.142543)
(-1.96703e-07 -3.04224e-07 0.142538)
(-9.7764e-07 -2.43194e-07 0.142568)
(7.62061e-07 6.15774e-07 0.142542)
(7.48791e-07 6.47939e-07 0.142546)
(2.75822e-09 -2.06321e-06 0.142542)
(-7.47278e-07 -1.97904e-06 0.142566)
(3.7297e-05 -4.50621e-08 0.115496)
(-2.15729e-05 1.51556e-05 0.099547)
(2.38955e-06 -1.24928e-06 0.138854)
(1.51046e-06 -2.65901e-07 0.134831)
(-3.96744e-05 -9.59849e-07 0.116224)
(2.40905e-05 -1.85635e-05 0.099044)
(1.83064e-06 -1.70974e-06 0.138852)
(3.95736e-06 -1.73747e-06 0.0604234)
(-4.79356e-06 1.73859e-07 0.0602507)
(-1.81102e-06 4.37996e-05 0.116579)
(-1.39341e-06 -1.83104e-06 0.139264)
(2.57746e-05 -2.45543e-05 0.0999172)
(2.07939e-06 -1.83814e-06 0.1351)
(5.53538e-07 -4.30295e-05 0.116762)
(-1.24455e-06 -3.57994e-06 0.139262)
(-2.74249e-05 2.6253e-05 0.0997161)
(-4.30121e-06 -8.87252e-06 0.0841859)
(-1.96628e-05 -2.9551e-06 0.0843762)
(0.000164443 0.000166094 0.129612)