/*--------------------------------*- C++ -*----------------------------------*\
| =========                 |                                                 |
| \\      /  F ield         | OpenFOAM: The Open Source CFD Toolbox           |
|  \\    /   O peration     | Version:  2206                                  |
|   \\  /    A nd           | Website:  www.openfoam.com                      |
|    \\/     M anipulation  |                                                 |
\*---------------------------------------------------------------------------*/
FoamFile
{
    version     2.0;
    format      ascii;
    arch        "LSB;label=32;scalar=64";
    class       volScalarField;
    location    "0.1";
    object      k;
}
// * * * * * * * * * * * * * * * * * * * * * * * * * * * * * * * * * * * * * //

dimensions      [0 2 -2 0 0 0 0];

internalField   nonuniform List<scalar> 
66928
(
3.05803e-05
3.08479e-05
3.08395e-05
3.08392e-05
3.05782e-05
3.08498e-05
3.05834e-05
3.05834e-05
3.09906e-05
3.09912e-05
1.3316e-05
1.32126e-05
2.33447e-05
2.32345e-05
1.97849e-05
2.75262e-05
1.95987e-05
2.70122e-05
2.74112e-05
3.09487e-05
2.946e-05
1.95918e-05
2.70136e-05
3.09513e-05
2.74053e-05
2.94597e-05
1.32052e-05
2.3234e-05
2.346e-05
1.33716e-05
2.75972e-05
1.99012e-05
1.33262e-05
1.33451e-05
1.3256e-05
1.32857e-05
2.33886e-05
2.32848e-05
3.05812e-05
2.34448e-05
2.33274e-05
1.33729e-05
1.33612e-05
1.32961e-05
1.33024e-05
3.05829e-05
2.35002e-05
2.33686e-05
2.34815e-05
2.33619e-05
1.33184e-05
2.59113e-05
2.82172e-05
2.33384e-05
1.94244e-05
1.94202e-05
2.82236e-05
2.59078e-05
2.58527e-05
2.81576e-05
2.32311e-05
1.92666e-05
1.92631e-05
2.81661e-05
2.58462e-05
1.80144e-05
1.21293e-05
1.20867e-05
1.21207e-05
1.20797e-05
1.80132e-05
1.97871e-05
2.33035e-05
2.32988e-05
1.17038e-05
2.30817e-05
1.15095e-05
2.62537e-05
1.75476e-05
1.53359e-05
2.30748e-05
1.15078e-05
1.75489e-05
2.62491e-05
1.53253e-05
2.58359e-05
2.81617e-05
2.32312e-05
1.9264e-05
2.81704e-05
1.92608e-05
2.58296e-05
2.59273e-05
2.82289e-05
2.34535e-05
1.94844e-05
1.9479e-05
2.82355e-05
2.59223e-05
1.80052e-05
1.20912e-05
1.21523e-05
1.2085e-05
1.21447e-05
1.80037e-05
1.33581e-05
1.98932e-05
2.34719e-05
2.34675e-05
1.17779e-05
1.3327e-05
1.33437e-05
1.32631e-05
1.3288e-05
1.80912e-05
1.21794e-05
1.21312e-05
1.21811e-05
1.21344e-05
1.80825e-05
2.59376e-05
2.82305e-05
1.94591e-05
2.33967e-05
2.59426e-05
1.9464e-05
2.82258e-05
2.58733e-05
2.81749e-05
1.93044e-05
2.32872e-05
2.58803e-05
1.93061e-05
2.81687e-05
1.80555e-05
1.21643e-05
1.21206e-05
1.80621e-05
1.21639e-05
1.21188e-05
2.59674e-05
1.95012e-05
2.34401e-05
2.82355e-05
1.94978e-05
2.59613e-05
2.82401e-05
2.59032e-05
1.93377e-05
2.33291e-05
2.81813e-05
1.93384e-05
2.58954e-05
2.81875e-05
1.33749e-05
1.33649e-05
1.33062e-05
1.32981e-05
1.80972e-05
1.21976e-05
1.21474e-05
1.81114e-05
1.21969e-05
1.21445e-05
2.59967e-05
2.82543e-05
2.35054e-05
1.95557e-05
1.95595e-05
2.82592e-05
2.59848e-05
2.5932e-05
2.82027e-05
2.33796e-05
1.93751e-05
1.93822e-05
2.82101e-05
2.59184e-05
2.59798e-05
1.95334e-05
2.82502e-05
2.34828e-05
2.59872e-05
1.9539e-05
2.82459e-05
2.5913e-05
1.93675e-05
2.81997e-05
2.33585e-05
2.59223e-05
1.9366e-05
2.81935e-05
1.81154e-05
1.22004e-05
1.21456e-05
1.22066e-05
1.21533e-05
1.80979e-05
2.84835e-05
3.05811e-05
2.98063e-05
2.97803e-05
2.98123e-05
2.97881e-05
2.84761e-05
2.84849e-05
3.05804e-05
2.979e-05
2.9802e-05
2.97982e-05
2.98087e-05
2.8477e-05
2.8483e-05
2.98125e-05
2.97879e-05
3.0581e-05
2.8488e-05
2.98075e-05
2.97812e-05
2.85113e-05
3.05844e-05
2.9817e-05
2.9791e-05
2.98203e-05
2.97954e-05
2.85061e-05
3.10056e-05
3.10057e-05
3.01256e-05
2.94638e-05
2.75243e-05
2.85368e-05
2.94702e-05
2.85404e-05
3.01262e-05
3.00773e-05
2.94016e-05
2.74167e-05
2.84157e-05
2.94106e-05
2.84252e-05
3.00711e-05
3.03846e-05
2.94701e-05
2.91523e-05
3.0512e-05
2.91626e-05
3.05181e-05
3.03782e-05
3.00749e-05
2.93999e-05
2.74107e-05
2.84116e-05
2.84209e-05
2.94089e-05
3.00686e-05
3.03837e-05
2.94698e-05
3.05118e-05
2.91501e-05
3.05178e-05
2.91603e-05
3.03771e-05
3.0154e-05
2.94785e-05
2.75981e-05
2.8579e-05
2.9484e-05
2.85819e-05
3.01537e-05
2.84953e-05
3.05828e-05
2.98099e-05
2.9783e-05
2.84913e-05
2.98143e-05
2.97891e-05
2.84999e-05
3.05818e-05
2.98168e-05
2.97915e-05
2.85035e-05
2.9813e-05
2.97862e-05
3.09904e-05
3.08342e-05
3.08499e-05
3.05823e-05
3.09898e-05
3.08406e-05
3.08526e-05
3.05841e-05
3.09939e-05
3.08431e-05
3.08579e-05
3.05906e-05
3.0996e-05
3.08435e-05
3.08581e-05
3.05889e-05
3.09961e-05
3.08432e-05
3.08581e-05
3.0589e-05
3.09961e-05
3.08435e-05
3.08582e-05
3.05891e-05
3.09961e-05
3.08432e-05
3.08582e-05
3.0589e-05
3.09961e-05
3.08435e-05
3.08582e-05
3.05891e-05
3.09961e-05
3.08432e-05
3.08581e-05
3.0589e-05
3.09961e-05
3.08435e-05
3.08581e-05
3.05891e-05
3.09961e-05
3.08432e-05
3.08582e-05
3.0589e-05
3.09961e-05
3.08435e-05
3.08582e-05
3.05891e-05
3.09961e-05
3.08432e-05
3.08581e-05
3.0589e-05
3.09961e-05
3.08435e-05
3.08581e-05
3.05891e-05
3.09961e-05
3.08432e-05
3.08582e-05
3.0589e-05
3.09961e-05
3.08435e-05
3.08581e-05
3.05891e-05
3.09961e-05
3.08432e-05
3.08581e-05
3.0589e-05
3.08482e-05
3.08475e-05
3.08496e-05
3.08501e-05
3.05815e-05
3.05835e-05
3.08393e-05
3.08388e-05
3.08388e-05
3.0839e-05
3.08344e-05
3.08382e-05
3.08361e-05
3.05811e-05
3.05823e-05
3.08523e-05
3.08513e-05
3.08526e-05
3.05807e-05
3.05863e-05
3.05917e-05
3.08508e-05
3.0852e-05
3.08559e-05
3.08559e-05
3.05864e-05
3.05865e-05
3.08394e-05
3.084e-05
3.08443e-05
3.08449e-05
3.08379e-05
3.08431e-05
3.08427e-05
3.05853e-05
3.05911e-05
3.08533e-05
3.08572e-05
3.08574e-05
3.05888e-05
3.05933e-05
3.05875e-05
3.08566e-05
3.08567e-05
3.08571e-05
3.08572e-05
3.0588e-05
3.05864e-05
3.08448e-05
3.0845e-05
3.08443e-05
3.0844e-05
3.0843e-05
3.08434e-05
3.08433e-05
3.05926e-05
3.05866e-05
3.08581e-05
3.08581e-05
3.0859e-05
3.05867e-05
3.05892e-05
3.05875e-05
3.08571e-05
3.08573e-05
3.08572e-05
3.08573e-05
3.05883e-05
3.05854e-05
3.08441e-05
3.08438e-05
3.08443e-05
3.0844e-05
3.08433e-05
3.08432e-05
3.08434e-05
3.05882e-05
3.05867e-05
3.0859e-05
3.08581e-05
3.08591e-05
3.05869e-05
3.05893e-05
3.05874e-05
3.08571e-05
3.08573e-05
3.08571e-05
3.08573e-05
3.05871e-05
3.05865e-05
3.08442e-05
3.0844e-05
3.08443e-05
3.0844e-05
3.08434e-05
3.08435e-05
3.08434e-05
3.05886e-05
3.05867e-05
3.0859e-05
3.08581e-05
3.0859e-05
3.05869e-05
3.05892e-05
3.05874e-05
3.08571e-05
3.08574e-05
3.08572e-05
3.08573e-05
3.05883e-05
3.05854e-05
3.08442e-05
3.08439e-05
3.08443e-05
3.0844e-05
3.08434e-05
3.08432e-05
3.08434e-05
3.05885e-05
3.05867e-05
3.0859e-05
3.08581e-05
3.0859e-05
3.05869e-05
3.05892e-05
3.05874e-05
3.08571e-05
3.08573e-05
3.08571e-05
3.08573e-05
3.05871e-05
3.05865e-05
3.08442e-05
3.0844e-05
3.08443e-05
3.0844e-05
3.08434e-05
3.08435e-05
3.08434e-05
3.05886e-05
3.05867e-05
3.0859e-05
3.08581e-05
3.0859e-05
3.05869e-05
3.05892e-05
3.05874e-05
3.08571e-05
3.08573e-05
3.08571e-05
3.08573e-05
3.05883e-05
3.05853e-05
3.08442e-05
3.08439e-05
3.08443e-05
3.0844e-05
3.08434e-05
3.08432e-05
3.08434e-05
3.05885e-05
3.05867e-05
3.0859e-05
3.08581e-05
3.0859e-05
3.05869e-05
3.05892e-05
3.05874e-05
3.08571e-05
3.08573e-05
3.08571e-05
3.08572e-05
3.05871e-05
3.05865e-05
3.08442e-05
3.08439e-05
3.08443e-05
3.0844e-05
3.08434e-05
3.08435e-05
3.08434e-05
3.05885e-05
3.05866e-05
3.0859e-05
3.08581e-05
3.0859e-05
3.05869e-05
3.05892e-05
3.05874e-05
3.08571e-05
3.08573e-05
3.08571e-05
3.08573e-05
3.05883e-05
3.05854e-05
3.08442e-05
3.08439e-05
3.08443e-05
3.0844e-05
3.08434e-05
3.08432e-05
3.08434e-05
3.05885e-05
3.05867e-05
3.0859e-05
3.08581e-05
3.0859e-05
3.05869e-05
3.05892e-05
3.05874e-05
3.08571e-05
3.08573e-05
3.08571e-05
3.08572e-05
3.05871e-05
3.05865e-05
3.08442e-05
3.0844e-05
3.08443e-05
3.0844e-05
3.08434e-05
3.08435e-05
3.08434e-05
3.05885e-05
3.05867e-05
3.0859e-05
3.08581e-05
3.0859e-05
3.0587e-05
3.05892e-05
3.05874e-05
3.08571e-05
3.08573e-05
3.08571e-05
3.08573e-05
3.05883e-05
3.05853e-05
3.08442e-05
3.08439e-05
3.08443e-05
3.0844e-05
3.08434e-05
3.08432e-05
3.08434e-05
3.05885e-05
3.05867e-05
3.0859e-05
3.08581e-05
3.0859e-05
3.05869e-05
3.05892e-05
3.05874e-05
3.08571e-05
3.08573e-05
3.08571e-05
3.08572e-05
3.0587e-05
3.05864e-05
3.08442e-05
3.08439e-05
3.08443e-05
3.0844e-05
3.08434e-05
3.08434e-05
3.08434e-05
3.05885e-05
3.05867e-05
3.0859e-05
3.08581e-05
3.0859e-05
3.0587e-05
3.05893e-05
3.05875e-05
3.08571e-05
3.08573e-05
3.08572e-05
3.08573e-05
3.05883e-05
3.05854e-05
3.08442e-05
3.08439e-05
3.08443e-05
3.0844e-05
3.08434e-05
3.08432e-05
3.08434e-05
3.05885e-05
3.05867e-05
3.0859e-05
3.08581e-05
3.0859e-05
3.05869e-05
3.05893e-05
3.05874e-05
3.08571e-05
3.08573e-05
3.08571e-05
3.08573e-05
3.05871e-05
3.05865e-05
3.08442e-05
3.0844e-05
3.08443e-05
3.0844e-05
3.08434e-05
3.08435e-05
3.08434e-05
3.05886e-05
3.05866e-05
3.0859e-05
3.08581e-05
3.08591e-05
3.0587e-05
3.05893e-05
3.05875e-05
3.08571e-05
3.08573e-05
3.08571e-05
3.08573e-05
3.05883e-05
3.05853e-05
3.08442e-05
3.08439e-05
3.08443e-05
3.0844e-05
3.08434e-05
3.08432e-05
3.08434e-05
3.05885e-05
3.05868e-05
3.0859e-05
3.08581e-05
3.0859e-05
3.05869e-05
3.05892e-05
3.08571e-05
3.08573e-05
3.05871e-05
3.08442e-05
3.0844e-05
3.08434e-05
3.08435e-05
3.05885e-05
3.0859e-05
3.08591e-05
3.0586e-05
2.72632e-05
1.97987e-05
2.72243e-05
1.98298e-05
1.3364e-05
1.33712e-05
2.7059e-05
1.96406e-05
2.70376e-05
1.96661e-05
3.099e-05
3.09908e-05
3.09908e-05
3.09896e-05
3.09896e-05
3.09898e-05
3.099e-05
2.94742e-05
2.74871e-05
3.09463e-05
3.08348e-05
2.74915e-05
3.09464e-05
2.94768e-05
1.32467e-05
1.32772e-05
2.96123e-05
3.09606e-05
2.76212e-05
3.08501e-05
3.09602e-05
2.76438e-05
2.96073e-05
2.3331e-05
2.35092e-05
3.05782e-05
2.33435e-05
2.35581e-05
2.73259e-05
1.99015e-05
2.73212e-05
1.99083e-05
1.33892e-05
1.33701e-05
2.71048e-05
1.97208e-05
2.7119e-05
1.97019e-05
3.099e-05
3.099e-05
3.09902e-05
3.09925e-05
3.0993e-05
3.09927e-05
3.0993e-05
2.94857e-05
2.74951e-05
3.09505e-05
3.08422e-05
2.94931e-05
2.74546e-05
3.0952e-05
1.32926e-05
1.32703e-05
2.9626e-05
3.09595e-05
2.76828e-05
3.08541e-05
2.96271e-05
3.09599e-05
2.76724e-05
2.33332e-05
2.35871e-05
3.05864e-05
2.32931e-05
2.3549e-05
2.73053e-05
1.98808e-05
2.73188e-05
1.98672e-05
1.3341e-05
1.33354e-05
2.70415e-05
1.96391e-05
2.70899e-05
1.95832e-05
3.09941e-05
3.09939e-05
3.09942e-05
3.09958e-05
3.09958e-05
3.09958e-05
3.09959e-05
2.94632e-05
2.74218e-05
3.09543e-05
3.08431e-05
2.948e-05
2.74005e-05
3.09544e-05
1.32202e-05
1.31859e-05
2.96095e-05
3.09636e-05
2.76341e-05
3.08581e-05
2.96199e-05
3.09645e-05
2.76049e-05
2.32467e-05
2.34946e-05
3.05875e-05
2.32183e-05
2.34604e-05
2.73045e-05
1.98628e-05
2.73099e-05
1.98576e-05
1.33315e-05
1.33332e-05
2.70168e-05
1.95663e-05
2.70327e-05
1.95597e-05
3.09959e-05
3.09959e-05
3.0996e-05
3.09961e-05
3.0996e-05
3.09961e-05
3.09961e-05
2.94659e-05
2.74161e-05
3.09547e-05
3.08434e-05
2.9474e-05
2.74041e-05
3.09547e-05
1.31774e-05
1.31768e-05
2.96039e-05
3.09655e-05
2.75974e-05
3.08581e-05
2.96074e-05
3.09655e-05
2.75927e-05
2.32185e-05
2.34502e-05
3.05871e-05
2.32122e-05
2.34451e-05
2.73039e-05
1.98575e-05
2.73101e-05
1.98537e-05
1.33331e-05
1.33328e-05
2.70198e-05
1.95657e-05
2.70394e-05
1.95611e-05
3.0996e-05
3.0996e-05
3.09961e-05
3.09961e-05
3.0996e-05
3.09961e-05
3.09961e-05
2.9465e-05
2.74125e-05
3.09547e-05
3.08432e-05
2.94732e-05
2.74008e-05
3.09547e-05
1.31822e-05
1.31759e-05
2.96038e-05
3.09655e-05
2.75998e-05
3.08581e-05
2.96076e-05
3.09655e-05
2.75931e-05
2.32207e-05
2.34508e-05
3.05869e-05
2.32101e-05
2.3446e-05
2.73068e-05
1.98583e-05
2.73118e-05
1.98559e-05
1.33317e-05
1.33341e-05
2.70208e-05
1.95651e-05
2.70377e-05
1.95612e-05
3.0996e-05
3.0996e-05
3.09961e-05
3.09961e-05
3.0996e-05
3.09961e-05
3.09961e-05
2.94647e-05
2.74144e-05
3.09547e-05
3.08434e-05
2.94736e-05
2.74022e-05
3.09547e-05
1.31804e-05
1.31774e-05
2.96041e-05
3.09655e-05
2.75993e-05
3.08581e-05
2.96072e-05
3.09655e-05
2.75933e-05
2.32225e-05
2.34519e-05
3.05871e-05
2.32098e-05
2.34467e-05
2.73021e-05
1.98574e-05
2.73108e-05
1.98536e-05
1.33339e-05
1.33332e-05
2.70212e-05
1.95655e-05
2.70374e-05
1.95611e-05
3.0996e-05
3.0996e-05
3.09961e-05
3.09961e-05
3.0996e-05
3.09961e-05
3.09961e-05
2.94646e-05
2.74128e-05
3.09547e-05
3.08432e-05
2.94736e-05
2.74005e-05
3.09547e-05
1.31821e-05
1.31761e-05
2.96042e-05
3.09655e-05
2.75999e-05
3.08581e-05
2.96077e-05
3.09655e-05
2.75935e-05
2.32223e-05
2.34519e-05
3.05869e-05
2.32097e-05
2.3446e-05
2.7303e-05
1.98582e-05
2.73077e-05
1.98558e-05
1.33314e-05
1.33333e-05
2.7021e-05
1.95651e-05
2.70372e-05
1.95612e-05
3.0996e-05
3.0996e-05
3.09961e-05
3.09961e-05
3.0996e-05
3.09961e-05
3.09961e-05
2.94647e-05
2.74143e-05
3.09547e-05
3.08434e-05
2.94737e-05
2.74022e-05
3.09547e-05
1.31803e-05
1.31774e-05
2.96036e-05
3.09655e-05
2.75999e-05
3.08581e-05
2.96074e-05
3.09655e-05
2.75934e-05
2.32225e-05
2.34509e-05
3.05871e-05
2.32094e-05
2.34442e-05
2.73044e-05
1.98576e-05
2.73114e-05
1.98538e-05
1.33331e-05
1.33327e-05
2.70212e-05
1.95655e-05
2.70374e-05
1.95611e-05
3.0996e-05
3.0996e-05
3.09961e-05
3.0996e-05
3.0996e-05
3.09961e-05
3.09961e-05
2.94646e-05
2.74128e-05
3.09547e-05
3.08432e-05
2.94736e-05
2.74004e-05
3.09547e-05
1.3182e-05
1.3176e-05
2.96031e-05
3.09655e-05
2.75997e-05
3.08581e-05
2.96067e-05
3.09655e-05
2.75935e-05
2.3222e-05
2.34509e-05
3.05869e-05
2.32096e-05
2.34458e-05
2.73064e-05
1.98583e-05
2.73119e-05
1.9856e-05
1.33317e-05
1.33344e-05
2.70208e-05
1.9565e-05
2.70371e-05
1.9561e-05
3.0996e-05
3.0996e-05
3.09961e-05
3.09961e-05
3.0996e-05
3.09961e-05
3.09961e-05
2.94646e-05
2.74143e-05
3.09547e-05
3.08434e-05
2.94737e-05
2.74022e-05
3.09547e-05
1.31803e-05
1.31772e-05
2.96033e-05
3.09655e-05
2.76e-05
3.08581e-05
2.96067e-05
3.09655e-05
2.75935e-05
2.32225e-05
2.3452e-05
3.05871e-05
2.32094e-05
2.34474e-05
2.73043e-05
1.98563e-05
2.73111e-05
1.98536e-05
1.33323e-05
1.33319e-05
2.70211e-05
1.95641e-05
2.70374e-05
1.95593e-05
3.0996e-05
3.0996e-05
3.09961e-05
3.09961e-05
3.0996e-05
3.09961e-05
3.09961e-05
2.94646e-05
2.74128e-05
3.09547e-05
3.08432e-05
2.94736e-05
2.74004e-05
3.09547e-05
1.31811e-05
1.31771e-05
2.96034e-05
3.09655e-05
2.75998e-05
3.08581e-05
2.96068e-05
3.09655e-05
2.75934e-05
2.3222e-05
2.34535e-05
3.05869e-05
2.32097e-05
2.34473e-05
2.73043e-05
1.98563e-05
2.73103e-05
1.98538e-05
1.33299e-05
1.33319e-05
2.7021e-05
1.95676e-05
2.70372e-05
1.95626e-05
3.0996e-05
3.0996e-05
3.09961e-05
3.0996e-05
3.0996e-05
3.09961e-05
3.09961e-05
2.94647e-05
2.74144e-05
3.09547e-05
3.08434e-05
2.94737e-05
2.74022e-05
3.09547e-05
1.31825e-05
1.3177e-05
2.96044e-05
3.09655e-05
2.76e-05
3.08581e-05
2.96074e-05
3.09655e-05
2.75936e-05
2.32225e-05
2.34535e-05
3.05872e-05
2.32097e-05
2.34485e-05
2.73055e-05
1.98569e-05
2.73116e-05
1.98541e-05
1.33317e-05
1.33311e-05
2.70212e-05
1.95658e-05
2.70374e-05
1.95612e-05
3.0996e-05
3.0996e-05
3.09961e-05
3.0996e-05
3.0996e-05
3.09961e-05
3.09961e-05
2.94646e-05
2.74128e-05
3.09547e-05
3.08432e-05
2.94736e-05
2.74003e-05
3.09547e-05
1.31813e-05
1.3176e-05
2.96042e-05
3.09655e-05
2.76001e-05
3.08581e-05
2.96078e-05
3.09655e-05
2.75935e-05
2.32222e-05
2.34531e-05
3.05869e-05
2.32097e-05
2.34473e-05
2.73042e-05
1.98597e-05
2.731e-05
1.9857e-05
1.33296e-05
1.33324e-05
2.70209e-05
1.95651e-05
2.70372e-05
1.9561e-05
3.0996e-05
3.0996e-05
3.09961e-05
3.09961e-05
3.0996e-05
3.09961e-05
3.09961e-05
2.94646e-05
2.74141e-05
3.09547e-05
3.08434e-05
2.94736e-05
2.74021e-05
3.09547e-05
1.31803e-05
1.31774e-05
2.96036e-05
3.09655e-05
2.75993e-05
3.08581e-05
2.96073e-05
3.09655e-05
2.75929e-05
2.32226e-05
2.34536e-05
3.05872e-05
2.32092e-05
2.34486e-05
2.7302e-05
1.98592e-05
2.731e-05
1.98557e-05
1.33338e-05
1.33331e-05
2.70211e-05
1.95652e-05
2.70373e-05
1.95609e-05
3.0996e-05
3.0996e-05
3.09961e-05
3.09961e-05
3.0996e-05
3.09961e-05
3.09961e-05
2.94646e-05
2.74129e-05
3.09547e-05
3.08432e-05
2.94736e-05
2.74004e-05
3.09547e-05
1.3182e-05
1.3176e-05
2.96037e-05
3.09655e-05
2.75995e-05
3.08581e-05
2.96071e-05
3.09655e-05
2.75931e-05
2.32216e-05
2.34532e-05
3.05869e-05
2.3209e-05
2.34473e-05
2.73061e-05
1.98597e-05
2.73101e-05
1.98572e-05
1.33305e-05
1.33313e-05
2.7021e-05
1.95652e-05
2.70372e-05
1.9561e-05
3.0996e-05
3.0996e-05
3.09961e-05
3.0996e-05
3.0996e-05
3.09961e-05
3.09961e-05
2.94647e-05
2.74144e-05
3.09547e-05
3.08434e-05
2.94737e-05
2.74022e-05
3.09547e-05
1.31802e-05
1.31774e-05
2.96035e-05
3.09655e-05
2.75998e-05
3.08581e-05
2.9607e-05
3.09655e-05
2.75935e-05
2.32223e-05
2.34536e-05
3.05872e-05
2.32093e-05
2.34486e-05
2.73026e-05
1.9859e-05
2.73105e-05
1.98552e-05
1.33323e-05
1.33321e-05
2.70211e-05
1.95652e-05
2.70374e-05
1.9561e-05
3.0996e-05
3.0996e-05
3.09961e-05
3.09961e-05
2.94646e-05
2.74128e-05
3.09547e-05
3.08432e-05
2.94736e-05
2.74003e-05
3.09547e-05
1.31816e-05
1.31742e-05
2.96035e-05
3.09655e-05
2.75998e-05
3.08581e-05
2.9607e-05
3.09655e-05
2.75935e-05
2.32215e-05
2.34531e-05
3.05868e-05
2.32092e-05
2.34471e-05
2.72655e-05
1.98088e-05
1.98503e-05
2.72264e-05
2.95653e-05
2.75548e-05
3.09554e-05
3.08484e-05
3.09563e-05
2.95595e-05
2.7578e-05
2.95652e-05
2.75622e-05
3.09552e-05
3.08478e-05
2.75836e-05
3.09561e-05
2.95594e-05
2.72882e-05
1.98908e-05
2.73082e-05
1.98563e-05
2.72908e-05
1.99078e-05
1.98774e-05
2.73104e-05
2.9575e-05
3.08488e-05
2.76097e-05
3.09584e-05
3.09573e-05
2.95859e-05
2.75987e-05
2.95751e-05
3.08484e-05
2.76138e-05
3.09581e-05
2.76033e-05
3.0957e-05
2.9586e-05
2.34309e-05
2.3374e-05
3.05804e-05
2.34605e-05
2.33722e-05
1.33104e-05
1.33058e-05
1.33865e-05
1.33819e-05
3.05825e-05
2.34834e-05
2.33306e-05
2.34787e-05
2.33814e-05
1.32698e-05
1.33095e-05
2.94635e-05
2.74405e-05
3.09485e-05
3.08387e-05
3.09479e-05
2.94691e-05
2.7458e-05
2.70597e-05
1.96349e-05
1.96643e-05
2.70387e-05
2.94633e-05
3.09509e-05
2.74347e-05
3.08385e-05
3.09502e-05
2.74531e-05
2.94689e-05
2.70897e-05
1.97106e-05
2.71009e-05
1.96956e-05
2.94746e-05
3.08385e-05
2.74903e-05
3.09478e-05
3.09477e-05
2.9475e-05
2.74833e-05
2.70904e-05
1.97109e-05
1.96958e-05
2.71013e-05
2.94746e-05
3.08386e-05
3.09495e-05
2.74869e-05
3.09495e-05
2.74792e-05
2.94751e-05
2.71147e-05
1.97375e-05
1.97455e-05
2.7116e-05
2.94734e-05
3.09466e-05
2.74564e-05
3.08345e-05
3.09467e-05
2.74649e-05
2.94753e-05
2.7114e-05
1.96779e-05
1.96972e-05
2.71094e-05
2.9485e-05
3.0836e-05
2.74887e-05
3.09486e-05
2.75067e-05
3.0947e-05
2.94825e-05
2.71293e-05
1.97074e-05
1.97541e-05
2.71061e-05
2.94846e-05
3.0835e-05
3.09488e-05
2.74751e-05
3.09474e-05
2.74819e-05
2.9483e-05
2.71304e-05
1.96957e-05
1.97126e-05
2.7112e-05
2.3283e-05
2.35039e-05
3.05798e-05
2.33225e-05
2.35547e-05
1.34009e-05
1.34307e-05
1.3289e-05
1.32944e-05
3.05816e-05
2.3361e-05
2.35804e-05
2.33559e-05
2.35845e-05
1.34421e-05
1.34461e-05
2.96119e-05
3.09608e-05
2.76263e-05
3.08523e-05
3.09605e-05
2.76475e-05
2.96069e-05
2.73725e-05
1.9933e-05
1.99774e-05
2.73452e-05
2.73705e-05
1.99352e-05
1.99715e-05
2.73416e-05
2.96191e-05
3.08505e-05
3.09593e-05
2.76753e-05
3.09593e-05
2.76649e-05
2.96231e-05
2.96188e-05
3.08523e-05
3.09597e-05
2.76777e-05
3.09597e-05
2.76686e-05
2.96233e-05
2.73928e-05
2.00214e-05
2.00052e-05
2.74e-05
2.73913e-05
2.00126e-05
1.99988e-05
2.74e-05
1.32723e-05
1.3274e-05
1.3411e-05
1.34392e-05
3.05798e-05
2.33279e-05
2.35849e-05
2.33569e-05
2.35869e-05
1.32609e-05
1.32815e-05
1.34501e-05
1.34558e-05
1.33787e-05
1.3371e-05
1.32999e-05
1.32733e-05
2.35119e-05
2.33793e-05
3.05883e-05
2.35026e-05
2.33411e-05
1.33444e-05
1.33715e-05
1.32256e-05
1.32749e-05
3.05911e-05
2.34644e-05
2.32819e-05
2.3507e-05
2.33458e-05
2.73289e-05
1.99183e-05
2.73262e-05
1.99104e-05
2.96024e-05
2.76216e-05
3.09593e-05
3.08526e-05
2.95945e-05
2.76221e-05
3.09603e-05
2.96024e-05
2.76245e-05
3.09588e-05
3.08537e-05
2.95948e-05
2.76219e-05
3.09597e-05
2.73333e-05
1.98853e-05
1.99114e-05
2.7318e-05
2.73356e-05
1.98735e-05
1.99095e-05
2.73173e-05
2.96074e-05
3.08544e-05
2.7612e-05
3.09629e-05
2.76304e-05
3.09616e-05
2.96066e-05
2.96073e-05
3.08551e-05
2.76047e-05
3.09624e-05
2.76281e-05
3.0961e-05
2.96061e-05
2.34942e-05
2.33345e-05
3.05871e-05
2.34787e-05
2.32725e-05
1.32679e-05
1.32106e-05
1.33464e-05
1.33689e-05
3.05889e-05
2.34464e-05
2.32207e-05
2.34819e-05
2.32754e-05
1.31751e-05
1.32105e-05
2.94862e-05
2.75062e-05
3.09483e-05
3.08407e-05
2.94871e-05
2.7494e-05
3.09491e-05
2.7108e-05
1.97228e-05
2.71201e-05
1.96984e-05
2.94865e-05
3.09498e-05
2.7503e-05
3.08416e-05
2.94872e-05
3.09504e-05
2.74906e-05
2.7116e-05
1.96423e-05
1.97049e-05
2.70827e-05
2.9497e-05
3.08426e-05
2.74667e-05
3.09523e-05
2.75035e-05
3.09506e-05
2.94905e-05
2.71194e-05
1.96274e-05
1.97002e-05
2.7083e-05
2.94974e-05
3.08436e-05
3.09529e-05
2.74592e-05
3.09516e-05
2.74996e-05
2.94906e-05
2.7076e-05
1.9706e-05
2.71156e-05
1.96202e-05
2.94873e-05
3.09502e-05
2.74869e-05
3.084e-05
2.94937e-05
3.09515e-05
2.74613e-05
2.7083e-05
1.96992e-05
2.71219e-05
1.96436e-05
2.94932e-05
3.0843e-05
2.74167e-05
3.09539e-05
2.74599e-05
3.09532e-05
2.94742e-05
2.70833e-05
1.95625e-05
1.96177e-05
2.70414e-05
2.94951e-05
3.08417e-05
3.09535e-05
2.74264e-05
3.09527e-05
2.74678e-05
2.94762e-05
2.70902e-05
1.9584e-05
1.96435e-05
2.70456e-05
2.33718e-05
2.35839e-05
3.05876e-05
2.33342e-05
2.35466e-05
1.34427e-05
1.34164e-05
1.32227e-05
1.32723e-05
3.05905e-05
2.32758e-05
2.34937e-05
2.3339e-05
2.35486e-05
1.33641e-05
1.34129e-05
2.96264e-05
3.09598e-05
2.76863e-05
3.08545e-05
2.96276e-05
3.09602e-05
2.7675e-05
2.73848e-05
2.00252e-05
2.74061e-05
1.99939e-05
2.73845e-05
2.00176e-05
2.74062e-05
1.99904e-05
2.96289e-05
3.08558e-05
3.09622e-05
2.76381e-05
3.09608e-05
2.76761e-05
2.96197e-05
2.96292e-05
3.0856e-05
3.09625e-05
2.76444e-05
3.09611e-05
2.76788e-05
2.96195e-05
2.73863e-05
1.99107e-05
1.99855e-05
2.73492e-05
2.73858e-05
1.99148e-05
1.99856e-05
2.7348e-05
1.32633e-05
1.32237e-05
1.3451e-05
1.34246e-05
3.05892e-05
2.32431e-05
2.3498e-05
2.32982e-05
2.3551e-05
1.31887e-05
1.32247e-05
1.33768e-05
1.3422e-05
1.33439e-05
1.33279e-05
1.32256e-05
1.31907e-05
2.34663e-05
2.32844e-05
3.05895e-05
2.34291e-05
2.32265e-05
1.33224e-05
1.33298e-05
1.3179e-05
1.31945e-05
3.05904e-05
2.34155e-05
2.32029e-05
2.34338e-05
2.32326e-05
2.73029e-05
1.98722e-05
2.73199e-05
1.98559e-05
2.96035e-05
2.7615e-05
3.09638e-05
3.08569e-05
2.96088e-05
2.75955e-05
3.09643e-05
2.96027e-05
2.76083e-05
3.09635e-05
3.08569e-05
2.96083e-05
2.7593e-05
3.09642e-05
2.73105e-05
1.98611e-05
1.98703e-05
2.7304e-05
2.73072e-05
1.98476e-05
1.98587e-05
2.72996e-05
2.96064e-05
3.08571e-05
2.75882e-05
3.0965e-05
2.76002e-05
3.09647e-05
2.9603e-05
2.96055e-05
3.08569e-05
2.75896e-05
3.09649e-05
2.75987e-05
3.09646e-05
2.96019e-05
2.34503e-05
2.3228e-05
3.05861e-05
2.34237e-05
2.32051e-05
1.31795e-05
1.31703e-05
1.33306e-05
1.33369e-05
3.05876e-05
2.34218e-05
2.32028e-05
2.34282e-05
2.32174e-05
1.31718e-05
1.31787e-05
2.94762e-05
2.74723e-05
3.09536e-05
3.08447e-05
2.9498e-05
2.74279e-05
3.09542e-05
2.70432e-05
1.96244e-05
2.70902e-05
1.95632e-05
2.94759e-05
3.09538e-05
2.74644e-05
3.08448e-05
2.94979e-05
3.09541e-05
2.74185e-05
2.70498e-05
1.95602e-05
1.95875e-05
2.70212e-05
2.94816e-05
3.08445e-05
2.74065e-05
3.09546e-05
2.74347e-05
3.09545e-05
2.94633e-05
2.70515e-05
1.95451e-05
1.95674e-05
2.70217e-05
2.94813e-05
3.08443e-05
3.09542e-05
2.73982e-05
3.09542e-05
2.74254e-05
2.9463e-05
2.70224e-05
1.95671e-05
2.70505e-05
1.95473e-05
2.94641e-05
3.09539e-05
2.74332e-05
3.08431e-05
2.94818e-05
3.09539e-05
2.74049e-05
2.70241e-05
1.95872e-05
2.70542e-05
1.95584e-05
2.94711e-05
3.08432e-05
2.74029e-05
3.09546e-05
2.74132e-05
3.09545e-05
2.94639e-05
2.70342e-05
1.95485e-05
1.95557e-05
2.70223e-05
2.94715e-05
3.08432e-05
3.09542e-05
2.73981e-05
3.09541e-05
2.74141e-05
2.94633e-05
2.70352e-05
1.95505e-05
1.9565e-05
2.70208e-05
2.32785e-05
2.34935e-05
3.05886e-05
2.32214e-05
2.34485e-05
1.33595e-05
1.33359e-05
1.31722e-05
1.31897e-05
3.05894e-05
2.31988e-05
2.34344e-05
2.32277e-05
2.34529e-05
1.33295e-05
1.33371e-05
2.96093e-05
3.09637e-05
2.76444e-05
3.08585e-05
2.96198e-05
3.09645e-05
2.76164e-05
2.73177e-05
1.98992e-05
2.73494e-05
1.98612e-05
2.73164e-05
1.99078e-05
2.7348e-05
1.98688e-05
2.96104e-05
3.08581e-05
3.09653e-05
2.75923e-05
3.0965e-05
2.76086e-05
2.9605e-05
2.96102e-05
3.08588e-05
3.09654e-05
2.76042e-05
3.09651e-05
2.76202e-05
2.96047e-05
2.73197e-05
1.98474e-05
1.9863e-05
2.7307e-05
2.73184e-05
1.98556e-05
1.98706e-05
2.73058e-05
1.31918e-05
1.31709e-05
1.33736e-05
1.33508e-05
3.05888e-05
2.32084e-05
2.34453e-05
2.32277e-05
2.34654e-05
1.31684e-05
1.31766e-05
1.33432e-05
1.33523e-05
1.33256e-05
1.33213e-05
1.31848e-05
1.3177e-05
2.34227e-05
2.32127e-05
3.05874e-05
2.34151e-05
2.31994e-05
1.33215e-05
1.33258e-05
1.31789e-05
1.3185e-05
3.0589e-05
2.34172e-05
2.32048e-05
2.34248e-05
2.32134e-05
2.7301e-05
1.98526e-05
2.73066e-05
1.98485e-05
2.96032e-05
2.75958e-05
3.0965e-05
3.08571e-05
2.96063e-05
2.75886e-05
3.0965e-05
2.96022e-05
2.75972e-05
3.0965e-05
3.08574e-05
2.96053e-05
2.75898e-05
3.0965e-05
2.73112e-05
1.98544e-05
1.98623e-05
2.73051e-05
2.73072e-05
1.98467e-05
1.98544e-05
2.7301e-05
2.96065e-05
3.08571e-05
2.75869e-05
3.09651e-05
2.75959e-05
3.0965e-05
2.96033e-05
2.96055e-05
3.08573e-05
2.75881e-05
3.09651e-05
2.75973e-05
3.0965e-05
2.96023e-05
2.34318e-05
2.32159e-05
3.05861e-05
2.34274e-05
2.32051e-05
1.3178e-05
1.31692e-05
1.33336e-05
1.33378e-05
3.05874e-05
2.34262e-05
2.31991e-05
2.34362e-05
2.32155e-05
1.31671e-05
1.31753e-05
2.94626e-05
2.74168e-05
3.09546e-05
3.08441e-05
2.94707e-05
2.74056e-05
3.09546e-05
2.70183e-05
1.95529e-05
2.7033e-05
1.95485e-05
2.94621e-05
3.09542e-05
2.74088e-05
3.08438e-05
2.94703e-05
3.09542e-05
2.73984e-05
2.70329e-05
1.95586e-05
1.9571e-05
2.70253e-05
2.94728e-05
3.08442e-05
2.74084e-05
3.09548e-05
2.74202e-05
3.09547e-05
2.94663e-05
2.70349e-05
1.95507e-05
1.9561e-05
2.70258e-05
2.94724e-05
3.08439e-05
3.09543e-05
2.74031e-05
3.09542e-05
2.74135e-05
2.94658e-05
2.7026e-05
1.95594e-05
2.70391e-05
1.95497e-05
2.94661e-05
3.09542e-05
2.74119e-05
3.08434e-05
2.94734e-05
3.09542e-05
2.74016e-05
2.70262e-05
1.95599e-05
2.70376e-05
1.95507e-05
2.94743e-05
3.08433e-05
2.74009e-05
3.09547e-05
2.74161e-05
3.09547e-05
2.94641e-05
2.70386e-05
1.95463e-05
1.95579e-05
2.70222e-05
2.94746e-05
3.08434e-05
3.09542e-05
2.74002e-05
3.09542e-05
2.74143e-05
2.9464e-05
2.70391e-05
1.95475e-05
1.956e-05
2.70218e-05
2.32089e-05
2.34415e-05
3.05866e-05
2.31982e-05
2.34385e-05
1.33332e-05
1.33307e-05
1.31774e-05
1.31854e-05
3.05882e-05
2.32052e-05
2.3442e-05
2.32129e-05
2.3449e-05
1.33317e-05
1.33355e-05
2.96035e-05
3.09655e-05
2.76102e-05
3.0859e-05
2.96073e-05
3.09655e-05
2.76033e-05
2.73062e-05
1.9852e-05
2.73119e-05
1.98483e-05
2.73036e-05
1.98595e-05
2.73108e-05
1.98543e-05
2.96073e-05
3.08581e-05
3.09655e-05
2.75937e-05
3.09655e-05
2.76016e-05
2.96045e-05
2.96068e-05
3.08591e-05
3.09656e-05
2.7603e-05
3.09655e-05
2.76116e-05
2.96038e-05
2.73132e-05
1.98474e-05
1.98544e-05
2.73074e-05
2.73099e-05
1.98527e-05
1.98599e-05
2.73042e-05
1.31756e-05
1.31675e-05
1.33464e-05
1.33426e-05
3.05888e-05
2.32114e-05
2.34459e-05
2.32259e-05
2.34554e-05
1.31685e-05
1.31748e-05
1.33423e-05
1.33473e-05
1.33253e-05
1.33208e-05
1.31855e-05
1.31777e-05
2.34251e-05
2.32164e-05
3.05875e-05
2.34162e-05
2.32014e-05
1.33218e-05
1.33252e-05
1.31783e-05
1.31852e-05
3.0589e-05
2.34184e-05
2.3203e-05
2.34253e-05
2.32138e-05
2.73007e-05
1.98519e-05
2.73076e-05
1.98487e-05
2.9603e-05
2.75947e-05
3.09651e-05
3.08571e-05
2.96065e-05
2.75875e-05
3.0965e-05
2.96021e-05
2.75957e-05
3.09651e-05
3.08572e-05
2.96056e-05
2.75896e-05
3.0965e-05
2.73106e-05
1.98536e-05
1.98591e-05
2.7306e-05
2.73066e-05
1.98492e-05
1.98543e-05
2.73019e-05
2.96063e-05
3.08571e-05
2.75865e-05
3.09651e-05
2.75949e-05
3.0965e-05
2.96032e-05
2.96054e-05
3.08571e-05
2.75899e-05
3.09651e-05
2.75973e-05
3.0965e-05
2.96023e-05
2.34337e-05
2.32112e-05
3.05861e-05
2.34212e-05
2.32011e-05
1.31739e-05
1.31679e-05
1.33304e-05
1.33355e-05
3.05877e-05
2.34211e-05
2.32005e-05
2.34264e-05
2.32154e-05
1.3169e-05
1.31766e-05
2.94642e-05
2.74204e-05
3.09547e-05
3.08442e-05
2.9475e-05
2.74069e-05
3.09547e-05
2.70214e-05
1.95577e-05
2.70395e-05
1.95441e-05
2.94637e-05
3.09543e-05
2.74151e-05
3.08439e-05
2.94744e-05
3.09542e-05
2.73992e-05
2.70335e-05
1.95576e-05
1.9572e-05
2.70228e-05
2.9473e-05
3.08442e-05
2.74074e-05
3.09548e-05
2.742e-05
3.09547e-05
2.94651e-05
2.70356e-05
1.95482e-05
1.95545e-05
2.70233e-05
2.94727e-05
3.08439e-05
3.09543e-05
2.74008e-05
3.09542e-05
2.74118e-05
2.94646e-05
2.70247e-05
1.95558e-05
2.70375e-05
1.95475e-05
2.94652e-05
3.09542e-05
2.74127e-05
3.08433e-05
2.9473e-05
3.09542e-05
2.73996e-05
2.70248e-05
1.95562e-05
2.70368e-05
1.95465e-05
2.9474e-05
3.08433e-05
2.74027e-05
3.09547e-05
2.7415e-05
3.09547e-05
2.94648e-05
2.70387e-05
1.95472e-05
1.95578e-05
2.70235e-05
2.94742e-05
3.08434e-05
3.09543e-05
2.74013e-05
3.09542e-05
2.74125e-05
2.94647e-05
2.70388e-05
1.95511e-05
1.95575e-05
2.70231e-05
2.32168e-05
2.34489e-05
3.05867e-05
2.32007e-05
2.34378e-05
1.33354e-05
1.33304e-05
1.31745e-05
1.31835e-05
3.05883e-05
2.3202e-05
2.34392e-05
2.32125e-05
2.34464e-05
1.33304e-05
1.33346e-05
2.96033e-05
3.09655e-05
2.76098e-05
3.0859e-05
2.9607e-05
3.09655e-05
2.76028e-05
2.73046e-05
1.98528e-05
2.73131e-05
1.98488e-05
2.73025e-05
1.9858e-05
2.73102e-05
1.98511e-05
2.96069e-05
3.08581e-05
3.09655e-05
2.7593e-05
3.09655e-05
2.76014e-05
2.96039e-05
2.96064e-05
3.0859e-05
3.09656e-05
2.76022e-05
3.09655e-05
2.7611e-05
2.96034e-05
2.73104e-05
1.98462e-05
1.98542e-05
2.73057e-05
2.73083e-05
1.98501e-05
1.98565e-05
2.73032e-05
1.31752e-05
1.31684e-05
1.33463e-05
1.33424e-05
3.05885e-05
2.32138e-05
2.3447e-05
2.32242e-05
2.34561e-05
1.31704e-05
1.31766e-05
1.33421e-05
1.3347e-05
1.33261e-05
1.3322e-05
1.31851e-05
1.31783e-05
2.34271e-05
2.32151e-05
3.05876e-05
2.34181e-05
2.3202e-05
1.33214e-05
1.33262e-05
1.31784e-05
1.31857e-05
3.05891e-05
2.34167e-05
2.32022e-05
2.34262e-05
2.32142e-05
2.73039e-05
1.98548e-05
2.73092e-05
1.98517e-05
2.96036e-05
2.75948e-05
3.09651e-05
3.08571e-05
2.96065e-05
2.75886e-05
3.0965e-05
2.96027e-05
2.75975e-05
3.09651e-05
3.08574e-05
2.96057e-05
2.75904e-05
3.09651e-05
2.73137e-05
1.98546e-05
1.98615e-05
2.73071e-05
2.73105e-05
1.98517e-05
1.98574e-05