/*--------------------------------*- C++ -*----------------------------------*\
| =========                 |                                                 |
| \\      /  F ield         | OpenFOAM: The Open Source CFD Toolbox           |
|  \\    /   O peration     | Version:  2206                                  |
|   \\  /    A nd           | Website:  www.openfoam.com                      |
|    \\/     M anipulation  |                                                 |
\*---------------------------------------------------------------------------*/
FoamFile
{
    version     2.0;
    format      ascii;
    arch        "LSB;label=32;scalar=64";
    class       volScalarField;
    location    "0.1";
    object      p;
}
// * * * * * * * * * * * * * * * * * * * * * * * * * * * * * * * * * * * * * //

dimensions      [0 2 -2 0 0 0 0];

internalField   nonuniform List<scalar> 
66928
(
-0.0108922
-0.0108698
-0.0108703
-0.0108701
-0.0108921
-0.0108703
-0.0109364
-0.0112447
-0.01087
-0.0108699
-0.0108922
-0.0108921
-0.0108922
-0.0108922
-0.0108922
-0.0108912
-0.0108922
-0.0108921
-0.0108919
-0.0108706
-0.0108917
-0.0108921
-0.0108921
-0.0108706
-0.0108918
-0.0108917
-0.0108921
-0.0108921
-0.0108921
-0.010892
-0.0108917
-0.0108921
-0.0109367
-0.0110686
-0.0109365
-0.0110683
-0.0109365
-0.0109365
-0.0110683
-0.0110685
-0.0110684
-0.0112446
-0.0111129
-0.0112445
-0.0111127
-0.0111126
-0.0112446
-0.0112446
-0.0111128
-0.0111127
-0.0108484
-0.0108484
-0.0108923
-0.0108483
-0.0108922
-0.0108485
-0.0108484
-0.0108922
-0.0108485
-0.0108922
-0.0108484
-0.0108922
-0.0108484
-0.0108484
-0.0108921
-0.0108484
-0.0108922
-0.0108922
-0.0108485
-0.0108485
-0.0108923
-0.0108483
-0.0108921
-0.0108482
-0.0108922
-0.0108922
-0.010892
-0.0108921
-0.0108921
-0.0108921
-0.0108921
-0.010892
-0.0108921
-0.0108921
-0.0108921
-0.0108485
-0.010892
-0.0108484
-0.0108921
-0.0108485
-0.0108484
-0.0108919
-0.0108485
-0.0108921
-0.0108484
-0.0108921
-0.0108484
-0.0108482
-0.010892
-0.0108484
-0.010892
-0.0108921
-0.0108484
-0.0108485
-0.0108921
-0.0108484
-0.0108484
-0.0108921
-0.0108484
-0.010892
-0.0109805
-0.0110249
-0.0109802
-0.0110246
-0.0110246
-0.0110684
-0.0110684
-0.0110248
-0.0110247
-0.0110685
-0.0109803
-0.0109365
-0.0109366
-0.0109804
-0.0109367
-0.0109804
-0.0109803
-0.0109802
-0.0109364
-0.0109366
-0.0109803
-0.0109366
-0.0109803
-0.0109803
-0.0109804
-0.0109367
-0.0109366
-0.0109366
-0.0109804
-0.0109803
-0.0110247
-0.0110685
-0.0110247
-0.0110684
-0.0110248
-0.0110684
-0.0110246
-0.0110247
-0.0110684
-0.0110246
-0.0110684
-0.0110247
-0.0110683
-0.0110245
-0.0112009
-0.0111566
-0.0112008
-0.0111564
-0.0111566
-0.0111128
-0.0111128
-0.0111127
-0.0111565
-0.0111564
-0.0112009
-0.0112447
-0.0112008
-0.0112446
-0.0112009
-0.0112009
-0.0112446
-0.0112009
-0.0112446
-0.0112008
-0.0112445
-0.0112008
-0.0112008
-0.0112446
-0.0111565
-0.0111128
-0.0111127
-0.0111566
-0.0111128
-0.0111565
-0.0111566
-0.0111564
-0.0111127
-0.0111126
-0.0111565
-0.0111128
-0.0111565
-0.0111565
-0.0112008
-0.0112445
-0.0112445
-0.0112009
-0.0112009
-0.0112446
-0.0108493
-0.0108485
-0.0108919
-0.0108919
-0.0108492
-0.0108488
-0.0108914
-0.0108494
-0.0108486
-0.0108917
-0.0108916
-0.0108491
-0.010848
-0.0108911
-0.0109794
-0.0109373
-0.0109368
-0.0109802
-0.0109375
-0.0109799
-0.0109799
-0.0112018
-0.0112008
-0.0112442
-0.0112443
-0.0112014
-0.0112011
-0.0112438
-0.0108704
-0.0108703
-0.0108484
-0.0108924
-0.0108484
-0.0108907
-0.0108481
-0.010848
-0.0108921
-0.0108482
-0.0108924
-0.0108488
-0.0108917
-0.0108481
-0.0108489
-0.0108923
-0.0108483
-0.0108489
-0.0108917
-0.0108923
-0.0108489
-0.0108483
-0.0108922
-0.0108483
-0.0108923
-0.0108487
-0.0108917
-0.0108489
-0.0108481
-0.0108921
-0.0108483
-0.0108489
-0.0108923
-0.0108917
-0.0108483
-0.0108489
-0.0108922
-0.0108481
-0.0108924
-0.0108489
-0.0108914
-0.0108479
-0.010849
-0.0108922
-0.0110255
-0.0110245
-0.0110679
-0.011068
-0.0110675
-0.0110251
-0.0110248
-0.0111556
-0.0111565
-0.0111132
-0.011113
-0.0111136
-0.0111561
-0.0111561
-0.0109581
-0.0109582
-0.0109581
-0.0109362
-0.0113107
-0.0113109
-0.0113108
-0.0112889
-0.0116632
-0.0116633
-0.0116634
-0.0116414
-0.0120158
-0.0120159
-0.0120159
-0.0119939
-0.0123683
-0.0123684
-0.0123684
-0.0123465
-0.0127209
-0.012721
-0.012721
-0.012699
-0.0130735
-0.0130735
-0.0130735
-0.0130516
-0.013426
-0.0134261
-0.0134261
-0.0134041
-0.0137786
-0.0137786
-0.0137786
-0.0137567
-0.0141311
-0.0141312
-0.0141312
-0.0141092
-0.0144837
-0.0144837
-0.0144837
-0.0144618
-0.0148363
-0.0148363
-0.0148363
-0.0148144
-0.0151889
-0.0151889
-0.0151889
-0.0151669
-0.0155414
-0.0155415
-0.0155414
-0.0155195
-0.015894
-0.015894
-0.015894
-0.015872
-0.0162465
-0.0162466
-0.0162465
-0.0162246
-0.0165991
-0.0165991
-0.0165991
-0.0165771
-0.0109577
-0.010958
-0.0112227
-0.0112226
-0.0109363
-0.0112447
-0.0109583
-0.0109581
-0.0112227
-0.0112227
-0.0109581
-0.0112228
-0.0112227
-0.0109362
-0.0112446
-0.0109579
-0.0112227
-0.0112228
-0.0112446
-0.011289
-0.0115972
-0.0113107
-0.0113107
-0.0115751
-0.0115751
-0.011289
-0.0115971
-0.0113108
-0.0113108
-0.0115752
-0.0115752
-0.0113108
-0.0115752
-0.0115752
-0.0112888
-0.0115971
-0.0113108
-0.0115752
-0.0115752
-0.0115971
-0.0116415
-0.0119497
-0.0116632
-0.0116633
-0.0119276
-0.0119276
-0.0116414
-0.0119497
-0.0116633
-0.0116633
-0.0119277
-0.0119277
-0.0116633
-0.0119278
-0.0119277
-0.0116414
-0.0119497
-0.0116634
-0.0119278
-0.0119278
-0.0119497
-0.011994
-0.0123022
-0.0120158
-0.0120157
-0.0122802
-0.0122801
-0.011994
-0.0123022
-0.0120159
-0.0120159
-0.0122803
-0.0122803
-0.0120159
-0.0122803
-0.0122803
-0.0119939
-0.0123022
-0.0120159
-0.0122803
-0.0122803
-0.0123022
-0.0123465
-0.0126547
-0.0123683
-0.0123683
-0.0126328
-0.0126327
-0.0123465
-0.0126547
-0.0123684
-0.0123684
-0.0126328
-0.0126328
-0.0123684
-0.0126329
-0.0126328
-0.0123465
-0.0126547
-0.0123684
-0.0126328
-0.0126328
-0.0126547
-0.012699
-0.0130073
-0.012721
-0.012721
-0.0129854
-0.0129856
-0.0126989
-0.0130071
-0.012721
-0.0127209
-0.0129854
-0.0129854
-0.0127209
-0.0129854
-0.0129853
-0.012699
-0.0130073
-0.012721
-0.0129854
-0.0129854
-0.0130073
-0.0130515
-0.0133598
-0.0130736
-0.0130736
-0.013338
-0.0133378
-0.0130515
-0.0133597
-0.0130735
-0.0130735
-0.0133379
-0.0133379
-0.0130735
-0.0133379
-0.0133379
-0.0130516
-0.0133598
-0.0130735
-0.0133379
-0.0133379
-0.0133598
-0.0134041
-0.0137123
-0.0134261
-0.0134261
-0.0136905
-0.0136907
-0.013404
-0.0137123
-0.0134261
-0.013426
-0.0136905
-0.0136904
-0.013426
-0.0136905
-0.0136904
-0.0134041
-0.0137124
-0.0134261
-0.0136905
-0.0136905
-0.0137124
-0.0137566
-0.0140649
-0.0137786
-0.0137787
-0.014043
-0.0140429
-0.0137566
-0.0140649
-0.0137786
-0.0137786
-0.014043
-0.014043
-0.0137786
-0.0140431
-0.014043
-0.0137567
-0.0140649
-0.0137786
-0.014043
-0.014043
-0.0140649
-0.0141092
-0.0144174
-0.0141312
-0.014131
-0.0143956
-0.0143958
-0.0141093
-0.0144174
-0.0141311
-0.0141311
-0.0143956
-0.0143956
-0.0141311
-0.0143956
-0.0143956
-0.0141092
-0.0144175
-0.0141312
-0.0143956
-0.0143956
-0.0144175
-0.0144617
-0.01477
-0.0144838
-0.0144839
-0.0147483
-0.0147481
-0.0144617
-0.01477
-0.0144837
-0.0144837
-0.0147481
-0.0147481
-0.0144837
-0.0147482
-0.0147481
-0.0144618
-0.01477
-0.0144837
-0.0147482
-0.0147482
-0.0147701
-0.0148142
-0.0151225
-0.0148364
-0.0148363
-0.0151008
-0.0151007
-0.0148143
-0.0151225
-0.0148363
-0.0148363
-0.0151007
-0.0151007
-0.0148363
-0.0151007
-0.0151007
-0.0148143
-0.0151226
-0.0148363
-0.0151007
-0.0151007
-0.0151226
-0.0151668
-0.0154751
-0.015189
-0.015189
-0.0154534
-0.0154532
-0.0151669
-0.0154752
-0.0151888
-0.0151888
-0.0154532
-0.0154532
-0.0151888
-0.0154533
-0.0154533
-0.0151669
-0.0154752
-0.0151889
-0.0154533
-0.0154533
-0.0154752
-0.0155194
-0.0158277
-0.0155415
-0.0155414
-0.015806
-0.0158059
-0.0155194
-0.0158277
-0.0155414
-0.0155414
-0.0158058
-0.0158058
-0.0155414
-0.0158058
-0.0158058
-0.0155195
-0.0158277
-0.0155414
-0.0158058
-0.0158059
-0.0158277
-0.0158719
-0.0161802
-0.0158941
-0.0158941
-0.0161585
-0.0161583
-0.015872
-0.0161803
-0.0158939
-0.0158939
-0.0161584
-0.0161584
-0.015894
-0.0161584
-0.0161584
-0.015872
-0.0161803
-0.015894
-0.0161584
-0.0161584
-0.0161803
-0.0162245
-0.0165328
-0.0162466
-0.0162465
-0.0165111
-0.016511
-0.0162245
-0.0165328
-0.0162465
-0.0162465
-0.0165109
-0.0165109
-0.0162465
-0.0165109
-0.0165109
-0.0162246
-0.0165328
-0.0162466
-0.016511
-0.016511
-0.0165329
-0.016577
-0.0165992
-0.0165992
-0.0165771
-0.0165991
-0.0165991
-0.0165991
-0.0168635
-0.0165772
-0.0165991
-0.0168635
-0.0168854
-0.0110684
-0.0109367
-0.0109364
-0.0110686
-0.0109366
-0.0110685
-0.0110683
-0.0109365
-0.0109365
-0.0110683
-0.0109582
-0.0109579
-0.0109577
-0.0112226
-0.0112227
-0.0112227
-0.0112227
-0.0110677
-0.0109366
-0.0109584
-0.0110462
-0.011068
-0.0110462
-0.0109368
-0.0109364
-0.0110682
-0.0110674
-0.0109579
-0.0109367
-0.0110461
-0.011046
-0.0110678
-0.010937
-0.0109363
-0.0109363
-0.0110682
-0.0110682
-0.0110682
-0.0114207
-0.0112889
-0.011289
-0.0114208
-0.011289
-0.0114208
-0.0114208
-0.0112889
-0.0112889
-0.0114208
-0.0113107
-0.0113107
-0.0113107
-0.0115751
-0.0115751
-0.0115752
-0.0115752
-0.0114204
-0.0112892
-0.0113108
-0.0113989
-0.0112894
-0.0114206
-0.0113988
-0.0112889
-0.0114207
-0.01142
-0.0113108
-0.0112892
-0.0113989
-0.0112896
-0.0113988
-0.0114204
-0.0112888
-0.0112888
-0.0114208
-0.0114208
-0.0114208
-0.0117733
-0.0116414
-0.0116414
-0.0117733
-0.0116415
-0.0117733
-0.0117733
-0.0116415
-0.0116415
-0.0117734
-0.0116632
-0.0116633
-0.0116633
-0.0119277
-0.0119277
-0.0119277
-0.0119277
-0.0117729
-0.0116417
-0.0116633
-0.0117514
-0.0116419
-0.0117731
-0.0117514
-0.0116415
-0.0117733
-0.0117726
-0.0116633
-0.0116418
-0.0117515
-0.0116422
-0.0117514
-0.011773
-0.0116414
-0.0116414
-0.0117734
-0.0117734
-0.0117733
-0.0121258
-0.011994
-0.011994
-0.0121259
-0.0119941
-0.0121259
-0.0121259
-0.011994
-0.011994
-0.0121259
-0.0120158
-0.0120158
-0.0120158
-0.0122802
-0.0122802
-0.0122802
-0.0122802
-0.0121254
-0.0119943
-0.0120158
-0.012104
-0.0119944
-0.0121257
-0.0121039
-0.011994
-0.0121258
-0.0121251
-0.0120158
-0.0119943
-0.012104
-0.0119947
-0.012104
-0.0121255
-0.0119939
-0.0119939
-0.0121259
-0.0121259
-0.0121259
-0.0124783
-0.0123465
-0.0123465
-0.0124784
-0.0123466
-0.0124784
-0.0124784
-0.0123465
-0.0123466
-0.0124784
-0.0123683
-0.0123684
-0.0123684
-0.0126328
-0.0126328
-0.0126328
-0.0126328
-0.012478
-0.0123468
-0.0123684
-0.0124565
-0.012347
-0.0124782
-0.0124565
-0.0123465
-0.0124784
-0.0124777
-0.0123684
-0.0123469
-0.0124566
-0.0123472
-0.0124565
-0.012478
-0.0123465
-0.0123465
-0.0124785
-0.0124784
-0.0124784
-0.0128309
-0.012699
-0.0126991
-0.0128309
-0.012699
-0.0128308
-0.0128309
-0.012699
-0.0126991
-0.0128309
-0.012721
-0.0127209
-0.0127209
-0.0129854
-0.0129854
-0.0129853
-0.0129853
-0.0128305
-0.0126993
-0.0127209
-0.0128091
-0.0126995
-0.0128306
-0.012809
-0.0126991
-0.0128309
-0.0128302
-0.0127209
-0.0126994
-0.0128091
-0.0126998
-0.0128091
-0.0128306
-0.012699
-0.012699
-0.012831
-0.012831
-0.012831
-0.0131834
-0.0130516
-0.0130516
-0.0131835
-0.0130516
-0.0131834
-0.0131834
-0.0130516
-0.0130516
-0.0131835
-0.0130735
-0.0130735
-0.0130735
-0.0133379
-0.0133379
-0.0133379
-0.0133379
-0.013183
-0.0130518
-0.0130735
-0.0131616
-0.013052
-0.0131832
-0.0131616
-0.0130516
-0.0131835
-0.0131827
-0.0130735
-0.013052
-0.0131617
-0.0130523
-0.0131616
-0.0131831
-0.0130515
-0.0130516
-0.0131835
-0.0131835
-0.0131835
-0.013536
-0.0134041
-0.0134042
-0.013536
-0.0134041
-0.0135359
-0.013536
-0.0134041
-0.0134042
-0.013536
-0.0134261
-0.013426
-0.013426
-0.0136905
-0.0136905
-0.0136904
-0.0136904
-0.0135355
-0.0134043
-0.013426
-0.0135142
-0.0134045
-0.0135357
-0.0135141
-0.0134042
-0.013536
-0.0135353
-0.013426
-0.0134045
-0.0135142
-0.0134049
-0.0135142
-0.0135357
-0.0134041
-0.0134041
-0.0135361
-0.0135361
-0.0135361
-0.0138885
-0.0137567
-0.0137567
-0.0138886
-0.0137567
-0.0138886
-0.0138885
-0.0137566
-0.0137567
-0.0138886
-0.0137786
-0.0137786
-0.0137786
-0.014043
-0.014043
-0.014043
-0.014043
-0.0138881
-0.0137569
-0.0137786
-0.0138667
-0.0137571
-0.0138883
-0.0138667
-0.0137567
-0.0138885
-0.0138878
-0.0137786
-0.0137571
-0.0138668
-0.0137574
-0.0138667
-0.0138882
-0.0137566
-0.0137567
-0.0138887
-0.0138886
-0.0138886
-0.0142411
-0.0141092
-0.0141093
-0.0142411
-0.0141093
-0.0142411
-0.0142411
-0.0141092
-0.0141093
-0.0142411
-0.0141311
-0.0141311
-0.0141311
-0.0143956
-0.0143956
-0.0143955
-0.0143955
-0.0142407
-0.0141095
-0.0141311
-0.0142193
-0.0141097
-0.0142409
-0.0142192
-0.0141093
-0.0142411
-0.0142404
-0.0141311
-0.0141096
-0.0142193
-0.01411
-0.0142193
-0.0142408
-0.0141092
-0.0141092
-0.0142412
-0.0142412
-0.0142412
-0.0145937
-0.0144618
-0.0144619
-0.0145937
-0.0144618
-0.0145937
-0.0145936
-0.0144617
-0.0144618
-0.0145936
-0.0144837
-0.0144837
-0.0144837
-0.0147482
-0.0147481
-0.0147481
-0.0147481
-0.0145932
-0.014462
-0.0144837
-0.0145718
-0.0144622
-0.0145934
-0.0145718
-0.0144618
-0.0145937
-0.014593
-0.0144837
-0.0144622
-0.0145719
-0.0144625
-0.0145718
-0.0145933
-0.0144618
-0.0144618
-0.0145938
-0.0145937
-0.0145937
-0.0149462
-0.0148143
-0.0148144
-0.0149462
-0.0148144
-0.0149462
-0.0149462
-0.0148143
-0.0148144
-0.0149462
-0.0148363
-0.0148362
-0.0148362
-0.0151007
-0.0151007
-0.0151007
-0.0151007
-0.0149458
-0.0148146
-0.0148362
-0.0149244
-0.0148148
-0.014946
-0.0149244
-0.0148144
-0.0149462
-0.0149455
-0.0148362
-0.0148147
-0.0149244
-0.0148151
-0.0149244
-0.0149459
-0.0148143
-0.0148143
-0.0149463
-0.0149463
-0.0149463
-0.0152988
-0.0151669
-0.015167
-0.0152988
-0.015167
-0.0152988
-0.0152987
-0.0151668
-0.0151669
-0.0152987
-0.0151889
-0.0151888
-0.0151888
-0.0154533
-0.0154533
-0.0154532
-0.0154532
-0.0152984
-0.0151672
-0.0151888
-0.015277
-0.0151674
-0.0152986
-0.015277
-0.0151669
-0.0152988
-0.0152981
-0.0151888
-0.0151673
-0.015277
-0.0151677
-0.015277
-0.0152984
-0.0151669
-0.0151669
-0.0152989
-0.0152989
-0.0152989
-0.0156513
-0.0155194
-0.0155195
-0.0156513
-0.0155195
-0.0156514
-0.0156513
-0.0155194
-0.0155195
-0.0156513
-0.0155414
-0.0155414
-0.0155414
-0.0158058
-0.0158058
-0.0158058
-0.0158058
-0.0156509
-0.0155198
-0.0155414
-0.0156296
-0.0155199
-0.0156511
-0.0156295
-0.0155195
-0.0156513
-0.0156507
-0.0155414
-0.0155199
-0.0156296
-0.0155202
-0.0156295
-0.015651
-0.0155195
-0.0155195
-0.0156515
-0.0156514
-0.0156514
-0.0160039
-0.015872
-0.0158721
-0.0160039
-0.0158721
-0.0160039
-0.0160039
-0.015872
-0.015872
-0.0160039
-0.015894
-0.0158939
-0.0158939
-0.0161584
-0.0161584
-0.0161583
-0.0161584
-0.0160035
-0.0158723
-0.0158939
-0.0159821
-0.0158725
-0.0160037
-0.0159821
-0.0158721
-0.0160039
-0.0160032
-0.0158939
-0.0158724
-0.0159821
-0.0158728
-0.0159821
-0.0160036
-0.015872
-0.015872
-0.016004
-0.016004
-0.016004
-0.0163565
-0.0162246
-0.0162247
-0.0163565
-0.0162247
-0.0163565
-0.0163564
-0.0162245
-0.0162246
-0.0163564
-0.0162465
-0.0162465
-0.0162465
-0.016511
-0.0165109
-0.0165109
-0.0165109
-0.0163561
-0.0162249
-0.0162465
-0.0163347
-0.016225
-0.0163563
-0.0163346
-0.0162246
-0.0163565
-0.0163558
-0.0162465
-0.016225
-0.0163347
-0.0162253
-0.0163346
-0.0163561
-0.0162246
-0.0162246
-0.0163566
-0.0163566
-0.0163565
-0.016709
-0.0165771
-0.0165772
-0.016709
-0.0165772
-0.016709
-0.016709
-0.0165771
-0.0165772
-0.016709
-0.0165991
-0.016599
-0.016599
-0.0168634
-0.0167086
-0.0165774
-0.016599
-0.0166872
-0.0165776
-0.0167088
-0.0166872
-0.0165772
-0.016709
-0.0167083
-0.016599
-0.0165775
-0.0166872
-0.0165779
-0.0166872
-0.0167087
-0.0165771
-0.0165771
-0.0167091
-0.0167091
-0.0167091
-0.0110684
-0.0109366
-0.0110686
-0.0109364
-0.0110677
-0.0109366
-0.0109574
-0.0110461
-0.0110459
-0.0109371
-0.0110681
-0.0110677
-0.0109365
-0.0109576
-0.0110462
-0.011068
-0.0110459
-0.0109371
-0.0111129
-0.0112446
-0.0112445
-0.0111129
-0.0111129
-0.0112446
-0.0111129
-0.0112445
-0.0111135
-0.0111345
-0.0112442
-0.0112227
-0.0111345
-0.0112439
-0.0111132
-0.0111135
-0.0111344
-0.0112442
-0.0112228
-0.0111131
-0.0111344
-0.0112439
-0.0109365
-0.0109363
-0.0110684
-0.0110684
-0.0110683
-0.0109364
-0.0110682
-0.0112446
-0.0111128
-0.0111125
-0.0112446
-0.0112446
-0.0111127
-0.0111126
-0.0112445
-0.0111126
-0.0110678
-0.0109367
-0.0109586
-0.0110463
-0.0110463
-0.0109369
-0.0110681
-0.0110682
-0.0109364
-0.0110682
-0.0109365
-0.0110678
-0.0109586
-0.0109366
-0.0110462
-0.0110462
-0.011068
-0.0109369
-0.0111127
-0.0112445
-0.0112445
-0.0111127
-0.0111131
-0.0111345
-0.0112443
-0.0112226
-0.0111343
-0.0112441
-0.0111129
-0.0111127
-0.0112445
-0.0111126
-0.0112445
-0.011113
-0.0111345
-0.0112226
-0.0112442
-0.0111343
-0.0111129
-0.0112441
-0.0110682
-0.0109364
-0.0110682
-0.0109364
-0.0110677
-0.0109584
-0.0109366
-0.0110461
-0.0110461
-0.0110679
-0.0109368
-0.0110682
-0.0109363
-0.0110682
-0.0109364
-0.011113
-0.0111345
-0.0112443
-0.0112227
-0.0111129
-0.0111344
-0.0112441
-0.0111126
-0.0112446
-0.0111126
-0.0112445
-0.011113
-0.0111344
-0.0112227
-0.0112443
-0.0111343
-0.0111128
-0.0112441
-0.0111126
-0.0112445
-0.0111125
-0.0112445
-0.0109363
-0.0109364
-0.0110682
-0.0110683
-0.0110682
-0.0109364
-0.0110682
-0.0112444
-0.0111126
-0.0111125
-0.0112445
-0.0112445
-0.0111126
-0.0111125
-0.0112444
-0.0111126
-0.0110674
-0.0109579
-0.0109367
-0.0110461
-0.011046
-0.0110678
-0.010937
-0.0110681
-0.0109364
-0.0110682
-0.0109364
-0.0110681
-0.0109364
-0.0110682
-0.0109364
-0.0111133
-0.0111344
-0.0112227
-0.0112441
-0.0111344
-0.0111129
-0.0112437
-0.0111133
-0.0111345
-0.0112227
-0.0112441
-0.0111345
-0.0111129
-0.0112437
-0.0111126
-0.0112444
-0.0111126
-0.0112444
-0.0111126
-0.0112444
-0.0111125
-0.0112444
-0.0109364
-0.0110681
-0.0109364
-0.0110681
-0.0111125
-0.0112445
-0.0112445
-0.0111125
-0.0111125
-0.0112444
-0.0111126
-0.0112444
-0.0111126
-0.0112889
-0.0114208
-0.0112889
-0.0114208
-0.0112889
-0.0112889
-0.0114209
-0.0114208
-0.0114209
-0.011597
-0.0114652
-0.0115971
-0.0114652
-0.0114652
-0.0115971
-0.0115972
-0.0114652
-0.0114652
-0.0114207
-0.0112889
-0.011289
-0.0114208
-0.01142
-0.0112893
-0.0113107
-0.0113988
-0.0112896
-0.0114204
-0.0113988
-0.01142
-0.0112893
-0.0113108
-0.0113988
-0.0112896
-0.0114204
-0.0113988
-0.0114651
-0.0115971
-0.0114651
-0.0115969
-0.0114651
-0.0115971
-0.0114651
-0.0115969
-0.0114658
-0.0114869
-0.0115967
-0.0115751
-0.0114655
-0.0114869
-0.0115963
-0.0114658
-0.0114869
-0.0115967
-0.0115751
-0.0114656
-0.0114869
-0.0115963
-0.011289
-0.0112889
-0.0114209
-0.0114209
-0.0114209
-0.011289
-0.0114209
-0.011597
-0.0114652
-0.0114652
-0.0115971
-0.0115971
-0.0114652
-0.0114652
-0.0115971
-0.0114653
-0.0114203
-0.0112892
-0.0113108
-0.0113989
-0.0112893
-0.0114206
-0.0113988
-0.0114208
-0.0112888
-0.0112889
-0.0114208
-0.0114203
-0.0113108
-0.0112891
-0.0113989
-0.0112893
-0.0113989
-0.0114205
-0.0114652
-0.0115971
-0.0114652
-0.0115971
-0.0114656
-0.011487
-0.0115969
-0.0115751
-0.0114655
-0.011487
-0.0115966
-0.0114652
-0.0115971
-0.0114652
-0.0115971
-0.0114656
-0.011487
-0.0115752
-0.0115968
-0.011487
-0.0114654
-0.0115966
-0.0114208
-0.0112889
-0.011289
-0.0114209
-0.0114204
-0.0113108
-0.0112892
-0.0113989
-0.0112894
-0.0113989
-0.0114205
-0.0114208
-0.0112889
-0.011289
-0.0114208
-0.0114656
-0.011487
-0.0115969
-0.0115751
-0.0114655
-0.011487
-0.0115966
-0.0114653
-0.0115971
-0.0114652
-0.0115971
-0.0114656
-0.011487
-0.0115752
-0.0115968
-0.011487
-0.0114654
-0.0115966
-0.0114653
-0.0115971
-0.0114652
-0.0115971
-0.0112888
-0.0112888
-0.0114208
-0.0114208
-0.0114208
-0.0112888
-0.0114207
-0.0115971
-0.0114652
-0.0114651
-0.0115971
-0.0115971
-0.0114651
-0.0114651
-0.011597
-0.0114652
-0.01142
-0.0113107
-0.0112892
-0.0113989
-0.0112896
-0.0113988
-0.0114204
-0.0114207
-0.0112888
-0.0112889
-0.0114208
-0.0114207
-0.0112888
-0.0112889
-0.0114208
-0.0114659
-0.011487
-0.0115752
-0.0115967
-0.011487
-0.0114655
-0.0115963
-0.0114659
-0.0114871
-0.0115752
-0.0115967
-0.011487
-0.0114655
-0.0115963
-0.0114652
-0.0115971
-0.0114651
-0.011597
-0.0114652
-0.0115971
-0.0114652
-0.011597
-0.0112889
-0.0114208
-0.0112888
-0.0114207
-0.0114651
-0.0115971
-0.0115971
-0.0114651
-0.0114651
-0.011597
-0.0114652
-0.011597
-0.0114652
-0.0116415
-0.0117733
-0.0116415
-0.0117734
-0.0116414
-0.0116415
-0.0117734
-0.0117734
-0.0117734
-0.0119496
-0.0118177
-0.0119496
-0.0118178
-0.0118177
-0.0119496
-0.0119497
-0.0118177
-0.0118177
-0.0117733
-0.0116414
-0.0116414
-0.0117733
-0.0117726
-0.0116418
-0.0116632
-0.0117514
-0.0116421
-0.011773
-0.0117514
-0.0117726
-0.0116418
-0.0116632
-0.0117515
-0.0116421
-0.0117729
-0.0117514
-0.0118177
-0.0119496
-0.0118177
-0.0119495
-0.0118177
-0.0119496
-0.0118177
-0.0119495
-0.0118184
-0.0118395
-0.0119492
-0.0119277
-0.0118181
-0.0118395
-0.0119488
-0.0118184
-0.0118395
-0.0119492
-0.0119277
-0.0118181
-0.0118395
-0.0119488
-0.0116415
-0.0116414
-0.0117735
-0.0117733
-0.0117734
-0.0116415
-0.0117733
-0.0119496
-0.0118177
-0.0118176
-0.0119497
-0.0119497
-0.0118177
-0.0118177
-0.0119496
-0.0118178
-0.0117729
-0.0116418
-0.0116633
-0.0117515
-0.0116419
-0.0117731
-0.0117514
-0.0117733
-0.0116415
-0.0116415
-0.0117734
-0.0117729
-0.0116633
-0.0116417
-0.0117515
-0.0116419
-0.0117514
-0.0117731
-0.0118178
-0.0119496
-0.0118178
-0.0119496
-0.0118182
-0.0118396
-0.0119494
-0.0119277
-0.011818
-0.0118396
-0.0119492
-0.0118178
-0.0119496
-0.0118177
-0.0119496
-0.0118182
-0.0118396
-0.0119277
-0.0119493
-0.0118396
-0.011818
-0.0119492
-0.0117733
-0.0116415
-0.0116415
-0.0117734
-0.0117729
-0.0116633
-0.0116417
-0.0117515
-0.0116419
-0.0117514
-0.0117731
-0.0117733
-0.0116415
-0.0116415
-0.0117733
-0.0118182
-0.0118396
-0.0119494
-0.0119277
-0.011818
-0.0118396
-0.0119492
-0.0118178
-0.0119496
-0.0118177
-0.0119496
-0.0118182
-0.0118396
-0.0119277
-0.0119493
-0.0118396
-0.011818
-0.0119492
-0.0118178
-0.0119496
-0.0118177
-0.0119496
-0.0116414
-0.0116414
-0.0117734
-0.0117734
-0.0117734
-0.0116415
-0.0117733
-0.0119496
-0.0118177
-0.0118177
-0.0119496
-0.0119496
-0.0118177
-0.0118177
-0.0119496
-0.0118177
-0.0117726
-0.0116633
-0.0116418
-0.0117515
-0.0116422
-0.0117514
-0.011773
-0.0117733
-0.0116414
-0.0116415
-0.0117733
-0.0117733
-0.0116414
-0.0116415
-0.0117733
-0.0118184
-0.0118396
-0.0119277
-0.0119492
-0.0118396
-0.0118181
-0.0119489
-0.0118184
-0.0118396
-0.0119277
-0.0119492
-0.0118396
-0.0118181
-0.0119489
-0.0118178
-0.0119496
-0.0118177
-0.0119495
-0.0118178
-0.0119496
-0.0118177
-0.0119495
-0.0116415
-0.0117733
-0.0116415
-0.0117733
-0.0118177
-0.0119496
-0.0119496
-0.0118177
-0.0118177
-0.0119496
-0.0118177
-0.0119496
-0.0118177
-0.011994
-0.0121259
-0.011994
-0.0121259
-0.011994
-0.011994
-0.0121259
-0.0121259
-0.0121259
-0.0123021
-0.0121703
-0.0123021
-0.0121703
-0.0121702
-0.0123022
-0.0123022
-0.0121702
-0.0121702
-0.0121258
-0.011994
-0.011994
-0.0121259
-0.0121251
-0.0119943
-0.0120158
-0.0121039
-0.0119946
-0.0121255
-0.0121039
-0.0121251
-0.0119944
-0.0120158
-0.0121039
-0.0119946
-0.0121255
-0.0121039
-0.0121703
-0.0123021
-0.0121702
-0.0123021
-0.0121703
-0.0123022
-0.0121703
-0.0123021
-0.0121709
-0.012192
-0.0123018
-0.0122802
-0.0121706
-0.0121921
-0.0123014
-0.0121709
-0.012192
-0.0123018
-0.0122801
-0.0121706
-0.012192
-0.0123014
-0.011994
-0.011994
-0.012126
-0.0121259
-0.012126
-0.011994
-0.0121259
-0.0123021
-0.0121703
-0.0121703
-0.0123022
-0.0123022
-0.0121703
-0.0121703
-0.0123022
-0.0121703
-0.0121254
-0.0119943
-0.0120158
-0.012104
-0.0119944
-0.0121256
-0.0121039
-0.0121258
-0.011994
-0.011994
-0.0121259
-0.0121254
-0.0120158
-0.0119942
-0.012104
-0.0119944
-0.012104
-0.0121256
-0.0121703
-0.0123022
-0.0121703
-0.0123021
-0.0121707
-0.0121921
-0.0123019
-0.0122802
-0.0121705
-0.0121921
-0.0123017
-0.0121703
-0.0123021
-0.0121702
-0.0123021
-0.0121707
-0.0121921
-0.0122802
-0.0123019
-0.0121921
-0.0121705
-0.0123017
-0.0121259
-0.011994
-0.011994
-0.0121259
-0.0121254
-0.0120158
-0.0119942
-0.012104
-0.0119944
-0.012104
-0.0121256
-0.0121259
-0.011994
-0.011994
-0.0121259
-0.0121707
-0.0121921
-0.0123019
-0.0122802
-0.0121706
-0.0121921
-0.0123017
-0.0121703
-0.0123022
-0.0121703
-0.0123021
-0.0121707
-0.0121921
-0.0122802
-0.0123019
-0.0121921
-0.0121705
-0.0123017
-0.0121703
-0.0123021
-0.0121703
-0.0123021
-0.0119939
-0.0119939
-0.0121259
-0.0121259
-0.0121259
-0.011994
-0.0121258
-0.0123021
-0.0121703
-0.0121702
-0.0123022
-0.0123021
-0.0121702
-0.0121702
-0.0123021
-0.0121703
-0.0121251
-0.0120158
-0.0119943
-0.012104
-0.0119947
-0.012104
-0.0121255
-0.0121258
-0.011994
-0.011994
-0.0121259
-0.0121258
-0.011994
-0.011994
-0.0121259
-0.012171
-0.0121922
-0.0122802
-0.0123017
-0.0121921
-0.0121706
-0.0123014
-0.012171
-0.0121922
-0.0122802
-0.0123017
-0.0121921
-0.0121706
-0.0123014
-0.0121703
-0.0123021
-0.0121702
-0.0123021
-0.0121703
-0.0123021
-0.0121702
-0.0123021
-0.011994
-0.0121259
-0.011994
-0.0121258
-0.0121702
-0.0123022
-0.0123021
-0.0121702
-0.0121702
-0.0123021
-0.0121703
-0.0123021
-0.0121703
-0.0123465
-0.0124784
-0.0123466
-0.0124784
-0.0123465
-0.0123465
-0.0124785
-0.0124784
-0.0124785
-0.0126546
-0.0125228
-0.0126546
-0.0125228
-0.0125228
-0.0126547
-0.0126547
-0.0125228
-0.0125227
-0.0124783
-0.0123465
-0.0123465
-0.0124784
-0.0124776
-0.0123469
-0.0123683
-0.0124565
-0.0123472
-0.012478
-0.0124565
-0.0124776
-0.0123469
-0.0123683
-0.0124566
-0.0123472
-0.012478
-0.0124565
-0.0125228
-0.0126547
-0.0125228
-0.0126546
-0.0125228
-0.0126547
-0.0125228
-0.0126546
-0.0125235
-0.0125446
-0.0126543
-0.0126328
-0.0125231
-0.0125446
-0.0126539
-0.0125235
-0.0125446
-0.0126543
-0.0126328
-0.0125231
-0.0125446
-0.0126539
-0.0123466
-0.0123465
-0.0124786
-0.0124784
-0.0124785
-0.0123466
-0.0124784
-0.0126546
-0.0125228
-0.0125226
-0.0126547
-0.0126546
-0.0125227
-0.0125228
-0.0126546
-0.0125228
-0.012478
-0.0123468
-0.0123684
-0.0124565
-0.012347
-0.0124782
-0.0124565
-0.0124784
-0.0123465
-0.0123466
-0.0124784
-0.012478
-0.0123684
-0.0123468
-0.0124565
-0.0123469
-0.0124565
-0.0124781
-0.0125228
-0.0126547
-0.0125228
-0.0126546
-0.0125232
-0.0125447
-0.0126544
-0.0126328
-0.0125231
-0.0125446
-0.0126542
-0.0125228
-0.0126547
-0.0125228
-0.0126546
-0.0125232
-0.0125447
-0.0126328
-0.0126544
-0.0125447
-0.012523
-0.0126542
-0.0124784
-0.0123465
-0.0123466
-0.0124784
-0.012478
-0.0123684
-0.0123468
-0.0124565
-0.012347
-0.0124565
-0.0124781
-0.0124784
-0.0123465
-0.0123466
-0.0124784
-0.0125232
-0.0125447
-0.0126544
-0.0126328
-0.0125231
-0.0125446
-0.0126542
-0.0125228
-0.0126546
-0.0125228
-0.0126546
-0.0125232
-0.0125447
-0.0126328
-0.0126544
-0.0125447
-0.012523
-0.0126542
-0.0125228
-0.0126547
-0.0125228
-0.0126546
-0.0123465
-0.0123465
-0.0124785
-0.0124784
-0.0124784
-0.0123465
-0.0124784
-0.0126546
-0.0125228
-0.0125228
-0.0126547
-0.0126547
-0.0125227
-0.0125228
-0.0126546
-0.0125228
-0.0124777
-0.0123684
-0.0123469
-0.0124566
-0.0123472
-0.0124565
-0.012478
-0.0124784
-0.0123465
-0.0123466
-0.0124784
-0.0124784
-0.0123465
-0.0123466
-0.0124784
-0.0125235
-0.0125447
-0.0126328
-0.0126543
-0.0125446
-0.0125232
-0.0126539
-0.0125235
-0.0125447
-0.0126328
-0.0126543
-0.0125446
-0.0125232
-0.0126539
-0.0125228
-0.0126547
-0.0125228
-0.0126546
-0.0125228
-0.0126547
-0.0125228
-0.0126546
-0.0123465
-0.0124784
-0.0123465
-0.0124784
-0.0125227
-0.0126547
-0.0126547
-0.0125227
-0.0125228
-0.0126546
-0.0125228
-0.0126546
-0.0125228
-0.0126991
-0.0128309
-0.0126991
-0.0128309
-0.012699
-0.012699
-0.012831
-0.0128309
-0.0128309
-0.0130072
-0.0128753
-0.0130072
-0.0128753
-0.0128753
-0.0130072
-0.0130072
-0.0128753
-0.0128752
-0.0128309
-0.012699
-0.0126991
-0.0128309
-0.0128302
-0.0126994
-0.012721
-0.0128091
-0.0126998
-0.0128305
-0.0128091
-0.0128302
-0.0126994
-0.012721
-0.0128092
-0.0126998
-0.0128305
-0.0128091
-0.0128754
-0.0130072
-0.0128753
-0.0130072
-0.0128754
-0.0130072
-0.0128753
-0.0130072
-0.012876
-0.0128973
-0.0130068
-0.0129854
-0.0128757
-0.0128973
-0.0130065
-0.012876
-0.0128974
-0.0130068
-0.0129854
-0.0128756
-0.0128973
-0.0130065
-0.012699
-0.0126989
-0.0128309
-0.0128309
-0.0128309
-0.012699
-0.0128308
-0.0130071
-0.0128753
-0.0128752
-0.0130072
-0.0130072
-0.0128752
-0.0128752
-0.0130071
-0.0128753
-0.0128305
-0.0126993
-0.0127209
-0.0128091
-0.0126995
-0.0128307
-0.0128091
-0.0128309
-0.012699
-0.0126991
-0.0128309
-0.0128305
-0.0127209
-0.0126993
-0.0128091
-0.0126995
-0.0128091
-0.0128307
-0.0128753
-0.0130072
-0.0128753
-0.0130072
-0.0128757
-0.0128972
-0.0130069
-0.0129853
-0.0128756
-0.0128972
-0.0130067
-0.0128754
-0.0130072
-0.0128753
-0.0130072
-0.0128757
-0.0128972
-0.0129853
-0.013007
-0.0128972
-0.0128756
-0.0130068
-0.0128309
-0.012699
-0.0126991
-0.0128309
-0.0128305
-0.0127209
-0.0126993
-0.0128091
-0.0126995
-0.0128091
-0.0128307
-0.0128309
-0.012699
-0.0126991
-0.0128309
-0.0128757
-0.0128972
-0.0130069
-0.0129853
-0.0128755
-0.0128972
-0.0130067
-0.0128753
-0.0130072
-0.0128753
-0.0130071
-0.0128757
-0.0128972
-0.0129853
-0.0130069
-0.0128972
-0.0128756
-0.0130067
-0.0128753
-0.0130072
-0.0128753
-0.0130072
-0.012699
-0.012699
-0.012831
-0.012831
-0.012831
-0.0126991
-0.0128309
-0.0130072
-0.0128753
-0.0128753
-0.0130072
-0.0130072
-0.0128753
-0.0128753
-0.0130072
-0.0128753
-0.0128302
-0.0127209
-0.0126994
-0.0128091
-0.0126998
-0.0128091
-0.0128306
-0.0128309
-0.012699
-0.0126991
-0.0128309
-0.0128309
-0.012699
-0.0126991
-0.0128309
-0.012876
-0.0128973
-0.0129853
-0.0130068
-0.0128972
-0.0128757
-0.0130065
-0.012876
-0.0128973
-0.0129853
-0.0130068
-0.0128972
-0.0128757
-0.0130065
-0.0128754
-0.0130072
-0.0128753
-0.0130072
-0.0128754
-0.0130072
-0.0128753
-0.0130072
-0.0126991
-0.0128309
-0.0126991
-0.0128309
-0.0128753
-0.0130072
-0.0130072
-0.0128753
-0.0128753
-0.0130072
-0.0128753
-0.0130072
-0.0128753
-0.0130516
-0.0131834
-0.0130516
-0.0131834
-0.0130515
-0.0130515
-0.0131835
-0.0131835
-0.0131835
-0.0133597
-0.0132279
-0.0133597
-0.0132278
-0.0132278
-0.0133597
-0.0133597
-0.0132278
-0.0132278
-0.0131834
-0.0130516
-0.0130516
-0.0131835
-0.0131828
-0.013052
-0.0130735
-0.0131617
-0.0130523
-0.0131831
-0.0131617
-0.0131828
-0.0130519
-0.0130735
-0.0131617
-0.0130523
-0.0131831
-0.0131616
-0.0132279
-0.0133597
-0.0132278
-0.0133597
-0.0132279
-0.0133598
-0.0132279