/*--------------------------------*- C++ -*----------------------------------*\
| =========                 |                                                 |
| \\      /  F ield         | OpenFOAM: The Open Source CFD Toolbox           |
|  \\    /   O peration     | Version:  2206                                  |
|   \\  /    A nd           | Website:  www.openfoam.com                      |
|    \\/     M anipulation  |                                                 |
\*---------------------------------------------------------------------------*/
FoamFile
{
    version     2.0;
    format      ascii;
    arch        "LSB;label=32;scalar=64";
    class       volVectorField;
    location    "0.1";
    object      U;
}
// * * * * * * * * * * * * * * * * * * * * * * * * * * * * * * * * * * * * * //

dimensions      [0 1 -1 0 0 0 0];

internalField   nonuniform List<vector> 
66928
(
(-0.000268219 -0.000275293 0.115562)
(1.30111e-05 1.19467e-06 0.115627)
(7.94411e-07 -2.7871e-06 0.115628)
(3.42886e-06 2.6958e-06 0.115625)
(-0.000271967 0.000272238 0.11556)
(5.57791e-06 -4.36695e-06 0.115629)
(0.000268684 0.000268687 0.115563)
(-0.000271738 -0.000277385 0.11556)
(-3.28082e-07 -6.23766e-06 0.115655)
(4.10302e-06 2.36203e-06 0.115653)
(-5.697e-06 -6.21103e-06 0.0934452)
(-1.35192e-05 -9.67322e-06 0.0933291)
(-2.41638e-05 -1.93826e-05 0.109911)
(-2.57526e-05 -2.45042e-05 0.109781)
(-2.34593e-06 -2.7633e-05 0.102759)
(-2.4236e-05 -6.06792e-05 0.1133)
(-3.60756e-05 -7.94784e-06 0.102593)
(-5.38928e-05 -4.77464e-07 0.112766)
(-6.95057e-05 -2.36717e-05 0.113179)
(-3.21944e-06 -3.27191e-06 0.115655)
(-8.53236e-05 -3.37443e-07 0.115054)
(-3.51359e-05 7.84033e-06 0.102591)
(-5.37849e-05 5.35966e-07 0.112766)
(-1.59464e-07 5.08359e-06 0.115656)
(-6.81107e-05 2.38277e-05 0.113177)
(-8.50973e-05 7.18865e-07 0.115054)
(-1.30635e-05 9.39345e-06 0.0933272)
(-2.45258e-05 2.44349e-05 0.109781)
(-2.49354e-05 2.51777e-05 0.109923)
(-8.65354e-06 1.30181e-05 0.0934819)
(-2.351e-05 6.76245e-05 0.113292)
(-6.41248e-06 3.60418e-05 0.102815)
(1.17859e-05 1.69068e-05 0.0934102)
(-5.91897e-06 -1.5194e-05 0.0934566)
(1.2949e-05 8.91947e-06 0.0933087)
(-1.31817e-05 -1.0548e-05 0.093332)
(2.59284e-05 2.90816e-05 0.109924)
(2.58006e-05 2.56016e-05 0.109814)
(-0.000273024 -0.000276583 0.11556)
(-2.51912e-05 -2.74502e-05 0.109916)
(-2.53951e-05 -2.63133e-05 0.109777)
(-6.59305e-06 -1.61603e-05 0.0934707)
(1.15001e-05 9.86305e-06 0.0934234)
(-1.28731e-05 -1.00741e-05 0.093331)
(1.33807e-05 8.61595e-06 0.093311)
(0.000264909 0.000267397 0.115562)
(-2.37189e-05 -2.89962e-05 0.109917)
(-2.52386e-05 -2.60185e-05 0.109775)
(2.72036e-05 2.13542e-05 0.109928)
(2.61281e-05 2.45055e-05 0.109811)
(1.10614e-05 2.11453e-05 0.0934068)
(3.071e-05 6.64276e-05 0.112422)
(-3.70831e-05 -7.71423e-05 0.114438)
(3.03605e-05 3.13393e-05 0.109921)
(-9.6558e-06 -1.75773e-05 0.102203)
(1.29522e-05 2.30691e-05 0.102196)
(4.52955e-05 8.30892e-05 0.114454)
(-2.94188e-05 -6.32032e-05 0.11239)
(6.41761e-05 2.94276e-05 0.112381)
(-8.0142e-05 -4.14371e-05 0.114397)
(2.54363e-05 2.63921e-05 0.109817)
(-2.14922e-05 -1.14454e-05 0.102044)
(1.91201e-05 1.14855e-05 0.102049)
(8.18543e-05 4.26944e-05 0.114423)
(-6.5305e-05 -2.92836e-05 0.112341)
(2.11178e-05 2.31587e-05 0.106153)
(-8.57157e-06 -9.53505e-06 0.0927032)
(-1.02951e-05 -8.6557e-06 0.0926524)
(9.37425e-06 1.19924e-05 0.0926803)
(9.72996e-06 1.01833e-05 0.092638)
(-2.1937e-05 -2.13737e-05 0.106113)
(8.60514e-06 4.85911e-05 0.102714)
(-6.45926e-06 -3.81161e-05 0.109336)
(3.7106e-06 5.66081e-05 0.109303)
(3.00925e-07 -6.74531e-06 0.0914724)
(-4.42863e-05 -5.8652e-06 0.109115)
(-1.65864e-05 1.33842e-06 0.0912735)
(-5.43302e-05 -2.25083e-06 0.112088)
(-1.9798e-05 8.26209e-07 0.101215)
(-1.90138e-05 3.26079e-06 0.0990043)
(-4.3747e-05 6.27046e-06 0.109114)
(-1.64639e-05 -1.21055e-06 0.0912733)
(-1.97859e-05 -1.01296e-06 0.101215)
(-5.47077e-05 2.50966e-06 0.112088)
(-1.92138e-05 -3.23627e-06 0.0990031)
(6.52921e-05 -3.03286e-05 0.112381)
(-7.67523e-05 4.17734e-05 0.114397)
(2.68436e-05 -2.62469e-05 0.109818)
(-2.00081e-05 1.10582e-05 0.102039)
(8.31624e-05 -4.3745e-05 0.114424)
(2.07095e-05 -1.15653e-05 0.102044)
(-6.35918e-05 2.89043e-05 0.112339)
(2.96402e-05 -6.66616e-05 0.112417)
(-3.96064e-05 8.40668e-05 0.114431)
(2.77257e-05 -2.50305e-05 0.109936)
(-1.13901e-05 2.08125e-05 0.102217)
(1.13569e-05 -2.01184e-05 0.10221)
(4.33938e-05 -7.96283e-05 0.114445)
(-3.07181e-05 6.48043e-05 0.112386)
(2.15467e-05 -2.29928e-05 0.106162)
(-1.02293e-05 8.5496e-06 0.0926532)
(-8.90498e-06 1.04721e-05 0.0927158)
(1.02011e-05 -9.55124e-06 0.0926392)
(8.84474e-06 -1.04636e-05 0.092695)
(-2.16227e-05 2.11419e-05 0.10612)
(9.24765e-06 -1.37938e-05 0.0934439)
(5.03242e-06 -3.78844e-05 0.102778)
(-4.59301e-06 4.46358e-05 0.10939)
(4.32885e-06 -4.46158e-05 0.109379)
(2.22477e-06 1.60833e-05 0.0915614)
(-5.76418e-06 -1.16741e-05 0.0934497)
(1.17094e-05 1.24519e-05 0.0934159)
(-1.35121e-05 -1.04669e-05 0.0933307)
(1.29781e-05 8.522e-06 0.0933106)
(2.18605e-05 1.88833e-05 0.106154)
(-7.87193e-06 -1.35583e-05 0.092711)
(-9.45172e-06 -1.15044e-05 0.0926529)
(9.83419e-06 7.84417e-06 0.092688)
(1.07853e-05 7.38031e-06 0.0926374)
(-2.11287e-05 -2.53927e-05 0.106114)
(-2.97722e-05 -6.54434e-05 0.112387)
(4.61441e-05 8.34027e-05 0.114452)
(1.21492e-05 2.21897e-05 0.102197)
(-2.63124e-05 -2.32296e-05 0.109914)
(3.12583e-05 6.48799e-05 0.11242)
(-1.04436e-05 -1.95873e-05 0.102205)
(-3.84296e-05 -7.85771e-05 0.114435)
(-6.54883e-05 -3.101e-05 0.11234)
(8.24296e-05 4.17719e-05 0.114421)
(1.93814e-05 1.0567e-05 0.10205)
(-2.55105e-05 -2.57658e-05 0.109779)
(6.43251e-05 2.8374e-05 0.11238)
(-2.1056e-05 -1.27693e-05 0.102046)
(-7.97482e-05 -4.26279e-05 0.114395)
(-2.14982e-05 -2.36774e-05 0.106113)
(9.51355e-06 1.01332e-05 0.092684)
(1.04639e-05 8.9665e-06 0.0926371)
(2.15873e-05 2.10925e-05 0.106153)
(-8.56142e-06 -1.18076e-05 0.092707)
(-9.76575e-06 -1.04115e-05 0.0926524)
(3.09507e-05 6.24887e-05 0.112417)
(-9.75159e-06 -2.23238e-05 0.102208)
(2.61325e-05 2.45092e-05 0.109927)
(-3.90218e-05 -8.13912e-05 0.114433)
(1.22281e-05 1.93753e-05 0.1022)
(-2.97838e-05 -6.77649e-05 0.112384)
(4.50382e-05 8.0776e-05 0.114449)
(6.40928e-05 2.69253e-05 0.11238)
(-2.05722e-05 -1.33128e-05 0.102046)
(2.58476e-05 2.46939e-05 0.109813)
(-8.0023e-05 -4.32256e-05 0.114394)
(1.98165e-05 9.55798e-06 0.102051)
(-6.5735e-05 -3.20758e-05 0.112339)
(8.24426e-05 4.09483e-05 0.11442)
(1.10278e-05 9.38208e-06 0.093431)
(-6.23638e-06 -1.67088e-05 0.0934645)
(1.33406e-05 8.7892e-06 0.0933109)
(-1.30226e-05 -1.03878e-05 0.093332)
(-2.09077e-05 -2.59423e-05 0.106113)
(1.04415e-05 6.82265e-06 0.0926915)
(1.10071e-05 6.73399e-06 0.0926377)
(2.2232e-05 1.7753e-05 0.106154)
(-7.63162e-06 -1.38663e-05 0.0927137)
(-9.43842e-06 -1.17588e-05 0.0926528)
(3.15829e-05 6.02795e-05 0.112412)
(-3.88871e-05 -8.25259e-05 0.114429)
(2.7791e-05 2.04816e-05 0.109928)
(-8.91935e-06 -2.30322e-05 0.102211)
(1.32892e-05 1.69678e-05 0.102204)
(4.4742e-05 7.81921e-05 0.114445)
(-2.86379e-05 -6.81707e-05 0.11238)
(6.41878e-05 2.61031e-05 0.112378)
(-7.97111e-05 -4.33758e-05 0.114393)
(2.60305e-05 2.45439e-05 0.109809)
(-1.98127e-05 -1.25705e-05 0.102044)
(2.0554e-05 9.71494e-06 0.10205)
(8.23878e-05 4.04889e-05 0.114418)
(-6.48919e-05 -3.20069e-05 0.112338)
(-2.94338e-05 -6.88685e-05 0.112382)
(1.29666e-05 1.73032e-05 0.102202)
(4.47967e-05 7.8731e-05 0.114447)
(-2.43484e-05 -2.93015e-05 0.109916)
(3.12197e-05 6.06692e-05 0.112414)
(-9.25172e-06 -2.35492e-05 0.10221)
(-3.91566e-05 -8.26606e-05 0.114431)
(-6.57227e-05 -3.2484e-05 0.112338)
(2.0269e-05 9.39044e-06 0.102051)
(8.22419e-05 4.06079e-05 0.114419)
(-2.51384e-05 -2.63342e-05 0.109776)
(6.39433e-05 2.62116e-05 0.112379)
(-2.02182e-05 -1.3243e-05 0.102046)
(-8.01353e-05 -4.34643e-05 0.114393)
(2.2534e-05 1.79771e-05 0.106154)
(-7.60525e-06 -1.29637e-05 0.0927151)
(-9.42503e-06 -1.12356e-05 0.0926524)
(1.0417e-05 7.11829e-06 0.0926936)
(1.08396e-05 6.82844e-06 0.0926375)
(-2.04084e-05 -2.50463e-05 0.106112)
(7.54105e-05 7.52811e-05 0.114666)
(0.000269944 0.000269426 0.115564)
(-0.000257156 -6.73333e-05 0.115301)
(-6.51468e-05 -0.000259734 0.11529)
(0.000263287 7.08614e-05 0.115306)
(6.76366e-05 0.000256091 0.115298)
(-7.77812e-05 -7.71089e-05 0.114652)
(7.16473e-05 -7.73428e-05 0.114666)
(0.000267078 -0.000270384 0.115564)
(-6.59275e-05 0.000261533 0.11529)
(-0.000256057 6.54223e-05 0.115297)
(6.95293e-05 -0.00025967 0.115302)
(0.000259526 -7.08616e-05 0.115297)
(-8.09558e-05 7.68686e-05 0.114649)
(-7.78916e-05 -7.82865e-05 0.114651)
(0.000262992 7.01358e-05 0.115306)
(6.85552e-05 0.00025693 0.115298)
(-0.000271103 -0.000275479 0.11556)
(7.6605e-05 7.47474e-05 0.114666)
(-0.000259547 -6.84602e-05 0.115299)
(-6.5223e-05 -0.000259469 0.115289)
(7.5979e-05 7.21451e-05 0.114663)
(0.00026535 0.000266733 0.115562)
(-0.000259445 -7.05274e-05 0.115297)
(-6.56207e-05 -0.000260915 0.115287)
(0.0002611 6.72874e-05 0.115303)
(6.7519e-05 0.00025609 0.115296)
(-7.80232e-05 -8.01907e-05 0.114648)
(5.56926e-06 2.15281e-06 0.115662)
(1.03002e-05 3.68628e-06 0.115661)
(6.59894e-06 0.000315548 0.115411)
(-2.34457e-06 -0.000281072 0.115112)
(2.72494e-05 7.52571e-05 0.113307)
(-1.22419e-05 -6.86168e-05 0.114504)
(2.18334e-05 0.000292748 0.115115)
(5.48183e-06 8.83494e-05 0.114507)
(1.10208e-05 -0.000305647 0.115407)
(0.000317378 3.49216e-06 0.115384)
(-0.000289203 -1.9211e-05 0.115073)
(7.04475e-05 2.2351e-05 0.113208)
(-8.35982e-05 -8.37165e-06 0.114408)
(0.000294777 1.81884e-05 0.115086)
(8.21804e-05 6.32492e-06 0.114433)
(-0.000322349 -7.0091e-06 0.115376)
(0.000318513 1.65412e-06 0.115492)
(8.49682e-05 1.79332e-07 0.115076)
(-8.6458e-05 -2.60461e-06 0.114902)
(-0.00032159 -3.97328e-07 0.115524)
(8.55548e-05 1.2523e-06 0.114925)
(0.000315078 2.96124e-07 0.115531)
(-0.000320713 -4.48253e-06 0.115485)
(0.000317664 -2.90522e-06 0.115384)
(-0.000287145 2.07949e-05 0.115072)
(7.2211e-05 -2.24921e-05 0.113206)
(-8.35237e-05 9.34316e-06 0.114407)
(8.44161e-05 -5.27537e-06 0.114433)
(0.000294473 -1.85619e-05 0.115086)
(-0.000319134 7.50547e-06 0.115375)
(0.000315707 1.45512e-07 0.115493)
(8.521e-05 5.95476e-07 0.115076)
(-0.000319892 1.11252e-06 0.115524)
(-8.71755e-05 3.15376e-06 0.114902)
(0.000315025 1.79382e-06 0.115532)
(8.56787e-05 -1.22151e-07 0.114926)
(-0.000321805 4.57293e-06 0.115485)
(1.1825e-06 -0.000313171 0.115405)
(-9.1528e-06 0.000286334 0.115107)
(2.45569e-05 -6.91841e-05 0.113296)
(-7.84154e-06 8.0226e-05 0.114496)
(1.66556e-05 -0.000293177 0.115109)
(8.68948e-06 -7.92399e-05 0.1145)
(6.14636e-06 0.000316959 0.115405)
(7.60551e-05 7.35511e-05 0.114665)
(0.000266143 0.000268611 0.115562)
(-0.000260928 -6.99779e-05 0.115299)
(-6.62047e-05 -0.000260246 0.115287)
(-7.84885e-05 -7.95101e-05 0.114649)
(0.000261034 6.86301e-05 0.115304)
(6.77025e-05 0.00025717 0.115296)
(-7.8498e-05 -8.02554e-05 0.114649)
(-0.000272774 -0.000277498 0.11556)
(0.000260449 6.75194e-05 0.115304)
(6.71487e-05 0.000256539 0.115296)
(7.57614e-05 7.25174e-05 0.114664)
(-0.000260411 -7.0587e-05 0.115298)
(-6.62317e-05 -0.000260919 0.115288)
(-2.91462e-06 -2.45677e-06 0.115654)
(-1.26116e-06 2.68274e-06 0.115624)
(4.59361e-06 -2.28966e-06 0.115626)
(-0.000268991 -0.000267544 0.115561)
(-1.68419e-06 -1.65812e-06 0.115655)
(-2.39788e-07 5.60244e-07 0.115626)
(3.01403e-06 -2.07108e-06 0.115629)
(-0.000266533 -0.000267494 0.115562)
(-1.44698e-06 -9.82737e-07 0.115654)
(1.9471e-07 6.49871e-07 0.115625)
(2.12797e-06 -1.19719e-06 0.115628)
(-0.000265766 -0.000266995 0.115561)
(-1.31956e-06 -5.20194e-07 0.115654)
(4.28819e-09 1.22213e-06 0.115625)
(2.06577e-06 -1.23294e-06 0.115628)
(-0.000265832 -0.00026699 0.115561)
(-1.23757e-06 -5.33448e-07 0.115654)
(1.21402e-07 1.1222e-06 0.115625)
(2.1143e-06 -1.23489e-06 0.115628)
(-0.000265841 -0.000266985 0.115561)
(-1.24208e-06 -5.22449e-07 0.115654)
(-6.6983e-08 1.28599e-06 0.115625)
(2.12465e-06 -1.24424e-06 0.115628)
(-0.000265859 -0.000267012 0.115561)
(-1.22071e-06 -5.62567e-07 0.115654)
(5.62337e-08 1.17703e-06 0.115625)
(2.11759e-06 -1.22719e-06 0.115628)
(-0.000265848 -0.000266985 0.115561)
(-1.23489e-06 -5.37603e-07 0.115654)
(-6.95842e-08 1.29316e-06 0.115625)
(2.12596e-06 -1.23631e-06 0.115628)
(-0.000265859 -0.000267012 0.115561)
(-1.2094e-06 -5.63916e-07 0.115654)
(6.60862e-08 1.17447e-06 0.115625)
(2.12745e-06 -1.24284e-06 0.115628)
(-0.000265838 -0.000266995 0.115561)
(-1.23663e-06 -5.33474e-07 0.115654)
(-5.40812e-08 1.23324e-06 0.115625)
(2.13035e-06 -1.25322e-06 0.115628)
(-0.000265847 -0.000267015 0.115561)
(-1.20445e-06 -5.92479e-07 0.115654)
(3.19834e-08 1.15136e-06 0.115625)
(2.12878e-06 -1.24651e-06 0.115628)
(-0.000265847 -0.000266995 0.115561)
(-1.22665e-06 -5.72097e-07 0.115654)
(-7.13801e-08 1.286e-06 0.115625)
(2.13417e-06 -1.25026e-06 0.115628)
(-0.000265853 -0.000267015 0.115561)
(-1.20256e-06 -5.91446e-07 0.115654)
(3.98296e-08 1.14957e-06 0.115625)
(2.12773e-06 -1.22631e-06 0.115628)
(-0.000265846 -0.000266991 0.115561)
(-1.21975e-06 -5.6725e-07 0.115654)
(-9.51587e-08 1.26961e-06 0.115625)
(2.1265e-06 -1.24398e-06 0.115628)
(-0.000265853 -0.000267014 0.115561)
(-1.18992e-06 -5.97611e-07 0.115654)
(4.64639e-08 9.72825e-07 0.115625)
(2.17693e-06 -1.26564e-06 0.115628)
(-0.00026584 -0.000266995 0.115561)
(-1.19277e-06 -5.79354e-07 0.115654)
(9.23282e-08 7.75194e-07 0.115625)
(2.55704e-06 -1.25484e-06 0.115628)
(-0.000265851 -0.000267013 0.115561)
(-1.24204e-06 -6.07224e-07 0.115654)
(2.42482e-07 5.9095e-07 0.115625)
(2.64174e-06 -4.96368e-07 0.115628)
(-0.000265803 -0.000266958 0.115561)
(7.51186e-06 2.49805e-06 0.115625)
(-9.20456e-06 2.91644e-06 0.115626)
(3.21892e-06 1.26984e-06 0.115627)
(-6.9518e-07 3.68647e-07 0.115626)
(-0.000266688 0.000267722 0.115562)
(0.000271567 -0.000281442 0.11556)
(1.1604e-06 1.11873e-06 0.115626)
(2.53323e-06 -2.66767e-06 0.115622)
(1.88514e-07 -8.05949e-07 0.115627)
(1.36215e-06 -1.11973e-06 0.115625)
(-2.71432e-06 -3.83506e-06 0.115622)
(-2.39199e-07 -6.06223e-07 0.115627)
(-1.63686e-06 -1.2217e-06 0.115625)
(0.000267262 -0.000268558 0.115561)
(-0.000272626 0.000274765 0.11556)
(-4.33181e-06 -2.23972e-06 0.115624)
(2.30855e-06 -1.87258e-06 0.115629)
(-2.55554e-06 -1.87763e-06 0.11563)
(0.000271686 0.000275496 0.11556)
(0.000266304 0.000267023 0.115561)
(-0.000271434 -0.000276988 0.115559)
(4.11978e-06 1.2554e-06 0.115626)
(-3.76467e-06 1.63728e-06 0.115626)
(3.62633e-06 1.19698e-06 0.115626)
(-1.85164e-06 1.54634e-06 0.115626)
(-0.000265472 0.000265238 0.115562)
(0.000270617 -0.000276413 0.115559)
(8.3557e-07 -4.40416e-07 0.115626)
(1.73807e-06 -1.89047e-06 0.115624)
(4.15919e-07 -4.67513e-07 0.115626)
(8.06319e-07 -1.00927e-06 0.115624)
(-1.68606e-06 -1.96616e-06 0.115624)
(7.91119e-08 -9.11727e-07 0.115625)
(-6.48938e-07 -1.08932e-06 0.115624)
(0.000266611 -0.000267342 0.115561)
(-0.000272725 0.000275325 0.11556)
(-3.03633e-06 -2.17832e-06 0.115628)
(2.2259e-06 -1.19763e-06 0.115629)
(-2.04463e-06 -1.27308e-06 0.115629)
(0.000272433 0.000275752 0.11556)
(0.000266052 0.000267527 0.115561)
(-0.000272365 -0.000276225 0.115559)
(3.13533e-06 1.4657e-06 0.115626)
(-5.96167e-06 2.41964e-06 0.115627)
(2.61979e-06 1.86616e-06 0.115626)
(-7.74559e-07 1.02938e-06 0.115625)
(-0.00026425 0.000269454 0.115561)
(0.000272098 -0.000280164 0.115559)
(2.7818e-07 -1.22829e-07 0.115625)
(7.0593e-07 -9.18435e-07 0.115624)
(1.86005e-07 3.70992e-07 0.115625)
(6.34521e-07 -7.94686e-07 0.115624)
(-7.1821e-07 -9.9589e-07 0.115624)
(-8.94909e-08 1.10835e-07 0.115625)
(-7.05793e-07 -8.23312e-07 0.115623)
(0.000266248 -0.000266699 0.115561)
(-0.000272827 0.000275398 0.115559)
(-2.07083e-06 -1.25388e-06 0.115628)
(2.04642e-06 -1.21139e-06 0.115628)
(-2.08008e-06 -1.21284e-06 0.115628)
(0.000272362 0.000275804 0.115559)
(0.000265401 0.000268155 0.115561)
(-0.000272338 -0.000276182 0.115559)
(2.4444e-06 1.90256e-06 0.115626)
(-2.87362e-06 2.11414e-06 0.115626)
(2.51867e-06 1.92083e-06 0.115626)
(-1.12384e-06 2.1002e-06 0.115627)
(-0.000264803 0.000266435 0.115561)
(0.000271271 -0.000275825 0.115559)
(2.47099e-07 4.3265e-07 0.115625)
(6.96336e-07 -7.93895e-07 0.115624)
(2.65235e-07 4.30162e-07 0.115625)
(7.2489e-07 -7.86049e-07 0.115624)
(-7.22464e-07 -7.67958e-07 0.115623)
(-8.46863e-08 -7.37852e-08 0.115625)
(-6.93433e-07 -8.03784e-07 0.115623)
(0.000266242 -0.000266678 0.115561)
(-0.000272745 0.000275397 0.115559)
(-2.10593e-06 -1.21512e-06 0.115628)
(2.12374e-06 -1.22995e-06 0.115628)
(-2.12388e-06 -1.19838e-06 0.115628)
(0.000272351 0.000275809 0.115559)
(0.000265423 0.000268176 0.115561)
(-0.000272271 -0.000276123 0.115559)
(2.54951e-06 1.92872e-06 0.115626)
(-5.54461e-06 2.75503e-06 0.115627)
(2.70779e-06 1.9174e-06 0.115626)
(-8.21798e-07 1.08777e-06 0.115625)
(-0.000263724 0.000269899 0.115561)
(0.000272027 -0.000280042 0.115559)
(2.91865e-07 4.32252e-07 0.115625)
(7.45672e-07 -7.78087e-07 0.115624)
(3.03355e-07 4.49605e-07 0.115625)
(7.41152e-07 -7.9501e-07 0.115624)
(-7.35405e-07 -8.08258e-07 0.115623)
(-1.34035e-07 1.75026e-07 0.115625)
(-7.63299e-07 -8.25137e-07 0.115623)
(0.000266305 -0.000266673 0.115561)
(-0.000272733 0.000275387 0.115559)
(-2.13348e-06 -1.23314e-06 0.115628)
(2.14163e-06 -1.2388e-06 0.115628)
(-2.14505e-06 -1.26512e-06 0.115628)
(0.000272327 0.000275776 0.115559)
(0.000265512 0.000268289 0.115561)
(-0.000272242 -0.000276125 0.115559)
(2.5525e-06 1.91898e-06 0.115626)
(-3.06627e-06 2.16093e-06 0.115626)
(2.60683e-06 1.92635e-06 0.115626)
(-1.34912e-06 2.15712e-06 0.115626)
(-0.000265013 0.000266862 0.115561)
(0.000271033 -0.000275569 0.115559)
(3.33568e-07 4.69897e-07 0.115625)
(7.56706e-07 -7.90538e-07 0.115624)
(3.10985e-07 4.52454e-07 0.115625)
(7.40282e-07 -7.85537e-07 0.115624)
(-7.62866e-07 -7.70897e-07 0.115623)
(-1.73052e-07 1.81084e-09 0.115625)
(-7.08372e-07 -8.10683e-07 0.115623)
(0.000266317 -0.000266686 0.115561)
(-0.000272737 0.000275403 0.115559)
(-2.15084e-06 -1.24633e-06 0.115628)
(2.1321e-06 -1.2237e-06 0.115628)
(-2.13014e-06 -1.20273e-06 0.115628)
(0.000272346 0.00027581 0.115559)
(0.000265521 0.000268276 0.115561)
(-0.000272233 -0.000276125 0.115559)
(2.62978e-06 1.93325e-06 0.115626)
(-5.69933e-06 2.801e-06 0.115627)
(2.72128e-06 1.91018e-06 0.115626)
(-8.41531e-07 1.0756e-06 0.115625)
(-0.000263908 0.000270219 0.115562)
(0.000272026 -0.000280048 0.115559)
(3.27791e-07 4.54548e-07 0.115625)
(7.55943e-07 -7.79601e-07 0.115624)
(2.97454e-07 4.49648e-07 0.115625)
(7.42852e-07 -7.88538e-07 0.115624)
(-7.45656e-07 -8.10832e-07 0.115623)
(-1.40971e-07 1.88459e-07 0.115625)
(-7.61701e-07 -8.20199e-07 0.115623)
(0.000266315 -0.000266671 0.115561)
(-0.000272732 0.000275394 0.115559)
(-2.13732e-06 -1.23042e-06 0.115628)
(2.13502e-06 -1.22473e-06 0.115628)
(-2.14064e-06 -1.25498e-06 0.115628)
(0.000272327 0.000275781 0.115559)
(0.000265537 0.000268289 0.115561)
(-0.000272236 -0.00027612 0.115559)
(2.56162e-06 1.91681e-06 0.115626)
(-3.0676e-06 2.16468e-06 0.115626)
(2.61475e-06 1.92649e-06 0.115626)
(-1.34277e-06 2.15391e-06 0.115626)
(-0.000264995 0.000266811 0.115561)
(0.000271041 -0.000275576 0.115559)
(3.32621e-07 4.71229e-07 0.115625)
(7.63675e-07 -7.86067e-07 0.115624)
(3.1284e-07 4.52529e-07 0.115625)
(7.51334e-07 -7.87363e-07 0.115624)
(-7.6335e-07 -7.68795e-07 0.115623)
(-1.64562e-07 1.98298e-09 0.115625)
(-7.06552e-07 -8.14097e-07 0.115623)
(0.000266321 -0.000266684 0.115561)
(-0.000272729 0.000275396 0.115559)
(-2.14824e-06 -1.24666e-06 0.115628)
(2.1406e-06 -1.22788e-06 0.115628)
(-2.12384e-06 -1.19215e-06 0.115628)
(0.000272357 0.000275806 0.115559)
(0.000265527 0.000268285 0.115561)
(-0.000272233 -0.000276121 0.115559)
(2.63523e-06 1.93309e-06 0.115626)
(-5.69272e-06 2.79623e-06 0.115627)
(2.72058e-06 1.92072e-06 0.115626)
(-7.78565e-07 1.08322e-06 0.115625)
(-0.000263902 0.000270216 0.115562)
(0.000272092 -0.000280127 0.115559)
(3.37164e-07 4.55068e-07 0.115625)
(7.67773e-07 -7.85597e-07 0.115624)
(3.06676e-07 4.54749e-07 0.115625)
(7.50061e-07 -7.92972e-07 0.115624)
(-7.42517e-07 -8.18407e-07 0.115623)
(-1.01042e-07 1.4225e-07 0.115625)
(-7.46198e-07 -8.2395e-07 0.115623)
(0.000266323 -0.000266681 0.115561)
(-0.000272734 0.000275389 0.115559)
(-2.13071e-06 -1.24206e-06 0.115628)
(2.13878e-06 -1.23455e-06 0.115628)
(-2.13555e-06 -1.26393e-06 0.115628)
(0.000272339 0.000275781 0.115559)
(0.000265525 0.000268287 0.115561)
(-0.000272184 -0.0002761 0.115559)
(2.54957e-06 1.90522e-06 0.115626)
(-2.92808e-06 2.10469e-06 0.115626)
(2.63591e-06 1.91994e-06 0.115626)
(-1.35611e-06 2.18775e-06 0.115627)
(-0.000264836 0.000266525 0.115561)
(0.000271091 -0.000275576 0.115559)
(3.37034e-07 4.73832e-07 0.115625)
(7.72607e-07 -7.92394e-07 0.115624)
(3.21028e-07 4.53138e-07 0.115625)
(7.53529e-07 -7.90538e-07 0.115624)
(-7.51493e-07 -7.72063e-07 0.115623)
(-1.18951e-07 -3.14377e-09 0.115625)
(-7.01865e-07 -8.12655e-07 0.115623)
(0.000266318 -0.000266685 0.115561)
(-0.000272731 0.000275398 0.115559)
(-2.14245e-06 -1.25782e-06 0.115628)
(2.14049e-06 -1.23562e-06 0.115628)
(-2.12708e-06 -1.20987e-06 0.115628)
(0.000272346 0.000275814 0.115559)
(0.000265581 0.000268434 0.115561)
(-0.000272102 -0.000276037 0.115559)
(2.70897e-06 1.95005e-06 0.115626)
(-5.68439e-06 2.79752e-06 0.115627)
(2.80135e-06 1.92017e-06 0.115626)
(-8.46271e-07 1.06769e-06 0.115625)
(-0.000263874 0.000270233 0.115562)
(0.000272026 -0.000280131 0.115559)
(3.59613e-07 4.95442e-07 0.115625)
(7.72937e-07 -7.87412e-07 0.115624)
(3.37183e-07 4.88639e-07 0.115625)
(7.56888e-07 -7.99188e-07 0.115624)
(-7.41349e-07 -8.15598e-07 0.115623)
(-7.16365e-08 1.80636e-07 0.115625)
(-7.53242e-07 -8.23701e-07 0.115623)
(0.000266322 -0.000266676 0.115561)
(-0.000272726 0.000275388 0.115559)
(-2.1325e-06 -1.24347e-06 0.115628)
(2.14448e-06 -1.238e-06 0.115628)
(-2.13045e-06 -1.25569e-06 0.115628)
(0.000272335 0.000275789 0.115559)
(0.000265598 0.000268435 0.115561)
(-0.000272101 -0.00027602 0.115559)
(2.63315e-06 1.9453e-06 0.115626)
(-2.95481e-06 2.10714e-06 0.115626)
(2.68411e-06 1.94273e-06 0.115626)
(-1.21795e-06 2.12045e-06 0.115627)
(-0.0002649 0.000266808 0.115561)
(0.000271217 -0.000275743 0.115559)
(3.63946e-07 5.0023e-07 0.115625)
(7.76362e-07 -7.97397e-07 0.115624)
(3.45177e-07 4.79819e-07 0.115625)
(7.57393e-07 -7.87026e-07 0.115624)
(-7.53267e-07 -7.73023e-07 0.115623)
(-9.81095e-08 9.38113e-09 0.115625)
(-6.97662e-07 -8.10601e-07 0.115623)
(0.000266327 -0.000266688 0.115561)
(-0.000272726 0.000275401 0.115559)
(-2.13883e-06 -1.24148e-06 0.115628)
(2.14285e-06 -1.22385e-06 0.115628)
(-2.12542e-06 -1.19877e-06 0.115628)
(0.000272349 0.000275818 0.115559)
(0.000265592 0.00026843 0.115561)
(-0.0002721 -0.000276018 0.115559)
(2.70506e-06 1.97135e-06 0.115626)
(-5.6093e-06 2.73359e-06 0.115627)
(2.79225e-06 1.93149e-06 0.115626)
(-8.22768e-07 1.06811e-06 0.115625)
(-0.000263882 0.000270116 0.115561)
(0.000272023 -0.000280143 0.115559)
(3.68754e-07 4.90322e-07 0.115625)
(7.72601e-07 -7.83258e-07 0.115624)
(3.39363e-07 4.86014e-07 0.115625)
(7.55452e-07 -7.87252e-07 0.115624)
(-7.39028e-07 -8.16033e-07 0.115623)
(-8.82773e-08 1.7983e-07 0.115625)
(-7.51738e-07 -8.19564e-07 0.115623)
(0.000266327 -0.000266673 0.115561)
(-0.000272727 0.000275395 0.115559)
(-2.13542e-06 -1.2346e-06 0.115628)
(2.14302e-06 -1.22295e-06 0.115628)
(-2.13584e-06 -1.25058e-06 0.115628)
(0.000272335 0.00027579 0.115559)
(0.000265599 0.000268436 0.115561)
(-0.000272107 -0.000276018 0.115559)
(2.62949e-06 1.95427e-06 0.115626)
(-2.92667e-06 2.11631e-06 0.115626)
(2.6729e-06 1.94404e-06 0.115626)
(-1.26757e-06 2.14153e-06 0.115627)
(-0.000264895 0.000266787 0.115561)
(0.000271216 -0.000275732 0.115559)
(3.71333e-07 5.08137e-07 0.115625)
(7.76657e-07 -7.95653e-07 0.115624)
(3.45884e-07 4.8866e-07 0.115625)
(7.6063e-07 -7.57949e-07 0.115624)
(-7.52042e-07 -7.707e-07 0.115623)
(-1.03021e-07 9.56096e-08 0.115625)
(-6.90728e-07 -7.96463e-07 0.115623)
(0.000266326 -0.000266684 0.115561)
(-0.000272736 0.00027541 0.115559)
(-2.14143e-06 -1.24415e-06 0.115628)
(2.13059e-06 -1.21491e-06 0.115628)
(-2.12938e-06 -1.20532e-06 0.115628)
(0.000272351 0.000275815 0.115559)
(0.000265588 0.000268429 0.115561)
(-0.000272098 -0.000276011 0.115559)
(2.71492e-06 1.97098e-06 0.115626)
(-5.4839e-06 2.66839e-06 0.115627)
(2.76456e-06 1.92896e-06 0.115626)
(-1.16998e-06 1.1768e-06 0.115625)
(-0.000263879 0.000270116 0.115561)
(0.000271977 -0.000280121 0.115559)
(3.71698e-07 4.8917e-07 0.115625)
(7.67505e-07 -8.40094e-07 0.115624)
(3.41678e-07 5.01584e-07 0.115625)
(7.58434e-07 -3.81079e-07 0.115624)
(-7.3328e-07 -8.29617e-07 0.115623)
(-1.82653e-07 6.11046e-07 0.115625)
(-7.41309e-07 -8.03733e-07 0.115623)
(0.000266335 -0.000266694 0.115561)
(-0.000272795 0.000275543 0.115559)
(-2.12679e-06 -1.24586e-06 0.115628)
(1.81349e-06 -1.20115e-06 0.115628)
(-2.1779e-06 -1.25941e-06 0.115628)
(0.000272335 0.000275784 0.115559)
(0.000265591 0.000268433 0.115561)
(-0.000272105 -0.000276024 0.115559)
(2.64866e-06 1.9431e-06 0.115626)
(-2.48866e-06 2.03073e-06 0.115626)
(2.67861e-06 1.92591e-06 0.115626)
(-1.70513e-06 1.46755e-06 0.115626)
(-0.000264882 0.000266766 0.115561)
(0.000271406 -0.000275702 0.115559)
(3.58533e-07 4.67051e-07 0.115625)
(7.68671e-07 -1.51495e-06 0.115624)
(3.28439e-07 4.83922e-07 0.115625)
(8.16847e-07 5.46297e-07 0.115624)
(-7.39874e-07 -8.05624e-07 0.115623)
(-2.80607e-07 4.36539e-07 0.115625)
(-6.80832e-07 -8.20778e-07 0.115623)
(0.000266357 -0.000266854 0.115561)
(-0.00027224 0.000275648 0.115559)
(-2.11182e-06 -1.25413e-06 0.115628)
(1.4631e-06 -1.79534e-06 0.115628)
(-2.13174e-06 -1.21715e-06 0.115628)
(0.000272345 0.000275796 0.115559)
(0.000265514 0.000268357 0.115561)
(2.64661e-06 1.92107e-06 0.115626)
(-4.90078e-06 3.51206e-06 0.115627)
(-0.000264076 0.000269915 0.115561)
(3.15351e-07 4.71865e-07 0.115625)
(9.14287e-07 -2.89114e-06 0.115624)
(-7.20862e-07 -8.15806e-07 0.115623)
(-5.68872e-07 -6.9041e-07 0.115623)
(0.000266596 -0.000266533 0.115561)
(-2.1469e-06 -1.25059e-06 0.115628)
(-2.08776e-06 -1.1531e-06 0.115628)
(0.000272367 0.000275862 0.115559)
(-1.60007e-06 -5.98958e-05 0.11296)
(8.69827e-06 4.14273e-05 0.102727)
(-6.80688e-07 5.88307e-05 0.112976)
(-3.52578e-06 -3.77387e-05 0.102782)
(-1.1205e-05 1.78694e-05 0.0934118)
(6.25798e-06 -1.46311e-05 0.0934596)
(-5.2998e-05 -7.9956e-07 0.112764)
(3.48932e-05 5.40391e-06 0.10258)
(5.30134e-05 4.70716e-07 0.112813)
(-3.52781e-05 -8.44767e-06 0.102593)
(3.55584e-06 -1.63075e-07 0.115654)
(-3.16395e-07 1.6557e-06 0.11565)
(8.71743e-07 7.93804e-07 0.115649)
(-1.7559e-06 -1.35482e-06 0.115656)
(2.09238e-06 -6.21415e-07 0.115656)
(-3.66262e-07 6.5258e-07 0.115655)
(3.13811e-07 7.08747e-07 0.115656)
(8.39887e-05 -8.73909e-07 0.11505)
(-7.08204e-05 2.2765e-05 0.113202)
(-6.57558e-07 -9.9399e-07 0.115651)
(-3.68308e-07 4.21323e-07 0.115623)
(6.8974e-05 -2.35405e-05 0.113173)
(3.21246e-07 -1.39061e-06 0.115647)
(-8.62699e-05 -7.52074e-08 0.115072)
(1.2968e-05 -9.54542e-06 0.0933064)
(-1.37433e-05 9.28806e-06 0.0933296)
(-8.38437e-07 8.12745e-05 0.115112)
(-2.21131e-06 -3.14999e-06 0.115644)
(2.42212e-05 -6.97484e-05 0.113292)
(1.89989e-06 -6.25347e-07 0.115625)
(-3.53488e-06 2.02047e-07 0.115644)
(-2.4161e-05 6.80345e-05 0.113288)
(8.27056e-07 -8.27041e-05 0.115116)
(-2.59784e-05 -2.54038e-05 0.109819)
(-2.68256e-05 -2.5452e-05 0.109927)
(0.000273189 0.000276324 0.115558)
(2.56032e-05 2.50912e-05 0.109783)
(2.56118e-05 2.59112e-05 0.109913)
(-1.79454e-07 -5.94693e-05 0.112944)
(6.72488e-06 3.39691e-05 0.102763)
(1.36305e-07 4.96031e-05 0.112953)
(-4.53203e-06 -3.74082e-05 0.102805)
(-1.08169e-05 1.12155e-05 0.0934358)
(7.83689e-06 -1.36005e-05 0.0934789)
(-5.19919e-05 -9.13082e-07 0.112761)
(3.64148e-05 6.0842e-06 0.102577)
(5.40301e-05 -1.07532e-07 0.112808)
(-3.37809e-05 -7.14985e-06 0.102587)
(2.36813e-06 -3.63304e-07 0.115655)
(-2.83682e-07 6.53959e-07 0.115654)
(4.65166e-07 4.42951e-07 0.115654)
(-1.41289e-06 -1.24762e-06 0.115655)
(2.05369e-06 -1.10308e-06 0.115654)
(-7.05741e-07 8.71435e-07 0.115655)
(8.22631e-07 7.80615e-07 0.115655)
(8.44376e-05 -1.30257e-06 0.115053)
(-7.19531e-05 2.21643e-05 0.113202)
(1.15503e-06 -1.93137e-06 0.11565)
(-2.48156e-07 -8.63597e-07 0.115625)
(-8.70317e-05 -8.80309e-07 0.115073)
(6.91068e-05 -2.47997e-05 0.113176)
(1.50174e-06 -2.18723e-06 0.11565)
(1.34083e-05 -1.02261e-05 0.093308)
(-1.24469e-05 8.82475e-06 0.093325)
(-5.97703e-07 8.02408e-05 0.115113)
(-1.54291e-06 -2.58125e-06 0.115648)
(2.43528e-05 -7.03558e-05 0.113289)
(2.75678e-06 -1.60496e-06 0.115628)
(6.39448e-07 -8.22408e-05 0.115115)
(-1.5694e-06 -1.9532e-06 0.115648)
(-2.36173e-05 6.682e-05 0.113288)
(-2.66889e-05 -2.67226e-05 0.109817)
(-2.76429e-05 -2.61184e-05 0.109923)
(0.000272184 0.000275316 0.11556)
(2.5395e-05 2.3789e-05 0.109783)
(2.5077e-05 2.38695e-05 0.109911)
(-5.20973e-07 -5.64878e-05 0.112945)
(5.20276e-06 3.69542e-05 0.102771)
(4.79066e-07 5.46574e-05 0.112951)
(-6.1723e-06 -3.58282e-05 0.102809)
(-8.65666e-06 1.40681e-05 0.0934388)
(8.89514e-06 -1.25512e-05 0.0934781)
(-5.30217e-05 -6.42618e-07 0.112764)
(3.59893e-05 6.81736e-06 0.102572)
(5.38201e-05 2.2126e-07 0.11281)
(-3.51148e-05 -6.71892e-06 0.102584)
(1.77413e-06 -9.08218e-07 0.115654)
(-7.92036e-07 9.60581e-07 0.115655)
(8.4081e-07 9.02439e-07 0.115654)
(-1.33e-06 -5.68726e-07 0.115654)
(1.37941e-06 -2.73486e-07 0.115654)
(-7.94115e-07 9.31996e-07 0.115654)
(7.83469e-07 9.3481e-07 0.115654)
(8.46247e-05 -7.15163e-07 0.115053)
(-7.03095e-05 2.23577e-05 0.113205)
(1.72753e-06 -1.5255e-06 0.115649)
(-1.11035e-07 -4.68193e-07 0.115625)
(-8.60931e-05 -5.58336e-07 0.115074)
(7.0277e-05 -2.3608e-05 0.113177)
(1.64492e-06 -1.40179e-06 0.115649)
(1.3446e-05 -1.00865e-05 0.0932998)
(-1.31927e-05 8.96479e-06 0.0933196)
(-8.77109e-07 8.12922e-05 0.115114)
(-1.69125e-06 -1.06927e-06 0.115648)
(2.39161e-05 -6.95999e-05 0.113292)
(2.0691e-06 -1.19854e-06 0.115628)
(5.73597e-07 -8.12521e-05 0.115117)
(-1.76678e-06 -1.09658e-06 0.115648)
(-2.43464e-05 6.77157e-05 0.113291)
(-2.56375e-05 -2.62461e-05 0.109819)
(-2.69607e-05 -2.57336e-05 0.109924)
(0.000272362 0.000275799 0.115559)
(2.57853e-05 2.44651e-05 0.109785)
(2.53887e-05 2.48493e-05 0.109912)