/*--------------------------------*- C++ -*----------------------------------*\
| =========                 |                                                 |
| \\      /  F ield         | OpenFOAM: The Open Source CFD Toolbox           |
|  \\    /   O peration     | Version:  2206                                  |
|   \\  /    A nd           | Website:  www.openfoam.com                      |
|    \\/     M anipulation  |                                                 |
\*---------------------------------------------------------------------------*/
FoamFile
{
    version     2.0;
    format      ascii;
    arch        "LSB;label=32;scalar=64";
    class       volScalarField;
    location    "30";
    object      omega;
}
// * * * * * * * * * * * * * * * * * * * * * * * * * * * * * * * * * * * * * //

dimensions      [0 0 -1 0 0 0 0];

internalField   nonuniform List<scalar> 
401248
(
17.849
21.1372
20.9677
22.9845
23.1332
21.0321
20.8307
22.7981
21.205
21.1033
21.1049
22.9086
20.8358
269.612
86.9676
398.228
273.168
91.2539
17.8159
17.7678
17.8231
80.8762
19.2656
35.8394
406.462
19.1649
78.3051
34.4377
145.658
144.249
404.519
406.694
146.501
149.365
265.318
82.9213
80.0112
19.1723
34.6549
75.823
19.1443
34.3005
144.585
144.752
399.94
81.9927
19.315
36.3289
272.089
91.0099
19.3055
81.4879
36.4385
265.183
88.8024
19.3363
78.7153
36.2697
269.707
89.9717
148.54
143.297
397.981
19.1662
76.3886
33.6314
262.386
83.7567
266.359
85.7691
402.329
400.57
424.514
261.734
155.847
153.552
421.368
312.838
85.1852
284.734
100.347
277.831
95.322
308.427
403.749
317.513
90.368
104.01
288.789
427.083
270.913
160.329
158.028
424.158
426.367
271.91
159.683
316.137
88.9833
104.903
289.539
102.366
286.492
316.073
403.97
402.787
98.224
50.5442
147.646
279.514
52.6028
277.969
96.751
97.9462
50.2908
142.827
274.824
52.2748
282.843
96.3949
201.847
410.038
409.378
409.087
411.069
199.735
402.096
404.849
402.759
99.8343
52.3278
140.016
282.089
274.162
50.0746
96.1703
100.382
52.9607
146.94
284.696
282.045
50.4481
96.5936
205.153
411.861
413.227
410.317
411.728
199.442
422.506
268.29
149.554
155.981
420.614
310.122
86.7176
281.753
99.3105
280.627
98.0541
308.297
97.4497
51.562
142.99
279.077
281.661
51.0086
95.8747
98.4776
52.0865
146.991
278.812
51.5658
281.399
97.2999
202.153
409.259
409.842
410.71
409.105
200.2
405.773
317.522
90.3163
288.866
103.773
426.843
266.291
159.245
152.831
424.06
425.353
264.243
159.448
316.228
88.9388
289.642
104.62
286.67
102.143
316.227
425.36
273.049
156.706
158.867
423.607
313.759
87.7095
100.737
286.755
98.7069
285.291
311.912
426.411
267.902
157.765
156.352
421.674
314.474
88.624
286.298
103.896
288.474
102.632
312.459
98.4427
52.4303
144.3
283.553
279.938
50.082
96.9982
98.5525
51.8667
145.34
277.08
49.477
280.045
94.57
204.309
412.459
408.472
411.699
408.175
198.769
403.969
424.055
270.234
154.262
156.33
418.997
310.555
87.4946
99.8227
281.889
98.5528
284.209
308.56
423.856
265.154
153.234
152.037
423.038
310.397
84.5907
98.9313
279.114
100.392
285.624
308.424
402.075
403.011
17.1671
17.2157
16.7903
46.4379
29.8527
29.7026
22.9328
29.4793
29.3678
46.1653
47.2841
30.4057
30.6444
22.88
29.8347
29.7497
45.7332
46.7942
29.9819
30.3673
23.0412
30.5234
29.9133
46.3873
46.3149
30.1796
30.0203
22.5698
29.0906
29.7735
46.0344
17.2573
17.1841
16.8167
17.1022
17.0976
16.7915
17.2784
17.2796
17.0151
28.0336
36.2798
80.1991
52.0991
36.555
52.6294
27.7991
24.8686
36.1902
39.6792
23.6269
40.1014
23.5285
24.7302
27.733
35.8187
76.6422
50.2426
35.3332
49.422
27.7681
24.4564
34.7302
23.0483
38.6456
23.3034
38.312
24.3634
27.5255
35.6554
77.3837
50.4391
48.3286
34.7973
27.1576
24.1598
34.1922
38.2332
23.2687
36.9189
23.1419
24.3955
27.2441
35.0232
79.4941
49.6496
50.3037
35.3921
27.0462
24.3582
34.0529
38.274
23.2028
38.6164
23.1246
24.265
28.1444
36.3305
77.7574
52.7907
51.8587
34.9296
27.9989
24.9528
35.436
40.2857
23.8213
38.7664
23.4753
24.858
27.8372
35.8739
77.4155
51.8087
50.9726
34.6116
27.6677
24.9284
35.2292
23.8426
40.0147
23.5076
38.5503
24.8422
28.1953
36.2748
82.3777
51.4096
36.6052
50.587
28.0654
25.0401
35.9452
23.812
39.1518
23.8982
40.5251
24.8948
27.4404
35.1967
80.0859
49.8598
35.5454
49.3773
27.3307
24.3341
34.5682
22.9903
37.8524
23.2717
37.3981
24.2618
761.634
1630.06
4428.65
16479.5
116782
744.189
1612.71
4397.54
16429.1
116912
761.422
1630.21
4428.89
16481.5
116803
743.317
1611.87
4396.95
16426.7
116892
743.512
1611.79
4396.82
16425.2
116862
743.357
1611.93
4397.29
16429.1
116912
762.388
1630.8
4428.98
16481.5
116803
743.934
1612.56
4396.88
16425.4
116872
761.358
1630.14
4428.83
16481.4
116814
762.254
1630.75
4428.48
16478.7
116781
762.148
1630.75
4428.59
16478.3
116772
744.046
1612.5
4396.96
16426.2
116881
762.346
1630.7
4428.75
16480.4
116795
762.245
1630.68
4428.75
16480.4
116802
743.971
1612.63
4397.15
16426.9
116892
744.173
1612.61
4397.42
16428.7
116912
740.847
1610.93
4395.48
16420.7
116835
761.287
1629.85
4428.18
16479
116782
743.932
1611.95
4397.02
16428.8
116912
752.216
1622.28
4413.74
16449
116752
751.126
1616.97
4403.03
16427.2
116727
740.537
1610.99
4395.6
16421.5
116840
761.629
1629.99
4428.41
16480.9
116803
762.091
1630.33
4428.83
16481.4
116803
743.256
1611.79
4396.62
16426.5
116892
744.013
1612.02
4396.92
16426.8
116892
761.17
1629.97
4426.97
16477
116795
760.759
1629.19
4426.44
16476.6
116795
761.098
1629.92
4427
16477.1
116795
761.012
1629.18
4426.47
16476.6
116795
744.925
1617.36
4405.39
16443.6
116918
744.991
1617.37
4405.33
16443.9
116921
744.39
1616.5
4404.85
16443.2
116918
744.69
1616.5
4404.75
16443.4
116921
743.59
1611.73
4396.48
16424.9
116862
743.425
1611.86
4396.96
16428.8
116912
744.045
1612.07
4397.25
16429.1
116912
762.092
1629.99
4428.37
16481
116803
761.209
1629.99
4426.9
16476.1
116789
760.649
1629.2
4426.36
16475.6
116789
744.533
1617.35
4405.3
16443.7
116919
744.319
1616.5
4404.73
16443.3
116919
743.69
1611.8
4396.37
16425.1
116872
752.234
1622.28
4413.72
16448.3
116747
751.167
1616.97
4402.99
16427
116725
740.523
1610.98
4395.65
16421.6
116852
761.02
1629.91
4428.37
16481
116814
761.709
1630.26
4428.79
16481.4
116814
761.976
1629.96
4427.93
16478.2
116781
740.887
1611.12
4395.51
16420.4
116831
761.718
1629.97
4428.03
16477.9
116772
761.342
1629.91
4426.69
16474.3
116759
760.662
1629.11
4426.12
16473.9
116759
744.875
1617.35
4405.46
16443.5
116904
744.063
1611.8
4396.46
16425.9
116881
741.239
1611.1
4395.51
16420.7
116836
762.183
1629.92
4428.16
16479.9
116795
741.145
1611.05
4395.37
16420.6
116840
761.908
1629.9
4428.16
16479.9
116802
743.832
1611.85
4396.63
16426.5
116892
744.215
1611.87
4396.88
16428.3
116912
740.63
1611
4395.4
16421.2
116838
740.391
1611.05
4395.44
16420.7
116840
752.39
1622.11
4413.61
16449.1
116768
751.23
1616.93
4403.27
16428.4
116747
750.994
1616.8
4402.88
16427.9
116747
752.328
1622.39
4413.98
16449.5
116768
741.169
1611.34
4395.92
16421.1
116835
761.155
1629.93
4426.76
16475.2
116776
761.047
1629.15
4426.2
16474.7
116776
744.581
1617.25
4404.94
16441.3
116887
744.467
1616.43
4404.42
16440.9
116887
740.513
1611.34
4396.01
16421.9
116840
751.677
1622.03
4413.43
16448.7
116752
750.882
1616.92
4403.06
16427.2
116727
750.777
1616.81
4402.69
16426.9
116727
752.126
1622.4
4413.78
16449.1
116752
741.5
1611.55
4395.97
16421.9
116840
760.395
1629.29
4426.71
16475.4
116778
760.138
1629.1
4426.27
16474.9
116778
744.002
1616.61
4405.38
16444.2
116918
744.133
1616.48
4404.97
16443.8
116918
760.545
1629.22
4426.67
16475.4
116776
760.205
1629.01
4426.22
16474.9
116776
744.165
1616.6
4405.32
16444.4
116933
744.142
1616.49
4404.92
16444
116933
760.464
1629.39
4426.85
16476.6
116795
760.703
1629.2
4426.43
16476.1
116795
744.209
1616.6
4405.13
16443.3
116921
744.192
1616.48
4404.74
16442.9
116921
752.262
1622.15
4413.37
16448.6
116751
751.857
1617.64
4403.17
16427.3
116727
751.633
1616.88
4402.64
16426.9
116727
753.148
1623.04
4413.8
16448.9
116751
741.58
1612.04
4395.97
16421.7
116838
751.742
1622.04
4413.41
16448
116747
750.924
1616.94
4403.03
16427.1
116725
750.816
1616.8
4402.64
16426.7
116725
752.369
1622.43
4413.77
16448.4
116747
740.792
1611.38
4396.07
16422
116852
741.356
1611.52
4396.03
16422
116852
741.343
1612.08
4395.98
16421.1
116840
751.731
1622.23
4413.76
16450
116774
751.777
1617.71
4403.44
16427.7
116749
750.93
1616.95
4402.97
16427.3
116749
752.68
1623.12
4414.15
16450.3
116774
751.995
1622.24
4413.79
16450.1
116769
751.494
1617.7
4403.46
16428.3
116747
751.396
1616.95
4402.97
16428
116747
753.123
1623.13
4414.16
16450.4
116769
741.347
1612.06
4396.05
16420.8
116831
744.079
1616.51
4404.91
16443.1
116904
741.639
1612.04
4396.08
16421.1
116836
752.451
1622.18
4413.58
16448.7
116758
751.899
1617.63
4403.26
16427.1
116725
751.795
1616.9
4402.81
16427.3
116736
753.564
1623.09
4413.95
16448.4
116748
742.087
1612.09
4395.96
16421.1
116840
752.294
1622.16
4413.41
16448.7
116752
752.183
1617.66
4403.16
16427.3
116727
751.949
1616.92
4402.65
16426.9
116727
753.183
1623.06
4413.82
16449
116752
23.0433
20.9729
21.1524
21.0355
22.9063
20.9642
22.6443
23.1045
17.8866
17.8707
404.66
402.118
146.385
149.056
270.558
79.4016
266.992
89.6556
81.9243
19.3723
36.6443
263.108
87.0109
19.3506
81.4732
36.6466
400.711
147.713
145.925
402.606
80.1016
268.062
401.998
405.92
399.654
408.239
143.142
144.352
23.0722
147.374
150.447
405.245
403.304
408.104
405.41
22.9434
147.239
150.567
142.51
144.777
403.489
406.63
92.9192
51.7764
145.05
281.604
273.761
51.1983
97.6483
96.2688
53.0062
147.441
284.231
282.811
52.4009
97.6725
197.233
411.836
412.783
407.024
412.22
203.928
268.8
157.711
156.355
423.698
428.766
273.748
155.697
161.715
423.505
319.255
93.7277
100.076
286.176
107.83
291.132
312.662
429.062
273.855
155.939
161.385
423.507
319.265
92.9427
284.921
102.927
291.304
106.846
313.362
405.909
95.5936
52.6855
146.356
281.868
50.6985
279.673
96.867
93.2321
52.4035
144.156
280.18
277.876
51.9312
97.5073
199.715
411.076
410.192
409.889
409.025
197.412
400.86
265.662
155.402
153.56
422.896
401.169
402.181
405.531
404.676
206.538
413.142
414.008
410.393
413.005
202.085
99.8908
50.3755
275.84
142.073
95.9226
282.928
51.2699
99.6873
51.1435
280.657
141.757
98.1243
281.96
50.2582
205.882
411.48
409.093
205.075
410.156
413.036
94.2127
283.693
141.775
52.1555
281.444
98.3723
51.5316
97.4714
285.089
149.027
53.4123
282.15
98.7461
52.8262
404.248
403.993
404.921
404.543
206.431
411.592
411.574
201.104
410.11
412.927
100.3
52.3642
145.653
283.655
282.279
51.8139
95.1463
101.119
53.3222
148.924
286.339
285.065
52.6376
98.7045
99.3501
277.717
51.0636
140.962
99.0189
276.681
51.5544
97.6534
280.427
51.3417
144.365
98.8653
279.528
51.1044
204.307
413.057
414.054
410.584
413.679
204.836
45.8726
22.986
30.1167
30.4854
29.9029
30.3212
46.4538
45.3252
22.8093
30.0535
30.1504
29.1992
29.9873
44.9451
46.9802
29.615
29.9631
22.9047
46.5851
29.8955
29.8241
47.6835
22.9975
30.2905
30.6216
30.0274
30.3849
46.3822
17.4201
17.3995
27.1506
35.4915
78.5089
49.3765
35.3296
48.5925
27.1976
27.8761
36.2006
80.8935
52.4937
35.8728
51.9363
27.6602
24.9155
36.3085
40.5912
23.878
40.3185
23.8056
24.8094
27.4453
36.062
80.2004
51.8764
50.1072
35.7077
27.6215
24.6021
36.3567
23.5879
40.3197
23.7637
38.8425
24.582
27.5604
35.9599
79.1137
51.2063
35.7765
50.8238
27.6216
46.0884
22.8094
30.0964
30.501
45.6791
29.914
29.7576
47.5492
22.8066
29.7102
30.3228
47.4922
29.8961
30.3874
17.9288
21.2214
20.9933
23.0596
17.7843
21.2457
21.0563
23.1831
17.8086
21.3105
21.073
23.2846
17.8115
21.3701
21.0777
23.3321
17.8092
21.3726
21.1552
23.3699
17.8047
21.3266
21.1222
23.2995
17.7806
21.2799
21.1738
23.2819
17.7905
21.2932
21.153
23.3399
17.7772
21.2966
21.1082
23.3375
17.7722
21.3091
21.0841
23.3647
17.7777
21.3269
21.0799
23.3492
17.8054
21.278
21.0838
23.2815
17.813
21.2907
21.1179
23.275
17.79
21.2947
21.1321
23.3548
17.7754
21.2847
21.1498
23.3046
17.7462
21.2685
21.0912
23.2908
17.7708
21.3007
21.114
23.3316
20.9982
20.9775
21.1049
21.0157
23.0893
23.0082
21.0795
20.9604
21.283
21.1819
21.2678
21.0829
21.3204
22.759
22.9705
20.9832
20.9549
21.0222
23.0923
22.9133
23.0958
21.0386
20.948
21.0961
21.0055
22.7569
23.1121
21.055
21.0247
21.2918
21.2025
21.1774
21.1244
21.3469
22.8148
22.9731
20.9078
21.0678
21.0601
23.0489
22.8276
23.153
21.0116
20.8862
21.1124
21.0508
22.7696
23.2146
21.2106
21.0932
21.2893
21.1803
21.2216
21.2002
21.3594
22.7459
23.0237
20.8628
21.0367
21.1571
23.2575
22.9567
23.229
21.0106
20.8223
21.149
21.0861
22.9141
23.2994
21.132
20.978
21.2661
21.2759
21.2381
21.2063
21.3594
22.7877
23.1427
21.1155
21.0109
21.1709
23.3234
23.0565
23.2887
21.0669
20.8625
21.1573
21.1076
22.9287
23.2786
21.1688
21.1201
21.3216
21.2903
21.2477
21.2819
21.3479
23.01
23.1167
20.9729
20.9714
21.1605
23.2153
23.0534
23.293
21.0456
21.0222
21.2
21.0547
23.0713
23.1735
21.2117
21.1223
21.3306
21.3078
21.2667
21.2202
21.3282
22.9144
23.2029
21.0224
21.018
21.1022
23.2207
23.1167
23.3172
21.0536
20.8421
21.1905
21.0586
22.9168
23.2713
21.2103
21.1548
21.3566
21.3178
21.1889
21.2436
21.3478
22.9095
23.1813
21.0387
21.1217
21.0798
23.3
23.1178
23.2763
20.9806
20.8511
21.2026
21.0571
23.1078
23.2988
21.2414
21.1698
21.3544
21.3001
21.219
21.2339
21.3581
22.7839
23.1947
20.8608
21.0605
21.0416
23.0904
23.1499
23.3655
20.9851
20.8607
21.1666
21.0869
22.9701
23.2995
21.2308
21.152
21.3985
21.2753
21.2533
21.2621
21.3682
22.7981
23.1657
20.8993
21.0207
21.0559
23.1324
23.0987
23.3138
20.9818
20.9928
21.1772
21.0743
23.108
23.2405
21.2726
21.0532
21.3816
21.3251
21.2592
21.2858
21.3815
22.8782
23.0395
20.8518
20.9419
21.0808
23.1081
23.1562
23.3454
21.0349
20.9407
21.2156
21.0368
22.8974
23.1599
21.1764
21.074
21.3665
21.2957
21.2875
21.1359
21.3811
22.8104
23.0536
20.9995
21.0374
21.0579
23.194
23.1539
23.3323
21.0131
20.8066
21.2381
21.0234
22.968
23.1838
21.1964
21.1672
21.33
21.2528
21.1488
21.2346
21.3606
22.7552
23.1043
20.9934
20.9758
21.0959
23.2022
22.9408
23.3095
21.1333
20.92
21.2072
21.0584
23.0419
23.2636
21.1294
21.1253
21.3343
21.247
21.2441
21.236
21.378
22.9681
23.1641
20.954
20.9868
21.1049
23.3166
23.1891
23.2674
21.0898
20.965
21.1836
21.0824
23.1297
23.1984
21.1195
21.1215
21.3781
21.2359
21.1749
21.2408
21.4195
22.7873
23.1093
20.8956
21.0167
21.1356
23.2299
23.0088
23.3054
21.1148
20.8914
21.1477
21.1384
22.9184
23.2388
21.0965
21.1035
21.3298
21.2222
21.2868
21.2078
21.3676
22.9048
23.0829
21.0359
20.9647
21.1132
23.2078
23.1439
23.2527
21.0032
20.9353
21.1208
21.1017
23.1239
23.2099
21.226
20.9672
21.3242
21.2596
21.2368
21.1325
21.3693
22.9582
23.104
21.0019
20.9454
21.0921
23.0912
23.063
21.0026
20.8837
22.8217
21.1777
21.1578
21.0588
21.1401
21.4007
22.9325
22.8361
20.8696
20.9178
21.1172
23.2355
89.4275
265.34
89.3044
271.569
405.941
405.859
92.8602
267.251
87.7573
275.448
17.7498
17.9087
17.7668
17.8818
17.7878
17.7839
17.7972
36.4906
82.8436
19.3608
21.1505
83.4948
19.364
36.6584
401.333
407.505
35.2601
19.2393
76.2258
21.0091
19.2542
80.6646
35.4414
152.869
147.727
23.0762
152.261
149.033
89.3361
273.742
89.7246
273.089
405.772
405.766
93.709
276.348
94.1239
275.705
17.9265
17.8715
17.8888
17.8518
17.7973
17.7629
17.8295
37.2403
83.6739
19.3961
21.189
37.0318
84.3348
19.3968
407.705
407.858
35.2946
19.2643
81.5564
20.963
35.2284
19.252
82.0628
152.78
150.556
23.2163
152.864
150.346
89.5208
273.99
89.4412
273.236
405.813
406.129
93.3416
276.197
94.4528
275.974
17.925
17.8176
17.9051
17.8514
17.7874
17.7312
17.8402
37.3429
85.1934
19.434
21.2348
37.4094
85.1861
19.406
407.804
407.975
35.6126
19.2401
82.6535
20.9796
35.4639
19.2325
82.6967
153.498
150.759
23.2442
152.861
150.332
89.6071
274.65
89.7048
273.559
406.262
406.111
93.4835
276.008
94.2877
276.068
17.829
17.8019
17.9225
17.8441
17.7817
17.7005
17.8411
37.029
84.8389
19.3857
21.3189
37.2757
84.7316
19.3639
408.262
407.991
35.889
19.2259
82.7657
20.874
35.863
19.226
82.7517
152.985
151.49
23.3178
152.805
150.713
89.6042
273.435
90.3225
273.332
406.347
406.235
93.2533
277.646
93.5733
276.482
17.9058
17.7589
17.8705
17.8952
17.7647
17.6865
17.7892
36.8681
84.4922
19.3555
21.1518
36.9741
84.3271
19.3449
408.578
408.215
35.8852
19.2283
82.8989
21.0762
36.0932
19.2119
82.9762
153.215
150.992
23.2936
152.508
150.433
89.8713
273.778
90.2982
273.409
406.591
406.277
93.2053
276.076
93.5058
275.671
17.7831
17.8639
17.8092
17.8675
17.689
17.7755
17.7411
36.832
85.1304
19.343
21.1137
36.7746
84.8207
19.3211
407.927
408.009
35.7929
19.1997
82.4084
21.0422
35.8735
19.2094
82.4862
152.866
151.13
23.2559
152.27
150.807
89.7186
274.346
89.6973
273.734
405.896
406.126
93.965
276.521
94.1783
276.25
17.7358
17.8751
17.8598
17.825
17.6779
17.7434
17.7168
37.0368
84.7219
19.3212
21.1189
37.0122
84.8298
19.2977
408.319
408.141
35.9123
19.2075
82.9041
21.1163
36.0725
19.2006
82.8972
153.119
151.08
23.2475
152.264
150.629
89.3351
274.051
89.6721
273.652
405.802
406.258
93.9865
276.474
94.8325
276.038
17.7206
17.7773
17.76
17.8163
17.6746
17.7374
17.7343
37.2357
85.1523
19.329
21.136
37.1861
84.7323
19.3242
408.202
408.222
35.5719
19.1935
83.3709
20.9918
35.764
19.1786
82.9848
152.279
151.218
23.2942
152.753
150.48
89.2681
274.671
89.4939
273.656
406.028
406.242
93.5841
277.393
94.5843
276.353
17.7538
17.7742
17.7915
17.7983
17.6968
17.7474
17.7372
36.9531
85.434
19.3237
21.1552
37.2822
85.0807
19.3152
408.812
408.279
35.7997
19.1739
83.0345
21.0107
35.8173
19.1674
83.2179
153.589
151.082
23.3127
152.884
150.802
89.2889
274.815
88.9466
273.96
405.987
406.501
93.9335
276.84
93.4821
276.332
17.8201
17.8061
17.7881
17.8679
17.679
17.7281
17.7229
36.8734
84.9904
19.317
21.1869
37.0144
84.8528
19.35
408.397
408.259
35.6902
19.1315
82.8433
20.8475
35.8203
19.145
82.785
153.104
151.671
23.292
152.732
150.696
90.1627
273.412
90.1441
273.513
405.992
405.929
93.9658
275.866
94.239
275.962
17.7824
17.8058
17.8006
17.8358
17.6551
17.7427
17.7399
36.8187
84.7365
19.3172
21.2088
37.1012
84.6939
19.3392
407.941
407.918
35.5327
19.1393
83.2624
20.9944
35.477
19.1271
82.8179
152.217
151.263
23.2643
152.626
150.927
90.2158
274.738
90.9608
273.232
405.846
406.327
93.3102
276.267
93.5399
276.075
17.6882
17.8186
17.7885
17.8544
17.669
17.7232
17.7394
36.973
84.5375
19.3381
21.1803
36.996
84.7882
19.3201
407.615
408.245
35.4253
19.1269
83.2176
20.8839
35.5413
19.126
83.1375
152.928
151.317
23.2591
152.634
150.799
90.3422
274.505
90.4769
273.804
406.15
406.152
93.1962
276.766
93.3632
276.089
17.7159
17.7808
17.7891
17.8433
17.7007
17.7287
17.7469
37.2096
85.1787
19.3255
21.1156
37.3454
85.3457
19.3441
408.389
408.422
35.6293
19.1411
82.8324
21.0173
35.3768
19.1392
82.6009
152.257
150.903
23.2563
152.641
150.546
89.8115
273.334
90.2886
273.103
406.404
406.328
93.2588
276.3
93.3542
276.123
17.7697
17.8304
17.8218
17.8107
17.6943
17.7243
17.7672
37.106
85.7352
19.3447
21.1269
37.2174
85.043
19.3186
408.561
408.207
35.906
19.1621
83.1084
21.0814
35.8491
19.1671
82.5599
153.671
151.603
23.2786
152.312
150.735
89.4002
273.472
89.5128
273.24
406.857
406.717
93.2014
276.741
94.0619
276.043
17.7398
17.7793
17.8076
17.8378
17.6958
17.7141
17.7417
37.0576
84.6787
19.3352
21.1243
37.2175
84.8947
19.3251
408.427
408.016
35.8251
19.1964
82.7077
21.066
35.9544
19.1936
82.5669
152.742
151.903
23.2926
152.07
150.74
89.1207
273.714
89.5792
273.483
406.641
406.573
93.2765
276.634
93.2081
276.199
17.7666
17.8409
17.8176
17.8012
17.7042
17.6984
17.7612
36.8753
84.6948
19.3211
21.0136
36.9767
84.3989
19.3082
408.563
408.436
35.831
19.1587
82.694
21.0184
35.9686
19.1728
82.9281
153.533
152.027
23.268
152.687
150.939
89.2697
274.365
89.791
273.112
406.134
406.23
93.8898
276.665
93.6776
276.569
17.8386
17.8371
17.8743
17.7944
17.7371
36.8255
84.7452
19.3326
21.2023
36.9604
85.1458
19.29
407.854
407.94
35.8875
19.1766
83.78
21.0785
36.1797
19.1708
83.355
153.699
151.59
23.2934
152.764
150.689
88.8655
272.201
271.883
88.8546
35.3436
77.1916
19.1579
20.9983
19.158
35.3101
80.6558
35.0958
80.0977
19.1171
20.9165
81.0344
19.1302
34.9936
88.0769
268.802
86.7146
266.33
86.8989
271.722
266.309
88.7371
34.9482
20.9578
81.2826
19.1734
19.1604
35.2395
79.6894
33.8687
20.8584
81.2303
19.1489
77.1254
19.1398
34.7943
147.905
150.841
23.0555
148.585
150.639
407.302
407.288
405.521
400.855
22.7834
148.195
150.415
142.839
145.114
407.521
405.189
36.6308
79.0591
19.3678
21.2717
19.3662
36.0498
82.6628
92.8135
271.489
274.241
90.7371
36.8212
19.3472
76.6005
21.1478
19.3482
82.4617
36.1416
89.237
275.373
90.9914
267.851
35.6302
21.2513
83.0138
19.3539
19.3669
36.6627
79.2759
88.7906
274.738
267.26
92.5216
36.3149
21.1299
19.342
82.5666
19.3589
77.4447
36.6881
92.3227
274.577
275.072
92.5509
36.4434
19.3613
85.2172
21.0709
19.3547
84.5828
36.5839
91.4039
276.592
276.01
91.532
35.5486
21.0977
82.8693
19.3953
80.5277
19.3914
36.2178
90.3696
274.362
266.75
92.272
35.5709
21.2615
19.3851
84.1383
19.3843
81.4172
36.6225
88.0652
275.426
273.227
91.5495
143.043
143.24
22.9325
148.879
147.16
398.064
404.925
407.341
404.812
22.7939
149.834
147.776
146.034
143.736
405.145
401.974
34.9798
19.1857
80.6304
20.8012
19.1928
81.3788
35.1675
88.8523
264.937
270.919
88.5644
88.4703
269.94
271.684
88.0983
34.6749
20.9473
19.2636
80.7393
19.263
76.5109
35.0538
34.2796
20.9771
19.2092
81.0655
19.1994
79.9893
35.0942
87.0317
272.274
263.3
88.1699
86.4896
271.803
266.281
88.3358
408.165
407.98
403.995
405.373
22.8278
151.809
149.746
150.47
144.052
407.94
405.751
405.408
401.454
402.214
405.33
405.467
407.615
142.532
146.175
23.0962
147.683
150.872
406.169
400.481
407.562
402.213
22.8061
148.162
152.007
144.597
147.543
88.26
266.156
84.4209
271.642
35.3489
78.5855
19.1767
20.9541
33.9299
81.4875
19.179
35.156
76.4579
19.1607
20.8782
34.912
81.3364
19.1652
84.4649
268.969
266.242
85.8985
85.17
271.953
265.999
89.1791
34.9312
20.9319
81.1061
19.1933
78.8352
19.1918
35.3066
34.5925
20.8539
80.626
19.1709
79.704
19.1703
35.3163
144.543
146.937
23.0023
148.197
150.412
405.274
407.943
405.546
400.329
22.7181
148.007
151.486
140.837
145.701
407.946
405.948
36.9246
80.0794
19.3738
21.229
36.1308
83.2428
19.3607
92.568
270.307
88.5497
274.824
36.6875
19.3138
80.9796
20.9947
35.925
19.3482
82.4102
88.9215
271.346
273.223
94.0923
35.9522
21.1385
84.0703
19.3681
79.664
19.3926
37.2941
89.6357
275.263
270.566
92.9554
35.4575
21.177
19.3425
82.8731
19.3418
79.7898
36.3751
93.7584
272.212
88.4669
275.596
36.7003
19.3632
80.9391
21.2515
35.5464
19.3937
84.5641
93.0008
267.546
87.5854
276.529
36.6357
21.133
82.618
19.4227
83.1915
19.4048
37.2042
91.9801
276.201
272.121
93.6242
35.7792
21.2779
19.3804
84.4579
19.3819
81.3418
37.1428
89.4918
275.761
270.396
93.4076
147.32
143.535
22.9613
150.379
148.108
400.288
405.889
407.693
403.011
22.8479
150.921
149.177
147.869
144.95
405.984
403.501
35.1042
19.2178
76.7902
20.8793
33.5874
19.2389
82.1282
88.981
266.371
83.4685
272.762
88.3337
267.018
83.4788
272.047
33.95
20.9182
19.2581
82.1972
19.2605
80.4417
35.1741
33.8029
21.0009
19.2429
82.0348
19.2378
80.7742
35.4924
87.0925
272.239
266.394
88.784
86.6817
272.343
267.428
89.1634
402.63
405.756
400.812
406.051
23.065
152.43
149.706
148.992
148.473
405.207
408.185
405.621
402.48
403.628
405.692
403.811
408.409
141.138
149.469
23.094
149.274
151.884
405.886
402.945
408.194
402.787
22.8259
148.696
152.192
146.768
144.004
88.9881
266.736
85.9484
272.228
35.3377
79.4809
19.185
21.0516
34.7986
81.3271
19.2086
35.5519
77.5588
19.1812
20.8083
34.1943
81.0127
19.1872
86.0022
269.841
269.754
88.2683
85.757
271.79
267.543
89.0387
34.4166
21.0703
81.2505
19.2127
80.0688
19.2034
35.3808
35.1008
20.9996
81.3051
19.1943
75.765
19.1933
35.3494
144.803
143.845
23.1888
149.074
152.198
403.61
408.404
403.283
403.619
23.0139
148.489
152.47
144.269
144.82
408.133
402.457
37.0225
79.6693
19.3814
21.0817
36.214
84.4796
19.359
93.2113
270.299
90.8628
274.612
37.1856
19.3244
80.1997
21.122
36.9721
19.318
83.4297
89.9361
274.876
269.975
91.2325
36.046
21.2461
83.9884
19.3885
82.8809
19.3907
36.6646
90.826
274.811
268.502
92.9837
36.2285
21.1175
19.3377
83.4559
19.3601
81.2477
37.4207
93.6067
271.034
91.1697
276.131
37.0593
19.3687
82.3821
21.2899
36.0607
19.4053
84.7901
93.0087
269.967
89.4316
276.183
36.2723
21.1913
82.2075
19.4012
80.834
19.4173
37.1457
91.177
275.216
271.178
93.0969
36.0674
21.3035
19.3863
84.4003
19.4066
83.0972
37.0121
89.3254
276.441
271.917
93.0748
146.226
146.541
22.9687
150.464
149.424
403.167
405.761
408.014
405.681
22.7295
150.779
150.168
145.652
141.54
406.036
401.577
35.6262
19.2461
78.6385
21.0537
34.3543
19.2478
82.1441
89.29
265.055
87.2314
273.297
89.2543
266.985
86.1013
273.097
35.198
20.9066
19.2151
82.051
19.226
78.2442
35.6771
34.8109
20.9993
19.2545
82.5567
19.2525
79.893
35.9724
88.1359
273.192
269.219
89.5167
85.383
272.83
268.521
89.7497
407.67
407.935
403.501
406.286
22.9634
151.88
151.042
150.514
144.137
407.039
402.766
405.776
404.345
403.295
405.988
404.555
404.924
146.849
144.758
23.2041
149.334
152.749
406.239
403.574
408.071
407.054
22.9388
148.806
151.912
144.648
149.489
88.6856
266.059
85.041
272.295
35.4715
81.0776
19.2111
20.974
34.1884
82.6209
19.2077
35.1753
79.8498
19.1936
21.0013
34.7385
81.2298
19.1834
88.0085
272.092
264.654
87.3645
85.9209
272.315
266.6
89.0281
34.9373
20.9742
82.0979
19.205
80.484
19.2158
35.5204
34.7216
20.9257
81.3683
19.173
77.1389
19.1912
34.8161
144.024
148.79
23.2376
148.68
151.591
402.874
407.392
406.462
400.641
23.079
149.67
151.595
142.144
146.476
407.667
404.113
37.1253
80.34
19.3659
21.1943
37.0645
85.0447
19.357
92.6207
269.236
90.342
274.573
36.9589
19.3516
82.2424
21.1859
36.1078
19.3428
83.7243
88.0284
273.117
273.613
92.6563
35.4338
21.2025
84.5993
19.3745
80.775
19.375
37.2069
91.091
275.179
271.076
92.807
36.2466
21.0975
19.3571
83.6851
19.3535
81.9554
37.2303
92.6733
266.95
89.791
276.132
36.8814
19.3637
82.7612
21.2818
35.8528
19.3547
84.2906
92.8683
272.604
89.3623
275.626
35.3425
21.2426
84.0301
19.342
80.92
19.3655
36.7928
86.9552
275.159
272.218
92.9752
35.9308
21.3132
19.3761
84.7619
19.379
79.9954
37.0133
89.741
275.291
270.565
92.6597
146.079
147.358
23.0243
151.586
148.947
401
406.185
405.559
405.013
22.7113
152.085
148.972
143.482
146.123
405.926
403.735
35.8804
19.2447
80.9463
21.128
34.4441
19.2466
82.8389
89.7783
268.925
84.6242
272.4
89.5483
265.552
86.4958
273.262
34.6167
21.0384
19.226
82.1902
19.2268
80.0969
35.8958
34.5696
21.123
19.2575
82.0178
19.2617
79.827
35.738
85.4391
272.825
268.559
90.1433
85.0863
272.794
268.924
89.3846
404.179
408.36
400.775
405.33
23.1442
148.884
150.062
148.599
148.698
404.246
403.745
405.869
405.298
404.295
406.257
405.004
407.925
145.365
147.303
23.2585
149.611
151.845
406.429
401.053
407.99
405.061
23.0967
150.137
152.17
142.396
148.786
89.0541
267.494
85.3201
272.537
35.4467
80.1078
19.1927
21.0992
34.5227
82.5961
19.1918
35.596
78.4482
19.1618
21.0401
35.3273
82.0067
19.1533
86.758
271.832
265.051
87.0456
86.6393
272.813
269.213
89.129
34.6496
21.1008
82.8978
19.1915
81.738
19.1869
35.4496
34.7256
20.9527
82.0453
19.1544
77.4081
19.1724
35.4438
143.567
147.779
23.364
149.499
152.148
403.624
408.404
404.096
404.292
23.2073
149.225
152.957
144.751
146.014
407.933
403.099
37.1372
83.058
19.3463
21.138
36.6201
84.4244
19.3273
93.0867
271.772
91.3754
274.952
37.161
19.3267
82.3594
21.0242
36.8353
19.3654
84.3374
90.5709
274.83
267.665
92.6534
36.6701
21.2099
84.0006
19.3382
83.1129
19.3642
37.1169
89.0545
275.601
270.902
92.8834
36.7947
21.2357
19.3364
83.8303
19.3582
80.8174
37.1417
92.3177
270.139
90.4443
276.299
36.7923
19.3561
82.8186
21.1889
36.0257
19.354
84.2852
92.3696
270.405
89.5047
275.305
35.2734
21.3075
82.3176
19.344
80.8164
19.3471
36.6426
89.5856
272.31
270.517
92.7714
35.6246
21.2184
19.3322
84.5364
19.3559
82.864
36.7662
88.6284
276.171
269.88
92.3466
150.091
146.258
23.1255
152.054
149.198
400.987
406.024
407.939
405.513
22.9475
151.758
148.807
148.82
141.353
406.009
403.911
35.634
19.2394
78.612
21.132
34.5788
19.2607
81.8804
89.4442
269.611
86.7727
273.102
89.1054
264.103
86.0792
273.383
35.3454
21.0134
19.2144
82.0035
19.2218
80.8572
35.7366
34.768
21.1407
19.2249
81.9154
19.2489
78.8667
35.643
86.9288
272.456
269.235
89.802
86.0279
272.951
270.355
89.3246
407.203
408.386
402.029
406.562
23.0604
151.808
150.016
148.256
148.217
408.033
407.036
406.145
400.613
403.827
406.404
405.512
408.114
146.987
148.901
23.2735
149.708
151.754
406.64
403.964
405.143
403.132
23.0672
149.849
152.014
145.255
149.76
89.0859
265.481
87.1653
272.834
35.4011
80.5997
19.1773
21.0212
34.8776
82.2841
19.1704
35.2649
80.2668
19.1309
20.9305
34.612
81.4116
19.1489
88.056
269.299
267.731
88.2507
87.7212
273.426
269.006
89.3559
33.9907
21.1234
81.9756
19.1692
79.2577
19.1643
35.4788
34.5028
20.9506
81.1282
19.1399
80.1103
19.1436
35.4896
143.298
149.884
23.2303
149.532
151.339
402.782
407.685
405.061
400.509
23.0479
149.067
151.453
145.584
148.946
406.165
403.921
37.0379
82.7574
19.3479
21.2571
35.9429
83.6808
19.3294
92.4553
268.12
88.6092
275.912
37.0309
19.3559
81.6223
21.0442
36.6894
19.3525
84.3737
89.6184
271.161
267.376
91.1691
36.3551
21.28
84.4401
19.3576
82.2306
19.3699
37.2624
88.9654
275.999
266.809
93.0438
36.0668
21.2599
19.3182
84.0876
19.3379
82.8178
37.1067
92.8098
273.034
87.2191
276.157
36.7106
19.3122
79.6791
21.2847
35.5802
19.2963
84.7885
92.4059
272.567
88.7037
275.424
36.0788
21.0702
84.2047
19.3208
81.0263
19.3056
36.1317
90.7046
274.243
271.102
92.6034
36.0611
21.2915
19.2949
84.3618
19.3206
82.9282
37.0106
89.7342
276.018
267.223
92.9254
147.112
144.343
23.119
151.44
150.105
401.061
405.591
408.125
403.033
22.7827
152.581
149.983
148.667
147.17
406.268
404.669
35.7853
19.2285
77.7979
20.96
34.4171
19.2241
82.2721
89.8552
264.923
87.3768
270.581
89.8045
270.63
87.4048
273.392
35.3349
21.0124
19.2024
82.066
19.2071
77.9898
35.1848
34.9481
20.953
19.2216
82.5701
19.2149
80.3612
35.9407
87.5183
273.441
272.094
89.9582
85.8062
272.929
270.186
90.2518
406.729
408.286
404.117
405.55
22.8973
152.687
149.965
145.782
143.676
407.414
406.269
406.577
405.005
403.691
403.464
407.596
408.662
147.195
150
23.3015
150.688
151.971
406.2
405.545
408.547
407.144
23.1518
149.946
152.069
147.348
149.918
89.17
268.104
86.0763
272.024
35.5161
78.7278
19.1515
20.962