/*--------------------------------*- C++ -*----------------------------------*\
| =========                 |                                                 |
| \\      /  F ield         | OpenFOAM: The Open Source CFD Toolbox           |
|  \\    /   O peration     | Version:  2206                                  |
|   \\  /    A nd           | Website:  www.openfoam.com                      |
|    \\/     M anipulation  |                                                 |
\*---------------------------------------------------------------------------*/
FoamFile
{
    version     2.0;
    format      ascii;
    arch        "LSB;label=32;scalar=64";
    class       volScalarField;
    location    "60";
    object      k;
}
// * * * * * * * * * * * * * * * * * * * * * * * * * * * * * * * * * * * * * //

dimensions      [0 2 -2 0 0 0 0];

internalField   nonuniform List<scalar> 
66940
(
2.22024e-05
2.94696e-05
2.90941e-05
2.86741e-05
2.21231e-05
2.94201e-05
2.92993e-05
2.85672e-05
2.21225e-05
2.94416e-05
2.9285e-05
2.88013e-05
2.21493e-05
2.92984e-05
2.92909e-05
2.86223e-05
2.21269e-05
2.92634e-05
2.92147e-05
2.87972e-05
2.22044e-05
2.94364e-05
2.92978e-05
2.87491e-05
2.22338e-05
2.9488e-05
2.91724e-05
2.87943e-05
2.22652e-05
2.92506e-05
2.9214e-05
2.88633e-05
2.22714e-05
2.94729e-05
2.93039e-05
2.87196e-05
2.23214e-05
2.94038e-05
2.91934e-05
2.88921e-05
2.22265e-05
2.94591e-05
2.94649e-05
2.89604e-05
2.41006e-05
2.99092e-05
2.99662e-05
2.86423e-05
2.88241e-05
2.9062e-05
2.91764e-05
2.89744e-05
2.92032e-05
2.95834e-05
2.92568e-05
2.93001e-05
2.91844e-05
2.92775e-05
2.91501e-05
2.87314e-05
2.8755e-05
2.88035e-05
2.91119e-05
2.90508e-05
2.90082e-05
2.92314e-05
2.87868e-05
2.88549e-05
2.92566e-05
2.94234e-05
2.92662e-05
2.95784e-05
2.91646e-05
2.93529e-05
2.93357e-05
2.91767e-05
2.89504e-05
2.89282e-05
2.90963e-05
2.90658e-05
2.87166e-05
2.86297e-05
2.88268e-05
2.89246e-05
2.92362e-05
2.92055e-05
2.92231e-05
2.87894e-05
2.89639e-05
2.91543e-05
2.96089e-05
2.90653e-05
2.95873e-05
2.92791e-05
2.94703e-05
2.92839e-05
2.8859e-05
2.90581e-05
2.89618e-05
2.9303e-05
2.91569e-05
2.87729e-05
2.88309e-05
2.8653e-05
2.92112e-05
2.91098e-05
2.90055e-05
2.91584e-05
2.8996e-05
2.90186e-05
2.90344e-05
2.95781e-05
2.91996e-05
2.96217e-05
2.92686e-05
2.95395e-05
2.93462e-05
2.90881e-05
2.89329e-05
2.91708e-05
2.92959e-05
2.87603e-05
2.88705e-05
2.84394e-05
2.85602e-05
2.9e-05
2.91124e-05
2.92014e-05
2.93661e-05
2.88701e-05
2.8995e-05
2.92345e-05
2.96405e-05
2.91567e-05
2.94971e-05
2.92955e-05
2.94457e-05
2.92791e-05
2.90989e-05
2.90501e-05
2.89438e-05
2.92403e-05
2.89986e-05
2.87706e-05
2.87567e-05
2.88258e-05
2.92253e-05
2.92165e-05
2.91499e-05
2.93334e-05
2.90062e-05
2.90945e-05
2.913e-05
2.95799e-05
2.92526e-05
2.9676e-05
2.91363e-05
2.94713e-05
2.92185e-05
2.88302e-05
2.92162e-05
2.90512e-05
2.92679e-05
2.91225e-05
2.85652e-05
2.87963e-05
2.8908e-05
2.91587e-05
2.93519e-05
2.91493e-05
2.91922e-05
2.89173e-05
2.86838e-05
2.89936e-05
2.95491e-05
2.91882e-05
2.96043e-05
2.92683e-05
2.94866e-05
2.92607e-05
2.91474e-05
2.91323e-05
2.89548e-05
2.92878e-05
2.90125e-05
2.8738e-05
2.89395e-05
2.89364e-05
2.91575e-05
2.92103e-05
2.90066e-05
2.93435e-05
2.88619e-05
2.89461e-05
2.91944e-05
2.95802e-05
2.93123e-05
2.96072e-05
2.90865e-05
2.94853e-05
2.93044e-05
2.90936e-05
2.91314e-05
2.91837e-05
2.92879e-05
2.89144e-05
2.89002e-05
2.87917e-05
2.87792e-05
2.92558e-05
2.93616e-05
2.90919e-05
2.93966e-05
2.87526e-05
2.87743e-05
2.93358e-05
2.94037e-05
2.93311e-05
2.95113e-05
2.93071e-05
2.94398e-05
2.92475e-05
2.90249e-05
2.91284e-05
2.9025e-05
2.94804e-05
2.89014e-05
2.86725e-05
2.87173e-05
2.86417e-05
2.93305e-05
2.92199e-05
2.90999e-05
2.92289e-05
2.88838e-05
2.91398e-05
2.9173e-05
2.94717e-05
2.91099e-05
2.96685e-05
2.9252e-05
2.91709e-05
2.9204e-05
2.89275e-05
2.90952e-05
2.88609e-05
2.9311e-05
2.9129e-05
2.88693e-05
2.88483e-05
2.91256e-05
2.92654e-05
2.91163e-05
2.93942e-05
2.93948e-05
2.91544e-05
2.92844e-05
2.93293e-05
2.96899e-05
2.94062e-05
2.96814e-05
2.90202e-05
2.95035e-05
2.92809e-05
2.91612e-05
2.92147e-05
2.90997e-05
2.95016e-05
2.92005e-05
2.89292e-05
2.91818e-05
2.92328e-05
2.93188e-05
2.92727e-05
2.98498e-05
2.98476e-05
2.93226e-05
2.90829e-05
2.93724e-05
2.9615e-05
2.97828e-05
2.9976e-05
2.927e-05
2.98423e-05
2.9721e-05
2.92571e-05
2.94429e-05
2.90639e-05
2.9858e-05
2.95719e-05
2.91216e-05
2.87498e-05
2.98263e-05
2.98525e-05
2.85812e-05
2.97589e-05
3.00843e-05
2.42744e-05
2.42163e-05
2.40785e-05
2.97042e-05
2.899e-05
2.96786e-05
6.5285e-06
2.21827e-05
2.23066e-05
2.23789e-05
2.2341e-05
2.90561e-05
2.92397e-05
2.51208e-05
2.69043e-05
2.87519e-05
1.5163e-05
1.51912e-05
2.47601e-05
1.0242e-05
2.46225e-05
1.02411e-05
6.48471e-06
6.50637e-06
2.45046e-05
1.00961e-05
2.44496e-05
1.01724e-05
2.22819e-05
2.23049e-05
2.23262e-05
2.22034e-05
2.22332e-05
2.21917e-05
2.23596e-05
2.89057e-05
2.50296e-05
2.70428e-05
2.93331e-05
2.91259e-05
2.53109e-05
2.70605e-05
6.60867e-06
6.61582e-06
2.82956e-05
2.65527e-05
2.5253e-05
2.93178e-05
2.83687e-05
2.66798e-05
2.49075e-05
1.5058e-05
1.52638e-05
2.89046e-05
1.51209e-05
1.52461e-05
2.4939e-05
1.03087e-05
2.48235e-05
1.03182e-05
6.47858e-06
6.46236e-06
2.43998e-05
1.00843e-05
2.44044e-05
1.01403e-05
2.22595e-05
2.22695e-05
2.23341e-05
2.21661e-05
2.22358e-05
2.22703e-05
2.23006e-05
2.91946e-05
2.52573e-05
2.7027e-05
2.94303e-05
2.92258e-05
2.52985e-05
2.70286e-05
6.62564e-06
6.57068e-06
2.85486e-05
2.67405e-05
2.51692e-05
2.92558e-05
2.84798e-05
2.67405e-05
2.50987e-05
1.50469e-05
1.53328e-05
2.87373e-05
1.50769e-05
1.52746e-05
2.4504e-05
1.03242e-05
2.50154e-05
1.03171e-05
6.51875e-06
6.51961e-06
2.44146e-05
1.00891e-05
2.42496e-05
1.00904e-05
2.22484e-05
2.22861e-05
2.22897e-05
2.21488e-05
2.22775e-05
2.22451e-05
2.22854e-05
2.91046e-05
2.48931e-05
2.68893e-05
2.94931e-05
2.90222e-05
2.50366e-05
2.70306e-05
6.61092e-06
6.57795e-06
2.88102e-05
2.67604e-05
2.51535e-05
2.93422e-05
2.88028e-05
2.67856e-05
2.51774e-05
1.49138e-05
1.53441e-05
2.86346e-05
1.49898e-05
1.53674e-05
2.47826e-05
1.02487e-05
2.47417e-05
1.02552e-05
6.54011e-06
6.54708e-06
2.43651e-05
1.01105e-05
2.43283e-05
1.00589e-05
2.22592e-05
2.22939e-05
2.22672e-05
2.21167e-05
2.22899e-05
2.23147e-05
2.22702e-05
2.92514e-05
2.493e-05
2.69883e-05
2.94101e-05
2.9256e-05
2.51711e-05
2.70071e-05
6.60896e-06
6.57092e-06
2.84609e-05
2.67391e-05
2.49481e-05
2.92309e-05
2.84529e-05
2.67548e-05
2.50193e-05
1.51082e-05
1.5208e-05
2.87967e-05
1.49053e-05
1.53456e-05
2.48301e-05
1.0282e-05
2.45106e-05
1.03557e-05
6.55213e-06
6.53626e-06
2.40035e-05
1.00694e-05
2.39594e-05
1.0044e-05
2.22949e-05
2.22535e-05
2.22604e-05
2.2206e-05
2.23317e-05
2.23317e-05
2.23185e-05
2.92724e-05
2.52138e-05
2.68828e-05
2.93933e-05
2.93482e-05
2.5219e-05
2.69874e-05
6.5789e-06
6.5477e-06
2.86869e-05
2.6748e-05
2.49163e-05
2.90585e-05
2.86422e-05
2.67469e-05
2.47369e-05
1.5108e-05
1.53926e-05
2.88246e-05
1.50023e-05
1.53344e-05
2.53663e-05
1.0363e-05
2.48877e-05
1.03698e-05
6.56124e-06
6.5799e-06
2.417e-05
1.00726e-05
2.40906e-05
1.00213e-05
2.23296e-05
2.23385e-05
2.23106e-05
2.22361e-05
2.23533e-05
2.23751e-05
2.23221e-05
2.90063e-05
2.51378e-05
2.69878e-05
2.92855e-05
2.92424e-05
2.45836e-05
2.69513e-05
6.56497e-06
6.54732e-06
2.90316e-05
2.67239e-05
2.48337e-05
2.92799e-05
2.88919e-05
2.67335e-05
2.53424e-05
1.50761e-05
1.5413e-05
2.88944e-05
1.48317e-05
1.53912e-05
2.52207e-05
1.02846e-05
2.51427e-05
1.02649e-05
6.5478e-06
6.53836e-06
2.37518e-05
1.00427e-05
2.37491e-05
9.94359e-06
2.23495e-05
2.23723e-05
2.23142e-05
2.21979e-05
2.23668e-05
2.23807e-05
2.23521e-05
2.91248e-05
2.49151e-05
2.70724e-05
2.94341e-05
2.91517e-05
2.505e-05
2.70068e-05
6.55932e-06
6.56347e-06
2.90053e-05
2.67176e-05
2.54467e-05
2.93769e-05
2.88954e-05
2.67223e-05
2.52215e-05
1.50788e-05
1.53626e-05
2.87152e-05
1.49733e-05
1.52683e-05
2.48611e-05
1.02446e-05
2.49302e-05
1.02649e-05
6.54151e-06
6.53404e-06
2.4099e-05
9.95651e-06
2.37733e-05
9.99731e-06
2.2358e-05
2.23878e-05
2.23265e-05
2.22405e-05
2.23568e-05
2.23765e-05
2.2273e-05
2.91004e-05
2.49827e-05
2.70748e-05
2.94003e-05
2.88444e-05
2.4791e-05
2.70894e-05
6.52807e-06
6.52593e-06
2.88309e-05
2.68911e-05
2.53641e-05
2.94384e-05
2.92136e-05
2.68064e-05
2.51231e-05
1.49082e-05
1.51841e-05
2.85904e-05
1.49845e-05
1.51628e-05
2.48975e-05
1.0296e-05
2.51103e-05
1.02794e-05
6.51007e-06
6.51869e-06
2.40173e-05
9.98391e-06
2.37284e-05
9.97923e-06
2.23737e-05
2.24066e-05
2.22971e-05
2.22586e-05
2.23218e-05
2.2397e-05
2.22871e-05
2.90134e-05
2.51762e-05
2.70977e-05
2.94052e-05
2.88213e-05
2.48741e-05
2.71012e-05
6.50999e-06
6.52747e-06
2.92078e-05
2.6957e-05
2.53342e-05
2.94601e-05
2.88719e-05
2.68922e-05
2.49806e-05
1.4987e-05
1.51668e-05
2.85927e-05
1.49986e-05
1.51998e-05
2.49222e-05
1.03522e-05
2.49403e-05
1.03424e-05
6.56395e-06
6.59849e-06
2.40287e-05
1.00289e-05
2.4094e-05
9.98863e-06
2.2386e-05
2.24583e-05
2.23399e-05
2.22419e-05
2.23005e-05
2.23056e-05
2.22394e-05
2.90327e-05
2.49096e-05
2.70491e-05
2.94262e-05
2.86548e-05
2.46712e-05
2.70542e-05
6.52453e-06
6.5699e-06
2.91387e-05
2.69155e-05
2.5182e-05
2.94284e-05
2.9124e-05
2.68724e-05
2.52566e-05
1.47736e-05
1.51449e-05
2.86919e-05
1.49783e-05
1.52637e-05
2.39925e-05
1.04445e-05
2.41486e-05
1.02197e-05
6.63491e-06
6.71958e-06
2.40144e-05
1.01982e-05
2.40284e-05
1.00461e-05
2.22644e-05
2.24022e-05
2.22145e-05
2.44444e-05
2.45209e-05
2.45443e-05
2.43932e-05
2.86136e-05
2.52129e-05
2.70678e-05
2.96667e-05
2.87562e-05
2.48282e-05
2.69087e-05
6.62711e-06
6.77153e-06
2.8208e-05
2.71811e-05
2.5049e-05
2.96526e-05
2.85347e-05
2.71837e-05
2.42199e-05
1.51774e-05
1.5359e-05
2.89e-05
1.48107e-05
1.51332e-05
1.8107e-05
2.32412e-06
1.86553e-05
6.34635e-06
3.31028e-06
5.23976e-06
1.79854e-05
2.30175e-06
1.85487e-05
6.23841e-06
1.78904e-05
2.00146e-05
1.9893e-05
2.52093e-05
1.72673e-05
2.12917e-05
2.1112e-05
2.47684e-05
1.54023e-05
2.74174e-05
2.92589e-05
2.53709e-05
1.28107e-05
2.7141e-05
3.32248e-06
5.26563e-06
2.47173e-05
2.77573e-05
1.51455e-05
2.94156e-05
2.48209e-05
2.74015e-05
1.26081e-05
9.6653e-06
9.63947e-06
2.85875e-05
8.7522e-06
8.71723e-06
6.51802e-06
6.44544e-06
6.40825e-06
6.38188e-06
2.885e-05
1.53467e-05
1.51818e-05
1.52857e-05
1.50886e-05
1.0304e-05
2.89778e-05
2.46127e-05
2.42656e-05
1.03386e-05
1.02681e-05
2.48217e-05
2.45773e-05
1.02521e-05
1.0282e-05
2.50037e-05
2.85216e-05
2.90837e-05
2.49652e-05
2.64709e-05
2.49446e-05
2.65328e-05
2.87361e-05
2.90275e-05
2.90973e-05
2.44692e-05
2.65888e-05
2.45368e-05
2.65601e-05
2.88764e-05
2.87824e-05
1.53637e-05
1.56021e-05
6.55675e-06
6.51982e-06
6.52442e-06
2.87681e-05
1.54438e-05
1.56634e-05
1.54885e-05
1.56525e-05
6.59912e-06
6.59741e-06
2.44536e-05
1.01524e-05
1.00781e-05
2.44616e-05
2.90224e-05
2.92059e-05
2.48517e-05
2.68014e-05
2.47928e-05
2.68272e-05
2.90079e-05
2.45429e-05
1.04089e-05
1.04031e-05
2.45961e-05
2.87948e-05
2.95931e-05
2.69754e-05
2.53108e-05
2.6944e-05
2.54084e-05
2.92043e-05
2.48223e-05
1.03332e-05
2.91194e-05
2.94474e-05
2.69116e-05
2.46813e-05
2.47566e-05
1.00542e-05
2.88519e-05
2.93805e-05
2.53319e-05
2.70436e-05
2.52473e-05
2.70341e-05
2.92085e-05
2.48035e-05
1.04152e-05
1.03811e-05
2.48051e-05
2.91591e-05
2.94479e-05
2.69202e-05
2.4321e-05
2.6902e-05
2.44966e-05
2.90131e-05
2.50205e-05
1.01252e-05
1.00733e-05
2.4869e-05
6.58958e-06
6.58397e-06
2.90655e-05
1.5608e-05
1.56568e-05
1.55181e-05
1.55624e-05
6.63163e-06
6.56243e-06
2.81981e-05
2.9313e-05
2.66043e-05
2.49243e-05
2.65903e-05
2.51132e-05
2.83972e-05
2.80969e-05
2.92142e-05
2.65663e-05
2.47081e-05
2.65309e-05
2.45749e-05
2.85207e-05
2.35591e-05
1.04952e-05
1.03057e-05
2.39136e-05
2.38492e-05
1.02115e-05
1.01298e-05
2.42751e-05
6.36743e-06
6.45376e-06
2.86798e-05
1.51969e-05
1.53837e-05
1.51496e-05
1.54409e-05
6.38605e-06
6.40623e-06
6.47405e-06
6.46993e-06
6.51601e-06
6.50208e-06
6.4289e-06
6.44071e-06
1.53928e-05
1.52493e-05
2.87012e-05
1.54143e-05
1.52672e-05
6.51378e-06
6.48717e-06
6.45185e-06
6.45094e-06
2.87544e-05
1.53916e-05
1.52772e-05
1.5301e-05
1.52418e-05
2.50631e-05
1.03207e-05
2.48548e-05
1.02701e-05
2.90077e-05
2.46027e-05
2.65988e-05
2.90489e-05
2.86158e-05
2.48949e-05
2.65934e-05
2.88633e-05
2.47872e-05
2.66105e-05
2.92426e-05
2.88875e-05
2.48813e-05
2.65317e-05
2.45621e-05
1.03543e-05
1.03294e-05
2.4885e-05
2.51417e-05
1.01839e-05
1.02497e-05
2.46669e-05
2.8654e-05
2.90752e-05
2.47752e-05
2.65973e-05
2.49363e-05
2.66235e-05
2.90223e-05
2.87129e-05
2.92626e-05
2.48066e-05
2.65777e-05
2.47962e-05
2.66288e-05
2.88729e-05
1.52895e-05
1.5678e-05
2.86959e-05
1.54295e-05
1.56727e-05
6.62569e-06
6.60743e-06
6.49079e-06
6.51242e-06
2.88887e-05
1.53967e-05
1.573e-05
1.54779e-05
1.5613e-05
6.61465e-06
6.60187e-06
2.88092e-05
2.49524e-05
2.69408e-05
2.92432e-05
2.90409e-05
2.49268e-05
2.68375e-05
2.4692e-05
1.04612e-05
2.47064e-05
1.04266e-05
2.9215e-05
2.69417e-05
2.5297e-05
2.94114e-05
2.9182e-05
2.69551e-05
2.51984e-05
2.44687e-05
1.0149e-05
1.02117e-05
2.43046e-05
2.90309e-05
2.92288e-05
2.50107e-05
2.67307e-05
2.492e-05
2.68005e-05
2.86382e-05
2.45145e-05
1.02878e-05
1.04792e-05
2.42893e-05
2.92474e-05
2.93464e-05
2.69348e-05
2.50336e-05
2.69783e-05
2.49923e-05
2.90752e-05
2.48887e-05
1.04701e-05
2.45263e-05
1.03552e-05
2.88453e-05
2.69107e-05
2.46909e-05
2.93535e-05
2.91038e-05
2.69537e-05
2.45931e-05
2.487e-05
1.01878e-05
2.49271e-05
1.01623e-05
2.90729e-05
2.91586e-05
2.53098e-05
2.70658e-05
2.53142e-05
2.70603e-05
2.92091e-05
2.49813e-05
1.03911e-05
1.03712e-05
2.47382e-05
2.87782e-05
2.93809e-05
2.69945e-05
2.47099e-05
2.69778e-05
2.44181e-05
2.92122e-05
2.49632e-05
1.00286e-05
1.01833e-05
2.49308e-05
1.56807e-05
1.5785e-05
2.9168e-05
1.56562e-05
1.56166e-05
6.62815e-06
6.59197e-06
6.6142e-06
6.62602e-06
2.91222e-05
1.56559e-05
1.57042e-05
1.57037e-05
1.56922e-05
6.57607e-06
6.59258e-06
2.84397e-05
2.65206e-05
2.47645e-05
2.8967e-05
2.81945e-05
2.66394e-05
2.46175e-05
2.3949e-05
1.0532e-05
2.42923e-05
1.03271e-05
2.40964e-05
1.02659e-05
2.41484e-05
1.02629e-05
2.85843e-05
2.92695e-05
2.66258e-05
2.51706e-05
2.66752e-05
2.48053e-05
2.84495e-05
2.81398e-05
2.90575e-05
2.65986e-05
2.48825e-05
2.66306e-05
2.48004e-05
2.81548e-05
2.41753e-05
1.03264e-05
1.04121e-05
2.41021e-05
2.44495e-05
1.02828e-05
1.02781e-05
2.43468e-05
6.37352e-06
6.40958e-06
6.46189e-06
6.47888e-06
2.88372e-05
1.51877e-05
1.53877e-05
1.52359e-05
1.54262e-05
6.39938e-06
6.41881e-06
6.48257e-06
6.48197e-06
6.48776e-06
6.49785e-06
6.46559e-06
6.46388e-06
1.53776e-05
1.53548e-05
2.86371e-05
1.52755e-05
1.53533e-05
6.49895e-06
6.51002e-06
6.47909e-06
6.49462e-06
2.88363e-05
1.54463e-05
1.54096e-05
1.54732e-05
1.54445e-05
2.48415e-05
1.02864e-05
2.48516e-05
1.02589e-05
2.8993e-05
2.45879e-05
2.64878e-05
2.9153e-05
2.90059e-05
2.49474e-05
2.65994e-05
2.85948e-05
2.48196e-05
2.65682e-05
2.9211e-05
2.85457e-05
2.46658e-05
2.65776e-05
2.49967e-05
1.03653e-05
1.03265e-05
2.5038e-05
2.46837e-05
1.02939e-05
1.02865e-05
2.4658e-05
2.90816e-05
2.91786e-05
2.50077e-05
2.66656e-05
2.49377e-05
2.66384e-05
2.89445e-05
2.86465e-05
2.92563e-05
2.44948e-05
2.66016e-05
2.46704e-05
2.65874e-05
2.90422e-05
1.53636e-05
1.56457e-05
2.90826e-05
1.5361e-05
1.56455e-05
6.62055e-06
6.60807e-06
6.51164e-06
6.45899e-06
2.90787e-05
1.5448e-05
1.56802e-05
1.53276e-05
1.571e-05
6.61053e-06
6.62005e-06
2.89502e-05
2.50345e-05
2.6849e-05
2.91822e-05
2.89209e-05
2.46938e-05
2.68751e-05
2.43436e-05
1.03609e-05
2.46244e-05
1.03432e-05
2.91833e-05
2.69494e-05
2.51926e-05
2.96462e-05
2.90557e-05
2.69116e-05
2.49337e-05
2.456e-05
1.01079e-05
1.01986e-05
2.45129e-05
2.90527e-05
2.90579e-05
2.45372e-05
2.67806e-05
2.47246e-05
2.68616e-05
2.88934e-05
2.46983e-05
1.03785e-05
1.03842e-05
2.43803e-05
2.89629e-05
2.95349e-05
2.69997e-05
2.51625e-05
2.68656e-05
2.52975e-05
2.86745e-05
2.47011e-05
1.04171e-05
2.46246e-05
1.03163e-05
2.88588e-05
2.69477e-05
2.47193e-05
2.90788e-05
2.92247e-05
2.69368e-05
2.46393e-05
2.46392e-05
1.0112e-05
2.47762e-05
1.0067e-05
2.89818e-05
2.94216e-05
2.50793e-05
2.69531e-05
2.50331e-05
2.70244e-05
2.92902e-05
2.46786e-05
1.0307e-05
1.03599e-05
2.48367e-05
2.91266e-05
2.92828e-05
2.68279e-05
2.44759e-05
2.68454e-05
2.46805e-05
2.91677e-05
2.50044e-05
1.0007e-05
1.00628e-05
2.48214e-05
1.57489e-05
1.57086e-05
2.88436e-05
1.56138e-05
1.57239e-05
6.58913e-06
6.58462e-06
6.58397e-06
6.59407e-06
2.90127e-05
1.55279e-05
1.5599e-05
1.55826e-05
1.57866e-05
6.60144e-06
6.61238e-06
2.85763e-05
2.6566e-05
2.45615e-05
2.89051e-05
2.85414e-05
2.66954e-05
2.4809e-05
2.44891e-05
1.04122e-05
2.43519e-05
1.02787e-05
2.43769e-05
1.02815e-05
2.44389e-05
1.0252e-05
2.84597e-05
2.92907e-05
2.67762e-05
2.53488e-05
2.66629e-05
2.49684e-05
2.87818e-05
2.85614e-05
2.91336e-05
2.66933e-05
2.49276e-05
2.66576e-05
2.48102e-05
2.85457e-05
2.45599e-05
1.04346e-05
1.04168e-05
2.44421e-05
2.44009e-05
1.02369e-05
1.02365e-05
2.43336e-05
6.38563e-06
6.34881e-06
6.47865e-06
6.47006e-06
2.87502e-05
1.49903e-05
1.53994e-05
1.5116e-05
1.53873e-05
6.33933e-06
6.354e-06
6.4899e-06
6.45966e-06
6.52482e-06
6.48898e-06
6.47935e-06
6.47275e-06
1.53591e-05
1.53377e-05
2.87859e-05
1.53365e-05
1.53773e-05
6.53968e-06
6.51711e-06
6.46566e-06
6.45723e-06
2.85776e-05
1.54899e-05
1.53449e-05
1.54888e-05
1.5369e-05
2.50828e-05
1.03586e-05
2.50415e-05
1.03308e-05
2.86446e-05
2.47515e-05
2.66632e-05
2.92176e-05
2.8825e-05
2.50521e-05
2.67013e-05
2.91614e-05
2.48828e-05
2.65966e-05
2.91108e-05
2.90948e-05
2.49413e-05
2.66504e-05
2.48666e-05
1.03249e-05
1.02634e-05
2.47554e-05
2.49529e-05
1.03743e-05
1.03175e-05
2.49778e-05
2.89426e-05
2.91587e-05
2.51875e-05
2.66032e-05
2.51764e-05
2.67205e-05
2.84885e-05
2.90614e-05
2.91228e-05
2.48828e-05
2.67308e-05
2.49309e-05
2.67079e-05
2.89747e-05
1.54958e-05
1.57739e-05
2.89932e-05
1.53949e-05
1.5583e-05
6.62697e-06
6.54967e-06
6.55304e-06
6.52936e-06
2.90285e-05
1.54737e-05
1.56051e-05
1.55331e-05
1.5546e-05
6.57189e-06
6.56064e-06
2.89083e-05
2.49147e-05
2.69044e-05
2.9275e-05
2.8497e-05
2.48467e-05
2.69044e-05
2.42498e-05
1.04181e-05
2.43138e-05
1.02904e-05
2.89828e-05
2.69424e-05
2.5293e-05
2.95681e-05
2.90137e-05
2.6822e-05
2.52137e-05
2.45195e-05
1.01045e-05
1.01161e-05
2.43596e-05
2.86435e-05
2.91764e-05
2.48607e-05
2.68103e-05
2.4835e-05
2.69281e-05
2.88884e-05
2.45617e-05
1.02628e-05
1.04182e-05
2.42237e-05
2.89493e-05
2.96191e-05
2.69678e-05
2.53039e-05
2.69264e-05
2.51904e-05
2.90656e-05
2.48798e-05
1.0351e-05
2.46321e-05
1.02775e-05
2.91151e-05
2.68254e-05
2.45573e-05
2.93112e-05
2.90745e-05
2.68421e-05
2.45672e-05
2.48235e-05
1.00582e-05
2.47198e-05
1.00186e-05
2.90998e-05
2.95102e-05
2.52065e-05
2.70225e-05
2.4949e-05
2.7009e-05
2.89036e-05
2.48608e-05
1.03356e-05
1.03219e-05
2.47775e-05
2.88509e-05
2.93351e-05
2.69417e-05
2.44599e-05
2.68509e-05
2.46574e-05
2.89248e-05
2.45746e-05
1.0047e-05
1.00076e-05
2.47776e-05
1.56718e-05
1.58197e-05
2.90332e-05
1.5512e-05
1.57353e-05
6.62854e-06
6.62515e-06
6.5963e-06
6.59996e-06
2.89568e-05
1.56986e-05
1.57283e-05
1.57033e-05
1.57317e-05
6.61852e-06
6.59134e-06
2.86625e-05
2.66937e-05
2.48643e-05
2.90938e-05
2.82121e-05
2.66918e-05
2.46384e-05
2.42753e-05
1.04504e-05
2.44287e-05
1.04607e-05
2.45693e-05
1.03155e-05
2.4325e-05
1.01779e-05
2.85903e-05
2.91343e-05
2.66613e-05
2.50503e-05
2.67902e-05
2.49467e-05
2.84951e-05
2.87303e-05
2.89258e-05
2.66213e-05
2.46596e-05
2.66576e-05
2.44964e-05
2.8472e-05
2.46343e-05
1.04493e-05
1.04846e-05
2.44029e-05
2.45845e-05
1.01903e-05
1.02323e-05
2.45398e-05
6.34144e-06
6.33892e-06
6.47387e-06
6.46121e-06
2.85738e-05
1.5112e-05
1.53573e-05
1.49954e-05
1.52585e-05
6.35993e-06
6.34741e-06
6.46697e-06
6.46548e-06
6.54679e-06
6.55121e-06
6.47648e-06
6.45678e-06
1.55542e-05
1.52889e-05
2.85173e-05
1.5538e-05
1.53588e-05
6.56289e-06
6.56394e-06
6.46222e-06
6.47235e-06
2.87261e-05
1.55734e-05
1.53483e-05
1.55834e-05
1.54265e-05
2.47754e-05
1.04213e-05
2.50024e-05
1.03663e-05
2.84688e-05
2.52353e-05
2.66785e-05
2.89535e-05
2.87978e-05
2.49041e-05
2.662e-05
2.8378e-05
2.47862e-05
2.67407e-05
2.93336e-05
2.86308e-05
2.50415e-05
2.67295e-05
2.4719e-05
1.03031e-05
1.03482e-05
2.46791e-05
2.47191e-05
1.03832e-05
1.03278e-05
2.46525e-05
2.83847e-05
2.91725e-05
2.49309e-05
2.67333e-05
2.49009e-05
2.67225e-05
2.84382e-05
2.86791e-05
2.9353e-05
2.4824e-05
2.67511e-05
2.50805e-05
2.67249e-05
2.81173e-05
1.54037e-05
1.56762e-05
2.90118e-05
1.5346e-05
1.55786e-05
6.59217e-06
6.54257e-06
6.55347e-06
6.53452e-06
2.89673e-05
1.54816e-05
1.54449e-05
1.55429e-05
1.55632e-05
6.53891e-06
6.55149e-06
2.90161e-05
2.48876e-05
2.68913e-05
2.89805e-05
2.899e-05
2.48329e-05
2.69238e-05
2.43022e-05
1.03052e-05
2.45836e-05
1.02809e-05
2.91669e-05
2.69895e-05
2.5239e-05
2.95995e-05
2.88669e-05
2.69377e-05
2.5235e-05
2.45215e-05
1.0135e-05
1.00959e-05
2.41167e-05
2.90877e-05
2.91335e-05
2.46648e-05
2.69301e-05
2.48661e-05
2.69101e-05
2.90241e-05
2.47037e-05
1.02781e-05
1.03576e-05
2.42444e-05
2.91621e-05
2.96367e-05
2.70208e-05
2.50405e-05
2.68824e-05
2.52878e-05
2.87005e-05
2.445e-05
1.03833e-05
2.46388e-05
1.02085e-05
2.9235e-05
2.69426e-05
2.42862e-05
2.93044e-05
2.92406e-05
2.68446e-05
2.46342e-05
2.44688e-05
1.00872e-05
2.47111e-05
1.0097e-05
2.93408e-05
2.92262e-05
2.49568e-05
2.70197e-05
2.49976e-05
2.70056e-05
2.93598e-05
2.48895e-05
1.03028e-05
1.0307e-05
2.45855e-05
2.9194e-05
2.92533e-05
2.69403e-05
2.44465e-05
2.69506e-05
2.44861e-05
2.91824e-05
2.47141e-05
1.00468e-05
1.01551e-05
2.46315e-05
1.57626e-05
1.55846e-05
2.89454e-05
1.56996e-05
1.56704e-05
6.59647e-06
6.60224e-06
6.56884e-06
6.59326e-06
2.91641e-05
1.56212e-05
1.54979e-05
1.56098e-05
1.55548e-05
6.5727e-06
6.60051e-06
2.8687e-05
2.67366e-05
2.45178e-05
2.89506e-05
2.83262e-05
2.6653e-05
2.47331e-05
2.45706e-05
1.04676e-05
2.42304e-05
1.04142e-05
2.43519e-05
1.01561e-05
2.45582e-05
1.02227e-05
2.83247e-05
2.90373e-05
2.67512e-05
2.50272e-05
2.67313e-05
2.49589e-05
2.83468e-05
2.8334e-05
2.8995e-05
2.67171e-05
2.45539e-05
2.67388e-05
2.46552e-05
2.87031e-05
2.45674e-05
1.0313e-05
1.03665e-05
2.46228e-05
2.46762e-05
1.0212e-05
1.022e-05
2.4572e-05
6.34919e-06
6.35643e-06
6.45412e-06
6.44455e-06
2.87734e-05
1.49601e-05
1.53877e-05
1.51032e-05
1.53925e-05
6.36439e-06
6.3741e-06
6.49256e-06
6.48102e-06
6.56734e-06
6.57051e-06
6.454e-06
6.42175e-06
1.56172e-05
1.52279e-05
2.87962e-05
1.55676e-05
1.51418e-05
6.5678e-06
6.57004e-06
6.43554e-06
6.43963e-06
2.86814e-05
1.54488e-05
1.53283e-05
1.55891e-05
1.51919e-05
2.45789e-05
1.03662e-05
2.47044e-05
1.04037e-05
2.86771e-05
2.50142e-05
2.67414e-05
2.92218e-05
2.87231e-05
2.50424e-05
2.6744e-05
2.84643e-05
2.52434e-05
2.67603e-05
2.92743e-05
2.83683e-05
2.49689e-05
2.6679e-05
2.47725e-05
1.04046e-05
1.03638e-05
2.50286e-05
2.48597e-05
1.03963e-05
1.03567e-05
2.50664e-05
2.87156e-05
2.92211e-05
2.52582e-05
2.67103e-05
2.50487e-05
2.67416e-05
2.90457e-05
2.84342e-05
2.93173e-05
2.52077e-05
2.67732e-05
2.52379e-05
2.67797e-05
2.87817e-05
1.54851e-05
1.55671e-05
2.89637e-05
1.53826e-05
1.55039e-05
6.56039e-06
6.56596e-06
6.57332e-06
6.57303e-06
2.90079e-05
1.55434e-05
1.54514e-05
1.55766e-05
1.54342e-05
6.53388e-06
6.56187e-06
2.87857e-05
2.4738e-05
2.68401e-05
2.90041e-05
2.87875e-05
2.47447e-05
2.68814e-05
2.43038e-05
1.03185e-05
2.41626e-05
1.02635e-05
2.87927e-05
2.69456e-05
2.49165e-05
2.96283e-05
2.90464e-05
2.68835e-05
2.47318e-05
2.43723e-05
1.00779e-05
1.0057e-05
2.41715e-05
2.91144e-05
2.92251e-05
2.46099e-05
2.68026e-05
2.46563e-05
2.6896e-05
2.89066e-05
2.43088e-05
1.02052e-05
1.03222e-05
2.40672e-05
2.90807e-05
2.96533e-05
2.69326e-05
2.50976e-05
2.67999e-05
2.50627e-05
2.90835e-05
2.46521e-05
1.0354e-05
2.47544e-05
1.03339e-05
2.85686e-05
2.69436e-05
2.45764e-05
2.91912e-05
2.88621e-05
2.69434e-05
2.4341e-05
2.45584e-05
1.00204e-05
2.47109e-05
1.00236e-05
2.93016e-05
2.9241e-05
2.48488e-05
2.70445e-05
2.51661e-05
2.70192e-05
2.91374e-05
2.44861e-05
1.02915e-05
1.03693e-05
2.44786e-05
2.86151e-05
2.92405e-05
2.69395e-05
2.42983e-05
2.69421e-05
2.43e-05
2.90865e-05
2.45346e-05
1.00415e-05
1.0059e-05
2.46932e-05
1.5582e-05
1.56933e-05
2.90872e-05
1.54952e-05
1.56993e-05
6.60835e-06
6.61142e-06
6.55312e-06
6.56064e-06
2.90973e-05
1.55906e-05
1.57467e-05
1.55697e-05
1.56183e-05
6.6245e-06
6.61716e-06
2.8744e-05
2.67234e-05
2.46832e-05
2.8998e-05
2.87346e-05
2.66165e-05
2.47771e-05
2.44579e-05
1.03917e-05
2.46092e-05
1.03591e-05
2.43913e-05
1.02123e-05
2.4632e-05
1.02344e-05
2.86619e-05
2.92506e-05
2.67173e-05
2.49145e-05
2.66479e-05
2.46744e-05
2.88726e-05
2.86531e-05
2.90572e-05
2.66689e-05
2.4982e-05
2.67025e-05
2.46891e-05
2.89366e-05
2.43073e-05
1.04012e-05
1.0351e-05
2.47154e-05
2.44196e-05
1.03194e-05
1.03211e-05
2.44962e-05
6.35324e-06
6.33141e-06
6.49241e-06
6.49284e-06
2.87014e-05
1.5088e-05
1.52858e-05
1.49895e-05
1.53125e-05
6.34038e-06
6.3387e-06
6.49415e-06
6.51982e-06
6.54654e-06
6.53452e-06
6.41403e-06
6.402e-06
1.56329e-05
1.52196e-05
2.87867e-05
1.54359e-05
1.52954e-05
6.53019e-06
6.5547e-06
6.41618e-06
6.43995e-06
2.86649e-05
1.53369e-05
1.52555e-05
1.56104e-05
1.52523e-05
2.5284e-05
1.04941e-05
2.49585e-05
1.03846e-05
2.92509e-05
2.50534e-05
2.671e-05
2.91396e-05
2.90498e-05
2.5249e-05
2.65767e-05
2.91265e-05
2.51436e-05
2.67952e-05
2.93542e-05
2.91568e-05
2.5244e-05
2.67863e-05
2.51849e-05
1.02799e-05
1.03744e-05
2.52572e-05
2.526e-05
1.0489e-05
1.0504e-05
2.51868e-05
2.9293e-05
2.91575e-05
2.5118e-05
2.65947e-05
2.53005e-05
2.66673e-05
2.93577e-05
2.92317e-05
2.9228e-05
2.54167e-05
2.67847e-05
2.53514e-05
2.68006e-05
2.9358e-05
1.56014e-05
1.56474e-05
2.88638e-05
1.55939e-05
1.53715e-05
6.57668e-06
6.54776e-06
6.57421e-06
6.56238e-06
2.88795e-05
1.54602e-05
1.54269e-05
1.56537e-05
1.55683e-05
6.54548e-06
6.54646e-06
2.86612e-05
2.48506e-05
2.68391e-05
2.91907e-05
2.89409e-05
2.48162e-05
2.68645e-05
2.43305e-05
1.02903e-05
2.43861e-05
1.01511e-05
2.85049e-05
2.69769e-05
2.49688e-05
2.9567e-05
2.89813e-05
2.69452e-05
2.50136e-05
2.40983e-05
1.00579e-05
1.00787e-05
2.39882e-05
2.87632e-05
2.91628e-05
2.4355e-05
2.69116e-05
2.49069e-05
2.68951e-05
2.81213e-05
2.40972e-05
1.02024e-05
1.01839e-05
2.38337e-05
2.87327e-05
2.94126e-05
2.6866e-05
2.47957e-05
2.69549e-05
2.46895e-05
2.85517e-05
2.45307e-05
1.03569e-05
2.48381e-05
1.02728e-05
2.90543e-05
2.6968e-05
2.43413e-05
2.92904e-05
2.89754e-05
2.69282e-05
2.4536e-05
2.44117e-05
1.01008e-05
2.47686e-05
1.0029e-05
2.9302e-05
2.95062e-05
2.50686e-05
2.69721e-05
2.49356e-05
2.70798e-05
2.92901e-05
2.46636e-05
1.02764e-05
1.03225e-05
2.46736e-05
2.88363e-05
2.93177e-05
2.69498e-05
2.45535e-05
2.69311e-05
2.44551e-05
2.91335e-05
2.47702e-05
9.91416e-06
1.00756e-05
2.47157e-05
1.56327e-05
1.58187e-05
2.91367e-05
1.5629e-05
1.57964e-05
6.66112e-06
6.65043e-06
6.53198e-06
6.51468e-06
2.91526e-05
1.54457e-05
1.56765e-05
1.54733e-05
1.56851e-05
6.65719e-06
6.65391e-06
2.88957e-05
2.66648e-05
2.49687e-05
2.91197e-05
2.86529e-05
2.6526e-05
2.50361e-05
2.47901e-05
1.04868e-05
2.4597e-05
1.04831e-05
2.46583e-05
1.03717e-05
2.49811e-05
1.03255e-05
2.88303e-05
2.93123e-05
2.671e-05
2.52291e-05
2.67312e-05
2.52853e-05
2.86641e-05
2.85866e-05
2.91752e-05
2.65367e-05
2.45951e-05
2.66123e-05
2.50169e-05
2.89989e-05
2.51142e-05
1.05328e-05
1.05633e-05
2.47927e-05
2.50857e-05
1.0258e-05
1.03709e-05
2.50748e-05
6.3533e-06
6.31844e-06
6.5269e-06
6.50888e-06
2.88533e-05
1.494e-05
1.54124e-05
1.50523e-05
1.52459e-05
6.32192e-06
6.33474e-06
6.49827e-06
6.48223e-06
6.52374e-06
6.49891e-06
6.41727e-06
6.39892e-06
1.55321e-05
1.51597e-05
2.87555e-05
1.53106e-05
1.51645e-05
6.50117e-06
6.4976e-06
6.40562e-06
6.40254e-06
2.87229e-05
1.52875e-05
1.52475e-05
1.55155e-05
1.51817e-05
2.51144e-05
1.05041e-05
2.52886e-05
1.03809e-05
2.91283e-05
2.48646e-05
2.67135e-05
2.91395e-05
2.92832e-05
2.48785e-05
2.6728e-05
2.91508e-05
2.5493e-05
2.67965e-05
2.92197e-05
2.90772e-05
2.54284e-05
2.67027e-05
2.51197e-05
1.03011e-05
1.03158e-05
2.51286e-05
2.49688e-05
1.04532e-05
1.04925e-05
2.52736e-05
2.89889e-05
2.90554e-05
2.50028e-05
2.68193e-05
2.49654e-05
2.66917e-05
2.91899e-05
2.92092e-05
2.93762e-05
2.5211e-05
2.68232e-05
2.53977e-05
2.68109e-05
2.89436e-05
1.55236e-05
1.56197e-05
2.89103e-05
1.55642e-05
1.55842e-05
6.56503e-06
6.56333e-06
6.54675e-06
6.5693e-06
2.89726e-05
1.53516e-05
1.54862e-05
1.56394e-05
1.54034e-05
6.50245e-06
6.54018e-06
2.82257e-05
2.46259e-05
2.6925e-05
2.92587e-05
2.84047e-05
2.45911e-05
2.69364e-05
2.36218e-05
1.02501e-05
2.40255e-05
1.02368e-05
2.87839e-05
2.69939e-05
2.52092e-05
2.96299e-05
2.84064e-05
2.70099e-05
2.51436e-05
2.3948e-05
9.97332e-06
1.00175e-05
2.39751e-05
2.86037e-05
2.9293e-05
2.43592e-05
2.6941e-05
2.47325e-05
2.6826e-05
2.87483e-05
2.39823e-05
1.01735e-05
1.0282e-05
2.38969e-05
2.88069e-05
2.95942e-05
2.69974e-05
2.5116e-05
2.70198e-05
2.51258e-05
2.87624e-05
2.4346e-05
1.03196e-05
2.46036e-05
1.02845e-05
2.92238e-05
2.6949e-05
2.45448e-05
2.92691e-05
2.91536e-05
2.69711e-05
2.44733e-05
2.45874e-05
9.97251e-06
2.43878e-05
9.97846e-06
2.88512e-05
2.9282e-05
2.4959e-05
2.70684e-05
2.4864e-05
2.69654e-05
2.92004e-05
2.47003e-05
1.02329e-05
1.02573e-05
2.44695e-05
2.922e-05
2.92985e-05
2.69694e-05
2.4448e-05
2.69821e-05
2.42925e-05
2.90578e-05
2.44751e-05
1.00243e-05
1.00336e-05
2.46877e-05
1.5654e-05
1.58679e-05
2.90382e-05
1.5612e-05
1.56164e-05
6.66121e-06
6.63119e-06
6.51183e-06
6.56099e-06
2.90518e-05
1.54376e-05
1.56842e-05
1.55987e-05
1.58049e-05
6.62723e-06
6.6359e-06
2.91391e-05
2.65323e-05
2.48685e-05
2.91814e-05
2.89959e-05
2.65856e-05
2.46016e-05
2.51238e-05
1.05769e-05
2.51738e-05
1.05012e-05
2.49726e-05
1.03276e-05
2.48065e-05
1.03366e-05
2.91292e-05
2.93605e-05
2.67751e-05
2.53608e-05
2.68124e-05
2.53631e-05
2.91586e-05
2.9172e-05
2.91768e-05
2.66421e-05
2.47377e-05
2.65944e-05
2.48848e-05
2.9112e-05
2.50343e-05
1.0484e-05
1.0439e-05
2.49047e-05
2.49486e-05
1.02874e-05
1.03663e-05
2.48936e-05
6.31934e-06
6.31757e-06
6.48689e-06
6.45058e-06
2.87019e-05
1.49814e-05
1.52403e-05
1.50465e-05
1.53042e-05
6.31976e-06
6.32632e-06
6.44242e-06
6.46244e-06
6.49122e-06
6.49738e-06
6.41855e-06
6.40894e-06
1.54696e-05
1.53419e-05
2.8874e-05
1.54775e-05
1.5252e-05
6.51355e-06
6.52132e-06
6.39026e-06
6.40041e-06
2.88941e-05
1.54405e-05
1.51984e-05
1.54555e-05