/*--------------------------------*- C++ -*----------------------------------*\
| =========                 |                                                 |
| \\      /  F ield         | OpenFOAM: The Open Source CFD Toolbox           |
|  \\    /   O peration     | Version:  2206                                  |
|   \\  /    A nd           | Website:  www.openfoam.com                      |
|    \\/     M anipulation  |                                                 |
\*---------------------------------------------------------------------------*/
FoamFile
{
    version     2.0;
    format      ascii;
    arch        "LSB;label=32;scalar=64";
    class       volScalarField;
    location    "60";
    object      nut;
}
// * * * * * * * * * * * * * * * * * * * * * * * * * * * * * * * * * * * * * //

dimensions      [0 2 -1 0 0 0 0];

internalField   nonuniform List<scalar> 
66940
(
1.25237e-06
7.91472e-07
7.97482e-07
7.55151e-07
1.24704e-06
7.90488e-07
8.03683e-07
7.5224e-07
1.24645e-06
7.91353e-07
8.03617e-07
7.58192e-07
1.24983e-06
7.87756e-07
8.03859e-07
7.53191e-07
1.2497e-06
7.86729e-07
8.01375e-07
7.56847e-07
1.25656e-06
7.90741e-07
8.02816e-07
7.54249e-07
1.26006e-06
7.90761e-07
7.97856e-07
7.52971e-07
1.26265e-06
7.82264e-07
7.96168e-07
7.5033e-07
1.26287e-06
7.85836e-07
7.95031e-07
7.35844e-07
1.26471e-06
7.88317e-07
7.94604e-07
7.1998e-07
8.64596e-07
8.40462e-07
8.46594e-07
7.06701e-07
3.74343e-07
5.04792e-07
4.5902e-07
5.22163e-07
7.40777e-07
7.92785e-07
7.95897e-07
7.44784e-07
7.83148e-07
7.90406e-07
7.8514e-07
7.84489e-07
7.49895e-07
8.01819e-07
7.98252e-07
7.38262e-07
7.57721e-07
7.40031e-07
7.94763e-07
7.93149e-07
7.90748e-07
7.96804e-07
7.58682e-07
7.41423e-07
7.85241e-07
7.86819e-07
7.84398e-07
7.89922e-07
7.80495e-07
7.8715e-07
7.85178e-07
7.68664e-07
7.43724e-07
7.92643e-07
7.96462e-07
7.94715e-07
7.37384e-07
7.54336e-07
7.406e-07
7.8997e-07
7.98489e-07
7.95658e-07
7.96072e-07
7.58869e-07
7.44158e-07
7.82836e-07
7.92268e-07
7.78663e-07
7.8981e-07
7.83563e-07
7.89779e-07
7.82913e-07
7.60426e-07
7.46669e-07
7.94116e-07
8.01654e-07
7.9709e-07
7.38817e-07
7.59525e-07
7.36351e-07
7.98072e-07
7.95333e-07
7.89867e-07
7.93933e-07
7.64009e-07
7.45816e-07
7.79995e-07
7.91875e-07
7.8192e-07
7.90566e-07
7.83765e-07
7.9133e-07
7.84674e-07
7.6639e-07
7.43668e-07
7.99806e-07
8.01112e-07
7.85327e-07
7.41707e-07
7.48527e-07
7.34754e-07
7.92284e-07
7.95465e-07
7.95319e-07
7.99712e-07
7.60453e-07
7.46094e-07
7.85336e-07
7.93704e-07
7.81013e-07
7.87454e-07
7.84429e-07
7.88947e-07
7.8265e-07
7.66061e-07
7.47328e-07
7.93879e-07
7.9957e-07
7.92316e-07
7.39926e-07
7.56018e-07
7.43036e-07
7.97963e-07
7.98096e-07
7.94759e-07
7.9958e-07
7.63396e-07
7.4996e-07
7.82223e-07
7.91776e-07
7.84387e-07
7.93124e-07
7.80003e-07
7.90281e-07
7.82217e-07
7.58034e-07
7.53084e-07
7.96224e-07
8.00982e-07
7.95982e-07
7.35988e-07
7.55614e-07
7.47564e-07
7.95211e-07
8.01044e-07
7.96645e-07
7.97161e-07
7.59984e-07
7.41218e-07
7.77567e-07
7.90027e-07
7.84326e-07
7.92872e-07
7.82411e-07
7.91916e-07
7.84642e-07
7.65054e-07
7.53353e-07
7.9317e-07
8.03121e-07
7.95119e-07
7.4279e-07
7.57066e-07
7.52218e-07
7.93544e-07
7.95592e-07
7.95366e-07
8.03374e-07
7.56334e-07
7.51245e-07
7.81247e-07
7.88934e-07
7.90378e-07
7.95734e-07
7.75821e-07
7.9379e-07
7.88884e-07
7.61301e-07
7.57394e-07
7.97617e-07
8.05554e-07
7.94238e-07
7.50969e-07
7.4855e-07
7.5643e-07
7.93107e-07
7.96896e-07
8.00332e-07
8.06922e-07
7.49572e-07
7.54378e-07
7.82131e-07
7.81167e-07
7.93755e-07
7.96298e-07
7.78463e-07
7.94419e-07
7.89979e-07
7.54895e-07
7.65876e-07
7.90722e-07
8.13253e-07
7.96614e-07
7.53331e-07
7.36145e-07
7.68949e-07
7.91121e-07
7.89769e-07
7.94803e-07
7.95816e-07
7.43451e-07
7.79031e-07
7.74216e-07
7.79016e-07
7.8264e-07
7.9599e-07
7.73253e-07
7.80397e-07
7.84001e-07
7.41511e-07
7.81884e-07
7.82394e-07
8.02741e-07
7.96915e-07
7.75098e-07
7.19357e-07
7.9571e-07
7.91318e-07
7.89763e-07
7.45753e-07
7.42899e-07
7.30887e-07
7.94293e-07
7.80954e-07
7.8676e-07
7.35822e-07
7.42024e-07
7.68688e-07
7.32429e-07
7.31443e-07
7.26593e-07
8.00167e-07
7.92226e-07
7.51515e-07
7.43169e-07
7.90748e-07
7.13003e-07
6.95062e-07
8.3559e-07
8.37072e-07
5.46608e-07
5.46473e-07
7.19951e-07
6.80754e-07
8.30394e-07
8.3268e-07
5.44783e-07
5.50355e-07
8.22804e-07
5.45134e-07
5.45085e-07
7.13774e-07
7.02272e-07
8.34617e-07
5.47013e-07
5.40855e-07
6.928e-07
5.23669e-07
4.54526e-07
4.42134e-07
5.3719e-07
4.54936e-07
4.61368e-07
3.63367e-07
3.77187e-07
3.74964e-07
4.54415e-07
5.28987e-07
4.53615e-07
1.57899e-08
1.2508e-06
1.2636e-06
1.2676e-06
1.26714e-06
3.61865e-07
7.8939e-07
1.59017e-07
9.88737e-07
7.42828e-07
8.19065e-08
8.20915e-08
1.50855e-07
3.49756e-08
1.49559e-07
3.50711e-08
1.57236e-08
1.57638e-08
1.45524e-07
3.41816e-08
1.44286e-07
3.44266e-08
1.2598e-06
1.261e-06
1.26347e-06
1.24957e-06
1.25548e-06
1.25538e-06
1.26359e-06
3.60123e-07
1.57675e-07
9.86863e-07
7.86701e-07
3.6419e-07
1.60238e-07
9.85322e-07
1.59597e-08
1.59704e-08
3.70209e-07
9.97741e-07
1.62103e-07
8.02656e-07
3.71639e-07
1.00029e-06
1.60396e-07
8.07817e-08
8.25295e-08
7.42561e-07
8.16141e-08
8.29255e-08
1.51909e-07
3.50733e-08
1.50748e-07
3.5177e-08
1.56978e-08
1.56535e-08
1.44911e-07
3.40039e-08
1.44028e-07
3.42883e-08
1.25268e-06
1.25751e-06
1.25937e-06
1.24747e-06
1.2529e-06
1.25789e-06
1.25718e-06
3.63805e-07
1.59127e-07
9.87109e-07
7.88957e-07
3.65513e-07
1.60196e-07
9.82812e-07
1.5992e-08
1.58565e-08
3.73642e-07
1.0061e-06
1.61553e-07
8.00577e-07
3.73172e-07
1.00121e-06
1.61624e-07
8.07416e-08
8.28734e-08
7.3789e-07
8.1449e-08
8.29899e-08
1.49231e-07
3.51637e-08
1.51892e-07
3.51546e-08
1.57984e-08
1.57915e-08
1.45014e-07
3.40615e-08
1.43134e-07
3.40965e-08
1.25082e-06
1.2571e-06
1.25319e-06
1.2485e-06
1.2557e-06
1.25632e-06
1.25507e-06
3.62754e-07
1.56844e-07
9.83427e-07
7.90098e-07
3.63073e-07
1.58533e-07
9.80985e-07
1.59544e-08
1.58693e-08
3.77286e-07
1.00836e-06
1.61473e-07
8.02519e-07
3.77585e-07
1.00118e-06
1.62159e-07
8.00028e-08
8.29469e-08
7.35581e-07
8.09e-08
8.35769e-08
1.50968e-07
3.49115e-08
1.50227e-07
3.49734e-08
1.58461e-08
1.58553e-08
1.44707e-07
3.40954e-08
1.43593e-07
3.39763e-08
1.25402e-06
1.25803e-06
1.25422e-06
1.24727e-06
1.25832e-06
1.26195e-06
1.25625e-06
3.6464e-07
1.5709e-07
9.8844e-07
7.87836e-07
3.66068e-07
1.59412e-07
9.78357e-07
1.59559e-08
1.58597e-08
3.7302e-07
1.00885e-06
1.60183e-07
7.99201e-07
3.7324e-07
9.98061e-07
1.61188e-07
8.10614e-08
8.22092e-08
7.40212e-07
8.05183e-08
8.3392e-08
1.51348e-07
3.4999e-08
1.48898e-07
3.5306e-08
1.58714e-08
1.58327e-08
1.42528e-07
3.4003e-08
1.41386e-07
3.39408e-08
1.25866e-06
1.2581e-06
1.2561e-06
1.2552e-06
1.26341e-06
1.26454e-06
1.26131e-06
3.64934e-07
1.58863e-07
9.85589e-07
7.87692e-07
3.67295e-07
1.59678e-07
9.76746e-07
1.58738e-08
1.57999e-08
3.7628e-07
1.00976e-06
1.60031e-07
7.94801e-07
3.76127e-07
9.96635e-07
1.59421e-07
8.10446e-08
8.32369e-08
7.42052e-07
8.09593e-08
8.3422e-08
1.54674e-07
3.52602e-08
1.51259e-07
3.53301e-08
1.58998e-08
1.59335e-08
1.43497e-07
3.39806e-08
1.42126e-07
3.38505e-08
1.26251e-06
1.2643e-06
1.26066e-06
1.25794e-06
1.26596e-06
1.26717e-06
1.26351e-06
3.61573e-07
1.5835e-07
9.89106e-07
7.85796e-07
3.66141e-07
1.55632e-07
9.76284e-07
1.58457e-08
1.57941e-08
3.80901e-07
1.00779e-06
1.59544e-07
8.01989e-07
3.79821e-07
9.96861e-07
1.63346e-07
8.08873e-08
8.33356e-08
7.45624e-07
8.0101e-08
8.3628e-08
1.53799e-07
3.4983e-08
1.52812e-07
3.50097e-08
1.58545e-08
1.58407e-08
1.41011e-07
3.38013e-08
1.40084e-07
3.35809e-08
1.26618e-06
1.26911e-06
1.26333e-06
1.25766e-06
1.26953e-06
1.27224e-06
1.26745e-06
3.62941e-07
1.56921e-07
9.89143e-07
7.91227e-07
3.65616e-07
1.58515e-07
9.82088e-07
1.58319e-08
1.58386e-08
3.80435e-07
1.0038e-06
1.63449e-07
8.06695e-07
3.8057e-07
1.00054e-06
1.62492e-07
8.08987e-08
8.3078e-08
7.43985e-07
8.07649e-08
8.30088e-08
1.51703e-07
3.48743e-08
1.51509e-07
3.49676e-08
1.58431e-08
1.58249e-08
1.43152e-07
3.36023e-08
1.40219e-07
3.38008e-08
1.26917e-06
1.27291e-06
1.26707e-06
1.25996e-06
1.26991e-06
1.27378e-06
1.26391e-06
3.63061e-07
1.57256e-07
9.80602e-07
7.92606e-07
3.62965e-07
1.56806e-07
9.94578e-07
1.57448e-08
1.5748e-08
3.78663e-07
1.00003e-06
1.62823e-07
8.11003e-07
3.86025e-07
1.01353e-06
1.61764e-07
8.00086e-08
8.20962e-08
7.46204e-07
8.08679e-08
8.23131e-08
1.52202e-07
3.51078e-08
1.52598e-07
3.50892e-08
1.57736e-08
1.58021e-08
1.42833e-07
3.36495e-08
1.39988e-07
3.37531e-08
1.27144e-06
1.27483e-06
1.26556e-06
1.26069e-06
1.2696e-06
1.27566e-06
1.26564e-06
3.64329e-07
1.58307e-07
9.59043e-07
7.92394e-07
3.64731e-07
1.57114e-07
1.01703e-06
1.57098e-08
1.57594e-08
3.86211e-07
9.77643e-07
1.62441e-07
8.12127e-07
3.8364e-07
1.03988e-06
1.60654e-07
8.04385e-08
8.20258e-08
7.58584e-07
8.0791e-08
8.25166e-08
1.52851e-07
3.52172e-08
1.51894e-07
3.54126e-08
1.59126e-08
1.60274e-08
1.43118e-07
3.38375e-08
1.42638e-07
3.38934e-08
1.27246e-06
1.27837e-06
1.26739e-06
1.26073e-06
1.26917e-06
1.27137e-06
1.26386e-06
3.72958e-07
1.56545e-07
8.98538e-07
7.69772e-07
3.68209e-07
1.54989e-07
1.06455e-06
1.5763e-08
1.59019e-08
3.94611e-07
9.12872e-07
1.61299e-07
7.889e-07
3.92959e-07
1.08671e-06
1.61686e-07
7.92774e-08
8.18095e-08
7.80043e-07
8.07335e-08
8.27628e-08
1.44555e-07
3.54976e-08
1.49485e-07
3.52467e-08
1.61498e-08
1.65761e-08
1.43476e-07
3.45249e-08
1.4692e-07
3.46082e-08
8.54481e-07
8.7234e-07
8.65274e-07
4.1731e-07
4.1474e-07
4.20212e-07
4.16884e-07
4.08796e-07
1.61248e-07
7.4621e-07
6.69597e-07
4.01577e-07
1.53752e-07
9.06399e-07
1.60874e-08
1.67125e-08
4.1238e-07
7.52576e-07
1.62496e-07
6.79101e-07
4.11255e-07
9.15413e-07
1.5093e-07
8.14924e-08
8.29172e-08
7.47242e-07
8.1509e-08
8.33036e-08
1.5236e-07
1.37172e-09
1.04626e-07
1.71864e-08
2.10567e-09
9.7161e-09
1.51059e-07
1.3587e-09
1.03477e-07
1.68313e-08
2.52941e-07
2.56706e-07
2.52421e-07
3.13251e-07
2.20336e-07
2.53251e-07
2.49278e-07
4.89861e-07
5.68243e-08
5.39713e-07
4.0754e-07
4.61632e-07
5.91583e-08
3.31054e-07
2.1095e-09
9.76112e-09
4.61766e-07
5.4598e-07
5.5914e-08
4.0206e-07
4.48824e-07
3.41534e-07
5.83167e-08
2.81616e-08
2.85398e-08
4.93769e-07
2.61962e-08
2.61904e-08
1.58047e-08
1.5574e-08
1.54644e-08
1.53945e-08
7.60469e-07
8.35749e-08
8.18522e-08
8.25657e-08
8.07866e-08
3.52433e-08
7.79546e-07
1.56675e-07
1.45086e-07
3.53987e-08
3.5004e-08
1.5117e-07
1.46972e-07
3.49375e-08
3.50696e-08
1.52284e-07
3.65372e-07
7.87899e-07
1.60749e-07
9.9703e-07
1.58945e-07
9.80777e-07
3.76439e-07
3.71865e-07
7.87792e-07
1.57459e-07
1.00151e-06
1.56243e-07
9.82067e-07
3.78233e-07
7.44016e-07
8.30776e-08
8.42964e-08
1.58553e-08
1.58047e-08
1.57905e-08
7.58216e-07
8.39654e-08
8.46381e-08
8.35495e-08
8.39796e-08
1.59536e-08
1.59322e-08
1.44315e-07
3.45011e-08
3.41149e-08
1.45271e-07
3.62881e-07
7.83881e-07
1.57137e-07
9.76204e-07
1.5598e-07
9.78448e-07
3.61327e-07
1.44878e-07
3.52317e-08
3.5106e-08
1.4609e-07
3.60095e-07
7.91372e-07
9.83835e-07
1.60235e-07
9.84088e-07
1.6006e-07
3.63828e-07
1.47436e-07
3.50283e-08
3.62652e-07
7.92729e-07
9.90367e-07
1.56175e-07
1.47035e-07
3.40858e-08
3.6082e-07
7.8884e-07
1.60378e-07
9.85605e-07
1.59036e-07
9.85828e-07
3.6385e-07
1.46414e-07
3.53183e-08
3.54145e-08
1.47335e-07
3.64644e-07
7.87159e-07
9.82801e-07
1.53908e-07
9.82884e-07
1.54242e-07
3.61341e-07
1.47688e-07
3.43116e-08
3.43022e-08
1.47697e-07
1.59106e-08
1.58713e-08
7.65864e-07
8.42379e-08
8.52753e-08
8.32689e-08
8.39894e-08
1.60999e-08
1.58928e-08
3.60932e-07
7.97131e-07
9.98746e-07
1.60509e-07
9.79537e-07
1.60019e-07
3.71683e-07
3.59631e-07
7.94536e-07
9.97858e-07
1.58885e-07
9.77747e-07
1.56374e-07
3.73234e-07
1.40774e-07
3.59109e-08
3.53608e-08
1.45524e-07
1.42504e-07
3.49055e-08
3.48091e-08
1.47728e-07
1.53952e-08
1.56309e-08
7.55487e-07
8.20822e-08
8.36112e-08
8.12854e-08
8.32149e-08
1.54355e-08
1.54746e-08
1.57087e-08
1.56804e-08
1.58118e-08
1.5768e-08
1.55292e-08
1.55439e-08
8.34026e-08
8.16478e-08
7.37508e-07
8.39355e-08
8.23221e-08
1.57798e-08
1.57341e-08
1.55678e-08
1.55735e-08
7.57833e-07
8.38035e-08
8.23789e-08
8.28979e-08
8.16191e-08
1.52708e-07
3.57077e-08
1.50982e-07
3.5058e-08
3.79869e-07
1.57922e-07
1.00262e-06
7.92078e-07
3.75255e-07
1.60324e-07
9.99998e-07
3.77943e-07
1.58989e-07
1.00304e-06
7.97399e-07
3.78773e-07
1.60142e-07
9.97933e-07
1.49178e-07
3.55684e-08
3.57544e-08
1.516e-07
1.52716e-07
3.47312e-08
3.5251e-08
1.50263e-07
3.75833e-07
7.94009e-07
1.5956e-07
9.9961e-07
1.60074e-07
1.00418e-06
3.80126e-07
3.76574e-07
7.99265e-07
1.59646e-07
9.99028e-07
1.59064e-07
1.00461e-06
3.78088e-07
8.27281e-08
8.4112e-08
7.37424e-07
8.3929e-08
8.46441e-08
1.60152e-08
1.59552e-08
1.57304e-08
1.578e-08
7.61563e-07
8.36917e-08
8.50073e-08
8.37334e-08
8.37746e-08
1.5974e-08
1.59322e-08
3.58873e-07
1.56982e-07
9.82919e-07
7.8398e-07
3.63147e-07
1.57614e-07
9.76884e-07
1.46675e-07
3.59716e-08
1.45838e-07
3.53127e-08
3.63973e-07
9.84172e-07
1.59344e-07
7.85636e-07
3.64953e-07
9.8245e-07
1.59519e-07
1.44402e-07
3.42971e-08
3.49631e-08
1.44341e-07
3.63057e-07
7.84736e-07
1.5816e-07
9.72487e-07
1.56777e-07
9.7831e-07
3.56774e-07
1.44709e-07
3.47689e-08
3.61432e-08
1.44287e-07
3.65829e-07
7.85229e-07
9.80998e-07
1.58481e-07
9.86064e-07
1.57426e-07
3.62229e-07
1.47847e-07
3.61053e-08
1.44774e-07
3.50424e-08
3.59323e-07
9.83851e-07
1.5545e-07
7.85909e-07
3.63905e-07
9.82992e-07
1.55595e-07
1.47709e-07
3.50448e-08
1.47126e-07
3.43799e-08
3.63605e-07
7.83357e-07
1.60261e-07
9.84859e-07
1.59466e-07
9.88019e-07
3.6392e-07
1.47477e-07
3.51882e-08
3.53103e-08
1.46959e-07
3.59906e-07
7.86702e-07
9.83841e-07
1.56355e-07
9.86774e-07
1.53721e-07
3.63893e-07
1.47347e-07
3.39595e-08
3.47181e-08
1.48089e-07
8.40684e-08
8.55188e-08
7.49396e-07
8.45096e-08
8.5039e-08
1.60917e-08
1.59817e-08
1.59653e-08
1.59949e-08
7.67329e-07
8.45013e-08
8.5511e-08
8.42676e-08
8.49332e-08
1.59504e-08
1.59834e-08
3.72042e-07
9.96637e-07
1.58763e-07
7.92371e-07
3.69346e-07
9.99419e-07
1.58352e-07
1.45784e-07
3.65949e-08
1.47422e-07
3.52942e-08
1.46683e-07
3.552e-08
1.46555e-07
3.50757e-08
3.7454e-07
8.02603e-07
9.97715e-07
1.62095e-07
1.00315e-06
1.59203e-07
3.72269e-07
3.68707e-07
7.96428e-07
9.97163e-07
1.6005e-07
1.0017e-06
1.59007e-07
3.68369e-07
1.46693e-07
3.52451e-08
3.62691e-08
1.4668e-07
1.48373e-07
3.5175e-08
3.55995e-08
1.48176e-07
1.5379e-08
1.54612e-08
1.56753e-08
1.57114e-08
7.59492e-07
8.20397e-08
8.36222e-08
8.17437e-08
8.34034e-08
1.54593e-08
1.54728e-08
1.57199e-08
1.56832e-08
1.57218e-08
1.57407e-08
1.56093e-08
1.55993e-08
8.33035e-08
8.22262e-08
7.35718e-07
8.31682e-08
8.27952e-08
1.57524e-08
1.57733e-08
1.56354e-08
1.56819e-08
7.59864e-07
8.40974e-08
8.30987e-08
8.3821e-08
8.2713e-08
1.51302e-07
3.54322e-08
1.50912e-07
3.50526e-08
3.79799e-07
1.57842e-07
9.99493e-07
7.94407e-07
3.80473e-07
1.60677e-07
9.98771e-07
3.74533e-07
1.59207e-07
1.00271e-06
7.96049e-07
3.74398e-07
1.58734e-07
9.98301e-07
1.51781e-07
3.56599e-08
3.54255e-08
1.52502e-07
1.49877e-07
3.51823e-08
3.55466e-08
1.50176e-07
3.81566e-07
7.9711e-07
1.61071e-07
1.00042e-06
1.60093e-07
1.00587e-06
3.7925e-07
3.75838e-07
7.99359e-07
1.57651e-07
9.9825e-07
1.58244e-07
1.00426e-06
3.80488e-07
8.30918e-08
8.39617e-08
7.47231e-07
8.34925e-08
8.45503e-08
1.59796e-08
1.59639e-08
1.57905e-08
1.56606e-08
7.66423e-07
8.39658e-08
8.47417e-08
8.29027e-08
8.4304e-08
1.5971e-08
1.59937e-08
3.60714e-07
1.57507e-07
9.80603e-07
7.81896e-07
3.61712e-07
1.56154e-07
9.76982e-07
1.44622e-07
3.52571e-08
1.45363e-07
3.4999e-08
3.63677e-07
9.8533e-07
1.58686e-07
7.91599e-07
3.63408e-07
9.79448e-07
1.57856e-07
1.44959e-07
3.41732e-08
3.50117e-08
1.45597e-07
3.63415e-07
7.80506e-07
1.55162e-07
9.72805e-07
1.55556e-07
9.81748e-07
3.60026e-07
1.45806e-07
3.51632e-08
3.54219e-08
1.44836e-07
3.62326e-07
7.90712e-07
9.81769e-07
1.59303e-07
9.83087e-07
1.59358e-07
3.57322e-07
1.46756e-07
3.54694e-08
1.45376e-07
3.49007e-08
3.59599e-07
9.86032e-07
1.55631e-07
7.77598e-07
3.65472e-07
9.81097e-07
1.55912e-07
1.46379e-07
3.46075e-08
1.46257e-07
3.39803e-08
3.62551e-07
7.90729e-07
1.58811e-07
9.79144e-07
1.57718e-07
9.87732e-07
3.65024e-07
1.45715e-07
3.4876e-08
3.52192e-08
1.47579e-07
3.64347e-07
7.83768e-07
9.76015e-07
1.54895e-07
9.82976e-07
1.5539e-07
3.63487e-07
1.47623e-07
3.3818e-08
3.40981e-08
1.47476e-07
8.44361e-08
8.50816e-08
7.41087e-07
8.42772e-08
8.56082e-08
1.59787e-08
1.59551e-08
1.58957e-08
1.5913e-08
7.64452e-07
8.38075e-08
8.49334e-08
8.3614e-08
8.54367e-08
1.60079e-08
1.60258e-08
3.73987e-07
9.99494e-07
1.57473e-07
7.90534e-07
3.74037e-07
9.99847e-07
1.59573e-07
1.49024e-07
3.57877e-08
1.47738e-07
3.50713e-08
1.48343e-07
3.55447e-08
1.48277e-07
3.50471e-08
3.73033e-07
8.03579e-07
1.00168e-06
1.63252e-07
1.00393e-06
1.60253e-07
3.76792e-07
3.74359e-07
7.99151e-07
9.98891e-07
1.60345e-07
1.00363e-06
1.59063e-07
3.73627e-07
1.48987e-07
3.56253e-08
3.62777e-08
1.48724e-07
1.48029e-07
3.49748e-08
3.54402e-08
1.4807e-07
1.54038e-08
1.53011e-08
1.56794e-08
1.56775e-08
7.56968e-07
8.09653e-08
8.36785e-08
8.1107e-08
8.31655e-08
1.53056e-08
1.53101e-08
1.57343e-08
1.56317e-08
1.58207e-08
1.57206e-08
1.5636e-08
1.5621e-08
8.3204e-08
8.21381e-08
7.39683e-07
8.35084e-08
8.29285e-08
1.58417e-08
1.58014e-08
1.56043e-08
1.55955e-08
7.52713e-07
8.43503e-08
8.2753e-08
8.39158e-08
8.23084e-08
1.52765e-07
3.5927e-08
1.5204e-07
3.52373e-08
3.75411e-07
1.58907e-07
1.00748e-06
7.95757e-07
3.78261e-07
1.61371e-07
1.00076e-06
3.82201e-07
1.59621e-07
1.0052e-06
7.92848e-07
3.81783e-07
1.60567e-07
9.99132e-07
1.50979e-07
3.52161e-08
3.51714e-08
1.50772e-07
1.51515e-07
3.53817e-08
3.54987e-08
1.52125e-07
3.79909e-07
7.96723e-07
1.62275e-07
9.96244e-07
1.61656e-07
1.01048e-06
3.73467e-07
3.81475e-07
7.9588e-07
1.60206e-07
1.00118e-06
1.59957e-07
1.01034e-06
3.79801e-07
8.38247e-08
8.46364e-08
7.44981e-07
8.37422e-08
8.41682e-08
1.59974e-08
1.58055e-08
1.58679e-08
1.58257e-08
7.64885e-07
8.41277e-08
8.43298e-08
8.40355e-08
8.3419e-08
1.58667e-08
1.58163e-08
3.60253e-07
1.56758e-07
9.84055e-07
7.8409e-07
3.56443e-07
1.57131e-07
9.76349e-07
1.44071e-07
3.56725e-08
1.43538e-07
3.48624e-08
3.61242e-07
9.86468e-07
1.59323e-07
7.89181e-07
3.62972e-07
9.74359e-07
1.59634e-07
1.4473e-07
3.44124e-08
3.43883e-08
1.44684e-07
3.58327e-07
7.83927e-07
1.5724e-07
9.72135e-07
1.5626e-07
9.85692e-07
3.60008e-07
1.45006e-07
3.4664e-08
3.58267e-08
1.43907e-07
3.62226e-07
7.93276e-07
9.78762e-07
1.60197e-07
9.86742e-07
1.58687e-07
3.6226e-07
1.47855e-07
3.52753e-08
1.4545e-07
3.46783e-08
3.62886e-07
9.82624e-07
1.54611e-07
7.83911e-07
3.637e-07
9.75334e-07
1.55446e-07
1.47511e-07
3.4453e-08
1.45963e-07
3.38407e-08
3.6407e-07
7.93366e-07
1.59641e-07
9.79677e-07
1.5719e-07
9.88572e-07
3.60272e-07
1.46813e-07
3.49639e-08
3.50067e-08
1.47248e-07
3.61008e-07
7.85906e-07
9.7797e-07
1.54783e-07
9.8424e-07
1.5524e-07
3.60546e-07
1.45117e-07
3.40121e-08
3.42326e-08
1.47237e-07
8.40176e-08
8.56843e-08
7.46176e-07
8.37236e-08
8.56782e-08
1.60617e-08
1.60595e-08
1.59236e-08
1.59516e-08
7.62763e-07
8.47266e-08
8.56554e-08
8.42605e-08
8.51492e-08
1.60391e-08
1.59701e-08
3.75323e-07
1.00581e-06
1.59432e-07
7.9476e-07
3.69819e-07
9.98111e-07
1.58518e-07
1.47729e-07
3.5908e-08
1.48181e-07
3.5732e-08
1.4952e-07
3.55285e-08
1.47569e-07
3.46543e-08
3.74949e-07
7.99539e-07
9.95525e-07
1.61373e-07
1.01032e-06
1.60139e-07
3.73257e-07
3.76821e-07
7.93148e-07
9.94341e-07
1.5868e-07
1.00534e-06
1.57092e-07
3.72959e-07
1.49457e-07
3.56432e-08
3.63089e-08
1.48531e-07
1.49157e-07
3.47554e-08
3.50888e-08
1.49366e-07
1.52885e-08
1.52826e-08
1.56713e-08
1.56376e-08
7.52097e-07
8.16205e-08
8.34619e-08
8.04433e-08
8.24918e-08
1.53581e-08
1.53043e-08
1.56737e-08
1.56373e-08
1.58771e-08
1.58731e-08
1.56363e-08
1.55765e-08
8.42801e-08
8.18812e-08
7.33224e-07
8.46246e-08
8.28331e-08
1.58949e-08
1.59145e-08
1.55946e-08
1.56255e-08
7.55837e-07
8.48203e-08
8.2776e-08
8.44503e-08
8.26243e-08
1.50917e-07
3.6138e-08
1.51819e-07
3.53639e-08
3.73335e-07
1.62063e-07
1.0095e-06
7.88433e-07
3.78093e-07
1.60465e-07
9.95973e-07
3.72094e-07
1.59061e-07
1.01211e-06
7.98705e-07
3.75895e-07
1.61246e-07
1.00032e-06
1.50121e-07
3.51067e-08
3.5827e-08
1.50376e-07
1.50116e-07
3.5431e-08
3.55461e-08
1.50188e-07
3.72844e-07
7.96904e-07
1.60679e-07
9.99581e-07
1.59928e-07
1.01167e-06
3.73081e-07
3.76685e-07
8.02086e-07
1.59874e-07
1.00046e-06
1.60965e-07
1.01218e-06
3.6872e-07
8.33293e-08
8.41234e-08
7.46011e-07
8.34374e-08
8.41859e-08
1.59127e-08
1.5787e-08
1.58762e-08
1.58276e-08
7.62695e-07
8.41698e-08
8.34607e-08
8.40926e-08
8.35099e-08
1.57876e-08
1.58043e-08
3.6161e-07
1.56609e-07
9.85053e-07
7.76045e-07
3.62692e-07
1.57064e-07
9.75516e-07
1.44361e-07
3.50861e-08
1.45125e-07
3.48394e-08
3.63563e-07
9.89766e-07
1.58977e-07
7.89996e-07
3.61194e-07
9.77041e-07
1.59751e-07
1.44726e-07
3.45995e-08
3.43274e-08
1.43221e-07
3.63938e-07
7.82603e-07
1.5599e-07
9.75349e-07
1.56468e-07
9.86468e-07
3.61706e-07
1.45821e-07
3.47954e-08
3.54227e-08
1.43996e-07
3.64939e-07
7.93693e-07
9.79569e-07
1.58501e-07
9.86743e-07
1.59278e-07
3.57699e-07
1.45309e-07
3.57335e-08
1.45511e-07
3.45109e-08
3.64453e-07
9.8836e-07
1.52911e-07
7.83136e-07
3.65902e-07
9.73839e-07
1.55897e-07
1.45408e-07
3.45316e-08
1.4592e-07
3.42256e-08
3.67205e-07
7.85853e-07
1.58049e-07
9.78195e-07
1.57505e-07
9.89777e-07
3.65986e-07
1.46992e-07
3.48838e-08
3.50467e-08
1.46109e-07
3.65359e-07
7.83101e-07
9.76644e-07
1.54704e-07
9.89457e-07
1.54172e-07
3.63769e-07
1.45941e-07
3.39701e-08
3.50354e-08
1.46359e-07
8.45035e-08
8.44285e-08
7.44243e-07
8.47381e-08
8.53421e-08
1.59761e-08
1.59937e-08
1.58489e-08
1.59176e-08
7.67389e-07
8.43029e-08
8.44125e-08
8.37569e-08
8.42048e-08
1.59335e-08
1.59917e-08
3.7598e-07
1.00862e-06
1.57255e-07
7.90956e-07
3.71661e-07
9.94395e-07
1.59172e-07
1.49605e-07
3.62215e-08
1.47036e-07
3.55175e-08
1.48268e-07
3.49422e-08
1.4903e-07
3.48845e-08
3.718e-07
7.96681e-07
9.97156e-07
1.61275e-07
1.00902e-06
1.60258e-07
3.71652e-07
3.7195e-07
7.95331e-07
9.96075e-07
1.58049e-07
1.0091e-06
1.5816e-07
3.76307e-07
1.49129e-07
3.52411e-08
3.56461e-08
1.49963e-07
1.49798e-07
3.4858e-08
3.51158e-08
1.49648e-07
1.53196e-08
1.5344e-08
1.56361e-08
1.5613e-08
7.56873e-07
8.08006e-08
8.36401e-08
8.10361e-08
8.32156e-08
1.53733e-08
1.53857e-08
1.57401e-08
1.56725e-08
1.59208e-08
1.59156e-08
1.5576e-08
1.54927e-08
8.4633e-08
8.15564e-08
7.41461e-07
8.47906e-08
8.16569e-08
1.59122e-08
1.592e-08
1.55218e-08
1.55427e-08
7.53468e-07
8.41383e-08
8.26553e-08
8.44883e-08
8.13665e-08
1.49799e-07
3.56233e-08
1.50052e-07
3.55132e-08
3.76338e-07
1.60691e-07
1.01252e-06
7.96139e-07
3.77459e-07
1.61419e-07
9.99641e-07
3.7347e-07
1.62039e-07
1.01364e-06
7.97552e-07
3.72678e-07
1.60844e-07
9.97503e-07
1.50529e-07
3.55223e-08
3.55222e-08
1.52591e-07
1.51049e-07
3.54958e-08
3.55495e-08
1.52809e-07
3.77559e-07
7.975e-07
1.62821e-07
9.98673e-07
1.60931e-07
1.01241e-06
3.81268e-07
3.73824e-07
8.00661e-07
1.62369e-07
1.00114e-06
1.62021e-07
1.01441e-06
3.77701e-07
8.37913e-08
8.35201e-08
7.45926e-07
8.36888e-08
8.37273e-08
1.58376e-08
1.58528e-08
1.59278e-08
1.5934e-08
7.63015e-07
8.45107e-08
8.34829e-08
8.429e-08
8.2812e-08
1.57834e-08
1.58411e-08
3.58735e-07
1.55654e-07
9.84333e-07
7.77181e-07
3.60179e-07
1.56499e-07
9.73303e-07
1.44329e-07
3.51918e-08
1.42602e-07
3.47542e-08
3.58885e-07
9.89426e-07
1.56915e-07
7.91368e-07
3.63493e-07
9.74423e-07
1.56545e-07
1.43803e-07
3.40958e-08
3.43063e-08
1.43517e-07
3.64339e-07
7.8445e-07
1.55644e-07
9.70698e-07
1.55142e-07
9.86438e-07
3.60155e-07
1.4344e-07
3.44903e-08
3.55863e-08
1.42908e-07
3.63982e-07
7.93547e-07
9.76408e-07
1.58845e-07
9.84337e-07
1.57831e-07
3.6241e-07
1.46499e-07
3.55642e-08
1.46181e-07
3.50106e-08
3.56088e-07
9.89385e-07
1.54732e-07
7.81057e-07
3.61194e-07
9.76373e-07
1.54e-07
1.45916e-07
3.40916e-08
1.45913e-07
3.3914e-08
3.66816e-07
7.85911e-07
1.57334e-07
9.78879e-07
1.58537e-07
9.90726e-07
3.63205e-07
1.44591e-07
3.48799e-08
3.55144e-08
1.45457e-07
3.58175e-07
7.82656e-07
9.7634e-07
1.53719e-07
9.89419e-07
1.52954e-07
3.62528e-07
1.44859e-07
3.4008e-08
3.43012e-08
1.46715e-07
8.35286e-08
8.50277e-08
7.48981e-07
8.362e-08
8.55066e-08
1.60142e-08
1.60205e-08
1.58246e-08
1.58438e-08
7.64442e-07
8.41264e-08
8.57657e-08
8.35359e-08
8.45621e-08
1.60567e-08
1.60324e-08
3.77018e-07
1.00877e-06
1.58377e-07
7.92212e-07
3.77362e-07
9.92207e-07
1.59544e-07
1.49009e-07
3.58904e-08
1.49419e-07
3.53675e-08
1.48599e-07
3.52074e-08
1.49566e-07
3.48937e-08
3.76602e-07
8.01943e-07
9.95546e-07
1.60599e-07
1.00578e-06
1.58488e-07
3.78764e-07
3.76523e-07
7.96078e-07
9.94123e-07
1.60862e-07
1.00797e-06
1.58449e-07
3.7958e-07
1.47635e-07
3.5514e-08
3.58029e-08
1.50631e-07
1.4832e-07
3.52475e-08
3.55376e-08
1.4928e-07
1.53332e-08
1.52784e-08
1.57246e-08
1.57274e-08
7.53787e-07
8.14778e-08
8.3083e-08
8.04089e-08
8.2813e-08
1.53021e-08
1.52787e-08
1.57446e-08
1.57907e-08
1.58712e-08
1.58285e-08
1.54793e-08
1.54481e-08
8.47256e-08
8.15123e-08
7.43071e-07
8.40573e-08
8.24686e-08
1.58202e-08
1.58746e-08
1.54778e-08
1.55462e-08
7.51241e-07
8.35036e-08
8.22427e-08
8.46071e-08
8.16907e-08
1.54161e-07
3.64526e-08
1.51685e-07
3.53952e-08
3.83997e-07
1.60965e-07
1.01056e-06
7.95293e-07
3.82214e-07
1.62731e-07
9.94516e-07
3.82301e-07
1.61415e-07
1.01424e-06
8.00819e-07
3.83589e-07
1.62586e-07
1.00249e-06
1.53081e-07
3.5039e-08
3.55176e-08
1.5401e-07
1.53535e-07
3.57823e-08
3.63971e-08
1.53571e-07
3.85765e-07
7.94607e-07
1.61858e-07
9.96884e-07
1.62529e-07
1.00758e-06
3.85374e-07
3.8494e-07
7.97114e-07
1.63685e-07
1.0039e-06
1.62742e-07
1.01322e-06
3.85301e-07
8.44181e-08
8.39651e-08
7.44796e-07
8.47775e-08
8.30471e-08
1.58819e-08
1.58062e-08
1.5915e-08
1.59079e-08
7.58034e-07
8.40367e-08
8.33386e-08
8.47106e-08
8.35418e-08
1.58097e-08
1.57885e-08
3.57046e-07
1.56357e-07
9.839e-07
7.83371e-07
3.62248e-07
1.56924e-07
9.73611e-07
1.44464e-07
3.50677e-08
1.4388e-07
3.43358e-08
3.55138e-07
9.90366e-07
1.57222e-07
7.90929e-07
3.62773e-07
9.77762e-07
1.58302e-07
1.42156e-07
3.41511e-08
3.44512e-08
1.42408e-07
3.60198e-07
7.81432e-07
1.53983e-07
9.76906e-07
1.56692e-07
9.84947e-07
3.50208e-07
1.42163e-07
3.45255e-08
3.46251e-08
1.41491e-07
3.59862e-07
7.85706e-07
9.76314e-07
1.56893e-07
9.88655e-07
1.55453e-07
3.55591e-07
1.45764e-07
3.55053e-08
1.46657e-07
3.48233e-08
3.6212e-07
9.89982e-07
1.53203e-07
7.84428e-07
3.62783e-07
9.76924e-07
1.55223e-07
1.45036e-07
3.47501e-08
1.46231e-07
3.40278e-08
3.67184e-07
7.92111e-07
1.58681e-07
9.78458e-07
1.57054e-07
9.9151e-07
3.65028e-07
1.45611e-07
3.48447e-08
3.5294e-08
1.46606e-07
3.61305e-07
7.82845e-07
9.79073e-07
1.55327e-07
9.87712e-07
1.53922e-07
3.63062e-07
1.46233e-07
3.34424e-08
3.45274e-08
1.46838e-07
8.38028e-08
8.57198e-08
7.52186e-07
8.43344e-08
8.60239e-08
1.61446e-08
1.61086e-08
1.57648e-08
1.57272e-08
7.64185e-07
8.333e-08
8.53616e-08
8.30267e-08
8.49293e-08
1.61441e-08
1.61215e-08
3.79093e-07
1.00559e-06
1.60228e-07
7.97158e-07
3.76686e-07
9.89439e-07
1.61175e-07
1.51118e-07
3.61021e-08
1.4944e-07
3.57445e-08
1.50292e-07
3.58242e-08
1.51769e-07
3.52819e-08
3.79362e-07
8.02527e-07
9.9749e-07
1.62597e-07
1.00675e-06
1.62426e-07
3.76009e-07
3.76153e-07
7.98773e-07
9.91419e-07
1.58302e-07
1.00232e-06
1.60515e-07
3.80354e-07
1.52596e-07
3.59556e-08
3.6754e-08
1.5114e-07
1.52416e-07
3.49854e-08
3.57711e-08
1.52833e-07
1.53268e-08
1.52361e-08
1.58148e-08
1.57762e-08
7.56026e-07
8.06647e-08
8.37425e-08
8.07659e-08
8.24301e-08
1.52525e-08
1.52728e-08
1.57475e-08
1.5703e-08
1.58212e-08
1.57464e-08
1.54747e-08
1.54411e-08
8.41811e-08
8.11962e-08
7.45282e-07
8.3348e-08
8.17369e-08
1.57469e-08
1.57494e-08
1.54532e-08
1.54589e-08
7.49657e-07
8.32069e-08
8.21669e-08
8.40963e-08
8.13198e-08
1.53142e-07
3.61675e-08
1.53711e-07
3.54674e-08
3.82327e-07
1.59707e-07
1.00682e-06
7.97561e-07
3.86042e-07
1.6028e-07
1.00451e-06
3.82526e-07
1.6364e-07
1.01043e-06
7.98924e-07
3.83307e-07
1.63749e-07
1.0034e-06
1.52668e-07
3.51769e-08
3.53793e-08
1.53271e-07
1.51759e-07
3.57363e-08
3.62594e-08
1.54152e-07
3.82748e-07
7.89493e-07
1.61044e-07
1.01213e-06
1.6032e-07
1.00198e-06
3.83168e-07
3.85626e-07
7.98998e-07
1.62285e-07
1.01179e-06
1.63001e-07
1.00713e-06
3.79848e-07
8.40159e-08
8.38143e-08
7.48337e-07
8.46436e-08
8.41234e-08
1.58373e-08
1.58428e-08
1.58672e-08
1.59201e-08
7.57785e-07
8.34214e-08
8.36143e-08
8.46451e-08
8.26629e-08
1.57046e-08
1.57835e-08
3.51489e-07
1.54898e-07
9.84036e-07
7.87444e-07
3.56009e-07
1.55427e-07
9.80205e-07
1.40244e-07
3.49549e-08
1.41725e-07
3.46641e-08
3.58507e-07
9.8791e-07
1.58703e-07
7.94862e-07
3.56054e-07
9.84067e-07
1.59068e-07
1.41251e-07
3.37368e-08
3.43157e-08
1.4236e-07
3.59036e-07
7.8271e-07
1.53929e-07
9.84214e-07
1.55536e-07
9.77137e-07
3.58134e-07
1.41467e-07
3.4471e-08
3.51935e-08
1.41901e-07
3.61594e-07
7.88116e-07
9.87412e-07
1.58849e-07
9.85547e-07
1.58159e-07
3.5832e-07
1.44671e-07
3.5269e-08
1.45252e-07
3.47917e-08
3.64178e-07
9.86044e-07
1.54468e-07
7.86537e-07
3.65647e-07
9.82242e-07
1.5476e-07
1.46092e-07
3.42303e-08
1.43969e-07
3.37213e-08
3.62414e-07
7.84294e-07
1.57919e-07
9.88052e-07
1.56559e-07
9.81974e-07
3.63967e-07
1.45836e-07
3.46542e-08
3.49205e-08
1.4544e-07
3.67035e-07
7.80398e-07
9.86045e-07
1.54582e-07
9.83827e-07
1.52847e-07
3.62159e-07
1.44491e-07
3.39068e-08
3.45209e-08
1.4672e-07
8.39281e-08
8.59881e-08
7.52712e-07
8.42209e-08
8.50088e-08
1.61459e-08
1.60823e-08
1.57091e-08
1.58322e-08
7.58386e-07
8.32535e-08
8.53651e-08
8.37088e-08
8.55772e-08
1.60739e-08
1.60889e-08
3.8217e-07
9.97044e-07
1.59545e-07
8.00423e-07
3.81915e-07
9.96033e-07
1.58324e-07
1.53173e-07
3.66631e-08
1.5296e-07
3.58256e-08
1.52225e-07
3.55027e-08
1.50712e-07
3.52768e-08
3.8424e-07
8.01715e-07
1.00643e-06
1.63349e-07
1.00344e-06
1.62855e-07
3.82513e-07
3.84821e-07
7.96186e-07
1.00187e-06
1.59143e-07
9.95638e-07
1.59624e-07
3.81858e-07
1.52108e-07
3.58449e-08
3.60159e-08
1.51875e-07
1.51568e-07
3.50385e-08
3.58473e-08
1.5178e-07
1.52411e-08
1.52486e-08
1.57063e-08
1.56163e-08
7.48855e-07
8.08586e-08
8.27705e-08
8.07309e-08
8.27675e-08
1.52542e-08
1.52449e-08
1.5622e-08
1.56421e-08
1.5737e-08
1.57414e-08
1.54916e-08
1.54616e-08
8.38512e-08
8.21789e-08
7.53871e-07
8.42206e-08
8.21689e-08
1.57816e-08
1.58058e-08
1.54248e-08
1.54331e-08
7.47118e-07
8.39862e-08
8.18403e-08