/*--------------------------------*- C++ -*----------------------------------*\
| =========                 |                                                 |
| \\      /  F ield         | OpenFOAM: The Open Source CFD Toolbox           |
|  \\    /   O peration     | Version:  2206                                  |
|   \\  /    A nd           | Website:  www.openfoam.com                      |
|    \\/     M anipulation  |                                                 |
\*---------------------------------------------------------------------------*/
FoamFile
{
    version     2.0;
    format      ascii;
    arch        "LSB;label=32;scalar=64";
    class       volScalarField;
    location    "60";
    object      omega;
}
// * * * * * * * * * * * * * * * * * * * * * * * * * * * * * * * * * * * * * //

dimensions      [0 0 -1 0 0 0 0];

internalField   nonuniform List<scalar> 
66940
(
17.7283
22.4298
22.0484
24.5903
17.7404
22.4648
22.1674
24.8858
17.7484
22.5323
22.1678
24.8677
17.7218
22.608
22.2321
24.837
17.7058
22.5111
22.2884
24.7693
17.6708
22.484
22.2185
24.9084
17.645
22.5685
22.1879
24.9402
17.6337
22.5146
22.193
25.0234
17.6355
22.5288
22.2644
24.8375
17.6495
22.5165
22.2659
24.8495
17.6676
22.4397
22.0255
24.8145
19.0482
23.2702
23.0374
28.2744
24.5221
22.1424
22.028
24.4763
22.4618
22.3538
22.0264
22.2438
24.3907
21.9158
22.0925
24.4722
24.0551
24.5651
21.8896
21.5374
22.2005
22.1977
24.2242
24.4473
22.2397
22.1586
22.4794
22.4214
22.1181
22.355
22.4401
23.9733
24.522
21.7894
21.8002
22.1639
24.827
24.1974
24.7194
22.0306
22.0199
22.2708
22.25
24.1843
24.4351
21.8912
22.1543
22.5863
22.5325
22.3429
22.1174
22.6502
24.2489
24.4873
21.8829
21.7748
22.1848
24.8025
24.246
24.5757
22.0985
21.9574
22.3308
22.2479
24.0464
24.5238
22.38
22.1995
22.5481
22.5677
22.3519
22.2399
22.7358
23.9412
24.5054
21.7502
21.9641
22.2906
24.436
24.1264
24.603
22.047
21.7907
22.3339
22.4096
24.2148
24.5457
22.0103
22.0128
22.6893
22.617
22.4026
22.4126
22.6687
24.0714
24.5394
22.1008
22.2207
22.2885
24.6726
24.2211
24.7159
22.0109
22.2103
22.3109
22.2872
24.1047
24.5418
22.485
22.0934
22.584
22.5794
22.3583
22.3778
22.6234
24.1534
24.568
22.006
22.1138
22.2521
24.8679
24.3893
24.6178
22.0226
22.0619
22.3048
22.2854
24.2688
24.7044
22.3007
22.389
22.6011
22.5684
22.2891
22.184
22.5955
24.0147
24.6257
22.0208
21.9615
22.293
24.8566
24.1336
24.6959
21.9963
21.956
22.2655
22.2607
24.4299
24.6513
22.2255
22.1977
22.5303
22.5503
22.0941
22.395
22.6755
24.3032
24.6141
22.055
21.7978
22.3019
24.6427
24.0156
24.7133
21.9154
21.8043
22.3052
22.3545
24.4428
24.6142
21.9643
21.9039
22.6025
22.5678
22.1476
22.2257
22.6748
23.975
24.5591
22.0487
21.909
22.2632
24.7206
24.0564
24.6384
21.7876
22.1697
22.3459
22.2572
24.3309
24.646
22.0921
22.4009
22.5522
22.5075
22.4174
22.4111
22.5852
24.2544
24.5893
21.8181
21.907
22.2455
24.4054
24.2122
24.4976
21.9906
22.0309
22.3177
22.2419
24.3777
24.5492
22.3195
22.0157
22.5168
22.4391
22.0681
22.4885
22.6723
24.1881
24.3338
21.7474
22.1646
22.2775
24.735
24.2255
25.4802
22.0672
22.1536
22.1606
22.1421
23.9216
25.9712
21.8224
22.0821
22.186
22.0271
21.9539
22.2467
22.2871
24.1327
25.7651
22.143
22.2568
22.1511
26.021
27.6458
22.9164
22.971
28.0175
22.8823
22.7903
19.2504
19.0118
19.0442
22.9421
27.4062
22.8557
413.46
17.7348
17.6532
17.6546
17.6311
42.437
22.3474
102.817
19.6804
24.5772
175.444
173.462
109.19
292.832
109.195
292.011
412.419
412.74
114.357
295.367
114.297
295.48
17.6869
17.6882
17.6705
17.7689
17.7089
17.6773
17.6953
42.9666
104.61
19.6846
22.2266
42.9547
103.598
19.646
414.084
414.256
40.9054
19.5396
99.7898
21.5242
40.5054
19.4407
100.61
176.724
174.12
24.6282
176.992
173.587
109.567
293.92
109.675
293.321
412.705
412.838
114.549
296.562
116.233
295.736
17.7695
17.7093
17.7344
17.7688
17.7474
17.7044
17.7386
43.2701
105.142
19.7633
22.1801
42.895
104.408
19.7191
414.309
414.383
41.0064
19.5642
101.444
21.998
41.1453
19.5334
101.319
177.369
174.596
24.7884
177.064
174.029
109.767
293.603
111.072
293.477
412.622
412.856
114.674
296.201
116.329
295.938
17.7871
17.7282
17.7865
17.7403
17.7411
17.7065
17.7563
43.4743
105.287
19.8295
22.0933
43.551
104.741
19.6282
414.363
414.507
41.4353
19.5475
101.898
22.0186
41.2505
19.4723
101.551
178.063
175.001
24.8017
177.368
174.808
109.78
293.564
110.333
293.227
412.727
412.926
115.72
296.535
115.309
296.055
17.7503
17.7213
17.7538
17.7321
17.7141
17.6828
17.7276
43.4857
104.41
19.8626
22.2032
43.5501
104.423
19.7999
414.203
414.315
41.4637
19.5516
102.432
22.0524
41.5419
19.477
101.641
178.038
174.56
24.7496
177.095
174.577
109.404
293.78
109.983
293.312
412.828
412.833
115.176
296.132
115.785
295.926
17.7132
17.6882
17.7218
17.6912
17.6758
17.6599
17.6947
43.5987
104.323
19.8115
22.0833
43.5925
104.021
19.752
414.45
414.414
41.6133
19.5123
102.284
21.9581
41.9855
19.4754
101.871
177.869
173.736
24.7676
177.351
174.366
109.475
293.902
110.304
293.51
412.661
412.96
115.779
296.422
116.431
296.045
17.6866
17.6687
17.6976
17.6766
17.6573
17.6576
17.6668
43.5386
104.28
19.7971
21.8804
43.9066
103.821
19.6649
414.306
414.543
41.5955
19.5376
102.476
21.962
42.0578
19.4365
101.438
177.281
174.693
24.7518
176.526
174.234
109.722
293.988
110.091
293.202
412.993
412.757
115.776
297.112
115.949
296.108
17.6511
17.6284
17.6631
17.6502
17.6182
17.5916
17.6355
43.7222
104.847
19.7646
22.1476
43.888
104.614
19.6086
414.311
414.398
41.291
19.3879
102.107
22.0083
41.6082
19.3413
101.691
177.508
175.871
24.9103
176.497
175.074
109.536
293.758
110.188
293.556
412.893
412.895
115.058
296.304
115.786
295.772
17.6162
17.5879
17.6206
17.6517
17.6049
17.567
17.6222
43.8693
104.773
19.7559
22.2309
43.8332
103.92
19.6472
414.617
414.397
41.1589
19.4916
101.48
21.7112
41.3728
19.4508
101.48
177.595
176.054
24.8318
176.549
174.852
110.166
293.27
110.592
292.952
412.719
412.52
113.981
296.703
115.366
295.653
17.5971
17.5761
17.6183
17.6558
17.5818
17.5572
17.6094
44.1114
104.765
19.7374
22.3048
43.9146
104.437
19.6197
414.391
414.196
41.489
19.4987
102.676
21.6931
41.3614
19.3534
101.562
178.031
174.917
24.791
177.328
174.684
109.077
293.954
110.543
292.055
412.499
411.7
113.441
296.386
115.19
294.707
17.5927
17.5679
17.6267
17.6421
17.571
17.5446
17.5964
43.6322
104.086
19.6518
21.9751
44.2941
103.997
19.7508
413.913
413.151
41.4685
19.4866
102.868
22.068
41.54
19.3685
102.057
178.301
175.138
24.7328
177.213
174.197
114.59
294.23
111.62
289.947
410.835
405.378
114.397
295.387
113.331
290.282
17.6301
17.6174
17.6315
18.714
18.8271
18.6735
18.8112
44.086
102.265
19.6611
21.9333
43.1586
104.873
19.6994
411.944
405.178
42.7168
19.4436
102.446
21.7913
41.8744
19.6517
104.502
177.606
175.66
24.2426
175.933
175.821
118.844
1694.31
178.306
369.267
1572.08
539.286
119.062
1694.08
179.255
370.643
18.6033
18.1498
18.1123
19.7177
17.623
18.9927
19.059
50.329
271.051
20.5234
22.3134
54.959
216.55
21.0073
1575
539.45
50.1119
20.4824
270.871
22.2757
55.3021
20.8356
216.201
343.209
337.755
25.2645
334.102
332.841
412.41
413.859
414.388
414.557
24.5831
173.459
175.906
174.03
176.583
292.367
21.945
101.937
109.59
292.061
293.342
103.639
105.383
293.441
293.187
108.636
39.4064
22.0255
99.5262
19.4982
101.022
19.4726
40.0718
39.1714
21.9407
100.824
19.4586
98.4959
19.3766
40.1211
24.4275
175.781
174.54
413.536
412.523
413.186
24.1165
172.745
174.835
169.388
170.53
413.645
414.092
114.287
294.262
295.417
112.67
42.6616
22.0701
103.123
19.6068
104.094
19.6399
43.2423
113.023
295.441
296.333
114.24
42.5808
21.9251
19.6315
103.31
19.5575
104.776
43.2069
112.422
294.996
42.3052
22.1612
19.6355
103.36
112.246
294.967
39.4787
22.1915
104.165
19.621
96.1453
19.5793
41.2255
106.835
294.897
293.13
112.724
39.6273
22.0712
19.6485
103.364
19.5217
98.092
43.0425
104.771
295.097
293.663
113.903
414.164
414.835
24.4006
175.718
172.375
176.569
173.549
411.904
412.919
39.0665
21.6502
19.5235
98.3662
19.5084
100.911
39.8552
39.4771
22.0086
19.5043
100.734
19.4925
102.403
41.1382
111.211
292.256
291.444
109.42
112.377
292.547
291.01
109.836
413.598
412.884
24.3044
175.421
173.254
171.291
170.297
413.725
413.984
412.132
412.611
412.099
412.359
413.988
414.356
170.158
170.062
24.5349
168.737
175.322
412.791
412.3
414.435
414.225
24.0453
173.785
175.258
171.295
170.375
109.369
289.032
100.734
292.947
40.2828
94.6872
19.4519
21.8014
38.5439
99.7765
19.4927
40.483
97.9081
19.3949
22.0166
38.8967
100.705
19.5471
104.887
291.109
288.9
108.305
101.867
293.221
290.763
109.515
39.0204
21.9998
100.126
19.5755
95.7198
19.4633
40.6419
39.1405
21.7855
101.476
19.566
99.1484
19.5504
41.0794
167.362
170.785
24.406
172.978
175.122
413.712
414.123
412.628
412.701
24.1805
173.171
175.358
168.471
172.055
414.089
414.372
43.3464
97.9475
19.5286
22.3581
42.6181
103.032
19.7418
113.891
290.817
110.969
295.265
43.2248
19.6092
97.9121
22.2812
42.6372
19.6367
102.662
106.581
295.915
292.071
115.837
41.2948
22.3775
102.983
19.784
97.9252
19.7462
43.5052
108.434
295.891
289.937
113.881
41.4219
22.2889
19.7533
104.694
19.605
97.5526
43.2838
112.99
289.987
107.111
295.505
42.8425
19.5126
95.0176
22.0032
41.9081
19.5697
104.586
113.799
290.709
105.007
295.59
41.34
22.3176
104.705
19.6437
96.3966
19.6314
42.5331
107.414
295.301
293.717
112.992
40.6464
21.9757
19.7294
103.732
19.5633
102.026
42.9195
105.964
295.312
293.314
113.197
167.596
166.997
24.3663
176.223
172.411
411.899
412.47
414.285
414.258
24.1138
176.026
173.02
167.369
169.008
412.283
412.466
40.8613
19.3776
97.1603
21.6805
40.3176
19.528
100.297
109.669
287.8
102.863
292.602
108.956
289.017
104.5
292.594
39.4512
21.9596
19.4396
96.7386
19.4608
94.7413
40.8401
38.7291
22.0536
19.563
99.9461
19.5501
94.9899
41.0806
106.331
292.989
287.078
109.613
103.952
292.331
288.714
109.136
414.43
414.56
412.233
412.368
24.0556
176.168
173.719
174.627
167.766
413.949
414.846
412.379
413.306
412.661
412.806
414.213
414.37
167.867
170.135
24.622
173.532
175.162
412.57
412.725
414.387
414.147
23.9932
172.729
174.995
166.762
169.52
108.989
290.312
103.929
292.671
40.8165
95.406
19.52
21.9078
39.2472
101.021
19.4497
40.9254
98.6008
19.4356
22.1307
39.4305
101.182
19.3865
105.442
290.672
291.498
110.465
103.665
292.589
289.379
109.818
39.2262
21.9621
100.764
19.5811
96.7595
19.5878
41.1819
39.5732
22.16
100.446
19.5706
96.1913
19.5516
41.0455
168.199
171.978
24.4079
173.004
175.036
414.313
413.938
412.376
412.435
24.0061
172.986
174.666
168.131
169.711
413.909
413.916
43.2848
98.0871
19.6753
22.3824
41.1978
103.082
19.6815
114.105
293.868
109.146
295.529
43.3485
19.727
96.2467
22.1116
41.5052
19.7593
104.604
106.861
295.786
291.291
115.985
41.6476
22.1821
102.664
19.8341
97.7993
19.6863
43.4184
109.386
295.153
293.159
114.432
41.659
22.1009
19.7854
103.367
19.6592
100.851
43.5912
113.361
293.692
108.16
295.59
43.0634
19.7222
101.472
22.2268
39.8208
19.6777
104.011
113.15
292.19
107.372
296.259
42.3001
22.1448
100.846
19.786
101.499
19.7651
43.2854
108.356
295.532
294.155
113.538
40.3887
22.2068
19.8194
104.305
19.6747
101.603
43.6465
107.396
295.908
295.112
114.121
168.245
164.238
24.4684
175.875
173.559
412.368
412.697
414.197
414.381
24.1448
175.625
173.516
171.7
164.925
412.386
412.608
40.9388
19.5021
95.1766
22.0258
39.7
19.4581
100.231
109.184
290.943
101.575
293.08
108.755
289.256
103.635
292.52
39.3451
21.8517
19.4969
97.1641
19.4652
94.5277
39.7944
39.2984
22.0562
19.5559
100.516
19.444
96.0665
40.9171
104.501
292.898
287.14
108.92
103.072
292.695
288.838
109.376
414.548
414.926
413.196
412.697
24.1996
173.427
173.751
171.406
169.651
414.183
415.019
412.468
413.241
412.422
412.768
414.386
414.362
165.324
169.105
24.6819
172.941
175.586
412.813
412.439
414.352
414.043
24.127
172.878
176.035
168.502
165.757
109.116
288.323
103.174
293.179
41.032
93.0773
19.4544
22.2196
39.4315
101.581
19.4277
41.0662
95.9086
19.4794
22.0988
39.7125
100.557
19.5227
104.446
293.188
291.81
109.165
105.36
293.212
290.645
110.232
39.4535
22.2487
101.328
19.5857
93.8499
19.6001
41.247
40.132
22.1224
100.196
19.4218
95.4312
19.5176
41.5101
167.569
166.909
24.535
173.769
174.974
414.254
414.391
412.975
412.579
24.0303
173.182
176.197
167.619
173.878
414.194
414.803
43.9285
97.3587
19.7834
22.4631
41.0324
103.568
19.6931
115.24
292.05
105.709
295.171
43.6986
19.7414
95.8331
21.9485
42.4881
19.7585
103.166
107.319
293.628
294.171
109.684
42.8684
22.4394
104.197
19.835
94.8905
19.6863
43.6391
112.497
296.065
290.795
114.962
42.1129
22.466
19.8157
105.002
19.8034
101.315
43.8379
113.529
293.435
107.759
296.366
43.672
19.7892
99.2382
22.1131
42.6081
19.8078
104.223
113.465
291.941
107.47
296.05
42.5446
22.5356
103.41
19.7272
96.4869
19.8053
42.1643
108.098
295.609
294.856
113.691
42.4952
22.6503
19.8494
104.13
19.8178
99.8997
43.4756
108.276
295.394
292.342
109.814
172.266
165.754
24.4949
175.7
173.145
412.693
412.537
414.245
413.749
24.0543
175.75
174.181
166.162
170.698
412.648
412.73
41.5103
19.509
95.9934
22.2039
39.894
19.5436
101.407
109.062
291.033
104.078
292.754
108.969
290.344
102.916
293.698
40.4381
21.9236
19.5206
101.897
19.5047
98.4354
41.3088
38.9711
21.9124
19.5762
101.545
19.5602
100.13
41.6345
101.869
293.164
288.761
109.012
104.173
293.199
291.612
108.917
414.785
414.78
413.104
413.183
24.2985
173.457
173.108
171.213
172.448
414.109
414.746
412.6
413.465
412.341
412.726
414.196
414.52
167.807
167.865
24.546
172.873
176.946
412.893
412.451
414.389
414.218
24.1929
172.913
176.566
168.094
168.149
109.327
288.375
106.872
293.133
41.1879
93.7579
19.4107
21.8752
38.3741
101.695
19.5655
41.0999
95.3314
19.5238
22.2319
40.667
100.416
19.4411
102.692
293.479
288.838
108.663
103.339
293.055
290.546
109.584
40.3223
22.2576
101.268
19.5711
93.8728
19.5617
41.0035
39.2771
22.0469
100.634
19.5678
96.3266
19.5796
41.1701
167.524
169.215
24.5598
173.679
175.961
414.271
414.427
412.787
412.855
24.0701
173.077
175.525
167.755
171.984
414.179
414.539
43.9131
102.295
19.7727
22.4956
42.8787
104.537
19.7086
114.398
293.711
109.63
295.094
44.014
19.6149
102.663
22.4964
42.8052
19.8041
103.646
107.458
292.922
294.107
114.617
42.3584
22.2965
103.709
19.825
98.7466
19.6769
44.0176
107.239
295.387
292.401
115.395
43.1365
22.2322
19.7997
103.525
19.8276
100.474
44.1665
114.15
290.575
110.229
295.804
43.8173
19.7031
98.5924
22.5235
42.7702
19.8284
104.089
114.834
292.114
112.311
295.012
40.6732
22.0435
103.351
19.7096
96.7353
19.731
43.2712
105.794
295.347
294.094
114.965
41.127
22.5817
19.8452
103.615
19.8548
98.697
43.9626
108.56
295.754
289.852
114.662
167.223
171.838
24.4785
176.202
173.564
412.895
412.802
414.466
414.212
24.2117
176.041
173.04
167.338
169.051
412.509
412.746
41.1483
19.3949
97.6322
21.8737
40.5757
19.5535
101.393
110
288.987
100.48
293.214
109.341
290.655
105.152
293.044
40.4513
22.1431
19.4251
97.5834
19.5034
98.8556
40.4327
40.3578
22.1939
19.5315
101.146
19.5496
98.3958
41.3246
107.229
292.64
290.817
109.236
106.588
292.962
291.038
109.839
414.45
414.261
412.77
412.769
24.2668
173.165
169.581
170.875
168.911
413.99
414.287
412.486
413.527
412.5
412.836
414.354
414.503
167.485
173.74
24.6327
173.562
176.476
412.754
412.69
414.613
414.318
23.9692
172.804
176.359
167.274
172.728
108.722
290.996
103.081
292.953
40.9913
93.7453
19.4681
22.1476
40.0206
101.856
19.5037
41.1406
92.5976
19.3958
21.9818
39.8649
101.706
19.5591
104.217
292.904
291.756
108.954
103.571
292.889
291.332
108.975
39.2038
22.1876
100.794
19.5396
99.3877
19.5167
41.2079
39.3377
22.0463
101.016
19.5648
98.4948
19.5516
41.3608
168.476
172.19
24.5215
173.345
175.241
414.228
414.182
412.695
412.516
24.1612
173.799
175.399
169.778
172.912
413.97
414.23
43.7202
98.9047
19.6932
22.1961
41.7512
103.614
19.5984
114.983
293.208
111.626
295.317
44.1102
19.7706
98.6903
22.5391
43.2635
19.6824
103.409
110.828
295.576
293.153
115.443
41.9772
22.4445
104.57
19.8254
100.584
19.8002
43.7118
110.906
295.885
290.062
115.035
43.1538
22.1781
19.7082
103.24
19.8168
98.8528
43.9345
114.294
291.136
111.063
295.164
43.5788
19.7737
99.2953
22.4833
42.7623
19.8098
104.956
114.008
293.927
109.892
295.56
42.4385
22.0042
103.628
19.6633
98.4633
19.6931
43.6573
109.932
295.056
291.975
114.373
42.0213
22.4984
19.8267
104.255
19.8122
101.85
43.7248
106.06
295.27
293.254
115.466
173.111
169.101
24.5213
175.46
173.776
412.655
412.685
414.11
414.083
24.125
175.099
173.382
169.828
170.062
412.568
412.737
41.4537
19.4782
94.0154
21.866
40.5253
19.4351
102.345
109.841
289.541
106.928
292.9
109.998
290.062
105.919
293.301
40.4348
22.0634
19.5294
102.029
19.4156
94.0627
40.5884
40.7588
22.0605
19.5385
101.883
19.4591
100.193
41.4149
107.922
292.878
289.11
110.184
108.246
292.771
290.428
110.085
414.346
414.403
412.881
412.837
24.128
176.544
173.648
170.803
169.87
414.346
414.873
412.469
412.89
412.479
412.833
414.361
414.421
168.727
172.89
24.5913
173.798
175.756
412.776
412.906
414.54
414.245
24.3864
173.021
175.448
170.301
169.661
109.142
287.883
103.756
293.391
41.0744
98.9776
19.4358
22.1562
39.5316
100.861
19.4842
41.1552
97.0124
19.4639
22.1555
39.7721
100.942
19.4026
105.561
293.385
292.092
108.758
105.224
293.133
288.594
109.656
39.9903
22.2142
101.171
19.5368
93.7681
19.5108
41.3962
39.8256
22.1746
101.445
19.5337
93.7463
19.543
41.4877
165.739
167.461
24.5817
174.43
176.186
414.1
414.252
413.084
412.524
23.9768
174.136
175.078
165.654
169.809
414.015
414.635
44.1963
101.125
19.6959
22.0781
41.3875
104.03
19.6383
114.841
293.441
111.947
295.642
44.0688
19.7855
99.5239
22.2241
41.3658
19.8033
103.426
107.611
294.512
292.55
114.798
41.4218
22.54
103.996
19.8323
96.9502
19.8158
44.3077
112.876
295.503
294.119
115.033
43.0719
22.1608
19.8207
103.137
19.804
100.895
43.8925
114.309
291.7
110.405
294.999
43.8493
19.5898
98.5519
22.4433
41.013
19.7745
104.304
114.554
290.669
111.814
294.729
41.6834
22.3613
100.076
19.7368
97.9818
19.5971
43.5557
109.003
294.919
292.471
114.109
42.6319
22.4645
19.8222
103.671
19.6862
98.7456
43.6124
108.559
296.454
291.814
114.548
171.101
166.547
24.547
176.138
174.143
412.591
412.851
414.34
414.23
23.8547
175.039
172.542
170.525
168.284
412.36
412.734
41.7311
19.4879
95.7781
22.1413
38.9603
19.5179
101.176
109.806
290.477
107.095
293.277
109.993
289.517
102.513
292.657
40.4047
21.8688
19.4652
97.4832
19.4493
95.2311
41.3467
40.6371
22.1676
19.5444
100.894
19.5198
96.1023
41.4353
100.855
292.94
287.405
110.258
102.507
293.207
289.922
109.718
414.522
414.702
412.709
412.575
24.1313
176.972
170.995
168.765
168.701
414.485
414.773
412.653
412.803
412.34
412.724
414.695
414.409
166.874
169.656
24.5935
173.003
176.195
412.855
412.562
414.519
414.164
24.2885
172.889
176.392
166.495
166.688
109.008
290.43
104.949
292.69
41.0658
98.4957
19.441
22.1069
39.6843
100.471
19.493
41.2333
94.3839
19.3607
22.1119
40.4915
101.199
19.5346
105.83
292.836
291.577
108.937
103.532
292.509
289.373
109.434
38.7766
22.1422
101.157
19.5357
98.3133
19.5108
41.1055
39.5232
22.14
100.836
19.5436
98.7637
19.5277
41.3902
171.207
171.059
24.6068
173.65
175.622
414.53
414.279
412.596
412.641
24.3821
174.8
175.576
166.4
173.115
414.047
414.368
44.3038
101.554
19.581
22.3662
43.3428
104.02
19.7797
115.279
293.239
106.589
295.316
43.8188
19.5766
95.9511
21.9105
41.3244
19.763
104.411
113.116
295.621
291.921
114.941
43.0679
22.4063
100.64
19.7983
97.1512
19.7918
43.6309
112.054
295.132
292.158
115.834
43.1835
22.4545
19.8139
103.722
19.6786
102.04
43.1762
114.264
292.597
109.45
295.603
43.5837
19.7492
98.3658
22.5639
42.6896
19.776
103.98
113.583
291.336
107.622
295.91
42.3353
22.0142
104.15
19.7278
101.383
19.575
42.2634
109.458
295.287
293.733
113.785
40.8687
22.2971
19.7867
103.573
19.758
99.376
43.4005
108.203
295.644
290.652
113.543
169.67
166.681
24.4938
175.18
172.953
412.564
412.328
414.526
414.407
23.9128
176.482
172.349
172.243
166.481
412.297
412.452
41.136
19.4343
97.4681
22.1595
39.598
19.4899
101.388
110.23
288.488
101.954
293.121
109.635
290.895
105.829
293.013
39.6335
21.8786
19.3702
100.398
19.377
99.0113
40.5822
39.4277
22.2204
19.5363
101.102
19.502
99.4804
41.4554
107.411
292.482
289.845
109.832
104.149
293.604
289.178
109.902
414.626
414.304
413.013
413.068
24.6122
177.072
171.491
168.905
171.699
414.296
414.979
412.393
413.144
412.483
412.758
414.325
414.507
167.815
168.06
24.664
173.258
177.225
412.729
412.59
414.284
414.72
23.9859
173.738
176.166
169.659
174.245
108.858
289.456
104.791
292.424
41.2907
96.4253
19.4287
21.7217
39.8517
100.924
19.4715
41.162
94.2995
19.4352
22.2278
39.4639
100.878
19.4725
105.418
292.254
290.867
105.359
102.026
292.78
290.12
109.971
39.6308
22.232
100.853
19.5137
96.8076
19.4753
41.2839
39.4704
22.0116
100.334
19.5074
96.2792
19.4816
41.3272
172.185
173.186
24.629
174.374
175.281
414.344
414.201
412.741
413.037
24.2196
173.361
175.445
171.948
172.846
413.952
414.561
43.6925
103.723
19.6074
22.4205
43.3456
104.805
19.8153
115.41
291.789
107.511
295.685
44.1445
19.7265
96.6681
22.3703
42.7896
19.7709
103.684
112.688
293.671
292.282
114.498
42.9414
22.2186
104.8
19.8127
97.3187
19.7852
44.0282
112.561
295.162
291.479
114.654
43.0443
22.1781
19.7972
104.15
19.7763
101.167
43.7748
114.912
292.713
110.139
295.418
43.4123
19.6336
95.4099
22.5936
42.1122
19.7067
104.183
113.844
293.77
108.835
295.224
42.7168
22.1784
100.211
19.6211
97.5556
19.6921
42.263
112.846
295.109
291.25
114.646
41.9797
22.3
19.769
104.117
19.7328
96.0625
43.523
108.224
295.491
290.541
114.164
174.403
167.083
24.5961
176.195
172.562
412.392
412.675
414.362
414.25
23.9164
175.656
173.573
172.604
169.12
412.565
412.771
41.1027
19.368
98.9617
21.9195
39.2513
19.5289
101.138
109.467
288.892
106.448
292.937
109.35
289.095
104.402
293.208
39.7738
22.1212
19.379
102.238
19.3991
95.042
40.9892
39.5294
21.8915
19.549
101.818
19.4255
99.5482
41.3415
104.248
292.572
289.05
109.256
104.823
293.247
291.329
109.658
414.581
414.214
412.96
412.802
24.3845
173.323
173.712
170.984
166.717
414.005
414.88
412.466
413.018
412.583
412.425
414.399
414.255
170.196
173.701
24.7394
173.252
176.026
412.369
412.535
414.144
414.449
24.3903
173.889
176.247
170.81
173.52
109.509
291.002
106.567
292.464
40.9169
92.7434
19.4098
22.2238
39.4714
101.563
19.4102
40.9057
95.0277
19.4194
21.9054
39.2714
100.648
19.373
106.782
292.959
289.945
109.542
105.261
292.42
288.523
109.333
39.1729
22.0032
101.136
19.5137
94.772
19.3745
41.0636
39.3131
22.1245
100.478
19.5035
94.1213
19.4512
40.9257
167.992
167.436
24.5951
173.769
176.434
414.238
414.295
411.934
412.215
24.016
173.191
176.182
168.033
167.482
413.504
414.321
43.4925
102.075
19.6551
22.5301
43.3399
103.639
19.7242
114.321
291.781
105.037
294.908
43.5639
19.6734
98.4151
22.1821
42.9936
19.7085
103.763
106.198
295.04
294.159
114.548
41.7866
22.3833
104.884
19.7876
100.846
19.7511
43.1505
111.213
294.689
292.19
113.394
40.4547
22.1276
19.7422
103.808
19.7154
99.3615
43.1391
114.855
291.269
111.469
295.032
43.8272
19.6673
95.9839
22.4878
40.752
19.7296
104.567
114.678
293.777
109.601
295.166
41.3956
22.3806
103.063
19.7771
96.0025
19.706
44.3719
112.864
294.837
293.037
114.892
40.8116
22.4916
19.7621
104.489
19.7228
96.2724
44.0218
112.938
295.046
293.908
114.819
171.456
171.063
24.5404
176.305
173.169
412.877
412.319
413.64
413.948
24.074
175.908
173.624
172.923
165.926
411.882
412.861
41.5446
19.4892
96.8568
22.2375
39.9891
19.5169
100.902
110.11
288.502
104.839
292.861
109.804
291.797
105.193
292.795
39.036
22.1293
19.5125
102.424
19.4959
94.5715
41.1774
38.9679
22.1434
19.5452
100.748
19.5251
96.4808
41.7565
106.39
292.539
290.697
109.388
104.409
292.262
290.819
109.889
414.736
414.408
412.864
412.776
24.1925
177.699
174.325
169.614
171.32
413.698
414.602
412.18
413.24
412.085
411.561
414.172
413.633
165.841
173.873
24.5599
174.562
176.198
409.464
412.006
411.694
413.813
24.0638
173.374
176.575
166.265
173.369
108.583
290.264
103.971
292.215
40.7576
96.3201
19.4719
21.7273
39.2914
101.036
19.4935
40.8477
95.6415
19.4334
21.9138
39.5658
100.889
19.4697
101.946
290.165
289.579
108.515
103.792
290.981
288.543
110.859
39.0998
22.224
99.8222
19.5285
94.8878
19.5025
41.176
39.2054
21.8711
99.9337
19.2973
96.4962
19.3981
41.3382
169.805
168.228
24.5237
174.4
176.133
414.026
413.619
409.113
411.623
23.9743
173.231
175.082
166.177
167.723
410.388
413.878
42.8424
101.449
19.6901
22.4041
41.3539
103.873
19.7276
113.017
292.047
110.93
294.234
43.0193
19.6328
100.144
22.4525
42.0968
19.6766
104.025
109.324
293.743
293.766
112.415
41.469
22.4387
102.473
19.7602
100.814
19.7378
42.5815
110.141
292.733
293.446
111.04
41.2367
22.4585
19.7159
103.678
19.6914
100.301
42.5171
113.76
293.732
109.358
294.303
43.1147
19.5897
101.711
22.5164
41.5292
19.7982
103.519
113.494
291.766
109.189
294.29
40.9287
22.4067
101.261
19.7944
97.7681
19.6504
43.0063
106.02
292.482
290.963
111.719
41.1046
22.2974
19.7967
103.699
19.781
95.8992
42.8473
104.624
292.72
291.658
113.378
170.585
168.418
24.52
175.679
173.926
412.578
411.187
411.061
413.752
24.1573
175.339
172.534
172.268
167.771
409.071
412.082
41.3454
19.4491
95.4606
22.1806
40.424
19.4875
101.034
109.944
288.91
107.083
291.79
110.379
289.472
100.934
291.919
40.547
21.8199
19.3045
100.423
19.3943
99.2261
39.9492
39.1285
21.8991
19.3223
100.186
19.4196
95.6514
41.7392
102.41
291.301
290.577
110.787
103.649
291.541
291.45
110.652
414.668
413.42
412.596
411.745
24.1225
176.596
174.115
174.359
167.221
410.978
414.148
409.404
412.453
411.584
405.616
412.258
405.515
171.348
169.746
24.8541
174.62
175.968
604.069
410.054
605.335
410.757
24.7188
194.243
192.383
173.803
175.529
114.472
291.326
109.563
291.276
44.0766
96.5397
19.4974
22.3016
39.6548
104.462
19.8732
43.0877
96.4181
19.482
22.33
40.5645
103.243
19.8923
108.274
976.977
286.278
115.711
112.301
976.957
286.138
120.77
43.2606
22.8183
246.685
21.4112
103.758
19.9089
45.0985
42.2531
22.7944
246.458
21.4228
100.802
19.9315
46.9223
166.879
168.021
24.7644
174.881
174.665
411.867
405.216
603.768
410.211
24.7749
194.603
193.414
174.47
170.309
604.648
409.911
41.1503
100.116
19.6235
22.3586
39.4345
104.172
19.6564
115.311
292.473
106.988
290.281
43.1277
19.5969
94.8251
22.0394
40.6883
19.6359
103.896
111.152
977.034
286.548
116.642
41.2123
22.8624
246.6
21.4335
101.553
19.9016
46.4506
114.544
977.342
286.505
122.367
42.6564
22.6704
21.3773
246.705
19.8646
101.974
46.9314
115.365
293.031
112.067
290.757
43.77
19.6533
99.8098
22.3887
40.5179
19.6952
103.764
114.029
293.213
107.405
290.648
42.398
22.8952
247.374
21.5059
103.522
19.9873
46.7841
111.89
977.188
287.24
124.929
42.1921
22.9645
21.4611
248.074
19.9181
98.8785
47.381
109.802
977.743
287.069
124.382
173.208
167.888
24.2977
175.001
173.736
411.415
405.483
604.371
410.574
25.0097
190.845
192.004
174.442
169.928
604.696
409.99
43.4516
19.4033
95.7605
22.3162
41.3516
19.7436
103.876
111.806
291.663
108.694
290.091
114.828
291.563
106.631
290.364
41.982
23.0555
21.5117
247.075
19.9653
103.152
47.2236
41.864
22.8042
21.5758
247.819
19.996
97.7111
46.75
109.242
976.903
286.279
123.899
113.242
977.535
286.789
118.895
412.157
405.463
411.264
405.857
25.2703
188.486
200.372
170.218
175.152
606.166
410.169
603.826
410.286
1572.36
540.16
1568.54
539.246
334.888
338.8
25.269
333.313
332.69
26.1068
300.879
300.267
119.165
1693.97
168.518
368.682
49.3544
268.582
20.4141
22.3338
54.5203
215.853
20.9256
50.0008
268.279
20.3858
22.3409
53.5251
215.33
21.0738
41.0583
22.7544
201.419
21.5767
41.5148
23.2325
201.114
21.1984
335.642
338.589
25.1175
332.619
333.444
1573.68
539.774
26.0269
301.073
301.057
49.6409
268.714
20.2669
22.3457
59.1045
215.819
21.0267
119.253
1694.19
169.96
369.151
49.8981
20.2507
268.46
22.268
53.6035
20.8227
215.713
41.4208
22.7214
201.218
21.1937
41.2828
23.178
21.4246
200.964
18.7377
18.1568
18.0734
19.8828
17.6569
19.0796
19.0125
18.5676
18.0191
18.0791
19.6063
17.5875
18.8883
18.991
18.7133
18.0641
18.0846
19.6645
17.6522
19.0191
18.8931
18.6199
20.0782
19.4943
19.0397
18.7116
20.0753
19.0759
19.0108
18.5958
19.9592
19.3505
19.0056
18.706
20.0076
19.0114
19.399
118.213
1693.71
170.151
369.628
50.1532
20.2656
270.832
22.3336
53.5434
21.0217
216.934
118.132
1693.86
169.933
370.001
41.8207
22.7657
201.998
21.2583
41.9567
23.2506
21.2304
202.263
338.187
337.618
25.1144
333.723
333.319
1573.3
539.919
25.7105
299.981
301.713
50.5198
20.4721
268.76
22.314
54.9095
21.1725
216.092
119.582
1694.03
169.397
369.363
120.16
1694.05
172.626
369.566
41.2651
22.8941
22.064
202.077
41.6825
23.2074
21.6333
203.054
1567.31
540.485
1571.13
540.495
26.0837
302.376
302.886
506.69
505.976
107.544
356.933
107.844
356.168
505.843
506.385
107.365
356.934
107.573
356.11
110.049
356.836
110.438
357.178
505.977
506.336
107.917
357.036
108.542
357.202
506.716
506.809
414.102
416.832
416.842
230.2
305.238
65.8645
123.542
304.51
64.6195
123.159
329.191
107.675
304.391
126.085
301.778
124.359
327.929
429.28
182.548
289.866
429.733
177.387
327.291
103.171
304.882
126.948
328.263
302.418
118.946
429.691
182.901
290.421
177.07
429.82
412.31
412.345
332.751
112.669
131.758
308.401
130.122
307.928
330.618
431.915
186.807
290.746
432.566
181.756
332.311
107.702
131.9
308.746
332.42
125.235
305.786
432.166
187.273
294.677
181.399
432.282
413.915
413.791
229.988
416.413
416.607
417.444
416.326
223.489
122.939
66.2636
305.689
171.833
121.337
63.1538
303.937
122.057
64.8578
305.872
165.19
120.401
62.8721
301.341
229.005
417.334
417.01
228.874
417.435
416.214
118.759
306.483
171.104
66.6177
62.7008
303.857
120.806
116.32
304.795
172.097
64.7077
61.3886
304.706
114.136
329.46
107.851
304.483
126.639
303.881
124.899
326.068
430.237
185.019
291.147
430.251
179.733
328.903
102.598
305.288
127.834
327.763
301.147
119.265
430.108
183.913
290.108
178.482
430.087
412.506
412.753
333.181
112.813
131.967
308.469
130.301
307.984
330.026
432.686
188.306
293.293
432.575
182.866
332.773
107.897
132.714
309.47
331.483
125.108
305.715
432.669
187.761
292.567
182.2
432.54
414.094
414.107
230.841
416.8
416.908
417.537
417.448
224.511
124.406
66.8387
306.523
169.617
118.19
62.1772
301.827
123.002
64.3408
305.738
165.893
116.725
59.8873
303.926
226.523
417.063
417.139
228.783
416.923
417.013
121.537
306.083
175.878
67.0078
66.2235
305.773
119.555
121.104
305.711
172.624
65.0628