/*--------------------------------*- C++ -*----------------------------------*\
| =========                 |                                                 |
| \\      /  F ield         | OpenFOAM: The Open Source CFD Toolbox           |
|  \\    /   O peration     | Version:  2206                                  |
|   \\  /    A nd           | Website:  www.openfoam.com                      |
|    \\/     M anipulation  |                                                 |
\*---------------------------------------------------------------------------*/
FoamFile
{
    version     2.0;
    format      ascii;
    arch        "LSB;label=32;scalar=64";
    class       volScalarField;
    location    "60";
    object      p;
}
// * * * * * * * * * * * * * * * * * * * * * * * * * * * * * * * * * * * * * //

dimensions      [0 2 -2 0 0 0 0];

internalField   nonuniform List<scalar> 
66940
(
-0.0183377
-0.0183379
-0.0183379
-0.0183254
-0.018543
-0.018543
-0.0185431
-0.0185305
-0.0187482
-0.0187483
-0.0187483
-0.0187358
-0.0189532
-0.0189532
-0.0189532
-0.0189406
-0.0191583
-0.0191582
-0.0191582
-0.0191455
-0.0193636
-0.0193633
-0.0193633
-0.0193503
-0.0195694
-0.0195684
-0.0195685
-0.0195547
-0.0197759
-0.019773
-0.0197732
-0.0197583
-0.0199827
-0.0199749
-0.0199753
-0.0199601
-0.0201803
-0.0201655
-0.0201662
-0.0201587
-0.0202607
-0.0202845
-0.020285
-0.0203415
-0.019094
-0.0197471
-0.0197011
-0.0202133
-0.0182988
-0.0182864
-0.0182863
-0.0182989
-0.0182862
-0.0182862
-0.0182862
-0.0182861
-0.0182988
-0.0182864
-0.0182864
-0.0182989
-0.0183253
-0.018504
-0.0183378
-0.0183379
-0.0184916
-0.0184916
-0.0183254
-0.018504
-0.0183378
-0.0183377
-0.0184916
-0.0184916
-0.0183379
-0.0184915
-0.0184916
-0.0183253
-0.018504
-0.018338
-0.0184916
-0.0184916
-0.018504
-0.0185305
-0.0187093
-0.018543
-0.018543
-0.0186968
-0.0186968
-0.0185305
-0.0187093
-0.018543
-0.0185429
-0.0186968
-0.0186968
-0.0185429
-0.0186968
-0.0186968
-0.0185305
-0.0187093
-0.018543
-0.0186968
-0.0186968
-0.0187093
-0.0187358
-0.0189142
-0.0187483
-0.0187482
-0.0189017
-0.0189017
-0.0187358
-0.0189142
-0.0187483
-0.0187482
-0.0189017
-0.0189017
-0.0187481
-0.0189017
-0.0189017
-0.0187358
-0.0189142
-0.0187484
-0.0189017
-0.0189017
-0.0189142
-0.0189407
-0.0191193
-0.0189532
-0.0189531
-0.0191068
-0.0191068
-0.0189406
-0.0191193
-0.0189532
-0.0189531
-0.0191067
-0.0191067
-0.0189531
-0.0191067
-0.0191067
-0.0189406
-0.0191193
-0.0189532
-0.0191067
-0.0191067
-0.0191193
-0.0191455
-0.0193245
-0.0191582
-0.0191582
-0.0193119
-0.019312
-0.0191455
-0.0193245
-0.0191582
-0.0191582
-0.0193119
-0.0193119
-0.0191581
-0.0193119
-0.0193119
-0.0191455
-0.0193245
-0.0191583
-0.0193118
-0.0193119
-0.0193245
-0.0193502
-0.01953
-0.0193633
-0.0193633
-0.0195173
-0.0195173
-0.0193502
-0.0195299
-0.0193633
-0.0193633
-0.0195173
-0.0195173
-0.0193632
-0.0195173
-0.0195173
-0.0193503
-0.0195299
-0.0193634
-0.0195172
-0.0195172
-0.0195299
-0.0195546
-0.0197356
-0.0195684
-0.0195684
-0.0197233
-0.0197232
-0.0195546
-0.0197356
-0.0195684
-0.0195684
-0.0197233
-0.0197232
-0.0195683
-0.0197232
-0.0197232
-0.0195547
-0.0197356
-0.0195686
-0.0197231
-0.0197231
-0.0197355
-0.0197581
-0.0199417
-0.0197729
-0.019773
-0.0199311
-0.019931
-0.0197582
-0.0199417
-0.0197729
-0.019773
-0.0199312
-0.0199311
-0.0197729
-0.0199311
-0.0199311
-0.0197583
-0.0199416
-0.0197732
-0.0199308
-0.0199308
-0.0199416
-0.0199598
-0.0201487
-0.0199749
-0.019975
-0.0201447
-0.0201444
-0.01996
-0.0201486
-0.0199748
-0.0199749
-0.0201449
-0.0201447
-0.0199748
-0.0201448
-0.0201449
-0.0199601
-0.0201486
-0.0199753
-0.0201441
-0.0201441
-0.0201486
-0.0201582
-0.020347
-0.0201654
-0.0201658
-0.0203599
-0.0203593
-0.0201588
-0.0203467
-0.0201654
-0.0201655
-0.0203602
-0.0203603
-0.0201654
-0.0203604
-0.0203608
-0.0201586
-0.0203468
-0.0201661
-0.0203587
-0.0203586
-0.0203469
-0.020341
-0.0202948
-0.0202832
-0.020284
-0.0202993
-0.0202938
-0.0203428
-0.0203055
-0.0202849
-0.0202844
-0.0202941
-0.0202978
-0.0202845
-0.0203036
-0.0202972
-0.0203413
-0.0202947
-0.0202848
-0.0202959
-0.0202974
-0.0202952
-0.0202129
-0.0197024
-0.0196948
-0.020237
-0.019702
-0.0197056
-0.0190578
-0.0190965
-0.0190954
-0.0197059
-0.0202129
-0.0197002
-0.0181959
-0.0182863
-0.0182861
-0.0182863
-0.0182861
-0.0181953
-0.0181839
-0.0181955
-0.018184
-0.0181959
-0.018196
-0.0181958
-0.0184014
-0.0183252
-0.0183255
-0.0184014
-0.0183252
-0.0184014
-0.0184017
-0.0183252
-0.0183251
-0.0184016
-0.0183379
-0.0183377
-0.0183379
-0.0184916
-0.0184916
-0.0184916
-0.0184916
-0.0184007
-0.0183259
-0.0183379
-0.018389
-0.0183261
-0.0184009
-0.018389
-0.0183252
-0.0184015
-0.0184003
-0.0183378
-0.0183261
-0.018389
-0.0183265
-0.0183889
-0.0184006
-0.0183252
-0.0183254
-0.0184015
-0.0184016
-0.0184012
-0.0186066
-0.0185304
-0.0185305
-0.0186066
-0.0185304
-0.0186066
-0.0186068
-0.0185302
-0.0185301
-0.0186067
-0.0185429
-0.0185429
-0.0185429
-0.0186968
-0.0186968
-0.0186968
-0.0186968
-0.0186059
-0.0185309
-0.0185429
-0.0185941
-0.0185311
-0.018606
-0.018594
-0.0185303
-0.0186067
-0.0186055
-0.018543
-0.0185312
-0.0185941
-0.0185316
-0.0185941
-0.0186058
-0.0185303
-0.0185306
-0.0186067
-0.0186066
-0.0186065
-0.0188117
-0.0187359
-0.018736
-0.0188118
-0.0187359
-0.0188118
-0.018812
-0.0187357
-0.0187355
-0.0188119
-0.0187482
-0.0187482
-0.0187481
-0.0189017
-0.0189017
-0.0189017
-0.0189017
-0.018811
-0.0187363
-0.0187481
-0.0187992
-0.0187364
-0.0188112
-0.0187992
-0.0187357
-0.0188119
-0.0188106
-0.0187482
-0.0187366
-0.0187992
-0.018737
-0.0187992
-0.018811
-0.0187356
-0.018736
-0.0188118
-0.0188119
-0.0188115
-0.0190166
-0.0189406
-0.0189407
-0.0190166
-0.0189406
-0.0190167
-0.0190169
-0.0189404
-0.0189403
-0.0190168
-0.0189531
-0.0189531
-0.0189531
-0.0191066
-0.0191067
-0.0191067
-0.0191067
-0.0190159
-0.0189412
-0.018953
-0.0190041
-0.0189413
-0.0190161
-0.0190041
-0.0189405
-0.0190168
-0.0190155
-0.0189531
-0.0189414
-0.0190041
-0.0189418
-0.0190041
-0.0190159
-0.0189405
-0.0189408
-0.0190167
-0.0190167
-0.0190166
-0.0192217
-0.0191457
-0.0191457
-0.0192218
-0.0191457
-0.0192217
-0.019222
-0.0191455
-0.0191454
-0.0192219
-0.0191582
-0.0191582
-0.0191582
-0.0193117
-0.0193117
-0.0193117
-0.0193117
-0.019221
-0.0191462
-0.019158
-0.0192092
-0.0191463
-0.0192213
-0.0192093
-0.0191456
-0.0192219
-0.0192206
-0.0191581
-0.0191465
-0.0192092
-0.0191468
-0.0192093
-0.019221
-0.0191455
-0.0191458
-0.0192218
-0.0192219
-0.0192215
-0.0194269
-0.0193508
-0.0193508
-0.0194269
-0.0193508
-0.019427
-0.0194272
-0.0193506
-0.0193505
-0.0194271
-0.0193636
-0.0193636
-0.0193636
-0.0195165
-0.0195165
-0.0195165
-0.0195165
-0.0194261
-0.0193514
-0.019363
-0.0194145
-0.0193514
-0.0194265
-0.0194147
-0.0193507
-0.0194271
-0.0194257
-0.0193631
-0.0193517
-0.0194144
-0.0193518
-0.0194146
-0.0194262
-0.0193507
-0.0193509
-0.0194271
-0.019427
-0.0194269
-0.0196322
-0.0195561
-0.0195561
-0.0196322
-0.0195561
-0.0196322
-0.0196326
-0.0195559
-0.0195557
-0.0196324
-0.0195694
-0.0195694
-0.0195694
-0.019721
-0.019721
-0.019721
-0.019721
-0.0196313
-0.0195568
-0.019568
-0.0196201
-0.0195563
-0.019632
-0.0196204
-0.019556
-0.0196324
-0.0196308
-0.0195682
-0.0195571
-0.01962
-0.0195568
-0.0196203
-0.0196317
-0.019556
-0.0195562
-0.0196327
-0.0196325
-0.0196321
-0.0198376
-0.0197615
-0.0197614
-0.0198375
-0.0197615
-0.0198376
-0.019838
-0.0197614
-0.019761
-0.0198377
-0.0197759
-0.0197759
-0.0197759
-0.0199247
-0.0199247
-0.0199247
-0.0199248
-0.0198359
-0.0197626
-0.0197727
-0.0198267
-0.0197608
-0.0198375
-0.0198268
-0.0197615
-0.0198377
-0.0198355
-0.0197729
-0.0197629
-0.0198265
-0.0197614
-0.0198265
-0.0198373
-0.0197615
-0.0197617
-0.0198385
-0.0198378
-0.0198377
-0.020043
-0.0199672
-0.0199666
-0.0200427
-0.0199674
-0.0200424
-0.0200433
-0.0199671
-0.0199663
-0.0200428
-0.0199827
-0.0199827
-0.0199826
-0.0201281
-0.0201279
-0.020128
-0.0201281
-0.0200392
-0.0199689
-0.0199756
-0.0200369
-0.0199639
-0.0200433
-0.0200352
-0.0199674
-0.0200426
-0.0200388
-0.0199761
-0.0199692
-0.0200364
-0.0199646
-0.0200347
-0.020043
-0.0199674
-0.0199677
-0.020045
-0.020043
-0.0200426
-0.0202492
-0.0201739
-0.0201712
-0.0202489
-0.0201749
-0.020248
-0.0202495
-0.0201738
-0.0201709
-0.0202491
-0.0201805
-0.0201804
-0.0201802
-0.0203151
-0.0203143
-0.0203148
-0.0203151
-0.0202383
-0.0201768
-0.0201674
-0.0202548
-0.0201614
-0.020251
-0.0202488
-0.0201749
-0.0202481
-0.0202378
-0.0201678
-0.020177
-0.0202536
-0.0201623
-0.020248
-0.0202507
-0.0201751
-0.0201753
-0.0202515
-0.0202483
-0.0202482
-0.0204761
-0.0203865
-0.0203727
-0.0204994
-0.0203922
-0.0204935
-0.0204772
-0.020387
-0.0203723
-0.0204996
-0.0202617
-0.0202612
-0.0202608
-0.0200387
-0.0200208
-0.0200386
-0.0200393
-0.0204038
-0.0203861
-0.0202633
-0.0204234
-0.0203311
-0.0204814
-0.020411
-0.0203925
-0.0204938
-0.0204007
-0.0202604
-0.0203859
-0.0204224
-0.0203332
-0.0204096
-0.0204802
-0.0203899
-0.0203898
-0.0204007
-0.0204879
-0.020487
-0.0209449
-0.0207178
-0.0205939
-0.0217812
-0.0207936
-0.0220133
-0.0209419
-0.0207184
-0.0205947
-0.0217812
-0.0173896
-0.0195527
-0.0195565
-0.018698
-0.019483
-0.0180374
-0.0180325
-0.0200717
-0.0206194
-0.0194757
-0.0191302
-0.0202681
-0.0212465
-0.018559
-0.0207933
-0.0220122
-0.0200699
-0.0194763
-0.0206172
-0.0190974
-0.0202702
-0.0185658
-0.0212483
-0.0207509
-0.0207512
-0.0193526
-0.0215378
-0.0215378
-0.0182987
-0.0182225
-0.018299
-0.0182225
-0.0182225
-0.0182987
-0.0182989
-0.0182226
-0.0182225
-0.018196
-0.0181832
-0.0181949
-0.0182226
-0.0182986
-0.0182227
-0.0182986
-0.0182226
-0.0182987
-0.0182227
-0.0182986
-0.0182235
-0.0182347
-0.0182981
-0.0182864
-0.0182233
-0.0182344
-0.0182978
-0.0182235
-0.0182345
-0.0182981
-0.0182864
-0.0182233
-0.0182343
-0.0182978
-0.0181959
-0.0181958
-0.018196
-0.0181962
-0.0182987
-0.0182225
-0.0182223
-0.0182987
-0.0182989
-0.0182226
-0.0182225
-0.018299
-0.0182225
-0.0182223
-0.018299
-0.0182225
-0.0182991
-0.0182232
-0.018235
-0.0182983
-0.0182862
-0.0182231
-0.0182349
-0.0182982
-0.0182223
-0.018299
-0.0182225
-0.0182991
-0.0182232
-0.018235
-0.0182862
-0.0182983
-0.018235
-0.0182231
-0.0182982
-0.0181963
-0.0181962
-0.0181953
-0.018184
-0.0181841
-0.0181954
-0.0181962
-0.0181962
-0.0182232
-0.0182348
-0.0182983
-0.0182862
-0.0182231
-0.0182347
-0.0182981
-0.0182223
-0.018299
-0.0182225
-0.0182991
-0.0182232
-0.0182346
-0.0182861
-0.0182983
-0.0182346
-0.0182231
-0.0182982
-0.0182223
-0.018299
-0.0182225
-0.0182991
-0.018299
-0.0182225
-0.0182225
-0.0182989
-0.0182986
-0.0182225
-0.0182226
-0.0182987
-0.0182225
-0.0182235
-0.0182347
-0.0182864
-0.018298
-0.0182344
-0.0182233
-0.0182978
-0.0182235
-0.0182346
-0.0182864
-0.0182981
-0.0182343
-0.0182233
-0.0182978
-0.0182226
-0.0182987
-0.0182227
-0.0182986
-0.0182226
-0.0182987
-0.0182227
-0.0182986
-0.0181962
-0.0181959
-0.0182223
-0.0182988
-0.0182987
-0.0182225
-0.0182226
-0.0182989
-0.0182225
-0.0182987
-0.0182225
-0.0183252
-0.0184015
-0.0183252
-0.0184015
-0.0183253
-0.0183253
-0.0184015
-0.0184013
-0.0184014
-0.0185039
-0.018428
-0.018504
-0.0184278
-0.0184279
-0.0185038
-0.0185039
-0.0184281
-0.0184279
-0.0184014
-0.0183252
-0.0183255
-0.0184014
-0.0184003
-0.018326
-0.0183378
-0.0183889
-0.0183265
-0.0184007
-0.0183889
-0.0184003
-0.0183261
-0.0183378
-0.018389
-0.0183265
-0.0184006
-0.0183889
-0.018428
-0.0185039
-0.018428
-0.0185039
-0.018428
-0.018504
-0.018428
-0.0185038
-0.018429
-0.0184405
-0.0185032
-0.0184916
-0.0184288
-0.0184405
-0.0185029
-0.018429
-0.0184405
-0.0185032
-0.0184916
-0.0184288
-0.0184405
-0.0185029
-0.0183254
-0.0183253
-0.0184015
-0.0184012
-0.0184016
-0.0183252
-0.0184016
-0.018504
-0.018428
-0.0184279
-0.0185039
-0.0185039
-0.0184281
-0.0184279
-0.018504
-0.0184278
-0.0184007
-0.0183259
-0.0183377
-0.0183889
-0.018326
-0.0184009
-0.0183889
-0.0184017
-0.0183252
-0.0183251
-0.0184015
-0.0184008
-0.0183377
-0.0183259
-0.0183889
-0.018326
-0.0183889
-0.0184009
-0.0184276
-0.018504
-0.0184278
-0.0185041
-0.0184286
-0.0184404
-0.0185034
-0.0184915
-0.0184285
-0.0184404
-0.0185032
-0.0184276
-0.018504
-0.0184278
-0.0185041
-0.0184286
-0.0184405
-0.0184916
-0.0185034
-0.0184405
-0.0184285
-0.0185032
-0.0184017
-0.0183252
-0.0183251
-0.0184016
-0.0184008
-0.0183379
-0.0183259
-0.0183891
-0.0183261
-0.0183891
-0.0184009
-0.0184017
-0.0183252
-0.0183252
-0.0184016
-0.0184286
-0.0184404
-0.0185034
-0.0184915
-0.0184285
-0.0184403
-0.0185032
-0.0184276
-0.018504
-0.0184278
-0.0185041
-0.0184286
-0.0184403
-0.0184916
-0.0185034
-0.0184404
-0.0184285
-0.0185032
-0.0184276
-0.018504
-0.0184278
-0.0185041
-0.0183253
-0.0183253
-0.0184015
-0.0184015
-0.0184013
-0.0183252
-0.0184014
-0.018504
-0.0184278
-0.018428
-0.018504
-0.0185038
-0.0184279
-0.0184281
-0.018504
-0.018428
-0.0184003
-0.0183379
-0.0183261
-0.018389
-0.0183265
-0.0183889
-0.0184006
-0.0184014
-0.0183252
-0.0183255
-0.0184014
-0.0184014
-0.0183252
-0.0183255
-0.0184014
-0.0184291
-0.0184405
-0.0184916
-0.0185032
-0.0184404
-0.0184288
-0.0185029
-0.0184291
-0.0184406
-0.0184916
-0.0185032
-0.0184405
-0.0184288
-0.0185029
-0.0184281
-0.018504
-0.018428
-0.0185039
-0.018428
-0.018504
-0.018428
-0.0185039
-0.0183252
-0.0184016
-0.0183252
-0.0184014
-0.018428
-0.0185039
-0.0185039
-0.0184278
-0.0184282
-0.018504
-0.0184278
-0.018504
-0.018428
-0.0185304
-0.0186066
-0.0185302
-0.0186066
-0.0185305
-0.0185303
-0.0186066
-0.0186065
-0.0186065
-0.0187094
-0.0186332
-0.0187094
-0.018633
-0.0186332
-0.0187093
-0.0187094
-0.0186333
-0.0186331
-0.0186066
-0.0185304
-0.0185306
-0.0186066
-0.0186055
-0.0185312
-0.0185429
-0.0185941
-0.0185316
-0.0186058
-0.0185941
-0.0186055
-0.0185312
-0.0185429
-0.0185941
-0.0185316
-0.0186058
-0.0185941
-0.0186333
-0.0187094
-0.0186332
-0.0187093
-0.0186333
-0.0187094
-0.0186332
-0.0187093
-0.0186343
-0.0186457
-0.0187086
-0.0186968
-0.018634
-0.0186457
-0.0187082
-0.0186343
-0.0186457
-0.0187086
-0.0186968
-0.018634
-0.0186457
-0.0187083
-0.0185305
-0.0185303
-0.0186066
-0.0186065
-0.0186066
-0.0185302
-0.0186066
-0.0187094
-0.0186332
-0.0186332
-0.0187093
-0.0187093
-0.0186333
-0.0186331
-0.0187094
-0.018633
-0.0186058
-0.0185309
-0.0185429
-0.018594
-0.018531
-0.018606
-0.018594
-0.0186068
-0.0185302
-0.0185301
-0.0186067
-0.0186059
-0.0185429
-0.0185309
-0.018594
-0.0185311
-0.018594
-0.018606
-0.0186328
-0.0187095
-0.018633
-0.0187096
-0.0186338
-0.0186457
-0.0187088
-0.0186968
-0.0186337
-0.0186456
-0.0187086
-0.0186328
-0.0187095
-0.018633
-0.0187096
-0.0186338
-0.0186457
-0.0186968
-0.0187088
-0.0186457
-0.0186337
-0.0187086
-0.0186068
-0.0185302
-0.0185301
-0.0186067
-0.0186059
-0.0185429
-0.0185309
-0.0185941
-0.0185311
-0.018594
-0.018606
-0.0186068
-0.0185302
-0.0185301
-0.0186067
-0.0186338
-0.0186457
-0.0187087
-0.0186967
-0.0186337
-0.0186456
-0.0187086
-0.0186328
-0.0187095
-0.018633
-0.0187095
-0.0186338
-0.0186457
-0.0186968
-0.0187087
-0.0186457
-0.0186337
-0.0187086
-0.0186328
-0.0187094
-0.018633
-0.0187095
-0.0185303
-0.0185305
-0.0186066
-0.0186066
-0.0186065
-0.0185304
-0.0186067
-0.0187095
-0.018633
-0.0186332
-0.0187094
-0.0187092
-0.0186331
-0.0186333
-0.0187094
-0.0186332
-0.0186055
-0.0185429
-0.0185313
-0.0185941
-0.0185316
-0.0185941
-0.0186059
-0.0186066
-0.0185305
-0.0185306
-0.0186066
-0.0186066
-0.0185305
-0.0185306
-0.0186066
-0.0186343
-0.0186457
-0.0186968
-0.0187086
-0.0186457
-0.018634
-0.0187082
-0.0186343
-0.0186458
-0.0186968
-0.0187086
-0.0186457
-0.018634
-0.0187082
-0.0186333
-0.0187094
-0.0186333
-0.0187093
-0.0186333
-0.0187094
-0.0186333
-0.0187093
-0.0185302
-0.0186066
-0.0185305
-0.0186067
-0.0186332
-0.0187093
-0.0187093
-0.0186331
-0.0186333
-0.0187094
-0.018633
-0.0187094
-0.0186332
-0.0187359
-0.0188118
-0.0187357
-0.0188119
-0.0187359
-0.0187358
-0.0188118
-0.0188117
-0.0188118
-0.0189141
-0.0188382
-0.0189142
-0.0188381
-0.0188382
-0.018914
-0.0189142
-0.0188383
-0.0188382
-0.0188117
-0.0187359
-0.018736
-0.0188117
-0.0188107
-0.0187366
-0.0187482
-0.0187992
-0.018737
-0.018811
-0.0187992
-0.0188107
-0.0187366
-0.0187482
-0.0187992
-0.018737
-0.0188109
-0.0187992
-0.0188383
-0.0189141
-0.0188382
-0.018914
-0.0188383
-0.0189141
-0.0188382
-0.018914
-0.0188393
-0.0188507
-0.0189134
-0.0189017
-0.018839
-0.0188507
-0.018913
-0.0188393
-0.0188508
-0.0189134
-0.0189017
-0.018839
-0.0188507
-0.018913
-0.018736
-0.0187357
-0.0188118
-0.0188115
-0.0188119
-0.0187357
-0.0188119
-0.0189142
-0.0188382
-0.0188382
-0.0189141
-0.0189142
-0.0188383
-0.0188382
-0.0189142
-0.018838
-0.018811
-0.0187364
-0.0187481
-0.0187992
-0.0187365
-0.0188112
-0.0187991
-0.018812
-0.0187357
-0.0187356
-0.0188119
-0.018811
-0.0187481
-0.0187363
-0.0187991
-0.0187365
-0.0187992
-0.0188112
-0.0188379
-0.0189143
-0.018838
-0.0189144
-0.0188388
-0.0188507
-0.0189136
-0.0189017
-0.0188388
-0.0188506
-0.0189134
-0.0188379
-0.0189143
-0.018838
-0.0189144
-0.0188388
-0.0188507
-0.0189017
-0.0189136
-0.0188507
-0.0188388
-0.0189134
-0.018812
-0.0187357
-0.0187355
-0.0188119
-0.018811
-0.0187481
-0.0187363
-0.0187992
-0.0187364
-0.0187992
-0.0188112
-0.018812
-0.0187356
-0.0187355
-0.0188119
-0.0188388
-0.0188507
-0.0189136
-0.0189017
-0.0188388
-0.0188506
-0.0189134
-0.0188379
-0.0189143
-0.018838
-0.0189144
-0.0188388
-0.0188506
-0.0189017
-0.0189136
-0.0188506
-0.0188387
-0.0189135
-0.0188379
-0.0189143
-0.018838
-0.0189144
-0.0187358
-0.0187359
-0.0188118
-0.0188118
-0.0188116
-0.0187358
-0.0188118
-0.0189142
-0.018838
-0.0188382
-0.0189142
-0.018914
-0.0188381
-0.0188383
-0.0189141
-0.0188382
-0.0188106
-0.0187482
-0.0187366
-0.0187992
-0.018737
-0.0187992
-0.0188109
-0.0188117
-0.0187359
-0.018736
-0.0188118
-0.0188117
-0.0187359
-0.018736
-0.0188117
-0.0188393
-0.0188508
-0.0189017
-0.0189133
-0.0188507
-0.018839
-0.018913
-0.0188393
-0.0188509
-0.0189017
-0.0189134
-0.0188507
-0.018839
-0.0189131
-0.0188383
-0.0189141
-0.0188382
-0.018914
-0.0188383
-0.0189142
-0.0188382
-0.0189141
-0.0187357
-0.0188119
-0.0187358
-0.0188117
-0.0188382
-0.0189142
-0.0189141
-0.018838
-0.0188384
-0.0189142
-0.018838
-0.0189142
-0.0188382
-0.0189406
-0.0190166
-0.0189405
-0.0190167
-0.0189407
-0.0189405
-0.0190167
-0.0190165
-0.0190167
-0.0191192
-0.0190431
-0.0191193
-0.019043
-0.0190431
-0.0191191
-0.0191192
-0.0190433
-0.0190431
-0.0190166
-0.0189406
-0.0189407
-0.0190166
-0.0190155
-0.0189414
-0.0189531
-0.0190041
-0.0189417
-0.0190159
-0.0190042
-0.0190155
-0.0189414
-0.0189531
-0.0190041
-0.0189417
-0.0190159
-0.0190042
-0.0190432
-0.0191192
-0.0190432
-0.0191191
-0.0190432
-0.0191192
-0.0190432
-0.0191191
-0.0190442
-0.0190557
-0.0191184
-0.0191068
-0.019044
-0.0190556
-0.019118
-0.0190443
-0.0190557
-0.0191185
-0.0191068
-0.019044
-0.0190556
-0.0191181
-0.0189407
-0.0189406
-0.0190167
-0.0190166
-0.0190167
-0.0189405
-0.0190168
-0.0191192
-0.0190432
-0.0190431
-0.0191191
-0.0191192
-0.0190433
-0.0190431
-0.0191193
-0.019043
-0.0190159
-0.0189412
-0.018953
-0.0190041
-0.0189413
-0.0190161
-0.0190041
-0.0190169
-0.0189404
-0.0189404
-0.0190168
-0.0190159
-0.018953
-0.0189411
-0.0190041
-0.0189413
-0.0190041
-0.0190161
-0.0190428
-0.0191193
-0.019043
-0.0191194
-0.0190438
-0.0190557
-0.0191187
-0.0191068
-0.0190437
-0.0190556
-0.0191185
-0.0190429
-0.0191193
-0.019043
-0.0191194
-0.0190438
-0.0190557
-0.0191068
-0.0191187
-0.0190556
-0.0190438
-0.0191185
-0.0190169
-0.0189405
-0.0189404
-0.0190168
-0.019016
-0.018953
-0.0189411
-0.0190041
-0.0189413
-0.0190041
-0.0190161
-0.0190169
-0.0189405
-0.0189404
-0.0190168
-0.0190438
-0.0190557
-0.0191187
-0.0191068
-0.0190438
-0.0190555
-0.0191185
-0.0190429
-0.0191193
-0.019043
-0.0191194
-0.0190438
-0.0190557
-0.0191068
-0.0191187
-0.0190556
-0.0190438
-0.0191185
-0.0190429
-0.0191193
-0.019043
-0.0191194
-0.0189406
-0.0189407
-0.0190167
-0.0190167
-0.0190165
-0.0189406
-0.0190166
-0.0191193
-0.019043
-0.0190431
-0.0191193
-0.019119
-0.0190431
-0.0190433
-0.0191191
-0.0190431
-0.0190155
-0.0189531
-0.0189415
-0.0190041
-0.0189418
-0.0190041
-0.0190159
-0.0190166
-0.0189406
-0.0189408
-0.0190166
-0.0190166
-0.0189407
-0.0189408
-0.0190166
-0.0190442
-0.0190557
-0.0191067
-0.0191184
-0.0190556
-0.019044
-0.019118
-0.0190442
-0.0190558
-0.0191068
-0.0191184
-0.0190556
-0.019044
-0.019118
-0.0190432
-0.0191191
-0.0190432
-0.019119
-0.0190432
-0.0191192
-0.0190432
-0.019119
-0.0189405
-0.0190168
-0.0189406
-0.0190167
-0.0190431
-0.0191192
-0.0191191
-0.0190431
-0.0190433
-0.0191193
-0.019043
-0.0191192
-0.0190431
-0.0191457
-0.0192218
-0.0191456
-0.0192219
-0.0191457
-0.0191456
-0.0192219
-0.0192217
-0.0192218
-0.0193243
-0.0192483
-0.0193244
-0.0192482
-0.0192479
-0.0193243
-0.0193244
-0.0192484
-0.0192483
-0.0192217
-0.0191457
-0.0191458
-0.0192217
-0.0192206
-0.0191465
-0.019158
-0.0192092
-0.0191467
-0.019221
-0.0192093
-0.0192206
-0.0191465
-0.019158
-0.0192092
-0.0191467
-0.019221
-0.0192093
-0.0192483
-0.0193243
-0.0192483
-0.0193242
-0.0192483
-0.0193243
-0.0192483
-0.0193242
-0.0192493
-0.0192608
-0.0193236
-0.0193121
-0.0192492
-0.0192606
-0.0193232
-0.0192493
-0.0192608
-0.0193236
-0.0193121
-0.0192491
-0.0192606
-0.0193232
-0.0191458
-0.0191456
-0.0192219
-0.0192215
-0.0192219
-0.0191455
-0.0192219
-0.0193243
-0.0192483
-0.0192479
-0.0193243
-0.0193244
-0.0192484
-0.0192482
-0.0193244
-0.0192481
-0.019221
-0.0191463
-0.019158
-0.0192092
-0.0191463
-0.0192212
-0.0192093
-0.019222
-0.0191455
-0.0191454
-0.0192219
-0.019221
-0.019158
-0.0191463
-0.0192092
-0.0191463
-0.0192093
-0.0192212
-0.019248
-0.0193244
-0.0192481
-0.0193246
-0.0192489
-0.0192608
-0.0193238
-0.0193121
-0.0192489
-0.0192606
-0.0193236
-0.019248
-0.0193244
-0.0192481
-0.0193245
-0.0192489
-0.0192608
-0.0193121
-0.0193238
-0.0192606
-0.0192489
-0.0193236
-0.019222
-0.0191455
-0.0191454
-0.0192219
-0.019221
-0.019158
-0.0191462
-0.0192092
-0.0191463
-0.0192093
-0.0192213
-0.019222
-0.0191455
-0.0191454
-0.0192219
-0.0192489
-0.0192608
-0.0193238
-0.0193121
-0.0192489
-0.0192605
-0.0193236
-0.019248
-0.0193244
-0.0192481
-0.0193246
-0.0192488
-0.0192607
-0.0193121
-0.0193238
-0.0192606
-0.0192489
-0.0193236
-0.019248
-0.0193244
-0.0192481
-0.0193246
-0.0191456
-0.0191457
-0.0192218
-0.0192218
-0.0192216
-0.0191456
-0.0192218
-0.0193244
-0.0192481
-0.0192479
-0.0193244
-0.0193242
-0.0192482
-0.0192484
-0.0193243
-0.0192483
-0.0192205
-0.019158
-0.0191465
-0.0192091
-0.0191468
-0.0192092
-0.0192209
-0.0192216
-0.0191457
-0.0191458
-0.0192217
-0.0192216
-0.0191457
-0.0191458
-0.0192217
-0.0192493
-0.0192608
-0.019312
-0.0193236
-0.0192606
-0.0192491
-0.0193232
-0.0192493
-0.0192609
-0.019312
-0.0193236
-0.0192606
-0.0192492
-0.0193231
-0.0192483
-0.0193243
-0.0192483
-0.0193242
-0.0192483
-0.0193243
-0.0192483
-0.0193242
-0.0191456
-0.0192219
-0.0191456
-0.0192217
-0.0192479
-0.0193244
-0.0193243
-0.0192481
-0.0192485
-0.0193244
-0.0192481
-0.0193243
-0.0192483
-0.0193508
-0.019427
-0.0193507
-0.0194271
-0.0193509
-0.0193507
-0.0194272
-0.0194269
-0.019427
-0.0195296
-0.0194535
-0.0195297
-0.0194534
-0.0194525
-0.0195296
-0.0195297
-0.0194536
-0.0194535
-0.0194269
-0.0193508
-0.0193509
-0.0194269
-0.0194257
-0.0193517
-0.019363
-0.0194145
-0.0193517
-0.0194263
-0.0194147
-0.0194257
-0.0193517
-0.019363
-0.0194145
-0.0193517
-0.0194263
-0.0194147
-0.0194535
-0.0195296
-0.0194535
-0.0195295
-0.0194535
-0.0195296
-0.0194535
-0.0195295
-0.0194543
-0.0194659
-0.019529
-0.0195176
-0.0194544
-0.0194656
-0.0195283
-0.0194543
-0.0194659
-0.019529
-0.0195176
-0.0194545
-0.0194656
-0.0195283
-0.0193509
-0.0193507
-0.0194272
-0.0194269
-0.019427
-0.0193507
-0.0194271
-0.0195296
-0.0194535
-0.0194525
-0.0195296
-0.0195297
-0.0194536
-0.0194535
-0.0195297
-0.0194534
-0.0194261
-0.0193514
-0.019363
-0.0194145
-0.0193513
-0.0194265
-0.0194147
-0.0194272
-0.0193506
-0.0193505
-0.019427
-0.0194261
-0.019363
-0.0193514
-0.0194144
-0.0193513
-0.0194147
-0.0194265
-0.0194531
-0.0195297
-0.0194534
-0.0195299
-0.0194538
-0.0194659
-0.0195292
-0.0195176
-0.0194542
-0.0194656
-0.0195287
-0.0194531
-0.0195298
-0.0194533
-0.0195299
-0.0194539
-0.0194659
-0.0195176
-0.0195292
-0.0194656
-0.0194542
-0.0195287
-0.0194272
-0.0193506
-0.0193505
-0.0194271
-0.0194261
-0.0193631
-0.0193514
-0.0194145
-0.0193514
-0.0194147
-0.0194265
-0.0194272
-0.0193506
-0.0193505
-0.0194271
-0.0194538
-0.0194659
-0.0195292
-0.0195176
-0.0194542
-0.0194655
-0.0195288
-0.0194531
-0.0195298
-0.0194534
-0.0195299
-0.0194539
-0.0194659
-0.0195176
-0.0195292
-0.0194656
-0.0194542
-0.0195288
-0.0194531
-0.0195298
-0.0194534
-0.0195299
-0.0193507
-0.0193508
-0.0194271
-0.0194271
-0.0194268
-0.0193508
-0.019427
-0.0195298
-0.0194533
-0.0194526
-0.0195298
-0.0195295
-0.0194534
-0.0194536
-0.0195296
-0.0194535
-0.0194257
-0.019363
-0.0193517
-0.0194144
-0.0193518
-0.0194146
-0.0194262
-0.0194269
-0.0193508
-0.0193509
-0.0194269
-0.0194269
-0.0193508
-0.0193509
-0.0194269
-0.0194543
-0.0194659
-0.0195175
-0.0195289
-0.0194656
-0.0194544
-0.0195283
-0.0194543
-0.019466
-0.0195175
-0.019529
-0.0194657
-0.0194545
-0.0195283
-0.0194535
-0.0195296
-0.0194535
-0.0195295
-0.0194535
-0.0195296
-0.0194535
-0.0195295
-0.0193507
-0.0194271
-0.0193508
-0.019427
-0.0194526
-0.0195297
-0.0195296
-0.0194534
-0.0194536
-0.0195297
-0.0194534
-0.0195296
-0.0194535
-0.0195561
-0.0196322
-0.019556
-0.0196324
-0.0195562
-0.019556
-0.0196327
-0.0196322
-0.0196324
-0.0197349
-0.0196588
-0.0197351
-0.0196587
-0.0196565
-0.019735
-0.0197351
-0.0196589
-0.0196588
-0.0196322
-0.0195561
-0.0195561
-0.0196322
-0.0196308
-0.0195571
-0.019568
-0.0196201
-0.0195567
-0.0196317
-0.0196204
-0.0196308
-0.0195571
-0.019568
-0.0196201
-0.0195567
-0.0196316
-0.0196203
-0.0196587
-0.0197349
-0.0196588
-0.0197349
-0.0196587
-0.0197349
-0.0196588
-0.0197349
-0.0196591
-0.0196708
-0.0197345
-0.0197235
-0.0196599
-0.0196705
-0.0197333
-0.0196591
-0.0196709
-0.0197345
-0.0197235
-0.0196599
-0.0196705
-0.0197333
-0.0195562
-0.019556
-0.0196327
-0.0196321
-0.0196325
-0.019556
-0.0196324
-0.0197349
-0.0196588
-0.0196565
-0.019735
-0.0197351
-0.0196589
-0.0196588
-0.019735
-0.0196587
-0.0196313
-0.0195569
-0.019568
-0.0196201
-0.0195563
-0.0196319
-0.0196204
-0.0196326
-0.019556
-0.0195558
-0.0196324
-0.0196313
-0.019568
-0.0195569
-0.01962
-0.0195563
-0.0196204
-0.0196319
-0.0196583
-0.0197351
-0.0196587
-0.0197353
-0.0196586
-0.0196708
-0.0197347
-0.0197236
-0.0196597
-0.0196704
-0.0197337
-0.0196584
-0.0197351
-0.0196587
-0.0197353
-0.0196586
-0.0196709
-0.0197235
-0.0197347
-0.0196706
-0.0196597
-0.0197337
-0.0196326
-0.019556
-0.0195558
-0.0196324
-0.0196313
-0.019568
-0.0195568
-0.0196201
-0.0195563
-0.0196204
-0.0196319
-0.0196326
-0.019556
-0.0195558
-0.0196324
-0.0196586
-0.0196708
-0.0197347
-0.0197235
-0.0196597
-0.0196704
-0.0197337
-0.0196584
-0.0197351
-0.0196586
-0.0197353
-0.0196586
-0.0196708
-0.0197235
-0.0197347
-0.0196706
-0.0196597
-0.0197337
-0.0196584
-0.0197351
-0.0196587
-0.0197353
-0.0195561
-0.0195561
-0.0196327
-0.0196324
-0.0196322
-0.0195561
-0.0196323
-0.0197351
-0.0196587
-0.0196567
-0.0197352
-0.019735
-0.0196588
-0.0196589
-0.0197349
-0.0196588
-0.0196308
-0.0195681
-0.0195571
-0.0196199
-0.0195568
-0.0196202
-0.0196316
-0.0196322
-0.0195561
-0.0195561
-0.0196322
-0.0196322
-0.0195561
-0.0195561
-0.0196322
-0.0196592
-0.019671
-0.0197233
-0.0197345
-0.0196706
-0.01966
-0.0197333
-0.0196591
-0.0196711
-0.0197233
-0.0197345
-0.0196707
-0.01966
-0.0197333
-0.0196587
-0.0197349
-0.0196588
-0.0197349
-0.0196587
-0.0197349
-0.0196588
-0.0197349
-0.019556
-0.0196324
-0.0195561
-0.0196322
-0.0196567
-0.0197351
-0.019735
-0.0196586
-0.019659
-0.019735
-0.0196587
-0.0197349
-0.0196588
-0.0197615
-0.0198376
-0.0197615
-0.0198377
-0.0197616
-0.0197615
-0.0198386
-0.0198376
-0.0198378
-0.0199401
-0.0198644
-0.0199402
-0.0198643
-0.0198592
-0.0199403
-0.0199404
-0.0198646
-0.0198645
-0.0198376
-0.0197615
-0.0197614
-0.0198375
-0.0198355
-0.0197628
-0.0197727
-0.0198268
-0.0197613
-0.0198373
-0.0198267
-0.0198355
-0.0197628
-0.0197727
-0.0198266
-0.0197613
-0.0198373
-0.0198266
-0.019864
-0.0199401
-0.0198643
-0.0199403
-0.019864
-0.0199401
-0.0198644
-0.0199403
-0.0198631
-0.0198745
-0.0199401
-0.0199305
-0.0198659
-0.0198747
-0.0199374
-0.0198632
-0.0198747
-0.0199402
-0.0199304
-0.019866
-0.0198748
-0.0199375
-0.0197616
-0.0197615
-0.0198386
-0.0198377
-0.0198378
-0.0197614
-0.0198377
-0.0199401
-0.0198644
-0.0198594
-0.0199403
-0.0199404
-0.0198646
-0.0198645
-0.0199402
-0.0198643
-0.0198359
-0.0197626
-0.0197726
-0.0198268
-0.0197608
-0.0198375
-0.0198268
-0.019838
-0.0197614
-0.0197611
-0.0198377
-0.0198359
-0.0197728
-0.0197626
-0.0198267
-0.0197608
-0.0198266
-0.0198375
-0.0198636
-0.0199403
-0.0198642
-0.0199406
-0.0198627
-0.0198745
-0.0199404
-0.0199307
-0.0198657
-0.0198746
-0.0199379
-0.0198636
-0.0199403
-0.0198643
-0.0199406
-0.0198627
-0.0198746
-0.0199305
-0.0199403
-0.0198748
-0.0198657
-0.0199379
-0.019838
-0.0197614
-0.019761
-0.0198377
-0.0198359
-0.0197728
-0.0197625
-0.0198267
-0.0197608
-0.0198266
-0.0198375
-0.019838
-0.0197614
-0.019761
-0.0198377
-0.0198626
-0.0198745
-0.0199403
-0.0199306
-0.0198657
-0.0198746
-0.0199379
-0.0198636
-0.0199403
-0.0198642
-0.0199406
-0.0198626
-0.0198745
-0.0199304
-0.0199403
-0.0198748
-0.0198656
-0.0199379
-0.0198636
-0.0199403
-0.0198642
-0.0199406
-0.0197616
-0.0197617
-0.0198385
-0.0198378
-0.0198376
-0.0197616
-0.0198376
-0.0199402
-0.0198643
-0.0198595
-0.0199404
-0.0199402
-0.0198645
-0.0198646
-0.01994
-0.0198644
-0.0198355
-0.0197729
-0.0197629
-0.0198265
-0.0197614
-0.0198264
-0.0198373
-0.0198376
-0.0197615
-0.0197614
-0.0198375
-0.0198376
-0.0197615
-0.0197614
-0.0198375
-0.0198633
-0.0198748
-0.0199302
-0.0199401
-0.0198749
-0.019866
-0.0199374
-0.0198633
-0.0198749
-0.0199302
-0.0199402
-0.019875
-0.019866
-0.0199375
-0.019864
-0.0199401
-0.0198644
-0.0199402
-0.019864
-0.0199401
-0.0198644
-0.0199403
-0.0197614
-0.0198377
-0.0197615
-0.0198376
-0.0198596
-0.0199403
-0.0199403
-0.0198644
-0.0198646
-0.0199402
-0.0198643
-0.0199401
-0.0198644
-0.0199674
-0.0200424
-0.0199673
-0.0200425
-0.0199676
-0.0199675
-0.0200451
-0.0200427
-0.0200428
-0.0201449
-0.0200708
-0.020145
-0.0200707
-0.0200595
-0.0201452
-0.0201453
-0.0200711
-0.0200709
-0.0200429
-0.0199672
-0.0199666
-0.0200426
-0.0200388