/*--------------------------------*- C++ -*----------------------------------*\
| =========                 |                                                 |
| \\      /  F ield         | OpenFOAM: The Open Source CFD Toolbox           |
|  \\    /   O peration     | Version:  2206                                  |
|   \\  /    A nd           | Website:  www.openfoam.com                      |
|    \\/     M anipulation  |                                                 |
\*---------------------------------------------------------------------------*/
FoamFile
{
    version     2.0;
    format      ascii;
    arch        "LSB;label=32;scalar=64";
    class       surfaceScalarField;
    location    "60";
    object      phi;
}
// * * * * * * * * * * * * * * * * * * * * * * * * * * * * * * * * * * * * * //

dimensions      [0 3 -1 0 0 0 0];

oriented        oriented;

internalField   nonuniform List<scalar> 
199822
(
-2.79427e-12
-1.13609e-12
-1.16661e-07
4.67787e-13
1.79152e-12
1.16662e-07
-1.11114e-07
-3.93222e-11
-2.62438e-13
1.34034e-12
1.11111e-07
2.98656e-11
3.98717e-11
-2.67564e-11
-5.46818e-11
5.37012e-11
5.58295e-11
-5.65043e-11
-1.12079e-07
-4.47099e-11
2.26873e-12
7.53103e-13
1.12081e-07
1.71036e-11
4.40661e-11
-1.89836e-11
-6.64977e-13
2.37469e-11
3.81274e-13
-2.58642e-11
-2.69647e-08
-1.1771e-10
1.80825e-10
-7.63963e-11
1.63355e-10
2.68146e-08
-4.85502e-12
-2.26556e-12
-1.16662e-07
2.12283e-12
3.51298e-12
1.16663e-07
-1.11112e-07
-3.9358e-11
1.58277e-12
7.87369e-13
1.1111e-07
2.96594e-11
3.99532e-11
-3.04359e-11
-5.48827e-11
5.34778e-11
5.55358e-11
-5.43033e-11
-1.12084e-07
-4.42606e-11
3.20651e-12
1.87136e-12
1.12082e-07
1.74369e-11
4.41932e-11
-1.88663e-11
-5.60323e-13
2.38228e-11
3.58003e-13
-2.57414e-11
-2.69649e-08
5.13587e-11
2.48122e-11
5.90116e-11
1.59271e-11
2.68138e-08
-6.40051e-12
-4.82408e-12
-1.16662e-07
4.60222e-12
5.59267e-12
1.16663e-07
-1.11111e-07
-3.90432e-11
3.65014e-12
1.03612e-12
1.11106e-07
3.00038e-11
4.01439e-11
-2.66647e-11
-5.52081e-11
5.31901e-11
5.53823e-11
-5.7093e-11
-1.12086e-07
-4.41588e-11
5.68259e-12
-5.12451e-13
1.12084e-07
1.75499e-11
4.41458e-11
-1.88456e-11
-5.40092e-13
2.41791e-11
6.69007e-13
-2.55885e-11
-2.69647e-08
-1.18206e-10
1.8076e-10
-7.6604e-11
1.64342e-10
2.68144e-08
-1.01743e-11
-9.23059e-12
-1.16661e-07
9.16616e-12
9.62758e-12
1.16662e-07
-1.11109e-07
-3.87246e-11
8.31202e-12
-3.38706e-12
1.11104e-07
3.03172e-11
4.04669e-11
-2.98265e-11
-5.56834e-11
5.29722e-11
5.51072e-11
-5.50477e-11
-1.12087e-07
-4.41098e-11
9.15796e-12
-1.94757e-12
1.12083e-07
1.75239e-11
4.41699e-11
-1.88934e-11
-5.28352e-13
2.42513e-11
7.25989e-13
-2.56996e-11
-2.69639e-08
5.05541e-11
2.46208e-11
5.88615e-11
1.6901e-11
2.6813e-08
-1.89705e-11
-1.70915e-11
-1.1666e-07
1.79345e-11
1.88763e-11
1.16659e-07
-1.11107e-07
-3.82908e-11
1.53377e-11
-8.72923e-12
1.111e-07
3.07474e-11
4.08863e-11
-2.57237e-11
-5.63257e-11
5.23048e-11
5.4552e-11
-5.81496e-11
-1.12088e-07
-4.36304e-11
1.97162e-11
-1.15915e-11
1.12082e-07
1.80372e-11
4.4747e-11
-1.83064e-11
-1.41535e-12
2.37478e-11
1.02572e-13
-2.62668e-11
-2.69629e-08
-1.18714e-10
1.80318e-10
-7.66874e-11
1.6475e-10
2.68132e-08
-3.66693e-11
-3.34668e-11
-1.1666e-07
3.65225e-11
3.83845e-11
1.16656e-07
-1.11104e-07
-3.78667e-11
3.18215e-11
-2.44341e-11
1.11102e-07
3.12945e-11
4.16163e-11
-2.86163e-11
-5.79299e-11
5.06939e-11
5.29539e-11
-5.72358e-11
-1.12083e-07
-4.30314e-11
3.98091e-11
-2.64416e-11
1.12078e-07
1.88184e-11
4.54901e-11
-1.74932e-11
-3.38092e-12
2.18544e-11
-1.72431e-12
-2.82613e-11
-2.69617e-08
5.00248e-11
2.38125e-11
5.89073e-11
1.68682e-11
2.68121e-08
-7.12199e-11
-6.51364e-11
-1.16664e-07
7.38263e-11
7.90619e-11
1.16648e-07
-1.111e-07
-3.70532e-11
6.2384e-11
-5.32484e-11
1.11105e-07
3.25378e-11
4.26306e-11
-2.37482e-11
-6.16029e-11
4.7109e-11
4.9295e-11
-6.31238e-11
-1.12078e-07
-4.19791e-11
7.83377e-11
-6.20363e-11
1.1208e-07
2.04987e-11
4.67797e-11
-1.58314e-11
-7.73299e-12
1.76499e-11
-5.80878e-12
-3.23219e-11
-2.69602e-08
-1.19831e-10
1.78723e-10
-7.61304e-11
1.64536e-10
2.68129e-08
-1.29916e-10
-1.16317e-10
-1.16678e-07
1.38811e-10
1.53427e-10
1.16632e-07
-1.11088e-07
-3.47114e-11
1.14389e-10
-1.16336e-10
1.11126e-07
3.58882e-11
4.51887e-11
-2.46276e-11
-7.0525e-11
4.00792e-11
4.2132e-11
-6.94683e-11
-1.12068e-07
-3.94396e-11
1.4144e-10
-1.29641e-10
1.12097e-07
2.40945e-11
4.92247e-11
-1.31496e-11
-1.70943e-11
1.0129e-11
-1.34442e-11
-4.13732e-11
-2.69577e-08
4.68059e-11
2.0385e-11
6.028e-11
1.79165e-11
2.68123e-08
-1.98276e-10
-1.72548e-10
-1.16704e-07
2.15438e-10
2.49844e-10
1.16609e-07
-1.11045e-07
-3.25924e-11
1.69068e-10
-2.3352e-10
1.11193e-07
3.98021e-11
5.24731e-11
-1.39357e-11
-8.72e-11
2.35748e-11
2.4584e-11
-9.01675e-11
-1.12029e-07
-3.74334e-11
2.19354e-10
-2.60002e-10
1.12162e-07
2.81212e-11
5.57645e-11
-6.56995e-12
-3.42625e-11
-6.47364e-12
-3.14442e-11
-5.96898e-11
-2.69519e-08
-1.23903e-10
1.74317e-10
-7.5561e-11
1.64371e-10
2.68126e-08
-1.53688e-10
-1.1486e-10
-1.16672e-07
1.28168e-10
1.93716e-10
1.16619e-07
-1.10887e-07
-4.66939e-11
1.08907e-10
-4.16824e-10
1.11396e-07
2.86132e-11
8.32659e-11
7.72556e-12
-1.05023e-10
-2.0553e-11
-2.82631e-11
-1.1994e-10
-1.11878e-07
-5.18142e-11
1.88843e-10
-4.53546e-10
1.12355e-07
1.75486e-11
8.48634e-11
1.79375e-11
-5.34618e-11
-5.07395e-11
-8.48297e-11
-9.16413e-11
-2.69405e-08
5.94454e-11
3.32219e-11
3.82919e-11
-1.34665e-12
2.68108e-08
-4.43208e-11
8.56439e-10
-1.15885e-07
-8.91954e-10
-1.13625e-09
1.17101e-07
-1.10263e-07
-1.12964e-10
-8.80182e-10
-5.4307e-10
1.11725e-07
-1.97714e-11
2.81396e-10
1.43164e-10
1.269e-11
-8.57214e-11
-1.49918e-10
-1.07492e-10
-1.11259e-07
-1.15343e-10
4.1878e-11
2.76281e-10
1.12429e-07
-2.61659e-11
2.79793e-10
7.51013e-11
-3.81916e-10
-2.50286e-10
-6.86089e-10
-3.83176e-10
-2.69156e-08
-4.07965e-11
2.5183e-10
-1.65597e-10
7.37702e-11
2.67964e-08
6.21115e-10
7.19184e-10
-1.27621e-07
-7.64101e-09
-7.73221e-09
3.02067e-08
3.01753e-08
3.03064e-08
3.03108e-08
1.78723e-09
4.80277e-09
3.76623e-09
1.81603e-09
4.75844e-09
3.7228e-09
-2.69349e-08
-3.2059e-09
1.45891e-10
-3.51581e-09
1.78903e-09
3.17216e-08
-2.5743e-08
-7.17093e-10
-2.73401e-09
9.60563e-10
-3.07693e-09
3.13104e-08
-2.70974e-08
2.73295e-09
2.73086e-09
-2.90306e-09
-2.58934e-09
2.71261e-08
-3.66386e-11
-4.00722e-11
2.69514e-08
-2.68008e-08
-3.71665e-11
-3.66947e-11
1.13135e-07
-5.03045e-13
-1.13134e-07
5.8947e-14
-3.60966e-11
-1.39434e-11
1.30078e-11
-2.31553e-11
-2.3995e-11
2.27976e-11
2.34017e-11
3.68852e-11
1.13163e-07
-8.23306e-13
-1.13164e-07
1.46364e-12
-3.58012e-11
-1.44518e-11
1.40972e-11
-2.29338e-11
-2.37738e-11
2.2771e-11
2.36096e-11
-4.05091e-11
2.69512e-08
-2.68e-08
-3.69895e-11
-3.6833e-11
1.11135e-07
-2.13594e-12
-1.11134e-07
-7.54141e-13
-3.92619e-11
-2.98367e-11
2.9795e-11
5.56721e-11
-5.34957e-11
5.32875e-11
-5.42511e-11
3.01514e-11
1.12158e-07
-1.02554e-12
-1.12159e-07
-3.70355e-13
-2.90767e-11
-2.68687e-11
3.0257e-11
3.57114e-11
-5.29634e-11
4.98442e-11
-3.51183e-11
-3.41164e-12
-1.11114e-07
-9.93179e-13
-3.92801e-11
-2.96562e-11
3.00837e-11
5.60118e-11
-5.34726e-11
-5.40658e-11
5.38513e-11
5.32057e-11
1.1212e-07
4.90312e-11
-1.12171e-07
-2.66966e-11
-2.71834e-11
-2.59225e-11
2.62145e-11
3.62273e-11
-5.16965e-11
5.29113e-11
-3.51679e-11
-4.47069e-11
2.69541e-08
-2.68045e-08
-4.45594e-11
-3.01739e-11
-4.14286e-13
-1.12077e-07
-3.55142e-13
-4.46195e-11
-1.82718e-11
1.37207e-11
1.07779e-12
-2.5214e-11
-4.62418e-14
2.68416e-11
2.49775e-11
1.1219e-07
-7.0019e-11
-1.12132e-07
3.2043e-11
-4.60119e-11
-1.76205e-11
1.79854e-11
8.39022e-13
-2.56296e-11
2.4246e-11
7.29677e-13
-2.68135e-08
-5.87496e-11
-1.42967e-11
3.62426e-11
3.91907e-11
3.77689e-11
3.7479e-11
2.68007e-08
-3.69374e-11
-4.02848e-11
2.69515e-08
-2.68007e-08
-3.69839e-11
-3.65803e-11
2.38891e-12
1.13135e-07
1.27107e-11
3.6263e-11
-1.43974e-11
2.28528e-11
2.22655e-11
-2.38445e-11
-2.46392e-11
-3.59515e-11
2.29366e-12
2.40473e-12
1.13164e-07
1.37712e-11
3.62585e-11
-1.89155e-11
2.28336e-11
2.22809e-11
-2.37253e-11
-2.20802e-11
1.13138e-07
-1.40731e-12
-1.13136e-07
5.04368e-13
-3.58943e-11
-1.37899e-11
1.29672e-11
-2.36129e-11
-2.40605e-11
2.24862e-11
2.32727e-11
3.68289e-11
1.13167e-07
-5.69808e-13
-1.13164e-07
3.60196e-13
-3.57808e-11
-1.48606e-11
1.36924e-11
-2.36754e-11
-2.41883e-11
2.21555e-11
2.3235e-11
3.77565e-11
3.79804e-11
2.68002e-08
-4.04531e-11
2.69513e-08
-2.68002e-08
-3.71517e-11
-3.67253e-11
7.09048e-13
1.11134e-07
2.96231e-11
3.9652e-11
-3.03738e-11
-5.47165e-11
5.31587e-11
5.55665e-11
-5.39642e-11
-2.90739e-11
1.88072e-12
1.56449e-12
1.12157e-07
2.63824e-11
2.97471e-11
-2.74768e-11
-3.55694e-11
5.20801e-11
3.56354e-11
-5.35146e-11
1.11134e-07
-3.92314e-12
-1.11132e-07
-9.49759e-13
-3.8955e-11
-2.99421e-11
2.97957e-11
5.58847e-11
-5.34598e-11
5.3436e-11
-5.41423e-11
3.05139e-11
1.12157e-07
-2.52147e-12
-1.12156e-07
-1.18319e-12
-2.85508e-11
-2.68155e-11
3.03726e-11
3.58848e-11
-5.29721e-11
4.99213e-11
-3.5175e-11
4.59607e-10
-1.37081e-10
1.11371e-07
7.4065e-11
1.96365e-10
6.68806e-11
-3.82419e-11
5.26582e-11
-8.06265e-11
3.70773e-11
-3.01835e-12
-1.11111e-07
-1.89827e-12
-3.92412e-11
-2.97515e-11
2.99689e-11
5.60495e-11
-5.35057e-11
-5.41127e-11
5.38744e-11
-1.16064e-10
1.12119e-07
-4.60831e-10
-1.11373e-07
1.38002e-10
-1.94989e-10
-7.4786e-11
-6.52902e-11
3.90174e-11
-5.29546e-11
7.73184e-11
-3.6011e-11
4.48789e-11
3.10106e-11
2.68044e-08
-4.46735e-11
2.69541e-08
-2.68046e-08
-4.45006e-11
-2.98195e-11
-5.50996e-10
1.72991e-10
1.12981e-07
-2.83942e-11
-1.1627e-10
-1.16212e-10
2.96573e-12
2.32105e-11
3.52541e-12
-9.77632e-13
-2.39097e-12
-1.12081e-07
1.12702e-12
-4.41589e-11
-1.82821e-11
1.40625e-11
6.94007e-13
-2.49878e-11
9.68133e-14
2.66378e-11
1.81271e-10
1.12197e-07
5.50371e-10
-1.12982e-07
-1.73389e-10
1.16028e-10
2.81443e-11
1.12442e-10
-3.24079e-12
-2.46092e-11
-2.77744e-12
1.12174e-12
-2.68145e-08
7.65532e-11
-1.61785e-10
3.60942e-11
3.90881e-11
3.79755e-11
3.76455e-11
2.68007e-08
-3.69643e-11
-4.05045e-11
2.69514e-08
-2.68006e-08
-3.67656e-11
-3.65823e-11
2.58291e-12
1.13137e-07
1.26437e-11
3.63665e-11
-1.44202e-11
2.26241e-11
2.19796e-11
-2.41007e-11
-2.47971e-11
-3.598e-11
4.97625e-12
2.42964e-12
1.13166e-07
1.34165e-11
3.63393e-11
-1.52477e-11
2.27479e-11
2.18407e-11
-2.4117e-11
-2.47119e-11
1.1314e-07
-4.33818e-12
-1.13136e-07
4.50633e-13
-3.5926e-11
-1.37181e-11
1.29154e-11
-2.33017e-11
-2.34935e-11
2.28235e-11
2.38657e-11
3.68415e-11
1.13169e-07
-3.67178e-12
-1.13165e-07
6.20382e-13
-3.58724e-11
-1.46834e-11
1.36997e-11
-2.335e-11
-2.35565e-11
2.27189e-11
2.3782e-11
3.7716e-11
3.80858e-11
2.68002e-08
-4.08128e-11
2.69511e-08
-2.67999e-08
-3.66487e-11
-3.68223e-11
8.48869e-13
1.11132e-07
2.94828e-11
3.97601e-11
-3.05161e-11
-5.48866e-11
5.29969e-11
5.53833e-11
-5.41049e-11
-2.88457e-11
3.57581e-12
1.48459e-12
1.12154e-07
2.63682e-11
2.9936e-11
-2.73948e-11
-3.58049e-11
5.17847e-11
3.54297e-11
-5.36814e-11
1.11134e-07
-6.1221e-12
-1.11131e-07
-1.01797e-12
-3.87765e-11
-2.96107e-11
2.99466e-11
5.58049e-11
-5.3228e-11
5.34733e-11
-5.41123e-11
3.08746e-11
1.12155e-07
-4.77697e-12
-1.12154e-07
-1.69792e-12
-2.83975e-11
-2.64999e-11
3.0549e-11
3.58975e-11
-5.27322e-11
4.99267e-11
-3.49476e-11
-4.76044e-11
2.69936e-11
1.12167e-07
2.48362e-11
2.84726e-11
-2.72696e-11
-3.5666e-11
5.11778e-11
-5.38726e-11
3.59893e-11
-5.95336e-12
-1.11109e-07
-1.17488e-12
-3.89522e-11
-2.95489e-11
3.00659e-11
5.60889e-11
-5.33564e-11
-5.40511e-11
5.39498e-11
5.35864e-11
1.1212e-07
4.60241e-11
-1.12166e-07
-2.74049e-11
-2.6708e-11
-2.64587e-11
2.56852e-11
3.60983e-11
-5.19429e-11
5.27016e-11
-3.53607e-11
4.50371e-11
3.13406e-11
2.68046e-08
-4.47965e-11
2.69541e-08
-2.68046e-08
-4.44828e-11
-2.9398e-11
7.07289e-11
-3.11506e-11
1.12139e-07
1.7739e-11
4.60321e-11
-1.83549e-11
-4.58246e-13
2.43779e-11
-2.56039e-11
-5.54213e-13
-5.24772e-12
-1.12082e-07
-3.87593e-13
-4.41863e-11
-1.81538e-11
1.40734e-11
1.19019e-12
-2.44355e-11
7.50787e-13
2.71637e-11
2.5126e-11
1.12198e-07
-7.29647e-11
-1.12138e-07
3.19075e-11
-4.60705e-11
-1.71e-11
1.8226e-11
7.57477e-13
-2.51536e-11
2.43285e-11
1.21935e-12
-2.68135e-08
-5.90306e-11
-1.3422e-11
3.60654e-11
3.88026e-11
3.83248e-11
3.76175e-11
2.68006e-08
-3.68001e-11
-4.06603e-11
2.69503e-08
-2.67998e-08
-3.6445e-11
-3.66681e-11
1.79186e-12
1.13137e-07
1.28144e-11
3.62835e-11
-1.44484e-11
2.2862e-11
2.23048e-11
-2.3699e-11
-2.47309e-11
-3.59606e-11
6.884e-12
1.94069e-12
1.13166e-07
1.3567e-11
3.62456e-11
-1.90597e-11
2.27696e-11
2.22185e-11
-2.37424e-11
-2.21404e-11
1.1314e-07
-8.49452e-12
-1.13136e-07
2.51121e-12
-3.61038e-11
-1.40939e-11
1.26572e-11
-2.2747e-11
-2.30743e-11
2.32821e-11
2.44652e-11
3.67198e-11
1.13167e-07
-8.09023e-12
-1.13163e-07
2.93735e-12
-3.59162e-11
-1.49106e-11
1.35593e-11
-2.27817e-11
-2.31261e-11
2.29894e-11
2.42387e-11
3.81807e-11
3.80026e-11
2.67999e-08
-4.09256e-11
2.69502e-08
-2.67993e-08
-3.64004e-11
-3.69245e-11
1.04409e-13
1.1113e-07
2.98359e-11
3.99534e-11
-3.02387e-11
-5.51823e-11
5.28738e-11
5.52577e-11
-5.43835e-11
-2.84852e-11
5.97368e-12
5.61383e-13
1.12151e-07
2.66812e-11
3.0162e-11
-2.72774e-11
-3.61099e-11
5.17739e-11
3.52692e-11
-5.40147e-11
1.11133e-07
-9.56162e-12
-1.11128e-07
1.11953e-13
-3.86381e-11
-2.95868e-11
3.00285e-11
5.5867e-11
-5.32132e-11
5.34671e-11
-5.39398e-11
3.09377e-11
1.12153e-07
-7.96531e-12
-1.1215e-07
-6.44728e-13
-2.8236e-11
-2.65164e-11
3.06736e-11
3.58297e-11
-5.2707e-11
4.99725e-11
-3.48804e-11
4.64256e-10
-1.37525e-10
1.11369e-07
7.3706e-11
1.96938e-10
6.67552e-11
-3.87965e-11
5.19937e-11
-8.12319e-11
3.64264e-11
-8.10188e-12
-1.11105e-07
-1.08499e-12
-3.88043e-11
-2.95225e-11
3.02655e-11
5.60313e-11
-5.3291e-11
-5.3876e-11
5.39305e-11
-1.1544e-10
1.12116e-07
-4.65666e-10
-1.11367e-07
1.38505e-10
-1.9439e-10
-7.45301e-11
-6.50515e-11
3.90274e-11
-5.26309e-11
7.74547e-11
-3.57274e-11
4.50539e-11
3.17799e-11
2.68046e-08
-4.46051e-11
2.69535e-08
-2.68041e-08
-4.45755e-11
-2.92326e-11
-5.47387e-10
1.72086e-10
1.12985e-07
-2.79673e-11
-1.1634e-10
-1.1599e-10
2.98263e-12
2.3558e-11
3.74826e-12
-7.59026e-13
-1.08353e-11
-1.12082e-07
3.29037e-12
-4.4284e-11
-1.85243e-11
1.37809e-11
1.6942e-12
-2.37056e-11
1.33318e-12
2.76523e-11
1.81142e-10
1.12199e-07
5.41435e-10
-1.12983e-07
-1.70763e-10
1.15873e-10
2.82222e-11
1.12569e-10
-2.0958e-12
-2.33649e-11
-1.73814e-12
2.35864e-12
-2.68136e-08
7.63608e-11
-1.60937e-10
3.59548e-11
3.84381e-11
3.85767e-11
3.76266e-11
2.67998e-08
-3.65169e-11
-4.02643e-11
2.69493e-08
-2.67993e-08
-3.64574e-11
-3.67678e-11
-7.06074e-13
1.13135e-07
1.27793e-11
3.63967e-11
-1.43621e-11
2.28019e-11
2.23693e-11
-2.36368e-11
-2.47048e-11
-3.5802e-11
1.08069e-11
-8.64933e-13
1.13162e-07
1.36315e-11
3.6426e-11
-1.53215e-11
2.26344e-11
2.21934e-11
-2.37853e-11
-2.47788e-11
1.13138e-07
-1.53554e-11
-1.13134e-07
7.96703e-12
-3.61878e-11
-1.44195e-11
1.25056e-11
-2.23082e-11
-2.23215e-11
2.37742e-11
2.50491e-11
3.63857e-11
1.13166e-07
-1.55242e-11
-1.13161e-07
8.30497e-12
-3.61449e-11
-1.54123e-11
1.33354e-11
-2.22872e-11
-2.22932e-11
2.37131e-11
2.50487e-11
3.83741e-11
3.80465e-11
2.67993e-08
-4.07393e-11
2.69495e-08
-2.6799e-08
-3.63237e-11
-3.70533e-11
-2.89975e-12
1.11128e-07
3.01935e-11
4.03038e-11
-2.98278e-11
-5.56616e-11
5.24842e-11
5.48582e-11
-5.48442e-11
-2.82943e-11
1.00405e-11
-1.92196e-12
1.12148e-07
2.68025e-11
3.03002e-11
-2.70324e-11
-3.651e-11
5.1493e-11
3.50108e-11
-5.43524e-11
1.11131e-07
-1.60204e-11
-1.11126e-07
5.6761e-12
-3.88209e-11
-3.0028e-11
2.9858e-11
5.61983e-11
-5.25575e-11
5.37795e-11
-5.3335e-11
3.0672e-11
1.12152e-07
-1.46441e-11
-1.12148e-07
4.28287e-12
-2.8403e-11
-2.69117e-11
3.04748e-11
3.63047e-11
-5.20425e-11
5.03074e-11
-3.42428e-11
-4.03286e-11
2.37888e-11
1.1216e-07
2.52747e-11
2.90511e-11
-2.70016e-11
-3.6443e-11
5.07774e-11
-5.45204e-11
3.56142e-11
-1.51046e-11
-1.11103e-07
4.9441e-12
-3.88215e-11
-2.97811e-11
3.01883e-11
5.63268e-11
-5.2706e-11
-5.33239e-11
5.4122e-11
5.34089e-11
1.12114e-07
3.68206e-11
-1.12158e-07
-2.12137e-11
-2.66655e-11
-2.69466e-11
2.54691e-11
3.63612e-11
-5.14004e-11
5.28867e-11
-3.46857e-11
4.49345e-11
3.1988e-11
2.68041e-08
-4.43911e-11
2.69525e-08
-2.68036e-08
-4.45913e-11
-2.9225e-11
7.65547e-11
-3.46872e-11
1.12137e-07
1.81773e-11
4.6082e-11
-1.80653e-11
-4.4212e-13
2.4696e-11
-2.55647e-11
-1.66558e-13
-1.78168e-11
-1.12081e-07
7.60028e-12
-4.44411e-11
-1.88104e-11
1.36048e-11
2.16428e-12
-2.30716e-11
2.0394e-12
2.80929e-11
2.46651e-11
1.12197e-07
-8.58479e-11
-1.12136e-07
4.01526e-11
-4.63886e-11
-1.775e-11
1.79304e-11
1.77556e-12
-2.36427e-11
2.53776e-11
2.55397e-12
-2.68124e-08
-5.93198e-11
-1.31433e-11
3.56013e-11
3.81809e-11
3.87057e-11
3.76831e-11
2.67991e-08
-3.57622e-11
-3.95201e-11
2.69477e-08
-2.67988e-08
-3.67352e-11
-3.69339e-11
-7.91389e-12
1.13132e-07
1.31767e-11
3.68232e-11
-1.39277e-11
2.20796e-11
2.19443e-11
-2.41389e-11
-2.53079e-11
-3.54402e-11
1.9321e-11
-9.1561e-12
1.13161e-07
1.40394e-11
3.68202e-11
-1.84945e-11
2.20144e-11
2.18989e-11
-2.4082e-11
-2.26952e-11
1.13133e-07
-2.96583e-11
-1.1313e-07
2.13691e-11
-3.66824e-11
-1.56366e-11
1.19954e-11
-2.13374e-11
-2.06423e-11
2.46139e-11
2.68012e-11
3.57181e-11
1.13163e-07
-3.04744e-11
-1.13159e-07
2.18841e-11
-3.65657e-11
-1.65276e-11
1.27735e-11
-2.13512e-11
-2.0566e-11
2.44498e-11
2.68471e-11
3.87245e-11
3.80312e-11
2.6799e-08
-4.00412e-11
2.69485e-08
-2.67991e-08
-3.65349e-11
-3.71823e-11
-9.27436e-12
1.11125e-07
3.04612e-11
4.06181e-11
-2.94397e-11
-5.61732e-11
5.19881e-11
5.44172e-11
-5.54922e-11
-2.80472e-11
1.77148e-11
-7.58858e-12
1.12146e-07
2.71518e-11
3.06098e-11
-2.66252e-11
-3.70422e-11
5.07659e-11
3.44989e-11
-5.50172e-11
1.11127e-07
-2.93781e-11
-1.11123e-07
1.80854e-11
-3.93355e-11
-3.1088e-11
2.93839e-11
5.70269e-11
-5.09783e-11
5.45099e-11
-5.17255e-11
2.99217e-11
1.1215e-07
-2.79365e-11
-1.12146e-07
1.60397e-11
-2.90002e-11
-2.80076e-11
2.98079e-11
3.71321e-11
-5.03231e-11
5.10065e-11
-3.25634e-11
4.76235e-10
-1.45627e-10
1.11362e-07
7.41579e-11
1.97438e-10
6.72815e-11
-3.98967e-11
5.1031e-11
-8.23168e-11
3.56112e-11
-2.78723e-11
-1.11101e-07
1.56879e-11
-3.93819e-11
-3.0824e-11
2.9737e-11
5.73238e-11
-5.1015e-11
-5.16297e-11
5.49861e-11
-1.16345e-10
1.12111e-07
-4.85565e-10
-1.11362e-07
1.55197e-10
-1.9508e-10
-7.60672e-11
-6.58466e-11
4.01182e-11
-5.04363e-11
7.84107e-11
-3.3528e-11
4.51282e-11
3.20384e-11
2.68036e-08
-4.38969e-11
2.69514e-08
-2.68034e-08
-4.46493e-11
-2.94675e-11
-5.32845e-10
1.61243e-10
1.12981e-07
-2.75203e-11
-1.15871e-10
-1.15246e-10
2.03517e-12
2.30993e-11
2.91061e-12
-1.29304e-12
-3.37223e-11
-1.12079e-07
2.26866e-11
-4.47522e-11
-1.96458e-11
1.33786e-11
2.97308e-12
-2.13044e-11
3.57919e-12
2.89128e-11
1.80248e-10
1.12193e-07
5.17944e-10
-1.12977e-07
-1.5136e-10
1.15233e-10
2.69614e-11
1.11981e-10
-7.33469e-13
-2.07653e-11
-3.99529e-13
4.8881e-12
-2.68129e-08
7.6081e-11
-1.61033e-10
3.51818e-11
3.76507e-11
3.86709e-11
3.77256e-11
2.67985e-08
-3.43725e-11
-3.78986e-11
2.69462e-08
-2.67992e-08
-3.7378e-11
-3.72863e-11
-2.32685e-11
1.13129e-07
1.38145e-11
3.74685e-11
-1.30244e-11
2.03614e-11
2.02942e-11
-2.57489e-11
-2.67657e-11
-3.50286e-11
3.76792e-11
-2.47979e-11
1.13159e-07
1.4646e-11
3.75594e-11
-1.39299e-11
2.02714e-11
1.99791e-11
-2.58464e-11
-2.69639e-11
1.13127e-07
-5.91255e-11
-1.13128e-07
4.91414e-11
-3.75157e-11
-1.78351e-11
1.13273e-11
-1.95715e-11
-1.67293e-11
2.61493e-11
3.07314e-11
3.43536e-11
1.13159e-07
-6.06238e-11
-1.1316e-07
5.02981e-11
-3.7429e-11
-1.87099e-11
1.21314e-11
-1.94887e-11
-1.66409e-11
2.6148e-11
3.08133e-11
3.86008e-11
3.81227e-11
2.67989e-08
-3.84516e-11
2.69471e-08
-2.67997e-08
-3.71963e-11
-3.74038e-11
-2.38079e-11
1.11122e-07
3.11619e-11
4.13716e-11
-2.86764e-11
-5.7823e-11
5.04218e-11
5.28316e-11
-5.6881e-11
-2.77748e-11
3.31875e-11
-2.08249e-11
1.12145e-07
2.76528e-11
3.10566e-11
-2.60103e-11
-3.85966e-11
4.928e-11
3.29707e-11
-5.64672e-11
1.11122e-07
-5.61081e-11
-1.11123e-07
4.39932e-11
-4.04058e-11
-3.35731e-11
2.84484e-11
5.88157e-11
-4.7094e-11
5.62689e-11
-4.77923e-11
2.84891e-11
1.12148e-07
-5.39953e-11
-1.12148e-07
4.08611e-11
-2.99343e-11
-3.04603e-11
2.88515e-11
3.89004e-11
-4.65994e-11
5.26662e-11
-2.87002e-11
-1.65742e-11
4.75476e-12
1.12156e-07
2.6035e-11
2.98217e-11
-2.60697e-11
-3.86382e-11
4.85684e-11
-5.67225e-11
3.35622e-11
-5.48668e-11
-1.11103e-07
4.28863e-11
-4.04416e-11
-3.32998e-11
2.87355e-11
5.92904e-11
-4.69043e-11
-4.75186e-11
5.68109e-11
5.12046e-11
1.12109e-07
-3.05159e-12
-1.12157e-07
1.54273e-11
-2.82486e-11
-3.05278e-11
2.38967e-11
3.90705e-11
-4.58347e-11
5.53812e-11
-2.90716e-11
4.52559e-11
3.18914e-11
2.68034e-08
-4.24227e-11
2.69501e-08
-2.68042e-08
-4.50336e-11
-3.0008e-11
1.0684e-10
-5.92269e-11
1.12131e-07
1.92555e-11
4.71561e-11
-1.67228e-11
-3.15563e-12
2.24416e-11
-2.80326e-11
-2.45604e-12
-6.53172e-11
-1.12076e-07
5.02822e-11
-4.57094e-11
-2.17449e-11
1.27103e-11
4.88007e-12
-1.72842e-11
7.77024e-12
3.04809e-11
2.27622e-11
1.12188e-07
-1.34238e-10
-1.12131e-07
8.17648e-11
-4.77292e-11
-2.0617e-11
1.6996e-11
4.69209e-12
-1.77403e-11
2.79268e-11
8.58835e-12
-2.68126e-08
-5.96289e-11
-1.398e-11
3.40897e-11
3.66526e-11
3.8697e-11
3.81105e-11
2.67986e-08
-3.12705e-11
-3.42577e-11
2.69434e-08
-2.68009e-08
-3.87672e-11
-3.82785e-11
-5.66381e-11
1.13132e-07
1.56733e-11
3.88736e-11
-1.11478e-11
1.62753e-11
1.60828e-11
-2.97981e-11
-3.07473e-11
-3.40412e-11
7.38356e-11
-5.80183e-11
1.13165e-07
1.63721e-11
3.8783e-11
-1.5903e-11
1.60174e-11
1.59297e-11
-2.99399e-11
-2.84182e-11
1.13117e-07
-1.10927e-10
-1.13138e-07
1.05422e-10
-3.83791e-11
-2.28585e-11
1.05768e-11
-1.45892e-11
-8.92175e-12
3.08426e-11
3.86325e-11
3.14787e-11
1.13149e-07
-1.1447e-10
-1.13169e-07
1.06763e-10
-3.82334e-11
-2.35838e-11
1.14745e-11
-1.4331e-11
-8.63122e-12
3.08146e-11
3.90915e-11
3.85802e-11
3.85388e-11
2.67989e-08
-3.49269e-11
2.69442e-08
-2.68009e-08
-3.86189e-11
-3.8295e-11
-5.4542e-11
1.11126e-07
3.25595e-11
4.2669e-11
-2.72775e-11
-6.13812e-11
4.68118e-11
4.92427e-11
-6.02963e-11
-2.69277e-11
6.44435e-11
-4.97396e-11
1.12151e-07
2.89754e-11
3.21946e-11
-2.46832e-11
-4.21436e-11
4.56828e-11
2.9478e-11
-5.98269e-11
1.11112e-07
-1.03182e-10
-1.11132e-07
9.70145e-11
-4.19371e-11
-3.88943e-11
2.73622e-11
6.41836e-11
-3.94245e-11
6.11922e-11
-4.00132e-11
2.51694e-11
1.12138e-07
-9.99878e-11
-1.12158e-07
9.22773e-11
-3.11375e-11
-3.55447e-11
2.79882e-11
4.38743e-11
-3.8948e-11
5.74582e-11
-2.12076e-11
5.23441e-10
-1.88601e-10
1.11366e-07
7.59264e-11
1.99149e-10
6.91514e-11
-4.4917e-11
4.59459e-11
-8.70687e-11
3.05612e-11
-1.00643e-10
-1.11113e-07
9.48933e-11
-4.20229e-11
-3.84632e-11
2.7628e-11
6.46804e-11
-3.8883e-11
-3.94613e-11
6.18957e-11
-1.21111e-10
1.12098e-07
-5.57956e-10
-1.11373e-07
2.32308e-10
-1.97375e-10
-8.38283e-11
-6.78813e-11
4.70344e-11
-3.90288e-11
8.48927e-11
-2.2033e-11
4.56152e-11
3.19222e-11
2.68037e-08
-3.92866e-11
2.69476e-08
-2.68058e-08
-4.61242e-11
-3.12542e-11
-4.74979e-10
1.10564e-10
1.12981e-07
-2.50229e-11
-1.13944e-10
-1.12842e-10
-4.1339e-12
1.70412e-11
-2.9257e-12
-7.13738e-12
-1.22956e-10
-1.12085e-07
1.09868e-10
-4.67907e-11
-2.65907e-11
1.19234e-11
1.01722e-11
-9.23821e-12
1.61002e-11
3.54343e-11
1.75774e-10
1.12181e-07
4.28973e-10
-1.12985e-07
-6.53811e-11
1.13346e-10
2.02897e-11
1.10758e-10
6.39182e-12
-8.62903e-12
6.01286e-12
1.73578e-11
-2.68149e-08
7.46005e-11
-1.62752e-10
3.16559e-11
3.42685e-11
3.94892e-11
3.93495e-11
2.67987e-08
-2.61454e-11
-2.83927e-11
2.69376e-08
-2.68042e-08
-3.96555e-11
-3.91802e-11
-1.24266e-10
1.13151e-07
1.94134e-11
4.1346e-11
-8.17294e-12
7.19728e-12
8.70275e-12
-3.72923e-11
-3.95233e-11
-3.16661e-11
1.34842e-10
-1.24997e-10
1.13182e-07
2.00397e-11
4.11371e-11
-9.25781e-12
6.48801e-12
8.12943e-12
-3.78005e-11
-4.01644e-11
1.13076e-07
-1.8252e-10
-1.13175e-07
2.14717e-10
-3.98834e-11
-3.20342e-11
9.62034e-12
-3.00163e-12
7.21851e-12
4.26991e-11
5.59082e-11
2.67822e-11
1.13108e-07
-1.89658e-10
-1.13205e-07
2.14302e-10
-3.97096e-11
-3.20825e-11
1.0644e-11
-2.36747e-12
8.43298e-12
4.33206e-11
5.70336e-11
3.93834e-11
3.97604e-11
2.67987e-08
-2.94309e-11
2.69387e-08
-2.68043e-08
-3.91544e-11
-3.90879e-11
-1.16991e-10
1.11145e-07
3.59866e-11
4.52025e-11
-2.43748e-11
-6.97451e-11
4.00782e-11
4.24452e-11
-6.85949e-11
-2.47118e-11
1.15111e-10
-1.10626e-10
1.1217e-07
3.24623e-11
3.44798e-11
-2.18243e-11
-5.05432e-11
3.91032e-11
2.27019e-11
-6.79891e-11
1.1107e-07
-1.65134e-10
-1.11168e-07
2.00018e-10
-4.43517e-11
-4.81247e-11
2.62405e-11
7.60826e-11
-2.40097e-11
7.33167e-11
-2.36986e-11
1.96393e-11
1.12098e-07
-1.6079e-10
-1.12195e-07
1.93633e-10
-3.31053e-11
-4.49415e-11
2.69655e-11
5.54576e-11
-2.3884e-11
6.9262e-11
-5.17943e-12
6.53292e-11
-8.6102e-11
1.1218e-07
3.07704e-11
3.33519e-11
-2.19008e-11
-5.04494e-11
3.8293e-11
-6.82325e-11
2.33067e-11
-1.63016e-10
-1.1115e-07
1.9786e-10
-4.43227e-11
-4.72446e-11
2.65674e-11
7.69526e-11
-2.27046e-11
-2.23619e-11
7.42497e-11
4.22437e-11
1.12057e-07
-1.09629e-10
-1.12204e-07
1.70633e-10
-3.15123e-11
-4.52191e-11
2.18104e-11
5.55058e-11
-2.32347e-11
7.1936e-11
-5.69598e-12
4.68548e-11
3.27486e-11
2.68039e-08
-3.4158e-11
2.6942e-08
-2.68092e-08
-4.7039e-11
-3.20179e-11
2.08705e-10
-1.61303e-10
1.12153e-07
2.45721e-11
5.07028e-11
-1.25127e-11
-1.70667e-11
1.05315e-11
-4.14007e-11
-1.44129e-11
-2.02608e-10
-1.12118e-07
2.1908e-10
-4.87668e-11
-3.52012e-11
1.09228e-11
2.22521e-11
7.5825e-12
3.42159e-11
4.76902e-11
1.46249e-11
1.12141e-07
-2.70829e-10
-1.12175e-07
2.48769e-10
-5.07637e-11
-3.38835e-11
1.53503e-11
2.22497e-11
7.64903e-12
4.53103e-11
3.52868e-11
-2.68174e-08
-6.17552e-11
-1.58489e-11
2.99743e-11
3.20312e-11
3.85497e-11
3.86649e-11
2.67984e-08
-3.30539e-11
-3.36701e-11
2.69258e-08
-2.68129e-08
-2.25231e-11
-2.364e-11
-2.51368e-10
1.13217e-07
2.36428e-11
4.78326e-11
-1.18638e-12
-9.14496e-12
-7.76455e-12
-5.48719e-11
-5.71052e-11
-3.04326e-11
2.07324e-10
-2.49716e-10
1.13247e-07
2.36655e-11
4.7329e-11
-6.51509e-12
-1.05776e-11
-8.644e-12
-5.57635e-11
-5.59732e-11
1.12918e-07
-2.23667e-10
-1.13292e-07
3.86939e-10
-4.71048e-11
-3.24986e-11
6.29375e-12
2.02519e-11
5.21179e-11
7.20253e-11
1.06891e-10
3.54966e-11
1.12952e-07
-2.37376e-10
-1.13319e-07
3.80073e-10
-4.70353e-11
-3.06178e-11
7.25057e-12
2.15573e-11
5.451e-11
7.32367e-11
1.09727e-10
3.84618e-11
3.87853e-11
2.67984e-08
-3.57351e-11
2.69277e-08
-2.68127e-08
-2.13155e-11
-2.23563e-11
-2.36003e-10
1.11211e-07
4.00616e-11
5.26713e-11
-1.72838e-11
-8.56135e-11
2.45891e-11
2.56509e-11
-8.59727e-11
-2.27584e-11
1.70375e-10
-2.29063e-10
1.12237e-07
3.66005e-11
4.14545e-11
-1.48976e-11
-6.58294e-11
2.3832e-11
6.3307e-12
-8.4937e-11
1.10914e-07
-1.93681e-10
-1.11285e-07
3.62911e-10
-5.34947e-11
-4.9204e-11
2.24564e-11
1.00101e-10
1.91373e-11
1.02861e-10
2.58203e-11
2.5099e-11
1.11942e-07
-1.86582e-10
-1.12312e-07
3.58225e-10
-4.09652e-11
-4.61168e-11
2.35494e-11
7.82647e-11
1.79745e-11
9.81047e-11
4.25641e-11
6.29405e-10
-3.69817e-10
1.11452e-07
8.35234e-11
2.09074e-10
7.91686e-11
-6.86781e-11
2.36521e-11
-1.12414e-10
7.26947e-12
-1.88669e-10
-1.1127e-07
3.57061e-10
-5.33405e-11
-4.71911e-11
2.28355e-11
1.01627e-10
2.20517e-11
2.82426e-11
1.04692e-10
-1.20243e-10
1.119e-07
-6.47491e-10
-1.11527e-07
5.01544e-10
-2.07804e-10
-9.46506e-11
-7.25777e-11
8.21265e-11
1.82217e-11
1.26137e-10
4.21581e-11
4.61075e-11
3.20264e-11
2.68037e-08
-4.08502e-11
2.69307e-08
-2.68182e-08
-3.05109e-11
-1.60735e-11
-3.34198e-10
-8.35447e-11
1.13063e-07
-1.76207e-11
-1.05385e-10
-1.03936e-10
-3.097e-11
-7.38765e-12
-3.07873e-11
-3.30595e-11
-2.59245e-10
-1.12233e-07
3.93961e-10
-5.69978e-11
-3.50142e-11
7.00311e-12
4.64497e-11
5.33472e-11
8.68448e-11
7.7625e-11
1.77676e-10
1.11988e-07
2.9689e-10
-1.13133e-07
2.14488e-10
1.03343e-10
1.26534e-11
1.06653e-10
4.27046e-11
5.43718e-11
4.83219e-11
8.81205e-11
-2.68268e-08
9.03692e-11
-1.46511e-10
4.49007e-11
4.55009e-11
1.73812e-11
1.97916e-11
2.67982e-08
-1.78894e-10
-1.72337e-10
2.69009e-08
-2.68282e-08
1.44954e-10
1.33545e-10
-4.47316e-10
1.13415e-07
1.29619e-11
7.6608e-11
2.33917e-11
-2.60153e-11
-5.18552e-11
-1.07264e-10
-8.6825e-11
-4.71539e-11
1.68312e-10
-4.37777e-10
1.13443e-07
1.12528e-11
7.52126e-11
2.09872e-11
-2.92971e-11
-5.31423e-11
-1.08923e-10
-9.04082e-11
1.12279e-07
-1.81992e-10
-1.136e-07
3.52892e-10
-5.65292e-11
9.19574e-11
2.92391e-11
1.02859e-10
2.55411e-10
1.98258e-10
3.49736e-10
1.85755e-10
1.1232e-07
-2.03112e-10
-1.13623e-07
3.29971e-10
-5.74404e-11
9.868e-11
3.00392e-11
1.04797e-10
2.59828e-10
2.00279e-10
3.55113e-10
1.70255e-11
1.87501e-11
2.67981e-08
-1.75535e-10
2.69043e-08
-2.68285e-08
1.45178e-10
1.40287e-10
-4.2114e-10
1.11409e-07
3.02462e-11
8.3324e-11
6.98121e-12
-1.02838e-10
-1.76113e-11
-2.57437e-11
-1.17468e-10
-3.68686e-11
1.0953e-10
-4.18874e-10
1.12436e-07
2.62367e-11
7.18615e-11
1.03224e-11
-8.09037e-11
-1.77729e-11
-4.35625e-11
-1.1394e-10
1.10304e-07
-1.72597e-10
-1.11588e-07
3.36034e-10
-6.93488e-11
7.04915e-11
4.16848e-11
1.87041e-10
2.18545e-10
2.32458e-10
2.67055e-10
1.68599e-10
1.1132e-07
-1.52212e-10
-1.12622e-07
3.35329e-10
-5.31087e-11
7.73157e-11
4.57854e-11
1.61991e-10
2.14568e-10
2.24923e-10
2.78984e-10
6.06108e-11
-3.96624e-10
1.12447e-07
2.42249e-11
7.15831e-11
1.02858e-11
-8.10011e-11
-1.86665e-11
-1.14909e-10
-4.37442e-11
-1.54976e-10
-1.1158e-07
3.23995e-10
-6.89491e-11
7.48176e-11
4.20465e-11
1.8896e-10
2.27087e-10
2.73933e-10
2.34898e-10
1.92989e-10
1.11275e-07
-1.05009e-10
-1.12633e-07
3.15698e-10
-5.23757e-11
7.75238e-11
4.12681e-11
1.62327e-10
2.16956e-10
2.28434e-10
2.80115e-10
2.58901e-11
1.27582e-11
2.68035e-08
-1.79958e-10
2.69064e-08
-2.68335e-08
1.33267e-10
1.42416e-10
2.55917e-10
-4.81577e-10
1.12408e-07
1.81825e-11
8.6039e-11
1.85371e-11
-5.42265e-11
-5.10902e-11
-9.2056e-11
-8.63683e-11
-2.44092e-10
-1.12532e-07
3.67724e-10
-6.95852e-11
8.41809e-11
2.58063e-11
1.32298e-10
2.58514e-10
3.32585e-10
2.05661e-10
1.61767e-10
1.1137e-07
-3.10962e-10
-1.12586e-07
3.88863e-10
-7.16687e-11
8.66084e-11
3.07858e-11
1.32845e-10
2.59489e-10
2.0266e-10
3.35871e-10
-2.68416e-08
1.20721e-10
1.59964e-10
1.1158e-10
1.10892e-10
-5.68628e-11
-4.56448e-11
2.67809e-08
-5.16889e-10
2.44273e-10
2.70962e-08
-2.63161e-08
-2.44525e-11
-4.82992e-10