/*--------------------------------*- C++ -*----------------------------------*\
| =========                 |                                                 |
| \\      /  F ield         | OpenFOAM: The Open Source CFD Toolbox           |
|  \\    /   O peration     | Version:  2206                                  |
|   \\  /    A nd           | Website:  www.openfoam.com                      |
|    \\/     M anipulation  |                                                 |
\*---------------------------------------------------------------------------*/
FoamFile
{
    version     2.0;
    format      ascii;
    arch        "LSB;label=32;scalar=64";
    class       volScalarField;
    location    "0.6";
    object      k;
}
// * * * * * * * * * * * * * * * * * * * * * * * * * * * * * * * * * * * * * //

dimensions      [0 2 -2 0 0 0 0];

internalField   nonuniform List<scalar> 
185303
(
1.22302e-08
1.28358e-08
1.28941e-08
1.22979e-08
1.21849e-08
1.29542e-08
1.29242e-08
1.22565e-08
1.22544e-08
1.22378e-08
1.21806e-08
1.22249e-08
1.22666e-08
1.28627e-08
1.28979e-08
1.28646e-08
1.22055e-08
1.31284e-08
1.28121e-08
1.30879e-08
1.2265e-08
1.30913e-08
1.21988e-08
1.23087e-08
1.22713e-08
1.20228e-08
1.22869e-08
1.31044e-08
1.29136e-08
1.312e-08
1.22056e-08
1.27084e-08
1.28287e-08
1.21986e-08
1.2261e-08
1.29752e-08
1.27404e-08
1.30825e-08
1.22124e-08
1.30207e-08
1.30182e-08
1.21174e-08
1.22911e-08
1.30657e-08
1.2217e-08
1.2961e-08
1.29412e-08
1.21298e-08
1.27208e-08
1.19343e-08
1.26913e-08
1.19151e-08
1.21891e-08
1.26843e-08
1.31646e-08
1.21882e-08
1.3142e-08
1.31178e-08
1.19806e-08
1.22411e-08
1.21379e-08
1.2727e-08
1.22878e-08
1.21441e-08
1.30582e-08
1.20016e-08
1.28841e-08
1.22914e-08
1.22169e-08
1.27707e-08
1.21767e-08
1.20105e-08
1.19927e-08
1.30634e-08
1.22595e-08
1.27027e-08
1.22636e-08
1.29209e-08
1.23727e-08
1.27313e-08
1.19574e-08
1.27205e-08
1.22639e-08
1.19904e-08
1.27471e-08
1.21919e-08
1.29298e-08
1.23033e-08
1.28777e-08
1.31104e-08
1.21254e-08
1.21667e-08
1.22319e-08
1.23094e-08
1.23213e-08
1.2985e-08
1.23112e-08
1.23007e-08
1.21563e-08
1.30015e-08
1.21335e-08
1.29438e-08
1.28826e-08
1.29927e-08
1.30334e-08
1.3067e-08
1.21388e-08
1.22808e-08
1.28653e-08
1.22502e-08
1.29494e-08
1.30293e-08
1.22215e-08
1.20217e-08
1.21339e-08
1.30182e-08
1.27479e-08
1.19446e-08
1.27065e-08
1.26766e-08
1.30673e-08
1.28516e-08
1.29158e-08
1.30581e-08
1.22757e-08
1.22502e-08
1.19491e-08
1.19404e-08
1.26975e-08
1.29748e-08
1.19761e-08
1.29492e-08
1.30748e-08
1.30956e-08
1.2161e-08
1.27523e-08
1.22848e-08
1.2972e-08
1.2291e-08
1.30362e-08
1.30642e-08
1.2003e-08
1.29163e-08
1.27611e-08
1.28289e-08
1.21307e-08
1.28706e-08
1.27725e-08
1.29468e-08
1.29349e-08
1.27753e-08
1.20064e-08
1.27374e-08
1.22483e-08
1.28056e-08
1.19098e-08
1.26684e-08
1.19116e-08
1.21607e-08
1.28284e-08
1.27097e-08
1.19787e-08
1.27085e-08
1.2981e-08
1.19605e-08
1.27356e-08
1.19838e-08
1.21566e-08
1.27569e-08
1.20038e-08
1.21402e-08
1.27331e-08
1.28593e-08
1.21937e-08
1.22312e-08
1.30605e-08
1.28615e-08
1.30504e-08
1.30638e-08
1.28697e-08
1.19727e-08
1.27221e-08
1.2322e-08
1.21725e-08
1.19291e-08
1.27067e-08
1.19657e-08
1.28632e-08
1.22185e-08
1.19182e-08
1.27077e-08
1.30469e-08
1.30311e-08
1.21719e-08
1.22298e-08
1.30781e-08
1.21852e-08
1.21471e-08
1.19698e-08
1.29441e-08
1.30873e-08
1.20903e-08
1.2757e-08
1.28788e-08
1.22232e-08
1.22198e-08
1.29453e-08
1.28787e-08
1.22852e-08
1.29097e-08
1.29367e-08
1.22125e-08
1.30886e-08
1.2252e-08
1.31221e-08
1.27975e-08
1.219e-08
1.2052e-08
1.28661e-08
1.1962e-08
1.21496e-08
1.20481e-08
1.2017e-08
1.31176e-08
1.27933e-08
1.27346e-08
1.21422e-08
1.27419e-08
1.26822e-08
1.19411e-08
1.2201e-08
1.21756e-08
1.22013e-08
1.29748e-08
1.30816e-08
1.21685e-08
1.22895e-08
1.29138e-08
1.30596e-08
1.30096e-08
1.30615e-08
1.30973e-08
1.21777e-08
1.29987e-08
1.29179e-08
1.21973e-08
1.19554e-08
1.21928e-08
1.26957e-08
1.28964e-08
1.23326e-08
1.28611e-08
1.28839e-08
1.30376e-08
1.21698e-08
1.1887e-08
1.2229e-08
1.2172e-08
1.19455e-08
1.26771e-08
1.28264e-08
1.22758e-08
1.31043e-08
1.30419e-08
1.30422e-08
1.3105e-08
1.21258e-08
1.19126e-08
1.3037e-08
1.29705e-08
1.26839e-08
1.30252e-08
1.23556e-08
1.28719e-08
1.2234e-08
1.22323e-08
1.30443e-08
1.3052e-08
1.21901e-08
1.26853e-08
1.30229e-08
1.19472e-08
1.19576e-08
1.21633e-08
1.27135e-08
1.19467e-08
1.27185e-08
1.29416e-08
1.28334e-08
1.19256e-08
1.2699e-08
1.21582e-08
1.22682e-08
1.31202e-08
1.28579e-08
1.1931e-08
1.28979e-08
1.30841e-08
1.2954e-08
1.28832e-08
1.22613e-08
1.31276e-08
1.22205e-08
1.31723e-08
1.30997e-08
1.22697e-08
1.28388e-08
1.28632e-08
1.23336e-08
1.22663e-08
1.21914e-08
1.26807e-08
1.30997e-08
1.28648e-08
1.28334e-08
1.29744e-08
1.23444e-08
1.18923e-08
1.29544e-08
1.21801e-08
1.26659e-08
1.22167e-08
1.29491e-08
1.26569e-08
1.19045e-08
1.29778e-08
1.21843e-08
1.22255e-08
1.19216e-08
1.29115e-08
1.21972e-08
1.2947e-08
1.31581e-08
1.29431e-08
1.29488e-08
1.26598e-08
1.1875e-08
1.2264e-08
1.23031e-08
1.26404e-08
1.2383e-08
1.21737e-08
1.19188e-08
1.26778e-08
1.29743e-08
1.21846e-08
1.1925e-08
1.22678e-08
1.28374e-08
1.28309e-08
1.22585e-08
1.21794e-08
1.21662e-08
1.19578e-08
1.22815e-08
1.21144e-08
1.22023e-08
1.1982e-08
1.27076e-08
1.28045e-08
1.21781e-08
1.19658e-08
1.23553e-08
1.21651e-08
1.28952e-08
1.27055e-08
1.22012e-08
1.19183e-08
1.23038e-08
1.22544e-08
1.29752e-08
1.27028e-08
1.2945e-08
1.19824e-08
1.19361e-08
1.28507e-08
1.22927e-08
1.28843e-08
1.2287e-08
1.22614e-08
1.27381e-08
1.29465e-08
1.19921e-08
1.20773e-08
1.27185e-08
1.30525e-08
1.29548e-08
1.21358e-08
1.20102e-08
1.27436e-08
1.301e-08
1.23229e-08
1.30595e-08
1.21514e-08
1.19737e-08
1.29152e-08
1.27474e-08
1.20036e-08
1.2744e-08
1.3042e-08
1.21529e-08
1.27751e-08
1.29131e-08
1.20318e-08
1.2009e-08
1.28123e-08
1.23834e-08
1.28035e-08
1.22471e-08
1.20523e-08
1.23003e-08
1.21221e-08
1.21508e-08
1.2119e-08
1.28158e-08
1.22384e-08
1.20126e-08
1.27751e-08
1.23394e-08
1.20495e-08
1.29263e-08
1.2218e-08
1.31103e-08
1.30711e-08
1.30777e-08
1.29659e-08
1.23122e-08
1.29777e-08
1.29399e-08
1.22036e-08
1.23248e-08
1.21365e-08
1.30591e-08
1.21323e-08
1.29616e-08
1.28707e-08
1.29195e-08
1.22668e-08
1.23326e-08
1.22924e-08
1.29253e-08
1.22272e-08
1.22984e-08
1.30533e-08
1.19919e-08
1.22713e-08
1.2136e-08
1.29766e-08
1.30268e-08
1.2341e-08
1.29609e-08
1.22008e-08
1.22226e-08
1.22318e-08
1.30287e-08
1.21721e-08
1.23443e-08
1.30119e-08
1.23104e-08
1.28697e-08
1.22031e-08
1.22413e-08
1.29694e-08
1.29464e-08
1.22272e-08
1.2308e-08
1.30522e-08
1.29601e-08
1.29632e-08
1.29914e-08
1.30284e-08
1.22972e-08
1.28792e-08
1.30421e-08
1.28885e-08
1.23391e-08
1.29116e-08
1.29776e-08
1.2706e-08
1.30699e-08
1.22774e-08
1.22765e-08
1.22233e-08
1.22861e-08
1.28776e-08
1.31012e-08
1.22079e-08
1.3085e-08
1.22501e-08
1.21917e-08
1.23765e-08
1.23182e-08
1.29916e-08
1.22126e-08
1.30433e-08
1.30357e-08
1.24271e-08
1.2345e-08
1.30053e-08
1.21072e-08
1.29094e-08
1.22101e-08
1.2268e-08
1.23534e-08
1.21975e-08
1.31406e-08
1.29472e-08
1.22776e-08
1.31064e-08
1.22519e-08
1.3099e-08
1.27333e-08
1.21864e-08
1.23502e-08
1.30026e-08
1.23657e-08
1.29519e-08
1.22889e-08
1.296e-08
1.22951e-08
1.29067e-08
1.22541e-08
1.28967e-08
1.22416e-08
1.28557e-08
1.22515e-08
1.28956e-08
1.22674e-08
1.29242e-08
1.22694e-08
1.28771e-08
1.22419e-08
1.28989e-08
1.2271e-08
1.29538e-08
1.23114e-08
1.29306e-08
1.22752e-08
1.29145e-08
1.22753e-08
1.29167e-08
1.22852e-08
1.29241e-08
1.22632e-08
1.287e-08
1.22439e-08
1.29058e-08
1.22982e-08
1.294e-08
1.22936e-08
1.29141e-08
1.2246e-08
1.29167e-08
1.22673e-08
1.28961e-08
1.22638e-08
1.28964e-08
1.2284e-08
1.29457e-08
1.23198e-08
1.29535e-08
1.22908e-08
1.29307e-08
1.22471e-08
1.28967e-08
1.22774e-08
1.28607e-08
1.22639e-08
1.29433e-08
1.22593e-08
1.29232e-08
1.2303e-08
1.29124e-08
1.22948e-08
1.29654e-08
1.23554e-08
1.29911e-08
1.23538e-08
1.30048e-08
1.23799e-08
1.30195e-08
1.23744e-08
1.30076e-08
1.23538e-08
1.29759e-08
1.23174e-08
1.29495e-08
1.23142e-08
1.29407e-08
1.23064e-08
1.2953e-08
1.23057e-08
1.2989e-08
1.23323e-08
1.30023e-08
1.23581e-08
1.29939e-08
1.24119e-08
1.29952e-08
1.23647e-08
1.30004e-08
1.23262e-08
1.298e-08
1.23862e-08
1.29696e-08
1.2299e-08
1.29959e-08
1.22924e-08
1.29606e-08
1.23816e-08
1.29445e-08
1.23483e-08
1.30224e-08
1.23735e-08
1.29873e-08
1.2277e-08
1.29236e-08
1.23005e-08
1.29472e-08
1.23118e-08
1.29333e-08
1.23199e-08
1.29879e-08
1.23192e-08
1.29471e-08
1.2297e-08
1.29461e-08
1.22834e-08
1.29281e-08
1.23084e-08
1.29122e-08
1.22882e-08
1.2912e-08
1.22691e-08
1.2929e-08
1.2259e-08
1.29062e-08
1.22777e-08
1.29211e-08
1.22905e-08
1.29309e-08
1.23493e-08
1.30465e-08
1.23928e-08
1.30261e-08
1.23271e-08
1.30038e-08
1.23348e-08
1.29796e-08
1.22946e-08
1.29855e-08
1.2303e-08
1.29666e-08
1.23042e-08
1.29434e-08
1.23097e-08
1.29642e-08
1.22969e-08
1.29509e-08
1.22773e-08
1.29195e-08
1.22817e-08
1.2956e-08
1.23161e-08
1.29646e-08
1.22837e-08
1.29111e-08
1.22539e-08
1.29235e-08
1.22694e-08
1.29398e-08
1.22734e-08
1.29395e-08
1.2258e-08
1.29411e-08
1.23095e-08
1.2938e-08
1.2291e-08
1.29408e-08
1.22653e-08
1.29527e-08
1.23022e-08
1.29766e-08
1.2295e-08
1.29618e-08
1.23237e-08
1.29642e-08
1.23372e-08
1.29762e-08
1.23295e-08
1.29871e-08
1.22754e-08
1.29846e-08
1.22925e-08
1.28834e-08
1.22422e-08
1.2908e-08
1.2262e-08
1.29258e-08
1.22655e-08
1.29266e-08
1.22741e-08
1.29548e-08
1.23336e-08
1.29811e-08
1.23481e-08
1.30055e-08
1.23825e-08
1.30264e-08
1.23928e-08
1.30034e-08
1.23432e-08
1.29902e-08
1.22891e-08
1.29325e-08
1.22983e-08
1.29226e-08
1.23015e-08
1.29293e-08
1.23101e-08
1.2945e-08
1.23235e-08
1.29707e-08
1.23383e-08
1.30384e-08
1.23445e-08
1.29863e-08
1.23701e-08
1.30011e-08
1.23119e-08
1.29992e-08
1.23983e-08
1.30114e-08
1.23655e-08
1.30111e-08
1.2274e-08
1.30078e-08
1.23752e-08
1.29706e-08
1.23255e-08
1.29763e-08
1.23682e-08
1.301e-08
1.22627e-08
1.29182e-08
1.2275e-08
1.29599e-08
1.23188e-08
1.29384e-08
1.22918e-08
1.2938e-08
1.23021e-08
1.29662e-08
1.23002e-08
1.29506e-08
1.22887e-08
1.2935e-08
1.22745e-08
1.29197e-08
1.22854e-08
1.29005e-08
1.22751e-08
1.2942e-08
1.22623e-08
1.29201e-08
1.22398e-08
1.28826e-08
1.22397e-08
1.29319e-08
1.23021e-08
1.29917e-08
1.23938e-08
1.30438e-08
1.23688e-08
1.30288e-08
1.23684e-08
1.30054e-08
1.23133e-08
1.29616e-08
1.23087e-08
1.30057e-08
1.2317e-08
1.29614e-08
1.23129e-08
1.29454e-08
1.22829e-08
1.29426e-08
1.2283e-08
1.29568e-08
1.23108e-08
1.29574e-08
1.23385e-08
1.29711e-08
1.23157e-08
1.29164e-08
1.22739e-08
1.29099e-08
1.22698e-08
1.28873e-08
1.22464e-08
1.2901e-08
1.22485e-08
1.29355e-08
1.23126e-08
1.29365e-08
1.22916e-08
1.29045e-08
1.22441e-08
1.29227e-08
1.23042e-08
1.29461e-08
1.22852e-08
1.29725e-08
1.2324e-08
1.2966e-08
1.23305e-08
1.29641e-08
1.2329e-08
1.29353e-08
1.23008e-08
1.29361e-08
1.22911e-08
1.29164e-08
1.22427e-08
1.29084e-08
1.22773e-08
1.29217e-08
1.22637e-08
1.29231e-08
1.22718e-08
1.29811e-08
1.23438e-08
1.2992e-08
1.23333e-08
1.29774e-08
1.23384e-08
1.29988e-08
1.23804e-08
1.29778e-08
1.23443e-08
1.29847e-08
1.22993e-08
1.29528e-08
1.2281e-08
1.2932e-08
1.22797e-08
1.29498e-08
1.22988e-08
1.29544e-08
1.2316e-08
1.2931e-08
1.23255e-08
1.29513e-08
1.22752e-08
1.29392e-08
1.23224e-08
1.29642e-08
1.2291e-08
1.29643e-08
1.23224e-08
1.29753e-08
1.23789e-08
1.29819e-08
1.22854e-08
1.29738e-08
1.23487e-08
1.30261e-08
1.23449e-08
1.29639e-08
1.23306e-08
1.29884e-08
1.23075e-08
1.29623e-08
1.22913e-08
1.29521e-08
1.23396e-08
1.29939e-08
1.23418e-08
1.29562e-08
1.22992e-08
1.29602e-08
1.23026e-08
1.2945e-08
1.22839e-08
1.29263e-08
1.22382e-08
1.29049e-08
1.22519e-08
1.28653e-08
1.22437e-08
1.28873e-08
1.22666e-08
1.29586e-08
1.22758e-08
1.29241e-08
1.22821e-08
1.29403e-08
1.2343e-08
1.30059e-08
1.23821e-08
1.30174e-08
1.23837e-08
1.30361e-08
1.23758e-08
1.30369e-08
1.23402e-08
1.29403e-08
1.2299e-08
1.29531e-08
1.22987e-08
1.29436e-08
1.2282e-08
1.29401e-08
1.22641e-08
1.29033e-08
1.22375e-08
1.29318e-08
1.22783e-08
1.29356e-08
1.22904e-08
1.29593e-08
1.23091e-08
1.29302e-08
1.22636e-08
1.29387e-08
1.22812e-08
1.29e-08
1.22519e-08
1.2846e-08
1.22165e-08
1.28878e-08
1.22575e-08
1.29043e-08
1.22622e-08
1.2862e-08
1.22018e-08
1.2868e-08
1.22636e-08
1.28758e-08
1.22424e-08
1.2926e-08
1.22918e-08
1.29248e-08
1.22747e-08
1.29442e-08
1.22995e-08
1.29462e-08
1.22938e-08
1.29161e-08
1.22638e-08
1.29011e-08
1.22565e-08
1.29187e-08
1.22951e-08
1.29409e-08
1.22749e-08
1.28921e-08
1.22608e-08
1.29153e-08
1.23203e-08
1.29646e-08
1.23107e-08
1.29642e-08
1.23008e-08
1.29545e-08
1.23175e-08
1.29469e-08
1.23012e-08
1.29479e-08
1.22939e-08
1.29476e-08
1.22806e-08
1.29086e-08
1.22444e-08
1.29146e-08
1.22757e-08
1.29623e-08
1.22949e-08
1.29681e-08
1.23072e-08
1.29397e-08
1.23024e-08
1.29527e-08
1.23113e-08
1.2952e-08
1.23062e-08
1.29585e-08
1.22873e-08
1.29622e-08
1.23564e-08
1.29743e-08
1.22923e-08
1.29107e-08
1.22733e-08
1.29737e-08
1.23652e-08
1.29871e-08
1.2322e-08
1.29523e-08
1.23161e-08
1.30094e-08
1.22966e-08
1.29547e-08
1.23036e-08
1.29623e-08
1.23455e-08
1.29647e-08
1.22762e-08
1.29347e-08
1.23065e-08
1.29603e-08
1.23057e-08
1.2946e-08
1.22535e-08
1.29288e-08
1.22417e-08
1.2898e-08
1.22491e-08
1.28787e-08
1.22507e-08
1.29209e-08
1.22801e-08
1.29375e-08
1.22686e-08
1.2925e-08
1.23619e-08
1.30476e-08
1.2387e-08
1.30359e-08
1.23899e-08
1.30283e-08
1.23538e-08
1.30147e-08
1.23557e-08
1.29779e-08
1.23137e-08
1.29691e-08
1.23357e-08
1.29514e-08
1.23088e-08
1.29609e-08
1.23003e-08
1.29536e-08
1.22744e-08
1.29373e-08
1.22887e-08
1.29424e-08
1.22729e-08
1.29529e-08
1.23226e-08
1.29233e-08
1.22306e-08
1.29159e-08
1.22575e-08
1.29502e-08
1.22647e-08
1.28796e-08
1.22046e-08
1.28859e-08
1.22295e-08
1.28717e-08
1.22333e-08
1.28789e-08
1.2197e-08
1.28756e-08
1.22418e-08
1.28699e-08
1.22102e-08
1.28873e-08
1.22542e-08
1.28853e-08
1.22419e-08
1.29027e-08
1.22838e-08
1.29287e-08
1.22709e-08
1.29605e-08
1.22758e-08
1.29104e-08
1.22348e-08
1.28749e-08
1.22614e-08
1.29219e-08
1.22525e-08
1.29079e-08
1.22353e-08
1.29038e-08
1.22965e-08
1.29332e-08
1.23048e-08
1.29796e-08
1.22962e-08
1.2952e-08
1.22698e-08
1.29184e-08
1.22471e-08
1.28892e-08
1.22508e-08
1.29268e-08
1.22876e-08
1.29605e-08
1.22814e-08
1.29558e-08
1.23203e-08
1.29776e-08
1.23241e-08
1.29894e-08
1.23062e-08
1.29661e-08
1.23375e-08
1.29964e-08
1.23149e-08
1.29729e-08
1.23149e-08
1.29658e-08
1.22774e-08
1.29328e-08
1.23146e-08
1.29517e-08
1.23013e-08
1.29214e-08
1.2217e-08
1.29221e-08
1.23245e-08
1.29733e-08
1.22928e-08
1.28961e-08
1.22622e-08
1.2932e-08
1.22961e-08
1.29843e-08
1.22994e-08
1.29561e-08
1.23368e-08
1.30054e-08
1.22953e-08
1.29406e-08
1.22892e-08
1.29487e-08
1.23283e-08
1.29611e-08
1.22871e-08
1.29386e-08
1.22809e-08
1.29121e-08
1.22423e-08
1.29371e-08
1.22482e-08
1.29161e-08
1.22883e-08
1.28934e-08
1.22616e-08
1.295e-08
1.23604e-08
1.30233e-08
1.23847e-08
1.3044e-08
1.24074e-08
1.3057e-08
1.23686e-08
1.30013e-08
1.23564e-08
1.29569e-08
1.22856e-08
1.29658e-08
1.23168e-08
1.29429e-08
1.22811e-08
1.29059e-08
1.22532e-08
1.29196e-08
1.22811e-08
1.29451e-08
1.22971e-08
1.29411e-08
1.22746e-08
1.29269e-08
1.23112e-08
1.29569e-08
1.22503e-08
1.29027e-08
1.22502e-08
1.28998e-08
1.22804e-08
1.28966e-08
1.22126e-08
1.29282e-08
1.22389e-08
1.28671e-08
1.22143e-08
1.28722e-08
1.22471e-08
1.29091e-08
1.22568e-08
1.29241e-08
1.22593e-08
1.29394e-08
1.22916e-08
1.29607e-08
1.2288e-08
1.29376e-08
1.23204e-08
1.28983e-08
1.22782e-08
1.29229e-08
1.23183e-08
1.29347e-08
1.22419e-08
1.28959e-08
1.22104e-08
1.29101e-08
1.2273e-08
1.29302e-08
1.22479e-08
1.29494e-08
1.22941e-08
1.29297e-08
1.23103e-08
1.29784e-08
1.23523e-08
1.29979e-08
1.23251e-08
1.29947e-08
1.23011e-08
1.29484e-08
1.23083e-08
1.29557e-08
1.23165e-08
1.29749e-08
1.22896e-08
1.29544e-08
1.23156e-08
1.29708e-08
1.23301e-08
1.29864e-08
1.23059e-08
1.29512e-08
1.23151e-08
1.29617e-08
1.22844e-08
1.29542e-08
1.23111e-08
1.29742e-08
1.22858e-08
1.29674e-08
1.23135e-08
1.29757e-08
1.23832e-08
1.29947e-08
1.2273e-08
1.29586e-08
1.23416e-08
1.29988e-08
1.23416e-08
1.29858e-08
1.22855e-08
1.2928e-08
1.22986e-08
1.29818e-08
1.23072e-08
1.29474e-08
1.23146e-08
1.29631e-08
1.23177e-08
1.29831e-08
1.22857e-08
1.29416e-08
1.23013e-08
1.29473e-08
1.22853e-08
1.29552e-08
1.23209e-08
1.28865e-08
1.22456e-08
1.29289e-08
1.226e-08
1.29661e-08
1.23023e-08
1.29161e-08
1.22815e-08
1.29537e-08
1.23911e-08
1.30307e-08
1.23866e-08
1.30019e-08
1.23911e-08
1.30313e-08
1.23497e-08
1.29947e-08
1.23289e-08
1.29352e-08
1.2255e-08
1.2901e-08
1.22824e-08
1.29503e-08
1.2282e-08
1.2943e-08
1.22471e-08
1.28964e-08
1.22528e-08
1.29291e-08
1.22969e-08
1.29598e-08
1.22833e-08
1.29045e-08
1.22769e-08
1.2938e-08
1.22858e-08
1.29641e-08
1.22856e-08
1.28972e-08
1.23087e-08
1.29015e-08
1.22508e-08
1.29261e-08
1.22601e-08
1.29138e-08
1.21974e-08
1.28498e-08
1.22309e-08
1.28958e-08
1.22288e-08
1.29215e-08
1.22735e-08
1.28918e-08
1.22542e-08
1.29369e-08
1.2255e-08
1.29408e-08
1.22675e-08
1.29201e-08
1.22281e-08
1.29003e-08
1.22843e-08
1.29076e-08
1.2274e-08
1.28882e-08
1.21904e-08
1.28751e-08
1.22485e-08
1.29024e-08
1.22606e-08
1.29371e-08
1.22869e-08
1.29515e-08
1.22853e-08
1.29591e-08
1.23618e-08
1.29754e-08
1.23337e-08
1.29977e-08
1.2292e-08
1.29551e-08
1.23081e-08
1.29535e-08
1.23167e-08
1.29655e-08
1.22946e-08
1.29462e-08
1.23089e-08
1.29509e-08
1.23204e-08
1.2967e-08
1.23061e-08
1.29665e-08
1.23365e-08
1.29617e-08
1.22825e-08
1.29519e-08
1.2296e-08
1.293e-08
1.22736e-08
1.29486e-08
1.22797e-08
1.29441e-08
1.23735e-08
1.29887e-08
1.22888e-08
1.29621e-08
1.23202e-08
1.29497e-08
1.23299e-08
1.29883e-08
1.22954e-08
1.2947e-08
1.22983e-08
1.29573e-08
1.22967e-08
1.29683e-08
1.23095e-08
1.29185e-08
1.23119e-08
1.29639e-08
1.22925e-08
1.29513e-08
1.22891e-08
1.29035e-08
1.22478e-08
1.29278e-08
1.22786e-08
1.29036e-08
1.22349e-08
1.28883e-08
1.22444e-08
1.29228e-08
1.22622e-08
1.29099e-08
1.22579e-08
1.29332e-08
1.24299e-08
1.30698e-08
1.23642e-08
1.30097e-08
1.23553e-08
1.29823e-08
1.23416e-08
1.29974e-08
1.2332e-08
1.29752e-08
1.23099e-08
1.29047e-08
1.2273e-08
1.29223e-08
1.23094e-08
1.2968e-08
1.2271e-08
1.29504e-08
1.22616e-08
1.29118e-08
1.22949e-08
1.29536e-08
1.22944e-08
1.29388e-08
1.22637e-08
1.29073e-08
1.22648e-08
1.29777e-08
1.22832e-08
1.29161e-08
1.22577e-08
1.29007e-08
1.22287e-08
1.28872e-08
1.22548e-08
1.2917e-08
1.22245e-08
1.29103e-08
1.22612e-08
1.2939e-08
1.22735e-08
1.29852e-08
1.23215e-08
1.29122e-08
1.22756e-08
1.29417e-08
1.23199e-08
1.29612e-08
1.23065e-08
1.29729e-08
1.22735e-08
1.29485e-08
1.22779e-08
1.29191e-08
1.22875e-08
1.2915e-08
1.22385e-08
1.29042e-08
1.22566e-08
1.29025e-08
1.22527e-08
1.29049e-08
1.22796e-08
1.29716e-08
1.22658e-08
1.29604e-08
1.23043e-08
1.29617e-08
1.23058e-08
1.29809e-08
1.22869e-08
1.29671e-08
1.2304e-08
1.29716e-08
1.23297e-08
1.30112e-08
1.23617e-08
1.30315e-08
1.23602e-08
1.30114e-08
1.2337e-08
1.2971e-08
1.23141e-08
1.29723e-08
1.23583e-08
1.29456e-08
1.2281e-08
1.29623e-08
1.22985e-08
1.29233e-08
1.22631e-08
1.29496e-08
1.22621e-08
1.29154e-08
1.2323e-08
1.29584e-08
1.23064e-08
1.29938e-08
1.23265e-08
1.29744e-08
1.23233e-08
1.29694e-08
1.231e-08
1.29694e-08
1.23081e-08
1.29623e-08
1.22803e-08
1.29807e-08
1.23234e-08
1.29605e-08
1.23018e-08
1.29531e-08
1.23173e-08
1.30149e-08
1.23223e-08
1.29512e-08
1.22565e-08
1.2907e-08
1.22658e-08
1.2919e-08
1.22529e-08
1.29058e-08
1.22444e-08
1.29137e-08
1.22664e-08
1.29304e-08
1.22816e-08
1.29514e-08
1.30334e-08
1.23873e-08
1.30093e-08
1.23556e-08
1.30212e-08
1.23321e-08
1.29439e-08
1.23136e-08
1.29665e-08
1.23143e-08
1.29742e-08
1.23143e-08
1.29619e-08
1.22687e-08
1.2919e-08
1.23032e-08
1.28974e-08
1.2256e-08
1.29583e-08
1.22527e-08
1.29076e-08
1.22478e-08
1.29044e-08
1.2269e-08
1.29565e-08
1.22631e-08
1.29268e-08
1.22562e-08
1.29446e-08
1.23299e-08
1.29631e-08
1.23127e-08
1.2978e-08
1.22956e-08
1.29584e-08
1.23102e-08
1.29093e-08
1.22418e-08
1.2935e-08
1.22704e-08
1.29192e-08
1.22723e-08
1.29495e-08
1.23111e-08
1.29304e-08
1.22593e-08
1.29268e-08
1.23073e-08
1.29456e-08
1.22935e-08
1.29458e-08
1.22827e-08
1.29339e-08
1.225e-08
1.29094e-08
1.22413e-08
1.28842e-08
1.22403e-08
1.2913e-08
1.22575e-08
1.29066e-08
1.22554e-08
1.28687e-08
1.22748e-08
1.29564e-08
1.22996e-08
1.29732e-08
1.23011e-08
1.29645e-08
1.23375e-08
1.2993e-08
1.23468e-08
1.29998e-08
1.23465e-08
1.30047e-08
1.23432e-08
1.29943e-08
1.23746e-08
1.30249e-08
1.23713e-08
1.29928e-08
1.2326e-08
1.29487e-08
1.22869e-08
1.29401e-08
1.23111e-08
1.29001e-08
1.22348e-08
1.29086e-08
1.22704e-08
1.28926e-08
1.22584e-08
1.29317e-08
1.22486e-08
1.29365e-08
1.23035e-08
1.29471e-08
1.23122e-08
1.29513e-08
1.23119e-08
1.29763e-08
1.23214e-08
1.29681e-08
1.23272e-08
1.2965e-08
1.23106e-08
1.29917e-08
1.23222e-08
1.298e-08
1.23504e-08
1.30279e-08
1.2338e-08
1.2978e-08
1.23296e-08
1.29806e-08
1.23491e-08
1.3008e-08
1.22797e-08
1.2952e-08
1.22909e-08
1.29412e-08
1.23002e-08
1.29328e-08
1.22757e-08
1.29247e-08
1.22867e-08
1.29193e-08
1.23027e-08
1.29603e-08
1.2353e-08
1.29919e-08
1.23415e-08
1.29426e-08
1.23151e-08
1.29712e-08
1.22771e-08
1.29367e-08
1.22886e-08
1.29413e-08
1.22885e-08
1.29219e-08
1.2274e-08
1.29399e-08
1.22665e-08
1.29326e-08
1.22746e-08
1.28892e-08
1.22594e-08
1.29413e-08
1.23148e-08
1.29696e-08
1.23197e-08
1.29122e-08
1.23174e-08
1.2922e-08
1.23248e-08
1.30065e-08
1.2257e-08
1.29719e-08
1.23691e-08
1.29517e-08
1.23093e-08
1.2943e-08
1.22758e-08
1.29307e-08
1.2285e-08
1.28591e-08
1.22018e-08
1.28766e-08
1.22399e-08
1.29178e-08
1.22396e-08
1.29223e-08
1.22831e-08
1.2943e-08
1.22788e-08
1.2934e-08
1.22981e-08
1.29712e-08
1.23209e-08
1.29613e-08
1.23e-08
1.29341e-08
1.2259e-08
1.29297e-08
1.22418e-08
1.28937e-08
1.22432e-08
1.29291e-08
1.22942e-08
1.29835e-08
1.23169e-08
1.29428e-08
1.23064e-08
1.29482e-08
1.23245e-08
1.29705e-08
1.2287e-08
1.29408e-08
1.2314e-08
1.29401e-08
1.2309e-08
1.29616e-08
1.23114e-08
1.29811e-08
1.22853e-08
1.29396e-08
1.23137e-08
1.29646e-08
1.23507e-08
1.29785e-08
1.22983e-08
1.2934e-08
1.22529e-08
1.29246e-08
1.22929e-08
1.29144e-08
1.22348e-08
1.29165e-08
1.22607e-08
1.28859e-08
1.22203e-08
1.28877e-08
1.22222e-08
1.28828e-08
1.2256e-08
1.29315e-08
1.22972e-08
1.29168e-08
1.22726e-08
1.29428e-08
1.22975e-08
1.29359e-08
1.22992e-08
1.29341e-08
1.22882e-08
1.2982e-08
1.23395e-08
1.29696e-08
1.23327e-08
1.3002e-08
1.23535e-08
1.30337e-08
1.23388e-08
1.29642e-08
1.23626e-08
1.30069e-08
1.23185e-08
1.29612e-08
1.22887e-08
1.29432e-08
1.23066e-08
1.29361e-08
1.22656e-08
1.29289e-08
1.22528e-08
1.28892e-08
1.22835e-08
1.29136e-08
1.23847e-08
1.30661e-08
1.239e-08
1.30217e-08
1.2347e-08
1.298e-08
1.2292e-08
1.29514e-08
1.22928e-08
1.29557e-08
1.22763e-08
1.29509e-08
1.22864e-08
1.29502e-08
1.23216e-08
1.29213e-08
1.22807e-08
1.29351e-08
1.22658e-08
1.29229e-08
1.23047e-08
1.29754e-08
1.23034e-08
1.29684e-08
1.22758e-08
1.28999e-08
1.23271e-08
1.29252e-08
1.2227e-08
1.29407e-08
1.2315e-08
1.29119e-08
1.22628e-08
1.29102e-08
1.22341e-08
1.28859e-08
1.22367e-08
1.28615e-08
1.21745e-08
1.28322e-08
1.22088e-08
1.28751e-08
1.22203e-08
1.29153e-08
1.22706e-08
1.29421e-08
1.22872e-08
1.29338e-08
1.23125e-08
1.29717e-08
1.23533e-08
1.29817e-08
1.23304e-08
1.29674e-08
1.22993e-08
1.29443e-08
1.22536e-08
1.29276e-08
1.22384e-08
1.29078e-08
1.22968e-08
1.29399e-08
1.23129e-08
1.30003e-08
1.23312e-08
1.29701e-08
1.23084e-08
1.29565e-08
1.22524e-08
1.29238e-08
1.22866e-08
1.29176e-08
1.23066e-08
1.29405e-08
1.23169e-08
1.2985e-08
1.23035e-08
1.30062e-08
1.23244e-08
1.29809e-08
1.23355e-08
1.29951e-08
1.23233e-08
1.29531e-08
1.22539e-08
1.294e-08
1.23018e-08
1.29433e-08
1.22772e-08
1.29666e-08
1.23084e-08
1.29411e-08
1.22337e-08
1.29239e-08
1.22651e-08
1.28998e-08
1.22519e-08
1.29475e-08
1.23321e-08
1.29433e-08
1.22682e-08
1.29277e-08
1.22824e-08
1.29277e-08
1.22859e-08
1.29259e-08
1.22726e-08
1.2935e-08
1.23139e-08
1.29766e-08
1.23238e-08
1.29463e-08
1.23223e-08
1.30107e-08
1.23324e-08
1.29557e-08
1.23194e-08
1.29723e-08
1.23102e-08
1.29536e-08
1.2266e-08
1.29055e-08
1.22782e-08
1.29072e-08
1.22458e-08
1.29296e-08
1.2234e-08
1.29225e-08
1.22613e-08
1.2933e-08
1.23943e-08
1.30347e-08
1.23853e-08
1.30205e-08
1.23511e-08
1.29911e-08
1.23256e-08
1.2958e-08
1.23076e-08
1.29574e-08
1.22997e-08
1.29941e-08
1.23029e-08
1.29725e-08
1.23021e-08
1.29034e-08
1.22672e-08
1.29447e-08
1.22743e-08
1.29544e-08
1.23057e-08
1.29476e-08
1.2313e-08
1.29986e-08
1.23033e-08
1.296e-08
1.23211e-08
1.2926e-08
1.22378e-08
1.29481e-08
1.22872e-08
1.29024e-08
1.22431e-08
1.28897e-08
1.22291e-08
1.28526e-08
1.22268e-08
1.28677e-08
1.2207e-08
1.28808e-08
1.22426e-08
1.29147e-08
1.2274e-08
1.29333e-08
1.22925e-08
1.29698e-08
1.22826e-08
1.29461e-08
1.22954e-08
1.29515e-08
1.23234e-08
1.29599e-08
1.23271e-08
1.29519e-08
1.23166e-08
1.29335e-08
1.22825e-08
1.295e-08
1.22504e-08
1.2937e-08
1.22893e-08
1.29032e-08
1.22684e-08
1.29531e-08
1.23461e-08
1.29834e-08
1.23338e-08
1.29841e-08
1.22935e-08
1.29496e-08
1.22764e-08
1.29336e-08
1.22944e-08
1.29316e-08
1.2299e-08
1.29271e-08
1.22864e-08
1.29887e-08
1.23292e-08
1.29516e-08
1.22892e-08
1.29515e-08
1.23191e-08
1.29802e-08
1.22768e-08
1.29627e-08
1.23032e-08
1.29674e-08
1.23188e-08
1.29926e-08
1.23728e-08
1.3008e-08
1.22903e-08
1.29679e-08
1.23181e-08
1.29591e-08
1.22496e-08
1.29348e-08
1.23363e-08
1.29674e-08
1.22721e-08
1.29607e-08
1.22774e-08
1.29311e-08
1.2275e-08
1.29641e-08
1.22969e-08
1.29257e-08
1.23026e-08
1.29967e-08
1.23337e-08
1.29594e-08
1.22913e-08
1.29807e-08
1.23405e-08
1.29623e-08
1.2303e-08
1.29432e-08
1.22937e-08
1.2958e-08
1.22969e-08
1.29165e-08
1.22764e-08
1.29198e-08
1.23032e-08
1.29542e-08
1.2306e-08
1.29431e-08
1.22844e-08
1.29668e-08
1.23547e-08
1.30057e-08
1.23635e-08
1.29981e-08
1.2342e-08
1.29567e-08
1.2301e-08
1.29735e-08
1.2324e-08
1.29326e-08
1.22904e-08
1.29526e-08
1.23082e-08
1.29516e-08
1.22875e-08
1.28983e-08
1.22609e-08
1.28967e-08
1.22549e-08
1.29564e-08
1.23006e-08
1.2944e-08
1.22925e-08
1.29756e-08
1.23082e-08
1.29525e-08
1.22984e-08
1.28907e-08
1.22393e-08
1.29142e-08
1.2281e-08
1.29338e-08
1.22677e-08
1.29135e-08
1.2246e-08
1.28786e-08
1.22095e-08
1.28701e-08
1.22234e-08
1.28657e-08
1.22266e-08
1.29036e-08
1.22838e-08
1.29291e-08
1.23006e-08
1.29611e-08
1.22922e-08
1.29355e-08
1.22828e-08
1.29617e-08
1.23243e-08
1.29625e-08
1.23194e-08
1.29356e-08
1.22839e-08
1.29004e-08
1.22791e-08
1.29225e-08
1.22664e-08
1.2936e-08
1.22783e-08
1.29344e-08
1.22541e-08
1.29298e-08
1.2339e-08
1.29459e-08
1.2329e-08
1.29753e-08
1.23099e-08
1.29626e-08
1.22806e-08
1.29341e-08
1.22763e-08
1.29601e-08
1.22913e-08
1.29294e-08
1.22508e-08
1.29303e-08
1.22937e-08
1.29663e-08
1.22918e-08
1.29414e-08
1.23191e-08
1.29815e-08
1.2288e-08
1.29749e-08
1.23069e-08
1.29612e-08
1.23104e-08
1.29916e-08
1.23974e-08
1.30206e-08
1.23156e-08
1.29638e-08
1.23233e-08
1.29909e-08
1.22998e-08
1.2952e-08
1.23283e-08
1.29588e-08
1.23121e-08
1.30092e-08
1.23551e-08
1.29659e-08
1.23081e-08
1.29835e-08
1.23317e-08
1.29585e-08
1.23302e-08
1.29745e-08
1.23278e-08
1.29696e-08
1.22585e-08
1.29344e-08
1.23016e-08
1.29307e-08
1.22785e-08
1.29511e-08
1.22918e-08
1.2946e-08
1.2312e-08
1.29582e-08
1.22622e-08
1.29313e-08
1.22859e-08
1.29522e-08
1.23144e-08
1.29111e-08
1.22595e-08
1.29045e-08
1.23428e-08
1.30125e-08
1.23342e-08
1.29985e-08
1.23339e-08
1.29225e-08
1.2251e-08
1.29511e-08
1.23109e-08
1.29434e-08
1.2261e-08
1.29276e-08
1.22778e-08
1.29443e-08
1.23013e-08
1.29304e-08
1.22643e-08
1.28974e-08
1.22418e-08
1.29309e-08
1.23284e-08
1.29523e-08
1.22894e-08
1.295e-08
1.23071e-08
1.29707e-08
1.23189e-08
1.29214e-08
1.22434e-08
1.28622e-08
1.224e-08
1.29135e-08
1.22831e-08
1.28859e-08
1.2231e-08
1.28477e-08
1.21564e-08
1.28454e-08
1.2205e-08
1.28512e-08
1.21904e-08
1.28622e-08
1.22485e-08
1.28874e-08
1.22497e-08
1.29132e-08
1.22827e-08
1.29131e-08
1.22386e-08
1.29333e-08
1.23075e-08
1.2945e-08
1.23138e-08
1.29562e-08
1.22884e-08
1.29197e-08
1.22681e-08
1.29292e-08
1.2287e-08
1.29125e-08
1.22542e-08
1.29321e-08
1.22284e-08
1.29506e-08
1.23058e-08
1.29486e-08
1.22944e-08
1.29541e-08
1.23003e-08
1.29601e-08
1.22946e-08
1.29425e-08
1.23014e-08
1.29748e-08
1.23426e-08
1.30006e-08
1.22949e-08
1.29582e-08
1.2312e-08
1.29805e-08
1.23372e-08
1.29804e-08
1.2344e-08
1.29664e-08
1.23112e-08
1.2986e-08
1.23278e-08
1.29944e-08
1.23323e-08
1.29941e-08
1.23913e-08
1.3003e-08
1.23335e-08
1.29843e-08
1.23524e-08
1.29626e-08
1.23151e-08
1.29634e-08
1.23043e-08
1.29404e-08
1.22862e-08
1.29513e-08
1.23195e-08
1.29545e-08
1.22776e-08
1.29323e-08
1.228e-08
1.29349e-08
1.23086e-08
1.29512e-08
1.23288e-08
1.29788e-08
1.22935e-08
1.29735e-08
1.23024e-08
1.29217e-08
1.22671e-08
1.29545e-08
1.22955e-08
1.29324e-08
1.23224e-08
1.29549e-08
1.22805e-08
1.29359e-08
1.22707e-08
1.29507e-08
1.23104e-08
1.29496e-08
1.22598e-08
1.29201e-08
1.2395e-08
1.30461e-08
1.23654e-08
1.30233e-08
1.23632e-08
1.29855e-08
1.22991e-08
1.29512e-08
1.23146e-08
1.29729e-08
1.22903e-08
1.29442e-08
1.22792e-08
1.29389e-08
1.22995e-08
1.2919e-08
1.22318e-08
1.28996e-08
1.22204e-08
1.29173e-08
1.23105e-08
1.29741e-08
1.22895e-08
1.29586e-08
1.229e-08
1.29397e-08
1.22997e-08
1.29542e-08
1.22481e-08
1.28892e-08
1.22001e-08
1.29116e-08
1.23074e-08
1.29001e-08
1.22396e-08
1.28685e-08
1.2177e-08
1.2864e-08
1.2224e-08
1.28764e-08
1.21943e-08
1.28494e-08
1.22217e-08
1.2885e-08
1.22432e-08
1.28971e-08
1.2283e-08
1.29393e-08
1.22412e-08
1.29384e-08
1.22937e-08
1.29397e-08
1.23016e-08
1.2953e-08
1.2309e-08
1.2937e-08
1.22563e-08
1.29104e-08
1.22974e-08
1.29023e-08
1.22805e-08
1.29274e-08
1.22795e-08
1.29517e-08
1.23067e-08
1.29568e-08
1.23043e-08
1.29615e-08
1.23234e-08
1.29552e-08
1.23035e-08
1.29686e-08
1.23119e-08
1.29433e-08
1.23276e-08
1.2964e-08
1.23023e-08
1.29706e-08
1.23048e-08
1.29334e-08
1.23038e-08
1.29757e-08
1.23311e-08
1.29473e-08
1.22774e-08
1.29188e-08
1.22818e-08
1.29527e-08
1.2287e-08
1.29668e-08
1.23263e-08
1.29426e-08
1.22788e-08
1.29694e-08
1.23436e-08
1.29526e-08
1.23027e-08
1.29431e-08
1.2297e-08
1.29685e-08
1.23071e-08
1.29419e-08
1.2313e-08
1.29679e-08
1.23026e-08
1.29769e-08
1.23078e-08
1.29512e-08
1.23116e-08
1.2962e-08
1.23486e-08
1.29692e-08
1.2325e-08
1.29797e-08
1.22888e-08
1.29443e-08
1.22802e-08
1.29459e-08
1.22863e-08
1.29359e-08
1.23046e-08
1.29292e-08
1.22629e-08
1.29389e-08
1.2262e-08
1.29128e-08
1.22777e-08
1.29126e-08
1.22459e-08
1.29169e-08
1.23804e-08
1.30387e-08