/*--------------------------------*- C++ -*----------------------------------*\
| =========                 |                                                 |
| \\      /  F ield         | OpenFOAM: The Open Source CFD Toolbox           |
|  \\    /   O peration     | Version:  2206                                  |
|   \\  /    A nd           | Website:  www.openfoam.com                      |
|    \\/     M anipulation  |                                                 |
\*---------------------------------------------------------------------------*/
FoamFile
{
    version     2.0;
    format      ascii;
    arch        "LSB;label=32;scalar=64";
    class       volScalarField;
    location    "0.6";
    object      nut;
}
// * * * * * * * * * * * * * * * * * * * * * * * * * * * * * * * * * * * * * //

dimensions      [0 2 -1 0 0 0 0];

internalField   nonuniform List<scalar> 
185303
(
8.65444e-16
9.08297e-16
9.12419e-16
8.70228e-16
8.62234e-16
9.1667e-16
9.1455e-16
8.67305e-16
8.6715e-16
8.65978e-16
8.61934e-16
8.65064e-16
8.68017e-16
9.10196e-16
9.12691e-16
9.1033e-16
8.63692e-16
9.28997e-16
9.0662e-16
9.26135e-16
8.67903e-16
9.26372e-16
8.63222e-16
8.70998e-16
8.68348e-16
8.50765e-16
8.69455e-16
9.27302e-16
9.13802e-16
9.28402e-16
8.63702e-16
8.99281e-16
9.07792e-16
8.63206e-16
8.67622e-16
9.18156e-16
9.01547e-16
9.25751e-16
8.64184e-16
9.21375e-16
9.21202e-16
8.57457e-16
8.69749e-16
9.24566e-16
8.64509e-16
9.17151e-16
9.15755e-16
8.58337e-16
9.00155e-16
8.44499e-16
8.98066e-16
8.43145e-16
8.62533e-16
8.97574e-16
9.31559e-16
8.62469e-16
9.29963e-16
9.28248e-16
8.47776e-16
8.66209e-16
8.5891e-16
9.00593e-16
8.69514e-16
8.59348e-16
9.24029e-16
8.49264e-16
9.1171e-16
8.6977e-16
8.64499e-16
9.03691e-16
8.61657e-16
8.4989e-16
8.48633e-16
9.24402e-16
8.67514e-16
8.98877e-16
8.67804e-16
9.14318e-16
8.75523e-16
9.00898e-16
8.46138e-16
9.00137e-16
8.67822e-16
8.48469e-16
9.02019e-16
8.62732e-16
9.14945e-16
8.70614e-16
9.11262e-16
9.27729e-16
8.58026e-16
8.60946e-16
8.65561e-16
8.71042e-16
8.71884e-16
9.18849e-16
8.71173e-16
8.70429e-16
8.60214e-16
9.20021e-16
8.58597e-16
9.15934e-16
9.11604e-16
9.19395e-16
9.22279e-16
9.24652e-16
8.58975e-16
8.69022e-16
9.10382e-16
8.66856e-16
9.1633e-16
9.21989e-16
8.64827e-16
8.50684e-16
8.58628e-16
9.21199e-16
9.02077e-16
8.45228e-16
8.99143e-16
8.9703e-16
9.24675e-16
9.09412e-16
9.13958e-16
9.24028e-16
8.68661e-16
8.66852e-16
8.45552e-16
8.44933e-16
8.98509e-16
9.18133e-16
8.47463e-16
9.16319e-16
9.25207e-16
9.26678e-16
8.60541e-16
9.02386e-16
8.69303e-16
9.17933e-16
8.69744e-16
9.22478e-16
9.24454e-16
8.49365e-16
9.13993e-16
9.03009e-16
9.07808e-16
8.58399e-16
9.10754e-16
9.03817e-16
9.16145e-16
9.15303e-16
9.04012e-16
8.49604e-16
9.0133e-16
8.66721e-16
9.06156e-16
8.42768e-16
8.96448e-16
8.42898e-16
8.60519e-16
9.0777e-16
8.9937e-16
8.47642e-16
8.99284e-16
9.18568e-16
8.46359e-16
9.01207e-16
8.48002e-16
8.60233e-16
9.02714e-16
8.4942e-16
8.59069e-16
9.01024e-16
9.09957e-16
8.62857e-16
8.65509e-16
9.24196e-16
9.10115e-16
9.23481e-16
9.2443e-16
9.10695e-16
8.47222e-16
9.00247e-16
8.71938e-16
8.61355e-16
8.44132e-16
8.99161e-16
8.46723e-16
9.10233e-16
8.64615e-16
8.43363e-16
8.99228e-16
9.2323e-16
9.22113e-16
8.61317e-16
8.65413e-16
9.25441e-16
8.62256e-16
8.59561e-16
8.47015e-16
9.1596e-16
9.2609e-16
8.55544e-16
9.02718e-16
9.1134e-16
8.64946e-16
8.64705e-16
9.16045e-16
9.11329e-16
8.69333e-16
9.13523e-16
9.15436e-16
8.64187e-16
9.26185e-16
8.6698e-16
9.28556e-16
9.05587e-16
8.62592e-16
8.52832e-16
9.10436e-16
8.4646e-16
8.59739e-16
8.52556e-16
8.50352e-16
9.28236e-16
9.05285e-16
9.0113e-16
8.59215e-16
9.01647e-16
8.97422e-16
8.44984e-16
8.63374e-16
8.61579e-16
8.63393e-16
9.18133e-16
9.25687e-16
8.61077e-16
8.69638e-16
9.13812e-16
9.24128e-16
9.20593e-16
9.24269e-16
9.26801e-16
8.61725e-16
9.19818e-16
9.141e-16
8.63112e-16
8.45992e-16
8.62796e-16
8.98381e-16
9.12585e-16
8.72685e-16
9.10085e-16
9.11697e-16
9.22576e-16
8.61167e-16
8.41152e-16
8.65353e-16
8.61322e-16
8.45295e-16
8.97063e-16
9.07629e-16
8.68665e-16
9.27292e-16
9.2288e-16
9.22896e-16
9.27345e-16
8.58053e-16
8.42966e-16
9.22533e-16
9.17822e-16
8.97548e-16
9.21693e-16
8.74313e-16
9.10847e-16
8.65713e-16
8.65591e-16
9.23051e-16
9.23594e-16
8.62602e-16
8.97644e-16
9.21531e-16
8.45411e-16
8.46153e-16
8.60704e-16
8.99639e-16
8.45381e-16
8.99995e-16
9.15778e-16
9.08121e-16
8.43887e-16
8.98618e-16
8.60344e-16
8.68127e-16
9.28416e-16
9.0986e-16
8.44266e-16
9.12688e-16
9.25865e-16
9.16659e-16
9.11652e-16
8.6764e-16
9.2894e-16
8.64753e-16
9.32109e-16
9.2697e-16
8.68239e-16
9.08509e-16
9.1023e-16
8.72756e-16
8.67991e-16
8.62692e-16
8.9732e-16
9.26972e-16
9.10344e-16
9.08126e-16
9.18104e-16
8.73522e-16
8.41531e-16
9.16687e-16
8.61897e-16
8.96269e-16
8.64487e-16
9.16314e-16
8.95632e-16
8.42391e-16
9.18346e-16
8.62192e-16
8.65111e-16
8.43602e-16
9.13649e-16
8.63107e-16
9.16162e-16
9.31103e-16
9.15889e-16
9.16289e-16
8.95838e-16
8.40305e-16
8.6783e-16
8.70599e-16
8.94464e-16
8.76251e-16
8.61441e-16
8.43405e-16
8.9711e-16
9.18094e-16
8.62211e-16
8.43844e-16
8.68105e-16
9.08409e-16
9.07951e-16
8.67446e-16
8.61843e-16
8.60912e-16
8.46162e-16
8.69071e-16
8.57246e-16
8.63467e-16
8.47874e-16
8.99223e-16
9.0608e-16
8.61753e-16
8.46732e-16
8.74292e-16
8.60837e-16
9.12494e-16
8.99073e-16
8.63386e-16
8.43371e-16
8.7065e-16
8.67151e-16
9.18158e-16
8.98885e-16
9.16024e-16
8.47902e-16
8.44626e-16
9.0935e-16
8.69862e-16
9.11727e-16
8.69462e-16
8.67647e-16
9.0138e-16
9.16129e-16
8.48593e-16
8.54621e-16
8.99997e-16
9.23631e-16
9.16713e-16
8.58764e-16
8.49874e-16
9.01769e-16
9.20618e-16
8.72002e-16
9.24125e-16
8.59868e-16
8.4729e-16
9.13909e-16
9.02039e-16
8.49407e-16
9.01799e-16
9.22885e-16
8.59971e-16
9.03998e-16
9.13762e-16
8.51403e-16
8.4979e-16
9.06631e-16
8.76284e-16
9.06006e-16
8.66635e-16
8.52851e-16
8.70398e-16
8.57793e-16
8.59819e-16
8.57571e-16
9.06877e-16
8.66018e-16
8.50044e-16
9.04001e-16
8.73169e-16
8.52653e-16
9.14701e-16
8.64575e-16
9.27719e-16
9.24945e-16
9.25414e-16
9.17497e-16
8.71243e-16
9.18334e-16
9.15659e-16
8.63558e-16
8.72138e-16
8.58812e-16
9.24098e-16
8.58511e-16
9.17193e-16
9.10761e-16
9.14213e-16
8.68034e-16
8.72686e-16
8.69842e-16
9.14627e-16
8.65225e-16
8.70266e-16
9.23686e-16
8.48576e-16
8.68348e-16
8.58774e-16
9.18256e-16
9.21807e-16
8.73279e-16
9.17144e-16
8.63357e-16
8.64902e-16
8.65554e-16
9.21942e-16
8.61327e-16
8.73515e-16
9.20753e-16
8.71113e-16
9.10694e-16
8.63521e-16
8.66228e-16
9.17746e-16
9.16122e-16
8.6523e-16
8.70946e-16
9.23604e-16
9.17091e-16
9.17312e-16
9.19308e-16
9.21924e-16
8.70181e-16
9.11367e-16
9.22889e-16
9.12021e-16
8.7315e-16
9.13659e-16
9.18328e-16
8.99107e-16
9.24863e-16
8.68779e-16
8.68715e-16
8.64954e-16
8.69398e-16
9.11253e-16
9.27074e-16
8.63862e-16
9.25928e-16
8.66846e-16
8.62718e-16
8.7579e-16
8.71668e-16
9.1932e-16
8.64194e-16
9.22975e-16
9.22436e-16
8.79374e-16
8.73567e-16
9.20292e-16
8.56739e-16
9.135e-16
8.6402e-16
8.68117e-16
8.74156e-16
8.6313e-16
9.29861e-16
9.16177e-16
8.68795e-16
9.27443e-16
8.66976e-16
9.26921e-16
9.01041e-16
8.62342e-16
8.73931e-16
9.20098e-16
8.75027e-16
9.16512e-16
8.69592e-16
9.17081e-16
8.7003e-16
9.13309e-16
8.67132e-16
9.126e-16
8.66244e-16
9.097e-16
8.66951e-16
9.12523e-16
8.68075e-16
9.1455e-16
8.68215e-16
9.11219e-16
8.66268e-16
9.12762e-16
8.68325e-16
9.16646e-16
8.71189e-16
9.15001e-16
8.68627e-16
9.13862e-16
8.6863e-16
9.14017e-16
8.69331e-16
9.14544e-16
8.67775e-16
9.10717e-16
8.66411e-16
9.13244e-16
8.70251e-16
9.15668e-16
8.69926e-16
9.13834e-16
8.66557e-16
9.14021e-16
8.68065e-16
9.12562e-16
8.6782e-16
9.12581e-16
8.69247e-16
9.16072e-16
8.71782e-16
9.16624e-16
8.69729e-16
9.15008e-16
8.66635e-16
9.12607e-16
8.68778e-16
9.10059e-16
8.67827e-16
9.15904e-16
8.67498e-16
9.1448e-16
8.70594e-16
9.13713e-16
8.70015e-16
9.17463e-16
8.74298e-16
9.19287e-16
8.74187e-16
9.20254e-16
8.76034e-16
9.21292e-16
8.75645e-16
9.20452e-16
8.74185e-16
9.1821e-16
8.71613e-16
9.16339e-16
8.71386e-16
9.15716e-16
8.7083e-16
9.16585e-16
8.70782e-16
9.19134e-16
8.72666e-16
9.20076e-16
8.7449e-16
9.19479e-16
8.78297e-16
9.19571e-16
8.74958e-16
9.19944e-16
8.72231e-16
9.18499e-16
8.76483e-16
9.17762e-16
8.70307e-16
9.19625e-16
8.69843e-16
9.17123e-16
8.76153e-16
9.15986e-16
8.73797e-16
9.21497e-16
8.75581e-16
9.19015e-16
8.68752e-16
9.1451e-16
8.70418e-16
9.1618e-16
8.71214e-16
9.15196e-16
8.71784e-16
9.1906e-16
8.7174e-16
9.16167e-16
8.70168e-16
9.16097e-16
8.69202e-16
9.14824e-16
8.70975e-16
9.137e-16
8.69546e-16
9.13688e-16
8.68194e-16
9.14889e-16
8.67475e-16
9.13273e-16
8.68804e-16
9.14334e-16
8.69707e-16
9.15021e-16
8.73866e-16
9.23206e-16
8.76948e-16
9.21763e-16
8.723e-16
9.20183e-16
8.7284e-16
9.18469e-16
8.69995e-16
9.18886e-16
8.70594e-16
9.17553e-16
8.70676e-16
9.15912e-16
8.71069e-16
9.17378e-16
8.70162e-16
9.16436e-16
8.68774e-16
9.14218e-16
8.69088e-16
9.16803e-16
8.71519e-16
9.17411e-16
8.69228e-16
9.13622e-16
8.67117e-16
9.14501e-16
8.68212e-16
9.15654e-16
8.685e-16
9.15635e-16
8.67408e-16
9.15747e-16
8.71054e-16
9.15524e-16
8.69743e-16
9.15727e-16
8.67922e-16
9.16564e-16
8.70538e-16
9.18258e-16
8.70027e-16
9.17212e-16
8.72058e-16
9.17382e-16
8.73012e-16
9.1823e-16
8.72469e-16
9.19002e-16
8.6864e-16
9.18823e-16
8.69851e-16
9.11662e-16
8.6629e-16
9.13404e-16
8.67687e-16
9.14664e-16
8.67937e-16
9.14719e-16
8.6855e-16
9.16716e-16
8.72754e-16
9.18579e-16
8.73787e-16
9.20306e-16
8.76216e-16
9.21782e-16
8.76947e-16
9.20153e-16
8.73438e-16
9.19223e-16
8.69611e-16
9.15139e-16
8.70258e-16
9.14435e-16
8.70483e-16
9.1491e-16
8.71091e-16
9.1602e-16
8.72041e-16
9.17841e-16
8.73089e-16
9.22629e-16
8.73527e-16
9.18946e-16
8.75338e-16
9.19992e-16
8.71218e-16
9.19857e-16
8.77335e-16
9.20719e-16
8.75015e-16
9.20696e-16
8.68543e-16
9.20467e-16
8.75699e-16
9.17836e-16
8.72185e-16
9.18238e-16
8.75207e-16
9.20618e-16
8.67743e-16
9.14127e-16
8.6861e-16
9.17076e-16
8.71712e-16
9.15555e-16
8.69797e-16
9.15526e-16
8.70531e-16
9.17523e-16
8.70393e-16
9.16415e-16
8.69582e-16
9.15313e-16
8.68574e-16
9.14228e-16
8.69344e-16
9.1287e-16
8.68615e-16
9.15812e-16
8.6771e-16
9.14262e-16
8.66121e-16
9.11604e-16
8.66112e-16
9.15093e-16
8.70529e-16
9.19323e-16
8.77021e-16
9.23015e-16
8.75246e-16
9.21949e-16
8.7522e-16
9.20295e-16
8.71324e-16
9.17198e-16
8.70996e-16
9.20315e-16
8.71583e-16
9.17185e-16
8.71291e-16
9.16051e-16
8.69167e-16
9.15854e-16
8.69174e-16
9.16855e-16
8.71144e-16
9.16901e-16
8.73103e-16
9.17868e-16
8.71493e-16
9.13996e-16
8.68533e-16
9.13536e-16
8.6824e-16
9.11939e-16
8.66589e-16
9.1291e-16
8.66733e-16
9.15347e-16
8.71275e-16
9.15421e-16
8.69785e-16
9.13158e-16
8.66422e-16
9.1444e-16
8.70679e-16
9.16099e-16
8.69334e-16
9.17967e-16
8.72078e-16
9.17508e-16
8.7254e-16
9.17375e-16
8.72434e-16
9.15333e-16
8.70437e-16
9.15393e-16
8.6975e-16
9.13999e-16
8.66324e-16
9.13433e-16
8.68776e-16
9.1437e-16
8.67813e-16
9.14474e-16
8.68384e-16
9.18573e-16
8.7348e-16
9.1935e-16
8.72738e-16
9.18316e-16
8.73099e-16
9.19826e-16
8.76071e-16
9.18342e-16
8.73514e-16
9.18829e-16
8.70331e-16
9.16572e-16
8.69037e-16
9.15103e-16
8.6894e-16
9.16359e-16
8.70293e-16
9.16684e-16
8.71513e-16
9.15032e-16
8.72183e-16
9.16465e-16
8.68624e-16
9.15612e-16
8.71967e-16
9.17382e-16
8.69742e-16
9.17385e-16
8.71967e-16
9.18168e-16
8.75966e-16
9.18629e-16
8.69347e-16
9.18059e-16
8.73827e-16
9.21761e-16
8.73559e-16
9.17356e-16
8.72542e-16
9.19094e-16
8.70913e-16
9.17245e-16
8.69765e-16
9.16521e-16
8.73183e-16
9.19482e-16
8.73338e-16
9.16815e-16
8.70324e-16
9.171e-16
8.70564e-16
9.16024e-16
8.6924e-16
9.14696e-16
8.66008e-16
9.13185e-16
8.66977e-16
9.10384e-16
8.66394e-16
9.11942e-16
8.68017e-16
9.16985e-16
8.68665e-16
9.14542e-16
8.69116e-16
9.15692e-16
8.73426e-16
9.20328e-16
8.7619e-16
9.21143e-16
8.76304e-16
9.22467e-16
8.75744e-16
9.22527e-16
8.73225e-16
9.15686e-16
8.7031e-16
9.16596e-16
8.70285e-16
9.15922e-16
8.69109e-16
9.15673e-16
8.67842e-16
9.13071e-16
8.65957e-16
9.15088e-16
8.68847e-16
9.15357e-16
8.69699e-16
9.1703e-16
8.71021e-16
9.14975e-16
8.67802e-16
9.15575e-16
8.69048e-16
9.12836e-16
8.66977e-16
9.09018e-16
8.64469e-16
9.11973e-16
8.67372e-16
9.13145e-16
8.67706e-16
9.10145e-16
8.63427e-16
9.10571e-16
8.67802e-16
9.11127e-16
8.66304e-16
9.14674e-16
8.69801e-16
9.14594e-16
8.68592e-16
9.15965e-16
8.70342e-16
9.16104e-16
8.69939e-16
9.13973e-16
8.67818e-16
9.12915e-16
8.67305e-16
9.1416e-16
8.70032e-16
9.15733e-16
8.68607e-16
9.12278e-16
8.67605e-16
9.13919e-16
8.71815e-16
9.17411e-16
8.71139e-16
9.17378e-16
8.70433e-16
9.16693e-16
8.7162e-16
9.16157e-16
8.70467e-16
9.16226e-16
8.69949e-16
9.16207e-16
8.6901e-16
9.13444e-16
8.66446e-16
9.13869e-16
8.68659e-16
9.17246e-16
8.70019e-16
9.17656e-16
8.70887e-16
9.15645e-16
8.70549e-16
9.16568e-16
8.71182e-16
9.16516e-16
8.70819e-16
9.16978e-16
8.69479e-16
9.17237e-16
8.74374e-16
9.18094e-16
8.69835e-16
9.13594e-16
8.68487e-16
9.18056e-16
8.74992e-16
9.19004e-16
8.71934e-16
9.1654e-16
8.71518e-16
9.20578e-16
8.70138e-16
9.16705e-16
8.70637e-16
9.17244e-16
8.73598e-16
9.17417e-16
8.68692e-16
9.15292e-16
8.70841e-16
9.17102e-16
8.70783e-16
9.16092e-16
8.6709e-16
9.14875e-16
8.66255e-16
9.12694e-16
8.66775e-16
9.1133e-16
8.66893e-16
9.14317e-16
8.68972e-16
9.1549e-16
8.68156e-16
9.14605e-16
8.74763e-16
9.23279e-16
8.76537e-16
9.22452e-16
8.76744e-16
9.21917e-16
8.7419e-16
9.20951e-16
8.74322e-16
9.18347e-16
8.71349e-16
9.17725e-16
8.72903e-16
9.16474e-16
8.71e-16
9.17149e-16
8.704e-16
9.16627e-16
8.68566e-16
9.15479e-16
8.69583e-16
9.15838e-16
8.68463e-16
9.16578e-16
8.71981e-16
9.14484e-16
8.65467e-16
9.13962e-16
8.67374e-16
9.16388e-16
8.67881e-16
9.11395e-16
8.63628e-16
9.11839e-16
8.65391e-16
9.10838e-16
8.65656e-16
9.11341e-16
8.63088e-16
9.11112e-16
8.66258e-16
9.10706e-16
8.64022e-16
9.11937e-16
8.67142e-16
9.11796e-16
8.66265e-16
9.13031e-16
8.69231e-16
9.14865e-16
8.68324e-16
9.17121e-16
8.6867e-16
9.1357e-16
8.65769e-16
9.1106e-16
8.67649e-16
9.14384e-16
8.6702e-16
9.13395e-16
8.65799e-16
9.13109e-16
8.70132e-16
9.15186e-16
8.7072e-16
9.18468e-16
8.70109e-16
9.16514e-16
8.68243e-16
9.14142e-16
8.66636e-16
9.12072e-16
8.66897e-16
9.14733e-16
8.69502e-16
9.17118e-16
8.69062e-16
9.16787e-16
8.71815e-16
9.18328e-16
8.72084e-16
9.19164e-16
8.7082e-16
9.17514e-16
8.73037e-16
9.19659e-16
8.71437e-16
9.17994e-16
8.71434e-16
9.17496e-16
8.6878e-16
9.15156e-16
8.71416e-16
9.16496e-16
8.70468e-16
9.1435e-16
8.64504e-16
9.14398e-16
8.7211e-16
9.18021e-16
8.69868e-16
9.12563e-16
8.67708e-16
9.15101e-16
8.70102e-16
9.18802e-16
8.70334e-16
9.16804e-16
8.72985e-16
9.20294e-16
8.70044e-16
9.15708e-16
8.69618e-16
9.16283e-16
8.72385e-16
9.17159e-16
8.69469e-16
9.15572e-16
8.6903e-16
9.13696e-16
8.66298e-16
9.15462e-16
8.66714e-16
9.13976e-16
8.69554e-16
9.12373e-16
8.67663e-16
9.16377e-16
8.74654e-16
9.21564e-16
8.76374e-16
9.23029e-16
8.77977e-16
9.23949e-16
8.75232e-16
9.20007e-16
8.74371e-16
9.16861e-16
8.69362e-16
9.17493e-16
8.71565e-16
9.15873e-16
8.69046e-16
9.13252e-16
8.67069e-16
9.14222e-16
8.69044e-16
9.16029e-16
8.70177e-16
9.15748e-16
8.68583e-16
9.14743e-16
8.71171e-16
9.16862e-16
8.66866e-16
9.13027e-16
8.66854e-16
9.12822e-16
8.68991e-16
9.12598e-16
8.64198e-16
9.14829e-16
8.66054e-16
9.1051e-16
8.64318e-16
9.10872e-16
8.66639e-16
9.13479e-16
8.67319e-16
9.14539e-16
8.67497e-16
9.15628e-16
8.69786e-16
9.17135e-16
8.69528e-16
9.15495e-16
8.71823e-16
9.12717e-16
8.68838e-16
9.14455e-16
8.71674e-16
9.15295e-16
8.66271e-16
9.12547e-16
8.64039e-16
9.1355e-16
8.68468e-16
9.14975e-16
8.66696e-16
9.16334e-16
8.69963e-16
9.14939e-16
8.71108e-16
9.18384e-16
8.74078e-16
9.19761e-16
8.72159e-16
9.19535e-16
8.70457e-16
9.16262e-16
8.70964e-16
9.16781e-16
8.7155e-16
9.18137e-16
8.69645e-16
9.16687e-16
8.71483e-16
9.1785e-16
8.72512e-16
9.18952e-16
8.70795e-16
9.16463e-16
8.71451e-16
9.17204e-16
8.69273e-16
9.16669e-16
8.71168e-16
9.18091e-16
8.69373e-16
9.17606e-16
8.71336e-16
9.18197e-16
8.76265e-16
9.19539e-16
8.68466e-16
9.16984e-16
8.73324e-16
9.19829e-16
8.73327e-16
9.18912e-16
8.69352e-16
9.14821e-16
8.70281e-16
9.18626e-16
8.70888e-16
9.16192e-16
8.71414e-16
9.17303e-16
8.71631e-16
9.18716e-16
8.69368e-16
9.1578e-16
8.70474e-16
9.16182e-16
8.69338e-16
9.16743e-16
8.7186e-16
9.11879e-16
8.66533e-16
9.14879e-16
8.67553e-16
9.17512e-16
8.70545e-16
9.13978e-16
8.69068e-16
9.16638e-16
8.76826e-16
9.22089e-16
8.76509e-16
9.20046e-16
8.76824e-16
9.22128e-16
8.73896e-16
9.19538e-16
8.72421e-16
9.15331e-16
8.67194e-16
9.12907e-16
8.69132e-16
9.16394e-16
8.69107e-16
9.15879e-16
8.66635e-16
9.12583e-16
8.67039e-16
9.14898e-16
8.7016e-16
9.17067e-16
8.69199e-16
9.13155e-16
8.68746e-16
9.15527e-16
8.69372e-16
9.17375e-16
8.69358e-16
9.12636e-16
8.70997e-16
9.12944e-16
8.66899e-16
9.14682e-16
8.67556e-16
9.13817e-16
8.63117e-16
9.09285e-16
8.65488e-16
9.12539e-16
8.65341e-16
9.14359e-16
8.68505e-16
9.12258e-16
8.67138e-16
9.15446e-16
8.67195e-16
9.15727e-16
8.68078e-16
9.14262e-16
8.65294e-16
9.12856e-16
8.6927e-16
9.13372e-16
8.68542e-16
9.12001e-16
8.62621e-16
9.11077e-16
8.66734e-16
9.13004e-16
8.67588e-16
9.15461e-16
8.69454e-16
9.16482e-16
8.69338e-16
9.17017e-16
8.74755e-16
9.18175e-16
8.72764e-16
9.19752e-16
8.69815e-16
9.16739e-16
8.70955e-16
9.16621e-16
8.71558e-16
9.17475e-16
8.69996e-16
9.16104e-16
8.71007e-16
9.16441e-16
8.71823e-16
9.17575e-16
8.70808e-16
9.17542e-16
8.72962e-16
9.17203e-16
8.6914e-16
9.16507e-16
8.70097e-16
9.14958e-16
8.68513e-16
9.16279e-16
8.68946e-16
9.1596e-16
8.75582e-16
9.19112e-16
8.69586e-16
9.17228e-16
8.71808e-16
9.16351e-16
8.72496e-16
9.19083e-16
8.70054e-16
9.16164e-16
8.70259e-16
9.16895e-16
8.70145e-16
9.17673e-16
8.71054e-16
9.14143e-16
8.71223e-16
9.17359e-16
8.69847e-16
9.16471e-16
8.6961e-16
9.13083e-16
8.66683e-16
9.14805e-16
8.68864e-16
9.13095e-16
8.6577e-16
9.12011e-16
8.66446e-16
9.14454e-16
8.67703e-16
9.13539e-16
8.67404e-16
9.15188e-16
8.79569e-16
9.24852e-16
8.74919e-16
9.20598e-16
8.74292e-16
9.18663e-16
8.73321e-16
9.19733e-16
8.72641e-16
9.18159e-16
8.71079e-16
9.13168e-16
8.68467e-16
9.14416e-16
8.71043e-16
9.17648e-16
8.68325e-16
9.16402e-16
8.67663e-16
9.13672e-16
8.70019e-16
9.1663e-16
8.69982e-16
9.15585e-16
8.67808e-16
9.13355e-16
8.67885e-16
9.18338e-16
8.69193e-16
9.13977e-16
8.67386e-16
9.12883e-16
8.65331e-16
9.11931e-16
8.6718e-16
9.1404e-16
8.65035e-16
9.13565e-16
8.67631e-16
9.15596e-16
8.68505e-16
9.18869e-16
8.71902e-16
9.13697e-16
8.68652e-16
9.15791e-16
8.71787e-16
9.17171e-16
8.70836e-16
9.17993e-16
8.68505e-16
9.16269e-16
8.68812e-16
9.14188e-16
8.69495e-16
9.13897e-16
8.66028e-16
9.13133e-16
8.67312e-16
9.13015e-16
8.67031e-16
9.13187e-16
8.68939e-16
9.179e-16
8.67957e-16
9.17109e-16
8.70686e-16
9.17206e-16
8.7079e-16
9.18565e-16
8.6945e-16
9.17587e-16
8.70666e-16
9.17901e-16
8.72479e-16
9.20703e-16
8.74744e-16
9.22146e-16
8.7464e-16
9.20719e-16
8.72997e-16
9.1786e-16
8.71376e-16
9.17955e-16
8.74503e-16
9.16062e-16
8.69037e-16
9.17247e-16
8.70272e-16
9.14483e-16
8.67768e-16
9.16345e-16
8.67695e-16
9.13929e-16
8.72006e-16
9.16967e-16
8.70835e-16
9.19476e-16
8.72256e-16
9.18104e-16
8.72031e-16
9.17747e-16
8.71085e-16
9.17749e-16
8.70951e-16
9.17247e-16
8.68985e-16
9.18546e-16
8.72037e-16
9.17121e-16
8.70509e-16
9.16595e-16
8.71604e-16
9.20971e-16
8.71959e-16
9.16462e-16
8.67301e-16
9.13329e-16
8.67961e-16
9.14182e-16
8.67048e-16
9.13245e-16
8.66448e-16
9.13809e-16
8.68001e-16
9.1499e-16
8.69081e-16
9.16473e-16
9.22276e-16
8.76558e-16
9.20569e-16
8.74312e-16
9.21416e-16
8.7265e-16
9.15941e-16
8.7134e-16
9.17545e-16
8.71393e-16
9.18084e-16
8.71388e-16
9.17216e-16
8.68168e-16
9.1418e-16
8.70606e-16
9.12653e-16
8.67267e-16
9.16966e-16
8.67035e-16
9.13377e-16
8.66684e-16
9.13145e-16
8.68186e-16
9.16835e-16
8.67766e-16
9.14731e-16
8.67279e-16
9.1599e-16
8.72496e-16
9.17301e-16
8.71279e-16
9.18354e-16
8.7007e-16
9.16968e-16
8.71101e-16
9.13498e-16
8.66262e-16
9.15315e-16
8.68282e-16
9.14194e-16
8.68417e-16
9.16338e-16
8.71162e-16
9.1499e-16
8.67502e-16
9.14737e-16
8.70893e-16
9.16067e-16
8.69919e-16
9.16081e-16
8.69156e-16
9.15238e-16
8.66841e-16
9.13503e-16
8.66226e-16
9.11717e-16
8.66153e-16
9.13754e-16
8.67373e-16
9.13302e-16
8.67222e-16
9.10625e-16
8.68597e-16
9.16831e-16
8.70352e-16
9.1802e-16
8.70456e-16
9.17398e-16
8.73032e-16
9.19421e-16
8.73692e-16
9.19897e-16
8.73672e-16
9.20244e-16
8.73437e-16
9.19509e-16
8.75656e-16
9.21674e-16
8.75425e-16
9.19407e-16
8.72223e-16
9.16281e-16
8.69452e-16
9.15678e-16
8.71165e-16
9.12841e-16
8.65767e-16
9.13443e-16
8.68284e-16
9.12315e-16
8.67433e-16
9.15083e-16
8.66742e-16
9.15422e-16
8.70627e-16
9.16168e-16
8.71244e-16
9.16469e-16
8.71221e-16
9.18235e-16
8.71891e-16
9.17657e-16
8.72306e-16
9.17434e-16
8.71133e-16
9.19328e-16
8.71948e-16
9.18501e-16
8.73943e-16
9.21884e-16
8.73068e-16
9.18359e-16
8.72474e-16
9.18539e-16
8.73857e-16
9.20482e-16
8.68943e-16
9.16516e-16
8.69733e-16
9.15754e-16
8.70397e-16
9.15159e-16
8.68658e-16
9.14584e-16
8.69441e-16
9.14205e-16
8.70572e-16
9.17105e-16
8.74132e-16
9.1934e-16
8.73319e-16
9.15853e-16
8.71449e-16
9.17873e-16
8.68762e-16
9.15437e-16
8.69572e-16
9.15757e-16
8.69566e-16
9.14385e-16
8.68539e-16
9.15661e-16
8.68008e-16
9.15142e-16
8.68583e-16
9.12071e-16
8.67504e-16
9.15762e-16
8.71427e-16
9.17765e-16
8.71772e-16
9.137e-16
8.71612e-16
9.14397e-16
8.72137e-16
9.20373e-16
8.67337e-16
9.17924e-16
8.75267e-16
9.16498e-16
8.71037e-16
9.15884e-16
8.6867e-16
9.15009e-16
8.69315e-16
9.09942e-16
8.63432e-16
9.11182e-16
8.66128e-16
9.14099e-16
8.66109e-16
9.14414e-16
8.69183e-16
9.15882e-16
8.68878e-16
9.15243e-16
8.70248e-16
9.17875e-16
8.71858e-16
9.17175e-16
8.70378e-16
9.15253e-16
8.67479e-16
9.14937e-16
8.6626e-16
9.12394e-16
8.66363e-16
9.14893e-16
8.69966e-16
9.18743e-16
8.71577e-16
9.15865e-16
8.70833e-16
9.16246e-16
8.72115e-16
9.17827e-16
8.69458e-16
9.15724e-16
8.71369e-16
9.15675e-16
8.71019e-16
9.17199e-16
8.71185e-16
9.18575e-16
8.69341e-16
9.15638e-16
8.71347e-16
9.17406e-16
8.73971e-16
9.18392e-16
8.70257e-16
9.15244e-16
8.67049e-16
9.14576e-16
8.6988e-16
9.13853e-16
8.65768e-16
9.14007e-16
8.67599e-16
9.11836e-16
8.64737e-16
9.11967e-16
8.64878e-16
9.11619e-16
8.67263e-16
9.15067e-16
8.70182e-16
9.14029e-16
8.6844e-16
9.15864e-16
8.70199e-16
9.15377e-16
8.70321e-16
9.15251e-16
8.69547e-16
9.18641e-16
8.73172e-16
9.17762e-16
8.72697e-16
9.20054e-16
8.74169e-16
9.22296e-16
8.73127e-16
9.17382e-16
8.74806e-16
9.20401e-16
8.71687e-16
9.17169e-16
8.6958e-16
9.15894e-16
8.70846e-16
9.1539e-16
8.67942e-16
9.14885e-16
8.67042e-16
9.12074e-16
8.69211e-16
9.13798e-16
8.76373e-16
9.24593e-16
8.7675e-16
9.21451e-16
8.73702e-16
9.18498e-16
8.69815e-16
9.16478e-16
8.69873e-16
9.16777e-16
8.687e-16
9.16437e-16
8.69421e-16
9.16391e-16
8.71906e-16
9.14345e-16
8.69015e-16
9.15324e-16
8.6796e-16
9.14455e-16
8.70712e-16
9.18175e-16
8.7062e-16
9.17674e-16
8.68671e-16
9.12832e-16
8.72294e-16
9.1462e-16
8.65217e-16
9.15716e-16
8.71438e-16
9.1368e-16
8.6775e-16
9.13556e-16
8.65716e-16
9.11842e-16
8.65901e-16
9.10112e-16
8.61498e-16
9.08041e-16
8.63923e-16
9.11074e-16
8.6474e-16
9.13917e-16
8.68298e-16
9.1582e-16
8.69472e-16
9.15228e-16
8.71265e-16
9.17909e-16
8.74153e-16
9.1862e-16
8.72534e-16
9.17604e-16
8.7033e-16
9.15972e-16
8.67099e-16
9.14788e-16
8.66022e-16
9.13392e-16
8.70151e-16
9.15658e-16
8.71294e-16
9.19934e-16
8.72588e-16
9.17796e-16
8.70974e-16
9.16835e-16
8.67013e-16
9.14518e-16
8.69433e-16
9.14082e-16
8.70846e-16
9.15703e-16
8.71572e-16
9.18854e-16
8.70631e-16
9.20354e-16
8.72109e-16
9.1856e-16
8.72893e-16
9.1957e-16
8.72029e-16
9.16593e-16
8.67114e-16
9.15665e-16
8.7051e-16
9.15901e-16
8.68763e-16
9.17548e-16
8.70977e-16
9.15745e-16
8.65688e-16
9.1453e-16
8.6791e-16
9.12826e-16
8.66976e-16
9.16198e-16
8.72648e-16
9.159e-16
8.68127e-16
9.14794e-16
8.69133e-16
9.14801e-16
8.69381e-16
9.14668e-16
8.6844e-16
9.15317e-16
8.71363e-16
9.18257e-16
8.72063e-16
9.16117e-16
8.71955e-16
9.20674e-16
8.72674e-16
9.1678e-16
8.71755e-16
9.17952e-16
8.71101e-16
9.16632e-16
8.67973e-16
9.13227e-16
8.68836e-16
9.13346e-16
8.66544e-16
9.14928e-16
8.65711e-16
9.14428e-16
8.67643e-16
9.15171e-16
8.77051e-16
9.22366e-16
8.76415e-16
9.21365e-16
8.73996e-16
9.19282e-16
8.72193e-16
9.1694e-16
8.70914e-16
9.16899e-16
8.7036e-16
9.19495e-16
8.70586e-16
9.17969e-16
8.70527e-16
9.13078e-16
8.68062e-16
9.15997e-16
8.68559e-16
9.16686e-16
8.70783e-16
9.16204e-16
8.71303e-16
9.19818e-16
8.70611e-16
9.1708e-16
8.71872e-16
9.1468e-16
8.65979e-16
9.16241e-16
8.69471e-16
9.1301e-16
8.66355e-16
9.12107e-16
8.6536e-16
9.09486e-16
8.65199e-16
9.1055e-16
8.63801e-16
9.11478e-16
8.66317e-16
9.1388e-16
8.68538e-16
9.15193e-16
8.69847e-16
9.17778e-16
8.69146e-16
9.161e-16
8.70053e-16
9.16478e-16
8.72034e-16
9.17078e-16
8.72295e-16
9.1651e-16
8.71552e-16
9.15211e-16
8.69139e-16
9.16379e-16
8.66871e-16
9.15455e-16
8.69624e-16
9.13062e-16
8.68147e-16
9.16593e-16
8.73642e-16
9.18739e-16
8.72771e-16
9.1879e-16
8.69921e-16
9.16347e-16
8.68706e-16
9.15212e-16
8.69981e-16
9.15075e-16
8.70309e-16
9.14756e-16
8.69416e-16
9.19112e-16
8.72443e-16
9.16488e-16
8.69617e-16
9.16479e-16
8.7173e-16
9.18515e-16
8.6874e-16
9.17272e-16
8.70608e-16
9.17605e-16
8.71712e-16
9.19389e-16
8.75529e-16
9.20482e-16
8.69695e-16
9.17642e-16
8.7166e-16
9.17022e-16
8.66811e-16
9.15297e-16
8.72952e-16
9.17605e-16
8.68409e-16
9.17132e-16
8.6878e-16
9.15039e-16
8.68608e-16
9.17375e-16
8.70163e-16
9.14653e-16
8.70562e-16
9.19679e-16
8.72766e-16
9.17039e-16
8.69766e-16
9.18546e-16
8.73244e-16
9.17243e-16
8.70591e-16
9.15893e-16
8.69937e-16
9.16939e-16
8.70163e-16
9.14004e-16
8.68711e-16
9.14238e-16
8.70605e-16
9.16672e-16
8.70804e-16
9.15884e-16
8.69279e-16
9.17563e-16
8.74253e-16
9.20315e-16
8.74877e-16
9.19778e-16
8.73355e-16
9.16853e-16
8.70453e-16
9.18038e-16
8.72077e-16
9.15144e-16
8.697e-16
9.16559e-16
8.70957e-16
9.16489e-16
8.69494e-16
9.12717e-16
8.67609e-16
9.12605e-16
8.6719e-16
9.16829e-16
8.70424e-16
9.15948e-16
8.69848e-16
9.18184e-16
8.70963e-16
9.16554e-16
8.70268e-16
9.1218e-16
8.66084e-16
9.13841e-16
8.69036e-16
9.1523e-16
8.68098e-16
9.1379e-16
8.66556e-16
9.11321e-16
8.63977e-16
9.1072e-16
8.64962e-16
9.10409e-16
8.65184e-16
9.13094e-16
8.69236e-16
9.14896e-16
8.70422e-16
9.17163e-16
8.69826e-16
9.15348e-16
8.69164e-16
9.17203e-16
8.72102e-16
9.17258e-16
8.71751e-16
9.15355e-16
8.69237e-16
9.12865e-16
8.68898e-16
9.14427e-16
8.68005e-16
9.15386e-16
8.68841e-16
9.15271e-16
8.6713e-16
9.14946e-16
8.73142e-16
9.16088e-16
8.72431e-16
9.18167e-16
8.71083e-16
9.17267e-16
8.69007e-16
9.1525e-16
8.687e-16
9.17088e-16
8.69764e-16
9.14917e-16
8.66897e-16
9.14979e-16
8.69937e-16
9.17532e-16
8.698e-16
9.15765e-16
8.71728e-16
9.18601e-16
8.69527e-16
9.1814e-16
8.70867e-16
9.17167e-16
8.71115e-16
9.19316e-16
8.7727e-16
9.21375e-16
8.71481e-16
9.17351e-16
8.72031e-16
9.19268e-16
8.70369e-16
9.16519e-16
8.72382e-16
9.16997e-16
8.71238e-16
9.20564e-16
8.74278e-16
9.17498e-16
8.70953e-16
9.18745e-16
8.72621e-16
9.16977e-16
8.72516e-16
9.1811e-16
8.72346e-16
9.17765e-16
8.67445e-16
9.15269e-16
8.70491e-16
9.15006e-16
8.68857e-16
9.16454e-16
8.69797e-16
9.16092e-16
8.71228e-16
9.16956e-16
8.67704e-16
9.15054e-16
8.69381e-16
9.16528e-16
8.71401e-16
9.13624e-16
8.67512e-16
9.13154e-16
8.73408e-16
9.208e-16
8.72802e-16
9.19806e-16
8.72781e-16
9.14429e-16
8.6691e-16
9.16455e-16
8.7115e-16
9.15907e-16
8.67622e-16
9.14791e-16
8.68809e-16
9.15973e-16
8.7047e-16
9.14988e-16
8.67855e-16
9.12654e-16
8.66264e-16
9.1502e-16
8.72388e-16
9.16535e-16
8.69632e-16
9.16378e-16
8.70879e-16
9.17839e-16
8.71717e-16
9.14351e-16
8.66378e-16
9.10161e-16
8.66132e-16
9.13792e-16
8.69182e-16
9.11842e-16
8.65494e-16
9.09139e-16
8.60218e-16
9.0897e-16
8.63657e-16
9.09385e-16
8.62625e-16
9.1016e-16
8.66734e-16
9.11943e-16
8.66819e-16
9.13773e-16
8.69158e-16
9.13762e-16
8.66035e-16
9.15192e-16
8.70913e-16
9.16021e-16
8.71354e-16
9.16811e-16
8.69558e-16
9.14228e-16
8.68124e-16
9.14906e-16
8.6946e-16
9.13724e-16
8.67139e-16
9.15109e-16
8.65315e-16
9.16419e-16
8.70791e-16
9.16276e-16
8.69983e-16
9.16663e-16
8.70404e-16
9.17093e-16
8.69997e-16
9.15846e-16
8.70478e-16
9.18128e-16
8.73395e-16
9.19957e-16
8.70019e-16
9.16956e-16
8.71232e-16
9.18536e-16
8.73011e-16
9.18529e-16
8.73493e-16
9.17533e-16
8.71169e-16
9.18921e-16
8.72344e-16
9.19514e-16
8.72662e-16
9.19497e-16
8.76841e-16
9.20128e-16
8.72752e-16
9.18801e-16
8.74088e-16
9.17268e-16
8.71445e-16
9.17325e-16
8.70684e-16
9.15693e-16
8.69404e-16
9.16469e-16
8.71758e-16
9.16693e-16
8.68792e-16
9.15123e-16
8.68966e-16
9.15308e-16
8.70985e-16
9.16462e-16
8.72416e-16
9.18415e-16
8.6992e-16
9.18038e-16
8.70547e-16
9.14375e-16
8.68051e-16
9.16696e-16
8.70064e-16
9.15131e-16
8.71967e-16
9.16721e-16
8.68997e-16
9.1538e-16
8.68305e-16
9.16425e-16
8.71112e-16
9.16349e-16
8.67532e-16
9.14258e-16
8.77105e-16
9.23179e-16
8.7501e-16
9.21562e-16
8.74851e-16
9.1889e-16
8.70317e-16
9.16458e-16
8.71415e-16
9.17993e-16
8.69691e-16
9.15962e-16
8.6891e-16
9.15592e-16
8.70344e-16
9.14183e-16
8.65552e-16
9.12811e-16
8.64746e-16
9.14062e-16
8.71123e-16
9.18082e-16
8.69636e-16
9.1698e-16
8.6967e-16
9.15644e-16
8.70356e-16
9.16675e-16
8.66704e-16
9.12075e-16
8.63313e-16
9.13658e-16
8.70901e-16
9.12843e-16
8.66107e-16
9.10607e-16
8.61673e-16
9.10287e-16
8.65e-16
9.11167e-16
8.629e-16
9.09254e-16
8.64837e-16
9.11775e-16
8.6636e-16
9.12631e-16
8.69175e-16
9.1562e-16
8.66216e-16
9.15554e-16
8.69934e-16
9.15647e-16
8.70493e-16
9.16586e-16
8.71019e-16
9.15458e-16
8.67288e-16
9.13571e-16
8.70198e-16
9.13002e-16
8.68998e-16
9.14778e-16
8.68931e-16
9.16496e-16
8.70851e-16
9.16859e-16
8.70682e-16
9.17187e-16
8.72036e-16
9.16742e-16
8.70627e-16
9.17694e-16
8.71224e-16
9.15903e-16
8.72335e-16
9.17363e-16
8.70543e-16
9.17831e-16
8.70723e-16
9.15197e-16
8.70651e-16
9.18191e-16
8.72583e-16
9.16184e-16
8.68781e-16
9.14169e-16
8.69093e-16
9.16569e-16
8.69462e-16
9.17567e-16
8.72241e-16
9.15851e-16
8.68882e-16
9.17748e-16
8.73463e-16
9.16561e-16
8.7057e-16
9.15885e-16
8.70169e-16
9.17683e-16
8.70879e-16
9.15804e-16
8.71298e-16
9.17644e-16
8.70563e-16
9.18276e-16
8.70928e-16
9.1646e-16
8.71202e-16
9.17227e-16
8.73815e-16
9.17732e-16
8.72151e-16
9.18477e-16
8.69589e-16
9.15971e-16
8.68975e-16
9.16083e-16
8.6941e-16
9.15374e-16
8.70707e-16
9.14901e-16
8.67757e-16
9.15592e-16
8.6769e-16
9.13745e-16
8.68801e-16
9.13726e-16