/*--------------------------------*- C++ -*----------------------------------*\
| =========                 |                                                 |
| \\      /  F ield         | OpenFOAM: The Open Source CFD Toolbox           |
|  \\    /   O peration     | Version:  2206                                  |
|   \\  /    A nd           | Website:  www.openfoam.com                      |
|    \\/     M anipulation  |                                                 |
\*---------------------------------------------------------------------------*/
FoamFile
{
    version     2.0;
    format      ascii;
    arch        "LSB;label=32;scalar=64";
    class       volScalarField;
    location    "0.6";
    object      p;
}
// * * * * * * * * * * * * * * * * * * * * * * * * * * * * * * * * * * * * * //

dimensions      [0 2 -2 0 0 0 0];

internalField   nonuniform List<scalar> 
185303
(
0.0332385
0.0267726
0.0366885
0.0371018
0.0365268
0.0296983
0.0292997
0.0372922
0.03672
0.0291363
0.0299171
0.0269985
0.0372846
0.0269661
0.0376412
0.0337707
0.0301195
0.0378316
0.0357232
0.0287083
0.035374
0.0376346
0.0378632
0.0322579
0.0371012
0.0295329
0.0382495
0.0300816
0.0353371
0.0304715
0.0285579
0.0332047
0.0265918
0.0304995
0.0384434
0.027545
0.0368746
0.0302746
0.030305
0.0359156
0.0320188
0.0285469
0.0289418
0.0372546
0.0287474
0.0337602
0.0386208
0.0359477
0.0265808
0.0266161
0.0267699
0.0268058
0.0374735
0.0269651
0.0390141
0.0289363
0.0382207
0.0380293
0.0270025
0.0279786
0.0336146
0.0271637
0.0347911
0.0361366
0.0388104
0.0271978
0.027558
0.0378631
0.0273903
0.0273604
0.0303134
0.0273928
0.0275885
0.0294901
0.0269978
0.0361078
0.0299239
0.0333908
0.0293283
0.0277474
0.0277846
0.0279448
0.0266206
0.027984
0.0281414
0.034204
0.0265814
0.0367183
0.0277524
0.0324191
0.028363
0.0305031
0.0378661
0.0328447
0.0326456
0.0328042
0.0380625
0.0303156
0.036902
0.0304675
0.0266073
0.0326259
0.0273615
0.0281335
0.0355275
0.0337755
0.0349842
0.0277824
0.0271658
0.0384526
0.0343493
0.0353339
0.0336152
0.0281746
0.035367
0.0384075
0.0283314
0.0283679
0.0285188
0.0287113
0.0343581
0.0279452
0.038422
0.03455
0.0380648
0.0271888
0.0285516
0.0287461
0.0289054
0.0285172
0.0289435
0.0388169
0.0339699
0.0279436
0.0332336
0.0291028
0.028168
0.0364862
0.0363306
0.0267635
0.0331987
0.0291374
0.0341573
0.0292955
0.0363023
0.0267982
0.0310707
0.0294958
0.0322254
0.037251
0.0296987
0.0297311
0.0298907
0.0355624
0.035528
0.0299244
0.0300834
0.0301196
0.0367085
0.0359198
0.030278
0.0303124
0.0304693
0.0302787
0.0305048
0.030667
0.0307055
0.0370975
0.0308723
0.0309098
0.0363255
0.0310722
0.0341704
0.0328371
0.0340033
0.0368681
0.0347607
0.0265751
0.0370662
0.034366
0.0311071
0.0312657
0.0279809
0.0312976
0.0313017
0.0314571
0.0314943
0.0333992
0.0376665
0.0316824
0.0318383
0.0351403
0.0269593
0.0369071
0.0275799
0.0273504
0.0271869
0.0269929
0.0318762
0.0370624
0.027546
0.0334258
0.0320321
0.0368767
0.0347907
0.0283692
0.033578
0.0300899
0.0388529
0.0382248
0.0339558
0.0380616
0.0283352
0.0289435
0.0294884
0.0322268
0.0277781
0.0322595
0.036499
0.0328469
0.0301111
0.0324613
0.0320654
0.0298828
0.0326185
0.0328151
0.0359473
0.0330077
0.0335862
0.0330446
0.0316758
0.0299209
0.0309015
0.0267729
0.0308669
0.0307
0.0374754
0.0349499
0.0316461
0.0308713
0.0364864
0.0328007
0.0330353
0.0279433
0.0283361
0.0361379
0.0332429
0.0297167
0.0333962
0.0291045
0.0309059
0.0287182
0.0345598
0.0335845
0.0338043
0.0334323
0.0330417
0.0357563
0.0336203
0.0337765
0.0353393
0.0320612
0.0277461
0.0349442
0.0283276
0.0322199
0.0357562
0.0338114
0.0357292
0.0295
0.0339697
0.0330082
0.0322567
0.037261
0.0307006
0.034986
0.0361011
0.0366727
0.0372908
0.0341735
0.0386095
0.0340111
0.0342093
0.0342018
0.0343618
0.0343908
0.0345516
0.0382153
0.0304734
0.0345895
0.0347511
0.0314876
0.0326548
0.0281365
0.0285257
0.0347888
0.0298944
0.0374432
0.0324274
0.0339705
0.0297273
0.0292923
0.0386518
0.0384149
0.0296881
0.0312924
0.036106
0.0370678
0.0295334
0.0369096
0.0273853
0.0349488
0.0329991
0.0302803
0.0335851
0.0289016
0.0320587
0.0349849
0.0362926
0.0363323
0.0351435
0.0311036
0.0357217
0.0353355
0.035179
0.0380225
0.0295258
0.0275875
0.0353727
0.0374531
0.0277823
0.0273485
0.0386169
0.0347516
0.033014
0.0355302
0.0355681
0.0341963
0.0343909
0.0357279
0.0386506
0.0318688
0.0357626
0.0359178
0.0277428
0.0345904
0.0359538
0.0293298
0.0349552
0.0351498
0.0318675
0.0351802
0.0353689
0.0378713
0.0337993
0.0355582
0.0308998
0.0361442
0.0363047
0.0324259
0.0268032
0.036336
0.0324537
0.0266182
0.0378416
0.0364944
0.033804
0.0365277
0.037666
0.0339972
0.0376274
0.036683
0.0380326
0.0367184
0.0369094
0.0314596
0.0382574
0.0306697
0.0336151
0.0386519
0.0370696
0.03782
0.0371067
0.0382585
0.0372602
0.0312602
0.0366782
0.0316765
0.0373018
0.0374531
0.0326042
0.0384487
0.0341663
0.0345834
0.0374857
0.0271483
0.037644
0.0376793
0.0378367
0.0362942
0.0365182
0.038029
0.0332086
0.0380666
0.0293323
0.038224
0.0388509
0.0384199
0.0359485
0.0384511
0.0361396
0.0355617
0.0343852
0.0351702
0.0386137
0.0351839
0.0386553
0.0388149
0.0318652
0.0388531
0.0351441
0.0343936
0.0326098
0.0318375
0.0320263
0.0316353
0.0316735
0.031255
0.0368727
0.0374774
0.028173
0.0347809
0.0347468
0.0349772
0.0361023
0.0316479
0.035911
0.0357605
0.0275847
0.0285547
0.0355262
0.037672
0.0324603
0.0271541
0.0326556
0.0345897
0.0334282
0.0345516
0.0318267
0.0301229
0.0314427
0.0320593
0.0322536
0.0324512
0.0314548
0.0310983
0.0297252
0.0298853
0.0332393
0.0312656
0.0279773
0.0281762
0.0332009
0.0320298
0.0271949
0.0330468
0.0285162
0.0374389
0.0287072
0.0310616
0.0324148
0.0311009
0.0308638
0.0306656
0.0328205
0.0382535
0.0289117
0.0290985
0.0316447
0.0292895
0.0365248
0.0314823
0.0328472
0.028745
0.0281442
0.0289085
0.0291308
0.0291031
0.0293276
0.0287391
0.0307055
0.030505
0.0300808
0.0334276
0.0333945
0.0296875
0.0295311
0.0291345
0.0322171
0.0312933
0.0318376
0.0314903
0.0273864
0.0283672
0.0326436
0.0388136
0.0269617
0.0268082
0.0306657
0.0388468
0.0310656
0.0275547
0.034003
0.0388494
0.0388093
0.0386473
0.0386082
0.0384489
0.0384099
0.0382525
0.0382138
0.0380603
0.0380222
0.0378662
0.03783
0.0376715
0.0376361
0.0374822
0.0374456
0.0372947
0.0372592
0.0371015
0.037066
0.036908
0.0368701
0.0367144
0.0366767
0.0365239
0.0364865
0.0363306
0.0362937
0.0361367
0.0360994
0.0359483
0.0359131
0.0357588
0.0357236
0.035563
0.0355274
0.0353742
0.0353379
0.0351832
0.0351464
0.0349868
0.0349497
0.0347908
0.0347535
0.0345907
0.0345539
0.034394
0.0343568
0.034197
0.034157
0.033995
0.0339567
0.0337982
0.0337616
0.0336167
0.0335783
0.0334248
0.0333874
0.033238
0.0332019
0.0330487
0.0330117
0.0328488
0.0328118
0.032648
0.0326116
0.0324533
0.0324145
0.0322524
0.0322137
0.0320551
0.032018
0.0318618
0.0318248
0.0316748
0.0316381
0.0314857
0.0314503
0.0312945
0.0312574
0.0311004
0.0310642
0.030904
0.0308669
0.0307041
0.0306675
0.0305071
0.0304714
0.0303169
0.0302805
0.030124
0.0300856
0.0299272
0.0298882
0.029727
0.02969
0.02953
0.0294937
0.029333
0.0292958
0.0291348
0.0290972
0.0289401
0.0289063
0.0287493
0.028712
0.0285555
0.0285196
0.0283663
0.0283286
0.0281726
0.0281339
0.0279753
0.0279372
0.0277762
0.0277407
0.0275853
0.0275458
0.0273902
0.0273522
0.0271916
0.0271572
0.0269971
0.0269625
0.0268051
0.0267697
0.0266201
0.0265828
0.0388469
0.0388078
0.0386431
0.038605
0.0384447
0.0384082
0.0382499
0.0382133
0.0380569
0.0380215
0.0378647
0.0378278
0.0376719
0.0376363
0.0374817
0.0374465
0.037296
0.0372603
0.0371005
0.0370642
0.0369052
0.0368698
0.0367123
0.0366754
0.0365211
0.0364844
0.0363302
0.0362938
0.0361373
0.0361028
0.03595
0.0359152
0.0357592
0.0357243
0.0355637
0.0355295
0.0353746
0.0353399
0.0351829
0.0351476
0.0349874
0.0349513
0.0347918
0.0347561
0.0345908
0.0345542
0.034391
0.0343535
0.0341913
0.0341535
0.0339908
0.0339537
0.0337942
0.0337584
0.0336126
0.0335779
0.0334231
0.0333873
0.0332349
0.0331997
0.0330456
0.0330094
0.032846
0.0328092
0.0326476
0.032611
0.0324538
0.0324161
0.0322527
0.0322159
0.0320551
0.0320185
0.0318615
0.0318266
0.0316737
0.0316374
0.0314831
0.0314458
0.03129
0.0312539
0.0310975
0.031061
0.0309048
0.0308697
0.0307056
0.0306707
0.0305088
0.0304736
0.0303162
0.0302829
0.0301244
0.0300882
0.0299243
0.0298877
0.0297278
0.0296925
0.0295282
0.0294916
0.0293313
0.0292954
0.0291374
0.0290997
0.028943
0.028909
0.028749
0.0287133
0.0285518
0.0285143
0.0283596
0.0283233
0.0281683
0.0281314
0.0279754
0.0279376
0.0277759
0.0277396
0.0275813
0.0275463
0.0273889
0.0273528
0.0271946
0.0271586
0.0269973
0.0269622
0.0268051
0.0267713
0.0266182
0.0265807
0.038841
0.0388039
0.0386421
0.0386048
0.0384431
0.0384064
0.0382487
0.038212
0.0380571
0.0380213
0.0378656
0.03783
0.0376748
0.0376377
0.0374846
0.0374474
0.0372979
0.0372612
0.0371035
0.0370668
0.0369063
0.03687
0.0367118
0.0366756
0.0365218
0.0364851
0.0363293
0.0362915
0.0361376
0.0361018
0.0359519
0.0359168
0.0357609
0.0357251
0.0355665
0.0355313
0.0353764
0.0353405
0.0351849
0.0351487
0.034989
0.034953
0.0347922
0.0347556
0.0345915
0.0345557
0.034391
0.0343542
0.0341907
0.0341528
0.0339932
0.0339569
0.0337974
0.0337599
0.0336113
0.0335759
0.0334229
0.0333871
0.0332362
0.0331998
0.0330457
0.0330089
0.0328455
0.032808
0.0326469
0.0326099
0.0324499
0.0324108
0.0322506
0.0322117
0.0320543
0.0320179
0.0318627
0.031827
0.0316724
0.0316365
0.0314843
0.031449
0.0312916
0.031255
0.0310978
0.0310606
0.0309059
0.0308674
0.0307062
0.0306713
0.0305104
0.0304742
0.0303191
0.030283
0.0301234
0.0300874
0.029923
0.0298858
0.0297287
0.0296926
0.0295316
0.0294936
0.0293307
0.0292946
0.029135
0.0290981
0.0289437
0.0289062
0.0287495
0.0287144
0.0285539
0.0285163
0.0283604
0.0283227
0.0281696
0.0281314
0.0279721
0.0279331
0.0277745
0.0277368
0.0275796
0.0275424
0.0273872
0.0273497
0.027195
0.0271578
0.0270004
0.0269634
0.026806
0.0267706
0.0266176
0.026581
0.0388388
0.0388029
0.0386421
0.0386054
0.0384444
0.0384077
0.0382495
0.0382133
0.0380556
0.0380183
0.0378644
0.037828
0.0376721
0.037635
0.0374826
0.037445
0.0372953
0.0372576
0.0371011
0.0370648
0.0369065
0.0368697
0.0367119
0.0366756
0.0365225
0.0364867
0.0363318
0.0362953
0.0361411
0.0361047
0.0359536
0.035918
0.0357619
0.0357263
0.0355695
0.0355344
0.0353783
0.0353416
0.0351847
0.035149
0.0349897
0.0349536
0.0347916
0.0347554
0.0345897
0.0345529
0.0343897
0.0343533
0.0341878
0.0341519
0.0339922
0.0339562
0.0337977
0.0337629
0.0336128
0.0335779
0.0334224
0.0333861
0.0332358
0.0331992
0.0330458
0.0330087
0.0328438
0.0328045
0.0326438
0.0326053
0.0324464
0.0324099
0.0322484
0.0322106
0.0320539
0.0320178
0.0318638
0.0318288
0.0316717
0.0316362
0.0314832
0.0314479
0.0312909
0.0312556
0.0310977
0.0310627
0.0309051
0.0308671
0.0307059
0.0306683
0.030509
0.0304729
0.0303179
0.0302806
0.0301251
0.0300893
0.029925
0.0298875
0.0297257
0.0296891
0.0295282
0.0294911
0.0293318
0.0292936
0.0291363
0.0291017
0.028946
0.0289083
0.0287507
0.0287134
0.0285528
0.0285165
0.0283574
0.0283203
0.0281651
0.0281283
0.0279698
0.0279308
0.0277712
0.0277333
0.0275779
0.027541
0.0273856
0.0273489
0.0271957
0.0271583
0.0270005
0.026963
0.0268067
0.0267707
0.0266151
0.0265782
0.0388402
0.0388027
0.0386421
0.0386064
0.0384439
0.0384068
0.03825
0.0382132
0.0380554
0.0380191
0.0378633
0.0378261
0.0376721
0.0376356
0.0374838
0.0374476
0.0372966
0.0372578
0.0370995
0.0370618
0.0369043
0.0368683
0.0367108
0.0366748
0.0365198
0.0364822
0.036329
0.036294
0.0361424
0.0361067
0.0359537
0.0359178
0.0357622
0.0357265
0.0355723
0.0355377
0.0353818
0.0353446
0.0351863
0.0351494
0.034992
0.0349542
0.0347935
0.0347568
0.0345914
0.0345544
0.0343926
0.034355
0.0341917
0.0341547
0.0339965
0.0339613
0.0338003
0.0337655
0.0336129
0.0335764
0.0334212
0.0333833
0.0332314
0.0331937
0.0330438
0.0330071
0.0328459
0.032809
0.0326454
0.0326076
0.0324448
0.0324068
0.0322473
0.0322109
0.0320549
0.0320195
0.0318674
0.031832
0.0316744
0.0316382
0.0314856
0.0314499
0.0312907
0.0312545
0.0310977
0.0310626
0.0309057
0.0308708
0.0307088
0.0306721
0.0305119
0.0304752
0.0303173
0.0302801
0.0301234
0.0300875
0.0299254
0.0298883
0.0297272
0.0296889
0.0295281
0.0294915
0.0293305
0.0292912
0.0291344
0.0290967
0.0289428
0.0289064
0.0287507
0.0287132
0.0285534
0.0285172
0.0283585
0.0283208
0.028162
0.0281247
0.0279667
0.0279289
0.0277714
0.027733
0.0275766
0.0275387
0.0273841
0.0273474
0.0271962
0.0271592
0.0269987
0.0269621
0.0268065
0.0267692
0.0266136
0.0265766
0.0388392
0.038802
0.0386443
0.0386066
0.0384419
0.0384058
0.0382482
0.0382116
0.0380559
0.0380189
0.0378634
0.0378273
0.0376698
0.0376322
0.0374822
0.0374465
0.0372933
0.0372565
0.0370988
0.0370617
0.0369053
0.036868
0.0367135
0.036678
0.0365223
0.0364858
0.0363294
0.0362937
0.0361437
0.0361087
0.0359543
0.0359178
0.0357624
0.035727
0.0355734
0.0355375
0.0353796
0.0353434
0.0351853
0.0351478
0.0349906
0.0349525
0.0347931
0.0347558
0.0345919
0.0345543
0.0343909
0.0343552
0.034192
0.0341551
0.0339989
0.0339615
0.0338012
0.033764
0.0336112
0.0335741
0.0334205
0.0333833
0.0332292
0.0331912
0.0330391
0.0330023
0.0328449
0.0328081
0.0326453
0.0326088
0.0324436
0.0324077
0.0322473
0.0322119
0.0320572
0.0320222
0.0318687
0.0318323
0.0316751
0.0316385
0.0314861
0.0314496
0.031293
0.0312573
0.0310989
0.0310629
0.0309059
0.0308703
0.030707
0.0306703
0.0305109
0.0304743
0.0303168
0.0302802
0.0301214
0.0300852
0.0299236
0.0298882
0.0297255
0.0296869
0.0295256
0.0294883
0.0293298
0.0292921
0.0291352
0.0290978
0.0289443
0.0289075
0.0287513
0.0287134
0.0285536
0.0285154
0.0283565
0.0283187
0.0281599
0.0281214
0.0279622
0.0279257
0.0277681
0.0277306
0.0275728
0.0275353
0.0273812
0.0273442
0.0271922
0.0271544
0.0269972
0.0269608
0.0268055
0.0267687
0.026615
0.0265791
0.0388366
0.0388004
0.0386478
0.038611
0.0384456
0.0384077
0.0382477
0.0382118
0.038055
0.0380176
0.0378647
0.0378285
0.037674
0.0376377
0.0374831
0.0374463
0.0372911
0.0372546
0.0370972
0.0370604
0.0369023
0.0368653
0.0367125
0.036676
0.0365229
0.0364868
0.03633
0.0362945
0.036145
0.0361105
0.0359579
0.0359214
0.0357652
0.0357291
0.0355763
0.0355393
0.0353812
0.0353455
0.0351855
0.0351475
0.0349894
0.0349514
0.034793
0.0347567
0.0345938
0.0345565
0.0343926
0.0343558
0.0341927
0.0341564
0.0339983
0.0339623
0.0338029
0.0337657
0.0336092
0.0335711
0.033416
0.0333798
0.0332261
0.0331886
0.033037
0.033001
0.0328428
0.0328065
0.0326447
0.0326082
0.0324464
0.0324105
0.032249
0.0322143
0.0320601
0.0320267
0.0318716
0.031837
0.0316776
0.031643
0.0314883
0.031453
0.0312955
0.0312591
0.0310994
0.0310628
0.0309064
0.03087
0.030707
0.0306699
0.0305102
0.0304729
0.0303157
0.0302785
0.0301222
0.0300861
0.0299262
0.029891
0.0297275
0.0296892
0.0295236
0.029486
0.0293277
0.0292902
0.0291329
0.0290965
0.0289434
0.0289059
0.0287494
0.0287121
0.0285535
0.0285166
0.028356
0.0283186
0.0281597
0.0281204
0.0279602
0.0279221
0.0277644
0.0277276
0.0275706
0.0275341
0.0273815
0.0273447
0.0271903
0.0271535
0.0269959
0.0269588
0.0268025
0.0267654
0.0266115
0.0265745
0.0388414
0.0388016
0.038646
0.0386069
0.0384457
0.0384088
0.0382501
0.0382134
0.0380549
0.0380183
0.0378628
0.0378258
0.0376742
0.0376376
0.0374832
0.0374463
0.037289
0.0372522
0.0370968
0.0370614
0.0369039
0.0368681
0.0367118
0.0366748
0.036525
0.0364898
0.036334
0.0362988
0.0361464
0.0361111
0.0359563
0.0359204
0.0357639
0.0357277
0.0355732
0.0355358
0.0353781
0.0353403
0.035183
0.0351462
0.0349893
0.0349528
0.0347927
0.0347541
0.0345927
0.0345558
0.034393
0.0343553
0.0341935
0.0341558
0.0339974
0.0339609
0.0338028
0.0337678
0.0336102
0.0335728
0.0334151
0.0333794
0.0332259
0.0331906
0.0330401
0.0330031
0.0328444
0.0328068
0.0326435
0.0326079
0.0324492
0.0324133
0.0322536
0.0322192
0.0320646
0.032031
0.0318758
0.0318421
0.0316837
0.0316496
0.0314915
0.031456
0.0312977
0.0312615
0.0311035
0.0310668
0.0309099
0.0308733
0.0307088
0.0306708
0.0305102
0.0304726
0.0303144
0.0302763
0.0301195
0.0300824
0.0299238
0.0298885
0.0297241
0.0296867
0.0295224
0.029486
0.0293276
0.0292913
0.0291334
0.029098
0.0289426
0.0289068
0.0287497
0.0287127
0.0285518
0.0285145
0.0283531
0.0283151
0.0281561
0.0281191
0.0279624
0.0279251
0.0277651
0.0277278
0.02757
0.0275341
0.0273816
0.027344
0.0271874
0.0271504
0.026995
0.0269581
0.0268028
0.0267658
0.0266129
0.0265753
0.0389981
0.0388375
0.0388001
0.0386433
0.0386048
0.0384452
0.0384082
0.0382511
0.0382142
0.0380564
0.0380203
0.0378636
0.0378276
0.0376748
0.0376397
0.037486
0.0374497
0.0372916
0.0372549
0.037096
0.0370595
0.0369055
0.0368696
0.0367138
0.0366771
0.0365257
0.0364894
0.0363341
0.0362994
0.0361477
0.0361117
0.0359577
0.0359222
0.0357665
0.0357298
0.0355738
0.0355365
0.035379
0.0353416
0.0351823
0.0351447
0.0349894
0.0349532
0.0347922
0.0347551
0.0345935
0.0345572
0.0343922
0.034355
0.0341912
0.0341546
0.0339973
0.0339607
0.0338032
0.0337669
0.0336097
0.0335741
0.0334148
0.0333795
0.0332246
0.0331889
0.0330369
0.0329996
0.0328429
0.0328033
0.0326421
0.0326048
0.0324496
0.0324142
0.0322572
0.0322229
0.0320705
0.0320356
0.0318804
0.0318453
0.0316879
0.0316529
0.031494
0.0314584
0.0312983
0.0312622
0.0311034
0.0310663
0.030911
0.0308729
0.0307107
0.0306719
0.0305103
0.0304735
0.0303146
0.0302775
0.0301188
0.0300807
0.0299231
0.0298869
0.0297223
0.029686
0.0295218
0.0294858
0.0293267
0.0292904
0.029134
0.0290982
0.0289424
0.0289058
0.0287494
0.0287125
0.0285539
0.0285175
0.0283544
0.0283171
0.0281551
0.0281183
0.0279629
0.027926
0.0277652
0.0277276
0.0275703
0.0275355
0.0273826
0.027345
0.0271875
0.0271499
0.026994
0.0269565
0.026801
0.0267648
0.0266109
0.0265726
0.0390333
0.0389961
0.038836
0.0387983
0.0386407
0.0386026
0.0384449
0.0384082
0.038249
0.0382123
0.0380553
0.0380178
0.0378631
0.0378264
0.0376746
0.0376398
0.0374845
0.0374489
0.0372926
0.0372565
0.0370956
0.037059
0.036903
0.036867
0.0367155
0.0366783
0.0365298
0.0364933
0.0363369
0.0363018
0.0361466
0.0361101
0.0359566
0.0359203
0.0357642
0.0357284
0.0355695
0.0355312
0.0353772
0.0353405
0.0351813
0.0351447
0.0349871
0.0349512
0.0347901
0.0347532
0.0345929
0.0345562
0.0343926
0.0343565
0.0341918
0.0341552
0.0339968
0.0339606
0.0338031
0.0337672
0.033611
0.0335751
0.033417
0.0333816
0.0332264
0.0331906
0.0330352
0.0329974
0.0328399
0.0328027
0.0326446
0.0326085
0.0324536
0.0324182
0.0322617
0.0322265
0.0320724
0.0320365
0.0318833
0.0318473
0.0316904
0.0316546
0.0314962
0.0314607
0.0312996
0.0312622
0.0311015
0.0310653
0.0309086
0.0308719
0.0307113
0.0306737
0.0305113
0.0304735
0.0303127
0.0302746
0.030117
0.0300786
0.0299214
0.0298833
0.0297205
0.0296843
0.0295213
0.0294862
0.0293267
0.02929
0.0291336
0.0290976
0.0289412
0.0289051
0.0287475
0.0287121
0.0285521
0.0285148
0.0283527
0.028316
0.0281535
0.0281172
0.0279617
0.0279256
0.0277661
0.0277282
0.0275688
0.0275325
0.0273791
0.0273429
0.0271874
0.0271502
0.0269931
0.0269561
0.0268011
0.0267652
0.0266109
0.0265742
0.0390352
0.038998
0.0388368
0.0387999
0.0386402
0.0386027
0.0384474
0.0384101
0.0382505
0.0382132
0.0380542
0.0380176
0.0378637
0.0378267
0.0376771
0.0376401
0.037485
0.0374505
0.0372927
0.0372586
0.0370998
0.0370636
0.0369055
0.0368705
0.0367161
0.0366812
0.0365316
0.0364927
0.036338
0.036302
0.0361468
0.0361113
0.035958
0.0359213
0.0357635
0.0357275
0.0355659
0.0355306
0.0353752
0.0353393
0.0351823
0.0351448
0.0349867
0.0349491
0.0347878
0.0347519
0.0345921
0.0345556
0.0343947
0.0343585
0.0341956
0.0341592
0.0340006
0.0339639
0.033805
0.0337689
0.0336114
0.0335757
0.0334181
0.0333817
0.033228
0.0331919
0.0330365
0.0329989
0.0328376
0.0328003
0.0326436
0.032607
0.0324542
0.0324196
0.0322673
0.0322314
0.0320768
0.0320405
0.0318848
0.0318475
0.0316913
0.0316546
0.0314975
0.0314609
0.0312997
0.0312623
0.0311019
0.0310652
0.030909
0.0308734
0.0307136
0.030677
0.0305142
0.0304771
0.03031
0.0302708
0.0301136
0.0300771
0.0299209
0.0298827
0.0297215
0.0296849
0.0295219
0.0294844
0.0293246
0.0292883
0.0291338
0.0290983
0.0289423
0.0289054
0.0287487
0.0287125
0.028553
0.0285166
0.0283533
0.0283167
0.028155
0.0281182
0.02796
0.0279236
0.0277661
0.0277299
0.0275707
0.0275334
0.0273775
0.027342
0.027187
0.0271495
0.0269917
0.0269551
0.0268001
0.0267648
0.0266104
0.0265741
0.0390345
0.0389969
0.0388362
0.0387994
0.0386396
0.0386038
0.0384479
0.038411
0.0382514
0.0382141
0.0380544
0.0380186
0.0378627
0.0378281
0.037677
0.0376399
0.0374883
0.0374532
0.0372944
0.0372594
0.0370983
0.037063
0.0369074
0.0368717
0.0367173
0.0366845
0.03653
0.0364928
0.0363378
0.0363022
0.0361474
0.0361109
0.0359566
0.0359196
0.0357635
0.0357271
0.0355667
0.0355303
0.0353741
0.035338
0.0351816
0.0351457
0.0349874
0.0349508
0.0347891
0.0347522
0.0345918
0.034555
0.0343931
0.0343561
0.0341948
0.0341588
0.0340029
0.033967
0.0338088
0.0337719
0.033614
0.0335772
0.033418
0.0333815
0.033225
0.0331879
0.0330333
0.0329967
0.032838
0.0328014
0.0326459
0.0326094
0.0324567
0.0324214
0.0322686
0.0322321
0.0320777
0.0320398
0.0318842
0.0318468
0.031689
0.0316509
0.031493
0.0314549
0.0312963
0.0312605
0.0311024
0.0310651
0.0309089
0.0308736
0.030713
0.0306768
0.0305148
0.0304791
0.030309
0.0302713
0.0301119
0.0300758
0.0299181
0.0298799
0.029722
0.0296861
0.0295259
0.0294879
0.0293264
0.0292891
0.0291348
0.029099
0.0289417
0.0289059
0.0287494
0.0287121
0.0285539
0.0285168
0.0283518
0.0283149
0.0281541
0.0281178
0.0279604
0.0279234
0.0277666
0.0277303
0.0275699
0.0275339
0.0273766
0.0273416
0.0271865
0.0271505
0.0269924
0.0269553
0.0268002
0.0267648
0.0266104
0.0265745
0.0390344
0.038998
0.0388372
0.0388001
0.0386412
0.0386052
0.0384505
0.0384145
0.0382513
0.0382146
0.0380535
0.038017
0.0378633
0.0378287
0.0376765
0.037642
0.0374897
0.0374544
0.0372976
0.0372617
0.0370992
0.0370641
0.0369083
0.0368731
0.0367197
0.0366835
0.0365269
0.0364904
0.0363381
0.0363028
0.0361493
0.0361128
0.0359555
0.035919
0.035762
0.0357254
0.0355667
0.0355304
0.0353748
0.0353383
0.035183
0.0351461
0.0349859
0.0349494
0.0347881
0.0347527
0.0345923
0.0345557
0.0343952
0.0343586
0.0341965
0.0341601
0.0340022
0.0339667
0.0338093
0.0337743
0.0336155
0.0335776
0.0334177
0.0333813
0.0332263
0.0331899
0.0330335
0.0329975
0.0328392
0.0328028
0.0326463
0.0326098
0.0324582
0.0324221
0.032269
0.0322332
0.0320783
0.0320407
0.0318831
0.0318448
0.0316882
0.0316521
0.0314945
0.0314565
0.0312977
0.0312608
0.0311029
0.031066
0.0309092
0.0308726
0.0307147
0.0306793
0.0305157
0.0304787
0.0303099
0.0302731
0.0301128
0.0300753
0.0299164
0.0298791
0.0297209
0.0296841
0.0295255
0.0294876
0.0293281
0.0292909
0.0291379
0.0291007
0.0289441
0.0289097
0.0287523
0.0287143
0.0285558
0.0285173
0.0283542
0.0283164
0.028155
0.0281197
0.0279619
0.0279258
0.0277699
0.0277329
0.0275722
0.0275368
0.0273802
0.0273435
0.0271875
0.027152
0.0269934
0.0269571
0.0268026
0.0267662
0.0266128
0.0265769
0.0390362
0.038999
0.0388369
0.0387997
0.0386417
0.038605
0.0384515
0.0384154
0.0382538
0.0382168
0.0380554
0.0380202
0.0378664
0.0378306
0.0376787
0.0376436
0.037492
0.0374566
0.037299
0.0372623
0.037099
0.0370617
0.0369056
0.0368703
0.0367195
0.0366838
0.0365276
0.0364915
0.0363395
0.0363038
0.0361506
0.0361137
0.0359554
0.035918
0.0357619
0.0357244
0.0355661
0.0355302
0.0353736
0.035337
0.035183
0.0351465
0.0349872
0.0349506
0.0347902
0.0347556
0.034592
0.0345552
0.0343944
0.0343588
0.0341983
0.0341624
0.0340051
0.033969
0.0338116
0.0337768
0.0336162
0.0335794
0.0334181
0.0333818
0.0332268
0.0331899
0.0330324
0.0329963
0.0328386
0.0328016
0.0326462
0.0326107
0.0324593
0.032423
0.0322692
0.0322315
0.0320755
0.032038
0.031881
0.0318419
0.0316858
0.0316487
0.0314913
0.0314548
0.0312945
0.0312568
0.0311014
0.0310645
0.0309101
0.0308729
0.0307149
0.0306776
0.0305138
0.0304759
0.0303076
0.0302706
0.0301114
0.0300747
0.0299154
0.0298781
0.0297203
0.0296836
0.0295248
0.0294885
0.0293293
0.0292938
0.0291383
0.0291012
0.0289441
0.0289077
0.028751
0.028715
0.0285553
0.0285162
0.0283548
0.0283169
0.0281551
0.0281187
0.0279621
0.0279258
0.0277684
0.0277312
0.0275715
0.0275352
0.0273795
0.0273423
0.0271867
0.0271493
0.026992
0.0269568
0.026802
0.0267652
0.0266116
0.0265756
0.0390362
0.0389989
0.0388383
0.0388015
0.0386444
0.0386068
0.0384517
0.0384146
0.038255
0.0382174
0.038058
0.0380225
0.037868
0.0378324
0.0376783
0.0376421
0.0374925
0.0374581
0.0373015
0.037267
0.0371029
0.037066
0.0369081
0.0368726
0.0367186
0.0366829
0.0365246
0.0364869
0.0363349
0.0362979
0.0361485
0.0361136
0.0359542
0.0359174
0.0357613
0.0357236
0.0355671
0.0355311
0.035374
0.0353372
0.0351815
0.0351449
0.0349873
0.0349506
0.0347925
0.0347569
0.0345941
0.0345565
0.0343951
0.0343582
0.0341987
0.034163
0.0340066
0.0339707
0.0338135
0.0337769
0.0336167
0.0335814
0.0334219
0.0333856
0.0332293
0.0331912
0.0330345
0.0329975
0.032838
0.0328011
0.0326464
0.032611
0.0324596
0.0324234
0.0322688
0.0322305
0.032073
0.0320356
0.0318785
0.0318409
0.0316862
0.0316498
0.0314923
0.031456
0.0312959
0.0312584
0.0311017
0.0310633
0.0309093
0.0308713
0.030715
0.0306767
0.0305121
0.030474
0.0303084
0.0302716
0.0301118
0.0300762
0.0299157
0.0298792
0.0297197
0.0296837
0.0295239
0.0294876
0.0293301
0.0292943
0.0291401
0.0291044
0.0289471
0.0289097
0.0287501
0.0287136
0.0285538
0.0285168
0.0283566
0.0283189
0.0281572
0.0281205
0.0279646
0.0279271
0.0277681
0.0277314
0.0275713
0.0275349
0.027378
0.0273415
0.0271858
0.0271492
0.0269917
0.0269556
0.0268011
0.0267642
0.0266098
0.0265726
0.039037
0.0390001
0.0388386
0.0388014
0.0386452
0.0386085
0.0384526
0.0384156
0.0382552
0.0382191
0.0380593
0.0380232
0.0378698
0.0378346
0.0376836
0.037649
0.037497
0.0374611
0.0373019
0.0372667
0.0371021
0.0370662
0.0369095
0.0368728
0.0367177
0.0366803
0.0365245
0.0364877
0.0363356
0.0362978
0.0361482
0.0361127
0.0359557
0.0359187
0.0357619
0.0357254
0.0355682
0.0355319
0.0353741
0.0353377
0.0351825
0.0351468
0.0349883
0.0349516
0.034794
0.0347577
0.0345946
0.0345582
0.0343978
0.0343604
0.0342014
0.0341642
0.0340071
0.0339705
0.0338147
0.033777
0.0336169
0.0335812
0.0334214
0.0333857
0.0332278
0.033191
0.0330349
0.0329974
0.0328385
0.0328026
0.0326474
0.032612
0.0324586
0.032421
0.0322651
0.0322274
0.0320703
0.0320321
0.0318736
0.0318367
0.0316828
0.0316452
0.0314874
0.0314485
0.0312933
0.0312576
0.0311021
0.0310648
0.0309077
0.0308693
0.0307125
0.0306736
0.0305109
0.0304736
0.0303091
0.0302713
0.0301101
0.0300735
0.0299158
0.0298796
0.0297224
0.0296859
0.0295263
0.0294902
0.0293314
0.0292954
0.0291401
0.0291048
0.0289487
0.0289132
0.0287522
0.0287143
0.0285528
0.028515
0.0283547
0.0283165
0.0281563
0.0281199
0.0279651
0.0279294
0.0277681
0.0277313
0.0275713
0.0275356
0.0273803
0.0273434
0.0271861
0.0271493
0.0269909
0.0269546
0.0268005
0.0267631
0.0266103
0.0265724
0.0390349
0.0389995
0.0388383
0.0388023
0.0386452
0.0386085
0.0384532
0.0384164
0.0382594
0.0382238
0.0380641
0.0380275
0.0378719
0.0378359
0.0376856
0.0376499
0.0374995
0.037464
0.037305
0.0372692
0.0371047
0.0370682
0.0369096
0.0368728
0.0367162
0.0366782
0.0365233
0.036486
0.0363349
0.0362965
0.0361467
0.0361086
0.0359535
0.0359163
0.0357602
0.0357237
0.0355663
0.0355308
0.0353724
0.0353371
0.0351822
0.0351467
0.0349882
0.0349525
0.0347965
0.034761
0.0345947
0.034558
0.0343973
0.0343611
0.0342023
0.0341649
0.0340063
0.0339697
0.0338143
0.0337773
0.0336181
0.0335817
0.0334239
0.0333887
0.0332294
0.0331945
0.0330353
0.0329968
0.0328385
0.0328018
0.0326485
0.0326132
0.0324591
0.032421
0.0322635
0.0322259
0.0320686
0.0320303
0.0318718
0.0318338
0.031683
0.0316461
0.0314899
0.0314526
0.0312942
0.0312572
0.0311011
0.0310641
0.0309061
0.030868
0.0307091
0.0306699
0.0305093
0.030471
0.0303105
0.0302732
0.0301111
0.0300741
0.0299161
0.0298802
0.0297232
0.0296849
0.0295266
0.0294908
0.0293347
0.0292993
0.0291404
0.0291033
0.0289468
0.0289116
0.0287512
0.0287135
0.0285526
0.028515
0.028355
0.0283187
0.0281581
0.0281222
0.0279654
0.0279285
0.0277676
0.0277303
0.0275693
0.0275328
0.0273784
0.0273426
0.0271867
0.02715
0.0269929
0.026957
0.0267999
0.0267628
0.0266081
0.0265714
0.0390369
0.039
0.03884
0.0388033
0.0386476
0.0386114
0.0384539
0.0384176
0.0382596
0.0382232
0.0380646
0.0380295
0.0378736
0.0378387
0.0376862
0.0376507
0.0374983
0.0374615
0.0373057
0.0372701
0.0371064
0.0370689
0.0369117
0.0368749
0.0367165
0.0366788
0.0365229
0.0364849
0.0363322
0.0362946
0.0361435
0.0361051
0.0359509
0.0359139
0.0357601
0.0357237
0.035567
0.0355312
0.035372
0.0353362
0.0351799
0.0351444
0.0349871
0.034952
0.0348007
0.0347655
0.0345981
0.0345619
0.0343967
0.0343613
0.0342043
0.0341687
0.0340076
0.0339709
0.0338135
0.0337774
0.0336195
0.033582
0.0334257
0.0333895
0.03323
0.0331942
0.0330351
0.0329984
0.032839
0.0328032
0.0326492
0.032613
0.0324552
0.0324184
0.0322611
0.0322236
0.0320664
0.0320288
0.0318706
0.031834
0.0316822
0.0316451
0.0314897
0.0314519
0.0312938
0.0312567
0.0311001
0.0310628
0.0309045
0.0308666
0.0307059
0.0306672
0.0305074
0.0304692
0.0303117
0.0302743
0.0301105
0.0300736
0.0299155
0.0298808
0.0297246
0.0296874
0.029527
0.0294893
0.0293355
0.0292994
0.0291426
0.0291059
0.0289501
0.0289138
0.0287532
0.0287166
0.0285538
0.0285167
0.0283576
0.0283216
0.0281602
0.028123
0.0279641
0.0279274
0.0277683
0.0277321
0.0275725
0.0275356
0.0273784
0.0273427
0.027184
0.0271481
0.0269919
0.0269551
0.0267988
0.0267629
0.026609
0.026572
0.0390387
0.0390008
0.0388389
0.0388018
0.0386481
0.0386117
0.0384556
0.0384196
0.0382627
0.0382269
0.0380663
0.0380303
0.0378737
0.0378385
0.037688
0.0376527
0.0375005
0.0374638
0.0373067
0.0372688
0.0371041
0.037066
0.0369101
0.0368724
0.0367137
0.0366761
0.0365197
0.0364833
0.0363313
0.0362952
0.0361434
0.0361062
0.0359531
0.0359157
0.0357606
0.035723
0.0355658
0.0355292
0.0353722
0.0353368
0.0351812
0.0351454
0.0349872
0.0349529
0.0348007
0.0347642
0.0346015
0.0345654
0.0343992
0.0343636
0.0342048
0.0341686
0.0340081
0.0339705
0.0338123
0.0337764
0.0336206
0.0335841
0.0334283
0.0333916
0.0332318
0.0331964
0.0330359
0.0329989
0.0328396
0.0328022
0.0326499
0.0326132
0.0324551
0.0324189
0.032259
0.0322221
0.0320627
0.0320256
0.0318694
0.0318341
0.0316804
0.0316447
0.0314884
0.0314498
0.0312936
0.0312554
0.0311005
0.0310636
0.030903
0.0308654
0.0307037
0.0306671
0.0305076
0.0304716
0.0303144
0.0302775
0.0301128
0.030076
0.0299168
0.0298813
0.0297243
0.029688
0.0295265
0.0294883
0.0293328
0.0292962
0.0291425
0.0291068
0.0289498