/*--------------------------------*- C++ -*----------------------------------*\
| =========                 |                                                 |
| \\      /  F ield         | OpenFOAM: The Open Source CFD Toolbox           |
|  \\    /   O peration     | Version:  2206                                  |
|   \\  /    A nd           | Website:  www.openfoam.com                      |
|    \\/     M anipulation  |                                                 |
\*---------------------------------------------------------------------------*/
FoamFile
{
    version     2.0;
    format      ascii;
    arch        "LSB;label=32;scalar=64";
    class       volScalarField;
    location    "10";
    object      omega;
}
// * * * * * * * * * * * * * * * * * * * * * * * * * * * * * * * * * * * * * //

dimensions      [0 0 -1 0 0 0 0];

internalField   nonuniform List<scalar> 
66621
(
202.763
66.4416
211.87
28.8938
55.8216
19.8174
332.134
27.7958
20.4106
19.5989
58.0007
21.5991
111.614
108.521
325.442
332.565
21.5952
107.098
109.772
20.4493
57.1361
102.307
328.503
28.8511
20.4684
58.4856
19.6751
65.9175
210.023
28.836
20.4431
19.6426
58.495
62.999
207.191
29.0165
20.4483
19.7063
59.4995
64.8123
207.731
21.5726
108.632
107.114
332.24
27.9733
20.3303
19.6459
57.6727
62.157
211.965
62.7352
211.899
332.184
332.982
113.473
348.338
254.833
75.5436
233.612
65.1593
74.3163
231.302
255.522
355.121
118.592
210.574
117.398
354.336
331.557
156.538
343.717
343
342.328
341.025
160.951
67.994
218.445
110.595
39.2536
37.3722
212.957
71.4044
68.6831
219.517
106.893
38.5471
37.954
214.985
71.9045
328.139
160.021
343.732
345.669
338.438
342.239
160.67
70.6742
215.676
38.3755
216.418
70.4421
69.4746
221.43
109.409
38.9406
220.953
72.3565
38.4904
339.583
153.847
214.3
36.7211
67.3025
251.633
232.411
74.0473
65.2894
231.436
70.8118
251.265
349.964
114.366
209.521
113.26
354.585
70.0316
231.235
252.358
109.171
353.443
229.925
73.7088
252.903
110.547
349.967
151.052
341.09
340.387
337.955
335.021
152.62
68.9337
218.851
107.848
38.5717
213.358
38.2597
69.6565
67.6385
216.256
104.419
38.2804
37.7881
210.378
68.7699
331.524
250.366
71.2966
227.716
61.3216
70.8599
226.323
251.315
351.831
113.925
211.566
110.704
350.528
248.156
70.7119
228.129
60.0008
68.3748
223.275
252.516
347.497
113.414
211.214
112.523
352.661
329.231
19.1523
19.187
18.9218
18.8335
19.2163
18.9608
18.8664
18.864
19.0475
18.7828
18.7113
18.8607
18.8779
19.035
18.8164
18.8764
22.3418
30.3156
21.9437
28.719
30.0273
21.9581
22.3499
36.7468
27.5874
23.6269
22.0824
21.7215
29.8902
27.4652
21.7121
29.889
22.1611
23.6304
37.556
57.1421
28.2045
27.926
37.3252
23.6234
33.1928
21.5336
25.1354
24.9749
24.5267
24.7973
34.8112
34.6343
21.6262
25.0871
25.1734
34.9893
24.9116
25.0275
37.4513
28.0544
23.7067
22.2793
30.0889
21.9937
28.2039
30.1688
21.9486
22.4501
23.63
38.8566
56.9388
28.2308
38.6224
27.5604
23.9566
22.3156
21.9287
30.7266
28.6536
21.9504
30.441
22.3182
23.6889
37.6321
58.1411
28.1476
37.5248
23.6781
27.6073
22.4314
22.0168
30.9726
28.8002
21.9358
30.7177
22.3389
23.8315
38.4094
56.8522
28.544
28.2738
38.2001
23.6151
32.6819
21.5461
24.938
24.8008
24.6552
24.8032
34.2434
22.1191
21.6991
30.1225
27.1184
21.7125
29.9818
22.2138
23.4536
36.771
57.4217
27.8134
27.3803
36.5722
23.3362
744.026
1653.05
4452.35
16486.8
116782
745.066
1652.86
4452.25
16488.7
116803
722.425
1633.28
4420.58
16434.6
116892
721.507
1633.57
4420.8
16433
116863
722.253
1633.48
4420.95
16436.8
116912
720.562
1633.4
4420.63
16433.2
116873
745.159
1652.81
4452.21
16488.7
116814
743.824
1652.91
4451.95
16485.9
116782
744.46
1653.07
4452.11
16485.6
116773
722.378
1633.45
4420.46
16434
116881
746.569
1652.97
4452.02
16487.6
116796
746.085
1652.92
4452.03
16487.7
116803
722.691
1633.92
4420.97
16434.7
116892
724.302
1633.84
4420.95
16436.4
116912
734.421
1645.29
4438.17
16457.3
116752
734.053
1638.63
4426.39
16434.8
116727
731.737
1639.13
4427.35
16435.5
116727
735.176
1644.99
4437.34
16456.6
116752
744.417
1653.67
4453.27
16489.3
116803
722.471
1634.25
4421.54
16435.2
116892
742.622
1651.8
4450.15
16484.3
116796
742.786
1652.62
4451.3
16485.2
116796
743.768
1651.8
4450.17
16484.3
116796
744.447
1652.75
4451.22
16485
116795
721.161
1634.1
4421.83
16437.5
116912
721.395
1637.94
4428.61
16450.4
116904
742.593
1651.98
4450.24
16482.6
116778
732.849
1645.24
4438.18
16456.4
116748
731.96
1638.39
4426.35
16434.7
116725
731.876
1639
4427.18
16435.2
116725
735.6
1644.96
4437.27
16455.9
116748
743.922
1653.61
4453.24
16489.5
116814
731.59
1638.52
4426.89
16435.2
116749
733.354
1644.69
4437.76
16457.8
116774
731.336
1638.42
4426.87
16435.9
116748
733.988
1644.79
4437.79
16457.9
116770
721.589
1637.64
4428.59
16451
116904
743.515
1651.68
4449.84
16481.6
116759
742.558
1652.45
4450.9
16482.3
116759
723.508
1634.34
4421.39
16434.5
116881
734.67
1645.28
4438.46
16458.7
116769
733.622
1638.42
4426.61
16436.7
116747
731.918
1639
4427.56
16437.3
116747
734.48
1644.99
4437.62
16458
116769
744.473
1653.59
4453.03
16488.4
116796
733.834
1645.36
4438.4
16458.3
116774
732.973
1638.35
4426.62
16436.1
116749
731.851
1638.96
4427.44
16436.6
116749
736.561
1645.09
4437.54
16457.7
116774
745.249
1653.69
4453.01
16488.1
116803
721.89
1634.32
4421.72
16436.8
116912
723.079
1637.87
4428.53
16451.1
116918
723.773
1638.06
4428.5
16451.4
116921
719.076
1633.08
4419.81
16428.8
116836
720.319
1633.82
4420.66
16430.4
116840
719.833
1633.47
4419.67
16429.5
116840
721.637
1637.64
4428.63
16451.7
116918
743.44
1651.77
4450.01
16482.6
116778
742.507
1652.52
4451.03
16483.4
116778
720.686
1638.38
4429.42
16451.7
116918
721.333
1638.54
4429.38
16452
116921
723.495
1637.9
4428.62
16452
116933
744.253
1651.82
4449.99
16482.6
116776
742.954
1652.57
4451.03
16483.4
116776
722.732
1637.9
4428.45
16450.8
116921
743.709
1651.84
4450.14
16483.8
116796
743.191
1652.69
4451.23
16484.7
116796
723.315
1638.68
4429.59
16452.6
116933
723.525
1638.95
4429.43
16451.5
116921
718.604
1633.51
4420.66
16430.4
116853
718.411
1633.24
4419.75
16429.7
116853
718.183
1632.94
4419.73
16428.8
116840
718.275
1632.93
4419.8
16428.6
116831
720.53
1638.27
4429.59
16452.4
116918
720.338
1638.29
4429.48
16451.6
116904
718.991
1633.78
4420.58
16429.5
116836
721.858
1633.51
4419.63
16428.7
116836
717.808
1633.59
4420.38
16429.4
116840
721.377
1633.39
4419.53
16428.7
116840
332.051
331.506
21.6168
106.242
103.057
64.8062
208.248
28.5382
20.4536
57.4963
19.654
62.4808
200.841
28.2322
20.4511
19.5804
55.6183
20.3953
58.3187
212.766
328.042
21.5402
104.865
103.545
329.942
26.9486
20.3343
19.6416
55.6056
27.186
20.3343
19.6511
53.458
58.1073
206.43
59.7819
206.558
21.5731
108.483
104.356
332.376
332.308
339.272
344.932
160.651
213.369
38.7446
70.4384
218.112
36.7624
72.8557
257.513
72.9099
233.498
63.9377
255.122
74.0324
236.363
358.212
115
209.754
356.787
116.541
256.25
227.43
72.8977
61.1559
256.081
231.577
72.9845
354.612
111.115
205.305
354.712
108.583
352.889
115.627
210.798
356.398
113.219
324.175
154.941
337.336
339.889
153.406
338.863
339.01
70.2606
217.864
36.0314
105.822
37.3285
70.1451
218.412
69.8166
211.837
36.88
107.064
69.0037
216.569
37.4328
327.451
252.72
68.429
225.68
60.9896
252.082
69.2414
224.5
355.255
113.841
209.959
355.864
111.187
253.456
70.0224
223.867
62.5063
252.96
70.2093
228.353
353.534
106.683
210.06
349.825
111.34
161.424
341.172
343.315
160.17
339.316
343.805
72.0723
214.407
38.595
109.193
71.9669
38.6319
218.356
71.8697
218.372
36.9581
107.995
71.6059
38.2674
219.096
335.403
330.098
19.0733
18.9398
18.8333
18.7469
19.009
19.1248
18.7933
18.7864
18.9821
18.7663
18.8565
18.5908
18.8489
18.7574
18.9392
18.7813
24.815
24.8174
35.1623
22.3373
29.6273
21.9288
27.8416
22.3514
29.1784
21.8114
23.9533
36.6117
27.5892
55.8744
28.0949
23.9354
37.9257
22.2707
21.8996
29.9707
27.5883
22.3144
21.7439
29.3761
23.6287
35.9887
27.8516
55.6329
23.6843
35.0686
27.3266
23.6739
37.0673
27.6221
58.1339
23.8706
36.484
27.5638
34.4751
21.4455
24.6133
24.4185
24.3983
33.8223
24.4258
22.1323
21.656
28.9789
27.613
22.1566
21.7232
28.8485
23.6881
35.7651
27.4871
56.3897
23.6627
28.0593
36.7215
22.236
21.7771
28.8919
27.8604
22.2312
21.7109
29.7472
23.6227
35.0091
27.7999
55.9319
23.406
36.5485
27.8641
35.2454
21.5282
24.6717
24.6045
35.2184
25.0223
24.8393
18.8902
20.3938
18.8764
20.3881
20.2789
21.7453
21.7422
21.6672
20.393
20.3455
20.3742
20.3648
21.667
21.6526
20.4588
20.3411
20.4533
20.3183
20.386
20.3851
20.422
21.6295
20.3739
20.3872
21.5551
20.4525
20.3578
20.472
21.5766
20.3047
63.4743
212.62
211.557
63.7015
335.383
335.583
68.6853
214.719
212.103
69.0141
18.6938
18.7961
18.683
18.9672
18.7228
18.7763
18.7152
29.6404
60.426
19.582
20.4012
60.7248
19.6877
30.0687
64.0096
211.302
64.1889
210.634
334.951
334.727
68.0111
213.966
68.881
213.508
18.8288
18.8499
18.7873
29.2891
60.4834
19.5021
20.4257
29.3043
60.6104
19.6321
335.899
335.046
29.1381
19.4535
58.326
20.2738
19.6458
57.211
28.8485
115.501
111.303
21.7014
115.5
111.353
334.078
333.061
336.302
334.566
109.88
113.824
21.6707
109.873
113.978
332.323
331.417
334.043
333.55
21.5627
106.984
112.356
108.393
112.366
64.3745
212.499
211.83
64.5774
28.0588
58.9443
19.4965
20.3969
58.695
19.6767
28.3087
28.2866
59.129
19.5155
20.3659
59.8526
19.533
28.4852
61.2014
207.278
208.374
63.3782
62.1311
213.246
208.607
64.5152
27.1074
20.4005
58.1846
19.4938
57.4781
19.5376
28.0273
27.999
20.3536
59.0935
19.4756
56.5596
19.5975
28.465
113.101
111.48
21.6322
112.563
110.872
335.641
335.021
332.887
334.225
21.5478
110.01
110.237
108.668
105.982
335.032
333.124
29.4799
61.2716
19.5111
20.4682
59.1604
19.7351
29.6484
68.1381
211.447
69.1932
210.249
29.3728
19.5292
59.8184
20.3369
19.6944
29.5638
59.6602
67.2497
213.102
211.873
68.4752
28.9929
20.457
60.1904
19.5728
58.4787
19.6071
29.7476
65.4572
212.072
68.0064
208.965
28.4084
20.3198
19.5222
59.4759
19.558
29.3376
55.7415
68.5519
214.102
212.19
69.6789
29.8548
19.4944
61.248
20.399
19.6199
29.9501
61.7671
68.6095
216.634
69.1655
217.17
28.8228
20.3959
58.4983
19.6103
57.808
19.5557
28.9631
65.8638
214.824
209.14
66.402
28.8751
20.4055
19.476
61.8712
19.4881
29.5237
59.3534
65.5581
216.307
67.4343
215.337
327.389
330.942
331.271
334.409
108.996
111.09
21.664
109.968
113.964
64.0807
207.987
63.1751
212.092
28.4258
57.2325
19.5905
20.362
27.4128
57.3071
19.5529
28.5398
56.7719
19.5426
20.3657
28.3022
58.4106
19.5317
105.36
106.721
21.6629
111.384
111.72
329.975
334.506
29.8007
57.7368
19.6678
20.4385
29.3021
59.9436
19.6304
67.5812
206.091
66.0789
212.438
29.3323
19.6212
57.9944
20.354
28.8196
19.5851
60.3243
66.8574
209.177
64.2754
214.827
29.297
19.5862
59.9353
20.48
28.5874
19.5652
62.5207
67.0814
212.966
64.4121
217.203
113.168
110.011
21.5208
112.405
108.923
332.865
332.018
106.003
329.624
29.1011
19.4665
59.902
20.2995
19.554
60.1442
28.8072
66.6272
210.203
209.224
66.4727
66.729
213.657
213.875
66.1549
28.4973
55.1082
28.4792
58.2987
63.8567
204.871
65.054
210.715
338.481
337.468
334.374
334.104
107.342
331.565
253.117
227.983
72.7806
62.6277
226.747
71.8302
250.953
353.327
209.684
116.809
111.186
353.696
348.985
115.844
207.986
115.143
353.581
250.075
60.4429
226.899
73.668
222.39
69.4039
249.323
331.665
332.656
258.605
77.321
236.713
65.9479
76.4329
233.703
252.712
356.078
212.064
120.666
115.44
358.162
358.573
120.704
212.895
119.735
356.046
254.916
66.6774
77.7689
237.124
74.4741
235.039
256.635
252.876
61.4085
228.745
72.2601
224.488
69.3016
250.452
349.755
115.512
208.346
353.592
109.844
248.766
61.7956
229.111
72.5436
250.612
224.957
69.6181
353.025
114.909
206.917
114.149
352.738
333.52
333.622
259.096
68.1738
77.4468
236.725
74.4246
235.895
256.26
355.905
120.576
207.708
357.725
113.805
257.673
67.266
77.2522
236.775
255.334
75.0412
235.461
357.278
119.328
212.759
118.313
356.81
331.847
331.073
165.173
345.724
346.909
346.634
346.637
161.357
75.4692
41.0055
111.258
224.133
39.8129
221.652
74.6391
73.7783
40.4742
106.95
222.402
39.4665
215.314
72.9816
73.39
223.781
114.701
41.2484
39.7638
220.709
74.2811
71.6322
221.452
110.604
40.027
38.837
220.646
72.3233
164.841
348.046
348.073
345.898
343.068
164.573
330.978
329.402
333.4
334.523
164.13
346.107
348.493
342.801
345.772
161.874
71.8421
39.9477
106.683
221.194
215.537
39.1032
73.7213
75.028
40.4597
111.724
225.58
220.856
38.9624
72.6143
73.0915
220.894
105.951
39.384
220.172
71.5774
38.3121
72.9215
225.145
110.596
40.8115
224.638
73.5914
40.4248
163.975
346.575
346.516
344.293
346.977
163.044
331.887
331.545
335.393
333.667
162.649
341.163
344.808
162.548
344.953
343.955
74.2372
39.691
109.494
220.492
219.577
39.6941
71.574
75.9991
40.7454
112.585
224.73
223.925
39.6092
72.8653
73.7588
217.894
39.0748
106.076
71.363
219.015
38.385
73.6395
221.078
39.5125
112.592
73.8768
220.543
39.4678
161.599
342.659
348.076
345.235
347.916
162.283
254.264
229.633
74.1298
63.7089
226.325
71.5176
248.798
355.886
211.034
118.42
116.105
355.373
353.949
117.899
211.776
114.644
351.799
250.571
61.7661
230.703
73.9089
227.738
72.5013
250.761
251.957
222.553
70.5581
60.2091
251.553
227.724
71.4505
355.223
209.422
114.253
352.361
114.245
352.099
109.918
209.11
351.694
114.047
249.978
63.2617
227.945
71.8114
250.571
227.912
71.9388
253.557
227.701
71.4157
63.0926
253.454
228.823
68.8385
356.079
209.944
117.381
116.358
354.143
353.831
115.796
210.044
356.282
116.414
247.037
63.4622
230.142
73.5853
229.601
72.7825
252.049
158.066
346.043
341.301
342.109
344.871
159.749
73.4351
40.1793
108.208
222.823
216.904
38.7352
72.8597
73.8115
40.0749
105.926
222.317
38.023
220.53
72.9911
70.0064
221.907
111.827
40.1102
221.517
38.6958
69.2781
70.8976
221.706
109.882
40.0602
39.6399
218.268
72.2149
161.352
346.228
346.644
342.768
344.196
160.59
331.926
331.436
335.291
334.421
161.648
340.044
344.247
158.211
344.867
342.618
74.3354
39.9771
111.778
222.46
38.5652
221.49
70.5636
74.766
39.6784
108.679
222.137
218.517
39.1469
71.0339
72.101
216.021
39.5233
108.42
38.857
72.7075
220.989
72.6244
217.174
38.4483
104.771
72.6856
221.27
38.9823
156.155
344.767
344.691
344.89
344.685
160.028
332.355
331.308
259.039
236.451
67.9256
77.0075
233.636
76.3193
252.766
357.586
118.324
208.271
114.639
353.958
258.501
67.5884
237.504
78.7092
235.409
74.4751
258.941
354.645
114.842
209.896
115.504
352.203
258.368
74.823
234.874
66.0734
257.608
74.2079
235.682
359.878
213.278
120.13
356.398
119.735
359.601
117.925
212.586
356.353
119.021
254.378
65.9396
76.7131
236.798
254.564
73.7739
235.951
258.012
231.196
65.2828
73.636
257.445
234.936
71.8831
357.802
116.801
210.784
115.348
354.425
251.986
66.8858
236.248
76.3241
233.205
75.446
256.789
353.694
110.266
206.61
354.013
114.685
255.551
76.0491
235.015
66.2685
73.0627
234.54
251.975
357.863
211.478
120.317
117.364
357.34
354.302
119.343
212.892
115.612
353.372
257.401
67.9325
76.9942
237.788
74.8694
232.435
256.605
259.112
235.99
67.9214
75.4488
233.046
76.6549
254.912
356.183
119.989
214.641
113.847
357.685
258.41
66.4747
237.14
77.7297
234.018
75.7626
258.723
357.697
120.004
213.907
118.617
357.243
257.146
74.2634
230.064
66.0241
257.006
73.0127
231.263
358.911
211.59
118.642
118.479
355.411
357.575
117.399
213.848
355.066
117.301
253.736
65.5402
72.5258
231.052
71.9922
227.472
255.021
258.142
233.547
63.6827
76.2608
254.25
231.521
76.2106
359.414
120.135
217.421
120.584
355.967
256.309
66.858
232.794
76.3222
235.602
76.6046
253.335
358.196
116.646
214.143
358.148
116.65
331.298
332.042
335.561
335.692
164.291
344.507
348.652
346.252
348.477
160.476
73.7884
38.9155
217.449
107.201
70.9607
215.662
39.2853
75.5717
38.7787
222.376
109.235
75.2009
222.644
40.1961
162.476
345.06
343.96
161.682
342.366
348.027
72.7566
220.602
106.737
39.7933
216.682
73.0187
38.836
73.2423
224.893
113.176
40.8872
224.288
74.1699
39.5411
254.641
63.5833
229.764
73.6634
226.106
70.9028
251.346
355.432
112.256
212.064
354.517
116.042
251.913
63.7894
227.429
71.1977
226.555
251.589
71.0735
351.102
116.718
210.935
113.183
355.283
162.771
346.192
346.22
342.656
346.012
159.397
73.9535
38.1837
219.619
109.893
217.841
73.2469
39.6025
74.0444
38.309
220.375
106.767
38.8621
73.5324
220.977
161.527
343.719
342.414
344.294
161.001
344.899
70.3027
221.992
108.295
40.1458
222.128
38.769
73.2508
71.2962
221.829
111.548
39.6398
39.0287
220.772
72.2164
334.536
334.939
257.92
64.6926
235.704
76.2739
232.229
75.1575
254.205
357.457
114.251
211.459
353.631
115.86
256.889
65.2757
234.425
74.0653
232.868
256.769
73.5368
355.695
117.577
210.794
116.72
355.48
257.26
64.2016
76.7169
232.697
75.7599
228.27
253.923
358.604
114.533
213.531
119.208
354.866
256.423
64.213
75.8434
228.623
73.7417
255.917
227.554
353.509
119.982
211.654
118.731
357.48
258.322
65.964
234.927
76.7743
231.448
75.4241
254.993
358.393
119.25
216.467
357.688
119.414
257.582
65.638
232.737
73.6042
258.046
233.941
74.1809
356.959
120.535
214.5
119.308
356.529
159.302
345.23
342.974
344.176
338.699
156.155
72.9484
40.5298
107.984
224.228
222.632
38.506
71.8302
70.784
38.6769
105.905
219.195
36.5922
214.827
67.8161
71.1582
223.859
111.801
40.2439
223.251
39.981
72.0633
69.6692
219.046
104.834
38.7764
38.28
214.597
70.1226
155.886
345.549
343.452
341.719
340.395
157.917
330.085
330.697
338.917
216.066
254.68
74.4908
232.29
66.0078
73.7733
231.658
251.711
355.155
203.48
112.856
114.821
356.03
351.613
116.516
208.612
113.293
354.885
253.674
64.49
75.0213
232.549
71.9436
228.949
253.861
255.222
74.8129
233.5
64.3832
74.2882
230.921
252.675
355.802
211.215
117.096
115.139
352.77
351.49
112.92
210.634
116.094
355.043
251.594
64.8664
75.0061
232.937
72.3828
232.16
252.366
71.7743
230.038
253.037
113.126
354.734
71.9284
232.389
253.836
115.264
355.138
336.284
337.026
332.432
330.969
343.433
216.871
18.5812
18.621
19.2175
18.765
18.6865
18.407
18.649
18.6574
18.6255
19.0864
18.8301
18.8662
18.4972
18.7327
36.4723
25.9059
25.6927
21.6123
25.502
25.0165
36.3095
35.852
25.6326
25.8733
21.6525
25.2256
25.4676
35.7231
36.6161
21.6268
25.439
25.3289
25.3968
25.6969
36.2773
35.8749
25.6235
25.6223
21.5371
24.9607
25.0911
36.0856
36.5893
21.5867
25.5573
25.4514
25.1125
25.3239
34.8951
36.1862
25.3121
25.5521
21.6303
36.3872
25.1661
25.5883
36.2772
25.3419
24.8408
21.6356
25.3974
36.1346
25.378
34.9098
25.4597
25.1043
21.4689
24.4843
24.8618
34.4989
18.5265
18.5647
18.8857
18.9279
18.7736
18.5347
18.653
18.5758
18.5461
18.9885
18.6739
18.87
18.4151
18.6535
18.5307
18.5501
18.8879
18.7851
18.9012
18.4978
18.6032
18.9683
18.8323
18.7257
18.8477
18.8071
18.5387
18.6754
18.9187
18.5954
18.5261
18.6631
18.7755
18.792
18.493
18.9988
18.575
18.5384
18.6257
18.6072
18.6062
18.5699
18.9274
18.4716
18.5543
18.5084
18.6286
18.6897
18.5709
22.5626
31.1872
21.9459
29.3497
31.3116
22.0062
22.3517
24.0964
29.0279
57.3058
39.5514
28.0608
38.2966
24.0316
23.7823
39.3496
59.9609
29.0518
28.9036
37.9082
23.8777
22.5338
29.0008
31.9563
22.1327
31.4367
22.0766
22.5207
18.769
18.6037
18.8386
18.689
18.5979
18.4868
18.412
18.7384
18.7278
18.8463
18.6976
18.6579
18.5348
18.583
18.6495
18.7227
18.7762
18.6018
18.6441
18.4646
18.5467
22.5535
28.9266
31.4208
22.028
31.1098
22.001
22.35
24.0893
28.9869
39.5147
57.6984
23.9416
28.4628
38.3523
22.4173
28.4122
31.5433
22.0452
22.4527
30.4146
21.9449
23.6467
39.5319
60.0206
28.9332
28.3177
38.2234
24.0316
22.4094
21.9363
29.9405
28.3873
21.9125
30.7545
22.2396
23.7302
28.2367
53.6388
38.3144
27.8056
37.0927
23.4349
23.5065
37.3311
56.4083
28.0621
27.5453
37.6146
23.5563
22.2641
28.5229
21.8577
31.0012
21.8433
30.6777
22.2698
35.4521
21.6875
25.643
25.5723
25.6121
25.4949
35.8597
34.2216
21.6131
25.3276
25.6828
35.6529
25.2959
25.2133
35.3684
21.6479
25.1103
25.0246
35.429
25.183
25.572
22.3284
30.3392
21.7395
27.8971
30.1868
21.7386
22.0737
23.734
28.8164
56.5215
38.4252
36.668
28.2941
23.8016
23.6435
38.2518
56.2992
28.1924
38.0769
28.423
23.6527
22.2197
27.4473
30.6086
21.79
29.683
21.7444
22.2877
22.2439
30.586
21.7302
27.6517
30.3487
21.7715
22.2092
23.9056
28.822
56.653
38.9986
36.9653
28.26
23.9324
23.7525
38.8226
59.2814
28.9301
38.503
23.625
28.2234
22.237
27.8734
30.7525
21.8325
29.87
21.7726
22.3022
22.249
29.6342
21.6875
27.8997
22.2212
29.9719
21.6932
23.9184
27.9515
58.532
37.8441
28.4563
38.0344
23.6309
23.5884
36.2302
28.3179
56.4857
28.1365
23.6986
37.8107
22.1392
28.1082
30.064
21.7183
29.9494
21.7103
22.0964
22.3415
29.3738
21.7747
27.7872
22.1921
30.3661
21.7578
24.0781
28.4123
57.8963
38.3168
37.9464
28.8145
23.5451
23.8041
37.3556
28.5803
58.8655
23.9147
36.9794
28.3075
22.2405
27.8024
30.3369
21.8369
30.4511
21.7476
22.167
35.1907
21.6068
25.5084
25.5841
25.4843
25.0294
34.9227
35.4998
21.576
24.9157
25.0408
25.3539
35.9007
24.9381
22.5962
31.7272
22.0606
29.1385
30.8466
22.0411
22.4422
24.0103
29.3783
59.6926
40.0245
39.2423
28.8553
23.9596
23.8656
40.0032
60.2207
28.9871
38.6981
29.0529
23.7458
22.5827
28.6693
31.8904
22.0054
31.3895
22.0302
22.3982
22.6173
22.033
29.1644
31.5522
22.0527
31.7219
22.3326
24.0645
28.9881
39.4589
58.3749
38.8647
23.9665
28.4934
22.5931
29.2058
22.1159
31.9652
22.0737
30.9456
22.4374
23.6451
37.8607
57.3483
28.9067
38.8436
23.7181
28.0922
22.5772
30.3556
21.9988
29.2758
22.4235
31.3652
22.0342
24.4072
29.3254
59.5498
38.8172
29.1681
39.8985
23.8264
24.0576
39.1633
28.2616
57.836
29.1885
24.1734
38.7228
22.4989
28.985
31.8561
22.1745
30.9121
22.1441
22.5534
22.54
21.8997
28.1821
30.9901
22.4861
21.9727
31.2296
23.9409
28.8217
38.2443
57.0433
37.6588
23.5042
28.0511
22.3592
29.0118
22.0543
31.4199
22.0287
31.1856
22.4026
23.6411
36.7921
27.6583
58.2919
23.7273
36.5711
28.5151
22.6447
22.1135
29.6073
31.5986
22.0608
31.6635
22.5003
24.1184
29.3399
39.7473
58.3866
38.3061
28.6639
23.9983
22.496
29.1894
21.9917
32.0865
22.1209
31.5365
22.5409
23.6663
39.7181
60.8888
29.3542
38.246
24.1543
28.544
22.5009
30.0575
22.0154
28.5438
22.2962
30.4724
22.0153
24.2313
28.8355
58.8129
39.1172
23.7131
28.2312
39.0886
24.1728
37.396
28.1155
57.1534
23.8066
28.3889
38.9767
22.4131
28.547
31.3391
21.9943
22.4571
30.4402
21.9867
22.6371
22.0655
28.3886
30.4294
22.4269
21.9937
31.6823
24.3659
29.5176
39.9668
60.7946
40.0093
24.0128
28.7484
22.3679
29.2825
22.0994
31.7524
22.0898
31.6098
22.5233
24.2527
39.1048
28.2768
60.3023
23.9491
38.6599
29.1615
34.7296
21.6222
25.5544
25.6997
36.2355
25.1602
25.5573
22.2541
27.8482
30.0636
21.7693
29.8043
21.7873
22.0893
23.889
28.3399
36.4883
57.8733
37.7086
23.5917
28.4118
22.2198
28.1791
29.521
21.8047
29.7556
22.1969
21.7627
23.5881
37.9841
58.2316
28.539
37.0693
28.4154
23.6016
22.3615
28.4266
30.7036
21.8627
29.8978
21.8658
22.2298
23.8912
27.9698
36.9856
57.4466
23.8586
36.3375
27.6203
22.2337
28.4654
29.5706
21.8402
22.2234
30.0161
21.869
23.6337
38.3113
57.6146
28.7482
38.0686
23.6749
28.6102
35.2534
21.5761
25.5217
25.5611
25.157
25.3822
35.7716
22.6293
29.53
31.8405
22.1419
30.8611
22.0473
22.4361
24.3186
28.5649
39.1851
58.8045
39.4395
24.2048
28.8249
22.6024
29.5209
31.4652
22.0805
31.1672
22.5769
22.0725
23.7965
39.6824
59.1142
29.0646
39.38
28.8548
23.8705
22.4103
29.0383
22.0315
31.4727
21.9849
31.3231
22.3605
23.9764
27.7998
36.5539
57.2072
23.7672
38.469
28.7124
22.5135
28.893
21.9815
30.8348
22.4314
22.0336
31.1953
23.7583
38.7624
60.0926
28.741
37.9789
23.8227
28.9545
22.5763
28.9317
22.0202
31.6146
22.0496
30.6632
22.373
24.4074
28.9727
38.4569
59.797
28.7668
23.9947
40.2912
22.5485
28.8787
21.99
30.9649
21.9963
22.3868
30.8701
24.1973
40.1667
62.5493
29.8146
29.7497
40.3747
24.1459
34.2559
21.5127
25.3831
25.1433
25.0266
25.3068
34.7293
22.3924
21.9066
30.6224
28.3248
21.8959
30.7211
22.2229
23.9388
29.0929
58.0471
38.8041
28.7006
38.3165
23.8402
23.6087
37.6308
57.9456
29.079
28.3675
38.526
23.6637
22.2926
28.4192
21.881
30.9418
21.8875
30.53
22.2611
30.3263
37.0215
30.2394
37.956
18.981
20.4861
20.3809
21.6308
18.8787
20.466
20.3797
21.6852
18.8374
20.4451
20.3638
21.6862
18.8649
20.4085
20.3305
21.67
18.9267
20.4239
20.3029
21.7194
18.9975
20.4247
20.2948
21.6612
18.9378
20.4206
20.3076
21.6988
18.942
20.4038
20.2995
21.6918
18.9921
20.4419
20.3033
21.6464
18.8961
20.4202
20.2952
21.6685
18.8864
20.4255
20.2663
21.6578
18.8947
20.4044
20.2769
21.6672
18.9641
20.3984
20.2769
21.7105
18.9586
20.3911
20.2844
21.6509
18.9178
20.438
20.2924
21.6356
20.2868
21.6577
21.626
20.4743
20.4664
21.5794
20.5303
20.4897
20.4952
20.4651
21.6091
20.4125
20.3521
21.5405
21.5719
21.6953
20.4037
20.4532
20.3932
20.3936
21.5171
21.6036
20.498
20.4764
20.463
20.4351
20.5139
20.4676
20.4837
21.5429
21.6039
20.3628
20.3812
20.264
21.6049
21.6555
21.7393
20.4384
20.357
20.4612
20.335
21.5078
21.6264
20.4824
20.3872
20.4673
20.3683
20.4825
20.4652
20.4515
21.5654
21.5618
20.2749
20.383
20.3016
21.6035
21.6025
21.7011
20.485
20.3371
20.4048
20.3344
21.5343
21.6263
20.4619
20.3916
20.4359
20.3655
20.4427
20.4127
20.4039
21.463
21.5533
20.3561
20.3439
20.3073
21.5717
21.5903
21.6819
20.416
20.3834
20.4116
20.3387
21.5227
21.62
20.4446
20.3755
20.4622
20.366
20.4143
20.4351
20.4571
21.4564
21.5131
20.3611
20.3308
20.3254
21.6563
21.5745
21.713
20.4234
20.3623
20.4165
20.369
21.55
21.6494
20.458
20.3854
20.4809
20.3609
20.4593
20.4039
20.4066
21.5219
21.5623
20.3335
20.3175
20.3334
21.646
21.6558
21.7187
20.4121
20.3917
20.3941
20.3824
21.5676
21.6416
20.4889
20.3569
20.4951
20.3699
20.3899
20.4347
20.385
21.4699
21.5614
20.3462
20.3156
20.3545
21.6088
21.6768
21.7034
20.426
20.4122
20.3911
20.385
21.631
21.6725
20.493
20.3565
20.4823
20.37
20.3771
20.4034
20.3962
21.4625
21.576
20.3806
20.3067
20.3619
21.6075
21.6006
21.6772
20.4081
20.4211
20.3902
20.3876
21.5424
21.7045
20.4839
20.4134
20.4818
20.4076
20.4064
20.4505
20.4057
21.5185
21.5637
20.4108
20.3072
20.3654
21.5693
21.602
21.7076
20.3948
20.39
20.3679
20.3616
21.6294
21.6206
20.481
20.4148
20.4683
20.362
20.4068
20.4302
20.3798
21.4711
21.5078
20.3453
20.3175
20.2976
21.5797
21.6486
21.7185
20.4049
20.3872
20.3798
20.3703
21.5146
21.6543
20.4603
20.3621
20.4567
20.3636
20.3819
20.4383
20.377
21.4502
21.4552
20.3516
20.2902
20.3327
21.5724
21.6222
21.6955
20.3933
20.407
20.3871
20.3855
21.5824
21.6444
20.4492
20.3817
20.4457
20.3621
20.3986
20.4161
20.3773
21.4993
21.5586
20.356
20.2981
20.3624
21.6435
21.6342
21.7296
20.4188
20.4021
20.3926
20.3629
21.5076
21.6159
20.4485
20.3771
20.4568
20.376
20.3844
20.4054
20.3908
21.5111
21.5556
20.3821
20.2837
20.3568
21.6201
21.6972
21.7204
20.407
20.4005
20.3906
20.3573
21.5117
21.6059
20.4729
20.429
20.4733
20.3978
20.4001
20.4009
20.3963
21.4928
21.483
20.3757
20.3072
20.3277
21.6159
21.6193
21.6927
20.3928
20.3893
20.3663
20.3662
21.5244
21.6337
20.468
20.3906
20.4612
20.3942
20.4177
20.4478
20.396
21.5084
21.5351
20.3736
20.297
20.3205
21.5483
21.6268
21.7067
20.3999
20.3441
20.3889
20.3536
21.572
21.6257
20.4662
20.4075
20.4641
20.3538
20.4004
20.4025
20.3932
21.4639
21.5317
20.325
20.2941
20.3127
21.6063
21.4393
21.532
20.3736
20.3068
20.3136
21.6437
19.0617
19.0759
19.1817
18.8765
62.9624
207.792
63.5198
210.395
334.585
334.389
68.0166
213.483
69.1174
214.065
19.0906
18.9388
19.0096
19.032
18.771
18.7437
18.7199
29.4373
59.9404
19.7614
20.5214
29.0829
59.7675
19.9429
332.18
328.361
27.5749
19.5324
58.0518
20.38
28.0889
19.6862
58.058
112.175
109.838
21.6214
112.105
111.428
63.3177
210.898
63.946
209.66
334.21
333.345
66.8588
214.95
67.8608
214.035
18.9684
18.8575
19.0029
18.9132
18.799
18.6987
18.8044
29.9031
59.4129
19.6958
20.4516
29.9926
59.5405
19.8055
335.352
332.426
28.74
19.5122
60.6365
20.4193
28.1318
19.6899
60.6241
113.803
111.818
21.6389
113.499
111.708
62.3029
212.657
63.4876
211.742
334.03
334.179
66.2584
214.739
67.1788
214.147
18.9753
18.8235
18.9901
18.9043
18.7173
18.7316
18.7596
29.608
58.8844
19.6107
20.4359
29.8325
59.3887
19.7979
335.509
330.974
28.7511
19.6022
61.0396
20.3738
29.1267
19.5404
60.6299
113.3
112.582
21.5699
112.89
111.326
64.2422
212.734
63.6259
211.314
334.534
330.57
66.0125
214.655
67.0485
214.534
18.9719
18.957
19.0079
19.1403
18.6994
18.8068
18.724
29.5879
59.9175
19.6034
20.4368
29.625
59.6343
19.6946
334.883
333.438
28.0588
19.4839
60.7783
20.3507
28.54
19.617
59.7677
113.28
113.119
21.6833
114.541
112.54
64.0493
212.024
64.6134
212.087
335.35
334.647
67.8695
215.069
67.1336
214.927
18.8487
19.0166
19.023
19.0675
18.7256
18.8397
18.7127
29.5592
59.5955
19.6135
20.4224
29.9547
59.6882
19.7054
335.277
335.381
27.8614
19.4678
58.7339
20.3235
27.9278
19.6633
58.6953
114.807
112.12
21.6825
113.817
111.75
63.0246
211.977
63.4881
206.64
334.953
333.795
68.7946
215.657
69.3146
214.896
18.8674
19.0351
19.0115
19.1614
18.7486
18.8447
18.721
29.223
60.5985
19.6052
20.446
29.1633
57.9758
19.7974
335.454
333.636
28.5419
19.4668
59.0609
20.3145
28.4579
19.5451
59.0031
113.208
112.669
21.6387
113.575
112.43
64.0996
213.16
64.4105
211.477
334.654
334.225
69.2348
215.326
69.3461
215.054
18.8824
19.0427
18.844
18.9775
18.8204
18.8629
18.7878
29.5036
59.9327
19.6167
20.4093
29.4789
60.3248
19.6958
334.437
334.364
28.202
19.5169
59.1456
20.3275
28.3502
19.6921
58.2711
114.311
112.821
21.6559
113.642
112.392
63.3723
209.268
63.8099
211.058
334.266
332.675
68.8345
216.395
68.8223
214.524
18.986
19.0575
18.9268
19.0883
18.8209
18.8653
18.8083
29.295
60.9898
19.5929
20.4316
29.4906
60.6536
19.6536
335.259
333.21
28.2406
19.53
58.0791
20.318
28.2007
19.7325
57.5895
113.407
112.428
21.6696
113.378
112.608
63.7195
210.388
63.5876
210.854
334.835
334.093
68.4988
214.994
68.9126
214.844
18.9975
19.0582
18.9932
19.0244
18.8446
18.8601
18.7553
29.3611
60.3747
19.6075
20.4332
29.3531
59.8044
19.7605
335.014
334.756
28.3383
19.5203
58.4805
20.324
28.5276
19.5811
57.8238
112.893
111.515
21.61
112.957
110.479
62.9614
211.72
63.3705
210.835
334.89
334.581
68.7321
214.743
68.875
210.041
18.9156
19.0434
19.0193
18.9687
18.8151
18.8406
18.752
29.4156
60.2823
19.6252
20.4421
29.507
58.779
19.6662
334.809
334.277
28.3905
19.5263
57.5562
20.298
28.3679
19.5742
57.9169
114.472
112.305
21.6066
114.087
112.347
63.3716
211.62
63.9909
211.033
334.806
334.071
68.6744
214.648
68.8526
213.758
18.9108
19.0285
19.0101
18.9662
18.8572
18.8405
18.7757
29.2333
60.245
19.5803
20.45
29.3381
59.8399
19.7996
334.756
334.005
28.5787
19.4974
58.3682
20.2704