/*--------------------------------*- C++ -*----------------------------------*\
| =========                 |                                                 |
| \\      /  F ield         | OpenFOAM: The Open Source CFD Toolbox           |
|  \\    /   O peration     | Version:  2206                                  |
|   \\  /    A nd           | Website:  www.openfoam.com                      |
|    \\/     M anipulation  |                                                 |
\*---------------------------------------------------------------------------*/
FoamFile
{
    version     2.0;
    format      ascii;
    arch        "LSB;label=32;scalar=64";
    class       surfaceScalarField;
    location    "10";
    object      phi;
}
// * * * * * * * * * * * * * * * * * * * * * * * * * * * * * * * * * * * * * //

dimensions      [0 3 -1 0 0 0 0];

oriented        oriented;

internalField   nonuniform List<scalar> 
196294
(
-1.57766e-11
9.20434e-11
1.48308e-11
5.83574e-12
1.95413e-08
3.8755e-11
-2.26957e-13
-3.59512e-12
-1.1103e-11
-2.19941e-08
2.19702e-08
2.67872e-13
8.70718e-12
2.41875e-12
-1.94626e-08
5.49855e-12
1.94458e-08
-3.89314e-11
-4.48583e-13
-8.28527e-12
6.6036e-11
-2.25538e-08
2.25354e-08
-9.21057e-12
-8.68807e-12
1.12361e-11
1.40237e-11
2.26923e-08
6.25712e-12
-5.61423e-12
7.11028e-11
-9.88573e-11
9.77742e-11
-7.28573e-11
9.84662e-08
1.3878e-13
2.23231e-12
-1.08717e-08
8.73534e-12
1.08606e-08
-2.02586e-13
-6.2969e-12
2.86784e-12
-3.69323e-12
-2.29879e-08
2.29952e-08
-8.6103e-13
5.09738e-11
-1.8354e-13
-1.04065e-11
-1.75568e-11
1.40733e-11
1.0446e-11
-5.09014e-11
-9.13888e-12
1.17948e-11
9.78982e-08
-3.15124e-11
2.16275e-12
-1.13809e-11
1.46213e-11
-1.50408e-11
9.74225e-12
9.79007e-08
-9.65117e-13
4.05533e-13
4.90558e-12
-2.29883e-08
-2.29737e-12
2.29863e-08
-3.89876e-11
-5.10817e-11
-2.34728e-08
-2.47589e-11
-1.11089e-11
2.35987e-08
5.65591e-12
-2.54465e-12
-1.33839e-12
-2.71263e-08
1.81255e-11
2.71064e-08
1.10435e-12
3.95731e-13
-1.07609e-13
-2.7202e-08
9.5749e-12
2.71911e-08
3.70532e-11
8.99669e-12
1.09232e-08
2.98435e-12
-1.0873e-08
8.19168e-12
1.08621e-08
-4.92368e-11
-4.35046e-11
-2.34624e-08
-1.61014e-11
-1.93715e-11
2.35906e-08
5.91516e-11
-2.56287e-11
1.23163e-10
2.72283e-08
4.68032e-12
-8.81275e-13
-2.69312e-08
1.87086e-11
2.69115e-08
8.62377e-10
-4.54179e-11
-8.22601e-11
6.84205e-12
-2.97818e-10
-3.73897e-10
9.87455e-08
6.934e-11
1.83525e-10
2.27874e-08
-3.1753e-12
-5.58193e-11
-1.12853e-11
2.70335e-08
1.08875e-13
8.1289e-12
1.08622e-08
-3.43906e-13
-8.27668e-12
6.60321e-11
-2.2554e-08
2.25353e-08
1.37757e-10
-8.00776e-11
-4.55378e-11
-2.28652e-11
2.35407e-11
3.95492e-11
-4.34441e-11
4.16755e-11
-3.88251e-11
9.70571e-08
1.08636e-11
-2.26953e-08
1.60669e-11
2.26818e-08
2.91129e-11
-7.60168e-11
7.10707e-11
-9.89556e-11
9.79725e-11
-7.14479e-11
9.86659e-08
3.89899e-11
-1.14109e-11
-3.92079e-12
-2.19902e-08
2.19663e-08
8.66716e-12
2.9602e-12
-1.94574e-08
5.61579e-12
1.94402e-08
6.61498e-11
-8.64322e-12
-2.25514e-08
2.25324e-08
-3.30618e-15
3.88176e-11
-2.56208e-12
2.22635e-11
-4.05951e-11
-2.32518e-11
4.10124e-11
-3.83548e-11
-2.38873e-11
1.94599e-11
9.80298e-08
-6.88794e-12
5.64092e-11
-9.84565e-11
9.76343e-11
-5.69494e-11
9.95586e-08
-5.58416e-12
1.16456e-11
-2.26809e-08
1.6191e-11
2.26673e-08
-2.67541e-13
-3.6402e-12
-1.14456e-11
2.19711e-08
2.67476e-12
5.54356e-12
1.94467e-08
-3.8775e-11
6.60126e-11
-8.92164e-12
-2.25516e-08
2.25328e-08
8.22861e-13
-2.18026e-12
-3.88074e-11
-2.00816e-11
1.91765e-11
2.18217e-11
-4.25453e-11
4.06411e-11
-2.29489e-11
9.80263e-08
-4.61244e-12
5.6148e-11
-9.85278e-11
9.73838e-11
-5.69119e-11
9.95344e-08
-8.68356e-12
1.15251e-11
-2.26903e-08
1.58953e-11
2.26772e-08
-1.11307e-11
-4.30843e-12
2.19671e-08
-3.3755e-13
3.372e-12
5.26439e-12
1.94409e-08
-2.34679e-08
-1.90218e-11
-1.66839e-11
2.35933e-08
-1.21574e-11
-2.6988e-08
1.27273e-11
2.69839e-08
6.89345e-13
1.04105e-11
-2.73398e-08
1.56332e-11
2.73121e-08
-8.98649e-13
-1.10672e-08
8.16133e-12
1.10607e-08
-6.4667e-12
2.70168e-12
-3.76336e-12
-2.29903e-08
2.29976e-08
-1.29966e-12
-1.97047e-13
-5.12672e-11
-1.30613e-11
1.18736e-11
-1.06128e-11
-1.55335e-11
1.38803e-11
1.04212e-11
9.79297e-08
1.5941e-12
-1.15776e-11
1.46411e-11
-1.50223e-11
1.00317e-11
9.78483e-08
-2.57844e-15
4.97983e-12
-2.29834e-08
-2.29049e-12
2.29818e-08
-9.91306e-14
-1.59382e-12
9.50263e-13
-2.25071e-08
2.25014e-08
2.12227e-12
-1.98144e-08
5.34978e-12
1.98063e-08
-1.74418e-12
1.13791e-12
-2.25107e-08
2.25047e-08
8.99206e-13
2.09492e-12
-1.98189e-08
5.18834e-12
1.98107e-08
8.53504e-12
1.08606e-08
-1.10686e-08
8.1121e-12
1.10617e-08
-3.27949e-11
1.51305e-10
2.6402e-08
1.06327e-11
9.18358e-09
-7.41419e-12
-1.24698e-12
1.53283e-08
1.35119e-12
-5.78182e-12
-2.16054e-08
-9.01825e-12
-5.4847e-12
3.2111e-11
2.15842e-08
-1.81219e-08
-8.83303e-13
-6.59965e-14
5.55906e-12
1.81061e-08
4.14812e-12
1.03677e-11
-1.39066e-13
-3.7818e-11
6.19469e-12
-3.03636e-11
5.5193e-14
-6.31577e-12
-9.72897e-13
5.00304e-12
1.53143e-08
2.90476e-12
9.1442e-09
-1.05264e-11
-2.63004e-08
1.15392e-12
2.01194e-11
2.62761e-08
-4.46622e-12
9.40267e-13
-7.111e-12
-6.09156e-12
-1.85808e-11
9.84707e-12
9.13445e-09
-6.1927e-13
-2.18665e-12
-8.69788e-12
1.3858e-12
5.34886e-13
2.08816e-08
-1.03095e-11
-1.14977e-11
-9.15147e-09
1.50468e-12
-7.53539e-13
8.72334e-12
9.142e-09
-9.20448e-09
7.16616e-13
-5.52088e-13
8.34041e-12
9.19598e-09
5.79505e-13
-8.65785e-12
5.62806e-13
-8.51067e-12
1.01799e-11
1.16733e-11
2.08618e-08
-1.85188e-11
5.13473e-12
2.2008e-08
-1.11648e-11
-1.88994e-08
5.37193e-12
5.17373e-12
1.88866e-08
-1.77473e-11
1.84432e-12
-5.87532e-12
-2.338e-08
-1.83e-11
3.11263e-11
2.95501e-11
2.33557e-08
-3.09912e-11
-2.94596e-11
-5.49492e-12
1.11151e-11
2.19941e-08
-1.66122e-11
1.81935e-12
2.10768e-08
-5.00473e-12
-1.87572e-08
1.98492e-12
5.31649e-12
1.87491e-08
-9.11578e-12
7.53458e-13
-1.27684e-12
-1.32675e-12
-2.27752e-08
-1.68891e-11
1.79425e-11
2.28219e-11
2.27609e-08
-1.81098e-11
-2.21e-11
-5.44678e-12
4.6129e-12
2.10689e-08
-1.44751e-12
-8.72254e-12
7.22507e-13
1.23586e-12
2.08834e-08
-9.00507e-12
-1.19695e-11
-9.19862e-09
2.90041e-13
-7.83326e-13
8.565e-12
9.19055e-09
-9.15651e-09
2.08124e-12
-6.51403e-13
8.18086e-12
9.1469e-09
1.4703e-12
-8.9009e-12
-1.08964e-13
-8.28543e-12
1.04725e-11
1.13309e-11
2.08638e-08
2.11968e-12
2.20805e-08
-8.39959e-12
-1.90485e-08
4.26157e-11
5.29282e-12
1.89741e-08
-4.70876e-11
1.28314e-10
1.36977e-10
2.34763e-08
-5.34042e-12
7.66449e-12
2.20788e-08
4.94653e-12
2.10094e-08
-2.04607e-11
-6.87364e-12
-1.86128e-08
5.736e-12
5.41846e-12
1.86e-08
2.62539e-12
-1.75518e-11
-6.20164e-12
-1.92393e-11
-2.26227e-08
2.94066e-11
2.93052e-11
2.26019e-08
-5.79504e-12
8.3107e-12
2.09989e-08
-2.82191e-11
-3.04229e-11
-7.81785e-11
8.24626e-11
8.57212e-12
9.14482e-09
2.87613e-10
2.08763e-08
-8.55274e-11
5.3503e-12
1.88492e-08
-1.5857e-10
5.04551e-11
2.29406e-08
2.18011e-08
-1.08253e-12
-7.64122e-12
1.53202e-08
1.29747e-12
-5.87165e-12
-1.81174e-08
-9.45424e-13
5.40529e-12
1.81014e-08
-2.1596e-08
-8.76877e-12
-5.72512e-12
3.19861e-11
2.15745e-08
1.03834e-11
3.82918e-12
-3.78297e-11
-6.05323e-12
6.11985e-12
-3.07515e-11
-1.04336e-12
5.20298e-12
1.53062e-08
2.3924e-12
9.13992e-09
-1.05622e-11
-2.62874e-08
1.35082e-12
2.02126e-11
2.6263e-08
-3.80565e-12
-7.88005e-12
-5.87047e-12
-1.89433e-11
9.77619e-12
9.13036e-09
-8.3873e-12
-5.6246e-12
3.17703e-11
2.15845e-08
-8.28643e-13
-2.78949e-13
5.00252e-12
1.81057e-08
-1.18827e-12
5.47036e-12
1.53158e-08
1.31804e-12
1.96944e-11
2.62766e-08
9.37973e-12
9.13638e-09
-1.51436e-12
5.70261e-12
1.81016e-08
-8.89377e-12
-6.04268e-12
3.18609e-11
2.15753e-08
-1.35817e-12
4.94425e-12
1.53064e-08
1.46624e-12
1.99426e-11
2.62641e-08
9.86072e-12
9.12968e-09
3.91467e-12
-1.99074e-12
2.08861e-08
5.05499e-12
-2.79843e-11
-9.15645e-09
-2.86763e-11
2.97207e-11
8.47845e-12
9.14693e-09
-9.19992e-09
3.05381e-11
-3.2024e-11
8.23155e-12
9.19317e-09
3.3042e-12
-8.7264e-12
-1.99994e-12
-8.49066e-12
1.31776e-10
-1.17338e-10
2.08734e-08
7.35267e-12
-1.60088e-11
2.10385e-08
-2.65272e-11
-1.85995e-08
-2.50218e-11
5.29721e-12
1.86367e-08
1.98374e-12
-1.77702e-11
-5.99721e-12
-2.29771e-08
-6.30573e-11
3.27186e-11
9.04579e-13
2.30192e-08
-5.44569e-12
-2.94968e-11
-3.23419e-11
-1.19037e-10
2.12013e-08
-1.93603e-11
-5.0845e-14
2.20575e-08
9.55834e-12
-1.90596e-08
3.21142e-11
5.37033e-12
1.90004e-08
-9.77228e-12
7.57025e-13
-1.42541e-12
-1.13039e-12
-2.31834e-08
2.83989e-11
1.9071e-11
4.91069e-11
2.31025e-08
-2.20558e-11
-1.69028e-11
-5.61143e-12
1.30501e-10
2.18702e-08
8.70224e-13
-8.74573e-12
2.28707e-12
-5.35273e-13
1.57363e-08
-4.97554e-14
-5.44069e-12
-2.20784e-08
1.31233e-12
-2.66238e-12
4.87615e-12
2.20733e-08
-1.86146e-08
-4.26394e-13
-1.32402e-13
5.32736e-12
1.86108e-08
1.5957e-12
-1.39296e-12
-4.28155e-14
-5.40889e-12
2.57684e-12
-3.35975e-12
-1.17783e-13
-5.73038e-12
-2.45825e-13
4.91748e-12
1.57325e-08
7.19257e-12
9.39384e-09
-1.02565e-11
-2.68209e-08
6.60037e-12
2.06044e-12
2.68117e-08
-2.66377e-12
1.44366e-12
-5.76036e-12
-1.17864e-12
9.67553e-12
9.39044e-09
2.36594e-12
-5.04419e-13
1.57435e-08
-9.67975e-14
-5.44172e-12
-2.20866e-08
1.34476e-12
-2.7499e-12
5.03196e-12
2.20812e-08
-1.86177e-08
-6.29789e-13
5.3549e-12
1.8614e-08
1.59844e-12
-1.70947e-12
-5.64027e-12
2.62081e-12
-3.59932e-12
-5.78202e-12
-3.2356e-13
4.84166e-12
1.57396e-08
7.06684e-12
9.39947e-09
-1.02963e-11
-2.68317e-08
6.17567e-12
2.18036e-12
2.68226e-08
-2.62511e-12
-7.78496e-13
1.21565e-12
-5.70789e-12
-1.35178e-12
9.41724e-12
9.39586e-09
-8.71207e-12
-1.51591e-10
3.56245e-10
1.00392e-07
2.44968e-10
-3.48178e-10
1.06322e-07
-2.89193e-10
3.29676e-11
1.02065e-07
-2.92915e-10
4.79041e-12
1.09617e-07
3.20578e-10
-6.86488e-12
1.00265e-07
-3.14558e-14
1.06331e-07
8.39507e-12
7.73072e-12
1.0142e-07
3.37371e-12
1.09051e-07
-4.8417e-12
-8.92653e-13
1.00053e-07
3.88943e-13
1.04598e-07
2.02421e-11
-3.30378e-10
9.99574e-08
-3.00176e-10
1.09833e-07
-1.25104e-11
5.70138e-12
1.00073e-07
6.3247e-12
1.04569e-07
-1.56551e-11
9.92918e-08
1.09148e-07
4.86332e-11
-1.52036e-11
2.26974e-08
-2.22831e-08
4.97119e-11
-1.14193e-11
2.22682e-08
-2.32395e-08
-1.44151e-11
-6.54252e-12
2.32275e-08
9.13835e-12
-6.54744e-11
-2.5762e-13
5.74831e-12
2.43632e-11
2.26354e-08
2.91226e-11
2.28916e-08
3.38542e-11
2.30287e-08
2.32147e-08
-5.01104e-12
-1.89449e-12
2.29452e-08
-4.65813e-11
-2.35753e-08
-5.17482e-12
-4.37365e-13
2.35983e-08
-2.26488e-08
-4.86779e-13
-4.16141e-12
2.26545e-08
-2.41994e-12
3.81541e-12
-1.83031e-16
1.54373e-13
3.91393e-12
4.63809e-11
2.29028e-08
2.07003e-11
-4.76381e-12
2.34232e-08
-2.32558e-08
-4.8491e-12
2.32634e-08
3.39243e-12
-5.17948e-12
-2.32805e-08
2.11468e-11
2.32586e-08
2.34963e-08
-5.25746e-12
-8.26371e-12
2.21951e-08
2.55645e-11
1.26531e-11
-2.33299e-08
-4.20834e-12
2.33203e-08
-2.23793e-08
-7.9031e-12
2.23809e-08
2.21987e-08
2.2186e-08
-2.79379e-12
-1.05505e-11
1.92329e-11
1.87571e-11
-3.84133e-12
-2.33993e-08
2.34331e-08
-8.47124e-12
-2.2308e-08
2.23036e-08
2.21897e-08
2.6593e-10
2.30083e-08
1.51498e-10
2.31648e-08
2.3305e-08
4.86409e-11
-1.50434e-11
2.26971e-08
-2.34418e-11
-2.22817e-08
4.97321e-11
-1.13634e-11
2.22671e-08
-2.32397e-08
-1.4492e-11
-6.36281e-12
2.32276e-08
9.09067e-12
-6.565e-11
-1.74657e-13
1.2143e-11
5.86817e-12
2.11663e-11
2.26396e-08
2.86631e-11
3.34002e-11
2.31658e-08
-2.28991e-08
2.90451e-11
2.28896e-08
-1.24288e-11
-1.46278e-11
-2.30161e-08
3.23655e-11
2.29856e-08
2.32094e-08
-1.76852e-11
4.87778e-11
2.26981e-08
2.45458e-11
-2.32383e-08
-1.74778e-11
2.3217e-08
-2.22747e-08
4.89683e-11
-1.43718e-11
2.22634e-08
-6.57562e-11
8.7339e-12
1.47359e-11
-2.40881e-11
2.26966e-08
2.85947e-11
2.31433e-08
3.5783e-11
-2.289e-08
2.90007e-11
2.28784e-08
-1.20267e-11
-1.52515e-11
3.57882e-11
-2.30216e-08
2.2994e-08
2.31607e-08
-1.75479e-11
4.84321e-11
2.26983e-08
2.45516e-11
-2.32381e-08
-1.76801e-11
2.32166e-08
-2.22752e-08
4.85398e-11
-1.45175e-11
2.22641e-08
-6.57122e-11
8.60174e-12
1.45958e-11
-2.42049e-11
2.26964e-08
3.58083e-11
2.7985e-11
2.31462e-08
-2.28906e-08
2.83426e-11
2.28792e-08
-1.48459e-11
-1.19733e-11
-2.30698e-08
3.56375e-11
2.3037e-08
2.3163e-08
-9.8448e-12
-3.75837e-12
2.21773e-08
1.31479e-11
2.5109e-11
-2.32755e-08
-4.51972e-11
2.32786e-08
-2.24117e-08
3.26446e-11
2.24024e-08
2.21762e-08
-5.0967e-12
-2.01093e-12
2.29488e-08
-4.66237e-11
-2.35778e-08
-5.16612e-12
2.35998e-08
-2.26538e-08
-6.10575e-13
-4.21728e-12
2.26599e-08
-2.28562e-12
3.7953e-12
3.91635e-12
4.63883e-11
2.29066e-08
2.04761e-11
-4.62955e-12
2.3426e-08
-2.32615e-08
-4.73693e-12
2.32692e-08
3.54034e-12
-5.24658e-12
-2.32357e-08
2.09956e-11
2.32196e-08
2.34989e-08
3.11924e-12
-8.03551e-14
1.29829e-13
4.58358e-09
1.59962e-12
-4.71365e-14
4.41336e-14
2.72953e-09
6.90202e-13
-4.46428e-14
9.77365e-15
1.39582e-09
2.12367e-13
-4.1605e-14
-2.24876e-15
5.83128e-10
-3.92246e-15
-2.52539e-15
1.40073e-10
3.23447e-12
2.47763e-13
-4.58453e-09
-3.3293e-14
4.58654e-09
1.71254e-12
1.74311e-13
-2.72976e-09
-8.00309e-14
2.73115e-09
7.5997e-13
8.59326e-14
-1.3957e-09
-7.03899e-14
1.39659e-09
2.42265e-13
2.9694e-14
-5.82911e-10
-5.77325e-14
5.83391e-10
7.80919e-15
-1.39937e-10
-4.25322e-15
1.40119e-10
5.24857e-12
-7.43122e-14
-8.51988e-09
-1.64648e-13
8.52366e-09
2.71515e-12
-3.27383e-14
-5.03738e-09
-1.22361e-13
5.0402e-09
1.06122e-12
1.81285e-14
-2.57518e-09
-5.68154e-14
2.57703e-09
1.41309e-13
4.12948e-14
-1.078e-09
9.59437e-15
1.07907e-09
5.53717e-16
-2.59731e-10
-1.79224e-14
2.60072e-10
5.18205e-12
-1.88417e-13
8.52159e-09
2.69977e-12
-1.3358e-13
5.03865e-09
1.15222e-12
-7.01831e-14
2.57596e-09
2.7408e-13
-1.12831e-14
1.07855e-09
-1.5656e-14
2.60034e-10
5.00602e-12
-8.5204e-09
2.21491e-13
8.52369e-09
2.60176e-12
-5.03735e-09
1.50727e-13
5.0399e-09
1.04375e-12
-2.57508e-09
1.00442e-13
2.57679e-09
1.83398e-13
-1.07786e-09
8.13812e-14
1.07886e-09
-2.59673e-10
9.79513e-16
2.60001e-10
5.07245e-12
-1.33502e-13
1.78562e-13
8.52348e-09
2.76985e-12
-1.00548e-13
1.11624e-13
5.04002e-09
1.19164e-12
-3.90634e-14
7.3033e-14
2.57689e-09
2.56476e-13
3.38135e-15
6.13169e-14
1.07893e-09
-6.46668e-15
-1.03693e-15
2.60095e-10
3.15992e-12
-4.58386e-09
1.03511e-13
4.58608e-09
1.5744e-12
-2.72969e-09
3.05733e-14
2.73117e-09
6.374e-13
-1.39565e-09
7.66005e-15
1.39655e-09
1.93169e-13
-5.82971e-10
-1.02264e-14
5.83421e-10
-1.39917e-10
6.34708e-15
1.40106e-10
3.30323e-12
7.22915e-14
4.58648e-09
1.75492e-12
2.23917e-15
2.73125e-09
7.36695e-13
-1.20585e-14
1.39668e-09
1.92488e-13
-1.50281e-14
5.83472e-10
-8.73478e-16
1.40152e-10
3.00322e-12
7.80507e-14
2.43442e-13
4.58564e-09
1.52458e-12
5.80342e-14
1.05927e-13
2.73059e-09
6.37852e-13
3.41629e-15
1.92515e-14
1.39623e-09
2.40872e-13
-3.91233e-14
-3.25682e-14
5.83271e-10
8.28811e-15
6.24337e-15
1.4013e-10
4.94452e-12
1.81482e-14
-1.29799e-13
-8.51604e-09
8.51943e-09
2.56721e-12
8.79405e-15
-9.46592e-14
-5.03527e-09
5.03786e-09
1.00885e-12
2.72813e-14
-4.61532e-14
-2.57422e-09
2.57595e-09
1.45865e-13
3.52602e-14
9.84504e-15
-1.07754e-09
1.07854e-09
5.16451e-16
-1.74312e-14
-2.59662e-10
2.59982e-10
3.10896e-12
-4.57942e-09
2.60782e-13
4.58136e-09
1.59683e-12
-2.72769e-09
1.2284e-13
2.72903e-09
6.56589e-13
-1.39478e-09
5.12397e-14
1.39564e-09
1.82033e-13
-5.82559e-10
5.18929e-15
5.83016e-10
-1.39858e-10
1.0418e-14
1.40041e-10
2.9635e-12
3.48715e-15
-4.58092e-09
2.67732e-13
4.58285e-09
1.52443e-12
2.66145e-17
-2.72854e-09
1.36066e-13
2.72981e-09
6.7485e-13
-3.21504e-14
-1.39523e-09
5.34932e-14
1.39599e-09
2.60701e-13
-4.11682e-14
-5.82813e-10
-1.17356e-14
5.83193e-10
-4.92904e-15
-1.39898e-10
1.40506e-14
1.40069e-10
5.35167e-12
-3.78123e-14
8.52223e-09
2.96798e-12
-1.89755e-14
5.03871e-09
1.30773e-12
1.25538e-14
2.57618e-09
2.60427e-13
4.83544e-14
1.07868e-09
-1.04065e-14
2.59985e-10
5.11432e-12
-9.82703e-14
-8.51667e-09
8.51984e-09
2.76956e-12
-7.89852e-14
-5.03572e-09
5.03826e-09
1.14836e-12
-3.17869e-14
-2.57417e-09
2.57595e-09
1.79401e-13
3.59802e-14
-1.07752e-09
1.07859e-09
-2.18517e-14
-2.59611e-10
2.59934e-10
-3.4365e-12
-3.65897e-13
5.30738e-09
5.86969e-13
-1.86566e-12
-2.27514e-13
3.14698e-09
3.65356e-13
-8.32043e-13
-1.21809e-13
1.60815e-09
2.01635e-13
-1.95537e-13
-5.66431e-14
6.72097e-10
9.20723e-14
-1.22553e-14
1.61556e-10
2.50646e-14
3.53497e-12
-5.75543e-09
-1.29089e-13
5.55671e-15
5.75753e-09
1.98397e-12
-3.41776e-09
-8.29472e-14
2.05132e-14
3.41931e-09
9.18618e-13
-1.749e-09
-5.55731e-14
2.47511e-14
1.75003e-09
2.69767e-13
-7.31947e-10
-3.11613e-14
1.3919e-14
7.32537e-10
-1.76221e-10
-8.33636e-15
6.97388e-15
1.7643e-10
-3.82284e-12
4.50472e-14
-2.07257e-12
2.78949e-14
-9.28889e-13
2.00951e-14
-2.31929e-13
7.99719e-15
6.00183e-15
2.99768e-12
-2.07282e-13
5.30948e-09
1.58939e-12
-1.05751e-13
3.14844e-09
6.8195e-13
-6.69358e-14
1.60911e-09
1.85304e-13
-4.24279e-14
6.72654e-10
-8.73346e-15
1.61754e-10
-3.64352e-12
3.24465e-13
-4.84218e-13
-1.95752e-12
1.76005e-13
-2.48415e-13
-8.80214e-13
9.03316e-14
-1.18561e-13
-2.40313e-13
5.1725e-14
-5.78007e-14
1.70928e-15
-3.44309e-15
-5.29801e-12
-1.48643e-13
4.69959e-14
-2.82161e-12
-4.64719e-14
-2.42878e-15
-1.23388e-12
-1.32492e-14
-1.4748e-14
-2.9523e-13
-1.91412e-14
-1.01756e-14
1.01369e-14
-4.37377e-15
3.04541e-12
-4.54328e-09
1.77439e-13
4.54517e-09
1.58448e-12
-2.70466e-09
7.75913e-14
2.70596e-09
6.84368e-13
-1.38302e-09
1.83214e-14
1.38384e-09
2.39702e-13
-5.77658e-10
-1.32423e-14
5.78079e-10
-1.38698e-10
2.7861e-15
1.38884e-10
-3.20828e-12
1.2648e-14
-1.66055e-12
2.87776e-14
-6.97541e-13
2.07591e-14
-1.90709e-13
1.80473e-14
-1.96789e-15
3.18043e-12
-4.5423e-09
2.35849e-14
4.54425e-09
1.68388e-12
-2.70413e-09
-3.78487e-14
2.70547e-09
7.40856e-13
-1.38274e-09
-5.54974e-14
1.38356e-09
2.70283e-13
-5.77569e-10
-4.44278e-14
5.77974e-10
-1.38673e-10
-9.89034e-15
1.38857e-10
-3.14963e-12
-2.81978e-13
3.84701e-14
-1.6102e-12
-1.53357e-13
3.46473e-14
-6.77621e-13
-5.97246e-14
2.83087e-14
-2.18334e-13
-9.63646e-15
4.33009e-14
-6.4371e-15
-9.37962e-15
-5.18145e-12
2.9814e-13
-2.6867e-12
1.94189e-13
-1.15144e-12
1.17107e-13
-2.92753e-13
6.9118e-14
9.32647e-15
5.3736e-12
-3.24147e-13
8.18965e-09
2.88307e-12
-1.63267e-13
4.83419e-09
1.20068e-12
-6.39285e-14
2.46888e-09
2.79109e-13
-1.232e-14
1.03264e-09
-4.72976e-15
2.48708e-10
3.22849e-12
4.54537e-09
1.74942e-12
2.70573e-09
7.62979e-13
1.38367e-09
2.22283e-13
5.78064e-10
1.38894e-10
-3.60624e-12
-3.02262e-13
5.30556e-09
4.89518e-13
-1.96527e-12
-2.02454e-13
3.14593e-09
2.89321e-13
-8.76561e-13
-1.26243e-13
1.60755e-09
1.59196e-13
-2.14775e-13
-6.52492e-14
6.71899e-10
7.2674e-14
-1.77056e-14
1.6151e-10
2.15105e-14
3.35272e-12
-5.7543e-09
-1.09496e-13
5.75644e-09
1.85187e-12
-3.41717e-09
-4.67411e-14
3.41872e-09
8.38082e-13
-1.7487e-09
-1.91333e-14
1.74974e-09
2.40453e-13
-7.31827e-10
-1.28509e-14
7.32429e-10
-1.76191e-10
2.49378e-15
1.76402e-10
-3.59508e-12
-1.92652e-12
-8.45231e-13
-2.10383e-13
3.07298e-12
-2.38483e-13
5.3078e-09
1.61212e-12
-1.23284e-13
3.14746e-09
6.89688e-13
-6.92167e-14
1.60852e-09
1.79652e-13
-4.16682e-14
6.72446e-10
-6.09256e-15
1.617e-10
-3.45483e-12
-3.14906e-13
-1.77874e-12
-1.32037e-13
-7.48418e-13
-3.94863e-14
-2.07128e-13
9.225e-16
-1.13803e-16
3.0174e-12
-8.16952e-14
-7.41739e-14
5.75789e-09
1.65073e-12
-4.79058e-14
-5.40259e-14
3.41953e-09
7.51605e-13
-3.79096e-14
-4.58381e-14
1.74986e-09
2.45223e-13
-2.91604e-14
-4.14357e-14
7.3263e-10
-5.13922e-15
-2.94436e-15
1.76403e-10
3.44363e-12
-3.21286e-13
5.31037e-09
1.90907e-12
-1.81602e-13
3.14887e-09
8.47939e-13
-9.85765e-14
1.60925e-09
2.05937e-13
-4.24128e-14
6.72785e-10
-1.43607e-14
1.61748e-10
3.65759e-12
-3.63017e-13
5.75628e-09
2.07717e-12
-2.16487e-13
3.41882e-09
9.46081e-13
-1.10021e-13
1.74962e-09
2.25587e-13
-3.99232e-14
7.32463e-10
-1.26541e-14
1.7637e-10
2.9288e-12
-4.62129e-13
5.30694e-09
1.5146e-12
-3.23192e-13
3.14689e-09
6.47887e-13
-2.22232e-13
1.60819e-09
2.18597e-13
-1.467e-13
6.72258e-10
-2.19037e-14
1.61651e-10
5.17407e-12
-3.67009e-14
1.21654e-14
-8.18614e-09
8.18926e-09
2.76403e-12
3.16434e-14
-1.89824e-14
-4.83223e-09
4.83466e-09
1.17237e-12
5.20059e-14
-3.12552e-14
-2.46736e-09
2.46895e-09
3.06768e-13
4.32619e-14
-2.97619e-14
-1.03178e-09
1.03266e-09
8.92922e-15
-4.12336e-15
-2.48399e-10
2.48721e-10
3.17998e-12
-4.54206e-09
4.54399e-09
1.70908e-12
-2.70402e-09
2.7053e-09
7.41771e-13
-1.38271e-09
1.38353e-09
2.19669e-13
-5.77568e-10
5.77994e-10
-1.38721e-10
1.389e-10
-3.34143e-12
-1.94849e-13
7.51742e-14
-1.7919e-12
-1.05769e-13
5.43333e-14
-7.91966e-13
-4.52939e-14
2.10663e-14
-2.10449e-13
-1.49418e-14
6.76409e-15
-2.70513e-15
-1.71869e-15
-5.36117e-12
-1.00287e-13
-2.84463e-12
-1.45305e-14
-1.23935e-12
7.49161e-15
-2.95113e-13
-2.82473e-15
1.15477e-14
-3.22594e-12
-2.79464e-13
5.30034e-09
3.87173e-13
-1.75329e-12
-1.77642e-13
3.14379e-09
2.28276e-13
-7.80899e-13
-9.98744e-14
1.6066e-09
1.30443e-13
-1.88814e-13
-4.2496e-14
6.71492e-10
6.22639e-14
-1.48893e-14
1.61403e-10
1.82048e-14
3.36494e-12
-5.74884e-09
-1.51747e-13
-2.98769e-14
5.75096e-09
1.85451e-12
-3.41507e-09
-8.52261e-14
-2.42556e-14
3.41667e-09
8.32255e-13
-1.74782e-09
-5.03292e-14
-2.00967e-14
1.74888e-09
2.39371e-13
-7.31452e-10
-3.84837e-14
-1.29579e-14
7.3206e-10
-1.76088e-10
6.25044e-17
-2.53514e-15
1.76297e-10
-3.43819e-12
-6.92811e-14
-1.84436e-12
-5.77246e-14
-8.08838e-13
-4.08273e-14
-1.9166e-13
-2.12543e-14
-7.06162e-15
2.95158e-12
-3.85058e-13
5.30255e-09
1.55989e-12
-2.22185e-13
3.14533e-09
6.70023e-13
-1.28065e-13
1.60759e-09
1.65591e-13
-7.09417e-14
6.7206e-10
-1.44879e-14
1.61592e-10
-3.41159e-12
-2.83463e-13
-1.78569e-12
-1.09101e-13
-7.54176e-13
-2.92392e-14
-1.96505e-13
8.76477e-16
9.41996e-16
-3.20725e-12
-2.44348e-13
5.3027e-09
3.53949e-13
-1.69721e-12
-1.45473e-13
3.14506e-09
1.9209e-13
-7.32183e-13
-7.46476e-14
1.60728e-09
1.04298e-13
-1.92906e-13
-3.21083e-14
6.71842e-10
5.97965e-14
-9.5079e-15
1.61466e-10
8.3551e-15
3.38279e-12
-5.75007e-09
-2.7457e-13
5.75226e-09
1.9081e-12
-3.41574e-09
-1.81016e-13
3.41733e-09
8.88127e-13
-1.7481e-09
-1.07922e-13
1.74916e-09
2.51835e-13
-7.31682e-10
-5.19037e-14
7.32296e-10
-1.7613e-10
-1.47919e-14
1.76335e-10
-3.49991e-12
-1.89349e-12
-8.36724e-13
-1.97682e-13
2.86496e-12
-4.40558e-13
5.30483e-09
1.50349e-12
-2.79973e-13
3.14652e-09
6.52566e-13
-1.78107e-13
1.6082e-09
1.89702e-13
-1.02043e-13
6.72356e-10
-2.21194e-14
1.61652e-10
-3.32933e-12
1.45886e-13
-3.51987e-13
-1.72167e-12
5.77087e-14
-1.41755e-13
-7.50307e-13
4.11757e-14
-3.30768e-14
-2.47909e-13
6.25754e-14
7.64232e-15
-1.39634e-14
2.52759e-15
-5.29711e-12
-2.84558e-12
-1.26497e-12
-2.78319e-13
5.61731e-12
5.49681e-14
-8.18553e-09
8.18882e-09
3.07908e-12
4.97349e-14
-4.83213e-09
4.83472e-09
1.34749e-12
3.72124e-14
-2.4672e-09
2.46893e-09
3.57595e-13
2.02922e-14
-1.03179e-09
1.03276e-09
5.64362e-15
-2.48355e-10
2.48692e-10
5.35946e-12
-8.18442e-09
8.18752e-09
2.92004e-12
-4.83131e-09
4.83379e-09
1.26423e-12
-2.46696e-09
2.46864e-09
3.28515e-13
-1.03163e-09
1.03257e-09
-2.48321e-10
2.48652e-10
6.17587e-12
8.54511e-09
3.24765e-12
5.04579e-09
1.40706e-12
2.57745e-09
3.74377e-13
1.07858e-09
2.59861e-10
-6.4399e-12
8.54559e-09
-3.4406e-12
5.04572e-09
-1.51664e-12
2.57724e-09
-3.9997e-13
1.07821e-09
2.5966e-10
6.07071e-12
8.54912e-09
3.26517e-12
5.04834e-09
1.44201e-12
2.57893e-09
3.69274e-13
1.07917e-09
2.5999e-10
5.37553e-12
-3.05285e-14
-8.18615e-09
8.18934e-09
2.88881e-12
2.27667e-14
-4.83213e-09
4.83461e-09
1.20233e-12
4.06365e-14
-2.46726e-09
2.46892e-09
2.46528e-13
3.93114e-14
-1.03176e-09
1.03271e-09
5.45128e-15
-2.48364e-10
2.48691e-10
3.18601e-12
-4.5438e-09
4.54563e-09
1.70226e-12
-2.70471e-09
2.70599e-09
7.4252e-13
-1.38302e-09
1.38382e-09
2.35642e-13
-5.77713e-10
5.78119e-10
-1.38724e-10
1.38908e-10
-3.19559e-12
-1.39931e-13
-1.67835e-12
-6.6647e-14
-7.23855e-13
-1.79232e-14
-1.94026e-13
1.75404e-14
-6.41663e-15
-5.22443e-12
-2.41775e-14
-2.74348e-12
-6.40777e-15
-1.18996e-12
9.20095e-15
-2.92179e-13
1.23556e-14
1.82405e-15
-5.24492e-12
-2.7971e-12
-1.23258e-12
-2.86112e-13
5.3857e-12
5.64036e-14
-2.31972e-13
-8.18449e-09
8.18789e-09
2.92747e-12
8.24952e-14
-1.5751e-13
-4.8312e-09
4.83375e-09
1.27376e-12
8.47857e-14
-8.9091e-14
-2.46685e-09
2.46852e-09
3.02752e-13
7.54541e-14
-4.11579e-14
-1.03168e-09
1.03263e-09
6.85812e-15
-1.16191e-14
-2.48286e-10
2.48601e-10
3.05155e-12
-4.54194e-09
4.54397e-09
1.6012e-12
-2.70391e-09
2.70519e-09
6.91743e-13
-1.38264e-09
1.38341e-09
2.21061e-13
-5.77575e-10
5.77963e-10
-1.38692e-10
1.38867e-10
-3.10761e-12
-1.27567e-13
-1.6225e-12
-7.18189e-14
-6.95162e-13
-3.3848e-14
-1.96804e-13
-1.29053e-15
-8.48938e-15
5.12766e-12
-2.80277e-13
-8.18504e-09
8.18813e-09
2.72676e-12
-1.51059e-13
-4.83095e-09
4.83332e-09
1.14326e-12
-7.38843e-14
-2.46679e-09
2.46834e-09
2.90408e-13
-3.69567e-14
-1.03169e-09
1.03254e-09
-2.53534e-15
-2.48295e-10
2.48619e-10
3.28986e-12
-4.54383e-09
4.5458e-09
1.80464e-12
-2.70448e-09
2.70583e-09
8.05649e-13
-1.38289e-09
1.38375e-09
2.22281e-13
-5.77667e-10
5.78129e-10
-1.38692e-10
1.38874e-10
-3.47185e-12
1.90012e-13
-1.84098e-12
1.58153e-13
-7.90819e-13
9.68191e-14
-1.85178e-13
5.76093e-14
5.17168e-15
-5.42114e-12
-1.01972e-13
-2.87465e-12
-9.03322e-14
-1.25194e-12
-6.85467e-14
-3.01952e-13
-4.78424e-14
-6.1618e-15
-4.99047e-12
-2.64218e-12
-1.1534e-12
-2.99584e-13
-6.58995e-12
8.5425e-09
-3.61908e-12
5.04438e-09
-1.62091e-12
2.5764e-09
-4.00853e-13
1.07797e-09
2.59555e-10
5.88604e-12
8.54624e-09
3.11239e-12
5.04705e-09
1.35903e-12
2.57808e-09
3.45968e-13
1.07892e-09
2.59879e-10
5.78708e-12
8.5506e-09
3.16838e-12
5.04921e-09
1.41769e-12
2.57935e-09
3.83281e-13
1.07938e-09
2.60037e-10
6.27323e-12
8.54557e-09
3.49924e-12
5.04635e-09
1.56532e-12
2.57784e-09
3.36179e-13
1.07879e-09
2.59907e-10
-5.34721e-12
-9.68679e-14
-2.83607e-12
-6.68734e-14
-1.23804e-12
-3.45327e-14
-3.08729e-13
-1.3051e-14
-3.55303e-15
-5.1346e-12
-2.68632e-12
-1.15304e-12
-3.0152e-13
-6.38388e-12
8.53791e-09
-3.47176e-12
5.04183e-09
-1.53622e-12
2.57516e-09
-3.95049e-13
1.07741e-09
2.59481e-10
5.89355e-12
8.54156e-09
3.1585e-12
5.04445e-09
1.38804e-12
2.57684e-09
3.32771e-13
1.07837e-09
2.59797e-10
-6.41081e-12
8.54307e-09
-3.55166e-12
5.04517e-09
-1.59496e-12
2.57709e-09
-3.6444e-13
1.07819e-09
2.59652e-10
5.7321e-12
8.54662e-09
3.09072e-12
5.04773e-09
1.35144e-12
2.57877e-09
3.1072e-13
1.07919e-09
2.59972e-10
3.83368e-11
1.74469e-11
1.08753e-08
-7.91114e-12
-1.56502e-12
-8.49203e-13
1.08735e-08
-9.01199e-12
4.03501e-11
-1.47691e-10
1.77556e-11
1.81039e-10
2.34992e-08
-2.88937e-11
1.10181e-10
5.8114e-11
2.71272e-08
-5.8917e-12
2.17615e-12
-1.69063e-11
2.69307e-08
-3.76115e-11
-2.13665e-13
4.27459e-12
1.03788e-11
2.19934e-08
-6.86801e-12
-4.11013e-12
1.94622e-08
-6.26313e-12
-1.32987e-13
9.21242e-12
-6.46919e-11
2.25532e-08
-2.6192e-10
-1.38067e-09
2.50468e-11
4.40038e-10
4.16964e-11
2.91365e-10
3.91849e-11
9.75501e-08
1.50938e-10
2.0163e-10
-1.23365e-11
-1.40601e-11
2.26953e-08
1.7347e-10
-3.31714e-09
5.44373e-10
9.83615e-11
7.09705e-11
6.25358e-10
1.00208e-07
-3.77372e-11
1.04726e-11
3.81468e-12
2.19894e-08
-7.54457e-12
2.63654e-13
-3.41272e-12
1.94569e-08
-6.03315e-12
-6.48429e-11
8.56975e-12
2.25507e-08
-6.77589e-10
-4.08018e-11
-1.60241e-09
4.43633e-10
5.2185e-11
2.33145e-11
2.80879e-10
3.88462e-10
-9.50597e-13
2.33757e-10
9.89293e-08
-3.19232e-09
5.50376e-10
9.78787e-11
5.66699e-11
6.25553e-10
1.00916e-07
1.3695e-12
-1.19843e-11
-1.67359e-11
2.26871e-08
-3.8064e-11
-1.60318e-09
4.44912e-10
4.05245e-11
2.18826e-11
2.93649e-10
3.84767e-10
1.9306e-11
2.12482e-10
9.89213e-08
-6.71346e-10
7.31644e-12
5.3887e-12
-1.16546e-11
-1.40191e-11
2.26902e-08
4.18974e-14
-3.18655e-12
1.94576e-08
-6.17138e-12
-2.62635e-12
1.08723e-08
-8.82541e-12
4.70702e-11
2.34717e-08
5.24829e-11
-1.87241e-11
-5.36496e-11
-4.75492e-11
2.7084e-08
-6.33683e-13
-4.61362e-12
5.57018e-11
2.14189e-11
2.72402e-08
1.06418e-12
1.10674e-08
-8.49e-12
2.28728e-14
-2.43132e-11
5.0207e-11
-5.27249e-13
2.29698e-08
-4.35004e-10
-1.03702e-09
3.84748e-10
3.24826e-11
1.56976e-10
2.85518e-10
1.81742e-12
-1.09533e-11
2.31434e-10
9.83352e-08
-1.64701e-10
-6.31259e-10
1.94218e-10
-9.8836e-11
-5.04622e-11
9.92165e-11
9.81173e-08
-1.40349e-12
-4.89783e-12
6.2964e-12
2.29817e-08
-2.40554e-11
5.02798e-11
-8.66817e-13
2.29722e-08
-4.029e-10
-5.06425e-11
-1.02399e-09
2.80039e-10
1.37164e-11
-1.05009e-11
2.18459e-10
3.88575e-10
1.19453e-11
1.78371e-10
9.83266e-08
-6.19529e-10
1.89747e-10
-9.92563e-11
-5.09999e-11
9.92129e-11
9.77613e-08
-1.21898e-12
6.60791e-13
-4.85279e-12
4.05728e-12
2.29831e-08
-1.34899e-13
-6.06442e-13
-1.35864e-11
2.24914e-08
-2.22025e-12
1.98141e-08
-5.86258e-12
-8.66418e-13
-1.38989e-11
2.24952e-08
-1.17169e-12
-1.99463e-12
1.98186e-08
-5.93789e-12
2.34731e-08
2.49839e-11
1.18842e-11
1.89124e-12
1.22756e-12
-1.74551e-11
2.71261e-08
-8.51486e-13
-3.78095e-13
-9.09456e-12
2.7202e-08
1.08718e-08
-9.36046e-12
1.10687e-08
-9.04621e-12
2.48016e-11
2.23795e-11
9.15181e-09
-8.47878e-12
-8.00184e-13
1.89313e-13
9.15657e-09
-9.08635e-12
1.48657e-11
-1.19889e-11
2.0885e-08
7.16123e-11
1.89014e-08
-5.44453e-12
-8.60547e-11
1.86946e-10
2.33774e-08
1.08138e-10
7.19532e-11
2.20073e-08
-4.28894e-12
1.86126e-08
-5.92209e-12
2.03475e-11
-2.80524e-11
-3.05094e-11
2.26232e-08
-7.00224e-12
2.101e-08
-1.53277e-08
-7.22145e-11
-4.01751e-12
8.56765e-12
1.53906e-08
4.74094e-12
7.52388e-12
2.1605e-08
6.22248e-12
-3.03809e-11
1.37307e-12
1.81214e-08
-1.56798e-14
-6.35185e-12
1.46893e-11
8.22224e-11
-2.12727e-13
-1.99418e-10
2.2096e-08
1.37608e-12
-6.07667e-12
2.38168e-11
-1.78402e-10
2.17019e-08
-5.45927e-14
1.81943e-08
5.1517e-12
-9.14388e-09
-4.07164e-11
9.18405e-09
9.0493e-12
-2.79252e-12
2.62996e-08
-1.86954e-11
-1.09286e-11
-8.88754e-11
1.74246e-11
1.95392e-08
5.31157e-12
-1.0888e-11
-1.37151e-10
2.64087e-08
-1.53197e-08
-3.87462e-12
-7.27746e-11
8.49629e-12
1.5383e-08
4.87945e-12
1.14116e-12
1.81168e-08
-6.16674e-12
7.90852e-12
2.15953e-08
5.90217e-12
-3.0845e-11
8.22053e-11
1.43376e-11
-1.99301e-10
2.20918e-08
1.30763e-12
-5.9121e-12
1.81898e-08
4.99837e-12
2.33658e-11
-1.7864e-10
2.16919e-08
-9.14004e-09
-4.109e-11
9.18036e-09
9.19402e-12
-1.984e-12
2.62865e-08
-1.9123e-11
-1.00307e-11
1.68451e-11
-8.89541e-11
1.95336e-08
5.48839e-12
-1.04293e-11
-1.37448e-10
2.6396e-08
-9.13893e-09
-4.11758e-11
-8.3031e-12
9.17914e-09
9.2682e-12