/*--------------------------------*- C++ -*----------------------------------*\
| =========                 |                                                 |
| \\      /  F ield         | OpenFOAM: The Open Source CFD Toolbox           |
|  \\    /   O peration     | Version:  2206                                  |
|   \\  /    A nd           | Website:  www.openfoam.com                      |
|    \\/     M anipulation  |                                                 |
\*---------------------------------------------------------------------------*/
FoamFile
{
    version     2.0;
    format      ascii;
    arch        "LSB;label=32;scalar=64";
    class       volVectorField;
    location    "10";
    object      U;
}
// * * * * * * * * * * * * * * * * * * * * * * * * * * * * * * * * * * * * * //

dimensions      [0 1 -1 0 0 0 0];

internalField   nonuniform List<vector> 
66621
(
(-1.38435e-05 -5.85588e-05 0.10464)
(-8.22947e-05 -2.27273e-06 0.108014)
(-5.8357e-05 -1.71661e-05 0.104593)
(7.77428e-05 -3.73142e-06 0.108754)
(5.82143e-05 -4.66079e-05 0.108249)
(3.22225e-06 -1.51245e-06 0.114621)
(-3.03129e-05 1.70229e-05 0.0999528)
(-2.23166e-06 7.55404e-05 0.108754)
(2.48437e-06 -2.54968e-06 0.113987)
(-1.61934e-06 -1.19782e-06 0.114731)
(-4.29759e-05 5.65736e-05 0.108269)
(0.000317341 0.000324747 0.11074)
(2.92673e-05 3.80351e-05 0.107266)
(3.704e-05 2.7198e-05 0.107301)
(-1.65803e-05 -2.98189e-05 0.100011)
(-2.7505e-05 -1.90079e-05 0.0999553)
(-0.000318457 -0.000326978 0.110729)
(-3.49749e-05 -2.81046e-05 0.107284)
(-2.58619e-05 -4.05412e-05 0.107266)
(4.59632e-06 -1.58644e-06 0.114042)
(-4.10886e-05 -5.55382e-05 0.108245)
(2.67978e-05 -3.93941e-05 0.107264)
(2.7534e-05 -1.79877e-05 0.0999541)
(-7.75449e-05 -3.95252e-06 0.108759)
(-1.52587e-07 8.17079e-07 0.113956)
(-5.764e-05 -4.71358e-05 0.108254)
(-3.85796e-06 -1.66509e-06 0.114628)
(-8.08869e-05 9.03781e-08 0.108014)
(-5.95399e-05 1.50313e-05 0.104592)
(-7.73608e-05 1.43834e-06 0.108759)
(8.00701e-07 -3.52805e-06 0.113952)
(-3.51193e-06 2.73672e-07 0.114636)
(-5.86005e-05 4.31037e-05 0.108255)
(8.09639e-05 -1.72999e-06 0.108011)
(5.96524e-05 -1.57296e-05 0.104593)
(7.80914e-05 7.35099e-07 0.108755)
(-1.30104e-06 -3.56564e-06 0.113953)
(2.28997e-06 2.99544e-07 0.114633)
(5.88941e-05 4.38556e-05 0.108249)
(8.18422e-05 -1.01787e-06 0.108013)
(5.93337e-05 1.34348e-05 0.104594)
(-0.000318336 0.000324452 0.110738)
(-2.9621e-05 3.71503e-05 0.107267)
(-3.74361e-05 2.76102e-05 0.107297)
(-1.55481e-05 2.88889e-05 0.100036)
(1.46908e-06 7.58738e-05 0.108753)
(-2.24705e-06 -2.4482e-06 0.113986)
(2.45756e-06 -1.91674e-06 0.114732)
(4.24631e-05 5.57102e-05 0.108273)
(-9.21859e-07 8.0207e-05 0.108046)
(-1.31618e-05 5.97166e-05 0.104669)
(1.30427e-07 8.05323e-05 0.108046)
(1.30157e-05 5.92401e-05 0.104674)
(2.92576e-05 1.68022e-05 0.0999544)
(1.57043e-05 2.87116e-05 0.100043)
(-7.37698e-06 -6.41939e-05 0.107087)
(-3.55065e-06 -3.40561e-05 0.0989393)
(3.85176e-05 -1.14733e-06 0.103039)
(-7.8582e-05 -5.94161e-06 0.107857)
(-3.44859e-05 -6.91922e-07 0.103953)
(8.47875e-05 -4.76202e-07 0.108001)
(8.49586e-05 3.70649e-06 0.107842)
(3.75751e-05 -8.59121e-07 0.103912)
(-3.24527e-05 -1.04573e-06 0.103081)
(3.67571e-05 -1.13793e-07 0.0988033)
(-6.65271e-05 -1.12432e-05 0.107061)
(6.47629e-05 1.00889e-05 0.104547)
(7.20435e-05 5.82461e-06 0.107037)
(-3.27734e-05 -4.3334e-06 0.0988735)
(3.05449e-05 -1.50944e-05 0.0998903)
(-3.2589e-05 -3.36214e-05 0.106086)
(1.91829e-05 2.75317e-05 0.0995256)
(2.52873e-05 1.91803e-05 0.0995421)
(-1.98487e-05 -2.63524e-05 0.0994588)
(-2.53215e-05 -2.00676e-05 0.0994735)
(3.23571e-05 3.4117e-05 0.106113)
(-9.60689e-05 -3.17984e-05 0.107959)
(3.33028e-05 2.57307e-05 0.10433)
(-3.10051e-05 -3.73046e-05 0.107244)
(9.55623e-05 3.16914e-05 0.108688)
(-9.6594e-05 -3.17458e-05 0.108671)
(-3.52147e-05 -2.41782e-05 0.104284)
(9.5532e-05 3.35068e-05 0.107974)
(-2.54969e-05 -9.82911e-05 0.107965)
(2.42418e-05 3.38397e-05 0.104331)
(-3.59866e-05 -2.96706e-05 0.10728)
(2.53983e-05 9.78697e-05 0.108683)
(-2.79435e-05 -9.88855e-05 0.108667)
(-2.24356e-05 -3.5217e-05 0.104283)
(2.53304e-05 9.83274e-05 0.107979)
(3.19588e-05 1.35187e-05 0.0998941)
(3.47538e-05 3.25099e-05 0.106089)
(-2.46251e-05 -2.09726e-05 0.0995477)
(-1.69092e-05 -2.78219e-05 0.09951)
(2.77426e-05 1.96496e-05 0.0994803)
(1.98396e-05 2.41821e-05 0.0994461)
(-2.99658e-05 -3.51457e-05 0.10611)
(3.33172e-05 9.66669e-05 0.107973)
(-2.27038e-05 -3.40021e-05 0.104359)
(-2.3335e-05 -9.60769e-05 0.10868)
(2.45868e-05 3.39437e-05 0.104318)
(-2.79622e-05 -9.8345e-05 0.107974)
(9.89183e-05 2.62499e-05 0.107964)
(-3.20601e-05 -2.70448e-05 0.104303)
(3.07656e-05 3.50696e-05 0.107245)
(-9.36422e-05 -3.21448e-05 0.108684)
(3.62487e-05 2.24908e-05 0.104253)
(-9.44727e-05 -3.07046e-05 0.107968)
(9.88065e-05 2.82395e-05 0.108667)
(1.71345e-05 -2.96653e-05 0.0995262)
(2.9247e-05 -3.60889e-05 0.106107)
(3.19305e-05 -2.70297e-05 0.104329)
(9.44087e-05 -3.38049e-05 0.108683)
(9.62603e-05 -3.51765e-05 0.10797)
(3.83285e-05 4.74525e-07 0.103038)
(-3.30597e-05 -1.23433e-07 0.10395)
(-7.90418e-05 5.28632e-06 0.107856)
(8.48754e-05 -1.16242e-06 0.108)
(3.74911e-05 8.28463e-07 0.103914)
(8.32629e-05 -4.45166e-06 0.107841)
(-3.3301e-05 1.21592e-06 0.103081)
(3.57417e-05 -7.81936e-07 0.098817)
(-6.62328e-05 9.5414e-06 0.10706)
(6.27754e-05 -1.23032e-05 0.104548)
(7.06651e-05 -7.30614e-06 0.107035)
(-3.31489e-05 3.35503e-06 0.0988867)
(7.86095e-05 -5.77272e-06 0.107854)
(3.23456e-05 -7.84917e-07 0.103946)
(3.46676e-05 -9.96653e-07 0.103088)
(6.64484e-05 -9.9943e-06 0.107058)
(3.16656e-05 -2.0309e-06 0.098889)
(3.42599e-05 -2.44962e-06 0.103948)
(7.90397e-05 3.23656e-06 0.107855)
(3.26229e-05 -1.64951e-06 0.103077)
(6.73089e-05 8.54643e-06 0.107056)
(3.30107e-05 2.2398e-06 0.0988836)
(3.22129e-05 -3.41747e-05 0.106073)
(-1.93813e-05 2.5953e-05 0.0995161)
(-2.54721e-05 1.7985e-05 0.0995524)
(1.94026e-05 -2.75231e-05 0.0994521)
(2.49097e-05 -2.02824e-05 0.0994906)
(-3.31084e-05 3.24151e-05 0.106104)
(9.67244e-05 -3.08045e-05 0.107952)
(-3.42159e-05 2.50882e-05 0.104305)
(3.03796e-05 -3.71445e-05 0.107241)
(-9.6098e-05 3.07426e-05 0.108691)
(3.4359e-05 -2.47296e-05 0.104248)
(9.75023e-05 -3.16929e-05 0.108666)
(-9.63095e-05 3.01686e-05 0.107974)
(2.76632e-05 -9.80615e-05 0.107963)
(-2.41437e-05 3.4035e-05 0.104354)
(3.68387e-05 -2.97387e-05 0.10728)
(-2.61579e-05 9.75847e-05 0.108681)
(2.81361e-05 -9.76806e-05 0.108666)
(2.31918e-05 -3.61376e-05 0.104316)
(-2.85679e-05 9.79106e-05 0.107974)
(1.54313e-05 -3.1492e-05 0.0999771)
(1.16451e-07 -3.57891e-05 0.103195)
(-3.39794e-06 7.71816e-05 0.107902)
(-3.24007e-07 3.37191e-05 0.104087)
(-1.15612e-07 -8.33633e-05 0.10804)
(4.24741e-06 -8.30538e-05 0.10789)
(-1.50202e-06 -3.49929e-05 0.104057)
(5.7478e-07 3.27124e-05 0.103233)
(2.27558e-06 -3.48076e-05 0.098943)
(-7.37608e-06 6.78345e-05 0.107136)
(1.16675e-05 -6.37396e-05 0.104628)
(6.92691e-06 -7.10327e-05 0.107114)
(-6.96854e-07 3.32169e-05 0.0990193)
(-3.32627e-07 -3.62772e-05 0.10319)
(2.99085e-06 7.75842e-05 0.107899)
(-8.93008e-07 3.33315e-05 0.104082)
(-2.2246e-07 -8.33195e-05 0.108036)
(-4.07518e-06 -8.31289e-05 0.107887)
(7.3164e-07 -3.53899e-05 0.104053)
(-1.24957e-06 3.26365e-05 0.10323)
(-2.05557e-06 -3.58237e-05 0.0989486)
(7.35984e-06 6.69245e-05 0.107135)
(-1.17845e-05 -6.37879e-05 0.104631)
(-6.79256e-06 -6.99458e-05 0.107113)
(8.167e-07 3.26323e-05 0.0990155)
(-1.45184e-05 -3.18337e-05 0.0999817)
(-3.20261e-06 -1.83821e-06 0.115661)
(-2.03275e-07 -3.43788e-06 0.115905)
(-5.38721e-06 9.60172e-07 0.115909)
(-2.3107e-06 2.12355e-06 0.116086)
(3.17661e-06 -1.35002e-06 0.115661)
(2.4402e-07 -3.58165e-06 0.115916)
(5.51162e-06 1.12109e-06 0.115911)
(2.78874e-06 2.80068e-06 0.116099)
(-3.8502e-06 1.48319e-06 0.11564)
(-3.31061e-06 -3.73728e-07 0.115896)
(-1.44236e-06 -1.96683e-06 0.115914)
(5.51096e-08 -1.56535e-07 0.116032)
(3.58679e-06 1.17297e-06 0.115641)
(2.73875e-06 -1.06145e-06 0.11589)
(1.60343e-06 -2.0411e-06 0.115906)
(8.60371e-07 2.90311e-07 0.11602)
(-0.000356632 1.74219e-06 0.109786)
(7.76536e-05 -8.36733e-06 0.108717)
(0.000349184 -2.51297e-06 0.109874)
(-8.0579e-05 -3.85254e-07 0.108735)
(-8.22195e-05 4.67944e-06 0.108695)
(-0.000352065 -1.4479e-06 0.109826)
(0.000350628 -7.24989e-06 0.109835)
(7.30837e-05 -1.80756e-05 0.108582)
(0.000332318 -1.56952e-05 0.109427)
(0.000360279 -1.04257e-05 0.109702)
(-2.5827e-06 -0.000357802 0.109785)
(9.64215e-07 0.000349964 0.109857)
(-5.10282e-06 7.55383e-05 0.108718)
(4.74062e-07 -7.93137e-05 0.108746)
(-1.82117e-06 -0.000352097 0.109829)
(5.54143e-06 -8.10085e-05 0.108704)
(2.46382e-06 0.000350718 0.109824)
(9.2927e-07 -0.000357392 0.109661)
(-1.46225e-05 7.12312e-05 0.108593)
(4.18196e-05 -6.1073e-05 0.108248)
(-4.61263e-06 0.000334737 0.109426)
(7.15872e-06 -0.000340275 0.109396)
(1.50946e-05 -7.5381e-05 0.108577)
(7.52592e-07 0.00036142 0.109696)
(-8.80644e-05 -9.17594e-05 0.108743)
(-0.000311233 -0.000314545 0.110668)
(7.60377e-05 0.000299789 0.109665)
(0.00028935 7.98686e-05 0.109665)
(-7.68249e-05 -0.000298049 0.109631)
(-0.000290884 -7.84543e-05 0.109628)
(8.99086e-05 9.60007e-05 0.108767)
(9.2655e-05 8.79533e-05 0.108748)
(0.00031507 0.000310879 0.110683)
(-0.000294668 -7.977e-05 0.109655)
(-7.27869e-05 -0.000296953 0.109664)
(-9.00865e-05 -9.36941e-05 0.108761)
(0.000300594 7.47077e-05 0.109634)
(7.68591e-05 0.000291251 0.109641)
(-1.44956e-05 -7.0456e-05 0.108565)
(-5.85811e-06 -0.000330603 0.109396)
(-2.27182e-06 -0.000358111 0.109641)
(0.000357519 1.85671e-06 0.109788)
(-7.68378e-05 -8.56503e-06 0.108717)
(-0.000349418 -2.71871e-06 0.109878)
(8.20867e-05 -3.87493e-07 0.10874)
(8.33614e-05 4.47271e-06 0.108696)
(0.00035158 -1.58619e-06 0.10983)
(-0.000351013 -7.60516e-06 0.109837)
(0.000358917 4.72707e-06 0.109666)
(-7.17671e-05 -1.88464e-05 0.108585)
(6.38165e-05 4.00716e-05 0.108229)
(-0.000332118 -1.52691e-05 0.109432)
(7.81381e-05 1.37229e-05 0.108566)
(0.000339927 1.01431e-05 0.1094)
(-0.000359989 -1.06652e-05 0.109707)
(0.000352214 -3.56314e-06 0.109787)
(-0.000348037 -8.15572e-08 0.109877)
(-7.76567e-05 7.35038e-06 0.108717)
(8.19322e-05 -1.97881e-06 0.108739)
(0.000350492 -4.42702e-07 0.109829)
(8.22102e-05 -6.15909e-06 0.108696)
(-0.00035141 5.44587e-06 0.109838)
(0.000354696 -7.09322e-06 0.109659)
(-7.20848e-05 1.67409e-05 0.108588)
(6.16445e-05 -4.16419e-05 0.10823)
(-0.00032927 1.2302e-05 0.10943)
(7.69257e-05 -1.52285e-05 0.108567)
(-0.000353856 7.49615e-06 0.109704)
(0.000336085 -1.24207e-05 0.109398)
(-0.000353227 -3.73266e-06 0.109786)
(0.000348458 -5.7842e-07 0.109873)
(7.83562e-05 5.95837e-06 0.108714)
(-8.13782e-05 -2.33244e-06 0.108736)
(-0.000351125 -4.53353e-07 0.109826)
(-8.17521e-05 -6.77496e-06 0.108694)
(0.000352434 4.73489e-06 0.109835)
(-0.000357168 -6.66385e-06 0.109657)
(7.31322e-05 1.68431e-05 0.108582)
(-6.26423e-05 -4.25095e-05 0.108226)
(0.000331859 1.26855e-05 0.109428)
(-0.000338976 -1.27599e-05 0.109396)
(-7.73392e-05 -1.51639e-05 0.108562)
(0.00035616 8.23142e-06 0.109702)
(8.80521e-05 -9.23022e-05 0.108743)
(0.000310874 -0.00031369 0.110664)
(-7.69365e-05 0.000296822 0.109672)
(-0.000291793 8.05933e-05 0.109659)
(0.0002914 -7.76928e-05 0.109624)
(7.62553e-05 -0.000296588 0.109631)
(-9.07292e-05 9.55543e-05 0.108768)
(2.76444e-06 -0.000358821 0.109784)
(-1.72865e-06 0.000350863 0.109855)
(4.79142e-06 7.57204e-05 0.108716)
(-5.58724e-07 -7.95712e-05 0.108744)
(2.09412e-06 -0.000352975 0.109828)
(-5.72823e-06 -8.09194e-05 0.108702)
(-3.01728e-06 0.000351453 0.109823)
(-7.60957e-07 -0.000356799 0.109664)
(1.44003e-05 7.12059e-05 0.108596)
(-4.1137e-05 -6.0882e-05 0.108253)
(4.21033e-06 0.00033285 0.109429)
(-7.03751e-06 -0.000339459 0.109398)
(-1.49893e-05 -7.49968e-05 0.108579)
(-1.15663e-06 0.000360229 0.109698)
(-7.46194e-06 -2.04547e-05 0.0824703)
(-4.54941e-06 -1.02993e-05 0.0616876)
(-2.44248e-06 -4.62474e-06 0.039966)
(-9.9848e-07 -1.851e-06 0.0212864)
(-3.67708e-07 -2.19138e-07 0.0065484)
(-1.87982e-05 -9.93734e-06 0.0825071)
(-9.87718e-06 -6.89469e-06 0.0617094)
(-4.48516e-06 -4.1651e-06 0.0399778)
(-1.5288e-06 -2.29549e-06 0.0212916)
(-3.05984e-07 -4.72023e-07 0.00654971)
(-1.7269e-05 9.43553e-06 0.0847775)
(-9.95223e-06 4.30264e-06 0.0635379)
(-4.76595e-06 1.25673e-06 0.0414308)
(-1.18629e-06 -1.54849e-07 0.0222253)
(-5.62709e-07 -1.80075e-07 0.00688671)
(-8.58229e-06 -1.79792e-05 0.0847549)
(-3.38799e-06 -1.03553e-05 0.0635173)
(-4.98454e-07 -5.26819e-06 0.0414162)
(5.07357e-07 -2.09476e-06 0.0222181)
(3.97671e-07 -6.1181e-07 0.00688498)
(-1.41236e-05 -1.24629e-05 0.0847714)
(-7.41373e-06 -7.83405e-06 0.0635287)
(-2.88877e-06 -4.37001e-06 0.0414225)
(-1.54142e-07 -2.12624e-06 0.0222198)
(-2.1227e-07 -4.09208e-07 0.00688468)
(1.45086e-05 -1.11889e-05 0.0847751)
(8.46607e-06 -6.6883e-06 0.0635322)
(3.98906e-06 -3.41355e-06 0.0414257)
(9.88349e-07 -1.32868e-06 0.0222221)
(3.83834e-07 -2.59158e-07 0.00688623)
(-1.96872e-05 8.40888e-06 0.082518)
(-9.95182e-06 5.03118e-06 0.0617213)
(-4.39571e-06 2.34189e-06 0.0399858)
(-1.72102e-06 7.87908e-07 0.0212953)
(-2.48623e-07 1.6427e-07 0.00655054)
(1.93801e-05 -8.8716e-06 0.082511)
(1.05151e-05 -6.20798e-06 0.0617106)
(4.7627e-06 -3.52693e-06 0.0399785)
(1.61334e-06 -1.50456e-06 0.0212918)
(2.00688e-07 -4.67847e-07 0.00655024)
(1.86631e-05 6.60849e-06 0.0825091)
(9.60163e-06 4.15405e-06 0.0617068)
(4.2975e-06 2.30134e-06 0.0399743)
(2.07379e-06 1.27413e-06 0.021289)
(9.10107e-09 2.47286e-07 0.00654964)
(-8.9311e-06 1.59934e-05 0.0847342)
(-4.37945e-06 9.16303e-06 0.0635096)
(-1.5483e-06 4.30877e-06 0.0414132)
(-1.87979e-07 1.05699e-06 0.0222157)
(9.86867e-08 4.72823e-07 0.00688422)
(-6.39786e-06 1.94559e-05 0.0824341)
(-3.8406e-06 1.04222e-05 0.0616719)
(-1.79759e-06 4.79253e-06 0.0399571)
(-6.21478e-07 1.68235e-06 0.021281)
(-1.19527e-07 3.45247e-07 0.00654678)
(6.0445e-06 1.87375e-05 0.0824417)
(3.41154e-06 9.91322e-06 0.0616768)
(1.50805e-06 4.68188e-06 0.0399593)
(9.41331e-07 2.35194e-06 0.0212812)
(-1.25176e-07 1.86922e-07 0.00654648)
(1.64548e-05 1.066e-05 0.0847674)
(9.53884e-06 6.20383e-06 0.0635243)
(4.65677e-06 3.13745e-06 0.0414213)
(1.17313e-06 1.02124e-06 0.0222196)
(4.71128e-07 2.86983e-07 0.00688516)
(9.64111e-06 1.5742e-05 0.0847368)
(5.26547e-06 9.32322e-06 0.06351)
(2.20843e-06 4.58166e-06 0.0414129)
(6.19068e-07 9.26439e-07 0.022215)
(-1.46058e-07 6.79232e-07 0.00688375)
(2.13908e-05 -3.23372e-06 0.0836186)
(1.19013e-05 -3.69486e-06 0.0624871)
(6.02335e-06 -3.19034e-06 0.040562)
(2.07289e-06 -2.21402e-06 0.0216608)
(7.1199e-07 -7.57162e-07 0.00668135)
(-1.86677e-05 -5.39379e-09 0.083636)
(-1.11354e-05 5.47205e-07 0.0627361)
(-5.53164e-06 8.4792e-07 0.0408435)
(-2.44414e-06 6.80065e-07 0.0218636)
(-2.03719e-07 3.24149e-07 0.00675904)
(2.13849e-05 -1.24032e-06 0.083562)
(1.18619e-05 -1.25335e-06 0.0626582)
(5.57952e-06 -8.70601e-07 0.0407873)
(2.29372e-06 -5.5557e-07 0.0218338)
(1.48044e-07 -7.62701e-08 0.00675018)
(-1.81163e-05 -4.24726e-07 0.0836914)
(-9.86216e-06 3.65116e-08 0.0625602)
(-4.71391e-06 4.73891e-07 0.0406144)
(-1.59876e-06 6.67636e-07 0.0216888)
(-5.29841e-07 1.95144e-07 0.00668984)
(2.41052e-05 3.88601e-06 0.0824222)
(1.36649e-05 1.80532e-06 0.0616241)
(6.82079e-06 5.56117e-07 0.0399172)
(2.7317e-06 -3.06682e-07 0.0212597)
(4.43358e-07 1.84249e-07 0.00654003)
(1.76146e-05 -8.97576e-06 0.0846902)
(9.74725e-06 -4.97971e-06 0.0634504)
(4.54479e-06 -2.53808e-06 0.0413656)
(1.51983e-06 -7.69273e-07 0.0221891)
(2.53123e-07 -4.67996e-07 0.00687556)
(1.74637e-05 1.18921e-05 0.0826649)
(9.55964e-06 6.03606e-06 0.061821)
(4.65024e-06 2.54982e-06 0.0400558)
(2.03492e-06 1.24225e-06 0.0213369)
(3.70305e-07 -1.95679e-07 0.00656585)
(-1.99654e-05 -1.09669e-05 0.0825907)
(-1.09854e-05 -5.25373e-06 0.0617493)
(-5.21082e-06 -1.95411e-06 0.0400073)
(-2.0212e-06 -4.00472e-07 0.0213126)
(-4.25444e-07 -4.3034e-08 0.00655807)
(1.1252e-05 1.91443e-05 0.0826465)
(5.13608e-06 1.10471e-05 0.0618087)
(1.61462e-06 5.66998e-06 0.0400482)
(8.48967e-07 2.57884e-06 0.0213332)
(-5.15156e-07 6.864e-07 0.00656449)
(-1.01116e-05 -2.02617e-05 0.0825691)
(-4.62947e-06 -1.10328e-05 0.0617333)
(-1.57929e-06 -5.18243e-06 0.0399973)
(-1.99076e-07 -2.38822e-06 0.0213077)
(-8.01166e-08 -2.97958e-07 0.0065567)
(1.83323e-05 7.3925e-06 0.0846896)
(1.02146e-05 3.35147e-06 0.0634461)
(4.97554e-06 9.8036e-07 0.041362)
(2.10566e-06 -3.79282e-07 0.0221867)
(3.84715e-07 7.0373e-08 0.00687456)
(1.09944e-05 -1.88714e-05 0.0849454)
(5.38317e-06 -1.16368e-05 0.0634781)
(1.84297e-06 -6.23919e-06 0.0413047)
(1.59663e-07 -2.5539e-06 0.0221208)
(-1.80168e-07 -7.09559e-07 0.00684461)
(1.68821e-05 -1.4339e-05 0.0826654)
(9.2418e-06 -8.20941e-06 0.0618155)
(4.34939e-06 -4.02873e-06 0.040053)
(1.51584e-06 -1.78822e-06 0.021337)
(3.90766e-07 -1.72463e-07 0.00656593)
(2.18466e-05 1.72976e-06 0.0836252)
(1.24553e-05 2.21556e-06 0.0624927)
(6.10641e-06 2.2288e-06 0.0405668)
(2.54306e-06 1.64136e-06 0.0216643)
(2.49288e-07 7.11712e-07 0.00668269)
(-1.81545e-05 7.13421e-08 0.0836335)
(-1.03315e-05 1.18148e-07 0.0627342)
(-5.11037e-06 2.2638e-07 0.0408429)
(-1.69927e-06 8.27001e-08 0.0218639)
(-6.34772e-07 1.91663e-07 0.00675911)
(2.00857e-05 1.89813e-06 0.0835697)
(1.10246e-05 2.03089e-06 0.0626661)
(5.27658e-06 1.81475e-06 0.0407918)
(1.80239e-06 1.23345e-06 0.0218359)
(4.86206e-07 4.94221e-07 0.00675057)
(-1.87281e-05 6.83287e-07 0.0837017)
(-1.01337e-05 2.80326e-07 0.0625682)
(-4.69851e-06 -5.58451e-09 0.040619)
(-1.71376e-06 -3.28489e-07 0.021691)
(-2.94722e-07 5.78204e-08 0.00669048)
(2.22162e-05 -5.74758e-06 0.0824301)
(1.18859e-05 -3.66154e-06 0.0616352)
(5.36059e-06 -2.12711e-06 0.0399266)
(1.91028e-06 -9.36118e-07 0.0212649)
(1.91536e-07 -4.48382e-07 0.00654118)
(1.62624e-05 -3.72327e-07 0.083631)
(9.20217e-06 -1.22824e-07 0.0627299)
(4.5146e-06 -1.31521e-08 0.0408388)
(1.95524e-06 -8.65901e-08 0.0218605)
(3.50931e-07 7.04215e-08 0.00675772)
(2.02132e-05 -6.89631e-07 0.0837045)
(1.17362e-05 -2.25345e-07 0.0625699)
(5.69809e-06 2.99871e-07 0.0406212)
(2.17191e-06 4.96346e-07 0.0216918)
(3.11906e-07 2.59841e-07 0.00669044)
(1.95149e-05 -1.98937e-06 0.0836366)
(1.1707e-05 -1.6926e-06 0.0627388)
(5.78222e-06 -1.40744e-06 0.0408467)
(2.06481e-06 -1.07122e-06 0.0218655)
(4.64639e-07 -2.71226e-07 0.00675932)
(1.81987e-05 -3.07354e-06 0.0836838)
(1.00508e-05 -3.45357e-06 0.0625483)
(4.92912e-06 -3.13832e-06 0.0406037)
(2.20448e-06 -2.41359e-06 0.0216816)
(4.03867e-07 -5.96822e-07 0.00668773)
(-1.60482e-05 1.25625e-05 0.0849393)
(-9.25262e-06 6.90772e-06 0.0634778)
(-4.41139e-06 3.1229e-06 0.0413049)
(-1.45325e-06 1.18521e-06 0.0221212)
(-4.19444e-07 1.51687e-07 0.00684474)
(-1.10913e-05 1.9376e-05 0.0826393)
(-5.1659e-06 1.1235e-05 0.0618101)
(-1.63411e-06 5.80758e-06 0.0400522)
(-3.84219e-07 2.4418e-06 0.0213371)
(3.65525e-07 7.00157e-07 0.00656632)
(1.09392e-05 -2.08806e-05 0.0825622)
(5.39424e-06 -1.17085e-05 0.0617316)
(2.26838e-06 -5.69503e-06 0.0399968)
(6.65203e-07 -2.19217e-06 0.0213086)
(7.57206e-08 -3.82768e-07 0.00655746)
(9.19534e-06 -1.76847e-05 0.0846502)
(5.1773e-06 -9.78303e-06 0.0634243)
(2.6568e-06 -4.46563e-06 0.04135)
(9.31485e-07 -1.50513e-06 0.0221811)
(4.38436e-07 -2.11624e-07 0.00687356)
(-1.14224e-06 -1.98926e-05 0.0835468)
(-1.64274e-06 -1.10053e-05 0.0624531)
(-1.643e-06 -5.46322e-06 0.0405442)
(-1.19253e-06 -1.87527e-06 0.0216516)
(-5.34151e-07 -5.83187e-07 0.00667879)
(-1.01954e-07 1.78233e-05 0.0835541)
(6.76158e-08 1.04588e-05 0.0626963)
(1.45555e-07 5.03284e-06 0.040822)
(2.83433e-07 2.11246e-06 0.0218521)
(-4.76307e-08 2.36498e-07 0.00675549)
(-2.05857e-06 -1.92326e-05 0.083489)
(-2.29529e-06 -1.06815e-05 0.0626262)
(-2.01586e-06 -5.00783e-06 0.040771)
(-1.30191e-06 -1.83186e-06 0.021825)
(-5.41831e-07 -2.74369e-07 0.00674746)
(6.99211e-07 1.78622e-05 0.0836176)
(9.19198e-07 9.86435e-06 0.062523)
(9.75468e-07 4.70314e-06 0.0405938)
(1.07366e-06 1.66327e-06 0.0216777)
(1.08557e-07 4.27359e-07 0.00668648)
(5.92331e-06 -2.15755e-05 0.0823537)
(3.91753e-06 -1.17134e-05 0.0615937)
(2.32533e-06 -5.33019e-06 0.0399029)
(1.0246e-06 -1.70937e-06 0.0212529)
(4.95593e-07 -2.73627e-07 0.00653823)
(7.24882e-07 -1.97119e-05 0.083545)
(1.12996e-06 -1.06979e-05 0.0624526)
(1.15882e-06 -5.07355e-06 0.0405462)
(9.97326e-07 -2.05758e-06 0.0216535)
(2.97568e-07 -2.18075e-07 0.00667925)
(-1.04737e-06 1.79963e-05 0.0835502)
(-1.22509e-06 1.06499e-05 0.0626958)
(-1.13293e-06 5.41629e-06 0.0408241)
(-8.01716e-07 1.99796e-06 0.0218545)
(-2.73517e-07 5.81241e-07 0.00675619)
(7.54323e-07 -1.93809e-05 0.0834845)
(8.85664e-07 -1.08218e-05 0.0626229)
(7.18207e-07 -5.10455e-06 0.0407686)
(4.67984e-07 -1.75323e-06 0.0218236)
(1.6275e-07 -4.23531e-07 0.00674694)
(-2.06561e-06 1.77301e-05 0.0836136)
(-2.40588e-06 9.74677e-06 0.0625192)
(-2.35036e-06 4.73593e-06 0.040591)
(-1.82816e-06 1.98459e-06 0.0216759)
(-6.03569e-07 3.70515e-07 0.00668576)
(-5.16051e-06 -2.1456e-05 0.0823639)
(-3.24897e-06 -1.15077e-05 0.0616018)
(-1.8144e-06 -5.28646e-06 0.0399099)
(-6.12374e-07 -2.45668e-06 0.0212572)
(-5.18885e-07 -1.19947e-08 0.00653946)
(-8.09262e-06 -1.814e-05 0.0846508)
(-4.14146e-06 -1.03327e-05 0.0634199)
(-1.70577e-06 -5.02003e-06 0.0413445)
(-1.65004e-09 -1.93966e-06 0.022177)
(-3.02445e-07 -2.73772e-07 0.00687186)
(1.30788e-05 1.75452e-05 0.0849406)
(6.96586e-06 1.09526e-05 0.0634777)
(2.69978e-06 5.96646e-06 0.0413052)
(6.73002e-07 2.57724e-06 0.0221208)
(-1.49548e-07 7.29781e-07 0.00684436)
(1.5474e-05 1.33626e-05 0.0849286)
(9.19079e-06 7.64739e-06 0.06347)
(4.59698e-06 3.49877e-06 0.0413009)
(1.68604e-06 1.13742e-06 0.0221184)
(4.60023e-07 1.76325e-07 0.00684381)
(-9.46116e-07 -2.50358e-05 0.0849475)
(1.2473e-06 -1.35745e-05 0.0636361)
(1.9364e-06 -6.6543e-06 0.0414858)
(1.71592e-06 -2.51311e-06 0.0222523)
(5.20302e-07 -6.75261e-07 0.00689436)
(2.56023e-05 -1.9171e-06 0.0848577)
(1.4624e-05 -2.54423e-06 0.0635459)
(7.17809e-06 -2.42541e-06 0.0414211)
(3.08333e-06 -1.82114e-06 0.0222175)
(4.31938e-07 -5.62507e-07 0.00688375)
(-2.27747e-05 -3.04279e-06 0.0849552)
(-1.27473e-05 -1.64399e-06 0.0636399)
(-6.03746e-06 -5.43746e-07 0.0414879)
(-2.19684e-06 -1.51181e-07 0.0222532)
(-4.53172e-07 1.63687e-07 0.00689427)
(-1.31967e-05 1.61824e-05 0.084943)
(-6.95618e-06 9.89836e-06 0.0634811)
(-2.64756e-06 5.2442e-06 0.0413071)
(-3.87906e-07 2.08441e-06 0.0221219)
(3.76715e-08 5.89482e-07 0.00684472)
(-1.92506e-05 1.07417e-05 0.0826749)
(-1.11641e-05 4.89508e-06 0.0618263)
(-5.80019e-06 1.58752e-06 0.0400608)
(-2.48583e-06 4.49621e-07 0.0213411)
(-7.0317e-07 -2.98301e-07 0.00656719)
(1.84026e-05 -1.26533e-05 0.0825937)
(9.765e-06 -6.97626e-06 0.0617474)
(4.56353e-06 -3.24067e-06 0.0400054)
(1.72268e-06 -8.35126e-07 0.0213123)
(3.18343e-07 -3.81403e-07 0.00655797)
(-1.36295e-05 -1.58205e-05 0.0848554)
(-7.14024e-06 -8.95726e-06 0.063393)
(-2.93956e-06 -4.53748e-06 0.0412429)
(-8.30817e-07 -1.78589e-06 0.0220872)
(-6.32269e-09 -5.72273e-07 0.00683393)
(-1.53709e-05 -1.38509e-05 0.0848381)
(-8.92486e-06 -7.32307e-06 0.0633793)
(-4.73359e-06 -2.93993e-06 0.0412337)
(-1.78041e-06 -7.92529e-07 0.0220818)
(-7.70782e-07 9.74586e-08 0.0068322)
(-1.46412e-05 -1.47433e-05 0.0849273)
(-8.16504e-06 -8.68788e-06 0.0634698)
(-3.58609e-06 -4.35574e-06 0.0413008)
(-7.67318e-07 -1.85681e-06 0.0221186)
(-2.42772e-07 -3.1435e-07 0.00684304)
(-1.01545e-05 -1.92124e-05 0.0826361)
(-4.50588e-06 -1.0857e-05 0.0618053)
(-1.31311e-06 -5.59722e-06 0.040049)
(7.58121e-10 -2.55194e-06 0.0213358)
(1.50931e-07 -6.1144e-07 0.00656551)
(1.23878e-05 1.81477e-05 0.0825565)
(6.87315e-06 9.3515e-06 0.0617273)
(3.47808e-06 4.11071e-06 0.0399946)
(1.38584e-06 1.30929e-06 0.0213077)
(4.05297e-07 2.84414e-07 0.00655665)
(-1.05284e-05 -1.781e-05 0.084926)
(-4.97747e-06 -1.11677e-05 0.0634645)
(-1.50973e-06 -6.239e-06 0.0412965)
(2.15985e-07 -2.86131e-06 0.0221164)
(1.30175e-07 -7.71906e-07 0.00684265)
(-1.74099e-05 -1.46197e-05 0.0826717)
(-9.58898e-06 -8.47613e-06 0.0618225)
(-4.45776e-06 -4.31287e-06 0.0400585)
(-1.33108e-06 -2.21464e-06 0.0213396)
(-4.0981e-07 -1.04077e-07 0.00656612)
(2.2451e-05 1.03419e-05 0.0825865)
(1.30874e-05 4.39324e-06 0.0617388)
(6.64082e-06 1.01319e-06 0.0399992)
(2.86547e-06 -6.11558e-07 0.0213087)
(5.3248e-07 -8.94383e-08 0.00655665)
(1.70698e-05 1.35613e-05 0.0848396)
(9.93127e-06 6.97585e-06 0.0633803)
(5.14461e-06 2.63909e-06 0.0412352)
(2.28115e-06 5.78116e-07 0.0220832)
(5.62114e-07 -8.52869e-08 0.00683224)
(1.42422e-05 1.35859e-05 0.0848435)
(8.21172e-06 6.86917e-06 0.0633804)
(4.12595e-06 2.90976e-06 0.0412355)
(1.76631e-06 5.98832e-07 0.0220837)
(3.16703e-07 3.31478e-07 0.00683226)
(2.54402e-05 3.9114e-07 0.0848745)
(1.46735e-05 1.4174e-06 0.0635616)
(7.47137e-06 1.62503e-06 0.0414315)
(2.77818e-06 1.17222e-06 0.0222231)
(6.95626e-07 5.41467e-07 0.00688489)
(-2.26935e-05 1.93807e-06 0.0849699)
(-1.25301e-05 3.78992e-07 0.0636544)
(-6.09555e-06 -5.79549e-07 0.0414979)
(-2.19669e-06 -7.4675e-07 0.0222585)
(-6.26079e-07 -3.99629e-07 0.00689551)
(2.21344e-05 -3.15481e-07 0.084969)
(1.28564e-05 1.02899e-06 0.0636502)
(6.57903e-06 1.47023e-06 0.0414942)
(2.47506e-06 1.08893e-06 0.022256)
(7.09261e-07 5.13824e-07 0.00689538)
(2.38405e-05 2.24327e-07 0.0849679)
(1.43372e-05 -1.46632e-06 0.063653)
(7.36993e-06 -2.19004e-06 0.0414978)
(2.60456e-06 -1.95467e-06 0.0222588)
(7.65759e-07 -6.86964e-07 0.00689639)
(1.30931e-05 -1.71885e-05 0.0848582)
(6.69113e-06 -9.94799e-06 0.0633942)
(2.76023e-06 -4.97599e-06 0.0412432)
(9.0968e-07 -1.80217e-06 0.0220872)
(-3.55328e-09 -5.77843e-07 0.00683401)
(1.46686e-05 -1.41519e-05 0.0848576)
(8.02306e-06 -7.58989e-06 0.0633967)
(3.98492e-06 -3.27941e-06 0.0412459)
(1.5661e-06 -8.88851e-07 0.0220893)
(5.02027e-07 -1.96886e-07 0.00683479)
(7.26916e-07 -2.44522e-05 0.0848231)
(-3.14558e-07 -1.40175e-05 0.0635275)
(-8.93846e-07 -6.89883e-06 0.0414104)
(-8.13118e-07 -2.67272e-06 0.0222118)
(-4.14191e-07 -5.14313e-07 0.00688227)
(6.79642e-07 2.31604e-05 0.0849252)
(1.69882e-06 1.31864e-05 0.0636247)
(2.09552e-06 6.59278e-06 0.0414793)
(1.67139e-06 2.52935e-06 0.0222486)
(7.44138e-07 6.29364e-07 0.00689308)
(-2.27756e-07 -2.4568e-05 0.0848339)
(4.80909e-07 -1.41568e-05 0.0635389)
(7.61291e-07 -7.10924e-06 0.0414179)
(8.26937e-07 -2.55818e-06 0.0222153)
(2.2813e-07 -5.87412e-07 0.00688307)
(-9.08456e-07 2.25478e-05 0.0849278)
(-2.10559e-06 1.29711e-05 0.063632)
(-2.39969e-06 6.51382e-06 0.0414859)
(-1.65204e-06 2.36919e-06 0.0222523)
(-8.42117e-07 6.67792e-07 0.00689415)
(1.6402e-05 2.89213e-05 0.0999222)
(3.18029e-05 1.38591e-05 0.0998874)
(0.000315575 0.000312254 0.11067)
(4.22476e-05 3.10047e-05 0.107255)
(3.17974e-05 3.67835e-05 0.107237)
(8.57673e-05 -9.05922e-07 0.107993)
(6.58453e-05 1.14431e-05 0.104537)
(8.28845e-05 -7.75999e-07 0.108733)
(3.70587e-06 -3.33267e-06 0.114097)
(6.46313e-05 4.09167e-05 0.108224)
(3.13301e-06 -3.32388e-06 0.114816)
(8.49719e-05 -1.44095e-06 0.10799)
(6.40804e-05 -1.40015e-05 0.104538)
(8.25299e-05 -2.6535e-06 0.108732)
(2.53653e-06 -1.30595e-06 0.114115)
(2.84244e-06 -6.58726e-07 0.114827)
(6.30579e-05 -4.30104e-05 0.108223)
(-3.86491e-06 -2.26132e-06 0.114117)
(-6.41123e-05 -4.43834e-05 0.10822)
(-6.4514e-05 -1.52846e-05 0.104536)
(2.97906e-05 -1.69384e-05 0.0998868)
(0.000312828 -0.00031657 0.110633)
(2.88462e-05 -3.81179e-05 0.10723)
(4.06341e-05 -2.81089e-05 0.107278)
(1.66829e-05 -2.9071e-05 0.0999711)
(2.60135e-07 -7.94878e-05 0.108746)
(4.16909e-06 -3.03597e-06 0.114104)
(-3.05298e-07 -3.63645e-06 0.114764)
(4.3729e-05 -6.11303e-05 0.108244)
(-1.31882e-06 -7.9384e-05 0.108744)
(-4.6891e-06 -3.50757e-06 0.114103)
(-1.19496e-07 -3.47704e-06 0.114765)
(-4.3345e-05 -6.13363e-05 0.108248)
(-2.37424e-07 -8.35173e-05 0.108038)
(1.34021e-05 -6.35169e-05 0.104622)
(-1.07068e-06 -8.34428e-05 0.108035)
(-1.41863e-05 -6.37634e-05 0.104625)
(-0.000312696 -0.00031805 0.110636)
(-3.13258e-05 -3.92657e-05 0.107235)
(-3.94327e-05 -2.93566e-05 0.107275)
(-3.21023e-05 -1.72815e-05 0.0998758)
(-1.68987e-05 -3.12742e-05 0.0999767)
(2.8194e-05 1.81265e-05 0.0994731)
(2.19151e-05 2.56178e-05 0.0994361)
(3.66634e-05 3.23589e-05 0.106079)
(2.84598e-05 3.45999e-05 0.104298)
(3.6882e-05 9.73242e-05 0.108664)
(3.60277e-05 9.6758e-05 0.107962)
(3.75229e-05 2.4535e-05 0.104246)
(0.000101085 2.92622e-05 0.108664)
(0.000100857 2.6532e-05 0.107959)
(-3.10233e-05 -4.31964e-07 0.103089)
(8.53237e-05 3.14015e-06 0.107833)
(3.7529e-05 -1.09353e-06 0.103903)
(-8.0811e-05 -1.92255e-06 0.108019)
(3.83987e-05 -1.94847e-06 0.103024)
(-7.88657e-05 -5.70945e-06 0.107865)
(-3.20787e-05 -4.47269e-07 0.103958)
(-3.05047e-05 -1.75179e-06 0.0988825)
(7.1842e-05 6.57767e-06 0.107026)
(-5.78181e-05 -1.50989e-05 0.1046)
(3.71114e-05 -2.41239e-07 0.098789)
(-6.63498e-05 -1.00346e-05 0.107069)
(-3.29542e-05 -2.41803e-07 0.103089)
(3.74344e-05 5.10925e-07 0.103901)
(8.3185e-05 -4.81651e-06 0.107831)
(-7.99332e-05 1.72252e-07 0.108018)
(3.72359e-05 7.31018e-07 0.103025)
(-3.08731e-05 -2.91483e-07 0.103956)
(-7.9287e-05 3.8742e-06 0.107863)
(-3.16103e-05 8.4492e-07 0.0989006)
(6.94328e-05 -8.28869e-06 0.107024)
(-5.8141e-05 1.20745e-05 0.104599)
(3.47879e-05 -4.34275e-07 0.098807)
(-6.68022e-05 7.60253e-06 0.107067)
(3.17663e-05 3.28441e-07 0.0988877)
(-7.09216e-05 -9.05839e-06 0.107025)
(5.78847e-05 1.17314e-05 0.104601)
(-3.75468e-05 -3.54676e-06 0.0987891)
(6.74638e-05 8.197e-06 0.107068)
(-2.86125e-05 1.37181e-05 0.0999682)
(-3.31509e-05 3.10784e-05 0.106116)
(2.11162e-05 -2.91376e-05 0.0994462)
(2.59097e-05 -1.96439e-05 0.099476)
(3.37358e-05 -3.39329e-05 0.106065)
(-1.81714e-05 2.29981e-05 0.099528)
(-2.48048e-05 1.87022e-05 0.0995586)
(-9.44615e-05 2.59775e-05 0.107977)
(3.53266e-05 -2.73725e-05 0.104239)
(9.86065e-05 -3.22991e-05 0.108662)
(-2.93076e-05 3.59298e-05 0.107271)
(-9.4194e-05 2.71814e-05 0.108694)
(9.66301e-05 -3.03769e-05 0.107944)
(-3.17103e-05 2.09555e-05 0.104313)
(-2.87348e-05 9.93972e-05 0.107988)
(2.60388e-05 -3.52565e-05 0.104315)
(3.14375e-05 -9.87248e-05 0.108664)
(-3.45162e-05 2.83845e-05 0.107307)
(2.9692e-05 -9.92307e-05 0.107962)
(-2.34945e-05 3.57236e-05 0.104364)
(-2.61893e-05 9.74151e-05 0.108688)
(-1.25447e-05 2.87912e-05 0.100046)
(8.09465e-07 3.32605e-05 0.103234)