/*--------------------------------*- C++ -*----------------------------------*\
| =========                 |                                                 |
| \\      /  F ield         | OpenFOAM: The Open Source CFD Toolbox           |
|  \\    /   O peration     | Version:  2206                                  |
|   \\  /    A nd           | Website:  www.openfoam.com                      |
|    \\/     M anipulation  |                                                 |
\*---------------------------------------------------------------------------*/
FoamFile
{
    version     2.0;
    format      ascii;
    arch        "LSB;label=32;scalar=64";
    class       volScalarField;
    location    "50";
    object      nut;
}
// * * * * * * * * * * * * * * * * * * * * * * * * * * * * * * * * * * * * * //

dimensions      [0 2 -1 0 0 0 0];

internalField   nonuniform List<scalar> 
66701
(
1.39725e-08
1.21017e-08
3.04004e-08
6.5436e-08
1.96408e-08
1.27692e-07
1.05301e-07
2.30222e-08
1.23172e-08
3.08011e-08
6.65841e-08
1.99862e-08
1.28805e-07
2.32592e-08
1.07407e-07
1.42388e-08
2.31003e-09
2.56288e-10
1.89862e-11
3.68778e-12
3.47894e-12
2.28268e-09
2.51926e-10
1.86948e-11
3.68653e-12
3.48566e-12
2.24502e-09
2.45845e-10
1.78192e-11
3.29037e-12
3.07963e-12
2.28396e-09
2.5034e-10
1.81026e-11
3.29865e-12
3.08072e-12
2.35734e-09
2.6125e-10
1.92988e-11
3.69896e-12
3.4822e-12
2.3284e-09
2.5719e-10
1.90316e-11
3.69665e-12
3.48708e-12
2.0331e-09
2.23073e-10
1.65505e-11
3.37427e-12
3.20598e-12
2.08193e-09
2.29766e-10
1.70868e-11
3.48237e-12
3.30891e-12
2.0716e-09
2.27438e-10
1.68303e-11
3.38329e-12
3.20785e-12
2.09849e-09
2.31574e-10
1.72021e-11
3.48606e-12
3.3095e-12
1.41152e-08
1.39393e-08
8.13287e-07
7.40781e-08
7.2678e-08
3.09256e-08
8.39606e-07
1.43532e-07
1.27457e-07
3.00495e-08
3.68914e-07
8.28767e-07
1.40102e-07
1.04432e-06
1.28609e-07
3.06066e-08
3.7095e-07
8.34786e-07
1.04923e-06
1.45e-07
1.42041e-08
8.13997e-07
7.37567e-08
1.3936e-08
4.2016e-08
1.20713e-08
1.19917e-08
4.29483e-08
1.20852e-08
1.19772e-08
1.16595e-07
2.89349e-08
2.31639e-07
7.47998e-08
1.16607e-07
2.9274e-08
2.33228e-07
1.15373e-07
2.82205e-08
2.29117e-07
7.2702e-08
1.15647e-07
2.83094e-08
2.27504e-07
1.9715e-08
1.05808e-07
2.3024e-08
1.28008e-07
1.98483e-08
1.06262e-07
2.30967e-08
1.21325e-08
6.55078e-08
3.03698e-08
1.21207e-08
6.59369e-08
1.99916e-08
2.31143e-08
1.07855e-07
1.29409e-07
2.01977e-08
2.32379e-08
1.0863e-07
1.23452e-08
6.70287e-08
3.07628e-08
1.23919e-08
6.7061e-08
1.42059e-08
4.36669e-08
1.2363e-08
1.24696e-08
1.18806e-07
2.31828e-07
7.43708e-08
2.3018e-07
2.90918e-08
1.19447e-07
7.43959e-08
2.96208e-08
2.34042e-07
1.41584e-08
1.22898e-06
1.17661e-06
1.16023e-06
1.02358e-06
1.23597e-06
1.17272e-06
1.16674e-06
1.03138e-06
1.15727e-06
1.03301e-06
1.16467e-06
1.04733e-06
2.78965e-07
7.96251e-07
4.66901e-07
4.62834e-07
2.78555e-07
4.61848e-07
4.57828e-07
5.56916e-07
2.30534e-07
3.74292e-07
1.45813e-07
3.74289e-07
5.47686e-07
2.32844e-07
6.08462e-07
3.18851e-07
6.83361e-07
3.68332e-07
6.18055e-07
3.16208e-07
6.68182e-07
5.36389e-07
2.26443e-07
3.67851e-07
1.41615e-07
3.64214e-07
5.45043e-07
2.27262e-07
6.12912e-07
6.85331e-07
3.23828e-07
3.70354e-07
6.25241e-07
6.69854e-07
3.22728e-07
5.42592e-07
2.33179e-07
3.73496e-07
1.45539e-07
5.51855e-07
2.33258e-07
3.69652e-07
2.81381e-07
7.95451e-07
4.63295e-07
4.58681e-07
4.68032e-07
2.33112e-09
2.58647e-10
1.91407e-11
3.69219e-12
3.47923e-12
2.31592e-09
2.56895e-10
1.90242e-11
3.68826e-12
3.47838e-12
2.27007e-09
2.48624e-10
1.79931e-11
3.2941e-12
3.07867e-12
2.23971e-09
2.45551e-10
1.78073e-11
3.28975e-12
3.07921e-12
2.28485e-09
2.50793e-10
1.81357e-11
3.29937e-12
3.08054e-12
2.35627e-09
2.61452e-10
1.93199e-11
3.69937e-12
3.48195e-12
2.31149e-09
2.56641e-10
1.90111e-11
3.69325e-12
3.48429e-12
2.03836e-09
2.2382e-10
1.65997e-11
3.37815e-12
3.20883e-12
2.08581e-09
2.30409e-10
1.71303e-11
3.48358e-12
3.30894e-12
2.04205e-09
2.24041e-10
1.66101e-11
3.37584e-12
3.20609e-12
2.08542e-09
2.30349e-10
1.71241e-11
3.48544e-12
3.31114e-12
2.24107e-09
2.45881e-10
1.78279e-11
3.29598e-12
3.08552e-12
2.07353e-09
2.27688e-10
1.68488e-11
3.38656e-12
3.21081e-12
2.09912e-09
2.31924e-10
1.72314e-11
3.48695e-12
3.30963e-12
2.07843e-09
2.27954e-10
1.6863e-11
3.38423e-12
3.20791e-12
2.09563e-09
2.31618e-10
1.72124e-11
3.48839e-12
3.31171e-12
2.28502e-09
2.50699e-10
1.81326e-11
3.30521e-12
3.08705e-12
2.35388e-09
2.61411e-10
1.93207e-11
3.70411e-12
3.48716e-12
2.30947e-09
2.52845e-10
1.82764e-11
3.33882e-12
3.12014e-12
2.32127e-09
2.5792e-10
1.90958e-11
3.69521e-12
3.48411e-12
2.0984e-09
2.31647e-10
1.73769e-11
3.62237e-12
3.4526e-12
2.2723e-09
2.48932e-10
1.80383e-11
3.32655e-12
3.11283e-12
2.27963e-09
2.49228e-10
1.8054e-11
3.33525e-12
3.12238e-12
2.08644e-09
2.30186e-10
1.72791e-11
3.61794e-12
3.45058e-12
2.24344e-09
2.45632e-10
1.78308e-11
3.31955e-12
3.11137e-12
2.24135e-09
2.45674e-10
1.78398e-11
3.3251e-12
3.11712e-12
2.10391e-09
2.3184e-10
1.73873e-11
3.62851e-12
3.45908e-12
2.09318e-09
2.30396e-10
1.72936e-11
3.62422e-12
3.45719e-12
2.2877e-09
2.52378e-10
1.87305e-11
3.69375e-12
3.49252e-12
2.28369e-09
2.5215e-10
1.87146e-11
3.68693e-12
3.4855e-12
2.33265e-09
2.57865e-10
1.90846e-11
3.70403e-12
3.4937e-12
2.33684e-09
2.58135e-10
1.90971e-11
3.69839e-12
3.48711e-12
2.29921e-09
2.51728e-10
1.82191e-11
3.33743e-12
3.11984e-12
2.1589e-09
2.37913e-10
1.77687e-11
3.638e-12
3.45868e-12
2.16417e-09
2.38415e-10
1.77955e-11
3.63927e-12
3.45941e-12
8.90891e-07
8.37161e-07
1.33554e-06
8.64348e-07
8.76227e-07
8.30296e-07
1.31659e-06
8.5316e-07
8.75152e-07
8.296e-07
1.29776e-06
8.49107e-07
8.70001e-07
8.25967e-07
1.28552e-06
8.46491e-07
8.56547e-07
8.22045e-07
1.27543e-06
8.47242e-07
8.5962e-07
8.20746e-07
1.26505e-06
8.42328e-07
8.58126e-07
8.18583e-07
1.25421e-06
8.41847e-07
8.56559e-07
8.17031e-07
1.2488e-06
8.40812e-07
8.55834e-07
8.16266e-07
1.24217e-06
8.40227e-07
8.5403e-07
8.13209e-07
1.23587e-06
8.37594e-07
8.50653e-07
8.12528e-07
1.23144e-06
8.35495e-07
8.51256e-07
8.15069e-07
1.22841e-06
8.38418e-07
8.53268e-07
8.1523e-07
1.22775e-06
8.37123e-07
8.48288e-07
8.12341e-07
1.22595e-06
8.3777e-07
8.51015e-07
8.14697e-07
1.22657e-06
8.37895e-07
8.52178e-07
8.12564e-07
1.22727e-06
8.46128e-07
8.57743e-07
8.20425e-07
8.34662e-07
8.12118e-07
8.81478e-07
8.78144e-07
8.7388e-07
8.14772e-07
8.2783e-07
8.10264e-07
8.70482e-07
8.76616e-07
8.65605e-07
8.67502e-07
8.36532e-07
8.14857e-07
8.52825e-07
8.6187e-07
8.53223e-07
8.53513e-07
8.58153e-07
8.55501e-07
8.57473e-07
8.30173e-07
8.13138e-07
8.7212e-07
8.75636e-07
8.67364e-07
8.12594e-07
8.2838e-07
8.10689e-07
8.6786e-07
8.64973e-07
8.68003e-07
8.66329e-07
8.29748e-07
8.08467e-07
8.53514e-07
8.54874e-07
8.49814e-07
8.52635e-07
8.54776e-07
8.48104e-07
8.51428e-07
8.30029e-07
8.10754e-07
8.65855e-07
8.738e-07
8.61302e-07
8.08152e-07
8.28745e-07
8.09368e-07
8.68077e-07
8.66224e-07
8.58944e-07
8.6074e-07
8.24628e-07
8.07738e-07
8.48993e-07
8.53361e-07
8.49199e-07
8.49536e-07
8.52084e-07
8.49139e-07
8.44629e-07
8.31806e-07
8.1317e-07
8.60202e-07
8.60039e-07
8.57609e-07
8.05049e-07
8.27068e-07
8.07363e-07
8.57618e-07
8.62925e-07
8.54522e-07
8.57621e-07
8.25432e-07
8.05641e-07
8.50235e-07
8.51141e-07
8.4548e-07
8.48389e-07
8.45511e-07
8.49172e-07
8.41639e-07
8.30804e-07
8.1049e-07
8.60639e-07
8.59126e-07
8.57558e-07
8.03238e-07
8.24637e-07
8.05613e-07
8.57464e-07
8.57662e-07
8.57135e-07
8.56192e-07
8.21477e-07
8.0661e-07
8.45899e-07
8.47245e-07
8.43463e-07
8.44345e-07
8.42079e-07
8.44074e-07
8.39502e-07
8.27456e-07
8.08094e-07
8.59253e-07
8.5866e-07
8.56864e-07
8.00871e-07
8.23078e-07
8.03623e-07
8.57252e-07
8.5292e-07
8.55523e-07
8.52547e-07
8.24531e-07
8.0508e-07
8.39976e-07
8.43122e-07
8.41383e-07
8.40523e-07
8.39547e-07
8.4274e-07
8.34355e-07
8.2317e-07
8.06065e-07
8.56968e-07
8.57355e-07
8.53417e-07
7.99068e-07
8.21355e-07
8.0187e-07
8.56043e-07
8.55496e-07
8.54065e-07
8.54534e-07
8.22937e-07
8.04769e-07
8.37702e-07
8.42911e-07
8.37691e-07
8.40655e-07
8.37188e-07
8.41029e-07
8.34161e-07
8.2133e-07
8.05843e-07
8.5486e-07
8.56971e-07
8.52834e-07
7.98927e-07
8.18748e-07
7.99386e-07
8.54694e-07
8.51656e-07
8.5119e-07
8.50235e-07
8.22469e-07
8.03038e-07
8.37829e-07
8.41518e-07
8.37554e-07
8.39621e-07
8.35891e-07
8.40002e-07
8.34615e-07
8.19814e-07
8.02045e-07
8.4982e-07
8.54983e-07
8.48208e-07
7.96578e-07
8.16637e-07
8.00295e-07
8.53318e-07
8.48356e-07
8.51422e-07
8.49315e-07
8.20685e-07
8.0215e-07
8.39837e-07
8.37539e-07
8.38612e-07
8.36476e-07
8.35257e-07
8.39358e-07
8.34884e-07
8.19951e-07
8.01389e-07
8.50185e-07
8.52533e-07
8.49489e-07
7.95511e-07
8.18702e-07
8.00683e-07
8.49742e-07
8.46043e-07
8.50466e-07
8.47498e-07
8.19853e-07
8.00979e-07
8.38736e-07
8.39266e-07
8.36614e-07
8.37802e-07
8.32922e-07
8.36064e-07
8.34429e-07
8.16377e-07
8.02742e-07
8.49726e-07
8.51385e-07
8.49382e-07
7.94366e-07
8.18422e-07
7.97929e-07
8.51041e-07
8.48298e-07
8.50388e-07
8.47149e-07
8.18843e-07
7.99288e-07
8.3692e-07
8.39097e-07
8.3506e-07
8.39455e-07
8.35082e-07
8.37927e-07
8.34049e-07
8.21117e-07
8.04328e-07
8.49967e-07
8.53887e-07
8.47647e-07
7.97193e-07
8.14618e-07
7.95716e-07
8.50429e-07
8.48629e-07
8.48417e-07
8.45771e-07
8.16086e-07
7.97951e-07
8.3426e-07
8.37391e-07
8.33633e-07
8.38363e-07
8.34643e-07
8.36876e-07
8.29582e-07
8.22618e-07
8.03324e-07
8.47859e-07
8.51919e-07
8.47945e-07
7.9561e-07
8.13155e-07
7.97865e-07
8.48738e-07
8.49376e-07
8.47199e-07
8.46888e-07
8.15926e-07
7.98958e-07
8.34427e-07
8.39306e-07
8.33559e-07
8.37463e-07
8.32993e-07
8.36978e-07
8.33739e-07
8.20503e-07
7.98413e-07
8.48882e-07
8.49761e-07
8.48565e-07
7.97465e-07
8.14655e-07
7.98953e-07
8.48378e-07
8.49086e-07
8.48316e-07
8.454e-07
8.15711e-07
7.99563e-07
8.32061e-07
8.37869e-07
8.34199e-07
8.36171e-07
8.34328e-07
8.36634e-07
8.3337e-07
8.19386e-07
8.01344e-07
8.49703e-07
8.51847e-07
8.50374e-07
7.97223e-07
8.12915e-07
8.04886e-07
8.49966e-07
8.46315e-07
8.38915e-07
8.3702e-07
8.10059e-07
8.04911e-07
8.35141e-07
8.38045e-07
8.37104e-07
8.39587e-07
8.35233e-07
8.385e-07
8.34373e-07
8.1911e-07
8.07926e-07
8.49994e-07
8.53661e-07
8.51837e-07
8.03338e-07
8.32954e-07
8.11455e-07
8.42303e-07
8.44961e-07
8.41394e-07
8.28354e-07
8.56116e-07
1.44958e-08
1.45544e-08
3.97385e-07
1.15086e-06
1.48106e-07
8.91713e-07
1.50138e-07
3.94316e-07
1.15435e-06
7.29661e-08
7.36753e-08
8.17093e-07
7.37289e-08
7.36888e-08
1.35981e-07
3.11327e-08
3.12784e-08
1.34693e-07
1.41309e-08
1.42446e-08
1.30168e-07
3.04911e-08
3.07879e-08
1.29925e-07
1.33386e-06
1.33676e-06
1.33394e-06
1.31962e-06
1.31715e-06
1.31679e-06
1.31953e-06
3.82641e-07
1.45616e-07
1.1111e-06
8.60429e-07
1.4715e-07
1.10844e-06
3.82396e-07
1.42817e-08
1.43126e-08
3.95932e-07
1.1366e-06
1.46373e-07
8.73346e-07
3.97232e-07
1.13139e-06
1.47199e-07
7.37873e-08
7.38749e-08
8.13806e-07
7.41421e-08
7.43368e-08
1.33444e-07
3.11026e-08
1.33678e-07
3.14559e-08
1.43415e-08
1.44039e-08
1.30352e-07
3.07165e-08
1.29634e-07
3.09341e-08
1.31107e-06
1.30865e-06
1.31358e-06
1.30022e-06
1.29863e-06
1.29745e-06
1.30193e-06
3.80703e-07
1.46538e-07
1.09955e-06
8.5148e-07
3.84128e-07
1.4783e-07
1.09674e-06
1.43507e-08
1.44407e-08
3.99199e-07
1.12206e-06
1.48816e-07
8.74877e-07
3.96843e-07
1.11968e-06
1.49199e-07
7.37764e-08
7.42567e-08
8.08716e-07
7.39642e-08
7.49505e-08
1.38272e-07
3.15734e-08
1.3634e-07
3.18698e-08
1.44486e-08
1.44884e-08
1.32339e-07
3.11119e-08
1.31241e-07
3.13475e-08
1.29316e-06
1.29363e-06
1.29682e-06
1.28694e-06
1.28311e-06
1.28492e-06
1.2845e-06
3.79593e-07
1.46682e-07
1.08832e-06
8.49305e-07
3.81657e-07
1.46471e-07
1.08586e-06
1.45141e-08
1.45324e-08
4.02637e-07
1.11238e-06
1.50753e-07
8.66091e-07
4.02858e-07
1.11026e-06
1.50876e-07
7.39551e-08
7.46065e-08
8.06299e-07
7.36506e-08
7.50406e-08
1.39422e-07
3.22659e-08
1.39027e-07
3.21622e-08
1.4534e-08
1.45796e-08
1.32553e-07
3.13181e-08
1.32713e-07
3.11846e-08
1.27877e-06
1.28142e-06
1.27987e-06
1.27663e-06
1.27101e-06
1.27302e-06
1.2701e-06
3.79178e-07
1.46437e-07
1.07858e-06
8.49143e-07
3.81305e-07
1.47051e-07
1.07692e-06
1.45301e-08
1.44804e-08
3.99291e-07
1.10367e-06
1.50556e-07
8.59069e-07
3.99056e-07
1.10172e-06
1.49535e-07
7.36975e-08
7.50375e-08
8.03895e-07
7.37442e-08
7.52495e-08
1.38621e-07
3.22975e-08
1.376e-07
3.21946e-08
1.45752e-08
1.46114e-08
1.31047e-07
3.09442e-08
1.32029e-07
3.07783e-08
1.26851e-06
1.26956e-06
1.2664e-06
1.26694e-06
1.26353e-06
1.26157e-06
1.25837e-06
3.76243e-07
1.45408e-07
1.07126e-06
8.47064e-07
3.7659e-07
1.46079e-07
1.06966e-06
1.44429e-08
1.44304e-08
3.98156e-07
1.09629e-06
1.50393e-07
8.59644e-07
3.99898e-07
1.09447e-06
1.48818e-07
7.28025e-08
7.44605e-08
8.01669e-07
7.32779e-08
7.42724e-08
1.37276e-07
3.20092e-08
1.37252e-07
3.18945e-08
1.45822e-08
1.45422e-08
1.31643e-07
3.0695e-08
1.3037e-07
3.06088e-08
1.26039e-06
1.25845e-06
1.25615e-06
1.2554e-06
1.25355e-06
1.25366e-06
1.2526e-06
3.74631e-07
1.45748e-07
1.06545e-06
8.40002e-07
3.76976e-07
1.46178e-07
1.06407e-06
1.43592e-08
1.43527e-08
3.96408e-07
1.08935e-06
1.48949e-07
8.58291e-07
3.96839e-07
1.08827e-06
1.48813e-07
7.26625e-08
7.37752e-08
7.99792e-07
7.30619e-08
7.45768e-08
1.37054e-07
3.20313e-08
1.36544e-07
3.20658e-08
1.45365e-08
1.44998e-08
1.31036e-07
3.068e-08
1.31171e-07
3.04782e-08
1.25164e-06
1.25051e-06
1.24929e-06
1.24921e-06
1.24647e-06
1.2477e-06
1.245e-06
3.74141e-07
1.44725e-07
1.06012e-06
8.38874e-07
3.75263e-07
1.44972e-07
1.05895e-06
1.43641e-08
1.43795e-08
3.95808e-07
1.08395e-06
1.48616e-07
8.56781e-07
3.93556e-07
1.08273e-06
1.47051e-07
7.23734e-08
7.36723e-08
7.99167e-07
7.30762e-08
7.4347e-08
1.38011e-07
3.16754e-08
1.37287e-07
3.17415e-08
1.43566e-08
1.43064e-08
1.30357e-07
3.03557e-08
1.30748e-07
3.05699e-08
1.24226e-06
1.24578e-06
1.24225e-06
1.24303e-06
1.23917e-06
1.24298e-06
1.23751e-06
3.71283e-07
1.43552e-07
1.05579e-06
8.38741e-07
3.71236e-07
1.44398e-07
1.05491e-06
1.44164e-08
1.44164e-08
3.93361e-07
1.0796e-06
1.46857e-07
8.5548e-07
3.94204e-07
1.07905e-06
1.47193e-07
7.21686e-08
7.37933e-08
7.97368e-07
7.30806e-08
7.37209e-08
1.38039e-07
3.17797e-08
1.37295e-07
3.15249e-08
1.41881e-08
1.41163e-08
1.30751e-07
3.06524e-08
1.30956e-07
3.06643e-08
1.23718e-06
1.2393e-06
1.23584e-06
1.23664e-06
1.23491e-06
1.23683e-06
1.23485e-06
3.75022e-07
1.44754e-07
1.05392e-06
8.40223e-07
3.76657e-07
1.44545e-07
1.05492e-06
1.43601e-08
1.43634e-08
3.92928e-07
1.07713e-06
1.46912e-07
8.53887e-07
3.96076e-07
1.07673e-06
1.47961e-07
7.24716e-08
7.33341e-08
7.9262e-07
7.32889e-08
7.36897e-08
1.3691e-07
3.16151e-08
1.36652e-07
3.1453e-08
1.41889e-08
1.42152e-08
1.30545e-07
3.0671e-08
1.30817e-07
3.05235e-08
1.23332e-06
1.23568e-06
1.23379e-06
1.23189e-06
1.23329e-06
1.23629e-06
1.2315e-06
3.7346e-07
1.44715e-07
1.05367e-06
8.34499e-07
3.77803e-07
1.4466e-07
1.05473e-06
1.43917e-08
1.43946e-08
3.94463e-07
1.07613e-06
1.47273e-07
8.5074e-07
3.93119e-07
1.07538e-06
1.48117e-07
7.29252e-08
7.34894e-08
7.95502e-07
7.36184e-08
7.38633e-08
1.36507e-07
3.16288e-08
1.36666e-07
3.14459e-08
1.4262e-08
1.42854e-08
1.31015e-07
3.04379e-08
1.30881e-07
3.05898e-08
1.23219e-06
1.23563e-06
1.22998e-06
1.22727e-06
1.23214e-06
1.23601e-06
1.22859e-06
3.75952e-07
1.43447e-07
1.05506e-06
8.38035e-07
3.77689e-07
1.44965e-07
1.05476e-06
1.43396e-08
1.43235e-08
3.94176e-07
1.07459e-06
1.47319e-07
8.53249e-07
3.93908e-07
1.07559e-06
1.47819e-07
7.3297e-08
7.26958e-08
7.97686e-07
7.308e-08
7.32193e-08
1.37041e-07
3.15715e-08
1.36151e-07
3.16269e-08
1.43334e-08
1.4325e-08
1.30787e-07
3.04489e-08
1.30037e-07
3.06328e-08
1.23112e-06
1.23431e-06
1.22741e-06
1.22673e-06
1.23068e-06
1.23404e-06
1.22732e-06
3.71707e-07
1.42946e-07
1.05441e-06
8.37543e-07
3.76027e-07
1.44341e-07
1.05331e-06
1.42515e-08
1.42532e-08
3.94444e-07
1.07429e-06
1.48075e-07
8.53152e-07
3.95828e-07
1.0737e-06
1.48485e-07
7.2449e-08
7.35976e-08
7.96046e-07
7.30854e-08
7.36996e-08
1.36615e-07
3.17639e-08
1.36295e-07
3.18014e-08
1.43748e-08
1.43899e-08
1.30475e-07
3.04863e-08
1.29294e-07
3.05603e-08
1.2301e-06
1.23058e-06
1.2256e-06
1.22459e-06
1.2311e-06
1.22906e-06
1.22601e-06
3.74282e-07
1.43471e-07
1.05342e-06
8.36849e-07
3.75789e-07
1.44222e-07
1.05345e-06
1.43058e-08
1.43201e-08
3.94933e-07
1.07432e-06
1.47602e-07
8.49795e-07
3.9575e-07
1.07429e-06
1.48464e-07
7.26272e-08
7.34719e-08
7.97356e-07
7.31747e-08
7.3876e-08
1.37107e-07
3.16848e-08
1.36424e-07
3.16142e-08
1.45301e-08
1.45763e-08
1.30872e-07
3.02777e-08
1.29785e-07
3.04684e-08
1.23004e-06
1.22694e-06
1.22465e-06
1.22596e-06
1.23028e-06
1.22683e-06
1.22576e-06
3.74844e-07
1.43731e-07
1.0536e-06
8.34988e-07
3.75961e-07
1.4302e-07
1.0525e-06
1.44346e-08
1.44216e-08
3.9297e-07
1.07414e-06
1.47719e-07
8.50305e-07
3.94719e-07
1.0736e-06
1.48075e-07
7.25386e-08
7.33882e-08
7.94786e-07
7.26345e-08
7.40012e-08
1.33346e-07
3.16859e-08
1.35881e-07
3.16241e-08
1.4667e-08
1.46542e-08
1.28404e-07
3.06675e-08
1.29292e-07
3.05253e-08
1.22952e-06
1.22586e-06
1.22428e-06
1.22555e-06
1.23472e-06
1.22482e-06
1.22368e-06
3.69751e-07
1.44139e-07
1.05365e-06
8.36381e-07
3.73069e-07
1.43811e-07
1.05128e-06
1.4321e-08
1.43247e-08
3.93381e-07
1.07436e-06
1.47545e-07
8.4888e-07
3.93249e-07
1.07429e-06
1.48033e-07
7.25657e-08
7.33974e-08
7.98837e-07
7.33126e-08
7.38894e-08
1.44471e-08
3.0781e-08
1.28872e-07
1.23352e-06
1.21781e-06
1.22126e-06
1.45352e-07
1.06665e-06
3.80651e-07
1.44175e-08
1.07212e-06
1.47333e-07
3.92604e-07
7.33295e-08
7.39001e-08
7.57779e-08
7.66284e-08
8.42247e-07
7.64665e-08
7.62775e-08
1.45392e-08
1.45152e-08
1.43045e-08
1.43728e-08
8.4658e-07
7.39125e-08
7.59446e-08
7.62468e-08
7.51874e-08
1.44934e-08
1.44969e-08
3.94519e-07
1.15203e-06
1.45216e-07
8.78825e-07
1.46938e-07
3.92549e-07
1.15134e-06
1.3543e-07
3.18862e-08
3.2152e-08
1.34573e-07
1.33624e-07
3.14039e-08
3.14133e-08
1.33065e-07
3.97688e-07
8.85186e-07
1.1428e-06
1.48326e-07
1.499e-07
3.97549e-07
1.14598e-06
3.93141e-07
8.76572e-07
1.14361e-06
1.46775e-07
1.45942e-07
3.94129e-07
1.14807e-06
1.33951e-07
3.20342e-08
3.2461e-08
1.35477e-07
1.33648e-07
3.15535e-08
3.14907e-08
1.35342e-07
1.41245e-08
1.41872e-08
1.41219e-08
1.41358e-08
8.32385e-07
7.42987e-08
7.43209e-08
7.39547e-08
7.35328e-08
1.42111e-08
1.42037e-08
1.41902e-08
1.4118e-08
1.41027e-08
1.41244e-08
1.39287e-08
1.40065e-08
7.3985e-08
7.21411e-08
8.09925e-07
7.3863e-08
7.27901e-08
1.42021e-08
1.41384e-08
1.41056e-08
1.40861e-08
8.28009e-07
7.46887e-08
7.34484e-08
7.39333e-08
7.28549e-08
1.34935e-07
3.12357e-08
3.1589e-08
1.3488e-07
3.95581e-07
1.46178e-07
1.13964e-06
8.68883e-07
1.47286e-07
1.13671e-06
3.96563e-07
3.94882e-07
1.47042e-07
1.13939e-06
8.72406e-07
1.48066e-07
1.13642e-06
3.96284e-07
1.35295e-07
3.12399e-08
3.17737e-08
1.33464e-07
1.34144e-07
3.19179e-08
3.20682e-08
1.34365e-07
3.99224e-07
8.68016e-07
1.47673e-07
1.13167e-06
1.46956e-07
1.13459e-06
3.99065e-07
3.99027e-07
8.7015e-07
1.49496e-07
1.13095e-06
1.4756e-07
1.13417e-06
3.98606e-07
7.39232e-08
7.47006e-08
8.13609e-07
7.4814e-08
7.53765e-08
1.43914e-08
1.44196e-08
1.4358e-08
1.42992e-08
8.34296e-07
7.51665e-08
7.57999e-08
7.48589e-08
7.52288e-08
1.44947e-08
1.44741e-08
3.75947e-07
1.42191e-07
1.09804e-06
8.53908e-07
1.43659e-07
1.09515e-06
3.76043e-07
1.30513e-07
3.14966e-08
3.1446e-08
1.2959e-07
3.73407e-07
1.0995e-06
1.43441e-07
8.57271e-07
1.09787e-06
1.44246e-07
3.74642e-07
1.2806e-07
3.09426e-08
3.12968e-08
1.29047e-07
3.75187e-07
8.54156e-07
1.43887e-07
1.08993e-06
1.44251e-07
1.09295e-06
3.75218e-07
1.30005e-07
3.15632e-08
3.19812e-08
1.30924e-07
3.78453e-07
8.57909e-07
1.0928e-06
1.45012e-07
1.09578e-06
1.44744e-07
3.77964e-07
1.33149e-07
3.12528e-08
3.14741e-08
1.35075e-07
3.80227e-07
1.10974e-06
1.45218e-07
8.58069e-07
1.10836e-06
1.45734e-07
3.84981e-07
1.34682e-07
3.09611e-08
3.11717e-08
1.3368e-07
3.84977e-07
8.57345e-07
1.47469e-07
1.1027e-06
1.4524e-07
1.10559e-06
3.83067e-07
1.33807e-07
3.17126e-08
3.20327e-08
1.34501e-07
3.8495e-07
8.57242e-07
1.10278e-06
1.46543e-07
1.1061e-06
1.44015e-07
3.82084e-07
1.33168e-07
3.13981e-08
3.14537e-08
1.34532e-07
7.39135e-08
7.5903e-08
8.12888e-07
7.41176e-08
7.56794e-08
1.45042e-08
1.44972e-08
1.43783e-08
1.43366e-08
8.31216e-07
7.4659e-08
7.64821e-08
7.3757e-08
7.61899e-08
1.45725e-08
1.45238e-08
3.98711e-07
1.13902e-06
1.47873e-07
8.70502e-07
3.98611e-07
1.13397e-06
1.48479e-07
1.35342e-07
3.23503e-08
1.35818e-07
3.17736e-08
1.36174e-07
3.17639e-08
1.34411e-07
3.13773e-08
3.93814e-07
8.76053e-07
1.12526e-06
1.49156e-07
1.12782e-06
1.47007e-07
3.94189e-07
3.98274e-07
8.69305e-07
1.12768e-06
1.47429e-07
1.13047e-06
1.48164e-07
3.95972e-07
1.36309e-07
3.21032e-08
3.21609e-08
1.35571e-07
1.35756e-07
3.1646e-08
3.18671e-08
1.36871e-07
1.41974e-08
1.41808e-08
1.42181e-08
1.42185e-08
8.29192e-07
7.43495e-08
7.46698e-08
7.36624e-08
7.41544e-08
1.42621e-08
1.41795e-08
1.42852e-08
1.41955e-08
1.42186e-08
1.42933e-08
1.41294e-08
1.41797e-08
7.47435e-08
7.33106e-08
8.09413e-07
7.50551e-08
7.39929e-08
1.44439e-08
1.434e-08
1.42651e-08
1.42299e-08
8.25597e-07
7.55979e-08
7.43209e-08
7.47287e-08
7.38434e-08
1.34561e-07
3.24456e-08
1.33775e-07
3.20692e-08
3.96179e-07
1.46919e-07
1.12913e-06
8.65347e-07
3.9942e-07
1.47569e-07
1.12624e-06
3.98591e-07
1.49277e-07
1.12824e-06
8.66564e-07
3.95604e-07
1.49374e-07
1.12516e-06
1.34681e-07
3.18888e-08
3.17688e-08
1.36657e-07
1.34182e-07
3.20291e-08
3.23658e-08
1.36655e-07
3.96379e-07
8.68296e-07
1.47889e-07
1.12107e-06
1.46925e-07
1.12394e-06
3.98458e-07
3.99889e-07
8.64047e-07
1.50353e-07
1.11993e-06
1.49357e-07
1.12287e-06
4.00232e-07
7.50475e-08
7.56979e-08
8.10844e-07
7.53685e-08
7.5964e-08
1.45408e-08
1.4465e-08
1.44897e-08
1.44258e-08
8.26443e-07
7.60202e-08
7.56503e-08
7.53424e-08
7.58315e-08
1.44652e-08
1.44955e-08
3.74034e-07
1.42823e-07
1.08759e-06
8.53312e-07
3.76499e-07
1.44815e-07
1.0852e-06
1.31372e-07
3.19239e-08
1.30492e-07
3.17976e-08
3.78283e-07
1.0902e-06
1.46289e-07
8.54505e-07
3.78288e-07
1.08805e-06
1.46876e-07
1.29824e-07
3.12125e-08
3.13328e-08
1.31144e-07
3.782e-07
8.53369e-07
1.45116e-07
1.08134e-06
1.44134e-07
1.08337e-06
3.76951e-07
1.31939e-07
3.18186e-08
3.23846e-08
1.31926e-07
3.77969e-07
8.51006e-07
1.08378e-06
1.458e-07
1.08574e-06
1.45492e-07
3.80421e-07
1.34268e-07
3.22927e-08
1.33704e-07
3.15584e-08
3.82359e-07
1.09995e-06
1.45736e-07
8.52545e-07
3.81716e-07
1.09659e-06
1.45314e-07
1.34518e-07
3.17632e-08
1.33815e-07
3.15224e-08
3.82901e-07
8.49688e-07
1.47972e-07
1.09113e-06
1.47204e-07
1.09393e-06
3.77472e-07
1.33395e-07
3.11842e-08
3.17005e-08
1.32584e-07
3.81419e-07
8.54609e-07
1.0911e-06
1.45447e-07
1.09427e-06
1.45415e-07
3.81879e-07
1.33793e-07
3.16538e-08
3.20408e-08
1.3429e-07
7.42153e-08
7.64205e-08
8.12596e-07
7.43175e-08
7.68349e-08
1.45823e-08
1.46249e-08
1.44931e-08
1.44543e-08
8.30938e-07
7.50954e-08
7.62692e-08
7.47195e-08
7.63562e-08
1.45666e-08
1.46036e-08
3.99902e-07
1.12486e-06
1.47118e-07
8.64308e-07
3.99458e-07
1.12194e-06
1.47932e-07
1.36879e-07
3.26674e-08
1.36779e-07
3.22063e-08
1.36499e-07
3.20516e-08
1.36466e-07
3.18251e-08
3.99981e-07
8.73927e-07
1.11481e-06
1.50152e-07
1.11703e-06
1.50179e-07
4.02184e-07
4.00472e-07
8.63109e-07
1.11649e-06
1.48049e-07
1.1194e-06
1.49086e-07
4.01889e-07
1.36337e-07
3.21037e-08
3.25277e-08
1.3844e-07
1.36315e-07
3.19467e-08
3.25434e-08
1.38638e-07
1.42796e-08
1.42622e-08
1.42609e-08
1.43253e-08
8.23511e-07
7.43035e-08
7.53245e-08
7.39965e-08
7.45851e-08
1.42843e-08
1.42969e-08
1.44072e-08
1.43325e-08
1.44579e-08
1.44869e-08
1.42855e-08
1.43068e-08
7.52846e-08
7.41704e-08
8.10206e-07
7.58602e-08
7.43211e-08
1.45376e-08
1.45377e-08
1.42387e-08
1.43079e-08
8.28044e-07
7.62259e-08
7.45783e-08
7.63196e-08
7.45787e-08
1.38115e-07
3.27178e-08
1.36307e-07
3.21946e-08
4.02023e-07
1.47295e-07
1.11883e-06
8.64648e-07
3.99939e-07
1.49961e-07
1.11615e-06
4.00131e-07
1.50102e-07
1.1173e-06
8.63806e-07
4.01103e-07
1.50106e-07
1.11493e-06
1.37987e-07
3.23715e-08
3.25526e-08
1.39428e-07
1.36418e-07
3.23344e-08
3.26611e-08
1.38361e-07
4.02245e-07
8.62013e-07
1.50929e-07
1.11134e-06
1.49935e-07
1.11402e-06
4.01382e-07
3.98947e-07
8.6248e-07
1.50709e-07
1.1097e-06
1.50004e-07
1.11232e-06
3.98201e-07
7.55758e-08
7.55123e-08
8.08149e-07
7.56068e-08
7.579e-08
1.44862e-08
1.44307e-08
1.45179e-08
1.45e-08
8.23317e-07
7.56709e-08
7.55626e-08
7.47792e-08
7.52879e-08
1.44479e-08
1.44484e-08
3.79066e-07
1.46252e-07
1.07964e-06
8.49942e-07
3.78068e-07
1.46099e-07
1.07777e-06
1.33266e-07
3.20443e-08
1.32438e-07
3.18259e-08
3.80356e-07
1.08194e-06
1.45163e-07
8.53059e-07
3.82454e-07
1.08033e-06
1.46436e-07
1.31479e-07
3.16398e-08
3.18478e-08
1.32418e-07
3.80905e-07
8.51086e-07
1.47108e-07
1.07501e-06
1.46693e-07
1.07671e-06
3.80007e-07
1.32671e-07
3.18732e-08
3.24683e-08
1.33045e-07
3.81562e-07
8.53542e-07
1.07718e-06
1.47273e-07
1.07905e-06
1.47176e-07
3.80601e-07
1.33652e-07
3.16558e-08
1.33463e-07
3.13631e-08
3.77606e-07
1.08868e-06
1.4647e-07
8.48418e-07
3.8271e-07
1.08631e-06
1.44846e-07
1.33822e-07
3.21732e-08
1.33519e-07
3.16621e-08
3.77376e-07
8.48764e-07
1.47144e-07
1.08106e-06
1.46132e-07
1.08328e-06
3.7963e-07
1.32827e-07
3.15163e-08
3.17426e-08
1.33325e-07
3.80963e-07
8.46428e-07
1.08202e-06
1.45711e-07
1.08414e-06
1.45371e-07
3.78815e-07
1.32982e-07
3.1448e-08
3.22608e-08
1.3335e-07
7.49505e-08
7.66792e-08
8.1409e-07
7.56479e-08
7.67473e-08
1.45763e-08
1.45467e-08
1.45193e-08
1.45617e-08
8.32103e-07
7.53858e-08
7.67566e-08
7.53479e-08
7.63535e-08
1.45414e-08
1.45191e-08
4.02402e-07
1.11391e-06
1.48984e-07
8.57917e-07
4.02953e-07
1.11117e-06
1.49687e-07
1.39078e-07
3.24319e-08
1.38753e-07
3.22209e-08
1.39255e-07
3.21858e-08
1.38294e-07
3.18151e-08
4.00601e-07
8.62586e-07
1.10583e-06
1.51102e-07
1.1081e-06
1.50169e-07
4.01096e-07
4.03165e-07
8.60193e-07
1.10596e-06
1.50347e-07
1.10883e-06
1.48854e-07
3.98796e-07
1.39108e-07
3.21258e-08
3.27527e-08
1.38094e-07
1.38708e-07
3.19641e-08
3.25597e-08
1.38255e-07
1.43113e-08
1.42564e-08
1.4407e-08
1.43585e-08
8.23258e-07
7.40768e-08
7.5451e-08
7.29779e-08
7.45486e-08
1.4225e-08
1.42315e-08
1.44029e-08
1.43298e-08
1.45942e-08
1.45231e-08
1.42278e-08
1.41686e-08
7.60821e-08
7.36399e-08
8.08728e-07
7.59288e-08
7.38106e-08
1.45127e-08
1.45338e-08
1.42019e-08
1.41996e-08
8.26176e-07
7.61146e-08
7.40445e-08
7.63599e-08
7.34373e-08
1.38545e-07
3.29096e-08
1.36778e-07
3.23087e-08
4.03384e-07
1.50104e-07
1.10909e-06
8.54685e-07
4.02259e-07
1.51549e-07
1.10663e-06
4.01768e-07
1.49307e-07
1.10697e-06
8.6015e-07
4.02228e-07
1.49537e-07
1.10464e-06
1.39253e-07
3.24386e-08
3.27156e-08
1.3801e-07
1.37181e-07
3.21283e-08
3.26591e-08
1.38692e-07
4.04202e-07
8.57105e-07
1.51617e-07
1.1025e-06
1.50989e-07
1.10484e-06
4.02431e-07
4.01695e-07
8.56676e-07
1.50971e-07
1.09979e-06
1.50455e-07
1.1021e-06
3.97531e-07
7.57993e-08
7.47197e-08
8.07516e-07
7.63903e-08
7.56493e-08
1.44013e-08
1.44566e-08
1.45561e-08
1.45827e-08
8.22574e-07
7.66745e-08
7.51607e-08
7.62508e-08
7.55981e-08
1.44043e-08
1.44715e-08
3.77731e-07
1.46569e-07
1.07408e-06
8.47636e-07
3.81017e-07
1.46222e-07
1.07242e-06
1.33188e-07
3.24935e-08
1.32137e-07
3.17634e-08
3.81112e-07
1.07589e-06
1.46787e-07
8.47461e-07
3.80639e-07
1.07442e-06
1.48735e-07
1.3221e-07
3.12533e-08
3.15613e-08
1.32758e-07
3.8196e-07
8.4988e-07
1.46343e-07
1.07015e-06
1.45437e-07
1.07161e-06
3.79259e-07
1.31746e-07
3.1702e-08
3.2205e-08
1.32841e-07
3.80554e-07
8.49021e-07
1.07179e-06
1.46941e-07
1.07336e-06
1.47282e-07
3.80153e-07
1.31773e-07
3.20101e-08
1.32412e-07
3.15844e-08
3.79002e-07
1.0801e-06
1.44748e-07
8.43073e-07
3.78637e-07
1.07841e-06
1.45312e-07
1.32584e-07
3.21172e-08
1.32964e-07
3.11775e-08
3.77893e-07
8.49234e-07
1.46416e-07
1.07319e-06
1.46147e-07
1.07481e-06
3.75245e-07
1.30714e-07
3.15109e-08
3.19903e-08
1.31495e-07
3.77406e-07
8.39262e-07
1.07492e-06
1.45539e-07
1.07675e-06
1.4425e-07
3.72962e-07
1.32308e-07
3.12581e-08
3.18726e-08
1.30936e-07
7.52377e-08
7.65074e-08
8.11672e-07
7.54697e-08
7.68006e-08
1.4587e-08
1.4536e-08
1.44533e-08
1.45162e-08
8.29518e-07
7.52556e-08
7.64462e-08
7.52685e-08
7.62528e-08
1.45508e-08
1.45782e-08
3.97938e-07
1.10359e-06
1.50092e-07
8.60625e-07
3.9648e-07
1.10114e-06
1.49048e-07
1.3741e-07
3.26974e-08
1.37126e-07
3.20137e-08
1.3863e-07
3.24634e-08
1.39121e-07
3.20159e-08
4.00369e-07
8.59585e-07
1.09793e-06
1.50807e-07
1.09993e-06
1.48919e-07
3.99734e-07
3.96825e-07
8.60817e-07
1.09698e-06
1.4887e-07
1.09932e-06
1.49978e-07
3.99724e-07
1.37119e-07
3.18683e-08
3.23437e-08
1.37686e-07
1.36577e-07
3.16541e-08
3.2309e-08
1.37257e-07
1.42306e-08
1.41664e-08
1.44004e-08
1.43817e-08
8.21481e-07
7.3716e-08
7.50122e-08
7.35719e-08
7.50526e-08
1.41437e-08
1.41714e-08
1.43119e-08
1.43956e-08
1.46035e-08
1.45091e-08
1.42311e-08
1.41913e-08
7.63579e-08
7.38967e-08
8.06232e-07
7.61892e-08
7.44346e-08
1.45597e-08
1.45357e-08
1.41561e-08
1.42333e-08
8.24132e-07
7.67684e-08
7.37499e-08
7.59862e-08
7.42003e-08
1.38419e-07
3.23751e-08
1.37975e-07
3.20859e-08
4.00667e-07
1.51064e-07
1.1006e-06
8.57694e-07
4.00638e-07
1.50728e-07
1.09858e-06
3.95092e-07
1.50397e-07
1.09757e-06
8.5692e-07
4.00202e-07
1.50724e-07
1.09571e-06
1.38281e-07
3.2301e-08
3.2362e-08
1.38888e-07
1.38387e-07
3.20881e-08
3.22797e-08
1.37641e-07
4.00133e-07
8.58161e-07
1.49044e-07
1.09485e-06
1.49768e-07
1.09696e-06
4.00316e-07
3.98364e-07
8.57492e-07
1.50851e-07
1.09235e-06
1.50491e-07
1.09413e-06
3.94769e-07
7.60651e-08
7.48121e-08
8.06034e-07
7.67325e-08
7.53281e-08
1.44128e-08
1.4405e-08
1.45643e-08
1.46336e-08
8.2173e-07
7.64731e-08
7.51745e-08
7.66113e-08
7.51953e-08
1.44114e-08
1.44311e-08
3.79079e-07
1.4551e-07
1.06905e-06
8.45175e-07
3.80416e-07
1.45918e-07
1.06755e-06
1.31808e-07
3.21688e-08
1.32682e-07
3.16259e-08
3.78804e-07
1.07039e-06
1.47718e-07
8.47318e-07
3.81703e-07
1.069e-06
1.46484e-07
1.30311e-07
3.08084e-08
3.12194e-08
1.31359e-07
3.78346e-07
8.43829e-07
1.45476e-07
1.06486e-06
1.45743e-07
1.06635e-06
3.78299e-07
1.30367e-07
3.16443e-08
3.20765e-08
1.29844e-07
3.79565e-07
8.44983e-07
1.06628e-06
1.44515e-07
1.06797e-06
1.44996e-07
3.75392e-07
1.30514e-07
3.19187e-08
1.30338e-07
3.14252e-08
3.75362e-07
1.0734e-06
1.44681e-07
8.4125e-07
3.77363e-07
1.07178e-06
1.44765e-07
1.31566e-07
3.16965e-08
1.31539e-07
3.12708e-08
3.76967e-07
8.47325e-07
1.45483e-07
1.06667e-06
1.45471e-07
1.06831e-06