/*--------------------------------*- C++ -*----------------------------------*\
| =========                 |                                                 |
| \\      /  F ield         | OpenFOAM: The Open Source CFD Toolbox           |
|  \\    /   O peration     | Version:  2206                                  |
|   \\  /    A nd           | Website:  www.openfoam.com                      |
|    \\/     M anipulation  |                                                 |
\*---------------------------------------------------------------------------*/
FoamFile
{
    version     2.0;
    format      ascii;
    arch        "LSB;label=32;scalar=64";
    class       volScalarField;
    location    "50";
    object      p;
}
// * * * * * * * * * * * * * * * * * * * * * * * * * * * * * * * * * * * * * //

dimensions      [0 2 -2 0 0 0 0];

internalField   nonuniform List<scalar> 
66701
(
-0.00751989
-0.00752008
-0.00751988
-0.00751984
-0.00752002
-0.00751982
-0.00751982
-0.00752001
-0.00752012
-0.00751996
-0.00751989
-0.00752003
-0.00751984
-0.00752002
-0.00751986
-0.00751998
-0.00751996
-0.00751997
-0.00751998
-0.00751998
-0.00751999
-0.00752007
-0.00752007
-0.00752008
-0.00752009
-0.0075201
-0.00752006
-0.00752007
-0.00752007
-0.00752008
-0.00752009
-0.00752014
-0.00752014
-0.00752015
-0.00752016
-0.00752017
-0.00752004
-0.00752005
-0.00752006
-0.00752006
-0.00752007
-0.00752011
-0.00752011
-0.00752012
-0.00752012
-0.00752013
-0.00752004
-0.00752004
-0.00752004
-0.00752005
-0.00752005
-0.00752004
-0.00752004
-0.00752004
-0.00752005
-0.00752006
-0.00752005
-0.00752006
-0.00752006
-0.00752007
-0.00752008
-0.00752005
-0.00752005
-0.00752005
-0.00752006
-0.00752007
-0.00746628
-0.00746647
-0.0074665
-0.00746647
-0.00746652
-0.00746653
-0.00747925
-0.00746723
-0.00746635
-0.00746646
-0.00746736
-0.00747951
-0.00746717
-0.0074795
-0.00746636
-0.00746654
-0.00746737
-0.00747963
-0.00747958
-0.00746725
-0.00746658
-0.00746658
-0.00746665
-0.00749242
-0.00749235
-0.0074664
-0.00746646
-0.00746622
-0.00749213
-0.00749219
-0.00749213
-0.00746661
-0.00746604
-0.00749187
-0.00746641
-0.00749188
-0.00749238
-0.0074922
-0.00746665
-0.0074661
-0.00749229
-0.00746641
-0.0074921
-0.00749261
-0.00749247
-0.00746636
-0.00746659
-0.00749267
-0.0074666
-0.00749263
-0.0074925
-0.00749237
-0.00746641
-0.00749249
-0.00746667
-0.00749255
-0.0074925
-0.00746661
-0.00746639
-0.0074927
-0.00746663
-0.00749251
-0.00749268
-0.00749243
-0.00746647
-0.00749258
-0.00746671
-0.00749263
-0.00749253
-0.00749258
-0.00749241
-0.00749236
-0.00749243
-0.00746627
-0.00749242
-0.00749275
-0.00749226
-0.00749236
-0.00749223
-0.00749216
-0.00749268
-0.00749235
-0.00747952
-0.00747968
-0.00747971
-0.00748011
-0.00747952
-0.00747966
-0.00747973
-0.00748012
-0.00747982
-0.00748017
-0.0074799
-0.00748023
-0.00749077
-0.00749235
-0.00746687
-0.00746691
-0.00746793
-0.00749171
-0.00749183
-0.00749214
-0.00746735
-0.00746582
-0.007491
-0.0074925
-0.00746618
-0.00749076
-0.007493
-0.00746736
-0.0074659
-0.00749166
-0.00746595
-0.00749164
-0.0074931
-0.00749291
-0.00746728
-0.00746578
-0.00749171
-0.00749298
-0.00746594
-0.00749161
-0.00749306
-0.00746592
-0.00746738
-0.00749169
-0.00746601
-0.00749311
-0.00749168
-0.00749298
-0.00746735
-0.0074659
-0.00749182
-0.00746605
-0.00749171
-0.00749309
-0.007491
-0.00749255
-0.00746709
-0.007492
-0.00749198
-0.00746618
-0.00746617
-0.00746618
-0.00746619
-0.00746619
-0.00746654
-0.00746655
-0.00746655
-0.00746656
-0.00746657
-0.00746631
-0.0074663
-0.00746632
-0.00746633
-0.00746635
-0.00746665
-0.00746666
-0.00746666
-0.00746667
-0.00746668
-0.00746673
-0.00746674
-0.00746674
-0.00746675
-0.00746676
-0.00746665
-0.00746665
-0.00746666
-0.00746667
-0.00746667
-0.00749236
-0.00749236
-0.00749235
-0.00749234
-0.00749233
-0.00749246
-0.00749247
-0.00749246
-0.00749246
-0.00749245
-0.00746661
-0.00746661
-0.00746662
-0.00746663
-0.00746663
-0.00746662
-0.00746662
-0.00746662
-0.00746663
-0.00746664
-0.0074925
-0.00749249
-0.00749249
-0.00749248
-0.00749248
-0.00749235
-0.00749235
-0.00749234
-0.00749234
-0.00749233
-0.00749249
-0.00749249
-0.00749249
-0.00749248
-0.00749248
-0.00746663
-0.00746662
-0.00746663
-0.00746664
-0.00746664
-0.00746664
-0.00746663
-0.00746664
-0.00746665
-0.00746666
-0.00749251
-0.00749251
-0.0074925
-0.0074925
-0.00749249
-0.00749243
-0.00749242
-0.00749242
-0.00749241
-0.0074924
-0.00749249
-0.00749248
-0.00749248
-0.00749247
-0.00749246
-0.0074923
-0.00749232
-0.00749231
-0.0074923
-0.00749229
-0.00749234
-0.00749235
-0.00749234
-0.00749233
-0.00749232
-0.00746636
-0.00746635
-0.00746635
-0.00746636
-0.00746636
-0.00746638
-0.00746638
-0.0074664
-0.00746641
-0.00746643
-0.00749191
-0.00749193
-0.00749192
-0.00749191
-0.00749189
-0.00746648
-0.00746649
-0.0074665
-0.00746651
-0.00746652
-0.00746656
-0.00746655
-0.00746655
-0.00746656
-0.00746657
-0.00749225
-0.00749226
-0.00749226
-0.00749225
-0.00749224
-0.00749214
-0.00749215
-0.00749215
-0.00749214
-0.00749213
-0.00749219
-0.00749219
-0.00749219
-0.00749218
-0.00749217
-0.00749238
-0.00749239
-0.00749238
-0.00749237
-0.00749236
-0.00746666
-0.00746666
-0.00746666
-0.00746667
-0.00746668
-0.00749243
-0.00749244
-0.00749244
-0.00749243
-0.00749242
-0.0074667
-0.0074667
-0.0074667
-0.00746671
-0.00746672
-0.00749239
-0.0074924
-0.0074924
-0.00749239
-0.00749238
-0.00749241
-0.00749242
-0.00749241
-0.0074924
-0.00749239
-0.00749237
-0.00749238
-0.00749237
-0.00749236
-0.00749235
-0.00395182
-0.00393907
-0.00416668
-0.0041667
-0.00416676
-0.0041537
-0.00438074
-0.00438078
-0.00438071
-0.00436775
-0.00459459
-0.00459468
-0.00459458
-0.00458165
-0.00480877
-0.00480877
-0.00480876
-0.00479577
-0.00502286
-0.00502282
-0.00502288
-0.00500984
-0.00523683
-0.0052368
-0.00523686
-0.00522381
-0.00545087
-0.00545086
-0.0054509
-0.00543787
-0.00566473
-0.00566472
-0.00566476
-0.00565174
-0.00587859
-0.00587859
-0.00587861
-0.0058656
-0.00609243
-0.00609246
-0.00609244
-0.00607946
-0.00630618
-0.00630621
-0.0063062
-0.00629322
-0.00651976
-0.00651979
-0.00651978
-0.00650681
-0.00673314
-0.00673316
-0.00673318
-0.00672023
-0.00694626
-0.00694627
-0.00694627
-0.00693331
-0.00715947
-0.00715946
-0.00715943
-0.00714643
-0.00737254
-0.00737254
-0.00737256
-0.00735957
-0.00393933
-0.00412626
-0.00395207
-0.00411361
-0.00411327
-0.00412612
-0.00415379
-0.00434011
-0.00416678
-0.00416676
-0.00432724
-0.00432727
-0.00415374
-0.00434017
-0.00416669
-0.00416664
-0.00432719
-0.00432715
-0.00416666
-0.00432724
-0.00432721
-0.00415372
-0.00434009
-0.00416671
-0.00432724
-0.00432728
-0.00434016
-0.00436769
-0.00455395
-0.00438071
-0.00438078
-0.00454111
-0.00454122
-0.00436777
-0.0045541
-0.00438066
-0.00438062
-0.00454105
-0.00454104
-0.00438073
-0.0045412
-0.00454119
-0.00436767
-0.00455396
-0.00438072
-0.0045411
-0.0045412
-0.00455408
-0.00458155
-0.00476813
-0.00459455
-0.00459462
-0.00475524
-0.00475527
-0.00458168
-0.00476817
-0.00459449
-0.00459445
-0.00475521
-0.0047552
-0.00459459
-0.00475526
-0.00475527
-0.00458153
-0.00476813
-0.00459461
-0.00475523
-0.00475529
-0.00476817
-0.00479575
-0.00498228
-0.00480872
-0.0048087
-0.00496939
-0.00496936
-0.00479576
-0.00498224
-0.00480871
-0.00480867
-0.0049694
-0.0049694
-0.00480871
-0.00496934
-0.00496937
-0.00479574
-0.00498231
-0.00480872
-0.0049694
-0.0049694
-0.00498228
-0.00500986
-0.00519626
-0.00502282
-0.00502276
-0.00518337
-0.00518333
-0.00500982
-0.00519621
-0.00502284
-0.00502282
-0.00518339
-0.00518339
-0.00502277
-0.00518331
-0.00518333
-0.00500988
-0.00519628
-0.0050228
-0.00518338
-0.00518336
-0.00519623
-0.00522385
-0.00541032
-0.0052368
-0.00523675
-0.00539742
-0.00539739
-0.00522381
-0.00541028
-0.00523682
-0.0052368
-0.00539743
-0.00539742
-0.00523673
-0.00539737
-0.00539738
-0.00522386
-0.00541032
-0.00523676
-0.00539741
-0.00539741
-0.00541028
-0.00543791
-0.00562421
-0.00545086
-0.00545082
-0.00561135
-0.00561133
-0.00543787
-0.00562419
-0.00545088
-0.00545084
-0.00561135
-0.00561134
-0.00545079
-0.0056113
-0.00561132
-0.00543791
-0.00562422
-0.00545083
-0.00561134
-0.00561136
-0.0056242
-0.00565176
-0.00583801
-0.00566471
-0.00566468
-0.00582514
-0.00582515
-0.00565174
-0.00583801
-0.00566471
-0.00566468
-0.00582513
-0.00582512
-0.00566466
-0.00582511
-0.00582512
-0.00565176
-0.00583801
-0.00566469
-0.00582513
-0.00582516
-0.00583801
-0.00586561
-0.00605193
-0.00587857
-0.00587856
-0.00603906
-0.00603908
-0.00586561
-0.00605195
-0.00587856
-0.00587853
-0.00603904
-0.00603903
-0.00587853
-0.00603904
-0.00603904
-0.0058656
-0.00605192
-0.00587856
-0.00603904
-0.00603906
-0.00605192
-0.00607947
-0.00626565
-0.00609242
-0.00609242
-0.00625278
-0.00625279
-0.00607949
-0.00626568
-0.0060924
-0.00609236
-0.00625277
-0.00625274
-0.00609237
-0.00625277
-0.00625275
-0.00607945
-0.00626563
-0.0060924
-0.00625275
-0.00625278
-0.00626565
-0.00629324
-0.00647932
-0.00630619
-0.00630617
-0.00646647
-0.00646646
-0.00629325
-0.00647932
-0.00630617
-0.00630612
-0.00646647
-0.00646644
-0.00630612
-0.00646644
-0.00646644
-0.00629322
-0.00647931
-0.00630614
-0.00646644
-0.00646646
-0.00647931
-0.00650684
-0.0066927
-0.00651977
-0.00651974
-0.00667985
-0.00667985
-0.00650684
-0.0066927
-0.00651976
-0.00651972
-0.00667985
-0.00667984
-0.00651972
-0.00667983
-0.00667985
-0.00650682
-0.00669271
-0.00651973
-0.00667985
-0.00667987
-0.00669273
-0.00672025
-0.00690582
-0.00673315
-0.00673312
-0.00689301
-0.00689299
-0.00672023
-0.0069058
-0.00673314
-0.0067331
-0.006893
-0.006893
-0.00673311
-0.00689297
-0.00689299
-0.00672022
-0.00690584
-0.00673313
-0.006893
-0.00689303
-0.00690583
-0.00693335
-0.00711893
-0.00694626
-0.00694623
-0.00710615
-0.00710615
-0.00693335
-0.00711894
-0.00694624
-0.00694621
-0.00710612
-0.00710608
-0.00694621
-0.00710611
-0.00710608
-0.00693332
-0.00711893
-0.00694623
-0.0071061
-0.00710611
-0.00711893
-0.00714654
-0.00733212
-0.00715948
-0.00715948
-0.00731968
-0.00731959
-0.00714657
-0.00733211
-0.00715941
-0.00715935
-0.00731941
-0.00731945
-0.00715936
-0.00731933
-0.00731933
-0.00714644
-0.00733229
-0.00715936
-0.00731939
-0.00731944
-0.00733224
-0.00737225
-0.00735968
-0.00737242
-0.00737242
-0.00737235
-0.00735959
-0.00737246
-0.00393912
-0.00401873
-0.00401772
-0.003952
-0.00394009
-0.00400596
-0.00401803
-0.00394037
-0.00400597
-0.00393908
-0.00393941
-0.0040188
-0.00401858
-0.00401881
-0.00423312
-0.00415398
-0.00423318
-0.004154
-0.00415381
-0.00423317
-0.00423341
-0.0041539
-0.00423328
-0.0041537
-0.00416675
-0.00416666
-0.00416674
-0.00432723
-0.00432727
-0.00432721
-0.00432723
-0.00423223
-0.00415429
-0.00416664
-0.0042201
-0.00423241
-0.00422003
-0.0041544
-0.0041539
-0.00423324
-0.00423199
-0.00416668
-0.00415471
-0.00422016
-0.00415503
-0.00422007
-0.0042323
-0.0041536
-0.0041539
-0.00423306
-0.00423305
-0.00423302
-0.00444694
-0.00436777
-0.00436789
-0.00444698
-0.00436782
-0.00444703
-0.00444713
-0.00436756
-0.00436747
-0.00444703
-0.0043808
-0.00438071
-0.00438074
-0.0045411
-0.00454123
-0.00454113
-0.00454122
-0.00444628
-0.00436839
-0.00438073
-0.00443421
-0.00436856
-0.00444648
-0.00443417
-0.00436758
-0.004447
-0.00444585
-0.00438069
-0.00436856
-0.00443411
-0.00436892
-0.0044341
-0.00444614
-0.00436774
-0.00436788
-0.00444711
-0.00444705
-0.00444692
-0.00466089
-0.00458167
-0.00458176
-0.00466096
-0.00458171
-0.00466101
-0.00466112
-0.00458143
-0.00458131
-0.00466103
-0.0045946
-0.00459452
-0.00459457
-0.00475523
-0.00475529
-0.00475527
-0.0047553
-0.00466026
-0.00458234
-0.00459462
-0.00464816
-0.00458252
-0.00466042
-0.00464812
-0.00458146
-0.00466101
-0.00465984
-0.00459457
-0.00458244
-0.00464808
-0.00458281
-0.00464807
-0.00466011
-0.00458168
-0.00458178
-0.0046611
-0.00466104
-0.00466088
-0.00487503
-0.00479579
-0.00479587
-0.00487511
-0.0047958
-0.00487509
-0.00487542
-0.00479564
-0.00479555
-0.00487527
-0.00480871
-0.00480871
-0.00480869
-0.00496938
-0.00496938
-0.00496941
-0.00496939
-0.00487438
-0.00479642
-0.00480872
-0.00486227
-0.00479661
-0.00487456
-0.00486224
-0.00479569
-0.00487527
-0.004874
-0.00480871
-0.0047966
-0.00486227
-0.00479693
-0.00486223
-0.0048743
-0.00479577
-0.00479588
-0.00487523
-0.00487515
-0.00487501
-0.00508904
-0.0050099
-0.00500993
-0.00508914
-0.00500986
-0.00508913
-0.00508946
-0.00500981
-0.00500971
-0.00508933
-0.00502277
-0.00502281
-0.00502276
-0.00518335
-0.00518335
-0.00518339
-0.00518336
-0.00508836
-0.00501048
-0.00502277
-0.00507626
-0.00501066
-0.00508851
-0.00507624
-0.00500984
-0.00508931
-0.00508803
-0.0050228
-0.00501073
-0.00507634
-0.00501105
-0.00507627
-0.00508835
-0.00500984
-0.00500995
-0.00508923
-0.00508916
-0.00508903
-0.00530308
-0.00522386
-0.00522393
-0.00530317
-0.00522383
-0.00530314
-0.00530348
-0.00522378
-0.00522367
-0.00530335
-0.00523674
-0.00523678
-0.00523672
-0.00539737
-0.00539739
-0.00539741
-0.00539739
-0.00530238
-0.00522444
-0.00523674
-0.00529028
-0.00522464
-0.00530258
-0.00529024
-0.00522381
-0.00530334
-0.00530203
-0.00523678
-0.00522469
-0.00529032
-0.00522503
-0.00529026
-0.00530236
-0.00522381
-0.00522394
-0.00530322
-0.00530318
-0.00530305
-0.00551713
-0.00543798
-0.00543803
-0.0055172
-0.00543795
-0.0055172
-0.0055175
-0.00543787
-0.00543777
-0.00551738
-0.00545079
-0.0054508
-0.00545076
-0.00561131
-0.00561133
-0.00561135
-0.00561134
-0.0055164
-0.00543854
-0.0054508
-0.00550431
-0.00543871
-0.00551658
-0.00550426
-0.00543793
-0.00551737
-0.00551608
-0.00545082
-0.0054388
-0.00550436
-0.00543909
-0.0055043
-0.0055164
-0.00543791
-0.00543803
-0.00551729
-0.00551723
-0.0055171
-0.00573086
-0.00565177
-0.00565186
-0.00573093
-0.00565175
-0.00573091
-0.00573119
-0.00565165
-0.00565156
-0.00573107
-0.00566466
-0.00566468
-0.00566464
-0.00582512
-0.00582515
-0.00582515
-0.00582515
-0.00573017
-0.00565236
-0.00566466
-0.00571812
-0.00565255
-0.00573037
-0.00571808
-0.00565168
-0.00573105
-0.00572984
-0.00566469
-0.0056526
-0.00571814
-0.00565295
-0.0057181
-0.00573013
-0.00565173
-0.00565186
-0.00573105
-0.00573096
-0.00573085
-0.00594487
-0.00586566
-0.00586574
-0.00594493
-0.00586565
-0.00594496
-0.00594517
-0.00586551
-0.00586541
-0.00594506
-0.00587853
-0.00587853
-0.0058785
-0.00603901
-0.00603906
-0.00603904
-0.00603904
-0.00594415
-0.00586625
-0.00587853
-0.00593205
-0.00586643
-0.00594432
-0.005932
-0.00586553
-0.00594503
-0.0059438
-0.00587856
-0.00586647
-0.00593206
-0.00586682
-0.00593202
-0.00594411
-0.00586561
-0.00586573
-0.00594501
-0.00594495
-0.00594483
-0.00615862
-0.00607956
-0.00607964
-0.00615869
-0.00607956
-0.00615869
-0.0061589
-0.00607939
-0.00607928
-0.0061588
-0.00609238
-0.00609235
-0.00609234
-0.00625274
-0.00625278
-0.00625276
-0.00625277
-0.0061579
-0.00608015
-0.00609239
-0.00614585
-0.00608031
-0.0061581
-0.00614579
-0.00607942
-0.00615878
-0.00615752
-0.00609238
-0.00608033
-0.00614581
-0.00608067
-0.00614577
-0.00615784
-0.00607949
-0.00607961
-0.00615874
-0.00615869
-0.00615856
-0.00637246
-0.00629332
-0.0062934
-0.00637251
-0.00629333
-0.00637256
-0.00637275
-0.00629315
-0.00629305
-0.00637265
-0.00630612
-0.0063061
-0.00630608
-0.00646641
-0.00646644
-0.00646644
-0.00646644
-0.0063717
-0.00629391
-0.00630614
-0.00635961
-0.00629408
-0.00637189
-0.00635954
-0.00629319
-0.00637262
-0.00637134
-0.00630613
-0.0062941
-0.0063596
-0.00629443
-0.00635955
-0.00637166
-0.00629324
-0.00629337
-0.00637254
-0.00637253
-0.00637239
-0.00658581
-0.00650692
-0.00650699
-0.0065859
-0.00650692
-0.00658587
-0.00658615
-0.00650678
-0.00650666
-0.00658603
-0.0065197
-0.00651969
-0.00651967
-0.00667982
-0.00667985
-0.00667985
-0.00667986
-0.00658513
-0.00650751
-0.00651972
-0.00657308
-0.00650769
-0.00658533
-0.00657304
-0.0065068
-0.00658601
-0.00658476
-0.00651971
-0.00650771
-0.00657308
-0.00650803
-0.00657303
-0.00658507
-0.00650686
-0.00650699
-0.006586
-0.00658594
-0.00658581
-0.00679915
-0.0067203
-0.00672038
-0.00679922
-0.0067203
-0.00679925
-0.00679951
-0.00672017
-0.00672007
-0.0067994
-0.00673307
-0.00673308
-0.00673306
-0.00689299
-0.00689301
-0.00689301
-0.00689301
-0.00679844
-0.00672089
-0.0067331
-0.00678639
-0.00672107
-0.0067986
-0.00678635
-0.0067202
-0.00679938
-0.00679811
-0.00673311
-0.00672111
-0.00678642
-0.00672145
-0.00678637
-0.00679842
-0.00672025
-0.00672037
-0.00679933
-0.00679926
-0.00679914
-0.00701223
-0.0069334
-0.00693346
-0.00701229
-0.0069334
-0.00701228
-0.00701255
-0.00693325
-0.00693314
-0.00701245
-0.0069462
-0.0069462
-0.00694618
-0.00710612
-0.00710613
-0.00710609
-0.00710609
-0.00701153
-0.00693399
-0.00694621
-0.00699949
-0.00693414
-0.00701172
-0.00699944
-0.00693328
-0.00701241
-0.00701116
-0.0069462
-0.00693419
-0.00699948
-0.00693452
-0.00699945
-0.00701147
-0.00693333
-0.00693345
-0.00701237
-0.00701233
-0.00701219
-0.00722548
-0.00714666
-0.00714672
-0.00722516
-0.00714667
-0.00722538
-0.00722564
-0.00714641
-0.00714628
-0.00722553
-0.00715942
-0.00715937
-0.00715935
-0.00731929
-0.00731938
-0.00731926
-0.00731925
-0.00722461
-0.00714718
-0.0071594
-0.00721266
-0.00714732
-0.00722481
-0.00721257
-0.00714639
-0.00722554
-0.00722432
-0.00715934
-0.00714733
-0.00721263
-0.00714768
-0.00721261
-0.0072246
-0.00714649
-0.00714659
-0.0072255
-0.00722547
-0.00722534
-0.00735979
-0.00735959
-0.00735944
-0.00737242
-0.0073725
-0.00737242
-0.00736024
-0.00737249
-0.00736044
-0.00735972
-0.0073725
-0.0073605
-0.00736098
-0.00735967
-0.00735985
-0.00393935
-0.00393953
-0.00401889
-0.00401865
-0.0040188
-0.00393932
-0.00401888
-0.00412646
-0.00404659
-0.00404736
-0.00412622
-0.0041261
-0.00404692
-0.00404682
-0.00412631
-0.00404675
-0.0040177
-0.00395206
-0.00394011
-0.00400577
-0.00401796
-0.00394038
-0.00400584
-0.00401879
-0.00393937
-0.00401886
-0.00393938
-0.00401878
-0.00393932
-0.00401881
-0.00393938
-0.00404788
-0.00405985
-0.00411341
-0.00412531
-0.00404766
-0.00412498
-0.00405967
-0.00404785
-0.0040596
-0.00411332
-0.00412528
-0.00404744
-0.00412495
-0.00405965
-0.00404684
-0.00412624
-0.00404675
-0.00412601
-0.00404682
-0.00412611
-0.00404667
-0.00412599
-0.00393908
-0.00401885
-0.0039393
-0.00401878
-0.00404649
-0.00412588
-0.00412601
-0.00404656
-0.00404665
-0.00412598
-0.00404645
-0.00412612
-0.00404658
-0.00415397
-0.0042332
-0.00415391
-0.00423325
-0.00415403
-0.00415392
-0.00423311
-0.00423305
-0.00423313
-0.00434008
-0.00426087
-0.00434011
-0.00426073
-0.0042607
-0.00433997
-0.00434003
-0.00426095
-0.00426081
-0.00423311
-0.00415384
-0.00423316
-0.00415398
-0.00423202
-0.00415471
-0.00416677
-0.00422015
-0.00423234
-0.00422012
-0.00415501
-0.00423201
-0.00415463
-0.00416677
-0.00422012
-0.00423231
-0.00422009
-0.00415499
-0.00426096
-0.00434006
-0.00426092
-0.00434003
-0.00426096
-0.00434014
-0.00426092
-0.00434001
-0.00426198
-0.00427368
-0.00433927
-0.00432726
-0.00426168
-0.00427365
-0.004339
-0.00426197
-0.00427365
-0.00433933
-0.00432727
-0.00426168
-0.00427363
-0.004339
-0.00415389
-0.00415364
-0.00423307
-0.00423302
-0.00423306
-0.00415356
-0.00423316
-0.00434014
-0.00426088
-0.00426065
-0.00434004
-0.0043401
-0.00426096
-0.00426078
-0.00434019
-0.00426069
-0.00423235
-0.00415453
-0.00416658
-0.00422013
-0.00423251
-0.00422005
-0.00415467
-0.00423341
-0.00415388
-0.00423328
-0.00415369
-0.00423235
-0.00416658
-0.0041545
-0.00422008
-0.00422006
-0.00423251
-0.00415466
-0.00426058
-0.00434014
-0.00426073
-0.00434024
-0.00426158
-0.00427366
-0.00433941
-0.00432716
-0.00426145
-0.00427361
-0.00433924
-0.00426059
-0.00434016
-0.00426073
-0.00434023
-0.00426158
-0.00427361
-0.00432718
-0.00433942
-0.00427362
-0.00426145
-0.00433925
-0.00423326
-0.00415354
-0.00423316
-0.0041534
-0.00423222
-0.00416665
-0.00415426
-0.00422005
-0.00422003
-0.00423241
-0.00415441
-0.00423325
-0.00415351
-0.00423316
-0.0041534
-0.00426148
-0.00427362
-0.00433947
-0.00432721
-0.0042614
-0.00427357
-0.00433931
-0.00426049
-0.00434021
-0.00426067
-0.00434029
-0.00426149
-0.00427359
-0.00432723
-0.00433947
-0.00427358
-0.0042614
-0.00433932
-0.0042605
-0.00434023
-0.00426067
-0.0043403
-0.00415391
-0.00415401
-0.00423311
-0.00423312
-0.00423302
-0.00415396
-0.00423318
-0.00434011
-0.00426074
-0.00426066
-0.00434004
-0.00433995
-0.00426082
-0.00426098
-0.00434008
-0.00426088
-0.00423199
-0.00416664
-0.00415464
-0.00422015
-0.00415499
-0.00422004
-0.00423228
-0.00423309
-0.00415397
-0.00415405
-0.00423316
-0.00423308
-0.00415386
-0.00415404
-0.00423313
-0.00426197
-0.00427367
-0.00432721
-0.00433924
-0.00427361
-0.00426171
-0.00433895
-0.00426196
-0.00427373
-0.00432723
-0.00433928
-0.00427366
-0.00426171
-0.00433896
-0.00426097
-0.00434008
-0.00426093
-0.00434
-0.00426097
-0.00434012
-0.00426093
-0.00434001
-0.00415354
-0.00423314
-0.00415383
-0.00423317
-0.00426065
-0.00434009
-0.00434
-0.00426077
-0.00426098
-0.0043402
-0.00426069
-0.00434013
-0.00426088
-0.00436774
-0.00444699
-0.00436758
-0.004447
-0.00436783
-0.00436767
-0.00444701
-0.00444684
-0.00444689
-0.00455394
-0.0044747
-0.00455395
-0.00447452
-0.00447455
-0.00455383
-0.00455387
-0.00447481
-0.00447464
-0.00444695
-0.00436785
-0.00436794
-0.00444703
-0.00444587
-0.00436858
-0.00438074
-0.0044341
-0.0043689
-0.00444615
-0.00443413
-0.00444588
-0.00436864
-0.00438075
-0.00443419
-0.00436892
-0.00444618
-0.00443416
-0.00447479
-0.00455394
-0.00447475
-0.00455387
-0.00447481
-0.00455402
-0.00447483
-0.00455386
-0.00447581
-0.00448759
-0.00455312
-0.00454115
-0.00447553
-0.00448763
-0.00455284
-0.00447584
-0.00448772
-0.00455321
-0.00454118
-0.00447563
-0.00448768
-0.00455285
-0.00436794
-0.00436775
-0.00444715
-0.00444678
-0.0044472
-0.00436769
-0.00444719
-0.00455403
-0.0044748
-0.00447469
-0.00455393
-0.00455403
-0.00447492
-0.00447479
-0.00455412
-0.00447468
-0.0044461
-0.00436831
-0.00438061
-0.00443404
-0.00436843
-0.00444626
-0.00443401
-0.00444712
-0.00436758
-0.0043675
-0.00444702
-0.00444611
-0.00438063
-0.00436829
-0.00443403
-0.00436845
-0.00443403
-0.00444627
-0.00447433
-0.00455397
-0.00447452
-0.00455406
-0.00447533
-0.00448753
-0.00455323
-0.00454101
-0.00447525
-0.0044875
-0.00455306
-0.00447434
-0.00455398
-0.00447452
-0.00455404
-0.00447534
-0.00448753
-0.00454104
-0.00455326
-0.00448754
-0.00447526
-0.00455308
-0.00444729
-0.00436768
-0.00436761
-0.00444718
-0.00444628
-0.00438073
-0.00436839
-0.00443417
-0.00436855
-0.00443416
-0.00444642
-0.00444729
-0.00436767
-0.00436762
-0.00444717
-0.00447552
-0.00448767
-0.00455342
-0.00454117
-0.00447544
-0.00448764
-0.00455326
-0.00447454
-0.00455415
-0.00447468
-0.00455424
-0.00447552
-0.00448769
-0.0045412
-0.00455341
-0.00448769
-0.00447541
-0.00455328
-0.00447453
-0.00455416
-0.00447468
-0.00455424
-0.00436766
-0.00436783
-0.00444701
-0.0044469
-0.00444683
-0.00436775
-0.00444697
-0.00455395
-0.00447452
-0.00447454
-0.00455388
-0.0045538
-0.00447463
-0.0044748
-0.00455391
-0.00447468
-0.00444586
-0.00438066
-0.00436862
-0.00443416
-0.00436891
-0.0044341
-0.0044462
-0.00444692
-0.0043678
-0.00436794
-0.00444696
-0.00444693
-0.00436784
-0.00436794
-0.00444702
-0.00447583
-0.00448757
-0.0045411
-0.00455309
-0.00448758
-0.00447555
-0.00455283
-0.00447584
-0.0044877
-0.00454114
-0.00455317
-0.00448764
-0.00447561
-0.00455284
-0.0044748
-0.00455392
-0.00447475
-0.00455384
-0.00447481
-0.00455398
-0.00447481
-0.00455385
-0.00436769
-0.00444716
-0.0043678
-0.00444705
-0.00447468
-0.00455403
-0.00455387
-0.00447476
-0.00447486
-0.00455413
-0.00447468
-0.00455399
-0.00447475
-0.00458163
-0.00466097
-0.00458146
-0.00466101
-0.00458171
-0.00458154
-0.004661
-0.00466083
-0.0046609
-0.00476805
-0.00468871
-0.00476813
-0.00468857
-0.00468861
-0.00476795
-0.00476806
-0.00468883
-0.00468869
-0.0046609
-0.00458174
-0.00458181
-0.00466099
-0.00465984
-0.00458245
-0.00459454
-0.00464804
-0.00458276
-0.00466013
-0.00464806
-0.00465986
-0.00458253
-0.00459454
-0.00464812
-0.00458279
-0.00466019
-0.00464808
-0.00468879
-0.00476803
-0.00468875
-0.00476794
-0.00468881
-0.00476806
-0.00468881
-0.00476794
-0.00468984
-0.00470165
-0.00476724
-0.00475525
-0.00468957
-0.00470169
-0.00476693
-0.00468985
-0.00470174
-0.00476728
-0.00475525
-0.00468962
-0.00470173
-0.00476693
-0.00458181
-0.0045817
-0.00466112
-0.00466089
-0.00466103
-0.00458163
-0.00466114
-0.00476809
-0.00468876
-0.00468871
-0.004768
-0.0047681
-0.0046889
-0.0046888
-0.00476819
-0.00468869
-0.0046601
-0.00458217
-0.00459442
-0.00464799
-0.00458228
-0.00466028
-0.00464795
-0.00466112
-0.00458144
-0.00458135
-0.00466102
-0.00466011
-0.00459442
-0.00458217
-0.00464799
-0.0045823
-0.00464798
-0.00466027
-0.00468839
-0.00476816
-0.00468856
-0.00476825
-0.00468939
-0.00470161
-0.00476744
-0.00475519
-0.00468932
-0.0047016
-0.00476726
-0.00468841
-0.00476817
-0.00468857
-0.00476825
-0.00468941
-0.00470163
-0.0047552
-0.00476744
-0.00470164
-0.0046893
-0.00476727
-0.00466128
-0.0045816
-0.00458156
-0.00466116
-0.00466028
-0.00459458
-0.00458233
-0.00464811
-0.00458251
-0.00464811
-0.00466042
-0.00466128
-0.00458162
-0.00458156
-0.00466115
-0.00468954
-0.00470169
-0.00476749
-0.00475524
-0.00468946
-0.00470167
-0.00476734
-0.00468854
-0.00476822
-0.0046887
-0.00476832
-0.00468955
-0.00470173
-0.00475528
-0.0047675
-0.00470174
-0.00468942
-0.00476735
-0.00468855
-0.00476823
-0.00468869
-0.00476832
-0.00458154
-0.0045817
-0.00466101
-0.00466091
-0.0046608
-0.00458161
-0.00466093
-0.00476814
-0.00468858
-0.00468862
-0.00476806
-0.00476793
-0.00468867
-0.00468881
-0.00476804
-0.00468869
-0.00465984
-0.00459453
-0.00458252
-0.00464813
-0.00458281
-0.00464806
-0.00466016
-0.00466088
-0.00458166
-0.00458181
-0.00466092
-0.00466089
-0.00458172
-0.00458182
-0.00466097
-0.00468986
-0.00470164
-0.00475521
-0.00476722
-0.00470164
-0.00468956
-0.00476692
-0.00468986
-0.00470175
-0.00475524
-0.00476726
-0.0047017
-0.00468961
-0.00476693
-0.0046888
-0.00476803
-0.00468874
-0.00476792
-0.0046888
-0.00476806
-0.00468879
-0.00476792
-0.00458163
-0.00466113
-0.00458168
-0.004661
-0.00468872
-0.00476811
-0.00476796
-0.00468877
-0.00468886
-0.0047682
-0.00468869
-0.00476807
-0.00468874
-0.00479577
-0.00487514
-0.00479567
-0.00487526
-0.00479586
-0.00479575
-0.00487522
-0.00487501
-0.00487514
-0.00498219
-0.00490289
-0.00498234
-0.00490283
-0.00490282
-0.0049821
-0.00498225
-0.00490301
-0.00490293
-0.00487503
-0.00479582
-0.00479591
-0.00487508
-0.00487399
-0.0047966
-0.00480868
-0.00486223
-0.00479689
-0.0048743
-0.00486221
-0.00487399
-0.00479662
-0.00480866
-0.00486222
-0.0047969
-0.00487425
-0.0048622
-0.00490292
-0.00498216
-0.00490292
-0.00498204
-0.00490292
-0.00498214
-0.00490291
-0.00498203
-0.00490398
-0.00491583
-0.00498138
-0.00496935
-0.00490373
-0.00491582
-0.00498104
-0.00490398
-0.00491584
-0.00498135
-0.00496935
-0.00490373
-0.00491583
-0.00498103
-0.00479591
-0.00479577
-0.00487522
-0.00487485
-0.00487529
-0.00479571
-0.00487529
-0.00498217
-0.00490289
-0.0049028
-0.00498207
-0.00498218
-0.00490301
-0.0049029
-0.00498226
-0.0049028
-0.00487439
-0.0047964
-0.00480865
-0.00486224
-0.00479652
-0.00487453
-0.0048622
-0.00487541
-0.00479567
-0.00479559
-0.00487528
-0.0048744
-0.00480864
-0.00479638
-0.00486222
-0.00479653
-0.00486221
-0.00487455
-0.00490267
-0.00498236
-0.00490282
-0.00498246
-0.00490367
-0.00491584
-0.00498163
-0.00496938
-0.00490356
-0.00491582
-0.00498146
-0.00490268
-0.00498236
-0.00490283
-0.00498245
-0.00490368
-0.00491586
-0.0049694
-0.00498164
-0.00491587
-0.00490358
-0.00498148
-0.0048754
-0.0047957
-0.00479565
-0.00487528
-0.00487439
-0.0048087
-0.00479642
-0.00486224
-0.0047966
-0.00486223
-0.00487452
-0.00487539
-0.0047957
-0.00479566
-0.00487526
-0.00490366
-0.00491579
-0.00498156
-0.00496932
-0.00490356
-0.00491578
-0.00498141
-0.00490265
-0.0049823
-0.0049028
-0.00498239
-0.00490366
-0.00491584
-0.00496936
-0.00498158
-0.00491584
-0.00490353
-0.00498143
-0.00490266
-0.00498231
-0.00490281
-0.0049824
-0.00479575
-0.00479586
-0.00487523
-0.00487516
-0.00487501
-0.00479576
-0.00487515
-0.00498233
-0.00490284
-0.00490283
-0.00498225
-0.0049821
-0.00490293
-0.00490303
-0.00498221
-0.0049029
-0.00487399
-0.00480866
-0.00479662
-0.00486225
-0.00479693
-0.00486219
-0.0048743
-0.00487504
-0.0047958
-0.00479592
-0.00487511
-0.00487504
-0.00479581
-0.00479591
-0.0048751
-0.00490403
-0.00491583
-0.00496933
-0.00498137
-0.00491578
-0.00490377
-0.00498105
-0.00490402
-0.00491587
-0.00496935
-0.00498135
-0.00491582
-0.00490375
-0.00498105
-0.00490296
-0.00498219
-0.00490294
-0.00498206
-0.00490296
-0.00498215
-0.00490292
-0.00498206
-0.00479572
-0.00487525
-0.00479579
-0.00487513
-0.00490283
-0.00498219
-0.00498204
-0.00490289
-0.00490299
-0.00498228
-0.00490281
-0.00498217
-0.00490287
-0.00500989
-0.00508917
-0.00500984
-0.0050893
-0.00500999
-0.00500991
-0.00508928
-0.00508904
-0.00508918
-0.00519616
-0.00511689
-0.00519629
-0.00511684
-0.00511685
-0.00519606
-0.0051962
-0.00511702
-0.00511694
-0.00508903
-0.00500988
-0.00500997
-0.00508909
-0.00508799
-0.00501071
-0.00502276
-0.00507629
-0.00501097
-0.00508833
-0.00507624
-0.00508798
-0.00501067
-0.00502273
-0.00507624
-0.00501098
-0.00508829
-0.00507623
-0.00511692
-0.00519612
-0.00511691
-0.00519602
-0.00511692
-0.0051961
-0.00511689
-0.00519601
-0.00511797
-0.00512984
-0.00519534
-0.00518333
-0.00511773
-0.00512981
-0.00519501
-0.00511797
-0.00512982
-0.00519532
-0.00518333
-0.00511772
-0.00512983
-0.005195
-0.00500996
-0.00500984
-0.00508922
-0.00508899
-0.00508912
-0.00500977
-0.00508924
-0.00519612
-0.00511686
-0.00511678
-0.00519603
-0.00519612
-0.00511699
-0.00511688
-0.00519621
-0.00511678
-0.00508844
-0.00501056
-0.00502279
-0.00507631
-0.00501069
-0.00508857
-0.00507627
-0.00508946
-0.00500982
-0.00500975
-0.00508932
-0.00508845
-0.00502278
-0.00501054
-0.0050763
-0.00501071
-0.00507628
-0.0050886
-0.00511669
-0.00519631
-0.00511683
-0.00519642
-0.00511769
-0.00512987
-0.0051956
-0.00518336
-0.00511757
-0.00512985
-0.00519542
-0.0051167
-0.00519633
-0.00511685
-0.00519641
-0.0051177
-0.00512988
-0.00518338
-0.00519561
-0.00512989
-0.00511759
-0.00519544
-0.00508938
-0.00500976
-0.00500971
-0.00508926
-0.00508838
-0.00502275
-0.00501049
-0.00507625
-0.00501066
-0.00507624
-0.00508852
-0.00508939
-0.00500977
-0.00500972
-0.00508926
-0.00511764
-0.00512977
-0.0051955
-0.00518328
-0.00511752
-0.00512975
-0.00519536
-0.00511662