/*--------------------------------*- C++ -*----------------------------------*\
| =========                 |                                                 |
| \\      /  F ield         | OpenFOAM: The Open Source CFD Toolbox           |
|  \\    /   O peration     | Version:  2206                                  |
|   \\  /    A nd           | Website:  www.openfoam.com                      |
|    \\/     M anipulation  |                                                 |
\*---------------------------------------------------------------------------*/
FoamFile
{
    version     2.0;
    format      ascii;
    arch        "LSB;label=32;scalar=64";
    class       volVectorField;
    location    "50";
    object      wallShearStress;
}
// * * * * * * * * * * * * * * * * * * * * * * * * * * * * * * * * * * * * * //

dimensions      [0 2 -2 0 0 0 0];

internalField   uniform (0 0 0);

boundaryField
{
    topPatch
    {
        type            calculated;
        value           nonuniform List<vector> 0();
    }
    wall
    {
        type            calculated;
        value           nonuniform List<vector> 
7718
(
(5.44565e-09 -2.00916e-08 -0.000133016)
(-8.31138e-09 8.26569e-09 -0.00013304)
(-2.42443e-09 -1.93681e-08 -0.000124979)
(-5.52188e-09 6.61468e-09 -0.000125016)
(-4.17983e-09 6.99415e-09 -0.000133053)
(-1.45634e-08 -1.79936e-08 -0.000133075)
(-9.72921e-09 5.96597e-09 -0.000127378)
(-4.89765e-09 -2.05824e-09 -0.00012938)
(-8.07557e-09 -1.62282e-08 -0.000127416)
(-7.52561e-09 -6.62609e-09 -0.000129384)
(9.49041e-09 -1.51633e-08 -0.000133022)
(1.93897e-09 -1.57333e-08 -0.000133003)
(-1.50329e-10 -1.11516e-08 -0.000124959)
(-5.03763e-09 -1.53416e-08 -0.00012497)
(-9.14053e-09 3.31359e-09 -0.000125008)
(-7.22284e-09 2.39188e-09 -0.000133045)
(1.47581e-08 -1.4396e-08 -0.000133106)
(9.61381e-09 -2.14995e-08 -0.000127428)
(-6.59755e-09 -3.16427e-10 -0.000129377)
(-9.45221e-09 8.91304e-09 -0.00012738)
(4.48173e-09 -9.77358e-09 -0.000129404)
(1.19253e-08 -5.9106e-09 -0.000125091)
(5.89208e-09 1.25386e-08 -0.000127456)
(-8.34981e-09 -6.89499e-09 -0.000129384)
(-9.85574e-09 -1.72205e-08 -0.000127412)
(5.29549e-09 6.24596e-10 -0.000129417)
(5.50037e-09 -5.21625e-09 -0.000125129)
(6.90867e-09 -3.59717e-10 -0.000133136)
(1.20016e-08 -2.53166e-11 -0.000125734)
(1.63379e-08 -2.10578e-09 -0.000133079)
(3.77344e-09 -1.43447e-08 -0.000132409)
(1.72748e-08 -2.28259e-08 -0.000125604)
(3.49862e-08 -1.31628e-08 -0.000125807)
(1.62235e-08 -2.9979e-08 -0.000132387)
(6.12465e-10 -1.55619e-08 -0.000125606)
(2.36951e-08 -1.8595e-08 -0.000125711)
(4.49491e-08 -3.00423e-08 -0.000132516)
(2.18548e-08 -1.22413e-08 -0.000132511)
(1.38124e-08 -2.4591e-08 -0.000133154)
(-1.12295e-08 1.04498e-08 -0.000133034)
(1.1369e-08 1.18821e-08 -0.000133192)
(-1.47876e-08 -2.12334e-08 -0.000133073)
(1.32511e-08 5.18303e-09 -0.000125747)
(6.46184e-09 -1.77798e-09 -0.00013253)
(2.46956e-08 9.44391e-09 -0.000132535)
(-6.35106e-09 2.40257e-09 -0.000133076)
(-3.19936e-10 -1.94778e-08 -0.000133171)
(-9.17481e-09 -9.00883e-09 -0.000124782)
(1.4918e-08 4.25311e-09 -0.000125029)
(3.09591e-08 6.71404e-09 -0.000132893)
(3.57268e-09 9.02677e-09 -0.000133072)
(-5.88842e-09 -1.19888e-08 -0.000124941)
(9.67833e-09 -5.58315e-10 -0.000125104)
(-2.86139e-09 1.24306e-08 -0.000133005)
(1.09014e-08 5.70435e-09 -0.000133138)
(-2.71067e-08 -4.06559e-10 -0.000124838)
(1.85492e-09 1.2278e-08 -0.00012509)
(2.60919e-08 4.8969e-09 -0.000132904)
(-3.88044e-09 8.25109e-09 -0.000133091)
(-6.27138e-09 -7.16919e-09 -0.000125041)
(8.13835e-09 7.12931e-09 -0.000125187)
(-4.00236e-09 5.68332e-09 -0.000133099)
(5.15641e-09 -5.99392e-09 -0.000133207)
(-2.60737e-08 -1.99027e-10 -0.000124873)
(9.08466e-09 9.30077e-09 -0.000125114)
(1.2437e-08 -1.0529e-09 -0.000132917)
(-1.99328e-08 -1.03619e-09 -0.000133114)
(-8.03035e-09 9.61343e-11 -0.00012508)
(6.73891e-09 1.15501e-08 -0.000125203)
(-6.83533e-09 -2.69917e-09 -0.000133127)
(2.41013e-09 -9.98226e-09 -0.000133214)
(-1.85139e-08 -3.6209e-09 -0.000124893)
(1.91078e-08 2.9744e-09 -0.000125133)
(8.82246e-09 -4.39453e-09 -0.000132951)
(-1.71348e-08 8.31926e-10 -0.000133146)
(-8.32808e-09 -5.27619e-09 -0.000125069)
(6.60388e-09 4.86562e-09 -0.000125183)
(-7.13765e-09 1.32414e-09 -0.000133117)
(5.04209e-09 -4.8895e-09 -0.000133203)
(-8.10123e-09 -6.67994e-09 -0.000124897)
(2.4923e-08 4.46209e-09 -0.000125125)
(9.90511e-09 -3.79125e-09 -0.000132965)
(-1.74938e-08 1.70101e-09 -0.00013315)
(-5.45451e-09 -6.72383e-09 -0.00012504)
(1.04318e-08 2.45522e-09 -0.000125151)
(-4.14954e-09 4.90237e-09 -0.000133097)
(9.46292e-09 1.59904e-10 -0.000133178)
(-7.11144e-09 -8.39992e-09 -0.000124871)
(2.26953e-08 8.39292e-10 -0.000125102)
(1.62107e-08 -7.26338e-10 -0.000132947)
(-8.43468e-09 4.59442e-09 -0.000133125)
(-5.66887e-09 -1.1556e-08 -0.000125009)
(8.35545e-09 -8.72936e-10 -0.00012513)
(-2.56118e-09 9.09822e-09 -0.000133073)
(7.45974e-09 2.30265e-09 -0.000133166)
(-1.21751e-08 -6.54511e-09 -0.000124874)
(2.06562e-08 4.96243e-09 -0.000125109)
(1.58229e-08 -3.5616e-11 -0.000132934)
(-1.35078e-08 2.11152e-09 -0.000133118)
(-6.50214e-09 -1.02862e-08 -0.000125011)
(9.89738e-09 2.84763e-09 -0.000125139)
(-3.01875e-09 9.81833e-09 -0.000133079)
(8.63445e-09 1.29205e-09 -0.000133176)
(-1.46527e-08 -4.14765e-09 -0.000124865)
(1.6584e-08 4.93844e-09 -0.000125088)
(1.5884e-08 5.72146e-10 -0.000132914)
(-1.11054e-08 4.0846e-09 -0.000133085)
(-4.63622e-09 -8.53847e-09 -0.000125007)
(9.21e-09 3.01753e-09 -0.000125125)
(-2.00679e-09 6.80034e-09 -0.000133082)
(5.68667e-09 -4.11834e-09 -0.000133169)
(-1.67972e-08 -5.6495e-09 -0.000124851)
(1.48296e-08 4.35909e-09 -0.000125091)
(1.36235e-08 -2.32792e-09 -0.000132896)
(-1.48707e-08 2.63437e-10 -0.000133086)
(-7.32144e-09 -6.61767e-09 -0.000125004)
(7.67078e-09 4.94443e-09 -0.000125135)
(-5.58954e-09 4.25957e-09 -0.000133083)
(4.24285e-09 -5.81143e-09 -0.000133182)
(-1.95662e-08 -4.52874e-09 -0.000124855)
(1.4182e-08 6.6818e-09 -0.000125079)
(1.6299e-08 -7.91854e-10 -0.000132897)
(-7.69153e-09 5.82811e-09 -0.000133073)
(-7.54525e-09 -6.5751e-09 -0.000125012)
(8.49221e-09 6.6309e-09 -0.000125131)
(-5.19598e-09 3.78647e-09 -0.000133089)
(6.1022e-09 -4.65782e-09 -0.000133174)
(-1.81498e-08 -5.01017e-09 -0.000124834)
(1.40098e-08 4.42748e-09 -0.000125074)
(1.63083e-08 -9.57906e-10 -0.000132884)
(-1.20657e-08 1.58296e-09 -0.000133083)
(-8.37896e-09 -5.37652e-09 -0.000124997)
(6.12913e-09 4.59179e-09 -0.000125122)
(-5.16146e-09 5.59266e-09 -0.00013307)
(6.4352e-09 -1.8728e-09 -0.000133164)
(-1.53833e-08 -3.21354e-09 -0.000124837)
(1.85613e-08 7.54881e-09 -0.000125066)
(1.63463e-08 9.59959e-10 -0.000132898)
(-1.05138e-08 7.44412e-09 -0.000133084)
(-5.26829e-09 -5.65437e-09 -0.000124991)
(1.00464e-08 5.91934e-09 -0.000125103)
(-2.85282e-09 5.90545e-09 -0.000133063)
(8.90768e-09 -1.95626e-09 -0.000133143)
(-1.43492e-08 -5.55933e-09 -0.000124824)
(1.8206e-08 5.30401e-09 -0.00012508)
(1.49682e-08 -2.31129e-09 -0.000132892)
(-1.50126e-08 1.95729e-09 -0.00013311)
(-5.9045e-09 -7.37314e-09 -0.000124976)
(9.65642e-09 3.27766e-09 -0.000125108)
(-5.19248e-09 5.85261e-09 -0.000133043)
(6.99548e-09 -3.54668e-09 -0.000133143)
(-1.65366e-08 -4.13345e-09 -0.000124801)
(1.33784e-08 6.33976e-09 -0.000125098)
(1.6454e-08 -4.08289e-10 -0.000132881)
(-9.24789e-09 5.83453e-09 -0.00013314)
(-7.99407e-09 -4.89901e-09 -0.00012496)
(7.47629e-09 3.92055e-09 -0.000125111)
(-4.46829e-09 5.16175e-09 -0.000133029)
(6.73762e-09 -2.3013e-09 -0.000133148)
(-1.40594e-08 -6.38115e-09 -0.000124781)
(1.55534e-08 6.41728e-09 -0.000125095)
(1.90894e-08 2.05863e-11 -0.000132859)
(-8.19585e-09 4.29436e-09 -0.000133132)
(-8.03161e-09 -1.2594e-09 -0.000124971)
(7.94738e-09 5.39382e-09 -0.000125113)
(-4.42549e-09 5.72365e-09 -0.000133039)
(4.33569e-09 -3.25831e-09 -0.000133142)
(2.57937e-08 2.21747e-09 -0.00013293)
(-8.57169e-09 -4.69678e-09 -0.000124952)
(-7.86508e-09 3.73044e-09 -0.000133035)
(-1.64059e-08 2.0824e-09 -0.000132948)
(7.48044e-09 -4.26695e-09 -0.000133125)
(7.78933e-09 4.89183e-09 -0.000133107)
(-1.10655e-08 -3.6378e-09 -0.000133077)
(1.71224e-08 2.54307e-09 -0.000133067)
(-2.48543e-08 -2.91316e-09 -0.000132919)
(-1.58663e-08 6.42204e-09 -0.000124883)
(1.50258e-08 -3.54679e-09 -0.000125099)
(7.67309e-09 8.87e-09 -0.000124892)
(-8.26701e-09 -6.77786e-09 -0.000125084)
(2.44397e-08 1.82941e-09 -0.00012505)
(-2.05291e-08 4.98865e-09 -0.000124843)
(-3.07059e-09 -7.65815e-09 -0.000125062)
(3.03455e-08 8.33706e-10 -0.000124849)
(2.66319e-09 8.99795e-09 -0.000133081)
(-3.49719e-09 -4.80864e-09 -0.00013319)
(1.00623e-08 5.18629e-09 -0.000132947)
(-6.26423e-09 -5.1678e-09 -0.000133088)
(-4.06676e-09 -4.68901e-09 -0.000133179)
(1.05614e-08 -2.51311e-09 -0.000133099)
(-9.04561e-12 -6.49026e-09 -0.000133078)
(2.97058e-08 -6.3674e-09 -0.000132911)
(-1.12493e-08 -4.67786e-09 -0.000132842)
(8.61972e-09 4.16419e-09 -0.000133047)
(-1.85404e-09 -1.23891e-08 -0.000132972)
(9.77741e-09 -4.78469e-09 -0.000133106)
(3.76713e-09 7.25461e-09 -0.000133084)
(-2.19421e-08 2.42433e-09 -0.000132881)
(7.47085e-09 1.45601e-10 -0.000133156)
(-1.47179e-09 -1.05619e-08 -0.000133033)
(3.12499e-08 -3.62104e-10 -0.000124819)
(-9.29735e-10 1.12053e-08 -0.000125047)
(8.62213e-09 8.28381e-09 -0.00012506)
(-1.99791e-08 -4.30614e-09 -0.000124806)
(-6.78481e-09 8.43367e-09 -0.000125054)
(3.07146e-08 2.26996e-10 -0.000124816)
(1.17442e-08 3.42041e-09 -0.000133104)
(-2.88398e-09 7.88751e-09 -0.000133191)
(-2.46261e-09 7.36406e-09 -0.000133082)
(3.21486e-08 7.18588e-09 -0.000132896)
(-3.74628e-09 6.75239e-09 -0.000133185)
(1.04892e-08 2.51085e-09 -0.000133101)
(-5.7915e-09 1.21231e-08 -0.000124976)
(1.09894e-08 3.57548e-09 -0.000125133)
(8.17716e-09 4.20244e-09 -0.000125152)
(-5.52791e-09 -1.05411e-08 -0.000124998)
(8.42456e-09 -3.22884e-09 -0.000125174)
(-3.99538e-09 1.23405e-08 -0.00012503)
(9.65357e-09 -2.2377e-09 -0.000125069)
(-3.42742e-09 1.17857e-08 -0.000125184)
(8.93754e-09 4.11759e-09 -0.000125061)
(-6.00795e-09 -5.96941e-09 -0.000125178)
(-4.96438e-09 1.1287e-08 -0.000125181)
(1.05947e-08 4.98779e-10 -0.000125064)
(-5.4956e-09 -8.56345e-09 -0.000125167)
(8.89703e-09 4.19171e-09 -0.000125056)
(-1.35393e-08 4.30856e-09 -0.000132873)
(6.51267e-09 -3.69561e-09 -0.000133082)
(8.01079e-09 5.25959e-10 -0.000133179)
(-1.33461e-09 1.16233e-08 -0.000133065)
(1.91553e-09 -8.07457e-09 -0.00013311)
(-2.33744e-08 -2.9309e-09 -0.000132916)
(-1.27391e-08 7.82573e-09 -0.000124806)
(1.12065e-08 -6.39112e-09 -0.000125061)
(3.09031e-08 4.61254e-10 -0.000124825)
(-1.56644e-09 -9.28044e-09 -0.000125057)
(6.80784e-09 -8.82007e-09 -0.000125082)
(-2.30101e-08 3.11484e-09 -0.000124835)
(-6.87136e-09 -8.2287e-09 -0.000125062)
(3.09176e-08 5.33476e-10 -0.000124827)
(8.8386e-09 -7.65611e-10 -0.000133094)
(-2.20749e-09 -7.36778e-09 -0.000133178)
(2.99706e-08 -5.29325e-09 -0.000132892)
(2.6195e-09 -8.80421e-09 -0.000133076)
(-3.47248e-09 -5.33086e-09 -0.000133161)
(9.53246e-09 -4.64543e-10 -0.000133086)
(3.90299e-10 -8.44854e-09 -0.000133084)
(3.23414e-08 -7.13124e-09 -0.000132901)
(-2.49873e-08 4.76039e-09 -0.000132914)
(-6.08784e-10 1.02004e-08 -0.000133115)
(-5.43769e-09 -4.20931e-09 -0.000133073)
(6.25779e-09 5.20365e-09 -0.000133191)
(1.92456e-09 8.58955e-09 -0.000133121)
(-2.88612e-08 7.65945e-09 -0.000132941)
(3.89303e-09 1.01124e-08 -0.000133197)
(-5.79771e-09 -1.62037e-09 -0.000133104)
(2.60797e-08 -1.5045e-09 -0.000124824)
(-8.41025e-09 9.23594e-09 -0.00012507)
(6.63785e-09 8.85024e-09 -0.000125096)
(-3.01148e-08 1.81882e-09 -0.000124861)
(-2.24816e-08 2.32977e-09 -0.000125074)
(1.99238e-08 -1.67392e-09 -0.000124847)
(8.27843e-09 2.08042e-09 -0.000133097)
(-2.25177e-09 1.1481e-08 -0.000133185)
(-1.655e-08 1.09752e-09 -0.000133095)
(2.17973e-08 3.19926e-09 -0.000132921)
(-5.53467e-09 4.6502e-09 -0.000133175)
(8.14646e-09 1.57909e-09 -0.00013309)
(-6.37892e-09 8.071e-09 -0.000125063)
(8.50464e-09 -7.30031e-09 -0.000125205)
(5.04387e-09 1.18541e-08 -0.000125194)
(-6.76419e-09 -2.58737e-09 -0.000125071)
(6.44851e-09 -1.18761e-08 -0.000125212)
(-6.85088e-09 3.06716e-09 -0.000125092)
(8.47345e-09 -2.31885e-09 -0.000125059)
(-6.67858e-09 1.10712e-08 -0.00012518)
(8.19782e-09 4.68746e-09 -0.000125046)
(-8.30842e-09 -5.07569e-09 -0.000125167)
(-6.53941e-09 7.62645e-09 -0.000125164)
(7.16919e-09 -2.71742e-09 -0.000125054)
(-8.27111e-09 -6.40135e-09 -0.000125156)
(6.18256e-09 6.15554e-09 -0.000125048)
(-2.69871e-08 -6.15728e-09 -0.000132936)
(1.70097e-09 -9.67054e-09 -0.000133132)
(3.58516e-09 -9.14335e-09 -0.000133212)
(-6.2093e-09 6.78185e-10 -0.000133126)
(4.35367e-09 -7.78692e-09 -0.00013314)
(-2.68343e-08 -6.00704e-09 -0.000132957)
(-2.89157e-08 -6.96085e-10 -0.000124855)
(3.14257e-09 -1.19539e-08 -0.000125106)
(2.7509e-08 1.15975e-09 -0.000124834)
(-1.13094e-08 -7.37907e-09 -0.000125083)
(7.59402e-09 -8.36764e-09 -0.000125112)
(-2.99545e-08 -2.06409e-09 -0.000124877)
(-1.97136e-08 -4.65655e-09 -0.00012509)
(1.90241e-08 2.39643e-09 -0.000124856)
(7.34399e-09 1.61657e-09 -0.000133068)
(-5.68426e-09 -3.9378e-09 -0.000133155)
(2.74104e-08 -5.29068e-09 -0.00013291)
(-8.23762e-09 -5.05784e-09 -0.000133102)
(-8.21055e-09 -9.11421e-10 -0.000133145)
(6.16377e-09 3.1997e-09 -0.000133067)
(-1.4932e-08 -2.22446e-09 -0.000133108)
(2.06264e-08 -2.26328e-09 -0.000132927)
(-2.50489e-08 5.85737e-09 -0.000132945)
(3.42944e-09 7.90551e-09 -0.000133135)
(-8.67539e-09 4.06184e-09 -0.000133106)
(3.45314e-09 9.73237e-09 -0.000133199)
(9.12116e-09 4.81919e-09 -0.000133141)
(-2.35342e-08 3.96e-09 -0.000132959)
(3.20189e-09 6.59698e-09 -0.000133187)
(-8.14659e-09 2.07513e-09 -0.000133111)
(1.03367e-08 -5.93539e-09 -0.000124849)
(-2.42204e-08 2.86846e-09 -0.000125097)
(1.37929e-08 5.07377e-09 -0.000125118)
(-2.28123e-08 -1.61386e-09 -0.000124885)
(-2.61953e-08 6.48346e-10 -0.000125108)
(8.07694e-09 -8.03521e-09 -0.000124873)
(5.21048e-09 -1.80181e-09 -0.000133084)
(-7.56322e-09 1.59053e-09 -0.000133175)
(-2.15864e-08 -2.45594e-09 -0.00013313)
(1.0613e-08 -2.75269e-09 -0.000132942)
(-8.13963e-09 -1.50491e-09 -0.000133176)
(5.52402e-09 -4.45443e-09 -0.00013309)
(-8.46242e-09 6.6198e-10 -0.000125092)
(6.15254e-09 -1.12119e-08 -0.000125218)
(6.60938e-09 8.12882e-09 -0.000125191)
(-8.36745e-09 -1.08025e-09 -0.000125082)
(5.04331e-09 -9.80847e-09 -0.000125207)
(-9.16639e-09 4.72515e-10 -0.000125099)
(7.28888e-09 -5.54096e-09 -0.000125041)
(-7.50199e-09 5.96171e-09 -0.000125165)
(5.56915e-09 6.03899e-09 -0.000125036)
(-9.02585e-09 -3.08141e-09 -0.000125161)
(-6.94057e-09 5.87029e-09 -0.000125165)
(7.1942e-09 -5.75445e-09 -0.000125048)
(-6.72694e-09 -3.98006e-09 -0.00012516)
(6.25762e-09 8.48542e-09 -0.000125043)
(-2.4136e-08 -4.88793e-09 -0.000132959)
(7.26967e-09 -6.41131e-09 -0.000133147)
(3.90525e-09 -7.17235e-09 -0.00013321)
(-8.01473e-09 -8.238e-10 -0.000133128)
(1.06679e-08 -3.22617e-09 -0.000133149)
(-2.15144e-08 -2.49103e-09 -0.000132971)
(-2.51301e-08 1.09286e-09 -0.000124881)
(1.13385e-08 -7.87445e-09 -0.000125128)
(1.39548e-08 5.34699e-09 -0.00012486)
(-2.18445e-08 -4.33175e-09 -0.000125106)
(1.54893e-08 -4.48293e-09 -0.000125131)
(-2.15268e-08 3.05661e-09 -0.000124897)
(-2.36627e-08 -1.12983e-09 -0.000125109)
(1.14826e-08 7.15887e-09 -0.000124874)
(3.53661e-09 5.96386e-09 -0.000133054)
(-7.78494e-09 -2.98688e-10 -0.000133148)
(1.41858e-08 1.58914e-10 -0.000132931)
(-1.76212e-08 2.50742e-10 -0.000133117)
(-7.95775e-09 8.97435e-10 -0.000133149)
(3.98665e-09 7.08324e-09 -0.00013306)
(-1.89153e-08 7.34109e-10 -0.000133122)
(1.22776e-08 2.42333e-09 -0.000132942)
(-1.72211e-08 -3.37216e-10 -0.00013296)
(1.62282e-08 1.60644e-09 -0.000133151)
(-7.0204e-09 -7.26217e-10 -0.000133098)
(5.86156e-09 3.63545e-09 -0.000133183)
(2.05258e-08 -1.34112e-09 -0.000133141)
(-1.1792e-08 -2.69372e-09 -0.000132972)
(7.93632e-09 4.52138e-10 -0.000133163)
(-5.41905e-09 -5.0646e-09 -0.000133089)
(8.40456e-09 -7.82703e-09 -0.000124881)
(-1.99229e-08 4.08082e-09 -0.000125126)
(2.50584e-08 2.46052e-09 -0.000125128)
(-1.17737e-08 -6.94093e-09 -0.000124902)
(-2.28207e-08 2.95209e-09 -0.000125127)
(1.15089e-08 -6.93425e-09 -0.000124902)
(4.49941e-09 -5.78605e-09 -0.000133092)
(-4.25113e-09 4.97064e-09 -0.000133191)
(-2.07215e-08 -2.20296e-09 -0.000133149)
(9.9216e-09 -3.84037e-09 -0.000132975)
(-9.0878e-09 -2.80939e-09 -0.000133191)
(4.83609e-09 -4.85037e-09 -0.000133098)
(-8.55881e-09 3.5036e-09 -0.000125087)
(6.49895e-09 -7.23633e-09 -0.0001252)
(8.44011e-09 5.55426e-09 -0.000125162)
(-7.34437e-09 -6.10151e-09 -0.00012506)
(8.32431e-09 -5.97765e-09 -0.000125183)
(-7.78492e-09 5.34132e-09 -0.000125081)
(6.69557e-09 -8.0088e-09 -0.000125047)
(-5.82938e-09 8.39145e-09 -0.000125177)
(6.61848e-09 8.4278e-09 -0.000125041)
(-7.8408e-09 -4.27474e-09 -0.000125171)
(-9.42384e-09 2.56946e-09 -0.000125174)
(7.58755e-09 -5.49888e-09 -0.000125055)
(-7.44209e-09 -5.30949e-09 -0.000125164)
(7.80201e-09 6.62579e-09 -0.000125052)
(-1.72207e-08 2.41374e-10 -0.00013297)
(1.6131e-08 -3.66429e-10 -0.000133153)
(5.88297e-09 -3.17626e-09 -0.000133188)
(-5.86411e-09 3.42286e-09 -0.000133113)
(1.90736e-08 1.22095e-09 -0.000133142)
(-1.24162e-08 2.23614e-09 -0.000132975)
(-1.73335e-08 4.49844e-09 -0.000124898)
(1.89216e-08 -3.57546e-09 -0.000125139)
(1.03189e-08 7.24206e-09 -0.00012488)
(-2.17749e-08 -1.85881e-09 -0.000125122)
(2.42285e-08 -2.62144e-09 -0.000125127)
(-1.22296e-08 6.2768e-09 -0.000124906)
(-2.12896e-08 -3.43221e-09 -0.000125118)
(1.13951e-08 6.87991e-09 -0.000124893)
(3.67762e-09 7.98873e-09 -0.00013306)
(-6.73771e-09 -1.45343e-09 -0.00013316)
(1.10964e-08 3.35956e-09 -0.000132944)
(-1.97902e-08 1.00849e-09 -0.000133134)
(-7.61875e-09 -1.03716e-09 -0.000133158)
(4.21557e-09 5.07429e-09 -0.000133075)
(-1.95105e-08 8.99686e-10 -0.000133131)
(9.8967e-09 3.92378e-09 -0.000132955)
(-6.08096e-09 -5.36131e-09 -0.000132959)
(2.09894e-08 -1.74965e-09 -0.000133135)
(-4.41798e-09 -5.40416e-09 -0.000133068)
(1.04657e-08 -1.63871e-09 -0.000133156)
(2.25353e-08 -3.45233e-09 -0.00013312)
(-7.23955e-09 -3.86008e-09 -0.000132956)
(9.07412e-09 -2.24229e-09 -0.00013314)
(-1.08822e-09 -1.07061e-08 -0.000133063)
(1.12541e-08 -6.05298e-09 -0.000124893)
(-1.87175e-08 5.23005e-09 -0.000125126)
(2.66519e-08 1.02741e-09 -0.000125104)
(-8.2578e-09 -7.30565e-09 -0.000124887)
(-1.76635e-08 4.86392e-09 -0.000125108)
(1.43307e-08 -4.38173e-09 -0.000124891)
(2.07589e-09 -8.66929e-09 -0.000133103)
(-9.75576e-09 -1.27054e-09 -0.000133191)
(-1.54131e-08 2.06479e-09 -0.000133135)
(1.37814e-08 -9.82508e-10 -0.000132965)
(-9.44018e-09 -2.41153e-09 -0.000133178)
(2.07679e-09 -6.76547e-09 -0.000133103)
(-5.8111e-09 7.0127e-09 -0.000125061)
(9.94149e-09 -3.95172e-09 -0.000125172)
(9.29153e-09 1.79672e-09 -0.000125133)
(-5.05731e-09 -9.41541e-09 -0.000125025)
(8.62105e-09 -3.72152e-09 -0.000125155)
(-5.57959e-09 8.5372e-09 -0.000125052)
(4.57879e-09 -1.03978e-08 -0.000125052)
(-1.12503e-08 1.93765e-09 -0.000125176)
(5.5462e-09 7.50078e-09 -0.000125044)
(-9.22229e-09 -5.42118e-09 -0.000125162)
(-1.00316e-08 3.02726e-09 -0.000125161)
(4.84633e-09 -9.36144e-09 -0.000125051)
(-7.09838e-09 -6.38223e-09 -0.000125144)
(6.19841e-09 5.06754e-09 -0.000125041)
(-9.35386e-09 3.56622e-09 -0.000132959)
(2.09376e-08 -1.14129e-10 -0.000133137)
(8.50425e-09 1.33462e-09 -0.000133163)
(-1.60788e-09 7.76488e-09 -0.000133091)
(2.00161e-08 1.66053e-09 -0.000133119)
(-8.04005e-09 3.92204e-09 -0.000132955)
(-9.71811e-09 6.41934e-09 -0.000124891)
(2.29663e-08 -4.0466e-09 -0.00012512)
(1.29833e-08 5.16615e-09 -0.000124883)
(-1.86154e-08 -6.16798e-09 -0.000125113)
(2.4376e-08 -2.51272e-09 -0.0001251)
(-1.03517e-08 5.92915e-09 -0.000124884)
(-1.73975e-08 -4.73253e-09 -0.000125094)
(1.51359e-08 4.11873e-09 -0.000124879)
(4.02907e-09 5.49553e-09 -0.000133067)
(-7.8823e-09 -2.59927e-09 -0.000133155)
(1.13776e-08 2.00362e-09 -0.000132948)
(-1.59052e-08 -1.80788e-09 -0.000133125)
(-6.62871e-09 -3.06579e-09 -0.000133141)
(4.0032e-09 3.74068e-09 -0.000133064)
(-1.22829e-08 -2.69011e-09 -0.000133109)
(1.45133e-08 1.9425e-10 -0.000132945)
(-5.31128e-09 -6.67449e-09 -0.000132934)
(1.96911e-08 -1.94149e-09 -0.00013312)
(-3.31978e-09 -9.12029e-09 -0.000133046)
(7.59483e-09 -2.41405e-09 -0.000133139)
(1.73962e-08 -1.69293e-09 -0.000133118)
(-9.85341e-09 -5.64348e-09 -0.000132939)
(7.44876e-09 -3.26905e-09 -0.000133138)
(-3.52394e-09 -1.03981e-08 -0.00013305)
(1.63592e-08 -4.0709e-09 -0.000124871)
(-1.07522e-08 6.12155e-09 -0.000125102)
(2.18186e-08 8.85518e-10 -0.000125099)
(-1.09734e-08 -8.57394e-09 -0.00012487)
(-1.71271e-08 3.77349e-09 -0.000125095)
(1.94021e-08 -4.98178e-09 -0.000124872)
(3.83859e-09 -6.12802e-09 -0.000133088)
(-4.01011e-09 4.26733e-09 -0.000133178)
(-1.40978e-08 4.85727e-10 -0.000133115)
(1.8293e-08 -2.54432e-10 -0.000132953)
(-7.43175e-09 -2.06876e-09 -0.000133174)
(6.27415e-09 -5.1478e-09 -0.000133083)
(-6.28037e-09 9.3505e-09 -0.000125033)
(8.37849e-09 -9.98342e-10 -0.000125158)
(7.60792e-09 1.81245e-09 -0.000125128)
(-6.72888e-09 -1.23229e-08 -0.000125007)
(6.66468e-09 -2.52012e-09 -0.000125157)
(-7.47593e-09 1.03279e-08 -0.00012504)
(5.22036e-09 -1.04804e-08 -0.000125038)
(-6.87711e-09 5.18236e-09 -0.00012516)
(7.37136e-09 6.15729e-09 -0.000125025)
(-6.15851e-09 -3.96837e-09 -0.000125144)
(-7.25291e-09 1.22208e-09 -0.000125156)
(7.70074e-09 -8.15339e-09 -0.000125037)
(-5.153e-09 -5.43834e-09 -0.000125142)
(8.06833e-09 6.93448e-09 -0.000125027)
(-1.01859e-08 4.6114e-09 -0.000132933)
(1.84842e-08 1.40409e-09 -0.000133116)
(7.99171e-09 1.88778e-09 -0.000133167)
(-3.40073e-09 1.04242e-08 -0.00013308)
(1.86555e-08 3.04534e-09 -0.000133113)
(-1.05435e-08 5.01629e-09 -0.000132938)
(-1.05278e-08 7.64841e-09 -0.000124861)
(2.16638e-08 -1.42246e-09 -0.000125097)
(1.85523e-08 4.90557e-09 -0.000124856)
(-1.4726e-08 -4.37599e-09 -0.00012509)
(2.14829e-08 -1.32978e-09 -0.000125095)
(-1.18711e-08 8.50515e-09 -0.000124865)
(-1.52142e-08 -2.27945e-09 -0.000125084)
(1.89299e-08 4.92363e-09 -0.000124859)
(5.39767e-09 3.76665e-09 -0.000133048)
(-6.25114e-09 -2.33562e-09 -0.00013314)
(1.78747e-08 -4.71855e-10 -0.000132927)
(-1.18559e-08 -2.15089e-09 -0.000133106)
(-5.83725e-09 -7.0839e-10 -0.000133136)
(6.49065e-09 4.13965e-09 -0.00013305)
(-1.16371e-08 -1.62094e-09 -0.000133101)
(1.80406e-08 6.06151e-10 -0.000132927)
(-9.36379e-09 -4.43045e-09 -0.00013294)
(1.67797e-08 7.70021e-10 -0.000133126)
(-2.97436e-09 -8.71445e-09 -0.000133049)
(8.16362e-09 -3.2969e-10 -0.000133147)
(1.65235e-08 1.45425e-09 -0.000133119)
(-1.22462e-08 -1.74064e-09 -0.000132948)
(8.50941e-09 1.11159e-09 -0.000133141)
(-3.09429e-09 -7.75016e-09 -0.000133056)
(1.67884e-08 -4.74957e-09 -0.000124861)
(-1.44991e-08 6.78233e-09 -0.000125096)
(1.9223e-08 4.83771e-09 -0.000125099)
(-1.32738e-08 -5.46573e-09 -0.000124877)
(-1.64202e-08 6.39859e-09 -0.000125082)
(1.81566e-08 -4.03173e-09 -0.000124864)
(3.64904e-09 -8.21512e-09 -0.000133084)
(-9.63114e-09 -2.0596e-09 -0.000133178)
(-1.46616e-08 1.76929e-09 -0.000133105)
(1.66873e-08 -2.82058e-10 -0.000132935)
(-9.58799e-09 -9.56831e-10 -0.000133168)
(4.06609e-09 -6.88369e-09 -0.000133089)
(-6.29292e-09 9.73751e-09 -0.000125039)
(9.2588e-09 -1.74862e-09 -0.000125168)
(9.23414e-09 4.10892e-09 -0.00012513)
(-5.4371e-09 -8.43163e-09 -0.000125015)
(9.97633e-09 -3.18486e-09 -0.000125164)
(-5.42079e-09 9.29072e-09 -0.000125051)
(5.43282e-09 -1.01847e-08 -0.000125037)
(-9.94168e-09 4.52033e-10 -0.000125165)
(7.77314e-09 6.5257e-09 -0.000125024)
(-8.36119e-09 -5.44567e-09 -0.000125153)
(-8.94599e-09 3.16412e-09 -0.000125155)
(3.9203e-09 -1.10156e-08 -0.000125046)
(-8.91067e-09 -5.23621e-09 -0.000125145)
(6.9953e-09 6.08e-09 -0.000125034)
(-1.00933e-08 3.53128e-09 -0.000132936)
(1.72288e-08 -6.05437e-10 -0.000133118)
(8.70076e-09 2.03866e-10 -0.000133173)
(-2.91637e-09 8.83698e-09 -0.00013309)
(1.46916e-08 -2.28634e-09 -0.00013311)
(-1.21805e-08 1.99775e-09 -0.00013294)
(-1.26798e-08 6.96726e-09 -0.000124861)
(2.04434e-08 -4.98062e-09 -0.000125102)
(1.8179e-08 4.87747e-09 -0.000124854)
(-1.69536e-08 -5.36925e-09 -0.000125091)
(1.91732e-08 -4.88513e-09 -0.000125088)
(-1.30226e-08 5.24789e-09 -0.000124868)
(-1.67965e-08 -6.04435e-09 -0.000125076)
(1.67348e-08 4.57348e-09 -0.000124859)
(4.627e-09 6.09917e-09 -0.00013305)
(-5.76695e-09 -2.66899e-09 -0.000133143)
(1.80463e-08 -1.63981e-10 -0.00013292)
(-1.43191e-08 -2.03902e-09 -0.000133104)
(-7.99436e-09 -1.19511e-09 -0.000133138)
(5.72532e-09 3.05604e-09 -0.000133059)
(-1.17576e-08 -3.89952e-09 -0.000133091)
(1.46998e-08 1.14597e-09 -0.000132924)
(-1.18904e-08 -1.75231e-09 -0.000132935)
(1.47846e-08 1.44703e-09 -0.000133108)
(-3.27028e-09 -5.51e-09 -0.000133047)
(6.77235e-09 2.07807e-09 -0.000133134)
(1.33913e-08 1.11771e-09 -0.0001331)
(-1.38476e-08 -1.56119e-09 -0.000132928)
(6.45699e-09 1.40573e-09 -0.000133131)
(-3.88024e-09 -6.0969e-09 -0.000133045)
(1.73963e-08 -3.38739e-09 -0.000124843)
(-1.28896e-08 6.49752e-09 -0.000125067)
(1.7705e-08 3.88431e-09 -0.000125082)
(-1.54855e-08 -5.18219e-09 -0.000124855)
(-1.88019e-08 4.08698e-09 -0.000125062)
(1.67661e-08 -4.71818e-09 -0.000124838)
(3.30137e-09 -6.06737e-09 -0.000133074)
(-4.88676e-09 5.32308e-09 -0.000133158)
(-1.62857e-08 1.00883e-10 -0.000133077)
(1.54638e-08 -1.04156e-09 -0.00013291)
(-7.98301e-09 -1.98699e-09 -0.000133151)
(4.65536e-09 -5.45857e-09 -0.000133062)
(-4.45224e-09 8.79094e-09 -0.000125042)
(8.7953e-09 -4.03192e-09 -0.000125162)
(7.71969e-09 4.9553e-09 -0.000125121)
(-6.36738e-09 -8.24907e-09 -0.000125001)
(7.83941e-09 -6.25614e-09 -0.000125163)
(-6.53937e-09 6.91218e-09 -0.000125044)
(5.16356e-09 -9.19872e-09 -0.00012503)
(-6.78106e-09 6.4338e-09 -0.000125149)
(5.27581e-09 7.54208e-09 -0.000125023)
(-7.989e-09 -5.01421e-09 -0.000125141)
(-7.99567e-09 4.41048e-09 -0.000125144)
(6.79098e-09 -6.9446e-09 -0.000125024)
(-7.23762e-09 -6.64117e-09 -0.000125138)
(7.06361e-09 5.86195e-09 -0.000125022)
(-1.44435e-08 -4.31349e-11 -0.000132927)
(1.43563e-08 -2.17005e-09 -0.000133105)
(5.51123e-09 -3.94137e-09 -0.00013317)
(-5.14764e-09 3.61039e-09 -0.000133083)
(1.23516e-08 -2.3849e-09 -0.000133104)
(-1.56652e-08 5.76468e-10 -0.000132927)
(-1.63017e-08 4.57809e-09 -0.000124851)
(1.62357e-08 -5.02203e-09 -0.000125082)
(1.82684e-08 3.17655e-09 -0.000124841)
(-1.37017e-08 -4.99525e-09 -0.000125066)
(1.57764e-08 -4.76864e-09 -0.000125079)
(-1.73106e-08 3.91836e-09 -0.000124851)
(-1.63861e-08 -4.51172e-09 -0.000125063)
(1.82293e-08 4.08613e-09 -0.000124836)
(3.52889e-09 4.77872e-09 -0.000133048)
(-5.7041e-09 -3.95501e-09 -0.000133135)
(1.80563e-08 -1.38158e-09 -0.000132909)
(-1.30217e-08 -2.96847e-09 -0.000133081)
(-6.33321e-09 -2.06145e-09 -0.000133132)
(5.69728e-09 2.82451e-09 -0.000133045)
(-1.23999e-08 -2.85416e-09 -0.000133078)
(1.71944e-08 -1.68348e-10 -0.000132903)
(-1.51809e-08 -1.88016e-09 -0.000132921)
(1.27149e-08 2.24829e-09 -0.000133109)
(-5.75345e-09 -3.56465e-09 -0.000133042)
(6.2495e-09 1.79775e-09 -0.000133143)
(9.78376e-09 2.78297e-09 -0.000133106)
(-1.76703e-08 -4.51554e-10 -0.000132932)
(6.13848e-09 1.44027e-09 -0.000133143)
(-4.82669e-09 -5.62794e-09 -0.000133055)
(1.56523e-08 -5.20793e-09 -0.000124828)
(-1.68601e-08 3.37448e-09 -0.000125067)
(1.43187e-08 4.89231e-09 -0.000125087)
(-1.73965e-08 -4.89501e-09 -0.000124861)
(-1.88688e-08 3.64771e-09 -0.000125063)
(1.48943e-08 -6.69613e-09 -0.000124838)
(4.14109e-09 -6.74487e-09 -0.000133065)
(-8.01923e-09 -1.76244e-10 -0.000133163)
(-1.36623e-08 4.17932e-10 -0.00013308)
(1.62982e-08 -1.37065e-09 -0.000132907)
(-6.05126e-09 7.11058e-10 -0.000133157)
(5.09773e-09 -4.96774e-09 -0.000133078)
(-7.09876e-09 6.57356e-09 -0.000125042)
(6.77128e-09 -6.64585e-09 -0.000125175)
(6.56994e-09 5.72932e-09 -0.000125132)
(-7.81476e-09 -6.38911e-09 -0.000125014)
(7.02724e-09 -6.64393e-09 -0.000125173)
(-8.50702e-09 5.10885e-09 -0.000125058)
(6.61247e-09 -8.79606e-09 -0.000125024)
(-8.37838e-09 3.67826e-09 -0.000125158)
(7.65481e-09 6.79899e-09 -0.000125016)
(-6.50579e-09 -6.14701e-09 -0.000125149)
(-6.63997e-09 6.78013e-09 -0.000125152)
(6.9455e-09 -7.43743e-09 -0.00012504)
(-6.65138e-09 -7.04789e-09 -0.000125147)
(8.40974e-09 4.60762e-09 -0.000125031)
(-1.70671e-08 4.01359e-10 -0.000132925)
(1.2298e-08 -2.13752e-09 -0.000133116)
(4.76245e-09 -3.59278e-09 -0.000133179)
(-5.92055e-09 3.57663e-09 -0.000133097)
(1.09414e-08 -2.11007e-09 -0.000133112)
(-1.64118e-08 5.41387e-10 -0.000132941)
(-1.87953e-08 3.84593e-09 -0.000124846)
(1.44628e-08 -5.86527e-09 -0.000125093)
(1.77347e-08 4.10325e-09 -0.000124833)
(-1.69284e-08 -3.44755e-09 -0.000125073)
(1.6175e-08 -4.39394e-09 -0.000125088)
(-1.85258e-08 4.82805e-09 -0.000124861)
(-1.70808e-08 -4.87826e-09 -0.000125076)
(1.57291e-08 5.69977e-09 -0.000124847)
(6.14929e-09 3.64028e-09 -0.000133043)
(-4.57918e-09 -4.34822e-09 -0.000133142)
(1.65195e-08 9.3942e-10 -0.000132899)
(-1.43361e-08 -1.30245e-09 -0.000133087)
(-5.06299e-09 -2.88693e-09 -0.00013314)
(6.01198e-09 2.5241e-09 -0.000133056)
(-1.3507e-08 -8.80116e-10 -0.000133088)
(1.55265e-08 1.10901e-09 -0.000132912)
(-1.77182e-08 8.78906e-11 -0.000132924)
(1.09417e-08 3.94842e-09 -0.000133097)
(-5.54296e-09 -4.17534e-09 -0.000133051)
(6.44933e-09 4.25861e-09 -0.000133138)
(1.03448e-08 3.57337e-09 -0.000133085)
(-1.80868e-08 6.31509e-10 -0.000132915)
(4.57832e-09 4.83384e-09 -0.000133124)
(-5.23386e-09 -3.78183e-09 -0.000133044)
(1.54055e-08 -5.57832e-09 -0.000124827)
(-1.26796e-08 7.17659e-09 -0.000125058)
(1.55988e-08 4.59167e-09 -0.000125064)
(-1.74064e-08 -4.08588e-09 -0.000124843)
(-1.83782e-08 3.54434e-09 -0.000125047)
(1.69871e-08 -4.32979e-09 -0.000124827)
(5.73816e-09 -3.21978e-09 -0.000133067)
(-3.13107e-09 8.08399e-09 -0.000133154)
(-1.32052e-08 2.08384e-09 -0.000133066)
(1.85139e-08 1.10692e-09 -0.000132898)
(-7.26751e-09 1.70705e-09 -0.000133144)
(6.20961e-09 -1.92888e-09 -0.000133057)
(-7.29041e-09 6.70923e-09 -0.00012505)
(8.25951e-09 -5.19798e-09 -0.000125168)
(6.73404e-09 7.81483e-09 -0.000125118)
(-7.73937e-09 -4.13477e-09 -0.000125005)
(7.63417e-09 -4.94517e-09 -0.000125153)
(-5.76659e-09 6.8752e-09 -0.000125047)
(7.99194e-09 -5.67956e-09 -0.000125027)
(-6.38482e-09 1.00869e-08 -0.000125148)
(7.86172e-09 5.55709e-09 -0.000125023)
(-8.51689e-09 -4.42703e-09 -0.000125142)