/*--------------------------------*- C++ -*----------------------------------*\
| =========                 |                                                 |
| \\      /  F ield         | OpenFOAM: The Open Source CFD Toolbox           |
|  \\    /   O peration     | Version:  2206                                  |
|   \\  /    A nd           | Website:  www.openfoam.com                      |
|    \\/     M anipulation  |                                                 |
\*---------------------------------------------------------------------------*/
FoamFile
{
    version     2.0;
    format      ascii;
    arch        "LSB;label=32;scalar=64";
    class       volScalarField;
    location    "0.3";
    object      nut;
}
// * * * * * * * * * * * * * * * * * * * * * * * * * * * * * * * * * * * * * //

dimensions      [0 2 -1 0 0 0 0];

internalField   nonuniform List<scalar> 
66940
(
1.09368e-06
1.20931e-06
1.20545e-06
1.2777e-06
1.09459e-06
1.21057e-06
1.20573e-06
1.27701e-06
1.09548e-06
1.2117e-06
1.20634e-06
1.2786e-06
1.09554e-06
1.21223e-06
1.20661e-06
1.27871e-06
1.09427e-06
1.21136e-06
1.20552e-06
1.27837e-06
1.09383e-06
1.21078e-06
1.20503e-06
1.27686e-06
1.09376e-06
1.21038e-06
1.20481e-06
1.27702e-06
1.09379e-06
1.20996e-06
1.20454e-06
1.26455e-06
1.09419e-06
1.21019e-06
1.20485e-06
1.24489e-06
1.09707e-06
1.21227e-06
1.20704e-06
1.18939e-06
9.13912e-07
1.14814e-06
1.17688e-06
9.71873e-07
5.12872e-07
4.62634e-07
4.08143e-07
5.33579e-07
1.2479e-06
1.20462e-06
1.2046e-06
1.24744e-06
1.20921e-06
1.20869e-06
1.20865e-06
1.20836e-06
1.24803e-06
1.20514e-06
1.20561e-06
1.24606e-06
1.27766e-06
1.24786e-06
1.20488e-06
1.20488e-06
1.20531e-06
1.2053e-06
1.27697e-06
1.24745e-06
1.20984e-06
1.2093e-06
1.21083e-06
1.21025e-06
1.20891e-06
1.21024e-06
1.20992e-06
1.27748e-06
1.24794e-06
1.20547e-06
1.20562e-06
1.20558e-06
1.24735e-06
1.27807e-06
1.24859e-06
1.20535e-06
1.20538e-06
1.20596e-06
1.2061e-06
1.27728e-06
1.24827e-06
1.21109e-06
1.21051e-06
1.21197e-06
1.21129e-06
1.21007e-06
1.21142e-06
1.21131e-06
1.27767e-06
1.24861e-06
1.20568e-06
1.2062e-06
1.20646e-06
1.2469e-06
1.27905e-06
1.24962e-06
1.20607e-06
1.20617e-06
1.2064e-06
1.20654e-06
1.27855e-06
1.24917e-06
1.21216e-06
1.21148e-06
1.21275e-06
1.21201e-06
1.21149e-06
1.21221e-06
1.21204e-06
1.27844e-06
1.24949e-06
1.2064e-06
1.20661e-06
1.20658e-06
1.24889e-06
1.27999e-06
1.2497e-06
1.20635e-06
1.20647e-06
1.20562e-06
1.20585e-06
1.27923e-06
1.24934e-06
1.21271e-06
1.21198e-06
1.2122e-06
1.21141e-06
1.21202e-06
1.21167e-06
1.21142e-06
1.27927e-06
1.24953e-06
1.20658e-06
1.20584e-06
1.20604e-06
1.24763e-06
1.27922e-06
1.25078e-06
1.20525e-06
1.20543e-06
1.20477e-06
1.20489e-06
1.27868e-06
1.2504e-06
1.2118e-06
1.21103e-06
1.21133e-06
1.21048e-06
1.21102e-06
1.21079e-06
1.21035e-06
1.27842e-06
1.25054e-06
1.20556e-06
1.20502e-06
1.20485e-06
1.24972e-06
1.27835e-06
1.25579e-06
1.20473e-06
1.20483e-06
1.20453e-06
1.20465e-06
1.27764e-06
1.2552e-06
1.21127e-06
1.21044e-06
1.21098e-06
1.21015e-06
1.2103e-06
1.2104e-06
1.21001e-06
1.27756e-06
1.25549e-06
1.2049e-06
1.2048e-06
1.20481e-06
1.25379e-06
1.27515e-06
1.26561e-06
1.2045e-06
1.20462e-06
1.2042e-06
1.2043e-06
1.27477e-06
1.26474e-06
1.21089e-06
1.2101e-06
1.21042e-06
1.2096e-06
1.21005e-06
1.20984e-06
1.20947e-06
1.27455e-06
1.26513e-06
1.20478e-06
1.20439e-06
1.20402e-06
1.26439e-06
1.26351e-06
1.27681e-06
1.20432e-06
1.20441e-06
1.20444e-06
1.20456e-06
1.26419e-06
1.27632e-06
1.21049e-06
1.20969e-06
1.21045e-06
1.20961e-06
1.20954e-06
1.2099e-06
1.20947e-06
1.2625e-06
1.2759e-06
1.20436e-06
1.20452e-06
1.20459e-06
1.27622e-06
1.24278e-06
1.27708e-06
1.20471e-06
1.20481e-06
1.20623e-06
1.20637e-06
1.24407e-06
1.2765e-06
1.21072e-06
1.2099e-06
1.21209e-06
1.21122e-06
1.20983e-06
1.21161e-06
1.21142e-06
1.24098e-06
1.27615e-06
1.20474e-06
1.20627e-06
1.20622e-06
1.2755e-06
1.19003e-06
1.28093e-06
1.20693e-06
1.20707e-06
1.07958e-06
1.07685e-06
1.19344e-06
1.28048e-06
1.21275e-06
1.21189e-06
1.06762e-06
1.06709e-06
1.21208e-06
1.0613e-06
1.06545e-06
1.1872e-06
1.28006e-06
1.20697e-06
1.08254e-06
1.08119e-06
1.28022e-06
9.78965e-07
8.69354e-07
1.17183e-06
1.17282e-06
7.19637e-07
7.16945e-07
9.82343e-07
8.71392e-07
1.1469e-06
1.14419e-06
7.18157e-07
7.19744e-07
1.14493e-06
7.16653e-07
7.19715e-07
9.77303e-07
8.71591e-07
1.17589e-06
7.19564e-07
7.17566e-07
8.72605e-07
5.34128e-07
4.08423e-07
4.03324e-07
5.53821e-07
4.07594e-07
4.08588e-07
4.92361e-07
5.13578e-07
5.14121e-07
4.08292e-07
5.33698e-07
4.0749e-07
4.18001e-08
1.09316e-06
1.09296e-06
1.09317e-06
1.093e-06
5.47695e-07
1.208e-06
2.87376e-07
1.1313e-06
1.25077e-06
1.86865e-07
1.88743e-07
2.87019e-07
8.97655e-08
2.865e-07
8.96134e-08
4.20764e-08
4.19075e-08
2.77606e-07
8.69567e-08
2.76767e-07
8.72573e-08
1.0934e-06
1.09359e-06
1.09356e-06
1.09427e-06
1.0942e-06
1.09432e-06
1.09477e-06
5.48076e-07
2.87157e-07
1.13216e-06
1.20968e-06
5.5491e-07
2.87734e-07
1.13245e-06
4.10125e-08
4.09537e-08
5.73253e-07
1.12809e-06
2.94165e-07
1.20548e-06
5.76773e-07
1.128e-06
2.94476e-07
1.86128e-07
1.89893e-07
1.24696e-06
1.86666e-07
1.90405e-07
2.87001e-07
8.92351e-08
2.86716e-07
8.93362e-08
4.18381e-08
4.18224e-08
2.77293e-07
8.68073e-08
2.7651e-07
8.71422e-08
1.09443e-06
1.09453e-06
1.09498e-06
1.09537e-06
1.09541e-06
1.09541e-06
1.09569e-06
5.47927e-07
2.87091e-07
1.13326e-06
1.21084e-06
5.54963e-07
2.8758e-07
1.13354e-06
4.0947e-08
4.09073e-08
5.72515e-07
1.12798e-06
2.94363e-07
1.20584e-06
5.75756e-07
1.1279e-06
2.94523e-07
1.859e-07
1.89348e-07
1.24734e-06
1.86657e-07
1.89968e-07
2.87504e-07
8.91872e-08
2.86998e-07
8.93534e-08
4.18417e-08
4.18376e-08
2.77511e-07
8.67857e-08
2.7654e-07
8.71457e-08
1.09545e-06
1.09542e-06
1.09578e-06
1.09557e-06
1.09567e-06
1.09559e-06
1.09626e-06
5.4854e-07
2.8712e-07
1.13439e-06
1.2119e-06
5.55023e-07
2.87732e-07
1.13449e-06
4.09255e-08
4.09008e-08
5.72964e-07
1.12797e-06
2.94571e-07
1.20643e-06
5.7557e-07
1.12786e-06
2.94864e-07
1.85793e-07
1.89564e-07
1.2482e-06
1.86404e-07
1.90322e-07
2.87996e-07
8.9224e-08
2.87582e-07
8.93785e-08
4.18587e-08
4.18543e-08
2.77634e-07
8.67736e-08
2.76739e-07
8.71188e-08
1.09554e-06
1.09545e-06
1.09609e-06
1.09466e-06
1.09472e-06
1.09463e-06
1.09495e-06
5.4902e-07
2.87274e-07
1.13478e-06
1.21215e-06
5.55847e-07
2.87815e-07
1.13462e-06
4.0918e-08
4.08882e-08
5.73852e-07
1.12786e-06
2.94904e-07
1.20651e-06
5.76573e-07
1.12759e-06
2.95101e-07
1.85783e-07
1.8957e-07
1.2488e-06
1.86575e-07
1.9022e-07
2.88176e-07
8.92398e-08
2.87845e-07
8.93913e-08
4.18583e-08
4.18317e-08
2.77503e-07
8.67205e-08
2.76678e-07
8.70509e-08
1.09418e-06
1.09413e-06
1.09448e-06
1.09388e-06
1.09384e-06
1.09383e-06
1.09433e-06
5.48443e-07
2.8713e-07
1.13363e-06
1.21101e-06
5.55771e-07
2.87588e-07
1.13335e-06
4.08961e-08
4.08565e-08
5.7378e-07
1.12652e-06
2.94926e-07
1.20518e-06
5.77021e-07
1.12625e-06
2.95071e-07
1.85641e-07
1.8966e-07
1.24854e-06
1.86174e-07
1.90312e-07
2.8812e-07
8.91773e-08
2.87852e-07
8.93164e-08
4.18027e-08
4.1787e-08
2.77268e-07
8.65935e-08
2.76523e-07
8.69102e-08
1.09366e-06
1.09366e-06
1.09412e-06
1.09381e-06
1.09375e-06
1.09376e-06
1.09398e-06
5.48147e-07
2.86917e-07
1.1331e-06
1.2106e-06
5.55645e-07
2.87341e-07
1.13301e-06
4.08421e-08
4.07892e-08
5.73812e-07
1.12614e-06
2.94883e-07
1.2049e-06
5.77281e-07
1.12607e-06
2.94929e-07
1.85474e-07
1.89432e-07
1.25173e-06
1.8616e-07
1.89975e-07
2.87939e-07
8.90657e-08
2.87745e-07
8.93252e-08
4.17697e-08
4.17535e-08
2.76858e-07
8.64128e-08
2.76191e-07
8.68346e-08
1.0936e-06
1.09361e-06
1.09386e-06
1.09382e-06
1.09375e-06
1.09376e-06
1.09418e-06
5.46937e-07
2.86571e-07
1.13289e-06
1.21004e-06
5.56155e-07
2.86908e-07
1.13275e-06
4.07705e-08
4.07316e-08
5.73112e-07
1.12615e-06
2.94585e-07
1.20452e-06
5.78182e-07
1.12608e-06
2.9456e-07
1.85171e-07
1.89305e-07
1.2582e-06
1.85637e-07
1.89888e-07
2.87963e-07
8.90108e-08
2.87789e-07
8.95141e-08
4.17667e-08
4.17789e-08
2.7665e-07
8.62673e-08
2.76051e-07
8.69339e-08
1.09362e-06
1.09363e-06
1.09397e-06
1.09407e-06
1.09401e-06
1.09401e-06
1.09418e-06
5.45867e-07
2.86376e-07
1.13263e-06
1.2097e-06
5.57625e-07
2.86658e-07
1.13256e-06
4.0738e-08
4.07193e-08
5.72289e-07
1.12618e-06
2.94436e-07
1.20431e-06
5.80038e-07
1.12617e-06
2.94364e-07
1.8509e-07
1.89171e-07
1.27385e-06
1.85755e-07
1.89707e-07
2.88122e-07
8.87936e-08
2.88021e-07
8.98787e-08
4.17889e-08
4.18112e-08
2.76582e-07
8.60544e-08
2.76294e-07
8.728e-08
1.09403e-06
1.09402e-06
1.09417e-06
1.09576e-06
1.09574e-06
1.09572e-06
1.0959e-06
5.45704e-07
2.86395e-07
1.13298e-06
1.21034e-06
5.61184e-07
2.86412e-07
1.1333e-06
4.07155e-08
4.07264e-08
5.72675e-07
1.12693e-06
2.94426e-07
1.20499e-06
5.83902e-07
1.12733e-06
2.94245e-07
1.8511e-07
1.89333e-07
1.27557e-06
1.85511e-07
1.89843e-07
2.88382e-07
8.81842e-08
2.88369e-07
9.12041e-08
4.18639e-08
4.20611e-08
2.76402e-07
8.54831e-08
2.77025e-07
8.85493e-08
1.09695e-06
1.0969e-06
1.09706e-06
1.11055e-06
1.11054e-06
1.11051e-06
1.1106e-06
5.50562e-07
2.86073e-07
1.13634e-06
1.21492e-06
5.68833e-07
2.86171e-07
1.13882e-06
4.07976e-08
4.09723e-08
5.78666e-07
1.13069e-06
2.939e-07
1.20962e-06
5.91777e-07
1.13338e-06
2.94202e-07
1.84882e-07
1.88816e-07
1.27678e-06
1.8629e-07
1.90265e-07
2.79759e-07
8.66972e-08
2.89364e-07
9.42542e-08
4.23624e-08
4.31265e-08
2.7629e-07
8.47082e-08
2.82965e-07
9.27657e-08
9.13401e-07
9.1332e-07
9.11694e-07
4.13073e-07
4.1142e-07
4.13621e-07
4.13487e-07
5.99131e-07
2.88089e-07
9.03141e-07
9.08087e-07
6.0052e-07
2.85155e-07
7.92503e-07
4.15272e-08
4.26132e-08
6.10958e-07
9.07591e-07
2.94213e-07
9.21534e-07
6.14824e-07
7.9802e-07
2.87821e-07
1.84882e-07
1.88468e-07
1.02868e-06
1.8955e-07
1.91438e-07
2.93577e-07
3.09138e-09
2.22236e-07
2.68626e-08
2.94681e-09
1.81439e-08
2.91599e-07
3.05064e-09
2.21079e-07
2.67034e-08
5.22597e-07
3.70448e-07
3.68123e-07
4.23554e-07
4.59187e-07
3.75918e-07
3.75986e-07
7.00837e-07
1.21364e-07
6.0713e-07
4.00433e-07
6.52023e-07
1.0247e-07
3.5831e-07
2.92526e-09
1.79962e-08
6.79533e-07
6.11138e-07
1.22418e-07
3.95463e-07
6.44852e-07
3.62501e-07
1.02999e-07
7.61724e-08
7.68141e-08
4.78858e-07
5.30264e-08
5.3365e-08
4.21073e-08
4.18339e-08
4.10419e-08
4.11087e-08
1.2771e-06
1.90672e-07
1.86452e-07
1.8925e-07
1.85547e-07
8.87565e-08
1.20798e-06
2.90293e-07
2.81858e-07
8.99781e-08
8.89751e-08
2.8662e-07
2.8181e-07
8.99201e-08
8.89329e-08
2.86565e-07
5.6504e-07
1.20444e-06
2.93899e-07
1.12698e-06
2.91243e-07
1.12775e-06
5.74567e-07
5.64982e-07
1.20443e-06
2.93817e-07
1.1269e-06
2.91148e-07
1.12767e-06
5.74461e-07
1.25172e-06
1.8853e-07
1.8669e-07
4.1036e-08
4.21055e-08
4.18616e-08
1.27645e-06
1.90267e-07
1.86806e-07
1.8889e-07
1.85869e-07
4.09961e-08
4.10968e-08
2.76612e-07
8.73221e-08
8.69605e-08
2.77624e-07
5.54705e-07
1.20871e-06
2.87721e-07
1.13157e-06
2.87011e-07
1.1313e-06
5.47948e-07
2.76589e-07
8.72116e-08
8.6844e-08
2.77599e-07
5.54702e-07
1.2082e-06
1.13137e-06
2.87452e-07
1.1311e-06
2.86741e-07
5.47952e-07
2.77414e-07
8.72174e-08
5.47728e-07
1.20766e-06
1.13114e-06
2.87348e-07
2.77407e-07
8.72089e-08
5.547e-07
1.20822e-06
2.87662e-07
1.13153e-06
2.8696e-07
1.13133e-06
5.47946e-07
2.76631e-07
8.72301e-08
8.68775e-08
2.77647e-07
5.54741e-07
1.2079e-06
1.13138e-06
2.87621e-07
1.13114e-06
2.86913e-07
5.47985e-07
2.76628e-07
8.72136e-08
8.68669e-08
2.7764e-07
4.09824e-08
4.10475e-08
1.27703e-06
1.86314e-07
1.90931e-07
1.8559e-07
1.89326e-07
4.22136e-08
4.19342e-08
5.64953e-07
1.20496e-06
1.12762e-06
2.94185e-07
1.12837e-06
2.91485e-07
5.7449e-07
5.64963e-07
1.20536e-06
1.12755e-06
2.94215e-07
1.12829e-06
2.91548e-07
5.7444e-07
2.81793e-07
9.00867e-08
8.9038e-08
2.86586e-07
2.81804e-07
9.01205e-08
8.90853e-08
2.86586e-07
4.10502e-08
4.18901e-08
1.27748e-06
1.86928e-07
1.90554e-07
1.86088e-07
1.89065e-07
4.09995e-08
4.11076e-08
4.22158e-08
4.19591e-08
4.21042e-08
4.19036e-08
4.10891e-08
4.09973e-08
1.90098e-07
1.85622e-07
1.24785e-06
1.90483e-07
1.86427e-07
4.18214e-08
4.19151e-08
4.09662e-08
4.10467e-08
1.27785e-06
1.90289e-07
1.8628e-07
1.89893e-07
1.85568e-07
2.86951e-07
8.97185e-08
2.86496e-07
8.95709e-08
5.73295e-07
2.93882e-07
1.12735e-06
1.205e-06
5.76896e-07
2.94123e-07
1.12736e-06
5.73197e-07
2.93761e-07
1.12729e-06
1.20499e-06
5.76865e-07
2.94054e-07
1.12732e-06
2.86784e-07
8.93997e-08
8.94361e-08
2.87016e-07
2.86728e-07
8.93433e-08
8.93884e-08
2.8694e-07
5.76163e-07
1.20522e-06
2.94131e-07
1.12752e-06
2.93991e-07
1.12753e-06
5.72746e-07
5.76125e-07
1.20517e-06
2.9403e-07
1.12751e-06
2.9388e-07
1.1275e-06
5.72646e-07
1.89727e-07
1.85935e-07
1.24655e-06
1.90146e-07
1.86651e-07
4.10487e-08
4.09725e-08
4.18285e-08
4.1922e-08
1.27726e-06
1.89893e-07
1.86611e-07
1.89489e-07
1.85858e-07
4.09092e-08
4.1016e-08
5.48078e-07
2.87239e-07
1.13212e-06
1.2102e-06
5.54925e-07
2.87816e-07
1.13246e-06
2.77616e-07
8.68572e-08
2.76758e-07
8.71583e-08
5.48083e-07
1.13194e-06
2.86955e-07
1.20966e-06
5.54931e-07
1.1323e-06
2.87555e-07
2.76708e-07
8.71723e-08
8.68947e-08
2.77417e-07
5.55e-07
1.21058e-06
2.87731e-07
1.13301e-06
2.87276e-07
1.13283e-06
5.48026e-07
2.76719e-07
8.70637e-08
8.67945e-08
2.77432e-07
5.55005e-07
1.21002e-06
1.13288e-06
2.87444e-07
1.1327e-06
2.86994e-07
5.4805e-07
2.77699e-07
8.68722e-08
2.76817e-07
8.71609e-08
5.48118e-07
1.1319e-06
2.87111e-07
1.20925e-06
5.54971e-07
1.13228e-06
2.87662e-07
2.77692e-07
8.68556e-08
2.76814e-07
8.71433e-08
5.54993e-07
1.20998e-06
2.87665e-07
1.13291e-06
2.87221e-07
1.13267e-06
5.48068e-07
2.768e-07
8.7063e-08
8.67965e-08
2.77513e-07
5.55043e-07
1.20943e-06
1.13287e-06
2.87589e-07
1.13261e-06
2.87111e-07
5.48106e-07
2.76798e-07
8.70451e-08
8.67781e-08
2.77504e-07
1.85525e-07
1.90327e-07
1.24801e-06
1.86301e-07
1.90793e-07
4.21958e-08
4.19982e-08
4.091e-08
4.09904e-08
1.27759e-06
1.8612e-07
1.90604e-07
1.85571e-07
1.9008e-07
4.19168e-08
4.20168e-08
5.73208e-07
1.12789e-06
2.94259e-07
1.20551e-06
5.76817e-07
1.1279e-06
2.94541e-07
2.87084e-07
8.9892e-08
2.86519e-07
8.97455e-08
2.87081e-07
8.99216e-08
2.8654e-07
8.97572e-08
5.7613e-07
1.20558e-06
1.12798e-06
2.94524e-07
1.12797e-06
2.94382e-07
5.72823e-07
5.76159e-07
1.20548e-06
1.12803e-06
2.94458e-07
1.12805e-06
2.9443e-07
5.72793e-07
2.86878e-07
8.95094e-08
8.95652e-08
2.87147e-07
2.869e-07
8.95126e-08
8.95733e-08
2.87138e-07
4.1049e-08
4.09638e-08
4.21926e-08
4.19521e-08
1.27716e-06
1.86716e-07
1.89984e-07
1.86023e-07
1.89621e-07
4.09257e-08
4.10063e-08
4.18683e-08
4.19672e-08
4.18468e-08
4.18155e-08
4.10162e-08
4.09504e-08
1.89721e-07
1.8542e-07
1.24815e-06
1.9026e-07
1.86184e-07
4.18235e-08
4.1848e-08
4.09435e-08
4.10063e-08
1.2785e-06
1.9035e-07
1.86157e-07
1.89729e-07
1.85334e-07
2.86923e-07
8.91828e-08
2.86678e-07
8.92427e-08
5.72403e-07
2.93979e-07
1.12744e-06
1.20551e-06
5.757e-07
2.9417e-07
1.12747e-06
5.72304e-07
2.93861e-07
1.12743e-06
1.20558e-06
5.75671e-07
2.94046e-07
1.12747e-06
2.8677e-07
8.93234e-08
8.91967e-08
2.8719e-07
2.86704e-07
8.92199e-08
8.90965e-08
2.87113e-07
5.75387e-07
1.20576e-06
2.94349e-07
1.12762e-06
2.94076e-07
1.12758e-06
5.72449e-07
5.75352e-07
1.20585e-06
2.94202e-07
1.12763e-06
2.93921e-07
1.12759e-06
5.72346e-07
1.89322e-07
1.85741e-07
1.24781e-06
1.89843e-07
1.8652e-07
4.09605e-08
4.0903e-08
4.18219e-08
4.18485e-08
1.27784e-06
1.8989e-07
1.86524e-07
1.8931e-07
1.85654e-07
4.09021e-08
4.09587e-08
5.4787e-07
2.87174e-07
1.13325e-06
1.21138e-06
5.54931e-07
2.87661e-07
1.13362e-06
2.77302e-07
8.67008e-08
2.7653e-07
8.70039e-08
5.47899e-07
1.13315e-06
2.86869e-07
1.21075e-06
5.5496e-07
1.13352e-06
2.87369e-07
2.76423e-07
8.71412e-08
8.67905e-08
2.77373e-07
5.54759e-07
1.21169e-06
2.87723e-07
1.13423e-06
2.87122e-07
1.13397e-06
5.47933e-07
2.76426e-07
8.69774e-08
8.66476e-08
2.77367e-07
5.54783e-07
1.21105e-06
1.13413e-06
2.87415e-07
1.13388e-06
2.86813e-07
5.47956e-07
2.7737e-07
8.67018e-08
2.76605e-07
8.70103e-08
5.4797e-07
1.13311e-06
2.87018e-07
1.2104e-06
5.55017e-07
1.13351e-06
2.87514e-07
2.77359e-07
8.66817e-08
2.76599e-07
8.70022e-08
5.54799e-07
1.21112e-06
2.87636e-07
1.13418e-06
2.87042e-07
1.13386e-06
5.47977e-07
2.76489e-07
8.69902e-08
8.66548e-08
2.77434e-07
5.54854e-07
1.21078e-06
1.13422e-06
2.87574e-07
1.1339e-06
2.86965e-07
5.4803e-07
2.76482e-07
8.69829e-08
8.66468e-08
2.77422e-07
1.85302e-07
1.89997e-07
1.24822e-06
1.86046e-07
1.90567e-07
4.1937e-08
4.18953e-08
4.08822e-08
4.09493e-08
1.27811e-06
1.8605e-07
1.9061e-07
1.85362e-07
1.89889e-07
4.19017e-08
4.19354e-08
5.72484e-07
1.12794e-06
2.9432e-07
1.20591e-06
5.75802e-07
1.12794e-06
2.94428e-07
2.87114e-07
8.93518e-08
2.86864e-07
8.94032e-08
2.87109e-07
8.93504e-08
2.86878e-07
8.94108e-08
5.75463e-07
1.206e-06
1.12802e-06
2.94669e-07
1.12794e-06
2.94427e-07
5.72468e-07
5.75509e-07
1.20619e-06
1.12803e-06
2.94557e-07
1.12803e-06
2.94335e-07
5.72428e-07
2.86861e-07
8.93778e-08
8.92564e-08
2.87251e-07
2.86878e-07
8.93872e-08
8.92631e-08
2.87246e-07
4.09687e-08
4.08913e-08
4.18974e-08
4.18716e-08
1.27807e-06
1.86596e-07
1.90128e-07
1.85835e-07
1.89422e-07
4.08861e-08
4.09453e-08
4.19003e-08
4.19094e-08
4.18564e-08
4.18354e-08
4.09998e-08
4.09304e-08
1.89826e-07
1.85327e-07
1.24929e-06
1.90423e-07
1.86165e-07
4.18365e-08
4.18695e-08
4.09321e-08
4.09847e-08
1.27976e-06
1.90445e-07
1.86124e-07
1.89882e-07
1.85319e-07
2.87426e-07
8.90908e-08
2.86968e-07
8.92555e-08
5.7297e-07
2.94275e-07
1.12753e-06
1.20621e-06
5.75604e-07
2.94554e-07
1.12753e-06
5.72867e-07
2.94107e-07
1.12754e-06
1.20635e-06
5.75572e-07
2.94439e-07
1.12753e-06
2.87341e-07
8.93634e-08
8.92271e-08
2.87802e-07
2.87275e-07
8.92766e-08
8.91279e-08
2.87718e-07
5.76103e-07
1.20635e-06
2.94697e-07
1.12758e-06
2.94465e-07
1.12758e-06
5.73431e-07
5.76064e-07
1.20648e-06
2.94574e-07
1.12758e-06
2.94314e-07
1.12759e-06
5.73332e-07
1.89404e-07
1.85658e-07
1.24803e-06
1.90058e-07
1.86424e-07
4.09595e-08
4.09094e-08
4.18407e-08
4.18745e-08
1.27917e-06
1.9001e-07
1.86537e-07
1.8944e-07
1.85668e-07
4.08956e-08
4.09595e-08
5.48494e-07
2.87221e-07
1.13434e-06
1.2124e-06
5.54997e-07
2.87825e-07
1.13451e-06
2.77505e-07
8.66242e-08
2.76542e-07
8.69803e-08
5.48512e-07
1.13425e-06
2.86896e-07
1.2117e-06
5.55019e-07
1.13442e-06
2.87528e-07
2.76678e-07
8.71346e-08
8.67966e-08
2.77611e-07
5.55525e-07
1.21264e-06
2.87879e-07
1.13476e-06
2.87311e-07
1.13468e-06
5.4879e-07
2.76664e-07
8.69684e-08
8.66313e-08
2.77595e-07
5.55539e-07
1.21192e-06
1.13467e-06
2.87574e-07
1.1346e-06
2.87001e-07
5.48804e-07
2.7758e-07
8.66407e-08
2.76607e-07
8.69878e-08
5.48593e-07
1.13434e-06
2.87049e-07
1.21168e-06
5.55097e-07
1.13458e-06
2.87645e-07
2.77567e-07
8.66335e-08
2.76599e-07
8.69783e-08
5.55561e-07
1.2121e-06
2.87819e-07
1.13477e-06
2.87252e-07
1.13463e-06
5.48855e-07
2.76738e-07
8.69673e-08
8.66354e-08
2.77674e-07
5.55622e-07
1.21196e-06
1.13488e-06
2.87731e-07
1.13473e-06
2.87129e-07
5.48906e-07
2.76729e-07
8.69474e-08
8.66228e-08
2.7766e-07
1.85259e-07
1.90047e-07
1.24914e-06
1.86066e-07
1.90707e-07
4.19351e-08
4.1912e-08
4.08767e-08
4.0942e-08
1.27908e-06
1.86055e-07
1.90714e-07
1.85392e-07
1.90034e-07
4.19161e-08
4.19548e-08
5.72919e-07
1.12796e-06
2.94525e-07
1.20645e-06
5.75618e-07
1.12793e-06
2.94802e-07
2.87535e-07
8.92435e-08
2.87071e-07
8.93905e-08
2.87525e-07
8.92527e-08
2.87085e-07
8.93943e-08
5.76068e-07
1.20654e-06
1.12792e-06
2.9503e-07
1.12787e-06
2.94802e-07
5.73446e-07
5.76097e-07
1.20659e-06
1.12798e-06
2.94904e-07
1.12801e-06
2.94734e-07
5.73409e-07
2.87357e-07
8.94054e-08
8.92612e-08
2.87827e-07
2.87367e-07
8.94144e-08
8.92635e-08
2.87808e-07
4.09444e-08
4.08927e-08
4.19375e-08
4.18916e-08
1.27878e-06
1.86578e-07
1.90186e-07
1.85789e-07
1.896e-07
4.08724e-08
4.09447e-08
4.1904e-08
4.1936e-08
4.18696e-08
4.1839e-08
4.09871e-08
4.09145e-08
1.89898e-07
1.85286e-07
1.24985e-06
1.90444e-07
1.86104e-07
4.18321e-08
4.18709e-08
4.09089e-08
4.09672e-08
1.27996e-06
1.90392e-07
1.86027e-07
1.89886e-07
1.85256e-07
2.87897e-07
8.91456e-08
2.87537e-07
8.92943e-08
5.73829e-07
2.94579e-07
1.12741e-06
1.20628e-06
5.76591e-07
2.94777e-07
1.12722e-06
5.73731e-07
2.94451e-07
1.12743e-06
1.20642e-06
5.76567e-07
2.94664e-07
1.12726e-06
2.87767e-07
8.93809e-08
8.92488e-08
2.88123e-07
2.87676e-07
8.93061e-08
8.91603e-08
2.88007e-07
5.76935e-07
1.20605e-06
2.9477e-07
1.1265e-06
2.94641e-07
1.12683e-06
5.7396e-07
5.76902e-07
1.20625e-06
2.94677e-07
1.12654e-06
2.94513e-07
1.12687e-06
5.73847e-07
1.89474e-07
1.85688e-07
1.24953e-06
1.90034e-07
1.86508e-07
4.09491e-08
4.08837e-08
4.18444e-08
4.18845e-08
1.27928e-06
1.90002e-07
1.86443e-07
1.89498e-07
1.8564e-07
4.08706e-08
4.09375e-08
5.48947e-07
2.87346e-07
1.13468e-06
1.21268e-06
5.55792e-07
2.87891e-07
1.13463e-06
2.77624e-07
8.66128e-08
2.76735e-07
8.69569e-08
5.48965e-07
1.13458e-06
2.87025e-07
1.21195e-06
5.55809e-07
1.13453e-06
2.8759e-07
2.7675e-07
8.70829e-08
8.6765e-08
2.77584e-07
5.5589e-07
1.21259e-06
2.87802e-07
1.13407e-06
2.87345e-07
1.1344e-06
5.48815e-07
2.76734e-07
8.69234e-08
8.66032e-08
2.77563e-07
5.55904e-07
1.21183e-06
1.13395e-06
2.87484e-07
1.13429e-06
2.87021e-07
5.48827e-07
2.77695e-07
8.6614e-08
2.7681e-07
8.69464e-08
5.49072e-07
1.1348e-06
2.87182e-07
1.21197e-06
5.55913e-07
1.13472e-06
2.87708e-07
2.7768e-07
8.65918e-08
2.76798e-07
8.69189e-08
5.55949e-07
1.21201e-06
2.87698e-07
1.13408e-06
2.87263e-07
1.13436e-06
5.4887e-07
2.76798e-07
8.69091e-08
8.6591e-08
2.77625e-07
5.5601e-07
1.21178e-06
1.13411e-06
2.87588e-07
1.13443e-06
2.87139e-07
5.48919e-07
2.76787e-07
8.68804e-08
8.65624e-08
2.77606e-07
1.85254e-07
1.9013e-07
1.24972e-06
1.86024e-07
1.90721e-07
4.19446e-08
4.19117e-08
4.08563e-08
4.09268e-08
1.27928e-06
1.85963e-07
1.9066e-07
1.8533e-07
1.90035e-07
4.19045e-08
4.19508e-08
5.73812e-07
1.12783e-06
2.9481e-07
1.20656e-06
5.76614e-07
1.12772e-06
2.94967e-07
2.87998e-07
8.92743e-08
2.87627e-07
8.94024e-08
2.87978e-07
8.92803e-08
2.87626e-07
8.94008e-08
5.7693e-07
1.20624e-06
1.12691e-06
2.95091e-07
1.12719e-06
2.94986e-07
5.73971e-07
5.76966e-07
1.2065e-06
1.12698e-06
2.94924e-07
1.12741e-06
2.94846e-07
5.73915e-07
2.87751e-07
8.93911e-08
8.92648e-08
2.88099e-07
2.87752e-07
8.93789e-08
8.92601e-08
2.8807e-07
4.09201e-08
4.08524e-08
4.19401e-08
4.19039e-08
1.27918e-06
1.86447e-07
1.90277e-07
1.85754e-07
1.8965e-07
4.08298e-08
4.09037e-08
4.19119e-08
4.1938e-08
4.18624e-08
4.18257e-08
4.09616e-08
4.08791e-08
1.89841e-07
1.85185e-07
1.24968e-06
1.90368e-07
1.85957e-07
4.17974e-08
4.18524e-08
4.08531e-08
4.09277e-08
1.27848e-06
1.90262e-07
1.85829e-07
1.89814e-07
1.85115e-07
2.8805e-07
8.91687e-08
2.87759e-07
8.93078e-08
5.73819e-07
2.94615e-07
1.126e-06
1.20494e-06
5.77059e-07
2.94744e-07
1.12583e-06
5.73692e-07
2.945e-07
1.12602e-06
1.20512e-06
5.77015e-07
2.9466e-07
1.12585e-06
2.87893e-07
8.93437e-08
8.92498e-08
2.88164e-07
2.8778e-07
8.92634e-08
8.91619e-08
2.88027e-07
5.77007e-07
1.20491e-06
2.94693e-07
1.12571e-06
2.94592e-07
1.1257e-06
5.73741e-07
5.76944e-07
1.20506e-06
2.94579e-07
1.12571e-06
2.94472e-07
1.12571e-06
5.73605e-07
1.89492e-07
1.8556e-07
1.24843e-06
1.90023e-07
1.86242e-07
4.09232e-08
4.08574e-08
4.17878e-08
4.18593e-08
1.27797e-06
1.89847e-07
1.86255e-07
1.89396e-07
1.85474e-07
4.08179e-08
4.09e-08
5.48404e-07
2.8724e-07
1.13354e-06
1.21149e-06
5.55734e-07
2.8771e-07
1.13336e-06
2.77484e-07
8.65673e-08
2.76662e-07
8.68831e-08
5.48408e-07
1.13341e-06
2.86908e-07
1.21068e-06
5.55745e-07
1.13323e-06
2.87407e-07
2.76601e-07
8.6975e-08
8.66882e-08
2.77432e-07
5.55422e-07
1.21148e-06
2.87614e-07
1.13322e-06
2.87152e-07
1.13322e-06
5.48183e-07
2.76579e-07
8.68119e-08
8.65205e-08
2.77403e-07
5.55421e-07
1.21065e-06
1.13307e-06
2.87305e-07
1.13308e-06
2.86831e-07
5.48192e-07
2.77547e-07
8.65538e-08
2.7672e-07
8.68691e-08
5.48483e-07
1.13353e-06
2.87e-07
1.21062e-06
5.55838e-07
1.13336e-06
2.87453e-07
2.77527e-07
8.65265e-08
2.76706e-07
8.68487e-08
5.55451e-07
1.21095e-06
2.87498e-07
1.13318e-06
2.87051e-07
1.13313e-06
5.48204e-07
2.76638e-07
8.67994e-08
8.65067e-08
2.77464e-07
5.55496e-07
1.2106e-06
1.1332e-06
2.87387e-07
1.13317e-06
2.86886e-07
5.48242e-07
2.76622e-07
8.67799e-08
8.64862e-08
2.77444e-07
1.85162e-07
1.90078e-07
1.2495e-06
1.8591e-07
1.90655e-07
4.19323e-08
4.1899e-08
4.08103e-08
4.08931e-08
1.27775e-06
1.85796e-07
1.90565e-07
1.85216e-07
1.89977e-07
4.1872e-08
4.19336e-08
5.73707e-07
1.12651e-06
2.94812e-07
1.20522e-06
5.77053e-07
1.12632e-06
2.94926e-07
2.88143e-07
8.92545e-08
2.87833e-07
8.94015e-08
2.88109e-07
8.92374e-08
2.87821e-07
8.9379e-08
5.76931e-07
1.20512e-06
1.12616e-06
2.95054e-07
1.1261e-06
2.9495e-07
5.73719e-07
5.76935e-07
1.20507e-06
1.1262e-06
2.94846e-07
1.12619e-06
2.94806e-07
5.73651e-07
2.87853e-07
8.9351e-08
8.92618e-08
2.88126e-07
2.87838e-07
8.93408e-08
8.92349e-08
2.88096e-07
4.08895e-08
4.0826e-08
4.19405e-08
4.18709e-08
1.27745e-06
1.86268e-07
1.90049e-07
1.85554e-07
1.89573e-07
4.0791e-08
4.08744e-08
4.1861e-08
4.19079e-08
4.1821e-08
4.17745e-08
4.09004e-08
4.08057e-08
1.89709e-07
1.84989e-07
1.253e-06
1.90146e-07
1.85669e-07
4.17516e-08
4.17995e-08
4.0781e-08
4.08522e-08
1.27833e-06
1.90029e-07
1.85508e-07
1.89599e-07
1.84834e-07
2.87943e-07
8.90985e-08
2.87753e-07
8.92215e-08
5.7385e-07
2.94526e-07
1.12558e-06
1.20464e-06
5.77351e-07
2.94585e-07
1.12561e-06
5.73683e-07
2.94396e-07
1.12558e-06
1.20473e-06
5.77287e-07
2.94461e-07
1.12561e-06
2.87837e-07
8.92876e-08
8.91357e-08
2.88038e-07
2.87675e-07
8.92009e-08
8.90371e-08
2.87839e-07
5.7789e-07
1.20469e-06
2.94443e-07
1.12569e-06
2.94424e-07
1.12565e-06
5.73558e-07
5.77791e-07
1.20479e-06
2.94322e-07
1.12568e-06
2.94282e-07
1.12565e-06
5.73375e-07
1.89297e-07
1.85406e-07
1.25253e-06
1.89741e-07
1.86103e-07
4.08643e-08
4.07783e-08
4.17591e-08
4.18091e-08
1.27764e-06
1.89615e-07
1.85953e-07
1.89208e-07
1.85252e-07
4.07294e-08
4.08262e-08
5.48155e-07
2.87044e-07
1.13307e-06
1.21116e-06
5.55636e-07
2.87449e-07
1.13309e-06
2.77246e-07
8.64366e-08
2.76499e-07
8.67561e-08
5.48148e-07
1.13292e-06
2.86721e-07
1.21033e-06
5.55639e-07
1.13293e-06
2.87162e-07
2.76371e-07
8.68471e-08
8.65158e-08
2.77056e-07
5.55977e-07
1.21122e-06
2.87236e-07
1.13311e-06
2.86882e-07
1.13311e-06
5.47617e-07
2.76347e-07
8.66993e-08
8.6363e-08
2.77037e-07
5.55953e-07
1.21038e-06
1.13294e-06
2.86944e-07
1.13295e-06
2.86577e-07
5.47624e-07
2.77298e-07
8.64264e-08
2.76554e-07
8.6732e-08
5.48187e-07
1.13297e-06
2.86806e-07
1.21014e-06
5.55702e-07
1.13298e-06
2.87241e-07
2.77279e-07
8.64052e-08
2.76539e-07
8.67103e-08
5.55984e-07
1.2106e-06
2.87118e-07
1.13303e-06
2.86773e-07
1.13297e-06
5.47618e-07
2.76392e-07
8.66734e-08
8.63383e-08
2.77075e-07
5.56041e-07
1.21017e-06
1.13294e-06
2.87029e-07
1.13299e-06
2.86664e-07
5.47654e-07
2.76379e-07
8.66515e-08
8.63157e-08
2.77058e-07
1.84996e-07
1.89973e-07
1.25279e-06
1.85661e-07
1.90436e-07
4.18948e-08
4.18403e-08
4.07349e-08
4.08225e-08
1.27757e-06
1.85482e-07
1.90283e-07
1.84953e-07
1.8976e-07
4.18102e-08
4.18709e-08
5.73725e-07
1.12607e-06
2.947e-07
1.20484e-06
5.77296e-07
1.12609e-06
2.94719e-07
2.88035e-07
8.91876e-08
2.87829e-07
8.92999e-08
2.88011e-07
8.91775e-08
2.87823e-07
8.92957e-08
5.77796e-07
1.20494e-06
1.12618e-06
2.94753e-07
1.12608e-06
2.94781e-07
5.73525e-07
5.77801e-07
1.20495e-06
1.12619e-06
2.94553e-07
1.12614e-06
2.94575e-07
5.73441e-07
2.87739e-07
8.92529e-08
8.9115e-08
2.8793e-07
2.87739e-07
8.92645e-08
8.91098e-08
2.87901e-07
4.08318e-08
4.07451e-08
4.1889e-08
4.18392e-08
1.27739e-06
1.85949e-07
1.89911e-07
1.85352e-07
1.89399e-07
4.07053e-08
4.0791e-08
4.18285e-08
4.18646e-08
4.17772e-08
4.17488e-08
4.08259e-08
4.07492e-08
1.89504e-07
1.84696e-07
1.25971e-06
1.89954e-07
1.85387e-07
4.17523e-08
4.17776e-08
4.07464e-08
4.0798e-08
1.26993e-06
1.89928e-07
1.85299e-07
1.89463e-07
1.84609e-07
2.87749e-07
8.89791e-08
2.87598e-07
8.92201e-08
5.73174e-07
2.94308e-07
1.12557e-06
1.20428e-06
5.78266e-07
2.9432e-07
1.12559e-06
5.72994e-07
2.94167e-07
1.12556e-06
1.2044e-06
5.78178e-07
2.94211e-07
1.12558e-06
2.87738e-07
8.93944e-08
8.90598e-08
2.87922e-07
2.87568e-07
8.92853e-08
8.89515e-08
2.87725e-07
5.79048e-07
1.20439e-06
2.94244e-07
1.12569e-06
2.94257e-07
1.12563e-06
5.72736e-07
5.78969e-07
1.2045e-06
2.94112e-07
1.12567e-06
2.94109e-07
1.12562e-06
5.72537e-07
1.89129e-07
1.85101e-07
1.25812e-06
1.89627e-07
1.85707e-07
4.07801e-08
4.07332e-08
4.17523e-08
4.17867e-08
1.27107e-06
1.8954e-07
1.85759e-07
1.89064e-07
1.85004e-07
4.07201e-08
4.07774e-08
5.46992e-07
2.86695e-07
1.13289e-06
1.21059e-06
5.56127e-07
2.8703e-07
1.13286e-06
2.76847e-07
8.62719e-08
2.76175e-07
8.66813e-08
5.47002e-07
1.13273e-06
2.86388e-07
1.2098e-06
5.56121e-07
1.1327e-06
2.86754e-07
2.76074e-07
8.68502e-08
8.63505e-08
2.76732e-07
5.56584e-07
1.21069e-06
2.86864e-07
1.13281e-06
2.86559e-07
1.13279e-06
5.46479e-07
2.76053e-07
8.66989e-08
8.61975e-08
2.76719e-07
5.56551e-07
1.20987e-06
1.13265e-06
2.8658e-07
1.13263e-06
2.86265e-07
5.46493e-07
2.76872e-07
8.62478e-08
2.7621e-07
8.66616e-08
5.46955e-07
1.13276e-06
2.86464e-07
1.2096e-06
5.56232e-07
1.13277e-06
2.86792e-07
2.76855e-07
8.62255e-08
2.76197e-07
8.66382e-08
5.56608e-07
1.21009e-06
2.86769e-07
1.13269e-06
2.86457e-07
1.13262e-06
5.46366e-07
2.76081e-07
8.66882e-08
8.61797e-08
2.76736e-07
5.56671e-07
1.20986e-06
1.13274e-06
2.86665e-07
1.13269e-06
2.86312e-07
5.46365e-07
2.76069e-07
8.66591e-08
8.6154e-08
2.76713e-07
1.8471e-07
1.89717e-07
1.25991e-06
1.85368e-07
1.90187e-07
4.18311e-08
4.17944e-08
4.07024e-08
4.07664e-08
1.27027e-06
1.85284e-07
1.90123e-07
1.84731e-07
1.89567e-07
4.17944e-08
4.18279e-08
5.73035e-07
1.12605e-06
2.94452e-07
1.20445e-06
5.78205e-07
1.12607e-06
2.9443e-07
2.87824e-07
8.90315e-08
2.87665e-07
8.92524e-08
2.87792e-07
8.90399e-08
2.87659e-07
8.92642e-08
5.7894e-07
1.2046e-06
1.12617e-06
2.94433e-07
1.12607e-06
2.94507e-07
5.72623e-07
5.78966e-07
1.20446e-06
1.12615e-06
2.94291e-07
1.12609e-06
2.94388e-07
5.72539e-07
2.87616e-07
8.93138e-08
8.89721e-08
2.87778e-07
2.87608e-07
8.93323e-08
8.89846e-08
2.87734e-07
4.07577e-08
4.07042e-08
4.18537e-08
4.17913e-08
1.27197e-06
1.85762e-07
1.89686e-07
1.85081e-07
1.89215e-07
4.06831e-08
4.07514e-08
4.17991e-08
4.18289e-08
4.17812e-08
4.17633e-08
4.0794e-08
4.07368e-08
1.89512e-07
1.84576e-07
1.27487e-06
1.8998e-07
1.85272e-07
4.17725e-08
4.17902e-08
4.07435e-08
4.07809e-08
1.25468e-06
1.89983e-07
1.8528e-07
1.89589e-07
1.84625e-07