/*--------------------------------*- C++ -*----------------------------------*\
| =========                 |                                                 |
| \\      /  F ield         | OpenFOAM: The Open Source CFD Toolbox           |
|  \\    /   O peration     | Version:  2206                                  |
|   \\  /    A nd           | Website:  www.openfoam.com                      |
|    \\/     M anipulation  |                                                 |
\*---------------------------------------------------------------------------*/
FoamFile
{
    version     2.0;
    format      ascii;
    arch        "LSB;label=32;scalar=64";
    class       volVectorField;
    location    "0.3";
    object      wallShearStress;
}
// * * * * * * * * * * * * * * * * * * * * * * * * * * * * * * * * * * * * * //

dimensions      [0 2 -2 0 0 0 0];

internalField   uniform (0 0 0);

boundaryField
{
    topPatch
    {
        type            calculated;
        value           nonuniform List<vector> 0();
    }
    wall
    {
        type            calculated;
        value           nonuniform List<vector> 
7778
(
(-5.36826e-06 1.7395e-05 -0.000245457)
(-1.52758e-06 -4.64327e-06 -0.000146439)
(1.74556e-05 -5.43886e-06 -0.000245454)
(-4.60642e-06 -1.57749e-06 -0.000146342)
(5.37753e-06 1.74438e-05 -0.000245537)
(1.7383e-05 5.36951e-06 -0.000245377)
(-1.73969e-05 -5.46305e-06 -0.000245527)
(-1.7449e-05 5.55773e-06 -0.000245559)
(-5.35728e-06 -1.73989e-05 -0.000245453)
(-1.52884e-06 4.63848e-06 -0.000146445)
(5.37157e-06 -1.74486e-05 -0.000245517)
(1.1346e-05 4.71024e-05 -0.000200954)
(-2.41339e-05 -8.0531e-06 -0.000307965)
(-1.62803e-05 6.2846e-06 -0.0002307)
(-3.88284e-05 3.3653e-05 -0.00023862)
(4.70259e-05 1.09074e-05 -0.000200852)
(-7.86893e-06 -2.38321e-05 -0.000307596)
(6.43515e-06 -1.59256e-05 -0.000230635)
(3.38329e-05 -3.85691e-05 -0.000238376)
(2.38998e-05 -8.03159e-06 -0.000307337)
(3.86192e-05 3.38972e-05 -0.000238652)
(1.58134e-05 6.54498e-06 -0.000231029)
(-7.90573e-06 2.37024e-05 -0.000307238)
(3.40098e-05 3.85096e-05 -0.00023864)
(6.57219e-06 1.55192e-05 -0.000231146)
(-1.09831e-05 4.69811e-05 -0.000200831)
(7.87669e-06 2.37475e-05 -0.00030757)
(-6.47456e-06 1.57816e-05 -0.000230727)
(-3.3813e-05 3.85562e-05 -0.000238375)
(4.71071e-05 -1.13371e-05 -0.000201014)
(-4.69308e-05 1.07462e-05 -0.000200736)
(-4.68166e-05 -1.03526e-05 -0.000200615)
(2.40238e-05 8.02376e-06 -0.000307973)
(1.61112e-05 -6.33973e-06 -0.000230839)
(3.8796e-05 -3.36833e-05 -0.000238644)
(1.1354e-05 -4.70968e-05 -0.00020096)
(-1.09804e-05 -4.69887e-05 -0.000200801)
(7.87285e-06 -2.3639e-05 -0.000307137)
(-3.40628e-05 -3.84005e-05 -0.000238502)
(-6.63799e-06 -1.54614e-05 -0.000231031)
(-2.39284e-05 8.06241e-06 -0.000307507)
(-3.86951e-05 -3.38657e-05 -0.000238799)
(-1.58301e-05 -6.49956e-06 -0.000231174)
(-7.99471e-06 1.6554e-05 -0.000211021)
(-1.04342e-06 2.28008e-05 -0.000184486)
(1.65572e-05 -8.01556e-06 -0.000210799)
(7.98596e-06 1.65567e-05 -0.000211053)
(1.03385e-06 2.27978e-05 -0.000184536)
(1.65247e-05 7.99755e-06 -0.000210769)
(2.28301e-05 1.09694e-06 -0.000184276)
(-1.65317e-05 -7.99181e-06 -0.000210838)
(-1.56566e-05 1.1816e-05 -0.00017002)
(-1.65313e-05 8.02026e-06 -0.000210826)
(-8.00626e-06 -1.65539e-05 -0.000211018)
(1.18917e-05 -1.56374e-05 -0.000170213)
(7.97637e-06 -1.65642e-05 -0.000211011)
(1.506e-06 -4.63152e-06 -0.000146446)
(-4.63387e-06 1.56598e-06 -0.000146363)
(1.18984e-05 1.56399e-05 -0.000170139)
(2.28196e-05 -1.10384e-06 -0.000184285)
(1.56551e-05 1.18206e-05 -0.000169975)
(1.56742e-05 -1.18178e-05 -0.000169968)
(4.63245e-06 -1.55149e-06 -0.00014639)
(-2.28225e-05 -1.09008e-06 -0.00018433)
(4.62612e-06 1.57601e-06 -0.000146401)
(-2.28281e-05 1.11852e-06 -0.000184298)
(-1.56609e-05 -1.17977e-05 -0.000169975)
(-1.06435e-06 -2.27932e-05 -0.000184519)
(1.50325e-06 4.63281e-06 -0.000146424)
(1.03515e-06 -2.27764e-05 -0.000184497)
(1.96638e-06 2.61845e-05 -0.00018736)
(2.61486e-05 1.91963e-06 -0.000187279)
(-1.99119e-06 2.61994e-05 -0.000187358)
(-1.19168e-05 1.56404e-05 -0.000170219)
(2.61042e-05 -1.92347e-06 -0.000187289)
(-2.61232e-05 1.92671e-06 -0.00018732)
(-2.6121e-05 -1.91091e-06 -0.000187362)
(1.96296e-06 -2.61881e-05 -0.000187358)
(-2.00394e-06 -2.61967e-05 -0.000187349)
(-1.19122e-05 -1.5624e-05 -0.000170176)
(-3.34092e-09 1.28129e-09 -0.000141751)
(1.33787e-08 -1.03251e-08 -0.000135767)
(1.38252e-08 -2.69879e-09 -0.000135776)
(-2.09789e-08 -1.50755e-08 -0.000141687)
(-1.88729e-08 -7.90022e-09 -0.000141683)
(-2.17756e-09 -4.2173e-09 -0.000135782)
(5.02014e-09 -3.07439e-09 -0.000135795)
(3.26645e-09 1.19476e-08 -0.000141699)
(1.7642e-09 -1.87669e-09 -0.00014169)
(7.46466e-10 -4.91161e-09 -0.000135652)
(5.78541e-10 3.39876e-09 -0.000135719)
(7.15771e-09 2.41795e-10 -0.000141608)
(-3.00836e-09 9.11894e-10 -0.000141637)
(-3.54466e-09 -8.9469e-10 -0.000135796)
(3.34829e-09 1.13785e-09 -0.000135801)
(-3.91834e-10 5.17874e-09 -0.000141715)
(-1.6931e-09 -8.22788e-09 -0.000141698)
(-8.55893e-09 -8.86172e-10 -0.000135638)
(-5.90546e-09 6.21259e-09 -0.000135718)
(1.5942e-08 5.30248e-09 -0.000141597)
(5.27286e-09 5.85321e-09 -0.000141636)
(-4.72255e-09 2.08574e-09 -0.000135795)
(2.60289e-09 2.92798e-09 -0.000135796)
(-2.42458e-09 1.49218e-09 -0.000141713)
(-2.67372e-09 -9.974e-09 -0.000141692)
(-9.73664e-09 -2.91604e-10 -0.000135651)
(-2.74068e-09 5.042e-09 -0.000135733)
(1.65474e-08 5.75998e-09 -0.000141604)
(-1.53118e-09 2.03292e-09 -0.000141646)
(-4.66438e-09 1.80006e-09 -0.000135787)
(3.21325e-09 1.1722e-09 -0.000135786)
(-1.96302e-09 2.46927e-09 -0.000141703)
(-1.43525e-09 -7.55562e-09 -0.00014168)
(-1.9016e-09 -3.38432e-09 -0.000135664)
(4.67928e-09 2.11728e-09 -0.000135744)
(7.73323e-09 9.45722e-10 -0.000141611)
(-6.4779e-09 -5.11956e-10 -0.000141648)
(-3.27644e-09 -1.97293e-09 -0.000135775)
(4.69114e-09 -2.6301e-09 -0.000135776)
(2.32792e-10 6.58436e-09 -0.000141692)
(6.80248e-10 -3.59439e-09 -0.000141672)
(2.54661e-09 -5.19478e-09 -0.000135671)
(4.14728e-09 2.31458e-09 -0.000135745)
(3.73214e-09 -1.17603e-09 -0.000141608)
(-8.10103e-09 -1.6561e-09 -0.000141653)
(-2.9043e-09 -2.92384e-09 -0.000135771)
(5.58483e-09 -4.70845e-09 -0.000135773)
(8.6177e-10 7.68146e-09 -0.000141686)
(1.86618e-09 -1.32764e-09 -0.000141673)
(3.20646e-09 -5.60479e-09 -0.000135685)
(-1.36663e-09 4.41947e-09 -0.000135724)
(1.85561e-09 -2.29461e-09 -0.000141612)
(3.76354e-09 4.82234e-09 -0.000141656)
(-4.02732e-09 -3.81191e-10 -0.000135784)
(6.7761e-09 -7.56308e-09 -0.000135755)
(-1.46438e-09 3.47727e-09 -0.000141686)
(4.76686e-09 4.1576e-09 -0.000141678)
(8.41642e-09 -7.83711e-09 -0.00013574)
(-1.18415e-08 8.65987e-09 -0.000135637)
(-1.26453e-08 -1.01457e-08 -0.000141611)
(2.36248e-08 1.53479e-08 -0.000141655)
(-6.09006e-09 4.22704e-09 -0.000135839)
(1.12208e-08 -1.84407e-08 -0.000135671)
(-9.03332e-09 -1.03328e-08 -0.000141687)
(1.81135e-08 2.89401e-08 -0.000141679)
(2.33097e-08 -1.33382e-08 -0.000135903)
(-3.08206e-08 1.6484e-08 -0.000135389)
(-6.5016e-08 -3.83587e-08 -0.000141607)
(1.02239e-07 5.84818e-08 -0.000141657)
(-1.02604e-08 1.54925e-08 -0.000136005)
(2.01317e-08 -3.97272e-08 -0.000135424)
(-3.60718e-08 -6.0593e-08 -0.000141681)
(6.16916e-08 1.09199e-07 -0.000141685)
(7.83048e-08 -3.1089e-08 -0.000136397)
(-1.58531e-08 2.42524e-08 -0.000135177)
(-2.55933e-07 -1.38102e-07 -0.00014157)
(2.98753e-07 1.77237e-07 -0.000142137)
(-2.56802e-08 6.54024e-08 -0.000136516)
(3.21763e-08 -3.56974e-08 -0.000135224)
(-1.34531e-07 -2.49483e-07 -0.000141651)
(1.93281e-07 3.29447e-07 -0.000142179)
(1.06107e-07 -1.0641e-07 -0.000140926)
(-4.25422e-07 1.00163e-06 -0.000119898)
(-5.73196e-07 -3.43424e-07 -0.000145142)
(-2.14018e-07 -3.29204e-07 -0.000136335)
(-7.84141e-08 1.58045e-08 -0.000141013)
(1.02262e-06 -4.64355e-07 -0.000119905)
(-3.06467e-07 -5.02851e-07 -0.000145215)
(-3.12241e-07 -1.80663e-07 -0.000136317)
(1.26742e-05 3.16353e-05 -0.000146592)
(4.99326e-06 -2.73577e-06 -0.000150698)
(3.15698e-05 1.25881e-05 -0.000146501)
(-2.68447e-06 5.15047e-06 -0.000150645)
(3.76246e-08 -1.73971e-08 -0.000141734)
(6.18953e-10 -2.62325e-09 -0.000141704)
(3.33797e-09 -1.07655e-09 -0.000141686)
(1.55082e-09 -8.7017e-09 -0.0001417)
(-4.07311e-09 2.17548e-09 -0.000135891)
(1.21729e-08 -5.4876e-10 -0.000135861)
(-1.54543e-09 -2.29016e-09 -0.0001358)
(-1.27176e-08 -8.729e-10 -0.000135858)
(6.54995e-10 -2.62123e-09 -0.000135794)
(1.96189e-10 6.28965e-09 -0.000141683)
(-3.8253e-08 -1.77141e-08 -0.000141736)
(-4.22147e-10 -2.55286e-09 -0.000141697)
(-3.68999e-09 -1.73698e-09 -0.000141684)
(-1.51113e-09 -8.58416e-09 -0.000141698)
(5.19149e-09 -3.63988e-09 -0.000135783)
(-4.02597e-09 -1.86648e-10 -0.000135775)
(4.84038e-09 3.10118e-09 -0.000135786)
(-4.49735e-09 -1.29513e-09 -0.000135775)
(-4.03213e-09 3.94335e-10 -0.000135779)
(-3.59962e-09 -1.48688e-09 -0.000135785)
(-5.34306e-09 -4.2887e-09 -0.000135781)
(3.61188e-09 -1.18714e-09 -0.000135771)
(-5.18734e-09 3.84509e-09 -0.000135786)
(4.03035e-09 3.02307e-10 -0.000135775)
(2.40231e-09 -6.74915e-10 -0.000141685)
(1.11873e-10 5.87475e-09 -0.000141688)
(3.54845e-08 1.61379e-08 -0.000141748)
(-8.30079e-10 1.91941e-09 -0.000141729)
(1.08369e-08 9.89602e-11 -0.00013587)
(-3.60505e-09 1.42673e-09 -0.000135813)
(-1.24109e-08 6.84598e-10 -0.000135869)
(3.57522e-09 1.4336e-09 -0.000135809)
(1.16252e-09 -8.01313e-09 -0.000141684)
(-2.98355e-09 -1.59896e-09 -0.000141763)
(-3.40281e-09 9.48424e-10 -0.000141684)
(-1.59734e-09 8.96829e-09 -0.000141691)
(-3.84687e-08 1.80052e-08 -0.000141746)
(1.80685e-09 1.23639e-09 -0.000141721)
(2.04134e-08 -1.46022e-08 -0.000141688)
(2.1746e-08 -9.70407e-09 -0.000141683)
(4.32588e-09 -1.34401e-08 -0.000141706)
(1.99712e-09 1.65139e-09 -0.000141698)
(9.43851e-09 -2.82146e-09 -0.000141652)
(2.82826e-09 -5.2379e-09 -0.000141637)
(1.40691e-10 4.91429e-09 -0.000141704)
(2.6882e-09 -1.03349e-08 -0.000141717)
(-1.39463e-08 -1.05589e-08 -0.000135762)
(-1.14675e-08 -1.8065e-09 -0.000135774)
(6.60928e-09 7.41914e-10 -0.000135735)
(8.13549e-09 -8.25654e-09 -0.000135682)
(-7.47879e-09 2.85981e-10 -0.000135731)
(-6.63344e-09 -7.69875e-09 -0.00013568)
(-4.67831e-09 -1.39178e-08 -0.000141706)
(-3.71976e-10 4.35823e-09 -0.000141698)
(-1.07107e-08 -3.55672e-09 -0.000141652)
(-1.35057e-09 -4.43354e-09 -0.000141636)
(-1.08236e-09 3.34129e-09 -0.000141704)
(-2.13164e-09 -9.22621e-09 -0.000141715)
(-2.97008e-09 2.4114e-09 -0.000135781)
(4.46536e-09 1.71952e-09 -0.000135795)
(4.18231e-09 -9.96803e-10 -0.000135801)
(-2.63667e-09 -3.06568e-09 -0.00013579)
(3.88358e-09 4.04878e-10 -0.000135804)
(-2.98604e-09 2.00672e-09 -0.00013579)
(1.93319e-09 -4.75127e-09 -0.000135779)
(-4.15684e-09 -9.38538e-10 -0.000135794)
(2.08761e-09 4.34166e-09 -0.000135784)
(-2.6583e-09 -2.9154e-09 -0.000135798)
(-4.59323e-09 -2.28953e-09 -0.000135799)
(3.05446e-09 -1.93776e-09 -0.000135788)
(-3.18622e-09 -1.30495e-09 -0.000135801)
(4.27052e-09 -1.03897e-09 -0.000135792)
(1.72782e-08 1.27595e-08 -0.000141705)
(2.08413e-08 9.11118e-09 -0.000141703)
(-9.33556e-10 -7.00282e-09 -0.000141703)
(1.24987e-09 7.48429e-09 -0.000141702)
(7.89884e-09 1.80661e-09 -0.000141666)
(3.44156e-10 4.10365e-09 -0.000141658)
(1.05638e-08 9.18138e-09 -0.000135773)
(1.21196e-08 1.9659e-09 -0.00013579)
(-1.22039e-08 9.87197e-09 -0.000135773)
(-1.03629e-08 1.35627e-09 -0.000135784)
(5.63792e-09 -1.13991e-09 -0.000135746)
(6.37253e-09 7.63426e-09 -0.000135694)
(-5.20998e-09 -1.3828e-09 -0.000135744)
(-4.35773e-09 6.7627e-09 -0.00013569)
(-4.73416e-09 1.37987e-08 -0.000141702)
(1.34838e-09 -7.42255e-09 -0.000141698)
(-1.94085e-08 1.41397e-08 -0.000141702)
(-1.7672e-08 7.3395e-09 -0.000141691)
(4.28449e-10 -5.87417e-09 -0.000141702)
(-1.69874e-09 8.48259e-09 -0.00014171)
(-1.06491e-08 3.24678e-09 -0.000141662)
(-1.14813e-09 4.30128e-09 -0.00014165)
(-7.79511e-09 6.91335e-10 -0.000141612)
(2.82756e-09 1.00537e-09 -0.000141638)
(8.84264e-10 -7.11444e-09 -0.000141721)
(-1.22628e-09 7.55502e-09 -0.000141705)
(-6.30729e-10 2.9529e-09 -0.000141634)
(-1.34553e-08 4.02777e-09 -0.0001416)
(-2.23303e-09 9.226e-09 -0.000141703)
(-3.69032e-10 -4.69374e-09 -0.000141721)
(-1.89435e-09 -5.34251e-09 -0.000135646)
(-8.65934e-10 3.29788e-09 -0.000135716)
(-3.46615e-09 5.16848e-09 -0.000135716)
(-5.03455e-09 -2.38372e-09 -0.000135638)
(3.26756e-09 4.99793e-09 -0.000135712)
(4.69707e-09 -2.49565e-09 -0.000135634)
(-1.40227e-09 -7.98044e-09 -0.000141723)
(9.51732e-10 6.99963e-09 -0.000141704)
(1.05191e-10 2.71632e-09 -0.000141636)
(1.40587e-08 4.29636e-09 -0.000141596)
(1.93871e-09 8.73372e-09 -0.000141701)
(3.69471e-10 -4.64937e-09 -0.000141722)
(-4.36246e-09 -1.05825e-09 -0.000135797)
(2.67898e-09 -2.81131e-09 -0.000135802)
(2.85291e-09 2.36844e-09 -0.000135801)
(-4.25032e-09 9.8137e-10 -0.000135795)
(2.59951e-09 -2.78574e-09 -0.000135803)
(-4.74808e-09 -2.4925e-09 -0.000135795)
(3.01873e-09 -2.19978e-09 -0.000135794)
(-3.57267e-09 4.63528e-10 -0.0001358)
(3.84613e-09 1.52887e-10 -0.000135796)
(-3.63837e-09 -3.94114e-10 -0.000135804)
(-2.94561e-09 1.9239e-09 -0.000135799)
(3.94142e-09 2.11036e-10 -0.000135794)
(-3.09879e-09 -1.75816e-09 -0.000135805)
(3.74381e-09 3.10536e-10 -0.000135798)
(-1.04555e-08 -2.31351e-09 -0.000141629)
(2.39707e-09 -1.34296e-09 -0.000141658)
(-3.27405e-09 -1.12257e-08 -0.000141704)
(-2.08137e-09 1.39845e-09 -0.000141708)
(-2.26625e-09 -4.0149e-09 -0.000141649)
(-1.57212e-08 -5.05694e-09 -0.000141622)
(-1.86661e-09 3.8918e-09 -0.00013566)
(-1.24787e-09 -4.19785e-09 -0.000135733)
(9.8453e-10 4.21344e-09 -0.00013566)
(-7.52426e-10 -3.39176e-09 -0.000135726)
(-4.53217e-09 -5.60417e-09 -0.000135726)
(-6.88819e-09 1.70345e-09 -0.00013565)
(3.7538e-09 -5.21822e-09 -0.000135723)
(7.52475e-09 1.41518e-09 -0.000135645)
(-1.16669e-09 7.6169e-09 -0.000141715)
(1.65718e-09 -8.33343e-09 -0.000141704)
(7.5146e-09 -6.08962e-10 -0.000141629)
(-2.81648e-09 -1.06399e-09 -0.000141644)
(2.6137e-09 -1.02343e-08 -0.000141702)
(2.27765e-10 5.06426e-09 -0.000141715)
(8.60758e-10 -3.0108e-09 -0.000141646)
(1.69824e-08 -6.11117e-09 -0.000141615)
(-1.6488e-08 5.73553e-09 -0.000141598)
(-2.71745e-09 4.27728e-09 -0.000141637)
(-1.2192e-09 -3.29406e-09 -0.000141719)
(-2.46968e-09 9.80682e-09 -0.000141698)
(-2.58803e-09 4.1512e-09 -0.000141643)
(-1.83079e-08 6.87667e-09 -0.000141602)
(-2.30022e-09 9.29015e-09 -0.000141693)
(-1.30429e-09 -3.04341e-09 -0.000141714)
(8.13336e-09 -1.03899e-09 -0.000135633)
(7.95726e-09 7.00324e-09 -0.000135716)
(-5.96212e-09 6.29022e-09 -0.000135727)
(-1.07272e-08 1.05102e-10 -0.00013564)
(4.8599e-09 5.72464e-09 -0.000135722)
(1.1901e-08 5.38252e-10 -0.000135639)
(1.01741e-09 -3.47977e-09 -0.00014172)
(4.2812e-09 1.27739e-08 -0.000141698)
(1.2561e-09 3.38752e-09 -0.000141642)
(1.93537e-08 7.43642e-09 -0.000141601)
(1.38828e-09 7.76425e-09 -0.000141692)
(2.06198e-09 -1.58475e-09 -0.000141712)
(-5.43662e-09 -3.76041e-09 -0.000135795)
(2.16001e-09 -4.00021e-09 -0.000135797)
(2.72601e-09 2.539e-09 -0.000135793)
(-4.84593e-09 2.4573e-09 -0.000135789)
(2.62516e-09 -2.58126e-09 -0.000135796)
(-5.1031e-09 -3.30988e-09 -0.000135789)
(4.53808e-09 1.74073e-09 -0.000135793)
(-1.66742e-09 5.21294e-09 -0.000135795)
(4.41689e-09 -1.61356e-09 -0.000135799)
(-4.79367e-10 -8.24542e-09 -0.000135802)
(-3.10192e-09 1.3189e-09 -0.00013579)
(5.35307e-09 3.78988e-09 -0.000135787)
(-2.07828e-09 -3.88178e-09 -0.000135794)
(6.24973e-09 -5.94105e-09 -0.000135792)
(-1.90271e-08 -7.28739e-09 -0.000141616)
(-3.32162e-09 -4.70187e-09 -0.000141657)
(-3.04251e-09 -1.07187e-08 -0.000141695)
(-2.67902e-09 3.40061e-10 -0.000141701)
(-3.97633e-09 -5.08685e-09 -0.000141657)
(-2.04216e-08 -7.8127e-09 -0.000141624)
(-1.12297e-08 -1.98868e-10 -0.000135647)
(-7.81431e-09 -7.01571e-09 -0.000135732)
(1.04565e-08 2.07186e-10 -0.000135643)
(9.75747e-09 -7.70477e-09 -0.000135725)
(-6.89964e-09 -6.66682e-09 -0.000135737)
(-1.24629e-08 -7.40134e-10 -0.000135652)
(7.20849e-09 -6.78609e-09 -0.000135733)
(1.45942e-08 -1.60781e-09 -0.000135648)
(1.30367e-09 2.73958e-09 -0.000141716)
(6.20918e-09 -1.62563e-08 -0.000141698)
(1.86365e-08 -6.86784e-09 -0.000141615)
(7.45348e-09 -7.00088e-09 -0.000141648)
(2.83004e-09 -1.01654e-08 -0.000141689)
(2.48269e-09 9.50805e-10 -0.000141707)
(2.60071e-09 -4.34085e-09 -0.000141655)
(2.08337e-08 -8.28204e-09 -0.000141619)
(-1.71836e-08 6.21262e-09 -0.000141608)
(1.05951e-09 2.2712e-09 -0.000141647)
(-9.69483e-10 -3.85438e-09 -0.000141708)
(-1.26273e-09 7.45718e-09 -0.000141687)
(5.79487e-09 -4.12802e-10 -0.000141649)
(-1.30995e-08 4.07127e-09 -0.000141611)
(7.90858e-12 4.91335e-09 -0.000141682)
(2.98894e-10 -6.10321e-09 -0.000141702)
(8.31551e-09 -8.45534e-10 -0.000135644)
(2.05907e-09 4.78906e-09 -0.00013573)
(1.57351e-09 3.38027e-09 -0.000135741)
(-6.00334e-09 -1.68887e-09 -0.000135656)
(-2.2676e-09 2.99876e-09 -0.000135737)
(5.23115e-09 -1.97361e-09 -0.000135652)
(3.61014e-10 -4.87331e-09 -0.00014171)
(1.0668e-09 7.05521e-09 -0.000141685)
(-6.58541e-09 -7.97242e-10 -0.000141651)
(1.33027e-08 4.13679e-09 -0.000141607)
(-2.27336e-10 4.53344e-09 -0.00014168)
(-1.88872e-10 -5.86549e-09 -0.000141702)
(-5.27635e-09 -3.18118e-09 -0.000135787)
(2.74174e-09 -2.33771e-09 -0.000135786)
(4.03411e-09 -8.94091e-10 -0.000135782)
(-4.00389e-09 6.61326e-11 -0.000135778)
(3.76953e-09 4.38421e-10 -0.000135784)
(-4.29899e-09 -1.10763e-09 -0.000135778)
(4.15765e-09 4.83761e-10 -0.000135783)
(-3.39475e-09 6.52286e-10 -0.000135784)
(4.67301e-09 -1.83826e-09 -0.000135786)
(-3.5428e-09 -3.86175e-10 -0.000135789)
(-4.07823e-09 -1.25748e-09 -0.000135778)
(3.75015e-09 -5.5851e-10 -0.000135776)
(-4.0797e-09 9.63668e-10 -0.000135784)
(3.53428e-09 1.08505e-09 -0.000135781)
(-1.94929e-08 -7.63518e-09 -0.000141625)
(6.73731e-10 -2.57683e-09 -0.000141666)
(-1.10446e-09 -7.03456e-09 -0.000141683)
(-1.14276e-09 3.30901e-09 -0.00014169)
(4.12049e-09 -6.91604e-10 -0.000141662)
(-1.52468e-08 -5.00235e-09 -0.000141632)
(-1.20299e-08 -6.31418e-10 -0.000135658)
(-4.25794e-09 -5.69107e-09 -0.000135746)
(1.09989e-08 -1.9433e-10 -0.000135657)
(1.78311e-09 -4.67689e-09 -0.000135738)
(5.25191e-10 -3.77525e-09 -0.00013575)
(-7.38624e-09 1.21326e-09 -0.000135666)
(-1.71954e-09 -3.23139e-09 -0.000135746)
(7.50186e-09 1.13001e-09 -0.000135661)
(6.55057e-10 4.51685e-09 -0.0001417)
(1.85541e-09 -8.46906e-09 -0.000141681)
(1.78988e-08 -6.61979e-09 -0.000141627)
(-9.73843e-10 -2.37537e-09 -0.000141656)
(7.81491e-10 -6.6111e-09 -0.000141675)
(-1.66404e-10 5.99157e-09 -0.000141691)
(-5.37036e-09 2.38454e-10 -0.000141665)
(1.65119e-08 -6.10379e-09 -0.000141629)
(-8.59592e-09 1.5564e-09 -0.000141613)
(9.03551e-09 -2.11667e-09 -0.000141649)
(1.57906e-09 -8.58596e-09 -0.000141697)
(1.2188e-09 2.82081e-09 -0.000141678)
(9.61785e-09 -2.53044e-09 -0.000141652)
(-5.55523e-09 -2.57545e-11 -0.000141612)
(1.914e-09 1.37906e-09 -0.000141679)
(2.46739e-09 -1.01053e-08 -0.000141693)
(1.06205e-09 -3.70557e-09 -0.000135658)
(-2.60811e-09 2.90357e-09 -0.000135741)
(5.44675e-09 1.81738e-09 -0.000135747)
(9.74321e-10 -4.5006e-09 -0.000135665)
(-6.25932e-09 1.38444e-09 -0.000135743)
(4.63983e-10 -3.99321e-09 -0.000135663)
(-1.75183e-09 -8.72578e-09 -0.000141697)
(3.41132e-10 5.3545e-09 -0.000141678)
(-1.06973e-08 -3.16163e-09 -0.000141652)
(6.52409e-09 5.40147e-10 -0.000141611)
(-2.95201e-09 -3.84009e-10 -0.000141678)
(-2.00394e-09 -9.1769e-09 -0.000141691)
(-4.08998e-09 2.11381e-12 -0.000135775)
(3.93477e-09 7.24811e-10 -0.000135776)
(5.25827e-09 -3.91901e-09 -0.000135775)
(-2.81533e-09 -3.01981e-09 -0.000135769)
(4.762e-09 2.89249e-09 -0.000135778)
(-3.38075e-09 1.40255e-09 -0.000135769)
(3.11619e-09 -2.25719e-09 -0.000135771)
(-3.80137e-09 -3.97657e-10 -0.000135774)
(3.24199e-09 1.76943e-09 -0.000135778)
(-2.25649e-09 -3.60344e-09 -0.00013578)
(-5.70713e-09 -5.29356e-09 -0.000135772)
(3.27035e-09 -1.82543e-09 -0.000135765)
(-4.11186e-09 1.31028e-09 -0.000135775)
(4.56044e-09 -1.4121e-09 -0.000135771)
(-1.12377e-08 -3.17778e-09 -0.000141629)
(8.35912e-09 1.63668e-09 -0.000141669)
(6.17528e-10 -3.83402e-09 -0.000141679)
(7.85194e-10 6.83177e-09 -0.00014168)
(7.7272e-09 1.30439e-09 -0.000141664)
(-7.92612e-09 -1.05262e-09 -0.000141632)
(-4.51262e-09 2.32482e-09 -0.000135671)
(2.61339e-09 -2.96691e-09 -0.000135756)
(3.42556e-09 2.87892e-09 -0.000135667)
(1.89747e-11 -3.91931e-09 -0.000135749)
(3.70813e-09 -2.51503e-09 -0.000135755)
(-1.03944e-09 3.79539e-09 -0.000135675)
(-2.58704e-09 -2.96561e-09 -0.000135753)
(4.13477e-09 2.5114e-09 -0.000135671)
(-1.13939e-09 7.45825e-09 -0.000141688)
(2.65945e-09 -9.44495e-09 -0.000141672)
(1.11918e-08 -2.94148e-09 -0.000141632)
(-3.61409e-09 -1.0627e-09 -0.000141664)
(-9.75083e-10 -2.97286e-09 -0.000141669)
(-1.07035e-09 7.66172e-09 -0.00014168)
(-8.3734e-09 1.65939e-09 -0.000141667)
(8.71066e-09 -1.80266e-09 -0.000141633)
(-4.10243e-09 -8.86586e-10 -0.000141612)
(8.00393e-09 -1.62472e-09 -0.000141653)
(2.35958e-09 -9.97344e-09 -0.000141691)
(2.51443e-09 3.75258e-10 -0.00014168)
(4.86231e-09 -5.63535e-11 -0.000141656)
(-3.5113e-09 -1.13699e-09 -0.000141612)
(3.16753e-09 -1.04114e-09 -0.000141684)
(1.61581e-09 -8.49253e-09 -0.000141691)
(-3.6855e-09 -5.6431e-09 -0.000135664)
(-4.40219e-09 2.22636e-09 -0.000135742)
(1.71582e-09 3.24971e-09 -0.00013574)
(2.73272e-09 -5.26948e-09 -0.000135673)
(-1.96931e-09 3.05682e-09 -0.000135736)
(-3.15853e-09 -5.41652e-09 -0.00013567)
(-3.01727e-09 -1.10877e-08 -0.000141693)
(-2.81972e-09 -2.61244e-10 -0.000141679)
(-5.26325e-09 -2.38707e-10 -0.000141657)
(4.03654e-09 -9.00005e-10 -0.000141608)
(-3.64128e-09 -1.89437e-09 -0.000141682)
(-1.5388e-09 -8.31855e-09 -0.000141691)
(-3.91589e-09 5.4693e-10 -0.000135771)
(4.71357e-09 2.57165e-09 -0.000135773)
(5.95884e-09 -5.55235e-09 -0.000135769)
(-3.3075e-09 -1.91191e-09 -0.000135772)
(5.46007e-09 4.51373e-09 -0.000135772)
(-3.92378e-09 1.099e-10 -0.000135772)
(2.34761e-09 -4.30511e-09 -0.000135767)
(-5.8138e-09 -5.37223e-09 -0.000135771)
(3.42214e-09 1.61249e-09 -0.000135769)
(-5.45442e-09 4.34873e-09 -0.000135775)
(-6.14021e-09 -6.24808e-09 -0.000135767)
(3.02166e-09 -2.59534e-09 -0.00013577)
(-5.66916e-09 4.86843e-09 -0.000135772)
(3.24523e-09 2.00808e-09 -0.000135774)
(-6.95101e-09 -8.64584e-10 -0.000141627)
(7.45257e-09 1.2235e-09 -0.000141672)
(1.94877e-09 -1.29719e-09 -0.000141684)
(-1.09123e-10 5.14498e-09 -0.000141678)
(3.21176e-09 -1.06217e-09 -0.000141668)
(-5.40875e-09 3.05187e-10 -0.000141631)
(-4.93156e-10 4.00249e-09 -0.000135677)
(1.87242e-09 -3.25277e-09 -0.000135756)
(5.31113e-10 4.02337e-09 -0.000135676)
(-3.79276e-09 -2.48727e-09 -0.00013575)
(1.64461e-10 -3.84945e-09 -0.000135748)
(9.73976e-10 4.63077e-09 -0.000135683)
(-1.03243e-09 -3.43146e-09 -0.000135745)
(-3.04496e-10 4.33929e-09 -0.000135679)
(-2.14755e-09 9.67896e-09 -0.000141678)
(-1.47924e-09 -2.15763e-09 -0.000141671)
(5.92178e-09 -1.95199e-10 -0.000141634)
(-7.11278e-09 1.07687e-09 -0.000141665)
(-2.25795e-09 -8.29598e-10 -0.000141674)
(-1.10696e-09 7.6948e-09 -0.000141676)
(-4.20128e-09 -2.61429e-10 -0.000141673)
(7.34039e-09 -1.15799e-09 -0.000141632)
(-2.01333e-09 -2.07684e-09 -0.000141613)
(-2.85116e-10 2.76181e-09 -0.000141657)
(-8.83237e-11 -5.54136e-09 -0.000141691)
(5.30941e-09 -4.91673e-09 -0.000141685)
(-8.61248e-09 7.11215e-09 -0.000141658)
(2.42095e-09 -4.47703e-09 -0.000141613)
(9.74357e-09 -1.32692e-08 -0.000141688)
(-2.85507e-09 -4.73637e-10 -0.000141691)
(-3.53363e-09 -5.72083e-09 -0.00013568)
(3.74481e-09 5.31832e-09 -0.000135721)
(-5.19314e-09 5.98683e-09 -0.000135694)
(5.32253e-09 -6.50014e-09 -0.000135701)
(4.24006e-09 5.50182e-09 -0.00013569)
(-3.92001e-09 -5.99416e-09 -0.0001357)
(-2.86569e-10 -6.03659e-09 -0.000141692)
(-3.72923e-09 -2.34452e-09 -0.000141686)
(7.31617e-09 6.36779e-09 -0.000141657)
(-8.29231e-10 -3.62506e-09 -0.000141612)
(-1.08854e-08 -1.52508e-08 -0.000141689)
(3.78399e-09 1.35284e-09 -0.00014169)
(-4.97169e-09 -1.91795e-09 -0.000135784)
(5.9033e-09 5.42389e-09 -0.000135755)
(8.46656e-09 -1.16409e-08 -0.000135727)
(-4.99371e-09 1.89139e-09 -0.000135801)
(7.8435e-09 1.03045e-08 -0.00013573)
(-5.64286e-09 -3.67295e-09 -0.000135801)
(3.79429e-09 -8.70401e-10 -0.000135781)
(-6.03006e-09 -5.68544e-09 -0.000135754)
(4.3723e-09 -7.10882e-10 -0.000135787)
(-4.19082e-09 1.15331e-09 -0.000135758)
(-8.94566e-09 -1.31367e-08 -0.000135725)
(5.43475e-09 3.10958e-09 -0.000135798)
(-7.49827e-09 9.46746e-09 -0.000135727)
(6.94028e-09 -6.717e-09 -0.000135802)
(-4.15577e-09 6.93173e-10 -0.000141628)
(-1.0298e-09 -3.2502e-09 -0.000141675)
(8.61432e-09 1.11362e-08 -0.000141687)
(-4.63659e-09 -3.00579e-09 -0.000141679)
(-1.0283e-08 -8.23215e-09 -0.000141669)
(1.01246e-09 3.86451e-09 -0.000141632)
(7.54791e-10 4.55561e-09 -0.000135691)
(-3.3194e-09 -5.25197e-09 -0.000135735)
(-1.46638e-09 4.93756e-09 -0.000135688)
(6.74638e-09 -6.54968e-09 -0.000135728)
(-6.72015e-09 -6.59183e-09 -0.000135702)
(3.94364e-09 5.96059e-09 -0.000135711)
(8.39176e-09 -7.24962e-09 -0.000135699)
(-6.32157e-11 4.36607e-09 -0.000135708)
(7.30266e-10 4.14128e-09 -0.00014168)
(-1.5596e-09 -1.59529e-09 -0.000141676)
(4.04509e-09 9.53202e-10 -0.000141634)
(5.62595e-09 -5.92639e-09 -0.000141672)
(-9.28634e-09 1.25937e-08 -0.000141676)
(4.29806e-09 -2.14258e-09 -0.000141677)
(1.04434e-08 -8.31825e-09 -0.000141673)
(5.67075e-10 2.68189e-09 -0.000141634)
(1.20803e-08 -9.77706e-09 -0.000141613)
(-2.41741e-08 1.5638e-08 -0.000141655)
(-7.79903e-09 8.42213e-09 -0.000141692)
(1.86003e-08 -2.95198e-08 -0.000141685)
(-5.18669e-08 3.05837e-08 -0.000141651)
(2.97564e-08 -1.93281e-08 -0.000141612)
(3.43325e-08 -5.87509e-08 -0.000141683)
(-1.68115e-08 2.51944e-08 -0.000141692)
(-9.68705e-09 -8.31397e-09 -0.000135734)
(1.1162e-08 8.40324e-09 -0.000135633)
(-2.15492e-08 1.25582e-08 -0.000135541)
(1.32992e-08 -9.69769e-09 -0.0001358)
(2.05082e-08 1.20595e-08 -0.000135536)
(-1.397e-08 -9.92889e-09 -0.000135797)
(7.26789e-09 7.49213e-09 -0.000141694)
(-1.91114e-08 -3.04603e-08 -0.000141686)
(5.04218e-08 2.98247e-08 -0.00014165)
(-2.94786e-08 -1.9202e-08 -0.00014161)
(-3.51323e-08 -6.00451e-08 -0.000141683)
(1.70486e-08 2.55956e-08 -0.000141692)
(-7.00171e-09 -6.42285e-09 -0.00013584)
(1.02463e-08 1.61347e-08 -0.000135671)
(1.53044e-08 -2.84979e-08 -0.000135576)
(-7.296e-09 7.40067e-09 -0.0001359)
(1.45545e-08 2.69728e-08 -0.000135577)
(-8.08818e-09 -9.55162e-09 -0.000135901)
(5.69174e-09 3.24493e-09 -0.000135836)
(-1.16344e-08 -1.95231e-08 -0.00013567)
(6.60815e-09 -5.60974e-09 -0.000135838)
(-1.13745e-08 1.89242e-08 -0.000135674)
(-1.5875e-08 -3.01067e-08 -0.000135575)
(7.20136e-09 7.2314e-09 -0.000135898)
(-1.5141e-08 2.82959e-08 -0.000135579)
(7.65602e-09 -8.31765e-09 -0.000135903)
(9.91816e-09 8.3412e-09 -0.000141629)
(-2.60599e-08 -1.66601e-08 -0.000141672)
(3.32271e-08 5.66383e-08 -0.00014168)
(-1.88676e-08 -2.90563e-08 -0.00014168)
(-5.36587e-08 -3.17324e-08 -0.00014166)
(2.83013e-08 1.86832e-08 -0.000141632)
(5.78517e-09 6.70455e-09 -0.000135746)
(-1.35639e-08 -9.32206e-09 -0.000135647)
(-5.79394e-09 6.74845e-09 -0.000135746)
(1.23153e-08 -8.88267e-09 -0.000135642)
(-2.25907e-08 -1.29882e-08 -0.000135547)
(1.18584e-08 9.10676e-09 -0.00013581)
(2.16921e-08 -1.26006e-08 -0.000135547)
(-1.10924e-08 8.76068e-09 -0.000135806)
(7.59354e-09 -8.03623e-09 -0.000141677)
(-1.83279e-08 2.91144e-08 -0.000141678)
(-1.03532e-08 8.70623e-09 -0.000141636)
(2.46717e-08 -1.59654e-08 -0.000141668)
(-3.39024e-08 5.77656e-08 -0.000141676)
(1.73925e-08 -2.60267e-08 -0.000141677)
(5.14457e-08 -3.03435e-08 -0.000141669)
(-2.67072e-08 1.73839e-08 -0.000141634)
(6.44388e-08 -3.79551e-08 -0.000141605)
(-9.97071e-08 5.68058e-08 -0.00014166)
(-3.46076e-08 5.82437e-08 -0.000141685)
(6.20642e-08 -1.09456e-07 -0.000141694)
(-1.81702e-07 1.02643e-07 -0.000141753)
(1.32368e-07 -7.37384e-08 -0.000141582)
(1.10793e-07 -1.96978e-07 -0.000141788)
(-6.89784e-08 1.23291e-07 -0.000141664)
(-2.39942e-08 -1.35802e-08 -0.000135899)
(3.21326e-08 1.70604e-08 -0.000135385)
(-3.52292e-08 2.01655e-08 -0.000135208)
(4.41906e-08 -2.03505e-08 -0.000136072)
(3.10442e-08 1.8414e-08 -0.000135201)
(-4.29851e-08 -1.97929e-08 -0.000136074)
(3.45957e-08 5.83034e-08 -0.000141685)
(-6.00348e-08 -1.0598e-07 -0.000141696)
(1.78066e-07 1.00458e-07 -0.000141742)
(-1.31382e-07 -7.3062e-08 -0.000141592)
(-1.1293e-07 -2.00531e-07 -0.00014179)
(7.03736e-08 1.25884e-07 -0.000141663)
(-1.11849e-08 -1.77876e-08 -0.000136007)
(1.88194e-08 3.66827e-08 -0.000135423)
(2.47985e-08 -4.73307e-08 -0.000135238)
(-1.63316e-08 3.3924e-08 -0.000136182)
(2.3236e-08 4.37751e-08 -0.000135235)
(-1.72363e-08 -3.62436e-08 -0.000136185)
(1.02324e-08 1.55497e-08 -0.000136002)
(-1.98864e-08 -3.89726e-08 -0.000135425)
(1.15843e-08 -1.90371e-08 -0.00013601)
(-1.80087e-08 3.42718e-08 -0.000135428)
(-2.6185e-08 -5.10953e-08 -0.000135239)
(1.69324e-08 3.56182e-08 -0.00013618)
(-2.45788e-08 4.70269e-08 -0.000135241)
(1.93491e-08 -4.1804e-08 -0.000136187)
(6.24117e-08 3.65329e-08 -0.000141624)
(-1.02273e-07 -5.82109e-08 -0.000141674)
(1.09419e-07 1.94251e-07 -0.000141779)
(-7.1184e-08 -1.27353e-07 -0.000141655)
(-1.85837e-07 -1.04754e-07 -0.000141752)
(1.29568e-07 7.22158e-08 -0.000141615)
(2.03228e-08 1.20062e-08 -0.000135913)
(-3.23331e-08 -1.71996e-08 -0.000135401)
(-2.20607e-08 1.28227e-08 -0.000135909)
(3.44958e-08 -1.81445e-08 -0.000135399)
(-3.57659e-08 -2.03169e-08 -0.000135214)
(4.0381e-08 1.87644e-08 -0.000136089)
(3.70326e-08 -2.08998e-08 -0.000135215)
(-4.06108e-08 1.89237e-08 -0.000136085)
(3.64563e-08 -6.17031e-08 -0.000141674)
(-5.73818e-08 1.01011e-07 -0.000141688)
(-6.34731e-08 3.72299e-08 -0.000141631)
(1.03982e-07 -5.9423e-08 -0.000141678)
(-1.11157e-07 1.97455e-07 -0.000141787)
(7.2736e-08 -1.30282e-07 -0.000141649)
(1.8222e-07 -1.03008e-07 -0.000141767)
(-1.29845e-07 7.21536e-08 -0.000141612)
(2.54427e-07 -1.37117e-07 -0.000141558)
(-3.03299e-07 1.7963e-07 -0.000142158)
(-1.30825e-07 2.42783e-07 -0.000141649)
(1.93308e-07 -3.29267e-07 -0.000142201)
(-4.06679e-07 3.18043e-07 -0.000143198)
(4.81097e-07 -2.52648e-07 -0.000141796)
(3.38606e-07 -4.40556e-07 -0.000143269)
(-2.37275e-07 4.52678e-07 -0.000141888)
(-7.98371e-08 -3.15938e-08 -0.000136395)
(9.7014e-09 2.17411e-08 -0.00013517)
(1.14633e-07 6.57803e-08 -0.000135793)