/*--------------------------------*- C++ -*----------------------------------*\
| =========                 |                                                 |
| \\      /  F ield         | OpenFOAM: The Open Source CFD Toolbox           |
|  \\    /   O peration     | Version:  2206                                  |
|   \\  /    A nd           | Website:  www.openfoam.com                      |
|    \\/     M anipulation  |                                                 |
\*---------------------------------------------------------------------------*/
FoamFile
{
    version     2.0;
    format      ascii;
    arch        "LSB;label=32;scalar=64";
    class       volScalarField;
    location    "120";
    object      k;
}
// * * * * * * * * * * * * * * * * * * * * * * * * * * * * * * * * * * * * * //

dimensions      [0 2 -2 0 0 0 0];

internalField   nonuniform List<scalar> 
66701
(
1.97995e-05
1.82982e-05
3.0744e-05
4.63692e-05
2.43279e-05
8.13384e-05
7.34863e-05
2.66826e-05
1.84651e-05
3.13294e-05
4.67951e-05
2.4223e-05
8.10053e-05
2.67023e-05
7.3812e-05
2.0075e-05
5.71217e-06
1.35871e-06
2.42832e-07
5.87456e-08
2.74815e-07
5.73521e-06
1.36564e-06
2.44069e-07
5.88807e-08
2.74914e-07
5.68468e-06
1.32002e-06
2.31397e-07
5.34546e-08
2.43556e-07
5.79738e-06
1.34611e-06
2.35677e-07
5.3875e-08
2.4401e-07
5.79235e-06
1.37866e-06
2.46329e-07
5.91493e-08
2.75368e-07
5.79681e-06
1.37975e-06
2.46431e-07
5.91452e-08
2.75335e-07
5.48774e-06
1.28744e-06
2.27679e-07
5.42366e-08
2.51678e-07
5.68552e-06
1.34014e-06
2.3776e-07
5.61023e-08
2.58607e-07
5.50431e-06
1.29407e-06
2.28912e-07
5.43872e-08
2.51963e-07
5.69996e-06
1.34364e-06
2.38257e-07
5.61519e-08
2.5871e-07
1.95825e-05
1.98164e-05
0.000107627
4.93347e-05
4.91383e-05
3.04035e-05
0.000104374
8.34923e-05
8.12489e-05
3.06761e-05
0.000110047
0.000105303
8.40055e-05
8.48691e-05
8.15338e-05
3.133e-05
0.000109787
0.000105832
8.50355e-05
8.58659e-05
2.00087e-05
0.000108908
4.96034e-05
1.9755e-05
3.79917e-05
1.79838e-05
1.79691e-05
3.80674e-05
1.79459e-05
1.79406e-05
8.10812e-05
3.10582e-05
0.000102532
4.9701e-05
8.11854e-05
3.10323e-05
0.000102052
7.98932e-05
3.06617e-05
0.000101867
4.91019e-05
8.00929e-05
3.07317e-05
0.000101578
2.42619e-05
7.3363e-05
2.66464e-05
8.11407e-05
2.43321e-05
7.32212e-05
2.65597e-05
1.83123e-05
4.64005e-05
3.05997e-05
1.82976e-05
4.63538e-05
2.43401e-05
2.66996e-05
7.40627e-05
8.13525e-05
2.4616e-05
2.66902e-05
7.37924e-05
1.84646e-05
4.70273e-05
3.10571e-05
1.86392e-05
4.64647e-05
2.00089e-05
3.83617e-05
1.82174e-05
1.82294e-05
8.08277e-05
0.000102685
4.95448e-05
0.000102872
3.11536e-05
8.16139e-05
4.96532e-05
3.14416e-05
0.000102656
1.99133e-05
6.90744e-05
4.78721e-05
5.06899e-05
3.20593e-05
6.74539e-05
4.86179e-05
4.87927e-05
3.16541e-05
5.00276e-05
3.15757e-05
4.99989e-05
3.16701e-05
0.000106715
0.000107459
0.000114296
0.000113947
0.000106842
0.000113969
0.000113913
0.000109541
9.92352e-05
0.000109769
8.45646e-05
0.000109602
0.000109788
0.000100404
0.000108217
0.000107099
0.000105633
0.000110121
0.000107998
0.000107282
0.000104987
0.000111165
9.99374e-05
0.000111062
8.37444e-05
0.000111007
0.000111107
9.9927e-05
0.000107246
0.000105175
0.000107804
0.000109994
0.000108492
0.000104105
0.000107751
0.000111722
0.000100738
0.000111806
8.58341e-05
0.000111566
0.000100989
0.00011194
0.000107269
0.000109063
0.000115458
0.000114886
0.000114023
5.64853e-06
1.3454e-06
2.40741e-07
5.84974e-08
2.74307e-07
5.72198e-06
1.36199e-06
2.43409e-07
5.88106e-08
2.74881e-07
5.60896e-06
1.30405e-06
2.2883e-07
5.31388e-08
2.4286e-07
5.69307e-06
1.32388e-06
2.32183e-07
5.35368e-08
2.4362e-07
5.81928e-06
1.35275e-06
2.36911e-07
5.39915e-08
2.44046e-07
5.80816e-06
1.3842e-06
2.47405e-07
5.92597e-08
2.75395e-07
5.70754e-06
1.3583e-06
2.42776e-07
5.86396e-08
2.74008e-07
5.48029e-06
1.28657e-06
2.2756e-07
5.41017e-08
2.50687e-07
5.71429e-06
1.34906e-06
2.39381e-07
5.62695e-08
2.58729e-07
5.49223e-06
1.28996e-06
2.28212e-07
5.43024e-08
2.51775e-07
5.67423e-06
1.33879e-06
2.37571e-07
5.59504e-08
2.5753e-07
5.67415e-06
1.31897e-06
2.31279e-07
5.33547e-08
2.42856e-07
5.52512e-06
1.29834e-06
2.29571e-07
5.43212e-08
2.50984e-07
5.73083e-06
1.3534e-06
2.40124e-07
5.63499e-08
2.58827e-07
5.56192e-06
1.30551e-06
2.30813e-07
5.45752e-08
2.52064e-07
5.70298e-06
1.34512e-06
2.3851e-07
5.60363e-08
2.57624e-07
5.77922e-06
1.34434e-06
2.35533e-07
5.37775e-08
2.43323e-07
5.78857e-06
1.37888e-06
2.46386e-07
5.90489e-08
2.74523e-07
5.93349e-06
1.3776e-06
2.4114e-07
5.45657e-08
2.45493e-07
5.72839e-06
1.36534e-06
2.44164e-07
5.88225e-08
2.74322e-07
5.36924e-06
1.27174e-06
2.26994e-07
5.64844e-08
2.69164e-07
5.85679e-06
1.35744e-06
2.37628e-07
5.42558e-08
2.45503e-07
5.8501e-06
1.35619e-06
2.37397e-07
5.41861e-08
2.45132e-07
5.38176e-06
1.27477e-06
2.27481e-07
5.65423e-08
2.69297e-07
5.84873e-06
1.3586e-06
2.3801e-07
5.43102e-08
2.45655e-07
5.85035e-06
1.35835e-06
2.37877e-07
5.41994e-08
2.44943e-07
5.36417e-06
1.27075e-06
2.26787e-07
5.63866e-08
2.68531e-07
5.37586e-06
1.27359e-06
2.27263e-07
5.64273e-08
2.68548e-07
5.74205e-06
1.36725e-06
2.44362e-07
5.88051e-08
2.74071e-07
5.74174e-06
1.36787e-06
2.4455e-07
5.89412e-08
2.74982e-07
5.79925e-06
1.38131e-06
2.46766e-07
5.90724e-08
2.74462e-07
5.8441e-06
1.39096e-06
2.48407e-07
5.93451e-08
2.75407e-07
5.93249e-06
1.37667e-06
2.40885e-07
5.45152e-08
2.4537e-07
5.47113e-06
1.29741e-06
2.31496e-07
5.69056e-08
2.69011e-07
5.45833e-06
1.29425e-06
2.30982e-07
5.68682e-08
2.69047e-07
5.71148e-05
6.36784e-05
4.01447e-05
6.19617e-05
6.12685e-05
6.60284e-05
4.21429e-05
6.44872e-05
6.5128e-05
7.10368e-05
4.33919e-05
6.81221e-05
6.57063e-05
7.16839e-05
4.54282e-05
7.23234e-05
6.94611e-05
7.65725e-05
4.65943e-05
7.6762e-05
7.45117e-05
8.10491e-05
4.8806e-05
7.70692e-05
7.95915e-05
8.40394e-05
5.08381e-05
8.19266e-05
8.14342e-05
8.99102e-05
5.19741e-05
8.70519e-05
8.56408e-05
9.28141e-05
5.48489e-05
9.12793e-05
8.91248e-05
9.56192e-05
5.73826e-05
9.25706e-05
9.22648e-05
9.80703e-05
5.9494e-05
9.21272e-05
9.39631e-05
9.97218e-05
6.16611e-05
9.63e-05
9.34569e-05
0.000101303
6.20619e-05
0.000100374
9.7555e-05
0.000101896
6.23279e-05
0.000100232
0.000100281
0.00010422
6.52271e-05
0.000100002
0.000102155
0.000104681
6.78499e-05
0.000100974
9.98346e-05
0.00010644
6.25921e-05
6.68977e-05
5.72215e-05
6.04645e-05
5.98432e-05
6.57189e-05
6.59128e-05
6.98878e-05
6.162e-05
5.99715e-05
6.47681e-05
6.21774e-05
6.63359e-05
7.07797e-05
6.06846e-05
6.32543e-05
6.22892e-05
6.34997e-05
6.2971e-05
6.3457e-05
6.31321e-05
6.68137e-05
6.98351e-05
6.09336e-05
6.46111e-05
6.36628e-05
7.02239e-05
7.03005e-05
7.38651e-05
6.45889e-05
6.31125e-05
6.68558e-05
6.58847e-05
7.12929e-05
7.3928e-05
6.31961e-05
6.38831e-05
6.53371e-05
6.66172e-05
6.39281e-05
6.71477e-05
6.67558e-05
7.05902e-05
7.33e-05
6.46036e-05
6.53869e-05
6.7089e-05
7.14189e-05
7.46537e-05
7.60142e-05
6.75693e-05
6.69171e-05
7.08607e-05
7.10557e-05
7.3547e-05
7.87583e-05
6.63394e-05
6.77103e-05
6.90774e-05
7.11127e-05
6.78642e-05
7.13477e-05
7.24014e-05
7.39473e-05
7.71018e-05
6.73727e-05
6.86563e-05
6.77615e-05
7.6156e-05
7.55997e-05
7.91908e-05
7.2427e-05
7.28431e-05
7.26768e-05
7.30832e-05
7.90361e-05
8.12368e-05
7.01937e-05
7.23053e-05
7.36825e-05
7.59163e-05
7.27796e-05
7.51759e-05
7.38944e-05
7.72797e-05
8.24609e-05
6.80632e-05
7.36129e-05
7.0551e-05
8.10121e-05
7.966e-05
8.51244e-05
7.40969e-05
7.42702e-05
7.79137e-05
7.79605e-05
8.20011e-05
8.43928e-05
7.51423e-05
7.5848e-05
7.87947e-05
7.63055e-05
7.48782e-05
7.65668e-05
7.92906e-05
8.17915e-05
8.56735e-05
7.16305e-05
7.8483e-05
7.48118e-05
8.36458e-05
8.53301e-05
8.70065e-05
7.85666e-05
7.8887e-05
8.02278e-05
8.20976e-05
8.48741e-05
8.99601e-05
7.9085e-05
7.7704e-05
7.93449e-05
8.13687e-05
8.11028e-05
8.05517e-05
8.16485e-05
8.6843e-05
8.94899e-05
7.61039e-05
8.14915e-05
7.99342e-05
8.97851e-05
8.74747e-05
9.30617e-05
8.0303e-05
8.39588e-05
8.32849e-05
8.39917e-05
9.04296e-05
9.34838e-05
8.01578e-05
8.27079e-05
8.33642e-05
8.69393e-05
8.25723e-05
8.54136e-05
8.56684e-05
8.99003e-05
9.38809e-05
8.12313e-05
8.46674e-05
8.4924e-05
9.31543e-05
9.33926e-05
9.62155e-05
8.49751e-05
8.48306e-05
8.81568e-05
8.83073e-05
9.37795e-05
9.67861e-05
8.46601e-05
8.76795e-05
8.82589e-05
8.94752e-05
8.69482e-05
9.11243e-05
9.06509e-05
9.48472e-05
9.69965e-05
8.63696e-05
8.8592e-05
8.77325e-05
9.46343e-05
9.635e-05
9.77449e-05
8.88767e-05
9.0017e-05
9.17808e-05
9.29017e-05
9.6736e-05
9.84435e-05
8.91294e-05
8.96696e-05
9.19918e-05
9.27239e-05
9.0463e-05
9.24384e-05
9.0187e-05
9.74955e-05
9.83697e-05
8.7237e-05
9.14079e-05
8.9642e-05
9.70914e-05
9.81738e-05
0.000100111
9.11849e-05
9.33399e-05
9.24592e-05
9.30673e-05
9.87106e-05
9.99102e-05
9.37081e-05
9.39737e-05
9.33165e-05
9.59564e-05
9.08948e-05
9.17606e-05
9.42209e-05
9.9555e-05
0.000100171
9.07104e-05
9.35893e-05
9.32859e-05
9.95403e-05
0.000100015
0.000102357
9.1921e-05
9.26114e-05
9.41961e-05
9.43938e-05
0.0001002
0.000103018
9.40582e-05
9.76384e-05
9.70508e-05
9.72415e-05
9.57827e-05
9.54223e-05
9.64448e-05
0.000100078
0.000102127
9.50206e-05
9.33517e-05
9.52021e-05
0.00010148
0.00010202
0.000104163
9.50937e-05
9.54364e-05
9.86268e-05
9.78043e-05
0.000103064
0.00010449
9.73788e-05
9.64078e-05
9.89984e-05
9.771e-05
9.80233e-05
9.87041e-05
9.74243e-05
0.00010221
0.000102635
9.3681e-05
9.61033e-05
9.43243e-05
0.000102485
0.00010434
0.000105317
9.94944e-05
9.90187e-05
9.90434e-05
0.000100972
0.000104902
0.000105213
9.88678e-05
9.82769e-05
9.8199e-05
0.000100535
9.58792e-05
0.00010122
9.61997e-05
0.000103571
0.000105575
9.52652e-05
9.99084e-05
9.78841e-05
0.000103191
0.000105416
0.000107388
9.97691e-05
0.000101034
0.000101896
0.00010065
0.000104649
0.000106519
9.87909e-05
0.000100997
0.000102023
0.000103406
9.67402e-05
0.000101611
9.90428e-05
0.000106316
0.00010663
9.89399e-05
0.000102079
0.000100768
0.000104923
0.00010643
0.000107382
0.000102131
0.000100373
0.000102482
0.00010379
0.000106517
0.00010733
0.00010243
0.000103961
0.000104616
0.000104697
0.000100875
0.000100665
0.000103199
0.000106317
0.00010768
9.99377e-05
9.9535e-05
0.000101571
0.000106679
0.000103591
0.000107539
0.000105009
0.000104904
0.000102845
0.000107399
0.000100313
1.27346e-05
1.31569e-05
7.4178e-05
4.71964e-05
5.59919e-05
5.8211e-05
5.75603e-05
7.22638e-05
4.78977e-05
3.17118e-05
3.26215e-05
6.45249e-05
3.33263e-05
3.24955e-05
5.95133e-05
2.13023e-05
2.16691e-05
5.87562e-05
1.35052e-05
1.36686e-05
5.84249e-05
2.09965e-05
2.14042e-05
5.75756e-05
4.09698e-05
4.04346e-05
4.00671e-05
4.16512e-05
4.20178e-05
4.14974e-05
4.09103e-05
7.84176e-05
5.90725e-05
5.11937e-05
6.19913e-05
5.99319e-05
5.13626e-05
7.66948e-05
1.36387e-05
1.38938e-05
7.71295e-05
4.92534e-05
5.94466e-05
6.23123e-05
7.59353e-05
5.01931e-05
6.0266e-05
3.39256e-05
3.38385e-05
6.81195e-05
3.44515e-05
3.42483e-05
6.27851e-05
2.2443e-05
6.13989e-05
2.27513e-05
1.41148e-05
1.43893e-05
6.10585e-05
2.21812e-05
6.03392e-05
2.22605e-05
4.21636e-05
4.19673e-05
4.12384e-05
4.35323e-05
4.24334e-05
4.35448e-05
4.21435e-05
8.09591e-05
6.23737e-05
5.19249e-05
6.53011e-05
8.05302e-05
6.34389e-05
5.24996e-05
1.43766e-05
1.45993e-05
8.16228e-05
5.14068e-05
6.19067e-05
6.56951e-05
8.05301e-05
5.13795e-05
6.29905e-05
3.51997e-05
3.54906e-05
7.15424e-05
3.53006e-05
3.59978e-05
6.68871e-05
2.33554e-05
6.53366e-05
2.34351e-05
1.50341e-05
1.53507e-05
6.3885e-05
2.30504e-05
6.30655e-05
2.35303e-05
4.30106e-05
4.36347e-05
4.2559e-05
4.4546e-05
4.48778e-05
4.37861e-05
4.39716e-05
8.31194e-05
6.45292e-05
5.48636e-05
6.89116e-05
8.15652e-05
6.50964e-05
5.56132e-05
1.50631e-05
1.52981e-05
8.45509e-05
5.41413e-05
6.46786e-05
6.64979e-05
8.27803e-05
5.45885e-05
6.58363e-05
3.65279e-05
3.73753e-05
7.35887e-05
3.73081e-05
3.8062e-05
6.85493e-05
2.43004e-05
6.75029e-05
2.47662e-05
1.59935e-05
1.62335e-05
6.69726e-05
2.46101e-05
6.58736e-05
2.47489e-05
4.5521e-05
4.42264e-05
4.45233e-05
4.68447e-05
4.78554e-05
4.59794e-05
4.62871e-05
8.85138e-05
6.71882e-05
5.85293e-05
7.33868e-05
8.64783e-05
6.79443e-05
5.90778e-05
1.56999e-05
1.59e-05
8.93451e-05
5.57564e-05
6.82226e-05
7.09604e-05
8.74703e-05
5.6375e-05
6.92817e-05
3.89462e-05
3.88646e-05
7.90612e-05
3.97476e-05
3.92131e-05
7.10138e-05
2.56867e-05
7.015e-05
2.61878e-05
1.66932e-05
1.68797e-05
7.10661e-05
2.56975e-05
6.99374e-05
2.6095e-05
4.79515e-05
4.66141e-05
4.73081e-05
4.82795e-05
4.83909e-05
4.8566e-05
4.74067e-05
9.43982e-05
7.07873e-05
6.03897e-05
7.69161e-05
9.28841e-05
7.16173e-05
6.06207e-05
1.65478e-05
1.68543e-05
9.43967e-05
5.91815e-05
7.11483e-05
7.61644e-05
9.25675e-05
5.9995e-05
7.19711e-05
4.11301e-05
4.05055e-05
8.13127e-05
4.14177e-05
4.12931e-05
7.39176e-05
2.683e-05
7.28178e-05
2.70782e-05
1.74399e-05
1.7758e-05
7.31847e-05
2.70431e-05
7.25327e-05
2.73574e-05
4.88127e-05
4.89852e-05
4.77163e-05
5.06675e-05
5.0927e-05
5.04941e-05
4.95583e-05
9.73373e-05
7.36226e-05
6.3233e-05
7.82707e-05
9.68325e-05
7.40823e-05
6.45277e-05
1.74458e-05
1.77086e-05
9.69797e-05
6.26106e-05
7.36694e-05
8.13792e-05
9.50008e-05
6.40575e-05
7.41402e-05
4.2392e-05
4.27564e-05
8.66303e-05
4.30389e-05
4.33053e-05
7.62611e-05
2.77589e-05
7.58342e-05
2.81651e-05
1.81575e-05
1.81821e-05
7.55779e-05
2.80889e-05
7.51312e-05
2.82479e-05
5.21922e-05
5.01467e-05
5.01953e-05
5.13499e-05
5.21244e-05
5.13792e-05
5.25428e-05
0.000100406
7.62294e-05
6.72793e-05
8.29147e-05
9.89988e-05
7.70559e-05
6.74847e-05
1.82073e-05
1.84087e-05
9.97358e-05
6.38079e-05
7.60366e-05
8.24458e-05
9.85862e-05
6.40123e-05
7.71359e-05
4.44683e-05
4.44166e-05
9.13525e-05
4.47573e-05
4.47359e-05
7.79374e-05
2.90202e-05
7.73695e-05
2.91174e-05
1.86251e-05
1.88096e-05
7.75504e-05
2.89362e-05
7.71284e-05
2.9108e-05
5.27881e-05
5.20182e-05
5.32194e-05
5.3968e-05
5.51897e-05
5.39428e-05
5.50495e-05
0.000103694
7.82807e-05
6.76699e-05
8.81155e-05
0.000102719
7.85221e-05
6.83807e-05
1.88785e-05
1.89734e-05
0.000103018
6.60798e-05
7.85132e-05
8.68446e-05
0.000102039
6.71301e-05
7.90727e-05
4.54144e-05
4.56343e-05
9.42245e-05
4.55679e-05
4.58836e-05
7.97937e-05
2.96191e-05
7.93593e-05
2.97628e-05
1.92452e-05
1.93486e-05
7.89023e-05
2.96957e-05
7.85411e-05
2.97831e-05
5.59681e-05
5.45119e-05
5.52431e-05
5.76594e-05
5.77659e-05
5.72858e-05
5.54274e-05
0.000104013
7.80234e-05
7.09952e-05
9.19576e-05
0.000103713
7.76545e-05
7.21407e-05
1.93702e-05
1.94501e-05
0.000104826
6.99672e-05
7.93383e-05
8.98966e-05
0.000103901
7.12168e-05
7.91734e-05
4.60928e-05
4.64038e-05
9.58612e-05
4.57976e-05
4.64845e-05
8.07294e-05
3.02725e-05
8.05817e-05
3.04748e-05
1.95818e-05
1.96278e-05
7.99045e-05
3.01546e-05
7.96797e-05
3.01772e-05
5.7723e-05
5.80427e-05
5.63906e-05
5.87182e-05
5.89499e-05
5.99274e-05
5.91425e-05
0.000104306
7.73465e-05
7.48085e-05
9.24931e-05
0.000104112
7.73657e-05
7.55153e-05
1.9668e-05
1.9726e-05
0.000105656
7.26211e-05
7.90657e-05
9.26869e-05
0.000105815
7.41501e-05
7.94424e-05
4.61698e-05
4.7429e-05
9.90143e-05
4.60612e-05
4.76707e-05
8.14144e-05
3.08115e-05
8.11514e-05
3.07312e-05
1.96569e-05
1.97003e-05
8.0726e-05
3.04795e-05
8.045e-05
3.05366e-05
5.82782e-05
6.05228e-05
5.99852e-05
6.18193e-05
5.95761e-05
6.03802e-05
6.15986e-05
0.000105473
8.01355e-05
7.71387e-05
9.27684e-05
0.000104347
8.13312e-05
7.73522e-05
1.99017e-05
1.9947e-05
0.000106711
7.2663e-05
8.14282e-05
9.30137e-05
0.000106366
7.38461e-05
8.25094e-05
4.6888e-05
4.81811e-05
0.000100886
4.74852e-05
4.82659e-05
8.19848e-05
3.09576e-05
8.20397e-05
3.10573e-05
1.9878e-05
1.99134e-05
8.12428e-05
3.0679e-05
8.11396e-05
3.06967e-05
6.04564e-05
5.96577e-05
6.17343e-05
6.1075e-05
6.3495e-05
6.05544e-05
6.12523e-05
0.000108621
8.33908e-05
7.55477e-05
9.74938e-05
0.000107539
8.39506e-05
7.6876e-05
2.00698e-05
2.00659e-05
0.000107678
7.42091e-05
8.32115e-05
9.45409e-05
0.000107521
7.49601e-05
8.35604e-05
4.8292e-05
4.86167e-05
0.00010179
4.84488e-05
4.86331e-05
8.24512e-05
3.11603e-05
8.23146e-05
3.11991e-05
2.00161e-05
1.98929e-05
8.1715e-05
3.09588e-05
8.17013e-05
3.09428e-05
6.39011e-05
6.1264e-05
6.05474e-05
6.18697e-05
6.42629e-05
6.3308e-05
6.06267e-05
0.000110019
8.42707e-05
7.70434e-05
0.000100723
0.000109718
8.41907e-05
7.7912e-05
2.01921e-05
2.01906e-05
0.000108544
7.65463e-05
8.4247e-05
9.76868e-05
0.000107855
7.70513e-05
8.44288e-05
4.90586e-05
4.88361e-05
0.00010343
4.89557e-05
4.89412e-05
8.23706e-05
3.13155e-05
8.18847e-05
3.12256e-05
2.01114e-05
2.0143e-05
8.17051e-05
3.09662e-05
8.14263e-05
3.09472e-05
6.49021e-05
6.43233e-05
6.11414e-05
6.42852e-05
6.38873e-05
6.53673e-05
6.27974e-05
0.000110188
8.47079e-05
8.06089e-05
0.000101652
0.000109824
8.43179e-05
8.10598e-05
2.03133e-05
2.02971e-05
0.000109715
7.95908e-05
8.50269e-05
0.000100433
0.000108873
7.99168e-05
8.52166e-05
4.91293e-05
4.90125e-05
0.000103459
4.92608e-05
4.91207e-05
8.19195e-05
3.12474e-05
8.29107e-05
3.1308e-05
2.0112e-05
2.01393e-05
8.21717e-05
3.10127e-05
8.21306e-05
3.08722e-05
6.39409e-05
6.67188e-05
6.36945e-05
6.7066e-05
6.59981e-05
6.44073e-05
6.41825e-05
0.000110761
8.49847e-05
8.23186e-05
0.000101216
0.000110565
8.49376e-05
8.31417e-05
2.03378e-05
2.03257e-05
0.000109163
8.22679e-05
8.54474e-05
0.000101327
0.000109624
8.22506e-05
8.57251e-05
4.92365e-05
4.91686e-05
0.000105941
4.94173e-05
4.93707e-05
1.96682e-05
3.14328e-05
8.30778e-05
6.64589e-05
6.34405e-05
6.38825e-05
8.57677e-05
8.39527e-05
0.00011032
2.04684e-05
8.23604e-05
8.5974e-05
0.000108782
4.9973e-05
4.96414e-05
3.18074e-05
3.24765e-05
6.36875e-05
3.35819e-05
3.29233e-05
1.29568e-05
1.3347e-05
1.34544e-05
1.32333e-05
6.44938e-05
3.33584e-05
3.41955e-05
3.38895e-05
3.29969e-05
1.36329e-05
1.34618e-05
7.4292e-05
4.70159e-05
5.70075e-05
5.81253e-05
5.83942e-05
7.25225e-05
4.76488e-05
5.755e-05
2.04171e-05
2.0869e-05
5.67367e-05
5.8188e-05
2.08111e-05
2.12352e-05
5.71935e-05
7.47064e-05
5.89146e-05
4.88103e-05
5.90797e-05
5.81492e-05
7.60505e-05
4.83028e-05
7.45418e-05
5.89662e-05
4.8598e-05
5.9456e-05
5.87862e-05
7.54888e-05
4.81679e-05
5.79685e-05
2.12943e-05
2.10586e-05
5.88285e-05
5.85248e-05
2.15452e-05
2.14057e-05
5.87723e-05
1.27319e-05
1.3047e-05
1.31097e-05
1.3372e-05
6.52299e-05
3.35827e-05
3.37498e-05
3.36322e-05
3.29832e-05
1.3472e-05
1.32355e-05
1.35476e-05
1.35111e-05
1.36071e-05
1.38578e-05
1.35155e-05
1.37559e-05
3.40087e-05
3.36047e-05
6.75676e-05
3.46077e-05
3.42181e-05
1.41901e-05
1.39766e-05
1.40796e-05
1.39126e-05
6.79464e-05
3.54619e-05
3.50523e-05
3.49423e-05
3.46518e-05
6.0749e-05
2.14172e-05
2.17848e-05
5.96546e-05
7.71401e-05
5.86272e-05
4.86713e-05
6.30123e-05
5.96422e-05
4.95102e-05
7.57615e-05
7.72607e-05
5.9057e-05
4.90242e-05
6.05792e-05
6.01943e-05
4.97403e-05
7.54482e-05
5.99362e-05
2.22424e-05
2.18747e-05
6.08912e-05
6.12067e-05
2.20289e-05
2.19837e-05
6.16558e-05
7.77168e-05
6.44511e-05
6.10237e-05
5.07722e-05
6.01444e-05
5.01502e-05
7.87696e-05
7.7785e-05
6.15679e-05
6.14177e-05
5.12827e-05
6.06118e-05
5.01872e-05
7.96739e-05
3.36744e-05
3.43828e-05
6.80801e-05
3.40096e-05
3.48436e-05
1.3797e-05
1.39955e-05
1.39658e-05
1.37713e-05
6.86076e-05
3.48294e-05
3.56593e-05
3.43266e-05
3.51762e-05
1.43235e-05
1.41134e-05
7.60079e-05
5.80467e-05
4.95085e-05
6.08175e-05
5.90792e-05
4.97385e-05
7.4251e-05
5.87491e-05
2.1285e-05
2.16669e-05
5.81503e-05
7.64314e-05
4.98821e-05
5.82122e-05
6.27816e-05
5.00981e-05
5.91627e-05
7.49697e-05
5.90003e-05
2.19895e-05
2.16777e-05
5.98873e-05
7.66111e-05
6.15987e-05
6.07819e-05
5.04252e-05
5.97611e-05
5.01245e-05
7.8359e-05
5.93071e-05
2.2358e-05
2.19615e-05
6.00779e-05
7.68127e-05
6.38165e-05
5.07336e-05
6.10329e-05
5.04322e-05
5.979e-05
7.80835e-05
6.02255e-05
2.14304e-05
2.17585e-05
5.96943e-05
7.83289e-05
4.91201e-05
5.90176e-05
6.32839e-05
4.97558e-05
6.00245e-05
7.69767e-05
6.02091e-05
2.13894e-05
2.17126e-05
5.96335e-05
7.88706e-05
6.26132e-05
6.16934e-05
5.13164e-05
6.05915e-05
5.10494e-05
8.04126e-05
6.05611e-05
2.22872e-05
2.19605e-05
6.08623e-05
7.86679e-05
6.30712e-05
5.09545e-05
6.12739e-05
5.03666e-05
6.04224e-05
8.00311e-05
6.07812e-05
2.20676e-05
2.19546e-05
6.1025e-05
3.38206e-05
3.45332e-05
6.73881e-05
3.4446e-05
3.49484e-05
1.37482e-05
1.39354e-05
1.42406e-05
1.40296e-05
6.79333e-05
3.51998e-05
3.54396e-05
3.47939e-05
3.51203e-05
1.42189e-05
1.40197e-05
7.8267e-05
4.91774e-05
5.95507e-05
6.15741e-05
7.6161e-05
4.9606e-05
6.02579e-05
6.03575e-05
2.15014e-05
5.93328e-05
2.18183e-05
6.01341e-05
2.16362e-05
5.92128e-05
2.19779e-05
7.76338e-05
6.27497e-05
5.15514e-05
6.14371e-05
5.13497e-05
6.03685e-05
7.96988e-05
7.84922e-05
6.28517e-05
5.04911e-05
6.24155e-05
5.00229e-05
6.08857e-05
7.93502e-05
6.08782e-05
2.23337e-05
2.19771e-05
6.19415e-05
6.06175e-05
2.2685e-05
2.22418e-05
6.16596e-05
1.36395e-05
1.38315e-05
1.36133e-05
1.38086e-05
6.86263e-05
3.50636e-05
3.51813e-05
3.47803e-05
3.46331e-05
1.4059e-05
1.39756e-05
1.42048e-05
1.39557e-05
1.4267e-05
1.43703e-05
1.42068e-05
1.43017e-05
3.56773e-05
3.53899e-05
7.24516e-05
3.58727e-05
3.55337e-05
1.4634e-05
1.44325e-05
1.46527e-05
1.4406e-05
7.27106e-05
3.6491e-05
3.63384e-05
3.60308e-05
3.58208e-05
6.27894e-05
2.21633e-05
6.20333e-05
2.24735e-05
8.01848e-05
6.1575e-05
5.17265e-05
6.49402e-05
7.8745e-05
6.24258e-05
5.28585e-05
8.0414e-05
6.15748e-05
5.15391e-05
6.37377e-05
7.99185e-05
6.1855e-05
5.14539e-05
6.34123e-05
2.33092e-05
2.29576e-05
6.48162e-05
6.3267e-05
2.31425e-05
2.27014e-05
6.46842e-05
8.11321e-05
6.59791e-05
6.39816e-05
5.3068e-05
6.28564e-05
5.3065e-05
8.3285e-05
8.07846e-05
6.47024e-05
6.36505e-05
5.17603e-05
6.23918e-05
5.13632e-05
8.26083e-05
3.52414e-05
3.60749e-05
7.30161e-05
3.59562e-05
3.65277e-05
1.4466e-05
1.46816e-05
1.48584e-05
1.45615e-05
7.29807e-05
3.70647e-05
3.69926e-05
3.6382e-05
3.68121e-05
1.49118e-05
1.47696e-05
7.88553e-05
6.13957e-05
5.08229e-05
6.38809e-05
7.85773e-05
6.15719e-05
5.11642e-05
6.12446e-05
2.26434e-05
6.06261e-05
2.28701e-05
7.8884e-05
5.12788e-05
6.18019e-05
6.45082e-05
7.89105e-05
5.17803e-05
6.2694e-05
6.16069e-05
2.27552e-05
2.24438e-05
6.24819e-05
7.8899e-05
6.48241e-05
6.2571e-05
5.20107e-05
6.18209e-05
5.15757e-05
7.99612e-05
6.18144e-05
2.32288e-05
2.30962e-05
6.26323e-05
7.90231e-05
6.56327e-05
5.32029e-05
6.3656e-05
5.25172e-05
6.31751e-05
8.00669e-05
6.18424e-05
2.25612e-05
6.11097e-05
2.29344e-05
8.09257e-05
5.16467e-05
6.14083e-05
6.489e-05
8.07547e-05
5.24957e-05
6.14811e-05
6.17445e-05
2.2234e-05
6.10845e-05
2.22859e-05
8.11849e-05
6.63317e-05
6.45538e-05
5.40143e-05
6.39377e-05
5.32093e-05
8.11784e-05
6.23977e-05
2.33211e-05
2.3121e-05
6.33155e-05
8.0736e-05
6.59084e-05
5.38118e-05
6.28083e-05
5.30745e-05
6.18685e-05
8.1916e-05
6.24454e-05
2.29431e-05
2.25432e-05
6.36453e-05
3.55833e-05
3.5788e-05
7.19811e-05
3.61616e-05
3.63335e-05
1.43537e-05
1.45936e-05
1.49397e-05
1.47219e-05
7.17423e-05
3.70833e-05
3.72193e-05
3.65736e-05
3.66488e-05
1.49704e-05
1.47231e-05
8.20894e-05
5.1019e-05
6.28252e-05
6.51942e-05
8.01584e-05
5.15115e-05
6.36063e-05
6.3703e-05
2.25728e-05
6.25958e-05
2.29327e-05
6.32984e-05
2.29736e-05
6.22385e-05
2.32075e-05
8.23732e-05
6.58759e-05
5.27693e-05
6.4172e-05
5.19584e-05
6.33439e-05
8.24919e-05
8.23907e-05
6.62451e-05
5.30112e-05
6.4514e-05
5.22832e-05
6.37007e-05
8.31368e-05
6.43058e-05
2.34952e-05
2.31431e-05
6.5179e-05
6.37823e-05
2.35173e-05
2.33833e-05
6.4713e-05
1.41163e-05
1.42158e-05
1.43413e-05
1.45455e-05
7.14922e-05
3.60534e-05
3.69654e-05
3.55059e-05
3.6338e-05
1.45958e-05
1.43291e-05
1.49132e-05
1.46738e-05
1.47611e-05
1.49826e-05
1.4825e-05
1.51187e-05
3.68856e-05
3.67928e-05
7.49664e-05
3.7466e-05
3.74885e-05
1.54091e-05
1.5146e-05
1.55822e-05
1.53195e-05
7.48721e-05
3.85009e-05
3.86107e-05
3.79256e-05
3.80245e-05
6.69424e-05
2.34212e-05
6.53746e-05
2.38802e-05
8.60329e-05
6.44511e-05
5.31406e-05
6.91883e-05
8.41034e-05
6.472e-05
5.37225e-05
8.58774e-05
6.43501e-05
5.26338e-05
6.80053e-05
8.37199e-05
6.56554e-05
5.34782e-05
6.70579e-05
2.40374e-05
2.36437e-05
6.72788e-05
6.74638e-05
2.46211e-05
2.41411e-05
6.76153e-05
8.68381e-05
7.0102e-05
6.61224e-05
5.51143e-05
6.5234e-05
5.45078e-05
8.76974e-05
8.65622e-05
6.94126e-05
6.77841e-05
5.5196e-05
6.64115e-05
5.43193e-05
8.82149e-05
3.74978e-05
3.73136e-05
7.54056e-05
3.82801e-05
3.78313e-05
1.50626e-05
1.53008e-05
1.58302e-05
1.55215e-05
7.61013e-05
3.95155e-05
3.87564e-05
3.87435e-05
3.82465e-05
1.56805e-05
1.54587e-05
8.19275e-05
6.32645e-05
5.25069e-05
6.71168e-05
8.05384e-05
6.47603e-05
5.29878e-05
6.41059e-05
2.34498e-05
6.32482e-05
2.38623e-05
8.19762e-05
5.39106e-05
6.41811e-05
6.90937e-05
8.06583e-05
5.4559e-05
6.54742e-05
6.44157e-05
2.43737e-05
2.38776e-05
6.52661e-05
8.2593e-05
6.81476e-05
6.68812e-05
5.39986e-05
6.57244e-05
5.35015e-05
8.4205e-05
6.46613e-05
2.42282e-05
2.40822e-05
6.55422e-05
8.25418e-05
7.01088e-05
5.61373e-05
6.6029e-05
5.5462e-05
6.58592e-05
8.43405e-05
6.50246e-05
2.35618e-05
6.40135e-05
2.38948e-05
8.44861e-05
5.46802e-05
6.34433e-05
6.91682e-05
8.29441e-05
5.53678e-05
6.45221e-05
6.5422e-05
2.32747e-05
6.44124e-05
2.36949e-05
8.37024e-05
7.00996e-05
6.67766e-05
5.76593e-05
6.57442e-05
5.62553e-05
8.59003e-05
6.56656e-05
2.45769e-05
2.41965e-05
6.67348e-05
8.46579e-05
7.08004e-05
5.7562e-05
6.6895e-05
5.63374e-05
6.54067e-05
8.64204e-05
6.60728e-05
2.45026e-05
2.40028e-05
6.72401e-05
3.74581e-05
3.76593e-05
7.60183e-05
3.79658e-05
3.84488e-05
1.5137e-05
1.54447e-05
1.55982e-05
1.54201e-05
7.62785e-05
3.87567e-05
3.97514e-05
3.83312e-05
3.89874e-05
1.59293e-05
1.56313e-05
8.47936e-05
5.4689e-05
6.49684e-05
6.79737e-05
8.31301e-05
5.51836e-05
6.61635e-05
6.63373e-05
2.37332e-05
6.56093e-05
2.41288e-05
6.65322e-05
2.37121e-05
6.52699e-05
2.4223e-05
8.52882e-05
6.75063e-05
5.60244e-05
6.79295e-05
5.57712e-05
6.65047e-05
8.70512e-05
8.57522e-05
6.82456e-05
5.60214e-05
6.75193e-05
5.57209e-05
6.65946e-05
8.79858e-05
6.6783e-05
2.46986e-05
2.43566e-05
6.76027e-05
6.72677e-05
2.45085e-05
2.43421e-05
6.84693e-05
1.47904e-05
1.51062e-05
1.5073e-05
1.53333e-05
7.39677e-05
3.8479e-05
3.8887e-05
3.77704e-05
3.83665e-05
1.55902e-05
1.52854e-05
1.55542e-05
1.54653e-05
1.55635e-05
1.58161e-05
1.5697e-05
1.58252e-05
3.88424e-05
3.89544e-05
7.66733e-05
3.93528e-05
3.91281e-05
1.63086e-05
1.59884e-05
1.62178e-05
1.59798e-05
7.70097e-05
4.061e-05
4.00148e-05
3.97905e-05
3.94785e-05
6.87146e-05
2.49051e-05
6.79488e-05
2.54148e-05
8.797e-05
6.66868e-05
5.64541e-05
7.26866e-05
8.79556e-05
6.79176e-05
5.72977e-05
8.87487e-05
6.83613e-05
5.62776e-05
7.32195e-05
8.85253e-05
6.97213e-05
5.77467e-05
6.911e-05
2.54654e-05
2.50282e-05
7.01511e-05
6.92155e-05
2.61217e-05
2.56793e-05
7.01909e-05
8.8549e-05
7.23328e-05
6.99891e-05
5.92709e-05
6.87115e-05
5.79452e-05
9.03596e-05
8.93208e-05
7.30912e-05
7.13026e-05
5.95964e-05
7.03783e-05
5.82968e-05
9.10281e-05
3.99413e-05
3.9052e-05
7.92338e-05
4.0457e-05
3.95222e-05
1.58228e-05
1.6014e-05
1.65764e-05
1.63598e-05
7.92592e-05
4.11608e-05
4.07279e-05
4.06802e-05
4.00064e-05
1.64813e-05
1.62e-05
8.71442e-05
6.72514e-05
5.45369e-05
7.13681e-05
8.50271e-05
6.77653e-05
5.52042e-05
6.74295e-05
2.44107e-05
6.62358e-05
2.47161e-05
8.72863e-05
5.68373e-05
6.63148e-05
7.30705e-05
8.51969e-05
5.78845e-05
6.72554e-05
6.78208e-05
2.53566e-05
2.50026e-05
6.91656e-05
8.81683e-05
7.21879e-05
6.93707e-05
5.65572e-05
6.83917e-05
5.58491e-05
9.01393e-05
6.83506e-05
2.54869e-05
2.50022e-05
6.97393e-05
8.82988e-05
7.43196e-05
5.88232e-05
6.9272e-05
5.85048e-05
6.80086e-05
9.02086e-05
6.85663e-05
2.48012e-05
6.74661e-05
2.50506e-05
8.91877e-05
5.89965e-05
6.77795e-05
7.25912e-05
8.72403e-05
5.92541e-05
6.91626e-05
6.91455e-05
2.48513e-05
6.79695e-05
2.536e-05
8.95552e-05
7.45309e-05
7.02308e-05
6.07583e-05
6.86695e-05
6.04989e-05
9.22316e-05
6.93698e-05
2.57984e-05
2.53648e-05
7.0714e-05
9.02313e-05
7.31908e-05
5.91499e-05
7.11428e-05
5.90926e-05
6.99911e-05
9.26344e-05
6.98589e-05
2.60834e-05
2.57252e-05
7.12311e-05
3.91209e-05
4.01779e-05
7.93182e-05
3.93571e-05
4.07027e-05
1.60703e-05
1.62925e-05
1.63419e-05
1.60446e-05
7.97531e-05
4.028e-05
4.13404e-05
3.97047e-05
4.10332e-05
1.65149e-05
1.63524e-05
9.03093e-05
5.58372e-05
6.74873e-05
6.87885e-05
8.85186e-05
5.64573e-05
6.80344e-05
6.93071e-05
2.48862e-05
6.81558e-05
2.51974e-05
6.95865e-05
2.46056e-05
6.91076e-05
2.48203e-05
9.01471e-05
7.2134e-05
5.79896e-05
7.0749e-05
5.69044e-05
6.98262e-05
9.20905e-05
9.11352e-05
6.96662e-05
5.78759e-05
6.9701e-05
5.70397e-05
6.85623e-05
9.12459e-05
6.99529e-05
2.57646e-05
2.53993e-05
7.11656e-05
6.98029e-05
2.54898e-05
2.50586e-05
7.08962e-05
1.57808e-05
1.61005e-05
1.56085e-05
1.5772e-05
7.94148e-05
4.08145e-05
4.01272e-05
4.02708e-05
3.95632e-05
1.65369e-05
1.62916e-05
1.6199e-05
1.5927e-05
1.64886e-05
1.67902e-05
1.6425e-05
1.66918e-05
4.11332e-05
4.05089e-05
8.19814e-05
4.18848e-05
4.11295e-05
1.71569e-05
1.69475e-05
1.71408e-05
1.68682e-05
8.26308e-05
4.28047e-05
4.22466e-05
4.23435e-05
4.16326e-05
7.15235e-05
2.63352e-05
7.07325e-05
2.64406e-05
9.30816e-05
7.06222e-05
5.95421e-05
7.5113e-05
9.09087e-05
7.19769e-05
5.92589e-05
9.38225e-05
7.16873e-05
5.97822e-05
7.51734e-05
9.18472e-05
7.23894e-05
5.94847e-05
7.15454e-05
2.67102e-05
2.64518e-05
7.24383e-05
7.19259e-05
2.69803e-05
2.66147e-05
7.28281e-05
9.37139e-05
7.68354e-05
7.37707e-05
6.0499e-05
7.28173e-05
5.97217e-05
9.55336e-05
9.39543e-05
7.65322e-05
7.39672e-05
6.02389e-05
7.29729e-05
5.94435e-05
9.54077e-05
4.15105e-05
4.12743e-05
8.29273e-05
4.19355e-05
4.18991e-05
1.66923e-05
1.69335e-05
1.72521e-05
1.69893e-05
8.36617e-05
4.29721e-05
4.2603e-05
4.23094e-05
4.22793e-05
1.72437e-05
1.70785e-05
9.26048e-05
7.01098e-05
5.73511e-05
7.59698e-05
9.09264e-05
7.1142e-05
5.80866e-05
7.13168e-05
2.58358e-05
7.0454e-05
2.62846e-05
9.22068e-05
6.01963e-05
7.00888e-05
7.64359e-05
9.09435e-05
5.95288e-05
7.1297e-05
7.17583e-05
2.67161e-05
2.63511e-05
7.23628e-05
9.33143e-05
7.71736e-05
7.27596e-05
5.94658e-05
7.17772e-05
5.87797e-05
9.48549e-05
7.19271e-05
2.70789e-05
2.66016e-05
7.28144e-05
9.27998e-05
7.60019e-05
5.99362e-05
7.35654e-05
6.05534e-05
7.20882e-05
9.38769e-05
7.22879e-05
2.61296e-05
7.13763e-05
2.64926e-05
9.50654e-05
5.98537e-05
7.17509e-05
7.61682e-05
9.32994e-05
6.0874e-05
7.2331e-05
7.24749e-05
2.6341e-05
7.18559e-05
2.65454e-05
9.48075e-05
7.65399e-05
7.34881e-05
6.25365e-05
7.22732e-05
6.15073e-05
9.66688e-05
7.28601e-05
2.69869e-05
2.6762e-05