/*--------------------------------*- C++ -*----------------------------------*\
| =========                 |                                                 |
| \\      /  F ield         | OpenFOAM: The Open Source CFD Toolbox           |
|  \\    /   O peration     | Version:  2206                                  |
|   \\  /    A nd           | Website:  www.openfoam.com                      |
|    \\/     M anipulation  |                                                 |
\*---------------------------------------------------------------------------*/
FoamFile
{
    version     2.0;
    format      ascii;
    arch        "LSB;label=32;scalar=64";
    class       volScalarField;
    location    "120";
    object      nut;
}
// * * * * * * * * * * * * * * * * * * * * * * * * * * * * * * * * * * * * * //

dimensions      [0 2 -1 0 0 0 0];

internalField   nonuniform List<scalar> 
66701
(
4.96473e-08
4.38402e-08
1.0343e-07
2.17688e-07
7.40407e-08
4.28745e-07
3.6346e-07
8.64629e-08
4.42347e-08
1.05416e-07
2.19737e-07
7.37263e-08
4.27172e-07
8.65409e-08
3.65459e-07
5.03487e-08
7.97058e-09
8.54548e-10
5.53129e-11
3.57107e-12
2.35063e-12
8.03318e-09
8.59326e-10
5.56098e-11
3.58057e-12
2.35292e-12
7.69481e-09
8.19151e-10
5.22496e-11
3.23199e-12
2.0852e-12
7.84542e-09
8.35037e-10
5.31852e-11
3.25446e-12
2.08888e-12
8.08195e-09
8.67049e-10
5.61061e-11
3.59532e-12
2.35575e-12
8.11871e-09
8.68154e-10
5.61423e-11
3.59612e-12
2.35627e-12
7.55634e-09
8.04288e-10
5.16512e-11
3.29146e-12
2.15567e-12
7.8378e-09
8.39908e-10
5.40555e-11
3.40767e-12
2.2155e-12
7.57889e-09
8.08395e-10
5.19274e-11
3.30042e-12
2.15819e-12
7.85781e-09
8.42125e-10
5.417e-11
3.41076e-12
2.21641e-12
4.91993e-08
4.96769e-08
1.72411e-06
2.43599e-07
2.40808e-07
1.02563e-07
1.66913e-06
4.61685e-07
4.28441e-07
1.03138e-07
9.13964e-07
1.6709e-06
4.60729e-07
1.83164e-06
4.30169e-07
1.05353e-07
9.12073e-07
1.67308e-06
1.832e-06
4.72026e-07
5.01555e-08
1.74254e-06
2.43152e-07
4.95483e-08
1.54287e-07
4.47759e-08
4.46402e-08
1.5492e-07
4.46926e-08
4.45825e-08
4.08964e-07
1.01854e-07
6.8186e-07
2.46857e-07
4.07814e-07
1.01806e-07
6.79098e-07
4.07177e-07
1.00101e-07
6.7401e-07
2.41382e-07
4.06015e-07
1.00399e-07
6.7247e-07
7.38774e-08
3.62944e-07
8.6343e-08
4.31299e-07
7.40675e-08
3.65168e-07
8.60897e-08
4.39044e-08
2.17449e-07
1.02937e-07
4.38457e-08
2.17928e-07
7.41264e-08
8.65459e-08
3.66876e-07
4.32643e-07
7.49449e-08
8.65428e-08
3.68484e-07
4.42639e-08
2.20365e-07
1.04502e-07
4.46615e-08
2.18284e-07
5.01846e-08
1.56021e-07
4.52708e-08
4.53973e-08
4.12932e-07
6.79741e-07
2.43796e-07
6.81289e-07
1.01766e-07
4.12171e-07
2.46124e-07
1.03131e-07
6.85921e-07
5.01441e-08
2.23827e-06
2.48063e-06
2.4828e-06
2.08051e-06
2.18221e-06
2.51477e-06
2.38281e-06
2.0618e-06
2.44937e-06
2.05752e-06
2.45268e-06
2.06145e-06
7.75647e-07
1.6774e-06
1.05763e-06
1.05842e-06
7.78625e-07
1.04262e-06
1.04075e-06
1.22011e-06
6.64269e-07
9.18287e-07
4.70022e-07
9.15436e-07
1.21713e-06
6.73213e-07
1.25885e-06
8.30789e-07
1.39323e-06
9.12277e-07
1.28134e-06
8.3053e-07
1.35044e-06
1.20668e-06
6.62147e-07
9.20251e-07
4.61798e-07
9.09851e-07
1.22626e-06
6.62684e-07
1.24857e-06
1.38867e-06
8.37496e-07
9.11509e-07
1.28848e-06
1.34078e-06
8.35422e-07
1.21758e-06
6.68932e-07
9.31955e-07
4.74413e-07
1.23589e-06
6.71261e-07
9.23056e-07
7.81799e-07
1.69862e-06
1.06277e-06
1.04066e-06
1.05532e-06
7.881e-09
8.46163e-10
5.48385e-11
3.55633e-12
2.34627e-12
7.98431e-09
8.56603e-10
5.54432e-11
3.57489e-12
2.35119e-12
7.59156e-09
8.09298e-10
5.16791e-11
3.21387e-12
2.07903e-12
7.70561e-09
8.21467e-10
5.24205e-11
3.23627e-12
2.08575e-12
7.87404e-09
8.39009e-10
5.34507e-11
3.26009e-12
2.08919e-12
8.10357e-09
8.70492e-10
5.63472e-11
3.60164e-12
2.35598e-12
7.96602e-09
8.5434e-10
5.52994e-11
3.56445e-12
2.34372e-12
7.54782e-09
8.03756e-10
5.16216e-11
3.28299e-12
2.14718e-12
7.87695e-09
8.45423e-10
5.44171e-11
3.41715e-12
2.21654e-12
7.56256e-09
8.05855e-10
5.17704e-11
3.29527e-12
2.1565e-12
7.82404e-09
8.39093e-10
5.40092e-11
3.39811e-12
2.20627e-12
7.6829e-09
8.18571e-10
5.22197e-11
3.22551e-12
2.0792e-12
7.60927e-09
8.11057e-10
5.20717e-11
3.29583e-12
2.14981e-12
7.89975e-09
8.48119e-10
5.45836e-11
3.42177e-12
2.21741e-12
7.65808e-09
8.15478e-10
5.23513e-11
3.31109e-12
2.15905e-12
7.86368e-09
8.43041e-10
5.42208e-11
3.40314e-12
2.20711e-12
7.82338e-09
8.34017e-10
5.31468e-11
3.24771e-12
2.083e-12
8.07823e-09
8.67206e-10
5.61161e-11
3.58896e-12
2.34853e-12
8.03916e-09
8.54658e-10
5.43976e-11
3.29231e-12
2.10257e-12
7.99121e-09
8.58739e-10
5.56172e-11
3.57585e-12
2.34703e-12
7.51004e-09
7.98351e-10
5.16379e-11
3.43293e-12
2.30249e-12
7.93699e-09
8.42599e-10
5.36469e-11
3.27806e-12
2.10233e-12
7.9301e-09
8.41983e-10
5.35996e-11
3.27392e-12
2.09916e-12
7.52752e-09
8.00243e-10
5.17478e-11
3.43615e-12
2.30324e-12
7.9275e-09
8.43245e-10
5.37274e-11
3.28054e-12
2.10329e-12
7.93242e-09
8.43192e-10
5.3694e-11
3.27336e-12
2.0972e-12
7.50431e-09
7.97788e-10
5.15914e-11
3.42695e-12
2.29708e-12
7.52079e-09
7.99547e-10
5.16984e-11
3.42911e-12
2.29684e-12
8.04506e-09
8.60391e-10
5.5675e-11
3.57566e-12
2.34571e-12
8.04255e-09
8.60737e-10
5.57183e-11
3.58407e-12
2.3535e-12
8.12424e-09
8.69157e-10
5.62151e-11
3.59131e-12
2.34879e-12
8.18497e-09
8.75157e-10
5.65861e-11
3.60762e-12
2.35688e-12
8.0419e-09
8.54266e-10
5.43456e-11
3.28971e-12
2.10117e-12
7.65309e-09
8.14395e-10
5.26518e-11
3.45734e-12
2.30086e-12
7.63511e-09
8.12445e-10
5.25371e-11
3.45531e-12
2.30143e-12
1.03003e-06
1.05281e-06
1.64641e-06
1.05562e-06
1.06771e-06
1.07474e-06
1.66271e-06
1.07742e-06
1.11054e-06
1.14359e-06
1.65204e-06
1.11946e-06
1.10025e-06
1.14172e-06
1.67554e-06
1.17083e-06
1.14626e-06
1.21056e-06
1.66549e-06
1.2273e-06
1.21609e-06
1.27566e-06
1.69737e-06
1.22122e-06
1.28683e-06
1.32066e-06
1.72801e-06
1.29172e-06
1.3082e-06
1.41299e-06
1.73436e-06
1.36937e-06
1.37216e-06
1.46078e-06
1.80706e-06
1.4341e-06
1.42668e-06
1.50739e-06
1.87375e-06
1.45331e-06
1.47661e-06
1.54918e-06
1.93108e-06
1.44702e-06
1.50419e-06
1.57809e-06
1.99293e-06
1.5164e-06
1.49855e-06
1.60782e-06
2.00145e-06
1.58477e-06
1.56751e-06
1.62249e-06
2.01185e-06
1.58527e-06
1.61412e-06
1.66299e-06
2.10942e-06
1.58466e-06
1.64687e-06
1.67145e-06
2.19741e-06
1.61877e-06
1.62175e-06
1.71996e-06
1.02669e-06
1.0592e-06
1.02041e-06
1.0637e-06
1.04676e-06
1.04213e-06
1.07171e-06
1.09618e-06
1.07137e-06
1.04044e-06
1.10783e-06
1.06193e-06
1.08028e-06
1.1116e-06
1.03384e-06
1.07488e-06
1.04481e-06
1.0609e-06
1.07045e-06
1.06496e-06
1.05663e-06
1.08541e-06
1.09398e-06
1.06007e-06
1.10754e-06
1.09027e-06
1.10117e-06
1.13201e-06
1.14675e-06
1.0993e-06
1.07277e-06
1.12265e-06
1.10486e-06
1.14929e-06
1.14885e-06
1.05511e-06
1.06234e-06
1.07649e-06
1.09356e-06
1.06532e-06
1.10781e-06
1.09787e-06
1.13555e-06
1.13809e-06
1.10105e-06
1.09948e-06
1.12766e-06
1.10819e-06
1.18935e-06
1.1688e-06
1.12962e-06
1.11753e-06
1.17037e-06
1.17303e-06
1.17332e-06
1.21503e-06
1.0883e-06
1.10717e-06
1.12031e-06
1.15023e-06
1.11127e-06
1.15906e-06
1.17162e-06
1.1792e-06
1.18774e-06
1.12734e-06
1.13681e-06
1.12043e-06
1.17219e-06
1.19345e-06
1.21264e-06
1.19179e-06
1.19844e-06
1.18383e-06
1.19072e-06
1.25182e-06
1.24668e-06
1.13474e-06
1.16569e-06
1.18049e-06
1.21236e-06
1.17346e-06
1.20532e-06
1.18114e-06
1.22285e-06
1.26542e-06
1.12158e-06
1.20458e-06
1.15196e-06
1.24123e-06
1.25294e-06
1.3009e-06
1.20361e-06
1.20685e-06
1.25625e-06
1.25757e-06
1.2925e-06
1.29089e-06
1.20057e-06
1.2078e-06
1.2496e-06
1.2059e-06
1.19405e-06
1.21547e-06
1.25649e-06
1.28909e-06
1.31164e-06
1.16635e-06
1.27164e-06
1.20947e-06
1.27937e-06
1.33945e-06
1.32885e-06
1.26418e-06
1.26985e-06
1.28416e-06
1.31462e-06
1.33355e-06
1.37648e-06
1.25146e-06
1.22588e-06
1.24966e-06
1.27826e-06
1.28271e-06
1.27103e-06
1.28503e-06
1.3661e-06
1.36972e-06
1.22811e-06
1.31065e-06
1.28399e-06
1.37321e-06
1.37296e-06
1.42469e-06
1.28393e-06
1.34291e-06
1.32838e-06
1.33937e-06
1.42185e-06
1.43236e-06
1.26115e-06
1.29798e-06
1.30877e-06
1.36131e-06
1.29839e-06
1.34381e-06
1.34402e-06
1.4141e-06
1.43865e-06
1.30338e-06
1.35707e-06
1.35926e-06
1.4268e-06
1.46907e-06
1.47637e-06
1.35502e-06
1.35221e-06
1.40414e-06
1.40619e-06
1.47614e-06
1.48593e-06
1.32874e-06
1.3724e-06
1.38416e-06
1.39876e-06
1.36358e-06
1.43188e-06
1.41961e-06
1.49366e-06
1.48938e-06
1.38175e-06
1.41823e-06
1.40137e-06
1.45181e-06
1.51918e-06
1.50437e-06
1.41561e-06
1.43375e-06
1.46172e-06
1.47901e-06
1.52562e-06
1.51402e-06
1.39797e-06
1.40209e-06
1.44329e-06
1.44984e-06
1.41653e-06
1.451e-06
1.41101e-06
1.5389e-06
1.51402e-06
1.39335e-06
1.4625e-06
1.43178e-06
1.49278e-06
1.55275e-06
1.54606e-06
1.45293e-06
1.48682e-06
1.47448e-06
1.48329e-06
1.55967e-06
1.54138e-06
1.47095e-06
1.47024e-06
1.46614e-06
1.50131e-06
1.42266e-06
1.44028e-06
1.47426e-06
1.5747e-06
1.54469e-06
1.44949e-06
1.49752e-06
1.49098e-06
1.53298e-06
1.58775e-06
1.58582e-06
1.46756e-06
1.47749e-06
1.50594e-06
1.50733e-06
1.58855e-06
1.59555e-06
1.47917e-06
1.52897e-06
1.52778e-06
1.52371e-06
1.49947e-06
1.50086e-06
1.51011e-06
1.58594e-06
1.57999e-06
1.51953e-06
1.49544e-06
1.52289e-06
1.56757e-06
1.62398e-06
1.61785e-06
1.52199e-06
1.52583e-06
1.57927e-06
1.56452e-06
1.63984e-06
1.62266e-06
1.53436e-06
1.51258e-06
1.56049e-06
1.53434e-06
1.53668e-06
1.55628e-06
1.52845e-06
1.62467e-06
1.5922e-06
1.49971e-06
1.54249e-06
1.51157e-06
1.58807e-06
1.66402e-06
1.63823e-06
1.5953e-06
1.58615e-06
1.58709e-06
1.61693e-06
1.67307e-06
1.63738e-06
1.5603e-06
1.5458e-06
1.55061e-06
1.58153e-06
1.50671e-06
1.5986e-06
1.51309e-06
1.65121e-06
1.64177e-06
1.52864e-06
1.60612e-06
1.57171e-06
1.60242e-06
1.68192e-06
1.67542e-06
1.60168e-06
1.62096e-06
1.63532e-06
1.61342e-06
1.67038e-06
1.66337e-06
1.56255e-06
1.59187e-06
1.61432e-06
1.62873e-06
1.52496e-06
1.60687e-06
1.56075e-06
1.69802e-06
1.66037e-06
1.59077e-06
1.64276e-06
1.61983e-06
1.63231e-06
1.69718e-06
1.68785e-06
1.64329e-06
1.6135e-06
1.62839e-06
1.64767e-06
1.69991e-06
1.68814e-06
1.62375e-06
1.64199e-06
1.6661e-06
1.66097e-06
1.59417e-06
1.60371e-06
1.63765e-06
1.69945e-06
1.68999e-06
1.60939e-06
1.60971e-06
1.64074e-06
1.67272e-06
1.6357e-06
1.71603e-06
1.68221e-06
1.67269e-06
1.64039e-06
1.73897e-06
1.62702e-06
3.18501e-08
3.30423e-08
6.36425e-07
1.2873e-06
3.07412e-07
1.04766e-06
3.17547e-07
6.22387e-07
1.29848e-06
1.55071e-07
1.60755e-07
1.03064e-06
1.64279e-07
1.59053e-07
3.16079e-07
7.17753e-08
7.30858e-08
3.10842e-07
3.38892e-08
3.43232e-08
3.06164e-07
7.02641e-08
7.17351e-08
2.9861e-07
1.68051e-06
1.65884e-06
1.64319e-06
1.65938e-06
1.67118e-06
1.64955e-06
1.6265e-06
6.50069e-07
3.20033e-07
1.2742e-06
1.05058e-06
3.27094e-07
1.26767e-06
6.37231e-07
3.4103e-08
3.4768e-08
6.58148e-07
1.28531e-06
3.26078e-07
1.07992e-06
6.50238e-07
1.29603e-06
3.31855e-07
1.65491e-07
1.66572e-07
1.07382e-06
1.6825e-07
1.68581e-07
3.3441e-07
7.57142e-08
3.256e-07
7.68317e-08
3.54618e-08
3.61794e-08
3.2092e-07
7.43401e-08
3.13923e-07
7.46795e-08
1.66065e-06
1.65204e-06
1.62437e-06
1.67221e-06
1.62783e-06
1.66663e-06
1.61769e-06
6.68749e-07
3.38543e-07
1.25232e-06
1.08617e-06
6.6677e-07
3.46805e-07
1.25744e-06
3.59769e-08
3.65661e-08
6.93969e-07
1.29369e-06
3.40228e-07
1.11473e-06
6.86893e-07
1.28331e-06
3.47584e-07
1.71847e-07
1.74951e-07
1.11591e-06
1.7252e-07
1.77563e-07
3.57197e-07
7.88858e-08
3.47532e-07
7.92449e-08
3.78018e-08
3.86195e-08
3.3664e-07
7.73384e-08
3.29032e-07
7.90014e-08
1.63634e-06
1.65481e-06
1.62001e-06
1.656e-06
1.66682e-06
1.61928e-06
1.63206e-06
6.85251e-07
3.50791e-07
1.28875e-06
1.12784e-06
6.73384e-07
3.56485e-07
1.29826e-06
3.77323e-08
3.83523e-08
7.17687e-07
1.32423e-06
3.56154e-07
1.10911e-06
7.04213e-07
1.32636e-06
3.63989e-07
1.78654e-07
1.84256e-07
1.13673e-06
1.82645e-07
1.87775e-07
3.66793e-07
8.2169e-08
3.59814e-07
8.38114e-08
4.02428e-08
4.08666e-08
3.53844e-07
8.26431e-08
3.44626e-07
8.31785e-08
1.67732e-06
1.62222e-06
1.63891e-06
1.68778e-06
1.72348e-06
1.64817e-06
1.66453e-06
7.30137e-07
3.65954e-07
1.34196e-06
1.18401e-06
7.1381e-07
3.72667e-07
1.34698e-06
3.93517e-08
3.9879e-08
7.57644e-07
1.32998e-06
3.76375e-07
1.16757e-06
7.43515e-07
1.33766e-06
3.8362e-07
1.90736e-07
1.91729e-07
1.21392e-06
1.94725e-07
1.93732e-07
3.80608e-07
8.69447e-08
3.74611e-07
8.8691e-08
4.20167e-08
4.25063e-08
3.76437e-07
8.63681e-08
3.66933e-07
8.77616e-08
1.7136e-06
1.65872e-06
1.68858e-06
1.69025e-06
1.69352e-06
1.69248e-06
1.65697e-06
7.79291e-07
3.86396e-07
1.35544e-06
1.2264e-06
7.67736e-07
3.93599e-07
1.35448e-06
4.14892e-08
4.22806e-08
7.99644e-07
1.38356e-06
3.92935e-07
1.24015e-06
7.86113e-07
1.39642e-06
3.98826e-07
2.01416e-07
1.9979e-07
1.24453e-06
2.02903e-07
2.03972e-07
3.96858e-07
9.08389e-08
3.89536e-07
9.17081e-08
4.39114e-08
4.4731e-08
3.88112e-07
9.09154e-08
3.81228e-07
9.20269e-08
1.69697e-06
1.69562e-06
1.6569e-06
1.73222e-06
1.73992e-06
1.71616e-06
1.69109e-06
8.03137e-07
4.02295e-07
1.39649e-06
1.23821e-06
8.00138e-07
4.07395e-07
1.42039e-06
4.37513e-08
4.44337e-08
8.21765e-07
1.43917e-06
4.07247e-07
1.31322e-06
8.06369e-07
1.46694e-06
4.11269e-07
2.07853e-07
2.11137e-07
1.32509e-06
2.11053e-07
2.14071e-07
4.09915e-07
9.40179e-08
4.06282e-07
9.54408e-08
4.57287e-08
4.58024e-08
4.01124e-07
9.44839e-08
3.95287e-07
9.50532e-08
1.77336e-06
1.69504e-06
1.70392e-06
1.72089e-06
1.74658e-06
1.71393e-06
1.75994e-06
8.28965e-07
4.16906e-07
1.4673e-06
1.30604e-06
8.1833e-07
4.24064e-07
1.46803e-06
4.56742e-08
4.61995e-08
8.45627e-07
1.44691e-06
4.20786e-07
1.32328e-06
8.3755e-07
1.44783e-06
4.28327e-07
2.17926e-07
2.19624e-07
1.39822e-06
2.1946e-07
2.21224e-07
4.19319e-07
9.8313e-08
4.14927e-07
9.86985e-08
4.69137e-08
4.73904e-08
4.11957e-07
9.73465e-08
4.06185e-07
9.79692e-08
1.76148e-06
1.72907e-06
1.77545e-06
1.78371e-06
1.82514e-06
1.77791e-06
1.81917e-06
8.56007e-07
4.28166e-07
1.46438e-06
1.38533e-06
8.4937e-07
4.32019e-07
1.4779e-06
4.73706e-08
4.76248e-08
8.74128e-07
1.4857e-06
4.34727e-07
1.39092e-06
8.67402e-07
1.50734e-06
4.39198e-07
2.22707e-07
2.25644e-07
1.44387e-06
2.2348e-07
2.26962e-07
4.29706e-07
1.00371e-07
4.25996e-07
1.00878e-07
4.84681e-08
4.874e-08
4.19384e-07
9.98983e-08
4.13903e-07
1.00204e-07
1.84624e-06
1.79176e-06
1.82036e-06
1.88761e-06
1.89465e-06
1.87135e-06
1.81513e-06
8.58947e-07
4.26832e-07
1.53089e-06
1.44417e-06
8.57739e-07
4.27411e-07
1.55433e-06
4.86011e-08
4.88163e-08
8.90588e-07
1.56566e-06
4.39469e-07
1.43882e-06
8.84321e-07
1.59238e-06
4.39991e-07
2.26092e-07
2.29482e-07
1.47208e-06
2.24708e-07
2.29991e-07
4.35036e-07
1.02561e-07
4.32887e-07
1.03261e-07
4.93158e-08
4.94428e-08
4.24823e-07
1.01446e-07
4.20096e-07
1.01569e-07
1.88909e-06
1.8919e-06
1.84351e-06
1.90963e-06
1.91934e-06
1.94298e-06
1.92467e-06
8.62781e-07
4.23606e-07
1.60787e-06
1.45137e-06
8.62154e-07
4.26553e-07
1.62123e-06
4.93394e-08
4.95045e-08
8.98589e-07
1.61986e-06
4.38471e-07
1.48304e-06
9.01726e-07
1.65308e-06
4.42198e-07
2.26374e-07
2.34638e-07
1.52371e-06
2.26007e-07
2.35895e-07
4.38868e-07
1.04383e-07
4.36146e-07
1.04138e-07
4.94961e-08
4.96253e-08
4.29281e-07
1.02552e-07
4.24303e-07
1.02786e-07
1.89354e-06
1.95891e-06
1.94931e-06
2.00093e-06
1.92847e-06
1.94653e-06
1.99275e-06
8.74146e-07
4.40035e-07
1.65203e-06
1.45721e-06
8.65916e-07
4.49487e-07
1.65503e-06
4.99272e-08
5.00558e-08
9.08143e-07
1.61803e-06
4.5249e-07
1.48893e-06
9.07168e-07
1.64373e-06
4.60036e-07
2.30172e-07
2.38293e-07
1.55563e-06
2.33167e-07
2.38818e-07
4.41984e-07
1.04886e-07
4.4097e-07
1.0527e-07
5.00607e-08
5.01635e-08
4.32131e-07
1.03252e-07
4.28023e-07
1.03333e-07
1.95443e-06
1.92161e-06
1.99489e-06
1.97157e-06
2.05011e-06
1.94828e-06
1.97413e-06
9.01471e-07
4.58472e-07
1.61623e-06
1.53536e-06
8.93855e-07
4.64178e-07
1.64377e-06
5.03384e-08
5.03508e-08
9.16522e-07
1.65266e-06
4.62787e-07
1.51618e-06
9.17131e-07
1.66934e-06
4.66147e-07
2.37005e-07
2.405e-07
1.57467e-06
2.37847e-07
2.40699e-07
4.44445e-07
1.0558e-07
4.4245e-07
1.05745e-07
5.04041e-08
5.01045e-08
4.34606e-07
1.04168e-07
4.31041e-07
1.0413e-07
2.06144e-06
1.97118e-06
1.95088e-06
1.99792e-06
2.0731e-06
2.03644e-06
1.95338e-06
9.13338e-07
4.63332e-07
1.65138e-06
1.58957e-06
9.12693e-07
4.65529e-07
1.66934e-06
5.06459e-08
5.06606e-08
9.24032e-07
1.70602e-06
4.68704e-07
1.56928e-06
9.20074e-07
1.71729e-06
4.71141e-07
2.41007e-07
2.41478e-07
1.60475e-06
2.40635e-07
2.4221e-07
4.4407e-07
1.06074e-07
4.40035e-07
1.05774e-07
5.06373e-08
5.07365e-08
4.34381e-07
1.0415e-07
4.2948e-07
1.04114e-07
2.09233e-06
2.06995e-06
1.97083e-06
2.0802e-06
2.06223e-06
2.10373e-06
2.02564e-06
9.14258e-07
4.65706e-07
1.73283e-06
1.60632e-06
9.13303e-07
4.66107e-07
1.74021e-06
5.09502e-08
5.0927e-08
9.34455e-07
1.77576e-06
4.73231e-07
1.61556e-06
9.29197e-07
1.7828e-06
4.75582e-07
2.41097e-07
2.42376e-07
1.60784e-06
2.41792e-07
2.43072e-07
4.39707e-07
1.05835e-07
4.45438e-07
1.06088e-07
5.06495e-08
5.0735e-08
4.36722e-07
1.04321e-07
4.33406e-07
1.03897e-07
2.06402e-06
2.14826e-06
2.05572e-06
2.16354e-06
2.12326e-06
2.09189e-06
2.08845e-06
9.17946e-07
4.67295e-07
1.77467e-06
1.60185e-06
9.19241e-07
4.69141e-07
1.78728e-06
5.10059e-08
5.09903e-08
9.29473e-07
1.8378e-06
4.75693e-07
1.63173e-06
9.3565e-07
1.83678e-06
4.78108e-07
2.41661e-07
2.43294e-07
1.64976e-06
2.42623e-07
2.44445e-07
4.93352e-08
1.06022e-07
4.40011e-07
2.14685e-06
2.07514e-06
2.09182e-06
4.72773e-07
1.84327e-06
9.23924e-07
5.14295e-08
1.83786e-06
4.79721e-07
9.28244e-07
2.46348e-07
2.46235e-07
1.56109e-07
1.60753e-07
1.05386e-06
1.66729e-07
1.62286e-07
3.25276e-08
3.35649e-08
3.36598e-08
3.31586e-08
1.07417e-06
1.63189e-07
1.68869e-07
1.68352e-07
1.627e-07
3.42341e-08
3.38265e-08
6.37004e-07
1.28005e-06
3.12262e-07
1.02959e-06
3.21206e-07
6.24568e-07
1.28476e-06
3.05e-07
6.89227e-08
7.05391e-08
2.99687e-07
3.08425e-07
7.00844e-08
7.16152e-08
3.02181e-07
6.4166e-07
1.04784e-06
1.28824e-06
3.25097e-07
3.20027e-07
6.50171e-07
1.28943e-06
6.40039e-07
1.03787e-06
1.28108e-06
3.27062e-07
3.22312e-07
6.4535e-07
1.28439e-06
3.06615e-07
7.18269e-08
7.12023e-08
3.12201e-07
3.09576e-07
7.26828e-08
7.21509e-08
3.11861e-07
3.18163e-08
3.26282e-08
3.28716e-08
3.35553e-08
1.06898e-06
1.64512e-07
1.66911e-07
1.66186e-07
1.6191e-07
3.37032e-08
3.30799e-08
3.40116e-08
3.38944e-08
3.41462e-08
3.48008e-08
3.37844e-08
3.44174e-08
1.67666e-07
1.63959e-07
1.06471e-06
1.7059e-07
1.67066e-07
3.56556e-08
3.50934e-08
3.52451e-08
3.47998e-08
1.09899e-06
1.75097e-07
1.71453e-07
1.73201e-07
1.7015e-07
3.22942e-07
7.21664e-08
7.34657e-08
3.15813e-07
6.57757e-07
3.21474e-07
1.27291e-06
1.08929e-06
3.28312e-07
1.28358e-06
6.48557e-07
6.58929e-07
3.23689e-07
1.28202e-06
1.04524e-06
3.31175e-07
1.28891e-06
6.45673e-07
3.1741e-07
7.50452e-08
7.37653e-08
3.23785e-07
3.24456e-07
7.43568e-08
7.41714e-08
3.2809e-07
6.63595e-07
1.10823e-06
3.36101e-07
1.29442e-06
3.30042e-07
1.28933e-06
6.70105e-07
6.64424e-07
1.05695e-06
3.38087e-07
1.30629e-06
3.32422e-07
1.28932e-06
6.78298e-07
1.66026e-07
1.68017e-07
1.07433e-06
1.67624e-07
1.70357e-07
3.45001e-08
3.50224e-08
3.50935e-08
3.45803e-08
1.11165e-06
1.71928e-07
1.74508e-07
1.70073e-07
1.7275e-07
3.58604e-08
3.53003e-08
6.28831e-07
3.14052e-07
1.23451e-06
1.03032e-06
3.21928e-07
1.22951e-06
6.15876e-07
3.08077e-07
7.12563e-08
7.26006e-08
3.01814e-07
6.32389e-07
1.24268e-06
3.15202e-07
1.06014e-06
1.23845e-06
3.2273e-07
6.22023e-07
3.06457e-07
7.37197e-08
7.2633e-08
3.14335e-07
6.34291e-07
1.03834e-06
3.31373e-07
1.22613e-06
3.23505e-07
1.22879e-06
6.47207e-07
3.08238e-07
7.49638e-08
7.35966e-08
3.15422e-07
6.35945e-07
1.07177e-06
1.23391e-06
3.33213e-07
1.23673e-06
3.24035e-07
6.44846e-07
3.16019e-07
7.17641e-08
7.29217e-08
3.10146e-07
6.49134e-07
1.22296e-06
3.19515e-07
1.06966e-06
1.22989e-06
3.2732e-07
6.39589e-07
3.1586e-07
7.1618e-08
7.27674e-08
3.09755e-07
6.54295e-07
1.056e-06
3.3701e-07
1.24665e-06
3.28548e-07
1.24995e-06
6.65382e-07
3.14957e-07
7.47401e-08
7.35942e-08
3.19706e-07
6.52416e-07
1.06077e-06
1.24043e-06
3.34247e-07
1.23573e-06
3.27309e-07
6.62012e-07
3.16021e-07
7.39905e-08
7.35701e-08
3.20469e-07
1.66135e-07
1.71802e-07
1.06053e-06
1.68561e-07
1.72468e-07
3.45104e-08
3.50025e-08
3.56512e-08
3.50987e-08
1.09775e-06
1.72241e-07
1.74905e-07
1.71531e-07
1.74614e-07
3.57311e-08
3.52038e-08
6.67919e-07
1.28319e-06
3.26537e-07
1.06572e-06
6.52293e-07
1.28079e-06
3.31704e-07
3.20919e-07
7.24907e-08
3.14122e-07
7.36187e-08
3.19622e-07
7.29563e-08
3.13436e-07
7.41808e-08
6.6336e-07
1.0815e-06
1.30783e-06
3.38652e-07
1.314e-06
3.31385e-07
6.78785e-07
6.70658e-07
1.0822e-06
1.28108e-06
3.4386e-07
1.28004e-06
3.34116e-07
6.75708e-07
3.22792e-07
7.5395e-08
7.41548e-08
3.29792e-07
3.21291e-07
7.65903e-08
7.50313e-08
3.28146e-07
3.41018e-08
3.46134e-08
3.41593e-08
3.46746e-08
1.11082e-06
1.71273e-07
1.73557e-07
1.70849e-07
1.71155e-07
3.51992e-08
3.4957e-08
3.56919e-08
3.50353e-08
3.58441e-08
3.61294e-08
3.55544e-08
3.58229e-08
1.76922e-07
1.73747e-07
1.13121e-06
1.77349e-07
1.73912e-07
3.68085e-08
3.62836e-08
3.67129e-08
3.60727e-08
1.16524e-06
1.80538e-07
1.78032e-07
1.79499e-07
1.7601e-07
3.34522e-07
7.48404e-08
3.2918e-07
7.5923e-08
6.81464e-07
3.38067e-07
1.30815e-06
1.10024e-06
6.71012e-07
3.43988e-07
1.32643e-06
6.83527e-07
3.37908e-07
1.3023e-06
1.07841e-06
6.81454e-07
3.40822e-07
1.29046e-06
3.3684e-07
7.8746e-08
7.75139e-08
3.45722e-07
3.36138e-07
7.82484e-08
7.67227e-08
3.45089e-07
6.90876e-07
1.11305e-06
3.528e-07
1.31212e-06
3.45285e-07
1.32172e-06
7.07557e-07
6.87978e-07
1.0899e-06
3.51109e-07
1.27941e-06
3.42742e-07
1.27898e-06
7.0173e-07
1.75087e-07
1.77404e-07
1.14057e-06
1.77651e-07
1.79002e-07
3.62015e-08
3.67724e-08
3.7368e-08
3.66043e-08
1.17028e-06
1.83309e-07
1.81376e-07
1.80624e-07
1.81223e-07
3.7369e-08
3.69787e-08
6.50329e-07
3.32543e-07
1.22622e-06
1.06183e-06
6.49434e-07
3.35863e-07
1.22555e-06
3.21919e-07
7.59417e-08
3.15474e-07
7.67413e-08
6.50541e-07
1.23761e-06
3.35243e-07
1.06798e-06
6.52149e-07
1.24075e-06
3.42533e-07
3.20964e-07
7.63733e-08
7.53173e-08
3.28843e-07
6.51245e-07
1.07289e-06
3.41665e-07
1.22878e-06
3.35074e-07
1.22696e-06
6.59025e-07
3.2207e-07
7.79843e-08
7.75126e-08
3.29694e-07
6.52248e-07
1.08209e-06
1.25729e-06
3.4805e-07
1.2498e-06
3.42953e-07
6.59782e-07
3.25359e-07
7.56219e-08
3.18202e-07
7.69658e-08
6.68308e-07
1.24818e-06
3.32765e-07
1.07674e-06
6.68437e-07
1.25987e-06
3.35542e-07
3.24799e-07
7.4554e-08
3.17977e-07
7.47664e-08
6.71002e-07
1.09899e-06
3.53157e-07
1.27679e-06
3.47312e-07
1.26612e-06
6.69628e-07
3.25448e-07
7.82933e-08
7.75473e-08
3.33677e-07
6.67236e-07
1.08889e-06
1.27355e-06
3.43239e-07
1.26505e-06
3.35531e-07
6.76053e-07
3.2571e-07
7.70231e-08
7.5636e-08
3.35534e-07
1.74585e-07
1.78009e-07
1.12212e-06
1.77185e-07
1.79312e-07
3.60569e-08
3.66845e-08
3.74361e-08
3.68648e-08
1.14842e-06
1.81718e-07
1.8391e-07
1.80511e-07
1.81877e-07
3.76506e-08
3.6999e-08
6.98069e-07
1.28425e-06
3.45044e-07
1.10589e-06
6.8369e-07
1.28707e-06
3.50621e-07
3.39697e-07
7.6175e-08
3.32371e-07
7.74602e-08
3.3739e-07
7.75703e-08
3.30335e-07
7.83981e-08
7.01444e-07
1.11268e-06
1.29946e-06
3.54403e-07
1.28865e-06
3.48466e-07
7.00468e-07
7.01748e-07
1.11858e-06
1.3062e-06
3.55968e-07
1.29733e-06
3.50076e-07
7.059e-07
3.41981e-07
7.93729e-08
7.81342e-08
3.48043e-07
3.3905e-07
7.94863e-08
7.90067e-08
3.45425e-07
3.53265e-08
3.56092e-08
3.60236e-08
3.65661e-08
1.14451e-06
1.76935e-07
1.82496e-07
1.74538e-07
1.80029e-07
3.65799e-08
3.58756e-08
3.75016e-08
3.68744e-08
3.71214e-08
3.77004e-08
3.71309e-08
3.78906e-08
1.83146e-07
1.80894e-07
1.15741e-06
1.8534e-07
1.836e-07
3.87858e-08
3.81054e-08
3.90618e-08
3.83797e-08
1.18639e-06
1.90695e-07
1.89209e-07
1.88431e-07
1.86917e-07
3.57639e-07
7.91741e-08
3.47841e-07
8.07893e-08
7.30337e-07
3.54295e-07
1.30512e-06
1.15196e-06
7.15895e-07
3.57188e-07
1.31113e-06
7.29221e-07
3.53972e-07
1.29237e-06
1.13112e-06
7.12635e-07
3.6262e-07
1.30479e-06
3.57079e-07
8.13058e-08
7.9951e-08
3.59609e-07
3.59426e-07
8.32986e-08
8.16484e-08
3.61573e-07
7.38461e-07
1.16252e-06
3.65399e-07
1.32924e-06
3.58983e-07
1.32249e-06
7.43578e-07
7.36428e-07
1.15025e-06
3.7483e-07
1.33005e-06
3.65761e-07
1.31717e-06
7.48422e-07
1.86352e-07
1.83787e-07
1.16718e-06
1.89402e-07
1.85449e-07
3.77267e-08
3.8355e-08
3.98389e-08
3.90437e-08
1.20949e-06
1.95725e-07
1.90128e-07
1.92809e-07
1.88591e-07
3.93168e-08
3.87321e-08
6.75065e-07
3.43301e-07
1.23219e-06
1.09659e-06
6.64464e-07
3.54055e-07
1.23545e-06
3.37938e-07
7.87447e-08
3.30058e-07
8.01822e-08
6.75212e-07
1.2657e-06
3.48674e-07
1.1256e-06
6.65264e-07
1.27306e-06
3.5824e-07
3.36519e-07
8.18736e-08
8.01754e-08
3.44372e-07
6.81281e-07
1.1092e-06
3.66009e-07
1.24352e-06
3.57119e-07
1.2398e-06
6.94004e-07
3.37936e-07
8.14263e-08
8.09209e-08
3.45938e-07
6.80564e-07
1.13809e-06
1.29396e-06
3.61433e-07
1.28646e-06
3.58069e-07
6.94915e-07
3.4323e-07
7.9093e-08
3.34472e-07
8.02645e-08
6.97047e-07
1.28552e-06
3.44573e-07
1.12811e-06
6.85231e-07
1.29318e-06
3.53079e-07
3.45436e-07
7.81353e-08
3.36713e-07
7.95819e-08
6.90695e-07
1.14305e-06
3.66001e-07
1.32984e-06
3.57782e-07
1.30534e-06
7.08184e-07
3.43651e-07
8.25601e-08
8.12601e-08
3.52714e-07
6.99125e-07
1.15028e-06
1.32755e-06
3.66538e-07
1.30758e-06
3.55731e-07
7.12992e-07
3.45889e-07
8.23271e-08
8.06291e-08
3.55458e-07
1.84137e-07
1.86868e-07
1.17574e-06
1.86278e-07
1.90129e-07
3.80538e-08
3.88534e-08
3.91133e-08
3.86431e-08
1.21144e-06
1.90157e-07
1.96737e-07
1.8847e-07
1.93818e-07
4.00863e-08
3.93114e-08
7.19613e-07
1.33859e-06
3.57413e-07
1.13272e-06
7.07107e-07
1.34176e-06
3.65419e-07
3.5455e-07
8.01927e-08
3.49356e-07
8.15578e-08
3.55622e-07
8.01471e-08
3.47458e-07
8.19034e-08
7.25359e-07
1.12185e-06
1.34403e-06
3.7589e-07
1.34646e-06
3.66585e-07
7.38604e-07
7.29174e-07
1.13276e-06
1.34479e-06
3.73133e-07
1.34618e-06
3.66698e-07
7.46502e-07
3.55929e-07
8.35442e-08
8.23435e-08
3.61651e-07
3.58585e-07
8.28963e-08
8.23138e-08
3.66444e-07
3.70473e-08
3.78694e-08
3.78889e-08
3.85675e-08
1.17318e-06
1.89138e-07
1.92582e-07
1.85942e-07
1.90472e-07
3.90925e-08
3.82986e-08
3.91402e-08
3.8887e-08
3.91649e-08
3.98187e-08
3.93361e-08
3.96834e-08
1.93037e-07
1.91565e-07
1.17633e-06
1.94762e-07
1.9176e-07
4.10661e-08
4.02462e-08
4.06744e-08
4.00546e-08
1.2133e-06
2.01105e-07
1.96164e-07
1.98457e-07
1.94016e-07
3.67769e-07
8.42736e-08
3.62355e-07
8.6041e-08
7.45428e-07
3.67478e-07
1.35393e-06
1.19177e-06
7.47112e-07
3.75819e-07
1.36628e-06
7.52418e-07
3.76961e-07
1.34849e-06
1.20072e-06
7.52427e-07
3.8605e-07
1.37617e-06
3.68757e-07
8.62044e-08
8.4712e-08
3.75672e-07
3.69427e-07
8.84408e-08
8.6909e-08
3.75996e-07
7.51847e-07
1.18206e-06
3.87724e-07
1.39745e-06
3.79136e-07
1.37414e-06
7.6576e-07
7.58848e-07
1.19469e-06
3.95074e-07
1.40447e-06
3.88554e-07
1.38182e-06
7.71607e-07
1.99096e-07
1.92329e-07
1.21871e-06
2.00311e-07
1.93854e-07
3.96514e-08
4.01566e-08
4.17335e-08
4.11738e-08
1.25186e-06
2.03815e-07
1.99824e-07
2.02073e-07
1.97087e-07
4.13409e-08
4.06041e-08
7.18671e-07
3.65737e-07
1.24841e-06
1.15022e-06
7.01669e-07
3.71093e-07
1.25653e-06
3.56414e-07
8.20276e-08
3.46646e-07
8.30924e-08
7.19807e-07
1.30214e-06
3.60762e-07
1.17422e-06
7.02923e-07
1.3187e-06
3.68494e-07
3.55318e-07
8.52383e-08
8.40293e-08
3.65937e-07
7.28108e-07
1.15992e-06
3.80271e-07
1.27382e-06
3.72246e-07
1.26457e-06
7.43734e-07
3.58263e-07
8.57185e-08
8.40597e-08
3.69179e-07
7.29157e-07
1.19071e-06
1.32501e-06
3.8005e-07
1.32534e-06
3.70403e-07
7.44292e-07
3.62834e-07
8.33055e-08
3.53548e-07
8.41781e-08
7.36126e-07
1.35237e-06
3.69152e-07
1.16678e-06
7.20648e-07
1.35042e-06
3.7942e-07
3.65974e-07
8.34961e-08
3.56273e-07
8.52578e-08
7.39733e-07
1.19878e-06
3.85702e-07
1.37039e-06
3.744e-07
1.37203e-06
7.6135e-07
3.64001e-07
8.67439e-08
8.52471e-08
3.74638e-07
7.45751e-07
1.17315e-06
1.33397e-06
3.90535e-07
1.33958e-06
3.81635e-07
7.64901e-07
3.66615e-07
8.7695e-08
8.64701e-08
3.77423e-07
1.92405e-07
1.99595e-07
1.21918e-06
1.93183e-07
2.01583e-07
4.04243e-08
4.10108e-08
4.09918e-08
4.02258e-08
1.25933e-06
1.97658e-07
2.04574e-07
1.95286e-07
2.04705e-07
4.15816e-08
4.11486e-08
7.65816e-07
1.33284e-06
3.71835e-07
1.13001e-06
7.52459e-07
1.34062e-06
3.76235e-07
3.71203e-07
8.41331e-08
3.63608e-07
8.52736e-08
3.7274e-07
8.32226e-08
3.68838e-07
8.39885e-08
7.65935e-07
1.18363e-06
1.36197e-06
3.91905e-07
1.34319e-06
3.85471e-07
7.8055e-07
7.74237e-07
1.14097e-06
1.36006e-06
3.85812e-07
1.34752e-06
3.78061e-07
7.73195e-07
3.73642e-07
8.71833e-08
8.59234e-08
3.81569e-07
3.72838e-07
8.62684e-08
8.48047e-08
3.801e-07
3.95463e-08
4.03783e-08
3.92586e-08
3.96983e-08
1.2525e-06
2.00118e-07
1.98638e-07
1.98024e-07
1.96486e-07
4.14803e-08
4.08359e-08
4.07781e-08
4.00739e-08
4.15108e-08
4.22902e-08
4.1178e-08
4.18716e-08
2.04386e-07
1.99158e-07
1.25393e-06
2.07622e-07
2.01811e-07
4.32144e-08
4.26728e-08
4.29989e-08
4.22994e-08
1.29827e-06
2.12087e-07
2.07306e-07
2.10358e-07
2.0522e-07
3.83453e-07
8.9176e-08
3.77879e-07
8.95469e-08
7.89032e-07
3.90096e-07
1.3962e-06
1.2168e-06
7.72053e-07
3.99099e-07
1.38254e-06
7.95266e-07
3.96057e-07
1.40156e-06
1.21829e-06
7.80281e-07
4.01351e-07
1.38788e-06
3.8241e-07
9.04598e-08
8.95881e-08
3.88567e-07
3.84564e-07
9.13978e-08
9.0176e-08
3.90765e-07
7.96093e-07
1.24201e-06
4.09383e-07
1.39931e-06
4.02647e-07
1.38732e-06
8.09754e-07
7.98064e-07
1.23748e-06
4.1041e-07
1.39302e-06
4.03432e-07
1.3808e-06
8.08668e-07
2.06076e-07
2.03457e-07
1.2699e-06
2.07802e-07
2.05699e-07
4.18486e-08
4.24852e-08
4.34508e-08
4.27745e-08
1.31545e-06
2.13095e-07
2.09262e-07
2.10564e-07
2.08626e-07
4.32682e-08
4.28289e-08
7.642e-07
3.82043e-07
1.28546e-06
1.21059e-06
7.51213e-07
3.90417e-07
1.29612e-06
3.77959e-07
8.68525e-08
3.69845e-07
8.8428e-08
7.6089e-07
1.34909e-06
3.82286e-07
1.21383e-06
7.51327e-07
1.32787e-06
3.91691e-07
3.76913e-07
8.98491e-08
8.86127e-08
3.83589e-07
7.71054e-07
1.22694e-06
3.99645e-07
1.31615e-06
3.91587e-07
1.30628e-06
7.8273e-07
3.77986e-07
9.10881e-08
8.94662e-08
3.86211e-07
7.66728e-07
1.20399e-06
1.32522e-06
4.04596e-07
1.34483e-06
3.93725e-07
7.74656e-07
3.83338e-07
8.78371e-08
3.74972e-07
8.91106e-08
7.84792e-07
1.34377e-06
3.91457e-07
1.21209e-06
7.71328e-07
1.3609e-06
3.9717e-07
3.84259e-07
8.85503e-08
3.77515e-07
8.92852e-08
7.83572e-07
1.21769e-06
4.04058e-07
1.38624e-06
3.94765e-07
1.36885e-06