/*--------------------------------*- C++ -*----------------------------------*\
| =========                 |                                                 |
| \\      /  F ield         | OpenFOAM: The Open Source CFD Toolbox           |
|  \\    /   O peration     | Version:  2206                                  |
|   \\  /    A nd           | Website:  www.openfoam.com                      |
|    \\/     M anipulation  |                                                 |
\*---------------------------------------------------------------------------*/
FoamFile
{
    version     2.0;
    format      ascii;
    arch        "LSB;label=32;scalar=64";
    class       volScalarField;
    location    "120";
    object      omega;
}
// * * * * * * * * * * * * * * * * * * * * * * * * * * * * * * * * * * * * * //

dimensions      [0 0 -1 0 0 0 0];

internalField   nonuniform List<scalar> 
66701
(
398.802
417.384
297.244
213.008
328.575
162.359
176.384
308.602
417.435
297.197
212.959
328.553
161.776
308.551
176.477
398.719
716.656
1589.97
4390.15
16450.4
116912
713.94
1589.19
4388.96
16444.5
116840
738.767
1611.45
4428.68
16539.2
116802
738.951
1612.03
4431.25
16554.2
116814
716.703
1590.06
4390.42
16451.7
116892
714.006
1589.3
4389.4
16446.9
116852
726.242
1600.72
4408
16478
116752
725.397
1595.58
4398.44
16463.5
116727
726.269
1600.8
4408.31
16478.9
116747
725.388
1595.54
4398.33
16463.2
116725
398.024
398.905
39.3578
202.524
204.056
296.437
35.1741
147.303
163.194
297.427
80.8258
36.1713
152.509
26.7567
162.699
297.381
80.9712
36.2956
26.6668
151.954
398.932
39.5487
204.001
398.702
246.24
401.64
402.532
245.723
401.541
402.415
170.803
304.928
112.134
201.335
168.917
304.818
110.23
169.865
306.308
113.825
203.42
169.266
306.096
111.065
328.408
177.63
308.611
162.403
328.513
176.408
308.512
417.095
213.386
297.267
417.318
212.703
328.359
308.502
177.494
161.272
328.455
308.405
176.284
417.149
213.406
297.191
417.343
212.864
398.707
245.876
402.41
401.553
169.69
113.903
203.223
110.27
306.131
170.25
201.741
304.869
111.617
397.12
21.9595
17.4483
17.7198
15.4094
21.8463
17.4223
17.7171
15.3527
17.8024
15.3465
17.8535
15.363
101.224
38.1568
64.5693
65.6345
100.277
63.2055
62.7419
53.89
104.874
78.6987
147.203
75.4289
52.8932
102.51
46.4857
90.1181
42.7481
77.7299
45.7147
88.336
40.357
56.3539
112.628
80.6142
150.524
76.9277
54.2379
110.543
46.1093
41.969
90.6455
77.4863
45.3518
40.2321
86.681
55.7628
112.59
80.6833
150.239
55.0106
109.724
77.664
101.052
37.5442
65.6956
62.2853
63.7665
716.728
1590
4389.99
16448.8
116912
716.652
1589.99
4390.25
16451
116912
738.842
1611.34
4427.9
16534.2
116814
738.821
1611.61
4429.24
16542.7
116802
739.046
1612.32
4432.32
16561.4
116814
716.74
1590.13
4390.72
16453.5
116892
716.486
1589.88
4390.22
16451.2
116912
726.077
1600.69
4408.23
16479.4
116752
725.444
1595.72
4399.01
16466.8
116727
726.239
1600.74
4408.14
16478.9
116752
725.229
1595.52
4398.71
16465.2
116727
738.543
1611.31
4428.96
16541.5
116802
726.104
1600.8
4408.74
16481.8
116747
725.445
1595.76
4399.19
16468.1
116725
726.282
1600.92
4408.93
16482.6
116747
725.231
1595.56
4398.86
16466.1
116725
738.712
1611.89
4431.75
16558.6
116814
716.564
1590.02
4390.65
16452.9
116892
738.073
1611.87
4432.92
16573.7
116759
716.837
1589.93
4390.09
16449.9
116881
714.943
1592.95
4395.89
16453.7
116901
737.91
1611.02
4429.49
16551.2
116776
737.708
1610.71
4429.08
16550.8
116776
714.945
1592.98
4395.95
16455.1
116921
737.777
1611.16
4429.95
16555.3
116795
737.524
1610.96
4430.24
16557.7
116795
714.812
1592.84
4395.83
16453.9
116901
714.801
1592.89
4395.95
16455.4
116921
713.736
1589.1
4389.08
16446
116840
713.92
1589.19
4389.04
16445.3
116840
713.82
1589.26
4389.67
16448.7
116852
714.005
1589.39
4389.89
16449.9
116852
737.697
1611.52
4432.46
16571.4
116777
714.892
1593.09
4396.74
16459.4
116918
714.899
1593.03
4396.55
16458.2
116904
31.6044
36.4976
20.3072
33.698
32.8782
37.8565
20.4443
34.2902
33.5986
38.1058
20.7379
34.5777
34.0679
38.3342
20.9398
34.9781
34.2731
38.7159
21.2323
35.3574
34.4663
39.3544
21.3251
35.6408
34.7816
39.1253
21.4078
35.9447
34.9036
39.6665
21.6019
36.0967
35.0449
39.0373
21.7153
36.0163
34.8787
39.5847
21.8924
36.172
34.859
39.1914
21.9187
35.9784
34.9192
39.3061
21.9553
35.8436
35.0359
39.2402
22.012
35.7663
35.131
39.4368
22.0489
35.7496
34.8733
39.2846
21.9856
35.6332
35.0757
39.7187
22.0033
35.3964
34.6652
39.0947
36.4778
37.5832
32.0355
32.2878
32.4377
36.2848
37.9933
37.9105
33.412
33.1234
33.6095
33.7099
36.8401
37.4559
34.0313
33.8597
34.5088
34.3166
34.0463
33.7427
34.253
36.4654
37.3454
31.8192
32.2257
33.146
37.5591
36.7708
37.9176
31.8944
32.2767
33.841
34.4082
35.3343
37.5142
32.6578
33.2363
34.6067
34.697
33.2434
34.0356
34.8892
35.9679
37.7775
32.2006
32.655
33.6862
36.5804
36.7547
38.0156
32.8269
33.8369
34.3575
34.4923
36.3551
37.9001
33.0361
32.855
35.1113
35.2452
33.5367
34.4491
35.5878
36.6571
37.7877
32.7082
33.7783
34.1377
38.275
35.8319
38.4787
33.3862
33.6561
34.8831
34.8045
36.9287
38.051
34.5624
33.7118
35.5409
35.6854
34.4201
34.7987
35.8414
37.0041
38.3271
33.2889
33.8705
34.7038
37.8003
35.8881
38.6211
33.775
34.3737
34.9438
35.0205
37.2657
38.1479
33.5253
34.4709
36.0546
35.9853
34.0205
35.1937
36.5182
37.3204
38.4619
33.7554
33.9277
34.9773
38.6144
37.575
38.2233
34.0406
34.1684
35.1316
35.2972
37.4331
38.2492
35.1134
34.5522
35.9285
35.9373
35.7959
34.4675
36.2242
36.2682
38.3368
33.3454
33.6824
35.5774
39.4529
36.8985
38.2824
34.1266
33.5559
35.0429
35.8654
37.4298
38.2255
34.5636
34.8662
36.1312
36.3052
35.109
34.628
36.1647
36.7387
38.5615
34.9519
34.5392
35.4193
38.5809
36.66
38.3731
33.0139
34.8605
35.4765
35.4645
36.9715
38.8318
34.2244
34.9628
36.7257
36.1704
35.1047
35.5549
36.2567
37.7503
38.1734
34.7109
34.3957
35.3886
39.2824
37.1534
38.7595
34.8438
34.207
35.4519
35.3916
37.884
38.6157
35.9537
34.2884
36.2669
36.2883
35.1892
34.6901
36.1709
36.4348
38.1531
34.0555
34.3929
35.1559
38.6288
36.3604
38.537
34.899
34.4462
35.45
35.4856
37.6959
38.486
35.2896
34.3791
36.3346
36.3795
35.3401
35.5255
36.4191
36.4725
38.2617
34.2127
34.3561
35.4173
37.7174
37.2996
38.3866
34.5072
34.21
35.4815
35.3575
36.5245
38.5715
34.9631
34.3745
36.1733
36.569
34.6003
35.2939
36.692
36.6376
38.3778
34.1871
34.3796
35.1916
38.9314
37.2947
38.7049
34.9043
33.0309
35.4299
35.4751
37.2184
38.6648
34.3668
35.7288
36.6083
36.2795
35.0001
35.239
36.1688
37.3575
38.4976
34.2034
33.7198
35.2687
37.8316
37.3218
38.3522
34.3724
34.7089
35.2836
35.4549
37.5039
38.332
35.7741
34.8511
36.1332
36.1968
34.9369
35.1876
36.4974
37.2526
38.27
34.2131
34.3722
35.1274
38.958
36.8725
38.3471
34.1793
34.0709
35.5009
35.0974
37.2691
38.4979
35.1199
35.26
36.1224
36.223
34.0891
35.1633
36.5233
36.9856
38.3062
34.1625
34.699
35.3289
38.1409
36.7277
38.6719
33.3287
33.5683
36.2722
35.6598
37.4856
38.3323
34.757
33.7896
35.7281
36.1488
35.8272
34.8873
36.214
35.5224
38.798
34.0899
33.826
35.0113
38.3834
34.0474
37.1403
33.6826
35.7373
35.0438
37.4418
33.726
399.828
398.184
74.2684
23.4101
148.113
31.0619
148.024
73.5539
22.9443
204.499
202.927
36.843
202.864
204.306
160.064
296.792
296.489
160.076
398.512
398.232
163.795
298.823
298.378
164.185
19.9692
20.2556
20.0811
19.9632
20.3402
20.4214
20.3632
79.4077
152.611
24.6461
33.1942
152.798
24.2562
79.0345
399.926
399.614
76.1274
23.8128
150.424
31.2529
76.1834
23.5161
150.209
204.999
203.146
37.7406
204.764
203.157
159.63
296.417
160.037
296.118
398.027
397.721
163.631
298.375
164.319
298.08
20.3055
20.3313
20.0203
20.2538
20.6775
20.6663
20.64
79.3662
152.959
25.1769
33.0454
79.657
152.788
24.6187
399.607
399.258
75.82
24.3518
150.792
31.9976
75.9385
24.2209
150.564
204.832
202.86
38.2679
204.618
202.732
158.964
296.066
159.735
295.73
397.709
397.485
163.029
298.046
163.729
297.846
20.5928
20.3003
20.1132
20.3642
20.9111
20.9115
21.1258
79.7618
152.947
25.5605
33.3414
79.6766
152.704
24.9187
399.21
398.884
76.7766
24.7825
150.415
33.2143
76.8405
24.055
150.309
204.462
202.845
38.5201
204.266
202.701
159.205
295.737
159.183
295.499
397.425
397.233
163.531
297.788
163.696
297.539
20.7945
20.6955
20.9318
21.087
21.1487
21.1933
21.177
79.9828
153.106
25.8664
33.6643
79.5392
152.924
25.2086
398.963
398.706
76.0718
25.1223
150.555
33.0131
76.411
24.3669
149.928
204.189
202.706
38.605
204.122
202.409
159.017
295.438
159.301
295.271
397.299
397.112
162.876
297.535
163.167
297.34
20.9624
20.8775
20.6267
21.1279
21.372
21.3493
21.51
79.8998
152.937
26.1764
34.1111
79.8731
152.376
25.6796
398.846
398.629
75.9297
25.2546
150.508
33.6296
75.5984
24.6468
149.95
204.205
202.74
39.0631
204.126
202.445
158.613
295.358
158.98
295.265
397.161
396.996
162.854
297.453
162.996
297.277
20.6789
21.0379
21.2291
21.19
21.6171
21.5527
21.6953
79.6164
152.953
26.5389
33.3932
80.4931
152.422
25.1705
398.749
398.538
77.0405
25.5373
150.504
34.0857
77.5428
25.1232
150.011
203.952
202.506
39.0577
203.924
202.294
158.736
295.251
158.722
295.106
397.07
396.967
162.546
297.288
162.663
297.18
21.2638
20.7264
21.0372
21.3828
21.7059
21.7685
22.0256
80.1146
152.441
26.6591
33.9508
80.068
152.239
26.2798
398.634
398.462
76.8447
25.8482
150.262
34.0477
77.6955
25.2202
149.881
204.052
202.24
39.0443
203.943
202.22
158.346
295.181
158.73
295.014
397.009
396.908
162.823
297.25
162.56
297.114
21.2018
21.5022
21.6461
21.5367
21.7038
21.8351
21.937
80.029
152.197
26.6601
35.1039
80.0383
152.139
25.6322
398.529
398.393
76.7396
25.814
149.596
33.5185
77.2641
24.986
149.575
203.92
202.24
38.8428
203.901
202.164
158.495
295.097
158.516
295.039
397.07
396.976
162.306
297.259
163.002
297.224
20.7641
21.2954
21.4621
21.283
21.8161
21.9106
21.8932
79.6439
152.406
26.9836
33.6327
80.0191
152.242
26.3648
398.556
398.434
76.8246
25.7734
149.98
33.4173
77.0993
25.1928
149.542
203.867
202.211
39.1429
203.809
202.114
158.514
295.165
158.578
295.125
397.07
396.98
162.497
297.246
162.782
297.11
21.4734
21.5709
21.1938
21.7651
21.8079
21.8185
21.9575
79.4996
152.515
26.7541
35.1367
80.1165
152.077
26.0396
398.627
398.469
76.1873
25.8779
149.411
33.5007
76.3749
25.2876
149.215
203.954
202.137
38.9583
203.805
202.084
158.627
295.176
158.934
295.101
397.141
396.98
162.421
297.21
162.589
297.088
21.251
21.1613
21.2883
21.3732
21.8693
21.9426
21.8297
79.6535
151.892
26.7798
34.4391
79.7667
151.668
26.1074
398.614
398.495
76.2314
25.9362
149.64
34.0103
76.5896
25.3762
149.223
203.709
202.193
38.9953
203.653
202.103
158.349
295.155
158.587
295.024
397.077
396.969
162.2
297.126
162.367
297.064
21.2336
21.5458
21.0078
21.4307
22.0978
21.9923
21.6255
79.6333
152.046
26.7695
34.4743
79.9531
151.854
25.8493
398.698
398.523
76.2798
25.7998
149.664
33.0676
76.7026
24.7865
149.163
203.759
202.148
38.7698
203.697
202.049
158.805
295.135
158.861
295.041
397.113
397.027
162.39
297.202
162.494
297.155
21.6566
21.1845
20.9517
21.4353
21.96
22.0796
22.1201
79.7039
152.176
26.6326
34.3871
79.8655
151.821
25.7717
398.692
398.547
75.9315
26.0238
149.065
33.7243
76.2326
25.1556
149.116
203.557
202.238
38.9851
203.444
202.061
158.069
295.222
158.774
295.21
397.166
397.011
162.575
297.324
162.662
297.242
21.1601
21.2504
21.7985
21.5215
21.8865
21.9135
22.0073
80.0719
151.81
26.6167
34.31
80.0176
151.735
25.7794
398.689
398.553
76.28
25.7214
149.126
33.5746
77.0627
24.9778
148.977
203.774
202.217
39.0693
203.732
202.082
159.287
295.246
158.585
295.114
397.081
396.95
162.511
297.282
162.832
297.142
21.1101
21.4753
21.7608
22.0948
21.9425
21.7046
21.8224
79.7626
152.382
26.5908
34.1246
80.5587
152.053
25.9847
398.734
398.62
77.1562
25.8016
149.329
34.0946
77.0717
25.2857
149.146
203.742
202.095
39.2924
203.679
201.97
398.666
296.473
161.074
21.2402
21.5319
21.3491
150.843
26.218
79.0704
397.989
25.8573
148.463
77.3346
202.855
201.602
203.751
202.027
35.8927
201.416
202.872
398.334
397.647
399.717
399.092
34.1637
204.415
202.498
201.301
202.808
398.227
397.966
73.4029
23.3279
148.839
31.4175
149.212
74.1117
23.0954
158.625
296.232
295.851
158.592
158.693
296.944
296.518
158.757
70.6658
31.7357
23.5039
149.919
147.13
75.2326
23.0422
70.7629
31.8668
23.8144
149.081
146.512
74.2929
23.076
156.939
296.467
295.757
159.512
157.548
296.428
296.68
159.14
400.171
399.868
398.814
398.508
35.1076
204.135
202.202
202.376
203.713
399.724
400.106
398.321
398.623
398.495
398.204
400.053
399.679
202.836
204.958
37.8814
202.87
204.818
397.978
398.269
399.476
399.789
35.5282
202.527
204.443
201.744
203.654
159.792
296.776
296.53
159.709
75.5302
150.349
24.1471
31.8252
150.275
23.6011
75.6214
75.539
150.159
24.0438
32.1036
150.263
23.6658
75.5585
158.85
296.387
296.544
158.126
158.463
296.259
296.391
159.242
71.7336
33.2289
149.982
24.2636
146.627
23.4983
75.3669
71.6427
32.1824
149.379
24.4038
147.216
23.6233
75.3203
202.826
204.639
37.4731
202.892
204.533
399.911
399.616
397.961
398.242
35.901
202.581
204.342
201.835
203.624
399.425
399.811
78.4766
153.197
24.5747
32.658
152.976
24.0797
79.5559
163.905
298.71
298.439
163.983
78.87
24.8146
153.045
32.3586
24.626
152.845
78.1263
162.253
298.285
298.455
162.734
76.4202
34.1317
152.567
25.1761
149.182
24.9588
79.2362
160.149
298.25
298.404
163.46
77.6015
33.8717
24.9805
152.105
24.6777
150.111
78.7007
163.434
298.623
298.382
163.662
79.7886
25.1309
153.085
33.6126
25.0425
152.837
79.4002
163.257
298.66
298.384
163.863
76.1218
33.5343
152.464
24.8208
149.926
24.6343
78.3918
161.575
298.196
298.4
163.061
77.9276
33.5865
25.2381
152.158
24.7837
150.073
78.9877
160.96
298.25
298.418
163.257
203.572
201.005
37.258
204.353
202.637
398.378
398.126
399.443
399.719
35.5628
204.364
202.622
202.844
201.131
397.941
398.244
74.764
23.7506
147.368
32.4132
71.8902
23.9521
149.665
159.595
296.609
158.423
296.369
159.102
296.564
157.661
296.275
74.7383
32.7177
23.7077
150.087
23.5742
148.231
75.1594
71.0673
32.605
24.2437
149.198
24.0326
147.788
75.1667
158.538
296.223
296.368
159.329
156.677
296.187
296.433
159.111
399.965
399.6
398.524
398.234
36.8476
204.723
202.708
203.573
202.349
399.412
399.793
397.985
398.332
398.029
397.744
399.58
399.233
201.656
203.686
37.4298
202.272
204.32
397.57
397.77
399.115
399.362
35.2309
202.124
204.112
200.73
203.516
159.365
296.141
156.205
296.004
75.4657
146.434
24.0838
33.4584
73.0453
149.603
24.3562
75.4119
145.976
24.2182
33.7745
72.299
149.175
24.0393
157.835
296.005
296.174
157.866
157.318
295.756
295.889
159.436
73.321
32.7774
149.5
24.7156
147.869
24.4909
75.8216
73.4261
33.0206
149.079
24.9856
146.572
24.8344
75.9378
201.279
203.349
37.7732
202.398
204.063
399.597
399.256
397.623
397.809
36.0341
202.198
203.956
201.424
203.131
399.042
399.409
79.0612
150.646
24.5183
34.2952
77.076
151.816
24.9567
163.17
298.168
159.582
298.015
79.2716
24.5935
149.534
33.8617
74.2962
24.6608
151.95
161.69
297.947
297.99
163.558
77.5345
33.4279
151.855
25.4726
148.825
25.19
79.4533
159.541
297.864
297.967
163.486
74.5861
34.2057
25.5736
151.978
25.0139
150.213
79.8437
162.744
298.342
160.71
297.982
79.2597
24.8742
149.488
33.9755
77.5213
24.7123
151.902
162.586
298.227
160.314
298.074
76.0822
32.7083
150.792
25.2499
151.388
24.5005
76.8915
160.821
297.869
298.154
162.958
76.4881
34.226
25.5366
151.979
24.735
149.525
78.9507
160.143
297.873
298.049
162.397
203.817
201.046
37.4945
204.089
202.627
398.085
397.814
399.074
399.348
35.0282
204.071
202.378
202.612
201.504
397.612
397.931
75.4037
23.7941
146.499
32.8995
72.2398
24.2086
149.171
158.986
296.328
157.718
296.058
158.857
296.165
156.246
296.021
74.3708
33.5183
23.9878
149.728
24.0911
149.085
75.9892
72.9744
33.0784
24.6565
149.054
24.4228
146.209
75.7614
155.946
296.011
296.196
159.322
156.653
295.866
295.966
159.325
399.594
399.217
398.109
397.786
37.4856
203.766
202.554
203.427
201.845
399.013
399.41
397.668
397.941
397.646
397.412
399.264
399.009
201.4
203.395
37.5888
202.148
204.186
397.286
397.477
398.912
399.155
34.9504
201.898
204.063
201.271
203.43
158.94
295.819
156.668
295.586
75.7256
147.733
23.8337
32.1252
74.0541
149.056
24.7263
75.5911
146.396
24.4369
32.9966
73.328
148.785
24.2773
157.02
295.642
295.727
158.52
157.185
295.577
295.672
159.121
72.1166
33.885
149.329
25.0446
145.792
24.2745
75.8677
72.8572
33.9591
148.724
25.044
146.346
24.2442
76.1044
201.22
203.027
37.8225
202.111
203.999
399.256
398.927
397.355
397.542
35.5816
201.893
203.844
200.943
202.801
398.823
399.118
80.084
149.331
25.0991
34.6668
78.2962
151.98
24.9864
162.887
297.796
160.263
297.601
79.6615
24.7501
150.119
34.5866
78.3286
25.726
151.58
161.181
297.699
297.817
163.186
77.0975
33.5608
151.817
25.8843
149.129
25.0465
79.6741
160.822
297.547
297.602
162.948
76.8022
33.6374
26.075
151.843
25.2563
150.442
80.1615
162.524
297.9
161.275
297.701
78.8372
25.3507
149.584
35.1177
75.9159
25.1159
151.803
162.282
297.876
160.196
297.742
75.0771
33.0751
152.387
25.5662
150.42
24.8428
78.7182
160.022
297.685
297.766
162.355
74.0595
34.0458
25.9176
152.239
25.1589
147.701
79.9221
160.022
297.625
297.694
162.347
203.425
201.529
37.6205
203.813
202.225
397.779
397.512
398.796
399.038
36.3562
203.815
202.054
203.381
201.155
397.376
397.628
76.4869
24.2469
147.202
33.4262
72.2119
24.5994
149.5
159.034
295.952
157.668
295.849
158.949
295.857
156.281
295.75
75.3544
33.6104
24.8801
148.459
24.9078
147.312
75.6445
74.099
33.5403
25.0664
149.653
24.8255
145.719
75.8494
157.262
295.635
295.793
158.881
156.887
295.652
295.723
158.622
399.231
398.904
397.821
397.569
36.9634
203.444
201.924
203.13
201.429
398.804
399.112
397.397
397.698
397.383
397.202
399.047
398.785
201.217
203.348
38.071
202.056
204.047
397.13
397.265
398.723
398.95
35.6972
201.935
203.987
200.499
203.481
159.136
295.527
156.531
295.38
76.1337
148.005
24.6704
33.1115
73.8929
149.185
24.9434
75.8688
146.952
24.8683
33.3322
73.2374
148.996
24.5651
158.177
295.407
295.451
157.423
157.404
295.359
295.474
158.741
73.3561
34.3325
149.066
25.2753
144.906
24.9855
75.7192
73.8042
33.2809
148.591
25.2745
146.951
24.5761
76.2128
200.613
203.048
38.0362
201.971
203.876
399.047
398.789
397.196
397.336
36.8147
201.952
203.819
201.314
202.988
398.669
398.976
79.7133
149.487
25.063
33.9829
77.1773
151.744
26.0636
162.872
297.592
161.409
297.453
80.0645
25.2516
150.557
35.3155
77.6126
26.1744
151.587
159.809
297.479
297.546
162.945
77.3539
34.7862
152.16
26.6065
148.078
25.7715
79.4667
158.951
297.333
297.433
162.659
77.1746
34.1174
26.4068
151.678
25.57
150.299
79.1287
162.337
297.713
159.177
297.59
79.6908
25.7406
148.805
33.5152
78.032
25.488
151.917
162.097
297.634
159.681
297.451
78.145
33.3922
150.979
25.8606
149.698
25.0827
79.5101
159.989
297.409
297.545
162.409
76.9315
35.3693
26.269
152.125
25.7191
150.762
79.0862
159.727
297.433
297.504
161.912
203.326
201.297
38.1926
203.73
201.915
397.541
397.272
398.663
398.863
37.4848
203.786
202.081
203.316
200.45
397.169
397.399
75.4571
24.6729
147.882
32.9855
72.7455
24.4706
149.296
158.589
295.796
155.912
295.489
158.803
295.66
156.991
295.52
74.1932
33.5899
24.972
150.167
24.2539
146.664
73.612
72.7121
34.1073
25.2212
149.457
24.4922
147.394
75.4854
156.259
295.522
295.604
158.139
155.807
295.471
295.486
158.318
399.045
398.743
397.582
397.297
36.8546
203.952
202.012
203.363
201.353
398.668
398.953
397.247
397.44
397.214
397.024
398.878
398.643
201.253
203.401
38.5584
201.736
203.802
397.018
397.151
398.632
398.781
36.2472
201.826
203.788
201.292
202.869
158.21
295.317
156.818
295.271
75.6962
145.19
24.2675
34.2541
73.3766
149.154
25.1988
75.8116
146.688
24.3509
33.63
74.1445
148.777
25.2352
157.825
295.271
295.261
157.233
155.381
295.197
295.142
158.887
73.5084
34.3585
148.752
25.6989
147.198
24.9167
75.4598
72.0993
34.1808
148.469
25.7027
145.342
24.9105
76.2839
201.433
202.865
37.9782
201.805
203.691
398.873
398.574
397.05
397.183
37.0486
201.657
203.587
200.934
202.656
398.531
398.76
79.1795
148.406
26.3016
35.1338
76.8658
152.211
25.7721
162.402
297.467
161.315
297.243
79.0503
25.9354
150.382
33.5461
75.9764
26.1952
151.606
161.612
297.345
297.374
162.454
77.4706
34.5575
151.884
26.6356
150.572
26.3074
79.551
159.364
297.283
297.337
162.79
77.0861
35.5038
26.6317
151.566
26.3045
148.794
79.9877
162.274
297.478
160.37
297.3
79.5866
25.2163
150.738
35.6874
74.5154
26.2564
151.566
161.997
297.469
159.678
297.31
78.5369
34.8043
151.046
26.2982
149.647
25.5607
80.0504
161.141
297.296
297.343
162.303
74.8387
35.0961
26.5585
151.739
25.668
147.909
79.912
160.579
297.275
297.353
162.769
203.417
201.559
38.2131
203.66
202.01
397.337
397.112
398.593
398.772
35.9669
203.639
202.001
202.909
201.532
397.047
397.284
75.8447
24.3534
147.959
34.3105
71.8426
25.2437
149.265
158.199
295.489
155.915
295.384
158.365
295.458
156.049
295.319
72.1583
33.3885
25.2186
150.166
25.045
146.781
77.0238
73.1662
34.4023
25.6895
148.631
24.9385
146.375
75.8149
156.751
295.363
295.405
158.617
157.01
295.211
295.317
158.641
398.861
398.637
397.442
397.181
36.5451
203.74
201.822
203.576
201.231
398.556
398.851
397.095
397.336
397.145
396.994
398.788
398.589
201.388
203.162
38.3932
201.758
203.832
396.975
397.086
398.551
398.699
35.9419
201.643
203.533
200.862
202.753
158.334
295.088
156.477
295.118
75.9875
147.178
25.3634
34.4775
70.576
149.055
24.9492
75.8883
145.166
25.3525
34.7084
74.1383
148.494
24.9795
156.895
295.193
295.273
158.142
155.867
295.108
295.055
158.564
74.5116
34.7328
148.476
25.6299
146.576
25.095
75.9473
72.9486
34.7531
148.357
25.7209
145.655
24.9103
75.7402
200.976
202.639
38.5109
201.678
203.52
398.746
398.52
396.962
397.06
37.6971
201.635
203.669
200.542
202.874
398.458
398.717
79.5668
149.934
25.4185
35.4324
76.02
151.606
26.4792
162.997
297.374
161.773
297.214
80.3618
26.1259
149.389
35.2449
78.0051
26.465
151.229
160.428
297.172
297.376
161.046
76.5874
35.4018
151.29
26.9571
149.788
26.1651
79.4011
160.228
297.048
297.114
162.362
78.343
35.3318
26.8581
151.111
26.6755
149.201
79.8579
162.49
297.394
159.26
297.214
79.285
26.2051
147.798
34.8475
78.1254
25.8796
151.712
162.475
297.288
161.993
297.149
77.1744
35.0937
152.011
25.767
149.458
26.1823
77.4661
160.868
297.204
297.268
162.079
74.9195
35.3682
26.6637
151.663
26.0433
147.769
80.1881
160.674
297.164
297.195
162.394
202.727
201.469
38.2896
203.498
201.918
397.207
397.02
398.512
398.702
36.9522
203.611
201.879
202.916
201.431
396.968
397.169
76.6103
24.5861
146.743
34.9735
72.3958
25.5111
149.124
158.659
295.36
157.007
295.227
158.481
295.224
156.98
295.143
75.0586
33.6315
25.5551
148.156
24.9803
148.394
75.1911
73.7869
34.0876
25.9236
148.713
25.1493
146.605
76.4841
157.248
295.255
295.373
158.312
155.628
295.13
295.278
158.383
398.755
398.546
397.272
397.087
36.7434
203.892
202.065
203.41
201.741
398.512
398.753
397.034
397.251
397.079
396.962
398.689
398.533
200.858
202.377
38.2613
201.574
203.931
396.955
397.069
398.51
398.68
36.8565
201.679
203.57
200.649
203.265
158.63
295.061
154.775
295.024
75.6237
145.503
25.1629
33.5074
73.2587
148.9
25.4449
75.947
146.607
24.8124
35.1736
73.0514
148.767
25.7358
155.902
295.093
295.219
158.2
157.374
294.956
295.123
158.532
71.8884
34.3305
148.462
25.761
147.487
25.48
75.9019
71.4979
34.4687
148.32
25.8561
146.889
25.0285
76.4909
200.971
203.105
38.4779
201.743
203.504
398.662
398.441
396.924
397.019
36.7558
201.513
203.544
200.586
203.055
398.417
398.662
79.4912
149.519
25.7964
33.7536
76.4003
151.602
26.7876
162.009
297.2
160.319
297.029
79.4431
25.5858
150.017
34.3436
76.7874
26.668
151.307
160.658
297.175
297.2
161.967
75.4406
35.6824
151.522
26.8651
150.135
25.9802
79.2939
158.992
296.941
297.028
161.845
75.5312
35.8821
26.9484
150.524
26.0744
148.563
79.3207
161.954
297.236
160.273
297.07
79.859
26.3111
150.079
35.5551
78.6325
26.0126
151.317
162.025
297.223
160.666
297.111
78.5136
35.5893
151.51
25.8873
148.434
25.9571
77.6244
160.7
297.125
297.218
161.76
76.9053
35.5977
26.8288
151.524
25.9449
147.84
79.4139
160.523
297.08
297.141
162.101
202.288
200.54
38.0754
203.417
201.892
397.119
396.963
398.42
398.567
36.9024
203.325
201.771
201.976
201.471
396.911
397.115
76.2804
24.7795
146.156
34.2568
73.9888
25.6553
148.578
158.091
295.288
156.006
295.158
158.203
295.13
156.194
295.048
72.4442
34.3971
25.5377
148.82
25.457
145.852
76.8304
73.8021
34.1631
26.0431
149.026
25.2993
147.031
76.0073
156.031
295.166
295.277
158.701
156.532
295.129
295.084
158.305
398.72
398.507
397.192
397.017
37.5954
203.167
202.101
202.676
201.514
398.423
398.686
397.007
397.195
397.045
396.929
398.614
398.439
200.946
202.599
38.2588
201.578
203.362
396.916
397.006
398.473
398.578
36.6303
201.386
203.356
200.742
202.485
158.19
295.042
156.311
294.973
75.7824
147.01
25.1921
34.6308
72.2152
148.446
24.8896
76.1015
146.45
25.3469
35.1557
75.033
148.462
25.6316
155.693
295.031
295.135
157.191
156.179
295.037
295.01
158.619
71.6072
33.9965
148.301
26.0341
147.195
25.9092
75.5518
72.5748
35
148.424
25.9161
146.611
25.677
76.5086
200.557
203.032
38.4831
201.558
203.567
398.626
398.437
396.962
397.007
35.9445
201.675
203.641
200.708
202.347
398.366
398.614
79.9376
149.05
26.2319
35.8984
77.5026
151.013
26.4924
161.841
296.998
159.568
296.946
79.345
26.1033
147.993
35.5042
75.5064
25.4754
150.493
161.433
297.118
297.086
162.734
78.2603
35.3401
151.055
26.8673
148.273
26.5495
80.2413
160.593
296.907
296.951
162.211
76.0396
35.5864
26.931
150.869
26.7057
148.778
79.3736
161.931
297.189
159.846
297.119
80.1986
26.3523
149.744
35.5625
75.6134
26.5998
151.185
161.986
297.119
160.518
297.044
78.4449
35.5037
151.708
26.1871
150.876
26.6806
79.3259
161.175
297.128
297.192
162.391
78.5443
35.8261
26.8248
151.431
26.5831
149.272
80.014
161.263
297.079
297.049
162.341
201.938
200.264
38.4242
203.266
201.772
397.064
396.936
398.429
398.513
37.1423
203.352
201.846
201.937
200.528
396.906
397.073
76.2112
25.6988
146.203
33.8146
71.0486
25.2916
149.014
158.592
295.174
155.68
295.121
158.392
295.141
156.755
295.068
74.6692
33.0743
25.5141
147.866
24.7688
148.181
74.4546
74.3007
34.9031
26.0096
148.736
25.2091
146.592
76.1045
156.288
295.158
295.302
158.394
156.433
295.095
295.097
158.304
398.661
398.428
397.146
397.017
36.6738
203.59
201.96
202.787
201.732
398.402
398.633
396.998
397.187
396.991
396.904
398.611
398.483
200.524
202.543
38.4652
201.371
203.43
396.95
396.997
398.561
398.666
35.7897
201.403
203.78
200.331
202.899
158.469
294.997
156.818
294.954
75.7766
145.247
24.729
34.1476
71.8884
148.574
25.7222
76.5371
146.469
25.3084
34.6647
74.3457
148.455
25.0763
156.76
295.075
295.147
158.007
155.118
295.006
294.955
158.349
71.8183
33.9287
148.459
25.9082
147.363
25.666
75.5881
72.0975
34.955
148.648
26.0304
144.806
25.7952
76.3075
200.814
203.043
38.8202
201.711
203.51
398.577
398.367
396.992
397.074
38.0074
201.601
203.463
200.813
203.035
398.335
398.555
79.9985
150.144
26.2694
34.9558
76.5284
152.126
26.5764
161.736
297.047
160.221
296.949
79.3338
26.0391
149.621
35.9546
76.4346
26.4845
151.084
159.791
297.175
297.227
161.172
77.9886
35.4453
151.752
26.9343
150.804
26.7463
79.7951
159.412
296.957
296.949
161.67
76.3334
34.7434
26.7929
150.526
26.5294
148.646
79.4057
162.065
297.19
161.304
297.116
79.3295
26.1
149.913
34.4998
76.0027
25.815
151.231
162.336
297.138
160.81
297.016
76.341
35.336
152.246
26.5259
148.901
26.559
79.7385
160.897
297.12
297.134
162.026
75.8344
35.4695
26.9145
151.001
26.6991
148.358
79.3432
160.688
296.996
297.048
162.064
202.063
201.35
38.0813
203.399
201.67
397.077
396.906
398.48
398.608
36.3915
203.343
201.653
202.993
201.038
396.891
397.044
75.8095
25.5452
146.937
34.524
73.0977
25.7459
148.964
158.383
295.197
156.527
295.096
158.22
295.116
156.337
294.998
74.6915
33.0321
25.5782
148.693
25.0433
145.692
73.511
73.7181
34.5849
26.0144
148.386
25.7586
147.083
76.1465
157.094
295.106
295.113
158.041
156.896
295.008
295.115
158.415
398.61
398.42
397.158
397.02
38.0217
203.294
201.401
202.91
200.993
398.399
398.604
396.981
397.166
397.031
396.968
398.673
398.492
200.438
202.78
38.8011
201.446
203.481
396.997
397.075
398.523
398.63
36.9144
201.58
203.423
200.785
202.692
158.093
295.023
156.091
294.996
75.9515
146.837
25.3052
33.9795
73.5164
148.629
25.6015
76.0386
145.3
24.8484
34.0418
74.214
148.637
25.8618
157.077
295.097
295.15
157.079
155.903
294.954
295.076
158.105
73.2997
34.9028
148.289
25.9665
146.36
25.7764
75.8265
73.1608
33.9346
148.314
26.0239
147.338
25.79
76.2241
200.456
202.786
38.6254
201.958
203.289
398.527
398.381
397.032
397.101
36.4036
201.766
203.278
201.576
202.419
398.38
398.555
80.0201
149.344
26.1655
35.8026
77.3606
150.992
26.4853
161.607
297.016
159.476
296.957
79.0748
25.5636
147.951
35.9803
76.1019
26.6598
150.501
160.056
297.083
297.085
160.99
77.1786
35.8098
151.132
26.8678
149.128
26.5512
79.9766
159.244
296.986
296.946
161.755
77.0375
34.8959
26.8967
150.604
26.0196
148.444
79.8212
161.576
297.162
159.7
296.975
79.208
25.5794
149.305
34.9361
76.1311
26.6207
151.182
161.836
297.077
160.509
297.038
76.1986
35.438
151.185
26.4564
150.578
25.8951
78.7704
159.328
297.041
297.164
161.853
76.1406
34.8429
26.9124
151.099
26.0525
149.63
79.1146
159.595
297.052
297.123
161.638
202.403
200.998
38.1113
203.268
201.457
397.034
396.893
398.493
398.587
36.4961
203.228
201.547
202.378
200.195
396.911
397.014
75.5888
25.2783
146.48
34.696
74.1661
25.6392
148.663
158.313
295.092
156.767
295.071
157.958
295.011
156.439
294.934
73.9522
34.0786
25.7679
148.767
25.5835
146.538
73.9648
73.5214
34.9871
26.0071
148.125
25.8305
146.059
75.6358
157.421
295.075
295.031
158.378
154.278
294.951
295.046
158.344
398.627
398.418
397.162
397.037
36.6036
203.466
201.532
202.987
201.435
398.424
398.615
396.999
397.159
397.095
396.976
398.652
398.481
200.742
202.772
38.6069
201.514
203.464
396.992
397.06
398.484
398.61
37.2393
201.356
203.256
200.508
202.41
158.423
295.006
156.707
294.887
76.1627
146.021
24.7449
34.1039
73.6326
148.462
25.7262
76.1785
146.461
24.9664
33.0929
73.8428
148.008
25.8827
156.757
295.09
295.046
158.097
156.516
294.993
294.89
158.143
74.1307
33.9931
148.195
26.1492
146.413
25.3557
76.1263
74.1119
34.9193
148.163
26.1742
145.031
25.4522
76.287
201.281
202.457
38.4994
201.495
203.236
398.58
398.436
396.988
397.078
36.7588
201.425
203.288
200.838
202.388
398.448
398.628
79.3274
149.909
26.0481
35.5447
76.4466