/*--------------------------------*- C++ -*----------------------------------*\
| =========                 |                                                 |
| \\      /  F ield         | OpenFOAM: The Open Source CFD Toolbox           |
|  \\    /   O peration     | Version:  2206                                  |
|   \\  /    A nd           | Website:  www.openfoam.com                      |
|    \\/     M anipulation  |                                                 |
\*---------------------------------------------------------------------------*/
FoamFile
{
    version     2.0;
    format      ascii;
    arch        "LSB;label=32;scalar=64";
    class       volVectorField;
    location    "120";
    object      U;
}
// * * * * * * * * * * * * * * * * * * * * * * * * * * * * * * * * * * * * * //

dimensions      [0 1 -1 0 0 0 0];

internalField   nonuniform List<vector> 
66701
(
(5.07557e-06 -2.85544e-06 0.0595345)
(3.86332e-06 -7.41062e-06 0.0577655)
(1.71549e-05 -5.59058e-06 0.0696052)
(1.91439e-05 -6.21214e-06 0.0809553)
(1.28728e-06 -8.23194e-06 0.0639358)
(2.39393e-05 -2.56925e-06 0.095273)
(2.52116e-05 -6.2252e-06 0.0918035)
(-6.43971e-07 -5.03521e-06 0.0662094)
(3.87834e-06 7.06201e-06 0.0578055)
(1.73553e-05 5.97634e-06 0.0696655)
(2.0223e-05 6.00803e-06 0.0809978)
(6.87378e-07 5.58096e-06 0.0639659)
(2.37187e-05 2.17924e-06 0.0952738)
(-3.51267e-07 4.97529e-07 0.0662189)
(2.367e-05 5.49954e-06 0.0918186)
(4.80339e-06 3.99002e-06 0.0595852)
(2.20889e-06 -3.74054e-06 0.0419419)
(1.65725e-06 -3.18798e-06 0.0285062)
(1.15922e-06 -2.29022e-06 0.0178442)
(6.87203e-07 -1.36494e-06 0.00945713)
(1.84044e-07 -3.7164e-07 0.00289095)
(2.89761e-06 -7.76578e-06 0.0419458)
(2.08825e-06 -6.41716e-06 0.0285102)
(1.33209e-06 -4.60467e-06 0.0178473)
(7.17277e-07 -2.67821e-06 0.00945909)
(2.38179e-07 -9.36072e-07 0.00289161)
(4.30527e-06 -5.56452e-06 0.0406089)
(2.5784e-06 -4.36405e-06 0.0274015)
(1.53854e-06 -3.02525e-06 0.0170317)
(8.54842e-07 -1.70904e-06 0.00896587)
(2.06344e-07 -5.47847e-07 0.00272047)
(3.75588e-06 5.43533e-06 0.0406496)
(2.01922e-06 4.00672e-06 0.0274283)
(1.01652e-06 2.62615e-06 0.0170477)
(2.51167e-07 1.48587e-06 0.00897383)
(1.80953e-07 4.22937e-07 0.00272282)
(2.10794e-06 4.68499e-06 0.0419801)
(1.68383e-06 3.74013e-06 0.0285328)
(1.23815e-06 2.48286e-06 0.0178611)
(8.31571e-07 1.26919e-06 0.0094663)
(2.01785e-07 4.493e-07 0.00289385)
(2.50753e-06 6.8947e-06 0.0419794)
(1.66719e-06 5.3402e-06 0.0285336)
(1.10652e-06 3.71039e-06 0.0178621)
(7.51236e-07 2.15593e-06 0.00946675)
(1.53398e-07 6.78867e-07 0.00289384)
(6.50829e-07 -7.16129e-06 0.0408054)
(5.6214e-07 -5.65178e-06 0.0276206)
(4.65426e-07 -3.92254e-06 0.017219)
(3.63114e-07 -2.20974e-06 0.0090898)
(8.72595e-08 -7.65946e-07 0.0027665)
(-9.39599e-07 -4.79596e-06 0.0410685)
(-4.61591e-07 -4.08785e-06 0.0278411)
(-1.98887e-07 -3.04374e-06 0.017387)
(-1.11968e-07 -1.85644e-06 0.00919525)
(5.78581e-09 -5.81339e-07 0.00280458)
(-9.72261e-07 3.55435e-06 0.0408272)
(-7.14885e-07 2.27755e-06 0.0276355)
(-4.04194e-07 1.33825e-06 0.0172283)
(-1.70844e-07 6.63204e-07 0.00909467)
(-1.49159e-08 2.32072e-07 0.00276804)
(-1.40835e-06 -5.97448e-07 0.0410761)
(-8.39234e-07 -9.3166e-07 0.0278467)
(-3.85919e-07 -9.28342e-07 0.0173906)
(-7.96994e-08 -6.84704e-07 0.00919714)
(-4.89104e-08 -1.83792e-07 0.00280516)
(1.19541e-05 6.76147e-06 0.0594947)
(9.37027e-07 -3.06483e-06 0.0595359)
(0.000131022 0.000130316 0.129593)
(1.82735e-05 5.51972e-07 0.0828876)
(2.05237e-06 4.4271e-06 0.0827893)
(7.38585e-06 2.12376e-05 0.069566)
(-2.46879e-06 1.67573e-06 0.135348)
(2.08585e-05 2.11024e-05 0.0979941)
(2.06006e-05 -2.19593e-06 0.0952746)
(1.35921e-05 -6.12057e-06 0.0696065)
(3.21267e-05 -1.38183e-06 0.115117)
(-5.7374e-06 3.43022e-07 0.134999)
(1.98353e-05 8.79374e-06 0.09802)
(-4.59907e-06 7.10572e-07 0.139875)
(2.08951e-05 2.04156e-06 0.0952745)
(1.37817e-05 6.8282e-06 0.0696696)
(3.26785e-05 1.75168e-06 0.115103)
(-2.49413e-06 1.58036e-06 0.134964)
(-3.33515e-06 2.31042e-06 0.139867)
(2.05453e-05 -8.34371e-06 0.0980296)
(5.03935e-07 4.20268e-06 0.0595872)
(0.00013106 -0.000128249 0.129595)
(1.84497e-06 -2.05124e-06 0.0828407)
(1.74874e-06 -2.87632e-06 0.0593239)
(-3.53061e-06 3.54331e-07 0.0749575)
(1.00074e-05 -4.19529e-06 0.0582334)
(5.76644e-07 -7.70537e-07 0.0582195)
(7.81775e-06 1.27287e-06 0.0752941)
(-3.11619e-06 4.14921e-06 0.0580729)
(2.93281e-06 -1.91378e-06 0.0580326)
(-8.66005e-06 -2.99551e-05 0.0942989)
(1.13234e-05 8.73484e-07 0.0690166)
(1.8054e-05 3.67816e-05 0.107424)
(-1.46551e-05 -2.46069e-08 0.0827848)
(1.14039e-05 3.31208e-05 0.0947081)
(-4.72422e-06 -6.23816e-07 0.0688398)
(-1.54466e-05 -3.55899e-05 0.107096)
(-3.26944e-05 -1.39525e-06 0.0940279)
(4.7819e-06 -2.83617e-06 0.0688468)
(4.25273e-05 4.62386e-06 0.107209)
(2.7262e-06 -7.74855e-06 0.0823858)
(3.86459e-05 9.56359e-07 0.094507)
(2.82629e-07 -1.62185e-06 0.0685808)
(-3.61381e-05 -8.10488e-06 0.106647)
(4.4471e-06 -9.08344e-07 0.0636354)
(2.20843e-05 -5.56975e-06 0.0918057)
(-2.4516e-06 -3.538e-06 0.0662195)
(-1.6912e-05 1.03388e-06 0.0946382)
(-4.45398e-07 -7.51501e-06 0.0639405)
(-1.5878e-05 2.78385e-06 0.0912171)
(5.5604e-06 -1.72839e-06 0.0658858)
(7.89032e-07 -1.59845e-07 0.0575545)
(1.69452e-05 -5.11619e-06 0.080959)
(-1.04271e-05 -1.33944e-06 0.0693097)
(1.77748e-06 -6.64869e-06 0.0577693)
(-1.25315e-05 1.44276e-06 0.0805353)
(3.85873e-06 -7.05229e-07 0.0636712)
(-2.38557e-06 1.69865e-06 0.0662315)
(2.05437e-05 6.34324e-06 0.0918209)
(-1.6494e-05 -1.05814e-06 0.0946382)
(-9.23966e-07 6.54962e-06 0.0639785)
(5.90472e-06 -1.15501e-06 0.0658971)
(-1.72345e-05 -2.41983e-06 0.0912319)
(9.14629e-07 6.07329e-07 0.0575952)
(1.66075e-05 6.96102e-06 0.0810032)
(-9.71342e-06 1.4654e-06 0.0693732)
(1.56555e-06 7.65749e-06 0.0578157)
(-1.1764e-05 -2.66662e-07 0.0805769)
(8.91947e-07 3.48883e-06 0.0593738)
(-3.60067e-06 2.78798e-06 0.075014)
(2.9639e-06 4.07479e-06 0.0580789)
(-5.17688e-06 -2.44817e-06 0.0581344)
(-3.23459e-05 3.24786e-06 0.0940436)
(4.03617e-05 -3.91017e-06 0.107247)
(2.26913e-06 9.04713e-06 0.0824362)
(-3.82589e-05 8.54671e-06 0.106685)
(-2.83798e-07 4.72094e-06 0.0686234)
(-6.55844e-06 3.32987e-05 0.0943361)
(-1.28193e-05 -1.43644e-07 0.0828438)
(-6.56178e-06 1.63571e-06 0.0689102)
(-1.1279e-05 3.74146e-05 0.107058)
(-5.91209e-06 2.0867e-06 0.0595556)
(-3.70094e-06 4.03518e-06 0.14421)
(6.25263e-09 5.39942e-06 0.147862)
(-3.26856e-06 3.4823e-06 0.147536)
(2.21977e-07 5.02811e-06 0.150962)
(4.97902e-06 5.00943e-06 0.144212)
(2.62712e-06 5.42383e-06 0.147872)
(3.59578e-06 4.858e-06 0.147534)
(2.21943e-06 5.1992e-06 0.15097)
(-2.58021e-06 -2.73691e-06 0.14759)
(1.436e-06 -2.26781e-06 0.150964)
(4.74274e-06 -1.44416e-06 0.147594)
(2.62634e-06 -2.53036e-06 0.150959)
(-4.06607e-05 -3.51815e-05 0.109888)
(-0.000134466 -0.000132655 0.129438)
(0.000138245 3.87024e-05 0.121034)
(4.17661e-05 0.000133437 0.120815)
(4.29939e-05 3.6196e-05 0.110327)
(-0.000139543 -3.55851e-05 0.120699)
(-4.0301e-05 -0.000134818 0.120399)
(-3.27166e-06 -0.000161823 0.12248)
(7.58473e-06 3.32601e-05 0.107027)
(1.38067e-05 0.000154845 0.116145)
(-1.86593e-05 -2.21608e-05 0.0980986)
(-9.37545e-06 -0.000151425 0.11613)
(5.2368e-06 0.000157034 0.122212)
(-9.45667e-06 -3.70758e-05 0.107168)
(-0.000162936 1.82676e-06 0.125385)
(3.36346e-05 -2.76234e-06 0.112569)
(0.000162537 -6.07931e-07 0.127696)
(-2.79923e-05 2.12022e-06 0.114397)
(0.00016885 -3.58534e-06 0.125878)
(-2.85975e-05 1.77303e-06 0.111899)
(-0.000162706 2.71046e-06 0.127145)
(-0.000166124 -7.66556e-07 0.121827)
(2.93085e-05 -4.35535e-07 0.107091)
(0.000161885 3.2459e-06 0.116074)
(-1.43508e-05 -1.2515e-05 0.0974954)
(-0.000155122 -6.13398e-06 0.115553)
(0.000166485 -1.61313e-06 0.122261)
(-2.51883e-05 -1.81303e-06 0.106493)
(-0.000165494 7.71733e-07 0.12535)
(0.000161825 3.33727e-06 0.127684)
(3.24874e-05 4.21331e-06 0.112547)
(-2.773e-05 -3.09808e-08 0.114385)
(0.000164017 4.97243e-06 0.125844)
(-0.000160939 2.43898e-07 0.127133)
(-2.9019e-05 -3.66655e-08 0.111876)
(-0.000162011 1.62607e-06 0.121769)
(2.96914e-05 2.08407e-06 0.107074)
(0.000161361 -2.56073e-06 0.116042)
(-1.3212e-05 1.1194e-05 0.0975036)
(0.000166498 2.04885e-06 0.122209)
(-2.36262e-05 2.84024e-06 0.10648)
(-0.000152623 5.52036e-06 0.115521)
(-3.75189e-05 3.72839e-05 0.10988)
(-0.000132137 0.000133395 0.129412)
(4.30392e-05 -0.000134918 0.120876)
(-3.90328e-05 0.000134834 0.12046)
(-0.000131192 3.78229e-05 0.12058)
(8.81218e-06 2.54197e-06 0.0418828)
(6.26863e-06 -1.21776e-07 0.0284729)
(4.25652e-06 -1.09889e-06 0.0178253)
(2.45677e-06 -1.02541e-06 0.00944768)
(8.47706e-07 -4.06433e-07 0.00288816)
(4.77289e-07 -4.46743e-06 0.0419433)
(1.22541e-06 -3.87935e-06 0.0285077)
(1.19654e-06 -2.82103e-06 0.0178453)
(7.57003e-07 -1.68758e-06 0.00945787)
(2.79769e-07 -5.28976e-07 0.00289122)
(6.08109e-06 7.81332e-06 0.0405308)
(4.6778e-06 3.03045e-06 0.0273562)
(3.16013e-06 6.8888e-07 0.0170054)
(1.77663e-06 -1.10805e-07 0.00895219)
(5.98468e-07 -1.49434e-07 0.00271636)
(3.54249e-06 -5.59014e-06 0.0406096)
(2.44173e-06 -4.37025e-06 0.0274027)
(1.55926e-06 -3.04936e-06 0.0170327)
(8.36903e-07 -1.74231e-06 0.00896642)
(2.28245e-07 -5.6865e-07 0.00272071)
(3.28085e-06 5.82327e-06 0.0406501)
(2.13682e-06 4.29889e-06 0.0274289)
(1.24921e-06 2.86053e-06 0.0170481)
(4.56354e-07 1.62791e-06 0.00897402)
(2.08666e-07 4.72146e-07 0.00272284)
(9.05181e-08 5.2027e-06 0.0419809)
(9.96968e-07 4.19104e-06 0.0285331)
(1.12552e-06 2.83559e-06 0.0178611)
(8.71166e-07 1.51251e-06 0.00946625)
(2.53643e-07 5.33276e-07 0.00289376)
(3.21353e-06 -2.73934e-06 0.0418384)
(2.37186e-06 -2.62889e-06 0.0284497)
(1.50377e-06 -2.10687e-06 0.0178131)
(8.5363e-07 -1.33003e-06 0.00944181)
(2.07586e-07 -3.99543e-07 0.00288648)
(2.63779e-06 -1.52373e-06 0.0406765)
(1.36094e-06 -1.52098e-06 0.0275494)
(5.45882e-07 -1.13555e-06 0.0171796)
(1.04513e-07 -6.44836e-07 0.00907021)
(5.05853e-08 -2.12679e-07 0.00276081)
(-1.61842e-06 -3.42875e-06 0.0410755)
(-7.73502e-07 -2.98302e-06 0.0278464)
(-3.43521e-07 -2.2656e-06 0.0173904)
(-1.62607e-07 -1.39491e-06 0.00919697)
(-6.29779e-09 -4.77963e-07 0.00280513)
(-2.10621e-07 -6.70781e-06 0.0408094)
(3.07897e-07 -5.38029e-06 0.0276239)
(3.85828e-07 -3.81101e-06 0.0172213)
(2.92966e-07 -2.20642e-06 0.00909095)
(9.37452e-08 -7.53983e-07 0.00276694)
(2.66596e-06 -2.26489e-06 0.0409338)
(1.40419e-06 -2.20265e-06 0.0277665)
(6.17227e-07 -1.75376e-06 0.0173456)
(2.26003e-07 -1.08672e-06 0.00917473)
(4.14236e-08 -3.8975e-07 0.00279853)
(8.92043e-07 -2.66879e-06 0.0405063)
(1.14263e-06 -2.92219e-06 0.0273472)
(8.40966e-07 -2.38358e-06 0.0170021)
(5.14195e-07 -1.48681e-06 0.00895129)
(1.74606e-07 -4.97999e-07 0.00271631)
(1.37113e-06 -1.24664e-06 0.0407014)
(3.99055e-07 -1.2973e-06 0.027566)
(3.37513e-08 -1.17855e-06 0.0171897)
(4.03351e-08 -8.52795e-07 0.0090755)
(-6.75332e-08 -2.87137e-07 0.00276239)
(-1.64745e-06 7.07971e-07 0.0410839)
(-7.9776e-07 2.0858e-07 0.027852)
(-3.16427e-07 -5.44495e-08 0.0173938)
(-3.71459e-08 -1.23799e-07 0.00919873)
(-4.44772e-08 -4.77245e-08 0.00280562)
(-1.0822e-06 4.80627e-06 0.0408352)
(-3.83596e-07 3.35858e-06 0.0276402)
(-7.67045e-08 2.12871e-06 0.0172309)
(1.01796e-08 1.1422e-06 0.00909585)
(3.58393e-08 3.62641e-07 0.00276839)
(2.35509e-06 -1.69458e-06 0.0409418)
(1.0782e-06 -1.72751e-06 0.0277715)
(3.89002e-07 -1.49635e-06 0.0173484)
(8.64193e-08 -1.0333e-06 0.00917609)
(-6.21329e-09 -3.14423e-07 0.00279898)
(5.54053e-07 2.5256e-06 0.0405489)
(8.76383e-07 2.53247e-06 0.0273755)
(7.1411e-07 1.96783e-06 0.0170194)
(5.47573e-07 1.18914e-06 0.00896006)
(1.28832e-07 3.65502e-07 0.00271877)
(2.62543e-06 3.12388e-06 0.0418746)
(2.00131e-06 2.6807e-06 0.028474)
(1.20661e-06 1.94454e-06 0.0178281)
(5.34589e-07 1.13231e-06 0.00944973)
(2.13481e-07 3.74783e-07 0.00288903)
(-3.39795e-06 1.39163e-07 0.0407208)
(-2.19017e-06 -3.03918e-07 0.0274825)
(-1.3608e-06 -3.48264e-07 0.0170854)
(-7.74576e-07 -1.96454e-07 0.0089963)
(-2.23344e-07 -1.16322e-07 0.00273071)
(-3.84363e-06 -5.35025e-07 0.0418672)
(-2.7091e-06 -7.33008e-07 0.0284664)
(-1.88582e-06 -6.32817e-07 0.0178224)
(-1.18041e-06 -4.01176e-07 0.00944657)
(-3.20781e-07 -1.60167e-07 0.00288797)
(6.91195e-06 -3.61451e-06 0.0417121)
(5.09328e-06 -3.26147e-06 0.0283159)
(3.45976e-06 -2.57413e-06 0.0177039)
(1.98365e-06 -1.58335e-06 0.00937223)
(6.74092e-07 -5.69259e-07 0.00286139)
(6.4118e-06 -4.17932e-07 0.0407503)
(4.66291e-06 -1.37135e-06 0.0274939)
(3.17983e-06 -1.51629e-06 0.0170904)
(1.85186e-06 -1.06433e-06 0.00899856)
(6.13447e-07 -3.98478e-07 0.00273119)
(-9.54986e-07 -2.69081e-07 0.0406902)
(-2.49343e-07 -5.01382e-07 0.0274641)
(-1.41546e-08 -4.26024e-07 0.0170747)
(4.4027e-08 -1.90608e-07 0.00899091)
(4.18089e-08 -9.3111e-08 0.00272897)
(9.72208e-07 -2.37698e-06 0.041731)
(1.4665e-06 -2.15264e-06 0.0283264)
(1.2845e-06 -1.65546e-06 0.0177101)
(8.01611e-07 -1.04193e-06 0.00937506)
(2.8396e-07 -3.28474e-07 0.00286206)
(3.56061e-06 -3.97577e-06 0.0407663)
(3.0223e-06 -3.57307e-06 0.0275043)
(2.19437e-06 -2.76656e-06 0.017097)
(1.31385e-06 -1.70594e-06 0.00900176)
(4.18678e-07 -5.84256e-07 0.00273201)
(1.57923e-06 -1.57137e-06 0.0406718)
(1.41916e-06 -1.48686e-06 0.0274531)
(9.48447e-07 -1.1466e-06 0.0170686)
(4.54768e-07 -7.38404e-07 0.00898753)
(1.37758e-07 -1.85165e-07 0.00272784)
(-1.10673e-06 2.9315e-06 0.0416319)
(-7.97664e-07 1.52241e-06 0.0282722)
(-6.5344e-07 7.97704e-07 0.0176798)
(-4.71367e-07 4.13721e-07 0.00936019)
(-1.53959e-07 1.11631e-07 0.00285784)
(2.45993e-06 -1.21769e-06 0.0416381)
(1.73423e-06 -1.17182e-06 0.0282757)
(1.06808e-06 -9.20706e-07 0.017682)
(5.29809e-07 -5.42187e-07 0.00936105)
(1.90604e-07 -2.21061e-07 0.0028579)
(5.18453e-07 -8.84999e-07 0.0418381)
(4.04886e-07 -1.18886e-06 0.0284517)
(2.46195e-07 -9.4156e-07 0.017815)
(1.49531e-07 -5.18497e-07 0.00944306)
(3.61546e-08 -1.75217e-07 0.00288694)
(1.83789e-06 -7.37679e-06 0.041948)
(1.75815e-06 -6.22454e-06 0.028512)
(1.29707e-06 -4.53829e-06 0.0178485)
(7.34875e-07 -2.68259e-06 0.00945971)
(2.58196e-07 -9.31876e-07 0.00289187)
(2.17425e-07 8.05594e-07 0.0418706)
(1.80949e-08 7.47703e-07 0.0284736)
(-3.80559e-08 4.85542e-07 0.0178284)
(-3.58982e-08 2.44619e-07 0.00944983)
(-8.05082e-10 2.20377e-08 0.00288888)
(1.43646e-06 7.81184e-06 0.0419848)
(1.3995e-06 6.1953e-06 0.0285365)
(1.0838e-06 4.34908e-06 0.0178633)
(6.91594e-07 2.53992e-06 0.00946718)
(2.13623e-07 8.06387e-07 0.00289395)
(1.54784e-06 3.30466e-06 0.0407049)
(1.51174e-06 2.49648e-06 0.0274754)
(1.07566e-06 1.59471e-06 0.0170821)
(6.7369e-07 7.45741e-07 0.00899471)
(1.60572e-07 2.91116e-07 0.00273015)
(2.49361e-06 2.45684e-06 0.0416722)
(1.66813e-06 1.7453e-06 0.0282978)
(9.6508e-07 1.17686e-06 0.0176948)
(4.23619e-07 7.1211e-07 0.0093676)
(1.42445e-07 1.68401e-07 0.0028601)
(-2.75172e-06 -1.8475e-06 0.0416741)
(-1.70739e-06 -1.23686e-06 0.0282991)
(-1.09744e-06 -8.41022e-07 0.0176956)
(-6.46107e-07 -5.34021e-07 0.00936821)
(-2.04166e-07 -1.52795e-07 0.00286031)
(8.4664e-05 -0.000135059 0.135986)
(-0.000266489 -0.000268821 0.130321)
(7.94687e-05 8.3863e-05 0.142997)
(-0.000111775 6.9733e-05 0.135494)
(6.70094e-05 -0.000120351 0.13582)
(-0.00024276 -0.000247357 0.13029)
(7.25257e-05 7.32108e-05 0.143343)
(-9.40156e-05 5.71233e-05 0.135509)
(5.51429e-05 -9.87532e-05 0.13587)
(-0.000222477 -0.00023006 0.130254)
(6.51949e-05 6.59381e-05 0.143635)
(-7.88705e-05 5.13251e-05 0.135526)
(4.95148e-05 -8.77906e-05 0.135875)
(-0.000211384 -0.000215872 0.130195)
(5.80963e-05 5.84122e-05 0.143884)
(-6.83072e-05 4.0795e-05 0.135527)
(4.20113e-05 -7.80969e-05 0.135843)
(-0.000200909 -0.000198438 0.130098)
(5.37348e-05 5.6825e-05 0.144091)
(-5.52706e-05 3.33308e-05 0.135488)
(3.85453e-05 -6.46913e-05 0.135805)
(-0.000183893 -0.000186978 0.130019)
(4.6539e-05 4.47929e-05 0.144254)
(-4.63402e-05 3.19217e-05 0.135423)
(3.27432e-05 -4.74793e-05 0.135762)
(-0.000173821 -0.000171457 0.12993)
(3.6075e-05 3.55974e-05 0.144365)
(-3.51066e-05 2.09783e-05 0.135345)
(2.39078e-05 -3.27308e-05 0.135692)
(-0.000159163 -0.000156343 0.129844)
(2.47431e-05 2.62559e-05 0.144405)
(-1.75201e-05 1.50259e-05 0.135269)
(1.51408e-05 -1.96055e-05 0.135627)
(-0.000146617 -0.000144667 0.129779)
(1.6947e-05 1.73589e-05 0.144412)
(-5.57773e-06 9.14683e-06 0.135226)
(7.55052e-06 -8.41763e-06 0.135577)
(-0.000137292 -0.000137893 0.129716)
(1.24367e-05 1.07682e-05 0.144397)
(-2.57881e-06 1.69411e-06 0.135188)
(4.98766e-06 -4.34586e-06 0.135517)
(-0.00013041 -0.000131035 0.129661)
(5.33278e-06 7.44405e-06 0.144366)
(1.44916e-06 -7.52771e-06 0.135109)
(1.0688e-06 -2.08059e-09 0.135454)
(-0.000130609 -0.000124182 0.129614)
(8.51584e-07 3.89293e-06 0.144332)
(3.42547e-06 -4.83872e-06 0.135026)
(5.24345e-07 1.03541e-06 0.1354)
(-0.000128238 -0.0001224 0.129582)
(-1.20296e-07 7.66793e-07 0.144302)
(7.29593e-06 -3.66731e-06 0.134982)
(-2.97404e-06 3.89937e-06 0.135363)
(-0.000127853 -0.000125 0.129573)
(-1.51343e-06 -4.83419e-07 0.144269)
(6.40458e-06 -1.84519e-06 0.13496)
(-1.32215e-06 4.34995e-06 0.135336)
(-0.000126873 -0.00012581 0.129577)
(-1.5498e-06 2.36829e-08 0.144238)
(9.62269e-06 -4.06845e-06 0.134951)
(-2.16682e-06 6.30709e-06 0.135318)
(-0.00012621 -0.000125671 0.12957)
(-1.29588e-07 4.68761e-07 0.144221)
(7.80338e-06 -1.00499e-06 0.13532)
(-1.66811e-06 5.13262e-06 0.135592)
(-0.00012754 -0.000127967 0.129867)
(0.000258502 -0.000261553 0.130358)
(-9.33998e-05 8.35161e-05 0.130146)
(-8.31771e-05 -0.000137691 0.135746)
(7.02665e-05 -0.000127225 0.135808)
(-7.15176e-05 -0.000123683 0.135807)
(9.40806e-05 8.93453e-05 0.130118)
(0.000245957 0.000252735 0.130317)
(-0.000103486 -0.000100798 0.130085)
(6.92504e-05 0.000124087 0.13582)
(-6.7759e-05 0.000121098 0.13584)
(5.78064e-05 0.000105321 0.135868)
(-5.95674e-05 0.000106668 0.135874)
(-0.000241374 0.000244747 0.130278)
(0.000102865 -9.78877e-05 0.130059)
(0.000114696 7.26568e-05 0.135518)
(0.000116063 -7.38331e-05 0.135543)
(9.96733e-05 5.97604e-05 0.13555)
(0.000101357 -6.07143e-05 0.135573)
(-0.000113523 -6.91435e-05 0.135528)
(-9.77473e-05 5.84434e-05 0.135509)
(-9.81344e-05 -6.05462e-05 0.135554)
(0.000243642 -0.000250841 0.130313)
(-0.000103691 9.96101e-05 0.130073)
(-6.78287e-05 -0.000119857 0.135825)
(5.70002e-05 -0.000104478 0.135861)
(-5.59583e-05 -0.000106564 0.135868)
(0.0001058 9.90704e-05 0.130079)
(0.0002248 0.000226519 0.130255)
(-0.000108493 -0.000105853 0.130026)
(5.48438e-05 0.000101667 0.135878)
(-5.67083e-05 0.000102134 0.135881)
(5.13896e-05 8.9624e-05 0.135894)
(-5.10365e-05 9.43115e-05 0.1359)
(-0.00022253 0.000228418 0.130229)
(0.000109924 -0.000104174 0.130009)
(9.57305e-05 5.60159e-05 0.135555)
(9.7971e-05 -5.93246e-05 0.135574)
(8.63971e-05 5.23258e-05 0.135569)
(8.72722e-05 -5.53376e-05 0.135564)
(-9.5434e-05 -5.95994e-05 0.135563)
(-8.25696e-05 5.28498e-05 0.135522)
(-8.84997e-05 -5.52917e-05 0.135587)
(0.000223162 -0.000226376 0.130242)
(-0.000107544 0.000101398 0.129991)
(-5.33281e-05 -0.000101081 0.135879)
(5.18665e-05 -9.00821e-05 0.135878)
(-4.71855e-05 -8.74729e-05 0.135908)
(0.000109478 0.000105086 0.130026)
(0.000212943 0.000214263 0.130194)
(-0.000114813 -0.000111974 0.129942)
(5.19849e-05 8.70232e-05 0.135896)
(-4.79294e-05 8.95551e-05 0.135903)
(4.6608e-05 7.70867e-05 0.135905)
(-4.60747e-05 7.91891e-05 0.135886)
(-0.000208938 0.000214709 0.130176)
(0.000111649 -0.000111618 0.129927)
(8.43749e-05 5.22804e-05 0.13557)
(8.45849e-05 -5.42687e-05 0.135558)
(7.46269e-05 4.61322e-05 0.135561)
(7.1845e-05 -5.01357e-05 0.135556)
(-8.50052e-05 -5.3411e-05 0.135591)
(-7.11059e-05 4.2703e-05 0.135531)
(-7.17372e-05 -4.53366e-05 0.135574)
(0.000209488 -0.000216265 0.130159)
(-0.000114815 0.000108064 0.129911)
(-4.43806e-05 -8.33205e-05 0.135914)
(4.35375e-05 -8.06596e-05 0.135854)
(-4.33587e-05 -7.56594e-05 0.135906)
(0.000110478 0.000112763 0.129932)
(0.000198231 0.0002004 0.130109)
(-0.000118068 -0.000114297 0.12985)
(4.25811e-05 7.45843e-05 0.135905)
(-4.31586e-05 7.48856e-05 0.135878)
(3.92027e-05 6.74976e-05 0.135879)
(-4.24177e-05 6.89324e-05 0.135851)
(-0.000198023 0.000196195 0.130091)
(0.000113766 -0.000116656 0.129834)
(7.17159e-05 4.24715e-05 0.135555)
(6.63314e-05 -4.47569e-05 0.135551)
(6.10163e-05 3.90186e-05 0.135522)
(6.00499e-05 -3.63623e-05 0.135523)
(-6.89772e-05 -4.3156e-05 0.13556)
(-5.92274e-05 3.44088e-05 0.135503)
(-6.21407e-05 -3.82095e-05 0.135515)
(0.00019554 -0.000200274 0.130077)
(-0.000114094 0.000118902 0.129829)
(-4.32014e-05 -7.33152e-05 0.135901)
(3.80408e-05 -6.77551e-05 0.135812)
(-4.01406e-05 -6.84768e-05 0.135879)
(0.000118812 0.000116349 0.12985)
(0.000185459 0.000187844 0.130013)
(-0.000120327 -0.000121913 0.129747)
(3.74199e-05 6.42135e-05 0.13586)
(-4.12201e-05 6.56227e-05 0.135835)
(3.44221e-05 5.30642e-05 0.13581)
(-3.70816e-05 5.45252e-05 0.135793)
(-0.000186259 0.000183878 0.129997)
(0.000117572 -0.000118256 0.129737)
(5.78777e-05 3.74212e-05 0.135508)
(5.83051e-05 -3.57685e-05 0.135508)
(4.75058e-05 3.13579e-05 0.135463)
(5.30131e-05 -3.45874e-05 0.135448)
(-5.92143e-05 -3.71142e-05 0.135502)
(-4.82863e-05 3.32162e-05 0.135443)
(-4.98716e-05 -3.34155e-05 0.135462)
(0.000187505 -0.000181288 0.129996)
(-0.000119314 0.000120957 0.129732)
(-3.78448e-05 -6.52479e-05 0.135867)
(3.48281e-05 -5.16872e-05 0.135776)
(-3.43234e-05 -5.49695e-05 0.135817)
(0.000119687 0.000121598 0.129766)
(0.000172789 0.00017003 0.129909)
(-0.000128398 -0.000128636 0.129659)
(3.33827e-05 5.09694e-05 0.135793)
(-3.38799e-05 5.13439e-05 0.135776)
(2.58889e-05 3.78362e-05 0.13575)
(-2.65249e-05 3.88511e-05 0.135725)
(-0.000173345 0.000172368 0.129898)
(0.000125196 -0.000126954 0.129654)
(4.43263e-05 2.81398e-05 0.135445)
(4.96952e-05 -3.24842e-05 0.135424)
(3.44335e-05 2.14301e-05 0.13539)
(3.90292e-05 -2.4189e-05 0.135355)
(-4.5382e-05 -3.03144e-05 0.135445)
(-3.95036e-05 2.36442e-05 0.135368)
(-3.64567e-05 -2.31447e-05 0.135393)
(0.000171297 -0.000169508 0.129894)
(-0.000125156 0.000127449 0.129644)
(-3.33667e-05 -5.13791e-05 0.135799)
(2.53549e-05 -3.58201e-05 0.135711)
(-2.72056e-05 -4.02737e-05 0.135744)
(0.000126932 0.000129828 0.12968)
(0.000157343 0.000156001 0.12982)
(-0.000134657 -0.000134421 0.129574)
(2.39846e-05 3.5427e-05 0.135725)
(-2.35669e-05 3.4597e-05 0.135706)
(1.75984e-05 2.45775e-05 0.135657)
(-1.90803e-05 2.70515e-05 0.135653)
(-0.0001582 0.000155863 0.129816)
(0.00013186 -0.000130937 0.129581)
(3.12627e-05 1.94258e-05 0.135367)
(3.36936e-05 -2.02263e-05 0.135332)
(2.07495e-05 1.57811e-05 0.135304)
(2.28263e-05 -1.29631e-05 0.135278)
(-3.39609e-05 -2.08546e-05 0.135374)
(-2.15894e-05 1.68412e-05 0.13529)
(-2.2822e-05 -1.377e-05 0.135324)
(0.00015838 -0.000154811 0.129808)
(-0.000131427 0.000134053 0.129574)
(-2.4034e-05 -3.59397e-05 0.135728)
(1.7875e-05 -2.35235e-05 0.135644)
(-1.66773e-05 -2.40316e-05 0.135681)
(0.000132653 0.000135415 0.129615)
(0.000144202 0.000143169 0.129735)
(-0.000136367 -0.000137376 0.129512)
(1.54936e-05 2.30477e-05 0.135633)
(-1.51495e-05 2.37109e-05 0.13563)
(9.71229e-06 1.18658e-05 0.135581)
(-1.06422e-05 1.77139e-05 0.135575)
(-0.000145065 0.000146317 0.129741)
(0.000137276 -0.000135511 0.12952)
(1.87739e-05 1.43597e-05 0.135281)
(1.93545e-05 -1.09484e-05 0.135259)
(1.12365e-05 8.63632e-06 0.135222)
(1.18883e-05 -5.98603e-06 0.135215)
(-1.98677e-05 -1.24541e-05 0.135306)
(-6.46721e-06 9.58125e-06 0.135238)
(-9.89737e-06 -1.02001e-05 0.135267)
(0.000145709 -0.000142316 0.129737)
(-0.000136013 0.000139643 0.129517)
(-1.44724e-05 -1.96412e-05 0.135662)
(8.86938e-06 -1.03249e-05 0.135593)
(-1.018e-05 -1.24406e-05 0.135613)
(0.000137465 0.000137386 0.129554)
(0.000137432 0.000134552 0.129674)
(-0.00013812 -0.000140665 0.129464)
(8.35914e-06 1.0332e-05 0.135559)
(-8.28154e-06 1.45831e-05 0.135553)
(6.34322e-06 4.34829e-06 0.135518)
(-2.7452e-06 4.40547e-06 0.135509)
(-0.00013575 0.000136997 0.12968)
(0.000140012 -0.000141493 0.129471)
(1.06821e-05 6.37719e-06 0.1352)
(1.01334e-05 -4.62695e-06 0.135192)
(3.30047e-06 7.42678e-07 0.13515)
(4.6103e-06 -2.75148e-06 0.135146)
(-6.97493e-06 -9.20082e-06 0.13525)
(-3.15972e-06 3.76525e-06 0.135205)
(-2.94287e-06 -7.43188e-06 0.135218)
(0.000136747 -0.000133265 0.129679)
(-0.000139031 0.000139402 0.129466)
(-8.34112e-06 -1.08581e-05 0.135591)
(5.7591e-06 -4.6634e-06 0.135539)
(-4.69026e-06 -6.61773e-06 0.135543)
(0.000140377 0.000139754 0.129499)
(0.000131955 0.000128659 0.129626)
(-0.000139418 -0.000140282 0.129436)
(5.32299e-06 3.64343e-06 0.135494)
(-1.57981e-06 2.31075e-06 0.135488)
(2.16669e-06 7.01862e-08 0.135456)
(-2.30927e-06 -2.9929e-06 0.135454)
(-0.000130658 0.000127575 0.12963)
(0.000138886 -0.000146771 0.129432)
(2.5626e-06 -6.70963e-07 0.135128)
(3.22712e-06 -2.54307e-06 0.135124)
(-1.8738e-06 -1.28418e-06 0.135093)
(-4.1782e-08 -8.59377e-07 0.135085)
(-3.10626e-06 -7.05557e-06 0.135201)
(-1.94202e-07 -5.78098e-06 0.13514)
(-2.20236e-07 1.98744e-06 0.135171)
(0.000130796 -0.000129386 0.129627)
(-0.0001401 0.000140455 0.129424)
(-3.14857e-06 -4.8631e-06 0.135525)
(2.47128e-06 -1.44866e-06 0.135473)
(-2.61793e-06 8.70719e-07 0.135482)
(0.00013896 0.000144342 0.129453)
(0.00012808 0.000125759 0.129601)
(-0.000139411 -0.000139185 0.129425)
(1.65201e-06 1.15984e-06 0.135432)
(-3.23589e-06 -2.2905e-06 0.135434)
(7.55929e-07 -1.21045e-06 0.135403)
(-2.29464e-06 -3.43013e-06 0.135415)
(-0.000128909 0.000120516 0.129593)
(0.000138078 -0.000141304 0.129412)
(-2.80046e-06 -3.00092e-06 0.135072)
(-8.56075e-07 2.10087e-07 0.135063)
(-7.56926e-06 -2.15754e-06 0.135048)
(-4.78296e-06 1.435e-06 0.135034)
(-3.5189e-07 4.20213e-06 0.135148)
(3.1942e-06 -6.84098e-06 0.135052)
(3.76076e-06 6.81088e-06 0.1351)
(0.000129252 -0.000127824 0.129586)
(-0.000140471 0.000140873 0.129396)
(-2.49397e-06 2.08758e-06 0.135467)
(9.13786e-07 1.82246e-06 0.135417)
(-2.57385e-06 4.18491e-06 0.135437)
(0.000139051 0.000145744 0.129421)
(0.000127016 0.000126214 0.129587)
(-0.000140337 -0.00013741 0.129417)
(1.08984e-06 2.38354e-07 0.135381)
(-3.85201e-06 -1.3204e-06 0.135393)
(-1.99108e-06 -3.80907e-06 0.135373)
(-1.12229e-06 -1.24625e-06 0.135384)
(-0.000126248 0.000123548 0.129571)
(0.000137886 -0.000137686 0.129404)
(-5.65991e-06 -1.61157e-06 0.135028)
(-4.85473e-06 1.26576e-06 0.135012)
(-8.25252e-06 -2.32153e-06 0.135019)
(-6.87276e-06 2.52436e-06 0.135008)
(4.295e-06 6.08472e-06 0.135071)
(6.2328e-06 -3.97337e-06 0.135005)
(6.7e-06 6.50864e-06 0.135044)
(0.000126006 -0.000125264 0.129559)
(-0.000138172 0.000136784 0.129386)
(-2.00108e-06 4.24962e-06 0.135422)
(-2.34572e-06 4.77903e-06 0.135381)
(-1.56109e-06 3.45747e-06 0.135404)
(0.000138207 0.00014163 0.12941)
(0.000124082 0.000125831 0.129575)
(-0.000136476 -0.000133851 0.129419)
(-4.2787e-07 -2.24631e-06 0.135351)
(-2.12264e-06 -8.31442e-07 0.135361)
(-2.85569e-06 -5.83317e-06 0.135368)
(1.04997e-06 -2.56576e-06 0.135367)
(-0.000126324 0.000126152 0.129559)
(0.000138416 -0.000137475 0.129408)
(-6.2537e-06 -1.05083e-06 0.135)
(-6.47443e-06 2.22113e-06 0.134986)
(-6.29502e-06 -1.25502e-06 0.135011)
(-5.89326e-06 3.19379e-06 0.134997)
(5.71531e-06 4.93818e-06 0.135018)
(8.2745e-06 -4.10687e-06 0.134987)
(3.28633e-06 3.75552e-06 0.135023)
(0.000125034 -0.00012562 0.129548)
(-0.00013773 0.000137697 0.129388)
(-1.06696e-06 2.70456e-06 0.135388)
(-1.48248e-06 5.46548e-06 0.135357)
(2.95654e-06 7.81519e-06 0.135392)
(0.00013713 0.00013858 0.129419)
(0.00012503 0.000125791 0.129566)
(-0.000135239 -0.000132049 0.129451)
(-1.96161e-07 -2.97004e-06 0.135342)
(3.21801e-07 -2.36784e-06 0.135337)
(-1.49997e-06 -3.10649e-06 0.135373)
(5.86921e-07 -1.39299e-06 0.135362)
(-0.000124974 0.000125382 0.129553)
(0.000134361 -0.000132723 0.129435)
(-5.02871e-06 -2.75845e-07 0.134987)
(-4.96323e-06 2.11543e-06 0.134967)
(-5.84852e-06 -1.3665e-06 0.135015)
(-3.04094e-06 4.78814e-07 0.134994)
(2.79805e-06 1.80981e-06 0.13499)
(6.57185e-06 -2.51424e-06 0.134986)
(1.81593e-06 -3.03001e-07 0.13502)
(0.000124972 -0.000123976 0.129545)
(-0.000135548 0.000135574 0.129401)
(1.95206e-06 5.46274e-06 0.135375)
(-1.51972e-06 5.63319e-06 0.13535)
(2.80273e-06 7.02969e-06 0.135396)
(0.000135466 0.00013595 0.129432)
(0.00012275 0.000123729 0.129553)
(-0.000128441 -0.000129765 0.129458)
(-2.37791e-06 -2.94439e-06 0.135337)
(1.71884e-06 -2.39367e-06 0.135323)
(8.24525e-06 2.35259e-06 0.135005)
(-4.86943e-06 1.19495e-06 0.134996)
(-0.000123737 0.000124582 0.129537)
(0.000130558 -0.000129897 0.12945)
(-6.72872e-06 -1.9895e-06 0.13498)
(-5.3514e-06 2.05717e-06 0.134947)
(6.66706e-07 4.31301e-06 0.13503)
(9.45423e-07 -1.87375e-06 0.134994)
(3.75768e-06 1.33806e-06 0.134972)
(-1.93133e-06 4.30192e-06 0.135005)
(-1.75558e-06 -3.86496e-06 0.135028)
(0.000124548 -0.000124466 0.129541)
(-0.000132141 0.000134593 0.12943)
(3.29573e-06 7.04684e-06 0.135365)
(2.50811e-06 -3.22172e-06 0.135346)
(-1.55604e-06 -3.06244e-06 0.135397)
(0.000134041 0.000135026 0.129479)
(2.70362e-06 8.83893e-08 0.134974)
(-0.000127195 0.000128997 0.129535)
(-8.1665e-06 -4.27683e-06 0.135342)
(-9.661e-06 7.87487e-06 0.13536)
(8.78877e-06 5.598e-06 0.135388)
(0.000128917 -0.000128265 0.129837)
(4.51403e-06 6.92733e-06 0.135642)
(3.01173e-05 2.99059e-06 0.0599803)
(8.09907e-06 1.38138e-05 0.0599245)
(-1.11038e-06 -3.66052e-05 0.117119)
(3.23212e-05 -0.000152381 0.139975)
(1.64332e-05 -8.89749e-05 0.0996011)
(8.05543e-05 -0.000134739 0.135995)
(-3.76348e-05 -3.40988e-05 0.0994595)
(-1.64123e-06 -0.000131914 0.117399)
(2.79489e-05 -0.000151049 0.139977)
(-3.99342e-05 -1.4467e-05 0.0834501)
(-1.52757e-05 -4.60722e-05 0.0837193)
(9.10442e-05 8.35664e-05 0.130135)
(3.13932e-05 -3.58214e-05 0.0834189)
(-2.54196e-05 2.96973e-06 0.0829942)
(9.62345e-07 -3.99837e-06 0.09661)
(-1.18493e-05 5.0184e-05 0.0702314)
(-1.70151e-05 -3.06329e-06 0.0700829)
(2.48895e-06 8.02163e-05 0.0969131)
(1.47411e-06 2.54946e-05 0.0599002)
(1.72757e-05 1.06383e-05 0.0597675)
(2.02021e-06 -1.59625e-06 0.0954441)
(4.07603e-05 -1.14008e-05 0.0699544)
(-3.04718e-06 -5.13258e-06 0.0696177)
(6.59174e-05 -3.89547e-06 0.0962097)
(-8.29589e-05 8.49872e-05 0.143005)
(7.73548e-05 -8.33879e-05 0.143007)
(-8.32883e-05 -8.30111e-05 0.14302)
(7.49959e-05 7.58229e-05 0.14326)
(-7.69321e-05 7.51648e-05 0.143266)