/*--------------------------------*- C++ -*----------------------------------*\
| =========                 |                                                 |
| \\      /  F ield         | OpenFOAM: The Open Source CFD Toolbox           |
|  \\    /   O peration     | Version:  2206                                  |
|   \\  /    A nd           | Website:  www.openfoam.com                      |
|    \\/     M anipulation  |                                                 |
\*---------------------------------------------------------------------------*/
FoamFile
{
    version     2.0;
    format      ascii;
    arch        "LSB;label=32;scalar=64";
    class       volScalarField;
    location    "0.5";
    object      k;
}
// * * * * * * * * * * * * * * * * * * * * * * * * * * * * * * * * * * * * * //

dimensions      [0 2 -2 0 0 0 0];

internalField   nonuniform List<scalar> 
66616
(
0.0156549
4.99768e-05
0.00373634
3.95518e-05
0.00858231
2.6108e-05
0.00620575
4.41889e-05
0.000251126
3.54981e-05
0.00658118
4.7944e-05
0.0014924
4.03825e-05
0.00532181
0.000139955
9.33023e-05
3.96175e-05
0.00272322
0.000353838
3.20769e-05
4.10182e-05
0.000106459
8.41734e-05
3.10227e-05
4.2033e-05
4.2538e-05
4.68088e-05
3.06708e-05
4.26017e-05
4.21691e-05
4.71299e-05
3.04864e-05
4.33086e-05
4.28534e-05
4.81207e-05
2.9736e-05
4.28417e-05
4.23764e-05
4.75126e-05
2.82974e-05
4.07608e-05
4.04263e-05
4.51221e-05
2.62795e-05
3.74583e-05
3.72317e-05
4.13138e-05
0.0183169
0.0119572
0.000187106
3.8934e-05
0.0206661
0.00310896
0.00648487
0.000514564
0.00120622
6.55334e-05
3.12426e-05
5.02996e-05
0.00458703
0.00187587
5.0284e-05
3.84138e-05
0.0265301
0.0111501
0.0167111
0.000730984
0.00742143
9.29786e-05
7.59337e-05
3.49175e-05
0.0392167
0.00377417
0.0230413
0.00508554
4.89435e-05
2.27697e-05
2.2402e-05
0.00473357
0.00400951
0.000103268
0.00517776
0.000368078
4.22138e-05
0.00835079
0.000180001
0.00312731
5.20871e-05
0.000244203
3.82373e-05
3.34016e-05
3.4873e-05
0.0142278
0.00749371
0.00131087
0.0108655
1.92301e-05
3.08287e-05
4.64578e-05
0.0044371
0.00450203
0.000129872
0.00699595
7.50833e-05
4.22391e-05
0.000156774
7.27112e-05
0.00016575
4.13865e-05
9.94822e-05
4.79326e-05
4.09693e-05
4.25649e-05
0.00128048
0.0105839
0.00270596
0.00142198
5.06895e-05
4.04525e-05
8.88416e-05
0.00581522
0.00417987
8.70094e-05
0.00570172
0.000269298
0.000112821
6.69027e-05
0.000103963
0.000113216
4.56632e-05
5.02799e-05
3.95309e-05
4.1256e-05
3.73539e-05
0.00278967
0.00114539
0.000692022
0.000588717
0.000106702
3.99285e-05
0.000120463
0.0044602
0.00139232
0.000267994
0.00313163
0.000473656
0.000294828
6.34783e-05
4.41897e-05
4.17248e-05
3.85376e-05
3.96771e-05
3.88849e-05
3.80962e-05
4.32409e-05
0.000210707
0.00043854
4.26175e-05
5.12412e-05
0.000118621
4.04869e-05
5.9534e-05
0.00102222
5.71096e-05
0.000600769
0.000184136
0.000375988
0.000129612
4.45748e-05
4.65117e-05
4.04223e-05
3.9861e-05
4.16142e-05
4.14792e-05
4.39783e-05
4.6418e-05
4.15427e-05
4.45968e-05
4.19879e-05
4.25673e-05
4.80766e-05
4.19233e-05
4.2513e-05
5.42028e-05
4.71143e-05
0.000160199
4.40596e-05
4.3754e-05
4.70296e-05
4.65231e-05
4.70336e-05
4.17244e-05
4.16466e-05
4.19802e-05
4.1979e-05
4.64501e-05
4.69981e-05
4.20894e-05
4.24992e-05
4.23794e-05
4.25142e-05
4.24076e-05
4.23523e-05
4.24852e-05
4.69122e-05
4.70695e-05
4.23472e-05
4.20256e-05
4.20141e-05
4.70623e-05
4.71073e-05
4.81109e-05
4.22074e-05
4.22121e-05
4.28244e-05
4.28252e-05
4.70742e-05
4.80756e-05
4.26231e-05
4.27072e-05
4.32686e-05
4.33277e-05
4.27144e-05
4.3244e-05
4.33142e-05
4.71319e-05
4.81245e-05
4.2208e-05
4.2798e-05
4.28191e-05
4.81296e-05
4.81031e-05
4.77646e-05
4.28836e-05
4.28835e-05
4.27279e-05
4.27261e-05
4.80677e-05
4.77289e-05
4.33345e-05
4.33838e-05
4.31812e-05
4.32163e-05
4.33697e-05
4.31534e-05
4.32015e-05
4.81155e-05
4.77724e-05
4.28733e-05
4.26941e-05
4.27133e-05
4.77788e-05
4.74996e-05
4.56224e-05
4.24097e-05
4.24089e-05
4.10623e-05
4.10578e-05
4.7464e-05
4.55847e-05
4.28677e-05
4.2899e-05
4.15778e-05
4.15966e-05
4.28854e-05
4.15452e-05
4.15868e-05
4.75066e-05
4.56282e-05
4.23967e-05
4.10339e-05
4.10526e-05
4.56365e-05
4.51226e-05
4.18577e-05
4.04533e-05
4.04501e-05
3.81516e-05
3.81561e-05
4.50718e-05
4.18523e-05
4.07873e-05
4.08136e-05
3.8684e-05
3.87021e-05
4.07978e-05
3.86565e-05
3.8689e-05
4.51274e-05
4.18601e-05
4.0447e-05
3.81279e-05
3.81568e-05
4.18998e-05
4.13386e-05
3.72516e-05
3.72357e-05
4.12707e-05
3.74813e-05
3.74968e-05
3.74858e-05
4.13407e-05
3.72341e-05
0.00159816
0.00246721
0.002381
0.00328246
0.000255081
3.38153e-05
1.44052e-06
4.40412e-05
0.000345318
0.00174464
0.000117802
0.0264797
3.61974e-05
1.31794e-06
1.09431e-06
0.0008346
0.00502181
0.00136652
0.00458413
0.000140912
0.00015733
0.0241481
0.155913
0.289095
0.0787218
0.000628032
0.0015013
5.92099e-05
0.0163158
0.000147732
0.00297132
5.68162e-05
0.000114848
5.41794e-06
2.90985e-05
4.77462e-05
0.000187708
3.86315e-06
2.64872e-05
0.0398834
0.000858585
0.0113537
0.00294906
0.0347958
0.00561965
0.0171889
0.00659939
0.0400918
1.91226e-05
2.58629e-06
5.08972e-05
3.326e-05
0.000163025
4.93331e-05
0.000633858
0.000167649
0.00051412
1.34289e-05
1.8332e-06
0.00633388
0.019955
0.022308
0.000243364
8.2919e-05
0.0028628
5.43115e-05
0.000293382
5.80814e-05
0.00272513
6.93374e-05
2.34687e-05
6.71413e-06
3.9854e-05
3.45854e-05
3.80209e-05
1.59653e-05
4.40467e-05
0.00641286
0.000292506
0.00603253
0.00702612
0.0160813
0.00721056
0.0067364
0.00634274
0.00687155
8.65474e-06
0.000100568
4.3682e-05
9.21008e-06
1.01843e-05
1.20218e-05
2.6346e-05
4.79194e-06
0.000130432
6.00842e-06
1.19101e-05
0.00112498
0.000106848
0.00578806
5.97583e-05
5.80815e-05
0.00257121
8.55541e-05
0.00144223
6.28386e-05
0.00176212
0.000142752
2.66277e-05
7.7364e-06
5.38811e-05
3.71338e-05
1.27008e-05
1.27583e-05
6.02148e-05
2.13394e-05
1.22445e-05
0.0105236
0.00491701
0.00479319
0.00622602
0.00595336
0.00489989
0.00470078
1.25944e-05
1.28577e-05
6.23376e-05
1.86447e-05
3.05606e-05
4.66609e-05
3.12577e-05
3.9761e-05
2.7104e-05
1.76312e-05
1.63685e-05
0.0021234
0.00022787
0.0015724
6.02751e-05
5.70221e-05
0.00152596
0.000160728
0.000236824
4.06701e-05
0.000404307
0.000191838
4.97715e-05
3.45561e-05
6.00577e-05
4.02201e-05
4.68384e-05
4.20238e-05
5.30015e-05
3.13864e-05
3.45701e-05
0.00350883
0.00549023
0.00173995
0.00443167
0.00223821
0.00475587
0.00245569
2.95371e-05
0.000112473
0.00018551
3.39087e-05
0.000173516
4.85206e-05
2.23966e-05
4.95179e-05
2.08275e-05
1.49067e-05
1.41719e-05
5.53822e-05
2.63269e-05
0.00024289
2.10273e-05
3.77212e-05
0.00026768
0.000201168
3.31169e-05
3.29138e-05
6.79443e-05
0.000126684
5.40322e-05
4.7393e-05
4.14626e-05
3.96013e-05
5.37726e-05
4.70879e-05
3.97121e-05
2.05694e-05
1.53109e-05
0.000566504
0.00176841
0.000558739
0.00138551
0.0025089
0.00124423
7.65178e-05
4.25255e-05
0.000340822
0.000407324
3.5035e-05
0.000345479
4.53459e-05
1.94316e-05
4.62714e-05
1.91816e-05
1.33904e-05
1.31106e-05
4.41987e-05
1.88206e-05
4.53692e-05
1.86179e-05
3.21858e-05
5.19297e-05
6.89755e-05
3.11918e-05
3.12422e-05
3.23588e-05
3.22372e-05
5.15679e-05
4.47766e-05
3.73528e-05
4.14474e-05
5.25603e-05
4.35505e-05
3.70158e-05
1.32128e-05
1.28027e-05
5.77214e-05
0.000336352
4.77165e-05
6.56621e-05
0.000101973
0.000152029
4.41666e-05
2.98659e-05
3.72121e-05
5.14731e-05
2.85246e-05
2.79928e-05
4.58804e-05
1.9743e-05
4.51764e-05
2.02225e-05
1.32835e-05
1.35049e-05
4.49342e-05
1.9298e-05
4.42799e-05
1.97702e-05
3.10466e-05
3.14338e-05
3.13315e-05
3.07114e-05
3.07105e-05
3.07497e-05
3.07394e-05
5.07206e-05
4.33587e-05
3.60833e-05
4.21002e-05
5.05902e-05
4.39917e-05
3.58485e-05
1.29658e-05
1.32161e-05
5.07628e-05
3.71794e-05
4.32668e-05
4.21007e-05
5.08437e-05
3.54887e-05
4.41541e-05
2.86608e-05
2.84999e-05
4.67738e-05
2.91682e-05
2.92475e-05
4.85825e-05
2.10764e-05
4.77985e-05
2.12515e-05
1.38854e-05
1.3925e-05
4.75395e-05
2.06275e-05
4.68862e-05
2.07635e-05
3.06696e-05
3.06951e-05
3.06932e-05
3.05835e-05
3.05802e-05
3.05953e-05
3.05962e-05
5.31938e-05
4.59541e-05
3.56784e-05
4.28632e-05
5.2084e-05
4.6588e-05
3.57315e-05
1.36439e-05
1.36889e-05
5.33679e-05
3.49441e-05
4.62584e-05
4.24335e-05
5.22289e-05
3.50062e-05
4.70563e-05
3.02046e-05
3.04628e-05
4.77266e-05
3.03557e-05
3.06757e-05
4.91275e-05
2.13024e-05
4.92001e-05
2.10552e-05
1.38581e-05
1.36289e-05
4.79701e-05
2.08231e-05
4.81158e-05
2.05716e-05
3.04827e-05
3.04958e-05
3.04962e-05
3.00456e-05
3.00392e-05
3.00476e-05
3.00502e-05
5.42812e-05
4.71125e-05
3.59409e-05
4.33104e-05
5.41531e-05
4.69297e-05
3.59314e-05
1.36427e-05
1.34139e-05
5.45874e-05
3.51975e-05
4.76213e-05
4.28542e-05
5.44481e-05
3.51871e-05
4.7495e-05
3.03832e-05
3.07216e-05
4.81454e-05
3.00004e-05
3.03561e-05
4.73478e-05
2.03779e-05
4.84014e-05
1.96318e-05
1.30995e-05
1.25609e-05
4.6164e-05
1.99226e-05
4.72546e-05
1.91661e-05
2.97329e-05
2.97453e-05
2.97421e-05
2.88077e-05
2.87997e-05
2.88008e-05
2.88096e-05
5.31578e-05
4.61325e-05
3.54468e-05
4.24997e-05
5.37941e-05
4.5018e-05
3.51985e-05
1.28993e-05
1.2363e-05
5.35046e-05
3.46716e-05
4.66992e-05
4.20272e-05
5.41726e-05
3.44447e-05
4.56197e-05
2.90978e-05
2.94409e-05
4.69052e-05
2.80556e-05
2.84151e-05
4.34487e-05
1.84004e-05
4.51966e-05
1.75754e-05
1.17238e-05
1.11461e-05
4.2249e-05
1.80049e-05
4.4119e-05
1.71106e-05
2.82919e-05
2.83113e-05
2.83012e-05
2.69307e-05
2.69374e-05
2.69154e-05
2.6945e-05
4.97002e-05
4.2988e-05
3.38161e-05
4.02552e-05
5.12e-05
4.11607e-05
3.34229e-05
1.15447e-05
1.0949e-05
5.00945e-05
3.31164e-05
4.34797e-05
3.97056e-05
5.15929e-05
3.26666e-05
4.18162e-05
2.63955e-05
2.67289e-05
4.39361e-05
2.50361e-05
2.53922e-05
3.87295e-05
1.65218e-05
4.05946e-05
1.60472e-05
1.04755e-05
1.02123e-05
1.61612e-05
3.95274e-05
2.62519e-05
2.62985e-05
2.62616e-05
4.48685e-05
3.85249e-05
3.11867e-05
3.68737e-05
4.66886e-05
3.71333e-05
3.08042e-05
1.03204e-05
4.5209e-05
3.06203e-05
3.90316e-05
4.71352e-05
3.01342e-05
2.34493e-05
2.37314e-05
3.96718e-05
2.26559e-05
2.28664e-05
0.00542609
7.65693e-06
0.00170695
0.00355599
0.000149507
0.1725
0.0151932
0.00722929
0.00682995
0.0795136
1.19705e-05
0.00600566
0.000845978
0.00501932
8.0997e-05
0.00273685
0.00075697
0.000119079
3.6966e-05
0.00185204
0.000826463
0.0030254
0.000148848
0.00109407
0.00122984
0.000391634
6.056e-05
0.00114294
0.00105811
0.00495506
0.00306812
0.00669856
8.41904e-05
0.00356498
0.00176696
0.000914712
0.000148834
0.000357509
0.0035842
6.17559e-05
0.00245963
0.00125324
2.27946e-05
1.46153e-05
1.41733e-06
0.00021704
2.76827e-05
1.91173e-05
0.000104325
3.00055e-06
2.17726e-05
2.86083e-06
0.000149678
1.5223e-05
0.00057542
0.00243463
0.00177419
0.0012101
0.0051879
0.000894928
0.00209488
0.748081
0.0206713
0.196076
0.0108019
0.364569
0.185964
0.00244731
0.104119
0.0487046
0.0113007
0.00453671
0.316587
0.0868182
0.0822289
3.50672
0.409214
0.402251
0.00228035
0.00905605
0.0296906
0.00332961
1.04807
0.393855
0.0010562
9.82223e-05
0.00165851
0.000116217
0.00115789
0.000838462
0.00338326
9.69854e-05
0.000659386
6.35975e-05
9.07142e-05
0.00010143
0.00187281
0.00268507
0.00552504
0.00411539
0.00288306
0.00345288
0.00401048
0.00129335
0.000139282
0.00307802
0.000270983
0.00205847
0.000141674
0.00185133
0.00139389
0.00107344
0.0021675
0.000409722
0.00292905
0.000119895
0.00193954
0.000826598
6.29506e-05
0.000105993
0.0001685
0.000104259
0.000113823
0.000566998
0.000173109
7.40379e-05
5.69355e-05
3.88629e-06
0.000405165
2.96556e-05
6.09087e-06
2.93107e-05
2.73261e-06
3.92466e-05
0.000269262
0.0012344
6.67276e-05
1.09401e-05
0.000678979
0.000204925
6.43539e-05
6.38212e-05
1.4276e-05
5.6549e-05
3.94276e-06
0.000163731
0.000608142
6.59533e-05
1.11149e-05
0.000240745
0.000677419
0.23213
0.0586599
0.0509954
0.438596
0.000758786
0.00381169
0.02352
0.316987
0.0562757
0.0210381
0.149354
9.33745e-05
3.59412e-05
0.000131965
1.53393e-06
0.000863873
0.00281061
0.000913696
0.0344834
0.000160693
0.0377163
0.0171125
0.000116807
3.30388e-05
0.000436748
7.00041e-06
0.000161551
1.40462e-06
0.00315771
0.000822366
0.090954
0.108834
0.019175
0.000450345
7.48136e-05
2.11185e-06
0.00320006
3.22291e-05
1.5177e-05
7.72976e-06
1.14621e-06
1.08524e-06
0.000100004
3.25517e-06
0.000168106
9.51602e-07
0.0058322
0.00732915
0.148171
0.0792524
0.012664
0.0767047
0.0256741
0.0121242
0.0651226
0.00137053
0.00470365
0.0238852
0.0609674
0.0232401
0.00269663
0.0220196
0.00794931
0.0503354
0.000486948
0.000618253
0.00114106
0.000352733
0.00178715
0.00499859
0.0106426
0.0174376
0.00307437
0.00766386
0.00916145
0.00100001
0.000357878
0.00402446
0.000373451
0.00158462
0.000245589
0.00256058
0.000568164
0.00089681
0.00295075
0.000211084
0.000349149
9.41236e-05
0.000283377
0.000157178
0.00128888
0.0136545
0.00145831
0.0024294
0.00501968
0.005517
0.000520932
0.000730484
0.000198914
8.05057e-05
0.000489687
0.000203214
0.00127292
0.000317108
0.000103498
2.47901e-06
4.82119e-05
9.45545e-05
4.43985e-06
6.05639e-07
5.60522e-07
3.21679e-05
0.000119546
4.6472e-05
2.30578e-05
5.26928e-06
7.77313e-05
6.06311e-06
2.24902e-05
7.49216e-06
0.0493761
0.0986908
0.0369661
0.0402148
0.274738
0.0832917
0.0269781
0.0203323
0.0437639
0.228703
0.0270991
0.0189231
0.00435759
0.0173641
0.00340949
0.256868
0.0057474
0.00839485
0.0209271
0.031682
0.0609018
0.0250643
0.0352197
0.0342853
0.0268234
0.0193357
0.0609902
0.0219548
0.0238014
0.0159284
0.00542217
0.00515898
0.0202895
0.0241445
0.00324907
0.0136882
0.0139507
0.00903278
0.00713672
0.0220417
0.000169325
5.92543e-05
0.000655406
2.86029e-05
5.94226e-05
4.85573e-05
1.87101e-05
3.54602e-05
9.44595e-05
4.48462e-05
2.85125e-05
4.96765e-05
8.004e-05
0.000108773
4.69594e-05
9.05659e-05
3.37124e-05
6.4543e-06
2.86747e-05
4.82008e-06
2.75562e-05
4.80194e-05
0.000136925
8.20209e-05
4.90826e-05
6.84843e-05
5.08909e-05
2.8477e-05
4.16975e-05
2.75485e-05
4.25314e-05
2.64891e-05
3.24907e-05
5.20265e-05
8.37176e-06
2.63692e-05
2.71664e-05
0.00891088
0.0455111
0.00387274
0.0030989
0.00483305
0.046055
0.00296506
0.00439955
0.00378462
0.00361239
0.00906081
0.00929201
0.00461085
0.00462344
0.0029536
0.000707276
0.00982524
0.00174975
2.07649e-05
0.000388034
0.0108711
0.00355502
0.00112144
0.0160958
0.0731631
0.0236338
0.0100777
0.013164
0.000120748
0.00640192
0.000908157
0.00997751
0.00511883
0.00738594
0.0181335
0.00726675
0.0217712
0.00746813
0.00846448
0.000522357
0.00350529
0.00157502
0.00438893
0.00181062
0.00582277
0.0143799
0.0028922
0.00905607
0.00902254
0.0112491
0.00113467
0.00113848
0.00641798
3.74957e-05
4.35392e-05
2.07676e-05
0.000254091
6.1232e-05
1.47287e-05
0.000225259
3.52202e-05
0.000296378
4.49238e-06
2.37441e-05
0.000296609
0.000377597
0.00102207
0.000690352
0.0118481
0.000230463
0.00184594
0.0147059
0.00137579
0.000606377
0.00108801
0.000490333
0.000642313
1.0589e-05
3.17792e-05
0.000640391
0.000365453
4.713e-05
0.000420136
0.000192898
4.40756e-05
4.81013e-05
0.00012232
5.99023e-06
0.000133775
0.000963854
0.000850918
0.00108554
0.00041087
0.000432845
0.000288813
7.85571e-05
4.29405e-05
0.000161897
4.07123e-05
0.000239367
9.23746e-06
6.89657e-05
3.5344e-05
3.03355e-05
0.000404267
8.79072e-06
3.38038e-05
3.70876e-06
4.11195e-06
1.22007e-05
8.14716e-05
0.000411037
0.000159399
7.50291e-05
0.000438194
0.000144191
8.15984e-06
5.41802e-05
3.68143e-05
6.44115e-06
2.93314e-05
6.37002e-06
3.97963e-05
9.96601e-06
1.10038e-05
5.66981e-06
3.08628e-05
3.3171e-06
7.20059e-06
2.7308e-05
1.30152e-05
3.69564e-06
1.70083e-06
3.43982e-05
6.63253e-06
5.10861e-06
3.6164e-06
7.12729e-06
3.80504e-06
1.19836e-05
0.0137337
0.0204529
0.0155036
0.00747769
0.0220949
0.00384674
0.0111853
0.00552088
0.00765453
0.0199494
0.00161512
0.0178709
0.0136575
0.0100746
0.00847719
0.0219436
0.0124436
0.00150915
0.00561539
9.63512e-05
6.83147e-05
0.00563568
0.0120246
0.00314189
0.000876242
0.00576264
0.00180784
0.00730798
0.016104
0.00532414
0.00018105
0.00115986
0.00330653
0.019378
0.00987373
0.0114253
0.000832991
0.0112652
0.00242138
0.0199979
1.4078e-05
7.52369e-05
5.02146e-05
4.21346e-05
1.02858e-05
4.30441e-05
2.75477e-05
2.10927e-05
2.78752e-05
4.50288e-05
2.37331e-05
4.7906e-06
6.43527e-06
1.87903e-05
4.11945e-06
1.59584e-05
3.04811e-05
8.77575e-06
4.78159e-05
1.47087e-05
4.27452e-05
7.92235e-06
1.06128e-05
7.33416e-06
3.18021e-05
4.14735e-06
7.66003e-06
3.88186e-05
4.93809e-05
1.24006e-05
4.44298e-05
2.09494e-05
9.20467e-06
4.0353e-06
6.7868e-06
4.79249e-06
4.71969e-06
0.00665678
0.007071
0.00328176
0.000509397
0.00169608
0.00443814
0.00240937
5.43718e-05
0.000197696
0.00385547
0.000117677
0.00173271
0.00112231
0.00157611
0.000419335
0.00148131
0.00538886
0.00173888
0.000838704
7.33139e-05
0.00563745
0.000732608
5.25193e-05
0.00520559
0.00413742
0.00865103
0.00237532
0.00303889
0.000761749
0.00585762
6.54336e-05
0.00587376
0.00722018
0.00500293
0.00539194
0.00542102
0.00640904
0.00561733
0.00421547
6.98184e-05
0.000541985
1.3355e-05
0.000508236
2.11391e-05
0.00245795
0.00302723
0.00111556
0.00185145
0.000818933
0.0012049
8.45173e-06
2.11304e-05
0.000135354
3.6534e-06
3.47394e-06
0.000165807
1.49175e-05
4.59935e-05
1.04079e-05
8.93135e-06
1.03261e-05
7.57091e-06
6.37134e-06
4.40906e-06
7.10744e-06
7.47407e-06
0.000372515
0.000236689
9.78629e-06
1.94154e-05
0.000567043
5.09582e-05
0.000161953
0.000417353
3.68317e-05
2.23981e-05
0.000237229
6.80038e-05
2.4047e-05
0.000151776
4.89739e-05
0.000198028
0.000271122
4.56274e-05
1.22199e-05
6.54933e-06
5.62382e-06
1.7396e-05
2.51628e-05
7.70709e-05
4.08267e-05
0.000102631
6.20242e-06
0.000159424
3.17433e-05
1.90801e-05
1.27189e-05
2.68797e-05
4.48085e-05
7.35794e-06
2.49597e-05
2.7783e-05
1.77185e-05
3.1251e-05
0.000137967
3.4502e-05
1.81696e-05
2.88125e-05
2.22666e-05
3.65128e-05
3.29967e-05
8.70391e-05
8.53418e-05
4.51326e-05
0.000174806
3.33839e-05
3.91047e-05
2.37876e-05
4.7943e-05
4.02994e-05
4.39229e-05
3.16229e-05
3.29701e-05
3.92364e-05
1.03481e-05
5.99527e-06
4.33186e-05
1.75803e-05
1.10169e-05
4.39436e-06
8.89264e-06
1.70737e-05
1.45128e-05
4.50149e-05
2.74658e-05
2.16336e-05
2.19712e-05
1.39753e-05
1.63423e-05
1.15437e-05
0.0108999
0.00104034
0.00594822
0.00215085
0.0187079
0.000600538
0.00738192
0.000465256
8.87287e-05
0.00382049
1.96845e-05
0.00539354
0.0121991
0.000431331
0.00807687
0.019274
0.0127461
7.67815e-05
0.000774739
0.000213915
7.64539e-05
0.00126142
0.00702544
0.00253229
0.00144591
0.00776979
0.000697691
0.00804871
0.00437348
0.000316226
4.1665e-05
2.4595e-05
0.000701263
0.00356691
0.0027582
0.0103721
0.000117125
0.01227
6.02897e-05
0.00146331
2.48313e-05
5.85628e-06
6.07165e-06
1.15608e-05
2.93007e-05
5.77654e-05
1.50364e-05
6.22967e-05
1.62007e-05
6.97789e-05
2.41696e-05
2.65016e-05
9.82249e-06
8.95667e-06
1.87087e-05
3.56845e-05
3.9497e-05
2.9937e-05
6.50187e-05
1.89616e-05
6.50401e-05
4.36239e-05
3.23084e-05
2.26595e-05
1.53497e-05
4.31269e-05
3.67632e-05
7.43253e-05
9.81492e-05
3.71394e-05
8.50785e-05
3.14137e-05
4.32407e-05
3.29504e-05
2.50269e-05
2.24441e-05
4.26657e-05
5.3135e-05
0.00178426
0.00428507
3.11868e-05
0.000824632
0.000463707
6.85376e-05
2.61951e-05
1.5257e-05
0.00324679
6.74773e-05
0.00110688
3.95751e-05
0.00148018
0.000346895
0.000159805
0.00406466
0.000706693
2.14607e-05
0.000128959
0.00243229
0.00127507
4.73843e-05
0.00420337
0.000854013
0.00100097
0.00066891
0.000552741
1.33332e-05
0.000189983
2.45262e-05
0.0109212
0.00586599
0.00564087
0.00211068
0.00518019
0.00560912
0.00185887
0.00178165
0.000227632
0.00226142
8.66107e-05
0.00216653
5.28076e-05
0.000653348
0.00341756
0.000233816
0.000614033
0.000170758
0.000259464
6.79376e-05
3.11036e-05
5.98263e-05
8.71728e-06
1.29601e-05
9.85057e-06
2.26061e-05
8.08787e-05
2.64391e-05
8.53783e-05
2.30082e-05
4.54395e-05
1.6539e-05
1.50448e-05
7.57123e-05
3.19043e-05
2.1238e-05
1.88713e-05
6.83533e-05
2.91856e-05
4.30379e-05
0.000211706
0.000269342
2.74142e-05
7.47051e-05
1.62382e-05
1.81068e-05
1.67352e-05
2.42058e-05
0.000272358
2.83288e-05
3.60639e-05
2.6815e-05
5.24683e-05
4.94245e-05
2.96782e-05
4.20879e-05
2.72202e-05
4.60062e-05
7.24428e-05
5.3781e-05
9.52905e-05
4.41038e-05
4.17959e-05
4.98077e-05
4.87016e-05
4.27207e-05
4.74538e-05
4.29354e-05
4.48309e-05
4.4563e-05
4.4339e-05
4.78365e-05
2.27606e-05
2.56265e-05
4.94077e-05
5.01152e-05
2.39099e-05
2.66909e-05
5.04585e-05
4.66527e-05
6.996e-05
4.12604e-05
4.00862e-05
4.01466e-05
4.42332e-05
5.09968e-05
4.97656e-05
4.09371e-05
4.56351e-05
3.92079e-05
4.51805e-05
4.13941e-05
5.23509e-05
2.94247e-05
2.4786e-05
3.76873e-05
3.05493e-05
2.96451e-05
1.80301e-05
1.86937e-05
1.50462e-05
1.61504e-05
3.73054e-05
3.0774e-05
3.21357e-05
3.09854e-05
3.1116e-05
1.62021e-05
1.85987e-05
0.00471347
0.00147174
0.00651971
0.00266092
0.00443462
0.000348063
0.00468512
0.00175385
5.41409e-05
0.00104834
7.19601e-05
0.00304971
0.00688114
0.000153359
0.000702711
0.00160094
0.00447498
0.000238527
0.00229797
2.88139e-05
4.38695e-05
0.000636889
0.00439976
0.00177714
6.7361e-05
0.0023279
0.000182153
0.00355201
0.00214295
0.00181841
4.32009e-05
7.42372e-05
0.000460702
0.00333767
0.000587616
0.00184859
0.000151928
0.00299748
0.000261699
0.00175713
4.95469e-05
2.5345e-05
4.61475e-05
2.68698e-05
4.88342e-05
0.000101963
4.1832e-05
0.000120235
4.65531e-05
9.64903e-05
4.32123e-05
4.82693e-05
2.61769e-05
4.54887e-05
2.38611e-05
5.13025e-05
4.01433e-05
4.68632e-05
4.39637e-05
4.44907e-05
4.75782e-05
5.30747e-05
5.04641e-05
2.50364e-05
2.72303e-05
5.04338e-05
5.00682e-05
0.000122568
6.65913e-05
4.42253e-05
8.16106e-05
4.46769e-05
5.10395e-05
4.90054e-05
2.17005e-05
2.37369e-05
4.87855e-05
8.34984e-05
0.000900038
0.00382838
7.93328e-05
0.000599462
0.000264804
0.00018358
2.32727e-05
3.44835e-05
0.00261183
5.17197e-05
0.000213479
8.12486e-05
0.000525807
5.44702e-05
0.000152769
0.00119659
0.00201809
0.00011272
0.000275436
0.000763241
0.00155942
0.000171701
0.00060641
0.000255207
0.000240862
0.000384603
0.000186889
9.22097e-05
8.25353e-05
0.000153118
0.00383762
0.00354879
0.00237692
0.00104258
0.00341671
0.00241649
0.00328008
0.00168261
0.000334883
0.00127693
0.000427353
0.001367
0.000202134
0.00243535
0.000694679
0.00015378
0.000398833
0.000483495
0.00025946
0.000289288
0.00017748
0.000399116
1.7658e-05
1.86699e-05
0.000100455
0.000166659
0.000221489
4.31201e-05
0.000292384
3.75277e-05
0.000201684
2.06441e-05
1.96807e-05
0.00026308
0.000191649
1.5908e-05
1.44579e-05
1.54966e-05
1.31448e-05
2.92656e-05
3.43268e-05
4.51157e-05
3.02814e-05
3.02853e-05
1.3415e-05
1.41494e-05
1.23757e-05
1.28824e-05
4.37362e-05
2.98767e-05
2.84404e-05
3.03727e-05
2.97594e-05
4.88453e-05
2.34766e-05
5.03567e-05
2.15074e-05
5.31012e-05
4.23238e-05
3.76833e-05
3.9413e-05
5.21147e-05
4.40172e-05
3.63322e-05
5.33019e-05
4.56894e-05
3.75931e-05
3.81043e-05
5.29396e-05
4.54026e-05
3.64155e-05
4.8123e-05
1.95509e-05
2.05138e-05
4.66035e-05
4.83819e-05
1.99351e-05
2.11474e-05
4.67342e-05
5.30891e-05
3.91564e-05
4.41331e-05
3.5262e-05
4.42788e-05
3.55639e-05
5.24239e-05
5.32198e-05
3.81732e-05
4.46458e-05
3.53415e-05
4.53661e-05
3.56825e-05
5.2462e-05
3.0831e-05
3.22453e-05
4.01691e-05
3.06513e-05
3.10465e-05
1.57307e-05
1.39929e-05
1.34772e-05
1.40448e-05
4.09367e-05
3.0046e-05
2.93263e-05
3.06438e-05
3.0806e-05
1.29315e-05
1.37528e-05
8.2647e-05
5.79166e-05
0.00104652
7.84065e-05
0.000941865
4.81865e-05
0.000326644
6.27906e-05
3.51429e-05
0.000221003
2.32149e-05
0.00012289
0.00108416
0.000105918
0.000200175
0.000869118
0.000614729
5.18387e-05
5.10173e-05
1.89119e-05
2.03666e-05
4.58483e-05
6.46032e-05
4.87463e-05
4.44411e-05
4.96431e-05
4.7104e-05
0.000101609
5.37502e-05
5.44771e-05
1.90897e-05
2.17751e-05
4.61956e-05
8.12415e-05
8.29596e-05
8.6207e-05
4.40366e-05
0.000252415
4.82525e-05
5.46845e-05
4.83627e-05
2.45934e-05
5.02799e-05
2.17863e-05
5.24988e-05
5.66071e-05
4.43507e-05
0.000107377
5.16865e-05
5.00996e-05
4.28449e-05
4.72863e-05
2.1456e-05
4.86889e-05
2.00131e-05
5.39169e-05
3.99406e-05
4.50723e-05
3.77762e-05
4.68582e-05
3.85148e-05
5.30189e-05
4.7978e-05
1.96742e-05
2.13715e-05
4.59063e-05
5.27598e-05
8.26442e-05
4.07045e-05
4.24145e-05
4.47016e-05
4.27085e-05
5.24908e-05
4.7018e-05
1.88207e-05
1.98507e-05
4.53472e-05
4.38287e-05
0.000131386
0.000175976
3.28918e-05
3.76738e-05
3.54568e-05
1.60183e-05
1.33313e-05
1.45891e-05
9.01457e-05
2.95151e-05
2.95838e-05
3.17249e-05
3.34484e-05
1.30532e-05
1.46755e-05
0.00105812
0.0012005
0.000577721
0.000642393
0.00218694
0.00104258
0.00072474
0.000151683
8.41805e-05
0.00035407
2.47137e-05
0.000315755
0.000327854
0.000401952
0.000283282
0.000412767
0.000436494
0.000572216
4.93486e-05
0.000845432
5.85693e-05
0.000148603
0.000813878
0.000607075
0.000579342
0.000139402
0.000812426
0.000620729
0.000240932
0.000130421
2.06684e-05
2.28597e-05
6.87611e-05
0.000255771
3.40105e-05
0.000185681
8.8277e-05
2.0368e-05
1.76269e-05
0.000275258
0.000136277
0.000336247
3.01175e-05
5.24235e-05
3.32157e-05
0.000258815
1.43984e-05
1.6831e-05
1.71198e-05
7.5986e-05
1.33122e-05
1.30527e-05
1.23754e-05
1.24049e-05
2.97684e-05
2.83892e-05
4.58474e-05
2.91825e-05
2.81431e-05
1.31559e-05
1.30638e-05
1.27496e-05
1.25117e-05
4.60451e-05
2.91608e-05
2.84353e-05
2.91759e-05
2.8225e-05
4.53923e-05
1.9754e-05
4.6375e-05
1.93367e-05
5.14053e-05
4.40513e-05
3.5213e-05
4.10115e-05
5.21276e-05
4.3579e-05
3.52623e-05
5.14203e-05
4.4475e-05
3.52546e-05
4.06365e-05
5.21536e-05
4.37742e-05
3.52691e-05
4.52182e-05
1.9501e-05
1.92386e-05
4.50504e-05
4.5252e-05
1.95449e-05
1.93565e-05
4.50625e-05
5.11645e-05
4.13988e-05
4.34962e-05
3.52565e-05
4.35416e-05
3.52841e-05
5.07427e-05
5.11743e-05
4.1169e-05
4.35522e-05
3.52461e-05
4.3685e-05
3.52768e-05
5.07464e-05
2.99323e-05
2.91813e-05
4.55551e-05
2.92591e-05
2.84857e-05
1.2851e-05
1.26242e-05
1.31728e-05
1.31113e-05
4.58424e-05
2.91437e-05
2.85552e-05
2.9241e-05
2.8493e-05
1.28094e-05
1.26647e-05
5.14506e-05
4.41368e-05
3.91219e-05
4.15792e-05
5.27545e-05
4.31948e-05
3.70872e-05
4.40992e-05
1.88577e-05
4.5467e-05
1.84171e-05
5.14087e-05
4.56197e-05
4.36343e-05
4.30468e-05
5.30978e-05
3.80394e-05
4.27168e-05
4.41745e-05
1.90256e-05
1.87264e-05
4.40681e-05
5.11094e-05
4.18241e-05
4.30849e-05
3.63032e-05
4.317e-05
3.6582e-05
5.06477e-05
4.40634e-05
1.87933e-05
1.84916e-05
4.39776e-05
5.10507e-05
4.26671e-05
3.63359e-05
4.26811e-05
3.67224e-05
4.26876e-05
5.06135e-05
4.43856e-05
1.94987e-05
4.56059e-05
1.89281e-05
5.13688e-05
3.84693e-05
4.24504e-05
4.40349e-05
5.21528e-05
3.73913e-05
4.22227e-05
4.41042e-05
1.86382e-05
4.51138e-05
1.82354e-05
5.12071e-05
4.17471e-05
4.31955e-05
3.63713e-05
4.34539e-05
3.66934e-05
5.06799e-05
4.43163e-05
1.91188e-05
1.89649e-05
4.41072e-05
5.10512e-05
4.28338e-05
3.6402e-05
4.25145e-05
3.68165e-05
4.22735e-05
5.06053e-05
4.40698e-05
1.87142e-05
1.83366e-05
4.39617e-05
2.93527e-05
2.92025e-05
4.94259e-05
2.8552e-05
2.82407e-05
1.28339e-05
1.2385e-05
1.28324e-05
1.27955e-05
4.81597e-05
2.845e-05
2.83414e-05
2.85303e-05
2.81968e-05
1.26324e-05
1.23982e-05
5.8158e-05
0.000315065
8.32764e-05
7.32716e-05
0.000139592
0.000129424
4.51048e-05
4.66282e-05
2.01827e-05
5.82062e-05
1.89767e-05
4.64825e-05
2.45528e-05
6.52028e-05
1.85816e-05
5.43712e-05
4.9227e-05
4.36571e-05
4.31e-05
6.86029e-05
4.36337e-05
5.11277e-05
5.41971e-05
4.95901e-05
4.11582e-05
4.28823e-05
5.98307e-05
4.36436e-05
5.09872e-05
4.56161e-05
1.90346e-05
1.88808e-05
4.46154e-05
4.5363e-05
1.88341e-05
1.84638e-05
4.45032e-05
1.39003e-05
1.28616e-05
1.39482e-05
1.20182e-05
4.87552e-05
2.83996e-05
2.81008e-05
2.84569e-05
2.78009e-05
1.28015e-05
1.27994e-05
1.2505e-05
1.20826e-05
1.32769e-05
1.35108e-05
1.29251e-05
1.32146e-05
2.93483e-05
2.87125e-05
4.66745e-05
2.97636e-05
2.92097e-05
1.38197e-05
1.36462e-05
1.35629e-05
1.33774e-05
4.66787e-05
3.04552e-05
2.99582e-05
3.00574e-05
2.95481e-05
4.58804e-05
1.97687e-05
4.51828e-05
2.02273e-05
5.08141e-05
4.36759e-05
3.51334e-05
4.1785e-05
5.06873e-05
4.44155e-05
3.49883e-05
5.0813e-05
4.36986e-05
3.51244e-05
4.17308e-05
5.06889e-05
4.4409e-05
3.49829e-05
4.63317e-05
2.08878e-05
2.04935e-05
4.73702e-05
4.63301e-05
2.08811e-05
2.04929e-05
4.73677e-05
5.09479e-05
4.18504e-05
4.59177e-05
3.48797e-05
4.48695e-05
3.48993e-05
5.19256e-05
5.09456e-05
4.18209e-05
4.59009e-05
3.48779e-05
4.48583e-05
3.48968e-05
5.19222e-05
2.93057e-05
2.88007e-05
4.66206e-05
2.97009e-05
2.9264e-05
1.29648e-05
1.32317e-05
1.3807e-05
1.36371e-05
4.66304e-05
3.0385e-05
2.99999e-05
2.99906e-05
2.95992e-05
1.35694e-05
1.33895e-05
5.07313e-05
4.32968e-05
3.60527e-05
4.2155e-05
5.05829e-05
4.397e-05
3.58341e-05
4.48881e-05
1.90974e-05
4.42089e-05
1.96352e-05
5.07175e-05
3.60595e-05
4.29592e-05
4.24612e-05
5.05514e-05
3.58355e-05
4.37419e-05
4.54432e-05
2.04285e-05
2.00625e-05
4.63786e-05
5.08533e-05
4.22322e-05
4.54442e-05
3.56744e-05
4.44953e-05
3.57114e-05
5.18111e-05
4.54087e-05
2.0361e-05
1.99567e-05
4.63617e-05
5.08393e-05
4.24631e-05
3.56758e-05
4.5328e-05
3.57123e-05
4.43094e-05
5.18049e-05
4.49326e-05
1.93626e-05
4.4296e-05
1.97968e-05
5.06999e-05
3.60763e-05
4.28519e-05
4.23792e-05
5.05351e-05
3.58291e-05
4.36953e-05
4.48734e-05
1.90434e-05
4.41915e-05
1.96101e-05
5.08414e-05
4.21921e-05
4.54509e-05
3.56706e-05
4.45092e-05
3.57137e-05
5.18072e-05
4.54406e-05
2.04372e-05
2.00826e-05
4.63787e-05
5.08215e-05
4.23959e-05
3.56653e-05
4.53184e-05
3.57009e-05
4.42797e-05
5.1796e-05
4.5397e-05
2.0358e-05
1.9942e-05
4.63543e-05
2.86768e-05
2.86628e-05
4.68361e-05
2.91442e-05
2.93376e-05
1.28417e-05
1.3241e-05
1.35531e-05
1.33724e-05
4.68063e-05
2.99075e-05
3.02641e-05
2.94883e-05
2.97238e-05
1.37003e-05
1.34358e-05
5.07428e-05
3.64994e-05
4.31267e-05
4.20173e-05
5.07551e-05
3.52995e-05
4.41069e-05
4.55812e-05
1.93223e-05
4.47238e-05
1.99341e-05
4.55669e-05
1.91978e-05
4.46597e-05
1.98902e-05
5.09189e-05
4.20078e-05
3.49412e-05
4.58126e-05
3.50396e-05
4.46578e-05
5.18882e-05
5.09113e-05
4.19701e-05
3.49258e-05
4.58023e-05
3.49859e-05
4.46257e-05
5.18869e-05
4.60918e-05
2.07449e-05
2.02581e-05
4.72404e-05
4.60826e-05
2.07345e-05
2.02295e-05
4.72378e-05
1.29435e-05
1.32089e-05
1.27637e-05
1.32105e-05
4.67489e-05
2.996e-05
3.02044e-05
2.9525e-05
2.96493e-05
1.35593e-05
1.33714e-05
1.36891e-05
1.34156e-05
1.38994e-05
1.39427e-05
1.36536e-05
1.36978e-05
3.06668e-05
3.01875e-05
4.77e-05
3.08091e-05
3.03232e-05
1.38926e-05
1.39589e-05
1.36539e-05
1.37242e-05
4.77634e-05
3.07983e-05
3.03105e-05
3.08849e-05
3.0417e-05
4.85799e-05
2.10677e-05