/*--------------------------------*- C++ -*----------------------------------*\
| =========                 |                                                 |
| \\      /  F ield         | OpenFOAM: The Open Source CFD Toolbox           |
|  \\    /   O peration     | Version:  2206                                  |
|   \\  /    A nd           | Website:  www.openfoam.com                      |
|    \\/     M anipulation  |                                                 |
\*---------------------------------------------------------------------------*/
FoamFile
{
    version     2.0;
    format      ascii;
    arch        "LSB;label=32;scalar=64";
    class       volScalarField;
    location    "0.5";
    object      omega;
}
// * * * * * * * * * * * * * * * * * * * * * * * * * * * * * * * * * * * * * //

dimensions      [0 0 -1 0 0 0 0];

internalField   nonuniform List<scalar> 
66616
(
2861.84
458.736
1089.54
484.448
1908.8
264.211
1477.33
315.993
551.074
93.0512
1175.76
95.672
712.857
53.4369
893.556
220.109
79.3419
39.861
632.477
344.096
23.0474
36.5138
104.234
101.218
21.8117
37.1481
38.275
50.531
21.7232
37.4611
36.8053
49.2021
21.5749
37.1473
36.3055
48.445
21.4377
36.8171
35.9575
47.9361
21.1773
36.3105
35.4286
47.3813
20.693
35.4515
34.5623
46.6903
5199.36
3879.76
478.523
471.389
4360.47
757.831
1972.47
473.605
369.34
210.972
480.59
517.069
1046.24
656.834
351.97
456.511
5432.65
2277.79
3682.62
545.762
1961.17
223.172
429.846
163.385
5583.5
956.936
3261.91
1093.45
510.825
318.761
483.988
1169.69
1017.18
363.803
1492.45
332.681
312.36
1889.96
853.603
1274.18
199.356
920.229
124.567
157.472
102.165
2408.11
1221.24
795.187
1291.03
448.69
116.731
138.615
1064.4
944.317
206.448
1268.65
129.411
106.892
890.6
719.09
859.255
130.522
650.081
94.3848
102.722
83.1881
774.257
1243.03
916.514
559.63
81.17
59.4255
138.508
970.167
819.07
142.959
958.441
271.662
188.624
676.123
112.182
536.498
68.9877
75.7163
43.1769
74.3623
58.3423
890.302
510.197
337.613
429.05
165.212
42.0108
190.532
826.217
524.545
285.605
669.827
352.707
326.328
81.7198
49.1777
53.0666
40.6182
37.4635
36.6517
54.9039
47.8037
146.027
333.955
39.9186
55.8415
175.041
36.7067
73.2699
414.095
69.5789
381.434
153.045
293.197
143.86
48.5563
48.5917
36.6062
36.2066
36.2314
36.1516
47.4473
48.3937
37.6121
44.9048
37.0979
38.6096
54.1891
36.9403
39.3149
64.1548
50.5582
147.96
40.5721
40.8766
51.2564
48.5838
49.1003
36.3377
36.2989
36.6065
36.6001
48.4355
49.0875
37.2375
38.2321
37.4651
37.7503
38.5341
37.4538
37.7798
50.1504
49.417
38.4261
36.9553
36.9738
49.4444
48.9484
48.5631
36.6123
36.6069
36.3933
36.39
48.9453
48.5589
37.4657
37.6539
37.2176
37.2844
37.6689
37.2161
37.2872
49.1862
48.6432
36.812
36.4024
36.3968
48.6437
48.3898
48.0739
36.3202
36.3174
36.0818
36.0751
48.3865
48.0708
37.1484
37.2007
36.8761
36.9076
37.204
36.8746
36.9095
48.4455
48.097
36.3003
36.0371
36.03
48.0957
47.9182
47.5579
36.0062
36.0006
35.6661
35.6641
47.9154
47.5552
36.8176
36.8464
36.4402
36.4648
36.8485
36.4381
36.4646
47.9378
47.5729
35.9518
35.6131
35.6075
47.5729
47.3677
46.8685
35.4786
35.4774
34.9561
34.9538
47.3644
46.871
36.3118
36.3278
35.7684
35.786
36.3364
35.7677
35.786
47.3826
46.8826
35.4226
34.9028
34.9008
46.887
46.6769
34.6134
34.6031
46.6749
35.4513
35.4553
35.4668
46.691
34.5614
625.388
2004.7
1382.99
1104.42
588.294
446.198
2131.86
189.704
546.619
660.745
138.275
31028.9
435.746
3231.29
2068.79
1421.46
3544.59
1867.14
2524.61
1223.36
1081.15
3975.57
14640.3
16987.2
7305.85
429.667
481.261
204.948
2674.41
180.747
859.163
197.815
553.325
1230.46
339.423
384.153
579.346
1034.09
331.583
8004.78
1580.11
5123.33
1119.88
10138.7
1425.56
4644.34
1904.52
4433.95
1972.22
790.65
406.024
1384.86
609.396
523.449
2016.44
793.486
1705.44
647.052
395.202
1678.19
3115.87
2573.11
735.35
134.055
870.473
172.493
582.252
87.5745
801.673
97.9815
347.51
631.993
214.69
192.214
467.35
444.146
134.819
1447.94
899.038
2013.43
1925.47
2331.58
1433.61
2634.87
1603.28
1296.67
509.553
458.085
237.802
392.358
305.671
287.877
990.413
336.956
1635.21
337.516
326.496
698.761
469.31
1357.01
422.047
86.5207
743.321
129.221
726.019
64.8583
570.418
236.841
85.8377
250.955
71.5349
76.4079
161.515
148.182
69.5345
490.136
395.426
1371.33
1129.66
1060.98
1096.48
1434.64
1050.06
1018.25
202.331
199.659
117.69
184.177
221.484
163.886
363.861
279.477
281.613
327.744
347.031
821.516
416.56
736.429
282.56
54.2322
510.145
266.43
174.863
35.2164
318.506
286.382
66.111
122.492
59.4579
48.5392
65.3689
122.418
52.2931
322.63
302.226
725.109
926.914
666.705
798.17
656.761
812.371
636.471
178.803
315.155
266.598
184.054
370.048
152.016
285.336
148.221
289.171
366.285
374.921
162.568
266.419
254.663
279.4
31.231
238.407
278.266
24.5399
24.2932
72.2773
120.009
80.8735
130.667
37.2983
38.3218
74.0524
139.647
33.9427
330.324
368.424
344.94
525.759
325.373
444.275
644.949
455.951
172.684
213.116
446.971
347.833
215.186
450.878
161.204
294.128
158.124
296.087
387.753
393.79
167.611
291.874
166.031
295.555
23.1955
49.6929
62.5326
21.9037
21.9263
23.7068
23.9858
92.4547
150.106
28.4047
36.5698
88.8607
154.512
27.8562
392.209
398.34
100.377
243.413
154.21
66.5747
139.317
125.89
158.232
214.833
230.992
60.8326
211.723
215.16
164.108
298.314
163.509
298.946
401.045
403.018
168.165
299.385
168.076
300.425
21.8203
22.6419
22.7699
21.7405
21.7401
21.9145
21.9277
94.0161
156.848
27.4827
37.3062
93.6638
157.368
27.4835
405.169
406.262
92.1018
29.1375
157.532
37.4806
93.1759
27.3073
156.575
207.907
207.719
49.9793
206.84
205.9
163.761
299.502
163.875
299.658
404.985
405.431
167.238
301.383
167.341
301.573
21.7222
21.838
21.8441
21.6151
21.6134
21.6593
21.6585
92.9084
156.802
27.4856
37.4133
93.0102
156.799
27.4608
407.216
407.296
89.9136
26.5029
154.98
36.6566
90.3872
26.4311
154.629
205.919
204.507
49.0224
205.733
204.261
163.23
299.907
163.263
300.013
406.149
406.313
166.645
301.917
166.525
301.978
21.5736
21.6121
21.6115
21.4841
21.4819
21.51
21.5082
91.9522
156.245
27.3291
37.0392
91.9137
156.401
27.2766
407.785
407.802
88.7698
26.2753
153.985
36.2026
88.9261
26.236
153.984
205.573
204.075
48.3397
205.634
204.104
163.244
300.289
163.042
300.462
406.794
406.857
166.685
302.317
166.31
302.426
21.4361
21.4626
21.4621
21.2817
21.2798
21.3049
21.3041
91.4491
156.092
27.1759
36.6882
91.2796
156.425
27.1099
408.28
408.291
88.2221
26.1389
153.752
35.8546
88.254
26.095
153.954
205.74
204.211
47.8525
205.995
204.427
163.805
300.756
163.432
300.937
407.221
407.216
167.268
302.768
166.732
302.876
21.1755
21.1985
21.1974
20.8865
20.8854
20.9099
20.9072
91.2145
156.409
26.8552
36.1264
90.9625
156.874
26.7328
408.651
408.592
87.922
25.8134
154.006
35.2894
87.8824
25.7204
154.348
206.176
204.647
47.2436
206.526
204.948
166.974
301.043
164.222
302.256
407.278
407.948
302.967
167.428
20.6981
20.7337
20.7159
91.2739
156.986
26.1618
35.5443
90.8933
157.453
26.2883
408.671
90.1693
25.0501
154.674
87.6507
25.4432
206.613
205.177
46.4758
206.892
205.899
3146.71
4800.15
4162.29
4425.88
7391.53
15076.5
7191.38
3083.28
4444.75
12892.9
4834.32
6376.39
1219.87
2756.53
3907.66
1630.11
853.505
497.958
1023.97
1011.61
1619.06
7560.59
3701.79
1926.42
1645.03
2387.81
1018.18
1337.75
1514.21
2518.56
3425.81
2491.73
4187.84
1814.3
1870.81
1055.95
546.208
845.637
1378.06
985.872
1245.96
1242.47
626.417
1785.27
2513.48
2317.3
1528.05
632.079
1056.3
1682.97
1590.8
2620.28
3109.99
4013.95
5063.04
2229.76
3353.94
1266.03
6298.44
605.705
1033.63
116255
10658
15977.8
4962.19
28381.1
23012.9
2106.48
15822.7
5448.97
5762.75
1360.94
27457.6
29136.3
14793.2
245932
26374
42463.2
909.757
1842.31
4368.85
943.047
79168.5
25212.6
389.125
356.273
823.348
162.955
400.525
414.6
737.979
106.385
247.337
164.003
116.283
113.076
728.525
1940.34
1903.38
1276.33
1481.16
1180.38
1292.07
470.901
400.079
1082.85
256.521
936.142
199.895
593.133
469.194
473.26
597.355
204.126
772.01
122.224
594.658
297.7
197.29
128.125
155.737
127.28
122.186
226.118
522.02
374.298
150.479
2646.6
812.219
461.641
1646.95
342.481
2325.28
225.077
627.312
1513.57
4628.31
2417.61
1309.58
647.08
423.7
260.867
1842.16
173.746
2729.56
558.176
1232.97
3333.96
3482.69
957.624
404.56
96154.2
49122.6
10199
106348
780.423
3245.57
6578.79
68814.3
42393
7621.44
77050.7
495.469
277.695
162.43
1632.46
860.284
856.914
520.924
11667.6
174.257
37788.6
4273.44
639.987
323.637
462.303
1410.39
200.954
1705.18
1637.32
1119.71
15439.8
63399.1
4878.54
1000.91
4147.3
2613.77
2451.27
466.742
2158.46
1164.58
3050.38
2046.07
3038.27
5328.51
3139.11
3159.48
3614.73
2716.82
13293
7500.01
4157.33
11458.5
4533.52
2786.01
7081.11
1981.28
2428.3
3372.87
6055.99
3847.71
1683.6
2986.88
2416.43
5772.88
999.224
1638.48
1257.25
1196.56
1667.59
3389.36
2665.3
3476.9
1948.31
2441.78
2349.54
1167
870.85
1220.21
362.165
1319.23
727.785
955.034
1284.73
2039.41
2351.92
915.06
912.595
1048.55
1117.29
720.174
1558.51
2804.75
1638.84
1131.18
2145.08
1715.3
1233.81
1067.88
256.19
793.185
439.739
685.795
660.014
815.405
840.078
1399.76
242.518
666.165
1046.49
1448.53
1532.66
881.298
1029.05
212.882
610.871
624.991
643.789
992.769
921.98
1453.98
3681.14
14113.6
4092.75
5160.48
17629.9
7789.12
2729.09
3965.76
9085.03
13350.5
4547.4
2491.68
1136.68
2774.17
945.244
13229.3
1236.63
1823.75
3634.63
3572.47
5816.19
2809.99
3076.79
4117.78
3525.4
2260.75
6301.87
2320.77
2426.8
3626.7
1742.85
2665.71
2656.14
2702.02
915.42
1594.07
1675.4
1386.18
1652.41
2316.99
852.286
2051.91
1219.47
1131.15
353.167
273.827
1556.9
534.857
475.517
284.16
1070.03
613.439
1684.23
731.098
857.37
524.61
358.372
717.615
278.197
942.886
313.238
468.306
810.185
864.462
1103.3
650.165
345.817
508.479
264.329
798.204
275.265
966.569
331.946
526.433
586.97
790.417
351.987
3132.14
6283.43
1151.85
943.205
1453.36
6621.87
4147.9
1581.79
1989.63
1138.65
1569.3
1902.05
1057.22
1140.48
2496.13
1959.82
4413.8
868.717
933.746
440.398
2936.24
1463.13
1041.35
5613.19
10522.5
6070.64
2947.58
4812.72
1748.16
3203.15
1270.14
4432.65
1537.48
2195.27
2525.28
2245.82
2061.82
2975.83
4158.29
470.543
1430.28
1118.57
1765.01
1227
2802.68
4768.62
2755.17
2409.52
3191.81
4461.47
1242.88
1307.55
2766.57
1784.95
1032.15
1094.88
801.185
399.033
608.561
566.947
1197.48
644.369
552.239
941.568
899.441
906.164
2039.93
2180.91
2888.41
644.347
1558.24
2375.97
830.135
1624.85
884.344
2171.75
2281.83
506.177
512.905
717.062
1883.02
537.048
1641.42
587.703
537.885
980.355
665.09
435.987
621.301
1578.29
787.523
927.737
1097.99
1556.73
629.343
524.549
719.707
336.836
150.005
709.285
334.585
283.986
491.9
807.664
1537.09
474.829
513.596
273.421
399.025
508.693
538.077
907.153
1211.73
432.905
1627.35
520.167
319.869
493.025
129.78
177.368
232.377
280.371
245.679
330.736
422.289
574.884
118.315
250.964
351.963
784.653
587.594
351.576
377.256
115.849
195.464
228.368
230.951
329.897
373.704
559.748
1927.13
2949.37
2104.38
1679.17
2337.9
1410.47
1812.6
1617.95
1576.41
2393.55
1262.59
1980.66
1648.16
1461.55
1262.23
2165.97
1615.65
914.434
1643.92
453.527
594.613
1429.25
1792.19
1123.06
770.231
1316.1
1240.9
1510.99
1871.5
1584.66
651.968
1190.19
1042.38
1994.75
1292.02
1422.54
588.282
1466.29
961.227
1846.27
361.059
818.668
550.397
611.582
222.047
223.333
732.761
405.13
309.833
147.334
503.923
267.303
542.079
311.147
406.933
269.218
135.264
327.709
85.0051
379.992
96.4115
207.881
365.021
448.494
590.805
250.649
198.249
307.061
73.4947
273.974
95.0336
464.719
146.351
271.903
262.59
383.04
183.509
1428.73
1714.35
945.321
725.717
801.443
2268.84
1187.21
630.48
814.066
982.222
386.742
863.012
700.336
786.594
1108.81
1083.67
1909.85
832.043
815.462
166.827
2510.9
539.821
528.439
1873.37
2458.81
2880.19
1193.83
1408.5
1087.06
2475.14
822.574
1870.52
1359.87
1214.94
1105.29
1358.58
1246.65
1492.37
1592.76
142.778
465.289
190.996
467.166
408.666
1056.03
1467.91
955.44
1125.05
783.652
964.906
305.012
635.951
426.705
524.53
427.547
823.171
569.356
224.484
234.062
200.024
372.183
243.683
334.573
396.259
321.958
421.138
2227.42
2247.08
511.565
440.704
2011.42
567.511
973.334
1677.78
508.812
401.244
2099.26
369.782
401.235
934.163
504.604
406.159
1515.79
400.201
209.548
241.231
338.22
223.511
447.495
1004.36
421.904
705.102
264.302
1125.54
457.865
283.578
144.595
256.214
136.51
230.596
132.453
282.178
305.031
413.785
1603.34
310.955
221.497
227.224
218.462
223.361
533.201
669.356
772.92
447.008
1215.87
476.587
536.577
341.782
125.883
128.035
205.236
129.635
273.949
362.558
178.945
200.237
100.645
179.075
186.759
340.827
322.555
324.986
316.775
94.2057
183.881
178.425
175.411
182.437
315.275
314.222
1604.41
788.778
1264.46
895.608
1892.68
624.168
1258.98
547.485
533.486
1042.9
327.603
1075.94
1375.21
435.694
1121.74
1813
1369.5
269.73
623.649
435.129
420.396
677.622
1383.71
926.853
752.805
1184.19
595.95
1238.18
1116.85
507.336
293.506
329.486
578.174
911.314
728.873
1238.24
283.496
1338.22
276.923
697.018
140.723
344.164
203.36
269.621
80.3456
71.3271
168.135
88.923
115.23
79.6304
113.545
135.103
239.329
161.558
222.736
74.6356
66.507
125.718
66.0172
135.57
69.2275
64.8181
128.566
254.361
259.49
122.865
73.8229
111.406
109.241
120.339
95.978
111.789
68.4246
125.346
224.855
215.837
122.006
302.349
929.74
893.003
245.282
761.862
1087.03
780.684
345.619
397.277
795.598
228.307
498.077
243.284
736.581
493.234
683.898
919.901
489.277
172.197
191.833
970.918
589.997
202.137
869.729
935.692
751.621
725.042
429.762
290.781
369.49
337.609
1371.55
1010.38
978.06
741.72
1002.91
1041.94
629.683
656.71
243.762
659.417
273.534
666.579
225.141
436.911
798.018
498.184
726.017
373.748
369.141
402.303
356.648
306.354
332.144
327.057
315.699
335.403
142.383
179.746
286.327
179.471
240.779
316.132
316.214
396.955
353.211
327.091
307.906
348.679
298.95
350.817
393.106
421.229
205.2
236.704
350.315
324.338
358.222
313.019
290.601
194.555
198.757
194.347
209.38
152.237
229.974
205.539
246.727
149.761
617.447
287.096
281.568
500.112
216.173
134.647
106.481
122.689
114.795
54.743
311.653
124.251
62.3562
152.411
284.024
280.103
147.966
148.096
263.823
250.446
147.284
102.153
135.168
141.469
42.7656
168.004
67.5227
74.8021
85.1348
47.1719
132.219
34.1683
125.167
42.0305
74.1658
184.355
176.781
67.8759
188.932
178.127
315.141
329.842
363.172
351.097
64.3252
187.95
185.156
187.988
179.043
352.832
334.448
1068.85
735.458
1056.22
845.125
1096.37
315.899
921.528
763.743
280.981
639.695
273.546
901.422
1036.96
289.154
457.416
729.982
901.282
307.478
840.134
260.858
260.94
400.85
1026.85
649.722
150.972
783.509
225.49
861.321
764.019
767.211
258.962
272.072
362.803
926.949
442.794
705.85
224.27
814.195
308.107
695.601
128.715
252.092
122.318
256.929
71.5307
114.778
128.814
186.151
69.9229
113.369
138.484
127.077
224.87
121.033
244.045
67.4829
44.8238
129.277
41.3995
122.622
46.2194
72.8069
130.211
264.617
257.806
140.399
72.8779
192.598
84.336
150.298
102.608
142.982
75.4926
128.508
263.857
248.093
139.188
229.321
441.692
817.695
217.635
375.541
454.345
355.398
317.73
299.588
717.145
196.289
262.624
215.465
352.669
293.116
333.057
489.693
601.377
299.015
301.226
442.03
529.068
343.159
428.593
452.674
386.333
378.95
347.637
423.774
305.494
475.421
750.27
711.311
598.125
441.273
693.443
632.089
724.983
543.155
324.031
479.607
393.301
498.517
352.409
640.602
437.404
308.183
368.834
357.498
367.272
493.665
481.938
372.599
310.282
305.746
424.025
496.03
291.286
210.065
426.863
189.882
387.934
302.015
300.32
542.577
512.739
355.967
370.457
369.639
388.247
195.96
202.336
58.6542
199.121
206.942
384.919
375.018
398.811
392.611
53.3519
201.45
207.236
199.784
207.247
151.696
267.346
147.668
277.887
77.2623
141.445
33.1655
43.5107
74.4403
144.293
28.9514
77.3283
133.284
30.3832
38.7735
74.0488
139.437
28.1702
153.018
293.171
290.433
157.202
152.712
288.136
280.869
157.019
78.1744
39.3343
148.768
26.0704
145.197
26.9523
82.4757
78.1161
37.4776
146.359
26.1752
140.844
26.8585
82.4217
188.138
187.228
50.6584
191.756
194.329
358.543
374.007
385.052
377.717
49.2141
197.607
201.341
193.202
196.214
389.632
378.952
113.051
145.229
472.427
72.4749
442.283
149.553
207.21
168.421
258.383
266.521
277.671
156.745
594.684
191.103
184.334
470.938
418.855
148.225
162.416
289.891
282.948
165.826
98.4526
47.8129
154.161
40.5858
150.575
82.2771
92.0209
162.371
296.682
284.866
165.211
119.655
90.4474
75.6556
153.773
200.296
147.91
91.6279
152.322
266.432
142.576
273.66
80.9183
69.4587
151.765
141.289
76.0835
57.1431
153.328
152.172
269.566
141.71
285.896
81.9157
37.294
148.826
29.4753
141.379
31.3069
88.2799
154.38
284.295
276.446
161.587
81.9031
104.772
37.755
156.753
46.2926
153.814
87.9566
154.457
300.889
291.358
161.989
191.69
235.479
143.831
196.592
200.645
296.403
354.083
389.372
377.652
97.1247
203.763
206.278
198.936
200.912
388.375
368.857
472.779
466.522
416.097
399.507
614.087
438.18
458.938
234.764
287.707
313.868
272.069
328.141
496.347
366.141
454.25
299.771
232.824
352.412
153.916
402.914
160.838
171.33
428.851
390.075
367.934
251.982
412.832
447.612
227.641
219.763
278.626
273.063
178.413
300.603
312.055
413.336
202.532
306.766
330.336
538.15
443.478
305.193
215.093
248.404
214.013
398.358
373.059
342.293
398.068
406.555
388.059
394.478
400.501
402.78
201.831
207.023
48.2381
202.875
206.753
400.044
396.495
404.967
403.685
48.1839
203.609
206.457
203.077
206.618
161.124
290.151
157.963
294.292
86.6499
149.528
25.7796
36.2357
83.2633
152.24
25.7535
86.583
147.589
25.8772
36.0346
83.1671
151.399
25.8402
161.719
297.966
296.759
163.371
161.653
297.414
295.423
163.346
87.0546
36.1902
154.079
25.9311
152.633
25.8116
89.0075
86.989
36.0711
153.883
25.9467
152.033
25.8679
88.9745
198.762
202.554
47.6619
201.498
205.029
392.996
398.997
399.761
395.899
47.7122
203.298
205.99
202.201
205.392
403.844
401.052
93.2833
154.372
30.2267
37.0678
91.8218
156.28
28.0493
167.602
298.81
165.679
301.737
92.9741
37.8723
154.835
40.9147
91.1213
29.7095
157.932
167.591
298.77
296.73
168.308
93.1378
37.0373
157.292
27.5051
156.313
27.6
94.0013
167.612
302.603
302.33
168.377
92.8822
39.3284
27.7563
158.732
28.1185
158.104
93.9306
166.607
287.038
162.818
293.007
92.4036
32.402
157.763
44.9035
88.6447
29.6886
159.459
166.934
302.755
163.24
304.245
92.4621
36.7245
156.852
27.5064
155.007
27.6052
93.8756
166.911
297.991
294.826
168.181
92.4261
41.0007
27.9529
159.169
28.4801
159.326
93.8709
167.207
303.477
304.248
168.361
205.188
207.762
55.1007
207.814
209.669
393.136
403.736
404.151
400.654
52.5033
207.712
207.654
207.961
209.404
407.658
406.006
102.296
232.191
204.784
74.7556
168.038
108.571
165.363
170.128
282.927
171.678
294.372
171.844
305.849
183.508
303.59
97.0138
47.5544
36.022
158.174
60.0966
158.465
94.1314
97.9657
48.887
33.6048
159.238
51.9052
162.613
94.2904
170.03
299.969
296.88
168.594
170.902
302.069
303.326
168.768
381.417
396.647
406.811
412.89
55.4775
208.479
208.695
210.722
212.958
404.297
399.976
409.792
412.694
401.213
403.029
405.531
406.166
203.661
206.321
48.9885
203.83
206.151
404.57
403.651
406.852
406.589
48.9589
203.842
205.905
203.83
206.029
164.105
297.936
163.489
298.794
89.9206
154.147
26.0451
36.4663
89.0999
154.662
26.143
89.9132
154.025
26.0501
36.4446
89.074
154.654
26.1435
164.041
299.4
299.096
164.075
164.039
299.364
298.992
164.077
89.8603
36.5604
154.545
26.275
154.518
26.2204
89.9382
89.8562
36.5488
154.595
26.273
154.54
26.2194
89.9387
203.494
205.967
48.9273
203.887
205.947
404.742
405.839
404.633
403.677
48.9166
203.98
205.737
203.91
205.843
406.717
406.326
93.954
157.172
27.489
37.3541
93.7502
157.468
27.4889
168.213
302.647
168.143
302.288
93.9438
27.6415
158.387
37.998
93.6928
27.5904
158.157
167.81
301.186
300.708
167.716
93.5104
37.4333
157.178
27.4902
157.151
27.4907
93.4848
167.851
302.022
302.293
167.732
93.4962
37.8702
27.5474
157.482
27.5687
157.747
93.4749
168.197
298.878
168.038
300.254
94.0084
27.7273
158.679
38.1339
93.6602
27.6238
158.281
168.264
303.223
168.182
302.528
93.5486
37.4089
157.129
27.4887
157.083
27.4876
93.5046
167.842
301.153
300.596
167.734
93.5417
37.9334
27.554
157.479
27.583
157.805
93.4996
167.899
302.073
302.446
167.759
207.377
206.993
49.8502
206.771
205.568
407.739
406.99
406.941
406.653
49.5954
206.164
204.526
206.505
205.176
406.367
406.916
92.1197
28.5656
158.227
37.566
93.2565
27.186
156.818
166.395
300.35
167.705
300.359
166.421
301.733
167.808
300.712
91.5047
37.1529
26.5978
155.379
26.7847
156.022
90.8711
91.5139
37.1971
26.5917
155.476
26.761
156.197
90.875
165.753
300.084
300.331
165.029
165.769
300.131
300.531
165.035
405.276
406.244
409.248
407.387
49.6698
206.084
204.73
206.514
205.453
406.861
406.611
406.477
407.19
404.911
405.394
407.186
407.267
203.82
205.833
48.8545
203.819
205.787
405.884
405.635
407.55
407.539
48.6729
203.82
205.768
203.796
205.752
163.764
299.475
163.877
299.648
89.5238
154.333
26.304
36.5758
89.6935
154.275
26.3084
89.5253
154.387
26.3019
36.5675
89.6947
154.329
26.3055
163.548
299.839
299.739
163.439
163.55
299.838
299.731
163.441
89.2337
36.4933
154.041
26.2585
154.062
26.2949
89.0559
89.2356
36.4922
154.098
26.2559
154.122
26.292
89.0575
203.958
205.675
48.8491
203.992
205.683
407.06
407.203
405.937
405.67
48.6709
203.998
205.69
204.001
205.686
407.497
407.481
92.9035
156.848
27.4849
37.4149
92.998
156.844
27.4576
167.242
302.071
167.354
301.931
92.8956
27.5299
157.106
37.5219
92.9877
27.4878
156.951
166.874
301.796
301.717
166.864
92.4122
37.3342
156.592
27.364
156.521
27.4215
92.3624
166.877
301.945
302.009
166.863
92.404
37.4186
27.3903
156.616
27.45
156.609
92.3559
167.245
301.354
167.359
301.557
92.9021
27.5348
157.088
37.5293
93.0031
27.4904
156.905
167.251
302.101
167.378
301.928
92.4132
37.3335
156.549
27.3642
156.477
27.4242
92.36
166.88
301.784
301.703
166.864
92.4062
37.424
27.3905
156.559
27.4519
156.561
92.3542
166.884
301.93
302.001
166.863
206.023
204.317
49.017
205.864
204.09
406.426
406.187
407.563
407.532
48.7916
205.757
203.946
205.8
204.014
406.234
406.305
89.916
26.5009
155.058
36.6561
90.3903
26.4286
154.693
164.159
300.084
164.571
299.964
164.161
300.105
164.575
299.963
89.5206
36.5308
26.3175
154.196
26.3724
154.362
89.226
89.5227
36.5279
26.3154
154.252
26.371
154.42
89.2275
163.836
299.969
299.995
163.604
163.837
299.97
299.992
163.605
407.13
407.214
406.512
406.243
48.7944
205.608
204.099
205.665
204.172
407.493
407.451
406.285
406.364
406.085
406.249
407.792
407.802
203.802
205.74
48.3009
203.876
205.83
406.56
406.429
408.063
408.04
48.1465
204.011
205.983
203.859
205.796
163.234
299.91
163.265
300.02
88.6859
153.845
26.2306
36.2346
88.7966
153.901
26.2006
88.6878
153.903
26.2285
36.2296
88.7986
153.96
26.1984
163.078
300.22
300.081
163.165
163.08
300.228
300.089
163.169
88.4663
36.1713
153.858
26.1525
153.722
26.1813
88.4073
88.4686
36.1671
153.919
26.1502
153.782
26.1794
88.4094
203.973
205.665
48.2974
204.041
205.69
407.728
407.742
406.616
406.496
48.1436
204.175
205.813
204.023
205.68
408.006
407.981
91.9575
156.287
27.3291
37.0406
91.9178
156.446
27.2777
166.642
302.045
166.523
302.044
91.9512
27.3541
156.303
37.082
91.9111
27.3016
156.44
166.335
302.187
302.102
166.577
91.5595
36.9867
156.399
27.206
156.159
27.2542
91.6623
166.332
302.219
302.161
166.574
91.5531
37.0221
27.2293
156.379
27.2779
156.149
91.656
166.644
301.905
166.525
301.965
91.9464
27.354
156.246
37.0836
91.9075
27.3007
156.379
166.641
302.028
166.523
302.026
91.5539
36.9855
156.349
27.2043
156.114
27.2532
91.6561
166.334
302.172
302.09
166.575
91.5479
37.025
27.2279
156.317
27.2769
156.089
91.65
166.33
302.2
302.145
166.571
205.717
203.926
48.341
205.792
203.961
406.375
406.402
408.051
408.029
48.1762
205.937
204.084
205.754
203.945
406.631
406.56
88.7713
26.2741
154.039
36.1958
88.9277
26.234
154.038
163.304
300.022
163.39
300.066
163.305
300.021
163.391
300.07
88.5336
36.1296
26.1778
153.915
26.2095
153.8
88.4559
88.5353
36.1239
26.1757
153.969
26.2087
153.853
88.4575
163.142
300.243
300.13
163.208
163.143
300.247
300.134
163.209
407.718
407.748
406.43
406.451
48.1747
205.777
204.224
205.606
204.091
408.001
407.975
406.677
406.611
406.727
406.827
408.296
408.307
203.99
205.935
47.835
204.228
206.207
407.041
406.981
408.495
408.518
47.666
204.489
206.471
204.194
206.135
163.247
300.299
163.044
300.468
88.1875
153.698
26.1176
35.9081
88.212
153.91
26.0736
88.1896
153.759
26.1156
35.9009
88.2144
153.971
26.0712
163.17
300.711
300.527
163.481
163.172
300.715
300.537
163.485
88.0108
35.7867
154.068
25.9301
153.782
25.9974
88.0161
88.0131
35.7871
154.131
25.9276
153.847
25.9953
88.018
204.151
205.814
47.8308
204.413
206.128
408.241
408.279
407.079
407.01
47.6642
204.666
206.404
204.41
206.079
408.461
408.512
91.4558
156.141
27.1774
36.6902
91.2861
156.475
27.112
166.682
302.347
166.307
302.445
91.4497
27.2008
156.12
36.715
91.2798
27.1352
156.451
166.456
302.666
302.552
166.933
91.0992
36.6107
156.655
26.9601
156.244
27.0636
91.3149
166.453
302.682
302.571
166.931
91.0932
36.6344
26.9824
156.63
27.0866
156.22
91.309
166.683
302.306
166.308
302.41
91.4434
27.1994
156.058
36.7165
91.2736
27.1333
156.388
166.68
302.331
166.305
302.426
91.0923
36.6076
156.612
26.9577
156.196
27.0619
91.3088
166.454
302.65
302.543
166.932
91.0868
36.6366
26.9808
156.568
27.085
156.158
91.3032
166.451
302.662
302.556
166.929
205.887
204.063
47.8534
206.157
204.29
406.797
406.872
408.479
408.501
47.6821
206.421
204.545
206.085
204.258
407.072
407.026
88.2239
26.1384
153.805
35.848
88.2557
26.0926
154.007
163.271
300.311
163.079
300.473
163.272
300.316
163.08
300.477
88.0431
35.7338
25.95
154.107
26.0152
153.825
88.0465
88.0449
35.728
25.9475
154.16
26.0153
153.878
88.048
163.195
300.717
300.537
163.507
163.196
300.719
300.544
163.508
408.233
408.242
406.845
406.916
47.6806
206.259
204.682
205.941
204.407
408.429
408.458
407.114
407.074
407.164
407.174
408.666
408.607
204.441
206.373
47.2263
204.752
206.729
407.225
407.249
408.651
408.721
47.0263
204.976
206.957
204.696
206.613
163.809
300.767
163.434
300.933
87.892
153.968
25.7973
35.3447
87.8526
154.313
25.7009
87.8939
154.031
25.7954
35.3424
87.8546
154.374
25.6986
163.768
301.102
300.924
164.087
163.769
301.107
300.943
164.092
87.7431
35.098
154.611
25.3913
154.235
25.5179
87.7975
87.7452
35.0956
154.671
25.3891
154.297
25.516
87.7999
204.621
206.302
47.2259
204.916
206.606
408.635
408.551
407.255
407.307
47.0245
205.127
206.808
204.866
206.487
408.586
408.684
91.22
156.449
26.8555
36.1281
90.9687
156.919
26.7347
167.266
302.783
166.73
302.89
91.2144
26.8774
156.424
36.1512
90.9629
26.7554
156.894
167.073
303.072
302.922
167.633
90.8875
35.9079
157.231
26.4305
156.727
26.5459
91.2041
167.071
303.086
302.937
167.631
90.882
35.9189
26.449
157.208
26.5688
156.702
91.1985
167.266
302.763
166.733
302.856
91.2091
26.8774
156.364
36.1484
90.957
26.7554
156.832
167.263
302.773
166.73
302.866
90.8818
35.9077
157.181
26.4295
156.685
26.5439
91.1994
167.074
303.024
302.928
167.63
90.8765
35.9268
26.4506
157.145
26.5658
156.643
91.1937
167.071
303.036
302.937
167.627
206.323
204.5
47.2423
206.679
204.807
407.195
407.198
408.635
408.708
47.0415
206.908
205.026
206.564
204.752
407.248
407.274
87.9234
25.8139
154.059
35.2852
87.8838
25.7173
154.401
163.831
300.76
163.457
300.94
163.832
300.77
163.458
300.934
87.7735
35.0483
25.4113
154.642
25.5317
154.271
87.8309
87.7748
35.0418
25.4073
154.694
25.5332
154.324
87.8322
163.796
301.104
300.927
164.11
163.796
301.109
300.941
164.111
408.611
408.54
407.246
407.238
47.0406
206.753
205.162
206.417
204.902
408.578
408.672
407.283
407.329
407.219
408.686
204.981
206.805
166.977
301.055
164.224
302.234
90.1356
154.643
25.0218
34.6407
87.6177
156.084
25.3883
90.1394
154.705
25.0248
34.6458
87.6191
156.138
25.3806
205.14
206.667
46.462
205.867
206.94
408.649
408.611
157.031
26.1632
90.8982
302.982
167.426
26.1868
157.009
90.8928
167.962
302.979
167.427
303.112
91.2683
26.1825
156.951
35.5682
90.888
26.3027
157.425
167.959
302.989
167.425
303.126
91.43
25.4711
168.135
91.4242
34.7311
25.4886
157.608
168.132
303.308
206.756
205.032
407.243
90.1726
25.038
154.727
34.5817
87.6508
25.4301
156.15
166.991
301.046
164.252
166.995
301.055
164.253
302.234
408.64
408.603
407.303
407.978
46.5324
207.043
206.633
408.731
408.613
1601.61
3493.8
1583.07
8413.27
5290.36
239547
7840.58
7176.6
1606.22
1312.19
4569.25
11254.1
332949
1384.31
3190.36
1159.84
3183.58
84909.8
1142.67
56230.4
1047.51
2154.6
4833.5
3001.91
921.266
819.416
1197.55
1878.95
1469.54
1483.61
1209.89
1783.42
1513.52
1009.89
1255.25
1329.83
791.452
262.178
442.005
700.828
354.457
465.635
1109.47
1331.05
850.465
197.467
243.51
266.5
371.321
1534.2
812.656
265.149
849.931
741.072
194.195
201.91
350.084
3952.52
971.07
1166.21
16569.9
14979.1
4190.81
813.109
569.112
831.31
8122.13
1527.25
1504.8
16003.6
934.515
2115.77
2056.4
1499.34
1516.34
1836.64
1566.73
2007.79
1869.54
3170.36
3360.65
2886.87
4766.15
2688.11
2317.75
1750.79
1832.96
2525.31
2790.04
1636.21
2232.47
2520.76
2211.26
2655.36
2421.55
2250.12
1167.27
1144.92
6361.59
5214.22
5306.61
5377.27
7661.93
5802.81
5736.15
10728.5
16830.8
12208.3
14324.7
12877.8
7971.93
9067.91
19188.5
11434
9467.36
12187.8
7984.62
8438.35
7167.62
9400.71
9477.95
7195.98
4165.29
2224.38
283.868
449.24
340.584
522.971
363.205
269.437
846.864
1541.31
2172.08
1709.02
1198.25
1527
1797.18
304.679
444.963
566.88
732.725
336.462
457.032
556.836
460.878
1525.38
544.117
667.429
1206
506.227
592.542
916.159
1629.56
1216.94
1410.11
1112.72
526.216
283.688
392.141
618.591
470.414
468.307
429.385
276.975
929.555
572.257
791.404
642.038
826.759
746.007
877.397
1330.05
1535.39
1941.1
1424.77
1346.5
1050.52
668.885
989.876
1110.37
1192.03
893.942
934.075
1258.86
1033.12
1801.01
1139.58
1239.61
474.484
411.063
2065.37
1936.9
1627.55
1751.08
1966.57
1985.84
1986.14
2366.09
2895.38
2171.36
2760.09
2253.36
2206.52
2240.63
2750.19
2646.16
2669.79
2389.24
2197.78
2337.85
1296.51
1195.97
1691.6
2231.54
1391.58
1401.64
221.576
331.369
295.454
326.759
286.85
225.997
275.905
515.493
359.384
472.352
289.932
480.965
337.259
186.77
247.988
302.84
417.919
192.74
238.939
288.118
223.145
329.653
289.139
223.707
330.99
290.068
272.689
314.613
438.813
421.721
449.149
327.123
263.978
178.074
264.498