/*--------------------------------*- C++ -*----------------------------------*\
| =========                 |                                                 |
| \\      /  F ield         | OpenFOAM: The Open Source CFD Toolbox           |
|  \\    /   O peration     | Version:  2206                                  |
|   \\  /    A nd           | Website:  www.openfoam.com                      |
|    \\/     M anipulation  |                                                 |
\*---------------------------------------------------------------------------*/
FoamFile
{
    version     2.0;
    format      ascii;
    arch        "LSB;label=32;scalar=64";
    class       volVectorField;
    location    "0.5";
    object      U;
}
// * * * * * * * * * * * * * * * * * * * * * * * * * * * * * * * * * * * * * //

dimensions      [0 1 -1 0 0 0 0];

internalField   nonuniform List<vector> 
66616
(
(0.497373 -0.333421 0.502059)
(0.0510559 0.151736 -0.196588)
(-0.132664 -0.0212656 -0.0756121)
(-0.0720045 0.0441374 -0.209597)
(0.270304 0.146463 0.431333)
(0.0558853 0.0590064 -0.0439924)
(-0.167682 -0.0316214 0.168196)
(0.0515304 0.0494877 -0.0906148)
(0.0247284 0.0598364 0.205698)
(0.0128614 0.0241513 0.000113547)
(-0.0114322 -0.0673251 0.495466)
(-0.00372607 0.0423393 0.0015614)
(0.0436644 -0.0202068 0.230233)
(0.0284236 0.0107441 0.0403371)
(0.00212541 -0.076041 0.514264)
(0.00773081 0.0630176 0.0568898)
(0.0247423 -0.0315832 0.124277)
(0.0151249 -0.00749921 0.0886802)
(-0.00326057 -0.0129534 0.363964)
(0.0474065 0.034816 0.162519)
(0.00233798 -0.0078171 0.131533)
(0.00337374 -0.00775735 0.120865)
(-0.0210389 -0.00440955 0.131932)
(0.0247818 -0.0215404 0.138852)
(0.000169615 -0.00199784 0.136169)
(0.00033321 -0.00192211 0.130771)
(-0.00184503 -0.00178096 0.134901)
(0.00150138 -0.00270462 0.130872)
(2.74527e-05 -0.000378829 0.13702)
(6.33541e-05 -0.000362399 0.132157)
(-0.000100835 -0.000226751 0.132988)
(1.21825e-05 -0.000455533 0.128981)
(-1.51775e-05 -8.28665e-05 0.137043)
(4.26783e-05 -8.15894e-05 0.132253)
(-3.56731e-05 6.04419e-06 0.132559)
(-0.000122058 -0.000192835 0.128649)
(-2.63762e-05 -3.66424e-05 0.136951)
(3.57468e-05 -3.75641e-05 0.132253)
(-3.03514e-05 3.43845e-05 0.132458)
(-0.000153721 -0.000165974 0.12862)
(-3.53842e-05 -3.53415e-05 0.136851)
(3.66249e-05 -3.08882e-05 0.132317)
(-3.12653e-05 4.13054e-05 0.132468)
(-0.000166873 -0.000170372 0.128708)
(-4.06866e-05 -3.62953e-05 0.136738)
(3.27976e-05 -2.42912e-05 0.132459)
(-3.02006e-05 3.73244e-05 0.132542)
(-0.00018029 -0.000183987 0.128849)
(0.821021 -0.711144 0.402153)
(0.763511 -0.438065 0.182699)
(0.0635613 0.215536 -0.235132)
(0.0776273 0.151153 -0.249687)
(0.632471 -0.799155 0.582536)
(-0.161464 -0.0351765 0.082828)
(0.199115 -0.303362 0.339171)
(0.0211611 0.22004 -0.294606)
(-0.216763 -0.0646683 -0.264446)
(-0.096325 0.0579361 -0.265365)
(-0.0156419 0.139957 -0.228671)
(-0.104659 0.0343953 -0.231519)
(-0.143645 -0.0395875 -0.160287)
(-0.17463 0.0418729 -0.111406)
(-0.0682681 0.000470954 -0.276972)
(-0.0377176 0.0603858 -0.286651)
(0.772455 -0.720214 0.547004)
(0.306859 0.0140363 0.577393)
(0.883373 -0.254426 0.330904)
(0.162108 0.147172 -0.223144)
(0.388627 0.0307233 0.42088)
(0.129576 0.081161 -0.0837527)
(0.128571 0.124888 -0.201528)
(0.0807827 0.0945118 -0.123977)
(0.596011 -0.966442 1.00797)
(-0.0840084 -0.481529 -0.0875916)
(0.401633 -0.067841 0.904028)
(-0.0813847 0.0188376 -0.0837906)
(-0.0662825 0.0536055 -0.207633)
(0.0610468 0.0997333 -0.054578)
(-0.0188645 0.00104098 -0.0357823)
(-0.185796 -0.0985362 -0.165549)
(-0.00160005 -0.0636829 -0.210109)
(-0.0989316 0.0236274 -0.278266)
(-0.225149 0.00345237 0.0324408)
(0.0461453 -0.0310316 -0.161998)
(-0.0183822 -0.0235346 -0.147228)
(0.251936 0.0326546 0.495766)
(0.0149501 0.028907 0.371903)
(0.231427 0.0412095 0.377366)
(0.0989407 0.0669545 -0.0460181)
(0.00673948 0.109753 0.380529)
(0.0364523 0.0259626 0.0124673)
(0.104601 0.0400661 -0.0849199)
(0.019431 0.032323 -0.00965161)
(0.283453 0.0763153 0.734172)
(-0.0487735 0.0733473 0.00967236)
(0.0402999 0.0268131 0.326126)
(-0.00156493 0.0297467 0.272924)
(-0.0127383 0.000100399 0.0174497)
(0.0102935 0.0262085 -0.010473)
(-0.0138249 0.0289324 0.00508208)
(-0.147592 0.0184515 -0.076413)
(0.0372244 0.0408347 0.0647268)
(0.0407891 -0.008452 -0.112315)
(-0.0409889 -0.0729497 0.450533)
(-0.0033933 0.0162486 -0.0023316)
(-0.0189268 0.0215992 -0.0105259)
(0.00389405 0.0362661 0.404896)
(-0.0194975 0.0908884 0.331441)
(-0.0218816 0.102905 0.353579)
(0.0339346 0.0146577 0.0217054)
(0.00707038 -0.0181474 0.253876)
(0.0487735 0.011712 0.0398879)
(0.0360453 0.0116233 0.00108439)
(0.0257934 0.0224352 0.0269586)
(0.0283358 -0.00200054 0.303632)
(0.0139155 0.00607376 0.324379)
(0.0275463 -0.0309906 0.438198)
(-0.0168474 -0.00155264 0.0559845)
(-0.00677954 0.0336378 0.00823478)
(0.0276568 0.015629 0.0275167)
(0.0213885 0.0466745 0.0393205)
(0.022039 0.0520396 0.107059)
(-0.00471115 -0.0259288 0.239195)
(-0.00730586 0.0192341 0.019694)
(0.0197945 -0.0632938 0.514456)
(0.0186795 0.0215548 0.0983904)
(-0.00650267 0.0450178 0.0433238)
(-0.0343796 0.0775395 0.286964)
(0.0143748 -0.0339116 0.111784)
(0.0218721 -0.0245294 0.184882)
(0.0430283 0.0100303 0.051629)
(0.0237607 -0.020613 0.106618)
(0.0211757 -0.00445905 0.0846099)
(0.0395588 0.00683187 0.0357687)
(0.0126496 0.00153871 0.0768966)
(0.0149237 -0.0303722 0.441685)
(-0.0489649 -0.0148135 0.0843762)
(-0.000617015 -0.0457473 0.172364)
(0.00993619 0.0413638 0.13396)
(0.0318267 0.0491217 0.0502823)
(0.0193914 -0.00414673 0.0777299)
(0.034318 0.0111245 0.0779896)
(-0.0288337 -0.0319486 0.272361)
(-0.00778194 0.0212433 0.117121)
(0.028051 0.0289746 0.128886)
(0.00779987 -0.037809 0.486637)
(0.0650129 0.042709 0.219099)
(0.0321355 0.0405048 0.153142)
(0.0118929 -0.0315318 0.109787)
(0.00474081 -0.00903772 0.121057)
(0.0172741 -0.019453 0.1093)
(0.0158752 -0.00662091 0.0937868)
(0.00472155 -0.00815157 0.12224)
(0.00515742 -0.00693817 0.11604)
(0.0155018 -0.00592381 0.0831247)
(0.00250779 -0.00520081 0.112375)
(0.00443955 -0.0411133 0.139557)
(0.0123803 0.0460431 0.136451)
(0.00310089 -0.0118744 0.128313)
(0.000580269 0.00916298 0.129634)
(0.0281482 -0.0103049 0.0881857)
(0.00531474 -0.00935633 0.114998)
(0.0168222 -0.0260571 0.120354)
(-0.0255251 0.0286097 0.11315)
(0.00297068 0.00276618 0.121951)
(0.0646303 0.0422244 0.249609)
(-0.0151903 -0.00131542 0.13253)
(0.0377916 -0.0138742 0.192583)
(0.0324559 -0.0256996 0.141354)
(0.00339771 -0.00712752 0.12228)
(0.000560978 -0.00205102 0.126847)
(0.00272895 -0.00596169 0.125097)
(0.00322199 -0.00578976 0.12113)
(0.000548596 -0.00217312 0.130273)
(0.000573292 -0.00227042 0.129447)
(0.00275117 -0.0059062 0.115394)
(0.000177743 -0.00192571 0.125848)
(0.00184536 -0.00779437 0.128799)
(-0.00261999 0.000134292 0.130118)
(0.000305181 -0.00252317 0.131007)
(-0.00147587 -0.00275032 0.133209)
(0.0114934 -0.018863 0.12832)
(0.000614584 -0.00287834 0.129652)
(0.00211959 -0.0044072 0.133533)
(-0.00369059 -0.000506747 0.123106)
(-0.00238293 -0.00203892 0.130382)
(0.0263709 -0.0149659 0.164923)
(-0.00420546 -0.00270759 0.135757)
(0.00302223 -0.00368344 0.138188)
(0.00283422 -0.00315969 0.131342)
(0.000627897 -0.0014088 0.127323)
(-8.56708e-05 -0.000571664 0.128273)
(0.000339288 -0.00149428 0.131111)
(0.000303526 -0.00154831 0.130636)
(6.8862e-05 -0.000471687 0.132216)
(6.95811e-05 -0.00047373 0.132125)
(3.87352e-06 -0.00145559 0.126573)
(0.000174626 -0.000547026 0.128166)
(0.00018292 -0.00171745 0.13152)
(-0.000862431 -0.00190721 0.133235)
(3.37728e-05 -0.000519842 0.132153)
(-0.000169073 -0.000494408 0.132699)
(0.00117959 -0.00260836 0.133342)
(7.99349e-05 -0.000546842 0.132007)
(0.000255329 -0.000552125 0.132654)
(-0.00123444 -0.00204844 0.130315)
(-0.000382024 -0.00012893 0.128971)
(0.00139558 -0.00215617 0.135792)
(-0.000180593 -0.000399286 0.133229)
(0.000222034 -0.000430705 0.133255)
(0.000438138 -0.000186865 0.128945)
(0.000225772 -0.000145311 0.128454)
(-0.000196461 -0.000280697 0.128453)
(3.34312e-05 -0.000321679 0.13235)
(5.30235e-05 -0.000321202 0.132299)
(-1.37623e-05 -0.000118035 0.132453)
(3.84585e-05 -0.000116815 0.132443)
(-0.000139631 -0.000145964 0.128369)
(0.000210274 -0.0002751 0.128438)
(9.98443e-06 -0.000349523 0.132246)
(-0.000111317 -0.0002967 0.132595)
(-2.31222e-05 -0.000111792 0.132227)
(-5.03956e-05 -4.88519e-05 0.132315)
(0.000170526 -0.000324106 0.132554)
(4.42231e-05 -0.00011014 0.132202)
(6.98733e-05 -5.26524e-05 0.132292)
(4.80406e-05 -0.000431043 0.129008)
(-0.000238699 0.000174218 0.128557)
(0.000143397 -0.000243314 0.13299)
(-3.88073e-05 -1.70896e-05 0.132606)
(5.77433e-05 -2.07415e-05 0.132603)
(0.000253494 0.000165709 0.128543)
(0.000162115 0.000101527 0.128579)
(-0.000217358 -0.000232769 0.1285)
(-2.08374e-05 -9.11569e-05 0.132465)
(3.67499e-05 -8.9789e-05 0.132462)
(-2.75874e-05 -5.45739e-05 0.132435)
(3.3119e-05 -5.40008e-05 0.132437)
(-0.000147344 0.000103209 0.128569)
(0.000220024 -0.000231159 0.128498)
(-2.83908e-05 -8.30322e-05 0.132271)
(-4.52418e-05 -1.73024e-05 0.132325)
(-3.08392e-05 -4.07009e-05 0.132165)
(-3.49992e-05 1.68069e-05 0.132178)
(5.87054e-05 -1.95676e-05 0.132309)
(3.56432e-05 -4.00377e-05 0.132158)
(3.95252e-05 1.65893e-05 0.132167)
(0.000137488 -0.000189541 0.128659)
(-0.000222042 0.00021652 0.128507)
(4.93583e-05 3.70095e-06 0.132558)
(-2.94165e-05 3.22029e-05 0.132453)
(3.3966e-05 3.17444e-05 0.132457)
(0.000225498 0.000215267 0.128501)
(0.000159051 0.0001518 0.128617)
(-0.000222912 -0.000227698 0.128612)
(-2.97511e-05 -4.88104e-05 0.132448)
(3.29071e-05 -4.82842e-05 0.132454)
(-3.00169e-05 -4.53651e-05 0.13244)
(3.25742e-05 -4.55e-05 0.132442)
(-0.000154303 0.000152646 0.128619)
(0.000222375 -0.000229183 0.128608)
(-3.22426e-05 -3.8125e-05 0.13226)
(-3.51077e-05 2.36487e-05 0.132266)
(-3.3134e-05 -2.98895e-05 0.132139)
(-3.37304e-05 2.6763e-05 0.132141)
(3.83368e-05 2.30944e-05 0.13226)
(3.47077e-05 -2.92988e-05 0.132136)
(3.49671e-05 2.71561e-05 0.132133)
(0.000157479 -0.000164819 0.128621)
(-0.000222615 0.000225494 0.128605)
(3.36732e-05 3.37595e-05 0.132462)
(-2.8776e-05 4.07788e-05 0.132438)
(2.96309e-05 4.09874e-05 0.132444)
(0.000223417 0.000225919 0.128597)
(0.000166019 0.000168092 0.128708)
(-0.000226967 -0.000227987 0.12882)
(-3.22186e-05 -4.41093e-05 0.13247)
(3.38202e-05 -4.37359e-05 0.132479)
(-3.1131e-05 -4.52787e-05 0.132496)
(3.16126e-05 -4.53671e-05 0.132497)
(-0.000166475 0.000168282 0.128717)
(0.000227664 -0.000229647 0.128804)
(-3.56706e-05 -3.14044e-05 0.13232)
(-3.62768e-05 2.99059e-05 0.13232)
(-3.4834e-05 -2.69831e-05 0.132148)
(-3.54344e-05 2.69268e-05 0.13215)
(3.71258e-05 2.93448e-05 0.132317)
(3.56412e-05 -2.67556e-05 0.132146)
(3.55015e-05 2.78855e-05 0.132141)
(0.00016753 -0.000169344 0.128701)
(-0.000226682 0.000228377 0.128813)
(3.18663e-05 4.07272e-05 0.132474)
(-2.97378e-05 4.41887e-05 0.132491)
(2.9976e-05 4.47597e-05 0.132498)
(0.000227464 0.000229889 0.128792)
(0.000177991 0.000183749 0.128833)
(-3.0296e-05 -3.66273e-05 0.132546)
(3.04899e-05 -3.59714e-05 0.132558)
(-0.000178694 0.000185066 0.128858)
(-3.28208e-05 -2.4476e-05 0.132464)
(-3.37366e-05 2.53734e-05 0.132463)
(3.3574e-05 2.41062e-05 0.132461)
(0.000179492 -0.00018209 0.128826)
(3.02055e-05 3.62103e-05 0.132547)
(-0.131709 0.134505 -0.164985)
(0.250533 0.0573649 0.456026)
(0.0574945 0.208751 -0.168915)
(-0.096017 -0.0971912 0.239003)
(0.030425 0.0348048 -0.355276)
(0.0170207 0.108471 -0.309426)
(-0.0852661 0.0831925 0.147839)
(-0.0023375 0.0677317 -0.314547)
(-0.176401 0.0586455 -0.225403)
(-0.110382 -0.00973752 -0.157724)
(-0.0765864 0.0299989 -0.13522)
(0.169352 -0.0769222 0.630032)
(-0.0621978 -0.00255863 -0.255164)
(-0.0921826 -0.0880286 0.477058)
(-0.0688738 -0.0520396 0.224549)
(0.35261 -0.0118348 0.0600926)
(0.567498 -0.194478 0.159636)
(0.41898 -0.0632362 -0.317663)
(0.482301 -0.0983564 0.413759)
(0.0954551 0.0499104 -0.281384)
(0.160152 0.0727035 -0.10401)
(0.215192 -0.755557 0.56624)
(0.0867221 -1.49108 1.34791)
(0.33725 -2.51801 2.00755)
(-0.0851583 -0.70368 1.4377)
(0.0757494 0.200948 -0.249637)
(-0.354398 0.094686 -0.378739)
(-0.0815104 0.0755305 -0.271813)
(0.426946 0.156531 0.539993)
(0.100269 0.0890421 -0.111763)
(-0.152205 0.146773 -0.197238)
(-0.000967738 0.0293784 -0.150522)
(-0.00458984 0.0532869 -0.12518)
(-0.0188423 0.11394 0.0656792)
(0.00479142 0.134999 -0.240965)
(0.0632927 0.148983 -0.142615)
(0.0302946 0.0549013 -0.225659)
(-0.00376133 0.121022 0.108546)
(0.0179098 0.123778 -0.194902)
(0.107591 -0.353098 0.178622)
(-0.0400285 -0.128039 -0.423683)
(0.517458 -0.312017 1.18547)
(-0.119344 -0.039916 -0.0968083)
(0.581739 -0.0886094 1.57244)
(-0.1526 0.0128168 -0.0470358)
(0.228022 -0.159277 0.65796)
(-0.0586066 -0.152744 0.12279)
(0.107305 0.064297 -0.0386891)
(-0.0932026 0.00499291 0.241163)
(-0.0896486 0.00740266 -0.147113)
(-0.072582 -0.0130032 -0.237087)
(-0.064964 -0.0178181 0.0913999)
(0.0137152 -0.0103158 -0.213119)
(0.085849 0.0122979 0.161159)
(0.190207 0.0414187 0.253375)
(0.17906 -0.00147406 0.177479)
(0.0389103 -0.0106108 0.240323)
(0.0890183 0.029964 -0.0539306)
(0.0495071 0.0207474 -0.0443844)
(0.0578517 0.256386 0.33864)
(0.0165791 0.201924 0.565121)
(0.0484863 0.299964 0.486645)
(-0.00247899 0.0690229 0.0810463)
(0.0795316 0.0654401 -0.0692823)
(-0.121886 0.119548 -0.0846657)
(0.0052047 0.0321074 -0.0934802)
(0.0212715 0.096912 0.214999)
(0.0324248 0.029896 0.00384133)
(-0.0154236 -0.0202456 0.254252)
(-0.00276055 0.0359278 0.00253572)
(0.0364125 0.0535256 -0.0158947)
(0.0305574 0.103203 0.105337)
(0.0240024 0.063845 -0.0771183)
(0.0337801 0.0355218 -0.0379967)
(0.0313393 0.0712213 -0.0385148)
(0.0026995 0.0438549 0.0182721)
(0.0138222 0.048378 -0.0537627)
(0.0908731 0.309827 -0.127066)
(0.0155635 0.0369959 -0.135021)
(0.0525418 -0.0543815 0.736082)
(-0.0675868 -0.108802 0.238458)
(-0.0585815 -0.154376 -0.0646599)
(-0.123283 -0.0658194 0.305741)
(0.199179 -0.099433 0.935857)
(-0.0432227 -0.0803701 0.249228)
(0.0331429 -0.0652706 -0.040876)
(-0.0318171 0.00691184 -0.125001)
(0.0642777 -0.0201338 -0.107272)
(-0.00167809 0.0087401 -0.0618888)
(-0.0134737 0.012792 -0.0657816)
(0.0370858 -0.0138403 -0.0545675)
(0.0114395 0.0159664 0.00166707)
(0.00718801 0.0321666 0.0742163)
(-0.00795174 0.0368127 0.0608741)
(0.0996093 0.0161792 0.0972943)
(0.0182442 0.00841357 -0.0209607)
(0.0131322 0.0059803 -0.0229542)
(0.0410521 0.0893935 0.065097)
(-0.021143 0.0349415 0.00496491)
(0.00303324 0.0601033 0.165992)
(-0.0204797 0.0695445 0.003834)
(0.0293457 0.0235888 0.0123582)
(-0.0210767 -0.0368353 0.336762)
(0.00627998 0.0381216 0.0247632)
(0.026493 -0.013709 0.24826)
(0.0423729 0.0130382 0.0360416)
(-0.00864111 -0.00904977 0.269504)
(0.0330423 0.0566976 0.0867778)
(0.0108971 0.0250353 0.010641)
(0.00200836 0.0110718 0.0108629)
(0.0194854 0.0350709 0.00255448)
(0.0186087 0.0223515 0.0082119)
(0.00840365 0.0323884 0.00246826)
(0.00998065 0.0148778 0.00409803)
(0.0274043 0.0312403 0.012846)
(0.0157577 0.0392574 -0.0450324)
(0.00536577 0.0172456 -0.0389176)
(-0.00163367 -0.00950674 0.241481)
(0.00531231 -0.0771398 0.386552)
(0.0225046 -0.0340677 0.170338)
(0.0167591 -0.0510613 0.494769)
(-0.00783152 -0.0235306 0.443914)
(0.0179819 -0.0785962 0.422798)
(0.0130082 -0.047394 0.169946)
(-0.00046338 0.0240802 -0.0176515)
(-0.0110422 0.0129302 -0.012242)
(-0.0143369 0.0285363 0.0158974)
(-0.00885955 0.0235028 -0.0130804)
(-0.0218435 0.0182207 0.00102545)
(0.0260146 -0.0141928 0.0602213)
(0.0118333 -0.0134607 0.0166768)
(0.0314245 -0.026838 0.0345982)
(0.00765206 -0.0144376 0.0367645)
(0.0184092 0.00271775 -0.00140254)
(0.0141461 0.00222664 0.0155364)
(-0.0213116 0.103709 0.138909)
(-0.0448834 0.0532086 0.00141893)
(0.017284 0.114681 0.0918993)
(-0.0311688 0.0254014 0.0188912)
(0.0413287 0.00829462 0.0500801)
(-0.046378 -0.00630833 0.248171)
(0.0483726 0.0713951 0.105954)
(0.0350182 -0.0392095 0.129609)
(0.0252911 -0.00667012 0.0868755)
(-0.00910504 0.042954 0.126211)
(0.0708269 0.0622237 0.141165)
(0.0129924 0.00618353 0.0451877)
(0.0140218 0.00761125 0.024614)
(0.0370979 0.0156094 0.044996)
(0.02654 0.00549048 0.0534439)
(0.0186557 0.0136071 0.032096)
(0.00963117 0.00309518 0.039013)
(0.0337345 0.00826173 0.0563521)
(0.00440235 0.00801931 -0.0421195)
(0.00263698 0.015745 -0.0319679)
(0.00997501 -0.0240743 0.0662835)
(0.0134396 -0.0935203 0.43727)
(0.0382982 -0.0106348 0.0583229)
(-0.0125905 -0.0526161 0.470439)
(-0.0256914 -0.0300756 0.00813727)
(0.00571861 -0.0760999 0.390271)
(0.0486359 0.0222647 0.04663)
(-0.00648606 0.023437 -0.00242074)
(-0.0284686 0.040643 0.040194)
(0.00154554 0.0566964 0.0844757)
(-0.00153254 0.0110986 0.00685462)
(-0.0249236 0.0477861 0.0703394)
(0.00682401 -0.00390392 0.0827578)
(0.00880099 -0.00600925 0.0530953)
(0.0112294 -0.00507249 0.0752954)
(0.0061439 -0.00422229 0.0600998)
(0.00608751 -0.000112909 0.0358924)
(0.00315029 -0.000791544 0.0448966)
(-0.0087502 -0.00753337 0.0959624)
(-0.00462832 -0.0115998 0.0558966)
(-0.0318416 0.00262045 0.0955624)
(-0.000259248 -0.00836415 0.0671718)
(0.019248 -0.00955864 0.0971592)
(0.00991088 0.0286305 0.121264)
(0.057044 0.0240224 0.144857)
(0.00498608 -0.0104963 0.12971)
(0.00607741 -0.0105432 0.121143)
(-0.00705199 0.00720352 0.130375)
(0.0187734 -0.033176 0.139531)
(0.00632484 -0.0100055 0.08681)
(0.0061155 -0.00348022 0.0641392)
(0.019049 -0.00985132 0.0892858)
(0.0111606 -0.00945532 0.098646)
(0.00961725 -0.00611114 0.0719042)
(0.00335293 -0.00507677 0.0760605)
(0.0143929 -0.012855 0.0999616)
(-0.00404906 0.0167282 0.024979)
(-0.00268192 0.00722713 0.050519)
(0.011338 0.00215541 0.104983)
(0.054364 0.00346062 0.36374)
(0.0119827 0.0409499 0.0584176)
(-0.00854748 0.0134647 0.203657)
(0.0670215 0.0186297 0.108341)
(0.0964359 -0.000778792 0.334476)
(0.00542189 0.0116796 0.0754844)
(0.0153519 -0.0135996 0.0371695)
(-0.000799072 0.0434668 0.111427)
(0.045807 -0.00526754 0.164182)
(0.0180852 -0.0206157 0.0592248)
(0.012165 0.0233181 0.11162)
(0.0011864 -0.00143028 0.0961206)
(0.00247242 -0.00189315 0.0681872)
(0.00243534 -0.00215046 0.0926796)
(0.0012845 -0.00115084 0.0708794)
(0.000767701 -0.000953449 0.0556338)
(0.000251372 -0.000727028 0.0593645)
(-0.00029517 -0.0026247 0.0991997)
(0.000699853 -0.00352773 0.0722106)
(-0.000858745 -0.00400131 0.0994533)
(0.000408393 -0.0020676 0.0728897)
(0.00387062 -0.00877968 0.126593)
(-0.00983682 -0.00363214 0.133174)
(0.012354 -0.0254672 0.140936)
(0.000271064 -0.00294169 0.135529)
(0.00078087 -0.00325528 0.134699)
(-0.00230912 -0.00381074 0.138863)
(0.00203653 -0.00533113 0.139987)
(0.00154233 -0.00534841 0.113193)
(0.00112003 -0.00443542 0.0919296)
(0.00510726 -0.0105787 0.12497)
(0.00200613 -0.00588697 0.125053)
(0.00300832 -0.00839253 0.107631)
(0.000493465 -0.00303093 0.0966647)
(0.00318558 -0.0078431 0.129316)
(-0.00120317 -0.000426416 0.0621192)
(-0.00104714 -0.00131822 0.063796)
(-0.00471995 0.00304252 0.126815)
(0.00405272 -0.00581039 0.242562)
(-0.00906096 -0.00117906 0.0957448)
(-0.0162643 -0.00457854 0.134753)
(-0.0167425 0.00911833 0.12284)
(-0.00671874 -0.00390951 0.189483)
(-0.00533721 -0.000786572 0.103644)
(0.00916651 -0.0110999 0.0849564)
(0.00911783 0.000778722 0.0973583)
(0.0109828 -0.010209 0.135365)
(0.00419224 -0.00548549 0.0880648)
(0.00383214 -0.00179464 0.0936855)
(0.000154057 -0.000387951 0.100356)
(0.000425882 -0.00044424 0.0735721)
(0.000331346 -0.000580507 0.0996051)
(0.000219302 -0.000281211 0.0743029)
(-5.67373e-06 -0.000334519 0.0627667)
(-1.70924e-05 -0.000205383 0.063624)
(-9.27016e-05 -0.000660659 0.10021)
(0.000163208 -0.000826455 0.0741833)
(-6.6674e-05 -0.00118 0.100541)
(5.17353e-05 -0.000462569 0.0743486)
(0.000432254 -0.00216614 0.135701)
(-0.00114717 -0.00243238 0.138618)
(0.0010901 -0.00303647 0.139071)
(4.87739e-05 -0.000575661 0.136929)
(8.3501e-05 -0.000593823 0.136835)
(-0.000155237 -0.000559795 0.137646)
(0.000217252 -0.000608915 0.137645)
(0.000257772 -0.000988071 0.117605)
(4.09472e-05 -0.00122134 0.100996)
(0.000613188 -0.00236683 0.134298)
(0.000185648 -0.00126486 0.131411)
(0.000348712 -0.00193827 0.117596)
(8.15662e-05 -0.000678842 0.101432)
(0.000362045 -0.00151616 0.13471)
(-0.000385415 -0.000750876 0.0647663)
(-0.000196359 -0.000399618 0.0646035)
(-9.35524e-05 -0.000279524 0.120564)
(-0.000972882 -0.00175616 0.140857)
(-0.000979455 -0.000662654 0.10473)
(-0.000802784 -0.00111687 0.134146)
(-0.000417786 -0.000533267 0.122361)
(-0.000387398 -0.00113878 0.138203)
(-0.000363485 -0.000275742 0.103857)
(0.00101171 -0.00154655 0.0887469)
(0.000887604 -0.000864635 0.0902555)
(0.000912979 -0.000927577 0.129624)
(0.000485857 -0.000692114 0.0882478)
(0.000424506 -0.000396473 0.0891801)
(2.34655e-05 -0.000139114 0.101346)
(8.61023e-05 -9.68575e-05 0.0751112)
(4.55465e-05 -0.000135729 0.101297)
(4.53598e-05 -9.00102e-05 0.0752704)
(-2.06563e-05 -7.61554e-05 0.0644453)
(-5.5641e-06 -5.6021e-05 0.0645924)
(-7.28355e-05 -0.000117291 0.10048)
(2.39099e-05 -0.000154734 0.0749677)
(-2.42657e-05 -0.000229375 0.100965)
(-2.41565e-05 -8.18037e-05 0.0748888)
(5.57225e-05 -0.000386001 0.136964)
(-8.81393e-05 -0.000335717 0.137477)
(0.000139271 -0.000359424 0.137465)
(-1.10277e-05 -0.000116107 0.137035)
(3.49392e-05 -0.000114624 0.137019)
(-3.36886e-05 -5.97603e-05 0.137147)
(5.38497e-05 -6.28401e-05 0.137136)
(0.000131735 -0.000155435 0.117936)
(-4.8447e-06 -0.000221694 0.102481)
(0.000110616 -0.000384446 0.135124)
(5.29526e-05 -0.000238746 0.13218)
(4.18768e-05 -0.000311943 0.118499)
(8.1347e-05 -0.000138341 0.102225)
(8.44146e-05 -0.000245115 0.13509)
(-5.63366e-05 -0.000133517 0.0647159)
(-4.07983e-05 -5.94386e-05 0.0645747)
(2.96133e-06 5.01286e-05 0.11925)
(-2.77945e-05 -0.000242731 0.135995)
(-6.12094e-05 -0.000106298 0.103454)
(-6.33444e-05 -0.000121705 0.132809)
(-1.84868e-06 -0.000121566 0.119648)
(-1.43776e-05 -0.000130091 0.135767)
(-5.28566e-05 3.40513e-05 0.103183)
(0.000144526 -0.000206522 0.0885198)
(0.000107036 -0.000106023 0.0889138)
(0.000304074 7.4079e-05 0.128666)
(0.000101812 -7.40455e-05 0.0882082)
(7.74801e-05 -1.88186e-05 0.0886605)
(4.3154e-06 -7.48915e-05 0.101661)
(2.4041e-05 -1.74073e-05 0.0755721)
(7.71572e-06 -3.28153e-05 0.101741)
(1.01153e-05 -4.18963e-05 0.0755919)
(-1.01221e-05 -1.65134e-05 0.0648543)
(1.5311e-06 -1.93904e-05 0.0648548)
(-5.57653e-05 -1.91468e-05 0.100649)
(6.92654e-06 -2.33409e-05 0.0752612)
(-7.78413e-06 -3.80616e-05 0.10113)
(-2.49795e-05 -1.69178e-05 0.0751183)
(3.14789e-05 -8.12824e-05 0.137035)
(-2.88681e-05 -2.6635e-05 0.137112)
(4.30224e-05 -2.85138e-05 0.137106)
(-2.58065e-05 -4.08732e-05 0.136942)
(3.11987e-05 -4.01105e-05 0.136937)
(-2.91836e-05 1.58637e-05 0.136956)
(3.3879e-05 1.55473e-05 0.136951)
(0.000100347 -2.58524e-05 0.117984)
(-1.29838e-05 -3.53111e-05 0.102808)
(5.87411e-05 -6.78321e-05 0.135095)
(3.92534e-05 -6.00407e-05 0.132182)
(-2.83715e-06 -5.14119e-05 0.118549)
(6.69884e-05 -4.2652e-05 0.102471)
(5.33778e-05 -4.63592e-05 0.134992)
(-9.08689e-06 -2.15222e-05 0.0647632)
(-1.3655e-05 -2.44112e-06 0.0646486)
(6.97865e-07 8.59473e-05 0.119067)
(-9.7753e-06 1.22326e-05 0.13547)
(-2.80994e-06 -2.32642e-05 0.103322)
(-3.19308e-05 1.99006e-05 0.132504)
(5.96196e-07 -2.98918e-05 0.11924)
(-9.14411e-06 2.7743e-05 0.135392)
(-2.83597e-05 6.18704e-05 0.103204)
(2.58862e-05 -3.43486e-05 0.0886155)
(8.08635e-06 -8.0281e-06 0.0888873)
(0.000233761 0.000201416 0.128499)
(3.55656e-05 5.42249e-06 0.0883368)
(2.82012e-05 1.9251e-05 0.0887315)
(5.69679e-07 -4.13334e-05 0.10184)
(8.00063e-06 1.34712e-05 0.0757345)
(9.5454e-07 9.56905e-06 0.101935)
(-3.62483e-07 -1.89478e-05 0.0757156)
(-5.7462e-06 4.29997e-06 0.0649643)
(5.47046e-06 -4.51484e-06 0.0649194)
(-3.43593e-05 -3.55341e-06 0.100808)
(1.97278e-05 -3.26455e-06 0.0753794)
(1.56074e-05 -6.78316e-06 0.101251)
(-1.24084e-05 -7.26262e-06 0.0752162)
(3.06167e-05 -3.56951e-05 0.136951)
(-2.87453e-05 2.19942e-05 0.136958)
(3.22182e-05 2.16811e-05 0.13696)
(-3.35609e-05 -3.45067e-05 0.136833)
(3.51615e-05 -3.35257e-05 0.13683)
(-3.39019e-05 3.20954e-05 0.136833)
(3.4908e-05 3.21995e-05 0.136829)
(8.06831e-05 -4.96199e-06 0.118091)
(-3.45639e-05 1.56338e-06 0.102958)
(4.99558e-05 -1.90572e-05 0.135029)
(3.41192e-05 -3.27533e-05 0.132142)
(-2.91636e-05 -1.05831e-05 0.118586)
(4.8483e-05 -2.03136e-05 0.102649)
(4.82953e-05 -1.65558e-05 0.134877)
(7.0293e-06 -4.54728e-06 0.0648037)
(-2.13738e-06 6.24755e-06 0.0646827)
(-1.41965e-08 7.63617e-05 0.119123)
(-1.18489e-05 4.69943e-05 0.135315)
(9.7275e-06 -3.17993e-05 0.103407)
(-2.85463e-05 3.70948e-05 0.132435)
(-1.54181e-06 -3.35269e-05 0.119219)
(-1.08023e-05 4.95321e-05 0.135248)
(-1.82749e-05 4.81199e-05 0.103353)
(-7.09283e-06 -1.69933e-05 0.088721)
(-1.41731e-05 -9.12697e-06 0.0889834)
(0.000222811 0.000221626 0.128536)
(1.16506e-05 1.06717e-05 0.0884534)
(1.44066e-05 1.02659e-05 0.0888409)
(-6.95295e-07 -2.51764e-05 0.101985)
(4.7253e-07 2.84773e-05 0.0757399)
(-5.28407e-07 3.02729e-05 0.102055)
(-8.15727e-06 -9.45363e-06 0.0757347)
(-1.17414e-06 1.27319e-05 0.0649419)
(1.20197e-05 1.38365e-06 0.0649067)
(-2.29952e-05 -1.36701e-06 0.100974)
(2.98718e-05 -2.37777e-06 0.0753599)
(3.41786e-05 -1.84129e-06 0.101317)
(-7.30971e-06 -1.04267e-05 0.0752267)
(3.70345e-05 -3.4196e-05 0.136855)
(-3.57892e-05 3.47896e-05 0.13685)
(3.6715e-05 3.46265e-05 0.136854)
(-3.94158e-05 -3.86144e-05 0.136714)
(3.99628e-05 -3.81526e-05 0.136709)
(-3.95431e-05 3.91315e-05 0.136712)
(3.93498e-05 3.93638e-05 0.136706)
(7.12542e-05 -1.02495e-06 0.118324)
(-5.17108e-05 1.35175e-05 0.103061)
(5.43688e-05 -1.20882e-05 0.135009)
(3.65144e-05 -2.86208e-05 0.132137)
(-4.47387e-05 -3.34438e-06 0.11868)
(3.63024e-05 -1.40092e-05 0.102841)
(5.67505e-05 -1.32093e-05 0.134773)
(1.40669e-05 -4.63615e-08 0.0647578)
(1.05946e-06 1.08092e-05 0.0646692)
(2.3199e-07 6.67872e-05 0.119302)
(-1.37795e-05 5.9649e-05 0.13525)
(1.70941e-05 -4.70836e-05 0.103512)
(-2.95827e-05 4.44347e-05 0.132457)
(-1.78394e-06 -4.45542e-05 0.119336)
(-1.217e-05 6.23135e-05 0.135157)
(-1.38401e-05 3.56049e-05 0.103553)
(-2.27713e-05 -1.88104e-05 0.0887538)
(-2.06926e-05 -2.07401e-05 0.0890343)
(0.000225694 0.000229187 0.128683)
(1.18184e-06 1.14677e-05 0.0885281)
(1.39054e-05 -3.41478e-07 0.0889115)
(-2.62558e-06 -1.88951e-05 0.101469)
(-8.20214e-06 2.9245e-05 0.0756136)
(-2.31397e-06 3.46496e-05 0.102071)
(-2.10594e-05 -1.11192e-05 0.075504)
(3.82118e-06 1.3016e-05 0.0648552)
(1.83489e-05 -4.28764e-06 0.0647987)
(3.1025e-05 -6.26955e-06 0.0752345)
(3.95637e-05 -2.30841e-06 0.101258)
(4.13827e-05 -3.5297e-05 0.136745)
(-4.08884e-05 3.8024e-05 0.136738)
(4.14749e-05 3.73176e-05 0.136745)
(5.8174e-05 -1.1843e-06 0.118669)
(-6.02571e-05 1.15742e-05 0.103063)
(5.52983e-05 -9.23505e-06 0.135051)
(2.83908e-05 -2.21941e-05 0.132159)
(-5.41713e-05 -2.42535e-06 0.11877)
(2.97482e-05 -1.65007e-05 0.103051)
(5.66485e-05 -1.11198e-05 0.134682)
(1.40708e-05 1.30649e-06 0.0646697)
(-9.64425e-07 6.14057e-05 0.119017)
(-1.45684e-05 6.36744e-05 0.135235)
(1.01222e-05 -5.44956e-05 0.103511)
(-2.12153e-06 -5.00083e-05 0.119524)
(-1.1935e-05 5.17627e-05 0.135053)
(-2.70523e-05 -1.42995e-05 0.0886857)
(-1.27844e-05 -2.60316e-05 0.0889932)
(0.000226645 0.000229665 0.128929)
(1.75189e-06 1.27969e-05 0.0886087)
(2.04351e-05 -3.11913e-06 0.0888014)
(0.46921 0.0489032 0.165559)
(0.0966093 0.181316 0.476094)
(0.271058 0.0402402 0.491665)
(0.578796 -0.297844 0.327117)
(0.0261926 0.0466693 -0.103995)
(-0.0651736 -0.644897 0.358016)
(0.0108083 0.12998 0.125977)
(0.403283 -0.0286395 0.167235)
(0.629355 -0.230698 0.41527)
(0.547506 -2.34783 1.34412)
(0.141069 0.16102 0.496581)
(0.120925 0.414298 0.473723)
(0.162309 0.0109245 -0.458847)
(0.434587 0.0651754 0.127657)
(0.0785498 0.170007 -0.102012)
(0.201033 0.165609 -0.296006)
(0.142295 0.0172035 -0.467103)
(0.0750353 0.130464 -0.328426)
(0.00967607 0.0102155 -0.337511)
(0.125451 0.170259 -0.344141)
(0.121885 0.0350216 -0.429987)
(0.624667 -0.153651 -0.00260816)
(0.0595221 0.0566767 -0.373914)
(0.371934 0.0125399 -0.219509)
(0.116517 0.0258666 -0.399113)
(0.127444 0.0575445 -0.118138)
(0.0251384 0.0210396 -0.339585)
(0.2891 0.0476591 -0.2545)
(0.181928 0.0388737 -0.404146)
(0.299883 -0.0137141 0.163797)
(0.604721 -0.112306 0.249483)
(0.647547 0.110662 -0.142945)
(0.122544 0.170175 -0.00775354)
(0.263299 0.16401 -0.333017)
(0.442533 0.0368466 -0.183914)
(0.145113 0.0496411 -0.40968)
(0.0656526 0.144576 -0.331364)
(0.142852 0.0590359 -0.251009)
(0.342612 0.180641 -0.305555)
(0.0287653 0.0301647 -0.327293)
(0.161882 0.187943 -0.387551)
(0.340881 0.00860075 -0.285883)
(0.0298512 0.14115 -0.297428)
(-0.00315387 -0.0169598 -0.320181)
(-0.0717358 0.0748473 0.247215)
(0.131945 0.0201137 -0.228825)
(0.00620999 0.00601557 -0.320874)
(0.00897277 0.147988 -0.273325)
(0.118092 0.0765802 -0.206428)
(-0.0074318 0.122547 0.190198)
(-0.0106498 0.0320951 -0.335268)
(-0.0808716 0.0678952 0.232885)
(0.0157715 0.0968778 -0.187613)
(-0.0148727 0.00480387 -0.174477)
(0.0418249 0.316833 0.831687)
(0.324267 0.0772382 0.565513)
(0.185129 0.250682 0.397332)
(-0.0806437 0.00043441 0.354312)
(-0.842659 1.85292 -0.619831)
(-0.148448 0.00269027 -0.0107403)
(-0.0104605 -0.0301504 0.294156)
(-0.0336238 -2.94509 5.45487)
(0.388577 0.336018 0.338804)
(-0.240161 -0.650973 0.507598)
(0.0224876 -0.112612 0.430651)
(0.529232 -3.66773 2.81071)
(0.762346 -2.28774 1.92729)
(0.0315438 0.00784646 0.617367)
(0.689025 -2.80368 1.78694)
(-0.0184672 -0.950237 0.989926)
(0.10464 0.33607 0.364257)
(-0.101085 -0.234199 0.506879)
(1.00865 -3.83597 3.27599)
(0.790314 -1.20406 1.37485)
(-0.419738 -0.514095 1.55268)
(1.56569 -9.27869 11.4342)
(0.461594 -2.64526 2.14114)
(1.08287 -3.67879 3.20419)
(-0.372697 0.115917 -0.310254)
(-0.193513 -0.131142 -0.198517)
(-0.0818488 -0.288473 0.246712)
(-0.230597 -0.120648 0.166493)
(-3.42865 3.9231 -2.44847)
(0.566318 -2.72822 2.56991)
(-0.124045 0.14925 -0.275204)
(0.0501397 0.133767 -0.33813)
(0.0188834 0.200706 -0.27601)
(-0.0129655 0.102211 -0.325396)
(-0.153775 0.0946381 -0.162336)
(-0.0733412 -0.0373058 -0.121104)
(-0.133178 -0.0662143 0.0772814)
(-0.0811161 0.0406908 -0.138115)
(-0.133618 0.0981819 -0.249793)
(-0.0603188 0.0534116 -0.273)
(-0.0369752 0.0851562 -0.296456)