/*--------------------------------*- C++ -*----------------------------------*\
| =========                 |                                                 |
| \\      /  F ield         | OpenFOAM: The Open Source CFD Toolbox           |
|  \\    /   O peration     | Version:  2206                                  |
|   \\  /    A nd           | Website:  www.openfoam.com                      |
|    \\/     M anipulation  |                                                 |
\*---------------------------------------------------------------------------*/
FoamFile
{
    version     2.0;
    format      ascii;
    arch        "LSB;label=32;scalar=64";
    class       volVectorField;
    location    "0.5";
    object      wallShearStress;
}
// * * * * * * * * * * * * * * * * * * * * * * * * * * * * * * * * * * * * * //

dimensions      [0 2 -2 0 0 0 0];

internalField   uniform (0 0 0);

boundaryField
{
    topPatch
    {
        type            calculated;
        value           uniform (0 0 0);
    }
    wall
    {
        type            calculated;
        value           nonuniform List<vector> 
7742
(
(0.000124509 0.000224087 0.00480543)
(-8.38494e-06 0.000137394 -0.00314958)
(-0.00223415 -2.05156e-06 0.00323384)
(0.00480074 0.00356144 -0.00176989)
(0.0110664 0.00458299 -0.00122432)
(0.000955202 0.00687474 -0.0128293)
(-9.66718e-05 -5.54802e-05 0.00171128)
(0.000126005 -0.000177268 0.00159809)
(0.00811263 0.00397676 0.0046658)
(-0.00654566 -0.00317737 0.000671648)
(-0.000161573 -6.56521e-05 0.00104163)
(0.000333095 -0.00042018 -0.0026721)
(-0.00355627 0.00121839 0.00175883)
(-0.00670455 0.00478138 0.00226486)
(-0.00208699 0.000997772 0.00288541)
(-0.000961976 -0.00198475 0.00534496)
(-0.000207454 -0.00178084 0.0130038)
(0.00285075 0.00029838 0.00448266)
(0.000372379 4.99623e-05 -0.000937792)
(-0.00125413 -0.00065869 -0.000549943)
(-0.000549457 -0.000243492 0.00250877)
(-0.000576986 -6.27414e-05 0.00252146)
(-0.000687338 -0.000375657 0.00338117)
(0.000211723 -0.000561457 0.00143193)
(-0.000322943 -0.00134344 0.00207991)
(0.000166394 -0.000261071 0.00141304)
(-0.0035949 0.00325253 -0.0060189)
(0.00350049 0.00437942 -0.00826016)
(0.000257015 0.000411529 -0.00224343)
(-0.000182147 -0.000119124 0.00174766)
(0.00208813 0.00266676 -0.00220958)
(0.00349031 0.0063026 -0.00495004)
(-0.000121516 0.0016612 0.0160002)
(-0.00116267 0.00470398 -0.0125525)
(0.0123562 0.0084547 -0.0171628)
(0.000599203 0.00495956 -0.0229112)
(0.00260284 -0.000941162 -0.00299855)
(0.000141869 -0.000360515 -0.00355333)
(0.000107255 -0.000294682 0.00117735)
(-0.000596208 -0.000243956 0.000706846)
(-0.000298099 -0.000346706 0.000874506)
(0.000766456 -0.0004134 0.000253694)
(0.000464611 -0.000310097 0.000994804)
(0.00134733 -0.000603052 0.0008649)
(0.00210271 -0.000894228 -0.000380102)
(-0.0016603 -0.000428887 -0.000470765)
(-0.00142784 -0.000428582 0.000138924)
(-0.00301646 -0.00883402 0.001132)
(-0.00556547 -0.00893775 0.00232179)
(0.000422098 0.00186056 -0.00853036)
(0.000747758 0.00427252 -0.0212543)
(0.000118642 0.000420275 0.000707984)
(0.000158214 -0.00102019 -0.000481993)
(1.8125e-05 -0.00104202 0.000100768)
(-9.3933e-05 -0.000374082 0.000384612)
(0.00394659 -0.000825846 0.00059505)
(0.0120667 2.05422e-05 0.0107922)
(0.000184734 -0.000103214 3.09688e-05)
(-0.000800007 -0.0004314 -0.00127715)
(0.00402488 0.0051496 -0.00820511)
(0.00026337 -0.00038511 -0.00201078)
(0.00123063 -0.00100973 -9.73543e-05)
(0.00838601 0.00220629 -0.002117)
(-0.000128005 7.66192e-05 -0.00438949)
(-2.44939e-05 -0.000343598 0.000294218)
(-0.000215192 -1.14384e-05 0.000332626)
(0.00559146 -0.00425491 -0.000903497)
(0.00179984 -0.000543682 0.000188856)
(-0.00017116 -0.000692617 0.000179188)
(-0.00028971 -2.50125e-05 -0.00309719)
(0.000360763 -0.000719192 -0.00031656)
(-0.000152979 -0.000291224 -0.00122887)
(-0.000653352 -5.64613e-05 0.000219125)
(0.00279682 -0.000422327 -0.00218848)
(0.00300051 0.00499223 -0.00592129)
(-0.0030624 -0.000341366 -0.0729104)
(1.72107e-05 4.22393e-06 -0.00315942)
(0.00014018 -8.65556e-05 -0.00212068)
(0.00473961 0.00189168 0.000506862)
(0.000249331 0.000244122 -0.0027555)
(-0.00460644 0.0028449 0.000814309)
(-0.00567125 0.00204936 -0.00152777)
(-0.00109456 -0.000490473 0.00194209)
(-0.00163726 -0.000777424 0.00210965)
(0.00218993 0.0118556 -0.0105692)
(0.00333087 -0.00361148 -0.0318412)
(-0.000642091 0.000381698 -0.00162225)
(0.000256358 0.00063765 0.00118242)
(-0.00138555 0.000562221 -0.00179718)
(-9.73941e-05 6.151e-06 -0.000793639)
(-0.000979565 -0.000512258 0.00072302)
(-0.000591179 -0.000313841 0.000356424)
(0.00141988 -0.00339379 -0.00308645)
(0.00032509 -0.000889162 -0.000934287)
(-0.000431603 -0.00108786 0.00243885)
(-8.0087e-05 -0.000212213 0.00149712)
(0.000398098 -0.000158451 -0.000441539)
(-0.000111 -1.0958e-05 0.000681324)
(-0.000194462 -0.000106312 0.000209674)
(-7.71066e-05 -4.45729e-05 0.000339351)
(7.97227e-05 -0.000209929 0.000206906)
(0.000124438 -0.000326012 0.00026232)
(-9.27085e-05 -0.000192055 0.000655951)
(-4.55882e-05 -9.60361e-05 0.000388087)
(-5.0317e-05 1.86341e-05 0.000423667)
(-5.65361e-05 2.92796e-05 0.000194982)
(-9.35615e-05 -4.7903e-05 0.000333254)
(-8.46853e-05 -4.33056e-05 0.000218131)
(0.000184392 -0.000461229 0.000670418)
(0.000127725 -0.000301095 0.000469689)
(-1.73665e-05 -2.26473e-05 0.000559421)
(-3.02341e-05 -5.1986e-05 0.000686151)
(-6.26714e-05 2.60086e-05 3.07975e-05)
(-4.65625e-05 1.93106e-05 -2.0029e-05)
(-4.16349e-05 -2.09633e-05 8.42585e-05)
(-2.34525e-05 -1.13892e-05 2.31768e-05)
(-6.88853e-06 3.45715e-05 7.67023e-05)
(-1.43726e-05 4.23054e-05 -6.00327e-05)
(-4.72758e-05 -0.00010489 0.000292026)
(-2.5425e-05 -5.74131e-05 1.4673e-05)
(-1.99689e-05 8.31687e-06 -7.36355e-05)
(-1.07219e-05 4.51598e-06 -9.10063e-05)
(-6.52946e-06 -2.71927e-06 -5.29002e-05)
(-2.38869e-06 -7.58301e-07 -8.17336e-05)
(-7.69599e-06 2.0091e-05 -0.000107315)
(-4.45086e-06 1.14217e-05 -0.00011042)
(-3.88047e-06 -8.23333e-06 -0.000104006)
(2.15932e-06 3.54325e-06 -0.000117558)
(-3.62981e-06 1.55572e-06 -0.000106727)
(-1.90111e-06 8.25443e-07 -0.000111385)
(-2.41636e-07 8.28986e-08 -0.000107344)
(-1.39258e-08 1.11176e-07 -0.000114262)
(-1.71918e-06 4.42981e-06 -0.000113829)
(-9.38591e-07 2.44206e-06 -0.000115169)
(2.00817e-06 3.71865e-06 -0.000124706)
(1.09338e-06 2.06361e-06 -0.00012419)
(-6.59441e-07 2.84788e-07 -0.000115078)
(-3.41616e-07 1.53892e-07 -0.00011613)
(3.14136e-08 5.51384e-08 -0.00011944)
(3.67267e-09 2.6644e-08 -0.000120738)
(-3.26925e-07 8.45312e-07 -0.000116506)
(-1.6309e-07 4.35712e-07 -0.000116815)
(3.28277e-07 6.37051e-07 -0.000123019)
(1.50985e-07 2.88406e-07 -0.000122541)
(-1.13282e-07 4.79808e-08 -0.000116975)
(-4.87377e-08 2.67895e-08 -0.000117282)
(4.99062e-09 8.78659e-09 -0.000121797)
(-1.09846e-08 1.55583e-09 -0.000122091)
(-5.75197e-08 1.45662e-07 -0.000117259)
(-2.50175e-08 7.73515e-08 -0.00011735)
(4.11471e-08 8.24066e-08 -0.00012242)
(1.71881e-08 2.70381e-08 -0.00012235)
(-1.12691e-08 2.35321e-09 -0.000117489)
(2.49391e-09 3.25031e-09 -0.000117607)
(1.00908e-09 -3.21709e-10 -0.000122356)
(-1.45067e-08 -4.40951e-09 -0.000122426)
(-1.40783e-08 2.9072e-08 -0.000117549)
(-4.32348e-09 1.92645e-08 -0.000117558)
(3.45195e-09 1.03814e-08 -0.000122461)
(-1.98726e-09 -8.01911e-09 -0.000122426)
(8.60117e-09 -7.1515e-09 -0.000117561)
(1.17832e-08 -1.0891e-09 -0.000117657)
(-6.62476e-09 -6.52251e-09 -0.000122439)
(-2.32772e-08 -1.00274e-08 -0.000122489)
(-8.58406e-09 1.19578e-08 -0.000117574)
(-1.73039e-09 1.29618e-08 -0.000117595)
(-3.6481e-09 -1.20927e-09 -0.000122451)
(-4.87676e-09 -1.41342e-08 -0.000122462)
(1.62124e-08 -9.6824e-09 -0.00011753)
(2.86538e-08 -6.37251e-09 -0.000117747)
(-1.20123e-08 -9.19764e-09 -0.000122445)
(-2.33756e-08 -8.94751e-09 -0.000122559)
(-6.23655e-09 4.85984e-09 -0.000117533)
(-1.10703e-09 4.26739e-09 -0.000122439)
(-0.00602762 0.00392428 0.000832526)
(0.00184302 0.003 0.0021898)
(-0.00882626 0.00383368 0.00381126)
(-0.000779115 -0.000718524 0.00133381)
(-0.000743682 -0.000577613 0.00188355)
(-8.95584e-06 -0.000637415 0.00171091)
(-0.00110765 0.000104115 0.0070361)
(0.00182415 0.00566103 -0.0204698)
(0.000346028 -0.000773586 0.00206679)
(0.00016529 1.43791e-05 0.00138779)
(0.000983637 0.00305357 -0.00538677)
(-0.00194922 0.000148997 -0.00695031)
(-0.00266762 0.00138609 -0.00723685)
(0.000472706 0.000107692 0.00174472)
(0.000385631 -3.9706e-05 0.000370307)
(0.000358642 4.7241e-05 0.00201141)
(-0.00913904 0.00685385 -0.00149598)
(-0.00765141 0.00373694 -0.00461603)
(-0.000244111 0.0111927 -0.0066532)
(-0.000377829 0.00189825 -0.027889)
(-0.00104319 0.000526243 -0.0031364)
(-0.00557046 0.00271724 -0.00515299)
(0.000975128 -0.00191331 -0.00526298)
(-0.0001293 -0.00106676 -0.0229318)
(-0.000993892 -0.000575244 0.000761309)
(-0.00178521 -0.000618862 0.00166057)
(-0.00171104 0.000688675 -0.00191052)
(-0.0044714 0.00163012 -0.00229865)
(-0.00131523 -0.000502637 0.000704482)
(-0.00167151 -0.000621629 0.00136545)
(-0.000699389 -0.000671833 0.00181368)
(-0.000559356 -0.000912302 0.00222728)
(-0.00115479 -0.000608589 0.000935933)
(-0.00153441 -0.000772993 0.00171749)
(-0.000320446 -0.000571938 0.00151725)
(-0.000489707 -0.000842539 0.00214792)
(-5.38091e-05 0.00329899 -0.00839353)
(0.000155232 0.000628176 0.000535423)
(0.00208971 -0.00522489 -0.00514534)
(0.00330563 -0.00818038 -0.0256806)
(0.000374039 0.00111771 0.00435676)
(-3.60532e-05 0.000266635 0.00138954)
(-6.85535e-05 -0.000361706 0.0015271)
(-0.000314108 -0.000626502 0.00218332)
(-0.000145656 -0.000141266 0.000833007)
(7.77464e-05 -0.000318915 0.00215697)
(-0.000261301 -0.000626714 0.00145448)
(-0.000271198 -0.000621083 0.00189594)
(9.22675e-05 -0.000251788 0.00181257)
(0.00010612 -0.000332612 0.00217628)
(-0.00127555 -0.00050574 -0.00851848)
(-0.00306865 -0.000797638 -0.00168252)
(-8.52525e-05 -0.000127868 0.00350303)
(0.000230061 0.000587703 0.00215147)
(-0.000298339 -4.48302e-06 0.00469851)
(-0.00164867 -0.000568525 0.000702228)
(0.00146908 -0.00374593 0.00294446)
(-0.000412321 -0.000296673 0.000475228)
(8.45594e-05 1.18676e-07 0.0014628)
(0.000131319 -0.000165127 0.00275917)
(0.000564352 0.000437348 0.00379269)
(0.000816338 0.000660818 0.000673588)
(0.000249295 -0.00015704 0.00242179)
(0.000347031 -0.000190054 0.00258273)
(0.000206743 -8.33442e-05 0.00163231)
(0.000157756 -0.000420492 0.0023846)
(0.000504019 -0.000470602 0.00165077)
(0.000127003 -0.00015321 0.00303293)
(6.82772e-05 -0.000145954 0.00184664)
(0.000111347 -0.000277756 0.00229904)
(-0.000110514 1.72408e-05 0.0023158)
(5.99551e-05 -9.34201e-05 0.00296535)
(-0.000562922 0.00031912 -0.00260868)
(5.66309e-05 -6.28054e-05 -0.00139305)
(0.000648292 -0.00120157 -0.00342296)
(0.000346863 -0.000689172 -0.0012582)
(0.000437982 -0.000252837 -0.000656749)
(0.000473049 -0.000266188 -0.0010542)
(7.90707e-05 -0.000168748 6.47649e-06)
(0.000218775 -0.000446681 -0.000841763)
(-0.0010693 -0.000411541 0.000482157)
(-0.000645732 -0.000253722 0.000224721)
(0.000448116 -0.000175926 -0.000560366)
(0.000268011 -9.0298e-05 -0.000646014)
(-0.0002986 -0.000119521 0.000102371)
(-0.000541051 -0.000214494 0.000194546)
(-0.00030366 -0.000541681 0.00131749)
(-0.000193326 -0.000357262 0.000911309)
(-0.000265283 -0.000143481 0.000196639)
(-0.000491504 -0.000261823 0.000301647)
(-0.000109779 -0.00019618 0.000502198)
(-0.000163561 -0.000299547 0.000800245)
(0.000502664 0.00117546 0.00296247)
(4.47395e-05 2.56053e-05 0.00146172)
(0.000100385 -0.000275479 8.18436e-05)
(0.00022601 -0.000600563 -0.000593917)
(-0.000100388 -0.000272197 0.000726358)
(-0.000106178 -0.000341101 0.0011995)
(-0.000233009 -0.000560758 0.0012838)
(-0.000100987 -0.000246155 0.000948847)
(8.33735e-05 -0.000229144 0.00163513)
(6.23306e-05 -0.000166593 0.00116399)
(-9.1512e-05 -0.000218406 0.000519545)
(-7.11521e-05 -0.000169673 0.000833178)
(3.81058e-05 -0.000112475 0.00069292)
(5.79064e-05 -0.000155735 0.00104508)
(0.000303086 5.54268e-05 0.00394602)
(0.000123766 4.31204e-05 0.000814422)
(-0.000110759 -0.000228349 0.00079674)
(-0.000128923 -0.000258473 0.00121526)
(7.01806e-05 6.7447e-05 0.000379974)
(0.000149152 6.67718e-05 0.00060263)
(0.000485291 0.000179267 0.00335333)
(0.000172948 5.66922e-05 0.000319974)
(-0.000105772 -2.60124e-05 0.00202744)
(-0.000125825 2.92682e-05 0.000941857)
(0.000215476 9.29674e-05 -0.000357789)
(0.000207554 7.27779e-05 1.59036e-05)
(2.89342e-05 -1.69673e-05 0.000441234)
(-5.17276e-05 2.64349e-06 0.000779734)
(4.82804e-05 -0.000104828 0.00166208)
(2.71351e-05 -6.22055e-05 0.00117857)
(-0.000225214 8.12153e-05 0.00188501)
(-0.000174573 7.42518e-05 0.00100898)
(4.48899e-05 -9.66356e-05 0.000696355)
(3.05056e-05 -6.76959e-05 0.00105128)
(8.30001e-06 -9.46738e-06 0.000486842)
(-0.000131902 5.30111e-05 0.000825887)
(0.000216866 -0.000135877 -0.000526043)
(-0.000826231 0.000406889 0.000802767)
(5.82327e-05 -0.000123266 0.000176659)
(0.000193528 -0.000369039 0.00035482)
(-3.57602e-05 1.72861e-05 0.000334387)
(-0.000483207 0.000258074 0.000710608)
(0.000209987 -0.000399372 0.0006442)
(0.000227956 -0.000438892 0.000357647)
(-0.000200054 -8.17539e-05 0.000124316)
(-5.2917e-05 -2.48127e-05 0.000320934)
(-9.17022e-05 3.31446e-05 0.000409142)
(-0.000202302 6.9994e-05 0.00069924)
(-8.24045e-05 -3.07508e-05 0.000377274)
(-4.77303e-05 -2.07343e-05 0.000370532)
(-9.8268e-05 -0.000178018 0.000462236)
(-6.58791e-05 -0.000122888 0.000425697)
(-8.75613e-05 -4.57288e-05 0.000364624)
(-7.06992e-05 -3.95769e-05 0.000372921)
(-4.77877e-05 -8.72552e-05 0.000373833)
(-5.98126e-05 -0.000110456 0.000419426)
(-7.67776e-05 -0.000210749 0.000604703)
(-2.94813e-05 -8.80273e-05 0.000363883)
(0.000175208 -0.00046677 0.000650357)
(0.000140377 -0.00038263 0.000305825)
(-1.08162e-05 -1.28513e-05 0.000462346)
(-2.20482e-05 -6.48154e-05 0.00032572)
(-7.74608e-05 -0.000189695 0.000479429)
(-5.10224e-05 -0.000128912 0.000442576)
(3.74672e-05 -0.000108642 0.000609566)
(4.43699e-05 -0.000115596 0.000498846)
(-3.60367e-05 -8.89129e-05 0.000382709)
(-4.64286e-05 -0.0001157 0.000432751)
(4.36119e-05 -0.000114032 0.000429887)
(4.41352e-05 -0.000116827 0.000479722)
(-2.68573e-05 1.77167e-05 0.000759166)
(0.000121085 6.72578e-05 0.000338946)
(-2.12865e-05 -2.88568e-05 0.000480138)
(-3.69273e-05 -7.45217e-05 0.000348226)
(-1.83868e-05 -3.0699e-06 0.000340735)
(0.000135443 7.59686e-05 0.000377169)
(6.29414e-05 5.58056e-05 2.36977e-05)
(0.000114013 4.09805e-05 0.000220984)
(5.97047e-05 -2.62153e-05 0.000418757)
(0.000107882 -4.1961e-05 0.000380389)
(1.26122e-05 1.48721e-05 0.000216828)
(0.000115661 4.5597e-05 0.000312016)
(0.000179546 -6.81284e-05 0.000380127)
(0.000126765 -4.88761e-05 0.000371051)
(4.88715e-05 -0.000102232 0.000609821)
(6.16481e-05 -0.000117348 0.000494654)
(4.71435e-05 -2.82683e-05 0.000451081)
(0.000111835 -6.04549e-05 0.000398591)
(6.41324e-05 -0.000121404 0.00043047)
(6.33513e-05 -0.000121668 0.0004762)
(0.000176993 -9.44292e-05 0.000398147)
(0.000132856 -7.16697e-05 0.000390376)
(-2.68934e-05 1.15232e-05 0.000389445)
(-3.96902e-05 2.8991e-05 0.00020086)
(0.000199822 -0.000360601 0.000640938)
(0.000120756 -0.00020662 0.000384784)
(-6.13432e-05 3.48378e-05 4.32288e-05)
(-4.88762e-05 3.16426e-05 0.000136381)
(-4.52375e-06 2.04771e-05 0.000117849)
(8.22105e-05 -0.000139092 0.00031909)
(-9.36094e-05 -3.41061e-05 0.000341992)
(-9.14002e-05 -3.38726e-05 0.00021358)
(-6.60019e-05 2.74622e-05 4.94866e-05)
(-6.34345e-05 2.9682e-05 0.000133568)
(-5.42827e-05 -2.02137e-05 0.000102007)
(-8.24195e-05 -3.05955e-05 0.000179502)
(-4.46604e-05 -8.04385e-05 0.000350662)
(-3.34155e-05 -5.91802e-05 0.000268137)
(-4.91937e-05 -2.49994e-05 0.000106713)
(-7.61568e-05 -3.88915e-05 0.000185615)
(-1.64093e-05 -2.73883e-05 0.000154258)
(-2.91584e-05 -5.09485e-05 0.000239401)
(-7.4975e-06 -3.97393e-06 0.000548661)
(-2.60837e-05 -5.31235e-05 0.000719789)
(3.76912e-06 1.09518e-05 0.000160386)
(8.84738e-05 -0.000205628 0.000412932)
(-4.57877e-05 -0.000137585 0.000407514)
(-3.79024e-05 -9.23802e-05 0.000710882)
(-3.37365e-05 -8.16621e-05 0.000359852)
(-2.4708e-05 -5.86712e-05 0.000279453)
(4.08693e-05 -0.000108987 0.000414267)
(2.90025e-05 -7.74817e-05 0.000359451)
(-1.14554e-05 -2.49181e-05 0.000166618)
(-2.1523e-05 -5.00975e-05 0.000251286)
(-2.55423e-06 2.81136e-06 0.000256661)
(2.20176e-05 -5.99514e-05 0.000339077)
(-7.61337e-05 -2.98816e-05 0.000429353)
(-0.000153111 -7.63286e-05 0.00064074)
(-5.47688e-05 -0.000117711 0.000412622)
(-4.31002e-05 -8.10117e-05 0.000672076)
(-0.000111727 -6.74471e-05 0.000491617)
(-0.000151779 -7.84928e-05 0.000654258)
(-2.40259e-05 4.64877e-06 0.000362477)
(-0.000108986 -3.33915e-05 0.000627948)
(0.000193996 -7.39146e-05 0.000391129)
(0.000212313 -7.98508e-05 0.000441254)
(-0.000120667 -5.45699e-05 0.000502723)
(-0.000121521 -4.16753e-05 0.000655365)
(0.000193292 -7.51367e-05 0.000434201)
(0.000212466 -8.07651e-05 0.000454176)
(6.04575e-05 -0.00011593 0.00041749)
(3.99513e-05 -7.61902e-05 0.00037484)
(0.000190053 -0.000101907 0.00040708)
(0.00020152 -0.00010791 0.000445366)
(-8.16834e-06 1.22812e-05 0.000277476)
(2.84032e-05 -5.50304e-05 0.000358541)
(0.000161651 -9.05226e-05 0.000417559)
(0.000197517 -0.000106643 0.000453857)
(-6.01048e-05 3.39484e-05 2.23535e-05)
(-4.6499e-05 2.61125e-05 -3.16389e-05)
(-1.59177e-05 3.97818e-05 5.33923e-05)
(-2.17253e-05 4.43371e-05 -6.17152e-05)
(-2.44455e-05 1.36757e-05 -7.60369e-05)
(-4.06036e-05 2.27706e-05 -4.57251e-05)
(-1.29385e-05 2.47994e-05 -0.000104941)
(-1.99594e-05 3.98011e-05 -7.99671e-05)
(-4.62856e-05 -1.70646e-05 8.06475e-05)
(-2.73891e-05 -9.78449e-06 2.244e-05)
(-2.42419e-05 1.00795e-05 -6.58742e-05)
(-4.04729e-05 1.67869e-05 -3.40233e-05)
(-1.14545e-05 -3.77287e-06 -3.85326e-05)
(-2.25019e-05 -7.89683e-06 5.25136e-06)
(-1.2595e-05 -2.02694e-05 0.000127144)
(-3.4838e-06 -3.73207e-06 5.16198e-05)
(-8.75607e-06 -3.82692e-06 -4.04787e-05)
(-1.88141e-05 -8.96853e-06 5.21024e-06)
(2.28238e-06 6.26606e-06 -2.93742e-05)
(-1.36229e-06 8.39662e-08 2.87954e-05)
(-3.85869e-05 -0.000119705 0.000278324)
(-1.81818e-05 -5.86059e-05 4.04956e-06)
(-9.12528e-06 2.41236e-05 -0.000104529)
(-1.35355e-05 3.82238e-05 -7.95875e-05)
(-4.45892e-06 -1.34042e-05 -9.99559e-05)
(-1.38659e-05 -4.39123e-05 -4.31237e-05)
(-8.43981e-06 -1.7232e-05 0.000139025)
(-1.14591e-06 6.19883e-07 6.12217e-05)
(-1.03934e-05 2.24018e-05 0.000221943)
(-2.57936e-05 6.12487e-05 0.000102474)
(3.03401e-06 1.02386e-05 -2.33632e-05)
(4.72399e-07 4.55158e-06 3.75148e-05)
(-2.25113e-05 5.39447e-05 -3.64159e-05)
(-2.72767e-05 6.50564e-05 6.2102e-05)
(-9.89484e-05 -6.31885e-05 0.000376532)
(-6.38167e-05 -3.97349e-05 8.48297e-05)
(-7.5121e-06 -1.5541e-05 -9.6544e-05)
(-2.05057e-05 -4.51167e-05 -3.49987e-05)
(-1.88493e-06 -1.95744e-06 -4.05379e-05)
(-4.7255e-05 -2.85504e-05 3.64234e-05)
(-0.000113794 -5.44982e-05 0.00038807)
(-6.87898e-05 -3.14341e-05 0.000110587)
(0.000180346 -7.20536e-05 0.000401795)
(0.000116897 -5.41344e-05 0.000198555)
(9.40553e-06 2.77912e-06 -2.3093e-05)
(-4.50617e-05 -1.98525e-05 6.58928e-05)
(1.51003e-05 -1.11213e-05 -8.2069e-05)
(8.81127e-05 -4.37322e-05 0.00011209)
(-1.96739e-05 3.32246e-05 0.000239896)
(-4.29875e-05 7.5658e-05 0.000104619)
(0.000138963 -8.02289e-05 0.000378464)
(5.44006e-05 -3.90525e-05 0.000163753)
(-3.40128e-05 6.01241e-05 -5.07123e-05)
(-4.46209e-05 7.86298e-05 5.81329e-05)
(-1.44797e-05 3.33236e-06 -0.000100337)
(2.83749e-05 -2.50263e-05 7.74303e-05)
(-2.01641e-05 1.12834e-05 -8.31453e-05)
(-1.08599e-05 6.11306e-06 -9.8614e-05)
(-1.08069e-05 2.05616e-05 -0.000108289)
(-6.04537e-06 1.14135e-05 -0.000113165)
(-4.60819e-06 2.62484e-06 -0.000110692)
(-8.78653e-06 4.95625e-06 -0.000102408)
(-2.75633e-06 5.23132e-06 -0.000117115)
(-4.97327e-06 9.38709e-06 -0.000114382)
(-8.88892e-06 -2.83963e-06 -5.03351e-05)
(-3.86663e-06 -1.07815e-06 -7.78863e-05)
(-4.50701e-06 1.93128e-06 -0.000104549)
(-8.65153e-06 3.65497e-06 -9.52335e-05)
(-1.13199e-06 -2.1998e-07 -9.92139e-05)
(-2.86662e-06 -7.5389e-07 -8.46474e-05)
(2.74251e-06 6.89835e-06 -4.50988e-05)
(2.76098e-06 6.26746e-06 -8.01557e-05)
(-4.33515e-07 2.95636e-08 -0.00010391)
(-1.6183e-06 -4.25433e-07 -8.88257e-05)
(1.65637e-06 3.58513e-06 -0.000104844)
(2.5188e-06 5.62099e-06 -8.84296e-05)
(-2.16358e-06 -6.73767e-06 -0.000105742)
(1.6734e-06 3.85164e-06 -0.00011435)
(-2.08132e-06 5.37295e-06 -0.000113158)
(-3.69081e-06 9.46434e-06 -0.00011121)
(1.77339e-06 4.44059e-06 -0.000118705)
(2.02145e-06 4.86335e-06 -0.000116173)
(3.24953e-06 1.04909e-05 -3.97385e-05)
(2.83725e-06 8.57665e-06 -7.5881e-05)
(-1.93856e-05 4.65859e-05 -5.88073e-05)
(-1.06834e-05 2.59452e-05 -9.7553e-05)
(1.58452e-06 4.6113e-06 -0.00010059)
(2.53421e-06 7.55367e-06 -8.42414e-05)
(-4.05768e-06 1.00339e-05 -0.000112902)
(-8.47569e-06 2.06926e-05 -0.00010394)
(5.98757e-06 2.15674e-06 -6.13601e-05)
(1.06739e-05 4.93384e-06 -0.000110615)
(2.34952e-06 4.29426e-06 -0.000124341)
(2.70167e-06 4.68241e-06 -0.000120473)
(4.41612e-06 2.29153e-06 -0.000129131)
(9.19469e-06 4.38195e-06 -0.00011961)
(1.57338e-05 5.12398e-06 -4.95446e-05)
(1.38806e-05 4.688e-06 -0.000107217)
(3.1178e-06 -4.7326e-06 -0.000112466)
(-7.74874e-06 2.42958e-06 -0.000139223)
(4.4123e-06 1.67838e-06 -0.000125521)
(1.10289e-05 3.81776e-06 -0.000116664)
(-4.94316e-06 2.02316e-06 -0.000130756)
(-7.59538e-06 2.72098e-06 -0.000138484)
(-2.85706e-05 5.06638e-05 -7.35663e-05)
(-1.48565e-05 2.673e-05 -0.00010954)
(-1.75094e-05 6.64122e-06 -0.000124787)
(-1.40151e-05 7.10772e-06 -0.000143747)
(-5.43584e-06 9.97751e-06 -0.000120794)
(-1.16467e-05 2.10828e-05 -0.00011472)
(-6.28336e-06 3.4793e-06 -0.000134595)
(-1.17965e-05 6.16857e-06 -0.000142498)
(-3.73118e-06 2.12626e-06 -0.000112689)
(-1.96406e-06 1.12906e-06 -0.000116869)
(-2.25625e-06 4.28183e-06 -0.000117982)
(-1.2283e-06 2.34568e-06 -0.000119669)
(-8.4006e-07 4.86884e-07 -0.000119797)
(-1.60164e-06 9.17289e-07 -0.000117844)
(-5.26303e-07 1.01155e-06 -0.000121)
(-9.9742e-07 1.89865e-06 -0.000120187)
(-8.21509e-07 -1.41683e-07 -0.000102515)
(-3.19417e-07 -2.18254e-08 -0.000109323)
(-8.11711e-07 3.56632e-07 -0.00011461)
(-1.53909e-06 6.63774e-07 -0.000112417)
(-1.02343e-07 6.96597e-09 -0.0001138)
(-2.30292e-07 -1.1163e-08 -0.000110789)
(1.3896e-06 2.98369e-06 -0.00010844)
(7.65137e-07 1.62921e-06 -0.000115118)
(2.04738e-08 6.31751e-08 -0.000118776)
(2.48619e-08 1.05536e-07 -0.000115786)
(3.0724e-07 6.56941e-07 -0.000119201)
(6.15451e-07 1.30168e-06 -0.000116605)
(1.52409e-06 3.86145e-06 -0.000118994)
(8.64626e-07 2.21346e-06 -0.000118672)
(-4.00213e-07 1.05155e-06 -0.00011626)
(-7.69832e-07 1.98966e-06 -0.000115588)
(3.47616e-07 8.96243e-07 -0.000117927)
(6.89753e-07 1.78921e-06 -0.000118554)
(1.31918e-06 3.80578e-06 -0.000104086)
(7.05007e-07 2.02549e-06 -0.000110528)
(-3.14781e-06 7.82549e-06 -0.000114214)
(-1.47985e-06 3.69293e-06 -0.000115816)
(2.78293e-07 8.05874e-07 -0.000114407)
(5.69459e-07 1.61987e-06 -0.000111931)
(-5.48951e-07 1.36814e-06 -0.000116479)
(-1.14678e-06 2.87783e-06 -0.000116135)
(3.25879e-06 1.74743e-06 -0.000129184)
(1.20875e-06 6.98742e-07 -0.000126907)
(4.19683e-07 8.0542e-07 -0.00012313)
(8.71973e-07 1.66252e-06 -0.000123994)
(2.79192e-07 1.79731e-07 -0.000124156)
(8.35692e-07 5.01309e-07 -0.000126088)
(3.1069e-06 1.23178e-06 -0.000125212)
(9.84721e-07 4.36965e-07 -0.000122314)
(-4.03983e-06 1.69556e-06 -0.000128103)
(-2.09995e-06 8.96887e-07 -0.000122402)
(1.60566e-07 8.92205e-08 -0.000119269)
(6.46402e-07 3.0649e-07 -0.000121339)
(-8.40799e-07 3.57121e-07 -0.000118899)
(-1.669e-06 7.20356e-07 -0.000121157)
(-4.19978e-06 7.74773e-06 -0.000121484)
(-1.94598e-06 3.60777e-06 -0.00012186)
(-4.9538e-06 2.77496e-06 -0.00013215)
(-2.42845e-06 1.37803e-06 -0.000126868)
(-7.14515e-07 1.32568e-06 -0.000121826)
(-1.51158e-06 2.81186e-06 -0.00012195)
(-9.32966e-07 5.28052e-07 -0.000123662)
(-1.8973e-06 1.08292e-06 -0.000125762)
(-6.91206e-07 3.96787e-07 -0.000120261)
(-3.5326e-07 2.07802e-07 -0.000121168)
(-4.22018e-07 8.0447e-07 -0.000121298)
(-2.14777e-07 4.17914e-07 -0.000121655)
(-1.45991e-07 8.86301e-08 -0.000121834)
(-2.97016e-07 1.70315e-07 -0.000121395)
(-8.56171e-08 1.71024e-07 -0.000122005)
(-1.70822e-07 3.25492e-07 -0.000121847)
(-7.70681e-08 2.61893e-09 -0.00011443)
(-4.69877e-08 5.00467e-09 -0.000115791)
(-1.38672e-07 6.62605e-08 -0.000116881)
(-2.78195e-07 1.19924e-07 -0.00011634)
(-3.17389e-08 3.25606e-10 -0.000116734)
(-3.65931e-08 -8.16175e-10 -0.000116069)
(2.4039e-07 5.10098e-07 -0.000119857)
(1.16756e-07 2.55919e-07 -0.000120904)
(-8.57885e-09 7.98274e-09 -0.000121647)
(9.15517e-09 2.113e-08 -0.000121047)
(3.85213e-08 9.28266e-08 -0.000121682)
(8.68904e-08 1.86696e-07 -0.000121237)
(2.67456e-07 7.06683e-07 -0.000117861)
(1.30044e-07 3.31689e-07 -0.000117516)
(-6.50807e-08 1.81978e-07 -0.000117136)
(-1.3558e-07 3.48954e-07 -0.000116977)
(4.67029e-08 1.11655e-07 -0.000117417)
(9.525e-08 2.56147e-07 -0.000117536)
(2.23169e-07 6.34222e-07 -0.000115016)
(1.03496e-07 3.1061e-07 -0.00011603)
(-4.24453e-07 1.06865e-06 -0.000116646)
(-2.09383e-07 5.09068e-07 -0.000116821)
(3.57886e-08 1.1911e-07 -0.000116794)
(8.5305e-08 2.43324e-07 -0.000116337)
(-7.98204e-08 1.84486e-07 -0.000117097)
(-1.5769e-07 3.97079e-07 -0.000116965)
(1.74616e-07 1.22176e-07 -0.000123742)
(4.9897e-08 3.71094e-08 -0.000122916)
(5.2115e-08 9.54904e-08 -0.000122352)
(1.17421e-07 2.31284e-07 -0.00012255)
(2.87098e-09 2.65605e-09 -0.000122512)
(1.54366e-08 2.00473e-08 -0.000122775)
(8.6034e-08 6.03845e-08 -0.000118792)
(4.04775e-10 7.33404e-09 -0.000117983)
(-6.64317e-07 2.86791e-07 -0.000118445)
(-3.40974e-07 1.40197e-07 -0.000117742)
(-1.1627e-08 -5.64093e-09 -0.000117597)
(-1.37896e-08 5.99761e-09 -0.000117801)
(-1.48375e-07 5.65129e-08 -0.000117471)
(-2.68447e-07 1.15419e-07 -0.000117596)
(-5.60159e-07 1.04341e-06 -0.000121917)
(-2.69139e-07 4.92098e-07 -0.000121896)
(-7.22629e-07 4.12655e-07 -0.000123285)
(-3.65502e-07 2.02798e-07 -0.000122602)
(-1.0311e-07 1.82538e-07 -0.000122054)
(-2.12494e-07 3.94484e-07 -0.000122017)
(-1.48615e-07 7.89868e-08 -0.00012235)
(-2.76278e-07 1.56887e-07 -0.000122508)
(-1.29818e-07 7.40072e-08 -0.000121953)
(-5.7978e-08 3.73525e-08 -0.000122183)
(-6.71599e-08 1.27261e-07 -0.000122147)
(-3.33875e-08 7.08511e-08 -0.000122218)
(-1.74666e-08 1.35677e-08 -0.00012237)
(-5.77152e-08 3.18481e-08 -0.000122247)
(-1.40852e-08 3.25833e-08 -0.000122345)
(-2.55145e-08 4.7484e-08 -0.000122327)
(-2.55157e-08 -5.28546e-09 -0.000116853)
(-2.73408e-08 -2.74153e-09 -0.000117211)
(-1.16225e-08 9.92238e-09 -0.000117501)
(-4.0166e-08 1.56671e-08 -0.000117313)
(-2.26501e-08 -3.35397e-09 -0.000117464)
(-2.09188e-08 -7.77794e-09 -0.000117254)
(2.68729e-08 6.05455e-08 -0.000121888)
(1.11032e-08 3.3135e-08 -0.000122082)
(-1.47275e-08 -3.13793e-09 -0.000122324)
(4.3009e-09 3.97964e-09 -0.000122169)
(3.24637e-09 1.46421e-08 -0.000122286)
(7.88871e-09 1.76533e-08 -0.000122219)
(3.02806e-08 8.44136e-08 -0.000117483)
(1.61362e-08 3.17615e-08 -0.000117463)
(-9.9867e-09 3.59459e-08 -0.000117487)
(-2.58198e-08 6.20683e-08 -0.000117444)
(4.90356e-09 3.05144e-09 -0.000117535)
(6.44715e-09 2.26276e-08 -0.000117534)
(3.25862e-08 9.20163e-08 -0.000116982)
(1.1197e-08 4.69032e-08 -0.000117201)
(-5.63826e-08 1.42583e-07 -0.000117222)
(-3.00862e-08 6.21328e-08 -0.000117319)
(3.58267e-09 2.17514e-08 -0.000117421)
(1.43373e-08 3.71385e-08 -0.000117324)
(-1.10379e-08 1.64148e-08 -0.000117472)
(-1.76304e-08 4.7625e-08 -0.00011742)
(-1.41331e-08 -2.84274e-09 -0.000122485)
(-1.44288e-09 -2.98836e-09 -0.000122445)
(3.87756e-09 1.9457e-09 -0.000122394)
(1.39695e-08 2.97516e-08 -0.00012243)
(3.94744e-09 -6.38384e-10 -0.000122474)
(-1.46803e-08 -5.32728e-09 -0.000122451)
(-1.55265e-08 -1.19815e-09 -0.000117536)
(-1.91561e-09 -4.14342e-09 -0.000117559)
(-1.15733e-07 4.96465e-08 -0.000117432)
(-7.19212e-08 2.4359e-08 -0.000117496)
(5.35561e-09 -1.70099e-09 -0.00011761)
(-4.93154e-09 1.30847e-09 -0.000117529)
(-3.80184e-08 1.0904e-08 -0.000117577)
(-5.5456e-08 2.45436e-08 -0.000117479)
(-8.18884e-08 1.51476e-07 -0.000122178)
(-3.88879e-08 6.40669e-08 -0.000122217)
(-1.05636e-07 5.97551e-08 -0.00012235)
(-6.42374e-08 3.1603e-08 -0.000122363)
(-1.32821e-08 1.82411e-08 -0.000122337)
(-3.16159e-08 5.93794e-08 -0.000122326)
(-3.36565e-08 1.48129e-08 -0.00012243)
(-3.92963e-08 2.29331e-08 -0.000122385)
(-2.46788e-08 1.2377e-08 -0.000122395)
(1.89331e-09 2.02935e-09 -0.000122459)
(-1.01949e-08 1.60215e-08 -0.000122423)
(-7.08266e-09 1.87658e-08 -0.000122409)
(1.24352e-08 -4.34647e-09 -0.000122494)
(-8.39399e-09 2.32068e-09 -0.00012245)
(-5.48623e-09 1.49899e-08 -0.000122437)
(-5.09636e-09 4.8894e-09 -0.000122454)
(-1.63482e-08 -8.20067e-09 -0.00011746)
(-1.6655e-08 -2.40979e-09 -0.000117583)
(8.80725e-09 -6.1295e-12 -0.000117645)
(1.33473e-09 -3.77287e-09 -0.000117558)
(-1.73944e-08 -3.12724e-09 -0.000117627)
(-1.26142e-08 -8.17428e-09 -0.000117542)
(2.08187e-09 2.74545e-09 -0.00012238)
(5.07091e-09 1.52957e-08 -0.00012239)
(-2.16906e-08 -8.78856e-09 -0.00012247)
(-5.42968e-09 -4.71461e-09 -0.000122428)
(2.64734e-09 1.03206e-08 -0.000122426)
(1.2029e-09 -1.67818e-09 -0.000122445)
(-2.7129e-09 1.02367e-09 -0.000117589)
(7.03635e-10 -6.60982e-09 -0.00011758)
(-2.45626e-09 1.42489e-08 -0.000117582)
(-9.66284e-09 1.59239e-08 -0.000117585)
(-1.15126e-09 -1.10019e-08 -0.000117594)
(-6.26595e-09 -6.53434e-09 -0.000117604)
(8.64162e-09 1.75216e-08 -0.000117499)
(2.44949e-09 1.57426e-08 -0.00011753)
(-2.28108e-09 1.19069e-08 -0.000117542)
(-3.22302e-09 -9.11795e-10 -0.000117553)
(9.5028e-10 1.0982e-08 -0.000117567)
(8.36295e-09 1.33254e-08 -0.000117568)
(9.5475e-11 -7.85491e-09 -0.000117582)
(3.68588e-09 -1.55922e-09 -0.00011759)
(-8.47727e-09 -2.22462e-09 -0.000122476)
(1.04306e-08 3.15541e-09 -0.000122504)
(-4.68812e-09 -1.31899e-08 -0.000122442)
(-1.3428e-09 2.26216e-09 -0.000122467)
(1.60876e-08 6.38183e-09 -0.000122517)
(-2.16451e-09 1.46497e-09 -0.000122486)
(1.97183e-09 3.92878e-09 -0.000117574)
(9.05386e-09 7.62818e-12 -0.000117655)
(-2.84176e-08 1.40492e-08 -0.00011755)
(-2.42918e-08 5.78806e-09 -0.000117635)
(1.16974e-08 1.13783e-09 -0.000117668)
(6.52042e-09 6.28553e-09 -0.000117596)
(-1.89283e-08 4.10074e-09 -0.000117654)
(-1.82088e-08 1.07107e-08 -0.000117584)