/*--------------------------------*- C++ -*----------------------------------*\
| =========                 |                                                 |
| \\      /  F ield         | OpenFOAM: The Open Source CFD Toolbox           |
|  \\    /   O peration     | Version:  2206                                  |
|   \\  /    A nd           | Website:  www.openfoam.com                      |
|    \\/     M anipulation  |                                                 |
\*---------------------------------------------------------------------------*/
FoamFile
{
    version     2.0;
    format      ascii;
    arch        "LSB;label=32;scalar=64";
    class       volScalarField;
    location    "20";
    object      omega;
}
// * * * * * * * * * * * * * * * * * * * * * * * * * * * * * * * * * * * * * //

dimensions      [0 0 -1 0 0 0 0];

internalField   nonuniform List<scalar> 
67442
(
18.0938
20.7714
20.6413
22.4274
22.5572
20.6928
20.6253
22.3973
20.8095
20.7037
20.858
22.3271
20.6127
251.475
78.6133
382.154
254.768
82.4453
18.1722
18.0002
18.1743
71.7809
19.2494
33.6771
389.785
19.1759
71.867
32.2087
133.932
129.251
387.633
389.613
133.458
135.792
248.171
76.7421
72.2255
19.1857
32.3962
71.3517
19.1769
31.4893
129.247
132.049
383.656
73.62
19.2608
33.8196
253.721
82.4307
19.2536
73.3639
33.9562
251.126
78.1799
19.325
73.9825
33.0855
246.684
78.7999
135.408
131.444
382.037
19.1888
70.9053
32.1827
244.547
77.7576
243.545
75.0863
384.094
382.928
408.86
243.28
142.076
139.867
406.121
296.301
76.9379
268.438
90.3547
260.871
86.3255
290.439
385.173
301.614
81.661
93.4068
272.653
411.563
246.077
146.033
144.122
411.546
409.993
254.115
141.584
300.26
80.5402
94.2374
273.506
92.1441
270.132
295.219
387.269
383.878
89.387
47.9466
132.474
254.753
47.4717
263.914
88.4362
89.2851
47.2043
134.221
259.538
47.5997
262.62
88.5166
186.955
389.313
393.36
396.835
392.685
184.803
384.709
381.436
389.066
90.1508
48.0123
127.92
263.409
254.946
46.0829
87.1362
90.5575
48.2086
133.632
266.175
263.318
46.1449
87.2185
190.691
397.736
399.156
395.375
397.633
185.955
406.136
246.447
139.002
140.545
403.498
293.294
77.8727
260.692
87.7392
268.424
91.1903
290.903
88.1745
46.4005
134.311
260.517
258.981
48.0524
86.9677
88.8667
46.3211
131.834
258.859
47.9604
258.266
88.087
187.216
393.234
389.756
392.143
396.858
185.357
386.871
301.665
81.7647
272.761
93.385
411.692
248.648
144.652
142.539
407.659
408.94
252.241
144.264
300.318
80.6693
273.743
94.0544
270.342
92.0567
295.279
409.032
253.78
143.767
142.053
406.528
296.4
81.5926
91.9254
264.916
93.036
272.7
293.536
410.808
254.873
140.08
145.561
409.446
297.775
81.9677
269.216
90.8432
269.01
94.5756
295.455
88.6664
47.9155
131.973
264.628
259.385
45.9115
87.5011
88.111
47.3058
129.92
258.99
45.2766
257.4
85.0336
188.315
397.647
387.765
395.608
395.413
186.643
385.255
408.197
252.705
141.649
140.734
407.103
293.75
78.592
90.4186
265.868
89.3659
264.582
291.539
407.89
252.006
136.811
142.385
406.405
293.476
78.2032
89.709
265.807
88.9313
268.186
291.099
383.443
382.083
17.5942
17.572
17.3046
42.708
28.358
28.2616
22.4326
28.5326
28.4312
42.3734
43.7278
28.7627
28.9147
22.3439
28.2072
28.077
42.5977
42.9853
28.3641
28.5966
22.4051
28.7016
28.1199
42.748
42.2671
28.4042
28.2501
22.0875
27.4825
28.0846
41.9092
17.6178
17.565
17.3814
17.4779
17.4871
17.2206
17.5728
17.6052
17.5236
26.5905
33.7441
74.6914
47.306
33.9441
47.7929
26.4144
23.9524
33.6378
36.7256
23.0644
37.0558
23.1138
23.8635
26.2996
33.3549
72.6846
46.8364
32.9307
47.2483
26.5023
23.6302
31.6719
22.6949
36.0032
22.6169
35.668
23.414
26.2263
33.2531
70.5022
46.2447
44.4916
32.4985
25.8871
23.556
31.9716
35.5522
22.6683
34.402
22.5795
23.6097
25.956
32.5874
70.498
45.351
44.5233
32.154
25.825
23.5284
32.3266
35.2892
22.4541
34.7617
22.6862
23.4786
26.6624
33.6016
70.0809
47.9676
47.1217
32.408
26.5423
24.0474
33.0412
37.1101
23.1287
35.7897
22.8496
23.9783
26.4516
33.3152
70.0061
47.1421
46.4437
32.2469
26.298
24.0119
32.9135
23.1558
36.9383
22.8942
35.7568
23.9421
26.7547
33.7534
73.3029
47.4951
33.9857
48.0257
26.6036
24.1331
34.0184
22.9684
37.3023
23.2532
37.0636
24.0379
26.1115
32.641
71.9954
45.8367
32.2252
45.4995
25.6176
23.5749
31.9702
22.4909
35.545
22.687
35.8925
23.4814
762.56
1636.65
4433.11
16480.7
116782
744.579
1620.18
4402.57
16430.5
116912
762.551
1636.81
4433.34
16482.7
116803
744.454
1619.28
4401.96
16428.2
116892
744.652
1619.08
4401.78
16426.6
116862
744.158
1619.24
4402.27
16430.4
116912
763.068
1637.58
4433.46
16482.7
116803
744.297
1620.05
4401.92
16426.8
116872
762.33
1636.75
4433.28
16482.6
116814
763.017
1637.55
4432.99
16479.9
116781
762.579
1637.54
4433.11
16479.5
116773
744.544
1619.99
4402
16427.7
116881
763.01
1637.46
4433.25
16481.5
116795
762.702
1637.46
4433.24
16481.5
116803
744.389
1620.12
4402.19
16428.2
116892
744.386
1620.13
4402.47
16430.1
116912
741.675
1618.31
4400.46
16422
116835
762.366
1636.49
4432.55
16480.1
116782
744.608
1619.36
4401.93
16430.1
116912
754.336
1629.71
4418.62
16450.4
116752
752.498
1623.91
4407.73
16428.6
116727
741.597
1618.41
4400.58
16422.8
116840
762.359
1636.65
4432.8
16482.1
116803
763.154
1637.07
4433.31
16482.6
116803
744.428
1619.26
4401.57
16427.8
116892
744.963
1619.55
4401.94
16428.2
116892
761.415
1636.75
4431.52
16478.3
116795
761.829
1635.91
4430.84
16477.7
116795
761.88
1636.76
4431.56
16478.2
116795
761.899
1635.86
4430.82
16477.7
116795
744.749
1624.96
4410.48
16445
116918
745.159
1624.98
4410.39
16445.2
116921
745.63
1624.12
4409.8
16444.5
116918
745.584
1624.11
4409.74
16444.8
116921
744.706
1618.86
4401.37
16426.2
116862
744.111
1619.22
4401.87
16430
116912
745.006
1619.59
4402.26
16430.5
116912
762.856
1636.63
4432.73
16482.1
116803
761.62
1636.8
4431.42
16477.3
116789
761.6
1635.9
4430.75
16476.7
116789
745.377
1624.99
4410.39
16445.1
116919
745.7
1624.15
4409.7
16444.6
116919
744.203
1619.2
4401.27
16426.4
116872
754.332
1629.69
4418.56
16449.7
116748
752.51
1623.9
4407.68
16428.4
116725
741.554
1618.41
4400.64
16422.9
116852
762.155
1636.6
4432.75
16482.1
116814
762.883
1637.03
4433.26
16482.6
116814
762.756
1636.64
4432.31
16479.3
116781
741.3
1618.49
4400.48
16421.7
116831
762.784
1636.66
4432.38
16478.9
116773
761.614
1636.68
4431.22
16475.5
116759
761.617
1635.79
4430.51
16475
116759
745.119
1624.91
4410.51
16444.8
116904
744.702
1619.2
4401.38
16427.2
116881
741.828
1618.49
4400.48
16422
116836
762.85
1636.55
4432.49
16480.9
116795
741.75
1618.47
4400.34
16421.9
116840
763.006
1636.57
4432.49
16480.9
116803
744.493
1619.3
4401.55
16427.8
116892
744.754
1619.33
4401.83
16429.6
116912
741.474
1618.42
4400.36
16422.5
116838
741.262
1618.44
4400.4
16422
116840
754.507
1629.35
4418.33
16450.4
116768
752.439
1623.74
4407.86
16429.5
116747
752.332
1623.69
4407.44
16429.1
116747
754.518
1629.73
4418.75
16450.8
116768
741.816
1618.8
4400.98
16422.5
116835
761.777
1636.74
4431.28
16476.4
116776
761.753
1635.82
4430.58
16475.9
116776
745.557
1624.9
4410.02
16442.7
116887
745.329
1624.02
4409.37
16442.2
116887
742.036
1618.85
4401.06
16423.3
116840
754.059
1629.39
4418.18
16449.9
116752
752.205
1623.76
4407.68
16428.5
116727
752.186
1623.75
4407.28
16428.1
116727
754.077
1629.71
4418.55
16450.4
116752
742.459
1619.19
4401.07
16423.3
116840
761.31
1635.94
4431.18
16476.6
116778
761.159
1635.79
4430.66
16476
116778
745.139
1624.09
4410.38
16445.6
116918
745.267
1624.07
4409.94
16445.1
116918
761.52
1635.85
4431.12
16476.6
116776
761.361
1635.71
4430.62
16476.1
116776
745.684
1624.18
4410.35
16445.8
116933
745.735
1624.13
4409.89
16445.3
116933
761.763
1636.07
4431.34
16477.8
116795
761.661
1635.91
4430.83
16477.3
116795
745.741
1624.18
4410.15
16444.7
116921
745.888
1624.14
4409.7
16444.2
116921
754.105
1629.38
4418.08
16449.8
116751
752.616
1624.61
4407.85
16428.6
116727
753.11
1623.82
4407.21
16428.1
116727
754.713
1630.52
4418.72
16450.3
116751
742.001
1619.64
4401.08
16423
116838
754.056
1629.37
4418.14
16449.3
116748
752.238
1623.79
4407.65
16428.4
116725
752.24
1623.76
4407.25
16427.9
116725
754.075
1629.68
4418.53
16449.7
116748
741.577
1618.8
4401.11
16423.4
116852
742.172
1619.15
4401.1
16423.4
116852
741.872
1619.72
4401.15
16422.5
116840
753.483
1629.48
4418.49
16451.2
116774
752.34
1624.7
4408.16
16428.9
116749
752.332
1623.9
4407.51
16428.5
116749
754.176
1630.62
4419.04
16451.6
116774
753.701
1629.54
4418.51
16451.4
116769
752.647
1624.73
4408.18
16429.7
116747
752.59
1623.94
4407.57
16429.2
116747
754.359
1630.66
4419.13
16451.8
116769
741.864
1619.7
4401.17
16422.2
116831
745.406
1624.12
4409.87
16444.4
116904
742.299
1619.69
4401.19
16422.5
116836
754.12
1629.43
4418.28
16449.9
116759
752.815
1624.61
4407.95
16428.4
116725
752.908
1623.8
4407.36
16428.5
116736
754.744
1630.57
4418.89
16449.8
116748
742.253
1619.68
4401.07
16422.4
116840
754.183
1629.39
4418.1
16449.9
116752
753.017
1624.62
4407.86
16428.6
116727
752.906
1623.8
4407.19
16428.1
116727
754.783
1630.56
4418.75
16450.4
116752
20.6706
22.2599
20.6038
18.0375
81.5039
19.2678
33.6359
251.334
81.5096
19.2623
72.545
33.3231
382.141
133.83
291.223
78.7113
93.285
271.453
89.9631
264.671
299.09
402.689
244.262
139.241
139.939
409.547
291.24
78.7164
271.999
93.06
265.835
89.8576
299.145
382.6
86.3692
47.5219
129.636
262.088
46.1224
254.352
87.2897
86.0154
46.8817
45.5601
85.4157
181.056
391.259
392.09
186.936
41.6213
22.1004
27.8843
28.1156
28.0167
27.6172
41.9881
17.6287
17.5479
17.524
17.5274
17.2416
23.953
32.931
36.3526
23.1037
36.8098
22.909
23.9858
26.1984
33.1389
70.0734
45.6497
46.1745
32.3854
26.2758
23.883
33.5687
22.9795
36.0862
23.0185
36.3975
23.9403
26.2339
32.5842
32.8792
26.0958
22.4943
20.6552
20.7772
18.1226
380.354
382.228
131.827
130.792
248.895
75.5582
71.5188
19.1894
31.6338
247.126
72.8605
380.568
382.662
88.4256
47.6052
127.705
261.041
253.803
46.2665
87.7792
88.695
47.7875
131.904
258.479
259.702
46.5586
87.7998
182.969
391.421
392.766
391.628
393.485
188.142
400.238
242.061
136.819
137.49
406.768
291.707
76.2229
266.311
89.1418
259.828
86.1582
290.518
402.762
248.2
140.636
141.727
409.77
43.0226
22.317
28.6396
28.8349
28.1469
28.3904
43.2998
17.6413
26.0082
33.0653
69.3995
45.801
32.3735
44.7405
26.072
23.3245
31.9357
35.295
22.4822
34.5367
22.554
23.572
26.5534
32.9458
71.0578
46.6387
33.3177
47.327
26.4925
761.915
1636.45
4432.78
16482.1
116814
742.844
1618.88
4401.56
16427.8
116892
741.516
1619.71
4401.37
16423.5
116852
762.192
1637.6
4433.5
16482.7
116814
744.106
1620.16
4402.2
16428.2
116892
754.11
1630.5
4418.8
16450.5
116752
751.888
1623.6
4407.31
16428.1
116727
751.846
1624.63
4407.94
16428.6
116727
754.49
1629.72
4418.18
16449.9
116752
754.123
1630.5
4418.76
16449.7
116748
752.037
1623.63
4407.28
16427.9
116725
751.984
1624.63
4407.85
16428.4
116725
754.46
1629.67
4418.1
16449.2
116748
742.07
1618.81
4400.61
16422.9
116852
760.996
1635.68
4430.7
16476.1
116778
761.116
1636.77
4431.38
16476.6
116778
744.185
1623.78
4409.96
16445.1
116918
744.988
1625.01
4410.63
16445.6
116918
743.057
1618.79
4401.41
16426.2
116862
743
1618.98
4401.88
16430
116912
762.243
1636.39
4432.59
16480.1
116782
761.651
1636.45
4432.83
16482.1
116803
744.21
1620.06
4402.06
16426.6
116862
743.866
1620.18
4402.53
16430.5
116912
741.907
1619.63
4401.21
16422.5
116835
762.38
1637.48
4433.24
16480.6
116782
762.521
1637.64
4433.5
16482.6
116803
744.088
1623.73
4409.89
16445.3
116933
744.142
1623.73
4409.7
16444.2
116921
741.491
1619.71
4401.33
16423.3
116840
742.136
1618.77
4400.51
16422.7
116840
761.129
1635.6
4430.66
16476.1
116776
761.377
1636.68
4431.31
16476.6
116776
760.629
1635.65
4430.85
16477.3
116795
761.704
1636.85
4431.49
16477.8
116795
745.39
1625.02
4410.38
16444.7
116921
745.217
1624.99
4410.55
16445.8
116933
754.736
1630.48
4418.94
16450.9
116768
752.174
1623.54
4407.45
16429.1
116747
752.374
1624.64
4408.14
16429.7
116747
754.339
1629.61
4418.31
16450.4
116768
742.132
1618.7
4400.41
16422
116835
22.6375
18.011
20.8617
20.7674
22.634
22.4316
22.7175
20.7883
20.7578
22.5886
20.9621
20.8838
20.8913
22.6885
20.6922
140.623
138.02
22.5572
139.546
137.29
82.5727
256.303
81.0798
391.284
391.592
258.794
84.269
17.9019
17.9024
17.8054
76.2908
19.2419
20.7568
35.0194
391.965
19.1666
75.655
33.6095
139.759
138.035
391.916
391.733
389.933
389.885
22.397
138.728
137.554
135.272
131.438
391.836
384.04
389.396
383.479
390.133
392.23
136.489
139.456
83.4649
256.216
255.875
81.7178
34.2021
73.1754
19.1378
19.2246
33.3933
34.4228
74.7446
19.1237
20.7387
76.2344
19.2178
33.5546
137.624
139.754
22.5823
138.272
391.565
77.3032
19.2781
34.4479
257.751
84.1918
19.2508
76.249
34.5314
257.204
85.494
19.2703
77.1759
35.3089
258.708
85.7689
139.457
138.557
390.803
19.1378
74.5707
33.4183
256.316
81.4265
256.208
81.4003
388.81
386.035
191.281
399.173
399.526
399.052
398.458
187.592
90.642
50.0295
268.977
134.362
260.226
89.7804
48.5826
91.1704
49.1651
268.075
134.925
262.52
88.3741
47.8968
190.274
400.632
399.664
397.956
393.349
190.316
86.2066
267.614
138.65
49.7488
267.159
89.6694
48.1857
86.5452
267.507
133.03
49.2699
261.577
89.9629
47.6504
300.238
273.554
93.3356
80.9778
271.912
91.8806
296.202
410.486
252.472
145.293
142.286
409.174
409.544
254.208
144.623
293.129
78.6248
273.173
92.1781
265.083
90.9489
293.749
383.154
390.218
413.102
254.011
149.518
146.017
408.787
301.281
81.0795
97.2748
276.199
94.6661
270.243
300.104
386.282
90.7114
49.7058
268.675
135.011
87.5076
48.8066
262.847
90.8411
49.1909
269.284
133.189
90.0569
47.2914
263.839
190.765
399.894
399.694
189.24
394.937
395.189
388.571
386.698
382.006
389.256
190.572
396.929
395.605
187.514
396.821
397.646
91.128
49.3103
268.274
138.334
88.4642
263.178
49.2108
91.3402
48.9524
263.972
133.988
87.578
267.162
47.5037
184.506
398.965
398.268
190.026
394.526
394.011
90.7556
258.658
47.4385
134.316
90.2027
265.984
49.0664
90.6773
259.945
48.3498
135.961
90.4112
267.16
47.9315
387.493
390.219
388.4
383.036
386.463
388.449
386.599
91.4524
49.437
133.572
268.165
263.045
48.8734
90.6975
91.7912
50.1325
135.425
270.059
266.944
48.5721
90.9274
134.907
48.9688
191.292
399.961
400.517
396.755
397.195
186.69
301.48
273.825
96.1096
82.0165
272.156
94.1791
298.869
410.608
253.429
146.094
142.969
406.813
409.471
146.424
251.382
143.065
410.757
294.9
78.5382
272.727
93.5928
266.399
90.5249
295.899
192.331
398.154
397.388
398.97
90.5003
49.2534
131.658
268.352
262.71
46.8105
87.2633
90.9268
49.5138
136.548
269.403
48.6261
266.671
89.9703
89.4503
267.174
137.159
49.3163
261.534
48.6755
89.6653
87.6191
137.102
49.0189
266.825
188.227
400.235
400.369
393.259
397.097
189.674
388.359
389.976
412.807
252.053
148.271
143.134
408.398
301.679
81.9929
276.825
96.7575
273.807
93.8052
296.37
303.067
84.5874
96.1008
276.116
412.608
253.051
148.877
145.307
411.802
410.011
254.981
146.376
298.413
84.3345
97.1489
277.892
95.8313
275.619
300.428
303.071
84.8658
274.945
97.0554
412.605
256.054
149.505
147.678
412.827
411.097
256.704
148.318
302.586
84.7185
277.665
97.9182
273.721
96.8495
297.646
90.567
49.9578
134.793
268.678
263.131
48.5257
89.5379
90.0432
49.2515
135.44
267.249
48.3527
262.072
86.8263
190.081
399.933
399.178
395.196
396.258
185.355
384.908
410.324
252.001
146.59
142.636
406.05
298.252
79.1664
94.2648
272.501
92.1067
267.697
293.51
409.607
251.425
145.818
141.74
409.09
298.395
79.3402
94.8209
273.091
91.9144
269.214
293.979
386.38
392.066
387.549
43.4428
29.1813
28.9925
22.2996
42.2841
28.2559
28.5105
17.406
17.403
17.1723
43.2135
29.2094
28.9123
22.4059
42.8544
28.8737
28.4632
43.4636
22.4527
28.6835
28.8041
41.9445
28.758
28.213
43.9567
29.2157
29.4892
22.4864
28.7809
28.8124
42.9169
43.577
29.1531
29.0669
22.3472
28.7697
28.7243
43.1662
43.3655
29.2646
29.1374
22.4555
28.5293
28.4867
43.0577
41.5174
22.4839
29.0655
28.9981
43.0144
28.8848
28.3844
17.3174
17.3114
17.0505
17.3348
17.3469
17.0949
17.2971
17.3116
17.0407
26.894
34.3035
74.0141
49.0893
33.8342
47.9958
26.3728
26.5723
74.5793
34.0756
48.2085
24.1647
34.164
37.8645
23.3733
36.618
23.294
23.8574
26.6657
34.3786
73.4754
48.4434
33.811
46.7485
26.3019
23.8487
32.527
22.8934
37.0427
22.6428
36.445
23.784
43.1793
22.3907
28.4537
28.5728
43.1749
28.7061
28.374
23.9453
37.2843
23.0779
32.9853
36.0993
22.9636
23.7399
26.39
34.1556
72.6365
47.8708
47.1996
33.9897
25.9622
26.5149
74.2006
48.1524
34.3087
23.7721
33.0917
36.7703
22.8961
36.5375
22.7945
23.7087
24.1071
37.7211
23.1673
33.9447
36.9254
22.8469
24.0426
26.1606
34.0906
71.5927
47.352
46.8437
33.6996
26.2408
26.0789
48.4659
75.4922
34.2642
47.3074
26.8571
33.725
23.7301
33.5808
36.8056
22.9409
36.5337
22.8877
23.6227
42.8371
22.5282
29.0199
29.1202
28.991
28.3821
43.2145
27.1948
35.0159
74.596
49.7492
48.1051
33.9929
26.7478
24.3182
33.9761
38.3632
23.2847
37.3865
23.0999
24.2346
26.9808
34.5579
73.3184
49.1377
47.7092
33.6746
26.5356
24.2542
33.6964
23.3282
38.12
23.0914
37.0743
24.168
27.1888
34.7159
74.6097
49.8262
33.9679
48.1699
26.7639
24.4582
34.264
23.4752
38.9708
23.2682
37.6896
24.1927
26.3438
33.9425
72.6404
47.7106
33.5268
46.4874
26.2198
23.8159
32.6816
22.9013
37.1622
22.7019
36.0277
23.622
18.099
20.8427
20.7062
22.5865
18.0738
20.8532
20.7501
22.678
18.0687
20.9013
20.7967
22.768
18.0418
20.9091
20.8323
22.6687
17.9961
20.9198
20.8029
22.6786
17.9724
20.9215
20.7954
22.649
17.9684
20.9206
20.7671
22.6835
17.9641
20.9126
20.7629
22.7045
17.9594
20.8964
20.7893
22.6634
17.9825
20.8802
20.7786
22.662
17.9813
20.8619
20.7577
22.6891
17.9826
20.8501
20.7561
22.6386
17.965
20.8509
20.7784
22.6893
17.9725
20.8502
20.7747
22.6267
17.9309
20.8642
20.7581
22.6611
17.9848
20.8476
20.7682
22.5282
20.7102
20.6821
22.5059
20.8316
20.7257
20.7419
20.8985
22.4137
20.6064
20.6742
22.5211
22.3256
22.5964
20.6581
20.6158
20.7446
20.7589
22.4044
22.5504
20.7887
20.6384
20.8539
20.8441
20.7452
20.8101
20.9248
22.2504
22.5282
20.6085
20.6952
20.7204
22.5976
22.5076
22.6428
20.6758
20.7008
20.7575
20.7681
22.3048
22.6032
20.7436
20.7902
20.9494
20.9043
20.7946
20.7851
20.9836
22.3554
22.6709
20.6347
20.8285
20.7688
22.579
22.5182
22.7262
20.7009
20.7389
20.7921
20.7943
22.4673
22.5499
20.8199
20.8345
20.9699
20.8342
20.9309
20.8765
20.9561
22.3374
22.5629
20.7155
20.8471
20.7628
22.4625
22.5898
22.6996
20.71
20.7032
20.7784
20.767
22.4243
22.6296
20.8979
20.7728
20.9551
20.8389
20.8644
20.8812
20.9493
22.3634
22.5589
20.6584
20.7901
20.7199
22.6413
22.5815
22.7445
20.6435
20.7021
20.7999
20.8083
22.5191
22.6718
20.8793
20.7528
20.9497
20.8329
20.7816
20.8873
20.9365
22.3392
22.5609
20.5861
20.7051
20.7215
22.5999
22.4501
22.6672
20.7348
20.7415
20.7788
20.7919
22.4563
22.6266
20.8695
20.7812
20.932
20.836
20.8601
20.8822
20.9308
22.4161
22.5511
20.5876
20.7375
20.7251
22.4968
22.3786
22.6504
20.6262
20.72
20.7743
20.7875
22.4837
22.6441
20.8136
20.7536
20.8185
20.8228
20.8478
20.8874
20.9413
22.3775
22.5589
20.6302
20.7228
20.7282
22.5106
22.4662
22.6846
20.6944
20.6952
20.7528
20.7582
22.3478
22.6007
20.8607
20.7486
20.8984
20.8678
20.7856
20.8589
20.9344
22.4685
22.6174
20.6791
20.7001
20.778
22.5832
22.5614
22.6868
20.6847
20.697
20.7584
20.7817
22.483
22.6465
20.8335
20.7925
20.9013
20.7603
20.8603
20.8489
20.9322
22.433
22.5351
20.7227
20.6856
20.6394
22.459
22.548
22.6701
20.6967
20.7258
20.745
20.77
22.3691
22.5618
20.7919
20.711
20.8889
20.8669
20.8631
20.8345
20.923
22.3681
22.5862
20.5644
20.7614
20.751
22.6478
22.5578
22.7272
20.6849
20.6994
20.7594
20.7334
22.4096
22.5894
20.7623
20.7931
20.9752
20.8698
20.8449
20.8124
20.9179
22.3308
22.6032
20.6931
20.7287
20.6989
22.5736
22.5971
22.6649
20.6171
20.6808
20.7765
20.7489
22.4697
22.5675
20.9232
20.786
20.9557
20.8631
20.7618
20.8135
20.9428
22.4176
22.6183
20.6156
20.659
20.68
22.5079
22.4956
22.6522
20.7184
20.6795
20.7586
20.7423
22.4141
22.5431
20.8601
20.8016
20.9624
20.8552
20.8653
20.8109
20.9329
22.4741
22.5402
20.6262
20.7462
20.6973
22.5744
22.4414
22.6502
20.6806
20.6187
20.7403
20.7752
22.3534
22.5942
20.86
20.7801
20.9315
20.8476
20.8437
20.8207
20.9213
22.2649
22.5521
20.6274
20.7283
20.7092
22.6004
22.4467
22.7478
20.5879
20.7215
20.7487
20.7526
22.4746
22.5841
20.7838
20.7828
20.9352
20.8595
20.8562
20.8144
20.9392
22.4289
22.607
20.6613
20.6559
20.6921
22.6025
22.5977
22.6388
20.6199
20.6913
20.7499
20.7442
22.4335
22.5117
20.7978
20.7116
20.8384
20.8485
20.8437
20.8286
20.8811
22.4648
22.4878
20.6198
20.7482
20.6761
79.2881
253.505
388.085
80.0983
251.622
18.1641
17.9855
18.0092
17.9725
34.1032
20.7889
75.073
19.2473
391.349
33.0316
20.5883
19.1759
73.8596
22.4911
137.565
136.11
80.8529
254.759
80.5948
254.884
389.708
389.492
83.6937
258.409
82.2615
257.889
18.151
18.163
18.037
18.2132
18.0024
18.0581
17.9858
34.2172
75.2541
19.2553
20.7745
34.1753
75.1387
19.2958
392.136
391.513
32.9801
19.1749
74.7767
20.6873
33.1112
19.2186
74.6188
138.669
136.604
22.5829
138.91
136.851
80.5249
254.812
81.2905
255.381
390.623
389.914
85.0291
258.635
84.2437
257.562
18.1537
18.1786
18.1213
18.1215
18.0016
18.0516
18.0139
34.5594
76.1964
19.3034
20.7911
34.6898
76.2246
19.332
391.944
392.091
33.2903
19.2254
74.8635
20.7098
33.3449
19.2611
75.5631
139.681
137.813
22.6993
138.929
137.829
80.8022
255.947
81.0258
255.687
390.608
390.071
84.9485
258.612
84.9629
258.182
18.1457
18.1763
18.1546
18.1019
17.9549
17.9644
17.9749
34.7771
76.1415
19.3219
20.7561
34.8758
76.4351
19.3417
391.887
391.507
33.277
19.2513
76.0991
20.7122
33.5596
19.2893
75.937
139.593
137.973
22.6532
138.913
137.349
80.906
256.229
81.5754
255.335
389.787
389.619
84.7851
259.1
85.0805
258.701
18.1083
18.0355
18.0453
18.054
17.946
17.9798
17.9177
34.5653
76.8393
19.3107
20.7987
34.7843
76.5882
19.3133
391.586
391.87
33.297
19.2622
75.1797
20.6985
33.4644
19.2687
74.8094
140.068
137.418
22.6439
139.397
137.134
80.7164
255.627
80.9547
255.322
389.791
390.016
84.9511
259.106
85.3974
258.181
18.1044
18.1292
17.9724
18.0201
17.9352
17.924
17.8826
34.6384
76.6251
19.2958
20.8387
34.6662
76.7174
19.2984
392.167
391.825
32.9046
19.2249
75.4639
20.6606
33.0887
19.236
75.1409
139.213
138.367
22.6166
138.634
137.499
80.5934
255.419
81.2403
254.853
390.705
390.022
84.4694
258.495
84.5944
258.4
18.0256
17.9701
17.968
18.0894
17.9612
17.9241
17.9005
34.5627
76.6233
19.3004
20.8172
34.7394
76.7884
19.3108
391.178
391.732
33.1678
19.1853
75.0502
20.7241
33.1224
19.2013
75.0387
139.994
137.652
22.6223
138.689
137.642
80.7015
255.877
80.7029
255.205
389.983
389.972
84.0557
259.061
84.1812
258.355
18.1081
18.0827
17.9733
18.0951
17.9543
17.9244
17.8874
34.5921
77.1718
19.2894
20.8267
34.862
76.7673
19.2837
391.882
391.853
33.2378
19.1878
75.1547
20.6972
33.2402
19.2253
75.2522
140.074
137.919
22.6096
139.556
137.561
80.3807
255.521
80.9805
254.974
390.424
389.845
84.9616
258.604
84.859
258.129
18.1101
18.0897
17.9593
18.0003
17.957
17.9237
17.8993
34.4794
76.6029
19.2604
20.8057
34.936
76.2223
19.2651
392.415
392.049
33.0815
19.1876
75.2429
20.6257
33.3739
19.2117
75.2166
140.154
138.221
22.6671
139.463
137.404
81.0255
256.158
80.8739
255.289
389.896
390.373
84.6488
258.992
84.6054
258.007
18.0406
17.9789
17.9798
18.0325
17.9677
17.936
17.892
34.4859
76.7111
19.2648
20.7852
34.6737
76.4202
19.2809
391.403
392.021
33.0858
19.1811
75.3807
20.6597
33.3344
19.2162
75.2318
140.178
138.404
22.6209
139.488
137.396
81.1163
255.927
82.1077
255.138
389.957
390.279
84.5381
257.688
84.707
257.7
18.0791
18.095
18.0641
18.0298
17.9358
17.936
17.9348
34.1922
76.1723
19.2724
20.7155
34.3436
76.0188
19.2979
392.139
391.758
33.2027
19.1855
75.0899
20.6329
33.4194
19.198
75.0209
139.672
138.278
22.6312
139.404
137.627
80.8508
255.373
81.1722
254.806
389.921
389.566
85.2091
258.189
85.4586
258.241
18.0011
17.9901
18.047
18.0129
17.9149
17.941
17.8991
34.3626
75.8804
19.2915
20.7316
34.346
75.9195
19.2968
391.827
391.952
33.1632
19.1578
75.4334
20.7024
33.1462
19.169
74.7807
139.581
137.404
22.6721
139.354
137.446
80.704
255.185
80.7805
255.127
390.771
389.915
85.0628
258.915
85.4105
258.468
17.9965
18.0951
17.9686
18.0903
17.9137
17.9386
17.8614
34.6101
75.9008
19.2872
20.7294
34.5967
76.1323
19.3024
391.932
391.701
33.1364
19.1277
75.5867
20.6709
33.1911
19.1578
75.4324
140.235
137.76
22.623
139.402
137.522
80.4107
255.769
80.9652
253.835
390.42
390.107
85.2872
258.447
85.3099
258.325
18.0631
18.0939
18.0131
18.0237
17.9296
17.9229
17.8307
34.7164
75.8049
19.2952
20.7337
34.7644
76.2552
19.3233
391.56
391.398
32.9859
19.1268
76.2027
20.7228
33.2774
19.1474
75.6943
139.972
137.906
22.5991
139.034
137.142
80.9233
254.783
80.7814
255.157
389.746
389.626
84.527
259.078
85.1809
258.413
18.1192
17.9784
17.998
18.0493
17.9231
17.9379
17.8804
34.6856
76.1282
19.2919
20.7487
34.6802
76.3519
19.29
391.703
391.653
33.2569
19.1397
75.592
20.6596
33.1618
19.1758
75.3273
139.598
138.233
22.5776
139.018
137.409
80.8858
255.262
80.8806
254.824
390.049
390.243
84.4074
258.124
85.1653
258.606
17.9858
18.0944
17.9929
18.0304
17.9143
17.9305
17.8947
34.6746
76.5117
19.2738
20.7497
34.7968
76.1156
19.2775
391.776
391.832
33.4686
19.1502
75.5456
20.6759
33.5205
19.1843
75.4313
139.534
137.927
22.6159
139.139
137.162
80.8916
255.682
81.2047
255.212
390.214
389.748
83.0741
258.802
84.3039
258.392
18.0328
18.0219
18.0132
18.1251
17.9427
18.0279
17.851
34.4929
75.9296
19.2564
20.7397
34.5956
75.973
19.2604
391.731
391.44
33.2339
19.1555
75.7603
20.7274
33.4397
19.1807
75.2
389.012
385.995
22.5347
134.91
137.091
389.614
386.725
392.121
392.352
22.4366
134.987
137.39
130.822
135.271
79.1978
253.381
32.5577
20.6455
72.7057
19.2376
32.7065
20.6579
73.0399
19.1789
77.7103
253.338
244.953
77.8332
77.5048
254.488
250.32
79.7569
31.5936
20.6735
73.3837
19.2237
71.8185
19.2566
32.6356
31.7834
20.6596
73.4307
19.1768
69.6193
19.1821
32.8525
22.4719
136.008
135.888
390.263
389.367
384.374
22.33
135.796
137.614
134.169
135.192
391.045
386.704
33.8144
20.7419
74.2324
19.2789
80.6545
253.56
33.9201
20.579
19.2834
74.3241
80.8567
257.473
250.275
79.6624
32.6069
20.7136
75.1035
19.2694
71.5829
19.2843
33.8501
78.8842
258.584
256.042
82.7278
32.9788
20.7093
19.2593
74.8092
19.267
72.5864
33.8714
83.044
256.589
34.4883
20.8702
19.3133
75.693
83.65
256.692
33.2855
20.7771
74.8465
19.2538
72.4209
19.2608
33.9862
79.0742
256.578
247.863
82.8895
33.3803
20.8751
19.2935
75.7418
19.3091
72.5116
34.0532
79.3657
258.127
249.25
83.8635
22.351
136.962
134.691
387.893
392.053
387.701
22.1986
137.527
135.615
135.637
132.721
389.677
379.984
32.8537
20.6394
19.2155
73.1764
79.6793
254.357
79.9122
253.7
32.1703
20.603
19.193
72.6325
19.1828
71.7174
32.9156
32.3239
20.6458
19.1651
73.5625
19.1784
70.6464
32.8364
77.7009
254.179
247.61
80.0776
78.2852
254.379
247.625
79.6653
387.21
388.901
22.2202
137.667
135.706
134.952
133.946
391.24
390.416
388.652
383.783
382.72
389.353
387.118
392.467
132.198
135.881
22.5638
135.513
137.823
389.255
385.061
391.772
388.392
22.3838
136.113
137.247
129.199
133.548
80.2429
250.12
76.0844
254.765
33.1781
72.5041
19.2477
20.6332
31.9292
73.5781
19.2466
32.9316
69.8359
19.2465
20.5918
32.1929
74.3379
19.2219
79.6688
249.041
245.826
78.732
78.253
255.416
251.779
80.6586
32.7639
20.6983
73.2318
19.2445
72.8623
19.2582
33.165
32.0243
20.7124
74.3251
19.2055
73.3559
19.2391
33.1069
133.943
134.018
22.5331
135.774
137.81
387.156
391.031
390.086
384.649
22.4199
135.919
137.934
131.415
135.734
391.72
386.906
34.0749
73.9058
19.2849
20.7437
33.4197
75.138
19.2923
83.6982
253.517
78.2558
257.41
34.2428
19.2944
71.2617
20.6409
33.3492
19.3097
75.7939
82.3009
258.115
249.988
81.1082
33.6044
20.7411
75.3116
19.3038
71.6076
19.3
34.3581
79.701
258.873
248.496
84.4363
33.8972
20.7895
19.2941
75.798
19.2918
74.5961
34.2349
83.6304
250.939
81.3489
256.956
34.3165
19.3034
72.9056
20.887
33.2432
19.2952
76.7117
83.9304
254.153
82.1243
258.534
33.4506
20.7929
73.945
19.3039
72.5403
19.297
34.5618
82.4103
256.314
250.549
83.7484
33.9027
20.8749
19.2866
76.5409
19.2874
75.6855
34.5852
82.6734
257.404
253.937
84.3567
135.053
132.01
22.4827
137.66
135.407
387.102
389.613
391.602
383.49
22.2708
137.935
136.345
133.332
132.492
390.144
386.383
32.8444
19.1996
71.1792
20.5916
31.847
19.2087
73.9397
79.895
249.097
78.4935
254.416
79.5751
248.968
76.5977
255.667
31.9673
20.644
19.2323
74.1559
19.2566
72.1605
33.2662
32.3045
20.712
19.1751
74.1471
19.1781
71.7347
33.1224
78.4862
255.646
245.264
80.044
77.1122
255.522
252.01
80.053
383.974
389.922
381.458
386.16
22.4378
139.084
133.93
136.838
133.647
391.993
385.369
390.065
389.752
381.28
388.741
388.432
391.882
133.735
133.025
22.619
135.827
138.467
390.124
387.313
392.035
389.666
22.5045
136.297
138.963
134.305
131.276
80.9082
251.775
79.4449
255.002
33.0334
71.0633
19.2815
20.7053
32.564
74.2309
19.2447
32.7258
73.268
19.22
20.7283
32.4381
74.1989
19.2319
78.237
250.27
251.805
78.3813
79.1598
254.941
251.868
80.4912
32.5723
20.711
74.044
19.2213
73.404
19.2589
32.9818
33.1746
20.6802
74.0065
19.196
73.2114
19.235
33.2698
132.224
135.181
22.6018
136.015
137.698
388.851
391.175
385.859
384.635
22.3007
135.993
137.501
130.085
133.457
390.788
386.609
34.8819
73.6292
19.3509
20.8821
33.9715
75.5145
19.3513
84.331
250.415
82.5262
257.62
34.8874
19.3394
73.3575
20.8398
34.3931
19.342
75.7032
82.8228
257.86
251.448
84.2866
33.8997
20.8324
74.4891
19.3496
72.3029
19.3608
34.987
81.5078
256.745
251.791
84.7257
34.065
20.8641
19.3379
75.6887
19.346
73.5102
34.7958
84.3871
251.341
82.4783
256.753
34.7316
19.3343
74.2905
20.9286
34.2206
19.3304
75.4373
85.0316
253.108
83.3542
258.044
33.758
20.796
75.5172
19.3232
73.8756
19.3273
34.6855
83.0505
256.879
251.825
84.4723
33.4466
20.8657
19.3067
76.3706
19.3268
75.0591
34.8104
83.1754
259.668
250.443
84.3567
134.992
134.009
22.5722
139.061
136.643
387.795
390.034
391.856
388.9
22.484
138.677
137.805
137.588
133.202
389.582
386.722
33.1659
19.2385
70.6418
20.6604
32.7639
19.2202
75.0585
80.8202
252.378
76.9277
253.342
80.7088
250.195
77.6934
255.952
32.3156
20.7118
19.2544
74.0073
19.2566
74.5409
33.4708
32.2663
20.6808
19.216
75.4541
19.2451
72.1992
33.3742
79.2124
255.358
250.341
80.9188
78.1908
255.934
254.058
81.2458
388.998
387.978
385.2
390.092
22.4443
138.981
137.391
134.552
134.977
392.194
391.262
389.219
381.975
387
385.81