/*--------------------------------*- C++ -*----------------------------------*\
| =========                 |                                                 |
| \\      /  F ield         | OpenFOAM: The Open Source CFD Toolbox           |
|  \\    /   O peration     | Version:  2206                                  |
|   \\  /    A nd           | Website:  www.openfoam.com                      |
|    \\/     M anipulation  |                                                 |
\*---------------------------------------------------------------------------*/
FoamFile
{
    version     2.0;
    format      ascii;
    arch        "LSB;label=32;scalar=64";
    class       surfaceScalarField;
    location    "20";
    object      phi;
}
// * * * * * * * * * * * * * * * * * * * * * * * * * * * * * * * * * * * * * //

dimensions      [0 3 -1 0 0 0 0];

oriented        oriented;

internalField   nonuniform List<scalar> 
198714
(
-3.15043e-13
1.08316e-12
-4.89583e-13
7.02575e-14
-1.05056e-07
1.05056e-07
-4.19551e-11
-1.28751e-12
-2.68538e-13
2.41426e-11
4.34641e-11
-2.07113e-11
-4.48944e-11
4.48576e-11
-4.76764e-11
4.59377e-11
1.01512e-07
-4.60119e-11
-8.44893e-13
-1.10977e-13
1.33052e-11
4.69656e-11
-1.35751e-11
7.42995e-12
1.65189e-11
-1.69107e-11
-6.06981e-12
-1.02344e-07
1.02344e-07
3.29778e-11
4.66496e-11
3.69227e-11
2.27065e-11
2.4583e-08
3.87738e-11
4.13974e-11
2.96438e-11
3.02506e-11
2.45721e-08
-2.47122e-08
3.47976e-13
8.86129e-12
4.01315e-11
-9.32085e-12
2.86429e-11
1.53801e-11
-1.62071e-11
-2.806e-11
-1.03297e-07
1.03295e-07
-3.88007e-11
1.05031e-12
1.88742e-13
9.30489e-12
4.00985e-11
-1.33621e-11
2.84407e-11
1.50447e-11
-1.37812e-11
-2.8296e-11
1.03323e-07
2.89475e-11
3.01194e-11
2.45728e-08
-1.12742e-12
2.44239e-11
4.33844e-11
-2.38869e-11
-4.46546e-11
4.51776e-11
-4.52589e-11
4.6167e-11
-1.01525e-07
1.01524e-07
-3.24409e-11
-3.80906e-13
-4.6532e-13
2.12861e-11
3.46766e-11
-2.128e-11
-2.69137e-11
4.42164e-11
-4.44967e-11
2.78747e-11
-1.02466e-07
1.02464e-07
-3.14695e-13
-3.17021e-14
2.05833e-11
3.45889e-11
-2.08813e-11
-2.72106e-11
4.37314e-11
-4.46799e-11
2.75058e-11
1.02473e-07
3.65343e-11
2.38749e-11
2.45785e-08
-2.47174e-08
1.6955e-13
-3.73934e-13
1.28846e-11
4.76293e-11
-1.34872e-11
7.30753e-12
1.61971e-11
-1.69287e-11
-6.31632e-12
1.02378e-07
-3.494e-13
-1.20572e-12
1.87564e-08
-2.26882e-12
-4.73595e-12
-1.87478e-08
-5.79256e-14
-1.02964e-11
2.29082e-08
3.99574e-13
1.70092e-12
-2.28999e-08
6.81216e-13
1.0338e-13
9.83847e-09
-6.50728e-12
7.43668e-13
-1.03278e-11
1.83951e-08
-3.43283e-12
-4.53995e-12
-1.83776e-08
-4.42215e-11
-4.53787e-14
2.23607e-08
4.28013e-12
1.26646e-11
-2.23333e-08
-1.02214e-12
9.53796e-13
1.05054e-07
1.50564e-13
1.56394e-13
-1.05325e-07
1.05323e-07
1.39235e-13
-1.15314e-12
1.05346e-07
7.04755e-12
9.67996e-12
-2.10444e-11
2.31815e-08
-1.37767e-11
6.66558e-13
-1.21546e-12
-7.96332e-11
1.08436e-10
-1.07784e-10
7.94767e-11
1.03189e-07
4.36364e-11
1.39007e-14
2.33665e-08
9.82595e-12
-7.83314e-11
-7.98449e-13
-3.42337e-12
9.65711e-09
-6.14815e-12
-9.64674e-09
6.51365e-13
1.67385e-13
6.00976e-12
-9.07629e-12
9.80764e-12
-6.16919e-12
1.02579e-07
1.59697e-12
9.35564e-13
-2.25405e-12
2.3486e-08
-6.05153e-12
4.0265e-14
9.98924e-12
2.38205e-08
-1.25294e-11
4.28896e-12
-6.98934e-12
3.208e-12
-2.0179e-11
2.69791e-08
1.68728e-12
-1.93436e-12
4.00623e-13
-1.17438e-11
2.70759e-08
5.21195e-14
-4.06088e-13
9.8385e-09
-6.27207e-12
-9.83217e-09
-3.8051e-12
9.65772e-09
-5.9629e-12
-9.64722e-09
-2.64791e-12
-1.23921e-11
2.72768e-08
3.97763e-13
-2.72625e-08
-6.95841e-12
-2.08543e-11
2.67823e-08
1.90945e-12
-2.67602e-08
-9.20482e-13
1.876e-08
-1.67018e-12
-4.71867e-12
-1.00597e-11
2.2912e-08
5.03256e-13
1.70688e-12
-2.42638e-12
2.3476e-08
-6.48062e-12
-2.3471e-08
5.59703e-13
2.78395e-13
2.61955e-11
-9.62401e-12
1.00418e-11
-2.54396e-11
-1.04783e-07
1.04781e-07
1.52301e-13
2.3821e-08
4.35733e-12
-1.26474e-11
-2.38232e-08
2.28188e-12
-2.09654e-12
2.34706e-08
-6.14649e-12
4.30773e-13
2.60861e-11
-9.75391e-12
1.00863e-11
-2.56349e-11
1.04797e-07
2.38241e-08
4.27916e-12
-1.22159e-11
-1.22035e-11
2.71397e-08
3.38106e-13
3.30262e-12
-2.0648e-11
2.69218e-08
1.72744e-12
-6.59524e-13
9.65822e-09
-6.02316e-12
-2.12812e-11
2.31701e-08
-1.35879e-11
-2.31525e-08
3.78936e-13
-1.10893e-12
-7.94157e-11
1.09169e-10
-1.07635e-10
8.01259e-11
-1.03188e-07
1.03185e-07
1.32139e-13
2.33653e-08
9.88263e-12
-7.885e-11
-2.33407e-08
-1.03215e-11
1.83904e-08
-3.45141e-12
-4.52701e-12
-1.83729e-08
-4.43247e-11
2.23567e-08
1.26765e-11
4.14282e-12
-2.23292e-08
-1.56516e-12
-6.30462e-11
1.08591e-10
-1.07332e-10
6.45758e-11
-1.04296e-07
1.04295e-07
7.42752e-12
-2.14345e-11
2.31548e-08
-1.37484e-11
-2.31374e-08
2.33624e-08
-7.89559e-11
9.68314e-12
-2.33373e-08
1.83958e-08
-3.34652e-12
-4.64083e-12
-4.8181e-14
2.23617e-08
4.25633e-12
1.23092e-11
-1.42474e-12
-6.30473e-11
1.0793e-10
-1.07456e-10
6.39342e-11
1.04298e-07
9.75001e-12
-2.05244e-11
2.31661e-08
-1.35872e-11
4.3474e-11
2.33635e-08
-7.81968e-11
9.55756e-12
6.47352e-13
1.83896e-08
-3.25348e-12
-4.69255e-12
2.23578e-08
1.22275e-11
4.04374e-12
-2.07605e-11
2.68407e-08
2.02011e-12
-2.6818e-08
4.54306e-13
-1.29218e-11
2.72145e-08
4.34343e-13
8.69414e-13
9.837e-09
-6.2548e-12
7.69302e-13
5.65383e-12
-9.13433e-12
9.43592e-12
-6.30732e-12
1.02588e-07
1.17084e-12
-1.93703e-12
2.34799e-08
-6.12939e-12
9.84654e-12
2.38236e-08
-1.24492e-11
4.138e-12
1.87539e-08
-1.86338e-12
-4.79699e-12
-5.27117e-14
2.29083e-08
1.68954e-12
1.99424e-13
-7.76137e-13
1.87592e-08
-1.75491e-12
-4.76386e-12
2.29122e-08
1.59964e-12
-8.6514e-14
9.65562e-09
-6.30224e-12
9.83818e-09
-6.47351e-12
-5.16693e-12
-8.26424e-09
1.17641e-13
7.94185e-12
8.26135e-09
1.88039e-12
2.9996e-13
1.35562e-12
4.73771e-12
1.87481e-08
2.65931e-08
-5.17519e-12
-2.8165e-12
-5.08903e-12
-2.65823e-08
2.47826e-12
4.73346e-12
2.65826e-08
-2.09519e-13
-7.83213e-12
-8.26137e-09
5.03177e-13
-9.55997e-13
-1.45025e-08
4.23748e-12
1.44989e-08
-2.16556e-13
-1.52695e-12
-7.38243e-14
1.01255e-11
2.28999e-08
1.74385e-08
2.44548e-13
7.97144e-14
-4.48031e-12
-1.74339e-08
2.23621e-08
-6.19544e-13
-8.41378e-12
-2.23542e-08
3.61029e-14
4.42034e-12
1.74343e-08
7.74794e-12
2.23544e-08
-4.12152e-12
-1.4499e-08
-4.66333e-13
1.45396e-14
6.34533e-12
9.83258e-09
-9.37369e-12
-1.11367e-12
1.24608e-12
-1.40788e-08
-4.2435e-12
1.40923e-08
4.2261e-12
1.23633e-11
-2.23335e-08
-9.2745e-14
2.23607e-08
-4.37644e-11
6.16828e-12
-2.18283e-08
2.18527e-08
-3.57142e-11
-1.69174e-08
-1.73973e-13
-4.40756e-12
1.69332e-08
-7.46195e-13
-8.03648e-09
8.02818e-09
1.3582e-12
7.6819e-12
3.5036e-12
1.8378e-08
-9.33862e-13
9.84273e-12
4.68331e-12
2.60311e-08
-1.67372e-13
-6.35719e-12
-2.34162e-11
-2.60046e-08
2.6005e-08
6.28787e-12
2.26079e-11
-1.39297e-12
-7.3086e-12
-8.02796e-09
4.46203e-13
-7.64361e-12
8.03661e-09
-3.4294e-12
6.58861e-13
-4.67434e-12
1.83951e-08
-9.6887e-12
2.60312e-08
-2.30254e-11
9.46915e-12
9.42406e-13
-1.40918e-08
3.94152e-12
-4.12793e-12
-1.22365e-11
-3.50835e-14
4.35846e-11
2.18526e-08
9.62347e-12
-3.62348e-11
-2.18281e-08
1.69328e-08
1.10376e-12
-1.92799e-13
-3.98706e-12
-1.6917e-08
3.59457e-11
-1.11862e-13
4.18247e-12
-3.90972e-12
-1.40785e-08
9.64703e-09
9.67497e-13
2.85575e-12
6.25794e-12
-7.71748e-13
-6.31251e-12
9.65719e-09
-3.08468e-12
2.07226e-11
-6.73168e-12
-2.23294e-08
-1.19625e-11
1.5404e-11
2.23119e-08
2.41135e-08
2.04654e-11
-3.64203e-11
-3.10255e-11
2.05199e-11
-2.00886e-12
-3.07697e-12
7.12128e-12
2.69566e-08
1.77887e-08
-6.72999e-12
-2.43417e-13
-4.30961e-12
3.65819e-11
3.11953e-11
2.4087e-08
1.09153e-13
4.40397e-12
1.77754e-08
1.20044e-11
-1.55484e-11
1.82834e-11
-3.56681e-12
-2.1387e-08
-1.27455e-11
9.24451e-12
2.13758e-08
2.34937e-08
1.7795e-11
-2.35382e-11
-2.25668e-11
1.18558e-11
-2.25494e-13
-1.83567e-13
2.2361e-12
2.70622e-08
1.76565e-08
-3.76547e-12
-5.96563e-13
-4.35989e-12
2.31052e-11
2.3491e-11
2.34772e-08
5.98644e-13
4.48794e-12
1.76476e-08
1.2686e-11
-9.76321e-12
-2.19721e-12
-1.71033e-12
-2.02385e-08
2.02177e-08
8.11588e-09
-2.30906e-12
-6.33251e-12
8.16347e-09
-1.71937e-12
-6.38137e-12
6.29364e-12
8.10754e-09
6.43518e-12
8.1559e-09
2.46996e-13
6.29351e-12
9.83227e-09
9.64766e-09
2.81172e-12
6.31934e-12
-6.20518e-12
9.65781e-09
-3.31637e-12
-3.74058e-12
1.70348e-11
-2.24065e-08
-1.10578e-11
1.22695e-11
2.2392e-08
2.42907e-08
1.69915e-11
-2.58171e-11
-2.18233e-11
-2.42724e-08
-3.87819e-13
1.21647e-11
2.45723e-12
2.72628e-08
1.79397e-08
-4.03508e-12
-8.18203e-13
-4.38546e-12
-1.79301e-08
9.03821e-13
4.47785e-12
1.79302e-08
2.50454e-11
2.23339e-11
2.42725e-08
1.14327e-11
-1.31666e-11
-2.23918e-08
-6.66048e-12
2.18376e-11
-2.13142e-08
-1.29923e-11
1.14001e-11
2.13006e-08
2.33315e-08
2.21408e-11
-3.39406e-11
-3.13593e-11
-2.33091e-08
-2.25333e-12
2.02447e-11
6.80502e-12
2.67603e-08
1.75099e-08
-7.33781e-12
-1.61e-13
-4.23142e-12
-1.74962e-08
-1.02611e-13
4.42425e-12
1.74966e-08
3.31314e-11
3.11676e-11
2.33092e-08
1.32895e-11
-1.21343e-11
-2.13006e-08
-1.76635e-12
-2.16312e-12
-2.02396e-08
2.02195e-08
8.15962e-09
-1.79192e-12
-6.21685e-12
-8.15243e-09
8.11917e-09
-2.69041e-12
-6.13612e-12
-8.1105e-09
6.36086e-12
8.15241e-09
6.31722e-12
8.11059e-09
-2.02193e-08
-5.27805e-12
-8.26896e-09
1.63492e-13
8.04836e-12
8.26603e-09
1.64461e-12
1.31128e-12
4.72092e-12
1.87518e-08
2.66048e-08
-5.07502e-12
-2.73581e-12
-5.16412e-12
2.56313e-12
5.10041e-12
2.65935e-08
-7.09218e-14
-8.03396e-12
4.55749e-13
-6.26725e-13
-1.45097e-08
4.31695e-12
1.45057e-08
-4.18864e-13
-1.66452e-12
1.01504e-11
2.29038e-08
1.74423e-08
4.59047e-13
-4.46381e-12
2.23712e-08
-3.88481e-13
-8.14637e-12
4.50332e-12
1.74379e-08
7.98109e-12
2.23635e-08
-4.39978e-12
2.60792e-11
6.30369e-11
-2.14209e-08
-1.31337e-10
-1.22668e-10
2.15858e-08
2.38713e-08
1.40342e-11
-2.66949e-11
-2.20193e-11
-1.05944e-11
6.99998e-12
2.42874e-12
2.71408e-08
1.7647e-08
-6.01656e-12
-3.11011e-12
-4.28694e-12
-2.69298e-11
4.34647e-12
1.7685e-08
-6.93394e-12
2.64144e-11
2.39219e-08
-3.64218e-12
-2.88041e-11
-2.4439e-11
-3.54856e-11
-2.23109e-08
1.1527e-10
1.38484e-10
2.2117e-08
2.37496e-08
2.44274e-11
-3.26761e-11
-3.1774e-11
2.60131e-11
8.2221e-12
-2.88933e-12
6.9855e-12
2.68835e-08
1.78018e-08
-5.32254e-12
2.3009e-12
-4.24831e-12
6.5117e-11
2.81687e-11
2.36579e-08
2.85202e-11
4.56344e-12
1.77414e-08
2.9523e-11
2.12612e-12
2.63022e-11
-2.93128e-11
-2.02455e-08
2.02324e-08
8.16382e-09
-4.00423e-12
-6.31714e-12
8.11719e-09
-3.83134e-13
-6.10576e-12
6.39206e-12
8.15679e-09
6.44573e-12
8.10999e-09
9.03263e-13
6.22001e-12
9.64823e-09
-8.11606e-13
-9.61213e-12
1.19897e-12
-1.40714e-08
-4.06433e-12
1.40847e-08
1.23098e-11
4.03904e-12
-2.23295e-08
2.23569e-08
-4.38137e-11
-1.69133e-08
-4.41916e-12
1.6929e-08
6.15964e-12
-2.18188e-08
2.18433e-08
-3.62123e-11
-6.40144e-13
-8.03255e-09
8.0242e-09
1.36311e-12
7.62145e-12
3.53215e-12
1.83734e-08
9.79616e-12
4.61597e-12
2.60182e-08
-2.77666e-13
-6.33993e-12
-2.3374e-11
-2.59916e-08
2.59921e-08
6.31848e-12
2.2687e-11
-1.33459e-12
-7.40161e-12
-8.02408e-09
5.03573e-13
-7.6513e-12
8.03255e-09
-3.45105e-12
-4.65174e-12
1.83906e-08
-9.87242e-12
2.60184e-08
-2.31177e-11
1.17303e-12
9.35565e-12
-1.40845e-08
3.99179e-12
-1.22374e-11
-4.24838e-12
4.35881e-11
1.69287e-08
8.9575e-13
-4.00471e-12
-1.69131e-08
2.1843e-08
9.81517e-12
-3.66354e-11
-2.18184e-08
4.2224e-12
3.5623e-11
-3.73922e-12
-1.40714e-08
-8.55975e-13
-8.03676e-09
1.32894e-12
7.64647e-12
8.02864e-09
3.26598e-12
9.85194e-12
4.63114e-12
1.83789e-08
2.60324e-08
-6.84092e-13
-6.2051e-12
-2.28486e-11
6.17591e-12
2.26364e-11
2.6006e-08
-1.18325e-12
-7.74178e-12
9.38751e-12
1.09089e-12
-1.40932e-08
4.00897e-12
1.40801e-08
-4.16171e-12
-1.24776e-11
-4.61778e-14
4.40417e-11
2.23343e-08
2.1854e-08
9.18876e-12
-3.5555e-11
1.69339e-08
1.09065e-12
-5.79626e-14
-4.2703e-12
3.60146e-11
2.18294e-08
-2.79646e-14
4.15281e-12
1.69184e-08
-4.26348e-12
-6.26553e-13
-8.03158e-09
1.39973e-12
7.55643e-12
8.02325e-09
3.52705e-12
-9.24516e-13
1.01082e-11
4.64848e-12
1.83722e-08
2.60205e-08
-5.1942e-13
-6.15821e-12
-2.29023e-11
6.36152e-12
2.30243e-11
2.5994e-08
-1.09818e-12
-7.94215e-12
1.21389e-12
9.49041e-12
-1.40847e-08
3.9841e-12
1.40714e-08
-1.24482e-11
-4.35224e-12
4.40641e-11
2.23305e-08
1.69294e-08
8.79094e-13
-4.391e-12
2.18449e-08
9.54135e-12
-3.60451e-11
4.13888e-12
1.6914e-08
3.60149e-11
2.18204e-08
-4.29594e-12
-6.81483e-12
2.14154e-11
-2.1314e-08
-1.32438e-11
1.16997e-11
2.1301e-08
2.36928e-08
2.1121e-11
-3.54775e-11
-3.10976e-11
-2.36681e-08
-2.32015e-12
2.05993e-11
7.26471e-12
2.6818e-08
1.74962e-08
-7.20882e-12
-3.51605e-13
-4.15972e-12
-1.74825e-08
2.08127e-13
4.57041e-12
1.74823e-08
3.54588e-11
3.13054e-11
2.3668e-08
1.33022e-11
-1.19228e-11
-2.13015e-08
1.74363e-11
-3.72928e-12
-2.24144e-08
-1.06236e-11
1.23241e-11
2.2399e-08
2.39204e-08
1.77836e-11
-2.53476e-11
-2.25321e-11
-2.39032e-08
1.2231e-11
-3.87712e-13
1.15552e-13
1.70293e-12
2.72008e-08
1.79555e-08
-4.42313e-12
-4.60884e-13
-4.26392e-12
2.37807e-11
2.2893e-11
2.39034e-08
8.4501e-13
4.46437e-12
1.7946e-08
1.12838e-11
-1.36775e-11
-2.23986e-08
-1.94401e-12
-1.71256e-12
-2.0243e-08
2.02228e-08
8.11984e-09
-2.92679e-12
-6.07244e-12
-8.11119e-09
8.1611e-09
-1.72912e-12
-6.02351e-12
6.44375e-12
8.11166e-09
6.60757e-12
8.15361e-09
-2.02231e-08
-4.81819e-13
6.47529e-12
9.83111e-09
-5.52706e-12
-8.26097e-09
2.18884e-13
8.24258e-12
8.25803e-09
1.97355e-12
1.16243e-12
4.7779e-12
1.87455e-08
2.65915e-08
-5.16009e-12
-2.53777e-12
-5.25842e-12
2.65721e-12
4.65435e-12
2.65806e-08
1.48983e-13
-8.20603e-12
-6.71202e-13
5.28139e-13
-1.44994e-08
4.34826e-12
1.44954e-08
-1.72703e-12
-5.1685e-14
-4.97414e-14
9.96777e-12
2.29001e-08
2.23619e-08
-7.51535e-13
-7.67789e-12
1.7436e-08
3.96218e-13
9.76122e-14
-4.49499e-12
7.85803e-12
2.23543e-08
1.12365e-14
4.59776e-12
1.74319e-08
-4.55329e-12
-5.34676e-12
-8.26791e-09
2.49343e-13
8.14528e-12
8.26486e-09
2.07331e-12
4.67154e-13
1.39117e-12
4.81533e-12
1.87504e-08
2.66031e-08
-4.7432e-12
-2.45098e-12
-5.20865e-12
2.83122e-12
4.84267e-12
2.65922e-08
1.28405e-13
-8.16485e-12
-6.22292e-13
5.45921e-13
-1.45088e-08
4.36004e-12
1.45047e-08
-1.72293e-12
1.85131e-13
1.00514e-11
2.29036e-08
2.23706e-08
-6.98547e-13
-7.66847e-12
1.74409e-08
3.80162e-13
-4.5394e-12
8.01137e-12
2.23631e-08
4.5608e-12
1.74371e-08
-4.56443e-12
6.24489e-12
9.64537e-09
6.42604e-12
9.83202e-09
-3.38076e-13
3.27261e-13
-1.09268e-07
1.09268e-07
-3.13663e-13
-2.99665e-13
-1.07083e-07
1.07083e-07
7.81932e-13
-1.79794e-13
-1.1573e-07
1.15729e-07
1.17565e-11
1.47871e-11
-2.29466e-08
2.29447e-08
2.43003e-08
1.21402e-11
2.33099e-08
1.49456e-11
-3.60498e-11
-2.12867e-11
2.47225e-08
2.42917e-08
2.3313e-08
1.02393e-11
1.61263e-11
-2.29372e-08
2.29345e-08
2.43726e-08
1.08664e-11
-2.43707e-08
2.32346e-08
1.73701e-11
-2.32312e-08
-2.76745e-11
-2.86073e-11
2.47119e-08
2.43708e-08
2.32313e-08
-2.29343e-08
-2.56566e-11
5.21739e-11
-2.29429e-08
2.29322e-08
2.4328e-08
8.45535e-12
2.32793e-08
1.86033e-11
-3.45665e-11
-2.24921e-11
2.47134e-08
2.32634e-08
2.43374e-08
1.29694e-11
1.33237e-11
-2.29292e-08
2.29269e-08
2.42436e-08
1.43316e-11
-2.42356e-08
2.33448e-08
1.36305e-11
-2.33465e-08
-2.14381e-11
-3.54742e-11
2.47171e-08
2.33465e-08
2.42356e-08
-2.29268e-08
3.51682e-14
1.09271e-07
-1.13019e-12
2.93387e-13
1.0709e-07
9.45905e-14
1.15733e-07
-3.19941e-13
-1.10397e-07
1.10396e-07
1.32256e-13
1.09723e-12
-1.05175e-07
1.05174e-07
1.00795e-12
-1.15858e-07
1.15856e-07
-1.50751e-12
1.10406e-07
1.75832e-13
1.05179e-07
1.1586e-07
-3.53302e-11
-3.79229e-11
-2.41365e-08
-2.40621e-11
2.41889e-08
2.39443e-08
-3.58831e-11
2.1641e-11
1.32627e-11
2.31635e-08
2.36042e-08
-3.87302e-11
-1.31302e-11
2.39111e-08
1.30429e-11
2.35891e-08
2.35821e-11
-6.04301e-11
1.57886e-11
-2.36884e-08
2.36293e-08
-9.331e-12
7.82888e-11
-1.41165e-13
2.33417e-08
2.30558e-08
-5.9957e-11
2.42712e-08
1.63863e-11
6.45124e-12
2.30351e-08
-6.30173e-12
2.42637e-08
-2.17801e-11
-2.41033e-12
-2.44036e-08
-4.84648e-11
2.44837e-08
2.41725e-08
-2.14885e-11
-2.41593e-08
2.69662e-12
5.86517e-12
2.34803e-08
2.39794e-08
-3.72757e-12
-4.59747e-12
2.41594e-08
4.92875e-12
2.39826e-08
4.86697e-11
-2.44835e-08
5.08702e-12
-7.70296e-12
-2.39487e-08
2.39088e-08
1.22399e-11
-4.1349e-12
9.05497e-15
2.38224e-08
2.46244e-08
5.33354e-12
3.58152e-13
2.34407e-08
-7.37154e-12
-6.98133e-14
2.46516e-08
2.34416e-08
-2.04061e-12
-2.47962e-11
-2.43865e-08
8.15723e-12
2.44339e-08
2.41852e-08
-2.45491e-11
-2.41695e-08
5.85052e-12
2.97361e-12
2.3471e-08
2.39785e-08
-2.728e-12
-8.03623e-12
-2.39793e-08
7.73013e-12
2.39793e-08
2.41695e-08
-8.14761e-12
-2.44337e-08
-6.15185e-12
8.38031e-12
-2.39578e-08
2.39899e-08
-4.09012e-12
1.19993e-11
-3.57686e-14
2.38233e-08
2.3442e-08
-7.26614e-12
-2.34468e-08
2.46253e-08
8.70822e-12
5.0813e-13
-2.46568e-08
2.34472e-08
-2.17969e-13
2.46559e-08
-2.39899e-08
-2.28214e-12
-2.50524e-11
-2.43882e-08
8.38532e-12
2.44356e-08
2.41377e-08
-2.46642e-11
5.84206e-12
2.92335e-12
2.34656e-08
2.39844e-08
-2.56369e-12
-8.02985e-12
7.77223e-12
2.39853e-08
2.41282e-08
-8.27986e-12
-6.62763e-12
8.54275e-12
-2.39619e-08
2.39945e-08
-4.11951e-12
1.20089e-11
2.38264e-08
2.34484e-08
-7.12558e-12
2.46282e-08
8.56486e-12
2.34534e-08
2.46586e-08
-3.76144e-11
-3.47253e-11
-2.41333e-08
-2.44044e-11
2.41854e-08
2.38943e-08
-3.53569e-11
-2.38664e-08
1.29392e-11
2.11381e-11
2.31526e-08
2.36019e-08
-3.89052e-11
-1.32493e-11
-2.35867e-08
1.31333e-11
2.35866e-08
2.38666e-08
2.3708e-11
-2.41852e-08
-6.04309e-11
1.57763e-11
-2.36879e-08
2.36287e-08
-9.46435e-12
7.80187e-11
-6.13705e-14
2.33404e-08
2.30543e-08
-6.0543e-11
-2.30334e-08
2.42709e-08
1.65347e-11
6.63939e-12
-2.42637e-08
2.30334e-08
-6.3379e-12
2.42633e-08
-2.36281e-08
-3.7156e-11
-3.79966e-11
-2.41097e-08
2.61971e-11
2.41317e-08
2.38999e-08
-3.82846e-11
-2.38699e-08
1.31375e-11
2.12922e-11
2.31374e-08
2.35909e-08
-3.81439e-11
-1.62177e-11
-2.35737e-08
1.59709e-11
2.35736e-08
2.387e-08
-2.66416e-11
-2.41316e-08
1.88572e-11
-5.91598e-11
-2.36885e-08
2.36919e-08
7.80602e-11
-9.61589e-12
2.33374e-08
2.4269e-08
1.92836e-11
-2.4252e-08
2.30463e-08
-6.04548e-11
-2.30291e-08
2.42522e-08
2.30291e-08
-2.36917e-08
-3.78968e-11
-3.70265e-11
-2.41125e-08
2.61218e-11
2.4134e-08
2.39497e-08
-3.86146e-11
2.12758e-11
1.30445e-11
2.3149e-08
2.35932e-08
-3.73221e-11
-1.61512e-11
2.39195e-08
1.58197e-11
2.35764e-08
-2.66248e-11
1.87767e-11
-5.90304e-11
-2.36884e-08
2.36917e-08
7.83173e-11
-9.55547e-12
2.33387e-08
2.42691e-08
1.90887e-11
2.30475e-08
-5.96092e-11
2.42524e-08
2.30307e-08
-2.17292e-11
-2.68758e-12
-2.44071e-08
-4.85021e-11
2.44873e-08
2.41259e-08
-2.1265e-11
2.4515e-12
6.08503e-12
2.3475e-08
2.39854e-08
-3.7765e-12
-4.49323e-12
2.41131e-08
5.03545e-12
2.39886e-08
4.88571e-11
5.18042e-12
-8.0333e-12
-2.39537e-08
2.39137e-08
1.23111e-11
-4.11609e-12
2.38255e-08
2.46276e-08
5.12978e-12
2.34468e-08
-7.4564e-12
2.46545e-08
2.34477e-08
-2.64549e-12
-3.29755e-14
3.57586e-09
-1.70757e-13
-3.57773e-09
-1.32982e-12
-6.44654e-14
1.99098e-09
-4.88714e-14
-1.99214e-09
-5.76372e-13
-4.13676e-14
9.91319e-10
-2.47063e-15
-9.91981e-10
-2.03187e-13
-1.55383e-14
4.11515e-10
1.25515e-14
-4.11828e-10
-8.77291e-15
9.79696e-11
-1.91428e-16
-9.81121e-11
-3.66807e-12
7.96962e-14
6.76546e-09
-2.07996e-16
-1.81195e-12
9.6296e-14
3.75178e-09
8.85309e-15
-7.42815e-13
5.98756e-14
1.86717e-09
4.39481e-15
-2.07201e-13
2.42887e-14
7.76206e-10
-1.92562e-15
1.17045e-14
1.854e-10
3.23709e-15
-2.55835e-12
-9.61778e-14
3.58341e-09
-1.30146e-13
-3.58516e-09
-1.29486e-12
-9.75014e-14
1.99479e-09
-2.4905e-14
-1.99589e-09
-5.7111e-13
-5.24368e-14
9.93116e-10
7.6175e-15
-9.93735e-10
-2.10431e-13
-1.4776e-14
4.12202e-10
1.34668e-14
-4.12487e-10
-1.07441e-14
9.81161e-11
1.83439e-15
-9.82543e-11
-3.49585e-12
5.29541e-14
6.77107e-09
-6.91632e-15
-6.77376e-09
-1.72804e-12
7.73178e-14
3.75485e-09
8.17429e-15
-3.7567e-09
-7.16199e-13
5.52726e-14
1.86873e-09
6.83778e-15
-1.86979e-09
-2.21522e-13
3.05751e-14
7.76892e-10
2.50342e-15
-7.77405e-10
9.76259e-15
1.85568e-10
3.63286e-15
-1.85792e-10
-3.53686e-12
6.76513e-09
-1.79065e-14
-6.76789e-09
-1.73038e-12
3.75161e-09
-5.50584e-15
-3.75351e-09
-6.81625e-13
1.86699e-09
-4.53217e-15
-1.86812e-09
-1.74984e-13
7.76138e-10
-7.66252e-15
-7.76717e-10
1.85458e-10
2.58347e-15
-1.85689e-10
-3.3723e-12
6.7713e-09
-1.20162e-13
-6.77388e-09
-1.64827e-12
3.75494e-09
-6.58343e-14
-3.75674e-09
-6.51535e-13
1.86874e-09
-3.42227e-14
-1.86981e-09
-1.69137e-13
7.76813e-10
-1.91993e-14
-7.77358e-10
1.85541e-10
3.96856e-17
-1.85765e-10
-2.61905e-12
3.5766e-09
-1.02449e-13
-1.29044e-12
1.99141e-09
-2.33098e-15
-5.35642e-13
9.91578e-10
2.42574e-14
-1.74362e-13
4.1158e-10
2.41758e-14
9.7972e-11
2.40133e-15
-3.38395e-12
6.04688e-14
-5.23137e-14
6.77104e-09
-1.63136e-12
6.34109e-14
-2.70263e-14
3.75498e-09
-6.17058e-13
2.02386e-14
-2.27315e-14
1.86879e-09
-1.2547e-13
-1.35077e-14
-2.29588e-14
7.76855e-10
9.10721e-15
1.21201e-15
1.85604e-10
-2.51196e-12
3.58311e-09
-1.62642e-13
-3.58491e-09
-1.23478e-12
1.99474e-09
-5.62e-14
-1.99589e-09
-4.98827e-13
9.93027e-10
-1.66205e-14
-9.93699e-10
-1.44966e-13
4.122e-10
-3.64001e-15
-4.12533e-10
9.80975e-11
-1.27919e-15
-9.82421e-11
-2.61156e-12
3.58316e-09
-9.86235e-14
-1.31238e-12
1.9948e-09
9.76084e-15
-5.73329e-13
9.93171e-10
4.25813e-14
-2.08067e-13
4.12278e-10
4.26939e-14
9.81375e-11
3.87347e-15
-2.62486e-12
-6.03117e-14
3.58236e-09
-1.29278e-13
-1.29948e-12
-8.26173e-14
1.99419e-09
-3.06932e-14
-5.45629e-13
-5.32829e-14
9.92792e-10
-3.23556e-16
-1.74395e-13
-2.18696e-14
4.12122e-10
4.65778e-15
-1.08766e-14
9.81135e-11
1.2423e-15
-3.54424e-12
1.27417e-13
-1.53354e-14
6.76452e-09
-1.77514e-12
1.34067e-13
1.92666e-14
3.75124e-09
-7.56446e-13
9.22441e-14
2.57912e-14
1.86703e-09
-2.4391e-13
4.89864e-14
2.12128e-14
7.7616e-10
1.52298e-14
3.96551e-15
1.85419e-10
-2.66577e-12
3.57491e-09
-1.21661e-13
-1.29983e-12
1.99054e-09
-3.11994e-14
-5.21938e-13
9.91125e-10
-8.48593e-15
-1.49145e-13
4.11404e-10
-6.67148e-15
9.79362e-11
8.82117e-16
-2.66257e-12
-1.14432e-13
3.57636e-09
-8.24393e-14
-1.31069e-12
-1.22623e-13
1.99137e-09
-8.05532e-15
-5.33952e-13
-8.12121e-14
9.91498e-10
4.4721e-15
-1.49399e-13
-4.08175e-14
4.11592e-10
4.57059e-16
-1.34547e-14
9.79684e-11
1.93147e-15
-3.57656e-12
-1.56213e-14
6.76961e-09
-1.76262e-12
-1.36207e-15
3.75394e-09
-7.14952e-13
-5.18672e-15
1.86828e-09
-1.97176e-13
-1.12153e-14
7.76697e-10
3.24782e-15
1.85527e-10
-3.72133e-12
-2.93547e-14
6.76518e-09
-1.87995e-12
4.71418e-15
3.75176e-09
-8.02668e-13
1.87346e-14
1.86712e-09
-2.48844e-13
2.073e-14
7.76215e-10
2.98107e-15
1.8539e-10
4.62943e-12
-7.91939e-14
3.34811e-13
-6.78583e-09
6.78889e-09
2.30695e-12
1.73728e-14
1.89357e-13
-3.76178e-09
3.76392e-09
9.23314e-13
3.40361e-14
1.00657e-13
-1.87116e-09
1.87244e-09
2.46524e-13
2.48171e-14
4.6314e-14
-7.77536e-10
7.78186e-10
5.97726e-15
1.22026e-14
-1.85662e-10
1.85926e-10
2.64393e-12
8.17642e-14
3.57777e-09
1.3116e-12
1.06937e-13
1.9922e-09
5.43643e-13
7.27847e-14
9.9202e-10
1.66821e-13
3.44623e-14
4.11855e-10
1.31443e-14
9.81175e-11
3.61339e-12
-5.34425e-14
-5.60081e-15
6.76827e-09
1.77845e-12
-8.62233e-14
-2.02726e-14
3.75374e-09
7.23133e-13
-5.87425e-14
-1.79273e-14
1.86832e-09
2.1082e-13
-2.76013e-14
-1.06364e-14
7.7678e-10
-1.07187e-14
-4.9418e-15
1.85636e-10
-2.47407e-12
-2.24847e-13
-4.20077e-09
3.49572e-13
4.19886e-09
-1.26195e-12
-1.38366e-13
-2.33108e-09
2.123e-13
2.32982e-09
-5.49557e-13
-8.11244e-14
-1.15951e-09
1.25992e-13
1.15878e-09
-1.84659e-13
-4.31049e-14
-4.81399e-10
6.95178e-14
4.81055e-10
-7.50229e-15
-1.14797e-10
1.31248e-14
1.14644e-10
-2.53486e-12
-5.7337e-14
-4.56214e-09
4.56009e-09
-1.27291e-12
-4.5538e-14
-2.5323e-09
2.53093e-09
-5.21475e-13
-3.51394e-14
-1.26064e-09
1.25985e-09
-1.59774e-13
-2.45777e-14
-5.23934e-10
5.23547e-10
-3.0843e-15
-1.25131e-10
1.24965e-10
4.41823e-12
-1.65841e-13
-6.79523e-09
3.53485e-13
6.7983e-09
2.1589e-12
-4.32028e-14
-3.76702e-09
2.00787e-13
3.76916e-09
8.38433e-13
2.94337e-15
-1.87384e-09
1.06254e-13
1.87511e-09
2.11588e-13
1.66211e-14
-7.78591e-10
4.70483e-14
7.79234e-10
3.79672e-16
-1.85912e-10
1.42633e-14
1.86171e-10
2.58584e-12
3.58531e-09
-2.07591e-15
1.27467e-12
1.99598e-09
4.94656e-14
5.27351e-13
9.9379e-10
3.90161e-14
1.64591e-13
4.12521e-10
2.0298e-14
9.82609e-11
7.91444e-15
-2.67095e-12
-7.21051e-14
-1.60565e-13
3.58352e-09
-1.33558e-12
-9.27067e-14
-4.93975e-14
1.99481e-09
-5.54268e-13
-5.9345e-14
-1.35797e-14
9.93102e-10
-1.67157e-13
-2.64386e-14
-4.3266e-15
4.12186e-10
-1.08835e-14
1.43764e-16
9.81148e-11
3.50157e-12
6.77389e-09
-3.3675e-14
-3.99946e-14
1.69751e-12
3.75677e-09
-8.01266e-14
-3.86277e-14
6.87941e-13
1.86982e-09
-5.62224e-14
-3.23006e-14
2.08655e-13
7.77416e-10
-2.72859e-14
-1.98425e-14
1.85796e-10
-9.9716e-15
-6.84601e-15
-3.63146e-12
2.90233e-14
6.77118e-09
-3.13888e-14
-1.79428e-12
7.35806e-14
3.75487e-09
-1.89242e-14
-7.36283e-13
5.94003e-14
1.86872e-09
-1.34568e-14
-2.15592e-13
3.47415e-14
7.76876e-10
-1.04275e-14
1.0829e-14
1.85566e-10
1.1532e-15
-2.41763e-12
3.5594e-09
-1.443e-13
-1.21968e-12
1.98146e-09
-5.13165e-14
-5.20118e-13
9.86587e-10
-1.41458e-14
-1.75536e-13
4.09515e-10
2.54084e-15
9.74907e-11
-2.6235e-15
2.43833e-12
1.19288e-13
1.45913e-14
3.56121e-09
1.20961e-12
3.74651e-14
1.96834e-14
1.98262e-09
5.0335e-13
6.45943e-15
1.70836e-14
9.87244e-10
1.59935e-13
-6.36297e-15
1.00229e-14
4.09825e-10
1.92868e-15
4.08707e-15
9.76301e-11
-2.41143e-12
3.55723e-09
-1.98845e-13
-1.19183e-12
1.98033e-09
-9.55221e-14
-4.8011e-13
9.85999e-10
-5.09683e-14
-1.3352e-13
4.09267e-10
-2.50421e-14
9.74371e-11
-6.51151e-15
2.49579e-12
1.80514e-13
2.828e-14
3.55903e-09
1.22421e-12
9.19651e-14
3.12388e-14
1.98152e-09
4.85604e-13
5.75975e-14
2.47794e-14
9.86707e-10
1.23752e-13
3.68151e-14
1.45277e-14
4.09627e-10
5.6743e-15
5.38331e-15
9.75819e-11
-3.6979e-12
-1.52227e-14
6.54221e-09
-1.83337e-12
-2.11815e-14
3.62403e-09
-7.45126e-13
-2.30979e-14
1.80174e-09
-2.09611e-13
-2.14113e-14
7.48351e-10
-1.46173e-15
1.78566e-10
-3.74529e-12
6.54017e-09
-1.88532e-12
3.62285e-09
-7.94454e-13
1.80131e-09
-2.42512e-13
7.48156e-10
1.78514e-10
3.63819e-12
-3.86836e-14
6.54506e-09
1.77968e-12
-2.62355e-14
3.62602e-09
7.11874e-13
-1.72873e-14
1.80291e-09
2.08128e-13
-1.01696e-14
7.48935e-10
-1.96234e-15
1.78801e-10
3.79717e-12
6.54293e-09
1.89235e-12
3.62478e-09
7.73895e-13
1.80243e-09
2.33532e-13
7.48688e-10
1.78746e-10
3.54285e-12
-2.79274e-14
6.768e-09
1.73469e-12
-2.44389e-14
3.7536e-09
7.00483e-13
-1.59664e-14
1.86816e-09
2.05839e-13
-6.52728e-15
7.76723e-10
-4.55797e-15
1.85694e-10
3.52531e-12
6.77419e-09
-7.67507e-14
1.7022e-12
3.75691e-09
-5.30989e-14
6.81405e-13
1.86988e-09
-2.97348e-14
2.04525e-13
7.77376e-10
-1.15554e-14
1.85775e-10
-5.88819e-15
-3.56982e-12
6.7715e-09
-5.88242e-14
-1.75979e-12
3.755e-09
-2.80507e-14
-7.10718e-13
1.86875e-09
-1.02493e-14
-2.02157e-13
7.76809e-10
-4.77836e-15
1.85542e-10
2.34575e-15
2.6438e-12
1.432e-13
3.57848e-09
1.29954e-12
3.22892e-14
1.99262e-09
5.32443e-13
-3.55696e-15
9.92273e-10
1.64074e-13
-1.06692e-14
4.11915e-10
-1.66567e-15
9.81199e-11
-2.38536e-12
3.55998e-09
-1.22937e-13
-1.20657e-12
1.98171e-09
-2.84636e-14
-5.23055e-13
9.86693e-10
8.95227e-15
-1.77678e-13
4.09607e-10
2.26532e-14
9.75107e-11
-1.45623e-15
2.49439e-12
1.12872e-13
4.58533e-14
3.56187e-09
1.2462e-12
2.91155e-14
2.80802e-14
1.98286e-09
5.30551e-13
2.76857e-15
1.04955e-14
9.87331e-10
1.82549e-13
-5.64239e-15
-5.95714e-15
4.09901e-10
-3.05225e-16
6.10577e-15
9.76494e-11
-3.58914e-12
6.54344e-09
9.45441e-15
-1.80133e-12
3.62418e-09
7.14891e-15
-7.41791e-13
1.80201e-09
2.11314e-15
-2.12395e-13
7.48407e-10
-1.62636e-15
1.78583e-10
5.6516e-16
3.78182e-12
2.04714e-14
6.54624e-09
1.85539e-12
2.1039e-14
3.6262e-09
7.42222e-13
1.64445e-14
1.80321e-09
2.13987e-13
1.28871e-14
7.49007e-10
7.21296e-16
1.78823e-10
3.50616e-12
9.50614e-17
6.77388e-09
1.68228e-12
-4.03072e-14
3.75699e-09
6.55588e-13
-2.59624e-14
1.87e-09
1.72294e-13
-7.81464e-15
7.77486e-10
-6.82833e-15
1.8584e-10
-2.32679e-12
-1.13628e-13
-4.19891e-09
2.95971e-13
4.19698e-09
-1.1526e-12
-6.45156e-14
-2.33006e-09
1.66401e-13
2.32878e-09
-4.74698e-13
-3.34147e-14
-1.15895e-09
8.83355e-14
1.15821e-09
-1.45611e-13
-1.5651e-14
-4.8121e-10
4.18775e-14
4.80852e-10
-3.08915e-15
-1.14752e-10
9.60426e-15
1.14596e-10
-2.57509e-12
-4.56101e-09
4.55902e-09
-1.30757e-12
-2.53169e-09
2.53035e-09
-5.5304e-13
-1.26034e-09
1.25956e-09
-1.75301e-13
-5.23804e-10
5.23435e-10
-1.25101e-10
1.24937e-10
4.4484e-12
-1.75624e-13
3.62203e-13
-6.79248e-09
6.79546e-09
2.21807e-12
-5.46168e-14
2.0511e-13
-3.76564e-09
3.76771e-09
9.08881e-13
-1.52768e-14
1.07527e-13
-1.87303e-09
1.87424e-09
2.76033e-13
-3.97015e-15
4.54387e-14
-7.78356e-10
7.78937e-10
-5.99468e-16
1.43081e-14
-1.85815e-10
1.86068e-10
2.5598e-12
3.58496e-09
1.24841e-12
1.99592e-09
5.05007e-13
9.93713e-10
1.52481e-13
4.12536e-10
9.82436e-11
-2.62454e-12
-1.79789e-13
3.58312e-09
-1.29892e-12
-6.27468e-14
1.99472e-09
-5.27152e-13
-1.91321e-14
9.93011e-10
-1.5135e-13
-5.68781e-15
4.12192e-10
-3.06009e-17
9.80967e-11
2.61467e-12
1.62404e-13
3.58496e-09
1.30581e-12
3.88516e-14
1.99595e-09
5.51921e-13
-1.20041e-14
9.93813e-10
1.82822e-13
-2.71447e-14
4.1257e-10
-1.26056e-15
9.82777e-11
4.40105e-12
-2.09274e-13
3.71906e-13
-6.79146e-09
6.79445e-09
2.17678e-12
-8.23115e-14
2.09313e-13
-3.76487e-09
3.76698e-09
8.7497e-13
-3.1413e-14
1.06772e-13
-1.87274e-09
1.87397e-09
2.56107e-13
-9.95564e-15
4.3045e-14
-7.78207e-10
7.78806e-10
-2.75244e-15
1.3555e-14
-1.85825e-10
1.86079e-10
2.58404e-12
-1.88804e-15
3.58421e-09
1.26311e-12
4.71001e-14
1.99538e-09
5.17951e-13
3.61759e-14
9.93471e-10
1.59522e-13
1.8417e-14
4.12448e-10
7.25128e-15
9.82563e-11
-2.3217e-12
3.55715e-09
-7.73519e-14
-1.12573e-12
1.98028e-09
-4.02935e-15
-4.50383e-13
9.86009e-10
7.62773e-15
-1.34193e-13
4.09291e-10
7.44658e-15
9.74712e-11
-1.39024e-16
2.46839e-12
1.898e-14
2.14644e-13
3.55891e-09
1.21226e-12
2.32552e-14
1.16352e-13
1.98142e-09
4.85812e-13
1.95383e-14
6.71593e-14
9.86677e-10
1.35772e-13
1.02653e-14
3.75948e-14
4.09623e-10
5.92915e-15
5.69375e-15
9.76122e-11
-3.5683e-12
1.39547e-13
6.54262e-09
-1.80196e-12
1.07898e-13
3.62396e-09
-7.55929e-13
7.15504e-14
1.80176e-09
-2.36452e-13
4.11867e-14
7.48299e-10
6.64827e-15
1.78587e-10
3.70337e-12
-2.34283e-14
6.76731e-09