/*--------------------------------*- C++ -*----------------------------------*\
| =========                 |                                                 |
| \\      /  F ield         | OpenFOAM: The Open Source CFD Toolbox           |
|  \\    /   O peration     | Version:  2206                                  |
|   \\  /    A nd           | Website:  www.openfoam.com                      |
|    \\/     M anipulation  |                                                 |
\*---------------------------------------------------------------------------*/
FoamFile
{
    version     2.0;
    format      ascii;
    arch        "LSB;label=32;scalar=64";
    class       volVectorField;
    location    "20";
    object      wallShearStress;
}
// * * * * * * * * * * * * * * * * * * * * * * * * * * * * * * * * * * * * * //

dimensions      [0 2 -2 0 0 0 0];

internalField   uniform (0 0 0);

boundaryField
{
    topPatch
    {
        type            calculated;
        value           nonuniform List<vector> 0();
    }
    wall
    {
        type            calculated;
        value           nonuniform List<vector> 
7803
(
(-1.59779e-08 -1.13052e-08 -0.000174891)
(1.25413e-08 -8.78111e-09 -0.000187584)
(-9.97842e-09 -1.8866e-08 -0.000175148)
(-7.28823e-09 7.5069e-09 -0.000187747)
(-1.22868e-08 -8.26541e-09 -0.000187581)
(-4.65223e-09 -1.31173e-08 -0.000187735)
(1.97926e-08 -8.0688e-09 -0.000174893)
(8.26592e-09 -1.4394e-08 -0.000187735)
(-1.01817e-08 1.63636e-08 -0.000175175)
(9.13771e-09 -1.79856e-08 -0.000175162)
(8.11374e-09 1.80591e-08 -0.000175152)
(-1.89457e-08 7.15572e-09 -0.000187572)
(-2.00436e-08 8.06538e-09 -0.000174861)
(2.00081e-08 8.96811e-09 -0.000174888)
(1.00689e-08 1.27179e-08 -0.000187706)
(1.46307e-08 8.24024e-09 -0.000187578)
(-5.69822e-09 1.71795e-08 -0.000188576)
(2.40152e-08 7.29948e-09 -0.000175307)
(-9.8224e-09 9.69288e-09 -0.00018796)
(-1.58628e-08 1.35733e-08 -0.000181071)
(-1.2865e-08 5.89013e-09 -0.000182803)
(1.91092e-08 -1.44325e-08 -0.00018872)
(1.03724e-08 1.65062e-08 -0.000175556)
(-1.02847e-08 -1.75467e-08 -0.00017515)
(9.05071e-09 -9.68723e-09 -0.000188104)
(-7.95327e-09 1.2792e-08 -0.000187745)
(1.43744e-08 3.53536e-09 -0.000176052)
(-1.39975e-08 -3.29633e-09 -0.000176428)
(6.79717e-09 1.28743e-08 -0.000175946)
(-4.8805e-09 -1.47721e-08 -0.000176343)
(4.96484e-10 2.06311e-08 -0.000187794)
(2.02184e-08 4.78239e-10 -0.000187739)
(-3.00109e-09 -1.64161e-08 -0.000188182)
(-2.23035e-08 7.12036e-10 -0.000188121)
(1.16324e-08 8.7914e-09 -0.000187953)
(1.02095e-08 7.54211e-09 -0.000188094)
(-6.70474e-09 -1.33155e-08 -0.000187738)
(-1.90612e-08 8.50003e-09 -0.0001753)
(1.39515e-08 -3.73252e-09 -0.000176075)
(-1.75623e-08 5.90109e-10 -0.000176449)
(2.39622e-09 -1.85414e-08 -0.000187809)
(-2.43194e-09 1.90278e-08 -0.000188197)
(-1.0796e-08 6.29273e-09 -0.0001881)
(-1.36305e-08 -7.82859e-09 -0.000181073)
(-1.23777e-08 1.71831e-09 -0.000182799)
(1.87441e-08 1.34092e-08 -0.000188739)
(8.80463e-09 -1.63826e-08 -0.000175583)
(-9.46873e-09 1.69038e-08 -0.000175176)
(-9.51308e-09 1.64507e-08 -0.000175552)
(-1.96932e-08 1.46281e-08 -0.000188719)
(-9.68187e-09 -1.2119e-08 -0.000175539)
(-2.95582e-10 1.42018e-08 -0.000175966)
(3.66374e-09 -1.37563e-08 -0.00017634)
(-1.39865e-08 6.76239e-09 -0.000187786)
(7.02341e-09 -1.12795e-08 -0.000187947)
(-1.06419e-08 -2.0228e-08 -0.000188512)
(1.80986e-08 -6.76614e-09 -0.000175274)
(1.11498e-08 -1.97958e-08 -0.000188554)
(-1.91222e-08 -8.55395e-09 -0.0001753)
(-8.8803e-09 -9.09813e-09 -0.00018807)
(-1.00188e-08 -1.00882e-08 -0.000187948)
(1.12603e-08 2.06822e-08 -0.000188575)
(-1.90768e-08 -1.42862e-08 -0.000188735)
(-1.68011e-08 1.71886e-08 -0.000181176)
(1.48499e-09 -1.04917e-08 -0.000182478)
(-6.27783e-09 1.2246e-08 -0.000182833)
(1.29268e-08 -1.64959e-08 -0.000180796)
(1.43608e-08 -1.85296e-08 -0.000188115)
(4.99269e-09 -1.44575e-08 -0.000175965)
(-5.47922e-09 1.45501e-08 -0.000176361)
(1.99509e-08 1.34249e-09 -0.000187754)
(-2.00037e-08 6.73688e-10 -0.000188141)
(-1.77795e-08 1.31929e-08 -0.000188285)
(1.45783e-08 -1.32969e-08 -0.000181421)
(-1.23706e-08 9.00461e-09 -0.000182799)
(1.29691e-08 -9.84401e-10 -0.000183143)
(-1.39394e-08 1.55315e-08 -0.000181064)
(-1.89905e-08 1.30162e-08 -0.00018829)
(-1.46367e-08 8.87849e-09 -0.000176055)
(1.76111e-08 -8.62076e-10 -0.000176465)
(8.25566e-09 2.54588e-08 -0.000187809)
(6.2283e-09 -1.2531e-08 -0.000188182)
(-3.42251e-09 -1.26193e-08 -0.000175941)
(2.91332e-09 1.56193e-08 -0.000176332)
(-1.90306e-08 -2.45528e-09 -0.00018775)
(2.07207e-08 9.8607e-10 -0.000188142)
(-1.30417e-08 -8.80029e-09 -0.000176061)
(1.62438e-08 2.49673e-09 -0.000176451)
(2.37038e-09 -2.01915e-08 -0.000187767)
(3.71432e-09 1.64912e-08 -0.000188147)
(1.47256e-08 1.47888e-08 -0.000181162)
(-4.04282e-09 -1.54818e-08 -0.000182464)
(5.87539e-09 1.28648e-08 -0.000182837)
(-9.3234e-09 -1.37756e-08 -0.000180784)
(-1.00548e-08 -1.82936e-08 -0.000188098)
(1.62694e-08 1.87697e-08 -0.00018142)
(-1.00923e-08 -1.01272e-09 -0.000182797)
(1.32095e-08 7.89063e-09 -0.000183137)
(-1.48404e-08 -1.32381e-08 -0.000181066)
(-1.6738e-08 -1.39386e-08 -0.000188307)
(-1.8155e-08 -1.1374e-08 -0.00018831)
(1.7313e-08 8.68826e-09 -0.000188288)
(-1.55196e-08 -1.58658e-08 -0.000181423)
(1.34601e-08 5.06221e-09 -0.000182813)
(-1.07816e-08 -3.68443e-09 -0.000183147)
(1.56415e-08 1.27941e-08 -0.000181079)
(-1.31362e-08 1.67402e-08 -0.000181403)
(1.55949e-08 -3.5035e-09 -0.0001828)
(-1.15658e-08 6.19959e-09 -0.000183134)
(1.40495e-08 -1.02005e-08 -0.000181059)
(1.91384e-08 -9.62568e-09 -0.000188278)
(2.44484e-08 3.30458e-09 -0.000188183)
(8.68287e-09 1.91461e-08 -0.000188042)
(-1.476e-08 -1.67904e-08 -0.000181122)
(4.70143e-09 1.45013e-08 -0.000182441)
(-4.44741e-09 -1.50559e-08 -0.000182803)
(1.16791e-08 1.56574e-08 -0.000180739)
(-6.43914e-09 1.83244e-08 -0.000188087)
(1.54337e-08 -1.63808e-08 -0.000181152)
(-9.11213e-09 1.42731e-08 -0.000182452)
(4.28177e-09 -1.3518e-08 -0.000182817)
(-1.15004e-08 1.57157e-08 -0.000180769)
(1.59423e-08 -1.32718e-08 -0.000175577)
(4.31727e-09 -9.47754e-09 -0.000188095)
(-1.66768e-08 -1.14466e-08 -0.000188304)
(-1.26564e-08 2.16901e-08 -0.00017516)
(-5.91177e-09 1.0974e-08 -0.000187732)
(-1.55971e-08 1.34781e-08 -0.000181054)
(1.37762e-08 -4.36291e-10 -0.000183125)
(-1.45786e-08 6.05836e-09 -0.000182772)
(1.39923e-08 -1.11868e-08 -0.000181404)
(-1.66649e-08 -1.09566e-08 -0.000181051)
(1.08975e-08 4.94364e-09 -0.000183117)
(-1.14265e-08 -2.07491e-09 -0.000182764)
(1.62353e-08 1.61806e-08 -0.0001814)
(1.99319e-08 1.52837e-08 -0.000188723)
(2.10362e-08 -2.74135e-09 -0.000176447)
(-1.64492e-08 1.06764e-08 -0.000176029)
(7.38719e-09 -5.59156e-09 -0.00018817)
(8.32925e-09 2.85223e-08 -0.000187788)
(9.72219e-09 1.01154e-08 -0.000187946)
(9.48648e-09 2.45764e-09 -0.000188076)
(2.1934e-08 7.70808e-09 -0.000175294)
(1.19886e-08 1.44267e-08 -0.000175539)
(-1.47117e-08 -9.80573e-09 -0.000187556)
(-2.79728e-09 -1.82659e-08 -0.000187708)
(1.52162e-08 -2.0674e-08 -0.000188109)
(-1.51164e-08 -1.15581e-08 -0.000174877)
(-9.13066e-09 -2.20158e-08 -0.000175126)
(2.18926e-08 4.26264e-09 -0.000188141)
(3.29377e-09 1.25823e-08 -0.00018814)
(-1.97516e-08 1.16387e-08 -0.000188272)
(2.03251e-08 -1.57152e-08 -0.000188698)
(3.71996e-10 1.50332e-08 -0.000176321)
(-6.0392e-09 -1.1156e-08 -0.000175929)
(2.00232e-08 -1.03703e-09 -0.000176441)
(-1.06909e-08 -1.47127e-08 -0.000176041)
(2.80363e-09 -2.09293e-08 -0.000187752)
(-2.18838e-08 -7.35827e-10 -0.000187734)
(1.13208e-08 -1.97095e-08 -0.000180789)
(-3.77504e-09 9.65596e-09 -0.000182822)
(4.23918e-09 -1.32676e-08 -0.000182448)
(-1.17024e-08 1.54712e-08 -0.000181164)
(-4.46792e-09 1.70155e-08 -0.000188565)
(-3.04456e-08 -7.33878e-09 -0.000174955)
(2.61471e-08 -3.10101e-09 -0.000187646)
(7.08756e-09 2.41782e-08 -0.000188028)
(-1.04036e-08 -1.66644e-08 -0.000175188)
(-1.21444e-08 1.6738e-08 -0.000187791)
(4.88345e-09 1.87569e-08 -0.000187764)
(-1.41796e-08 -8.67988e-09 -0.000188143)
(1.55196e-08 8.3879e-09 -0.000187644)
(-9.59468e-09 -1.52153e-08 -0.00018803)
(-1.4889e-08 -8.56582e-09 -0.000188168)
(9.74899e-09 1.76187e-08 -0.000187735)
(-5.24987e-09 -1.84776e-08 -0.00018805)
(1.78393e-08 1.04049e-08 -0.000187625)
(-2.77686e-08 -2.33483e-09 -0.000187653)
(-1.31944e-08 -1.199e-08 -0.00018778)
(3.15065e-08 -5.62911e-09 -0.000174951)
(-6.9909e-09 1.1787e-08 -0.000175386)
(6.61102e-09 -1.31043e-08 -0.000187789)
(-6.48535e-09 2.40921e-08 -0.000175207)
(1.32352e-08 -1.93823e-08 -0.000175203)
(5.40815e-09 1.99951e-08 -0.000175167)
(-1.49222e-08 6.75646e-09 -0.000187623)
(-2.03898e-08 1.04449e-08 -0.000174929)
(1.35468e-08 6.94177e-09 -0.000174952)
(1.00517e-08 2.0836e-08 -0.000187747)
(1.48702e-08 1.18318e-08 -0.000187639)
(1.20438e-08 7.40413e-09 -0.00017611)
(-2.18632e-08 -8.31523e-11 -0.000176515)
(5.1687e-09 1.22555e-08 -0.000176015)
(-3.05399e-09 -1.82037e-08 -0.000176421)
(-2.16e-09 2.21125e-08 -0.000187866)
(2.03605e-08 1.80595e-10 -0.00018781)
(-1.52332e-08 -4.87339e-09 -0.000176508)
(1.28387e-08 9.07278e-09 -0.000176083)
(-3.79176e-09 -1.51988e-08 -0.000176417)
(5.23157e-09 1.41274e-08 -0.000175989)
(-1.51566e-08 -9.21064e-09 -0.000180857)
(-8.84918e-09 1.8581e-08 -0.000182944)
(-1.45806e-09 -1.57184e-08 -0.000182525)
(-3.92194e-08 2.04578e-08 -0.000181277)
(-2.64084e-08 2.63427e-08 -0.000188683)
(7.52031e-09 1.36575e-08 -0.000175421)
(-8.60303e-09 -1.58962e-08 -0.000188166)
(-3.41618e-08 -4.45051e-09 -0.000174949)
(4.54011e-09 1.89082e-08 -0.000188045)
(3.763e-08 7.74082e-10 -0.00018761)
(2.13889e-08 -6.74689e-09 -0.000188807)
(4.48726e-09 2.66705e-08 -0.000175639)
(1.40407e-08 -8.32451e-09 -0.000188195)
(1.08313e-08 8.08563e-09 -0.000176091)
(-1.29009e-08 -1.15277e-09 -0.00017653)
(3.98993e-09 1.43423e-08 -0.000175996)
(2.44046e-09 -1.71991e-08 -0.000176426)
(-1.22507e-08 -4.85809e-09 -0.000188137)
(7.53856e-09 1.52071e-08 -0.00018774)
(-9.9114e-09 -1.16949e-08 -0.00018803)
(9.86073e-09 9.9641e-09 -0.000187628)
(-1.90543e-08 4.84363e-11 -0.000176535)
(1.33733e-08 7.56727e-09 -0.000176092)
(2.94183e-09 -2.19392e-08 -0.000176438)
(2.28847e-09 1.38124e-08 -0.000175998)
(-3.43493e-09 -1.86878e-08 -0.000188288)
(-1.78937e-08 -5.66138e-09 -0.000188229)
(1.40138e-08 6.07909e-09 -0.000176089)
(-1.54978e-08 -1.65099e-09 -0.000176518)
(3.56401e-09 1.44759e-08 -0.000175995)
(1.38712e-09 -1.65813e-08 -0.000176422)
(7.97977e-09 1.9068e-08 -0.000187738)
(-1.25511e-08 -9.14132e-09 -0.00018816)
(1.65389e-08 1.00906e-08 -0.000187633)
(-5.90955e-09 -1.44638e-08 -0.000188041)
(-2.59247e-09 1.64322e-08 -0.000188063)
(-3.34049e-08 9.75958e-10 -0.000187626)
(9.33634e-09 1.6015e-08 -0.000188184)
(2.03146e-08 -9.09496e-09 -0.000180853)
(1.99555e-08 1.70909e-08 -0.000182937)
(1.60177e-08 -1.5027e-08 -0.000182528)
(4.64299e-08 2.15915e-08 -0.000181268)
(-6.65322e-09 1.29186e-08 -0.000175411)
(3.27471e-08 -6.41444e-09 -0.000174936)
(1.77699e-08 -3.68608e-09 -0.000176099)
(-1.16438e-08 1.47939e-08 -0.000176532)
(2.17611e-08 -9.95515e-11 -0.00017609)
(8.06308e-09 -1.24744e-08 -0.000187835)
(3.05894e-09 2.78821e-08 -0.000188269)
(-7.81954e-09 1.44476e-08 -0.000188206)
(1.3608e-08 -6.79771e-09 -0.000187782)
(9.93204e-09 -1.43022e-08 -0.000175661)
(1.87119e-08 1.19761e-08 -0.000181108)
(8.66179e-09 4.70115e-09 -0.000182825)
(-1.20369e-08 1.96376e-08 -0.000175668)
(1.28019e-08 -1.69101e-08 -0.000175202)
(7.94965e-09 -1.6606e-08 -0.000181073)
(1.66913e-08 -6.8589e-09 -0.000182811)
(-2.99392e-08 1.33831e-08 -0.000188794)
(-6.19138e-09 -1.15316e-08 -0.000175638)
(1.38679e-09 1.78458e-08 -0.000175174)
(-1.647e-09 1.99805e-08 -0.000176004)
(1.90746e-09 -1.92291e-08 -0.00017642)
(5.1592e-09 -1.35243e-08 -0.000188029)
(1.70615e-08 -1.16608e-08 -0.000175375)
(1.20007e-08 -2.58121e-08 -0.000188643)
(-1.24376e-08 -8.38605e-09 -0.000175393)
(-1.44943e-08 -1.08184e-08 -0.000188171)
(1.50615e-08 1.0284e-08 -0.000187738)
(-7.12565e-09 -1.1906e-08 -0.000188054)
(2.27968e-08 6.05872e-09 -0.000175304)
(-8.83479e-09 9.28657e-09 -0.00018795)
(9.61535e-09 1.69302e-08 -0.000175552)
(1.02405e-08 -8.97595e-09 -0.000188102)
(-1.51905e-08 -8.5622e-09 -0.000174883)
(2.46492e-08 7.02291e-09 -0.000175294)
(8.19341e-09 -1.01269e-08 -0.000187574)
(-1.69433e-08 6.55226e-09 -0.000187945)
(-9.39822e-09 -1.27865e-08 -0.000175145)
(6.88041e-09 2.5711e-08 -0.000175549)
(-1.16364e-08 8.87336e-09 -0.000187738)
(9.5597e-09 -1.50227e-08 -0.000188091)
(-1.88043e-08 -1.05218e-08 -0.000174901)
(1.53795e-08 6.55017e-09 -0.000175341)
(1.56074e-08 -9.75551e-09 -0.000187599)
(-9.95412e-09 7.30447e-09 -0.000187981)
(-1.31192e-08 -1.32021e-08 -0.000175157)
(7.33918e-09 1.60038e-08 -0.000175579)
(-1.06412e-08 1.3879e-08 -0.000187754)
(7.05009e-09 -1.02297e-08 -0.000188125)
(-2.11939e-08 -1.03576e-08 -0.000174941)
(1.47977e-08 6.42157e-09 -0.000175343)
(1.50479e-08 -1.0787e-08 -0.000187628)
(-5.90045e-09 1.04295e-08 -0.000187997)
(-9.92716e-09 -2.34969e-08 -0.000175185)
(1.02874e-08 6.36726e-09 -0.000175578)
(-1.37634e-08 1.11118e-08 -0.000187794)
(8.89274e-09 -7.37816e-09 -0.000188149)
(-1.89622e-08 -1.37745e-08 -0.000174941)
(2.24963e-08 6.37424e-09 -0.000175361)
(1.22836e-08 -1.35791e-08 -0.000187641)
(-1.27174e-08 7.35481e-09 -0.000188019)
(-1.41562e-08 -1.68839e-08 -0.000175182)
(7.00358e-09 1.69541e-08 -0.000175592)
(-1.51145e-08 1.01009e-08 -0.000187802)
(7.29807e-09 -1.2339e-08 -0.000188171)
(-1.45046e-08 -1.37433e-08 -0.00017493)
(2.22107e-08 5.33962e-09 -0.000175355)
(1.60241e-08 -1.01082e-08 -0.000187633)
(-8.62035e-09 1.08924e-08 -0.000188009)
(-1.16337e-08 -1.51181e-08 -0.000175174)
(7.26617e-09 1.36246e-08 -0.000175589)
(-1.17406e-08 1.34218e-08 -0.000187795)
(1.1092e-08 -5.24266e-09 -0.000188152)
(-2.16546e-08 -7.5292e-09 -0.000174952)
(2.11172e-08 8.32983e-09 -0.000175366)
(1.22611e-08 -9.34247e-09 -0.000187629)
(-1.60644e-08 8.43966e-09 -0.000187987)
(-6.61544e-09 -1.76308e-08 -0.000175189)
(8.94826e-09 1.79136e-08 -0.000175579)
(-6.91709e-09 1.5526e-08 -0.000187796)
(8.34423e-09 -1.22223e-08 -0.000188151)
(-1.52889e-08 -8.36175e-09 -0.000174955)
(2.02818e-08 1.12128e-08 -0.000175368)
(1.03254e-08 -8.67551e-09 -0.000187629)
(-9.82e-09 1.23437e-08 -0.000187994)
(-7.36087e-09 -1.5373e-08 -0.000175189)
(1.01214e-08 2.0618e-08 -0.000175588)
(-1.07493e-08 6.13823e-09 -0.000187797)
(1.0309e-08 -1.20888e-08 -0.00018814)
(-1.33858e-08 -8.79201e-09 -0.000174953)
(1.72217e-08 1.13095e-08 -0.000175372)
(7.45881e-09 -9.48677e-09 -0.000187627)
(-1.17204e-08 1.21678e-08 -0.000187995)
(-9.60813e-09 -1.23826e-08 -0.000175185)
(1.27391e-08 1.59333e-08 -0.000175593)
(-8.02376e-09 9.78842e-09 -0.000187781)
(1.22665e-08 -1.15547e-08 -0.000188133)
(-1.87674e-08 -6.88395e-09 -0.000174928)
(1.82555e-08 7.16902e-09 -0.000175335)
(1.37296e-08 -6.35754e-09 -0.00018761)
(-1.44914e-08 6.98154e-09 -0.000187973)
(-7.23969e-09 -1.82509e-08 -0.000175171)
(8.77788e-09 1.48996e-08 -0.000175571)
(-1.09654e-08 6.91174e-09 -0.000187761)
(8.16889e-09 -1.29292e-08 -0.000188116)
(-1.43889e-08 -1.14636e-08 -0.000174947)
(2.18545e-08 2.69762e-09 -0.000175391)
(1.37793e-08 -1.00225e-08 -0.000187632)
(-7.72408e-09 7.49895e-09 -0.000188027)
(-1.13513e-08 -1.58525e-08 -0.000175198)
(4.94647e-09 1.74202e-08 -0.000175628)
(-1.34073e-08 7.83814e-09 -0.000187791)
(8.13059e-09 -7.36262e-09 -0.000188172)
(-2.13354e-08 -1.28459e-08 -0.000174987)
(1.42628e-08 8.60992e-09 -0.000175411)
(1.6337e-08 -1.23929e-08 -0.000187677)
(-1.26165e-08 7.67694e-09 -0.000188053)
(-1.34691e-08 -1.75279e-08 -0.000175237)
(8.35327e-09 1.26144e-08 -0.00017564)
(-1.33691e-08 1.3567e-08 -0.000187832)
(1.11485e-08 -5.88024e-09 -0.0001882)
(-1.88361e-08 -1.08755e-08 -0.000174986)
(2.07326e-08 7.01707e-09 -0.000175396)
(1.14646e-08 -1.20889e-08 -0.000187675)
(-1.08336e-08 1.02788e-08 -0.000188032)
(-1.04703e-08 -1.4793e-08 -0.000175215)
(8.20382e-09 1.57083e-08 -0.000175614)
(-1.22748e-08 7.60334e-09 -0.000187845)
(9.52782e-09 -1.17084e-08 -0.000188192)
(-1.59433e-08 -1.0841e-08 -0.000174985)
(1.89429e-08 9.3318e-09 -0.000175401)
(1.18881e-08 -8.88809e-09 -0.000187663)
(-1.45118e-08 9.69831e-09 -0.000188025)
(-7.76202e-09 -1.54783e-08 -0.000175214)
(9.08298e-09 1.71212e-08 -0.000175619)
(-7.92857e-09 1.18613e-08 -0.000187834)
(1.01699e-08 -1.11855e-08 -0.000188175)
(-1.85385e-08 -7.81538e-09 -0.000174965)
(1.95314e-08 1.01021e-08 -0.000175382)
(1.07057e-08 -9.25651e-09 -0.00018764)
(-1.3075e-08 1.10708e-08 -0.000188019)
(-7.92535e-09 -1.63554e-08 -0.000175193)
(1.24583e-08 1.6562e-08 -0.000175598)
(-9.33918e-09 8.44382e-09 -0.000187807)
(1.26815e-08 -1.31342e-08 -0.000188173)
(-1.70246e-08 -5.31088e-09 -0.000174976)
(2.00684e-08 1.04448e-08 -0.000175405)
(1.37238e-08 -5.49102e-09 -0.000187656)
(-1.64397e-08 7.79184e-09 -0.000188042)
(-5.14248e-09 -1.72709e-08 -0.000175198)
(1.0028e-08 2.2597e-08 -0.000175625)
(-6.29179e-09 1.42273e-08 -0.00018781)
(9.87593e-09 -1.30419e-08 -0.000188176)
(-1.31796e-08 -1.22487e-08 -0.000174957)
(1.38148e-08 1.47732e-08 -0.000175398)
(1.25304e-08 -9.83151e-09 -0.00018764)
(-7.00726e-09 1.43844e-08 -0.000188033)
(-1.09137e-08 -1.11375e-08 -0.000175189)
(1.30676e-08 1.37639e-08 -0.000175622)
(-1.10928e-08 1.07822e-08 -0.000187779)
(1.33673e-08 -1.12306e-08 -0.00018817)
(1.20221e-08 7.97535e-09 -0.000187949)
(9.08066e-09 9.96574e-09 -0.000188092)
(1.36103e-08 9.78557e-09 -0.000187946)
(-1.29722e-08 -1.05342e-08 -0.00018757)
(9.80246e-09 1.1595e-08 -0.000188088)
(-9.78932e-09 -1.03242e-08 -0.000187732)
(-1.9185e-08 7.23498e-09 -0.000175296)
(2.11076e-08 8.2001e-09 -0.000175298)
(-1.67206e-08 -1.22413e-08 -0.000174876)
(-2.51401e-08 8.11078e-09 -0.000175295)
(1.86676e-08 -1.09468e-08 -0.000174875)
(-9.82457e-09 9.54133e-09 -0.000188097)
(-1.83758e-08 5.76519e-09 -0.000187947)
(1.25711e-08 -9.69969e-09 -0.000187571)
(-1.23504e-08 7.93297e-09 -0.000188092)
(7.08546e-09 -1.6813e-08 -0.000187733)
(9.69747e-09 -1.40749e-08 -0.000175579)
(1.05056e-08 1.63089e-08 -0.00017555)
(-9.9754e-09 -1.64231e-08 -0.000175147)
(8.78061e-09 -1.77204e-08 -0.000175572)
(-7.88765e-09 1.78522e-08 -0.000175173)
(-8.75847e-09 1.59779e-08 -0.000175548)
(-8.93659e-09 -1.41073e-08 -0.000175536)
(-8.15817e-09 1.75795e-08 -0.000175549)
(1.00584e-08 -1.88545e-08 -0.000175146)
(-9.49818e-09 -1.67358e-08 -0.000175527)
(1.07889e-08 1.69566e-08 -0.00017513)
(9.19646e-09 -9.18802e-09 -0.000187938)
(7.26406e-09 -1.60619e-08 -0.0001881)
(-8.43326e-09 1.33395e-08 -0.000187741)
(3.19932e-09 -1.39558e-08 -0.000187934)
(-1.61023e-08 7.98012e-09 -0.000187562)
(1.73304e-08 -8.85119e-09 -0.000175272)
(-2.10729e-08 -7.61826e-09 -0.000175297)
(1.29999e-08 -1.2444e-08 -0.000175267)
(-2.39554e-08 7.46427e-09 -0.000174849)
(-2.0828e-08 -8.20828e-09 -0.000175288)
(1.57699e-08 9.06449e-09 -0.000174878)
(-8.42519e-09 -1.02399e-08 -0.000188063)
(-1.33944e-08 -8.79409e-09 -0.000187947)
(-9.70291e-09 -1.05255e-08 -0.00018805)
(9.18819e-09 1.33229e-08 -0.000187692)
(-1.56783e-08 -8.33838e-09 -0.00018794)
(1.18037e-08 9.89368e-09 -0.000187573)
(-9.76542e-09 -9.61013e-09 -0.000187577)
(1.6481e-08 7.4982e-09 -0.000187945)
(-8.6892e-09 -1.01415e-08 -0.000187726)
(7.54903e-09 1.65417e-08 -0.000188085)
(8.58594e-09 9.79537e-09 -0.000187966)
(-7.97263e-09 -1.1492e-08 -0.000187585)
(7.44408e-09 1.07782e-08 -0.000188101)
(-1.04238e-08 -9.22861e-09 -0.000187733)
(1.24422e-08 -1.16008e-08 -0.000174874)
(-2.72908e-08 5.84673e-09 -0.000175283)
(1.81334e-08 8.59701e-09 -0.000175311)
(-1.42001e-08 -1.04446e-08 -0.000174885)
(-1.69998e-08 7.46771e-09 -0.000175301)
(1.26508e-08 -1.27886e-08 -0.00017487)
(7.35021e-09 -1.46696e-08 -0.00018773)
(-9.91169e-09 1.15438e-08 -0.000188089)
(-1.1897e-08 7.84227e-09 -0.000187964)
(8.75923e-09 -1.09712e-08 -0.000187577)
(-9.74592e-09 7.13267e-09 -0.000188109)
(9.56503e-09 -1.12251e-08 -0.000187737)
(-9.955e-09 1.28425e-08 -0.000175163)
(9.11466e-09 -1.60672e-08 -0.000175553)
(6.58927e-09 2.09063e-08 -0.000175553)
(-1.27547e-08 -8.26904e-09 -0.000175147)
(9.39886e-09 -9.25519e-09 -0.000175568)
(-8.94849e-09 1.58384e-08 -0.000175155)
(9.82024e-09 -1.29339e-08 -0.000175146)
(-5.90848e-09 2.28149e-08 -0.000175548)
(8.67061e-09 1.60888e-08 -0.000175124)
(-7.59095e-09 -1.84593e-08 -0.000175525)
(-7.55684e-09 1.42392e-08 -0.000175569)
(1.19764e-08 -1.04641e-08 -0.000175151)
(-9.17823e-09 -1.07822e-08 -0.000175548)
(1.29321e-08 1.07699e-08 -0.000175124)
(-2.06387e-08 2.93629e-09 -0.000187561)
(1.05893e-08 -9.98541e-09 -0.000187927)
(9.07207e-09 -1.09759e-08 -0.000188102)
(-8.98797e-09 1.02814e-08 -0.000187737)
(6.15464e-10 -1.30249e-08 -0.000187939)
(-1.41635e-08 8.29539e-09 -0.000187555)
(-2.52218e-08 5.59068e-09 -0.000174851)
(1.85875e-08 -1.02971e-08 -0.000175268)
(1.68199e-08 7.47162e-09 -0.000174866)
(-1.91322e-08 -8.15436e-09 -0.000175279)
(1.13167e-08 -1.02686e-08 -0.000175286)
(-1.89763e-08 9.6475e-09 -0.00017485)
(-1.60411e-08 -8.04406e-09 -0.0001753)
(1.75433e-08 8.57224e-09 -0.000174863)
(8.39107e-09 1.08112e-08 -0.000187683)
(-8.8947e-09 -1.06914e-08 -0.00018805)
(1.34716e-08 7.9494e-09 -0.000187562)
(-1.44988e-08 -9.10744e-09 -0.000187937)
(-1.11685e-08 -4.98456e-09 -0.000188067)
(9.58865e-09 1.23549e-08 -0.000187686)
(-7.29339e-09 -1.09778e-08 -0.000187952)
(1.03895e-08 9.47893e-09 -0.000187565)
(-1.45192e-08 -9.00863e-09 -0.000187606)
(8.02486e-09 8.97041e-09 -0.000187991)
(-1.01308e-08 -1.12456e-08 -0.000187754)
(5.5735e-09 1.28166e-08 -0.000188125)
(7.99966e-09 9.89514e-09 -0.000188013)
(-1.83707e-08 -8.2982e-09 -0.000187623)
(1.05293e-08 4.4389e-09 -0.000188143)
(-9.17173e-09 -1.42826e-08 -0.00018777)
(2.02374e-08 -1.04066e-08 -0.00017489)
(-1.98151e-08 5.35801e-09 -0.000175321)
(1.38506e-08 9.97729e-09 -0.000175365)
(-2.42731e-08 -9.59371e-09 -0.000174922)
(-1.74947e-08 7.01059e-09 -0.000175345)
(1.58184e-08 -1.15003e-08 -0.000174907)
(9.40151e-09 -1.46229e-08 -0.000187761)
(-4.36504e-09 1.49933e-08 -0.000188135)
(-1.23852e-08 7.4914e-09 -0.000188003)
(9.02433e-09 -1.232e-08 -0.000187608)
(-1.00909e-08 5.62737e-09 -0.000188159)
(1.12263e-08 -1.17376e-08 -0.000187775)
(-7.74214e-09 2.15959e-08 -0.000175176)
(5.19427e-09 -1.79309e-08 -0.000175592)
(1.27694e-08 6.02977e-09 -0.000175599)
(-9.6457e-09 -2.04249e-08 -0.000175175)
(6.39193e-09 -1.52918e-08 -0.000175622)
(-1.20061e-08 1.40653e-08 -0.000175196)
(9.70537e-09 -1.94951e-08 -0.000175178)
(-6.24488e-09 1.79284e-08 -0.000175591)
(7.99632e-09 2.34051e-08 -0.000175154)
(-5.80779e-09 -1.3029e-08 -0.000175563)
(-7.86052e-09 1.30367e-08 -0.000175605)
(1.09451e-08 -1.69097e-08 -0.000175187)
(-6.10412e-09 -1.68753e-08 -0.000175583)
(1.16789e-08 1.73126e-08 -0.000175164)
(-2.49778e-08 3.59269e-09 -0.000187578)
(1.28119e-08 -5.90528e-09 -0.000187968)
(5.92312e-09 -1.34479e-08 -0.000188158)
(-9.30412e-09 1.43234e-08 -0.000187768)
(1.15982e-08 -7.10444e-09 -0.000187988)
(-1.10039e-08 1.15164e-08 -0.0001876)
(-2.78082e-08 6.75919e-09 -0.000174874)
(2.05364e-08 -6.81125e-09 -0.000175317)
(2.52054e-08 8.54645e-09 -0.000174889)
(-2.17413e-08 -3.98525e-09 -0.000175322)
(1.74111e-08 -7.00051e-09 -0.000175331)
(-1.96225e-08 9.99888e-09 -0.000174897)
(-2.21791e-08 -4.19077e-09 -0.000175342)
(1.64506e-08 1.27482e-08 -0.000174906)
(5.14597e-09 1.99766e-08 -0.000187718)
(-8.88361e-09 -6.33023e-09 -0.000188089)
(2.28797e-08 4.14901e-09 -0.000187592)
(-1.21571e-08 -6.30497e-09 -0.000187975)
(-6.36055e-09 -1.21321e-08 -0.000188106)
(1.0132e-08 1.43847e-08 -0.000187726)
(-1.54632e-08 -5.27189e-09 -0.000187995)
(1.19699e-08 1.13169e-08 -0.000187601)
(-1.27066e-08 -1.08667e-08 -0.00018764)
(6.73372e-09 9.44493e-09 -0.000187993)
(-8.44403e-09 -1.69308e-08 -0.000187778)
(9.57684e-09 6.30041e-09 -0.000188113)
(1.31184e-08 4.43766e-09 -0.000188003)
(-1.72078e-08 -9.02769e-09 -0.00018762)
(5.15236e-09 1.02718e-08 -0.000188118)
(-7.99139e-09 -1.89146e-08 -0.000187753)
(1.726e-08 -1.19564e-08 -0.000174924)
(-1.5244e-08 6.56872e-09 -0.000175339)
(2.00977e-08 4.94185e-09 -0.000175356)
(-2.16914e-08 -1.15351e-08 -0.000174925)
(-2.21105e-08 2.56798e-09 -0.000175361)
(2.11012e-08 -1.04068e-08 -0.000174922)
(1.00583e-08 -1.46872e-08 -0.000187796)
(-8.56425e-09 8.72701e-09 -0.000188149)
(-1.43126e-08 4.98106e-09 -0.000188016)
(1.67072e-08 -8.20484e-09 -0.000187627)
(-7.49311e-09 7.71513e-09 -0.000188156)
(1.01619e-08 -1.33604e-08 -0.000187791)
(-1.33611e-08 1.40017e-08 -0.000175218)
(6.43525e-09 -1.46177e-08 -0.00017561)
(6.32335e-09 1.59594e-08 -0.000175591)
(-8.5187e-09 -2.66755e-08 -0.000175168)
(1.96551e-09 -1.9431e-08 -0.00017563)
(-1.25704e-08 1.67973e-08 -0.000175208)
(1.12828e-08 -1.73843e-08 -0.000175201)
(-9.06152e-09 1.14112e-08 -0.000175593)
(1.22167e-08 1.53558e-08 -0.000175181)
(-7.0148e-09 -1.43804e-08 -0.000175577)
(-6.94543e-09 1.21181e-08 -0.000175605)
(8.98777e-09 -2.21661e-08 -0.000175191)
(-4.31879e-09 -1.70975e-08 -0.000175595)
(1.22035e-08 1.41084e-08 -0.000175176)
(-1.38701e-08 1.09905e-08 -0.000187619)
(1.19856e-08 -6.71154e-09 -0.000187977)
(3.62927e-09 -1.51375e-08 -0.000188163)
(-7.31709e-09 1.84111e-08 -0.00018779)
(9.58258e-09 -6.7226e-09 -0.000187988)
(-1.21136e-08 1.27666e-08 -0.000187608)
(-2.00107e-08 1.07794e-08 -0.00017491)
(1.9819e-08 -5.0839e-09 -0.000175322)
(1.39128e-08 1.39891e-08 -0.00017492)
(-2.20817e-08 -3.97943e-09 -0.00017533)
(2.05367e-08 -3.99222e-09 -0.000175334)
(-1.81116e-08 1.21955e-08 -0.000174899)
(-1.98848e-08 -3.22301e-09 -0.000175345)
(1.40723e-08 1.2966e-08 -0.000174912)
(1.13454e-08 1.06345e-08 -0.000187749)
(-8.64645e-09 -1.07299e-08 -0.000188112)
(1.17302e-08 1.2005e-08 -0.000187621)
(-1.24392e-08 -7.18069e-09 -0.000187987)
(-5.74238e-09 -1.1964e-08 -0.000188121)
(9.52111e-09 1.212e-08 -0.000187754)
(-1.36221e-08 -4.79159e-09 -0.000188001)
(1.08047e-08 1.11849e-08 -0.000187614)
(-9.23939e-09 -1.28055e-08 -0.000187637)
(1.50699e-08 5.97885e-09 -0.000188013)
(-1.16626e-08 -1.29586e-08 -0.000187759)
(7.70915e-09 1.21174e-08 -0.000188126)
(8.83915e-09 9.57563e-09 -0.000188004)
(-1.14195e-08 -1.04327e-08 -0.000187638)
(1.01932e-08 8.68001e-09 -0.000188121)
(-9.9579e-09 -1.30371e-08 -0.00018776)
(1.64057e-08 -1.32842e-08 -0.000174942)
(-2.1525e-08 5.44163e-09 -0.000175366)
(1.72498e-08 8.76046e-09 -0.000175348)
(-1.78477e-08 -1.08049e-08 -0.00017494)
(-1.65485e-08 8.13347e-09 -0.000175354)
(1.75147e-08 -1.03743e-08 -0.000174942)
(1.07445e-08 -1.50994e-08 -0.000187797)
(-8.86389e-09 1.01835e-08 -0.000188151)
(-9.55071e-09 9.56641e-09 -0.000188006)
(1.18484e-08 -1.08689e-08 -0.000187643)
(-1.27294e-08 1.60543e-09 -0.000188135)
(7.58364e-09 -1.62934e-08 -0.000187785)
(-1.41008e-08 1.4409e-08 -0.000175231)
(5.68893e-09 -1.90738e-08 -0.000175641)
(8.59363e-09 1.45351e-08 -0.000175584)
(-1.18067e-08 -1.46085e-08 -0.000175182)
(7.90941e-09 -1.17327e-08 -0.000175629)
(-1.17819e-08 1.52811e-08 -0.000175235)
(1.02419e-08 -2.12993e-08 -0.000175205)
(-7.54131e-09 1.40007e-08 -0.000175606)
(1.22663e-08 1.9104e-08 -0.000175195)
(-6.25263e-09 -1.54512e-08 -0.000175605)
(-9.16898e-09 1.00474e-08 -0.000175595)
(9.36355e-09 -2.16689e-08 -0.000175196)
(-6.72172e-09 -1.474e-08 -0.000175592)
(1.09263e-08 1.56309e-08 -0.000175198)
(-1.73687e-08 1.05483e-08 -0.000187624)
(9.0077e-09 -8.67893e-09 -0.000187999)
(9.21142e-09 -8.98863e-09 -0.000188162)
(-8.3348e-09 1.49442e-08 -0.000187807)
(5.15301e-09 -1.14722e-08 -0.000187997)
(-1.47172e-08 8.90158e-09 -0.000187626)
(-1.94295e-08 1.2633e-08 -0.000174916)
(1.80496e-08 -6.7155e-09 -0.000175341)
(2.15896e-08 1.28595e-08 -0.000174926)
(-1.82241e-08 -5.78931e-09 -0.000175346)
(1.67943e-08 -7.65078e-09 -0.000175337)
(-2.03241e-08 9.471e-09 -0.000174921)
(-1.72318e-08 -7.21503e-09 -0.000175336)
(1.9743e-08 1.05822e-08 -0.000174923)
(9.88542e-09 1.41321e-08 -0.000187769)
(-6.69698e-09 -1.28047e-08 -0.000188136)
(1.71588e-08 9.41369e-09 -0.000187632)
(-1.20572e-08 -6.93883e-09 -0.000188006)
(-8.75479e-09 -9.60732e-09 -0.000188124)
(1.14144e-08 1.01076e-08 -0.00018777)
(-1.15349e-08 -7.82899e-09 -0.000187994)
(1.31739e-08 1.01133e-08 -0.00018763)
(-1.05319e-08 -1.13942e-08 -0.000187628)
(8.17543e-09 8.20599e-09 -0.000188003)
(-1.07591e-08 -1.26395e-08 -0.000187759)
(1.08781e-08 6.94439e-09 -0.000188125)
(7.27449e-09 1.19412e-08 -0.000188021)
(-1.6359e-08 -7.68636e-09 -0.000187639)
(1.27288e-08 7.85225e-09 -0.000188132)
(-8.87283e-09 -1.76163e-08 -0.000187767)
(2.06938e-08 -1.01949e-08 -0.000174932)
(-1.63574e-08 7.9111e-09 -0.000175358)
(1.72192e-08 1.01155e-08 -0.000175371)
(-1.61575e-08 -1.19675e-08 -0.000174944)
(-1.86815e-08 9.02403e-09 -0.000175355)
(1.87493e-08 -9.95026e-09 -0.000174942)
(7.94255e-09 -1.71741e-08 -0.000187774)
(-1.14347e-08 3.71352e-09 -0.000188131)
(-1.36569e-08 8.29608e-09 -0.000188005)
(1.48815e-08 -9.14421e-09 -0.000187637)
(-9.28961e-09 1.22405e-08 -0.000188137)
(8.29872e-09 -1.65822e-08 -0.000187772)
(-1.14126e-08 1.74042e-08 -0.000175223)
(8.27423e-09 -1.2309e-08 -0.000175629)
(1.06316e-08 1.3422e-08 -0.000175598)
(-1.04392e-08 -1.73228e-08 -0.000175186)
(1.33356e-08 -9.33936e-09 -0.000175639)
(-8.952e-09 2.05501e-08 -0.00017523)
(1.02813e-08 -1.96255e-08 -0.00017519)
(-7.79642e-09 1.57548e-08 -0.000175598)
(1.17044e-08 1.64284e-08 -0.000175189)
(-8.36981e-09 -1.06957e-08 -0.000175596)
(-9.97704e-09 1.49795e-08 -0.000175601)
(1.26283e-08 -1.39189e-08 -0.000175191)
(-9.84782e-09 -1.34568e-08 -0.000175599)
(8.47601e-09 1.92429e-08 -0.000175195)
(-1.6442e-08 8.69438e-09 -0.000187629)
(9.39117e-09 -8.75907e-09 -0.000187998)
(9.0138e-09 -1.08979e-08 -0.000188162)
(-5.63173e-09 2.02304e-08 -0.000187796)
(5.90504e-09 -1.35892e-08 -0.000187995)
(-1.45647e-08 9.57381e-09 -0.000187629)
(-1.90933e-08 1.14304e-08 -0.000174924)
(1.60176e-08 -8.23646e-09 -0.000175343)
(1.88e-08 1.26577e-08 -0.000174915)
(-1.53789e-08 -7.95599e-09 -0.000175337)
(1.44331e-08 -9.91424e-09 -0.000175341)
(-2.28704e-08 8.74682e-09 -0.000174923)
(-1.57582e-08 -1.07307e-08 -0.000175343)
(2.19783e-08 9.4763e-09 -0.000174922)
(1.01129e-08 1.28265e-08 -0.000187766)
(-1.09815e-08 -6.2537e-09 -0.000188129)
(1.49476e-08 9.76866e-09 -0.000187618)
(-9.54524e-09 -9.00287e-09 -0.000187993)
(-1.04926e-08 -8.10229e-09 -0.000188128)
(8.35931e-09 1.45766e-08 -0.000187772)
(-1.1379e-08 -9.9074e-09 -0.000187997)
(1.51658e-08 8.76964e-09 -0.000187622)
(-1.49069e-08 -7.08984e-09 -0.000187654)