/*--------------------------------*- C++ -*----------------------------------*\
| =========                 |                                                 |
| \\      /  F ield         | OpenFOAM: The Open Source CFD Toolbox           |
|  \\    /   O peration     | Version:  2206                                  |
|   \\  /    A nd           | Website:  www.openfoam.com                      |
|    \\/     M anipulation  |                                                 |
\*---------------------------------------------------------------------------*/
FoamFile
{
    version     2.0;
    format      ascii;
    arch        "LSB;label=32;scalar=64";
    class       volScalarField;
    location    "10";
    object      omega;
}
// * * * * * * * * * * * * * * * * * * * * * * * * * * * * * * * * * * * * * //

dimensions      [0 0 -1 0 0 0 0];

internalField   nonuniform List<scalar> 
401248
(
19.0275
20.4026
20.4059
21.5631
21.6306
20.4091
20.447
21.5094
20.4216
20.3509
20.529
21.5337
20.3569
209.885
62.0809
329.326
211.696
65.6592
19.0486
18.9726
19.0266
57.2813
19.8088
28.1774
333.905
19.7935
57.3668
27.5855
109.103
106.725
332.109
333.685
108.595
108.935
200.774
61.5174
56.9279
19.662
27.5991
56.3044
19.6987
27.5817
107.639
102.906
326.826
57.8871
19.5909
28.7118
210.272
65.5219
19.5942
58.1276
28.707
210.834
63.45
19.6702
58.3155
28.6164
211.603
63.864
109.876
104.67
326.135
19.6459
55.9627
27.1886
210.117
61.5642
209.505
59.4773
330.921
327.762
355.135
208.257
114.142
108.542
354.884
252.725
58.9932
227.318
72.1668
225.318
71.1832
251.55
328.291
256.343
65.0034
73.8091
232.203
352.748
208.324
115.97
110.305
356.515
355.67
206.785
115.139
253.879
64.29
74.0725
232.809
73.2007
231.27
251.957
330.907
332.39
70.5032
38.2484
110.508
215.453
37.854
216.937
69.212
71.6766
36.6168
107.973
218.799
38.4135
217.677
70.3231
159.893
337.93
342.113
343.305
345.956
156.589
330.374
330.302
332.389
72.522
38.8904
106.811
219.035
216.585
38.0269
69.7934
72.7045
38.847
104.787
220.847
218.519
38.136
71.7802
162.173
344.08
346.961
341.403
345.305
160.173
352.53
206.99
109.602
114.008
350.726
249.197
60.4727
221.914
70.2585
227.245
71.2462
246.901
70.0898
38.367
106.607
213.423
219.086
37.7396
68.8567
70.0263
37.5996
107.725
215.025
37.223
213.761
69.0383
157.903
339.031
339.513
343.684
341.46
156.162
332.207
256.799
64.8844
227.312
74.1535
356.725
205.159
114.54
113.005
355.399
355.031
210.732
114.45
255.26
64.3815
231.394
74.4293
227.589
73.5612
252.321
353.644
208.549
112.714
114.427
351.13
248.22
62.3943
69.4226
226.041
73.3391
231.332
249.396
355.341
212.589
115.676
114.573
350.588
255.245
63.2642
227.199
74.6785
232.12
73.7788
253.413
70.917
38.8235
108.754
220.122
218.37
37.5768
67.6406
69.7393
38.1085
103.992
210.798
37.3467
216.389
68.5559
154.39
342.376
336.957
340.548
335.907
155.008
331.073
353.49
208.802
112.678
116.456
349.225
252.01
60.6068
70.0133
226.081
73.0364
225.045
250.866
355.15
211.013
115.086
116.328
351.677
251.347
62.186
69.2705
224.876
72.4955
223.048
250.412
335.365
332.786
18.8314
18.7641
18.9307
34.6329
24.4347
24.4033
21.5803
24.9942
24.9473
33.233
35.2005
25.1748
25.218
21.5499
24.5745
25.0476
34.8637
34.5222
24.5123
24.7892
21.5254
24.9062
24.9915
34.3117
34.5205
24.96
24.9053
21.4971
24.6933
24.7339
33.9865
18.8561
18.8432
18.8131
18.7103
18.7759
18.8125
18.8333
18.8857
19.011
23.7144
28.05
56.4877
36.2365
27.8539
37.8866
23.5829
22.2854
28.3888
30.068
21.8577
30.3805
21.9119
22.202
23.8898
28.2036
56.6671
36.8572
27.4403
38.2416
23.9054
22.1434
27.7556
21.7541
29.3727
21.779
30.4172
22.1742
23.7045
28.0832
56.0917
37.5853
37.0965
27.2662
23.6331
22.2248
26.8278
29.9729
21.7295
29.6246
21.6982
22.228
23.6005
27.9832
56.5423
37.1587
36.7514
27.7497
23.4991
22.1848
27.4208
29.3828
21.7509
29.8113
21.772
22.1208
23.8828
28.0912
56.5564
38.068
36.1801
27.5617
23.6385
22.4218
27.7685
30.5999
21.9371
29.9007
21.8851
22.2877
23.8559
28.2651
55.6022
37.6246
36.1515
28.027
23.5603
22.4108
28.089
21.9507
30.6377
21.8928
30.022
22.2665
24.0457
27.5218
59.1804
38.182
28.4541
38.5957
23.634
22.4555
28.357
21.9416
30.695
21.964
30.5096
22.3999
23.7665
27.1298
55.8104
36.5406
28.022
38.0966
23.3624
22.1992
27.8981
21.718
29.932
21.715
29.6911
22.1364
746.949
1653.47
4452.81
16487.6
116782
722.22
1634.35
4421.91
16437.4
116912
746.572
1653.51
4452.95
16489.4
116803
723.629
1633.89
4421.17
16435.1
116892
724.177
1633.96
4421.12
16433.7
116863
723.995
1634.13
4421.6
16437.5
116912
745.853
1653.68
4453.14
16489.3
116803
721.595
1634.07
4421.37
16434.2
116873
746.463
1653.49
4452.98
16489.6
116814
744.889
1653.71
4452.77
16486.6
116782
744.99
1653.57
4452.73
16486
116773
722.295
1634.02
4421.29
16434.5
116881
744.05
1653.61
4453.04
16488.5
116796
745.929
1653.73
4453.03
16488.4
116803
723.019
1634.31
4421.52
16435.4
116892
722.748
1634.23
4421.78
16436.9
116912
722.148
1633.2
4419.55
16428.8
116836
745.844
1653.16
4452.11
16486.8
116782
724.338
1634.1
4421.11
16436.8
116912
736.03
1645.06
4437.84
16457.1
116752
733.665
1638.87
4427
16435.6
116727
720.235
1633.1
4419.63
16429.5
116840
745.584
1653.15
4452.24
16488.6
116803
746.331
1653.84
4452.99
16489.4
116803
721.46
1633.72
4420.69
16434.6
116892
722.077
1634.42
4421.29
16435.2
116892
742.386
1652.6
4451.19
16484.8
116796
744.788
1652.18
4450.18
16484.3
116796
744.282
1652.68
4451.22
16485.2
116795
743.406
1652.17
4450.29
16484.4
116796
721.417
1638.49
4429.43
16451.9
116918
723.709
1638.9
4429.5
16452.1
116921
721.728
1638.22
4428.68
16451.3
116918
723.467
1638.47
4428.52
16451.3
116921
723.458
1633.86
4420.58
16433
116863
723.159
1633.93
4421.04
16436.8
116912
724.014
1634.53
4421.61
16437.4
116912
744.773
1653.21
4452.29
16488.8
116803
744.281
1652.67
4451.12
16483.9
116790
744.247
1652.14
4450.1
16483.3
116790
721.607
1638.4
4429.36
16452.1
116919
722.634
1638.23
4428.63
16451.4
116919
721.412
1633.77
4420.52
16433.3
116873
736.082
1645.08
4437.86
16456.7
116748
733.379
1638.87
4426.96
16435.3
116725
721.227
1633.1
4419.66
16429.6
116853
745.457
1653.15
4452.26
16488.7
116814
745.124
1653.8
4452.95
16489.5
116814
746.236
1653.15
4451.71
16485.8
116782
720.323
1632.97
4419.48
16428.5
116831
744.749
1653.1
4451.79
16485.4
116773
741.578
1652.41
4450.87
16482.3
116759
744.465
1652.02
4449.91
16481.6
116759
719.184
1638.17
4429.49
16451.7
116904
721.614
1633.77
4420.54
16433.9
116881
721.351
1633.16
4419.57
16428.7
116836
746.52
1653.18
4452.08
16487.7
116796
720.757
1633.22
4419.42
16428.7
116840
745.365
1653.21
4452.05
16487.6
116803
722.866
1634.09
4420.81
16434.8
116892
723.9
1633.93
4420.97
16436.3
116912
720.852
1633.03
4419.42
16429.2
116839
720.037
1632.96
4419.44
16428.8
116840
734.694
1644.67
4437.46
16457
116768
733.677
1638.68
4427.1
16436.2
116747
732.562
1638.51
4426.56
16435.8
116747
736.546
1645.25
4438.08
16457.7
116768
722.382
1633.91
4420.32
16429.5
116836
743.254
1652.52
4450.98
16483.4
116777
742.875
1652.05
4450.06
16482.6
116777
722.128
1638.4
4429.08
16449.6
116887
723.287
1638.17
4428.15
16448.7
116887
721.965
1633.88
4420.42
16430.4
116840
735.482
1644.55
4437.22
16456.6
116752
734.107
1638.93
4427.11
16435.8
116727
733.06
1638.68
4426.47
16434.9
116727
735.721
1645.09
4437.95
16457.2
116752
719.453
1633.93
4420.39
16430.3
116840
744.973
1652.38
4450.75
16483.4
116778
743.943
1652.08
4450.05
16482.7
116778
723.162
1638.21
4429.32
16452.5
116918
722.204
1638.06
4428.76
16451.8
116918
744.002
1652.24
4450.7
16483.4
116776
742.987
1652
4450.01
16482.6
116776
723.896
1638.32
4429.3
16452.7
116933
722.392
1638.1
4428.72
16452
116933
744.537
1652.39
4450.93
16484.7
116796
742.651
1652.06
4450.19
16483.8
116796
725.141
1638.7
4429.17
16451.6
116921
724.137
1638.42
4428.56
16450.9
116921
735.125
1644.55
4437.17
16456.4
116751
730.739
1638.97
4427.26
16435.6
116727
733.844
1638.74
4426.47
16434.9
116727
732.684
1645.09
4438.15
16457.2
116751
718.563
1633.68
4420.38
16429.8
116839
735.743
1644.59
4437.21
16455.9
116748
733.608
1638.78
4426.96
16435.2
116725
732.33
1638.55
4426.35
16434.6
116725
736.097
1645.28
4437.94
16456.7
116748
721.385
1633.67
4420.41
16430.4
116853
720.732
1633.94
4420.46
16430.4
116853
717.72
1633.52
4420.37
16429.3
116840
734.205
1644.5
4437.51
16457.8
116775
731.191
1639.09
4427.53
16435.9
116749
733.693
1638.8
4426.69
16435.2
116749
732.242
1645.23
4438.55
16458.6
116775
734.373
1644.65
4437.53
16457.9
116770
732.25
1639.02
4427.59
16436.8
116748
731.733
1638.7
4426.72
16435.9
116748
734.335
1645.48
4438.55
16458.6
116770
717.677
1633.51
4420.35
16428.9
116831
722.752
1638.08
4428.66
16451
116904
719.492
1633.85
4420.6
16429.5
116836
734.103
1644.73
4437.4
16456.6
116759
732.76
1639.06
4427.33
16435.1
116725
732.341
1638.56
4426.52
16435.1
116736
734.295
1645.46
4438.23
16456.4
116748
721.841
1634.01
4420.43
16429.4
116840
735.32
1644.55
4437.21
16456.6
116752
731.771
1638.92
4427.23
16435.5
116727
731.506
1638.58
4426.41
16434.8
116727
733.237
1645.22
4438.2
16457.3
116752
21.5895
20.4722
20.5323
20.4116
21.5178
20.3881
21.5299
21.5596
19.2697
19.0961
331.107
328.484
105.921
109.123
210.992
56.764
203.021
64.3223
57.5375
19.8608
28.2438
204.463
63.8467
19.7178
56.6844
28.6663
326.348
107.073
105.563
330.699
56.4574
209.371
328.325
330.911
327.383
334.624
102.05
103.588
21.5536
105.089
108.81
331.657
328.345
334.606
332.447
21.5322
105.325
111.485
102.282
105.003
326.581
333.171
69.1368
38.1685
104.784
218.187
217.408
37.7462
71.8287
69.129
38.9039
107.812
220.539
219.238
38.4415
72.0129
159.743
341.696
346.498
338.223
345.987
160.693
207.219
116.073
112.575
354.468
359.399
212.18
113.638
118.814
350.782
259.196
66.7404
73.5162
231.235
76.7681
234.101
252.961
358.477
208.982
109.216
116.35
352.22
258.294
66.6557
227.192
69.7858
233.106
76.5098
252.811
332.675
65.9877
38.0588
106.199
216.811
37.6642
215.142
69.263
65.7939
37.8173
104.04
216.765
215.326
37.452
69.0835
152.622
340.468
339.483
338.513
337.51
153.913
328.979
208.076
114.573
113.39
353.551
324.93
327.552
333.072
330.798
162.485
343.138
347.405
342.274
347.236
157.315
72.7186
36.8261
211.701
103.292
70.2771
216.913
37.4051
72.6601
36.6448
214.887
108.466
69.6354
220.478
38.4747
159.605
339.879
345.098
160.539
341.159
346.198
70.2421
217.284
103.394
37.9098
212.895
70.7899
37.5446
69.1983
220.529
109.353
38.7252
221.661
72.2257
38.8939
330.581
329.639
333.465
332.894
162.025
340.199
343.168
161.046
341.157
347.231
72.1236
38.212
105.438
218.088
215.92
36.6617
70.6897
72.9902
39.5078
107.762
223.514
220.119
38.0881
69.1214
69.4544
211.798
35.8418
101.56
70.4127
216.939
37.4458
72.2074
217.054
37.241
109.869
69.803
222.27
38.9989
159.085
343.754
346.681
340.012
346.642
160.152
33.6794
21.58
24.6843
25.0464
24.8798
24.8777
35.1352
32.641
21.4728
24.5808
24.7605
24.1582
24.6329
34.1229
35.0431
24.325
24.6905
21.5042
35.3826
24.9693
24.6336
35.5706
21.4891
25.0592
25.1522
24.662
24.836
33.8492
19.1012
18.9267
23.5186
27.9304
56.1498
36.8624
27.8856
36.5864
23.4818
23.586
28.1964
56.9769
37.7476
28.0376
37.4519
23.7904
22.3385
28.4133
30.9355
21.934
30.689
21.9316
22.4794
23.5318
27.7219
56.0525
37.523
37.2218
27.5094
23.5528
22.2574
28.4798
21.9304
30.5661
21.9615
30.3913
22.1734
23.5651
27.7706
55.7691
37.3272
27.6326
37.0088
23.5738
33.8362
21.589
24.8104
25.131
35.3798
25.0238
25.264
35.3286
21.4999
24.4229
25.0357
35.4603
24.9862
24.7516
19.0319
20.4843
20.3603
21.6518
18.92
20.4629
20.3095
21.5889
18.9261
20.4641
20.4687
21.7124
18.9661
20.4429
20.452
21.7097
18.9557
20.3883
20.4082
21.6915
18.8847
20.3935
20.3739
21.6866
18.8729
20.3884
20.3518
21.7171
18.9019
20.4151
20.3438
21.7164
18.8624
20.4065
20.3359
21.7419
18.9134
20.4026
20.3256
21.691
19.0413
20.3861
20.3469
21.7094
18.9635
20.3824
20.3711
21.6868
18.8071
20.4228
20.3658
21.7128
18.8893
20.4137
20.3483
21.7044
18.896
20.4019
20.3463
21.6901
18.8639
20.3923
20.3605
21.697
18.9501
20.4419
20.3464
21.6957
20.4081
20.3326
20.3735
20.3366
21.5931
21.5862
20.5049
20.3827
20.4065
20.3561
20.5304
20.4617
20.5079
21.4717
21.4956
20.3414
20.3366
20.3862
21.5869
21.5193
21.6663
20.3836
20.364
20.3469
20.3466
21.5516
21.6823
20.3987
20.4099
20.4195
20.4396
20.5022
20.4657
20.4824
21.4139
21.5683
20.4164
20.4125
20.4158
21.6694
21.6345
21.7012
20.3935
20.3274
20.3977
20.3216
21.5754
21.6824
20.4788
20.5044
20.4611
20.4725
20.4794
20.4599
20.4561
21.4874
21.5966
20.4665
20.4949
20.393
21.6108
21.6098
21.6818
20.44
20.3193
20.4278
20.2956
21.5715
21.6413
20.4592
20.4698
20.4622
20.4277
20.4664
20.4012
20.46
21.4961
21.5401
20.3819
20.4452
20.3569
21.6354
21.7032
21.7811
20.4574
20.3185
20.4419
20.2578
21.5024
21.5821
20.4923
20.4167
20.4893
20.3996
20.4867
20.3965
20.4646
21.483
21.5664
20.3381
20.3837
20.3067
21.5914
21.6663
21.7275
20.4682
20.2666
20.4419
20.2755
21.5228
21.6358
20.5157
20.4189
20.5029
20.4301
20.4975
20.3831
20.4887
21.5187
21.5163
20.307
20.3821
20.3056
21.6221
21.6526
21.707
20.4698
20.314
20.4305
20.2698
21.5286
21.6562
20.5336
20.4707
20.5128
20.4439
20.5231
20.4165
20.5129
21.5524
21.5888
20.3041
20.3574
20.287
21.65
21.6443
21.7961
20.4574
20.283
20.436
20.275
21.5801
21.672
20.5192
20.4238
20.4912
20.3739
20.5366
20.4051
20.5093
21.4987
21.4912
20.2893
20.338
20.2995
21.7134
21.6966
21.764
20.4805
20.299
20.4523
20.2851
21.5981
21.6538
20.5227
20.3768
20.5129
20.3523
20.5312
20.415
20.5001
21.4805
21.5111
20.3215
20.3321
20.3035
21.6295
21.6642
21.7385
20.4492
20.3192
20.4388
20.2778
21.5421
21.5978
20.5371
20.3413
20.5241
20.3457
20.5195
20.3836
20.5021
21.4087
21.5111
20.3337
20.3403
20.341
21.6716
21.6639
21.6782
20.467
20.3256
20.4269
20.2794
21.5254
21.6312
20.5304
20.3453
20.5012
20.3337
20.5208
20.3836
20.4914
21.5438
21.5569
20.3485
20.3956
20.3283
21.6526
21.6288
21.7008
20.4078
20.2996
20.3817
20.2741
21.5739
21.6569
20.4959
20.3521
20.4649
20.3429
20.5188
20.4127
20.5127
21.453
21.5726
20.3738
20.3846
20.3622
21.6224
21.6277
21.6762
20.3907
20.3141
20.3936
20.3314
21.567
21.6102
20.4711
20.3396
20.4489
20.3477
20.5304
20.429
20.496
21.5217
21.5721
20.3763
20.3676
20.3297
21.6121
21.627
21.6888
20.402
20.3562
20.3656
20.3655
21.5201
21.5741
20.4493
20.3636
20.4467
20.3615
20.5291
20.4098
20.5151
21.5311
21.4719
20.3264
20.3637
20.3125
21.6262
21.6254
21.698
20.4014
20.4067
20.3802
20.3536
21.568
21.6232
20.4618
20.374
20.4471
20.3647
20.5336
20.3932
20.5187
21.4882
21.5537
20.3595
20.3701
20.337
21.6517
21.572
21.6891
20.3829
20.3643
20.412
20.3567
21.5624
21.6628
20.4508
20.3561
20.4465
20.3378
20.5402
20.4489
20.5043
21.4825
21.5411
20.362
20.3455
20.3527
21.6683
21.6546
20.4035
20.4139
21.5917
20.4508
20.3366
20.3513
20.5176
20.4703
21.4713
21.4627
20.392
20.3993
20.3471
21.6517
63.7383
209.24
63.7979
210.597
330.506
329.992
68.6113
208.906
64.1
211.708
18.9818
19.039
19.0214
19.0042
18.9819
18.9611
19.0537
29.4582
58.9222
19.7351
20.499
59.8551
19.8098
29.1498
328.692
331.066
27.9961
19.674
54.6263
20.3544
19.7477
57.6945
27.9831
115.728
111.04
21.5896
115.293
110.303
64.4406
210.518
64.1316
210.176
330.131
330.918
68.0494
214.053
69.3158
214.19
19.1368
18.9205
19.1596
18.9628
18.9163
18.8687
18.9544
29.6657
61.5509
19.6602
20.4679
29.8759
61.3671
19.7606
334.54
334.486
28.3314
19.5922
59.2782
20.3519
28.2057
19.6269
59.4967
114.747
110.849
21.6616
113.968
111.086
64.4117
212.03
64.5776
211.183
332.118
331.782
67.4375
215.021
68.0614
214.148
19.0985
18.9472
19.0946
19.0523
18.9147
18.8859
18.8695
29.272
61.6971
19.5528
20.4663
29.4409
60.9551
19.6697
334.619
334.255
28.7019
19.5418
59.8517
20.4799
28.8007
19.6609
59.6658
113.176
113.044
21.6857
113.488
112.468
64.9839
213.408
65.2968
213.114
332.853
331.886
67.2081
215.251
66.8779
213.499
19.0257
19.1403
19.0443
19.0368
18.7512
18.9425
18.8479
29.1372
60.1641
19.5844
20.4313
29.1839
60.4838
19.7709
336.198
336.061
28.7161
19.5646
59.7084
20.4493
28.7372
19.5997
60.0067
114.903
111.686
21.6847
113.432
112.002
63.9298
213.742
65.5682
211.806
331.76
332.068
67.8787
213.331
67.7956
212.792
18.8172
19.2048
19.0349
19.0995
18.7658
18.8915
18.8442
29.001
60.4103
19.5508
20.3944
29.2351
60.7007
19.6129
335.653
331.223
28.8568
19.5626
60.6696
20.3847
28.7992
19.6342
60.616
112.855
112.393
21.5919
111.853
111.871
63.7936
212.573
64.6657
212.518
332.641
332.518
68.5992
214.329
68.1718
214.31
18.9288
19.0744
19.0363
18.9422
18.767
18.8509
18.8526
29.3337
60.2302
19.5316
20.3806
29.3165
60.396
19.6499
336.497
332.291
28.7532
19.5366
61.0757
20.3846
28.8653
19.6199
60.3541
113.11
112.432
21.6819
113.947
111.396
63.4631
213.005
63.5568
212.162
332.622
332.647
68.175
215.192
68.8976
214.421
18.9625
19.012
19.0468
18.978
18.793
18.8592
18.8656
29.6401
60.7811
19.548
20.3992
29.596
61.0278
19.647
336.153
335.383
28.4808
19.49
60.2015
20.3614
28.6371
19.6398
60.25
114.102
111.524
21.6725
113.906
110.2
63.7583
212.257
61.2579
213.261
332.073
327.522
68.5906
214.361
68.7291
214.196
18.9715
18.9884
19.0604
19.0341
18.7631
18.8638
18.8698
29.4834
60.7872
19.5812
20.4234
29.5657
60.834
19.8105
335.585
333.304
28.5945
19.4302
60.7866
20.367
28.7081
19.4739
60.2784
114.331
111.758
21.7287
113.965
111.52
64.5995
213.67
64.5306
212.948
332.131
331.601
68.9137
214.742
68.1979
214.342
19.0446
19.2529
19.0611
19.1082
18.7527
18.865
18.8649
29.2176
60.2748
19.5962
20.4063
29.4658
60.5756
19.6427
335.904
334.627
28.4571
19.4217
60.6307
20.3552
28.5143
19.5606
60.0586
113.527
112.399
21.6424
112.73
111.625
65.3717
213.166
66.0274
212.096
332.094
331.663
67.7882
214.237
68.9663
213.766
18.8631
19.1513
19.0562
19.1092
18.8148
18.7891
18.8734
29.1766
60.45
19.5719
20.3911
29.4172
59.5979
19.6798
335.281
334.266
28.5868
19.3915
59.9119
20.3491
28.6656
19.6113
60.1728
114.192
112.392
21.6838
113.044
112.122
65.4919
213.279
64.8423
213.632
332.057
332.101
65.5284
213.937
68.5378
213.615
19.1607
19.1354
19.076
19.0852
18.8403
18.8635
18.8911
29.4249
60.7047
19.5526
20.3816
29.3109
60.6016
19.6733
335.271
334.964
28.4519
19.5669
60.451
20.3792
28.7357
19.5111
60.622
112.431
112.85
21.6475
110.893
112.015
65.3959
214.553
66.6966
214.867
332.307
333.305
66.8021
214.304
67.2681
214.33
18.9665
18.9859
19.0792
19.011
18.7437
18.865
18.8851
29.3637
61.0955
19.5719
20.4033
29.4505
61.2367
19.6555
335.309
332.956
28.5979
19.5003
60.2564
20.3724
28.6097
19.6217
60.2731
112.701
113.026
21.675
114.384
111.941
64.562
213.876
65.5477
211.858
334.339
333.975
67.2955
214.793
66.9923
214.248
19.0601
18.9743
19.0706
18.9551
18.748
18.8339
18.8765
29.2004
61.7075
19.571
20.4378
29.3653
59.2564
19.7609
335.566
333.07
28.8124
19.5335
59.8033
20.3676
28.9543
19.648
60.3377
114.8
111.171
21.6656
113.635
111.489
63.6514
211.083
64.3022
210.577
335.495
334.491
66.6222
214.079
67.2732
213.853
18.8923
19.0299
19.0572
18.9857
18.8165
18.8368
18.8633
29.2397
60.1781
19.5663
20.4196
29.3646
60.2432
19.6917
334.41
333.104
28.5801
19.5171
60.2497
20.353
28.9821
19.7152
59.2935
113.332
112.336
21.6284
112.988
112.271
63.7353
212.436
63.3792
212.255
334.335
334.069
68.1686
214.342
66.833
213.834
19.048
19.0274
19.0523
19.0719
18.8691
18.849
18.8636
29.0443
60.8385
19.559
20.4085
29.2036
60.2422
19.6607
335.05
334.84
28.6235
19.5154
59.0994
20.3566
28.5179
19.5969
59.6809
112.824
113.101
21.5989
113.52
112.376
63.7985
212.035
64.6983
210.445
334.318
333.801
68.6038
215.247
68.5491
214.753
19.0622
19.049
19.0585
19.0335
18.8814
18.8492
18.8774
29.2374
61.1839
19.5369
20.4031
29.2239
61.3174
19.6883
334.387
333.591
28.8244
19.5486
60.9303
20.359
28.8959
19.5625
60.0343
113.003
112.408
21.6819
113.023
111.803
63.971
211.91
63.7793
211.562
334.302
334.271
67.3701
214.39
67.8016
212.615
19.0812
19.0454
19.1364
19.0274
18.766
29.4139
61.485
19.5716
20.442
29.4201
59.7013
19.7006
334.824
335.254
28.5926
19.5049
60.209
20.381
28.8054
19.709
60.3419
113.921
111.637
21.6681
113.23
111.584
62.907
210.466
208.595
63.6598
28.0378
55.3697
19.6064
20.4344
19.8008
28.0809
55.6073
27.8347
57.5248
19.5927
20.3481
56.4923
19.7755
28.0685
60.3693
209.442
63.1378
204.249
60.2385
209.337
203.54
63.4588
27.4571
20.4037
56.7445
19.5922
19.6262
28.1602
55.7549
27.0346
20.3483
56.5849
19.5654
54.7238
19.616
28.1473
107.54
107.064
21.503
105.139
108.143
331.206
332.101
329.18
323.193
21.5263
104.252
111.517
98.0236
107.42
334.75
332.109
29.4108
53.914
19.7224
20.4864
19.8045
28.6356
57.036
67.7457
206.545
209.989
63.4642
29.0311
19.6905
54.9688
20.3656
19.7156
57.0042
28.1742
65.3985
210.187
69.1561
208.641
29.1005
20.449
58.8503
19.6391
19.7174
29.5739
57.7005
67.0014
212.447
205.269
67.8564
28.1903
20.3559
19.6566
57.971
19.681
55.6103
29.4455
67.7688
212.885
214.486
66.846
29.2987
19.6834
61.9849
20.538
19.764
61.3163
29.044
66.9463
216.762
216.493
65.4366
29.0878
20.4712
61.1279
19.8016
57.0824
19.8136
29.6536
65.4643
215.538
213.001
68.4324
28.8195
20.5199
19.6752
59.6809
19.7056
57.8714
29.4457
65.9485
213.258
211.244
67.6452
100.97
102.167
21.4962
107.164
108.04
328.884
330.759
334.015
325.785
21.4463
108.994
109.593
104.67
104.077
334.206
333.652
27.7726
19.6396
57.9353
20.3999
19.7831
58.0479
27.7332
63.0859
205.03
211.456
62.7563
61.5467
211.558
211.688
61.5039
27.5382
20.3609
19.6028
58.8243
19.7637
56.9276
27.7887
27.4595
20.4139
19.5976
58.2243
19.6377
56.8357
28.1849
61.3671
212.796
207.967
64.0271
60.2625
211.454
209.153
63.2714
338.557
335.479
334.524
333.145
21.6227
113.795
110.022
111.065
108.29
337.51
337.594
332.391
327.303
325.592
331.732
331.679
335.251
101.14
109.211
21.5327
107.881
111.712
332.509
328.804
334.449
334.299
21.5107
107.992
112.117
103.722
108.325
64.2207
201.732
61.0621
208.353
28.3105
55.5899
19.6988
20.3604
27.8095
57.4736
19.7378
28.3136
54.3624
19.6943
20.3531
28.226
56.502
19.626
62.6778
211.468
204.971
63.8265
63.0606
209.517
205.057
64.4476
27.8999
20.349
57.8998
19.5852
56.5293
19.6896
28.3587
27.7052
20.3256
55.6641
19.5512
54.5795
19.6003
28.3946
102.737
110.759
21.6457
106.86
112.872
333.638
333.642
331.83
324.791
21.5555
108.896
109.465
103.02
106.836
335.463
334.304
29.5023
58.5215
19.7117
20.3976
29.2567
59.9969
19.6985
67.1037
205.737
65.5846
208.153
29.3031
19.7724
56.7608
20.4079
28.9845
19.5994
59.4152
66.6028
214.413
208.324
65.7657
28.4791
20.4112
59.982
19.5676
58.7066
19.6838
29.409
65.1651
212.781
211.258
66.7562
28.8457
20.4316
19.556
59.4101
19.579
57.9372
28.8967
68.3656
214.221
67.484
214.808
29.6495
19.691
60.9091
20.5134
28.9857
19.6945
61.5115
68.2517
214.951
66.8994
215.749
28.8921
20.4619
61.4434
19.6608
58.9379
19.6229
28.883
66.9317
216.45
211.368
67.8122
28.5396
20.494
19.6123
60.6354
19.7403
59.8682
29.416
64.4
215.695
212.999
67.0717
107.259
106.758
21.5231
109.788
110.689
332.152
333.979
335.087
328.513
21.4556
110.894
109.097
103.531
106.25
333.731
331.657
28.7713
19.8057
55.3164
20.4138
27.4422
19.6598
59.153
64.5429
208.346
61.6245
213.02
66.0655
208.804
60.8377
212.528
27.8681
20.3886
19.5588
59.2347
19.6769
57.7541
28.734
28.0243
20.4177
19.6295
59.9904
19.6802
58.0853
28.9425
62.5893
213.931
209.437
65.1521
65.2547
211.893
208.958
66.695
336.514
335.602
329.503
334.35
21.6117
109.486
110.107
111.668
107.721
336.573
332.325
334.532
333.122
326.277
331.839
334.375
335.706
103.954
108.441
21.7073
108.534
113.253
333.375
326.014
336.058
333.54
21.6464
109.241
112.484
106.674
110.254
63.7794
206.899
62.7683
208.405
28.243
55.6556
19.6332
20.3907
27.4399
58.577
19.6635
28.2532
55.8003
19.6418
20.3383
27.2326
56.6719
19.5754
63.0938
209.661
207.365
62.7074
62.3154
209.788
201.995
63.8202
27.4556
20.3961
57.0782
19.5157
57.4803
19.6609
28.4184
27.8802
20.3436
56.8535
19.4985
53.6543
19.5452
28.2576
104.63
111.467
21.6664
107.845
112.176
334.296
334.978
328.898
328.718
21.6097
109.196
111.923
105.522
108.785
333.674
331.457
29.4754
58.8035
19.602
20.4748
29.0817
60.5614
19.6069
66.0672
209.612
65.1457
211.91
29.0511
19.6676
57.2438
20.4897
29.157
19.7383
59.2522
62.6977
211.532
209.24
66.0102
28.3796
20.4702
60.429
19.5969
58.3094
19.6282
29.1748
64.1312
212.647
205.896
67.0458
28.6062
20.5037
19.6098
59.0661
19.7418
55.9456
28.6697
66.2935
213.467
64.3017
213.99
29.4599
19.6789
59.4531
20.4675
28.8413
19.6409
60.6185
67.7903
210.078
63.3461
215.424
28.8212
20.4547
59.6991
19.6291
58.707
19.7393
28.9761
63.8165
213.899
209.739
66.2948
29.0804
20.461
19.5751
60.8633
19.6299
58.9363
29.4221
67.009
213.499
213.005
67.5841
109.368
103.522
21.5895
111.696
107.096
328.702
332.894
332.68
332.201
21.4944
112.309
108.463
108.661
104.758
333.492
331.677
28.8259
19.7616
58.2781
20.4354
28.3759
19.8346
59.3452
64.9535
211.405
62.7443
212.664
65.6444
212.056
64.8386
213.306
28.138
20.476
19.6963
57.632
19.6924
57.8888
28.3944
28.3813
20.4262
19.6149
56.6399
19.6568
57.5484
28.768
62.5238
212.728
209.172
65.7403
62.1598
212.618
210.504
65.6946
335.714
337.144
332.528
334.17
21.6402
111.848
108.305
109.286
107.939
336.968
336.035
333.888
332.321
330.742
333.082
332.053
333.52
106.654
108.129
21.7273
109.806
112.434
332.757
330.263
335.847
334.876
21.6801
109.799
110.45
107.242
106.984
64.5336
203.901
61.3969
207.722
28.7146
57.6297
19.5393
20.4277
27.7275
59.1551
19.591
28.4075
54.8096
19.664
20.3118
27.6426
55.7214
19.5153
61.4771
210.484
210.465
65.3033
61.4928
210.35
202.834
64.638
28.3202
20.4318
58.8026
19.4793
55.7643
19.6023
27.5888
27.576
20.3073
57.5773
19.4237
57.0521
19.5503
28.4199
108.451
109.581
21.6452
107.175
112.1
334.066
334.694
332.299
326.485
21.5973
109.769
108.512
107.614
106.468
333.686
332.325
29.3881
58.7858
19.6901
20.475
28.3242
60.5304
19.7145
67.5276
209.786
65.544
212.91
29.4392
19.6815
57.4598
20.4599
29.1765
19.7356
58.9159
65.2013
212.525
211.746
65.355
28.7635
20.456
59.8345
19.6067
58.7619
19.5684
29.2643
65.8283
213.214
210.284
66.7099
28.9794
20.4364
19.5867
58.6597
19.5843
60.039
29.327
65.1049
211.594
62.9584
214.365
29.087
19.6823
59.8111
20.4665
28.1736
19.5693
61.0838
66.6548
209.202
65.4963
215.932
28.2886
20.4041
59.6613
19.6766
58.7643
19.6347
29.0729
61.7818
213.921
208.554
66.7047
28.5031
20.4667
19.4991
60.3372
19.6064
58.4074
29.016
65.2006
215.05
213.549
65.954
107.897
105.711
21.5368
112.266
109.498
330.984
333.515
335.117
331.965
21.5244
113.311
109.264
111.75
105.549
333.627
331.868
28.8312
19.8121
56.1149
20.385
27.7097
19.6595
58.7951
65.762
208.004
62.2365
211.899
65.211
210.785
61.6844
212.454
28.1136
20.4395
19.6602
58.8218
19.6639
58.6961
28.1859
28.1998
20.3866
19.54
59.2888
19.6841
57.9995
28.5026
62.7013
213.419
212.47
66.1019
61.3532
212.495
210.496
65.3299
335.454
336.541
331.822
334.56
21.6005
109.61
111.864
106.928
109.164
335.358
334.693
332.698
333.081
327.45
333.141
330.181
335.266
107.379
111.466
21.7515
108.567
112.333
332.342
330.311
336.325
332.459
21.6421
109.82
112.643
106.578
108.321
65.1488
203.206
61.6576
206.389
28.2072
57.9196
19.6424
20.4507
28.1498
57.6261
19.5149
28.5381
56.2344
19.5183
20.313
28.231
57.5821
19.504
60.1547
211.651
206.48
63.4455
62.8077
209.319
207.968
64.4298
27.5094
20.4467
59.2041
19.5091
58.7309
19.5829
28.1837
28.2449
20.2596
57.316
19.4809
55.1003
19.5206
28.4579
104.655
110.213
21.6166
109.467
110.902
332.283
334.574
332.361
328.809
21.5286
109.752
110.576
108.648
107.227
332.501
328.834
29.2877
57.1459
19.685
20.4941
28.7731
59.6448
19.7828
67.8147
207.066
63.0611
213.313
29.2741
19.6448
59.6568
20.407
28.7597
19.6581
60.2697
65.9484
210.12
209.053
65.672
28.1613
20.4918
59.9953
19.6099
58.0807
19.6517
29.2529
64.3895
213.007
207.209
68.5768
28.8555
20.4011
19.5747
59.7656
19.6882
56.1781
29.4867
66.1189
210.03
65.051
214.254
29.2107
19.6647
58.7549
20.476
28.561
19.549
60.3825
66.5524
209.619
63.633
214.303
28.192
20.3854
59.7908
19.5703
59.4181
19.5796
28.7344
65.1064
210.178
210.667
66.6234
28.0768
20.4741
19.5347
60.3531
19.5665
57.1177
29.5464
64.0081
215.019
212.834
68.1212
108.933
106.665
21.545
112.784
110.107
331.041
334.651
333.527
333.651
21.5
112.699
107.939
110.141
107.012
331.672
331.994
28.7007
19.5908
56.5489
20.3447
27.5773
19.6634
59.5799
66.6463
208.907
62.654
213.51
66.0119
210.144
61.6252
213.238
28.2162
20.3759
19.567
60.7573
19.5938
58.2039
28.6734
27.8427
20.3306
19.5465
59.9446
19.6412
58.3217
29.1438
65.3531
214.566
210.534
66.239
62.7655
213.498
211.186
64.4918
331.666
336.666
330.038
334.854
21.6053
109.112
111.971
109.684
109.06
336.714
335.421
334.506
332.736
329.8
332.832
333.565
335.465
104.689
110.168
21.6855
110.733
112.755
328.791
330.605
333.825
332.566
21.7382
109.276
111.721
105.535
108.522
64.8804
205.273
63.413
208.708
28.1948
57.3332
19.6072
20.4505
27.1099
59.4304
19.5523
28.5531
55.3802
19.6326
20.2824
28.2786
57.8911
19.6568
60.8697
209.59
210.342
63.732
62.1888
210.169
208.15
64.6683
27.7885
20.4475
59.2746
19.4826
56.0793
19.5384
28.2504
28.2286
20.2544
57.1608
19.485
55.002
19.4914
28.7403
103.457
108.039
21.4971
108.903
111.529
333.372
333.932
333.019
329.973
21.5612
110.239
111.664
107.109
109.093
333.891
332.546
29.8069
58.3426
19.7647
20.4966
29.0491
59.0257
19.6334
68.5887
208.101
64.8383
213.123
29.7533
19.7716
56.4093
20.4378
28.7033
19.6631
59.7891
67.3399
214.815
209.064
68.4899
29.3372
20.5025
59.8092
19.5713
58.1198
19.6912
29.6133
64.4576
213.323
210.079
68.6472
29.2272
20.4226
19.6208
60.0434
19.7372
56.8536
29.6595
67.6391
212.401
63.3672
213.832
29.322
19.7435
58.5905
20.4968
29.0305
19.6241
59.3798
65.8442
212.161
64.162
215.67
28.5633
20.37
60.0605
19.5866
59.5017
19.6029
28.9815
64.1245
214.406
209.653
67.3967
28.7569
20.4909
19.5657
61.6763
19.683
60.6773
29.3772
65.5742
216.488
213.888
67.1193
107.885
110.019
21.5638
112.976
107.77
333.698
331.976
335.863
334.496
21.516
113.827
109.756
109.622
109.119
334.112
328.923
28.776
19.7119
58.1919
20.3273
28.2103
19.5792
59.5097
65.9515
211.927
65.2191
214.259
65.8189
211.86
65.8451
212.941
27.7167
20.3615
19.6198
58.2066
19.635
58.9889
28.5245
27.5728
20.3248
19.4864
58.0006
19.6179
56.9161
28.4794
62.4328
214.129
210.307
64.8046
61.6801
211.882
209.488
64.0073
335.883
337.245
330.189
334.147
21.5881
113.049
110.956
109.394
108.625
337.639
336.129
334.144
332.373
331.2
331.892
330.339
332.441
104.367
109.028
21.7133
109.445
112.174
333.268
329.128
335.834
334.817
21.603
108.751
113.137
102.051
110.636
64.0341
207.046
64.9762
209.996
28.2191
56.0728
19.5528