/*--------------------------------*- C++ -*----------------------------------*\
| =========                 |                                                 |
| \\      /  F ield         | OpenFOAM: The Open Source CFD Toolbox           |
|  \\    /   O peration     | Version:  2206                                  |
|   \\  /    A nd           | Website:  www.openfoam.com                      |
|    \\/     M anipulation  |                                                 |
\*---------------------------------------------------------------------------*/
FoamFile
{
    version     2.0;
    format      ascii;
    arch        "LSB;label=32;scalar=64";
    class       volVectorField;
    location    "10";
    object      wallShearStress;
}
// * * * * * * * * * * * * * * * * * * * * * * * * * * * * * * * * * * * * * //

dimensions      [0 2 -2 0 0 0 0];

internalField   uniform (0 0 0);

boundaryField
{
    topPatch
    {
        type            calculated;
        value           uniform (0 0 0);
    }
    wall
    {
        type            calculated;
        value           nonuniform List<vector> 
46496
(
(-2.6805e-08 -2.08133e-08 -0.000249763)
(1.72897e-08 -1.86251e-09 -0.000262728)
(-1.09744e-08 -2.22767e-08 -0.000249866)
(-1.58743e-08 7.87697e-09 -0.000262804)
(-1.16753e-08 -2.22583e-08 -0.000262725)
(-1.69646e-08 -2.30742e-08 -0.000262785)
(4.37218e-10 -2.66614e-08 -0.0002498)
(3.44188e-08 -2.94427e-08 -0.000262704)
(-2.59923e-08 2.56523e-08 -0.000249858)
(1.96631e-09 -1.66617e-08 -0.000249959)
(-1.18275e-08 1.7038e-09 -0.000249937)
(-1.5022e-08 8.25264e-09 -0.000262748)
(-2.84674e-08 1.90714e-08 -0.000249701)
(1.60773e-08 2.35592e-08 -0.000249725)
(2.51829e-08 2.83032e-08 -0.000262666)
(8.47504e-09 7.21966e-09 -0.000262724)
(-9.57876e-09 1.71767e-08 -0.000263354)
(2.05799e-08 1.45501e-08 -0.000250102)
(-1.75503e-08 -2.45668e-10 -0.000263037)
(-1.82256e-08 2.20533e-08 -0.000255204)
(-1.93007e-08 1.39471e-08 -0.000257799)
(2.58699e-08 -9.112e-09 -0.000263434)
(1.38791e-08 1.62766e-08 -0.000250185)
(-1.61839e-08 -1.38651e-08 -0.000249819)
(1.47232e-08 -7.131e-09 -0.000263082)
(-1.47027e-08 4.78099e-09 -0.000262763)
(-1.30019e-09 1.41481e-09 -0.000250518)
(-7.65102e-09 9.42504e-09 -0.000250735)
(1.48471e-08 2.93779e-08 -0.000250376)
(-9.1797e-09 -3.51847e-08 -0.000250788)
(9.53802e-09 3.94243e-08 -0.000261143)
(1.87532e-08 -1.35217e-09 -0.000261178)
(-6.51132e-09 -3.26807e-08 -0.000261562)
(-1.41562e-08 -3.96602e-09 -0.000261462)
(8.09597e-09 1.24418e-08 -0.000263025)
(1.75654e-08 3.40927e-09 -0.000263092)
(-1.61745e-08 -1.0984e-08 -0.000262732)
(-1.86885e-08 1.15439e-08 -0.000250078)
(-5.70952e-09 -3.51504e-09 -0.000250583)
(-1.92587e-09 -1.03789e-08 -0.000250742)
(7.78152e-09 -5.12272e-08 -0.00026119)
(-7.692e-09 3.52009e-08 -0.000261603)
(-2.64528e-08 1.04721e-08 -0.000263168)
(-2.57135e-08 -1.41181e-08 -0.00025518)
(-1.88174e-08 -4.32745e-09 -0.000257797)
(1.99152e-08 1.54271e-08 -0.000263419)
(1.59728e-08 -2.33421e-08 -0.000250237)
(-2.22913e-08 1.25762e-08 -0.000249832)
(-3.16272e-09 1.8873e-08 -0.000250142)
(-4.55555e-08 1.51016e-08 -0.000263516)
(-3.55993e-09 -1.78988e-08 -0.000250136)
(-1.6572e-08 1.84688e-08 -0.000250407)
(5.42804e-09 -2.37824e-08 -0.000250778)
(-1.08309e-08 1.18439e-08 -0.000261243)
(-8.59879e-09 -1.55149e-08 -0.000262992)
(-9.89785e-09 -1.35391e-08 -0.000263327)
(1.27617e-08 -1.51296e-08 -0.000250121)
(7.24943e-09 -2.2054e-08 -0.000263349)
(-2.07268e-08 -1.76228e-08 -0.000250108)
(-1.99509e-08 -1.35613e-08 -0.000263104)
(-1.07928e-08 -1.25581e-08 -0.000263003)
(-4.12984e-09 2.79469e-08 -0.000263407)
(-3.74357e-08 -1.72315e-08 -0.000263502)
(-2.63024e-09 2.87105e-08 -0.000255423)
(2.25969e-08 -1.07411e-09 -0.000257786)
(-7.55272e-09 8.73625e-09 -0.000257976)
(1.50106e-08 -3.68321e-08 -0.000255078)
(1.9341e-08 -2.62601e-08 -0.000263005)
(1.06519e-08 -4.25566e-08 -0.000250434)
(-3.25644e-09 3.42426e-08 -0.000250794)
(1.5941e-08 2.37785e-09 -0.000261223)
(-1.04325e-08 -1.12471e-09 -0.000261484)
(-3.25293e-08 7.99412e-09 -0.000263073)
(1.81124e-08 -1.72893e-08 -0.000255522)
(-3.36849e-08 3.74408e-09 -0.000257817)
(1.90307e-08 5.43191e-09 -0.000258135)
(-2.29457e-08 1.00604e-08 -0.000255251)
(-2.68238e-08 1.5373e-08 -0.000263021)
(-1.69525e-08 2.39215e-08 -0.000250438)
(1.95427e-08 -3.14226e-09 -0.000250802)
(-3.01245e-09 3.004e-08 -0.000261243)
(1.15828e-08 -1.38792e-08 -0.000261545)
(-6.88528e-09 -1.93118e-08 -0.00025044)
(3.67293e-09 1.5846e-08 -0.000250755)
(-3.29837e-08 -9.81725e-09 -0.000261213)
(1.81101e-08 1.01087e-08 -0.000261512)
(-2.01169e-08 -1.70426e-08 -0.000250494)
(2.06143e-08 6.01422e-09 -0.000250809)
(-4.62191e-09 -3.03976e-08 -0.000261201)
(2.83155e-09 2.10362e-08 -0.0002615)
(2.01143e-08 8.43224e-09 -0.000255361)
(-4.38507e-09 -3.59466e-08 -0.000257662)
(1.76216e-08 1.78684e-08 -0.000258043)
(-2.10387e-08 -2.17112e-08 -0.00025516)
(-1.52552e-08 -2.44425e-08 -0.000262962)
(2.63625e-08 2.13862e-08 -0.000255534)
(-1.39358e-08 -1.42302e-09 -0.000257861)
(1.79088e-08 1.04563e-08 -0.000258131)
(-3.13563e-08 -5.85502e-09 -0.000255202)
(-2.25364e-08 -6.25453e-10 -0.000263096)
(-2.30489e-08 -1.51531e-08 -0.000263045)
(2.89333e-08 2.62418e-08 -0.000263022)
(-1.85828e-08 -1.29323e-08 -0.000255513)
(1.55554e-08 9.76931e-09 -0.000257818)
(-1.37576e-08 -1.74891e-08 -0.000258132)
(2.03148e-08 -1.46902e-09 -0.000255253)
(-6.46407e-09 1.86163e-08 -0.000255472)
(3.4486e-08 -2.06868e-08 -0.00025778)
(-1.87061e-08 1.45695e-08 -0.000258163)
(8.2077e-09 -6.32776e-09 -0.000255248)
(2.78173e-08 -1.68324e-08 -0.000263)
(1.29537e-08 -8.09283e-09 -0.00026154)
(6.07126e-09 2.2235e-08 -0.000262991)
(-1.67483e-08 -2.60873e-08 -0.00025541)
(-8.20303e-09 1.33209e-08 -0.000257707)
(-7.93698e-09 -1.54518e-08 -0.000257964)
(1.77729e-08 2.27388e-08 -0.000255029)
(-9.86257e-09 2.4565e-08 -0.000262982)
(2.23867e-08 -1.75671e-08 -0.000255412)
(-6.65989e-09 2.13854e-08 -0.000257706)
(-2.26492e-09 -1.70376e-08 -0.000258016)
(-1.80673e-08 2.06434e-08 -0.000255085)
(5.57913e-08 1.61902e-08 -0.000263119)
(3.60705e-08 3.05089e-09 -0.000263127)
(1.37606e-08 -1.87532e-08 -0.000250099)
(6.78702e-09 1.35455e-08 -0.000250165)
(-7.50636e-08 5.16098e-09 -0.000250032)
(4.71097e-08 -4.20105e-08 -0.000263238)
(6.47018e-08 -4.74751e-08 -0.000263151)
(-2.39327e-08 4.94279e-08 -0.000249947)
(7.44337e-09 -3.95262e-08 -0.000262753)
(2.16782e-08 9.37145e-09 -0.000263114)
(-3.10411e-08 -2.15164e-08 -0.000262731)
(2.78518e-08 -1.69625e-10 -0.000263156)
(2.18454e-08 1.1729e-08 -0.000263106)
(2.04496e-09 -2.0009e-08 -0.000262805)
(1.66617e-08 1.37659e-08 -0.000263129)
(-9.00084e-09 -2.02748e-08 -0.000262815)
(-2.04033e-08 -7.55551e-08 -0.000262653)
(-2.41292e-08 -3.27652e-08 -0.000262672)
(3.46527e-09 2.02824e-08 -0.00024986)
(-2.92679e-08 1.5583e-08 -0.00026297)
(3.66468e-09 -4.32316e-08 -0.000249763)
(7.68825e-08 2.88215e-09 -0.000250011)
(-5.82948e-08 1.8459e-08 -0.000262601)
(-1.02429e-08 1.43422e-09 -0.000250726)
(6.21878e-08 1.46785e-08 -0.000250451)
(3.84462e-08 1.41061e-08 -0.000261542)
(-3.56555e-08 7.80921e-09 -0.000261256)
(-4.03948e-08 4.85122e-08 -0.000262559)
(2.45843e-08 -2.97847e-08 -0.000249905)
(3.13115e-08 6.9164e-10 -0.00026306)
(5.88882e-09 -2.59332e-08 -0.000262762)
(2.83366e-08 -1.73105e-09 -0.000263114)
(-1.27498e-08 -2.72981e-08 -0.000262779)
(6.81132e-09 -2.48672e-08 -0.000262791)
(1.90331e-08 1.00262e-08 -0.000263124)
(-1.45931e-08 -6.46962e-09 -0.000262805)
(2.23444e-08 5.644e-09 -0.000263145)
(5.76783e-09 -3.07102e-08 -0.000249772)
(3.35131e-08 1.32989e-08 -0.000250211)
(-1.29745e-08 -4.33507e-08 -0.000262739)
(-1.41158e-08 1.09179e-08 -0.000263155)
(-1.22306e-08 -3.51683e-08 -0.000249814)
(1.73211e-08 6.52812e-09 -0.000250287)
(-5.84634e-08 2.60358e-08 -0.000262657)
(2.94564e-08 -1.78865e-08 -0.000263207)
(-1.58614e-08 -1.94246e-08 -0.000249794)
(1.57874e-08 1.38045e-08 -0.000250105)
(2.12188e-08 -1.39713e-08 -0.000262781)
(-4.09325e-09 1.31758e-08 -0.000263053)
(-1.4973e-08 -2.10107e-08 -0.000249844)
(1.11476e-08 2.5392e-08 -0.000250198)
(-1.2924e-08 1.93319e-08 -0.00026276)
(1.53992e-08 -7.85248e-09 -0.000263106)
(-2.56309e-08 -1.48767e-08 -0.00024976)
(9.09788e-09 2.81502e-08 -0.000250211)
(4.0029e-09 -2.30632e-08 -0.000262747)
(-1.59782e-08 1.91991e-08 -0.000263136)
(-1.56999e-08 -2.2209e-08 -0.000249858)
(1.70399e-08 1.66068e-08 -0.000250307)
(-1.68696e-08 1.90907e-08 -0.000262809)
(2.18613e-08 -1.4737e-08 -0.000263207)
(-2.95079e-08 -2.37851e-08 -0.000249759)
(1.30162e-08 1.31456e-08 -0.000250084)
(4.58909e-10 -2.91349e-08 -0.000262735)
(-1.64193e-08 4.05616e-09 -0.000263048)
(-1.92581e-08 -1.41401e-08 -0.000249862)
(5.7061e-09 1.9029e-08 -0.000250214)
(-2.6434e-08 1.20766e-08 -0.000262792)
(1.10229e-08 -9.07534e-09 -0.000263075)
(-2.15374e-08 -1.5479e-08 -0.000249775)
(1.57026e-09 1.25313e-08 -0.000250181)
(6.83327e-09 -2.12095e-08 -0.000262774)
(-6.00269e-09 1.31936e-08 -0.000263164)
(-1.54185e-08 -2.24922e-08 -0.000249861)
(2.25871e-08 6.70784e-09 -0.000250352)
(-1.85872e-08 9.8089e-09 -0.000262793)
(1.61376e-08 -9.80158e-09 -0.000263211)
(-1.66991e-08 -1.88109e-08 -0.000249827)
(1.47349e-08 1.84076e-08 -0.000250106)
(-5.35629e-10 -2.82734e-08 -0.000262762)
(-1.6315e-09 2.12367e-08 -0.000263035)
(-2.44608e-08 -1.39417e-08 -0.000249901)
(1.8184e-08 1.04385e-08 -0.00025017)
(-2.3298e-08 3.18622e-09 -0.000262771)
(1.61285e-08 -5.66831e-09 -0.000263068)
(-4.17724e-09 -2.15983e-08 -0.000249793)
(1.39356e-08 2.90428e-08 -0.000250184)
(2.6041e-09 -1.86812e-08 -0.000262799)
(-1.41622e-08 1.49842e-08 -0.000263099)
(-1.28695e-08 -4.95053e-09 -0.000249954)
(2.19132e-08 8.87164e-09 -0.00025024)
(-1.4142e-08 5.00373e-09 -0.000262818)
(2.24088e-08 -9.33884e-09 -0.000263153)
(-2.61163e-08 -1.54308e-08 -0.000249796)
(1.68791e-08 2.21309e-08 -0.000250055)
(6.03258e-09 -1.74604e-08 -0.000262764)
(-1.58287e-08 2.19467e-08 -0.000263051)
(-1.29071e-08 -1.37655e-08 -0.000249871)
(1.67266e-08 2.32968e-08 -0.000250242)
(-1.1402e-08 7.00643e-09 -0.000262803)
(2.01542e-08 -1.43601e-08 -0.000263105)
(-5.11243e-09 -6.39169e-09 -0.000249788)
(6.94053e-09 1.2489e-08 -0.000250096)
(-9.01107e-09 -2.47976e-08 -0.000262754)
(-8.50185e-09 1.63438e-08 -0.000263087)
(-1.75619e-08 -2.00384e-09 -0.000249847)
(2.58697e-08 9.08768e-09 -0.000250264)
(-1.98305e-08 -2.05624e-10 -0.000262803)
(2.13352e-08 -6.38515e-09 -0.000263136)
(-2.79735e-08 -8.50153e-09 -0.000249732)
(2.43724e-08 1.69984e-08 -0.000250173)
(1.25011e-08 -1.64577e-08 -0.000262753)
(-2.89809e-08 5.14955e-09 -0.000263112)
(-1.62418e-08 -1.90957e-08 -0.000249863)
(9.63773e-09 3.10096e-08 -0.000250254)
(-9.95025e-09 1.67931e-08 -0.000262798)
(6.75179e-09 -2.28549e-08 -0.000263153)
(-2.44776e-08 -1.40187e-08 -0.000249754)
(1.1987e-08 2.45909e-08 -0.000250093)
(4.96705e-09 -1.6149e-08 -0.000262771)
(-1.84879e-08 1.27499e-08 -0.000263054)
(-1.57839e-08 -1.15934e-08 -0.0002499)
(2.14095e-08 1.63308e-08 -0.000250231)
(-1.54366e-08 7.75586e-09 -0.000262797)
(1.72594e-08 -1.90632e-08 -0.000263149)
(-6.40491e-09 -1.78708e-08 -0.000249771)
(1.68394e-08 2.10417e-08 -0.000250095)
(-1.18151e-09 -2.08101e-08 -0.000262727)
(-1.06705e-08 2.21483e-08 -0.000263053)
(-1.11032e-08 -1.71117e-08 -0.000249867)
(2.30895e-08 1.17033e-08 -0.000250264)
(-2.19809e-08 -2.14232e-09 -0.000262776)
(2.13852e-08 -1.40142e-08 -0.000263151)
(-1.21996e-08 -1.85343e-08 -0.000249747)
(1.94443e-08 1.71281e-08 -0.000250145)
(2.06381e-09 -2.55371e-08 -0.000262687)
(-2.05671e-08 1.61521e-08 -0.000263024)
(-1.91496e-08 -9.85603e-09 -0.000249853)
(2.02533e-08 1.83359e-08 -0.000250222)
(-1.14945e-08 1.93065e-08 -0.000262788)
(1.89282e-08 -1.30062e-08 -0.000263116)
(-1.19017e-08 -2.2677e-08 -0.000249724)
(2.14692e-08 2.37807e-08 -0.000250154)
(1.21345e-08 -1.78487e-08 -0.000262658)
(-4.07129e-09 2.61226e-08 -0.000263031)
(-1.56564e-08 -8.92583e-09 -0.000249809)
(2.1771e-08 1.65751e-08 -0.000250247)
(-1.51654e-08 3.92987e-09 -0.000262774)
(1.99562e-08 -8.95829e-09 -0.000263132)
(-2.25173e-08 -6.87547e-09 -0.000249762)
(1.54133e-08 7.08189e-09 -0.000250108)
(2.35939e-09 -2.14105e-08 -0.00026268)
(-7.62335e-09 1.09808e-08 -0.000263021)
(-8.87129e-09 -2.10007e-08 -0.000249836)
(1.44362e-08 1.49212e-08 -0.000250216)
(-1.32888e-08 1.3849e-08 -0.000262758)
(1.60524e-08 -8.08891e-09 -0.000263105)
(-1.53859e-08 -2.02119e-08 -0.0002498)
(2.65385e-08 1.65534e-08 -0.000250114)
(6.75202e-09 -2.16782e-08 -0.000262721)
(-1.63437e-08 1.49394e-08 -0.000263038)
(-1.90165e-08 -1.77832e-08 -0.000249838)
(1.33506e-08 1.96362e-08 -0.000250211)
(-1.89572e-08 5.96446e-09 -0.000262805)
(1.17255e-08 -2.02769e-08 -0.000263143)
(-2.21461e-08 -1.48826e-08 -0.000249773)
(2.42669e-08 1.3253e-08 -0.000250154)
(4.03184e-09 -1.59681e-08 -0.000262698)
(-1.27772e-08 5.30383e-09 -0.000263052)
(-1.59103e-08 -1.37359e-08 -0.000249836)
(1.44193e-08 1.35494e-08 -0.000250241)
(-1.93467e-08 3.85862e-09 -0.0002628)
(1.25193e-08 -1.1718e-08 -0.000263063)
(7.03228e-09 -3.04815e-08 -0.000249817)
(-2.27356e-08 1.08554e-08 -0.000250182)
(1.99091e-08 1.59304e-08 -0.000250177)
(6.13859e-09 -2.20655e-08 -0.000249829)
(-1.14339e-08 1.38158e-08 -0.000250201)
(1.69245e-08 -1.55815e-08 -0.000249836)
(2.00809e-08 -1.96611e-08 -0.000262733)
(-2.26636e-08 -6.12629e-09 -0.000263166)
(-1.35391e-08 1.3049e-08 -0.000263149)
(5.47291e-09 -1.95289e-08 -0.000262826)
(-1.45338e-08 5.69545e-09 -0.00026315)
(5.73483e-09 -2.42959e-08 -0.000262811)
(8.77803e-09 4.78695e-09 -0.000249966)
(6.75613e-09 -1.04465e-08 -0.000250257)
(2.47031e-08 9.68881e-09 -0.000250272)
(-6.19474e-09 -2.49951e-08 -0.000249909)
(1.59523e-08 -1.36765e-08 -0.000250237)
(-5.05112e-09 2.27043e-08 -0.000249941)
(1.66338e-08 -2.96887e-08 -0.000249828)
(-2.20628e-08 4.29799e-09 -0.000250224)
(3.04033e-08 1.04325e-08 -0.000249795)
(-5.80529e-09 -2.57446e-08 -0.000250199)
(-1.54205e-08 5.86976e-09 -0.00025023)
(1.45124e-08 -3.81815e-08 -0.000249872)
(-1.04053e-08 -1.36906e-08 -0.000250224)
(2.25477e-08 6.3553e-09 -0.000249878)
(-2.37609e-08 4.17748e-08 -0.000262651)
(1.47183e-08 -1.70709e-08 -0.000263103)
(1.56067e-08 -1.03832e-08 -0.000263156)
(-1.78464e-08 1.33104e-08 -0.000262831)
(1.74063e-08 -1.61656e-08 -0.00026309)
(-3.94288e-09 2.05569e-08 -0.000262749)
(7.54511e-09 -5.79088e-10 -0.000249856)
(2.69677e-08 -1.23877e-09 -0.000250115)
(2.66873e-08 7.14589e-09 -0.000249775)
(-3.60516e-08 -3.27193e-09 -0.000250165)
(8.32767e-09 -1.84667e-08 -0.000250135)
(-3.2678e-09 2.18794e-08 -0.000249815)
(-1.20955e-08 -2.14288e-08 -0.000250148)
(7.77474e-09 2.26166e-08 -0.000249766)
(6.21544e-09 1.48668e-08 -0.000262671)
(-9.17954e-09 -1.46244e-08 -0.000263093)
(1.19481e-08 5.0744e-08 -0.000262597)
(-1.39707e-08 -1.48952e-08 -0.000263049)
(-1.46094e-08 -1.35902e-08 -0.000263101)
(2.22455e-08 1.05138e-08 -0.000262726)
(-1.39579e-08 -7.61344e-09 -0.000263049)
(9.06438e-09 2.22182e-08 -0.000262747)
(4.77162e-10 -2.07658e-08 -0.000262756)
(-3.92344e-10 2.0263e-08 -0.000263038)
(-1.33452e-08 -9.33372e-09 -0.000262764)
(1.28637e-08 1.12732e-08 -0.00026305)
(4.15324e-09 1.46477e-08 -0.000263065)
(-1.76544e-08 -2.02571e-08 -0.00026268)
(1.30332e-08 6.09337e-09 -0.000263088)
(-1.7498e-08 -1.93643e-08 -0.000262721)
(2.28054e-08 -1.59886e-08 -0.000249796)
(-1.84652e-08 1.48304e-08 -0.00025013)
(8.028e-09 1.29673e-08 -0.000250134)
(-6.70105e-09 -2.36023e-08 -0.000249736)
(-1.01361e-08 1.13706e-08 -0.000250156)
(1.61363e-08 -2.08058e-08 -0.000249749)
(1.22121e-08 -2.66873e-08 -0.000262754)
(-2.04933e-08 2.53929e-09 -0.000263104)
(-1.41238e-08 1.43946e-08 -0.0002631)
(1.48595e-08 -1.61437e-08 -0.000262727)
(-1.36252e-08 9.83911e-09 -0.000263114)
(1.48134e-08 -1.53762e-08 -0.000262731)
(-1.53724e-08 2.25343e-08 -0.000249862)
(1.5401e-08 -1.68348e-08 -0.000250202)
(9.96536e-09 1.28664e-08 -0.000250218)
(-2.35221e-08 -1.43456e-08 -0.000249798)
(1.09743e-08 -7.5519e-09 -0.000250259)
(-2.10349e-08 2.1752e-08 -0.000249838)
(1.2837e-08 -2.95174e-08 -0.000249872)
(-1.77595e-08 1.47888e-08 -0.000250168)
(1.57788e-08 3.0827e-08 -0.000249857)
(-1.37977e-08 -1.9036e-08 -0.000250192)
(-1.47379e-08 1.35984e-08 -0.000250212)
(2.07632e-08 -1.7332e-08 -0.000249819)
(-1.85873e-08 -1.58661e-08 -0.000250229)
(2.55395e-08 1.92054e-08 -0.00024979)
(-1.33498e-08 1.77004e-08 -0.000262698)
(9.32577e-09 -1.48292e-08 -0.000263029)
(9.42474e-09 -9.49862e-09 -0.000263141)
(-1.14389e-08 2.33478e-08 -0.000262754)
(2.38564e-09 -1.50677e-08 -0.000263059)
(-7.81087e-09 2.45452e-08 -0.000262655)
(-1.69819e-08 1.24271e-08 -0.000249785)
(1.6608e-08 -1.38025e-08 -0.000250056)
(2.86658e-08 2.14784e-08 -0.000249729)
(-1.53383e-08 -1.34061e-08 -0.000250079)
(-9.52065e-10 -1.83229e-08 -0.000250115)
(-1.8316e-08 2.12525e-08 -0.000249725)
(-1.3783e-08 -1.54954e-08 -0.000250126)
(2.15954e-08 2.04887e-08 -0.000249683)
(1.37143e-08 2.06669e-08 -0.000262726)
(-1.20043e-08 -5.4412e-09 -0.000263041)
(1.50315e-08 1.52378e-08 -0.000262729)
(-6.55541e-10 -1.64802e-08 -0.000263005)
(-8.12363e-09 -1.34496e-08 -0.00026306)
(1.31611e-08 1.87946e-08 -0.000262687)
(-1.59687e-08 -1.05182e-08 -0.000263034)
(1.95312e-08 1.86274e-08 -0.000262663)
(-1.32987e-08 -1.91168e-08 -0.000262772)
(4.6195e-09 1.90899e-08 -0.000263132)
(-1.9063e-08 -1.62044e-08 -0.000262771)
(1.94856e-08 1.11819e-08 -0.000263184)
(1.92708e-09 1.3874e-08 -0.000263092)
(-1.01266e-08 -8.54073e-09 -0.000262831)
(1.2582e-08 1.61363e-08 -0.000263145)
(-1.31515e-08 -1.02087e-08 -0.00026283)
(1.89861e-08 -1.50689e-08 -0.000249827)
(-2.55506e-08 1.79457e-08 -0.000250187)
(1.57722e-08 1.83179e-08 -0.000250145)
(-1.98835e-08 -1.05051e-08 -0.000249808)
(-1.95085e-08 6.71561e-09 -0.000250155)
(5.98221e-09 -9.72143e-09 -0.000249843)
(1.59081e-08 -1.25956e-08 -0.000262791)
(-2.29871e-08 5.64333e-09 -0.000263164)
(-2.00295e-08 1.03084e-08 -0.000263099)
(5.75833e-09 -1.43803e-08 -0.000262772)
(-9.22303e-09 8.98307e-09 -0.000263124)
(-7.78521e-10 -2.06938e-08 -0.000262829)
(-1.64547e-08 2.96951e-08 -0.000249931)
(1.42705e-08 -1.96343e-08 -0.000250318)
(8.33836e-09 2.62412e-08 -0.000250266)
(-9.70495e-09 -1.65274e-08 -0.000249927)
(5.79726e-09 -1.8868e-08 -0.000250279)
(-1.20655e-08 6.88594e-09 -0.000249966)
(1.23522e-08 -2.76597e-08 -0.000249872)
(-2.7413e-08 1.61002e-08 -0.000250271)
(1.96913e-08 2.53032e-08 -0.000249848)
(-2.70722e-08 -1.55057e-08 -0.000250246)
(-1.12619e-08 2.19334e-08 -0.000250228)
(1.37538e-08 -1.64218e-08 -0.000249883)
(-1.42241e-08 -1.74309e-08 -0.000250217)
(1.18877e-08 1.39177e-08 -0.000249857)
(-1.49661e-08 1.90134e-08 -0.000262728)
(-7.26168e-10 -1.65636e-08 -0.000263126)
(1.10329e-08 -1.64306e-08 -0.000263134)
(-1.60684e-08 1.21115e-08 -0.00026284)
(2.56361e-09 -1.23347e-08 -0.000263093)
(-1.47265e-08 3.25703e-09 -0.000262785)
(-2.98168e-08 1.47235e-08 -0.000249784)
(1.67548e-08 -2.57171e-08 -0.000250189)
(2.26244e-08 2.00574e-08 -0.000249772)
(-2.37716e-08 -2.23929e-08 -0.000250172)
(1.66597e-08 -1.62845e-08 -0.000250156)
(-1.60854e-08 1.64075e-08 -0.000249831)
(-2.49286e-08 -8.81462e-09 -0.000250099)
(5.94977e-09 1.11946e-08 -0.000249805)
(1.6764e-08 7.63121e-09 -0.00026276)
(-2.75586e-08 -3.13664e-09 -0.000263135)
(5.49261e-09 2.32581e-08 -0.000262715)
(-9.50891e-09 -2.25202e-08 -0.000263119)
(-1.62249e-08 -1.3334e-09 -0.000263079)
(5.30007e-09 1.16206e-08 -0.000262792)
(-1.88213e-08 -8.56669e-09 -0.000263087)
(7.57143e-09 1.00697e-08 -0.000262754)
(-1.5818e-08 -1.43029e-08 -0.000262741)
(5.0815e-09 9.35066e-09 -0.000263054)
(-2.20349e-08 -1.27062e-08 -0.000262771)
(1.07271e-08 1.596e-08 -0.000263074)
(3.26276e-09 2.0288e-08 -0.000263082)
(-8.45252e-09 -2.25138e-08 -0.000262678)
(1.60325e-08 4.64317e-09 -0.000263092)
(-2.28455e-08 -1.40842e-08 -0.000262722)
(1.58905e-08 -2.12808e-08 -0.000249779)
(-2.34689e-08 8.34707e-09 -0.000250122)
(1.25856e-08 1.44087e-08 -0.000250099)
(-9.02492e-09 -2.69191e-08 -0.000249718)
(-7.1389e-09 1.50577e-08 -0.000250172)
(4.4352e-09 -2.7192e-08 -0.000249733)
(1.52653e-08 -1.60366e-08 -0.000262764)
(-9.69894e-09 1.76438e-08 -0.00026311)
(-7.76505e-09 1.273e-08 -0.000263102)
(1.85577e-09 -2.3387e-08 -0.000262716)
(-1.57746e-08 9.44149e-09 -0.000263183)
(2.27481e-08 -6.8747e-09 -0.000262735)
(-2.03653e-08 2.58e-08 -0.000249888)
(7.69411e-09 -1.47962e-08 -0.000250226)
(1.37181e-08 1.37437e-08 -0.000250233)
(-2.26477e-08 -8.84547e-09 -0.000249802)
(1.29341e-08 -1.28876e-08 -0.000250253)
(-2.13265e-08 1.97923e-08 -0.000249826)
(1.59192e-08 -2.85478e-08 -0.000249852)
(-1.18975e-08 1.53997e-08 -0.000250182)
(2.11743e-08 2.292e-08 -0.000249809)
(-1.32807e-08 -2.33616e-08 -0.000250197)
(-1.25719e-08 7.76563e-09 -0.000250246)
(2.34125e-08 -1.65418e-08 -0.000249845)
(-1.79573e-08 -1.7269e-08 -0.000250277)
(2.61653e-08 1.56311e-08 -0.000249807)
(-1.36664e-08 1.82977e-08 -0.000262724)
(4.79067e-09 -7.18404e-09 -0.000263059)
(1.18504e-08 -1.33125e-08 -0.000263126)
(-1.71841e-08 1.83927e-08 -0.000262733)
(5.68065e-09 -1.57549e-08 -0.000263091)
(-6.03313e-09 1.86034e-08 -0.00026269)
(-2.88607e-08 2.01009e-08 -0.00024979)
(1.82133e-08 -1.52015e-08 -0.000250099)
(8.8427e-09 2.68337e-08 -0.000249754)
(-2.37064e-08 -6.57094e-09 -0.000250047)
(4.96633e-09 -1.99372e-08 -0.00025015)
(-1.83624e-08 2.52457e-08 -0.000249761)
(-1.2694e-08 -1.39742e-08 -0.000250134)
(8.5008e-09 1.98477e-08 -0.000249737)
(1.76079e-08 1.82952e-08 -0.00026273)
(-1.31015e-08 -1.19336e-08 -0.000263053)
(2.0404e-09 2.75211e-08 -0.000262675)
(-1.19756e-08 -1.5719e-08 -0.000263049)
(-7.63788e-09 -1.49007e-08 -0.000263119)
(1.34957e-08 1.76429e-08 -0.000262719)
(-1.71506e-08 -1.11322e-08 -0.000263081)
(1.43182e-08 2.07184e-08 -0.000262644)
(-1.88934e-08 -1.78016e-08 -0.000262732)
(-7.33324e-09 2.60653e-08 -0.000263182)
(-1.51801e-08 -1.72608e-08 -0.000262789)
(1.39112e-08 -3.44106e-09 -0.000263185)
(1.71907e-08 9.707e-09 -0.000263138)
(-1.29594e-08 -2.03892e-08 -0.000262805)
(1.51824e-09 1.83836e-08 -0.000263175)
(-1.31176e-08 -1.62357e-08 -0.000262847)
(2.36086e-08 -2.01999e-08 -0.000249809)
(-1.09981e-08 2.16367e-08 -0.000250236)
(2.81216e-08 1.2256e-08 -0.000250188)
(-1.5894e-08 -1.38954e-08 -0.00024986)
(-2.8604e-08 4.59909e-09 -0.000250199)
(1.44164e-08 -1.85036e-08 -0.000249849)
(1.87527e-08 -1.56542e-08 -0.000262828)
(-1.70029e-08 3.61125e-09 -0.000263217)
(-2.26198e-08 5.91331e-09 -0.000263118)
(9.09561e-09 -1.74058e-08 -0.000262826)
(-1.12422e-08 7.53038e-09 -0.000263175)
(1.54301e-08 -1.81446e-08 -0.000262872)
(-2.01195e-08 1.97098e-08 -0.000249913)
(2.17467e-08 -1.00964e-08 -0.000250345)
(1.25205e-08 3.06739e-08 -0.000250302)
(-1.85555e-08 -2.36101e-08 -0.00024994)
(5.16812e-09 -3.15914e-08 -0.000250295)
(-1.54423e-08 1.78411e-08 -0.000249961)
(1.4005e-08 -2.5608e-08 -0.000249923)
(-1.96471e-08 6.52903e-09 -0.000250301)
(2.15659e-08 1.65175e-08 -0.000249902)
(-1.68017e-08 -7.27609e-09 -0.000250295)
(-1.2826e-08 1.79474e-08 -0.000250284)
(1.92553e-08 -2.30219e-08 -0.00024993)
(-1.38421e-08 -2.07963e-08 -0.000250266)
(1.79208e-08 1.99726e-08 -0.000249947)
(-7.54071e-09 1.6666e-08 -0.000262749)
(-1.44574e-09 -1.60072e-08 -0.000263114)
(7.23571e-09 -2.31706e-08 -0.000263151)
(-1.25758e-08 1.67928e-08 -0.000262843)
(1.3715e-08 -1.295e-08 -0.000263094)
(-1.4572e-08 1.7738e-08 -0.000262762)
(-2.21609e-08 1.63855e-08 -0.00024982)
(1.30794e-08 -1.67635e-08 -0.000250184)
(2.18135e-08 1.65705e-08 -0.000249801)
(-5.19809e-09 -1.77764e-08 -0.00025019)
(1.82481e-08 -1.31356e-08 -0.000250155)
(-1.74675e-08 1.72563e-08 -0.000249823)
(-2.49308e-08 -1.49662e-08 -0.000250173)
(2.33117e-08 1.66375e-08 -0.000249825)
(2.13654e-08 7.25826e-09 -0.000262782)
(-1.65121e-08 -1.93276e-09 -0.000263186)
(-6.74799e-10 2.39121e-08 -0.000262731)
(1.18375e-09 -1.84968e-08 -0.000263119)
(-9.2294e-09 -1.55988e-08 -0.000263145)
(1.77151e-08 1.49535e-08 -0.00026281)
(-1.70814e-08 -5.05838e-09 -0.000263088)
(1.68376e-08 1.77959e-08 -0.000262778)
(-3.89733e-09 -2.1651e-08 -0.000262773)
(8.47211e-09 1.26703e-08 -0.000263035)
(-1.59334e-08 -9.42606e-09 -0.00026279)
(1.34192e-08 9.5845e-09 -0.000263101)
(2.208e-08 9.50572e-09 -0.000263102)
(-8.90564e-09 -1.8123e-08 -0.000262708)
(1.35466e-08 2.54273e-08 -0.000263196)
(-1.44371e-08 -1.92423e-08 -0.000262698)
(1.19779e-08 -2.10291e-08 -0.000249813)
(-8.64053e-09 1.75669e-08 -0.000250116)
(3.04392e-08 1.27458e-08 -0.000250176)
(-2.07866e-08 -1.95195e-08 -0.000249718)
(-1.66169e-08 1.13421e-08 -0.000250206)
(2.7636e-08 -1.19252e-08 -0.000249736)
(1.50698e-08 -1.23844e-08 -0.000262822)
(-1.13861e-08 9.11092e-09 -0.0002631)
(-1.79889e-09 2.19245e-08 -0.00026311)
(2.49841e-08 -1.33458e-08 -0.000262711)
(-9.81463e-09 2.05686e-08 -0.000263197)
(1.14745e-08 -1.93033e-08 -0.000262754)
(-2.30245e-08 9.51407e-09 -0.000249928)
(1.77721e-08 -8.40044e-09 -0.000250204)
(1.47485e-08 2.63709e-08 -0.000250222)
(-1.68253e-08 -2.32565e-08 -0.000249837)
(1.31685e-08 -2.10926e-08 -0.000250292)
(-1.45479e-08 3.0752e-08 -0.000249847)
(1.77617e-08 -2.00505e-08 -0.000249893)
(-1.5749e-08 1.56042e-08 -0.000250197)
(1.82286e-08 2.06897e-08 -0.000249889)
(-1.36734e-08 -1.32618e-08 -0.000250185)
(-9.14326e-09 2.68635e-08 -0.00025025)
(1.75452e-08 -2.5502e-08 -0.000249826)
(-1.55588e-08 -2.4755e-08 -0.000250243)
(1.6092e-08 2.90622e-08 -0.000249814)
(-7.32018e-09 2.00879e-08 -0.000262726)
(8.32026e-09 -1.38259e-08 -0.000263014)
(1.36374e-08 -1.00317e-08 -0.000263138)
(-8.62307e-09 2.25983e-08 -0.000262726)
(1.43353e-08 -1.39356e-08 -0.000263115)
(-1.62293e-08 1.50808e-08 -0.000262688)
(-1.53046e-08 1.74174e-08 -0.000249782)
(1.65181e-08 -1.31366e-08 -0.000250069)
(2.11047e-08 2.14699e-08 -0.000249784)
(-1.05934e-08 -1.8746e-08 -0.0002501)
(2.5416e-08 -7.633e-09 -0.000250159)
(-2.13209e-08 1.77525e-08 -0.00024971)
(-2.5285e-08 -1.42851e-08 -0.00025017)
(2.00045e-08 1.59067e-08 -0.000249746)
(1.86569e-08 1.1683e-08 -0.000262761)
(-1.55199e-08 -6.4107e-09 -0.000263071)
(7.07184e-09 1.82086e-08 -0.000262744)
(3.76813e-09 -2.05561e-08 -0.000263037)
(-1.12233e-08 -2.14121e-08 -0.000263107)
(1.15734e-08 2.00017e-08 -0.000262714)
(-1.31749e-08 -1.12285e-08 -0.000263089)
(2.3249e-08 1.16447e-08 -0.00026269)
(9.36879e-09 -1.59351e-08 -0.000262816)
(5.7646e-09 1.8671e-08 -0.000263108)
(-1.85202e-08 3.18351e-09 -0.00026277)
(2.79246e-08 3.57735e-09 -0.000263191)
(1.13935e-09 1.99244e-08 -0.000263101)
(-1.68463e-08 -5.07174e-09 -0.00026279)
(2.10067e-08 1.45887e-08 -0.000263159)
(-9.32996e-09 -1.8576e-08 -0.000262763)
(5.93669e-09 -1.70502e-08 -0.00024984)
(-1.83922e-08 2.50413e-08 -0.000250225)
(9.2184e-09 2.30625e-08 -0.000250118)
(-1.9499e-08 -1.24186e-08 -0.000249787)
(-1.8232e-08 1.61386e-08 -0.000250202)
(2.32532e-08 -7.44249e-09 -0.000249804)
(1.94197e-08 5.92195e-09 -0.00026285)
(-1.81641e-08 1.38641e-08 -0.000263181)
(-1.65826e-08 1.64321e-08 -0.000263096)
(2.08213e-08 -6.83702e-09 -0.0002628)
(-2.54978e-08 -2.12571e-09 -0.000263118)
(1.11688e-08 -1.19771e-08 -0.000262831)
(-1.85571e-08 1.0602e-08 -0.000249936)
(2.47412e-08 -1.1916e-08 -0.000250335)
(1.77516e-08 1.76959e-08 -0.000250251)
(-8.86413e-09 -2.35976e-08 -0.000249918)
(1.91206e-08 -2.48927e-08 -0.000250318)
(-3.79993e-09 2.71901e-08 -0.000249928)
(2.0317e-08 9.34572e-10 -0.00024992)
(-2.42283e-08 1.45823e-08 -0.000250247)
(2.02961e-08 -5.4966e-10 -0.000249869)
(-2.20222e-08 -1.56464e-08 -0.000250216)
(-1.8119e-08 1.24607e-08 -0.000250218)
(1.35205e-08 -2.5401e-08 -0.000249878)
(-2.03498e-08 -9.46914e-09 -0.000250211)
(1.29042e-08 2.2586e-08 -0.000249842)
(7.98765e-09 2.2661e-08 -0.000262777)
(9.91893e-09 -1.6439e-08 -0.0002631)
(1.40736e-08 -1.70649e-08 -0.000263149)
(-7.89302e-09 2.56357e-08 -0.000262806)
(8.22089e-09 -2.45382e-08 -0.000263088)
(-9.54709e-09 1.46659e-08 -0.000262727)
(9.08193e-10 2.30649e-08 -0.000249837)
(1.40911e-08 -2.31644e-08 -0.000250144)
(6.33708e-09 2.24016e-08 -0.000249815)
(-1.37231e-08 -2.71472e-08 -0.000250159)
(9.45116e-09 -2.39131e-08 -0.000250129)
(-1.88794e-08 1.26654e-08 -0.000249807)
(-1.52451e-08 -2.632e-08 -0.000250128)
(2.10197e-08 1.03961e-08 -0.000249769)
(1.948e-08 -8.57631e-10 -0.000262767)
(-2.18741e-08 -7.17532e-09 -0.000263109)
(-1.46413e-09 1.80556e-08 -0.000262754)
(-1.07302e-08 -1.86965e-08 -0.000263076)
(-2.62949e-08 -1.50357e-09 -0.000263078)
(1.20196e-08 1.89977e-08 -0.000262766)
(-1.1265e-08 -1.55222e-08 -0.000263059)
(1.82495e-08 1.15498e-08 -0.000262727)
(-1.88714e-08 -6.86252e-09 -0.000262702)
(1.20533e-08 1.99053e-08 -0.000263072)
(-8.67588e-09 -1.85075e-08 -0.000262792)
(1.5439e-08 2.25506e-08 -0.000263071)
(2.15199e-08 2.53132e-08 -0.000263087)
(-7.26354e-09 -1.1372e-08 -0.000262656)
(1.31478e-08 2.17646e-08 -0.000263087)
(-1.26931e-08 -6.34826e-09 -0.000262786)
(1.55261e-08 -1.50292e-08 -0.000249793)
(-1.60646e-08 2.15607e-08 -0.000250122)
(2.52125e-08 1.98999e-08 -0.000250092)
(-8.77488e-09 -1.27868e-08 -0.000249772)
(-2.20317e-08 1.84797e-08 -0.000250179)
(1.60706e-08 -7.00248e-09 -0.000249757)
(5.22643e-09 -1.9275e-08 -0.000262776)
(-1.66288e-08 2.29185e-08 -0.000263073)
(-1.63117e-08 1.89897e-08 -0.000263092)
(4.72034e-09 -1.48204e-08 -0.000262721)
(-1.21951e-08 2.12497e-08 -0.000263112)
(1.21734e-08 -5.93685e-09 -0.000262732)
(-1.82122e-08 1.51599e-08 -0.000249918)
(2.20583e-08 -1.62246e-08 -0.000250258)
(2.2695e-08 2.44546e-08 -0.000250275)
(-1.16202e-08 -9.90841e-09 -0.00024983)
(2.11089e-08 -1.36034e-08 -0.00025029)
(-8.18698e-09 2.71495e-08 -0.000249878)
(1.12686e-08 -2.4249e-08 -0.000249835)
(-1.99431e-08 2.48244e-08 -0.000250197)
(6.57846e-09 2.92795e-08 -0.000249826)
(-2.34638e-08 -1.27226e-08 -0.000250172)
(-1.73974e-08 2.59927e-08 -0.000250251)
(1.71736e-08 -8.97007e-09 -0.0002498)
(-2.26797e-08 -2.17339e-08 -0.000250235)
(8.88561e-09 2.02373e-08 -0.000249788)
(-1.48138e-08 7.91842e-09 -0.00026271)
(1.30698e-08 -1.84022e-08 -0.000263023)
(2.12437e-08 -9.51614e-09 -0.000263142)
(-4.21011e-09 1.5748e-08 -0.00026278)
(1.70033e-08 -1.55045e-08 -0.000263066)
(-2.50317e-09 1.03882e-08 -0.000262676)
(-2.16544e-08 1.37008e-08 -0.00024978)
(2.45801e-08 -2.03392e-08 -0.000250105)
(2.11853e-08 1.79796e-08 -0.000249737)
(-2.78609e-08 -2.2148e-08 -0.000250083)
(2.25041e-08 -1.91357e-08 -0.000250164)
(-1.20487e-08 1.24456e-08 -0.000249757)
(-2.45559e-08 -2.04698e-08 -0.000250151)
(8.11778e-09 1.40118e-08 -0.000249708)