/*--------------------------------*- C++ -*----------------------------------*\
| =========                 |                                                 |
| \\      /  F ield         | OpenFOAM: The Open Source CFD Toolbox           |
|  \\    /   O peration     | Version:  2206                                  |
|   \\  /    A nd           | Website:  www.openfoam.com                      |
|    \\/     M anipulation  |                                                 |
\*---------------------------------------------------------------------------*/
FoamFile
{
    version     2.0;
    format      ascii;
    arch        "LSB;label=32;scalar=64";
    class       volScalarField;
    location    "0.1";
    object      p;
}
// * * * * * * * * * * * * * * * * * * * * * * * * * * * * * * * * * * * * * //

dimensions      [0 2 -2 0 0 0 0];

internalField   nonuniform List<scalar> 
66940
(
-0.029643
-0.029643
-0.0296428
-0.029621
-0.0299956
-0.0299957
-0.0299957
-0.0299736
-0.030348
-0.0303481
-0.0303482
-0.0303261
-0.0307007
-0.0307007
-0.0307007
-0.0306785
-0.0310532
-0.0310532
-0.0310532
-0.0310312
-0.0314058
-0.0314058
-0.0314058
-0.0313836
-0.0317583
-0.0317583
-0.0317584
-0.0317363
-0.0321109
-0.0321109
-0.0321109
-0.0320888
-0.0324633
-0.0324633
-0.0324634
-0.0324414
-0.0328137
-0.0328145
-0.0328145
-0.0327937
-0.0331223
-0.0331421
-0.0331413
-0.0331386
-0.0328686
-0.0330931
-0.0330871
-0.033217
-0.0295767
-0.029555
-0.0295549
-0.0295767
-0.0295548
-0.0295548
-0.0295548
-0.0295546
-0.0295767
-0.0295548
-0.0295548
-0.029577
-0.029621
-0.0299296
-0.029643
-0.0296429
-0.0299075
-0.0299075
-0.029621
-0.0299295
-0.0296431
-0.029643
-0.0299076
-0.0299076
-0.0296428
-0.0299076
-0.0299077
-0.029621
-0.0299295
-0.0296429
-0.0299077
-0.0299076
-0.0299297
-0.0299738
-0.030282
-0.0299956
-0.0299957
-0.0302599
-0.03026
-0.0299737
-0.0302819
-0.0299957
-0.0299956
-0.03026
-0.03026
-0.0299957
-0.03026
-0.0302598
-0.0299737
-0.0302819
-0.0299958
-0.03026
-0.03026
-0.0302821
-0.0303263
-0.0306344
-0.030348
-0.0303481
-0.0306126
-0.0306125
-0.0303262
-0.0306344
-0.0303481
-0.0303481
-0.0306125
-0.0306125
-0.0303479
-0.0306126
-0.0306127
-0.0303262
-0.0306344
-0.0303481
-0.0306126
-0.0306126
-0.0306346
-0.0306786
-0.0309869
-0.0307008
-0.0307007
-0.0309652
-0.0309651
-0.0306787
-0.0309869
-0.0307006
-0.0307006
-0.0309651
-0.0309651
-0.0307007
-0.0309651
-0.0309649
-0.0306787
-0.030987
-0.0307008
-0.0309651
-0.0309651
-0.0309872
-0.0310312
-0.0313395
-0.0310533
-0.0310533
-0.0313178
-0.0313176
-0.0310312
-0.0313395
-0.0310532
-0.0310531
-0.0313176
-0.0313176
-0.031053
-0.0313177
-0.0313178
-0.0310312
-0.0313395
-0.0310533
-0.0313177
-0.0313177
-0.0313397
-0.0313837
-0.031692
-0.0314059
-0.0314058
-0.0316703
-0.0316702
-0.0313838
-0.031692
-0.0314057
-0.0314057
-0.0316702
-0.0316702
-0.0314058
-0.0316702
-0.03167
-0.0313838
-0.0316921
-0.0314059
-0.0316702
-0.0316702
-0.0316923
-0.0317363
-0.0320446
-0.0317585
-0.0317584
-0.0320229
-0.0320227
-0.0317364
-0.0320446
-0.0317583
-0.0317583
-0.0320227
-0.0320227
-0.0317582
-0.0320228
-0.0320229
-0.0317363
-0.0320446
-0.0317584
-0.0320228
-0.0320228
-0.0320448
-0.0320888
-0.0323971
-0.032111
-0.0321109
-0.0323753
-0.0323753
-0.032089
-0.0323971
-0.0321109
-0.0321108
-0.0323752
-0.0323752
-0.0321109
-0.0323752
-0.0323751
-0.0320889
-0.0323971
-0.032111
-0.0323753
-0.0323752
-0.0323973
-0.0324414
-0.032749
-0.0324634
-0.0324634
-0.0327272
-0.0327271
-0.0324415
-0.0327489
-0.0324633
-0.0324633
-0.0327271
-0.0327271
-0.0324632
-0.0327272
-0.0327273
-0.0324414
-0.0327489
-0.0324634
-0.0327271
-0.0327272
-0.0327493
-0.0327937
-0.0330967
-0.0328145
-0.0328146
-0.0330697
-0.0330696
-0.0327937
-0.0330967
-0.0328145
-0.0328144
-0.0330705
-0.0330704
-0.0328146
-0.0330704
-0.0330699
-0.0327937
-0.033097
-0.0328146
-0.0330698
-0.0330697
-0.0330971
-0.0331377
-0.0332537
-0.0331412
-0.0331412
-0.0332143
-0.0332139
-0.0331376
-0.0332547
-0.0331421
-0.0331419
-0.0332143
-0.0332146
-0.0331415
-0.0332143
-0.0332146
-0.0331381
-0.0332539
-0.0331413
-0.0332145
-0.0332144
-0.0332539
-0.0332169
-0.0330866
-0.0330869
-0.033223
-0.033087
-0.0330869
-0.0328644
-0.0328689
-0.0328687
-0.0330868
-0.033217
-0.033087
-0.0294002
-0.0295546
-0.0295546
-0.0295546
-0.0295546
-0.0293995
-0.0293785
-0.0293998
-0.0293779
-0.0294006
-0.0294003
-0.0294005
-0.0297533
-0.0296212
-0.0296211
-0.0297534
-0.0296212
-0.0297534
-0.0297531
-0.0296211
-0.0296212
-0.0297531
-0.0296429
-0.0296428
-0.0296428
-0.0299075
-0.0299075
-0.0299075
-0.0299077
-0.0297527
-0.0296214
-0.0296433
-0.0297312
-0.0296216
-0.0297529
-0.0297314
-0.0296212
-0.0297531
-0.0297526
-0.0296428
-0.0296212
-0.0297312
-0.0296219
-0.029731
-0.0297529
-0.029621
-0.0296212
-0.029753
-0.0297534
-0.0297531
-0.0301055
-0.0299739
-0.0299739
-0.0301057
-0.0299738
-0.0301056
-0.0301057
-0.0299738
-0.0299739
-0.0301057
-0.0299956
-0.0299956
-0.0299957
-0.0302599
-0.0302599
-0.0302599
-0.0302599
-0.0301052
-0.029974
-0.0299956
-0.0300838
-0.0299742
-0.0301054
-0.0300837
-0.0299739
-0.0301056
-0.0301049
-0.0299957
-0.0299742
-0.0300838
-0.0299746
-0.0300837
-0.0301052
-0.0299738
-0.0299738
-0.0301057
-0.0301056
-0.0301056
-0.030458
-0.0303262
-0.0303262
-0.0304581
-0.0303262
-0.0304581
-0.0304581
-0.0303263
-0.0303263
-0.0304581
-0.0303481
-0.0303481
-0.030348
-0.0306125
-0.0306125
-0.0306125
-0.0306126
-0.0304577
-0.0303265
-0.0303481
-0.0304362
-0.0303267
-0.0304578
-0.0304362
-0.0303263
-0.0304581
-0.0304574
-0.0303481
-0.0303266
-0.0304363
-0.030327
-0.0304362
-0.0304577
-0.0303261
-0.0303263
-0.030458
-0.0304583
-0.030458
-0.0308106
-0.0306787
-0.0306788
-0.0308106
-0.0306788
-0.0308106
-0.0308106
-0.0306787
-0.0306788
-0.0308106
-0.0307007
-0.0307006
-0.0307007
-0.0309651
-0.0309651
-0.030965
-0.030965
-0.0308102
-0.030679
-0.0307006
-0.0307888
-0.0306792
-0.0308104
-0.0307888
-0.0306788
-0.0308106
-0.0308099
-0.0307006
-0.0306791
-0.0307889
-0.0306795
-0.0307888
-0.0308103
-0.0306787
-0.0306787
-0.0308107
-0.0308107
-0.0308106
-0.0311632
-0.0310312
-0.0310314
-0.0311632
-0.0310313
-0.0311632
-0.0311631
-0.0310312
-0.0310313
-0.0311631
-0.0310532
-0.0310532
-0.0310532
-0.0313176
-0.0313176
-0.0313176
-0.0313177
-0.0311628
-0.0310316
-0.0310532
-0.0311414
-0.0310317
-0.0311629
-0.0311413
-0.0310313
-0.0311631
-0.0311624
-0.0310532
-0.0310316
-0.0311414
-0.031032
-0.0311413
-0.0311628
-0.0310312
-0.0310314
-0.0311631
-0.0311634
-0.031163
-0.0315157
-0.0313838
-0.0313839
-0.0315157
-0.0313839
-0.0315157
-0.0315157
-0.0313838
-0.0313838
-0.0315157
-0.0314058
-0.0314057
-0.0314058
-0.0316702
-0.0316702
-0.0316701
-0.0316701
-0.0315153
-0.0313841
-0.0314057
-0.0314939
-0.0313843
-0.0315155
-0.0314939
-0.0313839
-0.0315157
-0.031515
-0.0314057
-0.0313842
-0.031494
-0.0313846
-0.0314939
-0.0315153
-0.0313838
-0.0313838
-0.0315158
-0.0315158
-0.0315157
-0.0318683
-0.0317364
-0.0317365
-0.0318683
-0.0317364
-0.0318683
-0.0318682
-0.0317363
-0.0317364
-0.0318682
-0.0317583
-0.0317583
-0.0317583
-0.0320228
-0.0320227
-0.0320227
-0.0320228
-0.0318679
-0.0317367
-0.0317583
-0.0318465
-0.0317368
-0.0318681
-0.0318465
-0.0317364
-0.0318682
-0.0318675
-0.0317583
-0.0317367
-0.0318465
-0.0317371
-0.0318465
-0.0318679
-0.0317363
-0.0317365
-0.0318682
-0.0318685
-0.0318681
-0.0322208
-0.0320889
-0.032089
-0.0322208
-0.032089
-0.0322208
-0.0322208
-0.0320889
-0.0320889
-0.0322208
-0.0321109
-0.0321109
-0.0321109
-0.0323752
-0.0323752
-0.0323752
-0.0323751
-0.0322204
-0.0320892
-0.0321108
-0.032199
-0.0320894
-0.0322206
-0.032199
-0.032089
-0.0322208
-0.0322201
-0.0321109
-0.0320893
-0.0321991
-0.0320897
-0.032199
-0.0322204
-0.0320889
-0.0320889
-0.0322209
-0.0322209
-0.0322208
-0.0325735
-0.0324414
-0.0324415
-0.0325733
-0.0324415
-0.0325732
-0.0325735
-0.0324415
-0.0324415
-0.0325733
-0.0324633
-0.0324633
-0.0324633
-0.0327267
-0.0327267
-0.0327266
-0.0327267
-0.0325731
-0.0324418
-0.0324633
-0.0325513
-0.0324418
-0.032573
-0.0325513
-0.0324415
-0.0325732
-0.0325728
-0.0324633
-0.0324419
-0.0325513
-0.0324421
-0.0325513
-0.032573
-0.0324414
-0.0324416
-0.032573
-0.0325734
-0.032573
-0.0329277
-0.0327945
-0.0327933
-0.0329281
-0.0327949
-0.0329271
-0.0329278
-0.0327944
-0.0327934
-0.0329281
-0.0328137
-0.0328137
-0.0328137
-0.0330615
-0.0330615
-0.0330611
-0.0330607
-0.0329259
-0.0327939
-0.0328139
-0.0329022
-0.0327936
-0.0329273
-0.0329009
-0.0327949
-0.0329271
-0.0329252
-0.0328138
-0.0327941
-0.0329022
-0.0327942
-0.0329007
-0.0329274
-0.0327946
-0.0327946
-0.0329247
-0.0329273
-0.0329273
-0.0333075
-0.0331563
-0.0331519
-0.03333
-0.0331586
-0.0333248
-0.0333085
-0.0331569
-0.0331525
-0.0333306
-0.0331222
-0.0331219
-0.0331224
-0.0330927
-0.0330908
-0.033093
-0.0330929
-0.0332752
-0.0331509
-0.0331324
-0.0332108
-0.0331428
-0.0333022
-0.0331966
-0.0331589
-0.0333256
-0.0332737
-0.0331306
-0.0331511
-0.0332102
-0.0331427
-0.0331944
-0.0333016
-0.0331559
-0.0331561
-0.0332354
-0.033311
-0.0333105
-0.0336049
-0.033571
-0.0334651
-0.0345195
-0.0336341
-0.0347082
-0.033608
-0.0335717
-0.0334657
-0.0345212
-0.0323355
-0.0328485
-0.032849
-0.0325819
-0.0328008
-0.032426
-0.0324263
-0.0331578
-0.0334652
-0.0329775
-0.0326821
-0.0333403
-0.0340047
-0.0325014
-0.0336344
-0.0347086
-0.0331594
-0.0329764
-0.0334643
-0.0326759
-0.0333387
-0.0325019
-0.0340039
-0.0335712
-0.0335712
-0.0327917
-0.0342616
-0.0342624
-0.0295766
-0.0294446
-0.0295766
-0.0294447
-0.0294447
-0.0295766
-0.0295767
-0.0294446
-0.0294447
-0.0294003
-0.0293789
-0.0294006
-0.0294448
-0.0295766
-0.0294447
-0.0295762
-0.0294448
-0.0295766
-0.0294447
-0.0295762
-0.0294447
-0.029467
-0.0295758
-0.0295549
-0.0294447
-0.029467
-0.0295753
-0.0294447
-0.029467
-0.0295758
-0.0295549
-0.0294447
-0.029467
-0.0295753
-0.0294005
-0.0294005
-0.0294003
-0.0294003
-0.0295766
-0.0294446
-0.0294447
-0.0295766
-0.0295767
-0.0294446
-0.0294447
-0.0295766
-0.0294448
-0.0294448
-0.0295767
-0.0294447
-0.0295768
-0.0294452
-0.0294666
-0.0295765
-0.029555
-0.029445
-0.0294664
-0.0295763
-0.0294448
-0.0295767
-0.0294448
-0.0295768
-0.0294453
-0.0294667
-0.0295551
-0.0295765
-0.0294664
-0.0294451
-0.0295763
-0.0294001
-0.0294003
-0.0293995
-0.0293787
-0.029378
-0.0293998
-0.0294001
-0.0294003
-0.0294453
-0.0294667
-0.0295765
-0.0295549
-0.0294451
-0.0294663
-0.0295763
-0.0294448
-0.0295767
-0.0294447
-0.0295767
-0.0294453
-0.0294666
-0.0295549
-0.0295765
-0.0294663
-0.0294451
-0.0295763
-0.0294448
-0.0295767
-0.0294448
-0.0295767
-0.0295767
-0.0294448
-0.0294449
-0.0295767
-0.0295766
-0.0294447
-0.0294446
-0.0295766
-0.0294447
-0.0294448
-0.0294671
-0.029555
-0.0295758
-0.0294671
-0.0294448
-0.0295753
-0.0294448
-0.0294671
-0.029555
-0.0295759
-0.0294671
-0.0294447
-0.0295753
-0.0294448
-0.0295766
-0.0294448
-0.0295763
-0.0294448
-0.0295767
-0.0294447
-0.0295763
-0.0294003
-0.0294003
-0.0294448
-0.0295767
-0.0295767
-0.0294447
-0.0294447
-0.0295767
-0.0294448
-0.0295767
-0.0294447
-0.0296212
-0.0297534
-0.0296211
-0.0297531
-0.029621
-0.029621
-0.0297532
-0.0297533
-0.0297532
-0.0299295
-0.0297978
-0.0299295
-0.0297976
-0.0297976
-0.0299296
-0.0299295
-0.0297977
-0.0297975
-0.0297533
-0.0296212
-0.0296211
-0.0297534
-0.0297526
-0.0296212
-0.0296427
-0.0297313
-0.0296219
-0.0297529
-0.0297311
-0.0297526
-0.0296212
-0.0296427
-0.0297312
-0.0296219
-0.0297528
-0.029731
-0.0297978
-0.0299296
-0.0297978
-0.0299295
-0.0297978
-0.0299295
-0.0297978
-0.0299295
-0.0297984
-0.0298194
-0.0299292
-0.0299075
-0.0297981
-0.0298194
-0.0299288
-0.0297984
-0.0298194
-0.0299291
-0.0299076
-0.029798
-0.0298194
-0.0299288
-0.0296211
-0.029621
-0.0297533
-0.0297532
-0.0297532
-0.0296211
-0.0297531
-0.0299295
-0.0297978
-0.0297976
-0.0299295
-0.0299294
-0.0297976
-0.0297976
-0.0299294
-0.0297975
-0.0297527
-0.0296214
-0.0296434
-0.0297313
-0.0296216
-0.0297529
-0.0297313
-0.0297531
-0.0296211
-0.0296212
-0.0297531
-0.0297527
-0.0296434
-0.0296214
-0.0297312
-0.0296216
-0.0297313
-0.0297529
-0.0297976
-0.0299295
-0.0297975
-0.0299294
-0.029798
-0.0298195
-0.0299292
-0.0299074
-0.0297978
-0.0298193
-0.029929
-0.0297976
-0.0299294
-0.0297975
-0.0299294
-0.029798
-0.0298195
-0.0299075
-0.0299292
-0.0298193
-0.0297978
-0.029929
-0.0297531
-0.0296211
-0.0296212
-0.0297531
-0.0297527
-0.0296432
-0.0296214
-0.0297313
-0.0296216
-0.0297314
-0.0297529
-0.0297531
-0.0296211
-0.0296212
-0.0297532
-0.029798
-0.0298195
-0.0299292
-0.0299075
-0.0297978
-0.0298194
-0.0299289
-0.0297976
-0.0299294
-0.0297975
-0.0299294
-0.029798
-0.0298194
-0.0299076
-0.0299292
-0.0298194
-0.0297978
-0.029929
-0.0297976
-0.0299294
-0.0297975
-0.0299294
-0.0296211
-0.029621
-0.0297532
-0.0297532
-0.0297533
-0.0296212
-0.0297534
-0.0299294
-0.0297975
-0.0297976
-0.0299295
-0.0299295
-0.0297975
-0.0297976
-0.0299295
-0.0297978
-0.0297526
-0.0296428
-0.0296213
-0.029731
-0.0296219
-0.029731
-0.0297528
-0.0297533
-0.0296212
-0.0296211
-0.0297534
-0.0297533
-0.0296212
-0.0296211
-0.0297534
-0.0297984
-0.0298194
-0.0299075
-0.0299292
-0.0298193
-0.0297981
-0.0299288
-0.0297984
-0.0298195
-0.0299076
-0.0299291
-0.0298194
-0.029798
-0.0299288
-0.0297978
-0.0299295
-0.0297978
-0.0299295
-0.0297978
-0.0299295
-0.0297978
-0.0299295
-0.0296211
-0.0297532
-0.0296212
-0.0297533
-0.0297972
-0.0299295
-0.0299294
-0.0297976
-0.0297976
-0.0299294
-0.0297976
-0.0299295
-0.0297978
-0.0299739
-0.0301056
-0.0299739
-0.0301057
-0.0299739
-0.0299738
-0.0301058
-0.0301057
-0.0301058
-0.0302819
-0.0301501
-0.0302819
-0.0301501
-0.0301501
-0.0302819
-0.030282
-0.03015
-0.0301501
-0.0301055
-0.0299738
-0.0299739
-0.0301056
-0.0301049
-0.0299742
-0.0299956
-0.0300837
-0.0299745
-0.0301053
-0.0300837
-0.0301049
-0.0299742
-0.0299956
-0.0300838
-0.0299745
-0.0301052
-0.0300837
-0.03015
-0.0302819
-0.03015
-0.0302818
-0.03015
-0.0302818
-0.0301499
-0.0302818
-0.0301507
-0.0301718
-0.0302815
-0.0302599
-0.0301504
-0.0301718
-0.0302811
-0.0301507
-0.0301718
-0.0302814
-0.0302599
-0.0301503
-0.0301718
-0.0302811
-0.0299738
-0.0299737
-0.0301057
-0.0301056
-0.0301057
-0.0299738
-0.0301056
-0.0302818
-0.03015
-0.03015
-0.0302818
-0.0302819
-0.0301499
-0.03015
-0.0302818
-0.03015
-0.0301052
-0.0299741
-0.0299956
-0.0300838
-0.0299742
-0.0301055
-0.0300837
-0.0301056
-0.0299738
-0.0299739
-0.0301057
-0.0301052
-0.0299956
-0.0299741
-0.0300837
-0.0299742
-0.0300838
-0.0301054
-0.0301501
-0.0302819
-0.0301501
-0.0302819
-0.0301505
-0.0301719
-0.0302817
-0.03026
-0.0301503
-0.0301718
-0.0302814
-0.0301501
-0.0302819
-0.03015
-0.0302819
-0.0301505
-0.0301719
-0.03026
-0.0302816
-0.0301719
-0.0301503
-0.0302814
-0.0301056
-0.0299738
-0.0299738
-0.0301056
-0.0301052
-0.0299956
-0.0299741
-0.0300837
-0.0299742
-0.0300837
-0.0301054
-0.0301056
-0.0299738
-0.0299738
-0.0301056
-0.0301504
-0.0301719
-0.0302816
-0.0302599
-0.0301503
-0.0301718
-0.0302814
-0.03015
-0.0302819
-0.03015
-0.0302818
-0.0301504
-0.0301717
-0.0302599
-0.0302816
-0.0301718
-0.0301502
-0.0302814
-0.03015
-0.0302819
-0.03015
-0.0302818
-0.0299738
-0.0299738
-0.0301057
-0.0301057
-0.0301056
-0.0299738
-0.0301056
-0.0302819
-0.03015
-0.03015
-0.0302819
-0.0302819
-0.03015
-0.0301499
-0.0302818
-0.03015
-0.0301049
-0.0299957
-0.0299742
-0.0300838
-0.0299746
-0.0300837
-0.0301052
-0.0301056
-0.0299738
-0.0299739
-0.0301056
-0.0301056
-0.0299738
-0.0299739
-0.0301056
-0.0301507
-0.0301719
-0.03026
-0.0302815
-0.0301718
-0.0301503
-0.0302811
-0.0301507
-0.0301719
-0.03026
-0.0302815
-0.0301718
-0.0301503
-0.0302811
-0.03015
-0.0302819
-0.03015
-0.0302818
-0.03015
-0.0302819
-0.03015
-0.0302818
-0.0299738
-0.0301056
-0.0299738
-0.0301056
-0.03015
-0.0302818
-0.030282
-0.0301499
-0.0301499
-0.0302818
-0.03015
-0.0302818
-0.03015
-0.0303263
-0.0304581
-0.0303263
-0.0304581
-0.0303262
-0.0303263
-0.0304581
-0.0304581
-0.0304581
-0.0306343
-0.0305025
-0.0306343
-0.0305025
-0.0305024
-0.0306343
-0.0306343
-0.0305024
-0.0305024
-0.030458
-0.0303262
-0.0303262
-0.0304581
-0.0304573
-0.0303266
-0.030348
-0.0304362
-0.0303269
-0.0304577
-0.0304362
-0.0304573
-0.0303266
-0.030348
-0.0304363
-0.0303269
-0.0304577
-0.0304362
-0.0305025
-0.0306343
-0.0305025
-0.0306343
-0.0305025
-0.0306344
-0.0305025
-0.0306343
-0.0305032
-0.0305245
-0.0306339
-0.0306125
-0.0305028
-0.0305244
-0.0306336
-0.0305032
-0.0305243
-0.030634
-0.0306125
-0.0305028
-0.0305244
-0.0306336
-0.0303262
-0.0303262
-0.0304583
-0.030458
-0.0304582
-0.0303262
-0.0304581
-0.0306344
-0.0305025
-0.0305025
-0.0306344
-0.0306344
-0.0305024
-0.0305025
-0.0306343
-0.0305025
-0.0304577
-0.0303265
-0.0303481
-0.0304362
-0.0303267
-0.0304578
-0.0304362
-0.0304581
-0.0303263
-0.0303263
-0.0304581
-0.0304577
-0.0303481
-0.0303265
-0.0304362
-0.0303267
-0.0304362
-0.0304579
-0.0305025
-0.0306343
-0.0305025
-0.0306343
-0.0305029
-0.0305244
-0.0306341
-0.0306125
-0.0305027
-0.0305243
-0.0306339
-0.0305025
-0.0306344
-0.0305025
-0.0306343
-0.0305029
-0.0305244
-0.0306125
-0.0306341
-0.0305243
-0.0305028
-0.0306339
-0.0304581
-0.0303262
-0.0303263
-0.0304581
-0.0304577
-0.0303481
-0.0303265
-0.0304363
-0.0303267
-0.0304363
-0.0304579
-0.0304581
-0.0303262
-0.0303263
-0.0304582
-0.0305029
-0.0305244
-0.0306341
-0.0306125
-0.0305028
-0.0305244
-0.0306339
-0.0305025
-0.0306344
-0.0305025
-0.0306344
-0.0305029
-0.0305244
-0.0306126
-0.0306342
-0.0305244
-0.0305028
-0.0306339
-0.0305025
-0.0306344
-0.0305025
-0.0306344
-0.0303263
-0.0303262
-0.0304582
-0.0304582
-0.0304581
-0.0303262
-0.0304581
-0.0306344
-0.0305025
-0.0305025
-0.0306344
-0.0306344
-0.0305025
-0.0305025
-0.0306344
-0.0305026
-0.0304574
-0.0303481
-0.0303267
-0.030436
-0.030327
-0.0304362
-0.0304577
-0.0304581
-0.0303262
-0.0303263
-0.0304581
-0.0304581
-0.0303263
-0.0303263
-0.0304582
-0.0305032
-0.0305244
-0.0306125
-0.030634
-0.0305243
-0.0305029
-0.0306337
-0.0305032
-0.0305245
-0.0306125
-0.030634
-0.0305244
-0.0305028
-0.0306337
-0.0305026
-0.0306344
-0.0305025
-0.0306343
-0.0305026
-0.0306344
-0.0305025
-0.0306343
-0.0303262
-0.0304582
-0.0303263
-0.0304581
-0.0305021
-0.0306345
-0.0306343
-0.0305025
-0.0305024
-0.0306344
-0.0305026
-0.0306343
-0.0305025
-0.0306787
-0.0308105
-0.0306787
-0.0308105
-0.0306786
-0.0306786
-0.0308106
-0.0308106
-0.0308106
-0.0309868
-0.030855
-0.0309868
-0.030855
-0.0308549
-0.0309868
-0.0309868
-0.0308549
-0.0308549
-0.0308106
-0.0306787
-0.0306788
-0.0308106
-0.0308099
-0.0306791
-0.0307007
-0.0307889
-0.0306795
-0.0308102
-0.0307888
-0.0308099
-0.0306791
-0.0307007
-0.0307888
-0.0306795
-0.0308103
-0.0307888
-0.0308551
-0.0309869
-0.030855
-0.0309869
-0.0308551
-0.0309869
-0.030855
-0.0309869
-0.0308557
-0.0308771
-0.0309865
-0.0309651
-0.0308553
-0.030877
-0.0309862
-0.0308557
-0.030877
-0.0309865
-0.0309651
-0.0308554
-0.0308769
-0.0309862
-0.0306787
-0.0306787
-0.0308107
-0.0308107
-0.0308107
-0.0306788
-0.0308106
-0.0309869
-0.030855
-0.030855
-0.0309869
-0.0309869
-0.030855
-0.030855
-0.0309869
-0.030855
-0.0308101
-0.0306789
-0.0307006
-0.0307888
-0.0306792
-0.0308103
-0.0307887
-0.0308106
-0.0306788
-0.0306788
-0.0308106
-0.0308102
-0.0307006
-0.030679
-0.0307888
-0.0306792
-0.0307888
-0.0308104
-0.030855
-0.0309868
-0.0308549
-0.0309868
-0.0308554
-0.0308769
-0.0309866
-0.030965
-0.0308552
-0.0308769
-0.0309864
-0.030855
-0.0309869
-0.030855
-0.0309868
-0.0308554
-0.030877
-0.0309651
-0.0309866
-0.0308769
-0.0308553
-0.0309864
-0.0308106
-0.0306787
-0.0306788
-0.0308107
-0.0308102
-0.0307006
-0.030679
-0.0307887
-0.0306792
-0.0307887
-0.0308104
-0.0308106
-0.0306788
-0.0306788
-0.0308106
-0.0308554
-0.0308769
-0.0309866
-0.030965
-0.0308553
-0.0308769
-0.0309865
-0.0308551
-0.0309869
-0.030855
-0.0309869
-0.0308554
-0.0308768
-0.030965
-0.0309866
-0.0308768
-0.0308553
-0.0309865
-0.0308551
-0.0309869
-0.030855
-0.0309869
-0.0306787
-0.0306787
-0.0308107
-0.0308107
-0.0308106
-0.0306788
-0.0308106
-0.0309869
-0.030855
-0.0308551
-0.0309869
-0.0309869
-0.030855
-0.0308549
-0.0309869
-0.030855
-0.0308099
-0.0307007
-0.0306792
-0.0307888
-0.0306795
-0.0307888
-0.0308103
-0.0308106
-0.0306788
-0.0306788
-0.0308106
-0.0308106
-0.0306788
-0.0306788
-0.0308106
-0.0308557
-0.030877
-0.0309651
-0.0309865
-0.0308769
-0.0308554
-0.0309862
-0.0308557
-0.030877
-0.0309651
-0.0309866
-0.0308769
-0.0308554
-0.0309862
-0.0308551
-0.0309869
-0.030855
-0.0309868
-0.0308551
-0.0309869
-0.030855
-0.0309869
-0.0306788
-0.0308106
-0.0306788
-0.0308106
-0.030855
-0.0309869
-0.030987
-0.030855
-0.030855
-0.0309869
-0.030855
-0.0309869
-0.030855
-0.0310312
-0.0311631
-0.0310312
-0.0311631
-0.0310312
-0.0310311
-0.0311632
-0.0311631
-0.0311631
-0.0313394
-0.0312075
-0.0313393
-0.0312075
-0.0312074
-0.0313394
-0.0313394
-0.0312074
-0.0312074
-0.0311632
-0.0310313
-0.0310314
-0.0311632
-0.0311625
-0.0310316
-0.0310533
-0.0311415
-0.031032
-0.0311628
-0.0311414
-0.0311625
-0.0310317
-0.0310532
-0.0311414
-0.031032
-0.0311628
-0.0311413
-0.0312076
-0.0313394
-0.0312075
-0.0313394
-0.0312076
-0.0313395
-0.0312076
-0.0313394
-0.0312083
-0.0312296
-0.031339
-0.0313177
-0.0312079
-0.0312295
-0.0313387
-0.0312083
-0.0312294
-0.0313391
-0.0313177
-0.0312079
-0.0312295
-0.0313387
-0.0310313
-0.0310312
-0.0311634
-0.0311632
-0.0311633
-0.0310313
-0.0311632
-0.0313395
-0.0312076
-0.0312076
-0.0313395
-0.0313395
-0.0312075
-0.0312076
-0.0313394
-0.0312076
-0.0311627
-0.0310315
-0.0310532
-0.0311413
-0.0310317
-0.0311628
-0.0311413
-0.0311631
-0.0310313
-0.0310313
-0.0311631
-0.0311627
-0.0310532
-0.0310315
-0.0311413
-0.0310317
-0.0311413
-0.0311629
-0.0312076
-0.0313394
-0.0312075
-0.0313394
-0.0312079
-0.0312295
-0.0313391
-0.0313176
-0.0312077
-0.0312294
-0.031339
-0.0312076
-0.0313394
-0.0312075
-0.0313394
-0.031208
-0.0312295
-0.0313176
-0.0313392
-0.0312295
-0.0312078
-0.031339
-0.0311632
-0.0310313
-0.0310313
-0.0311632
-0.0311628
-0.0310532
-0.0310315
-0.0311414
-0.0310317
-0.0311414
-0.031163
-0.0311632
-0.0310313
-0.0310313
-0.0311632
-0.031208
-0.0312295
-0.0313392
-0.0313176
-0.0312079
-0.0312295
-0.031339
-0.0312076
-0.0313395
-0.0312076
-0.0313395
-0.031208
-0.0312295
-0.0313177
-0.0313393
-0.0312295
-0.0312079
-0.031339
-0.0312076
-0.0313395
-0.0312076
-0.0313395
-0.0310313
-0.0310312
-0.0311633
-0.0311632
-0.0311632
-0.0310313
-0.0311631
-0.0313394
-0.0312075
-0.0312076
-0.0313395
-0.0313395
-0.0312075
-0.0312075
-0.0313394
-0.0312076
-0.0311624
-0.0310532
-0.0310317
-0.0311413
-0.031032
-0.0311413
-0.0311627
-0.0311631
-0.0310313
-0.0310313
-0.0311632
-0.0311631
-0.0310313
-0.0310313
-0.0311632
-0.0312083
-0.0312296
-0.0313176
-0.0313391
-0.0312295
-0.0312079
-0.0313387
-0.0312083
-0.0312296
-0.0313176
-0.0313391
-0.0312295
-0.0312079
-0.0313387
-0.0312076
-0.0313394
-0.0312076
-0.0313394
-0.0312076
-0.0313395
-0.0312076
-0.0313394
-0.0310313
-0.0311632
-0.0310313
-0.0311631
-0.0312072
-0.0313396
-0.0313394
-0.0312076
-0.0312075
-0.0313395
-0.0312076
-0.0313394
-0.0312076
-0.0313838
-0.0315156
-0.0313838
-0.0315156
-0.0313837
-0.0313837
-0.0315157
-0.0315157
-0.0315157
-0.0316919
-0.0315601
-0.0316919
-0.03156
-0.03156
-0.031692
-0.0316919
-0.03156
-0.03156
-0.0315157
-0.0313839
-0.0313839
-0.0315158
-0.031515
-0.0313842
-0.0314058
-0.031494
-0.0313846
-0.0315153
-0.0314939
-0.031515
-0.0313842
-0.0314058
-0.0314939
-0.0313846
-0.0315154
-0.0314939
-0.0315602
-0.031692
-0.0315601
-0.031692
-0.0315602
-0.031692
-0.0315601
-0.031692
-0.0315609
-0.0315822
-0.0316916
-0.0316702
-0.0315604
-0.0315821
-0.0316913
-0.0315609
-0.0315821
-0.0316917
-0.0316702
-0.0315605
-0.0315821
-0.0316913
-0.0313838
-0.0313838
-0.0315158
-0.0315158
-0.0315158
-0.0313839
-0.0315157
-0.031692
-0.0315602
-0.0315601
-0.0316921
-0.031692
-0.0315601
-0.0315601
-0.031692
-0.0315602
-0.0315152
-0.031384
-0.0314057
-0.0314939
-0.0313842
-0.0315154
-0.0314938
-0.0315157
-0.0313838
-0.0313838
-0.0315157
-0.0315152
-0.0314057
-0.0313841
-0.0314939
-0.0313842
-0.0314939
-0.0315154
-0.0315601
-0.0316919
-0.03156
-0.0316919
-0.0315605
-0.031582
-0.0316917
-0.0316701
-0.0315603
-0.031582
-0.0316915
-0.0315601
-0.031692
-0.0315601
-0.0316919
-0.0315605
-0.0315821
-0.0316702
-0.0316917
-0.031582
-0.0315604
-0.0316915
-0.0315157
-0.0313839
-0.0313839
-0.0315158
-0.0315153
-0.0314058
-0.0313842
-0.0314938
-0.0313843
-0.0314938
-0.0315155
-0.0315157
-0.0313839
-0.0313839
-0.0315158
-0.0315606
-0.0315821
-0.0316918
-0.0316701
-0.0315604
-0.031582
-0.0316916
-0.0315602
-0.031692
-0.0315601
-0.031692
-0.0315606
-0.0315819
-0.0316701
-0.0316917
-0.0315819
-0.0315604
-0.0316916
-0.0315602
-0.031692
-0.0315601
-0.031692
-0.0313838
-0.0313838
-0.0315158
-0.0315158
-0.0315157
-0.0313838
-0.0315157
-0.031692
-0.0315601
-0.0315602
-0.031692
-0.031692
-0.0315601
-0.03156
-0.031692
-0.0315601
-0.031515
-0.0314058
-0.0313842
-0.031494
-0.0313846
-0.0314939
-0.0315154
-0.0315157
-0.0313838
-0.0313839
-0.0315157
-0.0315157
-0.0313838
-0.0313839
-0.0315157
-0.0315608
-0.0315821
-0.0316702
-0.0316916
-0.031582
-0.0315605
-0.0316913
-0.0315608
-0.0315821
-0.0316702
-0.0316917
-0.031582
-0.0315605
-0.0316913
-0.0315602
-0.031692
-0.0315601
-0.031692
-0.0315602
-0.031692
-0.0315601
-0.031692
-0.0313839
-0.0315157
-0.0313839
-0.0315157
-0.0315601
-0.031692
-0.0316921
-0.0315601
-0.0315601
-0.031692
-0.0315601
-0.031692
-0.0315601
-0.0317364
-0.0318682
-0.0317363
-0.0318682
-0.0317363
-0.0317363
-0.0318683
-0.0318682
-0.0318682
-0.0320445
-0.0319126
-0.0320445
-0.0319126
-0.0319126
-0.0320445
-0.0320445
-0.0319126
-0.0319125
-0.0318683
-0.0317364
-0.0317365
-0.0318683
-0.0318676
-0.0317367
-0.0317584
-0.0318466
-0.0317371
-0.0318679
-0.0318465
-0.0318676
-0.0317368
-0.0317583
-0.0318465
-0.0317371
-0.0318679
-0.0318465
-0.0319128
-0.0320446
-0.0319126
-0.0320446
-0.0319128
-0.0320446
-0.0319127
-0.0320446
-0.0319134
-0.0319347
-0.0320442
-0.0320228
-0.031913
-0.0319347
-0.0320439
-0.0319134
-0.0319346
-0.0320442
-0.0320228
-0.0319131
-0.0319346
-0.0320439
-0.0317364
-0.0317363
-0.0318685
-0.0318683
-0.0318684
-0.0317364
-0.0318683
-0.0320446
-0.0319127
-0.0319127
-0.0320446
-0.0320446
-0.0319126
-0.0319127
-0.0320446
-0.0319127
-0.0318678
-0.0317366
-0.0317583
-0.0318464
-0.0317368
-0.031868
-0.0318464
-0.0318682
-0.0317364
-0.0317364
-0.0318683
-0.0318678
-0.0317583
-0.0317366
-0.0318464
-0.0317368
-0.0318464
-0.031868
-0.0319127
-0.0320445
-0.0319126
-0.0320445
-0.0319131
-0.0319346
-0.0320442
-0.0320227
-0.0319129
-0.0319346
-0.0320441
-0.0319127
-0.0320446
-0.0319126
-0.0320445
-0.0319131
-0.0319346
-0.0320227
-0.0320443
-0.0319346
-0.0319129
-0.0320441
-0.0318683
-0.0317364
-0.0317365
-0.0318683
-0.0318679
-0.0317583
-0.0317367
-0.0318466
-0.0317368
-0.0318465
-0.0318681
-0.0318683
-0.0317364
-0.0317365
-0.0318683
-0.0319131
-0.0319346
-0.0320443
-0.0320227
-0.031913
-0.0319346
-0.0320442
-0.0319127
-0.0320446
-0.0319127
-0.0320446
-0.0319132
-0.0319346
-0.0320228
-0.0320444
-0.0319347
-0.031913
-0.0320442
-0.0319128
-0.0320446
-0.0319127
-0.0320446
-0.0317364
-0.0317363
-0.0318684
-0.0318683
-0.0318683
-0.0317364
-0.0318683
-0.0320445
-0.0319127
-0.0319127
-0.0320446
-0.0320446
-0.0319126
-0.0319126
-0.0320445
-0.0319127
-0.0318675
-0.0317583
-0.0317368
-0.0318465
-0.0317371
-0.0318465
-0.0318678
-0.0318682
-0.0317364
-0.0317364
-0.0318683
-0.0318682
-0.0317364
-0.0317364
-0.0318683
-0.0319134
-0.0319347
-0.0320227
-0.0320442
-0.0319346
-0.0319131
-0.0320438
-0.0319134
-0.0319347
-0.0320227
-0.0320442
-0.0319346
-0.031913
-0.0320438
-0.0319127
-0.0320445
-0.0319127
-0.0320445
-0.0319127
-0.0320446
-0.0319127
-0.0320445
-0.0317364
-0.0318683
-0.0317364
-0.0318682
-0.0319123
-0.0320447
-0.0320445
-0.0319127
-0.0319126
-0.0320446
-0.0319128
-0.0320445
-0.0319127
-0.0320889
-0.0322208
-0.0320889
-0.0322207
-0.0320888
-0.0320888
-0.0322209
-0.0322208
-0.0322208
-0.032397
-0.0322652
-0.032397
-0.0322652
-0.0322651
-0.032397
-0.032397
-0.0322651
-0.0322651
-0.0322208
-0.032089
-0.032089
-0.0322209
-0.0322201
-0.0320893
-0.0321109
-0.0321991
-0.0320897
-0.0322204
-0.0321991
-0.0322201
-0.0320894
-0.0321109
-0.032199
-0.0320897
-0.0322205
-0.032199
-0.0322653
-0.0323971
-0.0322652
-0.0323971
-0.0322653
-0.0323971
-0.0322652
-0.0323971
-0.0322659
-0.0322873
-0.0323967
-0.0323753
-0.0322656
-0.0322872
-0.0323964
-0.0322659
-0.0322872
-0.0323967
-0.0323753
-0.0322656
-0.0322872
-0.0323964
-0.032089
-0.0320889
-0.0322209
-0.0322209
-0.0322209
-0.032089
-0.0322208
-0.032397
-0.0322652
-0.0322652
-0.0323971
-0.0323971
-0.0322652
-0.0322652
-0.032397
-0.0322652
-0.0322204
-0.0320891
-0.0321108
-0.032199
-0.0320893
-0.0322205
-0.032199
-0.0322208
-0.0320889
-0.032089
-0.0322208
-0.0322204
-0.0321109
-0.0320892
-0.032199
-0.0320893
-0.032199
-0.0322206
-0.0322652
-0.0323971
-0.0322652
-0.0323971
-0.0322656
-0.0322871
-0.0323968
-0.0323752
-0.0322654
-0.0322871
-0.0323967
-0.0322652
-0.0323971
-0.0322652
-0.0323971
-0.0322656
-0.0322872
-0.0323753
-0.0323968
-0.0322871
-0.0322655
-0.0323967
-0.0322208
-0.032089
-0.032089
-0.0322209
-0.0322204
-0.0321109
-0.0320893
-0.0321989
-0.0320894
-0.032199
-0.0322206
-0.0322208
-0.032089
-0.032089
-0.0322209
-0.0322656
-0.0322871
-0.0323968
-0.0323752
-0.0322655
-0.0322871
-0.0323967
-0.0322652
-0.0323971
-0.0322652
-0.0323971
-0.0322656
-0.032287
-0.0323752
-0.0323968
-0.032287
-0.0322655
-0.0323967
-0.0322652
-0.0323971
-0.0322652
-0.0323971
-0.0320889
-0.0320889
-0.0322209
-0.0322209
-0.0322208
-0.0320889
-0.0322208
-0.032397
-0.0322652
-0.0322653
-0.0323971
-0.0323971
-0.0322652
-0.0322651
-0.032397
-0.0322652
-0.0322201
-0.0321109
-0.0320893
-0.0321991
-0.0320897
-0.032199
-0.0322205
-0.0322208
-0.0320889
-0.032089
-0.0322208
-0.0322208
-0.0320889
-0.032089
-0.0322208
-0.0322659
-0.0322872
-0.0323752
-0.0323967
-0.0322871
-0.0322656
-0.0323964
-0.0322659
-0.0322872
-0.0323752
-0.0323967
-0.0322871
-0.0322656
-0.0323964
-0.0322652
-0.0323971
-0.0322652
-0.0323971
-0.0322652
-0.0323971
-0.0322652
-0.0323971
-0.032089
-0.0322208
-0.032089
-0.0322208
-0.0322652
-0.032397
-0.0323971
-0.0322652
-0.0322652
-0.032397
-0.0322652
-0.0323971
-0.0322652
-0.0324415
-0.0325732
-0.0324415
-0.0325732
-0.0324415
-0.0324415
-0.0325732
-0.0325732
-0.0325732
-0.0327497
-0.032618
-0.0327497
-0.0326179
-0.0326177
-0.0327497
-0.0327497
-0.032618
-0.0326179
-0.0325735
-0.0324415
-0.0324415
-0.0325733
-0.0325729
-0.0324419
-0.0324634