/*--------------------------------*- C++ -*----------------------------------*\
| =========                 |                                                 |
| \\      /  F ield         | OpenFOAM: The Open Source CFD Toolbox           |
|  \\    /   O peration     | Version:  2206                                  |
|   \\  /    A nd           | Website:  www.openfoam.com                      |
|    \\/     M anipulation  |                                                 |
\*---------------------------------------------------------------------------*/
FoamFile
{
    version     2.0;
    format      ascii;
    arch        "LSB;label=32;scalar=64";
    class       surfaceScalarField;
    location    "0.1";
    object      phi;
}
// * * * * * * * * * * * * * * * * * * * * * * * * * * * * * * * * * * * * * //

dimensions      [0 3 -1 0 0 0 0];

oriented        oriented;

internalField   nonuniform List<scalar> 
199822
(
6.01835e-13
2.11082e-12
-9.9779e-08
-2.47804e-12
-3.20216e-13
9.97791e-08
-9.84767e-08
-4.46823e-11
-2.85239e-12
-3.32578e-13
9.84763e-08
1.6072e-11
4.53173e-11
-1.08131e-11
-4.03984e-11
4.42856e-11
4.14341e-11
-4.76342e-11
-9.92584e-08
-4.88874e-11
1.86284e-14
2.07404e-12
9.92625e-08
5.83158e-13
4.89416e-11
-2.12907e-12
1.35631e-11
1.00496e-11
-1.50256e-11
-1.33078e-11
-2.46402e-08
-9.81126e-11
1.67685e-10
-7.66749e-11
1.48359e-10
2.44989e-08
8.73859e-13
9.8204e-13
-9.97792e-08
-9.38523e-13
-3.95074e-13
9.97786e-08
-9.84765e-08
-4.44228e-11
-1.24743e-12
-1.22061e-12
9.8477e-08
1.67096e-11
4.59227e-11
-1.61638e-11
-4.05214e-11
4.42601e-11
4.13489e-11
-4.51879e-11
-9.926e-08
-4.81515e-11
-1.70389e-12
5.38674e-13
9.92588e-08
1.49863e-12
4.91009e-11
-1.83045e-12
1.48771e-11
1.20199e-11
-1.32017e-11
-1.19225e-11
-2.46403e-08
5.47765e-11
3.20813e-11
4.78338e-11
3.04237e-12
2.45026e-08
-3.37857e-13
7.23864e-13
-9.97779e-08
-6.75314e-13
2.88783e-13
9.97779e-08
-9.84762e-08
-4.45217e-11
-1.35554e-12
-2.34093e-13
9.84743e-08
1.61652e-11
4.5323e-11
-1.08069e-11
-4.05237e-11
4.42271e-11
4.13382e-11
-4.77178e-11
-9.92586e-08
-4.83063e-11
1.07826e-13
-7.03715e-13
9.92591e-08
1.31268e-12
4.90216e-11
-1.92329e-12
1.44711e-11
1.15726e-11
-1.35898e-11
-1.23764e-11
-2.46399e-08
-9.83968e-11
1.67233e-10
-7.65999e-11
1.49117e-10
2.44986e-08
-5.92647e-13
5.90583e-13
-9.97778e-08
-5.24744e-13
5.4154e-13
9.97778e-08
-9.84762e-08
-4.46089e-11
-8.53257e-13
-8.50621e-13
9.84768e-08
1.65455e-11
4.57227e-11
-1.63475e-11
-4.05619e-11
4.4208e-11
4.13229e-11
-4.52313e-11
-9.92592e-08
-4.81971e-11
-2.45244e-14
3.59549e-13
9.92587e-08
1.45113e-12
4.91047e-11
-1.81372e-12
1.43852e-11
1.14393e-11
-1.3697e-11
-1.25062e-11
-2.464e-08
5.49811e-11
3.20971e-11
4.78148e-11
2.70102e-12
2.45024e-08
-5.50282e-13
5.92737e-13
-9.97778e-08
-5.56457e-13
4.78158e-13
9.97778e-08
-9.84766e-08
-4.45599e-11
-1.27346e-12
-1.79676e-13
9.84745e-08
1.61109e-11
4.52967e-11
-1.08512e-11
-4.04911e-11
4.42738e-11
4.13774e-11
-4.76742e-11
-9.92589e-08
-4.82038e-11
4.03637e-13
-1.08145e-12
9.92593e-08
1.43741e-12
4.91115e-11
-1.81664e-12
1.44169e-11
1.14614e-11
-1.36825e-11
-1.24587e-11
-2.464e-08
-9.83498e-11
1.67128e-10
-7.64939e-11
1.49072e-10
2.44987e-08
-6.13245e-13
5.47002e-13
-9.97779e-08
-5.0165e-13
5.58804e-13
9.97779e-08
-9.84763e-08
-4.46019e-11
-8.12517e-13
-8.64206e-13
9.84769e-08
1.65512e-11
4.57258e-11
-1.63446e-11
-4.05692e-11
4.4203e-11
4.1317e-11
-4.52367e-11
-9.92592e-08
-4.82057e-11
-3.5316e-15
3.56088e-13
9.92587e-08
1.44674e-12
4.90947e-11
-1.82102e-12
1.43876e-11
1.14397e-11
-1.36997e-11
-1.24975e-11
-2.464e-08
5.49808e-11
3.21001e-11
4.78075e-11
2.70705e-12
2.45024e-08
-5.42197e-13
6.01358e-13
-9.97779e-08
-5.60606e-13
4.72222e-13
9.97779e-08
-9.84766e-08
-4.45543e-11
-1.27895e-12
-1.87707e-13
9.84746e-08
1.61173e-11
4.5299e-11
-1.08468e-11
-4.049e-11
4.42783e-11
4.13816e-11
-4.76722e-11
-9.9259e-08
-4.82014e-11
3.95448e-13
-1.08678e-12
9.92594e-08
1.4398e-12
4.91113e-11
-1.8158e-12
1.44206e-11
1.14639e-11
-1.36796e-11
-1.24509e-11
-2.464e-08
-9.83549e-11
1.67126e-10
-7.64935e-11
1.49077e-10
2.44987e-08
-6.25186e-13
5.03156e-13
-9.97779e-08
-4.31866e-13
5.75486e-13
9.97779e-08
-9.84763e-08
-4.46071e-11
-7.61641e-13
-8.32613e-13
9.84769e-08
1.65459e-11
4.57166e-11
-1.63582e-11
-4.05568e-11
4.41815e-11
4.1296e-11
-4.52313e-11
-9.92592e-08
-4.82048e-11
3.87153e-14
3.34143e-13
9.92587e-08
1.44979e-12
4.90929e-11
-1.82324e-12
1.44061e-11
1.14135e-11
-1.37172e-11
-1.24834e-11
-2.464e-08
5.49836e-11
3.21041e-11
4.78053e-11
2.70632e-12
2.45024e-08
-1.46437e-12
-6.26096e-13
-9.97778e-08
1.05497e-12
1.73424e-12
9.97771e-08
-9.84767e-08
-4.44572e-11
-5.22031e-13
4.55516e-13
9.84739e-08
1.64549e-11
4.47832e-11
-1.19518e-11
-3.86348e-11
4.34481e-11
3.99842e-11
-4.67689e-11
-9.92592e-08
-4.81308e-11
1.43103e-12
-2.82135e-13
9.92582e-08
1.67432e-12
4.85948e-11
-2.62919e-12
1.61067e-11
1.02108e-11
-1.49733e-11
-1.1072e-11
-2.464e-08
-9.84589e-11
1.67026e-10
-7.63308e-11
1.49229e-10
2.44986e-08
9.73643e-12
1.17876e-11
-9.97729e-08
-7.76953e-12
-5.92773e-12
9.9765e-08
-9.84744e-08
-3.83006e-11
-1.10186e-11
-8.15324e-12
9.84754e-08
2.44815e-11
4.33843e-11
-2.09209e-11
-2.85254e-11
4.40365e-11
3.43868e-11
-4.04515e-11
-9.92562e-08
-4.23347e-11
-1.00544e-11
-6.19275e-12
9.92567e-08
1.05084e-11
4.68714e-11
-7.89513e-12
2.33021e-11
1.10182e-11
-1.91356e-11
-6.64417e-12
-2.46418e-08
4.88722e-11
2.64588e-11
5.57124e-11
1.29008e-11
2.44978e-08
-4.11506e-10
3.85526e-10
-9.95794e-08
-9.28367e-11
-3.39412e-10
1.00038e-07
-9.83545e-08
5.44162e-12
-3.84379e-10
-1.6693e-10
9.85024e-08
6.47762e-11
1.04394e-10
2.28836e-11
3.05928e-11
9.89014e-11
7.45633e-11
1.84388e-12
-9.91316e-08
1.92818e-12
3.58313e-10
6.04397e-10
9.91393e-08
5.67222e-11
1.09757e-10
-4.1088e-11
-3.42705e-10
-4.97192e-11
-4.32136e-10
-2.73242e-10
-2.46447e-08
-1.38011e-10
1.30965e-10
-1.92755e-11
2.04994e-10
2.4466e-08
4.33266e-10
5.16742e-10
-1.1369e-07
-1.89215e-09
-1.83216e-09
2.74635e-08
2.69081e-08
2.72993e-08
2.72993e-08
1.54512e-09
1.58501e-09
6.20805e-10
1.56567e-09
1.57345e-09
6.04439e-10
-2.4893e-08
-2.26675e-09
4.00979e-10
-2.82012e-09
5.35373e-10
2.90435e-08
-2.38367e-08
-5.16467e-10
-1.89348e-09
-5.5305e-11
-2.40107e-09
2.8703e-08
-2.5059e-08
1.85339e-09
1.88682e-09
-2.23948e-09
-1.94041e-09
2.54987e-08
-4.17793e-11
-4.54246e-11
2.46281e-08
-2.44896e-08
-2.48013e-11
-2.64636e-11
1.00174e-07
-3.15961e-12
-1.0017e-07
5.5692e-12
-4.2879e-11
1.43016e-12
-2.52606e-12
-3.31681e-11
-1.20276e-11
9.26354e-12
3.22437e-11
4.1699e-11
1.002e-07
-3.06914e-12
-1.00196e-07
4.70147e-12
-4.27732e-11
1.14104e-12
-2.33636e-12
-3.31193e-11
-1.20182e-11
9.31875e-12
3.22521e-11
-4.55719e-11
2.46287e-08
-2.449e-08
-2.48391e-11
-2.65908e-11
9.84859e-08
-4.27103e-13
-9.84837e-08
-2.11297e-12
-4.45709e-11
-1.62467e-11
1.67373e-11
4.10825e-11
-4.52524e-11
4.38484e-11
-4.06948e-11
3.77125e-11
9.9397e-08
1.31462e-13
-9.93958e-08
-2.21952e-12
-3.62928e-11
-1.25287e-11
1.67794e-11
1.99144e-11
-4.45319e-11
4.00916e-11
-2.02689e-11
-6.05674e-13
-9.84745e-08
-1.79908e-12
-4.48789e-11
-1.58048e-11
1.63663e-11
4.10521e-11
-4.53487e-11
-4.06739e-11
4.40035e-11
5.7437e-11
9.93492e-08
4.57448e-11
-9.93926e-08
-2.40198e-11
-3.53474e-11
-1.02888e-11
1.10819e-11
2.01343e-11
-4.36745e-11
4.31129e-11
-2.07755e-11
-4.87336e-11
2.46336e-08
-2.44962e-08
-3.28918e-11
-1.80985e-11
-2.95217e-12
-9.92539e-08
4.48329e-12
-4.97544e-11
-2.60496e-12
-2.29985e-12
-1.40952e-11
-1.33266e-11
1.34452e-11
1.39291e-11
3.19182e-11
9.93402e-08
-6.24886e-11
-9.92863e-08
3.32652e-11
-5.09499e-11
-1.41085e-12
6.03387e-13
-1.44092e-11
-1.47628e-11
1.08124e-11
1.36079e-11
-2.45027e-08
-4.79622e-11
-1.53272e-13
4.24316e-11
4.44389e-11
2.50962e-11
2.63629e-11
2.44897e-08
-4.26919e-11
-4.5622e-11
2.46282e-08
-2.44898e-08
-2.41006e-11
-2.59791e-11
3.08349e-12
1.00177e-07
-2.42411e-12
4.23977e-11
1.9296e-12
3.22515e-11
8.27005e-12
-3.44149e-11
-1.19804e-11
-4.25155e-11
-1.57257e-13
3.33184e-12
1.00204e-07
-2.36143e-12
4.19488e-11
-1.14947e-12
3.2154e-11
8.18578e-12
-3.44975e-11
-9.10444e-12
1.00175e-07
-5.68859e-13
-1.00176e-07
8.55464e-13
-4.17838e-11
2.16729e-12
-2.52395e-12
-3.26767e-11
-1.07372e-11
1.00201e-11
3.3545e-11
4.27115e-11
1.00201e-07
1.38427e-13
-1.00202e-07
9.70521e-13
-4.18335e-11
1.34635e-12
-2.15378e-12
-3.2701e-11
-1.07373e-11
9.90613e-12
3.35841e-11
2.43805e-11
2.67839e-11
2.44904e-08
-4.58928e-11
2.46289e-08
-2.44902e-08
-2.40401e-11
-2.60453e-11
-3.35129e-13
9.84872e-08
1.65813e-11
4.54383e-11
-1.63956e-11
-4.04821e-11
4.40926e-11
4.14454e-11
-4.50783e-11
-3.64239e-11
-1.13744e-12
-1.75342e-13
9.93992e-08
1.13827e-11
3.76156e-11
-1.21252e-11
-2.00232e-11
4.28119e-11
2.02508e-11
-4.43079e-11
9.84858e-08
-5.61823e-13
-9.84859e-08
-8.96951e-13
-4.41674e-11
-1.63085e-11
1.6694e-11
4.13432e-11
-4.50903e-11
4.40893e-11
-4.05819e-11
3.77974e-11
9.9397e-08
-3.76132e-13
-9.93984e-08
-6.29196e-13
-3.61202e-11
-1.24421e-11
1.69664e-11
2.02443e-11
-4.43205e-11
4.03873e-11
-2.00869e-11
3.93787e-10
-1.16818e-10
9.86945e-08
6.03068e-11
1.80671e-10
6.87657e-11
-2.29313e-11
4.33263e-11
-7.22076e-11
2.1712e-11
8.49282e-14
-9.84768e-08
-1.51914e-12
-4.4174e-11
-1.63472e-11
1.66386e-11
4.13372e-11
-4.52357e-11
-4.06048e-11
4.42479e-11
-9.86689e-11
9.93497e-08
-3.95184e-10
-9.86958e-08
1.20759e-10
-1.77472e-10
-6.29222e-11
-6.60191e-11
2.35279e-11
-4.47718e-11
6.83879e-11
-2.15848e-11
3.30752e-11
1.89646e-11
2.44963e-08
-4.93161e-11
2.46335e-08
-2.44965e-08
-3.23941e-11
-1.75143e-11
-4.74356e-10
1.54955e-10
1.00043e-07
-3.63753e-11
-9.97391e-11
-1.0343e-10
1.62272e-11
9.82177e-12
1.38234e-11
-1.58995e-11
-1.98018e-12
-9.92613e-08
7.34354e-13
-4.84819e-11
-1.8732e-12
-1.09751e-12
-1.32686e-11
-1.18233e-11
1.48992e-11
1.48877e-11
1.67682e-10
9.93412e-08
4.70605e-10
-1.00042e-07
-1.50706e-10
1.00633e-10
3.53896e-11
1.01971e-10
-1.61004e-11
-1.15212e-11
-1.28728e-11
1.58178e-11
-2.44994e-08
7.59745e-11
-1.47913e-10
4.18579e-11
4.41229e-11
2.58318e-11
2.67742e-11
2.44896e-08
-4.2486e-11
-4.55118e-11
2.46278e-08
-2.44893e-08
-2.43007e-11
-2.61873e-11
8.43314e-13
1.00174e-07
-2.63907e-12
4.26289e-11
2.0576e-12
3.35982e-11
1.01032e-11
-3.25751e-11
-1.06942e-11
-4.18708e-11
-7.40767e-13
1.01261e-12
1.002e-07
-2.04116e-12
4.26172e-11
1.33716e-12
3.3626e-11
1.01411e-11
-3.24945e-11
-1.07141e-11
1.00174e-07
1.86835e-13
-1.00174e-07
1.43319e-12
-4.2042e-11
1.89268e-12
-2.86207e-12
-3.28846e-11
-1.10946e-11
9.73279e-12
3.32275e-11
4.23506e-11
1.00201e-07
-2.11907e-13
-1.002e-07
8.32263e-13
-4.20367e-11
1.61962e-12
-2.29034e-12
-3.28897e-11
-1.11695e-11
9.73181e-12
3.31893e-11
2.54826e-11
2.70574e-11
2.44901e-08
-4.57129e-11
2.46285e-08
-2.44897e-08
-2.43547e-11
-2.63426e-11
-9.10679e-13
9.84857e-08
1.67152e-11
4.56579e-11
-1.62748e-11
-4.05207e-11
4.41287e-11
4.1387e-11
-4.50427e-11
-3.61624e-11
-1.89425e-13
-5.90294e-13
9.93976e-08
1.16705e-11
3.7773e-11
-1.19362e-11
-2.00384e-11
4.28795e-11
2.02445e-11
-4.42522e-11
9.84851e-08
-7.27181e-13
-9.84852e-08
-4.04612e-13
-4.42358e-11
-1.63537e-11
1.66767e-11
4.13176e-11
-4.51468e-11
4.40346e-11
-4.06081e-11
3.77246e-11
9.93963e-08
-2.93663e-13
-9.93975e-08
-4.4853e-13
-3.61547e-11
-1.25058e-11
1.69175e-11
2.01547e-11
-4.44047e-11
4.02876e-11
-2.01552e-11
-4.49844e-11
2.14284e-11
9.93942e-08
1.13881e-11
3.71263e-11
-1.19824e-11
-2.05667e-11
4.20764e-11
-4.50088e-11
2.08232e-11
-7.39579e-13
-9.84763e-08
-5.97161e-13
-4.45013e-11
-1.58088e-11
1.64109e-11
4.13294e-11
-4.52441e-11
-4.05671e-11
4.41959e-11
5.77904e-11
9.9348e-08
4.61386e-11
-9.93944e-08
-2.21674e-11
-3.46604e-11
-1.0779e-11
1.06189e-11
2.04303e-11
-4.36369e-11
4.3336e-11
-2.06989e-11
3.34738e-11
1.95327e-11
2.44962e-08
-4.90749e-11
2.46331e-08
-2.4496e-08
-3.2642e-11
-1.76883e-11
5.53506e-11
-2.90186e-11
9.92915e-08
3.45126e-12
5.05698e-11
-1.32548e-12
1.51491e-11
1.30858e-11
-1.1894e-11
-1.35894e-11
-8.75951e-13
-9.92584e-08
3.44953e-13
-4.87713e-11
-2.16583e-12
-1.45555e-12
-1.34776e-11
-1.21803e-11
1.45832e-11
1.46312e-11
3.25661e-11
9.93398e-08
-6.03208e-11
-9.92902e-08
2.7676e-11
-5.02074e-11
-4.87007e-13
1.44413e-12
-1.36158e-11
-1.3371e-11
1.18268e-11
1.49576e-11
-2.45024e-08
-4.7921e-11
7.07326e-13
4.19929e-11
4.42845e-11
2.55901e-11
2.66146e-11
2.44893e-08
-4.25562e-11
-4.54269e-11
2.46278e-08
-2.44894e-08
-2.44377e-11
-2.6055e-11
1.09402e-12
1.00174e-07
-2.80245e-12
4.25415e-11
1.96708e-12
3.3154e-11
9.62716e-12
-3.29722e-11
-1.1175e-11
-4.20957e-11
6.97894e-13
1.7129e-12
1.00201e-07
-2.5462e-12
4.207e-11
-1.08464e-12
3.29949e-11
9.48809e-12
-3.30937e-11
-8.34148e-12
1.00174e-07
5.41311e-13
-1.00174e-07
9.18842e-13
-4.19799e-11
2.1078e-12
-2.27709e-12
-3.30886e-11
-1.12809e-11
9.50953e-12
3.30699e-11
4.26489e-11
1.002e-07
1.13726e-12
-1.00201e-07
1.23608e-12
-4.19526e-11
1.25406e-12
-2.26403e-12
-3.30776e-11
-1.12544e-11
9.40264e-12
3.3157e-11
2.50254e-11
2.69819e-11
2.44899e-08
-4.57567e-11
2.46286e-08
-2.44898e-08
-2.43102e-11
-2.60919e-11
-5.7062e-13
9.84854e-08
1.66083e-11
4.54678e-11
-1.64112e-11
-4.05895e-11
4.40399e-11
4.13234e-11
-4.513e-11
-3.63056e-11
5.93251e-14
-3.60385e-13
9.93973e-08
1.15319e-11
3.76207e-11
-1.2081e-11
-2.00928e-11
4.27885e-11
2.01683e-11
-4.43108e-11
9.84854e-08
-6.09814e-13
-9.84855e-08
-3.00297e-13
-4.43467e-11
-1.64402e-11
1.65696e-11
4.13609e-11
-4.50873e-11
4.40774e-11
-4.05631e-11
3.76445e-11
9.93966e-08
-1.70292e-13
-9.93978e-08
-3.15799e-13
-3.62656e-11
-1.26135e-11
1.67807e-11
2.01969e-11
-4.43501e-11
4.0337e-11
-2.01034e-11
3.96058e-10
-1.17913e-10
9.86926e-08
5.99617e-11
1.80718e-10
6.83949e-11
-2.29832e-11
4.33541e-11
-7.22849e-11
2.17164e-11
1.02125e-14
-9.84764e-08
-1.09353e-12
-4.42998e-11
-1.64611e-11
1.65124e-11
4.13498e-11
-4.5227e-11
-4.05772e-11
4.425e-11
-9.88276e-11
9.93493e-08
-3.94758e-10
-9.8695e-08
1.21166e-10
-1.77574e-10
-6.32189e-11
-6.63013e-11
2.34436e-11
-4.48565e-11
6.82979e-11
-2.16677e-11
3.32815e-11
1.93133e-11
2.44959e-08
-4.92226e-11
2.46332e-08
-2.4496e-08
-3.24944e-11
-1.77802e-11
-4.75595e-10
1.50931e-10
1.0004e-07
-3.56448e-11
-9.94617e-11
-1.0273e-10
1.74769e-11
1.16969e-11
1.47832e-11
-1.42442e-11
-7.92184e-13
-9.92594e-08
7.96271e-13
-4.86256e-11
-1.98454e-12
-1.27138e-12
-1.36552e-11
-1.2345e-11
1.44448e-11
1.44363e-11
1.67623e-10
9.93403e-08
4.71351e-10
-1.0004e-07
-1.50612e-10
1.00543e-10
3.54261e-11
1.02011e-10
-1.64475e-11
-1.19712e-11
-1.31174e-11
1.54054e-11
-2.4499e-08
7.58852e-11
-1.48097e-10
4.19771e-11
4.43568e-11
2.54132e-11
2.67223e-11
2.44894e-08
-4.2559e-11
-4.54343e-11
2.46278e-08
-2.44894e-08
-2.44357e-11
-2.60558e-11
6.8579e-13
1.00174e-07
-2.2676e-12
4.25609e-11
2.11464e-12
3.30751e-11
9.49054e-12
-3.31063e-11
-1.128e-11
-4.18936e-11
7.37936e-13
1.01778e-12
1.002e-07
-2.07325e-12
4.26286e-11
1.35146e-12
3.31438e-11
9.56096e-12
-3.29757e-11
-1.12698e-11
1.00174e-07
5.71859e-13
-1.00174e-07
9.0511e-13
-4.19799e-11
2.11777e-12
-2.2557e-12
-3.31042e-11
-1.12756e-11
9.50012e-12
3.30811e-11
4.24883e-11
1.00201e-07
3.25982e-13
-1.002e-07
4.19409e-13
-4.18693e-11
1.79267e-12
-2.22613e-12
-3.30486e-11
-1.1316e-11
9.54479e-12
3.30818e-11
2.52062e-11
2.70277e-11
2.44898e-08
-4.56491e-11
2.46285e-08
-2.44898e-08
-2.44207e-11
-2.61922e-11
-5.16132e-13
9.84856e-08
1.65527e-11
4.5419e-11
-1.64512e-11
-4.05602e-11
4.40651e-11
4.13501e-11
-4.50857e-11
-3.63579e-11
2.29013e-13
-2.83207e-13
9.93975e-08
1.14533e-11
3.75789e-11
-1.2141e-11
-2.00758e-11
4.28164e-11
2.01942e-11
-4.42894e-11
9.84855e-08
-5.91401e-13
-9.84856e-08
-3.24079e-13
-4.4342e-11
-1.64265e-11
1.65809e-11
4.1347e-11
-4.50722e-11
4.40677e-11
-4.05575e-11
3.76446e-11
9.93967e-08
-1.52631e-13
-9.93978e-08
-3.69742e-13
-3.62663e-11
-1.26034e-11
1.67917e-11
2.02042e-11
-4.43449e-11
4.0334e-11
-2.00973e-11
-4.42945e-11
2.1674e-11
9.93943e-08
1.10254e-11
3.69449e-11
-1.22854e-11
-2.06453e-11
4.19801e-11
-4.50795e-11
2.07283e-11
-6.48752e-13
-9.84768e-08
-5.29012e-13
-4.45751e-11
-1.58922e-11
1.6301e-11
4.13656e-11
-4.51767e-11
-4.05171e-11
4.42519e-11
5.77336e-11
9.93484e-08
4.63083e-11
-9.93948e-08
-2.21305e-11
-3.47273e-11
-1.08766e-11
1.05011e-11
2.04678e-11
-4.35947e-11
4.33838e-11
-2.06568e-11
3.34055e-11
1.92557e-11
2.44959e-08
-4.92014e-11
2.46332e-08
-2.4496e-08
-3.25031e-11
-1.77821e-11
5.66417e-11
-2.92113e-11
9.92912e-08
3.56543e-12
5.06015e-11
-1.23447e-12
1.4684e-11
1.25855e-11
-1.23991e-11
-1.40586e-11
-2.1753e-13
-9.92586e-08
-1.78117e-13
-4.8637e-11
-2.00269e-12
-1.2759e-12
-1.36756e-11
-1.23714e-11
1.44436e-11
1.44137e-11
3.27052e-11
9.93401e-08
-5.97899e-11
-9.92906e-08
2.71729e-11
-5.00537e-11
-3.18686e-13
1.6346e-12
-1.37913e-11
-1.3524e-11
1.16323e-11
1.48184e-11
-2.45024e-08
-4.7775e-11
6.43282e-13
4.19813e-11
4.43482e-11
2.54284e-11
2.672e-11
2.44894e-08
-4.2545e-11
-4.54297e-11
2.46279e-08
-2.44894e-08
-2.44405e-11
-2.60672e-11
7.21383e-13
1.00174e-07
-2.25962e-12
4.25567e-11
2.11246e-12
3.30846e-11
9.49299e-12
-3.31099e-11
-1.12734e-11
-4.20245e-11
9.44855e-13
1.40223e-12
1.00201e-07
-2.25638e-12
4.21349e-11
-9.84779e-13
3.29463e-11
9.38289e-12
-3.31741e-11
-8.4089e-12
1.00174e-07
5.75062e-13
-1.00174e-07
9.00389e-13
-4.19904e-11
2.10562e-12
-2.25992e-12
-3.31005e-11
-1.12789e-11
9.50347e-12
3.30811e-11
4.26452e-11
1.002e-07
1.15406e-12
-1.00201e-07
1.21209e-12
-4.19508e-11
1.24683e-12
-2.25938e-12
-3.30738e-11
-1.12508e-11
9.41514e-12
3.31635e-11
2.48289e-11
2.7129e-11
2.449e-08
-4.57645e-11
2.46286e-08
-2.44898e-08
-2.42958e-11
-2.60965e-11
-5.39047e-13
9.84856e-08
1.65647e-11
4.54259e-11
-1.64404e-11
-4.05573e-11
4.40585e-11
4.13409e-11
-4.5076e-11
-3.63585e-11
1.79649e-13
-2.99334e-13
9.93976e-08
1.14604e-11
3.75792e-11
-1.21364e-11
-2.00591e-11
4.28213e-11
2.02074e-11
-4.42752e-11
9.84855e-08
-5.59856e-13
-9.84857e-08
-3.13909e-13
-4.43422e-11
-1.64321e-11
1.65794e-11
4.13413e-11
-4.50788e-11
4.40623e-11
-4.05655e-11
3.76391e-11
9.93968e-08
-9.37607e-14
-9.93979e-08
-3.20079e-13
-3.62687e-11
-1.26137e-11
1.67843e-11
2.01918e-11
-4.43573e-11
4.0322e-11
-2.01105e-11
3.96233e-10
-1.17891e-10
9.86929e-08
5.99001e-11
1.80675e-10
6.83519e-11
-2.29572e-11
4.3392e-11
-7.22655e-11
2.17479e-11
5.35124e-14
-9.84766e-08
-1.10887e-12
-4.42938e-11
-1.64564e-11
1.65164e-11
4.13455e-11
-4.52299e-11
-4.05819e-11
4.42482e-11
-9.88333e-11
9.93494e-08
-3.94651e-10
-9.86952e-08
1.21131e-10
-1.77578e-10
-6.32227e-11
-6.63027e-11
2.34362e-11
-4.4864e-11
6.8292e-11
-2.16748e-11
3.33968e-11
1.92559e-11
2.44959e-08
-4.92154e-11
2.46332e-08
-2.4496e-08
-3.25011e-11
-1.77823e-11
-4.75297e-10
1.50589e-10
1.0004e-07
-3.55335e-11
-9.93747e-11
-1.02625e-10
1.73917e-11
1.16053e-11
1.47133e-11
-1.43187e-11
-7.26795e-13
-9.92594e-08
7.68911e-13
-4.86307e-11
-1.98513e-12
-1.26596e-12
-1.3667e-11
-1.23583e-11
1.4448e-11
1.44208e-11
1.67621e-10
9.93403e-08
4.7141e-10
-1.00041e-07
-1.50699e-10
1.00548e-10
3.54271e-11
1.02019e-10
-1.64507e-11
-1.19637e-11
-1.31186e-11
1.54091e-11
-2.4499e-08
7.58812e-11
-1.48095e-10
4.19891e-11
4.43511e-11
2.54255e-11
2.67114e-11
2.44894e-08
-4.25555e-11
-4.54372e-11
2.46279e-08
-2.44894e-08
-2.44316e-11
-2.60582e-11
6.86539e-13
1.00174e-07
-2.26256e-12
4.25487e-11
2.10635e-12
3.30801e-11
9.48811e-12
-3.31132e-11
-1.12821e-11
-4.18989e-11
7.51437e-13
1.02023e-12
1.002e-07
-2.08115e-12
4.262e-11
1.34069e-12
3.3148e-11
9.57051e-12
-3.29746e-11
-1.12702e-11
1.00174e-07
5.68778e-13
-1.00174e-07
9.06086e-13
-4.19823e-11
2.11512e-12
-2.25602e-12
-3.31018e-11
-1.12733e-11
9.50578e-12
3.3084e-11
4.24857e-11
1.00201e-07
3.21754e-13
-1.002e-07
4.22936e-13
-4.18708e-11
1.78956e-12
-2.22923e-12
-3.30447e-11
-1.13132e-11
9.54885e-12
3.30852e-11
2.52158e-11
2.70209e-11
2.44899e-08
-4.56516e-11
2.46285e-08
-2.44898e-08
-2.44176e-11
-2.61937e-11
-5.2508e-13
9.84857e-08
1.65617e-11
4.54211e-11
-1.64454e-11
-4.05664e-11
4.40513e-11
4.13331e-11
-4.50835e-11
-3.63594e-11
2.79546e-13
-2.8369e-13
9.93976e-08
1.1458e-11
3.75759e-11
-1.21392e-11
-2.00834e-11
4.28031e-11
2.01875e-11
-4.42976e-11
9.84856e-08
-5.91006e-13
-9.84857e-08
-3.32579e-13
-4.43356e-11
-1.64228e-11
1.65875e-11
4.13459e-11
-4.50707e-11
4.40678e-11
-4.05583e-11
3.76448e-11
9.93968e-08
-1.46206e-13
-9.93979e-08
-3.71008e-13
-3.62624e-11
-1.26008e-11
1.67977e-11
2.02042e-11
-4.43449e-11
4.03329e-11
-2.00979e-11
-4.42398e-11
2.1666e-11
9.93944e-08
1.10273e-11
3.69419e-11
-1.22858e-11
-2.0655e-11
4.19717e-11
-4.50895e-11
2.07211e-11
-6.47053e-13
-9.84769e-08
-5.42632e-13
-4.45699e-11
-1.58886e-11
1.63071e-11
4.13668e-11
-4.51759e-11
-4.05178e-11
4.42543e-11
5.7734e-11
9.93485e-08
4.63127e-11
-9.93949e-08
-2.21351e-11
-3.47229e-11
-1.0873e-11
1.0507e-11
2.04688e-11
-4.35955e-11
4.33862e-11
-2.06573e-11
3.33994e-11
1.92558e-11
2.4496e-08
-4.9198e-11
2.46332e-08
-2.4496e-08
-3.25054e-11
-1.77801e-11
5.66637e-11
-2.92128e-11
9.92913e-08
3.56089e-12
5.05942e-11
-1.23893e-12
1.46848e-11
1.25892e-11
-1.23945e-11
-1.40597e-11
-2.20851e-13
-9.92587e-08
-1.758e-13
-4.86388e-11
-2.00419e-12
-1.27589e-12
-1.36723e-11
-1.23683e-11
1.44463e-11
1.44157e-11
3.27024e-11
9.93402e-08
-5.98079e-11
-9.92907e-08
2.71739e-11
-5.00538e-11
-3.19256e-13
1.63473e-12
-1.37896e-11
-1.35207e-11
1.16396e-11
1.48222e-11
-2.45025e-08
-4.77765e-11
6.46375e-13
4.19801e-11
4.43414e-11
2.54358e-11
2.67208e-11
2.44894e-08
-4.25512e-11
-4.54397e-11
2.46279e-08
-2.44894e-08
-2.44284e-11
-2.60584e-11
7.14877e-13
1.00174e-07
-2.25961e-12
4.25562e-11
2.11197e-12
3.30885e-11
9.50074e-12
-3.31047e-11
-1.12693e-11
-4.2022e-11
9.36629e-13
1.39957e-12
1.00201e-07
-2.25698e-12
4.21343e-11
-9.85522e-13
3.29489e-11
9.3902e-12
-3.31683e-11
-8.40378e-12
1.00174e-07
5.40769e-13
-1.00174e-07
8.87431e-13
-4.19845e-11
2.10974e-12
-2.2598e-12
-3.30925e-11
-1.12576e-11
9.51193e-12
3.30977e-11
4.26489e-11
1.002e-07
1.1133e-12
-1.00201e-07
1.20993e-12
-4.19468e-11
1.24971e-12
-2.26087e-12
-3.30681e-11
-1.12286e-11
9.42309e-12
3.31807e-11
2.48334e-11
2.71296e-11
2.449e-08
-4.57759e-11
2.46286e-08
-2.44898e-08
-2.42836e-11
-2.609e-11
-5.4743e-13
9.84857e-08
1.65715e-11
4.54292e-11
-1.64367e-11
-4.05558e-11
4.40622e-11
4.13435e-11
-4.5073e-11
-3.63543e-11
1.73958e-13
-3.03986e-13
9.93976e-08
1.14657e-11
3.7581e-11
-1.21332e-11
-2.00564e-11
4.28244e-11
2.02123e-11
-4.42732e-11
9.84855e-08
-6.10736e-13
-9.84857e-08
-3.34064e-13
-4.43335e-11
-1.64206e-11
1.65899e-11
4.13508e-11
-4.5061e-11
4.40722e-11
-4.05465e-11
3.76494e-11
9.93968e-08
-1.43341e-13
-9.9398e-08
-3.38209e-13
-3.62597e-11
-1.25992e-11
1.6798e-11
2.02025e-11
-4.43387e-11
4.03321e-11
-2.00894e-11
3.96247e-10
-1.17919e-10
9.86929e-08
5.99072e-11
1.80674e-10
6.83537e-11
-2.29572e-11
4.33966e-11
-7.22673e-11
2.17514e-11
1.6463e-14
-9.84766e-08
-1.14416e-12
-4.42842e-11
-1.6443e-11
1.65288e-11
4.13544e-11
-4.52132e-11
-4.05646e-11
4.42555e-11
-9.88243e-11
9.93494e-08
-3.94673e-10
-9.86952e-08
1.21128e-10
-1.77567e-10
-6.32123e-11
-6.62915e-11
2.34435e-11
-4.48478e-11
6.82997e-11
-2.16572e-11
3.33993e-11
1.92603e-11
2.4496e-08
-4.92178e-11
2.46332e-08
-2.4496e-08
-3.24927e-11
-1.77724e-11
-4.75293e-10
1.50575e-10
1.0004e-07
-3.55302e-11
-9.93769e-11
-1.02623e-10
1.73912e-11
1.16145e-11
1.47128e-11
-1.43115e-11
-7.74743e-13
-9.92595e-08
7.71188e-13
-4.86269e-11
-1.98151e-12
-1.26148e-12
-1.36596e-11
-1.23385e-11
1.44651e-11
1.44304e-11
1.67626e-10
9.93404e-08
4.71357e-10
-1.00041e-07
-1.50708e-10
1.00555e-10
3.54326e-11
1.02028e-10
-1.64439e-11
-1.19406e-11
-1.31138e-11
1.54259e-11
-2.4499e-08
7.58892e-11
-1.48086e-10
4.19902e-11
4.43556e-11
2.54231e-11
2.67088e-11
2.44894e-08
-4.25132e-11
-4.53969e-11
2.46279e-08
-2.44894e-08
-2.44719e-11
-2.6107e-11
6.81486e-13
1.00174e-07
-2.26694e-12
4.25481e-11
2.10053e-12
3.31024e-11
9.46625e-12
-3.3126e-11
-1.12589e-11
-4.19028e-11
7.71801e-13
1.02461e-12
1.002e-07
-2.08475e-12
4.2614e-11
1.33255e-12
3.31725e-11
9.54714e-12
-3.29919e-11
-1.12469e-11
1.00174e-07
-1.92586e-13
-1.00174e-07
6.77059e-13
-4.18807e-11
1.93465e-12
-2.22718e-12
-3.35164e-11
-1.04813e-11
9.15086e-12
3.39397e-11
4.24311e-11
1.00201e-07
-6.19793e-13
-1.002e-07
1.74896e-13
-4.17866e-11
1.61552e-12
-2.04406e-12
-3.34783e-11
-1.04881e-11
9.18181e-12
3.39555e-11
2.5214e-11
2.70171e-11
2.44898e-08
-4.56342e-11
2.46286e-08
-2.44898e-08
-2.44719e-11
-2.62529e-11
-5.12539e-13
9.84857e-08
1.65579e-11
4.54148e-11
-1.64562e-11
-4.05513e-11
4.40347e-11
4.13145e-11
-4.50768e-11
-3.63667e-11
3.18736e-13
-2.66251e-13
9.93976e-08
1.14524e-11
3.75661e-11
-1.2153e-11
-2.00694e-11
4.27825e-11
2.01658e-11
-4.42916e-11
9.84857e-08
-1.61925e-12
-9.84855e-08
-5.9608e-13
-4.42302e-11
-1.66177e-11
1.68221e-11
4.09557e-11
-4.45271e-11
4.38579e-11
-3.9684e-11
3.75987e-11
9.93969e-08
-1.20545e-12
-9.93978e-08
-5.86165e-13
-3.61603e-11
-1.2802e-11
1.70507e-11
1.98044e-11
-4.37822e-11
4.01211e-11
-1.9155e-11
-4.42377e-11
2.16593e-11
9.93944e-08
1.10244e-11
3.69346e-11
-1.22987e-11
-2.06412e-11
4.19516e-11
-4.50835e-11
2.07011e-11
-1.57538e-12
-9.84767e-08
-8.36069e-13
-4.44586e-11
-1.60763e-11
1.65626e-11
4.09659e-11
-4.46507e-11
-3.96597e-11
4.40302e-11
5.76784e-11
9.93485e-08
4.54806e-11
-9.93948e-08
-2.23546e-11
-3.46205e-11
-1.11182e-11
1.0786e-11
2.007e-11
-4.30256e-11
4.31972e-11
-1.97236e-11
3.3399e-11
1.9252e-11
2.4496e-08
-4.91324e-11
2.46332e-08
-2.44961e-08
-3.25606e-11
-1.78505e-11
5.67131e-11
-2.91642e-11
9.92912e-08
3.55562e-12
5.05853e-11
-1.24878e-12
1.47001e-11
1.25622e-11
-1.23803e-11
-1.40793e-11
-1.15893e-12
-9.92585e-08
-4.31298e-13
-4.85593e-11
-2.18249e-12
-1.1e-12
-1.40647e-11
-1.15984e-11
1.52362e-11
1.40704e-11
3.26706e-11
9.93404e-08
-6.08598e-11
-9.92904e-08
2.66811e-11
-4.99541e-11
-4.97578e-13
1.83647e-12
-1.41549e-11
-1.2706e-11
1.13378e-11
1.56694e-11
-2.45025e-08
-4.78159e-11
5.88541e-13
4.18922e-11
4.42243e-11
2.56542e-11
2.68586e-11
2.44893e-08
-4.05376e-11
-4.33523e-11
2.46293e-08
-2.44872e-08
-2.84753e-11
-2.97337e-11
1.57302e-12
1.00173e-07
-2.22689e-12
4.20476e-11
1.28007e-12
3.49242e-11
8.19781e-12
-3.44768e-11
-9.83119e-12
-4.19733e-11
2.00545e-12
2.32366e-12
1.002e-07
-2.14813e-12
4.18298e-11
-1.89846e-12
3.47587e-11
8.03643e-12
-3.46021e-11
-6.89169e-12
1.00171e-07
-6.58843e-12
-1.0017e-07
-3.34752e-12
-3.8432e-11
-8.24948e-13
1.68573e-12
-3.96879e-11
-3.33e-12
6.07959e-12
4.29969e-11
4.0767e-11
1.00197e-07
-6.95954e-12
-1.00195e-07
-3.42508e-12
-3.86374e-11
-1.47634e-12
1.86812e-12
-3.97242e-11
-3.29057e-12
5.93575e-12
4.33206e-11
2.50552e-11
2.72775e-11
2.44898e-08
-4.38314e-11
2.46301e-08
-2.44873e-08
-2.81664e-11
-2.99657e-11
2.66146e-13
9.84844e-08
1.6874e-11
4.48993e-11
-1.74142e-11
-3.87152e-11
4.3222e-11
3.99422e-11
-4.41957e-11
-3.6276e-11
1.56411e-12
4.94578e-13
9.93965e-08
1.17753e-11
3.70171e-11
-1.32414e-11
-1.81281e-11
4.19274e-11
1.86632e-11
-4.34151e-11
9.84824e-08
-8.65446e-12
-9.84812e-08
-4.34615e-12
-4.08348e-11
-2.00658e-11
2.16072e-11
3.3973e-11
-3.93679e-11
4.1701e-11
-2.85359e-11
3.52004e-11
9.93941e-08
-8.99835e-12
-9.93937e-08
-3.86548e-12
-3.26209e-11
-1.63592e-11
2.2068e-11
1.2077e-11
-3.87936e-11
3.80635e-11
-7.15032e-12
3.96742e-10
-1.17184e-10
9.86923e-08
6.01854e-11
1.80119e-10
6.7508e-11
-2.09977e-11
4.24911e-11
-7.13401e-11
2.02143e-11
-8.92449e-12
-9.84726e-08
-4.27641e-12
-4.0815e-11
-2.02619e-11
2.16259e-11
3.3854e-11
-3.99044e-11
-2.8951e-11
4.20796e-11
-1.00403e-10
9.93482e-08
-4.07006e-10
-9.86898e-08
1.17328e-10
-1.73646e-10
-6.66045e-11
-6.19683e-11
1.59379e-11
-3.96326e-11
6.64433e-11
-8.87415e-12
3.35452e-11
1.94379e-11
2.44958e-08
-4.74286e-11
2.46351e-08
-2.44941e-08
-3.65326e-11
-2.18307e-11
-4.73674e-10
1.518e-10
1.00038e-07
-3.53107e-11
-9.96966e-11
-1.03558e-10
1.91295e-11
1.03165e-11
1.56304e-11
-1.56491e-11
-9.04265e-12
-9.92543e-08
-3.42185e-12
-4.54237e-11
-5.68212e-12
3.26528e-12
-1.97549e-11
-4.94157e-12
2.42219e-11
1.15195e-11
1.65946e-10
9.93377e-08
4.65301e-10
-1.00038e-07
-1.58128e-10
1.04292e-10
3.2821e-11
1.06613e-10
-2.2598e-11
-4.35924e-12
-1.49821e-11
2.49513e-11
-2.44972e-08
7.27297e-11
-1.51734e-10
3.55351e-11
3.79749e-11
3.43138e-11
3.53931e-11
2.44861e-08
-6.31376e-11
-6.2764e-11
2.46274e-08
-2.44829e-08
-8.21835e-12
-1.03748e-11
-6.71202e-12
1.00172e-07
5.09641e-12
3.9971e-11
-2.05276e-12
4.28866e-11
8.71207e-12
-3.90344e-11
-4.59917e-12
-3.60336e-11
-8.88987e-12
-5.9869e-12
1.00197e-07
5.52833e-12
4.00321e-11
-2.78518e-12
4.26819e-11
9.03856e-12
-3.89903e-11
-5.49696e-12
1.00044e-07
-7.04153e-11
-1.00181e-07
-4.56651e-11
-8.6996e-12
1.13229e-11
3.88292e-11
-3.79135e-12
2.09876e-11
5.22324e-11
7.90795e-11
6.32919e-11
1.0007e-07
-7.24844e-11
-1.00204e-07
-4.62046e-11
-9.02893e-12
1.11911e-11
3.90758e-11
-4.31389e-12
2.12072e-11
5.15255e-11
7.95071e-11
3.38323e-11
3.58759e-11
2.4486e-08
-6.30122e-11
2.46285e-08
-2.44829e-08
-8.88172e-12
-1.04378e-11
-6.49265e-12
9.8485e-08
2.48096e-11
4.28226e-11
-2.22584e-11
-2.92094e-11
4.37954e-11
3.43506e-11
-4.06948e-11
-2.99956e-11
-9.96688e-12
-6.72922e-12
9.93953e-08
1.98623e-11
3.49556e-11
-1.77127e-11
-7.12767e-12
4.22261e-11
1.24979e-11
-3.92815e-11
9.83632e-08
-7.58627e-11
-9.84979e-08
-4.23006e-11
-1.34833e-11
-4.51308e-12
5.32599e-11
7.28807e-11
-8.58094e-12
8.17283e-11
8.78612e-12
5.57687e-11
9.92721e-08
-7.44224e-11
-9.94104e-08
-4.48824e-11
-4.03625e-12
1.47544e-12
5.58451e-11
5.3988e-11
-7.74519e-12
7.84021e-11
2.38755e-11
-5.50859e-11
1.57449e-11
9.93929e-08
1.96988e-11
3.42621e-11
-1.67919e-11
-7.78357e-12
4.17169e-11
-4.03024e-11
1.27791e-11
-7.55594e-11
-9.84887e-08
-4.31395e-11
-1.38253e-11
-4.07809e-12
5.26724e-11
7.23527e-11
-8.41498e-12
9.20769e-12
8.20408e-11
7.82627e-11
9.92208e-08
-3.06933e-11
-9.94046e-08
-6.45461e-11
-3.04039e-12
2.5564e-12
4.89286e-11
5.35819e-11
-5.83839e-12
8.0129e-11
2.44035e-11
4.23331e-11
2.80445e-11
2.44924e-08
-6.88776e-11
2.46338e-08
-2.449e-08
-1.76532e-11
-1.53824e-12
4.89891e-11
-3.57635e-11
9.92882e-08
1.30648e-11
4.77199e-11
-6.62752e-12
2.33183e-11
1.17355e-11
-6.94086e-12
-1.95147e-11
-7.70278e-11
-9.92663e-08
-4.19631e-11
-1.70563e-11
8.11207e-12
3.90673e-11
1.95996e-11
2.01014e-11
5.86251e-11
5.6377e-11
5.13431e-11
9.92098e-08
-1.36659e-10
-9.92956e-08
-1.36212e-11
-1.8393e-11
8.23976e-12
4.20696e-11
1.98042e-11
1.97663e-11
5.35752e-11
5.96991e-11
-2.44948e-08
-3.21196e-11
1.17914e-11
-9.82733e-12
-5.58634e-12
9.10529e-11
8.93801e-11
2.44624e-08
3.15628e-10
1.00583e-09