/*--------------------------------*- C++ -*----------------------------------*\
| =========                 |                                                 |
| \\      /  F ield         | OpenFOAM: The Open Source CFD Toolbox           |
|  \\    /   O peration     | Version:  2206                                  |
|   \\  /    A nd           | Website:  www.openfoam.com                      |
|    \\/     M anipulation  |                                                 |
\*---------------------------------------------------------------------------*/
FoamFile
{
    version     2.0;
    format      ascii;
    arch        "LSB;label=32;scalar=64";
    class       volScalarField;
    location    "0.9";
    object      k;
}
// * * * * * * * * * * * * * * * * * * * * * * * * * * * * * * * * * * * * * //

dimensions      [0 2 -2 0 0 0 0];

internalField   nonuniform List<scalar> 
183793
(
7.09345e-09
6.91989e-09
6.90226e-09
6.77641e-09
6.95145e-09
6.89749e-09
6.76443e-09
6.78321e-09
6.77945e-09
6.93016e-09
6.73082e-09
6.77387e-09
7.10932e-09
6.74737e-09
6.96371e-09
6.73687e-09
6.70546e-09
6.77781e-09
6.94028e-09
6.78005e-09
6.7375e-09
6.9086e-09
6.92825e-09
7.10606e-09
6.92487e-09
6.93591e-09
6.95552e-09
6.91557e-09
6.75254e-09
6.94257e-09
6.87381e-09
6.75537e-09
7.03519e-09
6.92114e-09
6.93949e-09
6.86189e-09
7.12755e-09
6.87876e-09
6.94774e-09
7.1139e-09
6.74486e-09
6.93175e-09
7.10767e-09
7.10909e-09
6.94501e-09
6.92414e-09
6.91268e-09
6.75064e-09
6.96704e-09
6.92408e-09
7.00112e-09
7.11965e-09
7.09085e-09
6.77086e-09
6.82495e-09
6.97328e-09
6.93722e-09
6.90096e-09
6.90366e-09
7.1056e-09
6.93026e-09
7.13495e-09
7.06851e-09
6.75153e-09
6.67707e-09
6.8888e-09
7.09964e-09
6.81625e-09
7.07429e-09
7.15419e-09
6.83247e-09
6.74452e-09
7.0228e-09
7.01537e-09
6.82061e-09
6.82662e-09
6.91636e-09
6.89814e-09
7.0121e-09
7.00466e-09
6.92429e-09
6.92138e-09
6.7392e-09
6.87649e-09
7.12922e-09
6.86495e-09
6.98975e-09
7.08949e-09
7.00756e-09
6.80519e-09
7.00604e-09
6.79292e-09
6.98369e-09
7.18333e-09
6.95038e-09
7.00503e-09
6.97381e-09
6.85998e-09
6.83197e-09
6.81447e-09
6.84957e-09
6.81039e-09
6.88134e-09
7.01191e-09
6.80756e-09
6.98917e-09
6.97409e-09
7.10354e-09
6.89057e-09
7.08557e-09
6.93961e-09
6.704e-09
6.88784e-09
6.8314e-09
6.98888e-09
6.91848e-09
7.08467e-09
7.02446e-09
7.01216e-09
6.80452e-09
7.01299e-09
6.90861e-09
6.836e-09
7.12914e-09
6.8983e-09
6.87682e-09
7.10191e-09
6.80799e-09
6.92905e-09
6.9967e-09
7.1359e-09
7.1003e-09
7.02237e-09
7.02492e-09
6.85148e-09
6.9913e-09
6.81594e-09
6.8516e-09
7.10492e-09
7.04786e-09
7.05357e-09
6.8646e-09
7.04905e-09
6.7435e-09
6.75775e-09
7.0001e-09
6.85444e-09
7.1345e-09
7.06787e-09
6.86063e-09
6.68771e-09
6.71405e-09
7.03493e-09
6.86002e-09
6.85591e-09
6.89564e-09
7.05568e-09
6.97188e-09
6.83604e-09
6.81613e-09
7.06231e-09
6.77768e-09
6.99693e-09
6.75352e-09
7.10568e-09
6.89124e-09
6.81826e-09
6.96108e-09
6.82336e-09
6.83631e-09
6.8307e-09
6.96122e-09
6.84411e-09
7.09559e-09
6.81738e-09
6.84123e-09
6.7634e-09
7.06409e-09
7.0562e-09
6.9774e-09
6.99569e-09
6.9805e-09
6.89621e-09
7.06136e-09
6.88357e-09
6.82994e-09
6.77899e-09
7.0989e-09
7.04691e-09
7.03426e-09
6.78693e-09
6.89423e-09
7.07931e-09
6.86502e-09
7.04214e-09
6.88628e-09
7.09859e-09
7.11176e-09
6.80708e-09
6.8925e-09
6.85478e-09
7.09182e-09
6.91039e-09
6.79326e-09
6.94444e-09
6.89834e-09
6.90914e-09
6.88753e-09
7.08883e-09
7.09489e-09
7.09932e-09
6.92186e-09
6.81561e-09
7.0674e-09
7.08232e-09
7.0841e-09
6.87907e-09
7.11848e-09
6.90142e-09
7.02951e-09
7.10773e-09
6.88905e-09
6.92837e-09
7.11764e-09
7.10011e-09
7.09693e-09
6.91419e-09
7.08955e-09
7.08539e-09
7.16081e-09
6.79107e-09
6.72756e-09
6.90776e-09
6.91726e-09
7.06636e-09
7.09758e-09
7.09154e-09
7.046e-09
6.86895e-09
6.87886e-09
6.94347e-09
6.81691e-09
6.9272e-09
6.8807e-09
7.12412e-09
6.84091e-09
7.05383e-09
6.83675e-09
6.76844e-09
6.94955e-09
6.87863e-09
7.05641e-09
6.93979e-09
6.75078e-09
7.08768e-09
6.7549e-09
6.94831e-09
6.9629e-09
6.9546e-09
6.74737e-09
7.00332e-09
6.8351e-09
7.06077e-09
6.96515e-09
6.82945e-09
7.0693e-09
7.00765e-09
6.87338e-09
7.10036e-09
7.07333e-09
6.77611e-09
6.99157e-09
6.88142e-09
6.87232e-09
7.00226e-09
6.82833e-09
7.08928e-09
6.92744e-09
6.89811e-09
7.00261e-09
7.08155e-09
6.81363e-09
7.10808e-09
6.79633e-09
6.8145e-09
6.91931e-09
6.82391e-09
7.00828e-09
7.12765e-09
6.80333e-09
6.73905e-09
6.90688e-09
6.88818e-09
7.01191e-09
7.06514e-09
6.95148e-09
6.99751e-09
6.89242e-09
7.00839e-09
6.89748e-09
7.09884e-09
6.72937e-09
6.96458e-09
7.11221e-09
7.01516e-09
6.99142e-09
6.76892e-09
6.83804e-09
6.87458e-09
6.80931e-09
7.07529e-09
6.87577e-09
6.88051e-09
7.12458e-09
7.10351e-09
6.92507e-09
6.84159e-09
6.81722e-09
6.81907e-09
6.88988e-09
6.80512e-09
6.80758e-09
7.01598e-09
6.97844e-09
7.0279e-09
6.99951e-09
6.84061e-09
6.87479e-09
7.02198e-09
6.98949e-09
6.80272e-09
7.05005e-09
6.83516e-09
6.89875e-09
6.97365e-09
7.13384e-09
6.91626e-09
7.06384e-09
6.89676e-09
6.94126e-09
6.83152e-09
6.84578e-09
6.82204e-09
6.76545e-09
6.88061e-09
7.11912e-09
6.88137e-09
7.08701e-09
7.0657e-09
7.12536e-09
6.98635e-09
7.06911e-09
6.77929e-09
6.99235e-09
6.86889e-09
6.91521e-09
6.91555e-09
7.12436e-09
7.12177e-09
7.09857e-09
7.0651e-09
7.06795e-09
6.82659e-09
6.90005e-09
7.12733e-09
7.13785e-09
7.02304e-09
6.84514e-09
6.89582e-09
6.74185e-09
7.13936e-09
6.98704e-09
6.78798e-09
6.9882e-09
6.96177e-09
6.75764e-09
6.85535e-09
6.91491e-09
6.68289e-09
6.95344e-09
7.11458e-09
7.11005e-09
6.83899e-09
7.16807e-09
6.90195e-09
6.83266e-09
6.85614e-09
7.10845e-09
7.00823e-09
6.85711e-09
7.12249e-09
6.89363e-09
6.95078e-09
7.04637e-09
7.02468e-09
6.85968e-09
7.12065e-09
6.87468e-09
6.76844e-09
6.96863e-09
6.80896e-09
6.91469e-09
6.87303e-09
7.03072e-09
6.91831e-09
6.8545e-09
6.80995e-09
6.85803e-09
7.06687e-09
6.81154e-09
6.82051e-09
7.0781e-09
6.77036e-09
6.85113e-09
6.87479e-09
7.13381e-09
6.91107e-09
7.10475e-09
6.82102e-09
6.91622e-09
6.85571e-09
6.9264e-09
6.99063e-09
7.00638e-09
7.15945e-09
7.04412e-09
6.87961e-09
6.9882e-09
6.85525e-09
7.15262e-09
6.74177e-09
6.98277e-09
6.85062e-09
6.98555e-09
6.96412e-09
6.78509e-09
6.9234e-09
6.87696e-09
6.94423e-09
7.11822e-09
7.04276e-09
6.88423e-09
6.98948e-09
7.15659e-09
6.90586e-09
6.91814e-09
6.86021e-09
6.86865e-09
7.09669e-09
6.71142e-09
6.91559e-09
6.8759e-09
7.11911e-09
7.11403e-09
6.73826e-09
6.90029e-09
6.74218e-09
6.98319e-09
6.87689e-09
6.98971e-09
6.80148e-09
6.80504e-09
6.89984e-09
7.16413e-09
6.8962e-09
6.99315e-09
7.10019e-09
6.82399e-09
6.88228e-09
7.12541e-09
7.11261e-09
6.98019e-09
7.06817e-09
7.07221e-09
6.99676e-09
6.91838e-09
6.80176e-09
7.05884e-09
6.75125e-09
6.9618e-09
7.1166e-09
6.88268e-09
7.12468e-09
7.07447e-09
6.86389e-09
6.93422e-09
6.99181e-09
7.09658e-09
7.12213e-09
6.82929e-09
7.12876e-09
6.71427e-09
7.08569e-09
6.74617e-09
6.82586e-09
6.79885e-09
6.98688e-09
6.98945e-09
6.98251e-09
6.83958e-09
6.93546e-09
6.92644e-09
6.93393e-09
7.07271e-09
6.82345e-09
7.0949e-09
6.84703e-09
6.8531e-09
6.83403e-09
6.72244e-09
7.03897e-09
6.91657e-09
6.81297e-09
6.775e-09
6.95139e-09
6.98061e-09
6.84868e-09
6.82171e-09
6.89556e-09
6.95859e-09
6.79692e-09
7.1061e-09
6.95579e-09
6.75217e-09
6.77161e-09
6.74998e-09
6.91366e-09
6.87589e-09
6.87007e-09
6.82024e-09
7.0292e-09
6.80814e-09
6.86062e-09
6.8181e-09
6.7929e-09
6.97923e-09
6.9077e-09
6.82441e-09
6.87008e-09
6.98061e-09
6.94411e-09
6.77321e-09
7.01152e-09
7.12822e-09
6.95382e-09
6.86103e-09
6.98635e-09
6.73244e-09
6.86591e-09
6.73857e-09
6.72847e-09
6.71583e-09
6.83421e-09
6.81148e-09
7.00222e-09
6.9134e-09
6.77202e-09
6.86402e-09
7.12633e-09
6.85734e-09
7.08202e-09
6.73564e-09
6.9284e-09
6.92084e-09
6.73569e-09
6.85426e-09
6.72215e-09
7.05075e-09
7.08859e-09
6.92364e-09
6.71332e-09
6.84344e-09
6.99211e-09
7.06098e-09
7.05917e-09
6.84711e-09
7.03918e-09
7.0435e-09
6.86395e-09
7.04365e-09
6.87838e-09
7.07717e-09
6.88843e-09
7.0635e-09
6.91945e-09
6.95491e-09
6.91757e-09
6.93003e-09
7.09948e-09
6.93737e-09
7.09626e-09
6.88589e-09
7.04702e-09
6.89968e-09
7.06545e-09
6.90929e-09
7.09687e-09
6.92224e-09
7.06558e-09
6.92472e-09
7.09548e-09
6.90965e-09
7.03899e-09
6.86021e-09
7.04907e-09
6.89943e-09
7.05721e-09
6.87979e-09
7.06613e-09
6.92878e-09
7.0705e-09
6.87295e-09
7.04367e-09
6.86805e-09
7.03438e-09
6.87355e-09
7.06621e-09
6.90001e-09
7.05191e-09
6.86327e-09
7.05904e-09
6.88329e-09
7.05618e-09
6.89583e-09
7.08442e-09
6.91445e-09
7.07162e-09
6.89293e-09
7.07298e-09
6.9021e-09
7.09599e-09
6.93381e-09
7.1271e-09
6.98438e-09
7.10892e-09
6.87176e-09
7.06894e-09
6.92502e-09
7.08063e-09
6.88469e-09
7.05826e-09
6.88072e-09
7.03557e-09
6.86999e-09
7.01801e-09
6.84645e-09
7.07413e-09
6.88422e-09
7.04542e-09
6.89179e-09
7.06184e-09
6.89461e-09
7.06907e-09
6.87148e-09
7.06339e-09
6.90999e-09
7.05651e-09
6.87898e-09
7.0431e-09
6.83669e-09
7.02333e-09
6.84853e-09
7.02081e-09
6.87166e-09
7.02513e-09
6.82531e-09
7.01267e-09
6.86134e-09
6.99264e-09
6.79233e-09
6.9934e-09
6.83211e-09
7.01877e-09
6.85887e-09
7.01391e-09
6.83983e-09
7.03234e-09
6.89198e-09
7.06269e-09
6.9373e-09
7.10402e-09
6.92137e-09
7.09961e-09
6.91672e-09
7.10572e-09
6.91799e-09
7.08974e-09
6.91519e-09
7.08459e-09
6.8953e-09
7.06972e-09
6.87685e-09
7.03353e-09
6.85852e-09
7.05588e-09
6.91132e-09
7.07116e-09
6.91001e-09
7.06463e-09
6.89406e-09
7.08647e-09
6.90968e-09
7.07549e-09
6.89513e-09
7.06153e-09
6.90061e-09
7.08769e-09
6.91062e-09
7.0674e-09
6.89824e-09
7.07385e-09
6.92169e-09
7.11743e-09
6.96237e-09
7.11693e-09
6.92347e-09
7.1315e-09
6.96826e-09
7.12207e-09
6.94741e-09
7.13144e-09
6.94894e-09
7.11755e-09
6.92991e-09
7.09872e-09
6.93414e-09
7.08317e-09
6.89572e-09
7.08186e-09
6.898e-09
7.06265e-09
6.88646e-09
7.08265e-09
6.88917e-09
7.04464e-09
6.89049e-09
7.05954e-09
6.89186e-09
7.04589e-09
6.84258e-09
7.02394e-09
6.86793e-09
7.03205e-09
6.84818e-09
7.02434e-09
6.88744e-09
7.05226e-09
6.85664e-09
7.04429e-09
6.856e-09
7.01307e-09
6.84796e-09
7.03841e-09
6.88677e-09
7.04564e-09
6.8718e-09
7.0328e-09
6.8412e-09
7.02998e-09
6.86018e-09
7.04265e-09
6.89826e-09
7.03887e-09
6.91261e-09
7.06061e-09
6.92735e-09
7.08592e-09
6.9551e-09
7.1633e-09
6.95107e-09
7.08382e-09
6.87903e-09
7.05862e-09
6.88966e-09
7.05897e-09
6.88842e-09
7.04126e-09
6.84082e-09
7.05133e-09
6.87679e-09
7.02938e-09
6.86063e-09
7.06449e-09
6.88923e-09
7.06782e-09
6.88573e-09
7.05832e-09
6.89157e-09
7.06824e-09
6.88005e-09
7.08759e-09
6.91015e-09
7.0637e-09
6.8834e-09
7.05404e-09
6.84333e-09
7.03118e-09
6.84771e-09
7.01868e-09
6.8485e-09
7.01244e-09
6.83779e-09
7.01302e-09
6.87159e-09
6.99313e-09
6.84292e-09
7.01657e-09
6.87145e-09
7.09162e-09
6.85212e-09
7.03216e-09
6.85266e-09
7.02433e-09
6.87674e-09
7.03469e-09
6.92845e-09
7.10392e-09
6.9115e-09
7.07357e-09
6.8965e-09
7.08379e-09
6.91979e-09
7.09115e-09
6.92029e-09
7.08291e-09
6.89169e-09
7.05979e-09
6.87322e-09
7.02917e-09
6.83257e-09
7.03664e-09
6.88107e-09
7.03311e-09
6.8771e-09
7.0369e-09
6.87915e-09
7.05538e-09
6.88577e-09
7.0485e-09
6.85573e-09
7.01746e-09
6.85696e-09
7.02254e-09
6.86598e-09
7.02162e-09
6.86806e-09
7.04577e-09
6.88616e-09
7.05865e-09
6.91496e-09
7.08405e-09
6.90539e-09
7.09593e-09
6.93747e-09
7.10782e-09
6.92808e-09
7.0964e-09
6.93144e-09
7.09967e-09
6.90065e-09
7.08619e-09
6.91651e-09
7.06339e-09
6.87674e-09
7.0878e-09
6.89759e-09
7.09674e-09
6.89305e-09
7.095e-09
6.89859e-09
7.07276e-09
6.90791e-09
7.08513e-09
6.90108e-09
7.08744e-09
6.88215e-09
7.07831e-09
6.88719e-09
7.06114e-09
6.86638e-09
7.02637e-09
6.86674e-09
7.03746e-09
6.8631e-09
7.05264e-09
6.86432e-09
7.03555e-09
6.85269e-09
7.03254e-09
6.85794e-09
7.0436e-09
6.8833e-09
7.02469e-09
6.84546e-09
7.0282e-09
6.83152e-09
7.04352e-09
6.87399e-09
7.02536e-09
6.8503e-09
7.05003e-09
6.87335e-09
7.05079e-09
6.94446e-09
7.0767e-09
6.86786e-09
7.03539e-09
6.85826e-09
7.03568e-09
6.85347e-09
7.02797e-09
6.87393e-09
7.0374e-09
6.83542e-09
7.03833e-09
6.87354e-09
7.03825e-09
6.86114e-09
7.04021e-09
6.87995e-09
7.06214e-09
6.87309e-09
7.0731e-09
6.8943e-09
7.05815e-09
6.87817e-09
7.08129e-09
6.89367e-09
7.05462e-09
6.8783e-09
7.06139e-09
6.85747e-09
7.05445e-09
6.8843e-09
7.0729e-09
6.86148e-09
7.02558e-09
6.82935e-09
7.05075e-09
6.86464e-09
7.02341e-09
6.83955e-09
7.01631e-09
6.89548e-09
7.06898e-09
6.82271e-09
7.02301e-09
6.8578e-09
7.0528e-09
6.8794e-09
7.03366e-09
6.92018e-09
7.09575e-09
6.91351e-09
7.08099e-09
6.89113e-09
7.07205e-09
6.90901e-09
7.08061e-09
6.91412e-09
7.07801e-09
6.89453e-09
7.04904e-09
6.86623e-09
7.03719e-09
6.83116e-09
7.03557e-09
6.86509e-09
7.00377e-09
6.82149e-09
7.01685e-09
6.85513e-09
7.04634e-09
6.87631e-09
7.06239e-09
6.86734e-09
7.0483e-09
6.8548e-09
7.01981e-09
6.85124e-09
7.02061e-09
6.84598e-09
7.04763e-09
6.87447e-09
7.03988e-09
6.86335e-09
7.0462e-09
6.88224e-09
7.06064e-09
6.89993e-09
7.08929e-09
6.91901e-09
7.07196e-09
6.90719e-09
7.07881e-09
6.90305e-09
7.07006e-09
6.92684e-09
7.07787e-09
6.89171e-09
7.07084e-09
6.89775e-09
7.09275e-09
6.90808e-09
7.08294e-09
6.88666e-09
7.07508e-09
6.93141e-09
7.10225e-09
6.91522e-09
7.08864e-09
6.88739e-09
7.07068e-09
6.88697e-09
7.06449e-09
6.88038e-09
7.047e-09
6.85758e-09
7.03732e-09
6.85129e-09
7.02125e-09
6.86097e-09
7.02048e-09
6.85556e-09
7.03843e-09
6.86663e-09
7.04598e-09
6.88163e-09
7.0224e-09
6.8403e-09
7.01308e-09
6.82325e-09
7.01692e-09
6.86108e-09
7.02118e-09
6.83854e-09
7.0306e-09
6.84635e-09
7.05288e-09
6.89061e-09
7.0515e-09
6.86122e-09
7.05755e-09
6.89772e-09
7.07821e-09
6.87918e-09
7.05138e-09
6.87743e-09
7.05361e-09
6.87076e-09
7.06129e-09
6.89188e-09
7.06145e-09
6.87592e-09
7.036e-09
6.86692e-09
7.04966e-09
6.85493e-09
7.07501e-09
6.90402e-09
7.06127e-09
6.8882e-09
7.09016e-09
6.92531e-09
7.09863e-09
6.92803e-09
7.08935e-09
6.88553e-09
7.0841e-09
6.92911e-09
7.10641e-09
6.91081e-09
7.04023e-09
6.85124e-09
7.04934e-09
6.87754e-09
7.05029e-09
6.84515e-09
7.01329e-09
6.8785e-09
7.03916e-09
6.83594e-09
7.00095e-09
6.85629e-09
7.06038e-09
6.8971e-09
7.05812e-09
6.88843e-09
7.0607e-09
6.89861e-09
7.05747e-09
6.86699e-09
7.05838e-09
6.88555e-09
7.05885e-09
6.89257e-09
7.06281e-09
6.87834e-09
7.03728e-09
6.84475e-09
7.02825e-09
6.83649e-09
7.03143e-09
6.85358e-09
7.02816e-09
6.83924e-09
7.04432e-09
6.86726e-09
7.06102e-09
6.86979e-09
7.04641e-09
6.88339e-09
7.07136e-09
6.87136e-09
7.05865e-09
6.87671e-09
7.04187e-09
6.84317e-09
7.05259e-09
6.89071e-09
7.0715e-09
6.88575e-09
7.067e-09
6.89688e-09
7.07115e-09
6.89267e-09
7.07594e-09
6.90845e-09
7.07937e-09
6.89298e-09
7.07864e-09
6.87648e-09
7.05454e-09
6.90827e-09
7.06773e-09
6.88222e-09
7.06612e-09
6.8745e-09
7.06131e-09
6.90428e-09
7.0623e-09
6.86186e-09
7.06747e-09
6.92424e-09
7.08852e-09
6.93308e-09
7.11453e-09
6.91494e-09
7.0721e-09
6.90412e-09
7.06176e-09
6.90652e-09
7.05789e-09
6.86755e-09
7.06694e-09
6.84508e-09
7.01728e-09
6.84358e-09
7.00502e-09
6.81576e-09
7.02155e-09
6.84782e-09
7.02237e-09
6.85135e-09
7.00584e-09
6.83682e-09
7.03032e-09
6.85277e-09
7.02047e-09
6.85873e-09
7.0288e-09
6.86048e-09
7.04637e-09
6.87446e-09
7.09051e-09
6.87922e-09
7.04619e-09
6.86803e-09
7.05526e-09
6.90945e-09
7.09407e-09
6.90807e-09
7.08523e-09
6.87986e-09
7.06275e-09
6.87482e-09
7.05363e-09
6.88318e-09
7.05359e-09
6.88023e-09
7.02789e-09
6.84629e-09
7.00961e-09
6.82963e-09
7.03486e-09
6.86047e-09
7.04196e-09
6.85673e-09
7.03562e-09
6.87928e-09
7.07967e-09
6.93295e-09
7.06593e-09
6.86785e-09
7.05391e-09
6.90096e-09
7.07199e-09
6.89624e-09
7.05056e-09
6.85914e-09
7.03295e-09
6.871e-09
7.04967e-09
6.839e-09
7.01407e-09
6.84075e-09
7.01095e-09
6.83341e-09
6.9847e-09
6.82084e-09
7.01572e-09
6.8628e-09
7.06881e-09
6.86301e-09
7.05184e-09
6.87845e-09
7.02855e-09
6.8422e-09
7.05583e-09
6.88212e-09
7.06004e-09
6.88574e-09
7.0642e-09
6.88325e-09
7.05539e-09
6.86479e-09
7.04895e-09
6.86913e-09
7.04073e-09
6.8554e-09
7.05417e-09
6.86806e-09
7.0587e-09
6.89763e-09
7.10503e-09
6.89571e-09
7.06735e-09
6.89608e-09
7.08698e-09
6.91464e-09
7.10239e-09
6.9208e-09
7.09198e-09
6.87148e-09
7.08151e-09
6.89098e-09
7.06818e-09
6.89416e-09
7.09306e-09
6.91461e-09
7.09379e-09
6.90277e-09
7.07737e-09
6.89711e-09
7.06809e-09
6.90627e-09
7.09493e-09
6.88438e-09
7.07951e-09
6.91775e-09
7.07355e-09
6.89228e-09
7.09919e-09
6.90271e-09
7.0916e-09
6.9201e-09
7.09838e-09
6.89605e-09
7.10454e-09
6.92851e-09
7.07265e-09
6.90821e-09
7.11004e-09
6.90726e-09
7.07722e-09
6.87547e-09
7.04879e-09
6.88241e-09
7.02288e-09
6.86535e-09
7.07266e-09
6.87876e-09
7.03938e-09
6.86395e-09
7.03241e-09
6.83505e-09
7.02346e-09
6.84426e-09
7.01659e-09
6.84211e-09
6.99532e-09
6.82691e-09
7.01082e-09
6.84446e-09
7.02198e-09
6.85261e-09
7.00972e-09
6.83988e-09
7.01645e-09
6.856e-09
7.06521e-09
6.86834e-09
7.04126e-09
6.85726e-09
7.03298e-09
6.87455e-09
7.07059e-09
6.91634e-09
7.1074e-09
6.91003e-09
7.10276e-09
6.90728e-09
7.07183e-09
6.89161e-09
7.08145e-09
6.91222e-09
7.08534e-09
6.88524e-09
7.03863e-09
6.85188e-09
7.03224e-09
6.84146e-09
7.04413e-09
6.86554e-09
7.01409e-09
6.81997e-09
7.04406e-09
6.90851e-09
7.07053e-09
6.86774e-09
7.06168e-09
6.883e-09
7.05191e-09
6.8616e-09
7.04313e-09
6.87126e-09
7.02871e-09
6.86319e-09
7.0454e-09
6.85585e-09
7.01677e-09
6.81651e-09
6.98563e-09
6.82649e-09
6.9927e-09
6.81387e-09
6.9837e-09
6.8707e-09
6.83912e-09
7.03081e-09
6.87936e-09
7.05931e-09
6.86056e-09
7.06996e-09
6.90579e-09
7.05541e-09
6.88664e-09
7.07633e-09
6.90749e-09
7.07642e-09
6.90216e-09
7.06524e-09
6.89439e-09
7.06353e-09
6.87414e-09
7.06236e-09
6.88326e-09
7.0498e-09
6.90548e-09
7.08702e-09
6.90645e-09
7.09114e-09
6.89741e-09
7.07311e-09
6.9187e-09
7.08545e-09
6.92623e-09
7.09162e-09
6.8963e-09
7.1111e-09
6.91196e-09
7.06421e-09
6.88845e-09
7.08647e-09
6.93224e-09
7.10915e-09
6.92347e-09
7.09984e-09
6.91069e-09
7.07862e-09
6.91666e-09
7.10543e-09
6.90228e-09
7.07957e-09
6.91636e-09
7.07883e-09
6.9094e-09
7.08899e-09
6.9033e-09
7.07293e-09
6.89063e-09
7.06615e-09
6.88997e-09
7.09992e-09
6.9338e-09
7.06617e-09
6.88167e-09
7.07254e-09
6.90572e-09
7.07627e-09
6.88083e-09
7.08046e-09
6.88853e-09
7.04052e-09
6.87087e-09
7.06938e-09
6.88444e-09
7.05713e-09
6.87902e-09
7.05698e-09
6.86506e-09
7.04331e-09
6.85059e-09
7.03404e-09
6.83987e-09
7.00648e-09
6.80638e-09
6.99295e-09
6.81281e-09
6.99036e-09
6.83971e-09
6.9924e-09
6.82025e-09
7.02124e-09
6.86155e-09
7.03657e-09
6.85231e-09
7.03671e-09
6.86185e-09
7.04518e-09
6.85902e-09
7.04568e-09
6.87905e-09
7.07088e-09
6.8901e-09
7.08226e-09
6.90685e-09
7.07264e-09
6.8746e-09
7.06928e-09
6.90124e-09
7.07501e-09
6.90415e-09
7.06003e-09
6.86993e-09
7.04371e-09
6.86134e-09
7.0697e-09
6.90707e-09
7.08006e-09
6.85684e-09
7.0636e-09
6.91689e-09
7.07932e-09
6.90858e-09
7.09739e-09
6.90187e-09
7.09753e-09
6.87528e-09
7.06524e-09
6.88296e-09
7.01761e-09
6.83509e-09
7.03332e-09
6.87523e-09
7.04915e-09
6.83548e-09
7.00904e-09
6.84301e-09
7.0184e-09
6.83228e-09
7.01787e-09
6.84081e-09
7.01266e-09
6.87645e-09
7.06679e-09
6.88188e-09
7.07069e-09
6.89463e-09
7.05277e-09
6.87146e-09
7.05908e-09
6.89069e-09
7.06375e-09
6.88547e-09
7.0422e-09
6.86589e-09
7.04684e-09
6.86527e-09
7.04961e-09
6.8579e-09
7.03258e-09
6.8859e-09
7.0309e-09
6.88046e-09
7.07776e-09
6.88031e-09
7.05686e-09
6.88308e-09
7.05257e-09
6.89975e-09
7.06961e-09
6.88171e-09
7.0851e-09
6.91339e-09
7.06675e-09
6.8703e-09
7.05002e-09
6.90116e-09
7.08025e-09
6.91487e-09
7.08479e-09
6.90096e-09
7.07697e-09
6.90906e-09
7.09665e-09
6.9067e-09
7.06679e-09
6.88687e-09
7.08084e-09
6.92075e-09
7.08251e-09
6.90987e-09
7.09849e-09
6.90652e-09
7.06605e-09
6.88969e-09
7.06848e-09
6.92274e-09
7.08122e-09
6.87495e-09
7.07033e-09
6.89524e-09
7.05483e-09
6.86146e-09
7.06122e-09
6.86551e-09
7.03536e-09
6.87375e-09
7.06039e-09
6.86072e-09
7.05772e-09
6.89108e-09
7.08484e-09
6.89959e-09
7.07172e-09
6.89221e-09
7.0751e-09
6.89574e-09
7.06266e-09
6.85068e-09
7.04963e-09
6.83565e-09
7.00823e-09
6.84442e-09
7.02323e-09
6.83931e-09
7.05352e-09
6.89009e-09
7.05276e-09
6.84588e-09
7.03028e-09
6.86976e-09
7.06907e-09
6.89622e-09
7.06381e-09
6.88752e-09
7.05494e-09
6.88728e-09
7.04241e-09
6.87937e-09
7.06905e-09
6.8775e-09
7.07401e-09
6.88168e-09
7.03631e-09
6.8654e-09
7.04152e-09
6.86654e-09
7.03945e-09
6.85275e-09
7.04951e-09
6.89656e-09
7.07606e-09
6.87805e-09
7.08525e-09
6.90372e-09
7.07663e-09
6.92961e-09
7.08219e-09
6.90325e-09
7.10074e-09
6.89251e-09
7.07863e-09
6.89473e-09
7.03739e-09
6.83001e-09
7.00745e-09
6.86279e-09
7.04877e-09
6.84224e-09
7.02663e-09
6.85006e-09
7.02685e-09
6.84167e-09
7.01946e-09
6.83888e-09
7.02354e-09
6.87261e-09
7.07144e-09
6.91046e-09
7.0782e-09
6.89508e-09
7.06896e-09
6.87322e-09
7.05012e-09
6.87895e-09
7.05592e-09
6.8759e-09
7.03674e-09
6.83772e-09
7.04069e-09
6.85502e-09
7.02826e-09
6.82542e-09
7.02465e-09
6.86747e-09
7.02604e-09
6.87402e-09
7.08806e-09
6.90379e-09
7.09077e-09
6.89841e-09
7.05996e-09
6.90889e-09
7.09347e-09
6.88911e-09
7.08396e-09
6.91859e-09
7.08604e-09
6.87264e-09
7.05638e-09
6.88136e-09
7.05993e-09
6.90293e-09
7.06437e-09
6.87969e-09
7.07074e-09
6.89695e-09
7.08008e-09
6.90813e-09
7.07668e-09
6.8831e-09
7.07032e-09
6.90312e-09
7.05687e-09
6.89425e-09
7.0986e-09
6.91737e-09
7.08592e-09
6.88977e-09
7.04372e-09
6.89541e-09
7.06578e-09
6.88517e-09
7.07881e-09
6.90567e-09
7.07136e-09
6.8823e-09
7.04932e-09
6.86892e-09
7.0251e-09
6.88142e-09
7.07265e-09
6.86079e-09
7.05151e-09
6.89413e-09
7.08876e-09
6.91057e-09
7.08159e-09
6.89101e-09
7.06937e-09
6.89826e-09
7.06853e-09
6.87506e-09
7.05723e-09
6.86576e-09
7.03021e-09
6.85405e-09
7.03493e-09
6.86098e-09
7.05391e-09
6.90108e-09
7.07872e-09
6.86628e-09
7.03303e-09
6.84337e-09
7.05077e-09
6.8888e-09
7.08402e-09
6.88927e-09
7.0814e-09
6.89141e-09
7.01545e-09
6.84282e-09
7.05579e-09
6.88614e-09
7.10076e-09
6.91076e-09
7.07293e-09
6.87954e-09
7.04177e-09
6.87639e-09
7.03554e-09
6.8459e-09
7.05731e-09
6.88578e-09
7.06115e-09
6.88546e-09
7.05564e-09
6.87404e-09
7.06369e-09
6.91746e-09
7.06205e-09
6.88903e-09
7.0645e-09
6.89018e-09
7.05171e-09
6.87626e-09
7.0556e-09
6.84121e-09
6.99093e-09
6.83772e-09
7.02049e-09
6.85231e-09
7.03273e-09
6.85966e-09
7.04546e-09
6.86384e-09
7.03018e-09
6.86076e-09
7.07046e-09
6.88809e-09
7.08024e-09
6.90398e-09
7.07608e-09
6.87975e-09
7.0771e-09
6.8777e-09
7.04382e-09
6.86431e-09
7.03886e-09
6.87641e-09
7.03709e-09
6.85111e-09
7.05965e-09
6.88105e-09
7.05144e-09
6.8521e-09
7.02971e-09
6.87411e-09
7.05236e-09
6.88187e-09
7.09544e-09
6.89966e-09
7.08794e-09
6.90169e-09
7.07446e-09
6.9083e-09
7.09457e-09
6.90583e-09
7.10035e-09
6.92693e-09
7.09689e-09
6.89707e-09
7.11248e-09
6.8971e-09
7.07893e-09
6.93721e-09
7.10728e-09
6.89341e-09
7.09891e-09
6.89901e-09
7.05356e-09
6.89874e-09
7.07325e-09
6.883e-09
7.07342e-09
6.89168e-09
7.03933e-09
6.8748e-09
7.06478e-09
6.89695e-09
7.08576e-09
6.89451e-09
7.05805e-09
6.86936e-09
7.0486e-09
6.86758e-09
7.05428e-09
6.87473e-09
7.06398e-09
6.87277e-09
7.06324e-09
6.8651e-09
7.02786e-09
6.88693e-09
7.07254e-09
6.85738e-09
7.05432e-09
6.88827e-09
7.05747e-09
6.89441e-09
7.08858e-09
6.89481e-09
7.07425e-09
6.88223e-09
7.05536e-09
6.8755e-09
7.07392e-09
6.89188e-09
7.05838e-09
6.86831e-09
7.0577e-09
6.88107e-09
7.05964e-09
6.90615e-09
7.07519e-09
6.90921e-09
7.07312e-09
6.85409e-09
7.06355e-09
6.89943e-09
7.07578e-09
6.9114e-09
7.10276e-09
6.89871e-09
7.07259e-09
6.8663e-09
7.08393e-09
6.88843e-09
7.1087e-09
6.93869e-09
7.12435e-09
6.91574e-09
7.07706e-09
6.88721e-09
7.05574e-09
6.85431e-09
7.06055e-09
6.87222e-09
7.05794e-09
6.87046e-09
7.04116e-09
6.86171e-09
7.04832e-09
6.87797e-09
7.06209e-09
6.85954e-09
7.0514e-09
6.865e-09
7.00455e-09
6.81968e-09
7.02012e-09
6.84253e-09
7.03616e-09
6.84382e-09
7.0347e-09
6.86067e-09
7.0387e-09
6.8506e-09
7.03959e-09
6.85961e-09
7.02515e-09
6.90187e-09
7.10373e-09
6.92965e-09
7.10029e-09
6.91891e-09
7.08299e-09
6.89992e-09
7.08912e-09
6.90309e-09
7.07556e-09
6.88485e-09
7.04822e-09
6.87475e-09
7.03385e-09
6.84987e-09
7.03117e-09
6.87668e-09
7.04949e-09
6.86853e-09
7.02249e-09
6.87713e-09
7.04273e-09
6.89723e-09
7.09834e-09
6.89937e-09
7.06059e-09
6.89164e-09
7.08485e-09
6.90822e-09
7.07889e-09
6.9087e-09
7.10653e-09
6.9445e-09
7.0841e-09
6.9165e-09
7.10934e-09
6.9069e-09
7.10779e-09
6.96312e-09
7.12944e-09
6.92886e-09
7.14924e-09
6.93093e-09
7.08553e-09
6.91104e-09
7.0852e-09
6.88944e-09
7.08052e-09
6.89925e-09
7.05641e-09
6.88204e-09
7.04878e-09
6.8722e-09
7.06323e-09
6.9198e-09
7.07402e-09
6.88389e-09
7.03722e-09
6.86878e-09
7.05434e-09
6.88462e-09
7.04484e-09
6.87336e-09
7.06713e-09
6.87101e-09
7.03623e-09
6.89739e-09
7.0605e-09
6.87962e-09
7.09143e-09
6.90344e-09
7.03817e-09
6.87759e-09
7.06613e-09
6.90753e-09
7.08678e-09
6.90072e-09
7.04958e-09
6.88001e-09
7.07141e-09
6.89216e-09
7.06609e-09
6.87522e-09
7.06654e-09
6.8777e-09
7.06375e-09
6.88213e-09
7.05991e-09
6.91233e-09
7.05744e-09
6.86082e-09
7.0995e-09
6.91382e-09
7.09208e-09
6.94515e-09
7.07455e-09
6.91088e-09
7.10967e-09
6.92147e-09
7.1422e-09
6.94395e-09
7.12968e-09
6.95619e-09
7.14677e-09
6.97493e-09
7.12794e-09
6.93127e-09
7.10435e-09
6.92442e-09
7.1208e-09
6.94206e-09
7.11995e-09
6.90616e-09
7.10059e-09
6.91004e-09
7.09416e-09
6.91099e-09
7.08185e-09
6.90507e-09
7.10219e-09
6.91701e-09
7.0833e-09
6.86341e-09
7.0471e-09
6.87504e-09
7.06145e-09
6.87966e-09
7.05985e-09
6.87661e-09
7.07382e-09
6.87227e-09
7.06598e-09
6.87252e-09
7.03056e-09
6.90209e-09
7.08015e-09
6.91867e-09
7.10018e-09
6.91178e-09
7.07924e-09
6.89142e-09
7.06963e-09
6.88685e-09
7.06228e-09
6.8877e-09
7.03975e-09
6.85397e-09
7.03472e-09
6.83646e-09
7.03379e-09
6.85596e-09
7.03049e-09
6.86128e-09
7.02653e-09
6.85744e-09
7.02125e-09
6.86264e-09
7.07296e-09
6.89561e-09
7.0363e-09
6.86817e-09
7.06589e-09
6.89592e-09
7.06912e-09
6.90748e-09
7.09033e-09
6.92788e-09
7.09032e-09
6.91036e-09
7.08497e-09
6.90559e-09
7.09601e-09
6.94406e-09
7.09727e-09
6.91668e-09
7.08551e-09
6.91522e-09
7.06614e-09
6.90519e-09
7.06884e-09
6.87229e-09
7.03727e-09
6.87071e-09
7.03877e-09
6.8653e-09
7.05204e-09
6.84951e-09
7.04176e-09
6.88459e-09
7.06191e-09
6.87126e-09
7.01789e-09
6.84185e-09
7.04058e-09
6.85635e-09
7.02137e-09
6.85265e-09
7.03984e-09
6.86344e-09
7.03794e-09
6.87359e-09
7.02258e-09
6.87291e-09
7.07327e-09
6.89698e-09
7.03931e-09
6.85028e-09
7.03482e-09
6.87036e-09
7.05145e-09
6.89006e-09
7.02937e-09
6.86676e-09
7.03831e-09
6.86871e-09
7.05313e-09
6.87694e-09
7.05275e-09
6.88559e-09
7.05375e-09
6.87724e-09
7.06325e-09
6.92312e-09
7.02801e-09
6.87698e-09
7.07874e-09
6.90208e-09
7.05755e-09
6.94457e-09
7.01062e-09
6.91967e-09
7.04336e-09
6.92621e-09
7.1327e-09
6.85958e-09
7.04685e-09
6.91404e-09
7.05326e-09
6.92008e-09
7.06451e-09
6.89488e-09
7.03733e-09
6.89334e-09
7.05731e-09
6.91473e-09
7.0826e-09
6.90449e-09
7.07924e-09
6.91027e-09
7.0933e-09
6.91115e-09
7.06021e-09
6.90967e-09
7.06799e-09
6.90611e-09
7.08854e-09
6.88338e-09
7.05648e-09
6.87357e-09
7.03215e-09
6.86496e-09
7.02852e-09
6.86772e-09
7.05315e-09
6.88189e-09
7.07565e-09
6.88499e-09
7.02753e-09
6.91216e-09
7.09357e-09
6.92082e-09
7.11528e-09
6.92767e-09
7.11825e-09
6.91946e-09
7.08623e-09
6.8888e-09
7.06136e-09
6.90142e-09
7.06254e-09
6.88608e-09
7.06337e-09
6.87873e-09
7.06973e-09
6.87341e-09
7.03918e-09
6.8557e-09
7.04817e-09
6.87975e-09
7.02964e-09
6.83366e-09
7.04745e-09
6.88525e-09
7.03238e-09
6.85034e-09
7.03365e-09
6.87323e-09
7.06822e-09
6.91311e-09
7.07231e-09
6.91309e-09
7.10006e-09
6.91165e-09
7.07276e-09
6.88313e-09
7.05255e-09
6.888e-09
7.09075e-09
6.88466e-09
7.05293e-09
6.86701e-09
7.0483e-09
6.88736e-09
7.07821e-09
6.86739e-09
7.04234e-09
6.86881e-09
7.04104e-09
6.86506e-09
7.07352e-09
6.87857e-09
7.06545e-09
6.8747e-09
7.05605e-09
6.88942e-09
7.0499e-09
6.86978e-09
7.05525e-09
6.87862e-09
7.05893e-09
6.88034e-09
7.05696e-09
6.89627e-09
7.06687e-09
6.86963e-09
7.01941e-09
6.85194e-09
7.02714e-09
6.86417e-09
7.0126e-09
6.82468e-09
7.01118e-09
6.82735e-09
7.00312e-09
6.84103e-09
7.00716e-09
6.83908e-09
7.01988e-09
6.85058e-09
7.03889e-09
6.85021e-09
7.02543e-09
6.85346e-09
7.03602e-09
6.84945e-09
7.05995e-09
6.902e-09
7.04138e-09
6.88466e-09
7.07292e-09
6.85513e-09
7.04376e-09
6.87131e-09
7.01803e-09
6.85812e-09
7.00998e-09
6.93213e-09
7.04177e-09
6.75208e-09
6.98228e-09
6.82777e-09
6.98419e-09
6.82185e-09
7.00752e-09
6.83095e-09
7.01332e-09
6.84592e-09
7.01528e-09
6.84054e-09
7.0195e-09
6.87675e-09
7.05778e-09
6.88205e-09
7.07865e-09
6.8797e-09
7.06379e-09
6.9007e-09
7.02928e-09
6.86125e-09
7.05875e-09
6.89059e-09
7.0713e-09
6.87325e-09
7.06068e-09
6.886e-09
7.04357e-09
6.87399e-09
7.0501e-09
6.88561e-09
7.06959e-09
6.87074e-09
7.0166e-09
6.92206e-09
7.08843e-09
6.92819e-09
7.09447e-09
6.92168e-09
7.0964e-09
6.91865e-09
7.06954e-09
6.8785e-09
7.05195e-09
6.88168e-09
7.04329e-09
6.87241e-09
7.04698e-09
6.87516e-09
7.03664e-09
6.84509e-09
7.01168e-09
6.83434e-09
7.02456e-09
6.88874e-09
7.05211e-09
6.85035e-09
7.0512e-09
6.87872e-09
7.06499e-09
6.85565e-09
7.04995e-09
6.8417e-09
7.06088e-09
6.903e-09
7.06761e-09
6.88588e-09
7.08347e-09
6.92579e-09
7.11395e-09
6.90814e-09
7.0686e-09
6.88328e-09
7.09324e-09
6.90581e-09
7.10222e-09
6.89447e-09
7.06786e-09
6.90973e-09
7.08242e-09
6.89432e-09
7.06927e-09
6.89108e-09
7.06171e-09
6.87424e-09
7.07616e-09
6.90064e-09
7.0983e-09
6.88437e-09
7.05877e-09
6.88383e-09
7.06882e-09
6.87766e-09
7.06062e-09
6.86134e-09
7.05065e-09
6.866e-09
7.0586e-09
6.88378e-09
7.05964e-09
6.86227e-09
7.02187e-09
6.84834e-09
7.02007e-09
6.84915e-09
7.01141e-09
6.83187e-09
7.01955e-09
6.83647e-09
7.01615e-09
6.83877e-09
7.00723e-09
6.847e-09
7.01809e-09
6.85682e-09
7.04577e-09
6.8562e-09
7.03968e-09
6.85947e-09
7.04146e-09
6.84705e-09
7.03787e-09
6.88062e-09
7.05191e-09
6.91152e-09
7.07074e-09
6.84058e-09
7.0361e-09
6.84433e-09
7.04644e-09
6.82609e-09
7.03997e-09
6.92185e-09
7.02592e-09
6.77886e-09
7.01186e-09
6.83972e-09
7.02324e-09
6.85433e-09
7.04305e-09
6.86361e-09
7.04532e-09
6.87505e-09
7.06895e-09
6.84902e-09
7.01727e-09
6.86136e-09
7.02954e-09
6.87159e-09
7.03634e-09
6.85123e-09
7.05481e-09
6.88625e-09
7.04108e-09
6.86261e-09
7.05979e-09
6.89967e-09
7.06058e-09
6.87122e-09
7.08015e-09
6.90008e-09
7.07345e-09
6.88965e-09
7.07435e-09
6.88447e-09
7.0611e-09
6.85861e-09
7.04836e-09
6.88899e-09
7.03955e-09
6.89215e-09
7.06209e-09
6.88556e-09
7.05998e-09
6.89554e-09
7.04388e-09
6.85566e-09
7.02333e-09
6.8477e-09
6.99151e-09
6.82397e-09
7.02171e-09
6.86515e-09
7.02635e-09
6.81772e-09