/*--------------------------------*- C++ -*----------------------------------*\
| =========                 |                                                 |
| \\      /  F ield         | OpenFOAM: The Open Source CFD Toolbox           |
|  \\    /   O peration     | Version:  2206                                  |
|   \\  /    A nd           | Website:  www.openfoam.com                      |
|    \\/     M anipulation  |                                                 |
\*---------------------------------------------------------------------------*/
FoamFile
{
    version     2.0;
    format      ascii;
    arch        "LSB;label=32;scalar=64";
    class       volScalarField;
    location    "0.9";
    object      nut;
}
// * * * * * * * * * * * * * * * * * * * * * * * * * * * * * * * * * * * * * //

dimensions      [0 2 -1 0 0 0 0];

internalField   nonuniform List<scalar> 
183793
(
5.0195e-16
4.89669e-16
4.88422e-16
4.79516e-16
4.91902e-16
4.88084e-16
4.78669e-16
4.79997e-16
4.79731e-16
4.90396e-16
4.7629e-16
4.79336e-16
5.03074e-16
4.77461e-16
4.9277e-16
4.76718e-16
4.74496e-16
4.79616e-16
4.91112e-16
4.79774e-16
4.76763e-16
4.88871e-16
4.90261e-16
5.02843e-16
4.90022e-16
4.90803e-16
4.92191e-16
4.89364e-16
4.77827e-16
4.91274e-16
4.86409e-16
4.78027e-16
4.97828e-16
4.89758e-16
4.91056e-16
4.85565e-16
5.04364e-16
4.86759e-16
4.9164e-16
5.03398e-16
4.77284e-16
4.90509e-16
5.02957e-16
5.03058e-16
4.91447e-16
4.8997e-16
4.89159e-16
4.77693e-16
4.93005e-16
4.89966e-16
4.95418e-16
5.03805e-16
5.01766e-16
4.79123e-16
4.82951e-16
4.93447e-16
4.90896e-16
4.8833e-16
4.88521e-16
5.0281e-16
4.90403e-16
5.04888e-16
5.00186e-16
4.77755e-16
4.72487e-16
4.87469e-16
5.02389e-16
4.82336e-16
5.00595e-16
5.06249e-16
4.83483e-16
4.7726e-16
4.96951e-16
4.96425e-16
4.82644e-16
4.83069e-16
4.89419e-16
4.8813e-16
4.96194e-16
4.95667e-16
4.89981e-16
4.89775e-16
4.76883e-16
4.86598e-16
5.04482e-16
4.85782e-16
4.94613e-16
5.0167e-16
4.95873e-16
4.81553e-16
4.95765e-16
4.80684e-16
4.94184e-16
5.08311e-16
4.91827e-16
4.95694e-16
4.93485e-16
4.8543e-16
4.83448e-16
4.82209e-16
4.84693e-16
4.81921e-16
4.86941e-16
4.96181e-16
4.8172e-16
4.94572e-16
4.93504e-16
5.02665e-16
4.87594e-16
5.01393e-16
4.91065e-16
4.74393e-16
4.87402e-16
4.83408e-16
4.94551e-16
4.89569e-16
5.0133e-16
4.97069e-16
4.96199e-16
4.81505e-16
4.96257e-16
4.88871e-16
4.83733e-16
5.04476e-16
4.88142e-16
4.86621e-16
5.0255e-16
4.81751e-16
4.90317e-16
4.95105e-16
5.04955e-16
5.02436e-16
4.96921e-16
4.97101e-16
4.84829e-16
4.94722e-16
4.82314e-16
4.84836e-16
5.02762e-16
4.98725e-16
4.99128e-16
4.85757e-16
4.98809e-16
4.77187e-16
4.78196e-16
4.95345e-16
4.85038e-16
5.04856e-16
5.00141e-16
4.85476e-16
4.73239e-16
4.75103e-16
4.9781e-16
4.85433e-16
4.85142e-16
4.87953e-16
4.99278e-16
4.93348e-16
4.83735e-16
4.82327e-16
4.99747e-16
4.79606e-16
4.95121e-16
4.77896e-16
5.02816e-16
4.87642e-16
4.82477e-16
4.92584e-16
4.82838e-16
4.83755e-16
4.83358e-16
4.92594e-16
4.84306e-16
5.02102e-16
4.82415e-16
4.84103e-16
4.78596e-16
4.99873e-16
4.99315e-16
4.93739e-16
4.95033e-16
4.93958e-16
4.87993e-16
4.9968e-16
4.87099e-16
4.83304e-16
4.79699e-16
5.02336e-16
4.98658e-16
4.97763e-16
4.80261e-16
4.87854e-16
5.0095e-16
4.85786e-16
4.9832e-16
4.87291e-16
5.02314e-16
5.03246e-16
4.81686e-16
4.87731e-16
4.85062e-16
5.01835e-16
4.88997e-16
4.80709e-16
4.91407e-16
4.88144e-16
4.88908e-16
4.8738e-16
5.01624e-16
5.02053e-16
5.02366e-16
4.89808e-16
4.8229e-16
5.00107e-16
5.01163e-16
5.01289e-16
4.8678e-16
5.03722e-16
4.88362e-16
4.97426e-16
5.02961e-16
4.87487e-16
4.90269e-16
5.03663e-16
5.02422e-16
5.02197e-16
4.89266e-16
5.01675e-16
5.01381e-16
5.06718e-16
4.80554e-16
4.7606e-16
4.88811e-16
4.89483e-16
5.00034e-16
5.02243e-16
5.01815e-16
4.98593e-16
4.86065e-16
4.86766e-16
4.91338e-16
4.82382e-16
4.90186e-16
4.86896e-16
5.04121e-16
4.8408e-16
4.99147e-16
4.83786e-16
4.78952e-16
4.91768e-16
4.86749e-16
4.9933e-16
4.91078e-16
4.77702e-16
5.01543e-16
4.77994e-16
4.9168e-16
4.92713e-16
4.92125e-16
4.77461e-16
4.95573e-16
4.8367e-16
4.99638e-16
4.92872e-16
4.8327e-16
5.00242e-16
4.95879e-16
4.86378e-16
5.0244e-16
5.00527e-16
4.79495e-16
4.94742e-16
4.86947e-16
4.86303e-16
4.95498e-16
4.8319e-16
5.01655e-16
4.90203e-16
4.88128e-16
4.95523e-16
5.01108e-16
4.8215e-16
5.02986e-16
4.80925e-16
4.82212e-16
4.89628e-16
4.82878e-16
4.95924e-16
5.04371e-16
4.81421e-16
4.76873e-16
4.88749e-16
4.87425e-16
4.96181e-16
4.99948e-16
4.91905e-16
4.95162e-16
4.87725e-16
4.95932e-16
4.88083e-16
5.02332e-16
4.76187e-16
4.92831e-16
5.03278e-16
4.96411e-16
4.94731e-16
4.78986e-16
4.83877e-16
4.86463e-16
4.81844e-16
5.00666e-16
4.86547e-16
4.86882e-16
5.04154e-16
5.02663e-16
4.90036e-16
4.84129e-16
4.82404e-16
4.82535e-16
4.87545e-16
4.81548e-16
4.81722e-16
4.96469e-16
4.93812e-16
4.97312e-16
4.95303e-16
4.84059e-16
4.86478e-16
4.96893e-16
4.94594e-16
4.81378e-16
4.98879e-16
4.83674e-16
4.88174e-16
4.93473e-16
5.04809e-16
4.89412e-16
4.99856e-16
4.88032e-16
4.91181e-16
4.83416e-16
4.84425e-16
4.82745e-16
4.78741e-16
4.8689e-16
5.03767e-16
4.86943e-16
5.01495e-16
4.99987e-16
5.04209e-16
4.94372e-16
5.00229e-16
4.7972e-16
4.94797e-16
4.8606e-16
4.89338e-16
4.89362e-16
5.04138e-16
5.03955e-16
5.02313e-16
4.99944e-16
5.00146e-16
4.83067e-16
4.88265e-16
5.04349e-16
5.05093e-16
4.96969e-16
4.8438e-16
4.87966e-16
4.77071e-16
5.05199e-16
4.94421e-16
4.80335e-16
4.94503e-16
4.92633e-16
4.78188e-16
4.85102e-16
4.89317e-16
4.72898e-16
4.92043e-16
5.03446e-16
5.03125e-16
4.83945e-16
5.07231e-16
4.88399e-16
4.83497e-16
4.85158e-16
5.03012e-16
4.9592e-16
4.85227e-16
5.04006e-16
4.87811e-16
4.91855e-16
4.98619e-16
4.97084e-16
4.85408e-16
5.03875e-16
4.8647e-16
4.78952e-16
4.93118e-16
4.8182e-16
4.89302e-16
4.86354e-16
4.97512e-16
4.89557e-16
4.85042e-16
4.81889e-16
4.85292e-16
5.0007e-16
4.82002e-16
4.82637e-16
5.00864e-16
4.79088e-16
4.84804e-16
4.86477e-16
5.04807e-16
4.89045e-16
5.0275e-16
4.82673e-16
4.8941e-16
4.85128e-16
4.9013e-16
4.94675e-16
4.95789e-16
5.06621e-16
4.9846e-16
4.86819e-16
4.94503e-16
4.85095e-16
5.06138e-16
4.77065e-16
4.94119e-16
4.84768e-16
4.94316e-16
4.92799e-16
4.8013e-16
4.89917e-16
4.86631e-16
4.91391e-16
5.03703e-16
4.98364e-16
4.87146e-16
4.94593e-16
5.06419e-16
4.88677e-16
4.89545e-16
4.85446e-16
4.86043e-16
5.0218e-16
4.74917e-16
4.89365e-16
4.86556e-16
5.03767e-16
5.03407e-16
4.76817e-16
4.88282e-16
4.77094e-16
4.94148e-16
4.86626e-16
4.9461e-16
4.8129e-16
4.81542e-16
4.88251e-16
5.06953e-16
4.87993e-16
4.94853e-16
5.02428e-16
4.82883e-16
4.87008e-16
5.04213e-16
5.03307e-16
4.93936e-16
5.00162e-16
5.00448e-16
4.95108e-16
4.89562e-16
4.8131e-16
4.99502e-16
4.77736e-16
4.92635e-16
5.03589e-16
4.87036e-16
5.0416e-16
5.00608e-16
4.85706e-16
4.90684e-16
4.94758e-16
5.02172e-16
5.0398e-16
4.83258e-16
5.0445e-16
4.75119e-16
5.01402e-16
4.77377e-16
4.83015e-16
4.81104e-16
4.9441e-16
4.94591e-16
4.941e-16
4.83987e-16
4.90771e-16
4.90133e-16
4.90663e-16
5.00483e-16
4.82845e-16
5.02054e-16
4.84513e-16
4.84943e-16
4.83593e-16
4.75697e-16
4.98096e-16
4.89434e-16
4.82103e-16
4.79416e-16
4.91898e-16
4.93966e-16
4.8463e-16
4.82721e-16
4.87947e-16
4.92408e-16
4.80967e-16
5.02846e-16
4.9221e-16
4.77801e-16
4.79177e-16
4.77646e-16
4.89229e-16
4.86556e-16
4.86144e-16
4.82618e-16
4.97404e-16
4.81762e-16
4.85475e-16
4.82467e-16
4.80683e-16
4.93868e-16
4.88807e-16
4.82913e-16
4.86144e-16
4.93966e-16
4.91383e-16
4.7929e-16
4.96153e-16
5.04411e-16
4.9207e-16
4.85504e-16
4.94372e-16
4.76405e-16
4.85849e-16
4.76838e-16
4.76124e-16
4.75229e-16
4.83606e-16
4.81998e-16
4.95495e-16
4.8921e-16
4.79205e-16
4.85715e-16
5.04278e-16
4.85243e-16
5.01142e-16
4.76631e-16
4.90272e-16
4.89737e-16
4.76634e-16
4.85025e-16
4.75677e-16
4.98929e-16
5.01607e-16
4.89935e-16
4.75052e-16
4.84259e-16
4.94779e-16
4.99653e-16
4.99525e-16
4.84519e-16
4.9811e-16
4.98416e-16
4.85711e-16
4.98427e-16
4.86732e-16
5.00799e-16
4.87443e-16
4.99832e-16
4.89638e-16
4.92147e-16
4.89505e-16
4.90387e-16
5.02377e-16
4.90906e-16
5.02149e-16
4.87263e-16
4.98665e-16
4.88239e-16
4.99969e-16
4.88919e-16
5.02193e-16
4.89835e-16
4.99979e-16
4.90011e-16
5.02095e-16
4.88944e-16
4.98097e-16
4.85446e-16
4.98811e-16
4.88222e-16
4.99387e-16
4.86832e-16
5.00018e-16
4.90298e-16
5.00326e-16
4.86348e-16
4.98428e-16
4.86001e-16
4.97771e-16
4.8639e-16
5.00023e-16
4.88263e-16
4.99011e-16
4.85663e-16
4.99516e-16
4.87079e-16
4.99314e-16
4.87967e-16
5.01312e-16
4.89284e-16
5.00406e-16
4.87762e-16
5.00503e-16
4.8841e-16
5.0213e-16
4.90654e-16
5.04332e-16
4.94233e-16
5.03045e-16
4.86263e-16
5.00216e-16
4.90032e-16
5.01044e-16
4.87178e-16
4.99461e-16
4.86897e-16
4.97855e-16
4.86138e-16
4.96612e-16
4.84472e-16
5.00584e-16
4.87145e-16
4.98552e-16
4.87681e-16
4.99714e-16
4.8788e-16
5.00226e-16
4.86244e-16
4.99823e-16
4.88969e-16
4.99336e-16
4.86775e-16
4.98388e-16
4.83782e-16
4.96989e-16
4.84619e-16
4.9681e-16
4.86256e-16
4.97117e-16
4.82976e-16
4.96234e-16
4.85526e-16
4.94817e-16
4.80642e-16
4.94871e-16
4.83458e-16
4.96666e-16
4.85351e-16
4.96322e-16
4.84004e-16
4.97627e-16
4.87694e-16
4.99774e-16
4.90901e-16
5.02699e-16
4.89774e-16
5.02387e-16
4.89445e-16
5.02819e-16
4.89535e-16
5.01688e-16
4.89337e-16
5.01324e-16
4.87929e-16
5.00272e-16
4.86624e-16
4.97711e-16
4.85327e-16
4.99292e-16
4.89063e-16
5.00373e-16
4.8897e-16
4.99911e-16
4.87841e-16
5.01457e-16
4.88947e-16
5.0068e-16
4.87917e-16
4.99692e-16
4.88305e-16
5.01543e-16
4.89013e-16
5.00108e-16
4.88137e-16
5.00564e-16
4.89797e-16
5.03648e-16
4.92675e-16
5.03613e-16
4.89922e-16
5.04643e-16
4.93092e-16
5.03976e-16
4.91617e-16
5.04639e-16
4.91725e-16
5.03656e-16
4.90379e-16
5.02324e-16
4.90678e-16
5.01223e-16
4.87959e-16
5.01131e-16
4.8812e-16
4.99772e-16
4.87303e-16
5.01186e-16
4.87495e-16
4.98497e-16
4.87589e-16
4.99551e-16
4.87686e-16
4.98585e-16
4.84198e-16
4.97032e-16
4.85993e-16
4.97606e-16
4.84595e-16
4.97061e-16
4.87373e-16
4.99036e-16
4.85194e-16
4.98472e-16
4.85149e-16
4.96263e-16
4.84579e-16
4.98056e-16
4.87325e-16
4.98568e-16
4.86266e-16
4.97659e-16
4.84101e-16
4.9746e-16
4.85444e-16
4.98356e-16
4.88139e-16
4.98089e-16
4.89154e-16
4.99627e-16
4.90197e-16
5.01418e-16
4.92161e-16
5.06893e-16
4.91875e-16
5.01269e-16
4.86778e-16
4.99486e-16
4.8753e-16
4.99511e-16
4.87442e-16
4.98258e-16
4.84074e-16
4.9897e-16
4.8662e-16
4.97417e-16
4.85476e-16
4.99902e-16
4.875e-16
5.00137e-16
4.87252e-16
4.99465e-16
4.87665e-16
5.00167e-16
4.8685e-16
5.01536e-16
4.8898e-16
4.99845e-16
4.87087e-16
4.99162e-16
4.84252e-16
4.97544e-16
4.84562e-16
4.9666e-16
4.84618e-16
4.96218e-16
4.8386e-16
4.96259e-16
4.86251e-16
4.94852e-16
4.84222e-16
4.9651e-16
4.86241e-16
5.01821e-16
4.84874e-16
4.97614e-16
4.84912e-16
4.9706e-16
4.86616e-16
4.97793e-16
4.90275e-16
5.02692e-16
4.89075e-16
5.00544e-16
4.88014e-16
5.01267e-16
4.89662e-16
5.01788e-16
4.89697e-16
5.01205e-16
4.87673e-16
4.99569e-16
4.86367e-16
4.97402e-16
4.8349e-16
4.97931e-16
4.86922e-16
4.97681e-16
4.86642e-16
4.97949e-16
4.86786e-16
4.99257e-16
4.87255e-16
4.9877e-16
4.85129e-16
4.96574e-16
4.85216e-16
4.96933e-16
4.85855e-16
4.96868e-16
4.86002e-16
4.98577e-16
4.87282e-16
4.99488e-16
4.8932e-16
5.01285e-16
4.88643e-16
5.02126e-16
4.90913e-16
5.02967e-16
4.90249e-16
5.02159e-16
4.90487e-16
5.02391e-16
4.88308e-16
5.01437e-16
4.8943e-16
4.99824e-16
4.86616e-16
5.01551e-16
4.88091e-16
5.02184e-16
4.8777e-16
5.0206e-16
4.88162e-16
5.00486e-16
4.88821e-16
5.01362e-16
4.88338e-16
5.01525e-16
4.86999e-16
5.00879e-16
4.87355e-16
4.99665e-16
4.85882e-16
4.97204e-16
4.85908e-16
4.97989e-16
4.85651e-16
4.99063e-16
4.85737e-16
4.97854e-16
4.84914e-16
4.9764e-16
4.85285e-16
4.98423e-16
4.8708e-16
4.97085e-16
4.84402e-16
4.97334e-16
4.83416e-16
4.98418e-16
4.86421e-16
4.97133e-16
4.84745e-16
4.98878e-16
4.86376e-16
4.98932e-16
4.91408e-16
5.00766e-16
4.85988e-16
4.97842e-16
4.85308e-16
4.97862e-16
4.84969e-16
4.97317e-16
4.86417e-16
4.97984e-16
4.83692e-16
4.9805e-16
4.86389e-16
4.98045e-16
4.85512e-16
4.98183e-16
4.86843e-16
4.99736e-16
4.86358e-16
5.00511e-16
4.87858e-16
4.99453e-16
4.86717e-16
5.0109e-16
4.87814e-16
4.99203e-16
4.86726e-16
4.99682e-16
4.85252e-16
4.99191e-16
4.87151e-16
5.00497e-16
4.85536e-16
4.97148e-16
4.83263e-16
4.98929e-16
4.85759e-16
4.96995e-16
4.83984e-16
4.96492e-16
4.87942e-16
5.00219e-16
4.82793e-16
4.96966e-16
4.85275e-16
4.99074e-16
4.86804e-16
4.9772e-16
4.8969e-16
5.02113e-16
4.89218e-16
5.01069e-16
4.87634e-16
5.00437e-16
4.88899e-16
5.01042e-16
4.89261e-16
5.00858e-16
4.87875e-16
4.98808e-16
4.85872e-16
4.9797e-16
4.8339e-16
4.97855e-16
4.85792e-16
4.95605e-16
4.82706e-16
4.9653e-16
4.85086e-16
4.98617e-16
4.86586e-16
4.99753e-16
4.85951e-16
4.98756e-16
4.85064e-16
4.96739e-16
4.84811e-16
4.96796e-16
4.84439e-16
4.98708e-16
4.86455e-16
4.9816e-16
4.85669e-16
4.98607e-16
4.87005e-16
4.99629e-16
4.88256e-16
5.01656e-16
4.89607e-16
5.0043e-16
4.8877e-16
5.00915e-16
4.88477e-16
5.00295e-16
4.90161e-16
5.00848e-16
4.87675e-16
5.0035e-16
4.88103e-16
5.01902e-16
4.88833e-16
5.01207e-16
4.87318e-16
5.00651e-16
4.90484e-16
5.02574e-16
4.89339e-16
5.0161e-16
4.8737e-16
5.00339e-16
4.8734e-16
4.99901e-16
4.86873e-16
4.98663e-16
4.8526e-16
4.97979e-16
4.84815e-16
4.96842e-16
4.855e-16
4.96787e-16
4.85117e-16
4.98057e-16
4.85901e-16
4.98591e-16
4.86962e-16
4.96923e-16
4.84037e-16
4.96263e-16
4.82831e-16
4.96535e-16
4.85507e-16
4.96837e-16
4.83913e-16
4.97503e-16
4.84465e-16
4.9908e-16
4.87597e-16
4.98982e-16
4.85517e-16
4.99411e-16
4.881e-16
5.00872e-16
4.86788e-16
4.98974e-16
4.86665e-16
4.99131e-16
4.86193e-16
4.99675e-16
4.87687e-16
4.99686e-16
4.86558e-16
4.97886e-16
4.85921e-16
4.98852e-16
4.85072e-16
5.00646e-16
4.88546e-16
4.99673e-16
4.87427e-16
5.01718e-16
4.90052e-16
5.02317e-16
4.90245e-16
5.01661e-16
4.87238e-16
5.01289e-16
4.90322e-16
5.02868e-16
4.89026e-16
4.98185e-16
4.84811e-16
4.9883e-16
4.86673e-16
4.98897e-16
4.8438e-16
4.96278e-16
4.86741e-16
4.98109e-16
4.83729e-16
4.95405e-16
4.85169e-16
4.99611e-16
4.88056e-16
4.99451e-16
4.87443e-16
4.99633e-16
4.88164e-16
4.99405e-16
4.85926e-16
4.99469e-16
4.87239e-16
4.99502e-16
4.87736e-16
4.99782e-16
4.86729e-16
4.97976e-16
4.84352e-16
4.97337e-16
4.83767e-16
4.97562e-16
4.84977e-16
4.9733e-16
4.83962e-16
4.98474e-16
4.85945e-16
4.99656e-16
4.86124e-16
4.98622e-16
4.87086e-16
5.00388e-16
4.86235e-16
4.99488e-16
4.86614e-16
4.98301e-16
4.84241e-16
4.9906e-16
4.87605e-16
5.00398e-16
4.87253e-16
5.00079e-16
4.88041e-16
5.00373e-16
4.87743e-16
5.00712e-16
4.8886e-16
5.00954e-16
4.87765e-16
5.00903e-16
4.86597e-16
4.99197e-16
4.88847e-16
5.00131e-16
4.87004e-16
5.00017e-16
4.86457e-16
4.99677e-16
4.88565e-16
4.99746e-16
4.85563e-16
5.00112e-16
4.89977e-16
5.01602e-16
4.90602e-16
5.03442e-16
4.89319e-16
5.0044e-16
4.88553e-16
4.99708e-16
4.88723e-16
4.99434e-16
4.85966e-16
5.00075e-16
4.84376e-16
4.96561e-16
4.84269e-16
4.95693e-16
4.82301e-16
4.96863e-16
4.84569e-16
4.96921e-16
4.84819e-16
4.95751e-16
4.83791e-16
4.97483e-16
4.84919e-16
4.96787e-16
4.85342e-16
4.97376e-16
4.85465e-16
4.98619e-16
4.86455e-16
5.01743e-16
4.86791e-16
4.98607e-16
4.85999e-16
4.99249e-16
4.8893e-16
5.01994e-16
4.88833e-16
5.01369e-16
4.86836e-16
4.99778e-16
4.8648e-16
4.99133e-16
4.87072e-16
4.9913e-16
4.86863e-16
4.97311e-16
4.84461e-16
4.96018e-16
4.83282e-16
4.97805e-16
4.85465e-16
4.98307e-16
4.852e-16
4.97859e-16
4.86795e-16
5.00976e-16
4.90593e-16
5.00003e-16
4.85986e-16
4.99153e-16
4.88329e-16
5.00432e-16
4.87996e-16
4.98915e-16
4.8537e-16
4.9767e-16
4.8621e-16
4.98853e-16
4.83945e-16
4.96333e-16
4.84069e-16
4.96113e-16
4.83549e-16
4.94255e-16
4.8266e-16
4.96451e-16
4.85629e-16
5.00207e-16
4.85644e-16
4.99006e-16
4.86737e-16
4.97359e-16
4.84172e-16
4.99289e-16
4.86996e-16
4.99586e-16
4.87253e-16
4.99881e-16
4.87077e-16
4.99258e-16
4.8577e-16
4.98802e-16
4.86077e-16
4.9822e-16
4.85105e-16
4.99171e-16
4.86001e-16
4.99492e-16
4.88094e-16
5.02771e-16
4.87958e-16
5.00104e-16
4.87984e-16
5.01493e-16
4.89298e-16
5.02583e-16
4.89733e-16
5.01847e-16
4.86243e-16
5.01106e-16
4.87623e-16
5.00163e-16
4.87849e-16
5.01923e-16
4.89296e-16
5.01975e-16
4.88458e-16
5.00813e-16
4.88057e-16
5.00156e-16
4.88705e-16
5.02056e-16
4.87157e-16
5.00964e-16
4.89517e-16
5.00543e-16
4.87715e-16
5.02357e-16
4.88454e-16
5.0182e-16
4.89684e-16
5.023e-16
4.87982e-16
5.02735e-16
4.90279e-16
5.00479e-16
4.88843e-16
5.03125e-16
4.88775e-16
5.00802e-16
4.86526e-16
4.9879e-16
4.87017e-16
4.96957e-16
4.8581e-16
5.0048e-16
4.86759e-16
4.98125e-16
4.85711e-16
4.97632e-16
4.83666e-16
4.96998e-16
4.84317e-16
4.96512e-16
4.84166e-16
4.95007e-16
4.8309e-16
4.96103e-16
4.84332e-16
4.96893e-16
4.84908e-16
4.96026e-16
4.84007e-16
4.96502e-16
4.85148e-16
4.99952e-16
4.86021e-16
4.98258e-16
4.85237e-16
4.97672e-16
4.86461e-16
5.00333e-16
4.89418e-16
5.02938e-16
4.88972e-16
5.0261e-16
4.88777e-16
5.00421e-16
4.87668e-16
5.01102e-16
4.89126e-16
5.01377e-16
4.87217e-16
4.98072e-16
4.84857e-16
4.97619e-16
4.8412e-16
4.98461e-16
4.85824e-16
4.96335e-16
4.82599e-16
4.98456e-16
4.88864e-16
5.00329e-16
4.85979e-16
4.99702e-16
4.87059e-16
4.99012e-16
4.85545e-16
4.9839e-16
4.86228e-16
4.97369e-16
4.85657e-16
4.98551e-16
4.85138e-16
4.96525e-16
4.82354e-16
4.94321e-16
4.8306e-16
4.94822e-16
4.82167e-16
4.94185e-16
4.86188e-16
4.83954e-16
4.97518e-16
4.86801e-16
4.99535e-16
4.85471e-16
5.00288e-16
4.88671e-16
4.99259e-16
4.87317e-16
5.00739e-16
4.88792e-16
5.00746e-16
4.88414e-16
4.99955e-16
4.87865e-16
4.99834e-16
4.86432e-16
4.99751e-16
4.87077e-16
4.98862e-16
4.88649e-16
5.01496e-16
4.88718e-16
5.01788e-16
4.88078e-16
5.00512e-16
4.89585e-16
5.01385e-16
4.90118e-16
5.01822e-16
4.88e-16
5.032e-16
4.89108e-16
4.99882e-16
4.87444e-16
5.01457e-16
4.90543e-16
5.03061e-16
4.89923e-16
5.02403e-16
4.89019e-16
5.00901e-16
4.89441e-16
5.02799e-16
4.88423e-16
5.00969e-16
4.8942e-16
5.00916e-16
4.88927e-16
5.01635e-16
4.88496e-16
5.00499e-16
4.87599e-16
5.00019e-16
4.87552e-16
5.02408e-16
4.90654e-16
5.00021e-16
4.86965e-16
5.00471e-16
4.88667e-16
5.00735e-16
4.86905e-16
5.01032e-16
4.8745e-16
4.98205e-16
4.86201e-16
5.00248e-16
4.87161e-16
4.99381e-16
4.86777e-16
4.9937e-16
4.85789e-16
4.98403e-16
4.84765e-16
4.97747e-16
4.84007e-16
4.95797e-16
4.81637e-16
4.94839e-16
4.82092e-16
4.94656e-16
4.83996e-16
4.948e-16
4.82618e-16
4.96841e-16
4.85541e-16
4.97926e-16
4.84887e-16
4.97936e-16
4.85562e-16
4.98535e-16
4.85362e-16
4.9857e-16
4.86779e-16
5.00354e-16
4.87561e-16
5.01159e-16
4.88747e-16
5.00478e-16
4.86464e-16
5.00241e-16
4.88349e-16
5.00646e-16
4.88556e-16
4.99586e-16
4.86134e-16
4.98431e-16
4.85526e-16
5.0027e-16
4.88762e-16
5.01003e-16
4.85208e-16
4.99838e-16
4.89457e-16
5.00951e-16
4.88869e-16
5.0223e-16
4.88394e-16
5.0224e-16
4.86513e-16
4.99955e-16
4.87056e-16
4.96584e-16
4.83669e-16
4.97696e-16
4.86509e-16
4.98816e-16
4.83696e-16
4.95978e-16
4.84229e-16
4.9664e-16
4.83469e-16
4.96602e-16
4.84073e-16
4.96234e-16
4.86595e-16
5.00064e-16
4.8698e-16
5.0034e-16
4.87882e-16
4.99072e-16
4.86242e-16
4.99518e-16
4.87603e-16
4.99849e-16
4.87234e-16
4.98324e-16
4.85848e-16
4.98652e-16
4.85804e-16
4.98849e-16
4.85282e-16
4.97643e-16
4.87264e-16
4.97524e-16
4.86879e-16
5.0084e-16
4.86868e-16
4.99361e-16
4.87064e-16
4.99058e-16
4.88244e-16
5.00264e-16
4.86967e-16
5.0136e-16
4.89209e-16
5.00061e-16
4.8616e-16
4.98878e-16
4.88344e-16
5.01017e-16
4.89314e-16
5.01338e-16
4.88329e-16
5.00784e-16
4.88903e-16
5.02177e-16
4.88736e-16
5.00064e-16
4.87332e-16
5.01059e-16
4.8973e-16
5.01177e-16
4.8896e-16
5.02307e-16
4.88723e-16
5.00012e-16
4.87532e-16
5.00184e-16
4.89871e-16
5.01086e-16
4.86489e-16
5.00315e-16
4.87925e-16
4.99218e-16
4.85535e-16
4.9967e-16
4.85821e-16
4.9784e-16
4.86404e-16
4.99611e-16
4.85482e-16
4.99423e-16
4.8763e-16
5.01341e-16
4.88233e-16
5.00413e-16
4.8771e-16
5.00652e-16
4.8796e-16
4.99772e-16
4.84772e-16
4.9885e-16
4.83708e-16
4.9592e-16
4.84329e-16
4.96982e-16
4.83967e-16
4.99125e-16
4.8756e-16
4.99072e-16
4.84432e-16
4.97481e-16
4.86122e-16
5.00226e-16
4.87994e-16
4.99853e-16
4.87378e-16
4.99226e-16
4.87362e-16
4.98339e-16
4.86802e-16
5.00224e-16
4.8667e-16
5.00575e-16
4.86966e-16
4.97908e-16
4.85813e-16
4.98276e-16
4.85894e-16
4.98129e-16
4.84918e-16
4.98841e-16
4.88018e-16
5.0072e-16
4.86708e-16
5.01371e-16
4.88525e-16
5.00761e-16
4.90357e-16
5.01154e-16
4.88491e-16
5.02466e-16
4.87731e-16
5.00902e-16
4.87889e-16
4.97984e-16
4.83309e-16
4.95865e-16
4.85628e-16
4.98789e-16
4.84174e-16
4.97223e-16
4.84728e-16
4.97238e-16
4.84134e-16
4.96715e-16
4.83937e-16
4.97004e-16
4.86324e-16
5.00393e-16
4.89002e-16
5.00871e-16
4.87913e-16
5.00218e-16
4.86367e-16
4.98885e-16
4.86772e-16
4.99295e-16
4.86557e-16
4.97938e-16
4.83855e-16
4.98217e-16
4.85079e-16
4.97338e-16
4.82984e-16
4.97082e-16
4.8596e-16
4.97181e-16
4.86423e-16
5.01569e-16
4.8853e-16
5.01761e-16
4.88149e-16
4.99581e-16
4.88891e-16
5.01952e-16
4.87491e-16
5.01279e-16
4.89577e-16
5.01427e-16
4.86325e-16
4.99327e-16
4.86943e-16
4.99579e-16
4.88469e-16
4.99893e-16
4.86824e-16
5.00344e-16
4.88046e-16
5.01004e-16
4.88837e-16
5.00764e-16
4.87066e-16
5.00314e-16
4.88483e-16
4.99362e-16
4.87855e-16
5.02315e-16
4.89491e-16
5.01418e-16
4.87538e-16
4.98431e-16
4.87937e-16
4.99993e-16
4.87213e-16
5.00915e-16
4.88663e-16
5.00388e-16
4.87009e-16
4.98828e-16
4.86063e-16
4.97114e-16
4.86947e-16
5.00479e-16
4.85487e-16
4.98983e-16
4.87846e-16
5.01619e-16
4.8901e-16
5.01112e-16
4.87625e-16
5.00247e-16
4.88138e-16
5.00187e-16
4.86497e-16
4.99388e-16
4.85839e-16
4.97476e-16
4.8501e-16
4.97809e-16
4.85501e-16
4.99153e-16
4.88338e-16
5.00909e-16
4.85875e-16
4.97675e-16
4.84255e-16
4.98931e-16
4.87469e-16
5.01284e-16
4.87502e-16
5.01098e-16
4.87654e-16
4.96432e-16
4.84216e-16
4.99286e-16
4.87281e-16
5.02468e-16
4.89023e-16
5.00499e-16
4.86814e-16
4.98294e-16
4.86591e-16
4.97853e-16
4.84434e-16
4.99393e-16
4.87255e-16
4.99665e-16
4.87233e-16
4.99275e-16
4.86425e-16
4.99845e-16
4.89497e-16
4.99729e-16
4.87485e-16
4.99902e-16
4.87567e-16
4.98997e-16
4.86582e-16
4.99272e-16
4.84102e-16
4.94696e-16
4.83855e-16
4.96788e-16
4.84887e-16
4.97654e-16
4.85407e-16
4.98555e-16
4.85703e-16
4.97474e-16
4.85485e-16
5.00324e-16
4.87419e-16
5.01016e-16
4.88543e-16
5.00722e-16
4.86829e-16
5.00794e-16
4.86684e-16
4.98439e-16
4.85737e-16
4.98088e-16
4.86593e-16
4.97963e-16
4.84802e-16
4.99559e-16
4.86921e-16
4.98978e-16
4.84872e-16
4.9744e-16
4.8643e-16
4.99044e-16
4.86979e-16
5.02092e-16
4.88238e-16
5.01561e-16
4.88382e-16
5.00607e-16
4.88849e-16
5.0203e-16
4.88674e-16
5.02439e-16
4.90168e-16
5.02194e-16
4.88055e-16
5.03297e-16
4.88056e-16
5.00923e-16
4.90895e-16
5.02929e-16
4.87795e-16
5.02337e-16
4.88192e-16
4.99128e-16
4.88173e-16
5.00522e-16
4.87059e-16
5.00533e-16
4.87673e-16
4.98121e-16
4.86479e-16
4.99922e-16
4.88046e-16
5.01406e-16
4.87873e-16
4.99446e-16
4.86094e-16
4.98777e-16
4.85967e-16
4.99179e-16
4.86474e-16
4.99866e-16
4.86335e-16
4.99813e-16
4.85792e-16
4.97309e-16
4.87337e-16
5.00471e-16
4.85246e-16
4.99182e-16
4.87432e-16
4.99405e-16
4.87866e-16
5.01606e-16
4.87895e-16
5.00592e-16
4.87004e-16
4.99255e-16
4.86528e-16
5.00569e-16
4.87687e-16
4.99469e-16
4.86019e-16
4.99421e-16
4.86922e-16
4.99558e-16
4.88697e-16
5.00659e-16
4.88914e-16
5.00512e-16
4.85013e-16
4.99835e-16
4.88221e-16
5.007e-16
4.89068e-16
5.0261e-16
4.88171e-16
5.00475e-16
4.85877e-16
5.01277e-16
4.87443e-16
5.0303e-16
4.91e-16
5.04137e-16
4.89375e-16
5.00791e-16
4.87357e-16
4.99282e-16
4.85029e-16
4.99622e-16
4.86296e-16
4.99438e-16
4.86172e-16
4.98251e-16
4.85552e-16
4.98758e-16
4.86703e-16
4.99731e-16
4.85399e-16
4.98975e-16
4.85785e-16
4.9566e-16
4.82578e-16
4.96762e-16
4.84195e-16
4.97897e-16
4.84286e-16
4.97794e-16
4.85479e-16
4.98077e-16
4.84766e-16
4.98139e-16
4.85404e-16
4.97118e-16
4.88394e-16
5.02679e-16
4.9036e-16
5.02435e-16
4.896e-16
5.01211e-16
4.88256e-16
5.01645e-16
4.88481e-16
5.00685e-16
4.8719e-16
4.9875e-16
4.86475e-16
4.97733e-16
4.84714e-16
4.97544e-16
4.86611e-16
4.9884e-16
4.86035e-16
4.9693e-16
4.86644e-16
4.98362e-16
4.88066e-16
5.02297e-16
4.88217e-16
4.99625e-16
4.8767e-16
5.01342e-16
4.88843e-16
5.00921e-16
4.88877e-16
5.02877e-16
4.9141e-16
5.01289e-16
4.89429e-16
5.03075e-16
4.8875e-16
5.02966e-16
4.92728e-16
5.04497e-16
4.90304e-16
5.05899e-16
4.90451e-16
5.0139e-16
4.89043e-16
5.01367e-16
4.87515e-16
5.01036e-16
4.88209e-16
4.9933e-16
4.86991e-16
4.9879e-16
4.86295e-16
4.99812e-16
4.89663e-16
5.00576e-16
4.87122e-16
4.97972e-16
4.86053e-16
4.99183e-16
4.87173e-16
4.98511e-16
4.86376e-16
5.00089e-16
4.86211e-16
4.97902e-16
4.88077e-16
4.99619e-16
4.8682e-16
5.01808e-16
4.88505e-16
4.98039e-16
4.86676e-16
5.00018e-16
4.88795e-16
5.01479e-16
4.88313e-16
4.98846e-16
4.86847e-16
5.00391e-16
4.87707e-16
5.00015e-16
4.86508e-16
5.00046e-16
4.86684e-16
4.9985e-16
4.86997e-16
4.99578e-16
4.89134e-16
4.99403e-16
4.85489e-16
5.02379e-16
4.8924e-16
5.01854e-16
4.91457e-16
5.00614e-16
4.89031e-16
5.03099e-16
4.89781e-16
5.05401e-16
4.91372e-16
5.04514e-16
4.92238e-16
5.05724e-16
4.93564e-16
5.04391e-16
4.90475e-16
5.02722e-16
4.8999e-16
5.03886e-16
4.91238e-16
5.03826e-16
4.88698e-16
5.02456e-16
4.88972e-16
5.02001e-16
4.8904e-16
5.0113e-16
4.88621e-16
5.02569e-16
4.89465e-16
5.01233e-16
4.85672e-16
4.98671e-16
4.86496e-16
4.99686e-16
4.86823e-16
4.99573e-16
4.86607e-16
5.00562e-16
4.863e-16
5.00007e-16
4.86317e-16
4.97501e-16
4.8841e-16
5.01009e-16
4.89583e-16
5.02427e-16
4.89095e-16
5.00946e-16
4.87655e-16
5.00265e-16
4.87332e-16
4.99745e-16
4.87392e-16
4.98151e-16
4.85005e-16
4.97795e-16
4.83766e-16
4.97729e-16
4.85145e-16
4.97496e-16
4.85522e-16
4.97215e-16
4.8525e-16
4.96842e-16
4.85618e-16
5.00501e-16
4.87951e-16
4.97907e-16
4.86009e-16
5e-16
4.87973e-16
5.00229e-16
4.88791e-16
5.0173e-16
4.90235e-16
5.01729e-16
4.88995e-16
5.01351e-16
4.88658e-16
5.02132e-16
4.9138e-16
5.02221e-16
4.89442e-16
5.01389e-16
4.89339e-16
5.00018e-16
4.88629e-16
5.00209e-16
4.86301e-16
4.97976e-16
4.86189e-16
4.98082e-16
4.85807e-16
4.9902e-16
4.84689e-16
4.98293e-16
4.87171e-16
4.99719e-16
4.86228e-16
4.96604e-16
4.84147e-16
4.9821e-16
4.85173e-16
4.9685e-16
4.84911e-16
4.98157e-16
4.85674e-16
4.98023e-16
4.86393e-16
4.96936e-16
4.86345e-16
5.00523e-16
4.88048e-16
4.9812e-16
4.84743e-16
4.97802e-16
4.86164e-16
4.98979e-16
4.87558e-16
4.97417e-16
4.85909e-16
4.98049e-16
4.86048e-16
4.99098e-16
4.8663e-16
4.99071e-16
4.87242e-16
4.99142e-16
4.86651e-16
4.99814e-16
4.89898e-16
4.9732e-16
4.86633e-16
5.0091e-16
4.88409e-16
4.99411e-16
4.91416e-16
4.9609e-16
4.89654e-16
4.98406e-16
4.90116e-16
5.04728e-16
4.85402e-16
4.98654e-16
4.89255e-16
4.99107e-16
4.89683e-16
4.99903e-16
4.879e-16
4.9798e-16
4.8779e-16
4.99393e-16
4.89304e-16
5.01183e-16
4.8858e-16
5.00946e-16
4.88989e-16
5.0194e-16
4.89051e-16
4.99598e-16
4.88946e-16
5.00149e-16
4.88694e-16
5.01604e-16
4.87086e-16
4.99335e-16
4.86391e-16
4.97613e-16
4.85782e-16
4.97356e-16
4.85977e-16
4.99099e-16
4.86981e-16
5.00691e-16
4.872e-16
4.97286e-16
4.89122e-16
5.01959e-16
4.89735e-16
5.03496e-16
4.9022e-16
5.03706e-16
4.89639e-16
5.0144e-16
4.8747e-16
4.9968e-16
4.88363e-16
4.99764e-16
4.87277e-16
4.99823e-16
4.86756e-16
5.00272e-16
4.8638e-16
4.9811e-16
4.85127e-16
4.98747e-16
4.86829e-16
4.97436e-16
4.83567e-16
4.98696e-16
4.87218e-16
4.97629e-16
4.84748e-16
4.97719e-16
4.86368e-16
5.00166e-16
4.8919e-16
5.00455e-16
4.89188e-16
5.02418e-16
4.89086e-16
5.00487e-16
4.87068e-16
4.99057e-16
4.87413e-16
5.0176e-16
4.87176e-16
4.99084e-16
4.85927e-16
4.98756e-16
4.87368e-16
5.00872e-16
4.85954e-16
4.98334e-16
4.86055e-16
4.98242e-16
4.85789e-16
5.0054e-16
4.86745e-16
4.99969e-16
4.86472e-16
4.99305e-16
4.87513e-16
4.98869e-16
4.86123e-16
4.99247e-16
4.86749e-16
4.99508e-16
4.86871e-16
4.99369e-16
4.87998e-16
5.0007e-16
4.86113e-16
4.96712e-16
4.84861e-16
4.97259e-16
4.85727e-16
4.9623e-16
4.82932e-16
4.96129e-16
4.83121e-16
4.95559e-16
4.84089e-16
4.95845e-16
4.83951e-16
4.96745e-16
4.84765e-16
4.9809e-16
4.84739e-16
4.97137e-16
4.84968e-16
4.97887e-16
4.84685e-16
4.9958e-16
4.88403e-16
4.98266e-16
4.87176e-16
5.00498e-16
4.85087e-16
4.98434e-16
4.86231e-16
4.96614e-16
4.85299e-16
4.96044e-16
4.90535e-16
4.98294e-16
4.77794e-16
4.94084e-16
4.8315e-16
4.94219e-16
4.82732e-16
4.9587e-16
4.83376e-16
4.9628e-16
4.84435e-16
4.96419e-16
4.84054e-16
4.96718e-16
4.86617e-16
4.99427e-16
4.86991e-16
5.00904e-16
4.86826e-16
4.99852e-16
4.88312e-16
4.9741e-16
4.8552e-16
4.99496e-16
4.87596e-16
5.00383e-16
4.86369e-16
4.99632e-16
4.87271e-16
4.98421e-16
4.86421e-16
4.98883e-16
4.87244e-16
5.00262e-16
4.86191e-16
4.96513e-16
4.89823e-16
5.01596e-16
4.90257e-16
5.02023e-16
4.89796e-16
5.0216e-16
4.89582e-16
5.00259e-16
4.8674e-16
4.99014e-16
4.86965e-16
4.98401e-16
4.86309e-16
4.98662e-16
4.86504e-16
4.97931e-16
4.84376e-16
4.96165e-16
4.83615e-16
4.97076e-16
4.87465e-16
4.99025e-16
4.84748e-16
4.98961e-16
4.86756e-16
4.99937e-16
4.85123e-16
4.98872e-16
4.84136e-16
4.99646e-16
4.88474e-16
5.00122e-16
4.87262e-16
5.01245e-16
4.90087e-16
5.03401e-16
4.88838e-16
5.00192e-16
4.87078e-16
5.01936e-16
4.88673e-16
5.02572e-16
4.8787e-16
5.0014e-16
4.8895e-16
5.0117e-16
4.8786e-16
5.00239e-16
4.87631e-16
4.99704e-16
4.86439e-16
5.00728e-16
4.88307e-16
5.02294e-16
4.87156e-16
4.99497e-16
4.87117e-16
5.00208e-16
4.86681e-16
4.99628e-16
4.85526e-16
4.98922e-16
4.85856e-16
4.99485e-16
4.87114e-16
4.99558e-16
4.85592e-16
4.96886e-16
4.84606e-16
4.96758e-16
4.84663e-16
4.96145e-16
4.83441e-16
4.96721e-16
4.83766e-16
4.96481e-16
4.83929e-16
4.9585e-16
4.84512e-16
4.96618e-16
4.85206e-16
4.98576e-16
4.85162e-16
4.98146e-16
4.85394e-16
4.98272e-16
4.84515e-16
4.98018e-16
4.86891e-16
4.99011e-16
4.89077e-16
5.00344e-16
4.84057e-16
4.97892e-16
4.84323e-16
4.98624e-16
4.83032e-16
4.98166e-16
4.89808e-16
4.97172e-16
4.7969e-16
4.96177e-16
4.83996e-16
4.96982e-16
4.8503e-16
4.98385e-16
4.85687e-16
4.98545e-16
4.86496e-16
5.00217e-16
4.84654e-16
4.9656e-16
4.85527e-16
4.97428e-16
4.86251e-16
4.9791e-16
4.8481e-16
4.99217e-16
4.87289e-16
4.98245e-16
4.85616e-16
4.99569e-16
4.88238e-16
4.99625e-16
4.86226e-16
5.0101e-16
4.88267e-16
5.00535e-16
4.8753e-16
5.00599e-16
4.87163e-16
4.99662e-16
4.85333e-16
4.9876e-16
4.87483e-16
4.98136e-16
4.87706e-16
4.99731e-16
4.8724e-16
4.99582e-16
4.87946e-16
4.98443e-16
4.85124e-16
4.96989e-16
4.84561e-16
4.94737e-16
4.82882e-16
4.96874e-16
4.85795e-16
4.97203e-16