/*--------------------------------*- C++ -*----------------------------------*\
| =========                 |                                                 |
| \\      /  F ield         | OpenFOAM: The Open Source CFD Toolbox           |
|  \\    /   O peration     | Version:  2206                                  |
|   \\  /    A nd           | Website:  www.openfoam.com                      |
|    \\/     M anipulation  |                                                 |
\*---------------------------------------------------------------------------*/
FoamFile
{
    version     2.0;
    format      ascii;
    arch        "LSB;label=32;scalar=64";
    class       volScalarField;
    location    "0.9";
    object      p;
}
// * * * * * * * * * * * * * * * * * * * * * * * * * * * * * * * * * * * * * //

dimensions      [0 2 -2 0 0 0 0];

internalField   nonuniform List<scalar> 
183793
(
0.0462615
0.0437722
0.0464427
0.0443695
0.04641
0.0461447
0.0446617
0.0449611
0.0426231
0.044194
0.0442244
0.0445112
0.0465578
0.0476256
0.0446301
0.0436578
0.0440813
0.0453976
0.0462639
0.0462892
0.0464375
0.0468818
0.0465579
0.0472925
0.0434796
0.0474462
0.0471494
0.0465895
0.046586
0.041561
0.0483495
0.0470312
0.0436176
0.0439175
0.0400852
0.0489513
0.0468495
0.0455412
0.0470029
0.0489236
0.0402583
0.0477487
0.0483239
0.0471452
0.040372
0.0402291
0.0487723
0.0404019
0.0405182
0.0481802
0.0447834
0.0403714
0.0392079
0.0405459
0.0446552
0.0406678
0.0467048
0.0453913
0.0392385
0.046998
0.0408177
0.045665
0.039359
0.0488027
0.0489579
0.0393944
0.0393652
0.0448072
0.047592
0.045364
0.0396838
0.040849
0.0446312
0.0397949
0.045838
0.0479194
0.045689
0.0458414
0.0480415
0.0399345
0.0399433
0.0489246
0.048352
0.0476236
0.0455125
0.0399689
0.0444811
0.0430393
0.0461137
0.045243
0.0402251
0.0477683
0.0477441
0.0424399
0.0444842
0.0453666
0.0417097
0.0483583
0.0443608
0.0433565
0.0477703
0.0480662
0.0415879
0.0434718
0.0401139
0.0405198
0.0429002
0.0399429
0.0403944
0.0396581
0.0399453
0.0485028
0.0409895
0.0424692
0.0411115
0.0440531
0.0395134
0.0441959
0.0450759
0.0408401
0.0449309
0.0484723
0.0474716
0.0418616
0.042765
0.0479157
0.0400855
0.0482132
0.0409683
0.048186
0.0412637
0.0428915
0.0405146
0.0406651
0.0406967
0.0483276
0.0430633
0.0482131
0.0474466
0.0483267
0.0408139
0.0408468
0.0409628
0.0468868
0.0409971
0.0420099
0.0409952
0.0427387
0.0411118
0.0473206
0.0491049
0.0486535
0.0396533
0.0411436
0.0429196
0.041293
0.0414075
0.0403766
0.0483532
0.0484961
0.0415577
0.0406957
0.0414101
0.0411463
0.0402277
0.0411415
0.0439396
0.0411142
0.0437958
0.0414358
0.0488028
0.0412645
0.0486486
0.0443362
0.0395373
0.0440765
0.0412936
0.044054
0.0417057
0.0396583
0.039212
0.0490757
0.0418845
0.0439175
0.044364
0.0449567
0.0396814
0.0421471
0.0490722
0.042446
0.0392383
0.0491066
0.0480305
0.0486521
0.048619
0.0459943
0.0474445
0.0471419
0.0464383
0.0423267
0.0485018
0.0469962
0.0470273
0.0456944
0.0414119
0.0450989
0.0452415
0.0449536
0.0459607
0.0456582
0.0464112
0.0461407
0.0393888
0.0481809
0.04596
0.0469979
0.0455438
0.0461131
0.0462931
0.0487644
0.0449263
0.0471743
0.0454003
0.0467038
0.048621
0.0450737
0.0424767
0.044341
0.0474398
0.046108
0.0414422
0.041593
0.0426224
0.0417136
0.0480326
0.0446261
0.0431899
0.042737
0.0427705
0.0446592
0.0421809
0.0429213
0.0430754
0.0414396
0.0461098
0.0433531
0.0418537
0.0415883
0.0459956
0.0467339
0.0436498
0.0395099
0.0418632
0.0461446
0.0472909
0.045548
0.0455166
0.0459687
0.0461154
0.041745
0.046855
0.0486475
0.0437645
0.0456647
0.0450992
0.0439087
0.0465572
0.0439414
0.0484734
0.0440521
0.0474775
0.0455172
0.0418888
0.0440829
0.047596
0.0427741
0.0441968
0.0442283
0.0443695
0.0456685
0.0444771
0.0405464
0.0465557
0.0398252
0.0440801
0.0467345
0.0465833
0.0486202
0.0424456
0.0455431
0.04778
0.0420342
0.0490772
0.0484716
0.0447766
0.0420109
0.0467042
0.0448092
0.0474443
0.0491043
0.0425913
0.0473266
0.0480376
0.0452193
0.0440566
0.041858
0.0420398
0.0426191
0.0405401
0.0459914
0.0455137
0.0487978
0.0417394
0.0405174
0.0408139
0.045692
0.0489521
0.0468787
0.0403983
0.0461359
0.0473225
0.0467299
0.045812
0.0478931
0.048773
0.0471498
0.0453931
0.0448092
0.0433297
0.0472981
0.0471739
0.0437701
0.0436504
0.0445043
0.0421529
0.0467025
0.0458402
0.0436236
0.0473248
0.0472957
0.0412884
0.0393923
0.0417375
0.0432171
0.0474715
0.044629
0.0432183
0.0433333
0.0434791
0.0447829
0.0430396
0.0441912
0.0421873
0.0422981
0.0484978
0.0451053
0.0449597
0.0450751
0.0449323
0.0472921
0.0477407
0.0478816
0.042323
0.0474757
0.0444807
0.041561
0.0425902
0.0442216
0.0476218
0.0399703
0.0452179
0.0453665
0.0452472
0.0424414
0.047596
0.047177
0.0484984
0.0433332
0.0429275
0.0443376
0.047745
0.0453675
0.0396826
0.0425892
0.044509
0.0489536
0.0435073
0.0422948
0.0452205
0.0486449
0.041713
0.0462829
0.0423181
0.0428896
0.040367
0.040257
0.0406647
0.0408419
0.0424742
0.043052
0.0409884
0.0479196
0.040252
0.0400837
0.048623
0.0432089
0.0470261
0.042322
0.0434751
0.0461416
0.0439413
0.048771
0.0458475
0.0465829
0.0483544
0.0420111
0.0414376
0.0465586
0.0418843
0.0459887
0.0430735
0.0428942
0.0459686
0.0464123
0.0459628
0.0484701
0.0446557
0.0487705
0.0395387
0.0458121
0.0401149
0.0412588
0.0482032
0.0415597
0.0427434
0.0427719
0.0424695
0.0417396
0.0398012
0.0458088
0.0422961
0.0406913
0.0406646
0.0421554
0.045251
0.0471748
0.048064
0.0470231
0.0468561
0.0482081
0.0421812
0.0480602
0.0480365
0.0478924
0.0435089
0.0431899
0.043077
0.0408138
0.0471703
0.0431837
0.040399
0.0437947
0.048325
0.0422979
0.0426177
0.039513
0.0462589
0.0445028
0.0433636
0.0409631
0.0471454
0.0458121
0.0431851
0.0412605
0.0437697
0.0459916
0.0402561
0.0430418
0.0418951
0.0425905
0.0411151
0.0412875
0.0414121
0.0419978
0.0420317
0.0468559
0.0439184
0.0468503
0.0464089
0.0436471
0.046259
0.0439447
0.0490719
0.0398234
0.0406925
0.0435
0.0436203
0.0452184
0.0427519
0.0456907
0.0470278
0.0393667
0.0478984
0.0433279
0.0490997
0.0467065
0.0467327
0.0468804
0.0442182
0.0429183
0.0489213
0.0397995
0.0399683
0.0401117
0.0402318
0.0400878
0.039824
0.0405438
0.047914
0.0409618
0.0411365
0.0481769
0.0449327
0.0448151
0.0415854
0.0433599
0.0436272
0.047619
0.0477709
0.0420328
0.0421529
0.0487966
0.0421787
0.0491037
0.0451048
0.0450743
0.0392142
0.0432124
0.0437962
0.0489256
0.0462903
0.0479226
0.0443343
0.0475948
0.0447839
0.0401103
0.0393627
0.0438024
0.0395423
0.0480663
0.0392479
0.0393972
0.0462906
0.0476197
0.0462637
0.0473213
0.0489498
0.0464319
0.046407
0.0399649
0.0398009
0.0467365
0.0396568
0.0395141
0.0395451
0.0392429
0.0396885
0.048467
0.0475903
0.0464403
0.0398301
0.043502
0.0470028
0.0490714
0.0489185
0.0487972
0.0486141
0.0483225
0.048208
0.048177
0.0480633
0.0478894
0.0477722
0.0477411
0.0468809
0.0465865
0.0474703
0.0458392
0.045808
0.045693
0.0456613
0.045543
0.0455121
0.0453945
0.0453626
0.0452473
0.0452165
0.0451036
0.0450734
0.0449587
0.0449261
0.044809
0.0447767
0.0446566
0.044626
0.0445085
0.0444788
0.0443661
0.0443369
0.0442264
0.0441956
0.0440816
0.0440521
0.0439404
0.0439106
0.0437955
0.043765
0.0436476
0.0436167
0.0435011
0.0434704
0.0433577
0.0433284
0.0432159
0.043188
0.0430725
0.0430425
0.042923
0.042891
0.0427747
0.0427445
0.0426234
0.0425902
0.0424758
0.0424409
0.0423236
0.0422942
0.0421785
0.0421471
0.0420335
0.0420037
0.0418873
0.0418549
0.0417351
0.0417024
0.0415857
0.0415546
0.0414355
0.0414047
0.0412878
0.0412558
0.0411398
0.0411078
0.0409898
0.0409587
0.04084
0.0408081
0.0406933
0.0406612
0.0405465
0.0405163
0.0403989
0.0403691
0.0402567
0.0402253
0.0401122
0.040082
0.0399689
0.0399386
0.0398251
0.0397933
0.0396809
0.0396483
0.0395368
0.0395046
0.0393874
0.039357
0.0392395
0.039209
0.0491012
0.0490688
0.0489485
0.0489173
0.0487982
0.0487672
0.0486473
0.0486169
0.0484988
0.0484684
0.0483535
0.0483228
0.0482073
0.0481768
0.0480618
0.0480325
0.047918
0.0478881
0.0477725
0.047742
0.0476229
0.0475922
0.0474709
0.0474414
0.0473223
0.0472931
0.0471736
0.0471445
0.0470266
0.046998
0.046881
0.0468523
0.0467331
0.0467037
0.0465867
0.0465561
0.0464391
0.0464099
0.0462908
0.0462602
0.0461401
0.0461099
0.045988
0.0459576
0.0458366
0.0458073
0.045691
0.0456605
0.0455446
0.0455142
0.0453957
0.0453653
0.0452476
0.0452178
0.0451022
0.0450725
0.044955
0.0449254
0.0448093
0.0447777
0.0446575
0.0446276
0.0445097
0.04448
0.044367
0.0443396
0.0442289
0.0441995
0.0440837
0.0440545
0.0439402
0.0439104
0.0437945
0.043765
0.0436481
0.0436174
0.0435019
0.0434724
0.0433597
0.0433305
0.0432175
0.043188
0.0430717
0.0430424
0.0429231
0.0428914
0.0427759
0.0427439
0.0426245
0.0425955
0.042475
0.0424416
0.0423222
0.0422922
0.0421766
0.0421462
0.0420299
0.0419989
0.0418828
0.0418524
0.0417328
0.0417019
0.041584
0.0415537
0.0414355
0.0414059
0.0412876
0.041257
0.041138
0.0411074
0.0409894
0.0409604
0.040841
0.0408109
0.040695
0.040665
0.0405474
0.0405176
0.0403992
0.0403686
0.0402538
0.0402234
0.04011
0.0400793
0.0399673
0.039935
0.0398262
0.0397935
0.0396842
0.0396555
0.0395391
0.0395096
0.0393882
0.0393594
0.0392384
0.0392094
0.0490994
0.0490676
0.0489468
0.0489155
0.0487961
0.0487649
0.0486468
0.0486159
0.048499
0.0484681
0.0483534
0.0483229
0.0482074
0.0481762
0.0480623
0.0480326
0.0479181
0.0478886
0.0477744
0.0477432
0.0476245
0.0475935
0.0474733
0.0474426
0.0473234
0.0472927
0.0471762
0.0471465
0.0470307
0.0470009
0.046885
0.0468537
0.0467357
0.0467063
0.0465896
0.0465583
0.0464402
0.0464101
0.0462909
0.0462602
0.0461401
0.0461095
0.0459895
0.0459582
0.0458378
0.0458073
0.0456905
0.0456594
0.0455441
0.0455137
0.0453956
0.0453645
0.0452465
0.0452177
0.0451045
0.0450741
0.0449554
0.044925
0.0448078
0.0447765
0.0446587
0.0446286
0.0445125
0.0444827
0.0443708
0.0443412
0.0442301
0.0441996
0.0440852
0.0440548
0.0439413
0.0439102
0.0437952
0.0437642
0.0436474
0.0436177
0.0435019
0.0434705
0.043361
0.0433309
0.0432183
0.0431875
0.0430691
0.0430382
0.0429209
0.0428899
0.0427757
0.0427439
0.0426257
0.0425926
0.0424723
0.0424407
0.0423219
0.042291
0.0421769
0.0421462
0.0420313
0.0419984
0.0418829
0.0418519
0.0417331
0.0417016
0.041585
0.0415539
0.0414375
0.041406
0.0412886
0.0412573
0.0411389
0.0411081
0.04099
0.0409588
0.0408395
0.0408087
0.0406943
0.0406641
0.0405468
0.040516
0.0404004
0.0403691
0.0402544
0.0402243
0.0401098
0.0400792
0.0399656
0.0399353
0.0398256
0.039793
0.0396868
0.0396534
0.0395381
0.0395097
0.03939
0.0393591
0.03924
0.0392096
0.0490975
0.0490661
0.0489451
0.0489145
0.0487954
0.0487654
0.0486466
0.0486158
0.0484983
0.0484679
0.0483524
0.0483224
0.0482079
0.0481773
0.048063
0.0480333
0.0479182
0.0478876
0.0477713
0.0477409
0.0476214
0.0475909
0.0474724
0.0474419
0.0473233
0.0472926
0.0471768
0.0471458
0.0470319
0.0470013
0.0468863
0.0468552
0.0467371
0.0467057
0.0465878
0.0465567
0.0464392
0.0464078
0.0462898
0.0462585
0.0461393
0.0461073
0.0459877
0.0459562
0.0458386
0.0458079
0.045692
0.0456599
0.0455439
0.0455132
0.0453953
0.0453654
0.0452471
0.0452184
0.0451055
0.0450755
0.0449578
0.0449273
0.044808
0.044777
0.0446597
0.0446307
0.0445143
0.044485
0.0443721
0.0443421
0.04423
0.0441993
0.0440834
0.0440533
0.0439404
0.04391
0.0437963
0.0437649
0.0436493
0.0436191
0.0435035
0.0434724
0.0433598
0.0433274
0.0432158
0.0431839
0.0430693
0.0430374
0.0429192
0.0428892
0.042772
0.0427416
0.0426239
0.0425926
0.0424724
0.0424412
0.0423234
0.0422911
0.0421748
0.0421429
0.0420266
0.0419948
0.04188
0.0418489
0.0417311
0.0416989
0.0415821
0.0415497
0.0414353
0.0414039
0.0412865
0.0412564
0.0411372
0.041106
0.0409878
0.0409578
0.0408408
0.0408097
0.0406954
0.0406653
0.0405474
0.0405178
0.0404011
0.0403698
0.0402553
0.0402238
0.040109
0.0400794
0.0399655
0.0399365
0.0398228
0.0397941
0.0396847
0.0396498
0.039538
0.0395074
0.0393905
0.0393597
0.0392407
0.0392094
0.0490965
0.0490653
0.0489448
0.0489142
0.0487965
0.0487664
0.0486461
0.048616
0.0484994
0.0484685
0.0483531
0.0483224
0.0482066
0.0481765
0.0480622
0.0480332
0.0479194
0.0478884
0.0477729
0.0477417
0.0476224
0.0475911
0.047473
0.0474432
0.0473262
0.0472949
0.047178
0.0471473
0.0470322
0.0470006
0.0468845
0.0468543
0.046737
0.0467055
0.0465875
0.0465556
0.0464379
0.0464059
0.0462875
0.0462564
0.0461384
0.0461066
0.0459874
0.0459567
0.0458377
0.0458065
0.045691
0.0456595
0.0455462
0.0455142
0.0453956
0.0453652
0.0452488
0.0452183
0.0451034
0.045073
0.0449582
0.0449275
0.0448093
0.0447778
0.0446621
0.0446324
0.0445177
0.044488
0.0443754
0.0443446
0.0442321
0.0442016
0.0440835
0.0440536
0.04394
0.0439087
0.0437941
0.0437632
0.0436477
0.0436168
0.0435019
0.0434712
0.0433584
0.043327
0.0432129
0.0431812
0.0430676
0.0430355
0.0429204
0.042889
0.0427724
0.0427417
0.0426234
0.0425927
0.0424713
0.0424408
0.0423233
0.0422913
0.0421748
0.0421431
0.0420271
0.0419959
0.0418778
0.0418469
0.0417297
0.0416982
0.0415814
0.0415495
0.0414345
0.0414024
0.0412867
0.0412556
0.0411369
0.0411059
0.0409876
0.0409587
0.0408426
0.040812
0.0406959
0.0406635
0.0405461
0.0405163
0.0404005
0.0403712
0.0402552
0.0402238
0.0401082
0.0400787
0.0399678
0.0399381
0.0398223
0.0397936
0.0396795
0.0396486
0.0395356
0.0395032
0.0393871
0.0393561
0.0392397
0.0392081
0.0490964
0.0490662
0.0489443
0.0489139
0.0487968
0.0487669
0.0486459
0.0486153
0.0484982
0.0484671
0.0483524
0.0483215
0.0482073
0.0481774
0.0480633
0.0480332
0.047918
0.0478874
0.0477714
0.0477399
0.0476232
0.0475925
0.0474742
0.0474444
0.0473264
0.0472956
0.0471789
0.0471482
0.0470334
0.0470017
0.0468847
0.0468533
0.0467346
0.0467043
0.0465872
0.0465559
0.0464374
0.046405
0.0462864
0.0462546
0.046135
0.0461029
0.0459862
0.0459543
0.0458355
0.0458049
0.0456898
0.0456585
0.0455439
0.0455125
0.0453955
0.045366
0.0452508
0.04522
0.0451029
0.0450723
0.0449574
0.0449268
0.0448089
0.0447774
0.044662
0.0446317
0.0445173
0.0444885
0.0443747
0.0443441
0.0442323
0.0442014
0.0440853
0.0440551
0.0439405
0.0439088
0.043793
0.0437623
0.043647
0.0436161
0.0435016
0.043471
0.0433578
0.0433268
0.043212
0.0431804
0.0430655
0.0430338
0.0429191
0.0428875
0.0427705
0.0427398
0.0426216
0.0425913
0.0424682
0.0424377
0.0423196
0.0422898
0.0421721
0.0421412
0.0420261
0.0419949
0.0418754
0.0418448
0.0417268
0.0416963
0.0415803
0.0415487
0.0414334
0.0414016
0.0412868
0.0412547
0.0411372
0.0411057
0.0409875
0.0409565
0.040841
0.0408118
0.0406955
0.0406635
0.0405466
0.040516
0.0404005
0.0403698
0.0402521
0.0402218
0.0401076
0.0400783
0.0399696
0.0399389
0.0398234
0.0397929
0.0396781
0.0396488
0.0395349
0.0395024
0.0393864
0.0393539
0.0392386
0.0490948
0.0490649
0.0489452
0.0489147
0.0487957
0.0487651
0.0486436
0.0486114
0.0484963
0.0484659
0.0483513
0.0483209
0.0482077
0.048177
0.0480632
0.0480318
0.0479163
0.0478862
0.0477697
0.047739
0.0476243
0.0475939
0.047476
0.0474448
0.0473255
0.0472954
0.0471785
0.0471476
0.0470321
0.047001
0.0468831
0.0468517
0.0467321
0.0467015
0.0465839
0.0465537
0.0464359
0.046404
0.0462851
0.0462531
0.0461337
0.0461027
0.0459864
0.0459547
0.0458365
0.0458073
0.0456925
0.0456613
0.0455453
0.0455143
0.0453969
0.0453661
0.0452489
0.0452186
0.0451022
0.0450721
0.0449574
0.0449253
0.0448068
0.0447762
0.0446635
0.0446334
0.0445205
0.0444911
0.0443751
0.0443445
0.0442317
0.0442016
0.0440855
0.0440547
0.0439406
0.0439097
0.043794
0.0437634
0.0436481
0.0436172
0.0435016
0.0434706
0.0433553
0.0433245
0.0432099
0.0431795
0.0430672
0.0430348
0.0429204
0.0428887
0.0427716
0.0427411
0.0426241
0.0425935
0.0424713
0.04244
0.0423202
0.0422901
0.0421704
0.0421407
0.0420238
0.0419937
0.0418765
0.0418449
0.0417255
0.0416958
0.0415786
0.0415488
0.0414332
0.0414017
0.0412846
0.0412531
0.0411372
0.0411068
0.0409895
0.0409577
0.0408418
0.040812
0.0406943
0.0406627
0.0405465
0.040516
0.040401
0.0403697
0.0402512
0.0402209
0.0401075
0.0400772
0.0399693
0.0399397
0.0398239
0.0397925
0.0396776
0.0396482
0.0395333
0.0395018
0.0393859
0.0393536
0.0490963
0.0490663
0.048947
0.0489155
0.0487952
0.048764
0.0486421
0.0486105
0.0484952
0.0484644
0.0483493
0.0483187
0.0482041
0.0481737
0.0480612
0.0480305
0.047914
0.047884
0.0477672
0.0477379
0.0476252
0.0475955
0.0474776
0.0474459
0.0473251
0.0472943
0.0471776
0.0471463
0.0470331
0.0470009
0.0468823
0.0468513
0.0467323
0.0467014
0.0465833
0.046553
0.0464331
0.0464021
0.0462833
0.0462525
0.0461335
0.0461028
0.0459855
0.0459541
0.0458363
0.0458061
0.0456904
0.0456599
0.0455442
0.0455131
0.0453984
0.045367
0.0452502
0.0452197
0.0451016
0.0450717
0.0449582
0.0449257
0.0448071
0.0447766
0.0446634
0.044632
0.0445193
0.0444893
0.0443738
0.0443439
0.0442321
0.0442016
0.0440837
0.0440537
0.04394
0.0439096
0.0437941
0.0437634
0.043649
0.0436184
0.0435028
0.0434712
0.0433552
0.0433247
0.0432089
0.0431791
0.0430655
0.0430338
0.0429197
0.0428886
0.0427725
0.0427402
0.0426241
0.0425936
0.0424738
0.0424416
0.0423221
0.0422895
0.0421701
0.042139
0.0420224
0.0419927
0.0418774
0.0418466
0.0417266
0.0416958
0.0415772
0.0415471
0.0414317
0.0414005
0.0412854
0.0412541
0.0411384
0.0411075
0.0409883
0.0409566
0.0408412
0.0408118
0.0406947
0.0406641
0.0405472
0.0405163
0.0403997
0.0403685
0.04025
0.0402202
0.0401085
0.0400777
0.0399677
0.0399383
0.0398245
0.0397929
0.0396772
0.0396473
0.039532
0.0395015
0.0393832
0.0393521
0.0490958
0.0490648
0.0489442
0.0489131
0.0487915
0.0487601
0.0486392
0.0486082
0.0484923
0.0484619
0.0483487
0.048319
0.0482043
0.0481745
0.04806
0.0480299
0.0479121
0.047882
0.0477668
0.0477382
0.0476241
0.0475923
0.0474758
0.0474441
0.0473252
0.0472943
0.0471771
0.0471456
0.0470314
0.0469986
0.0468808
0.0468497
0.0467332
0.0467024
0.0465843
0.0465536
0.0464342
0.0464027
0.0462827
0.046251
0.0461323
0.0461022
0.045986
0.0459565
0.0458389
0.045808
0.0456903
0.0456599
0.0455424
0.0455121
0.0453977
0.0453672
0.04525
0.0452191
0.0451001
0.0450701
0.0449557
0.0449239
0.0448063
0.0447759
0.0446635
0.044632
0.0445195
0.0444884
0.0443737
0.0443434
0.0442317
0.0442002
0.044082
0.0440523
0.0439376
0.0439078
0.0437924
0.0437617
0.0436473
0.0436179
0.0435015
0.0434708
0.0433547
0.0433242
0.0432083
0.0431785
0.0430646
0.0430345
0.0429204
0.0428897
0.0427736
0.042741
0.0426224
0.0425911
0.0424711
0.0424403
0.0423204
0.0422893
0.0421699
0.0421394
0.0420216
0.0419909
0.041876
0.0418455
0.0417273
0.0416965
0.0415784
0.0415468
0.0414317
0.041401
0.0412856
0.0412534
0.0411378
0.0411065
0.0409886
0.0409585
0.0408408
0.0408103
0.0406929
0.0406632
0.0405469
0.0405147
0.0403963
0.0403653
0.040249
0.0402197
0.0401104
0.0400801
0.0399671
0.0399365
0.0398227
0.0397919
0.0396773
0.0396465
0.0395314
0.0395009
0.0393824
0.0393525
0.0490979
0.049067
0.0489458
0.0489156
0.0487933
0.0487621
0.0486396
0.048609
0.0484923
0.0484615
0.0483471
0.0483172
0.048203
0.0481724
0.048059
0.0480295
0.0479132
0.0478828
0.0477688
0.047739
0.0476257
0.0475935
0.0474747
0.0474422
0.0473223
0.0472919
0.0471755
0.0471445
0.047029
0.0469971
0.0468804
0.046849
0.0467324
0.0467021
0.0465846
0.0465544
0.0464331
0.0464014
0.0462848
0.0462531
0.0461342
0.0461035
0.0459849
0.0459552
0.0458394
0.0458086
0.045691
0.0456601
0.0455432
0.0455124
0.0453974
0.0453673
0.0452512
0.0452206
0.0451021
0.0450716
0.0449549
0.0449243
0.0448064
0.044776
0.0446615
0.0446323
0.0445188
0.0444883
0.0443741
0.0443441
0.0442322
0.0441997
0.0440829
0.0440516
0.043937
0.0439077
0.0437935
0.0437627
0.0436475
0.0436172
0.0434994
0.0434704
0.0433548
0.0433253
0.0432098
0.0431798
0.0430657
0.0430358
0.042919
0.0428884
0.0427727
0.0427414
0.0426248
0.0425939
0.0424721
0.0424414
0.0423187
0.0422881
0.0421708
0.0421409
0.0420251
0.0419933
0.0418763
0.0418452
0.0417272
0.0416977
0.0415792
0.0415476
0.0414319
0.0414012
0.0412858
0.0412537
0.0411366
0.0411053
0.0409883
0.0409586
0.040841
0.0408092
0.0406922
0.0406615
0.0405466
0.0405147
0.0403964
0.0403652
0.0402482
0.0402181
0.0401085
0.040079
0.0399677
0.039937
0.0398226
0.0397918
0.0396772
0.0396456
0.0395302
0.0394992
0.0393837
0.0393542
0.0490974
0.0490661
0.0489445
0.0489125
0.0487906
0.0487593
0.0486385
0.048609
0.048493
0.0484622
0.048349
0.0483182
0.0482037
0.0481721
0.048058
0.0480276
0.0479139
0.0478842
0.0477701
0.0477395
0.0476254
0.0475931
0.0474742
0.0474408
0.0473212
0.0472911
0.0471751
0.047145
0.0470279
0.0469968
0.0468799
0.0468484
0.0467324
0.0467006
0.0465837
0.0465529
0.0464313
0.0464015
0.0462838
0.0462515
0.046136
0.0461057
0.0459867
0.045956
0.0458393
0.0458087
0.0456915
0.0456623
0.0455449
0.0455143
0.0453987
0.0453682
0.0452522
0.045223
0.0451045
0.0450733
0.0449556
0.0449253
0.0448084
0.0447775
0.0446626
0.0446331
0.0445172
0.0444864
0.0443715
0.0443409
0.0442279
0.0441958
0.0440813
0.0440494
0.0439352
0.0439045
0.0437923
0.0437619
0.0436482
0.0436171
0.0435007
0.0434713
0.0433553
0.043326
0.0432114
0.0431814
0.0430667
0.0430359
0.0429185
0.0428882
0.0427715
0.0427411
0.0426234
0.042591
0.0424714
0.0424412
0.0423185
0.0422887
0.0421708
0.0421388
0.0420262
0.0419938
0.041876
0.0418446
0.0417282
0.041697
0.0415784
0.041549
0.0414314
0.0414008
0.0412844
0.0412545
0.0411388
0.0411081
0.0409913
0.0409606
0.0408411
0.0408108
0.0406933
0.0406626
0.0405445
0.0405136
0.0403965
0.0403663
0.0402515
0.0402211
0.0401097
0.0400799
0.0399666
0.039936
0.0398222
0.0397917
0.039677
0.0396469
0.0395294
0.0395004
0.0393839
0.0393536
0.049097
0.0490662
0.0489458
0.0489143
0.0487918
0.0487607
0.0486382
0.0486088
0.0484921
0.0484625
0.0483483
0.0483168
0.0482019
0.048171
0.0480562
0.0480262
0.0479128
0.0478828
0.0477689
0.0477363
0.0476229
0.0475906
0.047472
0.0474395
0.0473214
0.0472901
0.0471757
0.0471451
0.0470273
0.0469964
0.0468784
0.0468484
0.0467321
0.0467004
0.0465841
0.046552
0.0464336
0.0464036
0.0462831
0.0462506
0.0461341
0.0461038
0.0459875
0.0459569
0.0458404
0.0458099
0.0456931
0.0456644
0.0455466
0.0455174
0.0454009
0.0453701
0.0452533
0.0452248
0.0451062
0.0450755
0.0449567
0.0449259
0.0448093
0.0447788
0.0446633
0.0446321
0.0445149
0.0444842
0.0443687
0.0443384
0.0442245
0.0441936
0.0440796
0.0440483
0.0439352
0.0439038
0.0437911
0.0437608
0.043647
0.0436169
0.0435019
0.0434717
0.0433561
0.0433264
0.0432115
0.0431815
0.0430648
0.0430339
0.0429188
0.0428883
0.0427729
0.0427424
0.0426237
0.0425907
0.0424719
0.0424411
0.0423195
0.0422894
0.042173
0.0421394
0.0420291
0.0419936
0.0418806
0.0418522
0.0417274
0.0416981
0.041579
0.0415502
0.0414328
0.0414026
0.0412844
0.0412547
0.041139
0.0411092
0.0409922
0.0409606
0.0408402
0.0408109
0.0406939
0.040664
0.0405455
0.0405148
0.0403957
0.0403659
0.0402531
0.0402235
0.0401103
0.0400805
0.0399663
0.0399357
0.0398212
0.039791
0.0396781
0.0396485
0.0395313
0.0395024
0.0393852
0.0393562
0.0490968
0.049066
0.048945
0.0489135
0.048792
0.0487603
0.0486385
0.048609
0.0484915
0.0484626
0.0483465
0.0483158
0.0482015
0.0481707
0.0480557
0.0480255
0.0479113
0.0478816
0.0477673
0.0477367
0.0476213
0.0475883
0.0474686
0.0474383
0.0473192
0.047288
0.0471747
0.0471451
0.04703
0.0469992
0.0468805
0.0468497
0.0467321
0.046701
0.0465819
0.0465495
0.0464324
0.0464011
0.0462825
0.0462508
0.0461328
0.0461023
0.0459862
0.0459568
0.045841
0.0458107
0.0456946
0.0456648
0.0455491
0.0455198
0.0454037
0.0453732
0.0452562
0.0452259
0.0451063
0.045077
0.0449584
0.0449275
0.0448097
0.0447792
0.0446636
0.0446323
0.0445149
0.0444836
0.0443693
0.0443375
0.0442229
0.0441912
0.0440776
0.0440468
0.0439352
0.0439038
0.0437912
0.0437604
0.0436467
0.0436167
0.0435022
0.0434716
0.0433575
0.0433266
0.0432118
0.0431806
0.0430623
0.0430313
0.0429169
0.0428865
0.0427713
0.0427415
0.0426224
0.0425893
0.0424709
0.0424397
0.0423189
0.0422908
0.0421725
0.0421428
0.0420279
0.041995
0.0418867
0.0418518
0.0417284
0.0417001
0.0415787
0.0415491
0.0414325
0.041403
0.0412857
0.0412551
0.0411372
0.0411057
0.0409872
0.0409568
0.0408396
0.0408099
0.0406905
0.0406611
0.0405439
0.0405135
0.0403962
0.0403664
0.0402542
0.040225
0.0401106
0.0400812
0.0399681
0.039938
0.0398234
0.0397929
0.03968
0.03965
0.0395332
0.0395039
0.0393885
0.0393601
0.0490971
0.049066
0.0489436
0.0489125
0.0487907
0.0487602
0.0486395
0.0486093
0.0484929
0.048464
0.0483469
0.0483173
0.0482021
0.0481709
0.0480542
0.0480243
0.0479109
0.0478821
0.0477667
0.0477376
0.0476205
0.0475883
0.0474696
0.0474397
0.0473224
0.0472905
0.047175
0.0471445
0.0470287
0.0469997
0.0468803
0.0468493
0.0467311
0.0467009
0.0465827
0.0465506
0.0464335
0.0464005
0.0462811
0.0462489
0.0461339
0.0461029
0.0459874
0.0459579
0.0458433
0.0458131
0.0456974
0.0456675
0.0455535
0.0455232
0.0454061
0.0453757
0.0452586
0.0452269
0.0451074
0.0450776
0.04496
0.0449294
0.0448111
0.0447792
0.0446607
0.0446295
0.0445122
0.0444814
0.0443653
0.0443336
0.0442183
0.0441876
0.0440761
0.044045
0.0439335
0.0439026
0.0437905
0.0437597
0.0436476
0.0436165
0.0435017
0.0434715
0.0433569
0.0433256
0.0432099
0.0431782
0.0430608
0.0430297
0.0429162
0.0428849
0.042769
0.0427393
0.0426211
0.04259
0.0424719
0.0424389
0.0423201
0.042291
0.0421731
0.0421443
0.0420243
0.0419977
0.0418867
0.0418506
0.0417301
0.0416991
0.0415808
0.0415501
0.0414335
0.0414031
0.0412867
0.041256
0.0411396
0.0411075
0.0409875
0.0409573
0.0408414
0.0408099
0.0406909
0.0406613
0.0405441
0.0405153
0.0403997
0.0403688
0.0402576
0.0402276
0.0401135
0.0400822
0.0399681
0.0399395
0.0398242
0.0397941
0.039681
0.0396513
0.0395336
0.0395054
0.0393898
0.0393609
0.0490958
0.049065
0.0489447
0.0489128
0.0487916
0.0487616
0.0486422
0.0486118
0.0484942
0.0484634
0.048345
0.048315
0.0482021
0.0481725
0.0480557
0.048026
0.047913
0.0478839
0.0477665
0.0477368
0.0476177
0.047587
0.0474677
0.0474373
0.0473202
0.0472905
0.0471795
0.0471492
0.047031
0.0470017
0.0468821
0.0468502
0.0467315
0.0467003
0.0465819
0.0465499
0.0464328
0.0463993
0.0462799
0.0462477
0.0461333
0.0461022
0.045988
0.0459582
0.0458453
0.0458161
0.0457016
0.0456719
0.0455557
0.0455246
0.0454075
0.045377
0.0452589
0.0452276
0.0451089
0.0450779
0.0449596
0.0449289
0.0448101
0.0447783
0.0446596
0.0446283
0.0445117
0.044481
0.0443648
0.0443337
0.044218
0.0441875
0.0440757
0.0440446
0.0439344
0.0439033
0.0437893
0.0437592
0.0436482
0.0436178
0.0435034
0.0434736
0.0433572
0.0433265
0.0432096
0.0431783
0.0430607
0.0430293
0.0429152
0.0428836
0.0427684
0.0427366
0.0426179
0.0425888
0.0424707
0.0424392
0.0423226
0.0422923
0.042177
0.0421465
0.0420268
0.0419997
0.0418832
0.0418511
0.0417297
0.0416992
0.0415821
0.041551
0.0414346
0.0414023
0.0412852
0.0412546
0.0411377
0.0411054
0.0409855
0.0409544
0.0408395
0.0408087
0.0406918
0.0406601
0.0405441
0.0405145
0.0404022
0.0403704
0.0402597
0.0402301
0.0401147
0.0400848
0.0399699
0.0399404
0.0398252
0.039796
0.039683
0.0396536
0.0395377
0.0395089
0.0393907
0.0393636
0.0490946
0.0490628
0.0489433
0.0489111
0.0487913
0.0487608
0.0486428
0.0486128
0.0484954
0.0484647
0.0483461
0.0483157
0.0482018
0.0481727
0.0480582
0.0480283
0.0479138
0.0478837
0.0477681
0.0477378
0.0476197
0.0475896
0.047471
0.0474406
0.0473219
0.0472923
0.0471815
0.0471488
0.0470325
0.0470026
0.0468826
0.0468502
0.046731
0.0467002
0.0465807
0.0465495
0.0464299
0.0463984
0.0462796
0.0462485
0.0461332
0.0461034
0.0459882
0.0459591
0.0458468
0.0458177
0.0457034
0.045673
0.0455565
0.0455254
0.0454079
0.0453768
0.0452572
0.0452269
0.0451095
0.0450785
0.04496
0.0449286
0.044808
0.0447769
0.0446579
0.0446261
0.0445089
0.044478
0.0443633
0.0443321
0.0442183
0.0441875
0.0440752
0.0440445
0.0439351
0.0439046
0.0437897
0.0437604
0.0436488
0.0436188
0.0435044
0.0434735
0.0433552
0.0433255
0.0432085
0.0431778
0.0430598
0.0430281
0.0429137
0.0428832
0.0427698
0.0427369
0.0426188
0.0425891
0.0424703
0.0424405
0.0423247
0.0422941
0.0421788
0.0421484
0.0420308
0.0419997
0.0418812
0.0418515
0.0417309
0.0417001
0.0415807
0.0415498
0.0414337
0.0414019
0.0412842
0.0412527
0.0411351
0.0411047
0.0409876
0.0409562
0.0408406
0.0408112
0.0406939
0.040663
0.0405466
0.0405171
0.040404
0.0403738
0.040263
0.0402299
0.0401133
0.0400847
0.0399698
0.0399396
0.0398259
0.0397962
0.0396842
0.0396548
0.0395394
0.0395073
0.0393919
0.0393669
0.0490939
0.049062
0.0489426
0.0489109
0.0487915
0.0487598
0.0486418
0.0486115
0.0484932
0.0484646
0.0483482
0.0483184
0.0482047
0.0481764
0.0480621
0.0480315
0.0479145
0.0478845
0.0477687
0.0477373
0.0476188
0.0475872
0.0474703
0.0474394
0.0473235
0.0472924
0.0471834
0.0471474
0.0470384
0.0470093
0.0468848
0.0468553
0.0467322
0.0467005
0.046581
0.0465499
0.0464286
0.0463981
0.0462785
0.0462491
0.0461354
0.0461065
0.0459922
0.0459635
0.0458492
0.0458189
0.0457041
0.0456736
0.0455558
0.0455238
0.0454074
0.0453752
0.0452565
0.0452263
0.0451081
0.0450762
0.0449578
0.0449263
0.0448068
0.0447764
0.044658
0.0446267
0.0445081
0.0444781
0.044362
0.0443319
0.0442174
0.0441864
0.0440732
0.0440439
0.0439347
0.0439047
0.04379
0.0437602
0.0436485
0.0436191
0.043507
0.0434767
0.0433577
0.0433267
0.0432079
0.0431774
0.0430595
0.0430289
0.0429148
0.0428841
0.0427678
0.0427356
0.0426192
0.0425878
0.0424702
0.0424414
0.0423254
0.0422949
0.0421797
0.0421499
0.0420333
0.042001
0.0418821
0.041851
0.0417304
0.0416993
0.0415815
0.0415514
0.0414345
0.0414043
0.0412856
0.0412528
0.0411328
0.0411024
0.0409869
0.0409555
0.0408402
0.0408099
0.0406944
0.0406651
0.0405486
0.0405186
0.040405
0.0403765
0.0402634
0.0402301
0.040115
0.0400855
0.0399703
0.03994
0.0398269
0.0397964
0.0396851
0.0396552
0.0395409
0.0395095
0.0393961
0.0490927
0.0490613
0.0489414
0.0489101
0.0487928
0.0487613
0.0486447
0.0486139
0.0484946
0.0484658
0.0483495
0.0483205
0.0482058
0.0481763
0.0480633
0.0480337
0.0479155
0.0478857
0.0477683
0.0477375
0.0476188
0.0475882
0.0474705
0.0474404
0.0473221
0.0472917
0.0471809
0.047148
0.0470419
0.0470054
0.0468845
0.0468545
0.0467285
0.0466971
0.0465793
0.0465488
0.0464294
0.0463987
0.0462789
0.0462498
0.0461355
0.0461056
0.0459919
0.045963
0.0458492
0.0458186
0.0457047
0.0456741
0.0455554
0.0455235
0.0454074
0.045374
0.0452587
0.0452289
0.0451087
0.0450768
0.0449562
0.0449247
0.0448047
0.0447734
0.0446539
0.0446237
0.0445062
0.0444763
0.0443593
0.0443306
0.0442188
0.0441885
0.0440745
0.0440448
0.0439346
0.0439054
0.0437896
0.0437591
0.0436459
0.0436162
0.0435049
0.0434762
0.0433587
0.0433271
0.0432085
0.0431777
0.0430599
0.04303
0.0429155
0.0428842
0.042767
0.0427361
0.0426197
0.0425884
0.0424728
0.0424431
0.0423285
0.0422982
0.0421821
0.042151
0.0420328
0.0420022
0.0418834
0.0418517
0.0417309
0.0416992
0.0415806
0.0415491
0.0414316
0.0414018
0.0412851
0.0412527
0.0411332
0.0411019
0.0409871