/*--------------------------------*- C++ -*----------------------------------*\
| =========                 |                                                 |
| \\      /  F ield         | OpenFOAM: The Open Source CFD Toolbox           |
|  \\    /   O peration     | Version:  2206                                  |
|   \\  /    A nd           | Website:  www.openfoam.com                      |
|    \\/     M anipulation  |                                                 |
\*---------------------------------------------------------------------------*/
FoamFile
{
    version     2.0;
    format      ascii;
    arch        "LSB;label=32;scalar=64";
    class       volVectorField;
    location    "0.9";
    object      wallShearStress;
}
// * * * * * * * * * * * * * * * * * * * * * * * * * * * * * * * * * * * * * //

dimensions      [0 2 -2 0 0 0 0];

internalField   uniform (0 0 0);

boundaryField
{
    wall
    {
        type            calculated;
        value           nonuniform List<vector> 
7988
(
(-6.69838e-08 -3.41456e-08 -0.000179101)
(-2.24652e-07 -6.92331e-08 -0.000179546)
(1.88255e-07 3.94374e-08 -0.000180176)
(1.1613e-07 1.49789e-08 -0.000179967)
(3.30369e-07 7.24184e-08 -0.000179694)
(2.32916e-07 4.56233e-08 -0.000179692)
(3.06125e-07 6.90855e-08 -0.000179646)
(1.66226e-07 2.82138e-08 -0.000179115)
(5.35039e-07 1.24672e-07 -0.00017939)
(2.83956e-07 5.834e-08 -0.00017899)
(1.28625e-07 1.98729e-08 -0.000179528)
(-2.2555e-07 -6.67221e-08 -0.000179561)
(-1.69934e-07 -5.83521e-08 -0.000180078)
(-1.12431e-07 -4.27769e-08 -0.000180006)
(-2.21349e-07 -6.74956e-08 -0.00018012)
(-9.76139e-08 -3.76769e-08 -0.000179844)
(-6.45266e-08 -3.24648e-08 -0.00018028)
(2.09394e-07 3.7027e-08 -0.000179619)
(1.63105e-07 3.28954e-08 -0.000179728)
(2.60603e-07 5.79325e-08 -0.000179968)
(5.4563e-08 8.22175e-09 -0.000179742)
(-1.45282e-07 -4.8622e-08 -0.000180002)
(8.49272e-08 7.61865e-09 -0.000180147)
(1.20586e-07 1.88965e-08 -0.000179736)
(2.79282e-08 -1.19264e-08 -0.000180031)
(-2.21858e-07 -7.36325e-08 -0.000179849)
(7.13328e-08 2.68772e-09 -0.000180283)
(3.73872e-07 8.52648e-08 -0.000179873)
(-1.04849e-08 -1.52413e-08 -0.000179957)
(8.62119e-08 1.50518e-08 -0.000179777)
(6.95899e-09 -5.85528e-09 -0.000180108)
(3.87492e-07 9.59715e-08 -0.000179787)
(3.0219e-07 6.57316e-08 -0.000179521)
(3.22878e-07 7.62746e-08 -0.000179659)
(2.15107e-07 3.88295e-08 -0.000179412)
(-3.03593e-08 -2.14241e-08 -0.000179879)
(7.12375e-08 1.21489e-08 -0.000180199)
(-8.43321e-08 -3.01367e-08 -0.000180003)
(-2.64994e-07 -8.14164e-08 -0.000180178)
(-6.6457e-08 -2.86643e-08 -0.000179807)
(8.43073e-08 2.94389e-09 -0.000179729)
(-1.65362e-07 -5.71849e-08 -0.000179431)
(-1.78921e-07 -5.22337e-08 -0.00017952)
(-1.76784e-07 -5.48758e-08 -0.000180057)
(2.3239e-07 4.58472e-08 -0.000179509)
(-1.19293e-07 -4.54069e-08 -0.000179067)
(-2.11014e-07 -7.06068e-08 -0.000179699)
(3.63548e-09 -1.58895e-08 -0.000179729)
(4.39437e-07 8.97469e-08 -0.000179837)
(-3.63859e-07 -1.07646e-07 -0.000179142)
(-5.18983e-07 -1.43844e-07 -0.000179905)
(-1.6063e-07 -4.70106e-08 -0.000180348)
(-4.03696e-08 -2.25094e-08 -0.000179856)
(9.804e-08 8.98302e-09 -0.000179722)
(-1.43656e-08 -1.61775e-08 -0.000179197)
(-5.59165e-08 -2.93509e-08 -0.000179776)
(3.30173e-07 6.67832e-08 -0.000179717)
(7.42444e-09 -1.58362e-08 -0.000179582)
(1.07454e-07 1.81444e-08 -0.000180197)
(5.60423e-08 2.17975e-10 -0.000179803)
(5.56779e-08 7.40583e-09 -0.000179994)
(-3.29969e-07 -9.67131e-08 -0.000179764)
(9.22431e-08 6.66942e-09 -0.000179166)
(-2.21859e-07 -7.18151e-08 -0.000179003)
(-8.03799e-08 -3.58676e-08 -0.000179292)
(-2.4523e-07 -7.52041e-08 -0.000179412)
(-1.18023e-07 -4.55151e-08 -0.000179486)
(-3.61943e-07 -8.66933e-08 -0.000180976)
(1.09668e-07 4.82451e-08 -0.000181689)
(2.42401e-07 7.85377e-08 -0.000181808)
(7.13865e-08 3.0559e-08 -0.000181684)
(3.6765e-07 1.03296e-07 -0.000181409)
(3.42776e-07 1.01047e-07 -0.000181446)
(1.11578e-07 4.22375e-08 -0.000181194)
(-1.42353e-07 -2.29186e-08 -0.000181251)
(7.5134e-09 8.17798e-09 -0.000181085)
(9.64114e-08 3.5814e-08 -0.000180983)
(-7.72415e-08 -1.39875e-08 -0.00018102)
(7.46784e-08 3.96711e-08 -0.000181955)
(1.35495e-07 5.22515e-08 -0.000181921)
(-7.90215e-08 -9.36399e-09 -0.000181518)
(2.79266e-08 2.04832e-08 -0.000182022)
(-1.6093e-07 -2.80621e-08 -0.00018189)
(-1.07601e-07 -1.77063e-08 -0.00018187)
(-2.07461e-07 -4.70153e-08 -0.000181454)
(7.01522e-08 2.8062e-08 -0.000181492)
(-4.75924e-08 3.11119e-09 -0.00018159)
(1.09157e-07 4.66827e-08 -0.000181724)
(2.88036e-07 9.53772e-08 -0.000181826)
(-1.3853e-07 -2.60437e-08 -0.000181741)
(-1.45468e-07 -2.65409e-08 -0.000181679)
(6.29394e-08 2.19674e-08 -0.000181473)
(8.23987e-08 3.93668e-08 -0.00018206)
(-1.77454e-07 -3.63423e-08 -0.000181905)
(2.30006e-07 7.61186e-08 -0.000181337)
(4.13347e-07 1.24868e-07 -0.000181604)
(3.8083e-07 1.21289e-07 -0.000181797)
(2.29924e-07 7.58509e-08 -0.000181673)
(1.93453e-07 6.00177e-08 -0.00018138)
(1.81043e-07 5.51881e-08 -0.000180914)
(2.23288e-07 6.99544e-08 -0.000181649)
(1.81179e-07 5.77511e-08 -0.000181366)
(4.35188e-07 1.30549e-07 -0.000181892)
(-2.31791e-08 1.01133e-08 -0.000181925)
(1.59931e-07 6.21678e-08 -0.000181853)
(2.68268e-07 8.54966e-08 -0.000181823)
(-3.4614e-08 6.74816e-09 -0.000181692)
(1.94598e-08 1.29241e-08 -0.000181208)
(1.50917e-07 5.51633e-08 -0.000181253)
(3.14208e-07 1.04012e-07 -0.000181518)
(1.41443e-08 1.83563e-08 -0.000181791)
(-9.38619e-08 -1.55041e-08 -0.000181074)
(-1.70835e-08 9.12949e-09 -0.00018128)
(7.96185e-08 3.53417e-08 -0.000181728)
(-2.26115e-07 -4.91809e-08 -0.000181789)
(-2.8573e-07 -7.74404e-08 -0.000180875)
(1.07765e-07 4.90642e-08 -0.000181544)
(3.05661e-08 3.11207e-08 -0.000182208)
(-3.91134e-07 -8.83698e-08 -0.000181857)
(-1.63861e-07 -3.05413e-08 -0.00018136)
(-1.04614e-07 -2.3019e-08 -0.00018116)
(1.39517e-08 1.89781e-08 -0.000181476)
(-1.54621e-07 -2.9742e-08 -0.000181542)
(-4.23836e-08 -4.00163e-09 -0.000181364)
(-1.68074e-07 -3.38433e-08 -0.000181479)
(-9.87903e-08 -1.88314e-08 -0.000181577)
(2.24539e-08 2.58554e-08 -0.000181638)
(1.93177e-07 7.03338e-08 -0.000181468)
(-2.96948e-07 -6.69971e-08 -0.00018148)
(-5.93305e-07 -1.52785e-07 -0.000180514)
(-2.47219e-07 -5.36507e-08 -0.000180916)
(-1.45794e-07 -2.73808e-08 -0.0001811)
(-6.50548e-09 1.67085e-08 -0.000181312)
(1.17642e-07 4.88576e-08 -0.000181081)
(-9.81553e-08 -2.69767e-08 -0.000179411)
(1.01608e-07 3.73457e-09 -0.00017983)
(9.71104e-08 1.96878e-09 -0.000180103)
(-4.79861e-08 -2.01457e-08 -0.000179753)
(3.82839e-07 4.56708e-08 -0.000179789)
(3.07136e-07 2.91542e-08 -0.000179476)
(1.61042e-07 6.0682e-09 -0.000179579)
(-4.14867e-08 -1.60694e-08 -0.0001793)
(1.35621e-07 5.01182e-09 -0.000179772)
(3.02742e-07 3.42641e-08 -0.000179389)
(1.52208e-07 1.47355e-08 -0.000179645)
(1.33286e-07 1.6232e-08 -0.000179687)
(2.65699e-09 -1.09789e-08 -0.000180072)
(-3.7641e-09 -1.09325e-08 -0.000180059)
(-1.56277e-07 -2.98022e-08 -0.000180155)
(-3.79503e-08 -1.29583e-08 -0.000180075)
(-1.55399e-07 -3.47611e-08 -0.000180429)
(-1.38623e-07 -3.91479e-08 -0.000179958)
(-1.44737e-07 -4.15185e-08 -0.000179965)
(1.00924e-07 5.04134e-09 -0.000180426)
(8.76268e-08 -5.71735e-10 -0.000179926)
(9.75364e-08 -2.23026e-09 -0.000180051)
(-1.03894e-07 -2.86674e-08 -0.000180049)
(-3.46134e-08 -1.61269e-08 -0.000179829)
(1.0149e-07 4.47756e-10 -0.000179941)
(3.26294e-08 -8.77366e-09 -0.000179631)
(-1.34042e-07 -3.60027e-08 -0.00018003)
(3.39046e-07 4.05865e-08 -0.000179968)
(2.16749e-07 2.09095e-08 -0.000179618)
(4.24238e-07 5.50421e-08 -0.000179528)
(6.58738e-08 -3.43296e-09 -0.000179642)
(4.45823e-09 -1.27306e-08 -0.000179597)
(4.20925e-08 -8.07497e-09 -0.000179443)
(2.40547e-07 3.23687e-08 -0.000179703)
(4.86442e-07 6.83727e-08 -0.000179319)
(5.15186e-07 6.81081e-08 -0.000179825)
(2.1974e-07 2.15992e-08 -0.000179924)
(3.40231e-07 4.67193e-08 -0.000180061)
(9.95107e-08 5.31329e-10 -0.000179943)
(-4.61888e-08 -1.93819e-08 -0.000179763)
(1.57798e-07 1.20603e-08 -0.00018008)
(6.30142e-08 1.2003e-09 -0.000179615)
(1.08752e-07 3.52256e-10 -0.000179785)
(-1.80268e-07 -3.85926e-08 -0.000180156)
(1.25536e-07 5.55243e-09 -0.000180147)
(-5.85603e-09 -1.62697e-08 -0.00017928)
(-1.14229e-07 -3.71499e-08 -0.000179921)
(-6.30292e-08 -1.71357e-08 -0.000180121)
(-1.84157e-08 -1.49814e-08 -0.000179996)
(9.465e-08 1.02732e-08 -0.000179487)
(-1.76376e-07 -3.32645e-08 -0.000179921)
(-2.91285e-07 -5.01232e-08 -0.000180719)
(-8.81237e-08 -2.11979e-08 -0.000180409)
(-1.66387e-07 -4.25927e-08 -0.000179908)
(6.88914e-08 -6.1226e-09 -0.000179356)
(-8.25697e-08 -2.94115e-08 -0.000179602)
(-4.79732e-08 -2.82546e-08 -0.000179576)
(1.27106e-07 5.02793e-09 -0.000179498)
(-1.4878e-07 -3.19917e-08 -0.0001797)
(4.8077e-08 -6.63387e-10 -0.000179382)
(4.15582e-07 5.25307e-08 -0.000179604)
(-3.84799e-07 -7.10459e-08 -0.000178952)
(-3.94302e-07 -7.5445e-08 -0.000179183)
(-3.79611e-07 -7.05212e-08 -0.000179112)
(-1.04288e-07 -3.01208e-08 -0.000179406)
(-8.08273e-08 -2.24973e-08 -0.000179319)
(6.4235e-08 3.90897e-10 -0.000179454)
(-4.70546e-07 -5.86744e-08 -0.000181633)
(-2.50083e-07 -2.35648e-08 -0.000181857)
(-2.95111e-08 8.39299e-09 -0.000181806)
(-1.59356e-07 -7.77835e-09 -0.000181818)
(-1.54113e-07 -1.83561e-08 -0.000181348)
(1.41561e-07 2.87743e-08 -0.000181218)
(1.41518e-07 3.10636e-08 -0.00018118)
(1.40191e-07 4.03111e-08 -0.000181546)
(-1.51475e-07 -1.41291e-08 -0.000181425)
(7.61819e-08 2.06036e-08 -0.000181097)
(6.83218e-08 2.00167e-08 -0.00018138)
(3.64828e-08 2.45056e-08 -0.000182097)
(3.0461e-07 6.23913e-08 -0.000181923)
(-2.50673e-08 1.24739e-08 -0.000181748)
(2.12141e-07 4.88012e-08 -0.000182027)
(-2.15914e-09 1.83517e-08 -0.000182123)
(-1.12414e-08 1.33753e-08 -0.000182073)
(-9.55772e-08 1.46213e-09 -0.000182243)
(-2.88964e-07 -3.89652e-08 -0.000181725)
(-4.50376e-08 5.65753e-09 -0.000182183)
(-1.58329e-07 -1.24593e-08 -0.000182146)
(1.13779e-08 1.30712e-08 -0.000181514)
(3.14954e-08 1.9732e-08 -0.000181769)
(-3.6652e-08 6.78627e-09 -0.000181775)
(-1.78135e-07 -2.03406e-08 -0.000181293)
(9.86451e-08 3.08525e-08 -0.000181648)
(-4.72908e-08 4.62971e-09 -0.000181888)
(2.2942e-08 1.49413e-08 -0.00018153)
(3.61561e-07 6.91336e-08 -0.00018137)
(2.25676e-07 5.06978e-08 -0.000181471)
(2.07837e-07 4.82884e-08 -0.00018154)
(5.65499e-08 2.1913e-08 -0.000181519)
(8.78093e-08 2.72891e-08 -0.000180963)
(1.92877e-07 4.67108e-08 -0.000181602)
(-1.30117e-07 -6.61146e-09 -0.000181424)
(4.74745e-07 8.41806e-08 -0.000181462)
(1.15965e-07 3.16408e-08 -0.000181948)
(-1.12112e-08 1.33862e-08 -0.000181877)
(1.72081e-07 3.8459e-08 -0.000181587)
(8.33427e-08 3.04853e-08 -0.000181851)
(8.55649e-08 2.16171e-08 -0.000181578)
(2.36477e-07 5.13468e-08 -0.000181579)
(3.96707e-07 7.49333e-08 -0.000181599)
(2.30665e-07 4.88884e-08 -0.000181789)
(2.54212e-07 5.03279e-08 -0.000181682)
(-1.84166e-07 -1.44209e-08 -0.000181555)
(6.81701e-08 2.44024e-08 -0.000181666)
(1.98832e-07 5.11563e-08 -0.000182105)
(-4.44588e-07 -5.61762e-08 -0.0001817)
(2.72582e-08 3.10313e-08 -0.000181972)
(2.33563e-07 6.53735e-08 -0.000182363)
(-1.29716e-09 1.85328e-08 -0.000182602)
(-2.05932e-07 -2.04326e-08 -0.000181928)
(-2.56984e-07 -3.15065e-08 -0.000181525)
(-3.58005e-07 -4.19111e-08 -0.000181547)
(-4.87352e-07 -6.35417e-08 -0.000181569)
(-3.6752e-07 -5.12265e-08 -0.000181258)
(-1.55464e-07 -1.73407e-08 -0.000181332)
(-5.98821e-08 5.48398e-10 -0.000181551)
(-4.37491e-07 -5.0821e-08 -0.000181427)
(-4.97067e-07 -6.97116e-08 -0.000180824)
(-2.43386e-07 -2.36831e-08 -0.000181011)
(-3.88166e-07 -4.79525e-08 -0.000181161)
(-4.40573e-07 -5.20516e-08 -0.000181143)
(-3.53468e-07 -4.34449e-08 -0.000181213)
(-4.53857e-08 5.1919e-09 -0.000181283)
(2.83882e-07 5.87594e-08 -0.000181016)
(-3.38129e-07 -2.51201e-08 -0.000180021)
(-4.05471e-09 -1.08653e-08 -0.000180499)
(-7.0187e-08 -2.02331e-08 -0.000180375)
(-1.85735e-07 -2.24192e-08 -0.000180061)
(-5.37155e-08 -1.24914e-08 -0.000180157)
(2.16537e-07 1.58386e-09 -0.00017981)
(1.44512e-07 -3.29377e-09 -0.000179574)
(1.22022e-07 -2.67588e-10 -0.000179328)
(-2.59521e-08 -8.23279e-09 -0.000179762)
(2.97371e-07 3.04336e-09 -0.000179673)
(1.34204e-07 -6.82297e-09 -0.000179714)
(3.42193e-07 1.1576e-08 -0.000179899)
(4.02314e-07 8.08292e-09 -0.000180035)
(1.67793e-07 -4.12352e-09 -0.000179871)
(1.47073e-07 -4.01333e-09 -0.000180146)
(8.49476e-08 -3.55623e-09 -0.000180106)
(2.43616e-07 2.5076e-09 -0.000180673)
(1.90305e-07 5.27361e-09 -0.00018025)
(-1.96705e-07 -2.34301e-08 -0.000180064)
(-2.27721e-07 -1.62175e-08 -0.000180849)
(-2.15327e-07 -1.73398e-08 -0.000180494)
(-1.27585e-08 -1.50196e-08 -0.000180528)
(-1.72101e-07 -1.78364e-08 -0.000180262)
(-2.4538e-07 -2.22672e-08 -0.000180003)
(-1.20901e-07 -1.94253e-08 -0.000180111)
(2.06203e-07 3.57435e-09 -0.000179797)
(-1.52613e-07 -1.95108e-08 -0.000179676)
(2.43062e-07 -1.2008e-09 -0.000180279)
(4.30311e-07 8.40639e-09 -0.00017978)
(3.75758e-07 7.46236e-09 -0.000179473)
(3.83614e-07 5.11557e-09 -0.000179721)
(9.97464e-08 -1.08746e-08 -0.000179548)
(3.67857e-08 -8.31546e-09 -0.000179525)
(2.97478e-08 -6.57484e-09 -0.000179864)
(2.70743e-07 7.77376e-09 -0.000179595)
(6.69545e-07 1.81549e-08 -0.000180075)
(2.43561e-07 2.52429e-09 -0.000179636)
(2.56491e-07 4.04729e-09 -0.000180191)
(4.14566e-07 9.44916e-09 -0.000180143)
(2.50093e-07 3.71199e-09 -0.000179778)
(1.35702e-07 -5.07724e-09 -0.000180058)
(1.73584e-07 3.28394e-09 -0.000179735)
(2.87938e-07 7.55813e-09 -0.000179755)
(-3.54568e-08 -1.22699e-08 -0.000179841)
(1.23799e-07 -8.35485e-09 -0.000180264)
(1.93426e-08 -8.96484e-09 -0.000179444)
(3.89675e-08 -1.74172e-08 -0.000180223)
(4.63471e-07 1.35708e-08 -0.000180632)
(2.50142e-07 1.11711e-08 -0.00018021)
(5.9402e-07 2.97529e-08 -0.000180374)
(6.10211e-07 4.20562e-08 -0.000180803)
(-1.9346e-08 -3.40803e-09 -0.000180955)
(-1.34235e-07 -1.60068e-08 -0.000181276)
(-5.45804e-07 -3.48499e-08 -0.000180619)
(-3.4949e-07 -2.2281e-08 -0.000180477)
(-2.24415e-07 -1.64793e-08 -0.000180668)
(-5.55649e-07 -3.8999e-08 -0.000180123)
(-2.72056e-07 -2.4512e-08 -0.000180258)
(-2.65991e-07 -2.83617e-08 -0.000180224)
(-3.7676e-07 -2.88769e-08 -0.000180014)
(-2.83106e-07 -2.19263e-08 -0.000180303)
(-2.88638e-07 -2.38558e-08 -0.000179604)
(-3.27196e-07 -3.0196e-08 -0.000179723)
(-2.97528e-07 -2.53421e-08 -0.000179717)
(-3.33362e-07 -2.73694e-08 -0.000179701)
(-1.15644e-07 -2.26732e-08 -0.00017966)
(-9.212e-08 -2.16163e-08 -0.000179661)
(-1.99028e-08 1.79304e-08 -0.000182151)
(-1.15198e-07 6.50775e-09 -0.000182193)
(6.51051e-08 1.34351e-08 -0.000181952)
(2.47806e-07 3.06176e-08 -0.000181986)
(2.96349e-08 1.25086e-08 -0.000181773)
(2.27856e-08 1.13826e-08 -0.000181364)
(6.10482e-08 1.79292e-08 -0.000181145)
(2.51795e-07 2.86951e-08 -0.000181188)
(2.04051e-07 2.70864e-08 -0.000181475)
(1.09207e-07 1.54512e-08 -0.000181059)
(4.27025e-07 2.97228e-08 -0.000181243)
(3.03716e-07 2.93355e-08 -0.000182059)
(2.84917e-07 2.54606e-08 -0.000181503)
(1.18695e-07 2.09029e-08 -0.000181827)
(7.3025e-08 1.4016e-08 -0.000181752)
(1.99021e-07 2.39754e-08 -0.000182142)
(4.28488e-08 1.01512e-08 -0.000181846)
(4.52018e-07 3.81329e-08 -0.000182204)
(1.11544e-07 2.5975e-08 -0.000182144)
(2.20853e-07 2.9396e-08 -0.000182524)
(3.75191e-07 3.70769e-08 -0.000182844)
(-9.22726e-08 7.22484e-09 -0.000181963)
(1.69977e-07 2.68011e-08 -0.000182035)
(3.50723e-07 3.78687e-08 -0.000181926)
(-2.47174e-08 1.24711e-08 -0.000181533)
(7.1545e-08 1.98342e-08 -0.000181448)
(1.98304e-07 2.68118e-08 -0.000181594)
(1.8144e-07 1.89041e-08 -0.000181682)
(3.35587e-07 2.35814e-08 -0.000181135)
(2.80681e-07 2.53637e-08 -0.000181405)
(2.05075e-07 2.05627e-08 -0.000181271)
(1.30894e-07 1.75293e-08 -0.000181515)
(1.18521e-07 2.01296e-08 -0.000181088)
(3.97541e-07 3.23227e-08 -0.000181405)
(9.35485e-08 2.05124e-08 -0.000181905)
(2.01747e-07 1.24848e-08 -0.0001812)
(4.48668e-07 3.91925e-08 -0.00018165)
(4.01815e-07 3.48416e-08 -0.000181985)
(2.6611e-07 2.54619e-08 -0.000181459)
(3.61158e-07 3.7071e-08 -0.000181754)
(2.32172e-07 2.09092e-08 -0.000181655)
(4.07401e-07 3.59502e-08 -0.000181679)
(3.6514e-07 3.71806e-08 -0.000181632)
(7.45161e-08 2.00574e-08 -0.000181611)
(3.51387e-07 2.55486e-08 -0.000181537)
(2.95056e-07 3.64684e-08 -0.000182119)
(2.49783e-07 2.6795e-08 -0.000181943)
(4.17365e-07 3.73418e-08 -0.000181723)
(1.39596e-07 3.46759e-08 -0.000182289)
(5.56839e-07 6.13875e-08 -0.00018281)
(1.36076e-06 8.66271e-08 -0.000182642)
(8.79871e-07 7.05483e-08 -0.000182906)
(4.63425e-07 4.17534e-08 -0.000182639)
(4.84978e-07 4.6641e-08 -0.00018228)
(4.41284e-07 4.25169e-08 -0.000182463)
(1.76448e-07 2.55338e-08 -0.000182449)
(1.66146e-08 2.32651e-08 -0.000182157)
(5.92541e-08 1.93069e-08 -0.000182093)
(2.11014e-07 2.35195e-08 -0.000181854)
(2.28457e-07 3.26246e-08 -0.000182115)
(-2.88756e-07 3.17981e-10 -0.000181926)
(-1.25391e-07 8.41254e-09 -0.000181454)
(2.4807e-08 1.29614e-08 -0.0001816)
(-2.65168e-08 1.51181e-08 -0.000181566)
(-2.54152e-07 4.66182e-09 -0.000181748)
(-2.94382e-07 -5.48355e-10 -0.000181663)
(-8.72164e-09 5.83694e-09 -0.000181077)
(-1.37059e-07 -1.49636e-09 -0.000180066)
(-6.56899e-08 -6.32385e-09 -0.000180334)
(8.94556e-08 -1.74327e-08 -0.000180268)
(1.32103e-07 -2.21234e-08 -0.000179927)
(-8.27775e-08 -1.1024e-08 -0.000179896)
(1.25957e-07 -1.92326e-08 -0.000179863)
(6.03805e-08 -1.54575e-08 -0.000179322)
(1.348e-07 -2.29562e-08 -0.000179141)
(7.73054e-08 -1.40731e-08 -0.000179472)
(2.41678e-07 -2.57669e-08 -0.00017956)
(2.4562e-07 -2.81654e-08 -0.000179427)
(3.55835e-08 -1.39236e-08 -0.000179392)
(4.72633e-07 -3.86813e-08 -0.00017995)
(1.77458e-07 -1.70591e-08 -0.000179481)
(2.06566e-07 -2.92695e-08 -0.000179905)
(2.51509e-07 -2.87181e-08 -0.000179965)
(1.44846e-07 -2.66503e-08 -0.000180279)
(3.6566e-07 -2.59144e-08 -0.000180112)
(4.53994e-07 -3.33079e-08 -0.000180009)
(2.95364e-07 -2.53206e-08 -0.000180547)
(2.94284e-07 -2.44139e-08 -0.000180308)
(1.98682e-07 -2.27734e-08 -0.000180255)
(2.94451e-07 -2.70457e-08 -0.00018014)
(2.64969e-07 -3.073e-08 -0.000179694)
(-2.32115e-09 -1.73805e-08 -0.000179633)
(5.43656e-08 -1.50765e-08 -0.000179553)
(6.71246e-08 -1.32694e-08 -0.000179335)
(-1.44671e-07 -6.2366e-09 -0.000179769)
(2.58268e-07 -2.97677e-08 -0.000179579)
(1.86399e-07 -2.1038e-08 -0.00017907)
(2.51855e-07 -2.82244e-08 -0.000179306)
(2.83042e-07 -3.50893e-08 -0.000179247)
(3.97329e-07 -4.38979e-08 -0.000179406)
(1.77642e-07 -2.83471e-08 -0.000179535)
(2.1414e-07 -2.07996e-08 -0.000179477)
(5.07872e-07 -4.13619e-08 -0.000180011)
(4.81238e-07 -3.41829e-08 -0.000179258)
(3.05565e-07 -2.92217e-08 -0.000179632)
(4.66942e-07 -4.38941e-08 -0.000179934)
(5.55586e-07 -4.15326e-08 -0.000179549)
(2.84116e-07 -2.84667e-08 -0.000179623)
(3.52847e-07 -3.41138e-08 -0.000179706)
(4.94575e-07 -3.68834e-08 -0.000179806)
(2.07741e-07 -1.76068e-08 -0.000179698)
(4.94102e-07 -3.4995e-08 -0.000180393)
(7.22401e-07 -4.18074e-08 -0.000179675)
(5.5025e-07 -4.23077e-08 -0.000180082)
(8.59546e-07 -5.45056e-08 -0.000180653)
(1.22499e-06 -4.85111e-08 -0.000180349)
(1.80639e-06 -7.80905e-08 -0.000180468)
(9.59551e-07 -8.89561e-08 -0.000179461)
(1.01924e-06 -6.18079e-08 -0.00018028)
(7.55311e-07 -5.09302e-08 -0.000180328)
(6.31157e-07 -4.46269e-08 -0.000179947)
(4.20112e-07 -2.74308e-08 -0.000179872)
(1.2446e-07 -1.77902e-08 -0.000180173)
(1.47295e-07 -2.09451e-08 -0.000179988)
(-3.4167e-09 -5.49875e-09 -0.000180157)
(1.44755e-07 -2.0369e-08 -0.000180215)
(1.60545e-07 -2.57813e-08 -0.000180112)
(-3.33945e-07 2.98324e-09 -0.000180143)
(-8.28093e-08 -7.98529e-09 -0.000179917)
(6.77617e-08 -1.63092e-08 -0.000179759)
(1.06503e-07 -1.90584e-08 -0.000179571)
(-5.02549e-08 -5.45961e-09 -0.000179591)
(-5.12224e-08 -6.89486e-09 -0.000179793)
(-1.16652e-07 -9.39348e-09 -0.000179858)
(-7.26217e-09 1.6651e-08 -0.000181855)
(-1.07328e-09 1.56609e-08 -0.000182168)
(-1.05826e-07 1.85136e-08 -0.000181898)
(2.7166e-07 2.34693e-09 -0.000181736)
(1.01323e-07 8.5032e-09 -0.00018159)
(-1.53163e-07 1.72534e-08 -0.000181286)
(-2.17323e-07 2.49084e-08 -0.000181198)
(-9.42518e-09 1.52213e-08 -0.000181213)
(1.11371e-07 8.9765e-09 -0.000181203)
(3.96904e-08 2.90087e-09 -0.000181105)
(3.64429e-07 -1.21493e-08 -0.000180984)
(3.73302e-07 -3.82932e-09 -0.000181682)
(1.72916e-07 -5.23309e-10 -0.000181138)
(3.0862e-07 -1.2648e-09 -0.000181527)
(-1.00508e-07 8.80696e-09 -0.000181521)
(1.64561e-07 1.69555e-09 -0.000181827)
(-1.89246e-07 2.00072e-08 -0.000181794)
(3.49291e-07 -9.01442e-09 -0.000181792)
(5.30988e-07 -1.12436e-08 -0.000181944)
(8.62286e-08 1.02279e-08 -0.000182029)
(4.42337e-07 -1.16553e-08 -0.00018193)
(9.24332e-08 5.8563e-09 -0.000181622)
(-3.96852e-08 1.09028e-08 -0.000181718)
(7.11615e-08 6.55404e-09 -0.000181265)
(-1.38416e-07 2.04505e-08 -0.000181248)
(-1.97977e-07 2.36369e-08 -0.000181433)
(-2.49381e-08 1.92688e-08 -0.000181317)
(6.57417e-08 1.13678e-08 -0.000181507)
(-1.89994e-07 1.64852e-08 -0.000180856)
(4.95452e-08 9.45972e-09 -0.00018118)
(-2.16852e-07 1.85627e-08 -0.000180957)
(-1.72574e-07 1.58389e-08 -0.000181178)
(-1.0555e-07 1.15007e-08 -0.000181114)
(2.30534e-07 -6.89145e-09 -0.000180914)
(3.98828e-07 -2.00281e-09 -0.000181662)
(1.59547e-07 -3.22993e-09 -0.00018119)
(3.49964e-07 -5.12914e-09 -0.000181209)
(4.52738e-07 -1.14593e-08 -0.000181454)
(2.85832e-07 -9.01734e-09 -0.000181109)
(4.08679e-07 -7.55917e-09 -0.000181251)
(3.17342e-07 -3.56084e-09 -0.000181463)
(5.18098e-07 -1.783e-08 -0.000181418)
(5.152e-07 -1.74884e-08 -0.000181399)
(3.36006e-07 -3.48115e-09 -0.000181542)
(3.03996e-07 -1.26496e-08 -0.000181092)
(9.25686e-07 -3.06055e-08 -0.000181829)
(7.69999e-07 -2.94437e-08 -0.000181413)
(8.51411e-07 -4.43048e-08 -0.000180705)
(1.29252e-06 -6.33648e-08 -0.00018127)
(1.75357e-06 -7.27729e-08 -0.000182762)
(7.55176e-07 -3.0003e-08 -0.000181284)
(8.70514e-07 -3.57779e-08 -0.000181428)
(5.41369e-07 -2.06945e-08 -0.000181494)
(4.19225e-07 -1.4973e-08 -0.000181091)
(6.92844e-07 -2.24723e-08 -0.000181482)
(5.90144e-07 -2.14966e-08 -0.000181784)
(1.39622e-07 1.05968e-08 -0.000181724)
(2.34353e-07 6.86584e-09 -0.000181975)
(5.46922e-09 8.34356e-09 -0.00018156)
(4.32216e-07 -8.40463e-09 -0.000181673)
(2.51482e-08 1.59571e-08 -0.000181991)
(-1.2342e-07 1.894e-08 -0.000181578)
(-1.0357e-07 1.24111e-08 -0.000181232)
(1.54622e-07 2.66174e-09 -0.000181146)
(1.06878e-07 1.39693e-08 -0.000181488)
(-6.87781e-09 2.09495e-08 -0.000181805)
(-1.52874e-07 1.93196e-08 -0.00018104)
(-1.42043e-07 1.12899e-08 -0.000180214)
(-1.4294e-07 1.23706e-08 -0.000180355)
(-1.43902e-07 1.2709e-08 -0.000180483)
(2.7131e-07 -5.47392e-08 -0.000180376)
(2.32521e-08 -1.86862e-08 -0.000179908)
(-1.9551e-07 1.99826e-08 -0.000180072)
(-1.21411e-07 1.03846e-08 -0.000179831)
(5.92267e-08 -1.65704e-08 -0.000179799)
(3.95775e-08 -1.72544e-08 -0.000179766)
(-1.85803e-07 1.81117e-08 -0.000179481)
(3.59068e-07 -6.92705e-08 -0.000179757)
(5.6215e-08 -2.23847e-08 -0.000178983)
(2.83555e-07 -6.67743e-08 -0.000179788)
(1.86371e-07 -4.51552e-08 -0.000179222)
(-1.25958e-07 5.19662e-09 -0.000179583)
(9.00609e-08 -2.53589e-08 -0.000180041)
(-1.99537e-07 1.47366e-08 -0.000180008)
(2.74101e-07 -6.1938e-08 -0.000180056)
(6.09625e-07 -1.08689e-07 -0.000179675)
(1.85925e-07 -4.24003e-08 -0.000179716)
(3.1788e-07 -6.8585e-08 -0.000179809)
(-6.87266e-08 -2.89243e-09 -0.000179524)
(-3.931e-08 -7.47861e-09 -0.000179852)
(1.09384e-07 -3.58068e-08 -0.000179579)
(5.33531e-09 -1.4354e-08 -0.000179521)
(-2.13993e-07 1.84375e-08 -0.000179506)
(1.5687e-07 -3.70504e-08 -0.000179743)
(-2.39168e-07 2.1325e-08 -0.000179633)
(-1.98768e-07 1.29296e-08 -0.000179825)
(-1.27292e-07 6.87661e-09 -0.000179491)
(-3.05798e-07 3.7126e-08 -0.000179627)
(-2.08674e-07 2.42178e-08 -0.000179676)
(7.98963e-08 -2.09478e-08 -0.000179924)
(7.62385e-08 -2.73081e-08 -0.000179563)
(2.52522e-07 -5.19499e-08 -0.000179252)
(2.39989e-07 -5.24722e-08 -0.000179578)
(4.58161e-07 -8.4194e-08 -0.000178932)
(5.06434e-07 -9.56354e-08 -0.000178982)
(2.6841e-07 -6.05025e-08 -0.000179176)
(4.07944e-07 -7.59905e-08 -0.000179088)
(5.25789e-07 -9.19233e-08 -0.00017927)
(5.43564e-07 -1.00487e-07 -0.000179294)
(4.20512e-07 -8.14661e-08 -0.000179332)
(1.50289e-07 -3.89992e-08 -0.000179291)
(9.4744e-08 -3.04008e-08 -0.000180039)
(8.17808e-07 -1.44667e-07 -0.000179749)
(5.83679e-07 -1.16496e-07 -0.000179315)
(6.68023e-08 -3.22624e-08 -0.000179522)
(3.54761e-08 -2.53509e-08 -0.000179373)
(1.92625e-06 -3.09137e-07 -0.000180587)
(1.22988e-06 -2.25588e-07 -0.000177719)
(9.12683e-07 -1.66142e-07 -0.000178943)
(4.45081e-07 -8.86072e-08 -0.00017878)
(4.72517e-07 -9.55587e-08 -0.000178902)
(7.54539e-07 -1.33013e-07 -0.000179055)
(2.69806e-07 -5.89416e-08 -0.000178999)
(4.0898e-07 -7.7622e-08 -0.000179527)
(1.09217e-07 -3.56225e-08 -0.000179705)
(-1.04358e-07 4.88452e-09 -0.000179784)
(4.58838e-07 -8.71005e-08 -0.000180061)
(-1.1916e-08 -1.26473e-08 -0.000179496)
(5.93481e-08 -2.53163e-08 -0.000179937)
(-1.52319e-07 1.29089e-08 -0.000179654)
(1.5678e-07 -3.94434e-08 -0.000179806)
(1.70505e-07 -3.93678e-08 -0.000179618)
(1.0789e-07 -2.66519e-08 -0.000179825)
(2.40027e-09 -1.39012e-08 -0.000179663)
(1.01968e-07 3.13175e-09 -0.000182044)
(1.39574e-07 -5.19483e-09 -0.000182365)
(1.05376e-07 3.22594e-11 -0.000182435)
(2.87531e-07 -3.18467e-08 -0.000181976)
(2.08313e-07 -1.80973e-08 -0.000181594)
(2.41542e-07 -2.3489e-08 -0.000181617)
(8.48139e-08 4.92807e-09 -0.000181655)
(4.63139e-07 -5.29255e-08 -0.000181768)
(3.62375e-07 -4.21969e-08 -0.000181363)
(1.55872e-07 -1.01231e-08 -0.000181397)
(9.15021e-08 -1.19014e-08 -0.000181084)
(1.68398e-07 -1.06326e-08 -0.00018134)
(-1.34112e-07 2.51804e-08 -0.00018108)
(1.32969e-07 -9.57975e-09 -0.000181117)
(3.27609e-08 2.75534e-09 -0.000181509)
(2.0969e-07 -2.45367e-08 -0.000181601)
(-4.20569e-08 2.10276e-08 -0.00018192)
(-3.6759e-07 6.63647e-08 -0.000181562)
(1.40773e-07 -1.46822e-08 -0.000181333)
(-1.90318e-08 1.60046e-08 -0.000181901)
(-1.92182e-07 3.66765e-08 -0.000181433)
(3.14716e-08 1.05808e-08 -0.000181376)
(-1.48931e-07 3.55968e-08 -0.000181798)
(-2.60835e-07 4.90625e-08 -0.000181246)
(-2.29494e-07 5.13108e-08 -0.000181266)
(-2.76824e-07 5.69461e-08 -0.000181703)
(-2.68454e-07 5.29013e-08 -0.000181639)
(-8.13974e-08 2.67197e-08 -0.000181448)
(-2.64886e-07 5.14583e-08 -0.000181322)
(5.19886e-08 4.0676e-09 -0.000181436)
(1.2186e-07 -3.33076e-09 -0.000181505)
(-4.62656e-08 2.38502e-08 -0.000181504)
(1.76823e-07 -1.44199e-08 -0.000181601)
(1.42455e-07 -1.47369e-08 -0.00018094)
(1.58684e-07 -7.0661e-09 -0.000181109)
(5.04123e-08 2.69325e-09 -0.000180872)
(1.11066e-07 -5.24191e-09 -0.000180854)
(-6.26861e-08 1.88183e-08 -0.000180753)
(8.72359e-08 -6.89133e-09 -0.000180719)
(2.02484e-07 -1.87453e-08 -0.000180898)
(1.30366e-07 -7.81175e-09 -0.000181194)
(1.92947e-07 -2.06424e-08 -0.00018102)
(3.6148e-07 -4.73978e-08 -0.000181186)
(4.64387e-07 -6.02682e-08 -0.000181483)
(2.22843e-08 1.04785e-09 -0.000181236)
(6.81961e-07 -1.05417e-07 -0.000181739)
(5.93906e-07 -8.42255e-08 -0.000181238)
(4.20369e-07 -5.38083e-08 -0.00018086)
(8.30174e-07 -1.20438e-07 -0.000180739)
(1.36219e-06 -2.36564e-07 -0.000181335)
(1.94746e-07 -1.81832e-08 -0.0001803)
(6.33254e-08 -8.64039e-09 -0.000180368)
(-7.75603e-08 2.16972e-08 -0.000180649)
(-1.83574e-07 3.20185e-08 -0.000180619)
(-4.76626e-08 1.12583e-08 -0.000180777)
(4.12765e-07 -5.52107e-08 -0.00018085)
(3.31342e-07 -3.60424e-08 -0.00018144)
(3.64073e-07 -4.21688e-08 -0.000181709)
(2.93859e-08 7.17053e-09 -0.000181594)
(1.29503e-07 -1.23954e-08 -0.000181152)
(2.05447e-07 -1.51558e-08 -0.000181576)
(1.67189e-07 -1.24175e-08 -0.000181693)
(-3.00676e-08 1.73685e-08 -0.000181538)
(9.64106e-08 -1.08014e-08 -0.000181288)
(2.27324e-07 -2.33845e-08 -0.000181427)
(3.10785e-07 -3.42203e-08 -0.000181719)
(-1.73653e-07 3.95421e-08 -0.000180928)
(1.72763e-07 -5.62704e-08 -0.000180339)
(3.06637e-07 -9.84467e-08 -0.000180401)
(1.58951e-07 -5.94279e-08 -0.000180369)
(3.84653e-07 -1.21179e-07 -0.000180384)
(2.9387e-07 -9.39054e-08 -0.000179748)
(3.56996e-08 -2.11508e-08 -0.000179823)
(8.96734e-08 -3.42937e-08 -0.000179686)
(4.85582e-07 -1.3837e-07 -0.00017979)
(3.47389e-07 -1.04379e-07 -0.000179357)
(-1.47746e-08 -8.02883e-09 -0.000179109)
(-3.37047e-08 -3.28866e-09 -0.000179814)
(4.00364e-08 -1.71741e-08 -0.000179209)
(-2.17719e-07 5.10441e-08 -0.000179712)
(3.05829e-08 -2.00039e-08 -0.000179336)
(-2.67922e-07 5.11769e-08 -0.000179159)
(5.38421e-08 -3.51224e-08 -0.000179931)
(-2.98939e-07 6.51113e-08 -0.000179679)
(-2.38901e-07 4.64344e-08 -0.000180276)
(2.07974e-07 -6.65791e-08 -0.000180063)
(-3.23769e-08 1.23387e-09 -0.000179659)
(-3.13457e-08 -5.06201e-09 -0.000180087)
(-7.24009e-09 -1.09586e-08 -0.000179962)
(-1.1479e-07 2.03595e-08 -0.000180175)
(-6.68676e-08 1.41191e-09 -0.000179978)
(-1.16242e-07 2.37081e-08 -0.000179862)
(-3.37118e-07 7.84815e-08 -0.000179602)
(-2.25398e-07 4.61236e-08 -0.000180049)
(-1.42847e-07 2.19011e-08 -0.000179807)
(-3.74867e-07 8.54838e-08 -0.000179776)
(-3.89555e-08 1.53095e-09 -0.000179696)
(-8.90893e-08 9.96748e-09 -0.000179471)
(-1.58496e-07 2.70618e-08 -0.00017955)
(-6.02349e-08 1.18933e-09 -0.00017984)
(-5.3713e-08 -1.19546e-09 -0.000179519)
(1.49203e-07 -4.65021e-08 -0.000179292)
(-3.39725e-08 -4.5335e-09 -0.000179416)
(-6.50244e-08 3.73897e-09 -0.000179102)
(1.10459e-07 -3.89387e-08 -0.000179106)
(4.50617e-08 -2.91224e-08 -0.000179157)
(1.21319e-07 -5.01239e-08 -0.000179201)
(1.97792e-07 -6.59482e-08 -0.000179301)
(3.24225e-07 -9.8167e-08 -0.000179335)
(4.47855e-07 -1.28958e-07 -0.000179408)
(4.5397e-07 -1.32972e-07 -0.000179242)
(-1.8404e-07 3.25981e-08 -0.000179701)
(4.73672e-07 -1.34128e-07 -0.000180142)
(5.57452e-07 -1.65779e-07 -0.000179101)
(1.43269e-07 -5.50086e-08 -0.000179147)
(-5.22946e-07 1.13362e-07 -0.0001789)
(-1.65496e-07 1.69941e-08 -0.000180434)
(4.70846e-07 -1.38991e-07 -0.000178078)
(1.97798e-07 -6.93352e-08 -0.000179032)
(8.17277e-09 -1.92704e-08 -0.000179181)
(-1.96502e-07 3.35045e-08 -0.000179363)
(4.43928e-08 -2.59745e-08 -0.000179517)
(2.59056e-07 -8.58141e-08 -0.000179173)
(4.11644e-07 -1.18801e-07 -0.000179385)
(6.25798e-07 -1.8237e-07 -0.000179559)
(1.32113e-07 -5.00241e-08 -0.00017934)
(2.00241e-07 -6.26156e-08 -0.000179856)
(3.3589e-07 -9.24255e-08 -0.000179475)