/*--------------------------------*- C++ -*----------------------------------*\
| =========                 |                                                 |
| \\      /  F ield         | OpenFOAM: The Open Source CFD Toolbox           |
|  \\    /   O peration     | Version:  2206                                  |
|   \\  /    A nd           | Website:  www.openfoam.com                      |
|    \\/     M anipulation  |                                                 |
\*---------------------------------------------------------------------------*/
FoamFile
{
    version     2.0;
    format      ascii;
    arch        "LSB;label=32;scalar=64";
    class       volScalarField;
    location    "149";
    object      k;
}
// * * * * * * * * * * * * * * * * * * * * * * * * * * * * * * * * * * * * * //

dimensions      [0 2 -2 0 0 0 0];

internalField   nonuniform List<scalar> 
66940
(
0.000102408
0.000127737
0.000126966
0.000125708
0.000102687
0.00012795
0.000127028
0.000125708
0.000102867
0.000128051
0.000127305
0.000125859
0.000102675
0.000128026
0.00012743
0.000126104
0.000102429
0.000128181
0.000127369
0.000126187
0.000103203
0.000128609
0.000127624
0.000126132
0.000103098
0.000128663
0.000127618
0.000126167
0.000103115
0.000128653
0.000127813
0.000125655
0.000103471
0.000128696
0.000127967
0.000125707
0.000104007
0.000128736
0.000127979
0.000125718
0.00010334
0.000127696
0.000127332
0.000125334
0.000104758
0.000124187
0.000124025
0.000118925
0.000125565
0.00012612
0.00012712
0.000126647
0.000126567
0.000127709
0.000127738
0.000126856
0.00012679
0.000126996
0.000126297
0.000125732
0.000125538
0.000125525
0.00012614
0.000127234
0.000126025
0.000127149
0.000126642
0.00012672
0.000126473
0.000128012
0.000126364
0.000127639
0.000127169
0.000128022
0.000127005
0.00012677
0.000126812
0.00012627
0.000127078
0.000126445
0.000125766
0.000125635
0.000125783
0.000126088
0.000127385
0.000126365
0.000127523
0.000126857
0.000127025
0.000126672
0.000127939
0.000126783
0.000127902
0.000127389
0.000128025
0.000127503
0.000126932
0.00012699
0.000126333
0.000127354
0.00012673
0.000125997
0.000125769
0.00012597
0.000126476
0.000127535
0.000126521
0.000127508
0.000127004
0.000127159
0.00012694
0.000127897
0.000126748
0.00012773
0.000127603
0.000127786
0.000127584
0.000126983
0.000127085
0.000126678
0.000127316
0.000126743
0.000126168
0.000125896
0.00012617
0.000126489
0.000127591
0.000126603
0.000127382
0.00012716
0.000127416
0.000126892
0.000127864
0.000126858
0.000128152
0.000127584
0.000128169
0.000127521
0.000127186
0.000127242
0.000126681
0.000127646
0.000126773
0.000126219
0.000126285
0.000126356
0.000126687
0.00012772
0.000126601
0.000127737
0.000127426
0.000127552
0.000127005
0.000128298
0.00012723
0.000128515
0.000127764
0.000128342
0.000127519
0.000127151
0.000127372
0.000126779
0.000127627
0.000126837
0.000126203
0.000126347
0.00012648
0.000126488
0.000127835
0.000126898
0.000127811
0.000127544
0.000127547
0.000127421
0.000128584
0.000127495
0.000128431
0.000127591
0.000128636
0.000127697
0.00012748
0.000127476
0.000126938
0.000127413
0.000126958
0.000126206
0.000126477
0.000126294
0.000127045
0.000127995
0.000126793
0.00012806
0.000127515
0.000127283
0.000127581
0.000128516
0.000127211
0.000128465
0.000127801
0.000128602
0.000127018
0.000127474
0.000127322
0.000126977
0.000127711
0.000126889
0.000125801
0.000126457
0.000126302
0.000127074
0.000128182
0.000127116
0.000128084
0.000127394
0.000127357
0.000127688
0.000128604
0.000127721
0.000128596
0.000127336
0.000128588
0.000127369
0.000127255
0.000127379
0.000126972
0.000127869
0.000126865
0.000125673
0.000126472
0.000126575
0.000127261
0.000128239
0.000127166
0.000128146
0.000127314
0.000127511
0.000127907
0.000128774
0.000127862
0.000128682
0.000127546
0.000128611
0.000127349
0.000127456
0.000127449
0.000126955
0.000127841
0.000126708
0.000125626
0.000126693
0.000126282
0.000127383
0.000128334
0.000127102
0.000127776
0.000127609
0.000127196
0.00012804
0.00012889
0.000127423
0.000128281
0.000127557
0.000128434
0.000127193
0.000127566
0.000127121
0.000126867
0.000127384
0.000126195
0.000125286
0.000126344
0.000123376
0.000126975
0.000127763
0.000125788
0.000126599
0.000127255
0.00012417
0.000127108
0.000128166
0.000126062
0.000127004
0.000126524
0.000126063
0.000125394
0.000127193
0.00012423
0.00012613
0.000126227
0.000125127
0.000122452
0.000119819
0.000123672
0.000124547
0.000120398
0.000123914
0.000124715
0.000105657
0.000105427
0.000104621
0.000123095
0.000120612
0.00012281
2.18397e-05
0.0001026
0.000103396
0.00010317
0.000102705
0.000119058
0.000127793
8.98899e-05
0.000118578
0.000125649
5.21194e-05
5.20468e-05
8.88151e-05
3.44833e-05
8.88384e-05
3.4417e-05
2.20644e-05
2.2036e-05
8.79976e-05
3.42104e-05
8.81134e-05
3.41409e-05
0.000103387
0.000103479
0.000102803
0.000102789
0.000103153
0.000103651
0.000103138
0.000119217
8.99977e-05
0.000118843
0.000127788
0.000119249
8.99197e-05
0.000118587
2.21553e-05
2.2113e-05
0.000119576
0.000116504
9.06904e-05
0.000127044
0.000119416
0.000117014
9.06297e-05
5.22038e-05
5.26056e-05
0.000125807
5.21274e-05
5.25144e-05
8.8834e-05
3.44371e-05
8.88565e-05
3.43971e-05
2.20672e-05
2.20455e-05
8.82042e-05
3.42587e-05
8.8265e-05
3.42152e-05
0.000103354
0.000103584
0.000103264
0.000102871
0.000103565
0.000103607
0.000103126
0.00011938
9.01315e-05
0.00011882
0.000127701
0.000119395
9.00808e-05
0.000119155
2.2176e-05
2.21404e-05
0.000119787
0.000116625
9.06416e-05
0.000127103
0.000119773
0.000117068
9.05041e-05
5.22975e-05
5.26028e-05
0.000125732
5.22339e-05
5.25686e-05
8.89283e-05
3.44782e-05
8.89505e-05
3.44611e-05
2.21053e-05
2.21025e-05
8.84751e-05
3.43859e-05
8.8534e-05
3.43583e-05
0.00010362
0.000103373
0.00010323
0.000102306
0.000103619
0.000103613
0.000103432
0.000119583
9.03688e-05
0.000118889
0.000127808
0.000119596
9.03599e-05
0.000119277
2.222e-05
2.21919e-05
0.000119681
0.000117021
9.06094e-05
0.000127319
0.000119637
0.000117437
9.05082e-05
5.24674e-05
5.27409e-05
0.000126052
5.24601e-05
5.2687e-05
8.91376e-05
3.45679e-05
8.90979e-05
3.45627e-05
2.21946e-05
2.22036e-05
8.86715e-05
3.45246e-05
8.87527e-05
3.44821e-05
0.000103755
0.000103384
0.000103463
0.000102727
0.00010378
0.000103877
0.000103295
0.000119763
9.06719e-05
0.000119171
0.000128129
0.000119786
9.05678e-05
0.00011923
2.2264e-05
2.22245e-05
0.000119817
0.000117451
9.06866e-05
0.000127514
0.00011974
0.000117403
9.05817e-05
5.26768e-05
5.28523e-05
0.000126007
5.25916e-05
5.28311e-05
8.93783e-05
3.46651e-05
8.9407e-05
3.46378e-05
2.22714e-05
2.22493e-05
8.86645e-05
3.46008e-05
8.88272e-05
3.45362e-05
0.000103539
0.000103842
0.000102862
0.000103154
0.000103938
0.000103696
0.000103451
0.000119637
9.07617e-05
0.000119413
0.000128418
0.000119694
9.05862e-05
0.00011946
2.22724e-05
2.22139e-05
0.000119806
0.000117426
9.07112e-05
0.000127588
0.000119827
0.000117435
9.06171e-05
5.2722e-05
5.29419e-05
0.000126264
5.26301e-05
5.28183e-05
8.93094e-05
3.46879e-05
8.93995e-05
3.465e-05
2.22737e-05
2.22452e-05
8.85811e-05
3.46324e-05
8.87603e-05
3.45637e-05
0.000104
0.000103636
0.000103191
0.00010328
0.000103998
0.000103883
0.000103701
0.000119412
9.0614e-05
0.00011951
0.000128615
0.000119515
9.03773e-05
0.000119385
2.22317e-05
2.21705e-05
0.000119735
0.000117504
9.07439e-05
0.000127463
0.000119784
0.000117382
9.07012e-05
5.27078e-05
5.28337e-05
0.000126182
5.25473e-05
5.27366e-05
8.92808e-05
3.4697e-05
8.93229e-05
3.46625e-05
2.22609e-05
2.22267e-05
8.84279e-05
3.46355e-05
8.86221e-05
3.45499e-05
0.000103991
0.000103829
0.000103673
0.000103248
0.000103795
0.000104033
0.000103459
0.000119362
9.04453e-05
0.000119608
0.000128616
0.000119464
9.03121e-05
0.000119451
2.22032e-05
2.21612e-05
0.000119563
0.000117303
9.07479e-05
0.000127381
0.000119642
0.000117344
9.06202e-05
5.26101e-05
5.27398e-05
0.000126001
5.24777e-05
5.25772e-05
8.91295e-05
3.47102e-05
8.91775e-05
3.4666e-05
2.223e-05
2.22048e-05
8.83306e-05
3.45901e-05
8.85166e-05
3.448e-05
0.00010384
0.000103838
0.000103557
0.000103368
0.000104331
0.000103931
0.000103371
0.000119289
9.03796e-05
0.000119502
0.000128585
0.000119399
9.02378e-05
0.000119487
2.22051e-05
2.2176e-05
0.000119467
0.000117587
9.06967e-05
0.000127816
0.000119533
0.000117566
9.05635e-05
5.25276e-05
5.25665e-05
0.000125733
5.2352e-05
5.24705e-05
8.91979e-05
3.47083e-05
8.92015e-05
3.46584e-05
2.21946e-05
2.21868e-05
8.82155e-05
3.45147e-05
8.8389e-05
3.44119e-05
0.000104122
0.000103802
0.000103296
0.000103901
0.000104508
0.000103781
0.000103642
0.000119174
9.03e-05
0.000119708
0.000128592
0.000119154
9.01548e-05
0.000119688
2.22057e-05
2.21972e-05
0.000119307
0.000117739
9.05254e-05
0.000127833
0.000119308
0.000117647
9.04252e-05
5.23634e-05
5.24914e-05
0.00012564
5.2216e-05
5.23669e-05
8.9221e-05
3.47273e-05
8.92181e-05
3.46713e-05
2.21649e-05
2.22643e-05
8.80525e-05
3.44971e-05
8.81772e-05
3.43828e-05
0.000104646
0.000104189
0.00010379
0.000103266
0.000103955
0.000103671
0.000103149
0.000119169
9.02794e-05
0.00011983
0.000128568
0.000119112
9.02252e-05
0.000119686
2.21944e-05
2.22535e-05
0.000119281
0.000117838
9.04471e-05
0.000127786
0.000119176
0.00011771
9.04306e-05
5.22095e-05
5.23562e-05
0.000125527
5.21352e-05
5.2445e-05
8.76166e-05
3.4927e-05
8.83447e-05
3.44868e-05
2.23968e-05
2.2857e-05
8.78452e-05
3.49648e-05
8.82194e-05
3.46898e-05
0.000104024
0.000103761
0.000103191
0.000106728
0.000107405
0.000107493
0.000106448
0.00011859
9.06809e-05
0.000119261
0.000127527
0.000118912
9.03892e-05
0.000117848
2.24396e-05
2.30041e-05
0.000117705
0.000118092
9.03837e-05
0.000127089
0.000118558
0.000117488
8.95072e-05
5.24145e-05
5.2622e-05
0.000124359
5.23129e-05
5.21004e-05
7.75447e-05
5.70604e-06
6.97238e-05
2.64917e-05
4.84485e-06
2.16619e-05
7.77127e-05
5.72842e-06
6.98393e-05
2.65719e-05
7.37971e-05
8.70648e-05
8.71459e-05
0.00010791
7.19938e-05
9.00436e-05
8.88535e-05
0.000104158
5.73014e-05
0.000116558
0.000119667
0.000107396
5.60334e-05
0.000113348
4.85649e-06
2.17346e-05
0.000103696
0.000116347
5.68423e-05
0.0001203
0.000106659
0.000113186
5.55454e-05
3.47958e-05
3.48022e-05
0.000117962
3.82993e-05
3.81882e-05
2.17913e-05
2.16862e-05
2.17173e-05
2.17676e-05
0.000125479
5.23663e-05
5.19191e-05
5.22542e-05
5.20267e-05
3.42582e-05
0.000127105
8.95222e-05
8.75594e-05
3.44409e-05
3.40569e-05
8.86993e-05
8.77761e-05
3.48075e-05
3.43864e-05
8.89463e-05
0.000118146
0.000126043
8.96775e-05
0.0001152
8.90032e-05
0.000115648
0.000118741
0.000118257
0.000127124
9.05251e-05
0.000115766
8.97777e-05
0.000116095
0.000118889
0.000126649
5.23685e-05
5.2537e-05
2.19722e-05
2.20355e-05
2.1915e-05
0.000126624
5.28463e-05
5.25386e-05
5.27193e-05
5.26345e-05
2.19688e-05
2.20163e-05
8.80832e-05
3.41321e-05
3.41977e-05
8.79351e-05
0.000118557
0.000126473
8.90023e-05
0.000117902
8.91548e-05
0.000118055
0.000118567
8.82882e-05
3.46405e-05
3.47145e-05
8.81301e-05
0.000118859
0.000127935
0.000118298
9.01831e-05
0.000118372
9.03437e-05
0.000118855
8.83871e-05
3.44882e-05
0.000118967
0.000126876
0.000118451
8.92097e-05
8.82615e-05
3.41985e-05
0.000119197
0.000127727
8.98798e-05
0.000119008
9.00076e-05
0.000118875
0.000119154
8.85149e-05
3.44875e-05
3.45609e-05
8.8351e-05
0.00011904
0.000127094
0.000118381
8.91925e-05
0.00011846
8.93292e-05
0.000119
8.83897e-05
3.4202e-05
3.42734e-05
8.82627e-05
2.2105e-05
2.21501e-05
0.000126704
5.28157e-05
5.30333e-05
5.29345e-05
5.28776e-05
2.2089e-05
2.19673e-05
0.000118441
0.000126861
0.000116655
9.06076e-05
0.000116464
8.98235e-05
0.000119168
0.00011849
0.000125996
0.000116609
9.02278e-05
0.000116537
8.94957e-05
0.000119191
8.7842e-05
3.48126e-05
3.43859e-05
8.8978e-05
8.7937e-05
3.47103e-05
3.42938e-05
8.90981e-05
2.17707e-05
2.17333e-05
0.000125611
5.21018e-05
5.25285e-05
5.22158e-05
5.23975e-05
2.17624e-05
2.18146e-05
2.19287e-05
2.18088e-05
2.18178e-05
2.1789e-05
2.17637e-05
2.17188e-05
5.24498e-05
5.20247e-05
0.000125589
5.23644e-05
5.19204e-05
2.17911e-05
2.1816e-05
2.17386e-05
2.17689e-05
0.000125557
5.23807e-05
5.19658e-05
5.24568e-05
5.20341e-05
8.90022e-05
3.48547e-05
8.90582e-05
3.48056e-05
0.000119037
8.97872e-05
0.000115633
0.000126183
0.00011879
8.96383e-05
0.000115472
0.00011924
9.06322e-05
0.000115823
0.000127119
0.000119008
9.05121e-05
0.000115876
8.88708e-05
3.43914e-05
3.44504e-05
8.88139e-05
8.90711e-05
3.47763e-05
3.48445e-05
8.89699e-05
0.000119259
0.000126216
8.96001e-05
0.00011605
8.97291e-05
0.000115992
0.000119304
0.000119351
0.000127256
9.04803e-05
0.000116392
9.06183e-05
0.000116306
0.000119495
5.29327e-05
5.26466e-05
0.000126711
5.28654e-05
5.25593e-05
2.20181e-05
2.19843e-05
2.20389e-05
2.20652e-05
0.000126721
5.28701e-05
5.26077e-05
5.2943e-05
5.26861e-05
2.20022e-05
2.20351e-05
0.000118677
8.91927e-05
0.000117936
0.000126737
0.000118733
8.90274e-05
0.000118071
8.81888e-05
3.47166e-05
8.83063e-05
3.46474e-05
0.000118969
0.000118268
9.03491e-05
0.000127805
0.000118983
0.000118671
9.0261e-05
8.81752e-05
3.41678e-05
3.42233e-05
8.80864e-05
0.000118866
0.000126558
8.91207e-05
0.000118126
8.92442e-05
0.000118057
0.000118827
8.8359e-05
3.46611e-05
3.47257e-05
8.82703e-05
0.000119099
0.000127881
0.000118474
9.0291e-05
0.000118248
9.03866e-05
0.000119065
8.83927e-05
3.45652e-05
8.85381e-05
3.45037e-05
0.000119129
0.000118755
8.93147e-05
0.000127016
0.000119112
0.000118875
8.92526e-05
8.83157e-05
3.42781e-05
8.84172e-05
3.42175e-05
0.000119337
0.000127761
9.00027e-05
0.000119032
9.00591e-05
0.000118888
0.000119334
8.85848e-05
3.45367e-05
3.45879e-05
8.84791e-05
0.000119219
0.000127132
0.000118902
8.93343e-05
0.000118879
8.9386e-05
0.000119234
8.84825e-05
3.42548e-05
3.43021e-05
8.83952e-05
5.29375e-05
5.31072e-05
0.000126863
5.28522e-05
5.30433e-05
2.21164e-05
2.20915e-05
2.21244e-05
2.21618e-05
0.000126866
5.28799e-05
5.30532e-05
5.29862e-05
5.31019e-05
2.20883e-05
2.21202e-05
0.000119687
0.000116656
9.03322e-05
0.000126439
0.000119508
0.000116849
9.02059e-05
8.91455e-05
3.48574e-05
8.91622e-05
3.48185e-05
8.91439e-05
3.47567e-05
8.92576e-05
3.47052e-05
0.000119763
0.000127085
0.000116999
9.05523e-05
0.000116687
9.06867e-05
0.000119795
0.000119624
0.000126215
0.000116618
9.01576e-05
0.000116903
9.03133e-05
0.000119701
8.92114e-05
3.47871e-05
3.48527e-05
8.91727e-05
8.92177e-05
3.46748e-05
3.47414e-05
8.91829e-05
2.18116e-05
2.17798e-05
2.19559e-05
2.19198e-05
0.000125753
5.21831e-05
5.25096e-05
5.22476e-05
5.25861e-05
2.18028e-05
2.18298e-05
2.19183e-05
2.19477e-05
2.1821e-05
2.18061e-05
2.17937e-05
2.17758e-05
5.24767e-05
5.20943e-05
0.000125681
5.24173e-05
5.2045e-05
2.18298e-05
2.18385e-05
2.1827e-05
2.18354e-05
0.000125595
5.24591e-05
5.21506e-05
5.25056e-05
5.21828e-05
8.8995e-05
3.48103e-05
8.90539e-05
3.47514e-05
0.000119335
8.97069e-05
0.000116158
0.000126122
0.000119316
8.96041e-05
0.000116211
0.000119409
9.05286e-05
0.000116481
0.000127508
0.000119508
9.04427e-05
0.00011641
8.89009e-05
3.44252e-05
3.44513e-05
8.88909e-05
8.90736e-05
3.47684e-05
3.48001e-05
8.90286e-05
0.00011932
0.000126116
8.96136e-05
0.000115935
8.97199e-05
0.000116231
0.000119124
0.000119384
0.000127531
9.04362e-05
0.000116401
9.04981e-05
0.000116472
0.000119375
5.29614e-05
5.27277e-05
0.00012694
5.28958e-05
5.26633e-05
2.20559e-05
2.20299e-05
2.20693e-05
2.20774e-05
0.000126921
5.29453e-05
5.27488e-05
5.29838e-05
5.27928e-05
2.20727e-05
2.20867e-05
0.000118935
8.93354e-05
0.000118163
0.000126775
0.000118966
8.9252e-05
0.000118065
8.83716e-05
3.4741e-05
8.84458e-05
3.46862e-05
0.000119171
0.000118287
9.04002e-05
0.000127827
0.000119206
0.000118741
9.03232e-05
8.83971e-05
3.42836e-05
3.4313e-05
8.83505e-05
0.000119125
0.000126765
8.93973e-05
0.000118406
8.94349e-05
0.000118459
0.0001191
8.85545e-05
3.47267e-05
3.47762e-05
8.84981e-05
0.000119274
0.000127879
0.000118828
9.03755e-05
0.000118738
9.05254e-05
0.000119277
8.85743e-05
3.4625e-05
8.86532e-05
3.45793e-05
0.000119343
0.00011888
8.94922e-05
0.000127405
0.000119331
0.00011888
8.9463e-05
8.8501e-05
3.43481e-05
8.85708e-05
3.43143e-05
0.000119558
0.000127926
9.01914e-05
0.000119201
9.02061e-05
0.000119229
0.000119523
8.87576e-05
3.46365e-05
3.4671e-05
8.8701e-05
0.000119477
0.000127523
0.000118877
8.96156e-05
0.000118834
8.96405e-05
0.000119433
8.86864e-05
3.43905e-05
3.44154e-05
8.86269e-05
5.29887e-05
5.31259e-05
0.000127018
5.29065e-05
5.30436e-05
2.21139e-05
2.20882e-05
2.21644e-05
2.21921e-05
0.000126953
5.29443e-05
5.30596e-05
5.30434e-05
5.3112e-05
2.21e-05
2.21196e-05
0.000119711
0.00011681
9.02559e-05
0.000126725
0.000119667
0.000116994
9.01294e-05
8.91988e-05
3.48259e-05
8.92268e-05
3.47717e-05
8.91966e-05
3.47127e-05
8.92397e-05
3.46619e-05
0.000119725
0.000127053
0.000117278
9.0506e-05
0.000117202
9.06131e-05
0.000119745
0.000119727
0.00012673
0.000117002
9.01504e-05
0.000116983
9.02477e-05
0.000119722
8.92506e-05
3.47922e-05
3.48258e-05
8.92164e-05
8.92425e-05
3.46836e-05
3.47171e-05
8.92054e-05
2.18563e-05
2.18351e-05
2.19484e-05
2.1936e-05
0.000125794
5.23295e-05
5.26376e-05
5.23657e-05
5.26659e-05
2.18839e-05
2.1894e-05
2.19673e-05
2.19705e-05
2.18635e-05
2.18596e-05
2.18886e-05
2.1882e-05
5.25473e-05
5.22935e-05
0.000125873
5.25118e-05
5.22678e-05
2.18952e-05
2.18952e-05
2.19286e-05
2.19426e-05
0.000125889
5.25838e-05
5.23698e-05
5.26072e-05
5.24085e-05
8.91086e-05
3.48164e-05
8.9134e-05
3.48054e-05
0.000119262
8.97335e-05
0.000116408
0.000126499
0.000119229
8.96739e-05
0.000116341
0.000119363
9.04973e-05
0.000116547
0.000127326
0.000119395
9.04915e-05
0.00011633
8.90133e-05
3.45093e-05
3.45165e-05
8.89901e-05
8.91895e-05
3.4874e-05
3.48656e-05
8.91761e-05
0.000119253
0.000126323
8.9756e-05
0.000116278
8.97761e-05
0.00011624
0.000119086
0.000119444
0.000127582
9.06328e-05
0.000116227
9.06041e-05
0.000116497
0.000119329
5.30412e-05
5.28914e-05
0.000127055
5.30215e-05
5.2866e-05
2.21339e-05
2.21318e-05
2.21522e-05
2.2142e-05
0.000127042
5.31142e-05
5.29797e-05
5.311e-05
5.30218e-05
2.21784e-05
2.21923e-05
0.000119163
8.9574e-05
0.000118472
0.000126943
0.000119217
8.95443e-05
0.000118114
8.86213e-05
3.48182e-05
8.86837e-05
3.47756e-05
0.000119421
0.000118897
9.05518e-05
0.000127717
0.000119406
0.000118956
9.04899e-05
8.86591e-05
3.44276e-05
3.44593e-05
8.85927e-05
0.000119322
0.000126985
8.96799e-05
0.000118272
8.9719e-05
0.000118409
0.000119208
8.88013e-05
3.48224e-05
3.48697e-05
8.87343e-05
0.000119514
0.000127747
0.000118826
9.05416e-05
0.000118846
9.06716e-05
0.000119491
8.88212e-05
3.47387e-05
8.88879e-05
3.47139e-05
0.00011941
0.000118614
8.97967e-05
0.000127507
0.000119498
0.000118919
8.97699e-05
8.87301e-05
3.44945e-05
8.88104e-05
3.44699e-05
0.000119691
0.000128009
9.05137e-05
0.000119353
9.05438e-05
0.000119289
0.000119646
8.90055e-05
3.47882e-05
3.48174e-05
8.89348e-05
0.000119553
0.000127611
0.000118719
8.9907e-05
0.000118899
8.99511e-05
0.000119532
8.89071e-05
3.45386e-05
3.45715e-05
8.88248e-05
5.30657e-05
5.31394e-05
0.000127066
5.30002e-05
5.30879e-05
2.21303e-05
2.21185e-05
2.22119e-05
2.22439e-05
0.000127065
5.30294e-05
5.31363e-05
5.31366e-05
5.31607e-05
2.21404e-05
2.21532e-05
0.00011967
0.000116643
9.02513e-05
0.000126677
0.000119704
0.00011707
9.02272e-05
8.92111e-05
3.48423e-05
8.92672e-05
3.48188e-05
8.92402e-05
3.47344e-05
8.92705e-05
3.47176e-05
0.000119687
0.00012733
0.000117367
9.05773e-05
0.000117073
9.06468e-05
0.000119751
0.000119746
0.000126757
0.000117291
9.03091e-05
0.000117239
9.03249e-05
0.000119722
8.93288e-05
3.48473e-05
3.48699e-05
8.93045e-05
8.93258e-05
3.47527e-05
3.47703e-05
8.92801e-05
2.19463e-05
2.19471e-05
2.2003e-05
2.19917e-05
0.000125956
5.25619e-05
5.27577e-05
5.25983e-05
5.27848e-05
2.19897e-05
2.20049e-05
2.20217e-05
2.20287e-05
2.19312e-05
2.19311e-05
2.19854e-05
2.19617e-05
5.26819e-05
5.25017e-05
0.000126111
5.26619e-05
5.2444e-05
2.19604e-05
2.19659e-05
2.19836e-05
2.20152e-05
0.000126096
5.27266e-05
5.24947e-05
5.27575e-05
5.25667e-05
8.92905e-05
3.49398e-05
8.9269e-05
3.49496e-05
0.00011932
8.98635e-05
0.000116266
0.00012653
0.00011915
8.98607e-05
0.000116605
0.000119527
9.0758e-05
0.000116738
0.000127554
0.000119345
9.07772e-05
0.000116807
8.92823e-05
3.46117e-05
3.46206e-05
8.9294e-05
8.94304e-05
3.50071e-05
3.50111e-05
8.94358e-05
0.000119456
0.000126655
8.99545e-05
0.00011673
8.99747e-05
0.000116727
0.000119491
0.000119607
0.00012748
9.09153e-05
0.000116742
9.08979e-05
0.000116429
0.00011967
5.32262e-05
5.3111e-05
0.000127279
5.32267e-05
5.30487e-05
2.22355e-05
2.22083e-05
2.22394e-05
2.22418e-05
0.000127263
5.33098e-05
5.30861e-05
5.33307e-05
5.31726e-05
2.22204e-05
2.22604e-05
0.000119297
8.98525e-05
0.000118279
0.000126718
0.000119334
8.97937e-05
0.000118609
8.88234e-05
3.49109e-05
8.89065e-05
3.48568e-05
0.00011949
0.00011895
9.07022e-05
0.000127985
0.00011956
0.000119001
9.06034e-05
8.8811e-05
3.45187e-05
3.45718e-05
8.86919e-05
0.00011937
0.000126814
8.98812e-05
0.000118422
8.99582e-05
0.000118617
0.000119351
8.89743e-05
3.48689e-05
3.49394e-05
8.88566e-05
0.000119559
0.000128171
0.000118763
9.06156e-05
0.000118787
9.07457e-05
0.000119544
8.90334e-05
3.48849e-05
8.9106e-05
3.48369e-05
0.000119591
0.000119128
9.00688e-05
0.000127639
0.000119653
0.0001188
8.99893e-05
8.8918e-05
3.46337e-05
8.90014e-05
3.45883e-05
0.000119764
0.000128188
9.05775e-05
0.00011904
9.07727e-05
0.000119166
0.000119742
8.91711e-05
3.48544e-05
3.49232e-05
8.90275e-05
0.000119718
0.000127672
0.000119103
8.9996e-05
0.000119051
9.01092e-05
0.00011955
8.9071e-05
3.46109e-05
3.46732e-05
8.89451e-05
5.31431e-05
5.32192e-05
0.000127232
5.30521e-05
5.31609e-05
2.21707e-05
2.21557e-05
2.22267e-05
2.22719e-05
0.000127199
5.30633e-05
5.31818e-05
5.31816e-05
5.32325e-05
2.21665e-05
2.21876e-05
0.000119742
0.00011734
9.03946e-05
0.000126911
0.000119749
0.000116943
9.03524e-05
8.9327e-05
3.48954e-05
8.93583e-05
3.48643e-05
8.93251e-05
3.48019e-05
8.93811e-05
3.47682e-05
0.000119819
0.000127624
0.000117525
9.05996e-05
0.00011712
9.06949e-05
0.000119832
0.000119842
0.000126692
0.000117198
9.0333e-05
0.000117175
9.0418e-05
0.000119711
8.93766e-05
3.48722e-05
3.49125e-05
8.92885e-05
8.93724e-05
3.47545e-05
3.48042e-05
8.92935e-05
2.2043e-05
2.20092e-05
2.20565e-05
2.20448e-05
0.000126092
5.26177e-05
5.28602e-05
5.27042e-05
5.29173e-05
2.20176e-05
2.20596e-05
2.20509e-05
2.20742e-05
2.19916e-05
2.19765e-05
2.20341e-05
2.19971e-05
5.28136e-05
5.26097e-05
0.000126337
5.27613e-05
5.25244e-05
2.19841e-05
2.20044e-05
2.20082e-05
2.20462e-05
0.000126333
5.27821e-05
5.25466e-05
5.28417e-05
5.26367e-05
8.94942e-05
3.50564e-05
8.95675e-05
3.50316e-05
0.000119634
9.00781e-05
0.000116797
0.000126612
0.000119645
8.99881e-05
0.000116687
0.000119801
9.0982e-05
0.000116652
0.000127718
0.000119717
9.09419e-05
0.00011711
8.94246e-05
3.46493e-05
3.4682e-05
8.93547e-05
8.95784e-05
3.50371e-05
3.50851e-05
8.95236e-05
0.000119588
0.000126703
9.00147e-05
0.000116717
9.00727e-05
0.000116765
0.000119619
0.000119856
0.000127804
9.09675e-05
0.000116871
9.10524e-05
0.000117116
0.000119816
5.33967e-05
5.32119e-05
0.000127554
5.33444e-05
5.30837e-05
2.22679e-05
2.22183e-05
2.22499e-05
2.22775e-05
0.000127548
5.33323e-05
5.30464e-05
5.34169e-05
5.31954e-05
2.21947e-05
2.22589e-05
0.000119308
9.00078e-05
0.000118814
0.000127273
0.000119359
8.99061e-05
0.000118811
8.87945e-05
3.49423e-05
8.898e-05
3.48507e-05
0.000119349
0.000118714
9.07228e-05
0.000128332
0.000119538
0.000119044
9.05958e-05
8.87961e-05
3.45543e-05
3.46167e-05
8.86276e-05
0.000119373
0.000127341
8.99628e-05
0.000118878
9.00488e-05
0.000118887
0.000119297
8.89094e-05
3.48092e-05
3.49212e-05
8.87221e-05
0.000119424
0.00012852
0.00011905
9.04755e-05
0.000118906
9.0705e-05
0.000119385
8.89177e-05
3.49296e-05
8.91438e-05
3.48385e-05
0.000119549
0.000119173
9.0107e-05
0.000127762
0.000119591
0.000119249
8.99995e-05
8.88702e-05
3.46871e-05
8.90838e-05
3.46137e-05
0.000119575
0.000128412
9.04948e-05
0.000119495
9.06985e-05
0.00011937
0.000119564
8.90342e-05
3.4802e-05
3.49089e-05
8.88563e-05
0.000119525
0.000127575
0.000119251
8.99848e-05
0.000118993
9.01182e-05
0.000119448
8.89843e-05
3.46029e-05
3.46868e-05
8.87975e-05
5.31624e-05
5.32603e-05
0.000127295
5.30444e-05
5.31967e-05
2.21942e-05
2.21755e-05
2.21908e-05
2.22534e-05
0.000127351
5.3e-05
5.32281e-05
5.3156e-05
5.32693e-05
2.21856e-05
2.22061e-05
0.000119822
0.000117205
9.04513e-05
0.000126816
0.00011983
0.000117219
9.03312e-05
8.92782e-05
3.49247e-05
8.93609e-05
3.48827e-05
8.91911e-05
3.47912e-05
8.92784e-05
3.47464e-05
0.000119772
0.000127654
0.00011748
9.06813e-05
0.000117515
9.07383e-05
0.00011983
0.000119805
0.000126847
0.000116989
9.02868e-05
0.000116981
9.04339e-05
0.000119632
8.92913e-05
3.49025e-05
3.49309e-05
8.9259e-05
8.92349e-05
3.47286e-05
3.47883e-05
8.91307e-05
2.20663e-05
2.20257e-05
2.20759e-05
2.20334e-05
0.000126232
5.26153e-05
5.27648e-05
5.2742e-05
5.28818e-05
2.20138e-05
2.20686e-05
2.20139e-05
2.20565e-05
2.20097e-05
2.19882e-05
2.20562e-05
2.20187e-05
5.28542e-05
5.26606e-05
0.000126321
5.27874e-05
5.25749e-05
2.19909e-05
2.2013e-05
2.2023e-05
2.20645e-05
0.000126433
5.27948e-05
5.25943e-05
5.28788e-05
5.26864e-05
8.94905e-05
3.5072e-05
8.95799e-05
3.50319e-05
0.000119679
9.01221e-05
0.000116895
0.000126699
0.000119635
9.00396e-05
0.000116688
0.000119881
9.10271e-05
0.000117273
0.000127799
0.000119841
9.09629e-05
0.000117196
8.93661e-05
3.46604e-05
3.47032e-05
8.9322e-05
8.95469e-05
3.50166e-05
3.50665e-05
8.94278e-05
0.00011971
0.000126863
9.00639e-05
0.000116819
9.01542e-05
0.000116478
0.000119685
0.000119904
0.000127881
9.09092e-05
0.000117366
9.10204e-05
0.000117324
0.000119833
5.33986e-05
5.31446e-05
0.000127599
5.3323e-05
5.29974e-05
2.22343e-05
2.21711e-05
2.22401e-05
2.2268e-05
0.000127594
5.33008e-05
5.29547e-05
5.33991e-05
5.30965e-05
2.215e-05
2.22097e-05
0.000119173
9.00881e-05
0.000118944
0.000127469
0.000119334
8.9989e-05
0.000118859
8.86637e-05
3.48764e-05
8.88456e-05
3.47706e-05
0.000119255
0.000119232
9.05667e-05
0.000128513
0.000119425
0.000119239
9.03924e-05
8.87038e-05
3.45635e-05
3.46374e-05
8.85192e-05
0.00011926
0.000127569
8.99911e-05
0.000118986
9.01069e-05
0.000118733
0.00011915
8.87871e-05
3.47539e-05
3.484e-05
8.86236e-05
0.000119294
0.000128522
0.000119306
9.03554e-05
0.000119317
9.05038e-05
0.000119237
8.87763e-05
3.48713e-05
8.89813e-05
3.47625e-05
0.000119332
0.000119308
9.00833e-05
0.000127577
0.000119436
0.000119199
8.99362e-05
8.87552e-05
3.46736e-05
8.89335e-05
3.45841e-05
0.000119486
0.000128677
9.03451e-05
0.000119591
9.05613e-05
0.000119582
0.000119491
8.89354e-05
3.47296e-05
3.48332e-05
8.87999e-05
0.000119413
0.000127697
0.000118905
8.98583e-05
0.000118905
9.00441e-05
0.000119377
8.8901e-05
3.45655e-05
3.46544e-05
8.87433e-05
5.30982e-05
5.33027e-05
0.000127518
5.29578e-05
5.32366e-05
2.22108e-05
2.21874e-05
2.21602e-05
2.22089e-05
0.000127524
5.29203e-05
5.3236e-05
5.30741e-05
5.32916e-05
2.21837e-05
2.22124e-05
0.00011971
0.000117098
9.03865e-05
0.000126927
0.000119742
0.00011713
9.02267e-05
8.92103e-05
3.49412e-05
8.92581e-05
3.4905e-05
8.91495e-05
3.47634e-05
8.91786e-05
3.4687e-05
0.000119643
0.000127731
0.000117427
9.06953e-05
0.000117103
9.07633e-05
0.000119654
0.000119615
0.000127005
0.000117238
9.01286e-05
0.000116949
9.02754e-05
0.000119617
8.91934e-05
3.48952e-05
3.494e-05
8.91283e-05
8.91534e-05
3.46371e-05
3.47176e-05
8.90437e-05
2.20533e-05
2.19898e-05
2.20341e-05
2.19926e-05
0.000126175
5.25046e-05
5.26842e-05
5.26444e-05
5.28003e-05
2.19713e-05
2.20288e-05
2.19668e-05
2.20102e-05
2.20129e-05
2.19916e-05
2.20638e-05
2.20147e-05
5.2884e-05
5.26899e-05
0.000126239
5.27938e-05
5.25774e-05
2.19944e-05
2.20108e-05
2.19942e-05
2.20497e-05
0.000126375
5.27977e-05
5.25347e-05
5.28818e-05
5.26756e-05
8.94343e-05
3.5067e-05
8.94949e-05
3.5004e-05
0.000119773
9.01532e-05
0.000116799
0.000127
0.000119776
9.01051e-05
0.000116942
0.000119904
9.1019e-05
0.000117467
0.000127991
0.000119942
9.08882e-05
0.000117377
8.92762e-05
3.46559e-05
3.46995e-05
8.91407e-05
8.94346e-05
3.4989e-05
3.50531e-05
8.93247e-05
0.000119739
0.00012711
9.01062e-05
0.00011716
9.01729e-05
0.000117191
0.000119659
0.000119885
0.000128121
9.0875e-05
0.000117279
9.0987e-05
0.000117441
0.000119829
5.33869e-05
5.30512e-05
0.000127482
5.32789e-05
5.29173e-05
2.21877e-05
2.21395e-05
2.22164e-05
2.22445e-05
0.000127378
5.32495e-05
5.28917e-05
5.33469e-05
5.30125e-05
2.21268e-05
2.21742e-05
0.000119036
9.01043e-05
0.000119124
0.000127514
0.000119101
8.99691e-05
0.00011907
8.85524e-05
3.48279e-05
8.87495e-05
3.47511e-05
0.000119174
0.000119371
9.05511e-05
0.000128431
0.000119216
0.000119271
9.03718e-05
8.8557e-05
3.45222e-05
3.46195e-05
8.83837e-05
0.000119093
0.000127415
8.99032e-05
0.000118964
9.0078e-05
0.000119102
0.000118996
8.86799e-05
3.47508e-05
3.48265e-05
8.85146e-05
0.000119162
0.000128522
0.000119217
9.03662e-05
0.000119379
9.0558e-05
0.000119119
8.87655e-05
3.4798e-05
8.89257e-05
3.4709e-05
0.000119252
0.000119043
9.00423e-05
0.000127452
0.000119371
0.000119075
8.97865e-05
8.87177e-05
3.46373e-05
8.88697e-05
3.45424e-05
0.000119408
0.000128693
9.02804e-05
0.000119386
9.04232e-05
0.000119478
0.000119387
8.89245e-05
3.46987e-05
3.47791e-05
8.87558e-05
0.000119298
0.000127252
0.000119379
8.97296e-05
0.000119381
8.99617e-05
0.000119235
8.88395e-05
3.45154e-05
3.46132e-05
8.8661e-05
5.30385e-05
5.32995e-05
0.000127383
5.29191e-05
5.32154e-05
2.22029e-05
2.21759e-05
2.21676e-05
2.21996e-05
0.000127367
5.29349e-05
5.3189e-05
5.30491e-05
5.32724e-05
2.21636e-05
2.21946e-05
0.000119522
0.000117232
9.01673e-05
0.00012693
0.000119607
0.000116989
9.00153e-05
8.90767e-05
3.49294e-05
8.91458e-05
3.48708e-05
8.9048e-05
3.46686e-05
8.90832e-05
3.46012e-05
0.000119503
0.000127731
0.000117499
9.05989e-05
0.000117478
9.07325e-05
0.000119579
0.000119451
0.000126967
0.000117389
8.98968e-05
0.000117408
9.0067e-05
0.000119546
8.90859e-05
3.48519e-05
3.49138e-05
8.9015e-05
8.90908e-05
3.45634e-05
3.46352e-05
8.9031e-05
2.20111e-05
2.19639e-05
2.19821e-05
2.19285e-05
0.000125894
5.24399e-05
5.25034e-05
5.25841e-05
5.26333e-05
2.19437e-05
2.19971e-05
2.19013e-05
2.19434e-05
2.20121e-05
2.1999e-05
2.20222e-05
2.1969e-05
5.28915e-05
5.26275e-05
0.000126441
5.2808e-05
5.24766e-05
2.20155e-05
2.20128e-05
2.1948e-05
2.19919e-05
0.000126459
5.28338e-05
5.24244e-05