/*--------------------------------*- C++ -*----------------------------------*\
| =========                 |                                                 |
| \\      /  F ield         | OpenFOAM: The Open Source CFD Toolbox           |
|  \\    /   O peration     | Version:  2206                                  |
|   \\  /    A nd           | Website:  www.openfoam.com                      |
|    \\/     M anipulation  |                                                 |
\*---------------------------------------------------------------------------*/
FoamFile
{
    version     2.0;
    format      ascii;
    arch        "LSB;label=32;scalar=64";
    class       volScalarField;
    location    "149";
    object      nut;
}
// * * * * * * * * * * * * * * * * * * * * * * * * * * * * * * * * * * * * * //

dimensions      [0 2 -1 0 0 0 0];

internalField   nonuniform List<scalar> 
66940
(
2.98952e-06
1.91975e-06
1.94013e-06
1.92302e-06
3.00057e-06
1.92221e-06
1.94094e-06
1.91827e-06
3.00685e-06
1.92272e-06
1.94464e-06
1.92296e-06
3.0003e-06
1.921e-06
1.94536e-06
1.91534e-06
2.99235e-06
1.92198e-06
1.94243e-06
1.91354e-06
3.01427e-06
1.92567e-06
1.94288e-06
1.90733e-06
3.01111e-06
1.92157e-06
1.9376e-06
1.90892e-06
3.00885e-06
1.91338e-06
1.9316e-06
1.89849e-06
2.99579e-06
1.90135e-06
1.9194e-06
1.89675e-06
2.90868e-06
1.89196e-06
1.9063e-06
1.86967e-06
2.5749e-06
1.97941e-06
1.98221e-06
1.88132e-06
1.58842e-06
2.13952e-06
2.17214e-06
1.67348e-06
1.88606e-06
1.919e-06
1.93548e-06
1.90794e-06
1.89879e-06
1.91252e-06
1.92169e-06
1.90228e-06
1.90981e-06
1.94248e-06
1.92974e-06
1.8912e-06
1.93264e-06
1.88546e-06
1.9173e-06
1.93512e-06
1.91825e-06
1.93655e-06
1.95493e-06
1.90906e-06
1.89567e-06
1.91499e-06
1.89662e-06
1.91218e-06
1.9046e-06
1.9261e-06
1.90599e-06
1.95681e-06
1.91007e-06
1.92553e-06
1.94428e-06
1.93087e-06
1.89127e-06
1.93312e-06
1.89015e-06
1.9166e-06
1.93707e-06
1.9248e-06
1.9431e-06
1.95756e-06
1.91377e-06
1.89841e-06
1.91369e-06
1.90401e-06
1.91752e-06
1.90647e-06
1.92664e-06
1.91292e-06
1.95799e-06
1.91381e-06
1.92732e-06
1.94983e-06
1.93765e-06
1.89503e-06
1.93419e-06
1.89435e-06
1.92182e-06
1.93861e-06
1.92847e-06
1.944e-06
1.95836e-06
1.91679e-06
1.90161e-06
1.91266e-06
1.90514e-06
1.91709e-06
1.90932e-06
1.9243e-06
1.91638e-06
1.95882e-06
1.91688e-06
1.9305e-06
1.95066e-06
1.93717e-06
1.89871e-06
1.9351e-06
1.89984e-06
1.92043e-06
1.9379e-06
1.93187e-06
1.94453e-06
1.96009e-06
1.92347e-06
1.90007e-06
1.91165e-06
1.90941e-06
1.92611e-06
1.90688e-06
1.93262e-06
1.91662e-06
1.96121e-06
1.92154e-06
1.92992e-06
1.95789e-06
1.94145e-06
1.9015e-06
1.93978e-06
1.90644e-06
1.92132e-06
1.93833e-06
1.93548e-06
1.95391e-06
1.96292e-06
1.92933e-06
1.89986e-06
1.9164e-06
1.91897e-06
1.93521e-06
1.90855e-06
1.93908e-06
1.92165e-06
1.95904e-06
1.92712e-06
1.92892e-06
1.96101e-06
1.94486e-06
1.90534e-06
1.93816e-06
1.91458e-06
1.91514e-06
1.93736e-06
1.94598e-06
1.96086e-06
1.96288e-06
1.93477e-06
1.90317e-06
1.91726e-06
1.92872e-06
1.9399e-06
1.90233e-06
1.94922e-06
1.92929e-06
1.96092e-06
1.93424e-06
1.92965e-06
1.96334e-06
1.95414e-06
1.91093e-06
1.93508e-06
1.92064e-06
1.91821e-06
1.93467e-06
1.95378e-06
1.97364e-06
1.95744e-06
1.93903e-06
1.89999e-06
1.91063e-06
1.93408e-06
1.94994e-06
1.90101e-06
1.95742e-06
1.92939e-06
1.95516e-06
1.94084e-06
1.92449e-06
1.97704e-06
1.96064e-06
1.90486e-06
1.92448e-06
1.92674e-06
1.90986e-06
1.929e-06
1.97363e-06
1.98806e-06
1.94663e-06
1.95371e-06
1.89262e-06
1.90247e-06
1.95699e-06
1.96673e-06
1.88401e-06
1.97048e-06
1.94811e-06
1.9412e-06
1.95328e-06
1.91693e-06
1.99365e-06
1.97563e-06
1.92132e-06
1.90788e-06
1.93859e-06
1.89851e-06
1.91632e-06
1.99502e-06
2.00875e-06
1.92883e-06
1.95834e-06
1.88177e-06
1.88953e-06
1.98023e-06
1.98961e-06
1.87335e-06
1.98903e-06
1.96981e-06
1.92649e-06
1.95398e-06
1.90147e-06
2.01389e-06
1.99183e-06
1.90678e-06
1.88496e-06
1.94943e-06
1.88726e-06
1.9056e-06
2.00968e-06
2.01822e-06
1.91054e-06
1.96091e-06
1.87044e-06
1.87685e-06
1.98969e-06
2.00181e-06
1.85898e-06
1.99755e-06
1.98314e-06
1.9015e-06
1.96426e-06
1.88874e-06
2.02398e-06
2.00078e-06
1.92541e-06
1.8993e-06
1.82718e-06
1.96609e-06
1.98352e-06
1.89519e-06
1.91062e-06
1.92993e-06
1.83876e-06
1.95077e-06
1.95971e-06
1.90099e-06
1.92148e-06
1.93745e-06
1.89191e-06
1.89285e-06
1.91442e-06
1.84275e-06
1.96122e-06
1.90556e-06
1.88418e-06
1.80569e-06
1.69564e-06
2.1704e-06
2.1582e-06
1.66775e-06
2.1663e-06
2.18042e-06
1.57036e-06
1.60039e-06
1.58814e-06
2.14962e-06
1.70788e-06
2.15813e-06
5.48339e-08
2.99329e-06
3.00932e-06
2.99633e-06
2.99135e-06
9.75693e-07
1.9341e-06
5.00864e-07
2.39896e-06
1.90146e-06
2.50299e-07
2.50495e-07
4.82961e-07
1.16421e-07
4.81786e-07
1.16218e-07
5.55272e-08
5.54703e-08
4.72867e-07
1.14681e-07
4.69907e-07
1.14478e-07
3.01156e-06
3.00742e-06
2.998e-06
3.00196e-06
3.00368e-06
3.01149e-06
3.00656e-06
9.77109e-07
4.98922e-07
2.38259e-06
1.92215e-06
9.80564e-07
5.00987e-07
2.37993e-06
5.55087e-08
5.54224e-08
1.00276e-06
2.42154e-06
5.08201e-07
1.94337e-06
1.00432e-06
2.43494e-06
5.0923e-07
2.50757e-07
2.54446e-07
1.8923e-06
2.5017e-07
2.5408e-07
4.82924e-07
1.16251e-07
4.81779e-07
1.16136e-07
5.55266e-08
5.54875e-08
4.74063e-07
1.14838e-07
4.70741e-07
1.14718e-07
3.01269e-06
3.01236e-06
3.01357e-06
3.00539e-06
3.01737e-06
3.01078e-06
3.00669e-06
9.78756e-07
4.99742e-07
2.38226e-06
1.92158e-06
9.81921e-07
5.0205e-07
2.39267e-06
5.55562e-08
5.5485e-08
1.00454e-06
2.42517e-06
5.07987e-07
1.94524e-06
1.00717e-06
2.43832e-06
5.08482e-07
2.51081e-07
2.54522e-07
1.89084e-06
2.50872e-07
2.54431e-07
4.83647e-07
1.16382e-07
4.82373e-07
1.16345e-07
5.56207e-08
5.56289e-08
4.75772e-07
1.15252e-07
4.72377e-07
1.15186e-07
3.02141e-06
3.00721e-06
3.01415e-06
2.98789e-06
3.01841e-06
3.0108e-06
3.01572e-06
9.81016e-07
5.01266e-07
2.38212e-06
1.92364e-06
9.84095e-07
5.03829e-07
2.39631e-06
5.56633e-08
5.56123e-08
1.00396e-06
2.43292e-06
5.07862e-07
1.94986e-06
1.00628e-06
2.44813e-06
5.08674e-07
2.5208e-07
2.55255e-07
1.89645e-06
2.51802e-07
2.54952e-07
4.85154e-07
1.16682e-07
4.83515e-07
1.16688e-07
5.58373e-08
5.58733e-08
4.77034e-07
1.15714e-07
4.73791e-07
1.15602e-07
3.02491e-06
3.0072e-06
3.02009e-06
2.99846e-06
3.02121e-06
3.01731e-06
3.00945e-06
9.83017e-07
5.03242e-07
2.38585e-06
1.9304e-06
9.86157e-07
5.0528e-07
2.39754e-06
5.57718e-08
5.56931e-08
1.00544e-06
2.43975e-06
5.08513e-07
1.9545e-06
1.00742e-06
2.44979e-06
5.09303e-07
2.52921e-07
2.55744e-07
1.89705e-06
2.5257e-07
2.55684e-07
4.86682e-07
1.1701e-07
4.85477e-07
1.16938e-07
5.60275e-08
5.59895e-08
4.77058e-07
1.15968e-07
4.74293e-07
1.1578e-07
3.01652e-06
3.02012e-06
3.00171e-06
3.00861e-06
3.02394e-06
3.00992e-06
3.01307e-06
9.82073e-07
5.03796e-07
2.38746e-06
1.93785e-06
9.85546e-07
5.05353e-07
2.4061e-06
5.57923e-08
5.56666e-08
1.00556e-06
2.43611e-06
5.08822e-07
1.9583e-06
1.00826e-06
2.45415e-06
5.09696e-07
2.53287e-07
2.56195e-07
1.90442e-06
2.52586e-07
2.55557e-07
4.86363e-07
1.17082e-07
4.85507e-07
1.16978e-07
5.60315e-08
5.59741e-08
4.76573e-07
1.16073e-07
4.73903e-07
1.15872e-07
3.02886e-06
3.01412e-06
3.01094e-06
3.00999e-06
3.02476e-06
3.01414e-06
3.01891e-06
9.80485e-07
5.02896e-07
2.38417e-06
1.94569e-06
9.83939e-07
5.04205e-07
2.41049e-06
5.56926e-08
5.55584e-08
1.00516e-06
2.43182e-06
5.09089e-07
1.96081e-06
1.00787e-06
2.45898e-06
5.10264e-07
2.53011e-07
2.55603e-07
1.90751e-06
2.52301e-07
2.55176e-07
4.86178e-07
1.17116e-07
4.85081e-07
1.1702e-07
5.59992e-08
5.5929e-08
4.75668e-07
1.16086e-07
4.73087e-07
1.15827e-07
3.02765e-06
3.02091e-06
3.02706e-06
3.00995e-06
3.02149e-06
3.01912e-06
3.01403e-06
9.80704e-07
5.01769e-07
2.37708e-06
1.95248e-06
9.83598e-07
5.03706e-07
2.42184e-06
5.56216e-08
5.55316e-08
1.00419e-06
2.41865e-06
5.09006e-07
1.96672e-06
1.00657e-06
2.46916e-06
5.09789e-07
2.52698e-07
2.55158e-07
1.90689e-06
2.51803e-07
2.54319e-07
4.85276e-07
1.17163e-07
4.84194e-07
1.17034e-07
5.59226e-08
5.58699e-08
4.75033e-07
1.15936e-07
4.72424e-07
1.15597e-07
3.01835e-06
3.01853e-06
3.02075e-06
3.03034e-06
3.05844e-06
3.03088e-06
3.02781e-06
9.80979e-07
5.0126e-07
2.35954e-06
1.96299e-06
9.83381e-07
5.03293e-07
2.44193e-06
5.56253e-08
5.55636e-08
1.00409e-06
2.40756e-06
5.08557e-07
1.9847e-06
1.00607e-06
2.49362e-06
5.09368e-07
2.52156e-07
2.54276e-07
1.90333e-06
2.51331e-07
2.53824e-07
4.85849e-07
1.17159e-07
4.84359e-07
1.17026e-07
5.58392e-08
5.58441e-08
4.74359e-07
1.15692e-07
4.7182e-07
1.1539e-07
3.00006e-06
2.99484e-06
2.99164e-06
3.09045e-06
3.09363e-06
3.05498e-06
3.05265e-06
9.82066e-07
5.00787e-07
2.33376e-06
1.97899e-06
9.82959e-07
5.02266e-07
2.48607e-06
5.56255e-08
5.56262e-08
1.00455e-06
2.37792e-06
5.07556e-07
2.00292e-06
1.00596e-06
2.53747e-06
5.08062e-07
2.51453e-07
2.53881e-07
1.90558e-06
2.50484e-07
2.53211e-07
4.874e-07
1.17253e-07
4.85081e-07
1.17245e-07
5.57918e-08
5.61407e-08
4.73783e-07
1.15663e-07
4.7174e-07
1.1546e-07
2.9062e-06
2.90521e-06
2.90488e-06
3.06901e-06
3.08723e-06
3.06866e-06
3.04863e-06
9.91586e-07
5.01989e-07
2.27245e-06
1.99598e-06
9.90069e-07
5.00344e-07
2.5935e-06
5.56278e-08
5.58752e-08
1.01415e-06
2.3111e-06
5.08305e-07
2.02308e-06
1.01281e-06
2.65404e-06
5.06014e-07
2.50431e-07
2.53002e-07
1.90431e-06
2.50092e-07
2.53433e-07
4.76865e-07
1.17967e-07
4.86009e-07
1.17529e-07
5.65786e-08
5.86132e-08
4.77232e-07
1.17743e-07
4.83409e-07
1.18163e-07
2.56284e-06
2.5827e-06
2.57505e-06
2.41295e-06
2.41036e-06
2.43876e-06
2.40483e-06
1.05884e-06
5.15826e-07
2.15806e-06
1.97851e-06
1.03538e-06
4.97186e-07
2.79739e-06
5.655e-08
5.89676e-08
1.05066e-06
2.16843e-06
5.1742e-07
1.99468e-06
1.04391e-06
2.81544e-06
4.93477e-07
2.52043e-07
2.54337e-07
1.88385e-06
2.52029e-07
2.51711e-07
5.22898e-07
3.47035e-09
3.22394e-07
6.93702e-08
3.19178e-09
4.34053e-08
5.23272e-07
3.4837e-09
3.22666e-07
6.95609e-08
6.7336e-07
1.09195e-06
1.08786e-06
1.11959e-06
8.11464e-07
8.4656e-07
8.35116e-07
1.11556e-06
1.90785e-07
2.09996e-06
1.56798e-06
9.26482e-07
2.53317e-07
1.2303e-06
3.19883e-09
4.3531e-08
1.11085e-06
2.09392e-06
1.8921e-07
1.55118e-06
9.18852e-07
1.24458e-06
2.51305e-07
1.00282e-07
9.99947e-08
1.71322e-06
1.23783e-07
1.23375e-07
5.48834e-08
5.44724e-08
5.44618e-08
5.45727e-08
1.9227e-06
2.53333e-07
2.49189e-07
2.51938e-07
2.49674e-07
1.15105e-07
1.91411e-06
4.98974e-07
4.69834e-07
1.16301e-07
1.1445e-07
4.82186e-07
4.71164e-07
1.17521e-07
1.15533e-07
4.83696e-07
9.78682e-07
1.90304e-06
5.03157e-07
2.3962e-06
4.95871e-07
2.35798e-06
9.96074e-07
9.80032e-07
1.92034e-06
5.0841e-07
2.40681e-06
5.00643e-07
2.36663e-06
9.97772e-07
1.92006e-06
2.52131e-07
2.52374e-07
5.50951e-08
5.54759e-08
5.50222e-08
1.95608e-06
2.55665e-07
2.52387e-07
2.54169e-07
2.52832e-07
5.50768e-08
5.51767e-08
4.69787e-07
1.14451e-07
1.14653e-07
4.72558e-07
9.73505e-07
1.89594e-06
4.94757e-07
2.36461e-06
4.93118e-07
2.36559e-06
9.70447e-07
4.71094e-07
1.1613e-07
1.16358e-07
4.73804e-07
9.76835e-07
1.91419e-06
2.36998e-06
5.02828e-07
2.36976e-06
5.01285e-07
9.73617e-07
4.75439e-07
1.15654e-07
9.74657e-07
1.91327e-06
2.39567e-06
4.96587e-07
4.74645e-07
1.14694e-07
9.80173e-07
1.91985e-06
5.00806e-07
2.38788e-06
4.99007e-07
2.38307e-06
9.76543e-07
4.72516e-07
1.15633e-07
1.15849e-07
4.75175e-07
9.78583e-07
1.90289e-06
2.37597e-06
4.96471e-07
2.37538e-06
4.94747e-07
9.74997e-07
4.7173e-07
1.14689e-07
1.14897e-07
4.74585e-07
5.54041e-08
5.55008e-08
1.93621e-06
2.53684e-07
2.56519e-07
2.54195e-07
2.55001e-07
5.56034e-08
5.51537e-08
9.81345e-07
1.92503e-06
2.42834e-06
5.08938e-07
2.37606e-06
5.00861e-07
9.99849e-07
9.81799e-07
1.90979e-06
2.42661e-06
5.06178e-07
2.37689e-06
4.98534e-07
1.00008e-06
4.71411e-07
1.1753e-07
1.15532e-07
4.83744e-07
4.71993e-07
1.17184e-07
1.15218e-07
4.84481e-07
5.46074e-08
5.45759e-08
1.93782e-06
2.50257e-07
2.54025e-07
2.50783e-07
2.52532e-07
5.45787e-08
5.46898e-08
5.5209e-08
5.47583e-08
5.49285e-08
5.48702e-08
5.45541e-08
5.44647e-08
2.5382e-07
2.49708e-07
1.88651e-06
2.53506e-07
2.49227e-07
5.48729e-08
5.49194e-08
5.45106e-08
5.45655e-08
1.93232e-06
2.53613e-07
2.4946e-07
2.53956e-07
2.49789e-07
4.84175e-07
1.17654e-07
4.83176e-07
1.17511e-07
9.98018e-07
5.02576e-07
2.40088e-06
1.92017e-06
9.98851e-07
5.03042e-07
2.4005e-06
1.00019e-06
5.07827e-07
2.40424e-06
1.93585e-06
1.00116e-06
5.08564e-07
2.40798e-06
4.81951e-07
1.16123e-07
1.16297e-07
4.82851e-07
4.8326e-07
1.17399e-07
1.17609e-07
4.83906e-07
1.00265e-06
1.91844e-06
5.02794e-07
2.41405e-06
5.02287e-07
2.40924e-06
1.00021e-06
1.00402e-06
1.93539e-06
5.08309e-07
2.41984e-06
5.07841e-07
2.41508e-06
1.0023e-06
2.56168e-07
2.529e-07
1.90885e-06
2.55849e-07
2.52404e-07
5.51765e-08
5.51086e-08
5.54719e-08
5.55238e-08
1.95598e-06
2.55948e-07
2.52724e-07
2.56243e-07
2.53049e-07
5.51538e-08
5.52115e-08
9.71474e-07
4.93276e-07
2.36328e-06
1.90166e-06
9.74995e-07
4.94883e-07
2.36855e-06
4.74089e-07
1.16342e-07
4.71137e-07
1.1615e-07
9.74678e-07
2.36768e-06
5.01223e-07
1.91416e-06
9.77858e-07
2.37808e-06
5.03266e-07
4.70226e-07
1.14565e-07
1.14716e-07
4.73366e-07
9.76235e-07
1.89697e-06
4.95427e-07
2.37066e-06
4.93564e-07
2.36611e-06
9.72914e-07
4.71403e-07
1.16187e-07
1.16368e-07
4.74537e-07
9.78946e-07
1.91322e-06
2.37469e-06
5.03419e-07
2.36737e-06
5.01491e-07
9.75659e-07
4.75362e-07
1.15849e-07
4.72561e-07
1.15681e-07
9.76076e-07
2.38108e-06
4.94595e-07
1.90573e-06
9.79099e-07
2.38596e-06
4.96702e-07
4.74836e-07
1.14902e-07
4.71801e-07
1.14736e-07
9.81314e-07
1.9196e-06
5.01546e-07
2.38956e-06
4.99287e-07
2.38368e-06
9.78156e-07
4.72787e-07
1.15783e-07
1.1592e-07
4.75831e-07
9.80049e-07
1.90416e-06
2.38691e-06
4.97234e-07
2.38365e-06
4.94978e-07
9.77067e-07
4.72132e-07
1.14854e-07
1.14976e-07
4.75273e-07
2.54313e-07
2.56993e-07
1.91089e-06
2.53911e-07
2.56803e-07
5.56523e-08
5.56041e-08
5.54491e-08
5.55215e-08
1.95743e-06
2.54005e-07
2.56805e-07
2.54563e-07
2.57117e-07
5.55904e-08
5.56567e-08
1.00369e-06
2.42376e-06
5.05617e-07
1.93049e-06
1.00513e-06
2.43099e-06
5.06324e-07
4.84807e-07
1.17655e-07
4.83576e-07
1.17546e-07
4.84883e-07
1.17314e-07
4.84202e-07
1.17168e-07
1.00715e-06
1.94153e-06
2.43572e-06
5.0878e-07
2.42616e-06
5.08208e-07
1.00447e-06
1.00602e-06
1.92464e-06
2.42745e-06
5.06007e-07
2.43012e-06
5.05623e-07
1.00368e-06
4.83842e-07
1.17425e-07
1.17626e-07
4.84856e-07
4.83976e-07
1.17054e-07
1.17256e-07
4.84973e-07
5.46783e-08
5.46094e-08
5.52551e-08
5.51855e-08
1.93762e-06
2.50478e-07
2.5408e-07
2.50887e-07
2.5448e-07
5.46651e-08
5.4713e-08
5.51751e-08
5.52338e-08
5.49297e-08
5.49101e-08
5.4623e-08
5.46002e-08
2.54076e-07
2.50075e-07
1.88817e-06
2.53817e-07
2.49857e-07
5.49676e-08
5.49735e-08
5.47249e-08
5.47245e-08
1.93194e-06
2.54019e-07
2.50359e-07
2.54231e-07
2.50524e-07
4.84e-07
1.17479e-07
4.83078e-07
1.17313e-07
1.00059e-06
5.02122e-07
2.41304e-06
1.92046e-06
1.00317e-06
5.0281e-07
2.41865e-06
1.00171e-06
5.0731e-07
2.41883e-06
1.94234e-06
1.00536e-06
5.08092e-07
2.4213e-06
4.82013e-07
1.16227e-07
1.1629e-07
4.83303e-07
4.83164e-07
1.17364e-07
1.17445e-07
4.84228e-07
1.00335e-06
1.91683e-06
5.02936e-07
2.41402e-06
5.02204e-07
2.41469e-06
9.99048e-07
1.00442e-06
1.93902e-06
5.08124e-07
2.42205e-06
5.07151e-07
2.41859e-06
1.0016e-06
2.56379e-07
2.53307e-07
1.91238e-06
2.56124e-07
2.53057e-07
5.52633e-08
5.52205e-08
5.55456e-08
5.55493e-08
1.95786e-06
2.56396e-07
2.53462e-07
2.5659e-07
2.53694e-07
5.53244e-08
5.53379e-08
9.74108e-07
4.94102e-07
2.36793e-06
1.90326e-06
9.77294e-07
4.96228e-07
2.37e-06
4.75146e-07
1.16409e-07
4.71892e-07
1.16266e-07
9.76773e-07
2.36794e-06
5.01502e-07
1.91537e-06
9.80041e-07
2.38097e-06
5.03613e-07
4.71522e-07
1.14941e-07
1.15006e-07
4.74963e-07
9.78924e-07
1.89969e-06
4.97173e-07
2.3774e-06
4.94744e-07
2.37352e-06
9.75869e-07
4.7255e-07
1.16398e-07
1.16526e-07
4.75935e-07
9.80867e-07
1.91285e-06
2.38323e-06
5.03942e-07
2.37674e-06
5.02271e-07
9.77958e-07
4.76394e-07
1.16036e-07
4.7317e-07
1.15925e-07
9.78231e-07
2.38325e-06
4.95617e-07
1.91085e-06
9.8113e-07
2.3871e-06
4.98069e-07
4.75898e-07
1.15122e-07
4.72626e-07
1.15048e-07
9.83458e-07
1.92127e-06
5.02786e-07
2.39418e-06
5.00226e-07
2.38987e-06
9.80228e-07
4.7379e-07
1.16116e-07
1.16191e-07
4.77166e-07
9.82574e-07
1.90797e-06
2.38728e-06
4.99075e-07
2.38155e-06
4.96552e-07
9.79282e-07
4.73311e-07
1.15299e-07
1.15343e-07
4.76685e-07
2.54525e-07
2.57167e-07
1.91394e-06
2.54133e-07
2.56829e-07
5.56379e-08
5.55925e-08
5.55451e-08
5.55922e-08
1.95858e-06
2.54287e-07
2.56866e-07
2.54795e-07
2.57185e-07
5.56189e-08
5.56527e-08
1.00378e-06
2.42844e-06
5.05279e-07
1.93669e-06
1.00626e-06
2.43676e-06
5.05834e-07
4.84944e-07
1.17523e-07
4.83831e-07
1.17374e-07
4.84969e-07
1.17147e-07
4.83978e-07
1.17009e-07
1.00686e-06
1.9409e-06
2.44371e-06
5.08546e-07
2.43731e-06
5.07755e-07
1.0043e-06
1.00681e-06
1.93336e-06
2.43787e-06
5.06016e-07
2.43228e-06
5.05257e-07
1.004e-06
4.83925e-07
1.17439e-07
1.17525e-07
4.85066e-07
4.83933e-07
1.1708e-07
1.17164e-07
4.85028e-07
5.47775e-08
5.47494e-08
5.52295e-08
5.5214e-08
1.93737e-06
2.51393e-07
2.54769e-07
2.51514e-07
2.54884e-07
5.48705e-08
5.48731e-08
5.52904e-08
5.52819e-08
5.50341e-08
5.50412e-08
5.48539e-08
5.486e-08
2.54447e-07
2.51051e-07
1.89213e-06
2.54317e-07
2.50939e-07
5.51282e-08
5.51124e-08
5.4974e-08
5.49873e-08
1.93562e-06
2.54669e-07
2.51426e-07
2.54796e-07
2.51619e-07
4.84797e-07
1.17492e-07
4.83565e-07
1.17488e-07
1.00056e-06
5.02375e-07
2.41776e-06
1.92749e-06
1.00283e-06
5.0343e-07
2.423e-06
1.00185e-06
5.07239e-07
2.41966e-06
1.94061e-06
1.00472e-06
5.08671e-07
2.42189e-06
4.82867e-07
1.16507e-07
1.16501e-07
4.84172e-07
4.8401e-07
1.17716e-07
1.17658e-07
4.85339e-07
1.00337e-06
1.91893e-06
5.04071e-07
2.42268e-06
5.02775e-07
2.4132e-06
9.99453e-07
1.0055e-06
1.93864e-06
5.0961e-07
2.42028e-06
5.08028e-07
2.41789e-06
1.00196e-06
2.56923e-07
2.54158e-07
1.91442e-06
2.567e-07
2.53936e-07
5.54524e-08
5.54641e-08
5.57464e-08
5.57071e-08
1.95869e-06
2.57179e-07
2.54526e-07
2.5712e-07
2.54707e-07
5.55819e-08
5.55911e-08
9.76721e-07
4.95663e-07
2.37263e-06
1.9071e-06
9.80063e-07
4.98164e-07
2.3722e-06
4.76735e-07
1.16661e-07
4.73356e-07
1.16562e-07
9.7952e-07
2.37907e-06
5.02413e-07
1.91563e-06
9.82277e-07
2.38654e-06
5.04665e-07
4.73179e-07
1.15418e-07
1.15487e-07
4.76528e-07
9.81222e-07
1.90194e-06
4.99073e-07
2.37648e-06
4.96636e-07
2.37049e-06
9.77391e-07
4.74122e-07
1.1672e-07
1.16839e-07
4.77472e-07
9.8348e-07
1.91056e-06
2.38467e-06
5.05023e-07
2.37714e-06
5.0321e-07
9.80431e-07
4.77946e-07
1.16416e-07
4.7459e-07
1.16372e-07
9.79376e-07
2.37604e-06
4.9757e-07
1.91444e-06
9.8306e-07
2.38852e-06
5.00012e-07
4.77372e-07
1.15603e-07
4.74095e-07
1.15559e-07
9.85112e-07
1.92129e-06
5.04892e-07
2.39871e-06
5.02392e-07
2.38936e-06
9.81793e-07
4.75348e-07
1.16616e-07
1.16676e-07
4.78674e-07
9.83735e-07
1.90901e-06
2.38536e-06
5.0099e-07
2.38077e-06
4.98576e-07
9.80622e-07
4.74738e-07
1.15784e-07
1.15857e-07
4.78002e-07
2.54913e-07
2.57258e-07
1.91571e-06
2.54611e-07
2.57071e-07
5.56775e-08
5.56667e-08
5.56623e-08
5.57205e-08
1.95959e-06
2.54695e-07
2.57254e-07
2.55257e-07
2.57438e-07
5.57177e-08
5.57342e-08
1.00374e-06
2.42475e-06
5.05381e-07
1.9359e-06
1.00675e-06
2.44035e-06
5.06684e-07
4.85131e-07
1.17577e-07
4.84061e-07
1.17532e-07
4.853e-07
1.1722e-07
4.84121e-07
1.17197e-07
1.00682e-06
1.94421e-06
2.44754e-06
5.09179e-07
2.4331e-06
5.08129e-07
1.0047e-06
1.0072e-06
1.931e-06
2.44579e-06
5.07205e-07
2.43648e-06
5.05944e-07
1.00435e-06
4.8449e-07
1.17625e-07
1.17674e-07
4.85731e-07
4.84506e-07
1.17316e-07
1.17343e-07
4.85603e-07
5.50028e-08
5.5015e-08
5.53611e-08
5.53588e-08
1.9386e-06
2.52309e-07
2.55288e-07
2.52577e-07
2.55472e-07
5.51206e-08
5.51382e-08
5.54301e-08
5.5431e-08
5.52e-08
5.52166e-08
5.50919e-08
5.50554e-08
2.55156e-07
2.52064e-07
1.89754e-06
2.55067e-07
2.518e-07
5.52876e-08
5.5286e-08
5.51082e-08
5.51656e-08
1.93794e-06
2.55357e-07
2.52045e-07
2.55512e-07
2.52393e-07
4.86123e-07
1.17904e-07
4.84612e-07
1.17968e-07
1.00188e-06
5.03436e-07
2.41219e-06
1.92957e-06
1.00288e-06
5.04822e-07
2.43046e-06
1.004e-06
5.09082e-07
2.42135e-06
1.94569e-06
1.00501e-06
5.10607e-07
2.43367e-06
4.84683e-07
1.16852e-07
1.16856e-07
4.86148e-07
4.85638e-07
1.18162e-07
1.18147e-07
4.87037e-07
1.00585e-06
1.92215e-06
5.05495e-07
2.43451e-06
5.04208e-07
2.42012e-06
1.00364e-06
1.00754e-06
1.93547e-06
5.11491e-07
2.43337e-06
5.10025e-07
2.41329e-06
1.00551e-06
2.57722e-07
2.55149e-07
1.91965e-06
2.57747e-07
2.54873e-07
5.57007e-08
5.5657e-08
5.59623e-08
5.59515e-08
1.96115e-06
2.5818e-07
2.55073e-07
2.58299e-07
2.5552e-07
5.56874e-08
5.5765e-08
9.78331e-07
4.97515e-07
2.36676e-06
1.9058e-06
9.81576e-07
4.99823e-07
2.38463e-06
4.78052e-07
1.16979e-07
4.74803e-07
1.16839e-07
9.80674e-07
2.37805e-06
5.03393e-07
1.92197e-06
9.84155e-07
2.38976e-06
5.05451e-07
4.74169e-07
1.15724e-07
1.15864e-07
4.77197e-07
9.8201e-07
1.89835e-06
5.00405e-07
2.38274e-06
4.98202e-07
2.37226e-06
9.78906e-07
4.75248e-07
1.16879e-07
1.17079e-07
4.78283e-07
9.84311e-07
1.91586e-06
2.38654e-06
5.05561e-07
2.37353e-06
5.03754e-07
9.81209e-07
4.79297e-07
1.16898e-07
4.75992e-07
1.16781e-07
9.81352e-07
2.38436e-06
4.99391e-07
1.91672e-06
9.8479e-07
2.38826e-06
5.01606e-07
4.78593e-07
1.1606e-07
4.75353e-07
1.1595e-07
9.86096e-07
1.9227e-06
5.05362e-07
2.39548e-06
5.03851e-07
2.38427e-06
9.8292e-07
4.76415e-07
1.16837e-07
1.17032e-07
4.79304e-07
9.85476e-07
1.9071e-06
2.3958e-06
5.01715e-07
2.38129e-06
4.99724e-07
9.81113e-07
4.75799e-07
1.16025e-07
1.16192e-07
4.78796e-07
2.55296e-07
2.57661e-07
1.92025e-06
2.54855e-07
2.57411e-07
5.57759e-08
5.57571e-08
5.56994e-08
5.57901e-08
1.96062e-06
2.54856e-07
2.57431e-07
2.55468e-07
2.57746e-07
5.57798e-08
5.58176e-08
1.00463e-06
2.43689e-06
5.06402e-07
1.94201e-06
1.00739e-06
2.43954e-06
5.07454e-07
4.85926e-07
1.17754e-07
4.84734e-07
1.1768e-07
4.85899e-07
1.17451e-07
4.84881e-07
1.17367e-07
1.00813e-06
1.94701e-06
2.45391e-06
5.09505e-07
2.43148e-06
5.08588e-07
1.00564e-06
1.00823e-06
1.92961e-06
2.44681e-06
5.07322e-07
2.43193e-06
5.06537e-07
1.00442e-06
4.8489e-07
1.17704e-07
1.17809e-07
4.8576e-07
4.84867e-07
1.1732e-07
1.17457e-07
4.85751e-07
5.52335e-08
5.51747e-08
5.54977e-08
5.54848e-08
1.93055e-06
2.52769e-07
2.55819e-07
2.53171e-07
2.56098e-07
5.5197e-08
5.52783e-08
5.54994e-08
5.55419e-08
5.53476e-08
5.53264e-08
5.52106e-08
5.51406e-08
2.55767e-07
2.52607e-07
1.90402e-06
2.55524e-07
2.52191e-07
5.53439e-08
5.53788e-08
5.51669e-08
5.52409e-08
1.93935e-06
2.55614e-07
2.52282e-07
2.55889e-07
2.52768e-07
4.87439e-07
1.18295e-07
4.86487e-07
1.18244e-07
1.00505e-06
5.04907e-07
2.41952e-06
1.93359e-06
1.0076e-06
5.05786e-07
2.43548e-06
1.00683e-06
5.10577e-07
2.41574e-06
1.95141e-06
1.00868e-06
5.11774e-07
2.44325e-06
4.85625e-07
1.16974e-07
1.17055e-07
4.86592e-07
4.86609e-07
1.18259e-07
1.18392e-07
4.87649e-07
1.00721e-06
1.92018e-06
5.05995e-07
2.43887e-06
5.04941e-07
2.41639e-06
1.00516e-06
1.00994e-06
1.93858e-06
5.11873e-07
2.44087e-06
5.11005e-07
2.42292e-06
1.00721e-06
2.58656e-07
2.5568e-07
1.92753e-06
2.58271e-07
2.54911e-07
5.57842e-08
5.5678e-08
5.5986e-08
5.60419e-08
1.96468e-06
2.58229e-07
2.548e-07
2.5862e-07
2.555e-07
5.56228e-08
5.57583e-08
9.78621e-07
4.9855e-07
2.37453e-06
1.91734e-06
9.8195e-07
5.00622e-07
2.3927e-06
4.77941e-07
1.17086e-07
4.7531e-07
1.16821e-07
9.79628e-07
2.37032e-06
5.03589e-07
1.93033e-06
9.84138e-07
2.39463e-06
5.05459e-07
4.74123e-07
1.1584e-07
1.16013e-07
4.76846e-07
9.81978e-07
1.90369e-06
5.01001e-07
2.39698e-06
4.98831e-07
2.37386e-06
9.78651e-07
4.74903e-07
1.16682e-07
1.17019e-07
4.77512e-07
9.83061e-07
1.91845e-06
2.39748e-06
5.04737e-07
2.37209e-06
5.03508e-07
9.7995e-07
4.787e-07
1.1705e-07
4.76285e-07
1.16784e-07
9.81144e-07
2.38152e-06
4.99732e-07
1.92289e-06
9.84439e-07
2.40066e-06
5.01641e-07
4.78387e-07
1.1624e-07
4.75904e-07
1.16038e-07
9.84452e-07
1.92415e-06
5.04886e-07
2.40935e-06
5.0341e-07
2.38442e-06
9.81545e-07
4.75676e-07
1.1666e-07
1.1698e-07
4.78357e-07
9.83849e-07
1.90473e-06
2.40322e-06
5.01596e-07
2.37569e-06
4.99746e-07
9.80454e-07
4.75353e-07
1.15996e-07
1.16242e-07
4.77993e-07
2.55331e-07
2.57828e-07
1.92414e-06
2.54762e-07
2.57586e-07
5.58319e-08
5.58039e-08
5.56103e-08
5.57443e-08
1.96079e-06
2.54493e-07
2.57692e-07
2.55295e-07
2.57967e-07
5.58263e-08
5.58628e-08
1.00545e-06
2.43112e-06
5.06697e-07
1.94249e-06
1.00807e-06
2.44988e-06
5.07387e-07
4.85737e-07
1.17849e-07
4.84838e-07
1.1774e-07
4.85198e-07
1.17412e-07
4.84361e-07
1.17294e-07
1.00777e-06
1.94503e-06
2.45766e-06
5.10126e-07
2.43534e-06
5.08975e-07
1.00584e-06
1.00785e-06
1.92891e-06
2.44788e-06
5.07042e-07
2.42442e-06
5.06563e-07
1.00392e-06
4.84485e-07
1.17807e-07
1.17872e-07
4.85662e-07
4.84126e-07
1.17234e-07
1.17404e-07
4.84875e-07
5.52969e-08
5.52075e-08
5.55459e-08
5.5465e-08
1.93027e-06
2.52504e-07
2.5527e-07
2.53227e-07
2.55895e-07
5.5179e-08
5.52955e-08
5.54132e-08
5.55049e-08
5.53912e-08
5.5354e-08
5.52651e-08
5.51936e-08
2.55952e-07
2.52881e-07
1.90877e-06
2.55651e-07
2.52443e-07
5.53595e-08
5.54008e-08
5.52036e-08
5.52881e-08
1.93744e-06
2.5571e-07
2.52498e-07
2.56141e-07
2.5302e-07
4.87495e-07
1.18346e-07
4.86649e-07
1.18244e-07
1.00597e-06
5.05234e-07
2.41593e-06
1.9396e-06
1.00777e-06
5.06172e-07
2.44179e-06
1.00808e-06
5.10834e-07
2.42312e-06
1.9573e-06
1.00996e-06
5.11864e-07
2.45127e-06
4.85328e-07
1.17014e-07
1.17131e-07
4.86439e-07
4.86476e-07
1.1819e-07
1.18331e-07
4.87153e-07
1.00855e-06
1.91857e-06
5.06351e-07
2.44914e-06
5.05404e-07
2.40345e-06
1.0063e-06
1.01065e-06
1.93584e-06
5.11583e-07
2.45921e-06
5.10769e-07
2.42029e-06
1.00798e-06
2.58545e-07
2.55279e-07
1.9325e-06
2.58199e-07
2.54571e-07
5.5701e-08
5.55654e-08
5.59602e-08
5.60153e-08
1.9616e-06
2.58083e-07
2.54383e-07
2.58587e-07
2.55111e-07
5.55127e-08
5.56422e-08
9.77791e-07
4.99072e-07
2.37198e-06
1.92491e-06
9.81685e-07
5.0119e-07
2.4e-06
4.77163e-07
1.16867e-07
4.74513e-07
1.16552e-07
9.79006e-07
2.37563e-06
5.02607e-07
1.93761e-06
9.82972e-07
2.40503e-06
5.04258e-07
4.73566e-07
1.15872e-07
1.16082e-07
4.76215e-07
9.81008e-07
1.90287e-06
5.01233e-07
2.40738e-06
4.99168e-07
2.36416e-06
9.77759e-07
4.74155e-07
1.16498e-07
1.16751e-07
4.76921e-07
9.81838e-07
1.91405e-06
2.41102e-06
5.04066e-07
2.37381e-06
5.02254e-07
9.79016e-07
4.7792e-07
1.16853e-07
4.75374e-07
1.1653e-07
9.79731e-07
2.37906e-06
4.99508e-07
1.92372e-06
9.83121e-07
2.40572e-06
5.01336e-07
4.77758e-07
1.16191e-07
4.7507e-07
1.15935e-07
9.83677e-07
1.92457e-06
5.03972e-07
2.41905e-06
5.02517e-07
2.38166e-06
9.81388e-07
4.7511e-07
1.16417e-07
1.16728e-07
4.78041e-07
9.82979e-07
1.90149e-06
2.40395e-06
5.00881e-07
2.36724e-06
4.99228e-07
9.80385e-07
4.74874e-07
1.15873e-07
1.16132e-07
4.77682e-07
2.55017e-07
2.58063e-07
1.93188e-06
2.54361e-07
2.5777e-07
5.58733e-08
5.58324e-08
5.55325e-08
5.5634e-08
1.95894e-06
2.54145e-07
2.57731e-07
2.54939e-07
2.58049e-07
5.58206e-08
5.58782e-08
1.00465e-06
2.42376e-06
5.0619e-07
1.95012e-06
1.00726e-06
2.45466e-06
5.06608e-07
4.85409e-07
1.17907e-07
4.84318e-07
1.17818e-07
4.84977e-07
1.17322e-07
4.83816e-07
1.17096e-07
1.00657e-06
1.942e-06
2.4647e-06
5.10226e-07
2.41954e-06
5.09106e-07
1.00461e-06
1.00608e-06
1.92874e-06
2.4619e-06
5.05953e-07
2.41727e-06
5.05443e-07
1.00397e-06
4.83955e-07
1.17782e-07
1.17906e-07
4.84948e-07
4.83662e-07
1.16924e-07
1.1717e-07
4.84383e-07
5.52598e-08
5.51271e-08
5.54469e-08
5.53575e-08
1.92808e-06
2.5218e-07
2.54906e-07
2.5285e-07
2.555e-07
5.50831e-08
5.52052e-08
5.52913e-08
5.53871e-08
5.53991e-08
5.53596e-08
5.52865e-08
5.51829e-08
2.56139e-07
2.52986e-07
1.91477e-06
2.55685e-07
2.52386e-07
5.53638e-08
5.53941e-08
5.51303e-08
5.5253e-08
1.92906e-06
2.55725e-07
2.52174e-07
2.56188e-07
2.52959e-07
4.87159e-07
1.18331e-07
4.86182e-07
1.18149e-07
1.00723e-06
5.05382e-07
2.40497e-06
1.95185e-06
1.00917e-06
5.06618e-07
2.45818e-06
1.0088e-06
5.10723e-07
2.418e-06
1.9679e-06
1.01104e-06
5.11551e-07
2.46575e-06
4.84781e-07
1.16999e-07
1.1712e-07
4.85367e-07
4.85804e-07
1.18099e-07
1.18286e-07
4.86512e-07
1.00887e-06
1.91521e-06
5.0665e-07
2.47155e-06
5.05461e-07
2.40667e-06
1.00651e-06
1.0106e-06
1.93292e-06
5.11381e-07
2.4722e-06
5.10499e-07
2.41074e-06
1.00835e-06
2.58512e-07
2.54847e-07
1.93753e-06
2.57899e-07
2.54052e-07
5.55876e-08
5.5481e-08
5.58989e-08
5.5959e-08
1.9514e-06
2.57778e-07
2.53998e-07
2.58244e-07
2.54646e-07
5.54514e-08
5.55504e-08
9.77009e-07
4.99121e-07
2.36706e-06
1.93307e-06
9.79631e-07
5.01117e-07
2.41518e-06
4.76494e-07
1.16708e-07
4.73916e-07
1.16485e-07
9.78735e-07
2.36996e-06
5.02426e-07
1.94407e-06
9.81119e-07
2.41653e-06
5.04209e-07
4.72678e-07
1.15735e-07
1.16027e-07
4.75378e-07
9.79497e-07
1.89356e-06
5.00697e-07
2.42127e-06
4.98905e-07
2.36019e-06
9.77026e-07
4.73497e-07
1.16481e-07
1.16701e-07
4.76249e-07
9.80662e-07
1.90695e-06
2.42352e-06
5.04205e-07
2.36378e-06
5.02503e-07
9.78657e-07
4.77854e-07
1.16609e-07
4.75044e-07
1.16349e-07
9.79643e-07
2.36476e-06
4.99124e-07
1.93081e-06
9.82688e-07
2.41329e-06
5.00359e-07
4.77533e-07
1.16077e-07
4.74688e-07
1.15797e-07
9.83204e-07
1.91828e-06
5.03578e-07
2.42852e-06
5.01558e-07
2.36776e-06
9.81289e-07
4.75027e-07
1.16313e-07
1.16547e-07
4.77783e-07
9.82121e-07
1.88928e-06
2.4274e-06
5.00083e-07
2.36518e-06
4.98566e-07
9.7985e-07
4.74501e-07
1.15709e-07
1.16e-07
4.77193e-07
2.54737e-07
2.58058e-07
1.93703e-06
2.54163e-07
2.57676e-07
5.58551e-08
5.58042e-08
5.5547e-08
5.56094e-08
1.94879e-06
2.5421e-07
2.5751e-07
2.54823e-07
2.57992e-07
5.57698e-08
5.58366e-08
1.00346e-06
2.41817e-06
5.04697e-07
1.95655e-06
1.00594e-06
2.46305e-06
5.05341e-07
4.84658e-07
1.17869e-07
4.83673e-07
1.17706e-07
4.84388e-07
1.17001e-07
4.83248e-07
1.16808e-07
1.00552e-06
1.93519e-06
2.48064e-06
5.09648e-07
2.41519e-06
5.08778e-07
1.00464e-06
1.00474e-06
1.92075e-06
2.47964e-06
5.04553e-07
2.41512e-06
5.04013e-07
1.004e-06
4.83328e-07
1.17642e-07
1.17825e-07
4.8431e-07
4.83264e-07
1.1668e-07
1.16895e-07
4.84294e-07
5.51641e-08
5.50549e-08
5.5316e-08
5.52037e-08
1.92288e-06
2.51654e-07
2.53964e-07
2.52455e-07
2.54634e-07
5.50056e-08
5.5123e-08
5.51308e-08
5.52261e-08
5.53948e-08
5.53725e-08
5.51838e-08
5.50667e-08
2.56195e-07
2.5272e-07
1.9295e-06
2.5575e-07
2.51893e-07
5.54166e-08
5.53972e-08
5.50121e-08
5.5108e-08
1.91727e-06
2.55826e-07
2.51625e-07