/*--------------------------------*- C++ -*----------------------------------*\
| =========                 |                                                 |
| \\      /  F ield         | OpenFOAM: The Open Source CFD Toolbox           |
|  \\    /   O peration     | Version:  2206                                  |
|   \\  /    A nd           | Website:  www.openfoam.com                      |
|    \\/     M anipulation  |                                                 |
\*---------------------------------------------------------------------------*/
FoamFile
{
    version     2.0;
    format      ascii;
    arch        "LSB;label=32;scalar=64";
    class       volScalarField;
    location    "149";
    object      omega;
}
// * * * * * * * * * * * * * * * * * * * * * * * * * * * * * * * * * * * * * //

dimensions      [0 0 -1 0 0 0 0];

internalField   nonuniform List<scalar> 
66940
(
33.3848
55.7981
54.4268
65.37
33.3617
55.8989
54.6929
65.5318
33.3748
56.0087
54.9836
65.4508
33.4787
55.9786
54.7826
65.8387
33.4799
55.9439
54.7424
65.9445
33.5356
56.1329
54.9082
66.1303
33.6088
56.1891
55.0132
66.0934
33.7273
56.3091
55.1415
66.1872
33.7712
56.2662
55.2831
66.036
33.739
56.317
55.173
66.0578
33.6437
55.677
55.0038
65.7335
34.0898
58.0443
57.0982
71.0648
65.1715
54.5486
54.068
64.9457
55.8509
55.9846
55.5774
55.7462
65.1994
53.8495
54.2585
64.8167
64.7975
64.9829
53.7884
53.91
54.8992
54.4974
63.9705
64.7161
55.421
55.5315
55.9498
56.0352
55.157
55.4104
55.6738
64.6543
64.9299
54.0731
54.0175
54.4844
64.997
64.3897
65.0995
54.5817
54.1023
54.9392
54.7628
63.9458
64.7141
55.5678
55.5889
56.0451
56.0453
55.1101
55.3768
55.792
63.7503
65.133
54.0496
54.4146
54.7857
64.8425
63.9059
65.2438
54.3749
54.4727
55.0381
54.934
63.9207
65.0359
55.1382
55.5793
56.1529
56.1499
55.0824
55.7809
56.0874
64.6097
65.0943
54.2133
54.5924
54.8079
65.6875
63.9925
65.1646
54.2183
54.4409
55.1201
54.9805
64.6246
65.0009
55.7983
55.7643
56.1772
56.3754
55.8457
55.6799
56.2206
64.3199
65.0804
54.1449
54.5043
55.1791
65.3688
64.3721
65.2614
54.5881
54.5872
55.0975
55.2084
63.9843
65.2627
55.2922
55.9824
56.3816
56.4007
55.983
55.6953
56.377
64.3459
65.1149
54.911
54.6333
55.1437
65.6292
64.7461
65.4522
54.6249
54.7606
55.2266
55.1735
64.4659
65.2997
56.1421
55.984
56.2946
56.5099
56.1875
55.9584
56.4528
64.3195
65.2092
54.3818
54.7481
55.2998
65.5353
65.1031
65.3846
54.6038
54.4762
55.3062
55.2966
64.7914
65.6067
56.0432
55.8172
56.3804
56.4612
56.0011
56.1094
56.4412
64.6691
65.1509
54.9639
54.9336
55.35
66.0422
64.6039
65.5518
55.0564
54.6948
55.3242
55.3492
65.1936
65.0583
55.7155
55.9564
56.327
56.449
55.7941
56.0073
56.5317
64.4142
65.2131
55.0002
54.6066
55.3601
65.4098
65.201
65.2926
55.1231
54.7741
55.3803
55.1773
64.3073
65.1117
56.0102
56.0389
56.3607
56.3745
55.9044
56.0939
56.4385
64.8259
65.2252
54.652
54.7589
55.22
65.8839
64.7303
64.7788
54.9601
54.7917
54.9672
54.9249
64.4376
64.8659
56.1522
56.0116
56.1118
56.2539
56.0395
55.8947
56.2222
64.868
64.7172
54.8172
54.6975
54.9674
65.0696
64.4348
67.5227
54.9123
54.8734
56.2709
56.212
63.8759
67.529
54.8945
54.9056
56.3189
56.3098
55.2809
56.5227
56.658
64.3719
67.4157
54.7004
56.2095
56.2421
67.8147
70.6634
56.9809
57.0158
72.1916
57.2005
57.1976
34.264
33.9172
34.1511
57.2634
70.6207
56.906
398.288
33.0855
33.2478
33.4578
33.2865
107.843
55.7504
165.745
41.734
65.459
208.229
207.776
171.3
296.196
171.157
296.143
397.362
397.257
174.781
298.308
174.783
298.23
32.9583
33.0065
32.9624
33.2454
33.2967
33.4749
33.2835
107.905
165.625
41.732
55.3601
107.723
165.586
40.9676
399.131
398.991
103.854
39.9699
163.266
54.2214
103.29
39.2198
163.382
208.185
206.746
65.2787
208.368
206.685
171.585
296.229
171.558
296.178
397.416
397.306
174.75
298.322
174.759
298.255
32.7818
33.1562
32.7401
33.2506
33.4945
33.4981
33.4554
107.813
165.592
41.7326
55.6637
107.839
165.475
41.4169
399.164
399.034
104.672
40.0586
163.535
54.0141
104.259
39.2649
163.449
208.29
206.673
65.3664
208.21
206.613
171.618
296.25
171.626
296.197
397.43
397.321
174.766
298.353
174.714
298.285
33.3426
33.2911
33.2925
33.1288
33.4867
33.605
33.4483
107.954
165.505
41.7983
55.6368
107.889
165.471
40.8695
399.186
399.046
104.924
40.096
163.551
54.4841
104.886
39.638
163.527
208.138
206.62
65.6414
208.339
206.654
171.625
296.258
171.641
296.197
397.487
397.392
174.838
298.362
174.75
298.283
33.293
33.1131
33.3309
33.3716
33.5565
33.7489
33.5802
108.225
165.586
41.8301
55.3247
107.991
165.531
41.5723
399.198
399.053
105.054
40.1665
163.589
54.0743
105.062
39.9303
163.568
208.274
206.661
65.7946
208.226
206.627
171.623
296.256
171.631
296.207
397.508
397.383
174.831
298.365
174.787
298.293
33.1665
33.6044
33.4236
33.2995
33.6857
33.7399
33.7037
108.181
165.617
41.911
55.5645
108.153
165.639
41.5475
399.202
399.053
105.098
40.3589
163.638
53.9732
105.168
39.861
163.58
208.151
206.647
65.9079
208.365
206.679
171.629
296.27
171.621
296.208
397.521
397.42
174.851
298.367
174.689
298.294
33.3071
33.3515
33.4527
33.432
33.7649
33.8263
33.8176
108.32
165.647
42.0712
55.7588
108.186
165.635
41.6727
399.186
399.048
105.174
40.328
163.616
54.3876
105.281
39.8342
163.584
208.322
206.702
65.9428
208.272
206.668
171.645
296.262
171.63
296.209
397.522
397.409
174.855
298.36
174.82
298.289
33.3254
33.4564
33.4226
33.6059
33.7973
33.899
33.9773
108.28
165.643
42.1169
55.7046
108.222
165.637
41.4593
399.183
399.074
105.248
40.5055
163.646
54.5026
105.169
39.8901
163.576
208.194
206.695
66.0769
208.408
206.737
171.698
296.256
171.71
296.206
397.513
397.438
174.922
298.356
174.856
298.277
33.5657
33.634
33.7776
33.4542
33.809
33.9819
33.9662
108.281
165.704
42.1807
55.7574
108.178
165.644
41.7365
399.191
399.111
105.316
40.6907
163.617
54.1412
105.279
40.2552
163.486
208.314
206.73
66.0597
208.299
206.72
171.654
296.25
171.65
296.159
397.473
397.299
174.879
298.332
174.869
298.224
33.4933
33.8104
33.7136
33.6201
33.7815
33.9711
33.9515
108.267
165.712
42.2628
55.7972
108.236
165.655
41.5673
399.2
399.042
105.27
40.634
163.7
54.936
105.233
40.0973
163.629
208.243
206.756
65.9326
208.461
206.812
171.485
296.174
171.655
295.717
397.28
396.58
174.692
298.256
174.789
297.79
33.3916
33.7169
33.8508
33.6478
33.6727
33.7837
33.8346
107.896
165.692
42.3564
55.8291
108.072
165.581
41.5379
398.98
398.271
105.203
40.7017
163.628
54.8042
105.3
40.1633
163.524
208.478
206.94
65.9176
208.464
206.939
174.245
296.075
172.644
293.432
395.854
389.963
174.611
296.958
173.502
293.577
33.1446
33.3982
33.2805
35.5729
35.6843
35.8971
35.9178
108.182
164.362
41.7228
54.7633
106.819
165.021
42.1279
396.81
390.114
107.931
40.6175
162.876
54.5522
104.808
41.7301
164.888
207.958
206.899
66.0129
207.567
206.985
148.298
1644.23
216.269
381.889
1517.92
499.061
148.513
1644.35
216.445
381.995
23.1621
26.1248
26.3198
36.5068
20.7405
28.2851
28.2916
93.3681
300.345
41.2692
48.183
115.918
221.199
39.5025
1518.21
499.289
93.3485
40.7808
300.419
47.9659
116.078
39.1076
221.028
346.978
348.04
57.0514
309.408
309.53
397.047
398.113
398.761
398.873
65.262
206.709
208.352
207.409
208.378
297.624
53.9849
164.64
173.554
296.136
297.569
171.101
173.482
296.18
297.632
171
105.413
53.8277
163.271
39.8371
164.412
39.7575
103.153
105.308
53.1792
163.072
39.8289
164.144
39.3815
103.03
65.0228
207.703
208.171
398.805
397.208
398.293
64.5382
206.701
208.167
207.418
208.18
398.875
399.014
174.891
298.225
298.272
174.795
107.912
55.5537
165.929
41.5975
165.952
41.3724
107.918
174.806
298.291
298.342
174.761
107.597
55.7633
41.4681
165.484
41.226
165.621
107.73
174.732
298.2
107.633
55.8081
41.3682
165.754
174.713
298.171
107.281
54.9911
165.562
41.1815
165.412
41.4938
107.466
174.477
298.25
298.326
174.664
107.063
55.6029
41.3006
165.685
41.1139
165.655
107.722
174.454
298.216
298.296
174.607
398.977
399.096
65.4393
208.195
206.742
208.244
207.363
397.259
398.293
105.652
53.7472
39.8219
163.083
39.6753
164.354
102.805
105.511
53.515
39.5486
163.355
39.428
164.518
103.146
173.577
296.202
297.631
171.027
173.508
296.204
297.643
171.036
398.676
398.222
64.7588
208.193
206.785
208.211
207.489
398.734
398.88
397.195
398.274
397.204
397.1
398.938
398.769
206.642
208.342
65.2308
206.56
208.326
397.12
397.236
398.795
398.949
64.5528
206.538
208.313
206.558
208.312
171.181
296.247
170.81
296.191
103.728
163.061
39.3657
54.503
102.959
163.404
39.2099
103.663
162.867
39.1951
54.1622
102.845
163.254
39.8285
171.217
296.163
296.227
171.428
171.019
296.223
296.274
171.395
102.979
54.2678
163.494
39.9081
163.445
39.6642
104.278
103.505
54.2126
163.437
39.9939
163.036
39.4365
104.168
206.633
208.172
64.6744
206.627
208.234
399.05
398.928
397.299
397.4
63.9947
206.566
208.163
206.612
208.205
398.924
399.103
107.939
165.702
41.0714
55.6644
107.352
165.843
40.7451
174.729
298.402
174.444
298.3
107.811
40.9678
165.416
55.7501
107.229
41.2357
165.477
174.627
298.239
298.33
174.764
107.383
55.7192
165.761
41.7432
165.535
41.5652
107.968
174.541
298.322
298.412
174.67
106.939
55.8662
41.5784
165.499
41.3286
165.289
107.961
174.705
298.364
174.397
298.266
107.685
40.9287
165.425
55.4126
107.144
40.6032
165.662
174.663
298.326
174.31
298.228
107.454
55.297
165.541
41.4022
165.292
41.6331
107.917
174.492
298.287
298.378
174.673
107.299
55.434
41.5629
165.669
41.3888
165.518
107.906
174.39
298.246
298.343
174.689
208.159
206.649
65.0037
208.152
206.553
397.403
397.299
399.004
399.156
64.1225
208.184
206.589
208.145
206.528
397.34
397.44
103.67
39.0149
163.184
53.5215
102.561
39.3423
163.392
171.324
296.268
170.92
296.212
171.283
296.271
170.875
296.2
103.635
54.0618
39.9118
163.404
39.8903
163.268
104.02
103.235
54.2159
39.7676
163.44
39.4869
163.258
104.143
171.152
296.248
296.302
171.458
171.15
296.228
296.288
171.435
398.907
398.83
397.355
397.202
64.4113
208.334
206.665
208.252
206.641
398.842
398.989
397.25
397.359
397.252
397.124
398.984
398.823
206.539
208.315
65.0397
206.516
208.299
397.139
397.255
398.849
399.005
63.8256
206.516
208.303
206.527
208.295
171.497
296.31
171.419
296.229
104.483
163.407
39.5034
54.7571
104.004
163.523
39.7333
104.399
163.348
39.7265
54.0131
104.001
163.431
39.4854
171.477
296.19
296.253
171.609
171.51
296.243
296.309
171.553
104.25
54.7421
163.591
39.9736
163.324
39.8054
104.638
103.892
54.3623
163.479
40.0414
163.303
39.6175
104.625
206.574
208.157
64.6727
206.524
208.109
399.105
398.944
397.318
397.438
63.7835
206.498
208.113
206.492
208.096
398.968
399.125
107.904
165.54
41.2922
55.7868
107.385
165.741
41.5128
174.694
298.441
174.53
298.334
107.923
41.1046
165.473
55.3069
107.447
40.7835
165.536
174.572
298.271
298.359
174.741
107.364
55.8997
165.8
41.8165
165.461
41.6539
107.997
174.473
298.344
298.442
174.654
107.514
55.7845
41.8109
165.575
41.6284
165.361
107.864
174.661
298.4
174.432
298.29
107.814
40.8093
165.471
55.4428
107.518
41.5199
165.599
174.672
298.361
174.425
298.261
107.295
55.4518
165.424
41.5495
165.381
41.2527
107.903
174.487
298.293
298.397
174.61
107.152
55.5113
41.7624
165.519
41.1851
165.361
107.93
174.391
298.273
298.374
174.584
208.187
206.581
65.0939
208.184
206.532
397.461
397.323
399.035
399.195
64.7464
208.207
206.565
208.18
206.513
397.347
397.459
104.517
39.3817
163.547
53.8655
103.673
39.6652
163.592
171.64
296.334
171.509
296.247
171.621
296.317
171.342
296.232
104.422
54.6941
39.9502
163.496
39.9559
163.318
104.738
104.169
54.653
39.9363
163.61
39.7549
163.39
104.788
171.598
296.257
296.327
171.675
171.615
296.238
296.312
171.582
399.002
398.819
397.404
397.29
64.4755
208.158
206.609
208.202
206.627
398.828
398.994
397.308
397.427
397.272
397.15
399.034
398.87
206.516
208.298
65.2411
206.482
208.289
397.169
397.282
398.89
399.047
64.0538
206.479
208.291
206.468
208.285
171.564
296.329
171.476
296.248
104.684
163.474
39.2282
54.6876
104.176
163.584
39.9371
104.627
163.379
39.7536
54.1917
103.961
163.452
39.9732
171.564
296.199
296.276
171.627
171.353
296.255
296.33
171.58
104.314
54.855
163.578
40.2098
163.522
39.6171
104.818
104.258
54.6896
163.437
40.2191
163.384
40.0189
104.79
206.448
208.105
64.8053
206.55
208.186
399.152
399.029
397.374
397.472
64.4086
206.527
208.15
206.557
208.168
399.023
399.206
108.008
165.678
41.3814
55.8792
107.465
165.838
41.616
174.755
298.457
174.479
298.343
108.047
41.27
165.48
55.8328
107.556
41.0219
165.507
174.497
298.286
298.382
174.749
107.483
55.5299
165.783
41.9388
165.549
41.701
108.143
174.439
298.341
298.441
174.689
107.242
55.8943
42.0218
165.573
41.8431
165.298
108.212
174.631
298.402
174.356
298.301
108.042
40.9893
165.354
55.8167
107.505
41.6748
165.621
174.692
298.387
174.42
298.288
107.434
55.7719
165.526
41.2541
165.297
41.5546
107.989
174.34
298.315
298.41
174.693
107.359
55.4307
41.7787
165.661
41.5778
165.316
108.035
174.506
298.302
298.399
174.689
208.172
206.561
65.1342
208.161
206.511
397.473
397.338
399.047
399.205
64.4672
208.207
206.552
208.169
206.499
397.367
397.48
104.868
39.5571
163.494
54.474
104.443
39.4636
163.626
171.621
296.336
171.645
296.248
171.693
296.319
171.425
296.231
104.467
54.5865
39.7671
163.533
39.6014
163.242
104.932
103.981
54.5423
40.1228
163.67
39.7407
163.564
104.999
171.644
296.259
296.326
171.764
171.663
296.232
296.314
171.709
399.004
398.929
397.445
397.258
64.965
208.323
206.659
208.246
206.617
398.938
399.086
397.287
397.407
397.304
397.183
399.068
398.902
206.469
208.287
65.2225
206.463
208.277
397.203
397.314
398.916
399.075
64.7232
206.482
208.275
206.478
208.273
171.579
296.342
171.529
296.262
104.863
163.508
39.5448
54.9532
104.441
163.536
40.1532
104.818
163.366
39.8412
54.6832
104.325
163.474
40.0379
171.544
296.201
296.268
171.594
171.529
296.263
296.336
171.552
104.534
54.9036
163.562
40.3291
163.339
39.7874
104.892
104.552
54.7365
163.384
40.2947
163.282
40.1572
104.889
206.526
208.156
64.9805
206.508
208.138
399.196
399.021
397.399
397.518
64.4926
206.483
208.122
206.469
208.095
399.02
399.183
108.224
165.488
41.2908
55.9681
107.63
165.752
41.9457
174.777
298.438
174.398
298.332
108.241
41.5961
165.263
55.6454
107.782
41.4427
165.538
174.56
298.285
298.382
174.802
107.728
56.0461
165.685
42.0819
165.476
41.5157
108.286
174.539
298.332
298.427
174.79
107.827
56.0849
42.2513
165.653
42.1582
165.36
108.339
174.7
298.422
174.429
298.309
108.191
41.3354
165.399
55.5911
107.668
41.204
165.7
174.727
298.411
174.45
298.303
107.79
55.5792
165.629
41.658
165.263
41.1895
108.223
174.433
298.315
298.409
174.741
107.775
55.7175
42.0119
165.625
41.882
165.664
108.241
174.531
298.306
298.414
174.69
208.162
206.547
65.0458
208.166
206.522
397.496
397.361
399.048
399.209
64.3401
208.209
206.587
208.174
206.531
397.394
397.503
104.984
39.8123
163.377
54.8481
104.645
40.0187
163.607
171.656
296.342
171.738
296.264
171.754
296.311
171.582
296.234
104.455
53.9219
39.7671
163.523
39.779
163.541
105.113
104.745
54.5949
40.3197
163.658
40.0933
163.435
105.045
171.725
296.269
296.348
171.749
171.698
296.237
296.315
171.783
399.089
398.9
397.43
397.312
65.314
208.165
206.631
208.177
206.629
398.891
399.065
397.318
397.434
397.336
397.216
399.092
398.927
206.491
208.267
65.2451
206.483
208.273
397.228
397.343
398.939
399.092
64.4548
206.491
208.285
206.502
208.241
171.572
296.347
171.399
296.266
104.923
163.355
39.6089
54.8719
103.87
163.493
40.235
104.817
163.334
39.9085
54.4021
104.433
163.431
39.7697
171.592
296.214
296.289
171.6
171.555
296.273
296.346
171.557
104.004
54.9185
163.621
40.2745
163.597
39.9945
104.975
104.216
55.0396
163.468
40.4153
163.418
39.8243
104.796
206.439
208.119
65.1894
206.544
208.244
399.178
399.051
397.418
397.514
64.8616
206.531
208.189
206.546
208.201
399.022
399.204
108.18
165.544
41.682
55.9987
107.719
165.729
41.8292
174.787
298.432
174.528
298.327
108.283
41.6722
165.378
56.1795
107.863
41.8773
165.62
174.531
298.293
298.386
174.78
107.271
55.8252
165.745
42.0701
165.44
41.8607
108.331
174.617
298.325
298.423
174.804
107.584
56.1971
42.1482
165.61
41.9461
165.364
108.214
174.732
298.417
174.485
298.316
108.154
41.5592
165.649
55.7628
107.833
41.4113
165.673
174.741
298.41
174.549
298.297
107.677
55.5245
165.653
41.9231
165.431
41.7671
108.224
174.514
298.32
298.418
174.716
107.641
55.7669
42.074
165.795
41.4512
165.416
108.241
174.651
298.312
298.401
174.737
208.209
206.573
65.1228
208.212
206.52
397.518
397.382
399.042
399.204
64.3975
208.257
206.557
208.214
206.496
397.405
397.512
104.972
39.9976
163.435
54.5298
104.364
39.8302
163.684
171.699
296.351
171.64
296.268
171.756
296.317
171.606
296.233
104.521
54.7243
40.1253
163.58
39.6273
163.575
104.883
104.536
54.8663
40.546
163.731
40.3965
163.638
105.084
171.614
296.269
296.346
171.758
171.732
296.234
296.314
171.746
399.051
398.963
397.435
397.249
65.3957
208.374
206.702
208.28
206.654
398.953
399.103
397.269
397.379
397.35
397.228
399.098
398.935
206.501
208.243
65.3677
206.482
208.265
397.238
397.341
398.941
399.082
64.94
206.464
208.296
206.444
208.23
171.558
296.351
171.473
296.268
104.972
163.546
39.6039
54.895
104.595
163.55
40.2666
104.947
163.32
40.1908
54.5457
104.44
163.429
40.346
171.566
296.208
296.278
171.601
171.465
296.274
296.341
171.599
104.624
55.0033
163.493
40.4139
163.458
40.2384
104.978
104.691
54.7761
163.492
40.5517
163.383
40.3745
104.938
206.534
208.182
65.182
206.519
208.184
399.173
399.008
397.427
397.535
64.7036
206.526
208.169
206.503
208.131
399.009
399.153
108.218
165.504
41.5679
55.7771
107.897
165.779
41.8337
174.819
298.428
174.536
298.327
108.243
41.4951
165.514
55.8964
107.74
42.1449
165.631
174.635
298.289
298.387
174.849
107.703
55.9008
165.782
42.1207
165.556
41.8981
108.326
174.527
298.322
298.414
174.796
107.735
55.9279
42.2798
165.499
41.7158
165.262
108.309
174.738
298.422
174.571
298.314
108.318
41.4308
165.712
55.8291
107.714
42.0596
165.744
174.777
298.42
174.448
298.307
107.926
55.9446
165.637
41.5017
165.312
41.5444
108.024
174.612
298.32
298.412
174.748
108.003
56.2294
42.0973
165.699
41.9214
165.447
108.387
174.499
298.306
298.405
174.763
208.215
206.549
65.1294
208.199
206.527
397.52
397.392
399.049
399.196
64.3544
208.229
206.556
208.184
206.517
397.411
397.514
105.107
40.1671
163.511
55.04
104.69
40.016
163.666
171.708
296.346
171.745
296.262
171.798
296.308
171.671
296.227
104.665
54.6723
40.2667
163.567
40.1445
163.459
105.036
104.761
54.7216
40.6051
163.708
40.0375
163.583
105.125
171.768
296.269
296.337
171.726
171.73
296.236
296.301
171.717
399.083
398.893
397.392
397.284
65.4407
208.203
206.681
208.204
206.655
398.876
399.035
397.292
397.389
397.351
397.25
399.082
398.94
206.466
208.271
65.4755
206.48
208.321
397.269
397.349
398.95
399.068
64.8585
206.463
208.327
206.418
208.237
171.635
296.346
171.436
296.27
104.968
163.522
39.7722
55.2276
104.601
163.516
40.3758
104.901
163.354
40.1703
55.1377
104.344
163.457
40.0518
171.655
296.207
296.272
171.691
171.599
296.269
296.342
171.645
104.723
54.7607
163.482
40.6298
163.293
40.0798
105.116
104.515
54.7226
163.497
40.6427
163.524
40.3579
104.994
206.516
208.168
65.2526
206.588
208.293
399.148
399.047
397.44
397.514
64.4386
206.571
208.236
206.576
208.181
399.03
399.172
108.277
165.536
41.6948
55.8189
107.779
165.782
41.9573
174.816
298.419
174.556
298.33
108.242
42.0305
165.268
56.4157
107.772
41.796
165.569
174.668
298.285
298.374
174.853
107.749
55.8429
165.758
42.272
165.553
42.1048
108.357
174.585
298.338
298.425
174.751
107.711
56.2716
42.327
165.572
41.823
165.4
108.282
174.769
298.417
174.561
298.318
108.332
41.5756
165.434
56.1951
107.9
41.8753
165.775
174.826
298.4
174.487
298.3
107.734
55.5932
165.722
41.8175
165.468
42.1057
108.175
174.534
298.322
298.411
174.716
107.813
56.2536
42.1852
165.758
41.9703
165.501
108.339
174.579
298.295
298.389
174.769
208.209
206.541
65.3581
208.21
206.52
397.508
397.389
399.079
399.205
64.5013
208.233
206.551
208.18
206.488
397.412
397.492
105.134
40.3362
163.76
55.0989
104.771
40.475
163.777
171.78
296.34
171.585
296.253
171.713
296.31
171.791
296.224
104.914
54.8192
40.1358
163.557
40.5455
163.422
105.137
104.788
55.1612
40.685
163.778
40.513
163.681
105.13
171.764
296.254
296.319
171.755
171.786
296.223
296.293
171.751
399.011
398.946
397.39
397.229
65.3941
208.381
206.735
208.291
206.702
398.936
399.055
397.261
397.338
397.367
397.291
399.07
398.953
206.451
208.244
65.3344
206.483
208.329
397.273
397.363
398.966
399.068
64.7502
206.522
208.344
206.412
208.229
171.656
296.337
171.592
296.259
105.173
163.471
40.4081
54.7681
104.81
163.533
40.1045
105.045
163.363
40.3766
55.2807
104.589
163.43
40.1838
171.505
296.193
296.264
171.546
171.589
296.245
296.324
171.652
104.765
54.7892
163.582
40.6494
163.31
40.3843
105.054
104.678
55.2386
163.504
40.7299
163.29
40.2082
104.97
206.503
208.142
65.3272
206.547
208.204
399.148
399.034
397.407
397.509
64.3584
206.594
208.241
206.481
208.101
399.043
399.149
108.375
165.795
41.9784
56.2883
107.827
165.823
41.8058
174.82
298.426
174.525
298.336
108.28
42.1926
165.262
56.1766
107.761
41.9766
165.574
174.683
298.26
298.353
174.9
107.881
56.1006
165.797
42.399
165.569
41.8242
108.445
174.638
298.316
298.417
174.841
107.758
56.3398
42.4952
165.52
41.9675
165.242
108.305
174.761
298.409
174.572
298.306
108.333
41.856
165.47
56.3952
107.823
41.7203
165.735
174.8
298.379
174.579
298.273
107.584
56.0092
165.698
42.0484
165.372
41.9886
108.307
174.511
298.305
298.396
174.765
107.69
55.9999
42.3267
165.82
42.0382
165.462
108.35
174.677
298.263
298.36
174.846
208.142
206.534
65.1175
208.19
206.522
397.494
397.393
399.11
399.228
63.9786
208.24
206.61
208.158
206.474
397.38
397.475
105.209
40.2248
163.691
54.8388
104.826
40.4712
163.787
171.78
296.319
171.821
296.24
171.717
296.29
171.823
296.213
104.416
54.9308
40.4397
163.665
40.4181
163.359
105.119
104.308
54.9379
40.7466
163.765
40.618
163.739
105.249
171.677
296.235
296.306
171.736
171.784
296.212
296.284
171.754
399.032
398.889
397.361
397.295
65.6478
208.251
206.749
208.19
206.652
398.873
398.996
397.285
397.368
397.345
397.198
399.059
398.889
206.496
208.266
65.4943
206.611
208.419
397.01
397.285
398.702
398.987
64.6886
206.686
208.489
206.568
208.341
171.622
296.326
171.487
296.199
104.951
163.469
40.2787
55.2204
104.638
163.572
40.4854
104.953
163.426
40.0693
54.9713
104.014
163.492
40.6501
171.593
296.052
296.256
171.651
171.559
296.084
296.294
171.559
104.076
55.3429
163.609
40.6965
163.481
40.4978
104.977
104.551
55.0833
163.37
40.7257
163.289
40.591
104.874
206.558
208.172
65.1252
206.642
208.385
399.135
399.001
397.133
397.402
64.3067
206.73
208.378
206.626
208.269
398.784
399.101
108.359
165.565
42.2092
55.84
107.72
165.874
41.928
174.851
298.411
174.593
298.267
108.221
41.8088
165.269
56.1744
107.721
42.4134
165.522
174.84
298.116
298.326
174.837
107.826
55.9083
165.885
42.4702
165.596
42.0043
108.342
174.653
298.161
298.372
174.778
107.666
56.301
42.5159
165.605
42.3573
165.262
108.274
174.752
298.402
174.477
298.262
108.382
41.6189
165.501
56.4259
107.879
42.2776
165.835
174.808
298.354
174.704
298.22
107.712
55.7223
165.72
42.2492
165.512
42.2422
108.174
174.713
298.166
298.378
174.628
107.821
56.1894
42.5585
165.889
42.0183
165.665
108.334
174.537
298.121
298.337
174.684
208.145
206.578
65.1733
208.278
206.619
397.448
397.283
398.823
399.134
64.1812
208.313
206.762
208.23
206.592
397.113
397.392
105.18
40.3756
163.833
55.1808
104.933
40.1804
163.755
171.809
296.314
171.646
296.187
171.779
296.292
171.847
296.169
104.686
54.7304
40.4882
163.61
40.367
163.521
105.25
104.53
54.9668
40.7669
163.8
40.1938
163.619
105.045
171.76
296.082
296.29
171.754
171.816
296.057
296.27
171.817
398.961
398.862
397.357
397.151
65.5611
208.46
206.909
208.421
206.796
398.646
398.947
396.998
397.263
397.156
396.458
398.85
398.147
206.701
208.501
65.2665
206.73
208.535
394.419
396.719
396.177
398.396
64.7524
206.315
208.194
206.755
208.556
171.352
296.23
171.501
295.749
104.792
163.421
40.224
54.6354
104.552
163.446
40.5084
104.769
163.404
39.8301
54.5442
104.525
163.402
40.4956
171.314
294.215
295.953
171.14
171.253
294.252
295.986
171.155
104.337
54.6498
162.857
40.7277
163.147
40.5016
103.852
104.238
54.6019
162.801
40.2633
163.151
40.5523
104.182
206.757
208.381
65.0111
206.768
208.407
398.941
398.223
394.528
396.85
64.4209
206.357
208.067
206.802
208.42
396.237
398.487
108.235
165.784
42.1812
56.1406
107.708
165.811
42.4038
174.644
298.312
174.703
297.827
108.292
42.0632
165.308
55.6259
107.577
42.3194
165.507
174.461
296.628
298.032
174.208
107.289
56.1207
165.277
42.5762
165.443
42.3755
107.763
174.419
296.664
298.07
174.242
107.267
56.3103
42.5702
164.999
42.4132
165.143
107.882
174.473
298.32
174.579
297.834
108.092
42.3219
165.78
56.1668
107.687
41.977
165.722
174.487
298.279
174.631
297.775
107.045
55.5781
165.115
42.3014
165.371
42.1094
107.455
174.281
296.669
298.073
174.104
107.073
56.2479
42.5421
165.214
42.4609
165.35
107.508
174.294
296.613
298.019
174.098
208.347
206.76
65.2477
208.438
206.76
397.264
396.548
396.254
398.51
64.2372
208.028
206.396
208.394
206.828
394.55
396.832
104.88
40.5983
163.604
54.9354
104.367
40.3246
163.656
171.537
296.229
171.677
295.745
171.458
296.201
171.73
295.718
104.664
54.87
40.6847
162.953
40.3861
163.296
104.34
104.25
54.9927
40.7558
163.092
40.1662
163.422
104.222
171.465
294.266
295.995
171.437
171.352
294.24
295.966
171.326
398.774
398.04
397.165
396.485
64.9871
208.094
206.527
208.475
206.955
396.059
398.285
394.456
396.747
395.771
389.939
396.751
390.046
206.704
208.032
65.5894
206.863
207.405
607.902
396.051
607.984
396.179
65.7914
229.125
229.695
208.421
208.79
174.319
296.115
172.644
293.426
106.415
162.708
40.4898
54.6344
104.157
164.892
42.039
107.121
162.711
40.5279
54.6291
105.651
164.746
42.1293
174.265
950.106
299.002
182.854
174.209
950.143
298.979
182.235
107.473
56.3467
281.966
45.2558
164.414
41.8596
112.332
107.705
56.3202
281.847
45.2854
164.299
42.0007
111.889
206.747
207.875
64.6707
206.836
207.425
396.828
390.123
607.721
396.01
65.8741
229.389
231.266
208.479
208.725
607.686
396.249
108.187
164.419
41.9186
54.488
106.581
165.139
42.5428
174.562
297.005
173.412
293.578
108.21
41.9702
164.163
54.3568
106.604
42.5615
165.021
174.537
950.309
299.163
183.219
108.133
55.834
282.173
45.83
164.685
42.4123
112.688
174.532
950.504
299.135
182.619
108.232
55.8662
45.8898
282.153
42.2864
164.474
112.224
174.466
297
173.281
293.587
107.217
41.7961
164.363
54.5709
106.166
42.378
165.105
174.461
296.966
173.299
293.562
108.079
56.6966
281.968
45.7708
164.542
41.9156
112.705
174.424
950.468
299.114
182.267
108.111
56.806
45.5102
282.213
42.2175
164.606
112.672
174.39
950.369
299.139
182.3
207.89
206.746
64.9432
207.311
206.881
395.885
390.037
607.9
396.155
65.3168
229.464
229.34
208.73
208.426
607.953
396.133
106.236
40.6184
163.02
54.3911
103.962
42.0022
165.04
174.425
296.13
172.748
293.465
174.356
296.106
172.665
293.453
107.944
55.6741
44.9973
281.957
41.4724
164.452
112.23
107.407
56.3135
45.3059
282.09
41.7524
164.595
112.333
174.447
950.205
299.042
182.299
174.309
950.123
299.039
182.382
396.633
390.036
395.806
389.908
66.1014
230.392
228.972
208.849
208.63
607.905
396.137
607.984
396.055
1517.83
499.627
1518.14
499.652
347.135
347.865
56.9388
309.459
309.544
55.7595
274.079
274.164
148.314
1644.43
216.449
381.604
93.4246
300.419
40.7019
48.1979
115.309
221.208
38.9743
93.4325
300.218
40.7219
47.791
115.268
220.935
38.9934
74.7279
49.1097
199.8
39.6284
74.6871
48.6866
199.465
39.586
347.371
347.966
56.3065
309.584
309.796
1519.02
499.45
55.3605
274.082
274.583
93.5207
300.583
41.1307
48.3261
115.701
221.297
39.3817
148.471
1644.69
216.721
381.895
93.7501
41.181
300.519
48.1226
116.089
39.3449
221.112
74.8703
49.1047
199.937
40.2281
74.7998
49.0636
40.2677
199.621
22.8762
26.1154
26.2325
35.8466
20.8597
28.2119
28.2744
22.9524
26.1491
25.9444
35.6447
20.7955
28.3093
28.173
22.911
26.0163
25.9821
36.1487
20.8289
28.32
28.2766
23.4073
37.808
29.3046
29.8633
23.6144
37.868
29.6707
29.6815
23.0881
37.3735
29.1443
29.7752
23.1829
37.5986
29.9626
29.1385
147.343
1644.28
217.006
382.022
93.589
40.9677
300.543
48.3144
115.703
39.2564
221.394
147.41
1644.32
216.948
382.083
75.7223
48.647
199.865
40.6635
75.9635
49.2577
40.1891
199.988
347.499
347.16
56.8024
309.568
309.555
1518.19
499.202
55.6982
274.152
274.256
93.4093
40.7341
300.589
48.0571
115.495
38.9712
221.243
148.198
1644.38
216.751
381.758
148.193
1644.12
216.54
381.91
74.4206
48.7693
39.5578
199.698
74.5947
48.9353
39.6586
199.801
1517.8
499.758
1517.92
499.506
55.8804
274.321
274.071
454.534
454.543
127.739
352.703
127.646
352.304
454.121
454.604
127.925
352.737
127.964
352.603
129.152
352.774
129.323
352.857
454.357
454.294
127.523
352.533
127.644
352.65
454.683
454.418
399.035
401.825
401.86
248.187
306.473
135.957
182.888
306.605
134.345
181.403
326.03
170.98
306.183
183.133
306.267
182.961
325.927
415.099
214.107
296.149
415.215
214.016
325.995
171.088
306.487
183.116
326.123
306.256
183.021
415.246
213.919
296.197
213.947
415.086
397.279
397.386
329.395
174.533
186.573
309.568
186.36
309.668
329.29
417.607
216.939
298.247
417.802
216.929
329.274
174.803
186.477
309.657
329.375
186.655
309.561
417.818
216.917
298.317
216.928
417.604
399.01
399.151
248.353
401.685
401.6
402.388
401.471
248.619
182.697
135.749
306.616
208.253
182.515
135.366
306.493
181.263
134.226
306.318
206.793
181.1
133.955
306.268
248.493
402.209
401.756
248.18
402.193
401.091
182.387
306.771
208.243
135.728
135.483
306.822
182.329
181.05
305.788
206.669
134.33
134.013
306.001
181.513
326.018
171.354
306.193
183.279
306.247
183.197
325.96
415.123
213.909
296.191
415.263
213.87
325.943
171.497
306.237
183.331
326.004
306.189
183.27
415.276
213.877
296.236
213.892
415.12
397.327
397.426
329.444
174.459
186.545
309.613
186.343
309.717
329.339
417.667
216.929
298.273
417.861
216.914
329.324
174.757
186.464
309.709
329.428
186.613
309.616
417.887
216.907
298.339
216.909
417.678
399.054
399.195
248.308
401.998
401.939
402.14
402.076
248.291
182.586
135.65
306.698
208.251
182.221
135.5
306.612
181.407
134.366
306.201
206.636
181.443
134.238
306.226
248.372
402.024
402.022
248.428
401.969
401.945
182.353
306.573
208.216
135.807
135.262
306.685
182.601
181.297
306.288
206.61
134.503
133.99