/*--------------------------------*- C++ -*----------------------------------*\
| =========                 |                                                 |
| \\      /  F ield         | OpenFOAM: The Open Source CFD Toolbox           |
|  \\    /   O peration     | Version:  2206                                  |
|   \\  /    A nd           | Website:  www.openfoam.com                      |
|    \\/     M anipulation  |                                                 |
\*---------------------------------------------------------------------------*/
FoamFile
{
    version     2.0;
    format      ascii;
    arch        "LSB;label=32;scalar=64";
    class       volScalarField;
    location    "149";
    object      p;
}
// * * * * * * * * * * * * * * * * * * * * * * * * * * * * * * * * * * * * * //

dimensions      [0 2 -2 0 0 0 0];

internalField   nonuniform List<scalar> 
66940
(
-0.0160848
-0.0160848
-0.0160848
-0.0160734
-0.0162648
-0.0162648
-0.0162648
-0.0162534
-0.0164445
-0.0164445
-0.0164445
-0.016433
-0.016624
-0.0166239
-0.016624
-0.0166125
-0.0168039
-0.0168038
-0.0168039
-0.0167924
-0.0169842
-0.0169839
-0.016984
-0.0169724
-0.0171646
-0.0171641
-0.0171642
-0.0171522
-0.0173454
-0.0173439
-0.0173441
-0.0173311
-0.0175265
-0.0175223
-0.0175224
-0.0175077
-0.0177017
-0.0176918
-0.0176921
-0.0176774
-0.0177642
-0.0177899
-0.0177898
-0.0178169
-0.0163692
-0.0170734
-0.0170309
-0.0175349
-0.0160513
-0.0160402
-0.0160403
-0.0160513
-0.0160396
-0.0160396
-0.0160398
-0.0160397
-0.0160512
-0.0160402
-0.0160403
-0.0160513
-0.0160733
-0.0162314
-0.0160849
-0.0160849
-0.01622
-0.01622
-0.0160734
-0.0162314
-0.0160848
-0.0160847
-0.0162199
-0.0162199
-0.0160847
-0.01622
-0.01622
-0.0160733
-0.0162313
-0.016085
-0.0162199
-0.0162199
-0.0162313
-0.0162534
-0.0164111
-0.0162648
-0.0162649
-0.0163998
-0.0163998
-0.0162534
-0.0164112
-0.0162648
-0.0162648
-0.0163998
-0.0163998
-0.0162648
-0.0163998
-0.0163998
-0.0162533
-0.0164111
-0.0162649
-0.0163998
-0.0163998
-0.0164111
-0.016433
-0.0165907
-0.0164445
-0.0164445
-0.0165794
-0.0165794
-0.016433
-0.0165907
-0.0164444
-0.0164445
-0.0165793
-0.0165794
-0.0164443
-0.0165794
-0.0165794
-0.0164331
-0.0165907
-0.0164446
-0.0165794
-0.0165793
-0.0165906
-0.0166125
-0.0167706
-0.016624
-0.0166239
-0.0167592
-0.0167592
-0.0166125
-0.0167706
-0.0166239
-0.016624
-0.0167593
-0.0167593
-0.0166239
-0.0167592
-0.0167593
-0.0166126
-0.0167706
-0.016624
-0.0167592
-0.0167593
-0.0167706
-0.0167923
-0.0169508
-0.0168038
-0.0168038
-0.0169396
-0.0169396
-0.0167923
-0.0169508
-0.0168038
-0.0168038
-0.0169396
-0.0169396
-0.0168037
-0.0169396
-0.0169397
-0.0167924
-0.0169509
-0.0168039
-0.0169395
-0.0169395
-0.0169509
-0.0169723
-0.0171313
-0.0169839
-0.0169839
-0.0171201
-0.0171201
-0.0169723
-0.0171313
-0.0169839
-0.016984
-0.0171202
-0.0171202
-0.016984
-0.0171201
-0.0171202
-0.0169724
-0.0171314
-0.0169841
-0.0171201
-0.0171201
-0.0171314
-0.017152
-0.017312
-0.0171641
-0.0171641
-0.0173011
-0.017301
-0.0171521
-0.017312
-0.017164
-0.0171641
-0.0173012
-0.017301
-0.017164
-0.017301
-0.0173011
-0.0171522
-0.0173119
-0.0171643
-0.0173009
-0.0173008
-0.0173119
-0.017331
-0.0174929
-0.017344
-0.017344
-0.017483
-0.0174829
-0.017331
-0.0174929
-0.0173439
-0.0173439
-0.0174832
-0.017483
-0.0173439
-0.017483
-0.0174829
-0.0173311
-0.0174928
-0.0173441
-0.0174827
-0.0174827
-0.0174928
-0.0175074
-0.0176738
-0.0175222
-0.0175223
-0.0176679
-0.0176677
-0.0175074
-0.0176738
-0.017522
-0.0175221
-0.0176683
-0.0176681
-0.0175222
-0.0176679
-0.0176682
-0.0175076
-0.0176738
-0.0175226
-0.0176675
-0.0176674
-0.0176738
-0.0176768
-0.0178432
-0.0176916
-0.0176919
-0.0178482
-0.0178477
-0.0176771
-0.0178428
-0.0176913
-0.0176914
-0.0178493
-0.0178493
-0.0176917
-0.0178484
-0.0178492
-0.0176772
-0.017843
-0.0176923
-0.0178475
-0.0178473
-0.0178431
-0.0178163
-0.0177085
-0.0177886
-0.017789
-0.0176915
-0.0176865
-0.017817
-0.0177148
-0.0177893
-0.0177891
-0.0176884
-0.0176912
-0.0177894
-0.0176913
-0.0176903
-0.0178163
-0.0177079
-0.0177899
-0.0176889
-0.0176897
-0.0177088
-0.0175344
-0.0170321
-0.0170254
-0.017558
-0.0170313
-0.0170338
-0.0163386
-0.0163717
-0.0163694
-0.0170334
-0.0175335
-0.0170299
-0.015961
-0.0160399
-0.0160399
-0.0160398
-0.0160399
-0.0159612
-0.0159508
-0.015961
-0.0159512
-0.0159611
-0.0159612
-0.015961
-0.0161411
-0.0160735
-0.0160737
-0.016141
-0.0160736
-0.0161411
-0.0161415
-0.0160734
-0.0160731
-0.0161413
-0.0160849
-0.0160848
-0.0160848
-0.0162199
-0.0162199
-0.0162199
-0.0162199
-0.0161413
-0.0160736
-0.0160849
-0.0161299
-0.0160735
-0.0161412
-0.0161299
-0.0160734
-0.0161412
-0.0161405
-0.016085
-0.0160738
-0.0161298
-0.0160743
-0.0161297
-0.0161407
-0.0160733
-0.0160736
-0.0161413
-0.0161414
-0.016141
-0.0163211
-0.0162538
-0.0162538
-0.0163211
-0.0162537
-0.0163211
-0.0163215
-0.0162535
-0.0162532
-0.0163213
-0.0162648
-0.0162648
-0.0162648
-0.0163997
-0.0163997
-0.0163997
-0.0163998
-0.0163212
-0.0162537
-0.0162648
-0.0163099
-0.0162535
-0.0163211
-0.0163099
-0.0162535
-0.0163212
-0.0163206
-0.0162648
-0.0162539
-0.0163099
-0.0162542
-0.0163099
-0.0163207
-0.0162534
-0.0162537
-0.0163213
-0.0163213
-0.0163211
-0.0165007
-0.0164335
-0.0164335
-0.0165006
-0.0164334
-0.0165006
-0.0165011
-0.0164332
-0.0164329
-0.0165008
-0.0164445
-0.0164445
-0.0164444
-0.0165793
-0.0165793
-0.0165793
-0.0165793
-0.0165008
-0.0164334
-0.0164444
-0.0164896
-0.0164332
-0.0165007
-0.0164895
-0.0164332
-0.0165008
-0.0165001
-0.0164445
-0.0164337
-0.0164895
-0.0164339
-0.0164895
-0.0165003
-0.0164331
-0.0164334
-0.0165009
-0.016501
-0.0165005
-0.0166803
-0.016613
-0.016613
-0.0166803
-0.016613
-0.0166803
-0.0166808
-0.0166128
-0.0166125
-0.0166805
-0.016624
-0.0166241
-0.016624
-0.0167592
-0.0167591
-0.0167592
-0.0167592
-0.0166805
-0.0166129
-0.0166239
-0.0166692
-0.0166127
-0.0166803
-0.0166692
-0.0166128
-0.0166805
-0.0166798
-0.016624
-0.0166133
-0.0166692
-0.0166134
-0.0166692
-0.01668
-0.0166126
-0.0166129
-0.0166805
-0.0166805
-0.0166803
-0.0168603
-0.0167929
-0.0167928
-0.0168603
-0.0167928
-0.0168603
-0.0168608
-0.0167927
-0.0167924
-0.0168605
-0.0168039
-0.016804
-0.0168039
-0.0169394
-0.0169394
-0.0169394
-0.0169394
-0.0168605
-0.0167928
-0.0168038
-0.0168494
-0.0167926
-0.0168604
-0.0168494
-0.0167927
-0.0168605
-0.0168598
-0.0168039
-0.0167932
-0.0168493
-0.0167934
-0.0168494
-0.01686
-0.0167926
-0.0167929
-0.0168607
-0.0168607
-0.0168603
-0.0170406
-0.0169731
-0.0169731
-0.0170406
-0.0169731
-0.0170406
-0.0170411
-0.0169729
-0.0169726
-0.0170408
-0.0169841
-0.0169842
-0.0169842
-0.0171197
-0.0171197
-0.0171197
-0.0171197
-0.0170408
-0.016973
-0.0169838
-0.0170298
-0.0169728
-0.0170406
-0.0170298
-0.016973
-0.0170408
-0.0170401
-0.016984
-0.0169734
-0.0170298
-0.0169736
-0.0170298
-0.0170404
-0.0169728
-0.0169731
-0.0170411
-0.0170408
-0.0170407
-0.017221
-0.0171535
-0.0171535
-0.017221
-0.0171535
-0.0172209
-0.0172215
-0.0171533
-0.017153
-0.0172212
-0.0171646
-0.0171647
-0.0171646
-0.0172999
-0.0172998
-0.0172998
-0.0172998
-0.0172211
-0.0171535
-0.0171639
-0.0172105
-0.0171531
-0.0172211
-0.0172106
-0.0171534
-0.0172211
-0.0172204
-0.0171641
-0.0171539
-0.0172104
-0.0171539
-0.0172104
-0.0172207
-0.0171532
-0.0171536
-0.0172216
-0.0172213
-0.0172209
-0.0174015
-0.0173341
-0.017334
-0.0174014
-0.0173341
-0.0174014
-0.0174019
-0.0173339
-0.0173335
-0.0174016
-0.0173454
-0.0173454
-0.0173454
-0.0174794
-0.0174793
-0.0174793
-0.0174793
-0.0174012
-0.017334
-0.0173438
-0.0173917
-0.0173333
-0.0174014
-0.0173918
-0.0173339
-0.0174015
-0.0174006
-0.0173441
-0.0173344
-0.0173916
-0.017334
-0.0173914
-0.0174011
-0.0173337
-0.017334
-0.0174023
-0.0174015
-0.0174014
-0.017582
-0.0175147
-0.0175143
-0.0175818
-0.0175148
-0.0175816
-0.0175824
-0.0175145
-0.0175139
-0.017582
-0.0175266
-0.0175266
-0.0175266
-0.0176561
-0.017656
-0.0176559
-0.017656
-0.0175808
-0.0175147
-0.0175225
-0.0175749
-0.0175128
-0.017582
-0.0175741
-0.0175146
-0.0175817
-0.0175801
-0.017523
-0.017515
-0.0175746
-0.0175136
-0.0175735
-0.0175816
-0.0175144
-0.0175148
-0.0175834
-0.0175819
-0.0175815
-0.0177639
-0.0176957
-0.0176942
-0.0177639
-0.0176964
-0.0177629
-0.0177643
-0.0176955
-0.0176937
-0.017764
-0.0177019
-0.0177019
-0.0177019
-0.0177994
-0.0177988
-0.0177989
-0.0177992
-0.0177576
-0.0176957
-0.0176922
-0.0177616
-0.0176888
-0.0177637
-0.017757
-0.0176963
-0.017763
-0.0177569
-0.017693
-0.017696
-0.017761
-0.0176896
-0.0177558
-0.0177635
-0.0176961
-0.0176964
-0.0177628
-0.0177628
-0.0177628
-0.0179654
-0.0178826
-0.0178719
-0.0179854
-0.0178871
-0.0179806
-0.017966
-0.0178831
-0.0178717
-0.0179856
-0.0177648
-0.0177646
-0.0177642
-0.017316
-0.0173014
-0.0173159
-0.0173163
-0.0179057
-0.0178764
-0.0177652
-0.0178848
-0.0178413
-0.0179648
-0.0178577
-0.0178875
-0.0179808
-0.0179039
-0.0177628
-0.0178764
-0.0178849
-0.0178424
-0.0178554
-0.0179644
-0.0178846
-0.0178845
-0.0178751
-0.0179739
-0.0179734
-0.0185565
-0.0182024
-0.0180818
-0.0193756
-0.0182619
-0.0196163
-0.0185547
-0.0182026
-0.018082
-0.0193761
-0.0136303
-0.0165938
-0.0165965
-0.0156099
-0.0164691
-0.014614
-0.0146164
-0.0175875
-0.0181054
-0.0167644
-0.0161901
-0.0177653
-0.0188747
-0.0153397
-0.0182618
-0.0196159
-0.017578
-0.0167633
-0.0181043
-0.016153
-0.0177668
-0.0153376
-0.018876
-0.0182192
-0.0182197
-0.0165674
-0.019155
-0.019154
-0.0160509
-0.0159835
-0.0160511
-0.0159833
-0.0159831
-0.016051
-0.0160512
-0.0159835
-0.0159832
-0.0159611
-0.0159492
-0.0159604
-0.0159836
-0.0160509
-0.0159838
-0.0160509
-0.0159836
-0.0160509
-0.0159838
-0.0160509
-0.015984
-0.0159941
-0.0160508
-0.0160404
-0.0159839
-0.0159936
-0.0160508
-0.0159841
-0.0159941
-0.0160508
-0.0160404
-0.015984
-0.0159936
-0.0160508
-0.015961
-0.015961
-0.0159612
-0.0159612
-0.016051
-0.0159836
-0.0159832
-0.0160511
-0.0160512
-0.0159835
-0.0159833
-0.0160512
-0.0159834
-0.015983
-0.0160512
-0.0159833
-0.0160515
-0.0159832
-0.0159945
-0.016051
-0.0160395
-0.0159834
-0.0159944
-0.0160511
-0.015983
-0.0160512
-0.0159833
-0.0160515
-0.0159832
-0.0159945
-0.0160395
-0.016051
-0.0159944
-0.0159834
-0.0160512
-0.0159615
-0.0159612
-0.0159612
-0.0159509
-0.0159513
-0.015961
-0.0159615
-0.0159612
-0.0159833
-0.0159945
-0.0160511
-0.0160397
-0.0159835
-0.0159944
-0.0160512
-0.0159831
-0.0160513
-0.0159834
-0.0160516
-0.0159833
-0.0159945
-0.0160397
-0.0160511
-0.0159944
-0.0159835
-0.0160513
-0.0159831
-0.0160513
-0.0159834
-0.0160516
-0.0160511
-0.0159833
-0.0159832
-0.0160512
-0.0160509
-0.0159832
-0.0159835
-0.0160509
-0.0159836
-0.0159841
-0.0159941
-0.0160404
-0.0160507
-0.0159935
-0.015984
-0.0160508
-0.0159841
-0.0159941
-0.0160404
-0.0160508
-0.0159935
-0.015984
-0.0160508
-0.0159837
-0.0160509
-0.0159838
-0.0160509
-0.0159837
-0.0160509
-0.0159838
-0.0160509
-0.0159612
-0.015961
-0.0159832
-0.0160512
-0.0160511
-0.0159833
-0.0159836
-0.0160512
-0.0159834
-0.016051
-0.0159836
-0.0160735
-0.0161411
-0.0160734
-0.0161412
-0.0160735
-0.0160734
-0.0161413
-0.0161411
-0.0161413
-0.0162312
-0.0161637
-0.0162313
-0.0161635
-0.0161634
-0.0162312
-0.0162313
-0.0161636
-0.0161635
-0.0161411
-0.0160736
-0.0160737
-0.016141
-0.0161406
-0.0160738
-0.0160849
-0.0161299
-0.0160743
-0.0161408
-0.0161298
-0.0161406
-0.0160739
-0.016085
-0.0161298
-0.0160743
-0.0161407
-0.0161298
-0.0161637
-0.0162312
-0.0161637
-0.0162312
-0.0161637
-0.0162312
-0.0161637
-0.0162312
-0.0161642
-0.0161749
-0.0162309
-0.01622
-0.016164
-0.0161748
-0.0162307
-0.0161642
-0.0161749
-0.0162309
-0.01622
-0.016164
-0.0161748
-0.0162307
-0.0160736
-0.0160734
-0.0161413
-0.016141
-0.0161415
-0.0160735
-0.0161413
-0.0162312
-0.0161637
-0.0161634
-0.0162312
-0.0162313
-0.0161637
-0.0161635
-0.0162313
-0.0161635
-0.0161412
-0.0160736
-0.0160847
-0.0161299
-0.0160734
-0.0161411
-0.0161299
-0.0161415
-0.0160733
-0.0160731
-0.0161412
-0.0161412
-0.0160847
-0.0160735
-0.0161298
-0.0160734
-0.0161298
-0.016141
-0.0161632
-0.0162313
-0.0161635
-0.0162316
-0.0161634
-0.0161748
-0.0162311
-0.0162199
-0.0161637
-0.0161748
-0.0162313
-0.0161632
-0.0162313
-0.0161634
-0.0162316
-0.0161634
-0.0161748
-0.0162199
-0.0162311
-0.0161748
-0.0161636
-0.0162313
-0.0161416
-0.0160735
-0.0160732
-0.0161413
-0.0161413
-0.0160848
-0.0160736
-0.01613
-0.0160735
-0.01613
-0.0161412
-0.0161416
-0.0160735
-0.0160732
-0.0161413
-0.0161635
-0.0161748
-0.0162311
-0.0162199
-0.0161637
-0.0161747
-0.0162313
-0.0161632
-0.0162313
-0.0161635
-0.0162316
-0.0161635
-0.0161747
-0.0162199
-0.0162311
-0.0161747
-0.0161637
-0.0162313
-0.0161632
-0.0162313
-0.0161635
-0.0162316
-0.0160733
-0.0160735
-0.0161412
-0.0161413
-0.016141
-0.0160735
-0.016141
-0.0162312
-0.0161634
-0.0161633
-0.0162313
-0.0162311
-0.0161634
-0.0161636
-0.0162311
-0.0161636
-0.0161405
-0.016085
-0.0160739
-0.0161298
-0.0160743
-0.0161297
-0.0161407
-0.016141
-0.0160735
-0.0160737
-0.016141
-0.016141
-0.0160735
-0.0160737
-0.016141
-0.0161641
-0.0161748
-0.0162199
-0.0162308
-0.0161747
-0.0161639
-0.0162306
-0.0161641
-0.0161749
-0.0162199
-0.0162308
-0.0161748
-0.016164
-0.0162306
-0.0161636
-0.0162311
-0.0161636
-0.0162311
-0.0161636
-0.0162311
-0.0161637
-0.0162311
-0.0160735
-0.0161413
-0.0160735
-0.016141
-0.0161634
-0.0162313
-0.0162312
-0.0161634
-0.0161637
-0.0162313
-0.0161635
-0.0162312
-0.0161636
-0.0162537
-0.0163211
-0.0162535
-0.0163213
-0.0162537
-0.0162535
-0.0163213
-0.0163212
-0.0163213
-0.0164109
-0.0163436
-0.0164111
-0.0163435
-0.0163433
-0.016411
-0.0164111
-0.0163436
-0.0163434
-0.0163211
-0.0162537
-0.0162538
-0.0163211
-0.0163206
-0.0162541
-0.0162648
-0.01631
-0.0162542
-0.0163208
-0.0163099
-0.0163206
-0.016254
-0.0162649
-0.0163099
-0.0162542
-0.0163208
-0.0163099
-0.0163437
-0.0164109
-0.0163437
-0.0164109
-0.0163437
-0.0164109
-0.0163437
-0.0164109
-0.0163441
-0.0163548
-0.0164106
-0.0163998
-0.016344
-0.0163547
-0.0164104
-0.0163441
-0.0163548
-0.0164107
-0.0163998
-0.016344
-0.0163547
-0.0164104
-0.0162537
-0.0162535
-0.0163213
-0.0163212
-0.0163213
-0.0162535
-0.0163212
-0.016411
-0.0163436
-0.0163433
-0.016411
-0.0164111
-0.0163436
-0.0163434
-0.0164111
-0.0163435
-0.0163212
-0.0162537
-0.0162647
-0.0163099
-0.0162534
-0.0163211
-0.0163099
-0.0163215
-0.0162535
-0.0162532
-0.0163212
-0.0163212
-0.0162648
-0.0162536
-0.0163099
-0.0162534
-0.0163099
-0.0163211
-0.0163431
-0.0164111
-0.0163434
-0.0164114
-0.0163434
-0.0163547
-0.0164109
-0.0163997
-0.0163436
-0.0163547
-0.016411
-0.0163431
-0.0164111
-0.0163434
-0.0164114
-0.0163434
-0.0163547
-0.0163997
-0.0164109
-0.0163546
-0.0163436
-0.0164111
-0.0163215
-0.0162535
-0.0162532
-0.0163213
-0.0163212
-0.0162648
-0.0162536
-0.0163099
-0.0162535
-0.0163099
-0.0163211
-0.0163215
-0.0162535
-0.0162532
-0.0163213
-0.0163434
-0.0163547
-0.0164109
-0.0163998
-0.0163436
-0.0163546
-0.0164111
-0.0163431
-0.0164111
-0.0163434
-0.0164114
-0.0163434
-0.0163547
-0.0163998
-0.0164109
-0.0163547
-0.0163436
-0.0164111
-0.0163431
-0.0164111
-0.0163434
-0.0164114
-0.0162534
-0.0162536
-0.0163213
-0.0163213
-0.016321
-0.0162536
-0.0163211
-0.0164111
-0.0163434
-0.0163433
-0.0164111
-0.0164109
-0.0163434
-0.0163436
-0.0164109
-0.0163436
-0.0163206
-0.0162648
-0.016254
-0.0163099
-0.0162542
-0.0163098
-0.0163208
-0.0163211
-0.0162537
-0.0162537
-0.0163211
-0.0163211
-0.0162537
-0.0162537
-0.0163211
-0.0163441
-0.0163548
-0.0163997
-0.0164106
-0.0163547
-0.0163439
-0.0164104
-0.0163441
-0.0163547
-0.0163998
-0.0164106
-0.0163547
-0.0163439
-0.0164104
-0.0163436
-0.0164109
-0.0163436
-0.0164109
-0.0163436
-0.0164109
-0.0163436
-0.0164109
-0.0162535
-0.0163212
-0.0162537
-0.0163211
-0.0163433
-0.0164111
-0.016411
-0.0163434
-0.0163436
-0.016411
-0.0163434
-0.0164109
-0.0163436
-0.0164334
-0.0165007
-0.0164333
-0.0165008
-0.0164334
-0.0164332
-0.0165009
-0.0165007
-0.0165009
-0.0165904
-0.0165232
-0.0165906
-0.016523
-0.0165228
-0.0165905
-0.0165906
-0.0165231
-0.016523
-0.0165007
-0.0164335
-0.0164335
-0.0165007
-0.0165001
-0.0164337
-0.0164444
-0.0164895
-0.0164339
-0.0165003
-0.0164895
-0.0165001
-0.0164337
-0.0164444
-0.0164895
-0.0164339
-0.0165003
-0.0164895
-0.0165232
-0.0165904
-0.0165232
-0.0165904
-0.0165232
-0.0165904
-0.0165232
-0.0165904
-0.0165236
-0.0165342
-0.0165901
-0.0165793
-0.0165235
-0.0165342
-0.0165899
-0.0165236
-0.0165342
-0.0165901
-0.0165793
-0.0165235
-0.0165342
-0.0165899
-0.0164334
-0.0164332
-0.0165009
-0.0165006
-0.016501
-0.0164332
-0.0165009
-0.0165905
-0.0165232
-0.0165228
-0.0165905
-0.0165906
-0.0165232
-0.016523
-0.0165906
-0.016523
-0.0165008
-0.0164334
-0.0164444
-0.0164895
-0.0164332
-0.0165007
-0.0164895
-0.0165011
-0.0164332
-0.0164329
-0.0165009
-0.0165008
-0.0164444
-0.0164334
-0.0164895
-0.0164332
-0.0164895
-0.0165007
-0.0165227
-0.0165906
-0.016523
-0.0165909
-0.0165229
-0.0165342
-0.0165904
-0.0165793
-0.0165232
-0.0165342
-0.0165906
-0.0165227
-0.0165907
-0.016523
-0.0165909
-0.0165229
-0.0165342
-0.0165793
-0.0165905
-0.0165342
-0.0165232
-0.0165906
-0.0165011
-0.0164332
-0.0164329
-0.0165009
-0.0165008
-0.0164444
-0.0164334
-0.0164896
-0.0164332
-0.0164896
-0.0165007
-0.0165011
-0.0164332
-0.0164329
-0.0165008
-0.0165229
-0.0165342
-0.0165904
-0.0165793
-0.0165231
-0.0165341
-0.0165906
-0.0165227
-0.0165906
-0.016523
-0.0165909
-0.0165229
-0.016534
-0.0165794
-0.0165904
-0.0165341
-0.0165231
-0.0165906
-0.0165227
-0.0165906
-0.016523
-0.0165909
-0.0164332
-0.0164333
-0.0165009
-0.0165009
-0.0165006
-0.0164334
-0.0165006
-0.0165906
-0.016523
-0.0165228
-0.0165907
-0.0165904
-0.016523
-0.0165231
-0.0165904
-0.0165232
-0.0165001
-0.0164445
-0.0164337
-0.0164894
-0.0164339
-0.0164894
-0.0165003
-0.0165006
-0.0164334
-0.0164334
-0.0165006
-0.0165006
-0.0164334
-0.0164334
-0.0165006
-0.0165236
-0.0165342
-0.0165793
-0.0165901
-0.0165342
-0.0165234
-0.0165899
-0.0165236
-0.0165343
-0.0165793
-0.0165901
-0.0165342
-0.0165235
-0.0165899
-0.0165231
-0.0165904
-0.0165232
-0.0165904
-0.0165231
-0.0165904
-0.0165231
-0.0165904
-0.0164332
-0.0165008
-0.0164334
-0.0165006
-0.0165228
-0.0165906
-0.0165905
-0.0165228
-0.0165232
-0.0165905
-0.016523
-0.0165904
-0.0165231
-0.0166129
-0.0166803
-0.0166128
-0.0166805
-0.0166129
-0.0166128
-0.0166806
-0.0166803
-0.0166805
-0.0167703
-0.0167029
-0.0167704
-0.0167027
-0.0167024
-0.0167703
-0.0167705
-0.0167028
-0.0167027
-0.0166803
-0.016613
-0.016613
-0.0166803
-0.0166798
-0.0166133
-0.0166239
-0.0166692
-0.0166134
-0.01668
-0.0166693
-0.0166798
-0.0166133
-0.0166239
-0.0166692
-0.0166134
-0.01668
-0.0166692
-0.0167029
-0.0167702
-0.0167029
-0.0167702
-0.0167029
-0.0167702
-0.0167029
-0.0167702
-0.0167033
-0.0167138
-0.01677
-0.0167593
-0.0167032
-0.0167138
-0.0167697
-0.0167033
-0.0167138
-0.01677
-0.0167592
-0.0167032
-0.0167138
-0.0167697
-0.0166129
-0.0166128
-0.0166805
-0.0166803
-0.0166805
-0.0166128
-0.0166804
-0.0167703
-0.0167028
-0.0167024
-0.0167703
-0.0167704
-0.0167028
-0.0167027
-0.0167704
-0.0167027
-0.0166805
-0.0166129
-0.0166239
-0.0166692
-0.0166128
-0.0166803
-0.0166692
-0.0166808
-0.0166128
-0.0166125
-0.0166805
-0.0166805
-0.0166239
-0.016613
-0.0166692
-0.0166128
-0.0166692
-0.0166804
-0.0167024
-0.0167705
-0.0167027
-0.0167707
-0.0167026
-0.0167139
-0.0167703
-0.0167593
-0.0167029
-0.0167139
-0.0167705
-0.0167024
-0.0167705
-0.0167027
-0.0167707
-0.0167026
-0.0167139
-0.0167593
-0.0167703
-0.0167138
-0.0167029
-0.0167705
-0.0166807
-0.0166128
-0.0166125
-0.0166805
-0.0166805
-0.0166239
-0.0166129
-0.0166692
-0.0166127
-0.0166692
-0.0166803
-0.0166807
-0.0166127
-0.0166125
-0.0166805
-0.0167026
-0.0167138
-0.0167703
-0.0167593
-0.0167028
-0.0167138
-0.0167705
-0.0167024
-0.0167704
-0.0167027
-0.0167707
-0.0167026
-0.0167138
-0.0167593
-0.0167703
-0.0167138
-0.0167028
-0.0167705
-0.0167024
-0.0167704
-0.0167026
-0.0167707
-0.0166128
-0.0166129
-0.0166806
-0.0166806
-0.0166803
-0.016613
-0.0166803
-0.0167704
-0.0167027
-0.0167025
-0.0167705
-0.0167703
-0.0167027
-0.0167029
-0.0167703
-0.0167029
-0.0166798
-0.0166239
-0.0166133
-0.0166692
-0.0166134
-0.0166692
-0.01668
-0.0166803
-0.016613
-0.016613
-0.0166803
-0.0166803
-0.016613
-0.016613
-0.0166803
-0.0167034
-0.0167139
-0.0167593
-0.01677
-0.0167139
-0.0167032
-0.0167698
-0.0167034
-0.0167139
-0.0167593
-0.01677
-0.0167139
-0.0167032
-0.0167698
-0.0167029
-0.0167703
-0.0167029
-0.0167703
-0.0167029
-0.0167703
-0.0167029
-0.0167703
-0.0166127
-0.0166804
-0.0166129
-0.0166803
-0.0167024
-0.0167704
-0.0167704
-0.0167026
-0.0167028
-0.0167704
-0.0167027
-0.0167703
-0.0167029
-0.0167928
-0.0168603
-0.0167927
-0.0168605
-0.0167928
-0.0167927
-0.0168607
-0.0168603
-0.0168605
-0.0169505
-0.0168829
-0.0169506
-0.0168828
-0.0168823
-0.0169505
-0.0169507
-0.0168829
-0.0168828
-0.0168603
-0.0167929
-0.0167929
-0.0168603
-0.0168598
-0.0167931
-0.0168037
-0.0168493
-0.0167933
-0.01686
-0.0168494
-0.0168598
-0.0167932
-0.0168037
-0.0168493
-0.0167933
-0.01686
-0.0168493
-0.0168829
-0.0169504
-0.016883
-0.0169504
-0.0168829
-0.0169504
-0.0168829
-0.0169504
-0.0168834
-0.0168939
-0.0169502
-0.0169396
-0.0168833
-0.0168938
-0.0169499
-0.0168834
-0.0168939
-0.0169502
-0.0169396
-0.0168832
-0.0168938
-0.0169499
-0.0167928
-0.0167926
-0.0168606
-0.0168602
-0.0168607
-0.0167927
-0.0168605
-0.0169504
-0.0168829
-0.0168823
-0.0169505
-0.0169506
-0.0168829
-0.0168827
-0.0169506
-0.0168827
-0.0168605
-0.0167928
-0.0168037
-0.0168494
-0.0167926
-0.0168603
-0.0168494
-0.0168608
-0.0167927
-0.0167924
-0.0168605
-0.0168605
-0.0168038
-0.0167928
-0.0168493
-0.0167926
-0.0168494
-0.0168604
-0.0168825
-0.0169507
-0.0168828
-0.0169509
-0.0168827
-0.0168939
-0.0169505
-0.0169396
-0.016883
-0.0168938
-0.0169506
-0.0168825
-0.0169507
-0.0168828
-0.0169509
-0.0168827
-0.0168939
-0.0169396
-0.0169505
-0.0168938
-0.016883
-0.0169507
-0.0168608
-0.0167926
-0.0167924
-0.0168605
-0.0168605
-0.0168037
-0.0167928
-0.0168495
-0.0167926
-0.0168494
-0.0168604
-0.0168608
-0.0167927
-0.0167924
-0.0168605
-0.0168827
-0.0168938
-0.0169505
-0.0169396
-0.0168829
-0.0168938
-0.0169506
-0.0168825
-0.0169506
-0.0168827
-0.0169509
-0.0168827
-0.0168938
-0.0169397
-0.0169505
-0.0168938
-0.0168829
-0.0169506
-0.0168825
-0.0169506
-0.0168828
-0.0169509
-0.0167927
-0.0167928
-0.0168607
-0.0168606
-0.0168603
-0.0167929
-0.0168604
-0.0169506
-0.0168828
-0.0168824
-0.0169507
-0.0169505
-0.0168827
-0.016883
-0.0169505
-0.016883
-0.0168598
-0.0168039
-0.0167932
-0.0168493
-0.0167934
-0.0168493
-0.01686
-0.0168603
-0.0167929
-0.0167929
-0.0168603
-0.0168603
-0.0167929
-0.0167929
-0.0168603
-0.0168834
-0.0168939
-0.0169396
-0.0169502
-0.0168939
-0.0168833
-0.01695
-0.0168834
-0.0168941
-0.0169396
-0.0169502
-0.0168939
-0.0168833
-0.01695
-0.016883
-0.0169504
-0.016883
-0.0169504
-0.016883
-0.0169505
-0.016883
-0.0169505
-0.0167927
-0.0168605
-0.0167929
-0.0168603
-0.0168824
-0.0169506
-0.0169505
-0.0168826
-0.0168831
-0.0169506
-0.0168828
-0.0169505
-0.016883
-0.0169731
-0.0170406
-0.0169729
-0.0170408
-0.0169731
-0.0169729
-0.017041
-0.0170406
-0.0170408
-0.0171308
-0.0170633
-0.0171309
-0.0170631
-0.0170623
-0.0171308
-0.017131
-0.0170632
-0.0170631
-0.0170406
-0.0169731
-0.0169731
-0.0170406
-0.0170401
-0.0169734
-0.0169838
-0.0170298
-0.0169735
-0.0170403
-0.0170298
-0.0170401
-0.0169734
-0.0169838
-0.0170298
-0.0169735
-0.0170403
-0.0170298
-0.0170633
-0.0171307
-0.0170633
-0.0171308
-0.0170633
-0.0171308
-0.0170633
-0.0171308
-0.0170636
-0.017074
-0.0171305
-0.0171202
-0.0170636
-0.0170739
-0.0171302
-0.0170636
-0.017074
-0.0171305
-0.0171202
-0.0170636
-0.0170739
-0.0171302
-0.016973
-0.0169728
-0.017041
-0.0170406
-0.0170408
-0.0169729
-0.0170407
-0.0171308
-0.0170633
-0.0170623
-0.0171308
-0.017131
-0.0170632
-0.0170631
-0.0171309
-0.0170631
-0.0170408
-0.0169731
-0.0169838
-0.0170298
-0.0169728
-0.0170406
-0.0170299
-0.0170411
-0.0169729
-0.0169727
-0.0170408
-0.0170408
-0.0169839
-0.0169731
-0.0170298
-0.0169729
-0.0170299
-0.0170407
-0.0170628
-0.017131
-0.0170631
-0.0171313
-0.017063
-0.017074
-0.0171308
-0.0171202
-0.0170633
-0.017074
-0.0171309
-0.0170628
-0.017131
-0.0170631
-0.0171313
-0.017063
-0.0170741
-0.0171202
-0.0171309
-0.017074
-0.0170633
-0.017131
-0.0170411
-0.0169729
-0.0169726
-0.0170408
-0.0170408
-0.0169839
-0.0169731
-0.0170298
-0.0169728
-0.0170299
-0.0170407
-0.0170411
-0.0169729
-0.0169726
-0.0170408
-0.017063
-0.017074
-0.0171308
-0.0171203
-0.0170633
-0.0170739
-0.0171309
-0.0170628
-0.017131
-0.0170631
-0.0171313
-0.017063
-0.0170741
-0.0171203
-0.0171308
-0.0170739
-0.0170633
-0.017131
-0.0170628
-0.017131
-0.0170631
-0.0171313
-0.0169729
-0.0169731
-0.0170411
-0.0170409
-0.0170406
-0.0169731
-0.0170406
-0.017131
-0.0170632
-0.0170624
-0.0171311
-0.0171308
-0.0170631
-0.0170633
-0.0171308
-0.0170633
-0.0170401
-0.016984
-0.0169735
-0.0170298
-0.0169736
-0.0170299
-0.0170404
-0.0170406
-0.0169731
-0.0169731
-0.0170406
-0.0170406
-0.0169732
-0.0169731
-0.0170406
-0.0170637
-0.0170742
-0.0171202
-0.0171305
-0.017074
-0.0170637
-0.0171303
-0.0170637
-0.0170742
-0.0171201
-0.0171306
-0.0170741
-0.0170637
-0.0171303
-0.0170633
-0.0171308
-0.0170633
-0.0171308
-0.0170633
-0.0171308
-0.0170633
-0.0171308
-0.0169729
-0.0170408
-0.0169731
-0.0170406
-0.0170624
-0.017131
-0.0171309
-0.0170631
-0.0170633
-0.0171309
-0.0170631
-0.0171308
-0.0170633
-0.0171535
-0.017221
-0.0171533
-0.0172211
-0.0171534
-0.0171533
-0.0172216
-0.017221
-0.0172212
-0.0173112
-0.0172438
-0.0173113
-0.0172436
-0.0172417
-0.0173113
-0.0173114
-0.0172437
-0.0172436
-0.017221
-0.0171535
-0.0171535
-0.0172209
-0.0172204
-0.0171538
-0.0171639
-0.0172105
-0.0171538
-0.0172207
-0.0172106
-0.0172204
-0.0171538
-0.017164
-0.0172105
-0.0171538
-0.0172207
-0.0172106
-0.0172437
-0.0173112
-0.0172438
-0.0173112
-0.0172437
-0.0173112
-0.0172438
-0.0173112
-0.017244
-0.0172541
-0.017311
-0.0173011
-0.0172441
-0.0172541
-0.0173105
-0.017244
-0.0172542
-0.017311
-0.0173011
-0.0172441
-0.0172541
-0.0173105
-0.0171535
-0.0171533
-0.0172216
-0.0172209
-0.0172213
-0.0171533
-0.0172212
-0.0173112
-0.0172438
-0.0172417
-0.0173112
-0.0173114
-0.0172437
-0.0172435
-0.0173113
-0.0172436
-0.0172211
-0.0171535
-0.0171639
-0.0172105
-0.0171531
-0.017221
-0.0172106
-0.0172215
-0.0171533
-0.017153
-0.0172212
-0.0172211
-0.017164
-0.0171535
-0.0172105
-0.0171531
-0.0172106
-0.017221
-0.0172432
-0.0173114
-0.0172436
-0.0173117
-0.0172432
-0.0172541
-0.0173113
-0.0173012
-0.0172438
-0.0172539
-0.0173112
-0.0172432
-0.0173114
-0.0172436
-0.0173117
-0.0172432
-0.0172541
-0.0173011
-0.0173113
-0.017254
-0.0172438
-0.0173112
-0.0172215
-0.0171533
-0.017153
-0.0172212
-0.0172211
-0.0171639
-0.0171535
-0.0172106
-0.0171531
-0.0172106
-0.017221
-0.0172215
-0.0171533
-0.017153
-0.0172212
-0.0172432
-0.0172541
-0.0173112
-0.0173011
-0.0172438
-0.0172539
-0.0173112
-0.0172432
-0.0173113
-0.0172436
-0.0173116
-0.0172432
-0.017254
-0.0173011
-0.0173112
-0.017254
-0.0172437
-0.0173112
-0.0172432
-0.0173113
-0.0172435
-0.0173116
-0.0171533
-0.0171535
-0.0172216
-0.0172212
-0.017221
-0.0171535
-0.017221
-0.0173113
-0.0172436
-0.0172419
-0.0173114
-0.0173112
-0.0172435
-0.0172437
-0.0173111
-0.0172438
-0.0172204
-0.0171641
-0.0171539
-0.0172103
-0.0171539
-0.0172104
-0.0172207
-0.017221
-0.0171535
-0.0171535
-0.017221
-0.017221
-0.0171535
-0.0171535
-0.0172209
-0.017244
-0.0172543
-0.0173009
-0.0173109
-0.0172541
-0.0172441
-0.0173105
-0.017244
-0.0172544
-0.0173009
-0.0173109
-0.0172542
-0.0172441
-0.0173105
-0.0172437
-0.0173111
-0.0172438
-0.0173112
-0.0172437
-0.0173111
-0.0172437
-0.0173112
-0.0171534
-0.0172211
-0.0171535
-0.0172209
-0.0172419
-0.0173113
-0.0173112
-0.0172434
-0.0172438
-0.0173112
-0.0172436
-0.0173111
-0.0172437
-0.0173341
-0.0174014
-0.0173339
-0.0174015
-0.017334
-0.0173339
-0.0174024
-0.0174015
-0.0174016
-0.0174915
-0.0174244
-0.0174916
-0.0174243
-0.0174197
-0.0174916
-0.0174917
-0.0174244
-0.0174242
-0.0174015
-0.0173341
-0.017334
-0.0174014
-0.0174006
-0.0173344
-0.0173439
-0.0173918
-0.0173341
-0.0174012
-0.0173917
-0.0174006
-0.0173344
-0.017344
-0.0173917
-0.0173341
-0.0174012
-0.0173917
-0.0174242
-0.0174916
-0.0174244
-0.0174917
-0.0174242
-0.0174916
-0.0174244
-0.0174917
-0.017424
-0.0174335
-0.0174914
-0.0174826
-0.0174248
-0.0174337
-0.0174905
-0.017424
-0.0174336
-0.0174914
-0.0174825
-0.0174247
-0.0174337
-0.0174905
-0.017334
-0.0173338
-0.0174024
-0.0174014
-0.0174015
-0.0173339
-0.0174015
-0.0174915
-0.0174244
-0.0174197
-0.0174916
-0.0174917
-0.0174243
-0.0174241
-0.0174916
-0.0174242
-0.0174013
-0.0173341
-0.0173438
-0.0173919
-0.0173333
-0.0174015
-0.0173919
-0.0174019
-0.0173338
-0.0173335
-0.0174016
-0.0174013
-0.0173438
-0.017334
-0.0173917
-0.0173333
-0.0173918
-0.0174015
-0.0174237
-0.0174918
-0.0174242
-0.0174921
-0.0174232
-0.0174334
-0.0174917
-0.0174828
-0.0174244
-0.0174334
-0.0174912
-0.0174237
-0.0174917
-0.0174241
-0.0174921
-0.0174232
-0.0174334
-0.0174827
-0.0174917
-0.0174335
-0.0174244
-0.0174912
-0.0174019
-0.0173338
-0.0173335
-0.0174015
-0.0174012
-0.0173438
-0.017334
-0.0173917
-0.0173333
-0.0173917
-0.0174014
-0.0174019
-0.0173338
-0.0173334
-0.0174015
-0.0174232
-0.0174335
-0.0174917
-0.0174828
-0.0174244
-0.0174334
-0.0174912
-0.0174237
-0.0174918
-0.0174241
-0.0174922
-0.0174232
-0.0174335
-0.0174827
-0.0174917
-0.0174335
-0.0174243
-0.0174912
-0.0174237
-0.0174917
-0.0174241
-0.0174922
-0.0173338
-0.0173339
-0.0174023
-0.0174016
-0.0174013
-0.017334
-0.0174013
-0.0174916
-0.0174242
-0.0174199
-0.0174917
-0.0174915
-0.0174241
-0.0174243
-0.0174914
-0.0174243
-0.0174006
-0.0173441
-0.0173344
-0.0173915
-0.0173341
-0.0173914
-0.0174011
-0.0174014
-0.017334
-0.0173339
-0.0174013
-0.0174014
-0.017334
-0.0173339
-0.0174013
-0.017424
-0.0174337
-0.0174823
-0.0174914
-0.0174338
-0.0174247
-0.0174905
-0.017424
-0.0174337
-0.0174823
-0.0174914
-0.0174339
-0.0174247
-0.0174905
-0.0174241
-0.0174915
-0.0174243
-0.0174917
-0.0174241
-0.0174916
-0.0174243
-0.0174917
-0.0173338
-0.0174014
-0.017334
-0.0174013
-0.0174199
-0.0174916
-0.0174916
-0.0174241
-0.0174243
-0.0174916
-0.0174242
-0.0174915
-0.0174243
-0.0175148
-0.0175816
-0.0175146
-0.0175817
-0.0175147
-0.0175145
-0.0175834
-0.0175817
-0.0175818
-0.0176718
-0.0176053
-0.0176718
-0.0176052
-0.0175935
-0.0176718
-0.0176719
-0.0176052
-0.0176051
-0.017582
-0.0175147
-0.0175144