/*--------------------------------*- C++ -*----------------------------------*\
| =========                 |                                                 |
| \\      /  F ield         | OpenFOAM: The Open Source CFD Toolbox           |
|  \\    /   O peration     | Version:  2206                                  |
|   \\  /    A nd           | Website:  www.openfoam.com                      |
|    \\/     M anipulation  |                                                 |
\*---------------------------------------------------------------------------*/
FoamFile
{
    version     2.0;
    format      ascii;
    arch        "LSB;label=32;scalar=64";
    class       volVectorField;
    location    "149";
    object      U;
}
// * * * * * * * * * * * * * * * * * * * * * * * * * * * * * * * * * * * * * //

dimensions      [0 1 -1 0 0 0 0];

internalField   nonuniform List<vector> 
66940
(
(-1.04087e-06 -9.86719e-07 0.145057)
(3.14696e-06 1.66865e-08 0.134915)
(-8.46441e-07 7.49138e-07 0.135319)
(-0.000117681 -0.000115911 0.129203)
(-7.8053e-07 -1.92234e-06 0.145062)
(4.0585e-06 -2.00368e-06 0.134921)
(-6.36435e-07 6.51995e-07 0.135323)
(-0.000116565 -0.000114835 0.129202)
(2.43644e-07 -2.03244e-06 0.145061)
(5.02883e-06 -4.85845e-06 0.134922)
(-3.19008e-06 2.38606e-06 0.135326)
(-0.00011512 -0.000112758 0.129194)
(3.05734e-06 1.74529e-06 0.145059)
(4.97449e-06 -7.75388e-06 0.134922)
(-6.80718e-06 9.18078e-07 0.135329)
(-0.000115012 -0.000114424 0.129177)
(6.39193e-06 6.45961e-06 0.145065)
(2.89104e-06 -1.07922e-05 0.134926)
(-9.12797e-06 -1.36069e-06 0.135339)
(-0.000119035 -0.000113857 0.12917)
(1.03602e-05 1.13766e-05 0.145081)
(-8.17369e-07 -1.96871e-05 0.134944)
(-1.59732e-05 -5.82324e-06 0.13536)
(-0.000120059 -0.000114588 0.129169)
(1.51104e-05 1.6937e-05 0.145108)
(-8.78917e-06 -3.954e-05 0.134972)
(-3.51358e-05 -1.58539e-05 0.135393)
(-0.000121449 -0.00011552 0.129166)
(5.99694e-06 9.63688e-06 0.145159)
(-2.99257e-05 -8.46105e-05 0.134993)
(-7.8209e-05 -4.02324e-05 0.135426)
(-0.000122961 -0.000119144 0.129141)
(-8.31568e-05 -7.3629e-05 0.14527)
(-9.14117e-05 -0.000176826 0.13495)
(-0.000168293 -0.000104492 0.135413)
(-0.000128227 -0.000125262 0.129063)
(-0.000594176 -0.000571093 0.145479)
(-0.000304558 -0.000315179 0.134657)
(-0.000305987 -0.000313924 0.135188)
(-0.000147183 -0.00014303 0.128802)
(-0.00332248 -0.00330099 0.145231)
(-0.0010476 -0.000218664 0.133339)
(-0.000227692 -0.00103128 0.134033)
(-7.14782e-05 -7.00707e-05 0.127804)
(-0.0178561 -0.0179352 0.132661)
(0.000725988 0.000793094 0.122112)
(0.000532312 0.000821746 0.122946)
(0.00156848 0.00156101 0.119582)
(-0.000120606 -0.000119433 0.129061)
(-1.14829e-06 1.08226e-06 0.135378)
(1.32017e-06 2.70206e-06 0.135331)
(0.000120528 -0.000117897 0.129014)
(-1.95013e-06 1.15382e-06 0.13498)
(-1.5855e-06 -8.56833e-07 0.134912)
(2.02118e-06 2.84952e-06 0.134896)
(-3.80784e-07 -1.29274e-06 0.134944)
(-0.000119055 0.000119829 0.128994)
(-1.18128e-06 3.79795e-08 0.135305)
(-1.80632e-07 -9.31215e-07 0.135347)
(0.000121234 0.000118992 0.129035)
(0.000116789 0.000116902 0.129224)
(-0.000120552 -0.000121002 0.129063)
(-1.43266e-06 -1.72568e-07 0.135396)
(2.06538e-06 1.5477e-06 0.135347)
(2.67755e-06 8.7953e-07 0.135379)
(-1.75351e-06 2.41112e-06 0.135325)
(-0.000114569 0.000116944 0.129174)
(0.000120132 -0.000118879 0.129012)
(-2.84851e-06 -1.80025e-06 0.135)
(-1.6811e-06 6.93877e-07 0.134929)
(-1.26765e-06 1.04683e-06 0.134978)
(-3.21248e-07 -2.4019e-06 0.134905)
(3.21006e-06 -1.85528e-06 0.134987)
(2.36721e-06 2.23101e-06 0.134894)
(9.44047e-07 -1.64181e-06 0.134945)
(0.000116099 -0.000115102 0.129155)
(-0.000118556 0.000119183 0.128988)
(3.36813e-06 -1.64489e-06 0.135357)
(3.45656e-06 -1.44472e-06 0.135297)
(-2.12765e-06 -1.50145e-06 0.135349)
(0.000120418 0.000120603 0.129038)
(0.000116257 0.000114298 0.129225)
(-0.000121534 -0.000123622 0.129055)
(-1.13173e-06 -1.78627e-06 0.135407)
(1.74212e-06 -2.88293e-08 0.135353)
(3.61889e-06 -1.82152e-06 0.135373)
(-3.46429e-06 -2.15524e-07 0.135318)
(-0.000114551 0.000115268 0.129172)
(0.000120612 -0.000121086 0.129003)
(-3.02314e-06 -3.92597e-06 0.135004)
(-1.96674e-06 1.50802e-06 0.134931)
(-1.78507e-06 -1.0431e-07 0.134963)
(-7.76143e-07 -1.70486e-06 0.134892)
(3.25296e-06 6.3127e-07 0.134988)
(2.4451e-06 1.7953e-06 0.134886)
(-4.90874e-08 -1.33834e-06 0.134932)
(0.000116018 -0.000114887 0.129149)
(-0.000120123 0.000120436 0.128982)
(2.83302e-06 1.24302e-07 0.135371)
(3.13593e-06 7.65614e-07 0.135286)
(-2.9909e-06 1.21217e-06 0.135343)
(0.000123218 0.000121707 0.129029)
(0.000114676 0.000111823 0.129215)
(-0.000122025 -0.000122179 0.129039)
(-3.56923e-06 -4.60503e-06 0.135413)
(3.72461e-06 -3.028e-06 0.135357)
(4.70488e-06 -1.48301e-06 0.135354)
(-4.56139e-06 -6.4397e-07 0.135299)
(-0.000113524 0.000112726 0.12916)
(0.000121051 -0.000121261 0.128987)
(-4.27768e-06 -6.912e-06 0.135002)
(-2.69388e-06 4.25796e-06 0.134931)
(-1.96562e-06 2.92961e-06 0.134936)
(-1.32462e-06 -3.38187e-06 0.13487)
(5.0699e-06 1.72018e-06 0.134994)
(2.88536e-06 3.2154e-06 0.134865)
(1.87043e-06 -4.58565e-06 0.134913)
(0.000113921 -0.00011362 0.129142)
(-0.000121189 0.000120107 0.128976)
(6.69976e-06 1.85504e-06 0.135375)
(3.34512e-06 4.48866e-07 0.13527)
(-3.91568e-06 4.53448e-07 0.135328)
(0.000121661 0.000120628 0.129017)
(0.000114475 0.000113477 0.129198)
(-0.000120954 -0.000120346 0.129027)
(-6.16106e-06 -3.36703e-06 0.135415)
(6.46e-06 -2.48541e-06 0.135357)
(8.68335e-06 -2.10839e-07 0.135325)
(-8.33279e-06 2.78625e-07 0.135272)
(-0.000113355 0.000112931 0.129144)
(0.000119891 -0.000119667 0.128978)
(-4.39363e-06 -8.42209e-06 0.134998)
(-3.05517e-06 6.34681e-06 0.134932)
(-7.62624e-07 8.85189e-06 0.134904)
(-1.06793e-06 -7.70688e-06 0.134845)
(4.20672e-06 4.455e-06 0.134989)
(1.87e-06 8.42227e-06 0.134839)
(-1.01995e-06 -8.06623e-06 0.134885)
(0.00011336 -0.00011408 0.129135)
(-0.00011858 0.000119332 0.128971)
(6.70082e-06 5.184e-07 0.13538)
(7.93523e-06 9.91635e-07 0.135248)
(-9.80094e-06 1.76166e-06 0.135304)
(0.000119551 0.000120171 0.129007)
(0.000115902 0.000115584 0.129184)
(-0.000119085 -0.000118224 0.129022)
(-1.01831e-05 -8.1228e-07 0.13542)
(1.06297e-05 1.12133e-07 0.13536)
(1.66001e-05 -1.00223e-06 0.135293)
(-1.68817e-05 -1.29372e-06 0.13524)
(-0.000114711 0.000114712 0.129133)
(0.000117141 -0.000117445 0.128976)
(-2.22482e-06 -1.14417e-05 0.135003)
(-1.10074e-06 9.72461e-06 0.134942)
(-1.78137e-06 1.8178e-05 0.134871)
(-1.84073e-06 -1.54457e-05 0.134816)
(1.52737e-06 7.48457e-06 0.135003)
(2.86598e-06 1.63513e-05 0.134812)
(6.43786e-07 -1.4307e-05 0.134857)
(0.000116472 -0.000115209 0.129128)
(-0.000116413 0.000117925 0.128969)
(1.03957e-05 -1.78191e-06 0.135387)
(1.68681e-05 3.81484e-06 0.135221)
(-1.75931e-05 4.06478e-06 0.135283)
(0.000116559 0.000120915 0.129015)
(0.000117164 0.000117227 0.129173)
(-0.000117894 -0.000116016 0.129023)
(-1.83258e-05 4.10961e-06 0.135436)
(1.79e-05 5.15491e-06 0.135374)
(3.23864e-05 -6.67646e-06 0.135254)
(-3.22551e-05 -7.23736e-06 0.135207)
(-0.000117195 0.000116773 0.129126)
(0.000116163 -0.000115464 0.128982)
(9.33603e-07 -1.9853e-05 0.135023)
(2.12976e-06 1.87051e-05 0.134969)
(-7.37576e-06 3.5839e-05 0.134829)
(-7.0963e-06 -3.05463e-05 0.134784)
(-3.31537e-06 1.88726e-05 0.13502)
(8.21558e-06 3.37297e-05 0.134785)
(4.47692e-06 -2.88066e-05 0.134823)
(0.00011787 -0.000116329 0.129121)
(-0.00011535 0.000117263 0.128975)
(1.62232e-05 -5.75373e-06 0.135414)
(3.19064e-05 1.18564e-05 0.13519)
(-3.31679e-05 1.38648e-05 0.135259)
(0.000116321 0.000118675 0.129025)
(0.000117891 0.000119116 0.129157)
(-0.000113915 -0.00011191 0.129039)
(-3.74627e-05 1.37027e-05 0.135463)
(3.64646e-05 1.59523e-05 0.135401)
(6.79037e-05 -2.42804e-05 0.135219)
(-6.72746e-05 -2.63132e-05 0.135176)
(-0.000117399 0.000117843 0.129115)
(0.000112706 -0.000112713 0.129002)
(7.62315e-06 -4.0273e-05 0.135054)
(9.79497e-06 3.85129e-05 0.135011)
(-2.15431e-05 7.43319e-05 0.134788)
(-2.09218e-05 -6.69202e-05 0.134747)
(-1.05681e-05 3.6939e-05 0.135064)
(2.35641e-05 7.03884e-05 0.134763)
(2.16539e-05 -6.54453e-05 0.134792)
(0.000118281 -0.000116504 0.12911)
(-0.000112869 0.000114016 0.128993)
(3.71381e-05 -1.65792e-05 0.135452)
(6.62112e-05 3.09067e-05 0.135158)
(-6.59341e-05 3.3148e-05 0.13524)
(0.000113113 0.000116746 0.129053)
(0.000120305 0.000121906 0.129124)
(-0.000108395 -0.000107426 0.129093)
(-7.97931e-05 3.6745e-05 0.13549)
(7.73718e-05 3.9704e-05 0.135427)
(0.000143295 -7.40975e-05 0.135218)
(-0.000140772 -7.84714e-05 0.135183)
(-0.00012068 0.000120223 0.129087)
(0.000106601 -0.000106886 0.12906)
(2.71711e-05 -8.61595e-05 0.13509)
(2.84087e-05 8.1159e-05 0.135052)
(-6.57928e-05 0.000152956 0.134782)
(-6.21886e-05 -0.000145936 0.134734)
(-3.0264e-05 8.08809e-05 0.135098)
(7.03881e-05 0.000147667 0.134789)
(6.37016e-05 -0.000142117 0.13479)
(0.000119524 -0.000119149 0.129082)
(-0.000106131 0.000107315 0.129042)
(7.84192e-05 -4.25529e-05 0.135493)
(0.000142247 8.11606e-05 0.135156)
(-0.000141025 8.76065e-05 0.135248)
(0.000107844 0.000108387 0.129111)
(0.000126203 0.000127448 0.129038)
(-0.00011 -0.000109752 0.129276)
(-0.000169473 9.91475e-05 0.135468)
(0.000165307 0.000104437 0.135409)
(0.000257191 -0.000255351 0.13536)
(-0.000249753 -0.000261376 0.13533)
(-0.000126288 0.000125813 0.129003)
(0.000111899 -0.000110088 0.129256)
(8.31208e-05 -0.000183598 0.135084)
(8.17934e-05 0.000173365 0.135047)
(-0.000235796 0.000275723 0.134916)
(-0.000223895 -0.000266794 0.134858)
(-8.5656e-05 0.00016997 0.135101)
(0.000252803 0.000264316 0.134988)
(0.000235607 -0.000263217 0.134936)
(0.000126291 -0.000126093 0.128993)
(-0.000107046 0.000109284 0.129223)
(0.000169343 -0.000112219 0.135483)
(0.000261233 0.000261999 0.135293)
(-0.000251177 0.000274516 0.135399)
(0.000110607 0.000115977 0.129312)
(0.000144033 0.000146522 0.128771)
(-0.00038912 -0.000384818 0.129984)
(-0.000302611 0.000309578 0.135232)
(0.000294416 0.000317535 0.135177)
(-3.87607e-06 -0.00129447 0.135903)
(2.33791e-05 -0.00129644 0.135868)
(-0.00014255 0.000144037 0.128738)
(0.000401 -0.000391417 0.13001)
(0.000282363 -0.000330555 0.134868)
(0.000271764 0.000320692 0.13483)
(-0.0012566 3.33801e-05 0.135452)
(-0.00122469 -2.69679e-05 0.135394)
(-0.000282959 0.000310443 0.134879)
(0.00130843 5.19296e-06 0.135656)
(0.00125167 -1.01631e-05 0.135488)
(0.000145083 -0.000142512 0.128732)
(-0.000386333 0.000379156 0.129928)
(0.000305158 -0.000331134 0.135267)
(1.2339e-05 0.00129758 0.135829)
(5.52903e-06 0.00133073 0.135936)
(0.000400144 0.000391191 0.130029)
(6.14096e-05 7.58508e-05 0.127773)
(-0.00582692 -0.00581808 0.128347)
(-0.000211636 0.00103679 0.134055)
(0.000187849 0.00103471 0.134013)
(-0.00503934 -0.00981485 0.133336)
(0.00510281 -0.00981012 0.133262)
(-6.53584e-05 7.42677e-05 0.127696)
(0.0059133 -0.0057885 0.128426)
(0.000981613 -0.000253146 0.133715)
(0.000945061 0.000257799 0.133679)
(-0.00980045 -0.00504081 0.133331)
(-0.0097121 0.00499625 0.133251)
(-0.000972784 0.00023461 0.133727)
(0.00998919 -0.00513276 0.133883)
(0.00977383 0.00501828 0.133345)
(6.63939e-05 -5.79421e-05 0.127743)
(-0.00579004 0.00580673 0.128298)
(0.000213944 -0.001073 0.134115)
(-0.00502326 0.00979109 0.133302)
(0.00508491 0.00985221 0.133399)
(0.00582204 0.00584945 0.128393)
(-0.00159033 -0.00157295 0.119544)
(0.000587044 -0.000787606 0.12294)
(-0.000504429 -0.00097164 0.122781)
(0.00161754 -0.00162854 0.118993)
(-0.000790099 0.000599799 0.122975)
(-0.000867168 -0.000570812 0.122923)
(0.0183229 -0.0180824 0.132391)
(-0.0178084 0.0178748 0.132638)
(0.0178296 0.0179241 0.132678)
(0.000791496 -0.00064352 0.122976)
(-0.00161686 0.00160129 0.119521)
(-0.00057143 0.000746925 0.123023)
(7.39272e-06 2.57406e-07 0.0590745)
(-4.09441e-06 -1.4789e-06 0.145047)
(4.74043e-06 -8.78104e-07 0.144979)
(-3.72294e-06 8.93792e-07 0.144983)
(4.00965e-06 1.53557e-06 0.145004)
(2.14747e-05 2.35603e-06 0.113702)
(-3.57384e-07 3.25896e-06 0.134909)
(1.1589e-05 -6.15855e-06 0.0966443)
(-6.25893e-07 6.2597e-07 0.14018)
(0.000120797 0.000114469 0.129025)
(-3.21931e-06 3.35064e-06 0.0817386)
(1.63968e-05 -2.05008e-06 0.0818471)
(1.74187e-06 -2.37168e-05 0.0949729)
(6.76397e-06 1.49954e-05 0.0693979)
(2.83276e-06 2.32797e-05 0.0951859)
(-5.15945e-06 -1.33038e-05 0.0692687)
(-5.30619e-06 3.22746e-06 0.0592831)
(7.81315e-06 -1.13976e-06 0.0591641)
(-1.24249e-05 1.55931e-06 0.0939578)
(9.43214e-06 -2.01755e-06 0.0691999)
(1.26157e-05 -1.73345e-06 0.0945926)
(-1.05178e-05 3.65911e-06 0.0688877)
(2.60969e-06 -4.58127e-07 0.144993)
(-7.815e-07 4.31795e-08 0.144995)
(1.54771e-06 -2.94538e-08 0.145032)
(-3.00075e-06 -3.24614e-06 0.145043)
(3.82944e-06 -1.47487e-06 0.144979)
(-1.75666e-06 1.05274e-06 0.144976)
(3.44964e-06 1.0693e-06 0.145006)
(2.42532e-05 1.51339e-06 0.113712)
(-1.33275e-05 7.31581e-06 0.0971838)
(5.44967e-06 -9.32471e-07 0.140202)
(2.28721e-06 2.79389e-06 0.134896)
(-2.41356e-05 -2.34316e-06 0.114414)
(1.50589e-05 -7.57251e-06 0.0966541)
(2.6208e-06 1.34069e-06 0.140168)
(-9.82927e-07 6.56842e-07 0.0592668)
(-1.84714e-07 -2.23548e-06 0.0590387)
(1.2365e-06 2.90562e-05 0.114896)
(-2.75279e-07 3.40508e-07 0.140876)
(1.68357e-05 -1.61908e-05 0.0975561)
(2.60142e-06 -7.80567e-07 0.135299)
(1.20708e-06 -3.37593e-05 0.115118)
(3.11884e-07 -2.2507e-06 0.140839)
(-1.67198e-05 1.65458e-05 0.0972942)
(3.40473e-06 -5.64962e-06 0.0821638)
(-1.32736e-05 8.62355e-07 0.0823273)
(0.000120583 0.00011762 0.129037)
(-1.82779e-06 3.82877e-06 0.0817439)
(1.42623e-05 -3.70718e-07 0.0820685)
(-9.92193e-07 -2.61064e-05 0.0949808)
(4.53877e-06 1.60803e-05 0.0693899)
(-5.84722e-07 2.57139e-05 0.0951876)
(-5.18758e-06 -1.50545e-05 0.0692671)
(-6.38533e-06 1.54062e-06 0.0592829)
(6.37143e-06 -1.41352e-06 0.0591675)
(-1.44363e-05 -8.15669e-08 0.0939704)
(9.64229e-06 -4.38684e-06 0.0692074)
(1.12076e-05 -3.49581e-06 0.0946033)
(-1.06117e-05 1.28707e-06 0.068898)
(1.9713e-06 -3.40854e-08 0.145)
(-1.7035e-07 -2.81206e-07 0.144996)
(1.96958e-06 -1.24576e-06 0.145031)
(-3.75296e-06 -5.09848e-06 0.145031)
(4.69029e-06 -3.17947e-06 0.14497)
(-2.03285e-06 2.89199e-06 0.144963)
(4.45135e-06 3.24125e-06 0.144994)
(2.61508e-05 1.95755e-06 0.113716)
(-1.26766e-05 5.98741e-06 0.0971921)
(6.69801e-06 -1.9187e-06 0.140219)
(2.72714e-06 1.71398e-06 0.134892)
(-2.29019e-05 -2.26223e-06 0.11442)
(1.62262e-05 -8.59678e-06 0.0966618)
(1.5361e-06 1.04066e-06 0.140161)
(-1.42481e-06 -9.31647e-07 0.0592683)
(-3.57532e-07 -2.55289e-06 0.0590399)
(1.04379e-06 3.16396e-05 0.114901)
(-4.09864e-07 2.0507e-06 0.140883)
(1.80331e-05 -1.77994e-05 0.0975541)
(3.73417e-06 -9.71734e-08 0.135292)
(1.50791e-06 -3.35613e-05 0.115119)
(8.1697e-07 -2.65023e-06 0.140823)
(-1.63753e-05 1.74894e-05 0.0972925)
(1.93142e-06 -2.89194e-06 0.0821693)
(-1.33301e-05 1.34029e-06 0.0823334)
(0.000120957 0.00012025 0.129035)
(4.41735e-07 5.59367e-06 0.0817546)
(1.62701e-05 -1.49994e-06 0.0820772)
(7.21365e-07 -3.01999e-05 0.0949925)
(5.18109e-06 1.23913e-05 0.0694016)
(-1.77662e-07 2.10217e-05 0.0951978)
(-4.23826e-06 -1.85379e-05 0.0692873)
(-6.32091e-06 -1.20949e-08 0.0592912)
(6.17964e-06 -4.82759e-06 0.0591825)
(-1.60298e-05 -2.85945e-07 0.0939804)
(8.44779e-06 -5.85023e-06 0.0692238)
(8.67172e-06 -4.25284e-06 0.0946131)
(-1.22412e-05 1.27936e-06 0.0689206)
(1.71765e-06 -7.64527e-07 0.144999)
(1.20348e-06 -1.03066e-06 0.144994)
(6.01334e-07 -9.7358e-07 0.145039)
(-3.90958e-06 -4.84497e-06 0.145012)
(4.61264e-06 -3.86699e-06 0.144953)
(-3.93767e-06 4.10834e-06 0.144945)
(3.6351e-06 3.01983e-06 0.144982)
(2.74017e-05 2.10505e-07 0.113714)
(-1.07889e-05 3.75186e-06 0.0971989)
(8.82887e-06 -3.13185e-06 0.14023)
(3.25511e-06 2.1157e-06 0.134877)
(-2.06923e-05 -3.03039e-06 0.114419)
(1.73368e-05 -1.14913e-05 0.096672)
(2.65708e-07 1.31419e-06 0.140137)
(-2.52311e-06 -1.01782e-06 0.0592728)
(-1.95966e-06 -3.41714e-06 0.0590497)
(-7.43852e-07 3.3051e-05 0.114897)
(-2.61836e-06 4.71071e-06 0.14089)
(1.58121e-05 -1.48801e-05 0.0975532)
(3.38095e-06 1.01079e-06 0.135279)
(-3.3126e-08 -3.01032e-05 0.115118)
(5.42582e-07 -3.6331e-06 0.140797)
(-1.88224e-05 1.91481e-05 0.0972939)
(6.06029e-06 -3.76687e-06 0.0821858)
(-9.43904e-06 2.13338e-06 0.0823465)
(0.000122876 0.000119795 0.129023)
(1.516e-06 4.73659e-06 0.081775)
(1.77318e-05 1.94336e-06 0.082094)
(4.28714e-07 -2.89364e-05 0.0950049)
(6.21058e-06 1.15271e-05 0.0694224)
(8.20999e-07 2.05199e-05 0.0952068)
(-3.72251e-06 -1.80022e-05 0.0693095)
(-6.86604e-06 -9.82972e-07 0.0593157)
(5.47413e-06 -3.38345e-06 0.059213)
(-1.44797e-05 9.36723e-07 0.0939877)
(8.09636e-06 -4.40672e-06 0.0692452)
(9.71955e-06 -3.06855e-06 0.0946176)
(-1.1727e-05 2.41867e-06 0.0689417)
(-1.66739e-06 2.47345e-06 0.144999)
(2.28282e-06 -3.58913e-06 0.144994)
(-2.38653e-06 -5.0176e-06 0.145035)
(-5.36633e-06 -4.19249e-06 0.144989)
(5.41412e-06 -4.04658e-06 0.144933)
(-5.62331e-06 5.89162e-06 0.144926)
(4.57132e-06 5.273e-06 0.144958)
(2.55111e-05 -7.16371e-07 0.113714)
(-1.2258e-05 2.24946e-06 0.0972054)
(1.17304e-05 -4.63968e-06 0.140249)
(2.55312e-06 5.05987e-06 0.134853)
(-2.16515e-05 -4.7488e-06 0.114415)
(1.53825e-05 -1.07995e-05 0.0966814)
(-4.39122e-06 2.41529e-06 0.140097)
(-2.28638e-06 -3.44737e-07 0.0592827)
(-7.75554e-07 -1.27931e-06 0.0590622)
(-1.35692e-06 3.13968e-05 0.11489)
(-5.09102e-06 5.76798e-06 0.140906)
(1.4743e-05 -1.63008e-05 0.0975513)
(5.36602e-06 7.982e-07 0.13526)
(-1.53531e-06 -3.20085e-05 0.115109)
(1.86558e-06 -8.37523e-06 0.140757)
(-1.83937e-05 1.80368e-05 0.0972966)
(4.27994e-06 -3.84744e-06 0.0821994)
(-1.30049e-05 3.37644e-06 0.0823539)
(0.000121111 0.000120254 0.129011)
(8.84418e-07 3.83829e-06 0.0817896)
(1.31493e-05 -1.70051e-07 0.0821004)
(-7.77473e-08 -2.63525e-05 0.0950131)
(4.38477e-06 1.36421e-05 0.0694371)
(-7.08663e-08 2.2541e-05 0.0952116)
(-4.88415e-06 -1.61336e-05 0.0693272)
(-6.98652e-06 4.7122e-07 0.0593305)
(4.31859e-06 -4.30674e-06 0.0592266)
(-1.20688e-05 3.23582e-07 0.0939915)
(9.77125e-06 -4.87575e-06 0.0692565)
(1.18787e-05 -3.83805e-06 0.0946159)
(-1.07803e-05 2.8118e-06 0.0689581)
(-5.31654e-06 6.99583e-06 0.145004)
(5.64087e-06 -7.82542e-06 0.145003)
(-6.72351e-06 -7.95112e-06 0.145047)
(-9.16622e-06 -6.50312e-06 0.144961)
(8.47678e-06 -6.00624e-06 0.144908)
(-8.23263e-06 1.02687e-05 0.144905)
(7.41329e-06 1.04737e-05 0.14494)
(2.24875e-05 1.86069e-06 0.113716)
(-1.43129e-05 3.52891e-06 0.0972084)
(1.62685e-05 -6.44923e-06 0.140286)
(2.53477e-06 1.16711e-05 0.134826)
(-2.40407e-05 -3.5867e-06 0.114412)
(1.41949e-05 -8.91998e-06 0.0966916)
(-1.22975e-05 5.34901e-06 0.14004)
(-6.80463e-08 2.66966e-06 0.0592857)
(1.13513e-06 2.24725e-07 0.0590669)
(1.90532e-07 3.0819e-05 0.114892)
(-6.63903e-06 1.14488e-05 0.140945)
(1.64882e-05 -1.64941e-05 0.0975521)
(1.28439e-05 1.93175e-06 0.135236)
(-1.00829e-07 -3.21755e-05 0.115103)
(7.04509e-06 -1.47435e-05 0.1407)
(-1.53272e-05 1.83257e-05 0.0973065)
(1.35847e-06 -3.8178e-06 0.0821971)
(-1.59683e-05 1.60896e-06 0.082347)
(0.000118494 0.000120131 0.129011)
(-3.93987e-06 4.24489e-06 0.0817942)
(9.19736e-06 2.26121e-06 0.0821052)
(-1.12212e-07 -2.52577e-05 0.0950243)
(3.36644e-06 1.5855e-05 0.0694377)
(-6.56419e-07 2.46829e-05 0.0952074)
(-2.91692e-06 -1.63287e-05 0.0693375)
(-7.08124e-06 1.27862e-06 0.059327)
(2.9571e-06 -3.03969e-06 0.0592397)
(-1.16928e-05 3.02443e-06 0.0940005)
(1.0849e-05 -4.90117e-06 0.0692589)
(1.31502e-05 -2.32176e-06 0.0946082)
(-1.16282e-05 5.5363e-06 0.0689701)
(-8.67093e-06 1.18174e-05 0.145017)
(1.05125e-05 -1.43107e-05 0.145022)
(-1.10116e-05 -1.35592e-05 0.14506)
(-1.34922e-05 -1.03072e-05 0.144924)
(1.16654e-05 -1.04841e-05 0.144876)
(-1.3056e-05 1.83369e-05 0.144873)
(1.18973e-05 1.83746e-05 0.144907)
(1.98644e-05 3.384e-06 0.113722)
(-1.58294e-05 3.54599e-06 0.097202)
(2.79702e-05 -9.987e-06 0.14036)
(4.81695e-06 2.35973e-05 0.134798)
(-2.56224e-05 -1.53559e-06 0.114407)
(1.40992e-05 -4.82663e-06 0.0966977)
(-2.90724e-05 1.12184e-05 0.139947)
(1.34983e-06 3.09302e-06 0.0592723)
(2.73076e-07 -1.92557e-06 0.0590718)
(-2.92193e-07 2.8257e-05 0.114895)
(-1.15211e-05 2.30793e-05 0.141023)
(1.57871e-05 -1.83901e-05 0.0975495)
(2.36837e-05 6.72897e-06 0.135206)
(-2.82211e-07 -3.30655e-05 0.115098)
(1.48301e-05 -2.8638e-05 0.140613)
(-1.4178e-05 1.74907e-05 0.0973189)
(-1.93858e-06 -1.59415e-06 0.0821808)
(-1.66258e-05 1.71518e-06 0.0823316)
(0.000116537 0.000119405 0.129018)
(-1.73404e-06 2.25215e-06 0.0818066)
(8.61051e-06 1.07415e-07 0.0821155)
(-1.23764e-07 -2.38054e-05 0.0950353)
(1.03635e-07 1.83515e-05 0.0694312)
(-8.37531e-07 2.60992e-05 0.0951976)
(1.51629e-06 -1.80323e-05 0.0693477)
(-2.43109e-06 4.97446e-06 0.05931)
(-4.79357e-07 -6.22321e-06 0.0592561)
(-1.11665e-05 4.49647e-06 0.0940135)
(1.2542e-05 -6.4669e-06 0.0692491)
(1.3394e-05 -4.82484e-07 0.0945923)
(-1.36769e-05 1.02418e-05 0.0689791)
(-1.13499e-05 1.63225e-05 0.145043)
(1.45238e-05 -2.08889e-05 0.145052)
(-1.48158e-05 -1.83955e-05 0.145097)
(-1.04272e-05 -8.67772e-06 0.144867)
(6.15236e-06 -9.62687e-06 0.144829)
(-1.03854e-05 2.18394e-05 0.144821)
(9.68427e-06 2.21679e-05 0.144864)
(1.69205e-05 3.13291e-06 0.113735)
(-1.75107e-05 2.39156e-06 0.0971831)
(5.63563e-05 -1.89542e-05 0.140491)
(1.41629e-05 4.81797e-05 0.134772)
(-2.64174e-05 -1.80233e-06 0.114398)
(1.73504e-05 1.45506e-06 0.0967151)
(-6.61421e-05 2.28273e-05 0.139792)
(3.38642e-06 6.15471e-06 0.0592571)
(-2.47187e-06 -6.11902e-06 0.0590981)
(1.84828e-08 2.61802e-05 0.114907)
(-2.49414e-05 4.96203e-05 0.141156)
(1.11157e-05 -2.10754e-05 0.0975384)
(4.60307e-05 1.94207e-05 0.135173)
(-1.26541e-06 -3.39642e-05 0.115091)
(3.00016e-05 -6.32009e-05 0.140462)
(-8.99714e-06 2.07887e-05 0.0973362)
(-2.60665e-06 4.3041e-07 0.0821485)
(-1.01852e-05 -3.12637e-06 0.0822986)
(0.000115114 0.000117011 0.129038)
(8.30102e-07 -3.67807e-06 0.0818392)
(3.5945e-06 5.7596e-06 0.0821475)
(-1.25302e-06 -2.3966e-05 0.0950473)
(-1.0111e-05 2.45408e-05 0.0694282)
(-1.96328e-06 2.76702e-05 0.0951734)
(1.67529e-05 -2.54758e-05 0.0693462)
(6.46871e-06 1.09453e-05 0.0592735)
(-1.84294e-05 -1.44699e-05 0.0592954)
(-1.08233e-05 1.12826e-06 0.0940416)
(1.89743e-05 -1.67526e-05 0.0692337)
(1.54664e-05 -1.58307e-06 0.0945639)
(-1.99239e-05 2.35777e-05 0.0689697)
(-2.14807e-07 9.62715e-06 0.14509)
(6.33126e-06 -1.92928e-05 0.145107)
(-6.21584e-06 -1.71471e-05 0.145149)
(4.18852e-05 3.83283e-05 0.144765)
(-5.25289e-05 3.70538e-05 0.144741)
(4.19486e-05 -2.00642e-05 0.144725)
(-4.19834e-05 -2.12538e-05 0.144771)
(7.48587e-06 2.81063e-06 0.113759)
(-2.41918e-05 -1.00501e-05 0.0971605)
(0.000131767 -4.33223e-05 0.140719)
(4.03728e-05 0.000102491 0.134765)
(-2.83e-05 -3.58615e-06 0.114381)
(2.46179e-05 1.71138e-05 0.0967384)
(-0.00016583 5.54015e-05 0.139522)
(8.51239e-06 1.32155e-05 0.0592285)
(-1.19636e-05 -2.38092e-05 0.0591476)
(1.81908e-06 1.87053e-05 0.114923)
(-5.64771e-05 0.00012214 0.141387)
(6.03763e-07 -2.71191e-05 0.0975204)
(9.75981e-05 4.96182e-05 0.135149)
(-8.51337e-07 -3.51255e-05 0.115079)
(7.06959e-05 -0.000159059 0.140197)
(8.84797e-06 3.01108e-05 0.097353)
(-1.20288e-05 1.34269e-05 0.0820743)
(5.37047e-07 -9.55684e-06 0.0822304)
(0.000111789 0.000113032 0.129074)
(1.26484e-05 -2.19883e-05 0.0819224)
(-1.54889e-05 1.59929e-05 0.0822313)
(-5.36211e-06 -2.55184e-05 0.0950751)
(-4.20942e-05 3.87653e-05 0.0694801)
(9.31449e-07 2.83788e-05 0.0951437)
(6.45735e-05 -4.72071e-05 0.0692512)
(4.05244e-05 3.21544e-05 0.059203)
(-7.14844e-05 -4.55431e-05 0.0593675)
(-1.33801e-05 -6.04678e-06 0.0940969)
(3.45166e-05 -4.96327e-05 0.0692651)
(1.76174e-05 -1.51726e-06 0.0945192)
(-4.06929e-05 6.79215e-05 0.0688789)
(9.50626e-05 -7.20392e-05 0.145186)
(-7.99187e-05 5.44063e-05 0.145221)
(8.10867e-05 5.8595e-05 0.145268)
(0.000351285 0.000335687 0.14454)
(-0.000372656 0.000330248 0.144535)
(0.000346337 -0.000306364 0.144502)
(-0.000347284 -0.000308633 0.144559)
(-1.6731e-05 1.9283e-06 0.113802)
(-4.23077e-05 -4.28738e-05 0.0971411)
(0.000360673 -0.000119827 0.141119)
(0.000129115 0.000206095 0.134854)
(-3.01878e-05 -3.79477e-06 0.114347)
(5.2267e-05 6.3506e-05 0.0967368)
(-0.000461044 0.000156452 0.139063)
(3.00924e-05 4.71303e-05 0.0591576)
(-4.06271e-05 -7.47738e-05 0.0592349)
(9.18228e-07 -3.8792e-06 0.114935)
(-0.000144938 0.000346935 0.141787)
(-3.17871e-05 -4.41031e-05 0.0975173)
(0.000201587 0.000140137 0.135195)
(-6.05804e-07 -3.72507e-05 0.115057)
(0.000186409 -0.00045209 0.139743)
(5.67244e-05 5.81046e-05 0.0973247)
(-3.91563e-05 5.05174e-05 0.081896)
(4.11895e-05 -3.87952e-05 0.0820736)
(0.000105997 0.000107689 0.129182)
(5.15084e-05 -8.04709e-05 0.082145)
(-7.38123e-05 5.89212e-05 0.0824506)
(-4.53688e-05 -9.2678e-05 0.0952409)
(-0.000133686 6.52542e-05 0.0698044)
(2.39575e-05 2.09862e-05 0.0950826)
(0.000186161 -0.000127041 0.0687696)
(0.000157044 9.10752e-05 0.0591213)
(-0.000219103 -0.000152852 0.0595499)
(-8.13921e-05 -4.59004e-05 0.0943105)
(6.25031e-05 -0.000142928 0.0695774)
(1.51209e-05 2.15197e-05 0.0944064)
(-0.000120009 0.000186911 0.068404)
(0.000623603 -0.000563841 0.145378)
(-0.00058222 0.00053948 0.145434)
(0.000586766 0.000547178 0.145478)
(0.00169747 0.00168337 0.143896)
(-0.00175556 0.00166812 0.143912)
(0.00168031 -0.00162872 0.143852)
(-0.0016842 -0.00163846 0.143917)
(-4.21789e-05 -1.61537e-05 0.113933)
(-7.56137e-05 -0.000136682 0.0972701)
(0.00113705 -0.000374227 0.141751)
(0.000545249 0.000264332 0.135242)
(-1.44517e-05 -9.31374e-07 0.114235)
(0.000172427 0.000148275 0.0965435)
(-0.00138642 0.000472715 0.13832)
(9.14821e-05 0.000164518 0.059059)
(-0.000149417 -0.000222432 0.0594228)
(-1.8791e-05 -2.4891e-05 0.11497)
(-0.000412672 0.00112371 0.142413)
(-0.000122542 -7.48649e-05 0.0976791)
(0.00026522 0.000548169 0.135494)
(3.59506e-06 -2.20423e-05 0.115009)
(0.0005151 -0.00137479 0.139015)
(0.000143601 0.00017553 0.0970773)
(-0.000121657 0.000167666 0.0814788)
(0.000153806 -0.000115148 0.0817116)
(0.000164907 0.000163167 0.129556)
(0.000216838 -0.000197723 0.0827798)
(-0.000191617 0.000221058 0.0830622)
(-0.000254083 -0.00118158 0.0949542)
(-0.000419793 5.17352e-05 0.0715793)
(0.000110961 -0.000165896 0.094532)
(0.000190739 -0.00110135 0.0666563)
(0.00046949 0.000162889 0.0595849)
(-0.000296207 -0.00113101 0.0607456)
(-0.00116655 -0.000249463 0.0949769)
(5.4095e-05 -0.000414614 0.0714234)
(-0.000166257 0.000110987 0.0942348)
(-0.00110018 0.000198999 0.0666706)
(0.00340616 -0.00328539 0.14511)
(-0.00328796 0.00325074 0.145189)
(0.0033021 0.00326696 0.145242)
(0.00541696 0.00540609 0.138299)
(-0.00560541 0.0053741 0.138227)
(0.00533278 -0.00540173 0.138249)
(-0.00535447 -0.00544052 0.138331)
(0.000843306 -0.000136804 0.113699)
(0.000111 -0.000428566 0.0984591)
(0.00442755 -0.00125239 0.142091)
(0.00351764 -0.00118561 0.136132)
(0.000348347 -3.48843e-06 0.113817)
(0.00115813 -6.15878e-05 0.0949344)
(-0.00372371 0.00118315 0.137006)
(0.000171297 0.000462793 0.0595053)
(-0.00112497 -0.000298034 0.0607701)
(-0.000159369 0.000865435 0.113676)
(-0.00126202 0.00439711 0.142633)
(-0.000417823 0.000115734 0.0989088)
(-0.00113661 0.00343093 0.135776)
(5.24591e-06 0.000349564 0.114364)
(0.00115939 -0.00373641 0.136934)
(-7.24589e-05 0.00114095 0.0948025)
(-0.000192394 0.00039379 0.0809226)
(0.000388315 -0.000188042 0.0812606)
(0.0013929 0.00138754 0.130297)
(0.00121118 0.00015483 0.0844403)
(0.000157444 0.00121617 0.08442)
(-0.00129682 -0.0251675 0.099018)
(-0.000898249 -0.00394202 0.0453542)
(-0.000421093 -0.00647034 0.0870896)
(-0.00751163 -0.0166692 0.0866859)
(0.000254953 -0.00211193 0.0351612)
(0.00798192 -0.0156861 0.0845839)
(-0.0251214 -0.00130022 0.0990464)
(-0.00394568 -0.000902578 0.0453666)
(-0.00648262 -0.000428984 0.0871731)
(-0.016667 -0.00753904 0.0867048)
(-0.00532548 -0.00526333 0.119712)
(-0.00428326 -0.0165341 0.137754)
(-0.0166186 -0.00438971 0.137781)
(-0.0232412 -0.0233508 0.12461)
(-0.00537062 -0.00532601 0.14117)
(-0.00487524 -0.0225773 0.12275)
(-0.0226078 -0.00494055 0.122752)
(0.0272086 -0.00236645 0.107204)
(0.00632678 -0.00315793 0.0859514)
(0.0225364 -0.00414058 0.130642)
(0.0298342 -0.0219056 0.1196)
(0.00668935 -0.000553624 0.107006)
(0.0210349 -0.0100197 0.0986232)
(0.0303461 -0.00469557 0.119943)
(-0.00211474 0.000242564 0.0351595)
(-0.0156911 0.00796002 0.0845783)
(-0.00254226 0.0269425 0.107182)
(-0.0040755 0.022606 0.130635)
(-0.00314985 0.00629299 0.0859228)
(-0.0212474 0.0295817 0.119589)
(-0.000472585 0.00673069 0.10691)
(-0.0045402 0.030388 0.11989)
(-0.0100505 0.0210519 0.0986431)
(0.00370669 0.00215753 0.0758077)
(0.00216367 0.00369871 0.0758597)
(0.0237995 0.0237206 0.116277)
(0.0178515 0.0097565 0.0924379)
(0.00979406 0.0178574 0.09244)
(-5.64974e-06 4.28421e-07 0.0591236)
(9.88963e-06 5.19765e-06 0.0591363)
(-3.82513e-07 2.78653e-06 0.0589445)
(-2.21647e-06 1.32589e-06 0.059172)
(0.000117084 0.000119188 0.129217)
(-1.52796e-05 1.58716e-06 0.082087)
(8.56055e-08 -2.37638e-06 0.0816742)
(1.3974e-05 -2.2604e-06 0.0822053)
(-3.20053e-06 6.90048e-06 0.0820903)
(7.50867e-06 -1.82295e-05 0.0690836)
(-7.19288e-06 6.25969e-06 0.134954)
(2.11592e-05 -2.02783e-05 0.0968671)
(2.63995e-06 1.84579e-05 0.0945388)
(-2.77338e-06 -1.56108e-05 0.0692736)
(6.53851e-06 1.60771e-05 0.0691595)
(2.76192e-06 -3.12666e-05 0.0949689)
(2.77139e-06 1.88895e-05 0.0945449)
(4.50414e-06 -1.48816e-05 0.0693199)
(-4.40683e-06 1.76199e-05 0.0691998)
(3.03994e-06 -3.08494e-05 0.094975)
(7.15908e-07 2.77374e-05 0.114423)
(-5.23727e-06 2.30665e-06 0.13538)
(-1.8866e-05 -1.78348e-05 0.0972545)
(-2.32558e-06 1.20718e-06 0.14095)
(1.51435e-05 1.57614e-05 0.0971272)
(-2.29902e-06 -3.93823e-07 0.140882)
(1.68133e-06 -3.10418e-05 0.114887)
(2.60194e-06 2.81996e-05 0.114419)
(5.09641e-06 3.52414e-06 0.135334)
(2.02486e-05 -1.72027e-05 0.0972679)
(6.73989e-07 2.56082e-06 0.140924)
(-1.33835e-05 1.7145e-05 0.0971358)
(5.21885e-07 4.36918e-07 0.140863)
(2.08623e-06 -3.05803e-05 0.114884)
(0.000120576 -0.000114644 0.129001)
(1.84015e-05 3.09913e-06 0.0818785)
(-2.66584e-06 -3.01024e-06 0.0817852)
(-7.74579e-07 1.16941e-06 0.0590162)
(6.43218e-06 8.07297e-07 0.059167)
(-9.01785e-06 6.33133e-06 0.0591758)
(-0.000116586 0.000119929 0.129167)
(1.59897e-05 2.08244e-06 0.0820959)
(1.05802e-07 -3.03842e-06 0.0817911)