/*--------------------------------*- C++ -*----------------------------------*\
| =========                 |                                                 |
| \\      /  F ield         | OpenFOAM: The Open Source CFD Toolbox           |
|  \\    /   O peration     | Version:  2206                                  |
|   \\  /    A nd           | Website:  www.openfoam.com                      |
|    \\/     M anipulation  |                                                 |
\*---------------------------------------------------------------------------*/
FoamFile
{
    version     2.0;
    format      ascii;
    arch        "LSB;label=32;scalar=64";
    class       volScalarField;
    location    "100";
    object      omega;
}
// * * * * * * * * * * * * * * * * * * * * * * * * * * * * * * * * * * * * * //

dimensions      [0 0 -1 0 0 0 0];

internalField   nonuniform List<scalar> 
66616
(
21.632
22.2625
22.2504
22.2852
20.6514
22.3371
22.1643
22.6145
19.9614
24.0573
23.6355
25.3551
19.3223
24.4904
24.0245
27.6856
18.6988
24.32
23.7364
27.0803
18.1891
24.1108
23.6593
26.9899
17.8553
24.0813
23.6525
27.1152
17.7488
24.2985
23.9323
27.5873
17.7277
24.6583
24.2623
27.6376
17.7802
24.9608
24.4686
28.0958
17.8613
25.2705
24.7547
28.1984
17.8731
25.5329
25.059
28.4073
22.5155
21.9988
21.9963
22.5216
21.9995
21.9956
21.8422
21.8344
21.8361
21.8379
22.0153
21.9971
22.5016
22.0167
21.9999
22.4853
22.2716
22.4458
22.2611
22.2538
22.0041
22.0403
22.2525
22.4495
22.2559
22.2522
22.0838
22.0855
22.2609
22.0882
22.0931
22.2444
22.4511
22.2487
22.031
22.0464
22.4629
22.5754
25.4633
22.1679
22.0944
23.1656
23.1142
22.5842
25.0954
22.253
22.2762
23.4855
23.5036
22.2716
23.2436
23.7488
22.6005
25.1771
22.1007
23.0632
23.1519
25.1991
25.8342
27.0214
23.4899
23.4113
24.0793
24.1431
25.3705
27.5887
23.9407
23.7471
24.4518
24.5525
23.8803
24.1788
24.5493
25.4508
27.4241
23.3728
23.9168
24.0518
27.5925
27.3336
27.101
23.5055
23.8374
23.8965
23.9695
27.1385
27.1933
23.9589
24.3307
24.1713
24.3646
24.1394
23.8916
24.2333
26.9596
26.9888
23.626
23.8717
23.7977
26.4739
26.4079
26.6056
22.8834
23.449
23.6993
23.6318
26.5785
26.8409
23.4048
23.7566
24.0051
24.0396
23.7655
23.5891
24.0416
26.3861
26.6679
23.3134
23.5355
23.5766
26.7707
25.9157
26.87
23.3413
23.1212
23.6012
23.65
26.4436
26.9321
23.1978
23.1843
23.9641
24.1939
23.2255
23.883
24.0672
25.7477
26.8693
23.2042
23.4755
23.7467
26.8851
26.4122
27.2486
22.7787
23.3449
23.8519
24.0403
25.9512
27.3453
23.1783
23.9175
24.1646
24.2836
23.3234
24.0442
24.3221
26.1119
26.9029
23.2624
23.2202
23.81
27.4364
26.0923
27.304
23.1408
23.2114
24.0931
24.4862
26.2306
27.514
23.4109
23.9893
24.4892
24.5683
23.5472
24.3835
24.791
26.5395
27.3424
23.4722
23.4798
24.1671
27.3421
26.8556
27.6613
23.5665
23.8627
24.5615
24.6595
26.6482
27.6884
23.9434
23.6958
25.0246
25.0844
24.4245
24.608
25.0119
26.8217
27.4382
23.2986
24.2058
24.6348
27.1715
26.3486
27.8224
23.6292
23.4707
24.9218
24.9984
27.0687
27.662
24.2884
24.7852
25.2097
25.2513
24.4268
24.954
25.3193
26.2714
27.5127
23.7455
24.4627
24.8962
27.9193
27.2394
28.0489
24.2377
24.7083
25.1488
25.1585
27.062
27.8196
24.7836
24.1614
25.6532
25.7942
24.3321
25.1766
25.5669
26.516
27.8828
24.4044
24.6828
25.0807
27.3886
27.3488
24.3101
24.0668
26.837
24.422
24.3471
24.2041
27.3188
24.3645
22.1621
22.227
22.1844
22.1838
22.9354
22.2905
39.3976
22.2097
22.9546
22.2913
22.2116
39.2709
22.4802
74.5421
74.9828
90.6474
672.418
75.7324
441.832
518.804
554.231
91.2918
672.428
75.784
441.78
21.6326
21.6315
21.63
20.8907
20.8754
20.8778
20.8819
29.9088
116.842
21.759
22.1304
26.9772
115.252
21.5021
518.46
554.174
29.7492
21.7692
116.845
22.1273
26.995
21.4888
115.293
202.612
202.781
22.2272
204.357
204.577
129.186
339.194
118.003
320.568
439.986
427.381
135.752
341.466
121.502
322.663
20.6481
20.6468
20.6451
20.1056
20.0887
20.0941
20.0967
47.368
132.563
20.9267
22.569
39.8753
133.24
20.8345
441.652
428.941
44.4263
20.8624
129.97
22.3734
37.8289
20.6667
132.592
207.092
205.434
23.7566
202.537
200.594
135.753
308.162
136.382
306.028
420.787
418.08
139.247
310.677
141.021
308.539
19.9451
19.9455
19.9485
19.4915
19.4869
19.4887
19.4813
56.5053
133.015
20.9806
24.1985
55.9801
125.636
20.725
422.601
419.746
53.5086
20.6133
131.035
23.6781
52.9722
20.4491
128.32
199.37
197.518
27.0197
197.2
195.729
134.594
304.864
135.87
303.763
416.684
415.243
138.918
307.045
139.802
305.936
19.3215
19.3269
19.3052
18.8489
18.8481
18.8574
18.8558
54.7121
129.067
20.5011
23.6278
55.5737
127.508
20.2426
417.679
417.086
52.1569
20.1875
126.285
23.3503
53.2607
19.9724
124.61
196.861
194.492
27.293
196.107
193.467
135.389
303.022
135.03
302.234
412.782
411.893
139.934
305.36
140.345
304.458
18.6989
18.7011
18.7045
18.3164
18.2937
18.3175
18.332
54.2305
128.012
20.0099
23.3784
54.0628
127.755
20.0649
414.6
413.598
51.3041
19.6752
124.779
23.4587
51.3481
19.79
124.833
195.495
193.779
26.9124
195.465
193.314
135.794
301.655
136.615
301.196
410.972
409.657
140.818
303.978
140.808
303.386
18.1849
18.2105
18.2008
17.9231
17.9278
17.9611
17.9092
54.5959
127.998
20.0102
23.6877
54.5565
128.274
19.7642
412.592
411.131
51.4922
19.6292
125.228
23.067
51.0923
19.4818
125.241
196.093
193.931
27.0197
195.792
193.571
136.836
300.775
136.558
300.122
408.545
407.962
141.25
303.022
141.196
302.416
17.806
17.8356
17.8053
17.758
17.814
17.7813
17.7591
55.3933
128.752
19.9723
23.4761
55.3575
128.992
19.8538
410.669
409.14
52.1764
19.7098
126.453
23.2821
52.863
19.5949
126.189
196.354
194.955
27.1596
195.554
194.037
137.096
300.072
138.37
299.603
406.936
406.365
140.993
302.222
141.521
301.725
17.7376
17.7192
17.7198
17.7109
17.7509
17.7692
17.6929
55.3091
129.276
20.0253
23.6888
55.5848
129.519
19.8262
408.98
407.748
52.9119
19.7373
127.365
23.7637
52.4503
19.6647
126.709
196.492
194.342
27.5072
195.671
193.956
136.92
299.439
138.454
298.929
405.633
405.26
141.579
301.817
141.786
301.016
17.6544
17.6478
17.7403
17.7761
17.7621
17.7635
17.7707
55.9915
130.275
20.2323
24.0552
56.8449
129.919
20.0221
407.835
406.406
52.7672
19.9098
128.381
23.6899
53.2128
19.7809
127.206
195.286
194.025
27.6241
195.282
193.586
136.163
298.78
137.829
298.281
404.889
404.488
142.224
301.186
143.509
300.637
17.6285
17.745
17.671
17.7592
17.7951
17.8016
17.8263
56.5262
130.789
20.3965
24.2432
56.2965
130.189
20.2812
405.821
405.575
53.5554
20.0598
127.412
23.7572
54.0309
19.9041
126.989
195.689
194.345
28.0248
195.431
193.228
137.113
298.215
138.406
297.843
404.261
403.556
141.55
300.335
142.546
299.969
17.6707
17.7952
17.7805
17.8757
17.8607
17.8902
17.7727
56.8232
130.234
20.6149
24.5463
57.5503
129.958
20.5134
405.108
405.107
53.2859
20.2371
127.806
24.074
54.7651
20.054
127.151
195.965
193.8
28.201
195.292
193.471
140.23
297.83
136.655
299.195
404.534
404.235
299.942
142.313
17.8166
17.8706
17.856
56.8871
130.018
20.7666
24.8191
57.8982
130.086
20.4301
404.605
56.1547
20.0281
128.281
54.424
20.8926
195.466
192.244
28.2896
195.279
194.155
22.4823
76.6014
76.5122
1088.75
305.673
1089.07
306.186
22.5564
259.13
259.336
86.2769
86.1234
22.8922
22.2897
39.3324
22.2101
22.8944
22.291
39.6529
22.2117
28.9497
1679.11
192.989
82.0227
28.5328
1677.83
188.223
82.0976
24.15
22.2455
195.328
22.0015
44.5816
22.1519
26.7748
23.8891
22.2461
196.152
21.9938
43.411
22.1497
27.0163
22.481
77.1232
74.3181
1089.33
306.555
22.554
259.011
259.195
86.189
84.8718
1089.19
306.338
22.8932
22.2903
39.641
22.2092
22.8951
22.2899
22.2108
38.5651
28.4815
1679.03
188.788
82.069
23.8838
22.2449
195.538
22.0106
42.6945
22.1515
27.0056
28.4559
1679.08
195.359
82.0475
23.8822
22.2452
22.0111
195.445
22.1536
43.3967
27.0163
22.1633
22.2267
22.1868
22.1855
22.1649
22.2263
22.1847
22.1851
22.1642
22.2267
22.1858
22.188
22.0499
22.1274
21.7907
21.7893
22.0918
22.0911
21.7306
22.0514
22.127
21.7853
21.7856
22.0901
22.0899
21.7302
22.05
22.1276
21.7865
21.789
22.0902
22.0904
21.7283
22.0502
22.1283
21.7861
21.7878
22.0901
22.0908
21.7304
22.8937
22.29
22.2104
38.4064
23.5654
22.2442
195.614
22.0078
43.0954
22.1501
26.9018
28.7689
1679.46
188.014
82.1389
23.8741
22.2467
22.0087
195.244
22.1529
43.3559
27.0618
28.4898
1679.63
193.931
82.0643
22.4812
74.9355
76.9109
1088.61
306.345
22.5546
259.109
259.214
84.3904
86.7632
1088.96
306.988
22.901
22.2909
22.2127
38.5218
23.5707
22.2452
21.9994
195.772
22.1473
45.0461
26.9129
23.8347
22.2462
21.9972
195.317
22.1511
42.7546
27.0309
28.8234
1678.31
193.029
82.179
28.5101
1678.12
192.106
82.0487
22.552
259.11
259.439
84.3899
84.451
1088.86
306.162
1088.8
306.364
520.39
550.397
520.297
550.467
202.206
202.259
22.2381
204.682
204.813
448.424
527.29
449.774
527.462
22.141
205.874
208.085
207.127
207.567
90.7937
677.213
74.2536
441.988
29.8662
116.375
21.7552
22.134
26.8237
115.491
21.5115
29.842
116.128
21.7634
22.1334
26.7509
115.803
21.5038
99.0142
349.29
415.33
115.083
98.391
349.41
415.309
115.441
31.4083
22.1173
126.503
21.0382
119.741
21.2795
36.9403
31.4209
22.1158
126.561
21.0317
120.054
21.2862
36.9164
202.055
202.238
22.2406
205.357
204.654
518.85
550.927
448.492
526.529
22.0993
206.262
207.83
207.419
207.419
449.719
527.557
29.8905
116.329
21.743
22.129
26.7172
115.514
21.5239
91.3646
672.467
74.1965
441.866
29.9763
21.7436
116.054
22.1299
26.7428
21.5287
115.522
98.0449
351.465
415.411
118.619
31.3673
21.9489
129.482
21.0768
119.959
21.2667
38.363
97.952
351.413
415.297
118.274
31.3274
21.9559
21.0846
129.15
21.266
119.918
38.3538
91.2787
672.072
74.2332
441.742
29.9731
21.7476
116.349
22.1319
26.745
21.522
115.428
91.2738
671.259
74.3403
441.611
31.3026
21.9789
129.371
21.0817
119.976
21.276
38.4158
97.8493
351.619
415.27
118.258
31.3352
21.9545
21.0808
129.811
21.269
119.873
38.371
97.8767
351.43
415.254
118.274
202.171
202.218
22.2315
205.3
204.68
519.069
550.981
449.663
526.592
22.1468
208.244
205.896
207.605
207.178
448.519
527.509
29.9301
21.7578
115.982
22.1324
26.7755
21.5098
115.43
90.6869
672.576
74.3226
441.818
90.9978
673.011
74.3257
441.709
31.4878
22.1112
21.0217
127.043
21.2958
119.994
37.0167
31.3984
22.1147
21.0338
126.534
21.2845
119.816
36.9454
98.6801
349.507
415.235
115.327
98.3272
349.341
415.246
115.606
520.039
550.27
520.342
550.434
22.096
207.738
206.063
207.298
207.296
449.714
527.274
448.68
527.354
440.854
427.376
442.588
429.021
205.282
207.294
23.7341
200.523
202.612
421.515
426.248
423.631
427.955
23.9378
193.275
198.773
199.968
202.17
129.612
339.82
117.44
320.511
44.2454
129.887
20.8258
22.3791
37.8513
133.678
20.7147
44.392
129.704
20.8308
22.3837
37.8101
132.356
20.7075
129.446
308.822
316.568
133.076
130.51
308.839
317.116
136.198
45.5114
22.7246
129.435
20.5989
132.649
20.64
51.6399
45.6386
22.6564
130.475
20.6045
132.358
20.6475
51.9208
205.427
207.043
23.6827
200.652
201.605
442.468
428.969
421.31
426.175
23.8512
195.446
198.849
197.178
201.654
423.055
427.724
47.3391
132.457
20.9263
22.6394
39.8032
136.433
20.8333
134.2
342.317
121.64
322.889
47.2688
20.9291
133.82
22.6267
39.8137
20.8466
136.043
136.854
311.515
318.885
137.761
48.2799
22.9693
132.808
20.8
133.301
20.81
54.5055
135.794
310.99
319.014
137.565
49.0424
22.9109
20.8125
131.723
20.8252
135.316
55.0287
135.103
342.169
121.614
322.751
47.4649
20.928
132.249
22.6591
39.7683
20.8462
135.67
133.838
342.208
121.491
322.833
48.4065
23.023
133.307
20.8472
135.063
20.953
54.7669
135.586
310.881
319.141
140.541
48.8211
22.8932
20.8112
133.617
20.8252
136.369
53.3734
135.05
310.888
319.102
140.459
207.372
205.327
23.7245
201.7
200.78
440.922
427.463
423.119
427.941
23.911
198.643
196.484
201.729
200.544
421.772
426.404
44.414
20.8246
129.812
22.3921
37.8263
20.7045
133.277
128.927
339.972
117.47
320.514
130.545
339.888
117.581
320.692
45.7843
22.7446
20.6047
131.427
20.6813
132.478
50.6799
45.9221
22.6286
20.595
129.702
20.6397
132.409
51.6462
130.517
308.884
316.763
136.438
131.21
308.365
316.809
136.155
442.428
429.086
440.946
427.532
23.9561
198.838
196.706
202.359
200.397
423.242
427.148
421.576
426.512
420.877
418.939
421.515
420.414
194.634
195.192
27.2531
195.249
197.467
417.218
417.873
418.651
420.272
26.6421
194.233
196.067
192.354
195.643
135.572
307.828
133.589
306.232
52.6742
127.963
20.561
23.8664
51.2999
123.645
20.5025
51.6451
127.698
20.5662
23.5609
52.1775
125.148
20.4965
132.538
304.867
305.065
135.194
132.04
304.614
305.203
134.464
51.1562
23.9076
125.155
20.3232
124.678
20.438
53.1641
52.5982
23.6196
124.74
20.3059
118.96
20.4286
53.2102
193.978
196.565
26.8864
194.612
196.614
422.369
420.016
416.334
418.219
26.3829
194.535
195.059
191.081
192.296
417.477
420.27
56.0527
130.662
20.779
24.2668
55.5187
129.808
20.7098
139.268
309.823
138.194
308.265
55.6599
20.7948
129.466
23.9842
54.5435
20.7428
129.04
137.171
306.923
307.728
137.355
54.136
24.2884
127.739
20.5321
127.363
20.6641
55.2129
134.715
307.414
307.935
138.787
54.2102
24.0232
20.5659
127.622
20.6986
127.309
53.8451
140.503
309.908
137.684
308.299
56.7719
20.8203
128.923
23.8707
55.8655
20.7578
129.98
140.08
309.996
138.829
308.247
53.9101
24.0913
125.803
20.6115
127.495
20.8086
55.293
137.47
307.014
307.647
139.886
55.0066
24.4281
20.5882
125.779
20.7053
127.832
55.4247
138.392
307.092
307.961
140.186
195.92
196.683
27.2208
196.934
195.274
421.138
419.07
418.647
420.063
26.9502
196.156
194.611
196.212
192.185
416.925
417.751
53.0622
20.5452
121.877
23.478
51.2111
20.4736
124.32
135.694
307.689
133.961
305.922
134.62
307.333
132.217
305.944
50.8875
23.8272
20.3087
126.005
20.4802
121.855
51.4361
51.0736
23.8606
20.2879
124.836
20.4118
124.468
52.4625
132.785
304.668
305.322
135.683
128.906
304.589
305.377
134.658
421.69
420.426
421.157
417.881
26.4744
194.572
194.244
193.474
190.855
417.514
419.456
416.848
418.203
416.015
414.431
417.778
416.208
191.554
193.6
27.2705
192.89
195.409
413.379
415.213
414.836
416.83
26.7391
193.909
195.384
192.674
193.509
136.029
303.651
128.348
303.68
52.8036
122.865
20.1646
23.5069
51.7645
124.987
20.0511
52.9307
122.401
20.1547
23.886
50.0258
124.313
20.0413
128.018
302.961
302.539
133.395
128.237
302.588
302.882
135.096
50.3426
23.8634
123.91
19.8579
119.686
19.9717
51.9367
50.367
23.9049
123.31
19.8471
121.187
19.9605
51.8878
192.668
194.267
27.2377
193.167
195.513
417.876
416.261
412.85
414.24
26.8666
192.241
195.557
190.336
192.287
414.328
416.584
54.3594
122.815
20.3681
23.7038
53.152
126.593
20.2397
138.027
306.384
134.238
305.99
54.9542
20.4062
123.437
24.3336
54.6521
20.2645
126.115
132.133
304.882
304.573
139.5
51.595
23.6842
126.919
20.0075
123.847
20.1633
53.8543
130.904
305.141
305.055
138.579
52.0657
24.3149
20.0848
126.054
20.2028
126.701
54.3919
139.456
306.331
132.085
305.508
55.1696
20.4255
127.707
24.1736
54.2022
20.3046
128.235
139.761
306.802
138.333
306.263
51.2045
24.1562
123.723
20.1027
121.721
20.2823
51.8176
136.193
305.071
304.68
138.49
52.0961
24.1561
20.148
127.007
20.2582
125.025
54.5876
137.571
305.027
305.096
138.931
194.785
192.087
27.2672
196.003
193.139
416.864
414.578
415.44
416.055
26.4482
195.264
192.649
192.962
190.741
412.966
414.342
51.794
20.1289
122.405
23.7056
50.1293
20.0059
124.731
134.824
303.347
132.537
303.449
134.234
303.533
132.679
303.737
49.1463
23.8181
19.8066
123.408
19.9361
122.284
49.2499
49.3808
23.7211
19.8236
124.39
19.9375
121.863
51.6293
128.515
303.098
302.892
133.737
127.142
302.587
302.877
134.687
418.143
416.831
416.119
414.504
26.2786
194.598
192.183
194.193
188.594
414.359
416.812
412.918
414.767
413.6
412.355
415.365
413.211
191.398
191.977
26.9043
193.173
194.61
410.615
411.593
412.075
413.504
25.9156
192.23
194.47
189.678
191.186
135.368
301.741
132.757
301.889
52.3642
117.884
19.7173
23.4857
49.1525
124.879
19.655
52.2282
118.23
19.7176
23.5477
50.4641
123.111
19.6485
132.938
301.508
300.678
131.521
132.245
301.619
300.689
134.714
50.8565
23.1951
123.586
19.6792
121.093
19.588
51.9643
50.3468
23.4995
123.896
19.675
120.096
19.5804
51.9489
188.268
189.885
26.9629
193.012
195.223
414.654
413.289
410.743
412.306
26.5658
192.337
194.975
189.665
189.752
411.738
413.704
53.7703
122.26
20.1235
23.9614
51.0489
126.438
20.1173
140.678
304.112
136.627
304.362
53.8087
19.8623
126.53
23.8784
50.9811
20.0805
128.676
137.237
303.813
303.349
135.825
51.012
23.492
126.843
19.9529
121.752
19.9881
54.377
136.873
303.894
303.187
139.217
51.1098
23.8588
20.0634
127.386
20.0621
123.963
53.5702
139.061
304.731
129.662
304.359
54.3946
19.9532
124.661
23.8476
52.3879
20.1748
126.765
139.028
303.794
136.252
304.283
52.724
23.9192
126.446
19.9316
120.094
20.0493
51.9822
136.144
303.789
304.259
138.9
51.4577
23.9073
20.1493
128.026
20.1566
119.702
54.6512
134.417
303.619
303.929
139.999
192.983
188.707
26.8929
195.291
192.951
413.395
411.884
412.259
414.118
25.9814
195.184
192.904
193.067
190.185
410.485
412.271
51.4976
19.6978
119.525
23.4393
49.4215
19.6519
124.029
134.12
302.015
129.777
302.237
134.588
301.582
126.863
301.96
47.8108
23.5053
19.7319
124.247
19.7587
119.135
49.0814
48.6105
23.4193
19.5688
123.684
19.6059
118.6
51.4729
130.366
301.706
301.433
135.363
126.682
301.578
301.293
135.615
414.847
413.273
413.438
411.988
26.5104
195.607
193.437
190.931
191.914
411.897
413.785
410.544
413.02
410.744
409.371
412.811
411.124
188.552
191.105
26.5944
192.101
194.958
408.649
409.541
410.195
411.476
25.5333
192.237
195.146
188.707
191.97
135.516
300.789
130.584
300.877
51.8526
118.252
19.6167
23.4355
49.9999
123.527
19.6029
51.854
115.955
19.6157
23.3507
47.3839
125.038
19.6057
127.504
300.603
299.951
134.74
131.589
300.776
299.952
135.828
49.3479
23.4681
123.535
19.6622
118.653
19.6442
51.94
48.1207
23.4078
124.973
19.654
121.466
19.6334
52.1083
187.908
192.802
26.7702
192.708
194.55
412.19
411.057
409.505
409.909
26.2981
193.077
195.103
189.965
189.506
409.681
411.608
54.8249
122.148
19.7702
23.883
52.0048
127.486
20.0087
139.073
303.168
133.384
303.243
55.0267
19.9181
122.441
23.8696
53.4243
19.8285
127.639
132.214
302.786
302.761
139.529
53.5525
23.7618
127.593
20.0485
123.889
19.8884
55.0309
135.204
302.752
302.366
140.201
53.8618
23.5587
19.9965
126.84
19.7961
121.309
55.0031
139.464
303.189
136.696
303.178
54.1892
19.9878
120.125
23.9355
51.4295
19.9095
128.48
139.163
303.078
134.161
303.141
52.5911
23.8024
127.164
19.9831
120.034
19.9731
52.5683
137.3
302.733
302.715
140.471
51.3164
23.8191
20.062
128.121
19.9434
119.876
54.4234
133.452
302.543
302.35
139.832
191.232
187.712
26.6756
195.403
192.801
410.899
409.678
410.13
412.066
26.2477
194.654
192.426
192.524
190.191
408.224
410.112
51.1733
19.6315
118.908
23.0094
48.4806
19.6509
124.278
135.632
300.892
127.27
301.063
135.372
300.664
133.405
300.862
48.6731
22.9184
19.6909
121.448
19.6812
122.892
50.1868
48.254
23.5683
19.6748
124.224
19.6475
118.375
51.656
130.558
300.397
300.528
135.544
133.215
300.504
300.199
135.864
412.487
411.201
410.943
409.81
26.5654
195.275
192.153
190.498
191.618
409.916
411.562
408.333
410.906
409.476
407.69
410.567
409.394
188.726
193.377
26.8987
192.536
195.09
406.932
407.95
408.288
409.892
25.7861
192.078
194.888
188.267
192.056
135.204
299.782
130.61
300.24
52.4912
118.223
19.5329
23.5505
50.0072
124.202
19.5889
52.1398
121.149
19.5393
23.2101
50.2826
125.839
19.5881
133.533
299.886
299.215
133.235
129.991
300.095
299.514
136.608
48.5731
23.1472
124.269
19.5247
119.119
19.6054
53.384
49.5394
23.7677
126.468
19.6645
117.807
19.5059
52.6274
187.679
190.103
27.257
193.903
195.259
410.283
409.267
407.781
408.373
26.8432
193.523
194.488
192.012
191.801
408.835
409.918
55.6228
121.115
19.9397
23.9825
53.9237
128.61
19.9994
140.134
301.982
136.535
302.15
55.5686
19.9332
121.494
23.6137
50.5384
19.7926
127.76
138.776
302
301.977
139.335
52.6158
23.838
128.204
20.095
124.613
20.0432
55.2851
137.777
301.906
301.308
140.348
54.0294
23.5786
20.077
127.388
20.0006
121.433
55.5538
140.033
301.909
137.954
302.276
54.4474
19.9766
125.033
24.1282
51.2392
19.8853
127.899
139.446
301.683
133.325
302.07
53.8078
23.3754
127.584
19.845
124.662
19.8926
54.6516
136.686
301.802
301.421
140.011
51.2531
24.0023
20.0813
128.223
19.937
125.764
55.3412
133.763
301.884
301.645
140.426
191.039
188.814
26.8446
194.653
192.428
408.833
407.656
408.522
409.5
26.1623
194.532
192.862
190.41
190.201
406.592
408.396
51.4384
19.5053
119.471
23.4722
48.3349
19.4373
124.592
135.268
299.94
130.601
300.101
134.864
299.839
131.786
300.037
48.8282
23.2325
19.6702
126.659
19.6395
122.837
50.0127
49.3541
23.5377
19.7203
125.628
19.6797
115.813
52.1765
126.134
299.884
299.023
135.985
132.189
299.664
298.738
135.354
410.602
409.277
409.028
408.622
26.0183
195.785
193.808
193.398
188.852
408.105
409.846
406.939
407.975
407.375
406.386
408.522
407.714
189.559
191.169
27.4175
192.856
194.902
405.589
406.694
407.675
408.182
26.8562
192.039
194.591
188.263
190.53
135.514
299.243
130.201
299.409
53.282
118.772
19.5263
23.9674
48.5647
124.719
19.6833
52.9186
117.836
19.6448
24.033
47.7644
126.993
19.7014
133.148
299.21
298.789
133.046
131.712
299.22
298.612
137.4
51.5267
23.5688
124.662
19.8244
119.334
19.727
53.1195
49.0777
23.7292
125.898
19.8297
120.533
19.7178
53.3515
191.951
191.539
27.4443
194.246
194.822
408.561
407.726
406.542
406.493
26.8616
193.622
195.324
187.222
189.606
406.946
408.526
55.3275
122.826
19.9692
24.2888
52.2605
127.945
20.0626
140.584
301.286
133.116
301.42
55.8373
19.9426
123.152
24.2455
53.2747
20.0611
128.164
136.567
301.564
300.833
140.178
52.3391
24.0464
130.107
20.2149
122.995
20.1273
55.643
134.649
301.169
300.769
140.901
53.9091
24.2854
20.2103
129.182
20.1112
119.7
55.9068
140.769
300.927
130.066
301.245
55.2428
19.8497
120.166
24.4446
51.7042
20.1502
129.459
139.878
300.94
133.574
301.484
50.8437
23.6195
129.244
20.1425
123.02
20.1281
56.6805
131.761
301.179
300.805
141.481
51.9833
23.9881
20.2166
129.276
20.1101
120.36
55.8612
134.073
301.05
301.382
140.735
191.895
186.74
26.9856
194.895
193.01
407.048
406.33
407.139
408.16
25.7984
195.101
192.83
189.9
186.933
405.456
406.986
52.599
19.5034
117.103
23.3255
51.1647
19.7515
126.516
136.232
298.622
127.774
299.466
135.483
299.074
133.236
299.178
50.9834
23.5201
19.6643
123.44
19.7203
123.463
50.2558
48.6744
23.8566
19.8213
125.48
19.7422
123.483
52.5055
133.289
299.009
298.287
136.139
126.935
298.973
298.16
136.846
408.733
407.739
407.52
406.49
26.9582
194.553
193.097
192.585
192.243
406.749
408.613
405.564
407.31
406.097
405.247
408.364
406.55
188.472
189.804
27.4755
192.746
194.867
404.668
405.559
406.301
407.182
27.0625
192.655
194.667
186.117
191.943
136.187
298.238
133.892
298.7
53.048
119.054
19.7692
23.2643
50.1796
125.557
19.7796
53.3749
120.625
19.7124
23.3751
51.3129
125.781
19.8871
128.085
298.344
298.352
137.013
126.097
298.435
298.053
136.848
48.0523
24.303
125.787
20.0564
121.067
19.8084
53.8121
48.0944
24.4338
125.648
20.0135
120.562
19.9117
53.7491
191.71
192.944
27.4413
193.009
194.521
407.662
406.536
404.873
405.806
26.1082
193.177
194.347
190.685
192.931
405.732
408.132
55.8703
128.411
20.0979
23.6006
52.651
129.713
20.2291
140.472
300.675
134.613
300.753
56.2521
20.0925
125.977
24.7002
53.4434
20.2309
128.668
133.443
300.816
300.245
142.968
53.4933
24.7528
129.238
20.418
125.974
20.3265
56.379
131.019
300.5
299.754
141.948
53.9802
24.1752
20.409
128.788
20.3078
125.138
56.4124
140.288
300.185
136.949
300.85
55.6677
19.9702
123.093
24.6796
52.1038
20.2979
129.817
140.508
300.601
135.649
300.706
50.8617
24.4044
125.746
20.2782
127.228
20.0088
55.437
134.195
300.456
300.821
140.163
53.282
24.7096
20.4921
128.751
20.23
123.261
56.1175
137.129
300.277
299.877
140.334
193.302
190.653
27.2836
194.95
192.189
406.174
405.166
406.886
406.919
26.6008
194.833
192.609
193.019
190.556
404.294
406.667
53.2226
19.738
117.465
24.2215
48.4634
19.7379
126.844
135.522
298.465
132.045
298.826
135.575
298.586
130.255
298.745
50.1574
23.4601
19.969
126.395
19.7378
120.396
53.3126
48.2803
23.8142
20.0071
125.791
19.7659
122.768
53.5598
127.658
298.924
298.615
135.412
131.308
298.273
298.422
136.668
407.41
406.599
406.3
405.29
26.5285
194.722
193.996
193.853
188.097
405.854
408.148
404.684
406.13
405.221
404.25
407.033
405.796
190.045
190.912
27.9259
192.46
194.413
403.673
405.665
405.37
406.344
27.3009
192.408
194.526
185.93
190.992
136.045
297.733
128.522
298.331
53.3272
120.726
19.9908
24.634
51.6318
125.462
20.0794
53.5659
120.252
19.7943
24.4451
52.4231
125.799
20.1231
131.721
298.063
297.544
133.113
131.931
297.975
297.845
135.945
49.9768
24.0242
126.007
20.1955
121.719
20.1001
53.4796
51.1232
24.11
125.57
20.2193
120.319
20.1266
53.4574
190.969
190.849
27.507
192.952
194.902
406.707
405.662
403.997
405.864
26.9481
192.753
194.157
190.397
190.593
405.035
406.641
56.9743
124.784
20.296
24.6736
51.3062
129.957
20.43
140.721
300.018
138.785
300.221
56.6552
20.2966
122.971
24.3766
54.6329
20.4325
128.504
139.59
299.977
300.107
141.425
54.8963
24.843
129.756
20.6216
126.472
20.5231
56.559
138.098
299.843
299.327
140.658
51.6906
24.6857
20.634
128.502
20.5129
123.25
57.2194
141.612
300.344
136.624
300.268
56.1953
20.2211
122.655
24.8335
54.449
20.5485
129.171
140.461
299.802
137.654
300.068
51.787
24.0843
128.757
20.4184
121.932
20.2726
57.3131
135.705
300.057
299.392
141.031
54.5603
24.9605
20.6973
128.482
20.4137
122.388
56.2992
131.847
299.885
299.609
141.118
192.183
189.99
27.4364
194.448
192.12
405.055
404.247
405.176
406.27
26.6436
194.074
191.879
190.751
188.331
403.383
405.03
53.479
19.9771
120.204
24.6664
48.3725
19.8874
125.335
135.435
298.121
129.41
298.364
136.167
297.79
126.398
297.912
49.0561
23.648
20.1407
122.595
19.8804
124.349
54.4698
51.6476
24.0143
20.214
125.926
20.1199
119.574
53.4129
129.511
297.932
297.989
136.072
133.095
297.631
297.394
135.726
406.805
405.733
405.455
404.412
27.4632
194.981
191.683
191.527
191.075
405.3
406.751
403.533
406.112
404.083
403.658
406.047
405.312
186.666
191.027
27.79
192.901
194.568
403.336
404.333
404.883
405.973
26.228
192.26
194.667
190.737
192.039
136.005
297.318
131.571
297.519
53.2985
123.021
20.0497
23.6871
50.6416
125.905
20.0108
53.1197
119.723
20.0435
24.3043
50.7338
125.614
20.1841
133.04
297.641
297.279
134.424
126.617
297.663
296.746
136.676
48.9975
24.88
123.634
20.3503
121.799
20.181
53.4542
48.7918
24.1842
128.133
20.3615
118.306
20.2386
53.451
189.969
191.583
27.7325
192.201
194.747
405.962
405.19
403.296
404.209
26.831
192.158
193.732
188.446
190.954
404.495
405.985
57.1558
124.106
20.2645
24.543
51.4842
130.228
20.6895
140.444
299.129
137.853
299.528
57.1104
20.469
122.99
25.2743
51.568
20.6185
128.685
138.435
299.8
299.514
137.242
55.416
25.2562
129.412
20.8026
123.972
20.6671
56.909
133.203
299.42
298.857
140.802
55.0766
24.8517
20.7881
128.243
20.6701
122.96
56.6681
140.369
299.539
135.669
299.586
56.6657
20.5518
122.635
25.4412
50.975
20.4755
129.056
140.855
299.594
131.448
299.635
54.435
24.9792
128.418
20.6177
120.879
20.5734
54.8459
136.932
299.518
299.405
140.086
54.6149
24.947
20.8356
128.556
20.5006
122.681
56.5436
137.521
299.396
299.129
140.42
189.445
188.038
27.7479
194.212
192.074
404.253
403.382
404.91
405.618
26.061
193.905
191.705
190.754
187.823
403.056
404.517
53.8309
20.0684
119.955
24.6982
52.3064
20.0217
126.041
136.311
297.411
131.212
297.632
135.784
297.055
133.582
297.401
50.6507
24.4449
20.1855
123.184
20.1039
118.395
53.6196
50.658
24.7642
20.3437
125.44
20.065
119.477
53.5866
128.59
297.475
296.988
136.442
128.179
297.321
297.19
136.998
407.149
404.875
404.459
403.75
27.6862
194.637
190.985
192.171
188.889
404.342
406.093
402.808
404.799
404.82
405.668
190.127
190.485
139.384
296.678
133.96
298.434
56.6466
121.816
20.2219
24.5755
51.8898
128.382
20.239
56.5288
125.006
20.1819
25.4947
50.5667
128.374
20.4213
188.793
189.98
27.9679
193.904
194.031
405.433
404.489
123.416
20.3325
54.1385
298.887
133.192
20.6185
122.133
51.8951
140.513
299.11
137.458
299.341
57.0143
20.5548
123.238
25.4135
51.4695
20.5449
128.496
140.47
298.854
138.104
299.279
52.9093
19.9776
137.113
51.2532
24.5404
20.3149
123.344
132.425
299.157
191.21
187.954
403.895
56.1644
20.265
119.791
24.4958
50.685
20.1757
127.653
139.908
297.064
132.644
139.169
296.893
133.03
298.479
405.347
404.747
403.853
404.018
27.5965
193.493
190.374
405.485
405.544
25.6042
219.971
311.675
25.5535
219.636
311.36
310.111
310.594
25.5837
219.952
311.014
25.5163
219.776
25.5945
219.217
25.5497
219.948
311.556
25.6166
220.202
25.5509
220.29
310.915
310.917
22.1784
22.177
22.1815
22.2073
22.2073
22.1884
22.18
22.19
22.1823
22.1798
22.1898
22.181
24.199
22.4493
22.5237
22.5065
22.2475
22.4042
24.7299
22.8368
22.6145
22.3277
22.2203
22.3367
22.4491
24.4579
22.5243
22.2458
22.5066
22.4031
22.3298
22.2216
22.3366
24.1686
22.7949
22.624
9465.76
9466.63
58.9956
22.7091
22.7043
25.8312
6229.72
23.1594
30.8459
6230.57
22.996
31.0095
502.352
86.5728
390.973
144.843
387.732
141.353
484.596
647.944
439.521
506.899
1267.98
322.032
506.14
79.4091
351.551
147.748
636.319
357.216
132.522
669.951
291.839
476.308
305.745
650.606
521.664
554.697
502.436
86.4081
144.933
391.036
141.413
387.789
484.634
648.046
438.962
506.711
1266.18
321.906
506.23
79.4871
147.55
351.668
636.062
132.748
357.368
670.331
291.906
476.291
305.791
650.833
521.883
554.686
223.457
482.097
481.389
461.793
461.341
227.908
73.4399
38.6899
330.452
196.731
68.5682
40.8467
333.083
73.8214
38.7739
330.91
196.958
69.1064
40.9002
333.76
212.824
384.752
385.081
210.689
442.66
442.582
84.2399
347.423
202.548
47.1244
44.9401
342.362
89.2447
83.5314
348.595
202.694
47.2564
44.7006
342.99
89.4127
358.75
124.608
327.512
162.215
331.671
163.306
354.265
458.554
247.51
331.528
466.994
241.618
363.836
122.056
342.262
162.464
372.826
335.661
162.834
454.851
230.031
325.537
234.99
450.464
434.538
430.666
362.035
129.561
165.718
331.031
167.291
334.963
357.545
460.642
250.802
333.803
468.888
244.906
366.957
127.608
165.09
344.687
375.271
168.44
338.997
457.428
233.578
327.846
238.574
452.838
436.022
432.475
243.606
428.532
428.392
430.399
430.38
243.3
124.513
65.2599
327.953
205.559
120.21
69.0029
324.463
124.003
64.1028
327.852
204.423
119.393
67.7592
324.498
242.703
435.736
435.593
241.684
431.927
431.843
127.395
320.076
204.961
74.227
70.5927
322.799
131.21
126.813
320.103
202.72
73.3787