/*--------------------------------*- C++ -*----------------------------------*\
| =========                 |                                                 |
| \\      /  F ield         | OpenFOAM: The Open Source CFD Toolbox           |
|  \\    /   O peration     | Version:  2206                                  |
|   \\  /    A nd           | Website:  www.openfoam.com                      |
|    \\/     M anipulation  |                                                 |
\*---------------------------------------------------------------------------*/
FoamFile
{
    version     2.0;
    format      ascii;
    arch        "LSB;label=32;scalar=64";
    class       volScalarField;
    location    "100";
    object      p;
}
// * * * * * * * * * * * * * * * * * * * * * * * * * * * * * * * * * * * * * //

dimensions      [0 2 -2 0 0 0 0];

internalField   nonuniform List<scalar> 
66616
(
-0.000284006
-0.000258624
-0.000258538
-0.000220825
-0.000784642
-0.000794722
-0.000794539
-0.000772154
-0.0011209
-0.0011237
-0.00112372
-0.00110629
-0.00140391
-0.00140498
-0.00140499
-0.00138837
-0.00167104
-0.00167177
-0.0016718
-0.00165572
-0.00192792
-0.00192852
-0.00192855
-0.001913
-0.00217611
-0.00217666
-0.00217668
-0.0021616
-0.00241644
-0.00241698
-0.00241707
-0.00240239
-0.00264829
-0.00264901
-0.0026491
-0.00263491
-0.00286979
-0.00287053
-0.00287065
-0.00285714
-0.00308205
-0.00308241
-0.00308265
-0.00306973
-0.00328879
-0.00328864
-0.00328929
-0.00327674
-0.00018203
-0.000193422
-0.000193448
-0.000182039
-0.000193442
-0.000193442
-0.000196517
-0.000196536
-0.000196523
-0.000196538
-0.000193464
-0.000193471
-0.000182028
-0.000193443
-0.000193465
-0.000182058
-0.000220852
-0.000716554
-0.000258993
-0.000259025
-0.000685266
-0.000685277
-0.00022087
-0.000716555
-0.000258611
-0.000259049
-0.000685701
-0.000685644
-0.000259068
-0.000685728
-0.000685666
-0.000220851
-0.000716561
-0.000258577
-0.00068538
-0.000685387
-0.000716573
-0.000772146
-0.00106817
-0.000794481
-0.000794488
-0.0010489
-0.00104892
-0.000772153
-0.00106818
-0.00079472
-0.000794692
-0.00104898
-0.00104894
-0.000794699
-0.00104897
-0.00104894
-0.000772154
-0.00106818
-0.000794575
-0.00104896
-0.00104897
-0.00106818
-0.00110628
-0.00135326
-0.0011237
-0.00112371
-0.00133637
-0.00133638
-0.00110628
-0.00135325
-0.00112372
-0.0011237
-0.00133639
-0.00133636
-0.0011237
-0.00133639
-0.00133638
-0.00110629
-0.00135325
-0.00112376
-0.00133641
-0.00133641
-0.00135326
-0.00138837
-0.00162209
-0.00140499
-0.00140499
-0.00160608
-0.0016061
-0.00138838
-0.00162209
-0.00140499
-0.00140497
-0.0016061
-0.00160608
-0.00140498
-0.0016061
-0.00160608
-0.00138835
-0.00162209
-0.00140503
-0.00160611
-0.00160611
-0.00162208
-0.00165572
-0.0018806
-0.0016718
-0.0016718
-0.0018652
-0.00186521
-0.00165571
-0.00188061
-0.00167178
-0.00167178
-0.00186523
-0.00186521
-0.00167177
-0.00186524
-0.00186522
-0.00165571
-0.00188061
-0.00167182
-0.00186523
-0.00186523
-0.00188062
-0.00191297
-0.00213029
-0.00192854
-0.00192854
-0.00211539
-0.00211542
-0.001913
-0.00213029
-0.00192853
-0.00192853
-0.00211545
-0.00211545
-0.00192853
-0.00211545
-0.00211544
-0.001913
-0.00213029
-0.00192857
-0.00211543
-0.00211544
-0.00213032
-0.00216159
-0.00237212
-0.00217667
-0.00217669
-0.00235774
-0.00235776
-0.00216159
-0.00237213
-0.00217667
-0.00217667
-0.00235775
-0.00235776
-0.00217666
-0.00235777
-0.00235777
-0.00216159
-0.00237215
-0.00217672
-0.00235778
-0.00235777
-0.00237215
-0.00240238
-0.00260586
-0.00241705
-0.00241707
-0.00259207
-0.00259209
-0.00240237
-0.00260588
-0.00241698
-0.002417
-0.00259214
-0.00259212
-0.00241699
-0.00259216
-0.00259217
-0.0024024
-0.00260582
-0.00241708
-0.0025921
-0.0025921
-0.00260592
-0.00263489
-0.00282958
-0.0026491
-0.00264907
-0.00281643
-0.00281648
-0.00263489
-0.00282963
-0.00264902
-0.002649
-0.00281656
-0.00281652
-0.00264901
-0.00281656
-0.00281657
-0.00263485
-0.00282959
-0.00264911
-0.00281646
-0.00281648
-0.00282958
-0.00285714
-0.00304321
-0.00287064
-0.00287068
-0.00303048
-0.00303046
-0.00285719
-0.00304321
-0.00287053
-0.00287051
-0.00303064
-0.00303072
-0.00287054
-0.00303067
-0.00303068
-0.00285715
-0.00304316
-0.00287068
-0.00303046
-0.00303045
-0.0030432
-0.0030698
-0.00325042
-0.00308267
-0.00308265
-0.00323804
-0.0032381
-0.00306974
-0.00325045
-0.00308244
-0.00308251
-0.00323837
-0.00323838
-0.00308242
-0.00323838
-0.00323843
-0.00306977
-0.00325044
-0.00308266
-0.00323814
-0.00323812
-0.0032505
-0.00327683
-0.00328925
-0.0032893
-0.00327673
-0.00328868
-0.00328862
-0.0032887
-0.00327682
-0.00328927
-0.000106478
-8.36247e-05
-9.47006e-05
-9.47713e-05
-3.82635e-05
-7.01465e-05
-6.29395e-05
-8.17621e-05
-3.80482e-05
-7.01318e-05
-8.17193e-05
-6.28509e-05
-5.48888e-05
-7.061e-05
-7.05221e-05
-0.00044447
-8.0336e-05
-0.000139768
-0.0004588
-0.000140673
-0.000453603
-0.000444634
-8.03343e-05
-0.000139737
-0.000458929
-0.000284032
-0.000284015
-0.000284034
-0.000675245
-0.000675253
-0.000675267
-0.000675278
-0.000440755
-0.000136283
-0.000265315
-0.000403741
-0.00018198
-0.000449368
-0.000406301
-0.000140671
-0.000453613
-0.000440712
-0.000265188
-0.000136148
-0.000403893
-0.00018207
-0.00040651
-0.000449318
-0.000182651
-0.000182512
-0.000439399
-0.00044721
-0.00044725
-0.000922441
-0.000801922
-0.000796826
-0.000924128
-0.000801706
-0.000925023
-0.000922873
-0.0008019
-0.000796918
-0.000924223
-0.000784706
-0.000784711
-0.00078472
-0.00104501
-0.001045
-0.00104502
-0.00104502
-0.000915953
-0.000792354
-0.0007903
-0.000887398
-0.00078542
-0.000918922
-0.000884027
-0.000801678
-0.000925084
-0.000915201
-0.000789677
-0.000792437
-0.000887202
-0.000785042
-0.000883475
-0.00091862
-0.00079466
-0.000794809
-0.00090995
-0.000921397
-0.000921295
-0.0012159
-0.00111062
-0.00111059
-0.00121604
-0.00111133
-0.00121658
-0.00121615
-0.0011103
-0.00111006
-0.00121609
-0.00112096
-0.00112097
-0.00112098
-0.00133512
-0.00133512
-0.00133512
-0.00133513
-0.00121414
-0.00110979
-0.00112265
-0.00119615
-0.00110939
-0.00121446
-0.0011954
-0.00111105
-0.00121658
-0.00121376
-0.0011225
-0.00111013
-0.00119617
-0.00110984
-0.0011953
-0.00121429
-0.0011095
-0.00110975
-0.00121373
-0.00121528
-0.00121523
-0.00148995
-0.00138979
-0.0013897
-0.00149027
-0.00139002
-0.00149046
-0.00149035
-0.00138961
-0.00138931
-0.00149044
-0.00140397
-0.00140396
-0.00140397
-0.00160529
-0.00160529
-0.00160529
-0.00160529
-0.00148884
-0.00138989
-0.00140461
-0.00147282
-0.0013898
-0.00148921
-0.00147247
-0.0013899
-0.0014906
-0.00148836
-0.00140456
-0.00139016
-0.00147281
-0.00139027
-0.00147243
-0.00148894
-0.00138909
-0.00138926
-0.00148912
-0.00148976
-0.00148961
-0.00175316
-0.00165691
-0.00165669
-0.00175359
-0.00165704
-0.00175372
-0.00175359
-0.00165676
-0.00165633
-0.00175379
-0.00167109
-0.00167109
-0.0016711
-0.00186457
-0.00186457
-0.00186456
-0.00186457
-0.00175215
-0.00165714
-0.00167153
-0.00173693
-0.00165691
-0.00175261
-0.00173669
-0.00165692
-0.00175385
-0.00175165
-0.00167148
-0.00165739
-0.00173693
-0.00165739
-0.00173663
-0.00175235
-0.00165635
-0.00165649
-0.00175253
-0.00175318
-0.00175302
-0.00200701
-0.00191409
-0.00191383
-0.00200744
-0.00191417
-0.00200749
-0.00200749
-0.00191397
-0.00191351
-0.00200764
-0.00192796
-0.00192797
-0.00192797
-0.00211482
-0.00211483
-0.00211484
-0.00211484
-0.00200607
-0.00191439
-0.00192834
-0.00199146
-0.00191413
-0.00200663
-0.00199125
-0.00191409
-0.00200769
-0.00200555
-0.00192831
-0.0019146
-0.00199144
-0.00191456
-0.0019912
-0.0020063
-0.00191361
-0.00191374
-0.0020065
-0.00200712
-0.00200695
-0.00225271
-0.00216266
-0.00216241
-0.00225308
-0.00216274
-0.00225319
-0.0022532
-0.00216252
-0.00216206
-0.00225334
-0.00217616
-0.00217617
-0.00217617
-0.00235714
-0.00235711
-0.00235712
-0.00235714
-0.00225186
-0.00216296
-0.0021765
-0.00223764
-0.00216271
-0.00225231
-0.00223745
-0.00216265
-0.00225336
-0.00225129
-0.0021765
-0.00216323
-0.00223761
-0.00216315
-0.00223743
-0.00225206
-0.00216228
-0.00216241
-0.0022522
-0.00225285
-0.00225271
-0.00249067
-0.00240349
-0.00240325
-0.00249105
-0.00240349
-0.00249101
-0.00249112
-0.00240334
-0.00240285
-0.00249122
-0.00241647
-0.00241647
-0.0024165
-0.00259129
-0.00259129
-0.0025913
-0.00259131
-0.00248986
-0.00240377
-0.00241686
-0.00247611
-0.00240349
-0.00249036
-0.00247594
-0.0024034
-0.00249121
-0.00248932
-0.00241688
-0.00240399
-0.00247609
-0.00240394
-0.00247587
-0.00249001
-0.0024031
-0.0024032
-0.00249014
-0.0024908
-0.00249067
-0.00271966
-0.002636
-0.00263591
-0.00271994
-0.00263608
-0.00271999
-0.00272011
-0.00263586
-0.00263553
-0.00272011
-0.00264831
-0.00264834
-0.00264836
-0.00281549
-0.00281549
-0.0028155
-0.00281551
-0.00271886
-0.00263628
-0.00264886
-0.00270578
-0.00263601
-0.00271934
-0.00270556
-0.00263594
-0.00272004
-0.00271826
-0.00264891
-0.00263652
-0.00270569
-0.00263651
-0.00270551
-0.00271904
-0.00263567
-0.0026358
-0.00271908
-0.00271982
-0.00271958
-0.00293766
-0.00285814
-0.00285785
-0.00293798
-0.0028581
-0.00293799
-0.00293803
-0.00285797
-0.00285753
-0.00293816
-0.00286984
-0.00286984
-0.00286984
-0.00302973
-0.00302974
-0.00302974
-0.00302975
-0.0029369
-0.00285836
-0.00287033
-0.00292475
-0.00285802
-0.00293752
-0.00292448
-0.00285803
-0.00293812
-0.00293638
-0.00287038
-0.00285859
-0.00292457
-0.00285854
-0.00292433
-0.00293714
-0.0028578
-0.00285797
-0.00293745
-0.00293792
-0.0029378
-0.00314737
-0.00307048
-0.0030703
-0.00314769
-0.00307057
-0.0031478
-0.00314785
-0.00307051
-0.00307008
-0.00314788
-0.00308211
-0.00308213
-0.00308214
-0.00323766
-0.00323772
-0.00323769
-0.00323772
-0.00314687
-0.00307087
-0.00308219
-0.00313517
-0.00307058
-0.00314735
-0.00313496
-0.00307056
-0.0031479
-0.00314627
-0.00308238
-0.00307107
-0.00313495
-0.00307103
-0.00313476
-0.00314701
-0.00307044
-0.00307051
-0.00314746
-0.00314785
-0.00314758
-0.00335247
-0.00327734
-0.00327711
-0.00335275
-0.0032773
-0.00335295
-0.00327733
-0.00327708
-0.00328886
-0.00328883
-0.00328884
-0.00335165
-0.00327772
-0.00328849
-0.00334091
-0.00327766
-0.00335229
-0.00334097
-0.00327749
-0.00335117
-0.00328907
-0.00327801
-0.00327781
-0.00334066
-0.0032772
-0.00327735
-0.00335253
-0.00335286
-0.0033528
-5.4968e-05
-7.00613e-05
-7.01126e-05
-6.26466e-05
-9.48705e-05
-6.29647e-05
-9.49092e-05
-8.48928e-05
-9.9189e-05
-9.91127e-05
-7.64326e-05
-7.64487e-05
-3.80657e-05
-7.00368e-05
-6.28762e-05
-8.17441e-05
-3.80603e-05
-7.00173e-05
-6.30079e-05
-8.17401e-05
-6.34384e-05
-4.18593e-05
-8.80586e-05
-0.000142355
-6.34326e-05
-4.19065e-05
-8.80862e-05
-0.000142363
-7.09313e-05
-9.56323e-05
-0.000117509
-0.000178823
-7.18578e-05
-0.000113602
-0.00015551
-7.0929e-05
-9.56275e-05
-0.000117561
-0.000178829
-7.19722e-05
-0.000113598
-0.00015551
-5.4939e-05
-7.05599e-05
-7.01152e-05
-6.27578e-05
-9.47526e-05
-8.48701e-05
-9.9521e-05
-9.93638e-05
-7.59919e-05
-7.64663e-05
-6.29942e-05
-9.49278e-05
-3.82471e-05
-7.01534e-05
-6.29319e-05
-8.17637e-05
-3.82458e-05
-7.00104e-05
-8.17611e-05
-6.30458e-05
-6.34328e-05
-4.26322e-05
-8.80778e-05
-0.000142448
-7.08752e-05
-9.58969e-05
-0.00011791
-0.000178768
-7.19242e-05
-0.000113586
-0.00015551
-6.34221e-05
-4.27175e-05
-8.8109e-05
-0.000142454
-7.08726e-05
-9.56195e-05
-0.000178786
-0.000118075
-0.000113582
-7.19273e-05
-0.000155513
-0.000106481
-8.36279e-05
-9.47056e-05
-9.47771e-05
-0.000106483
-8.36188e-05
-9.47765e-05
-9.46941e-05
-0.000106488
-8.36072e-05
-9.47794e-05
-9.46961e-05
-0.000139028
-0.000101982
-0.000212194
-0.000212056
-0.000120024
-0.000119962
-0.000226238
-0.000139021
-0.000101974
-0.000212197
-0.000212059
-0.00012002
-0.000119967
-0.000226245
-0.000139033
-0.000101965
-0.000212062
-0.000212181
-0.000119956
-0.000120024
-0.00022628
-0.000139028
-0.000101955
-0.000212068
-0.000212188
-0.000119963
-0.000120021
-0.000226283
-3.82624e-05
-7.00046e-05
-8.177e-05
-6.30622e-05
-7.08962e-05
-9.58829e-05
-0.000118017
-0.000178778
-7.19308e-05
-0.000113591
-0.00015554
-6.34541e-05
-4.26559e-05
-8.81096e-05
-0.000142474
-7.08938e-05
-9.56054e-05
-0.000178801
-0.00011817
-0.000113589
-7.19696e-05
-0.000155555
-6.3446e-05
-4.27639e-05
-8.81332e-05
-0.000142492
-5.49262e-05
-7.05912e-05
-7.00364e-05
-6.30713e-05
-9.4786e-05
-8.48577e-05
-9.96794e-05
-9.9203e-05
-7.59951e-05
-7.64089e-05
-6.26666e-05
-9.48516e-05
-3.80429e-05
-7.01148e-05
-8.17266e-05
-6.29679e-05
-7.09283e-05
-9.58729e-05
-0.000178821
-0.000117507
-0.000113603
-7.18445e-05
-0.000155484
-7.09263e-05
-9.58539e-05
-0.000178828
-0.000117555
-0.000113599
-7.19155e-05
-0.00015548
-6.343e-05
-4.18343e-05
-8.80522e-05
-0.000142361
-6.34251e-05
-4.18511e-05
-8.80598e-05
-0.000142354
-8.48251e-05
-9.99215e-05
-9.95347e-05
-7.60326e-05
-7.59431e-05
-6.31173e-05
-9.48196e-05
-6.27623e-05
-9.47193e-05
-0.000140612
-0.00045358
-0.000140639
-0.0004536
-0.000182415
-0.000182366
-0.00043939
-0.00044718
-0.000447168
-0.000752444
-0.00051313
-0.000752675
-0.000512959
-0.000517934
-0.000743881
-0.000744303
-0.000514758
-0.000514697
-0.000444472
-8.03582e-05
-0.00013977
-0.000458826
-0.000440722
-0.000136136
-0.000265299
-0.000403728
-0.000182093
-0.000449331
-0.000406547
-0.000440724
-0.000136158
-0.000265308
-0.000403739
-0.00018209
-0.000449352
-0.000406553
-0.000523275
-0.000753616
-0.000521968
-0.000746919
-0.00052327
-0.000753616
-0.000521982
-0.000746928
-0.000523193
-0.000552738
-0.000739018
-0.000680058
-0.000524691
-0.000550048
-0.00072926
-0.000523195
-0.00055274
-0.000739028
-0.000680072
-0.000524692
-0.00055005
-0.00072926
-0.000182545
-0.000182419
-0.000439397
-0.00044724
-0.000447168
-0.000140616
-0.000453622
-0.000752461
-0.00051315
-0.000517946
-0.000743931
-0.000744275
-0.000514792
-0.00051471
-0.000752665
-0.000512979
-0.000440736
-0.000136266
-0.000265311
-0.000403713
-0.000181959
-0.00044935
-0.000406287
-0.00044464
-8.03744e-05
-0.000139734
-0.000458951
-0.000440746
-0.000265345
-0.000136323
-0.000403585
-0.000181956
-0.000406266
-0.0004494
-0.000523021
-0.000753888
-0.000521771
-0.00074792
-0.000523094
-0.000552774
-0.000739976
-0.000681027
-0.00052459
-0.0005502
-0.000730493
-0.000523017
-0.000753894
-0.000521785
-0.000747933
-0.000523093
-0.000552704
-0.00068099
-0.000740014
-0.000550119
-0.000524591
-0.000730504
-0.000444659
-8.0334e-05
-0.000139743
-0.000458954
-0.000440769
-0.000265364
-0.00013633
-0.000403612
-0.000181992
-0.000406284
-0.000449422
-0.00044466
-8.03767e-05
-0.000139759
-0.00045898
-0.000523101
-0.000552816
-0.000739984
-0.000681039
-0.000524628
-0.000550226
-0.000730488
-0.000523021
-0.000753891
-0.000521795
-0.000747928
-0.000523102
-0.000552727
-0.000680992
-0.000740023
-0.000550128
-0.000524621
-0.000730505
-0.000523027
-0.000753895
-0.000521801
-0.000747931
-0.000182599
-0.000182371
-0.000439394
-0.000447209
-0.000447201
-0.000140618
-0.000453612
-0.00075267
-0.000512963
-0.000517934
-0.000744315
-0.000743896
-0.000514695
-0.000514805
-0.000752462
-0.000513168
-0.000440716
-0.00026521
-0.000136201
-0.000403907
-0.000182074
-0.000406519
-0.000449342
-0.00044449
-8.0341e-05
-0.000139768
-0.000458821
-0.000444493
-8.03753e-05
-0.000139766
-0.000458846
-0.000523225
-0.00055286
-0.000680126
-0.000739005
-0.000550107
-0.000524732
-0.000729262
-0.000523227
-0.00055285
-0.000680129
-0.000739019
-0.000550091
-0.000524739
-0.000729268
-0.000523292
-0.000753617
-0.000521994
-0.000746941
-0.000523289
-0.000753628
-0.000522019
-0.00074694
-0.000140636
-0.000453639
-0.000140682
-0.000453631
-0.000517931
-0.000744302
-0.000743941
-0.000514729
-0.00051485
-0.000752661
-0.00051299
-0.000752481
-0.00051319
-0.000801691
-0.000925052
-0.000801686
-0.000925081
-0.000794745
-0.000794667
-0.000909944
-0.000921306
-0.000921402
-0.00107435
-0.000964361
-0.00107428
-0.000964133
-0.000952339
-0.00107229
-0.00107231
-0.000961441
-0.000961262
-0.000922443
-0.000801914
-0.000796797
-0.000924114
-0.000915203
-0.000792415
-0.000789669
-0.000887145
-0.000785021
-0.000918648
-0.000883469
-0.000915202
-0.000792424
-0.000789689
-0.000887125
-0.000785017
-0.000918616
-0.000883467
-0.00096256
-0.0010735
-0.000963453
-0.0010732
-0.000962552
-0.00107349
-0.000963439
-0.0010732
-0.000958997
-0.000970646
-0.00107086
-0.00104715
-0.000960888
-0.000968048
-0.00106976
-0.000958991
-0.00097064
-0.00107087
-0.00104716
-0.000960889
-0.000968032
-0.00106976
-0.000794794
-0.000794628
-0.000909943
-0.000921214
-0.000921495
-0.000801678
-0.000925127
-0.00107435
-0.000964357
-0.000952344
-0.00107234
-0.00107227
-0.000961446
-0.000961265
-0.00107425
-0.000964159
-0.000915963
-0.00079234
-0.000790332
-0.000887378
-0.000785426
-0.000918906
-0.000884034
-0.000922881
-0.000801884
-0.000796891
-0.000924233
-0.000915967
-0.000790324
-0.000792349
-0.000887335
-0.000785426
-0.000884019
-0.000918928
-0.000962199
-0.00107347
-0.000963188
-0.00107341
-0.000958831
-0.000970795
-0.00107099
-0.00104741
-0.000960656
-0.000968469
-0.00107019
-0.00096219
-0.00107347
-0.000963176
-0.00107342
-0.000958828
-0.000970742
-0.00104742
-0.00107101
-0.000968447
-0.000960649
-0.0010702
-0.000922881
-0.000801893
-0.00079688
-0.000924255
-0.000915965
-0.000790315
-0.000792353
-0.000887335
-0.000785429
-0.000884018
-0.000918925
-0.000922884
-0.000801887
-0.000796878
-0.00092423
-0.00095882
-0.000970823
-0.00107098
-0.00104742
-0.000960651
-0.000968496
-0.00107018
-0.000962193
-0.00107346
-0.000963199
-0.00107342
-0.000958825
-0.000970746
-0.00104742
-0.00107101
-0.000968457
-0.000960658
-0.0010702
-0.000962194
-0.00107348
-0.000963184
-0.00107342
-0.000794663
-0.000794759
-0.000909943
-0.00092141
-0.000921301
-0.000801706
-0.000925054
-0.00107427
-0.000964129
-0.000952337
-0.00107233
-0.00107228
-0.000961263
-0.000961446
-0.00107433
-0.00096436
-0.000915202
-0.000789723
-0.000792435
-0.000887204
-0.000785047
-0.000883483
-0.000918635
-0.000922447
-0.000801921
-0.000796809
-0.000924127
-0.000922451
-0.000801925
-0.000796808
-0.000924123
-0.000959017
-0.000970731
-0.00104716
-0.00107084
-0.000968081
-0.000960899
-0.00106975
-0.000959018
-0.000970696
-0.00104715
-0.00107086
-0.000968047
-0.000960901
-0.00106976
-0.000962557
-0.00107348
-0.00096345
-0.00107321
-0.000962558
-0.00107349
-0.000963439
-0.00107321
-0.000801672
-0.000925071
-0.000801719
-0.00092505
-0.000952334
-0.00107234
-0.00107231
-0.000961269
-0.00096147
-0.00107427
-0.000964134
-0.00107434
-0.00096436
-0.00111131
-0.00121658
-0.00111105
-0.00121657
-0.00110972
-0.00110949
-0.00121373
-0.00121522
-0.00121528
-0.00135498
-0.00125239
-0.00135506
-0.00125219
-0.00124987
-0.00135392
-0.00135404
-0.00125131
-0.00125114
-0.0012159
-0.00111061
-0.00111055
-0.00121604
-0.00121376
-0.00111011
-0.00112253
-0.00119614
-0.00110983
-0.00121432
-0.00119531
-0.00121376
-0.00111011
-0.00112255
-0.00119613
-0.00110983
-0.00121431
-0.00119531
-0.00125201
-0.00135466
-0.00125197
-0.00135443
-0.001252
-0.00135464
-0.00125196
-0.00135444
-0.00125223
-0.00126681
-0.00135321
-0.00133589
-0.00125209
-0.0012662
-0.00135272
-0.00125223
-0.0012668
-0.00135322
-0.0013359
-0.00125208
-0.00126619
-0.00135271
-0.00110975
-0.00110946
-0.00121372
-0.00121523
-0.00121526
-0.00111104
-0.00121658
-0.00135497
-0.00125239
-0.00124987
-0.00135394
-0.00135399
-0.00125132
-0.00125112
-0.00135504
-0.0012522
-0.00121415
-0.00110979
-0.00112268
-0.00119616
-0.0011094
-0.00121448
-0.00119541
-0.00121615
-0.00111029
-0.00111004
-0.0012161
-0.00121416
-0.0011227
-0.00110978
-0.00119613
-0.0011094
-0.00119542
-0.00121449
-0.00125154
-0.00135478
-0.00125172
-0.00135478
-0.00125176
-0.00126682
-0.00135342
-0.00133594
-0.00125181
-0.00126626
-0.00135316
-0.00125154
-0.00135478
-0.00125171
-0.00135478
-0.00125176
-0.00126678
-0.00133596
-0.00135344
-0.00126627
-0.0012518
-0.00135317
-0.00121615
-0.00111029
-0.00111003
-0.0012161
-0.00121416
-0.0011227
-0.00110979
-0.00119612
-0.00110939
-0.00119542
-0.00121449
-0.00121615
-0.0011103
-0.00111003
-0.0012161
-0.00125176
-0.00126684
-0.00135341
-0.00133595
-0.00125181
-0.00126627
-0.00135313
-0.00125153
-0.00135476
-0.00125172
-0.00135477
-0.00125177
-0.00126677
-0.00133596
-0.00135343
-0.00126626
-0.00125181
-0.00135316
-0.00125154
-0.00135477
-0.00125172
-0.00135477
-0.0011095
-0.00110971
-0.00121373
-0.00121529
-0.00121521
-0.0011113
-0.00121659
-0.00135506
-0.00125219
-0.00124987
-0.00135405
-0.00135392
-0.00125114
-0.00125131
-0.00135498
-0.00125241
-0.00121375
-0.00112253
-0.00111012
-0.00119617
-0.00110984
-0.0011953
-0.00121431
-0.00121591
-0.0011106
-0.00111055
-0.00121605
-0.00121591
-0.00111062
-0.00111055
-0.00121606
-0.00125225
-0.00126686
-0.00133589
-0.0013532
-0.0012662
-0.00125211
-0.00135273
-0.00125224
-0.00126683
-0.00133588
-0.00135322
-0.00126617
-0.00125211
-0.00135273
-0.00125201
-0.00135465
-0.00125197
-0.00135446
-0.00125201
-0.00135466
-0.00125198
-0.00135447
-0.00111105
-0.00121659
-0.0011113
-0.0012166
-0.00124987
-0.00135405
-0.00135394
-0.00125114
-0.00125135
-0.00135505
-0.00125222
-0.001355
-0.00125242
-0.00139003
-0.00149049
-0.0013899
-0.0014906
-0.00138921
-0.00138909
-0.00148913
-0.00148961
-0.00148976
-0.00162335
-0.0015248
-0.00162348
-0.0015247
-0.00152341
-0.00162257
-0.00162272
-0.00152414
-0.00152403
-0.00148995
-0.00138977
-0.00138966
-0.00149026
-0.00148837
-0.00139012
-0.0014046
-0.00147279
-0.00139025
-0.00148894
-0.00147245
-0.00148837
-0.00139014
-0.00140462
-0.00147276
-0.00139023
-0.00148891
-0.00147245
-0.0015245
-0.00162318
-0.00152465
-0.00162282
-0.00152449
-0.00162318
-0.00152464
-0.00162282
-0.00152514
-0.00153971
-0.00162191
-0.00160579
-0.00152505
-0.00153939
-0.00162129
-0.00152515
-0.00153969
-0.0016219
-0.0016058
-0.00152506
-0.00153938
-0.00162128
-0.00138925
-0.00138904
-0.00148911
-0.00148952
-0.00148986
-0.00138987
-0.00149065
-0.00162338
-0.00152482
-0.00152339
-0.00162262
-0.00162265
-0.00152415
-0.00152403
-0.00162344
-0.00152473
-0.00148884
-0.0013899
-0.00140463
-0.00147281
-0.00138981
-0.00148919
-0.00147248
-0.00149036
-0.0013896
-0.00138927
-0.00149044
-0.00148885
-0.00140466
-0.00138989
-0.00147279
-0.00138982
-0.0014725
-0.00148921
-0.00152414
-0.00162335
-0.0015245
-0.00162324
-0.00152472
-0.00153973
-0.00162217
-0.00160581
-0.00152484
-0.00153942
-0.00162176
-0.00152414
-0.00162335
-0.00152448
-0.00162325
-0.00152473
-0.00153969
-0.00160584
-0.00162217
-0.00153943
-0.00152482
-0.00162177
-0.00149035
-0.00138958
-0.00138926
-0.00149046
-0.00148884
-0.00140466
-0.0013899
-0.00147278
-0.0013898
-0.0014725
-0.00148921
-0.00149036
-0.00138958
-0.00138926
-0.00149044
-0.00152472
-0.00153973
-0.00162214
-0.00160582
-0.00152482
-0.00153944
-0.00162174
-0.00152413
-0.00162334
-0.0015245
-0.00162323
-0.00152472
-0.00153967
-0.00160584
-0.00162218
-0.00153943
-0.00152482
-0.00162177
-0.00152413
-0.00162336
-0.00152449
-0.00162323
-0.0013891
-0.00138923
-0.00148913
-0.00148977
-0.00148962
-0.00139003
-0.00149051
-0.00162347
-0.00152471
-0.00152339
-0.00162273
-0.00162257
-0.00152403
-0.00152415
-0.00162337
-0.00152484
-0.00148837
-0.00140459
-0.00139016
-0.00147281
-0.00139026
-0.00147243
-0.00148894
-0.00148997
-0.00138977
-0.00138968
-0.00149029
-0.00148997
-0.00138979
-0.00138968
-0.00149027
-0.00152515
-0.00153975
-0.00160577
-0.0016219
-0.0015394
-0.00152508
-0.00162128
-0.00152515
-0.00153972
-0.00160577
-0.0016219
-0.00153937
-0.00152506
-0.00162128
-0.00152451
-0.00162319
-0.00152466
-0.00162283
-0.0015245
-0.00162317
-0.00152465
-0.00162283
-0.00138987
-0.00149059
-0.00139003
-0.00149051
-0.00152337
-0.00162273
-0.00162257
-0.00152403
-0.00152417
-0.00162348
-0.00152472
-0.00162334
-0.00152483
-0.00165703
-0.00175374
-0.00165694
-0.00175388
-0.00165646
-0.00165636
-0.00175256
-0.00175304
-0.00175321
-0.00188173
-0.00178677
-0.00188187
-0.00178668
-0.0017855
-0.00188108
-0.00188126
-0.00178625
-0.00178615
-0.00175318
-0.0016569
-0.00165665
-0.00175358
-0.00175166
-0.00165737
-0.00167154
-0.00173693
-0.00165738
-0.00175238
-0.00173667
-0.00175165
-0.00165736
-0.00167154
-0.00173692
-0.00165737
-0.00175236
-0.00173667
-0.0017864
-0.0018816
-0.00178666
-0.0018812
-0.0017864
-0.00188159
-0.00178665
-0.0018812
-0.00178712
-0.00180128
-0.00188042
-0.00186499
-0.00178712
-0.00180103
-0.0018797
-0.00178711
-0.00180126
-0.00188042
-0.00186499
-0.00178709
-0.00180102
-0.0018797
-0.00165649
-0.00165631
-0.00175255
-0.00175303
-0.00175315
-0.00165691
-0.00175383
-0.00188172
-0.00178676
-0.00178549
-0.00188109
-0.00188121
-0.00178625
-0.00178611
-0.00188185
-0.00178665
-0.00175217
-0.00165715
-0.00167155
-0.00173694
-0.00165693
-0.00175266
-0.00173671
-0.0017536
-0.00165674
-0.00165631
-0.00175376
-0.00175218
-0.00167159
-0.00165713
-0.00173692
-0.00165693
-0.00173673
-0.00175264
-0.00178606
-0.00188181
-0.00178653
-0.00188166
-0.0017867
-0.00180128
-0.00188071
-0.00186503
-0.00178691
-0.00180107
-0.00188023
-0.00178606
-0.00188179
-0.00178649
-0.00188166
-0.0017867
-0.00180124
-0.00186505
-0.00188071
-0.00180108
-0.00178688
-0.00188024
-0.0017536
-0.00165674
-0.00165628
-0.00175375
-0.00175216
-0.00167158
-0.00165713
-0.0017369
-0.00165692
-0.00173672
-0.00175264
-0.00175359
-0.00165675
-0.00165629
-0.00175377
-0.00178669
-0.00180129
-0.00188069
-0.00186503
-0.0017869
-0.00180107
-0.00188023
-0.00178606
-0.0018818
-0.0017865
-0.00188163
-0.00178669
-0.00180123
-0.00186504
-0.0018807
-0.00180107
-0.00178688
-0.00188024
-0.00178605
-0.00188178
-0.0017865
-0.00188165
-0.00165635
-0.00165647
-0.00175255
-0.00175319
-0.00175302
-0.00165704
-0.00175372
-0.00188186
-0.00178665
-0.00178549
-0.00188125
-0.00188106
-0.00178612
-0.00178623
-0.00188171
-0.00178675
-0.00175165
-0.00167152
-0.00165739
-0.00173692
-0.00165738
-0.00173664
-0.00175236
-0.00175316
-0.00165691
-0.00165666
-0.00175359
-0.00175315
-0.00165689
-0.00165666
-0.00175358
-0.00178712
-0.0018013
-0.00186497
-0.0018804
-0.00180102
-0.00178713
-0.00187968
-0.00178712
-0.00180127
-0.00186497
-0.0018804
-0.001801
-0.00178711
-0.00187968
-0.00178638
-0.00188158
-0.00178666
-0.00188119
-0.00178638
-0.00188157
-0.00178664
-0.00188118
-0.00165692
-0.00175386
-0.00165701
-0.0017537
-0.00178547
-0.00188124
-0.00188107
-0.00178613
-0.00178626
-0.00188185
-0.00178666
-0.00188169
-0.00178674
-0.00191418
-0.00200754
-0.0019141
-0.00200768
-0.00191373
-0.00191363
-0.0020065
-0.00200695
-0.00200713
-0.00213134
-0.00203943
-0.00213146
-0.00203934
-0.00203827
-0.00213081
-0.00213095
-0.00203901
-0.00203891
-0.00200702
-0.00191408
-0.0019138
-0.00200741
-0.00200554
-0.00191458
-0.00192835
-0.00199142
-0.00191455
-0.00200629
-0.00199122
-0.00200554
-0.00191459
-0.00192836
-0.00199138
-0.00191455
-0.00200628
-0.00199122
-0.0020391
-0.00213125
-0.00203937
-0.00213085
-0.0020391
-0.00213123
-0.00203934
-0.00213084
-0.00203983
-0.00205356
-0.00213015
-0.00211523
-0.00203984
-0.00205337
-0.00212941
-0.00203983
-0.00205355
-0.00213014
-0.00211524
-0.00203988
-0.00205336
-0.00212939
-0.00191376
-0.0019136
-0.0020065
-0.00200685
-0.00200724
-0.00191408
-0.00200774
-0.00213135
-0.00203942
-0.00203827
-0.00213084
-0.0021309
-0.00203902
-0.00203894
-0.00213145
-0.00203937
-0.0020061
-0.00191439
-0.00192836
-0.00199146
-0.00191412
-0.0020066
-0.00199125
-0.00200751
-0.00191395
-0.00191348
-0.00200765
-0.00200611
-0.00192839
-0.00191437
-0.00199142
-0.00191412
-0.00199127
-0.00200661
-0.00203879
-0.00213142
-0.00203922
-0.00213131
-0.00203942
-0.00205357
-0.00213043
-0.00211526
-0.00203963
-0.00205338
-0.00212997
-0.00203879
-0.00213145
-0.00203922
-0.00213132
-0.00203943
-0.00205354
-0.00211529
-0.00213044
-0.0020534
-0.00203962
-0.00212998
-0.0020075
-0.00191396
-0.00191344
-0.00200767
-0.0020061
-0.00192839
-0.00191436
-0.00199141
-0.00191413
-0.00199126
-0.0020066
-0.00200749
-0.00191393
-0.00191346
-0.00200764
-0.0020394
-0.00205356
-0.00213042
-0.00211527
-0.00203966
-0.0020534
-0.00212994
-0.0020388
-0.00213143
-0.00203925
-0.00213134
-0.00203941
-0.00205352
-0.00211528
-0.00213044
-0.00205339
-0.00203963
-0.00212996
-0.00203879
-0.00213144
-0.00203922
-0.00213132
-0.00191362
-0.00191372
-0.00200652
-0.00200713
-0.00200695
-0.00191417
-0.00200753
-0.00213148
-0.00203935
-0.00203829
-0.00213096
-0.00213081
-0.00203892
-0.00203902
-0.00213135
-0.00203943
-0.00200557
-0.00192834
-0.00191459
-0.00199143
-0.00191454
-0.0019912
-0.0020063
-0.00200703
-0.00191408
-0.00191379
-0.00200743
-0.00200702
-0.00191407
-0.00191379
-0.00200742
-0.00203986
-0.0020536
-0.00211522
-0.00213015
-0.00205338
-0.00203988
-0.00212937
-0.00203987
-0.00205359
-0.00211522
-0.00213014
-0.00205336
-0.00203986
-0.00212939
-0.00203912
-0.00213126
-0.00203937
-0.00213089
-0.0020391
-0.00213128
-0.00203936
-0.00213087
-0.00191406
-0.00200768
-0.00191415
-0.00200752
-0.00203827
-0.00213098
-0.00213081
-0.00203891
-0.00203904
-0.00213148
-0.00203935
-0.00213136
-0.00203943
-0.00216273
-0.00225317
-0.00216263
-0.00225335
-0.00216237
-0.00216225
-0.0022522
-0.00225268
-0.00225288
-0.00237313
-0.00228406
-0.00237327
-0.00228399
-0.00228292
-0.00237263
-0.00237282
-0.0022837
-0.00228363
-0.00225275
-0.00216266
-0.00216238
-0.00225313
-0.00225129
-0.00216319
-0.00217652
-0.00223761
-0.00216314
-0.00225202
-0.00223744
-0.00225128
-0.00216316
-0.00217654
-0.0022376
-0.00216312
-0.00225206
-0.00223743
-0.00228379
-0.00237307
-0.002284
-0.00237274
-0.0022838
-0.00237303
-0.00228402
-0.00237273
-0.00228451
-0.0022978
-0.00237201
-0.00235758
-0.00228446
-0.00229762
-0.00237128
-0.0022845
-0.00229779
-0.002372
-0.00235758
-0.0022845
-0.0022976
-0.00237128
-0.00216238
-0.00216223
-0.00225223
-0.0022527
-0.00225282
-0.00216261
-0.00225331
-0.00237311
-0.00228407
-0.00228297
-0.00237267
-0.0023728
-0.00228373
-0.00228359
-0.00237326
-0.00228397
-0.00225183
-0.00216296
-0.00217652
-0.00223763
-0.00216269
-0.00225236
-0.00223746
-0.0022532
-0.00216254
-0.00216206
-0.00225333
-0.00225185
-0.00217657
-0.00216295
-0.00223762
-0.00216269
-0.00223749
-0.00225236
-0.00228346
-0.00237326
-0.0022839
-0.00237315
-0.00228404
-0.00229775
-0.0023723
-0.00235761
-0.00228428
-0.00229762
-0.00237186
-0.00228343
-0.00237325
-0.00228389
-0.00237316
-0.00228407
-0.00229773
-0.00235761
-0.00237233
-0.00229762
-0.00228428
-0.00237186
-0.00225318
-0.00216251
-0.00216205
-0.00225331
-0.00225186
-0.00217656
-0.00216296
-0.00223763
-0.00216269
-0.00223748