/*--------------------------------*- C++ -*----------------------------------*\
| =========                 |                                                 |
| \\      /  F ield         | OpenFOAM: The Open Source CFD Toolbox           |
|  \\    /   O peration     | Version:  2206                                  |
|   \\  /    A nd           | Website:  www.openfoam.com                      |
|    \\/     M anipulation  |                                                 |
\*---------------------------------------------------------------------------*/
FoamFile
{
    version     2.0;
    format      ascii;
    arch        "LSB;label=32;scalar=64";
    class       volScalarField;
    location    "0.3";
    object      Co;
}
// * * * * * * * * * * * * * * * * * * * * * * * * * * * * * * * * * * * * * //

dimensions      [0 0 0 0 0 0 0];

internalField   nonuniform List<scalar> 
184150
(
0.147395
0.147419
0.146237
0.147794
0.146273
0.147517
0.147438
0.147904
0.14701
0.147471
0.147944
0.146007
0.147814
0.147896
0.147612
0.147727
0.147733
0.147466
0.14755
0.146711
0.148138
0.145857
0.148005
0.147377
0.147966
0.147067
0.146213
0.147655
0.147714
0.147726
0.147434
0.147685
0.147463
0.146286
0.148673
0.147621
0.147552
0.147772
0.14724
0.147588
0.147495
0.147331
0.147686
0.147787
0.147275
0.147485
0.146144
0.146222
0.14768
0.147608
0.146459
0.147267
0.147603
0.147708
0.146498
0.147704
0.147166
0.14675
0.147422
0.147215
0.146341
0.148424
0.147591
0.147754
0.147721
0.14763
0.147445
0.146794
0.147275
0.147536
0.147483
0.146842
0.148212
0.14768
0.147713
0.147612
0.146006
0.14805
0.147563
0.146458
0.147659
0.147211
0.146511
0.147664
0.146484
0.147528
0.147684
0.14768
0.147735
0.147086
0.146833
0.146805
0.147699
0.148418
0.147217
0.146276
0.147842
0.147346
0.147351
0.147579
0.14753
0.146097
0.147675
0.146351
0.146446
0.147921
0.147857
0.148301
0.147517
0.147609
0.147765
0.147536
0.147642
0.147392
0.147687
0.147408
0.14739
0.148058
0.147158
0.147298
0.147655
0.147588
0.147687
0.147605
0.14641
0.147356
0.147305
0.147583
0.146103
0.14775
0.147779
0.147695
0.147814
0.147605
0.148218
0.147495
0.14747
0.147904
0.147394
0.147982
0.147265
0.147807
0.147591
0.148022
0.147546
0.147587
0.147656
0.147916
0.147921
0.147944
0.147464
0.147418
0.147561
0.147833
0.147529
0.147676
0.147648
0.147813
0.147387
0.147318
0.147881
0.14747
0.147643
0.147622
0.147752
0.147921
0.147652
0.147289
0.147539
0.147887
0.147906
0.147283
0.147008
0.147528
0.14719
0.147476
0.147263
0.147749
0.147704
0.148094
0.145951
0.147937
0.146976
0.147279
0.148328
0.147664
0.148493
0.147877
0.148068
0.147734
0.147598
0.147575
0.147512
0.147355
0.147891
0.147685
0.147761
0.147733
0.148279
0.148261
0.147761
0.147342
0.147591
0.147653
0.147827
0.147856
0.147594
0.147702
0.147637
0.147679
0.146413
0.147416
0.148075
0.147529
0.147657
0.14774
0.147452
0.147602
0.147601
0.147767
0.147131
0.146915
0.147696
0.147812
0.147145
0.147636
0.147218
0.147643
0.147552
0.146006
0.147472
0.146342
0.146674
0.147162
0.147622
0.147724
0.148135
0.146575
0.147496
0.146471
0.147452
0.147163
0.147727
0.147706
0.147583
0.147869
0.14746
0.147488
0.147806
0.147574
0.146062
0.147508
0.146582
0.147985
0.148033
0.146366
0.148005
0.147818
0.1476
0.147562
0.147643
0.147357
0.147602
0.146688
0.146502
0.147467
0.147407
0.147721
0.147651
0.148091
0.14739
0.147704
0.14719
0.147775
0.146499
0.14732
0.147697
0.14746
0.147745
0.14775
0.146373
0.146744
0.146494
0.147927
0.147492
0.146337
0.147472
0.147887
0.147346
0.147606
0.147259
0.147827
0.147387
0.147437
0.147618
0.147745
0.147499
0.147528
0.147219
0.147261
0.147397
0.146222
0.148096
0.146593
0.14652
0.14732
0.147529
0.146268
0.147612
0.147687
0.14727
0.146234
0.147786
0.147472
0.147373
0.147923
0.147752
0.147749
0.147377
0.147517
0.147701
0.14753
0.147645
0.147789
0.148068
0.146299
0.147961
0.147665
0.14828
0.147449
0.146798
0.146256
0.1479
0.147454
0.147696
0.147387
0.147372
0.146347
0.147869
0.147617
0.147215
0.147459
0.147457
0.147372
0.147215
0.147476
0.14759
0.14794
0.147536
0.148007
0.147267
0.14788
0.147292
0.146632
0.147372
0.147912
0.148342
0.147695
0.14811
0.147907
0.145857
0.148081
0.147649
0.147572
0.147792
0.148265
0.14757
0.147706
0.147433
0.148252
0.147523
0.147572
0.147727
0.147237
0.147342
0.146248
0.147763
0.146605
0.148214
0.146506
0.147569
0.14739
0.147446
0.148122
0.148298
0.147481
0.147913
0.145953
0.147549
0.147527
0.147536
0.147091
0.147491
0.147645
0.148308
0.147486
0.14776
0.147527
0.14731
0.147896
0.146137
0.14743
0.147382
0.147455
0.148172
0.147575
0.147586
0.147724
0.147487
0.147856
0.14754
0.147651
0.147642
0.147642
0.146327
0.147739
0.148192
0.147738
0.147533
0.147926
0.147608
0.147681
0.147802
0.147724
0.147778
0.147448
0.147943
0.147457
0.146767
0.147234
0.14589
0.146737
0.146929
0.147466
0.148233
0.147146
0.146731
0.14749
0.147124
0.147666
0.146563
0.147384
0.146339
0.146344
0.14666
0.148304
0.147867
0.146154
0.147648
0.147678
0.147292
0.147702
0.146959
0.148598
0.146576
0.148136
0.147432
0.147455
0.146932
0.14652
0.145938
0.147649
0.146349
0.147886
0.146418
0.146904
0.147582
0.147954
0.145988
0.1464
0.145916
0.147385
0.147745
0.147463
0.146842
0.147779
0.147672
0.147714
0.14605
0.147262
0.147595
0.146759
0.147637
0.147416
0.146286
0.147514
0.148065
0.147736
0.147676
0.146229
0.146406
0.147464
0.14701
0.147583
0.147386
0.14619
0.147397
0.147493
0.147481
0.147355
0.146606
0.147444
0.147298
0.148417
0.145983
0.1475
0.146778
0.146248
0.147478
0.147748
0.147214
0.146649
0.14761
0.147694
0.14761
0.147847
0.147238
0.1475
0.146017
0.147056
0.146299
0.146874
0.146538
0.146438
0.147238
0.146982
0.147264
0.147428
0.147534
0.146173
0.147681
0.147446
0.146124
0.146284
0.14696
0.146136
0.147931
0.147887
0.14822
0.148232
0.14778
0.148204
0.147795
0.148243
0.14774
0.147732
0.147816
0.147621
0.147919
0.147949
0.148142
0.148053
0.147866
0.148134
0.148134
0.148231
0.147916
0.147915
0.147968
0.147624
0.147288
0.147214
0.147214
0.147389
0.147735
0.14785
0.148138
0.14771
0.147649
0.147984
0.148225
0.148163
0.14776
0.147716
0.147962
0.147899
0.147756
0.14855
0.147773
0.147577
0.147517
0.147469
0.14747
0.147527
0.147918
0.147724
0.147743
0.147455
0.147736
0.147703
0.148011
0.147827
0.147936
0.147815
0.147684
0.147691
0.147998
0.147902
0.147903
0.148088
0.14812
0.14834
0.1476
0.147991
0.147991
0.148236
0.147926
0.147669
0.147708
0.147583
0.147583
0.147679
0.147894
0.147722
0.147863
0.147653
0.147918
0.147939
0.147975
0.148193
0.147801
0.147733
0.147632
0.147963
0.147614
0.147731
0.147378
0.147918
0.147542
0.147647
0.147899
0.147914
0.147847
0.148151
0.147559
0.147628
0.147628
0.148068
0.14771
0.147874
0.148071
0.147938
0.147733
0.147776
0.148
0.147639
0.147582
0.147841
0.147495
0.147509
0.147328
0.147246
0.147639
0.147809
0.147978
0.14824
0.147902
0.147894
0.147716
0.148123
0.147886
0.147894
0.147889
0.14794
0.147582
0.147648
0.147763
0.148236
0.148694
0.148894
0.147798
0.14793
0.147717
0.147587
0.147995
0.147723
0.147622
0.147553
0.147686
0.147533
0.147428
0.147995
0.147673
0.148237
0.148202
0.147917
0.147989
0.148026
0.148155
0.147751
0.14799
0.147761
0.147719
0.147661
0.147515
0.147532
0.147638
0.148083
0.147876
0.148694
0.148062
0.148025
0.14823
0.148419
0.14792
0.147876
0.14779
0.147919
0.147938
0.147774
0.148149
0.147679
0.147802
0.147402
0.147756
0.147629
0.147478
0.147331
0.147461
0.147797
0.147642
0.147796
0.147242
0.147521
0.147521
0.147581
0.147743
0.147796
0.147852
0.148053
0.148017
0.148075
0.147887
0.147742
0.148048
0.147595
0.148136
0.148382
0.14826
0.148125
0.148142
0.148392
0.147658
0.14766
0.147366
0.147533
0.147534
0.147897
0.147898
0.147552
0.147718
0.14796
0.14796
0.148025
0.147798
0.147653
0.147695
0.147734
0.147734
0.147365
0.148184
0.147869
0.147788
0.147851
0.147922
0.147679
0.147875
0.147701
0.147832
0.147742
0.147929
0.147711
0.147595
0.147554
0.147833
0.147736
0.147884
0.14755
0.147297
0.147233
0.147526
0.147489
0.147452
0.14733
0.14733
0.147077
0.147455
0.147841
0.147841
0.147766
0.147766
0.147713
0.147935
0.147915
0.147788
0.147647
0.147647
0.14777
0.147695
0.147536
0.147589
0.147992
0.148407
0.148204
0.147689
0.147881
0.147901
0.147974
0.147898
0.147572
0.147414
0.147575
0.147575
0.147709
0.147868
0.147812
0.147899
0.147892
0.148134
0.147753
0.147639
0.148037
0.148185
0.148057
0.147674
0.147763
0.148021
0.147365
0.147381
0.147347
0.14795
0.147838
0.148537
0.148612
0.147939
0.148266
0.148347
0.148436
0.148168
0.148193
0.147869
0.14826
0.147927
0.147445
0.147349
0.147745
0.147745
0.147274
0.147146
0.147574
0.147574
0.147438
0.147803
0.147751
0.148313
0.147826
0.14771
0.147529
0.147529
0.14759
0.14787
0.147621
0.147824
0.147705
0.147692
0.147659
0.147649
0.147768
0.147864
0.147656
0.14791
0.147884
0.148123
0.148097
0.147879
0.148106
0.148137
0.147937
0.147573
0.147566
0.147665
0.14784
0.14784
0.148343
0.147763
0.147924
0.147933
0.147954
0.147954
0.147704
0.147928
0.147674
0.147671
0.147551
0.147514
0.147822
0.147815
0.14791
0.14791
0.147967
0.147935
0.147821
0.148006
0.148046
0.14769
0.147613
0.14763
0.147695
0.147608
0.147567
0.147455
0.1473
0.1473
0.147201
0.147201
0.147399
0.147649
0.147736
0.147368
0.147197
0.147602
0.147976
0.148468
0.148285
0.147837
0.147821
0.147892
0.147806
0.147647
0.147492
0.147878
0.147751
0.1478
0.147832
0.147516
0.147772
0.147772
0.147806
0.147691
0.14775
0.147785
0.147663
0.147729
0.147622
0.147535
0.147459
0.147558
0.147528
0.147657
0.147729
0.147523
0.147759
0.147759
0.147985
0.147651
0.147792
0.147828
0.147783
0.147995
0.1478
0.148085
0.148309
0.14716
0.147537
0.147631
0.147983
0.148715
0.148325
0.148025
0.148171
0.148299
0.147673
0.147892
0.147762
0.148186
0.148018
0.14758
0.14733
0.147585
0.147719
0.14806
0.147884
0.147243
0.147596
0.147596
0.14794
0.147652
0.147419
0.147419
0.147453
0.147453
0.147513
0.147831
0.147821
0.147821
0.147799
0.147746
0.147642
0.14762
0.147905
0.14768
0.147809
0.147638
0.147379
0.147546
0.147919
0.148015
0.147501
0.148293
0.147873
0.147873
0.147863
0.14787
0.147703
0.147614
0.148214
0.148025
0.147902
0.148044
0.147991
0.147882
0.147916
0.147916
0.148012
0.147744
0.147578
0.147698
0.147648
0.147997
0.148049
0.148295
0.148579
0.147981
0.147945
0.147984
0.147864
0.147583
0.147659
0.147805
0.147422
0.147338
0.147527
0.147527
0.147692
0.147521
0.147766
0.147382
0.147263
0.147306
0.147587
0.147643
0.147487
0.14791
0.14791
0.147253
0.148038
0.148383
0.148307
0.147823
0.148042
0.147774
0.147749
0.147556
0.147508
0.147502
0.147736
0.147736
0.148023
0.147875
0.147918
0.147877
0.147915
0.147435
0.147683
0.147683
0.147755
0.147591
0.147596
0.147462
0.147425
0.147425
0.147574
0.147604
0.147635
0.147587
0.14764
0.147628
0.147668
0.147667
0.147835
0.147835
0.147817
0.147748
0.148084
0.14751
0.147427
0.147805
0.147364
0.147406
0.147643
0.148214
0.148068
0.147997
0.147715
0.147629
0.147415
0.147392
0.147655
0.147723
0.147637
0.147399
0.147626
0.14735
0.147601
0.147833
0.148171
0.14732
0.147533
0.147592
0.147616
0.147616
0.147535
0.147522
0.147501
0.14758
0.147543
0.14762
0.147673
0.147673
0.147711
0.147657
0.147465
0.147661
0.147466
0.147422
0.147642
0.147642
0.147582
0.147725
0.147921
0.147921
0.14797
0.14766
0.147471
0.148071
0.1478
0.147801
0.14772
0.147972
0.147614
0.147706
0.14789
0.147825
0.147855
0.147907
0.148
0.147939
0.147976
0.147875
0.147562
0.147876
0.147729
0.148317
0.147674
0.148279
0.147964
0.147846
0.148041
0.14806
0.148046
0.147725
0.147715
0.147625
0.147508
0.147398
0.147559
0.147714
0.147515
0.147515
0.147635
0.147507
0.147491
0.147219
0.147702
0.147462
0.147429
0.147744
0.147744
0.14742
0.148255
0.147705
0.147782
0.147618
0.147642
0.147578
0.147844
0.147428
0.147628
0.147629
0.147644
0.147693
0.147758
0.147959
0.1477
0.148093
0.148132
0.14767
0.147797
0.148083
0.147694
0.147774
0.147774
0.147601
0.147462
0.147632
0.147483
0.147543
0.147514
0.147517
0.147535
0.147602
0.147842
0.147752
0.147986
0.147801
0.147801
0.148193
0.148713
0.14816
0.147525
0.147585
0.147582
0.147502
0.147233
0.147814
0.148121
0.147976
0.147491
0.147639
0.147599
0.147673
0.147644
0.147742
0.14766
0.147409
0.147878
0.147576
0.147369
0.147692
0.147692
0.147937
0.147389
0.147233
0.147519
0.147561
0.147619
0.147909
0.147568
0.147523
0.147357
0.147493
0.147493
0.147593
0.147583
0.147506
0.147495
0.147807
0.147572
0.147344
0.147592
0.147794
0.147794
0.147964
0.147924
0.148166
0.148412
0.147918
0.147884
0.147668
0.147374
0.147818
0.147818
0.147968
0.147734
0.147651
0.147553
0.147877
0.148008
0.148083
0.148178
0.148017
0.147782
0.148001
0.147876
0.147596
0.147506
0.14767
0.147739
0.148029
0.148084
0.147713
0.147412
0.147863
0.147943
0.147687
0.147599
0.147507
0.14791
0.147658
0.147422
0.147468
0.147468
0.147507
0.147366
0.147326
0.147326
0.147677
0.147445
0.147412
0.147422
0.147401
0.147747
0.147556
0.147713
0.147494
0.147477
0.147598
0.1475
0.147682
0.147682
0.147803
0.147761
0.147814
0.147814
0.147662
0.147959
0.147722
0.147889
0.14779
0.147703
0.147888
0.147462
0.14754
0.147927
0.147557
0.147767
0.147723
0.147722
0.14752
0.147755
0.147482
0.147739
0.14763
0.14763
0.147678
0.147568
0.147567
0.147564
0.147835
0.147737
0.147718
0.147889
0.148168
0.148167
0.147873
0.147511
0.147603
0.147839
0.147659
0.147581
0.148255
0.148063
0.148402
0.147638
0.147446
0.147295
0.147552
0.147767
0.147681
0.14739
0.147512
0.147538
0.147507
0.147721
0.147957
0.147814
0.147635
0.147694
0.14739
0.147169
0.147536
0.147536
0.147777
0.147646
0.147934
0.147403
0.147452
0.147524
0.14781
0.14781
0.147712
0.147749
0.147734
0.147734
0.147526
0.147846
0.147889
0.147978
0.14777
0.148118
0.147821
0.148406
0.148406
0.147969
0.148003
0.147852
0.14789
0.147997
0.147857
0.147665
0.147775
0.147794
0.147833
0.147859
0.147875
0.147825
0.147766
0.147641
0.147899
0.147899
0.147904
0.147722
0.147291
0.147516
0.147594
0.147563
0.147583
0.147307
0.14783
0.147736
0.147667
0.147447
0.147463
0.147463
0.14745
0.147477
0.147546
0.147546
0.147521
0.147927
0.147606
0.147718
0.147505
0.147617
0.14742
0.147418
0.147547
0.147505
0.147423
0.147262
0.14742
0.14751
0.147495
0.147715
0.147848
0.147848
0.147686
0.147608
0.147871
0.147871
0.147733
0.147656
0.147735
0.147934
0.148059
0.147817
0.147991
0.147585
0.14745
0.14738
0.147326
0.147423
0.147573
0.147573
0.147814
0.147531
0.147733
0.147445
0.147691
0.147629
0.147648
0.147667
0.147707
0.147517
0.147727
0.147727
0.14793
0.147644
0.148128
0.14832
0.148135
0.147563
0.147781
0.148171
0.147995
0.147526
0.148589
0.148019
0.14774
0.1477
0.147634
0.14745
0.147812
0.147619
0.147516
0.147423
0.14771
0.147903
0.147642
0.147589
0.147517
0.147501
0.147718
0.147718
0.147862
0.147559
0.147575
0.147719
0.147737
0.147736
0.147695
0.147695
0.147513
0.147957
0.148072
0.147807
0.147635
0.147778
0.147693
0.147665
0.147511
0.147683
0.147557
0.147986
0.148
0.147946
0.147861
0.148361
0.147831
0.148048
0.14804
0.147342
0.147962
0.147715
0.147719
0.147874
0.147703
0.147969
0.147944
0.147732
0.147921
0.14804
0.14804
0.147673
0.147876
0.147793
0.147779
0.147779
0.147289
0.147289
0.147546
0.147546
0.147196
0.147515
0.147855
0.147855
0.148141
0.14761
0.147548
0.147548
0.147671
0.147642
0.147542
0.147639
0.147692
0.147744
0.147685
0.147667
0.147573
0.14756
0.147491
0.147573
0.147367
0.147259
0.147157
0.147156
0.14743
0.14743
0.147452
0.147693
0.147906
0.14792
0.147752
0.147881
0.147865
0.147865
0.148019
0.147738
0.147789
0.147889
0.147869
0.148973
0.149048
0.147671
0.147671
0.147628
0.147561
0.147435
0.147456
0.147684
0.14758
0.14758
0.147682
0.147824
0.147819
0.147476
0.147738
0.147575
0.14759
0.147682
0.147676
0.147676
0.147787
0.147798
0.148231
0.148231
0.147883
0.147625
0.147831
0.147887
0.148032
0.148426
0.148065
0.147553
0.148033
0.147537
0.147564
0.147896
0.147698
0.14753
0.14749
0.147694
0.147807
0.147946
0.147499
0.147545
0.147469
0.147587
0.147743
0.147721
0.147519
0.14736
0.147574
0.147574
0.147661
0.147769
0.147794
0.147794
0.148142
0.147842
0.147732
0.147821
0.148016
0.147629
0.147632
0.147673
0.147716
0.147527
0.147737
0.147945
0.147996
0.148415
0.148626
0.14768
0.147552
0.147812
0.147958
0.147526
0.14751
0.147546
0.147787
0.147688
0.147891
0.147918
0.147723
0.147842
0.148122
0.148081
0.147869
0.147844
0.148149
0.147983
0.14791
0.147787
0.147271
0.147271
0.147741
0.147741
0.147566
0.147574
0.147778
0.147778
0.148093
0.147844
0.147853
0.147926
0.147793
0.147793
0.14754
0.147603
0.147897
0.147666
0.147983
0.147843
0.147226
0.147409
0.147542
0.147625
0.147624
0.147305
0.147219
0.147363
0.147439
0.147627
0.147525
0.147823
0.148114
0.148183
0.147961
0.147961
0.148123
0.148121
0.147883
0.147883
0.148011
0.147913
0.148426
0.148783
0.147752
0.147444
0.147268
0.147704
0.147332
0.147309
0.1475
0.147462
0.147986
0.147702
0.147735
0.147779
0.14795
0.147423
0.14737
0.1475
0.1475
0.147665
0.147968
0.147986
0.147734
0.148286
0.148286
0.148301
0.147651
0.148026
0.147723
0.14751
0.147741
0.147731
0.148259
0.148004
0.147597
0.147989
0.147418
0.147459
0.147315
0.147425
0.147445
0.147457
0.147976
0.147882
0.147437
0.14747
0.147609
0.147503
0.147503
0.147363
0.147347
0.147749
0.147305
0.147578
0.147911
0.148156
0.147993
0.147863
0.147984
0.147911
0.148047
0.148049
0.147591
0.147561
0.147446
0.147497
0.147497
0.147685
0.14795
0.147844
0.148707
0.148284
0.147433
0.147684
0.147548
0.147533
0.147675
0.14768
0.147823
0.147823
0.147735
0.147824
0.147824
0.147657
0.147874
0.148073
0.147892
0.147898
0.148375
0.147819
0.1478
0.147851
0.148155
0.147976
0.147566
0.147673
0.147673
0.147506
0.147462
0.147566
0.148438
0.148075
0.148076
0.147819
0.14769
0.147783
0.14766
0.148084
0.147778
0.147427
0.147582
0.147624
0.147623
0.147887
0.147388
0.1473
0.147225
0.147306
0.147168
0.147173
0.147173
0.147321
0.147489
0.147809
0.147822
0.147736
0.147985
0.148028
0.148338
0.147968
0.147765
0.147854
0.147933
0.147912
0.147815
0.147872
0.147483
0.147319
0.147319
0.147376
0.14763
0.147695
0.147551
0.147434
0.147559
0.14765
0.147697
0.147845
0.148042
0.147857
0.147394
0.14771
0.147619
0.147852
0.148108
0.147911
0.148381
0.148791
0.148247
0.147929
0.148164
0.147787
0.147737
0.147441
0.147465
0.147734
0.147776
0.147896
0.148229
0.147678
0.147496
0.147496
0.147423
0.147599
0.147432
0.147613
0.147755
0.147636
0.147823
0.147781
0.147469
0.14756
0.14756
0.147255
0.147248
0.147428
0.147428
0.147809
0.148304
0.147812
0.147918
0.148094
0.147951
0.147723
0.147723
0.147608
0.147717
0.147592
0.147401
0.14751
0.147543
0.147751
0.147808
0.147927
0.148079
0.147728
0.1477
0.147583
0.147456
0.147446
0.14744
0.147657
0.147924
0.147788
0.147655
0.147912
0.147807
0.147713
0.147894
0.147782
0.148067
0.147956
0.147986
0.147641
0.147464
0.147718
0.14842
0.148014
0.147406
0.147763
0.147754
0.147648
0.147648
0.147589
0.147841
0.148145
0.147926
0.147843
0.147912
0.147609
0.14761
0.147671
0.147712
0.148125
0.147482
0.147431
0.14759
0.14735
0.14735
0.147425
0.147386
0.147362
0.147207
0.147273
0.147378
0.147425
0.147924
0.147812
0.147919
0.147908
0.147719
0.148086
0.14808
0.147906
0.147739
0.147886
0.147686
0.148007
0.147884
0.14774
0.147922
0.147575
0.147552
0.147294
0.147731
0.147595
0.147595
0.147551
0.147666
0.147778
0.147868
0.147863
0.147749
0.147804
0.14772
0.147484
0.147778
0.148067
0.147559
0.147896
0.148633
0.148633
0.148117
0.14794
0.14798
0.148169
0.147786
0.147571
0.147562
0.147724
0.147737
0.147646
0.147774
0.147329
0.147463
0.147501
0.147322
0.147477
0.147535
0.147858
0.147681
0.147559
0.14767
0.147414
0.147599
0.147582
0.147675
0.147877
0.147136
0.14725
0.147782
0.14812
0.147899
0.147809
0.147958
0.147884
0.147825
0.147821
0.147543
0.147632
0.147884
0.147749
0.147365
0.147477
0.147576
0.147825
0.148032
0.147953
0.147955
0.147808
0.147552
0.147502
0.147508
0.14741
0.147461
0.147638
0.147568
0.147635
0.147698
0.147604
0.1479
0.148009
0.147721
0.147713
0.147713
0.147926
0.147926
0.147784
0.147839
0.147896
0.147686
0.148052
0.147681
0.147627
0.147634
0.147527
0.147527
0.147782
0.148082
0.147784
0.148037
0.14792
0.148088
0.147864
0.147612
0.147732
0.14805
0.147632
0.147632
0.147644
0.147419
0.147296
0.147665
0.147451
0.147451
0.14741
0.14741
0.147401
0.147571
0.147552
0.147576
0.147892
0.148167
0.148167
0.14794
0.148341
0.147981
0.148191
0.148154
0.147915
0.148077
0.148139
0.148039
0.147854
0.147468
0.147753
0.147578
0.147618
0.147565
0.147698
0.147599
0.147944
0.1479
0.147589
0.147695
0.147535
0.147962
0.147594
0.147441
0.147808
0.148183
0.147611
0.147986
0.148277
0.148201
0.148188
0.148165
0.147964
0.147964
0.147782
0.14774
0.147775
0.147862
0.147432
0.147516
0.14763
0.147642
0.14764
0.147206
0.147246
0.147246
0.147311
0.147631
0.147649
0.147428
0.147723
0.147824
0.14752
0.147535
0.148017
0.14753
0.147328
0.14738
0.147469
0.147573
0.147739
0.147826
0.147756
0.147985
0.147801
0.147914
0.147653
0.147683
0.147681
0.147497
0.147603
0.147508
0.147443
0.147794
0.14793
0.147837
0.147817
0.147817
0.147932
0.147438
0.147471
0.147471
0.147734
0.147499
0.147518
0.147754
0.147594
0.147527
0.147738
0.147737
0.147669
0.147968
0.147694
0.147694
0.147979
0.147979
0.148431
0.147785
0.147368
0.147868
0.147282
0.147282
0.147407
0.147407
0.147605
0.148274
0.147897
0.147766
0.147814
0.147814
0.147837
0.148016
0.147977
0.14757
0.147355
0.147434
0.147384
0.147442
0.147537
0.147537
0.147574
0.147295
0.147427
0.147604
0.14746
0.147598
0.147451
0.147669
0.148054
0.1478
0.148223
0.148059
0.14804
0.148175
0.148117
0.147792
0.147888
0.148238
0.148249
0.147547
0.147873
0.147859
0.148205
0.14761
0.147543
0.147941
0.147753
0.147641
0.147992
0.147729
0.14784
0.147914
0.14795
0.147563
0.147713
0.147603
0.147301
0.147619
0.147615
0.147615
0.147918
0.147906
0.147843
0.147816
0.148211
0.148034
0.147923
0.147922
0.14773
0.147782
0.147715
0.147535
0.147486
0.147486
0.147558
0.14768
0.147437
0.147249
0.147237
0.147237
0.147481
0.147709
0.147613
0.147439
0.147697
0.147697
0.147904
0.148053
0.147772
0.147302
0.147296
0.147257
0.147455
0.147524
0.147621
0.147858
0.147713
0.14796
0.147847
0.147708
0.147645
0.147829
0.147509
0.147812
0.147616
0.147616
0.147781
0.147601
0.147754
0.147753
0.147717
0.147717
0.147631
0.14759
0.147452
0.147724
0.147523
0.147523
0.147748
0.147631
0.147556
0.147937
0.147874
0.147723
0.147637
0.147637
0.147742
0.147783
0.148159
0.148028
0.147737
0.147737
0.147701
0.14742
0.147572
0.147827
0.147454
0.147454
0.147743
0.147916
0.147693
0.147889
0.148015
0.147841
0.147956
0.147811
0.147858
0.147279
0.147384
0.147418
0.147618
0.147475
0.147343
0.147464
0.147581
0.147581
0.14741
0.147467
0.147579
0.147579
0.14767
0.147889
0.147901
0.147933
0.148015
0.147541
0.147967
0.148241
0.147835
0.147498
0.147667
0.147688
0.147947
0.147776
0.147694
0.14811
0.147987
0.1483
0.14789
0.147971
0.147916
0.148212
0.147821
0.147292
0.148081
0.147698
0.147995
0.147658
0.147667
0.147647
0.147646
0.147292
0.147518
0.148084
0.147826
0.147826
0.147907
0.148096
0.148108
0.148108
0.148049
0.1481
0.147907
0.147884
0.14774
0.147705
0.147912
0.147516
0.147608
0.147608
0.147379
0.147239
0.147231
0.147629
0.147624
0.147624
0.147501
0.147529
0.147686
0.147897
0.147494
0.147494
0.147498
0.147564
0.147365
0.14731
0.1475
0.147641
0.147926
0.147724
0.147826
0.14818
0.148179
0.147826
0.147749
0.147748
0.147381
0.147487
0.147416
0.147723
0.147703
0.147703
0.147761
0.147761
0.147728
0.147728
0.147777
0.147704
0.147664
0.147294
0.147477
0.147477
0.147714
0.147714
0.147659
0.147562
0.147584
0.147523
0.147725
0.147725
0.147909
0.148264
0.148499
0.147771
0.147692
0.147574
0.147665
0.147665
0.147313
0.147723
0.147723
0.14803
0.148409
0.148034
0.148121
0.148159
0.148309
0.147898
0.14809
0.14789
0.1477
0.147419
0.14745
0.14753
0.14745
0.147507
0.147296
0.147842
0.147676
0.147676
0.147849
0.147542
0.147742
0.147568
0.147545
0.147598
0.147678
0.148152
0.147815
0.147371
0.147831
0.147831
0.147933
0.147667
0.147569
0.148123
0.147957
0.14796
0.148005
0.147826
0.148074
0.148728
0.147928
0.147726
0.147864
0.148296
0.147745
0.147286
0.148059
0.147376
0.147649
0.147649
0.147714
0.147429
0.1474
0.147411
0.147467
0.14785
0.147878
0.147878
0.148013
0.148185
0.148067
0.148331
0.148063
0.148045
0.147799
0.148047
0.147528
0.147915
0.147932
0.147655
0.147922
0.147847
0.147354
0.147165
0.147175
0.147255
0.147483
0.14766
0.147589
0.147629
0.147739
0.147729
0.147604
0.147877
0.147666
0.147614
0.147632
0.147529
0.147475
0.147961
0.148135
0.147685
0.147936
0.148551
0.14803
0.1477
0.148
0.147633
0.147606
0.147574
0.147431
0.147763
0.147754
0.147901
0.147793
0.147829
0.147764
0.147764
0.147702
0.147702
0.147687
0.147544
0.147458
0.147835
0.147737
0.147877
0.147826
0.147826
0.147717
0.147992
0.147857
0.147857
0.147907
0.148017
0.147815
0.147815
0.147732
0.147982
0.147819
0.1476
0.147512
0.147856
0.14753
0.148425
0.148834
0.147868
0.147995
0.148478
0.14796
0.147848
0.147848
0.14758
0.147571
0.14752
0.147951
0.14752
0.147556
0.147294
0.147387
0.147483
0.147877
0.147922
0.147655
0.147829
0.147871
0.147534
0.147541
0.147598
0.147766
0.147685
0.147863
0.147397
0.147769
0.14807
0.14772
0.14768
0.14767
0.14767
0.14787
0.148204
0.147996
0.148083
0.147828
0.148312
0.147453
0.147377
0.147377
0.147423
0.147657
0.148432
0.147836
0.147207
0.147055
0.147691
0.147691
0.147817
0.147704
0.147888
0.147683
0.147867
0.147944
0.148545
0.148395
0.148557
0.148027
0.148082
0.148043
0.148238
0.148017
0.14787
0.147801
0.14788
0.148198
0.147454
0.147628
0.147718
0.147515
0.148006
0.147453
0.147622
0.14705
0.147575
0.147698
0.147681
0.147898
0.148478
0.147569
0.147548
0.14758
0.14791
0.147796
0.147781
0.147254
0.147465
0.148128
0.147773
0.147408
0.147764
0.147751
0.148178
0.148064
0.147612
0.147561
0.147395
0.147395
0.147371
0.147371
0.147812
0.147686
0.147845
0.147823
0.147744
0.147729
0.147647
0.147767
0.147564
0.147673
0.147684
0.147381
0.147556
0.148036
0.147794
0.147794
0.147709
0.147709
0.147837
0.147904
0.148051
0.147878
0.14774
0.14774
0.147547
0.147751
0.147756
0.147711
0.147559
0.14756
0.147874
0.148986
0.14801
0.147926
0.148219
0.147688
0.147793
0.147907
0.147767
0.147742
0.147474
0.147617
0.14776
0.148021
0.148007
0.14722
0.147448
0.147769
0.147541
0.147327
0.147506
0.147506
0.147685
0.147694
0.147785
0.147726
0.147553
0.147448
0.147445
0.147445
0.14775
0.14775
0.148051
0.147647
0.147662
0.147662
0.147846
0.147946
0.147978
0.148097
0.148204
0.147506
0.147502
0.147363
0.147531
0.147525
0.147639
0.147901
0.147317
0.147317
0.147489
0.147064
0.147743
0.147743
0.147485
0.147842
0.147732
0.148137
0.148137
0.148335
0.148032
0.148181
0.148264
0.147917
0.147912
0.147912
0.148084
0.148084
0.148003
0.148034
0.147767
0.147766
0.147792
0.147574
0.147712
0.147394
0.147344
0.147915
0.147902
0.146885
0.147668
0.147447
0.14799
0.148767
0.148565
0.147434
0.147847
0.147347
0.147673
0.147785
0.147905
0.147132
0.147348
0.147551
0.147866
0.147275
0.147577
0.148185
0.14794
0.14794
0.148003
0.147518
0.147647
0.14743
0.147426
0.147484
0.147792
0.147792
0.147896
0.1477
0.147662
0.147615
0.147605
0.147845
0.147557
0.147666
0.14751
0.14751
0.147679
0.147679
0.14774
0.148072
0.147971
0.147734
0.148011
0.148071
0.147894
0.147884
0.147664
0.147664
0.147634
0.147818
0.147797
0.14738
0.147634
0.147975
0.147845
0.147844
0.147979
0.148095
0.147597
0.147602
0.147698
0.147698
0.148011
0.147727
0.147606
0.147655
0.148114
0.147691
0.147699
0.147511
0.14759
0.147347
0.147503
0.147452
0.147542
0.14786
0.147691
0.147749
0.147727
0.147686
0.14751
0.147544
0.147533
0.147825
0.148164
0.14788
0.147706
0.147963
0.147996
0.147791
0.148083
0.14792
0.147922
0.148003
0.147913
0.147443
0.147372
0.147372
0.147939
0.147906
0.147575
0.147238
0.147207
0.147695
0.147256
0.147842
0.148009
0.147868
0.147743
0.147755
0.147746
0.148137
0.148137
0.1481
0.147649
0.147864
0.147903
0.147665
0.14789
0.147869
0.14807
0.14807
0.148078
0.147823
0.147689
0.147689
0.147816
0.147969
0.147404
0.147055
0.147292
0.147292
0.147501
0.147589
0.147917
0.148038
0.148448
0.147926
0.147941
0.148073
0.147946
0.147243
0.147849
0.147487
0.147526
0.147323
0.147306
0.147362
0.147516
0.147516
0.147654
0.147654
0.147754
0.148329
0.147743
0.147743
0.14744
0.147441
0.147828
0.147466
0.147887
0.147871
0.147762
0.147762
0.1475
0.147539
0.147664
0.147683
0.147721
0.14768
0.147589
0.14739
0.147664
0.147664
0.147665
0.147665
0.14798
0.147918
0.148
0.147523
0.147759
0.147797
0.147581
0.147625
0.147687
0.147687
0.14753
0.14753
0.14754
0.147723
0.14775
0.148006
0.147994
0.147974
0.147643
0.14757
0.147994
0.147858
0.147722
0.147722
0.14803
0.147996
0.147604
0.147573
0.147373
0.147373
0.147409
0.14746
0.147449
0.147401
0.147572
0.147602
0.147666
0.147924
0.147924
0.1477
0.147584
0.14756
0.147721
0.148214
0.148214
0.147735
0.148036
0.147637
0.147642
0.147829
0.147994
0.14786
0.147932
0.147957
0.147881
0.147639
0.147421
0.148053
0.147805
0.147724
0.147538
0.147459
0.147245
0.14713
0.147356
0.147525
0.147863
0.147866
0.14802
0.147737
0.147868
0.147933
0.147914
0.147701
0.147537
0.14774
0.147701
0.14767
0.147896
0.148143
0.148214
0.148291
0.148012
0.148173
0.148022
0.147529
0.147572
0.147762
0.147651
0.147443
0.147643
0.147366
0.14741
0.147965
0.147613
0.147965
0.148263
0.148118
0.148088
0.1476
0.147574
0.147787
0.147368
0.14721
0.147292
0.147292
0.147592
0.147508
0.147384
0.147669
0.148014
0.147743
0.147813
0.147834
0.147794
0.147772
0.147411
0.147632
0.147671
0.147915
0.147761
0.147541
0.147607
0.147607
0.147761
0.147478
0.1476
0.1476
0.147514
0.147514
0.147486
0.147584
0.147754
0.147662
0.147646
0.147646
0.147493
0.14754
0.14805
0.147592
0.14769
0.14769
0.148223
0.147584
0.147643
0.147643
0.147462
0.147462
0.147634
0.147634
0.14762
0.148075
0.147796
0.147665
0.148165
0.148175
0.147637
0.147758
0.147967
0.148033
0.147858
0.147786
0.147763
0.147524
0.147731
0.147564
0.147641
0.147491
0.147653
0.14765
0.14793
0.147556
0.147742
0.148006
0.147733
0.147671
0.147978
0.147828
0.147927
0.148376
0.147991
0.147957
0.147701
0.147532
0.147647
0.147664
0.147964
0.147964
0.148035
0.148008
0.147979
0.147469
0.148372
0.147656
0.147539
0.147826
0.147659
0.147442
0.147293
0.147461
0.147624
0.147769
0.147953
0.148236
0.148088
0.147838
0.148036
0.147712
0.147731
0.148034
0.148089
0.147686
0.147932
0.147788
0.148028
0.14815
0.14819
0.148031
0.14787
0.147972
0.147626
0.147626
0.14754
0.147542
0.147778
0.147766
0.147192
0.147288
0.14742
0.147651
0.147652
0.147999
0.14769
0.148308
0.147693
0.147258
0.147341
0.147271