/*--------------------------------*- C++ -*----------------------------------*\
| =========                 |                                                 |
| \\      /  F ield         | OpenFOAM: The Open Source CFD Toolbox           |
|  \\    /   O peration     | Version:  2206                                  |
|   \\  /    A nd           | Website:  www.openfoam.com                      |
|    \\/     M anipulation  |                                                 |
\*---------------------------------------------------------------------------*/
FoamFile
{
    version     2.0;
    format      ascii;
    arch        "LSB;label=32;scalar=64";
    class       volScalarField;
    location    "0.3";
    object      k;
}
// * * * * * * * * * * * * * * * * * * * * * * * * * * * * * * * * * * * * * //

dimensions      [0 2 -2 0 0 0 0];

internalField   nonuniform List<scalar> 
184150
(
8.6938e-08
8.60222e-08
8.53691e-08
8.6022e-08
8.52127e-08
7.5645e-08
8.69467e-08
8.62918e-08
7.40074e-08
8.58101e-08
8.60768e-08
8.51808e-08
8.72271e-08
7.61375e-08
8.59007e-08
8.58777e-08
7.46672e-08
7.5772e-08
8.58068e-08
7.41388e-08
8.60582e-08
8.51164e-08
7.55338e-08
8.58564e-08
7.61253e-08
7.41767e-08
8.52363e-08
7.57686e-08
7.57089e-08
7.57421e-08
7.41707e-08
7.57414e-08
7.47421e-08
8.54223e-08
7.64241e-08
8.71181e-08
7.59029e-08
7.49387e-08
8.55882e-08
8.70964e-08
7.46929e-08
7.43637e-08
8.59081e-08
7.5795e-08
7.45592e-08
8.57084e-08
8.50495e-08
8.53346e-08
8.71355e-08
8.70775e-08
8.52288e-08
8.69196e-08
7.44961e-08
7.58898e-08
8.5377e-08
7.4871e-08
8.55399e-08
8.51689e-08
7.55109e-08
7.54045e-08
7.38413e-08
7.58699e-08
8.60005e-08
7.56379e-08
8.71963e-08
8.58815e-08
8.69904e-08
7.4192e-08
8.69018e-08
7.5791e-08
8.57695e-08
8.5227e-08
8.59472e-08
7.48993e-08
7.57693e-08
7.57047e-08
7.4151e-08
8.58755e-08
8.5726e-08
8.5528e-08
7.60256e-08
7.55236e-08
7.40089e-08
7.59202e-08
8.52721e-08
8.69481e-08
7.58738e-08
7.58576e-08
7.599e-08
7.53526e-08
8.51583e-08
7.41155e-08
7.5502e-08
8.5663e-08
7.41259e-08
8.54184e-08
8.70685e-08
8.69765e-08
7.42598e-08
8.6033e-08
7.46429e-08
8.52553e-08
8.57675e-08
7.40223e-08
7.38478e-08
7.58268e-08
8.59156e-08
8.58841e-08
7.56781e-08
8.58034e-08
7.58231e-08
8.59482e-08
8.60108e-08
7.56683e-08
7.58981e-08
7.57571e-08
8.56865e-08
8.5843e-08
7.41871e-08
7.44795e-08
7.59719e-08
7.47299e-08
8.59787e-08
8.70247e-08
8.5413e-08
7.548e-08
7.53163e-08
7.57341e-08
8.53435e-08
8.60496e-08
7.42103e-08
7.5898e-08
7.49847e-08
7.47605e-08
8.59177e-08
8.6959e-08
7.57029e-08
7.60544e-08
8.68705e-08
7.59149e-08
7.54467e-08
8.61194e-08
7.58303e-08
7.57722e-08
7.57833e-08
7.58367e-08
8.58026e-08
8.59789e-08
8.60052e-08
7.62835e-08
8.60931e-08
7.58136e-08
7.47119e-08
7.55166e-08
8.59091e-08
7.46525e-08
7.58888e-08
8.56628e-08
8.58646e-08
8.56649e-08
7.62283e-08
7.5683e-08
8.59866e-08
8.60542e-08
7.57075e-08
8.59472e-08
8.69019e-08
8.67226e-08
7.59075e-08
7.62377e-08
8.6998e-08
7.54114e-08
7.39651e-08
7.57555e-08
8.56954e-08
8.69607e-08
8.57841e-08
7.59248e-08
7.56032e-08
8.62928e-08
8.50769e-08
8.61352e-08
7.39073e-08
7.54664e-08
7.59995e-08
8.61852e-08
8.57736e-08
8.59364e-08
7.61557e-08
8.58152e-08
8.58761e-08
8.6058e-08
8.58535e-08
7.45127e-08
7.61478e-08
8.70877e-08
8.61722e-08
7.46583e-08
7.61091e-08
7.60207e-08
7.58346e-08
8.56736e-08
7.5786e-08
7.59518e-08
8.61348e-08
8.7102e-08
7.46787e-08
7.58849e-08
7.48778e-08
7.59557e-08
7.3895e-08
7.55456e-08
8.69144e-08
8.70125e-08
7.56016e-08
8.55758e-08
8.69938e-08
8.59807e-08
8.70273e-08
7.59299e-08
7.41168e-08
8.54275e-08
8.59919e-08
7.59129e-08
7.42506e-08
7.5814e-08
8.56451e-08
8.59778e-08
7.58878e-08
8.51531e-08
8.57893e-08
7.43653e-08
7.38077e-08
7.43973e-08
7.57108e-08
7.47088e-08
7.64039e-08
7.4046e-08
7.57118e-08
8.53416e-08
7.47253e-08
7.43325e-08
7.61704e-08
7.48094e-08
8.60564e-08
7.60775e-08
8.6969e-08
7.57309e-08
7.58198e-08
7.59108e-08
8.49841e-08
7.58673e-08
7.43596e-08
8.60545e-08
7.64278e-08
8.49445e-08
7.60989e-08
8.6041e-08
7.55675e-08
8.61098e-08
7.59825e-08
7.54999e-08
8.58846e-08
7.39317e-08
7.38263e-08
7.45862e-08
8.57385e-08
7.48727e-08
8.61081e-08
8.61756e-08
7.46182e-08
8.7092e-08
8.57632e-08
7.60307e-08
7.416e-08
7.5427e-08
7.45848e-08
7.56587e-08
7.4594e-08
8.59484e-08
8.52076e-08
7.41904e-08
8.52598e-08
8.60362e-08
8.59364e-08
7.38785e-08
7.45241e-08
8.60984e-08
7.55696e-08
8.58985e-08
7.55579e-08
7.60735e-08
7.56524e-08
8.57503e-08
7.56136e-08
7.48713e-08
7.47476e-08
7.46999e-08
7.55934e-08
7.57629e-08
7.56236e-08
8.53398e-08
8.60984e-08
7.37495e-08
8.51776e-08
8.60616e-08
8.58419e-08
8.51924e-08
7.54783e-08
7.57436e-08
7.43962e-08
7.37872e-08
8.59524e-08
7.58756e-08
7.42269e-08
7.58547e-08
8.6156e-08
7.56932e-08
7.45926e-08
8.60741e-08
8.60843e-08
7.44781e-08
7.47669e-08
7.49363e-08
8.62265e-08
7.40242e-08
8.58281e-08
7.54308e-08
8.59741e-08
8.56968e-08
7.41108e-08
8.51361e-08
8.55301e-08
7.54915e-08
7.5977e-08
7.56881e-08
8.5884e-08
8.54023e-08
8.62011e-08
7.46434e-08
7.45325e-08
8.59049e-08
8.69839e-08
7.45124e-08
8.67917e-08
7.46274e-08
8.58881e-08
8.59919e-08
7.4645e-08
7.48441e-08
7.44396e-08
7.58848e-08
7.45366e-08
7.38284e-08
7.56198e-08
7.62569e-08
8.5969e-08
8.70467e-08
7.58997e-08
8.58544e-08
7.39336e-08
8.57252e-08
8.58512e-08
7.5714e-08
7.5625e-08
8.60693e-08
8.57886e-08
8.71662e-08
8.57728e-08
8.58926e-08
7.55299e-08
8.60677e-08
7.59073e-08
8.56958e-08
7.56268e-08
8.5195e-08
7.55591e-08
8.52447e-08
7.57061e-08
8.52492e-08
7.46373e-08
8.6921e-08
7.45974e-08
8.61715e-08
8.60359e-08
8.69527e-08
7.58697e-08
8.51405e-08
7.56438e-08
8.58253e-08
8.58197e-08
7.53177e-08
8.69689e-08
8.69443e-08
8.68218e-08
8.69899e-08
7.5861e-08
8.57608e-08
7.553e-08
8.63425e-08
8.52932e-08
7.46155e-08
7.55654e-08
8.68587e-08
8.70583e-08
7.57346e-08
7.46416e-08
7.47298e-08
8.68592e-08
8.58672e-08
8.64597e-08
8.71929e-08
7.5985e-08
8.59514e-08
8.53648e-08
8.60876e-08
7.50429e-08
8.57911e-08
8.58899e-08
8.56809e-08
7.48538e-08
8.69028e-08
7.47631e-08
8.70746e-08
8.60812e-08
7.56479e-08
7.48289e-08
7.46659e-08
8.5296e-08
7.40788e-08
8.5111e-08
7.40042e-08
7.41575e-08
8.59229e-08
8.63265e-08
7.42035e-08
8.5267e-08
7.40961e-08
7.38806e-08
8.70171e-08
8.52852e-08
8.68983e-08
8.5383e-08
8.54217e-08
7.41672e-08
8.59201e-08
8.68996e-08
8.52757e-08
8.70968e-08
8.71888e-08
8.68841e-08
8.61588e-08
7.40762e-08
8.63021e-08
8.52651e-08
8.58602e-08
7.54729e-08
7.46806e-08
7.39423e-08
7.41424e-08
8.50834e-08
7.59533e-08
7.3782e-08
8.59742e-08
8.51248e-08
7.40278e-08
7.57734e-08
7.44162e-08
8.51347e-08
7.39852e-08
8.50702e-08
7.45751e-08
8.71437e-08
8.70198e-08
7.39568e-08
8.69318e-08
8.71704e-08
7.47937e-08
8.51592e-08
7.38235e-08
7.48118e-08
8.52558e-08
8.72338e-08
8.6933e-08
8.52043e-08
8.69699e-08
8.59462e-08
7.42008e-08
7.47683e-08
8.52537e-08
8.52923e-08
8.69477e-08
7.42434e-08
8.57634e-08
8.56323e-08
8.52638e-08
8.58644e-08
8.69596e-08
7.46024e-08
8.69867e-08
7.39603e-08
7.46302e-08
8.68319e-08
7.56451e-08
8.51421e-08
7.47525e-08
7.38709e-08
8.51147e-08
8.57616e-08
8.58797e-08
7.4109e-08
8.53457e-08
7.47529e-08
7.46306e-08
8.71786e-08
8.72335e-08
7.4495e-08
8.70178e-08
8.52714e-08
7.4281e-08
8.53455e-08
7.42681e-08
8.54417e-08
8.53757e-08
8.68676e-08
7.42896e-08
7.44992e-08
8.68235e-08
7.46976e-08
8.5324e-08
7.48176e-08
8.69571e-08
7.39614e-08
8.51382e-08
7.39927e-08
8.52494e-08
7.59618e-08
8.61802e-08
7.60503e-08
8.58959e-08
7.57431e-08
8.59401e-08
7.62235e-08
8.58737e-08
7.56445e-08
8.5836e-08
7.56804e-08
8.59125e-08
7.58526e-08
8.62013e-08
7.62111e-08
8.59401e-08
7.57444e-08
8.63466e-08
7.62972e-08
8.59457e-08
7.59364e-08
8.59131e-08
7.59147e-08
8.57968e-08
7.53807e-08
8.56268e-08
7.56142e-08
8.57034e-08
7.58485e-08
8.58991e-08
7.60261e-08
8.60022e-08
7.56648e-08
8.61224e-08
7.60864e-08
8.60327e-08
7.58775e-08
8.59611e-08
7.6078e-08
8.59951e-08
7.60803e-08
8.6014e-08
7.56205e-08
8.57803e-08
7.58584e-08
8.59245e-08
7.57119e-08
8.58472e-08
7.5955e-08
8.60804e-08
7.59105e-08
8.57668e-08
7.57405e-08
8.59508e-08
7.59587e-08
8.58448e-08
7.58383e-08
8.60831e-08
7.58244e-08
8.59242e-08
7.60254e-08
8.61257e-08
7.61782e-08
8.5941e-08
7.59579e-08
8.59878e-08
7.55057e-08
8.60657e-08
7.64163e-08
8.62685e-08
7.60057e-08
8.58329e-08
7.56843e-08
8.60893e-08
7.56885e-08
8.5606e-08
7.58561e-08
8.6055e-08
7.58425e-08
8.60172e-08
7.59569e-08
8.60882e-08
7.61585e-08
8.60482e-08
7.5905e-08
8.59475e-08
7.58981e-08
8.59734e-08
7.58039e-08
8.58443e-08
7.5685e-08
8.59327e-08
7.58655e-08
8.59408e-08
7.59564e-08
8.61329e-08
7.58709e-08
8.58595e-08
7.58699e-08
8.59589e-08
7.58209e-08
8.59383e-08
7.59467e-08
8.58965e-08
7.5696e-08
8.59373e-08
7.58991e-08
8.5609e-08
7.58579e-08
8.59057e-08
7.57586e-08
8.58963e-08
7.57026e-08
8.5624e-08
7.56025e-08
8.55849e-08
7.56247e-08
8.61774e-08
7.60395e-08
8.59655e-08
7.60606e-08
8.60506e-08
7.57126e-08
8.60456e-08
7.62192e-08
8.59973e-08
7.58215e-08
8.57739e-08
7.56525e-08
8.58829e-08
7.5895e-08
8.58859e-08
7.67166e-08
8.69453e-08
7.56462e-08
8.60962e-08
7.59773e-08
8.59836e-08
7.58603e-08
8.5737e-08
7.57873e-08
8.59758e-08
7.57846e-08
8.57326e-08
7.55073e-08
8.59745e-08
7.57299e-08
8.60218e-08
7.62907e-08
8.60194e-08
7.57937e-08
8.62093e-08
7.63412e-08
8.61252e-08
7.59042e-08
8.59203e-08
7.58825e-08
8.56689e-08
7.53324e-08
8.56478e-08
7.56213e-08
8.58285e-08
7.58299e-08
8.5958e-08
7.60353e-08
8.59314e-08
7.58874e-08
8.61665e-08
7.602e-08
8.61527e-08
7.58668e-08
8.60521e-08
7.60602e-08
8.57894e-08
7.59253e-08
8.62098e-08
7.58249e-08
8.55606e-08
7.56778e-08
8.59773e-08
7.57206e-08
8.57309e-08
7.58003e-08
8.59684e-08
7.59644e-08
8.58399e-08
7.54305e-08
8.58662e-08
7.58424e-08
8.58538e-08
7.58544e-08
8.59704e-08
7.57733e-08
8.59816e-08
7.60201e-08
8.60998e-08
7.60971e-08
8.60023e-08
7.60033e-08
8.58611e-08
7.5606e-08
8.61977e-08
7.61706e-08
8.62387e-08
7.63224e-08
8.5919e-08
7.56025e-08
8.58644e-08
7.55888e-08
8.57531e-08
7.58717e-08
8.60662e-08
7.60118e-08
8.60365e-08
7.57404e-08
8.6179e-08
7.61474e-08
8.60946e-08
7.5982e-08
8.59802e-08
7.5857e-08
8.60639e-08
7.59464e-08
8.57593e-08
7.56106e-08
8.60797e-08
7.5938e-08
8.59745e-08
7.60132e-08
8.608e-08
7.5922e-08
8.60166e-08
7.59399e-08
8.58706e-08
7.57716e-08
8.59527e-08
7.59087e-08
8.59707e-08
7.57918e-08
8.59716e-08
7.5617e-08
8.55663e-08
7.56883e-08
8.55817e-08
7.56531e-08
8.58719e-08
7.57146e-08
8.58958e-08
7.55518e-08
8.54431e-08
7.547e-08
8.61937e-08
7.61221e-08
8.60444e-08
7.60416e-08
8.62004e-08
7.57742e-08
8.59421e-08
7.60327e-08
8.59936e-08
7.5873e-08
8.60143e-08
7.57969e-08
8.60297e-08
7.56769e-08
8.57479e-08
7.64829e-08
8.66547e-08
7.55913e-08
8.59224e-08
7.58523e-08
8.60894e-08
7.59467e-08
8.57991e-08
7.56879e-08
8.58893e-08
7.58841e-08
8.58876e-08
7.56609e-08
8.6099e-08
7.57714e-08
8.60403e-08
7.62331e-08
8.59515e-08
7.5685e-08
8.60764e-08
7.6346e-08
8.60655e-08
7.58443e-08
8.60586e-08
7.59039e-08
8.56624e-08
7.52403e-08
8.55814e-08
7.58004e-08
8.5892e-08
7.58569e-08
8.58631e-08
7.58103e-08
8.59649e-08
7.5934e-08
8.59614e-08
7.59588e-08
8.61994e-08
7.57946e-08
8.61446e-08
7.58916e-08
8.56034e-08
7.57034e-08
8.61158e-08
7.60698e-08
8.56934e-08
7.54328e-08
8.59246e-08
7.59274e-08
8.58186e-08
7.5733e-08
8.58605e-08
7.60319e-08
8.60552e-08
7.56496e-08
8.58929e-08
7.58203e-08
8.59486e-08
7.59239e-08
8.59126e-08
7.57722e-08
8.58853e-08
7.58184e-08
8.59815e-08
7.59594e-08
8.60461e-08
7.589e-08
8.58263e-08
7.5656e-08
8.60732e-08
7.60086e-08
8.59909e-08
7.61584e-08
8.61724e-08
7.58688e-08
8.56942e-08
7.55772e-08
8.57588e-08
7.55369e-08
8.60286e-08
7.61679e-08
8.60433e-08
7.58022e-08
8.61123e-08
7.59868e-08
8.61569e-08
7.61295e-08
8.60077e-08
7.58546e-08
8.60832e-08
7.58861e-08
8.58177e-08
7.56658e-08
8.58024e-08
7.5792e-08
8.62135e-08
7.60613e-08
8.60829e-08
7.60404e-08
8.61497e-08
7.59108e-08
8.595e-08
7.58051e-08
8.57831e-08
7.58334e-08
8.60064e-08
7.58826e-08
8.59212e-08
7.56149e-08
8.58154e-08
7.55719e-08
8.55581e-08
7.5642e-08
8.57524e-08
7.58196e-08
8.58176e-08
7.56452e-08
8.56348e-08
7.5377e-08
8.60756e-08
7.6383e-08
8.62091e-08
7.59923e-08
8.61308e-08
7.57816e-08
8.59996e-08
7.58755e-08
8.58339e-08
7.58691e-08
8.60289e-08
7.60074e-08
8.60774e-08
7.56299e-08
8.58202e-08
7.60747e-08
8.59733e-08
7.56436e-08
8.58353e-08
7.58212e-08
8.57972e-08
7.58826e-08
8.60175e-08
7.57245e-08
8.57256e-08
7.58688e-08
8.5943e-08
7.57426e-08
8.60209e-08
7.57732e-08
8.60601e-08
7.6076e-08
8.59883e-08
7.57466e-08
8.60245e-08
7.61776e-08
8.59027e-08
7.5868e-08
8.60468e-08
7.60123e-08
8.56393e-08
7.53155e-08
8.55242e-08
7.56662e-08
8.60115e-08
7.5988e-08
8.58239e-08
7.56481e-08
8.59702e-08
7.57665e-08
8.57923e-08
7.58415e-08
8.60199e-08
7.58986e-08
8.59734e-08
7.57647e-08
8.56222e-08
7.56908e-08
8.58858e-08
7.61991e-08
8.59716e-08
7.53152e-08
8.58152e-08
7.60184e-08
8.60244e-08
7.57495e-08
8.58296e-08
7.57867e-08
8.59275e-08
7.57654e-08
8.58044e-08
7.57853e-08
8.61147e-08
7.61049e-08
8.60147e-08
7.57892e-08
8.58582e-08
7.57497e-08
8.59383e-08
7.596e-08
8.59382e-08
7.58938e-08
8.59781e-08
7.55042e-08
8.6085e-08
7.60521e-08
8.5719e-08
7.58909e-08
8.61794e-08
7.59844e-08
8.59045e-08
7.57708e-08
8.5809e-08
7.55083e-08
8.5942e-08
7.60273e-08
8.62742e-08
7.61011e-08
8.60541e-08
7.59395e-08
8.61638e-08
7.60111e-08
8.60039e-08
7.59664e-08
8.59277e-08
7.58266e-08
8.6054e-08
7.58491e-08
8.57571e-08
7.57655e-08
8.61068e-08
7.60415e-08
8.62102e-08
7.61667e-08
8.5971e-08
7.57414e-08
8.61423e-08
7.57924e-08
8.56811e-08
7.56961e-08
8.59469e-08
7.58906e-08
8.57842e-08
7.57273e-08
8.58789e-08
7.56425e-08
8.56893e-08
7.55474e-08
8.5835e-08
7.6029e-08
8.58004e-08
7.58259e-08
8.58146e-08
7.52795e-08
8.60451e-08
7.64302e-08
8.60832e-08
7.58958e-08
8.59872e-08
7.5815e-08
8.61252e-08
7.5649e-08
8.57508e-08
7.59104e-08
8.59813e-08
7.60835e-08
8.60213e-08
7.57273e-08
8.59437e-08
7.58053e-08
8.62309e-08
7.56303e-08
8.60514e-08
7.58537e-08
8.57803e-08
7.58522e-08
8.60298e-08
7.56909e-08
8.58194e-08
7.57552e-08
8.58709e-08
7.58512e-08
8.60361e-08
7.58454e-08
8.60141e-08
7.58725e-08
8.61e-08
7.58557e-08
8.61193e-08
7.61279e-08
8.60909e-08
7.59769e-08
8.58465e-08
7.5772e-08
8.58908e-08
7.55685e-08
8.55398e-08
7.55337e-08
8.59229e-08
7.60695e-08
8.5831e-08
7.55209e-08
8.5837e-08
7.5736e-08
8.58298e-08
7.57998e-08
8.59878e-08
7.59263e-08
8.58824e-08
7.56772e-08
8.58388e-08
7.55364e-08
8.5702e-08
7.62391e-08
8.58902e-08
7.53458e-08
8.57376e-08
7.59215e-08
8.60665e-08
7.57941e-08
8.59164e-08
7.57644e-08
8.59125e-08
7.58511e-08
8.59434e-08
7.58332e-08
8.60427e-08
7.59941e-08
8.59915e-08
7.57502e-08
8.58749e-08
7.56305e-08
8.58002e-08
7.57963e-08
8.59055e-08
7.59753e-08
8.57486e-08
7.54318e-08
8.63228e-08
7.61524e-08
8.58819e-08
7.59293e-08
8.5747e-08
7.58133e-08
8.6121e-08
7.59606e-08
8.5927e-08
7.56561e-08
8.5805e-08
7.57581e-08
8.61149e-08
7.61517e-08
8.61329e-08
7.60274e-08
8.60411e-08
7.58202e-08
8.61849e-08
7.604e-08
8.57504e-08
7.58218e-08
8.61425e-08
7.59067e-08
8.58494e-08
7.56906e-08
8.58471e-08
7.58549e-08
8.62291e-08
7.61815e-08
8.58731e-08
7.57719e-08
8.60136e-08
7.58882e-08
8.58275e-08
7.56516e-08
8.59002e-08
7.59093e-08
8.5884e-08
7.5802e-08
8.57393e-08
7.57324e-08
8.57806e-08
7.53781e-08
8.57871e-08
7.59255e-08
8.57308e-08
7.5801e-08
8.57057e-08
7.52528e-08
8.59987e-08
7.62291e-08
8.5986e-08
7.57956e-08
8.59246e-08
7.587e-08
8.60056e-08
7.56091e-08
8.5924e-08
7.59731e-08
8.58867e-08
7.60266e-08
8.61138e-08
7.58404e-08
8.58576e-08
7.60174e-08
8.63913e-08
8.57815e-08
7.56299e-08
8.58803e-08
7.57322e-08
8.60263e-08
7.59697e-08
8.59178e-08
7.58e-08
8.59406e-08
7.57656e-08
8.58197e-08
7.58278e-08
8.59908e-08
7.58258e-08
8.59256e-08
7.58549e-08
8.61291e-08
7.60037e-08
8.62114e-08
7.59586e-08
8.62921e-08
7.62604e-08
8.57108e-08
7.5523e-08
8.58725e-08
7.57539e-08
8.57701e-08
7.55464e-08
8.5967e-08
7.62327e-08
8.58713e-08
7.55317e-08
8.58421e-08
7.58029e-08
8.59276e-08
7.58635e-08
8.58907e-08
7.58936e-08
8.5769e-08
7.56585e-08
8.59144e-08
7.54807e-08
8.58402e-08
7.62315e-08
8.58813e-08
7.5561e-08
8.57141e-08
7.56091e-08
8.58191e-08
7.59168e-08
8.60228e-08
7.58083e-08
8.58426e-08
7.57079e-08
8.59582e-08
7.57593e-08
8.5903e-08
7.59738e-08
8.5948e-08
7.57157e-08
8.59677e-08
7.57776e-08
8.57572e-08
7.5669e-08
8.60881e-08
7.60542e-08
8.58366e-08
7.56569e-08
8.60798e-08
7.61214e-08
8.6331e-08
7.58808e-08
8.5642e-08
7.57548e-08
8.60519e-08
7.6092e-08
8.59798e-08
7.57402e-08
8.59781e-08
7.57156e-08
8.59689e-08
7.60698e-08
8.62179e-08
7.60641e-08
8.60186e-08
7.57356e-08
8.61738e-08
7.605e-08
8.577e-08
7.57717e-08
8.58195e-08
7.5983e-08
8.60383e-08
7.57589e-08
8.57401e-08
7.5661e-08
8.60281e-08
7.60149e-08
8.60089e-08
7.57755e-08
8.57286e-08
7.59141e-08
8.59664e-08
7.56044e-08
8.58803e-08
7.57972e-08
8.5807e-08
7.56926e-08
8.57319e-08
7.57804e-08
8.58027e-08
7.54496e-08
8.5714e-08
7.57715e-08
8.57746e-08
7.56329e-08
8.56699e-08
7.53667e-08
8.5882e-08
7.6001e-08
8.59255e-08
7.57626e-08
8.59733e-08
7.59603e-08
8.59838e-08
7.57262e-08
8.6152e-08
7.60398e-08
8.59497e-08
7.59591e-08
8.60493e-08
7.59722e-08
8.60273e-08
7.58225e-08
8.60318e-08
7.58049e-08
8.57768e-08
7.57324e-08
8.55404e-08
7.55837e-08
8.60244e-08
7.59336e-08
8.59171e-08
7.58832e-08
8.59871e-08
7.56848e-08
8.5896e-08
7.58908e-08
8.59556e-08
7.59192e-08
8.60314e-08
7.57133e-08
8.60332e-08
7.60441e-08
8.60139e-08
7.57636e-08
8.62959e-08
7.64675e-08
8.59297e-08
7.55859e-08
8.5808e-08
7.58603e-08
8.57971e-08
7.54007e-08
8.6009e-08
7.63222e-08
8.58818e-08
7.56686e-08
8.5855e-08
7.55404e-08
8.59579e-08
7.58973e-08
8.58237e-08
7.57353e-08
8.58006e-08
7.56718e-08
8.57301e-08
7.55604e-08
8.59568e-08
7.60567e-08
8.59998e-08
7.59256e-08
8.58301e-08
7.54158e-08
8.58512e-08
7.58975e-08
8.60447e-08
7.592e-08
8.5894e-08
7.57461e-08
8.59468e-08
7.56976e-08
8.60423e-08
7.61169e-08
8.59117e-08
7.57646e-08
8.61528e-08
7.58298e-08
8.58189e-08
7.57671e-08
8.59801e-08
7.60182e-08
8.6185e-08
7.59986e-08
8.59368e-08
7.60267e-08
8.61228e-08
7.58546e-08
8.59133e-08
7.57862e-08
8.6041e-08
7.6181e-08
8.59998e-08
7.58636e-08
8.60499e-08
7.57625e-08
8.59794e-08
7.60402e-08
8.60851e-08
7.60343e-08
8.61169e-08
7.56851e-08
8.61602e-08
7.61435e-08
8.62275e-08
7.56684e-08
8.55826e-08
7.58551e-08
8.59737e-08
7.57999e-08
8.57722e-08
7.54939e-08
8.58872e-08
7.59786e-08
8.60092e-08
7.56126e-08
8.57448e-08
7.58344e-08
8.59121e-08
7.56332e-08
8.59451e-08
7.58649e-08
8.59139e-08
7.58459e-08
8.59736e-08
7.58556e-08
8.59485e-08
7.56913e-08
8.58552e-08
7.574e-08
8.57085e-08
7.56417e-08
8.57544e-08
7.54621e-08
8.58518e-08
7.58837e-08
8.59131e-08
7.57919e-08
8.61004e-08
7.6135e-08
8.60509e-08
7.57974e-08
8.61498e-08
7.60973e-08
8.60249e-08
7.58658e-08
8.59581e-08
7.60658e-08
8.61875e-08
7.57244e-08
8.6207e-08
7.57131e-08
8.58389e-08
7.5733e-08
8.5768e-08
7.56142e-08
8.58834e-08
7.58884e-08
8.59579e-08
7.58939e-08
8.58493e-08
7.56963e-08
8.58555e-08
7.57433e-08
8.59551e-08
7.60641e-08
8.59697e-08
7.56667e-08
8.6147e-08
7.59373e-08
8.60364e-08
7.58606e-08
8.6136e-08
7.64701e-08
8.60232e-08
7.56093e-08
8.58879e-08
7.60703e-08
8.58348e-08
7.5352e-08
8.59574e-08
7.59895e-08
8.59565e-08
7.59616e-08
8.59427e-08
7.5593e-08
8.59471e-08
7.58197e-08
8.5822e-08
7.56432e-08
8.61565e-08
7.59001e-08
8.57256e-08
7.56317e-08
8.58259e-08
7.57522e-08
8.58898e-08
7.61308e-08
8.5838e-08
7.54782e-08
8.59343e-08
7.58377e-08
8.60239e-08
7.59969e-08
8.60957e-08
7.59671e-08
8.59696e-08
7.57683e-08
8.61029e-08
7.60338e-08
8.59615e-08
7.58619e-08
8.59639e-08
7.58748e-08
8.60445e-08
7.56476e-08
8.57307e-08
7.59973e-08
8.61945e-08
7.61226e-08
8.61039e-08
7.5936e-08
8.58674e-08
7.58759e-08
8.58954e-08
7.55601e-08
8.59166e-08
7.60494e-08
8.59699e-08
7.59976e-08
8.59979e-08
7.58227e-08
8.61002e-08
7.595e-08
8.60764e-08
7.61999e-08
8.60692e-08
7.5638e-08
8.60948e-08
7.60536e-08
8.63224e-08
7.58144e-08
8.56443e-08
7.57412e-08
8.5943e-08
7.57573e-08
8.55843e-08
7.55212e-08
8.60662e-08
7.61555e-08
8.59265e-08
7.57418e-08
8.5926e-08
7.57656e-08
8.59962e-08
7.57891e-08
8.59769e-08
7.58443e-08
8.59913e-08
7.60555e-08
8.59219e-08
7.57531e-08
8.57614e-08
7.57185e-08
8.5896e-08
7.57152e-08
8.56883e-08
7.54856e-08
8.55899e-08
7.54951e-08
8.5844e-08
7.5834e-08
8.58856e-08
7.57265e-08
8.61675e-08
7.6213e-08
8.61795e-08
7.59098e-08
8.60941e-08
7.60899e-08
8.61571e-08
7.58292e-08
8.59658e-08
7.6151e-08
8.6135e-08
7.60306e-08
8.73585e-08
7.58174e-08
8.56861e-08
7.56777e-08
8.59779e-08
7.55433e-08
8.56921e-08
7.58297e-08
8.59687e-08
7.59421e-08
8.59931e-08
7.58531e-08
8.58676e-08
7.55955e-08
8.58212e-08
7.58808e-08
8.59035e-08
7.5779e-08
8.60728e-08
7.59107e-08
8.63053e-08
7.58426e-08
8.61163e-08
7.64903e-08
8.61231e-08
7.55668e-08
8.58663e-08
7.61754e-08
8.59205e-08
7.56449e-08
8.58918e-08
7.58211e-08
8.58571e-08
7.58311e-08
8.59138e-08
7.5772e-08
8.5856e-08
7.58524e-08
8.56169e-08
7.55164e-08
8.59631e-08
7.60166e-08
8.59239e-08
7.56637e-08
8.59043e-08
7.5817e-08
8.58066e-08
7.60471e-08
8.57487e-08
7.55407e-08
8.58612e-08
7.56794e-08
8.58985e-08
7.59249e-08
8.61002e-08
7.60879e-08
8.59756e-08
7.58279e-08
8.60421e-08
7.59075e-08
8.60211e-08
7.57986e-08
8.58481e-08
7.5884e-08
8.60596e-08
7.56865e-08
8.58932e-08
7.61194e-08
8.59402e-08
7.61417e-08
8.62251e-08
7.57165e-08
8.58098e-08
7.59206e-08
8.57867e-08
7.56125e-08
8.58896e-08
7.57842e-08
8.59485e-08
7.59406e-08
8.60423e-08
7.59796e-08
8.596e-08
7.57283e-08
8.6252e-08
7.62555e-08
8.60191e-08
7.58083e-08
8.59784e-08
7.59599e-08
8.62785e-08
7.58467e-08
8.57775e-08
7.5509e-08
8.60219e-08
7.59178e-08
8.55824e-08
7.5495e-08
8.60155e-08
7.61221e-08
8.60702e-08
7.60569e-08
8.59076e-08
7.56611e-08
8.6112e-08
7.59761e-08
8.59411e-08
7.56944e-08
8.60124e-08
7.59506e-08
8.59781e-08
7.5816e-08
8.56755e-08
7.55669e-08
8.57442e-08
7.58343e-08
8.57734e-08
7.54565e-08
8.56002e-08
7.55901e-08
8.58107e-08
7.59008e-08
8.5939e-08
7.57419e-08
8.6111e-08
7.6255e-08
8.62526e-08
7.60572e-08
8.60761e-08
7.60198e-08
8.62052e-08
7.6009e-08
8.61634e-08
7.61533e-08
8.59793e-08
7.71867e-08
7.56985e-08
8.5504e-08
7.5591e-08
8.58585e-08
7.56492e-08
8.56862e-08
7.5688e-08
8.5771e-08
7.59087e-08
8.60306e-08
7.59205e-08
8.60864e-08
7.57567e-08
8.56974e-08
7.5599e-08
8.59324e-08
7.58181e-08
8.59412e-08
7.60499e-08
8.63311e-08
7.5758e-08
8.61921e-08
7.64989e-08
8.61442e-08
7.56455e-08
8.58705e-08
7.60264e-08
8.58263e-08
7.58087e-08
8.60567e-08
7.60111e-08
8.58342e-08
7.57409e-08
8.57862e-08
7.56552e-08
8.58234e-08
7.56991e-08
8.57324e-08
7.56401e-08
8.57043e-08
7.59455e-08
8.595e-08
7.55902e-08
8.60585e-08
7.57115e-08
8.57446e-08
7.58979e-08
8.56777e-08
7.55503e-08
8.57441e-08
7.5686e-08
8.58829e-08
7.58084e-08
8.59737e-08
7.60152e-08
8.61713e-08
7.60619e-08
8.6024e-08
7.59641e-08
8.59484e-08
7.57438e-08
8.58383e-08
7.57333e-08
8.59506e-08
7.57703e-08
8.61008e-08
7.58913e-08
8.59722e-08
7.61784e-08
8.59348e-08
7.55941e-08
8.58013e-08
7.5817e-08
8.58987e-08
7.58738e-08
8.59821e-08
7.5844e-08
8.58867e-08
7.57679e-08
8.6165e-08
7.60958e-08
8.59062e-08
7.57765e-08
8.61342e-08
7.61347e-08
8.61603e-08
7.6005e-08
8.5885e-08
7.58675e-08
8.6021e-08
7.59913e-08
8.58649e-08
7.54191e-08
8.58718e-08
7.5913e-08
8.58733e-08
7.57723e-08
8.5868e-08
7.58954e-08
8.63026e-08
7.6248e-08
8.598e-08
7.56711e-08
8.59954e-08
7.59542e-08
8.5937e-08
7.57634e-08
8.58318e-08
7.57352e-08
8.60062e-08
7.58255e-08
8.57465e-08
7.55613e-08
8.56627e-08
7.56786e-08
8.56827e-08
7.54561e-08
8.56378e-08
7.55594e-08
8.57015e-08
7.58745e-08
8.59947e-08
7.58215e-08
8.59544e-08
7.601e-08
8.63068e-08
7.61213e-08
8.60151e-08
7.59148e-08
8.61263e-08
7.60602e-08
8.61545e-08
7.60736e-08
8.59822e-08
7.57401e-08
8.57077e-08
7.56269e-08
8.58122e-08
7.57906e-08
8.595e-08
7.57033e-08
8.58114e-08
7.57777e-08
8.58436e-08
7.58936e-08
8.61315e-08
7.59502e-08
8.58271e-08
7.55901e-08
8.59061e-08
7.57808e-08
8.59373e-08
7.61716e-08
8.62043e-08
7.59213e-08
8.64305e-08
7.62781e-08
8.61589e-08
7.58856e-08
8.60281e-08
7.58993e-08
8.57844e-08
7.56907e-08
8.59926e-08
7.60108e-08
8.59845e-08
7.57827e-08
8.5651e-08
7.55915e-08
8.5732e-08
7.55663e-08
8.5931e-08
7.56383e-08
8.5854e-08
7.60441e-08
8.58343e-08
7.56404e-08
8.59507e-08
7.58101e-08
8.58699e-08
7.58222e-08
8.56808e-08
7.54987e-08
8.58856e-08
7.57603e-08
8.61101e-08
7.60354e-08
8.58274e-08
7.5792e-08
8.61019e-08
7.60879e-08
8.60897e-08
7.59379e-08
8.59847e-08
7.58152e-08
8.57499e-08
7.56091e-08
8.58695e-08
7.58939e-08
8.60035e-08
7.58731e-08
8.6206e-08
7.61974e-08
8.59685e-08
7.56759e-08
8.58258e-08
7.57258e-08
8.58302e-08
7.57993e-08
8.59474e-08
7.59636e-08
8.58647e-08
7.56467e-08
8.5949e-08
7.60974e-08
8.61088e-08
7.58274e-08
8.59854e-08
7.60918e-08
8.62404e-08
7.60361e-08
8.59324e-08
7.57195e-08
8.59391e-08
7.6091e-08
8.56809e-08
7.53313e-08
8.56367e-08
7.56247e-08
8.60833e-08
7.59144e-08
8.58778e-08
7.59031e-08
8.60992e-08
7.61358e-08
8.61661e-08
7.57988e-08
8.57921e-08
7.57904e-08
8.60119e-08
7.59245e-08
8.59636e-08
7.57513e-08
8.57919e-08
7.5683e-08
8.58422e-08
7.55886e-08
8.5833e-08
7.56915e-08
8.56764e-08
7.55194e-08
8.57293e-08
7.56845e-08
8.58041e-08
7.58542e-08
8.60842e-08
7.60246e-08
8.61364e-08
7.59004e-08
8.62083e-08
7.61885e-08
8.61276e-08
7.58253e-08
8.59879e-08
7.59753e-08
8.61928e-08
7.61195e-08
8.60602e-08
7.58637e-08
8.58986e-08
7.57497e-08
8.56703e-08
7.58178e-08
8.59894e-08
7.57299e-08
8.59339e-08
7.57254e-08
8.58701e-08
7.59636e-08
8.58842e-08
7.59799e-08
8.60113e-08
7.55772e-08
8.58298e-08
7.58423e-08
8.59544e-08
7.59871e-08
8.61248e-08
7.60331e-08
8.62865e-08
7.61839e-08
8.61121e-08
7.60933e-08
8.60419e-08
7.59212e-08
8.59104e-08
7.56744e-08
8.57425e-08
7.5885e-08
8.60706e-08
7.58303e-08
8.56984e-08
7.55443e-08
8.56959e-08
7.5607e-08
8.57226e-08
7.55715e-08
8.59734e-08
7.60088e-08
8.59566e-08
7.57948e-08
8.58262e-08
7.57208e-08
8.58853e-08
7.58024e-08
8.56328e-08
7.5527e-08
8.57224e-08
7.55772e-08
8.61935e-08
7.61187e-08
8.60536e-08
7.59789e-08
8.60239e-08
7.59449e-08
8.59594e-08
7.57665e-08
8.59886e-08
7.58792e-08
8.57106e-08
7.55473e-08
8.58435e-08
7.58745e-08
8.60486e-08
7.6056e-08
8.61673e-08
7.62244e-08
8.6029e-08
7.56871e-08
8.59223e-08
7.57099e-08
8.58418e-08
7.5736e-08
8.58933e-08
7.59236e-08
8.59746e-08
7.5623e-08
8.58384e-08
7.60133e-08
8.61371e-08
7.58661e-08
8.60506e-08
7.59593e-08
8.61435e-08
7.60908e-08
8.59045e-08
7.56354e-08
8.5958e-08
7.60232e-08
8.57937e-08
7.54989e-08
8.55009e-08
7.54793e-08
8.59104e-08
7.59151e-08
8.60977e-08
7.59456e-08
8.59594e-08
7.60609e-08
8.61932e-08
7.5962e-08
8.58934e-08
7.57406e-08
8.58221e-08
7.59484e-08
8.61587e-08
7.57668e-08
8.57582e-08
7.57419e-08
8.56715e-08
7.55023e-08
8.5931e-08
7.57291e-08
8.57762e-08
7.57203e-08
8.58119e-08
7.57877e-08
8.59205e-08
7.58345e-08
8.60027e-08
7.61386e-08
8.62602e-08
7.5908e-08
8.61088e-08
7.61611e-08
8.62574e-08
7.59979e-08
8.59451e-08
7.58288e-08
8.63121e-08
7.62656e-08
8.61017e-08
7.57086e-08
8.59076e-08
7.58224e-08
8.5681e-08
7.57762e-08
8.56644e-08
7.57134e-08
8.6079e-08
7.57531e-08
8.59842e-08
7.57918e-08
8.57035e-08
7.59864e-08
8.59405e-08
7.5607e-08
8.60136e-08
7.59193e-08
8.58693e-08
7.58003e-08
8.61027e-08
7.60243e-08
8.63716e-08
7.61954e-08
8.61169e-08
7.61116e-08
8.60399e-08
7.58983e-08
8.59991e-08
7.56999e-08
8.56827e-08
7.57608e-08
8.5893e-08
7.60014e-08
8.57555e-08
7.54527e-08
8.58636e-08
7.56101e-08
8.56683e-08
7.57079e-08
8.58717e-08
7.57292e-08
8.60069e-08
7.59997e-08
8.57948e-08
7.56692e-08
8.58091e-08
7.56599e-08
8.58209e-08
7.56645e-08
8.5773e-08
7.56922e-08
8.59215e-08
7.60427e-08
8.62031e-08
7.59311e-08
8.60195e-08
7.59118e-08
8.58856e-08
7.57561e-08
8.58285e-08
7.58444e-08
8.59382e-08
7.56876e-08
8.58038e-08
7.58128e-08
8.61975e-08
7.60022e-08
8.60256e-08
7.61823e-08
8.59361e-08
7.56353e-08
8.58691e-08
7.57474e-08
8.58386e-08
7.57201e-08
8.58391e-08
7.58942e-08
8.59326e-08
7.56525e-08
8.60189e-08
7.602e-08
8.60205e-08
7.5953e-08
8.61314e-08
7.58373e-08
8.61534e-08
7.62044e-08
8.60504e-08
7.56926e-08
8.56166e-08
7.58226e-08
8.58909e-08
7.55254e-08
8.57563e-08
7.56618e-08
8.57e-08
7.59321e-08
8.61441e-08
7.58564e-08
8.61011e-08
7.61076e-08
8.60377e-08
7.59937e-08
8.60472e-08
7.56149e-08
8.56319e-08
7.57849e-08
8.58121e-08
7.56298e-08
8.5929e-08
7.57844e-08
8.57135e-08
7.56684e-08
8.58411e-08
7.57056e-08
8.58172e-08
7.58246e-08
8.58384e-08
7.58162e-08
8.59916e-08
7.58445e-08
8.59812e-08
7.61325e-08
8.61795e-08
7.58859e-08
8.59881e-08
7.59113e-08
8.61376e-08
7.61073e-08
8.59037e-08
7.56824e-08
8.61399e-08
7.61866e-08
8.61658e-08
7.57684e-08
8.59009e-08
7.57585e-08
8.58355e-08
7.57224e-08
8.55459e-08
7.55962e-08
8.61018e-08
7.60313e-08
8.60062e-08
7.57653e-08
8.59035e-08
7.59804e-08
8.56327e-08
7.5536e-08
8.60563e-08
7.58975e-08
8.59764e-08
7.58337e-08
8.60188e-08
7.60668e-08
8.63694e-08
7.60509e-08
8.61058e-08
7.6108e-08
8.59724e-08
7.58334e-08
8.59298e-08
7.56952e-08
8.59164e-08
7.57273e-08
8.57855e-08
7.60523e-08
8.57069e-08
7.53905e-08
8.57514e-08
7.56151e-08
8.58445e-08
7.57893e-08
8.5798e-08
7.56081e-08
8.60285e-08
7.59952e-08
8.58875e-08
7.57474e-08
8.57182e-08
7.56426e-08
8.56932e-08
7.55324e-08
8.59414e-08
7.57618e-08
8.59168e-08
7.60161e-08
8.60334e-08
7.59196e-08
8.61706e-08
7.58876e-08
8.60721e-08
7.5832e-08
8.56179e-08
7.57438e-08
8.60381e-08
7.58024e-08
8.58715e-08
7.58006e-08
8.61545e-08
7.59656e-08
8.59994e-08
7.60786e-08
8.59807e-08
7.57658e-08
8.57576e-08
7.57239e-08
8.5934e-08
7.5755e-08
8.5864e-08
7.59044e-08
8.57006e-08
7.56199e-08
8.61189e-08
7.59372e-08
8.59569e-08
7.59772e-08
8.60769e-08
7.58398e-08
8.60855e-08
7.59903e-08
8.63e-08
7.57536e-08
8.56076e-08
7.5841e-08
8.56436e-08
7.55636e-08
8.59189e-08
7.56034e-08
8.59716e-08
7.61318e-08
8.59446e-08
7.57316e-08
8.62464e-08
7.59897e-08
8.5962e-08
7.60509e-08
8.59603e-08
7.54551e-08
8.56907e-08
7.57803e-08
8.56227e-08
7.56161e-08
8.58065e-08
7.55978e-08
8.59894e-08
7.587e-08
8.58903e-08
7.56655e-08
8.59628e-08
7.5913e-08
8.58097e-08
7.58778e-08
8.59243e-08
7.57167e-08
8.58705e-08
7.59218e-08
8.61351e-08
7.60229e-08
8.59466e-08
7.56881e-08
8.5844e-08
7.60833e-08
8.61867e-08
7.58611e-08
8.60066e-08
7.60536e-08
8.62598e-08
7.60923e-08
8.59511e-08
7.58081e-08
8.59466e-08
7.57551e-08
8.552e-08
7.52904e-08
8.59345e-08
7.60462e-08
8.59436e-08
7.57931e-08
8.6004e-08
7.58527e-08
8.56306e-08
7.55461e-08
8.57888e-08
7.5916e-08
8.62859e-08
7.60038e-08
8.6109e-08
7.61652e-08
8.64096e-08
7.61185e-08
8.6234e-08
7.61687e-08
8.59971e-08
7.58233e-08
8.58026e-08
7.56729e-08
8.60132e-08
7.56734e-08
8.58122e-08