/*--------------------------------*- C++ -*----------------------------------*\
| =========                 |                                                 |
| \\      /  F ield         | OpenFOAM: The Open Source CFD Toolbox           |
|  \\    /   O peration     | Version:  2206                                  |
|   \\  /    A nd           | Website:  www.openfoam.com                      |
|    \\/     M anipulation  |                                                 |
\*---------------------------------------------------------------------------*/
FoamFile
{
    version     2.0;
    format      ascii;
    arch        "LSB;label=32;scalar=64";
    class       volScalarField;
    location    "0.3";
    object      nut;
}
// * * * * * * * * * * * * * * * * * * * * * * * * * * * * * * * * * * * * * //

dimensions      [0 2 -1 0 0 0 0];

internalField   nonuniform List<scalar> 
184150
(
6.15196e-15
6.08715e-15
6.04094e-15
6.08714e-15
6.02987e-15
5.35284e-15
6.15257e-15
6.10623e-15
5.23695e-15
6.07214e-15
6.09102e-15
6.02761e-15
6.17241e-15
5.38768e-15
6.07855e-15
6.07693e-15
5.28364e-15
5.36182e-15
6.07191e-15
5.24625e-15
6.0897e-15
6.02305e-15
5.34497e-15
6.07542e-15
5.38682e-15
5.24893e-15
6.03154e-15
5.36158e-15
5.35736e-15
5.3597e-15
5.24851e-15
5.35966e-15
5.28894e-15
6.0447e-15
5.40797e-15
6.1647e-15
5.37108e-15
5.30285e-15
6.05644e-15
6.16316e-15
5.28546e-15
5.26216e-15
6.07907e-15
5.36345e-15
5.276e-15
6.06495e-15
6.01832e-15
6.03849e-15
6.16593e-15
6.16183e-15
6.03101e-15
6.15066e-15
5.27153e-15
5.37016e-15
6.0415e-15
5.29807e-15
6.05302e-15
6.02677e-15
5.34335e-15
5.33582e-15
5.2252e-15
5.36875e-15
6.08562e-15
5.35233e-15
6.17024e-15
6.0772e-15
6.15567e-15
5.25002e-15
6.14939e-15
5.36316e-15
6.06927e-15
6.03088e-15
6.08184e-15
5.30007e-15
5.36163e-15
5.35706e-15
5.24712e-15
6.07677e-15
6.06619e-15
6.05218e-15
5.37977e-15
5.34424e-15
5.23706e-15
5.37231e-15
6.03408e-15
6.15267e-15
5.36902e-15
5.36788e-15
5.37724e-15
5.33214e-15
6.02602e-15
5.2446e-15
5.34272e-15
6.06173e-15
5.24534e-15
6.04442e-15
6.16119e-15
6.15468e-15
5.25481e-15
6.08792e-15
5.28192e-15
6.03289e-15
6.06913e-15
5.23801e-15
5.22566e-15
5.3657e-15
6.07961e-15
6.07738e-15
5.35518e-15
6.07167e-15
5.36544e-15
6.08192e-15
6.08634e-15
5.35448e-15
5.37074e-15
5.36076e-15
6.06339e-15
6.07447e-15
5.24967e-15
5.27036e-15
5.37596e-15
5.28808e-15
6.08407e-15
6.1581e-15
6.04405e-15
5.34116e-15
5.32958e-15
5.35914e-15
6.03912e-15
6.08909e-15
5.25131e-15
5.37074e-15
5.30611e-15
5.29025e-15
6.07975e-15
6.15345e-15
5.35693e-15
5.38181e-15
6.14718e-15
5.37193e-15
5.3388e-15
6.09403e-15
5.36595e-15
5.36184e-15
5.36262e-15
5.3664e-15
6.07161e-15
6.08409e-15
6.08595e-15
5.39802e-15
6.09217e-15
5.36476e-15
5.28681e-15
5.34374e-15
6.07915e-15
5.2826e-15
5.37009e-15
6.06172e-15
6.076e-15
6.06186e-15
5.39411e-15
5.35553e-15
6.08463e-15
6.08942e-15
5.35726e-15
6.08184e-15
6.1494e-15
6.13671e-15
5.37141e-15
5.39478e-15
6.1562e-15
5.3363e-15
5.23396e-15
5.36065e-15
6.06402e-15
6.15356e-15
6.0703e-15
5.37263e-15
5.34988e-15
6.1063e-15
6.02026e-15
6.09515e-15
5.22987e-15
5.3402e-15
5.37792e-15
6.09868e-15
6.06956e-15
6.08108e-15
5.38897e-15
6.0725e-15
6.07681e-15
6.08969e-15
6.07522e-15
5.27271e-15
5.38842e-15
6.16255e-15
6.09777e-15
5.28301e-15
5.38567e-15
5.37942e-15
5.36625e-15
6.06249e-15
5.36281e-15
5.37455e-15
6.09512e-15
6.16356e-15
5.28446e-15
5.36981e-15
5.29855e-15
5.37482e-15
5.229e-15
5.3458e-15
6.15028e-15
6.15723e-15
5.34976e-15
6.05556e-15
6.15591e-15
6.08421e-15
6.15827e-15
5.373e-15
5.24469e-15
6.04507e-15
6.08501e-15
5.37179e-15
5.25416e-15
5.3648e-15
6.06047e-15
6.08401e-15
5.37002e-15
6.02565e-15
6.07067e-15
5.26228e-15
5.22282e-15
5.26455e-15
5.35749e-15
5.28659e-15
5.40653e-15
5.23969e-15
5.35756e-15
6.03899e-15
5.28775e-15
5.25996e-15
5.39001e-15
5.29371e-15
6.08957e-15
5.38344e-15
6.15415e-15
5.35891e-15
5.3652e-15
5.37164e-15
6.01369e-15
5.36856e-15
5.26188e-15
6.08944e-15
5.40823e-15
6.01089e-15
5.38495e-15
6.08848e-15
5.34735e-15
6.09335e-15
5.37672e-15
5.34257e-15
6.07742e-15
5.2316e-15
5.22414e-15
5.27791e-15
6.06707e-15
5.29819e-15
6.09323e-15
6.098e-15
5.28018e-15
6.16285e-15
6.06883e-15
5.38013e-15
5.24776e-15
5.33741e-15
5.27781e-15
5.3538e-15
5.27847e-15
6.08193e-15
6.02951e-15
5.24991e-15
6.03321e-15
6.08814e-15
6.08108e-15
5.22783e-15
5.27352e-15
6.09254e-15
5.3475e-15
6.0784e-15
5.34667e-15
5.38316e-15
5.35336e-15
6.06791e-15
5.35061e-15
5.29808e-15
5.28933e-15
5.28596e-15
5.34918e-15
5.36118e-15
5.35132e-15
6.03887e-15
6.09254e-15
5.2187e-15
6.02739e-15
6.08994e-15
6.07439e-15
6.02843e-15
5.34104e-15
5.35981e-15
5.26447e-15
5.22137e-15
6.08221e-15
5.36915e-15
5.25249e-15
5.36767e-15
6.09662e-15
5.35624e-15
5.27836e-15
6.09082e-15
6.09154e-15
5.27026e-15
5.2907e-15
5.30269e-15
6.10161e-15
5.23815e-15
6.07342e-15
5.33767e-15
6.08375e-15
6.06412e-15
5.24427e-15
6.02445e-15
6.05233e-15
5.34197e-15
5.37633e-15
5.35588e-15
6.07737e-15
6.04329e-15
6.09981e-15
5.28196e-15
5.27411e-15
6.07885e-15
6.15521e-15
5.27269e-15
6.1416e-15
5.28082e-15
6.07766e-15
6.08501e-15
5.28207e-15
5.29616e-15
5.26754e-15
5.3698e-15
5.2744e-15
5.22429e-15
5.35105e-15
5.39614e-15
6.08339e-15
6.15965e-15
5.37086e-15
6.07528e-15
5.23173e-15
6.06614e-15
6.07505e-15
5.35771e-15
5.35142e-15
6.09048e-15
6.07062e-15
6.1681e-15
6.0695e-15
6.07798e-15
5.34469e-15
6.09037e-15
5.3714e-15
6.06406e-15
5.35155e-15
6.02862e-15
5.34676e-15
6.03214e-15
5.35716e-15
6.03245e-15
5.28153e-15
6.15075e-15
5.2787e-15
6.09771e-15
6.08812e-15
6.153e-15
5.36873e-15
6.02476e-15
5.35275e-15
6.07322e-15
6.07282e-15
5.32967e-15
6.15414e-15
6.15241e-15
6.14373e-15
6.15563e-15
5.36812e-15
6.06866e-15
5.34469e-15
6.10982e-15
6.03557e-15
5.27999e-15
5.3472e-15
6.14635e-15
6.16047e-15
5.35918e-15
5.28183e-15
5.28807e-15
6.14638e-15
6.07619e-15
6.11811e-15
6.16999e-15
5.3769e-15
6.08214e-15
6.04063e-15
6.09178e-15
5.31023e-15
6.0708e-15
6.07779e-15
6.063e-15
5.29685e-15
6.14947e-15
5.29043e-15
6.16163e-15
6.09133e-15
5.35304e-15
5.29508e-15
5.28355e-15
6.03576e-15
5.24201e-15
6.02268e-15
5.23673e-15
5.24758e-15
6.08013e-15
6.10868e-15
5.25083e-15
6.03371e-15
5.24323e-15
5.22798e-15
6.15755e-15
6.035e-15
6.14915e-15
6.04192e-15
6.04466e-15
5.24826e-15
6.07993e-15
6.14924e-15
6.03433e-15
6.1632e-15
6.16971e-15
6.14815e-15
6.09682e-15
5.24182e-15
6.10696e-15
6.03358e-15
6.07569e-15
5.34065e-15
5.28459e-15
5.23235e-15
5.24651e-15
6.02072e-15
5.37465e-15
5.22101e-15
6.08376e-15
6.02365e-15
5.2384e-15
5.36192e-15
5.26588e-15
6.02435e-15
5.23539e-15
6.01979e-15
5.27713e-15
6.16651e-15
6.15774e-15
5.23337e-15
6.15152e-15
6.1684e-15
5.29259e-15
6.02608e-15
5.22394e-15
5.29387e-15
6.03292e-15
6.17289e-15
6.1516e-15
6.02928e-15
6.15422e-15
6.08177e-15
5.25064e-15
5.2908e-15
6.03277e-15
6.03551e-15
6.15264e-15
5.25365e-15
6.06884e-15
6.05956e-15
6.03349e-15
6.07599e-15
6.15349e-15
5.27906e-15
6.1554e-15
5.23362e-15
5.28102e-15
6.14445e-15
5.35284e-15
6.02487e-15
5.28968e-15
5.22729e-15
6.02294e-15
6.06871e-15
6.07707e-15
5.24414e-15
6.03928e-15
5.28971e-15
5.28106e-15
6.16898e-15
6.17287e-15
5.27146e-15
6.1576e-15
6.03402e-15
5.25631e-15
6.03927e-15
5.2554e-15
6.04608e-15
6.04141e-15
6.14698e-15
5.25693e-15
5.27176e-15
6.14386e-15
5.2858e-15
6.03775e-15
5.29428e-15
6.15331e-15
5.2337e-15
6.0246e-15
5.23591e-15
6.03247e-15
5.37526e-15
6.09833e-15
5.38151e-15
6.07821e-15
5.35978e-15
6.08134e-15
5.39377e-15
6.07664e-15
5.3528e-15
6.07398e-15
5.35534e-15
6.07939e-15
5.36753e-15
6.09983e-15
5.39289e-15
6.08134e-15
5.35987e-15
6.11011e-15
5.39899e-15
6.08174e-15
5.37345e-15
6.07943e-15
5.37192e-15
6.0712e-15
5.33413e-15
6.05917e-15
5.35065e-15
6.06459e-15
5.36724e-15
6.07844e-15
5.3798e-15
6.08573e-15
5.35423e-15
6.09424e-15
5.38407e-15
6.0879e-15
5.36929e-15
6.08283e-15
5.38347e-15
6.08523e-15
5.38364e-15
6.08657e-15
5.3511e-15
6.07003e-15
5.36794e-15
6.08024e-15
5.35757e-15
6.07477e-15
5.37477e-15
6.09127e-15
5.37162e-15
6.06908e-15
5.35959e-15
6.0821e-15
5.37503e-15
6.0746e-15
5.36651e-15
6.09146e-15
5.36553e-15
6.08022e-15
5.37975e-15
6.09448e-15
5.39056e-15
6.0814e-15
5.37498e-15
6.08472e-15
5.34298e-15
6.09023e-15
5.40741e-15
6.10458e-15
5.37836e-15
6.07376e-15
5.35561e-15
6.0919e-15
5.35591e-15
6.0577e-15
5.36777e-15
6.08947e-15
5.36681e-15
6.0868e-15
5.37491e-15
6.09182e-15
5.38917e-15
6.08899e-15
5.37123e-15
6.08187e-15
5.37074e-15
6.0837e-15
5.36408e-15
6.07457e-15
5.35566e-15
6.08082e-15
5.36844e-15
6.08139e-15
5.37487e-15
6.09499e-15
5.36882e-15
6.07564e-15
5.36875e-15
6.08267e-15
5.36528e-15
6.08121e-15
5.37419e-15
6.07826e-15
5.35644e-15
6.08115e-15
5.37081e-15
6.05791e-15
5.3679e-15
6.07891e-15
5.36088e-15
6.07825e-15
5.35691e-15
6.05897e-15
5.34983e-15
6.05621e-15
5.3514e-15
6.09814e-15
5.38075e-15
6.08314e-15
5.38224e-15
6.08916e-15
5.35762e-15
6.08881e-15
5.39347e-15
6.08539e-15
5.36532e-15
6.06958e-15
5.35337e-15
6.0773e-15
5.37053e-15
6.07751e-15
5.42866e-15
6.15247e-15
5.35292e-15
6.09239e-15
5.37635e-15
6.08442e-15
5.36807e-15
6.06697e-15
5.3629e-15
6.08387e-15
5.36272e-15
6.06666e-15
5.34309e-15
6.08378e-15
5.35885e-15
6.08713e-15
5.39853e-15
6.08696e-15
5.36336e-15
6.10039e-15
5.4021e-15
6.09444e-15
5.37118e-15
6.07994e-15
5.36964e-15
6.06215e-15
5.33072e-15
6.06066e-15
5.35116e-15
6.07345e-15
5.36592e-15
6.08261e-15
5.38046e-15
6.08073e-15
5.36999e-15
6.09737e-15
5.37937e-15
6.09639e-15
5.36853e-15
6.08927e-15
5.38221e-15
6.07068e-15
5.37267e-15
6.10043e-15
5.36557e-15
6.05449e-15
5.35516e-15
6.08398e-15
5.35818e-15
6.06654e-15
5.36382e-15
6.08334e-15
5.37544e-15
6.07425e-15
5.33766e-15
6.07611e-15
5.36681e-15
6.07524e-15
5.36765e-15
6.08349e-15
5.36191e-15
6.08428e-15
5.37938e-15
6.09264e-15
5.38483e-15
6.08574e-15
5.37819e-15
6.07576e-15
5.35008e-15
6.09957e-15
5.39003e-15
6.10247e-15
5.40077e-15
6.07985e-15
5.34983e-15
6.07599e-15
5.34886e-15
6.06811e-15
5.36887e-15
6.09027e-15
5.37879e-15
6.08817e-15
5.35958e-15
6.09825e-15
5.38839e-15
6.09227e-15
5.37668e-15
6.08418e-15
5.36784e-15
6.09011e-15
5.37416e-15
6.06855e-15
5.3504e-15
6.09122e-15
5.37357e-15
6.08377e-15
5.37889e-15
6.09124e-15
5.37244e-15
6.08675e-15
5.37371e-15
6.07643e-15
5.36179e-15
6.08224e-15
5.3715e-15
6.08351e-15
5.36322e-15
6.08357e-15
5.35085e-15
6.05489e-15
5.3559e-15
6.05598e-15
5.35341e-15
6.07652e-15
5.35776e-15
6.07821e-15
5.34624e-15
6.04618e-15
5.34045e-15
6.09929e-15
5.3866e-15
6.08872e-15
5.3809e-15
6.09976e-15
5.36198e-15
6.08148e-15
5.38027e-15
6.08513e-15
5.36897e-15
6.08659e-15
5.36358e-15
6.08768e-15
5.35509e-15
6.06774e-15
5.41213e-15
6.13191e-15
5.34903e-15
6.08009e-15
5.3675e-15
6.09191e-15
5.37419e-15
6.07137e-15
5.35587e-15
6.07775e-15
5.36975e-15
6.07763e-15
5.35396e-15
6.09259e-15
5.36178e-15
6.08844e-15
5.39445e-15
6.08215e-15
5.35567e-15
6.09099e-15
5.40244e-15
6.09022e-15
5.36694e-15
6.08973e-15
5.37116e-15
6.06169e-15
5.32419e-15
6.05596e-15
5.36383e-15
6.07794e-15
5.36783e-15
6.0759e-15
5.36453e-15
6.0831e-15
5.37329e-15
6.08285e-15
5.37504e-15
6.09969e-15
5.36342e-15
6.09581e-15
5.37028e-15
6.05751e-15
5.35697e-15
6.09377e-15
5.3829e-15
6.06388e-15
5.33782e-15
6.08024e-15
5.37282e-15
6.07274e-15
5.35906e-15
6.07571e-15
5.38022e-15
6.08949e-15
5.35316e-15
6.078e-15
5.36524e-15
6.08194e-15
5.37257e-15
6.0794e-15
5.36184e-15
6.07746e-15
5.3651e-15
6.08427e-15
5.37508e-15
6.08885e-15
5.37017e-15
6.07329e-15
5.35361e-15
6.09076e-15
5.37856e-15
6.08494e-15
5.38917e-15
6.09778e-15
5.36867e-15
6.06394e-15
5.34804e-15
6.06852e-15
5.34518e-15
6.0876e-15
5.38983e-15
6.08865e-15
5.36396e-15
6.09353e-15
5.37702e-15
6.09669e-15
5.38712e-15
6.08612e-15
5.36766e-15
6.09147e-15
5.36989e-15
6.07268e-15
5.35431e-15
6.0716e-15
5.36324e-15
6.10069e-15
5.3823e-15
6.09145e-15
5.38081e-15
6.09617e-15
5.37164e-15
6.08205e-15
5.36417e-15
6.07023e-15
5.36616e-15
6.08603e-15
5.36965e-15
6.08e-15
5.3507e-15
6.07252e-15
5.34766e-15
6.05431e-15
5.35262e-15
6.06806e-15
5.36519e-15
6.07268e-15
5.35285e-15
6.05974e-15
5.33387e-15
6.09093e-15
5.40506e-15
6.10037e-15
5.37741e-15
6.09484e-15
5.3625e-15
6.08555e-15
5.36915e-15
6.07382e-15
5.36869e-15
6.08763e-15
5.37848e-15
6.09106e-15
5.35177e-15
6.07286e-15
5.38324e-15
6.08369e-15
5.35274e-15
6.07392e-15
5.3653e-15
6.07123e-15
5.36965e-15
6.08682e-15
5.35846e-15
6.06617e-15
5.36867e-15
6.08155e-15
5.35974e-15
6.08706e-15
5.36191e-15
6.08984e-15
5.38333e-15
6.08476e-15
5.36003e-15
6.08731e-15
5.39052e-15
6.07869e-15
5.36861e-15
6.08889e-15
5.37882e-15
6.06005e-15
5.32952e-15
6.05191e-15
5.35433e-15
6.0864e-15
5.37711e-15
6.07312e-15
5.35305e-15
6.08347e-15
5.36143e-15
6.07088e-15
5.36674e-15
6.08699e-15
5.37078e-15
6.0837e-15
5.36131e-15
6.05885e-15
5.35607e-15
6.0775e-15
5.39204e-15
6.08357e-15
5.3295e-15
6.07251e-15
5.37926e-15
6.0873e-15
5.36023e-15
6.07352e-15
5.36286e-15
6.08045e-15
5.36135e-15
6.07174e-15
5.36276e-15
6.0937e-15
5.38538e-15
6.08662e-15
5.36304e-15
6.07555e-15
5.36024e-15
6.08122e-15
5.37512e-15
6.08121e-15
5.37044e-15
6.08403e-15
5.34287e-15
6.0916e-15
5.38164e-15
6.0657e-15
5.37024e-15
6.09827e-15
5.37685e-15
6.07882e-15
5.36174e-15
6.07206e-15
5.34316e-15
6.08147e-15
5.37989e-15
6.10498e-15
5.38511e-15
6.08941e-15
5.37367e-15
6.09717e-15
5.37874e-15
6.08586e-15
5.37558e-15
6.08046e-15
5.36569e-15
6.0894e-15
5.36728e-15
6.06839e-15
5.36136e-15
6.09314e-15
5.38089e-15
6.10046e-15
5.38975e-15
6.08353e-15
5.35966e-15
6.09565e-15
5.36327e-15
6.06301e-15
5.35645e-15
6.08182e-15
5.37021e-15
6.07031e-15
5.35866e-15
6.07701e-15
5.35265e-15
6.06359e-15
5.34593e-15
6.0739e-15
5.38001e-15
6.07146e-15
5.36563e-15
6.07246e-15
5.32697e-15
6.08877e-15
5.4084e-15
6.09147e-15
5.37058e-15
6.08467e-15
5.36486e-15
6.09444e-15
5.35312e-15
6.06795e-15
5.37161e-15
6.08426e-15
5.38387e-15
6.08709e-15
5.35866e-15
6.0816e-15
5.36418e-15
6.10192e-15
5.35179e-15
6.08922e-15
5.3676e-15
6.07003e-15
5.3675e-15
6.08769e-15
5.35608e-15
6.0728e-15
5.36063e-15
6.07645e-15
5.36743e-15
6.08814e-15
5.36701e-15
6.08658e-15
5.36893e-15
6.09266e-15
5.36774e-15
6.09403e-15
5.38701e-15
6.09201e-15
5.37632e-15
6.07472e-15
5.36182e-15
6.07786e-15
5.34742e-15
6.05302e-15
5.34496e-15
6.08013e-15
5.38288e-15
6.07362e-15
5.34405e-15
6.07404e-15
5.35927e-15
6.07354e-15
5.36379e-15
6.08472e-15
5.37274e-15
6.07726e-15
5.35511e-15
6.07417e-15
5.34515e-15
6.06449e-15
5.39487e-15
6.07781e-15
5.33166e-15
6.06701e-15
5.3724e-15
6.09029e-15
5.36339e-15
6.07966e-15
5.36129e-15
6.07939e-15
5.36742e-15
6.08157e-15
5.36616e-15
6.0886e-15
5.37754e-15
6.08498e-15
5.36028e-15
6.07673e-15
5.35181e-15
6.07144e-15
5.36354e-15
6.0789e-15
5.37621e-15
6.06779e-15
5.33775e-15
6.10843e-15
5.38874e-15
6.07722e-15
5.37295e-15
6.06768e-15
5.36475e-15
6.09414e-15
5.37517e-15
6.08041e-15
5.35362e-15
6.07179e-15
5.36084e-15
6.09371e-15
5.38869e-15
6.09498e-15
5.37989e-15
6.08849e-15
5.36523e-15
6.09867e-15
5.38078e-15
6.06792e-15
5.36535e-15
6.09566e-15
5.37135e-15
6.07492e-15
5.35606e-15
6.07476e-15
5.36769e-15
6.10179e-15
5.3908e-15
6.0766e-15
5.36181e-15
6.08654e-15
5.37004e-15
6.07337e-15
5.3533e-15
6.07852e-15
5.37154e-15
6.07737e-15
5.36395e-15
6.06713e-15
5.35902e-15
6.07006e-15
5.33395e-15
6.07051e-15
5.37269e-15
6.06653e-15
5.36387e-15
6.06476e-15
5.32508e-15
6.08549e-15
5.39417e-15
6.08459e-15
5.36349e-15
6.08025e-15
5.36876e-15
6.08598e-15
5.35029e-15
6.0802e-15
5.37605e-15
6.07756e-15
5.37984e-15
6.09363e-15
5.36666e-15
6.0755e-15
5.37919e-15
6.11327e-15
6.07012e-15
5.35177e-15
6.07711e-15
5.35901e-15
6.08744e-15
5.37581e-15
6.07977e-15
5.3638e-15
6.08138e-15
5.36137e-15
6.07283e-15
5.36577e-15
6.08493e-15
5.36563e-15
6.08032e-15
5.36769e-15
6.09472e-15
5.37822e-15
6.10054e-15
5.37502e-15
6.10625e-15
5.39638e-15
6.06512e-15
5.3442e-15
6.07656e-15
5.36054e-15
6.06931e-15
5.34586e-15
6.08325e-15
5.39443e-15
6.07648e-15
5.34482e-15
6.07441e-15
5.36401e-15
6.08046e-15
5.3683e-15
6.07785e-15
5.37042e-15
6.06923e-15
5.35379e-15
6.07952e-15
5.34121e-15
6.07428e-15
5.39434e-15
6.07718e-15
5.34689e-15
6.06535e-15
5.3503e-15
6.07278e-15
5.37207e-15
6.0872e-15
5.36439e-15
6.07444e-15
5.35728e-15
6.08262e-15
5.36092e-15
6.07872e-15
5.3761e-15
6.0819e-15
5.35784e-15
6.08329e-15
5.36222e-15
6.0684e-15
5.35453e-15
6.09181e-15
5.38179e-15
6.07402e-15
5.35368e-15
6.09123e-15
5.38654e-15
6.10901e-15
5.36952e-15
6.06025e-15
5.36061e-15
6.08925e-15
5.38447e-15
6.08415e-15
5.35957e-15
6.08403e-15
5.35783e-15
6.08338e-15
5.3829e-15
6.101e-15
5.38249e-15
6.0869e-15
5.35925e-15
6.09788e-15
5.38149e-15
6.0693e-15
5.3618e-15
6.07281e-15
5.37675e-15
6.08829e-15
5.3609e-15
6.06719e-15
5.35397e-15
6.08757e-15
5.37901e-15
6.08621e-15
5.36207e-15
6.06638e-15
5.37188e-15
6.0832e-15
5.34996e-15
6.07711e-15
5.36361e-15
6.07193e-15
5.3562e-15
6.06661e-15
5.36242e-15
6.07162e-15
5.33901e-15
6.06534e-15
5.36179e-15
6.06963e-15
5.35198e-15
6.06222e-15
5.33314e-15
6.07723e-15
5.37803e-15
6.08031e-15
5.36116e-15
6.08369e-15
5.37515e-15
6.08444e-15
5.35858e-15
6.09634e-15
5.38077e-15
6.08202e-15
5.37506e-15
6.08907e-15
5.37599e-15
6.08751e-15
5.36539e-15
6.08783e-15
5.36415e-15
6.06979e-15
5.35902e-15
6.05306e-15
5.3485e-15
6.08731e-15
5.37326e-15
6.07972e-15
5.36969e-15
6.08467e-15
5.35565e-15
6.07822e-15
5.37023e-15
6.08244e-15
5.37224e-15
6.08781e-15
5.35767e-15
6.08793e-15
5.38107e-15
6.08656e-15
5.36123e-15
6.10652e-15
5.41103e-15
6.0806e-15
5.34865e-15
6.07199e-15
5.36807e-15
6.07123e-15
5.33555e-15
6.08622e-15
5.40076e-15
6.07722e-15
5.35451e-15
6.07532e-15
5.34543e-15
6.0826e-15
5.37069e-15
6.07311e-15
5.35923e-15
6.07147e-15
5.35473e-15
6.06648e-15
5.34685e-15
6.08252e-15
5.38197e-15
6.08557e-15
5.37269e-15
6.07356e-15
5.33662e-15
6.07505e-15
5.3707e-15
6.08874e-15
5.37229e-15
6.07808e-15
5.35999e-15
6.08182e-15
5.35656e-15
6.08857e-15
5.38623e-15
6.07933e-15
5.3613e-15
6.09639e-15
5.36591e-15
6.07277e-15
5.36148e-15
6.08417e-15
5.37925e-15
6.09867e-15
5.37786e-15
6.08111e-15
5.37984e-15
6.09427e-15
5.36767e-15
6.07944e-15
5.36283e-15
6.08848e-15
5.39076e-15
6.08557e-15
5.3683e-15
6.08912e-15
5.36115e-15
6.08412e-15
5.3808e-15
6.0916e-15
5.38038e-15
6.09385e-15
5.35567e-15
6.09692e-15
5.38811e-15
6.10168e-15
5.35449e-15
6.05604e-15
5.3677e-15
6.08372e-15
5.3638e-15
6.06946e-15
5.34214e-15
6.0776e-15
5.37644e-15
6.08623e-15
5.35054e-15
6.06752e-15
5.36624e-15
6.07936e-15
5.352e-15
6.08169e-15
5.3684e-15
6.07949e-15
5.36705e-15
6.08372e-15
5.36774e-15
6.08194e-15
5.35611e-15
6.07533e-15
5.35956e-15
6.06496e-15
5.3526e-15
6.0682e-15
5.33989e-15
6.07509e-15
5.36972e-15
6.07943e-15
5.36323e-15
6.09269e-15
5.38751e-15
6.08918e-15
5.36362e-15
6.09618e-15
5.38484e-15
6.08734e-15
5.36846e-15
6.08262e-15
5.38261e-15
6.09885e-15
5.35845e-15
6.10023e-15
5.35765e-15
6.07418e-15
5.35906e-15
6.06917e-15
5.35065e-15
6.07733e-15
5.37006e-15
6.0826e-15
5.37045e-15
6.07491e-15
5.35646e-15
6.07536e-15
5.35979e-15
6.0824e-15
5.38249e-15
6.08344e-15
5.35437e-15
6.09598e-15
5.37352e-15
6.08816e-15
5.36809e-15
6.09521e-15
5.41122e-15
6.08722e-15
5.3503e-15
6.07765e-15
5.38293e-15
6.07389e-15
5.3321e-15
6.08256e-15
5.37721e-15
6.0825e-15
5.37524e-15
6.08153e-15
5.34915e-15
6.08184e-15
5.36519e-15
6.07299e-15
5.3527e-15
6.09666e-15
5.37089e-15
6.06616e-15
5.35189e-15
6.07326e-15
5.36042e-15
6.07778e-15
5.38721e-15
6.07412e-15
5.34103e-15
6.08093e-15
5.36647e-15
6.08727e-15
5.37773e-15
6.09235e-15
5.37563e-15
6.08343e-15
5.36156e-15
6.09286e-15
5.38035e-15
6.08286e-15
5.36818e-15
6.08303e-15
5.36909e-15
6.08873e-15
5.35302e-15
6.06652e-15
5.37777e-15
6.09934e-15
5.38663e-15
6.09293e-15
5.37342e-15
6.0762e-15
5.36917e-15
6.07818e-15
5.34682e-15
6.07968e-15
5.38145e-15
6.08345e-15
5.37779e-15
6.08543e-15
5.36541e-15
6.09267e-15
5.37442e-15
6.09098e-15
5.3921e-15
6.09047e-15
5.35234e-15
6.09229e-15
5.38175e-15
6.10839e-15
5.36482e-15
6.06041e-15
5.35964e-15
6.08155e-15
5.36078e-15
6.05617e-15
5.34408e-15
6.09027e-15
5.38896e-15
6.08038e-15
5.35969e-15
6.08034e-15
5.36137e-15
6.08531e-15
5.36303e-15
6.08394e-15
5.36694e-15
6.08497e-15
5.38188e-15
6.08005e-15
5.36048e-15
6.06869e-15
5.35803e-15
6.07822e-15
5.3578e-15
6.06352e-15
5.34156e-15
6.05656e-15
5.34222e-15
6.07454e-15
5.36621e-15
6.07748e-15
5.3586e-15
6.09743e-15
5.39303e-15
6.09829e-15
5.37157e-15
6.09224e-15
5.38432e-15
6.0967e-15
5.36587e-15
6.08316e-15
5.38864e-15
6.09513e-15
5.38012e-15
6.18171e-15
5.36503e-15
6.06337e-15
5.35515e-15
6.08402e-15
5.34564e-15
6.06379e-15
5.36591e-15
6.08337e-15
5.37386e-15
6.0851e-15
5.36756e-15
6.07622e-15
5.34933e-15
6.07293e-15
5.36952e-15
6.07875e-15
5.36232e-15
6.09073e-15
5.37163e-15
6.10719e-15
5.36681e-15
6.09381e-15
5.41265e-15
6.09429e-15
5.3473e-15
6.07612e-15
5.39037e-15
6.07996e-15
5.35283e-15
6.07792e-15
5.3653e-15
6.07547e-15
5.366e-15
6.07948e-15
5.36182e-15
6.07539e-15
5.36751e-15
6.05847e-15
5.34373e-15
6.08297e-15
5.37913e-15
6.0802e-15
5.35416e-15
6.07881e-15
5.365e-15
6.0719e-15
5.38129e-15
6.0678e-15
5.34545e-15
6.07576e-15
5.35527e-15
6.0784e-15
5.37264e-15
6.09267e-15
5.38418e-15
6.08385e-15
5.36578e-15
6.08856e-15
5.37141e-15
6.08708e-15
5.3637e-15
6.07483e-15
5.36975e-15
6.0898e-15
5.35577e-15
6.07803e-15
5.3864e-15
6.08135e-15
5.38798e-15
6.10151e-15
5.35789e-15
6.07212e-15
5.37234e-15
6.07049e-15
5.35054e-15
6.07777e-15
5.36268e-15
6.08194e-15
5.37375e-15
6.08858e-15
5.37651e-15
6.08275e-15
5.35873e-15
6.10341e-15
5.39604e-15
6.08693e-15
5.36439e-15
6.08406e-15
5.37512e-15
6.10529e-15
5.3671e-15
6.06984e-15
5.34321e-15
6.08713e-15
5.37214e-15
6.05603e-15
5.34222e-15
6.08668e-15
5.3866e-15
6.09055e-15
5.38198e-15
6.07904e-15
5.35397e-15
6.09351e-15
5.37627e-15
6.08141e-15
5.35633e-15
6.08646e-15
5.37446e-15
6.08403e-15
5.36494e-15
6.06262e-15
5.34731e-15
6.06748e-15
5.36623e-15
6.06954e-15
5.3395e-15
6.05729e-15
5.34895e-15
6.07218e-15
5.37093e-15
6.08127e-15
5.35969e-15
6.09343e-15
5.396e-15
6.10346e-15
5.382e-15
6.09097e-15
5.37936e-15
6.1001e-15
5.37859e-15
6.09715e-15
5.3888e-15
6.08412e-15
5.46193e-15
5.35662e-15
6.05048e-15
5.34901e-15
6.07557e-15
5.35313e-15
6.06338e-15
5.35588e-15
6.06938e-15
5.3715e-15
6.08775e-15
5.37233e-15
6.09169e-15
5.36074e-15
6.06417e-15
5.34958e-15
6.0808e-15
5.36509e-15
6.08142e-15
5.38149e-15
6.10901e-15
5.36083e-15
6.09917e-15
5.41326e-15
6.09579e-15
5.35287e-15
6.07642e-15
5.37982e-15
6.07329e-15
5.36442e-15
6.08959e-15
5.37874e-15
6.07385e-15
5.35962e-15
6.07045e-15
5.35356e-15
6.07308e-15
5.35666e-15
6.06665e-15
5.35249e-15
6.06466e-15
5.3741e-15
6.08204e-15
5.34895e-15
6.08972e-15
5.35754e-15
6.06751e-15
5.37073e-15
6.06277e-15
5.34613e-15
6.06747e-15
5.35574e-15
6.0773e-15
5.3644e-15
6.08372e-15
5.37903e-15
6.0977e-15
5.38233e-15
6.08728e-15
5.37542e-15
6.08193e-15
5.35983e-15
6.07414e-15
5.35908e-15
6.08208e-15
5.36171e-15
6.09271e-15
5.37026e-15
6.08361e-15
5.39058e-15
6.08097e-15
5.34924e-15
6.07152e-15
5.36501e-15
6.07841e-15
5.36903e-15
6.08432e-15
5.36691e-15
6.07756e-15
5.36153e-15
6.09725e-15
5.38474e-15
6.07894e-15
5.36214e-15
6.09508e-15
5.38748e-15
6.09693e-15
5.37831e-15
6.07744e-15
5.36858e-15
6.08707e-15
5.37734e-15
6.07602e-15
5.33685e-15
6.07651e-15
5.3718e-15
6.07661e-15
5.36184e-15
6.07624e-15
5.37055e-15
6.10699e-15
5.39551e-15
6.08416e-15
5.35468e-15
6.08526e-15
5.37471e-15
6.08113e-15
5.36122e-15
6.07368e-15
5.35922e-15
6.08602e-15
5.36561e-15
6.06765e-15
5.34691e-15
6.06171e-15
5.35522e-15
6.06313e-15
5.33947e-15
6.05995e-15
5.34678e-15
6.06446e-15
5.36908e-15
6.08521e-15
5.36533e-15
6.08235e-15
5.37867e-15
6.1073e-15
5.38654e-15
6.08665e-15
5.37193e-15
6.09452e-15
5.38222e-15
6.09652e-15
5.38317e-15
6.08432e-15
5.35956e-15
6.0649e-15
5.35156e-15
6.07229e-15
5.36314e-15
6.08204e-15
5.35696e-15
6.07224e-15
5.36222e-15
6.07452e-15
5.37043e-15
6.09489e-15
5.37443e-15
6.07334e-15
5.34895e-15
6.07894e-15
5.36245e-15
6.08115e-15
5.3901e-15
6.10004e-15
5.37239e-15
6.11604e-15
5.39764e-15
6.09683e-15
5.36986e-15
6.08757e-15
5.37083e-15
6.07032e-15
5.35607e-15
6.08506e-15
5.37872e-15
6.08448e-15
5.36258e-15
6.06088e-15
5.34905e-15
6.06662e-15
5.34726e-15
6.0807e-15
5.35236e-15
6.07525e-15
5.38108e-15
6.07386e-15
5.35251e-15
6.0821e-15
5.36452e-15
6.07638e-15
5.36538e-15
6.06299e-15
5.34248e-15
6.07749e-15
5.361e-15
6.09337e-15
5.38046e-15
6.07337e-15
5.36324e-15
6.09279e-15
5.38418e-15
6.09193e-15
5.37357e-15
6.0845e-15
5.36488e-15
6.06788e-15
5.3503e-15
6.07635e-15
5.37045e-15
6.08583e-15
5.36897e-15
6.10016e-15
5.39192e-15
6.08335e-15
5.35502e-15
6.07325e-15
5.35856e-15
6.07356e-15
5.36375e-15
6.08186e-15
5.37538e-15
6.07601e-15
5.35296e-15
6.08197e-15
5.38485e-15
6.09328e-15
5.36574e-15
6.08455e-15
5.38445e-15
6.10259e-15
5.38051e-15
6.0808e-15
5.35811e-15
6.08127e-15
5.3844e-15
6.063e-15
5.33064e-15
6.05987e-15
5.3514e-15
6.09148e-15
5.3719e-15
6.07694e-15
5.3711e-15
6.09261e-15
5.38757e-15
6.09734e-15
5.36372e-15
6.07087e-15
5.36312e-15
6.08642e-15
5.37262e-15
6.08301e-15
5.36036e-15
6.07086e-15
5.35553e-15
6.07442e-15
5.34884e-15
6.07376e-15
5.35612e-15
6.06269e-15
5.34395e-15
6.06643e-15
5.35563e-15
6.07172e-15
5.36764e-15
6.09154e-15
5.37969e-15
6.09524e-15
5.37091e-15
6.10032e-15
5.3913e-15
6.09461e-15
5.36559e-15
6.08473e-15
5.37621e-15
6.09922e-15
5.38641e-15
6.08984e-15
5.36831e-15
6.07841e-15
5.36024e-15
6.06225e-15
5.36507e-15
6.08483e-15
5.35884e-15
6.08091e-15
5.35852e-15
6.07639e-15
5.37538e-15
6.07739e-15
5.37654e-15
6.08638e-15
5.34804e-15
6.07354e-15
5.36679e-15
6.08235e-15
5.37704e-15
6.09441e-15
5.3803e-15
6.10586e-15
5.39097e-15
6.09352e-15
5.38456e-15
6.08855e-15
5.37238e-15
6.07924e-15
5.35492e-15
6.06736e-15
5.36982e-15
6.09058e-15
5.36595e-15
6.06424e-15
5.34571e-15
6.06406e-15
5.35015e-15
6.06595e-15
5.34764e-15
6.0837e-15
5.37858e-15
6.08251e-15
5.36344e-15
6.07328e-15
5.3582e-15
6.07747e-15
5.36398e-15
6.0596e-15
5.34448e-15
6.06594e-15
5.34804e-15
6.09927e-15
5.38636e-15
6.08937e-15
5.37647e-15
6.08727e-15
5.37405e-15
6.08271e-15
5.36143e-15
6.08478e-15
5.36941e-15
6.0651e-15
5.34592e-15
6.07451e-15
5.36907e-15
6.08902e-15
5.38192e-15
6.09742e-15
5.39383e-15
6.08763e-15
5.35581e-15
6.08008e-15
5.35743e-15
6.07438e-15
5.35928e-15
6.07803e-15
5.37255e-15
6.08379e-15
5.35128e-15
6.07415e-15
5.3789e-15
6.09528e-15
5.36848e-15
6.08917e-15
5.37508e-15
6.09573e-15
5.38438e-15
6.07882e-15
5.35216e-15
6.08261e-15
5.3796e-15
6.07099e-15
5.34249e-15
6.05026e-15
5.34111e-15
6.07924e-15
5.37195e-15
6.09249e-15
5.37411e-15
6.08271e-15
5.38226e-15
6.09925e-15
5.37527e-15
6.07804e-15
5.3596e-15
6.07299e-15
5.3743e-15
6.09682e-15
5.36145e-15
6.06847e-15
5.35969e-15
6.06234e-15
5.34274e-15
6.0807e-15
5.35879e-15
6.06975e-15
5.35817e-15
6.07227e-15
5.36293e-15
6.07996e-15
5.36624e-15
6.08577e-15
5.38776e-15
6.104e-15
5.37144e-15
6.09328e-15
5.38936e-15
6.10379e-15
5.37781e-15
6.0817e-15
5.36584e-15
6.10767e-15
5.39675e-15
6.09278e-15
5.35734e-15
6.07904e-15
5.36539e-15
6.06301e-15
5.36212e-15
6.06184e-15
5.35767e-15
6.09118e-15
5.36048e-15
6.08446e-15
5.36323e-15
6.0646e-15
5.377e-15
6.08137e-15
5.35015e-15
6.08654e-15
5.37225e-15
6.07633e-15
5.36382e-15
6.09285e-15
5.37967e-15
6.11188e-15
5.39178e-15
6.09386e-15
5.38585e-15
6.0884e-15
5.37076e-15
6.08552e-15
5.35672e-15
6.06313e-15
5.36103e-15
6.07801e-15
5.37805e-15
6.06828e-15
5.33923e-15
6.07593e-15
5.35036e-15
6.06211e-15
5.35728e-15
6.0765e-15
5.35879e-15
6.08607e-15
5.37793e-15
6.07106e-15
5.35454e-15
6.07207e-15
5.35389e-15
6.07291e-15
5.35422e-15
6.06952e-15
5.35617e-15
6.08003e-15
5.38098e-15
6.09995e-15
5.37308e-15
6.08696e-15
5.37171e-15
6.07748e-15
5.3607e-15
6.07345e-15
5.36695e-15
6.08121e-15
5.35585e-15
6.0717e-15
5.36471e-15
6.09956e-15
5.37811e-15
6.08739e-15
5.39085e-15
6.08106e-15
5.35215e-15
6.07632e-15
5.36008e-15
6.07416e-15
5.35815e-15
6.0742e-15
5.37047e-15
6.08081e-15
5.35337e-15
6.08692e-15
5.37937e-15
6.08703e-15
5.37463e-15
6.09488e-15
5.36644e-15
6.09644e-15
5.39242e-15
6.08915e-15
5.3562e-15
6.05845e-15
5.3654e-15
6.07786e-15
5.34437e-15
6.06834e-15
5.35403e-15
6.06435e-15
5.37315e-15
6.09578e-15
5.36779e-15
6.09274e-15
5.38557e-15
6.08825e-15
5.37751e-15
6.08892e-15
5.3507e-15
6.05953e-15
5.36274e-15
6.07229e-15
5.35176e-15
6.08056e-15
5.3627e-15
6.06531e-15
5.35449e-15
6.07434e-15
5.35712e-15
6.07264e-15
5.36554e-15
6.07414e-15
5.36495e-15
6.08499e-15
5.36695e-15
6.08425e-15
5.38733e-15
6.09828e-15
5.36988e-15
6.08474e-15
5.37168e-15
6.09532e-15
5.38555e-15
6.07877e-15
5.35548e-15
6.09548e-15
5.39116e-15
6.09732e-15
5.36157e-15
6.07857e-15
5.36087e-15
6.07394e-15
5.35831e-15
6.05345e-15
5.34938e-15
6.09278e-15
5.38017e-15
6.08602e-15
5.36135e-15
6.07875e-15
5.37657e-15
6.05959e-15
5.34512e-15
6.08957e-15
5.3707e-15
6.08391e-15
5.36619e-15
6.08691e-15
5.38269e-15
6.11172e-15
5.38155e-15
6.09307e-15
5.3856e-15
6.08363e-15
5.36617e-15
6.08061e-15
5.35638e-15
6.07967e-15
5.35866e-15
6.0704e-15
5.38166e-15
6.06484e-15
5.33483e-15
6.06799e-15
5.35072e-15
6.07458e-15
5.36305e-15
6.07129e-15
5.35022e-15
6.0876e-15
5.37761e-15
6.07762e-15
5.36008e-15
6.06564e-15
5.35266e-15
6.06387e-15
5.34487e-15
6.08143e-15
5.3611e-15
6.07969e-15
5.37909e-15
6.08794e-15
5.37226e-15
6.09765e-15
5.37e-15
6.09068e-15
5.36607e-15
6.05854e-15
5.35983e-15
6.08828e-15
5.36397e-15
6.07648e-15
5.36385e-15
6.09651e-15
5.37552e-15
6.08554e-15
5.38352e-15
6.08421e-15
5.36138e-15
6.06843e-15
5.35842e-15
6.08091e-15
5.36062e-15
6.07596e-15
5.37119e-15
6.06439e-15
5.35106e-15
6.09399e-15
5.37351e-15
6.08253e-15
5.37634e-15
6.09102e-15
5.36662e-15
6.09163e-15
5.37727e-15
6.10681e-15
5.36052e-15
6.05781e-15
5.36671e-15
6.06036e-15
5.34707e-15
6.07984e-15
5.34989e-15
6.08357e-15
5.38728e-15
6.08166e-15
5.35896e-15
6.10302e-15
5.37723e-15
6.08289e-15
5.38155e-15
6.08277e-15
5.3394e-15
6.0637e-15
5.36241e-15
6.05888e-15
5.35079e-15
6.07189e-15
5.34949e-15
6.08483e-15
5.36876e-15
6.07782e-15
5.35429e-15
6.08295e-15
5.3718e-15
6.07212e-15
5.36931e-15
6.08022e-15
5.35791e-15
6.07641e-15
5.37242e-15
6.09514e-15
5.37957e-15
6.0818e-15
5.35589e-15
6.07454e-15
5.38385e-15
6.09879e-15
5.36813e-15
6.08605e-15
5.38175e-15
6.10396e-15
5.38449e-15
6.08212e-15
5.36438e-15
6.0818e-15
5.36063e-15
6.05162e-15
5.32774e-15
6.08095e-15
5.38122e-15
6.08159e-15
5.36332e-15
6.08586e-15
5.36753e-15
6.05944e-15
5.34584e-15
6.07063e-15
5.37201e-15
6.10581e-15
5.37823e-15
6.09329e-15
5.38964e-15
6.11456e-15
5.38634e-15
6.10214e-15
5.38989e-15
6.08537e-15
5.36545e-15
6.07161e-15