/*--------------------------------*- C++ -*----------------------------------*\
| =========                 |                                                 |
| \\      /  F ield         | OpenFOAM: The Open Source CFD Toolbox           |
|  \\    /   O peration     | Version:  2206                                  |
|   \\  /    A nd           | Website:  www.openfoam.com                      |
|    \\/     M anipulation  |                                                 |
\*---------------------------------------------------------------------------*/
FoamFile
{
    version     2.0;
    format      ascii;
    arch        "LSB;label=32;scalar=64";
    class       volScalarField;
    location    "0.4";
    object      p;
}
// * * * * * * * * * * * * * * * * * * * * * * * * * * * * * * * * * * * * * //

dimensions      [0 2 -2 0 0 0 0];

internalField   nonuniform List<scalar> 
66940
(
-0.0186174
-0.0186175
-0.0186175
-0.0186038
-0.0188342
-0.0188342
-0.0188342
-0.0188207
-0.0190508
-0.0190507
-0.0190508
-0.019037
-0.0192674
-0.0192673
-0.0192673
-0.0192538
-0.019484
-0.0194836
-0.0194837
-0.0194698
-0.0197005
-0.0196998
-0.0196999
-0.0196861
-0.0199171
-0.0199157
-0.0199159
-0.0199016
-0.0201336
-0.0201309
-0.0201314
-0.0201176
-0.0203492
-0.0203443
-0.0203464
-0.020334
-0.020558
-0.0205504
-0.0205586
-0.0205539
-0.0206694
-0.0207034
-0.0207429
-0.0207755
-0.0196236
-0.0202215
-0.0203962
-0.020648
-0.0185768
-0.0185634
-0.0185634
-0.0185768
-0.0185633
-0.0185633
-0.0185633
-0.0185633
-0.0185768
-0.0185634
-0.0185634
-0.0185767
-0.018604
-0.0187935
-0.0186175
-0.0186175
-0.01878
-0.01878
-0.018604
-0.0187934
-0.0186175
-0.0186175
-0.01878
-0.01878
-0.0186173
-0.01878
-0.0187801
-0.018604
-0.0187934
-0.0186175
-0.01878
-0.01878
-0.0187938
-0.0188206
-0.0190101
-0.0188342
-0.0188342
-0.0189967
-0.0189967
-0.0188206
-0.0190101
-0.0188341
-0.0188341
-0.0189967
-0.0189967
-0.0188342
-0.0189967
-0.0189965
-0.0188206
-0.0190101
-0.0188342
-0.0189967
-0.0189967
-0.01901
-0.0190372
-0.0192268
-0.0190508
-0.0190508
-0.0192134
-0.0192133
-0.0190372
-0.0192267
-0.0190507
-0.0190507
-0.0192134
-0.0192133
-0.0190506
-0.0192134
-0.0192135
-0.0190372
-0.0192268
-0.0190508
-0.0192134
-0.0192134
-0.0192271
-0.0192537
-0.0194434
-0.0192673
-0.0192673
-0.0194301
-0.0194301
-0.0192537
-0.0194434
-0.0192673
-0.0192673
-0.0194301
-0.01943
-0.0192673
-0.0194301
-0.0194299
-0.0192537
-0.0194434
-0.0192674
-0.0194301
-0.01943
-0.0194434
-0.01947
-0.0196602
-0.0194836
-0.0194837
-0.0196469
-0.0196469
-0.0194699
-0.0196601
-0.0194836
-0.0194836
-0.0196469
-0.0196469
-0.0194835
-0.0196469
-0.019647
-0.01947
-0.0196602
-0.0194837
-0.0196469
-0.0196469
-0.0196604
-0.019686
-0.0198771
-0.0196998
-0.0196998
-0.019864
-0.019864
-0.019686
-0.019877
-0.0196998
-0.0196998
-0.019864
-0.019864
-0.0196999
-0.019864
-0.0198639
-0.019686
-0.0198771
-0.0196999
-0.019864
-0.019864
-0.0198771
-0.0199017
-0.0200942
-0.0199158
-0.0199158
-0.0200816
-0.0200814
-0.0199016
-0.020094
-0.0199158
-0.0199158
-0.0200816
-0.0200817
-0.0199156
-0.0200814
-0.0200817
-0.0199018
-0.0200943
-0.0199158
-0.0200816
-0.0200815
-0.0200945
-0.0201174
-0.0203115
-0.0201311
-0.020131
-0.0203
-0.0202995
-0.0201172
-0.0203106
-0.0201312
-0.0201313
-0.0203003
-0.0203007
-0.0201311
-0.0202994
-0.0202996
-0.0201176
-0.0203119
-0.0201313
-0.0203004
-0.0203
-0.0203113
-0.0203345
-0.0205257
-0.0203454
-0.0203447
-0.0205215
-0.0205183
-0.0203335
-0.020522
-0.0203455
-0.0203461
-0.0205228
-0.0205238
-0.0203446
-0.0205181
-0.0205199
-0.0203351
-0.020529
-0.0203456
-0.0205229
-0.0205207
-0.0205255
-0.020557
-0.0207297
-0.0205545
-0.0205506
-0.0207292
-0.0207172
-0.0205516
-0.0207073
-0.0205566
-0.0205587
-0.020737
-0.0207459
-0.0205526
-0.0207173
-0.0207256
-0.0205595
-0.0207391
-0.0205547
-0.0207437
-0.0207308
-0.0207212
-0.0207801
-0.020676
-0.0207175
-0.0207015
-0.0205263
-0.0205098
-0.0207497
-0.0205536
-0.0207284
-0.0207424
-0.0206069
-0.0206544
-0.0207234
-0.0205604
-0.0206314
-0.0207927
-0.020723
-0.0207329
-0.0206632
-0.0206573
-0.0206309
-0.0206223
-0.0201887
-0.0201239
-0.0205246
-0.0202741
-0.020367
-0.0196213
-0.0197872
-0.0197366
-0.0202546
-0.0207295
-0.020323
-0.0184686
-0.0185632
-0.0185632
-0.0185632
-0.0185632
-0.0184682
-0.0184553
-0.0184683
-0.0184548
-0.0184688
-0.0184686
-0.0184687
-0.0186851
-0.018604
-0.018604
-0.0186851
-0.018604
-0.0186851
-0.0186852
-0.0186041
-0.018604
-0.0186852
-0.0186174
-0.0186174
-0.0186174
-0.01878
-0.01878
-0.01878
-0.01878
-0.018685
-0.0186042
-0.0186176
-0.0186716
-0.0186042
-0.018685
-0.0186718
-0.0186041
-0.0186851
-0.0186847
-0.0186175
-0.0186042
-0.0186716
-0.0186045
-0.0186714
-0.0186848
-0.0186039
-0.0186041
-0.0186851
-0.0186854
-0.018685
-0.0189018
-0.0188207
-0.0188207
-0.0189018
-0.0188207
-0.0189018
-0.0189018
-0.0188207
-0.0188206
-0.0189018
-0.0188342
-0.0188342
-0.0188342
-0.0189966
-0.0189966
-0.0189966
-0.0189966
-0.0189016
-0.0188208
-0.0188341
-0.0188883
-0.0188208
-0.0189016
-0.0188883
-0.0188207
-0.0189017
-0.0189015
-0.0188341
-0.0188209
-0.0188884
-0.018821
-0.0188883
-0.0189015
-0.0188206
-0.0188207
-0.0189018
-0.0189018
-0.0189018
-0.0191184
-0.0190373
-0.0190374
-0.0191184
-0.0190373
-0.0191184
-0.0191185
-0.0190373
-0.0190372
-0.0191184
-0.0190508
-0.0190508
-0.0190507
-0.0192132
-0.0192132
-0.0192132
-0.0192133
-0.0191183
-0.0190374
-0.0190507
-0.019105
-0.0190374
-0.0191183
-0.019105
-0.0190373
-0.0191184
-0.0191181
-0.0190508
-0.0190376
-0.019105
-0.0190376
-0.019105
-0.0191182
-0.0190372
-0.0190374
-0.0191184
-0.0191186
-0.0191182
-0.019335
-0.0192539
-0.019254
-0.019335
-0.0192539
-0.019335
-0.0193351
-0.0192539
-0.0192539
-0.019335
-0.0192674
-0.0192674
-0.0192674
-0.0194298
-0.0194297
-0.0194297
-0.0194297
-0.0193349
-0.019254
-0.0192673
-0.0193217
-0.019254
-0.0193349
-0.0193216
-0.0192539
-0.019335
-0.0193347
-0.0192673
-0.0192542
-0.0193217
-0.0192542
-0.0193217
-0.0193348
-0.0192539
-0.0192539
-0.0193351
-0.019335
-0.019335
-0.0195515
-0.0194705
-0.0194705
-0.0195515
-0.0194705
-0.0195515
-0.0195516
-0.0194704
-0.0194704
-0.0195515
-0.019484
-0.019484
-0.0194839
-0.0196463
-0.0196462
-0.0196463
-0.0196464
-0.0195514
-0.0194706
-0.0194836
-0.0195385
-0.0194705
-0.0195514
-0.0195384
-0.0194705
-0.0195515
-0.0195513
-0.0194837
-0.0194707
-0.0195385
-0.0194707
-0.0195384
-0.0195513
-0.0194703
-0.0194705
-0.0195518
-0.0195517
-0.0195514
-0.0197681
-0.019687
-0.019687
-0.0197681
-0.019687
-0.019768
-0.0197682
-0.019687
-0.019687
-0.0197681
-0.0197006
-0.0197006
-0.0197007
-0.0198628
-0.0198628
-0.0198628
-0.0198627
-0.019768
-0.0196871
-0.0196999
-0.0197554
-0.0196869
-0.019768
-0.0197552
-0.019687
-0.0197681
-0.0197678
-0.0196999
-0.0196872
-0.0197554
-0.0196872
-0.0197552
-0.0197679
-0.019687
-0.019687
-0.0197686
-0.0197681
-0.0197681
-0.0199847
-0.0199036
-0.0199036
-0.0199846
-0.0199035
-0.0199845
-0.0199849
-0.0199036
-0.0199036
-0.0199847
-0.0199171
-0.0199172
-0.019917
-0.0200796
-0.0200795
-0.0200797
-0.0200797
-0.0199848
-0.0199037
-0.0199158
-0.0199726
-0.0199031
-0.0199845
-0.0199725
-0.0199036
-0.0199847
-0.0199846
-0.0199159
-0.0199039
-0.0199727
-0.0199035
-0.0199725
-0.0199845
-0.0199035
-0.0199037
-0.0199857
-0.0199848
-0.0199845
-0.0202011
-0.0201201
-0.02012
-0.0202009
-0.02012
-0.0202006
-0.0202017
-0.0201202
-0.0201203
-0.0202012
-0.0201334
-0.0201337
-0.0201336
-0.0202978
-0.0202972
-0.0202981
-0.0202976
-0.0202014
-0.0201202
-0.0201308
-0.0201904
-0.0201189
-0.0202008
-0.0201906
-0.0201204
-0.0202013
-0.0202017
-0.0201312
-0.0201206
-0.0201908
-0.0201198
-0.0201909
-0.0202012
-0.0201201
-0.0201202
-0.0202027
-0.0202009
-0.020201
-0.0204167
-0.0203361
-0.0203355
-0.0204164
-0.0203356
-0.020415
-0.0204191
-0.0203369
-0.0203371
-0.0204178
-0.0203485
-0.0203498
-0.0203491
-0.0205193
-0.0205161
-0.0205203
-0.0205176
-0.0204171
-0.0203362
-0.0203445
-0.0204089
-0.0203333
-0.0204155
-0.0204109
-0.0203375
-0.0204185
-0.0204188
-0.0203462
-0.0203377
-0.0204111
-0.0203362
-0.0204128
-0.0204183
-0.0203362
-0.0203367
-0.0204193
-0.0204164
-0.0204167
-0.0206284
-0.0205509
-0.0205486
-0.0206303
-0.0205479
-0.0206235
-0.0206412
-0.0205549
-0.0205551
-0.0206384
-0.0205541
-0.0205607
-0.0205566
-0.020724
-0.0207101
-0.0207317
-0.0207205
-0.0206277
-0.0205488
-0.0205514
-0.0206241
-0.0205441
-0.0206247
-0.0206335
-0.0205573
-0.020642
-0.0206372
-0.0205577
-0.0205568
-0.0206344
-0.0205507
-0.0206413
-0.0206391
-0.0205509
-0.0205529
-0.0206268
-0.0206317
-0.0206345
-0.0208196
-0.0207686
-0.0207533
-0.0208778
-0.0207545
-0.0208346
-0.0209
-0.0207942
-0.0207903
-0.0209285
-0.0206527
-0.020683
-0.0206734
-0.0203594
-0.0203317
-0.0204222
-0.0204322
-0.0207977
-0.0207511
-0.0206867
-0.0207534
-0.0207377
-0.0208249
-0.0207743
-0.020807
-0.0209398
-0.0208443
-0.0207102
-0.0207927
-0.020797
-0.0207575
-0.0208022
-0.02089
-0.020769
-0.0207768
-0.020774
-0.0208528
-0.020876
-0.0219962
-0.0210079
-0.0207869
-0.0249423
-0.021067
-0.0270852
-0.0228321
-0.0213624
-0.0210416
-0.0249091
-0.0183076
-0.0197431
-0.019793
-0.0190344
-0.0195957
-0.0185555
-0.0186301
-0.0210613
-0.0209425
-0.0201221
-0.0195914
-0.0207165
-0.0225782
-0.0189379
-0.021371
-0.0250256
-0.0211869
-0.0201644
-0.0211182
-0.0195812
-0.0207878
-0.0189867
-0.0233614
-0.0209589
-0.0211355
-0.0199963
-0.0241836
-0.0225033
-0.0185767
-0.0184958
-0.0185769
-0.0184958
-0.0184958
-0.0185768
-0.0185769
-0.0184958
-0.0184957
-0.0184687
-0.0184553
-0.0184687
-0.0184959
-0.0185767
-0.0184959
-0.0185765
-0.0184959
-0.0185767
-0.0184959
-0.0185765
-0.0184958
-0.0185094
-0.0185764
-0.0185636
-0.0184959
-0.0185094
-0.0185761
-0.0184958
-0.0185094
-0.0185764
-0.0185636
-0.0184959
-0.0185094
-0.0185761
-0.0184687
-0.0184687
-0.0184686
-0.0184685
-0.0185768
-0.0184958
-0.0184958
-0.0185768
-0.0185769
-0.0184958
-0.0184958
-0.0185769
-0.0184958
-0.0184957
-0.0185769
-0.0184958
-0.0185769
-0.0184958
-0.0185093
-0.0185767
-0.0185634
-0.0184959
-0.018509
-0.0185768
-0.0184957
-0.0185769
-0.0184958
-0.0185769
-0.0184959
-0.0185093
-0.0185635
-0.0185767
-0.0185091
-0.0184959
-0.0185768
-0.0184685
-0.0184685
-0.0184682
-0.0184553
-0.0184548
-0.0184683
-0.0184685
-0.0184685
-0.0184959
-0.0185093
-0.0185767
-0.0185633
-0.0184959
-0.018509
-0.0185767
-0.0184957
-0.0185769
-0.0184958
-0.0185769
-0.0184959
-0.0185093
-0.0185633
-0.0185767
-0.018509
-0.018496
-0.0185767
-0.0184957
-0.0185769
-0.0184958
-0.0185769
-0.0185769
-0.0184958
-0.0184958
-0.0185769
-0.0185768
-0.0184958
-0.0184958
-0.0185767
-0.0184959
-0.0184958
-0.0185095
-0.0185637
-0.0185764
-0.0185095
-0.0184959
-0.0185762
-0.0184958
-0.0185095
-0.0185636
-0.0185765
-0.0185095
-0.0184959
-0.0185762
-0.0184959
-0.0185767
-0.018496
-0.0185765
-0.0184959
-0.0185767
-0.018496
-0.0185765
-0.0184686
-0.0184686
-0.0184959
-0.0185769
-0.0185769
-0.0184958
-0.0184958
-0.0185769
-0.0184958
-0.0185768
-0.0184959
-0.018604
-0.0186851
-0.0186041
-0.0186852
-0.018604
-0.018604
-0.0186851
-0.0186852
-0.0186852
-0.0187935
-0.0187124
-0.0187934
-0.0187124
-0.0187123
-0.0187935
-0.0187935
-0.0187123
-0.0187123
-0.0186851
-0.018604
-0.018604
-0.0186851
-0.0186848
-0.0186042
-0.0186174
-0.0186716
-0.0186044
-0.0186849
-0.0186714
-0.0186848
-0.0186042
-0.0186174
-0.0186716
-0.0186044
-0.0186849
-0.0186714
-0.0187123
-0.0187935
-0.0187124
-0.0187935
-0.0187123
-0.0187935
-0.0187124
-0.0187935
-0.0187126
-0.0187258
-0.0187932
-0.0187799
-0.0187126
-0.0187256
-0.0187931
-0.0187126
-0.0187258
-0.0187932
-0.0187799
-0.0187126
-0.0187256
-0.0187931
-0.018604
-0.018604
-0.0186853
-0.018685
-0.0186853
-0.0186041
-0.0186852
-0.0187935
-0.0187124
-0.0187124
-0.0187935
-0.0187935
-0.0187123
-0.0187124
-0.0187934
-0.0187124
-0.018685
-0.0186042
-0.0186177
-0.0186717
-0.0186042
-0.018685
-0.0186717
-0.0186852
-0.0186041
-0.018604
-0.0186852
-0.018685
-0.0186177
-0.0186042
-0.0186716
-0.0186042
-0.0186718
-0.018685
-0.0187123
-0.0187935
-0.0187124
-0.0187935
-0.0187125
-0.0187258
-0.0187933
-0.0187799
-0.0187125
-0.0187258
-0.0187933
-0.0187123
-0.0187935
-0.0187124
-0.0187935
-0.0187125
-0.0187259
-0.0187799
-0.0187933
-0.0187258
-0.0187125
-0.0187933
-0.0186852
-0.0186041
-0.018604
-0.0186852
-0.018685
-0.0186176
-0.0186042
-0.0186717
-0.0186042
-0.0186717
-0.018685
-0.0186852
-0.0186041
-0.018604
-0.0186852
-0.0187125
-0.0187258
-0.0187933
-0.01878
-0.0187125
-0.0187258
-0.0187933
-0.0187123
-0.0187935
-0.0187124
-0.0187935
-0.0187125
-0.0187257
-0.01878
-0.0187933
-0.0187259
-0.0187125
-0.0187933
-0.0187123
-0.0187935
-0.0187124
-0.0187935
-0.018604
-0.0186039
-0.018685
-0.0186852
-0.0186851
-0.018604
-0.0186851
-0.0187934
-0.0187123
-0.0187122
-0.0187935
-0.0187935
-0.0187123
-0.0187123
-0.0187934
-0.0187124
-0.0186847
-0.0186175
-0.0186042
-0.0186715
-0.0186045
-0.0186714
-0.0186848
-0.018685
-0.0186039
-0.018604
-0.0186851
-0.0186851
-0.018604
-0.018604
-0.0186851
-0.0187126
-0.0187258
-0.0187799
-0.0187932
-0.0187256
-0.0187126
-0.0187931
-0.0187126
-0.0187258
-0.0187799
-0.0187932
-0.0187256
-0.0187126
-0.0187931
-0.0187123
-0.0187934
-0.0187124
-0.0187934
-0.0187123
-0.0187935
-0.0187124
-0.0187934
-0.0186041
-0.0186852
-0.018604
-0.0186851
-0.018712
-0.0187936
-0.0187934
-0.0187123
-0.0187123
-0.0187935
-0.0187124
-0.0187935
-0.0187124
-0.0188207
-0.0189018
-0.0188207
-0.0189017
-0.0188207
-0.0188206
-0.0189018
-0.0189018
-0.0189018
-0.0190101
-0.018929
-0.0190101
-0.018929
-0.0189289
-0.0190101
-0.0190101
-0.018929
-0.0189289
-0.0189018
-0.0188207
-0.0188207
-0.0189018
-0.0189015
-0.0188209
-0.0188342
-0.0188884
-0.018821
-0.0189016
-0.0188884
-0.0189015
-0.0188209
-0.0188342
-0.0188884
-0.018821
-0.0189016
-0.0188884
-0.018929
-0.0190101
-0.018929
-0.0190101
-0.018929
-0.0190101
-0.018929
-0.0190101
-0.0189293
-0.0189425
-0.0190099
-0.0189966
-0.0189293
-0.0189425
-0.0190098
-0.0189293
-0.0189425
-0.0190099
-0.0189966
-0.0189293
-0.0189425
-0.0190098
-0.0188207
-0.0188206
-0.0189018
-0.0189018
-0.0189018
-0.0188207
-0.0189017
-0.0190101
-0.018929
-0.0189289
-0.0190101
-0.0190101
-0.018929
-0.0189289
-0.0190101
-0.018929
-0.0189016
-0.0188208
-0.0188341
-0.0188883
-0.0188207
-0.0189016
-0.0188883
-0.0189018
-0.0188207
-0.0188206
-0.0189018
-0.0189016
-0.0188341
-0.0188208
-0.0188883
-0.0188207
-0.0188883
-0.0189016
-0.0189289
-0.0190101
-0.018929
-0.0190101
-0.0189291
-0.0189425
-0.0190099
-0.0189966
-0.0189291
-0.0189424
-0.0190099
-0.0189289
-0.0190101
-0.0189289
-0.0190101
-0.0189291
-0.0189425
-0.0189966
-0.0190099
-0.0189424
-0.0189291
-0.0190099
-0.0189018
-0.0188207
-0.0188206
-0.0189018
-0.0189016
-0.0188341
-0.0188208
-0.0188883
-0.0188208
-0.0188883
-0.0189016
-0.0189018
-0.0188206
-0.0188206
-0.0189018
-0.0189291
-0.0189425
-0.0190099
-0.0189966
-0.0189291
-0.0189424
-0.0190099
-0.0189289
-0.0190101
-0.018929
-0.0190101
-0.0189291
-0.0189424
-0.0189966
-0.0190099
-0.0189424
-0.0189291
-0.0190099
-0.0189289
-0.0190101
-0.018929
-0.0190101
-0.0188206
-0.0188206
-0.0189017
-0.0189018
-0.0189018
-0.0188207
-0.0189018
-0.0190101
-0.0189289
-0.0189289
-0.0190101
-0.0190101
-0.0189289
-0.018929
-0.0190101
-0.018929
-0.0189015
-0.0188341
-0.018821
-0.0188884
-0.018821
-0.0188883
-0.0189016
-0.0189018
-0.0188207
-0.0188207
-0.0189018
-0.0189018
-0.0188207
-0.0188207
-0.0189018
-0.0189293
-0.0189425
-0.0189966
-0.0190099
-0.0189425
-0.0189292
-0.0190098
-0.0189293
-0.0189425
-0.0189966
-0.0190099
-0.0189424
-0.0189293
-0.0190098
-0.018929
-0.0190101
-0.018929
-0.0190101
-0.018929
-0.0190101
-0.018929
-0.0190101
-0.0188206
-0.0189017
-0.0188207
-0.0189018
-0.018929
-0.0190101
-0.0190102
-0.0189289
-0.018929
-0.0190101
-0.018929
-0.0190101
-0.018929
-0.0190373
-0.0191184
-0.0190373
-0.0191184
-0.0190373
-0.0190372
-0.0191184
-0.0191184
-0.0191184
-0.0192267
-0.0191456
-0.0192267
-0.0191456
-0.0191455
-0.0192267
-0.0192267
-0.0191456
-0.0191455
-0.0191184
-0.0190373
-0.0190374
-0.0191184
-0.0191181
-0.0190376
-0.0190507
-0.019105
-0.0190376
-0.0191182
-0.019105
-0.0191181
-0.0190376
-0.0190507
-0.019105
-0.0190376
-0.0191182
-0.019105
-0.0191457
-0.0192267
-0.0191456
-0.0192267
-0.0191457
-0.0192267
-0.0191456
-0.0192267
-0.0191459
-0.019159
-0.0192265
-0.0192133
-0.0191459
-0.0191591
-0.0192264
-0.0191459
-0.019159
-0.0192265
-0.0192133
-0.0191459
-0.019159
-0.0192264
-0.0190373
-0.0190372
-0.0191187
-0.0191183
-0.0191185
-0.0190373
-0.0191184
-0.0192267
-0.0191456
-0.0191456
-0.0192268
-0.0192267
-0.0191455
-0.0191456
-0.0192267
-0.0191456
-0.0191183
-0.0190374
-0.0190507
-0.019105
-0.0190374
-0.0191183
-0.0191049
-0.0191185
-0.0190373
-0.0190372
-0.0191184
-0.0191183
-0.0190507
-0.0190374
-0.019105
-0.0190374
-0.019105
-0.0191183
-0.0191456
-0.0192267
-0.0191456
-0.0192268
-0.0191457
-0.019159
-0.0192266
-0.0192133
-0.0191457
-0.019159
-0.0192266
-0.0191456
-0.0192267
-0.0191456
-0.0192268
-0.0191457
-0.019159
-0.0192133
-0.0192266
-0.019159
-0.0191457
-0.0192266
-0.0191185
-0.0190373
-0.0190372
-0.0191184
-0.0191183
-0.0190507
-0.0190374
-0.019105
-0.0190374
-0.019105
-0.0191183
-0.0191185
-0.0190373
-0.0190372
-0.0191184
-0.0191457
-0.019159
-0.0192266
-0.0192133
-0.0191458
-0.019159
-0.0192266
-0.0191456
-0.0192267
-0.0191456
-0.0192268
-0.0191457
-0.019159
-0.0192134
-0.0192266
-0.0191591
-0.0191458
-0.0192266
-0.0191456
-0.0192267
-0.0191456
-0.0192268
-0.0190373
-0.0190372
-0.0191184
-0.0191185
-0.0191184
-0.0190373
-0.0191184
-0.0192267
-0.0191456
-0.0191454
-0.0192268
-0.0192267
-0.0191456
-0.0191456
-0.0192267
-0.0191457
-0.0191181
-0.0190508
-0.0190376
-0.019105
-0.0190376
-0.019105
-0.0191182
-0.0191184
-0.0190373
-0.0190374
-0.0191184
-0.0191184
-0.0190373
-0.0190374
-0.0191184
-0.019146
-0.0191591
-0.0192133
-0.0192265
-0.019159
-0.0191459
-0.0192264
-0.0191459
-0.0191592
-0.0192133
-0.0192265
-0.0191591
-0.0191459
-0.0192264
-0.0191457
-0.0192267
-0.0191456
-0.0192267
-0.0191457
-0.0192267
-0.0191456
-0.0192267
-0.0190373
-0.0191184
-0.0190373
-0.0191184
-0.0191452
-0.0192268
-0.0192267
-0.0191456
-0.0191456
-0.0192267
-0.0191456
-0.0192267
-0.0191456
-0.0192539
-0.019335
-0.0192539
-0.019335
-0.0192539
-0.0192539
-0.0193351
-0.019335
-0.019335
-0.0194432
-0.0193622
-0.0194432
-0.0193622
-0.0193619
-0.0194433
-0.0194433
-0.0193622
-0.0193621
-0.019335
-0.0192539
-0.019254
-0.019335
-0.0193347
-0.0192542
-0.0192673
-0.0193217
-0.0192542
-0.0193348
-0.0193217
-0.0193347
-0.0192542
-0.0192673
-0.0193217
-0.0192542
-0.0193348
-0.0193217
-0.0193622
-0.0194433
-0.0193622
-0.0194433
-0.0193622
-0.0194433
-0.0193622
-0.0194433
-0.0193625
-0.0193755
-0.019443
-0.01943
-0.0193625
-0.0193755
-0.019443
-0.0193625
-0.0193755
-0.0194431
-0.01943
-0.0193625
-0.0193755
-0.019443
-0.0192539
-0.0192538
-0.0193351
-0.019335
-0.019335
-0.0192539
-0.019335
-0.0194433
-0.0193622
-0.0193619
-0.0194433
-0.0194433
-0.0193622
-0.0193621
-0.0194432
-0.0193622
-0.0193349
-0.019254
-0.0192673
-0.0193217
-0.019254
-0.0193349
-0.0193216
-0.0193351
-0.0192539
-0.0192539
-0.019335
-0.0193349
-0.0192673
-0.0192541
-0.0193217
-0.019254
-0.0193216
-0.0193349
-0.0193621
-0.0194433
-0.0193622
-0.0194433
-0.0193622
-0.0193755
-0.0194431
-0.01943
-0.0193623
-0.0193755
-0.0194431
-0.0193621
-0.0194433
-0.0193622
-0.0194433
-0.0193622
-0.0193754
-0.01943
-0.0194431
-0.0193755
-0.0193623
-0.0194431
-0.0193351
-0.0192539
-0.0192539
-0.019335
-0.0193349
-0.0192673
-0.0192541
-0.0193217
-0.019254
-0.0193216
-0.0193349
-0.0193351
-0.0192539
-0.0192539
-0.019335
-0.0193622
-0.0193755
-0.0194431
-0.0194299
-0.0193623
-0.0193755
-0.0194431
-0.0193621
-0.0194433
-0.0193622
-0.0194433
-0.0193622
-0.0193754
-0.0194299
-0.0194431
-0.0193755
-0.0193623
-0.0194431
-0.0193621
-0.0194433
-0.0193622
-0.0194433
-0.0192539
-0.0192539
-0.019335
-0.0193351
-0.019335
-0.0192539
-0.019335
-0.0194433
-0.0193622
-0.0193619
-0.0194433
-0.0194433
-0.0193622
-0.0193622
-0.0194433
-0.0193622
-0.0193347
-0.0192673
-0.0192542
-0.0193217
-0.0192542
-0.0193216
-0.0193348
-0.019335
-0.0192539
-0.019254
-0.019335
-0.019335
-0.019254
-0.019254
-0.019335
-0.0193625
-0.0193755
-0.01943
-0.0194431
-0.0193755
-0.0193625
-0.019443
-0.0193625
-0.0193755
-0.01943
-0.0194431
-0.0193755
-0.0193625
-0.019443
-0.0193622
-0.0194433
-0.0193622
-0.0194433
-0.0193622
-0.0194433
-0.0193622
-0.0194433
-0.0192539
-0.019335
-0.019254
-0.019335
-0.0193619
-0.0194433
-0.0194434
-0.0193621
-0.0193622
-0.0194432
-0.0193622
-0.0194433
-0.0193622
-0.0194705
-0.0195515
-0.0194705
-0.0195515
-0.0194704
-0.0194704
-0.0195518
-0.0195516
-0.0195516
-0.0196598
-0.0195787
-0.0196598
-0.0195787
-0.019578
-0.0196598
-0.0196599
-0.0195787
-0.0195787
-0.0195515
-0.0194705
-0.0194705
-0.0195515
-0.0195512
-0.0194707
-0.0194837
-0.0195385
-0.0194707
-0.0195513
-0.0195384
-0.0195512
-0.0194707
-0.0194837
-0.0195385
-0.0194707
-0.0195513
-0.0195384
-0.0195788
-0.0196598
-0.0195787
-0.0196598
-0.0195788
-0.0196598
-0.0195787
-0.0196598
-0.0195789
-0.0195918
-0.0196596
-0.0196468
-0.019579
-0.0195918
-0.0196595
-0.0195789
-0.0195918
-0.0196596
-0.0196468
-0.019579
-0.0195918
-0.0196595
-0.0194705
-0.0194704
-0.019552
-0.0195515
-0.0195517
-0.0194705
-0.0195515
-0.0196598
-0.0195787
-0.0195781
-0.0196599
-0.0196598
-0.0195787
-0.0195787
-0.0196598
-0.0195787
-0.0195514
-0.0194706
-0.0194836
-0.0195385
-0.0194704
-0.0195514
-0.0195383
-0.0195516
-0.0194705
-0.0194704
-0.0195515
-0.0195514
-0.0194837
-0.0194706
-0.0195384
-0.0194704
-0.0195383
-0.0195514
-0.0195787
-0.0196598
-0.0195787
-0.0196599
-0.0195787
-0.0195917
-0.0196597
-0.0196468
-0.0195788
-0.0195918
-0.0196597
-0.0195787
-0.0196598
-0.0195787
-0.0196599
-0.0195787
-0.0195917
-0.0196468
-0.0196597
-0.0195918
-0.0195788
-0.0196597
-0.0195516
-0.0194705
-0.0194704
-0.0195516
-0.0195515
-0.0194836
-0.0194706
-0.0195385
-0.0194705
-0.0195384
-0.0195515
-0.0195516
-0.0194705
-0.0194704
-0.0195516
-0.0195787
-0.0195918
-0.0196597
-0.0196468
-0.0195789
-0.0195918
-0.0196598
-0.0195787
-0.0196598
-0.0195787
-0.0196599
-0.0195787
-0.0195918
-0.0196469
-0.0196597
-0.0195919
-0.0195789
-0.0196598
-0.0195787
-0.0196598
-0.0195788
-0.0196599
-0.0194705
-0.0194704
-0.0195517
-0.0195516
-0.0195515
-0.0194705
-0.0195515
-0.0196598
-0.0195787
-0.019578
-0.0196599
-0.0196598
-0.0195787
-0.0195787
-0.0196598
-0.0195788
-0.0195513
-0.0194837
-0.0194707
-0.0195384
-0.0194707
-0.0195383
-0.0195513
-0.0195516
-0.0194705
-0.0194705
-0.0195515
-0.0195516
-0.0194705
-0.0194705
-0.0195515
-0.019579
-0.0195918
-0.0196467
-0.0196596
-0.0195918
-0.019579
-0.0196595
-0.019579
-0.0195919
-0.0196468
-0.0196596
-0.0195918
-0.019579
-0.0196595
-0.0195788
-0.0196598
-0.0195788
-0.0196598
-0.0195788
-0.0196598
-0.0195788
-0.0196598
-0.0194705
-0.0195516
-0.0194705
-0.0195515
-0.0195778
-0.0196599
-0.0196598
-0.0195787
-0.0195787
-0.0196598
-0.0195788
-0.0196598
-0.0195787
-0.019687
-0.019768
-0.019687
-0.0197681
-0.019687
-0.019687
-0.0197686
-0.0197681
-0.0197681
-0.0198763
-0.0197953
-0.0198763
-0.0197953
-0.0197939
-0.0198764
-0.0198764
-0.0197953
-0.0197953
-0.0197681
-0.019687
-0.019687
-0.0197681
-0.0197678
-0.0196873
-0.0196999
-0.0197554
-0.0196872
-0.0197679
-0.0197553
-0.0197678
-0.0196872
-0.0196999
-0.0197554
-0.0196872
-0.0197679
-0.0197553
-0.0197953
-0.0198763
-0.0197953
-0.0198764
-0.0197953
-0.0198763
-0.0197953
-0.0198764
-0.0197953
-0.0198079
-0.0198762
-0.0198639
-0.0197955
-0.0198079
-0.0198762
-0.0197953
-0.0198079
-0.0198762
-0.0198639
-0.0197955
-0.019808
-0.0198762
-0.019687
-0.019687
-0.0197686
-0.0197681
-0.0197681
-0.019687
-0.0197681
-0.0198763
-0.0197953
-0.0197939
-0.0198764
-0.0198764
-0.0197953
-0.0197952
-0.0198763
-0.0197953
-0.0197681
-0.0196871
-0.0196999
-0.0197554
-0.0196869
-0.019768
-0.0197553
-0.0197682
-0.019687
-0.019687
-0.0197681
-0.0197681
-0.0196999
-0.0196871
-0.0197554
-0.0196869
-0.0197553
-0.019768
-0.0197953
-0.0198764
-0.0197953
-0.0198765
-0.019795
-0.0198078
-0.0198763
-0.0198639
-0.0197954
-0.0198079
-0.0198764
-0.0197953
-0.0198764
-0.0197953
-0.0198765
-0.019795
-0.0198078
-0.0198639
-0.0198763
-0.0198079
-0.0197954
-0.0198764
-0.0197682
-0.019687
-0.019687
-0.0197681
-0.019768
-0.0196999
-0.0196871
-0.0197554
-0.0196869
-0.0197552
-0.019768
-0.0197682
-0.019687
-0.019687
-0.0197681
-0.019795
-0.0198078
-0.0198763
-0.0198638
-0.0197954
-0.0198078
-0.0198764
-0.0197952
-0.0198763
-0.0197953
-0.0198765
-0.019795
-0.0198077
-0.0198638
-0.0198763
-0.0198078
-0.0197954
-0.0198764
-0.0197952
-0.0198764
-0.0197953
-0.0198765
-0.019687
-0.019687
-0.0197686
-0.0197682
-0.0197681
-0.019687
-0.0197681
-0.0198764
-0.0197953
-0.0197939
-0.0198765
-0.0198764
-0.0197953
-0.0197953
-0.0198763
-0.0197953
-0.0197678
-0.0196999
-0.0196873
-0.0197554
-0.0196872
-0.0197552
-0.0197679
-0.0197681
-0.019687
-0.019687
-0.0197681
-0.0197681
-0.019687
-0.019687
-0.0197681
-0.0197954
-0.0198079
-0.0198638
-0.0198762
-0.019808
-0.0197956
-0.0198762
-0.0197954
-0.0198079
-0.0198638
-0.0198762
-0.019808
-0.0197955
-0.0198762
-0.0197953
-0.0198764
-0.0197953
-0.0198764
-0.0197953
-0.0198764
-0.0197953
-0.0198764
-0.019687
-0.0197681
-0.019687
-0.0197681
-0.0197939
-0.0198764
-0.0198765
-0.0197952
-0.0197953
-0.0198763
-0.0197953
-0.0198763
-0.0197953
-0.0199036
-0.0199846
-0.0199036
-0.0199846
-0.0199036
-0.0199036
-0.0199856
-0.0199846
-0.0199847
-0.0200928
-0.0200118
-0.0200929
-0.0200119
-0.0200096
-0.0200929
-0.020093
-0.0200119
-0.0200119
-0.0199847
-0.0199035
-0.0199036
-0.0199845
-0.0199846
-0.0199038
-0.0199158
-0.0199727
-0.0199035
-0.0199844
-0.0199725
-0.0199846
-0.0199038
-0.0199158
-0.0199727
-0.0199035
-0.0199844
-0.0199725
-0.0200118
-0.0200928
-0.0200118
-0.020093
-0.0200118
-0.0200927
-0.0200118
-0.020093
-0.0200116
-0.0200235
-0.0200927
-0.0200814
-0.0200121
-0.0200236
-0.020093
-0.0200116
-0.0200235
-0.0200926
-0.0200813
-0.0200121
-0.0200235
-0.020093
-0.0199036
-0.0199035
-0.0199858
-0.0199845
-0.0199847
-0.0199035
-0.0199845
-0.0200926
-0.0200118
-0.0200097
-0.0200927
-0.0200927
-0.0200117
-0.0200118
-0.0200926
-0.0200118
-0.0199849
-0.0199037
-0.0199158
-0.0199727
-0.0199031
-0.0199846
-0.0199726
-0.0199849
-0.0199036
-0.0199036
-0.0199847
-0.0199849
-0.0199159
-0.0199038
-0.0199727
-0.0199031
-0.0199726
-0.0199847
-0.020012
-0.0200929
-0.0200119
-0.0200933
-0.0200112
-0.0200236
-0.0200929
-0.0200816
-0.0200121
-0.0200236
-0.0200934
-0.020012
-0.020093
-0.0200119
-0.0200933
-0.0200112
-0.0200236
-0.0200816
-0.020093
-0.0200237
-0.0200121
-0.0200934
-0.0199848
-0.0199035
-0.0199035
-0.0199846
-0.0199848
-0.0199158
-0.0199037
-0.0199727
-0.0199031
-0.0199726
-0.0199846
-0.0199848
-0.0199036
-0.0199035
-0.0199846
-0.0200111
-0.0200235
-0.0200927
-0.0200814
-0.020012
-0.0200235
-0.0200932
-0.0200118
-0.0200927
-0.0200118
-0.020093
-0.0200111
-0.0200235
-0.0200815
-0.0200928
-0.0200236
-0.020012
-0.0200932
-0.0200118
-0.0200928
-0.0200118
-0.0200931
-0.0199036
-0.0199036
-0.0199856
-0.0199848
-0.0199847
-0.0199036
-0.0199846
-0.020093
-0.020012
-0.0200096
-0.0200931
-0.020093
-0.020012
-0.0200119
-0.0200929
-0.020012
-0.0199846
-0.0199159
-0.0199039
-0.0199726
-0.0199035
-0.0199725
-0.0199844
-0.0199848
-0.0199036
-0.0199036
-0.0199847
-0.0199848
-0.0199036
-0.0199036
-0.0199846
-0.0200117
-0.0200237
-0.0200815
-0.0200928
-0.0200237
-0.0200122
-0.0200932
-0.0200117
-0.0200237
-0.0200814
-0.0200927
-0.0200237
-0.0200121
-0.0200931
-0.0200119
-0.0200929
-0.0200119
-0.0200932
-0.0200119
-0.0200928
-0.0200118
-0.0200931
-0.0199036
-0.0199846
-0.0199036
-0.0199845
-0.0200095
-0.0200929
-0.0200928
-0.0200118
-0.0200118
-0.0200928
-0.0200119
-0.0200928
-0.0200119
-0.0201201
-0.0202009
-0.0201202
-0.0202011
-0.0201201
-0.0201202
-0.0202028
-0.020201
-0.0202012
-0.0203088
-0.0202283
-0.0203093
-0.0202286
-0.0202256
-0.0203089
-0.0203094
-0.0202284
-0.0202286
-0.0202011
-0.0201199
-0.02012
-0.0202006
-0.0202014
-0.0201204
-0.0201311
-0.0201906
-0.0201196
-0.0202008
-0.0201907
-0.0202014
-0.0201203
-0.020131
-0.0201903
-0.0201195
-0.0202006
-0.0201906
-0.020228
-0.0203088
-0.0202282
-0.020309
-0.020228
-0.0203082
-0.0202279
-0.0203089
-0.0202275
-0.0202384
-0.0203089
-0.0203007
-0.0202286
-0.0202385
-0.0203096
-0.0202275
-0.0202381
-0.0203083
-0.0203005
-0.0202283
-0.0202384
-0.0203095
-0.02012
-0.02012
-0.0202025
-0.0202007
-0.0202007
-0.02012
-0.0202006
-0.0203082
-0.0202279
-0.0202252
-0.0203083
-0.0203083
-0.020228
-0.020228
-0.0203082
-0.020228
-0.0202019
-0.0201205
-0.0201311
-0.0201908
-0.0201191
-0.0202013
-0.020191
-0.0202017
-0.0201203
-0.0201203
-0.0202013
-0.0202019
-0.0201313
-0.0201206
-0.0201909
-0.0201192
-0.0201909
-0.0202014
-0.0202286
-0.0203094
-0.0202285
-0.0203102
-0.0202269
-0.0202386
-0.0203096
-0.0203011
-0.0202289
-0.0202386
-0.0203105
-0.0202286
-0.0203098
-0.0202287
-0.0203102
-0.0202269
-0.0202388
-0.0203012
-0.0203099
-0.0202388
-0.0202292
-0.0203106
-0.0202011
-0.0201199
-0.02012
-0.0202007
-0.0202014
-0.020131
-0.0201203
-0.0201905
-0.0201189
-0.0201904
-0.0202009
-0.0202011
-0.02012
-0.02012
-0.0202008
-0.0202263
-0.020238
-0.0203085
-0.0203003
-0.0202283
-0.020238
-0.0203094
-0.020228
-0.0203083
-0.0202279
-0.020309
-0.0202263
-0.0202381
-0.0203003
-0.0203088
-0.0202381
-0.0202285
-0.0203095
-0.020228
-0.0203086
-0.0202281
-0.020309
-0.0201204
-0.0201203
-0.0202031
-0.0202015
-0.0202013
-0.0201203
-0.0202012
-0.0203097
-0.0202288
-0.0202259
-0.0203098
-0.0203096
-0.0202289
-0.0202288
-0.0203095
-0.0202287
-0.0202017
-0.0201312
-0.0201204
-0.0201905
-0.0201198
-0.0201908
-0.0202009
-0.0202015
-0.0201202
-0.0201202
-0.0202012
-0.0202015
-0.0201201
-0.0201202
-0.020201
-0.020228
-0.0202389
-0.0203012
-0.0203096
-0.0202388
-0.0202291
-0.0203104
-0.0202279
-0.0202385
-0.0203011
-0.0203091
-0.0202387
-0.0202288
-0.0203103
-0.0202285
-0.0203096
-0.0202286
-0.0203099
-0.0202284
-0.0203091
-0.0202283
-0.0203098
-0.0201201
-0.0202008
-0.0201201
-0.0202009
-0.0202254
-0.0203087
-0.0203091
-0.0202282
-0.0202284
-0.0203086
-0.0202282
-0.0203089
-0.0202284
-0.0203364
-0.0204165
-0.020337
-0.0204175
-0.0203365
-0.020337
-0.02042
-0.0204167
-0.0204176
-0.0205237
-0.0204442
-0.0205263
-0.0204456
-0.0204452
-0.020524
-0.0205261
-0.0204445
-0.0204456
-0.0204165
-0.0203354
-0.0203354
-0.0204152
-0.020417
-0.0203368
-0.0203453
-0.0204103
-0.0203351
-0.0204167
-0.0204117
-0.0204168