/*--------------------------------*- C++ -*----------------------------------*\
| =========                 |                                                 |
| \\      /  F ield         | OpenFOAM: The Open Source CFD Toolbox           |
|  \\    /   O peration     | Version:  2206                                  |
|   \\  /    A nd           | Website:  www.openfoam.com                      |
|    \\/     M anipulation  |                                                 |
\*---------------------------------------------------------------------------*/
FoamFile
{
    version     2.0;
    format      ascii;
    arch        "LSB;label=32;scalar=64";
    class       volVectorField;
    location    "0.4";
    object      U;
}
// * * * * * * * * * * * * * * * * * * * * * * * * * * * * * * * * * * * * * //

dimensions      [0 1 -1 0 0 0 0];

internalField   nonuniform List<vector> 
66940
(
(-1.49464e-06 -9.36565e-07 0.13292)
(-1.38996e-07 1.85516e-07 0.130159)
(6.50481e-06 -2.82962e-06 0.130303)
(-0.000199378 -0.000204361 0.127834)
(-8.99251e-07 1.17633e-06 0.132921)
(1.25755e-06 4.15131e-07 0.130161)
(2.47972e-06 -2.04233e-06 0.130305)
(-0.000200226 -0.000197067 0.127828)
(-1.5255e-06 -3.51588e-07 0.132924)
(2.26146e-06 -2.1763e-06 0.130165)
(2.99442e-07 -5.91481e-08 0.13031)
(-0.000198337 -0.000202731 0.127832)
(-9.64154e-06 -8.42566e-06 0.132934)
(7.34523e-06 -9.20052e-06 0.130176)
(-7.0394e-06 5.04641e-06 0.130322)
(-0.000201381 -0.000196706 0.127827)
(-3.7363e-05 -3.54346e-05 0.132956)
(1.83883e-05 -2.64621e-05 0.130194)
(-2.36703e-05 1.51966e-05 0.130339)
(-0.000198904 -0.000203031 0.127827)
(-0.00010822 -0.000104716 0.132997)
(3.38635e-05 -5.82449e-05 0.130218)
(-5.447e-05 2.79199e-05 0.130364)
(-0.000204577 -0.000199171 0.127813)
(-0.000268657 -0.000261619 0.133069)
(3.79411e-05 -0.000107759 0.130238)
(-0.000101888 2.63173e-05 0.130388)
(-0.000204933 -0.000207769 0.127799)
(-0.000621844 -0.000608748 0.133181)
(-4.12584e-05 -0.000157085 0.130219)
(-0.000145765 -6.1321e-05 0.13038)
(-0.000217528 -0.000211654 0.127755)
(-0.0014185 -0.00139784 0.133342)
(-0.000440297 -0.000107279 0.130089)
(-8.16922e-05 -0.000474449 0.130276)
(-0.000244003 -0.000247426 0.127663)
(-0.0033829 -0.00335709 0.133559)
(-0.00175535 0.000357768 0.129743)
(0.000377479 -0.001824 0.129977)
(-0.000363258 -0.00036257 0.127449)
(-0.00846671 -0.00839228 0.133266)
(-0.00516442 0.00196252 0.128912)
(0.00194143 -0.00527781 0.129261)
(-0.000139103 -0.000197124 0.12742)
(-0.0215239 -0.0219021 0.123566)
(-0.00542237 0.00674422 0.122016)
(0.0054321 -0.00347951 0.123742)
(-0.00212515 -0.00205784 0.122699)
(-0.000204439 -0.000207554 0.127733)
(5.52385e-06 2.74682e-06 0.130302)
(-5.34291e-06 2.96067e-06 0.130307)
(0.000203437 -0.00020738 0.127735)
(9.88097e-07 -3.34245e-07 0.130162)
(2.1233e-06 5.43635e-07 0.130162)
(-6.4149e-07 -2.98536e-07 0.13016)
(-3.28889e-06 3.15233e-06 0.130142)
(-0.00020379 0.000207795 0.127732)
(5.6219e-06 -1.20239e-06 0.130304)
(-7.00297e-06 -1.32681e-06 0.130322)
(0.000204143 0.00020948 0.127724)
(0.000200141 0.000201124 0.127829)
(-0.000206312 -0.000208159 0.127732)
(5.81688e-06 3.76695e-06 0.130301)
(-6.7795e-06 4.29817e-06 0.130306)
(3.01398e-06 3.09539e-06 0.130301)
(-2.85251e-06 3.42036e-06 0.130305)
(-0.000198799 0.000201484 0.12783)
(0.000205696 -0.000209112 0.127734)
(6.47259e-07 7.18314e-07 0.130162)
(1.71216e-06 -7.91385e-07 0.130161)
(-1.05438e-06 1.33386e-06 0.130161)
(-1.80324e-07 -1.3528e-06 0.130161)
(-9.04916e-07 -3.95143e-06 0.130176)
(1.44305e-06 1.31906e-06 0.130159)
(-7.34457e-07 7.61803e-07 0.130149)
(0.000200555 -0.000200005 0.127828)
(-0.000205891 0.000208433 0.127731)
(-7.29966e-06 -3.99234e-06 0.130288)
(2.97548e-06 -1.44198e-06 0.130303)
(-4.42418e-06 -1.33552e-06 0.130316)
(0.000205981 0.000211287 0.12773)
(0.00019835 0.000200673 0.127827)
(-0.000205688 -0.000208385 0.127731)
(2.43395e-06 3.15628e-06 0.130303)
(-2.73993e-06 3.62744e-06 0.130308)
(4.83478e-06 4.08982e-06 0.130298)
(-4.78665e-06 4.26805e-06 0.130303)
(-0.000198079 0.000200868 0.12783)
(0.000204606 -0.000208348 0.127734)
(-7.96465e-07 5.90081e-07 0.130163)
(5.05772e-08 -8.68409e-07 0.130162)
(3.6608e-07 2.68197e-06 0.130158)
(1.3377e-06 -2.61037e-06 0.130157)
(-3.79282e-07 -3.09204e-06 0.130168)
(-1.56533e-07 2.55896e-06 0.130155)
(-2.81896e-06 6.45154e-07 0.130136)
(0.000198567 -0.000199539 0.127826)
(-0.000205273 0.00020863 0.127731)
(-1.91452e-06 -2.61903e-06 0.130301)
(4.74329e-06 -2.18742e-06 0.1303)
(-6.20495e-06 -1.29716e-06 0.13032)
(0.000205083 0.000211216 0.127722)
(0.000198821 0.00020038 0.127826)
(-0.000205465 -0.000208263 0.127731)
(2.39984e-07 9.82782e-07 0.130308)
(-1.03122e-06 1.55525e-06 0.130313)
(1.00229e-05 7.64695e-06 0.130289)
(-9.93473e-06 7.82541e-06 0.130294)
(-0.000197579 0.000200557 0.127828)
(0.000204644 -0.00020917 0.127733)
(-1.96072e-06 -1.88378e-06 0.130168)
(-9.09163e-07 1.34335e-06 0.130167)
(4.07235e-06 7.98432e-06 0.130148)
(5.06924e-06 -7.5962e-06 0.130148)
(2.2568e-06 -1.79304e-06 0.130181)
(-3.68433e-06 7.81308e-06 0.130147)
(-6.34997e-06 -5.77725e-06 0.130135)
(0.000199064 -0.000199269 0.127826)
(-0.000205106 0.000208574 0.12773)
(-1.37497e-06 1.87163e-07 0.130297)
(9.96467e-06 -5.15142e-06 0.130292)
(-1.1355e-05 -4.38438e-06 0.130307)
(0.00020446 0.000211577 0.127731)
(0.000198833 0.000200366 0.127825)
(-0.000204552 -0.000207457 0.12773)
(-6.89758e-06 -4.88161e-06 0.13032)
(6.70268e-06 -4.18906e-06 0.130324)
(2.34365e-05 1.65908e-05 0.130271)
(-2.3592e-05 1.63906e-05 0.130277)
(-0.000198755 0.000200597 0.127827)
(0.000203498 -0.000207466 0.127732)
(-7.2335e-06 -9.28503e-06 0.13018)
(-6.10893e-06 8.23281e-06 0.130178)
(1.33267e-05 2.17345e-05 0.13013)
(1.45111e-05 -2.05812e-05 0.13013)
(5.6083e-06 5.78771e-06 0.130183)
(-1.2907e-05 2.1232e-05 0.130129)
(-1.63586e-05 -1.72259e-05 0.130108)
(0.000199009 -0.00019929 0.127824)
(-0.000204127 0.00020801 0.12773)
(8.1509e-06 5.32645e-06 0.130319)
(2.35547e-05 -1.2998e-05 0.130275)
(-2.54206e-05 -1.17881e-05 0.130296)
(0.000204129 0.000210708 0.127723)
(0.000199643 0.000200867 0.12782)
(-0.000201894 -0.000205378 0.127731)
(-2.33515e-05 -1.59823e-05 0.130338)
(2.2566e-05 -1.50829e-05 0.130342)
(5.03534e-05 3.09921e-05 0.130245)
(-5.03812e-05 3.03547e-05 0.130251)
(-0.000198461 0.000201166 0.127822)
(0.000200926 -0.000206321 0.127733)
(-1.86065e-05 -2.66835e-05 0.130199)
(-1.7512e-05 2.49177e-05 0.130198)
(2.93647e-05 4.99463e-05 0.130102)
(3.07367e-05 -4.73068e-05 0.130102)
(1.87555e-05 2.18498e-05 0.130211)
(-2.85232e-05 4.89079e-05 0.130104)
(-3.27271e-05 -4.65057e-05 0.130088)
(0.000199787 -0.000199733 0.12782)
(-0.000201875 0.000206277 0.127731)
(2.33222e-05 1.64388e-05 0.130327)
(5.05862e-05 -2.50267e-05 0.13025)
(-5.1875e-05 -2.35866e-05 0.130266)
(0.000200805 0.000208923 0.127731)
(0.000201983 0.000202773 0.12781)
(-0.000198144 -0.000202112 0.127739)
(-5.33191e-05 -3.08888e-05 0.130363)
(5.32637e-05 -2.94496e-05 0.130366)
(9.36391e-05 3.92803e-05 0.130218)
(-9.3665e-05 3.76708e-05 0.130226)
(-0.000202024 0.000202948 0.127812)
(0.00019708 -0.00020227 0.127741)
(-3.42673e-05 -5.91487e-05 0.130226)
(-3.33801e-05 5.58754e-05 0.130225)
(4.03188e-05 9.57071e-05 0.130072)
(4.22694e-05 -9.10141e-05 0.130072)
(3.22969e-05 5.24765e-05 0.130229)
(-3.96679e-05 9.40128e-05 0.130079)
(-4.47211e-05 -8.84332e-05 0.13005)
(0.000202118 -0.000201339 0.127811)
(-0.000198879 0.00020364 0.12774)
(5.60875e-05 2.85685e-05 0.130363)
(9.39763e-05 -3.03608e-05 0.130224)
(-9.60542e-05 -2.82813e-05 0.130246)
(0.000198086 0.000205707 0.127733)
(0.000205584 0.000206394 0.127791)
(-0.000197333 -0.000201307 0.127772)
(-9.9891e-05 -3.25375e-05 0.130387)
(9.85533e-05 -2.98234e-05 0.13039)
(0.000140322 -1.22908e-05 0.130216)
(-0.000139049 -1.60626e-05 0.130225)
(-0.000204792 0.000206526 0.127793)
(0.000196178 -0.000201915 0.127775)
(-3.84253e-05 -0.000109463 0.130253)
(-3.83114e-05 0.000104049 0.130252)
(-7.76718e-06 0.000148273 0.130067)
(-4.38845e-06 -0.000141573 0.130067)
(4.07732e-05 0.000102456 0.130264)
(8.05518e-06 0.000145208 0.130085)
(3.48078e-08 -0.000143935 0.130053)
(0.000205421 -0.000204298 0.127792)
(-0.000198751 0.000202634 0.127773)
(0.000102634 2.79566e-05 0.130377)
(0.000141073 2.46067e-05 0.130223)
(-0.000139643 2.83518e-05 0.13024)
(0.000194916 0.000203883 0.127774)
(0.000212942 0.000214683 0.127751)
(-0.000218194 -0.000220779 0.127872)
(-0.000143642 5.09764e-05 0.13038)
(0.000140876 5.64024e-05 0.130379)
(0.00011747 -0.000302329 0.130294)
(-0.000112696 -0.000312381 0.130306)
(-0.00021348 0.000214784 0.127752)
(0.000217125 -0.00022101 0.127878)
(4.12626e-05 -0.000159671 0.130248)
(3.96458e-05 0.0001519 0.130248)
(-0.000292873 0.000139787 0.13014)
(-0.000286428 -0.000131985 0.13014)
(-4.18344e-05 0.000146028 0.130249)
(0.000292683 0.000135398 0.130184)
(0.000281953 -0.000129564 0.130118)
(0.000212823 -0.000212414 0.127751)
(-0.000220622 0.00022182 0.127873)
(0.000148688 -6.10086e-05 0.130381)
(0.00011999 0.000316708 0.130303)
(-0.000119123 0.000322048 0.130323)
(0.000218132 0.00022584 0.127866)
(0.000241158 0.000245528 0.127658)
(-0.000341124 -0.00034924 0.128135)
(-7.74388e-05 0.000460004 0.130281)
(6.76634e-05 0.000472926 0.130276)
(-0.000210626 -0.00129456 0.130523)
(0.000212834 -0.00131792 0.130543)
(-0.000241553 0.000244969 0.127657)
(0.000335989 -0.000342594 0.128137)
(0.000439164 -0.000110972 0.13015)
(0.000432282 0.000103382 0.130151)
(-0.00127669 -0.000172133 0.130371)
(-0.0012595 0.000148645 0.130375)
(-0.000432943 9.93575e-05 0.130155)
(0.00127083 -0.000167347 0.130466)
(0.00124569 0.00014538 0.130366)
(0.000241881 -0.000243137 0.127657)
(-0.000332561 0.00032562 0.128109)
(7.93362e-05 -0.000476674 0.130269)
(-0.000186655 0.00131092 0.130542)
(0.000197933 0.00131754 0.130548)
(0.000319366 0.000337365 0.128105)
(0.000379108 0.000399976 0.127423)
(-0.00116373 -0.00121697 0.128718)
(0.000430787 0.00181998 0.130006)
(-0.000436088 0.00184329 0.129981)
(-0.00165297 -0.00434893 0.130846)
(0.00155295 -0.0043848 0.13089)
(-0.000371315 0.000376335 0.127429)
(0.000971008 -0.00110526 0.12861)
(0.00176379 0.000380607 0.129879)
(0.00173935 -0.000337244 0.129861)
(-0.00428428 -0.0015698 0.130681)
(-0.00426114 0.00140605 0.130756)
(-0.00173169 -0.00033699 0.12984)
(0.00418835 -0.00146188 0.130873)
(0.00410292 0.00123663 0.130662)
(0.000353873 -0.000351898 0.127462)
(-0.00092722 0.000831991 0.128406)
(-0.000360218 -0.00182414 0.129993)
(-0.00147622 0.00425227 0.130873)
(0.00131165 0.00430418 0.130841)
(0.000420025 0.000507127 0.128012)
(0.000967754 0.00103708 0.126757)
(-0.00751848 -0.00763069 0.126186)
(0.00220834 0.00543478 0.129293)
(-0.00207948 0.0054514 0.129255)
(-0.00807968 -0.0155012 0.127785)
(0.00706891 -0.0149028 0.127684)
(-0.000833653 0.000993222 0.126751)
(0.00696468 -0.00675231 0.125914)
(0.00529906 0.00215216 0.129158)
(0.0052437 -0.00193976 0.129064)
(-0.0154443 -0.00790854 0.127923)
(-0.0143843 0.00607564 0.127728)
(-0.00504726 -0.00169167 0.129189)
(0.0152997 -0.00712754 0.128118)
(0.0148718 0.0066443 0.127787)
(0.000809898 -0.00075551 0.126868)
(-0.00573028 0.00580614 0.124517)
(-0.00174924 -0.00534412 0.129312)
(-0.00591506 0.0145737 0.127847)
(0.00677676 0.0150038 0.127942)
(0.00659394 0.00644187 0.12566)
(0.00166362 0.00214149 0.121843)
(0.00653726 0.00558758 0.122765)
(-0.00686972 0.00537962 0.122608)
(-0.00219373 0.00181643 0.121292)
(0.0045417 0.00654935 0.122623)
(0.00402121 -0.00607504 0.123815)
(0.0218643 -0.0217001 0.123496)
(-0.0201033 0.0202604 0.124001)
(0.0216069 0.0215225 0.123568)
(-0.00579677 -0.00683522 0.122986)
(0.00171971 -0.00229267 0.122523)
(-0.00654659 -0.00509679 0.123074)
(4.16577e-06 -5.04606e-06 0.0683511)
(-2.08756e-06 -2.98871e-06 0.132921)
(2.34429e-06 -2.51162e-06 0.132922)
(-1.68964e-06 3.41531e-06 0.132922)
(2.31673e-06 3.70854e-06 0.13292)
(6.17446e-05 -3.89507e-08 0.119293)
(-3.19673e-06 1.54034e-06 0.130163)
(4.72773e-05 -1.64275e-05 0.105627)
(-8.25804e-07 -1.19501e-06 0.131806)
(0.000204931 0.000211399 0.127728)
(1.43267e-05 1.52641e-05 0.0922181)
(1.27281e-05 1.10629e-05 0.0923845)
(-1.85934e-09 -3.11412e-05 0.104708)
(4.71784e-06 2.34684e-05 0.079508)
(-8.34546e-08 2.87516e-05 0.104868)
(-2.60413e-06 -1.80861e-05 0.0794461)
(-4.94132e-06 9.7119e-06 0.0684979)
(6.5217e-06 -5.07863e-06 0.0684367)
(-3.11277e-05 9.11125e-08 0.103726)
(1.90035e-05 2.90826e-06 0.0791662)
(2.97453e-05 -3.71187e-07 0.104234)
(-2.0544e-05 -2.88816e-06 0.0789666)
(1.52425e-06 -8.87311e-07 0.13292)
(-6.33026e-07 1.24769e-06 0.13292)
(-1.05178e-06 1.9473e-06 0.132922)
(-3.05016e-06 -3.90195e-07 0.132925)
(3.07093e-06 -1.22926e-07 0.132926)
(-2.5842e-06 1.05484e-06 0.132926)
(2.26363e-06 1.12316e-06 0.132925)
(6.01645e-05 8.74325e-08 0.119296)
(-4.75628e-05 1.35557e-05 0.106009)
(1.98643e-06 -2.90118e-06 0.131808)
(6.99417e-07 6.96411e-07 0.13016)
(-6.13266e-05 -1.36634e-06 0.119794)
(4.79651e-05 -1.60352e-05 0.105628)
(1.56994e-06 -1.46809e-06 0.131808)
(6.61847e-06 -5.04846e-06 0.0683332)
(-7.1605e-06 3.9827e-06 0.0682022)
(6.18472e-07 5.72519e-05 0.120163)
(1.01973e-06 -5.30997e-06 0.131988)
(1.56655e-05 -4.62532e-05 0.106402)
(5.0943e-06 -1.96699e-06 0.130303)
(-1.26521e-06 -6.39326e-05 0.120295)
(-2.96678e-07 -4.45605e-06 0.131988)
(-1.73385e-05 4.44087e-05 0.106258)
(-1.35992e-05 -1.48509e-05 0.0925274)
(-1.76391e-05 -1.41044e-05 0.0927774)
(0.000205932 0.000212655 0.127726)
(1.43321e-05 1.3554e-05 0.0922219)
(1.80945e-05 1.0811e-05 0.0925762)
(-3.05361e-07 -3.06337e-05 0.104706)
(2.3112e-06 2.35784e-05 0.0795082)
(-2.93743e-07 3.38025e-05 0.104867)
(-4.2929e-06 -1.87413e-05 0.0794475)
(-4.34871e-06 9.07164e-06 0.068492)
(5.8816e-06 -5.48731e-06 0.0684348)
(-3.0614e-05 2.1311e-07 0.103728)
(1.90736e-05 3.51474e-06 0.0791721)
(2.99544e-05 -1.74965e-07 0.104235)
(-1.98981e-05 -2.64053e-06 0.0789713)
(9.28924e-07 1.61532e-06 0.132922)
(-4.653e-07 -1.05164e-06 0.132921)
(-1.97964e-07 -1.23777e-06 0.132922)
(-1.90986e-06 -2.01874e-07 0.132925)
(1.98016e-06 -8.27564e-08 0.132926)
(-1.28866e-06 1.5279e-06 0.132926)
(1.16238e-06 1.7791e-06 0.132924)
(5.97321e-05 2.04613e-07 0.119294)
(-4.73081e-05 1.34082e-05 0.106009)
(2.36594e-06 -1.54514e-06 0.131807)
(7.89757e-07 1.66341e-06 0.130158)
(-6.19851e-05 -1.31991e-06 0.119791)
(4.73669e-05 -1.57176e-05 0.10563)
(1.23371e-06 -7.29021e-07 0.131805)
(6.53175e-06 -5.38571e-06 0.0683389)
(-6.80772e-06 4.00257e-06 0.0682065)
(4.69236e-07 5.7738e-05 0.12016)
(-7.69731e-07 -3.02878e-06 0.131989)
(1.59433e-05 -4.63665e-05 0.106396)
(3.5868e-06 -1.54986e-06 0.130302)
(-1.02401e-06 -6.23218e-05 0.120287)
(-1.29882e-06 -4.43208e-06 0.131989)
(-1.74061e-05 4.38955e-05 0.106255)
(-1.38364e-05 -1.45077e-05 0.0925322)
(-1.7435e-05 -1.26939e-05 0.0927806)
(0.00020448 0.000211243 0.127726)
(1.41593e-05 1.43621e-05 0.0922205)
(1.69236e-05 1.28297e-05 0.0925862)
(-1.26834e-07 -3.15092e-05 0.104703)
(2.68298e-06 2.27685e-05 0.0795085)
(-1.17922e-07 3.38886e-05 0.104864)
(-3.64607e-06 -1.9649e-05 0.0794476)
(-5.43232e-06 8.16608e-06 0.0684891)
(4.88654e-06 -6.97837e-06 0.0684307)
(-3.01861e-05 1.68861e-07 0.10373)
(1.96518e-05 3.39907e-06 0.0791742)
(3.05722e-05 -2.34495e-07 0.104238)
(-1.94839e-05 -2.67735e-06 0.0789723)
(1.50137e-06 -1.91447e-07 0.132924)
(-1.01308e-06 -6.62433e-08 0.132924)
(-4.77518e-07 5.2859e-07 0.132925)
(3.8316e-06 5.26825e-06 0.132919)
(-3.7936e-06 5.14953e-06 0.13292)
(4.70618e-06 -3.04073e-06 0.132919)
(-5.49998e-06 -2.82195e-06 0.13292)
(5.91126e-05 9.38124e-08 0.119295)
(-4.78763e-05 1.36582e-05 0.106012)
(5.81459e-06 -2.7768e-06 0.131812)
(-1.50143e-06 4.19921e-06 0.130152)
(-6.25444e-05 -1.3686e-06 0.119793)
(4.71393e-05 -1.548e-05 0.105632)
(-3.45736e-06 1.16788e-07 0.1318)
(7.0755e-06 -5.14698e-06 0.06834)
(-6.42014e-06 4.17696e-06 0.0682063)
(6.09303e-07 5.83282e-05 0.120163)
(-2.25463e-06 6.77077e-07 0.131993)
(1.66895e-05 -4.62203e-05 0.106395)
(6.80689e-06 -2.91292e-06 0.130297)
(-8.64608e-07 -6.1902e-05 0.120289)
(6.65895e-08 -8.89886e-06 0.131982)
(-1.66223e-05 4.43907e-05 0.106254)
(-1.42126e-05 -1.50241e-05 0.092529)
(-1.8208e-05 -1.25524e-05 0.0927871)
(0.000205937 0.000213687 0.127725)
(1.32496e-05 1.29556e-05 0.0922236)
(1.66902e-05 1.22882e-05 0.0925846)
(-2.48226e-07 -3.25008e-05 0.1047)
(2.7864e-06 2.21418e-05 0.07951)
(-2.82103e-07 3.28178e-05 0.104865)
(-2.89521e-06 -2.06957e-05 0.0794488)
(-6.00931e-06 7.31152e-06 0.0684901)
(3.99118e-06 -7.39201e-06 0.0684355)
(-3.02004e-05 1.58937e-07 0.103731)
(1.98367e-05 3.01017e-06 0.0791743)
(3.07907e-05 -2.02148e-07 0.104241)
(-1.96141e-05 -2.79095e-06 0.0789713)
(9.62571e-06 -7.78727e-06 0.132934)
(-9.32746e-06 6.74783e-06 0.132934)
(8.80284e-06 6.75508e-06 0.132935)
(2.4965e-05 2.5621e-05 0.132899)
(-2.4916e-05 2.50285e-05 0.132901)
(2.61839e-05 -2.13748e-05 0.1329)
(-2.68421e-05 -2.05605e-05 0.132898)
(5.84556e-05 2.50313e-07 0.119296)
(-4.82373e-05 1.30342e-05 0.106013)
(1.75291e-05 -5.54968e-06 0.131823)
(-7.39236e-06 1.31498e-05 0.130139)
(-6.28817e-05 -1.31603e-06 0.119795)
(4.68839e-05 -1.54039e-05 0.105632)
(-1.77846e-05 4.88557e-06 0.131785)
(7.37697e-06 -4.60777e-06 0.0683386)
(-6.32775e-06 4.4944e-06 0.0682052)
(5.06583e-07 5.816e-05 0.120165)
(-6.60425e-06 1.29384e-05 0.132003)
(1.62538e-05 -4.60851e-05 0.106396)
(1.54744e-05 -8.20917e-06 0.130285)
(-9.84094e-07 -6.14119e-05 0.120294)
(6.18368e-06 -2.35325e-05 0.131966)
(-1.6389e-05 4.46718e-05 0.106254)
(-1.5087e-05 -1.40493e-05 0.0925302)
(-1.84945e-05 -1.14277e-05 0.0927861)
(0.000203625 0.000211158 0.127726)
(1.34006e-05 1.43165e-05 0.0922183)
(1.54818e-05 1.44755e-05 0.092592)
(-3.27632e-08 -3.31818e-05 0.104696)
(3.42876e-06 2.15189e-05 0.0795157)
(-6.88331e-08 3.22422e-05 0.104866)
(-1.05881e-06 -2.19039e-05 0.0794496)
(-6.37002e-06 7.18629e-06 0.0684937)
(2.26156e-06 -8.83879e-06 0.0684369)
(-2.98759e-05 2.57466e-08 0.103729)
(2.02616e-05 2.25356e-06 0.079176)
(3.10426e-05 -1.40831e-07 0.104244)
(-1.97348e-05 -2.61167e-06 0.0789685)
(3.73419e-05 -3.45084e-05 0.132955)
(-3.74006e-05 3.16938e-05 0.132955)
(3.61499e-05 3.19599e-05 0.132957)
(8.28762e-05 8.15751e-05 0.132861)
(-8.32221e-05 8.03639e-05 0.132865)
(8.44539e-05 -7.40608e-05 0.132863)
(-8.50229e-05 -7.38972e-05 0.132864)
(5.63695e-05 1.45812e-07 0.119295)
(-4.86581e-05 1.23158e-05 0.106016)
(5.06678e-05 -1.59223e-05 0.131848)
(-2.02453e-05 3.26782e-05 0.130117)
(-6.33998e-05 -1.40101e-06 0.119797)
(4.68745e-05 -1.47293e-05 0.105631)
(-5.91419e-05 1.63127e-05 0.131752)
(7.86015e-06 -3.7775e-06 0.0683379)
(-6.4847e-06 4.23851e-06 0.0682047)
(5.31637e-07 5.6316e-05 0.120161)
(-1.81971e-05 4.6382e-05 0.132027)
(1.58771e-05 -4.56983e-05 0.1064)
(3.52929e-05 -1.84478e-05 0.130263)
(-9.12109e-07 -6.15551e-05 0.120296)
(2.07882e-05 -6.33964e-05 0.131935)
(-1.46848e-05 4.52897e-05 0.106253)
(-1.54674e-05 -1.33677e-05 0.0925245)
(-1.79867e-05 -1.15695e-05 0.0927925)
(0.000203557 0.000212222 0.127726)
(1.31334e-05 1.25807e-05 0.092222)
(1.43974e-05 1.44451e-05 0.0925935)
(-8.95184e-08 -3.29401e-05 0.104694)
(3.27529e-06 2.1989e-05 0.0795274)
(2.95959e-07 3.24212e-05 0.104873)
(9.08093e-07 -2.28243e-05 0.0794455)
(-5.92491e-06 7.67151e-06 0.0684981)
(6.43486e-07 -9.23014e-06 0.068443)
(-2.91716e-05 -4.18926e-07 0.103726)
(2.13788e-05 1.26639e-06 0.0791807)
(3.26115e-05 1.24726e-07 0.104246)
(-2.02577e-05 -1.17081e-06 0.0789584)
(0.000108691 -0.000103102 0.132994)
(-0.000108371 9.72372e-05 0.132996)
(0.000107296 9.65749e-05 0.132998)
(0.000215035 0.000210355 0.132799)
(-0.000217201 0.000208515 0.132805)
(0.000216851 -0.000197933 0.1328)
(-0.000216477 -0.000196621 0.132799)
(5.09814e-05 3.20793e-07 0.119292)
(-5.07403e-05 1.05916e-05 0.10602)
(0.000131749 -3.74705e-05 0.131894)
(-3.63715e-05 6.94779e-05 0.13009)
(-6.65185e-05 -9.78981e-07 0.119797)
(4.65151e-05 -1.25898e-05 0.105625)
(-0.000160325 4.44627e-05 0.131692)
(8.92489e-06 -2.69106e-06 0.0683365)
(-7.37779e-06 2.43278e-06 0.0682035)
(7.07583e-07 4.9225e-05 0.120156)
(-4.47524e-05 0.000124512 0.132074)
(1.5174e-05 -4.63493e-05 0.106408)
(7.05193e-05 -2.99434e-05 0.130236)
(-7.43558e-07 -6.13217e-05 0.120299)
(5.32309e-05 -0.000158958 0.131878)
(-1.15578e-05 4.58483e-05 0.106249)
(-1.71221e-05 -1.13231e-05 0.0925209)
(-1.7532e-05 -1.14029e-05 0.0927896)
(0.000198621 0.000207163 0.12773)
(1.40046e-05 1.11691e-05 0.0922238)
(1.08571e-05 1.68565e-05 0.0926083)
(-1.53161e-06 -3.30757e-05 0.104698)
(-1.2581e-08 2.43365e-05 0.0795493)
(1.25648e-06 3.57965e-05 0.104883)
(3.49851e-06 -2.42167e-05 0.0794253)
(-1.43794e-06 1.0988e-05 0.0684982)
(-2.69419e-06 -1.17889e-05 0.0684448)
(-2.94698e-05 -1.79809e-06 0.103726)
(2.32401e-05 -6.0344e-07 0.0791923)
(3.70794e-05 1.17891e-06 0.104244)
(-2.27223e-05 3.12595e-06 0.0789328)
(0.000271556 -0.000259608 0.133062)
(-0.000269036 0.000248489 0.133068)
(0.000266641 0.00024963 0.133069)
(0.000503002 0.000493541 0.1327)
(-0.000510927 0.000491046 0.13271)
(0.000504645 -0.000473957 0.132702)
(-0.00050473 -0.00047403 0.132703)
(4.18597e-05 -3.054e-08 0.119293)
(-5.43041e-05 8.2578e-06 0.106026)
(0.000322472 -8.74699e-05 0.131979)
(-3.00331e-05 0.000121425 0.130075)
(-7.34266e-05 -2.35868e-07 0.119792)
(5.07888e-05 -7.14324e-06 0.105612)
(-0.000390544 0.000102958 0.131594)
(1.09261e-05 -2.40225e-07 0.0683309)
(-1.05128e-05 -2.84059e-06 0.0682053)
(3.81651e-07 3.76151e-05 0.120155)
(-0.000101567 0.000307857 0.132157)
(1.2278e-05 -4.8934e-05 0.106422)
(0.000119602 -1.65956e-05 0.130217)
(3.05512e-07 -6.47173e-05 0.120302)
(0.000120796 -0.000380684 0.131785)
(-6.85808e-06 4.92073e-05 0.106237)
(-2.0958e-05 -8.1659e-06 0.0924961)
(-1.21559e-05 -1.61863e-05 0.0927788)
(0.000195869 0.000206126 0.127748)
(1.84944e-05 3.38652e-06 0.092251)
(6.33666e-06 1.9611e-05 0.0926334)
(-6.24855e-06 -3.73156e-05 0.104713)
(-7.70459e-06 2.89348e-05 0.0795953)
(4.47317e-06 4.75218e-05 0.104881)
(1.15697e-05 -2.86896e-05 0.0793609)
(8.06314e-06 1.67211e-05 0.0684884)
(-1.37654e-05 -1.79151e-05 0.0684589)
(-3.318e-05 -6.30951e-06 0.103746)
(2.70863e-05 -5.27631e-06 0.0792288)
(4.94249e-05 5.10537e-06 0.104227)
(-2.91322e-05 1.33011e-05 0.0788694)
(0.000631346 -0.000606952 0.133169)
(-0.000621446 0.000587683 0.13318)
(0.00062081 0.000587818 0.133181)
(0.00114669 0.0011304 0.132559)
(-0.00116636 0.00112857 0.132575)
(0.00114562 -0.0011008 0.132562)
(-0.00114782 -0.00110046 0.13256)
(3.01044e-05 -1.45865e-06 0.119305)
(-6.15771e-05 3.32046e-06 0.106044)
(0.000755912 -0.000191332 0.132115)
(0.000100771 0.000156037 0.130118)
(-9.28242e-05 3.02727e-06 0.119773)
(6.67304e-05 3.15009e-06 0.105578)
(-0.000901413 0.000228782 0.131446)
(1.59621e-05 7.15405e-06 0.0683163)
(-1.84986e-05 -1.57539e-05 0.0682192)
(-2.35471e-06 2.14863e-05 0.120163)
(-0.00021863 0.000725481 0.13229)
(5.60809e-06 -5.62278e-05 0.106452)
(0.000147656 0.000120322 0.130248)
(3.21042e-06 -7.9302e-05 0.120299)
(0.000258772 -0.00087246 0.131642)
(1.60544e-06 6.39271e-05 0.106195)
(-2.92874e-05 4.31805e-07 0.092431)
(-1.62658e-06 -2.46747e-05 0.0927209)
(0.000201428 0.00020962 0.127806)
(3.27044e-05 -1.00301e-05 0.0923337)
(-6.65537e-06 3.28585e-05 0.0927235)
(-2.47187e-05 -6.54561e-05 0.104772)
(-2.56754e-05 4.00035e-05 0.0797153)
(1.53513e-05 7.98109e-05 0.104837)
(2.86584e-05 -3.91593e-05 0.0791645)
(3.19299e-05 3.0524e-05 0.0684528)
(-4.14031e-05 -3.58698e-05 0.0684807)
(-5.98798e-05 -2.36614e-05 0.103823)
(3.91544e-05 -2.08822e-05 0.0793444)
(7.96315e-05 1.67494e-05 0.104167)
(-4.43507e-05 3.38578e-05 0.0786761)
(0.00143932 -0.0013965 0.133323)
(-0.00141416 0.00136552 0.133339)
(0.00141131 0.00136726 0.133342)
(0.00264273 0.0026218 0.132361)
(-0.00267119 0.00260915 0.132383)
(0.00261394 -0.00255271 0.132366)
(-0.00262394 -0.00255753 0.13236)
(7.1847e-08 -1.06573e-05 0.119359)
(-7.88239e-05 -6.11789e-06 0.106121)
(0.00171166 -0.000412867 0.132312)
(0.000649563 4.64733e-05 0.130296)
(-0.000129969 1.01765e-05 0.119718)
(0.000105547 1.65991e-05 0.105443)
(-0.00201771 0.000500327 0.131256)
(2.96136e-05 2.97376e-05 0.0682776)
(-3.73054e-05 -4.55782e-05 0.0682497)
(-1.51353e-05 -1.67219e-06 0.120189)
(-0.000453685 0.00164507 0.132481)
(-7.12225e-06 -7.22431e-05 0.106545)
(2.63775e-05 0.000678998 0.130397)
(1.17976e-05 -0.00011528 0.120273)
(0.000544816 -0.00195675 0.131465)
(1.57361e-05 0.000102762 0.106038)
(-5.50795e-05 1.85633e-05 0.0922548)
(2.02701e-05 -5.05656e-05 0.0925658)
(0.000250558 0.000265788 0.12797)
(6.83438e-05 -3.51509e-05 0.0925615)
(-3.18801e-05 6.94035e-05 0.092929)
(-8.68057e-05 -0.000202111 0.104972)
(-7.57239e-05 6.41794e-05 0.0801017)
(4.91955e-05 0.000135811 0.104705)
(6.09883e-05 -0.000136334 0.0786058)
(8.85193e-05 5.55887e-05 0.0683928)
(-7.13355e-05 -0.000103689 0.0686074)
(-0.000190919 -8.83234e-05 0.104075)
(6.10059e-05 -6.5836e-05 0.0797341)
(0.000156537 5.28475e-05 0.104006)
(-0.000131949 5.6321e-05 0.0781227)
(0.00338467 -0.00332937 0.13353)
(-0.00332225 0.00323787 0.133548)
(0.00331053 0.00324639 0.133547)
(0.0059779 0.00598033 0.13193)
(-0.00584548 0.00583507 0.131893)
(0.00575548 -0.00565499 0.131855)
(-0.00562039 -0.00561228 0.131839)
(1.96775e-05 -4.53102e-05 0.11954)
(-7.16053e-05 -2.77475e-05 0.106433)
(0.00389774 -0.000845394 0.132509)
(0.0023394 -0.000600868 0.130677)
(-0.00021351 2.963e-05 0.119561)
(0.000222302 -1.68851e-05 0.10496)
(-0.00446975 0.00102155 0.131121)
(4.96196e-05 8.01856e-05 0.0682239)
(-8.51207e-05 -4.00639e-05 0.0683594)
(-5.98032e-05 3.13107e-05 0.120287)
(-0.000891132 0.00376687 0.132662)
(-2.15325e-05 -5.76301e-05 0.106883)
(-0.000605207 0.00239759 0.130714)
(3.00249e-05 -0.000186386 0.120161)
(0.00105021 -0.00431821 0.131328)
(-6.07944e-05 0.000225868 0.105575)
(-8.70533e-05 1.30667e-05 0.0918657)
(2.25687e-05 -7.85804e-05 0.0922094)
(0.000375358 0.00039998 0.128154)
(8.05134e-05 0.000231207 0.093055)
(0.000185137 0.00010733 0.0934326)
(-0.000402511 -0.00140709 0.106079)
(-0.000229086 0.00014396 0.081558)
(0.00017518 -3.20806e-06 0.103868)
(6.70538e-05 -0.00100535 0.0762259)
(0.000337043 0.000276089 0.0681839)
(-0.000119113 -0.00093698 0.0697202)
(-0.00157719 -0.000365915 0.105882)
(9.10721e-05 -0.000152347 0.0812877)
(0.000157442 0.000177507 0.103427)
(-0.00111712 5.40584e-05 0.0761217)
(0.00816163 -0.00817197 0.133323)
(-0.00813081 0.00798871 0.133365)
(0.00778562 0.00783595 0.133415)
(0.0101685 0.0103647 0.127858)
(-0.0101158 0.00987711 0.127579)
(0.00927349 -0.00955487 0.127999)
(-0.00995913 -0.0100193 0.127726)
(0.00154407 -0.000163 0.119776)
(0.000203605 -0.000275546 0.107776)
(0.00927645 -0.00157305 0.132222)
(0.00778354 -0.00337251 0.130778)
(-0.000218463 8.12233e-05 0.118946)
(0.000903665 -0.000457439 0.10295)
(-0.00848962 0.00160907 0.130696)
(0.000304861 0.000334694 0.0679656)
(-0.00100957 -0.00029383 0.0696044)
(-0.000214697 0.00141212 0.119808)
(-0.00164842 0.00904346 0.132356)
(-0.00035946 0.000204488 0.108182)
(-0.00322592 0.00765294 0.130506)
(5.1927e-05 -0.00011204 0.119377)
(0.00162424 -0.00847188 0.130611)
(-0.000417512 0.000446448 0.102287)
(-0.000313366 -0.00054678 0.0911058)
(-0.000386099 -0.000278381 0.0914712)
(0.00241027 0.00232713 0.128412)
(0.00164418 0.000238757 0.0942523)
(0.000499406 0.000964876 0.0935795)
(-0.00053206 -0.0225245 0.110126)
(-0.00163419 -0.00368754 0.0547984)
(-0.000340697 -0.00129076 0.0904562)
(-0.0037825 0.00597745 0.0965576)
(0.000290432 -0.00203846 0.0387403)
(0.0202354 -0.0100919 0.103403)
(-0.0237716 -0.00072994 0.108809)
(-0.00462871 -0.00161674 0.0565981)
(-0.00275362 -0.000466071 0.0928489)
(-0.00833985 -0.00825972 0.0964531)
(-0.00348243 -0.00318794 0.110795)
(-0.00257042 -0.0136024 0.124935)
(-0.0132488 -0.00314918 0.12489)
(-0.0183539 -0.0180695 0.117329)
(-0.00434787 -0.00462301 0.123487)
(-0.00297255 -0.0127804 0.112973)
(-0.012976 -0.00260025 0.113044)
(0.0239352 -0.00188159 0.112534)
(0.00645293 -0.00262703 0.0944987)
(0.0250374 -0.00291011 0.124346)
(0.0237019 -0.0166244 0.116274)
(0.00237327 -0.000318595 0.113856)
(0.0188732 -0.00999825 0.109581)
(0.0222814 -0.0028307 0.113078)
(-0.00161295 0.000766494 0.038472)
(-0.00990396 0.0183173 0.1024)
(-0.00189841 0.0231187 0.113089)
(-0.00260995 0.024462 0.124548)
(-0.00180665 0.00536872 0.0951309)
(-0.0166482 0.0252493 0.115553)
(-0.000119192 0.00226896 0.113511)
(-0.00344902 0.0225981 0.113068)
(-0.00997001 0.0167879 0.112058)
(0.00124336 0.000974542 0.0798869)
(0.000300387 0.00169604 0.0834967)
(0.0224089 0.0212261 0.115718)
(0.0128708 0.010332 0.106937)
(0.0125452 0.0195848 0.105621)
(-4.64768e-06 -4.74821e-06 0.0684478)
(7.02479e-06 9.61941e-06 0.0684008)
(-7.51074e-06 -4.4877e-06 0.0682026)
(5.71659e-06 4.17689e-06 0.0683365)
(0.000200511 0.000200594 0.127829)
(-1.57469e-05 -1.20038e-05 0.0926201)
(-1.45812e-05 -1.45689e-05 0.092178)
(1.64361e-05 1.51578e-05 0.0926746)
(1.32605e-05 1.38456e-05 0.0924947)
(6.377e-06 -1.6225e-05 0.07923)
(-1.23531e-06 4.45328e-06 0.130146)
(1.13386e-05 -4.4806e-05 0.105919)
(6.24727e-07 2.76814e-05 0.104321)
(-1.68075e-06 -1.85096e-05 0.0794463)
(2.44727e-06 1.98313e-05 0.0792829)
(8.40418e-08 -3.84548e-05 0.104702)
(-5.45535e-07 2.77259e-05 0.104321)
(1.67574e-06 -1.83839e-05 0.0794418)
(-2.28449e-06 1.98645e-05 0.0792768)
(-6.59362e-08 -3.84936e-05 0.104701)
(-3.06779e-07 6.16309e-05 0.119851)
(4.57433e-06 6.25486e-06 0.130302)
(-1.78081e-05 -4.39547e-05 0.106258)
(8.36977e-07 2.43009e-06 0.131997)
(1.39557e-05 4.80179e-05 0.106075)
(8.9702e-08 6.47907e-06 0.131967)
(-1.20001e-07 -5.50803e-05 0.120166)
(2.83179e-07 6.16851e-05 0.119851)
(-5.00449e-06 6.71973e-06 0.130307)
(1.73622e-05 -4.397e-05 0.106249)
(-1.06882e-06 2.53297e-06 0.131998)
(-1.40991e-05 4.79747e-05 0.106065)
(-4.23712e-07 6.70944e-06 0.131968)
(5.58804e-08 -5.50763e-05 0.120166)
(0.00020472 -0.000209565 0.127735)
(1.15226e-05 -1.10305e-05 0.0923906)
(1.45626e-05 -1.59339e-05 0.0922118)
(8.08814e-06 -5.51417e-06 0.068201)
(4.34539e-06 -4.74957e-06 0.0684433)
(-7.03623e-06 9.7446e-06 0.068393)
(-0.00019994 0.000200924 0.127831)
(1.48281e-05 -1.19194e-05 0.0925835)
(1.45881e-05 -1.54501e-05 0.0922125)
(-1.70923e-05 1.53041e-05 0.0926361)
(-1.31004e-05 1.34746e-05 0.0925302)
(7.53177e-06 -4.69183e-06 0.0682047)
(-5.53935e-06 4.25754e-06 0.0683398)
(2.9401e-05 -5.25992e-07 0.104232)
(-2.0114e-05 -3.28603e-06 0.0789637)