/*--------------------------------*- C++ -*----------------------------------*\
| =========                 |                                                 |
| \\      /  F ield         | OpenFOAM: The Open Source CFD Toolbox           |
|  \\    /   O peration     | Version:  2206                                  |
|   \\  /    A nd           | Website:  www.openfoam.com                      |
|    \\/     M anipulation  |                                                 |
\*---------------------------------------------------------------------------*/
FoamFile
{
    version     2.0;
    format      ascii;
    arch        "LSB;label=32;scalar=64";
    class       volVectorField;
    location    "0.4";
    object      wallShearStress;
}
// * * * * * * * * * * * * * * * * * * * * * * * * * * * * * * * * * * * * * //

dimensions      [0 2 -2 0 0 0 0];

internalField   uniform (0 0 0);

boundaryField
{
    topPatch
    {
        type            calculated;
        value           nonuniform List<vector> 0();
    }
    wall
    {
        type            calculated;
        value           nonuniform List<vector> 
7778
(
(8.13372e-06 2.53192e-08 -0.000148443)
(3.72077e-06 -1.28403e-06 -0.000137005)
(6.85066e-06 1.63954e-05 -0.000163416)
(-2.62982e-06 6.96494e-06 -0.000129375)
(4.38365e-05 2.95157e-05 -0.000152045)
(9.40588e-06 6.86483e-06 -0.000161947)
(-1.24e-05 -1.4249e-05 -0.000128582)
(-8.01801e-06 1.91481e-05 -0.000184133)
(-9.68894e-06 -2.03288e-05 -0.000107415)
(-5.33681e-07 -1.0166e-06 -0.000141622)
(4.18714e-06 -7.87042e-06 -0.000148957)
(1.00972e-05 -4.89698e-05 -8.23938e-05)
(-2.39075e-05 -3.02312e-05 -0.000237968)
(-1.00509e-05 1.2769e-06 -0.000149866)
(-1.73586e-05 -1.3634e-05 -0.000212019)
(-9.27025e-05 -6.9634e-06 -0.000167647)
(-2.40117e-05 -3.33547e-05 -0.00025898)
(-7.25649e-06 -2.23033e-05 -0.000183086)
(1.14826e-05 -5.49062e-06 -0.000181241)
(7.08352e-06 -1.57497e-05 -0.000195787)
(-3.33947e-05 2.9358e-06 -0.000145422)
(7.90575e-07 2.16608e-05 -0.000141976)
(-1.5412e-05 2.62533e-05 -0.000289301)
(3.06123e-05 4.64051e-06 -0.000202217)
(-5.7744e-06 1.60795e-05 -0.00019091)
(4.84274e-05 -3.42371e-05 -0.000163633)
(2.23202e-05 1.81738e-05 -0.000251053)
(8.23156e-06 1.24099e-05 -0.000185309)
(-6.1697e-06 1.45355e-05 -0.000215612)
(-3.61687e-05 2.46261e-06 -0.00016707)
(7.22214e-05 -0.000103115 -0.000198737)
(3.99557e-05 -1.14858e-05 -0.00018138)
(2.31714e-06 1.69657e-05 -0.000270057)
(-1.71935e-05 -3.45571e-06 -0.000195073)
(2.85424e-05 -1.83283e-05 -0.000196551)
(-6.94326e-05 7.15775e-05 -0.000174763)
(4.74162e-05 5.48698e-05 -0.000172849)
(1.79632e-05 -1.56973e-05 -0.000254842)
(-3.68336e-06 -5.3714e-06 -0.000196418)
(-6.50613e-06 -3.20866e-06 -0.000176306)
(-2.57026e-05 1.53701e-05 -0.000268248)
(-4.10099e-05 -2.70548e-05 -0.000251034)
(-2.26917e-05 8.51568e-06 -0.000214143)
(-1.71909e-05 1.57149e-05 -0.000222829)
(5.06512e-06 5.42568e-06 -0.000203491)
(4.53088e-05 3.51695e-06 -0.000179536)
(9.59401e-07 -9.11272e-06 -0.000197404)
(3.11025e-06 -9.01631e-06 -0.000189393)
(1.67053e-05 1.04383e-05 -0.000203965)
(8.18925e-06 -8.65378e-06 -0.000180358)
(-9.86057e-06 -1.49607e-05 -0.000195447)
(-1.91626e-06 9.95508e-06 -0.00014962)
(9.41719e-06 3.71245e-05 -0.000233639)
(-3.65629e-05 1.69827e-05 -0.000239663)
(1.50112e-05 4.727e-06 -0.000164837)
(2.45953e-06 -1.79515e-05 -0.000178555)
(-8.05294e-07 4.77453e-06 -0.00012276)
(-1.99538e-06 -5.63966e-06 -0.000134045)
(2.0599e-05 1.26824e-05 -0.000156849)
(2.42414e-05 1.41369e-05 -0.000169177)
(1.22862e-05 1.69054e-05 -0.000153056)
(7.60507e-06 -1.86467e-05 -0.000159893)
(-2.30322e-07 2.19599e-06 -0.000124741)
(-1.85167e-07 -3.05101e-06 -0.000185246)
(-1.36071e-06 -1.24931e-05 -0.000142451)
(2.05887e-05 2.42516e-05 -0.000239263)
(1.11547e-05 -7.85216e-06 -0.000176242)
(-2.17203e-05 3.06756e-05 -0.000247617)
(-3.97682e-06 -2.08416e-06 -0.000123004)
(-3.2415e-06 -8.68537e-06 -0.000173441)
(-5.32875e-06 2.33352e-05 -0.000162485)
(3.03658e-05 5.39851e-06 -0.000159643)
(-5.98102e-06 -5.46395e-06 -0.000189554)
(-9.92629e-06 -1.53624e-06 -0.000159103)
(2.62072e-05 1.83969e-06 -0.000153145)
(-2.08408e-05 -9.84972e-08 -0.000167536)
(-7.13892e-07 1.22213e-05 -0.000185286)
(-1.10813e-05 -1.11057e-05 -0.000175864)
(-1.27209e-05 -1.80652e-05 -0.000161523)
(-8.30164e-06 -3.80853e-06 -0.000153628)
(3.1509e-09 4.16952e-09 -0.000130579)
(3.42943e-09 -5.50924e-09 -0.00012516)
(1.09743e-08 -1.51038e-09 -0.000125157)
(-1.38769e-08 -1.05181e-08 -0.000130524)
(-1.65562e-08 -6.59688e-09 -0.0001305)
(-2.2124e-09 -2.97999e-09 -0.000125156)
(4.56023e-09 -2.55399e-09 -0.000125121)
(2.24841e-09 9.16112e-09 -0.00013052)
(1.22628e-09 -2.36289e-09 -0.000130463)
(2.91001e-09 -5.10735e-09 -0.000125082)
(4.6166e-09 1.57404e-09 -0.000125122)
(4.71036e-09 -4.69013e-10 -0.000130474)
(-6.63905e-09 -1.20439e-09 -0.000130474)
(-2.73599e-09 -1.63861e-09 -0.000125173)
(3.64893e-09 -4.11543e-10 -0.000125132)
(1.07642e-09 6.89377e-09 -0.000130537)
(-4.16134e-10 -5.31409e-09 -0.000130475)
(-2.73835e-09 -2.79698e-09 -0.000125071)
(1.62481e-09 2.87788e-09 -0.000125116)
(1.01107e-08 2.54166e-09 -0.000130462)
(-1.32901e-09 1.999e-09 -0.000130466)
(-3.28977e-09 -5.35029e-10 -0.000125175)
(3.44851e-09 -1.187e-10 -0.00012513)
(-2.66662e-11 5.05682e-09 -0.000130539)
(-9.74955e-10 -6.20485e-09 -0.000130472)
(-4.78432e-09 -1.94559e-09 -0.00012507)
(-1.17882e-09 4.02315e-09 -0.000125118)
(1.13943e-08 3.36332e-09 -0.00013046)
(-2.2578e-09 1.33115e-09 -0.00013047)
(-3.48057e-09 -1.88873e-10 -0.000125169)
(3.34571e-09 1.71486e-10 -0.000125125)
(-5.98351e-10 4.12178e-09 -0.000130532)
(-1.36845e-09 -6.92615e-09 -0.000130466)
(-6.13622e-09 -1.36707e-09 -0.000125078)
(-2.17799e-09 4.48425e-09 -0.000125126)
(1.25986e-08 3.9389e-09 -0.000130468)
(2.31292e-09 4.03338e-09 -0.000130478)
(-3.64764e-09 2.20787e-10 -0.000125165)
(3.68776e-09 -5.90438e-10 -0.00012512)
(-8.22496e-10 3.70699e-09 -0.000130526)
(-7.24639e-10 -5.78529e-09 -0.000130463)
(-3.0647e-09 -2.70284e-09 -0.000125094)
(-8.27266e-10 3.96735e-09 -0.000125128)
(8.31742e-09 1.5615e-09 -0.000130474)
(-1.69931e-09 1.70631e-09 -0.000130485)
(-3.56774e-09 -4.2473e-10 -0.000125167)
(5.06826e-09 -4.06269e-09 -0.00012511)
(-1.00059e-09 3.7042e-09 -0.000130523)
(1.77767e-09 -1.26099e-09 -0.000130462)
(3.77802e-09 -5.60957e-09 -0.000125118)
(-2.47638e-09 4.81655e-09 -0.000125108)
(-4.94955e-10 -3.61511e-09 -0.000130477)
(7.94225e-09 7.42098e-09 -0.000130489)
(-3.65337e-09 -8.91492e-10 -0.000125178)
(8.10324e-09 -1.11654e-08 -0.000125084)
(-2.61078e-09 1.33921e-09 -0.000130516)
(8.25067e-09 1.02559e-08 -0.000130463)
(1.2166e-08 -9.2849e-09 -0.00012516)
(-1.23529e-08 9.24755e-09 -0.000125027)
(-2.00078e-08 -1.48007e-08 -0.000130458)
(3.09033e-08 2.04229e-08 -0.000130486)
(-5.06116e-09 1.56196e-09 -0.000125214)
(1.39606e-08 -2.42315e-08 -0.000125008)
(-1.10872e-08 -1.3045e-08 -0.000130496)
(2.48449e-08 3.9385e-08 -0.000130468)
(4.16243e-08 -2.08947e-08 -0.000125265)
(-1.72724e-08 1.25267e-08 -0.000124806)
(-8.01809e-08 -4.83719e-08 -0.000130388)
(1.09194e-07 6.48566e-08 -0.000130488)
(-1.30722e-08 2.15949e-08 -0.000125326)
(2.1694e-08 -4.03227e-08 -0.000124788)
(-4.40917e-08 -7.18139e-08 -0.000130432)
(6.94918e-08 1.18351e-07 -0.00013049)
(1.36735e-07 -5.45792e-08 -0.000125672)
(3.02688e-08 8.13705e-09 -0.000124607)
(-2.58939e-07 -1.43406e-07 -0.000130266)
(2.32698e-07 1.49805e-07 -0.000130889)
(-3.06934e-08 7.75376e-08 -0.000125784)
(4.08751e-08 -4.81747e-08 -0.000124674)
(-1.2261e-07 -2.26179e-07 -0.000130376)
(1.1188e-07 1.70686e-07 -0.000130953)
(5.08341e-07 -2.53794e-07 -0.000129477)
(6.03818e-07 4.91696e-07 -0.000110272)
(-1.29066e-06 -7.94604e-07 -0.000132504)
(1.7977e-06 9.29471e-07 -0.000124488)
(-1.01472e-07 1.14615e-07 -0.000129888)
(6.29456e-07 4.01296e-07 -0.00011149)
(-5.26304e-07 -7.62189e-07 -0.000132724)
(7.83526e-07 1.64417e-06 -0.000125354)
(1.87504e-05 2.99227e-05 -0.000138321)
(1.26046e-06 -6.13525e-06 -0.000135442)
(2.97352e-05 1.74211e-05 -0.000148323)
(-5.88469e-06 3.21821e-06 -0.000138404)
(2.82707e-08 -1.23913e-08 -0.000130543)
(-7.23891e-09 1.25205e-09 -0.000130558)
(1.8016e-09 1.43517e-09 -0.000130464)
(8.30309e-11 -5.29744e-09 -0.000130526)
(1.46608e-09 3.4981e-09 -0.000125263)
(1.49886e-09 3.64411e-09 -0.000125215)
(-9.51506e-09 4.64501e-10 -0.000125194)
(-2.31165e-09 3.27686e-09 -0.00012521)
(8.96792e-09 2.61867e-10 -0.000125187)
(1.15324e-09 8.12975e-09 -0.000130469)
(-2.86306e-08 -1.26308e-08 -0.000130537)
(8.02843e-09 1.65321e-09 -0.000130549)
(-2.38789e-09 3.94054e-10 -0.000130464)
(-8.23838e-11 -5.18818e-09 -0.000130529)
(4.27833e-09 -2.11453e-09 -0.000125111)
(-4.23229e-09 1.36267e-09 -0.000125157)
(3.96145e-09 1.42333e-09 -0.000125113)
(-4.81001e-09 -3.11863e-09 -0.000125156)
(-3.29042e-09 2.29005e-09 -0.000125116)
(-2.69277e-09 -3.78351e-09 -0.000125122)
(-4.49625e-09 -2.70797e-09 -0.000125111)
(3.82892e-09 3.13421e-10 -0.000125156)
(-4.11092e-09 1.65592e-09 -0.000125115)
(4.47236e-09 -1.86575e-09 -0.000125161)
(7.64098e-10 -3.25932e-09 -0.000130461)
(-2.02294e-09 1.28673e-09 -0.000130514)
(2.53842e-08 1.07647e-08 -0.000130559)
(-1.03664e-08 -2.88557e-09 -0.000130583)
(-1.36559e-10 -4.32897e-09 -0.000125226)
(-1.15401e-08 -1.27089e-09 -0.000125208)
(-1.49965e-09 -3.66873e-09 -0.000125222)
(1.10822e-08 -1.12279e-09 -0.000125203)
(2.45846e-09 -1.04261e-08 -0.000130471)
(3.33601e-09 -4.37051e-09 -0.000130597)
(-1.55565e-09 -2.13732e-09 -0.000130465)
(8.9083e-11 5.08754e-09 -0.000130525)
(-2.85698e-08 1.27474e-08 -0.000130552)
(9.4134e-09 -2.46743e-09 -0.000130575)
(1.35353e-08 -1.01788e-08 -0.000130533)
(1.9319e-08 -8.36208e-09 -0.000130507)
(3.21456e-09 -1.04979e-08 -0.000130529)
(1.59196e-09 1.92879e-09 -0.000130474)
(1.12179e-08 -3.73629e-09 -0.000130488)
(2.08163e-09 -4.20912e-09 -0.000130497)
(6.98848e-10 3.6548e-09 -0.000130481)
(2.692e-09 -9.48608e-09 -0.000130539)
(-4.1756e-09 -5.80028e-09 -0.000125154)
(-8.72818e-09 -6.29941e-10 -0.000125152)
(8.79198e-09 -1.53534e-10 -0.00012513)
(6.00358e-09 -6.75051e-09 -0.000125101)
(-9.76003e-09 -5.52864e-10 -0.000125125)
(-4.34412e-09 -6.13059e-09 -0.000125096)
(-3.69183e-09 -1.11512e-08 -0.000130532)
(7.70754e-11 4.65163e-09 -0.000130477)
(-1.2267e-08 -4.43311e-09 -0.000130482)
(-2.28669e-10 -3.13942e-09 -0.000130493)
(-1.56628e-09 2.20513e-09 -0.000130484)
(-1.71954e-09 -7.68662e-09 -0.000130539)
(-3.03445e-09 1.06624e-09 -0.000125157)
(3.87443e-09 9.14426e-10 -0.00012512)
(4.11686e-09 -1.48943e-09 -0.000125128)
(-2.21633e-09 -2.96301e-09 -0.000125166)
(4.15034e-09 1.51126e-09 -0.00012513)
(-2.61849e-09 1.83708e-09 -0.000125164)
(1.81932e-09 -3.84452e-09 -0.000125157)
(-3.69927e-09 -3.57538e-10 -0.000125122)
(2.24396e-09 2.84462e-09 -0.000125161)
(-2.17968e-09 -3.51591e-09 -0.000125126)
(-4.58879e-09 -2.65907e-09 -0.000125129)
(2.75586e-09 -1.58177e-09 -0.000125166)
(-3.49717e-09 -2.67306e-11 -0.000125131)
(3.79308e-09 -9.37164e-10 -0.000125168)
(1.01733e-08 8.19998e-09 -0.000130549)
(1.7775e-08 7.38488e-09 -0.00013053)
(7.32856e-11 -4.76611e-09 -0.000130478)
(8.1402e-10 5.88002e-09 -0.000130523)
(9.22589e-09 2.50875e-09 -0.000130505)
(-2.21482e-09 2.05261e-09 -0.00013052)
(-3.4917e-10 3.97931e-09 -0.000125169)
(8.59677e-09 4.80515e-10 -0.000125172)
(-1.62678e-09 4.79834e-09 -0.000125166)
(-6.2777e-09 -4.33185e-10 -0.000125164)
(7.49735e-09 -4.32176e-10 -0.000125143)
(3.58135e-09 5.88563e-09 -0.000125113)
(-6.45881e-09 -9.30533e-10 -0.00012514)
(-1.22094e-09 4.84118e-09 -0.000125108)
(-3.57354e-09 1.07225e-08 -0.000130529)
(2.00927e-09 -8.06255e-09 -0.000130477)
(-1.24334e-08 9.72462e-09 -0.000130543)
(-1.47567e-08 5.65137e-09 -0.000130514)
(-5.86503e-11 -4.60516e-09 -0.000130482)
(-1.45693e-09 7.25672e-09 -0.000130536)
(-1.04639e-08 3.10167e-09 -0.000130498)
(5.3815e-10 2.73341e-09 -0.000130509)
(-4.99883e-09 -2.46118e-10 -0.000130483)
(6.37552e-09 -1.07334e-09 -0.00013048)
(1.72025e-09 -7.69785e-09 -0.000130545)
(-1.61607e-10 5.09021e-09 -0.000130485)
(4.5274e-09 1.86835e-11 -0.000130474)
(-9.17389e-09 2.07902e-09 -0.000130475)
(-5.39631e-10 5.70868e-09 -0.000130485)
(9.62811e-10 -6.40455e-09 -0.000130548)
(-3.91644e-09 -5.53341e-09 -0.000125075)
(-5.10523e-09 1.39755e-09 -0.000125117)
(2.51709e-09 2.50082e-09 -0.000125117)
(-1.23991e-09 -3.46928e-09 -0.000125075)
(-2.9064e-09 2.34514e-09 -0.000125112)
(8.28308e-10 -3.61799e-09 -0.000125069)
(-2.15253e-09 -8.40506e-09 -0.000130549)
(-2.56631e-11 4.76022e-09 -0.000130487)
(-5.04187e-09 -3.17084e-10 -0.00013047)
(9.94199e-09 2.46987e-09 -0.000130466)
(1.56479e-10 5.06602e-09 -0.000130486)
(-6.64343e-10 -5.78732e-09 -0.000130551)
(-3.35597e-09 2.45386e-10 -0.000125174)
(3.04638e-09 -1.07187e-09 -0.000125131)
(3.4488e-09 7.56471e-12 -0.000125132)
(-3.10425e-09 -8.93184e-10 -0.000125175)
(3.40167e-09 -1.18281e-10 -0.000125135)
(-3.43785e-09 -1.82517e-10 -0.000125174)
(2.23352e-09 -2.96439e-09 -0.000125173)
(-3.7966e-09 -8.52595e-10 -0.000125132)
(2.64997e-09 1.92987e-09 -0.000125174)
(-4.00737e-09 1.33079e-09 -0.000125136)
(-3.57481e-09 -2.95031e-10 -0.000125133)
(2.89339e-09 -1.36654e-09 -0.000125176)
(-3.81165e-09 7.33797e-10 -0.000125137)
(2.65072e-09 2.06596e-09 -0.000125179)
(-7.85674e-09 -1.47917e-09 -0.000130501)
(5.63136e-09 5.57133e-10 -0.000130502)
(-1.2447e-09 -7.01467e-09 -0.000130482)
(-9.00642e-10 2.8473e-09 -0.000130533)
(3.02184e-09 -9.59359e-10 -0.000130491)
(-1.26836e-08 -3.83793e-09 -0.000130498)
(-2.5343e-10 3.93651e-09 -0.000125093)
(2.83946e-09 -2.3712e-09 -0.000125138)
(-5.63999e-10 4.21491e-09 -0.000125092)
(-5.22825e-09 -1.41061e-09 -0.00012513)
(1.8732e-09 -2.84966e-09 -0.000125131)
(-3.0704e-09 2.81945e-09 -0.000125088)
(-2.57772e-09 -2.49936e-09 -0.000125125)
(2.90043e-09 2.82776e-09 -0.000125082)
(-2.26955e-09 8.74973e-09 -0.000130543)
(4.88418e-10 -5.67657e-09 -0.000130486)
(6.23013e-09 -4.58334e-10 -0.000130498)
(-6.16479e-09 9.24835e-10 -0.000130486)
(5.67628e-10 -6.06904e-09 -0.000130485)
(-1.27686e-09 7.0935e-09 -0.000130545)
(-4.28564e-09 -4.91047e-11 -0.000130485)
(1.2247e-08 -3.90408e-09 -0.000130487)
(-1.04975e-08 2.89051e-09 -0.00013047)
(3.83877e-09 4.05762e-10 -0.000130473)
(7.61822e-10 -6.09422e-09 -0.000130547)
(-5.2607e-10 5.6399e-09 -0.000130482)
(3.1098e-09 8.45149e-10 -0.000130473)
(-1.12108e-08 3.30609e-09 -0.000130469)
(-7.29415e-10 5.99162e-09 -0.000130478)
(7.17544e-10 -6.07255e-09 -0.000130543)
(2.26755e-09 -3.00111e-09 -0.000125065)
(4.11236e-10 3.65973e-09 -0.000125111)
(4.83678e-10 3.37458e-09 -0.000125116)
(-3.8715e-09 -2.34738e-09 -0.00012507)
(-1.59747e-09 2.92216e-09 -0.00012511)
(5.29373e-09 -1.82328e-09 -0.000125065)
(-1.05575e-09 -6.41747e-09 -0.00013055)
(2.31485e-09 8.52132e-09 -0.000130486)
(-4.31324e-09 6.30496e-11 -0.000130467)
(1.27221e-08 4.19354e-09 -0.000130464)
(-1.17136e-10 4.62853e-09 -0.000130481)
(3.76982e-10 -4.10805e-09 -0.000130544)
(-3.98595e-09 -1.09915e-09 -0.000125176)
(2.7197e-09 -1.72362e-09 -0.000125129)
(3.3718e-09 1.2135e-10 -0.000125127)
(-3.24607e-09 -7.22156e-10 -0.000125172)
(3.14846e-09 -6.7749e-10 -0.000125129)
(-3.76411e-09 -8.72937e-10 -0.000125171)
(3.03689e-09 -1.09319e-09 -0.000125176)
(-2.47195e-09 2.35413e-09 -0.000125131)
(2.94022e-09 1.17086e-09 -0.000125181)
(-9.83818e-10 -6.09428e-09 -0.000125136)
(-3.80711e-09 -1.01696e-09 -0.000125127)
(3.86773e-09 9.56311e-10 -0.000125171)
(-2.44367e-09 -2.43204e-09 -0.00012513)
(5.01049e-09 -3.72773e-09 -0.000125175)
(-1.26638e-08 -4.21611e-09 -0.000130488)
(3.51738e-09 -7.26645e-10 -0.000130496)
(-1.66463e-09 -7.70244e-09 -0.000130476)
(-1.41438e-09 2.06877e-09 -0.000130529)
(1.58228e-09 -1.85037e-09 -0.00013049)
(-1.42702e-08 -4.8e-09 -0.000130492)
(-5.25785e-09 1.82441e-09 -0.000125083)
(6.13694e-11 -3.57649e-09 -0.000125132)
(4.51989e-09 2.18865e-09 -0.000125077)
(2.77399e-09 -4.64393e-09 -0.000125123)
(-5.76638e-10 -3.85834e-09 -0.000125129)
(-5.28932e-09 1.82552e-09 -0.000125083)
(1.82622e-09 -4.39169e-09 -0.000125125)
(8.20657e-09 6.44251e-10 -0.000125078)
(-1.16421e-09 6.48072e-09 -0.000130546)
(4.62879e-09 -1.26032e-08 -0.000130484)
(1.24629e-08 -3.90362e-09 -0.000130483)
(6.17098e-10 -3.09525e-09 -0.000130483)
(1.99818e-09 -8.13388e-09 -0.000130476)
(1.01931e-09 3.07705e-09 -0.000130538)
(-2.05805e-09 -1.63548e-09 -0.000130486)
(1.37522e-08 -4.79234e-09 -0.000130485)
(-1.18213e-08 3.66784e-09 -0.00013047)
(1.97861e-09 1.47935e-09 -0.000130476)
(4.44004e-10 -5.56796e-09 -0.00013054)
(-7.3701e-10 5.99263e-09 -0.000130476)
(1.19426e-09 1.94738e-09 -0.00013048)
(-1.26e-08 4.09186e-09 -0.000130473)
(-6.28651e-10 5.87571e-09 -0.000130474)
(2.83581e-10 -5.32937e-09 -0.000130536)
(3.64409e-09 -2.42202e-09 -0.000125063)
(7.18083e-10 3.84895e-09 -0.000125112)
(-2.16084e-09 4.47681e-09 -0.000125121)
(-6.16223e-09 -1.38001e-09 -0.000125073)
(1.8597e-09 4.37046e-09 -0.000125116)
(5.79469e-09 -1.54024e-09 -0.000125067)
(-8.62414e-10 -6.24868e-09 -0.000130543)
(5.72392e-10 5.67131e-09 -0.000130478)
(-1.42355e-09 1.76915e-09 -0.000130474)
(1.33713e-08 4.4882e-09 -0.000130464)
(1.47941e-10 5.03731e-09 -0.000130475)
(4.50055e-11 -4.69212e-09 -0.000130539)
(-4.30269e-09 -1.88716e-09 -0.00012517)
(2.43971e-09 -2.36292e-09 -0.000125123)
(3.44653e-09 8.35598e-12 -0.000125122)
(-3.5263e-09 -7.99003e-11 -0.000125167)
(3.1705e-09 -6.83167e-10 -0.000125124)
(-4.18022e-09 -1.82426e-09 -0.000125165)
(2.94859e-09 -1.50112e-09 -0.000125169)
(-3.49928e-09 -2.59242e-10 -0.000125124)
(3.73758e-09 -5.65387e-10 -0.000125171)
(-3.3103e-09 -2.89687e-10 -0.000125128)
(-3.65833e-09 -5.72138e-10 -0.000125122)
(3.3245e-09 -5.40478e-10 -0.000125166)
(-3.50981e-09 -7.02053e-11 -0.000125127)
(3.43187e-09 3.11295e-10 -0.00012517)
(-1.39348e-08 -4.97548e-09 -0.000130488)
(1.21922e-09 -2.02531e-09 -0.000130498)
(-1.56932e-09 -7.57752e-09 -0.000130471)
(-2.01404e-09 9.87947e-10 -0.000130522)
(-4.74869e-10 -2.98468e-09 -0.000130495)
(-1.59914e-08 -5.76174e-09 -0.000130494)
(-7.54114e-09 8.48466e-10 -0.000125082)
(-3.31945e-09 -4.95577e-09 -0.000125133)
(6.91865e-09 1.11772e-09 -0.000125079)
(6.69462e-10 -3.84467e-09 -0.000125123)
(-3.41477e-09 -5.07986e-09 -0.000125133)
(-8.05234e-09 7.16852e-10 -0.000125085)
(2.54982e-09 -4.61442e-09 -0.000125126)
(7.81084e-09 7.76737e-10 -0.000125078)
(-2.19788e-10 5.26991e-09 -0.000130533)
(1.79716e-09 -7.86925e-09 -0.000130473)
(1.31879e-08 -4.4179e-09 -0.000130488)
(-1.31214e-09 -1.8892e-09 -0.000130484)
(1.23647e-09 -7.22172e-09 -0.00013047)
(1.77807e-10 4.62493e-09 -0.000130529)
(-2.18493e-12 -2.48942e-09 -0.000130492)
(1.59895e-08 -6.1057e-09 -0.000130487)
(-1.25453e-08 4.07715e-09 -0.000130476)
(9.93928e-10 2.04541e-09 -0.000130485)
(1.1355e-10 -5.04152e-09 -0.000130534)
(-1.747e-10 5.06245e-09 -0.000130473)
(1.34534e-09 1.89235e-09 -0.000130489)
(-1.1357e-08 3.3398e-09 -0.000130481)
(8.27795e-10 3.23639e-09 -0.000130472)
(6.78462e-11 -5.08067e-09 -0.000130532)
(5.72785e-09 -1.53046e-09 -0.000125072)
(4.45109e-09 5.34879e-09 -0.00012512)
(-1.72238e-09 4.3164e-09 -0.000125128)
(-5.24926e-09 -1.77727e-09 -0.000125086)
(5.62284e-10 3.83749e-09 -0.000125122)
(6.72233e-09 -1.25176e-09 -0.000125081)
(-5.65696e-10 -5.64833e-09 -0.000130537)
(1.76794e-09 7.63345e-09 -0.000130477)
(-2.50658e-09 1.13677e-09 -0.000130482)
(1.34381e-08 4.5196e-09 -0.000130475)
(-1.72743e-09 1.70197e-09 -0.000130475)
(1.076e-09 -3.0168e-09 -0.000130534)
(-4.47597e-09 -2.19693e-09 -0.000125166)
(2.76028e-09 -1.62945e-09 -0.000125119)
(4.16126e-09 -1.88861e-09 -0.000125116)
(-3.60376e-09 -9.53598e-11 -0.000125166)
(3.87112e-09 1.06973e-09 -0.000125118)
(-4.26407e-09 -1.78374e-09 -0.000125164)
(3.26297e-09 -7.00054e-10 -0.000125166)
(-2.84193e-09 1.52513e-09 -0.000125121)
(3.60947e-09 -3.48878e-10 -0.000125171)
(-1.03741e-09 -5.96702e-09 -0.000125125)
(-4.65883e-09 -3.21678e-09 -0.000125116)
(4.14138e-09 1.3593e-09 -0.000125165)
(-3.18634e-09 -5.66275e-10 -0.000125117)
(5.48018e-09 -4.58993e-09 -0.000125168)
(-1.47333e-08 -5.42585e-09 -0.000130493)
(1.19044e-10 -2.6335e-09 -0.000130506)
(-2.71126e-10 -5.24786e-09 -0.000130469)
(-2.20624e-09 8.08647e-10 -0.000130518)
(-9.11288e-11 -2.83787e-09 -0.000130503)
(-1.45951e-08 -4.93873e-09 -0.000130501)
(-8.77889e-09 2.96817e-10 -0.000125088)
(-3.99354e-09 -5.28256e-09 -0.000125139)
(7.92496e-09 7.53727e-10 -0.000125082)
(7.48893e-09 -6.63297e-09 -0.00012513)
(-2.73981e-09 -4.81659e-09 -0.00012514)
(-6.53717e-09 1.30988e-09 -0.000125098)
(4.42114e-09 -5.48908e-09 -0.000125134)
(1.00531e-08 -1.39659e-10 -0.000125091)
(-8.6351e-11 4.69517e-09 -0.000130529)
(4.37528e-09 -1.22023e-08 -0.00013047)
(1.53224e-08 -5.47604e-09 -0.00013049)
(4.57429e-09 -5.39088e-09 -0.000130495)
(4.24263e-10 -5.28108e-09 -0.000130464)
(1.75606e-09 1.90939e-09 -0.000130523)
(8.8645e-10 -3.34527e-09 -0.000130502)
(1.48143e-08 -5.39056e-09 -0.000130498)
(-8.73219e-09 1.84547e-09 -0.000130484)
(1.59786e-09 1.74507e-09 -0.000130492)
(-1.78914e-11 -5.12666e-09 -0.00013053)
(2.44505e-09 2.90046e-10 -0.000130472)
(4.33128e-10 2.48588e-09 -0.000130494)
(-4.5307e-09 -5.7617e-10 -0.000130485)
(4.97514e-09 -4.16718e-09 -0.000130471)
(-3.55495e-10 -4.83305e-09 -0.000130528)
(1.90504e-09 -3.15775e-09 -0.000125087)
(5.05771e-10 3.86344e-09 -0.000125122)
(-5.69672e-10 3.94362e-09 -0.000125122)
(-1.35995e-10 -3.96767e-09 -0.000125105)
(7.29138e-10 4.01042e-09 -0.000125116)
(-9.06875e-11 -4.0612e-09 -0.000125098)
(-4.40158e-10 -5.94597e-09 -0.000130534)
(-2.79148e-09 -3.53629e-10 -0.000130473)
(-4.49238e-10 2.3981e-09 -0.000130488)
(5.5866e-09 -3.02342e-11 -0.000130477)
(-5.66618e-09 -5.40869e-09 -0.000130472)
(5.92903e-10 -4.3697e-09 -0.00013053)
(-4.42706e-09 -1.66187e-09 -0.000125168)
(4.06233e-09 1.60941e-09 -0.000125109)
(6.26527e-09 -6.86562e-09 -0.0001251)
(-3.46626e-09 -1.06878e-09 -0.00012517)
(5.78012e-09 5.59748e-09 -0.000125101)
(-4.22915e-09 -1.08265e-09 -0.000125169)
(3.07332e-09 -1.75637e-09 -0.000125166)
(-5.29282e-09 -4.70758e-09 -0.000125109)
(3.85825e-09 -3.26963e-10 -0.000125167)
(-4.89628e-09 3.67593e-09 -0.000125112)
(-6.62178e-09 -7.84436e-09 -0.000125099)
(3.24388e-09 -1.58216e-09 -0.000125169)
(-5.96535e-09 5.99477e-09 -0.000125102)
(3.63962e-09 6.46846e-10 -0.000125172)
(-1.06274e-08 -3.05168e-09 -0.0001305)
(3.79228e-10 -2.51244e-09 -0.000130513)
(3.8111e-09 2.05644e-09 -0.000130467)
(-2.76671e-09 2.85101e-10 -0.000130514)
(-1.10848e-09 -3.46839e-09 -0.000130507)
(-7.86001e-09 -1.07935e-09 -0.000130507)
(-5.50805e-09 1.69669e-09 -0.000125105)
(-2.96845e-09 -4.87125e-09 -0.000125142)
(5.16256e-09 1.8264e-09 -0.000125102)
(6.74184e-10 -3.90617e-09 -0.000125132)
(-1.80606e-09 -4.55481e-09 -0.000125133)
(-1.69881e-09 3.41466e-09 -0.000125117)
(1.39566e-09 -4.27756e-09 -0.000125127)
(1.94688e-09 3.26212e-09 -0.00012511)
(1.78596e-10 4.91038e-09 -0.000130519)
(-1.31625e-09 -2.22773e-09 -0.000130464)
(1.07573e-08 -3.01658e-09 -0.000130503)
(-4.01809e-10 -2.44456e-09 -0.000130502)
(-3.98287e-09 2.20683e-09 -0.000130463)
(1.02547e-09 3.79684e-09 -0.000130516)
(6.16266e-10 -2.96442e-09 -0.000130509)
(8.32836e-09 -1.6824e-09 -0.000130503)
(1.0366e-09 -3.79297e-09 -0.000130485)
(-3.88179e-09 4.97438e-09 -0.000130496)
(-1.57379e-09 -2.97502e-09 -0.000130524)
(9.00913e-09 -1.12978e-08 -0.000130473)
(-1.29967e-08 1.02173e-08 -0.000130497)
(8.72828e-09 -8.19464e-09 -0.000130481)
(1.53945e-08 -2.24227e-08 -0.000130474)
(-4.20496e-09 1.30425e-09 -0.000130518)
(-3.42109e-09 -5.48353e-09 -0.000125112)
(5.96212e-09 6.16678e-09 -0.000125103)
(-7.05837e-09 6.82645e-09 -0.000125079)
(6.95227e-09 -7.05426e-09 -0.000125136)
(7.70006e-09 7.03901e-09 -0.000125071)
(-4.28292e-09 -6.04321e-09 -0.000125132)
(1.06406e-09 -3.76392e-09 -0.000130526)
(-7.3078e-09 -8.48711e-09 -0.000130475)
(1.32099e-08 1.01621e-08 -0.000130488)
(-6.14601e-09 -6.76441e-09 -0.000130477)
(-1.60709e-08 -2.36485e-08 -0.000130476)
(5.92767e-09 4.55314e-09 -0.000130517)
(-4.61603e-09 -1.44732e-09 -0.000125179)
(6.96388e-09 8.44904e-09 -0.000125083)
(1.09072e-08 -1.75126e-08 -0.000125056)
(-3.94208e-09 -7.271e-10 -0.000125192)
(1.03376e-08 1.61175e-08 -0.000125056)
(-4.95247e-09 -1.9291e-09 -0.000125191)
(3.28504e-09 -1.84735e-09 -0.000125177)
(-7.36732e-09 -9.29766e-09 -0.000125083)
(4.26773e-09 -7.09307e-10 -0.000125181)
(-5.12604e-09 3.61211e-09 -0.000125085)
(-1.11921e-08 -1.84562e-08 -0.000125053)
(4.58669e-09 9.85195e-10 -0.000125189)
(-9.4707e-09 1.41993e-08 -0.00012505)
(6.40433e-09 -5.46231e-09 -0.000125191)
(-9.07943e-10 2.53751e-09 -0.000130501)
(-5.15334e-09 -5.7517e-09 -0.000130516)
(1.43348e-08 2.05875e-08 -0.000130469)
(-6.77405e-09 -6.06973e-09 -0.000130504)
(-1.44624e-08 -1.11995e-08 -0.00013051)
(5.89237e-09 6.80988e-09 -0.000130503)
(1.0191e-09 4.46098e-09 -0.000125128)
(-4.28629e-09 -5.58478e-09 -0.000125121)
(-1.4511e-09 4.73313e-09 -0.000125123)
(8.07546e-09 -7.02286e-09 -0.000125112)
(-8.36072e-09 -7.46709e-09 -0.000125088)
(5.51127e-09 6.49634e-09 -0.000125147)
(1.17101e-08 -8.76114e-09 -0.000125084)
(-1.64078e-09 4.9233e-09 -0.000125141)
(2.28303e-09 1.52033e-09 -0.000130514)
(-4.0786e-09 2.72904e-09 -0.000130462)
(1.33016e-09 2.52184e-09 -0.000130503)
(9.92634e-09 -8.55266e-09 -0.000130509)
(-1.37408e-08 1.98375e-08 -0.000130458)
(7.04083e-09 -6.48013e-09 -0.000130502)
(1.66766e-08 -1.24764e-08 -0.00013051)
(-4.77576e-09 5.90792e-09 -0.000130501)
(2.14739e-08 -1.54669e-08 -0.000130469)
(-2.80161e-08 1.89012e-08 -0.000130498)
(-1.0054e-08 1.14085e-08 -0.000130505)
(2.5425e-08 -4.00946e-08 -0.000130478)
(-5.23388e-08 3.2806e-08 -0.000130499)
(4.55529e-08 -2.90011e-08 -0.000130444)
(4.20322e-08 -6.9274e-08 -0.000130486)
(-2.15998e-08 3.17176e-08 -0.000130482)
(-1.12065e-08 -8.91088e-09 -0.000125151)
(1.54174e-08 1.04669e-08 -0.000125017)
(-1.58635e-08 1.10791e-08 -0.00012494)
(2.26695e-08 -1.34752e-08 -0.000125199)
(2.26439e-08 1.37204e-08 -0.000124926)
(-1.84044e-08 -1.17975e-08 -0.00012519)
(1.02494e-08 1.16351e-08 -0.000130504)
(-2.48661e-08 -3.90868e-08 -0.000130476)
(5.78762e-08 3.56508e-08 -0.000130482)
(-4.03376e-08 -2.62312e-08 -0.000130433)
(-4.04335e-08 -6.63879e-08 -0.000130476)
(2.33745e-08 3.47624e-08 -0.000130475)
(-6.13823e-09 -4.225e-09 -0.000125215)
(1.2865e-08 2.16302e-08 -0.000125006)
(1.75341e-08 -3.18222e-08 -0.000124924)
(-8.09648e-09 8.85994e-09 -0.000125254)
(1.69471e-08 3.04258e-08 -0.000124922)
(-9.2487e-09 -1.18037e-08 -0.000125254)
(5.17915e-09 1.6574e-09 -0.000125209)
(-1.37229e-08 -2.38058e-08 -0.000125001)
(6.38509e-09 -4.79015e-09 -0.000125209)
(-1.32051e-08 2.26882e-08 -0.000124999)
(-1.66616e-08 -2.99004e-08 -0.000124911)
(9.09349e-09 1.11629e-08 -0.000125244)
(-1.67064e-08 3.00048e-08 -0.000124908)
(9.81485e-09 -1.29426e-08 -0.000125244)
(1.97363e-08 1.42561e-08 -0.000130486)
(-3.05657e-08 -2.0291e-08 -0.000130517)
(4.08067e-08 6.70721e-08 -0.000130477)
(-2.42314e-08 -3.64065e-08 -0.000130467)
(-5.38265e-08 -3.37484e-08 -0.000130506)
(4.17289e-08 2.71375e-08 -0.000130469)
(9.15491e-09 7.93505e-09 -0.000125171)
(-1.37363e-08 -9.78328e-09 -0.00012504)
(-7.36858e-09 7.34514e-09 -0.000125166)
(1.62114e-08 -1.07819e-08 -0.00012503)
(-1.639e-08 -1.13502e-08 -0.000124948)
(2.08981e-08 1.28212e-08 -0.000125212)
(2.48102e-08 -1.4578e-08 -0.000124938)
(-1.56211e-08 1.07871e-08 -0.000125202)
(1.10835e-08 -1.31343e-08 -0.000130484)
(-2.3718e-08 3.72684e-08 -0.000130461)
(-1.79938e-08 1.34215e-08 -0.000130489)
(3.20593e-08 -2.11017e-08 -0.000130508)
(-4.00387e-08 6.55345e-08 -0.000130461)
(2.38789e-08 -3.54304e-08 -0.000130454)
(6.0341e-08 -3.68979e-08 -0.000130505)
(-3.74015e-08 2.44616e-08 -0.000130462)
(8.88451e-08 -5.28944e-08 -0.000130401)
(-9.19296e-08 5.54581e-08 -0.000130515)
(-4.26173e-08 6.93137e-08 -0.000130441)
(7.00721e-08 -1.1854e-07 -0.000130508)
(-1.56122e-07 9.41759e-08 -0.000130597)
(1.65633e-07 -9.5029e-08 -0.000130333)
(1.17241e-07 -1.98881e-07 -0.000130603)
(-7.9322e-08 1.365e-07 -0.000130383)
(-3.22438e-08 -1.72356e-08 -0.000125254)
(3.56218e-08 1.95885e-08 -0.000124786)
(-8.33589e-09 1.26715e-08 -0.000124633)
(7.19662e-08 -3.25038e-08 -0.000125395)
(3.503e-08 2.27033e-08 -0.000124594)
(-4.79391e-08 -2.30674e-08 -0.000125383)
(4.57531e-08 7.47702e-08 -0.000130426)
(-6.31223e-08 -1.06427e-07 -0.000130485)
(1.73478e-07 1.01524e-07 -0.000130531)
(-1.43538e-07 -8.2925e-08 -0.000130327)
(-1.02077e-07 -1.7352e-07 -0.000130537)
(8.55867e-08 1.47598e-07 -0.000130351)
(-1.41713e-08 -2.45074e-08 -0.000125328)
(2.10037e-08 3.94451e-08 -0.000124781)
(2.79744e-08 -4.63225e-08 -0.000124641)
(-2.07947e-08 4.31419e-08 -0.000125465)
(2.38097e-08 3.70866e-08 -0.000124626)
(-1.95502e-08 -4.04433e-08 -0.000125465)
(1.52068e-08 2.66545e-08 -0.000125308)
(-1.83985e-08 -3.26243e-08 -0.00012476)
(1.55785e-08 -2.80368e-08 -0.000125312)
(-1.72116e-08 3.02579e-08 -0.000124755)
(-2.08719e-08 -2.98267e-08 -0.000124575)
(2.53849e-08 5.38839e-08 -0.000125425)
(-1.8672e-08 2.58974e-08 -0.000124561)
(2.57226e-08 -5.56425e-08 -0.000125428)
(8.62056e-08 5.11174e-08 -0.000130422)
(-9.15044e-08 -5.50364e-08 -0.000130522)
(1.03903e-07 1.78474e-07 -0.000130563)
(-7.9155e-08 -1.37338e-07 -0.000130371)
(-1.34471e-07 -8.03209e-08 -0.000130571)
(1.60914e-07 9.17836e-08 -0.000130374)
(3.80414e-08 1.9411e-08 -0.000125277)
(-1.64721e-08 -1.21772e-08 -0.00012481)
(-2.85493e-08 1.58075e-08 -0.000125262)
(4.0339e-08 -2.15211e-08 -0.000124793)
(4.51315e-09 -7.0755e-09 -0.000124632)
(6.77599e-08 3.04978e-08 -0.00012541)
(3.83793e-08 -2.4041e-08 -0.000124606)
(-4.31394e-08 2.08335e-08 -0.000125387)
(4.6453e-08 -7.64604e-08 -0.000130409)
(-6.14245e-08 1.04117e-07 -0.000130468)
(-7.67186e-08 4.62914e-08 -0.000130414)
(1.12338e-07 -6.66977e-08 -0.000130507)
(-9.55156e-08 1.64568e-07 -0.000130505)
(8.65135e-08 -1.50148e-07 -0.000130329)
(1.69276e-07 -9.91515e-08 -0.000130555)
(-1.41601e-07 8.10372e-08 -0.000130348)
(3.2172e-07 -1.78674e-07 -0.000130278)
(-2.70015e-07 1.70986e-07 -0.000130978)
(-1.43353e-07 2.58599e-07 -0.000130352)
(1.9524e-07 -3.18513e-07 -0.000131028)
(-2.80042e-07 2.63006e-07 -0.000132169)
(6.52124e-07 -3.56363e-07 -0.000130397)
(2.81832e-07 -2.99311e-07 -0.00013242)
(-2.287e-07 4.2421e-07 -0.000130536)
(-8.15938e-08 -3.27545e-08 -0.000125651)
(9.8791e-09 2.52802e-08 -0.000124554)
(2.85274e-07 -8.79955e-09 -0.000125204)