/*--------------------------------*- C++ -*----------------------------------*\
| =========                 |                                                 |
| \\      /  F ield         | OpenFOAM: The Open Source CFD Toolbox           |
|  \\    /   O peration     | Version:  2206                                  |
|   \\  /    A nd           | Website:  www.openfoam.com                      |
|    \\/     M anipulation  |                                                 |
\*---------------------------------------------------------------------------*/
FoamFile
{
    version     2.0;
    format      ascii;
    arch        "LSB;label=32;scalar=64";
    class       volScalarField;
    location    "130";
    object      k;
}
// * * * * * * * * * * * * * * * * * * * * * * * * * * * * * * * * * * * * * //

dimensions      [0 2 -2 0 0 0 0];

internalField   nonuniform List<scalar> 
66701
(
2.13554e-05
1.99315e-05
3.33654e-05
4.93459e-05
2.65512e-05
8.52367e-05
7.75421e-05
2.90972e-05
2.01833e-05
3.38015e-05
4.99009e-05
2.67426e-05
8.54387e-05
2.91355e-05
7.82232e-05
2.16509e-05
6.22009e-06
1.48788e-06
2.65966e-07
6.07175e-08
2.73383e-07
6.28154e-06
1.50092e-06
2.68022e-07
6.0927e-08
2.73703e-07
6.22817e-06
1.4496e-06
2.52845e-07
5.4756e-08
2.42372e-07
6.31223e-06
1.46853e-06
2.55704e-07
5.48997e-08
2.42797e-07
6.3082e-06
1.50907e-06
2.69557e-07
6.10741e-08
2.7387e-07
6.36929e-06
1.52204e-06
2.71565e-07
6.12511e-08
2.74104e-07
6.05149e-06
1.42546e-06
2.51591e-07
5.62071e-08
2.50882e-07
6.26126e-06
1.48115e-06
2.62091e-07
5.80251e-08
2.57893e-07
6.10759e-06
1.43922e-06
2.53864e-07
5.64077e-08
2.51219e-07
6.27868e-06
1.48559e-06
2.62801e-07
5.80838e-08
2.58002e-07
2.10732e-05
2.13835e-05
0.000115359
5.13729e-05
5.15094e-05
3.29005e-05
0.000110715
8.70233e-05
8.53937e-05
3.33805e-05
0.000114164
0.000110908
8.77368e-05
9.33727e-05
8.56379e-05
3.38431e-05
0.000114527
0.000110351
9.33683e-05
8.87828e-05
2.17079e-05
0.000115748
5.21997e-05
2.13214e-05
4.04856e-05
1.96392e-05
1.96467e-05
4.05825e-05
1.96158e-05
1.96118e-05
8.41304e-05
3.34572e-05
0.000104927
5.1515e-05
8.42291e-05
3.33909e-05
0.000104929
8.29693e-05
3.31807e-05
0.000104461
5.13528e-05
8.3094e-05
3.31025e-05
0.000104345
2.64908e-05
7.75573e-05
2.91172e-05
8.523e-05
2.65736e-05
7.73736e-05
2.90301e-05
1.98973e-05
4.93557e-05
3.32954e-05
1.9956e-05
4.92324e-05
2.67309e-05
2.92744e-05
7.84734e-05
8.54775e-05
2.69132e-05
2.91538e-05
7.82366e-05
2.01682e-05
5.00096e-05
3.37329e-05
2.02659e-05
4.98219e-05
2.1625e-05
4.09364e-05
1.98439e-05
1.98426e-05
8.39444e-05
0.000105765
5.20291e-05
0.00010565
3.34948e-05
8.47163e-05
5.20187e-05
3.37657e-05
0.000105073
2.15159e-05
7.65868e-05
5.61316e-05
5.71538e-05
3.87391e-05
7.74193e-05
5.72112e-05
5.7933e-05
3.79127e-05
5.64267e-05
3.82857e-05
5.73376e-05
3.8408e-05
0.000109562
0.000115446
0.000119166
0.000118565
0.000109573
0.000119254
0.000118706
0.000115338
0.000102443
0.000113407
8.7414e-05
0.000113553
0.000115177
0.000102875
0.000115144
0.000111113
0.000113669
0.000114142
0.000114957
0.00011108
0.000113833
0.000116018
0.000103374
0.000113748
8.75849e-05
0.000113853
0.000115973
0.000103217
0.000115529
0.000113933
0.000112008
0.000114465
0.000115528
0.000113941
0.00011194
0.000116485
0.000104233
0.000114708
8.85883e-05
0.000116358
0.000104129
0.000114837
0.000110452
0.000116014
0.000120095
0.000120295
0.000119101
6.12644e-06
1.46667e-06
2.62445e-07
6.03406e-08
2.72746e-07
6.23152e-06
1.49106e-06
2.66545e-07
6.07617e-08
2.7335e-07
6.11528e-06
1.42496e-06
2.49088e-07
5.44777e-08
2.41623e-07
6.23246e-06
1.45087e-06
2.53046e-07
5.4757e-08
2.42348e-07
6.33007e-06
1.47315e-06
2.56395e-07
5.49074e-08
2.4279e-07
6.32904e-06
1.51419e-06
2.70426e-07
6.11387e-08
2.73855e-07
6.21643e-06
1.48751e-06
2.65882e-07
6.05715e-08
2.72379e-07
6.04484e-06
1.42447e-06
2.51382e-07
5.60235e-08
2.49766e-07
6.27594e-06
1.48541e-06
2.62821e-07
5.80683e-08
2.57906e-07
6.06003e-06
1.42801e-06
2.52059e-07
5.62418e-08
2.50896e-07
6.25543e-06
1.48037e-06
2.61892e-07
5.78131e-08
2.5666e-07
6.22232e-06
1.44875e-06
2.5264e-07
5.45967e-08
2.41559e-07
6.10986e-06
1.44008e-06
2.53936e-07
5.62326e-08
2.50086e-07
6.30351e-06
1.4914e-06
2.63764e-07
5.81385e-08
2.5803e-07
6.13725e-06
1.44571e-06
2.54924e-07
5.64762e-08
2.51245e-07
6.28127e-06
1.48625e-06
2.62801e-07
5.78816e-08
2.56778e-07
6.30965e-06
1.46845e-06
2.55586e-07
5.47287e-08
2.41958e-07
6.30767e-06
1.50937e-06
2.69571e-07
6.09371e-08
2.72905e-07
6.42737e-06
1.4937e-06
2.59596e-07
5.5232e-08
2.44033e-07
6.22886e-06
1.49127e-06
2.66633e-07
6.06791e-08
2.72648e-07
5.93653e-06
1.41502e-06
2.52664e-07
5.88105e-08
2.67965e-07
6.36241e-06
1.47873e-06
2.57477e-07
5.52472e-08
2.44301e-07
6.35612e-06
1.47795e-06
2.57307e-07
5.51401e-08
2.43798e-07
5.95167e-06
1.41863e-06
2.53275e-07
5.88742e-08
2.6809e-07
6.36509e-06
1.48033e-06
2.5774e-07
5.52558e-08
2.44345e-07
6.35482e-06
1.4782e-06
2.57335e-07
5.51071e-08
2.43618e-07
5.93358e-06
1.41469e-06
2.52606e-07
5.87187e-08
2.67312e-07
5.94533e-06
1.41744e-06
2.53057e-07
5.87431e-08
2.67245e-07
6.27742e-06
1.50057e-06
2.67947e-07
6.07778e-08
2.7268e-07
6.29187e-06
1.50411e-06
2.68612e-07
6.09735e-08
2.73687e-07
6.37012e-06
1.52278e-06
2.71653e-07
6.11106e-08
2.73096e-07
6.39668e-06
1.52881e-06
2.72715e-07
6.13386e-08
2.74121e-07
6.43222e-06
1.49528e-06
2.59833e-07
5.52104e-08
2.43957e-07
6.01851e-06
1.43501e-06
2.56065e-07
5.90641e-08
2.67635e-07
6.00471e-06
1.43169e-06
2.55498e-07
5.90162e-08
2.67614e-07
5.87401e-05
6.4412e-05
4.22392e-05
6.25927e-05
6.13429e-05
6.79206e-05
4.34975e-05
6.64681e-05
6.47648e-05
7.11013e-05
4.52375e-05
7.0942e-05
6.85282e-05
7.54872e-05
4.73094e-05
7.2795e-05
7.25754e-05
7.84564e-05
4.98067e-05
7.63892e-05
7.65487e-05
8.1999e-05
5.16178e-05
8.06713e-05
7.92217e-05
8.65598e-05
5.50522e-05
8.55488e-05
8.36434e-05
8.97362e-05
5.62552e-05
8.90651e-05
8.82854e-05
9.46881e-05
5.9209e-05
9.15215e-05
9.30728e-05
9.84511e-05
6.21436e-05
9.59355e-05
9.44949e-05
0.000101909
6.3473e-05
9.91769e-05
9.72417e-05
0.000104587
6.72878e-05
0.000101556
0.000100825
0.00010674
6.99544e-05
0.000104326
0.000104129
0.000108861
7.10215e-05
0.000105452
0.000106606
0.000111002
7.40077e-05
0.0001081
0.000107208
0.000112686
7.66724e-05
0.000110161
0.000108012
0.000113096
6.47941e-05
6.78175e-05
5.88029e-05
6.08777e-05
6.18976e-05
6.76541e-05
6.81192e-05
7.14857e-05
6.15049e-05
6.2344e-05
6.40485e-05
6.50219e-05
6.85407e-05
7.22327e-05
6.24411e-05
6.28615e-05
6.51272e-05
6.52613e-05
6.16618e-05
6.55211e-05
6.44634e-05
6.8014e-05
7.14269e-05
6.29854e-05
6.37904e-05
6.41433e-05
7.08517e-05
7.17588e-05
7.5011e-05
6.50213e-05
6.60273e-05
6.79227e-05
6.80058e-05
7.25239e-05
7.5528e-05
6.58521e-05
6.61951e-05
6.87284e-05
6.89373e-05
6.55643e-05
6.98543e-05
6.87826e-05
7.16825e-05
7.51801e-05
6.47759e-05
6.77255e-05
6.72554e-05
7.51449e-05
7.53866e-05
7.87924e-05
6.94685e-05
6.88829e-05
7.24968e-05
7.04057e-05
7.58947e-05
7.91466e-05
6.98142e-05
7.00582e-05
7.10205e-05
7.28457e-05
6.99516e-05
7.24448e-05
7.25575e-05
7.55574e-05
7.88548e-05
6.82891e-05
7.17287e-05
7.09654e-05
7.83961e-05
7.89924e-05
8.22078e-05
7.31773e-05
7.12639e-05
7.50744e-05
7.45226e-05
7.94442e-05
8.32688e-05
7.14412e-05
7.35748e-05
7.3756e-05
7.52708e-05
7.33933e-05
7.54365e-05
7.49852e-05
7.9141e-05
8.33004e-05
7.17384e-05
7.60264e-05
7.44634e-05
8.16214e-05
8.26448e-05
8.53196e-05
7.6137e-05
7.57519e-05
7.93692e-05
7.92622e-05
8.37206e-05
8.71943e-05
7.48759e-05
7.62162e-05
7.76859e-05
7.93251e-05
7.63561e-05
7.96405e-05
8.03215e-05
8.35667e-05
8.7431e-05
7.54138e-05
7.82927e-05
7.8685e-05
8.62257e-05
8.56735e-05
9.04674e-05
8.04696e-05
8.05661e-05
8.26684e-05
8.34208e-05
8.76514e-05
9.13187e-05
7.87624e-05
8.04147e-05
8.22206e-05
8.39036e-05
8.13061e-05
8.40714e-05
8.34118e-05
8.78538e-05
9.14734e-05
7.98322e-05
8.24968e-05
8.0374e-05
8.93473e-05
9.09899e-05
9.46864e-05
8.37235e-05
8.41756e-05
8.6486e-05
8.69689e-05
9.14855e-05
9.51223e-05
8.3456e-05
8.52324e-05
8.69036e-05
8.78815e-05
8.43996e-05
8.87712e-05
8.81493e-05
9.20257e-05
9.49484e-05
8.13844e-05
8.72041e-05
8.45843e-05
9.43882e-05
9.49855e-05
9.81567e-05
8.76291e-05
8.81904e-05
9.08308e-05
9.11125e-05
9.53554e-05
9.85721e-05
8.81838e-05
8.79327e-05
9.06928e-05
9.07463e-05
8.9651e-05
9.0613e-05
9.16943e-05
9.52412e-05
9.9429e-05
8.58768e-05
9.20154e-05
8.92262e-05
9.82464e-05
9.85034e-05
0.000101734
9.22291e-05
9.23097e-05
9.34449e-05
9.5376e-05
9.88868e-05
0.000102591
9.06879e-05
9.20225e-05
9.30442e-05
9.53494e-05
9.21206e-05
9.51177e-05
9.46767e-05
9.99028e-05
0.000102606
9.03342e-05
9.39528e-05
9.34273e-05
0.000101711
0.000101925
0.000104796
9.42383e-05
9.626e-05
9.69458e-05
9.76769e-05
0.000102903
0.000105643
9.40883e-05
9.64757e-05
9.71025e-05
9.94833e-05
9.58177e-05
9.8466e-05
9.83225e-05
0.000103
0.000105539
9.43811e-05
9.66695e-05
9.74621e-05
0.000104609
0.000104991
0.000107702
9.77258e-05
9.85309e-05
0.000100386
0.000101173
0.000105792
0.000107855
9.8131e-05
0.000100174
0.00010112
0.000101856
9.95476e-05
0.000100975
0.000101674
0.000105586
0.000108353
9.85591e-05
9.99877e-05
9.97529e-05
0.000106659
0.000108124
0.000109958
0.000101326
0.000102058
0.000103255
0.00010423
0.000108026
0.000109771
0.00010217
0.000102696
0.000104402
0.00010528
0.000102435
0.00010352
0.000102587
0.000108592
0.000110096
0.000100137
0.000103495
0.000102203
0.000108716
0.00010997
0.000111341
0.000103832
0.000104718
0.000105489
0.000106131
0.000110063
0.000111611
0.000105254
0.000105963
0.000105548
0.000108216
0.000103281
0.000105311
0.000105528
0.000110406
0.000112085
0.000102948
0.000105826
0.000105207
0.000110902
0.000111628
0.000113418
0.00010574
0.00010605
0.0001069
0.000106485
0.000111659
0.000113265
0.000106458
0.000108575
0.000108536
0.000109125
0.000106234
0.000107444
0.000108263
0.000112047
0.000112774
0.000105682
0.000107618
0.000107441
0.000112404
0.000113515
0.000115144
0.000107498
0.000107261
0.000109936
0.000109585
0.000113457
0.00011501
0.000109307
0.000109635
0.000110206
0.000109118
0.000108597
0.000110019
0.00010861
0.000112891
0.000114855
0.000107308
0.000107698
0.000107085
0.000113246
0.000110451
0.000115259
0.000110304
0.00010884
0.000108797
0.000114811
0.000106998
1.24718e-05
1.28787e-05
7.29842e-05
4.82913e-05
5.39828e-05
5.9394e-05
5.51742e-05
7.13931e-05
4.89335e-05
3.02429e-05
3.08098e-05
6.59472e-05
3.14581e-05
3.08152e-05
5.88102e-05
2.12487e-05
2.15395e-05
5.79996e-05
1.3336e-05
1.35843e-05
5.7131e-05
2.06779e-05
2.09892e-05
5.66854e-05
4.33448e-05
4.2272e-05
4.18374e-05
4.32238e-05
4.3656e-05
4.31869e-05
4.27348e-05
7.60585e-05
5.65743e-05
5.1706e-05
6.35796e-05
5.78573e-05
5.23336e-05
7.44649e-05
1.3228e-05
1.34317e-05
7.65397e-05
5.05245e-05
5.73181e-05
6.20391e-05
7.51456e-05
5.1157e-05
5.84914e-05
3.23434e-05
3.32117e-05
6.93318e-05
3.29392e-05
3.38075e-05
6.09226e-05
2.22705e-05
6.02012e-05
2.25931e-05
1.40814e-05
1.42791e-05
5.94201e-05
2.1841e-05
5.86714e-05
2.21879e-05
4.40201e-05
4.35952e-05
4.31578e-05
4.47081e-05
4.532e-05
4.47818e-05
4.44078e-05
8.0447e-05
6.0199e-05
5.45732e-05
6.75497e-05
7.89232e-05
6.10547e-05
5.52513e-05
1.40495e-05
1.42596e-05
8.00118e-05
5.30445e-05
6.05869e-05
6.56392e-05
7.86674e-05
5.37925e-05
6.12804e-05
3.43944e-05
3.46643e-05
7.29614e-05
3.48317e-05
3.50667e-05
6.4082e-05
2.34045e-05
6.29379e-05
2.37618e-05
1.47445e-05
1.49806e-05
6.20777e-05
2.30162e-05
6.14304e-05
2.32514e-05
4.5812e-05
4.52434e-05
4.48971e-05
4.67166e-05
4.72486e-05
4.68618e-05
4.61072e-05
8.35683e-05
6.34642e-05
5.82056e-05
7.20106e-05
8.26721e-05
6.43556e-05
5.88906e-05
1.48478e-05
1.50569e-05
8.41247e-05
5.60388e-05
6.31067e-05
6.96688e-05
8.27089e-05
5.68851e-05
6.39779e-05
3.5754e-05
3.62705e-05
7.67959e-05
3.60445e-05
3.66958e-05
6.78055e-05
2.45269e-05
6.67669e-05
2.47848e-05
1.5607e-05
1.59108e-05
6.46181e-05
2.40951e-05
6.38538e-05
2.45269e-05
4.77345e-05
4.72741e-05
4.65403e-05
4.94076e-05
4.99697e-05
4.90623e-05
4.79804e-05
8.63763e-05
6.57209e-05
6.09626e-05
7.36462e-05
8.50364e-05
6.63582e-05
6.07706e-05
1.5626e-05
1.58166e-05
8.75205e-05
5.98864e-05
6.60001e-05
7.36244e-05
8.59953e-05
6.09657e-05
6.72136e-05
3.72464e-05
3.80145e-05
7.91433e-05
3.78297e-05
3.86247e-05
6.98999e-05
2.55434e-05
6.91906e-05
2.59638e-05
1.66183e-05
1.68598e-05
6.8183e-05
2.5552e-05
6.69948e-05
2.58432e-05
5.02024e-05
4.96228e-05
4.85283e-05
5.1242e-05
5.10535e-05
5.1967e-05
5.02812e-05
9.145e-05
6.84514e-05
6.24922e-05
7.74513e-05
8.93834e-05
6.9344e-05
6.34633e-05
1.62681e-05
1.64516e-05
9.21771e-05
6.20061e-05
6.96836e-05
7.72944e-05
9.04911e-05
6.29601e-05
7.06512e-05
3.96793e-05
3.97328e-05
8.41069e-05
4.04156e-05
4.00717e-05
7.27632e-05
2.70786e-05
7.17419e-05
2.75474e-05
1.73893e-05
1.76089e-05
7.19558e-05
2.67728e-05
7.10522e-05
2.70972e-05
5.17774e-05
5.21633e-05
5.0905e-05
5.40586e-05
5.40256e-05
5.28507e-05
5.28363e-05
9.65123e-05
7.18405e-05
6.64817e-05
8.17796e-05
9.4913e-05
7.28024e-05
6.74936e-05
1.71208e-05
1.73982e-05
9.64198e-05
6.63495e-05
7.25845e-05
8.0387e-05
9.50603e-05
6.66649e-05
7.33398e-05
4.15775e-05
4.13341e-05
8.79389e-05
4.19642e-05
4.2036e-05
7.5562e-05
2.83228e-05
7.47535e-05
2.85541e-05
1.82207e-05
1.8508e-05
7.43572e-05
2.80759e-05
7.3607e-05
2.84098e-05
5.48997e-05
5.35283e-05
5.36815e-05
5.561e-05
5.79356e-05
5.55067e-05
5.66692e-05
9.97624e-05
7.4811e-05
7.1154e-05
8.64685e-05
9.89789e-05
7.54678e-05
7.24647e-05
1.81091e-05
1.83312e-05
9.95059e-05
6.78194e-05
7.49118e-05
8.49191e-05
9.83991e-05
6.88246e-05
7.56972e-05
4.33147e-05
4.3604e-05
9.21364e-05
4.39057e-05
4.40984e-05
7.79397e-05
2.92493e-05
7.74159e-05
2.9665e-05
1.89968e-05
1.90969e-05
7.69308e-05
2.92745e-05
7.63908e-05
2.95462e-05
5.82319e-05
5.6158e-05
5.695e-05
5.85407e-05
5.87672e-05
5.88672e-05
5.74916e-05
0.000102706
7.73811e-05
7.28371e-05
8.90687e-05
0.00010152
7.81183e-05
7.34614e-05
1.89184e-05
1.91187e-05
0.000102438
7.15186e-05
7.77468e-05
8.9569e-05
0.000101193
7.24237e-05
7.86583e-05
4.52064e-05
4.53072e-05
9.63857e-05
4.56157e-05
4.57396e-05
7.98374e-05
3.05262e-05
7.92488e-05
3.0741e-05
1.94551e-05
1.96532e-05
7.9075e-05
3.02151e-05
7.85049e-05
3.04537e-05
5.99039e-05
5.97028e-05
5.81287e-05
6.18696e-05
6.25144e-05
6.20964e-05
6.04452e-05
0.000105994
7.98405e-05
7.64281e-05
9.27764e-05
0.000104879
8.02543e-05
7.72434e-05
1.9659e-05
1.98016e-05
0.00010555
7.52702e-05
8.03289e-05
9.33923e-05
0.000104531
7.60086e-05
8.08035e-05
4.6556e-05
4.66412e-05
9.99444e-05
4.68374e-05
4.6891e-05
8.15873e-05
3.13239e-05
8.118e-05
3.15026e-05
2.01209e-05
2.02549e-05
8.07971e-05
3.11397e-05
8.03875e-05
3.12961e-05
6.36455e-05
6.2245e-05
6.11722e-05
6.28995e-05
6.37669e-05
6.25448e-05
6.36459e-05
0.000107251
8.089e-05
8.03194e-05
9.68957e-05
0.000107089
8.08229e-05
8.15788e-05
2.01996e-05
2.03171e-05
0.000107627
7.8246e-05
8.16602e-05
9.5257e-05
0.000106909
7.80405e-05
8.18619e-05
4.74884e-05
4.76947e-05
0.000103175
4.76029e-05
4.79376e-05
8.29727e-05
3.19926e-05
8.25405e-05
3.21539e-05
2.05867e-05
2.06816e-05
8.21499e-05
3.18081e-05
8.18519e-05
3.1938e-05
6.41661e-05
6.32178e-05
6.42833e-05
6.6502e-05
6.62837e-05
6.54675e-05
6.67641e-05
0.000107819
8.08032e-05
8.13328e-05
9.97335e-05
0.000107703
8.07895e-05
8.19392e-05
2.0616e-05
2.0709e-05
0.000109638
7.94735e-05
8.24294e-05
9.82226e-05
0.000108928
8.0266e-05
8.2598e-05
4.80312e-05
4.87107e-05
0.000105545
4.80652e-05
4.89722e-05
8.40846e-05
3.25813e-05
8.38564e-05
3.26943e-05
2.08931e-05
2.09369e-05
8.33568e-05
3.2369e-05
8.31086e-05
3.24304e-05
6.69987e-05
6.64736e-05
6.77928e-05
6.91308e-05
6.90754e-05
6.90152e-05
6.77926e-05
0.000108352
8.20241e-05
8.39704e-05
0.000102239
0.000108034
8.28987e-05
8.46857e-05
2.10013e-05
2.10656e-05
0.000110957
8.26315e-05
8.38268e-05
0.000101565
0.000110458
8.35912e-05
8.43626e-05
4.84051e-05
4.96489e-05
0.000107435
4.85963e-05
4.98078e-05
8.48271e-05
3.30423e-05
8.46126e-05
3.31459e-05
2.11242e-05
2.11729e-05
8.42364e-05
3.27505e-05
8.40757e-05
3.28127e-05
6.98665e-05
6.96642e-05
6.82777e-05
7.04113e-05
7.14316e-05
7.21238e-05
7.06472e-05
0.000110916
8.49189e-05
8.71236e-05
0.000105255
0.000110052
8.53608e-05
8.79752e-05
2.12703e-05
2.12988e-05
0.000111872
8.60956e-05
8.53682e-05
0.000104727
0.000111507
8.73696e-05
8.56111e-05
4.95012e-05
5.02728e-05
0.000109827
4.98069e-05
5.03675e-05
8.56177e-05
3.34234e-05
8.54509e-05
3.34668e-05
2.13345e-05
2.1368e-05
8.48019e-05
3.31494e-05
8.48592e-05
3.31304e-05
7.24432e-05
7.29054e-05
7.13695e-05
7.30561e-05
7.22174e-05
7.42704e-05
7.32086e-05
0.000113172
8.6357e-05
8.98606e-05
0.000106043
0.000112597
8.66354e-05
9.04237e-05
2.14496e-05
2.14619e-05
0.000113017
8.86027e-05
8.6328e-05
0.000106834
0.000112574
8.97173e-05
8.65877e-05
5.04933e-05
5.07253e-05
0.000111694
5.06221e-05
5.07838e-05
8.54791e-05
3.35528e-05
8.58417e-05
3.36092e-05
2.14893e-05
2.15433e-05
8.51677e-05
3.32332e-05
8.51644e-05
3.31901e-05
7.28547e-05
7.40031e-05
7.37854e-05
7.58137e-05
7.52965e-05
7.36463e-05
7.30967e-05
0.000114378
8.7224e-05
9.20968e-05
0.000108586
0.000114047
8.73424e-05
9.22361e-05
2.16096e-05
2.16305e-05
0.000113886
8.95531e-05
8.73686e-05
0.000107722
0.000113513
8.90054e-05
8.7662e-05
5.10504e-05
5.10522e-05
0.000112915
5.10779e-05
5.10849e-05
2.12607e-05
3.37127e-05
8.63113e-05
7.60141e-05
7.31454e-05
7.27825e-05
8.86011e-05
9.27511e-05
0.000115085
2.18714e-05
8.92406e-05
8.87563e-05
0.000114479
5.18735e-05
5.17317e-05
3.06533e-05
3.09454e-05
6.57271e-05
3.18354e-05
3.16776e-05
1.25881e-05
1.29291e-05
1.306e-05
1.2941e-05
6.62964e-05
3.18355e-05
3.24565e-05
3.19966e-05
3.15586e-05
1.32788e-05
1.30674e-05
7.29045e-05
4.8601e-05
5.42305e-05
5.98776e-05
5.53762e-05
7.15027e-05
4.90457e-05
5.66236e-05
2.007e-05
2.0493e-05
5.58608e-05
5.66351e-05
2.0174e-05
2.05969e-05
5.58348e-05
7.336e-05
5.98415e-05
4.99867e-05
5.66459e-05
5.5685e-05
7.46759e-05
4.9212e-05
7.34282e-05
6.09409e-05
5.00651e-05
5.74649e-05
5.6097e-05
7.476e-05
4.96088e-05
5.69506e-05
2.09883e-05
2.07003e-05
5.7599e-05
5.70449e-05
2.13751e-05
2.08891e-05
5.7904e-05
1.23372e-05
1.25874e-05
1.26332e-05
1.29012e-05
6.62031e-05
3.18671e-05
3.27132e-05
3.19518e-05
3.12896e-05
1.30294e-05
1.27801e-05
1.34257e-05
1.30941e-05
1.33498e-05
1.35556e-05
1.31745e-05
1.33787e-05
3.26752e-05
3.22221e-05
6.97128e-05
3.31735e-05
3.269e-05
1.39421e-05
1.37054e-05
1.37512e-05
1.35478e-05
6.99628e-05
3.41487e-05
3.35672e-05
3.35776e-05
3.31098e-05
5.84002e-05
2.10548e-05
2.14252e-05
5.75437e-05
7.62352e-05
5.72217e-05
5.0257e-05
6.23206e-05
5.80147e-05
5.08489e-05
7.47609e-05
7.56212e-05
5.68964e-05
5.11461e-05
6.30331e-05
5.78691e-05
5.18201e-05
7.44144e-05
5.91961e-05
2.2052e-05
2.17367e-05
5.97926e-05
5.89691e-05
2.20894e-05
2.1681e-05
5.99843e-05
7.67661e-05
6.32662e-05
5.94485e-05
5.20175e-05
5.85179e-05
5.14568e-05
7.78969e-05
7.61779e-05
6.4085e-05
5.96486e-05
5.27808e-05
5.85113e-05
5.23256e-05
7.76507e-05
3.27314e-05
3.2452e-05
7.01229e-05
3.33186e-05
3.31695e-05
1.32862e-05
1.35978e-05
1.39426e-05
1.37338e-05
7.04987e-05
3.4125e-05
3.42008e-05
3.36923e-05
3.36823e-05
1.40403e-05
1.38087e-05
7.4987e-05
5.61222e-05
5.20583e-05
6.33483e-05
5.69336e-05
5.25931e-05
7.40335e-05
5.72315e-05
2.08911e-05
2.12059e-05
5.66846e-05
7.49591e-05
5.2238e-05
5.65128e-05
6.346e-05
5.26804e-05
5.72738e-05
7.3825e-05
5.76048e-05
2.15509e-05
2.12518e-05
5.81232e-05
7.54117e-05
6.43109e-05
5.83462e-05
5.36296e-05
5.75255e-05
5.32139e-05
7.64779e-05
5.77712e-05
2.17982e-05
2.14812e-05
5.84277e-05
7.55756e-05
6.43659e-05
5.3779e-05
5.87214e-05
5.32971e-05
5.78856e-05
7.68713e-05
5.83285e-05
2.09187e-05
2.13842e-05
5.73118e-05
7.59608e-05
5.17462e-05
5.64024e-05
6.24894e-05
5.24525e-05
5.74922e-05
7.44486e-05
5.81356e-05
2.08418e-05
2.12447e-05
5.72032e-05
7.66729e-05
6.45015e-05
5.95692e-05
5.36757e-05
5.86191e-05
5.3012e-05
7.83606e-05
5.90337e-05
2.20903e-05
2.1726e-05
5.98378e-05
7.66662e-05
6.35001e-05
5.3845e-05
5.92788e-05
5.31547e-05
5.82265e-05
7.82428e-05
5.88672e-05
2.19554e-05
2.15721e-05
5.97362e-05
3.22695e-05
3.29407e-05
6.91347e-05
3.27269e-05
3.36175e-05
1.34583e-05
1.37385e-05
1.38554e-05
1.36169e-05
6.95729e-05
3.37593e-05
3.46225e-05
3.31928e-05
3.40646e-05
1.41424e-05
1.39073e-05
7.64986e-05
5.07214e-05
5.81799e-05
6.34943e-05
7.53635e-05
5.12101e-05
5.92304e-05
5.88774e-05
2.12604e-05
5.8072e-05
2.16947e-05
5.90297e-05
2.16591e-05
5.83958e-05
2.20315e-05
7.70614e-05
6.28929e-05
5.24251e-05
6.00818e-05
5.17916e-05
5.91057e-05
7.82618e-05
7.70072e-05
6.403e-05
5.23598e-05
6.0301e-05
5.1871e-05
5.97394e-05
7.84169e-05
5.93694e-05
2.23162e-05
2.19524e-05
6.01816e-05
5.94047e-05
2.24555e-05
2.22333e-05
6.01386e-05
1.32292e-05
1.34905e-05
1.36159e-05
1.38604e-05
6.95375e-05
3.39441e-05
3.4384e-05
3.34204e-05
3.4128e-05
1.39244e-05
1.36883e-05
1.41105e-05
1.39834e-05
1.41007e-05
1.43313e-05
1.39383e-05
1.41722e-05
3.45697e-05
3.40368e-05
7.27701e-05
3.51315e-05
3.45931e-05
1.46843e-05
1.44823e-05
1.45441e-05
1.43585e-05
7.30675e-05
3.59802e-05
3.54642e-05
3.55284e-05
3.5058e-05
6.14547e-05
2.2344e-05
6.05622e-05
2.26994e-05
7.95187e-05
6.00022e-05
5.27066e-05
6.58879e-05
7.83921e-05
6.08604e-05
5.32502e-05
7.96963e-05
6.02803e-05
5.32181e-05
6.68223e-05
7.8208e-05
6.12255e-05
5.35502e-05
6.14195e-05
2.31715e-05
2.28195e-05
6.23407e-05
6.19431e-05
2.31471e-05
2.29014e-05
6.26954e-05
8.00647e-05
6.71167e-05
6.23357e-05
5.46147e-05
6.14139e-05
5.39369e-05
8.12033e-05
8.03105e-05
6.74627e-05
6.235e-05
5.48325e-05
6.17185e-05
5.41899e-05
8.1673e-05
3.44765e-05
3.46561e-05
7.34393e-05
3.48978e-05
3.51533e-05
1.42182e-05
1.44287e-05
1.45978e-05
1.44082e-05
7.37146e-05
3.56673e-05
3.61524e-05
3.52145e-05
3.56385e-05
1.48373e-05
1.46119e-05
7.83406e-05
5.90272e-05
5.40867e-05
6.6689e-05
7.7014e-05
6.00438e-05
5.4447e-05
5.97437e-05
2.20921e-05
5.90158e-05
2.24158e-05
7.87334e-05
5.43555e-05
5.93477e-05
6.70387e-05
7.74724e-05
5.47452e-05
6.02011e-05
6.00482e-05
2.28008e-05
2.24916e-05
6.08353e-05
7.89387e-05
6.77107e-05
6.1703e-05
5.53998e-05
6.07897e-05
5.49581e-05
8.03461e-05
6.03705e-05
2.30884e-05
2.27275e-05
6.1132e-05
7.92558e-05
6.8023e-05
5.55973e-05
6.19829e-05
5.52124e-05
6.09216e-05
8.05497e-05
6.10378e-05
2.23743e-05
6.04313e-05
2.2668e-05
8.03336e-05
5.46951e-05
5.99817e-05
6.65802e-05
7.88515e-05
5.5633e-05
6.08781e-05
6.09948e-05
2.22623e-05
6.03246e-05
2.25671e-05
8.09651e-05
6.86526e-05
6.27815e-05
5.7467e-05
6.17547e-05
5.6323e-05
8.22803e-05
6.15935e-05
2.32871e-05
2.29551e-05
6.2144e-05
8.09567e-05
6.774e-05
5.76866e-05
6.20476e-05
5.66694e-05
6.14976e-05
8.21535e-05
6.15144e-05
2.30301e-05
2.28134e-05
6.20506e-05
3.42501e-05
3.49993e-05
7.303e-05
3.46799e-05
3.53794e-05
1.42836e-05
1.44597e-05
1.46583e-05
1.44417e-05
7.33305e-05
3.56159e-05
3.60523e-05
3.51397e-05
3.56789e-05
1.47627e-05
1.45802e-05
8.02201e-05
5.30461e-05
6.07138e-05
6.55047e-05
7.90553e-05
5.36399e-05
6.15473e-05
6.16172e-05
2.25365e-05
6.06906e-05
2.28276e-05
6.15823e-05
2.26352e-05
6.06705e-05
2.29661e-05
8.05367e-05
6.67273e-05
5.53208e-05
6.25405e-05
5.45325e-05
6.17275e-05
8.22148e-05
8.07315e-05
6.64654e-05
5.48253e-05
6.32422e-05
5.42647e-05
6.21908e-05
8.22354e-05
6.2198e-05
2.33389e-05
2.30279e-05
6.32492e-05
6.21382e-05
2.36342e-05
2.32334e-05
6.31555e-05
1.41082e-05
1.43026e-05
1.42172e-05
1.44047e-05
7.33301e-05
3.55091e-05
3.59239e-05
3.51286e-05
3.54435e-05
1.45853e-05
1.44455e-05
1.47893e-05
1.45588e-05
1.48133e-05
1.49897e-05
1.46872e-05
1.48291e-05
3.63062e-05
3.5824e-05
7.71273e-05
3.66466e-05
3.61096e-05
1.53193e-05
1.512e-05
1.51786e-05
1.49811e-05
7.74057e-05
3.73919e-05
3.69552e-05
3.69579e-05
3.65232e-05
6.40624e-05
2.33262e-05
6.31767e-05
2.36134e-05
8.34163e-05
6.28889e-05
5.54791e-05
7.03808e-05
8.18301e-05
6.37744e-05
5.62167e-05
8.33107e-05
6.27361e-05
5.55309e-05
6.96443e-05
8.21867e-05
6.3389e-05
5.6239e-05
6.47486e-05
2.43352e-05
2.40086e-05
6.61055e-05
6.46909e-05
2.42509e-05
2.38479e-05
6.60093e-05
8.40718e-05
7.1639e-05
6.51772e-05
5.78224e-05
6.43502e-05
5.70457e-05
8.5932e-05
8.38933e-05
6.97861e-05
6.49889e-05
5.78818e-05
6.39376e-05
5.70315e-05
8.56542e-05
3.60759e-05
3.65793e-05
7.74059e-05
3.66406e-05
3.69359e-05
1.50139e-05
1.51924e-05
1.54152e-05
1.51512e-05
7.76556e-05
3.76389e-05
3.75325e-05
3.70747e-05
3.72044e-05
1.54703e-05
1.5331e-05
8.17114e-05
6.22246e-05
5.59619e-05
7.08143e-05
8.08851e-05
6.27265e-05
5.63418e-05
6.22727e-05
2.3392e-05
6.1727e-05
2.36608e-05
8.18845e-05
5.61319e-05
6.27038e-05
7.11295e-05
8.10431e-05
5.66144e-05
6.35532e-05
6.26173e-05
2.37751e-05
2.34922e-05
6.32368e-05
8.20254e-05
7.10675e-05
6.4011e-05
5.72209e-05
6.32544e-05
5.68745e-05
8.28556e-05
6.28558e-05
2.42045e-05
2.3939e-05
6.34724e-05
8.22491e-05
7.23669e-05
5.78019e-05
6.50309e-05
5.73106e-05
6.41814e-05
8.31891e-05
6.32428e-05
2.35847e-05
6.26701e-05
2.38871e-05
8.34975e-05
5.7939e-05
6.25095e-05
7.09723e-05
8.26606e-05
5.77865e-05
6.30009e-05
6.3175e-05
2.32202e-05
6.25786e-05
2.34192e-05
8.39102e-05
7.23189e-05
6.51957e-05
6.07844e-05
6.47854e-05
5.97898e-05
8.4619e-05
6.3796e-05
2.43375e-05
2.41285e-05
6.44198e-05
8.38456e-05
7.21633e-05
5.86111e-05
6.40858e-05
5.80856e-05
6.34786e-05
8.47874e-05
6.37798e-05
2.39199e-05
2.3651e-05
6.45284e-05
3.60956e-05
3.64253e-05
7.72262e-05
3.66e-05
3.68977e-05
1.49091e-05
1.5125e-05
1.54458e-05
1.52402e-05
7.76227e-05
3.75696e-05
3.78126e-05
3.70918e-05
3.72935e-05
1.55194e-05
1.52799e-05
8.43541e-05
5.54542e-05
6.38138e-05
6.91288e-05
8.28854e-05
5.60441e-05
6.45821e-05
6.48335e-05
2.35729e-05
6.38505e-05
2.39174e-05
6.47321e-05
2.38732e-05
6.37557e-05
2.41568e-05
8.44908e-05
7.07269e-05
5.88671e-05
6.53803e-05
5.78151e-05
6.44978e-05
8.55578e-05
8.48599e-05
7.01782e-05
5.76067e-05
6.5748e-05
5.6751e-05
6.50524e-05
8.58203e-05
6.53479e-05
2.45137e-05
2.41532e-05
6.60736e-05
6.52488e-05
2.46182e-05
2.43449e-05
6.60414e-05
1.46933e-05
1.48226e-05
1.4932e-05
1.51206e-05
7.70314e-05
3.67741e-05
3.75835e-05
3.63182e-05
3.70699e-05
1.51448e-05
1.49574e-05
1.54783e-05
1.526e-05
1.54613e-05
1.56817e-05
1.53841e-05
1.56721e-05
3.77842e-05
3.74641e-05
8.03878e-05
3.83473e-05
3.81265e-05
1.60531e-05
1.58353e-05
1.61058e-05
1.58919e-05
8.06694e-05
3.92274e-05
3.90928e-05
3.87611e-05
3.86545e-05
6.78547e-05
2.45424e-05
6.67697e-05
2.50191e-05
8.851e-05
6.56952e-05
5.87615e-05
7.35779e-05
8.67314e-05
6.6514e-05
5.97882e-05
8.82478e-05
6.57081e-05
5.89084e-05
7.21426e-05
8.6448e-05
6.7039e-05
6.00051e-05
6.82568e-05
2.53025e-05
2.49862e-05
6.88068e-05
6.83278e-05
2.58168e-05
2.53339e-05
6.89721e-05
8.90687e-05
7.43578e-05
6.7801e-05
6.19361e-05
6.70343e-05
6.08721e-05
9.01971e-05
8.88983e-05
7.31376e-05
6.91258e-05
6.14106e-05
6.78299e-05
6.11223e-05
9.02613e-05
3.81222e-05
3.78399e-05
8.06555e-05
3.88089e-05
3.83832e-05
1.56164e-05
1.58078e-05
1.64308e-05
1.61201e-05
8.10749e-05
4.00412e-05
3.91203e-05
3.93265e-05
3.87085e-05
1.61657e-05
1.59799e-05
8.47909e-05
6.47714e-05
5.78358e-05
7.19504e-05
8.34505e-05
6.60333e-05
5.82924e-05
6.48452e-05
2.44904e-05
6.41027e-05
2.47663e-05
8.50639e-05
5.86017e-05
6.57128e-05
7.36278e-05
8.37863e-05
5.91545e-05
6.64056e-05
6.52975e-05
2.52597e-05
2.48933e-05
6.61968e-05
8.54899e-05
7.29846e-05
6.77455e-05
5.95192e-05
6.68573e-05
5.90364e-05
8.70538e-05
6.55161e-05
2.52135e-05
2.49867e-05
6.63636e-05
8.57493e-05
7.45169e-05
6.05621e-05
6.73819e-05
5.99549e-05
6.69299e-05
8.71832e-05
6.59026e-05
2.45605e-05
6.50577e-05
2.48442e-05
8.65376e-05
5.92276e-05
6.47016e-05
7.33112e-05
8.53427e-05
5.97174e-05
6.57051e-05
6.60942e-05
2.42255e-05
6.52464e-05
2.46065e-05
8.7015e-05
7.43465e-05
6.78296e-05
6.18569e-05
6.7008e-05
6.11441e-05
8.86834e-05
6.66687e-05
2.54611e-05
2.51405e-05
6.76586e-05
8.72131e-05
7.40843e-05
6.13548e-05
6.79154e-05
6.05083e-05
6.65857e-05
8.88937e-05
6.68787e-05
2.547e-05
2.49861e-05
6.78958e-05
3.8023e-05
3.82936e-05
8.10765e-05
3.8429e-05
3.90396e-05
1.57033e-05
1.60098e-05
1.61206e-05
1.59655e-05
8.15959e-05
3.91548e-05
4.01908e-05
3.8738e-05
3.95615e-05
1.64739e-05
1.62064e-05
8.78653e-05
5.83041e-05
6.62812e-05
7.262e-05
8.63593e-05
5.92232e-05
6.72838e-05
6.74736e-05
2.4773e-05
6.65865e-05
2.51847e-05
6.77169e-05
2.48461e-05
6.6617e-05
2.52197e-05
8.80562e-05
7.46939e-05
6.13598e-05
6.90489e-05
6.12689e-05
6.79045e-05
8.98813e-05
8.85427e-05
7.36417e-05
6.08502e-05
6.84635e-05
5.98589e-05
6.78381e-05
9.03641e-05
6.80464e-05
2.58423e-05
2.54542e-05
6.90354e-05
6.84095e-05
2.57183e-05
2.54671e-05
6.95368e-05
1.53391e-05
1.55965e-05
1.5644e-05
1.58995e-05
7.9463e-05
3.90729e-05
3.94286e-05
3.83775e-05
3.90397e-05
1.61349e-05
1.58252e-05
1.62186e-05
1.60565e-05
1.62067e-05
1.64565e-05
1.6269e-05
1.64304e-05
3.9596e-05
3.9471e-05
8.38693e-05
4.00942e-05
3.97584e-05
1.69758e-05
1.66526e-05
1.68108e-05
1.65985e-05
8.38669e-05
4.13066e-05
4.06284e-05
4.0579e-05
4.01462e-05
7.00897e-05
2.6123e-05
6.93998e-05
2.65607e-05
9.12262e-05
6.83554e-05
6.30873e-05
7.70434e-05
9.05733e-05
6.94314e-05
6.33265e-05
9.15477e-05
6.98502e-05
6.13363e-05
7.68861e-05
9.06991e-05
7.08481e-05
6.18071e-05
7.03757e-05
2.67608e-05
2.62687e-05
7.11946e-05
7.06174e-05
2.71857e-05
2.68309e-05
7.15911e-05
9.16683e-05
7.825e-05
7.1464e-05
6.36447e-05
7.0163e-05
6.324e-05
9.30798e-05
9.20602e-05
7.84046e-05
7.23324e-05
6.35176e-05
7.14444e-05
6.26631e-05
9.36997e-05
4.05054e-05
3.9466e-05
8.5424e-05
4.09779e-05
4.00559e-05
1.63386e-05
1.65618e-05
1.72331e-05
1.70175e-05
8.57357e-05
4.18437e-05
4.11985e-05
4.13663e-05
4.05894e-05
1.70466e-05
1.67768e-05
8.98175e-05
6.83589e-05
6.02987e-05
7.565e-05
8.78516e-05
6.90372e-05
6.08018e-05
6.83474e-05
2.54295e-05
6.71697e-05
2.57446e-05
8.985e-05
6.13729e-05
6.79051e-05
7.71305e-05
8.79701e-05
6.20374e-05
6.86574e-05
6.91021e-05
2.64601e-05
2.61399e-05
7.02668e-05
9.07219e-05
7.67055e-05
7.04475e-05
6.23191e-05
6.96475e-05
6.16926e-05
9.25447e-05
6.92852e-05
2.6514e-05
2.60861e-05
7.0444e-05
9.07148e-05
7.83159e-05
6.38251e-05
7.05163e-05
6.30076e-05
6.94134e-05
9.25726e-05
6.96604e-05
2.57587e-05
6.85023e-05
2.60871e-05
9.18045e-05
6.23648e-05
6.88543e-05
7.75724e-05
8.97316e-05
6.3372e-05
7.01813e-05
6.99239e-05
2.58785e-05
6.87504e-05
2.63575e-05
9.22386e-05
7.84524e-05
7.11174e-05
6.55509e-05
7.00991e-05
6.43469e-05
9.42823e-05
7.05522e-05
2.68125e-05