/*--------------------------------*- C++ -*----------------------------------*\
| =========                 |                                                 |
| \\      /  F ield         | OpenFOAM: The Open Source CFD Toolbox           |
|  \\    /   O peration     | Version:  2206                                  |
|   \\  /    A nd           | Website:  www.openfoam.com                      |
|    \\/     M anipulation  |                                                 |
\*---------------------------------------------------------------------------*/
FoamFile
{
    version     2.0;
    format      ascii;
    arch        "LSB;label=32;scalar=64";
    class       surfaceScalarField;
    location    "130";
    object      phi;
}
// * * * * * * * * * * * * * * * * * * * * * * * * * * * * * * * * * * * * * //

dimensions      [0 3 -1 0 0 0 0];

oriented        oriented;

internalField   nonuniform List<scalar> 
196491
(
-3.20448e-12
7.24937e-13
-6.4408e-09
-5.42422e-12
-2.42569e-12
3.16239e-13
-5.31702e-09
-4.29123e-12
-2.61401e-13
-1.28788e-08
-7.17646e-12
-1.97506e-08
-1.42862e-11
-1.43927e-12
5.57873e-13
-9.46251e-09
4.6629e-12
1.73048e-11
1.30373e-13
-1.92385e-08
-1.82424e-08
-7.35645e-14
7.4091e-13
-1.14871e-08
-4.89713e-12
-2.58258e-12
8.36675e-14
-5.31792e-09
-4.78993e-12
3.51909e-12
-2.74206e-13
-1.2886e-08
-7.59482e-12
-1.97509e-08
-1.51532e-12
-1.42616e-11
6.06143e-13
-9.46409e-09
1.74006e-11
5.04485e-12
-1.92363e-08
7.9202e-13
-1.14872e-08
-1.82387e-08
4.71206e-13
-6.44576e-09
5.21315e-13
-2.21561e-13
-4.20238e-09
3.42619e-13
-1.3842e-13
-2.25391e-09
1.91073e-13
-8.76281e-14
-1.10618e-09
7.21442e-14
-4.93154e-14
-4.57455e-10
-5.68123e-15
-1.08741e-10
2.39445e-13
3.05639e-13
-3.05718e-13
-4.20876e-09
1.68281e-13
1.64204e-13
-1.89417e-13
-2.25536e-09
1.02357e-13
7.43631e-14
-1.08893e-13
-1.10615e-09
4.27671e-14
2.5526e-14
-5.40504e-14
-4.57219e-10
9.58256e-15
-1.15655e-14
-1.08663e-10
-1.63231e-13
-2.25037e-09
-8.21911e-14
-1.20914e-09
-3.479e-14
-5.93103e-10
-1.26051e-14
-2.44799e-10
-5.79832e-11
-1.38156e-13
3.2287e-13
-4.44537e-13
-2.25201e-09
-4.73788e-14
1.77577e-13
-2.57965e-13
-1.21009e-09
-1.13172e-14
9.04982e-14
-1.35212e-13
-5.93536e-10
-3.7054e-15
3.82429e-14
-6.00319e-14
-2.4501e-10
7.79003e-15
-1.47333e-14
-5.80166e-11
3.0738e-13
-4.20581e-09
1.72844e-13
-2.25571e-09
7.46932e-14
-1.10702e-09
1.50872e-14
-4.57822e-10
-1.08836e-10
8.19152e-14
-3.54136e-13
-4.21004e-09
5.50259e-14
-2.08574e-13
-2.25612e-09
2.48551e-14
-1.11552e-13
-1.10643e-09
4.54839e-16
-4.89484e-14
-4.57374e-10
-1.36357e-14
-1.08677e-10
3.04092e-13
-1.69472e-13
-2.58209e-09
1.50032e-13
-9.59892e-14
-1.38663e-09
5.6721e-14
-4.68656e-14
-6.80378e-10
6.3534e-15
-1.79542e-14
-2.8105e-10
-5.99692e-15
-6.66723e-11
4.14552e-13
-4.14641e-14
-2.82019e-09
2.17625e-13
-3.01817e-14
-1.5139e-09
9.40228e-14
-2.00029e-14
-7.43109e-10
2.25474e-14
-1.16853e-14
-3.07204e-10
-1.848e-15
-7.29785e-11
3.54611e-13
-1.74076e-13
-2.58283e-09
1.89779e-13
-1.03981e-13
-1.387e-09
8.29048e-14
-5.85638e-14
-6.80519e-10
2.11946e-14
-2.81428e-14
-2.8113e-10
-6.3582e-15
-6.66874e-11
4.4208e-13
-2.82029e-09
2.2518e-13
-1.51396e-09
9.20682e-14
-7.43131e-10
1.83472e-14
-3.0721e-10
-7.29799e-11
-2.83624e-11
-1.06474e-11
-2.76837e-12
-6.47614e-09
-7.49119e-12
-3.03185e-12
6.44973e-09
1.35131e-12
-6.44056e-09
2.76504e-11
2.23636e-11
2.73888e-08
4.96859e-11
5.03194e-11
-2.75388e-08
-5.44123e-11
2.0494e-11
-1.1815e-10
2.1037e-08
-2.09134e-08
-1.15888e-11
5.31674e-12
-2.58823e-11
2.06604e-08
-2.06357e-08
-7.96587e-11
-2.05872e-12
-1.29483e-08
-1.06149e-09
2.72618e-11
1.08323e-10
-2.1249e-11
5.10073e-10
3.48899e-10
1.05142e-10
4.52947e-10
-1.16977e-07
-6.89955e-11
-1.99486e-10
2.06449e-08
-2.05104e-08
-5.3912e-11
1.63876e-13
4.7575e-12
1.78225e-11
1.92689e-08
-1.92378e-08
-1.61349e-11
-3.98614e-12
1.28953e-08
-5.77933e-14
-1.28782e-08
3.37156e-13
1.07807e-11
-1.02522e-10
2.37271e-08
-2.36896e-08
-1.83154e-10
9.07598e-11
2.86801e-11
4.00517e-11
-3.96067e-11
-6.66244e-11
6.6973e-11
-6.31643e-11
6.9942e-11
-1.14773e-07
-1.69155e-11
-3.63389e-11
2.04102e-08
-2.03847e-08
-3.53176e-11
8.63011e-11
-1.05173e-10
1.43671e-10
1.0859e-10
-1.38496e-10
-1.20443e-07
-5.4022e-11
1.78828e-11
5.11453e-12
1.92668e-08
-1.92356e-08
-1.58087e-11
3.77504e-12
-4.89068e-12
1.2903e-08
-5.2937e-14
-1.28861e-08
-1.0274e-10
1.1135e-11
2.37224e-08
-2.36845e-08
-1.9811e-12
-7.41025e-11
-4.72338e-11
6.68724e-11
5.08971e-11
-6.38219e-11
7.70102e-11
1.98267e-11
-1.754e-11
-1.15964e-07
-2.59794e-11
-8.65019e-12
-8.69592e-11
1.43173e-10
9.19482e-11
-1.37982e-10
-1.21506e-07
1.25397e-11
-1.72295e-11
-3.57877e-11
2.03999e-08
-2.03752e-08
-6.62008e-12
6.45504e-09
1.12789e-12
-6.44577e-09
2.75798e-08
1.01206e-10
-2.76338e-08
-1.46513e-10
2.51977e-11
-2.54341e-11
2.07186e-08
-2.06934e-08
6.14308e-12
6.47643e-12
2.99559e-12
-4.98389e-13
-1.4746e-08
-5.41829e-12
-4.13439e-12
1.25765e-11
1.59495e-11
-4.48359e-12
5.36519e-09
-2.25645e-12
-5.06014e-13
-5.35795e-09
-5.1951e-12
5.33954e-09
-3.5138e-12
1.06447e-12
-5.33189e-09
-1.45768e-11
-1.53029e-11
-1.47258e-08
1.27923e-12
-1.55409e-13
3.76706e-12
-5.16421e-13
-1.92492e-08
-1.07234e-11
1.74921e-11
2.38604e-11
-4.14417e-11
1.25518e-08
-4.88742e-13
-1.24917e-08
4.88705e-11
2.31672e-08
-1.50315e-10
-1.4073e-10
-2.30431e-08
-7.60669e-13
-3.12895e-11
-4.35959e-11
-2.36582e-11
-1.92327e-08
1.43765e-13
3.65501e-11
-1.31906e-11
-1.82704e-08
-1.14815e-11
2.44805e-11
2.04817e-11
-1.2721e-11
1.22329e-08
1.66818e-13
-1.22185e-08
2.41946e-11
2.21645e-08
-4.49384e-11
-3.41198e-11
-2.21355e-08
-5.54359e-12
2.39726e-11
1.15305e-11
-2.28231e-11
-1.82514e-08
1.56721e-13
4.18614e-11
3.34976e-11
-9.47544e-09
1.44658e-11
1.31258e-12
-2.24929e-12
-5.98523e-13
1.48574e-11
1.82692e-08
7.2232e-12
-4.48029e-11
-1.82417e-08
1.41572e-12
1.15025e-08
7.59014e-15
8.90581e-13
-1.1487e-08
-4.90712e-12
-1.76167e-11
2.00622e-13
5.27667e-11
2.44038e-12
7.64022e-13
-9.46237e-09
-7.2952e-12
4.36825e-11
6.51853e-14
-8.73726e-13
-5.32464e-09
5.46528e-12
-7.58449e-14
6.07279e-12
1.97773e-08
-2.99558e-11
-1.97502e-08
3.92562e-12
1.52873e-11
2.72542e-13
7.46429e-13
-5.31689e-09
2.87834e-11
-9.47716e-09
1.10365e-12
1.46854e-11
-2.04737e-12
-6.64349e-13
1.55125e-12
1.15028e-08
9.28595e-13
-1.14874e-08
1.47613e-11
1.82656e-08
7.70442e-12
-4.505e-11
-1.82379e-08
-1.75782e-11
-4.42156e-12
5.26896e-11
2.62623e-12
7.70319e-13
-9.46425e-09
-8.26305e-13
-6.83981e-12
4.40511e-11
-5.32578e-09
6.06965e-12
-2.58221e-13
5.51748e-12
1.97781e-08
-2.96886e-11
-1.97511e-08
3.24915e-12
-2.42524e-12
1.60985e-11
1.42442e-13
6.07122e-13
-5.31824e-09
2.96545e-11
7.3234e-12
-4.72325e-13
-4.44798e-12
-4.76375e-12
1.44499e-11
1.37364e-11
-1.4758e-08
2.94461e-12
-2.09406e-13
-5.34317e-09
1.36267e-12
1.53291e-13
-5.36949e-09
1.79309e-11
-1.21392e-11
2.66811e-11
-1.82733e-08
2.25261e-08
-3.28288e-11
-5.17795e-11
-2.24857e-08
1.87381e-11
2.50711e-11
-4.21893e-12
1.12475e-11
3.13131e-11
5.02351e-11
3.92959e-14
-1.22292e-08
-9.61056e-12
3.07887e-11
1.3531e-11
-1.9268e-08
-2.77812e-12
1.36946e-11
-4.51289e-12
-2.1062e-08
1.10862e-11
5.67052e-13
-1.25745e-08
2.51381e-12
-2.27974e-08
6.48236e-11
8.19355e-13
-6.57752e-09
3.76103e-13
2.57036e-10
-5.12602e-10
-1.25554e-07
-3.65146e-10
4.73409e-10
-1.36184e-07
4.22913e-10
-4.39073e-11
-1.30728e-07
4.11014e-10
-7.6188e-12
-1.43632e-07
-4.16073e-10
1.04015e-11
-1.25368e-07
3.59544e-12
-1.36259e-07
-1.87966e-11
-8.72591e-12
-1.29772e-07
-1.87206e-12
-1.4284e-07
1.14705e-13
-1.33892e-07
-1.33887e-11
4.15241e-10
-1.43908e-07
1.46498e-11
-1.47249e-11
-1.33874e-07
-1.48544e-11
-1.42969e-07
-2.53075e-11
-2.23755e-08
2.44453e-11
3.28872e-11
-4.92878e-11
-4.63256e-11
2.78368e-11
2.57166e-08
-2.57368e-08
3.2868e-11
2.44614e-08
-2.44488e-08
-2.23613e-08
1.12037e-10
-2.60104e-08
3.97653e-10
-3.03633e-10
2.27193e-08
-2.25594e-08
2.46325e-08
-1.63548e-10
-2.44602e-08
-1.96505e-10
-8.25126e-11
-2.58856e-08
-2.59061e-08
-7.89115e-11
1.83935e-11
2.49623e-11
-8.13274e-11
2.29245e-08
1.48878e-11
-2.28921e-08
1.93378e-11
2.69073e-08
7.29082e-12
-2.68928e-08
-1.0614e-11
9.96286e-11
2.29036e-13
-2.04628e-11
-2.5839e-08
-1.46243e-11
-6.74515e-12
-3.74291e-11
-2.56901e-08
-5.46162e-11
-5.75881e-11
2.24353e-08
-2.24097e-08
2.42644e-08
-3.86017e-11
-2.42293e-08
3.42897e-11
1.62946e-11
-2.57368e-08
-2.58993e-08
2.11742e-11
-7.80687e-11
-2.89223e-11
2.25978e-11
2.69026e-08
-2.68775e-08
-8.10204e-11
2.29119e-08
1.8184e-11
-2.2883e-08
9.92134e-11
-1.00473e-11
3.04876e-11
-2.58962e-08
-1.68159e-11
-2.5655e-08
-5.48581e-11
-4.00305e-11
-5.6531e-11
2.24223e-08
-2.23945e-08
-4.18607e-11
2.42667e-08
-2.42266e-08
1.59181e-11
3.52323e-11
-2.5672e-08
-4.77586e-12
6.52455e-11
-2.23759e-08
-9.62144e-11
-2.27299e-11
1.34411e-10
2.56149e-08
-2.55416e-08
-4.10747e-12
1.97632e-10
-2.47637e-08
-1.48522e-12
2.15155e-13
2.56804e-14
-4.20004e-09
-8.09086e-13
2.10219e-13
3.05881e-14
-2.25294e-09
-4.24098e-13
1.66672e-13
2.92625e-14
-1.10567e-09
-1.79952e-13
1.05411e-13
2.6914e-14
-4.57246e-10
1.80066e-14
-3.21584e-15
-1.08709e-10
7.85335e-13
-8.47889e-14
4.20243e-09
1.01899e-13
-4.2019e-09
4.3844e-13
-5.54044e-14
2.25389e-09
6.89245e-14
-2.25363e-09
2.34697e-13
-3.83392e-14
1.10614e-09
3.22774e-14
-1.10603e-09
1.04404e-13
-2.34514e-14
4.57418e-10
8.01157e-15
-4.57389e-10
-1.6141e-15
1.08744e-10
7.1026e-15
-1.08727e-10
-9.31744e-13
-2.24842e-09
-3.70561e-13
-1.20827e-09
-1.15786e-13
-5.92734e-10
-2.25123e-14
-2.44692e-10
-5.79455e-11
-1.03823e-13
2.25035e-09
-2.47673e-13
-2.25012e-09
-8.00784e-14
1.20915e-09
-1.40657e-13
-1.20904e-09
-5.01294e-14
5.93131e-10
-7.01777e-14
-5.93074e-10
-2.53448e-14
2.44828e-10
-2.88937e-14
-2.44796e-10
5.7984e-11
-8.69397e-15
-5.79806e-11
-6.73052e-14
3.50057e-13
2.25205e-09
-4.61638e-13
-2.25192e-09
-3.63393e-14
2.07874e-13
1.21011e-09
-2.76757e-13
-1.21007e-09
-1.39992e-14
1.11006e-13
5.93556e-10
-1.48304e-13
-5.93543e-10
-3.95759e-15
4.80666e-14
2.45024e-10
-6.62464e-14
-2.45018e-10
1.09459e-14
5.80179e-11
-1.7007e-14
-5.80175e-11
5.84268e-13
4.20601e-09
-4.20554e-09
4.20843e-13
2.66731e-13
2.25582e-09
-2.25556e-09
2.70946e-13
9.81976e-14
1.1071e-09
-1.10696e-09
1.52102e-13
1.92965e-14
4.5787e-10
-4.57804e-10
6.99198e-14
1.08847e-10
-1.0883e-10
1.86504e-14
-3.46341e-13
6.50452e-14
-2.48585e-14
-2.46203e-13
1.57869e-14
2.00351e-14
-1.42257e-13
9.9517e-15
3.12522e-14
-5.60112e-14
8.54864e-15
2.67075e-14
-1.23608e-15
7.6564e-16
-3.13955e-13
-2.58231e-09
1.16745e-13
-1.99221e-13
-1.48138e-13
-1.38677e-09
6.98402e-14
-1.15816e-13
-5.17106e-14
-6.80472e-10
3.77579e-14
-6.61062e-14
-3.59498e-15
-2.81107e-10
1.601e-14
-3.21744e-14
-6.66849e-11
5.52405e-15
-8.65465e-15
4.32272e-13
1.49612e-13
2.82045e-09
5.25006e-15
-2.82014e-09
2.00761e-13
8.87629e-14
1.51406e-09
2.98127e-15
-1.51392e-09
8.31941e-14
4.73949e-14
7.43206e-10
-8.24827e-16
-7.43143e-10
2.33086e-14
2.15779e-14
3.07258e-10
-3.16163e-15
-3.07226e-10
4.84097e-15
7.29934e-11
6.77326e-16
-7.29828e-11
3.6607e-13
2.73686e-13
-2.58202e-09
1.60394e-13
1.72052e-13
-1.38663e-09
5.73566e-14
9.89943e-14
-6.80401e-10
9.22975e-15
4.86239e-14
-2.81069e-10
1.06699e-14
-6.66752e-11
-4.97914e-13
1.2819e-14
-2.59244e-13
8.06009e-15
-1.07126e-13
3.89238e-15
-2.19248e-14
6.71684e-16
7.47079e-16
1.61574e-13
1.01656e-13
7.53656e-14
2.59817e-14
2.78301e-14
7.64563e-17
8.53342e-15
-5.91344e-15
6.5099e-16
-3.60917e-13
-2.5831e-09
6.34853e-14
-9.60262e-14
-1.86544e-13
-1.38715e-09
4.01387e-14
-5.21096e-14
-7.96724e-14
-6.8061e-10
2.46749e-14
-2.98213e-14
-1.86131e-14
-2.81179e-10
1.32946e-14
-1.54526e-14
-6.67003e-11
2.95127e-15
-4.07893e-15
4.45358e-13
2.00761e-13
2.82061e-09
-2.82032e-09
1.976e-13
1.24368e-13
1.51415e-09
-1.51401e-09
7.2686e-14
6.75369e-14
7.43249e-10
-7.43182e-10
1.39679e-14
2.94914e-14
3.07276e-10
-3.0724e-10
8.4613e-15
7.29966e-11
-7.29857e-11
3.84275e-13
3.5858e-13
-2.58287e-09
1.79565e-13
2.2135e-13
-1.38705e-09
7.04266e-14
1.21235e-13
-6.8056e-10
1.47024e-14
5.40189e-14
-2.81152e-10
1.46515e-14
-6.66923e-11
-4.47549e-13
-2.22285e-13
-9.02075e-14
-2.03855e-14
6.73416e-14
1.62974e-13
-4.49977e-14
1.54491e-14
1.30236e-13
-5.37683e-14
2.71705e-16
7.71502e-14
-3.62996e-14
1.41489e-15
3.64742e-14
-1.76937e-14
9.02648e-15
-4.10461e-15
-2.7766e-13
1.62009e-13
-1.50166e-13
1.06995e-13
-6.44751e-14
5.76053e-14
-1.30688e-14
2.51028e-14
5.10148e-15
2.70564e-13
-3.74199e-13
3.95565e-13
-2.23543e-09
1.21367e-13
-2.1324e-13
2.14952e-13
-1.20063e-09
4.80506e-14
-1.10953e-13
1.09077e-13
-5.8889e-10
1.58087e-14
-4.87859e-14
4.67522e-14
-2.43078e-10
-1.19738e-14
1.28239e-14
-5.75908e-11
4.1455e-13
-4.2011e-09
-3.1559e-13
1.84852e-13
-2.25314e-09
-2.03918e-13
7.24247e-14
-1.10582e-09
-1.13494e-13
2.10996e-14
-4.57312e-10
-5.26465e-14
-1.08721e-10
-1.39915e-14
-3.93057e-13
1.15007e-13
-4.60771e-14
4.01123e-09
-4.01133e-09
-3.36036e-13
1.04365e-13
-2.93791e-14
2.15131e-09
-2.15126e-09
-2.71906e-13
9.19372e-14
-1.04692e-14
1.05537e-09
-1.05528e-09
-1.72485e-13
6.36926e-14
3.63462e-15
4.3629e-10
-4.36199e-10
1.04879e-14
-5.22211e-15
1.03636e-10
-1.03635e-10
-1.20335e-13
2.23446e-09
-2.23484e-09
3.30154e-14
1.20024e-09
-1.20047e-09
6.64128e-14
5.88606e-10
-5.88769e-10
4.46257e-14
2.42987e-10
-2.43089e-10
5.75651e-11
-5.75828e-11
-6.67485e-15
6.25893e-13
-6.19448e-14
3.77827e-13
-6.10074e-14
2.24104e-13
-2.85117e-14
1.20438e-13
2.00051e-14
6.48366e-13
-3.93795e-14
4.01225e-09
-4.01192e-09
4.00048e-13
-7.02761e-14
2.15145e-09
-2.15132e-09
2.35101e-13
-6.33378e-14
1.05547e-09
-1.05545e-09
1.11238e-13
-4.2258e-14
4.36266e-10
-4.36287e-10
-6.24439e-15
1.0363e-10
-1.03623e-10
3.02866e-14
2.23444e-09
-2.23417e-09
-3.59074e-14
1.20017e-09
-1.2e-09
-4.65412e-14
5.88717e-10
-5.88611e-10
-3.29603e-14
2.43039e-10
-2.42976e-10
5.75636e-11
-5.75568e-11
1.3403e-13
-1.38322e-13
1.00052e-13
-9.70129e-14
6.79069e-14
-7.1319e-14
3.70869e-14
-4.65715e-14
-4.08955e-15
-4.86952e-14
2.72724e-13
3.97935e-14
1.21223e-13
4.19318e-14
4.00288e-14
1.9891e-14
3.07263e-15
7.06502e-15
-3.03315e-13
-1.82935e-13
-6.82513e-14
2.7934e-15
-5.62366e-14
-4.20882e-09
-4.96817e-14
-2.25539e-09
-2.85475e-14
-1.10617e-09
-4.60038e-15
-4.57229e-10
-1.08668e-10
3.66632e-13
-4.20844e-09
1.62987e-13
-2.25519e-09
6.19566e-14
-1.10608e-09
1.39122e-14
-4.57192e-10
-1.08656e-10
-1.11306e-13
-4.21033e-09
-5.02796e-14
-2.2563e-09
-2.12068e-14
-1.10653e-09
-3.48893e-15
-4.5743e-10
-1.08689e-10
3.12092e-13
-4.21013e-09
1.41639e-13
-2.25618e-09
5.49821e-14
-1.10647e-09
1.12424e-14
-4.57395e-10
-1.0868e-10
-2.29367e-14
1.23549e-13
-2.2361e-09
-2.98023e-14
7.35197e-14
-1.20107e-09
-1.71445e-14
3.78375e-14
-5.89117e-10
-1.88513e-15
1.61416e-14
-2.43184e-10
3.17592e-15
-5.76072e-11
-1.18386e-13
-1.68139e-13
-4.0151e-09
-6.61266e-14
-9.21971e-14
-2.15305e-09
-2.64974e-14
-4.88139e-14
-1.0562e-09
-2.37027e-16
-2.22666e-14
-4.36548e-10
-6.10778e-15
-1.03698e-10
8.20479e-14
-4.01404e-09
2.87509e-14
-2.15252e-09
8.76653e-15
-1.05595e-09
5.26914e-15
-4.36421e-10
-1.03683e-10
2.97702e-10
3.24463e-10
1.16032e-07
1.84008e-10
2.42928e-10
1.14836e-10
-4.03191e-12
2.10755e-10
3.82805e-11
7.02462e-11
-1.16798e-07
-7.12435e-10
-1.05202e-12
4.18374e-11
-5.65115e-12
2.76209e-08
-2.77821e-08
1.261e-10
-1.04003e-10
-1.09749e-10
1.07309e-10
2.36957e-11
1.23849e-07
-1.23766e-07
-5.45719e-11
1.06831e-10
4.02234e-11
1.1554e-07
1.91319e-11
1.5097e-11
-5.10417e-11
-8.707e-11
3.81991e-11
-8.30915e-11
3.9335e-11
-1.15523e-07
-1.16357e-07
-4.10267e-12
6.16024e-10
-8.01555e-10
1.1667e-07
1.15613e-11
2.00559e-11
-3.71655e-11
-3.24501e-11
5.93766e-12
-3.55829e-11
-5.57698e-11
-2.77678e-08
1.01901e-10
1.15349e-11
3.36368e-11
1.40764e-11
2.76067e-08
-9.30004e-11
-8.86171e-11
-1.24076e-07
5.45835e-11
5.58954e-11
1.24147e-07
-1.15558e-07
-4.98812e-11
8.78574e-11
4.1257e-11
1.15559e-07
2.33339e-11
1.86369e-11
-4.50813e-11
-8.34603e-11
4.3259e-11
4.44871e-11
-8.1522e-11
-1.16786e-07
-5.4332e-11
9.12226e-11
3.86961e-11
1.16789e-07
1.22903e-11
2.49547e-11
-3.45362e-11
-2.95467e-11
1.25421e-11
-1.23835e-11
-5.20351e-11
-2.77447e-08
4.01244e-11
5.47871e-11
3.76711e-11
2.1514e-11
2.75906e-08
-8.01835e-11
-7.46732e-11
-1.24338e-07
4.74667e-11
4.8962e-11
1.24397e-07
-1.15552e-07
-4.60085e-11
7.54441e-11
3.39061e-11
1.15545e-07
2.72561e-11
2.10072e-11
-4.59604e-11
-8.02724e-11
4.78036e-11
4.92266e-11
-7.58884e-11
-1.16788e-07
-5.04679e-11
7.8989e-11
3.17392e-11
1.16785e-07
1.52164e-11
2.66604e-11
-3.33479e-11
-2.6265e-11
1.71238e-11
-7.60707e-12
-4.87842e-11
-2.77309e-08
3.59991e-11
5.07584e-11
4.18914e-11
2.51491e-11
2.75771e-08
-6.65486e-11
-6.47904e-11
-1.24552e-07
4.08231e-11
4.26569e-11
1.246e-07
-1.15521e-07
-4.30253e-11
6.30764e-11
2.93037e-11
1.15511e-07
2.95632e-11
2.25107e-11
-4.09354e-11
-7.78968e-11
5.08726e-11
5.26506e-11
-7.62249e-11
-1.16765e-07
-4.80957e-11
6.8072e-11
2.89996e-11
1.16756e-07
1.69577e-11
2.76592e-11
-3.26209e-11
-2.35336e-11
2.12954e-11
-3.40176e-12
-4.5972e-11
-2.77157e-08
3.30783e-11
4.84197e-11
4.45578e-11
2.84404e-11
2.75612e-08
-5.74742e-11
-5.53563e-11
-1.24727e-07
3.70695e-11
3.6875e-11
1.24766e-07
-1.1548e-07
-3.99602e-11
5.21771e-11
2.19025e-11
1.15468e-07
3.23426e-11
2.43804e-11
-4.27803e-11
-7.52827e-11
5.45436e-11
5.65255e-11
-7.13079e-11
-1.16716e-07
-4.41832e-11
5.94625e-11
2.20864e-11
1.167e-07
2.00486e-11
3.01677e-11
-3.0576e-11
-2.16002e-11
2.42775e-11
-9.07089e-14
-4.41879e-11
-2.76923e-08
2.99199e-11
4.56835e-11
4.75109e-11
3.18822e-11
2.75373e-08
-4.78668e-11
-4.48561e-11
-1.24868e-07
3.05505e-11
3.17242e-11
1.24898e-07
-1.15426e-07
-3.72218e-11
4.52221e-11
1.63861e-11
1.15409e-07
3.4181e-11
2.56803e-11
-3.81719e-11
-7.35877e-11
5.72411e-11
5.96418e-11
-7.21519e-11
-1.16643e-07
-4.22344e-11
5.16625e-11
1.98457e-11
1.16624e-07
2.18079e-11
3.06998e-11
-2.98795e-11
-1.97292e-11
2.71442e-11
2.8903e-12
-4.2247e-11
-2.76682e-08
2.72744e-11
4.32858e-11
4.99651e-11
3.38055e-11
2.75139e-08
-4.07763e-11
-3.99437e-11
-1.24974e-07
2.83134e-11
2.94474e-11
1.24997e-07
-1.15356e-07
-3.56433e-11
3.95304e-11
1.59891e-11
1.15336e-07
3.50816e-11
2.60357e-11
-4.13658e-11
-7.22011e-11
5.90121e-11
6.2092e-11
-6.89148e-11
-1.1657e-07
-4.12317e-11
4.03211e-11
1.64109e-11
1.16553e-07
2.23174e-11
3.06613e-11
-3.01598e-11
-1.7329e-11
2.98936e-11
6.43163e-12
-4.05335e-11
-2.76452e-08
2.47733e-11
4.1743e-11
5.13579e-11
3.64398e-11
2.74909e-08
-3.12595e-11
-2.88617e-11
-1.25047e-07
2.39733e-11
2.38401e-11
1.2506e-07
-1.15273e-07
-3.26825e-11
2.89667e-11
1.25095e-11
1.1525e-07
3.72798e-11
2.80485e-11
-3.61526e-11
-7.08541e-11
6.12774e-11
6.4305e-11
-6.99081e-11
-1.16498e-07
-3.88396e-11
3.00199e-11
1.38722e-11
1.16478e-07
2.42826e-11
3.18301e-11
-2.88847e-11
-1.55436e-11
3.25922e-11
9.17995e-12
-3.87637e-11
-2.76224e-08
2.20757e-11
3.93568e-11
5.37184e-11
3.86359e-11
2.74686e-08
-1.95152e-11
-1.80083e-11
-1.25081e-07
1.63884e-11
1.6473e-11
1.25086e-07
-1.15187e-07
-3.07456e-11
1.9598e-11
7.94618e-12
1.15165e-07
3.85567e-11
2.88071e-11
-3.93572e-11
-6.86823e-11
6.36984e-11
6.71551e-11
-6.5645e-11
-1.16415e-07
-3.58647e-11
1.74674e-11
7.4001e-12
1.16395e-07
2.64294e-11
3.37963e-11
-2.7506e-11
-1.30607e-11
3.57019e-11
1.26483e-11
-3.63334e-11
-2.76037e-08
1.93647e-11
3.68493e-11
5.57697e-11
4.08696e-11
2.74509e-08
-1.19957e-11
-1.18746e-11
-1.25084e-07
1.45153e-11
1.34694e-11
1.2508e-07
-1.15104e-07
-2.96403e-11
9.57467e-12
5.24081e-12
1.15085e-07
3.96111e-11
2.90693e-11
-3.51602e-11
-6.71981e-11
6.53401e-11
6.92387e-11
-6.68725e-11
-1.16336e-07
-3.41894e-11
7.98068e-12
3.4175e-12
1.16319e-07
2.77382e-11
3.46157e-11
-2.66642e-11
-1.17924e-11
3.73138e-11
1.44963e-11
-3.52544e-11
-2.75899e-08
1.81482e-11
3.49881e-11
5.74078e-11
4.1864e-11
2.74375e-08
-3.50082e-12
-3.70072e-12
-1.25049e-07
1.07683e-11
8.9439e-12
1.25036e-07
-1.15047e-07
-2.812e-11
-2.47784e-12
-1.78018e-13
1.15038e-07
4.04541e-11
2.9979e-11
-3.82767e-11
-6.64007e-11
6.66695e-11
7.04989e-11
-6.35513e-11
-1.16277e-07
-3.30683e-11
3.66207e-13
6.1963e-13
1.16264e-07
2.82682e-11
3.5136e-11
-2.6497e-11
-1.12697e-11
3.83301e-11
1.54871e-11
-3.46459e-11
-2.75783e-08
1.77492e-11
3.34786e-11
5.86847e-11
4.22274e-11
2.74262e-08
1.84568e-12
1.66086e-12
-1.24994e-07
5.22944e-12
2.77239e-12
1.24983e-07
-1.15017e-07
-2.63814e-11
-6.94588e-12
-1.75641e-12
1.15006e-07
4.1849e-11
3.12517e-11
-3.34889e-11
-6.64298e-11
6.7582e-11
7.10945e-11
-6.5471e-11
-1.16226e-07
-3.22529e-11
-1.57977e-12
-4.36857e-13
1.16214e-07
2.87678e-11
3.54009e-11
-2.63024e-11
-1.13259e-11
3.86067e-11
1.59021e-11
-3.49039e-11
-2.75684e-08
1.64721e-11
3.25963e-11
5.93984e-11
4.32731e-11
2.74167e-08
2.82876e-12
5.01236e-12
-1.24952e-07
2.28918e-13
7.79932e-13
1.24943e-07
-1.14964e-07
-2.55237e-11
-3.37821e-12
-3.936e-12
1.14948e-07
4.23134e-11
3.14642e-11
-3.72536e-11
-6.5805e-11
6.8847e-11
7.21909e-11
-6.23599e-11
-1.16183e-07
-3.19401e-11
-2.97563e-12
-2.2192e-12
1.16172e-07
2.90965e-11
3.53634e-11
-2.63901e-11
-1.13067e-11
3.89488e-11
1.63231e-11
-3.47282e-11
-2.75611e-08
1.46322e-11
3.277e-11
5.96291e-11
4.44723e-11
2.74096e-08
2.75123e-12
7.21885e-12
-1.24911e-07
-1.53562e-12
3.16358e-12
1.24899e-07
-1.14901e-07
-2.596e-11
-2.63305e-12
-3.45679e-12
1.14886e-07
4.18067e-11
3.05463e-11
-3.44505e-11
-6.61219e-11
6.83371e-11
7.22756e-11
-6.54285e-11
-1.16144e-07
-3.13827e-11
-4.17822e-12
-3.32828e-12
1.16135e-07
2.92594e-11
3.5529e-11
-2.63933e-11
-1.14478e-11
3.8984e-11
1.63774e-11
-3.5011e-11
-2.75562e-08
1.45063e-11
3.28957e-11
5.95163e-11
4.42865e-11
2.7405e-08
3.7429e-12
8.30423e-12
-1.24868e-07
-7.13675e-12
3.80636e-12
1.24859e-07
-1.14856e-07
-2.58331e-11
-6.01445e-12
-5.53025e-12
1.14851e-07
4.19579e-11
2.98014e-11
-3.85906e-11
-6.68735e-11
6.7988e-11
7.19668e-11
-6.36511e-11
-1.16107e-07
-3.13628e-11
-5.14747e-12
-2.84068e-12
1.161e-07
2.94881e-11
3.4974e-11
-2.64904e-11
-1.16126e-11
3.91557e-11
1.64582e-11
-3.51372e-11
-2.75531e-08
1.47547e-11
3.24271e-11
5.95122e-11
4.39685e-11
2.74024e-08
5.95137e-12
-1.25624e-07
-6.67718e-13
-4.71752e-12
5.36625e-12
1.25618e-07
-1.1578e-07
-3.2098e-11
-6.97118e-12
-5.91113e-12
1.08373e-10
3.48946e-11
-1.05295e-10
-4.68548e-10
3.491e-10
4.74048e-10
-3.44871e-10
-1.1669e-07
2.7035e-10
-7.26631e-12
-2.4138e-13
2.02489e-10
-2.65856e-10
-1.99628e-10
-1.22495e-10
2.53962e-10
1.27419e-10
-2.50393e-10
1.16682e-07
-2.77303e-08
-2.93794e-10
-2.7025e-10
3.28401e-10
2.70546e-10
2.76954e-08
3.00185e-10
2.40676e-10
2.79078e-08
-2.79501e-08
-2.00879e-10
3.21594e-11
2.77702e-08
-2.76153e-08
-7.35952e-11
-5.39892e-11
-5.94688e-11
2.55315e-10
1.16195e-07
6.7744e-12
-4.15122e-11
-4.88915e-11
-1.63433e-11
4.16326e-12
-5.23877e-11
-3.94761e-11
-1.16317e-07
5.31129e-11
-1.16768e-07
2.63043e-10
-4.00477e-10
-4.30467e-11
-2.03992e-10
-3.51973e-10
-5.62878e-11
-1.81253e-11
-2.55513e-10
1.50915e-09
-2.82636e-11
1.16322e-07
-1.16173e-07
-2.00102e-10
-8.54418e-12
-4.32381e-11
1.28621e-11
-3.88046e-11
-5.56856e-11
4.15432e-13
-1.69753e-11
2.28741e-10
-2.76112e-08
-7.3928e-11
-5.29393e-11
-5.79842e-11
5.17651e-11
5.53319e-11
2.33641e-11
2.45348e-11
2.75965e-08
-2.77515e-08
-1.41872e-11
-1.68874e-11
2.77366e-08
-2.75854e-08
-6.21326e-11
-5.79819e-11
5.67698e-11
1.17838e-07
3.02647e-12
1.11926e-11
-3.39989e-11
-9.11294e-12
5.54167e-12
-5.45868e-11
-4.25276e-11
-1.17826e-07
-5.16516e-11
1.00983e-10
5.63422e-11
1.17874e-07
3.06724e-12
1.16376e-11
-3.4688e-11
-7.86032e-12
5.88665e-12
-5.38391e-11
-4.22077e-11
-1.17861e-07
1.17859e-07
9.59922e-11
-1.17854e-07
4.6734e-11
-4.7467e-11
-3.23969e-11
6.12013e-12
-3.84119e-11
-5.26073e-11
9.14062e-12
-6.59401e-12
1.47908e-11
1.179e-07
9.40196e-11
-1.17894e-07
4.48149e-11
-4.73455e-11
-3.21601e-11
7.3593e-12
-3.8766e-11
-5.1652e-11
9.18277e-12
-6.87929e-12
2.35106e-11
2.51021e-11
2.75914e-08
-2.77463e-08
-1.78571e-11
2.77344e-08
-2.75824e-08
-6.07007e-11
-5.8585e-11
4.39902e-11
1.15569e-07
1.88109e-11
1.4187e-11
-5.1342e-11
-8.69027e-11
3.71998e-11
-8.23125e-11
3.85643e-11
-1.15556e-07
-1.08664e-10
-2.5477e-10
7.49728e-10
1.16784e-07
1.08969e-11
4.80487e-12
-4.87073e-11
-6.82309e-11
3.7131e-11
-8.16555e-11
3.28288e-11
-1.17057e-07
1.15586e-07
9.22942e-11
-1.15582e-07
4.56063e-11
-5.15803e-11
-4.95382e-11
2.20234e-11
4.31953e-11
-8.01285e-11
4.13208e-11
-8.41643e-11
5.957e-12
1.16677e-07
9.20874e-11
-1.16674e-07
4.8203e-11
-4.14751e-11
-4.69416e-11
1.8603e-11
2.31431e-11
-7.89973e-11
4.05886e-11
-6.43141e-11
-2.38172e-10
7.66002e-10
1.16774e-07
1.1989e-11
7.33346e-12
-4.80919e-11
-6.86573e-11
3.73745e-11
-8.29307e-11
3.35745e-11
-1.1709e-07
9.13842e-11
-1.15554e-07
4.36537e-11
-5.10417e-11
-4.93767e-11
2.25325e-11
4.32474e-11
-8.01076e-11
-8.43965e-11
4.20069e-11
6.30938e-12
1.16662e-07
9.40276e-11
-1.1666e-07
4.85434e-11
-4.11224e-11
-4.69933e-11
1.79815e-11
2.31547e-11
-7.99158e-11
4.06514e-11
-6.49973e-11
3.54024e-11
1.29431e-11
2.76091e-08
-2.42091e-11
2.77432e-08
-2.75939e-08
-6.62342e-11
-5.28352e-11
6.05533e-10
-8.27175e-10
1.16687e-07
1.02735e-11
1.58867e-11
-3.90633e-11
-3.31323e-11
5.79829e-12
-5.55166e-11
-3.61528e-11
9.44947e-11
-1.16781e-07
4.10902e-11
-5.54448e-11
-3.51518e-11
1.14315e-11
-1.38459e-11
-5.30303e-11
-3.0387e-11
1.13615e-11
2.45058e-11
1.16815e-07
9.27442e-11
-1.16807e-07
3.94007e-11
-5.57466e-11
-3.50703e-11
1.18577e-11
-1.3999e-11
-5.22877e-11
1.11296e-11
-3.01961e-11
-2.75941e-08
-6.75532e-11
-5.22062e-11
4.64641e-11
5.038e-11
2.85049e-11
2.95852e-11
2.75817e-08
-1.63344e-11
-2.01932e-11
2.77197e-08
-2.75692e-08
-5.81962e-11
-5.57662e-11
4.47176e-11
1.17863e-07
6.82409e-12
1.48431e-11
-3.19472e-11
-5.68467e-12
1.01892e-11
-3.72099e-11
-5.17191e-11
-4.60855e-11
9.05962e-11
4.19114e-11
1.17905e-07
8.27062e-12
1.56113e-11
-3.52606e-11
-5.70652e-12
1.08865e-11
-3.74115e-11
-4.81532e-11
1.17865e-07
8.30621e-11
-1.17865e-07
3.83153e-11
-4.37349e-11
-3.04439e-11
9.14578e-12
-3.36928e-11
-4.88504e-11
1.39235e-11
-3.37124e-12
1.69146e-11
1.17909e-07
8.00699e-11
-1.17908e-07
3.60382e-11
-4.3529e-11
-3.05632e-11
1.02246e-11
-3.3145e-11
-4.80933e-11
1.45328e-11
-2.57918e-12
2.91168e-11
3.04898e-11
2.75788e-08
-2.0448e-11
2.77162e-08
-2.75652e-08
-5.78865e-11
-5.57654e-11
4.33583e-11
1.15589e-07
2.29212e-11
1.77951e-11
-4.89122e-11
-8.35436e-11
4.23021e-11
4.4154e-11
-7.93863e-11
-4.02108e-11
8.82355e-11
4.62923e-11
1.16678e-07
1.95162e-11
6.87165e-12
-4.62561e-11
-6.33838e-11
4.16835e-11
2.42786e-11
-7.82097e-11
1.15587e-07
7.84401e-11
-1.1559e-07
3.65198e-11
-4.67182e-11
-4.65521e-11
2.60834e-11
4.72985e-11
-7.68644e-11
4.56831e-11
-8.13912e-11
8.84486e-12
1.16672e-07
7.95224e-11
-1.16676e-07
4.04563e-11
-3.69251e-11
-4.40702e-11
2.25506e-11
2.71979e-11
-7.63691e-11
4.45287e-11
-6.17434e-11
8.94534e-11
4.57442e-11
1.16663e-07
1.90398e-11
7.05081e-12
-4.60113e-11
-6.39485e-11
4.20851e-11
-7.87118e-11
2.44716e-11
7.91393e-11
-1.15557e-07
3.55008e-11
-4.68684e-11
-4.65234e-11
2.63691e-11
4.81644e-11
-7.66863e-11
-8.10057e-11
4.67803e-11
9.01368e-12
1.16654e-07
7.96674e-11
-1.16658e-07
3.88702e-11
-3.68885e-11
-4.41457e-11
2.19474e-11
2.81098e-11
-7.62203e-11
4.5655e-11
-6.15253e-11
3.73202e-11
2.2288e-11
2.7589e-08
-2.61622e-11
2.77245e-08
-2.75756e-08
-6.38158e-11
-5.00596e-11
8.95603e-11
3.71333e-11
1.1682e-07
1.26542e-11
2.52837e-11
-3.4394e-11
-2.91448e-11
1.23974e-11
-5.12843e-11
-1.26961e-11
8.19788e-11
-1.1679e-07
3.30733e-11
-5.13073e-11
-3.37461e-11
1.46422e-11
-8.61643e-12
-4.9567e-11
-2.68788e-11
1.61314e-11
2.71943e-11
1.16824e-07
8.3386e-11
-1.16824e-07
3.23036e-11
-5.16298e-11
-3.30756e-11
1.48709e-11
-9.83168e-12
-4.97972e-11
1.49121e-11
-2.76284e-11
-2.75804e-08
-6.44887e-11
-4.97681e-11
4.27809e-11
4.55763e-11
3.36641e-11
3.30502e-11
2.75646e-08
-1.84453e-11
-2.23273e-11
2.77009e-08
-2.7551e-08
-5.53314e-11
-5.37514e-11
3.56326e-11
1.17862e-07
9.95705e-12
1.70387e-11
-2.98211e-11
-2.63228e-12
1.53977e-11
-3.26611e-11
-4.76185e-11
-4.27531e-11
7.69517e-11
3.44868e-11
1.17907e-07
1.06584e-11
1.74595e-11
-3.02758e-11
-1.77059e-12
1.57081e-11
-3.18554e-11
-4.72107e-11
1.17849e-07
6.91563e-11
-1.17854e-07
2.95645e-11
-4.02536e-11
-2.86907e-11
1.19715e-11
-2.89315e-11
-4.52747e-11
1.89615e-11
-2.89199e-14
1.87005e-11
1.17894e-07
7.09679e-11
-1.179e-07
3.16403e-11
-4.04783e-11
-2.96624e-11
1.21732e-11
-2.91718e-11
-4.60105e-11
1.80824e-11
-2.27076e-13
3.27617e-11
3.43483e-11
2.75603e-08
-2.23186e-11
2.76979e-08
-2.75468e-08
-5.57683e-11
-5.42381e-11
3.32802e-11
1.15583e-07
2.71148e-11
2.10535e-11
-4.57075e-11
-8.03193e-11
4.69462e-11
4.86328e-11
-7.58935e-11
-3.58182e-11
7.61443e-11
3.87293e-11
1.16665e-07
2.34492e-11
9.64172e-12
-4.3505e-11
-6.0738e-11
4.5752e-11
2.84097e-11
-7.54398e-11
1.15567e-07
6.59538e-11
-1.15573e-07
2.809e-11
-4.3179e-11
-4.49143e-11
2.89376e-11
5.18339e-11
-7.41949e-11
4.97444e-11
-7.8366e-11
1.05938e-11
1.16637e-07
6.80697e-11
-1.16647e-07
3.44837e-11
-3.34804e-11
-4.2867e-11
2.50281e-11
3.18006e-11
-7.32616e-11
4.88833e-11
-5.85673e-11
7.56531e-11
3.66434e-11
1.16649e-07
2.27309e-11
9.74055e-12
-4.3432e-11
-6.06834e-11
4.67478e-11
-7.53157e-11
2.91965e-11
6.67793e-11
-1.15529e-07
3.01613e-11
-4.36642e-11
-4.49083e-11
2.90713e-11
5.18345e-11
-7.44327e-11
-7.86376e-11
5.01572e-11
1.08875e-11
1.16636e-07
6.54435e-11
-1.16639e-07
3.12621e-11
-3.37322e-11
-4.26467e-11
2.45625e-11
3.17589e-11
-7.39939e-11
4.91954e-11
-5.91435e-11
4.10295e-11
2.62676e-11
2.75709e-08
-2.72152e-11
2.7702e-08
-2.75542e-08
-6.19805e-11
-4.79628e-11
8.03829e-11
3.0366e-11
1.16821e-07
1.54531e-11
2.79022e-11
-3.26979e-11
-2.66307e-11
1.60959e-11
-4.87976e-11
-8.72486e-12
7.10897e-11
-1.16773e-07
2.95854e-11
-4.87576e-11
-3.31324e-11
1.63877e-11
-4.35778e-12
-4.65478e-11
-2.41021e-11
2.04637e-11
2.85379e-11
1.16809e-07
7.06563e-11
-1.16813e-07
2.57898e-11
-4.90033e-11
-3.25693e-11
1.65778e-11
-4.98691e-12
-4.65377e-11
1.94009e-11
-2.39704e-11
-2.7566e-08
-6.28299e-11
-4.74198e-11
3.9691e-11
4.26252e-11
3.6718e-11
3.59424e-11
2.75459e-08
-1.97825e-11
-2.32842e-11
2.76786e-08
-2.75292e-08
-5.43644e-11
-5.20309e-11
2.8023e-11
1.17843e-07
1.24434e-11
1.87547e-11
-2.84745e-11
9.07919e-13
1.99452e-11
-2.77014e-11
-4.45776e-11
-3.94626e-11
6.83561e-11
2.99165e-11
1.17887e-07
1.29288e-11
1.93622e-11
-3.28183e-11
4.91625e-13
1.91245e-11
-2.81163e-11
-4.26905e-11
1.17818e-07
5.95295e-11
-1.17827e-07
2.65977e-11
-3.77755e-11
-2.78244e-11
1.37859e-11
-2.52e-11
-4.36467e-11
2.19595e-11