/*--------------------------------*- C++ -*----------------------------------*\
| =========                 |                                                 |
| \\      /  F ield         | OpenFOAM: The Open Source CFD Toolbox           |
|  \\    /   O peration     | Version:  2206                                  |
|   \\  /    A nd           | Website:  www.openfoam.com                      |
|    \\/     M anipulation  |                                                 |
\*---------------------------------------------------------------------------*/
FoamFile
{
    version     2.0;
    format      ascii;
    arch        "LSB;label=32;scalar=64";
    class       volVectorField;
    location    "130";
    object      wallShearStress;
}
// * * * * * * * * * * * * * * * * * * * * * * * * * * * * * * * * * * * * * //

dimensions      [0 2 -2 0 0 0 0];

internalField   uniform (0 0 0);

boundaryField
{
    topPatch
    {
        type            calculated;
        value           nonuniform List<vector> 0();
    }
    wall
    {
        type            calculated;
        value           nonuniform List<vector> 
7718
(
(-1.61754e-09 7.01812e-09 -0.000110171)
(-4.3869e-09 1.94724e-08 -0.000110211)
(-3.74718e-09 8.50013e-09 -0.000103645)
(-5.28704e-09 -1.26582e-08 -0.000103739)
(-6.0264e-09 -1.3425e-08 -0.000110258)
(-6.60635e-09 -2.57846e-08 -0.000110296)
(-4.78879e-10 1.22289e-08 -0.000105464)
(1.41857e-09 6.02263e-09 -0.000106925)
(-6.15795e-10 -1.44506e-08 -0.000105533)
(1.76506e-09 -2.3323e-09 -0.000106948)
(-1.80825e-08 3.86167e-09 -0.000110045)
(2.59435e-10 3.65371e-09 -0.000110161)
(-1.63882e-08 4.55642e-09 -0.000103492)
(-2.96792e-09 4.58843e-09 -0.000103636)
(-6.84251e-09 -1.64598e-08 -0.000103736)
(-8.81177e-09 -1.80794e-08 -0.000110253)
(-2.86153e-09 2.04519e-09 -0.000109962)
(7.9459e-10 -1.20288e-08 -0.000105223)
(1.15793e-09 3.06119e-09 -0.000106924)
(-1.99046e-10 1.11576e-08 -0.000105464)
(-1.66601e-09 -3.9449e-09 -0.000106662)
(4.73729e-10 2.20386e-09 -0.000103464)
(-6.0179e-10 6.63113e-09 -0.000105288)
(1.18822e-09 -5.95881e-09 -0.00010695)
(-8.9686e-10 -1.65831e-08 -0.000105535)
(-1.27921e-09 1.80762e-09 -0.000106688)
(-3.46347e-09 -1.01931e-08 -0.000103555)
(-6.57282e-09 -1.0734e-08 -0.000110057)
(1.37783e-08 8.90723e-09 -0.000103968)
(1.92433e-08 8.36376e-09 -0.000110001)
(-1.49011e-08 8.29601e-09 -0.000109083)
(-4.16879e-09 5.14829e-09 -0.000104044)
(1.08513e-08 -8.35075e-09 -0.000103933)
(1.59922e-10 3.49247e-09 -0.000109116)
(-7.45604e-09 9.54572e-09 -0.00010406)
(3.07381e-09 -1.70755e-09 -0.0001039)
(2.18967e-08 -1.69628e-08 -0.000108946)
(5.94201e-10 -2.60472e-09 -0.000108939)
(2.1577e-09 -8.35451e-09 -0.000109998)
(-4.64906e-09 1.92748e-08 -0.000110203)
(5.89607e-10 2.53635e-09 -0.000110087)
(-6.67586e-09 -2.67241e-08 -0.000110298)
(-3.25331e-09 -4.30699e-09 -0.000103965)
(-1.32579e-09 -3.1686e-10 -0.000109012)
(1.39782e-08 1.14997e-08 -0.000109003)
(-1.60178e-08 -1.49992e-08 -0.000111651)
(-1.73603e-08 -3.37641e-08 -0.000111248)
(2.83612e-08 -1.99405e-08 -0.000104688)
(5.73694e-08 -1.94764e-08 -0.000104545)
(-3.84633e-08 -2.76833e-08 -0.000111125)
(-6.08629e-08 -3.21231e-08 -0.000110939)
(-1.89046e-08 3.2317e-08 -0.000104713)
(-7.87307e-09 2.16795e-08 -0.000104429)
(-1.61499e-08 -2.16657e-08 -0.000111203)
(-1.10829e-08 -1.83325e-08 -0.000110905)
(2.2978e-08 -1.58188e-08 -0.000104286)
(4.60965e-08 -1.44595e-08 -0.000104168)
(-5.81593e-09 -9.74275e-09 -0.000110743)
(-3.38635e-08 -1.61368e-08 -0.000110568)
(-1.47681e-08 2.7361e-08 -0.000104383)
(-9.7528e-09 2.65574e-08 -0.000104117)
(-1.71433e-08 -2.60749e-08 -0.000110882)
(-7.6564e-09 -1.4067e-08 -0.000110613)
(-1.04571e-08 -3.2345e-09 -0.000103945)
(9.18984e-09 -8.26904e-10 -0.000103855)
(-2.95587e-09 -6.16847e-09 -0.000110437)
(-1.98461e-08 -8.62346e-09 -0.000110307)
(-1.24296e-08 2.12199e-08 -0.000104081)
(-4.23525e-09 1.45079e-08 -0.000103834)
(-1.11842e-08 -1.49357e-08 -0.000110616)
(-8.99199e-09 -1.46144e-08 -0.000110345)
(-1.90606e-08 1.84263e-09 -0.0001037)
(2.44065e-08 -5.65195e-09 -0.000103624)
(2.52014e-08 9.2507e-09 -0.00011024)
(-1.57417e-08 -6.76059e-09 -0.00011012)
(-7.57042e-09 1.34251e-08 -0.000103875)
(1.15907e-09 -5.71292e-10 -0.000103648)
(-9.39836e-09 -1.3755e-08 -0.000110396)
(-3.72666e-09 -6.9755e-09 -0.000110137)
(2.26915e-09 -6.19175e-09 -0.000103532)
(3.6179e-08 -1.09847e-08 -0.000103485)
(1.60649e-08 3.82795e-09 -0.000110098)
(-1.20532e-08 -5.03664e-09 -0.000110006)
(3.81008e-09 -1.62587e-08 -0.000103735)
(8.18875e-09 -1.88872e-08 -0.000103518)
(3.485e-09 7.55603e-09 -0.000110215)
(1.33235e-08 2.64867e-08 -0.000109962)
(-5.51908e-09 -2.40211e-09 -0.000103422)
(2.1211e-08 -4.19586e-09 -0.00010338)
(1.97449e-08 7.05726e-09 -0.000109986)
(-1.49858e-08 -5.0199e-09 -0.000109883)
(-5.20855e-09 1.04904e-08 -0.000103616)
(-2.96723e-09 1.32512e-08 -0.000103414)
(5.4975e-09 1.06315e-08 -0.000110094)
(5.38526e-10 1.48877e-09 -0.000109886)
(-6.15336e-09 -9.85894e-10 -0.00010334)
(2.44219e-08 -4.27952e-09 -0.000103296)
(1.26698e-08 5.11497e-09 -0.000109915)
(-1.82641e-08 -8.36739e-09 -0.000109813)
(-8.94e-09 2.01172e-08 -0.000103543)
(-1.01077e-09 5.27729e-09 -0.000103336)
(-1.15428e-08 -2.07708e-08 -0.000110057)
(-6.92796e-09 -1.33316e-08 -0.000109836)
(-1.02878e-09 -3.95948e-09 -0.000103248)
(3.27874e-08 -1.06231e-08 -0.000103203)
(2.33993e-08 1.04675e-08 -0.000109828)
(-9.31879e-09 -1.60025e-09 -0.000109729)
(-4.57386e-09 6.75258e-09 -0.000103457)
(-5.99724e-10 3.5103e-09 -0.000103246)
(-5.78938e-09 -1.09801e-08 -0.000109988)
(-2.45209e-09 -2.73648e-09 -0.000109761)
(-5.67013e-09 -1.2209e-09 -0.000103213)
(2.43326e-08 -5.28134e-09 -0.000103198)
(1.1965e-08 4.35301e-09 -0.000109769)
(-2.17784e-08 -9.78463e-09 -0.000109687)
(-2.586e-09 5.03167e-09 -0.000103405)
(6.51462e-10 2.91635e-11 -0.000103209)
(9.22822e-10 1.47628e-09 -0.000109946)
(5.4898e-09 1.01431e-08 -0.000109742)
(-1.50638e-08 2.84923e-09 -0.000103215)
(1.60362e-08 -2.004e-09 -0.000103206)
(1.70938e-08 7.39729e-09 -0.000109771)
(-7.59993e-09 -1.53725e-09 -0.000109706)
(-7.69561e-10 4.29581e-09 -0.000103392)
(1.86916e-09 -6.01183e-10 -0.000103209)
(1.04108e-09 5.7936e-10 -0.00010995)
(3.91313e-09 7.10499e-09 -0.000109755)
(-1.67403e-08 3.08078e-09 -0.000103236)
(1.74811e-08 -3.39263e-09 -0.000103233)
(2.25013e-08 1.0057e-08 -0.000109791)
(-1.40832e-08 -6.26308e-09 -0.00010973)
(-3.47962e-09 5.28143e-09 -0.000103391)
(1.32049e-09 -1.53544e-09 -0.000103215)
(3.00084e-09 3.24532e-09 -0.000109981)
(3.68819e-09 8.02442e-09 -0.000109781)
(-1.38856e-08 3.00893e-09 -0.000103275)
(1.95633e-08 -3.9677e-09 -0.000103287)
(1.22588e-08 4.9091e-09 -0.000109822)
(-1.89138e-08 -7.06658e-09 -0.000109779)
(-1.48651e-09 1.4974e-09 -0.00010342)
(2.67306e-09 -3.44313e-09 -0.000103267)
(4.03729e-10 -4.04023e-10 -0.000110014)
(1.25908e-09 3.85218e-09 -0.000109838)
(-3.91477e-09 -1.79005e-09 -0.000103324)
(2.45378e-08 -4.66462e-09 -0.000103357)
(1.16482e-08 5.55358e-09 -0.00010987)
(-2.14254e-08 -7.71285e-09 -0.00010985)
(-1.97471e-09 3.67165e-09 -0.000103474)
(2.26598e-09 -3.11898e-09 -0.000103323)
(-4.29863e-09 -7.78851e-09 -0.00011007)
(-2.20784e-09 -3.46424e-09 -0.000109897)
(-1.18098e-08 1.00656e-09 -0.000103362)
(1.68687e-08 -1.73523e-09 -0.000103429)
(1.86572e-08 8.03937e-09 -0.000109906)
(-1.56225e-08 -4.02243e-09 -0.000109916)
(-2.78676e-09 3.70078e-09 -0.000103522)
(4.10699e-09 -7.23111e-09 -0.000103383)
(-9.98077e-10 -2.99955e-09 -0.000110131)
(2.34017e-10 4.05462e-10 -0.000109964)
(-5.49581e-09 -4.29687e-09 -0.000103353)
(3.26111e-08 -7.5e-09 -0.000103438)
(1.44712e-08 3.31316e-09 -0.000109895)
(-3.29002e-08 -1.42753e-08 -0.000109932)
(-1.84952e-09 2.03875e-09 -0.000103561)
(6.39331e-09 -1.20859e-08 -0.000103418)
(-9.78658e-10 -2.84945e-09 -0.000110178)
(6.50476e-10 -4.95665e-10 -0.00011002)
(1.24989e-08 2.68611e-09 -0.000110043)
(9.31306e-10 -9.88614e-09 -0.000103552)
(-6.80348e-09 -7.36333e-09 -0.000110187)
(2.4574e-08 2.61827e-08 -0.000111608)
(6.87309e-08 3.7198e-08 -0.000111414)
(-1.34056e-08 -1.85377e-08 -0.000111104)
(-2.54048e-08 -3.9379e-08 -0.000111379)
(6.52057e-08 3.53414e-08 -0.000111211)
(2.61393e-08 2.19989e-08 -0.000111366)
(3.33218e-08 2.59709e-08 -0.000105171)
(7.82831e-08 2.86197e-08 -0.000105041)
(-2.30972e-08 1.96725e-08 -0.000105244)
(-6.5599e-08 2.42864e-08 -0.000105066)
(7.09864e-08 2.68445e-08 -0.000104814)
(3.52933e-08 2.37914e-08 -0.000104928)
(-7.28544e-08 2.64605e-08 -0.000104832)
(-3.21973e-08 2.2706e-08 -0.000104976)
(1.85782e-08 -2.20796e-08 -0.000111681)
(1.13281e-08 -1.4106e-08 -0.000111342)
(-1.93198e-08 2.00467e-08 -0.000111678)
(-6.48621e-08 3.55219e-08 -0.00011143)
(1.24087e-08 -2.03763e-08 -0.0001111)
(2.15059e-08 -2.76814e-08 -0.000111436)
(-6.63804e-08 3.65639e-08 -0.000111212)
(-2.74139e-08 2.26103e-08 -0.000111401)
(3.16502e-08 -2.38616e-08 -0.000111133)
(5.90632e-08 -3.08031e-08 -0.000110946)
(-1.86561e-08 2.52906e-08 -0.000111167)
(-9.23287e-09 1.48542e-08 -0.000110873)
(5.24783e-08 -2.74779e-08 -0.000110769)
(2.48786e-08 -1.94218e-08 -0.000110935)
(-8.87666e-09 1.46948e-08 -0.00011072)
(-1.36886e-08 1.85013e-08 -0.000111001)
(-3.79323e-08 -2.2812e-08 -0.000104672)
(-6.01925e-08 -2.02623e-08 -0.000104532)
(5.66461e-08 -1.9004e-08 -0.000104348)
(2.43875e-08 -1.74254e-08 -0.000104473)
(-4.82598e-08 -1.65961e-08 -0.000104335)
(-2.27941e-08 -1.6901e-08 -0.000104459)
(1.90242e-08 2.69568e-08 -0.00011125)
(9.5589e-09 1.48088e-08 -0.00011096)
(-4.451e-08 -2.39759e-08 -0.000110751)
(-1.9042e-08 -1.71981e-08 -0.000110928)
(7.36865e-09 1.10998e-08 -0.000110812)
(1.52688e-08 2.07915e-08 -0.000111087)
(-1.7277e-08 -2.72078e-08 -0.000104761)
(-9.74909e-09 -2.46661e-08 -0.000104479)
(-8.31059e-09 2.31428e-08 -0.00010427)
(-1.40374e-08 2.34321e-08 -0.000104534)
(-9.46616e-09 -2.63098e-08 -0.000104318)
(-1.66983e-08 -2.91409e-08 -0.000104586)
(1.91253e-08 3.50952e-08 -0.000104816)
(1.02676e-08 2.63966e-08 -0.000104536)
(1.52111e-08 -2.57016e-08 -0.000104788)
(6.68632e-09 -1.81308e-08 -0.000104497)
(7.11942e-09 1.90275e-08 -0.000104377)
(1.56682e-08 2.67016e-08 -0.000104641)
(5.10198e-09 -1.28145e-08 -0.000104323)
(1.24415e-08 -1.97197e-08 -0.0001046)
(3.00354e-08 2.33352e-08 -0.000111176)
(6.02619e-08 3.13926e-08 -0.000111004)
(-1.3506e-08 -2.23349e-08 -0.000110746)
(-1.72153e-08 -2.47401e-08 -0.000111032)
(5.1526e-08 2.68436e-08 -0.000110829)
(2.60694e-08 2.0672e-08 -0.000110994)
(3.59916e-08 2.32622e-08 -0.000104715)
(6.32339e-08 2.18708e-08 -0.000104591)
(-3.7793e-08 2.35566e-08 -0.000104747)
(-5.7684e-08 1.91642e-08 -0.00010461)
(5.10208e-08 1.68613e-08 -0.000104405)
(2.80787e-08 1.90763e-08 -0.000104522)
(-3.8588e-08 1.17242e-08 -0.000104408)
(-1.8462e-08 1.50578e-08 -0.000104537)
(1.7114e-08 -2.4086e-08 -0.000111217)
(7.86282e-09 -1.22724e-08 -0.000110914)
(-3.28172e-08 2.50707e-08 -0.000111184)
(-5.75071e-08 3.02439e-08 -0.000111002)
(4.40716e-09 -4.53941e-09 -0.000110745)
(1.22123e-08 -1.55194e-08 -0.000111039)
(-4.45145e-08 2.27678e-08 -0.000110815)
(-2.04056e-08 1.73265e-08 -0.000110989)
(1.93845e-08 -1.62118e-08 -0.000110766)
(4.3546e-08 -2.23777e-08 -0.000110604)
(-1.47254e-08 2.18745e-08 -0.000110852)
(-1.10874e-08 1.84125e-08 -0.000110565)
(2.40458e-08 -1.26927e-08 -0.000110437)
(6.2739e-09 -9.55867e-09 -0.000110604)
(-1.17065e-08 1.78524e-08 -0.000110407)
(-1.60433e-08 2.24805e-08 -0.000110698)
(-1.21261e-08 -1.32803e-08 -0.000104269)
(-3.19777e-08 -9.81049e-09 -0.000104152)
(2.75483e-08 -8.31357e-09 -0.000103994)
(9.76741e-09 -1.10664e-08 -0.000104108)
(-3.00841e-08 -8.47911e-09 -0.000103998)
(7.3757e-10 -7.4335e-09 -0.000104104)
(1.48079e-08 2.1375e-08 -0.000110944)
(1.2543e-08 1.98001e-08 -0.000110662)
(-3.8926e-08 -1.96082e-08 -0.000110421)
(-2.55853e-09 -6.84156e-09 -0.000110583)
(4.92368e-09 5.8899e-09 -0.000110516)
(1.5497e-08 2.1978e-08 -0.000110787)
(-1.4381e-08 -2.67528e-08 -0.000104432)
(-5.69251e-09 -1.88118e-08 -0.000104178)
(-7.85198e-09 1.96613e-08 -0.000103958)
(-1.64585e-08 2.83867e-08 -0.000104229)
(-6.86774e-09 -1.65975e-08 -0.000104031)
(-1.16857e-08 -2.03341e-08 -0.000104297)
(1.29449e-08 2.16056e-08 -0.000104486)
(9.5371e-09 2.55232e-08 -0.00010422)
(1.05147e-08 -1.4463e-08 -0.00010443)
(2.83966e-09 -7.5069e-09 -0.000104153)
(5.9993e-09 1.50179e-08 -0.00010407)
(1.53837e-08 2.67477e-08 -0.000104328)
(1.4084e-09 -3.37792e-09 -0.000103997)
(8.91926e-09 -1.01605e-08 -0.000104266)
(1.44362e-08 1.37471e-08 -0.000110824)
(3.56277e-08 1.75447e-08 -0.000110669)
(-6.17537e-09 -8.70901e-09 -0.000110471)
(-1.12993e-08 -1.55299e-08 -0.000110754)
(3.05433e-08 1.55024e-08 -0.000110521)
(2.39974e-10 5.34725e-09 -0.000110674)
(1.26702e-08 1.21103e-08 -0.000104341)
(3.42307e-08 9.65835e-09 -0.000104235)
(-3.25212e-09 8.43725e-09 -0.000104341)
(-3.64263e-08 1.02497e-08 -0.000104226)
(3.16315e-08 9.00668e-09 -0.000104082)
(-4.88329e-10 6.84995e-09 -0.00010418)
(-2.65681e-08 7.31197e-09 -0.000104067)
(-2.22856e-09 7.83467e-09 -0.000104169)
(9.67982e-09 -1.04084e-08 -0.000110873)
(3.07321e-09 -2.59694e-09 -0.000110579)
(-8.69211e-09 9.95859e-09 -0.000110805)
(-3.44003e-08 1.73985e-08 -0.000110631)
(2.59809e-09 -1.50254e-09 -0.000110425)
(8.22835e-09 -8.11486e-09 -0.000110713)
(-2.18266e-08 1.087e-08 -0.000110475)
(2.34153e-09 4.40871e-09 -0.000110631)
(-1.34241e-08 1.43917e-09 -0.000110439)
(6.69968e-09 -2.43059e-09 -0.000110292)
(-1.63931e-08 2.43661e-08 -0.000110548)
(-9.6367e-09 1.72556e-08 -0.000110285)
(1.27402e-08 -4.94207e-09 -0.000110173)
(-2.67418e-08 9.4161e-09 -0.000110309)
(-2.85644e-09 5.42722e-09 -0.00011019)
(-1.28336e-08 2.07318e-08 -0.000110441)
(5.65891e-09 -3.8811e-09 -0.000103953)
(-1.77028e-08 -2.3784e-09 -0.000103869)
(9.33491e-09 -1.31272e-10 -0.000103734)
(-2.46264e-08 2.60273e-09 -0.000103816)
(-1.66711e-08 -2.70649e-09 -0.000103757)
(1.79118e-08 1.40772e-09 -0.000103835)
(8.86517e-09 1.0567e-08 -0.000110659)
(1.97722e-09 3.33015e-09 -0.000110406)
(-9.1344e-09 -3.47257e-09 -0.000110211)
(2.16429e-08 7.60669e-09 -0.000110336)
(3.06923e-09 5.90017e-09 -0.000110302)
(7.83391e-09 1.14532e-08 -0.000110558)
(-1.21976e-08 -1.99159e-08 -0.000104155)
(-7.00507e-09 -1.9089e-08 -0.000103902)
(-2.69717e-09 1.14398e-08 -0.000103735)
(-9.39216e-09 1.74552e-08 -0.000103968)
(-3.48717e-09 -1.17433e-08 -0.000103788)
(-1.22296e-08 -2.24802e-08 -0.000104035)
(1.02395e-08 1.50928e-08 -0.000104192)
(5.81715e-10 4.46021e-09 -0.000103959)
(6.6126e-09 -5.92379e-09 -0.00010412)
(1.40968e-09 -5.09448e-09 -0.000103873)
(7.01265e-10 4.82148e-09 -0.000103858)
(5.61317e-09 6.99963e-09 -0.000104092)
(1.41181e-09 -9.23868e-09 -0.000103786)
(7.70928e-09 -1.04705e-08 -0.00010401)
(-3.68492e-09 3.25283e-09 -0.000110529)
(2.41309e-08 1.14558e-08 -0.000110389)
(-6.2819e-09 -1.02715e-08 -0.000110239)
(-1.29818e-08 -1.95837e-08 -0.0001105)
(2.72817e-08 1.24149e-08 -0.000110283)
(-9.6684e-09 -8.75075e-10 -0.000110409)
(-2.23241e-09 5.63139e-09 -0.000104034)
(2.59712e-08 6.68582e-09 -0.000103945)
(8.93548e-09 3.66183e-09 -0.000104018)
(-2.40862e-08 6.67916e-09 -0.000103924)
(2.90214e-08 7.30553e-09 -0.000103832)
(-7.33781e-09 3.50906e-09 -0.000103906)
(-2.73123e-08 6.94452e-09 -0.00010381)
(7.20985e-09 3.91178e-09 -0.000103886)
(7.49988e-09 -8.05364e-09 -0.000110567)
(3.36848e-09 -4.52853e-09 -0.000110299)
(1.26527e-08 -1.52476e-09 -0.000110484)
(-2.12813e-08 1.05085e-08 -0.000110339)
(4.81846e-09 -9.30933e-09 -0.000110208)
(8.34159e-09 -1.18566e-08 -0.000110454)
(-2.67949e-08 1.27728e-08 -0.000110232)
(1.1085e-08 -9.1537e-10 -0.000110357)
(-1.57169e-08 4.58213e-09 -0.000110194)
(2.55034e-08 -1.18211e-08 -0.00011007)
(-5.30943e-09 7.01992e-09 -0.000110348)
(5.42006e-09 -1.10923e-08 -0.000110101)
(2.63895e-08 -1.22476e-08 -0.000109999)
(-5.20421e-09 -9.89994e-10 -0.000110105)
(1.02382e-08 -1.99631e-08 -0.000110028)
(3.07653e-09 -9.09506e-09 -0.000110269)
(1.24557e-08 -1.19107e-09 -0.000103726)
(-3.1002e-08 -8.70224e-09 -0.00010366)
(3.31328e-08 -9.27181e-09 -0.000103546)
(-3.94297e-09 -3.84423e-09 -0.000103601)
(-3.73633e-08 -1.21457e-08 -0.00010359)
(-4.794e-09 -7.89393e-09 -0.000103645)
(1.02067e-08 1.60949e-08 -0.000110457)
(8.79207e-09 1.31692e-08 -0.000110198)
(-2.10049e-08 -1.11022e-08 -0.000110054)
(1.29734e-08 2.26197e-09 -0.000110168)
(8.84195e-10 3.26595e-10 -0.000110097)
(1.0046e-08 1.45948e-08 -0.000110346)
(-7.60155e-09 -1.10307e-08 -0.000103922)
(2.09093e-09 1.74056e-09 -0.000103681)
(7.09836e-09 -1.61601e-08 -0.000103582)
(-2.69775e-09 -1.1719e-09 -0.000103795)
(6.3025e-09 1.19263e-08 -0.000103593)
(-2.51136e-09 -5.56015e-10 -0.000103825)
(5.93024e-09 8.65431e-09 -0.000103995)
(2.46779e-09 7.57274e-09 -0.000103757)
(6.44997e-09 -1.21924e-08 -0.000103931)
(8.90821e-10 -5.75681e-09 -0.000103706)
(-1.96322e-09 -4.10241e-09 -0.000103659)
(6.22706e-09 7.19975e-09 -0.000103889)
(6.96844e-10 3.20191e-11 -0.000103626)
(6.69256e-09 -8.59015e-09 -0.000103852)
(-4.67625e-09 1.2525e-09 -0.000110307)
(2.87047e-08 1.38458e-08 -0.000110186)
(3.17898e-09 5.99368e-09 -0.000110045)
(-6.87952e-09 -1.1051e-08 -0.000110301)
(2.42477e-08 1.1363e-08 -0.000110102)
(-5.49041e-09 1.26226e-09 -0.000110219)
(-2.16472e-09 4.57494e-09 -0.000103799)
(3.12882e-08 8.60226e-09 -0.000103728)
(5.52635e-09 3.24775e-09 -0.000103777)
(-2.38726e-08 5.71967e-09 -0.000103698)
(2.6378e-08 7.09983e-09 -0.000103634)
(-2.23112e-09 4.87891e-09 -0.0001037)
(-1.76651e-08 3.11604e-09 -0.000103585)
(1.15983e-08 1.29368e-09 -0.000103667)
(8.69281e-09 -1.4999e-08 -0.000110373)
(4.17616e-10 2.63002e-10 -0.000110128)
(5.45642e-09 1.1124e-09 -0.000110257)
(-3.16346e-08 1.57098e-08 -0.000110129)
(-5.42679e-09 1.30666e-08 -0.000110044)
(2.72326e-09 -1.9483e-09 -0.000110292)
(-3.25387e-08 1.58793e-08 -0.00011002)
(1.09643e-09 3.86458e-09 -0.000110155)
(-7.72193e-09 2.76849e-10 -0.000110038)
(2.25091e-08 -1.07717e-08 -0.000109939)
(7.219e-09 -1.59505e-08 -0.000110197)
(8.37371e-09 -1.57749e-08 -0.000109955)
(2.09842e-08 -1.01477e-08 -0.000109883)
(-1.03587e-08 1.63897e-09 -0.000109986)
(-2.98434e-09 5.22628e-09 -0.000109886)
(1.76641e-09 -5.02827e-09 -0.000110129)
(-4.22842e-10 -6.4346e-09 -0.000103577)
(-1.8651e-08 -3.81947e-09 -0.000103544)
(2.90067e-08 -8.45749e-09 -0.000103427)
(4.12161e-09 -7.58608e-09 -0.000103475)
(-1.3687e-08 -1.97374e-09 -0.000103484)
(1.56804e-08 3.83218e-10 -0.000103536)
(4.17325e-09 5.08519e-09 -0.000110261)
(-4.09663e-10 -2.03822e-09 -0.000110026)
(-1.62922e-08 -7.09963e-09 -0.000109944)
(2.31411e-08 8.8397e-09 -0.000110055)
(2.32059e-09 3.43374e-09 -0.000109972)
(5.55974e-09 7.9381e-09 -0.000110201)
(3.62762e-09 1.30657e-08 -0.000103742)
(8.7049e-09 2.1283e-08 -0.000103514)
(-1.34667e-10 3.53093e-09 -0.000103453)
(1.39074e-09 -9.51229e-09 -0.000103672)
(3.97404e-09 7.43488e-09 -0.000103468)
(3.22797e-09 1.58318e-08 -0.000103671)
(2.15544e-09 -1.50206e-09 -0.000103805)
(-1.72689e-09 -2.73704e-09 -0.000103587)
(3.98092e-09 -9.21306e-10 -0.00010378)
(-5.53054e-09 1.34975e-08 -0.000103567)
(1.44083e-10 2.78031e-09 -0.000103527)
(4.23028e-09 4.21748e-09 -0.000103741)
(-5.92299e-09 1.39181e-08 -0.000103516)
(-1.41977e-09 1.10626e-08 -0.000103726)
(-9.12304e-09 -1.15639e-09 -0.000110136)
(2.40061e-08 1.17003e-08 -0.000110018)
(9.87972e-09 1.97662e-08 -0.000109904)
(1.04424e-08 2.2718e-08 -0.000110137)
(1.26268e-08 5.1095e-09 -0.000109939)
(-1.19924e-08 -2.5626e-09 -0.000110058)
(-6.29128e-09 3.36661e-09 -0.000103611)
(2.55072e-08 6.67423e-09 -0.000103553)
(1.53903e-08 -6.774e-10 -0.000103559)
(-1.65637e-08 2.43356e-09 -0.000103496)
(1.24397e-08 1.57379e-09 -0.000103478)
(-9.59739e-09 2.00898e-09 -0.000103537)
(-1.56601e-08 2.6528e-09 -0.000103439)
(1.6215e-08 -1.17596e-09 -0.000103484)
(-2.4136e-09 8.87176e-09 -0.000110215)
(-9.66696e-09 1.98864e-08 -0.000109985)
(3.19353e-09 1.8484e-09 -0.00011005)
(-1.94081e-08 8.33181e-09 -0.00010993)
(-7.41194e-09 1.4718e-08 -0.000109934)
(-6.28624e-09 1.42131e-08 -0.000110164)
(-4.67403e-09 8.25048e-10 -0.000109871)
(1.92057e-08 -7.31089e-09 -0.000109972)
(-1.33552e-08 4.35118e-09 -0.000109932)
(1.81933e-08 -7.26363e-09 -0.000109842)
(-7.25389e-09 1.343e-08 -0.000110067)
(-5.39102e-09 1.17971e-08 -0.00010985)
(3.03155e-08 -1.40715e-08 -0.000109809)
(-1.25613e-08 4.17293e-09 -0.0001099)
(-5.86524e-09 1.0722e-08 -0.000109816)
(-9.13614e-09 1.78621e-08 -0.000110039)
(1.79821e-08 1.7741e-09 -0.000103469)
(-1.5663e-08 -1.86246e-09 -0.000103423)
(2.56832e-08 -5.43214e-09 -0.00010334)
(-9.69238e-09 -2.29983e-10 -0.00010338)
(-2.62563e-08 -5.65665e-09 -0.000103394)
(1.14485e-08 7.1938e-10 -0.00010343)
(7.07418e-09 1.25303e-08 -0.000110154)
(5.73963e-09 9.61639e-09 -0.000109931)
(-2.26152e-08 -9.22038e-09 -0.000109861)
(1.43676e-08 5.52613e-09 -0.000109953)
(7.08506e-09 1.3047e-08 -0.000109875)
(8.01951e-09 1.43471e-08 -0.000110102)
(-2.12168e-09 -7.15837e-10 -0.000103637)
(-3.65479e-09 -1.31306e-08 -0.00010345)
(-5.44783e-09 1.78865e-08 -0.000103374)
(-8.82395e-09 2.005e-08 -0.00010358)
(-7.22555e-09 -2.09873e-08 -0.000103424)
(-1.06444e-08 -2.23071e-08 -0.000103622)
(4.09422e-09 6.96193e-09 -0.000103686)
(2.13541e-09 8.35308e-09 -0.000103477)
(-4.21774e-10 7.08301e-09 -0.000103677)
(1.12633e-10 -3.32449e-09 -0.000103466)
(3.13403e-09 1.00839e-08 -0.000103417)
(6.56972e-09 1.12241e-08 -0.000103632)
(8.58004e-09 -2.38207e-08 -0.000103404)
(6.99479e-09 -1.35579e-08 -0.000103628)
(-2.30538e-08 -9.07277e-09 -0.00010998)
(1.50663e-08 5.8075e-09 -0.000109871)
(-8.25984e-09 -1.43934e-08 -0.000109865)
(-5.46982e-09 -9.02989e-09 -0.000110079)
(2.90841e-08 1.37119e-08 -0.00010981)
(-1.42544e-08 -5.15602e-09 -0.00010992)
(-2.21652e-08 -3.58508e-09 -0.000103464)
(1.55542e-08 2.49082e-09 -0.000103416)
(1.66823e-08 -1.43135e-09 -0.000103433)
(-2.39543e-08 6.1603e-09 -0.000103395)
(2.78716e-08 6.90603e-09 -0.000103359)
(-1.33701e-08 -4.175e-10 -0.000103409)
(-2.77476e-08 6.86857e-09 -0.000103362)
(6.69997e-09 2.96411e-09 -0.000103395)
(-1.54019e-09 3.97487e-09 -0.000110113)
(3.8806e-09 -6.89223e-09 -0.000109878)
(3.02531e-08 -1.30566e-08 -0.00010992)
(-9.64527e-09 3.94176e-09 -0.000109827)
(1.21657e-08 -2.0722e-08 -0.000109818)
(1.00656e-08 -1.8022e-08 -0.00011006)
(-2.60684e-08 1.18104e-08 -0.000109796)
(2.07654e-08 -7.38917e-09 -0.000109883)
(-1.0262e-09 -2.12448e-09 -0.000109862)
(3.00589e-08 -1.32702e-08 -0.000109768)
(-7.42922e-09 1.38632e-08 -0.000110005)
(1.04702e-09 -2.4677e-09 -0.000109783)
(2.24296e-08 -1.02941e-08 -0.000109726)
(-5.65518e-09 1.55449e-09 -0.000109827)
(-1.79501e-10 -1.14424e-09 -0.000109744)
(-9.13858e-10 6.3487e-10 -0.000109973)
(5.24325e-09 -1.39623e-09 -0.000103391)
(-2.36012e-08 -5.69133e-09 -0.000103342)
(2.81552e-08 -7.16506e-09 -0.000103248)
(-6.96991e-09 -1.81135e-10 -0.000103297)
(-1.18112e-08 -7.04351e-10 -0.000103295)
(1.06467e-08 -4.55409e-10 -0.000103341)
(1.19369e-08 2.17782e-08 -0.000110052)
(7.28507e-09 1.30266e-08 -0.000109814)
(-1.50194e-08 -6.15622e-09 -0.000109772)
(1.838e-08 6.50973e-09 -0.00010987)
(-1.35233e-09 -2.32184e-09 -0.000109761)
(9.24753e-09 1.77424e-08 -0.000109996)
(-1.06308e-08 -2.34112e-08 -0.000103594)
(-3.69846e-09 -1.40974e-08 -0.000103387)
(-4.2685e-10 1.36944e-09 -0.000103288)
(-4.62044e-09 7.29438e-09 -0.000103503)
(-1.80922e-09 -7.19284e-09 -0.000103338)
(-7.11309e-09 -1.6698e-08 -0.000103556)
(8.10971e-09 1.68014e-08 -0.000103574)
(2.79654e-09 1.0902e-08 -0.000103353)
(1.39154e-08 -3.12596e-08 -0.000103565)
(9.20384e-09 -2.62889e-08 -0.000103341)
(-7.80631e-10 6.30961e-10 -0.000103296)
(6.0973e-09 1.36917e-08 -0.000103515)
(4.60634e-09 -1.47081e-08 -0.000103294)
(1.24994e-08 -2.81547e-08 -0.000103507)
(-3.8413e-09 7.71188e-10 -0.000109856)
(2.96641e-08 1.4255e-08 -0.00010975)
(-3.80351e-09 -6.51186e-09 -0.000109797)
(-8.53854e-09 -1.64286e-08 -0.000110028)
(2.81151e-08 1.36403e-08 -0.000109705)
(-4.2956e-09 1.1331e-10 -0.000109806)
(-2.90855e-09 3.50464e-09 -0.000103348)
(3.33285e-08 9.28668e-09 -0.000103292)
(4.2237e-09 2.80175e-09 -0.00010336)
(-2.91521e-08 7.30932e-09 -0.000103307)
(3.31123e-08 9.92173e-09 -0.000103238)
(1.32859e-09 5.1264e-09 -0.000103287)
(-2.40268e-08 6.13671e-09 -0.000103256)
(4.18328e-09 2.50484e-09 -0.000103304)
(1.65765e-08 -2.9219e-08 -0.00011)
(1.23148e-08 -2.12142e-08 -0.000109762)
(4.55152e-09 -1.29012e-10 -0.00010985)
(-2.77495e-08 1.30648e-08 -0.000109744)
(5.92793e-09 -9.84371e-09 -0.000109722)
(1.35654e-08 -2.44198e-08 -0.00010995)
(-1.86292e-08 8.56211e-09 -0.000109696)
(9.84755e-09 -2.47227e-09 -0.000109797)
(-1.15941e-08 3.21094e-09 -0.00010978)
(2.01452e-08 -9.81539e-09 -0.00010968)
(-4.19363e-09 7.08821e-09 -0.000109933)
(-3.58448e-09 6.00595e-09 -0.000109704)
(2.1439e-08 -9.62707e-09 -0.000109677)
(-1.38452e-08 3.78334e-09 -0.000109746)
(-1.3406e-09 2.14377e-09 -0.000109691)
(-5.8839e-09 1.14959e-08 -0.0001099)
(2.25404e-08 4.4739e-09 -0.000103294)
(-8.87047e-09 5.02918e-10 -0.00010325)
(2.68314e-08 -7.42335e-09 -0.000103196)
(-2.53639e-10 -5.48739e-09 -0.000103212)
(-2.81784e-08 -7.35375e-09 -0.000103228)
(1.60816e-08 2.68349e-09 -0.000103263)
(1.65803e-09 4.38004e-09 -0.000109946)
(3.39255e-09 4.20057e-09 -0.000109714)
(-2.21849e-08 -1.01146e-08 -0.000109706)
(1.96698e-08 8.77451e-09 -0.000109801)
(6.83033e-09 1.00932e-08 -0.000109661)
(6.28587e-09 1.04535e-08 -0.000109888)
(-5.62672e-09 -1.07177e-08 -0.000103507)
(-2.61545e-09 -8.11312e-09 -0.000103298)
(1.03895e-09 1.20273e-09 -0.000103228)
(-4.35539e-09 7.75064e-09 -0.00010342)
(-7.15734e-11 -1.08301e-09 -0.000103276)
(-6.8261e-09 -1.26682e-08 -0.000103473)
(2.21512e-09 3.28823e-09 -0.000103461)
(1.90592e-09 6.90856e-09 -0.000103245)
(7.80398e-09 -1.6451e-08 -0.000103461)
(5.65807e-10 -4.04254e-09 -0.000103248)
(3.71331e-09 9.96174e-09 -0.000103184)
(6.40015e-09 1.16895e-08 -0.000103402)
(1.96407e-10 -1.84493e-09 -0.000103208)
(3.86625e-09 -6.72242e-09 -0.000103419)
(-7.001e-09 -7.81357e-10 -0.000109762)
(2.36177e-08 1.15437e-08 -0.000109669)
(1.51536e-09 4.51335e-09 -0.000109744)
(-4.30918e-09 -6.8231e-09 -0.000109958)
(2.40831e-08 1.16448e-08 -0.000109634)
(-1.05677e-08 -2.4405e-09 -0.000109728)
(-9.80688e-10 4.25457e-09 -0.000103238)
(2.50417e-08 6.90172e-09 -0.000103198)
(1.02002e-08 6.71311e-10 -0.000103258)
(-1.64077e-08 2.62152e-09 -0.00010322)
(2.11176e-08 5.0095e-09 -0.000103163)
(-9.51336e-09 1.17916e-09 -0.000103201)
(-1.13035e-08 1.40788e-09 -0.000103188)
(1.83763e-08 -3.10709e-09 -0.000103228)
(7.42713e-09 -1.37761e-08 -0.00010991)
(1.73002e-09 -2.20628e-09 -0.000109679)
(1.57423e-08 -5.84512e-09 -0.000109753)
(-1.53289e-08 6.35254e-09 -0.000109661)
(2.14971e-09 -2.89884e-09 -0.000109645)
(3.92768e-09 -7.38799e-09 -0.00010987)
(-8.61936e-09 3.39019e-09 -0.000109632)
(2.02075e-08 -8.83805e-09 -0.000109724)
(-1.08526e-08 3.60564e-09 -0.000109748)
(2.44213e-08 -1.09906e-08 -0.000109683)
(-2.24755e-09 5.68482e-09 -0.00010989)
(1.16516e-09 -3.255e-09 -0.000109678)
(1.87403e-08 -7.98701e-09 -0.00010969)
(-9.9174e-09 3.2885e-09 -0.000109755)
(1.69248e-10 4.15571e-10 -0.00010968)
(-1.67697e-09 2.8179e-09 -0.00010988)
(2.13158e-09 -3.31719e-09 -0.000103235)
(-2.98918e-08 -8.50647e-09 -0.00010321)
(1.85735e-08 -3.07324e-09 -0.000103197)
(-7.62497e-09 -4.93641e-10 -0.000103212)
(-2.39989e-08 -5.25972e-09 -0.000103221)
(2.46182e-09 -3.082e-09 -0.000103228)
(1.05876e-08 1.88987e-08 -0.000109847)
(1.10241e-08 1.8482e-08 -0.000109623)
(-2.25124e-08 -1.00204e-08 -0.0001097)
(1.36633e-08 5.13063e-09 -0.00010976)
(1.07517e-08 1.86227e-08 -0.000109604)
(1.50858e-08 2.75325e-08 -0.000109814)
(-2.21636e-09 -2.58214e-09 -0.000103455)
(3.24623e-09 6.34021e-09 -0.000103267)
(1.38086e-09 3.86074e-10 -0.000103207)
(-3.25776e-09 5.65497e-09 -0.000103388)
(1.44821e-09 9.80467e-10 -0.000103272)
(-7.11546e-10 3.52535e-10 -0.000103452)
(7.80232e-09 1.57165e-08 -0.000103346)
(5.25439e-09 1.453e-08 -0.000103132)
(3.73157e-09 -6.3869e-09 -0.000103379)
(6.28883e-10 -3.93623e-09 -0.00010317)
(5.27019e-09 1.46391e-08 -0.000103096)
(9.72091e-09 2.09853e-08 -0.0001033)
(3.25271e-09 -1.03886e-08 -0.000103143)
(5.45726e-09 -1.10806e-08 -0.000103343)
(-9.64955e-09 -2.97711e-09 -0.000109695)
(2.20157e-08 9.86706e-09 -0.000109612)
(3.13331e-09 6.28357e-09 -0.000109746)
(2.81111e-09 4.19101e-09 -0.000109947)
(2.33643e-08 1.04313e-08 -0.000109597)
(-1.20221e-08 -4.89118e-09 -0.000109678)
(-1.20799e-08 -7.655e-10 -0.000103167)
(1.77521e-08 2.7712e-09 -0.000103139)
(2.03388e-08 -3.11461e-09 -0.000103192)
(-1.72773e-08 3.12026e-09 -0.000103172)
(1.783e-08 2.29246e-09 -0.000103122)
(-1.47946e-08 -2.07155e-09 -0.000103147)
(-1.91164e-08 3.9634e-09 -0.00010317)
(1.35134e-08 -1.62556e-09 -0.000103187)
(5.1141e-09 -9.94591e-09 -0.000109836)
(4.82278e-09 -8.03562e-09 -0.000109614)
(2.61431e-08 -1.13783e-08 -0.000109693)
(-1.25138e-08 5.09559e-09 -0.000109614)
(7.00903e-09 -1.14577e-08 -0.000109594)
(7.99151e-09 -1.55445e-08 -0.000109809)
(-1.37155e-08 5.44914e-09 -0.000109614)
(2.0233e-08 -8.49298e-09 -0.000109683)
(-1.62821e-08 7.95179e-09 -0.000109764)
(1.33859e-08 -4.90996e-09 -0.000109704)
(-2.21605e-09 6.11602e-09 -0.000109884)
(1.20413e-09 -1.45863e-09 -0.000109688)
(1.50089e-08 -6.27698e-09 -0.000109716)
(-2.01947e-08 9.30206e-09 -0.000109778)
(8.4511e-10 -3.80096e-09 -0.000109689)
(-1.56884e-09 3.75426e-09 -0.000109891)
(9.91108e-09 7.08755e-10 -0.000103235)
(-1.22507e-08 -1.05031e-09 -0.00010322)
(1.57583e-08 -2.86029e-09 -0.000103218)
(-1.50497e-08 1.96816e-09 -0.000103223)
(-1.58671e-08 -2.92714e-09 -0.000103232)
(1.70167e-08 2.88797e-09 -0.000103243)
(1.45277e-08 2.81637e-08 -0.000109803)
(1.42336e-08 2.45001e-08 -0.000109605)
(-1.13127e-08 -4.82207e-09 -0.00010972)
(2.4919e-08 1.12526e-08 -0.000109789)
(6.7706e-09 1.09867e-08 -0.000109607)
(1.3714e-08 2.59724e-08 -0.000109795)
(-1.76622e-09 -2.95003e-09 -0.000103455)
(3.44212e-09 5.22788e-09 -0.000103281)
(-3.69924e-10 1.3854e-09 -0.000103208)
(-2.54339e-09 5.68033e-09 -0.000103392)
(4.03643e-09 7.29497e-09 -0.000103299)
(2.55043e-10 7.98764e-10 -0.000103471)
(7.56853e-09 1.7794e-08 -0.000103271)
(4.73242e-09 1.46457e-08 -0.000103085)
(7.30012e-09 -1.51548e-08 -0.000103317)
(4.56335e-09 -1.31815e-08 -0.000103122)
(2.37429e-09 7.78847e-09 -0.000103081)
(7.22171e-09 1.61564e-08 -0.000103257)
(4.47853e-09 -1.17416e-08 -0.000103113)
(8.63537e-09 -1.80116e-08 -0.000103301)