/*--------------------------------*- C++ -*----------------------------------*\
| =========                 |                                                 |
| \\      /  F ield         | OpenFOAM: The Open Source CFD Toolbox           |
|  \\    /   O peration     | Version:  2206                                  |
|   \\  /    A nd           | Website:  www.openfoam.com                      |
|    \\/     M anipulation  |                                                 |
\*---------------------------------------------------------------------------*/
FoamFile
{
    version     2.0;
    format      ascii;
    arch        "LSB;label=32;scalar=64";
    class       volScalarField;
    location    "70";
    object      omega;
}
// * * * * * * * * * * * * * * * * * * * * * * * * * * * * * * * * * * * * * //

dimensions      [0 0 -1 0 0 0 0];

internalField   nonuniform List<scalar> 
66940
(
17.7773
23.1536
22.7956
25.45
17.7989
23.2392
22.8812
25.7549
17.7755
23.2874
22.8853
25.745
17.791
23.347
22.9875
25.6327
17.7519
23.4342
23.0656
25.6848
17.7131
23.4147
23.0106
25.8589
17.6905
23.3499
22.9973
25.8346
17.7048
23.4324
22.9318
25.852
17.7097
23.3871
22.9372
25.7855
17.6951
23.3026
22.9724
25.6747
17.7406
23.3594
23.0999
25.8217
19.4956
24.018
23.8159
29.7266
25.377
22.9563
22.7899
25.2081
23.1391
23.0374
22.9688
22.8972
25.229
22.2055
22.862
24.8997
24.5281
25.5123
22.2694
22.5782
23.0403
22.9091
24.4377
25.1708
22.8128
22.7176
23.3222
23.3294
22.5297
22.8265
23.2422
24.9388
25.2565
22.1823
22.7381
23.0118
25.1882
24.5935
25.4285
22.3513
22.5354
23.0383
23.0054
24.7469
25.2474
22.9013
22.6234
23.3189
23.3426
22.6558
23.1187
23.4498
24.8024
25.3341
22.7784
22.7281
22.9741
25.1957
24.51
25.5448
22.6908
22.7601
23.0854
23.041
24.4704
25.4584
22.9381
22.4443
23.3697
23.4656
22.5788
23.1765
23.6146
24.959
25.4592
22.6087
22.7786
22.9913
25.48
25.0732
25.4705
22.3963
22.6666
23.2083
23.0776
25.0889
25.491
22.9387
23.1507
23.394
23.4137
23.3636
22.8905
23.5423
25.0386
25.4638
22.2799
22.5081
23.1401
25.0922
25.1545
25.4508
22.9248
22.3982
23.0726
23.073
25.0794
25.3794
22.6871
22.8852
23.5007
23.3334
23.3045
22.8762
23.5071
25.0788
25.4894
22.3948
22.4788
23.1117
25.3087
24.8001
25.4334
22.8177
22.7412
23.1009
23.0756
24.6633
25.4474
22.7103
22.7595
23.5461
23.4252
23.1182
23.2002
23.4635
25.0545
25.3394
22.8487
22.6009
23.087
25.2676
24.5777
25.4798
22.9063
22.7328
23.0284
23.0246
24.6357
25.4113
23.226
22.4623
23.3537
23.4472
23.0442
22.8536
23.4367
24.716
25.3062
22.7684
22.7761
23.1027
25.7192
24.8754
25.4105
22.2855
22.6906
23.1509
23.0639
24.9598
25.4953
23.003
23.1138
23.3553
23.3593
22.9511
23.164
23.4076
24.8453
25.2731
22.6215
22.7513
23.0594
25.684
24.8773
25.4995
22.845
22.3653
23.0969
23.1206
25.1961
25.4244
22.8876
22.781
23.355
23.3767
23.0397
22.9578
23.555
24.8277
25.5066
22.5411
22.7882
23.0068
25.5036
25.1506
25.2835
22.244
22.5767
23.2128
23.0754
24.8024
25.3036
23.0156
22.8022
23.3651
23.4265
22.9919
23.3926
23.4364
25.1344
25.044
22.6281
23.0274
23.0179
25.1415
24.6217
26.965
23.0488
22.4718
23.1552
23.1401
24.799
26.3484
22.9631
22.6207
23.1797
22.9703
22.8492
22.9756
23.2457
24.6594
27.18
22.4769
22.9301
23.1422
27.1582
28.6609
23.5801
23.6472
29.3476
23.5662
23.4604
19.8403
19.6189
19.3846
23.6721
28.6809
23.5469
411.509
17.7604
17.6942
17.7003
17.6769
46.0114
23.0665
110.69
20.0535
25.3311
183.001
180.755
118.185
296.089
117.127
295.401
409.731
409.807
124.007
298.459
123.25
298.328
17.6947
17.7081
17.6729
17.8049
17.7542
17.7335
17.7449
46.6593
113.327
20.0404
22.7945
46.3636
112.892
19.7737
411.183
412.111
44.4139
19.8166
108.876
22.5622
43.9397
19.7662
108.923
184.628
181.948
25.4582
183.857
181.599
119.07
296.077
118.915
296.06
410.012
409.76
124.621
299.076
125.788
298.47
17.7601
17.7143
17.7481
17.8051
17.7971
17.7654
17.7927
46.4156
113.979
20.0947
22.6966
46.8767
113.203
19.948
411.305
411.441
44.6276
19.8323
109.5
22.3215
44.8464
19.5999
109.515
185.086
182.147
25.6166
184.389
181.777
119.351
296.053
120.374
296.02
409.627
410.107
124.734
298.895
125.866
298.387
17.8022
17.7498
17.7879
17.7847
17.8121
17.7689
17.7893
46.6939
113.287
20.1401
22.8272
47.4762
113.115
20.05
411.467
411.623
44.3688
19.8533
109.724
22.1829
44.6777
19.7661
109.735
184.653
182.644
25.7131
184.609
181.719
118.564
296.66
119.889
296.002
410.361
409.918
123.717
298.713
124.284
298.514
17.7905
17.7542
17.8126
17.7849
17.7477
17.7493
17.7803
47.2567
113.303
20.1758
22.4867
46.9721
113.052
19.9333
411.309
411.419
44.4643
19.8387
110.904
22.6605
45.2524
19.7848
110.398
184.625
182.729
25.5843
184.356
181.977
118.798
296.748
119.212
296.011
409.932
410.209
124.472
298.501
125.22
298.564
17.7295
17.7327
17.749
17.7485
17.7441
17.726
17.7717
46.8446
113.415
20.1432
22.5638
47.3465
112.8
19.8948
411.342
411.794
44.6599
19.8318
110.327
22.8862
45.145
19.5476
110.208
184.411
181.582
25.6892
184.55
181.45
119.275
296.519
119.244
296.199
409.816
409.945
124.147
299.145
126.13
298.785
17.701
17.7089
17.7565
17.7373
17.6917
17.7246
17.6997
47.5718
113.392
20.109
23.0468
47.587
112.843
19.7734
411.28
412.388
44.7554
19.8712
111.397
22.3429
45.278
19.7724
110.352
185.025
182.707
25.6517
184.326
181.751
119.318
296.776
119.169
296.009
409.922
409.892
123.982
299.165
125.572
298.786
17.711
17.6556
17.709
17.7118
17.64
17.6173
17.6631
47.2429
112.774
20.127
22.4316
47.4555
112.778
19.7946
411.403
411.349
44.7729
19.6005
109.954
22.4461
45.2201
19.7102
109.81
185.162
182.341
25.7749
184.433
182.293
119.074
296.578
118.951
296.274
410.007
411.07
123.438
299.069
125.411
298.594
17.6811
17.6562
17.6981
17.7041
17.6351
17.6422
17.6376
47.037
113.63
20.1348
22.6406
47.1392
113.024
20.0263
411.354
411.398
44.8042
19.7736
110.576
22.4397
44.5348
19.563
109.41
184.881
182.591
25.6743
184.321
182.244
118.399
296.538
119.642
295.719
409.557
410.262
124.178
298.88
125.272
298.293
17.667
17.5993
17.6893
17.6978
17.6625
17.6189
17.6998
47.3202
112.77
20.0956
22.9633
47.3517
112.697
19.8979
411.363
411.661
44.5321
19.7757
111.229
22.4982
44.6814
19.6184
110.59
184.558
182.877
25.6535
184.502
181.652
118.863
296.679
120.057
295.023
409.479
409.61
123.439
299.106
124.606
296.737
17.6483
17.6188
17.6765
17.6946
17.64
17.6155
17.6654
47.1062
113.009
20.101
22.9895
47.7278
112.425
19.9964
411.211
410.37
44.53
19.7572
111.607
22.2671
44.7197
19.7197
110.485
185.603
182.982
25.6431
184.767
182.141
123.889
296.675
120.883
293.011
408.307
402.685
123.635
298.053
123.145
293.443
17.674
17.6526
17.6821
19.1044
19.0919
19.0418
19.1687
48.171
111.561
20.1407
23.0455
46.5999
111.699
19.9795
409.159
402.549
46.1411
19.6303
111.575
22.9148
45.4863
19.9239
113.018
185.368
182.971
25.6442
183.606
182.14
116.297
1679.6
178.96
371.114
1567.23
528.458
116.847
1679.6
179.506
372.056
18.9443
18.3665
18.3674
20.061
17.8466
19.5725
19.9941
50.0318
274.149
21.106
23.0302
57.4498
213.392
21.3567
1567.02
528.637
49.9094
21.0785
273.9
22.9745
57.6508
21.7626
213.186
340.763
344.831
25.9179
326.696
325.955
409.49
411.628
412.296
411.736
25.4209
180.241
183.479
181.922
183.091
296.808
22.3788
107.786
119.867
293.973
296.197
115.083
118.444
295.902
295.06
116.266
41.206
22.4103
108.064
19.7431
108.725
19.5492
43.5748
43.6465
22.1542
109.467
19.7013
108.526
19.6553
43.2895
25.1946
182.106
181.374
411.35
409.484
411.36
24.8075
181.216
182.207
173.588
177.874
410.771
411.063
123.983
297.649
298.558
119.069
46.1244
22.9275
111.861
19.7468
111.696
19.8162
46.6621
121.976
297.97
298.344
123.222
46.0961
22.8129
19.9509
112.145
19.9
112.292
46.7217
121.485
297.118
45.7148
22.8832
19.9056
111.074
120.456
297.403
44.1506
22.3941
108.064
19.8248
105.216
19.9702
45.929
118.579
297.502
295.08
121.842
43.7794
22.6485
19.8635
112.61
19.7574
101.689
46.0586
115.086
297.942
295.51
121.523
412.246
411.684
25.2824
183.216
180.682
184.436
181.329
409.993
411.171
43.6755
22.2866
19.6106
107.081
19.6505
109.253
41.6954
44.1294
22.2901
19.7516
108.536
19.5627
110.358
43.8434
119.963
295.138
294.406
118.236
120.64
295.421
293.754
118.719
410.747
410.635
24.8431
184.113
177.148
176.439
174.154
411.052
412.565
409.072
410.868
410.612
410.311
411.721
412.383
173.024
181.191
25.4114
180.123
183.117
409.717
410.743
412.126
411.616
24.5017
181.116
183.123
175.384
180.769
117.158
293.739
111.343
295.7
43.6605
105.9
19.7288
22.9163
42.5724
108.457
19.7669
43.4383
102.805
19.5996
22.731
42.72
109.01
19.6117
116.076
295.35
291.903
112.615
112.166
296.125
292.775
118.163
42.9414
22.4842
108.662
19.8332
106.38
19.7839
43.9828
40.195
22.7303
108.936
19.8293
102.496
19.7486
44.5435
178.318
175.854
25.1844
180.494
182.957
412.236
411.315
409.894
410.274
24.586
180.841
182.261
178.213
177.908
410.94
412.082
47.0583
109.578
19.9551
22.6498
44.8519
111.75
19.8593
122.885
295.751
117.97
297.783
46.803
19.8325
109.522
22.5326
44.7587
19.9093
110.962
120.356
297.161
297.058
120.398
43.4473
23.0851
112.637
20.1376
103.652
20.0757
47.3735
119.525
298.002
295.919
123.037
45.3119
23.19
20.03
112.161
19.9547
107.093
46.8502
123.343
295.292
113.096
297.646
46.5302
19.7878
108.725
22.2574
44.4602
19.8581
112.111
121.92
295.842
116.283
297.797
43.2969
22.7093
109.033
20.0204
109.23
20.0485
46.3366
119.823
297.839
295.729
122.364
42.7572
23.0882
19.9838
111.562
19.906
105.902
46.9884
116.636
298.076
296.407
122.096
177.585
177.883
25.1672
182.385
180.132
409.966
410.356
411.206
411.339
24.8663
182.501
181.276
177.829
173.923
409.605
409.983
43.9388
19.7148
104.09
22.8324
41.6149
19.6711
108.499
118.179
293
112.145
295.395
118.698
292.24
108.384
295.752
43.2815
22.6749
19.7899
108.112
19.7789
100.679
42.7509
42.2267
22.4733
19.8575
109.325
19.6574
100.312
44.171
114.349
295.459
293.537
118.872
115.716
295.705
292.207
118.192
412.045
411.492
410.979
409.845
24.8034
184.58
177.239
176.937
178.903
411.246
412.345
409.125
410.84
409.965
410.756
412.208
412.276
173.201
180.736
25.3524
181.558
182.852
409.68
409.864
412.53
411.299
24.8948
181.213
183.45
173.178
175.241
117.932
294.916
114.211
295.939
44.1418
100.962
19.5822
23.0143
43.2234
110.217
19.833
44.3537
104.986
19.5611
22.4387
43.5954
109.555
19.8005
110.849
295.265
294.29
118.396
109.742
295.711
294.371
119.484
41.1842
22.7983
109.04
19.8773
107.627
19.8558
44.8693
43.5668
22.6482
109.049
19.8791
106.309
19.6974
44.516
178.69
178.307
25.2113
180.728
182.91
411.864
411.862
409.675
410.916
24.8176
180.686
182.532
178.435
179.483
410.885
412.435
47.2894
109.583
19.9757
23.0839
45.9637
111.776
19.8297
123.442
296.065
120.718
298.36
47.4576
19.9179
106.76
22.3661
43.6604
20.0057
111.865
120.509
298.704
295.918
120.537
46.0491
23.1317
112.369
20.1582
103.55
20.098
47.0358
121.034
298.119
296.28
123.802
46.1953
23.1946
20.0957
111.744
20.0388
107.898
47.2375
122.754
295.106
119.524
298.049
46.4073
19.8602
105.46
22.4517
45.0634
19.7774
112.41
123.056
296.989
112.168
298.039
43.1863
22.5415
112.084
19.9147
107.766
19.9266
47.4106
120.072
298.269
296.703
122.765
43.9583
23.2887
20.1278
112.788
20.0761
107.778
46.6327
113.723
298.461
296.813
123.848
177.961
177.312
25.2854
182.977
180.334
410.905
410.319
411.203
411.624
24.9825
183.063
180.098
175.777
175.389
409.397
411.066
44.2276
19.6989
106.352
22.4474
42.5422
19.5629
108.885
118.685
294.015
115.423
296.119
118.779
294.563
109.756
295.725
41.2538
22.1983
19.674
108.372
19.7989
100.831
44.1806
43.1784
22.7156
19.8594
109.044
19.8289
106.659
44.3586
113.705
295.558
294.427
117.834
109.375
295.87
292.226
119.029
412.308
411.801
410.658
410.145
24.9621
183.398
182.072
182.156
174.873
411.245
412.726
409.864
410.909
410.012
410.491
411.272
411.498
177.732
175.111
25.5457
180.571
183.765
409.72
411.038
411.299
411.559
24.6348
180.615
182.871
176.465
179.893
119.084
294.321
109.901
295.615
44.3899
104.982
19.5753
22.5622
43.7056
109.008
19.828
44.4407
106.763
19.8052
22.482
43.6823
109.025
19.832
116.281
296.517
293.269
114.254
112.698
296.071
292.384
118.934
41.4116
22.7054
108.858
19.8685
103.836
19.8551
44.831
43.8162
22.811
109.75
19.8321
100.958
19.836
44.771
173.397
179.46
25.4062
181.687
180.894
411.776
411.548
409.813
410.762
24.5364
181.518
183.167
173.712
179.191
411.037
412.376
47.3247
103.305
19.9225
23.1214
45.8513
112.941
19.7997
123.585
296.93
120.268
298.276
47.3655
19.9528
108.05
23.1547
46.4794
19.934
109.152
120.648
298.007
295.638
123.298
44.6087
23.2327
112.036
20.1721
108.999
20.1235
47.2991
117.113
298.306
296.801
123.893
46.325
22.862
20.1561
113.068
19.9179
111.497
47.3027
123.809
295.781
113.756
298.371
46.8686
19.982
109.366
23.3093
45.0328
19.9459
112.831
123.627
296.551
114.121
298.618
43.3928
23.0673
112.452
20.1248
106.76
20.1037
46.3269
120.214
298.28
296.674
122.921
44.146
23.0289
20.164
112.817
20.0013
110.63
47.1367
114.289
298.529
295.346
122.672
180.497
175.47
25.2949
183.624
179.868
410.9
409.612
411.197
411.557
24.3712
182.789
180.529
180.174
174.484
409.607
411.058
44.5297
19.6947
101.298
22.8017
43.4111
19.6737
109.228
118.227
293.278
115.018
295.627
118.967
292.974
109.57
295.754
41.3493
22.8537
19.6369
105.715
19.6966
101.124
45.1241
42.4142
22.8254
19.8609
110.608
19.6626
102.234
44.4496
115.235
295.569
293.306
118.354
115.946
296.186
294.91
118.054
413.059
412.388
410.776
410.048
24.589
183.508
182.219
182.307
174.724
411.213
413.096
409.753
410.911
410.169
409.667
412.449
412.243
178.342
177.805
25.4063
180.519
182.935
409.855
410.14
412.312
412.618
25.082
180.603
183.014
177.998
178.428
118.454
294.452
114.004
295.885
44.3492
103.886
19.7502
23.0362
43.3314
108.887
19.8122
44.5055
106.47
19.7145
22.8458
43.1481
109.035
19.7531
112.35
296.456
293.543
118.166
108.6
295.839
292.839
119.12
41.7997
22.6874
108.814
19.8762
103.985
19.8397
44.3797
40.8123
22.9009
109.348
19.8364
106.839
19.8106
44.7592
173.477
178.242
25.4321
181.823
183.054
412.636
411.48
409.741
410.36
24.5525
180.832
183.381
179.118
175.988
411.209
412.196
47.042
108.062
19.9164
23.131
44.3187
112.702
19.8074
124.181
296.698
113.443
298.319
47.5202
20.0659
106.803
23.2725
46.5322
19.9365
112.626
117.938
297.67
295.727
124.404
43.4595
23.2021
113.102
20.1745
104.247
20.1354
47.8888
120.528
297.985
295.379
123.878
46.2323
23.2584
20.0689
111.724
20.2163
107.225
47.6474
123.52
295.953
115.305
297.948
47.0564
20.0696
104.401
23.0657
44.9691
19.9522
113.527
124.427
297.268
115.555
298.147
45.7306
23.1874
112.676
20.0977
109.825
19.8877
46.6764
118.586
298.034
296.095
122.946
44.7444
22.9391
20.1917
112.323
20.2226
110.467
47.1175
114.338
298.07
296.733
124.273
177.491
174.267
25.2947
182.377
181.446
411.28
410.574
411.233
411.89
24.5714
182.507
180.635
177.836
178.945
409.522
411.425
44.2356
19.7782
106.606
22.9527
42.0625
19.8265
109.935
117.727
293.772
112.333
295.615
118.518
293.382
109.805
295.705
42.657
22.5583
19.8066
109.125
19.8063
105.071
44.7742
41.8518
22.6151
19.7562
108.933
19.7852
103.435
44.5528
110.005
295.844
294.102
118.355
113.792
295.872
294.34
118.859
412.949
411.582
411.174
409.993
24.8602
183.217
180.665
182.068
179.763
410.876
413.095
409.565
411.083
410.824
410.431
411.479
412.601
173.232
176.419
25.441
181.496
184.238
410.345
409.811
412.241
411.562
25.0269
181.21
183.202
173.384
178.841
118.875
293.899
109.675
295.984
44.2319
103.789
19.7396
22.6175
42.5208
108.949
19.6705
44.4505
106.09
19.7335
23.0572
43.7979
109.234
19.7981
115.997
294.631
294.308
113.116
115.573
295.545
293.216
117.927
41.1948
22.7096
108.632
19.8462
103.332
19.6323
44.767
41.4426
22.7692
109.088
19.8626
105.083
19.8295
44.9586
178.795
178.341
25.3478
181.076
182.878
412.679
411.186
409.668
410.783
25.0249
181.487
182.251
174.017
176.66
410.739
411.908
47.8507
110.099
19.7895
23.3655
44.0873
112.404
20.0881
123.714
296.294
119.025
298.361
47.4808
19.912
108.956
23.1287
45.8886
20.1311
112.17
116.409
298.796
295.902
125.697
46.4088
22.941
112.919
20.1967
110.575
19.9657
47.5374
121.288
298.04
296.642
124.151
44.9004
23.1494
20.1551
111.887
20.1568
109.669
47.5782
123.101
295.966
118.551
297.786
47.0518
20.0788
104.485
22.9311
45.3205
19.9738
114.238
123.312
295.467
115.699
298.276
44.8676
23.2058
108.132
20.0537
109.977
19.8446
45.316
115.041
297.993
294.55
123.872
44.5655
23.2939
20.1748
113.875
20.0864
107.062
47.2789
118.059
298.246
296.645
123.15
177.425
173.922
25.3481
182.949
181.616
411.144
410.029
411.13
411.536
24.5166
183.255
180.39
173.828
176.355
410.195
410.673
44.3437
19.5611
103.425
23.0394
41.8678
19.8412
109.186
117.923
294.274
111.291
295.95
117.947
294.87
112.968
296.1
42.8601
22.6254
19.6875
106.421
19.7845
107.177
44.8684
42.1419
22.5694
19.8373
110.705
19.7265
106.132
44.7859
111.98
295.882
292.579
118.95
110.631
295.953
295.156
119.272
412.606
411.624
411.285
410.074
25.2201
180.772
182.224
182.177
175.142
410.947
412.61
409.632
410.92
410.818
410.829
412.934
412.581
173.931
179.181
25.4264
181.002
183.55
409.772
409.942
411.592
411.338
24.8857
180.864
183.655
176.828
174.959
119.161
293.123
109.625
295.569
44.4343
102.899
19.7662
22.6126
43.6939
109.317
19.6723
44.5501
101.427
19.572
22.5109
43.8701
109.111
19.8137
116.46
295.085
293.716
113.471
116.3
295.586
293.621
118.968
42.4087
22.5268
108.535
19.843
103.188
19.6271
44.5655
41.7657
22.8528
108.799
19.8446
103.955
19.8342
44.5889
177.963
177.243
25.4806
180.969
182.312
411.572
411.302
409.887
410.199
25.0432
180.559
183.232
176.026
174.064
411.196
412.094
47.5096
108.433
19.8678
23.3581
46.239
112.492
20.1464
123.065
295.145
116.889
297.923
47.0878
19.9271
104.569
22.4735
44.9855
19.8895
111.811
117.956
298.447
297.611
124.611
45.1204
23.0009
111.324
20.2155
109.292
20.0016
47.3975
118.804
298.051
296.908
124.314
45.5358
23.3042
20.2015
111.067
20.1638
105.532
47.5101
123.714
296.929
120.95
298.043
46.9178
20.0028
104.488
22.8271
44.6477
20.0711
113.686
123.336
296.895
119.135
297.565
46.0186
23.1464
111.514
19.9267
103.893
20.0491
45.1434
120.927
298.032
297.109
123.398
44.3349
23.2465
20.139
112.262
20.0812
110.541
47.1814
114.297
298.687
297.897
124.267
177.881
175.519
25.3642
183.639
180.385
410.763
410.601
412.053
412.457
24.8078
183.282
180.955
174.474
172.335
409.503
410.066
44.5655
19.7253
101.84
22.5319
42.4218
19.6311
110.453
118.924
293.074
113.942
296.23
119.29
294.754
115.57
295.784
41.3898
22.9549
19.8064
108.696
19.6362
101.227
44.9053
42.2362
22.8676
19.8793
109.506
19.8508
107.55
44.7975
113.831
295.607
294.564
118.16
114.114
296.11
294.852
118.287
412.851
411.639
410.632
410.088
25.2609
180.988
181.072
181.257
179.476
410.914
413.342
409.703
411.6
410.735
409.632
412.105
412.184
172.229
175.615
25.4791
181.101
184.201
410.749
409.95
412.213
412.897
25.1609
181.293
183.297
172.75
180.481
118.248
293.91
116.428
295.992
44.7994
102.967
19.7711
22.5687
40.9755
108.997
19.6774
45.0218
103.827
19.6997
22.4859
41.8106
108.637
19.7668
116.572
296.003
293.026
115.183
109.652
295.686
294.182
119.122
43.4031
22.722
109.246
19.832
104.269
19.6323
44.5659
41.5803
22.748
109.392
19.8401
101.165
19.8023
45.0395
175.47
176.17
25.3766
181.027
182.746
412.069
411.41
409.903
410.051
24.7462
180.953
182.409
175.696
177.503
411.046
412.154
47.5072
110.753
20.0633
22.8711
45.91
112.691
19.9789
124.657
296.273
120.711
298.254
46.6368
19.9804
105.543
23.1596
46.0265
20.0528
111.411
115.625
296.959
297.614
124.77
44.682
22.977
112.61
20.1594
108.779
19.9315
47.3605
117.366
298.125
296.743
124.44
44.1667
22.8702
20.1296
111.629
20.0673
105.936
45.7904
123.729
295.248
120.869
297.945
47.0091
19.9765
104.082
23.2287
44.9931
20.0538
113.419
123.893
296.671
114.472
298.168
45.0738
23.1497
108.38
19.9252
105.508
20.059
46.6808
121.094
298.078
296.716
123.059
44.774
23.2725
20.1328
112.568
20.0933
110.65
46.8833
120.519
297.948
296.206
122.852
180.505
172.671
25.3317
182.648
180.974
410.436
409.867
412.156
411.77
24.7136
183.05
181.024
177.85
172.738
409.601
410.404
44.7488
19.7064
104.138
22.582
40.8933
19.6374
109.669
118.012
293.44
112.564
295.367
118.112
294.298
113.927
295.922
41.5012
22.2844
19.7295
109.918
19.7079
101.514
42.2116
41.3219
22.5304
19.8164
108.977
19.6849
103.036
45.0614
111.967
295.807
292.002
118.485
109.78
295.719
293.619
119.462
412.086
411.673
411.497
409.965
25.2026
181.328
181.391
181.204
177.888
411.118
412.57
409.528
410.83
410.222
410.838
412.781
411.377
178.537
178.147
25.3562
180.737
183.194
410.558
410.053
411.465
411.959
24.8408
181.67
183.152
174.308
178.133
117.958
294.528
110.633
295.853
44.5599
107.117
19.7588
22.904
42.8579
109.456
19.6216
44.7921
104.42
19.7092
22.8508
41.5763
109.255
19.627
116.274
296.056
295.526
118.514
113.413
295.482
292.565
118.012
41.5964
22.6304
109.649
19.8407
107.376
19.7891
44.984
41.4577
22.9101
108.522
19.7921
105.177
19.6618
44.8517
176.318
177.184
25.5251
181.677
183.275
412.763
411.259
409.591
409.946
25.2113
180.616
182.447
175.684
176.88
410.938
412.172
46.1734
109.934
20.0578
23.1535
45.9375
113.514
20.1166
123.478
294.996
118.543
298.468
47.8251
19.9727
106.146
23.2033
47.0199
19.8941
111.516
117.021
298.013
295.365
119.876
45.0685
23.1927
112.26
20.1773
107.404
20.1435
47.5838
119.241
298.241
295.076
124.036
44.9371
23.2184
20.1469
112.476
20.0905
110.284
47.4211
122.873
295.399
116.242
298.158
46.8771
19.9632
106.647
23.1679
45.1964
19.8897
111.636
122.934
296.041
120.232
298.178
43.5763
23.3267
111.455
20.0556
103.755
20.0503
46.8424
115.103
297.994
296.883
123.889
43.7156
23.2422
20.0995
111.64
19.8681
106.525
47.1632
114.428
297.672
295.669
124.098
178.126
178.056
25.2855
183.604
180.087
410.416
409.814
411.166
411.798
24.7955
183.112
181.27
179.183
173.616
409.599
410.556
44.8461
19.7114
103.035
22.2095
41.4625
19.771
109.515
118.161
292.388
113.598
295.718
118.508
294.003
116.471
295.756
43.6012
22.6591
19.7238
106.007
19.5308
103.834
43.176
43.5561
22.9645
19.8244
110.249
19.7781
105.083
44.6665
115.335
295.695
292.408
118.376
116.202
295.943
293.263
118.742
412.945
411.494
411.383
410.108
24.8313
183.331
182.302
181.795
179.4
410.694
413.395
409.41
411.777
409.821
409.749
412.028
411.46
174.916
177.68
25.4022
181.011
183.752
410.059
410.318
411.238
412.051
25.0356
180.727
183.066
174.959
177.455
118.598
292.748
113.735
295.191
44.2257
106.408
19.6869
22.9491
43.6169
109.249
19.7267
44.7081
100.525
19.543
22.9926
41.4401
109.709
19.7966
113.845
294.033
292.967
114.485
112.831
295.285
293.415
118.333
41.0967
22.971
108.803
19.7886
104.157
19.7354
44.6218
43.4779
22.6023
109.653
19.829
100.423
19.6398
44.2445
172.049
177.273
25.5054
181.666
182.572
411.904
411.194
409.198
411.126
25.1121
180.944
182.688
179.253
178.03
410.237
411.96
47.2712
108.518
19.9885
23.1037
45.5561
112.516
19.9105
123.101
297.069
120.187
297.936
47.0075
19.9938
103.905
22.4381
45.4376
19.8772
113.208
120.024
298.119
295.834
118.866
45.5813
23.2157
113.101
20.1257
108.48
19.8869
47.0801
116.184
297.622
296.996
122.726
44.5028
23.2731
20.0879
112.316
19.9968
110.365
46.4098
123.184
296.202
117.692
297.653
47.0458
20.0317
106.275
22.7518
45.219
20.0729
111.712
122.853
295.414
116.97
297.711
44.9404
22.8175
112.029
20.0876
106.391
19.8321
47.3798
118.878
297.394
295.281
124.083
44.6762
23.4963
20.1342
111.794
20.0982
106.72
47.0931
118.962
297.573
295.481
124.08
177.861
173.89
25.359
183.936
180.735
410.563
409.658
410.871
411.474
24.5531
183.435
180.986
179.421
177.31
408.912
410.539
44.8366
19.6842
107.909
22.7513
43.7981
19.6417
109.252
119.055
294.457
116.066
295.763
118.827
293.565
116.525
295.61
42.2973
22.7016
19.8013
106.679
19.5938
107.069
43.8603
43.4851
22.8798
19.836
108.805
19.6947
106.5
44.8258
111.726
295.235
293.482
118.367
110.483
295.245
294.277
119.533
411.866
411.349
410.45
409.706
24.719
181.099
178.174
179.146
175.386
410.491
412.231
409.13
410.679
410.797
408.732
412.03
410.59
175.711
177.909
25.4252
180.683
183.665
406.44
409.72
408.539
411.513
25.0566
179.995
183.831
176.406
176.202
118.225
293.001
107.981
294.666
44.1187
100.127
19.656
22.9249
43.4495
109.818
19.6327
44.1744
106.728
19.7497
22.2142
43.3527
109.56
19.7816
114.959
293.562
292.673
113.683
109.726
292.076
293.884
118.376
41.0727
22.6008
108.905
19.8714
101.04
19.6307
45.0384
41.1817
22.9336
108.016
19.6061
105.123
19.6554
44.9249
174.774
178.172
25.3933
181.581
182.615
411.386
410.243
406.333
409.487
24.7835
180.048
181.831
176.63
178.122
407.549
411.487
46.618
111.534
20.0541
22.8292
45.7903
112.857
19.9297
121.535
295.095
115.203
296.312
46.5541
19.9588
105.229
22.6505
44.6284
19.8697
113.238
114.907
296.246
297.447
122.646
45.5335
22.8652
109.59
20.1333
108.48
19.9537
46.3442
117.169
294.312
296.132
120.477
45.5265
23.3807
20.0969
112.101
19.852
110.547
46.1179
123.055
296.022
120.973
296.752
47.112
19.9436
104.326
23.1842
43.0585
20.041
111.975
122.857
296.355
119.687
296.807
44.477
22.7475
110.514
20.1178
103.846
20.0348
45.0111
119.629
295.865
296.306
123.426
45.4991
23.2288
20.1573
111.001
20.1062
106.861
46.4703
119.333
295.848
295.827
121.774
181.054
172.75
25.3928
183.32
181.632
409.987
408.779
408.058
411.406
24.6438
182.27
180.71
178.64
174.115
406.295
409.945
44.4977
19.765
100.898
22.8151
42.9921
19.8074
110.122
118.012
293.84
111.648
294.428
118.468
292.764
115.528
293.898
41.4189
22.9085
19.6009
104.548
19.7519
105.443
44.6998
42.9517
22.831
19.5282
108.036
19.6873
107.302
45.5892
112.525
291.967
292.569
118.337
113.279
292.51
294.138
119.082
412.016
410.39
410.488
408.993
24.9417
180.26
179.363
178.318
179.407
407.792
411.636
406.482
410.334
408.907
402.589
410.166
402.831
175.614
181.222
25.6075
181.402
182.914
603.17
408.193
602.128
408.36
25.1667
198.695
202.679
181.362
181.012
122.533
296.772
114.891
293.721
47.2886
107.234
19.8982
22.6453
44.3982
111.353
20.0474
46.9267
105.923
19.5961
22.4428
44.5263
112.049
20.0264
121.944
967.911
291.618
137.58
119.228
967.861
292.34
126.053
47.1886
24.1953
249.827
22.2652
105.734
20.4701
50.4835
46.5405
24.1725
249.495
22.2591
111.423
20.4684
48.1288
176.587
177.722
25.417
181.6
181.404
409.543
402.274
602.536
408.132
25.2372
199.219
203.943
180.091
178.715
602.63
407.994
43.5478
110.347
20.029
22.5867
44.4919
112.857
19.9681
122.191
297.456
115.366
294.064
46.9535
20.0188
108.483
22.2313
44.7526
19.9487
111.746
122.691
967.91
292.11
137.965
43.4023
24.195
250.092
22.2355
111.014
20.0779
52.5693
118.088
968.054
291.961
127.603
46.7291
23.9349
22.1786
249.971
20.0327
108.359
48.3207
124.688
296.159
116.3
293.887
46.538
20.0165
106.881
22.5687
43.2042
19.9899
112.584
121.158
296.302
113.059
294.081
47.2098
23.6444
250.562
22.3465
107.553
20.0127
50.9422
123.573
968.081
292.5
125.781
44.4921
24.2168
22.2738
251.008
20.0816
111.384
48.3868
119.648
968.307
292.47
127.068
176.85
178.839
25.553
181.556
181.206
409.23
402.497
602.834
408.23
25.2474
201.98
201.333
181.714
178.249
602.942
408.093
47.0737
19.5994
100.86
22.4152
45.1956
19.9886
112.93
121.702
297.127
113.687
294.245
121.908
297.14
116.258
294.403
44.9976
23.6263
22.3192
250.076
19.9558
107.113
51.0573
45.8118
24.1511
22.3679
250.285
20.1175
110.853
50.5426
120.312
967.846
291.712
123.884
117.393
968.129
292.271
131.127
410.047
402.843
409.328
402.717
25.5829
208.2
196.184
182.222
182.116
601.721
408.499
603.477
408.54
1567.02
529.126
1568.18
528.798
339.369
339.601
25.8436
326.375
325.916
26.8149
291.036
290.664
116.57
1679.51
176.065
370.675
49.2052
271.006
20.9126
23.0194
55.7295
212.741
21.7154
49.7081
270.863
20.8008
23.0057
56.103
212.406
21.8281
40.8676
23.8076
196.398
21.9056
41.0371
23.4195
196.185
21.7848
339.877
339.1
25.7198
325.779
326.456
1567.95
528.83
26.9074
291.596
291.877
49.5038
271.948
20.8746
23.0106
59.3019
212.872
21.6143
116.826
1679.61
177.589
371.291
49.6855
20.7831
271.467
22.908
56.2526
21.6269
212.646
41.4329
23.8349
196.441
21.5772
40.9072
23.3485
21.7738
196.049
19.229
18.3968
18.3694
20.0942
17.8671
20.0358
19.9628
18.9286
18.2736
18.3183
19.9451
17.8082
19.4741
19.2629
19.2173
18.3459
18.3471
20.0913
17.8612
19.9664
19.1939
18.7771
21.5043
19.457
19.9927
18.9752
21.8991
20.0521
19.9974
18.7067
21.4085
19.3133
20.4667
18.9573
21.3957
19.9876
20.4619
115.896
1679.05
180.897
371.69
49.8564
20.8271
272.179
23.0524
56.5305
21.6376
213.731
115.915
1679.61
178.995
372.044
41.4714
23.757
196.883
21.4944
41.3525
23.436
21.6036
197.439
338.382
338.723
25.6945
326.311
326.297
1567.23
529.028
26.8463
291.355
292.417
50.2549
21.101
272.592
22.9626
56.4469
21.8331
212.982
117.215
1679.42
180.298
371.336
117.639
1679.42
174.913
371.392
41.0425
23.221
22.8019
197.146
41.4209
23.3568
21.9659
197.766
1568.08
529.651
1567.24
529.468
26.9879
293.083
292.978
495.29
494.515
103.258
351.726
103.524
350.702
494.432
494.833
102.916
351.646
103.311
350.668
105.748
351.23
105.563
351.781
494.514
494.902
103.222
351.326
103.733
351.569
495.428
495.487
411.984
413.757
413.453
235.204
307.535
71.8507
132.362
307.071
70.9093
131.838
329.736
111.34
306.547
136.576
306.025
130.087
328.561
426.304
190.536
294.561
426.835
182.46
329.259
112.163
306.95
136.904
329.277
304.741
133.183
428.152
189.965
293.355
188.602
426.195
409.973
410.432
333.339
117.435
141.484
310.612
134.273
309.086
332.847
428.875
194.585
296.238
429.506
187.495
333.021
119.718
141.022
310.756
332.847
135.453
309.202
430.72
194.517
296.21
193.307
428.619
412.104
411.131
236.204
413.484
413.392
414.44
414.171
232.794
133.136
72.7347
307.707
176.217
127.045
66.154
304.963
131.46
70.594
307.532
178.539
124.502
64.8983
305.753
236.021
414.799
413.756
232.335
414.381
413.682
130.44
308.417
182.48
72.5301
71.2719
308.199
131.336
122.805
307.393
176.469
70.8425
69.7781
305.954
130.362
330.16
112.912
307.028
137.195
305.506
130.856
329.368
427.492
192.182
292.983
427.529
185.075
329.419
115.607
307.564
137.683
329.415
306.075
134.233
428.637
191.281
295.457
190.386
426.465
410.178
410.82
333.655
118.424
141.944
310.894
135.244
309.679
333.03
429.818
195.991
295.92
430.324
187.711
333.024
121.83
142.71
311.497
332.869
137.423
310.517
429.71
194.763
298.025
193.513
429.135
411.743
412.406
235.698
413.841
413.92
414.283
414.301
232.243
133.742
73.3399
308.778
180.311
132.101
69.6981
307.276
131.633
71.0722
307.535
178.912
129.661
67.5051
305.179
234.831
414.019
414.028
235.199
414.393
414.317
124.29
308.623
179.255
73.3636
68.7009
307.192
132.891
125.357
307.806
176.865