/*--------------------------------*- C++ -*----------------------------------*\
| =========                 |                                                 |
| \\      /  F ield         | OpenFOAM: The Open Source CFD Toolbox           |
|  \\    /   O peration     | Version:  2206                                  |
|   \\  /    A nd           | Website:  www.openfoam.com                      |
|    \\/     M anipulation  |                                                 |
\*---------------------------------------------------------------------------*/
FoamFile
{
    version     2.0;
    format      ascii;
    arch        "LSB;label=32;scalar=64";
    class       volScalarField;
    location    "70";
    object      p;
}
// * * * * * * * * * * * * * * * * * * * * * * * * * * * * * * * * * * * * * //

dimensions      [0 2 -2 0 0 0 0];

internalField   nonuniform List<scalar> 
66940
(
-0.0175751
-0.0175752
-0.0175751
-0.0175632
-0.0177716
-0.0177716
-0.0177717
-0.0177596
-0.0179682
-0.0179682
-0.0179682
-0.0179561
-0.0181648
-0.0181647
-0.0181648
-0.0181525
-0.0183614
-0.0183613
-0.0183613
-0.0183488
-0.0185584
-0.018558
-0.018558
-0.0185451
-0.018756
-0.0187547
-0.0187548
-0.018741
-0.0189544
-0.0189508
-0.018951
-0.0189361
-0.0191531
-0.0191438
-0.0191442
-0.0191292
-0.0193416
-0.0193237
-0.0193245
-0.0193187
-0.0194043
-0.0194266
-0.0194273
-0.0194928
-0.018129
-0.018836
-0.0187864
-0.0193525
-0.0175379
-0.017526
-0.0175259
-0.0175379
-0.0175257
-0.0175257
-0.0175257
-0.0175257
-0.0175378
-0.017526
-0.017526
-0.0175379
-0.0175631
-0.0177344
-0.0175751
-0.0175752
-0.0177224
-0.0177224
-0.0175631
-0.0177344
-0.0175751
-0.017575
-0.0177224
-0.0177224
-0.0175752
-0.0177224
-0.0177224
-0.0175631
-0.0177344
-0.0175753
-0.0177224
-0.0177224
-0.0177344
-0.0177596
-0.017931
-0.0177717
-0.0177716
-0.017919
-0.017919
-0.0177596
-0.017931
-0.0177716
-0.0177716
-0.0179189
-0.0179189
-0.0177715
-0.0179189
-0.0179189
-0.0177596
-0.017931
-0.0177717
-0.0179189
-0.0179189
-0.017931
-0.0179561
-0.0181275
-0.0179682
-0.0179681
-0.0181155
-0.0181155
-0.017956
-0.0181275
-0.0179681
-0.0179681
-0.0181155
-0.0181154
-0.017968
-0.0181154
-0.0181155
-0.0179561
-0.0181275
-0.0179683
-0.0181155
-0.0181154
-0.0181275
-0.0181524
-0.0183241
-0.0181647
-0.0181647
-0.018312
-0.018312
-0.0181524
-0.0183241
-0.0181647
-0.0181647
-0.018312
-0.018312
-0.0181646
-0.018312
-0.018312
-0.0181525
-0.0183241
-0.0181648
-0.018312
-0.018312
-0.0183241
-0.0183488
-0.0185209
-0.0183612
-0.0183612
-0.0185087
-0.0185087
-0.0183488
-0.0185209
-0.0183612
-0.0183612
-0.0185087
-0.0185086
-0.0183612
-0.0185086
-0.0185087
-0.0183488
-0.0185209
-0.0183614
-0.0185086
-0.0185086
-0.0185208
-0.018545
-0.0187179
-0.018558
-0.018558
-0.0187057
-0.0187057
-0.018545
-0.0187179
-0.0185579
-0.018558
-0.0187057
-0.0187056
-0.0185579
-0.0187056
-0.0187056
-0.018545
-0.0187179
-0.018558
-0.0187055
-0.0187055
-0.0187179
-0.0187408
-0.0189153
-0.0187546
-0.0187547
-0.0189035
-0.0189034
-0.0187408
-0.0189153
-0.0187546
-0.0187547
-0.0189035
-0.0189034
-0.0187546
-0.0189034
-0.0189035
-0.018741
-0.0189153
-0.0187548
-0.0189033
-0.0189032
-0.0189152
-0.0189357
-0.0191133
-0.0189507
-0.0189508
-0.0191036
-0.0191035
-0.0189358
-0.0191132
-0.0189507
-0.0189508
-0.0191037
-0.0191036
-0.0189508
-0.0191036
-0.0191036
-0.0189361
-0.0191132
-0.018951
-0.0191032
-0.0191032
-0.0191132
-0.0191287
-0.0193124
-0.0191438
-0.019144
-0.0193106
-0.0193102
-0.019129
-0.0193123
-0.0191437
-0.0191438
-0.0193107
-0.0193106
-0.0191438
-0.0193107
-0.0193107
-0.0191291
-0.0193123
-0.0191442
-0.0193099
-0.0193099
-0.0193123
-0.0193182
-0.019503
-0.0193237
-0.0193241
-0.0195209
-0.0195202
-0.0193189
-0.0195027
-0.0193237
-0.0193239
-0.0195211
-0.0195212
-0.0193238
-0.0195215
-0.0195217
-0.0193186
-0.0195028
-0.0193245
-0.0195196
-0.0195196
-0.0195029
-0.0194921
-0.0194431
-0.0194254
-0.0194263
-0.0194456
-0.0194392
-0.0194941
-0.0194549
-0.0194273
-0.0194268
-0.0194396
-0.0194439
-0.0194269
-0.0194502
-0.0194431
-0.0194924
-0.019443
-0.019427
-0.0194418
-0.0194435
-0.0194436
-0.019352
-0.0187882
-0.0187792
-0.0193788
-0.0187876
-0.0187915
-0.0180886
-0.0181317
-0.0181302
-0.0187917
-0.0193519
-0.0187852
-0.0174396
-0.0175259
-0.0175257
-0.0175258
-0.0175257
-0.017439
-0.0174282
-0.0174392
-0.0174283
-0.0174396
-0.0174397
-0.0174395
-0.0176359
-0.017563
-0.0175632
-0.017636
-0.017563
-0.017636
-0.0176364
-0.0175629
-0.0175628
-0.0176362
-0.0175752
-0.017575
-0.0175752
-0.0177224
-0.0177224
-0.0177224
-0.0177224
-0.0176355
-0.0175636
-0.0175752
-0.0176241
-0.0175637
-0.0176357
-0.0176241
-0.017563
-0.0176362
-0.0176349
-0.0175752
-0.0175638
-0.017624
-0.0175642
-0.017624
-0.0176353
-0.0175629
-0.0175632
-0.0176362
-0.0176363
-0.0176358
-0.0178326
-0.0177597
-0.0177598
-0.0178326
-0.0177597
-0.0178326
-0.0178329
-0.0177594
-0.0177593
-0.0178327
-0.0177716
-0.0177716
-0.0177716
-0.0179189
-0.0179189
-0.0179189
-0.0179189
-0.017832
-0.0177601
-0.0177716
-0.0178206
-0.0177602
-0.0178321
-0.0178206
-0.0177595
-0.0178327
-0.0178316
-0.0177716
-0.0177604
-0.0178206
-0.0177607
-0.0178206
-0.0178319
-0.0177595
-0.0177598
-0.0178327
-0.0178326
-0.0178326
-0.0180291
-0.0179562
-0.0179562
-0.0180291
-0.0179562
-0.0180291
-0.0180294
-0.017956
-0.0179558
-0.0180292
-0.0179681
-0.0179681
-0.0179681
-0.0181154
-0.0181154
-0.0181154
-0.0181154
-0.0180285
-0.0179566
-0.017968
-0.0180171
-0.0179567
-0.0180287
-0.0180171
-0.017956
-0.0180292
-0.018028
-0.0179681
-0.0179569
-0.0180171
-0.0179572
-0.0180172
-0.0180284
-0.0179559
-0.0179563
-0.0180292
-0.0180293
-0.0180289
-0.0182256
-0.0181527
-0.0181528
-0.0182256
-0.0181527
-0.0182256
-0.0182259
-0.0181525
-0.0181523
-0.0182258
-0.0181647
-0.0181647
-0.0181647
-0.0183118
-0.0183119
-0.0183119
-0.0183119
-0.018225
-0.0181531
-0.0181645
-0.0182136
-0.0181532
-0.0182252
-0.0182137
-0.0181525
-0.0182257
-0.0182246
-0.0181646
-0.0181534
-0.0182137
-0.0181537
-0.0182137
-0.0182249
-0.0181525
-0.0181528
-0.0182258
-0.0182257
-0.0182256
-0.0184222
-0.0183492
-0.0183492
-0.0184222
-0.0183492
-0.0184222
-0.0184225
-0.018349
-0.0183489
-0.0184223
-0.0183614
-0.0183614
-0.0183614
-0.0185083
-0.0185083
-0.0185083
-0.0185083
-0.0184216
-0.0183497
-0.018361
-0.0184103
-0.0183497
-0.0184219
-0.0184105
-0.0183491
-0.0184223
-0.0184211
-0.0183611
-0.01835
-0.0184102
-0.0183502
-0.0184104
-0.0184216
-0.018349
-0.0183494
-0.0184224
-0.0184224
-0.018422
-0.018619
-0.0185459
-0.0185459
-0.018619
-0.0185459
-0.018619
-0.0186194
-0.0185458
-0.0185456
-0.0186191
-0.0185584
-0.0185584
-0.0185584
-0.0187046
-0.0187047
-0.0187046
-0.0187047
-0.0186182
-0.0185465
-0.0185575
-0.018607
-0.0185462
-0.0186187
-0.0186075
-0.0185458
-0.0186191
-0.0186177
-0.0185576
-0.0185468
-0.018607
-0.0185467
-0.0186073
-0.0186184
-0.0185458
-0.018546
-0.0186193
-0.0186191
-0.018619
-0.018816
-0.0187429
-0.0187428
-0.0188159
-0.0187429
-0.0188159
-0.0188163
-0.0187427
-0.0187424
-0.0188161
-0.018756
-0.018756
-0.0187559
-0.0189006
-0.0189006
-0.0189006
-0.0189006
-0.0188149
-0.0187436
-0.0187541
-0.0188043
-0.0187427
-0.0188159
-0.0188049
-0.0187427
-0.018816
-0.0188143
-0.0187543
-0.0187439
-0.0188042
-0.0187433
-0.0188046
-0.0188155
-0.0187427
-0.018743
-0.0188165
-0.0188163
-0.0188159
-0.019013
-0.0189401
-0.0189399
-0.0190128
-0.0189402
-0.0190128
-0.0190134
-0.01894
-0.0189395
-0.019013
-0.0189544
-0.0189544
-0.0189543
-0.019096
-0.0190959
-0.0190959
-0.019096
-0.0190109
-0.0189413
-0.0189504
-0.019003
-0.0189388
-0.0190131
-0.0190031
-0.0189401
-0.0190129
-0.0190105
-0.0189507
-0.0189416
-0.0190027
-0.0189395
-0.0190027
-0.0190128
-0.0189401
-0.0189403
-0.0190141
-0.0190131
-0.019013
-0.0192098
-0.0191377
-0.0191369
-0.0192094
-0.019138
-0.0192091
-0.0192102
-0.0191376
-0.0191366
-0.0192096
-0.0191531
-0.0191531
-0.019153
-0.0192913
-0.019291
-0.0192912
-0.0192913
-0.0192054
-0.0191397
-0.0191447
-0.0192058
-0.0191333
-0.0192106
-0.0192038
-0.0191379
-0.0192093
-0.0192049
-0.0191452
-0.01914
-0.0192053
-0.0191341
-0.0192033
-0.0192103
-0.0191379
-0.0191382
-0.0192126
-0.0192098
-0.0192095
-0.0194072
-0.019336
-0.0193331
-0.0194066
-0.0193371
-0.0194057
-0.0194075
-0.0193359
-0.0193328
-0.0194069
-0.019342
-0.0193418
-0.0193415
-0.0194709
-0.0194699
-0.0194706
-0.019471
-0.0193946
-0.0193394
-0.0193269
-0.0194181
-0.0193217
-0.0194096
-0.019411
-0.0193371
-0.0194058
-0.0193941
-0.0193272
-0.0193396
-0.0194168
-0.0193226
-0.0194103
-0.0194093
-0.0193374
-0.0193376
-0.0194113
-0.0194063
-0.0194062
-0.0196236
-0.0195395
-0.0195257
-0.0196459
-0.0195455
-0.0196403
-0.0196248
-0.0195401
-0.0195254
-0.0196462
-0.0194056
-0.0194049
-0.0194044
-0.0191637
-0.0191432
-0.0191636
-0.0191646
-0.0195474
-0.0195406
-0.019406
-0.0195813
-0.0194807
-0.0196303
-0.0195688
-0.0195459
-0.0196406
-0.0195439
-0.0194026
-0.0195405
-0.0195804
-0.019483
-0.0195681
-0.0196291
-0.0195437
-0.0195435
-0.0195527
-0.0196352
-0.0196343
-0.0201119
-0.0198673
-0.0197431
-0.0209491
-0.0199373
-0.0211832
-0.0201095
-0.019868
-0.0197442
-0.0209493
-0.016264
-0.0186449
-0.0186492
-0.0177117
-0.0185503
-0.0169776
-0.0169729
-0.0191943
-0.0197709
-0.0185525
-0.0181973
-0.0194021
-0.0204179
-0.0175603
-0.0199372
-0.0211825
-0.0191914
-0.0185524
-0.0197686
-0.0181595
-0.0194044
-0.0175674
-0.0204195
-0.0198965
-0.0198967
-0.0184357
-0.0207093
-0.0207087
-0.0175377
-0.0174649
-0.017538
-0.0174648
-0.0174649
-0.0175377
-0.0175379
-0.0174649
-0.0174648
-0.0174397
-0.0174274
-0.0174386
-0.0174649
-0.0175377
-0.0174651
-0.0175376
-0.017465
-0.0175376
-0.0174651
-0.0175376
-0.0174658
-0.0174766
-0.0175372
-0.017526
-0.0174656
-0.0174763
-0.0175369
-0.0174658
-0.0174764
-0.0175372
-0.017526
-0.0174656
-0.0174762
-0.0175369
-0.0174396
-0.0174395
-0.0174397
-0.0174398
-0.0175377
-0.0174649
-0.0174647
-0.0175377
-0.0175379
-0.017465
-0.0174648
-0.017538
-0.0174648
-0.0174645
-0.017538
-0.0174648
-0.0175381
-0.0174654
-0.0174768
-0.0175374
-0.0175257
-0.0174653
-0.0174768
-0.0175372
-0.0174645
-0.017538
-0.0174648
-0.0175381
-0.0174654
-0.0174768
-0.0175257
-0.0175374
-0.0174768
-0.0174653
-0.0175372
-0.0174399
-0.0174398
-0.017439
-0.0174283
-0.0174284
-0.0174392
-0.0174399
-0.0174398
-0.0174654
-0.0174767
-0.0175374
-0.0175257
-0.0174653
-0.0174766
-0.0175373
-0.0174645
-0.017538
-0.0174648
-0.0175382
-0.0174654
-0.0174765
-0.0175256
-0.0175374
-0.0174765
-0.0174653
-0.0175373
-0.0174645
-0.017538
-0.0174648
-0.0175381
-0.017538
-0.0174648
-0.0174648
-0.0175379
-0.0175376
-0.0174648
-0.0174649
-0.0175377
-0.0174649
-0.0174658
-0.0174766
-0.017526
-0.0175371
-0.0174763
-0.0174656
-0.0175369
-0.0174658
-0.0174765
-0.017526
-0.0175371
-0.0174762
-0.0174656
-0.0175369
-0.0174649
-0.0175376
-0.0174651
-0.0175375
-0.017465
-0.0175377
-0.0174651
-0.0175375
-0.0174398
-0.0174396
-0.0174647
-0.0175378
-0.0175377
-0.0174648
-0.017465
-0.0175379
-0.0174648
-0.0175377
-0.0174649
-0.017563
-0.017636
-0.017563
-0.0176362
-0.0175631
-0.017563
-0.0176361
-0.017636
-0.0176361
-0.0177344
-0.0176614
-0.0177344
-0.0176612
-0.0176613
-0.0177343
-0.0177344
-0.0176615
-0.0176613
-0.0176359
-0.017563
-0.0175632
-0.017636
-0.017635
-0.0175638
-0.0175751
-0.017624
-0.0175643
-0.0176353
-0.017624
-0.017635
-0.0175638
-0.0175752
-0.0176241
-0.0175643
-0.0176353
-0.017624
-0.0176614
-0.0177344
-0.0176614
-0.0177343
-0.0176614
-0.0177344
-0.0176614
-0.0177343
-0.0176624
-0.0176734
-0.0177337
-0.0177224
-0.0176621
-0.0176734
-0.0177333
-0.0176624
-0.0176734
-0.0177337
-0.0177224
-0.0176621
-0.0176734
-0.0177333
-0.0175631
-0.017563
-0.0176362
-0.0176358
-0.0176363
-0.017563
-0.0176362
-0.0177344
-0.0176614
-0.0176613
-0.0177343
-0.0177344
-0.0176615
-0.0176613
-0.0177344
-0.0176612
-0.0176355
-0.0175636
-0.017575
-0.017624
-0.0175637
-0.0176356
-0.017624
-0.0176364
-0.0175629
-0.0175628
-0.0176362
-0.0176354
-0.017575
-0.0175635
-0.017624
-0.0175637
-0.017624
-0.0176356
-0.017661
-0.0177345
-0.0176612
-0.0177346
-0.0176619
-0.0176734
-0.0177339
-0.0177224
-0.0176619
-0.0176733
-0.0177337
-0.017661
-0.0177345
-0.0176612
-0.0177346
-0.0176619
-0.0176734
-0.0177224
-0.0177339
-0.0176734
-0.0176619
-0.0177337
-0.0176364
-0.017563
-0.0175629
-0.0176362
-0.0176355
-0.0175752
-0.0175636
-0.0176241
-0.0175637
-0.0176241
-0.0176356
-0.0176364
-0.017563
-0.0175629
-0.0176362
-0.0176619
-0.0176733
-0.0177339
-0.0177223
-0.0176619
-0.0176733
-0.0177337
-0.0176611
-0.0177345
-0.0176612
-0.0177346
-0.0176619
-0.0176732
-0.0177224
-0.0177339
-0.0176733
-0.0176618
-0.0177337
-0.0176611
-0.0177345
-0.0176612
-0.0177346
-0.017563
-0.0175631
-0.0176361
-0.0176361
-0.0176359
-0.017563
-0.0176361
-0.0177344
-0.0176612
-0.0176613
-0.0177344
-0.0177342
-0.0176613
-0.0176615
-0.0177343
-0.0176614
-0.0176349
-0.0175752
-0.0175638
-0.017624
-0.0175642
-0.017624
-0.0176353
-0.017636
-0.017563
-0.0175632
-0.017636
-0.0176359
-0.017563
-0.0175632
-0.017636
-0.0176624
-0.0176734
-0.0177224
-0.0177336
-0.0176734
-0.0176621
-0.0177333
-0.0176624
-0.0176735
-0.0177224
-0.0177337
-0.0176734
-0.0176621
-0.0177333
-0.0176614
-0.0177343
-0.0176614
-0.0177343
-0.0176614
-0.0177344
-0.0176614
-0.0177343
-0.017563
-0.0176362
-0.017563
-0.017636
-0.0176613
-0.0177344
-0.0177343
-0.0176612
-0.0176616
-0.0177344
-0.0176612
-0.0177344
-0.0176614
-0.0177596
-0.0178326
-0.0177595
-0.0178327
-0.0177597
-0.0177595
-0.0178327
-0.0178325
-0.0178326
-0.0179309
-0.0178579
-0.0179309
-0.0178577
-0.0178578
-0.0179308
-0.0179309
-0.017858
-0.0178578
-0.0178326
-0.0177597
-0.0177598
-0.0178326
-0.0178316
-0.0177604
-0.0177716
-0.0178206
-0.0177607
-0.0178319
-0.0178206
-0.0178316
-0.0177604
-0.0177716
-0.0178206
-0.0177607
-0.0178319
-0.0178206
-0.017858
-0.0179308
-0.0178579
-0.0179308
-0.017858
-0.0179309
-0.017858
-0.0179308
-0.017859
-0.0178699
-0.0179302
-0.017919
-0.0178587
-0.0178699
-0.0179298
-0.017859
-0.01787
-0.0179302
-0.017919
-0.0178587
-0.0178699
-0.0179298
-0.0177597
-0.0177595
-0.0178327
-0.0178325
-0.0178326
-0.0177595
-0.0178327
-0.0179309
-0.0178579
-0.0178578
-0.0179308
-0.0179309
-0.017858
-0.0178578
-0.0179309
-0.0178577
-0.017832
-0.0177601
-0.0177715
-0.0178206
-0.0177601
-0.0178321
-0.0178205
-0.0178329
-0.0177594
-0.0177593
-0.0178327
-0.017832
-0.0177715
-0.01776
-0.0178205
-0.0177602
-0.0178206
-0.0178321
-0.0178575
-0.017931
-0.0178577
-0.0179311
-0.0178584
-0.0178699
-0.0179304
-0.0179189
-0.0178584
-0.0178699
-0.0179302
-0.0178576
-0.017931
-0.0178577
-0.0179311
-0.0178585
-0.0178699
-0.0179189
-0.0179305
-0.0178699
-0.0178584
-0.0179303
-0.0178329
-0.0177595
-0.0177593
-0.0178327
-0.0178319
-0.0177715
-0.01776
-0.0178206
-0.0177602
-0.0178206
-0.0178321
-0.0178329
-0.0177594
-0.0177593
-0.0178327
-0.0178584
-0.0178699
-0.0179304
-0.0179189
-0.0178584
-0.0178698
-0.0179302
-0.0178576
-0.017931
-0.0178577
-0.0179311
-0.0178584
-0.0178699
-0.0179189
-0.0179304
-0.0178699
-0.0178584
-0.0179303
-0.0178576
-0.017931
-0.0178577
-0.0179311
-0.0177596
-0.0177597
-0.0178327
-0.0178327
-0.0178325
-0.0177596
-0.0178326
-0.017931
-0.0178578
-0.0178579
-0.017931
-0.0179307
-0.0178578
-0.017858
-0.0179309
-0.017858
-0.0178316
-0.0177716
-0.0177604
-0.0178206
-0.0177607
-0.0178206
-0.0178319
-0.0178326
-0.0177597
-0.0177598
-0.0178326
-0.0178326
-0.0177597
-0.0177598
-0.0178326
-0.017859
-0.01787
-0.0179189
-0.0179302
-0.0178699
-0.0178587
-0.0179298
-0.017859
-0.01787
-0.017919
-0.0179302
-0.0178699
-0.0178587
-0.0179298
-0.017858
-0.0179309
-0.017858
-0.0179308
-0.017858
-0.0179309
-0.017858
-0.0179308
-0.0177595
-0.0178327
-0.0177597
-0.0178326
-0.0178579
-0.0179309
-0.0179308
-0.0178578
-0.017858
-0.0179309
-0.0178577
-0.0179309
-0.0178579
-0.0179561
-0.0180291
-0.017956
-0.0180292
-0.0179562
-0.017956
-0.0180292
-0.018029
-0.0180291
-0.0181274
-0.0180544
-0.0181275
-0.0180543
-0.0180543
-0.0181273
-0.0181274
-0.0180545
-0.0180543
-0.0180291
-0.0179562
-0.0179563
-0.0180291
-0.018028
-0.0179569
-0.0179681
-0.0180171
-0.0179572
-0.0180284
-0.0180171
-0.018028
-0.0179569
-0.0179681
-0.0180171
-0.0179572
-0.0180283
-0.0180171
-0.0180545
-0.0181274
-0.0180545
-0.0181273
-0.0180545
-0.0181274
-0.0180545
-0.0181273
-0.0180554
-0.0180664
-0.0181267
-0.0181156
-0.0180552
-0.0180664
-0.0181263
-0.0180554
-0.0180665
-0.0181267
-0.0181155
-0.0180552
-0.0180664
-0.0181263
-0.0179562
-0.017956
-0.0180292
-0.0180289
-0.0180293
-0.017956
-0.0180292
-0.0181274
-0.0180544
-0.0180543
-0.0181273
-0.0181274
-0.0180545
-0.0180543
-0.0181275
-0.0180543
-0.0180285
-0.0179566
-0.017968
-0.0180171
-0.0179567
-0.0180286
-0.0180171
-0.0180294
-0.017956
-0.0179559
-0.0180293
-0.0180285
-0.017968
-0.0179566
-0.0180171
-0.0179567
-0.0180171
-0.0180287
-0.018054
-0.0181275
-0.0180542
-0.0181277
-0.0180549
-0.0180664
-0.0181269
-0.0181155
-0.0180549
-0.0180663
-0.0181267
-0.018054
-0.0181275
-0.0180543
-0.0181276
-0.0180549
-0.0180665
-0.0181155
-0.018127
-0.0180664
-0.0180549
-0.0181268
-0.0180294
-0.017956
-0.0179558
-0.0180292
-0.0180285
-0.017968
-0.0179566
-0.0180171
-0.0179567
-0.0180171
-0.0180287
-0.0180294
-0.0179559
-0.0179558
-0.0180292
-0.018055
-0.0180664
-0.0181269
-0.0181155
-0.0180549
-0.0180663
-0.0181267
-0.018054
-0.0181275
-0.0180542
-0.0181276
-0.018055
-0.0180663
-0.0181155
-0.0181269
-0.0180663
-0.0180549
-0.0181268
-0.0180541
-0.0181275
-0.0180542
-0.0181276
-0.0179561
-0.0179562
-0.0180292
-0.0180292
-0.018029
-0.0179561
-0.0180291
-0.0181275
-0.0180543
-0.0180543
-0.0181275
-0.0181272
-0.0180544
-0.0180545
-0.0181274
-0.0180545
-0.0180281
-0.0179681
-0.0179569
-0.0180171
-0.0179573
-0.0180171
-0.0180284
-0.0180291
-0.0179562
-0.0179563
-0.0180291
-0.0180291
-0.0179562
-0.0179563
-0.0180291
-0.0180555
-0.0180665
-0.0181155
-0.0181267
-0.0180664
-0.0180552
-0.0181263
-0.0180555
-0.0180666
-0.0181155
-0.0181267
-0.0180664
-0.0180552
-0.0181263
-0.0180545
-0.0181274
-0.0180545
-0.0181273
-0.0180545
-0.0181274
-0.0180544
-0.0181273
-0.017956
-0.0180292
-0.0179561
-0.0180291
-0.0180543
-0.0181274
-0.0181273
-0.0180542
-0.0180546
-0.0181274
-0.0180542
-0.0181274
-0.0180544
-0.0181527
-0.0182256
-0.0181525
-0.0182257
-0.0181527
-0.0181526
-0.0182258
-0.0182255
-0.0182257
-0.0183239
-0.0182509
-0.018324
-0.0182508
-0.0182506
-0.0183239
-0.018324
-0.018251
-0.0182509
-0.0182256
-0.0181527
-0.0181528
-0.0182256
-0.0182246
-0.0181534
-0.0181646
-0.0182137
-0.0181537
-0.0182249
-0.0182138
-0.0182246
-0.0181534
-0.0181645
-0.0182137
-0.0181537
-0.0182249
-0.0182138
-0.018251
-0.0183239
-0.018251
-0.0183238
-0.018251
-0.0183239
-0.018251
-0.0183238
-0.0182519
-0.018263
-0.0183233
-0.0183122
-0.0182517
-0.0182628
-0.0183228
-0.0182519
-0.018263
-0.0183233
-0.0183122
-0.0182518
-0.0182628
-0.0183228
-0.0181527
-0.0181526
-0.0182258
-0.0182256
-0.0182257
-0.0181525
-0.0182257
-0.0183239
-0.0182509
-0.0182506
-0.0183239
-0.018324
-0.018251
-0.0182509
-0.018324
-0.0182508
-0.018225
-0.0181531
-0.0181645
-0.0182136
-0.0181532
-0.0182252
-0.0182137
-0.0182259
-0.0181525
-0.0181524
-0.0182257
-0.018225
-0.0181645
-0.0181531
-0.0182136
-0.0181532
-0.0182137
-0.0182252
-0.0182506
-0.018324
-0.0182508
-0.0183242
-0.0182514
-0.018263
-0.0183235
-0.0183121
-0.0182514
-0.0182628
-0.0183233
-0.0182506
-0.0183241
-0.0182508
-0.0183242
-0.0182514
-0.018263
-0.0183121
-0.0183235
-0.0182628
-0.0182514
-0.0183233
-0.0182259
-0.0181525
-0.0181523
-0.0182258
-0.018225
-0.0181645
-0.0181531
-0.0182136
-0.0181532
-0.0182137
-0.0182252
-0.0182259
-0.0181525
-0.0181524
-0.0182257
-0.0182514
-0.0182629
-0.0183235
-0.0183121
-0.0182515
-0.0182627
-0.0183233
-0.0182506
-0.0183241
-0.0182508
-0.0183242
-0.0182514
-0.018263
-0.0183121
-0.0183235
-0.0182628
-0.0182514
-0.0183233
-0.0182506
-0.018324
-0.0182508
-0.0183242
-0.0181526
-0.0181527
-0.0182258
-0.0182257
-0.0182255
-0.0181527
-0.0182256
-0.018324
-0.0182508
-0.0182507
-0.018324
-0.0183238
-0.0182508
-0.018251
-0.0183239
-0.0182509
-0.0182245
-0.0181645
-0.0181535
-0.0182136
-0.0181537
-0.0182137
-0.018225
-0.0182256
-0.0181527
-0.0181528
-0.0182256
-0.0182256
-0.0181527
-0.0181528
-0.0182256
-0.0182519
-0.018263
-0.0183121
-0.0183232
-0.0182628
-0.0182517
-0.0183228
-0.018252
-0.0182631
-0.0183121
-0.0183233
-0.0182629
-0.0182518
-0.0183228
-0.018251
-0.0183239
-0.0182509
-0.0183238
-0.018251
-0.0183239
-0.018251
-0.0183238
-0.0181525
-0.0182257
-0.0181527
-0.0182256
-0.0182507
-0.0183239
-0.0183239
-0.0182508
-0.018251
-0.018324
-0.0182508
-0.0183239
-0.0182509
-0.0183492
-0.0184222
-0.0183491
-0.0184223
-0.0183493
-0.0183491
-0.0184225
-0.0184221
-0.0184223
-0.0185206
-0.0184475
-0.0185207
-0.0184474
-0.0184469
-0.0185206
-0.0185207
-0.0184476
-0.0184475
-0.0184222
-0.0183492
-0.0183493
-0.0184222
-0.0184211
-0.01835
-0.018361
-0.0184103
-0.0183502
-0.0184216
-0.0184105
-0.0184211
-0.01835
-0.018361
-0.0184102
-0.0183502
-0.0184215
-0.0184105
-0.0184476
-0.0185206
-0.0184476
-0.0185205
-0.0184476
-0.0185206
-0.0184476
-0.0185205
-0.0184484
-0.0184596
-0.01852
-0.018509
-0.0184484
-0.0184593
-0.0185194
-0.0184484
-0.0184596
-0.01852
-0.018509
-0.0184484
-0.0184593
-0.0185194
-0.0183493
-0.0183491
-0.0184225
-0.018422
-0.0184225
-0.0183491
-0.0184224
-0.0185206
-0.0184476
-0.0184469
-0.0185206
-0.0185207
-0.0184477
-0.0184475
-0.0185207
-0.0184474
-0.0184215
-0.0183497
-0.018361
-0.0184103
-0.0183497
-0.0184218
-0.0184105
-0.0184225
-0.018349
-0.0183489
-0.0184223
-0.0184216
-0.018361
-0.0183497
-0.0184102
-0.0183497
-0.0184104
-0.0184218
-0.0184472
-0.0185207
-0.0184474
-0.018521
-0.0184479
-0.0184596
-0.0185203
-0.018509
-0.0184481
-0.0184593
-0.0185199
-0.0184472
-0.0185208
-0.0184474
-0.0185209
-0.0184479
-0.0184596
-0.018509
-0.0185202
-0.0184593
-0.0184482
-0.0185199
-0.0184226
-0.018349
-0.0183489
-0.0184224
-0.0184216
-0.018361
-0.0183497
-0.0184102
-0.0183497
-0.0184105
-0.0184219
-0.0184226
-0.018349
-0.0183489
-0.0184224
-0.0184479
-0.0184596
-0.0185203
-0.018509
-0.0184481
-0.0184592
-0.0185199
-0.0184472
-0.0185208
-0.0184474
-0.0185209
-0.0184479
-0.0184595
-0.018509
-0.0185202
-0.0184593
-0.0184481
-0.0185199
-0.0184472
-0.0185207
-0.0184474
-0.0185209
-0.0183491
-0.0183492
-0.0184224
-0.0184223
-0.0184221
-0.0183492
-0.0184222
-0.0185207
-0.0184474
-0.018447
-0.0185207
-0.0185205
-0.0184475
-0.0184477
-0.0185206
-0.0184475
-0.0184211
-0.0183611
-0.01835
-0.0184102
-0.0183502
-0.0184104
-0.0184215
-0.0184221
-0.0183492
-0.0183493
-0.0184222
-0.0184221
-0.0183492
-0.0183493
-0.0184222
-0.0184484
-0.0184597
-0.0185089
-0.0185199
-0.0184593
-0.0184484
-0.0185194
-0.0184484
-0.0184598
-0.0185089
-0.01852
-0.0184594
-0.0184484
-0.0185194
-0.0184475
-0.0185205
-0.0184476
-0.0185205
-0.0184476
-0.0185206
-0.0184475
-0.0185205
-0.0183491
-0.0184224
-0.0183492
-0.0184222
-0.018447
-0.0185207
-0.0185206
-0.0184474
-0.0184477
-0.0185207
-0.0184474
-0.0185206
-0.0184475
-0.0185459
-0.018619
-0.0185458
-0.0186191
-0.018546
-0.0185458
-0.0186194
-0.018619
-0.0186191
-0.0187175
-0.0186444
-0.0187176
-0.0186443
-0.0186429
-0.0187175
-0.0187176
-0.0186445
-0.0186443
-0.018619
-0.018546
-0.018546
-0.018619
-0.0186178
-0.0185468
-0.0185576
-0.0186071
-0.0185467
-0.0186184
-0.0186074
-0.0186177
-0.0185468
-0.0185575
-0.0186071
-0.0185467
-0.0186184
-0.0186074
-0.0186443
-0.0187174
-0.0186444
-0.0187174
-0.0186443
-0.0187174
-0.0186444
-0.0187174
-0.018645
-0.0186563
-0.018717
-0.0187061
-0.0186454
-0.0186559
-0.0187161
-0.018645
-0.0186564
-0.018717
-0.0187061
-0.0186454
-0.0186559
-0.0187161
-0.018546
-0.0185459
-0.0186193
-0.018619
-0.0186191
-0.0185458
-0.0186191
-0.0187175
-0.0186444
-0.0186429
-0.0187175
-0.0187176
-0.0186445
-0.0186443
-0.0187176
-0.0186442
-0.0186182
-0.0185466
-0.0185575
-0.0186071
-0.0185462
-0.0186187
-0.0186074
-0.0186194
-0.0185458
-0.0185456
-0.0186191
-0.0186182
-0.0185575
-0.0185465
-0.018607
-0.0185462
-0.0186074
-0.0186187
-0.018644
-0.0187176
-0.0186442
-0.0187178
-0.0186445
-0.0186563
-0.0187172
-0.0187062
-0.0186451
-0.0186558
-0.0187165
-0.018644
-0.0187176
-0.0186442
-0.0187178
-0.0186445
-0.0186564
-0.0187061
-0.0187172
-0.0186559
-0.0186451
-0.0187166
-0.0186193
-0.0185458
-0.0185456
-0.0186191
-0.0186182
-0.0185576
-0.0185465
-0.018607
-0.0185462
-0.0186074
-0.0186186
-0.0186193
-0.0185457
-0.0185456
-0.0186191
-0.0186444
-0.0186563
-0.0187172
-0.0187061
-0.0186451
-0.0186558
-0.0187166
-0.018644
-0.0187176
-0.0186442
-0.0187178
-0.0186444
-0.0186564
-0.0187061
-0.0187172
-0.0186559
-0.0186451
-0.0187166
-0.0186439
-0.0187176
-0.0186442
-0.0187178
-0.0185459
-0.0185459
-0.0186193
-0.0186192
-0.0186189
-0.0185459
-0.018619
-0.0187176
-0.0186442
-0.0186431
-0.0187177
-0.0187174
-0.0186443
-0.0186445
-0.0187174
-0.0186443
-0.0186177
-0.0185576
-0.0185468
-0.0186069
-0.0185467
-0.0186073
-0.0186184
-0.0186189
-0.0185459
-0.018546
-0.0186189
-0.0186189
-0.0185459
-0.018546
-0.018619
-0.018645
-0.0186564
-0.018706
-0.0187169
-0.018656
-0.0186453
-0.018716
-0.018645
-0.0186565
-0.018706
-0.018717
-0.018656
-0.0186454
-0.0187161
-0.0186443
-0.0187174
-0.0186444
-0.0187174
-0.0186443
-0.0187174
-0.0186444
-0.0187174
-0.0185458
-0.0186191
-0.0185459
-0.018619
-0.0186431
-0.0187176
-0.0187175
-0.0186443
-0.0186445
-0.0187176
-0.0186442
-0.0187175
-0.0186443
-0.0187429
-0.0188159
-0.0187428
-0.018816
-0.018743
-0.0187428
-0.0188165
-0.018816
-0.0188161
-0.0189144
-0.0188415
-0.0189145
-0.0188414
-0.0188384
-0.0189145
-0.0189146
-0.0188416
-0.0188415
-0.0188159
-0.0187429
-0.0187429
-0.0188159
-0.0188144
-0.0187439
-0.0187541
-0.0188043
-0.0187432
-0.0188155
-0.0188048
-0.0188144
-0.0187439
-0.0187541
-0.0188043
-0.0187432
-0.0188155
-0.0188047
-0.0188413
-0.0189144
-0.0188415
-0.0189145
-0.0188413
-0.0189144
-0.0188415
-0.0189145
-0.0188414
-0.0188528
-0.0189142
-0.0189038
-0.0188427
-0.0188524
-0.0189125
-0.0188414
-0.0188529
-0.0189142
-0.0189038
-0.0188428
-0.0188524
-0.0189126
-0.018743
-0.0187428
-0.0188165
-0.0188158
-0.0188163
-0.0187427
-0.0188161
-0.0189144
-0.0188415
-0.0188385
-0.0189146
-0.0189147
-0.0188417
-0.0188415
-0.0189145
-0.0188414
-0.0188148
-0.0187437
-0.018754
-0.0188043
-0.0187427
-0.0188158
-0.0188048
-0.0188163
-0.0187427
-0.0187424
-0.018816
-0.0188148
-0.0187541
-0.0187436
-0.0188042
-0.0187427
-0.0188048
-0.0188158
-0.0188409
-0.0189145
-0.0188413
-0.0189148
-0.0188408
-0.0188528
-0.0189144
-0.0189039
-0.0188425
-0.0188523
-0.018913
-0.0188409
-0.0189145
-0.0188413
-0.0189148
-0.0188408
-0.0188529
-0.0189038
-0.0189144
-0.0188525
-0.0188425
-0.018913
-0.0188164
-0.0187427
-0.0187425
-0.0188161
-0.0188149
-0.0187541
-0.0187437
-0.0188043
-0.0187427
-0.0188048
-0.0188158
-0.0188164
-0.0187428
-0.0187425
-0.0188161
-0.0188409
-0.0188529
-0.0189145
-0.0189039
-0.0188425
-0.0188523
-0.018913
-0.018841
-0.0189146
-0.0188414
-0.0189149
-0.0188409
-0.0188529
-0.0189038
-0.0189144
-0.0188525
-0.0188424
-0.018913
-0.018841
-0.0189145
-0.0188414
-0.0189149
-0.0187428
-0.0187429
-0.0188165
-0.0188161
-0.0188159
-0.0187428
-0.018816
-0.0189145
-0.0188413
-0.0188387
-0.0189147
-0.0189145
-0.0188414
-0.0188416
-0.0189144
-0.0188415
-0.0188143
-0.0187543
-0.018744
-0.0188041
-0.0187433
-0.0188046
-0.0188155
-0.0188159
-0.0187429
-0.0187428
-0.0188159
-0.0188159
-0.0187429
-0.0187428
-0.0188159
-0.0188415
-0.018853
-0.0189036
-0.0189142
-0.0188526
-0.0188427
-0.0189126
-0.0188414
-0.0188532
-0.0189036
-0.0189142
-0.0188526
-0.0188428
-0.0189126
-0.0188413
-0.0189144
-0.0188415
-0.0189145
-0.0188413
-0.0189144
-0.0188415
-0.0189144
-0.0187428
-0.0188161
-0.0187429
-0.0188159
-0.0188387
-0.0189146
-0.0189146
-0.0188413
-0.0188417
-0.0189145
-0.0188414
-0.0189144
-0.0188415
-0.0189401
-0.0190128
-0.01894
-0.0190129
-0.0189402
-0.0189401
-0.0190142
-0.019013
-0.0190131
-0.0191111
-0.019039
-0.0191112
-0.0190389
-0.0190326
-0.0191114
-0.0191115
-0.0190392
-0.019039
-0.019013
-0.0189402
-0.0189399
-0.0190128
-0.0190105
-0.0189415
-0.0189505
-0.019003
-0.0189393
-0.0190128
-0.0190029
-0.0190105
-0.0189416
-0.0189505
-0.0190029
-0.0189394
-0.0190128
-0.0190029
-0.0190384
-0.0191112
-0.0190389
-0.0191114
-0.0190384
-0.0191112
-0.0190389
-0.0191114
-0.019037
-0.0190479
-0.0191115
-0.0191028
-0.0190407
-0.0190482
-0.019108
-0.019037
-0.0190481
-0.0191115
-0.0191028
-0.0190407
-0.0190483
-0.019108
-0.0189403
-0.0189401
-0.0190141
-0.019013
-0.0190131
-0.0189401
-0.0190129
-0.0191111
-0.019039
-0.0190328
-0.0191114
-0.0191115
-0.0190392
-0.019039
-0.0191112
-0.0190389
-0.019011
-0.0189413
-0.0189503
-0.0190031
-0.0189388
-0.0190131
-0.0190031
-0.0190133
-0.01894
-0.0189396
-0.019013
-0.019011
-0.0189505
-0.0189413
-0.0190029
-0.0189388
-0.019003
-0.0190131
-0.0190381
-0.0191113
-0.0190388
-0.0191118
-0.0190364
-0.0190479
-0.0191118
-0.0191031
-0.0190404
-0.019048
-0.0191085
-0.0190381
-0.0191113
-0.0190388
-0.0191118
-0.0190365
-0.0190481
-0.0191028
-0.0191118
-0.0190483
-0.0190404
-0.0191085
-0.0190134
-0.01894
-0.0189395
-0.019013
-0.0190109
-0.0189505
-0.0189412
-0.0190029
-0.0189388
-0.0190029
-0.019013
-0.0190134
-0.01894
-0.0189396
-0.019013
-0.0190364
-0.019048
-0.0191118
-0.019103
-0.0190404
-0.019048
-0.0191085
-0.0190381
-0.0191113
-0.0190388
-0.0191118
-0.0190364
-0.019048
-0.0191028
-0.0191117
-0.0190483
-0.0190404
-0.0191085
-0.0190381
-0.0191113
-0.0190388
-0.0191118
-0.0189402
-0.0189403
-0.0190141
-0.0190132
-0.019013
-0.0189402
-0.0190128
-0.0191112
-0.0190389
-0.0190329
-0.0191116
-0.0191114
-0.019039
-0.0190392
-0.0191111
-0.019039
-0.0190105
-0.0189507
-0.0189417
-0.0190027
-0.0189395
-0.0190027
-0.0190128
-0.019013
-0.0189402
-0.01894
-0.0190128
-0.019013
-0.0189402
-0.01894
-0.0190128
-0.0190371
-0.0190483
-0.0191025
-0.0191115
-0.0190484
-0.0190407
-0.0191081
-0.0190371
-0.0190483
-0.0191025
-0.0191116
-0.0190485
-0.0190407
-0.019108
-0.0190385
-0.0191112
-0.0190389
-0.0191114
-0.0190385
-0.0191112
-0.0190389
-0.0191114
-0.01894
-0.0190129
-0.0189402
-0.0190128
-0.0190329
-0.0191115
-0.0191114
-0.019039
-0.0190392
-0.0191112
-0.0190389
-0.0191111
-0.019039
-0.019138
-0.0192092
-0.0191379
-0.0192093
-0.0191381
-0.019138
-0.0192127
-0.0192096
-0.0192097
-0.0193071
-0.0192372
-0.0193073
-0.0192372
-0.0192241
-0.0193076
-0.0193078
-0.0192375
-0.0192374
-0.0192098
-0.0191377
-0.019137
-0.0192094
-0.019205
-0.0191399
-0.0191449
-0.0192058
-0.0191339
-0.0192103
-0.0192036
-0.019205