/*--------------------------------*- C++ -*----------------------------------*\
| =========                 |                                                 |
| \\      /  F ield         | OpenFOAM: The Open Source CFD Toolbox           |
|  \\    /   O peration     | Version:  2206                                  |
|   \\  /    A nd           | Website:  www.openfoam.com                      |
|    \\/     M anipulation  |                                                 |
\*---------------------------------------------------------------------------*/
FoamFile
{
    version     2.0;
    format      ascii;
    arch        "LSB;label=32;scalar=64";
    class       surfaceScalarField;
    location    "70";
    object      phi;
}
// * * * * * * * * * * * * * * * * * * * * * * * * * * * * * * * * * * * * * //

dimensions      [0 3 -1 0 0 0 0];

oriented        oriented;

internalField   nonuniform List<scalar> 
199822
(
-4.13464e-12
-2.0542e-12
-1.18641e-07
1.47889e-12
3.17492e-12
1.18643e-07
-1.12529e-07
-3.88551e-11
1.1978e-12
1.10865e-12
1.12525e-07
3.09447e-11
3.92945e-11
-2.78195e-11
-5.63883e-11
5.51263e-11
5.73508e-11
-5.81583e-11
-1.13534e-07
-4.41196e-11
4.08228e-12
1.32577e-13
1.13534e-07
1.8257e-11
4.39128e-11
-1.9755e-11
-2.16452e-12
2.52837e-11
1.60656e-12
-2.74968e-11
-2.72498e-08
-1.20108e-10
1.81939e-10
-7.62574e-11
1.65557e-10
2.70987e-08
-5.93878e-12
-4.05647e-12
-1.18642e-07
3.82432e-12
4.97751e-12
1.18643e-07
-1.12527e-07
-3.87717e-11
3.19046e-12
-6.88946e-13
1.12525e-07
3.08937e-11
3.96285e-11
-3.14113e-11
-5.6677e-11
5.49718e-11
5.71481e-11
-5.59973e-11
-1.13536e-07
-4.40201e-11
5.53422e-12
9.15801e-13
1.13534e-07
1.82728e-11
4.36839e-11
-1.99616e-11
-2.07123e-12
2.52788e-11
1.58188e-12
-2.74419e-11
-2.72496e-08
5.09092e-11
2.41372e-11
6.01225e-11
1.68246e-11
2.70976e-08
-8.92114e-12
-7.31922e-12
-1.18643e-07
7.18074e-12
8.13798e-12
1.18644e-07
-1.12525e-07
-3.85052e-11
5.49424e-12
-2.21901e-12
1.12521e-07
3.11429e-11
3.98333e-11
-2.7531e-11
-5.69264e-11
5.47397e-11
5.68663e-11
-5.87903e-11
-1.13539e-07
-4.37772e-11
8.79376e-12
-3.95709e-12
1.13537e-07
1.8495e-11
4.39245e-11
-1.9713e-11
-2.09005e-12
2.55296e-11
1.63749e-12
-2.74738e-11
-2.72494e-08
-1.20415e-10
1.82025e-10
-7.67548e-11
1.66178e-10
2.70984e-08
-1.51733e-11
-1.32844e-11
-1.18643e-07
1.34126e-11
1.41206e-11
1.18644e-07
-1.12523e-07
-3.82376e-11
1.22362e-11
-8.46334e-12
1.1252e-07
3.15209e-11
4.0092e-11
-3.08116e-11
-5.74705e-11
5.43349e-11
5.64834e-11
-5.6967e-11
-1.1354e-07
-4.35005e-11
1.5223e-11
-8.78356e-12
1.13538e-07
1.87355e-11
4.42868e-11
-1.93695e-11
-2.61657e-12
2.5016e-11
1.28197e-12
-2.79799e-11
-2.72493e-08
5.01812e-11
2.38731e-11
6.00194e-11
1.76258e-11
2.70976e-08
-2.81165e-11
-2.60019e-11
-1.18643e-07
2.69826e-11
2.78094e-11
1.18643e-07
-1.1252e-07
-3.77991e-11
2.42445e-11
-1.75151e-11
1.12517e-07
3.1983e-11
4.0644e-11
-2.64313e-11
-5.91055e-11
5.2928e-11
5.50652e-11
-6.0867e-11
-1.13543e-07
-4.33323e-11
2.99463e-11
-2.13597e-11
1.13541e-07
1.89273e-11
4.45304e-11
-1.90428e-11
-3.67741e-12
2.42079e-11
3.96853e-13
-2.90692e-11
-2.72482e-08
-1.21228e-10
1.81497e-10
-7.66087e-11
1.66754e-10
2.70978e-08
-5.30889e-11
-4.88427e-11
-1.18644e-07
5.26897e-11
5.50207e-11
1.18639e-07
-1.12517e-07
-3.70046e-11
4.78009e-11
-3.81181e-11
1.12519e-07
3.29493e-11
4.14545e-11
-2.92301e-11
-6.19317e-11
5.07123e-11
5.28712e-11
-6.1072e-11
-1.13543e-07
-4.24787e-11
5.75093e-11
-4.22181e-11
1.13542e-07
2.00387e-11
4.54253e-11
-1.79725e-11
-7.04008e-12
2.16639e-11
-2.16899e-12
-3.19376e-11
-2.72472e-08
4.91459e-11
2.2999e-11
6.01814e-11
1.8169e-11
2.70967e-08
-9.80609e-11
-8.90368e-11
-1.1865e-07
1.00736e-10
1.07464e-10
1.18629e-07
-1.12512e-07
-3.54914e-11
8.61365e-11
-7.35464e-11
1.12523e-07
3.47686e-11
4.28303e-11
-2.39863e-11
-6.78663e-11
4.63977e-11
4.87062e-11
-6.93793e-11
-1.1354e-07
-4.06933e-11
1.07248e-10
-8.58291e-11
1.13548e-07
2.22861e-11
4.68781e-11
-1.63786e-11
-1.36492e-11
1.70927e-11
-6.82589e-12
-3.82617e-11
-2.72451e-08
-1.23101e-10
1.79086e-10
-7.53515e-11
1.67584e-10
2.70969e-08
-1.65711e-10
-1.48721e-10
-1.18666e-07
1.7715e-10
1.93493e-10
1.18609e-07
-1.12497e-07
-3.3192e-11
1.45588e-10
-1.43256e-10
1.12549e-07
3.81696e-11
4.54837e-11
-2.45824e-11
-7.95507e-11
3.77169e-11
3.9766e-11
-7.84691e-11
-1.13525e-07
-3.79611e-11
1.81846e-10
-1.63192e-10
1.13566e-07
2.63129e-11
4.95607e-11
-1.28916e-11
-2.6016e-11
7.80403e-12
-1.63792e-11
-5.04253e-11
-2.72418e-08
4.53831e-11
1.87818e-11
6.22238e-11
1.96397e-11
2.70958e-08
-2.36524e-10
-2.06271e-10
-1.18692e-07
2.58917e-10
2.95064e-10
1.18581e-07
-1.12444e-07
-3.31341e-11
1.99201e-10
-2.66395e-10
1.12628e-07
4.006e-11
5.51673e-11
-1.1852e-11
-9.85972e-11
1.67141e-11
1.70264e-11
-1.02294e-10
-1.13473e-07
-3.78851e-11
2.64119e-10
-3.04379e-10
1.13639e-07
2.86957e-11
5.86212e-11
-3.96679e-12
-4.57074e-11
-1.35026e-11
-3.9692e-11
-7.22508e-11
-2.72355e-08
-1.24757e-10
1.76379e-10
-7.72245e-11
1.64402e-10
2.70967e-08
-1.68084e-10
-1.23123e-10
-1.18656e-07
1.40055e-10
2.08262e-10
1.18599e-07
-1.1226e-07
-5.52153e-11
1.10578e-10
-4.46716e-10
1.1286e-07
2.19438e-11
9.27282e-11
1.47468e-11
-1.1648e-10
-3.77879e-11
-4.86387e-11
-1.35757e-10
-1.13294e-07
-5.98361e-11
2.1143e-10
-5.0041e-10
1.1386e-07
1.1532e-11
9.42645e-11
2.54363e-11
-6.55481e-11
-6.85768e-11
-1.05999e-10
-1.08169e-10
-2.7223e-08
6.838e-11
4.16269e-11
2.80836e-11
-1.05404e-11
2.70954e-08
3.50488e-11
9.47142e-10
-1.17825e-07
-1.03202e-09
-1.28022e-09
1.19155e-07
-1.1157e-07
-1.442e-10
-9.83947e-10
-5.31421e-10
1.13248e-07
-4.66191e-11
3.0891e-10
1.61152e-10
1.21857e-11
-1.26987e-10
-2.02263e-10
-1.25585e-10
-1.12609e-07
-1.46365e-10
-2.81184e-11
2.8473e-10
1.13978e-07
-5.21144e-11
3.05921e-10
9.26304e-11
-3.86532e-10
-2.93239e-10
-7.42344e-10
-4.03703e-10
-2.7197e-08
-9.44553e-12
2.8507e-10
-2.00842e-10
4.11323e-11
2.70811e-08
6.49531e-10
7.51094e-10
-1.29315e-07
-8.39277e-09
-8.49868e-09
3.06103e-08
3.05396e-08
3.06829e-08
3.06881e-08
1.84654e-09
5.18886e-09
4.13731e-09
1.88067e-09
5.14025e-09
4.09143e-09
-2.71274e-08
-3.32362e-09
1.08071e-10
-3.63539e-09
1.93935e-09
3.2039e-08
-2.59289e-08
-7.4747e-10
-2.84441e-09
1.09317e-09
-3.19918e-09
3.16268e-08
-2.73375e-08
2.84706e-09
2.84337e-09
-3.00505e-09
-2.68991e-09
2.7342e-08
-3.62338e-11
-3.96402e-11
2.72365e-08
-2.70849e-08
-3.82443e-11
-3.75511e-11
1.14604e-07
-1.5137e-12
-1.14602e-07
-5.52268e-13
-3.54149e-11
-1.46845e-11
1.41956e-11
-2.18358e-11
-2.5519e-11
2.44543e-11
2.26148e-11
3.63055e-11
1.14631e-07
-1.90419e-12
-1.14631e-07
1.44509e-12
-3.52759e-11
-1.5565e-11
1.50476e-11
-2.17418e-11
-2.51933e-11
2.44463e-11
2.27074e-11
-4.00282e-11
2.7236e-08
-2.70837e-08
-3.81503e-11
-3.77798e-11
1.12554e-07
-3.56054e-12
-1.12553e-07
-5.10573e-13
-3.86826e-11
-3.08562e-11
3.10077e-11
5.73052e-11
-5.4745e-11
5.49837e-11
-5.57387e-11
2.9557e-11
1.13587e-07
-2.81304e-12
-1.13587e-07
-6.1271e-13
-2.84352e-11
-2.79444e-11
3.14685e-11
3.7471e-11
-5.41179e-11
5.15726e-11
-3.63107e-11
-4.47763e-12
-1.12528e-07
-1.04733e-12
-3.88215e-11
-3.0785e-11
3.11891e-11
5.76322e-11
-5.49469e-11
-5.55831e-11
5.55372e-11
5.27819e-11
1.13547e-07
4.8528e-11
-1.13597e-07
-2.75246e-11
-2.64301e-11
-2.70658e-11
2.7355e-11
3.76876e-11
-5.32586e-11
5.45184e-11
-3.65316e-11
-4.45881e-11
2.72389e-08
-2.70883e-08
-4.53772e-11
-3.10826e-11
-1.64037e-12
-1.13532e-07
-8.99188e-13
-4.40161e-11
-1.8934e-11
1.49295e-11
2.66525e-12
-2.65964e-11
-1.1764e-12
2.86651e-11
2.44298e-11
1.13646e-07
-7.20179e-11
-1.13586e-07
3.26253e-11
-4.55937e-11
-1.85127e-11
1.89831e-11
2.25922e-12
-2.70887e-11
2.58574e-11
-4.70815e-13
-2.70976e-08
-5.98376e-11
-1.52262e-11
3.56575e-11
3.86326e-11
3.89646e-11
3.85448e-11
2.70847e-08
-3.62607e-11
-3.97696e-11
2.72363e-08
-2.70846e-08
-3.8092e-11
-3.76117e-11
1.8136e-12
1.14603e-07
1.37327e-11
3.58249e-11
-1.53476e-11
2.18243e-11
2.36231e-11
-2.26233e-11
-2.61815e-11
-3.55563e-11
3.9214e-12
2.44656e-12
1.14631e-07
1.45632e-11
3.56015e-11
-2.01264e-11
2.17593e-11
2.37226e-11
-2.25494e-11
-2.38321e-11
1.14606e-07
-2.65756e-12
-1.14603e-07
1.87699e-12
-3.55794e-11
-1.49824e-11
1.37812e-11
-2.25708e-11
-2.55347e-11
2.40714e-11
2.2294e-11
3.5993e-11
1.14635e-07
-2.22392e-12
-1.14632e-07
1.79239e-12
-3.55351e-11
-1.61305e-11
1.44863e-11
-2.26207e-11
-2.57002e-11
2.38633e-11
2.23343e-11
3.88075e-11
3.89183e-11
2.70839e-08
-3.98389e-11
2.72356e-08
-2.70836e-08
-3.83033e-11
-3.78925e-11
4.75807e-13
1.12552e-07
3.08411e-11
3.92397e-11
-3.14332e-11
-5.62822e-11
5.47532e-11
5.71661e-11
-5.5575e-11
-2.84478e-11
2.52664e-12
1.31654e-12
1.13585e-07
2.75912e-11
2.90359e-11
-2.85251e-11
-3.70398e-11
5.38281e-11
3.71071e-11
-5.49701e-11
1.12552e-07
-4.89915e-12
-1.1255e-07
5.9493e-14
-3.85106e-11
-3.11387e-11
3.08311e-11
5.73826e-11
-5.49557e-11
5.49793e-11
-5.5814e-11
2.96093e-11
1.13586e-07
-3.707e-12
-1.13585e-07
5.95961e-14
-2.81798e-11
-2.81049e-11
3.13687e-11
3.73868e-11
-5.43799e-11
5.15347e-11
-3.64122e-11
4.67915e-10
-1.38989e-10
1.12789e-07
7.54137e-11
1.97596e-10
6.63135e-11
-3.99262e-11
5.41027e-11
-8.23742e-11
3.83614e-11
-4.04455e-12
-1.12525e-07
-9.42802e-13
-3.88803e-11
-3.09899e-11
3.09689e-11
5.76895e-11
-5.50803e-11
-5.56661e-11
5.54005e-11
-1.18591e-10
1.13546e-07
-4.6874e-10
-1.1279e-07
1.41037e-10
-1.96401e-10
-7.6445e-11
-6.48015e-11
4.0426e-11
-5.43671e-11
7.91177e-11
-3.73431e-11
4.62048e-11
3.20592e-11
2.70881e-08
-4.40355e-11
2.72379e-08
-2.70876e-08
-4.56909e-11
-3.10008e-11
-5.57951e-10
1.74894e-10
1.14446e-07
-2.7623e-11
-1.18446e-10
-1.17794e-10
1.66422e-12
2.48524e-11
1.90476e-12
3.47533e-13
-3.3931e-12
-1.13533e-07
3.14467e-12
-4.40404e-11
-1.94957e-11
1.46948e-11
2.10205e-12
-2.6604e-11
-1.23736e-12
2.82488e-11
1.82273e-10
1.13651e-07
5.57599e-10
-1.14446e-07
-1.7411e-10
1.18115e-10
2.72258e-11
1.13913e-10
-2.06858e-12
-2.62843e-11
-1.43738e-12
-2.33536e-13
-2.70983e-08
7.62896e-11
-1.63934e-10
3.55606e-11
3.84196e-11
3.92221e-11
3.8494e-11
2.70846e-08
-3.60977e-11
-3.97442e-11
2.7236e-08
-2.70845e-08
-3.80333e-11
-3.76456e-11
1.24258e-12
1.14604e-07
1.37651e-11
3.58743e-11
-1.5283e-11
2.15587e-11
2.36973e-11
-2.28814e-11
-2.63847e-11
-3.55398e-11
6.51176e-12
1.03853e-12
1.14634e-07
1.44307e-11
3.58799e-11
-1.62572e-11
2.1556e-11
2.32855e-11
-2.30304e-11
-2.63092e-11
1.14608e-07
-5.8235e-12
-1.14605e-07
3.87232e-12
-3.5674e-11
-1.52016e-11
1.36405e-11
-2.21853e-11
-2.51138e-11
2.44206e-11
2.27074e-11
3.6017e-11
1.14637e-07
-5.499e-12
-1.14634e-07
3.8679e-12
-3.54836e-11
-1.61382e-11
1.46148e-11
-2.21907e-11
-2.52095e-11
2.42017e-11
2.27055e-11
3.88784e-11
3.88819e-11
2.70835e-08
-3.9962e-11
2.72353e-08
-2.70834e-08
-3.81098e-11
-3.78606e-11
-5.63956e-13
1.12549e-07
3.08131e-11
3.94106e-11
-3.13816e-11
-5.66042e-11
5.45155e-11
5.69758e-11
-5.58759e-11
-2.83284e-11
5.06145e-12
7.30487e-13
1.13583e-07
2.74997e-11
2.91711e-11
-2.85795e-11
-3.73947e-11
5.34051e-11
3.69531e-11
-5.54407e-11
1.12551e-07
-7.35644e-12
-1.12548e-07
1.77685e-12
-3.84519e-11
-3.11094e-11
3.08314e-11
5.75103e-11
-5.49602e-11
5.4953e-11
-5.56194e-11
2.98924e-11
1.13583e-07
-5.72182e-12
-1.13582e-07
1.24558e-12
-2.78253e-11
-2.79309e-11
3.16299e-11
3.72852e-11
-5.44852e-11
5.14832e-11
-3.64718e-11
-4.67142e-11
2.66072e-11
1.13594e-07
2.6036e-11
2.77446e-11
-2.84313e-11
-3.73692e-11
5.28928e-11
-5.55401e-11
3.74808e-11
-7.29373e-12
-1.12524e-07
1.54126e-12
-3.8584e-11
-3.09901e-11
3.11597e-11
5.77409e-11
-5.49753e-11
-5.56059e-11
5.55494e-11
5.27791e-11
1.13546e-07
4.55591e-11
-1.13593e-07
-2.50091e-11
-2.61839e-11
-2.79966e-11
2.66213e-11
3.74385e-11
-5.3626e-11
5.43474e-11
-3.67357e-11
4.59265e-11
3.2142e-11
2.70875e-08
-4.39697e-11
2.72378e-08
-2.70875e-08
-4.57388e-11
-3.07159e-11
7.37174e-11
-3.32501e-11
1.13593e-07
1.88082e-11
4.57412e-11
-1.92479e-11
-1.94042e-12
2.58514e-11
-2.73879e-11
6.46215e-13
-7.28086e-12
-1.13534e-07
3.24953e-12
-4.40596e-11
-1.97352e-11
1.46372e-11
2.53232e-12
-2.59203e-11
-6.14389e-13
2.87514e-11
2.41141e-11
1.13655e-07
-7.57144e-11
-1.13594e-07
3.58284e-11
-4.60274e-11
-1.87032e-11
1.88598e-11
1.99946e-12
-2.67964e-11
2.58785e-11
-1.69683e-13
-2.70975e-08
-6.03445e-11
-1.46824e-11
3.5501e-11
3.82407e-11
3.93082e-11
3.8527e-11
2.70844e-08
-3.59689e-11
-3.97041e-11
2.72356e-08
-2.70844e-08
-3.78448e-11
-3.76541e-11
-1.47825e-12
1.14606e-07
1.37231e-11
3.60439e-11
-1.52516e-11
2.14862e-11
2.35672e-11
-2.28881e-11
-2.65353e-11
-3.53102e-11
9.42423e-12
-2.03115e-12
1.14636e-07
1.47122e-11
3.6015e-11
-1.97282e-11
2.14501e-11
2.35238e-11
-2.29425e-11
-2.39581e-11
1.14609e-07
-1.13703e-11
-1.14606e-07
8.32315e-12
-3.57219e-11
-1.54648e-11
1.34899e-11
-2.17669e-11
-2.45294e-11
2.47348e-11
2.32703e-11
3.57895e-11
1.14637e-07
-1.14387e-11
-1.14634e-07
8.80183e-12
-3.55882e-11
-1.64679e-11
1.4367e-11
-2.17491e-11
-2.44501e-11
2.46437e-11
2.33447e-11
3.91278e-11
3.89174e-11
2.70835e-08
-3.98996e-11
2.72349e-08
-2.70834e-08
-3.789e-11
-3.79453e-11
-3.12088e-12
1.12548e-07
3.09751e-11
3.96982e-11
-3.12139e-11
-5.69717e-11
5.43578e-11
5.6686e-11
-5.61331e-11
-2.77689e-11
8.1865e-12
-2.25269e-12
1.13579e-07
2.79306e-11
2.96664e-11
-2.81642e-11
-3.78135e-11
5.31838e-11
3.65452e-11
-5.56607e-11
1.12549e-07
-1.28929e-11
-1.12546e-07
5.77791e-12
-3.84121e-11
-3.1231e-11
3.09222e-11
5.76725e-11
-5.43423e-11
5.52765e-11
-5.52231e-11
3.00012e-11
1.1358e-07
-1.10425e-11
-1.13579e-07
4.49619e-12
-2.77081e-11
-2.81044e-11
3.16853e-11
3.75498e-11
-5.40193e-11
5.17354e-11
-3.60296e-11
4.73212e-10
-1.41832e-10
1.12787e-07
7.50363e-11
1.98125e-10
6.61269e-11
-4.02944e-11
5.34327e-11
-8.30912e-11
3.78314e-11
-1.14703e-11
-1.12521e-07
4.76589e-12
-3.866e-11
-3.11752e-11
3.10181e-11
5.79531e-11
-5.45015e-11
-5.51324e-11
5.57809e-11
-1.18143e-10
1.13544e-07
-4.7609e-10
-1.12787e-07
1.45281e-10
-1.95959e-10
-7.65726e-11
-6.47833e-11
4.06381e-11
-5.38758e-11
7.93101e-11
-3.69625e-11
4.59742e-11
3.26524e-11
2.70876e-08
-4.38389e-11
2.72373e-08
-2.70874e-08
-4.57932e-11
-3.0319e-11
-5.52557e-10
1.70674e-10
1.14453e-07
-2.73398e-11
-1.18499e-10
-1.17402e-10
1.4397e-12
2.48042e-11
1.93772e-12
2.57053e-13
-1.45213e-11
-1.13537e-07
9.53883e-12
-4.41764e-11
-1.98257e-11
1.45454e-11
3.06873e-12
-2.52636e-11
1.3286e-13
2.91893e-11
1.82025e-10
1.13659e-07
5.46181e-10
-1.14454e-07
-1.6743e-10
1.17843e-10
2.70899e-11
1.1377e-10
-8.99629e-13
-2.48899e-11
-3.74213e-13
1.22882e-12
-2.70984e-08
7.60553e-11
-1.63099e-10
3.52718e-11
3.79291e-11
3.96096e-11
3.85594e-11
2.70842e-08
-3.54976e-11
-3.93954e-11
2.72344e-08
-2.70838e-08
-3.78101e-11
-3.78838e-11
-7.07728e-12
1.14607e-07
1.4024e-11
3.62619e-11
-1.49611e-11
2.10533e-11
2.33561e-11
-2.32543e-11
-2.68083e-11
-3.51194e-11
1.60164e-11
-7.63517e-12
1.14635e-07
1.47998e-11
3.62425e-11
-1.57735e-11
2.10326e-11
2.30726e-11
-2.32539e-11
-2.69799e-11
1.14608e-07
-2.30791e-11
-1.14606e-07
1.77447e-11
-3.60673e-11
-1.61394e-11
1.30547e-11
-2.07545e-11
-2.30462e-11
2.56554e-11
2.48928e-11
3.53215e-11
1.14637e-07
-2.34427e-11
-1.14634e-07
1.8553e-11
-3.60462e-11
-1.72234e-11
1.37909e-11
-2.07517e-11
-2.30353e-11
2.55968e-11
2.48825e-11
3.9355e-11
3.90472e-11
2.70831e-08
-3.97572e-11
2.72336e-08
-2.70826e-08
-3.77519e-11
-3.81232e-11
-8.37514e-12
1.12546e-07
3.12873e-11
3.99791e-11
-3.07851e-11
-5.7428e-11
5.37562e-11
5.61799e-11
-5.67729e-11
-2.74542e-11
1.39143e-11
-7.32596e-12
1.13577e-07
2.82504e-11
3.00137e-11
-2.77021e-11
-3.83656e-11
5.26402e-11
3.60081e-11
-5.63261e-11
1.12547e-07
-2.3083e-11
-1.12544e-07
1.40427e-11
-3.86167e-11
-3.16597e-11
3.07637e-11
5.82783e-11
-5.3245e-11
5.57452e-11
-5.39187e-11
2.97274e-11
1.13579e-07
-2.07944e-11
-1.13577e-07
1.21328e-11
-2.80094e-11
-2.87232e-11
3.13162e-11
3.81e-11
-5.29059e-11
5.22993e-11
-3.48559e-11
-3.72708e-11
1.89042e-11
1.13592e-07
2.64673e-11
2.8607e-11
-2.78937e-11
-3.83513e-11
5.1933e-11
-5.65364e-11
3.66054e-11
-2.23122e-11
-1.12519e-07
1.37188e-11
-3.87396e-11
-3.15509e-11
3.09133e-11
5.85063e-11
-5.33414e-11
-5.4084e-11
5.63807e-11
5.27675e-11
1.13545e-07
3.01855e-11
-1.13592e-07
-1.42146e-11
-2.61109e-11
-2.85285e-11
2.63802e-11
3.82888e-11
-5.19131e-11
5.51269e-11
-3.53073e-11
4.60979e-11
3.29375e-11
2.70873e-08
-4.34667e-11
2.72368e-08
-2.70874e-08
-4.5917e-11
-3.02822e-11
8.32859e-11
-4.21876e-11
1.13599e-07
1.92164e-11
4.61608e-11
-1.87542e-11
-2.3597e-12
2.56541e-11
-2.77448e-11
4.32086e-13
-2.7359e-11
-1.13538e-07
1.76853e-11
-4.45328e-11
-2.05543e-11
1.41383e-11
3.97063e-12
-2.35519e-11
1.74155e-12
3.02477e-11
2.36256e-11
1.13659e-07
-9.60711e-11
-1.13599e-07
5.0336e-11
-4.64249e-11
-1.93203e-11
1.85951e-11
3.65253e-12
-2.42683e-11
2.74472e-11
2.35731e-12
-2.70971e-08
-6.05143e-11
-1.41754e-11
3.50615e-11
3.75054e-11
3.97888e-11
3.84855e-11
2.70835e-08
-3.48272e-11
-3.86668e-11
2.72333e-08
-2.70839e-08
-3.79584e-11
-3.79402e-11
-1.74781e-11
1.14606e-07
1.4364e-11
3.66117e-11
-1.44153e-11
1.99765e-11
2.22758e-11
-2.40939e-11
-2.8115e-11
-3.49098e-11
2.91974e-11
-1.88468e-11
1.14636e-07
1.52378e-11
3.66227e-11
-1.89373e-11
1.96812e-11
2.22852e-11
-2.42003e-11
-2.54617e-11
1.14608e-07
-4.5267e-11
-1.14607e-07
3.4918e-11
-3.64918e-11
-1.74443e-11
1.25965e-11
-1.91984e-11
-2.00498e-11
2.71845e-11
2.78235e-11
3.47903e-11
1.14635e-07
-4.60967e-11
-1.14635e-07
3.66029e-11
-3.63824e-11
-1.83277e-11
1.34084e-11
-1.92033e-11
-2.00731e-11
2.71945e-11
2.78024e-11
3.96454e-11
3.89213e-11
2.70823e-08
-3.92258e-11
2.72327e-08
-2.70828e-08
-3.77138e-11
-3.81946e-11
-1.85138e-11
1.12544e-07
3.18673e-11
4.05227e-11
-3.01006e-11
-5.89031e-11
5.25981e-11
5.50201e-11
-5.81421e-11
-2.72476e-11
2.64395e-11
-1.66007e-11
1.13575e-07
2.85404e-11
3.03091e-11
-2.72932e-11
-3.9696e-11
5.14382e-11
3.50192e-11
-5.76253e-11
1.12545e-07
-4.31562e-11
-1.12544e-07
3.01192e-11
-3.91048e-11
-3.28609e-11
3.02608e-11
5.97353e-11
-5.05762e-11
5.71771e-11
-5.13737e-11
2.90763e-11
1.13576e-07
-4.11234e-11
-1.13576e-07
2.77314e-11
-2.84218e-11
-2.96175e-11
3.10087e-11
3.95478e-11
-4.99607e-11
5.36647e-11
-3.20552e-11
4.91678e-10
-1.56742e-10
1.12786e-07
7.59035e-11
1.99125e-10
6.72827e-11
-4.2367e-11
5.17844e-11
-8.4983e-11
3.61336e-11
-4.1557e-11
-1.12518e-07
2.81233e-11
-3.91993e-11
-3.25674e-11
3.06487e-11
6.01356e-11
-5.06676e-11
-5.12929e-11
5.77304e-11
-1.18829e-10
1.13541e-07
-5.06108e-10
-1.12786e-07
1.68583e-10
-1.96421e-10
-7.79931e-11
-6.54413e-11
4.27451e-11
-5.00061e-11
8.11175e-11
-3.30099e-11
4.60604e-11
3.30346e-11
2.70871e-08
-4.28039e-11
2.72355e-08
-2.70872e-08
-4.59667e-11
-3.04919e-11
-5.31317e-10
1.53614e-10
1.14457e-07
-2.66885e-11
-1.1779e-10
-1.16454e-10
-2.48683e-13
2.34513e-11
4.20739e-13
-1.00225e-12
-5.15446e-11
-1.13541e-07
3.78285e-11
-4.49506e-11
-2.15118e-11
1.37852e-11
5.64425e-12
-2.07125e-11
4.74161e-12
3.17969e-11
1.80921e-10
1.1366e-07
5.09226e-10
-1.14456e-07
-1.39129e-10
1.17043e-10
2.55732e-11
1.13185e-10
1.63395e-12
-2.01998e-11
2.21909e-12
5.71046e-12
-2.70979e-08
7.57083e-11
-1.62916e-10
3.43026e-11
3.6718e-11
4.00454e-11
3.89794e-11
2.70832e-08
-3.31916e-11
-3.68571e-11
2.7231e-08
-2.70839e-08
-3.85126e-11
-3.85092e-11
-3.8833e-11
1.14608e-07
1.52487e-11
3.74422e-11
-1.3399e-11
1.70357e-11
2.02049e-11
-2.64915e-11
-3.06257e-11
-3.41971e-11
5.52077e-11
-4.00517e-11
1.14635e-07
1.6086e-11
3.73267e-11
-1.42354e-11
1.68703e-11
1.98159e-11
-2.66255e-11
-3.07313e-11
1.14603e-07
-8.33255e-11
-1.1461e-07
6.89822e-11
-3.71038e-11
-2.01204e-11
1.205e-11
-1.56541e-11
-1.4794e-11
3.05436e-11
3.30336e-11
3.31533e-11
1.1463e-07
-8.59444e-11
-1.14637e-07
7.03064e-11
-3.69725e-11
-2.09725e-11
1.28479e-11
-1.54011e-11
-1.44198e-11
3.06057e-11
3.34303e-11
4.00029e-11
3.93102e-11
2.70822e-08
-3.74562e-11
2.72309e-08
-2.70832e-08
-3.8319e-11
-3.88125e-11
-3.80754e-11
1.12545e-07
3.28608e-11
4.13978e-11
-2.91357e-11
-6.16176e-11
5.04428e-11
5.28417e-11
-6.05799e-11
-2.6693e-11
4.90905e-11
-3.45323e-11
1.13575e-07
2.93827e-11
3.09352e-11
-2.64843e-11
-4.23101e-11
4.93753e-11
3.28831e-11
-6.01312e-11
1.12539e-07
-7.86848e-11
-1.12546e-07
6.1838e-11
-3.99229e-11
-3.55202e-11
2.95849e-11
6.32923e-11
-4.5383e-11
6.056e-11
-4.62353e-11
2.7397e-11
1.13571e-07
-7.66021e-11
-1.13576e-07
5.78947e-11
-2.91219e-11
-3.23664e-11
3.02722e-11
4.31371e-11
-4.48869e-11
5.69072e-11
-2.68167e-11
-1.47622e-12
-8.56476e-12
1.1359e-07
2.78778e-11
2.95506e-11
-2.64614e-11
-4.24081e-11
4.87189e-11
-6.0485e-11
3.34424e-11
-7.77134e-11
-1.1252e-07
6.0298e-11
-3.98891e-11
-3.52369e-11
3.0063e-11
6.36049e-11
-4.50955e-11
-4.59798e-11
6.11173e-11
5.03508e-11
1.13537e-07
-2.47026e-11
-1.13591e-07
3.28454e-11
-2.73819e-11
-3.24576e-11
2.51661e-11
4.31343e-11
-4.42524e-11
5.94828e-11
-2.75102e-11
4.6436e-11
3.325e-11
2.70867e-08
-4.12753e-11
2.72336e-08
-2.70874e-08
-4.64566e-11
-3.10977e-11
1.25896e-10
-7.45754e-11
1.13601e-07
2.05409e-11
4.70382e-11
-1.73738e-11
-6.77601e-12
2.22692e-11
-3.19652e-11
-2.98315e-12
-9.30674e-11
-1.13543e-07
7.13624e-11
-4.55578e-11
-2.39407e-11
1.33544e-11
9.1621e-12
-1.51556e-11
1.02588e-11
3.50895e-11
2.15029e-11
1.13655e-07
-1.62104e-10
-1.13601e-07
1.03206e-10
-4.75305e-11
-2.27049e-11
1.77229e-11
8.89584e-12
-1.55391e-11
3.23945e-11
1.09465e-11
-2.70973e-08
-6.11224e-11
-1.48783e-11
3.28003e-11
3.51292e-11
4.08283e-11
3.97267e-11
2.70825e-08
-2.9564e-11
-3.27183e-11
2.72271e-08
-2.70849e-08
-4.00954e-11
-3.98281e-11
-7.86752e-11
1.14613e-07
1.74805e-11
3.85894e-11
-1.16605e-11
1.08261e-11
1.57135e-11
-3.07946e-11
-3.65024e-11
-3.27478e-11
1.01358e-10
-8.05872e-11
1.14641e-07
1.82407e-11
3.86538e-11
-1.63513e-11
1.0222e-11
1.5354e-11
-3.11191e-11
-3.43814e-11
1.14584e-07
-1.4475e-10
-1.14618e-07
1.3403e-10
-3.80062e-11
-2.58356e-11
1.12703e-11
-8.4029e-12
-4.72619e-12
3.75387e-11
4.32742e-11
2.99957e-11
1.14615e-07
-1.50149e-10
-1.14647e-07
1.34171e-10
-3.77567e-11
-2.62514e-11
1.2299e-11
-7.92879e-12
-4.02973e-12
3.77907e-11
4.40601e-11
4.08286e-11
4.00094e-11
2.70819e-08
-3.34788e-11
2.72278e-08
-2.70847e-08
-3.98461e-11
-3.97726e-11
-7.45856e-11
1.12549e-07
3.49435e-11
4.2664e-11
-2.759e-11
-6.75609e-11
4.62995e-11
4.87714e-11
-6.61949e-11
-2.53885e-11
8.89539e-11
-6.97318e-11
1.13579e-07
3.12254e-11
3.19037e-11
-2.51135e-11
-4.81384e-11
4.50961e-11
2.88199e-11
-6.5809e-11
1.12522e-07
-1.34197e-10
-1.12555e-07
1.22492e-10
-4.14781e-11
-4.16319e-11
2.85001e-11
7.05971e-11
-3.5671e-11
6.75003e-11
-3.63907e-11
2.37735e-11
1.13558e-07
-1.31941e-10
-1.13589e-07
1.16982e-10
-3.04092e-11
-3.8209e-11
2.9194e-11
5.00765e-11
-3.54111e-11
6.37717e-11
-1.75172e-11
5.54947e-10
-2.10212e-10
1.12789e-07
7.84892e-11
2.00771e-10
6.93863e-11
-5.08951e-11
4.52675e-11
-9.32416e-11
2.97795e-11
-1.31576e-10
-1.12533e-07
1.18997e-10
-4.1588e-11
-4.11069e-11
2.88778e-11
7.13296e-11
-3.516e-11
-3.56104e-11
6.83789e-11
-1.24212e-10
1.13522e-07
-5.98177e-10
-1.12798e-07
2.58903e-10
-1.98571e-10
-8.68109e-11
-6.70682e-11
5.34836e-11
-3.51079e-11
9.15126e-11
-1.80474e-11
4.74427e-11
3.38375e-11
2.70863e-08
-3.79424e-11
2.72308e-08
-2.70891e-08
-4.75782e-11
-3.24182e-11
-4.54258e-10
9.06011e-11
1.14462e-07
-2.35598e-11
-1.15907e-10
-1.14125e-10
-1.01046e-11
1.65091e-11
-8.85449e-12
-8.16075e-12
-1.6089e-10
-1.13553e-07
1.39996e-10
-4.66202e-11
-2.92095e-11
1.26971e-11
1.65283e-11
-4.91728e-12
2.06606e-11
4.21129e-11
1.75945e-10
1.13638e-07
4.00865e-10
-1.14466e-07
-3.8323e-11
1.15374e-10
1.79984e-11
1.12209e-10
1.2825e-11
-4.24381e-12
1.25833e-11
2.20968e-11
-2.70992e-08
7.39839e-11
-1.64854e-10
3.04737e-11
3.26962e-11
4.15022e-11
4.06939e-11
2.70817e-08
-2.54663e-11
-2.76159e-11
2.72204e-08
-2.70888e-08
-3.94843e-11
-3.90431e-11
-1.54402e-10
1.14632e-07
2.14174e-11
4.13259e-11
-8.16677e-12
-1.1064e-12
6.57881e-12
-4.01121e-11
-4.82164e-11
-3.04769e-11
1.72305e-10
-1.55142e-10
1.14661e-07
2.19025e-11
4.10344e-11
-9.38988e-12
-2.21167e-12
5.67449e-12
-4.06959e-11
-4.93128e-11
1.14531e-07
-2.22842e-10
-1.14658e-07
2.53043e-10
-4.0888e-11
-3.44103e-11
9.24865e-12
4.78016e-12
1.5808e-11
5.14204e-11
6.54235e-11
2.6384e-11
1.14564e-07
-2.31797e-10
-1.14687e-07
2.51466e-10
-4.07155e-11
-3.42144e-11
1.03779e-11
5.59267e-12
1.74419e-11
5.2128e-11
6.71034e-11
4.13192e-11
4.11992e-11
2.70816e-08
-2.88131e-11
2.72216e-08
-2.70888e-08
-3.88834e-11
-3.8737e-11
-1.44589e-10
1.1257e-07
3.82557e-11
4.56496e-11
-2.42909e-11
-7.89128e-11
3.78403e-11
4.0015e-11
-7.76282e-11
-2.31576e-11
1.48171e-10
-1.37947e-10
1.13603e-07
3.46855e-11
3.42713e-11
-2.2072e-11
-5.91901e-11
3.66517e-11
2.0322e-11
-7.69002e-11
1.12472e-07
-2.00198e-10
-1.12598e-07
2.33945e-10
-4.55914e-11
-5.05354e-11
2.59772e-11
8.42015e-11
-1.60921e-11
8.17368e-11
-1.52728e-11
1.89494e-11
1.1351e-07
-1.96755e-10
-1.13633e-07
2.27567e-10
-3.39142e-11
-4.72682e-11
2.69862e-11
6.32178e-11
-1.61729e-11
7.75829e-11
3.17831e-12
9.73292e-11
-1.13564e-10
1.13618e-07
3.31816e-11
3.32395e-11
-2.19971e-11
-5.91079e-11
3.62069e-11
-7.69835e-11
2.1001e-11
-1.95893e-10
-1.12578e-07
2.29695e-10
-4.55218e-11
-4.96706e-11
2.63455e-11
8.52409e-11
-1.44595e-11
-1.37949e-11
8.30324e-11
4.20494e-11
1.13472e-07
-1.45438e-10
-1.13646e-07
2.04197e-10
-3.21349e-11
-4.75446e-11
2.17272e-11
6.33427e-11
-1.52429e-11
8.03781e-11
2.69858e-12
4.85437e-11
3.45945e-11
2.70865e-08
-3.34638e-11
2.72243e-08
-2.70932e-08
-4.68151e-11
-3.18702e-11
2.50061e-10
-1.94102e-10
1.13622e-07
2.6565e-11
5.11203e-11
-1.24313e-11
-2.61146e-11
8.06231e-12
-5.06825e-11
-1.73184e-11
-2.47886e-10
-1.1359e-07
2.61299e-10
-5.0065e-11
-3.74921e-11
1.0468e-11
3.04672e-11
1.64419e-11
4.36794e-11
5.65134e-11
1.3903e-11
1.13588e-07
-3.17336e-10
-1.13648e-07
2.89708e-10
-5.20989e-11
-3.58823e-11
1.50772e-11
3.04307e-11
1.63915e-11
5.41667e-11
4.50871e-11
-2.71025e-08
-6.16005e-11
-1.53703e-11
3.07732e-11
3.2575e-11
3.76127e-11
3.78576e-11
2.70816e-08
-3.74531e-11
-3.76787e-11
2.72078e-08
-2.70994e-08
-1.57803e-11
-1.74559e-11
-2.91107e-10
1.14708e-07
2.40238e-11
5.02411e-11
1.30792e-12
-1.99132e-11
-1.48752e-11
-6.30686e-11
-6.92631e-11
-3.13752e-11
2.4772e-10
-2.88e-10
1.14738e-07
2.37487e-11
4.96435e-11
-4.41183e-12
-2.21192e-11
-1.60472e-11
-6.41781e-11
-6.89095e-11
1.14348e-07
-2.50134e-10
-1.14795e-07
4.33176e-10
-5.26428e-11
-3.11351e-11
2.60563e-12
2.82836e-11
6.95756e-11
8.29828e-11
1.27145e-10
4.04114e-11
1.14382e-07
-2.65689e-10
-1.14821e-07
4.24537e-10
-5.26376e-11
-2.87164e-11
3.53367e-12
2.99586e-11
7.24973e-11
8.45359e-11
1.30662e-10
3.75435e-11
3.79403e-11
2.70816e-08
-3.96861e-11
2.72097e-08
-2.70992e-08
-1.48846e-11
-1.55399e-11
-2.71494e-10
1.12648e-07
4.04876e-11
5.53815e-11
-1.52203e-11
-9.68745e-11
1.7767e-11
1.82422e-11
-9.8179e-11
-2.35082e-11
2.04334e-10
-2.63932e-10
1.13683e-07
3.69114e-11
4.34644e-11
-1.29186e-11
-7.66341e-11
1.71401e-11
-8.71575e-13
-9.6764e-11
1.12292e-07
-2.13331e-10
-1.12734e-07
4.03757e-10
-5.95626e-11
-4.8202e-11
1.87416e-11
1.0862e-10
3.572e-11
1.13892e-10
4.46938e-11
2.91498e-11
1.13329e-07
-2.04811e-10
-1.1377e-07
3.9904e-10
-4.64747e-11
-4.51154e-11
1.99967e-11
8.61908e-11
3.39795e-11
1.08594e-10
6.08858e-11
6.70925e-10
-4.07259e-10
1.12891e-07
8.40472e-11
2.13234e-10
8.16737e-11
-7.95283e-11
1.70317e-11
-1.24441e-10
-5.09046e-14
-2.02766e-10
-1.12717e-07
3.94244e-10
-5.96137e-11
-4.59737e-11
1.9146e-11
1.10388e-10
3.91704e-11
4.74525e-11
1.15871e-10
-1.17566e-10
1.13291e-07
-6.76298e-10
-1.12979e-07
5.44929e-10
-2.15335e-10
-9.40711e-11
-7.69531e-11
9.02969e-11
3.50329e-11
1.37266e-10
6.11258e-11
4.53853e-11
3.11438e-11
2.70864e-08
-4.4616e-11
2.7212e-08
-2.7104e-08
-2.42815e-11
-1.00008e-11
-2.98212e-10
-1.25004e-10
1.14554e-07
-1.7364e-11
-1.04542e-10
-1.02168e-10
-4.25105e-11
-1.47553e-11
-4.33274e-11
-4.13621e-11
-2.92859e-10
-1.13721e-07
4.46902e-10
-6.30058e-11
-3.39942e-11
3.08957e-12
5.52161e-11
7.11021e-11
1.07134e-10
8.90369e-11
1.83488e-10
1.13408e-07
2.72943e-10
-1.14636e-07
2.62761e-10
9.89878e-11
1.46375e-11
1.035e-10
5.12595e-11
7.22138e-11
5.94633e-11
1.08788e-10
-2.71138e-08
9.7696e-11
-1.40951e-10
5.38101e-11
5.37969e-11
7.37167e-12
1.06134e-11
2.70821e-08
-2.0101e-10
-1.93506e-10
2.71817e-08
-2.71167e-08
1.71464e-10
1.58113e-10
-4.87425e-10
1.14936e-07
6.49007e-12
8.57453e-11
3.06804e-11
-3.75201e-11
-6.97098e-11
-1.28488e-10
-1.02985e-10
-5.64658e-11
1.85639e-10
-4.74939e-10
1.14962e-07
4.36406e-12
8.4133e-11
2.81747e-11
-4.15283e-11
-7.13937e-11
-1.30562e-10
-1.07075e-10
1.13643e-07
-1.54359e-10
-1.15146e-07
3.88832e-10
-7.41685e-11
1.08337e-10
1.98919e-11
1.07855e-10
2.94257e-10
2.13867e-10
3.97753e-10
2.09046e-10
1.13683e-07
-1.80292e-10
-1.15166e-07
3.62324e-10
-7.51642e-11
1.16461e-10
2.0457e-11
1.10031e-10
2.99548e-10
2.16164e-10
4.04004e-10
6.84604e-12
9.11869e-12
2.7082e-08
-1.9676e-10
2.71848e-08
-2.71166e-08
1.71736e-10
1.65888e-10
-4.55049e-10
1.12875e-07
2.37723e-11
9.3047e-11
1.40444e-11
-1.1437e-10
-3.47038e-11
-4.60092e-11
-1.33386e-10
-4.52802e-11
1.15728e-10
-4.52396e-10
1.13911e-07
1.97479e-11
8.07109e-11
1.73366e-11
-9.15078e-11
-3.42512e-11
-6.32502e-11
-1.29143e-10
1.11617e-07
-1.41838e-10
-1.13076e-07
3.66268e-10
-8.81033e-11
8.65674e-11
3.16979e-11
1.92506e-10
2.56476e-10
2.48367e-10
3.13875e-10
1.89894e-10
1.1264e-07
-1.1541e-10
-1.1412e-07
3.66443e-10
-7.07695e-11
9.29891e-11
3.62291e-11
1.66254e-10
2.50912e-10
2.3981e-10
3.24068e-10
6.89076e-11
-4.30307e-10
1.13928e-07
1.73343e-11
8.05984e-11
1.6977e-11
-9.19866e-11
-3.58096e-11
-1.30534e-10
-6.37342e-11
-1.15133e-10
-1.13069e-07
3.51374e-10
-8.74293e-11
9.0797e-11
3.23364e-11
1.94583e-10
2.6513e-10
3.20703e-10
2.50743e-10
2.15644e-10
1.12602e-07
-7.34465e-11
-1.14138e-07
3.46268e-10
-7.0634e-11
9.36418e-11
3.17108e-11
1.67174e-10
2.54731e-10
2.44025e-10
3.26667e-10
1.63307e-11
3.7147e-12
2.70868e-08
-2.00453e-10
2.71859e-08
-2.7121e-08
1.58558e-10
1.66932e-10
2.79804e-10
-5.27847e-10
1.13917e-07
1.20462e-11
9.55457e-11
2.63775e-11
-6.65961e-11
-6.94093e-11
-1.08953e-10
-1.08006e-10
-2.27847e-10
-1.14061e-07
4.11005e-10
-8.72274e-11
9.96219e-11
1.59954e-11
1.38576e-10
2.97802e-10
3.81263e-10
2.22063e-10
1.83001e-10
1.12725e-07
-2.95155e-10
-1.14119e-07
4.30192e-10
-8.99731e-11
1.03179e-10
2.06037e-11
1.38718e-10
2.99472e-10
2.19028e-10
3.85178e-10
-2.71308e-08
1.46693e-10
1.85723e-10
1.44372e-10
1.42458e-10
-9.2047e-11
-7.80669e-11
2.70649e-08
-6.18984e-10
1.5257e-10
2.73354e-08
-2.65727e-08
8.68391e-11
-3.83158e-10