/*--------------------------------*- C++ -*----------------------------------*\
| =========                 |                                                 |
| \\      /  F ield         | OpenFOAM: The Open Source CFD Toolbox           |
|  \\    /   O peration     | Version:  2206                                  |
|   \\  /    A nd           | Website:  www.openfoam.com                      |
|    \\/     M anipulation  |                                                 |
\*---------------------------------------------------------------------------*/
FoamFile
{
    version     2.0;
    format      ascii;
    arch        "LSB;label=32;scalar=64";
    class       volScalarField;
    location    "130";
    object      omega;
}
// * * * * * * * * * * * * * * * * * * * * * * * * * * * * * * * * * * * * * //

dimensions      [0 0 -1 0 0 0 0];

internalField   nonuniform List<scalar> 
66621
(
297.338
173.172
298.415
101.052
162.758
35.284
399.249
97.9841
47.9678
34.3789
161.341
56.7608
207.696
206.191
398.266
399.162
56.9737
206.513
207.823
49.0534
162.204
207.734
399.279
101.344
49.4
163.667
35.8224
172.963
298.475
101.046
49.6969
35.7891
163.482
172.391
298.413
101.051
49.6229
35.7659
163.44
172.329
298.365
56.5345
207.757
206.181
397.612
98.0105
48.117
34.5606
161.214
169.728
296.348
169.729
296.333
399.12
397.613
215.038
416.747
329.412
185.448
309.594
172.928
185.299
309.551
329.374
417.832
216.64
298.291
216.412
417.745
399.269
248.111
402.362
402.281
402.402
402.307
248.271
181.119
306.846
207.661
131.531
131.186
306.762
181.042
179.485
306.577
206.097
130.075
129.742
306.516
179.439
399.181
248.122
401.67
402.741
401.914
402.803
248.247
180.499
305.959
130.275
306.04
180.627
179.96
307.325
207.688
131.153
307.269
179.972
130.816
402.225
248.537
307.009
130.641
180.389
329.358
309.584
185.115
172.729
309.535
184.829
329.39
417.97
216.43
298.338
216.328
417.864
184.857
309.567
329.396
216.493
417.854
309.561
184.904
329.386
216.451
417.778
248.126
402.708
402.007
402.818
401.965
248.386
179.741
307.294
207.684
130.999
307.232
130.543
180.28
180.373
306.162
205.982
129.988
129.623
306.082
180.529
397.624
326.073
182.042
306.192
169.617
181.922
306.249
326.018
415.41
213.519
296.281
213.513
415.306
326.065
181.992
306.187
169.254
181.817
306.209
326.01
415.383
213.479
296.264
213.331
415.295
397.628
29.0925
21.8775
22.1757
16.3136
29.4392
22.0699
22.1067
16.3327
29.1378
22.3024
21.4475
16.2842
29.0208
22.3223
21.5473
16.2768
65.5988
110.052
59.6351
100.511
109.558
59.2794
65.9584
128.791
100.875
77.2076
62.2457
57.3009
107.086
97.576
56.953
106.796
63.5432
74.8731
126.715
161.125
100.049
99.6883
126.432
74.4824
121.244
56.41
87.1261
86.3296
86.7486
85.9544
121.026
121.114
56.6426
86.5531
86.9134
121.46
86.1244
86.4916
127.6
100.682
76.3893
66.1651
110.452
59.9555
100.85
110.037
59.5301
66.415
77.2423
129.552
163.406
101.878
129.214
101.444
77.7077
66.071
59.9737
110.048
100.543
59.5797
109.562
65.9788
77.1143
129.129
163.212
101.558
128.774
77.5584
101.142
64.6804
59.6514
109.942
100.599
59.3209
109.454
66.0143
77.0684
129.149
163.18
101.657
101.234
128.637
77.5193
120.565
56.175
86.9412
86.0251
85.0442
86.5654
121.598
62.2759
57.1306
106.952
97.6599
56.8122
106.57
63.5617
74.7508
126.648
161.009
100.013
99.633
126.469
74.5577
741.565
1622.35
4477.79
16842.8
116782
741.332
1622.08
4477.1
16840.6
116802
717.528
1593.73
4406.7
16551.2
116892
717.326
1592.75
4402.75
16526.1
116862
717.195
1592.73
4402.7
16527.4
116912
717.603
1593.92
4407.76
16558.2
116872
742.591
1626.53
4496.45
16961.3
116814
742.212
1625.34
4491.94
16934.6
116781
741.504
1622.9
4480.97
16865.3
116772
717.577
1592.92
4403.18
16529.9
116881
741.862
1622.45
4478.43
16848.4
116795
742.067
1623.22
4481.85
16870.1
116802
717.225
1592.8
4403.06
16529.5
116892
717.546
1592.89
4403.29
16530.5
116911
727.755
1606.4
4432.49
16627.6
116752
727.376
1603.46
4433.8
16681.7
116727
727.443
1603.3
4432.08
16670.1
116727
727.592
1606.35
4433.45
16635.4
116752
741.412
1621.98
4475.72
16830.5
116802
717.624
1593.78
4406.32
16547.6
116892
741.449
1625.6
4495.45
16964.7
116795
741.476
1625.34
4493.59
16951.7
116795
741.133
1624.17
4489.13
16924.2
116795
741.172
1624.09
4488.23
16918.1
116795
717.305
1592.81
4402.39
16524.1
116912
715.321
1595.21
4406.02
16516.6
116904
742.126
1628.15
4507.06
17037.7
116777
728.303
1608.39
4441.11
16679.8
116747
727.656
1604.49
4438.44
16710.6
116725
727.703
1604.27
4436.41
16697.3
116725
728.137
1608.36
4442.22
16689
116747
742.693
1626.55
4495.14
16951.6
116814
727.466
1603.91
4435.97
16694.9
116749
727.945
1607.57
4438.83
16668
116774
727.467
1603.93
4436.3
16697.7
116747
727.874
1607.4
4438.02
16663.1
116769
715.336
1594.93
4405.05
16509.9
116904
741.82
1626.28
4498.24
16981
116759
741.874
1626.22
4497.28
16974
116759
717.658
1593.03
4403.17
16529
116881
728.02
1605.77
4430.16
16613.3
116769
727.512
1601.98
4426.82
16638.5
116747
727.561
1601.98
4426.54
16636.4
116747
727.886
1605.62
4430.16
16614.3
116769
741.931
1622.57
4478.89
16851.7
116795
728.012
1605.77
4430.12
16613.1
116774
727.529
1602.1
4427.27
16640.8
116749
727.571
1602.1
4427.05
16639
116749
727.872
1605.6
4430.02
16613.5
116774
742.114
1623.25
4481.83
16869.5
116802
717.627
1593
4403.27
16529.5
116911
715.21
1594.82
4404.77
16508.9
116918
715.301
1594.71
4404.2
16506.1
116921
714.601
1592.11
4402.68
16529
116835
714.794
1592.55
4403.55
16533.2
116840
714.61
1592.36
4403.84
16537.2
116840
715.289
1594.93
4404.97
16509.7
116918
741.364
1625.45
4494.64
16958.3
116777
741.388
1625.39
4493.64
16951.1
116777
715.337
1594.95
4404.63
16506.9
116918
715.424
1594.85
4404.09
16504.3
116921
715.213
1594.74
4404.16
16505
116933
741.544
1625.37
4494.18
16955
116776
741.679
1625.56
4494.99
16959
116776
715.187
1594.63
4403.65
16502.2
116921
740.769
1623.42
4485.78
16903.5
116795
740.79
1623.2
4484.35
16893.6
116795
715.355
1594.84
4404.17
16504.4
116933
715.318
1594.77
4403.69
16501.5
116921
715.358
1594.48
4411.47
16581.4
116852
715.171
1594.3
4411.97
16586.6
116852
714.984
1593.62
4409.15
16569.8
116840
714.726
1592.8
4405.76
16548.5
116831
715.419
1595.05
4404.87
16508
116918
715.442
1595.08
4405.03
16508.7
116904
715.1
1592.53
4403.56
16533.4
116835
714.95
1592.27
4403.21
16532.6
116835
715.116
1592.56
4403.66
16534.8
116840
714.962
1592.3
4403.32
16534.1
116840
398.851
399.275
55.9632
206.965
207.815
172.537
298.454
99.5351
48.4376
162.933
35.6464
172.32
298.498
99.886
48.5137
35.7336
162.656
49.2625
162.72
298.445
399.343
55.6497
207.726
206.015
397.675
97.0816
47.9027
34.015
160.83
96.798
47.2188
34.6959
160.7
169.331
296.381
169.67
296.374
55.7912
207.654
205.992
399.25
397.686
402.188
402.943
248.328
306.583
130.497
180.872
307.43
129.801
179.831
328.886
185.017
309.652
171.484
329.514
184.461
309.084
417.228
216.598
297.798
417.929
216.052
328.896
309.64
184.755
171.775
329.516
309.093
184.181
417.353
216.36
297.856
418.038
215.795
417.271
216.495
297.822
417.955
215.945
398.648
248.013
402.143
402.335
248.521
402.098
401.239
179.644
307.36
129.999
207.167
130.071
180.198
306.493
179.781
306.108
128.901
205.585
180.409
305.791
129.16
397.264
325.929
181.756
306.24
169.105
326.099
181.7
306.156
414.991
213.483
295.961
415.446
213.052
325.932
181.738
306.266
169.571
326.092
181.718
306.176
415.002
213.426
295.953
415.425
212.941
247.789
402.482
402.377
248.309
401.924
401.887
180.116
306.91
130.686
207.254
181.057
129.617
306.303
178.467
306.639
129.133
205.738
179.444
128.413
306.099
398.591
397.236
29.6767
21.9793
21.2072
16.3254
29.5883
22.1394
21.7518
16.4466
27.9843
21.7101
21.6808
15.919
28.9569
21.3124
21.8173
16.0148
86.0411
85.3596
120.934
65.9402
109.025
58.286
99.5835
66.3085
109.041
58.6877
77.5158
128.804
100.556
162.023
100.629
77.3756
127.746
65.9187
58.4749
108.899
98.3911
66.283
57.2218
107.789
77.4234
127.998
100.661
162.239
77.1327
127.034
99.3944
77.211
128.37
100.788
162.371
77.2584
128.244
99.5402
121.243
55.8643
85.9389
85.0673
85.7499
121.596
84.0483
63.7261
56.3903
105.595
97.4554
63.5531
56.707
106.484
75.7077
125.878
99.2986
160.294
75.8321
99.1603
125.163
63.7703
56.1618
105.79
96.1123
63.5708
56.5373
106.576
75.5377
125.939
98.6922
160.031
74.862
125.338
99.1465
120.978
55.9579
85.323
84.9742
121.035
85.6458
83.6841
29.8785
50.2805
29.9773
50.1759
48.8432
58.4402
58.0091
57.6005
49.5615
49.5259
49.503
49.3964
57.7814
57.5821
50.5861
50.6609
50.5783
50.5957
50.8727
49.8292
50.9122
56.8317
48.7845
48.6999
56.9619
50.3217
49.9117
50.1949
57.7052
49.637
170.083
296.361
296.28
170.086
397.7
397.582
173.31
298.444
298.347
173.344
30.0053
30.1726
30.3114
29.4385
30.0243
30.1021
30.201
102.03
163.819
36.5841
49.5572
163.848
35.6023
102.003
170.013
296.321
170.018
296.31
397.677
397.586
173.327
298.435
173.351
298.373
29.8443
29.8542
29.9215
102.161
163.885
36.8313
49.1726
102.214
163.789
36.2187
399.378
399.238
98.8499
35.0077
161.591
48.1673
34.4978
161.482
98.7932
207.869
206.321
58.0769
207.825
206.289
397.563
397.449
399.205
399.064
206.165
207.944
57.8392
206.077
207.904
397.463
397.529
399.085
399.175
57.2097
206.117
207.938
206.162
207.85
169.924
296.392
296.276
169.932
98.7396
161.616
35.5265
48.3782
161.669
34.6157
98.9463
98.4505
161.524
35.3835
48.2638
161.368
34.765
98.4821
169.704
296.286
296.279
169.95
169.494
296.319
296.34
169.859
97.5088
49.3047
161.622
35.4147
160.909
35.2869
98.6433
96.8966
49.1583
161.334
35.3877
160.801
34.7086
98.6119
206.194
207.903
57.5522
206.086
207.768
399.317
399.164
397.58
397.655
56.5179
205.985
207.792
206.037
207.591
399.187
399.268
102.015
163.952
37.036
49.8587
163.88
36.583
101.889
173.202
298.503
173.201
298.409
101.905
37.1676
163.548
49.4094
36.2173
102.054
163.58
173.134
298.375
298.385
173.396
101.177
49.7224
164.003
36.9389
163.421
36.2738
102.131
172.975
298.432
173.238
298.445
101.123
50.3841
37.0574
163.66
36.9595
102.078
163.443
172.987
298.486
298.392
173.16
102.028
37.0155
163.788
49.8341
36.3726
102.247
163.852
173.074
298.438
173.183
298.357
101.108
49.7809
163.854
36.0951
163.669
36.4299
101.49
172.973
298.423
298.432
173.038
100.707
50.7294
37.0413
163.938
36.3726
102.063
163.547
172.742
298.383
173.175
298.404
397.529
397.477
399.176
399.095
206.053
207.773
57.4552
206.219
208.018
169.814
296.328
169.417
296.332
98.5722
160.94
34.819
49.0767
97.4567
161.739
35.0481
98.5021
161.025
35.1731
48.9992
97.9956
161.395
35.2527
206.093
207.75
57.5436
206.241
207.831
399.292
399.228
102.176
163.462
36.6721
50.3623
101.296
164.11
36.7524
173.321
298.437
172.96
298.417
102.142
36.4298
162.877
50.1443
101.274
36.6597
163.676
173.3
298.456
172.895
298.406
101.963
36.8541
163.391
50.4105
101.12
36.8957
163.842
173.258
298.414
173.075
298.375
207.76
206.13
57.6598
207.635
206.114
397.685
397.618
206.055
397.684
98.9732
35.303
161.487
48.6074
34.8254
161.723
98.8895
169.946
296.388
296.34
169.978
169.877
296.408
296.398
169.945
97.9325
160.984
98.3511
161.223
169.828
296.365
170.066
296.369
399.203
399.078
397.688
397.622
206.199
397.676
326.113
306.198
182.279
169.949
306.249
182.16
326.017
415.282
296.268
213.646
213.469
415.408
415.383
213.57
296.295
213.42
415.248
326.041
169.71
306.269
182.333
306.192
182.039
326.095
397.578
397.654
329.424
185.428
309.555
172.853
185.247
309.63
329.276
417.684
298.332
216.679
216.526
417.854
417.828
216.514
298.386
216.442
417.65
329.316
173.165
185.466
309.661
185.188
309.542
329.41
326.103
169.61
306.103
182.237
306.242
181.909
325.945
415.284
213.631
296.252
415.398
213.527
326.042
169.69
306.259
182.256
326.082
306.194
182.022
415.397
213.651
296.249
213.478
415.253
397.587
397.646
329.405
172.9
185.492
309.57
184.967
309.615
329.315
417.698
216.654
298.35
417.851
216.526
329.335
173.008
185.51
309.651
329.403
185.263
309.548
417.822
216.603
298.356
216.383
417.668
399.235
399.319
248.378
402.298
402.241
402.405
402.348
248.374
181.35
132.064
207.726
306.934
131.683
306.797
181.063
180.067
130.897
206.145
306.528
130.315
306.477
179.912
180.884
306.792
207.582
132.145
131.264
306.835
181.324
179.631
306.562
206.074
130.876
130.03
306.578
179.974
248.379
402.362
402.346
402.258
402.229
248.424
397.45
397.528
399.057
399.164
248.312
401.74
402.646
401.862
402.772
248.251
180.991
130.914
206.058
306.077
305.972
130.479
180.512
180.444
131.891
207.765
307.381
307.272
130.977
180.174
180.596
305.987
206.026
130.947
306.052
180.639
130.042
180.394
307.281
207.68
131.838
307.351
180.253
131.467
248.261
401.864
402.775
401.729
402.636
248.204
397.521
397.435
399.172
399.059
248.244
401.858
402.769
248.286
401.722
402.63
181.048
130.787
205.917
305.984
306.039
129.808
180.874
180.515
131.843
207.736
307.277
307.335
131.426
180.172
180.86
306.045
130.416
206.038
180.865
305.954
130.177
180.482
307.335
131.16
207.843
180.063
307.259
131.396
248.164
401.726
402.637
401.842
402.754
248.248
326.108
306.195
182.078
169.755
306.242
181.759
326.016
415.341
296.29
213.574
213.402
415.462
415.454
213.387
296.332
213.348
415.318
326.047
169.512
306.253
182.2
306.176
182.002
326.094
326.036
306.226
182.031
169.624
326.085
306.183
181.929
415.402
296.271
213.603
415.259
213.479
415.269
213.537
296.244
415.385
213.5
326.083
169.56
306.2
182.224
326.01
306.234
182.197
326.028
306.226
181.723
169.346
326.078
306.18
181.627
415.475
296.331
213.459
213.306
415.333
415.34
213.311
296.279
415.452
213.345
326.072
169.644
306.191
182.02
306.234
181.855
326.004
248.331
402.233
402.368
402.355
402.491
248.211
179.822
130.595
205.991
306.509
306.432
130.186
179.675
181.123
131.652
207.729
307.002
130.824
306.868
180.75
179.384
306.492
205.904
130.653
306.533
129.734
179.578
180.913
306.868
207.587
131.796
131.436
306.941
180.772
248.317
402.346
402.447
402.222
402.334
248.37
399.169
399.272
397.648
397.566
248.243
402.347
402.495
248.276
402.208
402.357
179.775
130.495
205.908
306.51
129.502
306.565
179.384
181.254
131.705
207.602
306.891
306.941
131.36
180.989
179.754
306.556
130.093
206.002
129.884
179.51
306.485
180.958
306.924
130.797
207.715
180.773
306.845
131.036
248.214
402.212
402.365
402.33
402.485
248.184
399.274
399.16
329.46
309.559
172.869
185.287
309.64
184.957
329.323
417.825
216.52
298.399
216.354
417.994
329.357
172.873
309.662
185.349
309.538
185.158
329.449
417.966
216.435
298.444
216.262
417.782
329.312
185.077
309.623
173.21
329.38
185.311
309.544
417.856
298.4
216.639
417.673
216.447
417.692
216.631
298.328
417.839
216.59
329.387
172.913
185.497
309.566
329.296
185.223
309.628
329.35
309.627
172.884
185.138
329.428
309.546
185.105
417.985
216.435
298.453
216.291
417.799
329.412
172.943
309.561
185.101
309.631
184.967
329.322
417.819
216.421
298.382
417.968
216.42
329.469
185.238
309.578
172.692
184.827
309.656
329.339
417.82
298.387
216.596
216.425
417.992
417.965
216.405
298.437
216.337
417.773
329.37
172.924
185.277
309.704
185.027
309.568
329.461
329.453
309.574
172.74
185.29
309.66
185.03
329.325
417.745
216.663
298.34
216.528
417.916
329.351
172.966
309.707
185.455
309.575
185.27
329.442
417.898
216.568
298.406
216.451
417.71
329.35
184.959
309.64
172.799
329.434
185.065
309.551
417.969
298.45
216.514
216.332
417.785
417.793
216.284
298.38
417.943
216.411
329.4
172.597
185.256
309.556
184.793
309.624
329.315
329.355
309.638
172.987
185.002
329.424
309.559
185.461
417.905
216.588
298.427
216.502
417.719
329.421
172.747
309.574
185.451
309.639
185.281
329.339
417.737
216.535
298.354
417.89
216.63
397.455
397.52
399.072
399.167
248.319
401.748
402.665
401.856
402.771
248.29
180.933
130.3
306.03
206.066
180.656
305.971
130.452
180.506
131.258
307.323
207.881
180.132
307.268
131.311
248.283
401.843
402.755
248.219
401.723
402.634
180.922
306.01
206.008
130.738
306.048
180.972
129.912
180.094
307.305
207.767
131.891
307.33
180.665
131.541
326.097
169.597
306.092
181.97
306.233
181.795
325.928
415.349
213.422
296.277
415.465
213.305
326.031
169.412
306.22
181.655
306.182
326.07
181.676
415.459
213.429
296.303
213.311
415.303
248.327
401.884
402.172
401.664
402.673
248.58
179.697
130.119
306.557
206.082
306.438
179.621
130.272
181.263
131.047
306.943
207.722
131.258
180.746
306.876
248.265
402.305
402.49
402.117
248.121
402.419
179.265
306.237
206.089
130.515
306.422
130.101
179.987
180.854
306.982
207.539
131.647
131.258
306.863
181.023
399.195
399.284
329.445
173.067
309.577
185.379
309.628
185.073
329.347
417.826
216.311
298.389
417.966
216.41
329.365
172.951
309.622
185.226
309.556
329.424
185.199
417.961
216.545
298.38
216.291
417.807
329.44
172.821
185.363
309.583
185.061
309.621
329.344
417.825
216.499
298.408
216.487
417.966
329.355
173.044
184.957
309.615
185.171
329.408
309.552
417.963
216.56
298.412
216.335
417.805
329.443
173.081
309.582
185.553
309.638
185.218
329.343
417.747
216.673
298.357
417.895
216.606
329.367
173.043
309.636
185.532
329.433
309.568
185.424
417.878
216.668
298.395
216.436
417.72
248.187
402.726
401.997
402.908
402.052
248.191
179.821
131.592
207.57
307.422
307.323
130.425
179.84
180.621
130.497
206.014
306.216
129.405
306.117
180.126
179.916
307.305
207.434
131.436
307.369
131.063
179.93
180.383
306.147
205.936
130.472
130.142
306.184
180.505
248.146
402.927
402.04
402.789
401.918
248.079
397.6
397.664
402.224
306.131
326.131
182.22
306.059
169.688
182.105
306.264
325.909
415.358
296.32
213.63
213.522
415.473
415.473
213.596
296.354
213.464
415.326
326.059
169.643
182.247
306.28
181.932
306.215
326.099
326.153
182.168
306.068
169.888
182.052
306.278
325.931
415.383
296.335
213.587
213.516
415.494
415.495
213.595
296.398
213.429
415.351
326.08
169.817
182.167
306.285
181.876
306.228
326.115
181.933
306.509
326.276
213.585
415.556
181.886
306.536
326.306
213.558
415.579
399.079
399.162
397.607
397.672
402.338
306.59
22.0073
22.6785
29.1309
21.4485
22.3216
16.4498
16.3009
22.0336
22.7102
29.4973
21.7577
22.3712
16.4834
16.3389
122.4
88.3529
87.8242
56.8199
87.0407
86.399
122.083
122.279
87.3998
88.0446
56.9099
86.0854
87.5025
121.948
122.45
56.5199
87.2742
88.1827
86.7845
87.1339
121.91
122.159
87.4962
87.6192
56.1973
86.2415
86.9221
121.263
122.119
56.8774
87.3235
87.6937
86.1291
87.2488
121.126
122.542
86.0656
87.5216
57.2154
121.554
86.7318
87.8555
122.123
86.5922
86.9031
56.6043
87.3521
121.811
86.1917
121.908
87.9366
87.034
56.2692
85.7831
86.6443
121.593
22.1418
22.74
29.6867
21.8459
22.4297
16.4878
16.3375
22.9895
22.1366
29.8186
22.4903
21.6014
16.5411
16.3996
22.8963
22.2157
29.9536
22.3449
21.8601
16.5207
16.3816
29.7714
21.6822
22.5652
21.872
22.4966
16.2525
16.4137
29.5028
22.0518
22.8188
21.8976
22.3965
16.2691
16.4589
29.568
22.9254
22.0908
22.8662
21.9908
16.4774
16.3957
29.6724
22.8863
22.1445
22.7712
21.7752
16.3064
16.4934
67.3735
110.944
60.7542
101.453
109.765
60.2619
66.6269
78.6198
102.615
163.547
130.077
101.582
129.493
78.2032
77.2431
130.025
163.324
102.663
102.244
129.109
77.3091
66.5971
100.975
110.806
60.9238
110.196
59.6871
66.5929
21.8773
22.7435
29.9145
22.0203
22.7989
16.5458
16.3842
22.5756
21.799
29.9279
22.7267
21.9179
16.5228
16.3607
22.6096
22.0282
29.9675
22.7489
22.0593
16.501
16.4355
67.3065
101.677
110.768
60.8479
110.325
60.4704
66.0526
78.4432
102.739
129.968
163.414
77.8851
102.241
129.371
67.1231
101.283
110.99
61.0624
65.9374
109.891
59.9326
77.6122
130.005
163.59
102.644
101.605
129.089
78.1537
64.5732
57.8853
107.759
98.4463
57.6091
107.424
63.2988
76.1111
100.965
160.944
127.373
100.395
126.442
74.8702
75.5898
127.34
161.167
100.844
99.8455
127.11
75.6805
64.3704
97.8188
58.2001
107.932
56.9197
106.824
63.3257
121.736
57.8534
88.3204
87.5767
87.9614
87.2892
122.093
121.34
56.5975
87.4826
88.1298
121.845
87.0422
86.8178
122.329
56.708
86.1173
87.5863
121.895
86.1906
87.8662
64.6787
107.728
57.8975
98.3466
107.423
56.8185
62.8275
76.2001
100.855
161.224
127.196
126.325
100.064
74.9366
74.4797
127.326
161.085
100.919
127.039
99.7199
75.7851
64.4997
97.7863
107.868
58.2242
106.879
57.5021
63.279
64.4079
107.379
57.604
97.2355
107.003
57.1893
63.279
76.0543
100.804
160.776
127.307
126.1
100.084
75.6647
74.8047
127.048
161.179
100.84
126.801
74.8148
99.746
64.0628
97.5093
107.718
57.9765
106.422
56.428
63.9905
64.5293
106.668
56.2211
97.0513
64.1238
106.241
57.4181
76.5288
100.661
161.134
127.475
99.5702
126.702
75.4285
76.427
126.638
100.35
161.411
100.018
75.414
127.045
63.3087
98.208
107.656
58.0437
107.339
56.9116
63.3376
64.5131
106.345
56.4867
98.0625
63.1927
106.867
57.0508
76.2927
100.816
161.083
126.886
126.59
99.7762
74.472
76.1184
126.162
99.2679
161.048
74.9148
126.104
100.497
63.9672
97.4815
107.367
57.662
106.933
57.1739
63.8744
121.568
57.2072
87.4071
87.6488
87.2069
86.2177
121.309
121.984
56.9907
85.5725
86.7309
86.9899
121.056
87.3237
67.5334
111.034
60.6851
101.406
109.88
60.1436
66.8758
78.8974
102.721
163.503
130.078
129.784
101.976
77.6152
78.2211
130.182
163.456
102.824
129.31
101.564
77.7896
66.6848
100.875
110.811
60.89
110.459
59.4422
66.424
67.152
60.8006
101.32
110.537
59.5052
110.014
65.6316
78.3593
102.191
129.681
163.392
128.802
77.9054
101.407
66.995
100.838
60.8938
110.777
59.9651
109.51
66.8309
76.9731
129.617
163.124
102.389
129.304
76.523
101.099
67.6625
110.367
59.4495
101.464
66.2752
110.65
60.1271
78.9347
102.901
163.739
130.176
101.786
129.354
77.1814
78.8564
129.763
102.38
163.599
102.569
77.5579
129.887
66.8013
101.556
111.015
60.7019
109.909
60.1196
65.7566
67.3303
60.2218
101.478
109.869
66.7995
59.81
110.269
78.5225
102.304
129.618
163.084
129.241
77.0485
101.054
66.2834
101.537
60.7313
110.782
59.3911
110.315
66.7732
77.6794
128.894
101.93
163.399
77.9182
128.879
101.64
67.7396
60.9301
101.539
111.034
59.6462
110.589
66.669
78.9167
102.814
130.085
163.334
129.537
102.052
78.4819
67.7754
101.257
61.0057
111.103
60.1427
110.246
66.6293
77.5198
130.16
163.5
102.833
129.288
77.6528
101.601
67.3966
110.283
59.3983
101.366
65.9987
110.637
59.1511
78.6494
102.118
163.311
129.909
77.0649
102.138
129.16
78.5715
129.584
101.803
163.561
77.2603
102.18
129.646
66.5529
101.452
111.021
60.1768
66.5098
110.038
60.3321
67.7098
60.2802
100.638
110.255
66.2647
60.5504
110.337
79.0156
102.754
130.308
163.68
129.504
78.0282
101.69
66.9579
101.565
60.8587
111.132
59.7875
110.738
65.9963
78.9482
129.198
102.31
163.496
77.6169
130.119
102.516
122.089
57.1996
87.2102
87.975
122.216
86.7402
87.3572
64.914
98.1525
107.645
57.8936
107.298
57.6675
63.4998
76.4757
99.1344
126.464
161.488
127.332
75.1929
100.377
64.6835
97.3981
106.597
57.3633
106.614
63.5047
57.6736
75.9745
127.616
161.139
100.833
126.915
99.7883
76.0873
64.7905
97.3885
107.359
57.5739
106.966
57.2337
63.7893
76.1458
100.319
126.027
160.954
75.7272
125.736
100.543
63.6468
97.6551
106.456
56.5424
63.5823
106.91
56.2856
75.3925
126.856
161.24
100.772
126.62
75.7425
100.512
121.378
56.4301
87.1226
87.6059
87.169
85.7747
121.792
67.4954
101.66
111.189
60.8539
110.169
60.4232
66.3693
78.8254
102.268
128.928
163.56
129.857
78.3396
102.365
66.628
101.687
110.529
59.9994
110.804
66.4978
60.5053
77.9199
130.247
163.88
103.014
129.327
101.955
78.435
67.4775
101.66
60.9407
110.854
60.5507
110.425
66.3926
78.6015
101.714
128.761
163.435
78.1412
129.218
101.937
67.249
101.712
60.3585
110.076
66.9632
60.7072
110.468
77.6015
129.587
163.019
102.209
129.175
78.11
101.119
67.6806
101.478
60.3867
111.069
60.6039
110.679
66.5227
79.0234
100.936
129.778
163.658
102.298
77.6763
129.92
66.7834
101.447
60.2114
110.381
60.3789
66.5473
110.685
78.4656
130.218
163.557
102.67
101.579
129.416
78.6169
121.204
57.4024
87.8705
87.0722
86.7636
87.5419
121.524
65.1051
57.9859
107.634
97.8924
57.7679
107.267
63.8586
76.3551
101.131
161.168
127.183
100.357
126.748
75.9305
75.5876
127.28
161.105
101.174
100.099
126.443
76.0079
64.0657
98.3947
58.1432
107.646
57.1356
106.617
64.1492
106.878
126.316
106.663
126.483
29.8325
49.548
48.5612
57.3892
29.8773
49.6652
48.9156
57.7952
29.8662
49.7387
48.953
57.9155
29.9063
49.8154
48.9515
58.3615
29.8762
50.2539
48.7487
58.3675
29.8389
49.9122
48.7264
57.8696
29.8769
50.1134
48.7596
58.3505
29.8594
50.2149
48.7968
58.2236
29.9213
49.9954
48.8752
58.4752
29.8041
49.9441
48.9243
58.1464
29.7611
49.8815
48.9949
57.8979
29.7911
49.8983
49.3601
57.6697
29.9632
50.136
49.037
58.0828
30.021
50.3767
48.9716
58.3212
29.8396
50.1151
48.9311
58.1647
49.1326
58.2234
56.9077
48.8608
48.4456
57.2362
50.1806
50.3059
48.5749
49.6325
56.7777
48.2174
48.8961
56.2933
56.0811
56.9495
47.8766
48.3421
49.2049
48.6635
55.9577
57.2258
50.1574
50.1417
50.5384
50.3643
49.9435
48.7592
50.5803
55.9041
57.0829
48.2115
48.0112
49.3312
57.6325
56.0435
57.0084
48.6736
48.3357
49.1162
49.0259
56.4785
56.6702
50.1775
48.8834
50.4383
50.4942
49.6052
48.8071
50.4539
56.5024
56.7768
48.7223
48.6895
49.0994
57.5586
55.8648
57.1388
47.9764
47.9388
49.425
49.335
56.0256
56.9293
49.6225
50.0686
50.3327
50.5217
49.4716
48.8225
50.5322
55.5259
56.8976
47.891
48.6233
49.3212
57.3932
56.32
57.2098
48.796
48.7894
49.261
48.9587
56.2263
57.0341
49.0493
49.5468
50.4775
50.2985
49.833
49.4099
50.6341
55.7219
57.0405
48.9399
48.4485
49.3168
57.4263
56.105
57.395
47.9469
48.3346
49.3796
49.0764
55.4648
56.8924
50.0549
49.5866
50.4295
50.4666
49.4429
49.5798
50.7031
55.5093
57.224
48.6382
48.3741
49.246
57.5527
56.5918
57.4444
48.8648
48.0244
49.3938
49.2791
55.3968
57.0822
48.9696
49.5556
50.4418
50.3055
49.6543
49.7918
50.7294
56.4466
57.103
48.4727
48.4201
49.2106
58.2208
56.3296
57.4211
48.5753
48.6172
49.1825
49.168
55.205
57.2017
49.923
48.9679
50.3115
50.5612
49.8128
50.0026
50.5978
56.4406
57.0412
47.8219
48.4945
49.361
57.9085
55.5421
57.5015
47.8492
48.3628
49.4082
49.2194
56.6667
57.1864
49.628
49.973
50.4415
50.38
49.4679
49.6798
50.8086
56.3087
56.9305
48.7689
48.5122
49.2324
57.5141
56.2884
57.2971
49.0212
47.7785
49.3249
49.2875
56.5257
57.2837
49.9837
49.5062
50.4725
50.3778
50.3577
49.5974
50.7542
56.3231
57.0021
48.4125
48.0507
49.2901
57.9675
56.0199
57.2961
48.5569
48.7777
49.2543
49.335
56.5337
57.156
49.2415
49.8455
50.5074
50.7189
50.0009
49.5861
50.5258
55.9049
57.4819
47.8389
48.0294
49.3174
57.6078
55.9167
57.6033
48.6603
48.2724
49.2786
49.5004
55.4813
57.1741
49.4482
50.0328
50.3979
50.6887
49.7472
49.6007
50.5469
56.7457
57.212
48.7141
48.5613
49.1708
57.3335
56.31
57.4978
48.6995
48.8306
49.322
49.2963
55.631
57.1442
49.8558
49.9143
50.5617
50.5726
49.2652
49.2996
50.6458
55.7513
57.1019
48.3511
48.4006
49.1841
57.7475
56.2396
57.7981
48.5676
48.4899
49.272
49.322
55.7043
57.5168
49.8149
50.2139
50.5113
50.5215
50.1134
49.4952
50.5345
56.2409
57.1989
48.169
48.208
49.2513
57.3865
57.2121
57.5467
47.8364
48.2955
49.3182
49.5302
56.853
57.2906
49.8137
49.9418
50.5747
50.4619
49.6879
49.7923
50.5992
56.1277
56.9779
48.1816
48.2435
49.4067
57.82
57.0057
57.7614
48.2034
48.5633
48.7339
48.665
56.6359
56.7218
49.6388
49.6162
50.3022
50.3555
50.0467
49.3641
49.8898
55.792
57.4905
48.5164
48.2949
49.2545
57.1595
56.6033
57.3171
48.1486
48.5297
49.447
57.4299
29.4027
29.5494
29.4079
29.192
169.129
297.585
171.46
296.19
398.508
397.424
172.949
298.316
172.939
298.264
29.6336
29.2729
29.8919
29.7155
29.9314
29.9812
30.2186
101.037
163.424
36.2592
48.1975
101.033
163.497
35.308
399.221
399.113
98.241
34.9689
161.332
47.2881
98.5309
34.0431
161.25
207.746
206.125
57.273
207.655
206.106
169.807
296.314
169.718
296.236
397.646
397.53
173.125
298.417
173.08
298.303
29.2374
29.7072
29.5904
29.3659
30.0012
30.0371
30.1314
101.687
163.678
36.4473
48.1975
101.449
163.595
35.4757
399.331
399.181
98.2652
35.1889
161.361
48.422
98.3828
34.7475
161.464
207.721
206.17
57.6922
207.616
206.05
170.114
296.324
170.021
296.24
397.661
397.52
173.157
298.418
173.162
298.306
29.6361
29.6511
29.6868
29.8054
29.9098
30.0265
30.1686
101.753
163.721
36.554
49.2602
101.64
163.615
35.8184
399.379
399.215
98.5693
35.1617
161.613
48.2296
98.549
34.6371
161.584
207.679
206.218
58.0122
207.655
206.164
170.117
296.327
170.062
296.228
397.654
397.526
173.248
298.416
173.262
298.311
29.2264
29.5656
29.8438
29.7469
30.0515
29.9525
30.249
102.259
163.796
36.4369
48.8034
102.016
163.714
35.821
399.399
399.247
98.6114
35.1733
161.677
48.149
98.813
34.6022
161.537
207.74
206.209
58.1275
207.702
206.151
170.041
296.299
169.978
296.227
397.66
397.524
173.239
298.425
173.225
298.324
29.7678
29.2696
29.7922
29.4705
29.8718
29.9355
30.1957
102.109
163.798
36.6491
49.2295
102.128
163.743
36.1024
399.407
399.233
98.8179
34.965
161.697
47.8565
98.7957
34.1822
161.616
207.788
206.192
58.0091
207.71
206.139
170.049
296.319
170.087
296.244
397.673
397.545
173.216
298.46
173.229
298.349
29.3797
29.5561
29.5315
29.6604
29.9442
30.0735
30.1264
102.166
163.788
36.7406
49.075
102.168
163.794
35.5232
399.384
399.217
98.8274
35.2014
161.773
47.91
99.1124
34.6769
161.739
207.799
206.26
57.9498
207.743
206.142
170.099
296.326
170.066
296.229
397.684
397.543
173.271
298.442
173.26
298.32
29.2626
29.1551
29.6424
29.7281
30.0339
30.0743
30.152
101.964
163.747
36.7138
49.518
102.023
163.722
35.7677
399.409
399.228
98.9425
35.0713
161.791
47.9044
99.0932
34.3668
161.689
207.843
206.269
58.1366
207.77
206.209
170.095
296.311
170.092
296.227
397.693
397.564
173.169
298.433
173.161
298.319
29.7781
29.7866
29.444
29.3868
29.98
29.9379
30.1961
102.081
163.757
36.8737
49.356
102.125
163.792
36.3426
399.41
399.244
98.5129
35.0412
161.651
48.1424
98.8413
34.4154
161.615
207.777
206.258
58.181
207.651
206.204
170.069
296.305
170.039
296.227
397.683
397.528
173.251
298.434
173.2
298.33
29.5623
29.246
29.7078
29.647
29.9383
29.8681
30.1605
102.028
163.709
36.6548
49.0936
101.942
163.73
36.0406
399.427
399.246
98.7008
35.1031
161.725
47.4645
98.7091
34.4543
161.589
207.862
206.292
58.1382
207.781
206.226
170.12
296.303
170.124
296.222
397.67
397.533
173.246
298.444
173.374
298.323
29.6141
29.5905
29.6978
29.5607
29.9257
30.0042
30.1325
101.82
163.652
36.6169
49.0429
101.861
163.697
36.1452
399.412
399.231
98.6432
35.1761
161.741
48.479
98.7582
34.6824
161.572
207.848
206.277
57.99
207.778
206.239
170.16
296.326
170.153
296.266
397.67
397.53
173.31
298.429
173.237
298.316
29.5454
29.6748
29.653
29.5867
30.0666
30.0285
30.0609
102.153
163.78
36.6568
48.9691
102.131
163.791
36.2746
399.35
399.193
98.7772
35.1746
161.717