/*--------------------------------*- C++ -*----------------------------------*\
| =========                 |                                                 |
| \\      /  F ield         | OpenFOAM: The Open Source CFD Toolbox           |
|  \\    /   O peration     | Version:  2206                                  |
|   \\  /    A nd           | Website:  www.openfoam.com                      |
|    \\/     M anipulation  |                                                 |
\*---------------------------------------------------------------------------*/
FoamFile
{
    version     2.0;
    format      ascii;
    arch        "LSB;label=32;scalar=64";
    class       surfaceScalarField;
    location    "130";
    object      phi;
}
// * * * * * * * * * * * * * * * * * * * * * * * * * * * * * * * * * * * * * //

dimensions      [0 3 -1 0 0 0 0];

oriented        oriented;

internalField   nonuniform List<scalar> 
196294
(
-8.80316e-12
8.01625e-11
8.53347e-12
2.49332e-12
1.29567e-08
5.04496e-11
1.9832e-13
-4.5841e-12
-1.39324e-11
-1.92783e-08
1.92462e-08
-1.87162e-12
1.26774e-11
3.58191e-12
-1.28968e-08
2.01045e-12
1.28804e-08
-5.02623e-11
-9.7327e-14
-1.02864e-11
1.00508e-10
-2.37429e-08
2.3703e-08
-1.33833e-11
-1.28502e-11
1.51229e-11
3.23024e-11
2.04128e-08
1.1358e-11
-6.82951e-12
1.09425e-10
-1.46876e-10
1.4326e-10
-1.13183e-10
1.20188e-07
1.39004e-12
4.23032e-12
-6.45518e-09
2.55531e-12
6.44701e-09
-3.57565e-13
-1.88968e-11
3.11308e-11
-4.9705e-12
-2.43851e-08
2.43782e-08
-2.4764e-12
2.96659e-11
5.78743e-13
1.50032e-11
-4.17423e-11
3.77446e-11
-1.65169e-11
-3.2475e-11
-2.69175e-11
2.84779e-11
1.16156e-07
-3.91072e-11
3.48644e-12
1.37163e-11
-1.16228e-11
1.04377e-11
-1.58201e-11
1.19998e-07
-4.58e-12
-5.67805e-12
7.68781e-12
-2.07954e-08
1.6818e-11
2.07812e-08
-1.32604e-11
-3.03184e-11
-2.74241e-08
-5.83799e-11
-4.1508e-11
2.75676e-08
9.95754e-12
-4.0162e-12
-3.36734e-12
-2.08326e-08
2.25345e-11
2.08075e-08
4.87777e-12
-2.02085e-12
-1.14489e-12
-2.09469e-08
1.49922e-11
2.09302e-08
2.89462e-11
3.58597e-12
6.4819e-09
3.67878e-12
-6.44983e-09
2.40331e-12
6.44188e-09
-2.72854e-11
-1.96516e-11
-2.74101e-08
-5.04099e-11
-5.0699e-11
2.75582e-08
5.34023e-11
-1.79672e-11
1.18388e-10
2.09254e-08
9.99342e-12
-4.05142e-12
-2.06645e-08
2.30496e-11
2.06391e-08
1.05912e-09
-2.43364e-11
-1.09169e-10
2.30427e-11
-3.50532e-10
-4.53971e-10
1.17036e-07
6.83346e-11
2.00714e-10
2.05196e-08
-4.12229e-12
-4.25547e-11
-3.2228e-12
2.07599e-08
1.82282e-12
2.27019e-12
6.45165e-09
1.82533e-13
-1.05113e-11
1.00801e-10
-2.3743e-08
2.37029e-08
1.70597e-10
-1.00316e-10
-2.67011e-11
-4.34349e-11
4.08646e-11
7.0383e-11
-6.94466e-11
6.6134e-11
-7.1913e-11
1.14872e-07
1.52746e-11
-2.04201e-08
3.43625e-11
2.03931e-08
3.82446e-11
-9.364e-11
1.08835e-10
-1.47431e-10
1.42999e-10
-1.12199e-10
1.2044e-07
5.04587e-11
-1.38772e-11
-4.08028e-12
-1.92763e-08
1.9244e-08
1.30648e-11
2.80851e-12
-1.29063e-08
2.03743e-12
1.28898e-08
1.00947e-10
-9.94573e-12
-2.37379e-08
2.36975e-08
-1.61639e-13
1.2882e-11
-3.21817e-12
5.05295e-11
-6.6536e-11
-5.40269e-11
6.53182e-11
-1.52901e-11
-4.45815e-11
3.86684e-11
1.15995e-07
-5.97153e-12
9.13843e-11
-1.47054e-10
1.42403e-10
-9.53333e-11
1.21519e-07
-9.51442e-12
1.47757e-11
-2.04106e-08
3.46392e-11
2.03838e-08
-3.31227e-13
-4.01256e-12
-1.38255e-11
1.92501e-08
3.27042e-12
1.9742e-12
1.28967e-08
-5.0276e-11
1.00464e-10
-1.00896e-11
-2.37398e-08
2.36996e-08
1.13351e-12
-3.80592e-12
-1.57402e-11
-4.05266e-11
3.83076e-11
5.07791e-11
-6.88056e-11
6.57848e-11
-5.36717e-11
1.16016e-07
-5.54252e-12
9.17818e-11
-1.46529e-10
1.42836e-10
-9.50894e-11
1.21512e-07
-1.30538e-11
1.50492e-11
-2.04223e-08
3.44441e-11
2.03958e-08
-1.38487e-11
-4.46205e-12
1.92448e-08
-1.46158e-12
3.09095e-12
1.99661e-12
1.28842e-08
-2.74138e-08
-5.22774e-11
-4.8036e-11
2.75566e-08
-1.03751e-11
-2.07205e-08
1.81189e-11
2.07075e-08
-2.14343e-12
6.34802e-12
-2.10671e-08
2.06462e-11
2.10377e-08
-4.23387e-13
-6.57884e-09
3.08307e-12
6.57403e-09
-1.90752e-11
3.1122e-11
-5.32272e-12
-2.4388e-08
2.43809e-08
-2.94118e-12
1.20909e-12
-3.26365e-11
-3.09397e-11
2.88219e-11
1.48344e-11
-3.91573e-11
3.73075e-11
-1.62266e-11
1.16216e-07
2.1025e-12
1.38537e-11
-1.16826e-11
1.06743e-11
-1.53478e-11
1.19936e-07
-5.58673e-12
7.89299e-12
-2.07865e-08
1.64128e-11
2.07727e-08
-4.81468e-14
-2.21148e-12
-4.94931e-12
-1.98873e-08
1.98756e-08
8.81974e-13
-1.31842e-08
2.20865e-12
1.3175e-08
-2.26719e-12
-4.71918e-12
-1.98916e-08
1.98794e-08
6.92364e-14
1.14758e-12
-1.31866e-08
2.26588e-12
1.31776e-08
2.65384e-12
6.44491e-09
-6.57753e-09
3.06238e-12
6.57252e-09
-2.40588e-11
1.42928e-10
1.98778e-08
4.83482e-12
5.34673e-09
-1.011e-11
-4.73976e-13
9.47975e-09
9.80264e-13
-1.87768e-12
-1.8277e-08
-1.09563e-11
-6.61897e-12
4.16049e-11
1.82484e-08
-1.15083e-08
-1.18003e-12
1.37487e-13
1.5458e-12
1.14939e-08
3.74741e-12
1.30862e-11
2.48983e-13
-4.96057e-11
5.6347e-12
-4.06621e-11
1.81796e-13
-1.77403e-12
-1.66019e-12
1.59675e-12
9.46767e-09
-1.68839e-12
5.32576e-09
-3.70808e-12
-1.97813e-08
-1.77278e-12
2.64427e-11
1.97536e-08
-2.74549e-12
1.28768e-12
-1.2094e-11
-2.25894e-12
-2.59066e-11
3.17974e-12
5.31917e-09
-1.8853e-12
-3.08823e-12
-2.93991e-12
1.75203e-12
3.0555e-12
1.47527e-08
-1.31389e-11
-1.16338e-11
-5.33876e-09
2.11174e-12
1.32846e-12
2.86138e-12
5.33246e-09
-5.3716e-09
2.25717e-12
4.70771e-13
2.96934e-12
5.3659e-09
-1.90944e-12
-2.81275e-12
2.04997e-14
-2.88176e-12
1.24725e-11
1.19833e-11
1.47327e-08
-2.19651e-11
9.12724e-12
1.91741e-08
-2.37876e-11
-1.24448e-08
9.23972e-12
1.89091e-12
1.24316e-08
-2.21339e-11
4.16992e-12
-1.04876e-11
-2.29454e-08
-2.17189e-11
4.64062e-11
3.25747e-11
2.29106e-08
-4.65689e-11
-3.28386e-11
-1.84444e-12
2.34944e-11
1.91506e-08
-1.71473e-11
7.90931e-12
1.83629e-08
-1.94475e-11
-1.23516e-08
6.88564e-12
2.06257e-12
1.23419e-08
-1.57952e-11
8.03052e-14
2.77582e-12
-4.33267e-12
-2.23884e-08
-1.7822e-11
3.21883e-11
2.34369e-11
2.23656e-08
-3.33085e-11
-2.28461e-11
-1.89589e-12
1.80676e-11
1.83459e-08
-3.51986e-12
-2.96197e-12
3.12865e-12
3.02142e-12
1.47488e-08
-1.10497e-11
-1.34825e-11
-5.36669e-09
4.30401e-12
9.0245e-14
1.86081e-12
5.36043e-09
-5.34001e-09
3.33182e-12
2.26552e-12
1.34535e-12
5.33307e-09
-4.55765e-13
-2.33602e-12
-1.70247e-12
-1.98431e-12
1.26229e-11
1.40892e-11
1.47297e-08
8.01388e-12
1.92572e-08
-2.24974e-11
-1.25584e-08
4.11157e-11
1.59053e-12
1.24979e-08
-4.74119e-11
1.50503e-10
1.40366e-10
2.30544e-08
-1.36381e-12
2.31986e-11
1.92403e-08
9.83586e-12
1.82775e-08
-2.188e-11
-2.02006e-11
-1.22345e-08
1.05525e-11
1.56615e-12
1.22205e-08
3.38004e-12
-2.23468e-11
-9.67467e-12
-2.20723e-11
-2.21803e-08
4.43391e-11
3.26269e-11
2.21485e-08
-1.79771e-12
2.19152e-11
1.82582e-08
-4.29943e-11
-3.25569e-11
-4.73511e-11
5.39474e-11
1.11249e-12
5.33711e-09
2.32742e-10
1.47496e-08
-5.93256e-11
1.15736e-12
1.24137e-08
-1.50813e-10
5.40125e-11
2.24944e-08
1.89873e-08
-9.46752e-13
-1.03088e-11
9.48307e-09
1.36612e-12
-1.67824e-12
-1.15097e-08
-8.54718e-13
1.63748e-12
1.14951e-08
-1.82742e-08
-1.07791e-11
-5.96955e-12
4.13661e-11
1.82456e-08
1.31409e-11
4.29607e-12
-4.96716e-11
-1.80243e-12
6.29587e-12
-4.09712e-11
-1.21282e-12
1.69293e-12
9.47096e-09
-1.47368e-12
5.32891e-09
-3.57328e-12
-1.97865e-08
-2.02884e-12
2.65957e-11
1.97588e-08
-3.45494e-12
-1.23279e-11
-2.06742e-12
-2.60237e-11
3.39729e-12
5.32227e-09
-1.06241e-11
-6.01497e-12
4.10413e-11
1.82565e-08
-7.09915e-13
-2.86461e-13
1.61434e-12
1.14983e-08
-1.22532e-12
1.65265e-12
9.47567e-09
-1.6773e-12
2.60648e-11
1.97708e-08
3.34253e-12
5.32534e-09
-1.20576e-12
1.57743e-12
1.14943e-08
-1.08389e-11
-6.2929e-12
4.13768e-11
1.82434e-08
-1.50437e-12
1.60234e-12
9.46703e-09
-1.96079e-12
2.65304e-11
1.97522e-08
3.22177e-12
5.31877e-09
3.36001e-12
1.18399e-12
1.47608e-08
-6.64622e-13
-2.48176e-11
-5.34247e-09
-1.67729e-11
2.03447e-11
2.33916e-12
5.33656e-09
-5.36997e-09
2.10625e-11
-1.94641e-11
3.3281e-12
5.36504e-09
-4.58072e-13
-2.59935e-12
-1.4489e-12
-3.28285e-12
1.08433e-10
-8.97409e-11
1.47464e-08
1.04036e-11
-1.97084e-11
1.83095e-08
-3.71319e-11
-1.22325e-08
-1.37953e-11
1.30511e-12
1.22549e-08
4.37261e-12
-2.18462e-11
-1.06727e-11
-2.25369e-08
-6.22499e-11
3.54309e-11
1.47578e-11
2.25671e-08
-1.74372e-12
-3.30556e-11
-4.70232e-11
-9.94145e-11
1.84413e-08
-1.97406e-11
6.48496e-12
1.9245e-08
-6.40995e-12
-1.25724e-08
3.03836e-11
2.54097e-12
1.25264e-08
-1.61837e-11
5.68896e-13
2.25176e-12
-4.40654e-12
-2.28028e-08
2.35049e-11
1.97041e-11
6.56093e-11
2.27147e-08
-2.27513e-11
-3.23867e-11
-2.04047e-12
1.37896e-10
1.90712e-08
5.56004e-13
-3.179e-12
-2.89459e-12
-3.24566e-13
9.76486e-09
2.43094e-13
-1.63129e-12
-1.88208e-08
-3.52166e-12
-3.05223e-12
1.58484e-11
1.88093e-08
-1.18654e-08
-5.88701e-13
8.82451e-14
1.18128e-12
1.18598e-08
1.94304e-12
4.42971e-12
-2.50981e-14
-1.85923e-11
2.6955e-12
-1.53053e-11
1.49013e-13
-1.40884e-12
-4.92507e-13
1.43414e-12
9.75981e-09
1.26797e-12
5.48024e-09
-3.79002e-12
-2.02971e-08
1.27999e-12
1.05503e-11
2.02831e-08
-7.46822e-13
-5.66179e-12
-2.22592e-12
-1.08054e-11
3.6508e-12
5.47736e-09
-3.21207e-12
-4.79667e-13
9.77019e-09
4.08762e-13
-1.55015e-12
-1.88303e-08
-3.24013e-12
-3.04271e-12
1.5685e-11
1.88186e-08
-1.18681e-08
-4.4902e-13
1.19058e-12
1.18627e-08
1.9004e-12
4.31247e-12
-1.89232e-11
2.71612e-12
-1.59897e-11
-1.36791e-12
-3.93948e-13
1.59787e-12
9.76529e-09
8.28032e-13
5.48392e-09
-3.5187e-12
-2.03071e-08
1.19691e-12
1.02693e-11
2.02937e-08
-5.59085e-13
-6.42545e-13
-6.13339e-12
-2.21014e-12
-1.11609e-11
3.73977e-12
5.48099e-09
-3.07118e-12
-1.9501e-10
4.59972e-10
1.25436e-07
3.2741e-10
-4.45838e-10
1.36095e-07
-3.84436e-10
4.48639e-11
1.30425e-07
-3.83696e-10
1.42276e-11
1.43411e-07
4.01469e-10
-3.72002e-13
1.25269e-07
8.24885e-12
1.36104e-07
1.72767e-13
1.33663e-11
1.29598e-07
1.129e-11
1.42667e-07
-5.82714e-12
-5.7632e-12
1.25036e-07
-9.91414e-12
1.33699e-07
2.72592e-11
-4.23256e-10
1.27984e-07
-3.93631e-10
1.43694e-07
-1.54985e-11
1.52596e-12
1.25085e-07
-3.11226e-12
1.33675e-07
-1.93822e-11
1.27137e-07
1.42802e-07
8.07641e-11
-1.82039e-11
2.59256e-08
-2.29389e-08
7.94015e-11
-1.37031e-11
2.2904e-08
-2.69287e-08
-1.87855e-11
-6.8965e-12
2.6908e-08
1.02392e-11
-1.02007e-10
4.1774e-14
7.22551e-12
2.55319e-11
2.58475e-08
5.52536e-11
2.24255e-08
3.84506e-11
2.4294e-08
2.57551e-08
-6.58168e-12
2.55392e-11
2.63759e-08
-5.29789e-11
-2.75047e-08
-6.62982e-12
-6.41839e-13
2.75315e-08
-2.34865e-08
2.55565e-11
-5.73264e-12
2.34775e-08
-3.16663e-11
5.08514e-12
-3.09332e-13
-1.06098e-13
5.42554e-12
5.29016e-11
2.63261e-08
2.16478e-11
2.1901e-11
2.61342e-08
-2.29432e-08
2.02865e-11
2.29355e-08
-1.76127e-11
-7.53694e-12
-2.46683e-08
2.18935e-11
2.46412e-08
2.62127e-08
-2.99341e-11
-3.06764e-11
2.24012e-08
5.97465e-11
4.39258e-11
-2.56304e-08
-2.80379e-11
2.56059e-08
-2.45964e-08
-2.99735e-11
2.45861e-08
2.23847e-08
2.23894e-08
-2.49529e-11
-3.34211e-11
5.16154e-11
4.91422e-11
-2.7328e-11
-2.57368e-08
2.5755e-08
-3.2212e-11
-2.44839e-08
2.44663e-08
2.2375e-08
3.04856e-10
2.25673e-08
1.6335e-10
2.44759e-08
2.59097e-08
8.05137e-11
-1.78382e-11
2.59307e-08
-2.58231e-11
-2.29381e-08
7.98319e-11
-1.41903e-11
2.29035e-08
-2.69305e-08
-1.92242e-11
-6.42254e-12
2.69095e-08
9.95113e-12
-1.0193e-10
3.15704e-13
1.36496e-11
7.57553e-12
2.1417e-11
2.58577e-08
5.61201e-11
3.69118e-11
2.5713e-08
-2.24485e-08
5.52793e-11
2.24207e-08
-1.51814e-11
-3.44203e-11
-2.42888e-08
3.71605e-11
2.42492e-08
2.5755e-08
-2.19858e-11
8.03838e-11
2.59227e-08
2.9244e-11
-2.69244e-08
-2.11325e-11
2.6893e-08
-2.29266e-08
7.90171e-11
-1.62984e-11
2.28953e-08
-1.01931e-10
1.04485e-11
1.70046e-11
-2.84897e-11
2.59137e-08
5.58305e-11
2.56764e-08
4.05804e-11
-2.24364e-08
5.50276e-11
2.24065e-08
-1.57757e-11
-3.46212e-11
3.98182e-11
-2.42897e-08
2.42534e-08
2.56887e-08
-2.17912e-11
8.04484e-11
2.59293e-08
2.91916e-11
-2.6927e-08
-2.13152e-11
2.68953e-08
-2.29297e-08
7.84909e-11
-1.65348e-11
2.2899e-08
-1.02344e-10
1.02142e-11
1.68108e-11
-2.85551e-11
2.59199e-08
4.03432e-11
5.5797e-11
2.56871e-08
-2.24413e-08
5.4461e-11
2.24119e-08
-3.48011e-11
-1.54837e-11
-2.4348e-08
3.99184e-11
2.43062e-08
2.56992e-08
-3.15912e-11
-2.88752e-11
2.23849e-08
4.45931e-11
5.87158e-11
-2.55655e-08
-7.13962e-11
2.55548e-08
-2.4633e-08
1.26564e-11
2.4611e-08
2.23646e-08
-6.19024e-12
2.58011e-11
2.63802e-08
-5.33803e-11
-2.75082e-08
-6.84039e-12
2.75339e-08
-2.34918e-08
2.52987e-11
-5.93058e-12
2.34828e-08
-3.16701e-11
4.60131e-12
5.2389e-12
5.26875e-11
2.63306e-08
2.13844e-11
2.21081e-11
2.61358e-08
-2.29468e-08
2.01454e-11
2.29389e-08
-1.75234e-11
-7.58801e-12
-2.46175e-08
2.18179e-11
2.45964e-08
2.62143e-08
1.27701e-12
7.21531e-13
-4.9372e-13
2.25048e-09
5.65746e-13
4.76419e-13
-3.25618e-13
1.20959e-09
1.85216e-13
2.73437e-13
-1.72643e-13
5.93565e-10
2.47984e-14
1.2921e-13
-7.05043e-14
2.45117e-10
3.14499e-14
-2.08117e-14
5.80786e-11
1.17354e-12
-2.12222e-13
-2.25093e-09
3.04853e-13
2.25166e-09
6.02788e-13
-1.22496e-13
-1.20974e-09
1.5748e-13
1.21023e-09
2.75622e-13
-7.11028e-14
-5.93585e-10
7.05532e-14
5.93842e-10
9.93278e-14
-3.78568e-14
-2.45078e-10
2.49143e-14
2.45187e-10
-4.64443e-15
-5.80449e-11
7.50995e-15
5.80849e-11
1.34462e-12
2.60473e-15
-4.20651e-09
6.11115e-16
4.20772e-09
5.7637e-13
-2.28621e-14
-2.25658e-09
4.47571e-15
2.25739e-09
1.83158e-13
-1.9804e-14
-1.10775e-09
1.02166e-14
1.1082e-09
2.56438e-14
-1.14723e-14
-4.58233e-10
9.1274e-15
4.58437e-10
-4.17871e-15
-1.08947e-10
6.05371e-16
1.09007e-10
1.97468e-12
7.05649e-13
4.20379e-09
9.70737e-13
4.53676e-13
2.25523e-09
3.99908e-13
2.44108e-13
1.10708e-09
1.12181e-13
1.02308e-13
4.57971e-10
3.04741e-14
1.08941e-10
1.20074e-12
-4.20287e-09
-2.14534e-13
4.20412e-09
4.59235e-13
-2.25461e-09
-1.31797e-13
2.25547e-09
9.82388e-14
-1.10679e-09
-6.3213e-14
1.10728e-09
-2.37289e-14
-4.57795e-10
-2.14876e-14
4.58038e-10
-1.08838e-10
-8.21761e-15
1.08901e-10
1.17995e-12
1.77036e-13
-2.22401e-13
4.21039e-09
5.14374e-13
8.91967e-14
-1.47363e-13
2.25885e-09
1.77099e-13
4.0391e-14
-7.40194e-14
1.1089e-09
3.33644e-14
1.55567e-14
-2.89741e-14
4.58702e-10
7.29647e-16
-7.58434e-15
1.09084e-10
1.15371e-12
-2.25313e-09
1.31453e-13
2.25388e-09
5.48191e-13
-1.21097e-09
5.97485e-14
1.21148e-09
2.1153e-13
-5.94133e-10
2.40961e-14
5.9441e-10
5.35605e-14
-2.45317e-10
7.88367e-15
2.45442e-10
-5.8092e-11
2.89017e-15
5.81342e-11
1.09461e-12
2.65852e-13
2.25464e-09
5.14088e-13
1.42182e-13
1.21187e-09
1.97274e-13
6.69905e-14
5.94641e-10
5.02116e-14
2.64297e-14
2.45534e-10
6.8965e-15
5.81676e-11
1.12547e-12
-4.48692e-14
1.98382e-13
2.25263e-09
5.36307e-13
-7.99613e-15
1.0019e-13
1.21073e-09
2.08901e-13
1.59709e-15
4.48422e-14
5.94063e-10
5.3171e-14
4.12508e-15
1.54053e-14
2.45308e-10
6.32912e-16
6.17652e-15
5.81215e-11
1.71905e-12
-2.64094e-13
2.05722e-13
-4.20244e-09
4.20385e-09
8.38965e-13
-1.81664e-13
1.18738e-13
-2.2544e-09
2.25529e-09
3.55865e-13
-1.0434e-13
5.04743e-14
-1.10675e-09
1.10722e-09
1.12817e-13
-5.0406e-14
1.45702e-14
-4.57814e-10
4.58023e-10
-1.25076e-14
3.85972e-15
-1.08854e-10
1.08927e-10
1.1886e-12
-2.24895e-09
-5.10421e-14
2.24978e-09
5.42299e-13
-1.20879e-09
-4.24447e-14
1.20933e-09
1.9496e-13
-5.93104e-10
-2.08136e-14
5.93412e-10
3.91034e-14
-2.44875e-10
-6.03755e-15
2.45028e-10
-5.80001e-11
-2.9484e-15
5.80494e-11
1.25878e-12
1.79111e-13
-2.24939e-09
-5.6625e-14
2.25028e-09
6.09782e-13
1.36832e-13
-1.20899e-09
-6.30997e-14
1.20956e-09
2.47946e-13
7.87358e-14
-5.93205e-10
-4.15423e-14
5.93513e-10
6.92043e-14
3.52552e-14
-2.44943e-10
-2.00724e-14
2.45087e-10
1.13174e-14
-5.80071e-11
-5.37252e-15
5.80569e-11
1.42593e-12
-5.27303e-14
4.20623e-09
6.42244e-13
-3.10172e-14
2.25657e-09
2.32715e-13
-1.65684e-14
1.10781e-09
5.42113e-14
-6.18529e-15
4.58281e-10
-4.43249e-15
1.08971e-10
1.64754e-12
1.64736e-13
-4.20134e-09
4.20278e-09
7.50826e-13
1.11083e-13
-2.25389e-09
2.25483e-09
2.74376e-13
6.20595e-14
-1.10639e-09
1.1069e-09
5.98626e-14
2.75637e-14
-4.57664e-10
4.57907e-10
6.96933e-15
-1.08796e-10
1.08872e-10
-1.1431e-12
9.71368e-15
2.58373e-09
1.08207e-13
-5.90783e-13
1.72373e-14
1.3878e-09
5.84789e-14
-2.60901e-13
1.97922e-14
6.81148e-10
3.49534e-14
-8.43686e-14
1.69899e-14
2.8145e-10
1.8873e-14
-5.58258e-16
6.67674e-11
4.46055e-15
8.57761e-13
-2.82221e-09
-1.93544e-13
3.30537e-14
2.82307e-09
3.71087e-13
-1.51528e-09
-1.03879e-13
1.95542e-14
1.51588e-09
1.11556e-13
-7.4398e-10
-4.99607e-14
1.44742e-14
7.44316e-10
9.46622e-15
-3.07639e-10
-2.02544e-14
1.08759e-14
3.07796e-10
-7.30879e-11
-4.77204e-15
1.0989e-16
7.31341e-11
-1.02858e-12
3.46088e-14
-4.84481e-13
1.12125e-14
-1.82344e-13
1.9606e-15
-4.48156e-14
-8.25467e-17
-8.37946e-16
9.471e-13
-3.45494e-13
2.5845e-09
4.66681e-13
-2.02951e-13
1.38833e-09
1.87968e-13
-1.13904e-13
6.81434e-10
5.24835e-14
-5.6661e-14
2.81574e-10
-1.06635e-14
6.681e-11
-1.36111e-12
2.21382e-14
-6.40314e-14
-7.04808e-13
-1.2932e-14
7.54297e-15
-3.12008e-13
-9.30569e-15
2.92258e-14
-9.76696e-14
-1.29071e-15
2.61176e-14
-4.6968e-15
2.33171e-15
-1.62834e-12
-2.10254e-13
2.45926e-13
-7.45099e-13
-1.01303e-13
1.30733e-13
-2.68962e-13
-4.99081e-14
5.93338e-14
-5.36018e-14
-2.30926e-14
2.04026e-14
-2.10619e-15
7.20332e-15
1.03744e-12
-2.23666e-09
6.83411e-15
2.23745e-09
4.91188e-13
-1.20167e-09
-2.46235e-15
1.20218e-09
1.8875e-13
-5.89578e-10
-1.31108e-15
5.89857e-10
4.71901e-14
-2.4341e-10
5.94934e-16
2.43538e-10
-5.76603e-11
-6.66219e-16
5.77017e-11
-1.04947e-12
2.1475e-13
-5.10539e-13
1.31801e-13
-2.00779e-13
7.01002e-14
-4.91009e-14
3.21543e-14
5.80944e-15
1.12541e-12
-2.23457e-09
2.43607e-13
2.23541e-09
5.39139e-13
-1.2006e-09
1.46169e-13
1.20114e-09
2.12751e-13
-5.89054e-10
7.84204e-14
5.89351e-10
5.59909e-14
-2.43202e-10
3.36279e-14
2.43341e-10
-5.76104e-11
1.08815e-14
5.76566e-11
-1.07811e-12
3.39072e-13
-4.18402e-13
-5.32205e-13
1.85084e-13
-2.21355e-13
-2.16669e-13
9.24497e-14
-1.07146e-13
-5.78831e-14
4.03554e-14
-4.38549e-14
7.35027e-15
-1.0983e-14
-1.62198e-12
-4.37529e-14
-7.14308e-13
-6.97689e-14
-2.44184e-13
-6.73298e-14
-4.74107e-14
-4.69608e-14
-6.0277e-15
4.09257e-13
1.72516e-13
4.01796e-09
1.3065e-13
1.37615e-13
2.15507e-09
3.35916e-14
8.46126e-14
1.05759e-09
6.71608e-15
4.05275e-14
4.3721e-10
9.14178e-15
1.0389e-10
5.60651e-13
2.23925e-09
2.39856e-13
1.20302e-09
8.71516e-14
5.90233e-10
2.29496e-14
2.43703e-10
5.77457e-11
-9.74737e-13
-1.40663e-13
2.58506e-09
2.22665e-13
-4.5933e-13
-7.95481e-14
1.38847e-09
1.1235e-13
-1.69412e-13
-4.44797e-14
6.81419e-10
5.6155e-14
-3.71243e-14
-2.29904e-14
2.8157e-10
2.51458e-14
-3.70538e-15
6.67974e-11
5.3727e-15
9.59438e-13
-2.82265e-09
-1.43988e-13
2.82349e-09
4.649e-13
-1.51551e-09
-9.52033e-14
1.51609e-09
1.84751e-13
-7.4409e-10
-5.58098e-14
7.44406e-10
5.15393e-14
-3.07689e-10
-2.63506e-14
3.07827e-10
-7.30979e-11
-7.25377e-15
7.31422e-11
-1.08062e-12
-5.32497e-13
-2.06203e-13
-4.56279e-14
9.68874e-13
-1.96733e-13
2.58585e-09
4.49605e-13
-1.1325e-13
1.38903e-09
1.6623e-13
-5.96026e-14
6.81728e-10
4.10241e-14
-2.57895e-14
2.81711e-10
-7.32604e-15
6.68412e-11
-1.17472e-12
-2.73455e-13
-5.623e-13
-1.36455e-13
-2.17479e-13
-6.19411e-14
-5.27697e-14
-2.42383e-14
-5.9787e-15
9.30051e-13
-9.21658e-14
-6.12151e-14
2.82427e-09
4.38474e-13
-6.32877e-14
-2.7159e-14
1.5165e-09
1.65292e-13
-3.76956e-14
-9.94407e-15
7.44495e-10
3.96021e-14
-1.86309e-14
-2.06227e-15
3.07944e-10
-4.78157e-15
-1.13065e-15
7.31445e-11
9.47329e-13
-2.15069e-13
2.58669e-09
4.45445e-13
-1.30526e-13
1.38942e-09
1.68586e-13
-7.3048e-14
6.81915e-10
4.21818e-14
-3.47356e-14
2.81799e-10
-8.05601e-15
6.68468e-11
8.94439e-13
-2.14622e-13
2.82315e-09
4.10539e-13
-1.20859e-13
1.51597e-09
1.49066e-13
-6.17854e-14
7.44271e-10
3.51665e-14
-2.64535e-14
3.07809e-10
-6.81855e-15
7.31198e-11
9.26529e-13
-2.92003e-13
2.58453e-09
4.38647e-13
-1.65278e-13
1.38833e-09
1.66916e-13
-8.78688e-14
6.81386e-10
4.15978e-14
-3.98491e-14
2.81565e-10
-9.32578e-15
6.67979e-11
1.93886e-12
-3.17061e-13
1.33739e-13
-4.01478e-09
4.01633e-09
9.58921e-13
-1.82253e-13
7.54693e-14
-2.15345e-09
2.15448e-09
4.05112e-13
-1.04898e-13
4.16429e-14
-1.05671e-09
1.05725e-09
1.27445e-13
-5.23641e-14
1.80682e-14
-4.36844e-10
4.37081e-10
-1.19274e-14
7.46261e-15
-1.03793e-10
1.03873e-10
1.34554e-12
-2.2362e-09
2.23731e-09
6.18061e-13
-1.20131e-09
1.20203e-09
2.2364e-13
-5.8938e-10
5.8978e-10
4.62485e-14
-2.43332e-10
2.43525e-10
-5.76597e-11
5.77166e-11
-1.13096e-12
2.32063e-13
-3.9551e-13
-5.26131e-13
1.0834e-13
-2.26092e-13
-1.86927e-13
4.14825e-14
-1.22861e-13
-3.46932e-14
9.9926e-15
-5.83421e-14
3.29216e-15
-1.27564e-14
-1.78222e-12
2.68631e-13
-8.62903e-13
1.77513e-13
-3.42549e-13
1.00934e-13
-8.31392e-14
4.8994e-14
1.14122e-14
-8.8451e-13
-7.94274e-14
2.57832e-09
8.52305e-14
-4.04772e-13
-6.11686e-14
1.38496e-09
4.9733e-14
-1.4403e-13
-4.35029e-14
6.79735e-10
3.0579e-14
-2.85763e-14
-2.52022e-14
2.80877e-10
1.51245e-14
-6.24726e-15
6.66251e-11
5.40966e-15
6.18797e-13
-2.81567e-09
-1.31367e-13
2.14755e-14
2.81634e-09
2.99848e-13
-1.5119e-09
-8.91458e-14
6.62556e-15
1.51228e-09
1.3288e-13
-7.42358e-10
-5.72018e-14
-1.26783e-15
7.42558e-10
4.83915e-14
-3.06977e-10
-3.04576e-14
-3.54315e-15
3.07067e-10
-7.29198e-11
-7.62465e-15
-1.14536e-16
7.29562e-11
-7.83781e-13
6.05988e-14
-3.85816e-13
3.97473e-14
-1.5822e-13
2.35462e-14
-4.22665e-14
1.21386e-14
1.94276e-15
7.67006e-13
-1.44193e-13
2.57902e-09
3.49939e-13
-8.19082e-14
1.3854e-09
1.30482e-13
-4.68275e-14
6.79979e-10
3.21423e-14
-2.18608e-14
2.80997e-10
-7.44629e-15
6.66666e-11
-1.21594e-12
5.75213e-14
-5.7296e-13
3.93235e-14
-2.20419e-13
1.7353e-14
-5.3857e-14
4.01106e-15
1.96156e-15
-8.8574e-13
-1.26933e-13
2.57963e-09
1.50613e-13
-4.45505e-13
-8.18417e-14
1.38561e-09
9.99526e-14
-1.90507e-13
-4.56519e-14
6.80054e-10
6.36824e-14
-5.64052e-14
-1.99342e-14
2.81032e-10
3.32587e-14
-6.62518e-15
6.66536e-11
9.08187e-15
5.99648e-13
-2.81645e-09
-7.71018e-14
2.81715e-09
2.63519e-13
-1.51224e-09
-5.16638e-14
1.51265e-09
9.39843e-14
-7.42481e-10
-3.31516e-14
7.42708e-10
2.13857e-14
-3.07066e-10
-1.68828e-14
3.07175e-10
-7.29346e-11
-5.79868e-15
7.29733e-11
-7.38166e-13
-3.505e-13
-1.41334e-13
-3.99721e-14
8.87381e-13
-1.12597e-13
2.58036e-09
4.27778e-13
-6.78163e-14
1.38607e-09
1.71419e-13
-4.52503e-14
6.80301e-10
4.85307e-14
-2.60799e-14
2.81145e-10
-5.84768e-15
6.66968e-11
-1.25182e-12
-2.68023e-13
7.45891e-14
-6.14161e-13
-1.57119e-13
4.85834e-14
-2.51084e-13
-7.79643e-14
2.77054e-14
-6.89915e-14
-3.21661e-14
1.45113e-14
-9.34485e-15
8.97999e-16
-1.71914e-12
-8.1555e-13
-3.1763e-13
-7.74998e-14
1.54969e-12
-1.25443e-13
-4.01432e-09
4.01576e-09
7.09251e-13
-8.0051e-14
-2.15339e-09
2.15431e-09
2.65053e-13
-4.43416e-14
-1.05664e-09
1.05712e-09
6.47953e-14
-1.95016e-14
-4.36846e-10
4.37066e-10
-6.08209e-15
-1.03774e-10
1.03842e-10
1.60883e-12
-4.01356e-09
4.01505e-09
7.36465e-13
-2.15288e-09
2.15383e-09
2.73053e-13
-1.05645e-09
1.05696e-09
6.26426e-14
-4.36741e-10
4.36975e-10
-1.03748e-10
1.03819e-10
2.66245e-12
4.20775e-09
1.27192e-12
2.25541e-09
4.94628e-13
1.10648e-09
1.21373e-13
4.5753e-10
1.0877e-10
-2.07485e-12
4.20998e-09
-9.54172e-13
2.25649e-09
-3.51337e-13
1.10698e-09
-8.12975e-14
4.57666e-10
1.08777e-10
1.71583e-12
4.21147e-09
7.76263e-13
2.25747e-09
2.84353e-13
1.10753e-09
6.51717e-14
4.57925e-10
1.08851e-10
1.13026e-12
-1.42657e-14
-4.01501e-09
4.0164e-09
4.46818e-13
-7.26095e-15
-2.15354e-09
2.15437e-09
1.25255e-13
1.785e-15
-1.05673e-09
1.05717e-09
9.29261e-15
4.35705e-15
-4.36858e-10
4.3706e-10
-1.79146e-16
-1.03788e-10
1.03847e-10
7.40816e-13
-2.23639e-09
2.23691e-09
3.59582e-13
-1.20154e-09
1.20188e-09
1.46836e-13
-5.89523e-10
5.89704e-10
4.37151e-14
-2.43412e-10
2.43491e-10
-5.76677e-11
5.76986e-11
-9.71007e-13
2.4421e-13
-4.77649e-13
1.5723e-13
-1.9712e-13
9.05064e-14
-5.51532e-14
4.50171e-14
8.37185e-15
-1.64642e-12
3.30257e-13
-7.95872e-13
1.85942e-13
-3.12366e-13
9.49779e-14
-7.50146e-14
4.18252e-14
8.97857e-15
-1.68128e-12
-8.14105e-13
-3.20089e-13
-7.61127e-14
1.04634e-12
-7.28716e-13
4.00445e-13
-4.01232e-09
4.01343e-09
5.68134e-13
-4.73354e-13
2.54713e-13
-2.15221e-09
2.15281e-09
2.96797e-13
-2.77493e-13
1.36244e-13
-1.05614e-09
1.05642e-09
1.2949e-13
-1.35198e-13
5.61868e-14
-4.36681e-10
4.36785e-10
-3.27474e-14
1.65821e-14
-1.03714e-10
1.03759e-10
7.90479e-13
-2.23556e-09
2.2364e-09
3.37388e-13
-1.20098e-09
1.20151e-09
1.07442e-13
-5.89205e-10
5.89509e-10
1.39186e-14
-2.43268e-10
2.43422e-10
-5.76374e-11
5.76811e-11
-7.11888e-13
-2.72212e-13
-3.03513e-13
-1.22326e-13
-9.44886e-14
-5.74461e-14
-1.39428e-14
-2.98465e-14
-9.393e-16
6.86479e-13
2.16779e-13
-4.01308e-09
4.01399e-09
2.33681e-13
1.79527e-13
-2.1524e-09
2.15305e-09
1.87616e-14
1.14363e-13
-1.05623e-09
1.05661e-09
-3.95895e-14
6.07034e-14
-4.36692e-10
4.36894e-10
1.06118e-14
-1.03733e-10
1.03786e-10
9.00009e-13
-2.23494e-09
2.23555e-09
4.63393e-13
-1.2007e-09
1.20109e-09
2.02851e-13
-5.89133e-10
5.89332e-10
6.44812e-14
-2.4327e-10
2.4335e-10
-5.76216e-11
5.76549e-11
-1.08925e-12
-1.44753e-14
-5.65564e-13
-9.78123e-15
-2.4301e-13
-3.77776e-15
-7.03316e-14
3.16062e-15
-4.9436e-15
-1.38206e-12
-5.31307e-14
-6.99009e-13
2.34776e-14
-2.89126e-13
4.28938e-14
-7.42338e-14
3.35989e-14
5.77615e-15
-1.15112e-12
-5.26746e-13
-2.07044e-13
-6.45183e-14
-2.01982e-12
4.21315e-09
-9.6642e-13
2.25825e-09
-3.73976e-13
1.10775e-09
-8.69582e-14
4.58026e-10
1.08839e-10
1.8764e-12
4.21461e-09
8.71895e-13
2.2592e-09
3.25755e-13
1.10826e-09
7.70064e-14
4.58255e-10
1.08911e-10
1.82379e-12
4.21642e-09
8.41863e-13
2.26008e-09
3.12854e-13
1.10878e-09
7.10111e-14
4.58455e-10
1.08966e-10
1.76387e-12
4.21164e-09
8.16223e-13
2.25751e-09
3.03883e-13
1.10749e-09
6.86645e-14
4.57921e-10
1.08855e-10
-1.4429e-12
2.99013e-13
-6.60162e-13
1.63874e-13
-2.44528e-13
8.0366e-14
-5.66632e-14
3.14052e-14
1.01977e-14
-1.90932e-12
-9.31505e-13
-3.61521e-13
-8.00005e-14
-2.14193e-12
4.20395e-09
-1.05057e-12
2.25331e-09
-4.22183e-13
1.10538e-09
-1.05623e-13
4.57054e-10
1.08624e-10
2.03065e-12
4.20534e-09
9.69972e-13
2.2542e-09
3.7904e-13
1.10586e-09
9.59106e-14
4.57274e-10
1.08704e-10
-1.97745e-12
4.20639e-09
-9.47366e-13
2.25459e-09
-3.71047e-13
1.10607e-09
-9.02106e-14
4.57319e-10
1.08681e-10
2.06802e-12
4.20791e-09
9.77469e-13
2.25557e-09
3.77955e-13
1.10661e-09
9.30139e-14
4.57579e-10
1.08765e-10
2.18051e-11
8.79115e-12
6.45201e-09
-6.87075e-13
-3.85156e-12
-1.53795e-12
6.4497e-09
-2.44698e-12
2.11589e-11
-1.39687e-10
4.8781e-11
1.82162e-10
2.74458e-08
-1.78376e-11
9.01363e-11
4.46769e-11
2.08302e-08
-1.00042e-11
3.99513e-12
-2.26621e-11
2.0664e-08
-5.02581e-11
1.1157e-13
4.23792e-12
1.41952e-11
1.92779e-08
-1.26494e-11
-3.17446e-12
1.2897e-08
-2.25466e-12
3.0919e-13
1.03033e-11
-9.88852e-11
2.37409e-08
-3.09615e-10
-1.67612e-09
4.30932e-11
4.74098e-10
6.72889e-11
3.00579e-10
7.12942e-11
1.15564e-07
1.47247e-10
2.11049e-10
-1.54859e-11
-3.28175e-11
2.04188e-08
2.15691e-10
-4.14592e-09
6.103e-10
1.45523e-10
1.10492e-10
7.09606e-10
1.22484e-07
-5.03706e-11
1.42699e-11
4.53798e-12
1.92757e-08
-1.27334e-11
2.08318e-12
-3.99366e-12
1.29066e-08
-2.15155e-12
-9.89263e-11
1.06373e-11
2.37358e-08
-8.16815e-10
-1.66035e-11
-1.95149e-09
4.78222e-10
7.87253e-11
5.294e-11
2.88696e-10
4.26413e-10
1.62499e-11
2.48088e-10
1.1719e-07
-3.99262e-09
6.17184e-10
1.44882e-10
9.35959e-11
7.0993e-10
1.23345e-07
7.55153e-12
-1.63384e-11
-3.49716e-11
2.04148e-08
-1.3096e-11
-1.95462e-09
4.80023e-10
6.69079e-11
5.23274e-11
3.02796e-10
4.2259e-10
3.95129e-11
2.24336e-10
1.17206e-07
-8.10852e-10
1.29098e-11
1.04939e-11
-1.57277e-11
-3.30396e-11
2.04211e-08
1.89036e-12
-3.63618e-12
1.2901e-08
-2.15819e-12
-3.43879e-12
6.45492e-09
-2.3917e-12
2.61134e-11
2.74189e-08
8.85424e-11
6.44523e-12
-3.41907e-11
-4.88929e-11
2.07947e-08
3.20115e-12
-7.47677e-12
4.0614e-11
1.05897e-11
2.09908e-08
4.38559e-13
6.5793e-09
-2.49706e-12
-7.56504e-14
-9.94322e-12
2.74404e-11
5.40036e-13
2.43603e-08
-5.22271e-10
-1.26604e-09
4.24456e-10
5.26701e-11
1.61962e-10
2.98595e-10
2.47927e-11
1.53405e-11
2.3396e-10
1.16759e-07
-2.01719e-10
-7.92512e-10
2.01873e-10
-8.87216e-11
-3.19102e-11
8.92292e-11
1.20299e-07
6.13468e-12
-7.29607e-12
-1.38235e-11
2.07887e-08
-9.54188e-12
2.73166e-11
7.84694e-14
2.4363e-08
-4.85165e-10
-3.01479e-11
-1.25096e-09
2.92772e-10
3.81537e-11
1.58289e-11
2.20049e-10
4.29523e-10
2.96683e-11
1.86501e-10
1.16769e-07
-7.8064e-10
1.96704e-10
-8.88739e-11
-3.21463e-11
8.9483e-11
1.19864e-07
6.42069e-12
4.27996e-12
-7.38729e-12
-1.61895e-11
2.07855e-08
-7.92501e-14
3.43043e-14
-4.05977e-12
1.98698e-08
-7.01284e-13
1.31845e-08
-2.24296e-12
-8.20338e-14
-4.14634e-12
1.9874e-08
-5.58587e-13
-6.55339e-13
1.31874e-08
-2.24349e-12
2.74254e-08
5.77361e-11
4.11587e-11
3.99303e-12
4.40968e-12
-2.3159e-11
2.08327e-08
3.3235e-12
4.37243e-13
-1.65381e-11
2.09473e-08
6.45304e-09
-2.2566e-12
6.57782e-09
-2.53652e-12
1.3075e-11
1.10513e-11
5.33729e-09
-9.73431e-13
-3.27492e-12
-1.92778e-12
5.34006e-09
-1.80207e-12
7.23885e-12
-1.3861e-11
1.47461e-08
4.85967e-11
1.24434e-08
-9.09215e-13
-7.60246e-11
1.806e-10
2.29311e-08
1.08849e-10
5.34205e-11
1.91667e-08
-1.00126e-11
1.22345e-08
-1.84984e-12
2.28716e-11
-4.30325e-11
-3.34285e-11
2.21794e-08
-2.04195e-11
1.82776e-08
-9.48015e-09
-4.53177e-11
-1.68008e-12
3.71305e-12
9.52342e-09
9.19892e-15
1.09865e-11
1.82767e-08
6.14444e-12
-4.11974e-11
9.1914e-13
1.1509e-08
1.99178e-15
-1.77998e-12
1.10337e-11
5.40891e-11
1.07559e-13
-1.77553e-10
1.93902e-08
1.25394e-12
-1.8148e-12
1.66753e-11
-1.536e-10
1.83794e-08
-2.433e-14
1.15615e-08
-7.64912e-14
-5.32558e-09
-2.09364e-11
5.35018e-09
4.69163e-14
2.108e-12
1.97811e-08
-2.65997e-11
-5.33725e-12
-6.22645e-11
7.9588e-12
1.29558e-08
8.01051e-13
-3.07457e-12
-1.09032e-10
1.98805e-08
-9.48336e-09
-1.8301e-12
-4.56912e-11
4.12334e-12
9.5266e-09
1.49991e-13
1.06205e-12
1.15101e-08
-1.77373e-12
1.131e-11
1.82737e-08
6.74349e-12
-4.16928e-11
5.43396e-11
1.14261e-11
-1.77642e-10
1.93876e-08
1.58658e-12
-1.61346e-12
1.15626e-08
-2.74866e-14
1.7357e-11
-1.53849e-10
1.8376e-08
-5.32863e-09
-2.05191e-11
5.35312e-09
1.54014e-13
1.84188e-12
1.97863e-08
-2.66052e-11
-6.24873e-12
8.48529e-12
-6.20965e-11
1.29657e-08
8.06912e-13
-2.93272e-12
-1.09102e-10
1.9886e-08
-5.32521e-09
-2.072e-11
-3.9285e-12
5.34978e-09
7.64915e-14
2.08281e-12
1.97797e-08
-2.67459e-11
-6.46954e-12