/*--------------------------------*- C++ -*----------------------------------*\
| =========                 |                                                 |
| \\      /  F ield         | OpenFOAM: The Open Source CFD Toolbox           |
|  \\    /   O peration     | Version:  2206                                  |
|   \\  /    A nd           | Website:  www.openfoam.com                      |
|    \\/     M anipulation  |                                                 |
\*---------------------------------------------------------------------------*/
FoamFile
{
    version     2.0;
    format      ascii;
    arch        "LSB;label=32;scalar=64";
    class       volVectorField;
    location    "130";
    object      wallShearStress;
}
// * * * * * * * * * * * * * * * * * * * * * * * * * * * * * * * * * * * * * //

dimensions      [0 2 -2 0 0 0 0];

internalField   uniform (0 0 0);

boundaryField
{
    topPatch
    {
        type            calculated;
        value           nonuniform List<vector> 0();
    }
    wall
    {
        type            calculated;
        value           nonuniform List<vector> 
7709
(
(3.69416e-08 -8.0547e-09 -0.000103712)
(1.02675e-08 -3.19793e-09 -0.000103659)
(-5.30568e-10 -5.93175e-09 -0.000110231)
(4.4655e-08 -1.83498e-08 -0.000110195)
(3.89723e-09 -5.76506e-09 -0.000110129)
(-3.9407e-09 -2.58251e-09 -0.000110291)
(4.28409e-09 -4.42871e-09 -0.000103775)
(-6.82379e-09 -9.01359e-10 -0.000103784)
(-6.00123e-09 -2.58454e-11 -0.000103716)
(1.44267e-08 -7.9625e-12 -0.000110189)
(1.4504e-08 1.30203e-09 -0.000103664)
(-1.59095e-08 -1.1339e-09 -0.000103661)
(-4.17219e-09 -1.02507e-09 -0.000110195)
(-1.31802e-08 3.20629e-09 -0.00011015)
(-7.73062e-09 2.2862e-09 -0.000105555)
(1.25669e-09 -3.9085e-09 -0.000106898)
(-3.42467e-09 1.42225e-09 -0.000107028)
(6.1148e-09 -1.03556e-08 -0.000105451)
(-6.41302e-09 -9.15147e-09 -0.000103709)
(-5.28691e-09 -2.06324e-09 -0.000110334)
(-6.64384e-09 1.51633e-09 -0.000104157)
(1.04694e-08 -7.72824e-09 -0.000104216)
(-1.23533e-08 1.80415e-09 -0.000104102)
(1.26507e-08 -8.48869e-10 -0.000104097)
(1.17647e-09 -9.92462e-09 -0.000110235)
(-1.3998e-08 -1.61372e-08 -0.000109216)
(-8.92374e-09 -7.84723e-09 -0.000104247)
(-3.93139e-09 -5.4568e-09 -0.000105654)
(4.89875e-09 5.97526e-09 -0.000106937)
(-4.85295e-09 -1.75839e-09 -0.000107056)
(4.93708e-09 1.05015e-08 -0.000105538)
(-6.49015e-09 -2.2462e-09 -0.000103836)
(-3.52877e-09 -3.18631e-09 -0.000106937)
(-5.56007e-09 -8.2757e-09 -0.000105526)
(-3.76709e-09 6.36756e-09 -0.000106922)
(-5.57651e-09 1.09268e-08 -0.000105492)
(2.04663e-08 7.91125e-09 -0.000109193)
(9.67325e-09 1.37891e-09 -0.000104167)
(-9.22053e-09 -1.88864e-09 -0.000104156)
(-1.23927e-08 2.29393e-10 -0.000110181)
(9.12193e-09 4.04286e-09 -0.000105345)
(-6.12917e-09 -4.11731e-09 -0.000106759)
(4.0997e-09 4.34589e-09 -0.000106769)
(-1.18858e-08 -4.55794e-09 -0.000105361)
(-1.32548e-08 4.37681e-10 -0.000103608)
(-1.10085e-08 7.14359e-09 -0.000105341)
(5.39189e-09 -2.05967e-09 -0.000106759)
(-7.38324e-09 3.81023e-09 -0.000106772)
(9.42164e-09 -5.92534e-09 -0.000105366)
(1.13698e-08 3.34205e-09 -0.000103595)
(1.47177e-08 -2.37504e-09 -0.000110145)
(-3.03389e-09 -3.72985e-09 -0.000109163)
(-1.57967e-08 8.56338e-09 -0.00010915)
(2.00059e-08 5.50282e-10 -0.000110253)
(-5.81883e-09 3.83096e-09 -0.000110293)
(8.38123e-09 -1.59649e-08 -0.00011019)
(1.15993e-09 2.12561e-10 -0.000109166)
(3.81517e-09 -2.43765e-09 -0.000104145)
(-1.21065e-08 -7.25791e-09 -0.000104217)
(7.18152e-09 -2.37604e-10 -0.000109238)
(1.84023e-08 -9.19352e-09 -0.0001092)
(3.18811e-08 -2.14297e-08 -0.000109105)
(3.8536e-08 -2.21879e-08 -0.000104119)
(5.92527e-09 -7.52148e-09 -0.000104145)
(8.82736e-09 -9.90835e-09 -0.0001091)
(1.25279e-08 -8.82767e-09 -0.00010408)
(-1.83407e-09 -8.33873e-09 -0.000104134)
(-5.9208e-09 -1.80294e-10 -0.000109183)
(6.34083e-09 -1.28851e-08 -0.000109212)
(-8.60826e-09 -9.83143e-09 -0.000110421)
(7.48912e-09 9.10582e-09 -0.000110325)
(-8.41394e-09 -1.37406e-08 -0.000110311)
(-8.64303e-09 1.36686e-08 -0.000110248)
(-7.97469e-09 -4.13226e-09 -0.000109263)
(-2.16798e-08 -1.03466e-08 -0.000109223)
(4.67205e-09 8.32728e-09 -0.000110115)
(-6.04545e-09 -7.46897e-09 -0.000110186)
(-9.12051e-09 8.21614e-09 -0.000110121)
(1.69994e-09 -6.10037e-09 -0.000110187)
(-2.91519e-09 2.68276e-11 -0.000110226)
(1.22783e-09 -3.49793e-09 -0.000110305)
(-2.77322e-09 -3.37124e-09 -0.000103785)
(-5.36402e-09 -6.97373e-09 -0.000103911)
(3.04936e-09 -1.29769e-09 -0.000103851)
(-7.0543e-09 -1.18505e-08 -0.000110405)
(-2.31194e-08 -8.12235e-09 -0.000110243)
(-1.65029e-08 -2.07438e-09 -0.000103652)
(1.52749e-08 -4.48768e-10 -0.000103647)
(2.31454e-09 -2.07058e-09 -0.00011037)
(1.82115e-08 -6.83709e-09 -0.000110205)
(-1.67307e-09 -1.29044e-08 -0.000105363)
(-8.11387e-10 6.20164e-09 -0.000107113)
(-3.33263e-09 8.06894e-09 -0.000105642)
(-4.38048e-09 -4.28023e-10 -0.000106812)
(1.96498e-09 -2.39472e-08 -0.000110116)
(4.523e-09 -1.50038e-08 -0.000103576)
(-2.44404e-09 1.25664e-08 -0.000105452)
(-1.93299e-09 -5.53514e-10 -0.000107143)
(-2.05629e-09 -7.44982e-09 -0.000105737)
(-3.46733e-09 6.7731e-09 -0.000106846)
(1.07703e-09 5.20507e-09 -0.000103696)
(-9.21976e-10 1.6078e-08 -0.00011017)
(-1.59002e-09 7.35429e-09 -0.000103637)
(2.19284e-09 1.00349e-08 -0.000110167)
(-1.17834e-08 -6.63874e-09 -0.000109318)
(-1.62643e-08 -8.56769e-09 -0.000104251)
(1.83298e-08 1.66135e-08 -0.000104126)
(2.72595e-08 1.5706e-08 -0.000110147)
(2.1905e-09 -9.74823e-10 -0.000105349)
(3.37498e-09 2.38837e-09 -0.000106784)
(2.89758e-09 3.06169e-09 -0.000105366)
(2.20058e-09 -1.92526e-09 -0.000106766)
(2.67089e-08 8.67676e-09 -0.000103621)
(-4.15286e-09 -1.64346e-09 -0.000105356)
(-2.32168e-09 1.61933e-09 -0.00010679)
(-4.45957e-09 3.03438e-09 -0.000105373)
(-3.17594e-09 -2.00224e-09 -0.00010677)
(-8.77155e-09 3.85689e-10 -0.00011016)
(-2.18536e-08 6.118e-09 -0.000103621)
(-4.92925e-09 8.37791e-09 -0.000109112)
(-1.79503e-08 1.76319e-08 -0.000109103)
(6.90079e-09 -6.88766e-09 -0.000104289)
(-7.60203e-09 1.28643e-08 -0.000104097)
(1.46147e-08 -6.00773e-09 -0.000104161)
(-1.69922e-08 1.11498e-08 -0.000104055)
(-2.38609e-09 1.08565e-08 -0.000110131)
(-2.03109e-08 1.09526e-08 -0.000110113)
(1.99063e-09 4.07961e-09 -0.000109319)
(3.67162e-09 -2.16988e-09 -0.000109316)
(1.83341e-08 -1.33974e-08 -0.000109273)
(-4.83391e-09 2.18207e-09 -0.000109231)
(5.00397e-09 -4.44181e-09 -0.000104207)
(4.09818e-09 -5.90723e-09 -0.00010926)
(-3.79836e-09 1.86759e-10 -0.000104197)
(-4.37576e-09 8.89242e-09 -0.000110374)
(8.64422e-10 1.36366e-08 -0.000110248)
(-6.37907e-09 -1.67991e-08 -0.000110506)
(5.41759e-09 -1.30767e-08 -0.000110429)
(-1.2185e-08 -1.18216e-08 -0.00010426)
(9.02625e-09 1.16141e-08 -0.000104077)
(-3.45798e-09 -2.28868e-09 -0.000109123)
(7.6302e-09 1.09685e-08 -0.000109136)
(8.60322e-09 -3.64215e-10 -0.000110151)
(-1.98121e-09 4.05311e-09 -0.000110155)
(-2.47485e-09 4.68248e-09 -0.000110167)
(-1.8238e-08 3.20794e-09 -0.000103546)
(1.38905e-08 -1.71217e-10 -0.000103608)
(1.71336e-08 7.47294e-09 -0.000110176)
(-1.98672e-08 -7.57723e-09 -0.000110174)
(2.9483e-09 -9.84437e-09 -0.000103708)
(5.58923e-09 -4.79707e-09 -0.000103645)
(-1.1488e-08 -1.07563e-09 -0.000103519)
(2.25383e-08 -2.79383e-09 -0.00010364)
(2.45434e-08 8.76126e-09 -0.000110135)
(-1.69145e-08 -4.94726e-09 -0.000110205)
(-1.05112e-09 -9.66929e-09 -0.000103677)
(4.27573e-09 5.10569e-09 -0.000103709)
(1.0141e-09 9.663e-09 -0.000110344)
(1.28586e-09 -7.70554e-09 -0.000110356)
(-1.61529e-08 7.53773e-09 -0.000110098)
(2.05849e-08 -6.74059e-09 -0.000110105)
(5.39884e-09 -8.64281e-09 -0.000110217)
(4.28544e-09 -4.02389e-09 -0.00011013)
(2.35752e-08 -8.6918e-09 -0.000110131)
(-1.49559e-08 5.25475e-09 -0.000110085)
(2.2198e-09 -1.37428e-09 -0.00011016)
(5.29022e-09 -1.1966e-08 -0.000110201)
(1.81612e-08 3.20763e-09 -0.000103615)
(-1.66552e-08 -1.37393e-09 -0.000103673)
(1.51657e-08 -6.95444e-12 -0.000103635)
(-1.41754e-08 9.88189e-10 -0.000103537)
(-1.38387e-08 -3.71611e-10 -0.0001037)
(1.30163e-08 4.14368e-10 -0.000103601)
(7.17209e-10 2.54322e-09 -0.00011036)
(1.73285e-09 5.98334e-09 -0.000110272)
(-1.9924e-08 -7.21634e-09 -0.000110198)
(1.89245e-08 7.16481e-09 -0.000110157)
(-2.0355e-09 -1.98669e-09 -0.000110295)
(1.01945e-09 -6.62973e-11 -0.000110337)
(-1.33528e-09 -1.24076e-09 -0.00010386)
(5.75693e-10 -7.43757e-09 -0.000103788)
(4.23006e-09 -2.45499e-09 -0.000103677)
(1.43937e-09 -1.02988e-08 -0.000103697)
(6.90846e-10 -4.8333e-09 -0.000103812)
(-3.00659e-09 -1.85244e-09 -0.000103838)
(1.43848e-09 1.71879e-09 -0.00010384)
(4.18269e-10 7.42967e-09 -0.00010377)
(3.18879e-09 -3.27641e-09 -0.000103761)
(2.73598e-09 -1.30773e-08 -0.000103692)
(-1.28156e-09 4.68814e-09 -0.000103794)
(3.58807e-09 2.67325e-09 -0.000103819)
(-1.1781e-09 -2.83763e-09 -0.000103711)
(6.3172e-09 -9.92174e-09 -0.000103742)
(-1.73261e-08 5.9338e-09 -0.000110068)
(2.91011e-08 -1.07274e-08 -0.000110138)
(4.09667e-09 -1.1741e-08 -0.000110176)
(-1.03994e-09 7.9728e-09 -0.000110188)
(1.39881e-08 -1.25167e-09 -0.000103584)
(-1.32994e-08 1.18309e-09 -0.000103714)
(-2.87278e-09 -1.11261e-08 -0.000110313)
(6.4669e-10 8.64759e-09 -0.000110336)
(-1.64512e-09 6.61867e-09 -0.000103811)
(4.18631e-09 1.43179e-10 -0.000103837)
(2.03575e-09 -5.58607e-09 -0.000103793)
(-2.61541e-09 7.48311e-09 -0.000103831)
(4.61163e-10 8.29163e-09 -0.000103712)
(-2.19219e-09 -2.05151e-09 -0.000103733)
(-2.31339e-08 -7.93543e-09 -0.000110176)
(1.90274e-08 4.48575e-09 -0.000110259)
(-2.43041e-08 -5.75817e-09 -0.000110191)
(-1.65043e-08 -6.50739e-10 -0.000103592)
(1.43065e-08 6.33065e-11 -0.000103722)
(1.59325e-08 6.76653e-10 -0.000103567)
(-1.87156e-08 -1.71727e-09 -0.000103696)
(-1.25036e-08 2.87279e-09 -0.000103592)
(7.46714e-09 7.37966e-09 -0.000103555)
(4.4069e-10 7.18797e-09 -0.000110223)
(-1.11607e-09 -8.99634e-09 -0.000110235)
(2.40567e-08 -8.6976e-09 -0.000110098)
(-2.09998e-08 7.83763e-09 -0.000110169)
(1.78632e-08 -3.90911e-09 -0.000110098)
(-1.6612e-09 -2.92101e-09 -0.000105288)
(-7.84959e-09 2.95745e-09 -0.000106768)
(-4.76639e-09 -2.62607e-09 -0.000106714)
(-1.10558e-08 4.64482e-09 -0.000105347)
(1.16102e-08 1.84208e-10 -0.000103597)
(-1.6831e-08 2.81662e-09 -0.000103541)
(-1.71695e-08 -6.40105e-09 -0.000110168)
(1.66501e-08 6.77306e-09 -0.000110164)
(3.14979e-11 5.10018e-09 -0.000105536)
(2.77212e-10 -4.58027e-09 -0.000106869)
(5.99609e-10 7.80785e-10 -0.000106997)
(3.02716e-09 -1.48382e-08 -0.000105426)
(6.45928e-09 -1.81775e-08 -0.000110173)
(5.62443e-09 -6.47692e-09 -0.000103628)
(-2.46341e-09 5.78215e-09 -0.000110264)
(2.66839e-09 -9.40604e-09 -0.000103704)
(8.53604e-09 -5.36172e-09 -0.000105283)
(1.14146e-09 2.78606e-09 -0.000106785)
(2.25063e-09 -4.67946e-09 -0.000106705)
(3.52282e-10 3.57657e-09 -0.000105365)
(-1.9251e-09 6.28925e-09 -0.000110183)
(1.82564e-08 -4.77916e-10 -0.000103645)
(1.15644e-08 -8.7289e-09 -0.000110052)
(-6.47768e-09 -3.36774e-09 -0.000103505)
(-2.00823e-08 -7.02699e-09 -0.000110208)
(1.96517e-08 5.42745e-09 -0.000110119)
(-4.20922e-09 8.79534e-09 -0.000105504)
(2.46898e-09 -1.83783e-09 -0.000106941)
(-1.53848e-09 4.69537e-09 -0.000106965)
(5.05233e-09 -9.72416e-09 -0.000105501)
(8.00615e-09 -1.58239e-08 -0.000110259)
(5.20226e-09 1.92109e-09 -0.0001037)
(-8.94375e-10 -9.03626e-09 -0.00010367)
(-3.59546e-10 -8.07997e-09 -0.000110346)
(1.72905e-09 1.12226e-08 -0.000110333)
(7.71394e-10 3.14814e-09 -0.000104168)
(1.78532e-10 -2.97008e-09 -0.000104157)
(1.48105e-08 -5.3322e-09 -0.000104061)
(-1.49601e-08 5.01999e-09 -0.000104072)
(1.57086e-09 -4.84748e-09 -0.000104163)
(-2.83587e-10 3.98088e-09 -0.00010416)
(-1.58455e-08 3.73884e-09 -0.000104081)
(1.68553e-08 -7.01804e-09 -0.000104063)
(5.10807e-09 -2.16094e-09 -0.000109205)
(1.99975e-08 -1.39458e-08 -0.000109137)
(1.77196e-08 -5.66354e-09 -0.000110096)
(-1.50715e-08 6.56428e-09 -0.00011009)
(4.30905e-09 -4.73213e-09 -0.000110116)
(5.11432e-09 -9.38207e-09 -0.00011021)
(-1.53526e-08 4.80512e-09 -0.000110073)
(2.11559e-08 -7.86866e-09 -0.000110113)
(5.12442e-09 -1.28399e-08 -0.000110186)
(4.00015e-09 -4.3324e-09 -0.000110142)
(-8.59782e-09 -4.33656e-09 -0.000105346)
(-5.99288e-09 2.77489e-09 -0.00010679)
(-6.50434e-09 -3.27574e-09 -0.000106737)
(-1.76456e-09 2.76336e-09 -0.000105403)
(-1.39529e-08 -1.10978e-09 -0.000103662)
(-3.26211e-09 -5.06599e-09 -0.000110141)
(1.43527e-08 1.28313e-09 -0.000103605)
(-1.28881e-08 5.73439e-09 -0.000105365)
(-6.55857e-09 -3.95547e-09 -0.000106716)
(-2.9002e-09 -3.53021e-09 -0.000105292)
(-1.09578e-08 3.76064e-09 -0.000106786)
(-1.38698e-08 8.45268e-10 -0.000103526)
(1.58716e-08 -7.47025e-10 -0.000103619)
(-3.26098e-09 2.46039e-09 -0.000105417)
(-8.56463e-09 -4.71099e-09 -0.000106739)
(-1.25601e-08 -5.60238e-09 -0.000105349)
(-8.37371e-09 2.78193e-09 -0.000106807)
(-6.04996e-09 -7.14044e-09 -0.000110137)
(1.52575e-08 8.74891e-10 -0.000103589)
(-1.49731e-08 -1.10754e-09 -0.000103683)
(5.25372e-09 7.2802e-09 -0.000104269)
(-6.20977e-10 2.56762e-09 -0.000104184)
(-8.04785e-10 3.10194e-09 -0.000104194)
(5.45208e-09 6.35841e-09 -0.000104259)
(4.69396e-09 6.57488e-09 -0.000109283)
(1.62587e-09 5.19845e-09 -0.00011026)
(2.06427e-09 2.65905e-09 -0.000110352)
(2.36233e-08 9.07653e-09 -0.000110143)
(-1.83088e-08 -7.08269e-09 -0.000110182)
(-1.97113e-09 -4.55612e-09 -0.000109256)
(-4.3769e-09 -2.73457e-09 -0.000104219)
(1.58411e-09 -3.55018e-09 -0.000104223)
(3.84863e-09 1.67591e-09 -0.000104241)
(-2.48899e-09 -1.20123e-10 -0.0001042)
(-5.62933e-09 -1.04543e-08 -0.00010924)
(-8.64421e-10 -6.1026e-09 -0.000110319)
(-2.51993e-10 2.42964e-09 -0.000110278)
(-5.64e-10 -9.77292e-09 -0.000105621)
(3.28293e-10 3.83937e-09 -0.000106903)
(2.89141e-10 -1.63679e-09 -0.00010703)
(1.84834e-09 1.00723e-08 -0.000105507)
(8.7662e-10 -5.09814e-09 -0.000103775)
(-4.55973e-09 -1.45315e-08 -0.000110395)
(-2.53824e-09 -3.5189e-09 -0.000103849)
(3.8198e-09 -1.25728e-08 -0.000105446)
(-1.24825e-09 2.93685e-09 -0.000106989)
(-1.90298e-09 7.02365e-09 -0.000105528)
(9.516e-10 -2.46859e-09 -0.00010689)
(1.46283e-09 -1.17785e-08 -0.000103683)
(5.13039e-09 -4.49163e-09 -0.000103658)
(1.98307e-09 9.81583e-09 -0.00010552)
(-1.34083e-09 -1.54941e-09 -0.00010702)
(-2.31843e-09 -1.02764e-08 -0.000105608)
(1.23072e-09 3.39874e-09 -0.000106921)
(-1.40054e-09 2.46847e-09 -0.000103823)
(4.9612e-10 -6.31608e-09 -0.000103797)
(1.36808e-10 7.62744e-09 -0.000105658)
(-1.17889e-09 -5.82105e-09 -0.000106966)
(-8.90383e-10 -5.28441e-10 -0.000107095)
(-2.39244e-09 -1.06315e-08 -0.000105544)
(-4.73664e-10 4.89956e-09 -0.000103757)
(5.04209e-09 1.47922e-08 -0.000110399)
(2.87137e-09 2.96557e-09 -0.000103831)
(1.61874e-09 -1.40081e-08 -0.000105605)
(-1.97456e-10 -1.15976e-09 -0.000106941)
(-1.38069e-10 -6.32062e-09 -0.000107072)
(-1.0005e-09 4.89701e-09 -0.00010549)
(6.97378e-10 -6.28712e-09 -0.000103675)
(5.96136e-09 -1.81937e-08 -0.000110318)
(4.11999e-09 -4.42273e-09 -0.000103753)
(-2.17231e-09 -5.85949e-09 -0.000105554)
(7.71205e-10 2.09464e-09 -0.000107079)
(2.47838e-09 1.26555e-08 -0.000105642)
(-3.17706e-10 -2.13899e-09 -0.000106974)
(2.21433e-09 -2.62789e-09 -0.000103801)
(-6.76427e-10 6.22383e-09 -0.000103778)
(-1.378e-09 6.15377e-09 -0.000105497)
(1.14568e-09 -5.72268e-09 -0.000107056)
(3.04943e-09 -1.45898e-08 -0.000105588)
(-3.00079e-10 1.05032e-09 -0.00010695)
(2.27575e-09 1.05736e-09 -0.000103719)
(2.24966e-09 -1.28195e-08 -0.000103696)
(2.39284e-08 -8.11848e-09 -0.000110142)
(-1.78184e-08 4.64864e-09 -0.000110056)
(1.30539e-09 3.77182e-09 -0.000110179)
(2.6548e-09 -9.93611e-09 -0.000110169)
(-1.18943e-08 -6.78119e-09 -0.000105341)
(2.27167e-09 3.25343e-09 -0.000106809)
(-2.60366e-09 -4.7782e-09 -0.00010673)
(1.38403e-09 3.35753e-09 -0.000105424)
(-1.3974e-08 9.77548e-10 -0.000103713)
(-1.31077e-08 -9.58594e-09 -0.000110138)
(1.13672e-08 -2.50348e-09 -0.000103573)
(-6.77388e-09 -5.8035e-09 -0.000109228)
(-1.22739e-09 -7.35014e-09 -0.00010422)
(-6.55529e-09 -1.91598e-09 -0.000104227)
(1.85059e-09 4.74738e-09 -0.000104252)
(-5.69434e-09 -1.0545e-08 -0.00010425)
(-3.9269e-09 -3.91997e-10 -0.000110314)
(-6.56791e-09 -1.78872e-08 -0.000110315)
(-1.86838e-09 -6.93442e-09 -0.00010557)
(4.5445e-09 5.72446e-09 -0.000106965)
(-2.24836e-09 -1.14033e-09 -0.000106986)
(4.54625e-09 1.31829e-08 -0.000105559)
(2.73687e-09 -3.04832e-09 -0.000103828)
(-7.03307e-09 -6.30843e-09 -0.000110332)
(-1.13661e-09 8.75993e-09 -0.000103802)
(4.05859e-09 1.54912e-08 -0.000105586)
(-3.36078e-09 -2.1256e-10 -0.000106995)
(1.34388e-09 8.14318e-09 -0.000107022)
(-4.73373e-09 -4.62643e-09 -0.000105581)
(-2.50156e-09 5.87812e-09 -0.000103812)
(6.58046e-09 1.18332e-08 -0.000110339)
(1.33208e-09 -7.54932e-09 -0.000103789)
(1.62623e-09 -7.45528e-09 -0.000105535)
(-4.95553e-09 6.24596e-09 -0.000106976)
(1.95975e-09 -8.91837e-10 -0.000107)
(-4.85496e-09 1.26549e-08 -0.000105524)
(-3.28729e-09 -7.27458e-10 -0.000103724)
(6.96087e-09 -6.81821e-09 -0.000110248)
(-5.30102e-10 9.06463e-09 -0.000103701)
(-1.58633e-08 -6.0562e-09 -0.000104179)
(1.10172e-08 2.65708e-09 -0.000104219)
(1.31935e-08 3.2159e-09 -0.000104216)
(-1.616e-08 -6.81839e-09 -0.00010418)
(-1.75165e-08 -1.20103e-08 -0.000109264)
(1.50348e-08 2.90943e-09 -0.000110259)
(-2.59017e-08 -8.87816e-09 -0.000110171)
(-7.60184e-10 3.75007e-09 -0.000109286)
(-8.905e-09 -1.98315e-09 -0.000104217)
(9.41225e-09 4.41627e-09 -0.000105304)
(-4.73006e-10 -6.75936e-09 -0.000106794)
(2.85159e-09 4.72556e-09 -0.00010671)
(-2.35983e-09 -4.309e-09 -0.000105388)
(1.07659e-08 -2.05075e-09 -0.000103724)
(7.22054e-09 8.22953e-09 -0.000110097)
(-1.46273e-08 5.97487e-10 -0.000103585)
(-8.90527e-09 6.47129e-09 -0.000105315)
(-2.12826e-09 -3.51497e-09 -0.000106799)
(-4.29229e-09 4.59869e-09 -0.00010672)
(1.4561e-09 -4.8635e-09 -0.000105402)
(-1.33835e-08 -2.21195e-09 -0.000103698)
(-7.92854e-09 7.14584e-09 -0.000110108)
(1.26794e-08 1.74576e-09 -0.000103554)
(6.82603e-09 4.49877e-09 -0.000106708)
(1.90607e-08 6.72921e-09 -0.000105297)
(-1.20406e-08 3.63589e-09 -0.000106718)
(-2.15629e-08 8.84736e-09 -0.000105305)
(-9.32483e-10 -5.96624e-09 -0.000110225)
(-1.10839e-10 6.93067e-09 -0.000110215)
(-1.78796e-08 5.29371e-09 -0.000110173)
(2.67459e-08 -9.75815e-09 -0.000110088)
(1.02603e-08 -4.14746e-10 -0.00010407)
(-5.5057e-09 -3.28937e-09 -0.000103653)
(2.48551e-08 -6.65113e-09 -0.000103587)
(1.66002e-08 5.64271e-09 -0.000110247)
(-2.64313e-08 -1.28235e-08 -0.000110113)
(-7.45826e-10 -2.63778e-09 -0.000103785)
(3.1256e-09 -7.78386e-09 -0.000103585)
(-7.54466e-10 -1.85399e-09 -0.000110407)
(2.96253e-09 7.52865e-09 -0.000110195)
(-1.14669e-08 -1.98682e-10 -0.000103568)
(1.69601e-08 -3.87077e-09 -0.000103551)
(1.11129e-08 3.89195e-09 -0.000110149)
(-1.78132e-08 -8.82053e-09 -0.000110062)
(-1.26199e-09 1.03736e-09 -0.000103777)
(1.23192e-09 -4.59215e-10 -0.000103604)
(2.19323e-09 1.70467e-09 -0.00011042)
(3.47891e-09 6.8617e-09 -0.00011022)
(-1.90529e-08 5.33906e-09 -0.000103568)
(1.09342e-08 1.28915e-10 -0.000103542)
(3.3557e-08 1.64729e-08 -0.000110148)
(3.17557e-09 4.84383e-09 -0.000110085)
(-9.53353e-10 6.39434e-09 -0.000103796)
(5.28497e-10 2.07129e-09 -0.000103613)
(2.45678e-09 6.53808e-12 -0.000110441)
(2.74287e-09 4.3943e-09 -0.000110245)
(-1.7166e-08 3.05438e-09 -0.000103551)
(1.0807e-08 -1.04444e-09 -0.000103537)
(2.41747e-08 1.0977e-08 -0.000110182)
(-1.44784e-08 -5.88846e-09 -0.000110113)
(-3.74329e-09 8.16771e-09 -0.000103797)
(1.79345e-09 -2.03132e-09 -0.000103618)
(-2.38638e-09 -6.42756e-09 -0.000110464)
(-2.17945e-09 -3.07357e-09 -0.00011026)
(-2.17889e-08 5.99787e-09 -0.000103559)
(1.06201e-08 -9.50345e-10 -0.000103541)
(1.94513e-08 9.00856e-09 -0.000110184)
(-1.54833e-08 -6.1902e-09 -0.000110107)
(1.54611e-09 -2.17651e-09 -0.00010381)
(3.9406e-09 -8.13799e-09 -0.000103621)
(-1.58211e-09 -5.81362e-09 -0.000110465)
(-4.13862e-10 1.22031e-09 -0.000110251)
(-1.50777e-08 2.05329e-09 -0.000103555)
(1.81619e-08 -3.03209e-09 -0.000103526)
(1.46534e-08 5.26959e-09 -0.000110184)
(-2.26963e-08 -1.01113e-08 -0.000110103)
(4.75593e-10 -5.07395e-09 -0.000103793)
(3.7062e-09 -6.7518e-09 -0.000103606)
(-9.68361e-10 -2.48485e-09 -0.000110455)
(3.31236e-09 6.35991e-09 -0.000110245)
(-1.52068e-08 3.44896e-09 -0.000103533)
(1.27221e-08 -3.18479e-09 -0.000103523)
(1.68293e-08 7.95503e-09 -0.000110175)
(-1.26253e-08 -5.85933e-09 -0.0001101)
(-1.79715e-09 3.59056e-09 -0.000103782)
(1.98894e-09 -7.02133e-09 -0.000103607)
(2.02562e-09 1.6695e-09 -0.00011044)
(2.57242e-10 3.65267e-09 -0.000110239)
(-1.32845e-08 2.8794e-09 -0.000103562)
(1.90757e-08 -2.33792e-09 -0.000103544)
(1.88501e-08 9.1975e-09 -0.000110191)
(-1.52137e-08 -5.4988e-09 -0.000110113)
(-7.03136e-10 2.76655e-09 -0.000103807)
(1.39371e-09 1.36288e-09 -0.000103615)
(-1.32091e-09 -5.98878e-09 -0.000110465)
(-5.67206e-10 -1.22383e-09 -0.000110255)
(-1.85459e-08 2.02555e-09 -0.000103552)
(1.60148e-08 -4.7187e-09 -0.00010354)
(2.39846e-08 9.49583e-09 -0.000110185)
(-8.55305e-09 -3.20219e-09 -0.000110115)
(-4.72041e-09 7.98612e-09 -0.000103794)
(-1.15471e-09 -4.59806e-10 -0.000103613)
(-2.95802e-09 -4.70389e-09 -0.000110454)
(-1.31698e-09 1.51931e-09 -0.000110255)
(-1.95311e-08 5.10898e-09 -0.000103555)
(9.96939e-09 -6.18766e-10 -0.000103543)
(2.41596e-08 1.14883e-08 -0.000110187)
(-1.39084e-08 -6.01358e-09 -0.000110117)
(1.99805e-10 -3.30687e-10 -0.00010378)
(5.37704e-10 -1.61591e-09 -0.000103594)
(3.27622e-10 -7.46662e-10 -0.000110454)
(-1.92964e-10 1.7726e-09 -0.000110248)
(-2.15795e-08 5.47254e-09 -0.00010355)
(1.41137e-08 -3.46876e-09 -0.000103531)
(1.92386e-08 8.83008e-09 -0.000110185)
(-1.50932e-08 -6.75747e-09 -0.000110106)
(-3.75741e-09 9.68594e-09 -0.000103771)
(-1.30291e-09 1.39933e-09 -0.000103585)
(7.07223e-10 -2.95794e-09 -0.000110441)
(-1.46593e-10 2.34403e-09 -0.000110224)
(-1.24879e-08 1.24656e-09 -0.000103555)
(1.96182e-08 -3.64976e-09 -0.000103545)
(2.11778e-08 9.62141e-09 -0.000110186)
(-1.40575e-08 -5.37105e-09 -0.000110112)
(-1.03654e-09 2.86099e-09 -0.000103758)
(3.19936e-09 -4.03906e-09 -0.00010356)
(1.13973e-09 -4.24333e-10 -0.000110422)
(3.63303e-09 6.15242e-09 -0.000110213)
(-1.95698e-08 3.95216e-09 -0.000103569)
(1.17441e-08 -2.96632e-10 -0.000103562)
(2.38843e-08 1.0487e-08 -0.000110192)
(-1.24963e-08 -4.37575e-09 -0.00011012)
(-4.4954e-10 -2.51246e-09 -0.000103728)
(5.33497e-09 -1.11052e-08 -0.000103553)
(5.44725e-11 4.98492e-11 -0.000110418)
(-9.53053e-10 -5.51655e-10 -0.000110223)
(-1.55905e-08 2.07748e-09 -0.000103577)
(1.18979e-08 -9.93183e-10 -0.000103577)
(2.32726e-08 1.05062e-08 -0.000110206)
(-9.29818e-09 -2.84942e-09 -0.000110149)
(-1.23558e-09 -7.33901e-11 -0.000103722)
(3.10209e-09 -5.54303e-09 -0.000103565)
(-4.07018e-09 -7.98338e-09 -0.000110429)
(-2.28169e-09 -2.72841e-09 -0.00011025)
(-1.84859e-08 2.38184e-09 -0.000103563)
(1.47353e-08 -2.81168e-09 -0.000103577)
(2.27939e-08 8.91403e-09 -0.000110187)
(-1.38009e-08 -4.97047e-09 -0.000110143)
(9.55897e-10 -5.64706e-09 -0.000103725)
(3.79688e-09 -6.49115e-09 -0.000103594)
(4.08761e-10 1.19668e-09 -0.000110429)
(8.26751e-10 1.47983e-09 -0.00011027)
(-9.21751e-10 -2.50618e-09 -0.000110392)
(-2.19262e-09 -7.96499e-09 -0.000110298)
(2.92802e-08 -1.48177e-08 -0.000110199)
(1.85898e-09 -7.11599e-09 -0.000110113)
(2.2483e-08 -5.43598e-09 -0.000103679)
(2.28825e-09 -4.91488e-09 -0.000103675)
(-1.81326e-08 -3.36543e-09 -0.000103704)
(-4.94051e-09 -5.67121e-09 -0.000103699)
(-3.09008e-08 -1.5363e-08 -0.000110221)
(3.31732e-09 3.87986e-10 -0.000110257)
(-6.28261e-09 -1.42866e-08 -0.000110267)
(1.23253e-09 1.67487e-09 -0.000110449)
(3.31466e-09 -7.75636e-09 -0.000103632)
(-1.2646e-09 -3.55717e-09 -0.000103757)
(-4.42296e-09 -1.07312e-08 -0.000103761)
(2.12495e-09 -1.70771e-09 -0.000103916)
(-3.31617e-10 1.14836e-10 -0.000103693)
(-8.011e-10 1.75861e-09 -0.000110224)
(2.14817e-08 9.56493e-09 -0.000110172)
(1.86012e-08 3.89184e-09 -0.000103649)
(-2.02209e-08 4.2036e-09 -0.00010366)
(-1.28725e-09 5.23377e-09 -0.000110177)
(-2.22149e-08 1.02175e-08 -0.000110152)
(-8.53027e-09 4.70737e-10 -0.000110222)
(3.19133e-08 -1.65166e-08 -0.000110098)
(1.2111e-09 -2.02242e-09 -0.000110293)
(3.50818e-09 -8.79905e-09 -0.000110072)
(1.66668e-08 -8.43026e-09 -0.000110069)
(-4.18128e-09 -1.05143e-09 -0.000110158)
(5.32592e-09 -1.22294e-08 -0.000110072)
(2.78577e-09 -4.4331e-09 -0.000110276)
(1.35155e-08 -7.96633e-11 -0.000103677)
(-9.98003e-09 -3.21389e-10 -0.000103608)
(2.17951e-08 -6.66873e-09 -0.000103553)
(-4.77357e-09 -2.60734e-09 -0.000103597)
(-2.16538e-08 -5.23489e-09 -0.000103575)
(1.48256e-08 1.65615e-09 -0.000103623)
(-2.37759e-09 -3.27599e-09 -0.000110449)
(-2.94527e-09 -9.04435e-09 -0.000110239)
(-2.60356e-08 -1.33306e-08 -0.000110082)
(1.18478e-09 -1.7087e-09 -0.000110179)
(-4.28854e-09 -1.08741e-08 -0.000110227)
(-5.56307e-09 -1.00216e-08 -0.000110439)
(-4.2374e-09 -7.07086e-09 -0.000103913)
(8.19036e-10 2.72694e-09 -0.000103716)
(2.65813e-09 -6.02807e-09 -0.000103588)
(5.48162e-11 -2.021e-09 -0.00010377)
(1.70572e-09 3.86489e-09 -0.000103726)
(-1.45448e-09 -2.07965e-09 -0.000103907)
(-1.93275e-09 -7.69276e-09 -0.000103916)
(-2.05714e-09 -6.01663e-09 -0.000103723)
(3.21955e-09 -4.6904e-09 -0.000103849)
(1.55318e-10 3.62266e-10 -0.000103657)
(-2.38307e-09 -6.8928e-09 -0.000103718)
(-2.44339e-10 -2.46884e-09 -0.000103906)
(-1.81169e-09 6.38118e-09 -0.000103665)
(2.67444e-09 -4.29306e-09 -0.000103847)
(-1.43733e-08 -6.05968e-09 -0.000110229)
(1.58876e-08 6.74261e-09 -0.000110144)
(3.02225e-09 7.63122e-09 -0.000110207)
(2.10355e-09 2.45928e-09 -0.000110406)
(1.44761e-08 6.3057e-09 -0.000110133)
(-1.87747e-08 -8.84671e-09 -0.000110215)
(-1.71563e-08 -3.45257e-09 -0.000103647)
(1.05598e-08 7.26874e-10 -0.000103614)
(1.27602e-08 -1.69676e-09 -0.000103661)
(-1.79302e-08 3.86304e-09 -0.000103627)
(1.3756e-08 2.22926e-09 -0.000103605)
(-2.12737e-08 -5.30274e-09 -0.000103629)
(-1.42348e-08 1.85806e-09 -0.000103623)
(1.54768e-08 -2.47e-09 -0.000103643)
(-2.66285e-10 -2.78331e-10 -0.00011036)
(-1.79379e-09 5.55175e-09 -0.00011015)
(1.19696e-08 -5.01432e-09 -0.00011021)
(-2.06429e-08 9.64395e-09 -0.000110126)
(-4.07545e-09 1.0243e-08 -0.000110159)
(-6.75266e-10 3.822e-10 -0.000110358)
(-1.73089e-08 7.65897e-09 -0.000110123)
(1.56406e-08 -6.48177e-09 -0.000110196)
(-1.84649e-08 7.57224e-09 -0.000110143)
(1.52486e-08 -6.5326e-09 -0.000110069)
(3.63049e-09 -4.73876e-09 -0.000110284)
(2.09945e-09 -5.11171e-09 -0.00011009)
(1.56251e-08 -5.54801e-09 -0.000110072)
(-1.85728e-08 8.73887e-09 -0.000110144)
(8.85531e-10 -9.65097e-10 -0.0001101)
(3.10164e-10 1.45906e-09 -0.000110299)
(1.00731e-08 -6.35462e-11 -0.000103582)
(-2.27605e-08 -6.02655e-09 -0.000103553)
(1.24459e-08 -9.65654e-10 -0.000103552)
(-1.61307e-08 3.06317e-09 -0.00010357)
(-1.73531e-08 -3.12425e-09 -0.00010356)
(9.7344e-09 5.96315e-10 -0.000103571)
(-1.85738e-09 -3.13072e-09 -0.000110433)
(2.12186e-10 -2.00063e-09 -0.000110226)
(-1.0949e-08 -4.35609e-09 -0.000110073)
(2.11248e-08 9.69952e-09 -0.000110141)
(2.92377e-09 5.39716e-09 -0.000110232)
(4.97554e-09 1.03681e-08 -0.00011043)
(-1.07682e-09 -8.38592e-10 -0.000103916)
(2.84572e-09 4.30954e-09 -0.000103739)
(1.32803e-09 5.66449e-11 -0.000103607)
(-1.78675e-09 4.95648e-09 -0.000103791)
(3.23791e-09 3.64622e-09 -0.000103746)
(7.4294e-10 5.51517e-10 -0.000103929)
(6.56889e-10 -1.91651e-09 -0.000103902)
(-8.81399e-10 -2.23669e-09 -0.000103718)
(3.87625e-10 2.48246e-09 -0.000103854)
(-4.98286e-09 1.15897e-08 -0.000103676)
(2.11671e-09 7.17742e-09 -0.000103724)
(2.43651e-09 5.67692e-09 -0.000103905)
(-4.4515e-09 5.4288e-09 -0.000103697)
(-2.36849e-09 5.97161e-09 -0.000103866)
(-2.04642e-08 -9.42782e-09 -0.000110204)
(1.91201e-08 7.8283e-09 -0.000110136)
(4.15998e-09 7.21956e-09 -0.000110231)
(3.13827e-09 2.61282e-09 -0.000110432)
(2.19492e-08 8.54483e-09 -0.000110142)
(-1.52766e-08 -7.82119e-09 -0.000110213)
(-1.84946e-08 -3.65729e-09 -0.000103619)
(1.7665e-08 2.70119e-09 -0.000103611)
(1.98884e-08 -4.51102e-09 -0.000103639)
(-8.16225e-09 -6.35665e-10 -0.00010362)
(2.15456e-08 3.42698e-09 -0.000103616)
(-1.44286e-08 -3.2877e-09 -0.00010363)
(-8.2231e-09 -1.73177e-09 -0.000103631)
(2.6012e-08 -7.51304e-09 -0.00010364)
(-2.67217e-09 4.07445e-09 -0.000110369)
(-4.8481e-09 1.05214e-08 -0.000110169)
(1.82249e-08 -8.38762e-09 -0.000110198)
(-7.68689e-09 2.23983e-09 -0.000110124)
(-2.43909e-09 2.84089e-09 -0.000110194)
(-3.30107e-09 3.07914e-09 -0.000110381)
(-5.71833e-09 -3.01103e-11 -0.000110135)
(3.01013e-08 -1.50071e-08 -0.000110198)
(-1.8903e-08 9.59063e-09 -0.000110141)
(1.3189e-08 -4.46045e-09 -0.000110062)
(-1.193e-09 6.54028e-09 -0.000110308)
(-8.3346e-10 1.27859e-09 -0.000110105)
(1.47304e-08 -6.78766e-09 -0.000110051)
(-2.17302e-08 1.09568e-08 -0.000110133)
(-2.06133e-09 1.53104e-09 -0.000110103)
(-1.88995e-09 6.41861e-09 -0.000110312)
(1.91247e-08 4.18521e-09 -0.000103577)
(-2.04321e-09 3.65629e-09 -0.000103572)
(1.58226e-08 -2.82619e-09 -0.000103534)
(-2.03338e-08 4.97332e-09 -0.000103555)
(-1.00953e-08 -8.86407e-10 -0.00010359)
(2.76817e-08 8.0682e-09 -0.000103595)
(8.75006e-09 1.94924e-08 -0.000110441)
(6.31107e-09 1.08793e-08 -0.00011025)
(-7.08246e-09 -2.81357e-09 -0.000110106)
(3.14996e-08 1.57819e-08 -0.000110167)
(1.68217e-09 1.09232e-09 -0.000110243)
(2.36405e-09 8.22293e-09 -0.000110455)
(2.96288e-10 -2.27646e-09 -0.000103937)
(3.07673e-09 2.93692e-09 -0.000103761)
(-9.96103e-10 3.63831e-09 -0.000103611)
(-2.56009e-09 7.5802e-09 -0.000103797)
(4.80384e-11 -1.54929e-09 -0.000103765)
(-6.29011e-10 -3.04571e-09 -0.000103949)
(4.64895e-09 1.34389e-08 -0.000103918)
(1.98546e-09 9.66981e-09 -0.000103744)
(-1.28136e-09 -9.8576e-10 -0.000103889)
(-1.83298e-09 1.18358e-09 -0.000103703)
(-1.15896e-09 -1.96628e-09 -0.000103736)
(3.60157e-09 9.33537e-09 -0.000103926)
(-5.04353e-10 1.96845e-09 -0.000103697)
(2.62883e-09 -5.69148e-09 -0.000103884)
(-1.1736e-08 -6.59886e-09 -0.000110216)
(2.16445e-08 8.60476e-09 -0.000110151)
(-5.16731e-10 8.99678e-10 -0.000110253)
(1.16828e-09 -1.59211e-09 -0.000110457)
(1.67624e-08 7.71456e-09 -0.000110153)
(-1.43041e-08 -7.33895e-09 -0.000110226)
(-1.11213e-08 -2.83096e-09 -0.000103634)
(2.1547e-08 3.57104e-09 -0.000103626)
(2.40562e-08 -7.77371e-09 -0.000103652)
(-1.63245e-08 1.85964e-09 -0.000103636)