/*--------------------------------*- C++ -*----------------------------------*\
| =========                 |                                                 |
| \\      /  F ield         | OpenFOAM: The Open Source CFD Toolbox           |
|  \\    /   O peration     | Version:  2206                                  |
|   \\  /    A nd           | Website:  www.openfoam.com                      |
|    \\/     M anipulation  |                                                 |
\*---------------------------------------------------------------------------*/
FoamFile
{
    version     2.0;
    format      ascii;
    arch        "LSB;label=32;scalar=64";
    class       volScalarField;
    location    "40";
    object      k;
}
// * * * * * * * * * * * * * * * * * * * * * * * * * * * * * * * * * * * * * //

dimensions      [0 2 -2 0 0 0 0];

internalField   nonuniform List<scalar> 
66940
(
2.21531e-05
2.62811e-05
2.63255e-05
2.55672e-05
2.2146e-05
2.63305e-05
2.64291e-05
2.55515e-05
2.22423e-05
2.63374e-05
2.64538e-05
2.55615e-05
2.21612e-05
2.63155e-05
2.64356e-05
2.55499e-05
2.20921e-05
2.6314e-05
2.64058e-05
2.55279e-05
2.21341e-05
2.63058e-05
2.63943e-05
2.54565e-05
2.20614e-05
2.63085e-05
2.63628e-05
2.54973e-05
2.2048e-05
2.62555e-05
2.63275e-05
2.55212e-05
2.19902e-05
2.62384e-05
2.63588e-05
2.54665e-05
2.19924e-05
2.62202e-05
2.63059e-05
2.54347e-05
2.19643e-05
2.61296e-05
2.62012e-05
2.54262e-05
2.38369e-05
2.59871e-05
2.61111e-05
2.46153e-05
2.54984e-05
2.62286e-05
2.63201e-05
2.56346e-05
2.61374e-05
2.63891e-05
2.62717e-05
2.62157e-05
2.57483e-05
2.63249e-05
2.61751e-05
2.55657e-05
2.54924e-05
2.5561e-05
2.62805e-05
2.63249e-05
2.63587e-05
2.63305e-05
2.56283e-05
2.56672e-05
2.617e-05
2.64131e-05
2.6208e-05
2.64295e-05
2.62193e-05
2.63179e-05
2.62232e-05
2.57419e-05
2.57918e-05
2.61965e-05
2.64027e-05
2.62164e-05
2.55553e-05
2.55658e-05
2.56124e-05
2.63616e-05
2.63475e-05
2.63622e-05
2.6343e-05
2.56653e-05
2.56929e-05
2.62079e-05
2.64483e-05
2.62248e-05
2.64299e-05
2.62358e-05
2.63541e-05
2.62445e-05
2.57852e-05
2.58265e-05
2.62405e-05
2.64551e-05
2.62871e-05
2.55557e-05
2.56245e-05
2.55833e-05
2.63703e-05
2.63617e-05
2.63667e-05
2.63693e-05
2.56893e-05
2.56685e-05
2.62226e-05
2.64279e-05
2.62217e-05
2.64161e-05
2.62554e-05
2.63175e-05
2.61957e-05
2.5831e-05
2.58004e-05
2.62938e-05
2.64395e-05
2.62882e-05
2.55461e-05
2.55772e-05
2.55658e-05
2.63647e-05
2.63689e-05
2.63516e-05
2.63684e-05
2.56635e-05
2.57003e-05
2.62258e-05
2.64065e-05
2.62134e-05
2.63818e-05
2.6186e-05
2.63111e-05
2.61926e-05
2.57998e-05
2.57665e-05
2.62878e-05
2.64199e-05
2.62864e-05
2.55175e-05
2.55579e-05
2.55152e-05
2.63366e-05
2.63863e-05
2.63142e-05
2.63792e-05
2.57026e-05
2.56593e-05
2.61936e-05
2.63776e-05
2.61619e-05
2.63556e-05
2.62078e-05
2.63004e-05
2.61845e-05
2.57758e-05
2.57122e-05
2.62527e-05
2.6419e-05
2.62309e-05
2.54774e-05
2.55209e-05
2.55028e-05
2.63122e-05
2.63699e-05
2.62851e-05
2.63361e-05
2.5652e-05
2.56194e-05
2.61603e-05
2.63651e-05
2.61594e-05
2.63539e-05
2.61749e-05
2.63071e-05
2.61716e-05
2.57085e-05
2.56969e-05
2.62337e-05
2.63692e-05
2.6227e-05
2.54834e-05
2.55001e-05
2.54809e-05
2.63046e-05
2.63381e-05
2.62928e-05
2.63266e-05
2.56207e-05
2.55339e-05
2.61645e-05
2.63482e-05
2.61542e-05
2.63473e-05
2.61687e-05
2.62829e-05
2.61721e-05
2.56949e-05
2.5636e-05
2.62098e-05
2.63309e-05
2.6184e-05
2.55105e-05
2.54738e-05
2.54475e-05
2.63005e-05
2.6323e-05
2.62593e-05
2.63078e-05
2.55314e-05
2.55684e-05
2.61352e-05
2.63615e-05
2.61e-05
2.63308e-05
2.61602e-05
2.62327e-05
2.61526e-05
2.56333e-05
2.56319e-05
2.62185e-05
2.63437e-05
2.62213e-05
2.54654e-05
2.54668e-05
2.54634e-05
2.62612e-05
2.63078e-05
2.62517e-05
2.62629e-05
2.55709e-05
2.55566e-05
2.61027e-05
2.63439e-05
2.60773e-05
2.63247e-05
2.6156e-05
2.62415e-05
2.61292e-05
2.564e-05
2.56298e-05
2.62212e-05
2.63283e-05
2.62309e-05
2.54244e-05
2.54726e-05
2.54359e-05
2.62593e-05
2.62733e-05
2.62019e-05
2.62412e-05
2.5564e-05
2.55326e-05
2.60769e-05
2.63302e-05
2.60595e-05
2.62927e-05
2.61402e-05
2.62048e-05
2.61205e-05
2.56383e-05
2.56005e-05
2.6234e-05
2.62521e-05
2.61643e-05
2.54243e-05
2.54401e-05
2.51595e-05
2.61287e-05
2.61675e-05
2.61013e-05
2.61477e-05
2.55374e-05
2.52058e-05
2.59837e-05
2.62297e-05
2.59743e-05
2.62089e-05
2.60699e-05
2.60011e-05
2.607e-05
2.56046e-05
2.53062e-05
2.60713e-05
2.61198e-05
2.60185e-05
2.51255e-05
2.46392e-05
2.60617e-05
2.61404e-05
2.46523e-05
2.5956e-05
2.61908e-05
2.39398e-05
2.39723e-05
2.38831e-05
2.6051e-05
2.48046e-05
2.60071e-05
5.59978e-06
2.22194e-05
2.22305e-05
2.23273e-05
2.21373e-05
2.21521e-05
2.62425e-05
1.81494e-05
2.5744e-05
2.55472e-05
1.13956e-05
1.15026e-05
1.75022e-05
8.84079e-06
1.76123e-05
8.86191e-06
5.63681e-06
5.6314e-06
1.72604e-05
8.50694e-06
1.71997e-05
8.54042e-06
2.22405e-05
2.22545e-05
2.21364e-05
2.22143e-05
2.21989e-05
2.22612e-05
2.2216e-05
2.22726e-05
1.80796e-05
2.58028e-05
2.62996e-05
2.22679e-05
1.81178e-05
2.57799e-05
5.68694e-06
5.66282e-06
2.23486e-05
2.58802e-05
1.80689e-05
2.63493e-05
2.22283e-05
2.58886e-05
1.79662e-05
1.13366e-05
1.16056e-05
2.55721e-05
1.13741e-05
1.16214e-05
1.8028e-05
8.90537e-06
1.77044e-05
8.95522e-06
5.66895e-06
5.68589e-06
1.71799e-05
8.50475e-06
1.72313e-05
8.52914e-06
2.21996e-05
2.2333e-05
2.22061e-05
2.21764e-05
2.22286e-05
2.22752e-05
2.2301e-05
2.23827e-05
1.81737e-05
2.57907e-05
2.63416e-05
2.23995e-05
1.8197e-05
2.58272e-05
5.66437e-06
5.63887e-06
2.26519e-05
2.58705e-05
1.82144e-05
2.64389e-05
2.25203e-05
2.58701e-05
1.84795e-05
1.13171e-05
1.17313e-05
2.55628e-05
1.12586e-05
1.17602e-05
1.80519e-05
8.9533e-06
1.81461e-05
8.91659e-06
5.67553e-06
5.6677e-06
1.70199e-05
8.53082e-06
1.71221e-05
8.53219e-06
2.21501e-05
2.22526e-05
2.22318e-05
2.21643e-05
2.21913e-05
2.2273e-05
2.22257e-05
2.24267e-05
1.82052e-05
2.58847e-05
2.63349e-05
2.23583e-05
1.80246e-05
2.586e-05
5.6297e-06
5.63503e-06
2.27062e-05
2.59277e-05
1.85312e-05
2.64575e-05
2.27338e-05
2.59013e-05
1.86288e-05
1.12163e-05
1.17481e-05
2.55576e-05
1.12019e-05
1.16815e-05
1.78592e-05
8.80828e-06
1.79269e-05
8.77191e-06
5.6327e-06
5.622e-06
1.6986e-05
8.51006e-06
1.69793e-05
8.5252e-06
2.21465e-05
2.2258e-05
2.21536e-05
2.21031e-05
2.21268e-05
2.22682e-05
2.21294e-05
2.22971e-05
1.79946e-05
2.58861e-05
2.63101e-05
2.22911e-05
1.80011e-05
2.58881e-05
5.62926e-06
5.64049e-06
2.2562e-05
2.59611e-05
1.85269e-05
2.64428e-05
2.254e-05
2.59425e-05
1.84782e-05
1.11765e-05
1.14666e-05
2.55198e-05
1.11725e-05
1.14749e-05
1.76931e-05
8.71613e-06
1.7825e-05
8.71373e-06
5.62294e-06
5.59583e-06
1.6811e-05
8.47767e-06
1.6931e-05
8.46341e-06
2.22082e-05
2.22302e-05
2.21401e-05
2.20854e-05
2.22157e-05
2.22077e-05
2.21851e-05
2.22149e-05
1.81077e-05
2.59126e-05
2.63125e-05
2.22521e-05
1.79844e-05
2.59088e-05
5.6409e-06
5.65373e-06
2.24598e-05
2.59197e-05
1.82591e-05
2.64062e-05
2.24812e-05
2.59152e-05
1.82309e-05
1.11479e-05
1.15552e-05
2.5514e-05
1.11358e-05
1.1449e-05
1.76536e-05
8.60731e-06
1.77001e-05
8.63105e-06
5.57379e-06
5.57892e-06
1.679e-05
8.42396e-06
1.67596e-05
8.40771e-06
2.21782e-05
2.22082e-05
2.21095e-05
2.20721e-05
2.2174e-05
2.21696e-05
2.20934e-05
2.20764e-05
1.80095e-05
2.58712e-05
2.63175e-05
2.21586e-05
1.78974e-05
2.59111e-05
5.64011e-06
5.63474e-06
2.2424e-05
2.59471e-05
1.8236e-05
2.6392e-05
2.24213e-05
2.5915e-05
1.81716e-05
1.12193e-05
1.14783e-05
2.54723e-05
1.11258e-05
1.14776e-05
1.75976e-05
8.64719e-06
1.75136e-05
8.67382e-06
5.58686e-06
5.57557e-06
1.67009e-05
8.34909e-06
1.67186e-05
8.33108e-06
2.22272e-05
2.21586e-05
2.20926e-05
2.20521e-05
2.21434e-05
2.21913e-05
2.21255e-05
2.21541e-05
1.79102e-05
2.58758e-05
2.63056e-05
2.21409e-05
1.788e-05
2.58371e-05
5.60221e-06
5.60864e-06
2.22595e-05
2.59274e-05
1.80929e-05
2.6363e-05
2.23068e-05
2.59349e-05
1.80527e-05
1.128e-05
1.13602e-05
2.54838e-05
1.12406e-05
1.13651e-05
1.76509e-05
8.63327e-06
1.75544e-05
8.62043e-06
5.57949e-06
5.5722e-06
1.67365e-05
8.36088e-06
1.66534e-05
8.32123e-06
2.21096e-05
2.21669e-05
2.21042e-05
2.2024e-05
2.21142e-05
2.21601e-05
2.20962e-05
2.21333e-05
1.79618e-05
2.58195e-05
2.62522e-05
2.2084e-05
1.79374e-05
2.58289e-05
5.58194e-06
5.58157e-06
2.22637e-05
2.58688e-05
1.80732e-05
2.63379e-05
2.22627e-05
2.58715e-05
1.78999e-05
1.12128e-05
1.12842e-05
2.54856e-05
1.11721e-05
1.13166e-05
1.76935e-05
8.65858e-06
1.76156e-05
8.67604e-06
5.59511e-06
5.618e-06
1.67983e-05
8.33597e-06
1.67489e-05
8.34407e-06
2.21313e-05
2.21284e-05
2.20722e-05
2.19699e-05
2.20547e-05
2.21248e-05
2.20982e-05
2.20451e-05
1.78589e-05
2.58132e-05
2.62332e-05
2.19854e-05
1.78972e-05
2.58049e-05
5.58774e-06
5.5895e-06
2.22441e-05
2.58485e-05
1.80138e-05
2.63493e-05
2.21791e-05
2.5872e-05
1.8014e-05
1.11813e-05
1.12871e-05
2.54322e-05
1.11737e-05
1.13659e-05
1.77104e-05
8.67378e-06
1.77424e-05
8.64069e-06
5.64104e-06
5.64937e-06
1.68333e-05
8.37707e-06
1.676e-05
8.3264e-06
2.20225e-05
2.20963e-05
2.20704e-05
2.18914e-05
2.19765e-05
2.21172e-05
2.19991e-05
2.20781e-05
1.78784e-05
2.58142e-05
2.62183e-05
2.19868e-05
1.79299e-05
2.58135e-05
5.61363e-06
5.62619e-06
2.22892e-05
2.58759e-05
1.80027e-05
2.62942e-05
2.21924e-05
2.58396e-05
1.80292e-05
1.12158e-05
1.1387e-05
2.54418e-05
1.12004e-05
1.13845e-05
1.7039e-05
8.67067e-06
1.73509e-05
8.45958e-06
5.66596e-06
5.68438e-06
1.7066e-05
8.42823e-06
1.68517e-05
8.30114e-06
2.20712e-05
2.22207e-05
2.20711e-05
2.35524e-05
2.3615e-05
2.37133e-05
2.35984e-05
2.16944e-05
1.80599e-05
2.57369e-05
2.61631e-05
2.19801e-05
1.76955e-05
2.56383e-05
5.67754e-06
5.75619e-06
2.15674e-05
2.59207e-05
1.78727e-05
2.61921e-05
2.19378e-05
2.58432e-05
1.75316e-05
1.12127e-05
1.14272e-05
2.53826e-05
1.11102e-05
1.11748e-05
1.31014e-05
2.2466e-06
1.34822e-05
4.83115e-06
3.68874e-06
4.2008e-06
1.31431e-05
2.22836e-06
1.35393e-05
4.80237e-06
2.01666e-05
2.18681e-05
2.14248e-05
2.49119e-05
1.9324e-05
2.29141e-05
2.25567e-05
1.94324e-05
1.12217e-05
2.60242e-05
2.63886e-05
1.94431e-05
9.11918e-06
2.62828e-05
3.69779e-06
4.2467e-06
1.94042e-05
2.61885e-05
1.11212e-05
2.6521e-05
1.93277e-05
2.64929e-05
9.02688e-06
7.68994e-06
7.72382e-06
2.53125e-05
6.41402e-06
6.47792e-06
5.65325e-06
5.61911e-06
5.53126e-06
5.53244e-06
2.54671e-05
1.1605e-05
1.13981e-05
1.158e-05
1.14444e-05
8.68556e-06
2.63025e-05
1.7787e-05
1.74618e-05
8.8386e-06
8.75213e-06
1.76137e-05
1.73605e-05
8.71472e-06
8.69485e-06
1.75899e-05
2.21406e-05
2.62011e-05
1.80674e-05
2.57904e-05
1.77538e-05
2.57821e-05
2.24451e-05
2.21672e-05
2.62954e-05
1.78985e-05
2.58155e-05
1.78542e-05
2.58105e-05
2.24095e-05
2.56324e-05
1.14761e-05
1.17516e-05
5.66441e-06
5.64565e-06
5.62277e-06
2.56176e-05
1.16103e-05
1.17996e-05
1.15976e-05
1.17534e-05
5.68969e-06
5.67872e-06
1.7074e-05
8.51791e-06
8.47483e-06
1.72298e-05
2.2171e-05
2.61398e-05
1.78408e-05
2.57395e-05
1.7694e-05
2.57279e-05
2.21729e-05
1.7295e-05
8.7799e-06
8.7493e-06
1.73535e-05
2.22562e-05
2.6384e-05
2.57605e-05
1.82024e-05
2.57511e-05
1.82331e-05
2.22077e-05
1.7191e-05
8.68923e-06
2.21588e-05
2.61749e-05
2.56809e-05
1.77752e-05
1.72763e-05
8.43778e-06
2.22324e-05
2.62649e-05
1.81538e-05
2.57483e-05
1.81446e-05
2.57756e-05
2.22426e-05
1.72587e-05
8.71939e-06
8.72683e-06
1.7287e-05
2.21973e-05
2.62027e-05
2.57469e-05
1.78026e-05
2.57439e-05
1.77225e-05
2.22081e-05
1.72073e-05
8.47508e-06
8.45786e-06
1.73092e-05
5.68613e-06
5.67898e-06
2.57568e-05
1.17092e-05
1.17826e-05
1.17658e-05
1.17043e-05
5.70329e-06
5.67221e-06
2.1903e-05
2.63224e-05
2.58886e-05
1.80735e-05
2.58803e-05
1.80417e-05
2.21708e-05
2.19472e-05
2.61609e-05
2.58209e-05
1.78598e-05
2.57577e-05
1.77738e-05
2.21997e-05
1.688e-05
8.76787e-06
8.71582e-06
1.72136e-05
1.68766e-05
8.64926e-06
8.56573e-06
1.72085e-05
5.4855e-06
5.57904e-06
2.55444e-05
1.14132e-05
1.16676e-05
1.13884e-05
1.15687e-05
5.49734e-06
5.492e-06
5.62736e-06
5.58466e-06
5.66127e-06
5.69057e-06
5.54149e-06
5.54516e-06
1.16483e-05
1.15127e-05
2.55347e-05
1.17005e-05
1.14968e-05
5.70857e-06
5.6973e-06
5.56149e-06
5.56121e-06
2.55312e-05
1.17053e-05
1.15242e-05
1.17249e-05
1.14729e-05
1.73958e-05
8.72965e-06
1.75521e-05
8.7393e-06
2.2661e-05
1.81093e-05
2.58006e-05
2.62978e-05
2.25197e-05
1.80173e-05
2.58204e-05
2.2595e-05
1.79771e-05
2.58327e-05
2.63313e-05
2.24699e-05
1.80191e-05
2.58351e-05
1.74899e-05
8.89961e-06
8.86741e-06
1.76445e-05
1.74026e-05
8.78392e-06
8.75783e-06
1.75217e-05
2.27289e-05
2.63312e-05
1.808e-05
2.58314e-05
1.81565e-05
2.58295e-05
2.28338e-05
2.26422e-05
2.63444e-05
1.81205e-05
2.58427e-05
1.80321e-05
2.58483e-05
2.27677e-05
1.15949e-05
1.18415e-05
2.56362e-05
1.15878e-05
1.18618e-05
5.70103e-06
5.71444e-06
5.65985e-06
5.64018e-06
2.56371e-05
1.16619e-05
1.18142e-05
1.16533e-05
1.18971e-05
5.70898e-06
5.72334e-06
2.21296e-05
1.79173e-05
2.57601e-05
2.61833e-05
2.22117e-05
1.79317e-05
2.57636e-05
1.73527e-05
8.80105e-06
1.73354e-05
8.7553e-06
2.22866e-05
2.57825e-05
1.82341e-05
2.64166e-05
2.23097e-05
2.58372e-05
1.82983e-05
1.71862e-05
8.52363e-06
8.56081e-06
1.72852e-05
2.2221e-05
2.6195e-05
1.79647e-05
2.57839e-05
1.79684e-05
2.57821e-05
2.22012e-05
1.73433e-05
8.77111e-06
8.7758e-06
1.73576e-05
2.22327e-05
2.64233e-05
2.58124e-05
1.81976e-05
2.58188e-05
1.82306e-05
2.2233e-05
1.73711e-05
8.74793e-06
1.72887e-05
8.75796e-06
2.22526e-05
2.57666e-05
1.78393e-05
2.62272e-05
2.22553e-05
2.57595e-05
1.7853e-05
1.7365e-05
8.50044e-06
1.72937e-05
8.49907e-06
2.22931e-05
2.63228e-05
1.82639e-05
2.58272e-05
1.82288e-05
2.58061e-05
2.23941e-05
1.7367e-05
8.78096e-06
8.79027e-06
1.74919e-05
2.22791e-05
2.62355e-05
2.57571e-05
1.78258e-05
2.57934e-05
1.78235e-05
2.22925e-05
1.74347e-05
8.51748e-06
8.51464e-06
1.74822e-05
1.17888e-05
1.17542e-05
2.57624e-05
1.17077e-05
1.1806e-05
5.70692e-06
5.72353e-06
5.66982e-06
5.66322e-06
2.57678e-05
1.1774e-05
1.18971e-05
1.17694e-05
1.18789e-05
5.77277e-06
5.73156e-06
2.24037e-05
2.5821e-05
1.79933e-05
2.61964e-05
2.22736e-05
2.58339e-05
1.78446e-05
1.71674e-05
8.78561e-06
1.72112e-05
8.78988e-06
1.7387e-05
8.66882e-06
1.72462e-05
8.68938e-06
2.24117e-05
2.63809e-05
2.587e-05
1.81304e-05
2.58495e-05
1.79982e-05
2.25107e-05
2.24554e-05
2.62122e-05
2.58576e-05
1.80104e-05
2.58548e-05
1.78289e-05
2.25368e-05
1.7101e-05
8.84395e-06
8.79217e-06
1.72195e-05
1.73916e-05
8.77491e-06
8.70675e-06
1.72959e-05
5.50235e-06
5.47804e-06
5.63234e-06
5.62685e-06
2.55731e-05
1.13267e-05
1.16722e-05
1.14101e-05
1.16425e-05
5.48138e-06
5.48188e-06
5.65313e-06
5.63021e-06
5.727e-06
5.73542e-06
5.57372e-06
5.5685e-06
1.17841e-05
1.1567e-05
2.55792e-05
1.17674e-05
1.15825e-05
5.7405e-06
5.74407e-06
5.57977e-06
5.57899e-06
2.55815e-05
1.18581e-05
1.15979e-05
1.18488e-05
1.16093e-05
1.79413e-05
8.81681e-06
1.76474e-05
8.83428e-06
2.29404e-05
1.81757e-05
2.58528e-05
2.63618e-05
2.28522e-05
1.84102e-05
2.58846e-05
2.27353e-05
1.81737e-05
2.58509e-05
2.63545e-05
2.27918e-05
1.82746e-05
2.58874e-05
1.81122e-05
8.99005e-06
8.98542e-06
1.81496e-05
1.79831e-05
8.85318e-06
8.85429e-06
1.80734e-05
2.29536e-05
2.63651e-05
1.84331e-05
2.58903e-05
1.84116e-05
2.59206e-05
2.29116e-05
2.28081e-05
2.63489e-05
1.83081e-05
2.58515e-05
1.82982e-05
2.58538e-05
2.27375e-05
1.17614e-05
1.18797e-05
2.56907e-05
1.16671e-05
1.18173e-05
5.71627e-06
5.68193e-06
5.67401e-06
5.6936e-06
2.5694e-05
1.17197e-05
1.17545e-05
1.17603e-05
1.18534e-05
5.67767e-06
5.69152e-06
2.22032e-05
1.78523e-05
2.58067e-05
2.62247e-05
2.22044e-05
1.77934e-05
2.58128e-05
1.7356e-05
8.79376e-06
1.73361e-05
8.75273e-06
2.22713e-05
2.58604e-05
1.82457e-05
2.64356e-05
2.22007e-05
2.58378e-05
1.80788e-05
1.70619e-05
8.54903e-06
8.54978e-06
1.71628e-05
2.21521e-05
2.62182e-05
1.79046e-05
2.58365e-05
1.79005e-05
2.58274e-05
2.2175e-05
1.73707e-05
8.72156e-06
8.76887e-06
1.71894e-05
2.22888e-05
2.64367e-05
2.58814e-05
1.81097e-05
2.5834e-05
1.80381e-05
2.21573e-05
1.75652e-05
8.79857e-06
1.75145e-05
8.71494e-06
2.23082e-05
2.57709e-05
1.78892e-05
2.6237e-05
2.23164e-05
2.57738e-05
1.78561e-05
1.75207e-05
8.53632e-06
1.75241e-05
8.48376e-06
2.2373e-05
2.63386e-05
1.82078e-05
2.58515e-05
1.8171e-05
2.5817e-05
2.23605e-05
1.7622e-05
8.64517e-06
8.73714e-06
1.7524e-05
2.23415e-05
2.62406e-05
2.57832e-05
1.77077e-05
2.57683e-05
1.77541e-05
2.23909e-05
1.74751e-05
8.42636e-06
8.4987e-06
1.74645e-05
1.17653e-05
1.19905e-05
2.58189e-05
1.16839e-05
1.20197e-05
5.79239e-06
5.81572e-06
5.62938e-06
5.64939e-06
2.58086e-05
1.16596e-05
1.20186e-05
1.17015e-05
1.20066e-05
5.81405e-06
5.82932e-06
2.26976e-05
2.58622e-05
1.81925e-05
2.62606e-05
2.26309e-05
2.58654e-05
1.83471e-05
1.7457e-05
8.88739e-06
1.73114e-05
8.94953e-06
1.75447e-05
8.82308e-06
1.73775e-05
8.87822e-06
2.26755e-05
2.64609e-05
2.58916e-05
1.85907e-05
2.59041e-05
1.84878e-05
2.27459e-05
2.27119e-05
2.62768e-05
2.58955e-05
1.83936e-05
2.59093e-05
1.8381e-05
2.27587e-05
1.75445e-05
9.02082e-06
8.98115e-06
1.77584e-05
1.75935e-05
8.85892e-06
8.89953e-06
1.78218e-05
5.48624e-06
5.43673e-06
5.66796e-06
5.69071e-06
2.55647e-05
1.12484e-05
1.17726e-05
1.12637e-05
1.17622e-05
5.43533e-06
5.44749e-06
5.69181e-06
5.70387e-06
5.75566e-06
5.73251e-06
5.58678e-06
5.57629e-06
1.18478e-05
1.16278e-05
2.56014e-05
1.18475e-05
1.15784e-05
5.71079e-06
5.73412e-06
5.57948e-06
5.57974e-06
2.56e-05
1.18227e-05
1.15981e-05
1.1872e-05
1.1628e-05
1.78812e-05
8.85959e-06
1.80433e-05
8.80019e-06
2.26757e-05
1.83652e-05
2.59129e-05
2.63688e-05
2.28105e-05
1.84578e-05
2.58778e-05
2.25887e-05
1.82984e-05
2.58511e-05
2.63485e-05
2.27643e-05
1.82946e-05
2.58521e-05
1.797e-05
8.85063e-06
8.91564e-06
1.78686e-05
1.79325e-05
8.77417e-06
8.82109e-06
1.77887e-05
2.27099e-05
2.63736e-05
1.83558e-05
2.59139e-05
1.84381e-05
2.58816e-05
2.26363e-05
2.25733e-05
2.63509e-05
1.82105e-05
2.58762e-05
1.83274e-05
2.585e-05
2.26118e-05
1.17911e-05
1.1851e-05
2.56866e-05
1.1687e-05
1.17758e-05
5.69085e-06
5.65782e-06
5.62743e-06
5.67615e-06
2.56817e-05
1.1635e-05
1.17429e-05
1.17274e-05
1.18051e-05
5.64037e-06
5.66069e-06
2.2071e-05
1.80303e-05
2.58443e-05
2.62278e-05
2.21342e-05
1.79252e-05
2.58471e-05
1.71058e-05
8.74526e-06
1.71461e-05
8.71069e-06
2.20562e-05
2.58516e-05
1.81504e-05
2.64299e-05
2.2093e-05
2.585e-05
1.81718e-05
1.70041e-05
8.53199e-06
8.56268e-06
1.70136e-05
2.20715e-05
2.62258e-05
1.80299e-05
2.58372e-05
1.8045e-05
2.58368e-05
2.20549e-05
1.70792e-05
8.60712e-06
8.71657e-06
1.69754e-05
2.20038e-05
2.64247e-05
2.58644e-05
1.79913e-05
2.58508e-05
1.81078e-05
2.20479e-05
1.75578e-05
8.68041e-06
1.74748e-05
8.58663e-06
2.23512e-05
2.58316e-05
1.76795e-05
2.62156e-05
2.23423e-05
2.58034e-05
1.76414e-05
1.75058e-05
8.43365e-06
1.74506e-05
8.37114e-06
2.24289e-05
2.63346e-05
1.81331e-05
2.58708e-05
1.81348e-05
2.58693e-05
2.23502e-05
1.75665e-05
8.61537e-06
8.61767e-06
1.75069e-05
2.23068e-05
2.61992e-05
2.58434e-05
1.75522e-05
2.58062e-05
1.76879e-05
2.23199e-05
1.75058e-05
8.38726e-06
8.3908e-06
1.74495e-05
1.16556e-05
1.199e-05
2.5817e-05
1.16772e-05
1.19527e-05
5.82672e-06
5.81287e-06
5.62292e-06
5.64798e-06
2.58101e-05
1.16652e-05
1.19498e-05
1.17265e-05
1.20417e-05
5.78921e-06
5.82178e-06
2.26569e-05
2.59099e-05
1.83698e-05
2.6325e-05
2.27429e-05
2.59148e-05
1.84082e-05
1.79125e-05
9.04422e-06
1.77707e-05
9.0009e-06
1.79296e-05
8.88746e-06
1.78274e-05
8.81608e-06
2.26244e-05
2.64586e-05
2.59126e-05
1.85469e-05
2.59116e-05
1.86109e-05
2.26243e-05
2.25792e-05
2.62914e-05
2.59305e-05
1.8251e-05
2.59263e-05
1.83654e-05
2.2569e-05
1.78888e-05
8.9034e-06
8.97464e-06
1.79141e-05
1.77964e-05
8.81972e-06
8.82348e-06
1.78068e-05
5.42663e-06
5.39656e-06
5.68859e-06
5.64673e-06
2.55497e-05
1.12071e-05
1.1578e-05
1.11923e-05
1.17112e-05
5.40513e-06
5.40924e-06
5.60891e-06
5.65403e-06
5.70638e-06
5.68517e-06
5.58255e-06
5.55004e-06
1.18397e-05
1.15428e-05
2.55877e-05
1.17503e-05
1.15136e-05
5.648e-06
5.67835e-06
5.53742e-06
5.55952e-06
2.55797e-05
1.17446e-05
1.15201e-05
1.17402e-05
1.155e-05
1.7868e-05
8.75237e-06
1.79506e-05
8.68478e-06
2.25785e-05
1.83106e-05
2.5917e-05
2.63668e-05
2.25531e-05
1.81049e-05
2.59296e-05
2.25684e-05
1.81712e-05
2.59314e-05
2.63913e-05
2.25234e-05
1.81945e-05
2.59027e-05
1.77794e-05
8.74234e-06
8.76768e-06
1.78468e-05
1.789e-05
8.72446e-06
8.71446e-06
1.77216e-05
2.25192e-05
2.63462e-05
1.81772e-05
2.58908e-05
1.81715e-05
2.58834e-05
2.24528e-05
2.25101e-05
2.63679e-05
1.8185e-05
2.59152e-05
1.81816e-05
2.58903e-05
2.25531e-05
1.17076e-05
1.1736e-05
2.5692e-05
1.16903e-05
1.16735e-05
5.6429e-06
5.61374e-06
5.63014e-06
5.62691e-06
2.57056e-05
1.16281e-05
1.17045e-05
1.16571e-05
1.16983e-05
5.62686e-06
5.62123e-06
2.19328e-05
1.79491e-05
2.58473e-05
2.62283e-05
2.19976e-05
1.77786e-05
2.584e-05
1.69091e-05
8.63402e-06
1.69574e-05
8.64183e-06
2.18047e-05
2.58224e-05
1.81076e-05
2.6403e-05
2.20349e-05
2.58243e-05
1.81266e-05
1.69795e-05
8.47711e-06
8.55123e-06
1.6852e-05
2.19462e-05
2.62182e-05
1.77915e-05
2.57988e-05
1.78561e-05
2.58476e-05
2.18793e-05
1.69418e-05
8.66224e-06
8.66896e-06
1.68362e-05
2.18823e-05
2.63863e-05
2.58531e-05
1.80176e-05
2.58394e-05
1.80992e-05
2.17649e-05
1.74059e-05
8.6138e-06
1.75527e-05
8.62286e-06
2.2285e-05
2.58046e-05
1.76778e-05
2.61811e-05
2.23139e-05
2.58327e-05
1.76843e-05
1.73027e-05
8.41418e-06
1.74421e-05
8.39486e-06
2.23155e-05
2.63099e-05
1.81085e-05
2.59586e-05
1.80479e-05
2.59231e-05
2.21932e-05
1.73255e-05
8.6184e-06
8.64856e-06
1.73029e-05
2.2245e-05
2.61825e-05
2.5844e-05
1.75435e-05
2.58826e-05
1.76537e-05
2.21964e-05
1.72428e-05
8.40057e-06
8.41625e-06
1.72675e-05
1.1732e-05
1.20211e-05
2.57743e-05
1.17546e-05
1.19863e-05
5.79659e-06
5.77309e-06
5.64036e-06
5.64752e-06
2.57689e-05
1.17561e-05
1.18927e-05
1.17611e-05
1.19575e-05
5.76281e-06
5.77681e-06
2.25355e-05
2.59374e-05
1.82062e-05
2.62895e-05
2.25779e-05
2.59232e-05
1.81001e-05
1.78533e-05
8.90853e-06
1.7928e-05
8.91026e-06
1.77573e-05
8.83257e-06
1.77971e-05
8.76016e-06
2.25525e-05
2.64374e-05
2.59386e-05
1.83531e-05
2.59639e-05
1.84931e-05
2.25104e-05
2.25357e-05
2.62826e-05
2.59444e-05
1.79995e-05
2.59189e-05
1.81333e-05
2.25041e-05
1.78964e-05
8.90206e-06
8.93033e-06
1.7725e-05
1.76998e-05
8.72119e-06
8.76254e-06
1.77165e-05
5.40778e-06
5.39572e-06
5.60435e-06
5.57824e-06
2.5514e-05
1.12151e-05
1.15681e-05
1.11707e-05
1.15613e-05
5.40843e-06
5.40146e-06
5.58624e-06
5.58761e-06
5.65316e-06
5.63697e-06
5.53985e-06
5.52304e-06
1.1708e-05
1.15117e-05
2.5529e-05
1.16425e-05
1.14455e-05
5.61703e-06
5.64296e-06
5.50548e-06
5.52916e-06
2.55189e-05
1.16585e-05
1.13902e-05
1.16605e-05
1.14747e-05
1.77514e-05
8.75236e-06
1.7828e-05
8.75102e-06
2.24851e-05
1.81373e-05
2.59327e-05
2.63349e-05
2.24996e-05
1.81222e-05
2.58932e-05
2.25055e-05
1.81982e-05
2.59058e-05
2.63706e-05
2.24884e-05
1.81343e-05
2.59364e-05
1.75907e-05
8.6344e-06
8.73147e-06
1.76856e-05
1.77338e-05
8.74522e-06
8.76698e-06
1.7712e-05
2.24504e-05
2.63149e-05
1.80742e-05
2.59016e-05
1.81529e-05
2.58887e-05
2.23135e-05
2.24741e-05
2.63707e-05
1.80598e-05
2.5887e-05
1.81083e-05
2.58886e-05
2.24064e-05
1.16396e-05
1.17663e-05
2.56858e-05
1.15306e-05
1.17754e-05
5.63796e-06
5.64423e-06
5.58897e-06
5.60056e-06
2.56843e-05
1.15441e-05
1.17576e-05
1.15485e-05
1.18107e-05
5.64045e-06
5.65319e-06
2.17529e-05
1.79358e-05
2.58047e-05
2.61887e-05
2.18296e-05
1.78462e-05
2.57947e-05
1.67018e-05
8.68844e-06
1.68301e-05
8.66809e-06
2.17796e-05
2.5805e-05
1.81629e-05
2.63783e-05
2.18597e-05
2.58037e-05
1.81056e-05
1.68164e-05
8.43961e-06
8.48374e-06
1.68569e-05
2.18498e-05
2.61878e-05
1.78329e-05
2.5799e-05
1.78548e-05
2.57875e-05
2.18512e-05
1.68253e-05
8.67496e-06
8.6855e-06
1.67286e-05
2.18193e-05
2.63762e-05
2.58147e-05
1.80779e-05
2.57983e-05
1.81031e-05
2.18468e-05
1.73246e-05
8.61717e-06
1.7478e-05
8.59623e-06
2.21502e-05
2.58279e-05
1.76882e-05
2.61987e-05
2.21442e-05
2.58284e-05
1.76075e-05
1.72367e-05
8.42702e-06
1.73193e-05
8.40544e-06
2.22216e-05
2.63127e-05
1.80141e-05
2.58841e-05
1.81512e-05
2.59037e-05
2.215e-05
1.73675e-05
8.59858e-06
8.61579e-06
1.72673e-05
2.21147e-05
2.6195e-05
2.58289e-05
1.75669e-05
2.58421e-05
1.76357e-05
2.21159e-05
1.72764e-05
8.397e-06
8.42426e-06
1.72572e-05
1.17934e-05
1.19512e-05
2.57517e-05
1.17655e-05
1.18947e-05
5.76794e-06
5.71883e-06
5.65073e-06
5.65949e-06
2.57585e-05
1.17188e-05
1.16832e-05
1.17764e-05
1.19065e-05
5.66439e-06
5.7102e-06
2.23627e-05
2.59392e-05
1.81291e-05
2.6263e-05
2.24232e-05
2.59293e-05
1.79952e-05
1.77535e-05
8.89872e-06
1.78487e-05
8.82326e-06
1.75805e-05
8.71359e-06
1.77624e-05
8.69602e-06
2.24104e-05
2.64085e-05
2.59091e-05
1.82404e-05
2.59446e-05
1.8141e-05
2.24488e-05
2.24005e-05
2.62475e-05
2.58776e-05
1.78951e-05
2.59267e-05
1.79093e-05
2.23969e-05
1.7663e-05
8.759e-06
8.82897e-06
1.76264e-05
1.77079e-05
8.6502e-06
8.71331e-06
1.7561e-05
5.41297e-06
5.39797e-06
5.59097e-06
5.54702e-06
2.55091e-05
1.12528e-05
1.14174e-05
1.1259e-05
1.14448e-05
5.41368e-06
5.40728e-06
5.54587e-06
5.55036e-06
5.62245e-06
5.61714e-06
5.50646e-06
5.50705e-06
1.17028e-05
1.1473e-05
2.55151e-05
1.16687e-05
1.14383e-05
5.61354e-06
5.61676e-06
5.48873e-06
5.51796e-06
2.55099e-05
1.16484e-05
1.13832e-05
1.16254e-05
1.14692e-05
1.7584e-05
8.75192e-06
1.76863e-05
8.72789e-06
2.22961e-05
1.81167e-05
2.59258e-05
2.63108e-05
2.23822e-05
1.81215e-05
2.59069e-05
2.23784e-05
1.81012e-05
2.58832e-05
2.63641e-05
2.24108e-05
1.80418e-05
2.58844e-05
1.76695e-05
8.66004e-06
8.64576e-06
1.75679e-05
1.76989e-05
8.69007e-06
8.73522e-06
1.76916e-05
2.23757e-05
2.62929e-05
1.81024e-05
2.58786e-05
1.80427e-05
2.58774e-05
2.2343e-05
2.2391e-05
2.63637e-05
1.79985e-05
2.58811e-05
1.80541e-05
2.5878e-05
2.23299e-05
1.15651e-05
1.17005e-05
2.56443e-05
1.14816e-05
1.16213e-05
5.64461e-06
5.59396e-06
5.57748e-06
5.58698e-06
2.56455e-05
1.15351e-05
1.15841e-05
1.15271e-05
1.16211e-05
5.56976e-06
5.58966e-06
2.18011e-05
1.78509e-05
2.57761e-05
2.61578e-05
2.1848e-05
1.7777e-05
2.57834e-05
1.67615e-05
8.69741e-06
1.6883e-05
8.6736e-06
2.1741e-05
2.58052e-05
1.80389e-05
2.63524e-05
2.17708e-05
2.57923e-05
1.80252e-05
1.66931e-05
8.36916e-06
8.43137e-06
1.67677e-05
2.17289e-05
2.616e-05
1.76914e-05
2.57694e-05
1.77683e-05
2.58083e-05
2.1775e-05
1.68092e-05
8.59835e-06
8.6609e-06
1.68023e-05
2.18509e-05
2.63691e-05
2.57773e-05
1.81469e-05
2.57821e-05
1.81661e-05
2.18347e-05
1.727e-05
8.61674e-06
1.73248e-05
8.57306e-06
2.21206e-05
2.58322e-05
1.75391e-05
2.61683e-05
2.21232e-05
2.57906e-05
1.75437e-05
1.71258e-05
8.424e-06
1.72731e-05
8.40835e-06
2.21798e-05
2.631e-05
1.79337e-05
2.58772e-05
1.79446e-05
2.58665e-05
2.21244e-05
1.72896e-05
8.59017e-06
8.58024e-06
1.71807e-05
2.21473e-05
2.61622e-05
2.579e-05
1.75957e-05
2.57876e-05
1.76028e-05
2.1976e-05
1.71933e-05
8.37803e-06
8.39869e-06
1.71105e-05
1.17381e-05
1.16592e-05
2.56896e-05
1.16912e-05
1.16876e-05
5.66134e-06
5.64798e-06
5.60362e-06
5.63582e-06
2.57005e-05
1.16364e-05
1.17466e-05
1.1692e-05
1.17228e-05
5.65535e-06
5.65968e-06
2.23404e-05
2.59188e-05
1.79934e-05
2.62319e-05
2.2373e-05
2.58854e-05
1.79139e-05
1.76579e-05
8.7747e-06
1.76567e-05
8.75126e-06
1.75758e-05
8.69265e-06
1.75027e-05
8.61914e-06
2.23683e-05
2.63899e-05
2.59103e-05
1.81105e-05
2.59072e-05
1.81617e-05
2.2326e-05
2.23399e-05
2.62369e-05
2.58774e-05
1.78371e-05
2.58975e-05
1.78788e-05
2.21359e-05
1.7632e-05
8.74462e-06
8.75583e-06
1.74833e-05
1.75566e-05
8.64341e-06
8.64618e-06
1.74855e-05
5.40901e-06
5.39216e-06
5.57329e-06
5.54031e-06
2.54629e-05
1.12734e-05
1.14092e-05
1.12209e-05
1.14947e-05
5.41735e-06
5.40797e-06
5.53715e-06
5.54718e-06
5.62671e-06
5.63492e-06
5.49274e-06
5.45928e-06
1.1717e-05
1.145e-05
2.55061e-05
1.16661e-05
1.13427e-05
5.62182e-06
5.64719e-06
5.44502e-06
5.46835e-06
2.54892e-05
1.16688e-05
1.13641e-05
1.17336e-05
1.13659e-05
1.7667e-05
8.7215e-06
1.76984e-05
8.69491e-06
2.23126e-05
1.81496e-05
2.58926e-05
2.62875e-05
2.23483e-05
1.8119e-05
2.58505e-05
2.23565e-05
1.79057e-05
2.5901e-05
2.63352e-05
2.22934e-05
1.80228e-05
2.59076e-05
1.75429e-05
8.6582e-06
8.69654e-06
1.76639e-05
1.75465e-05
8.73944e-06
8.73869e-06
1.7657e-05
2.22797e-05
2.62877e-05
1.80595e-05
2.58466e-05
1.81475e-05
2.58586e-05
2.23329e-05
2.2299e-05
2.63372e-05
1.80339e-05
2.58635e-05
1.80475e-05
2.58986e-05
2.23273e-05
1.15834e-05
1.15817e-05
2.55873e-05
1.14753e-05
1.14918e-05
5.57937e-06
5.57199e-06
5.58027e-06
5.57583e-06
2.55806e-05
1.15064e-05
1.16034e-05
1.15087e-05
1.15994e-05
5.5936e-06
5.58107e-06
2.16346e-05
1.76383e-05
2.57767e-05
2.61664e-05
2.17732e-05
1.77065e-05
2.57759e-05
1.68192e-05
8.62067e-06
1.68391e-05
8.61111e-06
2.17561e-05
2.57914e-05
1.81265e-05
2.63471e-05
2.17589e-05
2.57909e-05
1.81015e-05
1.67607e-05
8.37394e-06
8.35019e-06
1.6771e-05
2.16721e-05
2.6163e-05
1.76691e-05
2.58022e-05
1.76926e-05
2.57678e-05
2.15532e-05
1.68083e-05
8.61684e-06
8.63341e-06
1.67193e-05
2.1706e-05
2.63454e-05
2.57868e-05
1.79022e-05
2.57808e-05
1.8107e-05
2.16933e-05
1.72739e-05
8.61459e-06
1.73351e-05
8.57902e-06
2.20419e-05
2.58025e-05
1.75802e-05
2.61811e-05
2.20932e-05
2.57662e-05
1.76592e-05
1.7252e-05
8.39581e-06
1.72281e-05
8.38591e-06
2.21327e-05
2.62884e-05
1.79857e-05
2.58331e-05
1.8031e-05
2.58626e-05
2.21315e-05
1.72871e-05
8.60581e-06
8.60842e-06
1.72306e-05
2.20714e-05
2.61786e-05
2.57997e-05
1.76977e-05
2.57522e-05
1.76757e-05
2.19767e-05
1.71978e-05
8.41247e-06
8.38975e-06
1.72065e-05
1.16287e-05
1.17354e-05
2.56751e-05
1.15877e-05
1.16887e-05
5.65193e-06
5.63543e-06
5.58233e-06
5.60708e-06
2.56689e-05
1.1532e-05
1.17282e-05
1.16395e-05
1.17629e-05
5.66055e-06
5.65197e-06
2.21604e-05
2.58533e-05
1.79522e-05
2.61924e-05
2.22003e-05
2.58541e-05
1.78658e-05
1.74811e-05
8.73465e-06
1.75753e-05
8.69627e-06
1.74326e-05
8.66153e-06
1.75147e-05
8.59803e-06
2.21934e-05
2.63344e-05
2.58856e-05
1.8013e-05
2.58911e-05
1.81008e-05
2.21996e-05
2.21392e-05
2.61825e-05
2.58442e-05
1.78146e-05
2.58413e-05
1.7899e-05
2.21815e-05
1.75798e-05
8.71533e-06
8.71013e-06
1.73822e-05
1.74621e-05
8.51222e-06
8.58705e-06
1.73224e-05
5.43694e-06
5.41934e-06
5.52978e-06
5.50672e-06
2.55095e-05
1.1266e-05
1.13504e-05
1.1272e-05
1.13593e-05
5.42614e-06
5.43091e-06
5.48213e-06
5.49559e-06
5.61972e-06
5.60394e-06
5.4419e-06
5.43127e-06
1.16269e-05
1.13893e-05
2.54516e-05
1.1622e-05
1.12605e-05
5.61105e-06
5.60592e-06
5.44199e-06
5.43758e-06
2.5455e-05
1.16327e-05
1.13501e-05
1.15952e-05