/*--------------------------------*- C++ -*----------------------------------*\
| =========                 |                                                 |
| \\      /  F ield         | OpenFOAM: The Open Source CFD Toolbox           |
|  \\    /   O peration     | Version:  2206                                  |
|   \\  /    A nd           | Website:  www.openfoam.com                      |
|    \\/     M anipulation  |                                                 |
\*---------------------------------------------------------------------------*/
FoamFile
{
    version     2.0;
    format      ascii;
    arch        "LSB;label=32;scalar=64";
    class       volScalarField;
    location    "40";
    object      nut;
}
// * * * * * * * * * * * * * * * * * * * * * * * * * * * * * * * * * * * * * //

dimensions      [0 2 -1 0 0 0 0];

internalField   nonuniform List<scalar> 
66940
(
1.2485e-06
9.50601e-07
9.68681e-07
9.41409e-07
1.24746e-06
9.52169e-07
9.72108e-07
9.40779e-07
1.25368e-06
9.52558e-07
9.7302e-07
9.41314e-07
1.25034e-06
9.51904e-07
9.72422e-07
9.4083e-07
1.24841e-06
9.52384e-07
9.71763e-07
9.39616e-07
1.25312e-06
9.5327e-07
9.72268e-07
9.36517e-07
1.2505e-06
9.53931e-07
9.71406e-07
9.34972e-07
1.24981e-06
9.49742e-07
9.67461e-07
9.27843e-07
1.24676e-06
9.43153e-07
9.61674e-07
9.11684e-07
1.2467e-06
9.43138e-07
9.58704e-07
8.95409e-07
1.2446e-06
1.03331e-06
1.04123e-06
9.09069e-07
5.05179e-07
5.83122e-07
5.39212e-07
5.95491e-07
9.2318e-07
9.6023e-07
9.64149e-07
9.2893e-07
9.4516e-07
9.50439e-07
9.50824e-07
9.45671e-07
9.33035e-07
9.69027e-07
9.63016e-07
9.25952e-07
9.38956e-07
9.25139e-07
9.61733e-07
9.63926e-07
9.64616e-07
9.63855e-07
9.44715e-07
9.29586e-07
9.45938e-07
9.50973e-07
9.47357e-07
9.51624e-07
9.43997e-07
9.5199e-07
9.45809e-07
9.4906e-07
9.34089e-07
9.63268e-07
9.71387e-07
9.6297e-07
9.24908e-07
9.41527e-07
9.2772e-07
9.64438e-07
9.64188e-07
9.64913e-07
9.64429e-07
9.45968e-07
9.31088e-07
9.47096e-07
9.52106e-07
9.48291e-07
9.51929e-07
9.43874e-07
9.53601e-07
9.46293e-07
9.50294e-07
9.35802e-07
9.64612e-07
9.73338e-07
9.66295e-07
9.25527e-07
9.44291e-07
9.26921e-07
9.64861e-07
9.64774e-07
9.65261e-07
9.65485e-07
9.47162e-07
9.30322e-07
9.47773e-07
9.51499e-07
9.48255e-07
9.51447e-07
9.44905e-07
9.52417e-07
9.45112e-07
9.52289e-07
9.34981e-07
9.66174e-07
9.72775e-07
9.65761e-07
9.25128e-07
9.42488e-07
9.26445e-07
9.64848e-07
9.6516e-07
9.64344e-07
9.64945e-07
9.4618e-07
9.31567e-07
9.4793e-07
9.50726e-07
9.47841e-07
9.49959e-07
9.42327e-07
9.51949e-07
9.4424e-07
9.50947e-07
9.33969e-07
9.66578e-07
9.71699e-07
9.65985e-07
9.241e-07
9.41659e-07
9.25029e-07
9.64161e-07
9.66028e-07
9.61959e-07
9.64203e-07
9.47554e-07
9.30607e-07
9.47366e-07
9.50161e-07
9.45446e-07
9.48463e-07
9.43741e-07
9.50923e-07
9.43768e-07
9.50136e-07
9.32637e-07
9.65173e-07
9.70843e-07
9.62239e-07
9.23083e-07
9.39525e-07
9.26719e-07
9.63862e-07
9.66131e-07
9.60046e-07
9.6182e-07
9.45332e-07
9.31158e-07
9.47091e-07
9.50716e-07
9.4496e-07
9.47992e-07
9.43272e-07
9.50581e-07
9.42364e-07
9.47088e-07
9.34277e-07
9.657e-07
9.68308e-07
9.62059e-07
9.25607e-07
9.35569e-07
9.32608e-07
9.63502e-07
9.65207e-07
9.61981e-07
9.6274e-07
9.41301e-07
9.34104e-07
9.474e-07
9.50253e-07
9.46528e-07
9.49475e-07
9.43515e-07
9.50775e-07
9.44659e-07
9.43446e-07
9.38554e-07
9.64678e-07
9.68242e-07
9.61319e-07
9.33358e-07
9.26226e-07
9.44506e-07
9.60545e-07
9.62048e-07
9.66433e-07
9.67331e-07
9.30165e-07
9.47872e-07
9.43514e-07
9.47861e-07
9.50195e-07
9.54746e-07
9.40312e-07
9.53525e-07
9.49175e-07
9.32551e-07
9.51584e-07
9.63071e-07
9.7396e-07
9.68681e-07
9.44916e-07
9.12123e-07
9.66882e-07
9.52066e-07
9.5498e-07
9.71539e-07
9.70382e-07
9.18759e-07
9.67704e-07
9.35335e-07
9.39878e-07
9.54784e-07
9.6076e-07
9.33177e-07
9.57668e-07
9.54699e-07
9.18435e-07
9.74045e-07
9.55994e-07
9.78469e-07
9.73474e-07
9.65172e-07
8.97201e-07
1.01639e-06
9.50608e-07
9.52945e-07
9.39953e-07
9.38828e-07
9.0495e-07
1.01451e-06
9.32782e-07
9.3711e-07
9.25621e-07
9.31871e-07
9.3035e-07
9.24913e-07
9.25854e-07
9.02596e-07
1.02585e-06
9.55954e-07
9.46004e-07
9.41947e-07
1.01616e-06
9.10754e-07
8.97656e-07
1.03076e-06
1.03486e-06
6.88357e-07
6.8966e-07
9.20251e-07
8.85542e-07
1.01752e-06
1.02121e-06
6.84219e-07
6.91695e-07
1.01508e-06
6.84931e-07
6.88162e-07
9.14925e-07
9.04906e-07
1.03509e-06
6.87683e-07
6.84536e-07
8.96263e-07
5.9554e-07
5.36389e-07
5.24673e-07
6.14405e-07
5.35902e-07
5.40247e-07
4.93553e-07
5.08653e-07
5.06743e-07
5.37133e-07
5.99419e-07
5.36829e-07
1.35516e-08
1.25107e-06
1.25764e-06
1.26404e-06
1.25382e-06
4.46484e-07
9.55195e-07
1.49954e-07
1.18767e-06
9.30691e-07
6.78386e-08
6.95872e-08
1.37528e-07
3.08262e-08
1.37885e-07
3.07962e-08
1.36393e-08
1.36085e-08
1.31092e-07
2.91998e-08
1.30025e-07
2.93687e-08
1.25334e-06
1.25703e-06
1.24928e-06
1.24997e-06
1.25178e-06
1.25801e-06
1.25389e-06
4.49284e-07
1.48794e-07
1.18007e-06
9.5107e-07
4.50377e-07
1.49713e-07
1.17902e-06
1.37046e-08
1.36321e-08
4.76793e-07
1.20944e-06
1.52054e-07
9.69506e-07
4.74066e-07
1.20983e-06
1.51766e-07
6.68559e-08
7.00874e-08
9.25811e-07
6.72568e-08
7.00845e-08
1.41735e-07
3.08524e-08
1.38684e-07
3.10985e-08
1.37114e-08
1.37499e-08
1.30478e-07
2.91877e-08
1.30288e-07
2.93297e-08
1.24727e-06
1.25707e-06
1.24863e-06
1.24704e-06
1.25137e-06
1.25746e-06
1.25588e-06
4.51489e-07
1.49617e-07
1.17881e-06
9.52915e-07
4.53171e-07
1.50417e-07
1.1812e-06
1.36433e-08
1.3571e-08
4.83706e-07
1.20792e-06
1.53418e-07
9.72568e-07
4.80967e-07
1.20796e-06
1.56245e-07
6.65294e-08
7.04883e-08
9.25597e-07
6.65273e-08
7.07104e-08
1.41988e-07
3.10413e-08
1.42209e-07
3.09316e-08
1.371e-08
1.37011e-08
1.29221e-07
2.92865e-08
1.29423e-07
2.93216e-08
1.24364e-06
1.25114e-06
1.24864e-06
1.24869e-06
1.2506e-06
1.25864e-06
1.25213e-06
4.52249e-07
1.49874e-07
1.18325e-06
9.52882e-07
4.52222e-07
1.48963e-07
1.18291e-06
1.35573e-08
1.35671e-08
4.85055e-07
1.21014e-06
1.56181e-07
9.73447e-07
4.8573e-07
1.20911e-06
1.57585e-07
6.59932e-08
7.00856e-08
9.25958e-07
6.62455e-08
7.00221e-08
1.40538e-07
3.05587e-08
1.40555e-07
3.04214e-08
1.36079e-08
1.35833e-08
1.28952e-07
2.9201e-08
1.28313e-07
2.93154e-08
1.24451e-06
1.25493e-06
1.24634e-06
1.24712e-06
1.25088e-06
1.26123e-06
1.24966e-06
4.49575e-07
1.48105e-07
1.18376e-06
9.52053e-07
4.50756e-07
1.4875e-07
1.18396e-06
1.35585e-08
1.35814e-08
4.82188e-07
1.2118e-06
1.56181e-07
9.72747e-07
4.81778e-07
1.21015e-06
1.56331e-07
6.57451e-08
6.84615e-08
9.24344e-07
6.62322e-08
6.88698e-08
1.39259e-07
3.02203e-08
1.39801e-07
3.02259e-08
1.36007e-08
1.35259e-08
1.27583e-07
2.90666e-08
1.27921e-07
2.90709e-08
1.25359e-06
1.25513e-06
1.24922e-06
1.24829e-06
1.25688e-06
1.25913e-06
1.25432e-06
4.47917e-07
1.49024e-07
1.18659e-06
9.51547e-07
4.49901e-07
1.48596e-07
1.18296e-06
1.35912e-08
1.36096e-08
4.80194e-07
1.21069e-06
1.53909e-07
9.70741e-07
4.80685e-07
1.20579e-06
1.54205e-07
6.56544e-08
6.96466e-08
9.24329e-07
6.59181e-08
6.87384e-08
1.38964e-07
2.97727e-08
1.38837e-07
2.9911e-08
1.34664e-08
1.34814e-08
1.27392e-07
2.88143e-08
1.26587e-07
2.88518e-08
1.25203e-06
1.25473e-06
1.24727e-06
1.24952e-06
1.25618e-06
1.25591e-06
1.25239e-06
4.45071e-07
1.4819e-07
1.18895e-06
9.51111e-07
4.47981e-07
1.47862e-07
1.1785e-06
1.35865e-08
1.35635e-08
4.79462e-07
1.21543e-06
1.53674e-07
9.69312e-07
4.79507e-07
1.20027e-06
1.5367e-07
6.63432e-08
6.87775e-08
9.23849e-07
6.58667e-08
6.89503e-08
1.3855e-07
2.99921e-08
1.37374e-07
3.01085e-08
1.35126e-08
1.34731e-08
1.26724e-07
2.85443e-08
1.26251e-07
2.86267e-08
1.25836e-06
1.25759e-06
1.25038e-06
1.24803e-06
1.25747e-06
1.26252e-06
1.25643e-06
4.46492e-07
1.47363e-07
1.19625e-06
9.50521e-07
4.47762e-07
1.47693e-07
1.16808e-06
1.34964e-08
1.35079e-08
4.75905e-07
1.22123e-06
1.52443e-07
9.68233e-07
4.77359e-07
1.19384e-06
1.52638e-07
6.67745e-08
6.77449e-08
9.28522e-07
6.65816e-08
6.82806e-08
1.3896e-07
2.98051e-08
1.37718e-07
2.98561e-08
1.34863e-08
1.3462e-08
1.26985e-07
2.8687e-08
1.25779e-07
2.85677e-08
1.25441e-06
1.25917e-06
1.25463e-06
1.24711e-06
1.25742e-06
1.26259e-06
1.25484e-06
4.45399e-07
1.47823e-07
1.20023e-06
9.51437e-07
4.47861e-07
1.4805e-07
1.16246e-06
1.34357e-08
1.34365e-08
4.7517e-07
1.22421e-06
1.52331e-07
9.70535e-07
4.77864e-07
1.18616e-06
1.51223e-07
6.62595e-08
6.72951e-08
9.38305e-07
6.61779e-08
6.79114e-08
1.39328e-07
2.997e-08
1.38358e-07
3.0089e-08
1.3534e-08
1.35885e-08
1.27448e-07
2.86197e-08
1.26681e-07
2.87133e-08
1.25816e-06
1.25782e-06
1.25281e-06
1.24262e-06
1.25511e-06
1.26083e-06
1.25491e-06
4.42843e-07
1.47306e-07
1.19489e-06
9.56332e-07
4.50265e-07
1.47017e-07
1.17016e-06
1.34572e-08
1.34591e-08
4.74187e-07
1.21643e-06
1.52173e-07
9.7756e-07
4.80855e-07
1.19676e-06
1.51477e-07
6.58383e-08
6.74625e-08
9.53321e-07
6.62275e-08
6.819e-08
1.4008e-07
3.001e-08
1.39541e-07
3.00597e-08
1.36397e-08
1.3684e-08
1.28106e-07
2.8662e-08
1.27132e-07
2.86539e-08
1.25093e-06
1.25772e-06
1.24927e-06
1.24052e-06
1.25054e-06
1.26109e-06
1.25176e-06
4.52398e-07
1.48396e-07
1.15101e-06
9.5002e-07
4.60344e-07
1.45784e-07
1.22909e-06
1.35336e-08
1.35796e-08
4.8618e-07
1.16958e-06
1.52988e-07
9.7127e-07
4.91256e-07
1.25539e-06
1.50132e-07
6.61678e-08
6.83733e-08
9.84893e-07
6.61958e-08
6.84266e-08
1.32304e-07
2.97686e-08
1.38161e-07
2.97032e-08
1.37701e-08
1.39985e-08
1.3084e-07
2.88149e-08
1.31805e-07
2.91202e-08
1.25186e-06
1.26054e-06
1.25303e-06
5.56031e-07
5.51528e-07
5.59974e-07
5.56859e-07
5.17441e-07
1.53745e-07
9.98985e-07
8.64348e-07
5.05364e-07
1.41617e-07
1.21639e-06
1.37658e-08
1.41597e-08
5.29511e-07
1.00515e-06
1.54996e-07
8.75615e-07
5.21342e-07
1.22253e-06
1.41345e-07
6.62099e-08
6.83965e-08
9.99298e-07
6.63541e-08
6.66538e-08
1.07751e-07
1.3126e-09
8.08594e-08
1.31355e-08
2.3381e-09
7.63599e-09
1.08073e-07
1.30194e-09
8.07497e-08
1.29811e-08
3.56727e-07
3.67509e-07
3.57011e-07
3.73913e-07
3.1866e-07
3.39279e-07
3.31389e-07
3.8358e-07
4.17742e-08
6.82074e-07
4.5572e-07
3.66583e-07
4.14737e-08
4.03703e-07
2.34147e-09
7.71737e-09
3.85671e-07
6.86489e-07
4.14284e-08
4.50231e-07
3.63509e-07
4.15159e-07
4.11289e-08
2.30417e-08
2.28e-08
5.15656e-07
1.88001e-08
1.90365e-08
1.36809e-08
1.3561e-08
1.33232e-08
1.33229e-08
9.38565e-07
7.03441e-08
6.78663e-08
6.93181e-08
6.81365e-08
3.00975e-08
9.53411e-07
1.48208e-07
1.34209e-07
3.09706e-08
3.03912e-08
1.38288e-07
1.33424e-07
3.02288e-08
3.03905e-08
1.38075e-07
4.60497e-07
9.52749e-07
1.5264e-07
1.21142e-06
1.48044e-07
1.19e-06
4.78917e-07
4.61059e-07
9.559e-07
1.51088e-07
1.21276e-06
1.48744e-07
1.19184e-06
4.78065e-07
9.34676e-07
6.87127e-08
7.05986e-08
1.36596e-08
1.36721e-08
1.36131e-08
9.44469e-07
7.04236e-08
7.04259e-08
7.12025e-08
7.17513e-08
1.37202e-08
1.37148e-08
1.29062e-07
2.9606e-08
2.91029e-08
1.30841e-07
4.4825e-07
9.45311e-07
1.47253e-07
1.17771e-06
1.45422e-07
1.17701e-06
4.46994e-07
1.30756e-07
3.02769e-08
3.00671e-08
1.31794e-07
4.50082e-07
9.50347e-07
1.18074e-06
1.50402e-07
1.18018e-06
1.50027e-07
4.47786e-07
1.30537e-07
3.00312e-08
4.46611e-07
9.49019e-07
1.18674e-06
1.46804e-07
1.31187e-07
2.91351e-08
4.49655e-07
9.49984e-07
1.50007e-07
1.17863e-06
1.49314e-07
1.17844e-06
4.48527e-07
1.3048e-07
3.01121e-08
3.0627e-08
1.31296e-07
4.49007e-07
9.42183e-07
1.18094e-06
1.47059e-07
1.1795e-06
1.45773e-07
4.47822e-07
1.30092e-07
2.92261e-08
2.94679e-08
1.31456e-07
1.37174e-08
1.36672e-08
9.50034e-07
6.99648e-08
7.14889e-08
7.00053e-08
7.07801e-08
1.38112e-08
1.37399e-08
4.55271e-07
9.62225e-07
1.21138e-06
1.52624e-07
1.18989e-06
1.50388e-07
4.72719e-07
4.56289e-07
9.55867e-07
1.20845e-06
1.50643e-07
1.18439e-06
1.47995e-07
4.73283e-07
1.29621e-07
3.06037e-08
3.0344e-08
1.3503e-07
1.29615e-07
3.0042e-08
2.98364e-08
1.35003e-07
1.32337e-08
1.35136e-08
9.40783e-07
6.9223e-08
7.10695e-08
6.92153e-08
7.09753e-08
1.32942e-08
1.32889e-08
1.36333e-08
1.35524e-08
1.37692e-08
1.37703e-08
1.34046e-08
1.33483e-08
7.19507e-08
7.01204e-08
9.24364e-07
7.22856e-08
6.8236e-08
1.37945e-08
1.3837e-08
1.3391e-08
1.3426e-08
9.40545e-07
7.03886e-08
6.85842e-08
7.24211e-08
6.98899e-08
1.3667e-07
3.06187e-08
1.37393e-07
3.03066e-08
4.83811e-07
1.52457e-07
1.21017e-06
9.62401e-07
4.80729e-07
1.52267e-07
1.2108e-06
4.82385e-07
1.51195e-07
1.21167e-06
9.64109e-07
4.79637e-07
1.52172e-07
1.21204e-06
1.36968e-07
3.08925e-08
3.09874e-08
1.38688e-07
1.36267e-07
3.05057e-08
3.06534e-08
1.37686e-07
4.85759e-07
9.63679e-07
1.52881e-07
1.21083e-06
1.52902e-07
1.21099e-06
4.87815e-07
4.83887e-07
9.64669e-07
1.53091e-07
1.21168e-06
1.51721e-07
1.21235e-06
4.86326e-07
7.14892e-08
7.22893e-08
9.28503e-07
6.96722e-08
7.1114e-08
1.37927e-08
1.3773e-08
1.37084e-08
1.36606e-08
9.45174e-07
7.02683e-08
7.08347e-08
7.18402e-08
7.26379e-08
1.37653e-08
1.38165e-08
4.462e-07
1.47276e-07
1.17817e-06
9.46391e-07
4.49208e-07
1.48013e-07
1.17811e-06
1.31813e-07
3.06928e-08
1.31069e-07
3.00926e-08
4.49455e-07
1.18113e-06
1.50036e-07
9.51257e-07
4.51279e-07
1.18384e-06
1.51199e-07
1.2994e-07
2.93015e-08
3.00569e-08
1.31294e-07
4.49455e-07
9.4685e-07
1.48327e-07
1.1791e-06
1.47711e-07
1.1789e-06
4.47686e-07
1.31153e-07
3.01992e-08
3.06342e-08
1.31862e-07
4.49779e-07
9.51593e-07
1.1824e-06
1.50376e-07
1.18281e-06
1.50005e-07
4.48346e-07
1.3198e-07
3.06528e-08
1.30722e-07
3.01667e-08
4.4891e-07
1.18083e-06
1.46728e-07
9.46014e-07
4.50174e-07
1.18015e-06
1.47463e-07
1.31926e-07
2.96266e-08
1.3076e-07
2.9243e-08
4.51073e-07
9.52109e-07
1.50976e-07
1.18106e-06
1.50027e-07
1.17999e-06
4.51729e-07
1.31366e-07
3.02874e-08
3.07719e-08
1.32933e-07
4.50865e-07
9.44852e-07
1.17989e-06
1.47275e-07
1.1817e-06
1.46604e-07
4.4967e-07
1.31876e-07
2.92821e-08
2.99997e-08
1.32849e-07
7.18798e-08
7.25785e-08
9.33287e-07
6.99509e-08
7.12561e-08
1.38739e-08
1.38419e-08
1.36685e-08
1.3658e-08
9.49897e-07
7.0537e-08
7.2221e-08
7.18295e-08
7.32867e-08
1.39787e-08
1.39019e-08
4.77867e-07
1.20661e-06
1.51267e-07
9.62634e-07
4.7506e-07
1.20793e-06
1.50602e-07
1.34775e-07
3.09599e-08
1.34621e-07
3.05271e-08
1.36512e-07
3.03731e-08
1.3492e-07
3.02088e-08
4.78481e-07
9.70552e-07
1.20835e-06
1.5325e-07
1.20774e-06
1.51507e-07
4.80518e-07
4.79414e-07
9.6365e-07
1.20834e-06
1.52103e-07
1.20834e-06
1.49961e-07
4.81002e-07
1.33794e-07
3.07455e-08
3.09853e-08
1.35213e-07
1.36086e-07
3.05004e-08
3.04661e-08
1.35814e-07
1.32586e-08
1.31802e-08
1.36902e-08
1.36304e-08
9.41778e-07
6.84731e-08
7.06844e-08
6.96467e-08
7.1732e-08
1.32469e-08
1.3232e-08
1.37052e-08
1.36051e-08
1.38784e-08
1.38739e-08
1.34683e-08
1.3415e-08
7.21743e-08
7.04696e-08
9.26278e-07
7.12548e-08
6.88307e-08
1.38799e-08
1.39232e-08
1.34382e-08
1.34913e-08
9.42738e-07
7.17847e-08
6.93359e-08
7.27892e-08
7.02384e-08
1.41029e-07
3.13415e-08
1.3821e-07
3.06302e-08
4.90176e-07
1.53146e-07
1.21134e-06
9.64663e-07
4.88627e-07
1.55715e-07
1.21281e-06
4.85724e-07
1.52978e-07
1.21146e-06
9.64821e-07
4.87274e-07
1.5442e-07
1.21349e-06
1.41919e-07
3.12818e-08
3.17189e-08
1.42725e-07
1.40885e-07
3.0701e-08
3.14746e-08
1.42091e-07
4.9085e-07
9.64722e-07
1.55954e-07
1.21313e-06
1.55169e-07
1.21425e-06
4.89557e-07
4.87662e-07
9.64462e-07
1.54739e-07
1.21158e-06
1.54039e-07
1.21159e-06
4.85702e-07
7.24963e-08
7.25396e-08
9.30782e-07
7.02448e-08
7.05072e-08
1.38081e-08
1.36852e-08
1.37419e-08
1.38216e-08
9.4737e-07
7.06318e-08
7.01426e-08
7.24947e-08
7.23777e-08
1.36814e-08
1.37835e-08
4.47728e-07
1.46788e-07
1.17987e-06
9.4802e-07
4.49102e-07
1.46908e-07
1.18043e-06
1.31847e-07
3.07289e-08
1.31103e-07
3.01562e-08
4.49139e-07
1.18422e-06
1.50142e-07
9.52049e-07
4.49095e-07
1.18378e-06
1.49383e-07
1.28987e-07
2.94618e-08
2.97688e-08
1.30328e-07
4.48054e-07
9.47693e-07
1.47844e-07
1.18175e-06
1.47183e-07
1.18089e-06
4.47058e-07
1.31354e-07
2.99879e-08
3.0964e-08
1.30546e-07
4.50887e-07
9.52075e-07
1.18583e-06
1.49632e-07
1.18335e-06
1.48416e-07
4.46674e-07
1.33502e-07
3.07398e-08
1.32504e-07
3.00143e-08
4.50006e-07
1.18013e-06
1.47191e-07
9.4581e-07
4.5156e-07
1.18096e-06
1.47531e-07
1.33158e-07
3.00086e-08
1.32572e-07
2.90963e-08
4.52631e-07
9.52597e-07
1.50509e-07
1.18237e-06
1.49586e-07
1.18015e-06
4.50907e-07
1.33331e-07
2.96789e-08
3.04553e-08
1.33179e-07
4.52081e-07
9.4402e-07
1.18123e-06
1.46312e-07
1.18022e-06
1.46069e-07
4.51528e-07
1.32213e-07
2.89504e-08
2.9444e-08
1.32718e-07
7.17464e-08
7.4042e-08
9.35363e-07
6.95331e-08
7.28776e-08
1.40752e-08
1.4071e-08
1.35518e-08
1.36314e-08
9.51402e-07
6.95758e-08
7.30637e-08
7.10337e-08
7.40919e-08
1.40733e-08
1.41448e-08
4.84635e-07
1.20748e-06
1.53094e-07
9.65295e-07
4.83386e-07
1.20805e-06
1.54983e-07
1.3712e-07
3.15048e-08
1.35466e-07
3.10762e-08
1.37818e-07
3.12808e-08
1.35999e-07
3.08461e-08
4.84433e-07
9.73177e-07
1.20865e-06
1.57249e-07
1.20925e-06
1.55762e-07
4.85744e-07
4.85279e-07
9.66209e-07
1.20921e-06
1.55417e-07
1.20939e-06
1.54721e-07
4.85954e-07
1.37341e-07
3.13957e-08
3.17664e-08
1.39545e-07
1.3774e-07
3.07353e-08
3.12166e-08
1.40044e-07
1.32125e-08
1.30707e-08
1.37096e-08
1.37837e-08
9.41503e-07
6.63362e-08
7.22002e-08
6.87594e-08
7.19497e-08
1.31045e-08
1.31292e-08
1.37978e-08
1.37803e-08
1.39529e-08
1.38661e-08
1.34828e-08
1.34271e-08
7.27435e-08
7.04911e-08
9.27674e-07
7.18392e-08
6.91773e-08
1.38043e-08
1.39518e-08
1.34343e-08
1.34874e-08
9.43753e-07
7.13777e-08
6.93297e-08
7.33471e-08
7.08463e-08
1.40627e-07
3.09972e-08
1.41381e-07
3.05671e-08
4.84686e-07
1.54811e-07
1.21389e-06
9.65233e-07
4.87809e-07
1.56169e-07
1.21245e-06
4.82716e-07
1.54073e-07
1.21118e-06
9.6491e-07
4.86704e-07
1.54646e-07
1.21167e-06
1.40865e-07
3.08272e-08
3.13234e-08
1.40582e-07
1.40561e-07
3.04499e-08
3.13283e-08
1.39931e-07
4.8579e-07
9.65231e-07
1.55316e-07
1.2141e-06
1.55431e-07
1.21258e-06
4.8393e-07
4.82812e-07
9.647e-07
1.53943e-07
1.21254e-06
1.54336e-07
1.2115e-06
4.8326e-07
7.23051e-08
7.23555e-08
9.31107e-07
7.04404e-08
7.01987e-08
1.37279e-08
1.36195e-08
1.3601e-08
1.3771e-08
9.47141e-07
7.02503e-08
6.99005e-08
7.15469e-08
7.19546e-08
1.35905e-08
1.36416e-08
4.44958e-07
1.48265e-07
1.18165e-06
9.48419e-07
4.47608e-07
1.48006e-07
1.18213e-06
1.29889e-07
3.07353e-08
1.2962e-07
2.99772e-08
4.44663e-07
1.18397e-06
1.49342e-07
9.52077e-07
4.46776e-07
1.18448e-06
1.50137e-07
1.28513e-07
2.93373e-08
2.98973e-08
1.29163e-07
4.46371e-07
9.48032e-07
1.48881e-07
1.18158e-06
1.48376e-07
1.18132e-06
4.44567e-07
1.29092e-07
2.95779e-08
3.02966e-08
1.28868e-07
4.45006e-07
9.51687e-07
1.1849e-06
1.48625e-07
1.18423e-06
1.48971e-07
4.44393e-07
1.33434e-07
3.00027e-08
1.32202e-07
2.94563e-08
4.50744e-07
1.18284e-06
1.45444e-07
9.45996e-07
4.51963e-07
1.18212e-06
1.45716e-07
1.33026e-07
2.92543e-08
1.32013e-07
2.87158e-08
4.53649e-07
9.52581e-07
1.49868e-07
1.18324e-06
1.49257e-07
1.18277e-06
4.50614e-07
1.32892e-07
2.96715e-08
2.9969e-08
1.33025e-07
4.51259e-07
9.43385e-07
1.18385e-06
1.44968e-07
1.18191e-06
1.45475e-07
4.49987e-07
1.32422e-07
2.88504e-08
2.90016e-08
1.32573e-07
7.1067e-08
7.40543e-08
9.35725e-07
6.97934e-08
7.23908e-08
1.41361e-08
1.40629e-08
1.35409e-08
1.36689e-08
9.51603e-07
6.99999e-08
7.20328e-08
7.15611e-08
7.43194e-08
1.40049e-08
1.4122e-08
4.83994e-07
1.20939e-06
1.54685e-07
9.67294e-07
4.85957e-07
1.21044e-06
1.55582e-07
1.40834e-07
3.19621e-08
1.39168e-07
3.13169e-08
1.40961e-07
3.10867e-08
1.39623e-07
3.05403e-08
4.8356e-07
9.73174e-07
1.20932e-06
1.56925e-07
1.20952e-06
1.56864e-07
4.83339e-07
4.82671e-07
9.6623e-07
1.21071e-06
1.54272e-07
1.2105e-06
1.54671e-07
4.82127e-07
1.4017e-07
3.09194e-08
3.15174e-08
1.40904e-07
1.3945e-07
3.06127e-08
3.13029e-08
1.40037e-07
1.31042e-08
1.29816e-08
1.37456e-08
1.36544e-08
9.41079e-07
6.60769e-08
7.12373e-08
6.83003e-08
7.21766e-08
1.30218e-08
1.30397e-08
1.35657e-08
1.36785e-08
1.3865e-08
1.3749e-08
1.34794e-08
1.33655e-08
7.31446e-08
7.03238e-08
9.27263e-07
7.07448e-08
6.84221e-08
1.36491e-08
1.3777e-08
1.33312e-08
1.34451e-08
9.4284e-07
7.0821e-08
6.88406e-08
7.25308e-08
7.03642e-08
1.40602e-07
3.07508e-08
1.40733e-07
3.01013e-08
4.82909e-07
1.54363e-07
1.21441e-06
9.65132e-07
4.82525e-07
1.53182e-07
1.21418e-06
4.8258e-07
1.53042e-07
1.21526e-06
9.66253e-07
4.81803e-07
1.53817e-07
1.21339e-06
1.39432e-07
3.04102e-08
3.07886e-08
1.40459e-07
1.40307e-07
3.03136e-08
3.05262e-08
1.39465e-07
4.82024e-07
9.64485e-07
1.53808e-07
1.21122e-06
1.53181e-07
1.21311e-06
4.80321e-07
4.81748e-07
9.65451e-07
1.53768e-07
1.21255e-06
1.53125e-07
1.21384e-06
4.82331e-07
7.1676e-08
7.14776e-08
9.31293e-07
7.06412e-08
6.94738e-08
1.36481e-08
1.35303e-08
1.3625e-08
1.36247e-08
9.47825e-07
7.00236e-08
7.0011e-08
7.18714e-08
7.12021e-08
1.35603e-08
1.35752e-08
4.42069e-07
1.47593e-07
1.18194e-06
9.48407e-07
4.44812e-07
1.46784e-07
1.18134e-06
1.28362e-07
3.037e-08
1.28142e-07
2.97777e-08
4.39513e-07
1.18296e-06
1.48963e-07
9.51005e-07
4.45538e-07
1.18302e-06
1.4974e-07
1.28313e-07
2.92074e-08
2.98778e-08
1.27914e-07
4.43703e-07
9.48051e-07
1.46885e-07
1.17899e-06
1.46805e-07
1.18265e-06
4.40888e-07
1.28019e-07
2.98571e-08
3.02339e-08
1.2778e-07
4.42414e-07
9.50484e-07
1.1836e-06
1.48848e-07
1.18469e-06
1.48881e-07
4.38546e-07
1.32247e-07
3.01157e-08
1.32764e-07
2.96727e-08
4.4935e-07
1.18214e-06
1.454e-07
9.4399e-07
4.51283e-07
1.18351e-06
1.46052e-07
1.31447e-07
2.951e-08
1.31913e-07
2.8855e-08
4.51294e-07
9.51956e-07
1.49643e-07
1.18642e-06
1.48524e-07
1.18616e-06
4.47421e-07
1.31035e-07
2.97037e-08
3.02312e-08
1.31437e-07
4.49934e-07
9.42262e-07
1.18315e-06
1.4491e-07
1.18664e-06
1.45184e-07
4.47475e-07
1.30397e-07
2.89109e-08
2.93399e-08
1.3115e-07
7.15333e-08
7.42508e-08
9.34226e-07
7.02372e-08
7.27114e-08
1.40541e-08
1.39618e-08
1.359e-08
1.36244e-08
9.49893e-07
7.04313e-08
7.17108e-08
7.17737e-08
7.37972e-08
1.39391e-08
1.40318e-08
4.81631e-07
1.21073e-06
1.53326e-07
9.66531e-07
4.82682e-07
1.20965e-06
1.52965e-07
1.40473e-07
3.12216e-08
1.40529e-07
3.09585e-08
1.39696e-07
3.10993e-08
1.39492e-07
3.04596e-08
4.82193e-07
9.72589e-07
1.20861e-06
1.55279e-07
1.21229e-06
1.55884e-07
4.81161e-07
4.81966e-07
9.66814e-07
1.20937e-06
1.52113e-07
1.21019e-06
1.52693e-07
4.81002e-07
1.40329e-07
3.09072e-08
3.17189e-08
1.39481e-07
1.38773e-07
3.02679e-08
3.1097e-08
1.39387e-07
1.30689e-08
1.29911e-08
1.36086e-08
1.35076e-08
9.39416e-07
6.62248e-08
7.10229e-08
6.81829e-08
7.12311e-08
1.30311e-08
1.30364e-08
1.35103e-08
1.34988e-08
1.37268e-08
1.36309e-08
1.33922e-08
1.32965e-08
7.17613e-08
7.01237e-08
9.25351e-07
7.02425e-08
6.81499e-08
1.35858e-08
1.36782e-08
1.32459e-08
1.33651e-08
9.40297e-07
7.07201e-08
6.78701e-08
7.13742e-08
6.98936e-08
1.39726e-07
3.08854e-08
1.39831e-07
3.04322e-08
4.81122e-07
1.52899e-07
1.21592e-06
9.63147e-07
4.81652e-07
1.5333e-07
1.20938e-06
4.81493e-07
1.53289e-07
1.21473e-06
9.64628e-07
4.8135e-07
1.53348e-07
1.21163e-06
1.37974e-07
3.0178e-08
3.07532e-08
1.39205e-07
1.39109e-07
3.04079e-08
3.09201e-08
1.39411e-07
4.80691e-07
9.63833e-07
1.5293e-07
1.20738e-06
1.53023e-07
1.21516e-06
4.77394e-07
4.81159e-07
9.66032e-07
1.52708e-07
1.20666e-06
1.5254e-07
1.2153e-06
4.79247e-07
7.17702e-08
7.18273e-08
9.3132e-07
6.92736e-08
7.06371e-08
1.36365e-08
1.36e-08
1.35288e-08
1.35951e-08
9.47069e-07
6.95506e-08
7.03846e-08
7.08505e-08
7.20969e-08
1.35963e-08
1.36678e-08
4.38329e-07
1.47446e-07
1.1818e-06
9.46634e-07
4.41198e-07
1.47307e-07
1.17763e-06
1.26756e-07
3.06227e-08
1.27148e-07
2.98285e-08
4.38866e-07
1.18391e-06
1.49418e-07
9.49644e-07
4.41815e-07
1.18027e-06
1.49583e-07
1.27036e-07
2.91914e-08
2.93999e-08
1.27914e-07
4.41595e-07
9.47802e-07
1.47198e-07
1.17615e-06
1.46754e-07
1.18286e-06
4.40235e-07
1.27108e-07
2.98497e-08
3.03445e-08
1.26934e-07
4.40995e-07
9.50946e-07
1.17883e-06
1.49347e-07
1.18564e-06
1.48919e-07
4.40122e-07
1.31588e-07
3.0004e-08
1.32161e-07
2.95853e-08
4.46631e-07
1.18477e-06
1.45474e-07
9.44789e-07
4.47789e-07
1.18106e-06
1.45412e-07
1.3091e-07
2.94361e-08
1.30948e-07
2.89462e-08
4.49356e-07
9.52989e-07
1.48849e-07
1.17992e-06
1.49356e-07
1.18803e-06
4.4655e-07
1.31317e-07
2.96106e-08
2.98694e-08
1.31142e-07
4.47252e-07
9.44203e-07
1.17912e-06
1.45086e-07
1.18725e-06
1.45024e-07
4.45843e-07
1.30619e-07
2.88479e-08
2.97262e-08
1.31053e-07
7.1912e-08
7.36848e-08
9.3381e-07
7.04488e-08
7.19817e-08
1.39885e-08
1.38345e-08
1.36261e-08
1.36806e-08
9.4954e-07
7.00008e-08
7.07165e-08
7.18677e-08
7.34679e-08
1.37045e-08
1.38687e-08
4.7814e-07
1.21173e-06
1.52671e-07
9.64146e-07
4.79569e-07
1.20716e-06
1.52086e-07
1.39722e-07
3.14693e-08
1.39962e-07
3.06064e-08
1.38337e-07
3.08102e-08
1.39275e-07
3.01482e-08
4.793e-07
9.72296e-07
1.20312e-06
1.54285e-07
1.2133e-06
1.52875e-07
4.79921e-07
4.79202e-07
9.6539e-07
1.20209e-06
1.51245e-07
1.21267e-06
1.50813e-07
4.78762e-07
1.38521e-07
3.03866e-08
3.10037e-08
1.38711e-07
1.38862e-07
3.0001e-08
3.09697e-08
1.38172e-07
1.30839e-08
1.30104e-08
1.35459e-08
1.34094e-08
9.38936e-07
6.70305e-08
7.0549e-08
6.87104e-08
6.99995e-08
1.3053e-08
1.30137e-08
1.34243e-08
1.34854e-08
1.3654e-08
1.35807e-08
1.33089e-08
1.32594e-08
7.22905e-08
6.98769e-08
9.25857e-07
7.05477e-08
6.79114e-08
1.35715e-08
1.36109e-08
1.32109e-08
1.33146e-08
9.38365e-07
7.04752e-08
6.782e-08
7.18135e-08
6.92241e-08
1.38419e-07
3.09128e-08
1.38732e-07
3.0298e-08
4.77017e-07
1.5272e-07
1.21889e-06
9.61194e-07
4.79157e-07
1.53318e-07
1.20423e-06
4.78677e-07
1.52485e-07
1.21681e-06
9.63182e-07
4.79698e-07
1.52536e-07
1.20335e-06
1.38602e-07
3.01351e-08
3.03311e-08
1.38296e-07
1.38842e-07
3.01839e-08
3.07363e-08
1.39265e-07
4.79071e-07
9.63504e-07
1.5317e-07
1.19928e-06
1.52088e-07
1.21953e-06
4.77976e-07
4.79341e-07
9.66492e-07
1.52168e-07
1.19942e-06
1.52052e-07
1.21986e-06
4.77533e-07
7.12928e-08
7.14245e-08
9.30859e-07
6.92718e-08
6.94111e-08
1.36425e-08
1.3504e-08
1.34897e-08
1.35638e-08
9.44324e-07
6.99484e-08
6.91415e-08
7.10612e-08
7.09336e-08
1.34101e-08
1.34853e-08
4.39242e-07
1.46717e-07
1.18483e-06
9.44914e-07
4.4147e-07
1.46715e-07
1.17274e-06
1.27176e-07
3.06038e-08
1.27521e-07
2.98972e-08
4.38074e-07
1.1882e-06
1.48392e-07
9.48099e-07
4.39914e-07
1.17517e-06
1.48898e-07
1.26072e-07
2.86285e-08
2.95569e-08
1.2722e-07
4.39161e-07
9.47581e-07
1.46009e-07
1.16897e-06
1.4602e-07
1.18969e-06
4.38684e-07
1.26954e-07
2.95505e-08
3.02736e-08
1.2748e-07
4.41635e-07
9.51535e-07
1.17108e-06
1.49899e-07
1.1907e-06
1.49414e-07
4.39875e-07
1.31177e-07
3.03413e-08
1.30981e-07
2.94429e-08
4.45964e-07
1.18934e-06
1.44252e-07
9.42223e-07
4.47339e-07
1.17501e-06
1.44897e-07
1.30065e-07
2.92346e-08
1.30583e-07
2.89081e-08
4.48509e-07
9.5403e-07
1.48161e-07
1.1736e-06
1.47635e-07
1.19217e-06
4.45938e-07
1.3072e-07
2.95714e-08
3.00962e-08
1.30501e-07
4.47912e-07
9.43079e-07
1.17152e-06
1.4534e-07
1.19095e-06
1.44765e-07
4.42904e-07
1.29979e-07
2.87544e-08
2.90651e-08
1.29944e-07
7.13237e-08
7.19855e-08
9.32768e-07
6.97117e-08
7.06189e-08
1.37393e-08
1.36593e-08
1.34955e-08
1.36279e-08
9.45968e-07
6.9526e-08
7.12588e-08
7.13415e-08
7.23192e-08
1.36881e-08
1.37159e-08
4.77616e-07
1.21403e-06
1.51501e-07
9.62553e-07
4.78557e-07
1.19913e-06
1.51361e-07
1.38959e-07
3.07464e-08
1.38453e-07
3.04125e-08
1.3829e-07
3.0882e-08
1.37238e-07
2.98577e-08
4.78532e-07
9.72467e-07
1.19643e-06
1.53159e-07
1.21678e-06
1.53014e-07
4.7736e-07
4.7796e-07
9.6648e-07
1.19522e-06
1.50691e-07
1.21621e-06
1.50505e-07
4.73121e-07
1.38259e-07
3.04113e-08
3.09342e-08
1.37573e-07
1.37659e-07
2.99716e-08
3.05856e-08
1.37566e-07
1.30565e-08
1.29831e-08
1.35013e-08
1.33837e-08
9.35851e-07
6.72431e-08
6.8227e-08
6.7568e-08
7.08056e-08
1.30501e-08
1.30402e-08
1.33886e-08
1.34478e-08
1.36676e-08
1.36318e-08
1.32477e-08
1.3139e-08
7.21734e-08
6.91759e-08
9.29568e-07
7.0759e-08
6.73842e-08
1.35913e-08
1.36913e-08
1.31052e-08
1.31975e-08
9.32096e-07
7.06242e-08
6.78237e-08
7.20783e-08
6.92306e-08
1.39089e-07
3.09968e-08
1.38827e-07
3.01496e-08
4.77255e-07
1.53004e-07
1.22368e-06
9.60391e-07
4.7862e-07
1.53288e-07
1.19402e-06
4.78118e-07
1.50802e-07
1.2242e-06
9.62139e-07
4.77376e-07
1.52359e-07
1.19678e-06
1.37614e-07
3.02687e-08
3.06577e-08
1.39084e-07
1.3764e-07
3.03236e-08
3.10539e-08
1.39009e-07
4.77712e-07
9.62153e-07
1.52757e-07
1.19078e-06
1.52986e-07
1.22548e-06
4.77409e-07
4.78077e-07
9.64637e-07
1.52424e-07
1.19142e-06
1.52015e-07
1.22792e-06
4.77142e-07
7.14199e-08
7.05554e-08
9.32378e-07
6.92547e-08
6.86405e-08
1.34472e-08
1.34205e-08
1.35228e-08
1.34938e-08
9.36782e-07
6.93822e-08
6.94208e-08
7.09679e-08
7.08048e-08
1.34813e-08
1.34856e-08
4.358e-07
1.44954e-07
1.192e-06
9.45594e-07
4.4016e-07
1.46102e-07
1.16554e-06
1.27636e-07
3.03756e-08
1.27165e-07
2.95762e-08
4.38272e-07
1.19463e-06
1.49092e-07
9.4821e-07
4.39882e-07
1.16809e-06
1.49506e-07
1.26572e-07
2.88452e-08
2.93962e-08
1.27267e-07
4.38535e-07
9.46631e-07
1.45764e-07
1.16351e-06
1.45389e-07
1.19533e-06
4.33858e-07
1.26947e-07
2.96101e-08
3.04081e-08
1.26877e-07
4.39275e-07
9.4959e-07
1.16457e-06
1.47824e-07
1.19818e-06
1.48931e-07
4.36656e-07
1.31222e-07
2.99747e-08
1.31055e-07
2.95447e-08
4.44213e-07
1.19501e-06
1.44584e-07
9.43824e-07
4.46841e-07
1.16654e-06
1.4582e-07
1.31041e-07
2.92983e-08
1.30232e-07
2.88236e-08
4.48035e-07
9.52609e-07
1.48554e-07
1.16453e-06
1.4835e-07
1.19961e-06
4.45775e-07
1.30688e-07
2.96221e-08
3.02867e-08
1.30887e-07
4.46829e-07
9.43549e-07
1.16478e-06
1.46118e-07
1.19652e-06
1.45353e-07
4.42608e-07
1.30002e-07
2.89919e-08
2.93697e-08
1.30686e-07
7.0896e-08
7.22295e-08
9.36078e-07
6.87619e-08
7.09236e-08
1.37026e-08
1.36285e-08
1.34381e-08
1.35304e-08
9.39026e-07
6.86305e-08
7.13278e-08
7.00765e-08
7.23825e-08
1.36982e-08
1.37207e-08
4.73649e-07
1.2178e-06
1.5113e-07
9.60602e-07
4.75055e-07
1.1908e-06
1.5092e-07
1.37572e-07
3.07227e-08
1.37792e-07
3.01997e-08
1.3716e-07
3.05233e-08
1.37301e-07
2.98688e-08
4.75457e-07
9.69511e-07
1.18839e-06
1.52296e-07
1.22319e-06
1.52512e-07
4.74314e-07
4.74279e-07
9.63092e-07
1.18701e-06
1.50458e-07
1.22115e-06
1.50684e-07
4.73793e-07
1.3783e-07
3.03037e-08
3.05265e-08
1.3679e-07
1.36886e-07
2.94966e-08
3.01065e-08
1.36284e-07
1.31308e-08
1.30821e-08
1.3418e-08
1.33126e-08
9.32341e-07
6.70142e-08
6.78745e-08
6.77257e-08
6.99927e-08
1.30711e-08
1.30773e-08
1.32602e-08
1.3316e-08
1.36461e-08
1.35457e-08
1.31309e-08
1.30673e-08
7.18557e-08
6.93888e-08
9.37373e-07
6.97934e-08
6.68222e-08
1.35684e-08
1.36055e-08
1.31e-08
1.31217e-08
9.19471e-07
7.03356e-08
6.77383e-08