/*--------------------------------*- C++ -*----------------------------------*\
| =========                 |                                                 |
| \\      /  F ield         | OpenFOAM: The Open Source CFD Toolbox           |
|  \\    /   O peration     | Version:  2206                                  |
|   \\  /    A nd           | Website:  www.openfoam.com                      |
|    \\/     M anipulation  |                                                 |
\*---------------------------------------------------------------------------*/
FoamFile
{
    version     2.0;
    format      ascii;
    arch        "LSB;label=32;scalar=64";
    class       volScalarField;
    location    "40";
    object      omega;
}
// * * * * * * * * * * * * * * * * * * * * * * * * * * * * * * * * * * * * * //

dimensions      [0 0 -1 0 0 0 0];

internalField   nonuniform List<scalar> 
66940
(
17.7437
21.8356
21.5601
23.9705
17.7529
21.9404
21.6107
24.2237
17.7416
22.0054
21.6507
24.1961
17.7242
21.9963
21.7358
24.1882
17.6962
21.9668
21.7442
24.1533
17.6632
21.9634
21.7415
24.2167
17.6421
21.9618
21.6854
24.2678
17.6411
21.9934
21.6705
24.3463
17.6379
21.9876
21.6721
24.2585
17.6406
21.9878
21.664
24.1871
17.6476
21.837
21.4131
24.0939
18.6304
22.6906
22.425
27.0456
24.0076
21.6756
21.4842
23.8421
21.8581
21.7684
21.7342
21.797
23.8626
21.4938
21.5742
23.8517
23.8027
24.026
21.5374
21.4045
21.7168
21.6729
23.5086
23.8447
21.5516
21.4521
21.9355
21.9197
21.552
21.6615
21.9072
23.4142
23.8947
21.4368
21.5253
21.6198
24.1181
23.8157
24.0638
21.5228
21.3731
21.7842
21.7243
23.4165
23.9875
21.7041
21.7663
22.0035
21.9765
21.7747
21.9155
22.1025
23.4517
23.9916
21.3281
21.5567
21.7499
24.0927
23.8271
24.0292
21.4942
21.4112
21.7934
21.7975
23.7658
24.0097
21.6258
21.8098
22.0171
22.0156
21.9766
21.8468
22.178
23.8008
23.973
21.6357
21.6678
21.7261
24.0862
23.5613
24.1008
21.579
21.6679
21.7567
21.8245
23.8332
24.0009
21.8882
21.9004
22.0758
22.0127
22.0075
21.6843
22.1086
23.5206
24.0335
21.5447
21.6701
21.7173
24.0513
23.668
24.0308
21.439
21.5573
21.8612
21.7789
23.5547
24.0553
21.7849
21.8075
21.9823
21.9728
21.7071
21.6736
22.1107
23.51
24.0393
21.5096
21.4916
21.7483
24.131
23.6824
24.0476
21.4924
21.3973
21.7787
21.8067
23.8635
24.0456
21.7491
21.8346
21.9606
21.9846
21.7388
21.8807
22.098
23.8513
23.9245
21.434
21.6236
21.8472
24.1479
23.843
24.0545
21.3675
21.4532
21.806
21.8171
23.7143
24.0284
21.6103
21.7712
22.0518
21.982
21.9589
21.7105
22.0699
23.571
23.9437
21.6641
21.5867
21.7673
24.3062
23.6867
24.0298
21.6775
21.6726
21.7784
21.7805
23.7937
24.1061
21.7631
21.7208
22.0091
21.9711
21.8802
21.9259
22.0509
23.6535
23.8933
21.5621
21.594
21.7315
23.9328
23.7153
24.0717
21.6776
21.5347
21.7886
21.7099
23.8715
23.982
21.8011
21.7409
22.0126
21.9247
21.6462
21.7279
22.0585
23.4954
24.0421
21.5667
21.584
21.7052
24.1199
23.6248
24.0434
21.6
21.556
21.7601
21.7037
23.6476
23.918
21.8909
21.735
21.9156
21.5898
21.9311
21.8943
22.0267
23.5399
23.8749
21.6119
21.557
21.6795
24.0487
23.8005
24.8206
21.7088
21.5361
21.676
21.652
23.5531
25.092
21.6112
21.5923
21.653
21.5206
21.5918
21.7009
21.7288
23.686
24.6914
21.5499
21.5859
21.6261
24.996
26.4683
22.3811
22.465
26.9314
22.3815
22.3153
18.6401
18.5555
18.5847
22.4006
26.4679
22.355
413.218
17.7604
17.6763
17.6634
17.656
39.7496
21.7731
95.1713
19.5122
23.9425
167.98
165.297
101.247
286.795
100.987
287.76
413.277
413.815
106.551
291.335
106.971
290.8
17.7449
17.704
17.7194
17.7719
17.7339
17.6956
17.7177
40.3989
96.088
19.5267
21.5141
40.3825
96.2997
19.5086
414.966
415.404
38.8517
19.3606
92.9469
21.2863
38.363
19.3634
93.383
169.568
165.588
24.0424
169.114
165.82
102.166
288.644
101.987
287.963
413.449
413.521
106.905
291.381
107.19
290.803
17.7985
17.7659
17.7843
17.7833
17.7633
17.7145
17.7572
40.5112
96.545
19.5802
21.7918
40.3722
96.5465
19.4951
415.175
415.508
38.7963
19.3938
93.6538
21.4023
38.7879
19.344
93.5625
170.106
166.428
24.1939
169.233
166.315
102.15
288.432
102.354
288.268
413.97
413.668
107.168
291.289
107.413
290.986
17.8107
17.7859
17.8048
17.75
17.7446
17.6962
17.7503
40.6534
97.1672
19.6458
21.8202
40.881
96.5404
19.5629
415.252
415.345
38.7752
19.3715
93.9491
21.3468
38.7898
19.274
93.4468
169.961
167.626
24.1951
169.097
166.826
101.576
288.242
102.286
288.347
413.93
413.89
107.039
291.43
107.15
290.81
17.7954
17.7365
17.7749
17.7233
17.6891
17.656
17.7083
40.9547
97.1534
19.6323
21.8398
40.9555
96.9156
19.5691
415.184
415.31
38.9116
19.3868
94.1147
21.416
39.1079
19.3494
93.9861
169.998
167.49
24.1673
168.687
166.618
101.742
288.42
102.313
288.287
413.431
413.713
107.564
291.664
108.002
291.13
17.7157
17.7115
17.7232
17.6925
17.6753
17.6374
17.687
40.7764
96.7966
19.5957
21.8705
40.8826
96.5511
19.536
415.04
415.421
38.8284
19.258
94.568
21.3232
39.2947
19.331
94.0042
169.797
165.912
24.1869
168.933
166.558
101.988
289.101
101.948
288.557
413.903
413.823
107.448
292.354
108.402
291.41
17.7138
17.6996
17.7263
17.6645
17.6519
17.6522
17.641
41.0575
96.2642
19.585
21.7024
41.2501
96.5794
19.5214
415.125
415.434
38.7583
19.3377
94.2783
21.5699
39.3547
19.2531
94.2437
169.11
166.89
24.1837
168.914
166.462
102.218
288.316
102.453
288.085
413.455
413.83
107.243
292.496
108.239
291.024
17.6635
17.6199
17.6688
17.6696
17.6095
17.577
17.6098
40.6988
96.743
19.554
21.7623
41.3388
96.3077
19.5158
415.09
415.21
39.044
19.2567
94.2619
21.4439
39.2538
19.2761
93.4995
168.927
167.691
24.281
168.824
166.447
102.041
289.657
102.391
288.732
413.715
413.921
106.443
291.452
107.298
291.281
17.6256
17.6044
17.6181
17.66
17.587
17.5513
17.6087
40.8661
96.5361
19.5596
21.8479
41.009
96.5596
19.4587
415.455
415.404
38.9023
19.3118
94.2579
21.4273
38.8799
19.2143
94.1935
169.226
167.682
24.1946
168.819
166.638
101.307
288.908
101.701
288.346
413.413
413.438
106.115
291.267
106.383
290.6
17.5903
17.5926
17.6181
17.6804
17.5719
17.5478
17.6094
41.1651
96.7418
19.4708
21.5276
41.2952
96.125
19.5373
415.222
415.294
38.9838
19.3088
94.4617
21.4001
39.0217
19.2657
94.4906
169.83
167.309
24.1777
168.716
166.679
101.64
289.029
101.79
287.452
413.576
412.844
105.676
292.271
106.161
290.585
17.6049
17.5686
17.6667
17.6469
17.5737
17.5382
17.5746
40.7784
96.7376
19.5227
21.8223
41.1812
96.8459
19.4598
414.793
414.311
38.9656
19.312
94.7107
21.4386
39.1474
19.2797
94.5429
169.506
166.541
24.1102
169.202
166.375
106.933
288.822
104.288
284.804
411.467
406.07
106.004
290.528
105.346
285.064
17.6308
17.6279
17.6142
18.4524
18.6211
18.4125
18.5776
41.9264
95.1065
19.5051
21.6925
40.626
97.3565
19.5839
412.437
406.519
40.7307
19.2351
95.5107
21.8012
37.6381
19.601
97.2779
169.35
167.073
24.2363
167.438
167.654
121.59
1711.56
166.737
367.794
1577.66
550.132
121.613
1711.57
167.67
369.951
18.4234
17.8754
17.8543
19.322
17.487
18.7628
18.6918
50.6606
268.627
20.1392
21.8361
53.0387
219.878
20.414
1579.26
550.278
50.3128
20.1853
268.445
21.7863
53.1697
20.3763
219.478
333.74
338.764
24.8522
341.17
340.29
413.221
414.358
415.16
415.259
24.0356
164.975
167.949
167.056
167.964
288.581
21.6655
91.1925
100.762
285.387
287.982
98.4281
99.8351
288.292
286.104
100.295
37.9669
21.4188
92.1295
19.3669
92.7402
19.3364
37.6972
37.8543
21.3467
93.0314
19.2953
92.2564
19.3274
37.6707
23.8461
167.016
166.456
414.684
412.933
413.042
23.6836
164.863
167.547
162.003
158.221
414.695
414.058
105.695
287.709
291.202
102.957
40.3462
21.7471
95.5466
19.4748
95.7585
19.431
40.6135
104.724
289.986
290.992
105.764
39.9594
21.6548
19.4018
95.64
19.3991
96.3968
40.4291
104.219
289.34
39.7266
21.8606
19.4533
95.324
103.954
289.609
38.6971
21.452
95.0877
19.4622
91.387
19.459
39.9663
97.9378
289.564
284.94
105.932
38.267
21.7422
19.3987
95.9248
19.3996
92.4007
40.0346
99.5097
289.984
287.019
104.855
414.52
415.52
23.8733
167.358
164.816
168.07
165.361
412.946
412.828
37.7741
21.4847
19.3726
88.8249
19.3301
93.2857
36.8671
38.2124
21.3241
19.3535
92.2669
19.3447
94.5191
38.6402
101.358
286.497
287.234
101.902
103.56
287.905
287.09
101.653
414.509
412.847
23.6486
164.875
164.171
164.537
157.008
413.514
413.278
412.766
412.078
411.155
413.251
413.403
415.419
156.767
159.797
23.9994
161.865
168.486
413.83
411.744
415.315
414.213
23.8225
166.295
168.03
157.275
159.622
100.4
285.109
95.3988
288.363
38.3038
86.3748
19.3647
21.5984
36.08
93.4115
19.328
38.1122
88.9093
19.3574
21.3819
37.1588
93.1645
19.3729
99.2235
288.083
286.162
97.5482
97.1432
287.943
285.705
101.44
36.4385
21.6205
93.5672
19.4032
87.0257
19.4021
38.4843
37.335
21.5047
93.8368
19.3842
90.6945
19.365
38.6641
157.488
163.471
23.8341
166.319
166.799
413.336
414.903
412.874
412.879
23.5505
165.963
166.785
157.822
161.867
414.736
414.241
40.807
89.414
19.502
21.8834
39.4194
96.6412
19.5211
105.991
286.746
97.6731
290.945
40.74
19.4297
89.5212
21.8039
39.3049
19.4157
95.6806
104.218
290.895
284.82
106.32
40.1116
21.734
95.6787
19.5977
94.4241
19.5086
40.8071
99.1355
290.442
286.471
106.814
38.7656
21.6094
19.5597
95.8599
19.5298
93.5675
41.1744
105.014
285.388
103.187
290.319
40.1408
19.4113
91.8761
21.7005
38.7527
19.4324
96.3329
104.569
286.919
98.9142
290.636
39.4975
21.8303
95.7152
19.5464
94.3514
19.5327
39.1305
98.2463
289.922
285.659
105.965
39.2874
21.7656
19.5556
95.7963
19.5012
91.614
40.3213
100.993
290.877
283.825
105.137
161.361
156.974
23.9076
167.37
165.684
411.342
413.493
414.808
414.645
23.7227
166.919
164.732
160.785
161.957
412.97
412.287
38.5138
19.3357
85.4418
21.5153
37.3995
19.314
93.6229
101.473
283.774
98.043
287.937
101.373
285.411
98.3009
287.643
36.9284
21.2644
19.383
92.808
19.3718
91.5153
37.5215
37.6067
21.5264
19.392
92.9357
19.397
91.5756
38.7172
98.7103
287.65
283.753
101.305
95.2409
287.699
285.785
102.261
415.002
415.627
411.413
412.817
23.752
165.419
165.131
162.983
157.51
413.786
414.289
412.48
413.831
412.654
413.396
413.841
415.094
163.272
159.357
24.026
165.146
168.275
413.583
412.552
415.217
413.525
23.6552
165.19
167.271
162.782
165.284
101.955
280.518
94.8153
288.417
38.7535
91.7081
19.297
21.6419
36.629
93.2919
19.3814
38.6765
86.9872
19.3475
21.6906
37.1911
94.187
19.3364
99.2796
287.389
283.283
100.367
99.4482
288.368
281.166
101.565
38.0542
21.6817
93.4193
19.3404
91.3079
19.3895
38.6627
36.9408
21.6003
93.749
19.393
87.4343
19.3337
39.0373
157.499
157.898
23.8358
166.093
167.605
413.98
415.188
412.898
411.934
23.3573
165.927
167.58
157.547
158.702
414.991
412.923
40.9089
89.5923
19.4984
21.5609
40.1196
96.4777
19.6051
106.923
286.172
99.5351
290.246
40.9463
19.5169
91.0354
21.8599
40.4223
19.5571
96.0201
104.476
290.173
287.206
106.472
39.0949
21.9287
95.4361
19.622
94.134
19.6178
40.9884
100.475
290.836
283.146
106.459
39.106
21.9045
19.5128
96.1165
19.5267
88.341
41.3757
106.005
286.227
98.4082
290.359
40.2049
19.5418
92.0524
21.9206
38.9441
19.5687
96.2562
105.453
284.463
102.993
291.576
39.0484
21.8631
96.8051
19.5602
89.9117
19.6053
39.6416
98.6516
291.29
286.884
106.511
38.9919
21.9999
19.6179
97.0696
19.6047
90.7665
40.6663
103.585
291.062
288.639
105.814
162.879
158.798
23.8737
168.033
164.931
411.532
413.313
415.398
414.438
23.674
167.581
164.494
164.732
158.523
413.127
412.117
38.7318
19.3474
86.9853
21.6401
36.8297
19.3605
93.9741
101.086
282.096
97.8488
287.986
101.105
282.061
99.8318
287.823
36.7256
21.4958
19.3543
93.3631
19.3505
91.1702
38.5095
36.6837
21.4897
19.3765
93.8194
19.3735
87.3543
38.8798
94.4557
287.326
282.725
101.795
99.1975
288.233
285.09
101.256
415.23
415.949
413.431
412.859
23.8795
169.567
163.055
161.67
163.479
414.767
414.914
412.516
413.915
412.506
413.418
414.362
415.302
162.871
164.954
24.0928
164.917
167.373
413.697
410.995
415.315
413.699
23.8809
165.636
167.289
156.671
161.981
101.618
285.819
99.6243
287.898
39.0173
88.8197
19.3795
21.7908
36.9489
93.5505
19.3897
39.0186
87.1936
19.3667
21.7237
37.1569
94.1307
19.3834
95.4783
287.105
284.631
97.9784
99.9465
288.151
281.569
101.82
38.2865
21.6888
93.0685
19.3324
88.6233
19.3964
38.6503
38.4981
21.5366
93.0098
19.3286
91.8913
19.3738
38.9956
163.074
163.617
23.9625
165.914
167.75
414.548
415.421
413.75
412.183
23.8157
165.623
167.995
163.912
164.062
415.023
414.959
40.958
93.9098
19.5264
21.9477
40.2939
95.9302
19.5532
106.248
284.535
101.484
290.577
41.2316
19.5634
93.4913
21.7337
40.7126
19.5268
96.0441
105.169
290.824
286.404
104.78
39.6926
21.736
96.0226
19.6168
91.9809
19.6033
40.8106
102.041
290.998
287.708
106.61
39.2141
21.7202
19.6232
96.8106
19.6329
91.6825
41.5986
105.65
289.321
103.86
291.504
40.6238
19.5589
90.6118
21.916
39.5023
19.5819
97.9113
105.743
288.287
103.904
291.517
39.445
21.7529
93.1818
19.6119
91.1649
19.5444
40.6462
99.0096
290.358
287.553
106.826
39.2813
21.89
19.6631
97.3642
19.5749
91.1543
40.7725
99.3898
290.715
289.322
103.564
160.029
160.352
23.9493
167.311
165.114
412.186
413.346
415.255
413.199
23.7571
166.645
165.894
161.108
161.791
413.37
412.248
38.8838
19.3
87.4218
21.5008
38.2617
19.3911
93.5678
101.96
282.967
94.578
287.413
101.488
285.893
99.4847
288.67
37.6125
21.6427
19.3253
93.2612
19.3634
87.4845
37.9793
37.4369
21.5871
19.3882
94.5479
19.3818
89.3227
38.8675
99.2788
287.955
284.752
100.963
95.8234
288.107
281.874
101.745
414.113
415.71
413.848
413.545
23.8744
169.607
162.527
161.804
160.682
415.084
414.828
413.464
413.352
411.566
413.498
414.154
415.252
157.267
161.968
24.0847
166.094
168.273
413.801
412.161
415.372
413.498
23.582
165.834
167.345
157.395
161.659
101.514
284.623
93.7006
288.518
38.4103
88.8454
19.3645
21.6709
37.4399
93.6469
19.367
38.5535
87.2108
19.3256
21.4865
37.6531
94.091
19.3659
97.7356
287.481
284.77
97.6769
99.2776
287.807
285.475
101.452
37.3668
21.6761
92.9551
19.3618
88.6668
19.354
38.4659
37.7759
21.7957
93.2277
19.3117
88.0724
19.3716
38.8003
163.341
164.191
23.9869
165.488
168.027
413.458
414.901
413.22
412.993
23.7757
166.06
167.18
157.842
164.297
414.952
414.082
41.3104
93.2471
19.5336
21.7104
39.676
97.001
19.5738
106.876
284.294
103.533
290.211
41.5288
19.5263
93.1993
21.7243
40.9514
19.5081
95.2991
102.111
290.239
286.206
103.98
40.4512
22.0345
96.5262
19.604
95.1831
19.5856
41.2241
105.006
290.124
286.73
106.565
40.5879
21.9154
19.6175
96.393
19.6307
88.9611
41.3625
106.071
286.023
103.509
290.6
40.8136
19.6397
94.4994
22.056
39.7739
19.5683
96.3048
106.918
285.13
98.5587
290.932
40.0455
21.7436
92.8614
19.5897
94.3771
19.5881
39.852
100.795
290.146
286.08
105.859
39.7495
22.0351
19.6455
96.9802
19.6638
91.1022
40.7979
104.294
290.568
286.853
106.239
160.941
161.075
24.0005
167.355
164.848
412.447
413.493
415.036
414.514
23.7742
166.916
165.842
160.727
156.078
413.428
411.693
38.6287
19.3317
92.0905
21.6164
37.4769
19.3295
93.9555
101.057
285.332
96.1856
287.813
101.412
284.012
98.6171
287.6
37.0089
21.7044
19.3043
92.9731
19.3525
87.4966
39.1978
37.3925
21.6284
19.3556
93.6478
19.3581
89.9144
38.7421
96.7709
288.026
281.546
101.157
95.3247
288.133
281.781
101.489
413.79
415.339
411.826
412.969
23.637
169.348
162.879
161.559
159.138
415.04
414.337
413.479
413.935
411.834
413.544
413.664
415.375
163.152
163.297
24.1606
165.747
167.946
413.448
412.552
415.637
413.702
23.7287
164.854
167.823
163.371
163.958
101.082
283.382
99.5949
287.558
38.7193
88.8562
19.3231
21.749
36.5069
93.7583
19.3386
38.7888
88.9518
19.3538
21.6526
38.1646
93.6334
19.3602
95.3323
286.116
283.921
100.695
94.8187
287.597
283.536
102.271
38.1288
21.6132
93.1721
19.3544
89.4582
19.3299
38.7141
37.8461
21.6828
93.865
19.3673
86.5772
19.3596
39.0111
158.493
161.566
24.0506
166.45
166.703
413.446
415.016
413.115
411.955
23.5221
165.981
167.048
162.998
161.938
414.853
413.615
41.2719
90.2865
19.5421
21.8753
40.6738
97.0452
19.5209
107.508
283.726
99.4965
290.597
41.3212
19.5549
89.8561
21.695
40.3344
19.5647
96.8237
104.471
289.113
288.564
104.387
39.2804
21.8891
96.4969
19.5993
95.0253
19.514
41.3993
104.358
290.622
286.23
106.838
40.0459
21.7916
19.5767
96.3484
19.5879
89.8957
41.2324
106.555
287.2
97.5265
290.557
40.9013
19.5072
90.89
22.0379
39.6924
19.6267
95.3952
106.118
286.281
103.471
290.381
38.748
21.739
95.3299
19.5715
89.4912
19.5568
41.2759
103.386
290.388
288.448
106.144
39.8232
21.8243
19.5937
96.9776
19.5562
95.4411
41.0015
100.96
291.078
283.395
106.611
161.995
162.194
24.0491
167.008
165.246
412.336
413.375
414.701
413.687
23.8697
167.409
165.211
163.304
160.324
413.323
411.733
38.9272
19.3206
89.069
21.6254
37.6825
19.3445
94.4982
101.597
282.775
97.5475
288.282
101.829
282.816
97.5587
288.442
37.1023
21.6164
19.3243
93.3086
19.3253
91.8677
39.3322
37.8036
21.6517
19.3626
93.9502
19.3495
90.8868
38.9319
98.3431
288.252
284.772
101.765
98.4064
288.331
280.891
101.736
413.714
414.897
412.744
413.668
23.9658
167.875
161.837
160.519
163.498
414.746
415.506
413.121
411.582
411.779
413.612
413.743
415.332
161.645
158.63
23.9816
165.401
168.43
413.626
412.666
415.47
414.429
23.7562
165.283
167.845
155.878
165.683
101.686
283.117
99.9495
288.068
39.0038
89.4673
19.2485
21.781
37.0122
93.1183
19.3467
38.8309
91.0837
19.3049
21.6954
37.4895
93.575
19.3328
99.9125
287.374
285.046
98.1416
99.5043
287.904
284.199
101.437
38.1441
21.6948
92.6297
19.3472
88.7345
19.3463
38.8075
37.07
21.5486
93.1019
19.2821
89.0099
19.3331
38.0905
160.262
161.445
24.0221
165.748
167.427
413.751
414.244
413.461
411.903
23.6647
164.909
167.542
159.196
162.614
415.342
414.5
41.1223
89.2352
19.5483
21.8616
40.6691
97.1344
19.5688
106.388
284.194
102.311
290.114
40.963
19.564
93.1591
21.8872
39.7051
19.5733
95.6699
102.045
292.337
285.259
104.273
39.8903
21.866
96.4742
19.5895
94.5621
19.5692
41.3272
103.056
290.971
286.088
106.454
39.7191
21.9221
19.5741
95.3325
19.5632
91.3551
41.3985
106.714
283.993
98.376
291.175
40.7836
19.5187
94.8189
22.0443
39.3527
19.4615
96.5893
106.812
288.152
98.408
290.864
39.0444
21.613
96.1657
19.4877
94.7635
19.4886
41.381
99.5266
290.489
285.094
107.104
39.4148
21.8069
19.5877
97.0534
19.5735
90.4642
40.8302
104.418
291.365
288.961
106.116
164.576
161.326
23.9647
167.707
165.502
412.053
413.49
415.222
413.55
23.5705
167.368
164.844
163.509
161.717
413.157
412.635
38.8829
19.3092
91.3125
21.7282
37.6435
19.3395
93.6742
101.96
285.389
95.1997
287.752
101.818
281.48
98.5637
288.673
37.5194
21.6055
19.2459
93.6823
19.2695
91.9055
38.1171
37.7652
21.604
19.3605
94.0863
19.3082
88.5844
38.8693
97.5788
287.545
283.047
101.712
99.8357
288.387
282.688
101.592
414.277
415.32
412.796
413.958
24.0114
167.652
167.224
166.069
159.172
415.12
414.717
413.571
412.498
411.682
413.365
414.617
415.503
162.345
165.52
24.0407
164.872
168.329
413.635
412.467
415.486
414.348
23.8793
165.224
167.553
162.789
162.882
101.757
280.92
93.8951
288.393
38.8007
88.7172
19.2529
21.6745
37.9339
92.8366
19.3582
38.8969
89.8981
19.3252
21.7366
38.7361
93.3444
19.3364
100.018
286.045
283.666
98.0072
99.3576
288.206
281.151
100.961
38.168
21.5437
94.1126
19.3509
87.8987
19.3391
38.5345
38.4815
21.5785
93.568
19.3399
90.885
19.3279
38.9738
160.024
164.151
24.0204
165.698
167.42
414.909
415.186
412.656
413.215
23.7446
165.84
167.145
160.861
162.158
414.915
413.853
41.2405
91.9531
19.5016
21.95
40.2455
97.071
19.4833
106.731
283.802
103.256
291.15
41.4258
19.4964
90.9299
21.6927
40.6495
19.4565
96.0599
102.212
290.306
284.057
103.051
39.311
21.7725
95.6256
19.5179
94.8048
19.5897
41.293
101.981
291.01
283.918
107.64
39.8048
21.6769
19.5682
95.8646
19.5661
92.6803
40.9363
105.941
287.395
100.182
290.374
40.7256
19.5121
94.3588
21.7973
39.5868
19.5417
96.1977
105.698
286.563
103.964
290.939
38.6981
21.7278
95.7317
19.4829
90.0624
19.4912
40.7453
99.3357
290.52
284.231
106.457
39.6066
21.9541
19.5539
95.8129
19.4752
93.6608
40.8133
98.9918
290.166
285.66
106.519
159.626
162.474
23.8952
168.52
164.807
412.47
413.502
415.41
414.407
23.5711
168.03
164.427
166.097
162.511
413.234
411.93
38.8839
19.2651
90.8189
21.714
37.8686
19.3616
93.8091
101.062
284.306
96.3401
287.959
102.283
283.768
95.0084
287.86
36.936
21.529
19.3053
90.2984
19.2878
89.2582
38.6626
38.2839
21.6947
19.3706
93.5456
19.3056
89.9073
38.8935
97.699
287.599
285.33
101.24
99.9399
288.583
285.222
101.697
414.06
414.257
412.116
413.648
23.7478
168.113
167.227
166.437
158.818
415.125
415.293
413.427
412.706
411.818
413.708
414.434
415.64
158.501
162.051
24.0347
166.52
168.514
413.538
412.033
415.418
414.396
23.6457
165.389
167.558
162.523
162.681
101.178
282.05
98.2732
288.222
39.196
87.901
19.2193
21.555
37.4139
94.52
19.322
38.8743
90.3728
19.2719
21.4795
38.5237
93.4019
19.298
99.0209
284.75
286.379
100.649
97.8151
287.518
284.956
101.318
38.4186
21.5166
93.2662
19.3507
88.4161
19.2689
38.7222
38.3851
21.7273
93.5035
19.3168
87.1209
19.2935
38.8084
161.861
162.027
24.0225
165.857
167.02
413.511
415.206
413.371
412.918
23.5659
165.084
167.11
160.989
162.214
414.883
414.346
41.168
94.6604
19.5552
21.5771
39.604
97.1161
19.5698
105.87
288.297
101.481
290.468
41.2158
19.4474
91.9182
21.5231
40.7406
19.5746
96.1527
102.546
290.633
289.512
105.243
39.3146
21.9333
96.1608
19.5773
92.327
19.4988
41.1866
102.48
290.526
288.418
106.073
40.082
21.9018
19.5615
97.0468
19.5505
90.6488
40.9687
106.437
287.405
104.145
290.42
40.9813
19.4434
90.6898
21.737
40.0021
19.5678
95.9483
106.536
285.878
99.0717
290.085
39.5016
21.905
96.2246
19.4944
94.2235
19.5465
41.0542
102.956
290.464
287.756
106.153
40.1961
21.9573
19.5697
95.5566
19.5482
90.7792
40.9057
103.908
290.092
285.937
105.737
163.822
157.495
23.9384
167.586
165.737
412.087
413.108
415.1
414.035
23.541
168.06
165.269
158.214
162.12
413.248
412.069
38.9098
19.3237
89.6335
21.6358
38.1815
19.2861
93.5653
101.886
285.726
93.5649
287.825
102.411
285.016
95.5244
288.935
38.0836
21.3642
19.3064
93.4961
19.2851
90.3877
37.902
37.1177
21.6726
19.3498
93.779
19.3149
90.9419
39.3513
95.0452
287.822
286.049
102.351
95.5949
288.209
286.364
102.839
413.83
414.565
412.124
413.797
23.947
169.395
162.607
161.688
164.087
415.081
415.644
413.074
413.192
412.394
413.317
413.516
415.201
159.852
162.538
24.0974
165.022
167.597
413.225
411.884
415.063
413.888
23.5451
165.522
167.731
160.535
162.759
101.022
283.232
94.8827
287.124
38.6873
88.965
19.2526
21.5
36.885
93.6056
19.2601
38.5706
91.0766
19.2611
21.615
38.2497
93.0281
19.2924
94.7677
288.058
282.687
100.538
97.4104
287.549
284.482
100.979
37.9376
21.7208
93.4181
19.3268
90.1973
19.3038
38.4995
36.8716
21.629
94.0742
19.3159
90.8773
19.296
38.8096
161.259
161.282
24.0034
165.889
167.58
413.87
414.87
412.409
410.718
23.7904
166.242
166.909
157.614
160.897
414.306
413.179
40.6865
91.9395
19.4568
21.7552
39.8048
96.511
19.587
104.96
284.045
100.722
290.9
40.4374
19.4571
94.3635
21.8202
39.7881
19.5019
95.9235
103.712
288.014
286.317
105.295
39.8829
21.7993
96.9664
19.5832
95.752
19.5663
40.5183
100.242
290.377
284.088
104.479
38.6012
21.8672
19.5207
96.1012
19.4978
94.1666
40.0632
106.434
288.393
102.142
290.352
40.7407
19.4337
90.9394
21.9608
39.2541
19.5681
96.1838
106.52
285.943
103.535
290.005
39.9382
21.857
92.9329
19.5679
90.6973
19.5422
41.1124
103.195
289.724
287.618
106.241
39.1475
21.8006
19.4965
95.6997
19.5573
90.8863
40.9411
103.118
290.12
286.536
106.868
164.666
160.126
24.0075
167.811
164.809
412.518
413.275
414.083
412.838
23.8325
168.294
165.531
158.483
161.131
413.124
412.933
39.4608
19.3023
87.192
21.4701
37.4833
19.3266
94.2875
102.184
286.33
96.0018
288.197
102.657
284.236
95.949
287.623
37.5295
21.3611
19.3192
93.8005
19.2313
92.5888
38.1027
37.9737
21.492
19.3455
94.1847
19.3243
87.5566
39.0597
97.4029
287.447
285.564
101.358
100.069
287.786
280.968
101.723
414.281
414.96
412.7
413.346
23.9214
168.236
165.193
164.043
156.708
413.869
413.389
412.91
412.914
411.282
412.594
413.929
414.415
159.62
162.677
24.1071
165.995
167.711
410.551
411.799
412.416
412.788
23.8654
164.563
168.314
159.852
160.67
101.096
285.325
97.7414
287.14
38.6782
91.3797
19.2637
21.5296
36.7316
93.3385
19.2976
38.7507
92.9346
19.2647
21.6237
36.8716
93.6288
19.2921
99.5564
285.537
282.051
96.9087
95.3203
286.307
283.919
102.51
37.9444
21.4953
92.8061
19.3158
91.609
19.2916
37.9588
38.1461
21.6513
93.3631
19.2145
86.9639
19.2592
39.0974
163.05
162.707
23.9403
166.193
167.746
414.11
414.465
409.901
410.843
23.6267
164.617
166.252
159.491
161.431
411.045
412.959
40.3475
93.5878
19.4891
21.9105
38.5549
95.7946
19.5144
104.384
283.959
100.154
285.876
40.3209
19.436
91.7168
21.5812
38.6625
19.4756
96.7365
103.478
288.682
284.169
101.108
39.4595
21.8729
92.1585
19.5108
91.816
19.5028
40.0593
97.887
286.175
289.579
98.7237
38.185
21.888
19.477
96.2647
19.4691
95.4772
40.1133
106.404
286.35
98.5503
289.323
40.5419
19.5317
92.4826
21.7289
39.4659
19.5503
95.9984
106.074
287.896
99.293
290.082
39.5059
21.648
91.6704
19.5431
94.298
19.5316
39.6064
103.054
285.433
286.68
105.696
38.4724
22.011
19.536
95.2568
19.5314
91.2233
40.59
100.83
285.65
288.263
104.938
160.039
163.111
24.0079
168.949
165.886
412.925
412.657
412.203
413.588
23.5079
167.109
164.894
165.158
163.735
410.232
412.455
39.1537
19.287
91.5734
21.4629
37.0165
19.314
93.5668
101.905
284.835
97.703
287.458
102.061
281.714
97.6352
284.357
37.8157
21.5128
19.1962
90.2657
19.2482
88.1029
37.6844
38.5177
21.5793
19.2066
93.8247
19.2658
87.3977
38.0389
96.799
286.37
282.753
102.024
98.9588
287.041
288.145
103.527
415.077
413.64
411.559
412.652
23.7341
168.604
165.233
161.332
164.539
411.387
413.882
410.129
412.849
410.554
406.802
412.121
407.016
160.238
165.265
24.1083
165.951
168.793
604.603
409.555
604.643
410.208
24.0694
184.484
191.329
162.765
167.561
105.295
284.898
97.5671
284.585
40.7076
92.3954
19.2921
21.437
37.8387
96.6185
19.6047
40.1198
88.2026
19.2209
21.2706
37.7983
96.9027
19.6214
105.248
986.142
279.973
119.981
98.7534
986.7
280.149
111.278
38.6887
22.3216
244.14
20.817
93.683
19.5946
45.3083
38.8887
22.2186
244.532
20.842
94.7941
19.6072
43.9465
161.655
162.434
24.1223
167.509
167.307
410.926
405.56
604.098
410.481
24.1023
185.538
191.831
166.611
165.964
603.659
410.414
39.6518
94.1607
19.3999
21.3701
38.0845
96.6894
19.5366
106.637
286.728
103.567
285.029
40.6326
19.3775
90.66
21.3745
37.8701
19.5194
95.8011
101.626
986.398
280.516
121.413
39.8052
22.2079
245.016
20.7894
91.9964
19.5607
47.7573
103.522
986.601
280.465
112.808
40.4988
22.0296
20.7613
245.069
19.5358
91.4076
43.7832
107.09
289.716
102.937
285.38
40.9032
19.4216
88.3512
21.3579
39.3193
19.5712
97.2707
107.63
289.678
101.512
285.456
41.0896
22.1071
245.545
20.8621
91.6894
19.5921
45.881
103.021
986.734
281.161
112.713
40.2314
22.2842
20.8309
246.625
19.5794
96.1456
43.8949
106.605
986.826
281.066
112.842
162.046
163.216
23.9989
166.248
166.754
410.631
405.827
603.552
409.337
24.0996
189.653
189.092
163.828
166.024
603.768
410.52
41.2261
19.2873
92.1017
21.3529
39.4549
19.6445
96.9172
104.527
286.341
96.9461
284.607
106.218
283.439
103.428
285.047
40.3233
22.1108
20.8747
245.268
19.6172
92.2447
46.8652
40.6363
22.1855
20.921
245.688
19.6683
96.1462
46.4947
100.725
986.321
280.131
111.26
100.55
987.245
280.974
116.645
411.751
406.125
410.829
405.851
24.2588
196.963
182.073
166.657
163.833
604.33
410.942
605.574
410.523
1576.76
551.33
1576.42
550.608
333.321
331.76
24.8296
341.145
340.415
25.1245
309.054
307.835
121.826
1711.52
166.218
367.077
49.5233
266.234
20.0619
21.8646
51.2413
219.077
20.0681
50.3808
266.332
20.0531
21.8124
52.5137
218.511
20.4256
41.6866
22.6495
206.373
21.2873
42.3311
22.4433
205.874
20.8953
333.832
331.9
24.7023
339.893
341.095
1579.25
550.834
24.9848
309.219
309.793
49.8251
266.496
19.9639
21.8767
52.3449
218.845
20.4175
121.74
1711.58
167.916
367.505
50.1965
19.9633
265.962
21.7725
52.5392
19.9618
218.856
41.7707
22.6281
205.931
20.8834
42.0099
22.4115
21.0868
205.961
18.6053
17.8741
17.8018
19.2558
17.5313
18.7228
18.6521
18.3979
17.7403
17.804
19.2347
17.4277
18.6466
18.6309
18.5704
17.7989
17.8093
19.2443
17.5302
18.6569
18.6449
18.4289
20.1502
18.9564
19.0341
18.6529
20.0206
19.0759
18.9984
18.4062
20.0015
18.8525
18.9789
18.6008
20.0162
19.0074
18.8124
120.794
1711.28
169.306
368.121
50.612
19.9645
267.483
21.8326
52.6642
20.4098
220.249
120.914
1711.29
168.284
368.491
42.6458
22.6259
207.136
20.8698
42.7998
22.4082
20.8924
206.854
331.319
331.426
24.7503
340.713
340.508
1578.76
550.791
25.3818
309.054
310.067
50.9369
20.0927
268.329
21.8291
52.6449
20.5521
219.189
122.106
1711.36
169.893
367.763
122.846
1711.58
164.856
367.873
41.968
22.157
20.4195
206.76
42.4891
22.4713
20.8867
207.626
1576.07
551.268
1576.19
551.544
25.0736
310.615
311.144
518.502
517.381
112.128
365.129
112.314
363.612
517.607
518.429
112.006
361.907
112.035
363.155
115.308
364.078
115.2
364.01
517.977
518.079
112.935
363.892
113.49
364.116
518.382
518.511
414.755
418.401
418.304
222.587
300.41
60.8796
114.393
300.165
60.0219
113.883
326.027
96.2563
299.91
117.437
298.893
111.717
323.705
430.633
175.038
282.722
430.517
167.126
325.131
97.9431
300.712
117.796
323.128
295.367
113.404
430.659
174.998
282.81
173.722
430
411.872
412.213
329.633
101.499
122.92
304.572
117.117
300.951
325.381
433.455
179.227
288.069
433.249
171.779
328.818
104.048
122.396
304.718
328.907
119.028
301.958
432.706
179.304
286.501
178.107
433.03
413.334
413.937
223.453
417.58
418.36
418.971
417.178
220.322
114.608
61.4953
301.692
161.993
109.862
58.1265
295.976
113.426
59.5738
301.444
160.556
107.827
55.7838
297.426
218.929
418.892
418.66
220.316
418.398
417.074
112.285
301.632
168.043
61.6629
61.0169
301.362
112.544
106.921
300.254
159.954
59.5923
58.7941
296.357
110.737
326.252
97.407
300.746
118.358
297.154
112.677
323.625
431.082
176.139
281.053
430.625
167.82
325.78
99.3909
300.929
118.441
325.57
297.602
113.829
431.242
175.622
286.919
174.514
430.187
412.777
412.605
330.399
101.66
123.241
304.735
117.89
301.216
327.674
433.724
180.495
284.265
434.015
172.519
330.14
102.819
124.348
305.439
329.862
121.02
302.123
433.526
179.685
289.764
178.693
432.675
413.741
414.091
223.572
418.62
418.71
418.521
418.198
219.7
115.371
62.2058
302.086
166.602
113.835
60.6613
298.366
114.213
59.7855
301.22
161.268
112.928
58.6062
294.861
221.558
418.618
418.648
219.275
417.593
417.855
108.306
301.756
164.063
62.1573
59.4193
297.804
114.694
110.272
301.017
160.593
60.5377
57.7102
300.236
112.003