/*--------------------------------*- C++ -*----------------------------------*\
| =========                 |                                                 |
| \\      /  F ield         | OpenFOAM: The Open Source CFD Toolbox           |
|  \\    /   O peration     | Version:  2206                                  |
|   \\  /    A nd           | Website:  www.openfoam.com                      |
|    \\/     M anipulation  |                                                 |
\*---------------------------------------------------------------------------*/
FoamFile
{
    version     2.0;
    format      ascii;
    arch        "LSB;label=32;scalar=64";
    class       surfaceScalarField;
    location    "40";
    object      phi;
}
// * * * * * * * * * * * * * * * * * * * * * * * * * * * * * * * * * * * * * //

dimensions      [0 3 -1 0 0 0 0];

oriented        oriented;

internalField   nonuniform List<scalar> 
199822
(
-1.98613e-12
1.02131e-12
-1.11798e-07
-1.17658e-12
8.59587e-13
1.11799e-07
-1.07231e-07
-3.87316e-11
-2.33023e-12
5.98747e-13
1.07229e-07
2.88027e-11
3.92179e-11
-2.54718e-11
-5.24016e-11
5.18314e-11
5.41322e-11
-5.38035e-11
-1.08125e-07
-4.32891e-11
2.78763e-13
-1.26928e-12
1.08128e-07
1.69539e-11
4.36437e-11
-1.75503e-11
1.63677e-13
2.2108e-11
-4.44804e-13
-2.3508e-11
-2.61158e-08
-1.13264e-10
1.74956e-10
-7.43476e-11
1.58448e-10
2.597e-08
-1.36747e-12
7.48779e-13
-1.11799e-07
-3.87148e-13
7.88428e-13
1.11799e-07
-1.07228e-07
-3.83651e-11
-1.75698e-12
-8.44006e-13
1.07227e-07
2.89708e-11
3.96668e-11
-2.87149e-11
-5.25222e-11
5.16003e-11
5.394e-11
-5.15853e-11
-1.08125e-07
-4.29217e-11
-3.23994e-14
4.60905e-13
1.08125e-07
1.72091e-11
4.35642e-11
-1.76647e-11
6.66129e-13
2.23997e-11
-8.34552e-14
-2.31832e-11
-2.61151e-08
5.01016e-11
2.40534e-11
5.74131e-11
1.50161e-11
2.59685e-08
-4.95916e-13
-1.99685e-13
-1.11797e-07
2.04365e-13
5.26539e-13
1.11797e-07
-1.07224e-07
-3.80628e-11
-1.13828e-12
-5.34663e-13
1.07222e-07
2.90963e-11
4.00483e-11
-2.48787e-11
-5.27973e-11
5.10041e-11
5.34206e-11
-5.42887e-11
-1.08122e-07
-4.32922e-11
-3.2336e-13
-6.45232e-13
1.08122e-07
1.67108e-11
4.33702e-11
-1.79633e-11
1.35466e-12
2.27001e-11
3.61088e-13
-2.26424e-11
-2.61147e-08
-1.13763e-10
1.75525e-10
-7.53483e-11
1.59524e-10
2.59688e-08
-1.28576e-12
-1.63503e-12
-1.11795e-07
1.15229e-12
1.09911e-12
1.11796e-07
-1.07222e-07
-3.83874e-11
9.04427e-13
-9.73436e-13
1.07222e-07
2.86858e-11
3.97542e-11
-2.87733e-11
-5.29724e-11
5.07141e-11
5.31225e-11
-5.21212e-11
-1.08121e-07
-4.3601e-11
9.30766e-14
1.47748e-12
1.08121e-07
1.64061e-11
4.31745e-11
-1.80832e-11
1.04138e-12
2.22697e-11
-6.23453e-14
-2.29518e-11
-2.61145e-08
5.01212e-11
2.49223e-11
5.64015e-11
1.5247e-11
2.59678e-08
-4.12663e-12
-3.77583e-12
-1.11794e-07
3.30378e-12
3.27052e-12
1.11796e-07
-1.07222e-07
-3.86248e-11
2.4091e-12
1.45843e-12
1.07219e-07
2.84449e-11
3.93475e-11
-2.55987e-11
-5.32046e-11
5.07199e-11
5.30859e-11
-5.46084e-11
-1.08122e-07
-4.33556e-11
3.85767e-12
3.1724e-13
1.08121e-07
1.67756e-11
4.32657e-11
-1.7859e-11
3.86552e-13
2.18112e-11
-5.59504e-13
-2.35137e-11
-2.61147e-08
-1.13122e-10
1.75478e-10
-7.51375e-11
1.58847e-10
2.59687e-08
-1.10013e-11
-9.21525e-12
-1.11794e-07
9.01942e-12
9.70858e-12
1.11796e-07
-1.07225e-07
-3.87017e-11
7.95209e-12
6.49483e-13
1.07219e-07
2.8387e-11
3.91174e-11
-2.93662e-11
-5.3522e-11
5.06525e-11
5.30374e-11
-5.257e-11
-1.08126e-07
-4.31975e-11
9.98953e-12
1.34053e-12
1.0812e-07
1.68042e-11
4.31924e-11
-1.80518e-11
-2.04931e-13
2.13843e-11
-9.92489e-13
-2.40883e-11
-2.61152e-08
5.04221e-11
2.44068e-11
5.70206e-11
1.49613e-11
2.59684e-08
-2.24846e-11
-1.89833e-11
-1.11797e-07
2.08273e-11
2.28487e-11
1.11794e-07
-1.07229e-07
-3.81193e-11
1.71936e-11
-3.56117e-12
1.07217e-07
2.91587e-11
3.94837e-11
-2.54866e-11
-5.41276e-11
4.99715e-11
5.23536e-11
-5.54702e-11
-1.08132e-07
-4.26509e-11
2.3133e-11
-6.23117e-12
1.08121e-07
1.74774e-11
4.3465e-11
-1.79244e-11
-8.17678e-13
2.07403e-11
-1.70492e-12
-2.46247e-11
-2.61151e-08
-1.13621e-10
1.74864e-10
-7.48627e-11
1.59191e-10
2.59695e-08
-3.91619e-11
-3.3372e-11
-1.11803e-07
4.23761e-11
4.76958e-11
1.11786e-07
-1.07228e-07
-3.63482e-11
3.22226e-11
-2.85897e-11
1.07225e-07
3.19788e-11
4.12321e-11
-2.76401e-11
-5.3847e-11
4.78295e-11
4.99124e-11
-5.31743e-11
-1.08133e-07
-4.09971e-11
4.24014e-11
-3.06437e-11
1.08125e-07
2.01267e-11
4.49976e-11
-1.67999e-11
-6.58909e-13
1.85138e-11
-4.2827e-12
-2.46324e-11
-2.61131e-08
4.80914e-11
2.23758e-11
5.77056e-11
1.59687e-11
2.5969e-08
-5.77196e-11
-4.62733e-11
-1.11819e-07
7.15221e-11
8.6328e-11
1.11765e-07
-1.07206e-07
-3.30479e-11
4.27806e-11
-9.6186e-11
1.07255e-07
3.74036e-11
4.62445e-11
-1.95123e-11
-5.39022e-11
4.1257e-11
4.22701e-11
-5.65237e-11
-1.08112e-07
-3.76787e-11
6.69351e-11
-1.06005e-10
1.08153e-07
2.57267e-11
4.97171e-11
-1.23685e-11
-1.16548e-12
1.16489e-11
-1.21873e-11
-2.59171e-11
-2.6107e-08
-1.18763e-10
1.69944e-10
-7.32159e-11
1.60569e-10
2.59685e-08
-9.43766e-12
1.24115e-11
-1.1181e-07
1.83936e-11
5.45343e-11
1.11734e-07
-1.07108e-07
-2.74832e-11
-1.6886e-11
-2.49297e-10
1.07371e-07
4.46759e-11
6.07442e-11
-7.98183e-12
-5.82969e-11
2.84003e-11
2.63199e-11
-6.38411e-11
-1.08015e-07
-3.24e-11
2.59536e-11
-2.6443e-10
1.0826e-07
3.30782e-11
6.35991e-11
2.07393e-12
-6.59985e-12
-1.5732e-12
-2.89683e-11
-3.56446e-11
-2.60957e-08
3.89158e-11
1.34436e-11
6.02654e-11
1.87609e-11
2.59643e-08
-9.3824e-11
7.80124e-10
-1.11249e-07
-5.79915e-10
-8.2558e-10
1.11968e-07
-1.06661e-07
-1.00904e-11
-7.9193e-10
-5.1268e-10
1.07543e-07
6.34184e-11
1.91421e-10
9.90097e-11
4.50016e-11
4.37266e-11
1.34562e-11
-2.29294e-11
-1.07569e-07
-1.46475e-11
6.33218e-11
3.03534e-10
1.08204e-07
5.32195e-11
1.92444e-10
3.1881e-11
-3.40028e-10
-1.18441e-10
-5.1182e-10
-2.94031e-10
-2.60689e-08
-1.43291e-10
1.4535e-10
-5.67569e-11
1.74595e-10
2.5949e-08
6.69287e-10
7.60274e-10
-1.23903e-07
-5.62734e-09
-5.64694e-09
2.93099e-08
2.92714e-08
2.9419e-08
2.94217e-08
1.76335e-09
3.69459e-09
2.73006e-09
1.78634e-09
3.65982e-09
2.69321e-09
-2.63093e-08
-2.78403e-09
1.24549e-10
-3.05402e-09
1.24554e-09
3.07773e-08
-2.51537e-08
-7.60673e-10
-2.34855e-09
5.05994e-10
-2.61951e-09
3.03765e-08
-2.63258e-08
2.33227e-09
2.34162e-09
-2.54268e-09
-2.23643e-09
2.64309e-08
-3.59894e-11
-3.90019e-11
2.61023e-08
-2.59563e-08
-3.57119e-11
-3.53028e-11
1.09141e-07
1.46651e-12
-1.09141e-07
5.2766e-13
-3.54989e-11
-1.31572e-11
1.23592e-11
-2.3686e-11
-2.24062e-11
2.05689e-11
2.30324e-11
3.63123e-11
1.09167e-07
4.80061e-13
-1.09169e-07
1.9023e-12
-3.50957e-11
-1.36332e-11
1.34599e-11
-2.34776e-11
-2.19491e-11
2.06944e-11
2.34985e-11
-3.95244e-11
2.61032e-08
-2.59564e-08
-3.55148e-11
-3.53922e-11
1.0725e-07
-1.11473e-12
-1.07249e-07
3.27627e-13
-3.88649e-11
-2.88857e-11
2.84113e-11
5.36337e-11
-5.13211e-11
5.10733e-11
-5.25339e-11
2.96157e-11
1.08239e-07
3.56802e-15
-1.0824e-07
-1.74338e-13
-2.88758e-11
-2.58725e-11
2.89811e-11
3.42196e-11
-5.08063e-11
4.77209e-11
-3.39167e-11
-2.63581e-12
-1.07231e-07
-6.27495e-13
-3.87794e-11
-2.86576e-11
2.88227e-11
5.40016e-11
-5.1265e-11
-5.22837e-11
5.1693e-11
5.21053e-11
1.08202e-07
4.80356e-11
-1.08253e-07
-2.50946e-11
-2.70086e-11
-2.4817e-11
2.51314e-11
3.47733e-11
-4.94725e-11
5.07979e-11
-3.3725e-11
-4.38623e-11
2.6107e-08
-2.59619e-08
-4.28299e-11
-2.87629e-11
4.74255e-13
-1.08123e-07
-6.7218e-13
-4.34945e-11
-1.72367e-11
1.3296e-11
-4.59696e-14
-2.33655e-11
3.41389e-13
2.4706e-11
2.47024e-11
1.08226e-07
-6.66734e-11
-1.0817e-07
3.15214e-11
-4.4894e-11
-1.68068e-11
1.72722e-11
-2.02196e-13
-2.38593e-11
2.21775e-11
1.1641e-12
-2.5969e-08
-5.66828e-11
-1.32033e-11
3.52651e-11
3.86145e-11
3.59947e-11
3.65195e-11
2.5956e-08
-3.61012e-11
-3.93639e-11
2.61017e-08
-2.59557e-08
-3.52905e-11
-3.53003e-11
9.93708e-13
1.09141e-07
1.25122e-11
3.60798e-11
-1.31235e-11
2.30137e-11
2.0476e-11
-2.40207e-11
-2.24183e-11
-3.50207e-11
9.88095e-13
9.01086e-13
1.09169e-07
1.34751e-11
3.59963e-11
-1.76089e-11
2.31214e-11
2.05415e-11
-2.38316e-11
-1.9894e-11
1.09139e-07
1.0746e-12
-1.0914e-07
1.2286e-12
-3.50865e-11
-1.31778e-11
1.25841e-11
-2.37543e-11
-2.23516e-11
2.06486e-11
2.31783e-11
3.60552e-11
1.09169e-07
1.72252e-12
-1.09168e-07
4.39125e-13
-3.49583e-11
-1.40828e-11
1.33059e-11
-2.39456e-11
-2.23804e-11
2.0328e-11
2.31405e-11
3.59894e-11
3.69796e-11
2.59565e-08
-3.96491e-11
2.61027e-08
-2.59563e-08
-3.53102e-11
-3.54667e-11
2.3517e-13
1.07249e-07
2.85895e-11
3.90188e-11
-2.89275e-11
-5.23505e-11
5.13541e-11
5.38572e-11
-5.11982e-11
-2.87572e-11
-4.74724e-13
3.22044e-13
1.08238e-07
2.54636e-11
2.95452e-11
-2.59486e-11
-3.36602e-11
5.03676e-11
3.45239e-11
-5.06157e-11
1.07246e-07
-1.61862e-12
-1.07247e-07
4.14219e-14
-3.82364e-11
-2.88254e-11
2.87145e-11
5.38826e-11
-5.15217e-11
5.12191e-11
-5.25923e-11
2.97766e-11
1.08237e-07
-4.08009e-13
-1.08238e-07
-6.17437e-14
-2.84851e-11
-2.59895e-11
2.90609e-11
3.44626e-11
-5.09829e-11
4.78576e-11
-3.39404e-11
4.39935e-10
-1.33339e-10
1.0748e-07
7.20353e-11
1.90787e-10
6.60795e-11
-3.62683e-11
5.08491e-11
-7.72912e-11
3.59012e-11
-4.89583e-13
-1.07229e-07
-1.33802e-12
-3.84682e-11
-2.87244e-11
2.89026e-11
5.40633e-11
-5.15797e-11
-5.25319e-11
5.16558e-11
-1.1181e-10
1.08199e-07
-4.40818e-10
-1.0748e-07
1.34121e-10
-1.8932e-10
-7.25984e-11
-6.42894e-11
3.74181e-11
-5.08846e-11
7.4681e-11
-3.47898e-11
4.37734e-11
2.95889e-11
2.59616e-08
-4.37317e-11
2.61064e-08
-2.59615e-08
-4.28663e-11
-2.8504e-11
-5.31239e-10
1.65652e-10
1.08989e-07
-2.76135e-11
-1.11523e-10
-1.12603e-10
3.73461e-12
2.1598e-11
5.28799e-12
-1.5639e-12
5.98641e-13
-1.08126e-07
1.31277e-12
-4.28492e-11
-1.7466e-11
1.37808e-11
-1.40931e-13
-2.3307e-11
4.54938e-13
2.47959e-11
1.75877e-10
1.08226e-07
5.31829e-10
-1.08987e-07
-1.668e-10
1.12056e-10
2.78951e-11
1.09984e-10
-3.96215e-12
-2.29907e-11
-4.17423e-12
1.47528e-12
-2.59693e-08
7.53429e-11
-1.57037e-10
3.51795e-11
3.81497e-11
3.65363e-11
3.64803e-11
2.59554e-08
-3.58459e-11
-3.97414e-11
2.61015e-08
-2.59553e-08
-3.49305e-11
-3.57316e-11
1.22172e-12
1.09138e-07
1.24711e-11
3.59816e-11
-1.327e-11
2.34941e-11
2.07363e-11
-2.36696e-11
-2.20944e-11
-3.50369e-11
1.37304e-12
7.09691e-13
1.09168e-07
1.32333e-11
3.60261e-11
-1.40969e-11
2.35571e-11
2.05127e-11
-2.37657e-11
-2.20171e-11
1.09135e-07
-1.6244e-13
-1.09135e-07
1.52495e-12
-3.54415e-11
-1.3491e-11
1.20908e-11
-2.32178e-11
-2.18305e-11
2.09941e-11
2.39052e-11
3.57717e-11
1.09166e-07
5.35994e-14
-1.09166e-07
1.12217e-12
-3.53651e-11
-1.44062e-11
1.28366e-11
-2.32334e-11
-2.16786e-11
2.09099e-11
2.39751e-11
3.63226e-11
3.69405e-11
2.59561e-08
-4.01348e-11
2.61026e-08
-2.5956e-08
-3.47731e-11
-3.59376e-11
-2.65622e-13
1.07245e-07
2.87476e-11
3.94392e-11
-2.87662e-11
-5.25333e-11
5.11166e-11
5.37375e-11
-5.15068e-11
-2.8446e-11
-1.01962e-13
1.09369e-13
1.08236e-07
2.54631e-11
2.98476e-11
-2.59017e-11
-3.38855e-11
5.00564e-11
3.43129e-11
-5.09961e-11
1.07242e-07
-8.62661e-13
-1.07243e-07
-6.31357e-13
-3.79304e-11
-2.85293e-11
2.8878e-11
5.34733e-11
-5.17909e-11
5.08041e-11
-5.28244e-11
3.02791e-11
1.08235e-07
1.96513e-15
-1.08236e-07
-7.37733e-13
-2.80754e-11
-2.56078e-11
2.92857e-11
3.40615e-11
-5.12931e-11
4.73669e-11
-3.41499e-11
-4.91476e-11
2.44606e-11
1.08246e-07
2.4099e-11
2.86457e-11
-2.55699e-11
-3.36694e-11
4.94667e-11
-5.09487e-11
3.49815e-11
-6.89908e-13
-1.07225e-07
-1.34522e-12
-3.79988e-11
-2.83745e-11
2.91647e-11
5.37005e-11
-5.18423e-11
-5.27425e-11
5.12514e-11
5.23921e-11
1.08196e-07
4.90658e-11
-1.08244e-07
-2.5495e-11
-2.64354e-11
-2.54393e-11
2.46451e-11
3.41716e-11
-5.05375e-11
5.00264e-11
-3.46288e-11
4.36848e-11
3.00249e-11
2.59613e-08
-4.35142e-11
2.61063e-08
-2.59613e-08
-4.32465e-11
-2.7984e-11
6.4834e-11
-3.10868e-11
1.08171e-07
1.75711e-11
4.5438e-11
-1.7154e-11
9.25533e-13
2.28557e-11
-2.30195e-11
-9.16928e-13
-1.92671e-13
-1.08122e-07
1.40986e-13
-4.32016e-11
-1.7777e-11
1.33204e-11
4.6711e-13
-2.2684e-11
1.25441e-12
2.52037e-11
2.43612e-11
1.08222e-07
-6.55102e-11
-1.08168e-07
3.11009e-11
-4.51068e-11
-1.68986e-11
1.72465e-11
1.00014e-13
-2.33723e-11
2.24609e-11
1.83298e-12
-2.59681e-08
-5.75945e-11
-1.22394e-11
3.55964e-11
3.7947e-11
3.68103e-11
3.60268e-11
2.59552e-08
-3.57114e-11
-3.97413e-11
2.61015e-08
-2.59551e-08
-3.50755e-11
-3.58509e-11
1.62416e-12
1.09135e-07
1.19086e-11
3.57444e-11
-1.35935e-11
2.4083e-11
2.08924e-11
-2.32942e-11
-2.17021e-11
-3.5517e-11
3.23834e-13
1.55977e-12
1.09167e-07
1.26534e-11
3.56838e-11
-1.80954e-11
2.41607e-11
2.08511e-11
-2.32937e-11
-1.90958e-11
1.09134e-07
-1.04582e-12
-1.09133e-07
1.61933e-12
-3.57317e-11
-1.3609e-11
1.17929e-11
-2.32486e-11
-2.17254e-11
2.09428e-11
2.40761e-11
3.55881e-11
1.09166e-07
-5.29812e-13
-1.09165e-07
1.77182e-12
-3.5661e-11
-1.46129e-11
1.2482e-11
-2.33244e-11
-2.16575e-11
2.08028e-11
2.4004e-11
3.67958e-11
3.63486e-11
2.59559e-08
-4.00767e-11
2.61025e-08
-2.59558e-08
-3.49442e-11
-3.61177e-11
-7.32114e-13
1.07241e-07
2.8824e-11
3.9744e-11
-2.85167e-11
-5.27665e-11
5.0597e-11
5.32466e-11
-5.17733e-11
-2.81449e-11
7.10971e-13
-4.67986e-13
1.08234e-07
2.56144e-11
3.02447e-11
-2.55955e-11
-3.40405e-11
4.95606e-11
3.39018e-11
-5.12236e-11
1.07239e-07
-8.92696e-13
-1.07239e-07
-7.45815e-13
-3.80073e-11
-2.85411e-11
2.87789e-11
5.32012e-11
-5.17898e-11
5.05867e-11
-5.28903e-11
3.01777e-11
1.08234e-07
-7.55592e-14
-1.08234e-07
-6.47456e-13
-2.82614e-11
-2.57224e-11
2.90869e-11
3.39479e-11
-5.12832e-11
4.72382e-11
-3.41183e-11
4.41796e-10
-1.33928e-10
1.07475e-07
7.16348e-11
1.91683e-10
6.62385e-11
-3.67221e-11
4.96818e-11
-7.7908e-11
3.49457e-11
2.72744e-13
-1.07222e-07
-2.31666e-12
-3.81524e-11
-2.843e-11
2.90118e-11
5.34198e-11
-5.19542e-11
-5.28566e-11
5.09758e-11
-1.11339e-10
1.08193e-07
-4.39518e-10
-1.07474e-07
1.33459e-10
-1.88957e-10
-7.2555e-11
-6.43812e-11
3.67872e-11
-5.13625e-11
7.39137e-11
-3.51407e-11
4.32635e-11
3.04313e-11
2.59612e-08
-4.3419e-11
2.61061e-08
-2.59609e-08
-4.33609e-11
-2.81775e-11
-5.32138e-10
1.65976e-10
1.08984e-07
-2.79876e-11
-1.1197e-10
-1.1275e-10
4.79841e-12
2.2023e-11
6.15469e-12
-9.45648e-13
-1.56388e-12
-1.0812e-07
1.77193e-12
-4.34453e-11
-1.78563e-11
1.30605e-11
3.87284e-13
-2.26467e-11
1.31301e-12
2.51484e-11
1.75283e-10
1.08222e-07
5.28949e-10
-1.08982e-07
-1.65944e-10
1.11215e-10
2.75488e-11
1.09292e-10
-3.32796e-12
-2.21138e-11
-3.64116e-12
2.42516e-12
-2.59684e-08
7.43847e-11
-1.56492e-10
3.59076e-11
3.81961e-11
3.64922e-11
3.58471e-11
2.59551e-08
-3.61482e-11
-3.97527e-11
2.61019e-08
-2.59553e-08
-3.52625e-11
-3.54331e-11
2.22555e-12
1.09135e-07
1.15615e-11
3.5502e-11
-1.38154e-11
2.39304e-11
2.05735e-11
-2.35914e-11
-2.19581e-11
-3.58422e-11
1.34586e-12
2.62135e-12
1.09166e-07
1.22799e-11
3.54414e-11
-1.47125e-11
2.38831e-11
2.04631e-11
-2.36683e-11
-2.18485e-11
1.09137e-07
-2.88351e-12
-1.09135e-07
5.31758e-13
-3.55084e-11
-1.30628e-11
1.21072e-11
-2.34559e-11
-2.16696e-11
2.07832e-11
2.40662e-11
3.6103e-11
1.09168e-07
-2.07805e-12
-1.09165e-07
6.75278e-13
-3.53842e-11
-1.38915e-11
1.29524e-11
-2.3559e-11
-2.17076e-11
2.05827e-11
2.39203e-11
3.64109e-11
3.62147e-11
2.59558e-08
-4.00088e-11
2.61028e-08
-2.59558e-08
-3.52202e-11
-3.56446e-11
-3.10486e-13
1.07239e-07
2.85033e-11
3.95054e-11
-2.87867e-11
-5.29639e-11
5.02912e-11
5.29198e-11
-5.19328e-11
-2.85593e-11
2.15768e-12
4.16843e-13
1.08233e-07
2.51409e-11
2.99022e-11
-2.59873e-11
-3.41911e-11
4.92893e-11
3.36593e-11
-5.14159e-11
1.0724e-07
-3.21303e-12
-1.07237e-07
-1.34428e-12
-3.81827e-11
-2.84573e-11
2.86355e-11
5.33798e-11
-5.13308e-11
5.08158e-11
-5.24898e-11
3.02694e-11
1.08235e-07
-2.10794e-12
-1.08233e-07
-9.27019e-13
-2.83548e-11
-2.56249e-11
2.89695e-11
3.40006e-11
-5.09126e-11
4.73795e-11
-3.38961e-11
-4.60083e-11
2.47423e-11
1.08241e-07
2.35756e-11
2.86922e-11
-2.59135e-11
-3.42198e-11
4.84824e-11
-5.15794e-11
3.41369e-11
-2.50585e-12
-1.07221e-07
-1.13496e-12
-3.83609e-11
-2.85085e-11
2.87779e-11
5.35869e-11
-5.15166e-11
-5.24894e-11
5.1188e-11
5.22231e-11
1.08195e-07
4.73101e-11
-1.0824e-07
-2.53687e-11
-2.6855e-11
-2.57174e-11
2.40901e-11
3.41188e-11
-5.01968e-11
5.00041e-11
-3.43338e-11
4.30683e-11
3.00342e-11
2.59609e-08
-4.38348e-11
2.61064e-08
-2.5961e-08
-4.30025e-11
-2.83098e-11
6.45315e-11
-2.98116e-11
1.08168e-07
1.67958e-11
4.481e-11
-1.75241e-11
1.32064e-12
2.2846e-11
-2.26852e-11
-8.46072e-13
-2.6705e-12
-1.08119e-07
-6.59222e-13
-4.32176e-11
-1.72024e-11
1.3464e-11
9.13753e-14
-2.25883e-11
1.27804e-12
2.4884e-11
2.46848e-11
1.08224e-07
-6.82941e-11
-1.08167e-07
2.99882e-11
-4.51416e-11
-1.62232e-11
1.75319e-11
-2.49343e-13
-2.32474e-11
2.22089e-11
1.89245e-12
-2.59678e-08
-5.73713e-11
-1.2707e-11
3.56279e-11
3.84015e-11
3.62523e-11
3.62504e-11
2.59554e-08
-3.6648e-11
-3.97936e-11
2.61024e-08
-2.59556e-08
-3.52648e-11
-3.51072e-11
2.51727e-12
1.09136e-07
1.19181e-11
3.56413e-11
-1.36136e-11
2.32409e-11
2.01798e-11
-2.40904e-11
-2.25114e-11
-3.549e-11
4.4318e-12
2.66953e-12
1.09167e-07
1.27653e-11
3.56562e-11
-1.79516e-11
2.31598e-11
1.99955e-11
-2.41928e-11
-2.00379e-11
1.09142e-07
-7.26513e-12
-1.09135e-07
-8.3857e-13
-3.52364e-11
-1.26097e-11
1.24037e-11
-2.35678e-11
-2.12749e-11
2.07624e-11
2.43782e-11
3.66745e-11
1.09171e-07
-6.62844e-12
-1.09165e-07
-9.2243e-13
-3.50092e-11
-1.34731e-11
1.32149e-11
-2.36219e-11
-2.13693e-11
2.05471e-11
2.42524e-11
3.61472e-11
3.66139e-11
2.59559e-08
-4.00901e-11
2.61032e-08
-2.5956e-08
-3.52153e-11
-3.52287e-11
4.70443e-13
1.07237e-07
2.83298e-11
3.91671e-11
-2.90899e-11
-5.31611e-11
5.03557e-11
5.2907e-11
-5.20533e-11
-2.86659e-11
4.696e-12
1.6045e-12
1.08232e-07
2.49892e-11
2.96157e-11
-2.62699e-11
-3.45853e-11
4.92566e-11
3.34813e-11
-5.16176e-11
1.07243e-07
-8.86901e-12
-1.07237e-07
-1.7138e-12
-3.83934e-11
-2.84391e-11
2.84279e-11
5.37529e-11
-5.06491e-11
5.11042e-11
-5.17348e-11
3.04153e-11
1.08238e-07
-7.49985e-12
-1.08232e-07
-1.57371e-12
-2.85092e-11
-2.54798e-11
2.88521e-11
3.42708e-11
-5.02248e-11
4.7713e-11
-3.32373e-11
4.45583e-10
-1.3151e-10
1.07472e-07
7.08338e-11
1.90928e-10
6.53444e-11
-3.71486e-11
4.93823e-11
-7.83298e-11
3.46177e-11
-7.53088e-12
-1.07219e-07
-2.67775e-12
-3.85747e-11
-2.83412e-11
2.86592e-11
5.39615e-11
-5.07694e-11
-5.17667e-11
5.15875e-11
-1.11198e-10
1.08196e-07
-4.47183e-10
-1.07471e-07
1.32805e-10
-1.89293e-10
-7.24527e-11
-6.47291e-11
3.72939e-11
-5.03201e-11
7.44536e-11
-3.41325e-11
4.33663e-11
2.9869e-11
2.59611e-08
-4.42535e-11
2.61069e-08
-2.59613e-08
-4.26991e-11
-2.82932e-11
-5.28061e-10
1.66189e-10
1.08985e-07
-2.77157e-11
-1.11994e-10
-1.12515e-10
3.88542e-12
2.11782e-11
5.28521e-12
-1.87755e-12
-8.41577e-12
-1.0812e-07
-4.0787e-13
-4.30598e-11
-1.6893e-11
1.35558e-11
7.73276e-14
-2.21286e-11
1.73913e-12
2.48871e-11
1.76243e-10
1.0823e-07
5.22057e-10
-1.08984e-07
-1.68393e-10
1.11745e-10
2.86276e-11
1.10002e-10
-3.59374e-12
-2.16083e-11
-3.83252e-12
2.89956e-12
-2.59687e-08
7.51191e-11
-1.56702e-10
3.53999e-11
3.85486e-11
3.61587e-11
3.64504e-11
2.59558e-08
-3.65483e-11
-3.95238e-11
2.61022e-08
-2.59558e-08
-3.52295e-11
-3.50808e-11
2.45054e-12
1.09135e-07
1.20892e-11
3.56074e-11
-1.3717e-11
2.25301e-11
1.97069e-11
-2.46173e-11
-2.31767e-11
-3.52199e-11
1.12247e-11
2.23092e-12
1.09164e-07
1.28852e-11
3.5664e-11
-1.45126e-11
2.24703e-11
1.95414e-11
-2.46494e-11
-2.31417e-11
1.09146e-07
-1.64811e-11
-1.09134e-07
1.75668e-12
-3.53356e-11
-1.29986e-11
1.22896e-11
-2.33723e-11
-2.03611e-11
2.09564e-11
2.52392e-11
3.64546e-11
1.09175e-07
-1.63891e-11
-1.09163e-07
2.12566e-12
-3.52823e-11
-1.3903e-11
1.2999e-11
-2.33656e-11
-2.03398e-11
2.08614e-11
2.52137e-11
3.60558e-11
3.68886e-11
2.59562e-08
-3.99948e-11
2.6103e-08
-2.59562e-08
-3.50358e-11
-3.53271e-11
1.29586e-12
1.07237e-07
2.81569e-11
3.87983e-11
-2.94777e-11
-5.35152e-11
5.01673e-11
5.27813e-11
-5.24206e-11
-2.87592e-11
1.03719e-11
2.49304e-12
1.0823e-07
2.49198e-11
2.93098e-11
-2.65706e-11
-3.50084e-11
4.90694e-11
3.33217e-11
-5.20709e-11
1.07248e-07
-1.88302e-11
-1.07236e-07
1.42865e-12
-3.86781e-11
-2.88139e-11
2.83245e-11
5.4052e-11
-4.971e-11
5.13567e-11
-5.08111e-11
3.02213e-11
1.08242e-07
-1.74147e-11
-1.08231e-07
7.29709e-13
-2.87873e-11
-2.57938e-11
2.87465e-11
3.46029e-11
-4.92912e-11
4.79119e-11
-3.22391e-11
-3.82693e-11
2.7301e-11
1.08238e-07
2.3276e-11
2.80049e-11
-2.66115e-11
-3.49068e-11
4.8328e-11
-5.22162e-11
3.39911e-11
-1.75048e-11
-1.07219e-07
1.26727e-12
-3.87151e-11
-2.86087e-11
2.86133e-11
5.41946e-11
-4.99377e-11
-5.09596e-11
5.17824e-11
5.22501e-11
1.08201e-07
3.27382e-11
-1.08236e-07
-2.36711e-11
-2.71457e-11
-2.58708e-11
2.39186e-11
3.46688e-11
-4.87576e-11
5.04837e-11
-3.28581e-11
4.35176e-11
2.97939e-11
2.59616e-08
-4.41451e-11
2.6107e-08
-2.59617e-08
-4.26865e-11
-2.82616e-11
7.4653e-11
-3.0275e-11
1.08168e-07
1.7362e-11
4.49286e-11
-1.73835e-11
1.11682e-13
2.20334e-11
-2.38003e-11
-1.73641e-12
-1.82268e-11
-1.08119e-07
1.08613e-12
-4.32237e-11
-1.72261e-11
1.34411e-11
3.39157e-13
-2.10698e-11
2.74875e-12
2.51812e-11
2.49094e-11
1.08233e-07
-8.42727e-11
-1.08167e-07
3.23175e-11
-4.51372e-11
-1.6256e-11
1.75331e-11
1.00498e-13
-2.16123e-11
2.25845e-11
3.47599e-12
-2.59682e-08
-5.71938e-11
-1.2529e-11
3.48649e-11
3.80186e-11
3.64397e-11
3.66329e-11
2.59562e-08
-3.45442e-11
-3.75509e-11
2.60998e-08
-2.59558e-08
-3.59121e-11
-3.59565e-11
-3.11242e-12
1.09134e-07
1.27483e-11
3.58901e-11
-1.35514e-11
2.20436e-11
1.90743e-11
-2.52686e-11
-2.35634e-11
-3.48784e-11
2.27495e-11
-3.18229e-12
1.09164e-07
1.34259e-11
3.57767e-11
-1.80612e-11
2.20387e-11
1.90144e-11
-2.52246e-11
-2.10508e-11
1.09144e-07
-3.20512e-11
-1.09133e-07
1.99932e-11
-3.60412e-11
-1.61239e-11
1.17688e-11
-2.32423e-11
-1.81881e-11
2.1089e-11
2.76621e-11
3.43576e-11
1.09174e-07
-3.27285e-11
-1.09163e-07
2.12644e-11
-3.60328e-11
-1.71575e-11
1.2454e-11
-2.31913e-11
-1.8183e-11
2.10056e-11
2.76686e-11
3.64654e-11
3.69112e-11
2.59566e-08
-3.80428e-11
2.61006e-08
-2.59562e-08
-3.57485e-11
-3.63225e-11
-3.58447e-12
1.07236e-07
2.89121e-11
3.91206e-11
-2.91813e-11
-5.38821e-11
4.96026e-11
5.22968e-11
-5.27819e-11
-2.83811e-11
2.00236e-11
-1.73926e-12
1.0823e-07
2.55446e-11
2.9427e-11
-2.64365e-11
-3.53771e-11
4.85206e-11
3.28652e-11
-5.24428e-11
1.07248e-07
-3.29369e-11
-1.07237e-07
1.90052e-11
-3.93802e-11
-3.18499e-11
2.79269e-11
5.40119e-11
-4.79744e-11
5.13284e-11
-4.87619e-11
2.83086e-11
1.08243e-07
-3.14444e-11
-1.08232e-07
1.70222e-11
-2.94643e-11
-2.87755e-11
2.8365e-11
3.46755e-11
-4.74309e-11
4.7985e-11
-3.011e-11
4.61394e-10
-1.34759e-10
1.07468e-07
7.15111e-11
1.90896e-10
6.52702e-11
-3.8184e-11
4.85612e-11
-7.93269e-11
3.38415e-11
-2.99882e-11
-1.0722e-07
1.76602e-11
-3.94093e-11
-3.15033e-11
2.83604e-11
5.41255e-11
-4.82366e-11
-4.88695e-11
5.16983e-11
-1.13116e-10
1.08198e-07
-4.6992e-10
-1.07468e-07
1.51176e-10
-1.90031e-10
-7.55784e-11
-6.49965e-11
3.73569e-11
-4.77649e-11
7.4528e-11
-3.13117e-11
4.37674e-11
2.99633e-11
2.59622e-08
-4.22218e-11
2.61048e-08
-2.59619e-08
-4.34714e-11
-2.89617e-11
-5.0838e-10
1.60281e-10
1.08984e-07
-2.70314e-11
-1.11965e-10
-1.12646e-10
2.73162e-12
2.01299e-11
4.23735e-12
-2.96035e-12
-3.65376e-11
-1.08121e-07
2.18182e-11
-4.39167e-11
-2.02082e-11
1.30626e-11
4.46899e-13
-1.89213e-11
5.21533e-12
2.52634e-11
1.7399e-10
1.08234e-07
4.92953e-10
-1.08983e-07
-1.45108e-10
1.10754e-10
2.51908e-11
1.09367e-10
-3.18704e-12
-1.83543e-11
-3.43929e-12
6.46971e-12
-2.59692e-08
7.4159e-11
-1.57208e-10
3.32806e-11
3.61656e-11
3.71839e-11
3.71391e-11
2.5956e-08
-2.94218e-11
-3.22121e-11
2.60937e-08
-2.59566e-08
-3.77068e-11
-3.77067e-11
-2.84094e-11
1.09137e-07
1.5424e-11
3.74432e-11
-1.22547e-11
2.25009e-11
1.70515e-11
-2.76474e-11
-2.32779e-11
-3.33633e-11
4.04008e-11
-2.81923e-11
1.09167e-07
1.60175e-11
3.71873e-11
-1.33492e-11
2.24025e-11
1.69074e-11
-2.76409e-11
-2.33402e-11
1.09122e-07
-5.3527e-11
-1.09146e-07
7.75066e-11
-3.73353e-11
-2.40443e-11
1.10087e-11
-2.28636e-11
-1.23439e-11
2.1834e-11
3.46403e-11
2.93646e-11
1.09151e-07
-5.52876e-11
-1.09175e-07
7.88726e-11
-3.73242e-11
-2.48674e-11
1.18271e-11
-2.27453e-11
-1.22454e-11
2.18699e-11
3.47555e-11
3.71437e-11
3.73943e-11
2.59564e-08
-3.28345e-11
2.60947e-08
-2.5957e-08
-3.74876e-11
-3.79846e-11
-2.78548e-11
1.07242e-07
3.17499e-11
4.10055e-11
-2.77357e-11
-5.34377e-11
4.76472e-11
4.99499e-11
-5.25664e-11
-2.66715e-11
3.38618e-11
-2.47347e-11
1.08236e-07
2.83277e-11
3.11046e-11
-2.50376e-11
-3.48487e-11
4.66433e-11
3.06689e-11
-5.21424e-11
1.07228e-07
-4.97155e-11
-1.07252e-07
7.3692e-11
-4.09538e-11
-3.98219e-11
2.72501e-11
5.42779e-11
-4.27215e-11
5.20969e-11
-4.2285e-11
2.31679e-11
1.08224e-07
-4.71866e-11
-1.08247e-07
7.0035e-11
-3.07807e-11
-3.67261e-11
2.76811e-11
3.48309e-11
-4.23122e-11
4.86315e-11
-2.38603e-11
-1.37453e-11
-2.84891e-13
1.08239e-07
2.68991e-11
2.99464e-11
-2.49385e-11
-3.50565e-11
4.56648e-11
-5.26291e-11
3.09898e-11
-4.61903e-11
-1.07235e-07
7.28426e-11
-4.09198e-11
-3.93643e-11
2.75978e-11
5.45391e-11
-4.2713e-11
-4.21425e-11
5.25554e-11
4.52336e-11
1.08178e-07
3.24846e-12
-1.08249e-07
4.58526e-11
-2.91212e-11
-3.67419e-11
2.29188e-11
3.46149e-11
-4.18446e-11
5.09868e-11
-2.45308e-11
4.43795e-11
3.05853e-11
2.59622e-08
-3.71318e-11
2.60988e-08
-2.59626e-08
-4.53282e-11
-3.0528e-11
1.07443e-10
-6.17412e-11
1.08171e-07
2.05334e-11
4.65107e-11
-1.63175e-11
-3.61485e-13
1.90642e-11
-2.44935e-11
-5.06853e-12
-6.21579e-11
-1.08132e-07
7.916e-11
-4.53839e-11
-2.78696e-11
1.24184e-11
1.02774e-12
-1.28215e-11
1.25703e-11
2.62251e-11
1.80384e-11
1.08213e-07
-1.29867e-10
-1.08179e-07
1.10136e-10
-4.73156e-11
-2.68249e-11
1.65024e-11
8.55379e-13
-1.31621e-11
2.37415e-11
1.35162e-11
-2.59692e-08
-5.9738e-11
-1.47747e-11
3.00285e-11
3.26745e-11
3.79856e-11
3.80599e-11
2.5955e-08
-2.32395e-11
-2.5185e-11
2.60822e-08
-2.59603e-08
-3.66372e-11
-3.6788e-11
-1.01885e-10
1.09167e-07
2.11706e-11
4.22768e-11
-7.36808e-12
2.23261e-11
1.02335e-11
-3.54516e-11
-2.40818e-11
-3.01476e-11
6.045e-11
-1.01643e-10
1.09196e-07
2.17361e-11
4.22332e-11
-1.21124e-11
2.20564e-11
1.00421e-11
-3.55058e-11
-2.18923e-11
1.09022e-07
-6.54994e-11
-1.09206e-07
2.01336e-10
-3.6105e-11
-3.45497e-11
1.28667e-11
-1.05619e-11
4.37973e-12
3.57834e-11
5.38772e-11
2.40416e-11
1.0905e-07
-6.92651e-11
-1.09232e-07
2.00484e-10
-3.62489e-11
-3.45345e-11
1.35302e-11
-1.04123e-11
4.60127e-12
3.57864e-11
5.45117e-11
3.79229e-11
3.82956e-11
2.59553e-08
-2.63954e-11
2.60836e-08
-2.59605e-08
-3.61268e-11
-3.6586e-11
-9.79902e-11
1.07274e-07
3.74471e-11
4.63242e-11
-2.2835e-11
-5.31591e-11
4.13829e-11
4.26306e-11
-5.33057e-11
-2.32492e-11
4.55376e-11
-9.3437e-11
1.08268e-07
3.41186e-11
3.62184e-11
-2.00903e-11
-3.45002e-11
4.04531e-11
2.35063e-11
-5.27097e-11
1.07131e-07
-5.30146e-11
-1.07314e-07
1.91834e-10
-4.08495e-11
-5.07161e-11
2.88008e-11
6.70345e-11
-2.69237e-11
6.60254e-11
-2.40774e-11
1.60655e-11
1.08127e-07
-4.75245e-11
-1.0831e-07
1.8737e-10
-2.97452e-11
-4.78492e-11
2.94318e-11
4.69428e-11
-2.72915e-11
6.22545e-11
-6.54893e-12
4.87092e-10
-2.27602e-10
1.07503e-07
8.00771e-11
1.97879e-10
7.16114e-11
-3.73261e-11
4.02671e-11
-7.96828e-11
2.42187e-11
-4.78873e-11
-1.07298e-07
1.87804e-10
-4.088e-11
-4.96998e-11
2.89703e-11
6.7716e-11
-2.61155e-11
-2.32416e-11
6.72006e-11
-1.2482e-10
1.08078e-07
-4.87722e-10
-1.07544e-07
3.2345e-10
-1.91063e-10
-9.48002e-11
-6.41963e-11
5.00505e-11
-2.75482e-11
8.92414e-11
-7.41547e-12
4.52858e-11
3.15008e-11
2.59611e-08
-3.11467e-11
2.60877e-08
-2.59665e-08
-4.44826e-11
-2.94177e-11
-4.63996e-10
6.02355e-11
1.09016e-07
-1.88785e-11
-1.05594e-10
-1.07113e-10
2.30907e-12
1.09812e-11
2.84179e-12
-1.3546e-11
-8.35597e-11
-1.0819e-07
2.04626e-10
-4.50686e-11
-3.77249e-11
1.36997e-11
1.38226e-11
4.39595e-12
3.2809e-11
4.05458e-11
1.63225e-10
1.0812e-07
4.44386e-10
-1.09054e-07
3.61218e-11
1.10068e-10
7.96848e-12
1.10611e-10
1.03259e-11
5.25612e-12
1.20117e-11
3.40367e-11
-2.59735e-08
7.36458e-11
-1.57469e-10
2.43323e-11
2.62849e-11
3.93496e-11
3.96907e-11
2.59525e-08
-9.78313e-11
-9.45713e-11
2.6056e-08
-2.59702e-08
5.58136e-11
5.07247e-11
-2.63981e-10
1.09277e-07
2.91549e-11
5.59479e-11
7.42312e-12
1.82323e-11
-2.94536e-12
-5.17719e-11
-3.26721e-11
-2.52576e-11
1.41165e-11
-2.61467e-10
1.09303e-07
2.89883e-11
5.56661e-11
6.32162e-12
1.7224e-11
-3.03697e-12
-5.20778e-11
-3.39737e-11
1.08563e-07
-1.13697e-10
-1.09384e-07
2.25973e-10
-5.93369e-12
3.2911e-11
5.06562e-11
7.03798e-11
1.28323e-10
1.36381e-10
1.98205e-10
1.00539e-10
1.08594e-07
-1.20303e-10
-1.09407e-07
2.15959e-10
-6.40242e-12
3.54406e-11
5.13223e-11
7.06308e-11
1.29398e-10
1.36505e-10
1.99871e-10
3.86975e-11
3.98269e-11
2.59524e-08
-9.6941e-11
2.60587e-08
-2.59706e-08
5.59708e-11
5.34792e-11
-2.53063e-10
1.07387e-07
4.59566e-11
6.10916e-11
-8.54413e-12
-5.74155e-11
2.94346e-11
2.74884e-11
-6.2565e-11
-1.67487e-11
-1.65556e-11
-2.50611e-10
1.08382e-07
4.25881e-11
5.1195e-11
-4.57633e-12
-3.73441e-11
2.88744e-11
8.9334e-12
-6.04932e-11
1.0669e-07
-1.06765e-10
-1.0749e-07
2.20546e-10
-1.53944e-11
1.30788e-11
6.4164e-11
1.51334e-10
9.35006e-11
1.68325e-10
1.17622e-10
8.83768e-11
1.07676e-07
-8.98012e-11
-1.08491e-07
2.13988e-10
-8.27564e-13
1.82113e-11
6.74219e-11
1.29091e-10
9.20613e-11
1.62917e-10
1.32763e-10
-6.36341e-11
-2.2751e-10
1.08384e-07
4.08702e-11
5.01603e-11
-4.31009e-12
-3.74979e-11
2.80783e-11
-6.12036e-11
8.87606e-12
-9.79631e-11
-1.0748e-07
2.11323e-10
-1.5021e-11
1.60032e-11
6.42003e-11
1.52805e-10
9.82079e-11
1.21735e-10
1.70464e-10
1.10682e-10
1.07629e-07
-4.32369e-11
-1.08493e-07
1.94531e-10
4.99146e-14
1.8273e-11
6.23029e-11
1.29054e-10
9.31203e-11
1.65729e-10
1.32933e-10
4.69634e-11
3.31738e-11
2.59584e-08
-1.021e-10
2.60621e-08
-2.59763e-08
4.60787e-11
5.86731e-11
9.30233e-11
-2.96429e-10
1.08308e-07
3.3994e-11
6.50275e-11
2.54341e-12
-6.54399e-12
-1.16801e-12
-3.56454e-11
-2.96066e-11
-1.4689e-10
-1.08361e-07
2.32421e-10
-1.80248e-11
2.70268e-11
4.82429e-11
9.66176e-11
1.29553e-10
1.7909e-10
1.42025e-10
8.34843e-11
1.07673e-07
-2.16011e-10
-1.08409e-07
2.59619e-10
-1.93425e-11
2.77155e-11
5.37511e-11
9.70424e-11
1.29522e-10
1.39176e-10
1.80962e-10
-2.59823e-08
3.30673e-11
7.44155e-11
6.48183e-12
8.07181e-12
5.23631e-11
5.38643e-11
2.59352e-08
-1.87168e-10
5.52742e-10
2.63267e-08
-2.55348e-08
-3.68657e-10
-7.88917e-10