/*--------------------------------*- C++ -*----------------------------------*\
| =========                 |                                                 |
| \\      /  F ield         | OpenFOAM: The Open Source CFD Toolbox           |
|  \\    /   O peration     | Version:  2206                                  |
|   \\  /    A nd           | Website:  www.openfoam.com                      |
|    \\/     M anipulation  |                                                 |
\*---------------------------------------------------------------------------*/
FoamFile
{
    version     2.0;
    format      ascii;
    arch        "LSB;label=32;scalar=64";
    class       volVectorField;
    location    "40";
    object      wallShearStress;
}
// * * * * * * * * * * * * * * * * * * * * * * * * * * * * * * * * * * * * * //

dimensions      [0 2 -2 0 0 0 0];

internalField   uniform (0 0 0);

boundaryField
{
    topPatch
    {
        type            calculated;
        value           nonuniform List<vector> 0();
    }
    wall
    {
        type            calculated;
        value           nonuniform List<vector> 
7778
(
(-5.39931e-06 1.83458e-05 -0.000253009)
(-3.40346e-06 -6.14861e-06 -0.000145936)
(1.83865e-05 -5.40648e-06 -0.0002527)
(-6.18456e-06 -3.40005e-06 -0.000145794)
(5.36807e-06 1.83937e-05 -0.000253093)
(1.83065e-05 5.38518e-06 -0.000252679)
(-1.83127e-05 -5.4339e-06 -0.000252721)
(-1.83777e-05 5.48026e-06 -0.000252753)
(-5.39362e-06 -1.83405e-05 -0.000252987)
(-3.39906e-06 6.13472e-06 -0.000145946)
(5.39454e-06 -1.84056e-05 -0.000253008)
(1.11579e-05 4.84761e-05 -0.000199852)
(-2.37162e-05 -7.85849e-06 -0.000322045)
(-1.0415e-05 7.41924e-06 -0.000244091)
(-3.32758e-05 3.3931e-05 -0.000237602)
(4.82351e-05 1.06922e-05 -0.00019949)
(-7.76932e-06 -2.35711e-05 -0.000321659)
(7.46779e-06 -1.028e-05 -0.000243895)
(3.3978e-05 -3.31645e-05 -0.000237278)
(2.34679e-05 -7.88417e-06 -0.000321279)
(3.30242e-05 3.42696e-05 -0.000237618)
(9.95287e-06 7.68783e-06 -0.000244179)
(-7.88978e-06 2.34156e-05 -0.000321163)
(3.42354e-05 3.30091e-05 -0.000237528)
(7.65394e-06 9.93297e-06 -0.000244209)
(-1.07695e-05 4.83057e-05 -0.000199821)
(7.82004e-06 2.35828e-05 -0.000321676)
(-7.38182e-06 1.0326e-05 -0.000243932)
(-3.39124e-05 3.32115e-05 -0.000237258)
(4.83878e-05 -1.11482e-05 -0.000199588)
(-4.81742e-05 1.06655e-05 -0.000199398)
(-4.80398e-05 -1.02181e-05 -0.000199366)
(2.35969e-05 7.83157e-06 -0.000321992)
(1.03105e-05 -7.41239e-06 -0.000244157)
(3.32169e-05 -3.39355e-05 -0.000237535)
(1.11576e-05 -4.84699e-05 -0.000199853)
(-1.07265e-05 -4.83071e-05 -0.000199753)
(7.83747e-06 -2.34077e-05 -0.000321019)
(-3.42717e-05 -3.29711e-05 -0.000237378)
(-7.71192e-06 -9.90039e-06 -0.000244034)
(-2.34479e-05 7.9266e-06 -0.00032143)
(-3.30203e-05 -3.42462e-05 -0.000237714)
(-9.9711e-06 -7.66744e-06 -0.000244343)
(-1.20139e-05 1.04587e-05 -0.000182981)
(-3.56107e-06 2.37508e-05 -0.000174118)
(1.04592e-05 -1.20117e-05 -0.0001828)
(1.19965e-05 1.04269e-05 -0.000183015)
(3.54575e-06 2.3759e-05 -0.000174148)
(1.04278e-05 1.19952e-05 -0.000182821)
(2.37378e-05 3.56716e-06 -0.000173975)
(-1.03694e-05 -1.19595e-05 -0.000182829)
(-1.58483e-05 1.07023e-05 -0.000196712)
(-1.04303e-05 1.19946e-05 -0.000182806)
(-1.20299e-05 -1.04361e-05 -0.000182973)
(1.06929e-05 -1.58742e-05 -0.000196843)
(1.20254e-05 -1.04597e-05 -0.000182943)
(3.376e-06 -6.15425e-06 -0.000145994)
(-6.19253e-06 3.41032e-06 -0.000145876)
(1.07262e-05 1.58608e-05 -0.000196788)
(2.37315e-05 -3.57858e-06 -0.000173961)
(1.58559e-05 1.06965e-05 -0.000196605)
(1.585e-05 -1.06995e-05 -0.000196658)
(6.18973e-06 -3.34311e-06 -0.000145892)
(-2.37147e-05 -3.55344e-06 -0.000174009)
(6.1924e-06 3.36992e-06 -0.000145837)
(-2.37204e-05 3.57079e-06 -0.000173953)
(-1.58461e-05 -1.06983e-05 -0.000196596)
(-3.5987e-06 -2.3758e-05 -0.000174097)
(3.38325e-06 6.14819e-06 -0.00014591)
(3.58919e-06 -2.37403e-05 -0.000174095)
(2.14794e-06 2.04108e-05 -0.000187435)
(2.04079e-05 2.14485e-06 -0.000187237)
(-2.18391e-06 2.03928e-05 -0.000187448)
(-1.07416e-05 1.58628e-05 -0.000196892)
(2.03817e-05 -2.12681e-06 -0.000187275)
(-2.03458e-05 2.1731e-06 -0.000187286)
(-2.03862e-05 -2.1548e-06 -0.000187297)
(2.1484e-06 -2.04091e-05 -0.0001874)
(-2.17689e-06 -2.04277e-05 -0.000187359)
(-1.07078e-05 -1.58591e-05 -0.000196807)
(-2.96738e-08 -2.17301e-09 -0.000143108)
(2.2142e-08 -1.69617e-08 -0.000134208)
(2.51547e-08 -1.57466e-10 -0.000134391)
(-1.96431e-08 -2.46252e-08 -0.000142891)
(-1.64229e-08 3.82273e-09 -0.000143065)
(1.78183e-10 -1.28137e-08 -0.000134258)
(3.55941e-09 6.51394e-09 -0.000134452)
(-2.02824e-09 1.61875e-08 -0.000142966)
(7.7375e-09 -7.40636e-09 -0.000143139)
(-2.85544e-08 2.05014e-09 -0.000134042)
(3.03535e-09 8.2892e-09 -0.0001343)
(2.62154e-08 6.28881e-09 -0.000142764)
(-4.03601e-09 8.63795e-09 -0.000142991)
(-7.26868e-09 3.21875e-09 -0.000134271)
(5.02078e-09 1.68042e-08 -0.000134451)
(-8.634e-09 -5.05523e-09 -0.000142968)
(-9.78824e-10 -1.82259e-08 -0.000143125)
(-2.0883e-08 -1.22288e-09 -0.000134027)
(1.29393e-08 7.33227e-09 -0.00013431)
(2.2833e-08 5.99294e-09 -0.000142754)
(-8.36537e-09 1.13586e-08 -0.000142994)
(-8.05158e-09 -3.58037e-09 -0.00013424)
(9.47721e-09 9.77443e-09 -0.000134433)
(-9.78748e-09 -3.23342e-09 -0.000142934)
(4.37168e-09 -1.29096e-08 -0.000143093)
(-1.36443e-08 -7.98302e-09 -0.000134024)
(2.39438e-08 2.8929e-09 -0.000134307)
(1.1145e-08 -2.55534e-09 -0.000142749)
(-2.01905e-08 -1.91512e-09 -0.000142989)
(-8.79292e-09 -1.04988e-08 -0.000134219)
(8.21013e-09 1.04139e-08 -0.000134418)
(-4.77058e-09 5.90653e-09 -0.000142918)
(6.65111e-09 -5.55272e-09 -0.000143082)
(-9.35007e-09 -1.48443e-08 -0.000134004)
(2.0471e-08 1.97266e-09 -0.000134287)
(6.04771e-09 -6.6403e-09 -0.00014274)
(-1.55757e-08 1.96446e-09 -0.000142971)
(-1.27215e-08 -1.13555e-08 -0.000134197)
(1.06487e-08 5.11788e-09 -0.000134397)
(-9.11047e-09 4.62714e-09 -0.000142903)
(8.4215e-09 -5.16234e-09 -0.000143076)
(-1.31808e-08 -4.99759e-09 -0.000134002)
(1.98325e-08 8.87443e-09 -0.000134268)
(1.29074e-08 -1.9767e-09 -0.000142725)
(-1.51946e-08 4.48921e-09 -0.000142952)
(-4.251e-09 -1.10366e-08 -0.000134193)
(1.14296e-08 6.52649e-09 -0.000134374)
(-4.82902e-09 9.07988e-09 -0.000142903)
(1.01014e-08 -3.65292e-09 -0.000143063)
(-1.58202e-08 -5.73947e-09 -0.000133983)
(1.93646e-08 8.03874e-09 -0.000134256)
(1.57664e-08 -1.56869e-09 -0.000142709)
(-4.25251e-09 1.04439e-08 -0.000142939)
(-7.53168e-09 -1.21926e-08 -0.000134173)
(1.4735e-08 7.30746e-09 -0.000134367)
(-5.61511e-09 6.36567e-09 -0.000142887)
(1.24805e-08 -4.8861e-09 -0.000143051)
(-1.73138e-08 -3.89329e-09 -0.00013401)
(1.30543e-08 1.60766e-08 -0.000134181)
(1.12265e-08 -1.06392e-09 -0.00014271)
(7.49574e-09 1.01393e-08 -0.000142922)
(-6.40582e-09 -1.15807e-08 -0.000134191)
(1.652e-08 1.99918e-09 -0.000134286)
(-8.25555e-09 -6.47479e-10 -0.000142882)
(1.41682e-08 1.20469e-08 -0.000143031)
(2.67589e-08 -2.17107e-08 -0.000134224)
(-4.99455e-08 3.15762e-08 -0.000133829)
(-7.1496e-08 -4.67943e-08 -0.000142745)
(1.53844e-07 9.39281e-08 -0.000142933)
(-1.87005e-08 3.17086e-08 -0.000134411)
(3.44158e-08 -6.47257e-08 -0.000133935)
(-4.93391e-08 -7.67764e-08 -0.000142906)
(9.4806e-08 1.63147e-07 -0.000143036)
(1.80708e-07 -7.52829e-08 -0.000135018)
(-1.82328e-07 9.68823e-08 -0.000133501)
(-4.37489e-07 -2.41479e-07 -0.000142832)
(6.85828e-07 4.05174e-07 -0.000143693)
(-7.57931e-08 1.84716e-07 -0.000135219)
(9.75461e-08 -1.8992e-07 -0.000133603)
(-2.489e-07 -4.42962e-07 -0.000142983)
(4.12965e-07 7.12409e-07 -0.000143793)
(4.18648e-07 -1.96916e-07 -0.000141162)
(-1.6049e-06 6.72153e-07 -0.000117875)
(-1.34946e-06 -7.68507e-07 -0.000147472)
(1.99955e-06 1.32965e-07 -0.000138478)
(-1.93292e-07 3.90948e-07 -0.000141289)
(6.68484e-07 -1.60637e-06 -0.000117995)
(-7.62766e-07 -1.34339e-06 -0.0001476)
(1.20465e-07 1.98618e-06 -0.000138534)
(1.50967e-05 3.4467e-05 -0.000132985)
(8.59952e-06 -3.20918e-06 -0.000144448)
(3.43934e-05 1.50817e-05 -0.000132939)
(-3.1696e-06 8.6775e-06 -0.000144365)
(5.99458e-08 -1.80676e-08 -0.000143145)
(9.75688e-09 -1.80996e-08 -0.000142883)
(1.59897e-08 -3.15065e-09 -0.000143103)
(-1.66544e-09 -1.92454e-08 -0.000142931)
(-2.70008e-08 3.58368e-09 -0.000134455)
(5.82518e-08 -1.16248e-08 -0.000134503)
(3.3474e-09 -1.06605e-08 -0.000134213)
(-5.56077e-08 -1.16707e-08 -0.000134492)
(-5.0796e-09 -1.29121e-08 -0.000134195)
(-1.02964e-08 -8.32304e-09 -0.000143127)
(-5.96578e-08 -2.14359e-08 -0.000143142)
(-1.09707e-08 -1.5421e-08 -0.000142879)
(-1.28684e-08 -8.98123e-09 -0.00014312)
(-7.2299e-10 -1.96742e-08 -0.00014296)
(1.08705e-08 1.1038e-09 -0.000134443)
(-4.32843e-09 -1.8149e-08 -0.000134244)
(1.06569e-08 1.64521e-09 -0.000134479)
(-4.90263e-09 1.75556e-08 -0.00013428)
(-8.97194e-09 -1.0592e-09 -0.000134475)
(-8.23491e-09 2.30087e-10 -0.000134442)
(-1.18689e-08 -2.61855e-09 -0.00013447)
(5.47508e-09 -1.89992e-08 -0.000134264)
(-1.22459e-08 3.90845e-09 -0.000134438)
(6.22999e-09 1.71304e-08 -0.000134228)
(1.18188e-08 4.67727e-09 -0.000143134)
(-2.19617e-09 1.6195e-08 -0.000142958)
(5.29302e-08 1.8568e-08 -0.000143158)
(7.79372e-09 1.34286e-08 -0.000142917)
(5.55026e-08 8.43027e-09 -0.000134511)
(2.44361e-09 1.26701e-08 -0.000134215)
(-5.65045e-08 7.54022e-09 -0.000134499)
(-1.07181e-09 1.19538e-08 -0.000134199)
(-1.24941e-08 6.21505e-09 -0.00014309)
(-2.47696e-08 4.85098e-10 -0.000143108)
(-1.61843e-08 8.75658e-09 -0.000143086)
(1.50527e-09 1.86164e-08 -0.000142899)
(-5.53237e-08 1.91348e-08 -0.000143143)
(-9.06066e-09 1.50506e-08 -0.000142891)
(2.26526e-08 -2.54596e-08 -0.000142891)
(1.97913e-08 1.02233e-09 -0.000143063)
(-2.80976e-09 -1.47938e-08 -0.000142938)
(7.18565e-09 5.94726e-09 -0.000143111)
(-1.07934e-09 9.80473e-09 -0.000143013)
(-1.76048e-08 -4.47116e-09 -0.000142818)
(-1.49886e-10 1.41098e-08 -0.00014311)
(-7.13899e-09 -5.52104e-09 -0.000142954)
(-1.89452e-08 -1.90612e-08 -0.000134193)
(-2.01473e-08 2.71917e-09 -0.000134379)
(3.51429e-09 1.01034e-08 -0.000134323)
(-1.52357e-08 -8.40052e-09 -0.00013409)
(-5.83263e-09 1.07809e-08 -0.000134312)
(1.65218e-08 -7.04794e-09 -0.000134082)
(7.21905e-10 -1.66896e-08 -0.000142975)
(-8.99826e-09 7.93626e-09 -0.000143144)
(-4.28902e-09 8.04627e-09 -0.000143006)
(1.6468e-08 -2.55355e-09 -0.00014282)
(-4.94878e-09 1.17839e-08 -0.000143141)
(5.63521e-09 -7.49881e-09 -0.000142981)
(-3.38611e-09 1.72682e-08 -0.000134286)
(7.01794e-09 -6.18492e-09 -0.000134486)
(4.42395e-09 1.50063e-08 -0.000134457)
(-9.75399e-09 -4.24548e-09 -0.000134265)
(5.68995e-09 -1.46773e-08 -0.000134489)
(-8.36935e-09 5.35692e-09 -0.0001343)
(2.49529e-09 -1.78689e-08 -0.000134283)
(-5.17428e-09 6.70058e-09 -0.000134481)
(7.01629e-10 2.08437e-08 -0.000134252)
(-8.27217e-09 -9.38506e-09 -0.000134454)
(-3.91854e-09 1.18692e-08 -0.000134479)
(7.59406e-09 -4.41103e-09 -0.000134298)
(-9.47032e-09 -1.2284e-08 -0.000134457)
(1.00616e-08 5.4492e-09 -0.000134256)
(1.81395e-08 2.13499e-08 -0.000142923)
(1.56331e-08 -8.07217e-10 -0.000143089)
(-3.92184e-10 -1.6446e-08 -0.000143137)
(-7.53904e-09 2.06546e-09 -0.000142976)
(-7.27151e-09 -1.2368e-08 -0.000143035)
(-2.16018e-08 5.80405e-10 -0.000142858)
(1.62042e-08 1.82119e-08 -0.00013421)
(2.11021e-08 -2.42192e-09 -0.000134404)
(-1.63373e-08 1.73558e-08 -0.000134197)
(-1.70482e-08 -4.41807e-09 -0.000134389)
(1.2983e-09 -1.23557e-08 -0.000134337)
(-1.7611e-08 7.76362e-09 -0.000134106)
(-4.26711e-09 -1.23692e-08 -0.000134325)
(1.89532e-08 9.04271e-09 -0.000134091)
(-2.8805e-09 2.05646e-08 -0.000142927)
(-6.52852e-09 -7.54919e-09 -0.000143096)
(-1.91706e-08 2.16341e-08 -0.000142904)
(-1.17357e-08 -2.42477e-09 -0.00014307)
(-3.27769e-09 -1.07581e-08 -0.000143091)
(5.30843e-09 7.73155e-09 -0.000142927)
(1.78054e-09 -9.79596e-09 -0.000143013)
(1.70489e-08 2.1571e-09 -0.000142832)
(-2.93327e-08 6.07465e-09 -0.000142777)
(7.08229e-10 1.20282e-08 -0.000143)
(-8.65494e-09 2.89959e-09 -0.000142952)
(2.25332e-09 1.55337e-08 -0.00014311)
(2.92078e-09 8.5166e-09 -0.000142993)
(-2.78923e-08 4.22371e-09 -0.000142766)
(4.54483e-09 1.05815e-08 -0.000143094)
(-8.73158e-09 1.70871e-09 -0.000142946)
(2.71027e-08 1.16369e-09 -0.00013402)
(-4.54002e-09 1.03314e-08 -0.000134286)
(7.71374e-09 9.32245e-09 -0.0001343)
(-2.53215e-08 7.40048e-10 -0.00013403)
(-8.72479e-09 1e-08 -0.000134282)
(2.40317e-08 -9.93241e-10 -0.000134013)
(8.84529e-09 1.43228e-09 -0.000142976)
(-1.75547e-09 1.70777e-08 -0.000143132)
(-6.17548e-09 8.52419e-09 -0.000142986)
(2.46408e-08 5.28758e-09 -0.000142755)
(-3.09763e-09 1.35885e-08 -0.000143113)
(1.0816e-08 4.24271e-09 -0.000142971)
(-8.77282e-09 1.597e-10 -0.00013429)
(3.45983e-09 -1.78817e-08 -0.000134473)
(7.22871e-09 1.33766e-08 -0.000134437)
(-9.15017e-09 2.53826e-09 -0.000134259)
(4.74886e-09 -1.67362e-08 -0.000134453)
(-1.17811e-08 -3.72221e-09 -0.00013428)
(6.69983e-09 -5.08829e-11 -0.000134292)
(-4.16309e-09 1.49658e-08 -0.000134472)
(7.25044e-09 3.5886e-09 -0.000134255)
(-3.12375e-09 -1.34408e-08 -0.000134444)
(-5.24222e-09 1.30717e-08 -0.000134455)
(9.9365e-09 1.88889e-10 -0.000134282)
(-5.22515e-09 -1.02899e-08 -0.000134424)
(9.7205e-09 -3.9773e-10 -0.000134251)
(-3.46386e-08 -1.04234e-08 -0.000142811)
(-3.92122e-09 -1.31438e-08 -0.00014303)
(2.02872e-09 -1.75642e-08 -0.000143108)
(-1.09769e-08 -6.22594e-09 -0.000142953)
(7.18474e-10 -1.20452e-08 -0.000143021)
(-3.30764e-08 -7.59512e-09 -0.00014281)
(-3.5111e-08 -2.90995e-09 -0.000134052)
(-6.45838e-10 -1.23943e-08 -0.000134322)
(3.05399e-08 -1.8397e-09 -0.000134036)
(-9.51426e-10 -1.07428e-08 -0.000134298)
(5.76464e-09 -1.10882e-08 -0.000134319)
(-3.19313e-08 -1.03129e-09 -0.000134051)
(-5.0017e-09 -1.28402e-08 -0.000134299)
(3.06958e-08 -5.71202e-10 -0.000134026)
(6.85641e-09 7.53027e-10 -0.000142928)
(-8.59181e-10 -1.71176e-08 -0.000143086)
(3.02371e-08 -8.06353e-09 -0.000142783)
(3.37977e-09 -1.27598e-08 -0.000142997)
(-3.45456e-09 -1.55764e-08 -0.000143063)
(9.83259e-09 -4.60122e-09 -0.000142912)
(-5.07866e-10 -1.1792e-08 -0.000142998)
(3.28682e-08 -8.29814e-09 -0.000142774)
(-2.17287e-08 2.20637e-09 -0.000142764)
(1.08068e-08 5.95424e-09 -0.000143)
(-6.72311e-09 -1.88453e-09 -0.000142932)
(6.07578e-09 8.10311e-09 -0.000143086)
(1.44846e-08 2.61955e-09 -0.000142989)
(-1.50741e-08 -2.13477e-09 -0.000142774)
(6.07403e-09 4.78658e-09 -0.00014307)
(-5.90485e-09 -4.03966e-09 -0.000142932)
(2.2743e-08 -2.36662e-09 -0.000134004)
(-9.60291e-09 1.13129e-08 -0.000134296)
(1.82638e-08 7.08574e-09 -0.000134302)
(-1.95248e-08 -6.89867e-09 -0.000134028)
(-2.00103e-08 9.45861e-09 -0.000134293)
(2.07271e-08 -5.30058e-09 -0.000134018)
(6.88634e-09 2.16862e-10 -0.000142957)
(-2.63601e-09 1.36153e-08 -0.000143106)
(-1.52157e-08 2.21446e-09 -0.000142977)
(1.66288e-08 2.50581e-09 -0.000142771)
(-7.02943e-09 5.17091e-09 -0.000143087)
(7.4177e-09 -2.15118e-09 -0.000142947)
(-8.96849e-09 -2.8647e-11 -0.000134257)
(8.37699e-09 -1.37078e-08 -0.000134446)
(1.10054e-08 8.64897e-09 -0.000134418)
(-9.58996e-09 -9.17401e-09 -0.000134227)
(1.0358e-08 -1.03276e-08 -0.000134431)
(-8.32199e-09 3.35993e-09 -0.000134247)
(6.59359e-09 -2.80596e-09 -0.000134259)
(-6.9371e-09 1.23222e-08 -0.000134448)
(6.05115e-09 1.67226e-09 -0.000134231)
(-7.13508e-09 -1.63319e-08 -0.000134415)
(-8.69997e-09 9.21113e-09 -0.000134428)
(7.30751e-09 -6.04639e-09 -0.000134248)
(-1.01698e-08 -8.9242e-09 -0.000134397)
(1.04043e-08 2.09989e-09 -0.00013421)
(-2.55251e-08 -6.42688e-09 -0.0001428)
(9.1485e-09 -6.74945e-09 -0.00014303)
(4.60632e-09 -8.96498e-09 -0.000143081)
(-7.44928e-09 -1.46374e-09 -0.000142931)
(1.26769e-08 -5.37593e-09 -0.000143019)
(-1.71684e-08 -1.31501e-09 -0.000142815)
(-2.72217e-08 -4.97783e-10 -0.000134044)
(1.05785e-08 -8.56538e-09 -0.000134333)
(2.84628e-08 2.19324e-09 -0.000134019)
(-7.71975e-09 -1.16176e-08 -0.000134314)
(1.91742e-08 -6.85191e-09 -0.000134331)
(-2.00492e-08 3.26389e-09 -0.00013406)
(-1.94243e-08 -1.00638e-08 -0.000134316)
(2.13794e-08 3.77349e-09 -0.000134038)
(8.02847e-09 -8.99654e-10 -0.000142891)
(1.35983e-09 -1.69043e-08 -0.000143038)
(2.71911e-08 -8.10506e-09 -0.000142778)
(-3.40709e-09 -1.07011e-08 -0.000143006)
(-4.35156e-09 -6.35767e-09 -0.000143025)
(7.28591e-09 1.79325e-09 -0.000142872)
(-1.36225e-08 -2.47743e-09 -0.000142996)
(1.57075e-08 1.06192e-09 -0.000142781)
(-9.38502e-09 -3.52552e-09 -0.000142764)
(1.97071e-08 -3.43946e-10 -0.000142994)
(-4.62526e-09 -4.42888e-09 -0.000142917)
(4.86394e-09 5.88195e-09 -0.000143073)
(2.2011e-08 -3.0089e-09 -0.000142973)
(-7.95374e-09 -6.96717e-09 -0.000142765)
(5.5895e-09 7.06293e-09 -0.000143053)
(-4.11729e-09 -6.88901e-09 -0.000142915)
(1.33872e-08 -7.88812e-09 -0.000134006)
(-2.45559e-08 3.87076e-09 -0.000134301)
(2.6782e-08 1.47342e-09 -0.000134287)
(-8.49457e-09 -9.53019e-09 -0.000134026)
(-2.53037e-08 4.51513e-10 -0.000134284)
(8.48011e-09 -1.22701e-08 -0.000134015)
(4.54023e-09 -6.00192e-09 -0.000142934)
(-5.36702e-09 3.73071e-09 -0.000143085)
(-2.29474e-08 -3.33627e-09 -0.000142972)
(8.9477e-09 -4.96775e-09 -0.00014276)
(-6.97668e-09 2.66273e-09 -0.000143063)
(4.87809e-09 -4.88276e-09 -0.000142933)
(-6.55134e-09 7.02969e-09 -0.00013423)
(3.9122e-09 -7.87646e-09 -0.000134419)
(6.00666e-09 9.8075e-09 -0.000134396)
(-1.06523e-08 -7.37792e-09 -0.000134217)
(3.48081e-09 -1.05619e-08 -0.000134413)
(-8.00705e-09 5.43324e-09 -0.000134234)
(6.58156e-09 -9.54233e-09 -0.000134231)
(-8.44958e-09 8.21156e-09 -0.000134425)
(6.95729e-09 9.79926e-09 -0.000134195)
(-8.43828e-09 -6.03133e-09 -0.000134394)
(-5.98253e-09 8.57866e-09 -0.000134403)
(1.03261e-08 -6.65412e-09 -0.000134229)
(-5.49049e-09 -8.24956e-09 -0.000134375)
(9.5705e-09 7.18746e-09 -0.000134199)
(-1.51599e-08 1.9184e-09 -0.000142797)
(1.85006e-08 9.26161e-10 -0.000143024)
(3.9408e-09 -8.69079e-09 -0.000143074)
(-4.5444e-09 7.7396e-09 -0.000142917)
(1.89452e-08 -1.34009e-09 -0.000143)
(-9.1208e-09 3.49936e-09 -0.00014281)
(-1.65623e-08 4.37031e-09 -0.000134052)
(2.14995e-08 -4.00673e-09 -0.000134335)
(1.5871e-08 5.39454e-09 -0.00013403)
(-2.32865e-08 -2.65799e-09 -0.000134307)
(2.43117e-08 -3.40265e-09 -0.000134313)
(-1.04487e-08 1.05041e-08 -0.000134057)
(-2.74532e-08 -1.34456e-09 -0.00013429)
(9.33544e-09 1.2014e-08 -0.00013403)
(3.20801e-09 7.79434e-09 -0.000142866)
(-3.26346e-09 -7.538e-09 -0.000143032)
(1.10731e-08 3.92258e-09 -0.000142773)
(-2.01296e-08 9.4328e-10 -0.000142995)
(-7.01852e-09 -5.47196e-09 -0.000143018)
(6.20856e-09 4.07579e-09 -0.000142868)
(-2.02382e-08 8.2821e-10 -0.000142976)
(9.14866e-09 4.49282e-09 -0.000142775)
(-3.17014e-09 -8.69331e-09 -0.000142745)
(2.25764e-08 1.06443e-09 -0.000142978)
(-6.70885e-09 -4.84466e-09 -0.000142888)
(5.80622e-09 4.51641e-09 -0.000143048)
(1.67752e-08 3.59158e-09 -0.000142967)
(-9.53269e-09 -6.81212e-09 -0.000142748)
(8.56547e-09 1.48567e-09 -0.00014304)
(-2.71334e-09 -8.19128e-09 -0.000142892)
(1.09144e-08 -1.21821e-08 -0.000133998)
(-1.71816e-08 5.47701e-09 -0.000134292)
(1.85917e-08 5.97686e-09 -0.000134269)
(-9.50626e-09 -5.64546e-09 -0.000134011)
(-1.98088e-08 5.85139e-09 -0.000134276)
(1.14187e-08 -4.26637e-09 -0.000134014)
(6.04804e-09 -8.23361e-09 -0.000142903)
(-6.37457e-09 5.61531e-09 -0.000143068)
(-1.50835e-08 8.86558e-10 -0.000142961)
(1.23703e-08 -3.57529e-09 -0.000142748)
(-1.34263e-08 -3.44899e-09 -0.000143066)
(4.43765e-09 -1.11728e-08 -0.000142906)
(-1.21121e-08 9.26843e-09 -0.000134216)
(9.59452e-09 -5.80022e-09 -0.000134423)
(1.00812e-08 3.64277e-09 -0.000134376)
(-6.00252e-09 -6.29135e-09 -0.000134194)
(9.72938e-09 -4.89318e-09 -0.000134412)
(-5.79208e-09 9.22414e-09 -0.000134224)
(9.70993e-09 -1.06112e-08 -0.000134211)
(-7.4719e-09 8.51823e-09 -0.000134407)
(1.01514e-08 9.32686e-09 -0.000134184)
(-5.35185e-09 -7.88029e-09 -0.000134381)
(-1.33479e-08 3.71563e-09 -0.000134399)
(7.71459e-09 -1.08515e-08 -0.000134211)
(-7.31594e-09 -6.33268e-09 -0.000134372)
(6.44461e-09 6.60167e-09 -0.000134185)
(-8.36206e-09 6.96833e-09 -0.000142772)
(1.88083e-08 -1.47051e-09 -0.000142996)
(7.03381e-09 -2.74707e-09 -0.000143075)
(-2.58466e-09 8.03349e-09 -0.000142912)
(9.89022e-09 -5.68031e-09 -0.00014298)
(-1.22049e-08 5.0852e-09 -0.000142775)
(-1.49638e-08 9.94919e-09 -0.000134032)
(1.89684e-08 -5.05802e-09 -0.000134311)
(1.08126e-08 1.02072e-08 -0.00013401)
(-1.48091e-08 -5.41376e-09 -0.000134293)
(1.68265e-08 -8.47426e-09 -0.000134288)
(-1.47722e-08 5.74333e-09 -0.00013403)
(-1.7059e-08 -4.60151e-09 -0.000134276)
(1.50911e-08 6.4368e-09 -0.000134013)
(5.21382e-09 5.86763e-09 -0.000142848)
(-2.97382e-09 -1.1625e-08 -0.000143017)
(8.76844e-09 7.05321e-09 -0.000142747)
(-1.30138e-08 -2.72503e-09 -0.000142979)
(-8.68487e-09 -2.99567e-09 -0.000143014)
(4.83788e-09 9.05857e-09 -0.000142849)
(-1.45228e-08 -2.55787e-09 -0.000142965)
(1.12741e-08 4.29135e-09 -0.000142755)
(-1.04279e-08 -3.516e-09 -0.00014273)
(1.39297e-08 2.87765e-09 -0.000142954)
(-2.80616e-09 -1.0001e-08 -0.00014288)
(8.39464e-09 2.0006e-09 -0.000143033)
(1.40183e-08 7.00754e-10 -0.000142945)
(-1.36589e-08 -4.28738e-09 -0.000142728)
(4.07774e-09 5.48261e-09 -0.000143026)
(-4.51547e-09 -9.69825e-09 -0.000142876)
(1.43395e-08 -4.92289e-09 -0.000134003)
(-1.87286e-08 9.6483e-09 -0.000134273)
(1.65593e-08 3.16365e-09 -0.000134251)
(-1.55218e-08 -5.67824e-09 -0.000133989)
(-1.52777e-08 3.12133e-09 -0.000134249)
(1.60086e-08 -3.98301e-09 -0.000133996)
(-9.27147e-10 -1.10362e-08 -0.000142906)
(-1.07694e-08 9.36776e-10 -0.000143052)
(-1.6499e-08 2.43062e-09 -0.000142944)
(1.46923e-08 -1.42174e-09 -0.000142725)
(-7.15025e-09 2.20476e-09 -0.000143041)
(4.814e-09 -1.10231e-08 -0.000142902)
(-5.81077e-09 1.14711e-08 -0.000134221)
(1.07353e-08 -5.14682e-09 -0.000134406)
(8.06694e-09 5.64071e-09 -0.000134362)
(-5.91594e-09 -1.1162e-08 -0.000134179)
(9.24167e-09 -4.6694e-09 -0.000134392)
(-3.02998e-09 8.65713e-09 -0.000134216)
(5.11627e-09 -1.66877e-08 -0.000134209)
(-1.12623e-08 2.97812e-09 -0.000134398)
(6.98035e-09 1.40237e-08 -0.000134181)
(-1.15335e-08 -7.06391e-09 -0.000134378)
(-1.08044e-08 5.40391e-09 -0.00013439)
(6.37536e-09 -1.51405e-08 -0.000134206)
(-8.16546e-09 -6.56296e-09 -0.000134362)
(5.11442e-09 7.02858e-09 -0.000134185)
(-1.65709e-08 -2.25485e-09 -0.000142755)
(1.27752e-08 -3.26355e-09 -0.000142968)
(6.64722e-09 -6.59562e-09 -0.000143052)
(-4.84115e-09 8.23941e-09 -0.000142895)
(1.36464e-08 -2.76048e-09 -0.000142958)
(-1.4207e-08 2.86649e-10 -0.000142757)
(-1.86325e-08 4.91501e-09 -0.000134015)
(1.8364e-08 -9.72582e-09 -0.000134288)
(1.74779e-08 4.70099e-09 -0.000134001)
(-2.03407e-08 -8.85595e-09 -0.000134266)
(1.94519e-08 -6.63648e-09 -0.00013427)
(-1.65278e-08 6.67622e-09 -0.000134009)
(-1.52861e-08 -2.43272e-09 -0.000134243)
(1.41882e-08 3.42989e-09 -0.000133992)
(1.82444e-09 1.01014e-08 -0.000142849)
(-1.04655e-08 -6.67664e-09 -0.00014302)
(1.2759e-08 3.01814e-09 -0.000142735)
(-1.68135e-08 -7.16446e-09 -0.000142955)
(-4.87353e-09 -6.18528e-09 -0.000143001)
(5.63255e-09 4.04986e-09 -0.000142848)
(-1.48146e-08 -2.64405e-09 -0.000142941)
(1.42712e-08 1.15895e-10 -0.000142732)
(-1.28752e-08 -2.01123e-09 -0.000142719)
(1.07841e-08 6.74811e-09 -0.000142947)
(-3.91978e-09 -5.98646e-09 -0.000142868)
(8.73335e-09 2.85459e-09 -0.000143023)
(8.79177e-09 2.11551e-09 -0.00014294)
(-1.61337e-08 6.38766e-10 -0.000142724)
(8.20988e-09 1.56419e-09 -0.000143013)
(-3.54886e-10 -1.13286e-08 -0.000142867)
(1.77953e-08 -4.91014e-09 -0.00013398)
(-1.34172e-08 1.05903e-08 -0.000134252)
(1.59888e-08 5.58809e-09 -0.000134232)
(-1.77617e-08 -3.96029e-09 -0.000133989)
(-1.86075e-08 7.8174e-09 -0.000134231)
(2.16979e-08 -3.62413e-09 -0.00013399)
(2.31629e-09 -6.92379e-09 -0.000142891)
(-7.60607e-09 7.613e-09 -0.000143045)
(-7.90489e-09 3.14135e-09 -0.000142931)
(2.0379e-08 3.43294e-09 -0.000142724)
(-9.51185e-09 1.80781e-09 -0.000143042)
(3.40289e-09 -8.31152e-09 -0.00014289)
(-5.4572e-09 1.18206e-08 -0.000134202)
(1.02097e-08 -1.01858e-08 -0.000134392)
(7.58606e-09 8.75297e-09 -0.000134337)
(-4.91818e-09 -1.36767e-08 -0.000134175)
(6.60553e-09 -1.03081e-08 -0.00013437)
(-4.80486e-09 1.04857e-08 -0.000134212)
(2.98654e-09 -1.08853e-08 -0.0001342)
(-1.09079e-08 1.2193e-08 -0.000134391)
(8.95576e-09 1.23096e-08 -0.000134171)
(-7.53762e-09 -1.81366e-08 -0.000134362)
(-6.61257e-09 6.86182e-09 -0.000134364)
(5.13692e-09 -1.14921e-08 -0.000134209)
(-7.8558e-09 -1.03197e-08 -0.000134338)
(8.87848e-09 6.35457e-09 -0.000134179)
(-1.32499e-08 7.71019e-10 -0.000142738)
(1.4058e-08 -5.85991e-09 -0.000142966)
(5.30766e-09 -6.56274e-09 -0.000143048)
(-4.38234e-09 8.16745e-09 -0.000142884)
(1.12083e-08 -4.12729e-09 -0.000142954)
(-1.60413e-08 1.04478e-10 -0.000142749)
(-1.67321e-08 4.71112e-09 -0.000133996)
(2.0847e-08 -8.74279e-09 -0.000134272)
(2.0765e-08 7.24711e-09 -0.000133974)
(-1.48808e-08 -1.06774e-08 -0.000134247)
(1.96725e-08 -3.54987e-09 -0.000134246)
(-1.87995e-08 5.04666e-09 -0.000134009)
(-1.83583e-08 -6.10581e-09 -0.00013422)
(2.21069e-08 6.65132e-09 -0.000133982)
(4.56939e-09 5.3933e-09 -0.00014284)
(-6.8397e-09 -1.30006e-08 -0.000143007)
(1.60601e-08 6.15896e-10 -0.000142718)
(-6.36497e-09 -8.62341e-09 -0.000142942)
(-3.62856e-09 -2.35029e-09 -0.00014299)
(4.63037e-09 7.46886e-09 -0.000142832)
(-1.01954e-08 -8.37547e-10 -0.000142926)
(1.64881e-08 -4.65524e-10 -0.000142725)
(-8.66088e-09 -2.00224e-09 -0.000142725)
(-8.21068e-09 1.3387e-08 -0.000142927)
(-5.21327e-09 -1.51108e-09 -0.000142859)
(1.34508e-08 -1.4476e-08 -0.000143)
(-4.71079e-08 3.58706e-08 -0.000142902)
(1.52091e-08 -8.99777e-09 -0.000142737)
(3.90901e-08 -5.59263e-08 -0.000142982)
(-1.24844e-08 1.96941e-08 -0.000142873)
(1.56693e-08 -5.69948e-09 -0.000134005)
(-1.29127e-08 1.00751e-08 -0.000134179)
(-6.52336e-09 1.32573e-08 -0.00013404)
(-9.16512e-09 -1.05681e-08 -0.000134062)
(7.40112e-09 1.07246e-08 -0.000134044)
(5.88996e-09 -1.34594e-08 -0.000134073)
(4.38178e-09 -4.38216e-09 -0.000142887)
(-1.34019e-08 -1.37356e-08 -0.000143024)
(4.65612e-08 3.00298e-08 -0.000142902)
(-1.15042e-08 -1.23528e-08 -0.000142726)
(-3.9604e-08 -5.60075e-08 -0.000143002)
(1.43007e-08 1.93355e-08 -0.000142895)
(-8.48523e-09 6.45016e-09 -0.000134225)
(1.09393e-08 -2.25799e-09 -0.000134314)
(1.89812e-08 -1.82778e-08 -0.000134151)
(-1.12015e-08 -3.78402e-09 -0.000134249)
(1.55101e-08 2.14438e-08 -0.000134185)
(-1.34815e-08 1.19219e-09 -0.00013429)
(6.00349e-09 -1.19857e-08 -0.000134224)
(-1.21142e-08 1.72252e-09 -0.000134311)
(6.44672e-09 9.92719e-09 -0.000134195)
(-1.54319e-08 -3.29377e-09 -0.000134292)
(-1.5035e-08 -2.00397e-08 -0.000134173)
(1.08209e-08 4.79062e-10 -0.000134285)
(-1.54151e-08 1.81081e-08 -0.000134156)
(1.01742e-08 -3.41143e-10 -0.000134263)
(-1.05524e-08 6.05866e-10 -0.000142745)
(-6.88804e-09 -1.09981e-08 -0.000142947)
(3.55363e-08 5.65551e-08 -0.000143017)
(-1.93621e-08 -1.88916e-08 -0.000142887)
(-4.86946e-08 -3.8657e-08 -0.00014293)
(8.86276e-09 9.09187e-09 -0.000142765)
(-1.80937e-08 4.96515e-09 -0.000134019)
(1.16693e-08 -1.18092e-08 -0.000134194)
(1.87307e-08 5.26368e-09 -0.000133995)
(-1.61805e-08 -8.57345e-09 -0.000134155)
(-8.78432e-09 -1.42678e-08 -0.000134056)
(-6.63054e-09 6.16438e-09 -0.000134091)
(5.92858e-09 -1.04337e-08 -0.000134019)
(5.0931e-09 6.57461e-09 -0.000134059)
(3.80543e-09 4.69696e-09 -0.000142837)
(-1.02609e-08 1.33043e-08 -0.000142984)
(1.18434e-08 1.01507e-09 -0.000142718)
(3.48151e-09 -1.02161e-08 -0.000142907)
(-3.63967e-08 5.48514e-08 -0.000142963)
(1.51009e-08 -1.97178e-08 -0.000142848)
(4.50673e-08 -3.4123e-08 -0.000142893)
(-8.46807e-09 9.38684e-09 -0.000142725)
(7.49188e-08 -4.61099e-08 -0.000142739)
(-1.46808e-07 9.21465e-08 -0.000142927)
(-4.66122e-08 7.61199e-08 -0.000142877)
(9.47556e-08 -1.61252e-07 -0.000143004)
(-3.38908e-07 1.98087e-07 -0.000143082)
(1.98995e-07 -1.06575e-07 -0.000142773)
(2.00941e-07 -3.55803e-07 -0.000143161)
(-1.086e-07 1.9965e-07 -0.000142909)
(-2.88679e-08 -2.19692e-08 -0.000134232)
(5.52658e-08 3.41479e-08 -0.000133839)
(-1.05872e-07 5.63559e-08 -0.000133579)
(8.85817e-08 -3.64163e-08 -0.000134532)
(1.0272e-07 5.27339e-08 -0.00013359)
(-8.59179e-08 -4.1046e-08 -0.000134539)
(4.75438e-08 8.03782e-08 -0.000142902)
(-9.49842e-08 -1.55662e-07 -0.000143029)
(3.36884e-07 1.93808e-07 -0.000143085)
(-1.94293e-07 -1.0828e-07 -0.000142789)
(-2.03534e-07 -3.59852e-07 -0.000143179)
(1.15014e-07 2.02773e-07 -0.000142927)
(-2.1239e-08 -3.30897e-08 -0.000134447)
(3.62409e-08 6.74318e-08 -0.000133973)
(5.95251e-08 -1.21665e-07 -0.000133684)
(-3.70998e-08 9.05249e-08 -0.000134719)
(6.02898e-08 1.21359e-07 -0.000133717)
(-4.34267e-08 -8.83793e-08 -0.000134743)
(1.76341e-08 3.32934e-08 -0.000134444)
(-3.52172e-08 -5.82902e-08 -0.000133961)
(2.15719e-08 -3.47966e-08 -0.000134423)
(-3.50987e-08 5.80337e-08 -0.000133944)
(-6.06715e-08 -1.23321e-07 -0.000133703)
(4.48764e-08 9.28409e-08 -0.00013474)
(-6.31413e-08 1.20729e-07 -0.000133684)
(4.32107e-08 -9.70155e-08 -0.000134725)
(7.05031e-08 4.46395e-08 -0.000142766)
(-1.51678e-07 -9.31052e-08 -0.000142951)
(2.05485e-07 3.55284e-07 -0.000143195)
(-1.14321e-07 -2.03808e-07 -0.000142935)
(-3.42533e-07 -1.99559e-07 -0.000143101)
(1.92222e-07 1.08203e-07 -0.000142805)
(2.4844e-08 1.7015e-08 -0.000134243)
(-5.17948e-08 -3.39453e-08 -0.000133848)
(-2.3343e-08 1.78273e-08 -0.000134208)
(5.43919e-08 -3.37661e-08 -0.000133816)
(-1.05451e-07 -5.85196e-08 -0.000133595)
(8.04937e-08 4.25297e-08 -0.000134536)
(1.04463e-07 -5.45248e-08 -0.00013356)
(-7.90813e-08 4.26654e-08 -0.000134509)
(4.45384e-08 -7.98722e-08 -0.000142864)
(-8.90677e-08 1.53946e-07 -0.000142981)
(-6.8821e-08 4.32381e-08 -0.000142734)
(1.54907e-07 -9.1463e-08 -0.000142918)
(-2.07746e-07 3.56302e-07 -0.000143148)
(1.17342e-07 -2.04802e-07 -0.000142884)
(3.35657e-07 -1.93966e-07 -0.000143076)
(-1.93137e-07 1.11527e-07 -0.000142768)
(4.35187e-07 -2.38497e-07 -0.000142825)
(-6.96758e-07 4.02122e-07 -0.000143672)
(-2.41191e-07 4.40499e-07 -0.000142959)
(4.11087e-07 -7.05878e-07 -0.000143766)
(-1.19509e-06 7.52511e-07 -0.000144868)
(8.95742e-07 -4.96872e-07 -0.000143242)
(7.38011e-07 -1.16509e-06 -0.000145004)
(-4.9803e-07 9.0424e-07 -0.000143367)
(-1.8415e-07 -7.76234e-08 -0.000135027)
(1.75504e-07 9.22194e-08 -0.00013351)
(-2.20089e-07 1.89364e-07 -0.000133725)
(3.38007e-07 -1.27534e-07 -0.000136134)