/*--------------------------------*- C++ -*----------------------------------*\
| =========                 |                                                 |
| \\      /  F ield         | OpenFOAM: The Open Source CFD Toolbox           |
|  \\    /   O peration     | Version:  2206                                  |
|   \\  /    A nd           | Website:  www.openfoam.com                      |
|    \\/     M anipulation  |                                                 |
\*---------------------------------------------------------------------------*/
FoamFile
{
    version     2.0;
    format      ascii;
    arch        "LSB;label=32;scalar=64";
    class       volVectorField;
    location    "350";
    object      momentError;
}
// * * * * * * * * * * * * * * * * * * * * * * * * * * * * * * * * * * * * * //

dimensions      [0 1 -2 0 0 0 0];

internalField   nonuniform List<vector> 
10720
(
(-0.00118417 0.00597986 -4.16201e-15)
(-0.000812769 0.00585257 -2.4653e-15)
(-2.02341e-05 0.00381484 -2.15853e-14)
(0.000269156 0.00360238 9.99222e-14)
(0.000479074 0.00320398 7.4737e-14)
(0.000609547 0.00278978 -1.85132e-13)
(0.000699688 0.00237718 -1.39568e-13)
(0.000706154 0.00193629 -1.0761e-13)
(0.000654131 0.00155576 2.155e-14)
(0.000566913 0.00119588 5.47631e-15)
(0.000460103 0.000981737 -1.55952e-14)
(0.000151433 0.000470882 6.73773e-14)
(-7.80818e-05 0.000164536 -2.19369e-13)
(-0.000276421 -8.58706e-05 -4.01244e-13)
(-0.000515512 -0.000321568 7.43299e-14)
(-0.00078423 -0.00054275 -1.06088e-13)
(-0.00110092 -0.000732984 1.15545e-13)
(-0.00153913 -0.000895091 8.86582e-13)
(-0.00171768 -0.000927297 2.34708e-13)
(-0.00230855 -0.00115653 -4.66655e-13)
(-0.00328827 -0.00129203 -2.3125e-13)
(-0.000896374 3.72705e-05 9.58856e-14)
(0.0074611 0.00139743 3.38066e-13)
(0.0287328 0.00504779 -2.47233e-13)
(0.00930189 0.0033889 4.5911e-14)
(-0.0108867 1.59659e-05 -4.01601e-14)
(-0.0152358 -0.00260382 -6.94568e-14)
(-0.00731834 -0.00297541 1.31249e-14)
(-0.000915327 -0.00196815 1.00898e-14)
(0.0015608 -0.000794151 2.09892e-13)
(0.00206654 -0.000144028 1.55006e-13)
(0.00125237 2.76323e-05 -1.77284e-13)
(0.000188949 2.10817e-05 -1.33398e-13)
(9.27934e-05 -2.29956e-05 -2.39295e-13)
(4.89999e-05 9.39681e-05 -1.59696e-13)
(-0.000438369 0.00131106 1.54544e-13)
(0.00111873 0.0115395 -1.08647e-14)
(0.0531599 0.0720659 -5.81128e-16)
(1.0912 -0.120142 -6.3507e-14)
(-0.00133379 0.0054981 8.10794e-15)
(-0.0014213 0.00448406 -2.00069e-14)
(-0.00138331 0.00335405 2.2919e-14)
(-0.00117329 0.00234215 1.04289e-13)
(-0.000953441 0.00160068 3.60714e-14)
(-0.00076874 0.00101124 -2.84886e-13)
(-0.000340252 0.000389257 -1.55809e-13)
(-0.000109318 0.000153976 1.61073e-13)
(-0.000207515 0.000225564 -6.37522e-14)
(-0.000415295 0.000387615 5.91472e-14)
(-0.000413009 0.000266215 -8.07566e-14)
(-0.000293118 0.000151672 -1.38036e-13)
(-0.000243803 0.00011565 3.60451e-14)
(-0.000220234 9.43097e-05 7.11228e-14)
(-0.000187721 7.23222e-05 -1.17395e-13)
(-0.000154962 5.73692e-05 -1.01458e-13)
(-0.000131827 4.79673e-05 -7.23991e-14)
(-0.000114271 4.09911e-05 -8.85856e-14)
(-9.93274e-05 3.48533e-05 -3.26383e-14)
(-8.63594e-05 2.97183e-05 -2.83433e-15)
(-7.5504e-05 2.48227e-05 3.10527e-14)
(-6.58562e-05 2.06102e-05 6.26798e-14)
(-5.72377e-05 1.6114e-05 -2.99168e-14)
(-4.75451e-05 1.23735e-05 -2.12866e-14)
(-3.62706e-05 8.8094e-06 2.58194e-14)
(-2.49008e-05 8.55202e-06 -4.02079e-15)
(-1.62123e-05 7.64594e-06 -9.91345e-16)
(-1.11509e-05 -9.1915e-07 -2.05168e-15)
(-6.97872e-06 -6.82359e-06 4.7169e-16)
(-4.50842e-06 -7.1002e-06 1.09704e-16)
(1.67722e-06 -4.90383e-06 4.97574e-16)
(1.44228e-05 -3.92563e-06 -1.32934e-15)
(3.95157e-05 -1.18913e-06 -2.52098e-15)
(3.87348e-05 -5.28013e-07 -4.07097e-15)
(4.02998e-05 -2.89262e-06 -5.35966e-15)
(5.22423e-05 -4.94515e-06 -2.34925e-15)
(0.000254595 8.0035e-06 1.28087e-14)
(0.000327121 -0.000169577 -3.38233e-15)
(0.00189732 -0.00152736 -5.83454e-14)
(0.000489856 0.00421272 -3.8792e-15)
(0.000851995 0.00408483 2.20468e-15)
(0.00109843 0.00275968 -1.98295e-17)
(0.00141572 0.00264238 -7.55973e-15)
(0.00161436 0.00241622 9.99796e-15)
(0.00173321 0.0021445 6.72021e-14)
(0.00184609 0.00184798 8.02743e-14)
(0.00187691 0.00155259 2.64623e-14)
(0.00183399 0.00127725 -8.61545e-14)
(0.00177748 0.0010466 -4.18896e-14)
(0.00164482 0.000786638 -2.56354e-13)
(0.00163 0.000962008 -4.72154e-13)
(0.00158058 0.000988069 -2.36377e-14)
(0.00155265 0.000907916 -2.07037e-14)
(0.00134993 0.00091593 -8.27859e-14)
(0.00116547 0.000913217 8.65169e-14)
(0.00100874 0.000918061 3.88944e-13)
(0.000800984 0.00088706 -6.87354e-13)
(0.00105302 0.000628712 -5.72214e-13)
(0.0059411 -7.77319e-05 -3.58388e-13)
(0.00125552 0.000419392 2.1527e-13)
(-0.00393331 0.00258821 2.96344e-13)
(0.0186076 0.0097844 -3.85742e-13)
(-0.0577234 -0.00310568 5.93554e-14)
(-0.106489 -0.0170295 -2.10263e-15)
(-0.0414063 -0.00970764 -1.16555e-14)
(0.0110399 -0.00558905 -4.082e-15)
(0.0364663 -0.00132963 1.23269e-14)
(0.0118562 -0.00063629 -2.74862e-14)
(-0.000565636 -0.000295352 -1.02192e-14)
(-0.00117522 0.000106863 9.34216e-15)
(1.4423e-05 0.000185476 -5.55452e-15)
(0.000655076 -4.3481e-05 -1.14721e-13)
(0.000665447 -0.000113537 -7.19256e-14)
(0.000268789 1.46044e-05 1.60267e-13)
(-0.00037785 0.000429325 2.84504e-14)
(-0.00105127 0.00231681 6.35363e-14)
(-0.0319283 0.0143846 -1.17533e-14)
(-0.892392 0.108739 -3.25939e-14)
(0.000253299 0.00394412 -1.6393e-14)
(-4.57751e-05 0.00328885 1.50201e-13)
(-0.000282411 0.00256536 -4.71461e-14)
(-0.000385597 0.00199384 -1.15845e-13)
(-0.000449114 0.00147635 8.2858e-14)
(-0.000455341 0.000984115 6.69284e-14)
(-0.000301643 0.000546157 2.91286e-14)
(-0.000210854 0.000349649 1.54082e-13)
(-0.000283071 0.000337191 -3.02384e-15)
(-0.000399615 0.000340968 -4.39918e-14)
(-0.000423096 0.000216976 7.29944e-14)
(-0.00036712 0.000130827 -9.49622e-14)
(-0.000322424 9.13181e-05 1.99584e-14)
(-0.000290498 5.79879e-05 1.04084e-14)
(-0.000254298 3.08942e-05 2.46893e-14)
(-0.000217503 1.71296e-05 2.76961e-14)
(-0.000188371 1.02804e-05 4.69675e-14)
(-0.000165463 6.32253e-06 -1.40531e-14)
(-0.000146124 3.41644e-06 3.03491e-15)
(-0.000129517 1.3482e-06 -7.01897e-15)
(-0.00011531 -6.4705e-07 1.82711e-14)
(-0.000102819 -2.58112e-06 5.30095e-14)
(-9.12171e-05 -4.8088e-06 -8.85864e-16)
(-7.89156e-05 -8.08336e-06 -1.76485e-14)
(-6.53533e-05 -1.12161e-05 -1.49698e-14)
(-5.2055e-05 -1.33687e-05 2.14099e-14)
(-3.95907e-05 -1.36146e-05 6.15526e-15)
(-2.91314e-05 -1.23864e-05 -1.60848e-15)
(-2.15419e-05 -9.45192e-06 4.65884e-17)
(-1.43317e-05 -6.38565e-06 -1.06161e-16)
(-7.89713e-06 -5.73631e-06 -1.99663e-16)
(-6.93431e-07 -3.73496e-06 -4.30148e-16)
(6.62355e-06 -8.94128e-07 2.17577e-15)
(5.23796e-06 9.72491e-07 2.41637e-15)
(-2.99636e-06 -1.88592e-06 2.74957e-15)
(9.38378e-05 -3.72357e-06 -7.42647e-15)
(7.26909e-05 -7.23536e-06 7.85555e-16)
(0.000143582 -7.58822e-06 1.33746e-14)
(0.00137285 0.00016851 1.57994e-14)
(-0.000164814 0.00334116 2.10287e-15)
(1.5884e-05 0.00320188 -1.43624e-15)
(0.000230252 0.00226671 -2.62837e-15)
(0.000396738 0.00226708 1.35994e-15)
(0.000510225 0.00214857 5.77464e-14)
(0.000604693 0.00195307 -6.42751e-14)
(0.000692172 0.00176507 -8.81819e-14)
(0.000733113 0.00156217 1.60622e-13)
(0.000734661 0.00135422 6.56138e-14)
(0.000715473 0.00116508 8.88374e-14)
(0.00066944 0.000994212 2.0494e-14)
(0.000602769 0.000812938 -7.66808e-16)
(0.000535955 0.000632965 3.55642e-13)
(0.000438196 0.00050307 1.20177e-14)
(0.000455021 0.000353566 2.16432e-13)
(0.000536467 0.000231876 1.20569e-15)
(0.000557578 0.000246786 -6.83829e-13)
(0.000546244 0.000441886 4.1192e-13)
(0.000143038 0.00190017 9.19863e-13)
(-0.00431152 0.00429424 1.65783e-13)
(-0.00138353 -0.000764146 -2.66322e-14)
(-0.000319188 -0.00724942 -6.79688e-14)
(-0.037565 -0.00867149 1.64973e-13)
(0.0016834 0.0025088 1.18985e-13)
(0.0561222 0.0169658 -9.77136e-14)
(0.0425617 0.00626382 -2.18434e-14)
(0.0592402 0.00254644 -5.62673e-14)
(0.00866763 0.000357174 3.08579e-14)
(-0.0239363 -0.00230562 -2.82471e-14)
(-0.0017507 -0.000730431 -1.56277e-13)
(-0.00218337 0.000701932 -7.79979e-15)
(0.000273501 0.000911654 2.37324e-13)
(0.000490001 0.000421594 3.59807e-14)
(0.000791254 0.000134717 1.12196e-13)
(4.78265e-05 0.00016549 1.33263e-13)
(-0.000951764 0.000463634 2.20502e-14)
(-0.00283917 0.00147297 -8.48546e-14)
(-0.0164329 0.00219489 8.48875e-15)
(-0.113145 0.00980192 1.56798e-14)
(-0.000291245 0.00316263 2.43123e-14)
(-0.000373498 0.00267664 -3.70451e-14)
(-0.000425019 0.00209944 -4.65078e-14)
(-0.000448377 0.00168912 -1.31017e-14)
(-0.000433884 0.00129885 1.12875e-14)
(-0.000385885 0.000920078 -1.20769e-13)
(-0.000287428 0.000570399 2.34696e-14)
(-0.000259911 0.000437337 -1.49193e-13)
(-0.000337804 0.000418381 -1.24958e-13)
(-0.000410039 0.000375946 -1.15755e-13)
(-0.000420577 0.000290007 1.18264e-13)
(-0.000381599 0.000221696 1.03764e-13)
(-0.000337188 0.000174079 -6.4644e-14)
(-0.000298902 0.000133332 -1.48449e-13)
(-0.000260869 0.000100969 4.05276e-14)
(-0.000223324 7.95988e-05 6.98173e-14)
(-0.000191726 6.49501e-05 -1.89663e-14)
(-0.000166604 5.37532e-05 -9.26376e-14)
(-0.000145822 4.47161e-05 -2.68359e-14)
(-0.000128227 3.73029e-05 2.52973e-15)
(-0.000113396 3.05925e-05 -2.07017e-14)
(-0.000100565 2.4373e-05 -4.13931e-14)
(-8.86343e-05 1.79782e-05 9.12895e-15)
(-7.60287e-05 1.15472e-05 -6.39713e-16)
(-6.23848e-05 6.10604e-06 2.87575e-15)
(-4.90839e-05 2.44731e-06 -9.68857e-15)
(-3.70284e-05 7.80032e-07 -1.78549e-14)
(-2.66649e-05 -5.8675e-07 3.97436e-15)
(-1.83587e-05 -2.01996e-06 7.53573e-16)
(-1.15654e-05 -4.10088e-06 -1.71175e-16)
(-4.94181e-06 -5.22536e-06 1.19224e-16)
(4.2456e-06 -6.34285e-06 4.70821e-16)
(1.98676e-05 -5.56243e-06 -7.56494e-16)
(1.92347e-05 3.33832e-07 -1.43184e-15)
(2.92264e-05 -1.60587e-05 6.41905e-16)
(0.000103334 -8.04164e-05 -1.15908e-15)
(0.000251387 -3.2069e-05 8.75184e-15)
(0.00017608 -1.99653e-05 8.12833e-15)
(0.00105154 0.000188462 -8.31835e-14)
(0.000144271 0.00262581 1.0519e-14)
(0.000313249 0.0024859 2.79022e-15)
(0.000447295 0.00182814 1.07558e-15)
(0.000606943 0.00183257 -6.51974e-15)
(0.000716897 0.00171862 1.03468e-15)
(0.000810889 0.00155131 -1.4523e-14)
(0.000903821 0.00139222 1.04191e-13)
(0.000952095 0.0012172 3.08601e-14)
(0.000967452 0.00103692 -2.52696e-13)
(0.000962831 0.000870312 8.50937e-14)
(0.000929493 0.00071335 2.72093e-13)
(0.000873639 0.000568432 3.41585e-13)
(0.000793243 0.00045915 7.87867e-14)
(0.000699183 0.000385447 -3.85247e-13)
(0.000633538 0.000306826 -9.78832e-14)
(0.000427003 0.000362601 -9.90273e-14)
(0.00027769 0.000367982 -1.79032e-13)
(0.000143076 0.000382283 -3.62122e-13)
(-0.000138687 0.000191465 -6.29137e-13)
(-0.000197012 -0.00159051 1.5905e-13)
(-0.00016801 -0.000896787 -1.26901e-13)
(0.00398975 0.00486925 -1.78371e-13)
(0.0133618 0.0071999 2.33656e-15)
(0.00935718 0.00432545 -2.52304e-13)
(-0.00185321 -0.00260309 -4.63965e-14)
(-7.45673e-05 -0.00809728 4.39723e-14)
(-0.0619855 0.0014188 5.28109e-14)
(0.024333 -3.44408e-05 -2.40925e-14)
(0.0773907 -0.00317962 3.34855e-14)
(-0.0272939 0.00673448 6.48545e-14)
(-0.00421056 -0.00135596 -5.63659e-14)
(-0.0169858 0.00154668 1.21477e-14)
(-0.00617113 0.000233587 1.77474e-13)
(-0.000864065 0.000363807 8.07523e-14)
(-0.000158785 0.000358587 -3.26371e-14)
(-0.00111042 0.000588321 -1.08664e-13)
(-0.00204591 0.00100751 -2.72138e-14)
(-0.00689973 4.13206e-06 -1.97136e-14)
(-0.0334338 0.00903278 5.50492e-14)
(2.84536e-06 0.00249422 -1.74169e-15)
(-0.000120959 0.00216226 -3.89797e-14)
(-0.000223922 0.00173924 -3.45699e-14)
(-0.000294642 0.00144806 -2.81658e-14)
(-0.000327517 0.00114685 1.13965e-13)
(-0.000315961 0.000842129 2.05743e-13)
(-0.000264478 0.000569718 1.1748e-14)
(-0.00027292 0.000483798 1.41479e-13)
(-0.000361061 0.0004748 5.38613e-16)
(-0.000406028 0.000410005 -3.11156e-14)
(-0.000413612 0.000323978 -9.0112e-14)
(-0.000390564 0.000248386 -2.98111e-14)
(-0.000354201 0.000188077 -1.54205e-14)
(-0.000317361 0.000139244 7.44052e-14)
(-0.000280781 0.000100633 -3.90147e-14)
(-0.000244273 7.25928e-05 -1.32292e-13)
(-0.000211949 5.30701e-05 -1.68069e-14)
(-0.00018503 3.90671e-05 8.63549e-14)
(-0.000162375 2.85947e-05 -2.61243e-15)
(-0.000142923 2.06954e-05 -2.43513e-14)
(-0.000126325 1.42638e-05 -6.56403e-14)
(-0.000111779 8.80388e-06 2.67988e-14)
(-9.81257e-05 3.52332e-06 3.5216e-14)
(-8.39453e-05 -1.56968e-06 -6.07091e-15)
(-6.91384e-05 -5.83447e-06 -2.76244e-15)
(-5.49769e-05 -8.65127e-06 6.02221e-15)
(-4.21777e-05 -9.90918e-06 8.66018e-15)
(-3.0959e-05 -1.05942e-05 -2.03052e-15)
(-2.16188e-05 -1.05527e-05 -7.46395e-16)
(-1.37319e-05 -1.03126e-05 1.85007e-16)
(-5.94856e-06 -8.69096e-06 -1.01295e-16)
(5.48698e-06 5.93783e-07 -1.65066e-16)
(2.44782e-05 2.14945e-05 6.51091e-17)
(-1.47537e-05 -0.000115227 -2.61981e-16)
(-0.000688421 -0.00228728 -2.03336e-15)
(-0.000429757 -0.00182564 1.47241e-14)
(-9.0418e-06 -0.0002573 -2.21194e-14)
(0.000273944 0.000685087 -5.54572e-14)
(0.000943385 0.000143203 -3.03424e-14)
(3.40583e-05 0.00216376 -8.9273e-15)
(0.000145238 0.00204037 4.80158e-15)
(0.000238718 0.0015583 4.19134e-15)
(0.000350377 0.00158868 -1.73983e-14)
(0.000425849 0.00150948 -1.48412e-14)
(0.000493815 0.00138626 3.52309e-14)
(0.000563945 0.00128398 -1.29233e-14)
(0.000600047 0.00116124 1.36904e-14)
(0.000616163 0.0010303 -9.40623e-14)
(0.000617265 0.00090911 -2.87274e-13)
(0.000595163 0.000790881 -1.03066e-14)
(0.000555284 0.000680647 -1.25281e-13)
(0.000499584 0.000585668 -8.11766e-14)
(0.000437931 0.000503019 -1.43814e-14)
(0.0003648 0.000439534 -3.30103e-13)
(0.000318665 0.00035059 2.99779e-13)
(0.000286366 0.000276202 1.71948e-13)
(0.000244438 0.000256164 -3.86703e-13)
(0.000105045 0.000233053 1.22222e-13)
(1.58317e-05 0.000310324 -2.00977e-13)
(2.22853e-05 0.000448783 -1.39521e-13)
(-0.000167257 0.000166595 2.51199e-13)
(0.00108031 0.00111756 6.09763e-15)
(-0.00309487 0.00144053 2.21508e-13)
(-0.000588856 0.000886933 1.01109e-13)
(-0.004156 -0.00399614 -2.04668e-14)
(0.0358351 -0.013014 6.24807e-15)
(-0.0136108 -0.00258312 2.47297e-14)
(-0.0329138 0.00152115 -3.01111e-14)
(0.00524035 0.00333276 -5.40635e-14)
(0.0130025 0.00490449 2.183e-14)
(-0.00964169 -0.0018103 -5.27669e-14)
(-0.00541597 0.000112305 -4.00093e-14)
(-0.00517773 0.000298587 -1.49116e-13)
(-0.00216485 0.000431959 -2.39474e-13)
(-0.00234624 0.000628626 4.13545e-14)
(-0.00197031 0.000842065 -1.05372e-14)
(-0.00416943 -0.000411308 -9.33073e-15)
(-0.0199399 0.00925409 -1.94164e-14)
(-6.20409e-05 0.00205804 2.00435e-14)
(-0.00013622 0.00180526 3.82112e-14)
(-0.000200206 0.00146781 -5.04896e-14)
(-0.000251313 0.00124542 -1.94947e-14)
(-0.000279736 0.00100665 7.47227e-14)
(-0.000274054 0.000764264 -1.50772e-13)
(-0.000260392 0.000589471 -9.96693e-14)
(-0.000291568 0.0005243 2.05202e-13)
(-0.000361056 0.000492724 1.92425e-13)
(-0.000395435 0.000425935 -8.41771e-15)
(-0.000401166 0.000348589 -5.58734e-14)
(-0.000384946 0.000277368 -3.47728e-14)
(-0.000354276 0.00021721 1.17142e-13)
(-0.000319764 0.000168091 -5.81142e-14)
(-0.000284989 0.000128815 -1.30474e-14)
(-0.000249803 9.8744e-05 9.83222e-14)
(-0.00021773 7.67606e-05 -4.44038e-14)
(-0.000190025 6.05674e-05 4.07395e-14)
(-0.000166401 4.80873e-05 2.43687e-14)
(-0.000145988 3.82413e-05 4.24646e-15)
(-0.000128466 2.99537e-05 6.83453e-14)
(-0.000113101 2.27618e-05 -2.56256e-14)
(-9.87323e-05 1.58329e-05 -4.77255e-14)
(-8.40257e-05 9.30418e-06 -7.62228e-15)
(-6.89775e-05 3.83319e-06 1.90815e-14)
(-5.47353e-05 1.39687e-07 6.49203e-16)
(-4.18287e-05 -1.82118e-06 9.25418e-15)
(-3.04783e-05 -2.8692e-06 -1.7359e-15)
(-2.0982e-05 -3.25882e-06 1.12356e-16)
(-1.30361e-05 -4.10668e-06 -2.76241e-16)
(-5.35967e-06 -5.60547e-06 -5.07308e-16)
(4.19975e-06 -1.44193e-05 4.13346e-17)
(1.51345e-05 -3.17194e-05 3.86347e-17)
(-2.21696e-06 0.000234977 4.80501e-16)
(0.000229418 0.00339181 -1.39349e-15)
(0.000155099 0.00261816 5.36369e-15)
(0.000212384 0.000291456 1.74705e-15)
(0.000278494 -0.000728794 -1.14587e-14)
(0.000769446 0.000255831 4.31174e-14)
(6.93107e-05 0.0017907 2.18008e-15)
(0.000166397 0.001681 -4.30818e-16)
(0.000238751 0.00132147 2.42885e-15)
(0.000337889 0.00134946 -3.3515e-15)
(0.000404627 0.00127985 1.12914e-14)
(0.00046538 0.00117634 -1.49517e-15)
(0.000530952 0.00109255 -4.20242e-14)
(0.000568053 0.000988382 7.85357e-14)
(0.000589717 0.000876308 1.69732e-13)
(0.00060004 0.000770356 -1.05791e-13)
(0.000589233 0.00066439 -1.08082e-13)
(0.000562979 0.000562808 6.48647e-14)
(0.000523491 0.000472271 -1.49796e-13)
(0.000471841 0.000395124 -2.85024e-14)
(0.000412702 0.000331882 -4.61257e-14)
(0.00035649 0.000274028 1.98239e-14)
(0.000258369 0.000300418 4.028e-14)
(0.000181321 0.00033281 4.46989e-13)
(7.81957e-05 0.000342172 3.53055e-13)
(-8.70339e-05 0.000427743 -1.57621e-13)
(-0.000148393 0.000822883 2.26017e-13)
(-7.32918e-06 0.00131871 1.87445e-14)
(-0.000214383 0.00203305 -5.7082e-14)
(0.00129307 0.00330081 -1.18266e-13)
(0.00283057 0.00179694 9.30105e-15)
(0.00338682 -0.00199134 3.23157e-14)
(0.000118849 -0.00495314 4.00192e-14)
(-0.0125792 -0.00269796 -3.7862e-14)
(-0.0065069 0.000722435 9.83886e-15)
(0.0297607 -0.00137963 7.59901e-14)
(-0.0133341 0.00364902 -2.97432e-14)
(0.00737683 -0.000592434 -1.6724e-13)
(-0.00142608 -0.000323203 -8.93899e-14)
(-0.00096081 -0.000296599 -6.14257e-14)
(-0.000750131 3.26748e-05 6.35046e-14)
(-0.00126206 -6.1612e-05 5.72835e-14)
(-0.00194 0.000857806 5.81208e-14)
(-0.00410107 -0.000346157 6.38815e-14)
(-0.0167766 0.00972876 -1.0218e-15)
(-1.67343e-05 0.00170773 -9.13882e-15)
(-8.75158e-05 0.00151689 -1.05366e-14)
(-0.000150093 0.00125031 2.56534e-15)
(-0.000200908 0.00107704 3.37482e-14)
(-0.000230917 0.000886781 2.23632e-14)
(-0.000235006 0.000689963 -1.94162e-13)
(-0.000246516 0.000578669 -1.16771e-13)
(-0.000291712 0.000535593 -1.84516e-13)
(-0.000347481 0.000496171 2.24421e-14)
(-0.000375814 0.000431185 2.06534e-14)
(-0.000382062 0.000359968 -5.19193e-14)
(-0.000371309 0.0002926 4.96183e-15)
(-0.000347103 0.000232741 -2.45834e-14)
(-0.000317336 0.000182294 -4.58448e-14)
(-0.000286109 0.000140931 -1.42142e-13)
(-0.00025378 0.000107861 -1.19726e-14)
(-0.000223336 8.2488e-05 8.63162e-14)
(-0.000196162 6.31745e-05 -1.33706e-14)
(-0.000172441 4.81605e-05 1.66974e-14)
(-0.000151648 3.63439e-05 -3.05237e-14)
(-0.000133507 2.67229e-05 -4.68589e-14)
(-0.000117406 1.8586e-05 -4.23024e-15)
(-0.000102245 1.12726e-05 1.76742e-14)
(-8.68975e-05 4.75615e-06 1.90794e-14)
(-7.13848e-05 -5.60917e-07 -5.85304e-16)
(-5.68401e-05 -4.23337e-06 -1.00554e-14)
(-4.36314e-05 -6.12046e-06 -1.69482e-14)
(-3.1962e-05 -7.09891e-06 3.28161e-15)
(-2.21277e-05 -7.36835e-06 -1.93012e-16)
(-1.3944e-05 -7.87318e-06 3.0414e-16)
(-6.34054e-06 -7.585e-06 4.83073e-16)
(3.461e-06 -3.72961e-06 -4.13301e-17)
(1.82545e-05 2.95458e-06 2.04778e-16)
(4.661e-05 -6.32104e-05 -9.88746e-16)
(0.000399486 -0.0011215 3.27109e-16)
(0.000390354 -0.000890215 -1.44599e-14)
(0.00013613 2.90346e-05 2.26529e-14)
(7.18596e-05 0.000181662 5.78692e-14)
(0.00112212 -0.000503402 -2.15255e-14)
(4.82372e-05 0.00151076 9.78958e-16)
(0.000123951 0.00141534 -2.75257e-16)
(0.000180045 0.00114317 6.47113e-16)
(0.000258414 0.00117368 3.38161e-15)
(0.000310756 0.00111792 -9.01653e-15)
(0.000358665 0.00103604 -1.9086e-14)
(0.000410792 0.0009771 4.55235e-14)
(0.000440611 0.000898139 -8.91852e-15)
(0.000459018 0.000812586 5.05051e-14)
(0.000469459 0.000732601 1.0302e-13)
(0.000462433 0.000649899 2.22686e-14)
(0.000442849 0.000569797 3.44769e-14)
(0.000412166 0.000498069 2.16529e-13)
(0.000370167 0.00043538 3.672e-13)
(0.000322337 0.000383371 3.32837e-13)
(0.000267056 0.00034866 -5.40256e-15)
(0.000216855 0.000313781 4.0537e-13)
(0.000175792 0.000299447 2.67845e-14)
(0.00011552 0.000303367 -1.19163e-13)
(3.57026e-05 0.000381133 1.57429e-13)
(3.24904e-05 0.000595143 -2.60853e-13)
(6.64446e-05 0.000862158 1.10136e-13)
(0.000465201 0.00143844 1.10507e-13)
(0.00153543 0.00211092 4.48848e-14)
(0.00280299 0.00133438 1.20484e-13)
(0.00286624 -0.00110235 -4.9496e-14)
(0.0005038 -0.00291166 -4.27905e-14)
(-0.00154055 -0.00259804 6.31796e-15)
(-0.00268986 -0.000413996 2.63847e-14)
(-0.00205912 0.00161337 -7.03068e-14)
(0.00172918 0.0014136 -6.87099e-14)
(0.00295813 3.69123e-05 1.40187e-13)
(0.000859553 -0.000380831 3.15554e-14)
(0.000383233 -0.000415799 -6.03446e-14)
(0.00270036 -0.000554543 -4.98391e-16)
(0.0241058 -0.00742653 -1.43323e-13)
(-0.00727532 0.00313851 -5.09319e-14)
(-0.00376154 -0.000896325 -1.97386e-14)
(-0.0130782 0.00896393 -3.18914e-14)
(-1.81681e-05 0.00144278 -6.63894e-15)
(-7.44329e-05 0.00129192 -1.26866e-14)
(-0.00012498 0.0010761 6.04129e-15)
(-0.00016844 0.00093767 8.31822e-14)
(-0.000194675 0.000782336 3.5465e-14)
(-0.000203707 0.00061951 7.0573e-16)
(-0.000226144 0.000547856 1.82775e-13)
(-0.000280924 0.000527644 -8.38894e-14)
(-0.000326676 0.000485351 -1.35032e-13)
(-0.000351743 0.000425075 4.91439e-14)
(-0.000359405 0.000361316 9.80666e-14)
(-0.000352648 0.000299765 -2.41903e-14)
(-0.000333783 0.000243356 6.8567e-14)
(-0.000308929 0.000194649 9.30891e-15)
(-0.000281505 0.000153959 3.53122e-14)
(-0.000252186 0.000120414 1.24887e-14)
(-0.000223859 9.394e-05 -3.93448e-14)
(-0.000197761 7.32965e-05 3.24366e-14)
(-0.000174357 5.70935e-05 -2.44824e-14)
(-0.000153489 4.41796e-05 4.50172e-15)
(-0.00013505 3.37082e-05 6.51086e-14)
(-0.00011846 2.48148e-05 -2.25281e-14)
(-0.000102811 1.69163e-05 -3.0428e-14)
(-8.71283e-05 9.89627e-06 6.5807e-15)
(-7.1524e-05 4.17842e-06 -1.63348e-15)
(-5.69667e-05 1.26886e-07 2.98739e-15)
(-4.3739e-05 -2.14092e-06 8.56762e-15)
(-3.19615e-05 -3.28322e-06 -1.47185e-15)
(-2.19782e-05 -3.70954e-06 -1.40882e-16)
(-1.36682e-05 -4.28774e-06 1.95123e-16)
(-5.98994e-06 -4.36726e-06 1.44023e-15)
(4.65881e-06 -3.93326e-06 1.8061e-16)
(2.01837e-05 -1.72785e-06 -9.87511e-16)
(2.25056e-05 6.13145e-06 -1.77704e-16)
(2.41681e-05 2.91908e-05 -4.28339e-16)
(9.65492e-05 9.92936e-05 4.32494e-15)
(8.74621e-05 6.97875e-06 -8.98034e-15)
(0.000118088 -3.24245e-05 -1.42479e-14)
(0.000526342 0.000393911 -5.28093e-14)
(4.83766e-05 0.00128535 2.71812e-15)
(0.000111397 0.00120055 -3.05059e-15)
(0.000156889 0.000990084 -6.61744e-17)
(0.000223667 0.00101897 2.66674e-15)
(0.000268133 0.000971417 -2.03589e-15)
(0.000308374 0.000904112 2.54439e-15)
(0.000353725 0.000858522 8.73332e-15)
(0.000380555 0.000793898 -1.09194e-13)
(0.00039887 0.000723273 -1.46987e-14)
(0.000411854 0.000657391 1.70484e-13)
(0.00041001 0.000587154 -7.21139e-14)
(0.00039768 0.000517604 -1.5308e-13)
(0.000375933 0.000453813 -2.98883e-13)
(0.000343875 0.000396154 -2.46509e-13)
(0.000305192 0.000347669 -1.69443e-13)
(0.000261569 0.00031012 -6.17309e-14)
(0.000216798 0.00028067 -2.26999e-13)
(0.000164497 0.000299282 -3.15554e-13)
(0.000108377 0.000341208 -1.39068e-13)
(4.97863e-05 0.000448136 3.57509e-13)
(4.9077e-05 0.000639537 3.28294e-13)
(0.000113579 0.000843297 -2.15557e-14)
(0.000372784 0.00121006 -5.04585e-14)
(0.00123336 0.00159193 -1.5941e-13)
(0.00230837 0.00085549 -9.28602e-14)
(0.00224245 -0.00108226 4.27687e-14)
(0.000761356 -0.00243441 3.30662e-14)
(-0.00129776 -0.0019486 3.72112e-15)
(-0.00223429 -0.000298412 -1.98414e-14)
(-0.00093743 0.000782654 7.40339e-14)
(0.000107458 0.000734659 1.54706e-13)
(0.00105654 0.00010177 -1.04795e-14)
(0.00040642 -0.000293434 2.72342e-14)
(-0.000385722 -9.50393e-05 4.73939e-14)
(-0.000298427 0.00206891 -1.84998e-14)
(-0.0131523 0.00224056 1.74081e-13)
(-0.002181 -0.00138893 7.94455e-14)
(-0.0017079 0.000285447 -6.39969e-14)
(-0.00771973 0.00795636 -1.8937e-14)
(-9.50012e-06 0.0012284 1.6563e-14)
(-5.77399e-05 0.00110822 2.03049e-14)
(-0.000102379 0.000932717 8.21949e-15)
(-0.000141552 0.000820085 9.76968e-14)
(-0.000166524 0.000690268 -1.73044e-13)
(-0.000182092 0.000573054 8.97403e-14)
(-0.000213301 0.000525024 1.5156e-13)
(-0.000264984 0.000506711 6.62388e-14)
(-0.000303111 0.000466166 -3.67957e-14)
(-0.000325101 0.000411753 -3.43625e-14)
(-0.000334114 0.000355261 2.1704e-14)
(-0.000330827 0.00029998 3.71888e-14)
(-0.000316615 0.000247858 -8.99191e-14)
(-0.000296579 0.000201757 6.45165e-14)
(-0.000273241 0.000162226 1.64821e-14)
(-0.000247362 0.000128679 -1.11056e-14)
(-0.000221722 0.000101296 -5.77507e-14)
(-0.00019732 7.93188e-05 -5.775e-14)
(-0.000174862 6.1675e-05 4.89971e-14)
(-0.000154416 4.73967e-05 1.4286e-14)
(-0.00013607 3.57149e-05 4.90984e-15)
(-0.000119319 2.58928e-05 5.16008e-14)
(-0.000103432 1.73511e-05 2.09204e-14)
(-8.75532e-05 9.96244e-06 -2.44628e-15)
(-7.19499e-05 3.94817e-06 6.82656e-15)
(-5.74171e-05 -3.30571e-07 -4.74831e-15)
(-4.41731e-05 -2.87979e-06 -9.33796e-15)
(-3.22937e-05 -4.1427e-06 1.37024e-15)
(-2.21598e-05 -4.67396e-06 -1.20143e-15)
(-1.37194e-05 -5.09582e-06 -4.10747e-16)
(-6.04213e-06 -5.21253e-06 -1.06102e-15)
(4.69305e-06 -4.14201e-06 1.15108e-15)
(1.97664e-05 -4.45102e-07 2.86217e-15)
(2.04565e-05 7.288e-06 2.42105e-15)
(1.67168e-05 -7.46771e-08 1.38518e-15)
(6.21861e-05 -3.54701e-06 -5.26335e-15)
(0.000123106 -2.39658e-06 3.20977e-15)
(0.000137505 7.94145e-05 3.60451e-14)
(0.000141743 0.000573575 4.11086e-14)
(4.28113e-05 0.00110155 7.45392e-16)
(9.51103e-05 0.00102933 1.78227e-15)
(0.000131613 0.000864772 -2.56864e-15)
(0.000186932 0.000891053 3.64791e-15)
(0.000222954 0.000852368 -7.1829e-15)
(0.000255602 0.000797138 1.08659e-14)
(0.000293295 0.000763268 -1.31812e-14)
(0.000315911 0.000712349 -2.47149e-14)
(0.000331934 0.000656191 -3.28617e-14)
(0.000344642 0.000604958 -4.6516e-14)
(0.000344967 0.000548568 1.86699e-14)
(0.000336538 0.000492117 1.77966e-13)
(0.000320368 0.000439928 2.41119e-13)
(0.000295044 0.00039196 3.87518e-14)
(0.000263728 0.000351485 4.9154e-15)
(0.000228157 0.000320447 1.13677e-14)
(0.000189009 0.000302728 -4.0534e-14)
(0.000154484 0.000296425 1.2842e-13)
(0.000120344 0.000327174 1.17379e-13)
(9.39332e-05 0.000410469 -2.70505e-13)
(0.000114472 0.000554924 -2.7539e-14)
(0.000196641 0.000717841 5.69523e-14)
(0.000437446 0.000969968 -7.35867e-14)
(0.00108784 0.0011651 7.80074e-14)
(0.00184857 0.000545394 1.13764e-15)
(0.00173607 -0.000956126 -1.45166e-14)
(0.00036337 -0.00199497 -4.25891e-14)
(-0.00124436 -0.00156251 1.7529e-15)
(-0.00170294 -0.000196179 -4.27509e-17)
(-0.000937789 0.00069728 3.50168e-14)
(6.32338e-05 0.00057215 1.70216e-14)
(0.000583059 6.68248e-05 -7.45396e-14)
(0.000345793 -0.000266804 -3.44014e-14)
(-0.000323342 -0.000187024 1.72302e-13)
(-0.0014193 0.000369256 2.68259e-14)
(-0.00905575 0.00555743 -1.27635e-13)
(0.00731273 -0.0025072 -4.21418e-14)
(-0.0128752 0.00955853 5.05057e-14)
(-0.00359993 0.00652864 -1.68722e-15)
(-5.66618e-06 0.00105425 3.43902e-15)
(-4.70046e-05 0.000957185 -4.87413e-14)
(-8.57712e-05 0.000812486 2.41597e-14)
(-0.000120785 0.000719084 2.13196e-14)
(-0.000143809 0.000610067 4.61666e-14)
(-0.000164084 0.000530931 -1.5463e-14)
(-0.000199592 0.000499091 -3.71518e-14)
(-0.000245343 0.000478813 -3.78701e-15)
(-0.000278455 0.000441549 -2.62658e-15)
(-0.000298079 0.00039346 1.39798e-14)
(-0.000307948 0.000343813 4.01261e-14)
(-0.000307405 0.000294844 6.60056e-14)
(-0.00029717 0.000247714 -4.62698e-15)
(-0.000281473 0.000205215 -1.34747e-13)
(-0.000262018 0.000167783 2.62861e-14)
(-0.000239598 0.000135224 7.69875e-14)
(-0.000216823 0.000107974 5.91146e-14)
(-0.000194366 8.55055e-05 2.68669e-14)
(-0.000173189 6.71262e-05 -2.22938e-14)
(-0.000153497 5.21124e-05 -5.94929e-15)
(-0.000135492 3.97147e-05 -2.35511e-14)
(-0.000118799 2.93182e-05 -4.32083e-14)
(-0.000102855 2.03716e-05 1.77991e-14)
(-8.69867e-05 1.26978e-05 1.67721e-14)
(-7.15221e-05 6.46215e-06 2.99212e-15)
(-5.71726e-05 1.95995e-06 1.69896e-14)
(-4.40338e-05 -8.14355e-07 5.94071e-15)
(-3.21915e-05 -2.26437e-06 -1.00108e-15)
(-2.19797e-05 -2.81167e-06 1.12616e-15)
(-1.34787e-05 -3.18495e-06 4.5976e-16)
(-5.85647e-06 -3.25138e-06 -1.28769e-15)
(4.84626e-06 -2.55371e-06 -1.52297e-15)
(1.98889e-05 -2.92587e-08 -7.62073e-16)
(2.07933e-05 6.38895e-06 -4.2097e-16)
(1.55878e-05 5.62721e-06 2.76757e-15)
(6.46407e-05 1.00363e-05 -4.82125e-16)
(0.000122327 2.12215e-05 1.16822e-14)
(0.000158355 5.28969e-05 -1.28354e-14)
(0.000498559 0.000173545 -6.19303e-15)
(3.95135e-05 0.000950389 3.83314e-15)
(8.3536e-05 0.000886949 -1.38075e-15)
(0.000114063 0.00075709 -2.60813e-15)
(0.000160437 0.000781165 -3.57742e-15)
(0.000190582 0.000748962 1.34921e-14)
(0.000217686 0.000703337 -1.80159e-14)
(0.000249675 0.000677561 -5.31819e-15)
(0.000269146 0.000636066 3.49425e-14)
(0.000283998 0.000590676 1.94615e-14)
(0.000296645 0.000549715 3.56104e-14)
(0.000298994 0.000503105 8.0087e-14)
(0.000294326 0.000456083 6.46432e-14)
(0.000283075 0.00041191 -1.52418e-13)
(0.000263911 0.000370275 -2.45579e-13)
(0.000239585 0.00033475 4.21381e-14)
(0.000211297 0.000307156 3.12385e-13)
(0.000181215 0.000288395 6.4059e-14)
(0.000150087 0.000284593 -1.77647e-13)
(0.000125783 0.000320733 -3.36333e-14)
(0.000114943 0.00040096 3.06996e-14)
(0.000145569 0.000519426 -6.90809e-14)
(0.000237288 0.000646675 -8.93614e-14)
(0.000456123 0.000815473 1.02196e-14)
(0.000952658 0.000894245 6.91402e-14)
(0.00150744 0.000360343 6.00087e-14)
(0.00140227 -0.000824494 -3.41412e-15)
(0.000310242 -0.00167688 3.58795e-14)
(-0.000965086 -0.00133284 6.4338e-15)
(-0.00125751 -0.000179815 6.16368e-14)
(-0.000567584 0.000567766 -4.58636e-14)
(0.000173125 0.00046945 -1.60005e-13)
(0.000449961 5.28396e-05 -5.1012e-14)
(0.000282147 -0.000228667 2.84616e-14)
(-6.44133e-05 -0.000192075 1.54512e-14)
(-0.000456038 5.46093e-05 -4.28827e-15)
(0.000448525 -0.000445362 5.11929e-15)
(-0.000841189 -0.00046007 1.82071e-14)
(-0.00159687 0.000698687 4.48112e-15)
(0.000918377 0.00334358 2.44285e-14)
(-1.77094e-06 0.000910144 -8.58967e-15)
(-3.81707e-05 0.000830027 -7.71754e-15)
(-7.22297e-05 0.000710315 -1.34545e-14)
(-0.000103048 0.00063251 -1.72112e-14)
(-0.000123902 0.000540203 2.98364e-14)
(-0.000147255 0.000488742 -4.30611e-14)
(-0.000184037 0.000468203 -1.72183e-14)
(-0.000224174 0.000447678 6.62147e-14)
(-0.000253624 0.000414146 -3.9934e-14)
(-0.000271477 0.000371853 7.04412e-14)
(-0.000281874 0.00032879 6.77592e-14)
(-0.00028346 0.00028585 4.37189e-14)
(-0.000276412 0.000243769 3.29597e-14)
(-0.00026452 0.00020516 4.9004e-14)
(-0.000248765 0.000170436 -1.39869e-14)
(-0.000229673 0.000139359 3.10024e-15)