/*--------------------------------*- C++ -*----------------------------------*\
| =========                 |                                                 |
| \\      /  F ield         | OpenFOAM: The Open Source CFD Toolbox           |
|  \\    /   O peration     | Version:  2206                                  |
|   \\  /    A nd           | Website:  www.openfoam.com                      |
|    \\/     M anipulation  |                                                 |
\*---------------------------------------------------------------------------*/
FoamFile
{
    version     2.0;
    format      ascii;
    arch        "LSB;label=32;scalar=64";
    class       volScalarField;
    location    "350";
    object      turbulenceProperties:epsilon;
}
// * * * * * * * * * * * * * * * * * * * * * * * * * * * * * * * * * * * * * //

dimensions      [0 2 -3 0 0 0 0];

internalField   nonuniform List<scalar> 
10720
(
0.25936
0.340088
0.45298
0.62358
0.840216
1.13488
1.53083
2.03502
2.68416
3.51462
4.57807
5.96465
7.80255
10.2913
13.7716
18.7586
26.2374
37.355
56.0451
83.0179
139.637
211.727
435.037
739.105
736.293
667.277
637.3
637.309
643.234
639.562
622.893
593.373
548.427
489.37
416.524
334.342
232.311
145.705
16.2604
0.19412
0.147065
0.100356
0.066661
0.0405415
0.022171
0.0111783
0.00631202
0.00685226
0.0122571
0.0258954
0.0542382
0.107184
0.197716
0.340184
0.553741
0.870411
1.35297
2.1219
3.40225
5.64685
9.71421
17.6449
33.2307
67.6662
140.851
318.977
663.254
945.029
1066.92
1100.17
1101.73
1088.12
1062.37
1025.38
978.914
912.865
836.936
619.375
0.00736087
0.00727988
0.00711426
0.00670952
0.00610634
0.00544789
0.00471917
0.00396214
0.00327811
0.00267037
0.00214892
0.00181995
0.00177268
0.00210501
0.00330751
0.00671087
0.0165631
0.0442175
0.139096
0.450283
1.75404
6.23524
23.3497
83.5811
166.451
235.354
278.574
285.197
251.045
193.176
135.865
91.8985
63.4979
45.7253
34.2701
26.5026
21.7464
17.5734
20.2076
0.00722725
0.0070316
0.0066411
0.00608274
0.00535931
0.0044759
0.00354124
0.00273956
0.00209103
0.00153418
0.00108413
0.000757364
0.000526729
0.000363728
0.000249047
0.000169134
0.000113322
7.46806e-05
4.72831e-05
2.75714e-05
1.31809e-05
4.21855e-06
4.01307e-07
6.8419e-09
5.58437e-08
0.000986643
0.0060653
0.0512829
0.170764
0.319782
0.466687
0.615388
0.773866
0.946776
1.13455
1.34798
1.59532
2.20733
4.09685
0.0033025
0.00325038
0.00310525
0.00288991
0.00267295
0.00244431
0.00222357
0.00203394
0.00187754
0.00176045
0.00167234
0.00162249
0.00160881
0.00163589
0.00164339
0.00155649
0.0011586
0.000901324
4.1252e-05
0.0155205
0.028174
0.00887814
0.00032441
0.0406455
0.558864
2.55439
7.82624
19.9742
42.2445
70.4885
91.5717
94.2259
80.0958
60.6841
44.1751
31.97
23.995
16.9426
20.4971
0.00335431
0.00334629
0.00332871
0.00321149
0.00300845
0.00268233
0.00226326
0.00182816
0.00146531
0.00113385
0.000824607
0.00057199
0.000384979
0.000253518
0.000165605
0.000108233
7.19506e-05
4.93546e-05
3.55861e-05
2.70807e-05
2.18926e-05
1.88166e-05
1.7218e-05
1.63647e-05
1.63056e-05
1.61194e-05
1.82308e-05
6.377e-06
0.000167551
0.000992288
0.00208843
0.00364262
0.00959152
0.0265243
0.0598434
0.110641
0.177001
0.222094
0.549877
0.0023541
0.00236386
0.00234018
0.00230138
0.00222232
0.0021072
0.00196797
0.00180081
0.00161885
0.00142887
0.00123795
0.00105126
0.000872821
0.000707467
0.000557411
0.000419693
0.000300553
0.000214172
0.000127934
3.41542e-05
2.66631e-07
0.000540895
0.00271553
0.0143085
0.0372248
0.0536355
0.00735218
0.00294413
0.0185229
0.438387
3.20556
11.6371
25.029
35.4854
37.1818
32.3987
26.602
19.7642
21.4768
0.00230385
0.00222876
0.00211341
0.00197856
0.00181576
0.00161316
0.00139179
0.00117417
0.000967239
0.000765339
0.000581471
0.000431997
0.000318378
0.000234341
0.000173352
0.000129294
9.78805e-05
7.55217e-05
5.96711e-05
4.81442e-05
3.96881e-05
3.32161e-05
2.79053e-05
2.28189e-05
1.81256e-05
1.4635e-05
1.22457e-05
1.06582e-05
8.88573e-06
6.83564e-06
3.86395e-06
1.53586e-06
2.28724e-05
1.51605e-05
6.81353e-05
0.00086402
0.00492922
0.0189375
0.139747
0.00132486
0.00132018
0.00129963
0.00126341
0.00120837
0.0011357
0.00105087
0.000956801
0.000858129
0.00076188
0.000671416
0.000590016
0.000520306
0.000462964
0.000417815
0.000381604
0.000345607
0.000302762
0.000264071
0.000215359
9.2298e-05
2.02574e-06
1.10623e-07
3.65206e-09
0
0
0.0038707
0.0120213
0.0348963
0.0146345
0.023603
0.015725
0.169667
2.42093
9.0844
16.9076
21.0149
19.7657
21.8283
0.00131801
0.00129943
0.00126282
0.00120531
0.00112648
0.00101938
0.000898248
0.000776715
0.000656861
0.000536855
0.000424848
0.000327918
0.000248299
0.000184952
0.000136052
9.92615e-05
7.22586e-05
5.28555e-05
3.9159e-05
2.95098e-05
2.27139e-05
1.78301e-05
1.41651e-05
1.10621e-05
8.30127e-06
6.10314e-06
4.59804e-06
3.68297e-06
3.31201e-06
2.83265e-06
4.17091e-06
2.07584e-07
8.54968e-06
5.18119e-05
1.07965e-05
3.45087e-05
7.73446e-05
0.000255685
0.0150572
0.000890125
0.000897733
0.000897008
0.000890614
0.000873203
0.000845351
0.000808754
0.000762636
0.000708826
0.000649694
0.000586688
0.000522183
0.000458409
0.000396995
0.000339309
0.000284287
0.000229931
0.000179983
0.000138987
0.000107651
8.37982e-05
6.06906e-05
2.74981e-05
1.35412e-06
4.94481e-08
9.77919e-09
3.84376e-10
0
0
0.00128653
0.00599108
0.0333819
0.00530504
0.0420156
0.0464646
1.66154
7.52401
13.994
19.8727
0.000874068
0.000852115
0.00082068
0.000780101
0.000729528
0.00066563
0.000595716
0.000525011
0.000453198
0.000379952
0.000310159
0.000247719
0.000194532
0.000150753
0.000115783
8.85968e-05
6.79166e-05
5.24549e-05
4.10271e-05
3.2577e-05
2.6269e-05
2.14132e-05
1.747e-05
1.39444e-05
1.07035e-05
8.01567e-06
5.98794e-06
4.51788e-06
3.44441e-06
2.66248e-06
2.07179e-06
1.59711e-06
1.01401e-06
5.10393e-07
1.55103e-07
2.28988e-06
9.60713e-06
5.12354e-05
0.00112174
0.000582477
0.000587604
0.000588424
0.00058545
0.00057616
0.00056025
0.000538373
0.00051028
0.000476747
0.000439288
0.000399132
0.00035783
0.000317062
0.000278202
0.000242183
0.000210016
0.000182838
0.000159221
0.000136766
0.0001153
9.65106e-05
8.00145e-05
6.7031e-05
4.8772e-05
2.38884e-05
6.34481e-06
1.91502e-07
1.36446e-08
4.09041e-09
3.40787e-11
0
0
0.000377087
0.0178412
0.0125672
0.0336596
0.416626
4.90667
14.1127
0.000572952
0.000560177
0.00054185
0.000517111
0.000485878
0.000447229
0.00040571
0.000362757
0.000318234
0.000272763
0.000228745
0.000188185
0.00015226
0.000121389
9.56016e-05
7.46325e-05
5.79554e-05
4.4967e-05
3.50191e-05
2.74517e-05
2.16959e-05
1.72525e-05
1.37028e-05
1.06765e-05
8.02409e-06
5.85968e-06
4.23746e-06
3.07544e-06
2.24983e-06
1.6743e-06
1.29942e-06
1.08197e-06
9.67199e-07
8.21507e-07
4.24946e-07
3.19246e-08
6.60949e-10
8.55601e-13
2.6319e-05
0.000400135
0.000405616
0.000408889
0.000410212
0.000407969
0.000401872
0.000392249
0.000378538
0.000360962
0.000340177
0.000316479
0.00029069
0.000263665
0.000236161
0.00020893
0.000182712
0.000157348
0.000132473
0.000109446
8.96885e-05
7.39196e-05
6.21521e-05
5.39161e-05
4.81333e-05
4.04277e-05
2.91898e-05
1.73255e-05
7.56538e-06
2.72579e-06
1.84707e-08
4.24509e-09
3.94622e-12
0
0
0.00113378
0.0241563
0.0272673
0.466557
6.3915
0.00039197
0.000382242
0.000369392
0.000352676
0.000332274
0.000307837
0.000282208
0.000255248
0.000226973
0.000198175
0.000169891
0.000143247
0.00011896
9.73971e-05
7.87687e-05
6.3118e-05
5.02574e-05
3.99315e-05
3.17891e-05
2.54263e-05
2.04516e-05
1.65102e-05
1.3288e-05
1.05114e-05
8.06641e-06
6.03466e-06
4.46246e-06
3.2896e-06
2.41526e-06
1.76314e-06
1.28432e-06
9.34569e-07
6.79175e-07
4.92127e-07
3.75329e-07
2.6247e-07
1.3952e-07
1.13048e-09
1.85692e-07
0.000278432
0.000282837
0.000286069
0.000288097
0.000288023
0.000285557
0.000280786
0.000273251
0.000263003
0.000250295
0.000235287
0.000218426
0.000200255
0.000181302
0.000162187
0.000143379
0.000125412
0.000108981
9.40623e-05
8.05598e-05
6.86065e-05
5.85758e-05
5.03217e-05
4.33554e-05
3.68647e-05
2.9962e-05
2.32469e-05
1.75056e-05
1.27541e-05
6.89282e-06
3.01244e-06
3.4452e-09
9.88705e-10
0
0
0
0.00985816
0.0256944
1.52383
0.00027245
0.000265607
0.000256892
0.000245543
0.00023205
0.000216269
0.000199882
0.000182484
0.000164169
0.000145559
0.000127125
0.000109455
9.29659e-05
7.79077e-05
6.44835e-05
5.2814e-05
4.28958e-05
3.46466e-05
2.79126e-05
2.24833e-05
1.81245e-05
1.45993e-05
1.16864e-05
9.19681e-06
7.04121e-06
5.25462e-06
3.86644e-06
2.82981e-06
2.06286e-06
1.4989e-06
1.09276e-06
8.11131e-07
6.24562e-07
5.09005e-07
4.47757e-07
4.56528e-07
5.24027e-07
5.98193e-07
3.97245e-10
0.000197881
0.000201524
0.000204588
0.000206974
0.000208089
0.000207801
0.000206072
0.00020254
0.000197198
0.000190113
0.000181275
0.000170902
0.000159267
0.000146661
0.000133444
0.000119956
0.0001066
9.34634e-05
8.07433e-05
6.90255e-05
5.88366e-05
5.04237e-05
4.35948e-05
3.75555e-05
3.15305e-05
2.53884e-05
1.98483e-05
1.56295e-05
1.27011e-05
1.05229e-05
8.60438e-06
4.59653e-06
7.70208e-07
3.48348e-09
0
0
9.59853e-09
0.000588222
0.19035
0.000193266
0.000188245
0.000182079
0.000174135
0.00016497
0.000154572
0.000143761
0.000132251
0.000120194
0.000107955
9.57632e-05
8.39348e-05
7.26836e-05
6.21572e-05
5.25267e-05
4.39145e-05
3.63673e-05
2.99032e-05
2.44664e-05
1.99591e-05
1.6249e-05
1.31848e-05
1.06166e-05
8.41547e-06
6.5112e-06
4.92236e-06
3.66879e-06
2.71553e-06
1.99776e-06
1.45967e-06
1.06228e-06
7.74704e-07
5.69378e-07
4.30164e-07
3.40748e-07
3.23643e-07
3.14122e-07
8.75212e-07
1.36441e-07
0.000142642
0.000145539
0.000148162
0.000150394
0.000151834
0.00015243
0.000152076
0.00015055
0.000147771
0.000143755
0.000138436
0.000131909
0.000124306
0.000115786
0.00010659
9.69699e-05
8.71761e-05
7.75152e-05
6.82572e-05
5.96001e-05
5.17894e-05
4.49562e-05
3.9082e-05
3.37645e-05
2.84181e-05
2.29257e-05
1.78289e-05
1.37959e-05
1.09538e-05
9.10783e-06
7.84972e-06
7.11671e-06
5.47046e-06
1.84834e-06
4.75981e-09
0
0
0.000480569
0.0275516
0.000139133
0.000135445
0.000131057
0.000125415
0.000119067
0.000112082
0.000104774
9.69983e-05
8.89336e-05
8.07673e-05
7.25929e-05
6.45904e-05
5.68732e-05
4.95177e-05
4.26266e-05
3.63012e-05
3.06005e-05
2.55688e-05
2.12137e-05
1.74998e-05
1.43602e-05
1.17104e-05
9.45701e-06
7.51619e-06
5.84109e-06
4.43991e-06
3.32316e-06
2.46501e-06
1.81502e-06
1.32711e-06
9.67425e-07
7.09301e-07
5.29697e-07
4.12148e-07
3.40274e-07
3.31694e-07
3.28927e-07
6.58688e-07
1.03337e-06
0.000104218
0.000106526
0.000108717
0.000110687
0.000112177
0.000113152
0.000113531
0.000113129
0.000111887
0.000109785
0.000106744
0.000102794
9.79848e-05
9.23957e-05
8.61571e-05
7.94243e-05
7.23803e-05
6.52426e-05
5.81251e-05
5.12332e-05
4.48783e-05
3.92344e-05
3.42878e-05
2.97776e-05
2.52921e-05
2.06947e-05
1.63337e-05
1.27186e-05
1.00237e-05
8.10122e-06
6.6931e-06
5.84491e-06
5.44173e-06
5.02706e-06
2.17029e-06
2.9094e-09
0
0.000104241
0.00838787
0.000101534
9.87749e-05
9.56007e-05
9.15407e-05
8.70682e-05
8.22738e-05
7.72365e-05
7.18949e-05
6.6418e-05
6.08834e-05
5.53391e-05
4.98794e-05
4.45562e-05
3.9397e-05
3.44741e-05
2.98524e-05
2.5578e-05
2.17035e-05
1.82533e-05
1.52331e-05
1.26193e-05
1.03677e-05
8.42155e-06
6.73092e-06
5.27009e-06
4.04135e-06
3.05086e-06
2.27962e-06
1.68899e-06
1.24143e-06
9.07864e-07
6.6527e-07
4.92794e-07
3.76331e-07
3.03196e-07
2.85458e-07
2.9185e-07
4.81906e-07
1.23031e-06
7.69983e-05
7.88259e-05
8.06188e-05
8.22885e-05
8.36609e-05
8.47172e-05
8.5401e-05
8.55648e-05
8.51571e-05
8.4151e-05
8.24697e-05
8.01151e-05
7.70945e-05
7.34328e-05
6.92078e-05
6.45143e-05
5.94657e-05
5.42316e-05
4.89418e-05
4.37355e-05
3.88015e-05
3.42779e-05
3.01707e-05
2.63371e-05
2.25319e-05
1.86641e-05
1.49722e-05
1.18323e-05
9.40916e-06
7.59398e-06
6.20188e-06
5.15113e-06
4.4728e-06
4.218e-06
4.62331e-06
1.21188e-06
6.42627e-13
3.11565e-05
0.00278784
7.49465e-05
7.28645e-05
7.05343e-05
6.75851e-05
6.43903e-05
6.10342e-05
5.75041e-05
5.37799e-05
5.00061e-05
4.62099e-05
4.24067e-05
3.86446e-05
3.49478e-05
3.13247e-05
2.78056e-05
2.44357e-05
2.12495e-05
1.829e-05
1.55864e-05
1.31568e-05
1.1002e-05
9.10528e-06
7.43929e-06
5.97909e-06
4.71163e-06
3.63962e-06
2.76614e-06
2.07785e-06
1.54568e-06
1.13955e-06
8.35144e-07
6.1292e-07
4.55068e-07
3.48747e-07
2.82385e-07
2.64138e-07
2.71679e-07
4.08712e-07
1.03848e-06
5.74555e-05
5.88971e-05
6.03505e-05
6.17391e-05
6.29435e-05
6.39624e-05
6.47422e-05
6.51748e-05
6.52249e-05
6.48573e-05
6.4013e-05
6.26725e-05
6.08331e-05
5.84957e-05
5.56928e-05
5.2476e-05
4.89135e-05
4.51259e-05
4.12018e-05
3.72316e-05
3.33587e-05
2.97259e-05
2.63515e-05
2.31494e-05
1.99635e-05
1.67334e-05
1.36283e-05
1.09327e-05
8.79818e-06
7.16041e-06
5.88361e-06
4.87295e-06
4.09757e-06
3.56583e-06
3.44371e-06
4.79185e-06
2.30963e-12
5.75193e-07
0.000700402
5.58718e-05
5.42939e-05
5.2557e-05
5.03945e-05
4.80866e-05
4.56937e-05
4.31791e-05
4.05556e-05
3.79199e-05
3.52825e-05
3.26443e-05
3.00325e-05
2.7451e-05
2.48939e-05
2.23798e-05
1.99293e-05
1.75636e-05
1.53172e-05
1.32166e-05
1.12827e-05
9.52558e-06
7.94634e-06
6.53624e-06
5.28786e-06
4.19738e-06
3.26795e-06
2.50271e-06
1.89222e-06
1.41509e-06
1.04779e-06
7.70247e-07
5.6595e-07
4.19378e-07
3.19343e-07
2.5577e-07
2.35549e-07
2.39757e-07
3.50316e-07
8.40583e-07
4.32437e-05
4.4378e-05
4.55509e-05
4.66871e-05
4.7713e-05
4.86352e-05
4.93994e-05
4.9934e-05
5.0212e-05
5.01993e-05
4.98503e-05
4.9145e-05
4.80653e-05
4.66021e-05
4.47636e-05
4.258e-05
4.0093e-05
3.73714e-05
3.4495e-05
3.1525e-05
2.85434e-05
2.56732e-05
2.29393e-05
2.0294e-05
1.76458e-05
1.49587e-05
1.23536e-05
1.00472e-05
8.17479e-06
6.70988e-06
5.55465e-06
4.63938e-06
3.90492e-06
3.39438e-06
2.7546e-06
4.23196e-06
1.09276e-06
4.86877e-11
4.32868e-05
4.20131e-05
4.08095e-05
3.95032e-05
3.78998e-05
3.62152e-05
3.4482e-05
3.26689e-05
3.07985e-05
2.89368e-05
2.70837e-05
2.52364e-05
2.34057e-05
2.15902e-05
1.97798e-05
1.79788e-05
1.61994e-05
1.44511e-05
1.27554e-05
1.1134e-05
9.60692e-06
8.18946e-06
6.88984e-06
5.70933e-06
4.64961e-06
3.71636e-06
2.91546e-06
2.24918e-06
1.71116e-06
1.2861e-06
9.55995e-07
7.04589e-07
5.18208e-07
3.83685e-07
2.91306e-07
2.32006e-07
2.11232e-07
2.12729e-07
2.9983e-07
6.83943e-07
3.27926e-05
3.36882e-05
3.46298e-05
3.55526e-05
3.64143e-05
3.72168e-05
3.79194e-05
3.84692e-05
3.88463e-05
3.9023e-05
3.89614e-05
3.86416e-05
3.80475e-05
3.71622e-05
3.59896e-05
3.45364e-05
3.28256e-05
3.08947e-05
2.8809e-05
2.66008e-05
2.43208e-05
2.20679e-05
1.98737e-05
1.77152e-05
1.5536e-05
1.33169e-05
1.1146e-05
9.18681e-06
7.55588e-06
6.2526e-06
5.21026e-06
4.381e-06
3.71059e-06
3.24949e-06
2.69638e-06
2.76014e-06
3.78939e-06
4.39811e-12
3.50375e-07
3.18357e-05
3.09076e-05
2.99182e-05
2.87186e-05
2.74774e-05
2.6205e-05
2.48815e-05
2.35336e-05
2.22033e-05
2.08876e-05
1.95809e-05
1.8289e-05
1.70049e-05
1.57162e-05
1.44244e-05
1.31303e-05
1.18403e-05
1.05664e-05
9.32359e-06
8.1281e-06
6.99446e-06
5.93447e-06
4.95511e-06
4.06507e-06
3.27343e-06
2.58787e-06
2.01126e-06
1.54005e-06
1.16364e-06
8.68562e-07
6.41909e-07
4.72509e-07
3.49239e-07
2.63758e-07
2.08107e-07
1.86626e-07
1.85886e-07
2.53523e-07
5.55841e-07
2.50323e-05
2.57419e-05
2.64944e-05
2.72427e-05
2.79568e-05
2.86399e-05
2.92611e-05
2.97811e-05
3.01824e-05
3.04458e-05
3.05415e-05
3.04521e-05
3.01649e-05
2.9661e-05
2.89352e-05
2.79874e-05
2.68274e-05
2.54755e-05
2.39776e-05
2.23549e-05
2.06354e-05
1.88882e-05
1.71478e-05
1.54065e-05
1.36309e-05
1.18113e-05
1.00135e-05
8.36066e-06
6.95107e-06
5.79981e-06
4.86488e-06
4.11136e-06
3.50517e-06
3.05034e-06
2.71751e-06
2.11918e-06
4.56125e-06
3.20274e-11
4.74395e-18
2.42876e-05
2.35685e-05
2.28107e-05
2.19066e-05
2.09837e-05
2.00385e-05
1.90624e-05
1.80815e-05
1.71213e-05
1.61774e-05
1.5245e-05
1.43246e-05
1.34092e-05
1.24885e-05
1.15583e-05
1.06178e-05
9.66693e-06
8.71347e-06
7.7659e-06
6.83668e-06
5.93793e-06
5.08086e-06
4.27545e-06
3.53354e-06
2.86695e-06
2.28367e-06
1.78787e-06
1.37786e-06
1.04661e-06
7.84394e-07
5.81206e-07
4.2805e-07
3.15728e-07
2.37154e-07
1.85347e-07
1.63631e-07
1.61112e-07
2.12861e-07
4.48977e-07
1.92217e-05
1.97839e-05
2.03845e-05
2.0991e-05
2.15766e-05
2.21514e-05
2.26865e-05
2.31549e-05
2.35435e-05
2.38375e-05
2.40128e-05
2.40579e-05
2.39571e-05
2.3696e-05
2.32675e-05
2.26669e-05
2.18974e-05
2.0966e-05
1.99034e-05
1.8724e-05
1.74421e-05
1.61e-05
1.47345e-05
1.33459e-05
1.19133e-05
1.04334e-05
8.95517e-06
7.57143e-06
6.36352e-06
5.35503e-06
4.52319e-06
3.8417e-06
3.29488e-06
2.85187e-06
2.61127e-06
2.0054e-06
3.35483e-06
4.69962e-07
7.93872e-11
1.86394e-05
1.808e-05
1.74955e-05
1.68086e-05
1.6117e-05
1.54073e-05
1.46808e-05
1.39598e-05
1.32597e-05
1.25759e-05
1.19044e-05
1.1244e-05
1.05875e-05
9.9253e-06
9.25336e-06
8.56821e-06
7.86773e-06
7.15552e-06
6.43635e-06
5.71803e-06
5.01067e-06
4.32438e-06
3.66854e-06
3.05479e-06
2.49644e-06
2.00358e-06
1.58013e-06
1.22572e-06
9.3605e-07
7.04403e-07
5.23238e-07
3.8544e-07
2.83542e-07
2.11571e-07
1.63482e-07
1.418e-07
1.3789e-07
1.77249e-07
3.60068e-07
1.48375e-05
1.52824e-05
1.57637e-05
1.6252e-05
1.67321e-05
1.72098e-05
1.76651e-05
1.80742e-05
1.84311e-05
1.87224e-05
1.89302e-05
1.90441e-05
1.90538e-05
1.89453e-05
1.8713e-05
1.83486e-05
1.78511e-05
1.72231e-05
1.64796e-05
1.5633e-05
1.46886e-05
1.36693e-05
1.26104e-05
1.15158e-05
1.03719e-05
9.17791e-06
7.97125e-06
6.82178e-06
5.79568e-06
4.92004e-06
4.18589e-06
3.57523e-06
3.08083e-06
2.67206e-06
2.42335e-06
2.03154e-06
2.28235e-06
2.01095e-06
2.16262e-08
1.43802e-05
1.39428e-05
1.34893e-05
1.29647e-05
1.2441e-05
1.19043e-05
1.13587e-05
1.08242e-05
1.03088e-05
9.80916e-06
9.32136e-06
8.84326e-06
8.36906e-06
7.89011e-06
7.40238e-06
6.90218e-06
6.38597e-06
5.85455e-06
5.31045e-06
4.75865e-06
4.2054e-06
3.65896e-06
3.1282e-06
2.62497e-06
2.16174e-06
1.74805e-06
1.38851e-06
1.08398e-06
8.32201e-07
6.28736e-07
4.68089e-07
3.44746e-07
2.52777e-07
1.87179e-07
1.42788e-07
1.21477e-07
1.1654e-07
1.46244e-07
2.86602e-07
1.15063e-05
1.18593e-05
1.22446e-05
1.26383e-05
1.30297e-05
1.34251e-05
1.38066e-05
1.41586e-05
1.44752e-05
1.47466e-05
1.49593e-05
1.51059e-05
1.51775e-05
1.51636e-05
1.50567e-05
1.48503e-05
1.45405e-05
1.41268e-05
1.36142e-05
1.30148e-05
1.23286e-05
1.15646e-05
1.07524e-05
9.89877e-06
8.99436e-06
8.03962e-06
7.06239e-06
6.11515e-06
5.25098e-06
4.49741e-06
3.85451e-06
3.31239e-06
2.86566e-06
2.50017e-06
2.22973e-06
2.00287e-06
1.78692e-06
2.30416e-06
5.00103e-07
1.11463e-05
1.08028e-05
1.04495e-05
1.00469e-05
9.6459e-06
9.23734e-06
8.8249e-06
8.42467e-06
8.04196e-06
7.67357e-06
7.31612e-06
6.9674e-06
6.62218e-06
6.27393e-06
5.91842e-06
5.55189e-06
5.17098e-06
4.77493e-06
4.36407e-06
3.94136e-06
3.51133e-06
3.07966e-06
2.65341e-06
2.2434e-06
1.86138e-06
1.51622e-06
1.21286e-06
9.52873e-07
7.3541e-07
5.57768e-07
4.16115e-07
3.06283e-07
2.23684e-07
1.64164e-07
1.23392e-07
1.02726e-07
9.70886e-08
1.19498e-07
2.26641e-07
8.95993e-06
9.24087e-06
9.54914e-06
9.86649e-06
1.0185e-05
1.05103e-05
1.08277e-05
1.11262e-05
1.14014e-05
1.16453e-05
1.18482e-05
1.20043e-05
1.21064e-05
1.21462e-05
1.21177e-05
1.20148e-05
1.18324e-05
1.15684e-05
1.12237e-05
1.08078e-05
1.03163e-05
9.75129e-06
9.13579e-06
8.47752e-06
7.76997e-06
7.01321e-06
6.22809e-06
5.4538e-06
4.73237e-06
4.08971e-06
3.53134e-06
3.05396e-06
2.6527e-06
2.32701e-06
2.05652e-06
1.89224e-06
1.60532e-06
1.87782e-06
1.25008e-06
8.67586e-06
8.40504e-06
8.12876e-06
7.81807e-06
7.50889e-06
7.19544e-06
6.88156e-06
6.57978e-06
6.29323e-06
6.01927e-06
5.7548e-06
5.49807e-06
5.24511e-06
4.99016e-06
4.72977e-06
4.46024e-06
4.1784e-06
3.88309e-06
3.5736e-06
3.25098e-06
2.91778e-06
2.57855e-06
2.23877e-06
1.90705e-06
1.5937e-06
1.30747e-06
1.05316e-06
8.32607e-07
6.45929e-07
4.91729e-07
3.67502e-07
2.70206e-07
1.96387e-07
1.42642e-07
1.05411e-07
8.56484e-08
7.96074e-08
9.65301e-08
1.77933e-07
7.00285e-06
7.2266e-06
7.47396e-06
7.72924e-06
7.9884e-06
8.25493e-06
8.51765e-06
8.76853e-06
9.00392e-06
9.21798e-06
9.40304e-06
9.55506e-06
9.66869e-06
9.73705e-06
9.75601e-06
9.71904e-06
9.62212e-06
9.46237e-06
9.23749e-06
8.95401e-06
8.60717e-06
8.19558e-06
7.73515e-06
7.23324e-06
6.68588e-06
6.09197e-06
5.46659e-06
4.83906e-06
4.24222e-06
3.69908e-06
3.21837e-06
2.80116e-06
2.44418e-06
2.15226e-06
1.89982e-06
1.74224e-06
1.51403e-06
1.48856e-06
1.45845e-06
6.7785e-06
6.56391e-06
6.34704e-06
6.10606e-06
5.8663e-06
5.62447e-06
5.38404e-06
5.15466e-06
4.9383e-06
4.73263e-06
4.53569e-06
4.34541e-06
4.15843e-06
3.97037e-06
3.77835e-06
3.57944e-06
3.37047e-06
3.14989e-06
2.91669e-06
2.67097e-06
2.41411e-06
2.14872e-06
1.87902e-06
1.61214e-06
1.35702e-06
1.12122e-06
9.09228e-07
7.23203e-07
5.63862e-07
4.30758e-07
3.224e-07
2.36674e-07
1.71025e-07
1.22737e-07
8.89423e-08
7.02943e-08
6.41338e-08
7.70048e-08
1.38715e-07
5.49139e-06
5.66999e-06
5.86828e-06
6.07392e-06
6.28452e-06
6.50225e-06
6.71904e-06
6.92805e-06
7.12744e-06
7.31203e-06
7.47658e-06
7.61773e-06
7.73163e-06
7.81278e-06
7.85771e-06
7.86155e-06
7.82024e-06
7.73078e-06
7.59002e-06
7.40162e-06
7.16183e-06
6.86729e-06
6.52758e-06
6.14967e-06
5.73092e-06
5.26938e-06
4.77565e-06
4.27153e-06
3.78226e-06
3.32756e-06
2.91735e-06
2.55545e-06
2.24078e-06
1.97876e-06
1.75083e-06
1.58847e-06
1.41833e-06
1.25583e-06
1.31554e-06
5.31385e-06
5.14349e-06
4.97256e-06
4.78467e-06
4.59773e-06
4.41024e-06
4.22476e-06
4.04932e-06
3.88475e-06
3.72922e-06
3.58104e-06
3.43878e-06
3.2995e-06
3.15999e-06
3.01776e-06
2.87005e-06
2.71448e-06
2.54953e-06
2.37377e-06
2.18678e-06
1.98919e-06
1.78249e-06
1.56956e-06
1.35608e-06
1.14942e-06
9.56253e-07
7.80452e-07
6.24422e-07
4.89204e-07
3.74969e-07
2.80969e-07
2.05821e-07
1.47721e-07
1.04553e-07
7.40656e-08
5.66942e-08
5.0631e-08
6.05683e-08
1.07424e-07
4.31905e-06
4.4617e-06
4.62073e-06
4.78668e-06
4.9573e-06
5.13503e-06
5.31312e-06
5.48663e-06
5.65378e-06
5.81119e-06
5.95436e-06
6.08137e-06
6.18866e-06
6.27279e-06
6.33069e-06
6.35826e-06
6.35227e-06
6.30953e-06
6.22722e-06
6.10659e-06
5.94483e-06
5.73842e-06
5.49145e-06
5.21071e-06
4.89387e-06
4.53878e-06
4.15259e-06
3.75129e-06
3.35383e-06
2.97678e-06
2.62991e-06
2.31859e-06
2.04344e-06
1.80935e-06
1.6052e-06
1.44397e-06
1.30292e-06
1.11213e-06
1.11358e-06
4.17796e-06
4.04286e-06
3.90755e-06
3.76047e-06
3.61407e-06
3.46792e-06
3.32411e-06
3.18885e-06
3.06272e-06
2.94416e-06
2.83199e-06
2.72484e-06
2.6204e-06
2.51598e-06
2.4097e-06
2.29952e-06
2.18332e-06
2.05963e-06
1.92703e-06
1.78489e-06
1.63323e-06
1.47273e-06
1.30531e-06
1.13526e-06
9.68634e-07
8.11043e-07
6.66163e-07
5.36002e-07
4.21885e-07
3.24378e-07
2.43258e-07
1.77714e-07
1.26555e-07
8.81649e-08
6.08275e-08
4.48447e-08
3.90625e-08
4.68654e-08
8.2594e-08
3.40607e-06
3.52011e-06
3.64772e-06
3.78176e-06
3.91995e-06
4.06482e-06
4.21076e-06
4.35405e-06
4.49357e-06
4.62639e-06
4.74943e-06
4.86109e-06
4.9588e-06
5.04003e-06
5.10209e-06
5.14228e-06
5.1575e-06
5.14505e-06
5.10241e-06
5.02904e-06
4.92373e-06
4.78215e-06
4.60545e-06
4.39967e-06
4.16323e-06
3.89321e-06
3.59419e-06
3.27768e-06
2.95787e-06
2.64804e-06
2.35744e-06
2.09185e-06
1.85313e-06
1.64567e-06
1.4629e-06
1.30972e-06
1.17958e-06
1.0007e-06
9.44038e-07
3.29375e-06
3.18636e-06
3.07893e-06
2.96342e-06
2.84834e-06
2.7338e-06
2.62181e-06
2.51699e-06
2.41964e-06
2.32864e-06
2.24298e-06
2.1615e-06
2.08243e-06
2.00385e-06
1.92409e-06
1.84137e-06
1.75413e-06
1.66107e-06
1.56093e-06
1.45278e-06
1.33642e-06
1.21207e-06
1.0809e-06
9.46055e-07
8.12396e-07
6.84462e-07
5.65585e-07
4.57541e-07
3.61732e-07
2.78913e-07
2.09259e-07
1.52382e-07
1.07556e-07
7.35953e-08
4.92319e-08
3.46987e-08
2.93293e-08
3.56165e-08
6.30973e-08
2.69241e-06
2.78382e-06
2.88633e-06
2.99444e-06
3.10644e-06
3.2243e-06
3.34369e-06
3.46156e-06
3.57749e-06
3.6888e-06
3.79344e-06
3.89003e-06
3.97693e-06
4.05185e-06
4.11315e-06
4.1586e-06
4.18565e-06
4.19205e-06
4.17551e-06
4.13474e-06
4.0693e-06
3.97532e-06
3.8515e-06
3.70326e-06
3.52905e-06
3.32592e-06
3.0966e-06
2.84929e-06
2.59446e-06
2.34233e-06
2.10106e-06
1.8764e-06
1.67097e-06
1.48838e-06
1.32525e-06
1.18336e-06
1.05898e-06
8.98384e-07
8.10012e-07
2.60305e-06
2.51745e-06
2.43188e-06
2.34094e-06
2.25018e-06
2.16004e-06
2.07246e-06
1.99071e-06
1.91514e-06
1.84478e-06
1.77893e-06
1.71655e-06
1.65629e-06
1.5966e-06
1.53627e-06
1.4739e-06
1.4081e-06
1.33777e-06
1.26193e-06
1.17965e-06
1.09044e-06
9.94192e-07
8.91581e-07
7.8495e-07
6.78089e-07
5.74785e-07
4.77662e-07
3.88433e-07
3.08393e-07
2.38407e-07
1.78905e-07
1.29796e-07
9.0702e-08
6.08221e-08
3.92522e-08
2.6187e-08
2.1318e-08
2.65171e-08
4.78947e-08
2.13287e-06
2.20619e-06
2.28865e-06
2.37582e-06
2.46653e-06
2.56237e-06
2.65978e-06
2.75664e-06
2.85248e-06
2.94533e-06
3.03351e-06
3.11615e-06
3.19197e-06
3.25929e-06
3.31693e-06
3.36302e-06
3.39561e-06
3.41301e-06
3.41305e-06
3.39437e-06
3.35667e-06
3.29667e-06
3.21226e-06
3.10733e-06
2.98085e-06
2.82993e-06
2.65596e-06
2.46462e-06
2.26343e-06
2.06023e-06
1.86175e-06
1.67327e-06
1.49784e-06
1.33858e-06
1.19349e-06
1.0639e-06
9.45933e-07
8.01004e-07
6.99766e-07
2.0617e-06
1.9934e-06
1.9251e-06
1.85325e-06
1.78146e-06
1.71024e-06
1.64145e-06
1.57747e-06
1.51847e-06
1.46371e-06
1.41267e-06
1.36458e-06
1.31832e-06
1.27271e-06
1.22672e-06
1.17935e-06
1.12947e-06
1.07622e-06
1.01858e-06
9.55817e-07
8.87407e-07
8.13035e-07
7.3294e-07
6.4888e-07
5.63725e-07
4.80555e-07
4.01536e-07
3.28141e-07
2.61556e-07
2.02697e-07
1.52095e-07
1.0989e-07
7.59619e-08
4.98094e-08
3.08308e-08
1.92097e-08
1.48884e-08
1.92967e-08
3.61625e-08
1.69292e-06
1.75171e-06
1.81814e-06
1.8884e-06
1.96187e-06
2.03977e-06
2.11912e-06
2.19858e-06
2.27748e-06
2.35461e-06
2.42846e-06
2.49852e-06
2.56368e-06
2.62299e-06
2.67533e-06
2.71932e-06
2.75365e-06
2.77664e-06
2.78681e-06
2.7826e-06
2.76389e-06
2.72775e-06
2.67209e-06
2.59934e-06
2.50903e-06
2.39848e-06
2.26798e-06
2.12145e-06
1.96412e-06
1.80184e-06
1.64009e-06
1.48339e-06
1.33457e-06
1.19682e-06
1.06863e-06
9.51328e-07
8.41188e-07
7.09755e-07
6.05737e-07
1.63609e-06
1.58158e-06
1.52701e-06
1.47008e-06
1.41315e-06
1.35678e-06
1.30249e-06
1.25217e-06
1.20587e-06
1.163e-06
1.1232e-06
1.08584e-06
1.05005e-06
1.01496e-06
9.79733e-07
9.43543e-07
9.05534e-07
8.64961e-07
8.21047e-07
7.7309e-07
7.20547e-07
6.63063e-07
6.00639e-07
5.34488e-07
4.66829e-07
4.00082e-07
3.36017e-07
2.75892e-07
2.20751e-07
1.71475e-07
1.28644e-07
9.25445e-08
6.32469e-08
4.04769e-08
2.3879e-08
1.36433e-08
9.87845e-09
1.36915e-08
2.71938e-08
1.34604e-06
1.39327e-06
1.44672e-06
1.50343e-06
1.56288e-06
1.62609e-06
1.69075e-06
1.75573e-06
1.82057e-06
1.88432e-06
1.94588e-06
2.00479e-06
2.06037e-06
2.1118e-06
2.15828e-06
2.19884e-06
2.23234e-06
2.25755e-06
2.27328e-06
2.2781e-06
2.27185e-06
2.25223e-06
2.2171e-06
2.1682e-06
2.10491e-06
2.02497e-06
1.92824e-06
1.81719e-06
1.6954e-06
1.56702e-06
1.43633e-06
1.30716e-06
1.18203e-06
1.06358e-06
9.51308e-07
8.45771e-07
7.44443e-07
6.2559e-07
5.24104e-07
1.3006e-06
1.25709e-06
1.21346e-06
1.16818e-06
1.12297e-06
1.07826e-06
1.03528e-06
9.95549e-07
9.59034e-07
9.25327e-07
8.94115e-07
8.64902e-07
8.37039e-07
8.09818e-07
7.82658e-07
7.54855e-07
7.25732e-07
6.94702e-07
6.61117e-07
6.24383e-07
5.84003e-07
5.39546e-07
4.90911e-07
4.38922e-07
3.85246e-07
3.31843e-07
2.80077e-07
2.31005e-07
1.85525e-07
1.44439e-07
1.08351e-07
7.76135e-08
5.24319e-08
3.2708e-08
1.82792e-08
9.34485e-09
6.11844e-09
9.46135e-09
2.0418e-08
1.07189e-06
1.10989e-06
1.15289e-06
1.19866e-06
1.24678e-06
1.29802e-06
1.35066e-06
1.40371e-06
1.45692e-06
1.50945e-06
1.56055e-06
1.60983e-06
1.65682e-06
1.70084e-06
1.74144e-06
1.77775e-06
1.80906e-06
1.83436e-06
1.85266e-06
1.86271e-06
1.86439e-06
1.85586e-06
1.83523e-06
1.80348e-06
1.76015e-06
1.70333e-06
1.63254e-06
1.54925e-06
1.45584e-06
1.35523e-06
1.25059e-06
1.14493e-06
1.04053e-06
9.39532e-07
8.41822e-07
7.47763e-07
6.55633e-07
5.49018e-07
4.53114e-07
1.03555e-06
1.00078e-06
9.65889e-07
9.29776e-07
8.93825e-07
8.58289e-07
8.24183e-07
7.92695e-07
7.63799e-07
7.37147e-07
7.12528e-07
6.89593e-07
6.67783e-07
6.46537e-07
6.25443e-07
6.03941e-07
5.81516e-07
5.57699e-07
5.31933e-07
5.0371e-07
4.72605e-07
4.38194e-07
4.00301e-07
3.5949e-07
3.17015e-07
2.74358e-07
2.32654e-07
1.92726e-07
1.55352e-07
1.21234e-07
9.09555e-08
6.49053e-08
4.33635e-08
2.63695e-08
1.38981e-08
6.16088e-09
3.43242e-09
6.37936e-09
1.53699e-08
8.54786e-07
8.8534e-07
9.19972e-07
9.5689e-07
9.95828e-07
1.03739e-06
1.08016e-06
1.12343e-06
1.16701e-06
1.21019e-06
1.25242e-06
1.29344e-06
1.33287e-06
1.37025e-06
1.40522e-06
1.43722e-06
1.4656e-06
1.48961e-06
1.50846e-06
1.52121e-06
1.52763e-06
1.52632e-06
1.51568e-06
1.49612e-06
1.46727e-06
1.42761e-06
1.37653e-06
1.31473e-06
1.24378e-06
1.16564e-06
1.08256e-06
9.96878e-07
9.10379e-07
8.24904e-07
7.40508e-07
6.57509e-07
5.7458e-07
4.79664e-07
3.9132e-07
8.25694e-07
7.97882e-07
7.69964e-07
7.41148e-07
7.12496e-07
6.84206e-07
6.57091e-07
6.32063e-07
6.09112e-07
5.8796e-07
5.68483e-07
5.50332e-07
5.33145e-07
5.16516e-07
5.00057e-07
4.83345e-07
4.65982e-07
4.47598e-07
4.2775e-07
4.0601e-07
3.82003e-07
3.5536e-07
3.25829e-07
2.93788e-07
2.60213e-07
2.26219e-07
1.92704e-07
1.60319e-07
1.29711e-07
1.01491e-07
7.61913e-08
5.42166e-08
3.58762e-08
2.13085e-08
1.05852e-08
3.92939e-09
1.64187e-09
4.23814e-09
1.16668e-08
6.82511e-07
7.07098e-07
7.34971e-07
7.64761e-07
7.96248e-07
8.29927e-07
8.64665e-07
8.99907e-07
9.3553e-07
9.70935e-07
1.00574e-06
1.03975e-06
1.07266e-06
1.10417e-06
1.134e-06
1.16173e-06
1.18688e-06
1.20888e-06
1.22716e-06
1.24094e-06
1.2499e-06
1.25305e-06
1.24901e-06
1.23791e-06
1.21942e-06
1.19236e-06
1.15602e-06
1.11073e-06
1.05736e-06
9.97177e-07
9.31747e-07
8.62779e-07
7.91695e-07
7.19857e-07
6.47535e-07
5.74867e-07
5.0112e-07
4.17414e-07
3.37516e-07
6.59205e-07
6.36958e-07
6.14597e-07
5.91584e-07
5.6873e-07
5.4618e-07
5.24581e-07
5.04653e-07
4.86375e-07
4.69531e-07
4.54034e-07
4.39646e-07
4.26049e-07
4.12933e-07
4.00015e-07
3.86967e-07
3.73476e-07
3.59236e-07
3.43887e-07
3.27104e-07
3.08546e-07
2.87871e-07
2.64847e-07
2.3971e-07
2.1318e-07
1.86139e-07
1.59258e-07
1.33063e-07
1.08079e-07
8.48289e-08
6.37803e-08
4.53215e-08
2.97812e-08
1.7356e-08
8.18191e-09
2.489e-09
5.79763e-10
2.8478e-09
9.00346e-09
5.45567e-07
5.65351e-07
5.87781e-07
6.11823e-07
6.37279e-07
6.64552e-07
6.92751e-07
7.21433e-07
7.50494e-07
7.7949e-07
8.08104e-07
8.36188e-07
8.63537e-07
8.89923e-07
9.1514e-07
9.38907e-07
9.60852e-07
9.80564e-07
9.97559e-07
1.01121e-06
1.02123e-06
1.02692e-06
1.02713e-06
1.02173e-06