/*--------------------------------*- C++ -*----------------------------------*\
| =========                 |                                                 |
| \\      /  F ield         | OpenFOAM: The Open Source CFD Toolbox           |
|  \\    /   O peration     | Version:  2206                                  |
|   \\  /    A nd           | Website:  www.openfoam.com                      |
|    \\/     M anipulation  |                                                 |
\*---------------------------------------------------------------------------*/
FoamFile
{
    version     2.0;
    format      ascii;
    arch        "LSB;label=32;scalar=64";
    class       volSymmTensorField;
    location    "350";
    object      turbulenceProperties:devReff;
}
// * * * * * * * * * * * * * * * * * * * * * * * * * * * * * * * * * * * * * //

dimensions      [0 2 -2 0 0 0 0];

internalField   nonuniform List<symmTensor> 
10720
(
(0.0016372 0.00425805 -1.66523e-21 -0.0017738 -6.22792e-20 0.000136602)
(0.00238863 0.00488032 1.07159e-21 -0.00248657 6.81642e-20 9.79459e-05)
(0.00361123 0.00546095 1.60037e-20 -0.00380846 6.76716e-20 0.000197236)
(0.00524618 0.00621524 7.50524e-20 -0.00549217 6.12571e-19 0.000245993)
(0.00742529 0.0068738 -3.04677e-19 -0.00769395 -1.22065e-18 0.000268658)
(0.0104045 0.00726228 -3.6158e-19 -0.0107959 -7.37014e-19 0.000391462)
(0.0142997 0.00737499 1.27674e-19 -0.014786 1.23382e-20 0.00048628)
(0.0191885 0.00685941 6.94197e-20 -0.0197711 1.09765e-19 0.000582612)
(0.0252402 0.00535186 1.80822e-19 -0.0259868 -1.46061e-19 0.000746597)
(0.0325659 0.0026064 -2.77735e-20 -0.0334664 -2.78649e-20 0.000900493)
(0.0413439 -0.001898 3.18777e-18 -0.0424354 1.2852e-18 0.00109153)
(0.0519617 -0.00873425 -7.59321e-19 -0.0532796 -5.83183e-19 0.00131787)
(0.0649604 -0.0188225 1.53579e-18 -0.0665536 -2.30584e-18 0.00159324)
(0.0812502 -0.0337504 7.49161e-19 -0.0832051 1.60741e-18 0.00195489)
(0.102372 -0.056171 1.17579e-18 -0.104838 -2.08457e-18 0.00246634)
(0.130536 -0.0904077 4.81463e-19 -0.13371 7.33994e-18 0.00317465)
(0.16989 -0.145066 3.69821e-17 -0.174197 1.9691e-17 0.00430682)
(0.224292 -0.232436 -1.03636e-17 -0.230173 1.39416e-17 0.00588069)
(0.310954 -0.38891 -4.15191e-18 -0.31957 -6.73901e-17 0.00861562)
(0.426468 -0.641774 2.22436e-18 -0.438643 -4.33926e-19 0.012175)
(0.666907 -1.21435 -6.5964e-17 -0.686305 -8.97418e-17 0.0193974)
(0.945561 -2.11443 1.57405e-16 -0.971676 4.77272e-16 0.0261146)
(1.76589 -5.12956 -2.5741e-16 -1.81805 -9.3188e-16 0.0521618)
(2.42843 -10.3117 4.53155e-16 -2.51193 1.24298e-16 0.0835011)
(1.5284 -11.6473 -2.48634e-16 -1.56962 -1.193e-17 0.0412219)
(0.526733 -11.2291 2.09903e-17 -0.515359 -1.28069e-15 -0.0113733)
(-0.145615 -11.0447 2.70143e-16 0.175446 -6.42717e-17 -0.0298313)
(-0.664838 -11.2272 1.95559e-16 0.689667 4.1253e-16 -0.0248295)
(-1.13621 -11.4409 1.14977e-15 1.15268 5.6023e-16 -0.01647)
(-1.57164 -11.4536 1.048e-15 1.58001 4.51122e-15 -0.0083702)
(-1.95777 -11.2395 -2.01191e-15 1.95606 -1.7398e-15 0.00170396)
(-2.27347 -10.8333 -2.1766e-15 2.26299 -3.02275e-15 0.0104732)
(-2.4935 -10.22 -9.24826e-16 2.47856 -3.97088e-15 0.0149342)
(-2.60502 -9.41339 -2.96448e-15 2.58965 -5.58174e-15 0.0153712)
(-2.58914 -8.40525 1.07418e-15 2.57493 2.92196e-15 0.0142055)
(-2.4352 -7.22665 1.80066e-16 2.42419 2.16259e-15 0.0110167)
(-2.07389 -5.67304 -4.60171e-17 2.06045 3.65119e-18 0.0134439)
(-1.58643 -4.17128 -1.78665e-15 1.58472 -1.07479e-16 0.00171505)
(-0.472518 -0.92653 -3.597e-16 0.473307 -1.68917e-15 -0.000789097)
(0.000968075 0.00371324 1.24935e-21 -0.00101996 -4.47058e-21 5.18883e-05)
(0.000549688 0.00319733 -6.73393e-21 -0.000639719 6.83932e-21 9.00308e-05)
(0.000179283 0.00261125 -3.69096e-20 -0.000226353 -2.56701e-20 4.70696e-05)
(-6.71191e-05 0.00208983 3.82677e-20 3.29892e-05 -5.46546e-20 3.41299e-05)
(-0.000179309 0.00159699 -4.70811e-20 0.00016102 -4.67942e-20 1.82888e-05)
(-0.000172658 0.00116727 -2.41161e-19 0.000173052 2.92843e-19 -3.93597e-07)
(-8.40585e-05 0.000835349 8.15498e-20 0.000108164 2.73126e-19 -2.4105e-05)
(5.47419e-05 0.00063695 -4.33565e-20 -1.70422e-05 -3.89629e-19 -3.76997e-05)
(0.000231317 0.000621222 2.00696e-19 -0.000204919 4.91652e-21 -2.63983e-05)
(0.000471262 0.000742198 -1.48201e-19 -0.00046797 -4.26227e-20 -3.29208e-06)
(0.000812308 0.00102674 1.27501e-19 -0.000822952 3.0737e-19 1.06437e-05)
(0.00130635 0.00156633 2.60635e-19 -0.00132433 -1.22026e-19 1.79823e-05)
(0.00202416 0.00252553 -2.5942e-19 -0.00205432 -7.47385e-20 3.01681e-05)
(0.00305547 0.00413693 1.60536e-20 -0.00310677 1.13867e-19 5.12974e-05)
(0.00447286 0.00664432 9.41233e-19 -0.0045478 2.00136e-19 7.49378e-05)
(0.00629894 0.0103373 9.02016e-19 -0.00640764 -1.90434e-19 0.0001087)
(0.00863877 0.0156344 4.08404e-19 -0.00878452 6.36832e-19 0.000145749)
(0.0117397 0.0234237 2.96108e-19 -0.0119378 6.29259e-19 0.000198167)
(0.0161475 0.0354487 3.13219e-19 -0.0164159 -1.76927e-19 0.000268362)
(0.0226875 0.0549967 5.91168e-19 -0.023078 2.58792e-20 0.000390527)
(0.0329393 0.0886133 -8.89068e-19 -0.0335302 -5.39258e-18 0.000590902)
(0.0490708 0.148522 -3.12969e-18 -0.0500501 -1.03059e-19 0.000979367)
(0.0757007 0.263741 2.96786e-18 -0.0774784 5.23877e-18 0.00177774)
(0.116277 0.487749 2.14032e-18 -0.119913 -5.65658e-19 0.00363647)
(0.183233 0.979403 7.47106e-17 -0.191079 -1.51611e-17 0.0078459)
(0.277931 2.01754 -1.11738e-18 -0.294305 -1.16258e-17 0.0163743)
(0.410032 4.53249 1.98085e-19 -0.448505 7.3008e-18 0.038473)
(0.421153 9.36873 2.27273e-18 -0.501459 -6.9823e-20 0.0803056)
(0.00812329 13.2918 3.31345e-19 -0.112265 4.48728e-21 0.104142)
(-0.628743 14.9596 3.6489e-16 0.530411 5.08954e-18 0.0983316)
(-1.26784 15.3985 -4.20032e-18 1.1856 -2.17049e-19 0.082244)
(-1.85322 15.4184 -2.64543e-17 1.78588 3.60762e-17 0.0673383)
(-2.37738 15.2562 -2.24308e-15 2.32159 -1.86766e-16 0.0557949)
(-2.83315 14.9561 -4.02511e-15 2.78625 -2.58973e-16 0.0469018)
(-3.21854 14.5339 3.58624e-15 3.17822 3.9133e-16 0.0403269)
(-3.53764 14.0109 -2.69047e-17 3.50237 1.37034e-16 0.0352632)
(-3.77531 13.2878 1.36102e-18 3.74322 -5.27343e-16 0.0320889)
(-3.91954 12.4705 -1.93949e-16 3.88954 2.82942e-16 0.0299976)
(-3.64018 10.0664 -3.51065e-15 3.63357 1.2555e-16 0.00661066)
(0.000579436 -0.00046054 -4.14406e-21 -0.000520051 -1.26836e-20 -5.93849e-05)
(0.000492607 -0.000547367 7.54294e-21 -0.000425489 1.7078e-20 -6.71181e-05)
(0.000371415 -0.00062296 -3.37184e-22 -0.000291094 4.84702e-23 -8.03212e-05)
(0.000250517 -0.000652188 1.57199e-20 -0.000158586 2.33508e-21 -9.19314e-05)
(0.000133146 -0.000645118 1.07479e-20 -3.25511e-05 9.34053e-20 -0.000100595)
(2.31373e-05 -0.000610492 7.12157e-20 8.61863e-05 1.24531e-19 -0.000109324)
(-6.02937e-05 -0.000551408 -3.56522e-20 0.000177204 5.74109e-21 -0.00011691)
(-0.000116639 -0.000479011 -3.00495e-20 0.000238477 -7.88971e-21 -0.000121838)
(-0.000149305 -0.00040478 -1.6912e-19 0.000274586 -1.86824e-19 -0.000125281)
(-0.000158013 -0.000336004 -5.64487e-20 0.000285263 -1.85956e-20 -0.00012725)
(-0.000150113 -0.000278309 -4.89685e-19 0.000277011 -4.78323e-19 -0.000126898)
(-0.000132662 -0.000239955 -5.85712e-21 0.000258891 8.03443e-20 -0.00012623)
(-0.000110887 -0.000226129 -2.60715e-19 0.000240757 7.6963e-21 -0.00012987)
(-8.62502e-05 -0.000245808 1.93978e-19 0.00023112 1.15285e-19 -0.000144869)
(-4.85339e-05 -0.000344673 -5.27985e-19 0.000241488 -1.53956e-19 -0.000192954)
(6.25461e-05 -0.000658713 1.92856e-18 0.000258276 4.67436e-19 -0.000320823)
(0.000455558 -0.00154901 -3.34869e-18 0.000142036 -2.91047e-18 -0.000597594)
(0.00150317 -0.00355107 -5.7464e-18 -0.000499781 -2.32837e-18 -0.00100339)
(0.00420968 -0.00868457 -1.1931e-17 -0.00254039 5.03219e-18 -0.00166929)
(0.0104964 -0.0211777 2.34484e-18 -0.00791024 -2.05378e-20 -0.0025862)
(0.0294712 -0.0625025 2.18517e-17 -0.025064 3.22431e-17 -0.00440718)
(0.0738487 -0.174162 -4.15458e-17 -0.0676519 -1.26509e-16 -0.00619679)
(0.19422 -0.542735 -2.20711e-18 -0.186468 2.26478e-16 -0.00775219)
(0.503326 -1.77947 5.2072e-18 -0.500566 -8.7218e-17 -0.0027601)
(0.748989 -3.54596 -0 -0.772648 -0 0.0236584)
(0.79066 -5.39885 -2.56344e-17 -0.844931 6.08621e-16 0.054271)
(0.604034 -7.15453 -6.82581e-17 -0.675834 4.69404e-17 0.0718001)
(0.204223 -8.3976 -1.1073e-16 -0.279786 -4.76136e-16 0.0755632)
(-0.295906 -8.63807 -9.74265e-16 0.22985 -2.62926e-15 0.066056)
(-0.707425 -7.89851 3.87899e-16 0.666165 -8.29733e-15 0.0412606)
(-0.931439 -6.69243 -1.09071e-16 0.923025 5.63963e-15 0.00841445)
(-0.998381 -5.47832 -3.38877e-16 1.01654 7.39176e-15 -0.0181546)
(-0.98448 -4.49854 -2.19873e-15 1.01426 4.27092e-15 -0.0297831)
(-0.930909 -3.75377 6.48178e-15 0.960539 1.54346e-14 -0.02963)
(-0.863901 -3.18666 -4.13476e-16 0.887905 -2.76581e-15 -0.0240036)
(-0.78164 -2.74369 6.2389e-15 0.802122 -3.67488e-15 -0.0204822)
(-0.73092 -2.43244 -2.2404e-16 0.744291 4.92644e-17 -0.0133705)
(-0.560379 -2.13714 3.17462e-15 0.595673 7.0518e-16 -0.0352939)
(-0.787367 -2.25533 5.72192e-15 0.698392 6.56135e-15 0.0889748)
(0.000645661 -0.000345021 4.77937e-21 -0.000595431 1.56426e-20 -5.02303e-05)
(0.000684428 -0.000224623 -3.06755e-21 -0.000637476 -6.55501e-20 -4.69525e-05)
(0.000691704 -7.64042e-05 -4.11793e-20 -0.000654671 -1.37252e-19 -3.70326e-05)
(0.00065426 8.66733e-05 7.5751e-21 -0.000627673 1.94425e-19 -2.65865e-05)
(0.000565091 0.000235296 8.96688e-20 -0.000550967 -8.44946e-20 -1.41237e-05)
(0.000429289 0.000348906 -2.54444e-20 -0.00042563 -1.38468e-19 -3.65906e-06)
(0.000271237 0.000405981 1.37692e-19 -0.000274649 -2.98129e-19 3.41285e-06)
(0.000131127 0.000406961 -2.33452e-19 -0.0001402 -3.16369e-20 9.07225e-06)
(2.28785e-05 0.000374121 -1.28309e-19 -3.33885e-05 2.91659e-19 1.05101e-05)
(-6.63102e-05 0.000316366 -3.9107e-20 6.00838e-05 -1.49439e-20 6.22642e-06)
(-0.000121765 0.000243634 -6.44745e-20 0.000123183 -1.47648e-19 -1.41871e-06)
(-0.000141756 0.000176676 1.34083e-20 0.000150078 -7.8659e-20 -8.32182e-06)
(-0.000139971 0.0001244 5.41084e-20 0.000152777 1.3894e-19 -1.28061e-05)
(-0.00012757 8.66303e-05 -4.75613e-20 0.000142839 -3.23781e-20 -1.52685e-05)
(-0.000111045 6.08907e-05 -2.77636e-20 0.000127503 -9.94372e-20 -1.64577e-05)
(-9.41918e-05 4.40028e-05 -9.91294e-20 0.000110952 -3.02691e-20 -1.676e-05)
(-7.86836e-05 3.33875e-05 -1.7636e-20 9.51011e-05 -2.31133e-22 -1.64176e-05)
(-6.53916e-05 2.68721e-05 -1.13698e-21 8.10457e-05 -1.0237e-20 -1.56541e-05)
(-5.43351e-05 2.27326e-05 -1.13178e-20 6.89943e-05 8.15306e-21 -1.46592e-05)
(-4.52864e-05 1.99634e-05 1.9722e-20 5.89194e-05 -6.73702e-21 -1.3633e-05)
(-3.7998e-05 1.79318e-05 -1.19577e-19 5.07312e-05 8.84949e-20 -1.27332e-05)
(-3.26728e-05 1.64684e-05 -2.54632e-20 4.49203e-05 5.2771e-21 -1.22475e-05)
(-2.91898e-05 1.55177e-05 -9.33064e-22 4.16894e-05 -2.38776e-20 -1.24996e-05)
(-2.68699e-05 1.54949e-05 1.1335e-19 4.05157e-05 6.29101e-21 -1.36457e-05)
(-2.46033e-05 1.7262e-05 -9.84246e-20 3.96875e-05 8.41953e-21 -1.50842e-05)
(-0.000235286 0.000213472 -9.61481e-19 0.00040457 2.11444e-19 -0.000169284)
(-0.00119736 0.00135667 -8.18053e-20 0.00216753 -1.23815e-19 -0.000970172)
(-0.00866826 0.0119926 -6.57629e-21 0.0162494 -3.44078e-19 -0.00758112)
(-0.0262258 0.0459277 -4.97881e-20 0.0499572 -6.76535e-22 -0.0237314)
(-0.0449432 0.102711 2.70964e-18 0.084997 2.25538e-18 -0.0400537)
(-0.0579714 0.170671 1.84625e-19 0.105296 -1.007e-18 -0.0473246)
(-0.0659762 0.235235 4.71332e-18 0.111229 -1.75262e-17 -0.0452531)
(-0.0730158 0.289374 2.45571e-15 0.112018 1.76547e-16 -0.0390023)
(-0.0819855 0.334931 2.30272e-15 0.114738 1.24259e-16 -0.0327527)
(-0.0941513 0.375368 -2.1385e-15 0.122122 -2.52209e-16 -0.0279711)
(-0.108447 0.415557 2.07408e-15 0.133603 2.72142e-16 -0.0251553)
(-0.128782 0.456179 -3.67756e-15 0.151571 -5.42846e-16 -0.0227882)
(-0.147319 0.552309 -3.42317e-15 0.174166 -7.47137e-16 -0.0268469)
(-0.207648 0.775743 -3.41903e-15 0.197449 -1.03685e-16 0.0101993)
(0.00033368 -0.000312817 -1.56782e-21 -0.000360069 -5.64959e-21 2.63892e-05)
(0.000258356 -0.000372291 -3.36531e-20 -0.000290233 -7.93593e-20 3.18766e-05)
(0.000160845 -0.000413568 2.47497e-20 -0.000197973 5.9164e-20 3.7128e-05)
(5.20631e-05 -0.00042637 3.41404e-20 -9.69383e-05 6.46359e-20 4.48752e-05)
(-5.44346e-05 -0.000413084 6.17183e-20 3.55264e-06 8.91487e-20 5.0882e-05)
(-0.000154794 -0.000372462 -1.89344e-19 9.79161e-05 -3.31402e-19 5.68775e-05)
(-0.000238956 -0.000308492 1.32592e-19 0.000175443 2.66142e-19 6.35132e-05)
(-0.000300011 -0.000230745 1.76489e-19 0.000231142 1.57478e-19 6.88693e-05)
(-0.000337776 -0.000145419 -1.01096e-20 0.000264313 2.12885e-20 7.3463e-05)
(-0.000352975 -6.11055e-05 1.06895e-19 0.000275463 1.90571e-19 7.75121e-05)
(-0.000348668 1.65947e-05 -2.31348e-19 0.000268543 -1.09457e-20 8.01246e-05)
(-0.000331388 8.39197e-05 3.14176e-19 0.000250352 3.48616e-19 8.10356e-05)
(-0.000307337 0.000139297 1.47742e-19 0.000227523 6.06695e-20 7.98137e-05)
(-0.000281411 0.00018489 7.38785e-20 0.000204178 -7.05612e-20 7.72332e-05)
(-0.000253955 0.00021868 2.11371e-19 0.00018151 2.08853e-19 7.24459e-05)
(-0.000223929 0.000237718 -5.20921e-19 0.000158983 -5.31272e-19 6.49463e-05)
(-0.000181835 0.000230201 1.17681e-19 0.000129372 1.72104e-19 5.24629e-05)
(-0.000152719 0.000223754 9.30762e-19 0.000110237 2.73047e-19 4.24816e-05)
(-0.000100149 0.000165367 2.09376e-19 7.43313e-05 1.54182e-19 2.58175e-05)
(-0.000912774 0.0016451 -6.72393e-19 0.000706059 -4.67399e-20 0.000206715)
(-0.00186637 0.00357543 1.86758e-18 0.00151986 -4.12188e-18 0.000346515)
(-0.000888623 0.00175621 2.44565e-19 0.000772723 2.10881e-18 0.0001159)
(-0.000309661 0.000353658 6.57345e-18 0.000330932 -1.35121e-18 -2.12709e-05)
(0.00236044 -0.00878906 -1.06665e-17 -0.0019026 -4.45019e-18 -0.00045784)
(0.0133766 -0.059162 2.63483e-19 -0.0113703 6.68147e-19 -0.00200629)
(0.0324058 -0.194731 -5.76643e-17 -0.0282163 1.64843e-17 -0.00418954)
(0.053259 -0.491579 2.00722e-17 -0.0472458 8.29455e-18 -0.00601323)
(0.0636438 -1.11037 -2.55046e-17 -0.0564589 -2.11121e-18 -0.00718491)
(0.0252742 -2.2011 -6.35605e-16 -0.0184913 6.49384e-16 -0.00678286)
(-0.120044 -3.63419 -1.0842e-15 0.123207 3.35191e-17 -0.00316311)
(-0.387501 -4.91705 3.90452e-15 0.382256 -1.15018e-15 0.00524456)
(-0.692089 -5.52602 3.18513e-15 0.67762 1.73713e-15 0.0144681)
(-0.905802 -5.36844 -1.54722e-16 0.89003 4.30062e-15 0.0157718)
(-0.983313 -4.78804 6.63757e-15 0.974897 -5.04443e-15 0.00841627)
(-0.965049 -4.12896 5.16021e-15 0.963566 -2.92478e-15 0.00148282)
(-0.878658 -3.52429 -9.57985e-15 0.881632 -3.5508e-15 -0.0029738)
(-0.798717 -3.05393 -2.70079e-17 0.797794 -1.68917e-15 0.000923611)
(-0.531544 -2.55678 6.26835e-15 0.547631 -1.5845e-15 -0.0160873)
(-0.844065 -2.81498 -1.30986e-14 0.826063 4.22417e-15 0.0180021)
(0.000395295 -0.000236813 -7.38049e-21 -0.000419383 -1.78438e-20 2.40876e-05)
(0.000435598 -0.000154361 -6.1364e-21 -0.00045497 -6.72998e-21 1.93724e-05)
(0.000460052 -5.32872e-05 5.5379e-20 -0.000474978 9.6972e-20 1.49267e-05)
(0.000454768 5.43734e-05 -3.34276e-20 -0.000464212 -1.63534e-21 9.44396e-06)
(0.000415694 0.000160464 7.97053e-21 -0.000421159 4.1798e-20 5.46478e-06)
(0.000342133 0.000248048 -1.30386e-20 -0.000344114 1.32271e-19 1.98136e-06)
(0.000244206 0.00030301 -3.00896e-20 -0.000243899 1.253e-19 -3.06749e-07)
(0.000141067 0.00031991 3.513e-19 -0.000141814 2.5357e-19 7.46212e-07)
(4.81425e-05 0.000309276 5.24145e-20 -4.96036e-05 -6.88526e-20 1.46111e-06)
(-2.83396e-05 0.000273939 1.87379e-19 2.72842e-05 2.44844e-20 1.05543e-06)
(-7.85686e-05 0.000221406 -1.45794e-19 7.72396e-05 -9.78901e-20 1.32904e-06)
(-0.00010266 0.000166973 -1.05124e-19 0.000100154 1.61363e-19 2.50561e-06)
(-0.000108699 0.00011937 1.13134e-19 0.000104635 -5.72641e-20 4.06384e-06)
(-0.000104074 8.10095e-05 9.28441e-20 9.83172e-05 -3.39077e-22 5.75686e-06)
(-9.40462e-05 5.20567e-05 -6.68118e-20 8.68721e-05 6.44459e-20 7.17418e-06)
(-8.20407e-05 3.10448e-05 -4.81027e-20 7.36773e-05 1.16097e-19 8.36336e-06)
(-7.02299e-05 1.64129e-05 1.1634e-19 6.10102e-05 -7.13088e-20 9.21968e-06)
(-5.97415e-05 6.31586e-06 1.07998e-19 4.98997e-05 -1.97228e-20 9.8418e-06)
(-5.10637e-05 -7.6155e-07 4.22384e-20 4.08728e-05 -3.7448e-21 1.01909e-05)
(-4.39383e-05 -6.08711e-06 -1.42368e-20 3.3494e-05 5.26836e-20 1.04443e-05)
(-3.80785e-05 -1.04075e-05 1.99675e-19 2.74939e-05 2.4686e-20 1.05847e-05)
(-3.29301e-05 -1.44528e-05 7.91541e-21 2.21567e-05 -3.6712e-20 1.07734e-05)
(-2.77606e-05 -1.8672e-05 -6.3173e-22 1.66906e-05 -2.35945e-21 1.10699e-05)
(-2.10898e-05 -2.26157e-05 -4.34474e-21 9.23671e-06 -2.54007e-20 1.18531e-05)
(-1.29587e-05 -2.48037e-05 -3.55544e-21 -2.33776e-07 1.87005e-20 1.31925e-05)
(-4.80959e-06 -2.40849e-05 3.09805e-19 -9.43684e-06 -1.59145e-20 1.42464e-05)
(2.16904e-06 -2.25524e-05 8.27231e-22 -1.80218e-05 -2.38428e-23 1.58528e-05)
(5.47518e-06 -1.38328e-05 -2.36726e-20 -1.76536e-05 1.32773e-21 1.21784e-05)
(5.62244e-05 -7.33674e-05 -1.14826e-21 -0.000143645 -1.76447e-22 8.7421e-05)
(0.000480967 -0.00027563 -2.55347e-18 -0.00111245 -9.52873e-20 0.000631479)
(0.00145024 0.000425452 1.76611e-17 -0.00322053 7.84151e-19 0.00177029)
(0.00231349 0.00468848 -2.39593e-19 -0.00521469 -1.32881e-20 0.0029012)
(0.00185825 0.0154461 -2.7325e-16 -0.00506966 -1.27764e-17 0.0032114)
(-0.000686655 0.0342893 -3.14345e-19 -0.00190464 9.44407e-18 0.00259129)
(-0.00552524 0.0608561 -1.19302e-18 0.00397948 8.15599e-18 0.00154576)
(-0.0113262 0.0929733 3.53981e-17 0.0108228 -1.03019e-16 0.000503391)
(-0.0190692 0.127603 -1.72783e-16 0.0190198 7.10651e-16 4.93333e-05)
(-0.00964162 0.1541 2.18659e-15 0.0104727 8.14295e-16 -0.000831068)
(-0.0374643 0.261201 4.4863e-15 0.0294827 1.75799e-15 0.00798161)
(0.000306281 -0.000258231 -6.67654e-21 -0.000296877 -1.2478e-20 -9.40459e-06)
(0.000259299 -0.00030609 -1.45499e-20 -0.000248912 -2.33139e-20 -1.0387e-05)
(0.00019591 -0.000347417 2.78038e-20 -0.000182637 4.23009e-20 -1.32732e-05)
(0.000125023 -0.000374219 3.91402e-20 -0.000109144 3.80668e-20 -1.58788e-05)
(5.17719e-05 -0.000382641 4.42363e-21 -3.28906e-05 -1.9208e-21 -1.88812e-05)
(-2.12968e-05 -0.000372949 -1.50106e-20 4.36737e-05 3.69053e-20 -2.23769e-05)
(-8.66787e-05 -0.000347089 2.84989e-19 0.000112595 2.85545e-19 -2.5916e-05)
(-0.000139543 -0.000308088 -2.66772e-19 0.000168999 -3.54238e-19 -2.94559e-05)
(-0.00017842 -0.000260565 7.45469e-20 0.000211685 1.92724e-20 -3.32656e-05)
(-0.000202008 -0.000209914 3.51844e-19 0.000238698 2.60644e-19 -3.66904e-05)
(-0.000211577 -0.000160038 2.76264e-19 0.000251489 2.80581e-19 -3.99116e-05)
(-0.000209294 -0.000114101 2.98957e-19 0.000251824 8.59043e-20 -4.25298e-05)
(-0.00019773 -7.42121e-05 -3.32358e-19 0.000241976 -2.52023e-19 -4.42458e-05)
(-0.000179869 -4.12315e-05 -2.07615e-19 0.000224689 -2.08275e-19 -4.48199e-05)
(-0.000157731 -1.50493e-05 2.27367e-20 0.0002022 -6.94546e-20 -4.44696e-05)
(-0.000133126 7.47561e-06 -5.03192e-19 0.000175297 3.54227e-20 -4.21707e-05)
(-0.000107615 2.66332e-05 -1.37695e-19 0.000145763 -1.745e-19 -3.81478e-05)
(-8.45546e-05 4.29141e-05 -7.71783e-19 0.000117519 -6.00224e-19 -3.2964e-05)
(-6.1675e-05 5.43904e-05 7.41766e-20 8.6572e-05 -9.98219e-20 -2.4897e-05)
(-4.27255e-05 5.8181e-05 2.68042e-20 5.86098e-05 -6.11432e-20 -1.58844e-05)
(-3.8087e-05 7.09067e-05 -2.56394e-19 4.90575e-05 -3.03979e-21 -1.09705e-05)
(-7.16287e-05 0.00016658 7.50709e-20 8.61819e-05 1.66032e-20 -1.45532e-05)
(-0.000155381 0.000466415 -8.86801e-19 0.000180547 -1.80478e-19 -2.5166e-05)
(-0.000526442 0.00239577 -1.43568e-18 0.000628057 1.54116e-18 -0.000101615)
(-0.000663936 0.00715601 1.18991e-18 0.000967749 8.06331e-20 -0.000303812)
(0.000527637 0.0132858 1.07671e-17 8.33918e-05 5.74294e-18 -0.000611029)
(0.000534247 0.00277113 -3.0018e-19 -0.000382722 1.24028e-19 -0.000151525)
(0.00172302 0.00237149 1.04788e-18 -0.00144222 6.64604e-20 -0.000280792)
(0.00477104 -0.0115923 4.07396e-17 -0.00420505 2.4814e-18 -0.000565985)
(0.00995683 -0.108227 -9.89329e-18 -0.00871616 1.20915e-16 -0.00124067)
(-0.000324768 -0.477572 -5.31713e-16 0.00252241 -5.2469e-16 -0.00219764)
(-0.0767892 -1.29895 1.98873e-15 0.0795006 -1.86531e-15 -0.00271136)
(-0.263638 -2.42479 2.17787e-15 0.264513 -2.12358e-16 -0.000875018)
(-0.514343 -3.34512 -3.84954e-16 0.510924 -7.24258e-15 0.0034189)
(-0.715715 -3.72346 -5.82449e-15 0.709753 -1.76379e-15 0.00596262)
(-0.793026 -3.65117 6.99855e-16 0.79049 3.66446e-15 0.00253565)
(-0.801383 -3.42126 -9.9668e-15 0.796698 1.47841e-15 0.00468487)
(-0.573956 -3.0199 -6.98873e-15 0.584306 8.73468e-16 -0.0103499)
(-0.814807 -3.21302 8.11068e-15 0.786468 -4.94789e-15 0.0283392)
(0.000342227 -0.000198505 -3.61101e-21 -0.000335901 -3.70305e-21 -6.32559e-06)
(0.000364718 -0.000135336 1.28817e-20 -0.000359231 5.89865e-20 -5.48623e-06)
(0.000373317 -5.72518e-05 3.8239e-20 -0.000370626 8.49244e-20 -2.69059e-06)
(0.000363935 2.51504e-05 4.12121e-20 -0.000362615 -2.0133e-20 -1.3204e-06)
(0.000332418 0.000105539 -8.18485e-20 -0.000332519 -7.02834e-20 1.01881e-07)
(0.000278556 0.000174403 -9.03034e-21 -0.000278836 -1.00531e-19 2.79954e-07)
(0.000208881 0.000222873 -1.25569e-19 -0.000208624 -1.28907e-19 -2.56199e-07)
(0.000134097 0.000246333 -1.98242e-19 -0.000134127 -7.31437e-21 2.97811e-08)
(6.20881e-05 0.000246784 -5.70167e-20 -6.28928e-05 -3.14897e-20 8.04697e-07)
(-4.77596e-07 0.000226459 6.17272e-20 -6.65558e-07 -4.32122e-20 1.14315e-06)
(-4.60119e-05 0.000192087 6.11225e-20 4.502e-05 1.40241e-19 9.91895e-07)
(-7.36452e-05 0.00015353 1.15068e-19 7.31306e-05 -4.46348e-20 5.14582e-07)
(-8.69231e-05 0.000117335 -9.83255e-20 8.71747e-05 -1.12761e-19 -2.51665e-07)
(-9.02495e-05 8.63954e-05 -1.8575e-20 9.13689e-05 4.19352e-20 -1.1194e-06)
(-8.73194e-05 6.17606e-05 8.96034e-20 8.93385e-05 -1.95321e-20 -2.01916e-06)
(-8.10779e-05 4.30078e-05 1.96677e-19 8.39015e-05 -1.40376e-20 -2.82363e-06)
(-7.35837e-05 2.93017e-05 -1.23429e-19 7.71377e-05 -3.5345e-20 -3.55397e-06)
(-6.61114e-05 1.94562e-05 -3.74825e-20 7.02676e-05 -5.46994e-20 -4.15621e-06)
(-5.93565e-05 1.23047e-05 -1.74883e-20 6.40058e-05 9.69354e-21 -4.64924e-06)
(-5.34506e-05 6.7952e-06 1.8272e-19 5.84361e-05 -7.21949e-20 -4.98546e-06)
(-4.83438e-05 2.25012e-06 3.2996e-20 5.3592e-05 -4.8332e-20 -5.24819e-06)
(-4.376e-05 -1.90772e-06 -1.77869e-19 4.92024e-05 5.22131e-20 -5.44242e-06)
(-3.92323e-05 -6.02081e-06 -7.44231e-21 4.48497e-05 2.62704e-20 -5.61741e-06)
(-3.40474e-05 -9.84473e-06 -2.86282e-21 3.9779e-05 -1.75657e-20 -5.73166e-06)
(-2.84137e-05 -1.2248e-05 2.66913e-21 3.44235e-05 -2.18613e-22 -6.00979e-06)
(-2.34556e-05 -1.29978e-05 -1.36233e-19 3.00706e-05 -2.79761e-20 -6.61495e-06)
(-1.95445e-05 -1.28636e-05 -2.40899e-21 2.68442e-05 4.28385e-22 -7.29974e-06)
(-1.65194e-05 -1.23523e-05 2.92461e-20 2.44675e-05 7.75879e-22 -7.94807e-06)
(-1.36841e-05 -1.14349e-05 -1.04485e-21 2.188e-05 -2.50764e-23 -8.19584e-06)
(-1.0869e-05 -1.02007e-05 6.77237e-22 1.87097e-05 9.60552e-22 -7.8407e-06)
(-7.46555e-06 -8.18857e-06 -8.13119e-20 1.38361e-05 -2.92627e-21 -6.37057e-06)
(-4.21444e-06 -5.76249e-06 -2.18972e-21 8.6247e-06 -1.36057e-22 -4.41026e-06)
(-3.03812e-05 -5.74253e-05 3.84394e-21 7.74957e-05 -7.03035e-20 -4.71146e-05)
(-5.90703e-07 -4.59912e-05 1.72125e-17 0.000110408 1.55206e-18 -0.000109817)
(0.000235664 0.000599937 1.09606e-18 -0.000134619 1.22559e-19 -0.000101045)
(0.000881066 0.00333218 -1.87502e-16 -0.000938145 -3.54771e-17 5.70793e-05)
(0.00156922 0.0112024 1.24982e-15 -0.00204504 1.83483e-16 0.000475824)
(0.00671736 0.0279049 4.8128e-17 -0.00720632 -1.76516e-16 0.000488958)
(-0.00282896 0.104474 2.73059e-16 -0.00194854 -1.51798e-15 0.0047775)
(0.000222634 -0.000196134 -7.99904e-21 -0.000225649 -1.18893e-20 3.01588e-06)
(0.000184147 -0.00023163 -1.46002e-20 -0.000188507 -1.97226e-20 4.36015e-06)
(0.000134442 -0.000261253 4.9638e-20 -0.000139276 6.35971e-20 4.83452e-06)
(7.79956e-05 -0.000279192 -2.1174e-19 -8.41605e-05 -2.89671e-19 6.16497e-06)
(1.8928e-05 -0.000283323 5.25439e-20 -2.64773e-05 8.24283e-20 7.5493e-06)
(-4.04469e-05 -0.000273073 1.14582e-19 3.16165e-05 1.19124e-19 8.83041e-06)
(-9.48401e-05 -0.000249165 -9.77677e-20 8.42734e-05 -1.60267e-19 1.05667e-05)
(-0.000140352 -0.000213789 -6.58821e-20 0.000127934 1.139e-20 1.24187e-05)
(-0.000174745 -0.000169936 -3.93614e-19 0.000160482 -3.7231e-19 1.42634e-05)
(-0.000196685 -0.000121817 -5.50677e-20 0.000180323 -1.48662e-19 1.63612e-05)
(-0.000206284 -7.28673e-05 1.08141e-20 0.000187828 -3.4894e-20 1.84554e-05)
(-0.000204708 -2.62609e-05 -1.97004e-19 0.000184165 -2.5024e-19 2.05431e-05)
(-0.000193975 1.54478e-05 9.43971e-20 0.000171449 1.13238e-19 2.25263e-05)
(-0.000176468 5.07408e-05 -3.87142e-19 0.000152271 -2.01243e-19 2.4197e-05)
(-0.000154508 7.94371e-05 8.43468e-20 0.000128938 4.69826e-20 2.55702e-05)
(-0.00013052 0.000100453 3.68495e-19 0.000104582 3.083e-19 2.59374e-05)
(-0.000106154 0.00011316 -5.04839e-19 8.13344e-05 -1.43586e-19 2.48192e-05)
(-8.18949e-05 0.000118215 -9.24608e-20 5.91855e-05 4.15615e-19 2.27094e-05)
(-5.97908e-05 0.000118328 -3.13242e-20 3.96702e-05 -5.31038e-20 2.01206e-05)
(-3.96742e-05 0.000112142 -3.74457e-19 2.292e-05 -6.06329e-20 1.67542e-05)
(-2.00911e-05 8.57855e-05 3.15427e-19 9.35859e-06 1.93521e-19 1.07325e-05)
(-9.86253e-06 6.41917e-05 7.66303e-21 3.75914e-06 -1.10723e-20 6.10339e-06)
(-6.77047e-06 6.98233e-05 1.78333e-19 2.14147e-06 4.96834e-20 4.629e-06)
(-2.53154e-06 7.9863e-05 1.31634e-19 -1.206e-06 4.39115e-20 3.73753e-06)
(3.76512e-06 8.70184e-05 -1.27541e-20 -6.74137e-06 -1.20129e-21 2.97625e-06)
(9.46615e-06 8.92271e-05 1.37813e-21 -1.15623e-05 -4.99489e-21 2.09611e-06)
(0.000126172 0.000880981 1.39569e-19 -0.000138233 -3.86246e-20 1.20613e-05)
(0.000445738 0.0027243 -2.03203e-19 -0.000463445 -3.06924e-19 1.77075e-05)
(0.00149906 0.00802553 -8.58123e-18 -0.00151209 -4.28773e-19 1.30276e-05)
(0.000868638 0.00381832 4.46296e-19 -0.000860808 2.53779e-20 -7.83022e-06)
(0.0026421 0.00832786 -2.55129e-18 -0.00259769 9.80898e-19 -4.44008e-05)
(0.0105128 0.011942 -2.21882e-16 -0.010286 -1.57122e-16 -0.000226818)
(0.0187102 -0.0984922 -8.16566e-17 -0.0178787 -2.52623e-16 -0.000831491)
(-0.0256934 -0.584613 -5.45493e-15 0.0276892 5.37415e-16 -0.00199586)
(-0.182329 -1.49078 7.64842e-16 0.184145 2.511e-15 -0.00181633)
(-0.400898 -2.40011 -8.62633e-19 0.401607 1.32897e-19 -0.000708653)
(-0.586158 -2.96471 -3.40541e-16 0.582193 4.54495e-15 0.00396549)
(-0.525562 -3.08646 1.42259e-16 0.536198 1.90161e-16 -0.0106363)
(-0.773413 -3.40277 -1.32585e-14 0.735921 2.74745e-15 0.0374919)
(0.000253109 -0.000152908 1.41154e-20 -0.000256267 9.06185e-21 3.1577e-06)
(0.000274185 -0.000106577 -3.97532e-20 -0.000275958 -6.4076e-20 1.77299e-06)
(0.000285727 -4.96704e-05 -2.19719e-20 -0.000287346 3.72915e-20 1.61929e-06)
(0.000283468 1.17667e-05 1.06086e-19 -0.000284292 7.79056e-20 8.23737e-07)
(0.000264481 7.309e-05 -3.9591e-20 -0.000265057 -2.04182e-19 5.76486e-07)
(0.000228062 0.000127521 -7.08502e-20 -0.000228071 4.80711e-20 8.61679e-09)
(0.000178335 0.000168591 1.78819e-19 -0.00017801 1.39204e-19 -3.25331e-07)
(0.000122704 0.000192328 -5.9455e-20 -0.000122585 -1.62474e-19 -1.19123e-07)
(6.67757e-05 0.000198831 -1.43181e-19 -6.69555e-05 -6.47247e-20 1.79804e-07)
(1.59969e-05 0.000188956 -1.06525e-19 -1.63365e-05 4.16256e-20 3.39622e-07)
(-2.36381e-05 0.000167064 1.17744e-19 2.33347e-05 4.47459e-21 3.03449e-07)
(-5.04733e-05 0.000139409 -6.73433e-20 5.01941e-05 -6.87882e-20 2.79219e-07)
(-6.5856e-05 0.00011099 -8.61597e-20 6.55256e-05 6.87622e-20 3.30456e-07)
(-7.23435e-05 8.47929e-05 8.34215e-20 7.18768e-05 3.58906e-20 4.667e-07)
(-7.25482e-05 6.24372e-05 -1.22299e-19 7.18745e-05 2.04043e-20 6.73639e-07)
(-6.88985e-05 4.43343e-05 -3.28205e-20 6.79436e-05 -9.02489e-20 9.54879e-07)
(-6.3243e-05 3.02684e-05 3.64594e-20 6.19789e-05 4.66772e-20 1.26401e-06)
(-5.69272e-05 1.95717e-05 -1.33598e-19 5.5346e-05 6.26352e-21 1.58123e-06)
(-5.07696e-05 1.14607e-05 5.30561e-20 4.88928e-05 -9.52068e-22 1.87681e-06)
(-4.51125e-05 5.13679e-06 -2.02174e-19 4.29603e-05 1.38188e-20 2.15218e-06)
(-4.00226e-05 -2.23772e-08 -2.78515e-20 3.76446e-05 7.59555e-21 2.378e-06)
(-3.53186e-05 -4.52285e-06 1.61987e-19 3.27497e-05 1.4977e-20 2.56887e-06)
(-3.06278e-05 -8.65351e-06 1.55239e-19 2.7908e-05 -3.55307e-20 2.71976e-06)
(-2.53527e-05 -1.22585e-05 -1.29375e-19 2.24325e-05 9.59033e-21 2.92018e-06)
(-1.9504e-05 -1.45488e-05 -1.80451e-21 1.63514e-05 1.07804e-21 3.15263e-06)
(-1.39167e-05 -1.52708e-05 -1.23842e-19 1.05759e-05 3.77726e-20 3.34075e-06)
(-9.0316e-06 -1.50181e-05 -2.44123e-21 5.38542e-06 2.64734e-23 3.64618e-06)
(-4.8161e-06 -1.41932e-05 -1.97349e-23 7.45867e-07 -1.03281e-21 4.07023e-06)
(-1.23721e-06 -1.31318e-05 -1.41978e-22 -3.32281e-06 2.87081e-23 4.56002e-06)
(1.63604e-06 -1.12933e-05 4.45378e-20 -6.35299e-06 3.6855e-22 4.71694e-06)
(4.36883e-06 -1.18019e-05 1.64931e-22 -1.00249e-05 -3.68871e-22 5.65602e-06)
(3.23013e-06 -5.83782e-06 4.28844e-23 -6.13152e-06 -1.505e-24 2.90138e-06)
(1.18736e-05 -1.72367e-05 -6.13498e-19 -1.98599e-05 -4.59926e-20 7.98632e-06)
(8.68665e-05 -0.000109088 -4.04197e-18 -0.000129173 -3.45204e-19 4.23062e-05)
(2.45312e-05 -2.67419e-05 9.75546e-21 -3.24696e-05 9.81907e-22 7.9384e-06)
(0.00010963 -8.92003e-05 -8.25326e-18 -0.000127308 -1.31653e-19 1.76776e-05)
(0.000366136 -0.000131044 2.82416e-18 -0.000395656 -2.10513e-17 2.95196e-05)
(0.000935241 0.000212187 1.46089e-18 -0.000913546 2.88421e-19 -2.16948e-05)
(0.0038369 0.0197076 -5.08374e-16 -0.0052097 7.06172e-17 0.0013728)
(0.00018413 -0.000161019 1.57561e-20 -0.000183019 1.84812e-20 -1.11175e-06)
(0.000155879 -0.000189726 -1.18906e-20 -0.000154872 -1.3374e-20 -1.00715e-06)
(0.000118626 -0.000214947 4.95654e-23 -0.000117022 -9.88777e-22 -1.60483e-06)
(7.60875e-05 -0.000232394 -6.78678e-21 -7.41956e-05 6.36146e-21 -1.89182e-06)
(3.10336e-05 -0.000239978 1.51917e-19 -2.87643e-05 1.60412e-19 -2.26929e-06)
(-1.54535e-05 -0.000237321 -9.61128e-20 1.84305e-05 -1.23483e-19 -2.97694e-06)
(-5.93435e-05 -0.000224513 -7.26196e-21 6.29613e-05 3.1826e-20 -3.6178e-06)
(-9.76963e-05 -0.000202639 3.28451e-19 0.000102086 3.16252e-19 -4.38941e-06)
(-0.000128794 -0.00017356 -7.75251e-20 0.00013418 5.60925e-21 -5.386e-06)
(-0.000151052 -0.000140082 -3.71753e-19 0.000157476 -2.48586e-19 -6.42378e-06)