/*--------------------------------*- C++ -*----------------------------------*\
| =========                 |                                                 |
| \\      /  F ield         | OpenFOAM: The Open Source CFD Toolbox           |
|  \\    /   O peration     | Version:  2206                                  |
|   \\  /    A nd           | Website:  www.openfoam.com                      |
|    \\/     M anipulation  |                                                 |
\*---------------------------------------------------------------------------*/
FoamFile
{
    version     2.0;
    format      ascii;
    arch        "LSB;label=32;scalar=64";
    class       volScalarField;
    location    "350";
    object      turbulenceProperties:I;
}
// * * * * * * * * * * * * * * * * * * * * * * * * * * * * * * * * * * * * * //

dimensions      [0 0 0 0 0 0 0];

internalField   nonuniform List<scalar> 
10720
(
0.00417415
0.00414921
0.00416937
0.00429779
0.00446112
0.00469045
0.00500342
0.00538909
0.00586661
0.00645478
0.00717323
0.0080642
0.00918824
0.0106286
0.0125287
0.0150863
0.0186936
0.0238223
0.0320111
0.0443835
0.0693818
0.111458
0.228075
0.420929
0.507735
0.466911
0.408376
0.366448
0.339414
0.322269
0.311181
0.303461
0.298991
0.296883
0.296945
0.299236
0.30752
0.318112
0.401506
0.00422555
0.00438258
0.00456346
0.00498539
0.0056872
0.00704459
0.0101842
0.0170026
0.0134824
0.0087427
0.00732159
0.00706293
0.00731373
0.00787059
0.00865657
0.00966575
0.0109377
0.0125664
0.0146963
0.0175306
0.0214028
0.0267184
0.0344055
0.0453577
0.0627094
0.0884395
0.130978
0.186826
0.221537
0.234699
0.238639
0.240294
0.241518
0.242567
0.243552
0.244663
0.246102
0.249517
0.255932
0.00181799
0.00166487
0.00152726
0.0013974
0.00127676
0.00116853
0.00106936
0.000977936
0.000896844
0.000824199
0.000759307
0.00071128
0.000692098
0.000711376
0.000795755
0.00097984
0.00132939
0.00190094
0.00294675
0.00464961
0.00816185
0.0141263
0.0264427
0.0520496
0.0805857
0.108919
0.137049
0.161371
0.175697
0.177702
0.171249
0.161884
0.153549
0.147649
0.144827
0.145262
0.154578
0.167105
0.320464
0.00198372
0.00219112
0.00247001
0.00286802
0.00346335
0.00439761
0.00583339
0.00715645
0.00638427
0.00446789
0.00313645
0.00234231
0.00183761
0.00148998
0.00123539
0.00104036
0.000884574
0.000756318
0.000645149
0.000542913
0.000438676
0.000325454
0.000185342
7.26352e-05
0.00011304
0.0012985
0.0029572
0.00830026
0.0151194
0.0210811
0.0257808
0.0293929
0.0322554
0.0347426
0.0371132
0.0396025
0.0424669
0.04765
0.0611844
0.0015788
0.00145484
0.00133337
0.00121911
0.00112083
0.00103367
0.000958229
0.000895782
0.000844886
0.000805014
0.000774134
0.000752509
0.000739224
0.000734171
0.000729727
0.000716221
0.000662505
0.000620564
0.000301601
0.00148608
0.00208927
0.00144169
0.000706824
0.00311595
0.00825609
0.0154295
0.0254852
0.0402238
0.0602367
0.0834637
0.105744
0.122374
0.13116
0.13425
0.135544
0.137376
0.144921
0.152901
0.257572
0.00172243
0.00189314
0.00212893
0.00244344
0.00286714
0.00342274
0.00405575
0.00446457
0.00424696
0.0034986
0.0027221
0.00212265
0.00168597
0.00136384
0.00112248
0.000937927
0.000796173
0.000687113
0.000604325
0.000541318
0.000494067
0.000459241
0.000434774
0.000416876
0.000406315
0.000396896
0.000402789
0.000306696
0.000797188
0.00202958
0.00340318
0.00491171
0.00734767
0.010661
0.0142956
0.017902
0.021417
0.0239678
0.0337469
0.00149033
0.00138679
0.00128706
0.00119637
0.00111326
0.00103596
0.000965528
0.000900585
0.000840977
0.000785999
0.000735045
0.000687285
0.000641875
0.000598317
0.000555796
0.000512397
0.00046839
0.000429354
0.000378171
0.000277782
9.45781e-05
0.000551173
0.000866654
0.00169611
0.00292565
0.00404107
0.00188096
0.00194938
0.00415312
0.012637
0.0276404
0.0484397
0.0716818
0.0923929
0.107745
0.118686
0.130907
0.142694
0.216802
0.00160009
0.00172812
0.00189094
0.00210531
0.00237234
0.0026842
0.00299086
0.00316903
0.00308225
0.00273184
0.00229098
0.00189359
0.00157486
0.00132677
0.00113412
0.000982754
0.000863006
0.000767332
0.00069044
0.000627391
0.000575241
0.000530994
0.000491944
0.000454117
0.000417908
0.000387947
0.000364828
0.000347671
0.000328745
0.00030555
0.000263562
0.000208836
0.000578142
0.000761212
0.00145477
0.00339605
0.0062577
0.0101563
0.0207099
0.00131459
0.00122939
0.00114555
0.00106631
0.000993187
0.000924203
0.000860465
0.00080201
0.000748383
0.000700073
0.000656907
0.000618874
0.000586192
0.000558872
0.000536888
0.00051936
0.000503132
0.000484931
0.000468359
0.000445934
0.000362567
0.000151535
8.0188e-05
3.81559e-05
0
0
0.00115886
0.00200619
0.00353056
0.00247196
0.00377023
0.00519244
0.0134805
0.0343048
0.0593372
0.0834264
0.10563
0.125466
0.184
0.00140571
0.00150914
0.00163744
0.00179528
0.0019762
0.00216721
0.00233681
0.00242974
0.00238881
0.00220559
0.00194536
0.00167733
0.00143628
0.00123103
0.00105998
0.000918176
0.000800802
0.000703757
0.000623724
0.000557512
0.000502703
0.000456845
0.000417546
0.000381153
0.000345831
0.000313543
0.000287149
0.000267936
0.000258181
0.000246278
0.000270894
0.000131339
0.000335156
0.0007292
0.000387031
0.00070342
0.00117802
0.00183676
0.00900677
0.00119681
0.00112923
0.0010615
0.000997574
0.000938214
0.000881793
0.000829329
0.000780559
0.00073507
0.000692828
0.000653432
0.000616637
0.000582301
0.000550184
0.000520099
0.000490986
0.00046106
0.00043096
0.000402879
0.000378156
0.000356417
0.000330566
0.00027407
0.000138659
6.7405e-05
4.79873e-05
2.39257e-05
0
0
0.000966713
0.00193416
0.00454191
0.00195967
0.00738417
0.0113022
0.0367022
0.0678827
0.0992991
0.152807
0.00126679
0.00134422
0.00143798
0.00155023
0.00167237
0.00179421
0.0018974
0.00195255
0.00193044
0.00182476
0.00166319
0.00148163
0.00130502
0.00114527
0.00100617
0.000887407
0.000787053
0.000702797
0.000632282
0.00057311
0.000523121
0.000480108
0.000441881
0.000405655
0.000370122
0.000337004
0.000307844
0.000282861
0.000261388
0.000243094
0.000227076
0.000212178
0.000189246
0.00015975
0.00011991
0.000254606
0.00048813
0.000879431
0.00302322
0.00107725
0.00102235
0.000966455
0.000912779
0.000862543
0.000814032
0.000768241
0.000725223
0.000684563
0.000646394
0.000610573
0.000576986
0.000545713
0.000516799
0.000490229
0.000466248
0.000445445
0.000427053
0.000409344
0.000391708
0.000375185
0.000359357
0.00034599
0.000322505
0.000273919
0.00020306
9.33507e-05
5.2739e-05
4.12061e-05
1.45941e-05
0
0
0.000729955
0.00431948
0.00384031
0.00955435
0.0260725
0.0646395
0.119332
0.00113336
0.00119406
0.00126592
0.00134885
0.00143479
0.00151694
0.00158484
0.00162035
0.00160712
0.00154196
0.00143751
0.00131256
0.0011829
0.00105846
0.000944411
0.0008426
0.000753097
0.000675274
0.000608081
0.00055015
0.000500124
0.000456492
0.000417567
0.000381175
0.000346
0.000313023
0.000283552
0.000257948
0.000235845
0.000217198
0.000202697
0.000193022
0.000187575
0.000180341
0.000153844
8.50036e-05
3.62127e-05
8.50797e-06
0.000524273
0.000977358
0.000933361
0.000887885
0.000843815
0.000802384
0.000762032
0.000723781
0.000687672
0.000653351
0.000620945
0.000590243
0.000561129
0.000533581
0.00050751
0.000482848
0.000459603
0.000437253
0.000415009
0.000393319
0.000373164
0.000355571
0.000341399
0.000331245
0.000324829
0.000315052
0.000295434
0.000264604
0.000220307
0.000176148
5.80356e-05
4.27662e-05
9.30776e-06
0
0
0.00150226
0.00640545
0.0089288
0.0294079
0.0831755
0.00102152
0.00106851
0.00112331
0.00118507
0.00124698
0.00130454
0.00135163
0.00137585
0.00136746
0.00132515
0.00125491
0.00116715
0.00107159
0.000975495
0.00088367
0.000798758
0.000721853
0.000653352
0.000593016
0.000540143
0.000493789
0.000452816
0.000415854
0.000381222
0.000347914
0.000316635
0.000288359
0.000263263
0.000240842
0.000220654
0.00020261
0.000186479
0.00017201
0.000158932
0.00014917
0.000137315
0.000119096
4.13615e-05
0.000139722
0.000887758
0.000852071
0.000814681
0.000778013
0.000743364
0.000709267
0.00067665
0.000645612
0.000615833
0.000587429
0.000560269
0.000534246
0.000509376
0.000485628
0.000463031
0.000441565
0.00042131
0.000402602
0.000385281
0.000369115
0.000354145
0.000340924
0.000329605
0.000319928
0.000310786
0.000299828
0.000286927
0.000273073
0.000257959
0.000226157
0.000189071
4.16927e-05
3.24213e-05
0
0
0
0.00513386
0.0108158
0.0491607
0.00092312
0.000960163
0.0010028
0.00104972
0.00109557
0.00113744
0.00117136
0.00118857
0.00118308
0.00115441
0.00110569
0.00104284
0.000971841
0.000897669
0.000824112
0.000753666
0.000687824
0.000627419
0.000572735
0.000523638
0.000479675
0.000440116
0.000403976
0.000370068
0.000337639
0.000307104
0.000279293
0.00025447
0.000232317
0.000212532
0.000195132
0.000180436
0.000168809
0.000160589
0.00015615
0.000158006
0.000165664
0.000173963
3.51867e-05
0.000809573
0.000780601
0.000749893
0.000719509
0.000690656
0.00066207
0.000634566
0.000608265
0.000582904
0.00055859
0.000535196
0.000512632
0.000490906
0.000469983
0.000449863
0.000430545
0.000412093
0.000394282
0.000376984
0.000360575
0.000345632
0.000332689
0.000321852
0.000312085
0.000301821
0.000290041
0.000277633
0.000266849
0.000258902
0.000252779
0.000246389
0.000215833
0.000144424
4.4106e-05
0
0
6.25926e-05
0.00149505
0.0244073
0.000837915
0.000867273
0.000900731
0.000936858
0.000971486
0.00100288
0.001028
0.00104058
0.00103693
0.00101685
0.000982117
0.000936274
0.000883011
0.000825609
0.000766911
0.000708988
0.00065327
0.000600823
0.000552193
0.000507593
0.000466917
0.000429748
0.000395423
0.000363137
0.00033232
0.000303285
0.000276688
0.000252761
0.000231228
0.000211767
0.000194282
0.000178802
0.000165294
0.00015425
0.000146064
0.000145171
0.000145807
0.000192141
0.00012887
0.000740438
0.000716762
0.000691402
0.0006661
0.000641961
0.000617883
0.000594551
0.000572147
0.000550397
0.00052942
0.000509094
0.000489333
0.000470143
0.000451488
0.00043339
0.000415882
0.000398987
0.000382801
0.000367431
0.000352954
0.000339609
0.000327609
0.000317065
0.000307357
0.000297085
0.000285232
0.000272275
0.000260203
0.000250688
0.000244728
0.000241535
0.000242015
0.000232853
0.000183154
4.88128e-05
0
0
0.0016559
0.0123189
0.000763335
0.000786831
0.00081343
0.000841641
0.000868262
0.000892355
0.000911374
0.000920783
0.000918325
0.000903904
0.00087854
0.0008445
0.000804131
0.00075957
0.000712784
0.000665366
0.000618532
0.000573283
0.000530316
0.000490016
0.00045249
0.000417596
0.000384949
0.000354035
0.000324513
0.000296632
0.000270909
0.000247586
0.000226498
0.000207419
0.000190318
0.000175335
0.000162689
0.000152899
0.000146251
0.000146265
0.000147642
0.000178636
0.000206483
0.000679323
0.000659914
0.000638913
0.000617806
0.000597614
0.000577339
0.000557605
0.000538574
0.000520016
0.000502037
0.000484527
0.000467404
0.000450667
0.000434287
0.000418271
0.000402652
0.00038747
0.000372814
0.00035863
0.000345019
0.00033234
0.000320872
0.000310669
0.00030126
0.000291534
0.000280536
0.000268428
0.000256621
0.000246527
0.000238735
0.000232904
0.000230906
0.000233247
0.000235728
0.00019715
4.53806e-05
0
0.000876744
0.00724953
0.000697924
0.000716834
0.000738184
0.000760477
0.000781254
0.000800053
0.000814714
0.000821889
0.000820204
0.000809579
0.000790697
0.000765039
0.000734125
0.000699312
0.000661996
0.000623304
0.00058416
0.000545445
0.000507806
0.000471746
0.000437529
0.000405186
0.000374513
0.000345235
0.000317233
0.000290714
0.000266101
0.000243624
0.000223187
0.000204609
0.00018784
0.000172978
0.00016013
0.000149749
0.000142326
0.000141065
0.000143444
0.000165117
0.000215237
0.000625002
0.000609024
0.000591576
0.00057392
0.000556984
0.000539876
0.000523165
0.000506992
0.000491145
0.000475727
0.000460638
0.000445799
0.0004312
0.000416803
0.000402621
0.000388687
0.000375032
0.000361765
0.000348932
0.000336611
0.00032502
0.000314364
0.000304649
0.000295528
0.000286197
0.000275908
0.000264736
0.000253734
0.00024406
0.000236062
0.000229452
0.000224447
0.000222546
0.000225915
0.000239354
0.000177627
7.29191e-06
0.000498056
0.00416975
0.000640203
0.000655522
0.000672788
0.0006906
0.000707027
0.000721885
0.000733348
0.000738899
0.000737713
0.00072974
0.000715434
0.0006958
0.000671866
0.000644532
0.000614686
0.00058313
0.000550541
0.000517609
0.000484896
0.00045288
0.000421895
0.000392086
0.000363419
0.000335817
0.000309295
0.00028408
0.000260517
0.000238833
0.000218996
0.000200883
0.000184473
0.000169898
0.000157324
0.000147213
0.000140051
0.000138543
0.000141031
0.000158487
0.000205834
0.000576551
0.000563344
0.000548812
0.000534017
0.000519797
0.000505365
0.000491213
0.000477477
0.000463971
0.000450779
0.000437823
0.00042501
0.000412343
0.000399784
0.000387328
0.000375002
0.000362834
0.000350934
0.000339338
0.000328088
0.000317363
0.000307397
0.000298193
0.000289469
0.000280605
0.000271003
0.000260695
0.000250509
0.000241438
0.000233814
0.000227442
0.000222166
0.000218355
0.000217028
0.000222254
0.000251254
9.66342e-06
0.000162343
0.00209133
0.00058901
0.000601497
0.000615541
0.000629901
0.000643037
0.000654888
0.000663928
0.0006683
0.000667434
0.000661332
0.000650311
0.000635101
0.000616395
0.000594767
0.000570839
0.000545108
0.000518033
0.000490139
0.000461879
0.000433663
0.000405816
0.00037856
0.000351976
0.000326138
0.00030117
0.000277307
0.000254863
0.000234053
0.000214889
0.000197301
0.000181285
0.000166967
0.000154493
0.000144292
0.000136858
0.000134817
0.000136811
0.000152534
0.00019477
0.000533145
0.00052219
0.000510064
0.000497636
0.000485681
0.000473505
0.000461514
0.000449851
0.00043835
0.000427079
0.000415974
0.000404949
0.000393989
0.000383058
0.000372142
0.00036127
0.000350474
0.000339826
0.000329408
0.000319255
0.000309459
0.000300249
0.000291624
0.000283359
0.000274986
0.000266035
0.000256506
0.000247051
0.00023852
0.000231276
0.000225215
0.000220298
0.000216424
0.000214914
0.000210417
0.000243615
0.000180677
1.97933e-05
0.000566301
0.000543379
0.000553607
0.000565096
0.000576748
0.000587346
0.000596861
0.000604057
0.000607525
0.000606872
0.000602118
0.00059351
0.000581568
0.000566796
0.000549575
0.000530297
0.000509295
0.000486844
0.000463294
0.000438985
0.000414251
0.000389403
0.000364676
0.000340203
0.000316127
0.000292691
0.000270177
0.000248857
0.000228932
0.000210454
0.000193399
0.000177783
0.000163745
0.00015144
0.000141297
0.000133789
0.000131375
0.000132892
0.00014674
0.000184564
0.000494092
0.000484992
0.000474854
0.0004644
0.000454353
0.000444074
0.000433923
0.000424033
0.000414255
0.00040465
0.000395154
0.000385685
0.000376235
0.000366758
0.000357251
0.000347723
0.0003382
0.000328732
0.000319425
0.000310285
0.000301367
0.000292879
0.000284842
0.000277084
0.000269234
0.000260923
0.000252139
0.000243389
0.000235382
0.000228494
0.000222691
0.00021803
0.000214383
0.000213144
0.000209711
0.000218321
0.000246973
1.1559e-05
0.000152946
0.00050253
0.000510919
0.000520366
0.000529871
0.000538486
0.000546164
0.000551918
0.000554682
0.00055416
0.000550392
0.000543568
0.000534095
0.000522326
0.000508507
0.000492912
0.000475713
0.000457089
0.00043725
0.000416425
0.000394864
0.000372817
0.000350514
0.000328115
0.000305836
0.000283965
0.000262811
0.000242628
0.000223616
0.000205857
0.000189362
0.000174167
0.000160416
0.00014826
0.00013811
0.000130425
0.000127545
0.00012859
0.000140728
0.000174859
0.00045882
0.000451256
0.000442763
0.000433971
0.000425523
0.000416849
0.000408264
0.00039989
0.000391584
0.00038341
0.000375308
0.000367202
0.000359087
0.000350913
0.000342664
0.000334348
0.000325985
0.000317611
0.00030933
0.000301151
0.000293099
0.000285337
0.00027791
0.00027069
0.000263385
0.000255702
0.000247625
0.00023955
0.000232065
0.000225535
0.000219985
0.000215485
0.000212074
0.000210359
0.000210584
0.000204455
0.000260006
1.7915e-05
5.76968e-07
0.000465798
0.000472697
0.000480478
0.000488268
0.000495306
0.000501521
0.000506137
0.000508343
0.000507901
0.000504861
0.000499383
0.000491773
0.000482298
0.000471135
0.000458446
0.000444333
0.000428865
0.000412175
0.000394385
0.00037567
0.000356217
0.000336213
0.000315829
0.000295311
0.000274994
0.000255184
0.000236142
0.000218058
0.000201034
0.000185115
0.000170354
0.000156897
0.0001449
0.00013476
0.00012692
0.000123589
0.000124171
0.000134715
0.000165425
0.000426852
0.000420558
0.000413437
0.000406048
0.000398942
0.000391634
0.000384381
0.000377302
0.000370265
0.00036333
0.000356441
0.000349531
0.000342583
0.000335554
0.000328428
0.000321205
0.000313902
0.000306539
0.000299209
0.000291928
0.000284704
0.000277646
0.000270832
0.000264169
0.00025742
0.000250353
0.000242953
0.000235527
0.000228564
0.000222403
0.000217123
0.000212775
0.000209561
0.000207423
0.000208935
0.000201892
0.000239569
0.000153287
2.30518e-05
0.000432624
0.000438306
0.000444727
0.000451127
0.000456902
0.000461937
0.000465646
0.000467396
0.000466997
0.000464498
0.00046004
0.000453863
0.00044617
0.000437076
0.000426695
0.000415064
0.000402197
0.000388153
0.000372986
0.000356788
0.000339698
0.000321865
0.000303432
0.000284628
0.00026581
0.000247332
0.000229433
0.000212289
0.000196017
0.000180691
0.000166377
0.000153219
0.00014138
0.000131234
0.00012321
0.000119403
0.000119522
0.000128686
0.000156232
0.000397778
0.000392533
0.000386575
0.000380359
0.000374399
0.000368246
0.000362137
0.000356162
0.000350218
0.000344351
0.000338511
0.000332633
0.000326708
0.000320689
0.000314566
0.000308326
0.00030198
0.000295549
0.000289094
0.000282649
0.000276208
0.000269834
0.00026363
0.000257533
0.000251344
0.000244877
0.00023812
0.000231318
0.000224869
0.000219088
0.000214088
0.000209922
0.000206831
0.000204666
0.000205484
0.000202828
0.000216751
0.000218079
7.966e-05
0.000402549
0.000407228
0.00041253
0.000417803
0.000422539
0.000426624
0.000429597
0.000430977
0.000430592
0.000428505
0.000424829
0.000419755
0.000413449
0.000405984
0.000397435
0.00038781
0.00037708
0.000365251
0.00035233
0.000338356
0.000323394
0.000307547
0.000290937
0.000273795
0.00025647
0.000239302
0.000222527
0.000206321
0.000190809
0.000176083
0.000162224
0.00014937
0.00013769
0.000127533
0.000119314
0.000115026
0.000114682
0.000122637
0.000147286
0.000371247
0.000366882
0.0003619
0.000356681
0.000351688
0.000346526
0.000341388
0.000336365
0.000331359
0.000326412
0.000321481
0.000316507
0.00031148
0.000306358
0.00030112
0.000295758
0.000290275
0.000284687
0.000279028
0.000273355
0.000267653
0.000261942
0.000256335
0.000250796
0.000245161
0.000239277
0.000233136
0.000226929
0.000220985
0.000215587
0.00021087
0.00020691
0.000203897
0.0002019
0.000201667
0.000202401
0.000203686
0.000225841
0.00016149
0.000375187
0.000379032
0.000383414
0.000387765
0.000391635
0.000394946
0.000397325
0.00039839
0.000398004
0.000396227
0.000393155
0.000388944
0.000383721
0.000377548
0.000370464
0.000362457
0.000353481
0.000343506
0.000332496
0.000320448
0.000307391
0.000293374
0.000278475
0.000262909
0.000247012
0.000231112
0.000215442
0.000200169
0.000185424
0.000171308
0.00015791
0.000145366
0.000133843
0.000123665
0.000115233
0.000110448
0.000109639
0.000116584
0.000138637
0.000346964
0.000343343
0.000339182
0.00033481
0.00033064
0.000326322
0.000322015
0.000317809
0.000313612
0.00030946
0.000305317
0.000301128
0.000296883
0.000292543
0.000288087
0.000283506
0.000278796
0.000273967
0.000269043
0.00026409
0.000259075
0.000253998
0.00024897
0.000243978
0.000238886
0.000233564
0.000228007
0.000222368
0.000216916
0.000211903
0.000207473
0.000203725
0.000200789
0.000198928
0.00019806
0.000199814
0.000198274
0.000214009
0.000200328
0.000350211
0.000353362
0.000356981
0.00036057
0.000363722
0.000366393
0.000368285
0.00036909
0.000368692
0.000367151
0.000364544
0.000361004
0.000356641
0.000351492
0.000345585
0.000338888
0.000331346
0.000322915
0.000313533
0.000303157
0.000291773
0.000279406
0.0002661
0.000252021
0.000237477
0.000222798
0.000208209
0.00019386
0.00017988
0.000166376
0.000153444
0.00014121
0.000129842
0.000119631
0.000110968
0.000105674
0.000104398
0.000110508
0.000130272
0.000324678
0.000321681
0.000318221
0.000314565
0.000311102
0.000307503
0.00030391
0.000300406
0.000296905
0.00029344
0.000289976
0.000286468
0.000282906
0.00027925
0.000275486
0.000271596
0.000267578
0.000263438
0.000259186
0.000254882
0.000250499
0.000246023
0.00024155
0.000237086
0.000232522
0.000227742
0.00022274
0.000217641
0.000212667
0.000208035
0.000203895
0.000200359
0.000197526
0.000195711
0.000194615
0.000195979
0.000195403
0.000201431
0.000207537
0.000327348
0.000329914
0.000332896
0.00033585
0.000338407
0.00034055
0.000342039
0.000342623
0.000342205
0.000340838
0.000338602
0.000335597
0.000331912
0.000327578
0.00032261
0.00031698
0.000310619
0.000303468
0.000295456
0.000286519
0.000276616
0.000265725
0.000253863
0.000241165
0.000227914
0.000214412
0.000200867
0.000187421
0.000174197
0.000161302
0.000148836
0.000136915
0.000125697
0.000115442
0.000106527
0.000100705
9.89672e-05
0.000104416
0.000122208
0.000304172
0.000301704
0.000298836
0.000295794
0.000292933
0.000289949
0.000286972
0.000284068
0.000281168
0.000278296
0.000275424
0.000272508
0.000269541
0.000266485
0.000263325
0.000260047
0.000256642
0.000253116
0.000249469
0.000245755
0.000241954
0.000238046
0.0002341
0.000230142
0.000226083
0.000221819
0.000217343
0.000212757
0.000208242
0.000203989
0.000200139
0.000196811
0.000194096
0.000192276
0.00019113
0.000191748
0.000192254
0.000192704
0.000201594
0.000306358
0.000308435
0.000310882
0.000313302
0.000315362
0.000317068
0.000318218
0.000318615
0.000318173
0.000316944
0.000314992
0.000312409
0.000309266
0.000305589
0.000301386
0.000296617
0.000291222
0.000285139
0.000278282
0.000270576
0.00026196
0.000252386
0.000241838
0.000230419
0.000218377
0.000205992
0.000193445
0.000180876
0.000168395
0.000156108
0.000144108
0.000132499
0.000121426
0.000111113
0.000101924
9.55474e-05
9.33406e-05
9.83094e-05
0.000114461
0.000285261
0.000283239
0.000280874
0.000278361
0.000276009
0.000273555
0.000271104
0.00026872
0.000266334
0.000263975
0.000261611
0.00025921
0.000256757
0.000254226
0.000251599
0.000248859
0.000246
0.000243021
0.000239922
0.000236743
0.000233474
0.000230095
0.000226645
0.000223166
0.000219585
0.000215809
0.000211827
0.000207726
0.000203651
0.000199767
0.000196206
0.000193088
0.000190496
0.000188663
0.000187478
0.000187478
0.000188226
0.000186662
0.000192696
0.000287033
0.000288709
0.000290701
0.000292675
0.000294319
0.000295657
0.000296525
0.000296759
0.00029629
0.000295165
0.000293443
0.000291199
0.000288494
0.000285342
0.00028175
0.000277687
0.000273089
0.000267891
0.000262006
0.000255353
0.000247856
0.000239446
0.000230081
0.000219832
0.00020891
0.000197567
0.00018598
0.000174257
0.000162504
0.000150816
0.000139279
0.000127981
0.000117051
0.000106669
9.71762e-05
9.02097e-05
8.75255e-05
9.21786e-05
0.000107022
0.000267781
0.000266138
0.000264201
0.000262142
0.000260226
0.000258226
0.000256228
0.000254289
0.00025235
0.00025043
0.000248508
0.000246551
0.000244546
0.000242472
0.000240307
0.000238042
0.000235664
0.000233172
0.000230565
0.000227866
0.000225084
0.000222187
0.000219196
0.000216165
0.000213038
0.000209721
0.000206206
0.000202561
0.000198905
0.000195377
0.000192102
0.00018919
0.000186723
0.000184889
0.000183633
0.000183212
0.000183611
0.00018155
0.000184289
0.000269205
0.00027054
0.00027215
0.000273747
0.000275043
0.000276071
0.000276704
0.000276802
0.000276305
0.00027526
0.000273719
0.000271743
0.000269385
0.000266663
0.000263575
0.000260086
0.000256141
0.000251679
0.000246614
0.000240855
0.000234322
0.000226933
0.000218627
0.000209443
0.000199561
0.000189196
0.000178514
0.000167602
0.000156554
0.000145453
0.000134373
0.000123386
0.000112596
0.000102135
9.23064e-05
8.46974e-05
8.15135e-05
8.60406e-05
9.99145e-05
0.000251589
0.00025027
0.0002487
0.000247026
0.000245486
0.000243873
0.000242265
0.000240708
0.000239154
0.000237615
0.000236074
0.0002345
0.000232886
0.000231206
0.000229446
0.000227596
0.000225642
0.000223581
0.000221411
0.000219144
0.0002168
0.000214347
0.000211782
0.000209171
0.000206463
0.000203574
0.000200491
0.000197271
0.000194013
0.000190829
0.000187831
0.000185123
0.000182783
0.000180951
0.00017961
0.000178878
0.000178739
0.000176485
0.000176817
0.000252722
0.00025377
0.000255054
0.000256335
0.000257338
0.000258105
0.00025854
0.00025852
0.000257997
0.000257014
0.000255619
0.000253862
0.000251787
0.00024941
0.000246731
0.000243716
0.000240313
0.00023646
0.000232081
0.000227086
0.000221385
0.000214887
0.000207516
0.00019929
0.000190357
0.000180908
0.000171074
0.000160937
0.000150571
0.000140043
0.000129418
0.000118741
0.000108088
9.7541e-05
8.73452e-05
7.90226e-05
7.52973e-05
7.98981e-05
9.31366e-05
0.000236564
0.00023552
0.000234265
0.000232919
0.0002317
0.000230422
0.000229146
0.00022792
0.000226696
0.000225486
0.000224273
0.00022303
0.000221753
0.000220417
0.000219011
0.000217521
0.000215938
0.000214258
0.000212475
0.000210596
0.000208644
0.00020659
0.00020442
0.000202193
0.000199873
0.00019738
0.000194698
0.000191875
0.000188988
0.000186133
0.000183403
0.000180894
0.000178678
0.000176863
0.000175427
0.000174439
0.000173785
0.000171274
0.000169969
0.000237451
0.000238257
0.000239265
0.000240278
0.000241035
0.000241581
0.00024185
0.000241732
0.000241186
0.00024025
0.000238971
0.000237391
0.000235549
0.000233456
0.000231109
0.000228483
0.000225527
0.000222188
0.000218384
0.000214033
0.000209048
0.000203329
0.000196788
0.000189426
0.000181358
0.00017275
0.000163712
0.000154307
0.000144593
0.000134624
0.000124445
0.00011408
0.000103567
9.29314e-05
8.2335e-05
7.32011e-05
6.88609e-05
7.37704e-05
8.67099e-05
0.000222598
0.000221787
0.000220802
0.000219736
0.000218792
0.000217801
0.000216811
0.00021587
0.000214927
0.000214001
0.000213071
0.000212115
0.000211126
0.000210088
0.000208986
0.000207811
0.000206553
0.000205205
0.000203766
0.000202234
0.000200634
0.000198937
0.000197126
0.000195249
0.000193283
0.000191156
0.000188844
0.000186387
0.000183847
0.0001813
0.000178829
0.000176515
0.000174415
0.000172627
0.000171106
0.000169889
0.000168791
0.000165968
0.000163496
0.000223276
0.000223879
0.000224656
0.00022544
0.000225989
0.000226354
0.00022648
0.000226278
0.000225711
0.000224813
0.000223628
0.000222192
0.000220539
0.000218681
0.000216612
0.000214307
0.000211723
0.000208807
0.000205489
0.000201687
0.000197313
0.00019227
0.000186461
0.00017987
0.000172587
0.000164751
0.000156451
0.000147738
0.000138649
0.000129225
0.000119488
0.000109439
9.9077e-05
8.83585e-05
7.73334e-05
6.72576e-05
6.21698e-05
6.76822e-05
8.06507e-05
0.000209595
0.000208983
0.000208226
0.000207402
0.000206692
0.000205946
0.000205202
0.000204503
0.000203804
0.00020312
0.000202433
0.000201723
0.000200985
0.000200204
0.000199367
0.000198466
0.00019749
0.000196434
0.000195295
0.00019407
0.00019278
0.000191403
0.000189913
0.000188357
0.000186713
0.000184914
0.00018294
0.00018082
0.000178602
0.000176345
0.000174118
0.000171992
0.000170012
0.000168247
0.00016666
0.000165228
0.000163753
0.000160627
0.000157277
0.000210094
0.000210529
0.00021111
0.000211698
0.000212075
0.000212287
0.000212294
0.000212022
0.000211436
0.000210571
0.000209464
0.000208147
0.000206651
0.000204984
0.000203145
0.000201108
0.000198833
0.000196274
0.000193364
0.000190028
0.000186181
0.000181724
0.000176557
0.000170651
0.000164073
0.000156945
0.000149332
0.000141269
0.000132778
0.000123881
0.000114583
0.000104858
9.46641e-05
8.38815e-05
7.24155e-05
6.1234e-05
5.51684e-05
6.16871e-05
7.49912e-05
0.000197469
0.000197029
0.000196464
0.000195848
0.000195339
0.0001948
0.000194269
0.000193777
0.000193288
0.000192811
0.000192333
0.000191834
0.000191312
0.000190751
0.000190142
0.000189474
0.000188744
0.000187943
0.000187067
0.000186111
0.000185096
0.000184001
0.0001828
0.00018153
0.000180176
0.000178676
0.000177008
0.000175194
0.00017327
0.000171283
0.000169287
0.000167338
0.000165475
0.000163743
0.000162097
0.000160481
0.000158686
0.000155305
0.000151289
0.000197819
0.000198112
0.00019853
0.000198949
0.000199183
0.000199269
0.000199177
0.000198845
0.000198244
0.000197406
0.000196364
0.000195148
0.000193784
0.000192276
0.000190627
0.000188812
0.000186797
0.000184539
0.000181976
0.000179036
0.00017564
0.000171689
0.000167085
0.000161789
0.000155851
0.000149365
0.000142387
0.000134932
0.00012701
0.000118625
0.000109766
0.000100378
9.03796e-05
7.95747e-05
6.76878e-05
5.52154e-05
4.77561e-05
5.58779e-05
6.9778e-05
0.000186148
0.000185851
0.000185453
0.000185012
0.000184673
0.000184314
0.000183962
0.000183648
0.000183339
0.000183039
0.000182739
0.000182421
0.000182082
0.00018171
0.000181296
0.000180834
0.000180315
0.000179733
0.000179085
0.000178365
0.00017759
0.000176743
0.0001758
0.000174785
0.000173688
0.000172455
0.000171063
0.000169525
0.000167869
0.000166131
0.00016435
0.000162571
0.000160819
0.000159125
0.000157433
0.000155667
0.000153599
0.000150008
0.000145517
0.000186371
0.000186544
0.000186825
0.000187105
0.000187217
0.000187198
0.000187025
0.000186644
0.000186033
0.000185218
0.000184233
0.0001831
0.000181844
0.000180475
0.000178986
0.000177359
0.000175561
0.000173556
0.000171286
0.000168684
0.000165675
0.000162167
0.000158057
0.0001533
0.000147935
0.000142035
0.000135643
0.000128758
0.000121379
0.000113494
0.000105074
9.60444e-05
8.6282e-05
7.55215e-05
6.32883e-05
4.93731e-05
3.97226e-05
5.04282e-05
6.50665e-05
0.000175563
0.000175388
0.00017513
0.000174839
0.000174646
0.000174438
0.00017424
0.000174077
0.00017392
0.000173771
0.000173623
0.000173459
0.000173278
0.000173068
0.000172821
0.000172532
0.000172194
0.000171801
0.000171351
0.000170838
0.000170272
0.000169642
0.000168923
0.000168133
0.000167263
0.000166267
0.00016512
0.000163831
0.000162418
0.000160906
0.000159324
0.000157703
0.000156061
0.000154407
0.000152685
0.000150793
0.000148508
0.000144765
0.000139944
0.00017568
0.000175754
0.00017592
0.000176082
0.000176094
0.000175988
0.000175749
0.00017533
0.000174712
0.000173918
0.000172981
0.000171922
0.00017076
0.000169505
0.000168152
0.000166683
0.000165072
0.000163282
0.000161261
0.00015895
0.000156277
0.00015315
0.000149474
0.000145197
0.000140345
0.000134979
0.000129126
0.000122776
0.000115914
0.000108519
0.000100544
9.18966e-05
8.24245e-05
7.18061e-05
5.93861e-05
4.40688e-05
3.06241e-05
4.56389e-05
6.09275e-05
0.000165656
0.000165583
0.000165443
0.00016528
0.000165209
0.000165131
0.000165063
0.000165029
0.000165001
0.000164981
0.000164962
0.000164928