/*--------------------------------*- C++ -*----------------------------------*\
| =========                 |                                                 |
| \\      /  F ield         | OpenFOAM: The Open Source CFD Toolbox           |
|  \\    /   O peration     | Version:  2206                                  |
|   \\  /    A nd           | Website:  www.openfoam.com                      |
|    \\/     M anipulation  |                                                 |
\*---------------------------------------------------------------------------*/
FoamFile
{
    version     2.0;
    format      ascii;
    arch        "LSB;label=32;scalar=64";
    class       volScalarField;
    location    "350";
    object      turbulenceProperties:nuEff;
}
// * * * * * * * * * * * * * * * * * * * * * * * * * * * * * * * * * * * * * //

dimensions      [0 2 -1 0 0 0 0];

internalField   nonuniform List<scalar> 
10720
(
3.58093e-05
3.95361e-05
4.4524e-05
5.09869e-05
5.9311e-05
7.00278e-05
8.38575e-05
0.000101162
0.000122979
0.000150353
0.000185239
0.000230752
0.000291321
0.000374904
0.000495084
0.000673884
0.000955924
0.00140531
0.00222754
0.00359951
0.00691255
0.0127217
0.0339292
0.0760607
0.0937459
0.0946759
0.0957164
0.0992434
0.102755
0.10449
0.104466
0.103218
0.100851
0.0974199
0.0928006
0.0869191
0.0784559
0.0683254
0.0332643
3.25835e-05
2.98047e-05
2.70744e-05
2.45844e-05
2.22504e-05
2.01077e-05
1.8245e-05
1.69617e-05
1.80966e-05
2.07907e-05
2.54809e-05
3.32262e-05
4.55747e-05
6.44522e-05
9.1385e-05
0.000127941
0.000177174
0.000246271
0.000349375
0.000511797
0.000783231
0.00125192
0.0021275
0.00377977
0.00733779
0.0147324
0.0324863
0.0663299
0.0934786
0.105035
0.108443
0.109385
0.109481
0.108985
0.107983
0.106587
0.104441
0.102006
0.0924704
1.50855e-05
1.49803e-05
1.48854e-05
1.48068e-05
1.47166e-05
1.46338e-05
1.45724e-05
1.45187e-05
1.44956e-05
1.45159e-05
1.45435e-05
1.48186e-05
1.58792e-05
1.86535e-05
2.64143e-05
4.68105e-05
9.39124e-05
0.000172819
0.000325499
0.000598964
0.00132798
0.00283063
0.00707632
0.0204401
0.0395029
0.0633477
0.0926196
0.123749
0.148758
0.162696
0.167983
0.168805
0.167221
0.163872
0.159361
0.153859
0.148549
0.139528
0.139942
1.51691e-05
1.52823e-05
1.53788e-05
1.55098e-05
1.56441e-05
1.578e-05
1.59111e-05
1.60217e-05
1.59591e-05
1.58177e-05
1.56246e-05
1.53903e-05
1.51241e-05
1.48295e-05
1.44957e-05
1.41198e-05
1.36767e-05
1.31625e-05
1.25483e-05
1.18435e-05
1.10741e-05
1.04205e-05
1.00541e-05
1.00015e-05
1.00093e-05
0.000103709
0.000549891
0.00416643
0.0141249
0.0287288
0.0437364
0.0550719
0.0618349
0.0656168
0.0680147
0.070005
0.0717366
0.0753085
0.0784695
1.62662e-05
1.62835e-05
1.63015e-05
1.63209e-05
1.63446e-05
1.63711e-05
1.64014e-05
1.64368e-05
1.64787e-05
1.65277e-05
1.65859e-05
1.66575e-05
1.67367e-05
1.68815e-05
1.68835e-05
1.64981e-05
1.48912e-05
1.39205e-05
1.02448e-05
0.000107301
0.000273874
0.000206643
0.000343255
0.00100197
0.00326654
0.00760012
0.015595
0.0309459
0.05734
0.0937795
0.132813
0.164522
0.184937
0.196781
0.203478
0.20636
0.20761
0.201519
0.210317
1.62529e-05
1.62339e-05
1.62194e-05
1.61978e-05
1.61792e-05
1.61593e-05
1.61416e-05
1.61276e-05
1.61323e-05
1.61473e-05
1.61669e-05
1.61909e-05
1.62202e-05
1.62531e-05
1.62901e-05
1.6331e-05
1.63775e-05
1.64308e-05
1.64945e-05
1.6572e-05
1.66714e-05
1.6799e-05
1.69803e-05
1.71736e-05
1.7436e-05
1.71567e-05
1.72474e-05
1.24845e-05
9.36713e-05
0.000800284
0.00302727
0.00755164
0.0142623
0.0224455
0.0311666
0.0396102
0.04701
0.0536827
0.0631765
1.60862e-05
1.60838e-05
1.60832e-05
1.60835e-05
1.60845e-05
1.60871e-05
1.6092e-05
1.60988e-05
1.61088e-05
1.61224e-05
1.61404e-05
1.61639e-05
1.61945e-05
1.62335e-05
1.62835e-05
1.63454e-05
1.62229e-05
1.58833e-05
1.41686e-05
1.11404e-05
1.00111e-05
1.78841e-05
4.15144e-05
0.000205433
0.000689674
0.00164374
0.000530305
0.0014006
0.0041806
0.0134528
0.0355669
0.0727479
0.118839
0.161362
0.193259
0.215399
0.231994
0.239196
0.255296
1.60868e-05
1.60892e-05
1.60923e-05
1.60945e-05
1.60983e-05
1.61003e-05
1.61016e-05
1.61026e-05
1.61004e-05
1.60977e-05
1.60943e-05
1.60905e-05
1.60871e-05
1.60836e-05
1.60803e-05
1.60768e-05
1.60731e-05
1.60691e-05
1.60641e-05
1.6059e-05
1.60536e-05
1.60479e-05
1.60411e-05
1.60348e-05
1.60281e-05
1.60304e-05
1.60231e-05
1.60826e-05
1.59989e-05
1.59523e-05
1.52097e-05
1.41714e-05
0.000236691
0.00105627
0.00305134
0.00689846
0.0131024
0.0218431
0.0392263
1.61112e-05
1.61118e-05
1.61121e-05
1.6113e-05
1.61145e-05
1.61165e-05
1.61191e-05
1.61227e-05
1.61274e-05
1.61336e-05
1.61417e-05
1.61523e-05
1.61661e-05
1.6184e-05
1.62083e-05
1.62359e-05
1.62847e-05
1.63089e-05
1.65481e-05
1.65312e-05
1.34292e-05
1.01102e-05
1.00071e-05
1.00003e-05
1e-05
1e-05
9.88366e-05
0.000308343
0.000945381
0.000513963
0.00160464
0.00796692
0.0295685
0.070726
0.124159
0.175104
0.217236
0.248104
0.278333
1.61113e-05
1.61099e-05
1.61106e-05
1.61095e-05
1.61104e-05
1.61092e-05
1.61071e-05
1.61052e-05
1.61041e-05
1.61039e-05
1.61039e-05
1.61038e-05
1.61041e-05
1.61047e-05
1.61056e-05
1.61069e-05
1.61084e-05
1.61103e-05
1.61125e-05
1.61149e-05
1.61177e-05
1.61207e-05
1.61242e-05
1.6128e-05
1.61329e-05
1.61372e-05
1.61504e-05
1.61301e-05
1.62727e-05
1.56951e-05
1.87085e-05
1.05815e-05
3.56248e-05
0.000257826
7.43783e-05
0.000319768
0.0010516
0.00175111
0.0137073
1.61051e-05
1.61049e-05
1.61052e-05
1.61054e-05
1.61055e-05
1.61059e-05
1.61065e-05
1.61073e-05
1.61085e-05
1.61102e-05
1.61125e-05
1.61157e-05
1.61201e-05
1.6126e-05
1.61342e-05
1.61448e-05
1.6161e-05
1.61734e-05
1.62212e-05
1.63369e-05
1.6435e-05
1.58164e-05
1.30192e-05
1.01897e-05
1.00095e-05
1.00022e-05
1.00001e-05
1e-05
1e-05
9.92766e-05
0.000365069
0.00182583
0.000377907
0.00874499
0.0380969
0.0933351
0.160471
0.224065
0.278395
1.61046e-05
1.61039e-05
1.61048e-05
1.61046e-05
1.61063e-05
1.61061e-05
1.61047e-05
1.61035e-05
1.61025e-05
1.61019e-05
1.61015e-05
1.6101e-05
1.61007e-05
1.61006e-05
1.61006e-05
1.61006e-05
1.61007e-05
1.61009e-05
1.61012e-05
1.61014e-05
1.61016e-05
1.61018e-05
1.61018e-05
1.61015e-05
1.61014e-05
1.61017e-05
1.61021e-05
1.61039e-05
1.61035e-05
1.61125e-05
1.60929e-05
1.61758e-05
1.54994e-05
1.42063e-05
1.21172e-05
5.42327e-05
0.000251257
0.000463508
0.00239347
1.61053e-05
1.61056e-05
1.61057e-05
1.61058e-05
1.61059e-05
1.6106e-05
1.61061e-05
1.61065e-05
1.6107e-05
1.61077e-05
1.61087e-05
1.61102e-05
1.61122e-05
1.61151e-05
1.61191e-05
1.61247e-05
1.61321e-05
1.61407e-05
1.61493e-05
1.61654e-05
1.62606e-05
1.63567e-05
1.65098e-05
1.58272e-05
1.36557e-05
1.1365e-05
1.00755e-05
1.00089e-05
1.00034e-05
1e-05
1e-05
1e-05
6.30268e-05
0.00206286
0.0016872
0.0217517
0.0782674
0.166262
0.252386
1.61049e-05
1.61038e-05
1.61042e-05
1.61039e-05
1.61055e-05
1.61055e-05
1.61043e-05
1.61031e-05
1.61022e-05
1.61017e-05
1.61014e-05
1.61012e-05
1.6101e-05
1.61011e-05
1.6101e-05
1.61011e-05
1.61012e-05
1.61015e-05
1.61018e-05
1.61022e-05
1.61027e-05
1.61033e-05
1.6104e-05
1.61048e-05
1.61058e-05
1.6107e-05
1.61087e-05
1.61108e-05
1.61134e-05
1.61167e-05
1.6121e-05
1.6131e-05
1.62006e-05
1.57714e-05
1.33027e-05
1.03126e-05
1.00098e-05
1e-05
7.17091e-05
1.61049e-05
1.61051e-05
1.61053e-05
1.61053e-05
1.61051e-05
1.6105e-05
1.61048e-05
1.61047e-05
1.61046e-05
1.61046e-05
1.61047e-05
1.6105e-05
1.61053e-05
1.61059e-05
1.61068e-05
1.61082e-05
1.61102e-05
1.61128e-05
1.61151e-05
1.6117e-05
1.61238e-05
1.61364e-05
1.62097e-05
1.65083e-05
1.67529e-05
1.64929e-05
1.54602e-05
1.34606e-05
1.17823e-05
1.00249e-05
1.00079e-05
1e-05
1e-05
1e-05
0.000395672
0.00543224
0.0161801
0.0904998
0.200117
1.61043e-05
1.61032e-05
1.61032e-05
1.61028e-05
1.61044e-05
1.61045e-05
1.61036e-05
1.61026e-05
1.61018e-05
1.61013e-05
1.6101e-05
1.61008e-05
1.61008e-05
1.61009e-05
1.61009e-05
1.61011e-05
1.61011e-05
1.61011e-05
1.61012e-05
1.61013e-05
1.61014e-05
1.61016e-05
1.61017e-05
1.61019e-05
1.6102e-05
1.61022e-05
1.61024e-05
1.61027e-05
1.61029e-05
1.6103e-05
1.61036e-05
1.61011e-05
1.61123e-05
1.6067e-05
1.6194e-05
1.50331e-05
1.28809e-05
1.00181e-05
1.06031e-05
1.61048e-05
1.6105e-05
1.61051e-05
1.61049e-05
1.61047e-05
1.61045e-05
1.61042e-05
1.61041e-05
1.6104e-05
1.61039e-05
1.6104e-05
1.61041e-05
1.61043e-05
1.61047e-05
1.61053e-05
1.61063e-05
1.61077e-05
1.61096e-05
1.61115e-05
1.61133e-05
1.6114e-05
1.61172e-05
1.61036e-05
1.61266e-05
1.62877e-05
1.65495e-05
1.68701e-05
1.7122e-05
1.70479e-05
1.51203e-05
1.30071e-05
1.00082e-05
1.00031e-05
1e-05
1e-05
1e-05
0.00443041
0.0306014
0.132919
1.61043e-05
1.6103e-05
1.61027e-05
1.61021e-05
1.61036e-05
1.61039e-05
1.61032e-05
1.61022e-05
1.61015e-05
1.61011e-05
1.61008e-05
1.61007e-05
1.61006e-05
1.61007e-05
1.61008e-05
1.6101e-05
1.61011e-05
1.61012e-05
1.61013e-05
1.61013e-05
1.61014e-05
1.61015e-05
1.61017e-05
1.61019e-05
1.61021e-05
1.61024e-05
1.61029e-05
1.61036e-05
1.61044e-05
1.61055e-05
1.61069e-05
1.61084e-05
1.61113e-05
1.61113e-05
1.61403e-05
1.62165e-05
1.66431e-05
1.46063e-05
1.00027e-05
1.61048e-05
1.61048e-05
1.61048e-05
1.61045e-05
1.61042e-05
1.61039e-05
1.61036e-05
1.61034e-05
1.61032e-05
1.6103e-05
1.61028e-05
1.61027e-05
1.61026e-05
1.61026e-05
1.61026e-05
1.61025e-05
1.61026e-05
1.61027e-05
1.61029e-05
1.61036e-05
1.61044e-05
1.61075e-05
1.61082e-05
1.60939e-05
1.60884e-05
1.61241e-05
1.62461e-05
1.64962e-05
1.68609e-05
1.72665e-05
1.75691e-05
1.51896e-05
1.11975e-05
1.00108e-05
1e-05
1e-05
1.00271e-05
0.000466916
0.0724551
1.61043e-05
1.6103e-05
1.61023e-05
1.61016e-05
1.6103e-05
1.61033e-05
1.61027e-05
1.61019e-05
1.61013e-05
1.61009e-05
1.61007e-05
1.61006e-05
1.61005e-05
1.61005e-05
1.61006e-05
1.61008e-05
1.61009e-05
1.61011e-05
1.61013e-05
1.61014e-05
1.61015e-05
1.61016e-05
1.61016e-05
1.61016e-05
1.61017e-05
1.61018e-05
1.61019e-05
1.61022e-05
1.61026e-05
1.6103e-05
1.61034e-05
1.61041e-05
1.61038e-05
1.61091e-05
1.60887e-05
1.61767e-05
1.58088e-05
1.87734e-05
1.05757e-05
1.61046e-05
1.61045e-05
1.61044e-05
1.6104e-05
1.61037e-05
1.61033e-05
1.6103e-05
1.61028e-05
1.61027e-05
1.61025e-05
1.61024e-05
1.61024e-05
1.61023e-05
1.61024e-05
1.61025e-05
1.61027e-05
1.6103e-05
1.61035e-05
1.61041e-05
1.61047e-05
1.61051e-05
1.61057e-05
1.61082e-05
1.61079e-05
1.60984e-05
1.60838e-05
1.60767e-05
1.61078e-05
1.61982e-05
1.64476e-05
1.68684e-05
1.76413e-05
1.71851e-05
1.30161e-05
1.00158e-05
1e-05
1e-05
0.000812692
0.033331
1.61043e-05
1.6103e-05
1.61022e-05
1.61012e-05
1.61025e-05
1.61029e-05
1.61024e-05
1.61016e-05
1.61011e-05
1.61007e-05
1.61006e-05
1.61004e-05
1.61003e-05
1.61003e-05
1.61004e-05
1.61005e-05
1.61007e-05
1.61009e-05
1.61011e-05
1.61013e-05
1.61014e-05
1.61016e-05
1.61017e-05
1.61018e-05
1.61018e-05
1.61019e-05
1.6102e-05
1.61023e-05
1.61026e-05
1.6103e-05
1.61035e-05
1.61044e-05
1.61044e-05
1.61089e-05
1.60936e-05
1.61643e-05
1.58561e-05
1.71527e-05
1.43731e-05
1.61045e-05
1.61042e-05
1.61039e-05
1.61035e-05
1.61032e-05
1.61028e-05
1.61025e-05
1.61023e-05
1.61022e-05
1.6102e-05
1.61019e-05
1.61018e-05
1.61018e-05
1.61018e-05
1.61017e-05
1.61018e-05
1.61019e-05
1.6102e-05
1.61022e-05
1.61026e-05
1.61032e-05
1.61039e-05
1.61051e-05
1.61073e-05
1.61081e-05
1.61045e-05
1.6094e-05
1.60813e-05
1.60707e-05
1.60958e-05
1.61678e-05
1.65067e-05
1.72162e-05
1.7791e-05
1.40039e-05
1.00105e-05
1e-05
0.000293045
0.0131294
1.61043e-05
1.61031e-05
1.61021e-05
1.6101e-05
1.61021e-05
1.61025e-05
1.61021e-05
1.61013e-05
1.61009e-05
1.61006e-05
1.61004e-05
1.61003e-05
1.61002e-05
1.61001e-05
1.61002e-05
1.61003e-05
1.61004e-05
1.61006e-05
1.61008e-05
1.6101e-05
1.61012e-05
1.61014e-05
1.61016e-05
1.61018e-05
1.61019e-05
1.6102e-05
1.6102e-05
1.61021e-05
1.61023e-05
1.61025e-05
1.61028e-05
1.61032e-05
1.61035e-05
1.61051e-05
1.61016e-05
1.6119e-05
1.60595e-05
1.62044e-05
1.61644e-05
1.61042e-05
1.61038e-05
1.61035e-05
1.61031e-05
1.61027e-05
1.61024e-05
1.61021e-05
1.61019e-05
1.61018e-05
1.61017e-05
1.61016e-05
1.61016e-05
1.61016e-05
1.61016e-05
1.61016e-05
1.61016e-05
1.61017e-05
1.61019e-05
1.61022e-05
1.61025e-05
1.61029e-05
1.61034e-05
1.61039e-05
1.61051e-05
1.61068e-05
1.61084e-05
1.6108e-05
1.61043e-05
1.60954e-05
1.60827e-05
1.60653e-05
1.60715e-05
1.62503e-05
1.68024e-05
1.85315e-05
1.25005e-05
1e-05
8.3296e-05
0.00435384
1.61042e-05
1.61031e-05
1.6102e-05
1.61008e-05
1.61018e-05
1.61021e-05
1.61018e-05
1.61011e-05
1.61007e-05
1.61004e-05
1.61002e-05
1.61001e-05
1.61e-05
1.60999e-05
1.60999e-05
1.61e-05
1.61001e-05
1.61003e-05
1.61005e-05
1.61008e-05
1.6101e-05
1.61012e-05
1.61015e-05
1.61017e-05
1.61019e-05
1.6102e-05
1.61021e-05
1.61021e-05
1.61022e-05
1.61023e-05
1.61026e-05
1.61029e-05
1.61033e-05
1.61037e-05
1.61048e-05
1.61028e-05
1.61169e-05
1.60526e-05
1.62574e-05
1.61039e-05
1.61034e-05
1.61031e-05
1.61027e-05
1.61023e-05
1.6102e-05
1.61017e-05
1.61016e-05
1.61015e-05
1.61014e-05
1.61014e-05
1.61014e-05
1.61014e-05
1.61014e-05
1.61014e-05
1.61014e-05
1.61015e-05
1.61016e-05
1.61018e-05
1.6102e-05
1.61023e-05
1.61027e-05
1.61032e-05
1.61039e-05
1.6105e-05
1.61065e-05
1.61082e-05
1.61096e-05
1.61099e-05
1.61071e-05
1.60993e-05
1.60728e-05
1.60508e-05
1.60813e-05
1.6668e-05
1.99647e-05
1e-05
1.13664e-05
0.00112122
1.6104e-05
1.61031e-05
1.6102e-05
1.61007e-05
1.61015e-05
1.61018e-05
1.61015e-05
1.61009e-05
1.61005e-05
1.61002e-05
1.61001e-05
1.60999e-05
1.60998e-05
1.60997e-05
1.60997e-05
1.60998e-05
1.60999e-05
1.61001e-05
1.61003e-05
1.61005e-05
1.61007e-05
1.6101e-05
1.61013e-05
1.61015e-05
1.61017e-05
1.61019e-05
1.61021e-05
1.61021e-05
1.61021e-05
1.61022e-05
1.61023e-05
1.61025e-05
1.61028e-05
1.61031e-05
1.61041e-05
1.61021e-05
1.61126e-05
1.60813e-05
1.61463e-05
1.61036e-05
1.6103e-05
1.61027e-05
1.61023e-05
1.61019e-05
1.61016e-05
1.61014e-05
1.61013e-05
1.61013e-05
1.61013e-05
1.61013e-05
1.61013e-05
1.61013e-05
1.61013e-05
1.61014e-05
1.61014e-05
1.61015e-05
1.61016e-05
1.61017e-05
1.61019e-05
1.61021e-05
1.61024e-05
1.61028e-05
1.61033e-05
1.6104e-05
1.6105e-05
1.61064e-05
1.6108e-05
1.611e-05
1.6112e-05
1.61137e-05
1.6112e-05
1.60805e-05
1.6106e-05
1.56369e-05
1.93014e-05
1.26778e-05
1.00003e-05
8.01277e-05
1.61038e-05
1.61031e-05
1.6102e-05
1.61006e-05
1.61013e-05
1.61016e-05
1.61013e-05
1.61007e-05
1.61003e-05
1.61001e-05
1.60999e-05
1.60998e-05
1.60996e-05
1.60995e-05
1.60995e-05
1.60995e-05
1.60996e-05
1.60998e-05
1.61e-05
1.61002e-05
1.61005e-05
1.61007e-05
1.6101e-05
1.61013e-05
1.61016e-05
1.61018e-05
1.6102e-05
1.61021e-05
1.61021e-05
1.61022e-05
1.61022e-05
1.61024e-05
1.61026e-05
1.61028e-05
1.61033e-05
1.61031e-05
1.61056e-05
1.61021e-05
1.61073e-05
1.61033e-05
1.61027e-05
1.61023e-05
1.6102e-05
1.61016e-05
1.61014e-05
1.61012e-05
1.61012e-05
1.61012e-05
1.61012e-05
1.61012e-05
1.61013e-05
1.61013e-05
1.61014e-05
1.61014e-05
1.61015e-05
1.61015e-05
1.61016e-05
1.61017e-05
1.61018e-05
1.6102e-05
1.61023e-05
1.61026e-05
1.6103e-05
1.61036e-05
1.61043e-05
1.61053e-05
1.61065e-05
1.6108e-05
1.61101e-05
1.61121e-05
1.61196e-05
1.61035e-05
1.61664e-05
1.58151e-05
1.64306e-05
1.94501e-05
1e-05
1.06845e-05
1.61036e-05
1.6103e-05
1.6102e-05
1.61006e-05
1.61011e-05
1.61013e-05
1.61011e-05
1.61005e-05
1.61002e-05
1.60999e-05
1.60997e-05
1.60996e-05
1.60994e-05
1.60993e-05
1.60993e-05
1.60993e-05
1.60994e-05
1.60996e-05
1.60997e-05
1.61e-05
1.61002e-05
1.61005e-05
1.61008e-05
1.61011e-05
1.61014e-05
1.61016e-05
1.61018e-05
1.6102e-05
1.61021e-05
1.61022e-05
1.61022e-05
1.61022e-05
1.61024e-05
1.61025e-05
1.61028e-05
1.61032e-05
1.61034e-05
1.61058e-05
1.61027e-05
1.61029e-05
1.61024e-05
1.6102e-05
1.61016e-05
1.61014e-05
1.61011e-05
1.61011e-05
1.61011e-05
1.61011e-05
1.61012e-05
1.61012e-05
1.61013e-05
1.61014e-05
1.61014e-05
1.61015e-05
1.61015e-05
1.61016e-05
1.61017e-05
1.61017e-05
1.61019e-05
1.6102e-05
1.61022e-05
1.61025e-05
1.61028e-05
1.61033e-05
1.61039e-05
1.61047e-05
1.61057e-05
1.61069e-05
1.61084e-05
1.61097e-05
1.61146e-05
1.61132e-05
1.61255e-05
1.619e-05
1.5264e-05
2.21018e-05
1.00003e-05
1e-05
1.61034e-05
1.61029e-05
1.61019e-05
1.61006e-05
1.61009e-05
1.61011e-05
1.61009e-05
1.61004e-05
1.61e-05
1.60997e-05
1.60995e-05
1.60994e-05
1.60992e-05
1.60991e-05
1.60991e-05
1.60991e-05
1.60992e-05
1.60993e-05
1.60995e-05
1.60997e-05
1.61e-05
1.61003e-05
1.61006e-05
1.61009e-05
1.61012e-05
1.61014e-05
1.61017e-05
1.61019e-05
1.6102e-05
1.61021e-05
1.61022e-05
1.61022e-05
1.61023e-05
1.61024e-05
1.61026e-05
1.61029e-05
1.6103e-05
1.61049e-05
1.61036e-05
1.61026e-05
1.61021e-05
1.61017e-05
1.61014e-05
1.61011e-05
1.6101e-05
1.6101e-05
1.6101e-05
1.61011e-05
1.61012e-05
1.61013e-05
1.61014e-05
1.61014e-05
1.61015e-05
1.61016e-05
1.61016e-05
1.61017e-05
1.61018e-05
1.61018e-05
1.61019e-05
1.61021e-05
1.61022e-05
1.61024e-05
1.61027e-05
1.61031e-05
1.61036e-05
1.61043e-05
1.61052e-05
1.61062e-05
1.61074e-05
1.61088e-05
1.61098e-05
1.61188e-05
1.6084e-05
1.63118e-05
1.53071e-05
1.94601e-05
1.15969e-05
1.00005e-05
1.61031e-05
1.61028e-05
1.61018e-05
1.61005e-05
1.61008e-05
1.61009e-05
1.61007e-05
1.61002e-05
1.60998e-05
1.60995e-05
1.60994e-05
1.60992e-05
1.60991e-05
1.6099e-05
1.60989e-05
1.6099e-05
1.6099e-05
1.60991e-05
1.60993e-05
1.60995e-05
1.60997e-05
1.61e-05
1.61003e-05
1.61006e-05
1.61009e-05
1.61012e-05
1.61015e-05
1.61017e-05
1.61019e-05
1.6102e-05
1.61022e-05
1.61022e-05
1.61022e-05
1.61023e-05
1.61024e-05
1.61026e-05
1.61028e-05
1.61041e-05
1.61038e-05
1.61024e-05
1.61018e-05
1.61014e-05
1.61011e-05
1.6101e-05
1.61009e-05
1.61009e-05
1.6101e-05
1.61011e-05
1.61012e-05
1.61013e-05
1.61014e-05
1.61015e-05
1.61016e-05
1.61017e-05
1.61017e-05
1.61018e-05
1.61019e-05
1.61019e-05
1.6102e-05
1.61021e-05
1.61023e-05
1.61024e-05
1.61027e-05
1.6103e-05
1.61034e-05
1.6104e-05
1.61048e-05
1.61057e-05
1.61067e-05
1.61083e-05
1.61078e-05
1.61187e-05
1.60815e-05
1.62448e-05
1.57419e-05
1.69232e-05
1.68296e-05
1.0087e-05
1.61028e-05
1.61026e-05
1.61018e-05
1.61005e-05
1.61006e-05
1.61007e-05
1.61005e-05
1.61e-05
1.60997e-05
1.60994e-05
1.60992e-05
1.6099e-05
1.60989e-05
1.60988e-05
1.60988e-05
1.60988e-05
1.60989e-05
1.6099e-05
1.60991e-05
1.60993e-05
1.60995e-05
1.60998e-05
1.61001e-05
1.61004e-05
1.61007e-05
1.6101e-05
1.61013e-05
1.61015e-05
1.61017e-05
1.61019e-05
1.61021e-05
1.61022e-05
1.61022e-05
1.61022e-05
1.61023e-05
1.61024e-05
1.61026e-05
1.61036e-05
1.61036e-05
1.61021e-05
1.61016e-05
1.61011e-05
1.61009e-05
1.61008e-05
1.61008e-05
1.61009e-05
1.6101e-05
1.61011e-05
1.61013e-05
1.61014e-05
1.61015e-05
1.61016e-05
1.61017e-05
1.61018e-05
1.61018e-05
1.61019e-05
1.6102e-05
1.6102e-05
1.61021e-05
1.61022e-05
1.61023e-05
1.61025e-05
1.61027e-05
1.61029e-05
1.61033e-05
1.61038e-05
1.61044e-05
1.61053e-05
1.61061e-05
1.61077e-05
1.61075e-05
1.61146e-05
1.60974e-05
1.61526e-05
1.60763e-05
1.58736e-05
1.84923e-05
1.16943e-05
1.61026e-05
1.61024e-05
1.61017e-05
1.61004e-05
1.61005e-05
1.61005e-05
1.61003e-05
1.60999e-05
1.60995e-05
1.60992e-05
1.6099e-05
1.60989e-05
1.60987e-05
1.60987e-05
1.60986e-05
1.60986e-05
1.60987e-05
1.60988e-05
1.60989e-05
1.60991e-05
1.60993e-05
1.60996e-05
1.60999e-05
1.61002e-05
1.61005e-05
1.61008e-05
1.61011e-05
1.61013e-05
1.61016e-05
1.61018e-05
1.61019e-05
1.61021e-05
1.61022e-05
1.61022e-05
1.61023e-05
1.61023e-05
1.61025e-05
1.61033e-05
1.61033e-05
1.61018e-05
1.61014e-05
1.61009e-05
1.61008e-05
1.61007e-05
1.61008e-05
1.61009e-05
1.6101e-05
1.61012e-05
1.61013e-05
1.61014e-05
1.61016e-05
1.61017e-05
1.61018e-05
1.61019e-05
1.61019e-05
1.6102e-05
1.61021e-05
1.61022e-05
1.61022e-05
1.61023e-05
1.61024e-05
1.61026e-05
1.61027e-05
1.6103e-05
1.61033e-05
1.61037e-05
1.61042e-05
1.61049e-05
1.61057e-05
1.61069e-05
1.61076e-05
1.61105e-05
1.61101e-05
1.61041e-05
1.61949e-05
1.57312e-05
1.75776e-05
1.46004e-05
1.61023e-05
1.61023e-05
1.61015e-05
1.61004e-05
1.61004e-05
1.61004e-05
1.61001e-05
1.60997e-05
1.60993e-05
1.60991e-05
1.60989e-05
1.60987e-05
1.60986e-05
1.60985e-05
1.60985e-05
1.60985e-05
1.60986e-05
1.60987e-05
1.60988e-05
1.6099e-05
1.60992e-05
1.60994e-05
1.60997e-05
1.61e-05
1.61003e-05
1.61005e-05
1.61008e-05
1.61011e-05
1.61013e-05
1.61016e-05
1.61018e-05
1.6102e-05
1.61021e-05
1.61022e-05
1.61022e-05
1.61022e-05
1.61023e-05
1.61031e-05
1.61031e-05
1.61016e-05
1.61011e-05
1.61008e-05
1.61007e-05
1.61007e-05
1.61008e-05
1.61009e-05
1.6101e-05
1.61012e-05
1.61014e-05
1.61015e-05
1.61016e-05
1.61018e-05
1.61019e-05
1.6102e-05
1.61021e-05
1.61021e-05
1.61022e-05
1.61023e-05
1.61024e-05
1.61025e-05
1.61026e-05
1.61027e-05
1.61028e-05
1.6103e-05
1.61033e-05
1.61037e-05
1.61041e-05
1.61047e-05
1.61055e-05
1.61064e-05
1.61075e-05
1.61082e-05
1.61139e-05
1.60945e-05
1.61857e-05
1.58912e-05
1.6617e-05
1.61529e-05
1.6102e-05
1.61021e-05
1.61014e-05
1.61003e-05
1.61002e-05
1.61002e-05
1.60999e-05
1.60995e-05
1.60992e-05
1.60989e-05
1.60987e-05
1.60985e-05
1.60984e-05
1.60984e-05
1.60984e-05
1.60984e-05
1.60984e-05
1.60985e-05
1.60986e-05
1.60988e-05
1.6099e-05
1.60992e-05
1.60994e-05
1.60997e-05
1.61e-05
1.61003e-05
1.61006e-05
1.61009e-05
1.61011e-05
1.61014e-05
1.61016e-05
1.61018e-05
1.6102e-05
1.61021e-05
1.61022e-05
1.61022e-05
1.61023e-05
1.61029e-05
1.61029e-05
1.61014e-05
1.6101e-05
1.61006e-05
1.61006e-05
1.61007e-05
1.61007e-05
1.61009e-05
1.61011e-05
1.61012e-05
1.61014e-05
1.61016e-05
1.61017e-05
1.61018e-05
1.6102e-05
1.61021e-05
1.61022e-05
1.61023e-05
1.61023e-05
1.61024e-05
1.61025e-05
1.61026e-05
1.61027e-05
1.61028e-05
1.61029e-05
1.61031e-05
1.61033e-05
1.61037e-05
1.61041e-05
1.61046e-05
1.61053e-05
1.6106e-05
1.61072e-05
1.61074e-05
1.61127e-05
1.61003e-05
1.61463e-05
1.60441e-05
1.61716e-05
1.64174e-05
1.61018e-05
1.61019e-05
1.61013e-05
1.61002e-05
1.61001e-05
1.61e-05
1.60997e-05
1.60993e-05
1.6099e-05
1.60988e-05
1.60986e-05
1.60984e-05
1.60983e-05
1.60983e-05
1.60982e-05
1.60983e-05
1.60983e-05
1.60984e-05
1.60985e-05
1.60986e-05
1.60988e-05
1.6099e-05
1.60992e-05
1.60995e-05
1.60998e-05
1.61001e-05
1.61003e-05
1.61006e-05
1.61009e-05
1.61012e-05
1.61014e-05
1.61016e-05
1.61018e-05
1.6102e-05
1.61021e-05
1.61022e-05
1.61022e-05
1.61027e-05
1.61027e-05
1.61012e-05
1.61008e-05
1.61005e-05
1.61006e-05
1.61006e-05
1.61007e-05
1.61009e-05
1.61011e-05
1.61013e-05
1.61015e-05
1.61016e-05
1.61018e-05
1.61019e-05
1.61021e-05
1.61022e-05
1.61023e-05
1.61024e-05
1.61025e-05
1.61026e-05
1.61026e-05
1.61027e-05
1.61028e-05
1.61029e-05
1.61031e-05
1.61032e-05
1.61034e-05
1.61037e-05
1.61041e-05
1.61045e-05
1.61051e-05
1.61058e-05
1.61068e-05
1.61073e-05
1.61104e-05
1.61069e-05
1.61195e-05
1.61138e-05
1.60618e-05
1.62861e-05
1.61016e-05
1.61017e-05
1.61011e-05
1.61001e-05
1.60999e-05
1.60998e-05
1.60995e-05
1.60992e-05
1.60988e-05
1.60986e-05
1.60984e-05
1.60983e-05
1.60982e-05
1.60981e-05
1.60981e-05
1.60981e-05
1.60981e-05
1.60982e-05
1.60983e-05
1.60984e-05
1.60986e-05
1.60988e-05
1.6099e-05
1.60993e-05
1.60996e-05
1.60998e-05
1.61001e-05
1.61004e-05
1.61007e-05
1.61009e-05
1.61012e-05
1.61014e-05
1.61017e-05
1.61019e-05
1.6102e-05
1.61021e-05
1.61021e-05
1.61025e-05
1.61026e-05
1.6101e-05
1.61007e-05
1.61004e-05
1.61005e-05
1.61006e-05
1.61007e-05
1.61009e-05
1.61011e-05
1.61013e-05
1.61015e-05
1.61017e-05
1.61019e-05
1.6102e-05
1.61021e-05
1.61023e-05
1.61024e-05
1.61025e-05
1.61026e-05
1.61027e-05
1.61028e-05
1.61029e-05
1.6103e-05
1.61031e-05
1.61032e-05
1.61034e-05
1.61035e-05
1.61038e-05
1.61041e-05
1.61045e-05
1.6105e-05
1.61057e-05
1.61065e-05
1.61073e-05
1.61088e-05
1.61099e-05
1.61096e-05
1.61273e-05
1.6074e-05
1.61653e-05
1.61013e-05
1.61014e-05
1.6101e-05
1.61e-05
1.60998e-05
1.60996e-05
1.60994e-05
1.6099e-05
1.60987e-05
1.60984e-05
1.60982e-05
1.60981e-05
1.6098e-05
1.6098e-05
1.60979e-05
1.6098e-05
1.6098e-05
1.60981e-05
1.60981e-05
1.60983e-05
1.60984e-05
1.60986e-05
1.60988e-05
1.60991e-05
1.60993e-05
1.60996e-05
1.60998e-05
1.61001e-05
1.61004e-05
1.61007e-05
1.6101e-05
1.61012e-05
1.61015e-05
1.61017e-05
1.61019e-05
1.6102e-05
1.6102e-05
1.61024e-05
1.61024e-05
1.61009e-05
1.61006e-05
1.61004e-05
1.61005e-05
1.61006e-05
1.61007e-05
1.61009e-05
1.61011e-05
1.61014e-05
1.61016e-05
1.61017e-05
1.61019e-05
1.61021e-05
1.61022e-05
1.61024e-05
1.61025e-05
1.61026e-05
1.61027e-05
1.61028e-05
1.61029e-05
1.6103e-05
1.61032e-05
1.61033e-05
1.61034e-05
1.61035e-05
1.61037e-05
1.61039e-05
1.61042e-05
1.61046e-05
1.6105e-05
1.61056e-05
1.61063e-05
1.61072e-05
1.61081e-05
1.61102e-05
1.61083e-05
1.61216e-05
1.61005e-05
1.61179e-05
1.61011e-05
1.61012e-05
1.61008e-05
1.60999e-05
1.60996e-05
1.60995e-05
1.60992e-05
1.60988e-05
1.60985e-05
1.60982e-05
1.60981e-05
1.60979e-05
1.60979e-05
1.60978e-05
1.60978e-05
1.60978e-05
1.60978e-05
1.60979e-05
1.6098e-05
1.60981e-05
1.60982e-05
1.60984e-05
1.60986e-05
1.60988e-05
1.60991e-05
1.60993e-05
1.60996e-05
1.60999e-05
1.61002e-05
1.61004e-05
1.61007e-05
1.6101e-05
1.61013e-05
1.61015e-05
1.61017e-05
1.61019e-05
1.61019e-05
1.61022e-05
1.61023e-05
1.61007e-05
1.61004e-05
1.61003e-05
1.61004e-05
1.61005e-05
1.61007e-05
1.61009e-05
1.61012e-05
1.61014e-05
1.61016e-05
1.61018e-05
1.6102e-05
1.61022e-05
1.61023e-05
1.61025e-05
1.61026e-05
1.61027e-05
1.61029e-05
1.6103e-05
1.61031e-05
1.61032e-05
1.61033e-05
1.61034e-05
1.61036e-05
1.61037e-05
1.61038e-05
1.6104e-05
1.61043e-05
1.61046e-05
1.6105e-05
1.61056e-05
1.61062e-05
1.6107e-05
1.61078e-05
1.61096e-05
1.61092e-05
1.61152e-05
1.61133e-05
1.61109e-05
1.61009e-05
1.6101e-05
1.61006e-05
1.60998e-05
1.60995e-05
1.60993e-05
1.6099e-05
1.60986e-05
1.60983e-05
1.60981e-05
1.60979e-05
1.60978e-05
1.60977e-05
1.60976e-05
1.60976e-05
1.60976e-05
1.60977e-05
1.60977e-05
1.60978e-05
1.60979e-05
1.6098e-05
1.60982e-05
1.60984e-05
1.60986e-05
1.60988e-05
1.60991e-05
1.60993e-05
1.60996e-05
1.60999e-05
1.61002e-05
1.61005e-05
1.61008e-05
1.6101e-05
1.61013e-05
1.61015e-05
1.61018e-05
1.61018e-05
1.6102e-05
1.61022e-05
1.61005e-05
1.61003e-05
1.61002e-05
1.61004e-05
1.61005e-05
1.61007e-05
1.6101e-05
1.61012e-05
1.61014e-05
1.61017e-05
1.61019e-05
1.61021e-05
1.61022e-05
1.61024e-05
1.61026e-05
1.61027e-05
1.61029e-05
1.6103e-05
1.61031e-05
1.61032e-05
1.61034e-05
1.61035e-05
1.61036e-05
1.61037e-05
1.61039e-05
1.6104e-05
1.61042e-05
1.61044e-05
1.61047e-05
1.61051e-05
1.61056e-05
1.61061e-05
1.61069e-05
1.61077e-05
1.6109e-05
1.61098e-05
1.61121e-05
1.61154e-05
1.61144e-05
1.61007e-05
1.61008e-05
1.61004e-05
1.60996e-05
1.60993e-05
1.60991e-05
1.60987e-05
1.60984e-05
1.60981e-05
1.60979e-05
1.60977e-05
1.60976e-05
1.60975e-05
1.60975e-05
1.60975e-05
1.60975e-05
1.60975e-05
1.60976e-05
1.60976e-05
1.60977e-05
1.60978e-05
1.6098e-05
1.60982e-05
1.60984e-05
1.60986e-05
1.60988e-05
1.60991e-05
1.60993e-05
1.60996e-05
1.60999e-05
1.61002e-05
1.61005e-05
1.61008e-05
1.61011e-05
1.61013e-05
1.61016e-05
1.61017e-05
1.61018e-05
1.6102e-05
1.61004e-05
1.61002e-05
1.61001e-05
1.61003e-05
1.61005e-05
1.61007e-05
1.6101e-05
1.61012e-05
1.61015e-05
1.61017e-05
1.61019e-05
1.61021e-05
1.61023e-05
1.61025e-05
1.61027e-05
1.61028e-05
1.6103e-05
1.61031e-05
1.61033e-05
1.61034e-05
1.61035e-05
1.61036e-05
1.61038e-05
1.61039e-05
1.6104e-05
1.61042e-05
1.61044e-05
1.61046e-05
1.61049e-05
1.61052e-05
1.61056e-05
1.61061e-05
1.61068e-05
1.61076e-05
1.61086e-05
1.61098e-05
1.61113e-05
1.6114e-05
1.61168e-05
1.61005e-05
1.61006e-05
1.61003e-05
1.60995e-05
1.60991e-05
1.60989e-05
1.60985e-05
1.60982e-05
1.60979e-05
1.60977e-05
1.60975e-05
1.60974e-05
1.60973e-05
1.60973e-05
1.60973e-05
1.60973e-05
1.60973e-05
1.60974e-05
1.60974e-05
1.60975e-05
1.60976e-05
1.60978e-05
1.60979e-05
1.60981e-05
1.60984e-05
1.60986e-05
1.60988e-05
1.60991e-05
1.60993e-05
1.60996e-05
1.60999e-05
1.61002e-05
1.61005e-05
1.61008e-05
1.61011e-05
1.61014e-05
1.61016e-05
1.61016e-05
1.61019e-05
1.61003e-05
1.61001e-05
1.61001e-05
1.61003e-05
1.61005e-05
1.61007e-05
1.6101e-05
1.61012e-05
1.61015e-05
1.61017e-05
1.6102e-05
1.61022e-05
1.61024e-05
1.61026e-05
1.61028e-05
1.61029e-05
1.61031e-05
1.61032e-05
1.61034e-05
1.61035e-05
1.61037e-05
1.61038e-05
1.61039e-05
1.61041e-05
1.61042e-05
1.61044e-05
1.61045e-05
1.61047e-05
1.6105e-05
1.61053e-05
1.61057e-05
1.61062e-05
1.61068e-05
1.61075e-05
1.61084e-05
1.61096e-05
1.61111e-05
1.61125e-05
1.61169e-05
1.61004e-05
1.61004e-05
1.61001e-05
1.60993e-05
1.60989e-05
1.60987e-05
1.60983e-05
1.60979e-05
1.60977e-05
1.60974e-05
1.60973e-05
1.60972e-05
1.60971e-05
1.60971e-05
1.60971e-05
1.60971e-05
1.60971e-05
1.60972e-05
1.60972e-05
1.60973e-05
1.60974e-05
1.60975e-05
1.60977e-05
1.60979e-05
1.60981e-05
1.60983e-05
1.60985e-05
1.60988e-05
1.6099e-05
1.60993e-05
1.60996e-05
1.60999e-05
1.61002e-05
1.61005e-05
1.61008e-05
1.61011e-05
1.61014e-05
1.61014e-05
1.61017e-05
1.61001e-05
1.61e-05
1.61e-05
1.61002e-05
1.61004e-05
1.61007e-05
1.6101e-05
1.61013e-05
1.61015e-05
1.61018e-05
1.6102e-05
1.61023e-05
1.61025e-05
1.61027e-05
1.61029e-05
1.6103e-05
1.61032e-05
1.61034e-05
1.61035e-05
1.61037e-05
1.61038e-05
1.6104e-05
1.61041e-05
1.61043e-05
1.61044e-05
1.61046e-05
1.61047e-05
1.61049e-05
1.61052e-05
1.61055e-05
1.61058e-05
1.61063e-05
1.61068e-05
1.61075e-05
1.61084e-05
1.61094e-05
1.6111e-05
1.61118e-05
1.61161e-05
1.61002e-05
1.61003e-05
1.60999e-05
1.60991e-05
1.60987e-05
1.60984e-05
1.60981e-05
1.60977e-05
1.60974e-05
1.60972e-05
1.60971e-05
1.6097e-05
1.60969e-05
1.60969e-05
1.60969e-05
1.60969e-05
1.60969e-05
1.6097e-05
1.6097e-05
1.60971e-05
1.60972e-05
1.60973e-05
1.60975e-05
1.60976e-05
1.60978e-05
1.6098e-05
1.60982e-05
1.60985e-05
1.60987e-05
1.6099e-05
1.60993e-05
1.60996e-05
1.60999e-05
1.61002e-05
1.61006e-05
1.61008e-05
1.61011e-05
1.61013e-05
1.61016e-05
1.61e-05
1.60999e-05
1.60999e-05
1.61002e-05
1.61004e-05
1.61007e-05
1.6101e-05
1.61013e-05
1.61016e-05
1.61018e-05
1.61021e-05
1.61023e-05
1.61025e-05
1.61027e-05
1.61029e-05
1.61031e-05
1.61033e-05
1.61035e-05
1.61037e-05
1.61038e-05
1.6104e-05
1.61041e-05
1.61043e-05
1.61044e-05
1.61046e-05
1.61048e-05
1.61049e-05
1.61051e-05
1.61053e-05
1.61056e-05
1.61059e-05
1.61064e-05
1.61069e-05
1.61075e-05
1.61083e-05
1.61092e-05
1.61108e-05
1.61114e-05
1.61153e-05
1.61e-05
1.61001e-05
1.60997e-05
1.6099e-05
1.60985e-05
1.60982e-05
1.60978e-05
1.60975e-05
1.60972e-05
1.6097e-05
1.60968e-05
1.60967e-05
1.60967e-05
1.60967e-05
1.60967e-05
1.60967e-05
1.60967e-05
1.60967e-05
1.60968e-05
1.60969e-05
1.60969e-05
1.60971e-05
1.60972e-05
1.60974e-05
1.60975e-05
1.60977e-05