/*--------------------------------*- C++ -*----------------------------------*\
| =========                 |                                                 |
| \\      /  F ield         | OpenFOAM: The Open Source CFD Toolbox           |
|  \\    /   O peration     | Version:  2206                                  |
|   \\  /    A nd           | Website:  www.openfoam.com                      |
|    \\/     M anipulation  |                                                 |
\*---------------------------------------------------------------------------*/
FoamFile
{
    version     2.0;
    format      ascii;
    arch        "LSB;label=32;scalar=64";
    class       volScalarField;
    location    "0.1";
    object      k;
}
// * * * * * * * * * * * * * * * * * * * * * * * * * * * * * * * * * * * * * //

dimensions      [0 2 -2 0 0 0 0];

internalField   nonuniform List<scalar> 
66701
(
1.32043e-05
1.15014e-05
1.95934e-05
2.30839e-05
1.53284e-05
2.70236e-05
2.62661e-05
1.75451e-05
1.14996e-05
1.95862e-05
2.3076e-05
1.53173e-05
2.7025e-05
1.75467e-05
2.62612e-05
1.31982e-05
4.17853e-06
1.04594e-06
2.14022e-07
1.5154e-07
1.01292e-06
3.94964e-06
9.92847e-07
2.05111e-07
1.51204e-07
1.01681e-06
4.11336e-06
1.01852e-06
2.0627e-07
1.41856e-07
9.42157e-07
4.11162e-06
1.01809e-06
2.06193e-07
1.41826e-07
9.42076e-07
4.17713e-06
1.04569e-06
2.14003e-07
1.5157e-07
1.01311e-06
3.9491e-06
9.92665e-07
2.05076e-07
1.51169e-07
1.01667e-06
3.98191e-06
9.97231e-07
2.04418e-07
1.46629e-07
9.81201e-07
4.25715e-06
1.06434e-06
2.16264e-07
1.48094e-07
9.8386e-07
3.97957e-06
9.96669e-07
2.04327e-07
1.46623e-07
9.81217e-07
4.25745e-06
1.06439e-06
2.1627e-07
1.48092e-07
9.83841e-07
1.32536e-05
1.3201e-05
3.05865e-05
2.33034e-05
2.32138e-05
1.96911e-05
3.085e-05
2.74614e-05
2.70348e-05
1.9596e-05
2.94743e-05
3.08396e-05
2.74165e-05
3.09512e-05
2.70362e-05
1.95849e-05
2.94739e-05
3.08392e-05
3.09515e-05
2.74101e-05
1.31973e-05
3.05875e-05
2.32138e-05
1.31943e-05
1.79736e-05
1.20975e-05
1.20555e-05
1.7991e-05
1.20896e-05
1.20474e-05
2.58876e-05
1.94055e-05
2.82153e-05
2.33159e-05
2.58999e-05
1.9397e-05
2.82142e-05
2.5834e-05
1.92447e-05
2.81672e-05
2.32007e-05
2.58537e-05
1.92347e-05
2.81539e-05
1.53251e-05
2.62774e-05
1.75517e-05
2.70164e-05
1.53431e-05
2.62575e-05
1.75407e-05
1.15005e-05
2.30908e-05
1.95858e-05
1.15128e-05
2.30768e-05
1.53134e-05
1.75558e-05
2.62723e-05
2.70178e-05
1.53331e-05
1.75435e-05
2.62525e-05
1.14982e-05
2.30795e-05
1.95763e-05
1.15081e-05
2.30666e-05
1.31895e-05
1.79689e-05
1.2054e-05
1.21142e-05
2.58173e-05
2.81712e-05
2.32008e-05
2.81582e-05
1.92337e-05
2.59104e-05
2.3432e-05
1.94536e-05
2.82273e-05
1.33412e-05
3.09938e-05
3.10093e-05
3.10086e-05
3.10141e-05
3.09938e-05
3.10092e-05
3.10084e-05
3.10134e-05
3.10085e-05
3.10134e-05
3.10094e-05
3.10142e-05
2.84764e-05
3.0582e-05
2.982e-05
2.97926e-05
2.84877e-05
2.9812e-05
2.97833e-05
3.01254e-05
2.84719e-05
2.9452e-05
2.74939e-05
2.94705e-05
3.01002e-05
2.85096e-05
3.03811e-05
2.91667e-05
3.05206e-05
2.94627e-05
3.03876e-05
2.91546e-05
3.05141e-05
3.00739e-05
2.84277e-05
2.94152e-05
2.74011e-05
2.9404e-05
3.00813e-05
2.84137e-05
3.038e-05
3.05203e-05
2.91644e-05
2.94624e-05
3.03868e-05
3.05138e-05
2.91522e-05
3.00715e-05
2.84228e-05
2.94136e-05
2.73947e-05
3.00791e-05
2.8409e-05
2.94024e-05
2.84787e-05
3.05823e-05
2.98023e-05
2.97936e-05
2.98093e-05
4.18331e-06
1.04733e-06
2.14277e-07
1.51572e-07
1.013e-06
4.17665e-06
1.04546e-06
2.13934e-07
1.51519e-07
1.01282e-06
4.12075e-06
1.02064e-06
2.06629e-07
1.41842e-07
9.41839e-07
4.1121e-06
1.01809e-06
2.06188e-07
1.4184e-07
9.42096e-07
4.10997e-06
1.0176e-06
2.06104e-07
1.41816e-07
9.42066e-07
4.17616e-06
1.04544e-06
2.13959e-07
1.51559e-07
1.01307e-06
4.17846e-06
1.04615e-06
2.14101e-07
1.51727e-07
1.01437e-06
3.98333e-06
9.97735e-07
2.04532e-07
1.46775e-07
9.8229e-07
4.25569e-06
1.06375e-06
2.16148e-07
1.48063e-07
9.83708e-07
3.98266e-06
9.97086e-07
2.04374e-07
1.46607e-07
9.81064e-07
4.25827e-06
1.0647e-06
2.1635e-07
1.48226e-07
9.84868e-07
4.11599e-06
1.01928e-06
2.06448e-07
1.42106e-07
9.44043e-07
3.98107e-06
9.97206e-07
2.04448e-07
1.4677e-07
9.82316e-07
4.25669e-06
1.06398e-06
2.16186e-07
1.48065e-07
9.83695e-07
3.9809e-06
9.96689e-07
2.04314e-07
1.46605e-07
9.81093e-07
4.2588e-06
1.06481e-06
2.16366e-07
1.48226e-07
9.84851e-07
4.11394e-06
1.01878e-06
2.06361e-07
1.42078e-07
9.43988e-07
4.17757e-06
1.04604e-06
2.14108e-07
1.51762e-07
1.01459e-06
4.20643e-06
1.04313e-06
2.10854e-07
1.43184e-07
9.48981e-07
4.18893e-06
1.04837e-06
2.1447e-07
1.51718e-07
1.0139e-06
4.07372e-06
1.02491e-06
2.107e-07
1.51737e-07
1.01661e-06
4.20309e-06
1.04267e-06
2.10778e-07
1.43087e-07
9.48384e-07
4.19887e-06
1.04175e-06
2.10657e-07
1.43231e-07
9.49646e-07
4.06413e-06
1.02264e-06
2.10298e-07
1.51651e-07
1.01636e-06
4.19067e-06
1.03937e-06
2.10183e-07
1.42999e-07
9.48209e-07
4.19234e-06
1.03998e-06
2.1033e-07
1.43169e-07
9.49466e-07
4.07245e-06
1.02474e-06
2.10707e-07
1.51889e-07
1.01784e-06
4.06443e-06
1.02289e-06
2.10382e-07
1.51824e-07
1.01769e-06
3.9521e-06
9.93669e-07
2.05304e-07
1.51451e-07
1.01866e-06
3.9515e-06
9.93138e-07
2.0515e-07
1.51199e-07
1.01674e-06
3.95125e-06
9.93418e-07
2.05258e-07
1.51416e-07
1.01854e-06
3.95022e-06
9.92823e-07
2.05095e-07
1.51165e-07
1.01663e-06
4.19339e-06
1.04031e-06
2.10401e-07
1.43216e-07
9.49684e-07
4.06659e-06
1.02341e-06
2.1047e-07
1.5186e-07
1.0178e-06
4.07942e-06
1.02631e-06
2.10963e-07
1.51922e-07
1.01784e-06
3.08579e-05
3.05804e-05
3.09907e-05
3.08408e-05
3.085e-05
3.05869e-05
3.09947e-05
3.08437e-05
3.08561e-05
3.05866e-05
3.0996e-05
3.08436e-05
3.08578e-05
3.05885e-05
3.09961e-05
3.08434e-05
3.08581e-05
3.05892e-05
3.09961e-05
3.08434e-05
3.08581e-05
3.0589e-05
3.09961e-05
3.08433e-05
3.08581e-05
3.05891e-05
3.09961e-05
3.08434e-05
3.08581e-05
3.0589e-05
3.09961e-05
3.08433e-05
3.08581e-05
3.0589e-05
3.09961e-05
3.08434e-05
3.08581e-05
3.0589e-05
3.09961e-05
3.08433e-05
3.08581e-05
3.05891e-05
3.09961e-05
3.08434e-05
3.08581e-05
3.0589e-05
3.09961e-05
3.08433e-05
3.08581e-05
3.0589e-05
3.09961e-05
3.08434e-05
3.08581e-05
3.0589e-05
3.09961e-05
3.08433e-05
3.08581e-05
3.05891e-05
3.09961e-05
3.08434e-05
3.08581e-05
3.05889e-05
3.09949e-05
3.08518e-05
3.08633e-05
3.06074e-05
3.05947e-05
3.05826e-05
3.08498e-05
3.08487e-05
3.08515e-05
3.05839e-05
3.05857e-05
3.0584e-05
3.08493e-05
3.08544e-05
3.08543e-05
3.08578e-05
3.05895e-05
3.059e-05
3.08322e-05
3.08324e-05
3.08384e-05
3.08382e-05
3.08423e-05
3.08437e-05
3.08432e-05
3.05845e-05
3.05829e-05
3.08539e-05
3.08552e-05
3.08575e-05
3.05846e-05
3.05857e-05
3.05858e-05
3.08552e-05
3.08581e-05
3.08566e-05
3.08578e-05
3.05911e-05
3.05872e-05
3.08397e-05
3.08395e-05
3.0843e-05
3.08426e-05
3.08431e-05
3.08436e-05
3.08434e-05
3.05846e-05
3.05847e-05
3.08579e-05
3.08574e-05
3.08589e-05
3.05862e-05
3.05882e-05
3.05877e-05
3.08569e-05
3.08578e-05
3.08572e-05
3.08576e-05
3.05888e-05
3.05862e-05
3.08437e-05
3.08433e-05
3.08443e-05
3.08439e-05
3.08434e-05
3.08434e-05
3.08435e-05
3.05871e-05
3.05865e-05
3.08589e-05
3.08581e-05
3.0859e-05
3.0587e-05
3.05894e-05
3.05875e-05
3.08571e-05
3.08576e-05
3.08571e-05
3.08576e-05
3.05879e-05
3.05868e-05
3.08443e-05
3.08439e-05
3.08443e-05
3.0844e-05
3.08434e-05
3.08434e-05
3.08434e-05
3.05884e-05
3.05866e-05
3.0859e-05
3.08581e-05
3.0859e-05
3.05869e-05
3.05893e-05
3.05874e-05
3.08571e-05
3.08576e-05
3.08571e-05
3.08575e-05
3.05885e-05
3.0586e-05
3.08442e-05
3.08439e-05
3.08443e-05
3.0844e-05
3.08434e-05
3.08433e-05
3.08434e-05
3.05884e-05
3.05866e-05
3.0859e-05
3.08581e-05
3.0859e-05
3.05869e-05
3.05893e-05
3.05875e-05
3.08571e-05
3.08575e-05
3.08571e-05
3.08576e-05
3.05878e-05
3.05868e-05
3.08442e-05
3.08439e-05
3.08443e-05
3.0844e-05
3.08434e-05
3.08434e-05
3.08434e-05
3.05884e-05
3.05866e-05
3.0859e-05
3.08581e-05
3.08591e-05
3.05869e-05
3.05893e-05
3.05874e-05
3.08571e-05
3.08576e-05
3.08571e-05
3.08575e-05
3.05885e-05
3.0586e-05
3.08442e-05
3.08439e-05
3.08443e-05
3.0844e-05
3.08434e-05
3.08433e-05
3.08434e-05
3.05884e-05
3.05866e-05
3.0859e-05
3.08581e-05
3.0859e-05
3.05869e-05
3.05893e-05
3.05875e-05
3.08571e-05
3.08575e-05
3.08572e-05
3.08576e-05
3.05878e-05
3.05868e-05
3.08442e-05
3.08439e-05
3.08443e-05
3.0844e-05
3.08434e-05
3.08434e-05
3.08434e-05
3.05884e-05
3.05866e-05
3.0859e-05
3.08581e-05
3.0859e-05
3.05869e-05
3.05893e-05
3.05875e-05
3.08571e-05
3.08576e-05
3.08571e-05
3.08575e-05
3.05885e-05
3.0586e-05
3.08442e-05
3.08439e-05
3.08443e-05
3.0844e-05
3.08434e-05
3.08433e-05
3.08434e-05
3.05884e-05
3.05866e-05
3.0859e-05
3.08581e-05
3.0859e-05
3.05869e-05
3.05893e-05
3.05874e-05
3.08571e-05
3.08575e-05
3.08571e-05
3.08576e-05
3.05878e-05
3.05868e-05
3.08442e-05
3.08439e-05
3.08443e-05
3.0844e-05
3.08434e-05
3.08434e-05
3.08434e-05
3.05884e-05
3.05866e-05
3.0859e-05
3.08581e-05
3.0859e-05
3.05869e-05
3.05893e-05
3.05874e-05
3.08571e-05
3.08576e-05
3.08571e-05
3.08575e-05
3.05885e-05
3.05861e-05
3.08442e-05
3.08439e-05
3.08443e-05
3.0844e-05
3.08434e-05
3.08433e-05
3.08434e-05
3.05884e-05
3.05866e-05
3.0859e-05
3.08581e-05
3.0859e-05
3.05869e-05
3.05893e-05
3.05875e-05
3.08571e-05
3.08576e-05
3.08571e-05
3.08576e-05
3.05879e-05
3.05868e-05
3.08442e-05
3.08439e-05
3.08443e-05
3.08439e-05
3.08434e-05
3.08434e-05
3.08434e-05
3.05884e-05
3.05866e-05
3.0859e-05
3.08581e-05
3.0859e-05
3.05869e-05
3.05893e-05
3.05874e-05
3.08571e-05
3.08576e-05
3.08571e-05
3.08575e-05
3.05885e-05
3.0586e-05
3.08442e-05
3.08439e-05
3.08443e-05
3.0844e-05
3.08434e-05
3.08433e-05
3.08434e-05
3.05884e-05
3.05866e-05
3.0859e-05
3.08581e-05
3.0859e-05
3.05869e-05
3.05893e-05
3.05875e-05
3.08571e-05
3.08575e-05
3.08571e-05
3.08576e-05
3.05878e-05
3.05869e-05
3.08442e-05
3.08439e-05
3.08443e-05
3.08439e-05
3.08434e-05
3.08434e-05
3.08434e-05
3.05884e-05
3.05866e-05
3.0859e-05
3.08581e-05
3.0859e-05
3.0587e-05
3.05891e-05
3.0586e-05
3.08571e-05
3.08576e-05
3.08397e-05
3.08397e-05
3.05884e-05
3.05846e-05
3.08443e-05
3.08439e-05
3.08467e-05
3.08472e-05
3.08434e-05
3.08456e-05
3.08465e-05
3.05883e-05
3.05897e-05
3.0859e-05
3.08601e-05
3.08607e-05
3.05902e-05
3.08392e-05
3.05854e-05
3.0852e-05
3.08526e-05
3.08523e-05
3.06068e-05
3.08644e-05
1.33126e-05
1.34095e-05
2.95787e-05
3.09568e-05
2.76312e-05
3.08597e-05
2.76835e-05
2.95686e-05
3.09571e-05
2.33354e-05
2.3468e-05
3.05811e-05
2.34902e-05
2.33354e-05
2.73442e-05
2.00079e-05
1.99804e-05
2.73486e-05
1.34092e-05
1.33825e-05
2.70607e-05
1.98076e-05
1.97248e-05
2.71153e-05
3.09908e-05
3.09891e-05
3.09923e-05
3.09937e-05
3.09944e-05
3.09932e-05
3.09948e-05
2.94868e-05
2.74945e-05
3.09499e-05
3.08424e-05
2.74573e-05
3.09513e-05
2.94973e-05
1.3328e-05
1.32718e-05
2.96052e-05
3.09593e-05
2.76646e-05
3.08522e-05
2.96022e-05
3.09601e-05
2.76409e-05
2.33181e-05
2.35016e-05
3.05859e-05
2.32624e-05
2.34809e-05
2.73076e-05
1.98935e-05
2.73225e-05
1.98669e-05
1.33434e-05
1.33355e-05
2.69999e-05
1.96017e-05
2.70291e-05
1.95654e-05
3.09952e-05
3.09944e-05
3.09954e-05
3.09959e-05
3.09961e-05
3.09959e-05
3.09961e-05
2.94625e-05
2.74269e-05
3.09543e-05
3.08437e-05
2.94786e-05
2.74049e-05
3.09545e-05
1.31963e-05
1.31764e-05
2.96019e-05
3.09644e-05
2.76058e-05
3.08566e-05
2.9606e-05
3.09649e-05
2.75901e-05
2.3217e-05
2.34623e-05
3.05849e-05
2.31983e-05
2.34503e-05
2.73036e-05
1.98583e-05
2.7308e-05
1.98552e-05
1.33352e-05
1.33355e-05
2.70226e-05
1.95613e-05
2.70279e-05
1.95601e-05
3.0996e-05
3.0996e-05
3.09961e-05
3.09961e-05
3.0996e-05
3.09961e-05
3.09961e-05
2.94662e-05
2.74163e-05
3.09548e-05
3.08435e-05
2.94734e-05
2.74059e-05
3.09547e-05
1.31738e-05
1.31718e-05
2.96032e-05
3.09655e-05
2.75944e-05
3.08579e-05
2.96062e-05
3.09655e-05
2.75904e-05
2.32172e-05
2.3453e-05
3.0587e-05
2.32132e-05
2.34442e-05
2.7305e-05
1.98571e-05
2.73112e-05
1.98541e-05
1.33368e-05
1.33352e-05
2.70202e-05
1.95662e-05
2.70389e-05
1.956e-05
3.0996e-05
3.0996e-05
3.09961e-05
3.09961e-05
3.0996e-05
3.09961e-05
3.09961e-05
2.94649e-05
2.74155e-05
3.09548e-05
3.08434e-05
2.94746e-05
2.73994e-05
3.09547e-05
1.31818e-05
1.31768e-05
2.96038e-05
3.09655e-05
2.75991e-05
3.08581e-05
2.96071e-05
3.09655e-05
2.75932e-05
2.32225e-05
2.34527e-05
3.05871e-05
2.3209e-05
2.34465e-05
2.73045e-05
1.98559e-05
2.73104e-05
1.98551e-05
1.33341e-05
1.33342e-05
2.70212e-05
1.95653e-05
2.70374e-05
1.9561e-05
3.0996e-05
3.0996e-05
3.09961e-05
3.0996e-05
3.0996e-05
3.09961e-05
3.09961e-05
2.94649e-05
2.74141e-05
3.09547e-05
3.08434e-05
2.94735e-05
2.74017e-05
3.09547e-05
1.31821e-05
1.31769e-05
2.96037e-05
3.09655e-05
2.75999e-05
3.08581e-05
2.96075e-05
3.09655e-05
2.75936e-05
2.3221e-05
2.34521e-05
3.0587e-05
2.32083e-05
2.34461e-05
2.73073e-05
1.98581e-05
2.73131e-05
1.98547e-05
1.3336e-05
1.33353e-05
2.70211e-05
1.9565e-05
2.70373e-05
1.95606e-05
3.0996e-05
3.0996e-05
3.09961e-05
3.09961e-05
3.0996e-05
3.09961e-05
3.09961e-05
2.94648e-05
2.74139e-05
3.09547e-05
3.08434e-05
2.94737e-05
2.74009e-05
3.09547e-05
1.31811e-05
1.31772e-05
2.96038e-05
3.09655e-05
2.75999e-05
3.08581e-05
2.96068e-05
3.09655e-05
2.75935e-05
2.3221e-05
2.34524e-05
3.0587e-05
2.32089e-05
2.34468e-05
2.73055e-05
1.98554e-05
2.73121e-05
1.98549e-05
1.33337e-05
1.33345e-05
2.7021e-05
1.95651e-05
2.70373e-05
1.9561e-05
3.0996e-05
3.0996e-05
3.09961e-05
3.09961e-05
3.0996e-05
3.09961e-05
3.09961e-05
2.94646e-05
2.74137e-05
3.09547e-05
3.08434e-05
2.94736e-05
2.74018e-05
3.09547e-05
1.31808e-05
1.31769e-05
2.96038e-05
3.09655e-05
2.76e-05
3.08581e-05
2.96076e-05
3.09655e-05
2.75931e-05
2.32228e-05
2.34516e-05
3.0587e-05
2.32097e-05
2.3446e-05
2.73064e-05
1.98573e-05
2.73119e-05
1.98573e-05
1.33366e-05
1.33355e-05
2.7021e-05
1.9565e-05
2.70372e-05
1.95606e-05
3.0996e-05
3.0996e-05
3.09961e-05
3.0996e-05
3.0996e-05
3.09961e-05
3.09961e-05
2.94648e-05
2.74138e-05
3.09547e-05
3.08434e-05
2.94737e-05
2.74005e-05
3.09547e-05
1.31811e-05
1.3177e-05
2.96037e-05
3.09655e-05
2.75998e-05
3.08581e-05
2.96068e-05
3.09655e-05
2.75937e-05
2.32209e-05
2.34521e-05
3.0587e-05
2.32086e-05
2.34467e-05
2.73058e-05
1.98581e-05
2.73124e-05
1.98538e-05
1.33336e-05
1.33344e-05
2.70211e-05
1.95652e-05
2.70374e-05
1.9561e-05
3.0996e-05
3.0996e-05
3.09961e-05
3.09961e-05
3.0996e-05
3.09961e-05
3.09961e-05
2.94646e-05
2.74138e-05
3.09547e-05
3.08434e-05
2.94736e-05
2.74022e-05
3.09547e-05
1.31809e-05
1.3177e-05
2.96038e-05
3.09655e-05
2.76001e-05
3.08581e-05
2.96075e-05
3.09655e-05
2.75932e-05
2.32228e-05
2.34517e-05
3.0587e-05
2.321e-05
2.3446e-05
2.73039e-05
1.9856e-05
2.73101e-05
1.9853e-05
1.33357e-05
1.3335e-05
2.7021e-05
1.95649e-05
2.70373e-05
1.95606e-05
3.0996e-05
3.0996e-05
3.09961e-05
3.0996e-05
3.0996e-05
3.09961e-05
3.09961e-05
2.94648e-05
2.74143e-05
3.09547e-05
3.08434e-05
2.94737e-05
2.74009e-05
3.09547e-05
1.31827e-05
1.31768e-05
2.96035e-05
3.09655e-05
2.75993e-05
3.08581e-05
2.9607e-05
3.09655e-05
2.75927e-05
2.32216e-05
2.34518e-05
3.0587e-05
2.32084e-05
2.34464e-05
2.73038e-05
1.98546e-05
2.73096e-05
1.98539e-05
1.33342e-05
1.3336e-05
2.70212e-05
1.95652e-05
2.70374e-05
1.95611e-05
3.0996e-05
3.0996e-05
3.09961e-05
3.0996e-05
3.0996e-05
3.09961e-05
3.09961e-05
2.94646e-05
2.74138e-05
3.09547e-05
3.08434e-05
2.94736e-05
2.74022e-05
3.09547e-05
1.31805e-05
1.3177e-05
2.96039e-05
3.09655e-05
2.75998e-05
3.08581e-05
2.96073e-05
3.09655e-05
2.75933e-05
2.32208e-05
2.34515e-05
3.0587e-05
2.32081e-05
2.34461e-05
2.73042e-05
1.98548e-05
2.73102e-05
1.98541e-05
1.33368e-05
1.33357e-05
2.7021e-05
1.9565e-05
2.70373e-05
1.95606e-05
3.0996e-05
3.0996e-05
3.09961e-05
3.09961e-05
3.0996e-05
3.09961e-05
3.09961e-05
2.94648e-05
2.74144e-05
3.09547e-05
3.08434e-05
2.94738e-05
2.74009e-05
3.09547e-05
1.31808e-05
1.31764e-05
2.96039e-05
3.09655e-05
2.76e-05
3.08581e-05
2.96074e-05
3.09655e-05
2.75936e-05
2.32212e-05
2.34512e-05
3.0587e-05
2.32088e-05
2.34446e-05
2.73059e-05
1.98542e-05
2.7312e-05
1.98538e-05
1.33341e-05
1.33357e-05
2.70211e-05
1.95643e-05
2.70373e-05
1.95597e-05
3.0996e-05
3.0996e-05
3.09961e-05
3.0996e-05
3.0996e-05
3.09961e-05
3.09961e-05
2.94645e-05
2.74137e-05
3.09547e-05
3.08434e-05
2.94735e-05
2.7402e-05
3.09547e-05
1.31803e-05
1.31766e-05
2.96039e-05
3.09655e-05
2.76003e-05
3.08581e-05
2.96074e-05
3.09655e-05
2.75935e-05
2.32222e-05
2.3452e-05
3.0587e-05
2.32096e-05
2.34472e-05
2.73058e-05
1.98589e-05
2.73123e-05
1.98563e-05
1.33371e-05
1.33359e-05
2.70209e-05
1.95673e-05
2.70373e-05
1.95623e-05
3.0996e-05
3.0996e-05
3.09961e-05
3.09961e-05
3.0996e-05
3.09961e-05
3.09961e-05
2.94648e-05
2.74139e-05
3.09547e-05
3.08434e-05
2.94737e-05
2.74006e-05
3.09547e-05
1.3181e-05
1.31764e-05
2.96042e-05
3.09655e-05
2.75996e-05
3.08581e-05
2.96076e-05
3.09655e-05
2.75931e-05
2.32211e-05
2.34536e-05
3.05871e-05
2.32084e-05
2.34481e-05
2.72734e-05
1.98547e-05
2.7307e-05
1.98747e-05
1.33326e-05
1.33513e-05
2.70216e-05
1.95652e-05
2.70379e-05
1.95612e-05
3.0996e-05
3.0996e-05
3.09961e-05
3.09947e-05
3.09948e-05
3.09969e-05
3.09969e-05
2.94645e-05
2.74138e-05
3.09547e-05
3.08434e-05
2.94735e-05
2.74021e-05
3.09547e-05
1.31822e-05
1.31771e-05
2.96041e-05
3.09655e-05
2.75998e-05
3.08581e-05
2.96076e-05
3.09655e-05
2.75929e-05
2.32224e-05
2.34513e-05
3.05874e-05
2.321e-05
2.3446e-05
1.32854e-05
1.96322e-05
2.70988e-05
3.09949e-05
3.0998e-05
3.09981e-05
2.74727e-05
3.09598e-05
2.95197e-05
1.32331e-05
3.09664e-05
2.76374e-05
2.96079e-05
2.32747e-05
2.34911e-05
2.33556e-05
2.34952e-05
3.06178e-05
2.35951e-05
2.34789e-05
1.34059e-05
1.34585e-05
1.33256e-05
1.33719e-05
3.06068e-05
2.33641e-05
2.35663e-05
2.36054e-05
2.34541e-05
1.34367e-05
1.34543e-05
2.95785e-05
3.09561e-05
2.76031e-05
3.08501e-05
2.76171e-05
2.95682e-05
3.09564e-05
2.72926e-05
1.9921e-05
2.00028e-05
2.72706e-05
2.7292e-05
1.98601e-05
1.98957e-05
2.72697e-05
2.95854e-05
3.08567e-05
3.09582e-05
2.76609e-05
2.76994e-05
2.95963e-05
3.09582e-05
2.95852e-05
3.08503e-05
3.09582e-05
2.76319e-05
2.76319e-05
2.95959e-05
3.09572e-05
2.73066e-05
2.00138e-05
2.00289e-05
2.73179e-05
2.73066e-05
1.99168e-05
1.99123e-05
2.73168e-05
1.32788e-05
1.32768e-05
1.33719e-05
1.33844e-05
3.05834e-05
2.33144e-05
2.34967e-05
2.35071e-05
2.33429e-05
1.32528e-05
1.32831e-05
1.33832e-05
1.33902e-05
1.34207e-05
1.33981e-05
1.3329e-05
1.32782e-05
2.35421e-05
2.33642e-05
3.05841e-05
2.35162e-05
2.33139e-05
1.33487e-05
1.33935e-05
1.32083e-05
1.32727e-05
3.0586e-05
2.34599e-05
2.32454e-05
2.35176e-05
2.33161e-05
2.73468e-05
1.9954e-05
1.99268e-05
2.73497e-05
2.96122e-05
2.76451e-05
3.09589e-05
3.08512e-05
2.76388e-05
3.09602e-05
2.96087e-05
2.96129e-05
2.76453e-05
3.09603e-05
3.0856e-05
2.7639e-05
3.09617e-05
2.9609e-05
2.73477e-05
1.99042e-05
1.99703e-05
2.73221e-05
2.7351e-05
1.98714e-05
1.99181e-05
2.73225e-05
2.96159e-05
3.0853e-05
2.76108e-05
3.09631e-05
2.76425e-05
3.09617e-05
2.96095e-05
2.96168e-05
3.08572e-05
2.76127e-05
3.09641e-05
2.76433e-05
3.09631e-05
2.96101e-05
2.35249e-05
2.33418e-05
3.05907e-05
2.35003e-05
2.32894e-05
1.32594e-05
1.32145e-05
1.3349e-05
1.3378e-05
3.05926e-05
2.34581e-05
2.32374e-05
2.3503e-05
2.3293e-05
1.31836e-05
1.32153e-05
2.94685e-05
2.74846e-05
3.09447e-05
3.08344e-05
2.74508e-05
3.09465e-05
2.94881e-05
2.70629e-05
1.98073e-05
1.97234e-05
2.71183e-05
2.94692e-05
3.09434e-05
2.74831e-05
3.08343e-05
3.09454e-05
2.74468e-05
2.94885e-05
2.7067e-05
1.96058e-05
1.97139e-05
2.70206e-05
2.94743e-05
3.08366e-05
2.74161e-05
3.09503e-05
2.74571e-05
3.09485e-05
2.94553e-05
2.70693e-05
1.95967e-05
1.97107e-05
2.70241e-05
2.9475e-05
3.08365e-05
3.09496e-05
2.74081e-05
3.09476e-05
2.74526e-05
2.9456e-05
2.70732e-05
1.96863e-05
1.9618e-05
2.71203e-05
2.94869e-05
3.09508e-05
2.7486e-05
3.08431e-05
3.09519e-05
2.74486e-05
2.94979e-05
2.70737e-05
1.96886e-05
1.9619e-05
2.71205e-05
2.94932e-05
3.08434e-05
2.74215e-05
3.09537e-05
2.74632e-05
3.09528e-05
2.94727e-05
2.70798e-05
1.95691e-05
1.9618e-05
2.70386e-05
2.94933e-05
3.08433e-05
3.09536e-05
2.74168e-05
3.09529e-05
2.74546e-05
2.94728e-05
2.70804e-05
1.95775e-05
1.96197e-05
2.70392e-05
2.33697e-05
2.35709e-05
3.05834e-05
2.33054e-05
2.35273e-05
1.34383e-05
1.34003e-05
1.31971e-05
1.32655e-05
3.05852e-05
2.32289e-05
2.34669e-05
2.33057e-05
2.35265e-05
1.33493e-05
1.33931e-05
2.96049e-05
3.09594e-05
2.76396e-05
3.08556e-05
2.96021e-05
3.09604e-05
2.76255e-05
2.73219e-05
2.00163e-05
2.73267e-05
1.99652e-05
2.73187e-05
1.99204e-05
2.73253e-05
1.98884e-05
2.96087e-05
3.0854e-05
3.09632e-05
2.76056e-05
3.09616e-05
2.76429e-05
2.9604e-05
2.96083e-05
3.08567e-05
3.09636e-05
2.76085e-05
3.09621e-05
2.76288e-05
2.96035e-05
2.73254e-05
1.98813e-05
1.99527e-05
2.73054e-05
2.73213e-05
1.98626e-05
1.98857e-05
2.73033e-05
1.3253e-05
1.32035e-05
1.33847e-05
1.33611e-05
3.05873e-05
2.32118e-05
2.34595e-05
2.32659e-05
2.34855e-05
1.31764e-05
1.32046e-05
1.33478e-05
1.33612e-05
1.33472e-05
1.33286e-05
1.32093e-05
1.31847e-05
2.34614e-05
2.32498e-05
3.05841e-05
2.34266e-05
2.32115e-05
1.33233e-05
1.33306e-05
1.31782e-05
1.31895e-05
3.05859e-05
2.34153e-05
2.32011e-05
2.34319e-05
2.32201e-05
2.73037e-05
1.98694e-05
2.73245e-05
1.98527e-05
2.96041e-05
2.76133e-05
3.0964e-05
3.08557e-05
2.96103e-05
2.75928e-05
3.09645e-05
2.96037e-05
2.76154e-05
3.09647e-05
3.08578e-05
2.96108e-05
2.75969e-05
3.0965e-05
2.7312e-05
1.9856e-05
1.9868e-05
2.73025e-05
2.73076e-05
1.9851e-05
1.9856e-05
2.72978e-05
2.96066e-05
3.08562e-05
2.75862e-05
3.0965e-05
2.75975e-05
3.09649e-05
2.96026e-05
2.96061e-05
3.08578e-05
2.75915e-05
3.09652e-05
2.76023e-05
3.09651e-05
2.96017e-05
2.34607e-05
2.32439e-05
3.05883e-05
2.34266e-05
2.32131e-05
1.31874e-05
1.31745e-05
1.33327e-05
1.33381e-05
3.05894e-05
2.34265e-05
2.32067e-05
2.34343e-05
2.32232e-05
1.31701e-05
1.31803e-05
2.94472e-05
2.74234e-05
3.09515e-05
3.08409e-05
2.94615e-05
2.73984e-05
3.09524e-05
2.70045e-05
1.95956e-05
2.70329e-05
1.95496e-05
2.94479e-05
3.0951e-05
2.74151e-05
3.08406e-05
2.94622e-05
3.09519e-05
2.73886e-05
2.70122e-05
1.95529e-05
1.95717e-05
2.70079e-05
2.94564e-05
3.08419e-05
2.74009e-05
3.09539e-05
2.74094e-05
3.09532e-05
2.9455e-05
2.70167e-05
1.95372e-05
1.95556e-05
2.70089e-05
2.9457e-05
3.08416e-05
3.09534e-05
2.73906e-05
3.09527e-05
2.73994e-05
2.94551e-05
2.70209e-05
1.95738e-05
2.7048e-05
1.95527e-05
2.94628e-05
3.09539e-05
2.74247e-05
3.0843e-05
2.94788e-05
3.0954e-05
2.7402e-05
2.70218e-05
1.95834e-05
2.70487e-05
1.95648e-05
2.94707e-05
3.08436e-05
2.74039e-05
3.09547e-05
2.74167e-05
3.09546e-05
2.94633e-05
2.70329e-05
1.95503e-05
1.95603e-05
2.70207e-05
2.9471e-05
3.08431e-05
3.09542e-05
2.7404e-05
3.09541e-05
2.74138e-05
2.94636e-05
2.70339e-05
1.9567e-05
1.95736e-05
2.70214e-05
2.32333e-05
2.34684e-05
3.05829e-05
2.31976e-05
2.34362e-05
1.33474e-05
1.33301e-05
1.31682e-05
1.31818e-05
3.05847e-05
2.31888e-05
2.34272e-05
2.32067e-05
2.34418e-05
1.33257e-05
1.3332e-05
2.9602e-05
3.09645e-05
2.76125e-05
3.08583e-05
2.96059e-05
3.0965e-05
2.76032e-05
2.72976e-05
1.98757e-05
2.73087e-05
1.98493e-05
2.72966e-05
1.98645e-05
2.73071e-05
1.9854e-05
2.96052e-05
3.08571e-05
3.09653e-05
2.75872e-05
3.09652e-05
2.75964e-05
2.96027e-05
2.96053e-05
3.08586e-05
3.09655e-05
2.76039e-05
3.09653e-05
2.76112e-05
2.96027e-05
2.73038e-05
1.98396e-05
1.98515e-05
2.73022e-05
2.73031e-05
1.98545e-05
1.98598e-05
2.73007e-05
1.31808e-05
1.31692e-05
1.33499e-05
1.33434e-05
3.05869e-05
2.32041e-05
2.34487e-05
2.32107e-05
2.34587e-05
1.31729e-05
1.31764e-05
1.33437e-05
1.3348e-05
1.33269e-05
1.33235e-05
1.3185e-05
1.3179e-05
2.34231e-05
2.32134e-05
3.05875e-05
2.34176e-05
2.32049e-05
1.33238e-05
1.33282e-05
1.318e-05
1.31869e-05
3.05891e-05
2.34205e-05
2.3206e-05
2.34279e-05
2.3218e-05
2.73003e-05
1.98571e-05
2.73041e-05
1.98538e-05
2.96029e-05
2.75942e-05
3.0965e-05
3.0857e-05
2.96057e-05
2.75884e-05
3.0965e-05
2.96022e-05
2.75995e-05
3.09652e-05
3.08577e-05
2.96049e-05
2.75935e-05
3.09651e-05
2.7311e-05
1.98538e-05
1.98605e-05
2.7306e-05
2.73075e-05
1.98526e-05
1.98593e-05
2.73039e-05
2.96064e-05
3.08571e-05
2.75875e-05
3.09651e-05
2.75961e-05
3.09651e-05
2.96034e-05
2.96057e-05
3.08576e-05
2.75922e-05
3.09651e-05
2.76013e-05
3.09651e-05
2.96029e-05
2.34373e-05
2.32182e-05
3.05866e-05
2.34342e-05
2.32096e-05
1.31774e-05
1.31716e-05
1.3337e-05
1.33405e-05
3.05879e-05
2.3434e-05
2.32063e-05
2.34437e-05
2.32223e-05
1.31695e-05
1.31786e-05
2.94658e-05
2.74171e-05
3.09543e-05
3.0844e-05
2.94679e-05
2.741e-05
3.09546e-05
2.70246e-05
1.95464e-05
2.70287e-05
1.95432e-05
2.94656e-05
3.09539e-05
2.74068e-05
3.08436e-05
2.94677e-05
3.09541e-05
2.73998e-05
2.70382e-05
1.95594e-05
1.95716e-05
2.70253e-05
2.94756e-05
3.08443e-05
2.74078e-05
3.09548e-05
2.74224e-05
3.09548e-05
2.94664e-05
2.70405e-05
1.95505e-05
1.95557e-05
2.70262e-05
2.94754e-05
3.08438e-05
3.09543e-05
2.74007e-05
3.09543e-05
2.74128e-05
2.94661e-05
2.7027e-05
1.95618e-05
2.70374e-05
1.95564e-05
2.94664e-05
3.09542e-05
2.74178e-05
3.08434e-05
2.94735e-05
3.09543e-05
2.7405e-05
2.70272e-05
1.95759e-05
2.7038e-05
1.95614e-05
2.94752e-05
3.08435e-05
2.74052e-05
3.09547e-05
2.74195e-05
3.09547e-05
2.94658e-05
2.70412e-05
1.95492e-05
1.95656e-05
2.7026e-05
2.94753e-05
3.08435e-05
3.09543e-05
2.74028e-05
3.09543e-05
2.74173e-05
2.94657e-05
2.70412e-05
1.95537e-05
1.95689e-05
2.70256e-05
2.32014e-05
2.34352e-05
3.05863e-05
2.31946e-05
2.34314e-05
1.33297e-05
1.33276e-05
1.31756e-05
1.31805e-05
3.0588e-05
2.32006e-05
2.34374e-05
2.32085e-05
2.34419e-05
1.33305e-05
1.33328e-05
2.9603e-05
3.09655e-05
2.7611e-05
3.08589e-05
2.96061e-05
3.09655e-05
2.76012e-05
2.7304e-05
1.98453e-05
2.73098e-05
1.98444e-05
2.73013e-05
1.98593e-05
2.73078e-05
1.98509e-05
2.96066e-05
3.0858e-05
3.09655e-05
2.75925e-05
3.09655e-05
2.75995e-05
2.96039e-05
2.96062e-05
3.0859e-05
3.09656e-05
2.76005e-05
3.09655e-05
2.76087e-05
2.96033e-05
2.731e-05
1.98462e-05
1.9851e-05
2.73054e-05
2.73074e-05
1.98524e-05
1.98565e-05
2.73021e-05
1.31804e-05
1.31707e-05
1.3347e-05
1.33414e-05
3.05887e-05
2.32143e-05
2.34471e-05
2.32274e-05
2.34537e-05
1.31678e-05
1.31777e-05
1.33426e-05
1.33462e-05
1.33271e-05
1.33216e-05
1.31863e-05
1.31773e-05
2.34279e-05
2.32177e-05
3.05876e-05
2.34163e-05
2.32017e-05
1.33226e-05
1.3326e-05
1.31787e-05
1.31846e-05
3.0589e-05
2.34188e-05
2.3203e-05
2.34249e-05
2.32132e-05
2.73032e-05
1.98571e-05
2.73105e-05
1.98519e-05
2.96033e-05
2.7595e-05
3.09651e-05
3.08571e-05
2.96066e-05
2.75875e-05
3.09651e-05
2.96027e-05
2.75996e-05
3.09651e-05
3.08574e-05
2.96061e-05
2.75925e-05
3.09651e-05
2.73119e-05
1.98529e-05
1.98594e-05
2.73057e-05
2.73095e-05
1.98521e-05
1.98576e-05
2.7306e-05
2.96066e-05
3.08571e-05
2.75865e-05
3.09651e-05
2.75949e-05
3.09651e-05
2.96034e-05
2.9606e-05
3.08574e-05
2.75914e-05
3.09651e-05
2.76004e-05
3.09651e-05
2.96033e-05
2.34413e-05
2.32164e-05
3.05867e-05
2.34251e-05
2.31991e-05
1.31752e-05
1.31668e-05
1.33328e-05
1.3339e-05
3.05882e-05
2.34266e-05
2.32041e-05
2.34336e-05
2.32131e-05
1.31688e-05
1.31744e-05
2.94644e-05
2.74203e-05
3.09548e-05
3.08442e-05
2.94749e-05
2.74069e-05
3.09547e-05
2.70218e-05
1.95591e-05
2.70395e-05
1.95494e-05
2.9464e-05
3.09543e-05
2.7414e-05
3.08439e-05
2.94745e-05
3.09542e-05
2.74007e-05
2.70336e-05
1.95576e-05
1.95708e-05
2.7022e-05
2.9473e-05
3.08442e-05
2.74071e-05
3.09548e-05
2.74197e-05
3.09547e-05
2.94646e-05
2.70355e-05
1.95518e-05
1.95596e-05
2.70224e-05
2.94727e-05
3.08439e-05
3.09543e-05
2.74014e-05
3.09542e-05
2.74132e-05
2.94641e-05
2.7024e-05
1.95565e-05
2.70402e-05
1.95426e-05
2.94648e-05
3.09543e-05
2.74147e-05
3.08434e-05
2.94745e-05
3.09542e-05
2.73994e-05
2.70234e-05
1.95612e-05
2.70397e-05
1.95484e-05
2.94736e-05
3.08434e-05
2.74021e-05
3.09547e-05
2.74127e-05
3.09547e-05
2.94644e-05
2.70374e-05
1.95446e-05
1.95527e-05
2.7023e-05
2.94735e-05
3.08434e-05
3.09543e-05
2.74009e-05
3.09542e-05
2.74121e-05
2.94644e-05
2.70369e-05
1.95486e-05
1.95583e-05
2.70229e-05
2.32138e-05
2.34461e-05
3.05867e-05
2.32013e-05
2.34395e-05
1.33347e-05
1.33307e-05
1.31764e-05
1.31843e-05
3.05882e-05
2.32016e-05
2.34408e-05
2.32129e-05
2.34483e-05
1.33317e-05
1.33351e-05
2.96032e-05
3.09655e-05
2.76079e-05
3.0859e-05
2.96066e-05
3.09655e-05
2.76022e-05
2.73066e-05
1.98521e-05
2.73121e-05
1.98484e-05
2.7302e-05
1.98577e-05
2.73087e-05
1.98544e-05
2.96071e-05
3.08581e-05
3.09655e-05
2.75935e-05
3.09655e-05
2.76015e-05
2.96043e-05
2.96064e-05
3.0859e-05
3.09656e-05
2.76032e-05
3.09655e-05
2.76109e-05
2.96036e-05
2.73129e-05
1.9849e-05
1.98539e-05
2.73068e-05
2.73083e-05
1.9855e-05
1.98604e-05
2.73039e-05
1.31737e-05
1.31673e-05
1.33466e-05
1.33426e-05
3.05887e-05
2.32118e-05
2.34474e-05
2.32223e-05
2.34564e-05
1.31695e-05
1.31757e-05
1.33429e-05
1.33474e-05
1.33268e-05
1.33223e-05
1.31857e-05
1.31781e-05
2.34276e-05
2.32161e-05
3.05876e-05
2.34179e-05
2.32028e-05
1.33226e-05
1.33267e-05
1.31786e-05
1.31854e-05
3.0589e-05
2.34164e-05
2.32033e-05
2.34259e-05
2.32146e-05
2.73057e-05
1.98568e-05
2.7313e-05
1.98508e-05
2.96032e-05
2.75944e-05
3.09651e-05
3.08571e-05
2.96065e-05
2.7588e-05
3.0965e-05
2.96033e-05
2.75987e-05
3.09651e-05
3.08575e-05
2.96066e-05
2.75908e-05
3.09651e-05
2.73115e-05
1.9854e-05
1.98603e-05
2.73072e-05
2.73116e-05
1.98507e-05
1.98561e-05
2.73054e-05
2.96065e-05
3.08571e-05
2.75862e-05
3.09651e-05
2.75954e-05
3.09651e-05
2.96036e-05
2.96065e-05
3.08575e-05
2.75911e-05
3.09651e-05
2.75986e-05
3.09651e-05
2.96033e-05
2.34359e-05
2.3216e-05
3.05862e-05
2.34297e-05
2.3206e-05
1.31755e-05
1.31697e-05
1.33363e-05
1.33389e-05
3.05876e-05
2.34322e-05
2.3204e-05
2.34391e-05
2.32183e-05
1.31693e-05
1.31772e-05
2.94649e-05
2.74199e-05
3.09547e-05
3.08442e-05
2.94739e-05
2.74073e-05
3.09547e-05
2.70231e-05
1.95601e-05
2.70375e-05
1.95498e-05
2.94645e-05
3.09543e-05
2.74146e-05
3.08439e-05
2.94733e-05
3.09542e-05
2.7401e-05
2.70344e-05
1.95578e-05
1.95718e-05
2.70222e-05
2.94736e-05
3.08442e-05
2.74074e-05
3.09548e-05
2.74202e-05
3.09547e-05
2.94647e-05
2.70369e-05
1.95518e-05
1.95601e-05
2.70227e-05
2.94734e-05
3.08439e-05
3.09543e-05
2.74015e-05
3.09542e-05
2.74135e-05
2.94643e-05
2.70245e-05
1.95538e-05
2.70379e-05
1.95465e-05
2.94651e-05
3.09542e-05
2.74137e-05
3.08434e-05
2.94735e-05
3.09542e-05
2.73992e-05
2.70245e-05
1.95573e-05
2.70379e-05
1.95463e-05
2.94739e-05
3.08433e-05
2.74027e-05
3.09547e-05
2.74154e-05
3.09547e-05
2.94649e-05
2.70386e-05
1.95492e-05
1.95578e-05
2.70236e-05
2.94741e-05