/*--------------------------------*- C++ -*----------------------------------*\
| =========                 |                                                 |
| \\      /  F ield         | OpenFOAM: The Open Source CFD Toolbox           |
|  \\    /   O peration     | Version:  2206                                  |
|   \\  /    A nd           | Website:  www.openfoam.com                      |
|    \\/     M anipulation  |                                                 |
\*---------------------------------------------------------------------------*/
FoamFile
{
    version     2.0;
    format      ascii;
    arch        "LSB;label=32;scalar=64";
    class       volVectorField;
    location    "0.1";
    object      wallShearStress;
}
// * * * * * * * * * * * * * * * * * * * * * * * * * * * * * * * * * * * * * //

dimensions      [0 2 -2 0 0 0 0];

internalField   uniform (0 0 0);

boundaryField
{
    topPatch
    {
        type            calculated;
        value           nonuniform List<vector> 0();
    }
    wall
    {
        type            calculated;
        value           nonuniform List<vector> 
7718
(
(-7.87163e-10 -8.09604e-09 -0.000211499)
(-1.05223e-08 1.89428e-08 -0.000211837)
(-7.70107e-09 3.3997e-09 -0.000203756)
(-6.91553e-09 -6.53422e-10 -0.000203756)
(1.48229e-10 1.01855e-08 -0.000211501)
(-1.05635e-08 -1.85581e-08 -0.000211834)
(-5.28725e-09 1.17127e-08 -0.000207976)
(-3.40477e-09 4.3404e-09 -0.000208243)
(-5.16586e-09 -1.08003e-08 -0.000207973)
(-3.3565e-09 -3.01746e-09 -0.000208239)
(4.00006e-09 -6.21185e-09 -0.000211508)
(1.33394e-09 -1.18375e-08 -0.000211488)
(2.52884e-09 -6.84316e-09 -0.000203732)
(-7.3838e-09 2.40553e-09 -0.000203748)
(-6.26814e-09 7.83682e-10 -0.000203755)
(2.6025e-09 1.41547e-08 -0.000211496)
(-1.50943e-09 1.2252e-08 -0.000211651)
(6.8209e-09 -1.74305e-08 -0.000208092)
(-3.5191e-09 2.95317e-09 -0.000208226)
(-4.6218e-09 8.50664e-09 -0.000207961)
(3.99223e-09 -3.83164e-09 -0.00020835)
(2.16819e-09 1.07108e-08 -0.000203961)
(6.97819e-09 1.85186e-08 -0.000208091)
(-3.44869e-09 -1.31383e-09 -0.000208223)
(-4.43146e-09 -7.17846e-09 -0.00020796)
(4.04184e-09 5.27291e-09 -0.000208347)
(2.97063e-09 -8.11461e-09 -0.000203965)
(-5.54842e-10 -1.02563e-08 -0.000211657)
(-1.54311e-09 -6.52466e-09 -0.000204465)
(6.92739e-09 -7.79146e-10 -0.000211574)
(1.04593e-08 -1.53e-08 -0.000211885)
(1.72837e-08 -1.61714e-08 -0.000204418)
(1.99126e-08 -7.93017e-09 -0.000204555)
(6.41059e-09 -1.39069e-08 -0.000211876)
(2.03254e-10 -8.63975e-09 -0.000204414)
(4.74121e-09 8.55965e-10 -0.000204551)
(1.91586e-08 -1.17631e-08 -0.000212015)
(6.20196e-09 -6.04871e-10 -0.000212016)
(8.86708e-09 -1.07622e-08 -0.000212032)
(-9.44963e-09 1.78319e-08 -0.00021183)
(8.88327e-09 1.1344e-08 -0.00021203)
(-9.19589e-09 -1.64675e-08 -0.000211829)
(3.98807e-09 -1.74592e-09 -0.000204559)
(5.82348e-09 -2.45194e-11 -0.000212025)
(9.39328e-10 -5.34879e-09 -0.000212017)
(-3.61498e-09 6.96331e-10 -0.000211466)
(-8.73574e-12 -8.63904e-09 -0.00021161)
(4.37994e-09 -8.04098e-09 -0.000203535)
(1.07504e-09 6.17013e-09 -0.00020374)
(5.31572e-09 -2.11079e-09 -0.000211429)
(-1.33177e-08 -2.53459e-09 -0.000211562)
(-6.74177e-09 3.10412e-09 -0.000203672)
(2.79936e-09 1.18595e-08 -0.00020394)
(5.21596e-09 1.75732e-08 -0.000211455)
(-1.70082e-09 -1.37323e-08 -0.000211657)
(-2.82611e-09 -5.28141e-09 -0.000203572)
(7.31494e-09 3.41119e-09 -0.000203767)
(8.51643e-09 -3.84571e-10 -0.000211416)
(-9.34818e-09 -1.51124e-10 -0.00021157)
(-5.75291e-09 -2.30909e-09 -0.000203781)
(4.9411e-09 3.31602e-09 -0.000203974)
(4.30354e-10 1.10189e-08 -0.000211516)
(-7.51839e-10 -1.03407e-08 -0.000211654)
(-1.91699e-09 -5.73783e-09 -0.000203567)
(5.90913e-09 4.00041e-09 -0.000203764)
(9.87158e-09 3.35078e-10 -0.000211417)
(-9.18376e-09 -2.52453e-11 -0.000211569)
(-4.18414e-09 -5.85392e-09 -0.000203767)
(5.32265e-09 2.87032e-09 -0.00020397)
(1.88076e-09 1.29694e-08 -0.000211501)
(-2.98822e-10 -9.96174e-09 -0.000211651)
(-2.56946e-09 -5.50616e-09 -0.000203567)
(5.21165e-09 4.2626e-09 -0.000203764)
(9.92113e-09 2.16682e-10 -0.000211421)
(-9.09876e-09 -6.75636e-11 -0.00021157)
(-4.35856e-09 -5.48827e-09 -0.000203769)
(5.23448e-09 3.04735e-09 -0.000203971)
(1.93259e-09 1.31251e-08 -0.000211503)
(-2.41993e-10 -9.83424e-09 -0.000211653)
(-3.32e-09 -5.28579e-09 -0.000203566)
(5.55465e-09 4.10475e-09 -0.000203769)
(1.01175e-08 2.53872e-10 -0.00021142)
(-8.14626e-09 -2.4906e-10 -0.000211571)
(-4.39273e-09 -5.41558e-09 -0.000203769)
(5.23984e-09 3.04281e-09 -0.000203971)
(1.88077e-09 1.30356e-08 -0.000211503)
(-2.45706e-10 -9.84083e-09 -0.000211653)
(-2.20207e-09 -5.46038e-09 -0.000203571)
(5.29151e-09 4.37653e-09 -0.000203768)
(9.38913e-09 -4.60108e-10 -0.000211422)
(-8.9172e-09 2.27852e-10 -0.000211569)
(-4.39536e-09 -5.39961e-09 -0.000203769)
(5.16563e-09 3.22536e-09 -0.000203971)
(1.96015e-09 1.31903e-08 -0.000211503)
(-2.2196e-10 -9.79439e-09 -0.000211653)
(-3.03577e-09 -5.27883e-09 -0.000203571)
(5.64202e-09 4.06353e-09 -0.000203771)
(1.11757e-08 2.02258e-09 -0.000211419)
(-9.0774e-09 1.08165e-10 -0.000211571)
(-4.49849e-09 -5.14676e-09 -0.000203769)
(5.13449e-09 3.30437e-09 -0.000203971)
(1.91128e-09 1.3105e-08 -0.000211503)
(-2.11775e-10 -9.77089e-09 -0.000211653)
(-2.29562e-09 -5.6234e-09 -0.000203573)
(5.97852e-09 3.96442e-09 -0.00020377)
(1.00515e-08 3.10792e-10 -0.000211422)
(-9.04156e-09 -2.67218e-11 -0.000211572)
(-4.5021e-09 -5.11839e-09 -0.000203769)
(5.09329e-09 3.41019e-09 -0.000203971)
(1.98078e-09 1.32291e-08 -0.000211503)
(-2.08496e-10 -9.76857e-09 -0.000211653)
(-2.41496e-09 -5.57188e-09 -0.000203572)
(5.65886e-09 4.09163e-09 -0.000203769)
(1.01771e-08 5.13036e-10 -0.000211418)
(-8.73617e-09 2.16646e-10 -0.000211571)
(-4.5031e-09 -5.12893e-09 -0.000203769)
(5.13275e-09 3.32039e-09 -0.00020397)
(1.91998e-09 1.31148e-08 -0.000211503)
(-2.06992e-10 -9.77017e-09 -0.000211653)
(-2.36697e-09 -5.58838e-09 -0.000203573)
(5.53406e-09 4.13976e-09 -0.000203769)
(1.01409e-08 3.45373e-10 -0.000211422)
(-8.92281e-09 2.76201e-11 -0.000211571)
(-4.48696e-09 -5.15879e-09 -0.000203769)
(5.10138e-09 3.3788e-09 -0.000203971)
(1.98587e-09 1.32423e-08 -0.000211503)
(-2.07783e-10 -9.75889e-09 -0.000211653)
(-2.38904e-09 -5.58407e-09 -0.000203572)
(5.90459e-09 3.99847e-09 -0.000203769)
(1.01728e-08 5.13773e-10 -0.000211418)
(-8.69684e-09 2.4224e-10 -0.000211571)
(-4.51522e-09 -5.0916e-09 -0.000203769)
(5.1316e-09 3.32679e-09 -0.000203971)
(1.92134e-09 1.31097e-08 -0.000211503)
(-2.12359e-10 -9.78013e-09 -0.000211653)
(-2.4854e-09 -5.54757e-09 -0.000203573)
(5.65075e-09 4.09262e-09 -0.000203769)
(1.03632e-08 4.53155e-10 -0.000211422)
(-9.02219e-09 2.17017e-10 -0.000211571)
(-4.47982e-09 -5.19003e-09 -0.000203769)
(5.11277e-09 3.3555e-09 -0.000203971)
(1.99032e-09 1.32574e-08 -0.000211503)
(-2.1143e-10 -9.76227e-09 -0.000211653)
(-2.35031e-09 -5.59297e-09 -0.000203573)
(5.49957e-09 4.12614e-09 -0.000203769)
(1.00231e-08 4.34368e-10 -0.000211418)
(-8.58424e-09 2.83732e-10 -0.00021157)
(-4.45441e-09 -5.23772e-09 -0.000203769)
(5.22653e-09 3.07527e-09 -0.000203971)
(1.91728e-09 1.30921e-08 -0.000211503)
(-2.22596e-10 -9.79462e-09 -0.000211653)
(-8.15244e-10 -6.12538e-09 -0.000203574)
(5.63836e-09 3.99412e-09 -0.000203765)
(8.61123e-09 -4.61052e-10 -0.000211421)
(-9.47701e-09 -2.815e-10 -0.00021157)
(-4.31741e-09 -5.48427e-09 -0.00020377)
(5.80121e-09 1.41085e-09 -0.000203968)
(1.8961e-09 1.29883e-08 -0.000211505)
(4.6707e-11 -9.20398e-09 -0.000211652)
(2.0508e-09 -6.73299e-09 -0.000203572)
(7.70801e-09 3.68384e-09 -0.000203796)
(5.20738e-09 -2.07785e-09 -0.000211412)
(-9.72963e-09 -4.05755e-10 -0.000211587)
(-3.27401e-09 -7.8234e-09 -0.000203779)
(6.41155e-09 -1.55044e-09 -0.000203967)
(2.32739e-09 1.36016e-08 -0.000211512)
(-1.19667e-11 -8.59056e-09 -0.000211653)
(-2.54363e-10 -4.74814e-09 -0.000211501)
(-2.7347e-09 -6.31261e-09 -0.000203751)
(4.07879e-10 9.34435e-09 -0.000211485)
(-3.22922e-08 -1.31328e-08 -0.000211366)
(-3.95686e-09 -6.77159e-09 -0.000211536)
(4.42169e-09 -1.42361e-09 -0.000211583)
(6.76263e-09 2.36183e-08 -0.000211437)
(1.89471e-08 4.97796e-09 -0.00021154)
(-1.5954e-08 -3.64381e-09 -0.000211379)
(-3.40316e-08 -7.26284e-09 -0.000203535)
(-4.8239e-09 -7.58018e-09 -0.000203724)
(2.97735e-08 -4.61891e-09 -0.000203558)
(8.12193e-09 -1.01812e-08 -0.000203758)
(1.5193e-08 -4.72527e-10 -0.000203732)
(-4.4685e-09 4.28148e-09 -0.00020352)
(-1.01406e-08 -2.4739e-09 -0.000203774)
(1.1563e-08 1.32109e-09 -0.000203568)
(-9.4455e-11 9.99913e-09 -0.000211513)
(1.79202e-09 -1.2582e-08 -0.000211666)
(3.06497e-08 -1.12451e-08 -0.000211396)
(2.30498e-09 -7.06089e-09 -0.000211561)
(-2.24704e-09 -4.52756e-09 -0.000211652)
(-1.02178e-09 1.18674e-08 -0.000211514)
(-1.98919e-08 5.91508e-09 -0.00021158)
(1.61742e-08 -4.55921e-09 -0.000211422)
(-4.77901e-09 -2.27336e-09 -0.000211396)
(5.91711e-09 1.85698e-09 -0.000211554)
(3.68552e-09 -1.5046e-08 -0.00021145)
(-2.93028e-09 1.60231e-08 -0.000211649)
(8.29792e-09 3.05651e-10 -0.000211572)
(-1.44805e-08 3.79795e-09 -0.000211414)
(-2.1224e-09 1.2984e-08 -0.000211667)
(-1.15552e-09 -6.26738e-09 -0.000211507)
(-8.82044e-10 -6.92103e-09 -0.000203574)
(-8.82714e-09 2.68064e-09 -0.000203757)
(3.2143e-09 5.28555e-09 -0.000203768)
(-8.78184e-09 -2.5114e-09 -0.00020355)
(-7.90634e-09 3.31316e-09 -0.000203758)
(-5.16038e-10 -6.75254e-09 -0.000203557)
(-2.3252e-09 -1.45005e-08 -0.000211503)
(5.17871e-10 9.97036e-09 -0.000211637)
(-1.15439e-08 -1.26399e-09 -0.000211564)
(7.39292e-09 -1.65193e-09 -0.000211409)
(-1.06875e-10 9.48216e-09 -0.00021164)
(-2.86485e-09 -1.48431e-08 -0.000211486)
(-5.29783e-09 1.66112e-10 -0.000203679)
(3.70429e-09 -9.47003e-09 -0.000203949)
(3.77051e-09 6.8799e-09 -0.000203984)
(-6.29568e-09 2.08389e-09 -0.000203755)
(3.51534e-09 -7.14937e-09 -0.000203988)
(-5.63326e-09 -9.5775e-11 -0.000203764)
(4.30368e-09 -6.46123e-09 -0.000203771)
(-4.9358e-09 3.43091e-09 -0.00020396)
(3.62526e-09 8.01119e-09 -0.00020378)
(-5.30748e-09 -2.28146e-09 -0.000203968)
(-5.69627e-09 2.31582e-09 -0.000203962)
(4.10558e-09 -6.19718e-09 -0.000203755)
(-5.2516e-09 -3.33879e-09 -0.000203968)
(4.22682e-09 6.06855e-09 -0.000203763)
(-5.27237e-09 1.86504e-09 -0.000211403)
(6.7612e-09 -1.58501e-09 -0.00021157)
(-2.01611e-09 -1.26591e-08 -0.000211671)
(-5.95006e-11 8.38952e-09 -0.000211515)
(8.21775e-09 -4.01364e-10 -0.000211585)
(-1.43322e-08 -3.17044e-09 -0.000211427)
(2.21402e-09 7.02801e-09 -0.000203542)
(1.52966e-09 -6.1628e-09 -0.000203756)
(-3.11627e-09 7.66894e-09 -0.000203573)
(-1.07516e-08 -2.1833e-09 -0.000203771)
(2.49058e-09 -5.50381e-09 -0.00020378)
(-8.66119e-09 2.62353e-09 -0.000203564)
(-6.5368e-09 -3.81624e-09 -0.000203773)
(-8.63914e-10 6.86992e-09 -0.000203571)
(-3.72123e-09 1.67994e-08 -0.000211499)
(4.75814e-10 -9.68439e-09 -0.000211639)
(3.42799e-09 3.35885e-09 -0.000211426)
(-1.23314e-08 1.68372e-09 -0.000211571)
(3.53509e-10 -1.03209e-08 -0.000211641)
(-1.30087e-09 1.21542e-08 -0.000211487)
(-9.90705e-09 4.17383e-10 -0.000211574)
(9.48457e-09 -1.27881e-10 -0.000211422)
(-1.02473e-08 4.79117e-10 -0.000211425)
(1.15995e-08 -1.50947e-09 -0.000211569)
(4.25833e-10 -1.08591e-08 -0.000211513)
(-3.55492e-10 9.6894e-09 -0.000211653)
(1.05543e-08 -9.20759e-10 -0.000211567)
(-8.31913e-09 -6.19697e-10 -0.00021142)
(3.45592e-10 8.72615e-09 -0.000211649)
(2.03179e-09 -1.35225e-08 -0.0002115)
(8.73073e-10 -6.03748e-09 -0.000203563)
(-5.47001e-09 4.17648e-09 -0.000203766)
(6.17001e-09 3.91169e-09 -0.000203764)
(-8.74351e-10 -6.19588e-09 -0.000203567)
(-7.25808e-09 3.52766e-09 -0.000203762)
(1.97212e-09 -5.76259e-09 -0.000203569)
(-2.61864e-09 -1.37908e-08 -0.000211493)
(3.70673e-10 1.02361e-08 -0.00021165)
(-1.08806e-08 -1.02071e-09 -0.000211565)
(7.59583e-09 -1.04557e-09 -0.000211422)
(-8.60367e-10 7.73195e-09 -0.000211649)
(-2.93137e-09 -1.4811e-08 -0.000211501)
(-5.85663e-09 2.19383e-09 -0.000203784)
(4.37612e-09 -4.70953e-09 -0.000203977)
(5.63109e-09 2.10002e-09 -0.000203969)
(-4.429e-09 -5.62216e-09 -0.000203769)
(4.9876e-09 -3.5405e-09 -0.000203972)
(-4.89731e-09 4.43492e-09 -0.000203772)
(3.92327e-09 -6.03813e-09 -0.000203762)
(-4.79997e-09 4.16566e-09 -0.00020397)
(4.31857e-09 5.10193e-09 -0.000203769)
(-4.51031e-09 -4.94969e-09 -0.000203977)
(-5.39884e-09 2.37085e-09 -0.00020397)
(4.60319e-09 -4.77471e-09 -0.000203767)
(-4.87571e-09 -3.8202e-09 -0.000203977)
(4.88737e-09 4.06498e-09 -0.000203775)
(-1.09518e-08 -7.06367e-10 -0.000211433)
(1.06106e-08 9.59181e-10 -0.000211575)
(-2.4136e-10 -9.86756e-09 -0.00021165)
(1.60809e-09 1.27936e-08 -0.000211501)
(1.07003e-08 8.58491e-10 -0.000211572)
(-9.56203e-09 -1.21793e-11 -0.000211423)
(-4.5485e-09 4.75082e-09 -0.00020358)
(6.52249e-09 -3.77196e-09 -0.000203774)
(2.53846e-09 5.55837e-09 -0.000203574)
(-5.29253e-09 -4.31092e-09 -0.000203772)
(6.19561e-09 -3.98233e-09 -0.000203772)
(-1.97259e-09 5.82805e-09 -0.000203572)
(-5.04064e-09 -4.40448e-09 -0.000203772)
(3.24982e-09 5.29951e-09 -0.000203572)
(-1.53036e-09 1.19203e-08 -0.000211494)
(6.6988e-10 -1.06692e-08 -0.000211649)
(1.09165e-08 -8.59462e-10 -0.000211425)
(-9.45946e-09 2.14709e-10 -0.000211574)
(3.79642e-10 -1.00177e-08 -0.000211649)
(-1.29483e-09 1.18564e-08 -0.000211499)
(-9.50155e-09 2.15151e-10 -0.000211574)
(1.12819e-08 -9.88423e-10 -0.000211424)
(-9.23865e-09 2.49543e-10 -0.00021142)
(1.02034e-08 -6.50569e-10 -0.000211567)
(2.35658e-09 -1.38355e-08 -0.000211498)
(1.13816e-10 9.23505e-09 -0.00021165)
(9.34718e-09 -2.88083e-10 -0.000211568)
(-9.85721e-09 3.38366e-10 -0.00021142)
(2.89872e-10 8.80828e-09 -0.000211651)
(2.24359e-09 -1.36232e-08 -0.000211499)
(1.06875e-09 -6.00711e-09 -0.000203566)
(-5.31617e-09 4.26875e-09 -0.000203765)
(5.4562e-09 4.1649e-09 -0.000203765)
(-2.48208e-09 -5.51554e-09 -0.000203566)
(-5.4675e-09 4.14245e-09 -0.000203765)
(2.57859e-09 -5.4545e-09 -0.000203567)
(-2.98664e-09 -1.49012e-08 -0.000211499)
(7.77355e-10 1.07021e-08 -0.000211648)
(-9.78902e-09 -4.21651e-10 -0.00021157)
(1.06239e-08 7.1608e-10 -0.00021142)
(1.67531e-10 9.69516e-09 -0.000211648)
(-2.56657e-09 -1.42288e-08 -0.000211498)
(-4.51275e-09 5.078e-09 -0.00020377)
(4.88458e-09 -3.92886e-09 -0.000203973)
(5.48262e-09 2.4503e-09 -0.000203971)
(-4.32265e-09 -5.51692e-09 -0.000203767)
(4.92762e-09 -3.65595e-09 -0.000203974)
(-4.59613e-09 4.82508e-09 -0.000203771)
(3.88763e-09 -6.6317e-09 -0.000203768)
(-4.90863e-09 3.79325e-09 -0.00020397)
(4.50986e-09 5.07517e-09 -0.000203774)
(-4.79098e-09 -4.13681e-09 -0.000203976)
(-5.39972e-09 2.6222e-09 -0.00020397)
(4.29653e-09 -5.67531e-09 -0.000203766)
(-4.96856e-09 -3.55444e-09 -0.000203976)
(4.6224e-09 4.77778e-09 -0.000203774)
(-9.53842e-09 -1.39794e-10 -0.000211423)
(1.02301e-08 5.93481e-10 -0.000211573)
(-1.9535e-10 -9.76481e-09 -0.000211653)
(1.86353e-09 1.29442e-08 -0.000211501)
(9.93271e-09 4.63307e-10 -0.000211574)
(-1.01488e-08 -4.43827e-10 -0.000211424)
(-2.52682e-09 5.49935e-09 -0.000203572)
(5.98066e-09 -4.08088e-09 -0.000203772)
(3.44477e-09 5.18511e-09 -0.000203573)
(-5.3359e-09 -4.33768e-09 -0.000203773)
(5.52404e-09 -4.232e-09 -0.000203773)
(-2.72256e-09 5.45594e-09 -0.000203572)
(-5.07766e-09 -4.39395e-09 -0.000203774)
(3.25715e-09 5.24918e-09 -0.000203573)
(-1.61197e-09 1.24049e-08 -0.000211499)
(2.99048e-10 -9.8953e-09 -0.000211649)
(1.1055e-08 -9.39273e-10 -0.000211425)
(-9.82519e-09 3.5842e-10 -0.000211575)
(8.22532e-11 -9.45235e-09 -0.000211649)
(-1.70103e-09 1.26407e-08 -0.000211499)
(-9.68488e-09 3.19457e-10 -0.000211575)
(1.0923e-08 -8.40622e-10 -0.000211425)
(-1.03141e-08 5.96704e-10 -0.000211419)
(9.73664e-09 -3.99504e-10 -0.000211568)
(2.265e-09 -1.37317e-08 -0.0002115)
(2.24997e-11 9.37592e-09 -0.000211651)
(9.08841e-09 -1.31029e-10 -0.000211567)
(-1.02526e-08 5.28018e-10 -0.00021142)
(1.93444e-10 8.97837e-09 -0.000211651)
(2.17102e-09 -1.35074e-08 -0.0002115)
(2.6882e-09 -5.46022e-09 -0.000203568)
(-4.89811e-09 4.36871e-09 -0.000203766)
(4.89349e-09 4.38289e-09 -0.000203764)
(-3.09265e-09 -5.28356e-09 -0.000203566)
(-6.80339e-09 3.7045e-09 -0.000203762)
(2.1058e-09 -5.73173e-09 -0.000203568)
(-2.45029e-09 -1.3774e-08 -0.000211499)
(4.14871e-10 1.02482e-08 -0.000211651)
(-1.01243e-08 -1.04027e-09 -0.000211566)
(7.98158e-09 -8.751e-10 -0.00021142)
(-9.26922e-10 7.62887e-09 -0.000211649)
(-2.95887e-09 -1.48522e-08 -0.000211501)
(-4.5781e-09 4.99687e-09 -0.000203772)
(4.93578e-09 -3.75532e-09 -0.000203974)
(5.40669e-09 2.62148e-09 -0.000203971)
(-4.38006e-09 -5.39649e-09 -0.000203768)
(4.94421e-09 -3.60474e-09 -0.000203974)
(-4.5571e-09 4.96364e-09 -0.000203772)
(4.12165e-09 -5.99675e-09 -0.000203768)
(-4.88345e-09 3.84455e-09 -0.00020397)
(4.48803e-09 5.20183e-09 -0.000203774)
(-4.79831e-09 -4.07816e-09 -0.000203976)
(-5.43561e-09 2.28039e-09 -0.00020397)
(4.50429e-09 -5.0541e-09 -0.000203767)
(-5.00877e-09 -3.44996e-09 -0.000203976)
(4.5867e-09 4.88238e-09 -0.000203774)
(-1.02431e-08 -4.9581e-10 -0.000211425)
(9.81951e-09 3.84679e-10 -0.000211574)
(-2.24628e-10 -9.80325e-09 -0.000211653)
(1.91268e-09 1.30487e-08 -0.000211502)
(9.77079e-09 3.81577e-10 -0.000211575)
(-1.05024e-08 -6.2906e-10 -0.000211425)
(-3.13285e-09 5.28556e-09 -0.000203574)
(5.60673e-09 -4.22148e-09 -0.000203773)
(3.45324e-09 5.18706e-09 -0.000203574)
(-5.40016e-09 -4.31116e-09 -0.000203773)
(5.33326e-09 -4.29947e-09 -0.000203773)
(-3.06962e-09 5.32929e-09 -0.000203573)
(-5.17572e-09 -4.35662e-09 -0.000203774)
(3.10778e-09 5.30655e-09 -0.000203574)
(-1.84852e-09 1.2892e-08 -0.0002115)
(1.83279e-10 -9.65835e-09 -0.000211649)
(1.08867e-08 -8.37544e-10 -0.000211426)
(-9.89632e-09 4.10495e-10 -0.000211575)
(7.3867e-11 -9.43744e-09 -0.000211649)
(-1.78943e-09 1.2804e-08 -0.000211499)
(-9.97574e-09 4.74598e-10 -0.000211575)
(1.07774e-08 -7.58807e-10 -0.000211425)
(-1.05401e-08 3.35168e-10 -0.000211419)
(9.5541e-09 -5.32058e-10 -0.000211567)
(2.2012e-09 -1.36188e-08 -0.0002115)
(1.69654e-11 9.38964e-09 -0.000211651)
(8.70697e-09 -4.32666e-10 -0.000211569)
(-1.11615e-08 9.13823e-10 -0.000211419)
(2.06531e-10 8.96422e-09 -0.000211651)
(2.18236e-09 -1.35255e-08 -0.0002115)
(1.15197e-09 -6.00034e-09 -0.000203565)
(-4.68564e-09 4.01726e-09 -0.000203763)
(4.93317e-09 3.74544e-09 -0.00020377)
(-3.01848e-09 -5.33884e-09 -0.000203571)
(-5.98208e-09 3.87794e-09 -0.000203768)
(3.16713e-09 -5.42316e-09 -0.000203569)
(-3.08414e-09 -1.50939e-08 -0.000211499)
(6.1803e-10 1.04034e-08 -0.000211648)
(-1.00404e-08 -3.37834e-10 -0.00021157)
(1.08756e-08 1.85681e-10 -0.000211421)
(4.28854e-10 1.01544e-08 -0.000211648)
(-2.64871e-09 -1.43782e-08 -0.000211498)
(-4.56518e-09 5.03239e-09 -0.000203772)
(4.94919e-09 -3.72718e-09 -0.000203974)
(5.44629e-09 2.54159e-09 -0.000203971)
(-4.37797e-09 -5.39656e-09 -0.000203768)
(4.97182e-09 -3.53921e-09 -0.000203974)
(-4.53376e-09 5.01495e-09 -0.000203772)
(3.86769e-09 -6.70105e-09 -0.000203768)
(-4.92619e-09 3.72371e-09 -0.00020397)
(4.43038e-09 5.34334e-09 -0.000203774)
(-4.83497e-09 -3.99203e-09 -0.000203976)
(-5.34451e-09 2.78751e-09 -0.000203971)
(4.28175e-09 -5.72136e-09 -0.000203766)
(-5.00745e-09 -3.46951e-09 -0.000203976)
(4.57409e-09 4.91713e-09 -0.000203774)
(-1.03323e-08 -5.40028e-10 -0.000211425)
(9.75007e-09 3.43521e-10 -0.000211574)
(-1.66246e-10 -9.69377e-09 -0.000211654)
(1.9245e-09 1.30647e-08 -0.000211502)
(9.72486e-09 3.49888e-10 -0.000211575)
(-1.05729e-08 -6.69125e-10 -0.000211425)
(-3.28832e-09 5.23159e-09 -0.000203574)
(5.46247e-09 -4.27676e-09 -0.000203773)
(3.34468e-09 5.22058e-09 -0.000203574)
(-5.40504e-09 -4.30818e-09 -0.000203773)
(5.24964e-09 -4.33678e-09 -0.000203774)
(-3.1869e-09 5.28077e-09 -0.000203573)
(-5.19453e-09 -4.35576e-09 -0.000203774)
(3.20993e-09 5.26381e-09 -0.000203574)
(-1.88044e-09 1.29485e-08 -0.0002115)
(1.20147e-10 -9.54195e-09 -0.000211648)
(1.06374e-08 -7.08496e-10 -0.000211426)
(-1e-08 4.61773e-10 -0.000211575)
(4.13197e-11 -9.39078e-09 -0.000211649)
(-1.83182e-09 1.28911e-08 -0.000211498)
(-9.91194e-09 4.45143e-10 -0.000211576)
(1.07324e-08 -7.41168e-10 -0.000211425)
(-1.1114e-08 1.65419e-09 -0.000211418)
(9.31721e-09 -2.2165e-10 -0.000211565)
(2.21457e-09 -1.36379e-08 -0.0002115)
(-8.3976e-11 9.57554e-09 -0.000211651)
(9.59906e-09 -7.72229e-10 -0.000211568)
(-9.87389e-09 1.35737e-10 -0.000211418)
(4.5254e-12 9.30452e-09 -0.000211651)
(2.04982e-09 -1.32739e-08 -0.000211501)
(2.30307e-09 -5.63354e-09 -0.00020357)
(-5.15018e-09 4.22224e-09 -0.000203767)
(5.01404e-09 4.21308e-09 -0.000203767)
(-3.0168e-09 -5.31654e-09 -0.00020357)
(-7.68591e-09 3.39436e-09 -0.00020376)
(2.39338e-09 -5.58186e-09 -0.00020357)
(-2.21939e-09 -1.33104e-08 -0.000211499)
(5.48922e-10 1.0485e-08 -0.00021165)
(-1.01751e-08 -1.71753e-10 -0.000211568)
(7.91177e-09 -7.13935e-10 -0.000211425)
(-9.99748e-10 7.47412e-09 -0.000211648)
(-2.91973e-09 -1.47793e-08 -0.0002115)
(-4.5501e-09 5.07094e-09 -0.000203772)
(4.95978e-09 -3.69225e-09 -0.000203974)
(5.29493e-09 2.90409e-09 -0.000203971)
(-4.44924e-09 -5.21993e-09 -0.000203768)
(4.96495e-09 -3.54139e-09 -0.000203975)
(-4.52738e-09 5.03428e-09 -0.000203772)
(4.16071e-09 -5.88354e-09 -0.000203768)
(-4.8624e-09 3.90748e-09 -0.000203969)
(4.43964e-09 5.30824e-09 -0.000203774)
(-4.81867e-09 -4.02886e-09 -0.000203976)
(-5.46468e-09 2.19758e-09 -0.00020397)
(4.50324e-09 -5.05614e-09 -0.000203767)
(-5.02003e-09 -3.41934e-09 -0.000203976)
(4.5742e-09 4.9122e-09 -0.000203774)
(-1.04022e-08 -5.79181e-10 -0.000211426)
(9.7791e-09 3.63948e-10 -0.000211574)
(-1.86464e-10 -9.72995e-09 -0.000211654)
(1.93353e-09 1.309e-08 -0.000211502)
(9.70904e-09 3.45184e-10 -0.000211575)
(-1.05262e-08 -6.39318e-10 -0.000211425)
(-3.34385e-09 5.21041e-09 -0.000203574)
(5.66967e-09 -4.19493e-09 -0.000203773)
(3.36501e-09 5.21425e-09 -0.000203574)
(-5.46978e-09 -4.28353e-09 -0.000203773)
(5.26042e-09 -4.32329e-09 -0.000203773)
(-2.98162e-09 5.3684e-09 -0.000203573)
(-5.16603e-09 -4.36001e-09 -0.000203774)
(3.03203e-09 5.33725e-09 -0.000203574)
(-1.88366e-09 1.29363e-08 -0.0002115)
(1.60608e-10 -9.61742e-09 -0.000211649)
(1.06669e-08 -7.23792e-10 -0.000211426)
(-1.00321e-08 4.77378e-10 -0.000211575)
(3.90838e-11 -9.37591e-09 -0.000211649)
(-1.81418e-09 1.28473e-08 -0.000211499)
(-9.9513e-09 4.62868e-10 -0.000211576)
(1.06859e-08 -7.13568e-10 -0.000211425)
(-1.04042e-08 -6.56206e-11 -0.000211419)
(9.77042e-09 -4.65363e-10 -0.000211565)
(2.0455e-09 -1.33189e-08 -0.000211501)
(-1.47621e-10 9.68693e-09 -0.000211651)
(9.51523e-09 -3.56406e-10 -0.000211565)
(-1.02184e-08 5.06681e-10 -0.000211417)
(4.37473e-11 9.25636e-09 -0.000211651)
(2.02807e-09 -1.32336e-08 -0.0002115)
(2.59815e-10 -5.01981e-09 -0.000203565)
(-4.71305e-09 4.53567e-09 -0.000203765)
(5.64539e-09 4.09123e-09 -0.00020377)
(-2.64776e-09 -5.48002e-09 -0.000203572)
(-5.34775e-09 4.20165e-09 -0.000203766)
(3.12441e-09 -5.2329e-09 -0.000203567)
(-3.13014e-09 -1.51973e-08 -0.000211498)
(6.11952e-10 1.03925e-08 -0.000211647)
(-9.51293e-09 -2.4576e-10 -0.000211571)
(1.10339e-08 9.19981e-10 -0.00021142)
(1.42412e-10 9.64573e-09 -0.000211647)
(-2.72279e-09 -1.45136e-08 -0.000211497)
(-4.5451e-09 5.0882e-09 -0.000203772)
(4.98191e-09 -3.644e-09 -0.000203974)
(5.33818e-09 2.80821e-09 -0.000203971)
(-4.46422e-09 -5.17716e-09 -0.000203768)
(5.00116e-09 -3.46084e-09 -0.000203974)
(-4.49615e-09 5.11121e-09 -0.000203772)
(3.83943e-09 -6.78076e-09 -0.000203768)
(-4.99047e-09 3.56306e-09 -0.00020397)
(4.40582e-09 5.40212e-09 -0.000203774)
(-4.84669e-09 -3.95911e-09 -0.000203976)
(-5.41639e-09 2.59305e-09 -0.00020397)
(4.22275e-09 -5.87923e-09 -0.000203766)
(-4.98091e-09 -3.53549e-09 -0.000203976)
(4.57827e-09 4.91805e-09 -0.000203774)
(-1.04059e-08 -5.78476e-10 -0.000211426)
(9.76135e-09 3.50336e-10 -0.000211574)
(-1.37324e-10 -9.63738e-09 -0.000211653)
(1.96012e-09 1.31357e-08 -0.000211502)
(9.67482e-09 3.2977e-10 -0.000211575)
(-1.05518e-08 -6.59288e-10 -0.000211425)
(-3.38632e-09 5.19596e-09 -0.000203574)
(5.38677e-09 -4.30744e-09 -0.000203773)
(3.38648e-09 5.20894e-09 -0.000203574)
(-5.36242e-09 -4.32062e-09 -0.000203773)
(5.32324e-09 -4.30041e-09 -0.000203773)
(-3.23372e-09 5.26202e-09 -0.000203573)
(-5.24567e-09 -4.33389e-09 -0.000203774)
(3.1862e-09 5.27705e-09 -0.000203574)
(-1.9069e-09 1.29875e-08 -0.0002115)
(1.18486e-10 -9.53221e-09 -0.000211649)
(1.0678e-08 -7.28566e-10 -0.000211426)
(-9.97418e-09 4.49655e-10 -0.000211575)
(9.00012e-11 -9.48105e-09 -0.000211649)
(-1.83551e-09 1.29026e-08 -0.000211498)
(-9.95975e-09 4.70723e-10 -0.000211575)
(1.0776e-08 -7.60933e-10 -0.000211425)
(-1.02344e-08 4.82776e-10 -0.000211417)
(9.91462e-09 -5.20673e-10 -0.000211565)
(2.04006e-09 -1.33234e-08 -0.0002115)
(-1.87559e-10 9.76473e-09 -0.000211651)
(9.49242e-09 -3.38269e-10 -0.000211566)
(-1.01048e-08 4.49454e-10 -0.000211417)
(-3.44794e-12 9.34458e-09 -0.000211651)
(1.98713e-09 -1.31616e-08 -0.0002115)
(2.85084e-09 -5.39599e-09 -0.000203568)
(-4.90944e-09 4.36662e-09 -0.000203766)
(5.51134e-09 4.14999e-09 -0.00020377)
(-2.2807e-09 -5.60793e-09 -0.000203572)
(-6.87203e-09 3.68615e-09 -0.000203763)
(2.32406e-09 -5.64961e-09 -0.000203569)
(-2.4761e-09 -1.38335e-08 -0.000211498)
(4.76331e-10 1.0359e-08 -0.00021165)
(-1.05012e-08 -7.98825e-10 -0.000211567)
(7.95979e-09 -8.79226e-10 -0.000211423)
(-9.39203e-10 7.59898e-09 -0.000211647)
(-2.94756e-09 -1.48263e-08 -0.000211499)
(-4.52535e-09 5.13353e-09 -0.000203772)
(4.9698e-09 -3.66442e-09 -0.000203974)
(5.29197e-09 2.92252e-09 -0.000203971)
(-4.5175e-09 -5.05259e-09 -0.000203768)
(4.9852e-09 -3.49988e-09 -0.000203974)
(-4.52364e-09 5.04005e-09 -0.000203772)
(4.12169e-09 -6.002e-09 -0.000203768)
(-4.87978e-09 3.8586e-09 -0.000203969)
(4.47545e-09 5.22184e-09 -0.000203774)
(-4.78359e-09 -4.11861e-09 -0.000203976)
(-5.45338e-09 2.23621e-09 -0.00020397)
(4.4972e-09 -5.08743e-09 -0.000203766)
(-4.99601e-09 -3.48e-09 -0.000203976)
(4.61199e-09 4.8247e-09 -0.000203774)
(-1.04091e-08 -5.79024e-10 -0.000211425)
(9.82961e-09 3.87599e-10 -0.000211574)
(-1.87882e-10 -9.73456e-09 -0.000211653)
(1.94545e-09 1.31116e-08 -0.000211502)
(9.7431e-09 3.61747e-10 -0.000211575)
(-1.04746e-08 -6.08222e-10 -0.000211425)
(-3.26059e-09 5.23958e-09 -0.000203574)
(5.68853e-09 -4.18754e-09 -0.000203773)
(3.22311e-09 5.27167e-09 -0.000203574)
(-5.46236e-09 -4.28721e-09 -0.000203773)
(5.24057e-09 -4.33487e-09 -0.000203773)
(-2.95267e-09 5.37862e-09 -0.000203573)
(-5.09381e-09 -4.39446e-09 -0.000203774)
(3.10985e-09 5.30938e-09 -0.000203573)
(-1.82882e-09 1.28396e-08 -0.000211499)
(1.98137e-10 -9.6877e-09 -0.000211648)
(1.06233e-08 -6.95545e-10 -0.000211426)
(-1.00129e-08 4.69866e-10 -0.000211575)
(6.96942e-11 -9.4326e-09 -0.000211649)
(-1.78149e-09 1.27855e-08 -0.000211498)
(-9.95296e-09 4.57143e-10 -0.000211575)
(1.07349e-08 -7.38948e-10 -0.000211425)
(-1.02406e-08 4.90036e-10 -0.000211417)
(9.8468e-09 -4.71505e-10 -0.000211565)
(2.02233e-09 -1.32845e-08 -0.0002115)
(-1.46875e-10 9.68469e-09 -0.000211651)
(9.50989e-09 -3.50171e-10 -0.000211566)
(-1.01719e-08 5.01609e-10 -0.000211417)
(6.23291e-11 9.22235e-09 -0.000211651)
(2.02223e-09 -1.32243e-08 -0.0002115)
(1.48413e-09 -5.84602e-09 -0.000203566)
(-4.85745e-09 4.44124e-09 -0.000203765)
(5.69486e-09 4.08193e-09 -0.00020377)
(-2.67076e-09 -5.4584e-09 -0.000203571)
(-5.34718e-09 4.19518e-09 -0.000203766)
(3.03777e-09 -5.28071e-09 -0.000203567)
(-3.0744e-09 -1.50804e-08 -0.000211498)
(6.11839e-10 1.03851e-08 -0.000211646)
(-9.43448e-09 -2.15303e-10 -0.000211572)
(1.09881e-08 9.19104e-10 -0.00021142)
(1.25653e-10 9.62397e-09 -0.000211647)
(-2.71283e-09 -1.44965e-08 -0.000211497)
(-4.53378e-09 5.11251e-09 -0.000203772)
(4.98342e-09 -3.64109e-09 -0.000203974)
(5.35218e-09 2.77782e-09 -0.000203971)
(-4.47295e-09 -5.14832e-09 -0.000203768)
(5.008e-09 -3.4379e-09 -0.000203974)
(-4.4919e-09 5.11924e-09 -0.000203772)
(3.8449e-09 -6.76289e-09 -0.000203768)
(-4.98077e-09 3.58402e-09 -0.00020397)
(4.42966e-09 5.34084e-09 -0.000203774)
(-4.83552e-09 -3.98822e-09 -0.000203976)
(-5.43916e-09 2.53311e-09 -0.00020397)
(4.22807e-09 -5.86809e-09 -0.000203766)
(-4.98348e-09 -3.51885e-09 -0.000203976)
(4.56935e-09 4.94155e-09 -0.000203774)
(-1.03583e-08 -5.56031e-10 -0.000211425)
(9.7338e-09 3.39423e-10 -0.000211574)
(-1.30437e-10 -9.62774e-09 -0.000211653)
(1.95919e-09 1.31341e-08 -0.000211502)
(9.7341e-09 3.56852e-10 -0.000211575)
(-1.05906e-08 -6.77137e-10 -0.000211425)
(-3.345e-09 5.20743e-09 -0.000203574)
(5.40712e-09 -4.29719e-09 -0.000203773)
(3.42758e-09 5.19183e-09 -0.000203574)
(-5.25649e-09 -4.37099e-09 -0.000203773)
(5.22763e-09 -4.34389e-09 -0.000203773)
(-3.30696e-09 5.23377e-09 -0.000203573)
(-5.17761e-09 -4.35675e-09 -0.000203774)
(3.3167e-09 5.22302e-09 -0.000203574)
(-1.88746e-09 1.29485e-08 -0.000211499)
(1.30771e-10 -9.55959e-09 -0.000211648)
(1.06896e-08 -7.35529e-10 -0.000211426)
(-9.98626e-09 4.49463e-10 -0.000211575)
(8.21267e-11 -9.45664e-09 -0.000211649)
(-1.83041e-09 1.28777e-08 -0.000211498)
(-9.89724e-09 4.37303e-10 -0.000211575)
(1.07753e-08 -7.649e-10 -0.000211425)
(-1.02666e-08 4.99721e-10 -0.000211418)
(9.76717e-09 -4.39917e-10 -0.000211565)
(2.05817e-09 -1.33562e-08 -0.0002115)
(-1.87769e-10 9.76046e-09 -0.00021165)
(9.49454e-09 -3.37591e-10 -0.000211565)
(-1.02476e-08 5.2871e-10 -0.000211417)
(-5.70538e-12 9.35038e-09 -0.000211651)
(1.99086e-09 -1.31697e-08 -0.0002115)
(2.85665e-09 -5.40118e-09 -0.000203568)
(-4.89212e-09 4.36648e-09 -0.000203766)
(5.43886e-09 4.17792e-09 -0.00020377)
(-2.64025e-09 -5.4676e-09 -0.000203571)
(-6.92426e-09 3.66914e-09 -0.000203763)
(2.31528e-09 -5.656e-09 -0.000203568)
(-2.48325e-09 -1.38541e-08 -0.000211498)
(4.808e-10 1.03604e-08 -0.00021165)
(-1.04831e-08 -7.91977e-10 -0.000211567)
(8.05988e-09 -8.28931e-10 -0.000211422)
(-9.34357e-10 7.60841e-09 -0.000211647)
(-2.94605e-09 -1.48284e-08 -0.000211499)
(-4.50609e-09 5.18618e-09 -0.000203772)
(4.98378e-09 -3.62204e-09 -0.000203974)
(5.27968e-09 2.95295e-09 -0.000203971)
(-4.50245e-09 -5.08422e-09 -0.000203768)
(4.97344e-09 -3.53357e-09 -0.000203974)
(-4.51352e-09 5.06911e-09 -0.000203772)
(4.11058e-09 -6.03545e-09 -0.000203768)
(-4.88118e-09 3.84173e-09 -0.000203969)
(4.46405e-09 5.249e-09 -0.000203774)
(-4.79928e-09 -4.06009e-09 -0.000203976)
(-5.45119e-09 2.24945e-09 -0.00020397)
(4.48886e-09 -5.11035e-09 -0.000203766)