/*--------------------------------*- C++ -*----------------------------------*\
| =========                 |                                                 |
| \\      /  F ield         | OpenFOAM: The Open Source CFD Toolbox           |
|  \\    /   O peration     | Version:  2206                                  |
|   \\  /    A nd           | Website:  www.openfoam.com                      |
|    \\/     M anipulation  |                                                 |
\*---------------------------------------------------------------------------*/
FoamFile
{
    version     2.0;
    format      ascii;
    arch        "LSB;label=32;scalar=64";
    class       volScalarField;
    location    "130";
    object      k;
}
// * * * * * * * * * * * * * * * * * * * * * * * * * * * * * * * * * * * * * //

dimensions      [0 2 -2 0 0 0 0];

internalField   nonuniform List<scalar> 
66616
(
3.59583e-05
3.82755e-05
3.82704e-05
3.95171e-05
3.51954e-05
3.9169e-05
3.90201e-05
4.08425e-05
3.47941e-05
4.03522e-05
4.0159e-05
4.29661e-05
3.45895e-05
4.12099e-05
4.10044e-05
4.42136e-05
3.44586e-05
4.16766e-05
4.14542e-05
4.44321e-05
3.44476e-05
4.2074e-05
4.18975e-05
4.45208e-05
3.45087e-05
4.29042e-05
4.26808e-05
4.56464e-05
3.48169e-05
4.42383e-05
4.39587e-05
4.73488e-05
3.53892e-05
4.58949e-05
4.55429e-05
4.91853e-05
3.61244e-05
4.78952e-05
4.75138e-05
5.13249e-05
3.71964e-05
5.00286e-05
4.97425e-05
5.41206e-05
3.82578e-05
5.28379e-05
5.24178e-05
5.6704e-05
3.939e-05
3.7889e-05
3.78884e-05
3.93918e-05
3.78957e-05
3.78859e-05
3.61563e-05
3.61552e-05
3.61563e-05
3.61583e-05
3.78988e-05
3.78902e-05
3.93928e-05
3.79017e-05
3.79026e-05
3.93946e-05
3.95112e-05
4.06491e-05
3.8282e-05
3.82879e-05
3.87288e-05
3.87166e-05
3.95132e-05
4.06493e-05
3.82826e-05
3.82958e-05
3.88631e-05
3.88678e-05
3.82962e-05
3.88779e-05
3.88715e-05
3.95139e-05
4.06511e-05
3.82819e-05
3.87319e-05
3.87248e-05
4.06527e-05
4.0834e-05
4.28475e-05
3.90262e-05
3.90362e-05
3.99021e-05
3.99055e-05
4.08465e-05
4.28357e-05
3.91866e-05
3.9195e-05
4.00777e-05
4.01026e-05
3.91968e-05
4.00946e-05
4.00955e-05
4.084e-05
4.28254e-05
3.9032e-05
3.99064e-05
3.98972e-05
4.28305e-05
4.29992e-05
4.4155e-05
4.01876e-05
4.02026e-05
4.08307e-05
4.08459e-05
4.29815e-05
4.4133e-05
4.03812e-05
4.04006e-05
4.10686e-05
4.10907e-05
4.0394e-05
4.10629e-05
4.10856e-05
4.29665e-05
4.42094e-05
4.018e-05
4.08534e-05
4.08216e-05
4.41429e-05
4.41995e-05
4.44182e-05
4.10154e-05
4.10491e-05
4.13255e-05
4.14294e-05
4.42036e-05
4.45845e-05
4.12561e-05
4.12985e-05
4.15961e-05
4.16464e-05
4.12848e-05
4.15933e-05
4.16195e-05
4.42589e-05
4.44136e-05
4.1016e-05
4.13932e-05
4.13903e-05
4.44988e-05
4.44297e-05
4.44516e-05
4.14406e-05
4.15507e-05
4.18214e-05
4.18225e-05
4.45051e-05
4.44478e-05
4.16958e-05
4.17651e-05
4.19423e-05
4.20574e-05
4.17224e-05
4.19396e-05
4.19666e-05
4.44262e-05
4.46043e-05
4.15227e-05
4.17763e-05
4.18124e-05
4.44863e-05
4.45007e-05
4.56584e-05
4.2005e-05
4.19738e-05
4.25007e-05
4.24797e-05
4.44802e-05
4.55456e-05
4.21071e-05
4.22168e-05
4.26414e-05
4.27028e-05
4.21228e-05
4.26526e-05
4.25935e-05
4.46274e-05
4.56622e-05
4.19816e-05
4.24683e-05
4.25221e-05
4.55564e-05
4.5811e-05
4.73951e-05
4.28126e-05
4.28114e-05
4.36721e-05
4.36597e-05
4.56645e-05
4.72515e-05
4.29685e-05
4.30055e-05
4.38505e-05
4.38769e-05
4.29231e-05
4.38702e-05
4.37572e-05
4.57934e-05
4.74372e-05
4.27937e-05
4.36557e-05
4.3661e-05
4.71899e-05
4.75297e-05
4.92343e-05
4.4123e-05
4.41149e-05
4.52028e-05
4.51701e-05
4.73984e-05
4.90652e-05
4.43338e-05
4.43573e-05
4.54865e-05
4.54827e-05
4.4237e-05
4.54208e-05
4.5387e-05
4.7586e-05
4.92573e-05
4.40924e-05
4.51895e-05
4.53285e-05
4.90391e-05
4.9368e-05
5.09232e-05
4.57118e-05
4.56893e-05
4.69307e-05
4.69895e-05
4.92835e-05
5.12772e-05
4.60505e-05
4.60736e-05
4.7195e-05
4.73492e-05
4.5948e-05
4.73649e-05
4.71577e-05
4.94843e-05
5.14917e-05
4.58027e-05
4.70229e-05
4.72837e-05
5.11531e-05
5.1101e-05
5.36705e-05
4.75116e-05
4.74793e-05
4.89622e-05
4.89749e-05
5.14578e-05
5.38134e-05
4.77882e-05
4.79664e-05
4.92987e-05
4.95303e-05
4.77704e-05
4.95652e-05
4.92707e-05
5.17045e-05
5.42319e-05
4.79174e-05
4.91e-05
4.97384e-05
5.38818e-05
5.4022e-05
5.66799e-05
4.97572e-05
4.96031e-05
5.15869e-05
5.13459e-05
5.41353e-05
5.72519e-05
4.98667e-05
5.00757e-05
5.17949e-05
5.20112e-05
4.98689e-05
5.23229e-05
5.1732e-05
5.4588e-05
5.69331e-05
5.04829e-05
5.15011e-05
5.27055e-05
5.64396e-05
5.71547e-05
5.24341e-05
5.20175e-05
5.76171e-05
5.22568e-05
5.24974e-05
5.21583e-05
5.74109e-05
5.29949e-05
3.58406e-05
3.6707e-05
3.61174e-05
3.61174e-05
3.95528e-05
3.74017e-05
4.68398e-05
3.65301e-05
3.95465e-05
3.74019e-05
3.65355e-05
4.68355e-05
3.81345e-05
4.78282e-05
4.78003e-05
4.90545e-05
2.04003e-05
4.92468e-05
1.71788e-05
2.16928e-05
1.38418e-05
4.90714e-05
2.04089e-05
4.92493e-05
1.71275e-05
3.59573e-05
3.59585e-05
3.59605e-05
3.53443e-05
3.53431e-05
3.53416e-05
3.53427e-05
4.4425e-05
4.68558e-05
3.71257e-05
3.83931e-05
4.34128e-05
4.53366e-05
3.70605e-05
2.17255e-05
1.38443e-05
4.44299e-05
3.7142e-05
4.68461e-05
3.83923e-05
4.34295e-05
3.70798e-05
4.53992e-05
3.91223e-05
3.91073e-05
3.97898e-05
3.4778e-05
3.47898e-05
4.51493e-05
1.31677e-05
4.67177e-05
1.29563e-05
1.02851e-05
1.0181e-05
4.45325e-05
1.29192e-05
4.65549e-05
1.27255e-05
3.5195e-05
3.51981e-05
3.52018e-05
3.48753e-05
3.48794e-05
3.48826e-05
3.4883e-05
4.67201e-05
4.21302e-05
3.711e-05
3.95e-05
4.61494e-05
4.00114e-05
3.7162e-05
1.02223e-05
1.00964e-05
4.6561e-05
3.68885e-05
4.23749e-05
3.93312e-05
4.59214e-05
3.69101e-05
4.04747e-05
2.8701e-05
2.8928e-05
4.17519e-05
2.63312e-05
2.6663e-05
4.11863e-05
1.30427e-05
4.27946e-05
1.29417e-05
9.89456e-06
9.55826e-06
4.03841e-05
1.29052e-05
4.21391e-05
1.27782e-05
3.47938e-05
3.48016e-05
3.48072e-05
3.46358e-05
3.4636e-05
3.46497e-05
3.46496e-05
4.66885e-05
3.7674e-05
3.743e-05
4.06289e-05
4.7013e-05
3.60814e-05
3.7537e-05
9.82186e-06
9.47357e-06
4.67967e-05
3.70873e-05
3.80316e-05
4.04255e-05
4.70237e-05
3.71706e-05
3.65628e-05
2.4364e-05
2.4644e-05
4.36354e-05
2.31597e-05
2.34472e-05
3.76142e-05
1.27131e-05
3.88655e-05
1.25719e-05
9.12029e-06
8.85372e-06
3.67413e-05
1.25911e-05
3.81316e-05
1.24114e-05
3.45983e-05
3.46095e-05
3.4613e-05
3.4494e-05
3.45234e-05
3.45202e-05
3.45475e-05
4.47943e-05
3.44538e-05
3.78283e-05
4.13767e-05
4.55852e-05
3.36273e-05
3.78951e-05
9.03773e-06
8.75561e-06
4.51001e-05
3.74245e-05
3.48298e-05
4.11769e-05
4.57678e-05
3.75053e-05
3.40336e-05
2.18984e-05
2.21696e-05
4.44475e-05
2.10965e-05
2.1394e-05
3.61093e-05
1.25021e-05
3.65411e-05
1.25031e-05
8.61091e-06
8.50145e-06
3.50953e-05
1.22872e-05
3.56509e-05
1.22451e-05
3.44753e-05
3.45175e-05
3.4542e-05
3.44311e-05
3.44476e-05
3.44955e-05
3.4536e-05
4.42797e-05
3.30789e-05
3.80687e-05
4.17673e-05
4.42104e-05
3.3024e-05
3.81104e-05
8.49928e-06
8.3608e-06
4.48379e-05
3.76562e-05
3.34356e-05
4.15672e-05
4.46677e-05
3.7717e-05
3.33481e-05
2.04379e-05
2.07419e-05
4.43576e-05
2.00734e-05
2.04213e-05
3.6256e-05
1.27232e-05
3.59115e-05
1.28361e-05
8.47202e-06
8.49003e-06
3.5537e-05
1.24143e-05
3.52013e-05
1.25122e-05
3.44502e-05
3.44869e-05
3.45244e-05
3.4471e-05
3.44659e-05
3.4518e-05
3.45472e-05
4.5731e-05
3.35507e-05
3.83258e-05
4.22374e-05
4.51603e-05
3.38231e-05
3.84333e-05
8.29354e-06
8.29736e-06
4.62012e-05
3.79752e-05
3.40413e-05
4.20675e-05
4.55752e-05
3.80929e-05
3.43837e-05
1.98916e-05
2.02984e-05
4.49175e-05
1.9957e-05
2.03657e-05
3.77454e-05
1.31974e-05
3.72573e-05
1.33813e-05
8.65077e-06
8.72141e-06
3.65777e-05
1.28678e-05
3.61633e-05
1.30249e-05
3.45078e-05
3.45576e-05
3.45824e-05
3.47385e-05
3.47362e-05
3.47528e-05
3.47423e-05
4.77612e-05
3.49685e-05
3.88972e-05
4.31987e-05
4.6958e-05
3.54152e-05
3.91014e-05
8.44659e-06
8.52556e-06
4.808e-05
3.86507e-05
3.53622e-05
4.29945e-05
4.744e-05
3.89103e-05
3.58626e-05
2.03738e-05
2.07909e-05
4.62279e-05
2.05495e-05
2.09598e-05
3.94402e-05
1.38846e-05
3.89476e-05
1.41035e-05
8.95594e-06
9.06995e-06
3.82046e-05
1.35509e-05
3.7736e-05
1.37445e-05
3.48741e-05
3.4857e-05
3.4888e-05
3.52429e-05
3.52659e-05
3.52646e-05
3.53841e-05
5.03066e-05
3.6661e-05
3.98056e-05
4.46069e-05
4.94678e-05
3.72626e-05
4.00404e-05
8.78924e-06
8.903e-06
5.04616e-05
3.95353e-05
3.71856e-05
4.43681e-05
4.96513e-05
3.96582e-05
3.77232e-05
2.1146e-05
2.15974e-05
4.81549e-05
2.1487e-05
2.1903e-05
4.13132e-05
1.45094e-05
4.0699e-05
1.47335e-05
9.31388e-06
9.43488e-06
4.01963e-05
1.42046e-05
3.96372e-05
1.43752e-05
3.54316e-05
3.55232e-05
3.5581e-05
3.59792e-05
3.59316e-05
3.60705e-05
3.60175e-05
5.31011e-05
3.86103e-05
4.0999e-05
4.63279e-05
5.2118e-05
3.92735e-05
4.1299e-05
9.19415e-06
9.3041e-06
5.3393e-05
4.00931e-05
3.91054e-05
4.60395e-05
5.21926e-05
4.03447e-05
3.99442e-05
2.22094e-05
2.2608e-05
5.01642e-05
2.24713e-05
2.28971e-05
4.38667e-05
1.5405e-05
4.30129e-05
1.57501e-05
9.78815e-06
9.96991e-06
4.22826e-05
1.49775e-05
4.16753e-05
1.52099e-05
3.61076e-05
3.62149e-05
3.62029e-05
3.69798e-05
3.6907e-05
3.6784e-05
3.70035e-05
5.65093e-05
4.11148e-05
4.24961e-05
4.84168e-05
5.51741e-05
4.1843e-05
4.30464e-05
9.69519e-06
9.85412e-06
5.64903e-05
4.12118e-05
4.17378e-05
4.80066e-05
5.53271e-05
4.1606e-05
4.25941e-05
2.34322e-05
2.38319e-05
5.24469e-05
2.38007e-05
2.42481e-05
4.65587e-05
1.64165e-05
4.55991e-05
1.6775e-05
1.04261e-05
1.06297e-05
4.50693e-05
1.59093e-05
4.41392e-05
1.62411e-05
3.71981e-05
3.69343e-05
3.72905e-05
3.81283e-05
3.8083e-05
3.78027e-05
3.83376e-05
5.98464e-05
4.37595e-05
4.36542e-05
5.0856e-05
5.87352e-05
4.47348e-05
4.39443e-05
1.02662e-05
1.04436e-05
6.05916e-05
4.26535e-05
4.42293e-05
5.02752e-05
5.90373e-05
4.31731e-05
4.5154e-05
2.48949e-05
2.5234e-05
5.5326e-05
2.52984e-05
2.57237e-05
4.91173e-05
1.75279e-05
4.859e-05
1.77714e-05
1.10394e-05
1.12602e-05
1.70576e-05
4.72397e-05
3.82381e-05
3.7972e-05
3.85108e-05
6.41084e-05
4.67821e-05
4.51254e-05
5.40709e-05
6.2548e-05
4.79901e-05
4.59482e-05
1.0879e-05
6.37646e-05
4.44242e-05
4.72856e-05
6.27122e-05
4.5197e-05
2.63928e-05
2.69616e-05
5.8113e-05
2.71154e-05
2.75104e-05
3.81303e-05
4.78479e-05
4.78546e-05
8.03272e-06
3.50366e-05
8.00834e-06
3.50356e-05
3.85221e-05
3.81956e-05
3.81996e-05
4.90973e-05
4.91037e-05
3.95476e-05
3.7398e-05
4.6843e-05
3.65353e-05
3.95468e-05
3.73992e-05
4.6838e-05
3.65333e-05
4.3347e-05
3.2402e-06
4.07587e-05
4.88011e-05
4.33469e-05
3.23345e-06
4.07361e-05
4.88016e-05
4.05429e-05
3.75011e-05
4.72801e-05
3.72272e-05
4.88559e-05
3.64791e-05
4.30245e-05
4.05434e-05
3.75022e-05
4.72531e-05
3.72261e-05
4.88527e-05
3.6477e-05
4.30191e-05
3.81317e-05
4.78297e-05
4.7824e-05
8.0097e-06
3.50008e-05
3.85244e-05
3.81665e-05
3.82008e-05
4.91315e-05
4.90566e-05
8.03588e-06
3.50001e-05
3.95492e-05
3.7401e-05
4.68531e-05
3.65353e-05
3.95522e-05
3.73978e-05
3.65344e-05
4.68317e-05
4.33422e-05
3.253e-06
4.07905e-05
4.88313e-05
4.05317e-05
3.75015e-05
4.72852e-05
3.72284e-05
4.88653e-05
3.64796e-05
4.30275e-05
4.33429e-05
3.24184e-06
4.07415e-05
4.88209e-05
4.05342e-05
3.75013e-05
3.72282e-05
4.72777e-05
3.64786e-05
4.88462e-05
4.3029e-05
3.58418e-05
3.67061e-05
3.6115e-05
3.61181e-05
3.58418e-05
3.67064e-05
3.61163e-05
3.61161e-05
3.5842e-05
3.67089e-05
3.61181e-05
3.61176e-05
3.56702e-05
3.67256e-05
3.55608e-05
3.55527e-05
3.60034e-05
3.60011e-05
3.51579e-05
3.56712e-05
3.67244e-05
3.55589e-05
3.55514e-05
3.6001e-05
3.6001e-05
3.51584e-05
3.56711e-05
3.67248e-05
3.55468e-05
3.5564e-05
3.59981e-05
3.6004e-05
3.51582e-05
3.56715e-05
3.67272e-05
3.55478e-05
3.55649e-05
3.59995e-05
3.60053e-05
3.51591e-05
3.95517e-05
3.74007e-05
3.65333e-05
4.68422e-05
4.05342e-05
3.75026e-05
4.72828e-05
3.72561e-05
4.886e-05
3.65001e-05
4.30326e-05
4.33458e-05
3.24559e-06
4.07788e-05
4.88484e-05
4.05336e-05
3.75042e-05
3.72285e-05
4.72743e-05
3.64798e-05
4.8858e-05
4.30289e-05
4.33451e-05
3.2427e-06
4.07572e-05
4.88275e-05
3.81316e-05
4.78069e-05
4.78063e-05
8.01118e-06
3.49859e-05
3.85247e-05
3.81866e-05
3.81838e-05
4.91077e-05
4.90524e-05
8.02731e-06
3.49738e-05
3.9547e-05
3.74046e-05
3.65347e-05
4.68277e-05
4.05428e-05
3.75027e-05
3.72282e-05
4.72664e-05
3.64795e-05
4.88449e-05
4.30224e-05
4.05442e-05
3.75054e-05
3.72289e-05
4.72709e-05
3.64788e-05
4.88399e-05
4.30189e-05
4.33515e-05
3.23993e-06
4.07329e-05
4.88034e-05
4.33519e-05
3.24024e-06
4.07223e-05
4.88231e-05
3.85262e-05
3.81959e-05
3.81668e-05
4.91301e-05
4.90991e-05
8.00801e-06
3.50147e-05
8.02614e-06
3.49834e-05
2.16822e-05
1.38363e-05
2.17339e-05
1.38488e-05
3.91246e-05
3.91278e-05
3.9784e-05
3.47756e-05
3.48146e-05
1.03367e-05
1.19166e-05
1.0251e-05
1.19595e-05
3.99875e-05
2.97343e-05
2.94457e-05
3.3566e-05
3.35945e-05
4.90503e-05
2.0401e-05
4.92416e-05
1.71809e-05
4.44324e-05
4.68569e-05
3.71406e-05
3.83863e-05
4.34297e-05
4.53762e-05
3.70778e-05
4.44187e-05
4.68408e-05
3.714e-05
3.83816e-05
4.34302e-05
4.53807e-05
3.70767e-05
4.87814e-05
1.33859e-05
1.53694e-05
4.70967e-05
4.87777e-05
1.33871e-05
1.53653e-05
4.70915e-05
4.49042e-05
3.85362e-05
4.29053e-05
3.68462e-05
4.48366e-05
3.69871e-05
4.5647e-05
4.49022e-05
3.85425e-05
4.29042e-05
3.68439e-05
4.48334e-05
3.69861e-05
4.56542e-05
3.91011e-05
3.91315e-05
3.97855e-05
3.47746e-05
3.47721e-05
2.16926e-05
1.38232e-05
1.03435e-05
1.19227e-05
3.99888e-05
2.97249e-05
2.9412e-05
3.35668e-05
3.35426e-05
1.02288e-05
1.19348e-05
4.44179e-05
4.68551e-05
3.7144e-05
3.83804e-05
4.34073e-05
4.53508e-05
3.70699e-05
4.90672e-05
2.04141e-05
4.92412e-05
1.71421e-05
4.44171e-05
3.71435e-05
4.68575e-05
3.83797e-05
4.34091e-05
3.70649e-05
4.53554e-05
4.87882e-05
1.30781e-05
1.54264e-05
4.6963e-05
4.49036e-05
3.85453e-05
4.25934e-05
3.70624e-05
4.49294e-05
3.70278e-05
4.5828e-05
4.87872e-05
1.3087e-05
1.54404e-05
4.69763e-05
4.49019e-05
3.85455e-05
3.70564e-05
4.26063e-05
3.70222e-05
4.49427e-05
4.58309e-05
4.90871e-05
2.04145e-05
4.92561e-05
1.71286e-05
4.44191e-05
3.71439e-05
4.6848e-05
3.83843e-05
4.34085e-05
3.70654e-05
4.53388e-05
4.90717e-05
2.04085e-05
4.92464e-05
1.7135e-05
4.49064e-05
3.85307e-05
4.25708e-05
3.70609e-05
4.48996e-05
3.70244e-05
4.58252e-05
4.8811e-05
1.30687e-05
1.54213e-05
4.69785e-05
4.49033e-05
3.85498e-05
3.70565e-05
4.25813e-05
3.70235e-05
4.49146e-05
4.58245e-05
4.87929e-05
1.30748e-05
1.54335e-05
4.69694e-05
3.913e-05
3.91196e-05
3.97851e-05
3.48175e-05
3.47846e-05
2.16617e-05
1.38386e-05
1.0249e-05
1.19607e-05
3.99905e-05
2.94504e-05
2.97444e-05
3.3618e-05
3.35698e-05
1.03416e-05
1.19178e-05
4.44202e-05
3.71435e-05
4.68482e-05
3.83894e-05
4.34295e-05
3.70812e-05
4.53993e-05
4.90586e-05
2.03877e-05
4.92497e-05
1.71897e-05
4.90576e-05
2.0391e-05
4.92481e-05
1.71894e-05
4.48962e-05
3.85329e-05
3.68926e-05
4.29127e-05
3.69907e-05
4.48293e-05
4.56578e-05
4.49002e-05
3.8545e-05
3.68952e-05
4.29325e-05
3.69924e-05
4.48575e-05
4.56723e-05
4.87916e-05
1.33895e-05
1.53707e-05
4.70906e-05
4.87884e-05
1.33926e-05
1.53744e-05
4.71023e-05
2.16969e-05
1.38179e-05
2.16655e-05
1.38462e-05
3.99905e-05
2.94026e-05
2.97234e-05
3.35542e-05
3.35593e-05
1.02243e-05
1.19314e-05
1.03456e-05
1.19225e-05
1.02794e-05
1.01765e-05
1.02252e-05
1.0102e-05
2.89575e-05
2.87501e-05
4.17621e-05
2.66746e-05
2.63685e-05
9.94155e-06
1.01627e-05
9.8755e-06
1.00981e-05
4.19555e-05
2.48449e-05
2.45771e-05
2.63519e-05
2.60857e-05
4.51539e-05
1.31647e-05
4.67733e-05
1.2977e-05
4.65419e-05
4.23669e-05
3.68794e-05
3.93241e-05
4.59016e-05
4.04669e-05
3.69023e-05
4.65459e-05
4.23757e-05
3.68808e-05
3.93203e-05
4.59246e-05
4.04535e-05
3.69042e-05
4.47768e-05
1.30647e-05
1.30039e-05
4.32e-05
4.4818e-05
1.30246e-05
1.30078e-05
4.31915e-05
4.67327e-05
3.96206e-05
3.84102e-05
3.7007e-05
4.00357e-05
3.70054e-05
4.69427e-05
4.67394e-05
3.96375e-05
3.84042e-05
3.69947e-05
4.00326e-05
3.69866e-05
4.69494e-05
2.89514e-05
2.87104e-05
4.17755e-05
2.66541e-05
2.63569e-05
1.02038e-05
1.0087e-05
9.94662e-06
1.01665e-05
4.19615e-05
2.48395e-05
2.45643e-05
2.63472e-05
2.60686e-05
9.85819e-06
1.00833e-05
4.67102e-05
4.21524e-05
3.71143e-05
3.94832e-05
4.615e-05
4.00255e-05
3.71627e-05
4.45581e-05
1.29322e-05
4.65776e-05
1.27242e-05
4.67132e-05
3.71044e-05
4.2173e-05
3.9499e-05
4.61489e-05
3.71579e-05
4.00235e-05
4.42207e-05
1.28356e-05
1.28048e-05
4.2432e-05
4.68629e-05
3.97952e-05
3.79603e-05
3.73244e-05
3.97149e-05
3.72476e-05
4.6988e-05
4.42465e-05
1.28411e-05
1.27999e-05
4.24468e-05
4.68685e-05
3.98132e-05
3.73232e-05
3.79399e-05
3.72384e-05
3.9709e-05
4.6997e-05
4.45675e-05
1.29121e-05
4.65871e-05
1.27146e-05
4.6715e-05
3.71078e-05
4.2138e-05
3.94971e-05
4.61491e-05
3.71577e-05
4.0007e-05
4.45556e-05
1.29203e-05
4.65733e-05
1.27335e-05
4.688e-05
3.97775e-05
3.79422e-05
3.73257e-05
3.97042e-05
3.72409e-05
4.70123e-05
4.4261e-05
1.28171e-05
1.27766e-05
4.24724e-05
4.68691e-05
3.98047e-05
3.73201e-05
3.79349e-05
3.72397e-05
3.96924e-05
4.70128e-05
4.42468e-05
1.28108e-05
1.27738e-05
4.24571e-05
2.87527e-05
2.89634e-05
4.17772e-05
2.63614e-05
2.66768e-05
1.02831e-05
1.01816e-05
9.86461e-06
1.00916e-05
4.19606e-05
2.45665e-05
2.48535e-05
2.60775e-05
2.63591e-05
9.94463e-06
1.01675e-05
4.6575e-05
3.68965e-05
4.24046e-05
3.93196e-05
4.5937e-05
3.69268e-05
4.04787e-05
4.5171e-05
1.31707e-05
4.67788e-05
1.29756e-05
4.51845e-05
1.31714e-05
4.67991e-05
1.29712e-05
4.67612e-05
3.96058e-05
3.70262e-05
3.84104e-05
3.6969e-05
4.00573e-05
4.6977e-05
4.67686e-05
3.96252e-05
3.70162e-05
3.84155e-05
3.69835e-05
4.00557e-05
4.69798e-05
4.48485e-05
1.3011e-05
1.29992e-05
4.32109e-05
4.48561e-05
1.30601e-05
1.29935e-05
4.32002e-05
1.01983e-05
1.00769e-05
1.02851e-05
1.01876e-05
4.1928e-05
2.45595e-05
2.48627e-05
2.60511e-05
2.63484e-05
9.84993e-06
1.00716e-05
9.96015e-06
1.01744e-05
9.88668e-06
9.54047e-06
9.83429e-06
9.48506e-06
2.46246e-05
2.43802e-05
4.36344e-05
2.34228e-05
2.31749e-05
9.15457e-06
9.47953e-06
9.08814e-06
9.43187e-06
4.37516e-05
2.22946e-05
2.20365e-05
2.32514e-05
2.3023e-05
4.11767e-05
1.30562e-05
4.28253e-05
1.29154e-05
4.67685e-05
3.80435e-05
3.70658e-05
4.04296e-05
4.69896e-05
3.65646e-05
3.71343e-05
4.67842e-05
3.80479e-05
3.7066e-05
4.04275e-05
4.69991e-05
3.65761e-05
3.71408e-05
4.07933e-05
1.27332e-05
1.29099e-05
3.91992e-05
4.08098e-05
1.27403e-05
1.28652e-05
3.92023e-05
4.66561e-05
4.06628e-05
3.50467e-05
3.72895e-05
3.62372e-05
3.72114e-05
4.5991e-05
4.66717e-05
4.0677e-05
3.50781e-05
3.73014e-05
3.62606e-05
3.72254e-05
4.59863e-05
2.46233e-05
2.4365e-05
4.36296e-05
2.34456e-05
2.31544e-05
9.81587e-06
9.46641e-06
9.17178e-06
9.49351e-06
4.37395e-05
2.23202e-05
2.20261e-05
2.3276e-05
2.3003e-05
9.07611e-06
9.41362e-06
4.66911e-05
3.76965e-05
3.744e-05
4.06216e-05
4.69927e-05
3.61153e-05
3.75332e-05
4.03883e-05
1.28744e-05
4.21525e-05
1.2775e-05
4.66941e-05
3.74232e-05
3.76726e-05
4.06455e-05
4.6998e-05
3.75184e-05
3.60868e-05
4.01019e-05
1.25997e-05
1.27839e-05
3.83825e-05
4.65775e-05
4.0876e-05
3.46165e-05
3.77469e-05
3.58926e-05
3.76615e-05
4.58003e-05
4.01053e-05
1.25927e-05
1.27675e-05
3.839e-05
4.6578e-05
4.08988e-05
3.77302e-05
3.46036e-05
3.76382e-05
3.58623e-05
4.57766e-05
4.04163e-05
1.28793e-05
4.21787e-05
1.27541e-05
4.66989e-05
3.74319e-05
3.76723e-05
4.06397e-05
4.70028e-05
3.75242e-05
3.60812e-05
4.0423e-05
1.28768e-05
4.21647e-05
1.2787e-05
4.65521e-05
4.08381e-05
3.45954e-05
3.77424e-05
3.58591e-05
3.76505e-05
4.57566e-05
4.01358e-05
1.25845e-05
1.27669e-05
3.84568e-05
4.65892e-05
4.09047e-05
3.77286e-05
3.45561e-05
3.76455e-05
3.58527e-05
4.5834e-05
4.015e-05
1.25788e-05
1.27803e-05
3.85078e-05
2.4369e-05
2.4632e-05
4.36236e-05
2.31635e-05
2.34282e-05
9.88964e-06
9.54827e-06
9.08181e-06
9.4205e-06
4.3725e-05
2.20353e-05
2.22786e-05
2.30118e-05
2.3255e-05
9.155e-06
9.48505e-06
4.67563e-05
3.70897e-05
3.80656e-05
4.04113e-05
4.70128e-05
3.71625e-05
3.66076e-05
4.1205e-05
1.30395e-05
4.28496e-05
1.29585e-05
4.11669e-05
1.30339e-05
4.28474e-05
1.29744e-05
4.66586e-05
4.06293e-05
3.73484e-05
3.50479e-05
3.7253e-05
3.62151e-05
4.59594e-05
4.663e-05
4.06564e-05
3.73336e-05
3.5123e-05
3.72498e-05
3.63037e-05
4.5947e-05
4.08316e-05
1.27463e-05
1.29072e-05
3.92596e-05
4.07716e-05
1.27361e-05
1.29442e-05
3.9172e-05
9.80956e-06
9.46371e-06
9.90622e-06
9.56741e-06
4.375e-05
2.20141e-05
2.23019e-05
2.30056e-05
2.32744e-05
9.06431e-06
9.41012e-06
9.16915e-06
9.50576e-06
9.10271e-06
8.83663e-06
9.04268e-06
8.75377e-06
2.21674e-05
2.19237e-05
4.44279e-05
2.14112e-05
2.1129e-05
8.61849e-06
8.80091e-06
8.51799e-06
8.7213e-06
4.45255e-05
2.08226e-05
2.05178e-05
2.13288e-05
2.10569e-05
3.76231e-05
1.2717e-05
3.88722e-05
1.25754e-05
4.51009e-05
3.48309e-05
3.73888e-05
4.11276e-05
4.57905e-05
3.40514e-05
3.74838e-05
4.51099e-05
3.4846e-05
3.7386e-05
4.11722e-05
4.57995e-05
3.40719e-05
3.74589e-05
3.73856e-05
1.24973e-05
1.25693e-05
3.6621e-05
3.74055e-05
1.2495e-05
1.25717e-05
3.66711e-05
4.49808e-05
4.12603e-05
3.3574e-05
3.76934e-05
3.39752e-05
3.7604e-05
4.45454e-05
4.49882e-05
4.13422e-05
3.35649e-05
3.7609e-05
3.39916e-05
3.75481e-05
4.45667e-05
2.2191e-05
2.19147e-05
4.4463e-05
2.14362e-05
2.11424e-05
9.03151e-06
8.75324e-06
8.63305e-06
8.81701e-06
4.45201e-05
2.08431e-05
2.05391e-05
2.13611e-05
2.10659e-05
8.52108e-06
8.72225e-06
4.47819e-05
3.44736e-05
3.78552e-05
4.13906e-05
4.56158e-05
3.35984e-05
3.79092e-05
3.6772e-05
1.25849e-05
3.81399e-05
1.24114e-05
4.48132e-05
3.78314e-05
3.44622e-05
4.14201e-05
4.55972e-05
3.79024e-05
3.36082e-05
3.65905e-05
1.22775e-05
1.24105e-05
3.57204e-05
4.46605e-05
4.15271e-05
3.30286e-05
3.80283e-05
3.35317e-05
3.79902e-05
4.41805e-05
3.66363e-05
1.22883e-05
1.2412e-05
3.58196e-05
4.47012e-05
4.1579e-05
3.80342e-05
3.311e-05
3.79786e-05
3.35249e-05
4.42918e-05
3.68315e-05
1.25864e-05
3.82119e-05
1.24136e-05
4.48591e-05
3.78302e-05
3.44063e-05
4.14098e-05
4.56597e-05
3.78934e-05
3.35446e-05
3.68772e-05
1.25763e-05
3.82668e-05
1.23933e-05
4.46875e-05
4.14877e-05
3.31606e-05
3.80036e-05
3.35774e-05
3.79635e-05
4.42674e-05
3.6682e-05
1.22969e-05
1.24169e-05
3.58381e-05
4.47302e-05
4.15578e-05
3.80002e-05
3.30044e-05
3.79653e-05
3.34851e-05
4.42532e-05
3.67236e-05
1.2264e-05
1.23951e-05
3.58718e-05
2.1924e-05
2.21452e-05
4.45264e-05
2.11464e-05
2.13634e-05
9.10071e-06
8.82094e-06
8.52044e-06
8.72356e-06
4.45149e-05
2.0531e-05
2.07453e-05
2.10737e-05
2.12748e-05
8.58949e-06
8.78185e-06
4.50725e-05
3.74322e-05
3.48997e-05
4.11413e-05
4.57584e-05
3.75193e-05
3.41291e-05
3.76567e-05
1.27194e-05
3.89299e-05
1.25626e-05
3.75947e-05
1.27113e-05
3.88365e-05
1.25806e-05
4.48897e-05
4.128e-05
3.76151e-05
3.35692e-05
3.75604e-05
3.39349e-05
4.46145e-05
4.49427e-05
4.1299e-05
3.77277e-05
3.36046e-05
3.76282e-05
3.40462e-05
4.45702e-05
3.74194e-05
1.24795e-05
1.25559e-05
3.66821e-05
3.73716e-05
1.25029e-05
1.25778e-05
3.66694e-05
9.01837e-06
8.72815e-06
9.11589e-06
8.8432e-06
4.4511e-05
2.04659e-05
2.07805e-05
2.10245e-05
2.13063e-05
8.48691e-06
8.69574e-06
8.61662e-06
8.8056e-06
8.59742e-06
8.48533e-06
8.49715e-06
8.36252e-06
2.07831e-05
2.04826e-05
4.42995e-05
2.04653e-05
2.01429e-05
8.40925e-06
8.47199e-06
8.30459e-06
8.36236e-06
4.43013e-05
2.02286e-05
1.99493e-05
2.04683e-05
2.01477e-05
3.62067e-05
1.24954e-05
3.65679e-05
1.25083e-05
4.44961e-05
3.34624e-05
3.78267e-05
4.15351e-05
4.45434e-05
3.34843e-05
3.78817e-05
4.45182e-05
3.34598e-05
3.76802e-05
4.16173e-05
4.45326e-05
3.34787e-05
3.77186e-05
3.60369e-05
1.26411e-05
1.25675e-05
3.5886e-05
3.60695e-05
1.26741e-05
1.25742e-05
3.58296e-05
4.46414e-05
4.17137e-05
3.38768e-05
3.79629e-05
3.35701e-05
3.794e-05
4.50643e-05
4.46731e-05
4.17296e-05
3.40299e-05
3.78686e-05
3.37031e-05
3.78057e-05
4.50598e-05
2.07947e-05
2.04989e-05
4.44071e-05
2.04448e-05
2.01168e-05
8.49959e-06
8.35494e-06
8.45489e-06
8.47194e-06
4.43729e-05
2.03183e-05
1.98916e-05
2.04253e-05
2.01381e-05
8.28379e-06
8.35171e-06
4.41692e-05
3.30059e-05
3.80856e-05
4.17498e-05
4.41611e-05
3.29649e-05
3.81231e-05
3.51658e-05
1.22979e-05
3.57434e-05
1.22572e-05
4.42358e-05
3.80994e-05
3.29941e-05
4.18332e-05
4.42602e-05
3.81571e-05
3.29938e-05
3.51495e-05
1.23413e-05
1.23045e-05
3.49852e-05
4.43828e-05
4.1866e-05
3.33156e-05
3.82449e-05
3.31492e-05
3.81904e-05
4.49021e-05
3.52202e-05
1.23234e-05
1.22899e-05
3.511e-05
4.44479e-05
4.19591e-05
3.83389e-05
3.31791e-05
3.82213e-05
3.30123e-05
4.48193e-05
3.52136e-05
1.23068e-05
3.57758e-05
1.22676e-05
4.41371e-05
3.80594e-05
3.29885e-05
4.17818e-05
4.42184e-05
3.80965e-05
3.2886e-05
3.53405e-05
1.2273e-05
3.58007e-05
1.22275e-05
4.44487e-05
4.18462e-05
3.32848e-05
3.82338e-05
3.30782e-05
3.81703e-05
4.49122e-05
3.52508e-05
1.23432e-05
1.23034e-05
3.50154e-05
4.43063e-05
4.18943e-05
3.82161e-05
3.30984e-05
3.81665e-05
3.30193e-05
4.47737e-05
3.51547e-05
1.22969e-05
1.22622e-05
3.49923e-05
2.04865e-05
2.07023e-05
4.43856e-05
2.01058e-05
2.03886e-05
8.56735e-06
8.44974e-06
8.28469e-06
8.35043e-06
4.43933e-05
1.99138e-05
2.01809e-05
2.00928e-05
2.02702e-05
8.38399e-06
8.43334e-06
4.47507e-05
3.78492e-05
3.35471e-05
4.15928e-05
4.45492e-05
3.79857e-05
3.35234e-05
3.62525e-05
1.24874e-05
3.66088e-05
1.2476e-05
3.62269e-05
1.25057e-05
3.65934e-05
1.25286e-05
4.49892e-05
4.16471e-05
3.7865e-05
3.38128e-05
3.77631e-05
3.35018e-05
4.53872e-05
4.49571e-05
4.17289e-05
3.80025e-05
3.38982e-05
3.80176e-05
3.36541e-05
4.53724e-05
3.62131e-05
1.25948e-05
1.25124e-05
3.59272e-05
3.61997e-05
1.26524e-05
1.25781e-05
3.59047e-05
8.46956e-06
8.32985e-06
8.59651e-06
8.48786e-06
4.43621e-05
1.98738e-05
2.02222e-05
2.00756e-05
2.04268e-05
8.25097e-06
8.32424e-06
8.42129e-06
8.47939e-06
8.41494e-06
8.42335e-06
8.32284e-06
8.33745e-06
2.03013e-05
2.00593e-05
4.49357e-05
2.028e-05
2.01035e-05
8.50849e-06
8.46484e-06
8.43034e-06
8.38199e-06
4.50351e-05
2.05157e-05
2.03227e-05
2.04278e-05
2.0245e-05
3.62617e-05
1.27646e-05
3.60091e-05
1.28973e-05
4.59321e-05
3.41275e-05
3.80785e-05
4.21161e-05
4.5302e-05
3.44842e-05
3.81803e-05
4.58998e-05
3.42877e-05
3.80047e-05
4.20791e-05
4.53002e-05
3.46896e-05
3.80978e-05
3.6482e-05
1.30821e-05
1.29336e-05
3.69435e-05
3.65345e-05
1.31521e-05
1.30031e-05
3.6923e-05
4.62408e-05
4.23602e-05
3.51976e-05
3.85216e-05
3.47514e-05
3.83849e-05
4.68561e-05
4.61894e-05
4.23295e-05
3.54092e-05
3.83627e-05
3.49669e-05
3.82471e-05
4.68849e-05
2.0404e-05
1.99377e-05
4.48615e-05
2.04349e-05
1.9948e-05
8.29562e-06
8.30106e-06
8.58773e-06
8.53613e-06
4.49471e-05
2.06953e-05
2.02869e-05
2.05824e-05
2.01173e-05
8.39959e-06
8.34461e-06
4.57494e-05
3.35892e-05
3.83554e-05
4.22197e-05
4.51956e-05
3.39286e-05
3.84399e-05
3.54277e-05
1.23919e-05
3.5256e-05
1.24796e-05
4.56171e-05
3.84639e-05
3.34392e-05
4.23236e-05
4.50904e-05
3.85865e-05
3.37511e-05
3.57305e-05
1.27604e-05
1.2617e-05
3.5863e-05
4.60335e-05
4.24786e-05
3.46891e-05
3.87296e-05
3.42843e-05
3.86132e-05
4.65672e-05
3.56988e-05
1.27514e-05
1.25797e-05
3.59431e-05
4.59465e-05
4.2549e-05
3.88528e-05
3.45776e-05
3.876e-05
3.40979e-05
4.66147e-05
3.54117e-05
1.24166e-05
3.52066e-05
1.25061e-05
4.56779e-05
3.83234e-05
3.33812e-05
4.22236e-05
4.50574e-05
3.84004e-05
3.37339e-05
3.5429e-05
1.23696e-05
3.5179e-05
1.24632e-05
4.60238e-05
4.24128e-05
3.46015e-05
3.87377e-05
3.41592e-05
3.8566e-05
4.66699e-05
3.55751e-05
1.27379e-05
1.2621e-05
3.58559e-05
4.60383e-05
4.24517e-05
3.86937e-05
3.45349e-05
3.85681e-05
3.40907e-05
4.66195e-05
3.56338e-05
1.27349e-05
1.26037e-05
3.5947e-05
1.99252e-05
2.02563e-05
4.49649e-05
1.9969e-05
2.02958e-05
8.39847e-06
8.4211e-06
8.39155e-06
8.33602e-06
4.5041e-05
2.02006e-05
2.05504e-05
2.00559e-05
2.04322e-05
8.5018e-06
8.46103e-06
4.62443e-05
3.80346e-05
3.41463e-05
4.21023e-05
4.5614e-05
3.81181e-05
3.45679e-05
3.63293e-05
1.26697e-05
3.60467e-05
1.277e-05
3.63679e-05
1.27349e-05
3.60469e-05
1.28614e-05
4.64572e-05
4.22105e-05
3.84273e-05
3.50749e-05
3.82594e-05
3.46403e-05
4.71904e-05
4.65629e-05
4.23216e-05
3.84294e-05
3.54023e-05
3.82703e-05
3.48753e-05
4.72396e-05
3.65809e-05
1.2983e-05
1.2857e-05
3.69684e-05
3.66661e-05
1.31528e-05
1.29732e-05
3.7026e-05
8.26502e-06
8.27772e-06
8.44763e-06
8.46134e-06
4.49972e-05
2.01797e-05
2.06146e-05
2.00417e-05
2.05173e-05
8.37223e-06
8.31911e-06
8.56223e-06
8.50262e-06
8.57229e-06
8.64235e-06
8.47968e-06
8.55363e-06
2.0628e-05
2.0445e-05
4.65974e-05
2.08483e-05
2.0646e-05
8.85671e-06
8.73002e-06
8.73304e-06
8.63826e-06
4.67381e-05
2.1452e-05
2.11476e-05
2.11212e-05
2.08865e-05
3.77108e-05
1.32622e-05
3.72725e-05
1.34289e-05
4.79253e-05
3.54974e-05
3.86699e-05
4.30287e-05
4.71741e-05
3.60069e-05
3.88413e-05
4.80499e-05
3.57112e-05
3.85178e-05
4.30144e-05
4.72587e-05
3.62275e-05
3.86681e-05
3.80817e-05
1.3739e-05
1.35151e-05
3.86295e-05
3.8011e-05
1.37508e-05
1.35526e-05
3.85156e-05
4.83276e-05
4.34107e-05
3.70707e-05
3.90543e-05
3.63706e-05
3.89531e-05
4.92408e-05
4.83926e-05
4.34153e-05
3.71422e-05
3.9028e-05
3.65632e-05
3.88565e-05
4.91571e-05
2.08663e-05
2.04491e-05
4.63717e-05
2.10683e-05
2.0588e-05
8.46719e-06
8.52335e-06
8.87754e-06
8.78612e-06
4.65018e-05
2.14691e-05
2.10142e-05
2.12513e-05
2.08274e-05
8.68159e-06
8.59319e-06
4.76377e-05
3.50234e-05
3.89135e-05
4.3177e-05
4.69051e-05
3.54235e-05
3.90715e-05
3.65188e-05
1.28852e-05
3.61391e-05
1.30234e-05
4.76464e-05
3.90188e-05
3.49564e-05
4.32059e-05
4.6962e-05
3.91246e-05
3.54122e-05
3.68158e-05
1.33704e-05
1.31892e-05
3.72934e-05
4.80511e-05
4.36159e-05
3.64202e-05
3.9505e-05
3.58123e-05
3.93137e-05
4.88741e-05
3.69184e-05
1.33416e-05
1.31892e-05
3.74335e-05
4.80644e-05
4.36477e-05
3.94706e-05
3.62963e-05
3.93326e-05
3.5779e-05
4.89259e-05
3.6566e-05
1.28791e-05
3.60895e-05
1.3028e-05
4.75651e-05
3.89263e-05
3.48764e-05
4.31238e-05
4.6913e-05
3.91116e-05
3.52643e-05
3.64982e-05
1.28416e-05
3.61017e-05
1.29757e-05
4.81498e-05
4.35045e-05
3.62533e-05
3.95442e-05
3.57683e-05
3.92902e-05
4.90703e-05
3.70457e-05
1.33257e-05
1.31733e-05
3.75386e-05
4.80148e-05
4.35359e-05
3.95805e-05
3.60983e-05
3.93485e-05
3.56122e-05
4.89575e-05
3.69565e-05
1.32763e-05
1.30937e-05
3.74711e-05
2.03993e-05
2.0706e-05
4.6499e-05
2.05815e-05
2.09258e-05
8.55823e-06
8.64171e-06
8.69362e-06
8.5939e-06
4.66415e-05
2.10271e-05
2.14404e-05
2.08157e-05
2.11276e-05
8.82472e-06
8.71193e-06
4.81197e-05
3.85879e-05
3.57123e-05
4.30207e-05
4.75345e-05
3.88191e-05
3.61796e-05
3.77117e-05
1.30889e-05
3.72613e-05
1.32646e-05
3.77736e-05
1.32722e-05
3.73357e-05
1.34277e-05
4.8385e-05
4.32765e-05
3.93514e-05
3.68335e-05