/*--------------------------------*- C++ -*----------------------------------*\
| =========                 |                                                 |
| \\      /  F ield         | OpenFOAM: The Open Source CFD Toolbox           |
|  \\    /   O peration     | Version:  2206                                  |
|   \\  /    A nd           | Website:  www.openfoam.com                      |
|    \\/     M anipulation  |                                                 |
\*---------------------------------------------------------------------------*/
FoamFile
{
    version     2.0;
    format      ascii;
    arch        "LSB;label=32;scalar=64";
    class       volScalarField;
    location    "130";
    object      omega;
}
// * * * * * * * * * * * * * * * * * * * * * * * * * * * * * * * * * * * * * //

dimensions      [0 0 -1 0 0 0 0];

internalField   nonuniform List<scalar> 
66616
(
21.8136
23.2028
23.2566
24.0601
21.319
24.3922
24.1229
25.9086
20.9968
26.5416
26.1407
30.1339
21.0292
28.8958
28.3162
33.4718
21.2641
31.4468
30.7352
38.8516
21.4762
33.9119
33.0634
43.4282
21.8112
36.301
35.8747
45.3335
22.0709
37.9508
37.0812
46.6379
22.1129
39.156
38.098
48.0071
22.3545
40.1716
39.1158
49.1097
22.7271
41.1694
40.1013
50.5424
23.1729
42.4186
40.1106
52.21
23.9372
22.6062
22.6214
23.9264
22.6422
22.6295
21.9534
21.9543
21.954
21.9544
22.6379
22.6316
23.9276
22.6187
22.6346
23.9596
24.0443
25.6423
23.3067
23.2475
23.6184
23.6484
24.0355
25.596
23.1791
23.2038
23.8096
23.8432
23.2161
23.7909
23.8458
24.0385
25.6287
23.2228
23.5819
23.6325
25.6398
25.9329
29.1082
24.1503
24.0951
25.5522
25.549
25.828
29.2678
24.3468
24.3551
25.9031
25.8938
24.3686
25.8601
25.9373
25.8858
29.7883
24.0871
25.4982
25.5399
29.4358
29.4093
33.2373
26.1127
26.0248
27.9112
27.8217
29.5364
33.1178
26.4319
26.4676
28.1608
28.2187
26.4976
28.158
28.2266
30.3199
33.1566
26.0508
27.6863
27.7973
33.2035
33.5557
38.403
28.487
28.2982
31.1234
30.1867
33.3447
38.1498
28.7877
28.7464
30.7683
30.789
28.7964
30.7721
30.851
33.4322
38.3953
28.34
30.0722
30.1717
38.5151
38.8307
42.9001
32.4926
30.6687
32.7505
32.7456
38.5076
43.0688
31.3443
31.3922
33.3924
33.2539
31.4455
33.4608
33.5003
38.788
43.1736
30.705
32.5817
32.4801
42.458
42.6986
44.6979
33.0856
33.7124
35.2982
35.7025
42.6814
44.6304
34.0012
33.9823
35.6718
35.9749
34.0365
35.5472
36.6242
43.0075
44.5874
33.0285
34.8023
34.5787
45.0484
44.3199
45.496
35.608
35.818
36.6779
37.0543
43.8841
45.8159
36.8104
37.0961
37.8563
37.9183
36.8456
37.3498
38.0482
43.5383
45.6156
35.1658
36.0971
36.8331
45.6329
44.7101
46.7861
36.1376
36.7561
37.7477
37.8867
44.9628
46.8849
37.9022
37.8403
38.6208
38.8142
38.0995
38.1427
38.9269
44.5093
46.9382
36.5991
37.0722
37.1362
46.9348
46.0878
48.2837
37.4242
37.7764
38.3183
38.9165
46.193
48.4108
38.2198
38.651
39.9839
39.829
38.8887
39.1203
39.9552
45.6656
48.1592
37.9094
38.0315
38.9679
48.7802
48.0803
49.527
39.1081
38.7823
39.889
39.8295
48.1397
49.4781
39.6317
39.2908
40.8075
41.3699
40.0198
39.9664
41.044
46.9118
49.5494
38.2959
39.6789
39.3901
50.1294
49.1924
50.8781
39.4222
39.3484
40.8078
40.7913
48.6146
50.7199
40.6143
41.3015
41.4871
42.4872
41.0061
41.7208
41.8453
49.0784
50.8097
40.1874
41.004
40.3785
51.1412
50.5513
40.5111
40.778
50.0764
42.1559
42.4628
42.0244
50.2731
40.1984
22.0903
22.2442
22.143
22.1435
23.7528
22.4435
56.4523
22.2155
23.7183
22.4447
22.2159
56.6502
22.7639
124.801
124.753
111.737
666.123
94.6124
431.687
523.587
543.796
112.02
666.3
94.5111
431.594
21.8116
21.8135
21.8146
21.3844
21.392
21.3912
21.3964
37.4439
131.822
22.2549
23.2618
32.7231
129.481
22.185
523.387
543.649
37.3292
22.2582
131.731
23.2463
32.8467
22.2097
129.423
219.741
220.035
24.3762
215.117
215.415
141.869
327.051
134.365
312.394
427.337
417.156
147.029
329.293
138.206
314.502
21.3102
21.3095
21.3083
21.0801
21.0535
21.0716
21.0656
55.9246
140.666
22.2025
24.7672
48.1892
144.177
22.2743
428.932
418.751
52.5628
22.0191
137.922
24.4838
46.089
22.0442
140.983
210.698
208.843
27.7002
207.142
205.286
153.993
306.926
150.094
305.936
413.898
412.934
158.513
308.922
154.227
308.014
21.0273
20.9918
21.0096
21.0017
20.9881
20.9859
20.9689
69.6895
147.212
22.7793
26.9292
64.1492
149.83
22.8031
415.526
414.451
65.8409
22.2892
144.666
26.5381
60.896
22.4183
146.991
205.287
203.715
31.3668
205.839
204.187
161.676
305.438
158.984
305.136
411.85
411.049
165.948
307.538
162.941
307.183
20.9779
20.9592
20.9013
21.0712
20.9926
21.0669
21.0917
80.5607
152.84
23.3701
29.3375
75.8919
155.13
23.6665
413.436
412.523
76.3163
22.8737
150.165
28.75
72.2888
23.005
152.198
206.797
205.261
35.6017
207.754
206.096
166.611
304.913
165.092
304.554
410.12
409.34
170.552
306.98
169.126
306.578
21.0584
21.1032
21.1026
21.3419
21.3012
21.4024
21.1724
87.6042
156.911
24.5075
32.0717
85.202
158.325
24.8031
411.672
410.75
84.4023
23.7365
154.829
31.2769
82.5269
23.943
155.982
208.689
207.222
41.577
209.243
207.656
168.603
304.22
168.24
303.835
408.393
407.599
172.331
306.264
171.956
305.789
21.3889
21.3521
21.2288
21.6787
21.7768
21.7117
21.6246
90.3722
159.614
25.8104
34.4337
89.5821
160.31
26.4363
409.918
409.019
86.7768
25.0116
157.351
33.7102
86.2038
25.5198
157.805
209.849
208.298
44.0671
209.945
208.404
170.471
303.47
169.888
303.039
406.777
406.022
173.986
305.462
173.559
305.001
21.5803
21.5797
21.6439
21.842
22.0146
22.0155
22.019
92.2846
161.485
26.8424
36.6468
91.6126
162.061
26.6802
408.265
407.414
88.6916
25.7883
159.119
36.0474
87.7847
25.6189
159.595
210.28
208.758
45.8304
210.309
208.793
171.616
302.673
171.231
302.259
405.308
404.59
175.243
304.676
174.817
304.218
21.9215
21.9142
21.9228
22.0019
22.1372
22.1337
22.1306
94.3659
163.071
27.3164
37.8817
93.3538
163.481
27.2389
406.741
405.981
90.6518
26.1621
160.642
37.0922
89.8258
26.1072
160.975
210.539
209.058
47.0647
210.557
209.049
172.565
301.901
172.228
301.486
403.949
403.309
176.084
303.88
175.858
303.428
21.8344
21.9431
21.979
22.1674
22.321
22.3836
22.3999
96.3761
164.216
27.7552
38.4408
95.5958
164.561
27.2761
405.388
404.657
93.1344
26.6139
161.93
38.0836
92.1973
26.5776
162.265
210.678
209.201
48.5509
210.511
209.179
173.233
301.16
173.051
300.759
402.743
402.127
176.573
303.099
176.484
302.693
22.1384
22.1324
22.3708
22.5192
22.7284
22.5874
22.7892
98.1258
165.178
28.2575
39.9924
97.3715
165.56
28.1578
404.159
403.507
94.5324
27.0337
163.014
39.1431
93.8237
26.9713
163.318
210.736
209.235
49.4466
210.531
209.069
173.563
300.419
173.555
300.085
401.633
401.12
177.015
302.375
176.862
301.995
22.7146
22.8601
22.5543
23.086
23.3142
23.3784
23.1377
99.6632
166.08
28.9402
41.0829
98.9207
166.246
28.9619
403.049
402.489
96.1773
27.6941
163.818
39.6201
95.4809
27.746
164.057
210.63
209.188
50.7204
210.419
209.071
175.45
299.736
173.368
300.403
400.649
400.912
301.686
177.073
23.0497
23.3456
23.1748
100.962
166.514
29.6203
41.668
100.436
166.794
29.2929
402.052
100.09
28.2235
164.361
96.6485
28.7042
210.52
209.084
52.3516
210.404
209.288
22.7621
122.151
122.325
1082.17
422.976
1082.31
423.079
23.1183
278.593
278.792
139.261
139.406
23.7703
22.4412
56.6137
22.2159
23.7857
22.4423
56.6332
22.2163
34.8009
1657.64
295.274
100.415
34.9139
1657.62
295.307
100.44
25.727
22.4816
224.443
22.3912
64.4104
22.1926
31.7013
25.6883
22.4824
224.443
22.3926
64.5897
22.1918
31.7594
22.7689
122.536
124.441
1082.23
423.226
23.1085
278.743
278.611
138.866
140.922
1082.45
423.137
23.7842
22.4439
56.541
22.2159
23.7865
22.4416
22.2174
57.3339
34.8976
1657.43
295.114
100.324
25.6884
22.4816
224.49
22.3946
64.6017
22.1923
31.7779
34.9113
1657.32
295.207
100.465
25.689
22.4833
22.3982
224.621
22.1931
65.0017
31.8081
22.092
22.2438
22.1431
22.1428
22.0921
22.2435
22.1431
22.1416
22.0919
22.2441
22.143
22.1435
21.9974
22.2003
21.8149
21.8095
22.0709
22.0686
21.7156
21.998
22.1992
21.8191
21.817
22.0728
22.0719
21.7139
21.9982
22.2001
21.8135
21.8213
22.07
22.0734
21.7145
21.9976
22.2009
21.816
21.8218
22.0719
22.0747
21.7133
23.7858
22.4423
22.2169
57.4728
25.7447
22.4842
224.641
22.4022
64.696
22.1918
31.7492
34.8229
1657.3
294.85
100.392
25.69
22.4848
22.3964
224.611
22.1932
65.1442
31.8016
34.9173
1657.13
295.406
100.45
22.7703
124.826
122.407
1082.7
423.256
23.1068
278.523
278.606
140.491
139.527
1082.34
423.479
23.7857
22.445
22.2173
57.5086
25.7888
22.4827
22.3988
224.558
22.1916
64.394
31.7263
25.6903
22.4843
22.3953
224.456
22.1933
65.1801
31.7614
34.8097
1657.28
295.347
100.426
34.9153
1657.38
295.576
100.448
23.1183
278.373
278.716
140.491
140.451
1082.54
423.22
1082.28
423.217
523.587
543.715
523.418
543.722
219.876
219.86
24.3655
215.295
215.378
434.848
511.758
436.151
511.91
24.5571
209.964
212.507
215.287
215.418
111.863
665.986
94.4126
431.677
37.3455
132.011
22.2587
23.2983
32.806
129.563
22.2055
37.4084
132.024
22.2589
23.295
32.8291
129.515
22.2073
119.964
336.213
400.541
132.397
119.803
336.215
400.541
132.319
39.3939
23.495
136.158
22.0116
132.704
22.0895
45.2888
39.3955
23.4636
136.185
22.0117
132.787
22.0893
45.2052
220.08
219.777
24.3723
215.468
215.327
523.482
543.687
434.938
511.821
24.5547
210.139
212.385
215.539
215.354
436.044
511.842
37.497
131.553
22.2613
23.2988
32.7471
129.326
22.1866
112.091
667.516
94.3687
431.533
37.5159
22.2633
131.534
23.3409
32.7666
22.191
129.388
119.651
338.201
400.621
135.352
39.2863
23.3714
139.514
22.1289
132.655
22.0951
46.7751
119.543
338.186
400.579
135.294
39.2863
23.4034
22.1256
139.441
22.0929
132.473
46.7613
112.023
667.069
94.3193
431.601
37.4963
22.2597
131.592
23.3358
32.7568
22.1885
129.447
112.073
667.76
94.3619
431.523
39.2589
23.4115
139.512
22.1209
132.681
22.0924
46.8424
119.448
338.193
400.644
135.309
39.2552
23.4038
22.1194
139.46
22.0898
132.56
46.751
119.51
338.166
400.571
135.317
219.753
219.779
24.3553
215.318
215.317
523.665
543.743
436.074
511.824
24.5462
212.373
209.968
215.288
215.311
434.879
511.789
37.4124
22.2611
131.673
23.2815
32.8311
22.2055
129.466
111.821
667.797
94.4011
431.648
111.829
667.177
94.4043
431.636
39.482
23.4758
22.0175
136.385
22.0963
132.643
45.2173
39.3988
23.4556
22.0201
136.08
22.0993
132.512
45.1635
119.801
336.209
400.537
132.298
119.812
336.19
400.509
132.269
523.457
543.595
523.501
543.779
24.573
212.29
210.232
215.316
215.437
435.976
511.753
434.967
511.848
427.263
417.094
429.013
418.813
208.468
210.813
27.3727
205.011
207.314
414.105
416.351
415.791
418.041
27.5771
203.587
205.679
204.273
206.378
141.875
327.058
133.991
312.399
52.6378
137.543
21.9905
24.5597
46.001
141.002
22.0655
52.6043
137.571
21.9897
24.5555
45.894
141.093
22.0843
143.695
307.213
310.766
148.877
143.563
307.243
310.77
148.89
53.9491
25.1243
144.039
22.156
141.494
22.0918
59.753
53.8657
25.0281
144.063
22.1598
141.556
22.0957
59.7711
208.705
210.646
27.2427
205.201
207.2
428.918
418.738
414.171
416.408
27.5227
203.755
205.591
204.527
206.233
415.703
418.053
55.9616
140.55
22.1717
24.8373
48.1289
144.217
22.258
147.045
329.291
137.938
314.498
55.9721
22.1848
140.451
24.8342
48.1222
22.2405
144.199
148.07
309.344
312.904
153.649
56.9564
25.3881
147.021
22.4908
144.389
22.3678
63.3252
147.981
309.35
312.904
153.629
56.855
25.3777
22.4494
147.039
22.3419
144.327
63.3053
147.056
329.294
137.899
314.47
55.8957
22.1904
140.52
24.8592
48.1454
22.2479
144.184
147.054
329.283
137.927
314.468
56.8006
25.4382
146.988
22.5227
144.277
22.4142
63.3237
147.932
309.33
312.884
153.596
56.923
25.4398
22.4481
146.972
22.3382
144.343
63.25
147.955
309.347
312.889
153.607
210.692
208.524
27.299
207.257
205.09
427.317
417.142
415.69
418.116
27.5396
205.656
203.677
206.355
204.375
414.143
416.405
52.5664
21.995
137.461
24.5499
45.8884
22.0513
141.038
141.875
327.071
134.001
312.383
141.853
327.053
133.946
312.391
53.8915
25.0932
22.1751
144.065
22.1304
141.52
59.7783
53.8436
25.0339
22.1967
144.075
22.1177
141.536
59.7608
143.544
307.236
310.766
148.89
143.533
307.236
310.773
148.925
428.854
418.653
427.405
417.224
28.0717
205.472
203.835
206.211
204.554
415.649
418.003
414.177
416.537
413.965
412.856
415.579
414.486
203.468
205.436
31.0196
203.983
206.038
411.918
412.72
413.509
414.419
31.267
204.84
206.972
204.075
206.006
154.054
306.847
149.954
305.923
65.9114
144.537
22.2908
26.5936
60.7374
146.983
22.4023
65.883
144.587
22.2579
26.638
60.7045
147.004
22.3855
154.971
305.417
305.819
158.287
154.911
305.409
305.85
158.239
66.7907
27.2217
149.791
22.7565
147.511
22.5924
71.169
66.7748
27.1692
149.713
22.6858
147.451
22.5162
71.1361
203.608
205.372
31.0734
204.092
205.913
415.502
414.402
411.968
412.809
31.3506
204.983
206.787
204.205
205.894
413.373
414.34
69.6947
147.169
22.5789
26.9916
63.9811
149.885
22.7304
158.57
309.04
154.171
308.014
69.6763
22.6203
147.184
27.0191
64.1576
22.8076
149.844
158.934
307.486
307.954
162.63
70.3523
27.5915
152.487
23.1097
150.063
22.914
75.199
158.968
307.484
307.958
162.672
70.3504
27.6218
23.3691
152.404
23.0464
150.068
75.2395
158.523
308.867
154.149
307.986
69.6577
22.5939
147.128
27.0475
64.0798
22.7736
149.833
158.485
308.861
154.167
307.992
70.2365
27.6935
152.433
23.142
150.07
22.9331
75.4043
158.894
307.456
307.931
162.541
70.1702
27.6216
23.2654
152.506
22.9583
150.003
75.182
158.833
307.471
307.934
162.408
205.422
203.523
32.0745
205.992
204.067
414.005
412.891
413.458
414.387
31.5231
206.814
204.925
205.972
204.14
411.949
412.752
65.9298
22.2742
144.591
26.6073
60.7597
22.3707
146.925
153.983
306.926
149.953
305.905
154.084
306.932
149.952
305.904
66.8844
27.2132
22.7214
149.641
22.569
147.546
71.4442
66.9085
27.1762
22.6738
149.598
22.4958
147.416
71.463
154.932
305.408
305.796
158.169
155.072
305.408
305.793
158.339
415.444
414.367
414.041
412.958
31.4672
206.659
205.057
205.823
204.289
413.394
414.306
412.017
412.819
411.808
411.037
413.485
412.591
204.999
206.961
35.6812
205.956
207.966
410.176
410.947
411.704
412.589
36.0312
206.91
208.832
206.082
207.953
161.554
305.458
158.851
305.133
75.9714
150.123
22.8935
29.2273
71.9303
152.202
23.0782
75.6496
150.08
22.8696
28.9747
71.8563
152.206
23.0347
162.262
304.876
305.193
164.783
162.221
304.866
305.189
164.128
76.6805
30.0404
154.439
23.6177
152.464
23.2751
80.7658
76.498
29.46
154.376
23.5391
152.464
23.2396
80.3028
205.099
206.85
35.4295
205.969
207.894
413.422
412.516
410.205
410.951
35.7452
206.937
208.707
206.202
207.837
411.6
412.571
80.2954
152.61
23.2762
29.336
75.6639
154.982
23.5668
165.98
307.563
162.959
307.181
80.4052
23.3886
152.556
29.4339
75.6538
23.5534
154.826
166.162
306.907
307.276
168.517
80.7635
30.0568
156.932
24.1688
155.028
23.7736
84.9277
166.195
306.901
307.272
168.387
80.7634
30.0179
24.1531
156.985
23.8126
154.97
84.1312
166.005
307.544
162.819
307.168
80.3362
23.4744
152.709
29.4348
75.7298
23.6035
154.829
165.868
307.556
162.702
307.167
80.9337
30.139
156.355
24.3048
155.015
24.0101
84.3359
166.277
306.857
307.255
168.752
80.6941
30.0915
24.1993
156.879
23.9181
154.858
85.0107
166.135
306.886
307.258
168.556
206.943
205.135
35.5761
207.83
205.972
411.848
411.066
411.644
412.571
35.9241
208.807
206.874
207.934
206.142
410.193
410.979
76.324
22.8265
150.042
28.9662
72.21
23.0638
151.903
161.663
305.459
158.741
305.127
161.742
305.46
158.983
305.119
77.6575
29.4421
23.4648
153.967
23.2248
152.521
80.8332
77.2804
29.5497
23.5407
154.126
23.2603
152.206
80.3894
162.406
304.863
305.187
164.627
162.402
304.873
305.176
164.316
413.375
412.451
411.904
411.127
35.9667
208.549
206.964
207.805
206.237
411.568
412.506
410.257
411.033
410.079
409.291
411.702
410.767
206.888
208.766
41.038
207.516
209.334
408.422
409.209
409.898
410.806
41.3093
207.781
209.848
207.446
209.233
166.165
304.907
164.526
304.551
84.2849
154.583
23.904
32.6916
81.5317
155.439
24.1559
84.1495
154.299
23.7556
31.4255
81.1568
155.663
24.1211
166.423
304.21
304.569
167.471
166.628
304.198
304.556
167.983
84.4065
32.5388
156.674
24.7805
155.274
24.4278
85.7884
84.3844
32.2414
156.799
24.8232
155.34
24.3936
85.9389
207.021
208.652
41.5466
207.62
209.326
411.644
410.701
408.466
409.25
41.7688
207.993
209.607
207.509
209.241
409.829
410.751
88.0606
157.051
24.4283
32.1419
85.1
158.373
24.8575
170.346
306.974
168.394
306.576
87.6045
24.3972
156.788
32.0226
84.3693
24.8241
158.276
170.425
306.201
306.632
171.749
87.8812
32.707
159.409
25.4577
158.161
25.1228
89.2399
170.278
306.223
306.639
171.72
87.7912
32.8222
25.4847
159.277
25.1868
158.075
89.4723
170.229
306.947
168.565
306.538
88.1081
24.4769
156.946
32.1895
85.0561
24.7635
158.239
170.344
306.975
168.465
306.559
87.2103
32.7486
158.814
25.3692
158.39
25.1679
88.5124
169.931
306.164
306.613
171.465
87.9198
32.7023
25.3625
159.406
25.1191
158.097
89.3115
169.991
306.199
306.622
171.66
208.866
206.95
41.7398
209.396
207.546
410.114
409.322
409.872
410.793
41.9993
209.775
208.067
209.283
207.599
408.461
409.249
84.1792
23.7747
154.373
31.3755
82.246
24.0662
155.705
166.152
304.922
165.045
304.566
166.044
304.93
164.816
304.561
83.5058
31.9313
24.7033
156.539
24.4163
156.066
85.8882
84.1406
31.8936
24.6588
156.58
24.2532
155.511
85.2555
166.515
304.223
304.596
167.469
166.956
304.205
304.584
167.825
411.62
410.685
410.186
409.376
41.5922
209.709
208.065
209.317
207.797
409.818
410.745
408.508
409.309
408.35
407.581
409.941
409.038
207.783
209.68
43.9972
208.181
210.079
406.792
407.542
408.218
409.093
42.9651
208.455
210.16
208.337
209.964
168.881
304.214
167.865
303.792
86.5352
156.224
24.9581
33.6741
85.6522
157.579
25.0143
86.6566
156.817
24.9212
34.3334
85.8052
157.475
25.4919
168.692
303.453
303.822
169.384
168.385
303.412
303.81
169.59
86.348
34.093
158.567
25.5994
157.387
25.2025
87.5689
85.9138
34.7008
158.45
25.702
157.302
25.5168
87.6482
207.92
209.892
43.9671
208.301
210.058
409.895
409.011
406.815
407.54
43.4896
208.571
210.117
208.332
209.858
408.175
409.077
90.1764
159.413
25.7557
34.5543
89.0709
160.208
26.2293
172.563
306.271
171.585
305.827
90.3079
25.9183
158.94
34.7155
88.9505
26.5345
160.482
171.966
305.4
305.829
173.323
89.2137
35.028
161.216
26.6737
160.054
26.1505
91.1815
172.241
305.416
305.87
173.319
89.3326
35.143
26.7884
161.268
26.5769
160.524
91.26
172.502
306.225
171.051
305.776
90.5809
25.5861
159.388
35.0813
89.188
26.1301
160.176
172.51
306.253
171.461
305.783
89.4216
35.1374
160.729
26.6205
160.047
26.5269
90.5817
172.081
305.397
305.831
173.299
88.9597
35.5176
26.835
161.037
26.5668
159.838
91.5447
171.933
305.379
305.831
173.251
209.871
208.045
43.8831
210.066
208.324
408.402
407.613
408.199
409.067
43.7289
210.156
208.484
209.897
208.402
406.804
407.573
86.5392
25.2258
156.569
33.4959
85.0616
25.2564
157.833
168.756
304.248
167.487
303.844
168.752
304.233
167.815
303.838
86.4316
34.2641
25.6044
158.322
25.5646
157.609
87.0928
85.1822
34.1334
25.5666
158.638
25.094
157.768
87.6129
168.457
303.469
303.854
169.609
168.529
303.452
303.851
169.447
409.876
408.965
408.453
407.656
43.7517
210.156
208.61
209.85
208.277
408.143
409.027
406.849
407.608
406.74
405.984
408.294
407.44
208.412
210.402
45.0695
208.495
210.466
405.257
405.977
406.713
407.521
44.3376
208.679
210.479
208.704
210.5
170.271
303.425
169.346
303.032
88.6087
158.546
25.5381
35.5391
87.1355
159.151
25.7668
88.5051
158.423
25.4596
36.0076
86.9798
159.15
25.7048
170.302
302.664
303.038
171.037
170.09
302.665
303.031
170.986
87.976
36.5922
160.058
26.088
158.926
25.8723
89.7714
87.6035
36.5102
160.19
26.0285
158.861
25.8096
89.4464
208.492
210.342
45.4366
208.694
210.367
408.25
407.381
405.318
406.032
45.1234
208.832
210.459
208.733
210.177
406.637
407.453
92.3994
161.1
26.3972
36.7337
90.7124
161.989
26.9619
174.013
305.45
172.928
305.007
92.3781
26.6206
161.087
37.1991
90.8522
26.6305
161.953
173.553
304.618
305.04
174.38
91.3702
36.8673
162.733
27.1811
161.91
26.966
93.4348
173.729
304.617
305.051
174.641
91.3969
36.9552
27.217
162.687
26.9643
161.899
93.2737
173.916
305.459
172.817
304.998
92.3107
26.7476
160.881
36.859
91.0856
26.7147
161.741
174.006
305.431
173.445
304.962
91.4425
36.7945
162.401
26.8582
161.751
26.7584
92.9388
173.525
304.613
305.05
174.51
91.8676
37.054
27.269
162.512
26.7401
161.266
93.2201
173.955
304.575
305.005
174.441
210.385
208.617
45.2583
210.403
208.757
406.779
406.032
406.678
407.476
44.8404
210.462
208.756
210.232
208.771
405.274
406.018
88.2818
25.5001
158.533
36.3202
87.3436
25.4843
159.163
170.414
303.495
169.557
303.087
170.223
303.455
169.345
303.047
88.3956
36.0287
25.7065
159.931
25.6529
159.304
88.3481
87.5498
36.4174
26.1331
159.964
26.017
158.709
89.3576
170.351
302.69
303.098
170.92
170.224
302.664
303.044
170.918
408.214
407.356
406.817
406.047
45.5642
210.428
208.951
210.31
208.642
406.627
407.441
405.332
406.06
405.24
404.539
406.802
405.998
208.637
210.693
46.1488
208.838
210.657
403.894
404.555
405.329
406.069
45.4989
208.927
210.696
208.821
210.451
171.497
302.664
170.898
302.265
90.5284
159.498
25.8579
37.2359
89.5562
160.605
26.1024
90.3828
160.119
25.8071
37.1505
88.8801
160.695
26.0786
171.576
301.894
302.256
171.998
171.413
301.885
302.273
171.946
89.5575
37.314
161.314
26.3768
160.423
26.1833
91.357
89.6571
37.3845
161.296
26.4169
160.644
26.2287
91.4142
208.902
210.457
46.3057
209.086
210.55
406.725
405.963
403.929
404.574
45.3568
208.939
210.691
208.917
210.383
405.281
406.049
94.4515
162.556
26.7299
38.0866
92.3072
163.424
27.3524
175.009
304.645
173.979
304.195
94.3588
27.0823
162.349
37.699
92.7471
27.0723
163.126
175.07
303.831
304.26
175.704
93.457
38.2092
164.001
27.5936
163.313
27.3742
95.4909
174.718
303.805
304.229
175.158
93.4034
38.271
27.5711
163.751
27.0388
163.033
95.3394
174.959
304.666
174.305
304.215
94.3422
26.8406
161.932
37.9445
93.0079
27.4191
163.076
175.023
304.624
174.614
304.182
93.0214
38.0399
163.971
27.1465
163.078
27.1521
95.2063
174.701
303.831
304.254
175.066
93.9159
38.1396
27.6116
163.763
27.3355
162.751
95.1991
175.07
303.791
304.229
175.398
210.327
208.689
46.4362
210.538
208.955
405.286
404.585
405.303
406.072
46.035
210.54
209.072
210.75
208.964
403.927
404.606
90.4227
25.8655
159.574
36.738
88.5979
26.0723
160.689
171.432
302.727
170.924
302.322
171.533
302.67
170.715
302.29
89.395
37.0293
26.0522
161.707
26.0359
160.91
90.8157
89.6897
37.0031
26.3804
161.45
26.154
160.474
91.5385
171.024
301.949
302.33
171.962
171.287
301.927
302.285
171.865
406.716
405.928
405.352
404.631
46.1298
210.587
209.091
210.547
209.041
405.256
406.02
403.969
404.655
403.887
403.245
405.413
404.684
208.761
210.659
47.4832
208.82
210.593
402.652
403.275
404.1
404.782
46.9468
208.797
210.663
209.01
210.783
172.344
301.9
171.807
301.529
92.2838
160.71
26.0975
37.9064
90.5707
161.772
26.4001
92.3368
160.869
26.2435
37.8179
90.9875
162.09
26.2371
172.316
301.15
301.511
172.938
172.23
301.147
301.526
172.901
91.3747
38.1046
162.259
26.8218
161.651
26.5887
93.3844
91.8871
38.2822
162.466
26.9233
161.951
26.2874
93.6404
208.926
210.612
47.6684
209.09
210.513
405.37
404.646
402.722
403.33
46.853
209.086
210.657
209.002
210.697
404.053
404.746
96.7539
163.688
27.3826
38.4924
95.1108
164.439
27.6138
175.996
303.835
175.641
303.423
96.7228
27.4768
163.528
38.6497
94.8791
27.7473
164.329
175.659
303.06
303.453
176.108
96.2454
39.6526
164.993
28.1007
164.2
27.7848
97.3686
175.528
303.058
303.449
176.253
96.3754
38.6498
28.1295
164.797
27.8648
164.069
97.4681
175.772
303.864
175.576
303.441
96.2468
27.4169
163.421
38.9192
94.9607
27.456
164.343
175.881
303.831
175.533
303.406
95.3005
39.4644
164.892
27.6345
164.283
27.9548
96.9336
175.463
303.078
303.486
176.232
95.8138
38.8049
28.1478
165.002
27.6215
164.028
97.062
175.388
303.05
303.451
176.047
210.731
209.047
47.6447
210.507
209.04
403.954
403.297
404.073
404.75
47.3297
210.538
209.057
210.703
209.007
402.699
403.323
92.4215
26.136
161.288
38.1071
90.7483
26.4521
161.888
172.516
301.966
171.89
301.573
172.288
301.934
171.772
301.542
91.6075
37.9995
26.508
162.748
26.4776
162.163
93.4529
91.8731
37.9328
26.8678
162.373
26.6339
161.783
93.3734
172.37
301.2
301.573
172.758
172.124
301.176
301.548
172.604
405.349
404.627
403.997
403.345
48.1924
210.663
209.155
210.685
209.167
404.039
404.729
402.748
403.378
402.674
402.071
404.185
403.532
208.956
210.811
48.9051
208.845
210.668
401.567
402.085
402.997
403.615
48.3662
208.843
210.56
208.788
210.805
173.173
301.16
172.792
300.781
94.1298
162.143
26.6863
39.2652
92.3148
162.705
26.7049
94.276
162.215
26.9246
38.5478
93.4506
162.824
26.8504
173.093
300.429
300.77
173.463
172.974
300.414
300.76
173.354
93.0294
39.4245
163.138
27.4884
162.542
26.7997
94.9858
93.3068
39.6985
163.303
27.5483
162.605
26.915
95.0525
209.116
210.624
48.9313
209.207
210.638
404.142
403.508
401.613
402.133
48.0748
209.121
210.499
209.04
210.428
402.962
403.591
98.2512
164.525
28.0067
39.3733
97.0611
165.378
28.2708
176.575
303.084
175.929
302.667
98.2224
27.9354
164.594
40.4291
96.407
28.2373
165.195
176.324
302.355
302.704
176.733
97.1997
40.1307
165.875
28.7783
165.014
28.4356
98.9484
176.415
302.343
302.678
176.777
97.1473
40.3567
28.7604
165.808
28.4113
164.752
98.9392
176.466
303.112
175.627
302.7
97.9275
28.1018
164.816
39.9125
96.8266
27.9113
165.403
176.51
303.09
176.41
302.664
97.3734
39.9192
165.89
28.1789
165.371
28.1717
98.5568
176.322
302.353
302.731
176.613
97.0741
40.1405
28.7137
165.7
28.6893
165.127
99.1405
176.048
302.318
302.692
176.778
210.698
208.903
49.0483
210.521
209.091
402.724
402.153
402.985
403.585
48.5899
210.518
208.97
210.677
209.075
401.604
402.173
94.0649
26.7179
162.079
39.376
93.1188
26.7347
162.829
173.076
301.197
172.625
300.842
172.909
301.169
172.49
300.781
94.2129
38.7936
26.9681
163.239
26.9355
162.906
94.0853
93.327
39.2243
27.489
163.265
26.8433
162.53
94.8924
172.993
300.472
300.821
173.233
172.324
300.447
300.781
173.212
404.128
403.458
402.775
402.167
48.5165
210.56
209.12
210.395
208.985
402.927
403.538
401.636
402.185
401.563
401.078
403.043
402.5
208.744
210.459
50.1804
208.818
210.635
400.653
401.049
402.07
402.552
49.9875
208.792
210.512
208.601
210.598
173.499
300.403
173.127
300.066
95.9823
162.543
27.4911
40.0005
94.0124
163.497
27.4342
95.9162
162.617
27.5145
39.2672
94.7083
163.519
27.5579
173.298
299.845
300.064
173.688
173.07
299.797
300.042
173.506
95.4117
40.2652
163.834
28.267
163.262
27.5223
96.4123
95.1348
39.7823
163.89
28.4085
162.874
28.1553
96.4136
209.051
210.628
50.1148
209.018
210.414
403.043
402.463
400.679
401.131
49.4701
208.828
210.436
208.965
210.53
402.014
402.538
99.5585
165.447
28.5519
41.1279
97.9417
166.172
28.7961
176.998
302.352
176.462
301.987
99.6146
28.6747
165.677
41.3922
97.6584
28.7938
166.056
176.793
301.702
301.995
176.859
98.348
41.2169
166.427
29.6519
165.97
28.9634
100.017
176.711
301.7
302.009
177.051
98.4312
41.4153
29.6024
166.451
28.9039
165.809
99.989
176.91
302.375
176.269
302.009
99.698
28.13
165.643
40.6935
98.6949
28.9858
166.048
176.762
302.345
176.352
301.966
98.5685
41.2379
166.308
29.1655
165.802
28.7115
100.144
176.661
301.681
302.015
177.051
98.5665
41.2801
29.5505
166.307
28.74
165.413
100.107
176.513
301.674
302.004
177.02
210.644
208.984
50.0092
210.534
208.903
401.617
401.134
402.046
402.528
48.7169
210.503
208.865
210.391
208.99
400.69
401.123
95.6089
27.4614
163.02
40.3351
94.5832
27.6089
163.595
173.426
300.483
173.087
300.157
173.462
300.435
173.07
300.124
95.7318
39.9165
28.2535
163.885
27.5928
163.869
96.5982
95.3779
40.037
28.3819
163.903
27.7325
163.408
96.4299
173.13
299.875
300.149
173.531
173.187
299.822
300.108
173.492
403.009
402.434
401.665
401.149
50.1003
210.502
209.055
210.529
208.946
401.985
402.507
400.714
401.167
400.584
402.096
208.681
210.557
175.104
299.723
172.999
300.444
99.7997
163.334
28.041
40.9197
95.5661
164.039
28.205
99.3216
163.506
27.5583
40.8153
95.9808
165.305
28.9727
208.917
210.317
51.2845
209.217
210.318
402.063
401.641
166.153
29.5952
98.9618
301.65
176.481
29.5554
165.643
98.918
177.131
301.685
176.438
301.425
100.532
29.5342
165.988
42.5928
99.4374
29.923
166.476
177.058
301.683
176.658
301.42
99.4259
28.5264
176.541
98.8657
42.7386
29.5941
165.934
176.437
301.535
210.256
208.779
400.637
98.8684
28.2641
163.612
41.3186
95.9257
28.5079
164.87
175.32
299.795
173
175.337
299.755
173.038
300.466
402.034
401.611
400.69
400.967
51.3035
210.376
209.746
401.755
401.499
29.5245
329.924
447.625
29.5097
329.636
447.862
447.045
447.214
29.5076
329.753
447.599
29.506
329.767
29.5272
329.303
29.5101
330.005
447.693
29.5283
329.99
29.5096
330.216
447.707
447.698
22.1139
22.1126
22.1252
22.1911
22.1911
22.1451
22.1199
22.1586
22.1311
22.1211
22.1593
22.131
27.5905
22.7885
22.8049
22.812
22.2907
22.6272
27.3662
23.6875
23.075
22.4377
22.235
22.4642
22.788
27.3234
22.8183
22.2895
22.81
22.6253
22.4394
22.2351
22.46
27.4109
23.7184
23.0484
9469.67
9470.5
102.89
23.323
23.3176
30.1786
6227.58
24.2479
41.3236
6228.39
24.2409
41.295
505.371
107.25
393.563
158.901
390.271
156.402
479.14
642.856
430.212
502.336
1265.71
315.174
515.687
99.0147
357.703
163.664
634.349
365.042
148.51
656.921
281.757
470.239
296.645
634.472
518.872
547.956
505.046
107.062
158.869
393.542
156.079
390.236
479.245
642.788
430.785
501.94
1262.69
315.047
516.788
98.8068
163.538
357.554
629.9
147.849
365.187
657.344
281.667
470.244
296.533
634.687
518.399
547.785
241.982
478.849
478.339
464.486
464.112
245.294
94.8094
49.2298
343.147
212.733
88.8726
53.0048
342.855
94.9987
49.4285
343.75
212.132
89.5726
52.7845
343.648
232.716
395.303
395.887
231.566
452.888
452.895
107.384
349.474
215.21
61.4745
58.0022
348.144
112.809
106.928
350.41
215.622
61.4093
57.864
348.967
112.629
348.975
139.562
321.982
170.429
324.967
169.945
345.38
445.045
237.479
319.971
452.086
232.254
353.034
136.984
334.45
168.892
360.787
328.175
169.322
442.005
225.529
316.018
228.788
438.76
421.933
419.603
352.183
144.072
175.385
325.258
174.39
328.244
348.522
447.134
240.61
322.132
454.017
235.683
355.939
142.365
172.534
336.866
363.259
174.487
331.246
444.503
228.874
318.192
231.931
441.082
423.434
421.297
246.358
419.138
419.102
420.764
420.697
246.096
143.868
79.0072
322.6
209.316
139.823
82.8877
319.19
142.825
77.9092
322.49
207.316
139.005
81.4835
319.092
246.627
425.24
425.153
247.193
421.732
421.696
145.988
316.168
207.987
87.8789
84.5363
317.857
148.929