/*--------------------------------*- C++ -*----------------------------------*\
| =========                 |                                                 |
| \\      /  F ield         | OpenFOAM: The Open Source CFD Toolbox           |
|  \\    /   O peration     | Version:  2206                                  |
|   \\  /    A nd           | Website:  www.openfoam.com                      |
|    \\/     M anipulation  |                                                 |
\*---------------------------------------------------------------------------*/
FoamFile
{
    version     2.0;
    format      ascii;
    arch        "LSB;label=32;scalar=64";
    class       volScalarField;
    location    "130";
    object      p;
}
// * * * * * * * * * * * * * * * * * * * * * * * * * * * * * * * * * * * * * //

dimensions      [0 2 -2 0 0 0 0];

internalField   nonuniform List<scalar> 
66616
(
-0.000262562
-0.000239044
-0.000238998
-0.000203323
-0.000730807
-0.000739808
-0.000739693
-0.000718438
-0.0010485
-0.00105089
-0.00105088
-0.00103413
-0.0013194
-0.00132026
-0.00132027
-0.00130419
-0.00157642
-0.00157703
-0.00157705
-0.00156152
-0.00182415
-0.00182465
-0.0018247
-0.00180963
-0.00206386
-0.00206432
-0.00206438
-0.00204972
-0.00229667
-0.00229706
-0.00229712
-0.00228286
-0.00252354
-0.00252384
-0.00252392
-0.00250998
-0.00274505
-0.00274526
-0.00274537
-0.00273175
-0.00296165
-0.00296169
-0.00296198
-0.00294869
-0.00317332
-0.00317324
-0.00317385
-0.00316101
-0.000169084
-0.000179502
-0.000179509
-0.000169096
-0.000179549
-0.000179536
-0.000181583
-0.000181565
-0.000181573
-0.000181566
-0.000179585
-0.000179559
-0.000169122
-0.000179597
-0.000179586
-0.000169125
-0.000203291
-0.000666558
-0.000239406
-0.000239429
-0.000637752
-0.000637726
-0.000203291
-0.000666557
-0.000239003
-0.000239478
-0.000638177
-0.000638097
-0.000239499
-0.000638199
-0.000638119
-0.000203305
-0.000666571
-0.000239008
-0.000637869
-0.000637846
-0.000666565
-0.000718407
-0.000997976
-0.000739551
-0.000739529
-0.000979857
-0.000979855
-0.00071842
-0.000997983
-0.000739734
-0.000739672
-0.000979925
-0.000979862
-0.000739694
-0.000979917
-0.000979856
-0.000718422
-0.000997961
-0.000739633
-0.000979887
-0.000979873
-0.000997941
-0.00103415
-0.00127063
-0.00105081
-0.00105078
-0.00125457
-0.00125456
-0.00103417
-0.00127063
-0.00105084
-0.00105076
-0.00125457
-0.00125451
-0.00105076
-0.00125457
-0.00125452
-0.00103414
-0.00127061
-0.00105081
-0.00125457
-0.00125457
-0.0012706
-0.00130421
-0.0015293
-0.00132022
-0.00132019
-0.00151392
-0.00151392
-0.00130422
-0.0015293
-0.00132021
-0.00132015
-0.00151394
-0.00151389
-0.00132016
-0.00151392
-0.00151389
-0.00130419
-0.00152928
-0.00132021
-0.00151392
-0.00151391
-0.00152926
-0.00156154
-0.00177857
-0.001577
-0.00157697
-0.00176375
-0.0017637
-0.00156154
-0.00177854
-0.00157701
-0.00157695
-0.00176377
-0.00176374
-0.00157696
-0.00176374
-0.00176372
-0.00156152
-0.00177857
-0.001577
-0.00176376
-0.00176373
-0.00177854
-0.00180963
-0.00201966
-0.00182464
-0.00182459
-0.00200529
-0.00200528
-0.00180962
-0.00201965
-0.00182463
-0.0018246
-0.00200534
-0.00200531
-0.00182459
-0.00200531
-0.00200531
-0.00180964
-0.00201968
-0.00182464
-0.00200532
-0.0020053
-0.00201966
-0.00204971
-0.00225368
-0.00206428
-0.00206427
-0.00223969
-0.00223971
-0.00204971
-0.0022537
-0.00206428
-0.00206426
-0.00223976
-0.00223973
-0.00206424
-0.00223976
-0.00223974
-0.00204974
-0.00225371
-0.00206429
-0.00223973
-0.00223971
-0.00225369
-0.00228284
-0.00248165
-0.00229705
-0.00229704
-0.002468
-0.00246797
-0.00228286
-0.00248161
-0.00229703
-0.00229699
-0.00246807
-0.00246804
-0.002297
-0.00246803
-0.00246803
-0.00228288
-0.00248162
-0.00229708
-0.00246799
-0.00246797
-0.0024816
-0.00251002
-0.00270411
-0.0025239
-0.00252388
-0.00269078
-0.00269078
-0.00251
-0.00270413
-0.00252383
-0.00252379
-0.0026909
-0.00269084
-0.00252377
-0.0026909
-0.00269086
-0.00251
-0.00270406
-0.00252387
-0.00269073
-0.00269074
-0.00270407
-0.00273182
-0.0029216
-0.00274538
-0.00274534
-0.00290858
-0.00290858
-0.00273181
-0.00292157
-0.00274522
-0.00274518
-0.00290882
-0.00290876
-0.00274519
-0.00290875
-0.00290875
-0.00273178
-0.00292159
-0.00274534
-0.00290855
-0.00290857
-0.00292158
-0.00294874
-0.00313418
-0.00296193
-0.00296192
-0.00312161
-0.00312163
-0.00294867
-0.00313432
-0.0029617
-0.00296168
-0.003122
-0.00312197
-0.00296165
-0.00312206
-0.00312205
-0.00294875
-0.00313419
-0.00296196
-0.0031216
-0.00312164
-0.00313428
-0.00316111
-0.00317385
-0.00317385
-0.00316108
-0.00317316
-0.00317315
-0.00317318
-0.0031611
-0.00317384
-9.35426e-05
-7.52895e-05
-8.39898e-05
-8.40817e-05
-3.64317e-05
-6.26204e-05
-6.49001e-05
-7.14979e-05
-3.61729e-05
-6.26198e-05
-7.14645e-05
-6.48375e-05
-4.87587e-05
-7.33731e-05
-7.3294e-05
-0.000411603
-7.73665e-05
-0.000129025
-0.000424207
-0.000132322
-0.000419805
-0.000411779
-7.73596e-05
-0.000129021
-0.000424339
-0.000262535
-0.000262543
-0.000262568
-0.000628839
-0.000628804
-0.000628826
-0.000628814
-0.000408346
-0.000124627
-0.000244429
-0.000373903
-0.000167947
-0.00041622
-0.000376459
-0.000132334
-0.000419828
-0.000408328
-0.000244349
-0.000124501
-0.000374078
-0.000168087
-0.000376689
-0.000416205
-0.000169354
-0.000169236
-0.000407115
-0.000414267
-0.000414332
-0.000859205
-0.000744772
-0.000740888
-0.000860297
-0.000744501
-0.000860996
-0.000859679
-0.000744756
-0.000740936
-0.000860443
-0.000730691
-0.000730699
-0.000730693
-0.000976518
-0.000976492
-0.000976493
-0.000976474
-0.000853446
-0.000736591
-0.000735824
-0.000826697
-0.000730808
-0.000855831
-0.000823728
-0.000744467
-0.000861097
-0.000852649
-0.000735332
-0.000736736
-0.000826515
-0.000730516
-0.000823243
-0.00085548
-0.000738377
-0.000738531
-0.000847899
-0.00085799
-0.000857851
-0.00113871
-0.00103786
-0.00103811
-0.00113867
-0.00103843
-0.0011391
-0.00113897
-0.00103758
-0.0010376
-0.00113873
-0.00104838
-0.00104837
-0.00104835
-0.00125358
-0.00125355
-0.00125354
-0.00125352
-0.00113726
-0.00103734
-0.00104996
-0.00111996
-0.0010372
-0.00113735
-0.00111933
-0.00103815
-0.00113909
-0.00113679
-0.00104981
-0.00103764
-0.00111995
-0.00103766
-0.00111922
-0.00113713
-0.00103694
-0.00103715
-0.0011368
-0.00113806
-0.00113796
-0.0014017
-0.00130524
-0.00130533
-0.00140188
-0.00130544
-0.00140202
-0.00140205
-0.00130501
-0.00130485
-0.00140201
-0.00131929
-0.00131927
-0.00131926
-0.0015133
-0.00151327
-0.00151326
-0.00151324
-0.00140083
-0.00130547
-0.00131996
-0.00138539
-0.0013056
-0.00140099
-0.00138513
-0.00130524
-0.00140213
-0.00140033
-0.0013199
-0.00130574
-0.00138537
-0.00130611
-0.00138506
-0.00140068
-0.00130463
-0.0013048
-0.0014012
-0.00140144
-0.0014013
-0.00165544
-0.00156243
-0.00156235
-0.00165575
-0.00156251
-0.00165583
-0.0016559
-0.00156227
-0.00156196
-0.00165594
-0.00157631
-0.0015763
-0.00157629
-0.00176321
-0.00176317
-0.00176318
-0.00176316
-0.00165459
-0.00156274
-0.00157682
-0.00163977
-0.00156267
-0.00165488
-0.00163956
-0.00156236
-0.00165597
-0.00165407
-0.00157678
-0.00156298
-0.00163975
-0.00156315
-0.00163951
-0.00165461
-0.00156192
-0.00156207
-0.00165499
-0.0016554
-0.00165525
-0.00190052
-0.00181069
-0.00181053
-0.00190088
-0.00181073
-0.0019009
-0.00190101
-0.00181056
-0.00181018
-0.0019011
-0.00182402
-0.00182404
-0.00182402
-0.00200482
-0.00200478
-0.00200481
-0.00200478
-0.00189972
-0.00181096
-0.00182446
-0.00188534
-0.00181077
-0.00190014
-0.00188513
-0.00181064
-0.00190113
-0.00189916
-0.00182445
-0.00181125
-0.00188533
-0.00181127
-0.00188509
-0.00189983
-0.00181026
-0.0018104
-0.00190002
-0.00190065
-0.00190048
-0.00213798
-0.00205084
-0.00205064
-0.00213835
-0.0020509
-0.00213843
-0.00213848
-0.0020507
-0.00205029
-0.00213856
-0.00206374
-0.00206376
-0.00206375
-0.00223927
-0.00223923
-0.00223924
-0.00223922
-0.0021372
-0.00205112
-0.00206412
-0.00212323
-0.00205086
-0.00213761
-0.00212301
-0.00205082
-0.0021386
-0.00213662
-0.00206413
-0.00205139
-0.0021232
-0.00205137
-0.00212298
-0.00213734
-0.00205047
-0.00205061
-0.00213747
-0.00213816
-0.00213799
-0.00236884
-0.00228403
-0.00228381
-0.00236919
-0.00228407
-0.00236922
-0.00236934
-0.0022839
-0.00228346
-0.00236941
-0.00229655
-0.00229656
-0.00229654
-0.00246757
-0.00246754
-0.00246753
-0.00246751
-0.00236811
-0.00228427
-0.00229688
-0.00235451
-0.00228399
-0.00236859
-0.00235427
-0.00228401
-0.00236948
-0.0023675
-0.00229692
-0.00228456
-0.00235443
-0.0022845
-0.00235425
-0.00236824
-0.00228373
-0.00228386
-0.00236835
-0.00236909
-0.00236891
-0.00259407
-0.00251121
-0.00251104
-0.0025944
-0.00251127
-0.00259446
-0.00259449
-0.00251104
-0.00251064
-0.00259454
-0.00252343
-0.00252342
-0.0025234
-0.0026904
-0.00269037
-0.00269035
-0.00269035
-0.00259331
-0.00251144
-0.0025237
-0.00258
-0.00251113
-0.00259375
-0.00257979
-0.00251115
-0.00259456
-0.00259269
-0.00252371
-0.0025117
-0.00257987
-0.00251164
-0.00257969
-0.00259343
-0.00251086
-0.002511
-0.00259346
-0.00259424
-0.00259407
-0.00281403
-0.00273315
-0.00273293
-0.00281434
-0.00273315
-0.00281436
-0.0028144
-0.00273294
-0.00273251
-0.00281448
-0.00274493
-0.00274493
-0.00274493
-0.00290821
-0.00290818
-0.00290819
-0.00290817
-0.00281327
-0.00273326
-0.00274511
-0.00280034
-0.00273296
-0.00281372
-0.00280013
-0.00273301
-0.00281445
-0.00281269
-0.00274516
-0.00273349
-0.00280014
-0.00273348
-0.00279997
-0.00281338
-0.00273279
-0.00273293
-0.00281341
-0.00281421
-0.00281405
-0.00302916
-0.00295008
-0.00294988
-0.00302944
-0.00295009
-0.00302952
-0.00302951
-0.00295002
-0.00294961
-0.00302957
-0.00296154
-0.00296155
-0.00296152
-0.00312127
-0.00312126
-0.00312122
-0.00312129
-0.00302842
-0.00295023
-0.0029616
-0.00301591
-0.00294992
-0.00302887
-0.00301578
-0.00295003
-0.00302951
-0.00302796
-0.00296178
-0.00295048
-0.00301561
-0.00295042
-0.00301549
-0.00302858
-0.00294976
-0.0029499
-0.00302861
-0.00302933
-0.00302924
-0.00323906
-0.00316222
-0.003162
-0.00323936
-0.0031622
-0.00323953
-0.00316222
-0.0031619
-0.00317322
-0.00317323
-0.00317328
-0.00323815
-0.00316248
-0.00317297
-0.00322665
-0.00316231
-0.00323876
-0.0032267
-0.00316225
-0.00323757
-0.00317367
-0.00316279
-0.00316259
-0.0032263
-0.00316195
-0.00316201
-0.0032384
-0.0032394
-0.00323919
-4.88268e-05
-7.2778e-05
-7.28331e-05
-6.48602e-05
-9.63581e-05
-6.52064e-05
-9.64105e-05
-7.88277e-05
-9.37434e-05
-9.36949e-05
-7.89606e-05
-7.89725e-05
-3.61724e-05
-6.25118e-05
-6.48426e-05
-7.14648e-05
-3.61686e-05
-6.25008e-05
-6.49754e-05
-7.1462e-05
-6.57851e-05
-5.30846e-05
-8.93599e-05
-0.000133107
-6.57916e-05
-5.31082e-05
-8.93743e-05
-0.000133099
-6.81899e-05
-8.77399e-05
-0.000114717
-0.000165618
-7.38839e-05
-0.000103506
-0.000145359
-6.81833e-05
-8.77309e-05
-0.000114749
-0.000165614
-7.39402e-05
-0.00010351
-0.000145351
-4.87827e-05
-7.33037e-05
-7.28202e-05
-6.49098e-05
-9.6259e-05
-7.88026e-05
-9.40301e-05
-9.39248e-05
-7.84258e-05
-7.89735e-05
-6.52363e-05
-9.64065e-05
-3.64255e-05
-6.26232e-05
-6.4907e-05
-7.14916e-05
-3.64289e-05
-6.25099e-05
-7.14911e-05
-6.50512e-05
-6.57868e-05
-5.39434e-05
-8.93927e-05
-0.000133223
-6.81172e-05
-8.79944e-05
-0.000115192
-0.000165581
-7.39151e-05
-0.000103501
-0.000145372
-6.5795e-05
-5.40514e-05
-8.94256e-05
-0.000133224
-6.8114e-05
-8.77406e-05
-0.000165604
-0.000115367
-0.000103508
-7.39896e-05
-0.000145383
-9.35303e-05
-7.52651e-05
-8.39686e-05
-8.40657e-05
-9.35333e-05
-7.52687e-05
-8.40627e-05
-8.39741e-05
-9.35226e-05
-7.52745e-05
-8.40654e-05
-8.3971e-05
-0.000124584
-9.14779e-05
-0.000195657
-0.000195511
-0.000107414
-0.000107353
-0.000208202
-0.000124602
-9.14908e-05
-0.000195651
-0.000195519
-0.000107428
-0.000107346
-0.000208194
-0.000124616
-9.14997e-05
-0.000195516
-0.00019567
-0.000107368
-0.000107418
-0.000208233
-0.000124629
-9.1484e-05
-0.000195522
-0.000195663
-0.000107358
-0.000107429
-0.000208235
-3.64326e-05
-6.24881e-05
-7.14774e-05
-6.50599e-05
-6.81152e-05
-8.79716e-05
-0.000115272
-0.0001656
-7.39144e-05
-0.000103485
-0.000145393
-6.57868e-05
-5.39588e-05
-8.93987e-05
-0.000133228
-6.81139e-05
-8.77331e-05
-0.000165622
-0.000115457
-0.000103512
-7.40025e-05
-0.000145414
-6.57946e-05
-5.40868e-05
-8.94315e-05
-0.000133248
-4.87879e-05
-7.33708e-05
-7.27662e-05
-6.53102e-05
-9.63258e-05
-7.8816e-05
-9.42445e-05
-9.37978e-05
-7.8475e-05
-7.89554e-05
-6.49286e-05
-9.63616e-05
-3.61669e-05
-6.2593e-05
-7.14408e-05
-6.49744e-05
-6.82049e-05
-8.79858e-05
-0.000165663
-0.000114735
-0.000103507
-7.38927e-05
-0.00014539
-6.82002e-05
-8.79768e-05
-0.000165656
-0.000114773
-0.00010353
-7.3947e-05
-0.000145388
-6.5798e-05
-5.31061e-05
-8.93739e-05
-0.000133142
-6.58064e-05
-5.3105e-05
-8.93808e-05
-0.000133145
-7.87779e-05
-9.44457e-05
-9.40529e-05
-7.84961e-05
-7.84224e-05
-6.53488e-05
-9.63334e-05
-6.49644e-05
-9.62565e-05
-0.00013229
-0.000419789
-0.000132306
-0.000419809
-0.000169152
-0.000169125
-0.000407087
-0.000414218
-0.000414199
-0.000698324
-0.000475341
-0.000698554
-0.000475154
-0.000480846
-0.000690812
-0.000691247
-0.000477245
-0.000477168
-0.000411603
-7.73956e-05
-0.00012905
-0.000424222
-0.000408297
-0.000124456
-0.000244379
-0.000373909
-0.000168048
-0.00041618
-0.000376724
-0.000408302
-0.000124476
-0.000244389
-0.000373941
-0.000168054
-0.000416191
-0.000376743
-0.000485355
-0.000699483
-0.000483331
-0.000694122
-0.000485377
-0.000699504
-0.000483356
-0.000694118
-0.000485735
-0.000513611
-0.000686584
-0.000633038
-0.000486645
-0.000511341
-0.000678048
-0.000485745
-0.000513629
-0.000686609
-0.000633022
-0.00048665
-0.00051136
-0.000678055
-0.00016926
-0.000169148
-0.00040709
-0.000414268
-0.000414181
-0.000132257
-0.000419814
-0.000698347
-0.000475352
-0.000480842
-0.000690861
-0.000691217
-0.00047727
-0.000477183
-0.000698554
-0.000475172
-0.000408324
-0.000124615
-0.000244383
-0.000373881
-0.000167931
-0.000416203
-0.000376461
-0.000411783
-7.74231e-05
-0.000129042
-0.000424364
-0.000408341
-0.000244428
-0.00012468
-0.0003738
-0.000167941
-0.000376462
-0.000416254
-0.000485085
-0.000699771
-0.000483114
-0.000695147
-0.000485628
-0.000513636
-0.000687577
-0.000633966
-0.000486535
-0.000511442
-0.000679342
-0.000485108
-0.000699798
-0.000483147
-0.000695148
-0.000485637
-0.000513602
-0.000633907
-0.000687629
-0.00051139
-0.000486553
-0.000679364
-0.000411794
-7.73738e-05
-0.000129061
-0.000424349
-0.000408367
-0.000244445
-0.00012469
-0.000373829
-0.000167962
-0.000376464
-0.000416285
-0.000411811
-7.74259e-05
-0.000129067
-0.000424395
-0.000485652
-0.00051362
-0.000687584
-0.000633962
-0.000486553
-0.00051139
-0.000679382
-0.000485126
-0.000699795
-0.000483144
-0.000695167
-0.000485663
-0.000513626
-0.000633917
-0.000687632
-0.000511389
-0.00048659
-0.000679386
-0.000485139
-0.000699813
-0.000483181
-0.000695179
-0.000169349
-0.000169146
-0.000407109
-0.000414253
-0.000414262
-0.000132322
-0.000419851
-0.000698556
-0.000475162
-0.000480847
-0.000691263
-0.000690843
-0.000477179
-0.000477327
-0.000698369
-0.000475418
-0.000408337
-0.000244331
-0.000124543
-0.000374125
-0.000168094
-0.00037671
-0.000416226
-0.000411656
-7.74226e-05
-0.000129101
-0.000424255
-0.000411666
-7.74426e-05
-0.000129103
-0.000424288
-0.000485817
-0.000513684
-0.000633092
-0.000686594
-0.000511325
-0.000486699
-0.000678107
-0.000485828
-0.00051375
-0.000633092
-0.000686607
-0.000511395
-0.000486738
-0.000678097
-0.000485447
-0.000699528
-0.000483399
-0.00069417
-0.000485458
-0.000699548
-0.000483445
-0.000694174
-0.000132305
-0.000419864
-0.000132376
-0.000419884
-0.000480866
-0.000691231
-0.000690862
-0.000477189
-0.00047734
-0.000698555
-0.000475197
-0.000698391
-0.00047544
-0.000744479
-0.000861029
-0.000744465
-0.0008611
-0.000738505
-0.000738417
-0.000847871
-0.00085783
-0.00085795
-0.00100313
-0.000898418
-0.00100312
-0.00089823
-0.000888029
-0.0010015
-0.00100155
-0.000896102
-0.000895934
-0.000859202
-0.000744812
-0.000740948
-0.000860276
-0.000852634
-0.000736733
-0.000735214
-0.000826438
-0.000730452
-0.000855487
-0.000823209
-0.000852643
-0.000736752
-0.000735192
-0.000826456
-0.000730465
-0.000855466
-0.000823232
-0.000897261
-0.00100247
-0.000897733
-0.0010024
-0.000897283
-0.00100249
-0.000897756
-0.00100239
-0.000894297
-0.000905555
-0.00100023
-0.000978368
-0.000895779
-0.000903349
-0.000999293
-0.000894311
-0.000905591
-0.00100026
-0.000978357
-0.000895817
-0.000903384
-0.000999305
-0.000738554
-0.000738394
-0.000847887
-0.000857749
-0.000858065
-0.000744478
-0.000861162
-0.00100316
-0.00089842
-0.000888046
-0.00100156
-0.00100151
-0.00089612
-0.000895959
-0.00100312
-0.000898268
-0.000853412
-0.000736607
-0.000735752
-0.000826654
-0.000730783
-0.000855774
-0.000823701
-0.000859684
-0.000744797
-0.000741002
-0.000860443
-0.000853434
-0.000735701
-0.000736625
-0.00082664
-0.000730801
-0.000823709
-0.000855803
-0.000896911
-0.00100251
-0.000897504
-0.00100267
-0.000894077
-0.00090569
-0.0010004
-0.000978584
-0.000895542
-0.000903715
-0.000999768
-0.000896936
-0.00100251
-0.000897521
-0.00100266
-0.000894097
-0.000905678
-0.000978573
-0.00100041
-0.000903745
-0.00089556
-0.000999788
-0.000859707
-0.000744807
-0.000741028
-0.000860482
-0.00085346
-0.000735725
-0.000736639
-0.000826659
-0.000730821
-0.000823725
-0.000855818
-0.000859714
-0.000744818
-0.000741035
-0.000860468
-0.000894111
-0.000905661
-0.00100039
-0.000978585
-0.000895548
-0.000903678
-0.000999804
-0.000896963
-0.00100252
-0.000897549
-0.00100268
-0.000894122
-0.000905686
-0.00097858
-0.00100041
-0.000903753
-0.000895567
-0.000999804
-0.000896968
-0.00100253
-0.000897542
-0.00100269
-0.000738425
-0.000738537
-0.000847877
-0.000857968
-0.000857829
-0.000744524
-0.000861042
-0.00100311
-0.000898225
-0.000888026
-0.00100155
-0.00100146
-0.000895939
-0.000896104
-0.00100312
-0.000898428
-0.00085265
-0.000735258
-0.000736777
-0.000826556
-0.000730521
-0.000823256
-0.000855482
-0.000859214
-0.000744838
-0.000741001
-0.000860298
-0.00085922
-0.000744851
-0.000741004
-0.000860301
-0.000894333
-0.000905561
-0.000978341
-0.0010002
-0.00090329
-0.000895779
-0.000999293
-0.000894339
-0.00090565
-0.000978336
-0.00100019
-0.000903377
-0.000895794
-0.000999285
-0.0008973
-0.00100245
-0.000897753
-0.00100238
-0.000897301
-0.00100245
-0.000897753
-0.00100238
-0.000744473
-0.000861121
-0.000744534
-0.000861052
-0.000888054
-0.00100153
-0.00100145
-0.000895922
-0.000896092
-0.00100313
-0.000898238
-0.00100311
-0.000898423
-0.0010384
-0.00113909
-0.00103817
-0.00113911
-0.00103719
-0.00103699
-0.00113679
-0.00113797
-0.00113805
-0.00127182
-0.00117342
-0.00127187
-0.00117321
-0.00117143
-0.00127097
-0.00127107
-0.00117267
-0.00117248
-0.00113871
-0.00103791
-0.00103818
-0.00113866
-0.00113681
-0.00103769
-0.00104978
-0.00111992
-0.00103766
-0.00113716
-0.00111924
-0.00113682
-0.0010377
-0.00104975
-0.00111995
-0.00103768
-0.00113717
-0.00111926
-0.00117329
-0.00127155
-0.00117312
-0.00127143
-0.00117331
-0.00127156
-0.00117314
-0.00127142
-0.00117376
-0.00118782
-0.00127033
-0.0012542
-0.0011735
-0.00118737
-0.00127
-0.00117377
-0.00118785
-0.00127034
-0.00125419
-0.00117352
-0.0011874
-0.00127001
-0.00103724
-0.00103697
-0.0011368
-0.001138
-0.00113804
-0.00103818
-0.00113912
-0.00127183
-0.00117343
-0.00117144
-0.001271
-0.00127105
-0.0011727
-0.00117248
-0.00127188
-0.00117323
-0.00113723
-0.00103737
-0.0010499
-0.00111994
-0.00103719
-0.00113733
-0.00111932
-0.00113897
-0.00103759
-0.00103766
-0.00113872
-0.00113724
-0.00104988
-0.00103735
-0.00111992
-0.00103721
-0.00111934
-0.00113733
-0.00117278
-0.00127165
-0.00117286
-0.00127174
-0.00117323
-0.00118781
-0.00127052
-0.00125423
-0.00117319
-0.0011874
-0.00127042
-0.0011728
-0.00127166
-0.00117286
-0.00127173
-0.00117325
-0.00118779
-0.00125423
-0.00127053
-0.00118744
-0.00117318
-0.00127044
-0.00113899
-0.00103762
-0.00103768
-0.00113874
-0.00113727
-0.0010499
-0.00103736
-0.00111993
-0.00103722
-0.00111935
-0.00113734
-0.001139
-0.00103761
-0.00103769
-0.00113874
-0.00117326
-0.00118778
-0.00127052
-0.00125423
-0.0011732
-0.00118735
-0.00127046
-0.00117282
-0.00127167
-0.00117289
-0.00127176
-0.00117327
-0.00118781
-0.00125424
-0.00127053
-0.00118745
-0.00117319
-0.00127046
-0.00117282
-0.00127167
-0.00117288
-0.00127176
-0.00103697
-0.00103717
-0.00113677
-0.00113804
-0.00113794
-0.00103839
-0.00113906
-0.00127187
-0.0011732
-0.00117141
-0.00127107
-0.00127094
-0.00117247
-0.00117264
-0.00127179
-0.00117339
-0.00113679
-0.00104973
-0.00103767
-0.00111997
-0.00103768
-0.00111922
-0.00113713
-0.00113868
-0.00103788
-0.00103817
-0.00113863
-0.00113868
-0.00103787
-0.00103817
-0.00113864
-0.00117376
-0.00118778
-0.00125416
-0.00127029
-0.00118727
-0.00117348
-0.00126999
-0.00117377
-0.00118787
-0.00125415
-0.00127029
-0.00118735
-0.00117349
-0.00126998
-0.00117329
-0.00127153
-0.0011731
-0.0012714
-0.00117329
-0.00127153
-0.00117311
-0.0012714
-0.00103817
-0.00113912
-0.00103838
-0.00113907
-0.00117144
-0.00127105
-0.00127093
-0.00117245
-0.00117264
-0.00127187
-0.00117321
-0.00127179
-0.00117339
-0.00130542
-0.00140206
-0.00130524
-0.00140213
-0.00130484
-0.00130467
-0.00140118
-0.0014013
-0.00140142
-0.00153008
-0.0014351
-0.00153019
-0.00143495
-0.00143418
-0.00152943
-0.00152958
-0.00143465
-0.0014345
-0.0014017
-0.00130527
-0.00130538
-0.00140186
-0.00140035
-0.00130577
-0.00131987
-0.00138534
-0.00130613
-0.0014007
-0.00138508
-0.00140035
-0.00130579
-0.00131985
-0.00138535
-0.00130614
-0.00140067
-0.00138509
-0.00143495
-0.00152995
-0.00143501
-0.00152965
-0.00143497
-0.00152996
-0.00143503
-0.00152965
-0.00143579
-0.00144997
-0.00152885
-0.00151371
-0.00143561
-0.00144977
-0.00152831
-0.0014358
-0.00145
-0.00152886
-0.0015137
-0.00143564
-0.0014498
-0.00152831
-0.00130488
-0.00130466
-0.0014012
-0.00140121
-0.00140155
-0.00130527
-0.0014022
-0.0015301
-0.00143509
-0.0014342
-0.00152949
-0.00152951
-0.00143465
-0.00143452
-0.00153016
-0.00143498
-0.00140081
-0.00130548
-0.0013199
-0.00138535
-0.0013056
-0.00140093
-0.00138511
-0.00140205
-0.00130503
-0.00130491
-0.001402
-0.00140082
-0.00131989
-0.00130547
-0.00138534
-0.00130561
-0.00138514
-0.00140093
-0.00143452
-0.00153011
-0.00143481
-0.00153007
-0.00143529
-0.00144997
-0.0015291
-0.00151373
-0.00143534
-0.00144979
-0.00152881
-0.00143454
-0.0015301
-0.00143481
-0.00153006
-0.0014353
-0.00144996
-0.00151374
-0.00152911
-0.00144983
-0.00143533
-0.00152883
-0.00140207
-0.00130506
-0.00130493
-0.00140205
-0.00140084
-0.0013199
-0.00130548
-0.00138536
-0.00130563
-0.00138516
-0.00140094
-0.00140208
-0.00130505
-0.00130494
-0.00140202
-0.0014353
-0.00144994
-0.00152909
-0.00151372
-0.00143533
-0.00144975
-0.00152883
-0.00143456
-0.0015301
-0.00143484
-0.00153006
-0.00143532
-0.00144997
-0.00151373
-0.00152911
-0.00144984
-0.00143534
-0.00152883
-0.00143456
-0.00153011
-0.00143482
-0.00153006
-0.00130467
-0.00130482
-0.00140118
-0.00140142
-0.00140128
-0.0013054
-0.00140203
-0.00153017
-0.00143494
-0.00143417
-0.00152957
-0.0015294
-0.00143449
-0.00143463
-0.00153005
-0.00143507
-0.00140033
-0.00131983
-0.00130577
-0.00138539
-0.00130612
-0.00138507
-0.00140068
-0.00140167
-0.00130524
-0.00130537
-0.00140185
-0.00140168
-0.00130524
-0.00130537
-0.00140186
-0.00143579
-0.00144995
-0.00151367
-0.00152881
-0.00144969
-0.00143559
-0.0015283
-0.0014358
-0.00145002
-0.00151366
-0.00152883
-0.00144976
-0.00143561
-0.0015283
-0.00143496
-0.00152992
-0.001435
-0.00152965
-0.00143496
-0.00152995
-0.00143501
-0.00152965
-0.00130525
-0.00140215
-0.0013054
-0.00140204
-0.00143419
-0.00152956
-0.00152941
-0.00143447
-0.00143463
-0.00153018
-0.00143495
-0.00153007
-0.00143508
-0.0015625
-0.00165585
-0.00156238
-0.00165599
-0.00156209
-0.00156197
-0.00165498
-0.00165524
-0.0016554
-0.00177945
-0.00168772
-0.0017796
-0.00168762
-0.00168675
-0.00177892
-0.0017791
-0.00168739
-0.00168728
-0.00165544
-0.00156246
-0.0015624
-0.00165573
-0.00165407
-0.00156302
-0.00157676
-0.00163974
-0.00156315
-0.00165463
-0.00163952
-0.00165407
-0.00156302
-0.00157673
-0.00163974
-0.00156316
-0.00165461
-0.00163953
-0.00168752
-0.00177936
-0.0016877
-0.00177898
-0.00168753
-0.00177935
-0.0016877
-0.00177898
-0.00168828
-0.00170204
-0.0017783
-0.00176354
-0.00168828
-0.00170185
-0.0017776
-0.00168829
-0.00170203
-0.00177829
-0.00176353
-0.00168827
-0.00170188
-0.00177761
-0.00156212
-0.00156192
-0.00165496
-0.00165524
-0.00165535
-0.00156236
-0.00165594
-0.00177944
-0.00168771
-0.00168673
-0.00177892
-0.00177902
-0.00168739
-0.00168723
-0.00177955
-0.00168758
-0.00165459
-0.00156278
-0.00157678
-0.00163976
-0.00156269
-0.00165491
-0.00163956
-0.0016559
-0.00156226
-0.00156201
-0.00165592
-0.00165461
-0.00157677
-0.00156276
-0.00163976
-0.0015627
-0.00163959
-0.00165491
-0.00168717
-0.00177956
-0.00168755
-0.00177947
-0.00168782
-0.00170203
-0.00177859
-0.00176357
-0.00168806
-0.00170186
-0.00177817
-0.00168718
-0.00177956
-0.00168754
-0.00177946
-0.00168783
-0.00170203
-0.00176359
-0.0017786
-0.00170191
-0.00168805
-0.00177819
-0.00165587
-0.00156227
-0.00156201
-0.0016559
-0.00165461
-0.00157677
-0.00156276
-0.00163978
-0.0015627
-0.00163959
-0.0016549
-0.00165588
-0.00156227
-0.00156202
-0.00165592
-0.0016878
-0.00170197
-0.00177853
-0.00176355
-0.00168801
-0.00170181
-0.00177816
-0.00168715
-0.00177953
-0.00168752
-0.00177944
-0.00168782
-0.00170202
-0.00176357
-0.00177857
-0.0017019
-0.00168803
-0.00177816
-0.00168717
-0.00177955
-0.00168753
-0.00177945
-0.00156195
-0.00156206
-0.00165497
-0.0016554
-0.00165521
-0.00156247
-0.00165582
-0.0017796
-0.00168761
-0.00168673
-0.0017791
-0.00177891
-0.00168727
-0.00168737
-0.00177945
-0.00168771
-0.00165407
-0.00157671
-0.00156303
-0.00163979
-0.00156317
-0.00163951
-0.00165462
-0.00165545
-0.00156243
-0.00156241
-0.00165573
-0.00165546
-0.00156246
-0.00156242
-0.00165574
-0.00168831
-0.001702
-0.00176353
-0.00177829
-0.00170179
-0.00168828
-0.00177764
-0.00168831
-0.00170207
-0.00176352
-0.00177828
-0.00170186
-0.0016883
-0.00177762
-0.00168755
-0.00177937
-0.0016877
-0.001779
-0.00168756
-0.00177937
-0.00168771
-0.001779
-0.00156237
-0.00165597
-0.00156249
-0.00165585
-0.00168675
-0.00177906
-0.0017789
-0.00168723
-0.00168739
-0.00177958
-0.00168759
-0.00177945
-0.00168772
-0.00181074
-0.00190097
-0.00181065
-0.00190113
-0.00181042
-0.00181032
-0.0019
-0.00190046
-0.00190064
-0.0020206
-0.00193177
-0.00202076
-0.00193169
-0.00193066
-0.00202015
-0.00202033
-0.00193151
-0.00193141
-0.00190051
-0.00181071
-0.00181057
-0.00190083
-0.00189913
-0.00181125
-0.00182441
-0.00188529
-0.00181127
-0.00189981
-0.00188509
-0.00189913
-0.00181124
-0.00182438
-0.00188528
-0.00181127
-0.00189974
-0.00188509
-0.00193151
-0.00202051
-0.00193174
-0.00202011
-0.00193151
-0.00202051
-0.00193173
-0.00202011
-0.00193221
-0.00194551
-0.00201949
-0.00200512
-0.0019323
-0.00194536
-0.00201873
-0.00193222
-0.00194553
-0.00201951
-0.00200511
-0.00193231
-0.00194538
-0.00201874
-0.00181043
-0.00181025
-0.00189999
-0.00190033
-0.00190073
-0.0018106
-0.00190116
-0.00202062
-0.00193175
-0.00193067
-0.0020202
-0.00202026
-0.00193149
-0.0019314
-0.00202073
-0.00193169
-0.00189972
-0.00181103
-0.00182442
-0.00188531
-0.00181081
-0.00190011
-0.00188513
-0.00190101
-0.00181057
-0.00181023
-0.0019011
-0.00189973
-0.00182443
-0.00181102
-0.00188533
-0.00181083
-0.00188517
-0.00190012
-0.00193117
-0.00202072
-0.00193161
-0.0020206
-0.00193178
-0.0019455
-0.00201979
-0.00200516
-0.00193209
-0.00194537
-0.00201932
-0.00193119
-0.00202075
-0.00193162
-0.00202061
-0.00193179
-0.0019455
-0.00200517
-0.00201983
-0.00194542
-0.0019321
-0.00201935
-0.00190101
-0.00181054
-0.00181021
-0.0019011
-0.00189973
-0.00182442
-0.00181101
-0.00188533
-0.0018108
-0.00188515
-0.00190011
-0.00190102
-0.00181056
-0.00181022
-0.0019011
-0.00193177
-0.00194546
-0.00201977
-0.00200514
-0.00193205
-0.00194532
-0.00201933
-0.00193118
-0.00202072
-0.00193161
-0.00202059
-0.00193179
-0.00194551
-0.00200516
-0.00201979
-0.00194541
-0.00193207
-0.00201935
-0.00193119
-0.00202072
-0.00193162
-0.00202059
-0.00181031
-0.00181043
-0.00190001
-0.00190066
-0.00190048
-0.00181075
-0.00190099
-0.00202078
-0.00193169
-0.00193068
-0.00202036
-0.00202017
-0.00193142
-0.00193154
-0.00202062
-0.00193179
-0.00189916
-0.00182438
-0.00181127
-0.00188533
-0.00181129
-0.00188509
-0.00189981
-0.00190055
-0.00181073
-0.0018106
-0.0019009
-0.00190055
-0.00181073
-0.00181061
-0.0019009
-0.00193226
-0.00194551
-0.00200511
-0.00201951
-0.00194531
-0.00193234
-0.00201879
-0.00193226
-0.00194555
-0.00200511
-0.00201948
-0.00194537
-0.00193233
-0.00201877
-0.00193156
-0.00202054
-0.00193178
-0.00202013
-0.00193157
-0.00202053
-0.00193178
-0.00202013
-0.00181063
-0.00190113
-0.00181075
-0.00190099
-0.00193068
-0.0020203
-0.00202013
-0.00193138
-0.00193152
-0.00202074
-0.00193168
-0.0020206
-0.00193179
-0.00205089
-0.00213843
-0.0020508
-0.00213858
-0.00205063
-0.00205052
-0.00213744
-0.00213799
-0.00213816
-0.00225464
-0.00216831
-0.0022548
-0.00216821
-0.00216714
-0.00225424
-0.00225442
-0.00216808
-0.00216798
-0.00213798
-0.00205086
-0.00205069
-0.00213834
-0.0021366
-0.00205138
-0.00206408
-0.00212315
-0.00205134
-0.00213731
-0.00212296
-0.00213661
-0.00205139
-0.00206406
-0.00212317
-0.00205135
-0.00213732
-0.00212298
-0.00216804
-0.00225456
-0.00216828
-0.00225417
-0.00216804
-0.00225455
-0.00216828
-0.00225416
-0.0021687
-0.00218158
-0.00225358
-0.00223955
-0.0021688
-0.00218144
-0.00225281
-0.00216872
-0.0021816
-0.00225357
-0.00223954
-0.00216881
-0.00218148
-0.0022528
-0.00205066
-0.00205049
-0.00213746
-0.002138
-0.00213813
-0.00205078
-0.00213856
-0.00225463
-0.0021683
-0.00216717
-0.00225425
-0.00225436
-0.00216809
-0.00216795
-0.00225477
-0.00216819
-0.0021372
-0.00205115
-0.00206409
-0.0021232
-0.00205088
-0.00213762
-0.002123
-0.00213848
-0.00205075
-0.00205035
-0.00213857
-0.00213721
-0.0020641
-0.00205117
-0.00212322
-0.00205091
-0.00212305
-0.00213763
-0.00216769
-0.00225478
-0.00216814
-0.00225466
-0.00216824
-0.00218156
-0.00225389
-0.00223958
-0.00216859
-0.00218143
-0.00225342
-0.00216771
-0.00225479
-0.00216816
-0.00225466
-0.00216825
-0.00218156
-0.00223959
-0.00225391
-0.00218149
-0.00216859
-0.00225343
-0.00213847
-0.00205072
-0.00205032
-0.00213854
-0.00213721
-0.00206409