/*--------------------------------*- C++ -*----------------------------------*\
| =========                 |                                                 |
| \\      /  F ield         | OpenFOAM: The Open Source CFD Toolbox           |
|  \\    /   O peration     | Version:  2206                                  |
|   \\  /    A nd           | Website:  www.openfoam.com                      |
|    \\/     M anipulation  |                                                 |
\*---------------------------------------------------------------------------*/
FoamFile
{
    version     2.0;
    format      ascii;
    arch        "LSB;label=32;scalar=64";
    class       surfaceScalarField;
    location    "130";
    object      phi;
}
// * * * * * * * * * * * * * * * * * * * * * * * * * * * * * * * * * * * * * //

dimensions      [0 3 -1 0 0 0 0];

oriented        oriented;

internalField   nonuniform List<scalar> 
198849
(
-1.3215e-07
9.45109e-09
8.64139e-09
8.18838e-10
4.78129e-10
1.12761e-07
-2.63349e-08
1.55172e-09
-8.6434e-09
-5.06514e-09
1.11318e-07
1.71329e-09
1.38535e-09
7.18857e-10
2.72506e-09
1.82565e-09
3.29159e-09
1.26566e-09
-2.69896e-08
-3.10707e-08
-2.76918e-08
-2.63313e-08
1.55134e-09
-8.63959e-09
-5.05232e-09
1.11289e-07
1.71216e-09
1.38442e-09
7.18804e-10
2.72467e-09
1.82502e-09
3.29049e-09
1.26482e-09
-3.1066e-08
-2.69851e-08
-2.76864e-08
-2.67281e-08
-8.14396e-10
-1.56317e-09
1.4577e-09
1.81396e-09
2.5834e-08
-4.75168e-10
-4.89703e-10
-1.13863e-07
2.66789e-10
2.55399e-10
1.14306e-07
-1.08668e-07
-1.63885e-10
4.87591e-10
2.29324e-10
1.09063e-07
-8.49518e-11
-6.82045e-11
-1.23605e-10
-2.12333e-10
-1.23156e-10
-1.30086e-10
-2.05345e-10
-1.09676e-07
-1.69108e-10
4.80667e-10
2.23108e-10
1.10077e-07
-9.66495e-11
-6.36656e-11
-1.14628e-10
-1.5559e-10
-1.50697e-10
-1.80706e-10
-1.73697e-10
-2.66594e-08
1.60594e-10
1.68751e-10
-1.05854e-10
-1.15732e-10
2.65516e-08
-2.93177e-10
-3.01235e-10
-1.15316e-07
1.57563e-10
1.50386e-10
1.15603e-07
-1.09961e-07
-1.18682e-10
3.00335e-10
1.48944e-10
1.10212e-07
-4.00197e-11
-3.45878e-11
-9.46715e-11
-1.55188e-10
-5.22282e-11
-5.52402e-11
-1.49681e-10
-1.10989e-07
-1.23761e-10
2.9424e-10
1.46205e-10
1.11246e-07
-5.23874e-11
-2.99509e-11
-8.26475e-11
-9.93138e-11
-8.05984e-11
-1.08229e-10
-1.20399e-10
-2.69078e-08
1.12352e-10
1.2363e-10
-4.93664e-11
-6.09028e-11
2.67821e-08
-2.54587e-10
-2.63479e-10
-1.16394e-07
1.36689e-10
1.30448e-10
1.16644e-07
-1.10897e-07
-1.06513e-10
2.62163e-10
1.29715e-10
1.1111e-07
-3.12393e-11
-2.40012e-11
-8.32955e-11
-1.42283e-10
-3.78345e-11
-3.90054e-11
-1.40148e-10
-1.11946e-07
-1.11732e-10
2.56395e-10
1.27988e-10
1.12164e-07
-4.34873e-11
-1.98319e-11
-7.5639e-11
-8.5778e-11
-6.59685e-11
-9.21076e-11
-1.08222e-10
-2.70859e-08
9.97838e-11
1.12232e-10
-3.50678e-11
-4.66004e-11
2.69555e-08
-2.35962e-10
-2.44068e-10
-1.17365e-07
1.26731e-10
1.20935e-10
1.17597e-07
-1.11712e-07
-9.99914e-11
2.42786e-10
1.1834e-10
1.119e-07
-2.53434e-11
-1.75041e-11
-8.15756e-11
-1.355e-10
-2.89006e-11
-3.03305e-11
-1.305e-10
-1.12779e-07
-1.05291e-10
2.37464e-10
1.16996e-10
1.12972e-07
-3.77821e-11
-1.34668e-11
-7.05133e-11
-7.8962e-11
-5.72026e-11
-8.38419e-11
-1.00991e-10
-2.72431e-08
9.28308e-11
1.05851e-10
-2.67595e-11
-3.84885e-11
2.71097e-08
-2.19516e-10
-2.27255e-10
-1.18266e-07
1.18157e-10
1.1278e-10
1.18482e-07
-1.12429e-07
-9.47525e-11
2.25953e-10
1.08862e-10
1.12593e-07
-1.98123e-11
-1.27154e-11
-7.35388e-11
-1.29199e-10
-2.03358e-11
-2.20427e-11
-1.26138e-10
-1.13515e-07
-1.00101e-10
2.20898e-10
1.07806e-10
1.13685e-07
-3.23797e-11
-8.56439e-12
-6.60582e-11
-7.27739e-11
-4.87762e-11
-7.59903e-11
-9.43708e-11
-2.7378e-08
8.72321e-11
1.00719e-10
-1.94736e-11
-3.14907e-11
2.7241e-08
-2.05263e-10
-2.12471e-10
-1.19103e-07
1.11893e-10
1.06205e-10
1.19302e-07
-1.13057e-07
-9.01828e-11
2.11183e-10
1.00312e-10
1.132e-07
-1.47634e-11
-8.67621e-12
-7.32193e-11
-1.23547e-10
-1.23056e-11
-1.42527e-11
-1.17733e-10
-1.1416e-07
-9.5433e-11
2.05957e-10
9.97985e-11
1.14308e-07
-2.73152e-11
-4.49297e-12
-6.21402e-11
-6.71906e-11
-4.09668e-11
-6.85814e-11
-8.84908e-11
-2.7489e-08
8.22056e-11
9.6035e-11
-1.29441e-11
-2.52936e-11
2.7349e-08
-1.92484e-10
-1.99816e-10
-1.19876e-07
1.06966e-10
1.00312e-10
1.20061e-07
-1.13603e-07
-8.56529e-11
1.98283e-10
9.24905e-11
1.13726e-07
-1.01143e-11
-5.00741e-12
-6.62576e-11
-1.1887e-10
-5.50195e-12
-7.45932e-12
-1.15276e-10
-1.14723e-07
-9.11147e-11
1.92799e-10
9.30974e-11
1.14853e-07
-2.26926e-11
-9.6868e-13
-5.89057e-11
-6.27118e-11
-3.42186e-11
-6.20784e-11
-8.36728e-11
-2.75795e-08
7.7528e-11
9.17833e-11
-7.01718e-12
-1.96885e-11
2.74368e-08
-1.80232e-10
-1.88626e-10
-1.20594e-07
1.0262e-10
9.42127e-11
1.20766e-07
-1.14081e-07
-8.17215e-11
1.8731e-10
8.57878e-11
1.14188e-07
-5.93235e-12
-2.0254e-12
-6.70347e-11
-1.14709e-10
9.44438e-13
-8.68269e-13
-1.08631e-10
-1.15215e-07
-8.71338e-11
1.80866e-10
8.70129e-11
1.15329e-07
-1.85289e-11
1.88562e-12
-5.62571e-11
-5.8495e-11
-2.81074e-11
-5.58036e-11
-7.97217e-11
-2.76523e-08
7.31578e-11
8.785e-11
-1.69827e-12
-1.4708e-11
2.75077e-08
-1.68869e-10
-1.78606e-10
-1.21262e-07
9.89758e-11
8.82646e-11
1.21422e-07
-1.14491e-07
-7.74827e-11
1.77493e-10
7.85895e-11
1.1458e-07
-1.79921e-12
7.55953e-13
-6.06917e-11
-1.10807e-10
7.07897e-12
5.5488e-12
-1.07098e-10
-1.1564e-07
-8.31041e-11
1.69901e-10
8.15722e-11
1.15738e-07
-1.44647e-11
4.29142e-12
-5.39391e-11
-5.4838e-11
-2.21156e-11
-4.98195e-11
-7.60124e-11
-2.7709e-08
6.8953e-11
8.38904e-11
3.56286e-12
-9.77271e-12
2.75623e-08
-1.58671e-10
-1.68704e-10
-1.2188e-07
9.58982e-11
8.26225e-11
1.22029e-07
-1.14842e-07
-7.37091e-11
1.6916e-10
7.37142e-11
1.14915e-07
1.8135e-12
2.77263e-12
-6.24415e-11
-1.07564e-10
1.30253e-11
1.18624e-11
-1.0123e-10
-1.16003e-07
-7.88773e-11
1.5921e-10
7.61252e-11
1.16088e-07
-1.0603e-11
6.17194e-12
-5.23031e-11
-5.1744e-11
-1.61779e-11
-4.37462e-11
-7.2733e-11
-2.77497e-08
6.48025e-11
8.0074e-11
8.43359e-12
-5.45093e-12
2.76019e-08
-1.46494e-10
-1.57964e-10
-1.22448e-07
8.50326e-11
8.12487e-11
1.22586e-07
-1.15127e-07
-6.91477e-11
1.49511e-10
8.48965e-11
1.15175e-07
5.68478e-12
4.64744e-12
-6.16017e-11
-1.0351e-10
1.9889e-11
2.00703e-11
-9.78345e-11
-1.16298e-07
-7.44427e-11
2.39551e-11
2.77184e-10
-7.02585e-12
2.21751e-12
-5.09487e-11
-4.68508e-11
-9.25155e-12
-3.57549e-11
-6.96788e-11
1.16289e-07
-2.77758e-08
6.02411e-11
7.50243e-11
1.42463e-11
-6.46204e-13
2.7627e-08
-2.30771e-09
-2.354e-09
2.67309e-08
-2.72007e-08
2.73466e-09
2.39679e-09
3.20218e-12
2.63019e-08
-3.16208e-08
3.08365e-09
-7.56215e-11
2.30961e-09
2.31645e-12
2.63037e-08
-3.16215e-08
3.08207e-09
-7.61812e-11
-2.35342e-09
2.67313e-08
-2.72005e-08
2.71537e-09
2.41686e-09
1.03051e-10
2.63364e-08
-3.16721e-08
2.95477e-09
-7.60819e-11
2.87408e-12
2.30879e-09
2.63011e-08
-3.16196e-08
-7.48655e-11
3.08168e-09
-7.57977e-10
-8.25454e-10
-3.27895e-08
-3.14407e-08
-3.22995e-08
-3.23008e-08
-3.62336e-10
-1.22888e-09
7.72647e-10
-3.51784e-10
-1.2528e-09
7.93368e-10
-1.02675e-10
1.32151e-07
-7.63119e-10
-8.24742e-10
-3.2789e-08
-3.14409e-08
-3.22993e-08
-3.23004e-08
-3.62791e-10
-1.22874e-09
7.71613e-10
-3.50886e-10
-1.25209e-09
7.94265e-10
-1.03193e-10
1.32135e-07
-7.5688e-10
-8.1609e-10
-3.27881e-08
-3.14387e-08
-3.22984e-08
-3.22987e-08
-3.62992e-10
-1.22946e-09
7.71622e-10
-3.51923e-10
-1.25246e-09
7.93478e-10
-3.11902e-12
-1.03258e-10
1.32143e-07
-7.57352e-10
-8.22825e-10
-3.27887e-08
-3.14397e-08
-3.22986e-08
-3.22996e-08
-3.49554e-10
-1.22874e-09
7.73169e-10
-3.64514e-10
-1.253e-09
7.92562e-10
-3.16717e-08
2.95704e-09
-7.63782e-11
2.30447e-09
2.62995e-08
-3.16177e-08
-7.53897e-11
3.086e-09
-2.35266e-09
2.6728e-08
-2.71977e-08
2.71488e-09
2.41626e-09
-3.16682e-08
-7.54354e-11
2.95649e-09
2.35644e-09
2.63343e-08
-3.16708e-08
-7.58997e-11
2.95274e-09
-2.71974e-08
2.7474e-09
2.3828e-09
-8.15372e-10
-1.56246e-09
1.45336e-09
1.81882e-09
2.58366e-08
9.45499e-11
8.42913e-11
2.665e-08
-2.64487e-08
-1.92291e-10
-1.87807e-10
-4.66266e-09
1.12791e-07
1.12218e-09
1.48131e-09
8.89248e-10
2.72335e-09
1.83373e-09
3.28867e-09
1.26446e-09
-2.70863e-08
-3.10581e-08
-2.76488e-08
8.15062e-10
-9.45513e-09
-4.67018e-09
1.12814e-07
1.13208e-09
1.48265e-09
8.94383e-10
2.72277e-09
1.82327e-09
3.2871e-09
1.25868e-09
-2.70872e-08
-3.1061e-08
-2.76525e-08
1.10694e-07
-2.63368e-10
-1.09999e-07
-4.80078e-10
-2.00414e-10
-1.34392e-10
-5.92523e-11
1.94959e-10
-7.37408e-11
1.03793e-10
3.1141e-10
-9.46314e-11
1.10721e-07
-2.62227e-10
-1.10023e-07
-4.81348e-10
-2.00528e-10
-1.354e-10
-5.82373e-11
1.94293e-10
-7.34596e-11
1.02389e-10
3.11609e-10
1.43894e-09
1.82509e-09
2.58341e-08
8.3768e-11
2.66503e-08
-2.64486e-08
-1.90963e-10
-1.89078e-10
-5.06767e-09
1.11328e-07
1.7349e-09
1.37422e-09
7.12554e-10
2.72376e-09
1.81512e-09
3.28977e-09
1.25935e-09
-2.69889e-08
-3.10725e-08
-2.7693e-08
8.15148e-10
-9.4498e-09
-4.65896e-09
1.12786e-07
1.13217e-09
1.48194e-09
8.93365e-10
2.72186e-09
1.82348e-09
3.28737e-09
1.25897e-09
-3.10577e-08
-2.70838e-08
-2.76494e-08
1.0868e-07
6.27861e-10
-1.08202e-07
2.80726e-10
-1.94996e-10
-1.4846e-10
-1.18603e-10
-1.82428e-10
-2.36993e-10
-1.75448e-10
-2.4501e-10
-1.01744e-10
1.09687e-07
6.23887e-10
-1.09212e-07
3.1276e-10
-1.9391e-10
-1.48655e-10
-1.26163e-10
-2.0182e-10
-2.36834e-10
-1.76912e-10
-2.25476e-10
-9.4501e-09
-4.66027e-09
1.1278e-07
1.12194e-09
1.48094e-09
8.88885e-10
2.72298e-09
1.83388e-09
1.265e-09
3.28912e-09
-3.10568e-08
-2.70833e-08
-2.76471e-08
6.27758e-10
-1.08191e-07
2.80923e-10
-1.95245e-10
-1.47789e-10
-1.1848e-10
-1.82633e-10
-2.37496e-10
-2.44638e-10
-1.75733e-10
-1.01534e-10
1.09682e-07
6.22829e-10
-1.09208e-07
3.12814e-10
-1.93742e-10
-1.47561e-10
-1.25903e-10
-2.01764e-10
-2.37093e-10
-1.77221e-10
-2.25433e-10
1.43897e-09
1.82441e-09
2.58311e-08
7.906e-11
2.66553e-08
-2.64544e-08
-1.99642e-10
-1.82021e-10
-8.64104e-09
-5.06382e-09
1.11316e-07
1.73526e-09
1.37365e-09
7.12633e-10
2.72358e-09
1.81457e-09
1.25855e-09
3.28886e-09
-3.107e-08
-2.69868e-08
-2.76902e-08
-1.99646e-10
-1.08966e-07
-5.74806e-10
-2.00577e-10
-1.34744e-10
-5.4545e-11
2.17057e-10
-7.52781e-11
2.88029e-10
1.04043e-10
-7.91847e-11
1.0971e-07
-1.99594e-10
-1.08998e-07
-5.75991e-10
-2.00437e-10
-1.35944e-10
-5.35302e-11
2.16646e-10
-7.49777e-11
1.03188e-10
2.88487e-10
-2.64591e-08
-2.00284e-10
-1.80741e-10
1.67838e-10
1.63781e-10
-1.12963e-10
-1.09134e-10
2.65405e-08
4.73783e-11
3.95226e-11
2.68979e-08
-2.67226e-08
-1.32837e-10
-1.29362e-10
2.4614e-10
1.11098e-07
-1.04355e-10
-7.80086e-11
-1.13583e-10
-1.31745e-10
-1.52344e-10
-2.04079e-10
-1.72666e-10
-1.67835e-10
4.74151e-10
2.45459e-10
1.11126e-07
-1.03944e-10
-7.73608e-11
-1.17815e-10
-1.3172e-10
-1.52016e-10
-2.04352e-10
-1.698e-10
1.12018e-07
3.12103e-10
-1.11742e-07
1.71322e-10
-1.25507e-10
-8.438e-11
-6.36932e-11
-1.40459e-10
-1.25347e-10
-9.00936e-11
-8.25876e-11
-4.66369e-11
1.12045e-07
3.13999e-10
-1.11772e-07
1.7101e-10
-1.25882e-10
-8.5196e-11
-5.97883e-11
-1.40925e-10
-1.25517e-10
-9.23266e-11
-8.24397e-11
-1.12537e-10
-1.09641e-10
2.65407e-08
3.92296e-11
2.6899e-08
-2.6723e-08
-1.31801e-10
-1.30069e-10
2.29042e-10
1.09075e-07
-8.49794e-11
-6.88079e-11
-1.28209e-10
-2.1287e-10
-1.22639e-10
-1.29823e-10
-2.02723e-10
-1.60739e-10
4.87344e-10
2.48536e-10
1.10083e-07
-9.13586e-11
-8.45942e-11
-1.27289e-10
-1.93265e-10
-1.2395e-10
-1.4883e-10
-2.02139e-10
1.09972e-07
3.22385e-10
-1.09704e-07
1.5902e-10
-1.24069e-10
-9.8639e-11
-4.51328e-11
-6.43543e-11
-1.55297e-10
-6.02013e-11
-1.62093e-10
-5.38533e-11
1.1099e-07
3.21033e-10
-1.10717e-07
1.7176e-10
-1.19103e-10
-9.76882e-11
-5.10358e-11
-8.42514e-11
-1.54973e-10
-6.17564e-11
-1.42791e-10
4.8621e-10
2.48527e-10
1.10079e-07
-9.14319e-11
-8.4439e-11
-1.26239e-10
-1.93216e-10
-1.24154e-10
-2.02607e-10
-1.48774e-10
3.21759e-10
-1.0969e-07
1.58872e-10
-1.24724e-10
-9.81824e-11
-4.83639e-11
-6.44877e-11
-1.55787e-10
-1.62239e-10
-5.79523e-11
-5.41452e-11
1.10984e-07
3.21244e-10
-1.10712e-07
1.71933e-10
-1.18847e-10
-9.70684e-11
-5.09695e-11
-8.38887e-11
-1.55595e-10
-6.12491e-11
-1.42996e-10
-1.05428e-10
-1.15643e-10
2.65465e-08
3.443e-11
2.69028e-08
-2.67287e-08
-1.39534e-10
-1.22829e-10
4.81138e-10
2.22168e-10
1.1011e-07
-9.61265e-11
-6.353e-11
-1.15339e-10
-1.55215e-10
-1.50642e-10
-1.72881e-10
-1.81269e-10
3.17295e-10
-1.10717e-07
1.55511e-10
-1.29571e-10
-8.60273e-11
-5.68649e-11
-1.17068e-10
-1.26621e-10
-1.064e-10
-8.8503e-11
-3.473e-11
1.11026e-07
3.16809e-10
-1.10751e-07
1.54963e-10
-1.29568e-10
-8.68978e-11
-5.72489e-11
-1.17162e-10
-1.26163e-10
-8.8457e-11
-1.0656e-10
-2.6734e-08
-1.40688e-10
-1.21959e-10
1.19543e-10
1.18332e-10
-5.67533e-11
-5.42765e-11
2.6771e-08
3.34809e-11
2.64683e-11
2.70753e-08
-2.69035e-08
-1.17326e-10
-1.14396e-10
1.61068e-10
1.12274e-07
-5.91111e-11
-4.22186e-11
-8.08346e-11
-7.53522e-11
-8.24192e-11
-1.31935e-10
-1.1926e-10
-1.19642e-10
2.9173e-10
1.60671e-10
1.12304e-07
-5.88637e-11
-4.17683e-11
-8.16268e-11
-7.53731e-11
-8.20958e-11
-1.32289e-10
-1.19071e-10
1.1298e-07
2.60859e-10
-1.12753e-07
1.4494e-10
-1.09186e-10
-7.52129e-11
-5.20683e-11
-1.18527e-10
-1.09813e-10
-6.96986e-11
-6.47984e-11
-3.3171e-11
1.13011e-07
2.61785e-10
-1.12784e-07
1.44414e-10
-1.09436e-10
-7.60159e-11
-5.18974e-11
-1.18929e-10
-1.0943e-10
-6.99939e-11
-6.42783e-11
-5.69206e-11
-5.42469e-11
2.67718e-08
2.61284e-11
2.70762e-08
-2.69038e-08
-1.16573e-10
-1.1518e-10
1.4886e-10
1.10224e-07
-4.04168e-11
-3.51043e-11
-9.52757e-11
-1.55538e-10
-5.2613e-11
-5.564e-11
-1.4933e-10
-1.12325e-10
3.00179e-10
1.60811e-10
1.11242e-07
-4.59307e-11
-4.87974e-11
-9.39533e-11
-1.35471e-10
-5.35035e-11
-7.49139e-11
-1.48594e-10
1.1091e-07
2.6898e-10
-1.10689e-07
1.34025e-10
-1.08392e-10
-8.94935e-11
-3.28096e-11
-4.17541e-11
-1.39887e-10
-4.04242e-11
-1.44747e-10
-3.98101e-11
1.11936e-07
2.68383e-10
-1.11712e-07
1.446e-10
-1.02088e-10
-8.83128e-11
-3.86938e-11
-6.14659e-11
-1.39152e-10
-4.15658e-11
-1.2499e-10
2.99071e-10
1.60918e-10
1.11238e-07
-4.61839e-11
-4.87714e-11
-9.33424e-11
-1.35682e-10
-5.32429e-11
-1.4947e-10
-7.45429e-11
2.68858e-10
-1.10677e-07
1.33873e-10
-1.08597e-10
-8.86012e-11
-3.29274e-11
-4.163e-11
-1.4013e-10
-1.44619e-10
-4.03094e-11
-3.97646e-11
1.1193e-07
2.67904e-10
-1.11707e-07
1.44521e-10
-1.02099e-10
-8.77391e-11
-3.86675e-11
-6.10595e-11
-1.39765e-10
-4.13024e-11
-1.25167e-10
-4.98197e-11
-6.07599e-11
2.67773e-08
2.18349e-11
2.70803e-08
-2.69095e-08
-1.24677e-10
-1.07766e-10
2.95315e-10
1.45725e-10
1.11282e-07
-5.23853e-11
-2.97869e-11
-8.30261e-11
-9.8987e-11
-8.07341e-11
-1.19746e-10
-1.08504e-10
2.64013e-10
-1.11721e-07
1.31447e-10
-1.13679e-10
-7.71478e-11
-4.49957e-11
-9.49423e-11
-1.10636e-10
-8.8447e-11
-6.84772e-11
-2.12822e-11
1.11983e-07
2.64324e-10
-1.11758e-07
1.3094e-10
-1.14258e-10
-7.74265e-11
-4.53395e-11
-9.50775e-11
-1.10185e-10
-6.87577e-11
-8.83641e-11
-2.69142e-08
-1.25809e-10
-1.06933e-10
1.07036e-10
1.06265e-10
-4.21309e-11
-4.05955e-11
2.69447e-08
2.62194e-11
1.95399e-11
2.72323e-08
-2.70622e-08
-1.09279e-10
-1.06595e-10
1.40819e-10
1.13199e-07
-5.05209e-11
-3.12651e-11
-7.35676e-11
-6.1957e-11
-6.70827e-11
-1.15666e-10
-1.07244e-10
-1.07263e-10
2.54578e-10
1.40568e-10
1.13231e-07
-5.02841e-11
-3.09332e-11
-7.7948e-11
-6.16463e-11
-6.72851e-11
-1.16269e-10
-1.04291e-10
1.13819e-07
2.40641e-10
-1.13618e-07
1.32252e-10
-1.01679e-10
-6.97934e-11
-4.61856e-11
-1.0983e-10
-1.02219e-10
-6.06089e-11
-5.73546e-11
-2.58569e-11
1.13851e-07
2.41404e-10
-1.13651e-07
1.31915e-10
-1.01785e-10
-7.05951e-11
-4.22129e-11
-1.10289e-10
-1.01886e-10
-6.34981e-11
-5.69094e-11
-4.21902e-11
-4.03935e-11
2.6945e-08
1.9233e-11
2.72333e-08
-2.70626e-08
-1.08623e-10
-1.07233e-10
1.29675e-10
1.11123e-07
-3.10574e-11
-2.42367e-11
-8.77039e-11
-1.42288e-10
-3.78259e-11
-3.90704e-11
-1.37365e-10
-9.97733e-11
2.62033e-10
1.40135e-10
1.12151e-07
-3.69301e-11
-3.74235e-11
-8.6478e-11
-1.22413e-10
-3.89001e-11
-5.87363e-11
-1.36557e-10
1.11726e-07
2.47535e-10
-1.1153e-07
1.22206e-10
-1.01229e-10
-8.40897e-11
-2.66919e-11
-3.25658e-11
-1.32348e-10
-3.12961e-11
-1.3747e-10
-3.26476e-11
1.12759e-07
2.47158e-10
-1.12562e-07
1.32054e-10
-9.44554e-11
-8.2841e-11
-3.25542e-11
-5.23681e-11
-1.31597e-10
-3.24113e-11
-1.17616e-10
2.61481e-10
1.4011e-10
1.12145e-07
-3.6949e-11
-3.73709e-11
-8.58811e-11
-1.22576e-10
-3.86146e-11
-1.37115e-10
-5.8349e-11
2.47367e-10
-1.11516e-07
1.22104e-10
-1.01577e-10
-8.30639e-11
-3.05841e-11
-3.23788e-11
-1.32542e-10
-1.37335e-10
-2.86669e-11
-3.25574e-11
1.12753e-07
2.46537e-10
-1.12556e-07
1.31895e-10
-9.44599e-11
-8.23229e-11
-3.25978e-11
-5.19918e-11
-1.3218e-10
-3.20963e-11
-1.17784e-10
-3.55281e-11
-4.64231e-11
2.69508e-08
1.49215e-11
2.72374e-08
-2.70683e-08
-1.16731e-10
-9.99503e-11
2.56933e-10
1.27549e-10
1.12201e-07
-4.37327e-11
-1.91501e-11
-7.56803e-11
-8.57767e-11
-6.60865e-11
-1.07557e-10
-9.24112e-11
2.43314e-10
-1.1258e-07
1.19826e-10
-1.06616e-10
-7.17936e-11
-3.91194e-11
-8.61158e-11
-1.02994e-10
-8.11067e-11
-5.93587e-11
-1.43525e-11
1.12817e-07
2.43785e-10
-1.12617e-07
1.1927e-10
-1.07233e-10
-7.20632e-11
-3.94443e-11
-8.62406e-11
-1.02594e-10
-5.96587e-11
-8.10527e-11
-2.70732e-08
-1.17836e-10
-9.90594e-11
1.00206e-10
9.96949e-11
-3.37298e-11
-3.25579e-11
2.70987e-08
2.09643e-11
1.48293e-11
2.73673e-08
-2.71998e-08
-1.02754e-10
-1.00518e-10
1.29109e-10
1.14013e-07
-4.47642e-11
-2.4646e-11
-6.83532e-11
-5.48263e-11
-5.84235e-11
-1.07585e-10
-9.98552e-11
-1.00373e-10
2.35875e-10
1.2901e-10
1.14045e-07
-4.4524e-11
-2.42342e-11
-6.91339e-11
-5.48338e-11
-5.87124e-11
-1.0824e-10
-9.97e-11
1.1456e-07
2.24193e-10
-1.14383e-07
1.21849e-10
-9.60023e-11
-6.5019e-11
-4.05326e-11
-1.0237e-10
-9.48665e-11
-5.26314e-11
-5.04234e-11
-2.05754e-11
1.14593e-07
2.25258e-10
-1.14416e-07
1.2171e-10
-9.62545e-11
-6.57746e-11
-4.02928e-11
-1.02533e-10
-9.51402e-11
-5.24212e-11
-5.0623e-11
-3.39788e-11
-3.21661e-11
2.70991e-08
1.41628e-11
2.73686e-08
-2.72001e-08
-1.0204e-10
-1.01215e-10
1.18299e-10
1.11914e-07
-2.51217e-11
-1.78303e-11
-8.24925e-11
-1.35503e-10
-2.90456e-11
-3.04278e-11
-1.30234e-10
-9.28215e-11
2.4288e-10
1.28122e-10
1.12949e-07
-3.09366e-11
-3.08356e-11
-8.1172e-11
-1.15548e-10
-3.01075e-11
-5.01943e-11
-1.29367e-10
1.12444e-07
2.2988e-10
-1.12272e-07
1.12859e-10
-9.551e-11
-7.95159e-11
-2.10475e-11
-2.42274e-11
-1.25516e-10
-2.25696e-11
-1.31135e-10
-2.73909e-11
1.13485e-07
2.29602e-10
-1.13311e-07
1.21917e-10
-8.8702e-11
-7.81435e-11
-2.6827e-11
-4.41404e-11
-1.24745e-10
-2.37325e-11
-1.11263e-10
2.42208e-10
1.27929e-10
1.12944e-07
-3.10363e-11
-3.07088e-11
-8.06332e-11
-1.15702e-10
-2.97993e-11
-1.29927e-10
-4.98099e-11
2.2954e-10
-1.12258e-07
1.12998e-10
-9.60624e-11
-7.86501e-11
-2.12899e-11
-2.41353e-11
-1.25733e-10
-1.31041e-10
-2.24683e-11
-2.73468e-11
1.1348e-07
2.29087e-10
-1.13307e-07
1.21979e-10
-8.87665e-11
-7.76163e-11
-2.69137e-11
-4.38327e-11
-1.25305e-10
-2.34168e-11
-1.11468e-10
-2.72093e-11
-3.83377e-11
2.71049e-08
9.75648e-12
2.73725e-08
-2.72059e-08
-1.10153e-10
-9.3568e-11
2.38082e-10
1.1663e-10
1.13011e-07
-3.80629e-11
-1.27812e-11
-7.06116e-11
-7.90019e-11
-5.74015e-11
-1.00404e-10
-8.4174e-11
2.26744e-10
-1.1334e-07
1.10432e-10
-1.0125e-10
-6.72364e-11
-3.36466e-11
-7.82474e-11
-9.63116e-11
-7.48834e-11
-5.08727e-11
-9.24741e-12
1.13554e-07
2.27125e-10
-1.13379e-07
1.0991e-10
-1.01936e-10
-6.74338e-11
-3.39366e-11
-7.82646e-11
-9.57822e-11
-5.10954e-11
-7.46947e-11
-2.72106e-08
-1.11293e-10
-9.2711e-11
9.47125e-11
9.41471e-11
-2.64461e-11
-2.52433e-11
2.72301e-08
1.65639e-11
1.092e-11
2.74776e-08
-2.73127e-08
-9.73639e-11
-9.50191e-11
1.18697e-10
1.14731e-07
-3.91246e-11
-1.96196e-11
-6.36671e-11
-4.84993e-11
-5.0467e-11
-1.00394e-10
-9.28561e-11
-9.49769e-11
2.19711e-10
1.18706e-10
1.14765e-07
-3.88911e-11
-1.92156e-11
-6.80976e-11
-4.85658e-11
-5.01581e-11
-1.00473e-10
-9.05031e-11
1.1521e-07
2.09986e-10
-1.15056e-07
1.13123e-10
-9.09084e-11
-6.08876e-11
-3.52287e-11
-9.47615e-11
-8.89537e-11
-4.48127e-11
-4.50897e-11
-1.61008e-11
1.15243e-07
2.10875e-10
-1.1509e-07
1.13072e-10
-9.10655e-11
-6.16424e-11
-3.12208e-11
-9.5242e-11
-8.90432e-11
-4.72464e-11
-4.49803e-11
-2.66774e-11
-2.50005e-11
2.72306e-08
1.02734e-11
2.74794e-08
-2.73135e-08
-9.67626e-11
-9.55478e-11
1.08753e-10
1.12608e-07
-1.95096e-11
-1.32994e-11
-7.79565e-11
-1.29151e-10
-2.03125e-11
-2.20447e-11
-1.2343e-10
-8.72043e-11
2.26067e-10
1.17567e-10
1.13651e-07
-2.51913e-11
-2.57386e-11
-7.64883e-11
-1.09248e-10
-2.14126e-11
-4.19888e-11
-1.22569e-10
1.1307e-07
2.13938e-10
-1.1292e-07
1.05527e-10
-9.09132e-11
-7.57222e-11
-1.59989e-11
-1.6316e-11
-1.19388e-10
-1.44825e-11
-1.25307e-10
-2.31562e-11
1.14119e-07
2.13679e-10
-1.13967e-07
1.13385e-10
-8.36629e-11
-7.39645e-11
-2.1363e-11
-3.6382e-11
-1.18679e-10
-1.56662e-11
-1.05492e-10
2.25609e-10
1.17584e-10
1.13646e-07
-2.52574e-11
-2.56319e-11
-7.59059e-11
-1.09425e-10
-2.10718e-11
-1.23089e-10
-4.16705e-11
2.13623e-10
-1.12906e-07
1.0519e-10
-9.16602e-11
-7.47456e-11
-2.0009e-11
-1.61908e-11
-1.19565e-10
-1.25208e-10
-1.18582e-11
-2.3084e-11
1.14114e-07
2.13204e-10
-1.13963e-07
1.13361e-10
-8.37419e-11
-7.36033e-11
-2.16146e-11
-3.60457e-11
-1.19291e-10
-1.53907e-11
-1.05612e-10
-1.99059e-11
-3.13229e-11
2.72364e-08
5.56393e-12
2.74832e-08
-2.73193e-08
-1.04495e-10
-8.81979e-11
2.21418e-10
1.075e-10
1.13724e-07
-3.25575e-11
-7.90967e-12
-6.60783e-11
-7.27042e-11
-4.88446e-11
-9.36622e-11
-7.61824e-11
2.11798e-10
-1.14007e-07
1.02303e-10
-9.65047e-11
-6.3267e-11
-2.85326e-11
-7.06472e-11
-9.02522e-11
-6.90877e-11
-4.28887e-11
-4.95342e-12
1.14198e-07
2.12318e-10
-1.14045e-07
1.01914e-10
-9.71573e-11
-6.33876e-11
-2.87843e-11
-7.08353e-11
-8.98219e-11
-4.31487e-11
-6.90929e-11
-2.7324e-08
-1.05659e-10
-8.73421e-11
8.97202e-11
8.95455e-11
-2.00705e-11
-1.88754e-11
2.73373e-08
1.27198e-11
7.42775e-12
2.75672e-08
-2.74041e-08
-9.29313e-11
-9.02677e-11
1.10131e-10
1.15359e-07
-3.39165e-11
-1.5351e-11
-5.96437e-11
-4.33731e-11
-4.27664e-11
-9.29689e-11
-8.70581e-11
-8.99303e-11
2.05386e-10
1.10225e-10
1.15393e-07
-3.36784e-11
-1.48988e-11
-6.03558e-11
-4.31852e-11
-4.29802e-11
-9.33872e-11
-8.71223e-11
1.15777e-07
1.97431e-10
-1.15643e-07
1.05583e-10
-8.62133e-11
-5.73742e-11
-3.03462e-11
-8.82675e-11
-8.44249e-11
-3.75926e-11
-4.0463e-11
-1.24318e-11
1.15811e-07
1.98211e-10
-1.15676e-07
1.05071e-10
-8.66105e-11
-5.80414e-11
-3.01506e-11
-8.86699e-11
-8.39658e-11
-3.79642e-11
-4.02219e-11
-2.04648e-11
-1.84449e-11
2.73382e-08
6.6839e-12
2.75698e-08
-2.74059e-08
-9.19372e-11
-9.10709e-11
1.00619e-10
1.13212e-07
-1.44762e-11
-9.333e-12
-7.40877e-11
-1.2353e-10
-1.23585e-11
-1.42959e-11
-1.17422e-10
-8.21355e-11
2.11366e-10
1.08259e-10
1.14263e-07
-1.97698e-11
-2.1459e-11
-7.23286e-11
-1.03524e-10
-1.35105e-11
-3.42673e-11
-1.16618e-10
1.13615e-07
1.99609e-10
-1.13484e-07
9.89762e-11
-8.65989e-11
-7.23969e-11
-1.13614e-11
-9.36391e-12
-1.14519e-10
-7.46767e-12
-1.20621e-10
-1.95285e-11
1.1467e-07
1.99604e-10
-1.14538e-07
1.06042e-10
-7.90729e-11
-7.05989e-11
-1.66647e-11
-2.93594e-11
-1.13658e-10
-8.4887e-12
-1.00746e-10
2.10835e-10
1.08441e-10
1.14259e-07
-2.00602e-11
-2.13097e-11
-7.18997e-11
-1.03712e-10
-1.32954e-11
-1.17285e-10
-3.39853e-11
1.99304e-10
-1.13472e-07
9.84681e-11
-8.71051e-11
-7.15048e-11
-1.15855e-11
-9.29655e-12
-1.14624e-10
-1.20541e-10
-7.33015e-12
-1.94794e-11
1.14669e-07
1.98937e-10
-1.14535e-07
1.0581e-10
-7.91262e-11
-7.01722e-11
-1.68329e-11
-2.91275e-11
-1.14158e-10
-8.25188e-12
-1.00903e-10
-1.32697e-11
-2.50399e-11
2.7344e-08
1.94559e-12
2.7573e-08
-2.74112e-08
-9.97844e-11
-8.34937e-11
2.06466e-10
9.97854e-11
1.14347e-07
-2.75151e-11
-3.74713e-12
-6.2121e-11
-6.72367e-11
-4.11885e-11
-8.7961e-11
-6.89236e-11
1.98849e-10
-1.14589e-07
9.5456e-11
-9.21382e-11
-5.98246e-11
-2.37566e-11
-6.40134e-11
-8.53349e-11
-6.44545e-11
-3.5963e-11
-1.3782e-12
1.14762e-07
1.99359e-10
-1.14628e-07
9.50339e-11
-9.2821e-11
-5.99664e-11
-2.41471e-11
-6.41217e-11
-8.49031e-11
-3.62954e-11
-6.43599e-11
-2.74168e-08
-1.00837e-10
-8.27089e-11
8.51555e-11
8.52024e-11
-1.40869e-11
-1.31911e-11
2.74241e-08
9.71302e-12
4.61517e-12
2.76396e-08
-2.74784e-08
-8.89867e-11
-8.65415e-11
1.0296e-10
1.15908e-07
-2.92399e-11
-1.16831e-11
-5.63474e-11
-3.881e-11
-3.59008e-11
-8.65874e-11
-8.29044e-11
-8.5469e-11
1.92273e-10
1.02325e-10
1.15945e-07
-2.89622e-11
-1.13006e-11
-6.06637e-11
-3.85675e-11
-3.61567e-11
-8.69107e-11
-8.00516e-11
1.16275e-07
1.86262e-10
-1.16157e-07
9.92546e-11
-8.21517e-11
-5.46616e-11
-2.62605e-11
-8.20965e-11
-8.03253e-11
-3.14624e-11
-3.63291e-11
-9.42668e-12
1.1631e-07
1.87027e-10
-1.16194e-07
9.93126e-11
-8.23189e-11
-5.53505e-11
-2.22271e-11
-8.26841e-11
-7.98539e-11
-3.41496e-11
-3.61838e-11
-1.45505e-11
-1.29907e-11
2.74262e-08
4.09448e-12
2.76421e-08
-2.74804e-08
-8.80399e-11
-8.71309e-11
9.31456e-11
1.13738e-07
-9.84921e-12
-5.76207e-12
-7.06906e-11
-1.18909e-10
-5.63531e-12
-7.46685e-12
-1.12719e-10
-7.73832e-11
1.98935e-10
9.98449e-11
1.14795e-07
-1.49149e-11
-1.75936e-11
-6.8742e-11
-9.90606e-11
-6.58792e-12
-2.75038e-11
-1.11863e-10
1.14092e-07
1.86733e-10
-1.13976e-07
9.34498e-11
-8.27723e-11
-6.9802e-11
-7.30605e-12
-3.007e-12
-1.10404e-10
-1.23173e-12
-1.16622e-10
-1.67088e-11
1.15151e-07
1.8693e-10
-1.15035e-07
1.00346e-10
-7.48471e-11
-6.7992e-11
-1.23855e-11
-2.30026e-11
-1.09467e-10
-2.15942e-12
-9.6656e-11
1.98141e-10
9.97924e-11
1.14794e-07
-1.51858e-11
-1.75619e-11
-6.82716e-11
-9.91796e-11
-6.24188e-12
-1.12224e-10
-2.72131e-11
1.86234e-10
-1.13965e-07
9.33612e-11
-8.34838e-11
-6.89718e-11
-1.13962e-11
-2.72624e-12
-1.1038e-10
-1.16336e-10
1.56398e-12
-1.64678e-11
1.15151e-07
1.8632e-10
-1.15035e-07
1.00096e-10
-7.4853e-11
-6.73729e-11
-1.25405e-11
-2.28405e-11
-1.10035e-10
-1.93334e-12
-9.68954e-11
-7.45879e-12
-1.93329e-11
2.74313e-08
-9.47742e-13
2.76451e-08
-2.74854e-08
-9.57894e-11
-7.96706e-11
1.9315e-10
9.27662e-11
1.14892e-07
-2.29455e-11
-2.74555e-13
-5.87717e-11
-6.26817e-11
-3.44251e-11
-8.31475e-11
-6.23425e-11
1.87429e-10
-1.15099e-07
8.96287e-11
-8.8142e-11
-5.71679e-11
-1.96461e-11
-5.77634e-11
-8.11902e-11
-6.02778e-11
-2.96546e-11
1.62517e-12
1.15254e-07
1.88237e-10
-1.15138e-07
8.93617e-11
-8.88126e-11
-5.72874e-11
-2.002e-11
-5.78457e-11
-8.08692e-11
-3.01626e-11
-6.01831e-11
-2.74915e-08
-9.67955e-11
-7.8808e-11
8.10125e-11
8.10764e-11
-8.89205e-12
-8.22584e-12
2.74946e-08
7.09722e-12
2.29253e-12
2.76963e-08
-2.75373e-08
-8.52407e-11
-8.31802e-11
9.60089e-11
1.1639e-07
-2.50377e-11
-8.64082e-12
-5.35314e-11
-3.48103e-11
-2.97282e-11
-8.04753e-11
-7.87604e-11
-8.13896e-11
1.80327e-10
9.63686e-11
1.16426e-07
-2.48953e-11
-8.49859e-12
-5.42867e-11
-3.43543e-11
-3.00897e-11
-8.08238e-11
-7.8111e-11
1.16708e-07
1.76033e-10
-1.16608e-07
9.35901e-11
-7.79205e-11
-5.20336e-11
-2.18853e-11
-7.62512e-11
-7.66822e-11
-2.55853e-11
-3.27951e-11
-6.61368e-12
1.16743e-07
1.76351e-10
-1.16643e-07
9.32723e-11
-7.81903e-11
-5.25673e-11
-2.15857e-11
-7.66099e-11
-7.62615e-11
-2.59814e-11
-3.23912e-11
-9.43015e-12
-7.79883e-12
2.74962e-08
1.45449e-12
2.76981e-08
-2.75383e-08
-8.42475e-11
-8.35845e-11
8.56171e-11
1.14198e-07
-5.64734e-12
-2.56726e-12
-6.78439e-11
-1.14899e-10
6.41655e-13
-1.07793e-12
-1.08549e-10
-7.32001e-11
1.88017e-10
9.25675e-11
1.15258e-07
-1.06424e-11
-1.47123e-11
-6.59756e-11
-9.4795e-11
-1.78647e-13
-2.10075e-11
-1.07529e-10
1.14507e-07
1.73815e-10
-1.14406e-07
8.86424e-11
-7.89191e-11
-6.78135e-11
-3.56272e-12
3.41297e-12
-1.06723e-10
4.82564e-12
-1.12853e-10
-1.44095e-11
1.15567e-07
1.73994e-10
-1.15466e-07
9.62139e-11
-7.09313e-11
-6.58903e-11
-8.51955e-12
-1.66393e-11
-1.0591e-10
3.89399e-12
-9.29782e-11
1.87387e-10
9.24865e-11
1.15259e-07
-1.07641e-11
-1.43537e-11
-6.52581e-11
-9.49547e-11
-3.45949e-14
-1.08164e-10
-2.07607e-11
1.73797e-10
-1.14392e-07
8.87197e-11
-7.92409e-11
-6.6697e-11
-3.65186e-12
3.45153e-12
-1.06611e-10
-1.1267e-10
5.1296e-12
-1.40169e-11
1.15567e-07
1.73508e-10
-1.15466e-07
9.53375e-11
-7.08361e-11
-6.53131e-11
-8.70607e-12
-1.63823e-11
-1.06088e-10
4.21084e-12
-9.29743e-11
-2.04295e-12
-1.44424e-11
2.75012e-08
-3.43166e-12
2.77003e-08
-2.75427e-08
-9.23727e-11
-7.61689e-11
1.81409e-10
8.7115e-11
1.15369e-07
-1.90059e-11
2.57788e-12
-5.61844e-11
-5.86295e-11
-2.83641e-11
-7.91067e-11
-5.61476e-11
1.77723e-10
-1.15542e-07
8.49819e-11
-8.41537e-11
-5.48261e-11
-1.55347e-11
-5.18156e-11
-7.74278e-11
-5.67015e-11
-2.37154e-11
4.22411e-12
1.1568e-07
1.78267e-10
-1.15582e-07
8.42577e-11
-8.48989e-11
-5.47826e-11
-1.59849e-11
-5.19649e-11
-7.7025e-11
-2.41407e-11
-5.6633e-11
-2.75504e-08
-9.31733e-11
-7.51728e-11
7.68016e-11
7.70023e-11
-3.69683e-12
-3.21753e-12
2.75494e-08
5.03301e-12
7.17045e-13
2.77379e-08
-2.75811e-08
-8.25682e-11
-8.00064e-11
9.00716e-11
1.16809e-07
-2.06493e-11
-6.22029e-12
-5.10091e-11
-3.11791e-11
-2.37975e-11
-7.45651e-11
-7.50461e-11
-7.70293e-11
1.68662e-10
9.00555e-11
1.16845e-07
-2.04922e-11
-5.68019e-12
-5.53882e-11
-3.06322e-11
-2.42269e-11
-7.48376e-11
-7.23637e-11
1.17079e-07
1.66792e-10
-1.16995e-07
8.82835e-11
-7.35165e-11
-5.03413e-11
-1.78425e-11
-7.00816e-11
-7.34988e-11
-1.971e-11
-2.92443e-11
-4.69506e-12
1.17114e-07
1.67414e-10
-1.17031e-07
8.86087e-11
-7.41105e-11
-5.0987e-11
-1.42719e-11
-7.02488e-11
-7.29698e-11
-2.2332e-11
-2.92587e-11
-4.29705e-12
-2.68339e-12
2.75505e-08
-7.90423e-14
2.77389e-08
-2.75816e-08
-8.14052e-11
-8.05483e-11
7.91699e-11
1.14597e-07
-1.70773e-12
1.89353e-14
-6.55313e-11
-1.11089e-10
6.81064e-12
5.48971e-12
-1.04789e-10
-6.8922e-11
1.78126e-10
8.65259e-11
1.15657e-07
-6.48766e-12
-1.19886e-11
-6.34054e-11
-9.12157e-11
5.72269e-12
-1.46905e-11
-1.0409e-10
1.14862e-07
1.60851e-10
-1.14774e-07
8.453e-11
-7.50602e-11
-6.58627e-11
3.75495e-13
9.73582e-12
-1.03223e-10
1.10764e-11
-1.09686e-10
-1.25337e-11
1.15922e-07
1.61449e-10
-1.15834e-07
9.18424e-11
-6.67615e-11
-6.41072e-11
-4.58031e-12
-1.04457e-11
-1.02626e-10
9.83428e-12
-8.97973e-11
1.77011e-10
8.55661e-11
1.15657e-07
-6.80665e-12
-1.15995e-11
-6.28105e-11
-9.09206e-11
6.3491e-12
-1.03964e-10
-1.42069e-11
1.62288e-10
-1.14755e-07
8.48988e-11
-7.58845e-11
-6.50489e-11
-3.9063e-12
9.66532e-12
-1.0351e-10
-1.09653e-10
1.33065e-11
-1.22162e-11
1.15923e-07
1.61609e-10