/*--------------------------------*- C++ -*----------------------------------*\
| =========                 |                                                 |
| \\      /  F ield         | OpenFOAM: The Open Source CFD Toolbox           |
|  \\    /   O peration     | Version:  2206                                  |
|   \\  /    A nd           | Website:  www.openfoam.com                      |
|    \\/     M anipulation  |                                                 |
\*---------------------------------------------------------------------------*/
FoamFile
{
    version     2.0;
    format      ascii;
    arch        "LSB;label=32;scalar=64";
    class       volVectorField;
    location    "130";
    object      U;
}
// * * * * * * * * * * * * * * * * * * * * * * * * * * * * * * * * * * * * * //

dimensions      [0 1 -1 0 0 0 0];

internalField   nonuniform List<vector> 
66616
(
(0.000420198 0.000418264 0.129114)
(-0.000693982 0.000371771 0.124109)
(0.000371976 -0.000694283 0.124107)
(-0.000969261 -0.000977622 0.121388)
(0.000347707 0.000337953 0.132282)
(-0.000589834 0.000328591 0.127842)
(0.000329471 -0.000587865 0.128014)
(-0.000792593 -0.000801304 0.125163)
(0.000228201 0.000221453 0.133845)
(-0.000386118 0.000230071 0.129263)
(0.000231474 -0.000385198 0.129447)
(-0.000582005 -0.000586433 0.12631)
(0.00020022 0.000194164 0.13507)
(-0.000335861 0.00020265 0.130341)
(0.000204641 -0.000333711 0.130536)
(-0.000519776 -0.000521536 0.127142)
(0.000186544 0.000180712 0.136187)
(-0.000309858 0.000185212 0.131288)
(0.000187952 -0.000308043 0.131493)
(-0.000486616 -0.000487607 0.12788)
(0.000174847 0.000168924 0.137226)
(-0.000286781 0.000170518 0.132123)
(0.000173733 -0.000285327 0.132338)
(-0.000460075 -0.000460771 0.128511)
(0.000165731 0.00015911 0.13819)
(-0.000265251 0.00015696 0.132857)
(0.000161204 -0.000264621 0.133078)
(-0.000435792 -0.00043667 0.12903)
(0.000158549 0.000150325 0.139083)
(-0.000246238 0.000144123 0.133503)
(0.000150216 -0.000246264 0.133726)
(-0.000413563 -0.00041449 0.129454)
(0.000152278 0.000141325 0.139914)
(-0.000229015 0.000132792 0.134076)
(0.000140665 -0.000229771 0.134292)
(-0.000392921 -0.000393757 0.129793)
(0.000147024 0.000132847 0.140689)
(-0.000213039 0.000120771 0.134581)
(0.000131505 -0.000214472 0.134778)
(-0.000371972 -0.000373903 0.130054)
(0.000141793 0.000124506 0.141405)
(-0.000198025 0.000112109 0.135036)
(0.000122641 -0.000200406 0.135193)
(-0.00035175 -0.000354448 0.130231)
(0.000132183 0.000116659 0.142058)
(-0.000184038 0.000108329 0.135439)
(0.0001174 -0.000185197 0.135532)
(-0.000327053 -0.000331843 0.130306)
(0.000135975 0.000137605 0.120859)
(0.000403875 0.000366154 0.124245)
(-0.000404348 0.000366413 0.124243)
(-0.000135677 0.000137813 0.12086)
(0.000369005 0.000407814 0.124215)
(0.000366008 -0.000404739 0.124242)
(0.000264299 0.000265355 0.128339)
(-0.000264391 0.000265608 0.128338)
(0.000265568 -0.000265193 0.128336)
(-0.000265518 -0.000265413 0.128336)
(-0.000368697 0.000408036 0.124213)
(-0.000365547 -0.000405361 0.124241)
(0.000137127 -0.000136336 0.120856)
(0.000407942 -0.000369293 0.124207)
(-0.00040866 -0.000369457 0.124205)
(-0.000136685 -0.000136735 0.120847)
(0.000977768 0.000970368 0.1214)
(0.000323199 0.000314125 0.124858)
(0.000378107 0.000696384 0.12409)
(-0.000377645 0.000696521 0.124088)
(0.000379962 0.000687691 0.127479)
(-0.000379043 0.00068841 0.127478)
(-0.000977772 0.00096924 0.121396)
(-0.000323871 0.000312696 0.124857)
(0.00069437 0.000370971 0.124109)
(0.000696217 -0.000377388 0.124083)
(0.000690307 0.000371888 0.127304)
(0.000690726 -0.000377912 0.127304)
(-0.000695738 -0.000377745 0.124082)
(-0.000690284 0.000372348 0.1273)
(-0.000690312 -0.000378749 0.127301)
(0.000969245 -0.000978315 0.121393)
(0.000315387 -0.000320874 0.124852)
(-0.000371327 -0.000694358 0.124104)
(0.000372678 -0.000688732 0.127469)
(-0.000372324 -0.000689009 0.127469)
(-0.00031588 -0.000319549 0.124847)
(0.000800142 0.00079544 0.125173)
(0.000164268 0.000159391 0.126106)
(0.000335459 0.000587231 0.128022)
(-0.000334363 0.000587039 0.128021)
(0.000248965 0.00041175 0.129142)
(-0.000248651 0.000412748 0.129141)
(-0.000799877 0.000794608 0.125171)
(-0.000163585 0.000159556 0.126107)
(0.000590469 0.000327789 0.127845)
(0.000589746 -0.000332681 0.127844)
(0.000414217 0.000243865 0.128953)
(0.000414214 -0.000247223 0.128951)
(-0.000589201 -0.000333156 0.127841)
(-0.000413993 0.000243669 0.128948)
(-0.00041376 -0.000247621 0.128947)
(0.000793161 -0.000801426 0.125168)
(0.000161225 -0.000162058 0.126101)
(-0.000328444 -0.000587817 0.128013)
(0.000244353 -0.000413284 0.129135)
(-0.000244355 -0.000413725 0.129137)
(-0.000161065 -0.000161978 0.126097)
(0.000585985 0.000582966 0.126318)
(0.000103156 9.78701e-05 0.126945)
(0.000235416 0.000384286 0.129451)
(-0.00023481 0.000384531 0.129452)
(0.000213026 0.000342781 0.130275)
(-0.0002127 0.000343929 0.130276)
(-0.000584654 0.00058361 0.126318)
(-0.000103281 9.76811e-05 0.126946)
(0.000387016 0.000229881 0.129266)
(0.000386187 -0.000232684 0.129264)
(0.00034632 0.00020899 0.130074)
(0.000346255 -0.00021139 0.130072)
(-0.00038554 -0.000232935 0.129261)
(-0.000345914 0.00020886 0.130069)
(-0.000345702 -0.000211606 0.130067)
(0.00058292 -0.000585647 0.126314)
(0.000100978 -9.97544e-05 0.12694)
(-0.000230939 -0.000385315 0.129448)
(0.000209451 -0.000343907 0.130271)
(-0.000209433 -0.000344596 0.130274)
(-0.000101107 -9.94694e-05 0.126937)
(0.000522753 0.000518907 0.127148)
(7.00925e-05 6.49793e-05 0.127682)
(0.000207586 0.000333123 0.130538)
(-0.000207094 0.000333425 0.13054)
(0.00019508 0.000315158 0.131257)
(-0.00019493 0.000316351 0.131258)
(-0.000522178 0.000518889 0.127148)
(-7.00394e-05 6.50683e-05 0.127683)
(0.000336788 0.000202444 0.130344)
(0.000335937 -0.000204596 0.130343)
(0.00031839 0.000191747 0.131041)
(0.000318548 -0.000193774 0.13104)
(-0.000335221 -0.000204636 0.130339)
(-0.000317865 0.000191305 0.131036)
(-0.000317714 -0.000193987 0.131035)
(0.000520275 -0.00052091 0.127145)
(6.849e-05 -6.702e-05 0.127678)
(-0.000204076 -0.000334071 0.130539)
(0.000192032 -0.000315912 0.131255)
(-0.000191957 -0.000316616 0.131258)
(-6.85899e-05 -6.63268e-05 0.127675)
(0.000489089 0.000485167 0.127885)
(4.68639e-05 4.18562e-05 0.128317)
(0.000190741 0.000307916 0.131492)
(-0.00019033 0.000308262 0.131496)
(0.000180019 0.000292631 0.132126)
(-0.000179895 0.00029407 0.132127)
(-0.000488183 0.000485467 0.127886)
(-4.67001e-05 4.1411e-05 0.12832)
(0.000310864 0.000185287 0.13129)
(0.000310287 -0.000187173 0.13129)
(0.000295377 0.000177637 0.131893)
(0.0002957 -0.000179413 0.131892)
(-0.000309317 -0.000187283 0.131287)
(-0.000294949 0.000177652 0.131886)
(-0.000295021 -0.00017983 0.131888)
(0.000486885 -0.000487201 0.127882)
(4.47446e-05 -4.34062e-05 0.128313)
(-0.00018756 -0.000308429 0.131496)
(0.000177511 -0.00029325 0.132125)
(-0.000177562 -0.000293802 0.132129)
(-4.52962e-05 -4.29343e-05 0.12831)
(0.0004623 0.000458452 0.128516)
(2.78919e-05 2.41983e-05 0.128837)
(0.000175736 0.000285257 0.132336)
(-0.000175414 0.000285799 0.132341)
(0.000167265 0.00027247 0.132887)
(-0.000167385 0.000274046 0.132888)
(-0.00046196 0.000458715 0.128517)
(-2.71992e-05 2.39232e-05 0.128842)
(0.000287648 0.000170228 0.132126)
(0.00028714 -0.000171796 0.132128)
(0.000274173 0.000166387 0.132631)
(0.000274545 -0.000167309 0.132633)
(-0.000286345 -0.000171919 0.132125)
(-0.000273573 0.000165874 0.132625)
(-0.000274132 -0.000167771 0.132628)
(0.000459898 -0.000460204 0.128514)
(2.61125e-05 -2.50213e-05 0.128836)
(-0.000173363 -0.000285572 0.132342)
(0.000165062 -0.000272459 0.132887)
(-0.000164832 -0.000273165 0.13289)
(-2.62048e-05 -2.42323e-05 0.128833)
(0.000437649 0.000434957 0.129032)
(1.1406e-05 8.37706e-06 0.129259)
(0.000163079 0.000265108 0.133075)
(-0.000162959 0.000265851 0.13308)
(0.000155876 0.000254597 0.133551)
(-0.000155496 0.00025596 0.133552)
(-0.000436885 0.000435535 0.129036)
(-1.19955e-05 7.79989e-06 0.129268)
(0.000266329 0.000157197 0.132858)
(0.000265947 -0.000157873 0.132862)
(0.000255461 0.000156422 0.133268)
(0.000256015 -0.000157172 0.133271)
(-0.000265382 -0.00015829 0.132861)
(-0.000255049 0.000155736 0.133264)
(-0.000255443 -0.000157295 0.133269)
(0.000435536 -0.000435908 0.129032)
(1.0361e-05 -9.10207e-06 0.129259)
(-0.000160829 -0.000265055 0.133082)
(0.000153881 -0.000254162 0.133552)
(-0.000153784 -0.000254943 0.133555)
(-1.05047e-05 -8.59365e-06 0.129259)
(0.000415063 0.000413192 0.129451)
(-1.12173e-06 -4.30876e-06 0.129602)
(0.000152111 0.000247296 0.133721)
(-0.000151251 0.000247695 0.133728)
(0.000146625 0.00023881 0.134132)
(-0.000146742 0.000240082 0.134135)
(-0.000415158 0.000412883 0.129459)
(7.04252e-07 -3.99956e-06 0.12961)
(0.000247418 0.000144788 0.133502)
(0.000247065 -0.000145157 0.133508)
(0.000239297 0.000148415 0.133816)
(0.000239789 -0.000148908 0.133819)
(-0.000246229 -0.000145159 0.13351)
(-0.000238611 0.000147956 0.133814)
(-0.000239519 -0.000149023 0.133819)
(0.00041321 -0.000413279 0.129452)
(-2.31148e-06 3.19134e-06 0.129601)
(-0.000149623 -0.00024649 0.13373)
(0.000144697 -0.000237907 0.134133)
(-0.000144448 -0.000238972 0.134136)
(2.5428e-06 4.73499e-06 0.129603)
(0.000394634 0.000392936 0.129789)
(-1.18504e-05 -1.50688e-05 0.129876)
(0.000142069 0.000230882 0.134288)
(-0.000142111 0.000231106 0.134298)
(0.000137892 0.000223487 0.134641)
(-0.000137364 0.000224273 0.134641)
(-0.000394622 0.000393102 0.129797)
(1.23198e-05 -1.60782e-05 0.129878)
(0.000230409 0.000132649 0.134075)
(0.0002299 -0.000133414 0.134079)
(0.000223419 0.000141689 0.134281)
(0.000224139 -0.000142879 0.134281)
(-0.000229486 -0.000133346 0.134085)
(-0.000223317 0.000140993 0.134274)
(-0.000223456 -0.000142113 0.134279)
(0.000392125 -0.000393652 0.129787)
(-1.26834e-05 1.35651e-05 0.129868)
(-0.000140232 -0.000230347 0.134296)
(0.000136212 -0.00022318 0.134637)
(-0.000135928 -0.000224041 0.13464)
(1.36313e-05 1.56052e-05 0.129875)
(0.000373508 0.000372715 0.130047)
(-1.98215e-05 -2.15562e-05 0.130092)
(0.000133017 0.000215504 0.134781)
(-0.0001324 0.000215314 0.134791)
(0.000129184 0.000209478 0.135078)
(-0.000130446 0.000210008 0.135076)
(-0.000372795 0.00037242 0.130054)
(2.01198e-05 -2.31975e-05 0.130084)
(0.000214089 0.00012174 0.134587)
(0.000214299 -0.000123211 0.134587)
(0.000207175 0.000134572 0.134657)
(0.000208773 -0.000136369 0.134655)
(-0.00021251 -0.000122081 0.134593)
(-0.000208323 0.000135314 0.134647)
(-0.000208928 -0.00013622 0.134653)
(0.000371031 -0.000373111 0.130038)
(-2.00755e-05 2.16588e-05 0.130082)
(-0.000131127 -0.000214872 0.134785)
(0.000127427 -0.000208179 0.135069)
(-0.000128509 -0.000208863 0.135073)
(2.04753e-05 2.34899e-05 0.130081)
(0.000350137 0.000353212 0.130221)
(-2.35392e-05 -2.93424e-05 0.130265)
(0.000124561 0.000201889 0.135201)
(-0.000125137 0.000201321 0.135212)
(0.000123609 0.000193086 0.13544)
(-0.000122885 0.000193742 0.135437)
(-0.000351412 0.000353391 0.130231)
(2.77762e-05 -3.12678e-05 0.130245)
(0.000198015 0.000111239 0.135047)
(0.000198726 -0.000113021 0.135041)
(0.000191301 0.000127886 0.134933)
(0.000192053 -0.000127668 0.134933)
(-0.000197952 -0.000112577 0.135051)
(-0.000191649 0.000127476 0.134919)
(-0.000193223 -0.000128216 0.134933)
(0.000349072 -0.000352198 0.130212)
(-2.53018e-05 2.82838e-05 0.130262)
(-0.000123416 -0.000200306 0.135203)
(0.000121577 -0.000191342 0.135434)
(-0.000121283 -0.000191721 0.135441)
(2.85154e-05 3.08994e-05 0.130248)
(0.000325163 0.000327093 0.130266)
(0.000120033 0.000186929 0.135538)
(-0.000118127 0.00018636 0.135551)
(-0.000325586 0.000329771 0.130302)
(0.000185047 0.000108878 0.135454)
(0.000184926 -0.000108559 0.135452)
(-0.000184732 -0.000108303 0.135466)
(0.000323301 -0.000327308 0.130263)
(-0.000114933 -0.000183661 0.135547)
(1.28008e-05 1.2752e-05 0.133123)
(0.000200652 0.000200968 0.126069)
(1.38243e-05 0.000184891 0.129792)
(0.000186089 1.4288e-05 0.129786)
(-0.000461327 2.54496e-05 0.110688)
(-0.000186342 0.000222357 0.12362)
(-0.000356641 0.00027707 0.0845599)
(-0.000202353 1.29729e-05 0.128084)
(2.47726e-05 -0.0004602 0.110693)
(0.000222129 -0.000186731 0.123614)
(1.27817e-05 -0.000201789 0.128078)
(0.000276339 -0.000357224 0.0845601)
(-0.000184867 -0.00018176 0.119932)
(-0.000234948 -0.000432153 0.0750842)
(-0.000430841 -0.000234688 0.0750903)
(5.28871e-05 0.00126413 0.105053)
(0.000928941 -0.000556073 0.068745)
(0.000115797 0.000985666 0.101712)
(-5.4976e-05 0.000646394 0.0805463)
(-0.000399155 -0.000135309 0.0669183)
(0.000515279 0.00070949 0.0713181)
(0.00126633 5.47348e-05 0.10491)
(-0.000564053 0.000931123 0.0688452)
(0.000981576 0.000111002 0.101832)
(0.00064734 -5.10971e-05 0.0804729)
(-0.000420191 0.000418427 0.129112)
(0.00041884 -0.000419122 0.129111)
(-0.000418746 -0.000419318 0.129112)
(0.000405903 0.000397087 0.131719)
(-0.000406194 0.000397433 0.13172)
(0.000399213 -0.000404914 0.131718)
(-0.000398946 -0.00040471 0.131718)
(-0.00127323 4.90044e-05 0.116914)
(-0.000893879 0.000575238 0.100623)
(-0.000684031 0.000139002 0.126763)
(-0.000777156 0.000395873 0.12545)
(-0.00113554 0.00011018 0.113952)
(-0.00121909 0.000188085 0.106326)
(-0.000776539 0.000179832 0.127963)
(-0.000140111 -0.000401302 0.0669854)
(0.000709841 0.000511865 0.0712932)
(4.83447e-05 -0.00126867 0.116985)
(0.000138706 -0.000682713 0.126751)
(0.000577346 -0.000898449 0.100552)
(0.000394597 -0.000776697 0.12544)
(0.000112867 -0.0011401 0.113862)
(0.000180033 -0.000776687 0.12797)
(0.000183274 -0.00121767 0.106403)
(-0.000559435 -0.000529522 0.0889854)
(-0.000530453 -0.000561487 0.0889707)
(-0.000279682 -0.000287525 0.123268)
(-0.000850194 2.0406e-06 0.0925478)
(8.54615e-06 -0.000855312 0.0925743)
(-1.30212e-05 0.000592545 0.105843)
(0.000121273 0.000446691 0.0805057)
(-1.02682e-05 0.000968695 0.106305)
(0.000103517 0.00019303 0.0798208)
(-4.8769e-05 0.000415875 0.0695943)
(-7.74326e-05 0.000172672 0.0688119)
(0.000592843 -1.22905e-05 0.104947)
(0.000444391 0.000109166 0.0803008)
(0.000966683 -1.21993e-05 0.105968)
(0.000191203 0.000106243 0.0794176)
(-0.000347005 0.000337784 0.132282)
(0.000341837 -0.000343237 0.132279)
(-0.00034141 -0.000343334 0.13228)
(0.000242054 0.000236052 0.133495)
(-0.00024221 0.00023653 0.133495)
(0.000238548 -0.000239833 0.133494)
(-0.000238222 -0.000239601 0.133494)
(-0.000593509 3.72651e-06 0.118684)
(-0.000803274 0.000222086 0.107127)
(-0.000572859 0.00012328 0.130265)
(-0.000509754 0.000290662 0.12826)
(-0.000925636 7.8946e-06 0.118988)
(-0.000487568 0.000108273 0.106352)
(-0.0004924 0.000104438 0.130696)
(0.000413783 -3.91003e-05 0.0695233)
(0.000171907 -8.08659e-05 0.0686288)
(3.46589e-06 -0.00059265 0.119441)
(0.000123337 -0.00056683 0.130559)
(0.000227999 -0.000802556 0.107432)
(0.0002915 -0.0005086 0.128438)
(1.07303e-05 -0.000923307 0.119301)
(0.000105531 -0.000488238 0.130998)
(0.000101593 -0.000492622 0.106927)
(-0.000567649 -0.000215057 0.0936807)
(-0.000222952 -0.000566462 0.0938638)
(-0.000223934 -0.00022644 0.125585)
(-0.000336574 -0.000138831 0.0930116)
(-0.000132329 -0.000340521 0.0933523)
(1.28459e-06 0.000361132 0.104552)
(0.000109795 0.000184949 0.0786928)
(-2.66827e-06 0.000534728 0.10511)
(8.05618e-05 8.11169e-05 0.0781106)
(-0.000104679 0.000102779 0.0677314)
(-7.50466e-05 5.62648e-05 0.0671903)
(0.000363172 1.89823e-06 0.103557)
(0.000180371 0.000101456 0.078457)
(0.000524695 -5.01096e-06 0.104566)
(8.28359e-05 8.49733e-05 0.0776783)
(-0.000227504 0.000221385 0.133845)
(0.000224525 -0.000224089 0.133843)
(-0.000224154 -0.000224088 0.133844)
(0.000202974 0.000198481 0.134762)
(-0.000203362 0.000199257 0.134763)
(0.000200438 -0.000201451 0.134763)
(-0.000200109 -0.000201387 0.134762)
(-0.000408849 1.00901e-05 0.118768)
(-0.000422437 0.00016022 0.106042)
(-0.000372581 7.68341e-05 0.131759)
(-0.000368313 0.000221196 0.129537)
(-0.000564996 4.82329e-06 0.119278)
(-0.000298178 0.000100787 0.105289)
(-0.000356064 7.20259e-05 0.132049)
(0.000101621 -9.70671e-05 0.0676505)
(5.85288e-05 -7.80879e-05 0.0669897)
(9.31728e-06 -0.000405435 0.119618)
(7.83506e-05 -0.000368113 0.132058)
(0.0001687 -0.000423602 0.106375)
(0.000221781 -0.000366993 0.129732)
(6.96971e-06 -0.000563062 0.119685)
(7.35562e-05 -0.000351296 0.132362)
(9.47417e-05 -0.000300422 0.105909)
(-0.000246344 -0.000173558 0.0924731)
(-0.000183437 -0.000244573 0.0926768)
(-0.000123563 -0.000122852 0.126534)
(-0.000188294 -0.00012118 0.0916685)
(-0.000116505 -0.000189055 0.0920365)
(6.90493e-06 0.000276257 0.10339)
(8.16082e-05 0.00015113 0.0771946)
(6.77615e-06 0.000422218 0.103917)
(5.61172e-05 6.43187e-05 0.0767061)
(-8.72218e-05 7.96782e-05 0.0663517)
(-5.94555e-05 4.63492e-05 0.0658865)
(0.000280041 7.94783e-06 0.102315)
(0.00014917 7.19478e-05 0.0769375)
(0.000413037 4.3495e-06 0.103313)
(6.84381e-05 5.98346e-05 0.0762478)
(-0.000199957 0.000194384 0.13507)
(0.000197437 -0.000196351 0.135069)
(-0.000197068 -0.000196354 0.13507)
(0.000187224 0.000184094 0.135897)
(-0.000187402 0.000184615 0.135897)
(0.000185032 -0.000186673 0.135897)
(-0.000184697 -0.000186823 0.135897)
(-0.000348227 1.49715e-05 0.11873)
(-0.000337467 0.000161697 0.10508)
(-0.000327796 6.44339e-05 0.132925)
(-0.000329592 0.000199418 0.130569)
(-0.000482336 1.16047e-05 0.119331)
(-0.000239874 9.92716e-05 0.104324)
(-0.000323041 6.2345e-05 0.133172)
(8.03115e-05 -7.80986e-05 0.0662545)
(5.09385e-05 -6.12249e-05 0.0656689)
(1.41585e-05 -0.000344452 0.119664)
(6.59535e-05 -0.000323502 0.133229)
(0.000172157 -0.00033743 0.105439)
(0.000200074 -0.000327263 0.130779)
(1.37298e-05 -0.000479949 0.119781)
(6.37622e-05 -0.000318581 0.133497)
(9.46651e-05 -0.000240433 0.104985)
(-0.00019339 -0.000155381 0.0910864)
(-0.000167809 -0.000189566 0.091306)
(-8.26149e-05 -8.04659e-05 0.127317)
(-0.000155301 -0.000103842 0.0902646)
(-0.000100197 -0.000154526 0.0906531)
(8.61624e-06 0.000217534 0.102334)
(6.33283e-05 0.00013878 0.0759419)
(9.05906e-06 0.000355102 0.102829)
(4.11836e-05 5.5259e-05 0.0755159)
(-7.28738e-05 7.39417e-05 0.065172)
(-4.59252e-05 4.3437e-05 0.0647605)
(0.000222174 9.48167e-06 0.1012)
(0.000136947 5.3772e-05 0.0756615)
(0.000345953 6.62649e-06 0.102177)
(5.92732e-05 4.56531e-05 0.0750338)
(-0.000186122 0.000180703 0.136187)
(0.000184067 -0.000182665 0.136187)
(-0.000183787 -0.000182998 0.136187)
(0.00017392 0.000172325 0.136948)
(-0.000173829 0.00017291 0.136949)
(0.000172038 -0.00017481 0.13695)
(-0.00017159 -0.000174845 0.136948)
(-0.000301604 1.57638e-05 0.118593)
(-0.000290315 0.00015022 0.104179)
(-0.000308166 5.83573e-05 0.133981)
(-0.000305255 0.000184096 0.131477)
(-0.000430769 1.33608e-05 0.119281)
(-0.000200609 8.77348e-05 0.103424)
(-0.000305154 5.67961e-05 0.134191)
(7.47354e-05 -6.33794e-05 0.065057)
(4.65786e-05 -4.9024e-05 0.0645233)
(1.51237e-05 -0.00029915 0.119606)
(5.92559e-05 -0.000303936 0.134289)
(0.00016274 -0.000289948 0.104563)
(0.000184405 -0.000303401 0.131705)
(1.61434e-05 -0.00043036 0.119774)
(5.7573e-05 -0.000300568 0.134532)
(8.36673e-05 -0.000200834 0.104116)
(-0.0001675 -0.000134608 0.0897419)
(-0.000148003 -0.000163761 0.0899741)
(-5.52826e-05 -5.2931e-05 0.128007)
(-0.000133158 -8.47582e-05 0.0889495)
(-8.11101e-05 -0.000132392 0.0893533)
(8.61425e-06 0.000173077 0.101383)
(5.04395e-05 0.000125583 0.0748696)
(9.68332e-06 0.000303071 0.10185)
(2.91149e-05 4.53615e-05 0.0744876)
(-5.90815e-05 6.78917e-05 0.0641511)
(-3.33028e-05 3.76332e-05 0.0637859)
(0.000178702 9.6826e-06 0.100209)
(0.000123044 4.14426e-05 0.0745716)
(0.000293533 7.28852e-06 0.101165)
(4.9121e-05 3.50458e-05 0.0739899)
(-0.000174408 0.000169185 0.137226)
(0.000172597 -0.000170787 0.137226)
(-0.000172464 -0.000170966 0.137226)
(0.000162468 0.00016264 0.137923)
(-0.000162526 0.000163104 0.137923)
(0.000160471 -0.000164493 0.137926)
(-0.000160208 -0.000164732 0.137923)
(-0.000260602 1.52608e-05 0.11837)
(-0.000252225 0.000133684 0.103336)
(-0.000290285 5.35166e-05 0.134947)
(-0.000283142 0.000171442 0.132271)
(-0.000384426 1.36365e-05 0.119124)
(-0.000168976 7.23542e-05 0.102582)
(-0.000288137 5.21194e-05 0.135114)
(6.76022e-05 -5.06633e-05 0.0640206)
(4.14345e-05 -3.73087e-05 0.0635352)
(1.36842e-05 -0.000258888 0.119456)
(5.41698e-05 -0.000287538 0.135258)
(0.00014682 -0.000253035 0.103738)
(0.000171068 -0.000281521 0.13252)
(1.54982e-05 -0.00038572 0.119669)
(5.28217e-05 -0.000285248 0.135474)
(6.80329e-05 -0.000169157 0.103299)
(-0.000145434 -0.000113097 0.0885306)
(-0.00012625 -0.000142576 0.0887731)
(-3.44431e-05 -3.23321e-05 0.128584)
(-0.000114185 -6.63823e-05 0.0877811)
(-6.17347e-05 -0.000114226 0.0881972)
(8.09097e-06 0.000139969 0.100516)
(3.88401e-05 0.000113843 0.0739281)
(9.35466e-06 0.000262744 0.100961)
(2.04398e-05 3.6737e-05 0.0735819)
(-4.65107e-05 6.22611e-05 0.0632716)
(-2.29282e-05 3.50332e-05 0.0629451)
(0.00014532 9.50822e-06 0.0993155)
(0.000109969 3.14873e-05 0.0736211)
(0.000251948 7.54491e-06 0.100249)
(4.03953e-05 2.73857e-05 0.0730753)
(-0.000165532 0.000159322 0.138191)
(0.000163545 -0.000160495 0.138191)
(-0.000163002 -0.000160296 0.138191)
(0.000152071 0.000154378 0.138823)
(-0.000152089 0.000154852 0.138823)
(0.000150556 -0.000156013 0.138828)
(-0.000149947 -0.000156231 0.138825)
(-0.00022733 1.38901e-05 0.118082)
(-0.000221416 0.000115181 0.102541)
(-0.000272481 4.94676e-05 0.135829)
(-0.000263013 0.000160629 0.132958)
(-0.000344355 1.28428e-05 0.118886)
(-0.00014466 5.85186e-05 0.101791)
(-0.000272031 4.84252e-05 0.135944)
(6.09205e-05 -3.93334e-05 0.0631309)
(3.62174e-05 -2.81166e-05 0.062689)
(1.3244e-05 -0.000225301 0.11923)
(4.97341e-05 -0.000270946 0.13614)
(0.000127767 -0.000222945 0.102963)
(0.000159216 -0.000262064 0.133232)
(1.43991e-05 -0.000346966 0.119476)
(4.86917e-05 -0.000269333 0.136331)
(5.26516e-05 -0.000144729 0.102531)
(-0.0001267 -9.41195e-05 0.0874647)
(-0.000106492 -0.000124577 0.087714)
(-1.72103e-05 -1.51718e-05 0.129058)
(-9.9367e-05 -5.16595e-05 0.0867567)
(-4.61804e-05 -9.95093e-05 0.0871785)
(7.92288e-06 0.000114309 0.0997309)
(3.26045e-05 0.000103175 0.0730966)
(8.15925e-06 0.000230841 0.100151)
(1.44049e-05 3.07013e-05 0.0727845)
(-3.94729e-05 5.56406e-05 0.062505)
(-1.79638e-05 2.86793e-05 0.0622118)
(0.000121114 9.37604e-06 0.0985112)
(9.96292e-05 2.53347e-05 0.0727811)
(0.000220498 6.67474e-06 0.0994155)
(3.35166e-05 2.2427e-05 0.0722752)
(-0.000157872 0.000150127 0.139085)
(0.00015683 -0.000151452 0.139086)
(-0.000156174 -0.000151521 0.139087)
(0.000142328 0.000147188 0.139656)
(-0.000141757 0.000147301 0.139656)
(0.000141275 -0.000148763 0.139663)
(-0.000140459 -0.000149178 0.139657)
(-0.000198288 1.25529e-05 0.117757)
(-0.000196218 0.000102345 0.101793)
(-0.000256368 4.59774e-05 0.136637)
(-0.000245918 0.000151591 0.13355)
(-0.000309591 1.18527e-05 0.11859)
(-0.000125007 4.72974e-05 0.101058)
(-0.000258555 4.53123e-05 0.136688)
(5.44551e-05 -3.21962e-05 0.0623619)
(3.16529e-05 -2.36318e-05 0.0619583)
(1.17113e-05 -0.000196013 0.118951)
(4.62146e-05 -0.000255367 0.136949)
(0.000113753 -0.00019847 0.10223)
(0.000149137 -0.00024483 0.133853)
(1.42183e-05 -0.000313535 0.119222)
(4.56527e-05 -0.000255098 0.137115)
(4.27637e-05 -0.000124945 0.101813)
(-0.000110662 -8.05087e-05 0.086525)
(-9.21313e-05 -0.00010959 0.0867787)
(-2.51885e-06 -5.44718e-07 0.12944)
(-8.49645e-05 -4.18055e-05 0.0858584)
(-3.52012e-05 -8.60762e-05 0.0862834)
(7.22081e-06 9.40833e-05 0.0990268)
(2.95536e-05 9.38319e-05 0.0723512)
(7.58078e-06 0.00020652 0.099412)
(1.35779e-05 2.37931e-05 0.0720771)
(-3.42048e-05 5.05938e-05 0.0618309)
(-1.40991e-05 2.60207e-05 0.0615689)
(0.000100401 8.63384e-06 0.0978003)
(8.9428e-05 2.27227e-05 0.0720311)
(0.000194533 6.79167e-06 0.0986477)
(2.67126e-05 1.9675e-05 0.0715673)
(-0.000151835 0.000141625 0.13992)
(0.000151299 -0.000143089 0.139918)
(-0.000150515 -0.000143049 0.13992)
(0.00013208 0.00014111 0.14043)
(-0.000132262 0.000140979 0.140428)
(0.000130639 -0.000142802 0.140436)
(-0.000130348 -0.00014298 0.14043)
(-0.000173166 1.2079e-05 0.117418)
(-0.000175496 8.93883e-05 0.101092)
(-0.000241511 4.30251e-05 0.137385)
(-0.000230135 0.000144761 0.134056)
(-0.000280092 1.04958e-05 0.118252)
(-0.000108127 3.90058e-05 0.100388)
(-0.000246324 4.29378e-05 0.137351)
(4.80729e-05 -2.82159e-05 0.0616876)
(2.7013e-05 -1.95431e-05 0.0613231)
(1.13607e-05 -0.000171537 0.118648)
(4.29832e-05 -0.000242489 0.137694)
(0.000101435 -0.000177435 0.101542)
(0.000140056 -0.00022974 0.134395)
(1.29684e-05 -0.00028468 0.118924)
(4.33018e-05 -0.000242955 0.137829)
(3.36331e-05 -0.000106615 0.101153)
(-9.60871e-05 -7.1536e-05 0.0856888)
(-8.22655e-05 -9.64698e-05 0.0859476)
(8.70718e-06 1.12135e-05 0.129748)
(-7.43127e-05 -3.4731e-05 0.0850663)
(-2.82459e-05 -7.47075e-05 0.0854891)
(6.62598e-06 7.32286e-05 0.0983999)
(2.67119e-05 8.46385e-05 0.0716977)
(6.43765e-06 0.00018147 0.09874)
(1.34911e-05 1.5128e-05 0.071482)
(-3.34679e-05 4.4049e-05 0.0612329)
(-1.30767e-05 1.938e-05 0.0610167)
(8.08597e-05 7.40066e-06 0.0971872)
(8.06898e-05 2.02515e-05 0.0713568)
(0.000172432 6.31619e-06 0.0979458)
(1.96709e-05 1.81103e-05 0.0709639)
(-0.000147229 0.000132954 0.140696)
(0.000145806 -0.000135185 0.140693)
(-0.000145272 -0.00013458 0.140697)
(0.000122804 0.000135863 0.141148)
(-0.000124328 0.000137033 0.141142)
(0.000121139 -0.000137376 0.141153)
(-0.000121388 -0.000137884 0.141144)
(-0.000149712 1.17782e-05 0.117089)
(-0.000154904 8.1429e-05 0.100434)
(-0.000226651 4.00059e-05 0.138079)
(-0.000215107 0.000137596 0.134472)
(-0.000251619 1.08837e-05 0.11788)
(-9.05612e-05 3.12499e-05 0.0997876)
(-0.000234306 4.03936e-05 0.137929)
(4.27554e-05 -2.63955e-05 0.0610847)
(2.19127e-05 -1.74212e-05 0.060782)
(1.24535e-05 -0.000148557 0.11834)
(4.05784e-05 -0.000231064 0.138374)
(9.11341e-05 -0.000159427 0.100893)
(0.000131377 -0.000214913 0.134862)
(1.25266e-05 -0.000257145 0.118606)
(4.1199e-05 -0.000229532 0.138466)
(2.70387e-05 -9.10785e-05 0.100555)
(-8.42517e-05 -6.30671e-05 0.0849402)
(-7.32925e-05 -8.3596e-05 0.0852049)
(1.75147e-05 2.03133e-05 0.129983)
(-6.25995e-05 -2.64411e-05 0.0843834)
(-2.08233e-05 -6.28293e-05 0.0847999)
(7.95703e-06 5.70404e-05 0.0978818)
(2.5348e-05 7.86473e-05 0.0711067)
(6.39605e-06 0.000162393 0.0981357)
(1.29849e-05 7.36128e-06 0.0709739)
(-3.21877e-05 3.958e-05 0.0607082)
(-1.05122e-05 1.66168e-05 0.0605507)
(5.88755e-05 6.91028e-06 0.0967122)
(7.30524e-05 2.38106e-05 0.0707459)
(0.000155948 4.73519e-06 0.0972803)
(8.73572e-06 1.80681e-05 0.0704729)
(-0.000143434 0.000125524 0.141413)
(0.0001406 -0.000126836 0.141411)
(-0.000141471 -0.000126685 0.141416)
(0.000116078 0.000129133 0.141811)
(-0.000116482 0.000129436 0.141801)
(0.000114465 -0.000130019 0.141817)
(-0.000113839 -0.000129609 0.141803)
(-0.00012337 1.03306e-05 0.116815)
(-0.000142027 7.70909e-05 0.0997895)
(-0.000211371 3.77678e-05 0.138731)
(-0.000199798 0.000132469 0.134797)
(-0.000227239 1.01762e-05 0.117464)
(-7.34413e-05 2.79617e-05 0.0992776)
(-0.000221876 4.01106e-05 0.138423)
(3.90496e-05 -2.67721e-05 0.0605389)
(1.47359e-05 -1.59036e-05 0.0603304)
(1.07798e-05 -0.000122352 0.118029)
(3.78199e-05 -0.000221234 0.138998)
(8.60464e-05 -0.000143369 0.10026)
(0.000123962 -0.000199506 0.135261)
(9.40359e-06 -0.000232405 0.118262)
(4.01796e-05 -0.000215944 0.139027)
(2.54488e-05 -7.30758e-05 0.100052)
(-7.52925e-05 -6.08133e-05 0.0842516)
(-7.06024e-05 -7.31913e-05 0.0845273)
(2.51745e-05 2.76892e-05 0.130167)
(-5.00223e-05 -2.39659e-05 0.0837999)
(-1.87945e-05 -5.11805e-05 0.0841991)
(5.08362e-06 3.82303e-05 0.0968194)
(2.89138e-05 7.47282e-05 0.0705444)
(5.18212e-06 0.000144594 0.0975928)
(5.31509e-06 8.24357e-07 0.0703334)
(-3.40735e-05 3.82243e-05 0.0602161)
(-2.42837e-06 8.57657e-06 0.0600419)
(7.51544e-05 2.47034e-05 0.0701904)
(0.000142636 7.84471e-06 0.0966643)
(-0.000131148 0.000117084 0.142071)
(0.000130526 -0.000117708 0.142066)
(-0.000129121 -0.000116363 0.142078)
(-9.03443e-05 9.71575e-06 0.116688)
(-0.000126968 7.36191e-05 0.0991533)
(-0.000198912 3.76012e-05 0.139342)
(-0.000179774 0.000119537 0.135011)
(-0.000199409 9.26517e-06 0.116996)
(-5.19134e-05 2.22283e-05 0.0989176)
(-0.000200547 3.82772e-05 0.138812)
(4.05512e-05 -2.91356e-05 0.0600312)
(1.01393e-05 -9.07917e-05 0.117129)
(3.88777e-05 -0.00020752 0.139571)
(8.01547e-05 -0.000126874 0.0996105)
(9.36089e-06 -0.000200257 0.117928)
(4.20144e-05 -0.000197895 0.139438)
(-6.83243e-05 -6.13364e-05 0.0835963)
(-7.06067e-05 -6.29238e-05 0.0839047)
(3.4645e-05 3.73472e-05 0.130323)
(-3.48312e-05 -2.1497e-05 0.0833317)
(-1.26311e-05 -4.41249e-05 0.0835455)
(0.000181099 0.000185553 0.119945)
(0.000430024 0.000225642 0.0751664)
(0.000226056 0.000430573 0.0751657)
(0.000463316 -0.000798559 0.045537)
(0.000431796 0.000165715 0.0619643)
(-0.000806709 0.000471648 0.0455029)
(0.000166407 0.000432338 0.0619673)
(0.000346531 0.000339318 0.119771)
(0.000231855 -0.000100139 0.0816692)
(-0.000104555 0.000245287 0.0816506)
(6.61938e-05 0.000395588 0.0777633)
(0.000396121 6.49547e-05 0.0777709)
(2.48685e-05 0.000460074 0.110698)
(0.000219646 0.000186597 0.123627)
(0.000276397 0.000356582 0.08456)
(1.26957e-05 0.000201894 0.128082)
(-2.50667e-05 0.000460199 0.1107)
(-0.000219937 0.000186764 0.123624)
(-0.00027441 0.000357065 0.0845527)
(-1.27454e-05 0.000201856 0.128083)
(9.76066e-06 0.000608727 0.0963808)
(0.00171108 -0.00358633 0.0371777)
(0.000354778 -1.30786e-05 0.0680064)
(-0.000162295 7.69151e-05 0.0984852)
(-1.00612e-05 0.000608531 0.0963841)
(-0.00171206 -0.00358724 0.0371756)
(-0.000350752 -1.10094e-05 0.0680006)
(0.000161472 7.70539e-05 0.0984894)
(6.76415e-05 0.000514511 0.110552)
(0.000256018 0.000355956 0.123514)
(0.000834308 -0.000436083 0.0882551)
(8.22188e-05 0.000346717 0.125593)
(0.000230842 0.000562361 0.0877632)
(4.96806e-05 0.000266961 0.127124)
(-4.21812e-05 0.000361389 0.112835)
(-6.7697e-05 0.00051458 0.110554)
(-0.000256221 0.000356165 0.123512)
(-0.000835716 -0.000437602 0.0882541)
(-8.25488e-05 0.000346901 0.125593)
(-0.000231045 0.000561817 0.0877793)
(-4.98042e-05 0.000266951 0.127125)
(4.15789e-05 0.000361569 0.112837)
(-0.000181295 0.000185509 0.119943)
(-0.000430991 0.000234945 0.0750927)
(-0.00022584 0.000430581 0.0751699)