/*--------------------------------*- C++ -*----------------------------------*\
| =========                 |                                                 |
| \\      /  F ield         | OpenFOAM: The Open Source CFD Toolbox           |
|  \\    /   O peration     | Version:  2206                                  |
|   \\  /    A nd           | Website:  www.openfoam.com                      |
|    \\/     M anipulation  |                                                 |
\*---------------------------------------------------------------------------*/
FoamFile
{
    version     2.0;
    format      ascii;
    arch        "LSB;label=32;scalar=64";
    class       volScalarField;
    location    "0.5";
    object      nut;
}
// * * * * * * * * * * * * * * * * * * * * * * * * * * * * * * * * * * * * * //

dimensions      [0 2 -1 0 0 0 0];

internalField   nonuniform List<scalar> 
66621
(
5.41394e-08
2.08445e-07
5.29158e-08
4.16182e-07
2.11034e-07
9.81046e-07
2.49982e-08
4.35647e-07
8.00867e-07
1.00288e-06
2.17223e-07
7.34075e-07
1.08676e-07
1.11299e-07
2.54975e-08
2.5042e-08
7.3419e-07
1.10719e-07
1.0842e-07
7.87497e-07
2.15307e-07
1.08507e-07
2.50378e-08
4.16233e-07
7.86878e-07
2.11067e-07
9.80875e-07
2.08405e-07
5.28478e-08
4.16233e-07
7.88615e-07
9.80325e-07
2.10778e-07
2.08374e-07
5.28862e-08
4.16229e-07
7.89461e-07
9.80511e-07
2.11089e-07
2.08369e-07
5.28887e-08
7.32726e-07
1.08266e-07
1.11311e-07
2.56305e-08
4.35664e-07
8.01087e-07
1.0033e-06
2.17352e-07
2.18257e-07
5.47646e-08
2.18269e-07
5.47988e-08
2.50403e-08
2.56558e-08
1.06526e-07
2.26547e-08
3.94647e-08
1.78053e-07
4.62068e-08
2.08266e-07
1.78005e-07
4.62866e-08
3.93966e-08
2.21624e-08
1.03566e-07
5.29917e-08
1.03767e-07
2.21481e-08
2.5016e-08
6.91088e-08
2.19812e-08
2.20771e-08
2.19941e-08
2.20884e-08
6.89672e-08
1.79097e-07
5.11736e-08
1.08881e-07
2.88479e-07
2.89404e-07
5.12409e-08
1.78816e-07
1.80515e-07
5.12009e-08
1.11438e-07
2.91863e-07
2.92885e-07
5.12532e-08
1.80186e-07
2.5059e-08
6.90376e-08
2.21438e-08
2.19062e-08
2.21325e-08
2.19194e-08
6.89234e-08
1.80076e-07
5.18529e-08
2.92046e-07
5.19238e-08
1.80255e-07
1.78863e-07
5.04647e-08
1.0862e-07
2.87489e-07
5.05252e-08
1.78878e-07
2.8823e-07
2.20369e-08
6.90884e-08
5.11614e-08
2.88186e-07
1.79226e-07
3.94439e-08
4.6196e-08
1.77956e-07
2.08211e-07
4.62745e-08
1.77875e-07
3.93779e-08
2.21455e-08
1.03463e-07
5.29242e-08
1.0366e-07
2.21316e-08
1.77966e-07
4.61917e-08
3.93782e-08
1.03503e-07
2.21347e-08
4.61904e-08
1.77951e-07
3.93762e-08
1.03492e-07
2.21348e-08
6.90748e-08
2.19183e-08
2.2129e-08
2.1933e-08
2.21458e-08
6.89461e-08
1.78929e-07
5.04357e-08
1.08464e-07
2.86881e-07
5.04906e-08
2.87836e-07
1.78259e-07
1.79533e-07
5.18137e-08
1.11442e-07
2.91818e-07
2.92812e-07
5.18956e-08
1.79724e-07
2.56337e-08
4.0743e-08
1.86023e-07
4.78679e-08
2.18042e-07
1.85986e-07
4.78926e-08
4.07209e-08
2.29353e-08
1.08462e-07
5.47847e-08
1.08544e-07
2.29403e-08
4.07516e-08
1.8606e-07
4.78706e-08
2.18056e-07
1.86031e-07
4.78943e-08
4.07288e-08
2.29406e-08
1.08504e-07
5.48211e-08
1.08588e-07
2.29451e-08
2.56603e-08
1.03657e-06
1.05344e-06
1.05349e-06
1.02611e-06
1.03627e-06
1.0533e-06
1.0535e-06
1.02606e-06
1.03489e-06
1.05281e-06
1.05463e-06
1.02629e-06
1.03526e-06
1.05297e-06
1.05482e-06
1.02625e-06
6.2687e-07
3.76576e-07
6.97034e-07
4.17675e-07
3.7795e-07
7.01418e-07
6.24759e-07
2.953e-07
4.02695e-07
5.46829e-07
6.46891e-07
7.23191e-07
3.93604e-07
4.37331e-07
7.26918e-07
3.94811e-07
6.47784e-07
5.6452e-07
3.06526e-07
2.17616e-07
4.12128e-07
4.12304e-07
3.07138e-07
5.66327e-07
3.29917e-07
7.34903e-07
4.55916e-07
4.61159e-07
4.58274e-07
4.62762e-07
3.28522e-07
3.29772e-07
7.34754e-07
4.56164e-07
4.56359e-07
3.28297e-07
4.61083e-07
4.5944e-07
3.01742e-07
4.08566e-07
5.53948e-07
6.27055e-07
3.76723e-07
6.97051e-07
4.17715e-07
3.78107e-07
7.0147e-07
6.24872e-07
5.48187e-07
2.95465e-07
2.11228e-07
4.0236e-07
2.95999e-07
4.03262e-07
5.46957e-07
6.27741e-07
6.98215e-07
3.76607e-07
4.17696e-07
7.02705e-07
3.779e-07
6.25464e-07
5.49129e-07
2.9521e-07
2.10935e-07
4.0347e-07
2.95688e-07
5.47947e-07
4.04124e-07
6.27886e-07
6.98275e-07
3.76635e-07
4.17713e-07
7.02771e-07
3.77945e-07
6.25596e-07
5.49567e-07
2.9532e-07
2.11237e-07
4.04553e-07
4.05301e-07
2.95799e-07
5.48366e-07
3.28495e-07
7.33466e-07
4.5355e-07
4.61208e-07
4.62939e-07
4.55594e-07
3.27033e-07
6.47097e-07
7.23133e-07
3.93677e-07
4.37346e-07
7.26914e-07
3.94927e-07
6.47814e-07
5.64743e-07
3.06673e-07
2.17734e-07
4.12112e-07
4.12232e-07
3.07297e-07
5.66479e-07
4.30261e-09
4.76733e-10
3.22239e-11
3.27868e-12
2.67055e-12
4.2341e-09
4.68952e-10
3.1721e-11
3.25859e-12
2.66304e-12
4.18433e-09
4.60966e-10
3.14843e-11
3.45117e-12
2.88143e-12
4.24574e-09
4.67899e-10
3.19321e-11
3.46932e-12
2.88832e-12
4.19153e-09
4.61711e-10
3.15278e-11
3.45201e-12
2.88124e-12
4.19241e-09
4.61912e-10
3.15477e-11
3.45482e-12
2.88351e-12
4.22907e-09
4.68412e-10
3.1687e-11
3.25697e-12
2.66236e-12
4.23174e-09
4.68748e-10
3.17127e-11
3.25946e-12
2.66414e-12
4.2322e-09
4.68759e-10
3.17153e-11
3.26006e-12
2.66464e-12
4.24154e-09
4.67546e-10
3.19086e-11
3.46634e-12
2.88589e-12
4.30142e-09
4.76687e-10
3.22145e-11
3.27466e-12
2.66652e-12
4.30393e-09
4.76946e-10
3.22322e-11
3.27451e-12
2.66597e-12
4.19242e-09
4.61891e-10
3.1545e-11
3.45348e-12
2.88221e-12
4.24439e-09
4.67767e-10
3.19164e-11
3.46462e-12
2.88395e-12
4.2639e-09
4.6921e-10
3.18387e-11
3.35759e-12
2.76854e-12
4.39506e-09
4.85489e-10
3.29343e-11
3.42709e-12
2.81386e-12
4.39575e-09
4.85466e-10
3.29344e-11
3.42975e-12
2.81684e-12
4.26339e-09
4.69263e-10
3.1841e-11
3.35547e-12
2.7661e-12
4.2328e-09
4.68706e-10
3.1705e-11
3.25744e-12
2.66219e-12
4.18349e-09
4.60802e-10
3.14749e-11
3.45187e-12
2.88247e-12
4.25986e-09
4.70038e-10
3.17772e-11
3.28231e-12
2.68789e-12
4.25933e-09
4.69893e-10
3.17683e-11
3.28283e-12
2.6887e-12
4.26374e-09
4.70757e-10
3.18264e-11
3.28359e-12
2.68783e-12
4.26267e-09
4.70565e-10
3.18139e-11
3.28275e-12
2.68724e-12
4.19059e-09
4.61537e-10
3.15176e-11
3.45253e-12
2.8821e-12
3.92654e-09
4.31001e-10
2.95588e-11
3.38582e-12
2.86448e-12
4.26113e-09
4.70103e-10
3.1785e-11
3.28432e-12
2.68973e-12
4.2621e-09
4.68997e-10
3.18259e-11
3.35749e-12
2.76876e-12
4.39414e-09
4.85386e-10
3.29278e-11
3.4269e-12
2.81384e-12
4.39478e-09
4.85359e-10
3.29276e-11
3.42952e-12
2.81678e-12
4.26166e-09
4.69052e-10
3.18283e-11
3.35535e-12
2.76629e-12
4.22775e-09
4.68164e-10
3.16709e-11
3.25587e-12
2.66156e-12
4.39359e-09
4.85278e-10
3.29213e-11
3.42571e-12
2.8128e-12
4.26095e-09
4.68955e-10
3.18207e-11
3.35385e-12
2.76501e-12
4.39342e-09
4.85274e-10
3.29185e-11
3.42553e-12
2.81271e-12
4.26109e-09
4.6897e-10
3.182e-11
3.35404e-12
2.7652e-12
3.93609e-09
4.32226e-10
2.9638e-11
3.38813e-12
2.86467e-12
4.2903e-09
4.73603e-10
3.20107e-11
3.29139e-12
2.69092e-12
4.28979e-09
4.73459e-10
3.20007e-11
3.29023e-12
2.68989e-12
4.2397e-09
4.67302e-10
3.18925e-11
3.46445e-12
2.88423e-12
4.30084e-09
4.73693e-10
3.21178e-11
3.35815e-12
2.76116e-12
4.43246e-09
4.89876e-10
3.32047e-11
3.42829e-12
2.80763e-12
4.43201e-09
4.89789e-10
3.31992e-11
3.42831e-12
2.80781e-12
4.30174e-09
4.7384e-10
3.21276e-11
3.35919e-12
2.76205e-12
4.29845e-09
4.76306e-10
3.21886e-11
3.27056e-12
2.66263e-12
4.30151e-09
4.73764e-10
3.21239e-11
3.35824e-12
2.76112e-12
4.43263e-09
4.89879e-10
3.32074e-11
3.42847e-12
2.80773e-12
4.43215e-09
4.89789e-10
3.32018e-11
3.42847e-12
2.8079e-12
4.30237e-09
4.73907e-10
3.21334e-11
3.35919e-12
2.76192e-12
4.30102e-09
4.7657e-10
3.22067e-11
3.2705e-12
2.66216e-12
4.24255e-09
4.67517e-10
3.19001e-11
3.46282e-12
2.88239e-12
3.92227e-09
4.30625e-10
2.95331e-11
3.3838e-12
2.86306e-12
3.92531e-09
4.31002e-10
2.95583e-11
3.38485e-12
2.86356e-12
4.31252e-09
4.73623e-10
3.22683e-11
3.46086e-12
2.86924e-12
4.2347e-09
4.64858e-10
3.16963e-11
3.43146e-12
2.85332e-12
4.23581e-09
4.65059e-10
3.1708e-11
3.43079e-12
2.85224e-12
3.91073e-09
4.29307e-10
2.94485e-11
3.38083e-12
2.86222e-12
4.22328e-09
4.66184e-10
3.15408e-11
3.27496e-12
2.68637e-12
4.22394e-09
4.66177e-10
3.15412e-11
3.27644e-12
2.68801e-12
3.92136e-09
4.30467e-10
2.95243e-11
3.38478e-12
2.8644e-12
3.92422e-09
4.30826e-10
2.95479e-11
3.38532e-12
2.86437e-12
3.9346e-09
4.31953e-10
2.96177e-11
3.38569e-12
2.86279e-12
4.29361e-09
4.73834e-10
3.20215e-11
3.29115e-12
2.69046e-12
4.2911e-09
4.73507e-10
3.2001e-11
3.29068e-12
2.69054e-12
3.90874e-09
4.29106e-10
2.94386e-11
3.38118e-12
2.86291e-12
4.22718e-09
4.66587e-10
3.15651e-11
3.27564e-12
2.68657e-12
4.22674e-09
4.66457e-10
3.15573e-11
3.27618e-12
2.68739e-12
3.9319e-09
4.31661e-10
2.96011e-11
3.38659e-12
2.86429e-12
3.90832e-09
4.29005e-10
2.94335e-11
3.38257e-12
2.86464e-12
4.23135e-09
4.64479e-10
3.16724e-11
3.43028e-12
2.85278e-12
4.23249e-09
4.64682e-10
3.16842e-11
3.42963e-12
2.85172e-12
4.23305e-09
4.64764e-10
3.16906e-11
3.43032e-12
2.85225e-12
4.23323e-09
4.6477e-10
3.1691e-11
3.43096e-12
2.85283e-12
3.91076e-09
4.29262e-10
2.94471e-11
3.3824e-12
2.864e-12
3.93577e-09
4.32133e-10
2.96326e-11
3.38821e-12
2.86489e-12
4.30893e-09
4.73218e-10
3.22373e-11
3.45422e-12
2.86277e-12
4.3116e-09
4.73551e-10
3.22601e-11
3.45783e-12
2.86618e-12
4.30998e-09
4.7336e-10
3.22463e-11
3.45415e-12
2.8625e-12
4.31256e-09
4.73684e-10
3.22684e-11
3.45756e-12
2.86571e-12
2.53813e-08
2.50112e-08
7.33177e-07
1.09931e-07
1.08306e-07
2.08123e-07
5.28513e-08
4.17959e-07
7.6895e-07
2.11086e-07
9.91592e-07
2.08083e-07
5.2784e-08
4.17939e-07
7.63151e-07
9.91022e-07
2.10809e-07
7.63863e-07
2.11107e-07
5.28246e-08
2.49662e-08
7.3096e-07
1.08129e-07
1.11227e-07
2.56073e-08
4.37097e-07
7.84201e-07
1.00428e-06
2.17531e-07
4.37113e-07
7.84534e-07
1.00449e-06
2.17681e-07
2.17914e-07
5.47127e-08
2.17918e-07
5.47483e-08
7.32323e-07
1.08562e-07
1.11203e-07
2.50099e-08
2.56318e-08
2.20847e-08
2.18832e-08
6.89207e-08
5.15761e-08
2.91418e-07
1.79595e-07
5.04073e-08
2.88164e-07
1.78728e-07
3.96697e-08
1.77831e-07
4.61745e-08
2.09369e-07
3.93692e-08
1.78965e-07
4.65456e-08
2.22456e-08
1.03435e-07
5.32989e-08
2.21206e-08
1.0438e-07
3.96515e-08
4.61635e-08
1.77726e-07
2.09337e-07
3.93504e-08
4.65353e-08
1.78875e-07
2.22289e-08
1.03331e-07
5.32324e-08
2.21039e-08
1.04274e-07
2.22318e-08
1.03361e-07
5.32709e-08
2.21071e-08
1.04303e-07
2.50942e-08
6.95439e-08
2.19348e-08
2.20965e-08
6.89316e-08
2.20016e-08
2.22504e-08
1.78854e-07
5.04975e-08
2.87508e-07
1.09063e-07
2.87581e-07
1.77725e-07
5.07834e-08
1.80874e-07
5.16828e-08
2.93024e-07
1.11858e-07
1.80482e-07
5.20637e-08
2.92552e-07
2.57035e-08
4.07877e-08
1.85855e-07
4.78507e-08
2.18221e-07
4.07064e-08
1.86215e-07
4.78598e-08
2.29898e-08
1.08363e-07
5.50204e-08
2.29179e-08
1.08934e-07
4.07922e-08
1.85891e-07
4.78518e-08
2.18228e-07
4.07157e-08
1.86247e-07
4.78621e-08
2.2992e-08
1.08412e-07
5.50551e-08
2.29247e-08
1.08962e-07
6.94946e-08
2.19559e-08
2.20537e-08
6.89033e-08
2.20595e-08
2.21498e-08
1.79697e-07
5.11172e-08
2.89362e-07
1.09455e-07
1.78865e-07
2.89314e-07
5.14489e-08
1.81e-07
5.115e-08
2.92835e-07
1.11882e-07
1.80296e-07
2.92532e-07
5.14315e-08
2.51397e-08
2.57257e-08
1.03558e-06
1.05169e-06
1.05373e-06
1.0264e-06
1.03536e-06
1.0515e-06
1.05387e-06
1.02633e-06
1.03982e-06
1.05289e-06
1.05477e-06
1.02517e-06
1.04015e-06
1.05304e-06
1.05486e-06
1.02519e-06
4.59538e-07
4.56065e-07
3.29771e-07
6.17691e-07
3.78215e-07
6.90397e-07
4.17273e-07
6.19253e-07
3.77737e-07
6.86984e-07
5.43352e-07
2.95879e-07
4.00388e-07
2.11966e-07
4.01097e-07
5.42261e-07
2.96487e-07
6.17928e-07
6.91192e-07
3.77998e-07
4.17276e-07
6.19566e-07
6.87786e-07
3.77584e-07
5.43609e-07
2.95557e-07
4.00857e-07
2.11706e-07
5.42407e-07
2.96225e-07
4.0173e-07
5.4402e-07
2.9568e-07
4.01997e-07
2.11994e-07
5.42798e-07
2.96348e-07
4.0286e-07
3.27563e-07
7.38251e-07
4.52453e-07
4.60265e-07
4.51254e-07
3.28164e-07
4.59417e-07
6.45915e-07
7.24935e-07
3.94575e-07
4.35144e-07
6.44983e-07
7.19708e-07
3.93525e-07
5.63134e-07
3.07035e-07
4.09937e-07
2.17786e-07
5.59451e-07
4.10834e-07
3.07132e-07
6.45938e-07
7.24936e-07
3.94694e-07
4.35152e-07
6.45191e-07
7.19635e-07
3.93594e-07
5.63318e-07
3.07206e-07
4.09901e-07
2.17938e-07
5.59725e-07
3.07265e-07
4.10862e-07
3.29267e-07
7.3955e-07
4.54686e-07
4.60438e-07
3.29857e-07
4.5332e-07
4.59538e-07
1.03766e-06
7.74206e-07
1.03769e-06
7.72472e-07
7.90939e-07
7.35008e-07
7.35072e-07
7.33821e-07
7.89091e-07
7.88519e-07
7.92444e-07
7.91866e-07
7.34532e-07
7.32957e-07
7.74318e-07
7.72682e-07
7.82559e-07
7.81031e-07
7.72958e-07
7.82444e-07
7.81475e-07
7.35083e-07
7.88639e-07
7.88049e-07
7.34223e-07
7.72582e-07
7.70915e-07
7.71144e-07
7.35001e-07
7.9093e-07
2.18367e-07
5.47954e-08
5.47519e-08
2.18061e-07
2.56064e-08
2.55951e-08
2.08943e-07
5.29861e-08
5.29086e-08
2.07697e-07
1.03742e-06
1.03713e-06
1.03723e-06
1.03769e-06
1.03744e-06
1.03716e-06
1.03725e-06
4.16228e-07
2.10694e-07
9.85113e-07
7.81427e-07
2.11463e-07
9.84996e-07
4.17785e-07
2.18494e-07
5.48035e-08
2.18014e-07
5.47484e-08
2.56074e-08
2.55937e-08
2.0864e-07
5.29852e-08
2.07891e-07
5.29029e-08
1.03745e-06
1.03711e-06
1.0372e-06
4.16323e-07
2.10864e-07
9.85125e-07
7.83651e-07
4.17709e-07
2.11215e-07
9.84945e-07
2.50335e-08
2.50119e-08
4.36039e-07
1.00368e-06
2.17591e-07
7.9523e-07
1.00371e-06
2.17565e-07
4.37093e-07
1.08869e-07
1.11374e-07
7.33983e-07
1.08598e-07
1.11234e-07
2.56383e-08
2.56261e-08
2.50625e-08
2.50378e-08
1.11542e-07
1.08604e-07
7.33881e-07
1.11384e-07
1.08375e-07
2.56264e-08
2.56385e-08
2.50389e-08
2.50616e-08
7.34942e-07
1.11383e-07
1.08367e-07
1.11549e-07
1.08611e-07
2.18304e-07
5.47456e-08
5.47027e-08
2.17995e-07
4.35784e-07
2.17408e-07
1.00188e-06
7.92075e-07
2.17512e-07
1.00189e-06
4.37466e-07
4.35666e-07
2.17122e-07
1.0018e-06
7.91513e-07
2.17247e-07
1.0018e-06
4.37373e-07
2.18036e-07
5.47533e-08
5.47959e-08
2.18383e-07
2.17989e-07
5.47015e-08
5.47452e-08
2.18312e-07
4.37392e-07
7.88884e-07
2.17473e-07
1.0019e-06
2.17418e-07
1.0019e-06
4.35936e-07
4.37302e-07
7.88314e-07
2.17237e-07
1.00181e-06
2.17158e-07
1.00181e-06
4.35813e-07
1.11212e-07
1.08661e-07
7.33131e-07
1.11067e-07
1.08463e-07
2.50479e-08
2.50228e-08
2.5596e-08
2.56071e-08
7.3416e-07
1.11075e-07
1.08478e-07
1.11235e-07
1.08693e-07
2.50243e-08
2.50463e-08
4.16281e-07
2.10756e-07
9.85373e-07
7.81542e-07
2.11498e-07
9.8525e-07
4.17866e-07
2.08894e-07
5.29289e-08
2.07655e-07
5.28516e-08
4.16284e-07
9.84788e-07
2.10572e-07
7.79994e-07
9.84666e-07
4.1786e-07
2.11315e-07
2.07839e-07
5.29092e-08
5.29831e-08
2.08767e-07
4.17864e-07
7.73545e-07
2.11393e-07
9.85233e-07
2.10808e-07
9.85377e-07
4.16447e-07
2.07797e-07
5.28513e-08
2.08728e-07
5.29258e-08
4.17861e-07
7.71893e-07
9.84649e-07
2.11206e-07
9.84793e-07
4.16446e-07
2.1062e-07
2.08878e-07
5.29526e-08
5.28761e-08
2.07666e-07
4.16283e-07
9.84681e-07
2.10755e-07
7.80246e-07
9.84562e-07
4.17833e-07
2.11443e-07
2.0887e-07
5.29536e-08
2.07651e-07
5.28739e-08
4.17799e-07
7.73415e-07
2.11352e-07
9.84975e-07
2.10758e-07
9.85124e-07
4.16315e-07
2.07779e-07
5.28773e-08
5.29501e-08
2.08744e-07
4.17849e-07
7.71881e-07
9.84555e-07
2.11391e-07
9.84695e-07
4.16391e-07
2.1075e-07
2.07767e-07
5.28769e-08
2.08733e-07
5.29483e-08
2.56387e-08
2.56259e-08
2.50604e-08
2.50398e-08
1.11552e-07
1.08625e-07
7.33815e-07
1.11391e-07
1.08361e-07
2.18437e-07
5.47507e-08
2.17951e-07
5.47003e-08
4.36191e-07
2.17454e-07
1.0019e-06
7.92946e-07
4.3722e-07
2.1746e-07
1.00193e-06
4.36083e-07
2.17208e-07
1.00181e-06
7.9253e-07
4.37123e-07
2.17207e-07
1.00185e-06
1.11235e-07
1.08715e-07
7.33183e-07
1.11085e-07
1.08408e-07
2.50463e-08
2.50285e-08
4.1633e-07
2.10902e-07
9.85385e-07
7.83839e-07
4.17849e-07
2.11247e-07
9.85194e-07
2.08595e-07
5.29276e-08
2.07845e-07
5.28457e-08
4.1633e-07
9.84797e-07
2.10715e-07
7.8231e-07
4.17836e-07
9.84604e-07
2.11066e-07
2.08581e-07
5.29539e-08
2.07861e-07
5.28693e-08
4.16364e-07
9.847e-07
2.10897e-07
7.82808e-07
4.17778e-07
9.84519e-07
2.11263e-07
2.08573e-07
5.29538e-08
2.07852e-07
5.28725e-08
1.08579e-07
1.11609e-07
7.33705e-07
1.08317e-07
1.11473e-07
2.56633e-08
2.56524e-08
1.11565e-07
2.56652e-08
4.36027e-07
1.00377e-06
2.17534e-07
7.94915e-07
1.00381e-06
2.1748e-07
4.37083e-07
2.18434e-07
5.48208e-08
5.47688e-08
2.17914e-07
2.18422e-07
5.48238e-08
5.4776e-08
2.17912e-07
4.37069e-07
2.17539e-07
4.37049e-07
2.17482e-07
2.17612e-07
5.48098e-08
2.17595e-07
5.48199e-08
2.5063e-08
2.50398e-08
2.56523e-08
2.56434e-08
1.11381e-07
2.56565e-08
4.07673e-08
4.78829e-08
1.86184e-07
2.18069e-07
4.79172e-08
1.85972e-07
4.07378e-08
2.2943e-08
5.47523e-08
1.08553e-07
1.08454e-07
2.29477e-08
2.29477e-08
1.08449e-07
5.47943e-08
1.08556e-07
2.29431e-08
4.07389e-08
2.18373e-07
4.79179e-08
1.85978e-07
4.78841e-08
1.86215e-07
4.07689e-08
2.55944e-08
2.56064e-08
3.94625e-08
1.78511e-07
4.62054e-08
2.07784e-07
1.77565e-07
4.6285e-08
3.93963e-08
2.21449e-08
5.29109e-08
1.03741e-07
1.03545e-07
2.21667e-08
2.21659e-08
1.03534e-07
5.29839e-08
1.03744e-07
2.21445e-08
3.93969e-08
2.08938e-07
1.77501e-07
4.62846e-08
1.78536e-07
4.6205e-08
3.94629e-08
4.07682e-08
2.17953e-07
4.7946e-08
1.86175e-07
4.79132e-08
1.85984e-07
4.07584e-08
2.29431e-08
1.08575e-07
5.47485e-08
2.29487e-08
1.08444e-07
4.07384e-08
2.18437e-07
4.79186e-08
1.86001e-07
4.07697e-08
4.78828e-08
1.8619e-07
2.29477e-08
1.08461e-07
5.48042e-08
1.08572e-07
2.29493e-08
2.55952e-08
2.56058e-08
3.94611e-08
2.08017e-07
1.78243e-07
4.62028e-08
1.77774e-07
4.62812e-08
3.9393e-08
2.21457e-08
1.03765e-07
5.29085e-08
2.21642e-08
1.03511e-07
3.93954e-08
2.08709e-07
1.77669e-07
4.62802e-08
3.94608e-08
1.78329e-07
4.62037e-08
2.21627e-08
1.03506e-07
5.29862e-08
1.03767e-07
2.21456e-08
2.50127e-08
2.50318e-08
6.92485e-08
2.20094e-08
2.21292e-08
2.20397e-08
2.21488e-08
6.90814e-08
1.78692e-07
2.88812e-07
1.08608e-07
5.12359e-08
2.88393e-07
5.11571e-08
1.78293e-07
1.80882e-07
2.9276e-07
1.11211e-07
5.13766e-08
2.92047e-07
5.13136e-08
1.80694e-07
1.78417e-07
5.11447e-08
1.08864e-07
2.88443e-07
2.88883e-07
5.12164e-08
1.787e-07
1.80558e-07
5.12983e-08
1.11381e-07
2.91998e-07
2.92745e-07
5.13573e-08
1.80719e-07
6.91232e-08
2.20673e-08
2.21478e-08
2.2031e-08
2.21322e-08
6.93028e-08
2.56258e-08
2.56382e-08
2.50377e-08
2.50618e-08
6.9033e-08
2.21153e-08
2.19032e-08
2.2132e-08
2.19231e-08
6.89068e-08
1.80356e-07
2.93446e-07
1.11387e-07
5.18859e-08
5.18354e-08
2.9279e-07
1.79924e-07
1.79163e-07
2.88024e-07
1.08383e-07
5.05243e-08
5.04613e-08
2.87727e-07
1.78601e-07
1.79894e-07
5.18372e-08
1.11543e-07
2.9277e-07
5.18851e-08
1.80314e-07
2.93424e-07
1.78576e-07
5.04608e-08
1.08604e-07
2.87726e-07
5.0523e-08
1.79113e-07
2.8798e-07
6.89007e-08
2.21316e-08
2.19229e-08
2.21141e-08
2.19021e-08
6.90331e-08
2.5639e-08
2.56265e-08
2.50612e-08
2.50384e-08
6.89157e-08
2.2133e-08
2.1924e-08
6.90431e-08
2.21162e-08
2.19041e-08
1.79991e-07
2.92778e-07
1.11555e-07
5.18397e-08
5.18914e-08
2.93457e-07
1.80345e-07
1.78688e-07
2.87727e-07
1.08621e-07
5.04636e-08
5.0527e-08
2.88027e-07
1.79123e-07
1.80334e-07
5.18893e-08
2.93426e-07
1.11385e-07
1.79917e-07
5.18411e-08
2.9277e-07
1.79125e-07
5.05244e-08
2.87996e-07
1.08372e-07
1.78606e-07
5.0463e-08
2.87679e-07
6.90475e-08
2.21156e-08
2.19039e-08
2.21328e-08
2.19239e-08
6.89133e-08
4.07485e-08
4.78715e-08
1.86081e-07
2.18011e-07
4.79067e-08
1.85864e-07
4.07181e-08
2.29256e-08
5.47034e-08
1.08474e-07
1.08376e-07
2.29302e-08
2.293e-08
1.08368e-07
5.47448e-08
1.08479e-07
2.29249e-08
4.07186e-08
2.18297e-07
4.79065e-08
1.85848e-07
4.78722e-08
1.86089e-07
4.07483e-08
4.07393e-08
4.7917e-08
1.85958e-07
2.18354e-07
4.07678e-08
4.78832e-08
1.86172e-07
2.29487e-08
5.47995e-08
1.08443e-07
2.29436e-08
1.08568e-07
2.29434e-08
1.08561e-07
5.47541e-08
2.29481e-08
1.08444e-07
4.07699e-08
2.18014e-07
4.7884e-08
1.86188e-07
4.07402e-08
4.79183e-08
1.85977e-07
4.0718e-08
4.79063e-08
1.85863e-07
2.18295e-07
4.07483e-08
4.78712e-08
1.86066e-07
2.29294e-08
5.47466e-08
1.08353e-07
1.0848e-07
2.29244e-08
2.29244e-08
1.08478e-07
5.47031e-08
2.29295e-08
1.08358e-07
4.07489e-08
2.17961e-07
4.78718e-08
1.86062e-07
4.79069e-08
1.85866e-07
4.07184e-08
6.91014e-08
2.2076e-08
2.19756e-08
2.20981e-08
2.20038e-08
6.89484e-08
1.80584e-07
2.92116e-07
1.11061e-07
5.12375e-08
5.11768e-08
2.91482e-07
1.80223e-07
1.78471e-07
2.88305e-07
1.08456e-07
5.12087e-08
2.88035e-07
5.11327e-08
1.7784e-07
1.80117e-07
5.11514e-08
1.11224e-07
2.91482e-07
5.12167e-08
2.92114e-07
1.80472e-07
1.77927e-07
5.1124e-08
1.0868e-07
2.88103e-07
2.88331e-07
5.1194e-08
1.78522e-07
6.89791e-08
2.21014e-08
2.20244e-08
2.20823e-08
2.19922e-08
6.91437e-08
2.50231e-08
2.5047e-08
2.56076e-08
2.55958e-08
6.89203e-08
2.20894e-08
2.19896e-08
6.90672e-08
2.20664e-08
2.19644e-08
1.80028e-07
2.91534e-07
1.11241e-07
5.11077e-08
2.92157e-07
5.11711e-08
1.80285e-07
1.78069e-07
2.88151e-07
1.08705e-07
5.11181e-08
5.11821e-08
2.88443e-07
1.78588e-07
1.80377e-07
5.1193e-08
2.92128e-07
1.11072e-07
2.91496e-07
1.80056e-07
5.11276e-08
1.78562e-07
5.11859e-08
2.88396e-07
1.08469e-07
1.78002e-07
5.11196e-08
2.88089e-07
6.90396e-08
2.20562e-08
2.19573e-08
2.20791e-08
2.19798e-08
6.8889e-08
2.5046e-08
2.50232e-08
3.94409e-08
4.61931e-08
2.07733e-07
1.78401e-07
4.62725e-08
1.7744e-07
3.9375e-08
2.21282e-08
1.03638e-07
5.28539e-08
1.03445e-07
2.21499e-08
3.9375e-08
2.0889e-07
4.6272e-08
1.77386e-07
4.61923e-08
1.78421e-07
3.94411e-08
2.21493e-08
1.03436e-07
5.2927e-08
1.03644e-07
2.2128e-08
3.93945e-08
1.77584e-07
4.62833e-08
2.08879e-07
3.9461e-08
1.78436e-07
4.62042e-08
2.21647e-08
5.29843e-08
1.03518e-07
2.21452e-08
1.03755e-07
2.21447e-08
1.03746e-07
5.29084e-08
2.21652e-08
1.03524e-07
3.94593e-08
2.07851e-07
1.78364e-07
4.62031e-08
3.93939e-08
1.776e-07
4.62802e-08
3.93737e-08
4.62711e-08
2.08843e-07
1.77476e-07
3.944e-08
4.6192e-08
1.78345e-07
2.21478e-08
1.03414e-07
5.29263e-08
1.03652e-07
2.21283e-08
3.94384e-08
2.07815e-07
4.61908e-08
1.78266e-07
4.6268e-08
1.775e-07
3.93723e-08
2.21279e-08
1.03647e-07
5.28507e-08
2.21486e-08
1.03424e-07
3.94422e-08
1.7842e-07
4.61911e-08
2.07721e-07
1.77465e-07
4.62703e-08
3.93775e-08
2.21311e-08
5.28782e-08
1.0367e-07
1.03479e-07
2.21523e-08
2.21516e-08
1.03471e-07
5.29515e-08
1.03675e-07
2.2131e-08
3.93773e-08
2.08894e-07
1.77422e-07
4.62704e-08
1.78446e-07
4.61904e-08
3.94427e-08
3.94383e-08
4.61881e-08
2.07709e-07
1.78399e-07
4.62666e-08
1.77437e-07
3.93734e-08
2.21302e-08
1.03655e-07
5.28781e-08
1.0346e-07
2.21519e-08
3.93734e-08
2.08886e-07
4.6267e-08
1.77391e-07
4.61876e-08
1.78425e-07
3.9439e-08
2.21512e-08
1.03451e-07
5.29504e-08
1.0366e-07
2.21301e-08
3.93767e-08
1.77504e-07
4.62694e-08
2.08837e-07
3.94417e-08
1.78375e-07
4.61909e-08
2.21504e-08
5.29516e-08
1.03454e-07
1.03687e-07
2.21315e-08
2.21311e-08
1.0368e-07
5.28754e-08
2.2151e-08
1.03462e-07
3.94407e-08
2.07821e-07
1.78304e-07
4.61898e-08
1.77542e-07
4.6267e-08
3.93755e-08
3.93728e-08
4.62657e-08
2.08827e-07
1.77474e-07
3.94377e-08
4.61879e-08
1.78349e-07
2.21504e-08
1.03436e-07
5.29512e-08
1.03672e-07
2.21309e-08
3.94369e-08
2.07808e-07
4.61868e-08
1.78279e-07
4.62632e-08
1.7751e-07
3.93717e-08
2.21305e-08
1.03665e-07
5.2874e-08
2.21508e-08
1.03442e-07
2.56258e-08
2.56381e-08
2.50395e-08
2.50592e-08
6.90398e-08
2.21153e-08
2.19041e-08
2.21312e-08
2.19218e-08
6.89018e-08
1.80286e-07
2.93466e-07
5.18881e-08
1.11381e-07
1.80017e-07
5.18356e-08
2.92738e-07
1.79054e-07
2.88079e-07
5.05259e-08
1.08361e-07
1.78728e-07
5.04603e-08
2.8761e-07
6.89047e-08
2.21317e-08
2.19227e-08
6.9041e-08
2.2115e-08
2.19036e-08
1.80007e-07
5.18364e-08
1.11545e-07
2.92735e-07
5.18864e-08
1.80215e-07
2.93452e-07
1.78738e-07
5.04591e-08
1.08623e-07
2.87591e-07
5.05233e-08
1.78967e-07
2.88077e-07
4.07495e-08
2.17904e-07
4.79344e-08
1.86071e-07
4.79035e-08
1.85876e-07
4.07386e-08
2.29245e-08
1.08485e-07
5.46975e-08
2.29298e-08
1.08355e-07
4.07182e-08
2.18365e-07
4.79078e-08
1.85878e-07
4.78717e-08
4.07495e-08
1.86067e-07
2.29298e-08
1.08376e-07
5.47534e-08
1.08485e-07
2.29314e-08
6.91208e-08
2.20708e-08
2.20021e-08
2.21103e-08
2.19784e-08
6.89655e-08
1.79894e-07
2.92183e-07
5.11476e-08
1.11073e-07
5.11111e-08
1.79963e-07
2.91564e-07
1.79029e-07
2.88487e-07
5.11857e-08
1.08504e-07
2.88148e-07
1.78164e-07
5.1094e-08
6.88967e-08
2.20698e-08
2.1973e-08
2.20541e-08
6.90229e-08
2.1956e-08
1.7909e-07
5.12061e-08
1.11226e-07
2.91276e-07
5.12939e-08
2.91893e-07
1.79609e-07
1.79367e-07
5.10991e-08
1.08713e-07
2.88259e-07
2.88828e-07
5.10866e-08
1.79243e-07
2.50268e-08
2.50482e-08
3.94399e-08
2.07965e-07
4.6191e-08
1.78141e-07
4.62689e-08
1.77653e-07
3.93729e-08
2.21292e-08
1.03661e-07
5.28513e-08
2.21474e-08
1.0341e-07
3.93734e-08
2.08659e-07
4.62676e-08
1.77551e-07
4.6191e-08
3.94387e-08
1.78214e-07
2.21464e-08
1.0341e-07
5.29292e-08
1.03668e-07
2.21295e-08
3.94408e-08
2.07962e-07
1.78163e-07
4.61884e-08
1.77682e-07
4.62663e-08
3.93749e-08
2.21321e-08
1.03697e-07
5.28772e-08
1.03448e-07
2.21499e-08
3.93756e-08
2.08666e-07
1.77592e-07
4.62664e-08
1.78244e-07
3.94405e-08
4.61892e-08
2.21486e-08
1.03444e-07
5.29533e-08
1.03702e-07
2.21322e-08
3.94381e-08
2.07956e-07
4.61856e-08
1.78141e-07
4.62637e-08
1.77659e-07
3.93708e-08
2.21314e-08
1.03681e-07
5.28778e-08
2.21498e-08
1.03429e-07
3.93722e-08
2.08657e-07
4.62636e-08
1.77566e-07
3.94379e-08
4.61865e-08
1.78224e-07
2.21484e-08
1.03428e-07
5.29557e-08
1.03687e-07
2.21314e-08
6.90771e-08
2.19027e-08
2.21397e-08
2.19144e-08
2.21527e-08
6.89627e-08
1.79116e-07
2.88092e-07
1.08315e-07
5.0458e-08
5.03916e-08
2.8764e-07
1.7886e-07
1.80374e-07
2.93525e-07
1.1145e-07
5.19802e-08
2.92828e-07
5.19268e-08
1.80026e-07
1.78826e-07
5.04072e-08
1.0857e-07
2.87662e-07
5.04529e-08
2.88084e-07
1.78692e-07
1.80019e-07
5.19133e-08
1.11601e-07
2.92868e-07
2.93474e-07
5.19835e-08
1.80753e-07
6.89277e-08
2.19145e-08
2.21532e-08
2.18953e-08
2.21366e-08
6.90736e-08
2.56513e-08
2.56633e-08
2.21668e-08
5.18877e-08
4.07443e-08
1.86117e-07
4.79205e-08
2.17857e-07
1.85909e-07
4.78882e-08
4.07351e-08
2.29366e-08
5.4768e-08
1.0856e-07
1.08431e-07
2.29412e-08
2.29417e-08
1.08459e-07
5.48238e-08
1.08566e-07
2.29438e-08
4.07128e-08
2.1832e-07
1.85902e-07
4.78894e-08
1.8608e-07
4.78552e-08
4.07421e-08
4.07475e-08
1.86108e-07
4.79203e-08
2.17846e-07
1.85903e-07
4.7888e-08
4.07384e-08
2.29359e-08
5.47704e-08
1.08566e-07
1.08436e-07
2.29407e-08
2.2943e-08
1.08468e-07
5.48293e-08
1.08575e-07
2.29451e-08
4.0714e-08
2.18315e-07
1.85912e-07
4.78891e-08
1.86082e-07
4.78538e-08
4.07451e-08
1.85783e-07
4.77926e-08
4.07091e-08
1.08633e-07
2.29384e-08
1.85767e-07
4.77913e-08
4.07121e-08
1.0865e-07
2.294e-08
2.50414e-08
2.50606e-08
2.56407e-08
2.56542e-08
2.21421e-08
5.13422e-08
1.054e-06
1.05461e-06
1.0378e-06
1.05403e-06
1.05465e-06
1.02606e-06
1.02605e-06
1.054e-06
1.05459e-06
1.03782e-06
1.05405e-06
1.05466e-06
1.02606e-06
1.02605e-06
3.2779e-07
4.56853e-07
4.63161e-07
7.34014e-07
4.51308e-07
4.58072e-07
3.29132e-07
3.28374e-07
4.61991e-07
4.59558e-07
7.34018e-07
4.56036e-07
4.52219e-07
3.29771e-07
3.29752e-07
7.34926e-07
4.56693e-07
4.5441e-07
4.61797e-07
4.60435e-07
3.28425e-07
3.27306e-07
4.59899e-07
4.60277e-07
7.33394e-07
4.52843e-07
4.53924e-07
3.28668e-07
3.28976e-07
7.34078e-07
4.54567e-07
4.55023e-07
4.59622e-07
4.61136e-07
3.27692e-07
3.28358e-07
4.61457e-07
4.58224e-07
7.3401e-07
3.29757e-07
4.56433e-07
4.5268e-07
3.27637e-07
4.59349e-07
4.5894e-07
7.33211e-07
4.53205e-07
3.29064e-07
4.54509e-07
3.28567e-07
4.5547e-07
4.6448e-07
7.33919e-07
4.5939e-07
4.50078e-07
3.29971e-07
1.05394e-06
1.05447e-06
1.03755e-06
1.05396e-06
1.05451e-06
1.02603e-06
1.02602e-06
1.05394e-06
1.05487e-06
1.03716e-06
1.05397e-06
1.05489e-06
1.02609e-06
1.02609e-06
1.05393e-06
1.05491e-06
1.03725e-06
1.05396e-06
1.05492e-06
1.02609e-06
1.02609e-06
1.03772e-06
1.05403e-06
1.05464e-06
1.05401e-06
1.0546e-06
1.02605e-06
1.02606e-06
1.03747e-06
1.05396e-06
1.0545e-06
1.05394e-06
1.05446e-06
1.02602e-06
1.02603e-06
1.03712e-06
1.05398e-06
1.05489e-06
1.05393e-06
1.05487e-06
1.02608e-06
1.02609e-06
1.03721e-06
1.05396e-06
1.05492e-06
1.05392e-06
1.0549e-06
1.02608e-06
1.02609e-06
6.29076e-07
3.76764e-07
6.87018e-07
4.17727e-07
3.77825e-07
7.04522e-07
6.17341e-07
5.39129e-07
4.02796e-07
2.11475e-07
2.95529e-07
3.99024e-07
2.95618e-07
5.47299e-07
5.49667e-07
2.95626e-07
2.10732e-07
4.00446e-07
4.0402e-07
2.95531e-07
5.41936e-07
6.1245e-07
4.16038e-07
3.77845e-07
6.98948e-07
3.76678e-07
6.80586e-07
6.24843e-07
1.05393e-06
1.05445e-06
1.03758e-06
1.05398e-06
1.05452e-06
1.02603e-06
1.02602e-06
1.05392e-06
1.05486e-06
1.03717e-06
1.05398e-06
1.05488e-06
1.02609e-06
1.02608e-06
1.05391e-06
1.05489e-06
1.0372e-06
1.05398e-06
1.05488e-06
1.02609e-06
1.02608e-06
6.28117e-07
4.17681e-07
3.76716e-07
6.92827e-07
3.77846e-07
7.0323e-07
6.21676e-07
5.3981e-07
4.01788e-07
2.95639e-07
2.11296e-07
5.45058e-07
3.99206e-07
2.95468e-07
6.13407e-07
4.16158e-07
3.77852e-07
6.94318e-07
6.21347e-07
3.76651e-07
6.81931e-07
5.48964e-07
2.95446e-07
2.10953e-07
4.01655e-07
4.03827e-07
2.95693e-07
5.44709e-07
6.48724e-07
7.235e-07
3.93333e-07
4.36934e-07
7.28134e-07
3.95084e-07
6.46849e-07
5.61981e-07
4.12267e-07
2.17593e-07
3.07315e-07
4.10441e-07
3.06486e-07
5.63737e-07
5.63975e-07
3.06418e-07
2.17605e-07
4.10875e-07
4.12318e-07
3.07374e-07
5.62984e-07
6.43877e-07
4.35869e-07
7.24433e-07
3.95073e-07
7.19607e-07
3.9332e-07
6.46161e-07
3.29277e-07
7.35219e-07
4.54002e-07
4.58345e-07
4.58867e-07
4.63058e-07
3.27925e-07
3.29737e-07
7.35121e-07
4.5636e-07
4.53683e-07
3.284e-07
4.62033e-07
4.60671e-07
3.28383e-07
7.33781e-07
4.61666e-07
4.58917e-07
3.29748e-07
4.56153e-07
4.52338e-07
6.49894e-07
3.93549e-07
7.2301e-07
4.37428e-07
3.95105e-07
7.28774e-07
6.46133e-07
5.62169e-07
4.13975e-07
2.17533e-07
3.0714e-07
3.06585e-07
4.11309e-07
5.65712e-07
5.65971e-07
3.06568e-07
2.17412e-07
4.11594e-07
3.07145e-07
4.14096e-07
5.62772e-07
6.44437e-07
4.35694e-07
3.95106e-07
7.26776e-07
3.93529e-07
7.20837e-07
6.48451e-07
6.49654e-07
3.9333e-07
7.22883e-07
4.37335e-07
3.94906e-07
7.28642e-07
6.45877e-07
5.61652e-07
4.12935e-07
2.17256e-07
3.06905e-07
3.06349e-07
4.10273e-07
5.65225e-07
5.65462e-07
3.06347e-07
2.17133e-07
4.10565e-07
3.06917e-07
5.62254e-07
4.13046e-07
6.44187e-07
4.35576e-07
3.94907e-07
7.26648e-07
3.93305e-07
7.20708e-07
6.48228e-07
6.44567e-07
3.95108e-07
7.26255e-07
4.35811e-07
6.47918e-07
3.93517e-07
7.20791e-07
5.65572e-07
4.11866e-07
2.17434e-07
3.06494e-07
4.13926e-07
3.07183e-07