/*--------------------------------*- C++ -*----------------------------------*\
| =========                 |                                                 |
| \\      /  F ield         | OpenFOAM: The Open Source CFD Toolbox           |
|  \\    /   O peration     | Version:  2206                                  |
|   \\  /    A nd           | Website:  www.openfoam.com                      |
|    \\/     M anipulation  |                                                 |
\*---------------------------------------------------------------------------*/
FoamFile
{
    version     2.0;
    format      ascii;
    arch        "LSB;label=32;scalar=64";
    class       volScalarField;
    location    "0.3";
    object      Co;
}
// * * * * * * * * * * * * * * * * * * * * * * * * * * * * * * * * * * * * * //

dimensions      [0 0 0 0 0 0 0];

internalField   nonuniform List<scalar> 
184485
(
0.147645
0.147242
0.153907
0.147888
0.147161
0.146913
0.147688
0.147831
0.147247
0.146955
0.148152
0.147325
0.146045
0.146913
0.147359
0.14768
0.147546
0.147769
0.146764
0.147559
0.147507
0.146248
0.148001
0.147121
0.147329
0.146654
0.147693
0.147811
0.146275
0.14784
0.147189
0.146953
0.147429
0.146492
0.147458
0.146371
0.147019
0.146718
0.146615
0.146441
0.147752
0.146408
0.147738
0.147597
0.146111
0.14616
0.147256
0.147343
0.148013
0.147595
0.146439
0.147548
0.147398
0.147916
0.147393
0.147688
0.147548
0.147841
0.147597
0.147494
0.148021
0.146451
0.14775
0.146368
0.145956
0.146972
0.146615
0.14732
0.147488
0.147429
0.146224
0.147384
0.147377
0.147443
0.147678
0.147768
0.146336
0.147795
0.147975
0.147082
0.147587
0.145958
0.147503
0.146727
0.147672
0.147217
0.14664
0.147252
0.146752
0.147609
0.147402
0.147763
0.147782
0.14583
0.211391
0.154225
0.146611
0.149924
0.147785
0.147959
0.162282
0.14622
0.146689
0.14796
0.146155
0.146518
0.146382
0.147427
19.6482
0.147651
0.147592
0.148008
0.147606
0.146814
0.147445
0.147609
0.147474
0.147037
0.145873
0.147318
0.147317
0.511053
0.148042
0.147435
0.147717
0.295852
0.147371
0.508663
0.147777
0.147738
0.147779
0.147268
0.146964
0.147629
0.177165
0.147632
0.14692
0.147768
0.146701
0.147539
0.147226
0.147824
0.147404
0.147438
0.147842
0.147518
0.147339
0.147877
0.148126
0.147291
0.147905
0.14785
0.146338
0.146282
0.147573
0.146236
0.147551
0.147404
0.148002
0.147307
0.146327
0.147629
0.147632
0.148077
0.147694
0.147908
0.147381
0.146925
0.147579
19.6938
0.294934
0.146622
0.147606
0.147307
0.148172
0.147533
0.147432
0.148162
0.147763
0.146251
0.146371
0.147437
0.147722
0.148117
0.147534
0.147263
0.147546
0.14764
0.146038
0.148032
0.147656
0.147646
0.14635
0.147739
0.147765
0.147665
0.147755
0.148042
0.147765
0.14791
0.148395
0.14783
0.148008
0.147618
0.147323
0.147405
0.147339
0.14785
0.147737
0.147719
0.148427
0.147653
0.147236
0.14734
0.147828
0.147655
0.147196
0.147864
0.147417
0.14822
0.147168
0.147951
0.147204
0.147525
0.147263
0.147689
0.147839
0.147515
0.147414
0.148101
0.147658
0.147833
0.147654
0.147597
0.147678
0.147892
0.147688
0.147609
0.148255
0.211655
0.147639
0.147678
0.14757
0.147649
0.147495
0.148203
0.147715
0.147494
0.147811
0.14758
0.147372
0.14734
0.147667
0.148453
0.14821
0.147549
0.14747
0.14839
0.147872
0.148118
0.147573
0.147929
0.147842
0.147942
0.147833
0.148409
0.147739
0.147456
0.179056
0.146857
0.148285
0.147451
0.148087
0.147967
0.14652
0.147381
0.147309
0.147809
0.147366
0.147548
0.14772
0.147675
0.147818
0.147234
0.147905
0.147474
0.147651
0.147491
0.147611
0.147629
0.14563
0.147596
0.147679
0.147328
0.14774
0.148171
0.162693
0.147439
0.14843
0.147656
0.147565
0.147732
0.145973
0.148037
0.146102
0.147657
0.148126
0.147874
0.148544
0.147157
0.147897
0.146963
0.147473
0.148303
0.147262
0.147212
0.147375
0.147776
0.148032
0.150102
0.148417
0.161702
0.148073
0.148315
0.147464
0.147703
0.147791
0.148118
0.153912
0.510027
0.147177
0.147957
0.147771
0.147841
0.147913
0.148316
0.147373
0.147451
0.147713
0.147619
0.147242
0.147397
0.147828
0.147456
0.147921
0.148099
0.147409
0.147613
0.147252
0.147367
0.147699
0.147532
0.147367
0.147749
0.147606
0.147518
0.147989
0.148119
0.148308
0.147599
0.147337
0.148205
0.147492
0.147318
0.147968
0.147843
0.147839
0.146502
0.147318
0.147677
0.147343
0.14677
0.147873
0.147898
0.14775
0.147373
0.147853
0.14775
0.147384
0.147593
0.147737
19.6559
0.147554
0.146184
0.147679
0.147214
0.147809
0.147541
0.146657
0.147725
0.147489
0.147468
0.147618
0.147326
0.154514
0.149088
0.146354
0.147492
0.29447
0.147643
0.1473
0.147565
0.147571
0.147873
0.148303
0.147326
0.147856
0.14692
0.146111
0.147729
0.14778
0.148263
0.148014
0.14676
0.14751
0.145848
0.146744
0.147653
0.147714
0.147377
0.146073
0.146603
0.146751
0.148042
0.145956
0.147871
0.148198
0.147613
0.147757
0.148065
0.147981
0.154275
0.176967
0.148006
0.146262
0.148451
0.146508
0.147231
0.147581
0.14754
0.147575
0.215318
0.148197
0.147794
0.213457
0.147858
0.147625
0.177796
0.212127
0.146737
0.14665
0.147503
0.147453
0.14834
0.147337
0.147929
0.147745
0.147391
0.147606
0.147677
0.147758
0.147813
0.146971
0.147287
0.147531
0.147885
0.148046
0.148233
0.146142
0.147701
0.147557
0.147578
0.147098
0.14747
0.147951
0.14738
0.146203
0.14595
0.14609
0.146041
0.146716
0.147524
0.147241
0.147653
0.146172
0.146106
0.147635
0.147706
0.147837
0.147207
0.147534
0.147782
0.147466
0.147564
0.147586
0.14772
0.147848
0.147618
0.147186
0.146444
0.147365
0.14747
0.148146
0.147459
0.147708
0.147414
0.147819
0.146071
0.147618
0.147586
0.147762
0.147484
0.1605
0.147858
0.148119
0.147841
0.147729
0.147549
0.147549
0.147758
0.146191
0.147529
0.147515
0.147665
0.147754
0.146549
0.14745
0.148368
0.147707
0.14792
0.147896
0.147811
0.148304
0.147976
0.147635
0.14751
0.14644
0.512182
0.146547
0.147515
0.146125
0.147187
0.146138
0.147571
0.146074
0.146983
0.147742
0.147704
0.146371
0.147547
0.14772
0.148206
0.147086
19.563
0.146481
0.146078
0.147484
0.147694
0.147613
0.14758
0.148416
0.146189
0.147328
0.296604
0.147329
0.147599
0.148021
0.147437
0.146877
0.146768
0.147583
0.159951
0.176903
0.147606
0.147683
0.147934
0.147733
0.147777
0.147842
0.1473
0.147607
0.147904
0.147682
0.147627
0.14761
0.146136
0.147563
0.147438
0.147356
0.148024
0.148201
0.147609
19.6481
0.512297
0.295623
0.149606
0.148343
0.148137
0.148165
0.147854
0.147959
0.147815
0.148095
0.14783
0.148107
0.147307
0.147477
0.147578
0.147731
0.147565
0.14763
0.14772
0.147553
0.147601
0.147822
0.147952
0.147512
0.148115
0.147936
0.147626
0.147406
0.146928
0.147157
0.14749
0.14774
0.147417
0.147837
0.148293
0.147854
0.148042
0.148217
0.147927
0.147654
0.148198
0.148142
0.147787
0.14798
0.147862
0.147795
0.147846
0.14771
0.147972
0.147798
0.147584
0.147896
0.147883
0.147837
0.148029
0.147655
0.147631
0.147836
0.147731
0.147884
0.148008
0.148067
0.148049
0.147754
0.147935
0.147334
0.147606
19.6483
0.511246
0.295538
0.210725
0.17751
0.162664
0.154211
0.151013
0.148318
0.147994
0.148117
0.147861
0.1482
0.148449
0.148024
0.148636
0.148299
0.147989
0.147866
0.148114
0.147729
0.147992
0.148079
0.147828
0.147642
0.14796
0.14742
0.147935
0.147798
0.147751
0.148184
0.147656
0.147605
0.147549
0.147386
0.147256
0.14733
0.147548
0.147607
0.147651
0.147662
0.147718
0.147452
0.147472
0.147512
0.147652
0.147468
0.147334
0.147264
0.147295
0.147295
0.147471
0.147471
0.147575
0.147763
0.147579
0.147446
0.147218
0.147176
0.147179
0.147802
0.14777
0.14757
0.147863
0.147503
0.147446
0.147628
0.147392
0.147591
0.147713
0.147757
0.147836
0.148077
0.147952
0.148277
0.147995
0.148185
0.147971
0.148221
0.148162
0.148162
0.14801
0.147722
0.147757
0.148165
0.14766
0.147856
0.147889
0.14777
0.147476
0.147607
0.147843
0.148353
0.147873
0.147727
0.147572
0.147572
0.148008
0.147785
0.147784
0.147784
0.147713
0.148003
0.147712
0.147712
0.14753
0.14753
0.147472
0.147594
0.147593
0.147593
0.147406
0.147567
0.147837
0.147837
0.147672
0.147656
0.147889
0.147889
0.147609
0.147583
0.147745
0.147745
0.147702
0.147906
0.14773
0.147841
0.147572
0.147573
0.147537
0.147796
0.147821
19.6484
0.511113
0.29537
0.209969
0.177615
0.16178
0.154228
0.149118
0.148655
0.148271
0.148192
0.148311
0.14836
0.148702
0.148698
0.148353
0.147964
0.147881
0.148226
0.147809
0.147927
0.148017
0.147508
0.147501
0.147964
0.147848
0.147787
0.148333
0.147667
0.14772
0.147736
0.147634
0.147462
0.147424
0.148048
0.147591
0.147563
0.147545
0.147386
0.147635
0.147924
0.147789
0.147371
0.147491
0.147752
0.147758
0.147385
0.14724
0.147546
0.147284
0.147419
0.147512
0.147512
0.14743
0.147908
0.14755
0.147914
0.147467
0.147467
0.147446
0.147678
0.147944
0.147896
0.147794
0.147777
0.147522
0.147285
0.147499
0.147587
0.147743
0.147532
0.147869
0.147785
0.147769
0.147859
0.147981
0.147937
0.148017
0.148234
0.148452
0.148233
0.148056
0.148076
0.147762
0.147693
0.147593
0.147712
0.147832
0.148018
0.147762
0.147875
0.147579
0.147855
0.147913
0.147912
0.148193
0.14807
0.14807
0.147775
0.147678
0.147775
0.147831
0.147831
0.147774
0.147817
0.14755
0.147584
0.147613
0.147756
0.147647
0.147906
0.147507
0.14773
0.147757
0.147757
0.147539
0.147687
0.147782
0.14779
0.147826
0.14748
0.147628
0.147628
0.147568
0.14765
0.147516
0.147971
0.147727
0.147531
0.147485
0.147757
0.147758
19.6485
0.512624
0.295024
0.210824
0.178029
0.162333
0.153813
0.150314
0.148637
0.14842
0.148425
0.148006
0.148141
0.148204
0.148413
0.148261
0.147833
0.14767
0.147866
0.147492
0.148001
0.147573
0.147555
0.147598
0.147482
0.14763
0.148322
0.148322
0.147573
0.147869
0.147669
0.147778
0.147496
0.147432
0.147506
0.147457
0.147597
0.147488
0.147513
0.147779
0.147665
0.147824
0.147161
0.147328
0.147328
0.147356
0.147356
0.147377
0.14717
0.147156
0.147769
0.147746
0.147725
0.147676
0.147676
0.147782
0.14798
0.147641
0.147757
0.147809
0.148308
0.1477
0.147374
0.147562
0.147611
0.147611
0.14734
0.147479
0.147484
0.147685
0.14797
0.148134
0.147842
0.147915
0.147915
0.148039
0.148103
0.148217
0.148389
0.148609
0.147973
0.147751
0.147803
0.147786
0.147634
0.1476
0.1476
0.14777
0.147909
0.147847
0.147737
0.147879
0.148114
0.147738
0.148082
0.148082
0.147719
0.147409
0.147493
0.147492
0.147686
0.147755
0.147755
0.147771
0.147771
0.147689
0.14748
0.147569
0.147569
0.147783
0.147717
0.147733
0.147521
0.147663
0.147663
0.147569
0.147584
0.147646
0.14786
0.147746
0.147574
0.147638
0.147891
0.147685
0.147685
0.14759
0.14759
0.147442
0.147471
0.147427
0.147428
0.147623
19.6485
0.511479
0.295286
0.211162
0.177768
0.161387
0.15419
0.149563
0.148709
0.148565
0.148564
0.148399
0.148024
0.148249
0.148102
0.148144
0.147944
0.147671
0.147671
0.147747
0.147516
0.147497
0.147587
0.147571
0.147658
0.147641
0.147997
0.147864
0.147674
0.14751
0.147667
0.147448
0.147596
0.14739
0.147391
0.147425
0.147534
0.147369
0.147495
0.147402
0.147402
0.147199
0.147313
0.147445
0.147352
0.147345
0.147331
0.147242
0.147242
0.147309
0.147659
0.147388
0.147554
0.148021
0.147989
0.147885
0.148111
0.147883
0.147644
0.147831
0.147715
0.147582
0.147311
0.147433
0.147385
0.14741
0.146997
0.147329
0.147402
0.147765
0.148276
0.148226
0.147647
0.147771
0.147771
0.147856
0.147856
0.148109
0.148745
0.148359
0.147694
0.147658
0.147658
0.147498
0.147642
0.147723
0.147482
0.147843
0.148147
0.148143
0.147632
0.1479
0.147448
0.147564
0.148041
0.147503
0.147156
0.147381
0.147463
0.147773
0.147697
0.147885
0.148047
0.14792
0.147889
0.147601
0.147552
0.147721
0.147766
0.147741
0.147873
0.147873
0.147331
0.147855
0.147613
0.147703
0.147658
0.147747
0.147747
0.147516
0.147611
0.14777
0.14777
0.147775
0.1479
0.147836
0.147571
0.147412
0.147414
0.147713
0.147422
0.147649
19.6485
0.511089
0.295479
0.211461
0.177622
0.162511
0.153899
0.149898
0.14853
0.148685
0.148443
0.148066
0.148206
0.147953
0.147931
0.148102
0.148016
0.147661
0.147657
0.147582
0.147579
0.147607
0.147902
0.147776
0.147263
0.147473
0.147894
0.147679
0.147692
0.147373
0.147373
0.14742
0.14742
0.147442
0.147269
0.147614
0.147425
0.14757
0.147315
0.147552
0.147553
0.147437
0.147237
0.147363
0.147644
0.147589
0.147874
0.147379
0.147571
0.147579
0.147777
0.147703
0.147686
0.148028
0.14803
0.148358
0.147845
0.147529
0.147769
0.147487
0.147322
0.147122
0.147246
0.147534
0.147261
0.147246
0.147045
0.147317
0.14766
0.147801
0.147801
0.147593
0.147543
0.14775
0.147749
0.147905
0.147883
0.14817
0.148244
0.148366
0.147714
0.147657
0.147616
0.147496
0.147562
0.147494
0.148085
0.148034
0.147853
0.147947
0.148201
0.147673
0.147483
0.147583
0.147583
0.147783
0.147369
0.147378
0.147727
0.147721
0.147892
0.147637
0.148009
0.14805
0.147834
0.147908
0.147629
0.147496
0.147683
0.147691
0.148094
0.147577
0.147455
0.147439
0.147526
0.14763
0.147978
0.148075
0.147755
0.147561
0.147544
0.147736
0.147684
0.147971
0.147942
0.147918
0.147453
0.147627
0.147521
0.147492
0.147771
0.147623
19.6485
0.511801
0.295517
0.210492
0.177413
0.161925
0.154035
0.149604
0.149058
0.148767
0.1486
0.148678
0.148134
0.147955
0.148025
0.14818
0.148183
0.148022
0.147603
0.147543
0.147546
0.147644
0.147477
0.147376
0.147376
0.147413
0.147495
0.14774
0.147672
0.148091
0.147442
0.147459
0.147442
0.147408
0.147329
0.147607
0.147607
0.147477
0.147405
0.147661
0.147661
0.147601
0.147273
0.147197
0.147197
0.147733
0.147733
0.147474
0.147759
0.147695
0.147504
0.147326
0.147891
0.147546
0.1479
0.147845
0.147523
0.147472
0.147555
0.14771
0.147281
0.147305
0.147476
0.14742
0.14742
0.147607
0.147208
0.147266
0.147266
0.147782
0.147844
0.148105
0.147736
0.147859
0.14789
0.148007
0.148084
0.14801
0.14801
0.147891
0.147933
0.147704
0.147716
0.147697
0.147447
0.147513
0.147694
0.147807
0.14782
0.1478
0.147801
0.147906
0.147545
0.14767
0.147499
0.147511
0.14753
0.147396
0.147845
0.148096
0.147927
0.148194
0.147879
0.147695
0.147834
0.147656
0.147624
0.14754
0.147566
0.14765
0.14765
0.147298
0.147304
0.147373
0.147413
0.147675
0.147995
0.147981
0.147747
0.147712
0.147665
0.148073
0.148103
0.148138
0.147817
0.147989
0.147868
0.147887
0.147425
0.147452
0.147452
0.147508
19.6485
0.511971
0.295868
0.211453
0.177482
0.161881
0.154139
0.15001
0.149165
0.14922
0.148459
0.148272
0.148214
0.148078
0.147967
0.148159
0.14816
0.148133
0.147802
0.14754
0.14754
0.147464
0.147703
0.147571
0.1474
0.147517
0.147517
0.147723
0.14781
0.147504
0.14755
0.147721
0.147786
0.147497
0.147242
0.147626
0.147648
0.147832
0.147455
0.14791
0.147614
0.14737
0.14737
0.147272
0.147597
0.147777
0.147777
0.148018
0.147458
0.147316
0.147619
0.147457
0.147266
0.147492
0.147726
0.147568
0.147578
0.147416
0.147312
0.147331
0.147331
0.147567
0.147085
0.14733
0.14733
0.147352
0.147695
0.147442
0.147654
0.148244
0.148022
0.147996
0.148161
0.148061
0.147778
0.148264
0.148012
0.148057
0.147948
0.147864
0.147864
0.14834
0.147903
0.147686
0.147394
0.147518
0.147518
0.147714
0.147738
0.147767
0.147767
0.148061
0.147906
0.14765
0.147486
0.14737
0.14737
0.1478
0.147749
0.147581
0.147979
0.147891
0.147825
0.147812
0.147767
0.14773
0.147608
0.147496
0.147551
0.14773
0.14773
0.147859
0.147323
0.147472
0.147559
0.147917
0.147739
0.147827
0.147848
0.147713
0.147968
0.147514
0.147744
0.147744
0.147683
0.14762
0.14762
0.147851
0.147511
0.147429
0.147631
0.147735
19.6485
0.510323
0.296063
0.212262
0.177483
0.161749
0.154618
0.151049
0.149985
0.148514
0.147947
0.147936
0.147936
0.147946
0.147958
0.148212
0.148137
0.148122
0.14802
0.147694
0.147511
0.147508
0.147646
0.147634
0.14757
0.147622
0.147693
0.14784
0.14784
0.147566
0.147641
0.14775
0.147681
0.14784
0.147193
0.147584
0.147613
0.147514
0.148153
0.147738
0.147738
0.148191
0.147589
0.147069
0.147354
0.147682
0.147937
0.147497
0.147497
0.147403
0.14748
0.147478
0.147182
0.147528
0.147528
0.147759
0.147492
0.147592
0.147162
0.147145
0.147415
0.147325
0.147325
0.147418
0.147418
0.147321
0.14748
0.14761
0.147898
0.148231
0.147934
0.14815
0.148354
0.148201
0.148056
0.148361
0.14777
0.147904
0.147904
0.147797
0.148415
0.147928
0.147928
0.147997
0.147502
0.147427
0.147427
0.147639
0.147639
0.147608
0.147565
0.147735
0.147735
0.147858
0.14744
0.147368
0.147765
0.147725
0.147684
0.147793
0.147947
0.148004
0.147689
0.147959
0.14808
0.147697
0.14781
0.147972
0.147499
0.14769
0.14769
0.147851
0.147499
0.14765
0.147591
0.147925
0.147542
0.147668
0.147668
0.147981
0.147386
0.147672
0.147605
0.147531
0.147677
0.147613
0.147794
0.147648
0.147648
0.148074
0.147626
0.147586
19.6485
0.511586
0.295301
0.211193
0.177787
0.162036
0.154073
0.150355
0.149081
0.148716
0.148293
0.14831
0.148337
0.14824
0.148478
0.148088
0.148022
0.147945
0.147945
0.147928
0.147509
0.147695
0.147694
0.147459
0.147523
0.147565
0.147567
0.147913
0.147752
0.147631
0.147581
0.147522
0.147591
0.147414
0.147329
0.147602
0.147543
0.147602
0.147567
0.14794
0.148013
0.147694
0.147694
0.14768
0.147332
0.147247
0.147328
0.147457
0.147457
0.147573
0.147462
0.147176
0.147464
0.147573
0.147791
0.147515
0.147479
0.147386
0.147386
0.147425
0.147434
0.147279
0.147488
0.147631
0.147631
0.14742
0.147392
0.14757
0.148166
0.148019
0.147791
0.148338
0.148006
0.147926
0.148291
0.148082
0.147704
0.14794
0.147837
0.147934
0.147862
0.147758
0.147759
0.147747
0.147627
0.147434
0.147695
0.147673
0.147686
0.147655
0.147695
0.147759
0.147759
0.147849
0.147892
0.147809
0.147432
0.147884
0.147911
0.147923
0.148226
0.147644
0.148081
0.148512
0.148005
0.148092
0.148047
0.147825
0.147371
0.147703
0.147546
0.147442
0.147468
0.147697
0.148004
0.148006
0.147425
0.147655
0.147777
0.147479
0.148014
0.147612
0.147664
0.147999
0.147826
0.147433
0.147439
0.147794
0.147996
0.147735
0.147735
0.147812
19.6485
0.511711
0.29487
0.210581
0.177662
0.162805
0.154552
0.150062
0.148726
0.148626
0.148683
0.148401
0.148018
0.148406
0.148403
0.147988
0.147564
0.147837
0.147837
0.147806
0.147547
0.147483
0.147483
0.147414
0.147297
0.147689
0.147566
0.147901
0.147602
0.147481
0.147573
0.147437
0.147804
0.147804
0.14748
0.147869
0.147469
0.1477
0.1482
0.147661
0.147342
0.147607
0.147548
0.147995
0.147366
0.147297
0.147296
0.14754
0.14769
0.147724
0.147527
0.147309
0.147309
0.147539
0.147803
0.1477
0.147898
0.147545
0.147644
0.147463
0.147463
0.147222
0.147784
0.147742
0.147943
0.147564
0.147618
0.147786
0.147929
0.147929
0.148037
0.148282
0.147835
0.148118
0.14808
0.147841
0.147669
0.147723
0.147895
0.147944
0.147944
0.147671
0.147946
0.147817
0.147817
0.147648
0.147493
0.147646
0.147718
0.14772
0.147571
0.147614
0.147749
0.147835
0.147835
0.147986
0.148014
0.147563
0.14764
0.148006
0.14784
0.147993
0.148356
0.148393
0.148126
0.148241
0.147715
0.147456
0.14765
0.14763
0.147438
0.147386
0.14776
0.14761
0.147544
0.14775
0.147769
0.14801
0.147702
0.147431
0.147513
0.14765
0.148141
0.147815
0.147815
0.147899
0.147891
0.147482
0.147653
0.147768
0.147742
0.147765
19.6485
0.511496
0.294467
0.209636
0.177429
0.162057
0.154587
0.150446
0.148915
0.148714
0.148482
0.148287
0.148284
0.148364
0.148284
0.148119
0.147541
0.14791
0.147821
0.148106
0.147602
0.147435
0.147616
0.147371
0.147371
0.147497
0.147496
0.148089
0.147761
0.147585
0.147414
0.147622
0.148016
0.147413
0.147662
0.147594
0.147547
0.147759
0.147633
0.14776
0.147691
0.147621
0.14762
0.147405
0.147477
0.148046
0.147306
0.147338
0.147338
0.147507
0.147543
0.147508
0.147365
0.147505
0.147505
0.147581
0.147786
0.147786
0.147646
0.147633
0.147476
0.147437
0.147544
0.147651
0.14763
0.147733
0.147725
0.14775
0.147784
0.147784
0.148107
0.147838
0.14765
0.147686
0.147746
0.147665
0.147707
0.147495
0.147863
0.148105
0.147776
0.147637
0.147656
0.147825
0.147844
0.147629
0.147575
0.147582
0.147582
0.147818
0.147483
0.147535
0.147631
0.147865
0.148222
0.147647
0.147647
0.147547
0.147714
0.147731
0.147749
0.147889
0.148561
0.148008
0.148125
0.147962
0.147473
0.147726
0.147348
0.147464
0.147464
0.147757
0.147564
0.147525
0.148007
0.147869
0.147852
0.147783
0.147783
0.147585
0.147748
0.147621
0.147728
0.148102
0.148145
0.147863
0.147998
0.147657
0.147519
0.147636
0.147656
0.147665
19.6485
0.512224
0.2945
0.210008
0.177231
0.162054
0.154532
0.150416
0.148939
0.148463
0.148567
0.14811
0.148273
0.148189
0.148499
0.148352
0.147546
0.14802
0.148152
0.147901
0.147901
0.147621
0.147554
0.147433
0.147432
0.147419
0.147931
0.148011
0.148032
0.147997
0.147628
0.147671
0.147671
0.14754
0.147712
0.147301
0.147215
0.147544
0.147883
0.147611
0.148093
0.147725
0.146966
0.147196
0.147265
0.147383
0.147562
0.147537
0.147348
0.147399
0.147426
0.147623
0.147459
0.147511
0.147397
0.147649
0.147942
0.147646
0.147541
0.147729
0.147619
0.147755
0.147698
0.147518
0.147632
0.147515
0.147649
0.147562
0.147596
0.147648
0.147769
0.147769
0.147626
0.147675
0.147675
0.148
0.147681
0.147475
0.147635
0.147852
0.148105
0.147778
0.147778
0.14776
0.14776
0.148007
0.147621
0.147613
0.147595
0.147482
0.147693
0.14768
0.147634
0.14798
0.14798
0.147849
0.147705
0.147744
0.147869
0.147718
0.148107
0.148182
0.14795
0.147959
0.147967
0.148044
0.147887
0.147639
0.147402
0.147685
0.147655
0.147648
0.147702
0.147811
0.147558
0.147481
0.147739
0.147858
0.147825
0.147841
0.147677
0.147502
0.147999
0.147553
0.147786
0.148002
0.148145
0.147881
0.14766
0.14752
0.14752
0.147679
19.6485
0.510884
0.29476
0.211074
0.177361
0.162453
0.154648
0.150556
0.148715
0.148461
0.148271
0.148185
0.14792
0.147889
0.147889
0.14812
0.148067
0.147697
0.147365
0.147618
0.147618
0.147554
0.147411
0.147419
0.147419
0.147521
0.147521
0.147988
0.147988
0.147881
0.147653
0.14771
0.147707
0.147555
0.147349
0.14722
0.147416
0.147194
0.147194
0.147492
0.147499
0.147664
0.147164
0.14731
0.147309
0.147298
0.147417
0.147526
0.147519
0.147453
0.147459
0.147526
0.147793
0.147551
0.147777
0.147947
0.147603
0.147523
0.147929
0.147372
0.147426
0.147596
0.147347
0.14745
0.14759
0.147595
0.14759
0.147657
0.147688
0.147933
0.147744
0.147676
0.147847
0.14801
0.147719
0.147736
0.14783
0.148013
0.147697
0.147621
0.147812
0.147789
0.147696
0.147686
0.147686
0.147705
0.147704
0.147816
0.147557
0.147899
0.147521
0.147743
0.147715
0.148096
0.148096
0.14776
0.148041
0.147901
0.147686
0.147802
0.148041
0.147669
0.147957
0.147907
0.147626
0.147507
0.147507
0.147604
0.147662
0.147643
0.147302
0.147465
0.147446
0.147586
0.147586
0.147635
0.147745
0.147733
0.147996
0.147795
0.147663
0.147501
0.147501
0.147761
0.148008
0.147519
0.147918
0.147918
0.147603
0.147696
0.147693
0.148055
19.6485
0.510439
0.294961
0.210484
0.178154
0.162771
0.154415
0.150957
0.148982
0.148338
0.148191
0.148124
0.148124
0.148042
0.147825
0.14778
0.14778
0.147613
0.147493
0.147474
0.147474
0.147481
0.14753
0.147367
0.14774
0.147689
0.147689
0.147902
0.147903
0.147618
0.147618
0.147614
0.147614
0.147624
0.147505
0.147282
0.147277
0.147315
0.147315
0.147416
0.147477
0.147561
0.147321
0.147282
0.147439
0.147433
0.14758
0.147437
0.14754
0.147483
0.147409
0.147503
0.147531
0.147627
0.147798
0.147534
0.147499
0.14751
0.14751
0.147208
0.147231
0.147448
0.147643
0.147671
0.147564
0.147756
0.147885
0.148106
0.147721
0.147815
0.147958
0.148195
0.147818
0.147739
0.147541
0.147672
0.147672
0.147573
0.147609
0.147939
0.147658
0.147686
0.147686
0.147743
0.147595
0.147699
0.147699
0.147668
0.147667
0.147492
0.147492
0.147483
0.147757
0.148051
0.148124
0.148034
0.147933
0.147697
0.148155
0.148026
0.147798
0.147852
0.14796
0.148153
0.147607
0.14769
0.147706
0.147554
0.147554
0.147443
0.14748
0.147635
0.147891
0.147605
0.147605
0.147783
0.147815
0.147767
0.147856
0.147638
0.147664
0.147787
0.148251
0.147962
0.147785
0.147738
0.147997
0.147583
0.147477
0.147538
0.148017
0.147747
19.6485
0.511339
0.294737
0.211048
0.178268
0.162273
0.154082
0.150547
0.149107
0.148406
0.147946
0.148068
0.148068
0.147986
0.148082
0.147733
0.147971
0.147963
0.147564
0.147415
0.147571
0.147593
0.147593
0.147321
0.14773
0.147654
0.147717
0.147846
0.148005
0.147904
0.147712
0.147586
0.147586
0.147451
0.147533
0.147351
0.147628
0.147598
0.14725
0.147547
0.14734
0.147526
0.147469
0.147605
0.147212
0.147452
0.147452
0.147431
0.147523
0.147498
0.147498
0.147577
0.147607
0.147582
0.147723
0.147811
0.147603
0.147577
0.147577
0.147694
0.147253
0.147654
0.147473
0.147651
0.147787
0.147756
0.148196
0.147751
0.147608
0.148048
0.147788
0.147825
0.147825
0.147647
0.147742
0.147685
0.147685
0.1481
0.147956
0.148029
0.147706
0.147614
0.147614
0.147522
0.147656
0.147682
0.14802
0.147656
0.147656
0.147697
0.147696
0.147635
0.147649
0.147964
0.148424
0.14853
0.148084
0.147756
0.147808
0.148159
0.147905
0.147858
0.147762
0.147652
0.147652
0.147863
0.147426
0.14773
0.147733
0.147363
0.147363
0.147458
0.147458
0.14764
0.147627
0.147702
0.147695
0.147767
0.147767
0.147674
0.148074
0.14753
0.147298
0.147671
0.147884
0.147921
0.147921
0.148048
0.147594
0.14784
0.147678
0.147673
19.6485
0.511445
0.294736
0.210795
0.17758
0.162158
0.154147
0.150098
0.148945
0.14867
0.147936
0.148086
0.14786
0.147795
0.147795
0.147604
0.147815
0.147959
0.147579
0.147556
0.147479
0.147569
0.147569
0.147337
0.147342
0.147508
0.147652
0.147767
0.1479
0.147839
0.147839
0.14781
0.147635
0.147547
0.147494
0.147467
0.147711
0.147587
0.147407
0.14717
0.147472
0.147631
0.147632
0.147441
0.147381
0.147606
0.147488
0.147481
0.147482
0.147405
0.14749
0.147647
0.147631
0.147533
0.147763
0.147647
0.147379
0.147612
0.147473
0.147549
0.147598
0.147418
0.147275
0.147452
0.14743
0.147519
0.147519
0.147664
0.14783
0.147607
0.147727
0.147744
0.147744
0.148064
0.147629
0.147616
0.147876
0.147744
0.147885
0.147967
0.147801
0.147738
0.147494
0.147511
0.147511
0.147582
0.147803
0.147654
0.147967
0.147753
0.148146
0.147986
0.147986
0.148001
0.148033
0.147909
0.147878
0.148114
0.148293
0.147958
0.147715
0.147824
0.147708
0.147528
0.147856
0.147647
0.147647
0.147571
0.147571
0.147693
0.147462
0.147413
0.147537
0.147597
0.147597
0.147798
0.147923
0.147758
0.147758
0.147656
0.147656
0.147618
0.147535
0.147807
0.148065
0.148174
0.147688
0.147737
0.148084
0.147788
0.147397
0.147628
19.6485
0.511525
0.294793
0.210097
0.177497
0.162732
0.154152
0.149884
0.149091
0.148425
0.148031
0.147889
0.147889
0.147974
0.147974
0.14765
0.14765
0.147525
0.147525
0.147684
0.147558
0.147663
0.147612
0.147616
0.147419
0.147678
0.147726
0.147919
0.147822
0.147898
0.147898
0.147709
0.147674
0.147584
0.147678
0.147518
0.147244
0.147211
0.147225
0.147262
0.14731
0.147481
0.147481
0.147273
0.14718
0.147562
0.147562
0.147623
0.147441
0.147615
0.147559
0.147553
0.147417
0.147414
0.147429
0.147808
0.147685
0.147575
0.147303
0.147411
0.147411
0.147693
0.147387
0.147616
0.147596
0.147464
0.147835
0.147583
0.147583
0.147539
0.147392
0.147435
0.147773
0.147673
0.147673
0.147875
0.147664
0.147578
0.14758
0.147805
0.147805
0.147649
0.147713
0.147545
0.147545
0.147716
0.147753
0.147712
0.147699
0.147719
0.14814
0.14796
0.148057
0.148271
0.14801
0.148107
0.148322
0.148339
0.147936
0.147874
0.14774
0.148005
0.147723
0.147833
0.147713
0.147669
0.147564
0.147697
0.147697
0.147497
0.147688
0.147843
0.14784
0.147957
0.14776
0.147958
0.147958
0.148083
0.147741
0.147663
0.147663
0.148077
0.147823
0.14739
0.147876
0.147599
0.147845
0.147756
0.147733
0.147626
0.147559
0.147571
19.6485
0.511332
0.295042
0.210757
0.177578
0.161774
0.154235
0.150235
0.149168
0.148685
0.14811
0.14776
0.148535
0.148049
0.148031
0.147742
0.14779
0.147536
0.147834
0.147653
0.147653
0.147605
0.147605
0.147569
0.147589
0.14745
0.147486
0.147684
0.147684
0.147873
0.147961
0.147792
0.147544
0.147567
0.147724
0.147706
0.147171
0.147169
0.147088
0.147398
0.147216
0.147434
0.147434
0.14762
0.14711
0.147668
0.147668
0.147923
0.147583
0.147546
0.147599
0.147765
0.147676
0.147461
0.147944
0.147927
0.147652
0.14757
0.14757
0.147324
0.147324
0.147461
0.147461
0.147498
0.147498
0.147584
0.147372
0.147473
0.147767
0.147492
0.147492
0.147424
0.147417
0.147644
0.14775
0.147906
0.147906
0.147945
0.147582
0.147731
0.147704
0.147941
0.147951
0.148103
0.148095
0.148298
0.147832
0.147674
0.147786
0.147867
0.14757
0.148039
0.148195
0.148113
0.1485
0.147847
0.148243
0.148087
0.147947
0.147947
0.147837
0.147584
0.147439
0.147649
0.1477
0.147881
0.147581
0.147525
0.14765
0.147559
0.147881
0.147481
0.147788
0.147611
0.147412
0.147846
0.147827
0.147811
0.147864
0.147634
0.147982
0.147625
0.148028
0.147568
0.147612
0.147448
0.147559
0.147733
0.147803
0.14764
0.14764
0.147608
19.6485
0.511773
0.29584
0.211911
0.177144
0.161593
0.153811
0.149566
0.149122
0.148331
0.148168
0.14777
0.147777
0.147857
0.14816
0.148338
0.147742
0.147471
0.147483
0.147701
0.147772
0.147723
0.147723
0.147753
0.147622
0.147635
0.14738
0.147616
0.147616
0.147865
0.147865
0.147827
0.147625
0.147494
0.147494
0.147237
0.147392
0.147353
0.147321
0.147321
0.147176
0.147358
0.147564
0.147268
0.147846
0.148066
0.147759
0.14769
0.14769
0.147587
0.147673
0.147728
0.147751
0.148096
0.147915
0.147574
0.147475
0.147761
0.147602
0.147471
0.147618
0.147739
0.147635
0.147495
0.147495
0.147469
0.147455
0.147507
0.147503
0.147548
0.14748
0.147617
0.147617
0.147753
0.14806
0.147895
0.14793
0.147962
0.147905
0.14774
0.147577
0.147823
0.148462
0.147931
0.148086
0.148572
0.147957
0.148055
0.148139
0.147923
0.147837
0.14791
0.14806
0.148269
0.148127
0.148263
0.148285
0.147552
0.147613
0.147616
0.147563
0.147556
0.147488
0.147604
0.147604
0.147604
0.147656
0.147546
0.147386
0.147563
0.147655
0.147612
0.147418
0.147419
0.147806
0.14846
0.148066
0.148035
0.147975
0.148064
0.147783
0.147971
0.148212
0.148076
0.147539
0.147543
0.147797
0.147838
0.147467
0.147653
0.147507
0.147514
19.6485
0.511046
0.294814
0.210879
0.177136
0.162645
0.153912
0.150992
0.149146
0.148845
0.14827
0.148051
0.14789
0.147932
0.147706
0.147691
0.147691
0.147958
0.147649
0.147425
0.147476
0.14765
0.147749
0.147644
0.147653
0.147611
0.147702
0.147666
0.148012
0.148078
0.147873
0.147653
0.14764
0.147609
0.147426
0.147314
0.147107
0.147095
0.147233
0.147062
0.147164
0.147333
0.147395
0.14727
0.147541
0.147609
0.14753
0.147655
0.147853
0.148129
0.147326
0.147581
0.147859
0.147776
0.147977
0.147677
0.147493
0.147711
0.147511
0.147356
0.14773
0.147432
0.147367
0.147386
0.147889
0.147705
0.147711
0.147687
0.147687
0.147684
0.14789
0.14789
0.147811
0.147898
0.147897
0.147823
0.148284
0.147986
0.148149
0.147863
0.147524
0.147853
0.147853
0.148007
0.148559
0.147935
0.147714
0.147985
0.147702
0.147699
0.147884
0.147639
0.147816
0.148035
0.148379
0.148232
0.147891
0.148101
0.147823
0.147359
0.147283
0.147324
0.147324
0.147659
0.147672
0.147532