/*--------------------------------*- C++ -*----------------------------------*\
| =========                 |                                                 |
| \\      /  F ield         | OpenFOAM: The Open Source CFD Toolbox           |
|  \\    /   O peration     | Version:  2206                                  |
|   \\  /    A nd           | Website:  www.openfoam.com                      |
|    \\/     M anipulation  |                                                 |
\*---------------------------------------------------------------------------*/
FoamFile
{
    version     2.0;
    format      ascii;
    arch        "LSB;label=32;scalar=64";
    class       volScalarField;
    location    "0.3";
    object      k;
}
// * * * * * * * * * * * * * * * * * * * * * * * * * * * * * * * * * * * * * //

dimensions      [0 2 -2 0 0 0 0];

internalField   nonuniform List<scalar> 
184485
(
8.70755e-08
8.67686e-08
7.67013e-08
8.59734e-08
7.55031e-08
7.41982e-08
8.58791e-08
8.56619e-08
7.57069e-08
8.66619e-08
7.58412e-08
7.44619e-08
8.51863e-08
8.65803e-08
7.4616e-08
8.59272e-08
7.46934e-08
8.72379e-08
7.40088e-08
7.56216e-08
7.57877e-08
8.52912e-08
8.60012e-08
8.5419e-08
8.68292e-08
7.40615e-08
7.59334e-08
7.58664e-08
8.53813e-08
7.43094e-08
8.54959e-08
7.39662e-08
7.45611e-08
8.52622e-08
8.68828e-08
7.39449e-08
7.428e-08
7.42216e-08
8.52242e-08
7.38415e-08
7.42873e-08
8.53199e-08
7.42988e-08
7.47214e-08
8.51498e-08
8.52086e-08
8.5597e-08
7.41529e-08
7.59752e-08
8.69514e-08
8.53006e-08
7.46315e-08
7.56496e-08
7.5882e-08
7.45334e-08
7.56357e-08
7.56871e-08
8.61982e-08
8.70164e-08
8.59395e-08
8.61431e-08
7.40483e-08
8.58906e-08
8.48892e-08
8.52232e-08
7.42792e-08
8.54122e-08
7.41376e-08
7.56861e-08
8.58433e-08
7.39575e-08
8.58329e-08
7.56559e-08
7.56566e-08
7.44111e-08
8.58571e-08
8.54163e-08
7.58784e-08
8.61472e-08
7.4028e-08
7.57998e-08
8.52203e-08
7.55067e-08
7.40912e-08
8.56687e-08
7.40003e-08
7.39524e-08
7.53075e-08
8.53208e-08
7.57054e-08
8.59454e-08
7.58662e-08
8.59869e-08
8.51011e-08
1.12278e-07
7.77704e-08
7.41933e-08
8.67126e-08
8.59112e-08
8.62829e-08
9.17673e-08
8.53781e-08
7.41233e-08
8.57355e-08
8.51527e-08
7.39238e-08
7.38424e-08
7.46819e-08
6.66311e-07
8.60363e-08
8.58432e-08
8.62926e-08
8.58054e-08
7.39856e-08
8.69566e-08
7.47531e-08
7.45975e-08
7.41392e-08
8.50736e-08
7.45564e-08
7.56091e-08
2.87046e-07
8.59371e-08
8.68739e-08
8.57394e-08
1.40435e-07
7.42471e-08
2.84391e-07
8.61913e-08
8.61424e-08
8.619e-08
8.57524e-08
8.52339e-08
7.5729e-08
8.56878e-08
7.48127e-08
7.39197e-08
8.70711e-08
7.41126e-08
8.57625e-08
8.55872e-08
8.58083e-08
8.57426e-08
7.57417e-08
8.62717e-08
8.60512e-08
7.5445e-08
8.62247e-08
7.60212e-08
7.55724e-08
7.61336e-08
8.71844e-08
8.5251e-08
7.40559e-08
8.56759e-08
8.52244e-08
7.60146e-08
7.46159e-08
8.57363e-08
7.45229e-08
8.52492e-08
8.60517e-08
8.7037e-08
7.59207e-08
7.58115e-08
7.59249e-08
7.56633e-08
7.42215e-08
7.46073e-08
6.59649e-07
1.392e-07
8.54776e-08
7.57343e-08
8.69377e-08
8.60434e-08
7.46653e-08
8.59355e-08
7.58406e-08
7.60073e-08
7.41845e-08
7.4186e-08
7.47133e-08
8.59109e-08
8.61217e-08
8.58068e-08
7.45794e-08
7.58165e-08
7.58014e-08
8.52768e-08
8.60974e-08
7.57886e-08
7.56274e-08
8.53941e-08
8.59254e-08
8.5899e-08
8.71017e-08
7.59643e-08
8.58397e-08
7.62046e-08
8.59235e-08
8.56573e-08
7.60227e-08
7.58308e-08
7.59447e-08
8.67944e-08
8.5744e-08
8.59128e-08
7.49516e-08
7.4709e-08
7.57955e-08
8.59662e-08
8.59287e-08
8.56611e-08
7.45747e-08
8.6007e-08
7.57415e-08
7.54977e-08
8.59483e-08
7.57463e-08
8.613e-08
7.5597e-08
8.59085e-08
7.53553e-08
7.46461e-08
8.68856e-08
7.47399e-08
8.61647e-08
8.5646e-08
8.55523e-08
7.58301e-08
8.5838e-08
8.72519e-08
8.59169e-08
8.59262e-08
8.6121e-08
7.58618e-08
7.59495e-08
8.70542e-08
8.61427e-08
1.12197e-07
8.56389e-08
7.60029e-08
7.59287e-08
8.61332e-08
8.58432e-08
7.58238e-08
7.45344e-08
7.57151e-08
7.57602e-08
7.59108e-08
7.57324e-08
8.69115e-08
8.58341e-08
8.7953e-08
7.61462e-08
8.5985e-08
7.45811e-08
8.61042e-08
8.72275e-08
7.60344e-08
8.69491e-08
8.73522e-08
7.57143e-08
7.60149e-08
8.60373e-08
7.61522e-08
8.58677e-08
8.57443e-08
8.51808e-08
7.43812e-08
8.59818e-08
7.54136e-08
7.56995e-08
8.63808e-08
8.54398e-08
7.55963e-08
7.38908e-08
8.61958e-08
8.56919e-08
8.59558e-08
7.57655e-08
7.58277e-08
8.57475e-08
7.55746e-08
8.60129e-08
8.69944e-08
7.57452e-08
7.58306e-08
8.57905e-08
7.59014e-08
8.49331e-08
8.58965e-08
8.57262e-08
7.57295e-08
7.58514e-08
7.57806e-08
9.15633e-08
8.54892e-08
7.60695e-08
8.61165e-08
7.55208e-08
7.57259e-08
8.5109e-08
7.62832e-08
7.38686e-08
7.58068e-08
8.60213e-08
7.59944e-08
7.63688e-08
8.5614e-08
7.57367e-08
7.39432e-08
7.55445e-08
7.58005e-08
7.57359e-08
8.55745e-08
7.56152e-08
8.6853e-08
8.59227e-08
8.66853e-08
8.62777e-08
9.1804e-08
7.6088e-08
8.60863e-08
8.58941e-08
7.48956e-08
7.57348e-08
8.58403e-08
7.74801e-08
2.86351e-07
7.53781e-08
8.58567e-08
7.42419e-08
7.57725e-08
8.57403e-08
8.6037e-08
7.46405e-08
7.57269e-08
7.57985e-08
7.47799e-08
7.45001e-08
7.53511e-08
7.57008e-08
8.56627e-08
7.58593e-08
8.58992e-08
7.55929e-08
7.5965e-08
8.68503e-08
8.59192e-08
7.60077e-08
8.58572e-08
7.57694e-08
8.61421e-08
8.58668e-08
7.56954e-08
8.60308e-08
8.63439e-08
7.56809e-08
7.47828e-08
7.46026e-08
7.58587e-08
7.46111e-08
8.55584e-08
7.59811e-08
7.56751e-08
7.60167e-08
7.40811e-08
8.69035e-08
7.47845e-08
7.56699e-08
8.52726e-08
8.59946e-08
8.62516e-08
7.58638e-08
8.69152e-08
8.56675e-08
8.62166e-08
8.5694e-08
8.58205e-08
7.57795e-08
6.63994e-07
7.57628e-08
8.52189e-08
7.5744e-08
7.40688e-08
7.58287e-08
8.7144e-08
8.54293e-08
8.57697e-08
8.565e-08
8.69792e-08
7.57807e-08
7.4557e-08
7.65534e-08
8.63948e-08
8.52193e-08
8.6974e-08
1.39498e-07
7.48129e-08
7.4587e-08
8.68995e-08
8.70823e-08
7.59687e-08
7.61274e-08
8.68765e-08
8.61887e-08
8.55413e-08
8.5137e-08
7.41713e-08
7.59285e-08
7.59402e-08
8.55595e-08
7.40544e-08
8.70535e-08
7.3884e-08
7.38249e-08
7.47884e-08
7.48212e-08
7.45645e-08
8.51169e-08
7.38962e-08
7.40853e-08
7.6166e-08
8.51624e-08
8.60939e-08
8.60175e-08
7.58864e-08
7.54118e-08
8.57111e-08
7.59298e-08
7.78436e-08
8.54474e-08
7.59569e-08
8.52972e-08
7.47555e-08
7.40158e-08
7.55554e-08
8.57595e-08
8.69866e-08
7.40187e-08
1.14282e-07
7.61092e-08
8.56219e-08
1.12516e-07
8.70864e-08
8.69691e-08
8.58735e-08
1.12411e-07
7.41081e-08
8.52703e-08
8.58901e-08
7.56506e-08
7.6328e-08
8.68624e-08
7.49683e-08
7.48039e-08
7.45571e-08
7.48062e-08
8.71663e-08
8.60049e-08
8.71315e-08
8.5258e-08
7.55231e-08
7.47245e-08
8.58089e-08
8.59986e-08
7.60186e-08
8.51761e-08
8.59146e-08
7.57915e-08
7.59593e-08
7.53826e-08
8.70702e-08
7.59323e-08
8.57624e-08
8.52355e-08
8.51016e-08
7.38512e-08
8.52068e-08
7.40691e-08
8.70244e-08
8.54635e-08
8.7035e-08
8.52721e-08
8.51683e-08
7.6065e-08
8.5845e-08
8.5952e-08
7.56103e-08
8.6989e-08
7.58842e-08
7.46043e-08
8.70439e-08
7.47331e-08
8.71928e-08
7.58124e-08
8.60119e-08
7.42319e-08
8.56111e-08
7.41759e-08
7.46184e-08
8.61343e-08
8.69203e-08
7.58555e-08
8.5624e-08
7.55558e-08
8.52554e-08
7.46249e-08
8.71331e-08
8.57138e-08
8.58453e-08
9.24173e-08
8.61027e-08
7.62202e-08
7.59721e-08
8.59007e-08
7.57808e-08
8.59359e-08
7.58429e-08
8.5326e-08
7.56808e-08
7.57335e-08
7.47198e-08
8.60563e-08
7.41512e-08
7.5627e-08
7.48876e-08
7.43218e-08
7.49992e-08
8.62098e-08
7.57878e-08
7.5875e-08
8.63171e-08
8.57908e-08
7.43501e-08
7.40906e-08
2.85728e-07
8.53426e-08
8.57472e-08
7.35334e-08
7.41643e-08
8.51937e-08
7.47532e-08
8.51285e-08
7.39304e-08
8.59551e-08
7.582e-08
8.552e-08
8.7104e-08
7.48553e-08
8.60416e-08
7.43985e-08
6.67454e-07
8.54389e-08
8.51934e-08
7.46044e-08
7.47199e-08
8.70602e-08
7.56754e-08
7.60215e-08
8.51749e-08
8.69473e-08
1.40223e-07
7.44983e-08
8.70166e-08
7.49796e-08
8.68872e-08
8.52008e-08
8.50656e-08
8.56234e-08
9.1633e-08
8.46259e-08
8.7062e-08
8.58598e-08
8.59056e-08
8.70733e-08
7.59478e-08
7.48449e-08
7.43136e-08
8.56621e-08
8.73018e-08
8.59019e-08
7.59064e-08
8.59182e-08
8.52416e-08
7.47135e-08
8.68799e-08
7.54416e-08
8.59972e-08
8.71992e-08
7.56102e-08
6.67442e-07
2.87332e-07
1.39916e-07
8.64684e-08
8.61886e-08
8.63745e-08
8.60762e-08
8.58935e-08
8.61365e-08
7.58836e-08
7.60808e-08
8.60985e-08
7.62253e-08
7.56913e-08
8.69208e-08
8.58235e-08
7.60183e-08
8.5889e-08
8.59065e-08
8.59033e-08
7.5846e-08
8.58829e-08
7.57957e-08
8.56842e-08
8.57492e-08
7.58373e-08
8.59903e-08
8.57353e-08
7.56596e-08
7.53345e-08
7.56178e-08
8.5831e-08
7.58263e-08
8.56923e-08
8.5869e-08
8.5984e-08
7.60076e-08
8.62174e-08
8.61267e-08
7.61289e-08
7.47108e-08
8.61857e-08
7.61708e-08
8.58028e-08
7.57154e-08
7.58252e-08
8.61279e-08
8.60236e-08
7.60073e-08
8.58239e-08
8.71854e-08
7.56127e-08
7.6135e-08
8.59439e-08
7.599e-08
8.61092e-08
7.58069e-08
7.59112e-08
8.59182e-08
7.5829e-08
7.61454e-08
8.58568e-08
8.60192e-08
7.58489e-08
7.59226e-08
8.58627e-08
7.54702e-08
7.60096e-08
6.67308e-07
2.87169e-07
1.39762e-07
1.12344e-07
8.63153e-08
9.18249e-08
7.75827e-08
8.65817e-08
7.60101e-08
8.61524e-08
7.61492e-08
8.61452e-08
7.60185e-08
8.635e-08
7.60217e-08
8.61663e-08
7.62715e-08
8.59246e-08
7.57865e-08
8.59751e-08
7.58671e-08
8.59445e-08
7.59145e-08
8.57453e-08
7.56505e-08
8.6002e-08
7.55245e-08
8.59679e-08
7.60063e-08
8.59201e-08
7.62246e-08
8.59409e-08
7.5527e-08
8.57928e-08
7.57268e-08
8.5788e-08
7.5534e-08
8.58392e-08
7.60446e-08
8.59447e-08
7.58339e-08
8.58442e-08
7.55452e-08
8.58251e-08
7.58046e-08
8.5846e-08
7.56807e-08
8.5717e-08
7.56574e-08
8.59021e-08
7.55974e-08
8.57061e-08
7.57533e-08
8.58122e-08
7.586e-08
8.5935e-08
7.55586e-08
8.56784e-08
7.55421e-08
8.56267e-08
7.55973e-08
8.5844e-08
7.59128e-08
8.59477e-08
7.56899e-08
8.56947e-08
7.56655e-08
8.58171e-08
7.56986e-08
8.60027e-08
7.58264e-08
8.60111e-08
7.61471e-08
8.60048e-08
7.59192e-08
8.62467e-08
7.60687e-08
8.62362e-08
7.61488e-08
8.63166e-08
7.62928e-08
8.60946e-08
7.58006e-08
8.59656e-08
7.57211e-08
8.57281e-08
7.58168e-08
8.61349e-08
7.59186e-08
8.5813e-08
7.58401e-08
8.58956e-08
7.60162e-08
8.60017e-08
7.56295e-08
8.59054e-08
7.57805e-08
8.61371e-08
7.59592e-08
8.60625e-08
7.60178e-08
8.60317e-08
7.59789e-08
8.61053e-08
7.57792e-08
8.58662e-08
7.57373e-08
8.58236e-08
7.58517e-08
8.60135e-08
7.5763e-08
8.57976e-08
7.57361e-08
8.61231e-08
7.6034e-08
8.59958e-08
7.5797e-08
8.61309e-08
7.61422e-08
8.59278e-08
7.56724e-08
8.60919e-08
7.59908e-08
8.57948e-08
7.58013e-08
8.59228e-08
7.58614e-08
8.61483e-08
7.55848e-08
8.58137e-08
7.58754e-08
8.60671e-08
6.67311e-07
2.87009e-07
1.39415e-07
1.12258e-07
8.65454e-08
9.1893e-08
7.76507e-08
8.69324e-08
7.60884e-08
8.62736e-08
7.62945e-08
8.61723e-08
7.60533e-08
8.63833e-08
7.61285e-08
8.62051e-08
7.60947e-08
8.60126e-08
7.58729e-08
8.58565e-08
7.57715e-08
8.58747e-08
7.57459e-08
8.57976e-08
7.57563e-08
8.58509e-08
7.56187e-08
8.60194e-08
7.57804e-08
8.59033e-08
7.61369e-08
8.58757e-08
7.56151e-08
8.58051e-08
7.58195e-08
8.59869e-08
7.5707e-08
8.5833e-08
7.58699e-08
8.59538e-08
7.60478e-08
8.57162e-08
7.53922e-08
8.5835e-08
7.58203e-08
8.57531e-08
7.56151e-08
8.5574e-08
7.56376e-08
8.58447e-08
7.56123e-08
8.58401e-08
7.57147e-08
8.57781e-08
7.58974e-08
8.59055e-08
7.57685e-08
8.59795e-08
7.56584e-08
8.5802e-08
7.57346e-08
8.56835e-08
7.57113e-08
8.59262e-08
7.58235e-08
8.57758e-08
7.55483e-08
8.57929e-08
7.58788e-08
8.59681e-08
7.56925e-08
8.60046e-08
7.60332e-08
8.60742e-08
7.60132e-08
8.62046e-08
7.6089e-08
8.62792e-08
7.61613e-08
8.63341e-08
7.63926e-08
8.59762e-08
7.58198e-08
8.61315e-08
7.57304e-08
8.58999e-08
7.59332e-08
8.60218e-08
7.59645e-08
8.61221e-08
7.58001e-08
8.58149e-08
7.60008e-08
8.58022e-08
7.56906e-08
8.5888e-08
7.57514e-08
8.59935e-08
7.60314e-08
8.60198e-08
7.58692e-08
8.60737e-08
7.60941e-08
8.60361e-08
7.59061e-08
8.59666e-08
7.56685e-08
8.59088e-08
7.59278e-08
8.59825e-08
7.59207e-08
8.59221e-08
7.57471e-08
8.60606e-08
7.60155e-08
8.60134e-08
7.57677e-08
8.593e-08
7.61021e-08
8.59903e-08
7.56801e-08
8.60202e-08
7.59025e-08
8.59517e-08
7.58345e-08
8.58083e-08
7.58584e-08
8.60052e-08
7.56716e-08
8.58046e-08
7.57285e-08
8.60532e-08
6.67894e-07
2.87134e-07
1.38889e-07
1.12286e-07
8.62384e-08
9.14151e-08
7.74923e-08
8.67654e-08
7.61953e-08
8.6511e-08
7.64885e-08
8.62421e-08
7.6064e-08
8.6432e-08
7.62396e-08
8.61846e-08
7.59246e-08
8.60236e-08
7.58455e-08
8.59066e-08
7.57625e-08
8.57459e-08
7.56922e-08
8.58219e-08
7.57893e-08
8.59381e-08
7.59001e-08
8.59369e-08
7.56391e-08
8.59098e-08
7.60938e-08
8.59315e-08
7.56953e-08
8.58433e-08
7.58027e-08
8.58877e-08
7.57298e-08
8.58492e-08
7.56946e-08
8.58704e-08
7.60591e-08
8.56988e-08
7.53115e-08
8.5828e-08
7.55869e-08
8.57794e-08
7.56496e-08
8.56185e-08
7.56117e-08
8.55952e-08
7.55288e-08
8.58147e-08
7.56661e-08
8.59464e-08
7.60293e-08
8.58722e-08
7.59543e-08
8.58661e-08
7.56226e-08
8.60443e-08
7.58004e-08
8.56169e-08
7.55738e-08
8.56922e-08
7.58979e-08
8.57165e-08
7.53887e-08
8.57937e-08
7.58959e-08
8.59633e-08
7.59419e-08
8.60013e-08
7.57998e-08
8.61411e-08
7.60947e-08
8.62217e-08
7.62673e-08
8.62539e-08
7.62416e-08
8.62573e-08
7.60854e-08
8.59874e-08
7.59315e-08
8.60017e-08
7.57315e-08
8.607e-08
7.58099e-08
8.59964e-08
7.61011e-08
8.60498e-08
7.57225e-08
8.59594e-08
7.60212e-08
8.57728e-08
7.56684e-08
8.58595e-08
7.55743e-08
8.57851e-08
7.59119e-08
8.57342e-08
7.57194e-08
8.60703e-08
7.60594e-08
8.60454e-08
7.5943e-08
8.58806e-08
7.56416e-08
8.59229e-08
7.58873e-08
8.59119e-08
7.59338e-08
8.59032e-08
7.56554e-08
8.5957e-08
7.59717e-08
8.6101e-08
7.57504e-08
8.58028e-08
7.60174e-08
8.60467e-08
7.58101e-08
8.59075e-08
7.59522e-08
8.60717e-08
7.58648e-08
8.59409e-08
7.58573e-08
8.58328e-08
7.57168e-08
8.5952e-08
7.55354e-08
8.57653e-08
6.67477e-07
2.86572e-07
1.39679e-07
1.12824e-07
8.61024e-08
9.17426e-08
7.77484e-08
8.67029e-08
7.63748e-08
8.67001e-08
7.6478e-08
8.62311e-08
7.60321e-08
8.63143e-08
7.62434e-08
8.62728e-08
7.59737e-08
8.59947e-08
7.58734e-08
8.59092e-08
7.57517e-08
8.5876e-08
7.57751e-08
8.56776e-08
7.55932e-08
8.59671e-08
7.59531e-08
8.59726e-08
7.56186e-08
8.57844e-08
7.58428e-08
8.5879e-08
7.5761e-08
8.58459e-08
7.57097e-08
8.58755e-08
7.57173e-08
8.58874e-08
7.56041e-08
8.57163e-08
7.5906e-08
8.56925e-08
7.5423e-08
8.57735e-08
7.57212e-08
8.57891e-08
7.56002e-08
8.57944e-08
7.55469e-08
8.57027e-08
7.56686e-08
8.5713e-08
7.53791e-08
8.60056e-08
7.60932e-08
8.6151e-08
7.61327e-08
8.57705e-08
7.55276e-08
8.6004e-08
7.57575e-08
8.56638e-08
7.55939e-08
8.56297e-08
7.57275e-08
8.56357e-08
7.53455e-08
8.56763e-08
7.57854e-08
8.60369e-08
7.61186e-08
8.58834e-08
7.5692e-08
8.61927e-08
7.59563e-08
8.61031e-08
7.60789e-08
8.62697e-08
7.63895e-08
8.60641e-08
7.57987e-08
8.59739e-08
7.58712e-08
8.5774e-08
7.57764e-08
8.60626e-08
7.56782e-08
8.60227e-08
7.62162e-08
8.59571e-08
7.56762e-08
8.59457e-08
7.57384e-08
8.58393e-08
7.57717e-08
8.58619e-08
7.53887e-08
8.57257e-08
7.59307e-08
8.58314e-08
7.57262e-08
8.60135e-08
7.60595e-08
8.61711e-08
7.59659e-08
8.58816e-08
7.5652e-08
8.59393e-08
7.59645e-08
8.58583e-08
7.58228e-08
8.57573e-08
7.55462e-08
8.5883e-08
7.5935e-08
8.60175e-08
7.58626e-08
8.59935e-08
7.5986e-08
8.59503e-08
7.57819e-08
8.60975e-08
7.6075e-08
8.58654e-08
7.58288e-08
8.60964e-08
7.5727e-08
8.57137e-08
7.57763e-08
8.59069e-08
7.55567e-08
8.58279e-08
6.67253e-07
2.86908e-07
1.39918e-07
1.1243e-07
8.58873e-08
9.16333e-08
7.74983e-08
8.65264e-08
7.64279e-08
8.65676e-08
7.64141e-08
8.63635e-08
7.59747e-08
8.61595e-08
7.61441e-08
8.6321e-08
7.60705e-08
8.59696e-08
7.58728e-08
8.59402e-08
7.57873e-08
8.60163e-08
7.58141e-08
8.56994e-08
7.55278e-08
8.57266e-08
7.59531e-08
8.60869e-08
7.57573e-08
8.58586e-08
7.56985e-08
8.58335e-08
7.57284e-08
8.57644e-08
7.5684e-08
8.58258e-08
7.57262e-08
8.59479e-08
7.56057e-08
8.57822e-08
7.59658e-08
8.5719e-08
7.54132e-08
8.57433e-08
7.57878e-08
8.58541e-08
7.58788e-08
8.58061e-08
7.55294e-08
8.58878e-08
7.58568e-08
8.57725e-08
7.55551e-08
8.59198e-08
7.58818e-08
8.61197e-08
7.61303e-08
8.58685e-08
7.56814e-08
8.58246e-08
7.56287e-08
8.57224e-08
7.54266e-08
8.5534e-08
7.57132e-08
8.56982e-08
7.53396e-08
8.56969e-08
7.56989e-08
8.60368e-08
7.62342e-08
8.60467e-08
7.56461e-08
8.61557e-08
7.59975e-08
8.61088e-08
7.60495e-08
8.63203e-08
7.64171e-08
8.60985e-08
7.58286e-08
8.59901e-08
7.58295e-08
8.57928e-08
7.58098e-08
8.59451e-08
7.57761e-08
8.60958e-08
7.61532e-08
8.61002e-08
7.58814e-08
8.58374e-08
7.56756e-08
8.58667e-08
7.58284e-08
8.58317e-08
7.56075e-08
8.57962e-08
7.58772e-08
8.60765e-08
7.58776e-08
8.58675e-08
7.58824e-08
8.61245e-08
7.6056e-08
8.59415e-08
7.56559e-08
8.59028e-08
7.57901e-08
8.59037e-08
7.58123e-08
8.57055e-08
7.55514e-08
8.5766e-08
7.58524e-08
8.59238e-08
7.59069e-08
8.61369e-08
7.58585e-08
8.58846e-08
7.57328e-08
8.6136e-08
7.59471e-08
8.58726e-08
7.59672e-08
8.59999e-08
7.56558e-08
8.57902e-08
7.574e-08
8.58332e-08
7.57412e-08
8.59425e-08
6.67457e-07
2.87223e-07
1.39752e-07
1.12289e-07
8.59043e-08
9.17349e-08
7.76744e-08
8.67924e-08
7.65585e-08
8.65335e-08
7.64259e-08
8.63903e-08
7.59748e-08
8.61752e-08
7.60893e-08
8.63331e-08
7.62634e-08
8.60376e-08
7.58123e-08
8.58907e-08
7.57843e-08
8.58587e-08
7.57235e-08
8.59771e-08
7.5464e-08
8.5634e-08
7.59019e-08
8.59505e-08
7.59829e-08
8.59283e-08
7.5699e-08
8.58919e-08
7.5667e-08
8.57725e-08
7.56015e-08
8.58739e-08
7.59443e-08
8.60235e-08
7.5613e-08
8.58903e-08
7.6005e-08
8.57498e-08
7.54715e-08
8.56764e-08
7.56277e-08
8.60147e-08
7.6147e-08
8.56558e-08
7.54493e-08
8.59181e-08
7.58094e-08
8.58844e-08
7.55277e-08
8.57503e-08
7.58768e-08
8.59106e-08
7.58848e-08
8.58577e-08
7.56769e-08
8.56998e-08
7.56831e-08
8.55348e-08
7.53938e-08
8.57147e-08
7.58336e-08
8.57107e-08
7.5411e-08
8.58653e-08
7.55513e-08
8.58952e-08
7.63258e-08
8.61574e-08
7.58014e-08
8.61443e-08
7.59096e-08
8.62291e-08
7.61499e-08
8.62197e-08
7.6225e-08
8.61961e-08
7.60118e-08
8.58967e-08
7.57548e-08
8.59143e-08
7.57077e-08
8.58717e-08
7.58461e-08
8.59575e-08
7.59445e-08
8.60587e-08
7.59773e-08
8.59617e-08
7.57496e-08
8.58727e-08
7.57553e-08
8.59274e-08
7.57561e-08
8.58051e-08
7.57602e-08
8.61146e-08
7.59907e-08
8.60281e-08
7.5902e-08
8.59853e-08
7.60044e-08
8.60093e-08
7.57871e-08
8.57852e-08
7.57315e-08
8.60147e-08
7.58472e-08
8.58238e-08
7.55622e-08
8.57877e-08
7.57647e-08
8.59732e-08
7.60074e-08
8.6038e-08
7.58516e-08
8.5865e-08
7.56633e-08
8.58447e-08
7.58751e-08
8.60335e-08
7.60857e-08
8.60296e-08
7.58803e-08
8.58616e-08
7.56488e-08
8.5818e-08
7.57468e-08
8.58702e-08
6.67558e-07
2.87204e-07
1.40271e-07
1.12636e-07
8.5741e-08
9.17571e-08
7.77661e-08
8.70303e-08
7.63959e-08
8.63433e-08
7.63426e-08
8.63235e-08
7.61216e-08
8.61567e-08
7.5966e-08
8.62604e-08
7.6325e-08
8.62055e-08
7.59202e-08
8.59108e-08
7.57757e-08
8.57599e-08
7.57309e-08
8.58968e-08
7.55171e-08
8.58288e-08
7.58317e-08
8.59659e-08
7.60787e-08
8.59894e-08
7.56996e-08
8.59347e-08
7.58933e-08
8.5636e-08
7.53026e-08
8.58927e-08
7.60225e-08
8.59099e-08
7.58138e-08
8.60248e-08
7.57572e-08
8.58013e-08
7.55159e-08
8.57174e-08
7.56341e-08
8.60532e-08
7.61683e-08
8.58028e-08
7.54588e-08
8.57102e-08
7.57695e-08
8.58821e-08
7.54993e-08
8.58243e-08
7.59413e-08
8.58716e-08
7.57618e-08
8.57819e-08
7.55133e-08
8.57826e-08
7.57186e-08
8.55877e-08
7.54473e-08
8.56925e-08
7.57335e-08
8.56147e-08
7.55786e-08
8.60101e-08
7.56251e-08
8.60148e-08
7.63307e-08
8.62368e-08
7.6091e-08
8.6132e-08
7.5777e-08
8.62724e-08
7.61165e-08
8.61146e-08
7.61471e-08
8.61774e-08
7.60425e-08
8.59522e-08
7.58706e-08
8.5838e-08
7.56314e-08
8.59536e-08
7.58454e-08
8.6058e-08
7.59286e-08
8.59256e-08
7.5992e-08
8.6162e-08
7.5904e-08
8.58111e-08
7.5705e-08
8.57715e-08
7.57596e-08
8.5974e-08
7.57813e-08
8.57796e-08
7.58655e-08
8.62199e-08
7.59933e-08
8.60243e-08
7.59971e-08
8.59759e-08
7.5789e-08
8.58477e-08
7.57804e-08
8.59907e-08
7.5984e-08
8.58691e-08
7.55832e-08
8.58353e-08
7.56463e-08
8.60947e-08
7.6052e-08
8.59116e-08
7.58503e-08
8.59631e-08
7.55568e-08
8.56713e-08
7.574e-08
8.59313e-08
7.58956e-08
8.59734e-08
7.59693e-08
8.59272e-08
7.57742e-08
8.58134e-08
7.57098e-08
8.59189e-08
6.66942e-07
2.86914e-07
1.40872e-07
1.12776e-07
8.5649e-08
9.18187e-08
7.79024e-08
8.71489e-08
7.64453e-08
8.6155e-08
7.60239e-08
8.61657e-08
7.60699e-08
8.61956e-08
7.6029e-08
8.61193e-08
7.61521e-08
8.62977e-08
7.61404e-08
8.59667e-08
7.56998e-08
8.57569e-08
7.57176e-08
8.56926e-08
7.56143e-08
8.59781e-08
7.58056e-08
8.60105e-08
7.61573e-08
8.59518e-08
7.56728e-08
8.59511e-08
7.5946e-08
8.56842e-08
7.54069e-08
8.5875e-08
7.58813e-08
8.5892e-08
7.59586e-08
8.60638e-08
7.59004e-08
8.59396e-08
7.56119e-08
8.57386e-08
7.54557e-08
8.57439e-08
7.6066e-08
8.598e-08
7.56118e-08
8.58162e-08
7.57714e-08
8.56456e-08
7.54437e-08
8.59661e-08
7.58819e-08
8.58836e-08
7.57001e-08
8.56487e-08
7.54582e-08
8.55551e-08
7.56328e-08
8.57622e-08
7.56081e-08
8.58566e-08
7.57464e-08
8.57138e-08
7.56443e-08
8.59443e-08
7.57881e-08
8.59555e-08
7.6035e-08
8.6199e-08
7.63167e-08
8.61449e-08
7.57933e-08
8.61413e-08
7.5926e-08
8.61429e-08
7.60718e-08
8.59411e-08
7.60322e-08
8.62121e-08
7.61145e-08
8.58968e-08
7.57209e-08
8.59632e-08
7.57168e-08
8.60954e-08
7.57859e-08
8.57652e-08
7.58741e-08
8.61928e-08
7.60124e-08
8.58697e-08
7.56981e-08
8.56536e-08
7.55298e-08
8.60753e-08
7.59114e-08
8.58712e-08
7.59483e-08
8.61132e-08
7.591e-08
8.61736e-08
7.6154e-08
8.58579e-08
7.57488e-08
8.5954e-08
7.56943e-08
8.59273e-08
7.60048e-08
8.58602e-08
7.57129e-08
8.58487e-08
7.56269e-08
8.59338e-08
7.58166e-08
8.58979e-08
7.59688e-08
8.58697e-08
7.56016e-08
8.58966e-08
7.57786e-08
8.59332e-08
7.57678e-08
8.58803e-08
7.5859e-08
8.5959e-08
7.60096e-08
8.58643e-08
7.56894e-08
8.59382e-08
6.67488e-07
2.87047e-07
1.39556e-07
1.1236e-07
8.6061e-08
9.16611e-08
7.77776e-08
8.71682e-08
7.64854e-08
8.64572e-08
7.62195e-08
8.62887e-08
7.61308e-08
8.64043e-08
7.62486e-08
8.59857e-08
7.585e-08
8.61539e-08
7.62834e-08
8.5983e-08
7.55981e-08
8.57687e-08
7.57078e-08
8.55267e-08
7.54832e-08
8.58236e-08
7.57979e-08
8.60278e-08
7.60082e-08
8.59093e-08
7.58009e-08
8.57555e-08
7.57359e-08
8.58194e-08
7.55724e-08
8.58688e-08
7.5874e-08
8.59216e-08
7.59398e-08
8.58174e-08
7.57147e-08
8.60122e-08
7.58596e-08
8.58372e-08
7.54244e-08
8.56297e-08
7.58336e-08
8.58437e-08
7.56716e-08
8.59104e-08
7.57079e-08
8.56756e-08
7.55776e-08
8.58654e-08
7.59618e-08
8.60514e-08
7.56559e-08
8.5821e-08
7.5631e-08
8.56069e-08
7.55597e-08
8.56602e-08
7.56148e-08
8.59976e-08
7.59165e-08
8.58715e-08
7.56174e-08
8.58692e-08
7.59417e-08
8.60034e-08
7.58837e-08
8.61148e-08
7.62348e-08
8.61372e-08
7.58063e-08
8.59765e-08
7.58008e-08
8.6216e-08
7.59871e-08
8.59674e-08
7.60293e-08
8.60341e-08
7.60657e-08
8.6039e-08
7.58505e-08
8.5853e-08
7.57497e-08
8.60428e-08
7.58354e-08
8.59405e-08
7.58479e-08
8.61115e-08
7.60681e-08
8.60796e-08
7.59377e-08
8.5719e-08
7.5455e-08
8.57582e-08
7.58117e-08
8.61534e-08
7.61083e-08
8.58681e-08
7.57979e-08
8.62918e-08
7.60676e-08
8.58319e-08
7.58078e-08
8.58524e-08
7.56075e-08
8.58603e-08
7.58185e-08
8.58494e-08
7.58006e-08
8.59801e-08
7.5748e-08
8.58487e-08
7.56792e-08
8.59163e-08
7.59393e-08
8.58305e-08
7.58002e-08
8.60446e-08
7.58893e-08
8.60869e-08
7.57708e-08
8.58817e-08
7.56968e-08
8.58366e-08
7.60036e-08
8.60094e-08
7.58804e-08
8.59726e-08
6.67678e-07
2.8649e-07
1.39128e-07
1.12457e-07
8.64604e-08
9.19243e-08
7.77471e-08
8.67947e-08
7.63493e-08
8.6656e-08
7.63173e-08
8.61935e-08
7.6086e-08
8.63463e-08
7.62057e-08
8.59935e-08
7.56202e-08
8.5986e-08
7.6236e-08
8.59645e-08
7.56169e-08
8.59284e-08
7.57484e-08
8.57076e-08
7.54761e-08
8.57464e-08
7.58614e-08
8.59679e-08
7.57841e-08
8.59584e-08
7.58029e-08
8.57331e-08
7.57743e-08
8.57263e-08
7.55168e-08
8.58105e-08
7.57301e-08
8.611e-08
7.60938e-08
8.57102e-08
7.54639e-08
8.56387e-08
7.58412e-08
8.58499e-08
7.56169e-08
8.58688e-08
7.56167e-08
8.57646e-08
7.58359e-08
8.59459e-08
7.57382e-08
8.5837e-08
7.55972e-08
8.58265e-08
7.59961e-08
8.59053e-08
7.57228e-08
8.59313e-08
7.56783e-08
8.58963e-08
7.57536e-08
8.56148e-08
7.56341e-08
8.59115e-08
7.5928e-08
8.59351e-08
7.56932e-08
8.58822e-08
7.60247e-08
8.60854e-08
7.58725e-08
8.60353e-08
7.61601e-08
8.60778e-08
7.57982e-08
8.60199e-08
7.57783e-08
8.59167e-08
7.59839e-08
8.62597e-08
7.59385e-08
8.5898e-08
7.59864e-08
8.61589e-08
7.59962e-08
8.59176e-08
7.57556e-08
8.59816e-08
7.58934e-08
8.59464e-08
7.56941e-08
8.59479e-08
7.59539e-08
8.61728e-08
7.60524e-08
8.6059e-08
7.56005e-08
8.55889e-08
7.57134e-08
8.61575e-08
7.61143e-08
8.60335e-08
7.59317e-08
8.60399e-08
7.59471e-08
8.604e-08
7.5836e-08
8.58678e-08
7.57468e-08
8.57891e-08
7.5713e-08
8.57324e-08
7.57735e-08
8.59622e-08
7.57268e-08
8.60485e-08
7.5886e-08
8.60346e-08
7.58911e-08
8.58521e-08
7.57433e-08
8.57954e-08
7.59071e-08
8.615e-08
7.59672e-08
8.61701e-08
7.57869e-08
8.57117e-08
7.57562e-08
8.59785e-08
7.59669e-08
8.59103e-08
6.67636e-07
2.86345e-07
1.38471e-07
1.12202e-07
8.64978e-08
9.20939e-08
7.79845e-08
8.68569e-08
7.6278e-08
8.6625e-08
7.61681e-08
8.61619e-08
7.61905e-08
8.62154e-08
7.61626e-08
8.59688e-08
7.5463e-08
8.59967e-08
7.61554e-08
8.59551e-08
7.58628e-08
8.58605e-08
7.56626e-08
8.59104e-08
7.54954e-08
8.58291e-08
7.5931e-08
8.60279e-08
7.59627e-08
8.59348e-08
7.57016e-08
8.59428e-08
7.58347e-08
8.57098e-08
7.55506e-08
8.56077e-08
7.55276e-08
8.59811e-08
7.6129e-08
8.60129e-08
7.56263e-08
8.55196e-08
7.55429e-08
8.5702e-08
7.58747e-08
8.58624e-08
7.55926e-08
8.56841e-08
7.56474e-08
8.58275e-08
7.58173e-08
8.5856e-08
7.56439e-08
8.58985e-08
7.58823e-08
8.59072e-08
7.58772e-08
8.57478e-08
7.55851e-08
8.58506e-08
7.5805e-08
8.57837e-08
7.56801e-08
8.5851e-08
7.58386e-08
8.5978e-08
7.57287e-08
8.58279e-08
7.59602e-08
8.6055e-08
7.59028e-08
8.59872e-08
7.59734e-08
8.60043e-08
7.58192e-08
8.61288e-08
7.58198e-08
8.57374e-08
7.59386e-08
8.61273e-08
7.58625e-08
8.5924e-08
7.59157e-08
8.60688e-08
7.60791e-08
8.60431e-08
7.57761e-08
8.58892e-08
7.59083e-08
8.5895e-08
7.5635e-08
8.58824e-08
7.58781e-08
8.61094e-08
7.61317e-08
8.60994e-08
7.57884e-08
8.58957e-08
7.58383e-08
8.59097e-08
7.59923e-08
8.62591e-08
7.60354e-08
8.5982e-08
7.59e-08
8.58894e-08
7.56259e-08
8.58111e-08
7.56623e-08
8.58361e-08
7.57143e-08
8.57727e-08
7.58998e-08
8.57437e-08
7.56784e-08
8.60119e-08
7.58808e-08
8.61143e-08
7.59541e-08
8.60073e-08
7.57141e-08
8.58537e-08
7.58965e-08
8.58434e-08
7.59202e-08
8.62965e-08
7.6025e-08
8.58918e-08
7.57287e-08
8.58562e-08
7.58203e-08
8.59492e-08
6.67842e-07
2.86328e-07
1.38336e-07
1.1215e-07
8.6364e-08
9.19328e-08
7.81079e-08
8.69519e-08
7.61126e-08
8.65614e-08
7.61776e-08
8.61754e-08
7.60936e-08
8.60729e-08
7.61794e-08
8.59012e-08
7.54673e-08
8.58079e-08
7.5889e-08
8.61237e-08
7.61616e-08
8.58207e-08
7.5659e-08
8.59846e-08
7.54998e-08
8.57401e-08
7.58825e-08
8.61977e-08
7.62188e-08
8.57704e-08
7.56603e-08
8.60655e-08
7.58038e-08
8.57761e-08
7.55571e-08
8.57103e-08
7.54506e-08
8.56844e-08
7.59779e-08
8.61283e-08
7.57434e-08
8.55637e-08
7.52443e-08
8.55072e-08
7.58378e-08
8.57389e-08
7.56705e-08
8.58674e-08
7.55475e-08
8.56948e-08
7.57635e-08
8.58473e-08
7.58358e-08
8.59345e-08
7.56995e-08
8.59032e-08
7.59156e-08
8.57993e-08
7.56263e-08
8.56915e-08
7.56907e-08
8.58963e-08
7.57256e-08
8.58595e-08
7.58488e-08
8.59419e-08
7.5684e-08
8.58729e-08
7.59151e-08
8.59828e-08
7.59245e-08
8.60731e-08
7.58658e-08
8.59778e-08
7.58766e-08
8.59737e-08
7.5905e-08
8.58954e-08
7.58068e-08
8.59861e-08
7.59286e-08
8.6198e-08
7.58568e-08
8.59742e-08
7.6089e-08
8.60538e-08
7.58176e-08
8.58231e-08
7.58543e-08
8.58829e-08
7.56079e-08
8.59905e-08
7.58974e-08
8.61666e-08
7.62156e-08
8.59379e-08
7.5806e-08
8.61237e-08
7.5899e-08
8.58789e-08
7.59556e-08
8.6235e-08
7.61102e-08
8.62152e-08
7.6014e-08
8.58705e-08
7.56701e-08
8.56608e-08
7.55116e-08
8.58005e-08
7.56497e-08
8.59666e-08
7.59402e-08
8.57771e-08
7.5729e-08
8.57453e-08
7.57979e-08
8.60165e-08
7.59935e-08
8.60201e-08
7.56465e-08
8.59572e-08
7.58194e-08
8.57862e-08
7.59007e-08
8.59223e-08
7.60607e-08
8.61183e-08
7.56553e-08
8.58264e-08
7.57581e-08
8.59884e-08
6.67247e-07
2.86046e-07
1.39182e-07
1.12489e-07
8.62812e-08
9.19438e-08
7.8247e-08
8.70123e-08
7.60893e-08
8.65173e-08
7.61989e-08
8.61009e-08
7.60309e-08
8.61449e-08
7.60923e-08
8.60207e-08
7.56571e-08
8.57976e-08
7.56132e-08
8.58913e-08
7.59739e-08
8.57289e-08
7.56597e-08
8.59175e-08
7.56039e-08
8.58427e-08
7.58606e-08
8.62005e-08
7.6206e-08
8.5856e-08
7.57414e-08
8.59932e-08
7.59182e-08
8.59175e-08
7.55162e-08
8.58571e-08
7.54814e-08
8.55422e-08
7.58074e-08
8.58466e-08
7.58589e-08
8.58973e-08
7.5272e-08
8.56293e-08
7.58249e-08
8.57374e-08
7.56934e-08
8.59353e-08
7.57179e-08
8.57459e-08
7.56609e-08
8.5863e-08
7.59484e-08
8.58949e-08
7.57283e-08
8.59827e-08
7.58229e-08
8.594e-08
7.5772e-08
8.56298e-08
7.55499e-08
8.5679e-08
7.57151e-08
8.58543e-08
7.57819e-08
8.59163e-08
7.58233e-08
8.60335e-08
7.58782e-08
8.59541e-08
7.60342e-08
8.60303e-08
7.57616e-08
8.60564e-08
7.58813e-08
8.59779e-08
7.60525e-08
8.60523e-08
7.57653e-08
8.58099e-08
7.59223e-08
8.60468e-08
7.5813e-08
8.60044e-08
7.59608e-08
8.61281e-08
7.59152e-08
8.58882e-08
7.5861e-08
8.57894e-08
7.56989e-08
8.57863e-08
7.57778e-08
8.62724e-08
7.62718e-08
8.60352e-08
7.59007e-08
8.60527e-08
7.59455e-08
8.61113e-08
7.60244e-08
8.59466e-08
7.59553e-08
8.61413e-08
7.57667e-08
8.58872e-08
7.56558e-08
8.57718e-08
7.57034e-08
8.56534e-08
7.55121e-08
8.58358e-08
7.57822e-08
8.60288e-08
7.57836e-08
8.58682e-08
7.59385e-08
8.58933e-08
7.59392e-08
8.59396e-08
7.56851e-08
8.59953e-08
7.58089e-08
8.60172e-08
7.59371e-08
8.57368e-08
7.59139e-08
8.60096e-08
7.56785e-08
8.58833e-08
7.57965e-08
8.58939e-08
6.67029e-07
2.86267e-07
1.39236e-07
1.12465e-07
8.64677e-08
9.18291e-08
7.82096e-08
8.7028e-08
7.60853e-08
8.63973e-08
7.60695e-08
8.62474e-08
7.61388e-08
8.60692e-08
7.60004e-08
8.61024e-08
7.59269e-08
8.60228e-08
7.55934e-08
8.57817e-08
7.58369e-08
8.58246e-08
7.57727e-08
8.57377e-08
7.56934e-08
8.6111e-08
7.58835e-08
8.60726e-08
7.61771e-08
8.60784e-08
7.57836e-08
8.59535e-08
7.5908e-08
8.57335e-08
7.55793e-08
8.58613e-08
7.55193e-08
8.57289e-08
7.57272e-08
8.57416e-08
7.58495e-08
8.59371e-08
7.55305e-08
8.57016e-08
7.57201e-08
8.58224e-08
7.58192e-08
8.57885e-08
7.57896e-08
8.59081e-08
7.55993e-08
8.58332e-08
7.58751e-08
8.59476e-08
7.57342e-08
8.58542e-08
7.57869e-08
8.59329e-08
7.57843e-08
8.57066e-08
7.54845e-08
8.57556e-08
7.58725e-08
8.5945e-08
7.58258e-08
8.59308e-08
7.58367e-08
8.59335e-08
7.57627e-08
8.60349e-08
7.61446e-08