/*--------------------------------*- C++ -*----------------------------------*\
| =========                 |                                                 |
| \\      /  F ield         | OpenFOAM: The Open Source CFD Toolbox           |
|  \\    /   O peration     | Version:  2206                                  |
|   \\  /    A nd           | Website:  www.openfoam.com                      |
|    \\/     M anipulation  |                                                 |
\*---------------------------------------------------------------------------*/
FoamFile
{
    version     2.0;
    format      ascii;
    arch        "LSB;label=32;scalar=64";
    class       volVectorField;
    location    "0.2";
    object      U;
}
// * * * * * * * * * * * * * * * * * * * * * * * * * * * * * * * * * * * * * //

dimensions      [0 1 -1 0 0 0 0];

internalField   nonuniform List<vector> 
66940
(
(-2.35254e-06 -1.26376e-06 0.12275)
(4.92661e-07 -1.34055e-07 0.122283)
(5.94862e-06 -4.50385e-06 0.122315)
(-0.000215657 -0.000223593 0.121706)
(-1.5318e-06 3.1553e-07 0.122754)
(4.85473e-07 9.00576e-07 0.122286)
(2.44548e-06 -2.0728e-06 0.12232)
(-0.000217094 -0.000214472 0.121709)
(-7.0886e-07 -5.78234e-07 0.122756)
(-4.38876e-07 -6.41796e-07 0.122287)
(2.62459e-06 6.48552e-07 0.12232)
(-0.000215026 -0.000220401 0.12171)
(-8.52094e-07 -6.95049e-07 0.122753)
(3.64866e-07 -7.92742e-07 0.122286)
(1.67282e-06 1.45663e-06 0.122319)
(-0.000217308 -0.000211852 0.121709)
(-1.05523e-06 8.83204e-08 0.122751)
(5.71277e-07 -2.1907e-07 0.122284)
(2.11316e-06 -3.54825e-07 0.122317)
(-0.000214217 -0.000220947 0.121708)
(-3.96523e-07 8.8088e-07 0.122751)
(8.28656e-08 2.47595e-07 0.122285)
(2.45162e-06 -1.22989e-06 0.122317)
(-0.000217487 -0.000213316 0.121709)
(1.88011e-06 2.93596e-06 0.122749)
(-9.51752e-08 -9.80119e-07 0.122288)
(1.80075e-06 -1.56284e-06 0.12232)
(-0.000213633 -0.000220328 0.121706)
(-1.09588e-05 -9.33752e-06 0.122756)
(3.79148e-06 -1.23864e-05 0.122302)
(-1.01857e-05 1.87495e-06 0.122335)
(-0.000216522 -0.000211912 0.121698)
(-0.000125866 -0.000120872 0.122805)
(-1.37243e-05 -3.88639e-05 0.122318)
(-3.38963e-05 -1.90459e-05 0.122352)
(-0.000209776 -0.000217248 0.121675)
(-0.000620393 -0.000608111 0.122888)
(-0.000244002 3.75162e-06 0.122298)
(1.17954e-05 -0.000256068 0.122338)
(-0.00019785 -0.000194815 0.12163)
(-0.00245777 -0.00246813 0.122536)
(-0.00134597 0.000502252 0.121972)
(0.000502992 -0.00138506 0.122038)
(-0.000100068 -0.000100214 0.121431)
(-0.0102217 -0.0102606 0.115438)
(-0.00092104 0.00197681 0.117361)
(0.00180096 -0.0009962 0.117496)
(0.000241721 0.000252632 0.118321)
(-0.000219479 -0.000222757 0.121684)
(6.75586e-06 3.34913e-06 0.122313)
(-6.4992e-06 3.46505e-06 0.122315)
(0.000218561 -0.000222615 0.121685)
(1.36249e-06 -6.75695e-07 0.122284)
(2.37236e-06 7.23262e-07 0.122281)
(-1.07616e-06 -4.42026e-07 0.122282)
(-3.30462e-06 3.28365e-06 0.122275)
(-0.000219437 0.000222684 0.121684)
(6.581e-06 -2.30437e-06 0.122317)
(-7.95417e-06 -3.08224e-06 0.122321)
(0.000219891 0.000224305 0.121682)
(0.000216533 0.000218235 0.121707)
(-0.000221812 -0.000223325 0.121686)
(5.45105e-06 4.79711e-06 0.122312)
(-6.51405e-06 5.1676e-06 0.122314)
(2.02034e-06 3.51112e-06 0.122316)
(-1.90633e-06 3.78595e-06 0.122317)
(-0.000214936 0.000218896 0.121707)
(0.000221064 -0.000224189 0.121686)
(8.55796e-08 5.69567e-07 0.122284)
(9.18154e-07 -7.07864e-07 0.122281)
(-7.60012e-07 1.61096e-06 0.122286)
(-4.13096e-09 -1.52866e-06 0.122283)
(-2.64708e-07 -3.36029e-06 0.122284)
(1.08162e-06 1.72417e-06 0.122285)
(-9.88226e-07 5.22736e-07 0.122282)
(0.000216802 -0.000217678 0.121707)
(-0.000221991 0.000223192 0.121686)
(-6.91962e-06 -4.75351e-06 0.122312)
(1.90276e-06 -1.94743e-06 0.122319)
(-3.37365e-06 -2.5349e-06 0.122322)
(0.000221211 0.000225478 0.121687)
(0.000214819 0.000217741 0.121708)
(-0.000220579 -0.000225008 0.121687)
(2.63669e-06 3.29592e-06 0.122317)
(-3.0453e-06 3.73618e-06 0.122318)
(2.7562e-06 9.63413e-07 0.122317)
(-2.53423e-06 1.09876e-06 0.122319)
(-0.000214647 0.000218138 0.121709)
(0.000219523 -0.000224989 0.121687)
(-1.0943e-07 1.06225e-06 0.122287)
(4.70252e-07 -1.15264e-06 0.122284)
(6.86459e-07 3.08036e-07 0.122288)
(1.61486e-06 -5.75282e-07 0.122285)
(-1.15678e-06 -3.38239e-06 0.122284)
(-6.25523e-07 3.38068e-07 0.122286)
(-2.5158e-06 2.70051e-06 0.122279)
(0.000214987 -0.000217139 0.121709)
(-0.0002207 0.000224937 0.121687)
(-1.4452e-06 -2.22799e-06 0.12232)
(2.70952e-06 2.80085e-07 0.12232)
(-4.34002e-06 7.59374e-07 0.122325)
(0.000220717 0.00022737 0.121685)
(0.000215619 0.000215878 0.12171)
(-0.00022149 -0.000225832 0.121686)
(2.63736e-06 2.04529e-07 0.122317)
(-3.65069e-06 5.98883e-07 0.122319)
(1.97226e-06 -6.95402e-07 0.122316)
(-1.61466e-06 -5.33301e-07 0.122317)
(-0.000214132 0.000216298 0.12171)
(0.000220725 -0.000226688 0.121686)
(7.91328e-07 -1.08388e-07 0.122288)
(1.46273e-06 -3.44448e-07 0.122285)
(1.1459e-07 -6.64099e-07 0.122287)
(1.21455e-06 2.51975e-07 0.122285)
(-4.66784e-07 -2.97669e-06 0.122288)
(5.32144e-08 -5.28719e-07 0.122286)
(-2.00723e-06 1.78328e-06 0.122283)
(0.000215817 -0.000215321 0.12171)
(-0.000221613 0.000225803 0.121686)
(-4.23168e-06 1.61966e-06 0.122317)
(1.80508e-06 2.11847e-06 0.122319)
(-2.97017e-06 3.1145e-06 0.122323)
(0.00022054 0.00022848 0.121688)
(0.000214704 0.000215492 0.121708)
(-0.000221772 -0.000224561 0.121685)
(1.84203e-06 -2.6638e-07 0.122315)
(-2.07128e-06 2.0553e-08 0.122316)
(1.99988e-06 1.42933e-06 0.122314)
(-1.76251e-06 1.57871e-06 0.122315)
(-0.000214549 0.000215885 0.121709)
(0.000220691 -0.000224496 0.121685)
(-1.01815e-07 -5.09722e-07 0.122287)
(8.30138e-07 1.06029e-07 0.122284)
(-3.71053e-07 1.36721e-07 0.122286)
(7.30653e-07 -2.69103e-07 0.122283)
(-1.55552e-06 -2.36475e-06 0.122284)
(3.54658e-07 2.50133e-07 0.122284)
(-2.05448e-06 2.59771e-06 0.122277)
(0.00021487 -0.000214814 0.121709)
(-0.000221854 0.000224707 0.121685)
(-5.16776e-07 2.57621e-06 0.122319)
(1.8252e-06 3.22744e-07 0.122317)
(-3.09204e-06 1.55094e-06 0.122322)
(0.000221818 0.000227268 0.121683)
(0.000214714 0.000216778 0.121707)
(-0.000221434 -0.000224337 0.121685)
(2.17573e-06 1.85654e-06 0.122313)
(-3.20509e-06 2.19048e-06 0.122315)
(2.24662e-06 1.90238e-06 0.122314)
(-1.94265e-06 2.12315e-06 0.122315)
(-0.000213237 0.000217286 0.121708)
(0.000220648 -0.000225243 0.121685)
(-2.54156e-07 2.80243e-07 0.122286)
(5.62656e-07 -4.98093e-07 0.122283)
(-4.24026e-07 2.53384e-07 0.122286)
(5.96946e-07 -3.67954e-07 0.122283)
(-3.99198e-08 -3.52877e-06 0.122285)
(5.68463e-07 3.3087e-07 0.122285)
(-2.00814e-06 8.73015e-07 0.122281)
(0.000214946 -0.000215964 0.121708)
(-0.000221561 0.000224422 0.121685)
(-3.35475e-06 1.15967e-06 0.122314)
(2.01783e-06 -1.5522e-07 0.122317)
(-2.82805e-06 1.05032e-06 0.122321)
(0.000220499 0.000226895 0.121688)
(0.000214924 0.000216863 0.121707)
(-0.00022087 -0.000223912 0.121686)
(2.55922e-06 2.4576e-06 0.122314)
(-2.88576e-06 2.81197e-06 0.122315)
(2.4415e-06 1.25145e-06 0.122312)
(-2.18298e-06 1.33804e-06 0.122313)
(-0.000214796 0.000217223 0.121708)
(0.000219763 -0.000223816 0.121687)
(1.68252e-07 5.64203e-07 0.122286)
(1.09179e-06 -8.1853e-07 0.122283)
(-8.88882e-07 4.53752e-07 0.122284)
(1.92339e-07 -6.22263e-07 0.122282)
(-2.26858e-06 -3.49552e-06 0.122283)
(8.34416e-07 5.72457e-07 0.122283)
(-1.63849e-06 2.30599e-06 0.122276)
(0.000215128 -0.000216121 0.121708)
(-0.000220945 0.000223878 0.121687)
(-1.0205e-06 -1.17595e-08 0.122318)
(2.20142e-06 3.71195e-07 0.122315)
(-3.36638e-06 1.97293e-06 0.122321)
(0.000220915 0.00022646 0.121685)
(0.000214249 0.000216111 0.121706)
(-0.00021838 -0.000221496 0.12169)
(1.62937e-06 2.58703e-06 0.122317)
(-2.74445e-06 3.00003e-06 0.122319)
(1.01155e-05 3.94302e-06 0.1223)
(-9.68362e-06 4.07913e-06 0.122301)
(-0.000212778 0.000216594 0.121706)
(0.000217647 -0.000222378 0.12169)
(4.26041e-07 -3.92509e-07 0.12229)
(1.36168e-06 -3.99177e-09 0.122287)
(1.73491e-06 8.13479e-06 0.122273)
(2.79618e-06 -7.88885e-06 0.12227)
(-5.90255e-07 -3.16442e-06 0.122289)
(-1.47322e-06 8.2311e-06 0.122273)
(-4.40848e-06 -6.61065e-06 0.122268)
(0.000214425 -0.000215446 0.121706)
(-0.0002183 0.000221454 0.121691)
(-2.88213e-06 1.79551e-07 0.122317)
(1.00622e-05 -2.04056e-06 0.122304)
(-1.10774e-05 -7.59784e-07 0.122308)
(0.000217205 0.000224096 0.121693)
(0.000213475 0.000215457 0.121697)
(-0.000212394 -0.000215671 0.121702)
(-1.00414e-05 -1.69205e-06 0.122332)
(9.62136e-06 -1.30783e-06 0.122333)
(3.35955e-05 -1.29062e-06 0.12228)
(-3.3401e-05 -1.39552e-06 0.122282)
(-0.000213279 0.000215751 0.121697)
(0.000211525 -0.000215637 0.121703)
(-3.83304e-06 -1.22739e-05 0.122305)
(-2.86509e-06 1.12573e-05 0.122302)
(-3.16102e-06 3.29096e-05 0.122252)
(-1.48957e-06 -3.19952e-05 0.122249)
(2.02656e-06 8.55903e-06 0.122303)
(4.40443e-06 3.21354e-05 0.122254)
(-6.48869e-07 -2.9084e-05 0.122243)
(0.000213494 -0.000214701 0.121697)
(-0.00021271 0.000215586 0.121704)
(1.18021e-05 2.73907e-06 0.122336)
(3.3153e-05 5.11252e-06 0.122284)
(-3.42176e-05 7.42981e-06 0.12229)
(0.000213042 0.000218258 0.121701)
(0.000211323 0.000213615 0.121675)
(-0.000212834 -0.00021582 0.121747)
(-3.39935e-05 1.66394e-05 0.12235)
(3.30741e-05 1.73952e-05 0.122351)
(7.7543e-06 -0.000164006 0.12226)
(-6.92868e-06 -0.000165416 0.122262)
(-0.000209825 0.00021389 0.121675)
(0.000212646 -0.000216784 0.121749)
(1.20716e-05 -3.9625e-05 0.122324)
(1.20047e-05 3.79667e-05 0.122322)
(-0.00015851 1.59391e-05 0.12223)
(-0.000154719 -1.41401e-05 0.122227)
(-9.97694e-06 3.55639e-05 0.122325)
(0.000164519 1.26446e-05 0.122241)
(0.000150903 -1.3939e-05 0.122224)
(0.000211416 -0.00021275 0.121675)
(-0.00021342 0.000215012 0.121749)
(3.29983e-05 -1.83274e-05 0.122349)
(9.22996e-06 0.000169175 0.122265)
(-7.93392e-06 0.000173051 0.122269)
(0.000211908 0.000218898 0.12175)
(0.000194361 0.000199699 0.121629)
(-0.000480815 -0.000482815 0.121792)
(1.45307e-05 0.000252774 0.122336)
(-1.50953e-05 0.000255178 0.122337)
(-0.000548711 -0.00130435 0.122171)
(0.000552459 -0.00130973 0.122172)
(-0.000194356 0.00019979 0.121628)
(0.000483673 -0.000484825 0.121808)
(0.000237041 -4.15971e-07 0.122314)
(0.000234694 -2.05696e-06 0.122312)
(-0.00128963 -0.000525597 0.122131)
(-0.00128133 0.00052432 0.12213)
(-0.000234243 -5.79343e-06 0.12231)
(0.00130439 -0.000534319 0.122167)
(0.00127719 0.000532078 0.122129)
(0.000195158 -0.000198331 0.121627)
(-0.000481689 0.000477119 0.121799)
(-9.44143e-06 -0.000258422 0.122341)
(-0.000541844 0.00131212 0.122174)
(0.000543508 0.00131907 0.122176)
(0.000483919 0.000479883 0.121786)
(9.2903e-05 0.000104478 0.121442)
(-0.00467739 -0.00465748 0.119466)
(0.000501369 0.00137633 0.122033)
(-0.000505317 0.00138539 0.122035)
(-0.0043228 -0.00811622 0.119713)
(0.00435588 -0.00815572 0.1197)
(-9.21764e-05 0.000104526 0.121426)
(0.00467799 -0.00464757 0.119516)
(0.00132882 0.000491534 0.122023)
(0.00131933 -0.00049341 0.122017)
(-0.00816452 -0.00431859 0.119719)
(-0.00812593 0.00429253 0.11972)
(-0.00131014 -0.000508295 0.122023)
(0.00821457 -0.00435427 0.119827)
(0.00813695 0.00429612 0.119716)
(0.000103027 -9.7238e-05 0.121438)
(-0.00467693 0.00465128 0.11947)
(-0.000504294 -0.00139001 0.122037)
(-0.00434108 0.00815132 0.119719)
(0.00434617 0.00815549 0.119721)
(0.00468933 0.00465805 0.11947)
(-0.000269037 -0.000221228 0.118316)
(0.00182712 0.00102459 0.117495)
(-0.00183204 0.000996481 0.117467)
(0.000323878 -0.000282673 0.118222)
(0.000981013 0.00181553 0.117498)
(0.00101281 -0.00185068 0.117502)
(0.0103706 -0.0103435 0.115351)
(-0.0102387 0.0102284 0.115441)
(0.0102345 0.0102501 0.115442)
(-0.00100852 -0.00185569 0.1175)
(-0.000247636 0.000248656 0.118319)
(-0.00179445 -0.000992597 0.1175)
(7.27514e-06 -8.15145e-06 0.080373)
(-1.38125e-06 -2.94142e-06 0.122749)
(1.52929e-06 -2.49014e-06 0.122749)
(-1.24555e-06 3.43263e-06 0.12275)
(2.26933e-06 3.20617e-06 0.12275)
(6.98828e-05 -5.73345e-07 0.119069)
(-4.31784e-06 1.79977e-06 0.122284)
(5.694e-05 -2.03166e-05 0.112519)
(-2.40364e-06 -1.04528e-06 0.122601)
(0.000219891 0.000227889 0.121686)
(1.8856e-05 1.83971e-05 0.103539)
(1.58637e-05 1.47938e-05 0.103645)
(-3.91179e-07 -3.81787e-05 0.111973)
(3.33578e-06 3.15097e-05 0.0919212)
(3.27529e-07 4.46147e-05 0.112028)
(-5.24085e-06 -1.91044e-05 0.0919213)
(-3.78007e-06 1.5942e-05 0.0804519)
(9.17728e-06 -4.18697e-06 0.0804459)
(-4.10703e-05 -2.03311e-07 0.111399)
(2.24426e-05 5.01347e-06 0.091633)
(3.89834e-05 1.76247e-07 0.11163)
(-2.48683e-05 -3.68816e-06 0.0915472)
(2.32937e-06 -1.28752e-06 0.12275)
(-1.59993e-06 1.60936e-06 0.12275)
(-7.21205e-07 3.0692e-06 0.12275)
(-2.26535e-06 9.22709e-07 0.122754)
(2.20192e-06 1.16272e-06 0.122754)
(-2.08857e-06 -2.49167e-07 0.122753)
(1.9169e-06 -1.68665e-07 0.122754)
(6.84115e-05 -3.54545e-07 0.119072)
(-5.58884e-05 1.81612e-05 0.112694)
(1.95004e-06 -2.7014e-06 0.122606)
(1.11851e-06 9.51201e-07 0.122283)
(-6.7495e-05 -5.56773e-07 0.119212)
(5.72234e-05 -1.88006e-05 0.112524)
(1.2871e-06 -1.0979e-06 0.122606)
(8.13158e-06 -7.23697e-06 0.0803049)
(-9.9869e-06 4.82274e-06 0.0802646)
(-3.24664e-07 6.18588e-05 0.119374)
(8.70845e-07 -6.61615e-06 0.122633)
(1.87978e-05 -5.72164e-05 0.112935)
(3.715e-06 -3.00264e-06 0.122316)
(-8.05533e-07 -7.24085e-05 0.11941)
(-4.59384e-07 -6.08593e-06 0.122633)
(-2.20906e-05 5.02085e-05 0.112877)
(-1.71059e-05 -1.91204e-05 0.103684)
(-1.94658e-05 -2.14777e-05 0.103896)
(0.000222632 0.000227588 0.121683)
(1.97527e-05 1.57273e-05 0.10355)
(2.25296e-05 1.18395e-05 0.10378)
(-8.06128e-07 -4.14381e-05 0.111973)
(3.28969e-06 2.8131e-05 0.0919254)
(-5.70559e-07 4.46481e-05 0.112034)
(-2.79715e-06 -2.38831e-05 0.0919241)
(-5.89948e-06 1.12299e-05 0.0804418)
(4.07975e-06 -9.30458e-06 0.0804431)
(-3.9503e-05 -3.21408e-07 0.1114)
(2.32332e-05 4.61251e-06 0.091639)
(4.01744e-05 2.63578e-07 0.111632)
(-2.28301e-05 -4.9359e-06 0.0915505)
(1.43326e-06 6.67958e-07 0.122754)
(-1.25719e-06 2.95429e-07 0.122754)
(6.53998e-07 5.55525e-07 0.122754)
(-9.59557e-07 -2.95806e-07 0.122755)
(8.85893e-07 -2.2214e-07 0.122755)
(-4.52788e-07 8.00745e-07 0.122755)
(9.51452e-07 9.39861e-07 0.122755)
(6.65361e-05 -3.09959e-07 0.119072)
(-5.63395e-05 1.79377e-05 0.112696)
(1.05875e-06 -1.21866e-06 0.122606)
(-3.34539e-07 1.04821e-06 0.122286)
(-6.89103e-05 -3.78309e-07 0.119212)
(5.51202e-05 -1.91538e-05 0.112524)
(8.33102e-07 -6.22507e-07 0.122607)
(9.25387e-06 -6.01048e-06 0.080312)
(-7.81493e-06 6.66027e-06 0.0802665)
(-1.71812e-07 6.4262e-05 0.119373)
(-6.713e-07 -3.7197e-06 0.122637)
(1.89669e-05 -5.50412e-05 0.112933)
(2.64613e-06 -7.76567e-07 0.12232)
(-4.09677e-07 -6.85402e-05 0.119404)
(-1.15288e-06 -3.51002e-06 0.122637)
(-2.06034e-05 5.21851e-05 0.112873)
(-1.86196e-05 -1.7875e-05 0.103695)
(-2.01779e-05 -1.73453e-05 0.103898)
(0.000219546 0.000226727 0.121686)
(1.69261e-05 1.88557e-05 0.103542)
(1.93074e-05 1.80799e-05 0.103797)
(-1.94195e-07 -4.61651e-05 0.111973)
(7.24182e-06 2.2835e-05 0.0919305)
(9.81749e-08 3.99814e-05 0.112032)
(-6.71692e-07 -2.80472e-05 0.0919337)
(-1.04805e-05 6.76009e-06 0.080444)
(2.64672e-06 -1.19088e-05 0.0804466)
(-3.90434e-05 -5.27978e-07 0.111396)
(2.49319e-05 3.2836e-06 0.0916354)
(4.1609e-05 8.41217e-09 0.111629)
(-2.24391e-05 -5.28579e-06 0.0915439)
(6.16931e-07 -5.77131e-07 0.122756)
(-1.77261e-07 9.04694e-07 0.122756)
(-2.17183e-06 2.2958e-06 0.122755)
(-8.17273e-07 -8.83222e-07 0.122754)
(9.08761e-07 -7.24353e-07 0.122754)
(-2.32214e-07 1.30195e-06 0.122754)
(7.35957e-08 1.39828e-06 0.122755)
(6.62575e-05 -6.77343e-07 0.119072)
(-5.81263e-05 1.70814e-05 0.112694)
(6.53046e-07 -2.17983e-06 0.122609)
(-5.69432e-07 -7.4763e-07 0.122287)
(-7.03162e-05 -7.38797e-07 0.119212)
(5.48074e-05 -2.00693e-05 0.112522)
(7.51291e-07 -1.33497e-06 0.122608)
(1.06191e-05 -4.88851e-06 0.0803054)
(-7.87182e-06 6.65238e-06 0.0802582)
(6.85983e-08 6.71011e-05 0.119372)
(-5.21669e-07 -5.74981e-07 0.122637)
(2.16267e-05 -5.20378e-05 0.11293)
(2.14747e-06 2.25258e-06 0.12232)
(-1.37833e-07 -6.57178e-05 0.119404)
(-1.31541e-06 -6.54466e-08 0.122637)
(-1.89216e-05 5.53368e-05 0.112872)
(-2.06209e-05 -1.71161e-05 0.103682)
(-2.39091e-05 -1.33662e-05 0.103911)
(0.0002214 0.00023108 0.121686)
(1.62795e-05 1.7516e-05 0.103544)
(1.79157e-05 1.92405e-05 0.103792)
(-2.65027e-07 -4.50236e-05 0.11198)
(5.09124e-06 2.35796e-05 0.0919453)
(3.57337e-07 3.86539e-05 0.112038)
(-4.11748e-06 -2.53429e-05 0.0919468)
(-7.19899e-06 8.73698e-06 0.0804508)
(6.36442e-06 -8.88424e-06 0.0804537)
(-3.98552e-05 -2.95508e-07 0.111395)
(2.37465e-05 4.44406e-06 0.0916295)
(4.07319e-05 1.23534e-07 0.111627)
(-2.35387e-05 -3.97582e-06 0.0915406)
(8.84756e-07 -4.99778e-07 0.122753)
(-2.77029e-07 1.13367e-06 0.122753)
(-5.8076e-07 1.63738e-06 0.122754)
(-1.11225e-06 -7.47184e-08 0.122752)
(1.04366e-06 4.48108e-08 0.122752)
(-5.36642e-07 8.75183e-07 0.122752)
(8.09865e-07 7.99379e-07 0.122751)
(6.73045e-05 -4.50506e-07 0.119071)
(-5.70837e-05 1.70519e-05 0.112693)
(1.71713e-06 -1.72546e-06 0.122607)
(2.90738e-07 -2.39417e-08 0.122285)
(-6.91811e-05 -6.25543e-07 0.119211)
(5.57383e-05 -1.9266e-05 0.112521)
(1.81712e-06 -8.13776e-07 0.122606)
(9.30707e-06 -6.32241e-06 0.0803004)
(-8.91764e-06 5.32729e-06 0.0802561)
(3.27024e-09 6.68189e-05 0.11937)
(-1.03079e-06 7.68705e-07 0.122635)
(2.1384e-05 -5.11695e-05 0.112933)
(1.29563e-06 1.9656e-06 0.122318)
(-4.87944e-08 -6.45825e-05 0.119402)
(-1.69303e-06 -2.58591e-08 0.122635)
(-2.02563e-05 5.41458e-05 0.112876)
(-1.94159e-05 -1.79381e-05 0.103684)
(-2.23232e-05 -1.39457e-05 0.103908)
(0.000220677 0.000228107 0.121685)
(1.76799e-05 1.76649e-05 0.103531)
(2.00417e-05 1.87009e-05 0.103808)
(-3.79603e-07 -4.29932e-05 0.11198)
(3.08606e-06 2.58158e-05 0.0919507)
(1.14276e-07 4.14472e-05 0.112041)
(-4.69409e-06 -2.42322e-05 0.0919485)
(-5.74693e-06 1.00009e-05 0.0804519)
(6.46948e-06 -9.04528e-06 0.0804517)
(-3.99438e-05 -2.85851e-07 0.111396)
(2.34481e-05 4.86527e-06 0.0916292)
(4.04938e-05 2.36567e-07 0.111629)
(-2.3631e-05 -3.9875e-06 0.0915407)
(9.73876e-07 8.55992e-08 0.122751)
(-3.87644e-07 5.51899e-07 0.122751)
(-2.23628e-06 1.81005e-06 0.122751)
(-1.35101e-06 -8.49837e-08 0.122752)
(1.38089e-06 3.4878e-08 0.122752)
(-7.3758e-07 7.72504e-07 0.122752)
(2.57067e-07 7.9204e-07 0.122753)
(6.72915e-05 -4.71308e-07 0.119072)
(-5.66651e-05 1.7948e-05 0.112694)
(2.0266e-06 -2.09583e-06 0.122605)
(5.28159e-07 -9.46634e-08 0.122285)
(-6.89706e-05 -6.4452e-07 0.119212)
(5.61421e-05 -1.91119e-05 0.112523)
(2.01498e-06 -1.05517e-06 0.122606)
(9.08224e-06 -6.62017e-06 0.0803004)
(-8.94847e-06 5.3987e-06 0.0802564)
(-1.44455e-07 6.54221e-05 0.119368)
(-8.75808e-07 -1.57108e-06 0.122633)
(1.99814e-05 -5.36377e-05 0.112935)
(1.81764e-06 4.93998e-07 0.122317)
(-2.40005e-07 -6.62136e-05 0.119401)
(-1.62877e-06 -1.91514e-06 0.122633)
(-2.08461e-05 5.24766e-05 0.112877)
(-1.87288e-05 -1.89161e-05 0.103676)
(-2.03959e-05 -1.61357e-05 0.10392)
(0.000222131 0.000229881 0.121684)
(1.78593e-05 1.60043e-05 0.10354)
(2.12727e-05 1.59966e-05 0.103799)
(-3.07144e-07 -4.32729e-05 0.111977)
(3.24996e-06 2.5951e-05 0.0919505)
(9.9907e-08 4.20822e-05 0.112039)
(-3.6072e-06 -2.47935e-05 0.0919472)
(-6.27853e-06 9.69887e-06 0.0804527)
(5.59035e-06 -9.07938e-06 0.0804549)
(-4.02303e-05 -2.41391e-07 0.111395)
(2.35776e-05 4.54686e-06 0.0916298)
(4.06145e-05 1.75607e-07 0.111629)
(-2.39441e-05 -3.38164e-06 0.0915404)
(3.49285e-07 1.04395e-06 0.122751)
(3.0879e-07 -2.97256e-07 0.122751)
(-1.37224e-06 1.10738e-07 0.122751)
(-3.19326e-06 -1.98103e-06 0.122754)
(3.14428e-06 -1.91719e-06 0.122754)
(-2.60448e-06 2.88537e-06 0.122754)
(2.62414e-06 3.00339e-06 0.122754)
(6.75616e-05 -3.25049e-07 0.119071)
(-5.69224e-05 1.71096e-05 0.112694)
(1.69605e-06 -1.4594e-06 0.122606)
(7.14592e-07 3.46049e-07 0.122285)
(-6.92921e-05 -5.58568e-07 0.119212)
(5.64874e-05 -1.79184e-05 0.112523)
(2.24617e-06 -7.30374e-07 0.122606)
(9.20904e-06 -6.39082e-06 0.0803009)
(-9.10845e-06 5.05634e-06 0.080257)
(-4.16637e-08 6.57203e-05 0.119366)
(-7.56293e-07 -2.28803e-06 0.122633)
(1.96461e-05 -5.422e-05 0.112935)
(1.6039e-06 6.88293e-07 0.122317)
(-3.06284e-07 -6.67568e-05 0.119399)
(-1.64631e-06 -1.66656e-06 0.122634)
(-1.93414e-05 5.32046e-05 0.112876)
(-1.91417e-05 -1.82064e-05 0.103684)
(-2.05971e-05 -1.59255e-05 0.103912)
(0.00022008 0.000227169 0.121685)
(1.80988e-05 1.68253e-05 0.103533)
(1.93274e-05 1.8511e-05 0.10381)
(-1.0723e-06 -4.78637e-05 0.111966)
(-4.1181e-07 2.82612e-05 0.0919535)
(2.5547e-07 4.43786e-05 0.112043)
(3.79492e-06 -2.97919e-05 0.0919385)
(-3.49701e-06 1.1289e-05 0.0804491)
(-1.93331e-07 -1.23916e-05 0.0804584)
(-4.44898e-05 -1.02501e-06 0.111385)
(2.59106e-05 8.03981e-07 0.0916324)
(4.27246e-05 1.81692e-07 0.111633)
(-2.87689e-05 3.86144e-06 0.0915334)
(-2.05945e-06 2.95867e-06 0.122749)
(2.68962e-06 -2.70162e-06 0.122749)
(-4.84853e-06 -1.66353e-06 0.122749)
(1.55939e-06 2.34801e-06 0.122752)
(-1.38257e-06 2.17353e-06 0.122752)
(2.17696e-06 -3.98949e-07 0.122752)
(-3.64003e-06 -1.64828e-07 0.122753)
(7.11654e-05 -6.6568e-07 0.119065)
(-5.98443e-05 1.17265e-05 0.112692)
(4.05411e-06 -2.32567e-06 0.122607)
(4.62614e-07 2.08688e-06 0.12228)
(-7.12001e-05 -8.99016e-07 0.119215)
(6.16915e-05 -9.10226e-06 0.112527)
(-2.87663e-06 -4.65331e-07 0.122604)
(1.05561e-05 -3.73282e-06 0.0802978)
(-1.17318e-05 -5.29258e-07 0.0802638)
(-2.39993e-07 6.9228e-05 0.119359)
(-9.63968e-07 -1.37772e-07 0.122634)
(1.43457e-05 -5.72863e-05 0.112933)
(3.86082e-06 5.83181e-07 0.122311)
(-4.42651e-07 -6.84534e-05 0.119402)
(-6.25961e-07 -6.66259e-06 0.12263)
(-1.04657e-05 5.84121e-05 0.112879)
(-2.07759e-05 -1.37877e-05 0.103667)
(-1.58633e-05 -1.78827e-05 0.10391)
(0.000220569 0.000228364 0.121687)
(2.11154e-05 6.03324e-06 0.103564)
(1.06387e-05 1.97922e-05 0.103822)
(-7.76523e-06 -5.33335e-05 0.111918)
(-1.07119e-05 3.66659e-05 0.0919838)
(4.54644e-06 5.07829e-05 0.112074)
(1.36163e-05 -3.93144e-05 0.0918779)
(6.54212e-06 1.48221e-05 0.0804359)
(-1.20982e-05 -1.49181e-05 0.080478)
(-4.96212e-05 -7.94473e-06 0.111338)
(3.46541e-05 -9.99485e-06 0.0916613)
(4.90706e-05 4.62382e-06 0.111665)
(-3.85309e-05 1.42865e-05 0.091474)
(1.09044e-05 -8.71447e-06 0.122756)
(-1.02114e-05 8.27406e-06 0.122756)
(9.91703e-06 8.39739e-06 0.122756)
(7.65102e-05 7.45244e-05 0.122715)
(-7.6787e-05 7.29104e-05 0.122716)
(7.72495e-05 -7.0132e-05 0.122716)
(-7.85158e-05 -6.92074e-05 0.122714)
(7.03526e-05 -2.76521e-06 0.119039)
(-6.62919e-05 1.3251e-06 0.112699)
(3.88084e-05 -9.64646e-06 0.12262)
(-3.20832e-06 1.88377e-05 0.122263)
(-7.59032e-05 1.06686e-06 0.119231)
(6.85669e-05 2.79643e-06 0.112499)
(-5.83728e-05 1.38379e-05 0.122585)
(1.44079e-05 6.631e-06 0.0802837)
(-1.49467e-05 -1.26171e-05 0.0802804)
(-2.5342e-06 6.91937e-05 0.119335)
(-1.1239e-05 3.70905e-05 0.122648)
(4.73369e-06 -6.36147e-05 0.11294)
(2.05809e-05 -2.88355e-06 0.122294)
(1.27047e-06 -7.28346e-05 0.119417)
(1.66876e-05 -6.60618e-05 0.122611)
(1.29147e-06 6.54209e-05 0.11285)
(-2.3045e-05 1.20355e-06 0.103622)
(-1.09381e-06 -1.94466e-05 0.10385)
(0.000214635 0.00022205 0.121694)
(2.24253e-05 -1.03311e-05 0.103625)
(-8.15523e-06 2.28077e-05 0.103903)
(-2.57956e-05 -6.56441e-05 0.111855)
(-2.66647e-05 5.27333e-05 0.0921563)
(1.59599e-05 6.01229e-05 0.112141)
(3.64516e-05 -6.17254e-05 0.0916026)
(2.90587e-05 2.26783e-05 0.0804186)
(-4.24047e-05 -2.70126e-05 0.0804916)
(-6.19584e-05 -2.63781e-05 0.111275)
(5.08572e-05 -2.5561e-05 0.0918335)
(5.89707e-05 1.6675e-05 0.111732)
(-6.12966e-05 3.7315e-05 0.0911979)
(0.000126123 -0.000118537 0.122804)
(-0.000125551 0.000116539 0.122804)
(0.000125223 0.0001173 0.122805)
(0.000417575 0.000409609 0.122607)
(-0.000417887 0.000404365 0.122608)
(0.000418035 -0.000399306 0.122607)
(-0.000419723 -0.000396913 0.122609)
(5.71775e-05 -8.45364e-06 0.118997)
(-7.62433e-05 -2.08195e-05 0.112795)
(0.000228207 -6.16008e-05 0.122653)
(4.27531e-05 3.91202e-05 0.122246)
(-8.09852e-05 4.93124e-06 0.119265)
(7.89226e-05 3.26715e-05 0.112344)
(-0.0003191 8.48403e-05 0.122541)
(2.22169e-05 2.8776e-05 0.0802676)
(-2.7264e-05 -4.37775e-05 0.0802961)
(-8.60826e-06 5.26182e-05 0.11929)
(-6.64448e-05 0.00022519 0.122682)
(-1.86274e-05 -7.23602e-05 0.113039)
(3.73131e-05 4.70447e-05 0.122274)
(5.09076e-06 -7.30946e-05 0.119453)
(9.20459e-05 -0.000321394 0.122565)
(3.16834e-05 7.49744e-05 0.112689)
(-3.15479e-05 3.41345e-05 0.103494)
(3.32749e-05 -2.79118e-05 0.103739)
(0.000209701 0.000217394 0.121718)
(3.61446e-05 -5.3718e-05 0.103816)
(-5.01319e-05 3.42132e-05 0.104072)
(-8.44589e-05 -0.000154235 0.111927)
(-6.78337e-05 8.78043e-05 0.092704)
(5.49362e-05 8.92667e-05 0.112171)
(6.96452e-05 -0.000167237 0.0908893)
(8.45716e-05 3.40006e-05 0.0804105)
(-9.81112e-05 -8.3182e-05 0.0806221)
(-0.00014337 -8.55987e-05 0.111348)
(8.60847e-05 -6.69458e-05 0.0923883)
(8.95052e-05 5.64642e-05 0.111764)
(-0.000170061 7.24755e-05 0.0904743)
(0.000621817 -0.00060148 0.122886)
(-0.000620242 0.000597402 0.122888)
(0.000622558 0.000595415 0.122888)
(0.00145221 0.0014519 0.122232)
(-0.00145891 0.00144162 0.122235)
(0.00145771 -0.00142903 0.122231)
(-0.0014607 -0.00142663 0.122229)
(5.57211e-05 -2.6143e-05 0.118989)
(-6.33904e-05 -6.88898e-05 0.113147)
(0.000949984 -0.000244286 0.122682)
(0.000492453 -0.000122676 0.122234)
(-8.70612e-05 1.78135e-05 0.119285)
(0.000106582 7.36184e-05 0.111843)
(-0.00119407 0.000304674 0.122445)
(3.38519e-05 8.43902e-05 0.0802614)
(-8.41079e-05 -0.000102037 0.0804185)
(-3.07172e-05 5.38029e-05 0.119262)
(-0.00025439 0.000930871 0.122711)
(-6.81587e-05 -6.03105e-05 0.113397)
(-0.000131601 0.000502981 0.122249)
(1.85409e-05 -7.84187e-05 0.119488)
(0.000313842 -0.00116795 0.122467)
(7.59281e-05 0.00010006 0.112174)
(-4.61393e-05 9.24221e-05 0.10316)
(9.28675e-05 -4.24952e-05 0.103405)
(0.000257989 0.000258748 0.121797)
(0.000103054 -9.1513e-05 0.104347)
(-9.33983e-05 0.000101448 0.10461)
(-0.000222037 -0.000936452 0.112082)
(-0.000170733 0.0001745 0.094425)
(0.000137474 -7.94702e-05 0.111781)
(-2.77296e-05 -0.00100404 0.0885922)
(0.000228074 7.52134e-05 0.0806056)
(-0.000270624 -0.000677677 0.0816011)
(-0.000908238 -0.000218559 0.111998)
(0.000173192 -0.000159942 0.094191)
(-7.78473e-05 0.000142037 0.11163)
(-0.00101732 -1.21291e-05 0.0884956)
(0.0024695 -0.00245647 0.122532)
(-0.00246434 0.00244875 0.122534)
(0.00247143 0.00244539 0.122532)
(0.0033728 0.0033413 0.11862)
(-0.00341739 0.00333861 0.118587)
(0.00334049 -0.00336367 0.118623)
(-0.00334227 -0.00336731 0.118625)
(0.00104512 -8.90914e-05 0.118975)
(0.000327789 -0.000286472 0.114411)
(0.00352529 -0.000777867 0.122345)
(0.00328523 -0.00162778 0.121841)
(0.000150308 1.94009e-05 0.119102)
(0.000522884 -0.000101779 0.110116)
(-0.0030984 0.000691982 0.121767)
(7.61855e-05 0.000220466 0.0804794)
(-0.000670828 -0.000278638 0.081563)
(-0.000105619 0.00104154 0.118966)
(-0.000790754 0.00342939 0.122341)
(-0.000290308 0.000327857 0.114659)
(-0.00164411 0.00326425 0.121755)
(2.06398e-05 0.000154374 0.1192)
(0.000677048 -0.00311592 0.121737)
(-9.89207e-05 0.000495966 0.110091)
(6.63074e-05 0.000247121 0.102522)
(0.000256597 7.21065e-05 0.102812)
(0.00137569 0.00133339 0.121444)
(0.000584358 7.56113e-05 0.105658)
(6.30617e-05 0.00058495 0.105686)
(-0.000999845 -0.0175169 0.107673)
(-0.000620154 -0.00428895 0.0624984)
(-0.000520213 -0.00446666 0.105053)
(-0.00709962 -0.0127524 0.0958839)
(-0.000501727 -0.00255018 0.0454074)
(0.00697458 -0.0119989 0.0920159)
(-0.01747 -0.00100745 0.107668)
(-0.00428706 -0.000608406 0.0624437)
(-0.00451106 -0.00052617 0.105097)
(-0.0127682 -0.00709219 0.0958674)
(-0.0017296 -0.00171343 0.107375)
(-0.00229943 -0.00819225 0.115689)
(-0.00825888 -0.00236756 0.115731)
(-0.0102837 -0.01032 0.110862)
(-0.00194172 -0.00195898 0.114926)
(-0.00216274 -0.00830643 0.10873)
(-0.00833512 -0.00219172 0.108763)
(0.0172095 -0.00136095 0.111304)
(0.00571944 -0.00230191 0.103357)
(0.0141887 -0.00250845 0.116339)
(0.0150354 -0.0108713 0.111341)
(0.0038016 -0.000361509 0.11555)
(0.0152251 -0.00791741 0.110356)
(0.0141778 -0.00233127 0.109289)
(-0.00255106 -0.000517918 0.0453795)
(-0.0120218 0.00694231 0.0919921)
(-0.00146172 0.0169616 0.111316)
(-0.00253122 0.0141815 0.116342)
(-0.0023311 0.00570607 0.103396)
(-0.0104304 0.0149698 0.111265)
(-0.000314794 0.00390827 0.11555)
(-0.0022937 0.0142236 0.109299)
(-0.00795708 0.0152152 0.110385)
(0.00326698 0.001591 0.0956503)
(0.00162389 0.00324881 0.095726)
(0.0146739 0.0145653 0.111547)
(0.0138924 0.00721326 0.104524)
(0.00725961 0.013863 0.104508)
(-7.52403e-06 -2.63548e-06 0.0804538)
(5.38532e-06 1.14537e-05 0.0803568)
(-1.01954e-05 -4.82765e-06 0.0802605)
(7.44204e-06 6.15281e-06 0.0803078)
(0.000217006 0.000216955 0.121707)
(-1.95519e-05 -1.26319e-05 0.103818)
(-1.96388e-05 -1.67743e-05 0.103506)
(1.93702e-05 2.11055e-05 0.103802)
(1.72352e-05 1.76253e-05 0.10367)
(9.50188e-06 -2.05042e-05 0.0917545)
(-2.40425e-07 2.68339e-06 0.122276)
(1.29749e-05 -5.0388e-05 0.11267)
(6.89144e-07 4.25883e-05 0.111676)
(-4.74579e-06 -1.80839e-05 0.0919172)
(3.07264e-07 2.40202e-05 0.0917418)
(-2.01116e-08 -4.13532e-05 0.111963)
(-7.01778e-07 4.26217e-05 0.111677)
(4.86594e-06 -1.80327e-05 0.0919172)
(-2.04403e-07 2.40232e-05 0.0917394)
(3.25548e-08 -4.14156e-05 0.111963)
(2.37841e-07 7.09337e-05 0.11922)
(5.23801e-06 5.37599e-06 0.122315)
(-2.10799e-05 -4.83678e-05 0.112876)
(1.80928e-06 3.11612e-06 0.122638)
(1.87604e-05 5.95709e-05 0.112727)
(5.74633e-07 4.19479e-06 0.122633)
(-9.36111e-07 -5.69917e-05 0.119377)
(-2.77855e-07 7.09319e-05 0.11922)
(-5.6282e-06 5.52023e-06 0.122316)
(2.06653e-05 -4.83724e-05 0.112876)
(-1.98298e-06 3.16018e-06 0.122638)
(-1.87682e-05 5.94852e-05 0.112723)
(-8.70285e-07 4.32607e-06 0.122633)
(8.44243e-07 -5.70146e-05 0.119377)
(0.000219716 -0.000226494 0.121686)
(1.41783e-05 -1.47221e-05 0.10366)
(1.94197e-05 -1.92697e-05 0.103527)
(1.02476e-05 -6.11252e-06 0.0802536)
(7.4174e-06 -2.63901e-06 0.0804566)
(-5.38944e-06 1.16044e-05 0.0803536)
(-0.000216335 0.000217421 0.121708)
(1.85828e-05 -1.26206e-05 0.1038)
(1.96679e-05 -1.76325e-05 0.103526)
(-1.98117e-05 2.1346e-05 0.103773)
(-1.69303e-05 1.74279e-05 0.103699)
(1.01784e-05 -4.97771e-06 0.0802583)
(-7.14902e-06 6.39872e-06 0.0803088)