/*--------------------------------*- C++ -*----------------------------------*\
| =========                 |                                                 |
| \\      /  F ield         | OpenFOAM: The Open Source CFD Toolbox           |
|  \\    /   O peration     | Version:  2206                                  |
|   \\  /    A nd           | Website:  www.openfoam.com                      |
|    \\/     M anipulation  |                                                 |
\*---------------------------------------------------------------------------*/
FoamFile
{
    version     2.0;
    format      ascii;
    arch        "LSB;label=32;scalar=64";
    class       volVectorField;
    location    "0.2";
    object      wallShearStress;
}
// * * * * * * * * * * * * * * * * * * * * * * * * * * * * * * * * * * * * * //

dimensions      [0 2 -2 0 0 0 0];

internalField   uniform (0 0 0);

boundaryField
{
    topPatch
    {
        type            calculated;
        value           nonuniform List<vector> 0();
    }
    wall
    {
        type            calculated;
        value           nonuniform List<vector> 
7778
(
(-5.85046e-06 1.85335e-05 -0.000264969)
(-2.41689e-06 -5.92599e-06 -0.000162909)
(1.85737e-05 -5.91286e-06 -0.000264936)
(-5.90071e-06 -2.43963e-06 -0.000162815)
(5.87087e-06 1.85725e-05 -0.000265064)
(1.85244e-05 5.85856e-06 -0.000264859)
(-1.85547e-05 -5.98853e-06 -0.000265059)
(-1.85969e-05 6.0769e-06 -0.000265099)
(-5.84699e-06 -1.85366e-05 -0.000264963)
(-2.41767e-06 5.92011e-06 -0.000162909)
(5.86984e-06 -1.85726e-05 -0.000265043)
(1.10794e-05 4.93335e-05 -0.000209501)
(-2.55086e-05 -1.11873e-05 -0.0003314)
(-1.85884e-05 6.6446e-06 -0.000242429)
(-4.19677e-05 3.27963e-05 -0.000251819)
(4.91972e-05 1.05945e-05 -0.00020936)
(-1.10609e-05 -2.53009e-05 -0.000331092)
(6.74546e-06 -1.83301e-05 -0.000242341)
(3.29228e-05 -4.17823e-05 -0.000251591)
(2.53314e-05 -1.12056e-05 -0.000330775)
(4.17935e-05 3.30453e-05 -0.000251869)
(1.81947e-05 6.92502e-06 -0.000242796)
(-1.10962e-05 2.51754e-05 -0.000330631)
(3.31692e-05 4.16947e-05 -0.000251834)
(7.00809e-06 1.79424e-05 -0.000242871)
(-1.06695e-05 4.91894e-05 -0.000209395)
(1.10295e-05 2.52064e-05 -0.000331104)
(-6.82877e-06 1.82054e-05 -0.000242527)
(-3.29366e-05 4.17581e-05 -0.000251605)
(4.93242e-05 -1.10353e-05 -0.00020949)
(-4.92417e-05 1.041e-05 -0.000209363)
(-4.90953e-05 -9.98041e-06 -0.000209258)
(2.53965e-05 1.11448e-05 -0.000331369)
(1.84165e-05 -6.74075e-06 -0.000242551)
(4.18989e-05 -3.28527e-05 -0.000251813)
(1.10758e-05 -4.93317e-05 -0.000209509)
(-1.06652e-05 -4.91936e-05 -0.000209375)
(1.10854e-05 -2.51434e-05 -0.000330586)
(-3.3165e-05 -4.16157e-05 -0.0002517)
(-7.02894e-06 -1.79592e-05 -0.000242775)
(-2.53357e-05 1.12064e-05 -0.000330877)
(-4.18324e-05 -3.30737e-05 -0.000251992)
(-1.8149e-05 -6.93079e-06 -0.000242909)
(-7.8458e-06 1.72093e-05 -0.000229082)
(7.61696e-07 2.5583e-05 -0.000200061)
(1.7197e-05 -7.87064e-06 -0.000228895)
(7.84063e-06 1.72135e-05 -0.000229105)
(-7.60599e-07 2.55845e-05 -0.000200092)
(1.71771e-05 7.86364e-06 -0.000228876)
(2.55903e-05 -7.04227e-07 -0.000199898)
(-1.7175e-05 -7.88939e-06 -0.000228937)
(-1.71603e-05 1.35156e-05 -0.000184706)
(-1.718e-05 7.88492e-06 -0.000228921)
(-7.86452e-06 -1.71965e-05 -0.000229062)
(1.35982e-05 -1.71668e-05 -0.000184842)
(7.83672e-06 -1.72117e-05 -0.000229065)
(2.40044e-06 -5.91276e-06 -0.000162913)
(-5.91951e-06 2.44369e-06 -0.000162834)
(1.36178e-05 1.71702e-05 -0.000184793)
(2.55806e-05 6.98866e-07 -0.00019989)
(1.71768e-05 1.35548e-05 -0.000184645)
(1.71934e-05 -1.35532e-05 -0.000184653)
(5.90724e-06 -2.44312e-06 -0.000162868)
(-2.5567e-05 6.54996e-07 -0.000199941)
(5.91807e-06 2.45911e-06 -0.000162875)
(-2.55907e-05 -6.78467e-07 -0.00019991)
(-1.71841e-05 -1.35298e-05 -0.000184651)
(7.24739e-07 -2.5575e-05 -0.000200069)
(2.39194e-06 5.91302e-06 -0.000162892)
(-7.53138e-07 -2.55601e-05 -0.000200057)
(1.52205e-06 2.7955e-05 -0.000201097)
(2.79394e-05 1.50141e-06 -0.000200991)
(-1.54899e-06 2.79728e-05 -0.000201091)
(-1.36252e-05 1.71723e-05 -0.000184851)
(2.79088e-05 -1.49069e-06 -0.000201008)
(-2.79372e-05 1.48002e-06 -0.000201038)
(-2.79329e-05 -1.48112e-06 -0.000201086)
(1.51765e-06 -2.79559e-05 -0.000201083)
(-1.55668e-06 -2.79691e-05 -0.000201074)
(-1.36212e-05 -1.71545e-05 -0.000184816)
(-1.53983e-08 -4.03641e-09 -0.000161603)
(2.39102e-08 -1.5475e-08 -0.000154586)
(9.68838e-09 -1.08335e-09 -0.000154616)
(-3.10152e-08 -2.12012e-08 -0.000161511)
(-1.47821e-08 -5.52681e-09 -0.000161551)
(-1.62067e-09 -6.34341e-09 -0.000154648)
(4.5275e-09 -2.28499e-10 -0.000154753)
(3.16264e-09 1.22888e-08 -0.00016154)
(7.98777e-10 -4.9441e-09 -0.000161616)
(-1.87973e-08 2.375e-09 -0.000154411)
(-1.7113e-08 1.08243e-08 -0.000154534)
(2.30669e-08 8.51938e-09 -0.000161402)
(1.48235e-08 1.10791e-08 -0.000161488)
(-5.85235e-09 4.1726e-09 -0.000154667)
(1.21416e-09 7.54261e-09 -0.000154752)
(-4.86725e-09 -2.43598e-09 -0.000161559)
(-4.40664e-09 -1.40925e-08 -0.000161614)
(-1.32291e-08 8.85756e-10 -0.000154408)
(1.22626e-09 4.13605e-09 -0.000154553)
(1.931e-08 6.99974e-09 -0.000161396)
(-2.10743e-09 2.5374e-09 -0.000161498)
(-4.60084e-09 4.53416e-10 -0.000154641)
(4.03922e-09 3.06256e-10 -0.000154725)
(-2.8661e-09 1.69784e-09 -0.000161531)
(4.03785e-10 -5.12321e-09 -0.000161585)
(2.85026e-09 -5.41531e-09 -0.000154435)
(8.57335e-09 1.07017e-09 -0.000154573)
(1.55231e-09 -2.54618e-09 -0.000161409)
(-1.15153e-08 -2.84387e-09 -0.000161509)
(-2.5676e-09 -4.37388e-09 -0.000154632)
(4.86048e-09 -1.56922e-09 -0.000154724)
(5.43335e-10 7.6852e-09 -0.000161522)
(1.56085e-09 -3.1991e-09 -0.000161586)
(3.27898e-10 -4.60727e-09 -0.000154441)
(5.18466e-09 2.30396e-09 -0.000154574)
(5.45219e-09 -5.72386e-10 -0.000161417)
(-5.50598e-09 5.14453e-10 -0.000161512)
(-2.9265e-09 -3.44786e-09 -0.000154635)
(4.44971e-09 -5.14591e-10 -0.000154727)
(-3.82409e-11 6.57875e-09 -0.000161526)
(8.93885e-10 -4.41618e-09 -0.000161589)
(-1.31889e-09 -3.99686e-09 -0.00015444)
(4.4994e-09 2.61005e-09 -0.000154573)
(6.28777e-09 -1.24915e-10 -0.000161414)
(-7.49286e-09 -7.25662e-10 -0.00016151)
(-3.13431e-09 -2.94994e-09 -0.000154636)
(4.33104e-09 -1.40104e-10 -0.000154727)
(-4.30074e-10 5.86629e-09 -0.000161527)
(6.43091e-10 -4.9001e-09 -0.00016159)
(-1.82051e-09 -3.97741e-09 -0.000154439)
(4.75337e-09 2.83982e-09 -0.000154573)
(7.46096e-09 4.53738e-10 -0.000161414)
(-4.07407e-09 1.27208e-09 -0.000161515)
(-3.13386e-09 -3.4247e-09 -0.000154635)
(4.53119e-09 1.58118e-10 -0.000154728)
(-3.86873e-10 6.02378e-09 -0.000161525)
(8.53173e-10 -4.39901e-09 -0.000161593)
(1.66728e-09 -5.82804e-09 -0.000154441)
(-2.03407e-09 5.94983e-09 -0.000154562)
(-5.69236e-10 -3.34304e-09 -0.000161399)
(5.28915e-09 5.20735e-09 -0.000161539)
(-4.59247e-09 -1.05055e-09 -0.000154636)
(8.05231e-09 -7.48648e-09 -0.00015472)
(-3.45911e-09 -5.95545e-10 -0.000161512)
(7.23392e-09 9.09438e-09 -0.000161618)
(1.44769e-08 -1.1484e-08 -0.000154518)
(-1.48508e-08 1.25577e-08 -0.00015442)
(-2.99402e-08 -1.79985e-08 -0.00016134)
(6.5963e-08 3.70165e-08 -0.000161656)
(-9.82365e-09 1.03034e-08 -0.000154714)
(1.56644e-08 -2.28944e-08 -0.000154573)
(-1.81068e-08 -3.00621e-08 -0.000161453)
(3.9026e-08 7.05206e-08 -0.000161731)
(3.45827e-08 -1.85745e-08 -0.000155053)
(-2.56803e-09 2.62242e-08 -0.000154208)
(-1.80674e-07 -9.50546e-08 -0.000161311)
(2.44878e-07 1.45684e-07 -0.000162265)
(-1.70781e-08 3.12096e-08 -0.000155262)
(2.97979e-08 -1.11895e-08 -0.000154357)
(-9.38918e-08 -1.79106e-07 -0.000161428)
(1.54209e-07 2.62349e-07 -0.00016234)
(-4.24914e-08 -1.03245e-07 -0.00016052)
(-7.11246e-07 1.26559e-06 -0.000135449)
(-2.76272e-07 -2.0009e-07 -0.000165505)
(-6.81198e-07 -8.91086e-07 -0.000157554)
(-8.7077e-08 -9.73143e-08 -0.000160686)
(1.2812e-06 -7.31811e-07 -0.000135548)
(-1.81313e-07 -2.44313e-07 -0.000165623)
(-8.9474e-07 -6.88687e-07 -0.000157607)
(1.3291e-05 3.58213e-05 -0.000160119)
(6.39301e-06 -2.72357e-06 -0.000169501)
(3.57545e-05 1.32211e-05 -0.00016005)
(-2.69012e-06 6.51237e-06 -0.000169456)
(5.24141e-08 -2.51272e-08 -0.000161615)
(1.58516e-08 -1.0347e-08 -0.00016151)
(5.32497e-09 -3.56178e-09 -0.000161603)
(2.9932e-09 -1.20407e-08 -0.000161531)
(-2.0146e-08 -2.52072e-09 -0.000154741)
(3.10207e-08 -7.93851e-09 -0.000154748)
(1.7224e-08 -9.07812e-09 -0.000154611)
(-3.22331e-08 -8.43901e-09 -0.000154746)
(-1.81241e-08 -9.4246e-09 -0.000154609)
(-2.15417e-09 2.84373e-09 -0.000161588)
(-5.3331e-08 -2.56462e-08 -0.00016162)
(-1.5765e-08 -1.03427e-08 -0.00016151)
(-5.45889e-09 -3.77928e-09 -0.000161597)
(-3.70927e-09 -1.33046e-08 -0.000161529)
(6.01914e-09 -4.41093e-09 -0.000154734)
(-3.01889e-09 -3.46597e-09 -0.000154633)
(5.42108e-09 2.98505e-09 -0.000154739)
(-3.58063e-09 1.98985e-09 -0.000154635)
(-5.08855e-09 -1.47984e-09 -0.000154723)
(-4.08563e-09 -1.00999e-09 -0.000154729)
(-6.30408e-09 -5.15813e-09 -0.000154733)
(2.3869e-09 -5.05488e-09 -0.000154631)
(-5.36377e-09 2.7e-09 -0.000154736)
(3.44785e-09 2.60742e-09 -0.000154635)
(3.57841e-09 3.472e-10 -0.000161603)
(2.71278e-09 1.12582e-08 -0.000161522)
(5.04817e-08 2.39995e-08 -0.000161626)
(1.60043e-08 1.05978e-08 -0.000161531)
(3.01736e-08 7.59632e-09 -0.000154757)
(1.58611e-08 8.56905e-09 -0.000154623)
(-3.14717e-08 8.10297e-09 -0.000154756)
(-1.54207e-08 8.36084e-09 -0.000154621)
(-2.19503e-10 -6.28094e-09 -0.000161588)
(-1.5946e-08 4.24015e-09 -0.000161614)
(-4.32148e-09 1.40734e-09 -0.000161596)
(-2.59957e-09 1.15569e-08 -0.000161518)
(-5.37013e-08 2.59822e-08 -0.000161629)
(-1.29052e-08 8.61307e-09 -0.000161533)
(3.06476e-08 -2.09068e-08 -0.00016151)
(1.88134e-08 -7.94554e-09 -0.000161544)
(5.10687e-09 -1.5512e-08 -0.000161546)
(1.2263e-09 4.32793e-09 -0.000161621)
(-6.24862e-09 6.13632e-09 -0.000161499)
(-3.6314e-09 -2.38393e-09 -0.000161437)
(-3.11859e-09 1.21532e-08 -0.000161627)
(4.55979e-10 -6.81965e-09 -0.000161563)
(-2.44451e-08 -1.56644e-08 -0.000154584)
(-7.05777e-09 -5.25245e-11 -0.000154618)
(-9.9904e-09 7.63641e-09 -0.000154552)
(-1.1345e-09 -5.31791e-09 -0.000154459)
(8.94658e-09 7.21416e-09 -0.000154551)
(2.6051e-09 -4.76677e-09 -0.000154461)
(-5.41646e-09 -1.59222e-08 -0.000161542)
(3.218e-10 6.89329e-09 -0.000161616)
(3.84963e-09 4.73557e-09 -0.000161505)
(4.69935e-09 -1.84589e-09 -0.000161444)
(2.55823e-09 1.12395e-08 -0.000161622)
(-6.45951e-10 -6.99712e-09 -0.000161558)
(-2.60047e-09 4.0052e-09 -0.00015465)
(3.81394e-09 -1.65065e-09 -0.000154755)
(2.1586e-09 5.62973e-09 -0.000154759)
(-3.62025e-09 -1.25927e-09 -0.000154665)
(2.01952e-09 -5.96358e-09 -0.000154764)
(-4.14151e-09 -1.63546e-10 -0.000154666)
(1.28472e-09 -7.12649e-09 -0.000154646)
(-3.9259e-09 1.34536e-09 -0.000154752)
(1.96717e-09 5.35198e-09 -0.00015465)
(-2.28486e-09 -5.51916e-09 -0.000154757)
(-2.21836e-09 5.35662e-09 -0.000154758)
(3.87886e-09 -5.14408e-10 -0.000154662)
(-1.43562e-09 -7.30032e-09 -0.000154761)
(5.09382e-09 -2.43554e-09 -0.000154667)
(2.66798e-08 1.86296e-08 -0.000161523)
(1.78844e-08 7.31628e-09 -0.00016156)
(-4.37892e-09 -1.45338e-08 -0.000161629)
(-2.7521e-11 5.70109e-09 -0.000161552)
(-8.50216e-09 -7.53304e-09 -0.000161512)
(-4.48423e-09 2.12688e-09 -0.000161455)
(2.12489e-08 1.4438e-08 -0.000154593)
(7.77673e-09 2.37552e-10 -0.000154629)
(-2.20522e-08 1.47886e-08 -0.000154592)
(-5.82204e-09 -4.21159e-10 -0.000154625)
(-1.09187e-08 -8.10408e-09 -0.000154564)
(-3.12137e-09 4.59255e-09 -0.00015447)
(1.05248e-08 -8.01539e-09 -0.000154562)
(5.14972e-09 3.75778e-09 -0.000154467)
(-4.89963e-09 1.47425e-08 -0.000161538)
(1.72343e-09 -9.52719e-09 -0.000161619)
(-2.84469e-08 1.97793e-08 -0.000161526)
(-1.44657e-08 5.55676e-09 -0.000161554)
(3.07011e-09 -1.21237e-08 -0.000161625)
(-4.75974e-10 6.75988e-09 -0.000161558)
(2.70281e-09 -4.36349e-09 -0.00016151)
(4.58053e-09 1.86714e-09 -0.00016145)
(-2.48256e-08 9.56189e-09 -0.000161402)
(-1.49953e-08 1.11433e-08 -0.000161483)
(-3.42416e-09 1.63161e-10 -0.000161564)
(-4.66808e-09 1.47345e-08 -0.000161617)
(-8.28026e-09 7.80738e-09 -0.000161483)
(-2.93988e-08 1.22787e-08 -0.00016139)
(-2.40203e-09 1.0384e-08 -0.0001616)
(-4.01311e-09 9.3642e-10 -0.000161552)
(1.7607e-08 1.91617e-09 -0.000154409)
(1.70246e-08 1.08151e-08 -0.000154534)
(-1.08249e-08 8.70652e-09 -0.000154538)
(-2.22386e-08 4.11094e-09 -0.0001544)
(9.91955e-09 8.32653e-09 -0.000154537)
(2.18485e-08 3.97618e-09 -0.000154399)
(2.85642e-09 -8.08913e-10 -0.000161563)
(4.29494e-09 1.40106e-08 -0.000161611)
(7.48279e-09 7.37188e-09 -0.000161489)
(2.94603e-08 1.227e-08 -0.000161391)
(2.41362e-09 1.04356e-08 -0.000161594)
(3.6037e-09 2.48162e-10 -0.000161549)
(-6.37537e-09 -5.40476e-09 -0.00015467)
(1.03525e-09 -8.00166e-09 -0.000154754)
(2.49383e-09 4.04639e-09 -0.000154736)
(-6.17853e-09 4.56279e-09 -0.000154656)
(2.35735e-09 -4.39386e-09 -0.000154741)
(-6.21619e-09 -4.78075e-09 -0.000154658)
(5.56177e-09 3.3177e-09 -0.000154666)
(-1.4407e-09 6.91201e-09 -0.000154749)
(5.8565e-09 -4.14184e-09 -0.000154669)
(-1.9451e-09 -5.68193e-09 -0.000154755)
(-2.60283e-09 3.75091e-09 -0.000154735)
(5.83473e-09 3.70476e-09 -0.000154654)
(-2.85762e-09 -3.34601e-09 -0.000154742)
(5.19648e-09 -2.07389e-09 -0.00015466)
(-2.85934e-08 -1.17833e-08 -0.000161419)
(-1.47609e-08 -1.11618e-08 -0.000161503)
(-3.68353e-09 -1.27429e-08 -0.000161603)
(-4.10402e-09 -1.32238e-09 -0.000161543)
(-1.00117e-08 -8.89468e-09 -0.000161497)
(-2.90822e-08 -1.18861e-08 -0.000161411)
(-2.14833e-08 -3.44674e-09 -0.000154422)
(-1.85598e-08 -1.15062e-08 -0.00015455)
(2.0005e-08 -2.87661e-09 -0.000154421)
(1.59946e-08 -1.05099e-08 -0.000154543)
(-1.16692e-08 -9.08607e-09 -0.00015455)
(-2.33334e-08 -4.49422e-09 -0.000154413)
(9.70199e-09 -8.22202e-09 -0.000154547)
(2.38193e-08 -4.73885e-09 -0.000154408)
(2.48191e-09 1.5839e-09 -0.000161558)
(4.29076e-09 -1.40374e-08 -0.000161614)
(2.32986e-08 -8.73033e-09 -0.00016142)
(1.28327e-08 -1.00576e-08 -0.000161492)
(2.92509e-09 -1.1557e-08 -0.000161595)
(2.93705e-09 1.18796e-09 -0.000161542)
(7.87771e-09 -7.49068e-09 -0.0001615)
(3.18492e-08 -1.38308e-08 -0.000161408)
(-1.98664e-08 7.39824e-09 -0.000161394)
(4.84924e-09 8.6004e-10 -0.000161491)
(-1.17359e-09 -4.40527e-09 -0.000161535)
(5.22269e-10 5.08132e-09 -0.000161589)
(1.15949e-08 -2.84341e-09 -0.000161499)
(-7.54098e-09 8.25766e-10 -0.000161402)
(1.98163e-09 2.56907e-09 -0.000161588)
(1.51937e-09 -9.20047e-09 -0.000161527)
(1.23429e-08 5.48682e-10 -0.000154407)
(3.17558e-10 4.72125e-09 -0.000154554)
(7.99963e-09 1.44552e-09 -0.000154567)
(-1.85477e-09 -3.48459e-09 -0.000154423)
(-9.10387e-09 1.00154e-09 -0.000154565)
(2.63919e-09 -3.21818e-09 -0.000154424)
(1.20719e-09 -4.21468e-09 -0.000161531)
(1.3021e-09 8.1834e-09 -0.000161583)
(-1.35391e-08 -3.97907e-09 -0.000161504)
(7.68969e-09 8.61182e-10 -0.000161408)
(-2.91636e-09 9.30017e-10 -0.000161583)
(-1.75736e-09 -9.53401e-09 -0.000161521)
(-5.25224e-09 -2.00099e-09 -0.000154645)
(3.42725e-09 -1.81702e-09 -0.000154727)
(4.93068e-09 -1.76441e-09 -0.000154723)
(-3.2002e-09 -2.99486e-09 -0.000154632)
(4.48572e-09 6.4138e-10 -0.000154728)
(-3.64718e-09 1.74948e-09 -0.000154634)
(4.45282e-09 1.23725e-10 -0.00015464)
(-3.26406e-09 2.2053e-09 -0.000154722)
(4.24413e-09 2.42013e-10 -0.000154648)
(-1.76546e-09 -5.96165e-09 -0.00015473)
(-5.07148e-09 -2.26044e-09 -0.00015472)
(3.56628e-09 -2.04498e-09 -0.000154628)
(-3.64063e-09 -1.43109e-09 -0.000154724)
(4.85286e-09 -1.12757e-09 -0.000154635)
(-2.3619e-08 -9.55329e-09 -0.00016141)
(4.3949e-09 -1.1875e-09 -0.000161508)
(1.8261e-10 -5.9075e-09 -0.00016159)
(1.07892e-09 8.18055e-09 -0.000161518)
(9.21869e-09 1.37569e-09 -0.00016151)
(-7.85785e-09 -7.2308e-10 -0.00016142)
(-1.58604e-08 -1.86134e-09 -0.000154418)
(-6.40752e-10 -4.91697e-09 -0.000154565)
(1.40849e-08 -1.08468e-09 -0.000154414)
(2.09996e-09 -5.38403e-09 -0.00015456)
(6.84235e-09 -1.9687e-09 -0.000154575)
(-3.4594e-09 2.94523e-09 -0.000154433)
(-6.16136e-09 -2.25317e-09 -0.000154573)
(5.79114e-09 2.05473e-09 -0.000154429)
(1.51369e-09 3.54511e-09 -0.000161527)
(3.14222e-09 -1.14729e-08 -0.000161582)
(2.28005e-08 -8.95649e-09 -0.000161414)
(-1.79278e-10 -3.44928e-09 -0.000161508)
(-1.54221e-09 -3.28286e-09 -0.000161579)
(-1.00042e-09 8.38702e-09 -0.000161516)
(-1.25895e-08 3.26163e-09 -0.000161513)
(9.82665e-09 -2.05119e-09 -0.000161422)
(-2.83374e-09 -1.78174e-09 -0.00016141)
(1.16803e-08 -2.9653e-09 -0.000161504)
(2.47394e-09 -1.08374e-08 -0.000161527)
(1.87472e-09 2.82543e-09 -0.00016159)
(9.55034e-09 -1.87582e-09 -0.000161506)
(-3.67002e-09 -1.42108e-09 -0.000161413)
(1.45012e-09 3.60856e-09 -0.000161592)
(2.18354e-09 -1.02774e-08 -0.000161529)
(-4.06352e-09 -5.88148e-09 -0.000154433)
(-8.72662e-09 1.03662e-09 -0.000154572)
(6.43263e-09 1.83843e-09 -0.000154575)
(2.47956e-09 -5.38005e-09 -0.00015444)
(-7.16346e-09 1.53339e-09 -0.000154574)
(-2.9284e-09 -5.54558e-09 -0.000154439)
(-3.28212e-09 -1.22562e-08 -0.000161525)
(-2.38794e-09 1.84633e-09 -0.000161584)
(-1.0048e-08 -2.13636e-09 -0.000161512)
(3.98699e-09 -1.28089e-09 -0.000161414)
(-1.56814e-09 3.3894e-09 -0.000161587)
(-2.72409e-09 -1.12119e-08 -0.000161527)
(-3.48238e-09 2.21949e-09 -0.000154635)
(4.17227e-09 -1.6525e-10 -0.000154726)
(4.66796e-09 -1.05908e-09 -0.000154726)
(-2.74482e-09 -3.90877e-09 -0.000154633)
(4.32334e-09 1.64232e-10 -0.000154731)
(-3.20219e-09 2.6611e-09 -0.000154635)
(2.17302e-09 -5.44787e-09 -0.000154629)
(-5.19279e-09 -2.42849e-09 -0.000154722)
(3.17416e-09 2.87414e-09 -0.000154633)
(-4.91945e-09 1.64917e-09 -0.000154727)
(-4.82536e-09 -1.4832e-09 -0.000154725)
(2.33058e-09 -4.93261e-09 -0.000154631)
(-4.59767e-09 6.35185e-10 -0.000154732)
(2.43216e-09 4.69059e-09 -0.000154636)
(-7.18743e-09 -7.32757e-10 -0.000161424)
(1.14226e-08 2.71859e-09 -0.000161519)
(-2.17802e-10 -6.68828e-09 -0.000161594)
(1.67697e-09 9.11685e-09 -0.00016152)
(7.52311e-09 5.69647e-10 -0.000161516)
(-3.46424e-09 1.74635e-09 -0.00016143)
(-2.42731e-11 4.35518e-09 -0.000154443)
(6.55803e-09 -1.94025e-09 -0.000154584)
(3.98667e-11 4.313e-09 -0.000154441)
(-8.33043e-09 -1.24353e-09 -0.000154578)
(5.27738e-09 -2.3999e-09 -0.000154583)
(5.74644e-10 4.69175e-09 -0.000154448)
(-6.43156e-09 -1.84452e-09 -0.00015458)
(4.18485e-10 4.28781e-09 -0.000154444)
(-2.62209e-09 1.11717e-08 -0.000161514)
(-1.2047e-09 -4.00593e-09 -0.000161581)
(3.42686e-09 1.39958e-09 -0.000161429)
(-1.19402e-08 3.02725e-09 -0.000161515)
(-3.27028e-10 -5.83432e-09 -0.000161584)
(-2.29068e-09 1.06315e-08 -0.000161515)
(-9.08432e-09 1.64724e-09 -0.000161523)
(7.88637e-09 -1.10697e-09 -0.000161433)
(-5.74139e-09 -3.31091e-10 -0.000161414)
(8.28098e-09 -1.19531e-09 -0.000161506)
(1.7716e-09 -9.51132e-09 -0.000161531)
(1.06781e-09 4.31192e-09 -0.000161593)
(7.5521e-09 -8.05635e-10 -0.000161505)
(-6.8957e-09 2.9375e-10 -0.000161414)
(9.45007e-10 4.515e-09 -0.000161593)
(1.45783e-09 -8.93566e-09 -0.000161532)
(-9.85346e-10 -4.84378e-09 -0.00015444)
(-3.29237e-09 3.05317e-09 -0.000154575)
(4.43741e-09 2.61509e-09 -0.000154574)
(-7.2878e-10 -4.22249e-09 -0.00015444)
(-5.25194e-09 2.28677e-09 -0.000154573)
(1.92702e-09 -3.79425e-09 -0.000154441)
(-1.85342e-09 -9.5403e-09 -0.000161528)
(7.55457e-10 7.34924e-09 -0.000161588)
(-9.41923e-09 -1.90153e-09 -0.000161511)
(6.87251e-09 2.76723e-10 -0.00016142)
(-1.84572e-09 2.9642e-09 -0.000161589)
(-1.64831e-09 -9.1526e-09 -0.000161527)
(-3.72592e-09 1.55295e-09 -0.000154638)
(3.87876e-09 -9.64609e-10 -0.000154729)
(4.41305e-09 -3.98756e-10 -0.000154727)
(-3.12315e-09 -2.97582e-09 -0.000154635)
(4.14064e-09 -3.13443e-10 -0.000154732)
(-3.49572e-09 1.93283e-09 -0.000154637)
(2.75338e-09 -3.82309e-09 -0.000154634)
(-3.62373e-09 1.58017e-09 -0.000154725)
(2.95274e-09 3.16832e-09 -0.000154641)
(-1.98553e-09 -5.74392e-09 -0.000154732)
(-4.56262e-09 -9.2569e-10 -0.000154725)
(3.512e-09 -1.95966e-09 -0.000154632)
(-3.17723e-09 -2.65792e-09 -0.000154729)
(4.88349e-09 -1.43853e-09 -0.000154638)
(-9.73737e-09 -2.00101e-09 -0.000161428)
(8.22136e-09 1.02958e-09 -0.000161521)
(-6.8156e-10 -7.54141e-09 -0.000161595)
(1.07045e-09 8.01056e-09 -0.000161523)
(5.46378e-09 -5.24602e-10 -0.000161516)
(-6.60608e-09 6.58062e-11 -0.000161431)
(-2.45051e-09 3.55074e-09 -0.000154448)
(3.31147e-09 -3.13332e-09 -0.000154585)
(1.59254e-09 3.97833e-09 -0.000154445)
(-1.33645e-09 -3.78355e-09 -0.00015458)
(3.47236e-09 -3.08886e-09 -0.000154582)
(-2.34814e-09 3.63501e-09 -0.000154449)
(-2.37737e-09 -3.55567e-09 -0.00015458)
(5.25446e-09 2.50103e-09 -0.000154445)
(-1.09277e-09 8.04116e-09 -0.00016152)
(2.83929e-09 -1.10767e-08 -0.000161585)
(9.63752e-09 -1.81528e-09 -0.000161436)
(-3.41611e-09 -1.58099e-09 -0.000161522)
(-4.67671e-10 -5.30228e-09 -0.000161584)
(-7.17913e-10 7.70009e-09 -0.00016152)
(-8.94678e-09 1.41108e-09 -0.000161521)
(8.79811e-09 -1.39169e-09 -0.000161434)
(-7.48327e-09 6.05675e-10 -0.000161414)
(7.54313e-09 -7.80394e-10 -0.000161505)
(1.37132e-09 -8.78504e-09 -0.000161532)
(8.102e-10 4.80543e-09 -0.000161593)
(7.55767e-09 -7.65085e-10 -0.000161506)
(-7.65968e-09 6.80266e-10 -0.000161414)
(7.89489e-10 4.86852e-09 -0.000161594)
(1.356e-09 -8.78841e-09 -0.000161532)
(2.90242e-10 -4.38659e-09 -0.000154438)
(-4.76269e-09 2.53174e-09 -0.000154572)
(4.53005e-09 2.71859e-09 -0.000154573)
(-1.407e-09 -3.99859e-09 -0.000154439)
(-5.36815e-09 2.36423e-09 -0.000154572)
(8.39163e-10 -4.20472e-09 -0.000154438)
(-2.1708e-09 -1.0188e-08 -0.000161531)
(-1.31033e-09 3.85816e-09 -0.000161588)
(-8.15149e-09 -1.0854e-09 -0.000161512)
(7.82509e-09 7.28428e-10 -0.000161414)
(-8.96199e-10 4.68345e-09 -0.00016159)
(-1.87229e-09 -9.67962e-09 -0.00016153)
(-3.89935e-09 1.15405e-09 -0.000154639)
(3.7429e-09 -1.37281e-09 -0.000154729)
(4.36245e-09 4.54678e-11 -0.000154727)
(-3.19315e-09 -2.90919e-09 -0.000154636)
(4.08965e-09 -7.81156e-10 -0.000154733)
(-3.57224e-09 1.83096e-09 -0.000154637)
(2.74037e-09 -4.04113e-09 -0.000154634)
(-4.65174e-09 -1.01512e-09 -0.000154725)
(3.69696e-09 1.54406e-09 -0.000154638)
(-4.44901e-09 3.77165e-10 -0.000154731)
(-4.52203e-09 -3.92679e-10 -0.000154726)
(2.77465e-09 -3.96603e-09 -0.000154634)
(-4.36564e-09 -2.79537e-10 -0.000154733)
(2.83056e-09 3.81926e-09 -0.000154639)
(-1.14241e-08 -2.90031e-09 -0.000161428)
(7.50304e-09 6.26555e-10 -0.000161521)
(-8.8158e-10 -7.98758e-09 -0.000161596)
(9.16168e-10 7.76525e-09 -0.000161523)
(5.36597e-09 -6.18443e-10 -0.000161517)
(-7.3797e-09 -3.32499e-10 -0.00016143)
(-4.0002e-09 2.96704e-09 -0.000154447)
(2.50462e-09 -3.47492e-09 -0.000154584)
(4.38529e-09 2.78866e-09 -0.000154446)
(-4.26039e-09 -2.77433e-09 -0.000154578)
(3.53621e-09 -3.20092e-09 -0.000154582)
(-3.20833e-09 3.33915e-09 -0.000154448)
(-4.61377e-09 -2.66745e-09 -0.000154579)
(4.20383e-09 2.92089e-09 -0.000154444)
(-1.51326e-09 9.13131e-09 -0.000161519)
(-1.76325e-10 -5.91262e-09 -0.000161585)
(7.83079e-09 -8.46511e-10 -0.000161435)
(-7.6808e-09 7.66647e-10 -0.000161517)
(2.47095e-10 -6.94096e-09 -0.000161586)
(-1.50464e-09 9.24369e-09 -0.000161517)
(-6.77878e-09 3.80585e-10 -0.000161524)
(1.18826e-08 -3.19024e-09 -0.000161433)
(-7.88397e-09 7.76915e-10 -0.000161412)
(6.81428e-09 -4.69104e-10 -0.000161509)
(1.48837e-09 -9.0821e-09 -0.00016153)
(1.0697e-09 4.19116e-09 -0.000161597)
(2.27483e-09 1.59937e-09 -0.000161515)
(-6.20691e-09 2.08577e-11 -0.000161408)
(3.21226e-09 -5.44524e-10 -0.000161604)
(9.44475e-10 -7.76438e-09 -0.000161526)
(1.02936e-09 -4.27142e-09 -0.000154437)
(-2.65987e-09 3.6501e-09 -0.000154574)
(2.31967e-09 4.02399e-09 -0.000154571)
(-1.27095e-09 -4.41518e-09 -0.000154438)
(-3.05129e-09 3.73561e-09 -0.00015457)
(2.61801e-09 -3.91799e-09 -0.000154439)
(-1.48906e-09 -8.96233e-09 -0.000161527)
(8.30643e-10 7.34382e-09 -0.000161592)
(-4.20951e-09 4.66457e-10 -0.000161521)
(6.00497e-09 -4.80162e-11 -0.000161414)
(-4.17546e-09 -2.23292e-09 -0.000161601)
(-9.12395e-10 -7.56471e-09 -0.00016152)
(-3.90782e-09 1.5766e-09 -0.000154638)
(3.91133e-09 -1.72166e-09 -0.00015473)
(5.60895e-09 -1.94696e-09 -0.000154728)
(-3.42459e-09 -3.31902e-09 -0.000154634)
(5.25349e-09 1.02974e-09 -0.000154733)
(-3.92628e-09 1.91028e-09 -0.000154635)
(2.94517e-09 -3.84233e-09 -0.000154634)
(-3.72383e-09 2.20183e-09 -0.000154726)
(3.07637e-09 3.32645e-09 -0.000154641)
(-2.1242e-09 -6.23753e-09 -0.000154733)
(-5.81711e-09 -2.57887e-09 -0.000154726)
(3.80844e-09 -2.29797e-09 -0.00015463)
(-4.36828e-09 -1.00595e-09 -0.00015473)
(5.16627e-09 -1.00754e-09 -0.000154637)
(-1.17363e-08 -3.03356e-09 -0.000161426)
(6.94321e-09 4.2001e-10 -0.000161524)
(1.58015e-09 -2.51015e-09 -0.000161607)
(3.2235e-10 6.43751e-09 -0.000161517)
(4.31811e-10 -2.82713e-09 -0.000161527)
(-5.37774e-09 6.05985e-10 -0.000161425)
(-4.54154e-09 2.92521e-09 -0.000154446)
(3.05312e-09 -3.58267e-09 -0.000154584)
(3.71194e-09 3.36191e-09 -0.000154443)
(-7.77932e-10 -4.34905e-09 -0.000154578)
(1.1815e-09 -4.52664e-09 -0.00015458)
(-2.86237e-09 3.83317e-09 -0.000154447)
(-1.00543e-10 -5.02736e-09 -0.000154578)
(5.92031e-09 2.63036e-09 -0.000154443)
(-8.13302e-10 7.62237e-09 -0.000161519)
(2.73765e-09 -1.07231e-08 -0.000161589)
(1.18746e-08 -2.972e-09 -0.000161433)
(-1.99109e-09 -2.31154e-09 -0.000161525)
(-2.89151e-09 2.37333e-11 -0.000161596)
(-2.3731e-10 6.60007e-09 -0.000161514)
(-3.5637e-09 -1.0296e-09 -0.000161531)
(7.91179e-09 -1.06528e-09 -0.000161428)
(-9.07416e-10 -2.48694e-09 -0.000161399)
(-5.12817e-09 5.10372e-09 -0.000161534)
(-1.39292e-09 -2.78056e-09 -0.000161517)
(7.36099e-09 -9.14577e-09 -0.000161623)
(-2.14727e-08 1.33243e-08 -0.000161578)
(7.96299e-09 -6.78846e-09 -0.000161378)
(1.62368e-08 -2.67823e-08 -0.000161666)
(-5.725e-09 6.00139e-09 -0.000161496)
(-2.75068e-09 -6.26098e-09 -0.000154439)
(1.93034e-09 5.93294e-09 -0.000154561)
(-9.11452e-09 9.16186e-09 -0.000154525)
(6.75226e-09 -8.12017e-09 -0.000154455)
(8.39534e-09 8.86506e-09 -0.000154524)
(-7.49555e-09 -8.40476e-09 -0.000154454)
(6.92493e-10 -3.98223e-09 -0.000161515)
(-8.30255e-09 -1.09227e-08 -0.000161619)
(2.10543e-08 1.30694e-08 -0.000161584)
(-7.99254e-09 -6.83656e-09 -0.000161378)
(-1.69563e-08 -2.80574e-08 -0.000161664)
(5.43794e-09 5.51507e-09 -0.000161493)
(-5.4198e-09 -9.87833e-10 -0.000154639)
(7.34313e-09 5.79249e-09 -0.000154721)
(1.15771e-08 -1.52244e-08 -0.000154682)
(-6.89477e-09 3.94922e-09 -0.000154651)
(1.10086e-08 1.38155e-08 -0.000154685)
(-7.20859e-09 -4.86466e-09 -0.000154653)
(4.27039e-09 -1.96914e-09 -0.000154633)
(-8.53211e-09 -8.73822e-09 -0.000154718)
(5.28052e-09 -6.5926e-10 -0.000154637)
(-8.22097e-09 7.91471e-09 -0.000154723)
(-1.20448e-08 -1.6451e-08 -0.000154681)
(6.6605e-09 3.37956e-09 -0.000154649)
(-1.15812e-08 1.51125e-08 -0.000154687)
(6.69239e-09 -3.46781e-09 -0.000154654)
(-4.33664e-09 4.30182e-10 -0.000161413)
(-6.71915e-09 -5.95927e-09 -0.00016155)
(1.47038e-08 2.38806e-08 -0.000161666)
(-6.32851e-09 -7.37841e-09 -0.000161488)
(-2.45952e-08 -1.51597e-08 -0.000161591)
(8.75431e-09 7.42777e-09 -0.000161391)
(-9.27742e-10 4.85297e-09 -0.000154448)
(-4.09319e-09 -6.80139e-09 -0.000154573)
(1.0739e-09 4.76368e-09 -0.000154448)
(2.8203e-09 -6.3434e-09 -0.000154567)
(-1.07477e-08 -9.84948e-09 -0.000154533)
(5.93561e-09 7.82104e-09 -0.000154463)
(9.80148e-09 -9.41248e-09 -0.000154531)
(-4.81817e-09 7.36901e-09 -0.00015446)
(1.20844e-09 3.28801e-09 -0.000161505)
(-7.24204e-09 8.96823e-09 -0.000161614)
(1.2552e-09 2.26086e-09 -0.00016142)
(5.00681e-09 -5.11069e-09 -0.000161546)
(-1.56707e-08 2.55478e-08 -0.000161657)
(5.71862e-09 -5.80146e-09 -0.000161482)
(2.27027e-08 -1.39003e-08 -0.000161598)
(-4.99227e-09 4.95006e-09 -0.000161396)
(2.95775e-08 -1.7731e-08 -0.000161337)
(-6.26385e-08 3.50178e-08 -0.000161649)
(-1.62148e-08 2.69159e-08 -0.000161456)
(3.90071e-08 -7.00422e-08 -0.000161737)
(-1.34892e-07 7.47821e-08 -0.000161793)
(7.96463e-08 -4.31678e-08 -0.000161303)
(8.03654e-08 -1.45593e-07 -0.000161882)
(-4.1464e-08 7.66067e-08 -0.000161422)
(-1.55835e-08 -1.1927e-08 -0.000154516)
(1.64432e-08 1.31818e-08 -0.000154421)
(-2.13071e-08 1.86514e-08 -0.000154252)
(2.13083e-08 -1.438e-08 -0.000154688)
(1.92055e-08 1.78259e-08 -0.000154251)
(-2.12153e-08 -1.43845e-08 -0.000154689)
(1.63853e-08 2.73048e-08 -0.000161452)
(-3.70595e-08 -6.67671e-08 -0.000161734)
(1.32013e-07 7.30153e-08 -0.000161795)
(-7.88808e-08 -4.27536e-08 -0.00016131)
(-8.2205e-08 -1.48703e-07 -0.00016188)
(4.26441e-08 7.89274e-08 -0.000161417)
(-1.02808e-08 -1.14504e-08 -0.000154719)
(1.4805e-08 2.09265e-08 -0.000154574)
(2.19795e-08 -3.0472e-08 -0.000154398)
(-1.22844e-08 1.6158e-08 -0.000154889)
(2.10867e-08 2.85462e-08 -0.000154399)
(-1.23155e-08 -1.64247e-08 -0.000154893)
(9.79308e-09 1.02917e-08 -0.000154714)
(-1.51916e-08 -2.15816e-08 -0.000154572)
(1.03513e-08 -1.17804e-08 -0.000154722)
(-1.39089e-08 1.82918e-08 -0.000154578)
(-2.26672e-08 -3.22435e-08 -0.000154398)
(1.26488e-08 1.73325e-08 -0.000154887)
(-2.21676e-08 3.11142e-08 -0.000154402)
(1.42145e-08 -2.1218e-08 -0.000154894)
(2.70971e-08 1.61083e-08 -0.000161349)
(-6.42931e-08 -3.59189e-08 -0.000161666)
(7.94328e-08 1.43929e-07 -0.000161875)
(-4.18341e-08 -7.73987e-08 -0.000161418)
(-1.38142e-07 -7.64993e-08 -0.000161801)
(8.16197e-08 4.42484e-08 -0.000161318)
(1.25935e-08 1.07177e-08 -0.000154524)
(-1.6926e-08 -1.33718e-08 -0.00015443)
(-1.39421e-08 1.13909e-08 -0.000154521)
(1.89363e-08 -1.41133e-08 -0.000154425)
(-2.09134e-08 -1.85349e-08 -0.000154259)
(1.99886e-08 1.38139e-08 -0.000154696)
(2.16194e-08 -1.88761e-08 -0.000154261)
(-1.93655e-08 1.36397e-08 -0.000154691)
(1.714e-08 -2.86082e-08 -0.000161447)
(-3.48303e-08 6.25856e-08 -0.000161727)
(-2.73581e-08 1.64353e-08 -0.000161356)
(6.81448e-08 -3.81286e-08 -0.000161669)
(-8.17299e-08 1.47987e-07 -0.000161876)
(4.34407e-08 -8.02898e-08 -0.000161412)
(1.32476e-07 -7.34341e-08 -0.000161811)
(-7.85721e-08 4.25307e-08 -0.000161321)
(1.78568e-07 -9.36023e-08 -0.000161305)
(-2.47135e-07 1.46699e-07 -0.000162271)
(-9.19304e-08 1.75732e-07 -0.000161427)
(1.51851e-07 -2.57615e-07 -0.000162359)
(-2.83236e-07 2.61385e-07 -0.000163172)
(3.42451e-07 -1.75968e-07 -0.000161574)
(2.66863e-07 -2.88925e-07 -0.000163275)
(-1.72336e-07 3.36341e-07 -0.000161697)
(-3.62807e-08 -1.91958e-08 -0.000155052)
(-9.61936e-10 2.47607e-08 -0.000154206)
(1.46446e-07 8.67664e-08 -0.000154515)
(5.97811e-08 -2.74326e-08 -0.000155915)