/*--------------------------------*- C++ -*----------------------------------*\
| =========                 |                                                 |
| \\      /  F ield         | OpenFOAM: The Open Source CFD Toolbox           |
|  \\    /   O peration     | Version:  2206                                  |
|   \\  /    A nd           | Website:  www.openfoam.com                      |
|    \\/     M anipulation  |                                                 |
\*---------------------------------------------------------------------------*/
FoamFile
{
    version     2.0;
    format      ascii;
    arch        "LSB;label=32;scalar=64";
    class       volScalarField;
    location    "26";
    object      omega;
}
// * * * * * * * * * * * * * * * * * * * * * * * * * * * * * * * * * * * * * //

dimensions      [0 0 -1 0 0 0 0];

internalField   nonuniform List<scalar> 
66940
(
17.9876
21.0408
20.8162
22.9132
17.9628
21.0902
20.8639
23.0661
17.9216
21.1005
20.9022
22.9915
17.9037
21.0882
20.9157
23.0246
17.8472
21.0713
20.905
22.9662
17.8493
21.0807
20.8906
23.0345
17.8505
21.0755
20.8575
23.0997
17.8642
21.0772
20.843
23.055
17.8595
21.0931
20.8727
23.0027
17.8211
21.0789
20.9053
23.0353
17.8926
20.9594
20.8517
22.8888
18.2857
21.7294
21.603
25.1128
22.8622
20.9172
20.8644
22.7997
21.0791
20.9743
20.8913
20.9462
22.7369
20.6896
20.8106
22.8261
22.5764
22.9249
20.8838
20.8638
20.9693
20.9392
22.6863
22.7936
20.9103
20.9192
21.1373
21.0825
20.9278
21.0675
21.2344
22.5904
22.8266
20.7378
20.7365
20.8789
22.9891
22.7354
23.0068
20.9098
20.8776
20.9886
20.9448
22.4898
22.8548
21.0733
20.9147
21.1152
21.1172
21.1968
21.0708
21.2934
22.5235
22.8824
20.8258
20.7722
20.9363
22.9185
22.676
22.9164
20.871
20.7885
20.9557
20.9796
22.6452
22.8616
20.8917
20.9209
21.1415
21.1167
21.1952
21.0423
21.2316
22.6469
22.8552
20.7671
20.924
20.9165
22.9503
22.7113
22.9527
20.8429
20.8512
20.9457
20.9436
22.7053
22.8754
21.0713
21.0341
21.1103
21.0855
21.1116
21.0376
21.1867
22.6302
22.8787
20.8338
20.8101
20.9432
22.8884
22.7364
22.9667
20.7858
20.8292
20.9765
20.9344
22.6565
22.8963
21.0233
20.9989
21.0811
21.0961
21.0129
21.04
21.1853
22.6136
22.8675
20.8743
20.8656
20.9419
22.9586
22.8027
22.9362
20.9182
20.8509
20.9382
20.9331
22.765
22.9944
20.9798
20.9565
21.0568
21.0454
20.9924
21.0017
21.1986
22.6136
22.8418
20.7543
20.7265
20.9347
23.0241
22.7171
22.9569
20.8206
20.8152
20.9478
20.906
22.8338
22.9327
20.8979
20.8456
21.1374
21.073
21.0485
20.9604
21.1601
22.6998
22.8587
20.8676
20.8519
20.9152
22.9915
22.6625
23.0119
20.8751
20.8002
20.9392
20.9228
22.7944
22.9011
20.958
20.9887
21.1286
21.0461
21.0333
21.0406
21.135
22.6713
22.8968
20.8118
20.7873
20.899
22.8008
22.8259
22.9528
20.839
20.7947
20.9551
20.8897
22.7174
22.9248
20.9394
20.9314
21.1259
21.015
21.0393
21.0277
21.1059
22.7374
22.8622
20.6985
20.7905
20.9115
22.9852
22.7724
22.8493
20.8601
20.8198
20.8916
20.8666
22.7928
22.9159
20.9316
20.9377
20.9948
20.8081
21.0045
20.9688
21.0604
22.6564
22.7541
20.8254
20.8353
20.8419
22.8496
22.6029
23.0625
20.7075
20.6975
21.2379
21.2716
22.7372
23.21
20.8979
20.7829
21.2629
21.1474
20.9526
21.0204
21.2097
22.5407
23.3289
20.6977
21.2174
21.2457
23.0924
25.1526
21.5859
21.6247
25.5502
21.614
21.5362
18.222
18.2128
18.2273
21.5848
25.1446
21.5734
394.6
18.0354
17.9516
17.9215
17.9337
35.3798
20.9861
79.3693
19.3242
22.8684
145.186
142.847
83.7657
262.76
83.8574
263.763
398.925
398.906
88.8841
266.522
88.8879
267.003
18.0447
18.0498
18.0476
18.0125
17.9912
17.9546
17.9911
35.3577
79.5964
19.3609
20.8749
35.3948
80.1085
19.3737
400.223
400.72
34.1766
19.2553
77.1355
20.7813
34.4564
19.2397
77.4194
146.958
142.947
22.9971
146.408
143.132
84.4452
264.527
85.069
264.266
399.129
399.088
89.0986
268.165
89.2802
266.922
18.1291
18.0433
18.0898
17.9665
17.9808
17.9254
17.9761
35.8249
80.0943
19.3859
20.9063
35.8103
80.0557
19.3931
400.555
400.743
34.1136
19.2044
77.2653
20.8165
34.326
19.2141
77.5655
147.85
143.822
23.0215
146.476
143.698
84.6036
264.306
85.4329
264.362
399.09
399.171
89.6998
267.857
89.855
267.405
18.0509
18.0688
18.032
18.0222
17.9262
17.8526
17.9124
36.0488
80.5372
19.3915
20.9471
35.8042
80.4529
19.3872
400.11
400.527
34.4614
19.1959
77.8542
20.8415
34.6173
19.2007
77.8489
146.983
144.793
22.9872
145.912
144.059
84.737
264.462
85.0986
264.904
399.7
399.019
90.4077
267.714
90.8922
267.33
18.0722
17.9783
17.9642
17.8928
17.8725
17.8453
17.8779
35.7711
80.4204
19.3793
20.9506
35.9055
80.3142
19.3777
400.783
400.624
34.4534
19.1793
77.9296
20.8367
34.5256
19.187
78.177
146.759
144.593
23.0018
145.732
143.995
84.554
265.243
84.7787
264.833
398.572
399.31
89.8117
268.188
90.7218
267.449
17.9127
17.9685
17.9457
17.8914
17.8459
17.8438
17.8419
36.1724
80.2446
19.3396
20.9392
36.1133
80.0649
19.3125
401.016
400.944
34.4829
19.1646
77.9209
20.8155
34.5156
19.1598
78.1793
146.999
143.638
22.9821
146.117
143.716
84.6296
265.891
84.7585
264.809
398.851
399.262
90.4904
267.233
90.693
267.29
17.8789
17.9372
17.9284
17.8904
17.8026
17.733
17.7767
36.1315
79.9421
19.3042
20.8853
36.1789
80.0804
19.2949
400.986
400.814
34.4443
19.1422
78.346
20.7885
34.4232
19.142
78.0504
146.596
144.55
23.075
146.172
143.943
84.3138
263.915
85.0319
264.865
398.724
398.993
90.207
267.948
90.4605
267.809
17.8262
17.7772
17.9067
17.9037
17.7671
17.7226
17.7887
35.9969
80.4456
19.3017
20.9827
35.9964
80.1983
19.2974
401.044
401.043
34.2409
19.1173
77.9378
20.6983
34.6043
19.1126
77.8737
146.042
144.869
23.07
146.059
143.984
84.4023
264.683
84.6668
264.604
399.306
398.814
88.5619
267.976
89.5451
266.863
17.8259
17.799
17.8366
17.8947
17.7615
17.729
17.7808
36.2326
80.0431
19.3156
20.9969
36.0137
80.0088
19.3273
400.977
400.594
34.3603
19.1025
78.448
20.6931
34.5013
19.1121
78.4385
146.522
144.939
22.9916
146.015
143.515
84.6727
265.008
84.6355
264.102
399.232
398.871
87.5953
267.295
88.0047
267.177
17.9302
17.8072
17.9455
17.9363
17.7871
17.7316
17.8142
36.3734
79.9973
19.3415
20.9595
36.5293
80.1504
19.3455
400.482
400.768
34.6455
19.1149
78.3468
20.6933
34.6278
19.1304
78.6568
146.666
144.747
22.9467
145.941
144.251
84.3198
265.717
84.8525
263.377
398.225
398.268
87.6675
267.52
87.7558
266.801
17.8566
17.7992
17.8373
17.826
17.797
17.7455
17.7545
35.9426
80.3505
19.3277
20.948
36.0858
80.4889
19.3275
399.833
400.15
34.6747
19.1262
79.0805
20.8261
34.6769
19.1378
79.0236
146.678
144.272
22.9783
146.439
144.102
88.4994
266.201
87.3842
263.02
397.11
396.498
89.614
267.933
88.2864
263.377
17.8942
17.8087
17.7897
18.2328
18.2204
18.1968
18.2105
36.8253
79.9727
19.2439
20.7897
35.9248
82.4869
19.29
397.548
390.468
36.9688
19.1359
79.7295
20.7285
34.4848
19.3727
82.1092
147.056
143.83
22.9223
146.27
146.051
131.462
1772.7
159.807
378.877
1640.47
581.433
130.816
1772.41
160.319
378.384
18.4126
17.84
17.7247
19.2133
17.5388
18.6458
18.5725
52.5478
265.181
19.5184
21.0917
49.6574
229.624
19.6619
1640.06
582.878
51.8892
19.4484
265.554
21.1007
48.9809
19.6501
228.131
333.186
326.745
24.0678
360.072
359.49
398.064
400.113
400.817
401.297
22.8966
142.502
144.678
144.172
145.634
264.49
20.8166
78.2023
82.797
260.724
262.279
83.2131
84.9344
264.595
261.715
83.7826
33.8924
20.7909
76.3591
19.2336
76.8458
19.292
33.5968
33.7525
20.7114
77.9035
19.2279
76.2782
19.2724
33.5756
22.7812
142.933
144.193
399.509
398.546
396.755
22.4687
142.563
143.732
138.312
140.605
399.667
394.643
88.3826
261.796
267.165
86.0919
35.6872
20.945
79.1476
19.3439
79.6664
19.3404
35.6627
87.9513
266.483
267.098
88.4385
35.3255
20.8117
19.3115
79.094
19.3085
80.06
35.6064
87.1818
266.412
34.9692
20.8658
19.2795
80.1995
86.5208
266.327
34.7928
20.9337
78.8982
19.3552
77.7143
19.3562
35.275
84.6156
265.933
263.529
87.0948
33.5456
20.901
19.3187
79.8325
19.3137
78.1825
35.3652
81.7207
267.293
258.998
87.3896
399.198
401.17
22.7369
144.64
142.01
145.048
142.163
397.4
397.623
34.4206
20.677
19.2841
74.4626
19.3059
77.3435
34.3456
34.9482
20.7496
19.2189
77.1916
19.2604
77.882
34.386
85.9629
262.896
260.94
85.3004
85.4907
263.239
263.362
85.083
400.107
396.679
22.7381
142.841
141.926
140.765
140.634
397.702
397.818
398.065
393.706
391.358
398.383
395.064
400.689
139.518
140.586
22.8954
142.67
144.766
399.274
396.011
400.455
397.864
22.7911
142.954
144.4
139.852
140.754
84.5717
260.013
79.7794
264.582
33.7216
74.3704
19.2191
20.8449
32.9299
77.1525
19.2462
33.9082
76.8479
19.2392
20.8219
33.2389
77.9248
19.2376
81.1444
263.34
255.218
84.5512
83.1351
263.799
261.113
84.6603
33.0871
20.839
77.1925
19.2206
74.9578
19.2262
33.9765
33.5417
20.8406
78.0033
19.2291
76.9715
19.2395
34.4043
139.345
140.493
22.768
143.023
144.718
393.733
400.357
395.319
395.506
22.6264
142.741
144.089
139.369
141.757
400.147
397.695
35.7953
76.9608
19.3546
21.0788
35.3071
79.7493
19.3637
88.8746
263.004
87.2577
267.814
35.934
19.3367
76.4862
20.997
35.3398
19.3451
79.0176
86.4893
267.021
259.004
88.5075
34.9957
20.9874
79.1901
19.3772
76.998
19.3731
36.007
86.1379
268.106
260.837
89.1442
35.2041
21.0355
19.3558
80.1426
19.3532
75.167
36.1838
87.4005
257.793
83.8887
267.383
35.2466
19.3605
77.811
21.0582
34.8408
19.3823
80.4773
87.9795
260.739
82.9258
267.2
34.4702
21.0291
79.5264
19.3814
77.9468
19.3794
35.1108
84.4163
266.478
264.504
87.571
34.4849
21.0703
19.3948
80.5656
19.3915
79.0309
35.6499
84.697
266.865
261.339
88.126
138.284
138.362
22.7708
145.352
141.786
391.289
398.251
399.591
393.911
22.6291
145.268
142.107
138.474
138.537
398.894
391.876
34.1947
19.2416
75.4367
20.7999
33.8485
19.2318
77.3737
84.6208
259.312
81.913
264.199
84.5384
257.65
81.7751
263.829
33.2893
20.7778
19.2129
76.6429
19.2334
74.4143
33.6708
33.8627
20.8212
19.219
77.2149
19.2396
74.6695
34.2185
81.88
263.873
262.858
84.1603
82.198
263.089
256.749
84.3263
400.248
400.431
394.22
397.41
22.8751
144.138
142.751
143.475
136.601
398.124
396.827
397.732
397.43
396.19
398.417
396.438
400.103
138.365
140.06
22.9211
142.802
144.053
398.475
393.511
401.211
393.072
22.6422
142.212
144.106
137.518
139.458
84.7743
258.241
82.8314
263.461
34.0618
75.5148
19.2415
20.9404
33.3295
77.3291
19.2339
34.3814
75.3179
19.2374
20.9074
34.1189
77.7241
19.2383
80.59
262.935
255.224
84.9158
81.9057
263.647
258.537
85.0127
33.355
20.9428
78.1335
19.2228
75.1201
19.2342
34.38
33.6815
20.9018
77.4806
19.2081
75.2718
19.2234
34.4642
138.869
139.511
22.812
142.804
143.384
397.667
400.424
398.699
392.505
22.6882
142.889
143.527
139.063
139.143
399.813
397.233
35.9063
76.3258
19.3848
21.0904
34.9369
79.1035
19.3783
89.3728
263.371
86.7755
266.375
36.2399
19.3668
76.3341
21.0667
35.3963
19.3682
79.6555
86.6585
267.187
263.622
89.1854
35.0951
21.0879
79.197
19.3681
76.1581
19.3815
36.2312
85.7045
265.943
260.871
89.4909
35.4264
21.0835
19.3642
79.3337
19.3675
77.4028
36.3995
87.8586
263.191
84.8869
267.08
35.6785
19.4091
79.4375
21.2361
34.8389
19.4117
80.6018
87.8126
262.094
84.5306
263.699
35.2028
21.0698
80.2559
19.39
76.0373
19.3959
34.9587
85.8436
266.356
258.12
88.1987
34.361
21.2591
19.4149
80.7245
19.4224
76.9154
36.0263
85.63
268.132
266.718
88.4775
142.93
139.41
22.8544
144.709
142.067
392.724
398.38
399.431
397.481
22.7504
144.871
143.127
143.031
134.791
398.408
394.875
34.0066
19.2291
74.6456
20.832
33.3353
19.2229
77.5025
84.0512
254.289
81.0201
264.358
83.8902
254.854
80.6499
265.564
33.2419
20.7862
19.2044
77.3198
19.2027
74.558
33.8856
33.2642
20.8086
19.2046
77.863
19.2174
75.2977
34.2055
81.2279
264.172
255.077
84.2081
81.1756
264.27
260.036
84.7599
400.439
401.06
393.488
398.033
22.8574
146.579
140.797
139.239
139.096
400.096
395.04
397.996
397.882
394.296
398.405
398.668
401.023
138.799
139.549
22.9399
142.493
144.812
398.435
395.019
401.029
395.319
22.6913
142.481
146.157
139.172
138.159
84.1808
259.54
81.4407
263.763
34.2634
74.3125
19.2196
20.9144
33.3901
78.1918
19.2111
34.3674
75.004
19.2093
20.9324
33.6292
77.5221
19.2025
81.3788
258.182
261.9
82.3443
80.2303
263.901
256.017
84.129
33.4133
20.9131
77.82
19.1916
76.7735
19.2068
34.124
33.7519
20.8549
77.1971
19.1854
74.8043
19.199
34.2148
139.966
137.11
22.8614
143.718
141.472
396.107
401.497
396.243
392.786
22.5933
143.068
145.357
139.631
144.207
401.052
395.307
36.3865
77.6446
19.3406
21.0547
35.9016
80.4767
19.3541
90.2942
257.554
85.0989
266.743
36.514
19.3599
77.1497
21.0795
35.6159
19.3559
78.682
85.8239
266.97
265.151
90.5442
36.0357
20.9922
80.522
19.3478
77.2985
19.3504
35.6473
88.9751
266.65
262.377
90.1909
35.8043
20.9815
19.3504
78.9277
19.3553
77.1297
36.6534
88.3117
264.083
84.9403
267.628
36.0919
19.4095
77.8117
21.2127
35.498
19.402
81.3674
88.4214
264.815
85.5334
267.26
35.4929
20.9149
78.1064
19.3784
79.0595
19.3839
35.7826
86.1455
266.716
265.182
88.8104
35.4816
21.2101
19.4027
80.3279
19.4088
78.0758
35.9671
85.6454
266.642
260.241
88.7911
139.15
140.57
22.8522
144.714
142.257
395.233
398.235
397.542
395.129
22.5947
144.648
143.126
137.546
139.693
398.785
392.234
34.4662
19.2037
75.6008
20.9038
33.7785
19.203
78.0537
84.4372
261.2
81.7193
263.784
84.6761
258.869
82.3647
263.612
33.7881
20.8008
19.1898
77.2611
19.1936
73.9487
33.8979
33.1486
20.7937
19.1827
78.4009
19.1981
77.3299
34.4404
81.4225
263.358
258.244
84.3695
80.6407
264.754
254.577
85.1556
398.851
400.956
396.605
396.206
22.8496
146.363
140.526
139.378
141.274
400.049
397.682
399.077
398.534
392.942
399.042
396.873
400.318
138.391
140.408
22.9261
142.353
144.822
399.311
392.418
401.235
393.046
22.7395
142.572
145.885
138.728
138.006
84.5964
259.738
82.1375
264.274
34.1064
76.7135
19.1874
20.8967
32.7345
77.6565
19.1764
34.1954
74.729
19.1993
20.7579
33.7932
77.6061
19.1939
82.97
261.494
261.441
81.7878
82.5323
264.092
261.928
84.2324
33.6771
20.9037
78.4923
19.1614
74.4116
19.173
34.0358
33.7574
20.9062
78.0629
19.181
73.5047
19.1998
34.1792
138.945
142.476
22.8826
143.38
144.715
397.931
400.444
397.483
392.316
22.6479
143.143
144.368
138.71
140.721
400.863
394.885
36.5911
79.7041
19.3358
20.9901
36.4079
80.8649
19.3398
89.8769
257.588
86.9439
267.248
36.7206
19.3419
75.3467
20.9459
35.5837
19.3382
79.5782
88.9197
263.464
258.878
88.3043
35.667
21.0279
79.9713
19.3298
78.054
19.3382
36.5664
86.9358
266.334
264.036
89.7884
35.3512
21.031
19.3292
80.0675
19.3492
76.6087
36.699
88.5288
258.14
86.7764
267.461
35.8573
19.4015
77.3527
21.0556
35.3772
19.3865
80.4469
88.7398
258.488
86.74
269.042
34.8051
20.912
77.8199
19.3618
76.6542
19.3736
35.3672
84.0863
266.207
263.455
88.8632
35.2672
21.045
19.3513
81.0384
19.3779
78.1541
35.9077
86.3922
268.422
261.393
88.7539
138.052
138.949
22.8463
145.368
142.401
395.867
398.312
400.919
396.204
22.6199
145.535
143.21
138.44
138.398
398.341
391.75
34.2905
19.1817
76.9605
20.8136
33.8937
19.1839
78.4018
85.1152
259.173
79.5091
263.714
85.0174
256.282
83.4169
265.219
33.9192
20.8494
19.1728
75.3546
19.1791
76.78
34.3298
33.9238
20.8128
19.1769
78.644
19.1865
76.8022
34.5258
83.7946
264.131
256.001
85.1703
81.4843
265.109
255.798
85.5443
394.672
400.809
397.015
395.086
22.6002
146.551
142.568
139.327
137.427
400.92
393.527
398.685
397.649
396.995
399.112
395.282
400.728
136.216
143.785
22.886
142.828
145.224
398.258
396.142
401.1
397.951
22.6081
141.73
144.742
138.176
141.844
84.4382
261.224
81.2747
263.977
34.1528
74.7455
19.1554
20.9283
33.5961
78.6437
19.1541
33.8102
74.5279
19.1898
20.8873
33.6117
78.1231
19.1901
80.5788
261.008
261.391
83.8787
81.9518
263.977
261.572
85.0654
33.684
20.8498
77.3194
19.1502
77.153
19.1507
34.3806
33.9787
20.8877
78.0162
19.1715
76.1667
19.1839
34.5068
138.247
142.203
22.8616
145.092
144.353
394.323
401.425
398.186
397.254
22.6822
143.579
144.931
142.935
142.56
400.54
399.444
36.2925
77.4895
19.3214
21.043
35.5298
79.8828
19.3252
90.0802
262.792
88.1537
266.79
36.6426
19.3265
77.3884
20.9161
36.3035
19.3173
79.8428
86.6727
265.933
262.624
88.0496
35.3558
21.0488
80.4369
19.2982
78.2188
19.3172
36.2665
87.6884
267.841
259.266
89.7703
36.1127
21.0732
19.301
79.3861
19.3196
77.1777
36.4348
89.0938
259.932
87.0314
266.543
36.1452
19.329
79.0697
21.16
35.4125
19.3183
80.782
89.0919
264.819
87.3488
267.153
34.6768
20.9176
79.3796
19.3018
75.8916
19.3003
36.002
87.0075
265.979
259.613
89.4039
35.443
21.0497
19.32
80.574
19.327
79.1869
36.2534
87.96
266.863
263.596
89.5397
142.669
140.42
22.8517
144.908
143.453
394.467
398.381
400.998
398.023
22.7612
144.444
143.186
139.502
141.54
399.071
392.396
34.6267
19.1722
75.5221
20.9089
34.0777
19.1707
79.3764
85.0583
256.686
83.5189
264.054
85.4758
257.296
83.8199
264.985
33.9518
20.8433
19.1479
77.7066
19.1524
75.7181
34.3044
33.9635
20.9164
19.1612
78.044
19.1708
75.9367
34.6802
82.8051
263.68
259.303
85.1135
82.9187
263.757
258.905
85.2137
398.304
398.833
395.36
398.507
22.775
145.62
140.629
140.049
139.127
396.405
400.209
398.035
394.839
392.287
398.846
395.103
400.745
137.507
140.502
22.9131
141.838
144.918
398.324
393.082
401.218
397.334
22.8069
141.929
145.516
137.707
142.211
84.8942
256.485
82.6078
264.748
34.2018
76.2669
19.159
20.9211
33.5752
77.4678
19.1669
34.5239
76.2304
19.1788
20.8876
33.5348
78.0521
19.1739
81.6063
258.127
261.703
84.5255
82.1236
263.395
258.586
84.3999
33.0807
20.9065
77.6512
19.1538
73.8322
19.17
34.2681
33.9384
20.9029
77.5526
19.1473
74.6434
19.1665
34.4581
137.475
138.441
22.9518
143.926
145.324
394.08
396.115
397.835
396.231
22.6323
143.629
144.59
136.645
139.929
400.11
398.736
36.6596
78.9153
19.3052
21.0009
35.295
80.3782
19.3026
89.5976
263.411
88.3818
263.734
36.5
19.2804
77.2352
20.8781
35.1876
19.2942
79.6525
88.3448
262.445
258.806
87.9055
36.1269
21.0102
79.4551
19.3049
76.8196
19.2978
36.5968
86.6799
266.563
260.891
89.7168
35.9054
20.9955
19.2877
79.4222
19.2923
78.4445
36.5447
89.1256
260.667
87.5727
266.012
36.2549
19.3026
77.5292
21.1493
34.9155
19.3106
80.6125
89.0087
258.804
87.4057
266.861
34.5249
21.0445
80.1799
19.2988
75.8209
19.295
35.8823
86.6728
266.575
256.38
88.655
35.598
21.0539
19.3057
80.1317
19.3042
77.5555
35.9828
85.765
267.3
264.823
88.7098
140.176
138.344
22.797
144.255
142.336
393.311
398.496
397.243
398.993
22.4382
144.727
141.613
141.854
136.895
397.94
395.369
34.5666
19.1588
75.3981
20.9049
33.6202
19.1601
78.4079
85.0722
261.061
80.2608
263.653
85.213
260.155
82.1597
263.939
33.9141
20.7374
19.1261
77.4445
19.1387
74.8938
34.0152
33.8555
20.8123
19.1438
78.8256
19.1527
73.9827
34.4733
83.1168
263.613
256.521
84.6327
83.1285
265.272
255.019
85.3146
399.35
398.149
394.76
398.532
22.8763
144.999
144.369
140.488
137.227
401.025
400.673
398.506
395.48
392.44
398.788
398.389
400.806
137.847
143.442
22.9192
142.673
145.668
399.108
394.991
400.402
394.311
22.7288
142.947
146.03
139.26
139.01
84.1396
257.411
81.6136
263.123
34.2164
76.3433
19.1466
20.8782
33.4963
77.6469
19.1409
34.2908
74.5688
19.1382
20.8581
33.9984
77.6864
19.1283
82.1855
262.442
261.373
83.773
81.2816
263.427
258.517
84.4819
33.1394
20.9033
78.2257
19.1318
77.0003
19.1416
34.1637
33.6499
20.8564
77.8719
19.1144
75.4649
19.1251
34.4189
141.521
141.058
22.9432
143.664
144.908
397.32
400.96
398.223
394.542
22.796
143.545
144.936
140.349
142.776
400.593
395.023
36.6765
78.2313
19.2972
21.0481
36.1911
81.2059
19.3011
89.0367
260.78
85.8835
265.936
36.5356
19.2732
78.4566
21.0156
35.9362
19.2812
79.8693
85.1758
267.411
259.18
89.2129
35.934
20.9923
79.0208
19.3146
77.1513
19.3173
35.6206
84.932
265.897
260.803
90.0479
35.5183
20.927
19.2908
80.375
19.2947
78.4652
36.6242
88.7447
262.899
83.6055
266.981
35.939
19.3018
77.1298
20.9417
35.3303
19.3138
79.9893
88.0241
259.725
84.767
266.601
34.5755
20.9462
79.3409
19.3096
75.7606
19.3087
35.8291
84.6409
267.303
257.329
88.4049
35.1703
21.1314
19.3048
79.7053
19.3101
77.3182
35.846
85.1468
267.459
257.323
88.3263
142.243
138.103
22.8233
145.018
141.912
395.173
398.826
397.08
398.429
22.5225
145.038
141.436
137.381
136.947
398.194
393.017
34.4003
19.1453
77.2839
20.8847
33.5627
19.1541
78.3556
84.616
257.891
79.8202
263.767
85.1999
262.382
83.2051
264.765
33.3298
20.831
19.1082
76.091
19.1105
76.107
33.7717
33.7871
20.8926
19.1428
78.441
19.1535
77.1818
34.5707
82.8814
263.065
256.712
84.1505
82.4846
264.999
261.543
85.5754
395.345
400.122
396.026
399.135
22.8798
145.656
144.637
142.179
138.03
401.247
395.588
398.406
396.389
392.498
398.726
395.76
400.961
139.939
143.193
22.9648
142.591
145.45
398.98
395.686
401.673
394.496
22.6277
143.021
145.349
139.186
141.818
84.6479
254.198
82.1183
264.519
34.3773
75.6729
19.133
20.8232
33.9877
77.6336
19.13
34.3816
75.2778
19.1154
20.7276
34.0072
77.6305
19.1173
79.6906
264.299
258.13
83.719
81.7895
263.564
261.484
84.4522
33.446
20.8235
77.9176
19.1252
73.4078
19.1285
34.1827
33.5166
20.8925
76.9997
19.1074
74.6078
19.117
34.2625
140.811
143.019
22.9142
142.846
144.91
394.294
400.389
397.751
395.426
22.7088
142.782
144.126
140.629
142.624
400.155
397.944
35.7218
80.288
19.3121
21.1121
35.9244
80.557
19.31
89.0151
259.861
84.8459
266.469
35.9239
19.2778
78.9177
21.0172
36.0143
19.2909
79.3714
83.5907
266.007
260.912
87.236
34.6007
21.0851
80.6428
19.3049
79.4697
19.3216
35.9526
86.3302
266.405
259.458
87.5451
34.7575
21.0083
19.2789
79.4427
19.286
78.3891
35.8436
89.6381
264.834
85.3532
267.214
35.9423
19.3003
75.6339
21.0035
35.2028
19.2963
80.3798
88.5573
264.275
85.8157
266.724
35.7716
21.0246
79.5845
19.3403
76.8335
19.3359
35.8207
88.5001
265.882
261.388
90.0031
35.2307
21.0452
19.3001
80.5103
19.3003
76.0055
35.943
85.4583
267.567
258.011
88.6248
142.654
135.511
22.7854
144.187
142.591
391.834
396.361
399.71
394.083
22.5144
144.349
142.739
141.967
139.819
398.356
394.702
34.5233
19.1489
77.0945
20.757
33.7172
19.1498
78.5135
84.6282
257.343
82.1538
264.241
85.2272
256.723
82.5831
264.456
33.7047
20.8177
19.111
77.7085
19.1106
76.8361
34.4072
33.8573
20.8488
19.1442
78.0341
19.1494
75.9373
34.6805
82.2058
263.741
256.885
84.9685
83.4081
264.768
262.352
85.5743
397.609
397.667
392.361
398.869
22.7313
146.3
140.765
139.447
137.986
400.716
400.425
398.252
395.75
396.055
398.348
395.597
400.896
141.071
143.372
22.9316
142.727
145.144
398.887
395.399
400.647
397.367
22.7245
143.336
145.096
141.162
143.258
84.5325
260.939
79.5701
263.622
33.9481
74.5009
19.1339
20.7588
33.2156
77.8585
19.1365
34.0873
74.3661
19.1158
20.8381
33.3256
77.5185
19.1207
83.0632
265.115
255.507
84.068
80.1167
263.416
257.951
84.3626
33.1394
20.9143
77.6825
19.1351
75.2128
19.1379
34.0583
33.3884
20.8425
75.5236
19.1236
73.7421
19.1235
34.153
140.987
137.986
22.862
142.645
144.061
393.723
399.613
398.302
395.958
22.5764
143.635
144.975
140.259
136.32
400.527
395.313
35.3053
76.3897
19.3045
21.0835
34.7125
79.0055
19.3032
87.0476
260.751
84.8526
266.02
35.3063
19.2686
76.341
20.8788
34.1497
19.2699
79.5403
85.0496
265.948
258.288
86.7618
34.6123
21.0064
78.2638
19.2918
79.3263
19.2924
35.3089
85.1103
265.777
261.279
86.8986
34.6709
20.9436
19.2623
79.7782
19.2683
77.4239
34.8538
89.5544
261.545
88.4994
266.984
36.0238
19.3073
76.086
21.0674
34.4791
19.3145
80.5375
88.8689
264.666
86.2044
267.06
34.8504
21.0073
77.6271
19.3354
78.5596
19.341
35.9264
87.8983
267.189
263.722
88.5891
34.7163
21.0653
19.3184
80.544
19.3222
76.1012
35.8242
86.9499
266.9
259.529
88.3687
140.489
138.262
22.8624
144.686
142.39
395.284
398.897
399.45
397.186
22.5988
144.953
143.109
141.796
139.584
399.468
392.876
34.645
19.1492
75.5106
20.8415
34.0658
19.149
77.9419
85.535
256.919
80.5307
264.726
85.2893
261.27
83.0897
264.136
33.3992
20.8368
19.1324
78.4101
19.1294
76.5886
33.8294
33.5569
20.7878
19.1361
77.8736
19.144
75.6335
34.6972
84.0349
264.274
262.241
85.2973
82.6348
263.433
258.941
85.6143
397.333
400.538
395.876
399.196
22.744
145.608
140.252
143.777
141.587
399.843
397.154
398.445
392.309
395.275
398.085
394.049
399.978
136.383
143.131
22.9447
142.928
145.591
396.424
391.846
399.04
394.22
22.6482
142.666
143.689
136.142
144.084
84.4431
255.614
82.4035
263.077
33.9198
75.2049
19.1434
20.8848
33.2352
76.5073
19.1489
34.0942
77.1003
19.1398
20.8544
33.4541
78.1492
19.1388
81.6366
259.687
257.69
85.2638
82.7102
260.917
255.159
82.3895
33.3925
20.8796
78.3832
19.0996
77.6338
19.1439
33.3384
33.6052
20.7894
77.2592
19.094
73.5788
19.1271
33.2977
139.6
142.319
22.8799
143.2
144.387
392.913
400.721
393.561
394.024
22.601
143.131
144.923
136.22
137.594
397.843
396.811
35.4208
79.7622
19.2759
21.0617
34.6011
80.4757
19.2862
87.2171
260.39
85.6512
260.894
35.3769
19.2521
75.7677
20.9439
34.9594
19.2581
78.1225
84.8567
266.187
264.221
87.7825
34.477
21.046
79.3983
19.2542
76.95
19.2666
35.2678
85.6109
262.543
264.629
87.8468
34.5345
20.9385
19.2357
79.6771
19.254
78.7466
35.2373
88.3612
264.979
86.4115
266.619
35.5774
19.3114
78.8279
21.0359
34.7759
19.3064
80.2924
87.9869
264.04
85.3757
266.992
35.382
20.9826
79.693
19.3082
77.1876
19.3143
35.8285
84.3254
264.5
258.955
88.1282
34.69
20.973
19.2781
81.1406
19.2891
78.2214
35.5054
84.6443
263.061
260.231
88.2339
140.746
136.262
22.7829
144.893
143.811
397.173
399.102
395.208
396.266
22.6033
144.349
142.398
141.791
138.446
396.301
392.043
34.85
19.1388
75.9332
20.8368
33.9993
19.1373
78.1316
85.0829
262.61
83.5325
263.96
85.8148
258.545
81.9392
262.393
34.1833
20.8302
19.1151
78.3146
19.1185
77.3407
33.9502
33.7689
20.7697
19.0977
77.9557
19.1288
76.642
34.3889
80.9663
262.837
262.1
86.0354
84.0075
263.011
261.942
86.5046
398.265
397.341
392.538
398.883
22.7973
146.622
140.432
140.703
137.213
398.784
399.561
396.241
396.27
393.569
391.06
396.139
393.088
140.974
144.082
22.9243
144.096
146.993
583.505
395.677
584.998
395.283
22.8885
172.352
166.257
138.805
145.862
87.5481
257.675
80.7816
263.826
35.2201
77.634
19.1392
20.7275
33.7423
80.1934
19.3137
36.0158
74.5338
19.127
20.7578
33.2668
80.9532
19.341
84.9348
1003.82
256.469
95.9767
86.8363
1003.97
258.84
101.388
35.3491
20.9874
241.565
20.0444
77.6078
19.2578
40.3947
35.9772
20.9902
242.302
20.0525
78.352
19.297
42.3472
141.593
141.781
23.0003
145.499
143.987
391.885
396.336
582.793
395.385
22.9926
172.104
167.474
144.492
140.403
584.543
395.362
36.3936
75.1974
19.1849
20.7813
34.7983
81.2293
19.2578
90.6231
258.862
84.5316
263.622
35.8241
19.1694
74.7461
20.6782
33.9728
19.2433
80.604
89.1334
1003.64
258.754
96.7922
36.3478
20.9381
242.206
20.0788
80.1182
19.204
40.3559
87.6103
1004.79
257.44
101.926
35.536
20.8938
19.968
242.148
19.1983
79.3102
41.295
91.1905
263.725
85.1432
264.276
36.2323
19.2144
79.3668
20.817
34.2268
19.2781
82.3697
89.9537
261.545
87.0943
264.373
36.3908
21.0629
242.28
19.9926
81.3807
19.2874
40.9209
90.5608
1003.85
259.521
103.248
35.8592
20.9806
20.0215
244.037
19.2347
79.0022
41.8772
87.1538
1005.29
257.922
102.956
141.568
139.028
22.9685
144.175
144.039
394.409
396.392
584.341
395.583
22.9256
165.521
165.865
139.379
139.611
584.679
395.549
37.05
19.1247
76.4368
20.7223
34.3966
19.3653
81.3032
90.7359
259.933
84.4697
263.043
90.1631
262.931
83.9161
264.583
36.3606
20.9022
20.1341
242.816
19.291
80.1326
40.2963
36.5423
20.9501
20.1234
243.592
19.3153
81.1024
40.9027
90.1985
1003.98
256.814
102.619
89.8097
1004.43
260.015
98.5086
395.688
396.857
394.069
396.85
22.7434
163.566
176.479
142.976
144.853
586.196
395.307
583.172
396.206
1639.22
583.777
1638.23
581.926
323.459
327.968
23.8907
360.685
358.911
24.238
332.047
329.932
131.319
1772.2
154.086
377.825
51.4836
263.917
19.5194
21.1598
47.7838
228.542
19.6851
52.2899
263.453
19.4941
21.1124
48.727
227.58
19.6304
44.5947
21.523
217.503
19.8862
44.8607
21.3158
215.636
19.9601
325.132
328.168
23.698
358.593
360.849
1639.09
583.419
24.1321
330.009
332.707
51.3538
264.365
19.4522
21.1759
47.9341
227.375
19.6261
130.725
1772.39
154.982
378.2
51.8805
19.4556
264.277
21.1074
48.651
19.6576
228.29
44.1936
21.5389
215.675
19.9812
44.5107
21.3136
19.9248
217.995
18.7206
17.7964
17.6586
19.1167
17.8437
18.6201
18.5837
18.4058
17.6518
17.6609
19.1091
17.5221
18.5643
18.5654
18.617
17.6778
17.6241
19.1286
17.7868
18.5835
18.4908
18.6511
19.7639
18.9988
18.9357
18.9349
19.7107
18.9544
18.9479
18.6186
19.6835
18.9664
18.9552
18.8082
19.6927
18.9498
18.8981
130.428
1772.22
155.127
379.399
52.9144
19.4983
266.488
21.1497
48.5031
19.6568
228.643
131.178
1772.46
154.851
379.236
45.2952
21.4774
219.044
20.0249
45.5493
21.3482
19.9954
215.565
327.957
327.091
23.9953
360.804
359.721
1638.88
582.757
23.9385
332.385
331.177
52.7565
19.5477
264.849
21.1454
50.0083
19.712
228.262
132.507
1772.55
154.144
378.793
133.124
1772.42
158.44
379.122
44.3857
21.2706
20.0036
216.735
45.1176
21.3448
19.9097
216.719
1637.19
582.333
1639.65
583.283
24.1748
330.7
331.348
548.615
547.668
124.527
385.051
124.267
383.933
546.753
549.185
124.85
383.504
124.11
384.188
129.442
385.477
129.467
383.39
548.7
546.81
126.823
383.753
127.178
384.354
546.746
547.201
399.055
407.891
407.001
197.229
276.545
51.9013
95.2983
275.029
50.607
94.7627
306.755
82.5298
279.679
97.0996
274.476
95.8613
302.35
418.347
151.449
254.775
414.584
147.522
306.003
79.741
279.714
96.6902
305.508
274.997
92.545
413.491
151.467
262.38
146.77
417.958
391.726
398.043
311.586
87.8633
101.19
284.62
100.624
283.528
307.986
421.096
154.699
258.764
420.514
151.892
306.944
85.5229
101.898
284.38
307.728
99.6077
278.964
418.948
155.621
265.724
150.885
417.079
393.979
399.799
199.371
406.332
407.216
407.772
406.194
192.628
95.0769
52.239
278.037
144.18
94.264
51.3433
276.056
94.6459
50.5328
277.254
136.232
93.5362
49.3096
268.967
195.046
408.572
407.427
196.072
406.748
401.093
92.5957
274.073
141.985
52.4062
50.6333
276.87
91.8473
91.0438
276.13
141.86
50.7388
49.0824
275.739
89.2791
307.462
83.4216
279.708
97.8739
278.67
96.8464
298.917
418.26
151.944
258.79
417.728
147.408
306.727
80.7484
280.411
97.9212
301.741
273.73
93.784
415.76
152.133
258.332
147.224
417.075
395.782
394.629
311.812
88.0716
101.625
284.298
100.712
283.108
304.604
421.444
155.353
262.675
417.846
152.751
307.535
85.6929
102.499
284.773
309.065
98.0785
278.197
416.257
155.755
260.926
150.929
420.856
393.988
399.908
199.46
407.974
407.47
404.617
406.808
192.525
96.2045
52.8208
278.297
141.376
93.1989
50.6895
268.749
95.152
51.221
276.75
137.585
92.1154
49.1072
271.37
195.386
408.37
407.653
196.96
405.515
402.47
91.3034
277.036
145.723
52.5384
52.2192
276.067
94.8267
90.2538
276.881
142.603
51.11