/*--------------------------------*- C++ -*----------------------------------*\
| =========                 |                                                 |
| \\      /  F ield         | OpenFOAM: The Open Source CFD Toolbox           |
|  \\    /   O peration     | Version:  2206                                  |
|   \\  /    A nd           | Website:  www.openfoam.com                      |
|    \\/     M anipulation  |                                                 |
\*---------------------------------------------------------------------------*/
FoamFile
{
    version     2.0;
    format      ascii;
    arch        "LSB;label=32;scalar=64";
    class       volVectorField;
    location    "26";
    object      U;
}
// * * * * * * * * * * * * * * * * * * * * * * * * * * * * * * * * * * * * * //

dimensions      [0 1 -1 0 0 0 0];

internalField   nonuniform List<vector> 
66940
(
(-8.74901e-07 3.97149e-07 0.12449)
(6.95184e-07 1.13995e-06 0.121523)
(2.09812e-06 -3.03629e-06 0.121558)
(-0.000216152 -0.000222458 0.118309)
(-3.67692e-07 -1.03711e-06 0.124488)
(-1.25531e-06 5.82199e-07 0.121521)
(3.50193e-06 -9.42753e-07 0.121559)
(-0.000221239 -0.000218643 0.118305)
(-1.18067e-07 -1.6662e-06 0.124488)
(-1.43418e-06 4.06816e-07 0.12152)
(3.61592e-06 -9.53059e-07 0.121561)
(-0.000219592 -0.000221366 0.118306)
(-3.44886e-07 -4.05409e-07 0.124489)
(1.36849e-07 6.80477e-07 0.12152)
(2.17515e-06 -1.9908e-06 0.121565)
(-0.000218721 -0.000219485 0.118306)
(-1.01341e-06 5.97375e-07 0.124492)
(1.452e-06 7.6756e-07 0.121525)
(1.05341e-06 -2.0253e-06 0.121569)
(-0.000217252 -0.00022152 0.118309)
(-8.15003e-07 1.17995e-06 0.124496)
(1.73649e-06 -6.16857e-07 0.121531)
(8.62452e-07 -7.76919e-07 0.121571)
(-0.000220081 -0.000220044 0.118308)
(1.3443e-06 2.64648e-06 0.124502)
(2.02996e-06 -1.84783e-06 0.121537)
(6.2633e-07 -3.26434e-07 0.121574)
(-0.000219042 -0.000222243 0.118308)
(7.33276e-06 7.45781e-06 0.124501)
(3.45278e-07 -2.80485e-06 0.121546)
(1.261e-06 -2.82954e-06 0.121581)
(-0.000220378 -0.000220193 0.118305)
(1.12019e-05 1.15251e-05 0.124478)
(-2.32115e-06 -1.45388e-05 0.121566)
(-8.68187e-06 -8.59295e-06 0.121607)
(-0.000210578 -0.000213788 0.118294)
(-9.96716e-05 -9.57806e-05 0.124423)
(-4.34561e-06 -8.19068e-05 0.121592)
(-7.2461e-05 -1.30174e-05 0.121656)
(-0.000183697 -0.000182582 0.118238)
(-0.00116594 -0.00116016 0.123977)
(9.95095e-06 -0.000254843 0.121268)
(-0.000244298 4.21225e-06 0.121384)
(0.000128292 0.000132096 0.117932)
(-0.00833984 -0.00839031 0.116442)
(0.00174025 -0.000390777 0.115098)
(-0.000471142 0.00172351 0.115271)
(0.0018835 0.00188651 0.113903)
(-0.000225656 -0.000226699 0.118294)
(2.35547e-06 3.02928e-06 0.121578)
(-2.23613e-06 4.47345e-08 0.121576)
(0.000226983 -0.00022796 0.1183)
(4.6465e-08 1.7904e-06 0.121531)
(1.10039e-06 -2.22418e-06 0.121533)
(3.98204e-06 -7.7495e-07 0.121524)
(1.97628e-06 1.30955e-06 0.12152)
(-0.000223948 0.000226224 0.118295)
(1.12561e-06 -2.52384e-06 0.121558)
(-2.6874e-06 1.40335e-06 0.121585)
(0.000224955 0.000231345 0.118296)
(0.000217927 0.000222 0.118303)
(-0.000224057 -0.000229136 0.118298)
(2.65397e-06 4.54794e-06 0.121578)
(-2.73661e-06 3.741e-06 0.121576)
(3.99639e-06 1.91702e-06 0.12158)
(-4.27421e-06 3.42245e-06 0.121584)
(-0.000216285 0.000220981 0.11831)
(0.000222626 -0.000228751 0.118301)
(2.10756e-07 1.35747e-06 0.12153)
(1.15298e-06 -1.95735e-06 0.121532)
(-3.50679e-08 1.00231e-06 0.12153)
(1.63769e-06 -1.81815e-06 0.121533)
(5.80891e-07 -1.31886e-06 0.121566)
(-1.14548e-06 5.36685e-07 0.121522)
(-2.95183e-06 -1.48158e-06 0.121532)
(0.000216978 -0.000220316 0.118305)
(-0.000222215 0.000228256 0.118297)
(-1.81148e-06 -3.26371e-06 0.121549)
(2.57178e-06 -1.24377e-06 0.12156)
(-3.63878e-06 -2.14335e-06 0.121583)
(0.000221785 0.000232469 0.118296)
(0.000220875 0.000220253 0.118307)
(-0.000224279 -0.00022943 0.118298)
(4.39897e-06 2.69992e-06 0.121581)
(-4.34513e-06 2.64655e-06 0.121583)
(4.8182e-06 6.05969e-07 0.121585)
(-5.56009e-06 1.61983e-06 0.121585)
(-0.00021886 0.000219215 0.11831)
(0.000222382 -0.000228905 0.1183)
(1.90684e-06 8.6898e-07 0.121529)
(2.34887e-06 -1.68388e-06 0.121532)
(1.71888e-07 3.48294e-07 0.121529)
(2.18258e-06 -1.59203e-06 0.121534)
(-1.95701e-06 -1.93053e-07 0.121558)
(-8.48564e-07 1.2431e-07 0.121521)
(-3.20994e-06 -1.04091e-06 0.121524)
(0.000219204 -0.000218523 0.118307)
(-0.00022276 0.000228989 0.118297)
(-3.72749e-06 -1.48888e-06 0.121561)
(3.09435e-06 -1.75912e-07 0.121562)
(-4.29459e-06 4.68838e-07 0.121592)
(0.000221857 0.000231471 0.118294)
(0.000220024 0.000220235 0.118307)
(-0.000226228 -0.00022819 0.118299)
(4.51138e-06 2.17397e-06 0.121585)
(-4.74136e-06 2.58091e-06 0.121585)
(3.15534e-06 2.27912e-06 0.121586)
(-3.3071e-06 3.29769e-06 0.121587)
(-0.000219042 0.000219912 0.118308)
(0.000226238 -0.000228456 0.118301)
(1.45836e-06 3.52414e-07 0.121528)
(2.49073e-06 -1.67853e-06 0.121532)
(-3.92309e-07 1.08366e-06 0.121529)
(1.51538e-06 -1.70337e-06 0.121533)
(-1.83603e-06 -1.55874e-06 0.12157)
(1.66058e-07 3.93289e-07 0.121521)
(-2.01147e-06 -1.49561e-06 0.121531)
(0.000219175 -0.000219082 0.118305)
(-0.000224415 0.000228537 0.118297)
(-3.30621e-06 -1.3802e-06 0.121556)
(2.03561e-06 -1.60286e-06 0.121565)
(-2.40501e-06 -9.50315e-07 0.121589)
(0.000224007 0.000232178 0.118295)
(0.000217933 0.000221284 0.118308)
(-0.00022669 -0.000228101 0.1183)
(2.69773e-06 3.72449e-06 0.121586)
(-2.23567e-06 3.8773e-06 0.121587)
(2.3453e-06 3.33774e-06 0.121586)
(-2.48568e-06 3.87206e-06 0.121586)
(-0.000216227 0.000221017 0.11831)
(0.000225697 -0.00022837 0.118301)
(3.30738e-07 1.3506e-06 0.12153)
(1.58777e-06 -1.80037e-06 0.121533)
(-9.89372e-07 2.27158e-06 0.12153)
(6.837e-07 -2.34713e-06 0.121533)
(-1.61676e-06 -1.04591e-06 0.121558)
(1.04302e-06 1.17465e-06 0.121521)
(-2.04655e-06 -1.90244e-06 0.121521)
(0.000217658 -0.000219919 0.118306)
(-0.000224738 0.000228259 0.118297)
(-1.79247e-06 -1.92964e-06 0.121568)
(1.01412e-06 -2.23218e-06 0.121567)
(-1.6519e-06 -1.24096e-06 0.121595)
(0.000223523 0.000230516 0.118298)
(0.000217938 0.000221642 0.118309)
(-0.000226509 -0.00022875 0.1183)
(1.54107e-06 3.97947e-06 0.121589)
(-1.67896e-06 3.76182e-06 0.121588)
(3.09515e-06 3.29993e-06 0.121582)
(-3.68218e-06 3.87493e-06 0.121582)
(-0.000217259 0.000221098 0.118309)
(0.000224948 -0.000228928 0.118301)
(-4.72691e-07 1.27227e-06 0.121535)
(5.64391e-07 -1.69665e-06 0.121537)
(-1.06092e-06 2.59492e-06 0.121529)
(8.38499e-07 -3.4197e-06 0.121534)
(5.82451e-08 -1.327e-06 0.12157)
(4.23366e-07 1.76371e-06 0.121519)
(-2.59415e-06 -3.00942e-06 0.121525)
(0.00021775 -0.000220116 0.118306)
(-0.000224413 0.000228223 0.118297)
(-5.36051e-07 -1.99305e-06 0.12156)
(1.95452e-06 -2.42687e-06 0.121564)
(-2.86799e-06 -1.27096e-06 0.121587)
(0.00022338 0.000232093 0.118297)
(0.000218174 0.000221072 0.118308)
(-0.000225893 -0.000228681 0.118299)
(1.10201e-06 1.97099e-06 0.12159)
(-1.84599e-06 2.21537e-06 0.121589)
(4.05751e-06 2.80738e-06 0.121574)
(-4.36162e-06 3.35482e-06 0.121574)
(-0.000217941 0.000220478 0.118309)
(0.000224546 -0.000228913 0.118301)
(-1.64365e-06 3.09146e-09 0.121542)
(-6.57567e-07 -5.63971e-07 0.121544)
(-1.81887e-07 3.3361e-06 0.121525)
(1.20905e-06 -3.79821e-06 0.121529)
(-1.82919e-07 1.47227e-07 0.121562)
(-1.01653e-06 2.67474e-06 0.121514)
(-3.63849e-06 -3.45608e-06 0.121513)
(0.000217855 -0.000219961 0.118307)
(-0.000224461 0.00022854 0.118299)
(-9.18776e-07 -4.65478e-07 0.121574)
(2.64193e-06 -2.13521e-06 0.121555)
(-3.83386e-06 -8.87478e-07 0.121587)
(0.000223914 0.000231728 0.118297)
(0.000219282 0.000221524 0.118307)
(-0.000226099 -0.000229072 0.118299)
(7.84177e-07 1.36639e-06 0.121591)
(-1.20392e-06 1.43042e-06 0.12159)
(4.52703e-06 1.70397e-06 0.121565)
(-4.6756e-06 2.3725e-06 0.121564)
(-0.000218465 0.000221015 0.118309)
(0.000225247 -0.000228919 0.1183)
(-1.72677e-06 -1.27097e-06 0.12155)
(-7.15057e-07 5.11505e-07 0.121552)
(-1.22346e-06 3.69345e-06 0.121517)
(1.79899e-07 -3.86233e-06 0.121522)
(2.94945e-07 5.30088e-07 0.121582)
(-5.6296e-07 4.18084e-06 0.12151)
(-2.11165e-06 -3.93727e-06 0.121514)
(0.000218343 -0.000220237 0.118307)
(-0.000224805 0.000229406 0.118297)
(1.72025e-08 -2.90112e-07 0.12157)
(3.49927e-06 -6.45041e-07 0.121546)
(-4.05123e-06 8.17212e-07 0.121573)
(0.000223823 0.000232697 0.118295)
(0.000219346 0.000221625 0.118306)
(-0.000221132 -0.00022428 0.118304)
(1.46942e-06 4.54979e-06 0.121597)
(-1.45637e-06 4.28902e-06 0.121596)
(1.00758e-05 -3.44832e-06 0.121546)
(-9.72281e-06 -2.65802e-06 0.121547)
(-0.000218439 0.000221675 0.118308)
(0.000219502 -0.000223683 0.118307)
(8.63745e-07 -2.01412e-06 0.121562)
(2.30169e-06 8.87107e-07 0.121563)
(-5.55787e-06 9.81494e-06 0.121495)
(-4.59336e-06 -9.27633e-06 0.121503)
(-2.47033e-06 1.09259e-06 0.121578)
(3.62956e-06 1.14423e-05 0.121499)
(2.50075e-06 -8.9555e-06 0.121488)
(0.000218926 -0.000219985 0.118305)
(-0.000219497 0.000224564 0.118302)
(-6.91568e-07 -2.75534e-06 0.121589)
(9.28005e-06 5.31288e-06 0.121526)
(-9.69787e-06 6.78269e-06 0.121557)
(0.000219125 0.00022689 0.1183)
(0.000211937 0.000213674 0.118295)
(-0.000206317 -0.00021079 0.118312)
(-8.0709e-06 9.82796e-06 0.121622)
(7.27001e-06 1.03053e-05 0.121618)
(4.17118e-05 -3.30558e-05 0.121486)
(-4.02982e-05 -3.183e-05 0.121486)
(-0.000210965 0.000213336 0.118298)
(0.00020501 -0.000209539 0.118317)
(4.65773e-06 -1.3457e-05 0.121592)
(6.93249e-06 1.08637e-05 0.121589)
(-3.12294e-05 4.40455e-05 0.121429)
(-3.07943e-05 -4.11338e-05 0.121438)
(-6.00625e-06 1.03302e-05 0.121615)
(2.96674e-05 4.61821e-05 0.121454)
(2.89801e-05 -4.10742e-05 0.121433)
(0.00021116 -0.000212127 0.118295)
(-0.00020517 0.000210041 0.118311)
(1.02882e-05 -9.21402e-06 0.121606)
(4.193e-05 3.51133e-05 0.121464)
(-4.21981e-05 3.66507e-05 0.121483)
(0.000204149 0.000213238 0.11831)
(0.000183013 0.000185231 0.118241)
(-0.000263396 -0.000265836 0.118361)
(-7.07858e-05 1.21705e-05 0.121669)
(6.83474e-05 1.21214e-05 0.121662)
(-4.81928e-05 -0.000424973 0.121372)
(5.40382e-05 -0.000423299 0.12137)
(-0.000181361 0.000184148 0.118242)
(0.000265403 -0.000264415 0.118382)
(4.84909e-06 -7.98604e-05 0.121641)
(6.68358e-06 7.536e-05 0.121636)
(-0.000415618 -3.92371e-05 0.121306)
(-0.000411157 4.3979e-05 0.121318)
(-5.73691e-06 7.50504e-05 0.121645)
(0.000422504 -3.93728e-05 0.121374)
(0.000409006 4.52443e-05 0.121313)
(0.000182973 -0.000183269 0.11824)
(-0.000262794 0.000265211 0.118362)
(7.33933e-05 -1.37766e-05 0.121664)
(-4.33642e-05 0.000429072 0.121342)
(4.32711e-05 0.000432285 0.121361)
(0.000264196 0.000265641 0.118357)
(-0.000131758 -0.000127165 0.117932)
(-0.00315014 -0.0031566 0.116645)
(-0.000240044 -6.63276e-06 0.121386)
(0.000232489 -8.32261e-06 0.121383)
(-0.00256177 -0.00492784 0.119125)
(0.00258807 -0.00493587 0.119109)
(0.000132422 -0.000129208 0.117915)
(0.00319937 -0.00313906 0.116717)
(-2.0263e-05 -0.000256863 0.121367)
(-2.46942e-05 0.000253678 0.121361)
(-0.00491972 -0.00257548 0.119192)
(-0.00489961 0.0025737 0.119195)
(2.71345e-05 0.00025233 0.121376)
(0.0049749 -0.00259798 0.119379)
(0.00490202 0.0025698 0.119202)
(-0.000127091 0.000134361 0.117925)
(-0.00313125 0.00316451 0.116654)
(0.000246757 5.00696e-07 0.121385)
(-0.00255374 0.00492737 0.119109)
(0.00256083 0.00492929 0.119117)
(0.00313999 0.00316628 0.116644)
(-0.00188242 -0.00187565 0.1139)
(-0.000448774 -0.00171793 0.115282)
(0.000476613 -0.00178663 0.115247)
(0.00192142 -0.00191074 0.113778)
(-0.00172079 -0.00045015 0.115343)
(-0.00174201 0.000445467 0.115349)
(0.00852364 -0.00845019 0.116337)
(-0.00832241 0.00837791 0.116446)
(0.00832647 0.00837892 0.116449)
(0.0017354 0.000438488 0.115351)
(-0.00188186 0.00189135 0.113894)
(0.00048017 0.00172544 0.11528)
(1.56273e-05 -2.55971e-05 0.0832409)
(-1.64589e-06 1.10804e-08 0.124488)
(5.22656e-07 -1.23483e-06 0.12448)
(-1.47929e-06 -4.73871e-07 0.124484)
(1.00229e-08 2.28913e-06 0.124476)
(6.29873e-05 -1.2021e-06 0.114226)
(-2.69986e-06 6.04435e-07 0.121535)
(5.18071e-05 -3.91606e-05 0.110661)
(-1.26932e-06 -9.02973e-07 0.122699)
(0.000224407 0.000227621 0.118297)
(2.35906e-05 3.16819e-05 0.104804)
(3.03437e-05 2.06858e-05 0.104854)
(-1.65197e-06 -6.68522e-05 0.109961)
(1.03301e-05 5.60254e-05 0.0947994)
(-2.88807e-07 7.3101e-05 0.109958)
(-9.84761e-06 -4.669e-05 0.094906)
(-1.0299e-05 2.83633e-05 0.0832198)
(1.46319e-05 -1.85657e-05 0.0833165)
(-6.91148e-05 -1.34532e-06 0.109639)
(4.96959e-05 7.75655e-06 0.0945711)
(6.791e-05 -6.00358e-07 0.10973)
(-5.04813e-05 -1.01856e-05 0.0946102)
(7.74877e-07 -2.37429e-07 0.124483)
(-1.11274e-06 3.85103e-07 0.124486)
(-4.28719e-07 1.18869e-06 0.124486)
(-9.11866e-07 -1.11397e-06 0.124489)
(5.13774e-07 -2.7109e-07 0.124489)
(-2.30562e-07 2.3431e-07 0.124484)
(9.54306e-07 -1.81863e-07 0.124488)
(6.0996e-05 -4.87952e-07 0.114225)
(-5.01515e-05 3.4972e-05 0.110733)
(1.49208e-06 -1.45819e-06 0.122687)
(2.91335e-07 6.30508e-07 0.121525)
(-6.03976e-05 -1.25445e-06 0.114323)
(5.01712e-05 -3.81108e-05 0.110668)
(1.08119e-06 -1.13396e-06 0.122686)
(2.06551e-05 -1.09981e-05 0.0830972)
(-2.17885e-05 1.31221e-05 0.083166)
(-1.23939e-06 5.87779e-05 0.114367)
(-1.24515e-06 -4.19727e-06 0.122774)
(3.47172e-05 -5.20104e-05 0.110862)
(1.30869e-06 -1.06185e-06 0.121562)
(-3.26113e-07 -6.62136e-05 0.114374)
(-1.74034e-06 -2.90446e-06 0.122777)
(-3.80796e-05 4.66749e-05 0.11086)
(-2.11424e-05 -3.01901e-05 0.104833)
(-3.12281e-05 -2.6102e-05 0.104988)
(0.00022475 0.00023053 0.118301)
(2.27828e-05 2.95304e-05 0.104816)
(3.38844e-05 2.06335e-05 0.104973)
(-4.97647e-07 -7.31556e-05 0.109958)
(1.09405e-05 5.0519e-05 0.0948207)
(2.66176e-07 6.50066e-05 0.109953)
(-9.37361e-06 -5.1697e-05 0.0949219)
(-1.38575e-05 1.98953e-05 0.0832178)
(1.12842e-05 -2.42127e-05 0.0833264)
(-6.93511e-05 -1.26555e-06 0.10964)
(5.0956e-05 6.94318e-06 0.0945708)
(6.96083e-05 -3.00815e-07 0.109731)
(-5.0297e-05 -9.47081e-06 0.0946097)
(4.39873e-07 -8.51634e-07 0.124491)
(-2.23946e-07 9.58426e-07 0.124485)
(-9.67293e-07 2.25552e-06 0.124493)
(-7.33302e-07 -2.26735e-06 0.124488)
(-2.17892e-07 -1.47795e-06 0.124488)
(-8.20546e-08 1.04141e-06 0.124483)
(2.08194e-07 1.15955e-06 0.124484)
(6.08812e-05 -8.89085e-07 0.114223)
(-5.20492e-05 3.44877e-05 0.110733)
(-1.34867e-07 -1.41741e-06 0.122683)
(3.10348e-07 -1.74484e-07 0.121523)
(-6.20617e-05 -1.02797e-06 0.114319)
(4.85245e-05 -3.74064e-05 0.110663)
(1.07607e-06 -1.74801e-06 0.122684)
(2.17691e-05 -9.43412e-06 0.0830967)
(-2.16749e-05 1.26352e-05 0.083166)
(-1.00444e-06 6.33053e-05 0.114365)
(-6.13749e-07 -2.95824e-06 0.122773)
(3.87183e-05 -4.74766e-05 0.11086)
(3.0458e-06 6.61475e-07 0.121561)
(-2.09985e-07 -6.18575e-05 0.114379)
(-1.65671e-06 -1.3873e-06 0.122775)
(-3.57656e-05 5.0328e-05 0.110855)
(-2.56295e-05 -3.00621e-05 0.104835)
(-3.50678e-05 -1.85838e-05 0.104996)
(0.000223183 0.000233616 0.118297)
(2.0641e-05 3.11295e-05 0.104798)
(2.98058e-05 2.47364e-05 0.104992)
(-9.44184e-07 -7.23754e-05 0.109959)
(8.91349e-06 5.03974e-05 0.0948326)
(5.29613e-07 6.40321e-05 0.109953)
(-1.22032e-05 -5.08792e-05 0.0949301)
(-1.26207e-05 2.12e-05 0.0832234)
(1.41331e-05 -2.19914e-05 0.0833288)
(-6.87433e-05 -3.37004e-07 0.109639)
(5.01876e-05 9.22833e-06 0.0945693)
(6.97187e-05 3.71403e-07 0.109729)
(-5.05535e-05 -8.13224e-06 0.0946077)
(-1.48847e-07 -1.63106e-06 0.12449)
(1.71224e-07 1.50117e-06 0.124484)
(-1.71379e-06 2.48718e-06 0.124494)
(-1.04692e-06 -1.48298e-06 0.124489)
(6.19146e-07 -1.21611e-06 0.124488)
(8.12778e-08 1.09782e-06 0.124483)
(3.65973e-07 1.22377e-06 0.124487)
(6.07928e-05 -3.5625e-07 0.114223)
(-5.07277e-05 3.64121e-05 0.110729)
(8.30828e-08 -1.0096e-06 0.122683)
(4.2475e-07 -2.74751e-07 0.121522)
(-6.21421e-05 -3.35824e-07 0.11432)
(5.03262e-05 -3.63769e-05 0.110663)
(9.50573e-07 -1.45828e-06 0.122683)
(2.05464e-05 -1.28036e-05 0.0830977)
(-2.22143e-05 1.0855e-05 0.0831655)
(-1.30803e-06 6.41431e-05 0.114353)
(-8.92527e-07 -1.98171e-06 0.122772)
(3.60636e-05 -4.75479e-05 0.110856)
(2.57488e-06 -1.29627e-07 0.121565)
(-5.2505e-07 -5.91085e-05 0.11437)
(-1.90481e-06 -1.21997e-06 0.122775)
(-3.96521e-05 4.74236e-05 0.110854)
(-2.34793e-05 -3.15551e-05 0.104822)
(-3.18817e-05 -2.10202e-05 0.105005)
(0.000224231 0.00023286 0.118298)
(2.27869e-05 2.88937e-05 0.104808)
(3.5584e-05 2.16225e-05 0.104983)
(-7.27341e-07 -7.01102e-05 0.109954)
(8.02226e-06 5.10536e-05 0.0948334)
(3.3487e-07 6.63909e-05 0.109951)
(-1.14265e-05 -5.08221e-05 0.0949296)
(-1.12735e-05 2.20543e-05 0.0832287)
(1.38203e-05 -2.2258e-05 0.083335)
(-6.9267e-05 -2.44639e-07 0.109638)
(5.13222e-05 8.7018e-06 0.094565)
(6.96344e-05 8.486e-07 0.10973)
(-5.03182e-05 -9.04616e-06 0.0946019)
(8.09912e-07 -7.86153e-07 0.124491)
(2.19729e-07 1.11813e-06 0.124486)
(-1.34221e-06 2.35441e-06 0.124493)
(-2.13439e-06 -4.55843e-07 0.124488)
(1.59755e-06 2.37619e-08 0.124487)
(-1.45807e-06 2.82919e-07 0.124483)
(1.38275e-06 5.19656e-07 0.124484)
(6.13266e-05 -5.50359e-07 0.114225)
(-5.14591e-05 3.64353e-05 0.110732)
(8.92049e-07 -1.06489e-06 0.122684)
(1.82656e-06 5.8623e-07 0.121523)
(-6.25185e-05 -1.89854e-07 0.114322)
(4.99612e-05 -3.62892e-05 0.110666)
(2.16727e-06 -1.11459e-06 0.122683)
(2.05823e-05 -1.16657e-05 0.0831041)
(-2.26045e-05 1.17396e-05 0.0831738)
(-1.26636e-06 6.20091e-05 0.114342)
(-1.78438e-06 -2.50547e-06 0.122771)
(3.51676e-05 -5.00939e-05 0.110855)
(1.06862e-06 -1.21732e-06 0.121569)
(-2.35706e-07 -6.17356e-05 0.114356)
(-2.93139e-06 -2.07437e-06 0.122772)
(-3.87258e-05 4.72858e-05 0.110852)
(-2.3409e-05 -3.1203e-05 0.104833)
(-3.19524e-05 -2.15541e-05 0.105)
(0.000225414 0.000231633 0.118299)
(2.26174e-05 2.93566e-05 0.104803)
(3.26143e-05 2.19807e-05 0.104997)
(-9.98061e-07 -6.88707e-05 0.109951)
(9.8569e-06 5.07431e-05 0.0948334)
(1.59608e-07 6.73865e-05 0.109945)
(-9.98832e-06 -5.04273e-05 0.0949289)
(-1.2818e-05 2.18298e-05 0.0832289)
(1.28188e-05 -2.25525e-05 0.0833284)
(-6.94313e-05 -8.92325e-07 0.109642)
(5.08306e-05 9.35634e-06 0.0945634)
(6.88479e-05 -7.50538e-08 0.109731)
(-5.06514e-05 -8.30433e-06 0.0946047)
(7.55594e-07 7.31145e-07 0.124493)
(-6.53462e-07 3.87978e-09 0.124489)
(-1.40188e-06 1.10242e-06 0.124497)
(-3.24175e-06 -1.71841e-07 0.124485)
(1.7603e-06 4.34932e-07 0.124483)
(-2.34361e-06 -1.44615e-07 0.12448)
(1.4319e-06 5.66353e-07 0.124483)
(6.11709e-05 -5.36737e-07 0.114227)
(-5.02209e-05 3.66199e-05 0.110735)
(2.60429e-06 -1.11388e-06 0.122687)
(1.49903e-06 1.25206e-06 0.121523)
(-6.13719e-05 -2.06817e-07 0.114322)
(4.99437e-05 -3.64516e-05 0.11067)
(2.13424e-06 -1.16851e-06 0.12268)
(2.07236e-05 -1.20367e-05 0.0831036)
(-2.20248e-05 1.15507e-05 0.0831704)
(-1.69439e-06 6.23943e-05 0.11434)
(-1.86217e-06 -2.68675e-06 0.122768)
(3.73544e-05 -4.96331e-05 0.110855)
(1.45835e-06 -1.5306e-06 0.121567)
(-6.23457e-07 -6.24345e-05 0.114352)
(-2.46297e-06 -3.22341e-06 0.122765)
(-3.78784e-05 4.77149e-05 0.110852)
(-2.31803e-05 -3.18595e-05 0.104828)
(-3.36845e-05 -2.18352e-05 0.105009)
(0.000224621 0.000232288 0.118301)
(2.21952e-05 2.85693e-05 0.104811)
(3.29719e-05 2.18418e-05 0.104985)
(-6.75596e-07 -7.01927e-05 0.109953)
(8.6644e-06 5.10178e-05 0.0948317)
(5.88817e-07 6.82025e-05 0.109946)
(-1.0454e-05 -5.0757e-05 0.0949273)
(-1.24266e-05 2.11662e-05 0.0832291)
(1.28022e-05 -2.31262e-05 0.083334)
(-7.06654e-05 -5.13818e-07 0.109645)
(5.04551e-05 8.51517e-06 0.0945644)
(6.76531e-05 4.59789e-07 0.109737)
(-5.08991e-05 -8.25052e-06 0.0946039)
(-1.2441e-08 1.44082e-06 0.124496)
(-1.35342e-07 -9.92029e-07 0.124493)
(-1.98988e-06 5.87639e-07 0.124499)
(-4.37777e-06 -1.35151e-06 0.124478)
(2.6628e-06 -7.10183e-07 0.124476)
(-3.3726e-06 1.01857e-06 0.124474)
(3.25504e-06 1.91518e-06 0.124474)
(6.09226e-05 -3.70571e-07 0.114229)
(-5.1772e-05 3.52959e-05 0.110737)
(4.04164e-06 -1.62259e-06 0.122694)
(3.69877e-07 1.77576e-06 0.121519)
(-6.12806e-05 -5.67911e-07 0.114324)
(4.88885e-05 -3.75433e-05 0.110667)
(1.18815e-06 -8.06205e-07 0.122673)
(2.10402e-05 -1.11976e-05 0.083102)
(-2.23719e-05 1.20525e-05 0.0831711)
(-1.02694e-06 6.19662e-05 0.114337)
(-1.5713e-06 -1.37906e-06 0.122767)
(3.6216e-05 -4.98191e-05 0.110857)
(2.03174e-06 -1.52218e-06 0.121562)
(-5.47669e-07 -6.21683e-05 0.114349)
(-2.11553e-06 -2.96164e-06 0.122752)
(-3.85708e-05 4.7147e-05 0.110853)
(-2.45942e-05 -3.07161e-05 0.104833)
(-3.33423e-05 -2.03775e-05 0.104998)
(0.000225391 0.000233107 0.118301)
(2.24767e-05 3.1022e-05 0.1048)
(3.14226e-05 2.29455e-05 0.104994)
(-6.2722e-07 -7.0296e-05 0.109951)
(9.5044e-06 5.03534e-05 0.094832)
(4.4134e-07 6.74362e-05 0.109949)
(-9.1053e-06 -5.12568e-05 0.0949288)
(-1.30554e-05 2.14344e-05 0.0832308)
(1.22549e-05 -2.33731e-05 0.0833317)
(-6.95006e-05 -5.67725e-07 0.109641)
(5.07539e-05 8.63461e-06 0.0945625)
(6.82024e-05 3.47151e-07 0.109735)
(-5.13166e-05 -7.55269e-06 0.0945985)
(-1.42698e-06 2.59637e-06 0.124501)
(1.93872e-06 -2.28663e-06 0.124498)
(-3.13669e-06 -1.29447e-06 0.124507)
(-8.02491e-06 -5.57831e-06 0.124474)
(6.35733e-06 -4.90051e-06 0.124474)
(-6.89098e-06 5.93007e-06 0.12447)
(6.12549e-06 6.98277e-06 0.124474)
(6.16629e-05 -4.37372e-07 0.114228)
(-5.10084e-05 3.51604e-05 0.110731)
(4.75737e-06 -2.21692e-06 0.122709)
(-3.3701e-07 2.9123e-06 0.121513)
(-6.17837e-05 -5.15206e-07 0.114326)
(5.00948e-05 -3.64643e-05 0.110663)
(3.52197e-08 -5.79877e-07 0.12266)
(2.04919e-05 -1.08699e-05 0.0831022)
(-2.26412e-05 1.10323e-05 0.083168)
(-1.1326e-06 6.19853e-05 0.114337)
(-1.88677e-06 1.83115e-07 0.122774)
(3.66958e-05 -4.87566e-05 0.110853)
(2.94816e-06 -7.73358e-07 0.121552)
(-1.48431e-07 -6.2532e-05 0.11435)
(-1.81856e-06 -2.55586e-06 0.122736)
(-3.61393e-05 4.81201e-05 0.110847)
(-2.31659e-05 -3.05607e-05 0.104828)
(-3.34626e-05 -2.12249e-05 0.105007)
(0.000225113 0.000233397 0.118299)
(2.35892e-05 2.85261e-05 0.104812)
(3.20878e-05 2.26136e-05 0.104983)
(-6.57104e-07 -7.4359e-05 0.10993)
(3.51942e-06 5.49378e-05 0.0948397)
(7.78304e-07 6.97437e-05 0.109957)
(7.04084e-06 -6.00458e-05 0.0949032)
(-7.13677e-06 2.39184e-05 0.0832307)
(-6.96194e-07 -2.91554e-05 0.0833365)
(-7.46522e-05 -6.06811e-07 0.109623)
(5.37719e-05 3.81637e-06 0.0945669)
(6.92005e-05 3.28987e-07 0.109745)
(-6.10207e-05 1.01032e-05 0.0945785)
(-5.77497e-06 7.61076e-06 0.124499)
(7.7908e-06 -7.70798e-06 0.124497)
(-8.48891e-06 -7.02232e-06 0.124505)
(-1.55654e-05 -1.37771e-05 0.124491)
(1.21262e-05 -1.3513e-05 0.124491)
(-1.3943e-05 1.50764e-05 0.124485)
(1.34568e-05 1.66059e-05 0.124488)
(6.76606e-05 -7.85727e-08 0.114216)
(-5.56465e-05 2.93753e-05 0.110735)
(3.50716e-06 -1.72676e-06 0.122728)
(2.02741e-06 5.62579e-06 0.121509)
(-6.46203e-05 -7.56446e-07 0.114331)
(5.86342e-05 -1.69608e-05 0.110659)
(7.50221e-07 -1.60912e-06 0.122643)
(2.28216e-05 -6.68036e-06 0.0831022)
(-2.90088e-05 -2.36453e-06 0.0831722)
(-3.93318e-07 6.82694e-05 0.114325)
(-1.49966e-07 -2.00623e-06 0.122786)
(3.07418e-05 -5.30265e-05 0.110853)
(4.72079e-06 2.26695e-06 0.121541)
(-3.06481e-07 -6.50988e-05 0.114355)
(-2.82177e-06 -2.6806e-07 0.122716)
(-1.80821e-05 5.71593e-05 0.110842)
(-2.73763e-05 -2.51578e-05 0.104832)
(-2.71158e-05 -2.39475e-05 0.104995)
(0.000224721 0.00023235 0.118299)
(2.90329e-05 1.19947e-05 0.104819)
(1.33563e-05 2.90797e-05 0.105012)
(-1.68891e-05 -0.000111735 0.109874)
(-5.52551e-05 9.03793e-05 0.0949036)
(6.13856e-06 8.68635e-05 0.109996)
(0.000104022 -0.000127343 0.0947802)
(4.01148e-05 4.40126e-05 0.0832029)
(-7.96625e-05 -6.06016e-05 0.0834038)
(-0.000109806 -1.6208e-05 0.109562)
(8.88654e-05 -5.60498e-05 0.0946315)
(8.70208e-05 6.02598e-06 0.109779)
(-0.000128206 0.000105918 0.0944581)
(-7.87191e-06 1.3132e-05 0.124473)
(1.18289e-05 -1.37217e-05 0.124474)
(-1.1527e-05 -1.43336e-05 0.124484)
(2.0118e-05 1.80917e-05 0.124508)
(-2.64525e-05 1.54507e-05 0.124512)
(2.0574e-05 -1.26888e-05 0.124503)
(-2.25424e-05 -1.00969e-05 0.124508)
(0.00010384 -4.86018e-06 0.114176)
(-8.24581e-05 -4.18691e-05 0.110735)
(1.94677e-05 -1.97662e-06 0.122764)
(9.96469e-06 2.41996e-05 0.121483)
(-8.15973e-05 -1.48685e-07 0.114361)
(0.000110447 0.000100222 0.110664)
(-2.58089e-05 2.39682e-06 0.122594)
(4.23098e-05 3.99513e-05 0.0830729)
(-6.09591e-05 -8.19832e-05 0.0832365)
(-4.59008e-06 0.000105054 0.114279)
(-1.20187e-06 1.07778e-05 0.122818)
(-3.99689e-05 -8.23862e-05 0.110852)
(2.14123e-05 1.29548e-05 0.121503)
(-1.86466e-07 -8.34796e-05 0.114384)
(1.90214e-06 -2.44978e-05 0.122665)
(0.000100208 0.000107166 0.110843)
(-4.25328e-05 4.34994e-05 0.10471)
(4.20555e-05 -4.00598e-05 0.104888)
(0.00021198 0.000220372 0.118307)
(5.1941e-05 -0.000105475 0.10507)
(-0.000102183 5.08189e-05 0.105244)
(-8.90875e-05 -0.000245049 0.109844)
(-0.000213835 0.000199738 0.0953295)
(5.03655e-05 0.000137395 0.110072)
(0.000268442 -0.000296459 0.0940155)
(0.000189126 7.53318e-05 0.0830765)
(-0.000265005 -0.000143456 0.0836893)
(-0.000242119 -8.8909e-05 0.109527)
(0.00020023 -0.000217855 0.095066)
(0.000137628 4.9627e-05 0.109846)
(-0.000297051 0.000271218 0.0936872)
(0.000106967 -9.07642e-05 0.124412)
(-9.76532e-05 8.93078e-05 0.124419)
(9.83228e-05 8.6952e-05 0.124425)
(0.000358556 0.000357359 0.124263)
(-0.000374311 0.000347216 0.124277)
(0.000357464 -0.000339039 0.124263)
(-0.00035952 -0.000334494 0.124264)
(0.00020392 -3.48587e-05 0.114118)
(-0.000152519 -0.000230013 0.110834)
(0.000224605 -5.45209e-05 0.122866)
(0.000113312 5.64444e-05 0.121423)
(-0.000121122 1.4227e-05 0.114404)
(0.000250376 0.000259681 0.110385)
(-0.000255702 6.87003e-05 0.12239)
(7.66e-05 0.000192298 0.082949)
(-0.000143563 -0.000268764 0.0835135)
(-3.70744e-05 0.000203356 0.114207)
(-5.65526e-05 0.000212941 0.122923)
(-0.000228129 -0.000149829 0.110958)
(5.1726e-05 0.000119987 0.121417)
(1.5779e-05 -0.000118246 0.114441)
(7.27861e-05 -0.000249694 0.122459)
(0.000260441 0.000250386 0.110561)
(-5.47769e-05 0.000252432 0.10416)
(0.000249603 -4.78289e-05 0.104324)
(0.000210338 0.00021649 0.118323)
(0.000136017 -0.000308981 0.105897)
(-0.000310953 0.000135211 0.106102)
(-0.000251846 -0.00118715 0.110145)
(-0.000513007 0.000268328 0.0976894)
(0.000152198 3.3187e-05 0.109918)
(0.000371486 -0.00125572 0.0913946)
(0.00056705 0.000104961 0.0831394)
(-0.000661268 -0.000939374 0.0856902)
(-0.00117447 -0.000250283 0.110132)
(0.000277341 -0.000517413 0.0974974)
(2.95513e-05 0.000151307 0.109883)
(-0.00125374 0.000372336 0.091325)
(0.00118777 -0.00114751 0.123958)
(-0.00115658 0.00114675 0.123971)
(0.00116058 0.00114186 0.123977)
(0.00146292 0.0014672 0.120853)
(-0.00152519 0.00145447 0.120822)
(0.00143444 -0.0014686 0.120852)
(-0.00143345 -0.00146715 0.120854)
(0.000958814 -0.000121228 0.11414)
(6.23935e-05 -0.000540373 0.112009)
(0.0017184 -0.000424143 0.122798)
(0.00152147 -0.000595501 0.121178)
(0.000217385 2.34849e-05 0.114303)
(0.000863391 0.000192776 0.108996)
(-0.000992672 0.0002999 0.1215)
(0.000114045 0.000574066 0.083024)
(-0.000930742 -0.000659405 0.085676)
(-0.000130404 0.000950847 0.114037)
(-0.000415454 0.00169621 0.12282)
(-0.000538945 6.49726e-05 0.112125)
(-0.000583916 0.00151013 0.120976)
(2.94511e-05 0.000229526 0.114277)
(0.000295278 -0.000983365 0.121295)
(0.000196546 0.00085997 0.108942)
(-1.87393e-05 0.000522226 0.103138)
(0.000525225 -1.32675e-05 0.103326)
(0.000678999 0.000681553 0.118173)
(0.000847588 -0.000154611 0.107885)
(-0.000171693 0.000848319 0.107911)
(-0.000881945 -0.0160303 0.108189)
(-0.000573289 -0.00462417 0.0636543)
(-0.000360203 -0.00500971 0.105099)
(-0.00639924 -0.0121673 0.0993585)
(-0.000649723 -0.00266639 0.0482086)
(0.00664161 -0.0116981 0.0951401)
(-0.0160342 -0.000895283 0.108176)
(-0.00461858 -0.000579826 0.0636144)
(-0.00505603 -0.000379625 0.105167)
(-0.0121704 -0.0064264 0.0993465)
(-0.00212502 -0.00213101 0.108498)
(-0.00215703 -0.0078558 0.117406)
(-0.00784074 -0.00220392 0.11747)
(-0.011087 -0.0111708 0.11205)
(-0.00223333 -0.00225395 0.117962)
(-0.0022978 -0.0106293 0.11031)
(-0.0105519 -0.00233108 0.110338)
(0.0158654 -0.00137417 0.108577)
(0.00639067 -0.00260382 0.103665)
(0.0113445 -0.00216729 0.116095)
(0.01495 -0.0113066 0.110634)
(0.00523457 -0.000319438 0.110973)
(0.0145383 -0.00702093 0.110479)
(0.0147967 -0.002293 0.109969)
(-0.00266099 -0.000653202 0.0481871)
(-0.0117016 0.00665202 0.0951193)
(-0.00144745 0.0156252 0.108534)
(-0.00213074 0.0113893 0.115932)
(-0.00260736 0.00637951 0.10368)
(-0.0109294 0.014923 0.110545)
(-0.000278173 0.00529783 0.110864)
(-0.00220269 0.0148511 0.109835)
(-0.00700305 0.014522 0.110499)
(0.00331759 0.00196558 0.098249)
(0.0019826 0.00331895 0.0983084)
(0.0125628 0.012586 0.109225)
(0.0133767 0.00697154 0.107276)
(0.00697073 0.0133746 0.107255)
(-1.21862e-05 -1.50661e-05 0.0833314)
(1.17715e-05 2.13582e-05 0.0831273)
(-2.17366e-05 -1.14297e-05 0.0831617)
(1.98173e-05 9.76367e-06 0.0830915)
(0.000219659 0.000220747 0.118306)
(-3.30725e-05 -1.86823e-05 0.104995)
(-2.44924e-05 -3.10825e-05 0.104787)
(3.23123e-05 2.30056e-05 0.104899)
(2.3129e-05 2.97631e-05 0.104826)
(1.52774e-05 -5.33459e-05 0.0947422)
(-6.19047e-06 2.66705e-06 0.121457)
(3.48961e-05 -4.68995e-05 0.110708)
(1.95687e-06 7.31486e-05 0.109709)
(-9.97065e-06 -4.59977e-05 0.0948925)
(7.3301e-06 5.13766e-05 0.0946392)
(-1.18634e-06 -6.27674e-05 0.10996)
(-1.47629e-06 7.23154e-05 0.109712)
(9.91326e-06 -4.64838e-05 0.0948888)
(-6.77913e-06 5.14009e-05 0.0946352)
(3.10052e-07 -6.18853e-05 0.109963)
(6.86787e-07 6.7079e-05 0.114209)
(2.65523e-06 2.42877e-06 0.121572)
(-3.89172e-05 -4.50797e-05 0.110861)
(-1.0806e-06 2.83878e-06 0.122794)
(3.61069e-05 5.41262e-05 0.110707)
(9.69378e-08 3.26407e-06 0.122754)
(-1.25572e-06 -5.72604e-05 0.114356)
(-3.31064e-07 6.71984e-05 0.11421)
(-2.65113e-06 2.17586e-06 0.121582)
(3.93102e-05 -4.71619e-05 0.110867)
(-1.71228e-06 2.53265e-06 0.122797)
(-3.60595e-05 5.3687e-05 0.11071)
(-6.69585e-07 2.83663e-06 0.122757)
(2.28143e-07 -5.71708e-05 0.114358)
(0.000221896 -0.000227331 0.118297)
(2.95824e-05 -2.0102e-05 0.10487)
(2.26257e-05 -3.22751e-05 0.104794)
(2.05847e-05 -1.2952e-05 0.0831619)
(1.33958e-05 -1.53506e-05 0.0833294)
(-1.17039e-05 2.22415e-05 0.0831222)
(-0.000218913 0.000220772 0.118306)
(3.35132e-05 -1.8127e-05 0.104988)
(2.44338e-05 -3.15149e-05 0.104797)
(-3.38365e-05 2.41627e-05 0.10488)
(-2.27193e-05 2.97211e-05 0.104842)
(2.14617e-05 -1.20169e-05 0.0831662)