/*--------------------------------*- C++ -*----------------------------------*\
| =========                 |                                                 |
| \\      /  F ield         | OpenFOAM: The Open Source CFD Toolbox           |
|  \\    /   O peration     | Version:  2206                                  |
|   \\  /    A nd           | Website:  www.openfoam.com                      |
|    \\/     M anipulation  |                                                 |
\*---------------------------------------------------------------------------*/
FoamFile
{
    version     2.0;
    format      ascii;
    arch        "LSB;label=32;scalar=64";
    class       volVectorField;
    location    "26";
    object      wallShearStress;
}
// * * * * * * * * * * * * * * * * * * * * * * * * * * * * * * * * * * * * * //

dimensions      [0 2 -2 0 0 0 0];

internalField   uniform (0 0 0);

boundaryField
{
    topPatch
    {
        type            calculated;
        value           nonuniform List<vector> 0();
    }
    wall
    {
        type            calculated;
        value           nonuniform List<vector> 
7778
(
(-4.17559e-06 2.02192e-05 -0.000280529)
(-5.26522e-06 -7.65284e-06 -0.000167262)
(2.02878e-05 -4.16045e-06 -0.000280245)
(-7.68097e-06 -5.25492e-06 -0.000167101)
(4.12286e-06 2.02878e-05 -0.000280592)
(2.0205e-05 4.16379e-06 -0.000280211)
(-2.01995e-05 -4.19419e-06 -0.000280266)
(-2.02807e-05 4.21011e-06 -0.000280283)
(-4.16948e-06 -2.02234e-05 -0.000280499)
(-5.26291e-06 7.63844e-06 -0.000167261)
(4.15151e-06 -2.02866e-05 -0.000280519)
(1.21287e-05 5.43717e-05 -0.000214349)
(-2.5343e-05 -1.30677e-05 -0.000358272)
(-1.35174e-05 7.71969e-06 -0.000262951)
(-3.67208e-05 3.52282e-05 -0.000256372)
(5.41475e-05 1.16361e-05 -0.000214023)
(-1.3041e-05 -2.53102e-05 -0.000358059)
(7.74221e-06 -1.34895e-05 -0.000262774)
(3.52431e-05 -3.67021e-05 -0.00025618)
(2.51654e-05 -1.31539e-05 -0.000357675)
(3.65392e-05 3.55374e-05 -0.000256484)
(1.31703e-05 7.96566e-06 -0.000263101)
(-1.31749e-05 2.5113e-05 -0.000357608)
(3.55294e-05 3.65191e-05 -0.000256434)
(7.95891e-06 1.31269e-05 -0.000263134)
(-1.16867e-05 5.41952e-05 -0.000214373)
(1.30852e-05 2.52992e-05 -0.00035816)
(-7.67097e-06 1.35053e-05 -0.0002629)
(-3.52066e-05 3.67527e-05 -0.000256237)
(5.43125e-05 -1.21315e-05 -0.000214059)
(-5.41443e-05 1.17539e-05 -0.000213973)
(-5.40135e-05 -1.12685e-05 -0.000214019)
(2.51977e-05 1.30452e-05 -0.000358268)
(1.33744e-05 -7.7568e-06 -0.00026301)
(3.66431e-05 -3.52791e-05 -0.000256351)
(1.2127e-05 -5.43687e-05 -0.00021435)
(-1.1658e-05 -5.41894e-05 -0.000214312)
(1.31475e-05 -2.51591e-05 -0.000357543)
(-3.55286e-05 -3.65297e-05 -0.00025633)
(-7.95093e-06 -1.31606e-05 -0.000262969)
(-2.50793e-05 1.31721e-05 -0.000357762)
(-3.64815e-05 -3.55563e-05 -0.000256545)
(-1.30938e-05 -7.96774e-06 -0.000263247)
(-1.2876e-05 8.7164e-06 -0.000198163)
(-4.05328e-06 2.57911e-05 -0.000190947)
(8.75486e-06 -1.28746e-05 -0.000198049)
(1.28519e-05 8.68753e-06 -0.00019817)
(4.02748e-06 2.57812e-05 -0.000190973)
(8.71972e-06 1.28628e-05 -0.00019806)
(2.57699e-05 4.0382e-06 -0.000190872)
(-8.67976e-06 -1.2851e-05 -0.000198089)
(-1.58345e-05 1.094e-05 -0.000220596)
(-8.74122e-06 1.28499e-05 -0.000198059)
(-1.29024e-05 -8.70218e-06 -0.000198163)
(1.0919e-05 -1.58555e-05 -0.000220659)
(1.2881e-05 -8.7229e-06 -0.000198125)
(5.22959e-06 -7.66361e-06 -0.000167318)
(-7.67759e-06 5.26429e-06 -0.000167212)
(1.0954e-05 1.58435e-05 -0.000220657)
(2.57696e-05 -4.05927e-06 -0.00019085)
(1.58303e-05 1.09473e-05 -0.000220526)
(1.58441e-05 -1.09679e-05 -0.000220559)
(7.68232e-06 -5.21565e-06 -0.000167191)
(-2.57622e-05 -4.05827e-06 -0.000190874)
(7.69079e-06 5.23251e-06 -0.000167182)
(-2.57806e-05 4.03385e-06 -0.000190823)
(-1.58384e-05 -1.09618e-05 -0.0002205)
(-4.09067e-06 -2.57985e-05 -0.00019091)
(5.23191e-06 7.65572e-06 -0.00016723)
(4.06468e-06 -2.57828e-05 -0.00019092)
(1.44395e-06 1.92019e-05 -0.00020735)
(1.9246e-05 1.45101e-06 -0.000207142)
(-1.47999e-06 1.91873e-05 -0.000207339)
(-1.09783e-05 1.58549e-05 -0.00022068)
(1.92146e-05 -1.43398e-06 -0.000207205)
(-1.9206e-05 1.46464e-06 -0.000207179)
(-1.92384e-05 -1.45128e-06 -0.000207191)
(1.44302e-06 -1.92106e-05 -0.000207297)
(-1.46884e-06 -1.92241e-05 -0.00020724)
(-1.0938e-05 -1.58501e-05 -0.00022063)
(-3.97653e-08 -2.57401e-09 -0.000167607)
(1.65669e-08 -2.37304e-08 -0.000156294)
(1.03789e-08 8.21649e-09 -0.000156567)
(-2.60826e-08 -2.8651e-08 -0.000167314)
(-1.11662e-08 7.6929e-09 -0.000167588)
(-7.56502e-09 -1.44112e-08 -0.000156376)
(6.93701e-09 1.75834e-08 -0.000156753)
(-5.74458e-09 1.22457e-08 -0.000167382)
(5.51241e-09 -1.21854e-08 -0.000167722)
(-3.43763e-08 -3.94621e-09 -0.000156133)
(6.83482e-09 1.09635e-08 -0.000156525)
(3.19876e-08 -8.33752e-11 -0.000167214)
(-4.2794e-09 1.24215e-08 -0.000167589)
(-1.37876e-08 -1.00771e-08 -0.000156422)
(6.3519e-09 1.53854e-08 -0.000156783)
(-1.38483e-08 9.98353e-10 -0.000167429)
(6.10434e-09 -1.34892e-08 -0.000167752)
(-1.50871e-08 -9.59658e-09 -0.000156177)
(2.50575e-08 1.10696e-08 -0.000156568)
(1.24715e-08 -7.02563e-09 -0.000167261)
(-1.61221e-08 7.94008e-09 -0.000167614)
(-5.66108e-09 -1.3729e-08 -0.000156457)
(1.10853e-08 1.26361e-08 -0.000156798)
(-6.60737e-09 1.20336e-08 -0.000167453)
(1.0159e-08 -9.70121e-09 -0.00016777)
(-1.30469e-08 -3.49197e-09 -0.000156169)
(1.87207e-08 9.73462e-09 -0.000156532)
(1.12949e-08 -5.4665e-09 -0.000167259)
(-1.67219e-08 9.33905e-09 -0.000167598)
(-3.08554e-09 -1.5501e-08 -0.000156429)
(1.30418e-08 1.39289e-08 -0.000156755)
(-5.17595e-09 8.7793e-09 -0.000167442)
(1.18726e-08 -1.06106e-08 -0.000167753)
(-1.62402e-08 -3.51907e-09 -0.000156127)
(1.66191e-08 1.04128e-08 -0.000156488)
(1.35308e-08 -4.40669e-09 -0.000167222)
(-1.26149e-08 8.9857e-09 -0.000167551)
(-5.09992e-09 -1.33833e-08 -0.000156379)
(1.05471e-08 1.11532e-08 -0.000156715)
(-5.53773e-09 7.54824e-09 -0.00016741)
(9.35717e-09 -1.0395e-08 -0.000167712)
(-1.41731e-08 -8.72454e-09 -0.000156101)
(1.58732e-08 6.82793e-09 -0.000156487)
(1.37464e-08 -8.09642e-09 -0.000167203)
(-1.28125e-08 7.79213e-09 -0.000167565)
(-9.0443e-09 -1.25022e-08 -0.000156363)
(9.09433e-09 9.0843e-09 -0.000156718)
(-1.09907e-08 1.01123e-08 -0.00016739)
(4.90283e-09 -1.1536e-08 -0.00016771)
(-1.81264e-08 -1.07708e-08 -0.000156147)
(1.29094e-08 9.61116e-09 -0.000156527)
(1.91548e-08 -5.45769e-09 -0.000167241)
(-1.43347e-08 5.63003e-09 -0.000167593)
(-1.12495e-08 -1.35689e-08 -0.000156402)
(1.04051e-08 8.701e-09 -0.000156752)
(-1.05883e-08 9.33753e-09 -0.000167415)
(6.34141e-09 -9.74593e-09 -0.000167745)
(-1.38948e-08 -4.96541e-09 -0.000156164)
(2.02649e-08 1.61858e-08 -0.000156541)
(6.06606e-09 -5.08804e-09 -0.000167262)
(-1.36528e-08 1.10007e-08 -0.000167604)
(-2.34696e-09 -1.74253e-08 -0.00015642)
(2.1726e-08 9.27449e-09 -0.000156767)
(-8.7277e-09 5.10238e-09 -0.000167441)
(1.84623e-08 -6.60274e-09 -0.000167764)
(-2.52736e-08 -1.70655e-09 -0.000156109)
(5.06959e-08 1.08783e-08 -0.00015653)
(-1.13036e-08 -1.58895e-08 -0.000167207)
(3.41491e-08 4.23533e-08 -0.000167657)
(-2.52941e-09 -2.35392e-08 -0.000156367)
(1.39434e-08 4.49638e-08 -0.000156766)
(-1.63016e-08 -1.42126e-08 -0.000167379)
(4.31985e-08 3.77391e-08 -0.000167801)
(1.87345e-08 -4.2514e-08 -0.000156451)
(-5.19266e-08 3.6705e-09 -0.000156133)
(-2.12709e-07 -1.16044e-07 -0.000167177)
(4.67417e-07 2.80478e-07 -0.000168457)
(-3.95802e-08 2.28958e-08 -0.000156718)
(1.07767e-09 -5.60013e-08 -0.000156365)
(-1.22339e-07 -2.2363e-07 -0.00016735)
(2.83803e-07 4.7844e-07 -0.000168588)
(1.27529e-07 -8.0871e-08 -0.000164875)
(-1.97697e-06 8.74033e-07 -0.00013583)
(-8.52854e-07 -4.38197e-07 -0.000173466)
(1.15966e-06 -5.68862e-07 -0.000165409)
(-7.37802e-08 1.17961e-07 -0.000165069)
(8.65796e-07 -1.9762e-06 -0.000136005)
(-4.51558e-07 -8.894e-07 -0.000173615)
(-5.79671e-07 1.13032e-06 -0.000165494)
(1.73691e-05 3.98952e-05 -0.000147896)
(1.02509e-05 -3.23694e-06 -0.000164714)
(3.98477e-05 1.73757e-05 -0.000147842)
(-3.22162e-06 1.02839e-05 -0.000164632)
(6.09188e-08 -2.04353e-08 -0.000167676)
(2.06536e-08 -1.84434e-08 -0.000167314)
(1.09697e-08 2.96965e-09 -0.000167665)
(-4.2285e-09 -1.2949e-08 -0.000167345)
(-4.21344e-08 4.78164e-09 -0.000156605)
(5.92569e-08 -9.55946e-09 -0.000156699)
(1.51527e-08 -1.66418e-08 -0.000156291)
(-5.6437e-08 -7.6595e-09 -0.000156679)
(-1.43143e-08 -1.756e-08 -0.00015627)
(-9.50242e-09 9.41692e-09 -0.000167669)
(-6.56097e-08 -2.41533e-08 -0.000167667)
(-2.12208e-08 -2.0474e-08 -0.000167299)
(-1.09837e-08 2.59349e-09 -0.000167679)
(1.34722e-09 -1.73529e-08 -0.000167357)
(1.04132e-08 7.2978e-09 -0.0001567)
(-6.09314e-09 -1.34213e-08 -0.000156359)
(1.05209e-08 -1.05444e-08 -0.000156734)
(-7.26591e-09 1.88336e-08 -0.000156383)
(-1.22768e-08 7.96838e-09 -0.000156714)
(-1.35166e-08 -4.29164e-09 -0.000156682)
(-8.77849e-09 1.14615e-08 -0.000156718)
(6.35446e-09 -1.69428e-08 -0.000156363)
(-1.16006e-08 -4.9265e-09 -0.000156695)
(4.31314e-09 1.88304e-08 -0.000156331)
(7.28735e-09 -5.96627e-09 -0.000167677)
(-4.77161e-10 1.47716e-08 -0.000167368)
(5.36187e-08 1.6536e-08 -0.000167686)
(1.92334e-08 1.88289e-08 -0.000167324)
(5.69186e-08 1.09348e-08 -0.000156696)
(1.28903e-08 1.34323e-08 -0.000156303)
(-5.84749e-08 9.49789e-09 -0.000156681)
(-1.59022e-08 1.61752e-08 -0.000156278)
(-1.24117e-08 -4.61983e-09 -0.000167634)
(-3.65012e-08 1.04951e-09 -0.000167612)
(-1.30381e-08 1.10927e-09 -0.000167647)
(2.44885e-09 2.01262e-08 -0.000167302)
(-5.77861e-08 1.91816e-08 -0.000167672)
(-2.35076e-08 2.0801e-08 -0.000167311)
(2.49053e-08 -2.93901e-08 -0.000167317)
(6.52948e-09 7.3891e-09 -0.000167601)
(-5.77398e-09 -1.43089e-08 -0.000167366)
(6.45127e-09 1.01888e-08 -0.000167712)
(-7.72935e-09 1.36833e-08 -0.000167567)
(-2.86607e-08 -2.72543e-09 -0.000167253)
(1.93451e-09 1.22435e-08 -0.000167717)
(-1.19691e-08 -5.36895e-09 -0.000167413)
(-1.40039e-08 -2.17589e-08 -0.000156273)
(-1.14582e-08 6.99585e-09 -0.000156533)
(-2.6445e-09 1.3508e-08 -0.000156501)
(-3.0618e-08 -8.04181e-09 -0.000156161)
(6.0225e-10 9.55962e-09 -0.000156472)
(2.87556e-08 -4.91418e-09 -0.000156143)
(6.77373e-09 -1.26997e-08 -0.000167392)
(-5.34169e-09 1.62533e-08 -0.000167738)
(5.04768e-09 1.41595e-08 -0.000167545)
(2.47534e-08 -5.63711e-09 -0.000167233)
(-1.90366e-09 1.38513e-08 -0.000167738)
(1.09853e-08 -6.46302e-09 -0.000167437)
(-9.60451e-09 1.30603e-08 -0.000156399)
(6.64387e-09 -1.83152e-08 -0.000156771)
(7.07758e-09 1.66333e-08 -0.000156762)
(-1.6444e-08 -8.61962e-09 -0.000156412)
(3.9395e-09 -1.95571e-08 -0.000156772)
(-1.52329e-08 7.37293e-09 -0.000156436)
(9.3431e-09 -1.41283e-08 -0.000156396)
(-1.05884e-08 1.39347e-08 -0.000156771)
(6.26916e-09 2.06448e-08 -0.000156372)
(-8.13651e-09 -1.55051e-08 -0.000156745)
(-4.3972e-09 1.93746e-08 -0.000156766)
(1.21806e-08 -1.26688e-08 -0.000156432)
(-4.1244e-09 -1.60521e-08 -0.000156747)
(1.15791e-08 1.13331e-08 -0.00015641)
(1.51287e-08 2.39902e-08 -0.000167334)
(6.74581e-09 -1.07859e-08 -0.000167628)
(4.76305e-10 -1.8709e-08 -0.000167725)
(-1.226e-08 7.07278e-09 -0.000167418)
(-1.0821e-08 -1.87071e-08 -0.000167582)
(-3.02305e-08 2.59409e-09 -0.000167281)
(1.11766e-08 2.0844e-08 -0.000156303)
(5.27008e-09 -1.03813e-08 -0.000156583)
(-1.31667e-08 2.33125e-08 -0.000156281)
(-7.52815e-09 -9.13611e-09 -0.000156558)
(-5.26483e-09 -1.28605e-08 -0.000156508)
(-3.55026e-08 4.30631e-09 -0.00015619)
(6.60599e-09 -1.30573e-08 -0.000156496)
(3.47855e-08 5.97282e-09 -0.000156167)
(1.56467e-09 1.9342e-08 -0.000167352)
(-6.12328e-09 -1.45828e-08 -0.000167691)
(-1.518e-08 2.32818e-08 -0.000167317)
(-3.09391e-09 -1.0743e-08 -0.000167606)
(-3.23126e-09 -1.26052e-08 -0.000167686)
(8.36807e-09 1.20334e-08 -0.000167384)
(1.06372e-08 -1.48587e-08 -0.000167561)
(3.09626e-08 1.20083e-09 -0.000167253)
(-2.82606e-08 -1.39389e-09 -0.00016724)
(1.81782e-09 1.11667e-08 -0.000167597)
(-1.27919e-08 -4.09546e-09 -0.000167424)
(7.07517e-09 8.60385e-09 -0.000167741)
(1.28123e-08 4.76192e-09 -0.000167608)
(-2.35357e-08 -2.15883e-09 -0.000167264)
(1.04928e-08 8.74715e-09 -0.000167752)
(-8.5686e-09 -1.40609e-08 -0.000167435)
(3.30139e-08 -4.07988e-09 -0.0001561)
(-6.00099e-09 1.05383e-08 -0.000156509)
(1.7771e-08 9.79994e-09 -0.000156551)
(-2.27424e-08 -8.96145e-09 -0.000156152)
(-1.68634e-08 6.70141e-09 -0.000156526)
(2.34083e-08 -7.14697e-09 -0.000156143)
(1.42167e-08 -1.98273e-09 -0.000167445)
(-4.10794e-09 1.62236e-08 -0.000167764)
(-1.02621e-08 7.81764e-09 -0.000167603)
(2.21176e-08 -2.57621e-09 -0.00016725)
(-8.27321e-09 6.44103e-09 -0.00016776)
(9.612e-09 -8.58479e-09 -0.000167464)
(-1.28495e-08 7.77702e-09 -0.000156434)
(9.19012e-09 -1.43463e-08 -0.000156796)
(1.10271e-08 8.67347e-09 -0.000156791)
(-1.28047e-08 -1.01773e-08 -0.00015644)
(7.89477e-09 -1.30461e-08 -0.000156799)
(-1.06999e-08 1.35099e-08 -0.000156457)
(1.27401e-08 -9.5666e-09 -0.00015643)
(-6.00508e-09 1.6733e-08 -0.000156791)
(1.15058e-08 1.03138e-08 -0.000156413)
(-5.9441e-09 -1.89933e-08 -0.000156771)
(-8.66543e-09 1.29359e-08 -0.00015678)
(1.27831e-08 -8.00724e-09 -0.000156452)
(-8.85456e-09 -1.53284e-08 -0.000156764)
(1.23995e-08 8.27933e-09 -0.000156433)
(-3.5426e-08 -2.82132e-09 -0.000167263)
(5.38732e-09 -1.26246e-08 -0.000167619)
(8.77883e-09 -4.92403e-09 -0.000167754)
(-6.44039e-09 1.36052e-08 -0.000167446)
(6.16266e-09 -1.04578e-08 -0.000167618)
(-2.39e-08 3.3939e-09 -0.00016729)
(-4.20404e-08 -5.02674e-11 -0.000156145)
(2.69072e-09 -1.30049e-08 -0.00015655)
(4.0342e-08 1.63639e-09 -0.000156125)
(-5.60773e-09 -1.1798e-08 -0.000156531)
(1.54531e-08 -7.84837e-09 -0.000156559)
(-2.69176e-08 4.12002e-09 -0.000156182)
(-1.97789e-08 -7.14591e-09 -0.000156544)
(2.36688e-08 6.23019e-09 -0.000156165)
(9.72956e-09 8.68883e-09 -0.000167391)
(-1.72865e-09 -1.94909e-08 -0.000167711)
(3.59361e-08 -4.83242e-09 -0.00016724)
(-5.63759e-09 -1.11776e-08 -0.000167599)
(-6.63827e-09 -9.21867e-09 -0.000167701)
(1.28465e-08 2.95547e-09 -0.000167398)
(-1.17162e-08 -6.76193e-09 -0.000167608)
(2.19277e-08 3.19716e-09 -0.000167267)
(-6.20817e-09 -6.70097e-09 -0.000167285)
(2.13657e-08 3.3994e-09 -0.000167618)
(-7.53053e-09 -8.72756e-09 -0.000167449)
(8.91705e-09 1.27503e-08 -0.000167749)
(1.58871e-08 7.94815e-09 -0.000167611)
(-3.94277e-09 -9.56986e-09 -0.00016729)
(1.13932e-08 8.9477e-09 -0.000167733)
(-7.94145e-09 -1.093e-08 -0.000167449)
(1.43084e-08 -7.79013e-09 -0.000156159)
(-2.37431e-08 1.06117e-08 -0.000156554)
(1.89825e-08 1.0004e-08 -0.000156542)
(-7.08588e-09 -8.76976e-09 -0.000156181)
(-2.03688e-08 1.00664e-08 -0.000156531)
(7.9518e-09 -8.99973e-09 -0.000156175)
(8.74322e-09 -6.36815e-09 -0.000167461)
(-8.05675e-09 1.37324e-08 -0.000167771)
(-1.7303e-08 6.67348e-09 -0.000167597)
(1.02085e-08 -7.5288e-09 -0.00016728)
(-1.59906e-08 -9.58173e-10 -0.000167752)
(4.28907e-09 -1.40902e-08 -0.000167475)
(-9.60128e-09 1.45408e-08 -0.000156458)
(1.12842e-08 -1.58323e-08 -0.000156812)
(1.3075e-08 1.04661e-08 -0.000156766)
(-6.05993e-09 -1.1063e-08 -0.00015645)
(1.19034e-08 -1.33683e-08 -0.000156787)
(-8.06538e-09 6.28147e-09 -0.000156473)
(7.69841e-09 -1.34255e-08 -0.000156451)
(-1.29259e-08 1.35955e-08 -0.000156798)
(9.8629e-09 1.14771e-08 -0.000156419)
(-1.03334e-08 -1.86901e-08 -0.000156773)
(-1.31645e-08 8.8768e-09 -0.000156772)
(6.72438e-09 -1.18644e-08 -0.000156457)
(-1.07516e-08 -1.17927e-08 -0.00015675)
(8.33821e-09 6.34716e-09 -0.000156429)
(-1.27994e-08 5.86769e-09 -0.000167303)
(2.25925e-08 -4.81428e-09 -0.000167641)
(8.94202e-09 -9.85998e-09 -0.000167752)
(-4.25385e-09 1.56635e-08 -0.00016746)
(1.5192e-08 -7.91734e-09 -0.000167613)
(-8.50423e-09 8.70906e-09 -0.000167312)
(-1.81917e-08 6.29375e-09 -0.000156193)
(2.01908e-08 -1.03619e-08 -0.000156587)
(1.7262e-08 7.79936e-09 -0.000156174)
(-2.06438e-08 -1.07956e-08 -0.00015657)
(1.94616e-08 -1.06011e-08 -0.000156555)
(-1.23462e-08 8.07234e-09 -0.000156207)
(-2.11692e-08 -1.09615e-08 -0.000156534)
(1.41217e-08 7.03371e-09 -0.000156187)
(8.65447e-09 8.3284e-09 -0.000167398)
(-5.07726e-09 -1.80754e-08 -0.000167718)
(1.40124e-08 4.94694e-09 -0.00016728)
(-1.7453e-08 -6.00836e-09 -0.000167623)
(-1.51909e-08 -3.22044e-09 -0.00016771)
(5.27777e-09 1.27121e-08 -0.000167409)
(-1.73564e-08 -7.43112e-09 -0.000167597)
(7.48944e-09 8.96781e-09 -0.000167284)
(-5.43106e-09 -8.71687e-09 -0.000167275)
(1.68815e-08 1.02211e-08 -0.000167606)
(-6.5073e-09 -9.02573e-09 -0.000167426)
(1.23295e-08 8.04721e-09 -0.00016772)
(1.29322e-08 1.02105e-08 -0.00016757)
(-1.35468e-08 -5.53396e-09 -0.000167256)
(1.23415e-08 5.76073e-09 -0.00016769)
(-3.52126e-09 -1.50439e-08 -0.0001674)
(1.57192e-08 -3.4729e-09 -0.000156157)
(-1.6931e-08 1.21605e-08 -0.00015653)
(1.47625e-08 1.13751e-08 -0.000156496)
(-1.55317e-08 -5.46986e-09 -0.000156147)
(-1.47874e-08 1.13271e-08 -0.000156491)
(1.58367e-08 -4.81888e-09 -0.000156151)
(8.51139e-10 -1.66323e-08 -0.000167449)
(-1.44115e-08 6.36104e-09 -0.000167736)
(-1.40075e-08 7.3231e-09 -0.00016756)
(1.65306e-08 -3.63429e-09 -0.000167246)
(-1.57695e-08 9.13377e-10 -0.000167696)
(1.85193e-09 -1.91648e-08 -0.000167429)
(-4.58011e-09 1.31526e-08 -0.000156454)
(1.54103e-08 -9.28791e-09 -0.000156789)
(1.25831e-08 1.08463e-08 -0.000156723)
(-7.60654e-09 -1.2042e-08 -0.000156401)
(1.44365e-08 -9.2654e-09 -0.00015676)
(-4.4953e-09 1.80496e-08 -0.000156444)
(6.76579e-10 -2.34502e-08 -0.00015644)
(-1.6232e-08 5.56629e-09 -0.000156771)
(1.88806e-09 1.59474e-08 -0.000156422)
(-1.37887e-08 -1.15453e-08 -0.00015675)
(-1.25467e-08 7.59212e-09 -0.000156732)
(4.92951e-09 -1.76744e-08 -0.000156425)
(-1.27293e-08 -8.81256e-09 -0.000156724)
(3.9616e-09 1.56946e-08 -0.000156409)
(-1.19027e-08 3.15505e-09 -0.000167285)
(1.67051e-08 -1.18805e-08 -0.000167598)
(9.82563e-09 -1.00201e-08 -0.000167722)
(-1.78811e-09 1.59427e-08 -0.000167433)
(8.0245e-09 -1.45406e-08 -0.000167564)
(-1.49397e-08 6.75986e-09 -0.000167254)
(-1.86919e-08 2.88533e-09 -0.000156181)
(1.91898e-08 -1.03393e-08 -0.000156539)
(1.51841e-08 3.37546e-09 -0.000156166)
(-2.07742e-08 -1.12892e-08 -0.000156521)
(1.98402e-08 -7.66231e-09 -0.000156498)
(-1.45976e-08 4.78558e-09 -0.000156163)
(-1.64649e-08 -1.0429e-08 -0.000156486)
(1.91307e-08 2.27429e-09 -0.000156141)
(7.23067e-10 1.74155e-08 -0.0001674)
(-1.08403e-08 -1.11388e-08 -0.000167701)
(1.14036e-08 3.75584e-09 -0.000167261)
(-1.86134e-08 -7.22764e-09 -0.000167586)
(-1.1139e-08 -6.54395e-09 -0.000167668)
(5.59944e-09 1.28425e-08 -0.00016738)
(-8.94848e-09 -1.08527e-08 -0.000167552)
(1.6445e-08 3.15007e-09 -0.000167245)
(-1.05668e-08 -5.84934e-09 -0.000167234)
(1.34747e-08 6.41644e-09 -0.000167553)
(-5.16531e-09 -1.0598e-08 -0.000167388)
(9.12156e-09 8.86532e-09 -0.000167685)
(1.44061e-08 4.07881e-09 -0.000167534)
(-1.07091e-08 -6.16073e-09 -0.000167224)
(6.73819e-09 1.02471e-08 -0.000167673)
(-6.30144e-09 -1.05421e-08 -0.000167375)
(2.13318e-08 -4.19177e-09 -0.000156118)
(-1.75331e-08 1.18041e-08 -0.000156493)
(1.95776e-08 8.24929e-09 -0.000156472)
(-1.67128e-08 -9.24538e-09 -0.000156105)
(-2.2131e-08 5.40858e-09 -0.000156474)
(1.69616e-08 -9.39732e-09 -0.000156108)
(5.27585e-09 -1.36465e-08 -0.000167399)
(-9.6068e-09 1.1019e-08 -0.000167699)
(-1.31333e-08 4.60965e-09 -0.000167534)
(1.18455e-08 -6.50522e-09 -0.000167219)
(-7.43763e-09 8.18471e-09 -0.000167688)
(6.02795e-09 -1.58645e-08 -0.000167398)
(-4.12637e-09 1.65878e-08 -0.000156421)
(1.08145e-08 -1.45948e-08 -0.000156749)
(9.85437e-09 9.76563e-09 -0.000156703)
(-9.09017e-09 -1.27954e-08 -0.000156366)
(5.21468e-09 -1.16215e-08 -0.000156733)
(-9.21805e-09 1.19649e-08 -0.000156409)
(2.70957e-09 -2.04039e-08 -0.000156394)
(-1.15555e-08 1.08796e-08 -0.000156735)
(5.60618e-09 1.60085e-08 -0.000156383)
(-1.10094e-08 -1.56062e-08 -0.000156715)
(-6.2066e-09 1.40084e-08 -0.000156723)
(9.38355e-09 -1.34768e-08 -0.000156397)
(-5.5816e-09 -1.23229e-08 -0.000156703)
(9.62557e-09 9.44475e-09 -0.000156377)
(-1.56821e-08 4.60015e-09 -0.000167234)
(1.65703e-08 -7.95727e-09 -0.000167568)
(5.75496e-09 -1.15515e-08 -0.000167698)
(-5.97253e-09 1.47397e-08 -0.000167401)
(1.39335e-08 -6.5536e-09 -0.000167547)
(-1.32343e-08 7.73427e-09 -0.000167234)
(-1.68421e-08 4.52875e-09 -0.000156133)
(1.83894e-08 -9.28523e-09 -0.000156502)
(2.04184e-08 4.59618e-09 -0.000156113)
(-1.62118e-08 -1.146e-08 -0.000156488)
(1.84971e-08 -5.78364e-09 -0.000156488)
(-1.57616e-08 9.37037e-09 -0.000156132)
(-1.90647e-08 -5.17098e-09 -0.000156463)
(1.51637e-08 9.34575e-09 -0.000156108)
(5.37765e-09 1.1527e-08 -0.000167362)
(-5.84733e-09 -1.68677e-08 -0.000167666)
(1.73185e-08 2.55972e-09 -0.000167219)
(-1.41648e-08 -7.9298e-09 -0.000167548)
(-7.84352e-09 -7.13478e-09 -0.000167648)
(7.40256e-09 1.16262e-08 -0.000167356)
(-1.24995e-08 -6.63917e-09 -0.000167524)
(1.31988e-08 7.60777e-09 -0.000167209)
(-8.7716e-09 -8.4437e-09 -0.00016721)
(9.0933e-09 7.3013e-09 -0.000167559)
(-8.13797e-09 -8.7409e-09 -0.000167369)
(7.28888e-09 6.51416e-09 -0.000167688)
(9.20211e-09 4.09422e-09 -0.000167571)
(-1.74126e-08 -8.51524e-09 -0.000167227)
(6.00695e-09 7.90534e-09 -0.000167701)
(-8.2023e-09 -1.50895e-08 -0.000167382)
(1.40812e-08 -1.04914e-08 -0.000156097)
(-1.47735e-08 7.4821e-09 -0.00015649)
(1.55137e-08 4.13201e-09 -0.000156506)
(-1.85858e-08 -1.22554e-08 -0.000156114)
(-1.42263e-08 4.92923e-09 -0.000156501)
(1.89702e-08 -9.6544e-09 -0.000156126)
(9.35607e-09 -9.52196e-09 -0.000167389)
(-5.40751e-09 1.15114e-08 -0.000167704)
(-8.19184e-09 6.5955e-09 -0.000167563)
(1.74226e-08 -7.37839e-09 -0.000167226)
(-7.61049e-09 4.04482e-09 -0.000167705)
(8.35641e-09 -1.46154e-08 -0.000167409)
(-1.02136e-08 1.22081e-08 -0.000156394)
(8.79414e-09 -1.0757e-08 -0.000156749)
(6.20509e-09 7.79705e-09 -0.000156729)
(-1.28362e-08 -1.61248e-08 -0.000156373)
(3.73396e-09 -1.45915e-08 -0.000156752)
(-1.15399e-08 1.25484e-08 -0.000156412)
(1.08122e-08 -1.08075e-08 -0.000156388)
(-7.64785e-09 1.21646e-08 -0.000156741)
(1.01216e-08 1.34005e-08 -0.000156365)
(-8.38849e-09 -1.32547e-08 -0.000156725)
(-6.87098e-09 7.7616e-09 -0.000156745)
(1.10713e-08 -1.37725e-08 -0.000156413)
(-3.06362e-09 -1.18633e-08 -0.000156721)
(1.29404e-08 1.01515e-08 -0.000156384)
(-1.47664e-08 6.04424e-09 -0.000167221)
(1.73678e-08 -3.63937e-09 -0.000167565)
(4.22411e-09 -1.08156e-08 -0.000167717)
(-1.02676e-08 1.22037e-08 -0.000167403)
(6.54538e-09 -6.30401e-09 -0.000167568)
(-1.39627e-08 1.03383e-08 -0.000167238)
(-1.62203e-08 9.66788e-09 -0.000156122)
(1.96464e-08 -6.76038e-09 -0.000156507)
(1.84942e-08 9.14554e-09 -0.000156093)
(-2.00411e-08 -4.46973e-09 -0.000156483)
(1.6642e-08 -5.30399e-09 -0.000156507)
(-1.41316e-08 1.23864e-08 -0.000156134)
(-1.78937e-08 -4.23915e-09 -0.000156481)
(1.39661e-08 1.27347e-08 -0.000156112)
(5.43015e-09 1.47277e-08 -0.000167347)
(-5.65765e-09 -1.16615e-08 -0.000167668)
(1.67151e-08 4.7556e-09 -0.0001672)
(-1.4986e-08 -4.68717e-09 -0.000167552)
(-7.35996e-09 -8.19621e-09 -0.000167668)
(1.12361e-08 1.1522e-08 -0.000167355)
(-1.10309e-08 -5.28674e-09 -0.000167559)
(1.70834e-08 7.93399e-09 -0.000167224)
(-1.43967e-08 -8.26206e-09 -0.000167249)
(1.37907e-08 6.70857e-09 -0.000167592)
(-1.09661e-08 -9.74933e-09 -0.000167399)
(6.44237e-09 9.46905e-09 -0.000167715)
(1.29949e-08 8.31724e-09 -0.00016759)
(-1.1031e-08 -8.80028e-09 -0.000167268)
(1.07564e-08 2.469e-09 -0.000167706)
(-5.91491e-09 -1.21576e-08 -0.000167419)
(2.10553e-08 -1.05293e-08 -0.000156132)
(-1.62443e-08 9.70816e-09 -0.000156529)
(1.60375e-08 1.08379e-08 -0.000156529)
(-1.93358e-08 -7.60515e-09 -0.000156159)
(-2.0478e-08 9.75729e-09 -0.000156518)
(1.58747e-08 -9.71362e-09 -0.000156165)
(7.42744e-09 -1.22106e-08 -0.000167417)
(-6.82003e-09 1.02802e-08 -0.000167728)
(-1.53798e-08 5.37873e-09 -0.000167581)
(8.57772e-09 -1.05676e-08 -0.000167269)
(-1.07913e-08 7.95186e-09 -0.000167717)
(7.3853e-09 -1.3458e-08 -0.000167438)
(-9.51581e-09 1.57549e-08 -0.00015643)
(1.08443e-08 -8.48267e-09 -0.000156791)
(1.52056e-08 3.45287e-09 -0.00015675)
(-1.093e-08 -1.68428e-08 -0.000156412)
(1.17349e-08 -7.83851e-09 -0.000156784)
(-1.08135e-08 1.50439e-08 -0.00015646)
(6.48714e-09 -2.02049e-08 -0.000156424)
(-1.03747e-08 9.344e-09 -0.000156779)
(1.0993e-08 1.50841e-08 -0.0001564)
(-8.63732e-09 -1.23853e-08 -0.000156748)
(-9.63936e-09 1.22901e-08 -0.000156765)
(1.00671e-08 -1.65489e-08 -0.000156441)
(-9.26959e-09 -1.19825e-08 -0.000156754)
(1.30541e-08 1.09124e-08 -0.000156417)
(-1.82067e-08 4.56461e-09 -0.000167258)
(1.39197e-08 -4.96946e-09 -0.00016761)
(8.75926e-09 -8.50869e-09 -0.000167739)
(-6.69863e-09 1.08619e-08 -0.000167447)
(3.96014e-09 -9.94226e-09 -0.000167595)
(-1.44995e-08 7.62413e-09 -0.000167292)
(-2.33338e-08 7.74322e-09 -0.000156152)
(1.19298e-08 -1.06918e-08 -0.000156548)
(2.15697e-08 8.89758e-09 -0.000156123)
(-1.20357e-08 -7.09395e-09 -0.000156505)
(1.78321e-08 -8.67427e-09 -0.000156537)
(-2.00273e-08 1.00419e-08 -0.000156181)
(-1.69741e-08 -7.95663e-09 -0.000156499)
(1.67554e-08 7.85757e-09 -0.000156146)
(9.34703e-09 1.15381e-08 -0.000167365)
(-1.96493e-09 -1.48241e-08 -0.000167689)
(1.77453e-08 4.873e-09 -0.000167242)
(-1.42526e-08 -7.8123e-09 -0.000167589)
(-1.04091e-08 -7.54971e-09 -0.000167698)
(7.16374e-09 1.12341e-08 -0.00016739)
(-1.25538e-08 -7.66207e-09 -0.00016757)
(9.53721e-09 1.12039e-08 -0.000167254)
(-8.15461e-09 -7.14959e-09 -0.000167263)
(8.36538e-09 1.69517e-08 -0.000167597)
(-3.41246e-09 -1.14224e-08 -0.000167412)
(1.97844e-08 1.28683e-09 -0.00016772)
(-2.60821e-09 1.95947e-08 -0.000167597)
(-1.77141e-09 -8.09665e-09 -0.000167255)
(2.30398e-08 -1.24896e-08 -0.000167718)
(-5.45578e-09 -3.38207e-09 -0.000167402)
(1.15034e-08 -7.97224e-09 -0.000156158)
(-2.09573e-08 1.57805e-08 -0.000156545)
(2.39194e-08 1.34348e-08 -0.00015653)
(-1.29575e-08 -6.19361e-09 -0.000156146)
(-2.84997e-08 1.09552e-08 -0.000156535)
(1.19794e-08 -6.0098e-09 -0.00015616)
(5.88726e-09 -5.98444e-09 -0.000167432)
(-2.01529e-08 6.09756e-09 -0.000167741)
(2.39765e-09 1.76162e-08 -0.000167609)
(1.64924e-09 -6.85476e-09 -0.000167268)
(-2.10486e-08 -6.91534e-09 -0.000167725)
(6.6082e-09 -2.7126e-09 -0.000167424)
(-5.5445e-09 1.43577e-08 -0.000156458)
(1.81789e-08 -7.39861e-09 -0.000156808)
(1.64928e-08 1.69528e-08 -0.000156764)
(-3.50677e-09 -1.65887e-08 -0.000156408)
(1.59205e-08 -1.53544e-08 -0.000156796)
(-1.47995e-09 1.75437e-08 -0.000156464)
(4.78348e-09 -1.38415e-08 -0.00015644)
(-1.78751e-08 1.28125e-08 -0.000156786)
(6.46744e-09 1.34816e-08 -0.00015643)
(-1.57748e-08 -1.66132e-08 -0.000156779)
(-1.30823e-08 2.64172e-08 -0.000156766)
(5.42108e-09 -1.37969e-08 -0.000156431)
(-1.18769e-08 -2.4641e-08 -0.000156776)
(6.90717e-09 6.94733e-09 -0.000156427)
(-1.36186e-08 1.90611e-09 -0.000167284)
(1.00571e-08 -1.68575e-08 -0.000167624)
(2.13618e-08 9.82352e-09 -0.000167753)
(-5.97201e-09 6.03782e-09 -0.000167443)
(-2.20429e-09 -1.9458e-08 -0.000167613)
(-1.21419e-09 6.4831e-09 -0.000167283)
(-2.09863e-08 5.59641e-09 -0.000156171)
(1.93001e-08 -1.81454e-08 -0.000156564)
(1.68908e-08 6.0521e-09 -0.000156137)
(-2.60801e-08 -1.45654e-08 -0.000156519)
(2.94229e-08 -1.03213e-08 -0.000156544)
(-1.41723e-08 5.75971e-09 -0.000156172)
(-2.9059e-08 -9.6192e-09 -0.000156508)
(9.72e-09 4.48493e-09 -0.000156135)
(3.14103e-09 1.05303e-08 -0.000167398)
(-1.41398e-08 -9.80362e-09 -0.000167714)
(1.16509e-08 3.60539e-09 -0.000167256)
(-1.48815e-08 -1.46356e-08 -0.000167582)
(-1.92111e-08 6.41277e-09 -0.000167708)
(8.45716e-09 2.00839e-10 -0.000167383)
(5.1879e-09 -1.91094e-08 -0.00016759)
(8.38889e-10 7.34277e-09 -0.000167249)
(1.17731e-08 -1.72685e-08 -0.0001672)
(-3.52231e-08 3.95674e-08 -0.000167642)
(-1.54912e-08 1.29809e-08 -0.00016735)
(3.93011e-08 -3.95889e-08 -0.000167763)
(-1.73216e-07 5.8348e-08 -0.000167722)
(5.77118e-08 -3.37116e-08 -0.000167114)
(6.11585e-08 -1.80964e-07 -0.000167848)
(-3.29889e-08 6.02546e-08 -0.000167267)
(2.37481e-08 -8.69285e-09 -0.000156112)
(-4.68755e-08 1.09862e-08 -0.000156542)
(2.89404e-08 4.88074e-09 -0.000156412)
(-3.37965e-08 1.07661e-09 -0.000156093)
(-3.1897e-08 5.99453e-09 -0.000156423)
(3.33868e-08 5.78277e-09 -0.000156108)
(1.65155e-08 1.69624e-08 -0.000167358)
(-3.71504e-08 -2.62643e-08 -0.000167791)
(1.7118e-07 6.88898e-08 -0.000167744)
(-5.74457e-08 -3.65818e-08 -0.000167129)
(-6.01105e-08 -1.8703e-07 -0.000167868)
(3.53316e-08 6.62188e-08 -0.000167288)
(-5.42863e-09 2.64175e-08 -0.000156404)
(1.37573e-08 -3.7101e-08 -0.000156799)
(3.19644e-09 2.44473e-08 -0.000156637)
(-1.16236e-09 -3.14084e-08 -0.000156352)
(1.06101e-08 -2.34157e-08 -0.000156682)
(7.5931e-09 2.92774e-08 -0.0001564)
(3.75858e-09 -1.95145e-08 -0.000156379)
(-9.47105e-09 5.06768e-08 -0.000156779)
(3.84775e-09 2.03724e-08 -0.000156378)
(-1.06714e-08 -4.779e-08 -0.000156771)
(-1.20083e-08 2.75716e-08 -0.000156654)
(1.93633e-09 -2.68455e-08 -0.000156372)
(-1.11784e-08 -3.14611e-08 -0.000156645)
(-9.44571e-09 2.81587e-08 -0.00015637)
(8.5574e-09 1.30895e-08 -0.000167212)
(-2.49814e-08 -3.83123e-08 -0.000167671)
(7.48391e-08 1.79423e-07 -0.000167886)
(-3.59858e-08 -5.92217e-08 -0.000167296)
(-1.76897e-07 -5.83448e-08 -0.000167736)
(6.16704e-08 3.40348e-08 -0.000167126)
(-2.56582e-08 3.34333e-09 -0.000156119)
(5.13358e-08 -9.04974e-09 -0.000156548)
(3.01829e-08 1.67636e-10 -0.000156082)
(-5.27766e-08 -1.06038e-08 -0.000156521)
(3.57057e-08 -1.21504e-08 -0.000156433)
(-3.50029e-08 -1.66319e-09 -0.000156102)
(-4.23683e-08 -6.34639e-09 -0.000156413)
(3.53399e-08 -6.70417e-09 -0.000156078)
(1.67838e-08 -1.51597e-08 -0.00016734)
(-3.38305e-08 2.40549e-08 -0.00016776)
(-5.50563e-09 1.22967e-08 -0.000167195)
(3.213e-08 -3.33362e-08 -0.000167644)
(-6.67269e-08 1.79691e-07 -0.00016784)
(3.46485e-08 -6.21519e-08 -0.000167259)
(1.6984e-07 -6.38793e-08 -0.000167741)
(-5.33991e-08 3.13868e-08 -0.000167117)
(2.10972e-07 -1.17357e-07 -0.000167173)
(-4.74884e-07 2.79882e-07 -0.000168422)
(-1.23003e-07 2.18249e-07 -0.000167323)
(2.77522e-07 -4.73263e-07 -0.000168561)
(-8.60879e-07 5.52664e-07 -0.000169035)
(6.50796e-07 -3.34557e-07 -0.00016782)
(5.37103e-07 -8.28086e-07 -0.00016919)
(-3.44212e-07 6.63733e-07 -0.000167947)
(-2.10646e-08 -2.884e-08 -0.000156464)
(4.77387e-08 1.06006e-08 -0.000156164)
(2.28196e-08 9.95934e-08 -0.000155553)
(1.87083e-07 -6.45603e-08 -0.00015811)
(-2.6686e-08 1.00133e-07 -0.000155566)