/*--------------------------------*- C++ -*----------------------------------*\
| =========                 |                                                 |
| \\      /  F ield         | OpenFOAM: The Open Source CFD Toolbox           |
|  \\    /   O peration     | Version:  2206                                  |
|   \\  /    A nd           | Website:  www.openfoam.com                      |
|    \\/     M anipulation  |                                                 |
\*---------------------------------------------------------------------------*/
FoamFile
{
    version     2.0;
    format      ascii;
    arch        "LSB;label=32;scalar=64";
    class       volScalarField;
    location    "110";
    object      k;
}
// * * * * * * * * * * * * * * * * * * * * * * * * * * * * * * * * * * * * * //

dimensions      [0 2 -2 0 0 0 0];

internalField   nonuniform List<scalar> 
67442
(
5.48169e-05
8.68971e-05
8.48546e-05
8.60079e-05
8.59249e-05
8.60749e-05
8.41456e-05
8.79302e-05
8.74095e-05
8.59955e-05
8.58777e-05
8.76434e-05
8.42585e-05
2.58544e-05
7.29519e-05
1.67547e-05
2.61143e-05
7.13642e-05
5.57857e-05
5.58807e-05
5.52091e-05
7.38946e-05
7.06213e-05
9.43971e-05
1.69529e-05
6.80687e-05
7.38849e-05
9.14252e-05
4.2798e-05
4.27369e-05
1.67112e-05
1.66132e-05
4.33462e-05
4.29444e-05
2.6183e-05
7.28898e-05
7.3732e-05
6.66242e-05
9.16266e-05
7.4555e-05
6.80738e-05
9.19382e-05
4.33619e-05
4.31424e-05
1.68164e-05
7.40219e-05
7.05602e-05
9.3023e-05
2.65014e-05
7.11975e-05
7.01962e-05
7.40725e-05
9.25063e-05
2.6347e-05
7.2879e-05
6.92249e-05
7.40517e-05
9.35303e-05
2.62693e-05
7.27979e-05
4.35186e-05
4.34938e-05
1.67316e-05
6.61649e-05
7.37677e-05
9.25756e-05
2.60129e-05
7.22881e-05
2.61782e-05
7.25487e-05
1.66863e-05
1.65965e-05
1.55875e-05
2.5815e-05
4.06619e-05
4.0795e-05
1.55626e-05
2.04992e-05
7.31962e-05
2.25415e-05
6.51859e-05
2.2793e-05
6.46837e-05
2.04223e-05
1.66957e-05
2.05832e-05
7.16331e-05
6.39933e-05
2.26727e-05
1.55933e-05
2.59426e-05
4.07044e-05
4.06984e-05
1.56115e-05
1.56272e-05
2.62139e-05
4.0919e-05
2.04264e-05
7.09493e-05
6.451e-05
2.25139e-05
6.43369e-05
2.23694e-05
2.05298e-05
1.69211e-05
1.70222e-05
6.97877e-05
8.74437e-05
4.2684e-05
2.59841e-05
8.8774e-05
2.5822e-05
6.96778e-05
6.86323e-05
8.6858e-05
4.25836e-05
2.54645e-05
8.6285e-05
2.53742e-05
6.88241e-05
3.18813e-05
1.48494e-05
1.47055e-05
1.48171e-05
1.46668e-05
3.20508e-05
1.66524e-05
1.65708e-05
1.67377e-05
7.03706e-05
8.89553e-05
4.33339e-05
2.61703e-05
2.61743e-05
8.91114e-05
7.02534e-05
6.94676e-05
8.86082e-05
4.27972e-05
2.59314e-05
2.59117e-05
8.79358e-05
6.9508e-05
3.22433e-05
1.48477e-05
1.49021e-05
1.48824e-05
1.48894e-05
3.2267e-05
1.55342e-05
2.62597e-05
4.11931e-05
4.08363e-05
1.56375e-05
2.05973e-05
7.29459e-05
2.25432e-05
6.57898e-05
2.27442e-05
6.54291e-05
2.06848e-05
6.86788e-05
8.87335e-05
4.33136e-05
2.5849e-05
2.58248e-05
8.91593e-05
6.94662e-05
6.90539e-05
8.82061e-05
4.30954e-05
2.59652e-05
8.79028e-05
2.58508e-05
6.93137e-05
3.19173e-05
1.48664e-05
1.48464e-05
1.48046e-05
1.46946e-05
3.19862e-05
1.67761e-05
2.08569e-05
7.21072e-05
2.28246e-05
6.44802e-05
1.57574e-05
2.64862e-05
4.08811e-05
4.13278e-05
1.57508e-05
1.58802e-05
2.65788e-05
4.10147e-05
2.07567e-05
7.19234e-05
2.27254e-05
6.47112e-05
2.26623e-05
6.49215e-05
2.08078e-05
1.58504e-05
2.62924e-05
4.11618e-05
4.10036e-05
1.58979e-05
2.09701e-05
7.27812e-05
6.55007e-05
2.32052e-05
6.53266e-05
2.31451e-05
2.09945e-05
1.56975e-05
2.62321e-05
4.09004e-05
4.08136e-05
1.57358e-05
2.06296e-05
7.23466e-05
2.3061e-05
6.44925e-05
2.29906e-05
6.41411e-05
2.0744e-05
7.0401e-05
8.91357e-05
4.30594e-05
2.62815e-05
2.6244e-05
8.82759e-05
6.99994e-05
7.1259e-05
8.87443e-05
4.34346e-05
2.65595e-05
8.93527e-05
2.6431e-05
7.13859e-05
3.2737e-05
1.52092e-05
1.52151e-05
1.51868e-05
1.5195e-05
3.288e-05
1.67332e-05
1.55946e-05
2.61339e-05
4.10594e-05
4.10482e-05
1.56074e-05
2.03964e-05
7.22132e-05
6.49067e-05
2.26331e-05
6.49328e-05
2.26059e-05
2.05252e-05
1.55511e-05
2.61813e-05
4.11973e-05
4.11469e-05
1.56251e-05
2.06004e-05
7.22255e-05
6.54075e-05
2.25584e-05
6.49255e-05
2.23693e-05
2.06498e-05
1.66833e-05
1.65754e-05
3.89762e-05
4.02986e-05
2.46036e-05
9.1154e-05
9.38808e-05
9.44589e-05
8.74229e-05
9.55582e-05
9.43961e-05
9.11196e-05
9.16986e-05
9.62598e-05
9.3637e-05
8.73784e-05
9.64214e-05
9.47085e-05
9.15203e-05
9.08103e-05
9.40805e-05
9.4122e-05
8.81e-05
9.49475e-05
9.58616e-05
9.01083e-05
9.16937e-05
9.67481e-05
9.62437e-05
8.80746e-05
9.64355e-05
9.70307e-05
9.25947e-05
3.95016e-05
4.10182e-05
2.493e-05
4.08349e-05
3.98092e-05
2.47591e-05
4.0565e-05
3.94036e-05
2.48405e-05
9.18411e-05
9.30884e-05
7.37866e-05
8.59937e-05
9.28532e-05
8.73134e-05
9.18199e-05
8.77732e-05
9.44319e-05
9.29784e-05
8.48164e-05
9.23142e-05
8.60216e-05
8.89577e-05
9.01187e-05
9.35196e-05
7.41241e-05
8.65019e-05
9.49319e-05
8.67235e-05
8.9999e-05
8.68981e-05
9.24521e-05
8.18363e-05
9.1724e-05
8.2306e-05
9.07543e-05
8.60292e-05
9.09821e-05
9.38259e-05
7.38847e-05
8.60729e-05
8.733e-05
9.32298e-05
9.06065e-05
8.64124e-05
9.28669e-05
9.09652e-05
8.2861e-05
9.22278e-05
8.26057e-05
8.64869e-05
9.08128e-05
9.28033e-05
7.47562e-05
8.81516e-05
8.83332e-05
9.38083e-05
9.13601e-05
8.7497e-05
9.31572e-05
9.27082e-05
8.39117e-05
9.19728e-05
8.34782e-05
8.73904e-05
9.24277e-05
9.47783e-05
7.32791e-05
8.69207e-05
8.71669e-05
9.35145e-05
9.25742e-05
8.89389e-05
9.35193e-05
9.17363e-05
8.58537e-05
9.22104e-05
8.53461e-05
8.87455e-05
9.16673e-05
9.52694e-05
7.49642e-05
8.79777e-05
8.82492e-05
9.54413e-05
9.22125e-05
8.88163e-05
9.24058e-05
8.48634e-05
9.17853e-05
8.42262e-05
9.31629e-05
8.73957e-05
9.06866e-05
9.36887e-05
7.422e-05
8.64723e-05
9.33586e-05
8.63898e-05
9.21001e-05
8.90774e-05
9.2729e-05
8.51921e-05
9.20257e-05
8.59458e-05
9.25688e-05
8.89535e-05
8.88146e-05
9.1888e-05
7.39925e-05
8.62558e-05
9.28164e-05
8.60346e-05
9.03946e-05
8.61234e-05
9.16887e-05
8.25753e-05
9.11743e-05
8.20907e-05
9.10561e-05
8.62773e-05
4.70741e-06
1.09067e-06
1.92279e-07
5.00104e-08
2.45151e-07
4.75826e-06
1.12855e-06
2.02825e-07
5.51951e-08
2.77164e-07
4.7818e-06
1.10661e-06
1.94915e-07
5.03593e-08
2.45985e-07
4.84922e-06
1.1495e-06
2.06299e-07
5.56338e-08
2.78049e-07
4.73838e-06
1.12264e-06
2.01668e-07
5.5072e-08
2.77086e-07
4.76032e-06
1.12909e-06
2.02876e-07
5.52619e-08
2.77658e-07
4.77306e-06
1.1068e-06
1.95082e-07
5.03068e-08
2.45391e-07
4.8102e-06
1.14029e-06
2.04766e-07
5.54985e-08
2.78072e-07
4.86422e-06
1.12627e-06
1.98327e-07
5.07211e-08
2.46278e-07
4.83529e-06
1.11983e-06
1.9727e-07
5.06396e-08
2.46364e-07
4.81322e-06
1.11395e-06
1.96217e-07
5.05111e-08
2.46138e-07
4.76969e-06
1.13236e-06
2.03457e-07
5.5285e-08
2.77392e-07
4.74173e-06
1.09944e-06
1.93791e-07
5.01859e-08
2.45412e-07
4.74417e-06
1.09931e-06
1.93794e-07
5.01627e-08
2.45268e-07
4.7861e-06
1.13552e-06
2.03978e-07
5.53748e-08
2.77737e-07
4.71476e-06
1.11822e-06
2.00955e-07
5.49864e-08
2.76997e-07
4.80205e-06
1.13782e-06
2.04135e-07
5.52731e-08
2.76877e-07
4.71434e-06
1.09423e-06
1.9302e-07
5.01049e-08
2.45311e-07
4.74685e-06
1.12616e-06
2.02394e-07
5.51416e-08
2.77049e-07
4.60091e-06
1.07625e-06
1.91185e-07
5.10106e-08
2.53699e-07
4.78753e-06
1.12454e-06
2.0037e-07
5.27907e-08
2.60588e-07
4.85259e-06
1.15033e-06
2.06386e-07
5.54911e-08
2.76826e-07
4.77796e-06
1.10735e-06
1.95091e-07
5.02996e-08
2.45376e-07
4.80007e-06
1.11179e-06
1.95825e-07
5.04438e-08
2.45976e-07
4.85461e-06
1.152e-06
2.06782e-07
5.55886e-08
2.77303e-07
4.87891e-06
1.15702e-06
2.07684e-07
5.57684e-08
2.78056e-07
4.89298e-06
1.13181e-06
1.9919e-07
5.10255e-08
2.48093e-07
4.87445e-06
1.12831e-06
1.9865e-07
5.09068e-08
2.47511e-07
4.80185e-06
1.11255e-06
1.96073e-07
5.06755e-08
2.47597e-07
4.79559e-06
1.11228e-06
1.96109e-07
5.06559e-08
2.47384e-07
4.41177e-06
1.04233e-06
1.8724e-07
5.30102e-08
2.71984e-07
4.38171e-06
1.03586e-06
1.86135e-07
5.28888e-08
2.71835e-07
4.40667e-06
1.04135e-06
1.87017e-07
5.29061e-08
2.71328e-07
4.37682e-06
1.03633e-06
1.86314e-07
5.28452e-08
2.71328e-07
4.73161e-06
1.12194e-06
2.01606e-07
5.50594e-08
2.76967e-07
4.76648e-06
1.13255e-06
2.03566e-07
5.52381e-08
2.76925e-07
4.79869e-06
1.13879e-06
2.04514e-07
5.5411e-08
2.77664e-07
4.76878e-06
1.10502e-06
1.94741e-07
5.02906e-08
2.45517e-07
4.88219e-06
1.12933e-06
1.98898e-07
5.10286e-08
2.48221e-07
4.87769e-06
1.12894e-06
1.98767e-07
5.09482e-08
2.47709e-07
4.41618e-06
1.04414e-06
1.87629e-07
5.30733e-08
2.72102e-07
4.39231e-06
1.04042e-06
1.87052e-07
5.29461e-08
2.71526e-07
4.80169e-06
1.13835e-06
2.0439e-07
5.53614e-08
2.7728e-07
4.66442e-06
1.09139e-06
1.93963e-07
5.13351e-08
2.54004e-07
4.81236e-06
1.13052e-06
2.01529e-07
5.29311e-08
2.60721e-07
4.90958e-06
1.165e-06
2.09032e-07
5.57825e-08
2.77099e-07
4.86021e-06
1.12516e-06
1.98059e-07
5.06098e-08
2.45647e-07
4.87576e-06
1.12858e-06
1.98634e-07
5.074e-08
2.46257e-07
4.82965e-06
1.11876e-06
1.97074e-07
5.05368e-08
2.45691e-07
4.87437e-06
1.15546e-06
2.07339e-07
5.56106e-08
2.76967e-07
4.81099e-06
1.1138e-06
1.9618e-07
5.04254e-08
2.4549e-07
4.95664e-06
1.14675e-06
2.01743e-07
5.12788e-08
2.48115e-07
4.94196e-06
1.14372e-06
2.01345e-07
5.12456e-08
2.48043e-07
4.52007e-06
1.06896e-06
1.91856e-07
5.35005e-08
2.72263e-07
4.76504e-06
1.13078e-06
2.03177e-07
5.52476e-08
2.77286e-07
4.80118e-06
1.1383e-06
2.04442e-07
5.534e-08
2.77019e-07
4.74611e-06
1.09976e-06
1.93836e-07
5.02085e-08
2.45538e-07
4.79606e-06
1.13725e-06
2.04164e-07
5.52918e-08
2.76958e-07
4.7454e-06
1.0992e-06
1.93807e-07
5.01836e-08
2.45391e-07
4.77756e-06
1.13308e-06
2.03512e-07
5.52349e-08
2.76976e-07
4.71097e-06
1.11739e-06
2.00827e-07
5.49614e-08
2.76876e-07
4.79092e-06
1.13659e-06
2.04148e-07
5.53224e-08
2.77113e-07
4.92396e-06
1.16781e-06
2.09519e-07
5.58602e-08
2.77288e-07
4.52346e-06
1.0576e-06
1.88057e-07
5.06037e-08
2.52802e-07
4.69845e-06
1.10507e-06
1.97124e-07
5.23284e-08
2.59383e-07
4.72997e-06
1.11021e-06
1.97834e-07
5.24083e-08
2.59543e-07
4.51804e-06
1.05695e-06
1.87931e-07
5.05609e-08
2.52587e-07
4.78155e-06
1.1328e-06
2.03383e-07
5.51688e-08
2.76561e-07
4.87007e-06
1.12679e-06
1.98304e-07
5.09144e-08
2.47875e-07
4.85274e-06
1.12288e-06
1.9773e-07
5.08342e-08
2.47597e-07
4.42135e-06
1.04536e-06
1.87668e-07
5.30568e-08
2.72024e-07
4.40494e-06
1.04149e-06
1.87038e-07
5.2933e-08
2.71483e-07
4.83906e-06
1.14622e-06
2.0569e-07
5.55229e-08
2.7759e-07
4.58633e-06
1.07397e-06
1.90845e-07
5.0866e-08
2.52784e-07
4.75463e-06
1.11721e-06
1.99207e-07
5.26904e-08
2.60593e-07
4.75079e-06
1.11924e-06
1.99739e-07
5.26188e-08
2.59553e-07
4.58781e-06
1.07291e-06
1.90655e-07
5.0968e-08
2.53727e-07
4.86411e-06
1.15371e-06
2.07017e-07
5.56462e-08
2.77582e-07
4.94618e-06
1.14362e-06
2.01241e-07
5.12641e-08
2.48373e-07
4.94395e-06
1.14306e-06
2.01101e-07
5.11677e-08
2.47719e-07
4.52493e-06
1.0694e-06
1.91862e-07
5.35004e-08
2.72342e-07
4.52017e-06
1.06808e-06
1.91601e-07
5.33878e-08
2.71636e-07
4.8884e-06
1.1297e-06
1.98787e-07
5.09533e-08
2.47786e-07
4.89904e-06
1.13279e-06
1.99306e-07
5.09767e-08
2.47609e-07
4.41086e-06
1.04303e-06
1.87381e-07
5.29944e-08
2.7175e-07
4.42896e-06
1.04808e-06
1.88259e-07
5.3021e-08
2.71303e-07
4.87975e-06
1.1275e-06
1.98434e-07
5.09409e-08
2.47988e-07
4.88933e-06
1.13072e-06
1.98998e-07
5.09249e-08
2.47443e-07
4.42747e-06
1.04651e-06
1.87953e-07
5.30798e-08
2.71993e-07
4.42807e-06
1.04788e-06
1.88258e-07
5.30359e-08
2.71383e-07
4.5409e-06
1.0624e-06
1.88857e-07
5.06999e-08
2.52974e-07
4.6991e-06
1.10495e-06
1.97107e-07
5.23482e-08
2.59502e-07
4.72469e-06
1.10835e-06
1.97528e-07
5.23999e-08
2.59643e-07
4.55553e-06
1.06569e-06
1.89424e-07
5.0737e-08
2.52852e-07
4.80205e-06
1.13769e-06
2.04212e-07
5.52878e-08
2.76853e-07
4.64839e-06
1.08858e-06
1.93459e-07
5.11657e-08
2.53073e-07
4.79552e-06
1.12669e-06
2.00893e-07
5.28725e-08
2.60732e-07
4.7893e-06
1.12628e-06
2.00899e-07
5.27473e-08
2.59684e-07
4.65035e-06
1.08831e-06
1.93386e-07
5.12748e-08
2.54024e-07
4.90053e-06
1.16185e-06
2.08454e-07
5.58251e-08
2.77892e-07
4.93652e-06
1.17007e-06
2.09857e-07
5.59575e-08
2.77878e-07
4.93333e-06
1.17064e-06
2.10054e-07
5.60139e-08
2.78113e-07
4.69797e-06
1.09949e-06
1.95296e-07
5.13624e-08
2.53284e-07
4.89744e-06
1.15061e-06
2.04947e-07
5.32938e-08
2.61079e-07
4.90001e-06
1.15243e-06
2.05291e-07
5.31958e-08
2.6002e-07
4.70025e-06
1.0999e-06
1.95383e-07
5.14924e-08
2.54261e-07
4.64132e-06
1.08763e-06
1.93315e-07
5.11408e-08
2.53018e-07
4.86305e-06
1.1418e-06
2.03364e-07
5.31253e-08
2.60946e-07
4.85599e-06
1.14068e-06
2.03164e-07
5.2973e-08
2.59884e-07
4.64421e-06
1.08663e-06
1.93053e-07
5.12324e-08
2.53989e-07
4.88396e-06
1.15841e-06
2.07906e-07
5.57668e-08
2.77777e-07
4.51539e-06
1.06782e-06
1.91634e-07
5.34368e-08
2.71934e-07
4.79851e-06
1.137e-06
2.04185e-07
5.52801e-08
2.76741e-07
4.51708e-06
1.05814e-06
1.88297e-07
5.06368e-08
2.52842e-07
4.69824e-06
1.10322e-06
1.96674e-07
5.2282e-08
2.59369e-07
4.69318e-06
1.10266e-06
1.96617e-07
5.22927e-08
2.59502e-07
4.52555e-06
1.05899e-06
1.8839e-07
5.06287e-08
2.52702e-07
4.80273e-06
1.13842e-06
2.04317e-07
5.52661e-08
2.76668e-07
4.54405e-06
1.06325e-06
1.88989e-07
5.06963e-08
2.52869e-07
4.68502e-06
1.10087e-06
1.96383e-07
5.22676e-08
2.59397e-07
4.67295e-06
1.09943e-06
1.96243e-07
5.2282e-08
2.59572e-07
4.54704e-06
1.06295e-06
1.88953e-07
5.06765e-08
2.52695e-07
8.67323e-05
8.78785e-05
8.46785e-05
5.57759e-05
7.04399e-05
7.03932e-05
9.22346e-05
2.63898e-05
7.13168e-05
7.03629e-05
7.46314e-05
9.25712e-05
1.69029e-05
4.3561e-05
2.04734e-05
7.05757e-05
6.36508e-05
2.24555e-05
6.39786e-05
2.25036e-05
2.04171e-05
1.58333e-05
2.64766e-05
4.11381e-05
4.12729e-05
1.57748e-05
2.07517e-05
7.06147e-05
2.26143e-05
6.394e-05
2.26524e-05
6.4347e-05
2.06327e-05
1.69225e-05
7.02928e-05
8.91169e-05
4.34759e-05
2.61276e-05
8.86079e-05
2.61727e-05
7.04567e-05
7.09764e-05
8.94828e-05
8.81579e-05
7.0975e-05
3.27001e-05
1.50416e-05
1.50826e-05
3.27001e-05
9.1156e-05
8.7941e-05
9.69578e-05
9.60794e-05
9.55388e-05
9.55661e-05
9.24994e-05
4.08883e-05
2.45705e-05
4.07329e-05
3.97165e-05
2.47797e-05
8.91916e-05
9.32917e-05
9.18531e-05
8.61132e-05
9.17667e-05
8.61223e-05
8.89388e-05
9.27706e-05
9.52738e-05
7.4173e-05
8.70002e-05
8.76753e-05
9.49554e-05
9.20139e-05
8.7798e-05
9.33739e-05
8.59256e-05
9.23335e-05
8.61843e-05
9.24353e-05
8.78784e-05
9.09958e-05
9.44599e-05
9.42666e-05
9.0742e-05
8.70236e-05
8.60018e-05
8.7292e-05
5.49611e-05
1.6556e-05
1.65795e-05
4.34379e-05
4.26813e-05
2.57526e-05
7.29395e-05
7.32045e-05
6.6718e-05
9.29213e-05
2.58423e-05
7.40323e-05
1.65801e-05
1.66312e-05
6.90094e-05
8.78846e-05
4.29962e-05
2.60853e-05
2.60906e-05
8.8394e-05
6.98209e-05
6.87162e-05
8.76412e-05
4.27705e-05
2.55313e-05
2.57334e-05
8.8134e-05
6.84392e-05
3.20311e-05
1.47993e-05
1.48161e-05
1.48503e-05
1.47989e-05
3.17139e-05
1.55396e-05
2.5924e-05
4.08132e-05
4.08186e-05
1.55281e-05
2.05421e-05
7.20444e-05
2.25751e-05
6.5201e-05
2.25689e-05
6.48826e-05
2.05624e-05
1.55617e-05
2.60195e-05
4.03863e-05
4.05868e-05
1.55381e-05
9.13613e-05
8.62642e-05
9.50989e-05
9.42715e-05
9.57613e-05
9.53282e-05
9.07471e-05
3.91131e-05
9.06646e-05
9.38229e-05
7.34528e-05
8.66096e-05
9.24388e-05
8.65224e-05
9.07196e-05
8.50439e-05
9.15847e-05
9.16586e-05
8.30103e-05
9.11593e-05
8.27646e-05
8.61597e-05
9.228e-05
9.46676e-05
7.32374e-05
8.72423e-05
9.42903e-05
8.69918e-05
9.24619e-05
4.84894e-06
1.12366e-06
1.97964e-07
5.06171e-08
2.45666e-07
4.84193e-06
1.1477e-06
2.05944e-07
5.55082e-08
2.7732e-07
4.92278e-06
1.16659e-06
2.09185e-07
5.59059e-08
2.78034e-07
4.85679e-06
1.12471e-06
1.98087e-07
5.07133e-08
2.46384e-07
4.85349e-06
1.15082e-06
2.06492e-07
5.56666e-08
2.78186e-07
4.57889e-06
1.0713e-06
1.9045e-07
5.09684e-08
2.53853e-07
4.74223e-06
1.11413e-06
1.98638e-07
5.25105e-08
2.59604e-07
4.74829e-06
1.11529e-06
1.98846e-07
5.26683e-08
2.60713e-07
4.56879e-06
1.06888e-06
1.8998e-07
5.07948e-08
2.52841e-07
4.64265e-06
1.08601e-06
1.92955e-07
5.12457e-08
2.54131e-07
4.77755e-06
1.12276e-06
2.00164e-07
5.26774e-08
2.59734e-07
4.78269e-06
1.12371e-06
2.00337e-07
5.28313e-08
2.60835e-07
4.63072e-06
1.08417e-06
1.92682e-07
5.10967e-08
2.53123e-07
4.90134e-06
1.16143e-06
2.08294e-07
5.57158e-08
2.77172e-07
4.92828e-06
1.14054e-06
2.00795e-07
5.11506e-08
2.47749e-07
4.93379e-06
1.1421e-06
2.01107e-07
5.12722e-08
2.48496e-07
4.48876e-06
1.06244e-06
1.90823e-07
5.3332e-08
2.71703e-07
4.49374e-06
1.06193e-06
1.90618e-07
5.34036e-08
2.72492e-07
4.72321e-06
1.12124e-06
2.01576e-07
5.50671e-08
2.77053e-07
4.74483e-06
1.12501e-06
2.02119e-07
5.50988e-08
2.76952e-07
4.69245e-06
1.08781e-06
1.91864e-07
5.00005e-08
2.45362e-07
4.75574e-06
1.10203e-06
1.94237e-07
5.02273e-08
2.45391e-07
4.73304e-06
1.1237e-06
2.01972e-07
5.51256e-08
2.77228e-07
4.75568e-06
1.12735e-06
2.02535e-07
5.52424e-08
2.77784e-07
4.77174e-06
1.13023e-06
2.0292e-07
5.51407e-08
2.76678e-07
4.70077e-06
1.08872e-06
1.91965e-07
4.99969e-08
2.45276e-07
4.76712e-06
1.10391e-06
1.94576e-07
5.03526e-08
2.46113e-07
4.40478e-06
1.04157e-06
1.87051e-07
5.29057e-08
2.71361e-07
4.41402e-06
1.04372e-06
1.87465e-07
5.29595e-08
2.71415e-07
4.82444e-06
1.14277e-06
2.05133e-07
5.549e-08
2.7772e-07
4.82319e-06
1.14266e-06
2.05079e-07
5.53753e-08
2.76864e-07
4.87834e-06
1.12762e-06
1.98444e-07
5.09041e-08
2.47669e-07
4.88386e-06
1.12878e-06
1.98688e-07
5.09613e-08
2.47918e-07
4.83904e-06
1.12162e-06
1.97648e-07
5.08091e-08
2.47455e-07
4.8537e-06
1.1242e-06
1.98055e-07
5.09254e-08
2.48087e-07
4.41802e-06
1.04525e-06
1.87782e-07
5.30754e-08
2.72086e-07
4.41642e-06
1.04475e-06
1.87607e-07
5.30176e-08
2.71869e-07
4.53492e-06
1.06034e-06
1.88395e-07
5.06081e-08
2.52688e-07
4.70003e-06
1.10456e-06
1.9697e-07
5.23376e-08
2.59566e-07
4.68656e-06
1.10112e-06
1.96409e-07
5.22689e-08
2.59436e-07
4.53762e-06
1.06091e-06
1.88479e-07
5.06356e-08
2.52829e-07
4.77384e-06
1.13069e-06
2.0304e-07
5.5186e-08
2.76923e-07
8.68095e-05
5.56383e-05
8.70866e-05
8.56162e-05
8.62856e-05
8.75333e-05
8.74959e-05
8.41795e-05
8.60855e-05
8.80813e-05
8.67581e-05
8.76267e-05
8.78681e-05
8.81435e-05
8.53578e-05
4.23005e-05
4.233e-05
8.68755e-05
4.2133e-05
4.26289e-05
6.88199e-05
2.60811e-05
7.1549e-05
1.68787e-05
1.63943e-05
2.55009e-05
7.0344e-05
5.54596e-05
5.61992e-05
5.45505e-05
7.43971e-05
7.06742e-05
8.62536e-05
9.19824e-05
1.68598e-05
6.73412e-05
7.28743e-05
9.20224e-05
4.24442e-05
4.26235e-05
1.65728e-05
1.65985e-05
1.65086e-05
1.65912e-05
8.81126e-05
4.23953e-05
4.22396e-05
4.20054e-05
4.27887e-05
1.65917e-05
1.64956e-05
1.65834e-05
1.6547e-05
1.67379e-05
1.63129e-05
4.30815e-05
4.18463e-05
6.9035e-05
2.63383e-05
2.51957e-05
7.16659e-05
9.14369e-05
7.36227e-05
6.74586e-05
6.79853e-05
9.23231e-05
9.09671e-05
7.41546e-05
6.65847e-05
8.50142e-05
7.18263e-05
6.75513e-05
9.20438e-05
4.32616e-05
4.32622e-05
8.81456e-05
4.20373e-05
1.68272e-05
7.29247e-05
7.056e-05
9.26168e-05
2.64515e-05
7.15943e-05
7.03531e-05
7.45585e-05
9.28737e-05
2.61827e-05
7.14029e-05
7.08644e-05
7.35288e-05
9.32379e-05
2.58385e-05
7.15122e-05
4.30723e-05
4.22437e-05
1.64208e-05
6.78847e-05
7.34857e-05
9.27049e-05
2.59143e-05
7.16044e-05
2.59179e-05
7.17987e-05
1.64937e-05
1.6564e-05
3.21728e-05
1.49045e-05
1.48019e-05
1.48632e-05
1.48912e-05
3.19324e-05
7.00304e-05
8.82876e-05
2.59315e-05
4.26601e-05
2.60978e-05
7.02607e-05
8.84098e-05
6.842e-05
8.59581e-05
2.55692e-05
4.264e-05
2.56536e-05
6.90977e-05
8.69954e-05
3.2111e-05
1.48807e-05
1.48187e-05
1.49441e-05
1.48798e-05
3.22228e-05
6.94568e-05
2.57422e-05
4.24225e-05
8.77454e-05
2.60049e-05
7.01061e-05
8.72601e-05
6.91613e-05
2.57689e-05
4.27278e-05
8.66133e-05
2.5761e-05
6.91784e-05
8.72611e-05
1.97114e-05
2.14296e-05
6.17917e-05
6.90778e-05
2.17493e-05
6.20548e-05
1.9657e-05
1.54343e-05
2.62034e-05
4.06436e-05
4.00386e-05
1.54659e-05
1.51315e-05
2.55833e-05
3.92286e-05
2.01223e-05
7.03721e-05
2.22482e-05
6.40159e-05
2.21403e-05
6.32462e-05
2.02029e-05
1.68982e-05
1.67046e-05
1.54784e-05
2.56738e-05
4.00558e-05
4.00995e-05
1.5481e-05
2.04063e-05
7.06316e-05
6.40033e-05
2.22586e-05
6.32691e-05
2.23669e-05
2.04383e-05
1.68446e-05
7.02115e-05
8.75234e-05
2.60466e-05
4.25283e-05
7.02444e-05
8.87422e-05
2.60602e-05
6.91058e-05
8.69644e-05
2.5702e-05
4.23491e-05
6.86407e-05
8.75469e-05
2.57431e-05
3.21634e-05
1.49561e-05
1.48691e-05
3.20936e-05
1.48794e-05
1.48779e-05
1.66701e-05
1.65681e-05
1.65912e-05
1.65926e-05
3.22411e-05
1.49431e-05
1.49225e-05
3.22869e-05
1.48792e-05
1.48055e-05
6.96276e-05
8.79354e-05
2.6031e-05
4.23563e-05
7.00818e-05
2.6019e-05
8.72594e-05
6.84601e-05
8.7842e-05
2.5731e-05
4.24573e-05
6.92136e-05
2.56678e-05
8.69667e-05
3.22327e-05
1.49773e-05
1.49048e-05
3.22771e-05
1.48845e-05
1.48899e-05
7.02741e-05
2.60107e-05
8.72134e-05
4.24069e-05
7.0235e-05
2.59342e-05
8.81665e-05
6.89392e-05
2.56599e-05
8.61634e-05
4.26032e-05
6.9278e-05
2.54972e-05
8.71574e-05
1.65696e-05
1.64316e-05
1.65461e-05
1.65631e-05
1.67422e-05
1.64604e-05
1.63134e-05
6.91485e-05
8.83725e-05
4.29911e-05
2.60633e-05
2.60637e-05
8.83726e-05
6.9698e-05
6.8105e-05
8.70189e-05
4.14072e-05
2.52782e-05
2.5286e-05
8.72138e-05
6.82225e-05
4.24058e-05
8.73931e-05
3.16541e-05
1.4777e-05
1.45882e-05
1.47908e-05
1.46559e-05
3.15392e-05
1.98922e-05
2.17174e-05
6.20803e-05
6.97035e-05
2.17448e-05
6.24101e-05
1.98442e-05
1.5625e-05
2.6315e-05
4.08489e-05
4.0879e-05
1.56141e-05
1.53392e-05
3.92433e-05
2.58407e-05
3.98891e-05
1.51174e-05
2.03519e-05
7.03639e-05
2.23474e-05
6.47071e-05
2.22363e-05
6.37212e-05
2.04418e-05
3.20414e-05
1.48103e-05
1.48779e-05
1.49809e-05
6.85361e-05
8.89932e-05
4.33414e-05
2.57999e-05
2.57436e-05
8.90558e-05
6.92588e-05
6.94977e-05
8.84951e-05
4.28347e-05
2.61887e-05
8.93652e-05
2.59205e-05
6.97256e-05
6.94944e-05
2.5533e-05
4.29351e-05
8.77776e-05
2.60767e-05
8.78549e-05
6.88202e-05
7.00945e-05
4.30643e-05
8.87083e-05
2.61046e-05
3.2228e-05
1.4941e-05
1.50255e-05
1.49195e-05
1.49613e-05
3.22685e-05
1.68617e-05
1.67132e-05
1.58841e-05
2.61592e-05
4.10168e-05
4.10352e-05
1.58373e-05
2.07672e-05
7.15843e-05
2.2635e-05
6.5106e-05
2.26173e-05
6.44116e-05
2.06835e-05
2.06538e-05
7.17638e-05
6.39794e-05
2.2721e-05
1.57323e-05
2.62224e-05
4.07977e-05
4.07926e-05
1.57309e-05
1.57065e-05
2.61956e-05
4.07077e-05
2.06163e-05
7.17206e-05
6.41896e-05
2.27017e-05
6.43272e-05
2.2475e-05
2.06316e-05
2.05135e-05
7.13292e-05
2.26014e-05
6.42788e-05
1.56001e-05
2.60226e-05
4.03935e-05
4.03304e-05
1.55478e-05
1.54925e-05
2.58646e-05
4.00411e-05
2.06506e-05
7.07457e-05
2.26993e-05
6.43482e-05
2.26493e-05
6.3741e-05
2.05826e-05
6.88453e-05
8.8562e-05
4.30743e-05
2.58692e-05
2.59036e-05
8.77503e-05
6.93113e-05
7.00881e-05
8.79223e-05
4.2399e-05
2.58675e-05
8.68363e-05
2.59441e-05
7.02228e-05
3.20967e-05
1.49104e-05
1.48951e-05
1.48496e-05
1.48748e-05
3.22402e-05
1.64536e-05
1.54667e-05
2.58806e-05
4.06036e-05
4.03429e-05
1.54044e-05
2.05028e-05
7.16115e-05
6.49263e-05
2.2434e-05
6.49389e-05
2.229e-05
2.0493e-05
1.55576e-05
2.60711e-05
4.03787e-05
4.06031e-05
1.54698e-05
2.06099e-05
7.12498e-05
6.51927e-05
2.23264e-05
6.5261e-05
2.2431e-05
2.05924e-05
1.6573e-05
1.6589e-05
1.65898e-05
9.12596e-05
9.50446e-05
9.45544e-05
8.81273e-05
9.12941e-05
9.49911e-05
9.49613e-05
3.93847e-05
4.08513e-05
2.44773e-05
9.11868e-05
9.57335e-05
9.48948e-05
8.76756e-05
9.07263e-05
9.5871e-05
9.39724e-05
9.16845e-05
8.78635e-05
9.56014e-05
9.51658e-05
9.18206e-05
9.47729e-05
9.50423e-05
8.84907e-05
9.43642e-05
9.44636e-05
8.77843e-05
9.42242e-05
9.47662e-05
8.99415e-05
9.08016e-05
9.52011e-05
9.43654e-05
8.69641e-05
9.52888e-05
9.52637e-05
9.08015e-05
9.07148e-05
9.51851e-05
9.51885e-05
8.74915e-05
9.36938e-05
9.5127e-05
9.08482e-05
9.04638e-05
8.7783e-05
9.57634e-05
9.45052e-05
9.17141e-05
9.45042e-05
9.41283e-05
3.90233e-05
4.14275e-05
2.48861e-05
4.07446e-05
4.00373e-05
2.51694e-05
4.10694e-05
3.96897e-05
2.48988e-05
9.27801e-05
9.51968e-05
7.43609e-05
8.77142e-05
9.53449e-05
8.77933e-05
9.2642e-05
9.24783e-05
7.43276e-05
9.38168e-05
8.75572e-05
8.78836e-05
9.25985e-05
9.21206e-05
8.48702e-05
9.13744e-05
8.50671e-05
8.82096e-05
9.07431e-05
9.33716e-05
7.31173e-05
8.53063e-05
9.33794e-05
8.55816e-05
8.9361e-05
8.66826e-05
9.23263e-05
8.30981e-05
9.05674e-05
8.31512e-05
9.01304e-05
8.64954e-05
9.08802e-05
8.78904e-05
9.48491e-05
9.4896e-05
9.18126e-05
9.6221e-05
9.39548e-05
8.68265e-05
9.00176e-05
8.43392e-05
9.17164e-05
8.9498e-05
8.28192e-05
8.69925e-05
9.08063e-05
9.37737e-05
7.37196e-05
8.65273e-05
8.64733e-05
9.3859e-05
9.07194e-05
9.07092e-05
7.34187e-05
8.59729e-05
9.29234e-05
8.53376e-05
9.22577e-05
9.04502e-05
8.28694e-05
9.06793e-05
8.31545e-05
8.63862e-05
8.7499e-05
9.1202e-05
8.39019e-05
9.21856e-05
9.11454e-05
8.38759e-05
8.67367e-05
9.19481e-05
9.46773e-05
7.32422e-05
8.78062e-05
8.75603e-05
9.47547e-05
9.06869e-05
9.08959e-05
8.54291e-05
7.26707e-05
9.22527e-05
8.66951e-05
9.17245e-05
9.35918e-05
8.73645e-05
9.25549e-05
9.22274e-05
8.2524e-05
9.22959e-05
8.21539e-05
8.73624e-05
9.10449e-05
8.81095e-05
9.54958e-05
9.44258e-05
9.47592e-05
9.53557e-05
9.08811e-05
9.13847e-05
9.35565e-05
7.29358e-05
8.64243e-05
8.65483e-05
9.37222e-05
9.11581e-05
8.84145e-05
9.27231e-05
9.17236e-05
8.49311e-05
9.18303e-05
8.47897e-05
8.85892e-05
9.25175e-05
9.34228e-05
7.45548e-05
8.80726e-05
8.72296e-05
9.2864e-05
9.24761e-05
8.91658e-05
9.22067e-05
8.50331e-05
9.19214e-05
8.52655e-05
9.29395e-05
8.93452e-05
9.24553e-05
9.458e-05
7.3746e-05
8.68206e-05
9.48647e-05
8.6958e-05
9.21789e-05
8.89646e-05
9.35133e-05
8.56104e-05
9.25696e-05
8.61118e-05
9.27742e-05
8.74568e-05
9.01748e-05
9.29262e-05
7.31218e-05
8.65791e-05
9.35753e-05
8.66948e-05
8.91797e-05
8.66063e-05
9.29278e-05
8.21552e-05
9.11753e-05
8.34506e-05
9.17311e-05
8.64758e-05
5.39183e-05
8.55826e-05
8.50043e-05
8.7286e-05
5.49627e-05
8.58223e-05
8.4962e-05
8.73158e-05
5.49169e-05
8.72119e-05
8.59021e-05
8.6749e-05
5.50597e-05
8.72352e-05
8.48912e-05
8.81597e-05
5.56694e-05
8.64831e-05
8.49317e-05
8.77975e-05
5.58294e-05
8.75349e-05
8.45069e-05
8.76899e-05
5.59675e-05
8.74199e-05
8.38887e-05
8.82197e-05
5.58442e-05
8.64884e-05
8.51264e-05
8.81369e-05
5.58306e-05
8.70201e-05
8.43386e-05
8.73796e-05
5.60786e-05
8.67369e-05
8.54675e-05
8.84961e-05
5.58233e-05
8.75095e-05
8.59949e-05
8.73625e-05
5.57304e-05
8.64142e-05
8.6031e-05
8.6573e-05
5.47385e-05
8.71788e-05
8.61991e-05
8.74435e-05
5.55799e-05
8.68748e-05
8.57674e-05
8.6174e-05
5.58986e-05
8.67039e-05
8.44728e-05
8.79449e-05
5.56452e-05
8.57753e-05
8.4829e-05
8.70773e-05
8.61612e-05
8.54844e-05
8.78512e-05
8.75752e-05
8.78473e-05
8.56474e-05
8.68161e-05
8.8422e-05
8.62491e-05
8.48204e-05
8.64054e-05
8.76416e-05
8.66285e-05
8.64624e-05
8.44228e-05
8.58738e-05
8.57791e-05
8.79418e-05
8.78618e-05
8.71436e-05
8.73436e-05
8.7082e-05
8.69092e-05
8.6476e-05
8.66651e-05
8.73543e-05
8.82663e-05
8.72292e-05
8.53178e-05
8.60503e-05
8.54755e-05
8.72338e-05
8.79639e-05
8.6282e-05
8.45246e-05
8.59132e-05
8.56824e-05
8.60728e-05
8.81452e-05
8.85482e-05
8.63371e-05
8.82558e-05
8.71832e-05
8.82214e-05
8.74193e-05
8.74066e-05
8.73867e-05
8.82086e-05
8.80859e-05
8.5492e-05
8.56321e-05
8.35796e-05
8.80898e-05
8.718e-05
8.82195e-05
8.55004e-05
8.50204e-05
8.54588e-05
8.65614e-05
8.82517e-05
8.88378e-05
8.74237e-05
8.72146e-05
8.61499e-05
8.69111e-05
8.74742e-05
8.71407e-05
8.74622e-05
8.8005e-05
8.62229e-05
8.47946e-05
8.57683e-05
8.45775e-05
8.80272e-05
8.8332e-05
8.70175e-05
8.55291e-05
8.56137e-05
8.47618e-05
8.57991e-05
8.81012e-05
8.87421e-05
8.52296e-05
8.62656e-05
8.44758e-05
8.67389e-05
8.74686e-05
8.68754e-05
8.72408e-05
8.74385e-05
8.82502e-05
8.60443e-05
8.65095e-05
8.49826e-05
8.78347e-05
8.81738e-05
8.78837e-05
8.45008e-05
8.58489e-05
8.57195e-05
8.64394e-05
8.87037e-05
8.85124e-05
8.56934e-05
8.55433e-05
8.57979e-05
8.60029e-05
8.68427e-05
8.80498e-05
8.67094e-05
8.82829e-05
8.8592e-05
8.46183e-05
8.55958e-05
8.44419e-05
8.79193e-05
8.82552e-05
8.72898e-05
8.60989e-05
8.62874e-05
8.62913e-05
8.52912e-05
8.82755e-05
8.77265e-05
8.55953e-05
8.61704e-05
8.69087e-05
8.65321e-05
8.72212e-05
8.74044e-05
8.7213e-05
8.80223e-05
8.70771e-05
8.55933e-05
8.58747e-05
8.54128e-05
8.74261e-05
8.75791e-05
8.80407e-05
8.63426e-05
8.55744e-05
8.59874e-05
8.67089e-05
8.81506e-05
8.86228e-05
8.72492e-05
8.51518e-05
8.71254e-05
8.67222e-05
8.72206e-05
8.71431e-05
8.63728e-05
8.80725e-05
8.67743e-05
8.54952e-05
8.36764e-05
8.50627e-05
8.80265e-05
8.80946e-05
8.78435e-05
8.53173e-05
8.5854e-05
8.51671e-05
8.5509e-05
8.84174e-05
8.84497e-05
8.68609e-05
8.66104e-05
8.58751e-05
8.7772e-05
8.62628e-05
8.80352e-05
8.68648e-05
8.81365e-05
8.84166e-05
8.54947e-05
8.46491e-05
8.51353e-05
8.77751e-05
8.79961e-05
8.78562e-05
8.58883e-05
8.50006e-05
8.55547e-05
8.57806e-05
8.85873e-05
8.80761e-05
8.73566e-05
8.78572e-05
8.73185e-05
8.67534e-05
8.68757e-05
8.67986e-05
8.7233e-05
8.83821e-05
8.79212e-05
8.37393e-05
8.53247e-05
8.51056e-05
8.83434e-05
8.79109e-05
8.77571e-05
8.56872e-05
8.57777e-05
8.58363e-05
8.56243e-05
8.81891e-05
8.76956e-05
8.75513e-05
8.67249e-05
8.76788e-05
8.79982e-05
8.72361e-05
8.6164e-05
8.7287e-05
8.70267e-05
8.70826e-05
8.43023e-05
8.58759e-05
8.4175e-05
8.76842e-05
8.7902e-05
8.72733e-05
8.59447e-05
8.62634e-05
8.54085e-05
8.62434e-05
8.62357e-05
8.79858e-05
8.74783e-05
8.83897e-05
8.74398e-05
8.8139e-05
8.74007e-05
8.55958e-05
8.71772e-05
8.80654e-05
8.83698e-05
8.54796e-05
8.58299e-05
8.58208e-05
8.72042e-05
8.84562e-05
8.79346e-05
8.5787e-05
8.64438e-05
8.58766e-05
8.43863e-05
8.74703e-05
8.76736e-05
8.72819e-05
8.69669e-05
8.73813e-05
8.68787e-05
8.5855e-05
8.56793e-05
8.72847e-05
8.83067e-05
8.84866e-05
8.59769e-05
8.48116e-05
8.50119e-05
8.72763e-05
8.80146e-05
8.76162e-05
8.60413e-05
8.56422e-05
8.57327e-05
8.64994e-05
8.80201e-05
8.77108e-05
8.76259e-05
8.80981e-05
8.75034e-05
8.71976e-05
8.63618e-05
8.68747e-05
8.74714e-05
8.7729e-05
8.80041e-05
8.42874e-05
8.59492e-05
8.41756e-05
8.65192e-05
8.75913e-05
8.7141e-05
8.42612e-05
8.61961e-05
8.60726e-05
8.5665e-05
8.87682e-05
8.7491e-05
8.69993e-05
8.63989e-05
8.65645e-05
8.7271e-05
8.72875e-05
8.73757e-05
8.69784e-05
8.81295e-05
8.86038e-05
8.51099e-05
8.59936e-05
8.50088e-05
8.8024e-05
8.76745e-05
8.80922e-05
8.6221e-05
8.58983e-05
8.49898e-05
8.61531e-05
8.71622e-05
8.8694e-05
8.52565e-05
8.65624e-05
8.6376e-05
8.78412e-05
8.62509e-05
8.72148e-05