/*--------------------------------*- C++ -*----------------------------------*\
| =========                 |                                                 |
| \\      /  F ield         | OpenFOAM: The Open Source CFD Toolbox           |
|  \\    /   O peration     | Version:  2206                                  |
|   \\  /    A nd           | Website:  www.openfoam.com                      |
|    \\/     M anipulation  |                                                 |
\*---------------------------------------------------------------------------*/
FoamFile
{
    version     2.0;
    format      ascii;
    arch        "LSB;label=32;scalar=64";
    class       volScalarField;
    location    "110";
    object      p;
}
// * * * * * * * * * * * * * * * * * * * * * * * * * * * * * * * * * * * * * //

dimensions      [0 2 -2 0 0 0 0];

internalField   nonuniform List<scalar> 
67442
(
-0.00972443
-0.00972459
-0.00972448
-0.0097133
-0.00971329
-0.00972456
-0.00972452
-0.00971334
-0.00972458
-0.00972449
-0.00972459
-0.00971325
-0.0097246
-0.00971371
-0.00971366
-0.00971368
-0.00971344
-0.00971314
-0.00972441
-0.00972439
-0.00972448
-0.0097137
-0.00972453
-0.0097136
-0.00971349
-0.00972445
-0.00971405
-0.0097143
-0.00971353
-0.00971361
-0.00971367
-0.00971352
-0.00971363
-0.00971343
-0.00971369
-0.0097137
-0.00971402
-0.00972441
-0.00971425
-0.00971403
-0.00972447
-0.00971428
-0.00971368
-0.00971342
-0.00971348
-0.00971363
-0.00972449
-0.00971346
-0.00971346
-0.00971314
-0.00972446
-0.00971365
-0.00971344
-0.00971345
-0.00971317
-0.00972454
-0.00971375
-0.00971354
-0.00971349
-0.00971317
-0.00971344
-0.00971362
-0.00971363
-0.00972453
-0.00971399
-0.00971429
-0.00971366
-0.00971364
-0.00971365
-0.00971365
-0.00971354
-0.00971363
-0.00973568
-0.0097358
-0.0097137
-0.00973577
-0.00971387
-0.00973569
-0.00973573
-0.00971381
-0.0097137
-0.00973568
-0.00973573
-0.00971382
-0.00973575
-0.00975815
-0.00975791
-0.00975794
-0.00975813
-0.00973582
-0.0097359
-0.00971333
-0.00973597
-0.00971358
-0.00975819
-0.00975812
-0.00975804
-0.00973589
-0.00973621
-0.0097132
-0.0097135
-0.00973615
-0.00973594
-0.00971351
-0.00973592
-0.00975819
-0.00973592
-0.00971303
-0.00973585
-0.00971369
-0.00973624
-0.00973574
-0.00971344
-0.00973584
-0.00971317
-0.00973568
-0.00971374
-0.00973602
-0.00973564
-0.00971347
-0.00973594
-0.00971361
-0.00971363
-0.00973579
-0.00973575
-0.00971347
-0.0097358
-0.00973589
-0.00975815
-0.00973586
-0.00971317
-0.00973576
-0.00971376
-0.00973569
-0.00973607
-0.00971345
-0.00973593
-0.00971288
-0.00973587
-0.00971365
-0.00973576
-0.00973622
-0.00971335
-0.00973597
-0.00971367
-0.00971362
-0.00973579
-0.00973582
-0.00971345
-0.0097356
-0.00973574
-0.00971368
-0.00973572
-0.00971381
-0.00973561
-0.00973572
-0.00971381
-0.0097137
-0.00973565
-0.00973571
-0.00971378
-0.00973607
-0.00971331
-0.00973577
-0.00971374
-0.00973582
-0.00973612
-0.00971359
-0.00973566
-0.0097129
-0.00973579
-0.00971359
-0.00973613
-0.00973555
-0.00971332
-0.00973594
-0.0097136
-0.00971354
-0.00973579
-0.00973573
-0.00971341
-0.00973584
-0.00975815
-0.00975787
-0.00975813
-0.0097579
-0.00973586
-0.00973594
-0.00971336
-0.00973601
-0.00971359
-0.0097582
-0.00975812
-0.00975804
-0.00973591
-0.00973618
-0.00971352
-0.00971322
-0.00973593
-0.00973612
-0.00971352
-0.00973581
-0.0097359
-0.00971339
-0.00973598
-0.00971357
-0.00973588
-0.00973613
-0.00971325
-0.00971347
-0.0097361
-0.00973589
-0.0097135
-0.00973581
-0.0097359
-0.00971339
-0.00973597
-0.00971359
-0.00973588
-0.00973615
-0.00971349
-0.00971326
-0.00973589
-0.00973611
-0.00971353
-0.00973597
-0.00971299
-0.00973592
-0.0097136
-0.0097358
-0.00973629
-0.00971334
-0.00973582
-0.00971309
-0.00973569
-0.00971374
-0.00973596
-0.00973561
-0.00971343
-0.00973594
-0.00971361
-0.00971362
-0.00973583
-0.00973572
-0.00971341
-0.00973573
-0.00973558
-0.00973571
-0.00971366
-0.00973569
-0.00971379
-0.00973559
-0.00973564
-0.00971363
-0.00971374
-0.00973565
-0.00973558
-0.00971374
-0.00973552
-0.00973569
-0.00971364
-0.00973567
-0.00971376
-0.00973555
-0.00973567
-0.00971364
-0.00971372
-0.00973566
-0.00973554
-0.00971375
-0.00973588
-0.00973571
-0.00972431
-0.00972439
-0.00972427
-0.009735
-0.00971341
-0.00971356
-0.00973585
-0.00973577
-0.00973562
-0.00971431
-0.00973499
-0.00971352
-0.00971335
-0.00973592
-0.00973567
-0.00973576
-0.00971424
-0.00973495
-0.00971364
-0.00971345
-0.00973592
-0.00973578
-0.00973558
-0.0097144
-0.00973497
-0.00971343
-0.00971343
-0.00973586
-0.00973558
-0.00973577
-0.00971423
-0.00972441
-0.00972444
-0.00972433
-0.00972439
-0.00972434
-0.00972426
-0.00972445
-0.00972442
-0.00972434
-0.00973647
-0.00971252
-0.0097356
-0.00971368
-0.0097366
-0.00973552
-0.0097126
-0.00973655
-0.00973558
-0.00971362
-0.0097124
-0.00973554
-0.00973669
-0.00971246
-0.00973589
-0.0097129
-0.00973525
-0.00971415
-0.00973622
-0.00973504
-0.00971316
-0.0097358
-0.00973494
-0.00971329
-0.00971428
-0.00973582
-0.00973497
-0.00971332
-0.00973597
-0.00971288
-0.00973535
-0.0097141
-0.0097351
-0.0097363
-0.00971314
-0.00973589
-0.009735
-0.00971421
-0.00971325
-0.00973501
-0.00973587
-0.00971323
-0.00973601
-0.00971299
-0.00973532
-0.00971418
-0.00973513
-0.0097363
-0.00971328
-0.00973586
-0.00973495
-0.00971429
-0.00971323
-0.00973501
-0.00973585
-0.0097133
-0.00973654
-0.00971248
-0.00973554
-0.00971359
-0.00973548
-0.00973658
-0.00971262
-0.0097366
-0.00973562
-0.00971354
-0.00971228
-0.00973558
-0.00973671
-0.00971242
-0.00973651
-0.00971248
-0.00973561
-0.00971359
-0.00973556
-0.00973662
-0.00971256
-0.00973659
-0.0097356
-0.00971225
-0.00971354
-0.0097367
-0.00973556
-0.00971237
-0.00973652
-0.00971256
-0.00973558
-0.00971367
-0.00973664
-0.0097355
-0.00971267
-0.00973662
-0.00973555
-0.0097124
-0.00971361
-0.00973669
-0.00973554
-0.00971251
-0.00973588
-0.00971293
-0.00973525
-0.00971409
-0.00973621
-0.00973501
-0.00971321
-0.00973581
-0.00973497
-0.0097133
-0.00971424
-0.00973584
-0.00973495
-0.00971335
-0.00971384
-0.00971385
-0.00971385
-0.00971386
-0.00971386
-0.00971371
-0.00971371
-0.00971372
-0.00971372
-0.00971373
-0.00971363
-0.00971364
-0.00971364
-0.00971364
-0.00971364
-0.00971358
-0.00971359
-0.0097136
-0.0097136
-0.0097136
-0.00971373
-0.00971375
-0.00971375
-0.00971375
-0.00971376
-0.0097136
-0.00971361
-0.00971361
-0.00971361
-0.00971361
-0.00971378
-0.00971379
-0.00971379
-0.00971379
-0.0097138
-0.00971353
-0.00971353
-0.00971353
-0.00971353
-0.00971353
-0.00971362
-0.00971363
-0.00971363
-0.00971363
-0.00971363
-0.00971359
-0.00971359
-0.00971359
-0.0097136
-0.0097136
-0.00971362
-0.00971363
-0.00971363
-0.00971363
-0.00971363
-0.00971366
-0.00971367
-0.00971367
-0.00971368
-0.00971368
-0.00971375
-0.00971376
-0.00971376
-0.00971377
-0.00971377
-0.00971374
-0.00971375
-0.00971375
-0.00971376
-0.00971376
-0.00971359
-0.00971359
-0.00971359
-0.00971359
-0.00971359
-0.00971367
-0.00971367
-0.00971367
-0.00971368
-0.00971368
-0.00973568
-0.00973568
-0.00973567
-0.00973567
-0.00973566
-0.0097357
-0.00973569
-0.00973569
-0.00973569
-0.00973568
-0.00973571
-0.00973571
-0.0097357
-0.0097357
-0.0097357
-0.00975819
-0.0097582
-0.0097582
-0.0097582
-0.0097582
-0.00975818
-0.00975819
-0.00975819
-0.00975819
-0.00975819
-0.0097358
-0.00973579
-0.00973579
-0.00973579
-0.00973579
-0.00973577
-0.00973576
-0.00973576
-0.00973576
-0.00973575
-0.00975825
-0.00975826
-0.00975826
-0.00975826
-0.00975826
-0.00973586
-0.00973584
-0.00973584
-0.00973584
-0.00973584
-0.00975825
-0.00975825
-0.00975825
-0.00975826
-0.00975826
-0.00971365
-0.00971364
-0.00971365
-0.00971365
-0.00971365
-0.00973574
-0.00973574
-0.00973574
-0.00973574
-0.00973573
-0.00971369
-0.00971369
-0.00971369
-0.0097137
-0.0097137
-0.00973566
-0.00973566
-0.00973566
-0.00973565
-0.00973565
-0.00971362
-0.00971362
-0.00971362
-0.00971362
-0.00971362
-0.00971365
-0.00971364
-0.00971365
-0.00971365
-0.00971365
-0.00973575
-0.00973575
-0.00973575
-0.00973575
-0.00973575
-0.00973572
-0.00973572
-0.00973571
-0.00973571
-0.00973571
-0.00973576
-0.00973575
-0.00973575
-0.00973574
-0.00973574
-0.00973583
-0.00973582
-0.00973582
-0.00973581
-0.00973581
-0.00975821
-0.00975822
-0.00975822
-0.00975823
-0.00975823
-0.00973564
-0.00973563
-0.00973563
-0.00973562
-0.00973562
-0.00971359
-0.0097136
-0.0097136
-0.0097136
-0.00971361
-0.00973568
-0.0097357
-0.00973569
-0.00973569
-0.00973568
-0.00971357
-0.00971357
-0.00971358
-0.00971358
-0.00971358
-0.00973571
-0.00973571
-0.00973571
-0.00973571
-0.00973571
-0.00973579
-0.00973578
-0.00973578
-0.00973578
-0.00973578
-0.0097582
-0.0097582
-0.0097582
-0.0097582
-0.0097582
-0.00975819
-0.0097582
-0.00975819
-0.00975819
-0.00975819
-0.00973583
-0.00973582
-0.00973582
-0.00973582
-0.00973582
-0.00973579
-0.00973578
-0.00973578
-0.00973578
-0.00973578
-0.00975827
-0.00975828
-0.00975828
-0.00975828
-0.00975828
-0.00973576
-0.00973575
-0.00973575
-0.00973575
-0.00973575
-0.00973578
-0.00973578
-0.00973578
-0.00973578
-0.00973578
-0.00973575
-0.00973574
-0.00973574
-0.00973574
-0.00973574
-0.00971371
-0.0097137
-0.00971371
-0.00971371
-0.00971372
-0.00973564
-0.00973565
-0.00973564
-0.00973564
-0.00973564
-0.00971364
-0.00971364
-0.00971364
-0.00971365
-0.00971365
-0.00973568
-0.00973567
-0.00973567
-0.00973567
-0.00973566
-0.00973558
-0.00973558
-0.00973558
-0.00973557
-0.00973557
-0.00973561
-0.0097356
-0.00973559
-0.00973559
-0.00973559
-0.00973553
-0.00973554
-0.00973554
-0.00973553
-0.00973553
-0.00973558
-0.00973557
-0.00973557
-0.00973556
-0.00973556
-0.00973582
-0.00973581
-0.00973581
-0.00973581
-0.00973581
-0.00973567
-0.00973566
-0.00973566
-0.00973566
-0.00973565
-0.00973561
-0.00973561
-0.00973561
-0.0097356
-0.0097356
-0.00973578
-0.00973578
-0.00973578
-0.00973578
-0.00973578
-0.00973568
-0.00973568
-0.00973568
-0.00973567
-0.00973567
-0.00971383
-0.00971383
-0.00971384
-0.00971384
-0.00971385
-0.00973567
-0.00973567
-0.00973566
-0.00973566
-0.00973566
-0.00971383
-0.00971383
-0.00971384
-0.00971384
-0.00971385
-0.00971387
-0.00971387
-0.00971387
-0.00971388
-0.00971388
-0.00971369
-0.00971368
-0.00971368
-0.00971369
-0.00971369
-0.00973571
-0.0097357
-0.0097357
-0.0097357
-0.0097357
-0.00971362
-0.00971362
-0.00971362
-0.00971363
-0.00971363
-0.00973574
-0.00973574
-0.00973574
-0.00973574
-0.00973573
-0.00971361
-0.00971362
-0.00971362
-0.00971362
-0.00971362
-0.00973584
-0.00973583
-0.00973583
-0.00973583
-0.00973583
-0.00971357
-0.00971357
-0.00971357
-0.00971357
-0.00971357
-0.00973587
-0.00973586
-0.00973586
-0.00973586
-0.00973587
-0.00971357
-0.00971357
-0.00971358
-0.00971358
-0.00971358
-0.00975822
-0.00975822
-0.00975822
-0.00975823
-0.00975823
-0.00971363
-0.00971363
-0.00971363
-0.00971364
-0.00971364
-0.00973578
-0.00973578
-0.00973578
-0.00973578
-0.00973577
-0.00971365
-0.00971366
-0.00971366
-0.00971366
-0.00971366
-0.0097358
-0.0097358
-0.0097358
-0.00973579
-0.00973579
-0.00971375
-0.00971375
-0.00971375
-0.00971376
-0.00971376
-0.00973572
-0.00973572
-0.00973572
-0.00973571
-0.00973571
-0.00971371
-0.00971371
-0.00971371
-0.00971371
-0.00971372
-0.00973577
-0.00973577
-0.00973576
-0.00973576
-0.00973576
-0.00971367
-0.00971367
-0.00971367
-0.00971367
-0.00971367
-0.00973577
-0.00973577
-0.00973576
-0.00973576
-0.00973576
-0.00971366
-0.00971367
-0.00971367
-0.00971367
-0.00971367
-0.00973579
-0.00973579
-0.00973578
-0.00973578
-0.00973578
-0.00973562
-0.00973562
-0.00973562
-0.00973561
-0.00973561
-0.00971381
-0.00971381
-0.00971382
-0.00971382
-0.00971383
-0.00973566
-0.00973566
-0.00973565
-0.00973565
-0.00973564
-0.00971379
-0.00971379
-0.0097138
-0.0097138
-0.00971381
-0.0097138
-0.00971379
-0.0097138
-0.00971381
-0.00971381
-0.00973585
-0.00973584
-0.00973584
-0.00973584
-0.00973584
-0.00971357
-0.00971357
-0.00971357
-0.00971357
-0.00971357
-0.00973587
-0.00973586
-0.00973586
-0.00973586
-0.00973587
-0.00971358
-0.00971358
-0.00971358
-0.00971358
-0.00971358
-0.00971362
-0.00971362
-0.00971362
-0.00971362
-0.00971362
-0.00975824
-0.00975824
-0.00975824
-0.00975825
-0.00975825
-0.00971358
-0.00971357
-0.00971357
-0.00971357
-0.00971358
-0.00973582
-0.00973582
-0.00973582
-0.00973582
-0.00973582
-0.00971352
-0.00971353
-0.00971353
-0.00971353
-0.00971353
-0.00973584
-0.00973583
-0.00973583
-0.00973583
-0.00973583
-0.00971354
-0.00971354
-0.00971354
-0.00971354
-0.00971354
-0.00973583
-0.00973582
-0.00973582
-0.00973582
-0.00973582
-0.00971353
-0.00971354
-0.00971354
-0.00971354
-0.00971354
-0.00973584
-0.00973584
-0.00973584
-0.00973584
-0.00973584
-0.00971357
-0.00971357
-0.00971357
-0.00971357
-0.00971357
-0.0097136
-0.0097136
-0.0097136
-0.0097136
-0.0097136
-0.00973569
-0.00973569
-0.00973569
-0.00973569
-0.00973569
-0.00971378
-0.00971377
-0.00971377
-0.00971378
-0.00971379
-0.00973558
-0.00973557
-0.00973557
-0.00973557
-0.00973556
-0.00971374
-0.00971375
-0.00971375
-0.00971376
-0.00971376
-0.00973558
-0.00973557
-0.00973557
-0.00973557
-0.00973556
-0.00971374
-0.00971374
-0.00971375
-0.00971376
-0.00971376
-0.00971375
-0.00971374
-0.00971375
-0.00971375
-0.00971376
-0.00973555
-0.00973555
-0.00973554
-0.00973554
-0.00973553
-0.00971372
-0.00971373
-0.00971373
-0.00971374
-0.00971374
-0.00973555
-0.00973555
-0.00973555
-0.00973555
-0.00973554
-0.00971374
-0.00971374
-0.00971375
-0.00971375
-0.00971376
-0.00967991
-0.00969115
-0.00967988
-0.00967974
-0.00969148
-0.0096798
-0.00969091
-0.00969131
-0.0096915
-0.00967983
-0.00969103
-0.00969089
-0.00969129
-0.00969136
-0.00966886
-0.00966861
-0.00969145
-0.00969126
-0.00966862
-0.00966887
-0.00969122
-0.00966892
-0.00966886
-0.00969138
-0.00966878
-0.00969116
-0.00966886
-0.00966859
-0.00969127
-0.00969151
-0.00966885
-0.00966867
-0.00969124
-0.00966892
-0.00966867
-0.00969168
-0.00966893
-0.0096912
-0.0096684
-0.00966904
-0.00969133
-0.00966898
-0.00969141
-0.00966856
-0.0096912
-0.00966879
-0.00969122
-0.00966899
-0.0096913
-0.00966966
-0.00966855
-0.0096911
-0.00969088
-0.00966877
-0.00966876
-0.00969029
-0.00967965
-0.00967962
-0.00967963
-0.00967963
-0.00967956
-0.00966791
-0.00966905
-0.00969088
-0.00969205
-0.00966911
-0.00966777
-0.00969191
-0.00966799
-0.00969196
-0.0096691
-0.0096909
-0.00966907
-0.00966791
-0.00969179
-0.00966786
-0.00966903
-0.009692
-0.00969096
-0.00966777
-0.0096691
-0.00969191
-0.00966856
-0.00969169
-0.00966834
-0.00969134
-0.00969121
-0.0096799
-0.00967991
-0.00967975
-0.00969114
-0.00969127
-0.00969116
-0.00969129
-0.00969116
-0.00969111
-0.00969075
-0.00967985
-0.00969037
-0.00969131
-0.00969104
-0.00966906
-0.00966892
-0.00966887
-0.00969148
-0.00966906
-0.00969107
-0.00966913
-0.00966864
-0.00969123
-0.00966879
-0.00969164
-0.00966893
-0.00969115
-0.00966907
-0.00966837
-0.00969132
-0.0096688
-0.00969115
-0.00969119
-0.00966899
-0.00966896
-0.00969133
-0.00966921
-0.00966908
-0.00969114
-0.00966909
-0.009691
-0.00966917
-0.00966911
-0.00969102
-0.0096911
-0.0096692
-0.00966907
-0.00969103
-0.00966897
-0.00966889
-0.00969137
-0.0096688
-0.00969118
-0.00966966
-0.00966865
-0.00969094
-0.00969105
-0.00966891
-0.00966871
-0.00969029
-0.00967967
-0.00966863
-0.00969167
-0.00966947
-0.00969051
-0.0096684
-0.00966956
-0.0096913
-0.00966869
-0.00966963
-0.00969041
-0.00969119
-0.00966966
-0.00966862
-0.0096912
-0.00966801
-0.00969201
-0.00966917
-0.00969092
-0.00966797
-0.00966911
-0.00969182
-0.00969114
-0.00969113
-0.00969114
-0.00969114
-0.00969114
-0.00969122
-0.00969121
-0.00969121
-0.00969121
-0.00969122
-0.00966893
-0.00966892
-0.00966892
-0.00966892
-0.00966892
-0.00966897
-0.00966897
-0.00966897
-0.00966897
-0.00966897
-0.00966894
-0.00966893
-0.00966893
-0.00966893
-0.00966893
-0.00966889
-0.00966889
-0.00966889
-0.00966889
-0.00966889
-0.00969121
-0.0096912
-0.00969121
-0.00969121
-0.00969121
-0.00966889
-0.00966889
-0.00966888
-0.00966889
-0.00966888
-0.00969118
-0.00969118
-0.00969118
-0.00969118
-0.00969118
-0.00966889
-0.00966889
-0.00966889
-0.00966889
-0.00966889
-0.00969121
-0.00969121
-0.00969121
-0.00969121
-0.00969121
-0.00966888
-0.00966888
-0.00966888
-0.00966888
-0.00966888
-0.0096912
-0.00969119
-0.00969119
-0.0096912
-0.0096912
-0.00969114
-0.00969115
-0.00969115
-0.00969115
-0.00969115
-0.00969116
-0.00969116
-0.00969116
-0.00969115
-0.00969116
-0.00966901
-0.00966899
-0.00966898
-0.00966899
-0.00966899
-0.00969118
-0.00969117
-0.00969117
-0.00969117
-0.00969117
-0.00966898
-0.00966897
-0.00966897
-0.00966897
-0.00966898
-0.0096911
-0.00969109
-0.00969109
-0.00969109
-0.00969108
-0.00969121
-0.0096912
-0.0096912
-0.0096912
-0.00969121
-0.00969104
-0.00969103
-0.00969103
-0.00969102
-0.00969102
-0.00969115
-0.00969114
-0.00969114
-0.00969114
-0.00969114
-0.00966907
-0.00966907
-0.00966907
-0.00966908
-0.00966908
-0.00966895
-0.00966895
-0.00966895
-0.00966895
-0.00966895
-0.00966918
-0.00966917
-0.00966917
-0.00966918
-0.00966918
-0.00966915
-0.00966915
-0.00966915
-0.00966916
-0.00966916
-0.00966899
-0.00966899
-0.00966899
-0.00966899
-0.009669
-0.00969112
-0.00969112
-0.00969111
-0.00969111
-0.00969111
-0.00969116
-0.00969115
-0.00969115
-0.00969115
-0.00969115
-0.00966897
-0.00966896
-0.00966896
-0.00966896
-0.00966896
-0.00969116
-0.00969117
-0.00969117
-0.00969117
-0.00969117
-0.00969107
-0.00969107
-0.00969107
-0.00969107
-0.00969107
-0.00966908
-0.00966907
-0.00966907
-0.00966908
-0.00966908
-0.00969114
-0.00969114
-0.00969114
-0.00969114
-0.00969114
-0.00966902
-0.00966901
-0.00966901
-0.00966901
-0.00966901
-0.00966898
-0.00966898
-0.00966898
-0.00966898
-0.00966898
-0.009669
-0.009669
-0.00966901
-0.00966901
-0.00966901
-0.00966914
-0.00966914
-0.00966914
-0.00966915
-0.00966915
-0.00969101
-0.00969101
-0.00969101
-0.009691
-0.009691
-0.00966916
-0.00966915
-0.00966916
-0.00966916
-0.00966917
-0.00969102
-0.00969102
-0.00969102
-0.00969101
-0.00969101
-0.009691
-0.00969101
-0.009691
-0.009691
-0.009691
-0.0125775
-0.0127674
-0.012767
-0.0127671
-0.012757
-0.0127342
-0.0127568
-0.0127677
-0.0127677
-0.0127567
-0.012767
-0.0127668
-0.0127667
-0.012757
-0.012767
-0.0125776
-0.0125777
-0.0126448
-0.0126445
-0.0126444
-0.0128232
-0.0127566
-0.0127566
-0.0127566
-0.0128232
-0.0127567
-0.0127566
-0.0127674
-0.012767
-0.012767
-0.0127571
-0.0127667
-0.0128134
-0.0127573
-0.0127568
-0.0127673
-0.0127573
-0.0127576
-0.0127568
-0.0127569
-0.0125776
-0.0126445
-0.0125777
-0.0126444
-0.012667
-0.012734
-0.0127339
-0.0126672
-0.0126673
-0.012734
-0.0126673
-0.0127339
-0.0126673
-0.0127566
-0.0127567
-0.0127567
-0.0127567
-0.0128232
-0.0127566
-0.0128231
-0.0127567
-0.0128224
-0.0127573
-0.0127675
-0.0128131
-0.0127575
-0.0128224
-0.0127574
-0.0127675
-0.0128128
-0.0128228
-0.0128131
-0.0127576
-0.0127567
-0.0127567
-0.0128236
-0.0128231
-0.0127567
-0.0127571
-0.0127668
-0.0127572
-0.0127568
-0.0127567
-0.0127667
-0.0127571
-0.0127573
-0.0127567
-0.0127566
-0.0127667
-0.0127571
-0.0127572
-0.0127568
-0.0127566
-0.0127568
-0.0127569
-0.0127568
-0.0127673
-0.0127573
-0.0127576
-0.0127569
-0.0127569
-0.0127569
-0.0127568
-0.0127568
-0.0127569
-0.0126224
-0.0126444
-0.0126444
-0.0126225
-0.0126225
-0.0126446
-0.0125998
-0.0125772
-0.0125777
-0.0125997
-0.0125996
-0.0125775
-0.0126001
-0.0125997
-0.0125773
-0.0125778
-0.0125996
-0.0125995
-0.0125776
-0.0125999
-0.0125998
-0.0125777
-0.0125777
-0.0125996
-0.0125996
-0.0125775
-0.0126224
-0.0126444
-0.0126224
-0.012645
-0.0126226
-0.0126446
-0.0126221
-0.0126224
-0.0126443
-0.0126225
-0.0126448
-0.0126226
-0.0126446
-0.0126222
-0.0128012
-0.0128231
-0.0128232
-0.0128014
-0.0128012
-0.0128014
-0.0128231
-0.0127781
-0.0127781
-0.0127565
-0.0127781
-0.0127566
-0.0128014
-0.0128012
-0.0128013
-0.012778
-0.0127783
-0.0127563
-0.0127566
-0.0127779
-0.0127783
-0.0127564
-0.0127783
-0.0128012
-0.0127786
-0.0127787
-0.0127567
-0.0127787
-0.0127568
-0.0127786
-0.0127788
-0.0127566
-0.0127568
-0.0127787
-0.0127787
-0.0127568
-0.0127787
-0.0127787
-0.0127564
-0.012757
-0.0127787
-0.0127567
-0.0127788
-0.0127786
-0.0127786
-0.0127565
-0.012757
-0.0127786
-0.0127568
-0.0127788
-0.0127785
-0.0127788
-0.0127569
-0.0127569
-0.0127567
-0.0127787
-0.0127786
-0.0125997
-0.0126225
-0.0125996
-0.0126225
-0.0126893
-0.0126673
-0.0126674
-0.0126672
-0.0126892
-0.0126891
-0.012712
-0.0127343
-0.0127339
-0.012712
-0.012734
-0.0127122
-0.0127117
-0.012712
-0.0127343
-0.0127338
-0.0127122
-0.012734
-0.0127122
-0.0127118
-0.0127119
-0.0127339
-0.0127339
-0.0127341
-0.0127121
-0.0127122
-0.0126893
-0.0126674
-0.0126667
-0.0126892
-0.0126671
-0.0126891
-0.0126895
-0.0126892
-0.0126674
-0.0126669
-0.0126891
-0.0126672
-0.012689
-0.0126894
-0.0127121
-0.0126892
-0.0127121
-0.0126891
-0.0127783
-0.0128013
-0.0127787
-0.0127787
-0.0127564
-0.0127784
-0.0127568
-0.0127785
-0.0127789
-0.0127566
-0.0127787
-0.0127563
-0.0127786
-0.0127568
-0.0127786
-0.0127789
-0.0127566
-0.0128014
-0.0128014
-0.0127788
-0.0127567
-0.0127567
-0.0127786
-0.0127786
-0.0127566
-0.0128012
-0.0128231
-0.0128231
-0.0128014
-0.0128012
-0.0128014
-0.0128231
-0.0127781
-0.012778
-0.0127565
-0.0127781
-0.0127566
-0.0128012
-0.0128231
-0.0128011
-0.0128012
-0.0128231
-0.0127779
-0.0127783
-0.0127563
-0.0127566
-0.0127779
-0.0127783
-0.0127564
-0.0128013
-0.0128233
-0.0128014
-0.0128016
-0.0127788
-0.0127565
-0.0127784
-0.0127568
-0.0127786
-0.0127789
-0.0127567
-0.0127784
-0.0127563
-0.0127785
-0.0127567
-0.0127788
-0.0127783
-0.0127565
-0.0128016
-0.0128229
-0.0128013
-0.0128235
-0.0128014
-0.0128013
-0.0128231
-0.0128014
-0.0128015
-0.0128014
-0.0128017
-0.0127787
-0.0127567
-0.0127567
-0.0127786
-0.0127785
-0.0127565
-0.0127786
-0.0128015
-0.0127786
-0.0127787
-0.0127567
-0.0127788
-0.0127568
-0.0127787
-0.0127788
-0.0127568
-0.0127567
-0.0127787
-0.0127788
-0.0127568
-0.0128016
-0.0128015
-0.0128015
-0.0128016
-0.0127785
-0.0127786
-0.0127566
-0.0127787
-0.0127568
-0.0128016
-0.0128015
-0.0128015
-0.0127786
-0.0127787
-0.0127566
-0.0127567
-0.0127787
-0.0127786
-0.0127567
-0.0128016
-0.0128015
-0.0128016
-0.0128015
-0.0127786
-0.0127787
-0.0127567
-0.0127787
-0.0127569
-0.0128016
-0.0128015
-0.0128015
-0.0127786
-0.0127787
-0.0127568
-0.0127567
-0.0127786
-0.0127787
-0.0127568
-0.0127788
-0.0127565
-0.0127787
-0.012757
-0.0127787
-0.0127789
-0.0127568
-0.0127787
-0.0127565
-0.0127786
-0.012757
-0.0127787
-0.0127785
-0.0127568
-0.0127789
-0.0127569
-0.0127569
-0.0127787
-0.0127786
-0.0127567
-0.0127787
-0.0127786
-0.0127786
-0.0127569
-0.0127786
-0.012757
-0.0127786
-0.0127786
-0.0127569
-0.0127569
-0.0127786
-0.0127786
-0.0127569
-0.0127786
-0.0127786
-0.0127568
-0.0127786
-0.0127569
-0.0127786
-0.0127786
-0.0127569
-0.0127568
-0.0127786
-0.0127786
-0.0127569
-0.0127787
-0.0128016
-0.0127787
-0.0125989
-0.0125775
-0.0125777
-0.0125997
-0.0125785
-0.0125996
-0.0125995
-0.0127677
-0.0127669
-0.0127672
-0.0127776
-0.0127569
-0.0127571
-0.0127782
-0.0127577
-0.0127781
-0.0127781
-0.0127128
-0.0127119
-0.012734
-0.0127339
-0.0127332
-0.0127121
-0.0127121
-0.0127777
-0.0127569
-0.0127568
-0.0127786
-0.0127784
-0.0127784
-0.0127575
-0.0127777
-0.0127569
-0.0127567
-0.0127786
-0.0127784
-0.0127783
-0.0127575
-0.0127776
-0.012757
-0.0127571
-0.0127783
-0.0127782
-0.0127782
-0.0127578
-0.0126232
-0.0126224
-0.0126446
-0.0126444
-0.0126438
-0.0126225
-0.0126225
-0.0127677
-0.0127668
-0.0127672
-0.0127667
-0.0127672
-0.0127669
-0.0127667
-0.0127672
-0.0127669
-0.0127789
-0.0127561
-0.0127782
-0.0127572
-0.0127791
-0.0127781
-0.0127564
-0.0128012
-0.0128018
-0.012801
-0.012802
-0.0127788
-0.012778
-0.0127573
-0.0127564
-0.012778
-0.0127789
-0.0127564
-0.0127787
-0.0127564
-0.0127781
-0.0127575
-0.012779
-0.0127779
-0.0127566
-0.0127787
-0.0127778
-0.0127565
-0.0127576
-0.0127787
-0.0127779
-0.0127566
-0.0126882
-0.012689
-0.012667
-0.0126672
-0.0126681
-0.0126889
-0.0126888
-0.012802
-0.0128224
-0.0128231
-0.0128026
-0.0128025
-0.0128019
-0.0128231
-0.0127785
-0.0127564
-0.0127779
-0.0127575
-0.0127778
-0.012779
-0.0127569
-0.0128019
-0.0128022
-0.0128025
-0.0128014
-0.0127785
-0.012778
-0.0127575
-0.0127569
-0.0127779
-0.0127787
-0.012757
-0.0128021
-0.0128224
-0.0128231
-0.0128025
-0.0128025
-0.0128019
-0.0128232
-0.0127785
-0.0127565
-0.0127778
-0.0127575
-0.0127778
-0.012779
-0.0127569
-0.012802
-0.0128226
-0.0128022
-0.0128238
-0.0128026
-0.0128233
-0.0128015
-0.0127785
-0.012778
-0.0127575
-0.0127569
-0.0127779
-0.0127787
-0.012757
-0.0128023
-0.0128017
-0.0128233
-0.0128233
-0.0128018
-0.0128018
-0.0128227
-0.0127789
-0.0127561
-0.0127782
-0.0127572
-0.012778
-0.0127791
-0.0127563
-0.0127788
-0.012778
-0.0127573
-0.0127563
-0.012778
-0.0127788
-0.0127564
-0.0127788
-0.0127561
-0.0127782
-0.0127573
-0.012778
-0.012779
-0.0127564
-0.0127788
-0.0127779
-0.0127564
-0.0127573
-0.0127788
-0.012778
-0.0127564
-0.0127788
-0.012756
-0.0127782
-0.0127572
-0.0127789
-0.0127781
-0.0127563
-0.0127788
-0.012778
-0.0127563
-0.0127573
-0.0127788
-0.012778
-0.0127563
-0.0127787
-0.0127563
-0.0127781
-0.0127575
-0.0127789
-0.0127779
-0.0127566
-0.0127787
-0.0127778
-0.0127566
-0.0127575
-0.0127787
-0.0127778
-0.0127567
-0.0099032
-0.0099032
-0.00990317
-0.0098919
-0.0100817
-0.0100817
-0.0100817
-0.0100704
-0.0102604
-0.0102606
-0.0102606
-0.0102492
-0.0104394
-0.0104395
-0.0104396
-0.0104282
-0.0106186
-0.0106187
-0.0106188
-0.0106074
-0.0107979
-0.010798
-0.010798
-0.0107868
-0.0109773
-0.0109773
-0.0109774
-0.010966
-0.0111566
-0.0111566
-0.0111566
-0.0111454
-0.0113358
-0.0113359
-0.0113359
-0.0113245
-0.011515
-0.0115151
-0.011515
-0.0115038
-0.011694
-0.011694
-0.011694
-0.0116827
-0.0118728
-0.0118729
-0.0118729
-0.0118616
-0.0120517
-0.0120516
-0.0120517
-0.0120405
-0.0122307
-0.0122306
-0.0122305
-0.0122194
-0.0124095
-0.0124093
-0.0124094
-0.0123983
-0.0125884
-0.0125883
-0.0125883
-0.00986983
-0.00985854
-0.0098586
-0.0098698
-0.00985854
-0.00985853
-0.00985854
-0.00985857
-0.00986981
-0.0098585
-0.00985859
-0.00986984
-0.0098919
-0.0100483
-0.00990323
-0.00990324
-0.0100371
-0.010037
-0.00989192
-0.0100483
-0.00990325
-0.00990324
-0.010037
-0.0100371
-0.00990313
-0.010037
-0.0100371
-0.00989187
-0.0100482
-0.00990316
-0.010037
-0.0100371
-0.0100483
-0.0100704
-0.0102271
-0.0100818
-0.0100817
-0.0102158
-0.0102158
-0.0100705
-0.0102271
-0.0100817
-0.0100817
-0.0102158
-0.0102158
-0.0100817
-0.0102158
-0.0102157
-0.0100704
-0.0102271
-0.0100817
-0.0102158
-0.0102158
-0.0102271
-0.0102492
-0.010406
-0.0102605
-0.0102606
-0.0103948
-0.0103947
-0.0102492
-0.0104061
-0.0102605
-0.0102606
-0.0103947
-0.0103947
-0.0102605
-0.0103947
-0.0103948
-0.0102493
-0.010406
-0.0102605
-0.0103948
-0.0103948
-0.0104061
-0.0104282
-0.0105851
-0.0104395
-0.0104395
-0.0105738
-0.010574
-0.0104282
-0.0105853
-0.0104395
-0.0104395
-0.0105738
-0.0105739
-0.0104396
-0.0105739
-0.0105739
-0.0104282
-0.0105852
-0.0104396
-0.0105739
-0.0105739
-0.0105852
-0.0106074
-0.0107645
-0.0106187
-0.0106187
-0.0107531
-0.0107532
-0.0106074
-0.0107644
-0.0106187
-0.0106187
-0.0107531
-0.0107531
-0.0106187
-0.0107532
-0.0107532
-0.0106074
-0.0107644
-0.0106187
-0.0107531
-0.0107532
-0.0107645
-0.0107868
-0.0109438
-0.010798
-0.010798
-0.0109326
-0.0109326
-0.0107866
-0.0109438
-0.010798
-0.010798
-0.0109326
-0.0109325
-0.010798
-0.0109325
-0.0109325
-0.0107867
-0.0109438
-0.0107981
-0.0109326
-0.0109325
-0.0109439
-0.010966
-0.0111231
-0.0109774
-0.0109774
-0.0111117
-0.0111117
-0.010966
-0.0111231
-0.0109774
-0.0109774
-0.0111118
-0.0111118
-0.0109773
-0.0111118
-0.0111118
-0.010966
-0.0111232
-0.0109774
-0.0111117
-0.0111118
-0.0111231
-0.0111452
-0.0113023
-0.0111566
-0.0111566
-0.011291
-0.0112911
-0.0111453
-0.0113023
-0.0111565
-0.0111566
-0.011291
-0.0112911
-0.0111567
-0.011291
-0.011291
-0.0111453
-0.0113024
-0.0111567
-0.0112911
-0.0112911
-0.0113024
-0.0113245
-0.0114815
-0.0113358
-0.0113359
-0.0114703
-0.0114703
-0.0113245
-0.0114816
-0.0113358
-0.0113359
-0.0114703
-0.0114703
-0.0113358
-0.0114703
-0.0114703
-0.0113246
-0.0114816
-0.0113359
-0.0114703
-0.0114703
-0.0114816
-0.0115036
-0.0116606
-0.011515
-0.0115151
-0.0116493
-0.0116494
-0.0115038
-0.0116607
-0.011515
-0.011515
-0.0116493
-0.0116493
-0.011515
-0.0116494
-0.0116493
-0.0115037
-0.0116605
-0.0115151
-0.0116493
-0.0116493
-0.0116606
-0.0116827
-0.0118395
-0.011694
-0.011694
-0.0118282
-0.0118282
-0.0116827
-0.0118394
-0.0116939
-0.0116939
-0.0118283
-0.0118282
-0.011694
-0.0118283
-0.0118283
-0.0116827
-0.0118395
-0.011694
-0.0118283
-0.0118283
-0.0118396
-0.0118615
-0.0120184
-0.0118728
-0.0118728
-0.0120071
-0.0120071
-0.0118615
-0.0120184
-0.0118728
-0.0118728
-0.0120072
-0.0120072
-0.0118728
-0.0120071
-0.0120072
-0.0118616
-0.0120184
-0.0118729
-0.0120072
-0.0120073
-0.0120184
-0.0120404
-0.0121973
-0.0120517
-0.0120517
-0.0121861
-0.0121861
-0.0120404
-0.0121973
-0.0120517
-0.0120517
-0.0121862
-0.0121862
-0.0120517
-0.0121862
-0.0121862
-0.0120405
-0.0121974
-0.0120518
-0.0121862
-0.0121862
-0.0121973
-0.0122193
-0.0123762
-0.0122306
-0.0122306
-0.0123651
-0.0123651
-0.0122193
-0.0123763
-0.0122306
-0.0122305
-0.0123652
-0.0123653
-0.0122306
-0.0123652
-0.0123652
-0.0122194
-0.0123763
-0.0122306
-0.0123652
-0.0123652
-0.0123763
-0.0123983
-0.0125553
-0.0124095
-0.0124095
-0.0125442
-0.0125441
-0.0123982
-0.0125553
-0.0124093
-0.0124094
-0.0125444
-0.0125444
-0.0124093
-0.0125443
-0.0125444
-0.0123983
-0.0125553
-0.0124094
-0.0125443
-0.0125444
-0.0125553
-0.0125773
-0.0127343
-0.0125884
-0.0125884
-0.0127232
-0.0127232
-0.0125773
-0.0127341
-0.0125882
-0.0125881
-0.0127237
-0.0127238
-0.0125882
-0.0127236
-0.0127238
-0.0125774
-0.0127343
-0.0125883
-0.0127236
-0.0127236
-0.00978043
-0.00978043
-0.00978033
-0.00978076
-0.00978054
-0.00985848
-0.00985855
-0.00985846
-0.00985849
-0.00978031
-0.00976928
-0.0097803
-0.00976928
-0.00978053
-0.0097796
-0.00976934
-0.00976929
-0.00977993
-0.0097805
-0.00978052
-0.00978039
-0.00995879
-0.00989218
-0.00989221
-0.00995879
-0.00989222
-0.00995886
-0.00995926
-0.00989189
-0.00989168
-0.00995894
-0.00990313
-0.00990329
-0.00990313
-0.010037
-0.010037
-0.010037
-0.0100371
-0.00995875
-0.00989225
-0.00990311
-0.00994783
-0.00989206
-0.00995876
-0.00994781
-0.00989199
-0.00995896
-0.00995813
-0.00990317
-0.00989252
-0.0099479
-0.0098928
-0.0099478
-0.00995838
-0.00989191
-0.0098921
-0.00995903
-0.00995893
-0.0099588