/*--------------------------------*- C++ -*----------------------------------*\
| =========                 |                                                 |
| \\      /  F ield         | OpenFOAM: The Open Source CFD Toolbox           |
|  \\    /   O peration     | Version:  2206                                  |
|   \\  /    A nd           | Website:  www.openfoam.com                      |
|    \\/     M anipulation  |                                                 |
\*---------------------------------------------------------------------------*/
FoamFile
{
    version     2.0;
    format      ascii;
    arch        "LSB;label=32;scalar=64";
    class       surfaceScalarField;
    location    "110";
    object      phi;
}
// * * * * * * * * * * * * * * * * * * * * * * * * * * * * * * * * * * * * * //

dimensions      [0 3 -1 0 0 0 0];

oriented        oriented;

internalField   nonuniform List<scalar> 
198714
(
-7.83785e-13
2.38246e-12
-1.484e-12
-3.9886e-14
-1.23864e-07
1.23864e-07
-3.14026e-11
-1.76581e-12
-7.00893e-13
3.81936e-11
3.2521e-11
-3.34635e-11
-6.57553e-11
6.28649e-11
-6.61041e-11
6.6126e-11
1.15026e-07
-3.64115e-11
-1.51977e-13
1.10189e-13
2.54168e-11
3.72126e-11
-2.53893e-11
-1.04481e-11
3.42137e-11
-3.44653e-11
1.07223e-11
-1.16198e-07
1.16198e-07
2.04218e-11
3.70753e-11
5.47849e-11
3.906e-11
2.75058e-08
2.77019e-11
3.10237e-11
4.71394e-11
4.57417e-11
2.74913e-08
-2.76429e-08
-1.13989e-14
2.07617e-11
2.85631e-11
-2.12368e-11
1.3404e-11
3.22375e-11
-3.38879e-11
-1.42348e-11
-1.17287e-07
1.17288e-07
-2.77877e-11
2.1954e-12
5.62673e-13
2.10284e-11
2.86099e-11
-2.61865e-11
1.31758e-11
3.2249e-11
-3.12687e-11
-1.39155e-11
1.17311e-07
4.63969e-11
4.62883e-11
2.74909e-08
-7.55481e-13
3.77294e-11
3.20194e-11
-3.78175e-11
-6.4956e-11
6.27879e-11
-6.31335e-11
6.63567e-11
-1.1504e-07
1.15041e-07
-2.03395e-11
-7.46358e-13
1.81123e-13
3.48685e-11
2.13594e-11
-3.47439e-11
-4.61601e-11
6.17944e-11
-6.2642e-11
4.60934e-11
-1.16091e-07
1.16091e-07
-1.51725e-12
-9.25029e-13
3.45093e-11
2.17032e-11
-3.42669e-11
-4.55787e-11
6.215e-11
-6.27237e-11
4.68121e-11
1.16116e-07
5.38933e-11
3.96843e-11
2.74908e-08
-2.76411e-08
-3.12685e-13
-8.43587e-13
2.51295e-11
3.80191e-11
-2.54581e-11
-9.75583e-12
3.4141e-11
-3.45167e-11
1.08488e-11
1.16269e-07
-2.92898e-13
-5.98994e-12
1.32763e-08
-6.35278e-13
-1.79927e-12
-1.32675e-08
-2.43821e-13
-1.70956e-11
2.00717e-08
3.74045e-12
1.78126e-12
-2.00599e-08
5.32139e-14
-3.23241e-12
6.62584e-09
-2.22942e-12
2.96625e-12
-1.43997e-11
1.29918e-08
-4.16922e-12
-6.32795e-13
-1.29755e-08
-5.105e-11
1.19012e-13
1.9447e-08
4.60579e-12
1.60595e-11
-1.94167e-08
-8.6852e-13
9.20113e-13
1.23852e-07
6.72573e-13
-5.54534e-13
-1.24176e-07
1.24175e-07
1.88327e-14
-1.37251e-12
1.24214e-07
1.07523e-11
1.42788e-11
-3.32859e-11
2.06408e-08
-1.62215e-11
7.92905e-13
-2.50535e-12
-1.03979e-10
1.38038e-10
-1.36994e-10
1.04607e-10
1.19786e-07
5.13396e-11
-4.48813e-14
2.39105e-08
1.06199e-11
-9.83182e-11
-2.81085e-12
-5.92608e-12
6.50123e-09
-1.30627e-13
-6.49236e-09
1.43414e-12
6.56355e-13
-1.00822e-11
6.29396e-12
-6.35462e-12
9.91239e-12
1.19433e-07
4.07769e-12
6.3325e-12
-1.55139e-11
2.10064e-08
-7.16113e-12
-3.02296e-14
1.7137e-11
2.45495e-08
-2.79374e-11
4.48498e-12
-1.12786e-11
5.73948e-12
-2.35757e-11
2.10247e-08
5.00554e-12
-4.31683e-12
4.06888e-12
-1.65799e-11
2.11431e-08
1.01009e-12
-4.14197e-12
6.62382e-09
-1.5655e-12
-6.61841e-09
-5.77593e-12
6.498e-09
-2.61743e-13
-6.48899e-09
-4.12478e-12
-1.67776e-11
2.13102e-08
6.61582e-13
-2.12941e-08
-1.09926e-11
-2.34696e-11
2.08623e-08
5.33302e-12
-2.08389e-08
-5.91278e-12
1.32856e-08
-7.7833e-13
-1.82899e-12
-1.71021e-11
2.0076e-08
3.89171e-12
1.16537e-12
-1.48828e-11
2.09941e-08
-6.94722e-12
-2.09824e-08
1.44643e-12
1.32061e-12
1.27303e-11
5.312e-12
-5.83805e-12
-1.30548e-11
-1.22014e-07
1.22012e-07
1.60768e-13
2.45484e-08
4.22193e-12
-2.76592e-11
-2.45422e-08
3.75039e-12
-1.45378e-11
2.09886e-08
-6.39286e-12
1.15517e-12
1.30296e-11
5.31038e-12
-5.26426e-12
-1.26689e-11
1.22019e-07
2.45521e-08
4.03189e-12
-2.75106e-11
-1.60716e-11
2.11995e-08
4.25735e-13
5.92528e-12
-2.38671e-11
2.09806e-08
4.68385e-12
-2.45385e-12
6.50094e-09
-3.52724e-13
-3.29844e-11
2.06282e-08
-1.62369e-11
-2.06044e-08
3.88614e-13
-3.07557e-12
-1.0373e-10
1.38285e-10
-1.37194e-10
1.046e-10
-1.19791e-07
1.19791e-07
1.04725e-13
2.39135e-08
1.07882e-11
-9.79226e-11
-2.38775e-08
-1.43349e-11
1.2995e-08
-4.36083e-12
-7.10876e-13
-1.29784e-08
-5.11196e-11
1.94438e-08
1.61062e-11
4.9602e-12
-1.94136e-08
-3.09659e-12
-8.56316e-11
1.37568e-10
-1.3635e-10
8.66922e-11
-1.21074e-07
1.21075e-07
1.12661e-11
-3.3037e-11
2.0617e-08
-1.64196e-11
-2.05931e-08
2.39079e-08
-9.8056e-11
1.08483e-11
-2.38717e-08
1.29972e-08
-3.5432e-12
-7.54766e-13
-5.29687e-14
1.94512e-08
4.77288e-12
1.61924e-11
-2.77273e-12
-8.56536e-11
1.37799e-10
-1.3644e-10
8.70523e-11
1.21075e-07
1.44595e-11
-3.30299e-11
2.0627e-08
-1.65138e-11
5.13507e-11
2.39091e-08
-9.83753e-11
1.0498e-11
2.86532e-12
1.29893e-08
-4.20002e-12
-7.20294e-13
1.94471e-08
1.61634e-11
4.63847e-12
-2.37371e-11
2.09177e-08
5.03803e-12
-2.08937e-08
3.80869e-12
-1.72347e-11
2.12685e-08
1.35345e-12
-6.35883e-14
6.62717e-09
-1.48762e-12
1.35914e-12
-9.74767e-12
6.29149e-12
-6.66861e-12
9.58126e-12
1.19457e-07
6.66879e-12
-1.52478e-11
2.0995e-08
-7.19489e-12
1.72444e-11
2.45522e-08
-2.79546e-11
3.92917e-12
1.32812e-08
-8.15291e-13
-1.60684e-12
-8.63e-14
2.00708e-08
1.61967e-12
3.92267e-12
1.65984e-13
1.32803e-08
-9.74564e-13
-1.58965e-12
2.00743e-08
1.2887e-12
3.78748e-12
6.49748e-09
-4.3036e-13
6.62354e-09
-1.55954e-12
9.53335e-14
-5.51327e-09
3.57889e-13
2.23156e-12
5.51059e-09
1.39508e-12
-9.06759e-13
6.53516e-12
1.34855e-12
1.32679e-08
2.04714e-08
-4.77698e-13
-2.37146e-12
-1.0404e-11
-2.04588e-08
2.68258e-12
1.09034e-11
2.04593e-08
-4.14006e-13
-3.13564e-12
-5.5102e-09
-1.05642e-14
3.23715e-12
-9.81238e-09
1.185e-12
9.80833e-09
-4.41238e-12
-1.62507e-12
-2.84158e-13
1.76185e-11
2.00604e-08
1.19265e-08
5.65292e-13
-5.51854e-13
-1.57314e-12
-1.19212e-08
1.89933e-08
2.75695e-12
-1.45047e-11
-1.89822e-08
-6.26451e-13
1.11949e-12
1.19216e-08
1.48768e-11
1.89828e-08
-1.55101e-12
-9.80791e-09
6.67732e-13
4.04793e-12
8.35812e-13
6.62029e-09
-1.31297e-11
-1.06483e-12
1.94138e-12
-9.50907e-09
5.76189e-14
9.52126e-09
4.45549e-12
1.60165e-11
-1.94167e-08
-2.87329e-14
1.94474e-08
-5.11897e-11
6.78894e-12
-1.8409e-08
1.8436e-08
-4.24102e-11
-1.15425e-08
7.17866e-14
1.87001e-13
1.15571e-08
4.2119e-12
-5.35802e-09
5.35083e-09
2.31773e-12
6.61355e-13
3.79922e-12
1.29753e-08
-2.34087e-12
1.4176e-11
7.93339e-13
1.99497e-08
4.56679e-12
-6.90472e-12
-2.7899e-11
-1.99237e-08
1.99229e-08
7.3162e-12
2.75815e-11
-2.10106e-12
-7.31714e-13
-5.35062e-09
-4.76795e-12
-4.91662e-13
5.35803e-09
-4.19893e-12
3.03936e-12
-6.13903e-13
1.29915e-08
-1.43603e-11
1.99488e-08
-2.80801e-11
1.3286e-11
1.6627e-12
-9.52147e-09
-2.24045e-13
-4.87765e-12
-1.65375e-11
1.25775e-13
5.15882e-11
1.84358e-08
1.31406e-11
-4.22245e-11
-1.8409e-08
1.15568e-08
1.04111e-12
2.04563e-13
9.67173e-14
-1.15421e-08
4.24862e-11
9.66572e-14
-5.92936e-13
2.62565e-14
-9.5094e-09
6.49258e-09
2.63806e-12
5.92782e-12
7.72678e-14
-2.95459e-12
-2.65393e-13
6.50159e-09
-5.77706e-12
2.27072e-11
-1.04391e-11
-1.93488e-08
-1.38974e-11
2.26164e-11
1.93278e-08
2.31593e-08
2.37072e-11
-4.53938e-11
-3.40494e-11
2.37554e-11
-4.57823e-12
-5.77247e-12
1.04967e-11
2.10008e-08
1.25269e-08
-1.06528e-11
2.90955e-12
-7.29204e-13
4.53453e-11
3.33121e-11
2.31271e-08
-2.773e-12
6.11239e-13
1.25141e-08
1.47572e-11
-2.29387e-11
1.82755e-11
-8.31769e-12
-1.85322e-08
-1.30205e-11
1.79704e-11
1.85173e-08
2.25966e-08
1.82e-11
-3.28391e-11
-2.31261e-11
1.61574e-11
-1.31524e-12
-3.82117e-12
4.49955e-12
2.11276e-08
1.24352e-08
-8.89605e-12
1.04401e-12
-1.05109e-12
3.22961e-11
2.33534e-11
2.25754e-08
-1.37897e-12
9.50755e-13
1.2426e-08
1.30907e-11
-1.87959e-11
-3.85955e-12
-4.36889e-12
-1.48574e-08
1.48387e-08
5.36866e-09
-3.69481e-12
-4.76394e-13
5.40209e-09
-4.71183e-12
-7.36427e-13
3.23237e-13
5.3617e-09
5.28546e-13
5.39581e-09
3.59156e-12
1.08015e-12
6.61824e-09
6.48937e-09
6.05271e-12
2.33591e-13
-5.22078e-14
6.49816e-09
-5.68788e-12
-8.32278e-12
1.8285e-11
-1.94362e-08
-1.2416e-11
2.11163e-11
1.94176e-08
2.33805e-08
1.70283e-11
-3.51856e-11
-2.18959e-11
-2.33572e-08
-1.90727e-12
1.64999e-11
5.22425e-12
2.1294e-08
1.26461e-08
-8.70707e-12
7.0357e-13
-1.1303e-12
-1.26363e-08
-1.31154e-12
1.01233e-12
1.26362e-08
3.48972e-11
2.30552e-11
2.33573e-08
1.18298e-11
-2.17342e-11
-1.9418e-08
-1.04842e-11
2.36323e-11
-1.84499e-08
-1.45097e-11
1.90182e-11
1.84322e-08
2.23873e-08
2.44067e-11
-4.15051e-11
-3.3888e-11
-2.23598e-08
-4.41751e-12
2.39092e-11
1.00301e-11
2.08388e-08
1.23224e-08
-1.05628e-11
3.07902e-12
-5.96542e-13
-1.2309e-08
-2.60997e-12
6.43514e-13
1.23095e-08
4.19369e-11
3.3532e-11
2.23594e-08
1.52367e-11
-1.90345e-11
-1.84323e-08
-4.08448e-12
-3.99894e-12
-1.48601e-08
1.48412e-08
5.39876e-09
-4.40719e-12
-9.9235e-13
-5.39266e-09
5.37295e-09
-3.64872e-12
-5.23147e-13
-5.3657e-09
6.81863e-13
5.39269e-09
4.43216e-13
5.3659e-09
-1.48411e-08
1.73797e-13
-5.51915e-09
6.00423e-13
2.29352e-12
5.51608e-09
1.00146e-12
6.88972e-12
1.26277e-12
1.32771e-08
2.04898e-08
-2.96616e-13
-2.23414e-12
-1.07321e-11
2.9068e-12
1.14045e-11
2.04766e-08
-1.31657e-13
-2.90212e-12
9.48173e-13
3.23064e-12
-9.82133e-09
1.28017e-12
9.81647e-09
-4.44779e-12
-2.02695e-12
1.72063e-11
2.0065e-08
1.19304e-08
-3.71134e-13
-1.61284e-12
1.90052e-08
3.22225e-12
-1.49534e-11
1.2191e-12
1.19251e-08
1.44777e-11
1.89949e-08
-1.35845e-12
1.50284e-11
5.98018e-11
-1.85639e-08
-1.0892e-10
-1.04796e-10
1.87028e-08
2.29657e-08
1.43598e-11
-3.56312e-11
-2.19746e-11
-9.25946e-12
1.2339e-11
5.12572e-12
2.11953e-08
1.24311e-08
-1.01369e-11
-9.89056e-13
-1.17968e-12
-2.07753e-11
3.1964e-13
1.24573e-08
2.1842e-12
2.68833e-11
2.30088e-08
-6.49336e-13
-3.59076e-11
-1.81557e-11
-3.34434e-11
-1.93354e-08
8.82325e-11
1.37861e-10
1.91609e-08
2.28025e-08
2.68367e-11
-4.10946e-11
-3.4398e-11
2.84183e-11
2.6245e-12
-5.55375e-12
1.08946e-11
2.09442e-08
1.25377e-08
-9.58191e-12
4.44332e-12
-6.67569e-13
7.40521e-11
3.06788e-11
2.2708e-08
1.6912e-11
1.16168e-12
1.24888e-08
2.87788e-11
-6.41773e-12
1.49542e-11
-2.27255e-11
-1.48649e-08
1.48519e-08
5.40279e-09
-6.39849e-12
-6.38959e-13
5.37031e-09
-2.13883e-12
-5.46508e-13
1.5182e-13
5.39683e-09
6.67836e-13
5.36381e-09
2.92065e-12
1.2395e-13
6.49234e-09
-1.33191e-12
-1.34342e-11
2.29173e-12
-9.50946e-09
2.08187e-13
9.52173e-09
1.61167e-11
4.73684e-12
-1.94133e-08
1.94437e-08
-5.12931e-11
-1.15429e-08
2.27023e-13
1.15575e-08
7.39982e-12
-1.84041e-08
1.84309e-08
-4.28359e-11
4.83934e-12
-5.35767e-09
5.35051e-09
1.98836e-12
3.33575e-13
3.69715e-12
1.29789e-08
1.44915e-11
5.82979e-13
1.9946e-08
4.25224e-12
-7.36317e-12
-2.78453e-11
-1.99194e-08
1.99198e-08
6.72798e-12
2.80558e-11
-2.26363e-12
-8.43223e-13
-5.3503e-09
-4.56403e-12
-4.19919e-13
5.35779e-09
-4.42857e-12
-6.42681e-13
1.29953e-08
-1.43246e-11
1.99463e-08
-2.80536e-11
1.1937e-12
1.3214e-11
-9.52165e-09
-2.3082e-13
-1.62355e-11
-4.41768e-12
5.12181e-11
1.15574e-08
1.30382e-12
5.98251e-14
-1.15424e-08
1.84309e-08
1.32361e-11
-4.257e-11
-1.8404e-08
-4.28445e-13
4.23464e-11
2.82092e-14
-9.5094e-09
4.543e-12
-5.36238e-09
2.29237e-12
2.68494e-13
5.35527e-09
4.19722e-12
1.44379e-11
4.83182e-13
1.2981e-08
1.9958e-08
4.23853e-12
-6.88535e-12
-2.76571e-11
7.07285e-12
2.7805e-11
1.99319e-08
-1.95604e-12
-9.46944e-13
1.32374e-11
1.48675e-12
-9.53162e-09
-3.34584e-13
9.51953e-09
-4.64897e-12
-1.63201e-11
3.00144e-14
5.12815e-11
1.94208e-08
1.84422e-08
1.30445e-11
-4.23539e-11
1.15679e-08
1.07461e-12
2.19981e-13
2.29139e-13
4.22879e-11
1.84156e-08
1.78268e-13
-4.46763e-13
1.15534e-08
6.09356e-14
4.31138e-12
-5.35608e-09
2.31767e-12
5.9344e-13
5.34885e-09
3.98159e-12
-2.58274e-12
1.42263e-11
6.86708e-13
1.2973e-08
1.9941e-08
4.73393e-12
-6.92825e-12
-2.82726e-11
7.20983e-12
2.75882e-11
1.99145e-08
-2.03569e-12
-6.81817e-13
1.31146e-12
1.32591e-11
-9.5213e-09
-3.21286e-13
9.50938e-09
-1.63209e-11
-4.75638e-12
5.12304e-11
1.94169e-08
1.15629e-08
1.28122e-12
1.50966e-13
1.84318e-08
1.32951e-11
-4.27076e-11
-4.41927e-13
1.15485e-08
4.23401e-11
1.84052e-08
-5.4094e-15
-9.96149e-12
2.34817e-11
-1.8456e-08
-1.49841e-11
1.85701e-11
1.84389e-08
2.27429e-08
2.39911e-11
-4.36384e-11
-3.4157e-11
-2.27128e-08
-4.97512e-12
2.39045e-11
1.07608e-11
2.0894e-08
1.23179e-08
-1.05298e-11
3.01829e-12
-4.8456e-13
-1.23049e-08
-2.85478e-12
5.79885e-13
1.23053e-08
4.40377e-11
3.36812e-11
2.27126e-08
1.54957e-11
-1.85717e-11
-1.84395e-08
1.8016e-11
-8.97124e-12
-1.94502e-08
-1.17786e-11
2.18931e-11
1.94311e-08
2.30175e-08
1.78619e-11
-3.43821e-11
-2.28078e-11
-2.29954e-08
1.6914e-11
-1.65394e-12
-3.72785e-12
4.28985e-12
2.12527e-08
1.26668e-08
-9.16615e-12
9.15752e-13
-1.13654e-12
3.37624e-11
2.31003e-11
2.29955e-08
-1.12445e-12
1.05974e-12
1.26562e-08
1.15622e-11
-2.26151e-11
-1.94305e-08
-3.36844e-12
-4.51795e-12
-1.48729e-08
1.48541e-08
5.37593e-09
-3.77173e-12
-5.03402e-13
-5.36864e-09
5.40412e-09
-4.47178e-12
-7.54733e-13
4.1321e-13
5.3693e-09
8.73264e-13
5.3976e-09
-1.48541e-08
3.93922e-13
1.13634e-12
6.62192e-09
6.42056e-14
-5.51432e-09
3.88642e-13
2.31076e-12
5.51156e-09
1.13137e-12
6.40234e-12
1.38784e-12
1.32727e-08
2.04754e-08
-7.11062e-14
-2.5024e-12
-1.10105e-11
2.58671e-12
1.09932e-11
2.0463e-08
-3.73923e-13
-2.78414e-12
3.21644e-12
2.58373e-13
-9.81288e-09
1.23704e-12
9.80855e-09
-1.66253e-12
-4.18949e-12
3.08435e-14
1.73678e-11
2.00593e-08
1.89928e-08
3.34866e-12
-1.48868e-11
1.19242e-08
2.69745e-13
-1.55765e-13
-1.50173e-12
1.46977e-11
1.89823e-08
-2.64866e-13
1.21845e-12
1.19193e-08
-1.32843e-12
9.52494e-14
-5.51704e-09
5.28301e-13
2.60887e-12
5.5138e-09
1.10244e-12
-3.96358e-13
6.57666e-12
1.3877e-12
1.32716e-08
2.04793e-08
1.7099e-13
-2.323e-12
-1.13771e-11
2.66542e-12
1.05641e-11
2.04673e-08
-2.16939e-13
-2.80632e-12
3.22327e-12
4.35784e-13
-9.8177e-09
1.30861e-12
9.81327e-09
-1.76707e-12
-3.89201e-12
1.71241e-11
2.00629e-08
1.8998e-08
3.24699e-12
-1.48173e-11
1.19269e-08
1.38301e-13
-1.43797e-12
1.44563e-11
1.89877e-08
1.40784e-12
1.19217e-08
-1.41295e-12
1.6176e-13
6.48896e-09
1.24693e-12
6.61808e-09
-4.84706e-14
1.24391e-12
-1.31064e-07
1.31063e-07
-1.39556e-12
-5.72189e-13
-1.28229e-07
1.28228e-07
1.02182e-12
-7.57993e-13
-1.40945e-07
1.40943e-07
2.53845e-11
2.68891e-11
-2.25933e-08
2.25816e-08
2.57782e-08
2.63954e-11
2.47368e-08
2.72425e-11
-5.37274e-11
-3.7839e-11
2.76571e-08
2.5761e-08
2.47327e-08
2.29566e-11
2.99275e-11
-2.25831e-08
2.25703e-08
2.58814e-08
2.29353e-11
-2.58716e-08
2.46254e-08
3.06867e-11
-2.46141e-08
-4.60433e-11
-4.52158e-11
2.76432e-08
2.5872e-08
2.46142e-08
-2.25703e-08
-1.35618e-11
6.65021e-11
-2.25919e-08
2.2572e-08
2.58323e-08
2.08827e-11
2.4678e-08
3.2357e-11
-5.1331e-11
-4.02313e-11
2.76436e-08
2.46537e-08
2.58346e-08
2.5082e-11
2.75899e-11
-2.25754e-08
2.25632e-08
2.57069e-08
2.83727e-11
-2.56902e-08
2.47685e-08
2.51908e-11
-2.4763e-08
-3.86084e-11
-5.32343e-11
2.76412e-08
2.47634e-08
2.56906e-08
-2.2563e-08
3.76688e-13
1.31057e-07
-1.54698e-12
2.45129e-13
1.28227e-07
-4.1436e-13
1.40941e-07
-1.14117e-12
-1.32221e-07
1.32219e-07
5.6266e-13
1.23074e-12
-1.26122e-07
1.2612e-07
1.72302e-12
-1.41097e-07
1.41094e-07
-2.48569e-12
1.3223e-07
1.60781e-12
1.26132e-07
1.41101e-07
-3.79931e-11
-5.35986e-11
-2.58679e-08
-2.51215e-11
2.59188e-08
2.45348e-08
-3.87117e-11
3.37557e-11
1.57536e-11
2.06166e-08
2.26562e-08
-5.37973e-11
-1.45447e-11
2.44952e-08
1.42352e-11
2.26319e-08
2.44948e-11
-7.73918e-11
1.84558e-11
-2.60224e-08
2.59522e-08
-1.02453e-11
9.78972e-11
-2.79244e-13
2.38744e-08
2.31235e-08
-7.74467e-11
2.69916e-08
1.89495e-11
7.30303e-12
2.30924e-08
-6.8343e-12
2.69778e-08
-2.13652e-11
-1.80901e-11
-2.62733e-08
-5.41154e-11
2.63564e-08
2.4854e-08
-2.13781e-11
-2.48368e-08
1.56509e-11
6.98325e-12
2.09944e-08
2.31485e-08
-1.8573e-11
-4.66297e-12
2.48369e-08
4.58519e-12
2.31438e-08
5.40979e-11
-2.63566e-08
5.33111e-12
-2.25334e-11
-2.64492e-08
2.64022e-08
2.80476e-11
-4.00105e-12
-8.74377e-14
2.45429e-08
2.75412e-08
5.98909e-12
3.44861e-13
2.36717e-08
-2.25107e-11
-1.95639e-13
2.75685e-08
2.36644e-08
-1.73087e-11
-2.50105e-11
-2.62548e-08
8.00886e-12
2.63026e-08
2.48694e-08
-2.445e-11
-2.48495e-08
7.10155e-12
1.57923e-11
2.09829e-08
2.31472e-08
-1.68305e-11
-7.6271e-12
-2.31401e-08
7.70166e-12
2.31402e-08
2.48494e-08
-7.69989e-12
-2.63027e-08
-2.10277e-11
9.12359e-12
-2.64581e-08
2.64908e-08
-4.19333e-12
2.77939e-11
-1.27469e-13
2.45426e-08
2.36723e-08
-2.09999e-11
-2.36692e-08
2.75394e-08
9.17877e-12
5.39511e-13
-2.75714e-08
2.36696e-08
-1.04536e-13
2.75705e-08
-2.64907e-08
-1.76675e-11
-2.52744e-11
-2.62515e-08
8.24155e-12
2.62994e-08
2.48146e-08
-2.41548e-11
7.36433e-12
1.61459e-11
2.09771e-08
2.31516e-08
-1.69771e-11
-7.26167e-12
7.99728e-12
2.31447e-08
2.48011e-08
-7.70376e-12
-2.09544e-11
9.15823e-12
-2.64593e-08
2.64924e-08
-4.29775e-12
2.72787e-11
2.45462e-08
2.36775e-08
-2.16529e-11
2.75417e-08
9.23376e-12
2.36747e-08
2.75727e-08
-5.29889e-11
-3.74337e-11
-2.58655e-08
-2.5752e-11
2.59167e-08
2.44797e-08
-3.81189e-11
-2.44456e-08
1.51306e-11
3.31664e-11
2.06041e-08
2.26541e-08
-5.38106e-11
-1.46415e-11
-2.26298e-08
1.4261e-11
2.26295e-08
2.44458e-08
2.45701e-11
-2.59156e-08
-7.76697e-11
1.81104e-11
-2.60262e-08
2.59563e-08
-1.03611e-11
9.8273e-11
4.23035e-14
2.38771e-08
2.3127e-08
-7.72131e-11
-2.30959e-08
2.69956e-08
1.91386e-11
7.30958e-12
-2.69817e-08
2.30958e-08
-6.9857e-12
2.69818e-08
-2.59551e-08
-5.30115e-11
-4.07781e-11
-2.58338e-08
2.92534e-11
2.58521e-08
2.44819e-08
-4.15325e-11
-2.44458e-08
1.53519e-11
3.36381e-11
2.05933e-08
2.26421e-08
-5.2846e-11
-1.7564e-11
-2.26159e-08
1.66129e-11
2.26159e-08
2.44458e-08
-3.00759e-11
-2.5852e-08
2.14569e-11
-7.64417e-11
-2.60218e-08
2.60205e-08
9.78658e-11
-1.00563e-11
2.38713e-08
2.69915e-08
2.20881e-11
-2.69668e-08
2.31153e-08
-7.6885e-11
-2.30877e-08
2.69675e-08
2.30878e-08
-2.602e-08
-4.0461e-11
-5.22123e-11
-2.58447e-08
2.89792e-11
2.58628e-08
2.45423e-08
-4.16211e-11
3.33533e-11
1.51589e-11
2.06032e-08
2.26481e-08
-5.31738e-11
-1.75126e-11
2.45057e-08
1.69887e-11
2.26216e-08
-3.01287e-11
2.12946e-11
-7.62927e-11
-2.60256e-08
2.6024e-08
9.79452e-11
-1.04503e-11
2.38725e-08
2.69903e-08
2.20922e-11
2.31198e-08
-7.69288e-11
2.69662e-08
2.30924e-08
-2.11499e-11
-1.77498e-11
-2.62791e-08
-5.41111e-11
2.63624e-08
2.48055e-08
-2.11192e-11
1.52956e-11
6.97574e-12
2.09838e-08
2.31521e-08
-1.88456e-11
-4.29417e-12
2.47885e-08
4.91484e-12
2.3147e-08
5.43465e-11
5.59126e-12
-2.23368e-11
-2.64559e-08
2.64088e-08
2.8041e-11
-4.49659e-12
2.45457e-08
2.75445e-08
5.61619e-12
2.36759e-08
-2.23684e-11
2.75713e-08
2.36685e-08
-1.00068e-12
-3.91615e-13
2.26131e-09
1.70349e-13
-2.2619e-09
-4.81092e-13
-2.69784e-13
1.21545e-09
1.2786e-13
-1.21583e-09
-1.87433e-13
-1.58535e-13
5.96387e-10
7.76616e-14
-5.96599e-10
-4.59578e-14
-7.75106e-14
2.46211e-10
3.65932e-14
-2.46315e-10
-1.97084e-14
5.83383e-11
9.80041e-15
-5.83777e-11
-1.22434e-12
2.33457e-13
4.2296e-09
-4.14938e-13
-5.66157e-13
1.67806e-13
2.26906e-09
-2.66694e-13
-2.02875e-13
9.4449e-14
1.11385e-09
-1.53486e-13
-3.91253e-14
4.06881e-14
4.60672e-10
-7.38156e-14
1.44545e-14
1.09542e-10
-1.74962e-14
-3.6123e-13
1.77525e-13
2.2646e-09
-2.42071e-13
-2.2648e-09
-1.70952e-13
8.06473e-14
1.21718e-09
-1.28195e-13
-1.21732e-09
-7.3164e-14
3.9775e-14
5.97217e-10
-6.25037e-14
-5.97281e-10
-2.57097e-14
1.7968e-14
2.46525e-10
-2.64264e-14
-2.46552e-10
2.60838e-15
5.84097e-11
-5.94288e-15
-5.84234e-11
-3.60581e-14
-1.65988e-13
4.23403e-09
1.42452e-13
-4.23409e-09
5.26203e-15
-6.67352e-14
2.27138e-09
8.98534e-14
-2.27143e-09
3.35819e-15
-2.39166e-14
1.115e-09
5.59395e-14
-1.11501e-09
-1.38072e-14
-5.30754e-15
4.61166e-10
2.99152e-14
-4.61157e-10
-1.18402e-15
1.09673e-10
6.46541e-15
-1.09681e-10
-7.87027e-13
4.22815e-09
-3.62532e-13
-4.22896e-09
-3.38345e-13
2.26828e-09
-2.11466e-13
-2.26877e-09
-1.33081e-13
1.11342e-09
-1.07758e-13
-1.11366e-09
-5.59245e-14
4.60503e-10
-4.29925e-14
-4.60596e-10
1.09547e-10
-1.33072e-14
-1.09596e-10
-1.6254e-13
4.23168e-09
2.14946e-13
-4.23183e-09
-7.14214e-14
2.2701e-09
1.35473e-13
-2.27025e-09
-2.63572e-14
1.11435e-09
7.54934e-14
-1.11444e-09
-5.89562e-15
4.60848e-10
3.39108e-14
-4.60888e-10
1.09593e-10
1.03395e-14
-1.09609e-10
-9.83055e-13
2.2631e-09
7.8533e-14
-4.67614e-13
1.21644e-09
7.1118e-14
-1.90318e-13
5.96901e-10
4.8896e-14
-5.80669e-14
2.46401e-10
2.58591e-14
5.83718e-11
6.51422e-15
-1.76556e-13
-1.37183e-15
1.09027e-13
4.23352e-09
-7.70771e-14
2.56643e-14
7.54845e-14
2.27129e-09
-3.28186e-14
1.71235e-14
4.57619e-14
1.11499e-09
-1.75724e-14
6.84477e-15
2.28356e-14
4.6115e-10
4.77543e-15
6.83581e-15
1.09689e-10
-4.04491e-13
2.26548e-09
-2.9815e-13
-2.26566e-09
-1.90597e-13
1.21773e-09
-1.59891e-13
-1.21785e-09
-7.24154e-14
5.9745e-10
-8.03015e-14
-5.97515e-10
-1.70971e-14
2.46648e-10
-3.62095e-14
-2.46678e-10
5.84275e-11
-6.59802e-15
-5.84397e-11
-3.87796e-13
2.26578e-09
-1.11011e-13
-1.61004e-13
1.21795e-09
-4.03405e-14
-5.72111e-14
5.97625e-10
-1.30972e-14
-2.33271e-14
2.46726e-10
-3.7575e-15
5.84571e-11
-1.18216e-15
-4.013e-13
1.12516e-13
2.26444e-09
-2.2728e-13
-1.81494e-13
3.28238e-14
1.2171e-09
-1.19603e-13
-6.39887e-14
9.26715e-15
5.97155e-10
-6.1041e-14
-1.41272e-14
1.22592e-15
2.46533e-10
-2.83306e-14
-1.89883e-16
5.84183e-11
-5.84118e-15
-7.24215e-13
2.6892e-13
-2.25194e-13
4.2308e-09
-2.97066e-13
1.81956e-13
-1.19163e-13
2.26967e-09
-1.08983e-13
1.02259e-13
-5.85735e-14
1.11421e-09
-4.02866e-14
4.64529e-14
-2.34622e-14
4.6082e-10
1.45193e-14
-6.47322e-15
1.09597e-10
-8.26655e-13
2.26248e-09
1.32331e-13
-3.72403e-13
1.21617e-09
1.03748e-13
-1.45703e-13
5.96759e-10
6.73766e-14
-5.07277e-14
2.46351e-10
3.53401e-14
5.83641e-11
7.81427e-15
-8.48031e-13
-2.18192e-13
2.26235e-09
7.95814e-14
-3.91523e-13
-1.51064e-13
1.21611e-09
6.72074e-14
-1.5038e-13
-8.7172e-14
5.96698e-10
4.53412e-14
-4.29362e-14
-4.13995e-14
2.46344e-10
2.44548e-14
-1.17285e-14
5.8357e-11
4.46822e-15
-2.69649e-13
1.20613e-13
4.23142e-09
-1.34851e-13
6.483e-14
2.26998e-09
-5.95322e-14
3.72013e-14
1.11433e-09
-2.27515e-14
1.93736e-14
4.60893e-10
5.22722e-15
1.09606e-10
-8.6474e-13
-2.84486e-13
4.22824e-09
-4.08853e-13
-1.63862e-13
2.26843e-09
-1.6046e-13
-8.64285e-14
1.11352e-09
-4.31843e-14
-3.90241e-14
4.60545e-10
-8.26752e-15
1.09512e-10
1.13029e-12
3.88209e-15
2.22095e-14
-4.2279e-09
4.22897e-09
5.03999e-13
2.65082e-14
-6.68032e-15
-2.26614e-09
2.26677e-09
1.92131e-13
2.34584e-14
-1.43789e-14
-1.11167e-09
1.11199e-09
5.42085e-14
1.28236e-14
-1.2851e-14
-4.59569e-10
4.59722e-10
4.62227e-15
2.00706e-16
-1.09252e-10
1.09313e-10
6.88349e-13
7.83393e-14
2.26189e-09
3.18587e-13
7.00823e-14
1.21578e-09
1.29473e-13
4.40081e-14
5.96563e-10
3.4488e-14
2.13938e-14
2.46299e-10
7.59915e-15
5.83708e-11
3.80201e-13
-1.6415e-13
1.36336e-13
4.23011e-09
1.46294e-13
-1.26779e-13
7.46487e-14
2.26937e-09
5.20759e-14
-7.71898e-14
4.42138e-14
1.11401e-09
1.27529e-14
-3.76139e-14
2.27866e-14
4.60753e-10
-1.15736e-14
5.64182e-15
1.09577e-10
4.33969e-14
-7.42994e-14
-2.59329e-09
1.76032e-13
2.5932e-09
3.62438e-14
-3.96939e-14
-1.39324e-09
1.0438e-13
1.39319e-09
1.2959e-14
-1.71603e-14
-6.83848e-10
5.6663e-14
6.83836e-10
-5.62943e-15
-3.90305e-15
-2.82522e-10
2.51765e-14
2.82527e-10
-4.01174e-15
-6.7053e-11
8.09415e-15
6.70468e-11
1.07774e-13
3.37725e-14
-2.83142e-09
2.83139e-09
5.5518e-14
1.97313e-14
-1.5205e-09
1.52049e-09
2.55946e-14
9.91985e-15
-7.46577e-10
7.46587e-10
3.66634e-15
3.65763e-15
-3.08675e-10
3.0869e-10
1.35956e-15
-7.33639e-11
7.33612e-11
2.77593e-13
-2.14171e-13
-4.23447e-09
3.34172e-13
4.23473e-09
8.35052e-14
-1.11333e-13
-2.26972e-09
1.96118e-13
2.26985e-09
1.46601e-14
-5.66822e-14
-1.11346e-09
1.05714e-13
1.11351e-09
9.84612e-15
-2.6196e-14
-4.6028e-10
4.6872e-14
4.60283e-10
-5.7246e-15
-1.09429e-10
1.3398e-14
1.09444e-10
4.12323e-13
2.26479e-09
-1.97485e-14
1.78907e-13
1.2173e-09
1.71578e-14
6.44529e-14
5.97265e-10
1.81304e-14
1.65761e-14
2.46542e-10
1.21646e-14
5.8422e-11
3.27039e-15
-3.21777e-13
1.88687e-13
-2.45688e-13
2.26456e-09
-1.39276e-13
9.16483e-14
-1.26446e-13
1.21716e-09
-5.44463e-14
4.59415e-14
-6.13973e-14
5.97207e-10
-2.36946e-14
1.98179e-14
-2.53765e-14
2.46526e-10
3.61051e-15
-7.39609e-15
5.84055e-11
-3.21124e-14
4.23423e-09
5.16051e-14
-1.49601e-13
-5.03222e-14
2.27148e-09
2.04585e-15
-8.76047e-14
-2.47176e-14
1.11502e-09
-7.36215e-15
-4.92018e-14
2.70527e-15
4.61162e-10
-7.51785e-15
-2.37529e-14
1.09682e-10
-1.72762e-15
-6.81007e-15
-1.57075e-13
-1.70246e-13
4.2342e-09
1.11912e-13
-6.61471e-14
-7.00244e-14
2.27143e-09
5.67025e-14
-2.85368e-14
-3.10669e-14
1.11501e-09
2.92906e-14
-1.97975e-14
-1.26971e-14
4.61172e-10
1.34413e-14
-1.4437e-15
1.09667e-10
3.37266e-15
-3.86801e-13
2.24879e-09
2.94656e-14
-1.80455e-13
1.20832e-09
1.36782e-14
-6.60631e-14
5.92852e-10
2.05177e-15
-1.52269e-14
2.44725e-10
-2.8851e-15
5.79902e-11
1.08724e-15
2.55922e-13
-6.63542e-14
1.69754e-13
2.24904e-09
9.60706e-14
-5.7751e-14
1.10514e-13
1.20845e-09
2.8399e-14
-3.52228e-14
6.58819e-14
5.92908e-10
5.90048e-15
-1.67376e-14
3.3604e-14
2.44749e-10
-3.52115e-15
7.84435e-15
5.80031e-11
-5.54772e-13
2.24702e-09
-4.0042e-13
-2.6407e-13
1.20745e-09
-2.1499e-13
-1.06974e-13
5.92433e-10
-1.08839e-13
-3.41671e-14
2.44563e-10
-4.65569e-14
5.79506e-11
-1.2746e-14
4.46043e-13
3.08439e-13
-2.35938e-13
2.24745e-09
2.01726e-13
1.74978e-13
-1.52094e-13
1.20767e-09
8.17104e-14
9.47559e-14
-8.73232e-14
5.92541e-10
2.76466e-14
4.28254e-14
-4.16797e-14
2.4461e-10
1.20816e-14
-9.55808e-15
5.79739e-11
-2.96285e-13
2.6092e-13
4.03535e-09
-1.39778e-13
1.45659e-13
2.16507e-09
-5.83772e-14
7.56866e-14
1.06243e-09
-2.66252e-14
3.34674e-14
4.39196e-10
8.75255e-15
1.04362e-10
-4.29369e-13
4.03489e-09
-1.9432e-13
2.16472e-09
-7.71378e-14
1.06232e-09
-2.89499e-14
4.39123e-10
1.04345e-10
1.53802e-13
-1.75642e-13
4.03562e-09
5.96078e-14
-1.12419e-13
2.16519e-09
2.78596e-14
-6.67152e-14
1.06247e-09
1.68705e-14
-3.34941e-14
4.39202e-10
-7.61374e-15
1.04378e-10
2.57125e-13
4.03531e-09
1.02075e-13
2.16495e-09
3.597e-14
1.06243e-09
1.34348e-14
4.39169e-10
1.0437e-10
5.29055e-13
8.91365e-14
4.2287e-09
2.32914e-13
4.96762e-14
2.2686e-09
8.66481e-14
2.54068e-14
1.11358e-09
2.28846e-14
1.16621e-14
4.60588e-10
1.60797e-15
1.09579e-10
4.17105e-14
4.23192e-09
-3.92118e-14
-3.43221e-14
2.27023e-09
-2.06938e-14
-3.01264e-14
1.1144e-09
-1.33294e-14
-2.20157e-15
4.60857e-10
-7.94325e-15
1.09605e-10
-2.59342e-15
2.04732e-15
4.2318e-09
2.5802e-13
2.25459e-14
2.27015e-09
1.58888e-13
1.00411e-14
1.11438e-09
8.99903e-14
-1.30531e-14
4.60873e-10
4.26246e-14
1.09589e-10
1.11456e-14
6.51635e-13
-6.67866e-14
2.26361e-09
2.9968e-13
-6.97133e-14
1.21672e-09
1.21269e-13
-5.30257e-14
5.97039e-10
3.75386e-14
-3.11491e-14
2.46464e-10
-6.33133e-15
5.84033e-11
-3.6008e-13
2.24943e-09
7.4183e-14
-1.62516e-13
1.20863e-09
5.76718e-14
-5.54891e-14
5.92994e-10
3.11718e-14
-1.41373e-14
2.44813e-10
1.14307e-14
5.801e-11
4.177e-15
5.80771e-13
-3.1206e-14
1.78092e-13
2.24987e-09
2.66695e-13
-3.6837e-14
1.10386e-13
1.20889e-09
9.62842e-14
-1.84164e-14
6.91241e-14
5.9313e-10
2.25503e-14
-5.75202e-15
3.60354e-14
2.44875e-10
-2.32438e-15
1.02213e-14
5.80327e-11
-3.32373e-13
4.03674e-09
3.47826e-13
-1.54926e-13
2.16552e-09
2.20051e-13
-6.64095e-14
1.06278e-09
1.24365e-13
-3.35612e-14
4.39318e-10
5.86561e-14
1.04392e-10
1.35772e-14
4.80789e-13
-1.18256e-13
4.037e-09
2.47989e-13
-6.37824e-14
2.16575e-09
1.04461e-13
-2.76868e-14
1.0629e-09
3.61823e-14
-9.67253e-15
4.39364e-10
-1.69537e-15
1.0442e-10
4.84391e-15
1.54261e-13
4.23365e-09
-2.79357e-14
7.14171e-14
2.27135e-09
-1.48218e-14
3.52356e-14
1.115e-09
1.87055e-15
1.41707e-14
4.61145e-10
3.62909e-15
1.09697e-10
1.20954e-13
-1.53754e-13
-2.59371e-09
3.01559e-13
2.59364e-09
7.20125e-14
-9.25452e-14
-1.39342e-09
1.74317e-13
1.39339e-09
3.31124e-14
-4.78276e-14
-6.8389e-10
8.96143e-14
6.8389e-10
6.08782e-16
-1.85527e-14
-2.82555e-10
3.64818e-14
2.82568e-10
-7.78144e-15
-6.70614e-11
1.26766e-14
6.70552e-11
1.1913e-13
-2.83161e-09
2.8316e-09
6.36708e-14
-1.52059e-09
1.52059e-09
2.17949e-14
-7.46615e-10
7.46629e-10
-2.2199e-15
-3.08688e-10
3.08707e-10
-7.33676e-11
7.33646e-11
1.04979e-13
-1.7739e-13
1.91641e-13
-4.23462e-09
4.23485e-09
6.81488e-15
-9.2144e-14
1.14371e-13
-2.26991e-09
2.26998e-09
-5.89716e-15
-4.74114e-14
6.42737e-14
-1.11349e-09
1.11348e-09
1.41623e-14
-2.24443e-14
3.03658e-14
-4.60346e-10
4.60317e-10
-5.08746e-15
7.41174e-15
-1.09422e-10
1.09432e-10
2.97404e-13
2.26566e-09
1.24796e-13
1.21783e-09
4.5451e-14
5.97495e-10
1.66046e-14
2.46665e-10
5.84382e-11
-3.60779e-13
-2.98918e-13
2.26551e-09
-1.65856e-13
-1.6168e-13
1.21772e-09
-6.25132e-14
-8.56685e-14
5.97446e-10
-2.01239e-14
-4.12059e-14
2.46651e-10
-8.13015e-15
5.8423e-11
2.31283e-13
2.72294e-13
2.26591e-09
9.2634e-14
1.49746e-13
1.21801e-09
3.43683e-14
7.62649e-14
5.97646e-10
1.299e-14
3.2989e-14
2.46731e-10
8.57617e-15
5.8466e-11
3.00999e-13
-2.39972e-13
3.13063e-13
-4.23333e-09
4.23355e-09
1.35916e-13
-1.26984e-13
1.84974e-13
-2.26912e-09
2.26922e-09
5.27776e-14
-6.19051e-14
1.01563e-13
-1.11313e-09
1.11317e-09
2.04495e-14
-2.53234e-14
4.6949e-14
-4.60171e-10
4.60177e-10
-7.74214e-15
1.2373e-14
-1.09407e-10
1.0942e-10
3.40249e-13
-9.0838e-14
2.26465e-09
1.40006e-13
-2.65778e-14
1.21722e-09
4.94794e-14
-4.72937e-15
5.97205e-10
1.71195e-14
2.77749e-15
2.4655e-10
4.65943e-16
5.84315e-11
-5.68558e-13
2.2498e-09
-3.61483e-13
-2.58791e-13
1.20877e-09
-1.82664e-13
-9.87039e-14
5.93049e-10
-9.03965e-14
-3.27279e-14
2.44814e-10
-3.84201e-14
5.80263e-11
-1.17417e-14
5.59057e-13
-1.92466e-13
3.47541e-13
2.25014e-09
2.70614e-13
-1.12474e-13
2.02304e-13
1.20897e-09
1.08103e-13
-5.71952e-14
1.1064e-13
5.93157e-10
3.10488e-14
-2.38405e-14
5.10693e-14
2.44867e-10
-5.48591e-15
1.29577e-14
5.80503e-11
-3.93647e-13
-2.39976e-13
4.03899e-09
-1.72549e-13
-1.21508e-13
2.16671e-09
-7.08102e-14
-5.78621e-14
1.06323e-09
-2.87456e-14
-2.25778e-14
4.39469e-10
-6.99911e-15
1.04449e-10
5.43858e-13
-1.90599e-13
4.2314e-09
2.26669e-13
-1.43513e-13
2.27002e-09
8.56496e-14
-8.77096e-14
1.11439e-09