/*--------------------------------*- C++ -*----------------------------------*\
| =========                 |                                                 |
| \\      /  F ield         | OpenFOAM: The Open Source CFD Toolbox           |
|  \\    /   O peration     | Version:  2206                                  |
|   \\  /    A nd           | Website:  www.openfoam.com                      |
|    \\/     M anipulation  |                                                 |
\*---------------------------------------------------------------------------*/
FoamFile
{
    version     2.0;
    format      ascii;
    arch        "LSB;label=32;scalar=64";
    class       volScalarField;
    location    "250";
    object      div(phi);
}
// * * * * * * * * * * * * * * * * * * * * * * * * * * * * * * * * * * * * * //

dimensions      [0 0 -1 0 0 0 0];

internalField   nonuniform List<scalar> 
10720
(
4.33298e-06
-2.2115e-06
2.53992e-06
-1.12281e-06
1.70674e-06
1.12427e-07
1.32558e-06
7.61861e-07
4.99802e-07
-6.82068e-08
-3.58742e-07
-6.57402e-07
-5.95186e-07
-4.56432e-07
-1.54614e-07
-5.87458e-08
8.01117e-08
6.41822e-08
3.40434e-07
-5.16625e-09
4.75265e-07
7.52662e-07
6.65119e-06
1.91123e-06
-2.94342e-05
1.41785e-05
4.97924e-05
-2.41948e-05
-1.81616e-05
-9.12177e-06
1.43355e-05
1.66119e-05
4.41012e-07
-1.6888e-05
2.71165e-05
-2.70461e-05
4.11233e-05
2.40257e-05
0.000508158
-1.52727e-06
3.38547e-06
8.45961e-07
6.02631e-07
-2.03709e-08
-6.87114e-07
4.68009e-07
9.5317e-07
-2.74617e-08
-2.28493e-08
-2.0399e-07
2.5271e-07
3.02058e-07
5.50196e-07
3.86964e-07
4.18955e-07
2.18481e-07
3.43372e-07
1.55009e-07
3.65985e-07
-2.04525e-08
1.08198e-07
-6.32754e-07
-8.76285e-07
-8.6094e-07
-6.30808e-07
-6.68567e-07
-1.07485e-06
1.10574e-06
-4.66657e-07
-5.53511e-07
-2.29193e-06
2.86477e-07
6.64889e-07
-1.91401e-06
-7.84633e-07
-2.07614e-06
4.64792e-06
-7.956e-06
3.29289e-06
2.17731e-08
1.68884e-06
-2.80745e-07
1.02209e-06
4.65896e-07
8.21795e-07
7.82631e-07
3.03341e-07
-1.03556e-07
-3.92716e-07
-6.54653e-07
-5.38437e-07
-4.28499e-07
-1.69122e-07
-1.72722e-07
-6.73137e-08
-1.17464e-07
5.88131e-08
-6.96064e-08
8.78677e-08
1.79919e-07
2.03914e-06
2.08302e-06
-3.61367e-06
2.49611e-06
1.41965e-05
-5.16517e-06
-4.66976e-06
-3.14859e-06
1.05755e-05
9.26231e-06
4.55793e-06
-6.84699e-06
2.09154e-05
-1.0826e-05
4.45969e-05
2.27518e-05
0.000305484
7.34201e-07
3.42703e-06
-7.23435e-07
4.90288e-07
-1.44052e-06
2.77571e-08
7.81887e-07
8.02295e-07
1.40635e-07
-9.22326e-08
-1.16323e-07
2.13787e-07
3.26381e-07
5.0349e-07
3.81479e-07
3.99863e-07
2.52593e-07
3.2739e-07
2.03003e-07
2.92184e-07
4.34062e-08
4.94745e-08
-4.79011e-07
-6.55095e-07
-7.92544e-07
-6.26677e-07
-7.51619e-07
-9.4265e-07
5.49787e-07
-6.77148e-07
-6.07407e-07
-2.08134e-06
-6.23664e-07
1.69981e-07
-1.33308e-06
-1.85556e-06
-2.61497e-06
3.84452e-06
-8.59105e-06
-1.80782e-06
2.53581e-06
-1.21568e-06
1.30196e-06
-3.56064e-07
6.74583e-07
6.4403e-07
4.68095e-07
2.1764e-07
-9.08483e-08
-4.95281e-07
-5.96863e-07
-6.31054e-07
-3.82686e-07
-2.23527e-07
-4.64026e-08
-7.9446e-09
8.03504e-08
1.785e-07
1.05834e-07
1.49756e-07
3.38369e-07
2.13821e-06
7.98017e-07
-1.11961e-05
6.16008e-06
2.91004e-05
-1.33029e-05
-1.26842e-05
-6.36598e-06
7.9598e-06
9.46202e-06
-1.47794e-06
-1.07054e-05
1.34976e-05
-1.49177e-05
1.03521e-05
6.86092e-06
0.000149378
3.79509e-06
-1.56032e-06
2.55443e-07
-2.11603e-06
-9.83989e-07
2.02939e-07
1.20899e-06
7.74807e-07
3.64207e-07
-1.22058e-07
5.47093e-08
4.4503e-08
3.2453e-07
2.99528e-07
3.78067e-07
2.64922e-07
2.57816e-07
2.11675e-07
2.06494e-07
2.16055e-07
7.35948e-08
7.83445e-12
-4.17054e-07
-6.71371e-07
-7.6555e-07
-5.22322e-07
-8.1583e-07
-9.61119e-07
1.10453e-06
-1.3023e-07
-4.28811e-07
-2.40997e-06
7.17316e-07
9.71531e-07
-1.98643e-06
-1.91532e-07
-1.57277e-06
3.174e-06
-3.87552e-06
2.33525e-06
-9.59835e-07
5.90341e-07
-6.02544e-07
3.32088e-07
2.20067e-07
4.17453e-07
4.92303e-07
1.6256e-07
-1.4698e-07
-5.18667e-07
-5.85249e-07
-5.92089e-07
-3.3558e-07
-2.75058e-07
-1.21732e-07
-2.06753e-07
-6.19558e-08
-9.25836e-08
1.18675e-09
-1.3187e-07
1.73349e-07
1.33292e-06
1.31075e-06
-2.42165e-06
1.75504e-06
9.04048e-06
-2.50503e-06
-2.53983e-06
-2.07859e-06
8.63974e-06
6.63234e-06
4.24146e-06
-4.63144e-06
1.62909e-05
-6.97704e-06
3.34727e-05
1.40226e-05
0.000159952
-1.11176e-06
-8.6382e-07
-2.22056e-06
-2.31612e-06
-6.70564e-07
9.2145e-07
1.22708e-06
8.76822e-07
2.54635e-07
-2.64498e-08
1.65427e-08
1.0446e-07
3.15844e-07
2.96914e-07
3.74397e-07
2.44106e-07
2.96175e-07
1.91515e-07
2.59529e-07
1.55475e-07
1.37467e-07
-3.8137e-08
-2.39681e-07
-5.03461e-07
-5.6664e-07
-5.96292e-07
-7.07168e-07
-9.24498e-07
3.47138e-07
-5.45802e-07
-5.87094e-07
-2.12063e-06
-7.11362e-07
2.09608e-07
-1.40975e-06
-2.12467e-06
-2.97131e-06
2.91367e-06
-7.95634e-06
4.52518e-07
-1.27347e-07
-2.76435e-07
-6.4836e-08
-1.67472e-07
2.70756e-07
4.93511e-07
2.81781e-07
1.96454e-07
-2.38511e-07
-4.20091e-07
-6.30508e-07
-4.89137e-07
-4.09565e-07
-1.90317e-07
-1.487e-07
-3.73946e-08
-5.6083e-10
1.43184e-07
9.93166e-08
5.80439e-08
1.4823e-07
1.58626e-06
6.71906e-07
-7.98625e-06
7.39531e-06
2.67528e-05
-9.43657e-06
-1.47018e-05
-6.81465e-06
9.68903e-06
8.38231e-06
-1.48654e-06
-1.30294e-05
1.34882e-05
-1.61964e-05
7.87621e-06
3.91442e-06
7.75271e-05
-1.65823e-06
-1.80397e-06
-3.0957e-06
-1.6114e-06
3.23448e-08
9.48428e-07
1.27814e-06
8.67487e-07
2.32494e-07
1.23466e-07
-2.29636e-08
1.92689e-07
1.63191e-07
3.12436e-07
2.185e-07
2.72336e-07
1.66187e-07
2.16237e-07
1.4051e-07
1.94359e-07
4.90499e-08
2.41128e-08
-3.00014e-07
-4.15214e-07
-6.64855e-07
-5.06259e-07
-8.79787e-07
-9.71689e-07
9.12044e-07
3.16827e-07
-3.13971e-07
-2.43495e-06
8.73524e-07
1.46813e-06
-1.93228e-06
2.0181e-07
-1.48625e-06
2.33584e-06
-1.12787e-06
-9.64124e-07
-2.2681e-08
7.59881e-08
-3.54174e-07
5.12746e-08
1.9873e-07
2.75406e-07
3.95162e-07
9.97653e-08
-2.44493e-07
-4.38077e-07
-5.71912e-07
-4.35066e-07
-3.73598e-07
-1.89202e-07
-2.31733e-07
-1.28251e-07
-1.77873e-07
-1.23071e-08
-1.20957e-07
-1.14611e-07
-1.0668e-08
1.02701e-06
7.37204e-07
-1.49936e-06
1.26003e-06
6.46728e-06
-1.35246e-06
-1.48099e-06
-1.76859e-06
8.9215e-06
6.1483e-06
4.61835e-06
-4.90074e-06
1.73954e-05
-7.70697e-06
3.39686e-05
9.74924e-06
0.000103655
-1.34331e-06
-2.64536e-06
-2.5681e-06
-1.19748e-06
2.08344e-07
1.30613e-06
1.23059e-06
6.96241e-07
2.58563e-07
4.34808e-08
6.05108e-08
1.75681e-07
2.21431e-07
2.89113e-07
2.31312e-07
2.49939e-07
1.78034e-07
2.0705e-07
1.60583e-07
1.62674e-07
9.19861e-08
4.24517e-09
-1.33013e-07
-3.17214e-07
-3.96303e-07
-5.10906e-07
-6.30772e-07
-8.99856e-07
1.86157e-07
-4.52462e-07
-5.44234e-07
-1.92678e-06
-7.44314e-07
1.5723e-07
-1.22376e-06
-2.1819e-06
-2.9866e-06
1.67904e-06
-7.05307e-06
-1.63417e-06
5.67126e-07
-1.86176e-07
-2.42411e-08
-8.97519e-08
1.42966e-07
3.58423e-07
2.72524e-07
1.82899e-08
-1.57381e-07
-4.5847e-07
-4.26847e-07
-4.60189e-07
-2.82111e-07
-2.49259e-07
-1.28355e-07
-1.3239e-07
-7.93003e-09
6.45623e-08
9.47669e-08
-5.56569e-08
4.31048e-08
1.2361e-06
7.85054e-07
-3.98408e-06
5.78658e-06
2.2331e-05
-6.47137e-06
-1.46506e-05
-7.6973e-06
1.04929e-05
7.31996e-06
-1.699e-06
-1.54016e-05
1.60618e-05
-2.03578e-05
1.17975e-05
1.77069e-06
4.74454e-05
-8.37237e-07
-3.04283e-06
-1.82073e-06
-9.03632e-07
5.44328e-07
1.01197e-06
1.17695e-06
6.19496e-07
2.75397e-07
4.86326e-08
1.52258e-07
1.27247e-07
2.62918e-07
1.81995e-07
2.48504e-07
1.44555e-07
1.97941e-07
1.05634e-07
1.78911e-07
7.25061e-08
1.33967e-07
-6.87467e-08
-5.70556e-08
-3.89141e-07
-3.33743e-07
-6.11903e-07
-7.02405e-07
-1.15344e-06
1.02138e-06
5.39133e-07
-1.17632e-07
-2.37155e-06
1.00981e-06
1.67447e-06
-1.57973e-06
3.17325e-07
-1.14424e-06
1.57927e-06
5.8242e-07
1.84128e-06
1.71596e-07
4.14301e-07
-3.66949e-08
-2.61276e-08
1.27376e-07
2.53016e-07
3.18535e-07
3.73133e-08
-1.93447e-07
-3.9554e-07
-3.88051e-07
-3.93497e-07
-2.4287e-07
-2.46915e-07
-1.39292e-07
-2.09167e-07
-6.72511e-08
-1.07059e-07
-3.91695e-08
-2.47473e-07
6.20817e-08
6.77508e-07
6.25272e-07
-1.14563e-06
9.64697e-07
4.08518e-06
-2.50354e-07
-5.33099e-07
-1.04753e-06
7.78139e-06
4.92613e-06
4.55011e-06
-4.27787e-06
1.73784e-05
-9.03096e-06
3.73805e-05
6.41054e-06
7.41778e-05
-2.17285e-06
-1.28843e-06
-1.8596e-06
-6.52572e-07
3.35998e-07
1.23802e-06
9.33454e-07
5.19989e-07
1.60001e-07
8.10349e-08
1.17121e-07
2.10546e-07
2.35592e-07
2.34172e-07
1.97207e-07
1.77872e-07
1.4107e-07
1.51382e-07
1.15551e-07
1.32548e-07
6.32222e-08
3.7987e-08
-7.40805e-08
-1.7153e-07
-2.65679e-07
-3.76909e-07
-5.52209e-07
-7.76234e-07
5.55279e-08
-4.00631e-07
-5.47582e-07
-1.67736e-06
-7.51346e-07
8.00369e-08
-1.06705e-06
-2.12946e-06
-2.86094e-06
7.41046e-07
-6.1248e-06
-6.82616e-07
8.60737e-07
2.78809e-07
-3.22145e-08
-7.13994e-08
1.04207e-07
3.82261e-07
1.3708e-07
9.1149e-08
-2.30869e-07
-2.59734e-07
-3.88237e-07
-2.70709e-07
-2.90576e-07
-1.61864e-07
-1.98792e-07
-9.87861e-08
-9.26184e-08
6.05504e-08
-1.98728e-08
-1.08144e-07
-5.20506e-08
9.74283e-07
9.30389e-07
-2.26363e-06
4.11465e-06
1.51886e-05
-4.66037e-06
-1.24167e-05
-8.87617e-06
1.07295e-05
6.36053e-06
-1.3463e-06
-1.70467e-05
1.61132e-05
-2.44927e-05
1.4785e-05
-6.00253e-07
3.27154e-05
-2.65214e-07
-1.91303e-06
-1.3564e-06
-5.20774e-07
5.74833e-07
7.93849e-07
8.5484e-07
4.59169e-07
1.4843e-07
1.09983e-07
1.269e-07
2.48765e-07
2.09436e-07
2.40443e-07
1.50326e-07
1.70911e-07
9.45106e-08
1.39355e-07
6.81176e-08
1.28613e-07
2.57462e-08
6.19002e-08
-1.01376e-07
-1.21098e-07
-3.14771e-07
-3.28452e-07
-7.20946e-07
-8.65394e-07
8.0402e-07
6.94105e-07
-3.8436e-08
-2.25832e-06
9.31791e-07
2.02504e-06
-1.32783e-06
3.1105e-07
-9.85109e-07
1.33444e-06
1.64931e-06
8.51672e-07
4.51326e-07
2.38173e-07
-6.02746e-08
-6.03465e-08
1.75111e-07
1.71842e-07
2.75541e-07
2.45497e-09
-1.79385e-07
-2.61936e-07
-3.16368e-07
-2.48757e-07
-2.38181e-07
-1.55141e-07
-1.84251e-07
-1.11665e-07
-1.12938e-07
-3.11562e-08
-1.20728e-07
-1.7885e-07
2.94202e-09
6.08484e-07
3.50369e-07
-8.51757e-07
5.70265e-07
2.56704e-06
3.79106e-07
1.93268e-07
-4.28768e-07
6.47113e-06
3.95551e-06
3.97142e-06
-3.21315e-06
1.4972e-05
-8.68622e-06
3.60916e-05
3.20741e-06
5.55111e-05
-8.79723e-07
-1.37244e-06
-1.13817e-06
-3.3881e-07
3.32494e-07
9.90759e-07
6.75594e-07
3.28932e-07
1.13255e-07
6.05109e-08
1.92456e-07
2.18381e-07
2.74727e-07
1.87215e-07
1.93391e-07
1.02453e-07
1.37162e-07
6.79998e-08
1.21763e-07
5.56443e-08
9.34087e-08
5.54806e-09
1.05239e-08
-1.20904e-07
-1.2153e-07
-2.88616e-07
-3.93738e-07
-6.34106e-07
-2.22815e-08
-4.01721e-07
-5.30821e-07
-1.46886e-06
-7.27349e-07
-8.54727e-09
-9.17816e-07
-2.01863e-06
-2.70926e-06
2.06366e-07
-5.42046e-06
6.00396e-07
5.69202e-07
8.83014e-08
-1.10264e-07
-3.97352e-08
9.73401e-08
2.82591e-07
1.57402e-07
-4.04642e-08
-1.05497e-07
-2.75737e-07
-2.10504e-07
-2.7171e-07
-1.58176e-07
-2.11784e-07
-1.17333e-07
-1.79836e-07
-3.7054e-08
-8.47222e-08
-1.78022e-08
-2.87675e-07
-2.14465e-08
5.3705e-07
7.67849e-07
-1.82479e-06
2.21482e-06
7.92626e-06
-2.47129e-06
-1.08833e-05
-8.73841e-06
1.02483e-05
6.68209e-06
-9.44749e-07
-1.70506e-05
1.53671e-05
-2.54147e-05
1.79671e-05
-3.45524e-06
2.70658e-05
-9.17099e-07
-1.0961e-06
-8.96627e-07
-2.66749e-07
5.19068e-07
5.87837e-07
6.31142e-07
3.02833e-07
9.4443e-08
8.84221e-08
1.85698e-07
2.52467e-07
2.50935e-07
2.08412e-07
1.53679e-07
1.17653e-07
9.40931e-08
7.94716e-08
8.24224e-08
6.50309e-08
7.40062e-08
2.30186e-08
2.2363e-08
-9.39583e-08
-8.82339e-08
-2.61451e-07
-3.92912e-07
-6.92938e-07
7.18211e-07
6.28605e-07
4.22846e-08
-2.28629e-06
8.43874e-07
2.08176e-06
-9.31517e-07
2.08954e-07
-8.21099e-07
1.23826e-06
1.91369e-06
1.54272e-07
1.4987e-07
2.05146e-08
-1.0346e-07
-4.8943e-08
1.44121e-07
1.94566e-07
1.77547e-07
1.3089e-08
-1.48711e-07
-2.11444e-07
-2.32691e-07
-1.97989e-07
-1.75452e-07
-1.4121e-07
-1.43958e-07
-9.69257e-08
-8.27156e-08
-3.35423e-08
-1.31895e-07
-1.57161e-07
7.88951e-09
4.94204e-07
1.44086e-07
-6.93202e-07
2.33975e-07
1.71145e-06
8.49647e-07
4.28981e-07
1.33308e-07
5.26266e-06
3.0926e-06
3.49356e-06
-2.04455e-06
1.27519e-05
-7.73943e-06
3.2617e-05
1.98673e-07
3.85016e-05
-3.69127e-07
-9.05564e-07
-6.96862e-07
-1.78302e-07
2.90246e-07
7.67827e-07
4.64574e-07
2.10416e-07
4.7877e-08
1.12382e-07
1.74386e-07
2.83692e-07
2.22317e-07
2.21231e-07
1.16039e-07
1.29438e-07
5.23559e-08
9.91217e-08
3.83896e-08
9.55361e-08
2.81934e-08
7.0183e-08
-1.40133e-08
-1.08324e-08
-9.15521e-08
-1.37865e-07
-3.03052e-07
-4.16458e-07
-1.1261e-07
-3.47333e-07
-5.51651e-07
-1.23566e-06
-7.45327e-07
-1.31215e-07
-8.09355e-07
-1.84308e-06
-2.53715e-06
-9.03048e-08
-4.9428e-06
2.92372e-07
1.79505e-07
-6.14494e-08
-1.36752e-07
-1.6826e-08
1.08378e-07
2.68049e-07
1.21495e-07
2.39869e-08
-1.65338e-07
-1.74838e-07
-2.33232e-07
-1.59084e-07
-1.87182e-07
-1.20971e-07
-1.72117e-07
-9.67785e-08
-1.40167e-07
-4.24219e-08
-2.02903e-07
-2.27206e-07
-2.44973e-07
4.06374e-07
8.49851e-08
-1.39591e-06
6.387e-08
4.16336e-06
-2.27755e-06
-7.99422e-06
-7.96007e-06
8.72814e-06
5.83606e-06
1.66558e-07
-1.68526e-05
1.46323e-05
-2.60575e-05
1.93648e-05
-5.88948e-06
1.79036e-05
-4.69246e-07
-6.68198e-07
-5.16446e-07
-1.12482e-07
4.09611e-07
4.05226e-07
4.49787e-07
1.95225e-07
7.69799e-08
8.92763e-08
2.18515e-07
2.35239e-07
2.64128e-07
1.64851e-07
1.58102e-07
7.49477e-08
9.57663e-08
4.91533e-08
8.07491e-08
5.60709e-08
7.59983e-08
5.45832e-08
5.13531e-08
8.68929e-09
-5.35721e-10
-7.81091e-08
-1.96558e-07
-3.67158e-07
5.27193e-07
5.1445e-07
-5.74875e-08
-1.8382e-06
5.14564e-07
2.24574e-06
-6.61765e-07
-5.21691e-08
-7.44027e-07
1.37083e-06
1.72732e-06
9.27574e-08
-2.34152e-08
-8.50083e-08
-1.07962e-07
-3.93577e-08
1.70527e-07
1.82757e-07
1.86304e-07
-3.45477e-08
-1.21525e-07
-2.21292e-07
-1.70135e-07
-1.92354e-07
-1.12094e-07
-1.52948e-07
-7.91566e-08
-1.23196e-07
-1.96951e-08
-9.42442e-08
-7.92908e-08
-1.95788e-07
8.73844e-08
3.01327e-07
7.12356e-08
-6.31387e-07
1.92392e-07
1.28426e-06
1.05125e-06
5.3851e-07
5.7257e-07
3.99925e-06
2.49428e-06
2.95866e-06
-8.62843e-07
1.046e-05
-6.81869e-06
2.84455e-05
-2.25408e-06
2.34544e-05
-2.73716e-07
-4.66328e-07
-3.82678e-07
-9.45509e-08
2.18874e-07
5.66515e-07
3.21847e-07
1.35299e-07
7.64243e-08
1.00978e-07
2.1863e-07
2.2922e-07
2.32628e-07
1.55303e-07
1.34532e-07
6.92404e-08
8.44276e-08
3.93857e-08
8.05382e-08
3.93578e-08
8.1582e-08
3.26882e-08
5.46922e-08
-1.03262e-08
9.17593e-10
-9.15522e-08
-1.64433e-07
-2.87589e-07
-1.26371e-07
-3.413e-07
-4.92918e-07
-1.04375e-06
-7.38868e-07
-2.82901e-07
-7.53923e-07
-1.66395e-06
-2.30868e-06
-2.15017e-07
-4.51636e-06
-1.09491e-08
-8.80831e-09
-1.14954e-07
-1.31486e-07
1.54927e-08
1.18673e-07
2.46163e-07
1.1971e-07
-2.84327e-08
-1.49338e-07
-1.9533e-07
-1.89926e-07
-1.58357e-07
-1.38406e-07
-1.26447e-07
-1.22159e-07
-1.20834e-07
-1.01598e-07
-1.30793e-07
-1.88213e-07
-3.17056e-07
-1.86595e-07
5.16444e-08
-1.22866e-07
-1.38657e-06
-5.37238e-07
1.61578e-06
-1.31952e-06
-5.7683e-06
-6.17168e-06
6.41177e-06
4.79968e-06
1.7731e-07
-1.61791e-05
1.21265e-05
-2.52401e-05
2.21648e-05
-7.95008e-06
1.04966e-05
-2.31475e-07
-3.611e-07
-3.09621e-07
-3.87286e-08
3.08236e-07
2.81542e-07
3.24885e-07
1.63677e-07
7.18661e-08
1.42012e-07
1.73892e-07
2.54388e-07
1.73116e-07
1.8523e-07
8.21905e-08
1.10109e-07
3.86598e-08
8.58191e-08
4.17572e-08
8.9411e-08
5.97517e-08
9.48609e-08
6.71006e-08
8.37157e-08
6.16162e-08
5.69873e-08
-4.86966e-08
-9.98786e-08
3.38356e-07
3.53532e-07
1.02239e-09
-1.40973e-06
4.06841e-07
2.28424e-06
-1.35851e-07
-3.1101e-07
-7.40023e-07
1.46605e-06
1.39401e-06
-3.65831e-08
-8.96678e-08
-1.22343e-07
-9.72498e-08
-1.9586e-08
1.7249e-07
1.95936e-07
1.02271e-07
-2.14027e-08
-1.76639e-07
-1.67779e-07
-1.99577e-07
-1.19404e-07
-1.45162e-07
-7.50061e-08
-1.22228e-07
-4.17456e-08
-8.65295e-08
-2.56479e-08
-1.53179e-07
-7.87676e-08
1.04932e-08
2.83945e-07
-7.34187e-08
-3.74511e-07
1.51159e-07
1.14726e-06
1.08117e-06
5.78189e-07
7.64678e-07
3.06205e-06
2.02841e-06
2.49028e-06
1.61822e-07
8.39435e-06
-5.36885e-06
2.46058e-05
-4.09094e-06
1.29532e-05
-1.66528e-07
-2.73806e-07
-2.12364e-07
-5.54833e-08
1.67279e-07
4.13396e-07
2.26316e-07
1.37099e-07
8.11593e-08
1.42332e-07
1.76344e-07
2.02446e-07
1.64974e-07
1.36687e-07
9.10505e-08
8.01079e-08
5.14329e-08
6.95375e-08
4.73658e-08
8.08212e-08
5.14074e-08
8.33565e-08
3.54209e-08
5.49991e-08
-6.96104e-10
-4.59145e-09
-1.21778e-07
-1.56766e-07
-1.77461e-07
-2.65004e-07
-4.60516e-07
-8.40766e-07
-7.42282e-07
-4.03083e-07
-7.23257e-07
-1.45205e-06
-2.07917e-06
-2.83398e-07
-4.12426e-06
-9.27472e-08
-9.57556e-08
-1.2445e-07
-1.13431e-07
3.48415e-08
1.369e-07
1.80309e-07
1.28174e-07
-6.70845e-08
-1.35208e-07
-2.07943e-07
-1.47201e-07
-1.61032e-07
-9.48913e-08
-1.26629e-07
-8.21123e-08
-1.17654e-07
-8.28428e-08
-1.45164e-07
-1.88583e-07
-2.78263e-07
-1.79972e-07
-5.28414e-08
-2.69915e-07
-1.05529e-06
-6.90318e-07
6.47363e-07
-6.72742e-07
-3.80896e-06
-4.3329e-06
3.90268e-06
3.06633e-06
-7.60811e-07
-1.33305e-05
8.41243e-06
-2.36797e-05
2.31345e-05
-9.67916e-06
5.38955e-06
-1.39048e-07
-1.97204e-07
-1.96558e-07
-3.97593e-09
2.20439e-07
1.85722e-07
2.55484e-07
1.47998e-07
1.2754e-07
1.18104e-07
1.93879e-07
1.45827e-07
1.74238e-07
8.68852e-08
1.1376e-07
3.94579e-08
8.47945e-08
3.34639e-08
8.58414e-08
5.23645e-08
9.83346e-08
7.59694e-08
1.0753e-07
9.35695e-08
1.1992e-07
1.01721e-07
6.80499e-08
1.41509e-08
2.30053e-07
2.68409e-07
5.89145e-08
-8.42865e-07
4.38619e-07
2.04676e-06
4.98404e-07
-5.79124e-07
-8.15454e-07
1.709e-06
6.2899e-07
-8.85983e-08
-9.71995e-08
-1.30809e-07
-8.39554e-08
3.39261e-09
1.46926e-07
1.88776e-07
8.22721e-08
-5.62875e-08
-1.35692e-07
-1.8004e-07
-1.37595e-07
-1.34489e-07
-8.3219e-08
-1.00631e-07
-5.47834e-08
-7.93204e-08
-2.5861e-08
-8.40551e-08
-6.92144e-08
-1.01434e-07
9.13008e-08
1.54202e-07
-4.87572e-09
-2.52189e-07
2.74448e-07
9.6356e-07
1.04074e-06
5.27463e-07
8.50491e-07
2.21317e-06
1.72424e-06
2.07476e-06
1.17842e-06
6.36113e-06
-3.82735e-06
2.04776e-05
-5.32559e-06
6.25831e-06
-9.68262e-08
-1.67839e-07
-1.20912e-07
-3.89024e-08
1.14195e-07
2.95997e-07
2.00593e-07
1.29435e-07
1.2691e-07
1.20127e-07
1.46909e-07
1.30059e-07
1.16866e-07
8.8931e-08
7.28102e-08
5.67275e-08
5.95323e-08
5.0574e-08
7.27144e-08
5.78093e-08
8.77933e-08
5.78252e-08
7.9833e-08
3.42253e-08
5.00441e-08
-1.35818e-08
-4.61798e-08
-1.40852e-07
-1.38475e-07
-2.44672e-07
-3.62163e-07
-6.94136e-07
-6.7892e-07
-5.18403e-07
-6.60568e-07
-1.29849e-06
-1.80746e-06
-3.03196e-07
-3.74975e-06
-9.54467e-08
-1.26976e-07
-1.17406e-07
-8.67158e-08
3.91644e-08
1.17402e-07
1.68396e-07
8.40654e-08
-2.82751e-08
-1.58553e-07
-1.26788e-07
-1.61756e-07
-8.47497e-08
-1.16904e-07
-5.48733e-08
-1.00185e-07
-4.81392e-08
-1.02545e-07
-8.17403e-08
-1.86072e-07
-1.66595e-07
-1.54663e-07
-3.16256e-08
-2.76819e-07
-6.54558e-07
-5.264e-07
3.51662e-07
-2.811e-07
-2.27271e-06
-2.79887e-06
1.84598e-06
1.07571e-06
-9.92988e-07
-1.08452e-05
4.95926e-06
-2.38152e-05
2.35746e-05
-1.04882e-05
2.31315e-06
-8.02652e-08
-1.05775e-07
-1.27373e-07
1.03275e-08
1.46322e-07
1.44792e-07
2.15845e-07
1.77205e-07
1.1837e-07
1.46464e-07
1.01805e-07
1.34304e-07
6.72933e-08
9.97631e-08
3.33741e-08
7.68536e-08
2.38645e-08
7.5951e-08
3.76529e-08
8.77168e-08
6.02501e-08
9.97225e-08
8.17663e-08
1.14282e-07
1.07704e-07
1.27829e-07
8.76665e-08
7.23689e-08
1.54324e-07
2.31793e-07
1.15676e-07
-3.15266e-07
3.7071e-07
1.83095e-06
7.21743e-07
-5.41991e-07
-8.53101e-07
1.88966e-06
-1.98176e-09
-8.95551e-08
-8.85907e-08
-1.20798e-07
-7.14015e-08
-2.49545e-09
1.41089e-07
1.55166e-07
4.97811e-08
-4.26909e-08
-1.15056e-07
-1.20837e-07
-1.15785e-07
-8.34391e-08
-7.81822e-08
-5.01859e-08
-5.87546e-08
-2.64801e-08
-4.47475e-08
-2.6855e-08
-7.45338e-08
-3.36823e-09
6.79908e-08
1.69015e-07
-6.89672e-09
-5.05577e-08
2.78077e-07
8.51442e-07
8.48182e-07
5.46671e-07
7.45141e-07
1.57891e-06
1.48415e-06
1.77601e-06
1.71463e-06
4.39127e-06
-2.22937e-06
1.67331e-05
-5.82253e-06
2.29136e-06
-5.38741e-08
-1.01785e-07
-6.11215e-08
-3.46382e-08
8.10869e-08
2.50382e-07
1.71571e-07
1.5086e-07
1.11843e-07
1.05394e-07
8.41248e-08
7.86731e-08
6.41451e-08
5.12993e-08
4.79636e-08
3.9234e-08
4.56444e-08
5.36157e-08
5.43972e-08
7.50638e-08
6.18616e-08
8.35602e-08
5.02986e-08
6.43532e-08
1.99689e-08
2.13843e-08
-5.98867e-08
-8.64284e-08
-1.48067e-07
-1.76164e-07
-3.08672e-07
-5.40104e-07
-6.20273e-07
-5.34529e-07
-6.18389e-07
-1.12863e-06
-1.55989e-06
-3.07768e-07
-3.34893e-06
-8.49952e-08
-1.37526e-07
-1.01373e-07
-7.60413e-08
4.26828e-08
1.02855e-07
1.07673e-07
1.07412e-07
-5.56956e-08
-6.86101e-08
-1.24548e-07
-7.00932e-08
-9.61418e-08
-3.55704e-08
-7.03253e-08
-1.83816e-08
-5.94554e-08
-1.90214e-08
-8.33514e-08
-6.62277e-08
-1.20349e-07
-2.35022e-08
-3.73287e-08
-1.19133e-07
-3.71064e-07
-2.17316e-07
2.27208e-07
2.81256e-08
-1.23187e-06
-1.70611e-06
4.41378e-07
2.65613e-07
-1.45889e-06
-7.22604e-06
1.1779e-06
-1.97759e-05
2.18183e-05
-1.08906e-05
4.76065e-07
-4.03856e-08
-4.56449e-08
-8.53615e-08
1.04262e-08
1.20205e-07
9.8858e-08
2.11622e-07
1.55188e-07
1.42608e-07
7.86197e-08
9.52068e-08
3.84017e-08
7.03586e-08
1.74628e-08
5.56416e-08
1.1489e-08
5.83829e-08
2.21796e-08
7.15387e-08
3.84961e-08
8.07838e-08
5.42024e-08
8.82125e-08
7.32696e-08
1.05446e-07
8.77308e-08
9.40218e-08
5.41935e-08
1.27415e-07
1.60894e-07
1.88985e-07
-1.06827e-07
3.85076e-07
1.28606e-06
8.26837e-07
-4.41713e-07
-7.47467e-07
2.03044e-06
-8.84772e-07
-8.72423e-08
-6.80587e-08
-1.1208e-07
-6.08543e-08
4.45298e-10
1.07451e-07
1.49902e-07
3.20804e-08
-4.71826e-09
-5.83904e-08
-7.6211e-08
-6.44016e-08
-5.41947e-08
-3.39455e-08
-3.05816e-08
-1.1382e-08
-1.39671e-08
4.25725e-09
-1.4492e-08
1.06761e-09
2.57781e-08
1.22312e-07
1.3726e-07
7.91936e-08
3.27042e-08
3.20458e-07
6.67018e-07
7.18419e-07
4.81875e-07
6.09013e-07
1.14593e-06
1.29717e-06
1.55749e-06
1.87427e-06
2.76838e-06
-3.98056e-07
1.31637e-05
-5.84237e-06
-4.44666e-08
-2.38907e-08
-6.0499e-08
-3.18048e-08
-2.5192e-08
5.57287e-08
2.15635e-07
1.57392e-07
1.32738e-07
9.32401e-08
6.27736e-08
4.26227e-08
3.67196e-08
2.39648e-08
2.83197e-08
1.05225e-08
2.94472e-08
3.10474e-08
4.2392e-08
4.77598e-08
5.25938e-08
6.67204e-08
5.32967e-08
6.18922e-08
3.15571e-08
3.15077e-08
-7.68029e-09
-3.78668e-08
-9.00132e-08
-1.1826e-07
-1.50768e-07
-2.4752e-07
-4.40179e-07
-5.40762e-07
-5.12739e-07
-5.30441e-07
-9.91889e-07
-1.30442e-06
-2.82702e-07
-2.96088e-06
-6.34831e-08
-1.3059e-07
-8.49374e-08
-5.84991e-08
3.72505e-08
8.01638e-08
1.03283e-07
9.51763e-08
1.99848e-08
-5.55874e-08
-3.58736e-08
-6.73048e-08
-1.66346e-08
-4.12877e-08
7.24569e-09
-2.22662e-08
2.13068e-08
-1.65003e-08
1.27824e-08
-3.2795e-08
1.41933e-08
1.27342e-08
6.83133e-08
-4.01677e-08
-8.88407e-08
-4.22871e-08
2.72867e-07
1.38469e-07
-5.30287e-07
-1.02992e-06
-3.31186e-08
-1.04033e-07
-1.04086e-06
-4.19832e-06
-9.38128e-07
-1.47149e-05
1.82478e-05
-1.08565e-05
-1.05311e-06
-1.49297e-08
-1.39715e-08
-5.96054e-08
1.87566e-08
9.49487e-08
8.16439e-08
1.74328e-07
1.56856e-07
8.74567e-08
7.51427e-08
2.48604e-08
4.25539e-08
2.38692e-09
2.29884e-08
-5.68256e-09
4.17574e-08
1.68074e-09
5.12896e-08
1.96522e-08
5.94103e-08
3.06373e-08
6.16052e-08
3.62843e-08
6.74613e-08
4.7534e-08
7.40487e-08
3.70684e-08
5.67524e-08
5.1378e-08
1.40692e-07
1.22845e-07
1.62117e-08
2.07542e-07
8.12585e-07
7.1688e-07
-3.09811e-07
-6.21776e-07
2.0601e-06
-1.41462e-06
-6.75311e-08
-5.03947e-08
-9.33527e-08
-5.18152e-08
-1.0676e-08
1.01132e-07
1.24884e-07
5.31023e-08
2.5739e-08
-1.36464e-08
-3.27174e-08
-2.54961e-08
-1.92028e-08
-2.33987e-09
4.79545e-09
1.76992e-08
2.40124e-08
3.1542e-08
3.2951e-08
4.25275e-08
8.36915e-08
1.37737e-07
1.58408e-07
1.15792e-07
1.15805e-07
3.01118e-07
5.36335e-07
5.68387e-07
4.17009e-07
4.88965e-07
8.53133e-07
1.13183e-06
1.38995e-06
1.70007e-06
1.48273e-06
1.03813e-06
9.9952e-06
-5.38421e-06
-1.30375e-06
-7.62855e-09
-3.64815e-08
-5.51967e-09
-2.27927e-08
4.7133e-08
1.86722e-07
1.3666e-07
9.67554e-08
6.50077e-08
2.60713e-08
2.21887e-08
2.69017e-09
6.5097e-09
-1.7113e-08
1.75105e-08
-2.38299e-08
6.9635e-08
6.84855e-09
3.5978e-08
3.69354e-08
4.42295e-08
4.51708e-08
3.78123e-08
2.34078e-08
7.84352e-09
-1.51253e-08
-4.63684e-08
-8.09405e-08
-1.08139e-07
-1.25999e-07
-2.1293e-07
-3.59531e-07
-4.73442e-07
-4.39321e-07
-4.34572e-07
-8.68984e-07
-1.07216e-06
-2.50954e-07
-2.57317e-06
-4.75143e-08
-1.18661e-07
-6.64844e-08
-5.31633e-08
3.55169e-08
6.58684e-08
8.37367e-08
1.19117e-07
2.25555e-08
9.44679e-09
-2.96707e-08
-5.03505e-09
-1.7533e-08
1.86308e-08
6.45961e-09
4.00852e-08
2.42838e-08
5.2103e-08
2.8452e-08
5.96795e-08
4.9579e-08
1.05451e-07
8.68693e-08
8.20404e-08
3.23578e-08
1.25026e-07
2.49681e-07
2.36323e-07
-1.83603e-07
-5.05997e-07
-1.46221e-07
-4.86713e-08
-4.37757e-07
-2.22027e-06
-1.68187e-06
-8.99859e-06
1.49098e-05
-1.00479e-05
-2.41227e-06
1.2287e-09
8.71052e-09
-4.41177e-08
2.12417e-08
8.18926e-08
5.55219e-08
1.55741e-07
1.09838e-07
7.13402e-08
3.33495e-08
2.48752e-08
-1.39864e-09
-5.71811e-09
-9.9934e-09
-4.0905e-08
1.02573e-07
1.91412e-08
1.62294e-08
1.08761e-08
9.72051e-09
3.75704e-08
1.63641e-08
3.14421e-08
1.49797e-08
3.21534e-08
1.3184e-08
2.22733e-08
1.4439e-09
3.11394e-08
6.17887e-08
8.41835e-08
-1.03272e-08
6.9186e-08
4.51174e-07
5.30645e-07
-2.22651e-07
-4.57361e-07
1.73915e-06
-1.7436e-06
-5.63913e-08
-2.9002e-08
-8.1134e-08
-4.36715e-08
-1.20533e-08
8.14619e-08
1.21475e-07
5.417e-08
5.58777e-08
1.15699e-08
5.70321e-10
-8.57813e-09
1.13058e-08
1.34719e-08
3.55661e-08
3.59379e-08
5.50786e-08
5.27632e-08
6.97012e-08
7.35412e-08
1.18922e-07
1.48434e-07
1.69722e-07
1.40871e-07
1.57925e-07
2.7115e-07
4.22114e-07
4.42389e-07
3.49433e-07
3.87015e-07
6.47421e-07
9.53755e-07
1.17885e-06
1.25003e-06
7.20244e-07
2.08017e-06
7.4867e-06
-4.64829e-06
-1.86204e-06
4.4509e-09
-2.13557e-08
5.32232e-09
-1.88462e-08
3.49733e-08
1.66984e-07
9.96084e-08
6.97586e-08
3.30853e-08
1.48867e-08
-2.74167e-09
-7.29258e-09
-2.51989e-08
-6.03988e-08
1.07407e-07
3.79586e-08
5.35519e-08
-2.12538e-08
1.57437e-09
4.45428e-09
1.12242e-08
3.00246e-08
1.7379e-08
7.75732e-09
-1.19763e-08
-2.76672e-08
-5.32228e-08
-7.8217e-08
-9.68554e-08
-1.11792e-07
-1.82671e-07
-2.99984e-07
-3.94812e-07
-3.45211e-07
-3.43153e-07
-7.51528e-07
-8.6112e-07
-2.59862e-07
-2.21081e-06
-2.71271e-08
-1.00244e-07
-5.11257e-08
-4.10832e-08
2.96177e-08
4.94069e-08
8.31301e-08
1.10278e-07
5.71677e-08
1.50353e-08
5.06878e-09
-3.96158e-09
1.37035e-08
1.99315e-08
3.94778e-08
4.36932e-08
5.97387e-08
6.00169e-08
7.29083e-08
7.77569e-08
1.05496e-07
1.17734e-07
1.31769e-07
1.13611e-07
1.26273e-07
1.69195e-07
2.57226e-07
2.31761e-07
1.6762e-08
-2.08547e-07
-8.63956e-08
8.29443e-08
-8.48619e-08
-1.01722e-06
-1.81297e-06
-3.55529e-06
1.13791e-05
-9.04836e-06
-3.29415e-06
1.09947e-08
1.84412e-08
-3.43628e-08
2.62678e-08
6.82704e-08
3.8393e-08
1.20826e-07
7.97541e-08
4.60257e-08
2.20197e-08
5.68181e-09
-1.5867e-08
-5.6234e-08
9.07431e-08
2.61197e-08
1.26351e-07
4.03443e-10
2.7859e-08
-4.31284e-08
-9.41232e-09
-1.0873e-08
2.77129e-09
-2.58489e-09
-1.23363e-09
-9.76667e-09
-9.36526e-09
-1.94068e-08
-1.74494e-08
-1.05004e-08
2.41268e-08
2.14137e-08
-3.40248e-08
-2.44657e-08
2.36278e-07
4.11959e-07
-2.08833e-07
-4.09514e-07
1.34483e-06
-1.81439e-06
-3.54727e-08
-1.43261e-08
-6.22778e-08
-3.66951e-08
-2.04457e-08
7.41526e-08
1.01499e-07
6.04444e-08
6.13558e-08
2.91081e-08
6.65792e-09
9.54302e-09
1.35074e-08
3.20279e-08
3.89577e-08
5.50697e-08
5.96853e-08
7.27515e-08
7.764e-08
9.74667e-08
1.20425e-07
1.54075e-07
1.58577e-07
1.53322e-07
1.61297e-07
2.37042e-07
3.2125e-07
3.37039e-07
2.75747e-07
2.9352e-07
4.86398e-07
7.44242e-07
9.11823e-07
7.40115e-07
3.88199e-07
2.60141e-06
5.40444e-06
-3.82784e-06
-1.91787e-06
1.04527e-08
-1.2626e-08
1.70129e-08
-1.84903e-08
2.96541e-08
1.38803e-07
6.90075e-08
4.59554e-08
1.56384e-08
1.8757e-09
-1.23966e-08
-3.91746e-08
3.27387e-08
1.17281e-08
1.44558e-07
5.45711e-08
4.39984e-08
-3.62401e-08
-2.69818e-08
-4.10583e-08
-4.39933e-08
-1.21371e-08
-3.01857e-09
-1.30209e-08
-2.44294e-08
-4.07115e-08
-5.52739e-08
-7.54664e-08
-8.31697e-08
-9.92859e-08
-1.53504e-07
-2.45605e-07
-3.10509e-07
-2.4255e-07
-2.63143e-07
-6.46466e-07
-6.83132e-07
-2.83532e-07
-1.87619e-06
-1.37966e-08
-8.29322e-08
-3.58267e-08
-3.78561e-08
2.68444e-08
3.75846e-08
6.66076e-08
1.11279e-07
5.34272e-08
2.95671e-08
7.8041e-09
5.91242e-09
1.59362e-08
2.85707e-08
4.14324e-08
5.23053e-08
6.18373e-08
6.99682e-08
7.83693e-08
9.14772e-08
1.10637e-07
1.25658e-07
1.29223e-07
1.30079e-07
1.44663e-07
1.81493e-07
2.22701e-07
2.08216e-07
8.43713e-08
-5.58577e-08
-1.29934e-08
1.25219e-07
7.52094e-08
-5.81985e-07
-1.33458e-06
-3.57623e-07
8.45484e-06
-7.38471e-06
-3.74182e-06
1.71609e-08
2.61557e-08
-2.78272e-08
2.45394e-08
5.56701e-08
1.80835e-08
8.89021e-08
5.82481e-08
2.7819e-08
1.20629e-08
-8.70385e-09
-1.45544e-08
-1.09591e-09
1.10625e-07
8.93239e-08
4.51645e-08
9.71291e-09
-1.30563e-08
-3.5582e-08
-1.02098e-07
-7.0346e-08
-3.23543e-08
-2.32275e-08
-2.53649e-08
-2.79696e-08
-3.31269e-08
-3.64635e-08
-3.73452e-08
-2.66638e-08
-7.96805e-09
-1.22058e-08
-5.22771e-08
-5.25006e-08
1.50226e-07
3.05246e-07
-2.30397e-07
-3.71091e-07
8.1174e-07
-1.57995e-06
-2.50924e-08
1.27792e-09
-5.127e-08
-2.97915e-08
-2.21326e-08
5.83118e-08
9.0887e-08
5.3763e-08
6.3917e-08
3.44517e-08
1.26345e-08
1.0925e-08
1.88968e-08
3.03736e-08
4.20771e-08
5.17054e-08
6.10035e-08
6.87441e-08
7.89233e-08
9.26471e-08
1.1322e-07
1.34871e-07
1.41822e-07
1.38728e-07
1.48646e-07
1.89138e-07
2.36783e-07
2.4163e-07
1.97719e-07
2.08339e-07
3.43297e-07
5.37654e-07
6.08679e-07
3.12988e-07
2.88066e-07
2.60152e-06
3.81294e-06
-2.98428e-06
-1.69945e-06
1.54133e-08
-6.74903e-09
1.82581e-08
-1.74558e-08
2.06533e-08
1.05755e-07
5.06443e-08
2.39648e-08
1.01508e-08
-1.12883e-08
-1.95257e-08
-3.43388e-08
3.8598e-08
7.15264e-08
7.52975e-08
3.15553e-08
7.42553e-09
-8.03123e-09
-1.05042e-07
-1.17698e-07
-5.29581e-08
-4.12316e-08
-2.84011e-08
-2.55685e-08
-3.33788e-08
-4.29402e-08
-5.44376e-08
-6.5383e-08
-6.90811e-08
-8.29976e-08
-1.23452e-07
-1.92802e-07
-2.21638e-07
-1.53636e-07
-2.12004e-07
-5.44393e-07
-5.38652e-07
-3.31313e-07
-1.53671e-06
9.83761e-10
-6.43023e-08
-2.44834e-08
-2.92155e-08
2.17553e-08
2.25434e-08
5.93987e-08
9.61336e-08
5.90703e-08
2.98563e-08
1.28427e-08
8.43475e-09
1.5961e-08
2.67792e-08
3.73911e-08