/*--------------------------------*- C++ -*----------------------------------*\
| =========                 |                                                 |
| \\      /  F ield         | OpenFOAM: The Open Source CFD Toolbox           |
|  \\    /   O peration     | Version:  2206                                  |
|   \\  /    A nd           | Website:  www.openfoam.com                      |
|    \\/     M anipulation  |                                                 |
\*---------------------------------------------------------------------------*/
FoamFile
{
    version     2.0;
    format      ascii;
    arch        "LSB;label=32;scalar=64";
    class       volVectorField;
    location    "250";
    object      momentError;
}
// * * * * * * * * * * * * * * * * * * * * * * * * * * * * * * * * * * * * * //

dimensions      [0 1 -2 0 0 0 0];

internalField   nonuniform List<vector> 
10720
(
(0.00730826 -0.0483373 -4.17186e-15)
(0.00442308 -0.0484241 -2.46814e-15)
(-0.000652982 -0.0331526 -2.15936e-14)
(-0.00295607 -0.0317468 9.99858e-14)
(-0.00467338 -0.0292323 7.47854e-14)
(-0.0059694 -0.0265525 -1.85254e-13)
(-0.00712107 -0.0234521 -1.39634e-13)
(-0.00740964 -0.0194392 -1.07655e-13)
(-0.00710056 -0.0156966 2.15605e-14)
(-0.00643239 -0.0121076 5.47753e-15)
(-0.00552343 -0.00971938 -1.5595e-14)
(-0.00312225 -0.00555344 6.74007e-14)
(-0.00118037 -0.00296256 -2.19432e-13)
(0.000777449 -0.000647462 -4.0136e-13)
(0.00333362 0.00167519 7.43513e-14)
(0.00638384 0.00407106 -1.06119e-13)
(0.01035 0.00650437 1.1558e-13)
(0.0156215 0.00896107 8.86859e-13)
(0.0225598 0.0114866 2.34783e-13)
(0.0308451 0.0133828 -4.66853e-13)
(0.0380265 0.0144963 -2.31313e-13)
(0.0424587 0.0124431 9.58719e-14)
(0.0285335 0.00772665 3.38393e-13)
(8.73191e-05 0.0030406 -2.47499e-13)
(-0.0129926 -0.00277204 4.59676e-14)
(0.0016713 -0.00449827 -4.01834e-14)
(0.0184796 -0.00224739 -6.949e-14)
(0.020839 2.16972e-05 1.31268e-14)
(0.0155505 0.000791248 1.01051e-14)
(0.0112072 0.000455191 2.1004e-13)
(0.00775885 -0.000191485 1.55167e-13)
(0.00741988 -0.00064724 -1.77422e-13)
(0.00924435 -0.00106916 -1.33484e-13)
(0.00916677 -0.00124372 -2.39599e-13)
(0.00818354 -0.00117024 -1.59985e-13)
(0.00703658 2.5861e-05 1.54817e-13)
(0.00839631 0.0103228 -1.08664e-14)
(0.0591223 0.0723015 -6.25033e-16)
(1.10716 -0.122353 -6.38367e-14)
(0.00899037 -0.0439601 8.09793e-15)
(0.0105042 -0.0356227 -1.99951e-14)
(0.010996 -0.0262222 2.29065e-14)
(0.00942731 -0.0175735 1.04257e-13)
(0.00779753 -0.0118547 3.60442e-14)
(0.00597587 -0.00696605 -2.84843e-13)
(0.00244756 -0.00214463 -1.55922e-13)
(3.46863e-05 0.000224648 1.61133e-13)
(0.00065107 -0.000953169 -6.37171e-14)
(0.00255641 -0.00260634 5.91418e-14)
(0.00279597 -0.00200272 -8.07784e-14)
(0.00227598 -0.00137551 -1.38053e-13)
(0.0022578 -0.00124692 3.60541e-14)
(0.00226542 -0.00105777 7.1136e-14)
(0.00198565 -0.000800205 -1.17423e-13)
(0.00169903 -0.000642774 -1.01482e-13)
(0.0015381 -0.000553754 -7.24199e-14)
(0.00142295 -0.000484466 -8.86145e-14)
(0.00131877 -0.000423307 -3.26499e-14)
(0.00123011 -0.000371719 -2.83711e-15)
(0.0011576 -0.000323225 3.10692e-14)
(0.00109036 -0.00027964 6.27139e-14)
(0.00102861 -0.000236774 -2.99387e-14)
(0.000968865 -0.000201363 -2.13003e-14)
(0.000902652 -0.000156399 2.58452e-14)
(0.000824216 -0.000147374 -4.02257e-15)
(0.000765568 -0.000128309 -9.95534e-16)
(0.000737764 -1.62439e-05 -2.05909e-15)
(0.000704901 6.51647e-05 4.74135e-16)
(0.000661803 6.43101e-05 1.06768e-16)
(0.000603597 5.23048e-05 4.8925e-16)
(0.000560002 4.90846e-05 -1.32476e-15)
(0.000528469 5.178e-05 -2.52422e-15)
(0.000464913 5.26293e-05 -3.96552e-15)
(0.000391954 5.11723e-05 -5.26361e-15)
(0.000421394 6.15417e-05 -2.42499e-15)
(0.000283149 2.67137e-05 1.28541e-14)
(0.000236423 -0.000198487 -3.3992e-15)
(0.00107092 -0.00148502 -5.84665e-14)
(-0.0038124 -0.0331211 -3.876e-15)
(-0.00677296 -0.0322742 2.19967e-15)
(-0.00836295 -0.0226046 -1.25581e-17)
(-0.0110737 -0.0220029 -7.565e-15)
(-0.0128314 -0.0208945 1.00053e-14)
(-0.014068 -0.0194228 6.7244e-14)
(-0.01548 -0.0173267 8.03182e-14)
(-0.0160653 -0.0147619 2.64711e-14)
(-0.015883 -0.0121535 -8.61915e-14)
(-0.0154742 -0.00985929 -4.19179e-14)
(-0.0144016 -0.00751534 -2.5644e-13)
(-0.014153 -0.00852466 -4.72332e-13)
(-0.0137721 -0.00870324 -2.36445e-14)
(-0.0137301 -0.00839862 -2.07124e-14)
(-0.012522 -0.00908933 -8.28082e-14)
(-0.0115299 -0.0099676 8.65398e-14)
(-0.0101788 -0.0113793 3.89066e-13)
(-0.00796818 -0.0130508 -6.87582e-13)
(-0.00314766 -0.0150873 -5.72353e-13)
(0.00279172 -0.0162041 -3.5853e-13)
(0.0315426 -0.0196051 2.15455e-13)
(0.0353788 -0.0105511 2.96194e-13)
(0.000228002 -0.0247039 -3.85704e-13)
(0.0662328 0.00121581 5.93989e-14)
(0.120536 0.00633143 -2.10452e-15)
(0.133677 0.0107489 -1.16111e-14)
(0.0952954 0.0105313 -4.08516e-15)
(0.0339355 0.00503037 1.23265e-14)
(0.0130916 0.00215938 -2.75223e-14)
(0.0121994 0.00057908 -1.03165e-14)
(0.00938924 -0.00150243 9.31557e-15)
(0.0109618 -0.00267173 -5.51941e-15)
(0.0125609 -0.0027475 -1.14772e-13)
(0.0132578 -0.00257294 -7.18728e-14)
(0.0130844 -0.00239889 1.60385e-13)
(0.0123104 -0.00202616 2.85304e-14)
(0.0122952 -0.000347651 6.37547e-14)
(-0.019916 0.0117377 -1.18089e-14)
(-0.888022 0.107109 -3.28083e-14)
(-0.00169692 -0.0311138 -1.63874e-14)
(0.00106808 -0.0260175 1.50146e-13)
(0.00325978 -0.0201158 -4.71341e-14)
(0.00404392 -0.015252 -1.15813e-13)
(0.00429811 -0.0109825 8.28724e-14)
(0.00407899 -0.00698979 6.68787e-14)
(0.00268699 -0.00348188 2.94327e-14)
(0.00156897 -0.00183994 1.54049e-13)
(0.00183934 -0.00214893 -3.26672e-15)
(0.00278576 -0.00248961 -4.39214e-14)
(0.00309434 -0.00182252 7.30037e-14)
(0.00289029 -0.00143836 -9.49551e-14)
(0.00282461 -0.00125651 1.99464e-14)
(0.00276604 -0.000936533 1.04118e-14)
(0.00251716 -0.00064902 2.4698e-14)
(0.00222927 -0.00051617 2.77078e-14)
(0.00203037 -0.000442672 4.69773e-14)
(0.00188084 -0.000382059 -1.40577e-14)
(0.00174982 -0.000328467 3.03594e-15)
(0.00163667 -0.000282584 -7.02228e-15)
(0.00154207 -0.000233579 1.82799e-14)
(0.00145537 -0.00018641 5.30346e-14)
(0.00137399 -0.000139538 -8.84008e-16)
(0.00129225 -9.07707e-05 -1.76651e-14)
(0.0012053 -3.51506e-05 -1.49817e-14)
(0.00111163 1.39429e-05 2.14388e-14)
(0.0010155 4.60058e-05 6.16684e-15)
(0.000935502 5.9249e-05 -1.61125e-15)
(0.000870881 4.72591e-05 4.65837e-17)
(0.000796941 3.47587e-05 -1.06535e-16)
(0.000739258 3.41051e-05 -1.99937e-16)
(0.000691293 4.78715e-05 -4.16641e-16)
(0.00065408 5.75568e-05 2.15985e-15)
(0.000623644 5.98133e-05 2.35427e-15)
(0.000565624 5.45414e-05 2.73986e-15)
(0.000462431 5.67229e-05 -7.42103e-15)
(0.000474588 6.38964e-05 7.79529e-16)
(0.000568934 3.77913e-05 1.34382e-14)
(0.00138604 0.000323868 1.58229e-14)
(0.00117327 -0.0263236 2.10358e-15)
(-0.000110106 -0.0253599 -1.45234e-15)
(-0.00146916 -0.0185878 -2.63898e-15)
(-0.00282223 -0.0188745 1.38475e-15)
(-0.00377946 -0.018368 5.77944e-14)
(-0.00473676 -0.0171954 -6.43138e-14)
(-0.00575828 -0.0157835 -8.82501e-14)
(-0.00636514 -0.0139388 1.60725e-13)
(-0.00654049 -0.0118773 6.56499e-14)
(-0.00644304 -0.00998035 8.88704e-14)
(-0.00605119 -0.00834938 2.05041e-14)
(-0.00545209 -0.00674999 -7.80158e-16)
(-0.00486429 -0.0052389 3.55773e-13)
(-0.00406532 -0.00422805 1.20255e-14)
(-0.00411149 -0.00318249 2.16496e-13)
(-0.00484697 -0.00229556 1.20967e-15)
(-0.00585995 -0.00204124 -6.8404e-13)
(-0.00769715 -0.0022181 4.12048e-13)
(-0.0116176 -0.00335972 9.20171e-13)
(-0.0177069 -0.00386796 1.65847e-13)
(-0.0335331 0.000474475 -2.6723e-14)
(-0.0333339 -0.0149235 -6.78368e-14)
(0.0634016 0.0369715 1.64803e-13)
(-0.0131678 -0.00926453 1.191e-13)
(0.00818534 -0.00462598 -9.77948e-14)
(0.00509075 0.000618921 -2.1854e-14)
(-0.0294496 -0.00020882 -5.62979e-14)
(-0.0475338 -0.000907781 3.08751e-14)
(0.00532233 0.000681112 -2.82486e-14)
(0.0248976 0.000503986 -1.56428e-13)
(0.0305104 -0.00221997 -7.83489e-15)
(0.0309982 -0.00357052 2.37536e-13)
(0.0217996 -0.00375848 3.6055e-14)
(0.0164198 -0.0034905 1.12145e-13)
(0.0144516 -0.00306152 1.33649e-13)
(0.0136837 -0.0026454 2.2036e-14)
(0.0131098 -0.0018487 -8.51407e-14)
(-0.000754616 -0.00121331 8.56169e-15)
(-0.0949894 0.00611492 1.5899e-14)
(0.00237812 -0.0250334 2.43023e-14)
(0.00332938 -0.0212732 -3.70273e-14)
(0.00404792 -0.0165866 -4.64816e-14)
(0.00435716 -0.013123 -1.31114e-14)
(0.00420064 -0.00989022 1.12944e-14)
(0.00369579 -0.00678769 -1.20794e-13)
(0.00279097 -0.00393661 2.34399e-14)
(0.00229156 -0.00289435 -1.49178e-13)
(0.002671 -0.00298352 -1.24944e-13)
(0.00319898 -0.00288338 -1.15763e-13)
(0.00336031 -0.00244211 1.1828e-13)
(0.00320038 -0.00209347 1.03747e-13)
(0.00304345 -0.00178865 -6.465e-14)
(0.00289449 -0.00143589 -1.48465e-13)
(0.0026474 -0.00114358 4.05302e-14)
(0.00235867 -0.000961592 6.9827e-14)
(0.00212664 -0.000831447 -1.89704e-14)
(0.00194915 -0.000719504 -9.26628e-14)
(0.00179946 -0.000622826 -2.68447e-14)
(0.00167137 -0.000537701 2.52936e-15)
(0.00156482 -0.000455843 -2.07131e-14)
(0.00146985 -0.000379087 -4.14114e-14)
(0.00138014 -0.000306397 9.13331e-15)
(0.00128883 -0.000236574 -6.39672e-16)
(0.00119384 -0.000166587 2.88215e-15)
(0.00109402 -0.000110189 -9.70503e-15)
(0.000995218 -7.61032e-05 -1.78847e-14)
(0.00091146 -4.89834e-05 3.9819e-15)
(0.000838121 -1.63149e-05 7.55397e-16)
(0.00076071 1.51025e-05 -1.67099e-16)
(0.000691494 4.59443e-05 1.19215e-16)
(0.00064072 5.67992e-05 4.55183e-16)
(0.000606007 6.51017e-05 -7.42961e-16)
(0.000565846 7.02776e-05 -1.41038e-15)
(0.000517759 7.87962e-05 6.42583e-16)
(0.00052709 9.0575e-05 -1.16396e-15)
(0.000325997 3.93593e-05 8.77122e-15)
(0.000406201 9.33758e-05 8.131e-15)
(0.000871403 0.000267566 -8.33277e-14)
(-0.00126639 -0.0203532 1.05145e-14)
(-0.00259428 -0.0194276 2.7834e-15)
(-0.00351694 -0.0148087 1.08025e-15)
(-0.00494409 -0.0150406 -6.52263e-15)
(-0.00596001 -0.014417 1.04217e-15)
(-0.00692751 -0.0133506 -1.45336e-14)
(-0.00792573 -0.0121181 1.04257e-13)
(-0.00851148 -0.0105275 3.08939e-14)
(-0.00871677 -0.00882719 -2.52835e-13)
(-0.00865959 -0.00726856 8.51396e-14)
(-0.00830189 -0.0058823 2.72211e-13)
(-0.00774297 -0.00470922 3.41719e-13)
(-0.00699044 -0.00393612 7.88222e-14)
(-0.00615029 -0.00353832 -3.8538e-13)
(-0.00561782 -0.00311926 -9.79189e-14)
(-0.00407409 -0.00373114 -9.90583e-14)
(-0.00292033 -0.00413112 -1.79089e-13)
(-0.00176376 -0.00484902 -3.62245e-13)
(-0.000743417 -0.00617339 -6.29361e-13)
(-0.000412054 -0.0075676 1.59108e-13)
(-0.00767594 -0.016645 -1.26924e-13)
(-0.00941122 -0.011037 -1.78454e-13)
(-0.0690045 -0.038242 2.43116e-15)
(-0.0308906 -0.0123372 -2.52386e-13)
(-0.0390865 -0.00697723 -4.64267e-14)
(-0.0305409 -0.0028214 4.40064e-14)
(-0.0244643 0.00857811 5.28335e-14)
(0.0799015 -0.00311184 -2.41048e-14)
(-0.0479047 0.00115721 3.35434e-14)
(-0.059914 0.00475414 6.4934e-14)
(0.0285096 -0.00632986 -5.64862e-14)
(0.0338753 -0.00329046 1.20514e-14)
(0.036048 -0.00402872 1.77715e-13)
(0.0268866 -0.00344344 8.10342e-14)
(0.0182214 -0.0031726 -3.27695e-14)
(0.0149615 -0.00303335 -1.08806e-13)
(0.0155667 -0.00292054 -2.72474e-14)
(0.0116083 -0.0041476 -1.98352e-14)
(-0.0120369 0.00489392 5.51885e-14)
(1.13008e-05 -0.0194252 -1.73662e-15)
(0.0012341 -0.0169406 -3.89715e-14)
(0.00228642 -0.0136341 -3.45606e-14)
(0.00294553 -0.0112552 -2.8146e-14)
(0.0032354 -0.00879926 1.13918e-13)
(0.00312804 -0.00632134 2.05757e-13)
(0.00265073 -0.00409459 1.17376e-14)
(0.00251212 -0.00342574 1.4145e-13)
(0.00308452 -0.00350723 5.57995e-16)
(0.00339911 -0.0031584 -3.1094e-14)
(0.00351185 -0.00264174 -9.01322e-14)
(0.00342709 -0.00217497 -2.98068e-14)
(0.00326684 -0.00177031 -1.54023e-14)
(0.00308786 -0.00139132 7.44087e-14)
(0.00285274 -0.00106733 -3.90156e-14)
(0.00257671 -0.000831543 -1.3232e-13)
(0.0023321 -0.000665459 -1.68064e-14)
(0.00213248 -0.000538284 8.63778e-14)
(0.00196218 -0.000437975 -2.61195e-15)
(0.00181339 -0.000356754 -2.43593e-14)
(0.00168725 -0.000285855 -6.56655e-14)
(0.00157476 -0.000222405 2.6811e-14)
(0.00146796 -0.000164881 3.5233e-14)
(0.0013601 -0.000110927 -6.07291e-15)
(0.00125149 -5.64828e-05 -2.76518e-15)
(0.00114315 -1.09362e-05 6.03154e-15)
(0.00103727 1.90351e-05 8.67418e-15)
(0.000944236 4.27216e-05 -2.03468e-15)
(0.000859853 6.18691e-05 -7.49145e-16)
(0.000772983 7.07128e-05 1.83715e-16)
(0.000691029 6.60048e-05 -9.69561e-17)
(0.000632952 5.62798e-05 -1.56719e-16)
(0.000582473 8.78307e-06 7.02735e-17)
(0.000486819 -0.000173866 -2.76014e-16)
(0.000574336 0.000335089 -2.06649e-15)
(5.4905e-05 -0.0010343 1.48024e-14)
(0.000890235 0.0019669 -2.21558e-14)
(0.000407886 -0.000341399 -5.56719e-14)
(0.000666846 0.000248539 -3.04097e-14)
(-4.69507e-06 -0.0166902 -8.92279e-15)
(-0.000859021 -0.0158805 4.79324e-15)
(-0.00159707 -0.0125703 4.20827e-15)
(-0.00261357 -0.0129886 -1.74289e-14)
(-0.00333475 -0.0125983 -1.48876e-14)
(-0.00405631 -0.011819 3.5279e-14)
(-0.00482829 -0.0110084 -1.29216e-14)
(-0.00527408 -0.00987882 1.36847e-14)
(-0.00547547 -0.00864743 -9.41098e-14)
(-0.00547545 -0.0075127 -2.87414e-13)
(-0.00523479 -0.00647143 -1.03093e-14)
(-0.00483191 -0.0055744 -1.25323e-13)
(-0.00429827 -0.00485216 -8.12114e-14)
(-0.00375705 -0.00426096 -1.43828e-14)
(-0.0031651 -0.00385685 -3.30223e-13)
(-0.00279778 -0.00327958 2.99877e-13)
(-0.00265425 -0.00277256 1.72006e-13)
(-0.00254195 -0.00263599 -3.86817e-13)
(-0.00242152 -0.00279712 1.22266e-13)
(-0.00246915 -0.00330603 -2.01043e-13)
(-0.00293891 -0.00425076 -1.3956e-13)
(-0.00392084 -0.00468663 2.51289e-13)
(-0.00675398 -0.00454238 6.10949e-15)
(-0.0114432 -0.00492767 2.21583e-13)
(-0.0136987 -0.004744 1.01145e-13)
(-0.0201031 0.000603908 -2.04854e-14)
(0.00356196 0.0028151 6.24837e-15)
(-0.0631176 0.0127719 2.4733e-14)
(0.00168812 -0.00498832 -3.01466e-14)
(-0.00915714 -0.00227199 -5.40861e-14)
(-0.00944587 0.00245056 2.18804e-14)
(-0.0142322 -0.00255458 -5.28361e-14)
(0.00673812 -0.000800005 -4.00513e-14)
(0.0141029 -0.00161029 -1.49235e-13)
(0.017064 -0.00238544 -2.40073e-13)
(0.0159586 -0.00294394 4.14712e-14)
(0.0172494 -0.00339086 -1.06374e-14)
(0.0163451 -0.00517855 -9.40787e-15)
(0.00361067 0.00470551 -1.94634e-14)
(0.000810437 -0.0159482 2.00382e-14)
(0.0015132 -0.0140705 3.82048e-14)
(0.00212572 -0.011472 -5.04967e-14)
(0.00258111 -0.00967196 -1.94772e-14)
(0.0028235 -0.00774278 7.4758e-14)
(0.00277938 -0.00577936 -1.50777e-13)
(0.00261759 -0.00433942 -9.96617e-14)
(0.00273484 -0.00384033 2.05271e-13)
(0.0032147 -0.00369001 1.92422e-13)
(0.00346544 -0.00328227 -8.43599e-15)
(0.00354463 -0.00279976 -5.58831e-14)
(0.00347925 -0.00234331 -3.47632e-14)
(0.00331713 -0.00193578 1.17145e-13)
(0.00312185 -0.00156731 -5.8132e-14)
(0.00289354 -0.00124826 -1.30498e-14)
(0.00263018 -0.000999811 9.83436e-14)
(0.00238472 -0.000819508 -4.44136e-14)
(0.00217355 -0.000680998 4.07526e-14)
(0.00199229 -0.000570028 2.43734e-14)
(0.00183262 -0.00047898 4.24956e-15)
(0.00169594 -0.000400628 6.83706e-14)
(0.00157479 -0.000329889 -2.56373e-14)
(0.00146056 -0.000264763 -4.77519e-14)
(0.00134584 -0.000202786 -7.62504e-15)
(0.00123281 -0.000142756 1.9095e-14)
(0.0011231 -9.16211e-05 6.51442e-16)
(0.00101689 -5.52642e-05 9.26642e-15)
(0.000923162 -2.84381e-05 -1.73819e-15)
(0.00083851 -6.21999e-06 1.13317e-16)
(0.000751373 8.91054e-06 -2.78596e-16)
(0.000665979 1.90221e-05 -5.11656e-16)
(0.000605316 4.34623e-05 3.62437e-17)
(0.000569604 0.000121486 4.79571e-17)
(0.00055502 0.000361846 5.19954e-16)
(0.000412397 -0.000407905 -1.38271e-15)
(0.000628784 0.0013064 5.38951e-15)
(0.000401309 -0.00249192 1.75406e-15)
(0.000352821 0.00053475 -1.14754e-14)
(0.000717419 0.000158285 4.31972e-14)
(-0.000415781 -0.0136418 2.18124e-15)
(-0.00120135 -0.0129287 -4.30808e-16)
(-0.00182343 -0.0105221 2.4296e-15)
(-0.00275597 -0.0108801 -3.35771e-15)
(-0.00341748 -0.0104965 1.13135e-14)
(-0.00407455 -0.00980499 -1.48044e-15)
(-0.00478856 -0.00910112 -4.20652e-14)
(-0.00521293 -0.00813133 7.85925e-14)
(-0.00544034 -0.00708865 1.69837e-13)
(-0.0055107 -0.00610745 -1.05852e-13)
(-0.00536198 -0.00518359 -1.08141e-13)
(-0.00506887 -0.00435484 6.48924e-14)
(-0.00466785 -0.00366019 -1.49865e-13)
(-0.00418585 -0.00312821 -2.85253e-14)
(-0.00367785 -0.00275105 -4.61462e-14)
(-0.00324695 -0.00243853 1.98302e-14)
(-0.00253642 -0.00283969 4.02919e-14)
(-0.00205247 -0.00338241 4.47129e-13)
(-0.00169378 -0.00420843 3.53177e-13)
(-0.00163689 -0.00527809 -1.57667e-13)
(-0.00213991 -0.00640511 2.26074e-13)
(-0.00316501 -0.00690508 1.87558e-14)
(-0.00417974 -0.00645709 -5.71164e-14)
(-0.0053707 -0.00591448 -1.18328e-13)
(-0.00776487 -0.0047568 9.30373e-15)
(-0.0101742 -0.000961018 3.2323e-14)
(-0.0148986 0.00434866 4.00326e-14)
(-0.00445289 0.00494611 -3.78727e-14)
(0.00767278 0.00163577 9.84629e-15)
(0.026056 -0.00490759 7.60172e-14)
(-0.0302452 0.000186107 -2.97413e-14)
(-0.0133142 -0.00157031 -1.67274e-13)
(-0.016813 0.000465992 -8.9459e-14)
(-0.0094917 0.000581518 -6.13449e-14)
(-0.00258844 -0.000235375 6.35978e-14)
(0.00594431 -0.00209154 5.74884e-14)
(0.0143456 -0.00282744 5.83104e-14)
(0.0176668 -0.00529593 6.42953e-14)
(0.00816737 0.00485479 -1.07359e-15)
(0.000340701 -0.0130739 -9.13766e-15)
(0.00101573 -0.0116941 -1.05283e-14)
(0.00162655 -0.00969334 2.56583e-15)
(0.00209124 -0.00831395 3.37371e-14)
(0.00236852 -0.006799 2.23134e-14)
(0.00243151 -0.00522636 -1.94142e-13)
(0.00248943 -0.00429663 -1.16752e-13)
(0.00277664 -0.00396846 -1.84563e-13)
(0.00318573 -0.00372585 2.241e-14)
(0.0034044 -0.00330185 2.06504e-14)
(0.00347938 -0.00283419 -5.19073e-14)
(0.00343877 -0.0023817 4.96203e-15)
(0.0033005 -0.00196405 -2.45846e-14)
(0.00311781 -0.00159087 -4.58538e-14)
(0.00290654 -0.001268 -1.42159e-13)
(0.00266436 -0.00100492 -1.1971e-14)
(0.00242899 -0.000804538 8.6332e-14)
(0.00221767 -0.000649509 -1.33728e-14)
(0.00203229 -0.00052664 1.67001e-14)
(0.00186705 -0.000428266 -3.05328e-14)
(0.00172281 -0.000346989 -4.68755e-14)
(0.00159378 -0.000276386 -4.23406e-15)
(0.00147195 -0.000213261 1.7685e-14)
(0.00135021 -0.000155084 1.90911e-14)
(0.00123158 -9.99034e-05 -5.8348e-16)
(0.00111916 -5.21843e-05 -1.00682e-14)
(0.00101151 -1.70909e-05 -1.69698e-14)
(0.000916041 8.83334e-06 3.28585e-15)
(0.000829936 3.12945e-05 -1.94094e-16)
(0.000742228 4.71005e-05 3.06594e-16)
(0.000657254 5.67987e-05 4.87219e-16)
(0.000595515 5.83774e-05 -3.65873e-17)
(0.000565517 4.46317e-05 1.96728e-16)
(0.000547706 -2.11301e-05 -1.02549e-15)
(0.000382318 0.000265749 3.17123e-16)
(0.000556145 -9.7474e-06 -1.45167e-14)
(2.45755e-05 0.000849289 2.26774e-14)
(0.000541144 -0.000262877 5.80748e-14)
(0.00105884 -0.000478921 -2.15615e-14)
(-0.000167927 -0.0113945 9.79911e-16)
(-0.000778366 -0.0108061 -2.75178e-16)
(-0.00128077 -0.00903343 6.54436e-16)
(-0.00202245 -0.00940267 3.38214e-15)
(-0.002549 -0.00910335 -9.04585e-15)
(-0.0030801 -0.00856139 -1.91114e-14)
(-0.00365298 -0.00805772 4.55632e-14)
(-0.00398907 -0.00733066 -8.91077e-15)
(-0.00417666 -0.00654802 5.0524e-14)
(-0.00424533 -0.00581721 1.03073e-13)
(-0.00413375 -0.00510812 2.22871e-14)
(-0.00390468 -0.00446587 3.44961e-14)
(-0.00358281 -0.00392858 2.16628e-13)
(-0.00318364 -0.00350531 3.67341e-13)
(-0.00277592 -0.00319849 3.32967e-13)
(-0.00234997 -0.00305333 -5.40601e-15)
(-0.00200928 -0.00291483 4.05508e-13)
(-0.00185434 -0.00293694 2.67885e-14)
(-0.00185084 -0.00320711 -1.19201e-13)
(-0.00208066 -0.00371713 1.57481e-13)
(-0.00276005 -0.00439119 -2.60944e-13)
(-0.00387469 -0.00479005 1.10165e-13)
(-0.00501558 -0.0046335 1.10568e-13)
(-0.00609303 -0.00423705 4.48892e-14)
(-0.00708599 -0.00324656 1.20526e-13)
(-0.00695716 -0.000618811 -4.9514e-14)
(-0.00438977 0.00219594 -4.28028e-14)
(-0.00210939 0.00326759 6.32162e-15)
(0.000627997 0.00210645 2.63907e-14)
(-0.000457425 0.00026306 -7.03293e-14)
(-0.00253778 -0.00114306 -6.87404e-14)
(-0.00597822 -0.00134604 1.40269e-13)
(-0.00893652 -0.000279014 3.15881e-14)
(-0.00872039 0.000291301 -6.03837e-14)
(-0.00715715 -4.14821e-07 -5.02087e-16)
(0.0146301 -0.00748096 -1.4359e-13)
(-0.00633609 0.00148612 -5.12204e-14)
(0.0125158 -0.00471421 -1.98647e-14)
(0.0115112 0.00399447 -3.19439e-14)
(0.000415115 -0.0109285 -6.63821e-15)
(0.000932472 -0.00985843 -1.26905e-14)
(0.00141353 -0.00826053 6.03799e-15)
(0.00180251 -0.00717633 8.31879e-14)
(0.00204891 -0.00595612 3.54638e-14)
(0.00214899 -0.00466851 6.88381e-16)
(0.00230052 -0.00406451 1.82793e-13)
(0.00270706 -0.00391348 -8.38704e-14)
(0.00306239 -0.00362863 -1.35011e-13)
(0.00326802 -0.00322184 4.91551e-14)
(0.00335082 -0.00279069 9.80726e-14)
(0.00332893 -0.00236901 -2.41964e-14)
(0.00321495 -0.00197216 6.85802e-14)
(0.00305298 -0.00161781 9.31581e-15)
(0.00286113 -0.00131024 3.53185e-14)
(0.0026394 -0.00105235 1.24843e-14)
(0.00241875 -0.000849754 -3.93564e-14)
(0.00221294 -0.000691616 3.2444e-14)
(0.00202754 -0.000566287 -2.44888e-14)
(0.00185993 -0.000465788 4.50653e-15)
(0.00171159 -0.000383266 6.51332e-14)
(0.00157729 -0.000312094 -2.25372e-14)
(0.00145061 -0.000248195 -3.04424e-14)
(0.00132494 -0.000189215 6.58413e-15)
(0.00120423 -0.000134302 -1.63558e-15)
(0.00109171 -8.67608e-05 2.99163e-15)
(0.000984896 -5.05007e-05 8.57794e-15)
(0.000889985 -2.33947e-05 -1.47372e-15)
(0.000804525 -2.17165e-07 -1.41696e-16)
(0.000718134 1.67413e-05 1.95514e-16)
(0.000634367 2.52754e-05 1.45083e-15)
(0.000570279 3.22856e-05 1.80074e-16)
(0.000535647 3.94954e-05 -1.00219e-15)
(0.000495298 4.77899e-05 -1.76813e-16)
(0.000422196 5.14367e-05 -4.28077e-16)
(0.000298693 -0.000144343 4.33698e-15)
(0.000352984 -8.50744e-05 -8.99715e-15)
(0.000390522 9.21692e-05 -1.43118e-14)
(0.000471442 0.000352217 -5.29133e-14)
(-0.000167952 -0.00956618 2.71608e-15)
(-0.000698135 -0.00907138 -3.04869e-15)
(-0.00113729 -0.00774556 -7.39456e-17)
(-0.00178307 -0.00806863 2.69762e-15)
(-0.00224753 -0.00780443 -2.05551e-15)
(-0.00271195 -0.00734154 2.54071e-15)
(-0.00321687 -0.0069326 8.74109e-15)
(-0.0035202 -0.00633032 -1.09264e-13)
(-0.00370559 -0.00568111 -1.47219e-14)
(-0.0038034 -0.0050717 1.70597e-13)
(-0.00374576 -0.00446128 -7.21661e-14)
(-0.00358832 -0.00389383 -1.53156e-13)
(-0.00334945 -0.00340164 -2.99019e-13)
(-0.00304038 -0.00299477 -2.46605e-13)
(-0.00270468 -0.00269227 -1.69508e-13)
(-0.00236557 -0.00249516 -6.17508e-14)
(-0.00207027 -0.00237294 -2.27076e-13)
(-0.00180483 -0.00265487 -3.15655e-13)
(-0.00172015 -0.00314688 -1.39126e-13)
(-0.00186575 -0.00378812 3.57631e-13)
(-0.00240224 -0.00444351 3.28414e-13)
(-0.00334154 -0.0047671 -2.15789e-14)
(-0.00450502 -0.00458339 -5.04686e-14)
(-0.00580796 -0.00407728 -1.59471e-13)
(-0.00697877 -0.00292334 -9.28904e-14)
(-0.00707863 -0.000509168 4.2786e-14)
(-0.00551226 0.00194112 3.30766e-14)
(-0.00305015 0.00265317 3.72122e-15)
(-0.000423951 0.0017214 -1.98493e-14)
(0.00131607 -0.000112324 7.40602e-14)
(0.000231122 -0.00135245 1.54761e-13)
(-0.00128059 -0.00140625 -1.05074e-14)
(-0.0029606 -0.000740983 2.72657e-14)
(-0.00343345 -5.36702e-05 4.74249e-14)
(-0.003806 0.00197724 -1.85584e-14)
(-0.0211575 0.00199322 1.74401e-13)
(-0.0136231 -0.00131355 7.97462e-14)
(-0.00224709 -0.000558693 -6.43249e-14)
(0.00986479 0.00308147 -1.90545e-14)
(0.00033298 -0.00918465 1.65594e-14)
(0.000782079 -0.00834915 2.03002e-14)
(0.00119921 -0.00707887 8.22599e-15)
(0.00154922 -0.00621246 9.76643e-14)
(0.00178713 -0.00520409 -1.73022e-13)
(0.00193726 -0.00427819 8.97527e-14)
(0.00217194 -0.00387236 1.51561e-13)
(0.00258044 -0.0037378 6.62116e-14)
(0.00289149 -0.0034556 -3.68048e-14)
(0.00308143 -0.00308013 -3.43641e-14)
(0.00317419 -0.0026904 2.17008e-14)
(0.00317243 -0.00230514 3.71928e-14)
(0.00308409 -0.00193537 -8.99348e-14)
(0.00294859 -0.00160183 6.45187e-14)
(0.00278077 -0.0013088 1.64854e-14)
(0.00258301 -0.00105679 -1.1104e-14)
(0.00238191 -0.000852417 -5.77622e-14)
(0.00218774 -0.000688921 -5.77609e-14)
(0.00200805 -0.000557699 4.90105e-14)
(0.00184265 -0.000451574 1.42893e-14)
(0.00169387 -0.000364906 4.91116e-15)
(0.00155746 -0.000291414 5.16226e-14)
(0.00142805 -0.000226919 2.09311e-14)
(0.00129997 -0.000168799 -2.44736e-15)
(0.00117835 -0.000116152 6.83265e-15)
(0.0010661 -7.06091e-05 -4.75322e-15)
(0.00096027 -3.51774e-05 -9.34749e-15)
(0.00086598 -8.47524e-06 1.37134e-15)
(0.000780891 1.43595e-05 -1.2033e-15)
(0.000695709 3.14869e-05 -4.12867e-16)
(0.000613349 4.04177e-05 -1.07029e-15)
(0.000547675 4.6023e-05 1.16057e-15)
(0.00051486 5.27558e-05 2.89463e-15)
(0.000478126 5.49332e-05 2.44934e-15)
(0.000420488 4.51656e-05 1.40189e-15)
(0.000379549 2.12434e-05 -5.28104e-15)
(0.000355055 6.14027e-05 3.2217e-15)
(0.000359969 7.71304e-05 3.61468e-14)
(0.000108617 0.000491385 4.11684e-14)
(-9.15363e-05 -0.00810341 7.45118e-16)
(-0.000535038 -0.00769626 1.78171e-15)
(-0.00091129 -0.00669435 -2.57187e-15)
(-0.00145318 -0.00698739 3.66613e-15)
(-0.00184725 -0.00676871 -7.1607e-15)
(-0.00223749 -0.0063873 1.08579e-14)
(-0.00266108 -0.00607772 -1.31831e-14)
(-0.00291612 -0.00560577 -2.47515e-14)
(-0.00307717 -0.00509686 -3.28769e-14)
(-0.00317205 -0.00462427 -4.65477e-14)
(-0.00313662 -0.00413808 1.86812e-14)
(-0.00301801 -0.00368199 1.7805e-13)
(-0.00283123 -0.00328435 2.4123e-13)
(-0.00258114 -0.00295232 3.87668e-14)
(-0.00230511 -0.00270694 4.91268e-15)
(-0.00202951 -0.00255186 1.13696e-14)
(-0.00176892 -0.00251758 -4.05475e-14)
(-0.00161745 -0.00256468 1.28463e-13)
(-0.00162904 -0.00284256 1.1742e-13)
(-0.0018363 -0.00323097 -2.70609e-13)
(-0.0023403 -0.00365069 -2.75536e-14)
(-0.00312966 -0.00388227 5.69803e-14)
(-0.00409602 -0.00376721 -7.3607e-14)
(-0.00521021 -0.00334976 7.8051e-14)
(-0.0062264 -0.00235544 1.13695e-15)
(-0.00630342 -0.000400374 -1.45236e-14)
(-0.00495874 0.00156842 -4.26017e-14)
(-0.00284865 0.0021704 1.75212e-15)
(-0.00104087 0.00140588 -4.21657e-17)
(-0.000273163 -6.27435e-05 3.50154e-14)
(-0.000627589 -0.00117848 1.7033e-14)
(-0.00142866 -0.00126953 -7.45736e-14)
(-0.0020877 -0.000799561 -3.44561e-14)
(-0.0022327 -0.000348414 1.72441e-13)
(-0.00218698 7.37562e-05 2.68638e-14)
(-0.0102617 0.00482953 -1.279e-13)
(-0.00211661 -0.00261853 -4.22432e-14)
(-0.025589 0.00784717 5.06919e-14)
(0.00352722 0.00126907 -1.60773e-15)
(0.000325935 -0.00778136 3.43741e-15)
(0.000698375 -0.00711798 -4.87327e-14)
(0.00104753 -0.00609137 2.41692e-14)
(0.00135401 -0.00538307 2.13074e-14)
(0.00157099 -0.00454723 4.61607e-14)
(0.00175869 -0.00391812 -1.54595e-14)
(0.00204161 -0.0036483 -3.71699e-14)
(0.00241637 -0.00349781 -3.78374e-15)
(0.00269632 -0.00323417 -2.61474e-15)
(0.00287242 -0.00289725 1.39886e-14)
(0.0029717 -0.00255006 4.01373e-14)
(0.00298739 -0.00220527 6.6016e-14)
(0.0029233 -0.00187014 -4.6349e-15)
(0.0028145 -0.00156453 -1.34757e-13)
(0.00267093 -0.00129228 2.62913e-14)
(0.00249739 -0.00105396 7.70035e-14)
(0.00231723 -0.00085621 5.91288e-14)
(0.00213682 -0.00069451 2.68729e-14)
(0.00196599 -0.000563449 -2.23027e-14)
(0.00180564 -0.000456903 -5.9533e-15)
(0.00165878 -0.000370025 -2.35612e-14)
(0.00152214 -0.000296965 -4.32268e-14)
(0.00139181 -0.000233446 1.78078e-14)
(0.00126323 -0.000176735 1.67802e-14)
(0.00114233 -0.000126192 2.99437e-15)
(0.00103169 -8.27209e-05 1.70048e-14)
(0.000928003 -4.82748e-05 5.94744e-15)
(0.000835434 -2.21628e-05 -1.00167e-15)
(0.000751945 3.79e-07 1.12844e-15)
(0.0006688 1.76105e-05 4.62622e-16)
(0.000588432 2.63733e-05 -1.29446e-15)
(0.000523288 3.0639e-05 -1.53071e-15)
(0.000491246 3.72731e-05 -7.75136e-16)
(0.000456137 4.27622e-05 -4.29985e-16)
(0.000400226 4.00062e-05 2.79005e-15)
(0.000355901 2.0262e-05 -4.85054e-16)
(0.000340201 2.85573e-05 1.17117e-14)
(0.0003668 2.71891e-05 -1.28603e-14)
(0.000486904 5.20501e-05 -6.19376e-15)
(-5.69298e-05 -0.0068951 3.83269e-15)
(-0.000438733 -0.00656013 -1.38183e-15)
(-0.000766487 -0.00579334 -2.59783e-15)
(-0.00123259 -0.00604731 -3.58362e-15)
(-0.00157727 -0.00586317 1.34981e-14)
(-0.00191484 -0.00554491 -1.80342e-14)
(-0.00228035 -0.00530157 -5.33087e-15)
(-0.00250362 -0.00491736 3.49774e-14)
(-0.00265385 -0.00450532 1.94774e-14)
(-0.00275288 -0.00412207 3.56272e-14)
(-0.00274255 -0.00371615 8.01318e-14)
(-0.00266366 -0.00333024 6.46722e-14)
(-0.00252659 -0.00298706 -1.5249e-13)
(-0.00233343 -0.00269176 -2.45688e-13)
(-0.00211845 -0.00246658 4.21575e-14)
(-0.00189747 -0.00231819 3.12508e-13)
(-0.00169898 -0.00224598 6.40818e-14)
(-0.00155427 -0.00227062 -1.7771e-13)
(-0.00157476 -0.00252999 -3.36413e-14)
(-0.00175687 -0.00290834 3.07181e-14)
(-0.00218361 -0.0032818 -6.9107e-14)
(-0.00284782 -0.00348221 -8.93855e-14)
(-0.00366675 -0.0033825 1.02122e-14)
(-0.0045973 -0.00297936 6.9152e-14)
(-0.00540775 -0.00205955 6.00286e-14)
(-0.00546311 -0.000414393 -3.41218e-15)
(-0.00438431 0.00120858 3.58907e-14)
(-0.00266955 0.00176844 6.43519e-15)
(-0.00123178 0.00116726 6.16576e-14)
(-0.000753056 -9.62231e-05 -4.58714e-14)
(-0.00127869 -0.00106934 -1.60067e-13)
(-0.0020508 -0.0011566 -5.10211e-14)
(-0.00245909 -0.000747808 2.84603e-14)
(-0.00244539 -0.000384186 1.54243e-14)
(-0.00190856 -0.000277509 -4.24118e-15)
(0.000716145 -0.00133309 5.17852e-15)
(-0.0016451 -0.00227166 1.82127e-14)
(-0.00830084 -0.00456065 4.51191e-15)
(5.88296e-05 0.00421515 2.44841e-14)
(0.0002982 -0.00662395 -8.58825e-15)
(0.000617301 -0.00609017 -7.71498e-15)
(0.000918129 -0.00525237 -1.34554e-14)
(0.00118482 -0.00467226 -1.71962e-14)
(0.00138147 -0.00397826 2.98302e-14)
(0.00159256 -0.00356048 -4.30633e-14)
(0.00189624 -0.00338266 -1.72115e-14)
(0.00223418 -0.00322923 6.6219e-14)
(0.00248947 -0.00298908 -3.99486e-14)
(0.00265317 -0.00269002 7.0448e-14)
(0.00275675 -0.00238569 6.7761e-14)
(0.0027864 -0.00208123 4.3717e-14)
(0.00274323 -0.00178147 3.29687e-14)
(0.00265945 -0.00150559 4.90104e-14)
(0.00254106 -0.00125624 -1.39889e-14)
(0.00239121 -0.00103364 3.09868e-15)
(0.00223247 -0.0008448 3.52987e-14)
(0.00206838 -0.000686852 2.71924e-14)
(0.00190885 -0.000556585 -2.56829e-15)
(0.00175617 -0.00044947 -5.44144e-14)
(0.00161387 -0.000361512 -9.50382e-15)
(0.0014794 -0.000287789 2.08846e-16)
(0.0013502 -0.000224277 -3.83932e-14)
(0.00122267 -0.000168449 4.18554e-15)
(0.0011038 -0.000119563 -6.34562e-15)
(0.000995495 -7.78954e-05 -1.29975e-14)
(0.000894474 -4.44342e-05 9.09058e-16)
(0.000803936 -1.886e-05 8.48612e-17)
(0.00072204 3.49199e-06 5.68775e-17)
(0.000641177 2.08501e-05 -5.04273e-16)
(0.000563225 2.96158e-05 1.1741e-15)
(0.000499634 3.39973e-05 3.38645e-15)