/*--------------------------------*- C++ -*----------------------------------*\
| =========                 |                                                 |
| \\      /  F ield         | OpenFOAM: The Open Source CFD Toolbox           |
|  \\    /   O peration     | Version:  2206                                  |
|   \\  /    A nd           | Website:  www.openfoam.com                      |
|    \\/     M anipulation  |                                                 |
\*---------------------------------------------------------------------------*/
FoamFile
{
    version     2.0;
    format      ascii;
    arch        "LSB;label=32;scalar=64";
    class       volScalarField;
    location    "250";
    object      nut;
}
// * * * * * * * * * * * * * * * * * * * * * * * * * * * * * * * * * * * * * //

dimensions      [0 2 -1 0 0 0 0];

internalField   nonuniform List<scalar> 
10720
(
2.5812e-05
2.95389e-05
3.4527e-05
4.09901e-05
4.93144e-05
6.00315e-05
7.38615e-05
9.11663e-05
0.000112983
0.000140358
0.000175244
0.000220756
0.000281323
0.000364905
0.000485076
0.000663889
0.000945851
0.00139542
0.00221695
0.00359059
0.00689715
0.0127181
0.0338717
0.0760357
0.0938121
0.0947647
0.0957905
0.099311
0.102828
0.104569
0.104544
0.10329
0.10092
0.0974904
0.0928762
0.0870039
0.0785585
0.0684369
0.0333207
2.25864e-05
1.98076e-05
1.70773e-05
1.45872e-05
1.2253e-05
1.01103e-05
8.24776e-06
6.96477e-06
8.09617e-06
1.07881e-05
1.54761e-05
2.32187e-05
3.55638e-05
5.44372e-05
8.13658e-05
0.000117918
0.000167145
0.000236233
0.000339323
0.000501722
0.000773124
0.00124175
0.00211725
0.0037693
0.00732713
0.014721
0.0324745
0.0663177
0.0934654
0.105021
0.108429
0.109371
0.109467
0.108971
0.10797
0.106573
0.104426
0.101989
0.0924527
5.08492e-06
4.97979e-06
4.88493e-06
4.80633e-06
4.71616e-06
4.63337e-06
4.57207e-06
4.51843e-06
4.49539e-06
4.51579e-06
4.54333e-06
4.81907e-06
5.88069e-06
8.65663e-06
1.64183e-05
3.68212e-05
8.38726e-05
0.000162794
0.00031512
0.000588491
0.00131994
0.00282992
0.0071013
0.0204629
0.0394337
0.0631274
0.092266
0.123371
0.148442
0.162456
0.167778
0.1686
0.167012
0.163661
0.159151
0.153657
0.148351
0.139374
0.139627
5.16849e-06
5.2817e-06
5.37819e-06
5.50916e-06
5.64343e-06
5.77928e-06
5.91034e-06
6.02083e-06
5.95849e-06
5.81724e-06
5.62423e-06
5.38998e-06
5.12375e-06
4.82911e-06
4.49538e-06
4.11939e-06
3.6763e-06
3.16205e-06
2.54788e-06
1.84311e-06
1.0737e-06
4.2029e-07
5.40215e-08
1.45907e-09
9.21541e-09
9.36594e-05
0.000539757
0.00415628
0.0141147
0.0287184
0.0437256
0.0550607
0.0618236
0.0656056
0.0680037
0.0699947
0.0717274
0.0753023
0.0784664
6.26562e-06
6.28295e-06
6.30092e-06
6.32024e-06
6.34392e-06
6.3704e-06
6.4007e-06
6.43613e-06
6.47796e-06
6.52693e-06
6.58509e-06
6.65675e-06
6.73595e-06
6.87843e-06
6.88914e-06
6.47511e-06
4.74577e-06
3.89377e-06
4.18973e-07
2.0399e-13
0.000254473
4.50445e-06
0.00147106
0.000518705
0.0028693
0.00735179
0.0153806
0.0307947
0.0570014
0.0932873
0.132265
0.163998
0.184449
0.196299
0.202986
0.205866
0.207105
0.201055
0.209687
6.25238e-06
6.23338e-06
6.21886e-06
6.19732e-06
6.17881e-06
6.15893e-06
6.14122e-06
6.12721e-06
6.13194e-06
6.14686e-06
6.16647e-06
6.19041e-06
6.21972e-06
6.25255e-06
6.28956e-06
6.33047e-06
6.37693e-06
6.43021e-06
6.49391e-06
6.57134e-06
6.67078e-06
6.79834e-06
6.97962e-06
7.17295e-06
7.4354e-06
7.15614e-06
7.24701e-06
2.48298e-06
8.36445e-05
0.000790267
0.0030172
0.00754152
0.0142522
0.0224352
0.0311559
0.0395991
0.0470033
0.053678
0.063166
6.08564e-06
6.08325e-06
6.08265e-06
6.08303e-06
6.08396e-06
6.08663e-06
6.09153e-06
6.09827e-06
6.10833e-06
6.12193e-06
6.13989e-06
6.16341e-06
6.19401e-06
6.23272e-06
6.28454e-06
6.34023e-06
6.21718e-06
5.96281e-06
4.17776e-06
1.26676e-06
1.58687e-08
7.36722e-08
0
8.24836e-05
0.000598542
0.00161712
0.00135717
0.00166502
0.00373406
0.0133692
0.0353349
0.0722198
0.118091
0.160552
0.192458
0.214604
0.231182
0.238419
0.254363
6.08634e-06
6.08873e-06
6.09186e-06
6.09408e-06
6.09789e-06
6.09994e-06
6.10126e-06
6.10218e-06
6.10002e-06
6.09731e-06
6.09381e-06
6.09005e-06
6.08658e-06
6.08316e-06
6.07983e-06
6.07635e-06
6.07267e-06
6.06867e-06
6.06362e-06
6.05854e-06
6.05318e-06
6.04746e-06
6.04065e-06
6.03439e-06
6.0276e-06
6.02993e-06
6.02269e-06
6.08197e-06
5.99927e-06
5.94842e-06
5.22187e-06
4.17638e-06
0.000226407
0.00104482
0.00304208
0.00687983
0.0131199
0.0218405
0.0392211
6.11077e-06
6.11131e-06
6.11157e-06
6.11245e-06
6.114e-06
6.11597e-06
6.11863e-06
6.12221e-06
6.1269e-06
6.13307e-06
6.14115e-06
6.15171e-06
6.16558e-06
6.18336e-06
6.20757e-06
6.23574e-06
6.27759e-06
6.2993e-06
6.49206e-06
6.28185e-06
5.02056e-06
1.87674e-06
1.83185e-08
1.05978e-09
0
0
0.000286412
0.000359115
0.000837477
0.000455079
0.00158696
0.00787504
0.0291817
0.0699368
0.123097
0.17397
0.216086
0.246992
0.277101
6.11084e-06
6.1095e-06
6.11021e-06
6.10917e-06
6.11005e-06
6.10885e-06
6.10674e-06
6.10484e-06
6.10376e-06
6.10349e-06
6.10347e-06
6.10338e-06
6.10372e-06
6.10426e-06
6.10523e-06
6.10647e-06
6.10803e-06
6.10988e-06
6.11208e-06
6.11456e-06
6.11733e-06
6.12037e-06
6.12381e-06
6.12761e-06
6.13254e-06
6.13683e-06
6.15008e-06
6.12972e-06
6.27238e-06
5.69482e-06
8.70814e-06
5.81984e-07
2.56055e-05
0.000245298
0.000728421
0.000716256
0.00123864
0.00163986
0.0137116
6.10472e-06
6.10447e-06
6.10477e-06
6.10503e-06
6.10513e-06
6.10553e-06
6.10613e-06
6.1069e-06
6.10812e-06
6.10981e-06
6.11213e-06
6.11535e-06
6.11971e-06
6.12561e-06
6.13376e-06
6.1447e-06
6.15892e-06
6.17508e-06
6.23306e-06
6.27999e-06
6.64047e-06
6.44817e-06
5.29569e-06
7.26568e-07
1.202e-08
2.62375e-09
3.57891e-10
0
0
7.52844e-05
0.000353319
0.00179614
0.000326949
0.00848918
0.0373754
0.0921202
0.159007
0.222581
0.276847
6.10425e-06
6.10357e-06
6.10448e-06
6.10427e-06
6.10597e-06
6.1057e-06
6.10434e-06
6.10312e-06
6.10213e-06
6.10153e-06
6.10108e-06
6.10061e-06
6.10037e-06
6.1002e-06
6.10021e-06
6.10025e-06
6.10039e-06
6.10059e-06
6.10084e-06
6.10109e-06
6.10132e-06
6.10145e-06
6.10152e-06
6.10116e-06
6.10109e-06
6.10139e-06
6.10178e-06
6.10354e-06
6.10308e-06
6.11211e-06
6.09493e-06
6.19834e-06
5.60354e-06
4.20216e-06
2.87068e-09
0.000160112
0.000289581
0.000429081
0.00237957
6.10499e-06
6.1052e-06
6.10536e-06
6.1054e-06
6.10552e-06
6.10561e-06
6.10577e-06
6.10611e-06
6.10657e-06
6.10727e-06
6.1083e-06
6.10975e-06
6.1118e-06
6.11466e-06
6.11859e-06
6.12417e-06
6.13156e-06
6.13936e-06
6.15063e-06
6.15849e-06
6.20665e-06
6.3625e-06
7.00255e-06
6.51967e-06
3.91332e-06
1.58639e-06
2.12365e-07
1.00127e-08
3.33157e-09
2.79526e-11
0
0
4.09649e-05
0.00199217
0.00151015
0.0211048
0.076898
0.164482
0.250504
6.1045e-06
6.10345e-06
6.10384e-06
6.10352e-06
6.10519e-06
6.10512e-06
6.10393e-06
6.10276e-06
6.10186e-06
6.10135e-06
6.10099e-06
6.1008e-06
6.10069e-06
6.10074e-06
6.10073e-06
6.10077e-06
6.10093e-06
6.10115e-06
6.10148e-06
6.10189e-06
6.10239e-06
6.10297e-06
6.10364e-06
6.10444e-06
6.10543e-06
6.10672e-06
6.1084e-06
6.1105e-06
6.11316e-06
6.11654e-06
6.12069e-06
6.12557e-06
6.14941e-06
5.52391e-06
3.40374e-06
5.82466e-08
1.16971e-08
1.51928e-11
5.70893e-05
6.10457e-06
6.10471e-06
6.10501e-06
6.10499e-06
6.10482e-06
6.10468e-06
6.10453e-06
6.10436e-06
6.10431e-06
6.10431e-06
6.10439e-06
6.10461e-06
6.10498e-06
6.10557e-06
6.10646e-06
6.10783e-06
6.10987e-06
6.11214e-06
6.11513e-06
6.12004e-06
6.11045e-06
6.11332e-06
6.2356e-06
6.69282e-06
6.96342e-06
6.67717e-06
5.58041e-06
3.55591e-06
1.72722e-06
1.45906e-08
7.02254e-09
1.68527e-11
0
0
0.00034649
0.00525853
0.0154704
0.0888301
0.198015
6.10395e-06
6.10283e-06
6.10284e-06
6.10244e-06
6.10407e-06
6.10421e-06
6.1033e-06
6.10224e-06
6.10143e-06
6.10097e-06
6.10067e-06
6.10052e-06
6.10045e-06
6.10055e-06
6.10062e-06
6.10073e-06
6.10078e-06
6.10079e-06
6.10087e-06
6.10096e-06
6.10109e-06
6.10122e-06
6.10139e-06
6.10154e-06
6.10167e-06
6.10185e-06
6.10209e-06
6.10236e-06
6.10264e-06
6.10275e-06
6.10325e-06
6.10055e-06
6.1115e-06
6.07708e-06
6.31394e-06
6.02096e-06
3.66722e-06
1.82777e-08
5.17984e-07
6.1045e-06
6.10463e-06
6.10479e-06
6.10462e-06
6.10443e-06
6.10414e-06
6.10391e-06
6.10378e-06
6.10365e-06
6.10359e-06
6.1036e-06
6.10369e-06
6.10391e-06
6.1043e-06
6.10491e-06
6.10584e-06
6.10725e-06
6.1091e-06
6.11087e-06
6.11346e-06
6.11412e-06
6.10779e-06
6.08565e-06
6.15668e-06
6.38153e-06
6.65881e-06
7.00067e-06
7.16464e-06
6.8851e-06
4.83878e-06
2.75722e-06
8.2014e-09
3.30826e-09
0
0
0
0.0042257
0.0291019
0.130816
6.10392e-06
6.1027e-06
6.10237e-06
6.1018e-06
6.10334e-06
6.10359e-06
6.10289e-06
6.10191e-06
6.1012e-06
6.10077e-06
6.10054e-06
6.10041e-06
6.10036e-06
6.10044e-06
6.10052e-06
6.10066e-06
6.10078e-06
6.10091e-06
6.10098e-06
6.10097e-06
6.10103e-06
6.10114e-06
6.1013e-06
6.10149e-06
6.10171e-06
6.10206e-06
6.10256e-06
6.10324e-06
6.10411e-06
6.10518e-06
6.10657e-06
6.10811e-06
6.11054e-06
6.10677e-06
6.12479e-06
6.18171e-06
6.68038e-06
4.55248e-06
2.58652e-09
6.10445e-06
6.10445e-06
6.10448e-06
6.10421e-06
6.1039e-06
6.10362e-06
6.10332e-06
6.10308e-06
6.10288e-06
6.10268e-06
6.10251e-06
6.1024e-06
6.10232e-06
6.10226e-06
6.10223e-06
6.10223e-06
6.1023e-06
6.1024e-06
6.10254e-06
6.10318e-06
6.10503e-06
6.10644e-06
6.09904e-06
6.08514e-06
6.1023e-06
6.17093e-06
6.3272e-06
6.56916e-06
6.88509e-06
7.21586e-06
7.41602e-06
5.09858e-06
1.27788e-06
1.19515e-08
1.55001e-14
0
1.69729e-05
0.00251689
0.0715965
6.10397e-06
6.10272e-06
6.10209e-06
6.10132e-06
6.10273e-06
6.10307e-06
6.1025e-06
6.1016e-06
6.101e-06
6.10062e-06
6.10048e-06
6.10032e-06
6.10024e-06
6.10029e-06
6.10035e-06
6.10049e-06
6.10064e-06
6.1008e-06
6.10094e-06
6.10108e-06
6.10116e-06
6.10122e-06
6.10122e-06
6.10124e-06
6.10127e-06
6.10136e-06
6.10154e-06
6.10181e-06
6.10216e-06
6.10259e-06
6.10303e-06
6.10378e-06
6.1034e-06
6.10847e-06
6.08857e-06
6.18594e-06
5.83403e-06
8.78151e-06
5.60993e-07
6.10438e-06
6.10423e-06
6.10411e-06
6.10376e-06
6.1034e-06
6.10308e-06
6.10278e-06
6.10258e-06
6.10238e-06
6.10224e-06
6.10213e-06
6.10205e-06
6.10203e-06
6.10205e-06
6.10213e-06
6.10232e-06
6.10262e-06
6.10311e-06
6.10366e-06
6.10415e-06
6.10478e-06
6.10583e-06
6.1063e-06
6.1015e-06
6.09312e-06
6.08909e-06
6.09796e-06
6.1409e-06
6.22711e-06
6.44832e-06
6.82371e-06
7.55313e-06
7.06543e-06
3.32163e-06
6.96293e-12
3.7948e-18
0
0.00127449
0.0328215
6.10403e-06
6.1028e-06
6.10195e-06
6.10101e-06
6.10226e-06
6.10264e-06
6.10216e-06
6.10134e-06
6.10082e-06
6.10051e-06
6.10036e-06
6.10022e-06
6.10011e-06
6.10011e-06
6.10015e-06
6.10027e-06
6.10041e-06
6.1006e-06
6.10076e-06
6.10093e-06
6.10107e-06
6.1012e-06
6.10129e-06
6.10136e-06
6.10135e-06
6.10141e-06
6.10155e-06
6.10179e-06
6.10213e-06
6.10258e-06
6.10311e-06
6.10399e-06
6.10399e-06
6.10853e-06
6.09313e-06
6.16475e-06
5.85801e-06
7.16072e-06
4.35282e-06
6.10425e-06
6.10394e-06
6.10371e-06
6.10333e-06
6.10295e-06
6.10261e-06
6.10232e-06
6.10211e-06
6.10191e-06
6.10177e-06
6.10165e-06
6.10155e-06
6.10148e-06
6.10143e-06
6.10141e-06
6.10144e-06
6.1015e-06
6.10161e-06
6.10181e-06
6.10218e-06
6.10274e-06
6.1036e-06
6.10478e-06
6.10542e-06
6.1042e-06
6.10134e-06
6.09629e-06
6.09136e-06
6.08432e-06
6.10397e-06
6.15682e-06
6.48076e-06
7.09132e-06
7.95084e-06
4.15597e-06
1.13225e-08
0
0.000277878
0.0128903
6.10404e-06
6.10288e-06
6.10186e-06
6.10077e-06
6.10188e-06
6.10225e-06
6.10185e-06
6.1011e-06
6.10064e-06
6.10036e-06
6.10022e-06
6.1001e-06
6.09996e-06
6.09992e-06
6.09992e-06
6.10002e-06
6.10015e-06
6.10032e-06
6.10051e-06
6.10071e-06
6.1009e-06
6.10109e-06
6.10125e-06
6.10138e-06
6.10151e-06
6.10155e-06
6.10158e-06
6.10167e-06
6.10183e-06
6.10207e-06
6.10239e-06
6.10284e-06
6.10311e-06
6.10472e-06
6.10122e-06
6.11887e-06
6.05935e-06
6.20642e-06
6.16033e-06
6.10402e-06
6.1036e-06
6.1033e-06
6.10291e-06
6.10253e-06
6.1022e-06
6.10192e-06
6.10173e-06
6.10156e-06
6.10144e-06
6.10136e-06
6.1013e-06
6.10126e-06
6.10125e-06
6.10125e-06
6.1013e-06
6.10138e-06
6.10155e-06
6.10177e-06
6.10207e-06
6.10243e-06
6.10291e-06
6.1036e-06
6.10449e-06
6.10531e-06
6.10605e-06
6.10653e-06
6.10588e-06
6.10038e-06
6.08948e-06
6.06688e-06
6.06848e-06
6.2169e-06
6.74291e-06
8.57014e-06
2.70329e-06
1.66402e-12
7.12944e-05
0.00427785
6.10398e-06
6.10292e-06
6.10182e-06
6.10061e-06
6.10157e-06
6.10193e-06
6.10157e-06
6.10088e-06
6.10048e-06
6.10021e-06
6.10007e-06
6.09994e-06
6.09979e-06
6.09972e-06
6.0997e-06
6.09977e-06
6.09989e-06
6.10005e-06
6.10025e-06
6.10048e-06
6.1007e-06
6.10092e-06
6.10112e-06
6.1013e-06
6.10146e-06
6.10158e-06
6.10161e-06
6.10163e-06
6.10171e-06
6.10187e-06
6.10212e-06
6.10245e-06
6.1029e-06
6.10331e-06
6.1044e-06
6.10254e-06
6.11675e-06
6.05268e-06
6.2574e-06
6.10372e-06
6.10322e-06
6.10289e-06
6.10251e-06
6.10214e-06
6.10181e-06
6.10156e-06
6.1014e-06
6.10127e-06
6.1012e-06
6.10116e-06
6.10112e-06
6.1011e-06
6.10109e-06
6.10108e-06
6.10111e-06
6.10115e-06
6.10124e-06
6.10137e-06
6.10158e-06
6.10188e-06
6.10227e-06
6.10279e-06
6.10347e-06
6.10429e-06
6.10528e-06
6.1067e-06
6.10868e-06
6.11055e-06
6.10947e-06
6.10192e-06
6.07304e-06
6.05026e-06
6.05124e-06
6.70297e-06
1.03567e-05
1.26182e-08
1.25143e-06
0.0010879
6.10383e-06
6.10293e-06
6.10181e-06
6.10051e-06
6.10132e-06
6.10165e-06
6.10132e-06
6.10069e-06
6.10031e-06
6.10005e-06
6.0999e-06
6.09978e-06
6.0996e-06
6.09952e-06
6.09949e-06
6.09955e-06
6.09966e-06
6.09982e-06
6.10001e-06
6.10023e-06
6.10045e-06
6.10069e-06
6.10092e-06
6.10113e-06
6.10134e-06
6.10149e-06
6.1016e-06
6.10162e-06
6.10163e-06
6.1017e-06
6.10185e-06
6.10205e-06
6.10238e-06
6.10261e-06
6.10372e-06
6.10173e-06
6.11233e-06
6.08105e-06
6.14641e-06
6.10338e-06
6.10286e-06
6.10251e-06
6.10214e-06
6.10178e-06
6.10146e-06
6.10126e-06
6.10115e-06
6.10107e-06
6.10105e-06
6.10104e-06
6.10104e-06
6.10104e-06
6.10107e-06
6.10108e-06
6.10111e-06
6.10116e-06
6.10124e-06
6.10135e-06
6.10151e-06
6.10173e-06
6.10202e-06
6.10239e-06
6.10289e-06
6.10355e-06
6.10436e-06
6.10541e-06
6.10691e-06
6.10923e-06
6.11198e-06
6.11443e-06
6.11216e-06
6.08142e-06
6.09749e-06
5.6461e-06
9.15719e-06
2.57493e-06
3.02187e-10
6.47074e-05
6.10365e-06
6.10291e-06
6.10181e-06
6.10047e-06
6.10113e-06
6.1014e-06
6.10109e-06
6.10052e-06
6.10015e-06
6.09988e-06
6.09972e-06
6.09959e-06
6.09943e-06
6.09934e-06
6.0993e-06
6.09934e-06
6.09942e-06
6.09956e-06
6.09974e-06
6.09995e-06
6.10018e-06
6.10044e-06
6.10069e-06
6.10093e-06
6.10116e-06
6.10136e-06
6.10151e-06
6.1016e-06
6.10162e-06
6.10163e-06
6.10171e-06
6.10184e-06
6.10207e-06
6.10231e-06
6.10284e-06
6.10272e-06
6.10522e-06
6.10178e-06
6.10706e-06
6.10306e-06
6.10253e-06
6.10215e-06
6.10179e-06
6.10146e-06
6.10118e-06
6.10103e-06
6.10098e-06
6.10096e-06
6.10098e-06
6.10101e-06
6.10105e-06
6.10108e-06
6.10112e-06
6.10114e-06
6.10118e-06
6.10122e-06
6.10128e-06
6.10136e-06
6.10148e-06
6.10165e-06
6.10188e-06
6.10217e-06
6.10255e-06
6.10308e-06
6.10377e-06
6.10464e-06
6.10571e-06
6.10713e-06
6.10934e-06
6.11174e-06
6.11937e-06
6.10277e-06
6.16313e-06
5.8273e-06
6.39664e-06
9.67058e-06
6.21157e-11
5.78853e-07
6.10344e-06
6.10286e-06
6.10181e-06
6.10044e-06
6.10096e-06
6.10119e-06
6.10089e-06
6.10036e-06
6.09999e-06
6.09971e-06
6.09955e-06
6.09942e-06
6.09926e-06
6.09916e-06
6.0991e-06
6.09913e-06
6.0992e-06
6.09933e-06
6.09949e-06
6.0997e-06
6.09993e-06
6.1002e-06
6.10046e-06
6.10072e-06
6.10098e-06
6.10121e-06
6.1014e-06
6.10154e-06
6.10162e-06
6.10164e-06
6.10165e-06
6.10172e-06
6.10185e-06
6.10204e-06
6.10232e-06
6.10273e-06
6.10297e-06
6.10541e-06
6.10235e-06
6.10277e-06
6.10224e-06
6.10183e-06
6.10149e-06
6.1012e-06
6.10097e-06
6.10088e-06
6.10088e-06
6.10091e-06
6.10097e-06
6.10104e-06
6.1011e-06
6.10115e-06
6.1012e-06
6.10124e-06
6.10128e-06
6.10132e-06
6.10138e-06
6.10145e-06
6.10155e-06
6.10168e-06
6.10186e-06
6.10209e-06
6.10239e-06
6.10281e-06
6.10339e-06
6.10414e-06
6.10506e-06
6.10612e-06
6.10761e-06
6.10893e-06
6.11398e-06
6.11251e-06
6.12316e-06
6.19274e-06
5.26865e-06
1.19567e-05
6.59443e-10
4.00274e-16
6.10322e-06
6.10278e-06
6.10178e-06
6.10043e-06
6.10081e-06
6.10099e-06
6.10071e-06
6.10021e-06
6.09983e-06
6.09955e-06
6.09937e-06
6.09923e-06
6.09908e-06
6.09898e-06
6.09892e-06
6.09893e-06
6.099e-06
6.09911e-06
6.09927e-06
6.09947e-06
6.09969e-06
6.09996e-06
6.10024e-06
6.10052e-06
6.1008e-06
6.10104e-06
6.10126e-06
6.10143e-06
6.10156e-06
6.10164e-06
6.10165e-06
6.10166e-06
6.10173e-06
6.10185e-06
6.10204e-06
6.10239e-06
6.10253e-06
6.10452e-06
6.10319e-06
6.1025e-06
6.10197e-06
6.10155e-06
6.10123e-06
6.10098e-06
6.10082e-06
6.10079e-06
6.10084e-06
6.10091e-06
6.101e-06
6.10109e-06
6.10117e-06
6.10124e-06
6.1013e-06
6.10135e-06
6.1014e-06
6.10145e-06
6.1015e-06
6.10156e-06
6.10164e-06
6.10175e-06
6.1019e-06
6.10209e-06
6.10234e-06
6.10268e-06
6.10315e-06
6.1038e-06
6.10461e-06
6.10556e-06
6.1067e-06
6.10804e-06
6.10907e-06
6.1181e-06
6.08287e-06
6.30715e-06
5.32712e-06
9.35313e-06
1.69031e-06
5.80361e-10
6.10298e-06
6.10266e-06
6.10172e-06
6.1004e-06
6.10067e-06
6.1008e-06
6.10053e-06
6.10006e-06
6.09968e-06
6.09939e-06
6.09921e-06
6.09907e-06
6.09891e-06
6.09881e-06
6.09875e-06
6.09876e-06
6.09881e-06
6.09892e-06
6.09906e-06
6.09926e-06
6.09948e-06
6.09974e-06
6.10002e-06
6.10031e-06
6.1006e-06
6.10086e-06
6.1011e-06
6.10131e-06
6.10147e-06
6.10159e-06
6.10167e-06
6.10167e-06
6.10168e-06
6.10174e-06
6.10187e-06
6.1021e-06
6.10233e-06
6.10364e-06
6.10339e-06
6.10223e-06
6.10172e-06
6.10128e-06
6.10101e-06
6.10082e-06
6.10072e-06
6.10075e-06
6.10084e-06
6.10094e-06
6.10105e-06
6.10116e-06
6.10125e-06
6.10133e-06
6.1014e-06
6.10146e-06
6.10151e-06
6.10156e-06
6.10161e-06
6.10167e-06
6.10174e-06
6.10183e-06
6.10195e-06
6.10211e-06
6.10231e-06
6.1026e-06
6.103e-06
6.10354e-06
6.10425e-06
6.10512e-06
6.10606e-06
6.1076e-06
6.10705e-06
6.1178e-06
6.08121e-06
6.23923e-06
5.75695e-06
6.87963e-06
6.8803e-06
9.88866e-08
6.10271e-06
6.10251e-06
6.10164e-06
6.10036e-06
6.10053e-06
6.10062e-06
6.10035e-06
6.0999e-06
6.09952e-06
6.09923e-06
6.09905e-06
6.0989e-06
6.09874e-06
6.09865e-06
6.0986e-06
6.09861e-06
6.09866e-06
6.09876e-06
6.09889e-06
6.09907e-06
6.09929e-06
6.09955e-06
6.09982e-06
6.10011e-06
6.10041e-06
6.10068e-06
6.10093e-06
6.10116e-06
6.10135e-06
6.10151e-06
6.10162e-06
6.10169e-06
6.10169e-06
6.1017e-06
6.10177e-06
6.10192e-06
6.10213e-06
6.10316e-06
6.10311e-06
6.10197e-06
6.10148e-06
6.10104e-06
6.10083e-06
6.10071e-06
6.10067e-06
6.10075e-06
6.10087e-06
6.10098e-06
6.10111e-06
6.10123e-06
6.10133e-06
6.10142e-06
6.1015e-06
6.10157e-06
6.10163e-06
6.10168e-06
6.10174e-06
6.1018e-06
6.10187e-06
6.10195e-06
6.10205e-06
6.10218e-06
6.10235e-06
6.10258e-06
6.10292e-06
6.10338e-06
6.10397e-06
6.10474e-06
6.10557e-06
6.10699e-06
6.10679e-06
6.11366e-06
6.09723e-06
6.14905e-06
6.08107e-06
5.86821e-06
8.45237e-06
1.75312e-06
6.10245e-06
6.10234e-06
6.10154e-06
6.10032e-06
6.10039e-06
6.10044e-06
6.10017e-06
6.09975e-06
6.09937e-06
6.09908e-06
6.0989e-06
6.09874e-06
6.09859e-06
6.0985e-06
6.09846e-06
6.09847e-06
6.09852e-06
6.09861e-06
6.09874e-06
6.09891e-06
6.09911e-06
6.09935e-06
6.09963e-06
6.09992e-06
6.10021e-06
6.10048e-06
6.10074e-06
6.10098e-06
6.1012e-06
6.10138e-06
6.10153e-06
6.10164e-06
6.1017e-06
6.10168e-06
6.10171e-06
6.10181e-06
6.10197e-06
6.10285e-06
6.1028e-06
6.10173e-06
6.10125e-06
6.10083e-06
6.10069e-06
6.10063e-06
6.10065e-06
6.10077e-06
6.1009e-06
6.10103e-06
6.10117e-06
6.1013e-06
6.10142e-06
6.10152e-06
6.10161e-06
6.10169e-06
6.10176e-06
6.10182e-06
6.10189e-06
6.10195e-06
6.10202e-06
6.10209e-06
6.10219e-06
6.1023e-06
6.10244e-06
6.10264e-06
6.10292e-06
6.10331e-06
6.10381e-06
6.10447e-06
6.10522e-06
6.10634e-06
6.10695e-06
6.10961e-06
6.1095e-06
6.10263e-06
6.19346e-06
5.73827e-06
7.53589e-06
4.64543e-06
6.10219e-06
6.10216e-06
6.10144e-06
6.10026e-06
6.10026e-06
6.10027e-06
6.1e-06
6.09958e-06
6.09922e-06
6.09895e-06
6.09875e-06
6.09858e-06
6.09844e-06
6.09837e-06
6.09834e-06
6.09835e-06
6.0984e-06
6.09848e-06
6.0986e-06
6.09875e-06
6.09894e-06
6.09917e-06
6.09943e-06
6.09971e-06
6.09999e-06
6.10026e-06
6.10052e-06
6.10078e-06
6.10101e-06
6.10122e-06
6.1014e-06
6.10155e-06
6.10165e-06
6.1017e-06
6.10171e-06
6.10176e-06
6.10187e-06
6.10262e-06
6.10257e-06
6.10151e-06
6.10105e-06
6.10066e-06
6.10059e-06
6.10059e-06
6.10065e-06
6.10078e-06
6.10093e-06
6.10108e-06
6.10123e-06
6.10137e-06
6.1015e-06
6.10161e-06
6.10171e-06
6.1018e-06
6.10188e-06
6.10195e-06
6.10202e-06
6.10209e-06
6.10216e-06
6.10223e-06
6.10232e-06
6.10243e-06
6.10255e-06
6.10272e-06
6.10296e-06
6.1033e-06
6.10374e-06
6.1043e-06
6.10499e-06
6.10584e-06
6.10692e-06
6.10745e-06
6.11313e-06
6.09392e-06
6.18267e-06
5.89757e-06
6.59707e-06
6.15601e-06
6.10194e-06
6.10197e-06
6.10132e-06
6.1002e-06
6.10013e-06
6.1001e-06
6.09982e-06
6.09942e-06
6.09907e-06
6.09881e-06
6.0986e-06
6.09842e-06
6.09831e-06
6.09825e-06
6.09822e-06
6.09824e-06
6.09828e-06
6.09835e-06
6.09845e-06
6.09859e-06
6.09876e-06
6.09898e-06
6.09923e-06
6.0995e-06
6.09977e-06
6.10005e-06
6.10031e-06
6.10057e-06
6.10082e-06
6.10105e-06
6.10126e-06
6.10144e-06
6.10158e-06
6.10168e-06
6.10171e-06
6.10173e-06
6.10179e-06
6.10243e-06
6.10239e-06
6.10131e-06
6.10088e-06
6.10053e-06
6.10052e-06
6.10056e-06
6.10065e-06
6.1008e-06
6.10096e-06
6.10113e-06
6.10129e-06
6.10145e-06
6.10158e-06
6.10171e-06
6.10182e-06
6.10192e-06
6.10201e-06
6.10209e-06
6.10217e-06
6.10224e-06
6.10232e-06
6.10239e-06
6.10248e-06
6.10258e-06
6.10269e-06
6.10284e-06
6.10305e-06
6.10334e-06
6.10372e-06
6.10421e-06
6.10483e-06
6.10553e-06
6.10665e-06
6.10681e-06
6.11186e-06
6.09993e-06
6.14395e-06
6.0464e-06
6.16621e-06
6.40772e-06
6.10171e-06
6.10178e-06
6.10119e-06
6.10013e-06
6.1e-06
6.09993e-06
6.09964e-06
6.09925e-06
6.09892e-06
6.09866e-06
6.09845e-06
6.09829e-06
6.09819e-06
6.09813e-06
6.0981e-06
6.09811e-06
6.09815e-06
6.09821e-06
6.09831e-06
6.09843e-06
6.09859e-06
6.09879e-06
6.09903e-06
6.09929e-06
6.09956e-06
6.09983e-06
6.10009e-06
6.10036e-06
6.10062e-06
6.10086e-06
6.10109e-06
6.1013e-06
6.10147e-06
6.10161e-06
6.10169e-06
6.10169e-06
6.10172e-06
6.10225e-06
6.10223e-06
6.10112e-06
6.10074e-06
6.10044e-06
6.10047e-06
6.10054e-06
6.10064e-06
6.10082e-06
6.101e-06
6.10117e-06
6.10135e-06
6.10152e-06
6.10167e-06
6.1018e-06
6.10193e-06
6.10203e-06
6.10213e-06
6.10222e-06
6.10231e-06
6.10239e-06
6.10247e-06
6.10255e-06
6.10264e-06
6.10273e-06
6.10284e-06
6.10298e-06
6.10316e-06
6.10341e-06
6.10375e-06
6.10417e-06
6.10472e-06
6.10535e-06
6.10631e-06
6.10677e-06
6.10966e-06
6.10633e-06
6.1182e-06
6.11344e-06
6.06172e-06
6.27852e-06
6.10149e-06
6.10159e-06
6.10105e-06
6.10004e-06
6.09986e-06
6.09976e-06
6.09947e-06
6.09908e-06
6.09875e-06
6.0985e-06
6.0983e-06
6.09815e-06
6.09806e-06
6.098e-06
6.09798e-06
6.09798e-06
6.09802e-06
6.09807e-06
6.09816e-06
6.09827e-06
6.09842e-06
6.09861e-06
6.09883e-06
6.09908e-06
6.09935e-06
6.0996e-06
6.09987e-06
6.10013e-06
6.1004e-06
6.10065e-06
6.1009e-06
6.10113e-06
6.10133e-06
6.1015e-06
6.10162e-06
6.10167e-06
6.10168e-06
6.1021e-06
6.1021e-06
6.10096e-06
6.10062e-06
6.10036e-06
6.10043e-06
6.10052e-06
6.10065e-06
6.10084e-06
6.10103e-06
6.10122e-06
6.10141e-06
6.10159e-06
6.10175e-06
6.10189e-06
6.10203e-06
6.10215e-06
6.10226e-06
6.10236e-06
6.10246e-06
6.10254e-06
6.10263e-06
6.10272e-06
6.10281e-06
6.10291e-06
6.10301e-06
6.10313e-06
6.1033e-06
6.10352e-06
6.10381e-06
6.10419e-06
6.10468e-06
6.10525e-06
6.10604e-06
6.10677e-06
6.10818e-06
6.10921e-06
6.10875e-06
6.12606e-06
6.07436e-06
6.16164e-06
6.10127e-06
6.10139e-06
6.1009e-06
6.09994e-06
6.09972e-06
6.09958e-06
6.09928e-06
6.0989e-06
6.09858e-06
6.09834e-06
6.09815e-06
6.09801e-06
6.09792e-06
6.09786e-06
6.09784e-06
6.09785e-06
6.09787e-06
6.09793e-06
6.098e-06
6.09811e-06
6.09825e-06
6.09843e-06
6.09864e-06
6.09888e-06
6.09913e-06
6.09938e-06
6.09963e-06
6.0999e-06
6.10016e-06
6.10043e-06
6.10069e-06
6.10094e-06
6.10116e-06
6.10136e-06
6.10152e-06
6.10161e-06
6.10162e-06
6.10195e-06
6.10199e-06
6.10079e-06
6.1005e-06
6.10029e-06
6.10039e-06
6.10051e-06
6.10065e-06
6.10086e-06
6.10107e-06
6.10127e-06
6.10147e-06
6.10166e-06
6.10183e-06
6.10199e-06
6.10213e-06
6.10226e-06
6.10238e-06
6.10249e-06
6.1026e-06
6.1027e-06
6.10279e-06
6.10289e-06
6.10298e-06
6.10308e-06
6.10319e-06
6.10331e-06
6.10346e-06
6.10366e-06
6.10392e-06
6.10425e-06
6.10468e-06
6.10521e-06
6.10587e-06
6.10669e-06
6.10752e-06
6.10955e-06
6.10764e-06
6.12041e-06
6.10017e-06
6.11631e-06
6.10107e-06
6.10119e-06
6.10073e-06
6.09983e-06
6.09957e-06
6.0994e-06
6.09909e-06
6.09871e-06
6.0984e-06
6.09817e-06
6.09798e-06
6.09785e-06
6.09777e-06
6.09772e-06
6.09769e-06
6.0977e-06
6.09773e-06
6.09778e-06
6.09785e-06
6.09795e-06
6.09808e-06
6.09824e-06
6.09844e-06
6.09867e-06
6.09891e-06
6.09915e-06
6.0994e-06
6.09966e-06
6.09993e-06
6.1002e-06
6.10048e-06
6.10074e-06
6.10098e-06
6.10121e-06
6.10139e-06
6.10154e-06
6.10153e-06
6.10177e-06
6.10186e-06
6.10064e-06
6.10038e-06
6.10022e-06
6.10035e-06
6.10049e-06
6.10065e-06
6.10088e-06
6.1011e-06
6.10132e-06
6.10153e-06
6.10173e-06
6.10191e-06
6.10208e-06
6.10223e-06
6.10237e-06
6.10251e-06
6.10263e-06
6.10274e-06
6.10285e-06
6.10296e-06
6.10306e-06
6.10316e-06
6.10327e-06
6.10338e-06
6.1035e-06
6.10364e-06
6.10382e-06
6.10405e-06
6.10435e-06
6.10473e-06
6.10521e-06
6.10579e-06
6.10657e-06
6.10729e-06
6.109e-06
6.10861e-06
6.11426e-06
6.11244e-06
6.10993e-06
6.10087e-06
6.10099e-06
6.10057e-06
6.09971e-06
6.09941e-06
6.09921e-06
6.09889e-06
6.09852e-06
6.09821e-06
6.09799e-06
6.09781e-06
6.09769e-06
6.09761e-06
6.09756e-06
6.09754e-06
6.09755e-06
6.09758e-06
6.09762e-06
6.09769e-06
6.09778e-06
6.0979e-06
6.09805e-06
6.09824e-06
6.09846e-06
6.09869e-06
6.09892e-06
6.09916e-06
6.09942e-06
6.09969e-06
6.09996e-06
6.10024e-06
6.10051e-06
6.10078e-06
6.10103e-06
6.10124e-06
6.10142e-06
6.10146e-06
6.10162e-06
6.10174e-06
6.10049e-06
6.10027e-06
6.10015e-06
6.10031e-06
6.10047e-06
6.10066e-06
6.1009e-06
6.10113e-06
6.10136e-06
6.10159e-06
6.10179e-06
6.10199e-06
6.10217e-06
6.10233e-06
6.10248e-06
6.10262e-06
6.10275e-06
6.10288e-06
6.103e-06
6.10311e-06
6.10323e-06
6.10334e-06
6.10345e-06
6.10356e-06
6.10368e-06
6.10382e-06
6.10399e-06
6.10421e-06
6.10448e-06
6.10482e-06
6.10525e-06
6.10578e-06
6.10648e-06
6.10721e-06
6.10846e-06
6.10923e-06
6.11139e-06
6.11445e-06
6.1134e-06
6.10068e-06
6.1008e-06
6.1004e-06
6.09958e-06
6.09925e-06
6.09902e-06
6.09869e-06
6.09832e-06
6.09802e-06
6.0978e-06
6.09763e-06
6.09751e-06
6.09743e-06
6.09739e-06
6.09738e-06
6.09739e-06
6.09741e-06
6.09746e-06
6.09752e-06
6.09761e-06
6.09772e-06
6.09786e-06
6.09804e-06
6.09824e-06
6.09846e-06
6.09868e-06
6.09892e-06
6.09916e-06
6.09943e-06
6.0997e-06
6.09999e-06
6.10027e-06
6.10055e-06
6.10081e-06
6.10105e-06
6.10126e-06
6.10137e-06
6.10147e-06
6.10164e-06
6.10035e-06
6.10017e-06
6.10008e-06
6.10027e-06
6.10045e-06
6.10066e-06
6.10091e-06
6.10116e-06
6.1014e-06
6.10164e-06
6.10186e-06
6.10206e-06
6.10225e-06
6.10242e-06
6.10258e-06
6.10274e-06
6.10288e-06
6.10302e-06
6.10315e-06
6.10327e-06
6.10339e-06
6.10352e-06
6.10364e-06
6.10375e-06
6.10388e-06
6.10401e-06
6.10417e-06
6.10437e-06
6.10462e-06
6.10494e-06
6.10533e-06
6.10582e-06
6.10644e-06
6.10716e-06
6.10815e-06
6.10927e-06
6.11062e-06
6.11313e-06
6.11573e-06
6.1005e-06
6.10061e-06
6.10023e-06
6.09944e-06
6.09908e-06
6.09882e-06
6.09848e-06
6.09811e-06
6.09782e-06
6.0976e-06
6.09744e-06
6.09733e-06
6.09726e-06
6.09722e-06
6.09721e-06
6.09721e-06
6.09724e-06
6.09728e-06
6.09734e-06
6.09742e-06
6.09753e-06
6.09766e-06
6.09782e-06
6.09802e-06
6.09822e-06
6.09844e-06
6.09866e-06
6.0989e-06
6.09916e-06
6.09944e-06
6.09972e-06
6.10001e-06
6.1003e-06
6.10058e-06
6.10084e-06
6.10107e-06
6.10125e-06
6.1013e-06
6.10152e-06
6.10021e-06
6.10007e-06
6.10001e-06
6.10023e-06
6.10043e-06
6.10065e-06
6.10093e-06
6.10119e-06
6.10144e-06
6.10169e-06
6.10192e-06
6.10213e-06
6.10233e-06
6.10252e-06
6.10269e-06
6.10285e-06
6.103e-06
6.10315e-06
6.10329e-06
6.10343e-06
6.10356e-06
6.10369e-06
6.10382e-06
6.10395e-06
6.10408e-06
6.10421e-06
6.10437e-06
6.10456e-06
6.10479e-06
6.10508e-06
6.10544e-06
6.10589e-06
6.10645e-06
6.10714e-06
6.10801e-06
6.10908e-06
6.11051e-06
6.11181e-06
6.1159e-06
6.10033e-06
6.10042e-06
6.10005e-06
6.09928e-06
6.0989e-06
6.09862e-06
6.09826e-06
6.09789e-06
6.09761e-06
6.0974e-06
6.09724e-06
6.09713e-06
6.09707e-06
6.09703e-06
6.09702e-06
6.09703e-06
6.09705e-06
6.09709e-06
6.09715e-06
6.09723e-06
6.09732e-06
6.09744e-06
6.0976e-06
6.09778e-06
6.09798e-06
6.09818e-06
6.0984e-06
6.09863e-06
6.09888e-06
6.09915e-06
6.09944e-06
6.09973e-06
6.10003e-06
6.10033e-06
6.10061e-06
6.10086e-06
6.10109e-06
6.10113e-06
6.10139e-06
6.10008e-06
6.09996e-06
6.09995e-06
6.10018e-06
6.1004e-06
6.10065e-06
6.10094e-06
6.10121e-06
6.10148e-06
6.10174e-06
6.10198e-06
6.1022e-06
6.10241e-06
6.1026e-06
6.10279e-06
6.10296e-06
6.10312e-06
6.10328e-06
6.10344e-06
6.10358e-06
6.10373e-06
6.10387e-06
6.10401e-06
6.10414e-06
6.10428e-06
6.10442e-06
6.10457e-06
6.10475e-06
6.10497e-06
6.10524e-06
6.10557e-06
6.10599e-06
6.1065e-06
6.10714e-06
6.10795e-06
6.10888e-06
6.11043e-06
6.11113e-06
6.1152e-06
6.10016e-06
6.10022e-06
6.09986e-06
6.09912e-06
6.09871e-06
6.0984e-06
6.09804e-06
6.09767e-06
6.09739e-06
6.09718e-06
6.09703e-06
6.09692e-06
6.09686e-06
6.09683e-06
6.09682e-06
6.09683e-06
6.09685e-06
6.09689e-06
6.09694e-06
6.09702e-06
6.0971e-06
6.09722e-06
6.09736e-06
6.09753e-06
6.09772e-06
6.09791e-06
6.09812e-06
6.09834e-06
6.09859e-06
6.09885e-06
6.09914e-06
6.09943e-06
6.09973e-06
6.10004e-06
6.10034e-06
6.10061e-06
6.10088e-06
6.10097e-06
6.10129e-06
6.09994e-06
6.09986e-06
6.09987e-06
6.10014e-06
6.10038e-06
6.10064e-06
6.10094e-06
6.10123e-06
6.10151e-06
6.10178e-06
6.10203e-06
6.10226e-06
6.10248e-06
6.10269e-06
6.10288e-06
6.10307e-06
6.10324e-06
6.10341e-06
6.10357e-06
6.10373e-06
6.10389e-06
6.10404e-06
6.10419e-06
6.10434e-06
6.10448e-06
6.10462e-06
6.10478e-06
6.10495e-06
6.10517e-06
6.10542e-06
6.10573e-06
6.10611e-06
6.10659e-06
6.10718e-06
6.10794e-06
6.10877e-06
6.11029e-06
6.11082e-06
6.1145e-06
6.09998e-06
6.10003e-06
6.09967e-06
6.09894e-06
6.09851e-06
6.09817e-06
6.0978e-06
6.09744e-06
6.09715e-06
6.09695e-06
6.0968e-06
6.09671e-06
6.09665e-06
6.09662e-06
6.09661e-06
6.09662e-06
6.09664e-06
6.09667e-06
6.09672e-06
6.09679e-06
6.09687e-06
6.09697e-06
6.09711e-06
6.09727e-06
6.09744e-06
6.09762e-06
6.09782e-06
6.09804e-06