/*--------------------------------*- C++ -*----------------------------------*\
| =========                 |                                                 |
| \\      /  F ield         | OpenFOAM: The Open Source CFD Toolbox           |
|  \\    /   O peration     | Version:  2206                                  |
|   \\  /    A nd           | Website:  www.openfoam.com                      |
|    \\/     M anipulation  |                                                 |
\*---------------------------------------------------------------------------*/
FoamFile
{
    version     2.0;
    format      ascii;
    arch        "LSB;label=32;scalar=64";
    class       volSymmTensorField;
    location    "250";
    object      turbulenceProperties:devReff;
}
// * * * * * * * * * * * * * * * * * * * * * * * * * * * * * * * * * * * * * //

dimensions      [0 2 -2 0 0 0 0];

internalField   nonuniform List<symmTensor> 
10720
(
(0.00163723 0.00425914 -1.65939e-21 -0.00177389 -6.22887e-20 0.00013666)
(0.0023888 0.00488151 1.0655e-21 -0.0024868 6.81853e-20 9.79966e-05)
(0.00361163 0.00546224 1.6013e-20 -0.00380894 6.77096e-20 0.000197312)
(0.00524685 0.00621664 7.50152e-20 -0.00549293 6.12663e-19 0.000246081)
(0.00742628 0.00687527 -3.04706e-19 -0.00769503 -1.22094e-18 0.00026875)
(0.0104059 0.00726377 -3.61619e-19 -0.0107974 -7.37122e-19 0.000391578)
(0.0143016 0.00737644 1.2773e-19 -0.014788 1.23512e-20 0.000486416)
(0.0191909 0.00686074 6.94476e-20 -0.0197736 1.09809e-19 0.000582762)
(0.025243 0.00535295 1.80893e-19 -0.0259898 -1.46119e-19 0.000746766)
(0.0325692 0.00260717 -2.77774e-20 -0.0334699 -2.78688e-20 0.000900682)
(0.0413479 -0.00189763 3.18826e-18 -0.0424396 1.28514e-18 0.00109173)
(0.0519661 -0.00873432 -7.59534e-19 -0.0532841 -5.83347e-19 0.00131806)
(0.0649648 -0.0188231 1.53619e-18 -0.0665582 -2.30644e-18 0.00159345)
(0.0812551 -0.0337519 7.49355e-19 -0.0832103 1.60782e-18 0.00195512)
(0.102376 -0.0561728 1.17606e-18 -0.104842 -2.08504e-18 0.00246658)
(0.130543 -0.0904134 4.81615e-19 -0.133718 7.34183e-18 0.003175)
(0.169885 -0.145065 3.69825e-17 -0.174192 1.96914e-17 0.00430687)
(0.224317 -0.232473 -1.0368e-17 -0.230199 1.39446e-17 0.00588154)
(0.310881 -0.388852 -4.1508e-18 -0.319495 -6.73881e-17 0.00861374)
(0.426607 -0.642076 2.23026e-18 -0.438786 -4.33257e-19 0.0121787)
(0.666408 -1.21373 -6.59848e-17 -0.685792 -8.96514e-17 0.0193833)
(0.94613 -2.11647 1.57694e-16 -0.972266 4.77276e-16 0.026136)
(1.76396 -5.12607 -2.57025e-16 -1.81606 -9.29707e-16 0.0521047)
(2.42957 -10.3199 4.52681e-16 -2.51302 1.24123e-16 0.0834486)
(1.53134 -11.6716 -2.48393e-16 -1.57248 -1.19185e-17 0.0411337)
(0.528093 -11.2582 2.09873e-17 -0.516601 -1.27972e-15 -0.0114922)
(-0.145942 -11.0743 2.69909e-16 0.175812 -6.42624e-17 -0.02987)
(-0.666436 -11.2574 1.95479e-16 0.691244 4.12316e-16 -0.0248076)
(-1.13897 -11.4713 1.15123e-15 1.15538 5.59501e-16 -0.0164146)
(-1.57545 -11.4834 1.05082e-15 1.58377 4.51008e-15 -0.0083143)
(-1.96243 -11.2674 -2.01426e-15 1.9607 -1.73948e-15 0.00173163)
(-2.27883 -10.8592 -2.18091e-15 2.26834 -3.02251e-15 0.0104876)
(-2.49954 -10.2446 -9.25332e-16 2.48458 -3.97308e-15 0.0149583)
(-2.61176 -9.43713 -2.97075e-15 2.59635 -5.58116e-15 0.0154065)
(-2.59662 -8.42865 1.07478e-15 2.58238 2.92402e-15 0.0142385)
(-2.44343 -7.24985 1.80785e-16 2.43238 2.16758e-15 0.0110518)
(-2.08291 -5.69649 -4.6436e-17 2.06946 3.7178e-18 0.0134499)
(-1.59504 -4.192 -1.79589e-15 1.59324 -1.10193e-16 0.00180393)
(-0.476816 -0.936441 -3.6111e-16 0.477567 -1.69628e-15 -0.000750864)
(0.000967969 0.00371425 1.24832e-21 -0.0010199 -4.47068e-21 5.1927e-05)
(0.000549489 0.00319825 -6.72726e-21 -0.000639574 6.83147e-21 9.00849e-05)
(0.000178989 0.00261204 -3.68942e-20 -0.000226099 -2.56572e-20 4.71094e-05)
(-6.74899e-05 0.00209048 3.82292e-20 3.33251e-05 -5.46282e-20 3.41648e-05)
(-0.000179722 0.0015975 -4.70204e-20 0.000161399 -4.68724e-20 1.83236e-05)
(-0.000173078 0.00116765 -2.41026e-19 0.000173432 2.92645e-19 -3.53337e-07)
(-8.44533e-05 0.000835614 8.13856e-20 0.000108524 2.73096e-19 -2.40707e-05)
(5.44063e-05 0.000637104 -4.34928e-20 -1.66998e-05 -3.89524e-19 -3.77065e-05)
(0.000230949 0.000621177 2.00729e-19 -0.000204516 4.97046e-21 -2.64323e-05)
(0.0004708 0.000742022 -1.48249e-19 -0.000467481 -4.26303e-20 -3.31889e-06)
(0.000811694 0.00102639 1.27528e-19 -0.000822319 3.0744e-19 1.06248e-05)
(0.00130551 0.00156572 2.6065e-19 -0.00132348 -1.22021e-19 1.79627e-05)
(0.00202303 0.0025245 -2.59343e-19 -0.00205317 -7.48119e-20 3.01388e-05)
(0.00305399 0.00413532 1.58961e-20 -0.00310524 1.13963e-19 5.12545e-05)
(0.00447098 0.00664197 9.4096e-19 -0.00454586 2.00319e-19 7.48856e-05)
(0.00629665 0.0103341 9.0176e-19 -0.00640529 -1.90338e-19 0.000108639)
(0.00863601 0.01563 4.084e-19 -0.00878169 6.37036e-19 0.000145677)
(0.0117363 0.0234176 2.9632e-19 -0.0119344 6.29405e-19 0.000198078)
(0.0161432 0.0354402 3.13314e-19 -0.0164115 -1.76982e-19 0.000268251)
(0.0226818 0.054984 5.91426e-19 -0.0230721 2.58733e-20 0.000390376)
(0.0329317 0.0885944 -8.89445e-19 -0.0335224 -5.39492e-18 0.000590691)
(0.0490597 0.148491 -3.13062e-18 -0.0500387 -1.03267e-19 0.000979032)
(0.0756859 0.263693 2.96878e-18 -0.0774631 5.24271e-18 0.0017772)
(0.116254 0.48766 2.14182e-18 -0.119889 -5.6691e-19 0.00363541)
(0.183204 0.979262 7.46958e-17 -0.191048 -1.51704e-17 0.00784399)
(0.277887 2.01726 -1.12071e-18 -0.294257 -1.16454e-17 0.0163705)
(0.409982 4.53204 1.98798e-19 -0.448448 7.32706e-18 0.0384659)
(0.421106 9.36803 2.28095e-18 -0.5014 -7.00757e-20 0.0802937)
(0.00810541 13.2908 3.23016e-19 -0.112233 4.37448e-21 0.104128)
(-0.628714 14.9586 3.64861e-16 0.530395 5.16347e-18 0.0983188)
(-1.26777 15.3975 -4.1607e-18 1.18554 -2.15107e-19 0.0822339)
(-1.85311 15.4174 -2.63769e-17 1.78578 3.57819e-17 0.0673301)
(-2.37724 15.2553 -2.24275e-15 2.32145 -1.86365e-16 0.0557883)
(-2.83297 14.9552 -4.0248e-15 2.78608 -2.60938e-16 0.0468965)
(-3.21833 14.533 3.58575e-15 3.178 3.91532e-16 0.0403224)
(-3.53736 14.0099 -2.69395e-17 3.5021 1.37977e-16 0.0352586)
(-3.77491 13.2865 1.45744e-18 3.74283 -5.29304e-16 0.0320827)
(-3.91888 12.4688 -1.94325e-16 3.88888 2.83799e-16 0.0299925)
(-3.63917 10.064 -3.50993e-15 3.63256 1.27297e-16 0.00660765)
(0.000579448 -0.000460595 -4.14456e-21 -0.000520046 -1.26861e-20 -5.94021e-05)
(0.00049261 -0.000547415 7.54702e-21 -0.000425475 1.70811e-20 -6.7135e-05)
(0.000371412 -0.000623001 -3.39711e-22 -0.000291073 4.791e-23 -8.03389e-05)
(0.000250511 -0.00065222 1.57265e-20 -0.00015856 2.33678e-21 -9.19506e-05)
(0.000133141 -0.00064514 1.07383e-20 -3.25266e-05 9.34229e-20 -0.000100614)
(2.31356e-05 -0.000610505 7.12242e-20 8.62064e-05 1.24538e-19 -0.000109342)
(-6.02896e-05 -0.000551415 -3.56675e-20 0.000177218 5.74351e-21 -0.000116928)
(-0.000116628 -0.000479016 -3.00611e-20 0.000238483 -7.89138e-21 -0.000121855)
(-0.000149287 -0.000404783 -1.69131e-19 0.000274585 -1.86841e-19 -0.000125298)
(-0.000157988 -0.00033601 -5.64647e-20 0.000285254 -1.85984e-20 -0.000127266)
(-0.000150081 -0.00027832 -4.89711e-19 0.000276993 -4.78366e-19 -0.000126912)
(-0.000132626 -0.000239983 -5.85838e-21 0.000258872 8.03708e-20 -0.000126246)
(-0.000110847 -0.000226176 -2.60771e-19 0.00024074 7.71902e-21 -0.000129893)
(-8.61984e-05 -0.000245882 1.94022e-19 0.000231103 1.15314e-19 -0.000144905)
(-4.84444e-05 -0.000344776 -5.28099e-19 0.000241442 -1.53968e-19 -0.000192998)
(6.27127e-05 -0.000658954 1.92915e-18 0.000258207 4.67503e-19 -0.00032092)
(0.00045556 -0.00154848 -3.34751e-18 0.000141824 -2.90966e-18 -0.000597384)
(0.00150289 -0.00355047 -5.74597e-18 -0.000499573 -2.32803e-18 -0.00100332)
(0.00420328 -0.00867297 -1.19181e-17 -0.00253577 5.02842e-18 -0.00166751)
(0.0104811 -0.0211535 2.34404e-18 -0.00789665 -2.04216e-20 -0.00258449)
(0.0294857 -0.0625603 2.18895e-17 -0.0250712 3.22904e-17 -0.00441448)
(0.074001 -0.174606 -4.17142e-17 -0.0677806 -1.2688e-16 -0.00622035)
(0.194924 -0.544981 -2.19265e-18 -0.187119 2.27463e-16 -0.00780449)
(0.503457 -1.78106 5.21699e-18 -0.500657 -8.73787e-17 -0.00279971)
(0.74684 -3.53859 -0 -0.770472 -0 0.0236313)
(0.78708 -5.37845 -2.54946e-17 -0.841333 6.05076e-16 0.0542537)
(0.601463 -7.1249 -6.80659e-17 -0.673219 4.67284e-17 0.0717566)
(0.204282 -8.36926 -1.10296e-16 -0.279684 -4.74097e-16 0.075402)
(-0.294032 -8.61813 -9.73719e-16 0.228187 -2.62156e-15 0.0658443)
(-0.705353 -7.88739 3.87723e-16 0.664194 -8.27844e-15 0.0411593)
(-0.929971 -6.68654 -1.09272e-16 0.921531 5.63108e-15 0.00844004)
(-0.997447 -5.47429 -3.39161e-16 1.01555 7.38088e-15 -0.0181025)
(-0.983803 -4.49492 -2.20025e-15 1.01361 4.26405e-15 -0.0298062)
(-0.930351 -3.7503 6.48048e-15 0.96007 1.5413e-14 -0.0297185)
(-0.863437 -3.18351 -4.12039e-16 0.887527 -2.75802e-15 -0.02409)
(-0.781403 -2.74106 6.24222e-15 0.801925 -3.67791e-15 -0.020522)
(-0.730751 -2.43025 -2.23882e-16 0.74416 4.92351e-17 -0.0134086)
(-0.561091 -2.13697 3.18313e-15 0.596342 7.14196e-16 -0.0352506)
(-0.785325 -2.25193 5.73674e-15 0.696822 6.56242e-15 0.0885025)
(0.000645682 -0.000345079 4.77901e-21 -0.000595436 1.56473e-20 -5.02469e-05)
(0.000684461 -0.000224683 -3.07014e-21 -0.000637491 -6.55314e-20 -4.69701e-05)
(0.000691749 -7.6462e-05 -4.11626e-20 -0.000654699 -1.37315e-19 -3.70501e-05)
(0.00065432 8.66222e-05 7.55958e-21 -0.000627716 1.94437e-19 -2.66038e-05)
(0.000565164 0.000235256 8.96195e-20 -0.000551025 -8.44512e-20 -1.41393e-05)
(0.000429367 0.000348886 -2.54157e-20 -0.000425697 -1.38454e-19 -3.66993e-06)
(0.000271294 0.000405981 1.3779e-19 -0.0002747 -2.98062e-19 3.40698e-06)
(0.000131158 0.000406963 -2.33402e-19 -0.000140224 -3.16826e-20 9.06652e-06)
(2.29239e-05 0.000374125 -1.28271e-19 -3.34335e-05 2.91659e-19 1.05096e-05)
(-6.62583e-05 0.000316385 -3.90761e-20 6.00263e-05 -1.49731e-20 6.23207e-06)
(-0.000121727 0.000243661 -6.45507e-20 0.000123136 -1.47674e-19 -1.40906e-06)
(-0.000141733 0.000176701 1.34277e-20 0.000150044 -7.86934e-20 -8.3116e-06)
(-0.000139957 0.000124421 5.41254e-20 0.000152753 1.38983e-19 -1.27969e-05)
(-0.000127561 8.66472e-05 -4.75605e-20 0.000142821 -3.23958e-20 -1.52602e-05)
(-0.000111039 6.09042e-05 -2.77717e-20 0.000127489 -9.94751e-20 -1.64501e-05)
(-9.41881e-05 4.40132e-05 -9.91211e-20 0.000110941 -3.02947e-20 -1.67531e-05)
(-7.86812e-05 3.33952e-05 -1.76432e-20 9.50926e-05 -2.34293e-22 -1.64114e-05)
(-6.53899e-05 2.68778e-05 -1.13778e-21 8.10386e-05 -1.02427e-20 -1.56488e-05)
(-5.43336e-05 2.27369e-05 -1.13162e-20 6.89882e-05 8.15535e-21 -1.46547e-05)
(-4.5285e-05 1.99667e-05 1.97258e-20 5.89142e-05 -6.73892e-21 -1.36291e-05)
(-3.79969e-05 1.79344e-05 -1.19554e-19 5.07268e-05 8.85276e-20 -1.27299e-05)
(-3.2672e-05 1.64707e-05 -2.54665e-20 4.49167e-05 5.2789e-21 -1.22447e-05)
(-2.91895e-05 1.552e-05 -9.40644e-22 4.16867e-05 -2.38964e-20 -1.24973e-05)
(-2.68697e-05 1.54971e-05 1.13349e-19 4.05133e-05 6.30988e-21 -1.36436e-05)
(-2.46028e-05 1.72639e-05 -9.8412e-20 3.96848e-05 8.41731e-21 -1.5082e-05)
(-0.000235169 0.000213388 -9.60984e-19 0.000404351 2.11607e-19 -0.000169182)
(-0.00119704 0.00135643 -8.19408e-20 0.00216688 -1.24226e-19 -0.000969833)
(-0.00866777 0.0119928 -6.60082e-21 0.0162479 -3.45361e-19 -0.00758013)
(-0.0262251 0.0459287 -4.97847e-20 0.0499541 -6.76488e-22 -0.023729)
(-0.0449423 0.102712 2.71055e-18 0.0849925 2.21888e-18 -0.0400502)
(-0.0579701 0.170669 1.82381e-19 0.105291 -9.56168e-19 -0.0473208)
(-0.065975 0.235228 4.6569e-18 0.111225 -1.73874e-17 -0.0452499)
(-0.0730147 0.289366 2.45552e-15 0.112015 1.76596e-16 -0.039)
(-0.0819842 0.334927 2.30253e-15 0.114735 1.25946e-16 -0.0327511)
(-0.0941488 0.375372 -2.13831e-15 0.122118 -2.52933e-16 -0.0279696)
(-0.108445 0.415578 2.07403e-15 0.133599 2.7217e-16 -0.0251538)
(-0.128782 0.456234 -3.67729e-15 0.151568 -5.42862e-16 -0.0227857)
(-0.147332 0.552473 -3.423e-15 0.174177 -7.47789e-16 -0.0268452)
(-0.20769 0.776263 -3.41928e-15 0.197454 -1.03281e-16 0.0102361)
(0.000333651 -0.000312862 -1.56804e-21 -0.000360048 -5.6541e-21 2.63968e-05)
(0.00025832 -0.000372332 -3.36497e-20 -0.000290204 -7.93671e-20 3.18846e-05)
(0.000160801 -0.000413599 2.4748e-20 -0.000197937 5.91796e-20 3.71363e-05)
(5.20137e-05 -0.000426389 3.41397e-20 -9.68974e-05 6.46456e-20 4.48837e-05)
(-5.44854e-05 -0.000413092 6.17152e-20 3.59428e-06 8.91434e-20 5.08911e-05)
(-0.000154842 -0.000372458 -1.8934e-19 9.79555e-05 -3.31433e-19 5.68869e-05)
(-0.000239001 -0.000308478 1.32592e-19 0.000175478 2.66189e-19 6.35226e-05)
(-0.000300048 -0.000230724 1.76502e-19 0.00023117 1.57478e-19 6.88783e-05)
(-0.000337806 -0.000145393 -1.01144e-20 0.000264334 2.12932e-20 7.34714e-05)
(-0.000352996 -6.10777e-05 1.06883e-19 0.000275476 1.90588e-19 7.75198e-05)
(-0.000348679 1.66222e-05 -2.31372e-19 0.000268548 -1.09229e-20 8.01311e-05)
(-0.000331399 8.39433e-05 3.14182e-19 0.000250359 3.48648e-19 8.10402e-05)
(-0.000307346 0.000139316 1.47742e-19 0.00022753 6.06625e-20 7.9816e-05)
(-0.000281381 0.000184879 7.38836e-20 0.000204157 -7.05679e-20 7.72236e-05)
(-0.000254057 0.000218772 2.11437e-19 0.000181584 2.08945e-19 7.24733e-05)
(-0.000223626 0.000237402 -5.20215e-19 0.000158768 -5.3061e-19 6.48585e-05)
(-0.000180058 0.000227966 1.16563e-19 0.000128105 1.70467e-19 5.1953e-05)
(-0.000152411 0.000223339 9.29052e-19 0.000110008 2.72523e-19 4.24027e-05)
(-0.000101828 0.000168199 2.12927e-19 7.55689e-05 1.56821e-19 2.62591e-05)
(-8.50335e-05 0.00015336 -6.26735e-20 6.57648e-05 -4.35351e-21 1.92687e-05)
(-0.00180166 0.00345553 1.80388e-18 0.00146682 -3.98197e-18 0.000334833)
(-6.24194e-05 0.000123614 1.71722e-20 5.42613e-05 1.48073e-19 8.1581e-06)
(-0.00135403 0.00159152 2.83616e-17 0.00144271 -5.83817e-18 -8.86839e-05)
(0.00123593 -0.00460055 -5.62859e-18 -0.000995306 -2.34912e-18 -0.000240626)
(0.0117332 -0.0518621 2.3315e-19 -0.00996825 5.89345e-19 -0.00176491)
(0.0312569 -0.187691 -5.58571e-17 -0.0271983 1.59816e-17 -0.00405854)
(0.0523742 -0.482926 1.98215e-17 -0.0464192 8.17875e-18 -0.00595497)
(0.0631572 -1.10108 -2.53877e-17 -0.0559558 -2.09791e-18 -0.00720135)
(0.0250934 -2.18147 -6.32117e-16 -0.0182911 6.4561e-16 -0.00680222)
(-0.118977 -3.60624 -1.08015e-15 0.122217 3.34311e-17 -0.00323979)
(-0.3849 -4.88831 3.89197e-15 0.37982 -1.14646e-15 0.00508037)
(-0.688792 -5.5034 3.17955e-15 0.674487 1.73319e-15 0.0143052)
(-0.902926 -5.35344 -1.535e-16 0.887193 4.29245e-15 0.0157328)
(-0.981186 -4.77785 6.63015e-15 0.972702 -5.03586e-15 0.00848412)
(-0.963447 -4.1209 5.15478e-15 0.961906 -2.92353e-15 0.00154172)
(-0.877567 -3.51752 -9.5741e-15 0.880512 -3.54588e-15 -0.00294538)
(-0.797791 -3.04787 -2.72369e-17 0.79688 -1.69075e-15 0.000910701)
(-0.53163 -2.55257 6.26923e-15 0.547615 -1.59026e-15 -0.0159844)
(-0.841855 -2.80928 -1.31264e-14 0.823836 4.228e-15 0.0180191)
(0.000395277 -0.000236862 -7.37871e-21 -0.000419372 -1.78443e-20 2.40956e-05)
(0.00043559 -0.00015441 -6.13682e-21 -0.00045497 -6.74492e-21 1.93799e-05)
(0.000460058 -5.33353e-05 5.53518e-20 -0.000474991 9.69811e-20 1.49332e-05)
(0.000454789 5.43299e-05 -3.34087e-20 -0.000464238 -1.62936e-21 9.44927e-06)
(0.000415729 0.00016043 7.96942e-21 -0.000421198 4.18129e-20 5.46884e-06)
(0.00034218 0.00024803 -1.30336e-20 -0.000344164 1.32213e-19 1.9838e-06)
(0.000244254 0.000303009 -3.01288e-20 -0.000243946 1.2532e-19 -3.07032e-07)
(0.000141107 0.000319917 3.51213e-19 -0.000141852 2.53621e-19 7.44761e-07)
(4.81802e-05 0.000309285 5.2369e-20 -4.96417e-05 -6.88599e-20 1.46145e-06)
(-2.8305e-05 0.000273958 1.87432e-19 2.72499e-05 2.44971e-20 1.05516e-06)
(-7.85445e-05 0.000221434 -1.45777e-19 7.72169e-05 -9.79436e-20 1.32753e-06)
(-0.000102646 0.000167002 -1.05138e-19 0.000100143 1.61396e-19 2.50298e-06)
(-0.000108692 0.000119397 1.13093e-19 0.000104632 -5.72526e-20 4.06038e-06)
(-0.000104072 8.1035e-05 9.28691e-20 9.83192e-05 -3.38676e-22 5.75278e-06)
(-9.40474e-05 5.20799e-05 -6.67871e-20 8.68776e-05 6.44511e-20 7.16977e-06)
(-8.20442e-05 3.10653e-05 -4.81034e-20 7.36854e-05 1.16129e-19 8.35885e-06)
(-7.02346e-05 1.64308e-05 1.16306e-19 6.10194e-05 -7.13132e-20 9.2152e-06)
(-5.97467e-05 6.3316e-06 1.07992e-19 4.99093e-05 -1.97204e-20 9.83741e-06)
(-5.10688e-05 -7.47616e-07 4.22398e-20 4.08821e-05 -3.74278e-21 1.01867e-05)
(-4.39432e-05 -6.07463e-06 -1.42373e-20 3.35029e-05 5.27037e-20 1.04403e-05)
(-3.80831e-05 -1.03962e-05 1.99657e-19 2.75022e-05 2.47181e-20 1.05809e-05)
(-3.29344e-05 -1.44424e-05 7.91921e-21 2.21645e-05 -3.67314e-20 1.07699e-05)
(-2.77646e-05 -1.86621e-05 -6.31916e-22 1.66981e-05 -2.36102e-21 1.10666e-05)
(-2.10939e-05 -2.26064e-05 -4.34707e-21 9.24401e-06 -2.54249e-20 1.18499e-05)
(-1.29631e-05 -2.4795e-05 -3.56231e-21 -2.26312e-07 1.87264e-20 1.31894e-05)
(-4.81397e-06 -2.40769e-05 3.09779e-19 -9.42946e-06 -1.59068e-20 1.42434e-05)
(2.16468e-06 -2.25454e-05 8.36746e-22 -1.80148e-05 -2.44017e-23 1.58501e-05)
(5.47162e-06 -1.38268e-05 -2.36689e-20 -1.7647e-05 1.33081e-21 1.21754e-05)
(5.61884e-05 -7.33168e-05 -1.14459e-21 -0.000143574 -1.77455e-22 8.73855e-05)
(0.000480813 -0.000275406 -2.55344e-18 -0.00111221 -9.53056e-20 0.000631393)
(0.00144981 0.000426287 1.766e-17 -0.0032199 7.81132e-19 0.00177009)
(0.0023128 0.00469038 -2.35041e-19 -0.00521376 -1.32349e-20 0.00290096)
(0.00185763 0.0154489 -2.73229e-16 -0.00506895 -1.28956e-17 0.00321132)
(-0.000686165 0.0342918 -3.15384e-19 -0.00190567 9.35541e-18 0.00259183)
(-0.00552376 0.0608568 -1.22165e-18 0.00397808 8.41197e-18 0.00154569)
(-0.0113161 0.0929692 3.54756e-17 0.0108085 -1.03644e-16 0.000507598)
(-0.0190648 0.127608 -1.73265e-16 0.0190213 7.13563e-16 4.34295e-05)
(-0.00961681 0.15411 2.18634e-15 0.0104485 8.15426e-16 -0.000831689)
(-0.0374063 0.261233 4.48556e-15 0.0294102 1.75945e-15 0.00799611)
(0.000306281 -0.00025827 -6.67573e-21 -0.000296873 -1.24806e-20 -9.40792e-06)
(0.000259293 -0.000306127 -1.45514e-20 -0.000248902 -2.33141e-20 -1.03903e-05)
(0.000195898 -0.00034745 2.78032e-20 -0.000182622 4.23104e-20 -1.32767e-05)
(0.000125006 -0.000374246 3.91548e-20 -0.000109123 3.80661e-20 -1.58829e-05)
(5.17525e-05 -0.000382662 4.42421e-21 -3.28672e-05 -1.92299e-21 -1.88853e-05)
(-2.13171e-05 -0.000372964 -1.50213e-20 4.36982e-05 3.69264e-20 -2.23811e-05)
(-8.66983e-05 -0.000347099 2.85005e-19 0.000112619 2.8556e-19 -2.59205e-05)
(-0.000139561 -0.000308092 -2.66784e-19 0.000169021 -3.54286e-19 -2.94606e-05)
(-0.000178434 -0.000260565 7.45775e-20 0.000211704 1.92796e-20 -3.32705e-05)
(-0.000202018 -0.000209912 3.51876e-19 0.000238713 2.60665e-19 -3.66955e-05)
(-0.000211583 -0.000160034 2.76271e-19 0.0002515 2.80604e-19 -3.99167e-05)
(-0.000209296 -0.000114098 2.98973e-19 0.000251831 8.5885e-20 -4.25347e-05)
(-0.000197729 -7.42095e-05 -3.32383e-19 0.000241979 -2.52048e-19 -4.42499e-05)
(-0.000179862 -4.12296e-05 -2.07606e-19 0.000224685 -2.08293e-19 -4.48226e-05)
(-0.000157742 -1.50497e-05 2.27443e-20 0.000202218 -6.94757e-20 -4.44762e-05)
(-0.000133085 7.47437e-06 -5.03093e-19 0.000175246 3.54517e-20 -4.21605e-05)
(-0.000107579 2.66247e-05 -1.37661e-19 0.000145716 -1.74474e-19 -3.81373e-05)
(-8.49782e-05 4.31273e-05 -7.75683e-19 0.000118111 -6.0332e-19 -3.31326e-05)
(-6.17071e-05 5.44167e-05 7.42553e-20 8.66244e-05 -9.99157e-20 -2.49173e-05)
(-4.31856e-05 5.8819e-05 2.71064e-20 5.92553e-05 -6.18588e-20 -1.60697e-05)
(-3.80547e-05 7.08946e-05 -2.56534e-19 4.90389e-05 -3.0174e-21 -1.09842e-05)
(-4.02652e-05 9.37539e-05 4.22843e-20 4.84751e-05 9.34865e-21 -8.20994e-06)
(-3.73476e-05 0.000112295 -2.1361e-19 4.34227e-05 -4.34844e-20 -6.07505e-06)
(-0.000236535 0.00107888 -6.46203e-19 0.000282371 6.94268e-19 -4.58358e-05)
(-0.000584644 0.00632445 1.05038e-18 0.000852987 7.11595e-20 -0.000268343)
(0.000521811 0.0132064 1.06584e-17 8.3396e-05 5.68602e-18 -0.000605207)
(0.00137499 0.00721195 -7.74292e-19 -0.00098514 3.20108e-19 -0.000389846)
(0.00206191 0.00295008 1.25394e-18 -0.00172716 7.95913e-20 -0.000334756)
(0.00428881 -0.010058 3.64948e-17 -0.00378038 2.21291e-18 -0.00050843)
(0.00997333 -0.106235 -9.85386e-18 -0.00873539 1.20256e-16 -0.00123794)
(-6.90609e-05 -0.470524 -5.2867e-16 0.00225165 -5.21523e-16 -0.00218259)
(-0.0755071 -1.28184 1.9748e-15 0.0781934 -1.8536e-15 -0.00268624)
(-0.260575 -2.39976 2.16664e-15 0.261468 -2.1128e-16 -0.000893241)
(-0.510166 -3.32043 -3.87382e-16 0.506813 -7.21888e-15 0.00335377)
(-0.711839 -3.70417 -5.80873e-15 0.705906 -1.75921e-15 0.00593253)
(-0.790232 -3.63692 6.98562e-16 0.787669 3.65859e-15 0.00256325)
(-0.799319 -3.4098 -9.94995e-15 0.794648 1.47674e-15 0.00467098)
(-0.573527 -3.01163 -6.9843e-15 0.583807 8.70954e-16 -0.0102797)
(-0.812772 -3.2036 8.11786e-15 0.784443 -4.95161e-15 0.0283292)
(0.000342233 -0.000198544 -3.61144e-21 -0.000335905 -3.70922e-21 -6.32819e-06)
(0.000364731 -0.000135375 1.2884e-20 -0.000359242 5.89846e-20 -5.48863e-06)
(0.000373337 -5.7288e-05 3.82379e-20 -0.000370645 8.49469e-20 -2.69241e-06)
(0.000363963 2.51188e-05 4.11962e-20 -0.000362641 -2.01233e-20 -1.32142e-06)
(0.000332451 0.000105515 -8.18201e-20 -0.000332553 -7.02834e-20 1.0209e-07)
(0.000278593 0.000174389 -9.01604e-21 -0.000278874 -1.00519e-19 2.80981e-07)
(0.000208917 0.000222869 -1.25503e-19 -0.00020866 -1.28909e-19 -2.56827e-07)
(0.000134129 0.000246336 -1.98244e-19 -0.000134158 -7.31979e-21 2.82783e-08)
(6.21187e-05 0.000246792 -5.70513e-20 -6.29226e-05 -3.14884e-20 8.03985e-07)
(-4.50182e-07 0.000226474 6.17163e-20 -6.92534e-07 -4.32095e-20 1.14272e-06)
(-4.59908e-05 0.000192107 6.11365e-20 4.49992e-05 1.40274e-19 9.91662e-07)
(-7.36308e-05 0.000153551 1.15049e-19 7.31159e-05 -4.46255e-20 5.14923e-07)
(-8.6914e-05 0.000117354 -9.83131e-20 8.71647e-05 -1.12802e-19 -2.50736e-07)
(-9.02441e-05 8.64127e-05 -1.85925e-20 9.13622e-05 4.19491e-20 -1.11812e-06)
(-8.73167e-05 6.17756e-05 8.95776e-20 8.93343e-05 -1.95214e-20 -2.01765e-06)
(-8.10772e-05 4.30204e-05 1.96672e-19 8.3899e-05 -1.40262e-20 -2.82186e-06)
(-7.35842e-05 2.93118e-05 -1.23406e-19 7.71362e-05 -3.53729e-20 -3.55198e-06)
(-6.61123e-05 1.94643e-05 -3.74945e-20 7.02664e-05 -5.47196e-20 -4.15409e-06)
(-5.93575e-05 1.23111e-05 -1.74959e-20 6.40046e-05 9.69686e-21 -4.64707e-06)
(-5.34516e-05 6.80027e-06 1.82694e-19 5.84349e-05 -7.22069e-20 -4.98328e-06)
(-4.83446e-05 2.25419e-06 3.30045e-20 5.35906e-05 -4.83554e-20 -5.24603e-06)
(-4.37606e-05 -1.90439e-06 -1.77848e-19 4.92009e-05 5.22252e-20 -5.44033e-06)
(-3.92327e-05 -6.01798e-06 -7.44592e-21 4.48481e-05 2.62867e-20 -5.61539e-06)
(-3.40477e-05 -9.84225e-06 -2.86453e-21 3.97774e-05 -1.75811e-20 -5.72973e-06)
(-2.8414e-05 -1.22459e-05 2.67294e-21 3.44219e-05 -2.18915e-22 -6.00793e-06)
(-2.34558e-05 -1.2996e-05 -1.36227e-19 3.0069e-05 -2.80335e-20 -6.61313e-06)
(-1.95446e-05 -1.28621e-05 -2.41328e-21 2.68426e-05 4.29201e-22 -7.29798e-06)
(-1.65193e-05 -1.2351e-05 2.92439e-20 2.44656e-05 7.80914e-22 -7.9463e-06)
(-1.36846e-05 -1.14345e-05 -1.04412e-21 2.18793e-05 -2.50934e-23 -8.19465e-06)
(-1.08663e-05 -1.01976e-05 6.78844e-22 1.87038e-05 9.77171e-22 -7.83748e-06)
(-7.47153e-06 -8.19464e-06 -8.13738e-20 1.38463e-05 -2.94619e-21 -6.37478e-06)
(-4.2159e-06 -5.764e-06 -2.19221e-21 8.62716e-06 -1.3622e-22 -4.41126e-06)
(-3.0345e-05 -5.7346e-05 3.73248e-21 7.73997e-05 -7.01513e-20 -4.70547e-05)
(-6.05686e-07 -4.58745e-05 1.71887e-17 0.000110293 1.54596e-18 -0.000109687)
(0.000235892 0.000600303 1.09937e-18 -0.000134835 1.22944e-19 -0.000101057)
(0.000879747 0.00332859 -1.87278e-16 -0.000935906 -3.54761e-17 5.61596e-05)
(0.0015769 0.0112285 1.25237e-15 -0.00205593 1.83886e-16 0.000479026)
(0.00672857 0.0279252 4.82759e-17 -0.00721885 -1.76985e-16 0.000490283)
(-0.00280991 0.104518 2.73524e-16 -0.00197394 -1.52056e-15 0.00478385)
(0.000222629 -0.000196166 -8.00001e-21 -0.000225646 -1.18938e-20 3.01666e-06)
(0.000184137 -0.00023166 -1.45997e-20 -0.000188498 -1.9721e-20 4.36128e-06)
(0.000134426 -0.00026128 4.9636e-20 -0.000139262 6.3594e-20 4.83563e-06)
(7.79753e-05 -0.000279213 -2.11739e-19 -8.41414e-05 -2.89711e-19 6.16603e-06)
(1.89049e-05 -0.000283339 5.25436e-20 -2.64556e-05 8.24588e-20 7.55069e-06)
(-4.04716e-05 -0.000273084 1.14585e-19 3.16396e-05 1.19129e-19 8.83202e-06)
(-9.48649e-05 -0.00024917 -9.7762e-20 8.42965e-05 -1.60294e-19 1.05685e-05)
(-0.000140376 -0.000213788 -6.59132e-20 0.000127955 1.13994e-20 1.24206e-05)
(-0.000174766 -0.000169931 -3.93632e-19 0.000160501 -3.72348e-19 1.42653e-05)
(-0.000196702 -0.000121807 -5.50423e-20 0.000180339 -1.4868e-19 1.63633e-05)
(-0.000206297 -7.28558e-05 1.08169e-20 0.00018784 -3.49027e-20 1.84577e-05)
(-0.000204718 -2.62485e-05 -1.96996e-19 0.000184173 -2.5027e-19 2.05455e-05)
(-0.000193981 1.54599e-05 9.43946e-20 0.000171453 1.1325e-19 2.25287e-05)
(-0.000176472 5.0752e-05 -3.87163e-19 0.000152273 -2.01253e-19 2.41993e-05)
(-0.000154509 7.94466e-05 8.43657e-20 0.000128937 4.69933e-20 2.55723e-05)
(-0.000130526 0.000100465 3.68501e-19 0.000104586 3.08337e-19 2.59399e-05)
(-0.000106112 0.000113124 -5.04669e-19 8.13014e-05 -1.43525e-19 2.48109e-05)
(-8.18501e-05 0.000118162 -9.24338e-20 5.91509e-05 4.15481e-19 2.26992e-05)
(-5.95878e-05 0.000117948 -3.12278e-20 3.95311e-05 -5.2939e-20 2.00567e-05)
(-3.90674e-05 0.000110476 -3.68828e-19 2.25596e-05 -5.97008e-20 1.65078e-05)
(-2.24457e-05 9.59657e-05 3.5283e-19 1.04326e-05 2.16495e-19 1.2013e-05)
(-1.15385e-05 7.5388e-05 9.00244e-21 4.35977e-06 -1.30152e-20 7.17878e-06)
(-6.71315e-06 6.9831e-05 1.78541e-19 2.07069e-06 4.97582e-20 4.64246e-06)
(-2.45454e-06 7.974e-05 1.31626e-19 -1.29232e-06 4.39248e-20 3.74686e-06)
(3.83857e-06 8.68469e-05 -1.27594e-20 -6.82278e-06 -1.20224e-21 2.98421e-06)
(9.52422e-06 8.90343e-05 1.37856e-21 -1.1629e-05 -5.00275e-21 2.10481e-06)
(0.000379707 0.0026366 4.18534e-19 -0.000416031 -1.15908e-19 3.63239e-05)
(0.000534779 0.0032573 -2.43429e-19 -0.000556302 -3.67589e-19 2.15232e-05)
(0.00134535 0.00718717 -7.69136e-18 -0.00135797 -3.85474e-19 1.26235e-05)
(0.000787133 0.00345609 4.03984e-19 -0.000780321 2.29759e-20 -6.81152e-06)
(0.00263614 0.00833076 -2.54172e-18 -0.00259235 9.77185e-19 -4.37831e-05)
(0.0104637 0.0123013 -2.19642e-16 -0.0102409 -1.55674e-16 -0.000222861)
(0.0188204 -0.094586 -8.07856e-17 -0.0180074 -2.49707e-16 -0.000812935)
(-0.0242975 -0.571165 -5.39675e-15 0.026261 5.31776e-16 -0.00196341)
(-0.178756 -1.46784 7.6001e-16 0.18058 2.49575e-15 -0.00182351)
(-0.396357 -2.37582 -8.56656e-19 0.397096 1.31913e-19 -0.000738904)
(-0.582135 -2.94434 -3.33506e-16 0.578208 4.53895e-15 0.0039268)
(-0.523868 -3.07187 1.42659e-16 0.534429 1.91976e-16 -0.0105605)
(-0.771113 -3.38903 -1.32423e-14 0.733718 2.74578e-15 0.0373943)
(0.000253111 -0.00015294 1.41145e-20 -0.00025627 9.06878e-21 3.15861e-06)
(0.000274193 -0.000106609 -3.97488e-20 -0.000275967 -6.40862e-20 1.77357e-06)
(0.000285741 -4.96993e-05 -2.19577e-20 -0.000287361 3.72776e-20 1.61971e-06)
(0.000283489 1.17416e-05 1.06067e-19 -0.000284313 7.79485e-20 8.24124e-07)
(0.000264507 7.30709e-05 -3.95978e-20 -0.000265084 -2.04194e-19 5.77058e-07)
(0.00022809 0.00012751 -7.08451e-20 -0.0002281 4.80092e-20 9.41728e-09)
(0.000178363 0.000168587 1.78808e-19 -0.000178038 1.39205e-19 -3.256e-07)
(0.000122731 0.00019233 -5.94393e-20 -0.000122611 -1.62502e-19 -1.19904e-07)
(6.68012e-05 0.000198837 -1.43185e-19 -6.69807e-05 -6.47439e-20 1.7944e-07)
(1.60193e-05 0.000188967 -1.06527e-19 -1.63587e-05 4.16224e-20 3.39499e-07)
(-2.36204e-05 0.000167079 1.17727e-19 2.33171e-05 4.48984e-21 3.03333e-07)
(-5.04609e-05 0.000139425 -6.73168e-20 5.01818e-05 -6.88186e-20 2.7913e-07)
(-6.58484e-05 0.000111006 -8.61557e-20 6.5518e-05 6.87709e-20 3.30346e-07)
(-7.23396e-05 8.48085e-05 8.34202e-20 7.18732e-05 3.59039e-20 4.6645e-07)
(-7.25472e-05 6.24513e-05 -1.22276e-19 7.1874e-05 2.03927e-20 6.73204e-07)
(-6.88997e-05 4.43467e-05 -3.28398e-20 6.79454e-05 -9.02721e-20 9.54313e-07)
(-6.32457e-05 3.02789e-05 3.6471e-20 6.19823e-05 4.66921e-20 1.26334e-06)
(-5.69308e-05 1.95804e-05 -1.33585e-19 5.53503e-05 6.25407e-21 1.58046e-06)
(-5.07736e-05 1.14679e-05 5.30539e-20 4.88976e-05 -9.48479e-22 1.87594e-06)
(-4.51165e-05 5.14267e-06 -2.02151e-19 4.29653e-05 1.38046e-20 2.15124e-06)
(-4.00266e-05 -1.75655e-08 -2.78645e-20 3.76495e-05 7.59872e-21 2.37703e-06)
(-3.53223e-05 -4.5189e-06 1.61971e-19 3.27544e-05 1.5e-20 2.56787e-06)
(-3.06313e-05 -8.65025e-06 1.55234e-19 2.79126e-05 -3.55415e-20 2.71875e-06)
(-2.5356e-05 -1.22558e-05 -1.2936e-19 2.24369e-05 9.58741e-21 2.91918e-06)
(-1.95072e-05 -1.45466e-05 -1.80466e-21 1.63556e-05 1.07905e-21 3.15162e-06)
(-1.39198e-05 -1.52692e-05 -1.2383e-19 1.058e-05 3.78155e-20 3.33973e-06)
(-9.03452e-06 -1.5017e-05 -2.4445e-21 5.38936e-06 2.64322e-23 3.64516e-06)
(-4.81879e-06 -1.41924e-05 -1.98123e-23 7.49581e-07 -1.03686e-21 4.06921e-06)
(-1.23966e-06 -1.31315e-05 -1.43195e-22 -3.31932e-06 2.88882e-23 4.55898e-06)
(1.63393e-06 -1.12933e-05 4.45357e-20 -6.34986e-06 3.62048e-22 4.71594e-06)
(4.36674e-06 -1.18021e-05 1.65387e-22 -1.00216e-05 -3.5023e-22 5.65486e-06)
(3.22947e-06 -5.83841e-06 4.76428e-23 -6.13047e-06 -8.29937e-25 2.901e-06)
(1.18655e-05 -1.72286e-05 -6.13141e-19 -1.9846e-05 -4.58503e-20 7.98053e-06)
(8.60092e-05 -0.000108022 -4.00232e-18 -0.00012789 -3.41973e-19 4.18803e-05)
(0.00024357 -0.000265524 9.6946e-20 -0.000322365 9.71687e-21 7.87947e-05)
(0.000248971 -0.000202527 -1.87454e-17 -0.000289031 -2.8913e-19 4.00601e-05)
(0.000435052 -0.000155548 3.36712e-18 -0.000470162 -2.50968e-17 3.51097e-05)
(0.00088177 0.000200605 1.37845e-18 -0.000861391 2.72178e-19 -2.03789e-05)
(0.0038431 0.0197468 -5.08896e-16 -0.0052196 7.09233e-17 0.0013765)
(0.000184131 -0.000161047 1.57548e-20 -0.000183018 1.84847e-20 -1.11214e-06)
(0.000155874 -0.000189753 -1.18905e-20 -0.000154867 -1.33776e-20 -1.00741e-06)
(0.000118618 -0.000214972 5.03772e-23 -0.000117012 -9.88098e-22 -1.60526e-06)
(7.60745e-05 -0.000232416 -6.79409e-21 -7.41821e-05 6.3717e-21 -1.8924e-06)
(3.10178e-05 -0.000239996 1.51924e-19 -2.8748e-05 1.60428e-19 -2.26974e-06)
(-1.54715e-05 -0.000237335 -9.61133e-20 1.84489e-05 -1.23507e-19 -2.9774e-06)
(-5.93625e-05 -0.000224523 -7.26564e-21 6.29809e-05 3.18496e-20 -3.61836e-06)
(-9.77152e-05 -0.000202644 3.28464e-19 0.000102105 3.16289e-19 -4.39005e-06)
(-0.000128811 -0.000173562 -7.75586e-20 0.000134198 5.60395e-21 -5.38676e-06)