/*--------------------------------*- C++ -*----------------------------------*\
| =========                 |                                                 |
| \\      /  F ield         | OpenFOAM: The Open Source CFD Toolbox           |
|  \\    /   O peration     | Version:  2206                                  |
|   \\  /    A nd           | Website:  www.openfoam.com                      |
|    \\/     M anipulation  |                                                 |
\*---------------------------------------------------------------------------*/
FoamFile
{
    version     2.0;
    format      ascii;
    arch        "LSB;label=32;scalar=64";
    class       volScalarField;
    location    "250";
    object      turbulenceProperties:nuEff;
}
// * * * * * * * * * * * * * * * * * * * * * * * * * * * * * * * * * * * * * //

dimensions      [0 2 -1 0 0 0 0];

internalField   nonuniform List<scalar> 
10720
(
3.5812e-05
3.95389e-05
4.4527e-05
5.09901e-05
5.93144e-05
7.00315e-05
8.38615e-05
0.000101166
0.000122983
0.000150358
0.000185244
0.000230756
0.000291323
0.000374905
0.000495076
0.000673889
0.000955851
0.00140542
0.00222695
0.00360059
0.00690715
0.0127281
0.0338817
0.0760457
0.0938221
0.0947747
0.0958005
0.099321
0.102838
0.104579
0.104554
0.1033
0.10093
0.0975004
0.0928862
0.0870139
0.0785685
0.0684469
0.0333307
3.25864e-05
2.98076e-05
2.70773e-05
2.45872e-05
2.2253e-05
2.01103e-05
1.82478e-05
1.69648e-05
1.80962e-05
2.07881e-05
2.54761e-05
3.32187e-05
4.55638e-05
6.44372e-05
9.13658e-05
0.000127918
0.000177145
0.000246233
0.000349323
0.000511722
0.000783124
0.00125175
0.00212725
0.0037793
0.00733713
0.014731
0.0324845
0.0663277
0.0934754
0.105031
0.108439
0.109381
0.109477
0.108981
0.10798
0.106583
0.104436
0.101999
0.0924627
1.50849e-05
1.49798e-05
1.48849e-05
1.48063e-05
1.47162e-05
1.46334e-05
1.45721e-05
1.45184e-05
1.44954e-05
1.45158e-05
1.45433e-05
1.48191e-05
1.58807e-05
1.86566e-05
2.64183e-05
4.68212e-05
9.38726e-05
0.000172794
0.00032512
0.000598491
0.00132994
0.00283992
0.0071113
0.0204729
0.0394437
0.0631374
0.092276
0.123381
0.148452
0.162466
0.167788
0.16861
0.167022
0.163671
0.159161
0.153667
0.148361
0.139384
0.139637
1.51685e-05
1.52817e-05
1.53782e-05
1.55092e-05
1.56434e-05
1.57793e-05
1.59103e-05
1.60208e-05
1.59585e-05
1.58172e-05
1.56242e-05
1.539e-05
1.51238e-05
1.48291e-05
1.44954e-05
1.41194e-05
1.36763e-05
1.31621e-05
1.25479e-05
1.18431e-05
1.10737e-05
1.04203e-05
1.0054e-05
1.00015e-05
1.00092e-05
0.000103659
0.000549757
0.00416628
0.0141247
0.0287284
0.0437356
0.0550707
0.0618336
0.0656156
0.0680137
0.0700047
0.0717374
0.0753123
0.0784764
1.62656e-05
1.6283e-05
1.63009e-05
1.63202e-05
1.63439e-05
1.63704e-05
1.64007e-05
1.64361e-05
1.6478e-05
1.65269e-05
1.65851e-05
1.66568e-05
1.67359e-05
1.68784e-05
1.68891e-05
1.64751e-05
1.47458e-05
1.38938e-05
1.0419e-05
1e-05
0.000264473
1.45045e-05
0.00148106
0.000528705
0.0028793
0.00736179
0.0153906
0.0308047
0.0570114
0.0932973
0.132275
0.164008
0.184459
0.196309
0.202996
0.205876
0.207115
0.201065
0.209697
1.62524e-05
1.62334e-05
1.62189e-05
1.61973e-05
1.61788e-05
1.61589e-05
1.61412e-05
1.61272e-05
1.61319e-05
1.61469e-05
1.61665e-05
1.61904e-05
1.62197e-05
1.62525e-05
1.62896e-05
1.63305e-05
1.63769e-05
1.64302e-05
1.64939e-05
1.65713e-05
1.66708e-05
1.67983e-05
1.69796e-05
1.7173e-05
1.74354e-05
1.71561e-05
1.7247e-05
1.2483e-05
9.36445e-05
0.000800267
0.0030272
0.00755152
0.0142622
0.0224452
0.0311659
0.0396091
0.0470133
0.053688
0.063176
1.60856e-05
1.60833e-05
1.60827e-05
1.6083e-05
1.6084e-05
1.60866e-05
1.60915e-05
1.60983e-05
1.61083e-05
1.61219e-05
1.61399e-05
1.61634e-05
1.6194e-05
1.62327e-05
1.62845e-05
1.63402e-05
1.62172e-05
1.59628e-05
1.41778e-05
1.12668e-05
1.00159e-05
1.00737e-05
1e-05
9.24836e-05
0.000608542
0.00162712
0.00136717
0.00167502
0.00374406
0.0133792
0.0353449
0.0722298
0.118101
0.160562
0.192468
0.214614
0.231192
0.238429
0.254373
1.60863e-05
1.60887e-05
1.60919e-05
1.60941e-05
1.60979e-05
1.60999e-05
1.61013e-05
1.61022e-05
1.61e-05
1.60973e-05
1.60938e-05
1.60901e-05
1.60866e-05
1.60832e-05
1.60798e-05
1.60763e-05
1.60727e-05
1.60687e-05
1.60636e-05
1.60585e-05
1.60532e-05
1.60475e-05
1.60407e-05
1.60344e-05
1.60276e-05
1.60299e-05
1.60227e-05
1.6082e-05
1.59993e-05
1.59484e-05
1.52219e-05
1.41764e-05
0.000236407
0.00105482
0.00305208
0.00688983
0.0131299
0.0218505
0.0392311
1.61108e-05
1.61113e-05
1.61116e-05
1.61125e-05
1.6114e-05
1.6116e-05
1.61186e-05
1.61222e-05
1.61269e-05
1.61331e-05
1.61411e-05
1.61517e-05
1.61656e-05
1.61834e-05
1.62076e-05
1.62357e-05
1.62776e-05
1.62993e-05
1.64921e-05
1.62818e-05
1.50206e-05
1.18767e-05
1.00183e-05
1.00011e-05
1e-05
1e-05
0.000296412
0.000369115
0.000847477
0.000465079
0.00159696
0.00788504
0.0291917
0.0699468
0.123107
0.17398
0.216096
0.247002
0.277111
1.61108e-05
1.61095e-05
1.61102e-05
1.61092e-05
1.61101e-05
1.61088e-05
1.61067e-05
1.61048e-05
1.61038e-05
1.61035e-05
1.61035e-05
1.61034e-05
1.61037e-05
1.61043e-05
1.61052e-05
1.61065e-05
1.6108e-05
1.61099e-05
1.61121e-05
1.61146e-05
1.61173e-05
1.61204e-05
1.61238e-05
1.61276e-05
1.61325e-05
1.61368e-05
1.61501e-05
1.61297e-05
1.62724e-05
1.56948e-05
1.87081e-05
1.0582e-05
3.56055e-05
0.000255298
0.000738421
0.000726256
0.00124864
0.00164986
0.0137216
1.61047e-05
1.61045e-05
1.61048e-05
1.6105e-05
1.61051e-05
1.61055e-05
1.61061e-05
1.61069e-05
1.61081e-05
1.61098e-05
1.61121e-05
1.61153e-05
1.61197e-05
1.61256e-05
1.61338e-05
1.61447e-05
1.61589e-05
1.61751e-05
1.62331e-05
1.628e-05
1.66405e-05
1.64482e-05
1.52957e-05
1.07266e-05
1.0012e-05
1.00026e-05
1.00004e-05
1e-05
1e-05
8.52844e-05
0.000363319
0.00180614
0.000336949
0.00849918
0.0373854
0.0921302
0.159017
0.222591
0.276857
1.61043e-05
1.61036e-05
1.61045e-05
1.61043e-05
1.6106e-05
1.61057e-05
1.61043e-05
1.61031e-05
1.61021e-05
1.61015e-05
1.61011e-05
1.61006e-05
1.61004e-05
1.61002e-05
1.61002e-05
1.61003e-05
1.61004e-05
1.61006e-05
1.61008e-05
1.61011e-05
1.61013e-05
1.61014e-05
1.61015e-05
1.61012e-05
1.61011e-05
1.61014e-05
1.61018e-05
1.61035e-05
1.61031e-05
1.61121e-05
1.60949e-05
1.61983e-05
1.56035e-05
1.42022e-05
1.00029e-05
0.000170112
0.000299581
0.000439081
0.00238957
1.6105e-05
1.61052e-05
1.61054e-05
1.61054e-05
1.61055e-05
1.61056e-05
1.61058e-05
1.61061e-05
1.61066e-05
1.61073e-05
1.61083e-05
1.61098e-05
1.61118e-05
1.61147e-05
1.61186e-05
1.61242e-05
1.61316e-05
1.61394e-05
1.61506e-05
1.61585e-05
1.62067e-05
1.63625e-05
1.70025e-05
1.65197e-05
1.39133e-05
1.15864e-05
1.02124e-05
1.001e-05
1.00033e-05
1e-05
1e-05
1e-05
5.09649e-05
0.00200217
0.00152015
0.0211148
0.076908
0.164492
0.250514
1.61045e-05
1.61034e-05
1.61038e-05
1.61035e-05
1.61052e-05
1.61051e-05
1.61039e-05
1.61028e-05
1.61019e-05
1.61013e-05
1.6101e-05
1.61008e-05
1.61007e-05
1.61007e-05
1.61007e-05
1.61008e-05
1.61009e-05
1.61012e-05
1.61015e-05
1.61019e-05
1.61024e-05
1.6103e-05
1.61036e-05
1.61044e-05
1.61054e-05
1.61067e-05
1.61084e-05
1.61105e-05
1.61132e-05
1.61165e-05
1.61207e-05
1.61256e-05
1.61494e-05
1.55239e-05
1.34037e-05
1.00582e-05
1.00117e-05
1e-05
6.70893e-05
1.61046e-05
1.61047e-05
1.6105e-05
1.6105e-05
1.61048e-05
1.61047e-05
1.61045e-05
1.61044e-05
1.61043e-05
1.61043e-05
1.61044e-05
1.61046e-05
1.6105e-05
1.61056e-05
1.61065e-05
1.61078e-05
1.61099e-05
1.61121e-05
1.61151e-05
1.612e-05
1.61104e-05
1.61133e-05
1.62356e-05
1.66928e-05
1.69634e-05
1.66772e-05
1.55804e-05
1.35559e-05
1.17272e-05
1.00146e-05
1.0007e-05
1e-05
1e-05
1e-05
0.00035649
0.00526853
0.0154804
0.0888401
0.198025
1.6104e-05
1.61028e-05
1.61028e-05
1.61024e-05
1.61041e-05
1.61042e-05
1.61033e-05
1.61022e-05
1.61014e-05
1.6101e-05
1.61007e-05
1.61005e-05
1.61005e-05
1.61005e-05
1.61006e-05
1.61007e-05
1.61008e-05
1.61008e-05
1.61009e-05
1.6101e-05
1.61011e-05
1.61012e-05
1.61014e-05
1.61015e-05
1.61017e-05
1.61019e-05
1.61021e-05
1.61024e-05
1.61026e-05
1.61027e-05
1.61033e-05
1.61006e-05
1.61115e-05
1.60771e-05
1.63139e-05
1.6021e-05
1.36672e-05
1.00183e-05
1.0518e-05
1.61045e-05
1.61046e-05
1.61048e-05
1.61046e-05
1.61044e-05
1.61041e-05
1.61039e-05
1.61038e-05
1.61037e-05
1.61036e-05
1.61036e-05
1.61037e-05
1.61039e-05
1.61043e-05
1.61049e-05
1.61058e-05
1.61072e-05
1.61091e-05
1.61109e-05
1.61135e-05
1.61141e-05
1.61078e-05
1.60856e-05
1.61567e-05
1.63815e-05
1.66588e-05
1.70007e-05
1.71646e-05
1.68851e-05
1.48388e-05
1.27572e-05
1.00082e-05
1.00033e-05
1e-05
1e-05
1e-05
0.0042357
0.0291119
0.130826
1.61039e-05
1.61027e-05
1.61024e-05
1.61018e-05
1.61033e-05
1.61036e-05
1.61029e-05
1.61019e-05
1.61012e-05
1.61008e-05
1.61005e-05
1.61004e-05
1.61004e-05
1.61004e-05
1.61005e-05
1.61007e-05
1.61008e-05
1.61009e-05
1.6101e-05
1.6101e-05
1.6101e-05
1.61011e-05
1.61013e-05
1.61015e-05
1.61017e-05
1.61021e-05
1.61026e-05
1.61032e-05
1.61041e-05
1.61052e-05
1.61066e-05
1.61081e-05
1.61105e-05
1.61068e-05
1.61248e-05
1.61817e-05
1.66804e-05
1.45525e-05
1.00026e-05
1.61045e-05
1.61045e-05
1.61045e-05
1.61042e-05
1.61039e-05
1.61036e-05
1.61033e-05
1.61031e-05
1.61029e-05
1.61027e-05
1.61025e-05
1.61024e-05
1.61023e-05
1.61023e-05
1.61022e-05
1.61022e-05
1.61023e-05
1.61024e-05
1.61025e-05
1.61032e-05
1.6105e-05
1.61064e-05
1.6099e-05
1.60851e-05
1.61023e-05
1.61709e-05
1.63272e-05
1.65692e-05
1.68851e-05
1.72159e-05
1.7416e-05
1.50986e-05
1.12779e-05
1.0012e-05
1e-05
1e-05
2.69729e-05
0.00252689
0.0716065
1.6104e-05
1.61027e-05
1.61021e-05
1.61013e-05
1.61027e-05
1.61031e-05
1.61025e-05
1.61016e-05
1.6101e-05
1.61006e-05
1.61005e-05
1.61003e-05
1.61002e-05
1.61003e-05
1.61003e-05
1.61005e-05
1.61006e-05
1.61008e-05
1.61009e-05
1.61011e-05
1.61012e-05
1.61012e-05
1.61012e-05
1.61012e-05
1.61013e-05
1.61014e-05
1.61015e-05
1.61018e-05
1.61022e-05
1.61026e-05
1.6103e-05
1.61038e-05
1.61034e-05
1.61085e-05
1.60886e-05
1.61859e-05
1.5834e-05
1.87815e-05
1.0561e-05
1.61044e-05
1.61042e-05
1.61041e-05
1.61038e-05
1.61034e-05
1.61031e-05
1.61028e-05
1.61026e-05
1.61024e-05
1.61022e-05
1.61021e-05
1.61021e-05
1.6102e-05
1.6102e-05
1.61021e-05
1.61023e-05
1.61026e-05
1.61031e-05
1.61037e-05
1.61042e-05
1.61048e-05
1.61058e-05
1.61063e-05
1.61015e-05
1.60931e-05
1.60891e-05
1.6098e-05
1.61409e-05
1.62271e-05
1.64483e-05
1.68237e-05
1.75531e-05
1.70654e-05
1.33216e-05
1e-05
1e-05
1e-05
0.00128449
0.0328315
1.6104e-05
1.61028e-05
1.61019e-05
1.6101e-05
1.61023e-05
1.61026e-05
1.61022e-05
1.61013e-05
1.61008e-05
1.61005e-05
1.61004e-05
1.61002e-05
1.61001e-05
1.61001e-05
1.61001e-05
1.61003e-05
1.61004e-05
1.61006e-05
1.61008e-05
1.61009e-05
1.61011e-05
1.61012e-05
1.61013e-05
1.61014e-05
1.61013e-05
1.61014e-05
1.61015e-05
1.61018e-05
1.61021e-05
1.61026e-05
1.61031e-05
1.6104e-05
1.6104e-05
1.61085e-05
1.60931e-05
1.61647e-05
1.5858e-05
1.71607e-05
1.43528e-05
1.61042e-05
1.61039e-05
1.61037e-05
1.61033e-05
1.61029e-05
1.61026e-05
1.61023e-05
1.61021e-05
1.61019e-05
1.61018e-05
1.61017e-05
1.61016e-05
1.61015e-05
1.61014e-05
1.61014e-05
1.61014e-05
1.61015e-05
1.61016e-05
1.61018e-05
1.61022e-05
1.61027e-05
1.61036e-05
1.61048e-05
1.61054e-05
1.61042e-05
1.61013e-05
1.60963e-05
1.60914e-05
1.60843e-05
1.6104e-05
1.61568e-05
1.64808e-05
1.70913e-05
1.79508e-05
1.4156e-05
1.00113e-05
1e-05
0.000287878
0.0129003
1.6104e-05
1.61029e-05
1.61019e-05
1.61008e-05
1.61019e-05
1.61023e-05
1.61018e-05
1.61011e-05
1.61006e-05
1.61004e-05
1.61002e-05
1.61001e-05
1.61e-05
1.60999e-05
1.60999e-05
1.61e-05
1.61001e-05
1.61003e-05
1.61005e-05
1.61007e-05
1.61009e-05
1.61011e-05
1.61012e-05
1.61014e-05
1.61015e-05
1.61016e-05
1.61016e-05
1.61017e-05
1.61018e-05
1.61021e-05
1.61024e-05
1.61028e-05
1.61031e-05
1.61047e-05
1.61012e-05
1.61189e-05
1.60593e-05
1.62064e-05
1.61603e-05
1.6104e-05
1.61036e-05
1.61033e-05
1.61029e-05
1.61025e-05
1.61022e-05
1.61019e-05
1.61017e-05
1.61016e-05
1.61014e-05
1.61014e-05
1.61013e-05
1.61013e-05
1.61012e-05
1.61012e-05
1.61013e-05
1.61014e-05
1.61015e-05
1.61018e-05
1.61021e-05
1.61024e-05
1.61029e-05
1.61036e-05
1.61045e-05
1.61053e-05
1.6106e-05
1.61065e-05
1.61059e-05
1.61004e-05
1.60895e-05
1.60669e-05
1.60685e-05
1.62169e-05
1.67429e-05
1.85701e-05
1.27033e-05
1e-05
8.12944e-05
0.00428785
1.6104e-05
1.61029e-05
1.61018e-05
1.61006e-05
1.61016e-05
1.61019e-05
1.61016e-05
1.61009e-05
1.61005e-05
1.61002e-05
1.61001e-05
1.60999e-05
1.60998e-05
1.60997e-05
1.60997e-05
1.60998e-05
1.60999e-05
1.61001e-05
1.61003e-05
1.61005e-05
1.61007e-05
1.61009e-05
1.61011e-05
1.61013e-05
1.61015e-05
1.61016e-05
1.61016e-05
1.61016e-05
1.61017e-05
1.61019e-05
1.61021e-05
1.61024e-05
1.61029e-05
1.61033e-05
1.61044e-05
1.61025e-05
1.61167e-05
1.60527e-05
1.62574e-05
1.61037e-05
1.61032e-05
1.61029e-05
1.61025e-05
1.61021e-05
1.61018e-05
1.61016e-05
1.61014e-05
1.61013e-05
1.61012e-05
1.61012e-05
1.61011e-05
1.61011e-05
1.61011e-05
1.61011e-05
1.61011e-05
1.61012e-05
1.61012e-05
1.61014e-05
1.61016e-05
1.61019e-05
1.61023e-05
1.61028e-05
1.61035e-05
1.61043e-05
1.61053e-05
1.61067e-05
1.61087e-05
1.61105e-05
1.61095e-05
1.61019e-05
1.6073e-05
1.60503e-05
1.60512e-05
1.6703e-05
2.03567e-05
1.00126e-05
1.12514e-05
0.0010979
1.61038e-05
1.61029e-05
1.61018e-05
1.61005e-05
1.61013e-05
1.61016e-05
1.61013e-05
1.61007e-05
1.61003e-05
1.61001e-05
1.60999e-05
1.60998e-05
1.60996e-05
1.60995e-05
1.60995e-05
1.60995e-05
1.60997e-05
1.60998e-05
1.61e-05
1.61002e-05
1.61005e-05
1.61007e-05
1.61009e-05
1.61011e-05
1.61013e-05
1.61015e-05
1.61016e-05
1.61016e-05
1.61016e-05
1.61017e-05
1.61018e-05
1.61021e-05
1.61024e-05
1.61026e-05
1.61037e-05
1.61017e-05
1.61123e-05
1.6081e-05
1.61464e-05
1.61034e-05
1.61029e-05
1.61025e-05
1.61021e-05
1.61018e-05
1.61015e-05
1.61013e-05
1.61012e-05
1.61011e-05
1.6101e-05
1.6101e-05
1.6101e-05
1.6101e-05
1.61011e-05
1.61011e-05
1.61011e-05
1.61012e-05
1.61012e-05
1.61013e-05
1.61015e-05
1.61017e-05
1.6102e-05
1.61024e-05
1.61029e-05
1.61035e-05
1.61044e-05
1.61054e-05
1.61069e-05
1.61092e-05
1.6112e-05
1.61144e-05
1.61122e-05
1.60814e-05
1.60975e-05
1.56461e-05
1.91572e-05
1.25749e-05
1.00003e-05
7.47074e-05
1.61036e-05
1.61029e-05
1.61018e-05
1.61005e-05
1.61011e-05
1.61014e-05
1.61011e-05
1.61005e-05
1.61001e-05
1.60999e-05
1.60997e-05
1.60996e-05
1.60994e-05
1.60993e-05
1.60993e-05
1.60993e-05
1.60994e-05
1.60996e-05
1.60997e-05
1.60999e-05
1.61002e-05
1.61004e-05
1.61007e-05
1.61009e-05
1.61012e-05
1.61014e-05
1.61015e-05
1.61016e-05
1.61016e-05
1.61016e-05
1.61017e-05
1.61018e-05
1.61021e-05
1.61023e-05
1.61028e-05
1.61027e-05
1.61052e-05
1.61018e-05
1.61071e-05
1.61031e-05
1.61025e-05
1.61022e-05
1.61018e-05
1.61015e-05
1.61012e-05
1.6101e-05
1.6101e-05
1.6101e-05
1.6101e-05
1.6101e-05
1.61011e-05
1.61011e-05
1.61011e-05
1.61011e-05
1.61012e-05
1.61012e-05
1.61013e-05
1.61014e-05
1.61015e-05
1.61016e-05
1.61019e-05
1.61022e-05
1.61026e-05
1.61031e-05
1.61038e-05
1.61046e-05
1.61057e-05
1.61071e-05
1.61093e-05
1.61117e-05
1.61194e-05
1.61028e-05
1.61631e-05
1.58273e-05
1.63966e-05
1.96706e-05
1.00001e-05
1.05789e-05
1.61034e-05
1.61029e-05
1.61018e-05
1.61004e-05
1.6101e-05
1.61012e-05
1.61009e-05
1.61004e-05
1.61e-05
1.60997e-05
1.60995e-05
1.60994e-05
1.60993e-05
1.60992e-05
1.60991e-05
1.60991e-05
1.60992e-05
1.60993e-05
1.60995e-05
1.60997e-05
1.60999e-05
1.61002e-05
1.61005e-05
1.61007e-05
1.6101e-05
1.61012e-05
1.61014e-05
1.61015e-05
1.61016e-05
1.61016e-05
1.61017e-05
1.61017e-05
1.61019e-05
1.6102e-05
1.61023e-05
1.61027e-05
1.6103e-05
1.61054e-05
1.61024e-05
1.61028e-05
1.61022e-05
1.61018e-05
1.61015e-05
1.61012e-05
1.6101e-05
1.61009e-05
1.61009e-05
1.61009e-05
1.6101e-05
1.6101e-05
1.61011e-05
1.61011e-05
1.61012e-05
1.61012e-05
1.61013e-05
1.61013e-05
1.61014e-05
1.61014e-05
1.61015e-05
1.61017e-05
1.61019e-05
1.61021e-05
1.61024e-05
1.61028e-05
1.61034e-05
1.61041e-05
1.61051e-05
1.61061e-05
1.61076e-05
1.61089e-05
1.6114e-05
1.61125e-05
1.61232e-05
1.61927e-05
1.52686e-05
2.19567e-05
1.00007e-05
1e-05
1.61032e-05
1.61028e-05
1.61018e-05
1.61004e-05
1.61008e-05
1.6101e-05
1.61007e-05
1.61002e-05
1.60998e-05
1.60995e-05
1.60994e-05
1.60992e-05
1.60991e-05
1.6099e-05
1.60989e-05
1.60989e-05
1.6099e-05
1.60991e-05
1.60993e-05
1.60995e-05
1.60997e-05
1.61e-05
1.61002e-05
1.61005e-05
1.61008e-05
1.6101e-05
1.61013e-05
1.61014e-05
1.61016e-05
1.61016e-05
1.61016e-05
1.61017e-05
1.61017e-05
1.61018e-05
1.6102e-05
1.61024e-05
1.61025e-05
1.61045e-05
1.61032e-05
1.61025e-05
1.6102e-05
1.61015e-05
1.61012e-05
1.6101e-05
1.61008e-05
1.61008e-05
1.61008e-05
1.61009e-05
1.6101e-05
1.61011e-05
1.61012e-05
1.61012e-05
1.61013e-05
1.61014e-05
1.61014e-05
1.61014e-05
1.61015e-05
1.61016e-05
1.61016e-05
1.61018e-05
1.61019e-05
1.61021e-05
1.61023e-05
1.61027e-05
1.61032e-05
1.61038e-05
1.61046e-05
1.61056e-05
1.61067e-05
1.6108e-05
1.61091e-05
1.61181e-05
1.60829e-05
1.63071e-05
1.53271e-05
1.93531e-05
1.16903e-05
1.00006e-05
1.6103e-05
1.61027e-05
1.61017e-05
1.61004e-05
1.61007e-05
1.61008e-05
1.61005e-05
1.61001e-05
1.60997e-05
1.60994e-05
1.60992e-05
1.60991e-05
1.60989e-05
1.60988e-05
1.60987e-05
1.60988e-05
1.60988e-05
1.60989e-05
1.60991e-05
1.60993e-05
1.60995e-05
1.60997e-05
1.61e-05
1.61003e-05
1.61006e-05
1.61009e-05
1.61011e-05
1.61013e-05
1.61015e-05
1.61016e-05
1.61017e-05
1.61017e-05
1.61017e-05
1.61017e-05
1.61019e-05
1.61021e-05
1.61023e-05
1.61036e-05
1.61034e-05
1.61022e-05
1.61017e-05
1.61013e-05
1.6101e-05
1.61008e-05
1.61007e-05
1.61008e-05
1.61008e-05
1.61009e-05
1.61011e-05
1.61012e-05
1.61013e-05
1.61013e-05
1.61014e-05
1.61015e-05
1.61015e-05
1.61016e-05
1.61016e-05
1.61017e-05
1.61017e-05
1.61018e-05
1.61019e-05
1.61021e-05
1.61023e-05
1.61026e-05
1.6103e-05
1.61035e-05
1.61042e-05
1.61051e-05
1.61061e-05
1.61076e-05
1.61071e-05
1.61178e-05
1.60812e-05
1.62392e-05
1.5757e-05
1.68796e-05
1.68803e-05
1.00989e-05
1.61027e-05
1.61025e-05
1.61016e-05
1.61004e-05
1.61005e-05
1.61006e-05
1.61003e-05
1.60999e-05
1.60995e-05
1.60992e-05
1.6099e-05
1.60989e-05
1.60987e-05
1.60986e-05
1.60986e-05
1.60986e-05
1.60987e-05
1.60988e-05
1.60989e-05
1.60991e-05
1.60993e-05
1.60995e-05
1.60998e-05
1.61001e-05
1.61004e-05
1.61007e-05
1.61009e-05
1.61012e-05
1.61014e-05
1.61015e-05
1.61016e-05
1.61017e-05
1.61017e-05
1.61017e-05
1.61018e-05
1.61019e-05
1.61021e-05
1.61032e-05
1.61031e-05
1.6102e-05
1.61015e-05
1.6101e-05
1.61008e-05
1.61007e-05
1.61007e-05
1.61008e-05
1.61009e-05
1.6101e-05
1.61011e-05
1.61012e-05
1.61013e-05
1.61014e-05
1.61015e-05
1.61016e-05
1.61016e-05
1.61017e-05
1.61017e-05
1.61018e-05
1.61019e-05
1.61019e-05
1.6102e-05
1.61022e-05
1.61023e-05
1.61026e-05
1.61029e-05
1.61034e-05
1.6104e-05
1.61047e-05
1.61056e-05
1.6107e-05
1.61068e-05
1.61137e-05
1.60972e-05
1.61491e-05
1.60811e-05
1.58682e-05
1.84524e-05
1.17531e-05
1.61024e-05
1.61023e-05
1.61015e-05
1.61003e-05
1.61004e-05
1.61004e-05
1.61002e-05
1.60997e-05
1.60994e-05
1.60991e-05
1.60989e-05
1.60987e-05
1.60986e-05
1.60985e-05
1.60985e-05
1.60985e-05
1.60985e-05
1.60986e-05
1.60987e-05
1.60989e-05
1.60991e-05
1.60994e-05
1.60996e-05
1.60999e-05
1.61002e-05
1.61005e-05
1.61007e-05
1.6101e-05
1.61012e-05
1.61014e-05
1.61015e-05
1.61016e-05
1.61017e-05
1.61017e-05
1.61017e-05
1.61018e-05
1.6102e-05
1.61029e-05
1.61028e-05
1.61017e-05
1.61013e-05
1.61008e-05
1.61007e-05
1.61006e-05
1.61007e-05
1.61008e-05
1.61009e-05
1.6101e-05
1.61012e-05
1.61013e-05
1.61014e-05
1.61015e-05
1.61016e-05
1.61017e-05
1.61018e-05
1.61018e-05
1.61019e-05
1.61019e-05
1.6102e-05
1.61021e-05
1.61022e-05
1.61023e-05
1.61024e-05
1.61026e-05
1.61029e-05
1.61033e-05
1.61038e-05
1.61045e-05
1.61052e-05
1.61063e-05
1.6107e-05
1.61096e-05
1.61095e-05
1.61026e-05
1.61935e-05
1.57383e-05
1.75359e-05
1.46454e-05
1.61022e-05
1.61022e-05
1.61014e-05
1.61003e-05
1.61003e-05
1.61003e-05
1.61e-05
1.60996e-05
1.60992e-05
1.60989e-05
1.60987e-05
1.60986e-05
1.60984e-05
1.60984e-05
1.60983e-05
1.60984e-05
1.60984e-05
1.60985e-05
1.60986e-05
1.60988e-05
1.60989e-05
1.60992e-05
1.60994e-05
1.60997e-05
1.61e-05
1.61003e-05
1.61005e-05
1.61008e-05
1.6101e-05
1.61012e-05
1.61014e-05
1.61015e-05
1.61016e-05
1.61017e-05
1.61017e-05
1.61018e-05
1.61019e-05
1.61026e-05
1.61026e-05
1.61015e-05
1.61011e-05
1.61007e-05
1.61006e-05
1.61006e-05
1.61006e-05
1.61008e-05
1.61009e-05
1.61011e-05
1.61012e-05
1.61014e-05
1.61015e-05
1.61016e-05
1.61017e-05
1.61018e-05
1.61019e-05
1.6102e-05
1.6102e-05
1.61021e-05
1.61022e-05
1.61022e-05
1.61023e-05
1.61024e-05
1.61026e-05
1.61027e-05
1.6103e-05
1.61033e-05
1.61037e-05
1.61043e-05
1.6105e-05
1.61058e-05
1.61069e-05
1.61074e-05
1.61131e-05
1.60939e-05
1.61827e-05
1.58976e-05
1.65971e-05
1.6156e-05
1.61019e-05
1.6102e-05
1.61013e-05
1.61002e-05
1.61001e-05
1.61001e-05
1.60998e-05
1.60994e-05
1.60991e-05
1.60988e-05
1.60986e-05
1.60984e-05
1.60983e-05
1.60983e-05
1.60982e-05
1.60982e-05
1.60983e-05
1.60983e-05
1.60985e-05
1.60986e-05
1.60988e-05
1.6099e-05
1.60992e-05
1.60995e-05
1.60998e-05
1.61e-05
1.61003e-05
1.61006e-05
1.61008e-05
1.61011e-05
1.61013e-05
1.61014e-05
1.61016e-05
1.61017e-05
1.61017e-05
1.61017e-05
1.61018e-05
1.61024e-05
1.61024e-05
1.61013e-05
1.61009e-05
1.61005e-05
1.61005e-05
1.61006e-05
1.61006e-05
1.61008e-05
1.6101e-05
1.61011e-05
1.61013e-05
1.61014e-05
1.61016e-05
1.61017e-05
1.61018e-05
1.61019e-05
1.6102e-05
1.61021e-05
1.61022e-05
1.61022e-05
1.61023e-05
1.61024e-05
1.61025e-05
1.61026e-05
1.61027e-05
1.61028e-05
1.6103e-05
1.61033e-05
1.61037e-05
1.61042e-05
1.61048e-05
1.61055e-05
1.61066e-05
1.61068e-05
1.61119e-05
1.60999e-05
1.61439e-05
1.60464e-05
1.61662e-05
1.64077e-05
1.61017e-05
1.61018e-05
1.61012e-05
1.61001e-05
1.61e-05
1.60999e-05
1.60996e-05
1.60993e-05
1.60989e-05
1.60987e-05
1.60984e-05
1.60983e-05
1.60982e-05
1.60981e-05
1.60981e-05
1.60981e-05
1.60981e-05
1.60982e-05
1.60983e-05
1.60984e-05
1.60986e-05
1.60988e-05
1.6099e-05
1.60993e-05
1.60996e-05
1.60998e-05
1.61001e-05
1.61004e-05
1.61006e-05
1.61009e-05
1.61011e-05
1.61013e-05
1.61015e-05
1.61016e-05
1.61017e-05
1.61017e-05
1.61017e-05
1.61022e-05
1.61022e-05
1.61011e-05
1.61007e-05
1.61004e-05
1.61005e-05
1.61005e-05
1.61006e-05
1.61008e-05
1.6101e-05
1.61012e-05
1.61014e-05
1.61015e-05
1.61017e-05
1.61018e-05
1.61019e-05
1.6102e-05
1.61021e-05
1.61022e-05
1.61023e-05
1.61024e-05
1.61025e-05
1.61026e-05
1.61026e-05
1.61027e-05
1.61028e-05
1.6103e-05
1.61032e-05
1.61034e-05
1.61037e-05
1.61042e-05
1.61047e-05
1.61054e-05
1.61063e-05
1.61068e-05
1.61097e-05
1.61063e-05
1.61182e-05
1.61134e-05
1.60617e-05
1.62785e-05
1.61015e-05
1.61016e-05
1.6101e-05
1.61e-05
1.60999e-05
1.60998e-05
1.60995e-05
1.60991e-05
1.60988e-05
1.60985e-05
1.60983e-05
1.60982e-05
1.60981e-05
1.6098e-05
1.6098e-05
1.6098e-05
1.6098e-05
1.60981e-05
1.60982e-05
1.60983e-05
1.60984e-05
1.60986e-05
1.60988e-05
1.60991e-05
1.60993e-05
1.60996e-05
1.60999e-05
1.61001e-05
1.61004e-05
1.61007e-05
1.61009e-05
1.61011e-05
1.61013e-05
1.61015e-05
1.61016e-05
1.61017e-05
1.61017e-05
1.61021e-05
1.61021e-05
1.6101e-05
1.61006e-05
1.61004e-05
1.61004e-05
1.61005e-05
1.61006e-05
1.61008e-05
1.6101e-05
1.61012e-05
1.61014e-05
1.61016e-05
1.61017e-05
1.61019e-05
1.6102e-05
1.61021e-05
1.61023e-05
1.61024e-05
1.61025e-05
1.61025e-05
1.61026e-05
1.61027e-05
1.61028e-05
1.61029e-05
1.6103e-05
1.61031e-05
1.61033e-05
1.61035e-05
1.61038e-05
1.61042e-05
1.61047e-05
1.61053e-05
1.6106e-05
1.61068e-05
1.61082e-05
1.61092e-05
1.61088e-05
1.61261e-05
1.60744e-05
1.61616e-05
1.61013e-05
1.61014e-05
1.61009e-05
1.60999e-05
1.60997e-05
1.60996e-05
1.60993e-05
1.60989e-05
1.60986e-05
1.60983e-05
1.60981e-05
1.6098e-05
1.60979e-05
1.60979e-05
1.60978e-05
1.60978e-05
1.60979e-05
1.60979e-05
1.6098e-05
1.60981e-05
1.60982e-05
1.60984e-05
1.60986e-05
1.60989e-05
1.60991e-05
1.60994e-05
1.60996e-05
1.60999e-05
1.61002e-05
1.61004e-05
1.61007e-05
1.61009e-05
1.61012e-05
1.61014e-05
1.61015e-05
1.61016e-05
1.61016e-05
1.61019e-05
1.6102e-05
1.61008e-05
1.61005e-05
1.61003e-05
1.61004e-05
1.61005e-05
1.61007e-05
1.61009e-05
1.61011e-05
1.61013e-05
1.61015e-05
1.61017e-05
1.61018e-05
1.6102e-05
1.61021e-05
1.61023e-05
1.61024e-05
1.61025e-05
1.61026e-05
1.61027e-05
1.61028e-05
1.61029e-05
1.6103e-05
1.61031e-05
1.61032e-05
1.61033e-05
1.61035e-05
1.61037e-05
1.61039e-05
1.61043e-05
1.61047e-05
1.61052e-05
1.61059e-05
1.61067e-05
1.61075e-05
1.61096e-05
1.61076e-05
1.61204e-05
1.61002e-05
1.61163e-05
1.61011e-05
1.61012e-05
1.61007e-05
1.60998e-05
1.60996e-05
1.60994e-05
1.60991e-05
1.60987e-05
1.60984e-05
1.60982e-05
1.6098e-05
1.60979e-05
1.60978e-05
1.60977e-05
1.60977e-05
1.60977e-05
1.60977e-05
1.60978e-05
1.60979e-05
1.6098e-05
1.60981e-05
1.60982e-05
1.60984e-05
1.60987e-05
1.60989e-05
1.60992e-05
1.60994e-05
1.60997e-05
1.60999e-05
1.61002e-05
1.61005e-05
1.61007e-05
1.6101e-05
1.61012e-05
1.61014e-05
1.61015e-05
1.61015e-05
1.61018e-05
1.61019e-05
1.61006e-05
1.61004e-05
1.61002e-05
1.61004e-05
1.61005e-05
1.61007e-05
1.61009e-05
1.61011e-05
1.61013e-05
1.61015e-05
1.61017e-05
1.61019e-05
1.61021e-05
1.61022e-05
1.61024e-05
1.61025e-05
1.61026e-05
1.61027e-05
1.61028e-05
1.6103e-05
1.61031e-05
1.61032e-05
1.61033e-05
1.61034e-05
1.61035e-05
1.61036e-05
1.61038e-05
1.61041e-05
1.61044e-05
1.61047e-05
1.61052e-05
1.61058e-05
1.61066e-05
1.61073e-05
1.6109e-05
1.61086e-05
1.61143e-05
1.61124e-05
1.61099e-05
1.61009e-05
1.6101e-05
1.61006e-05
1.60997e-05
1.60994e-05
1.60992e-05
1.60989e-05
1.60985e-05
1.60982e-05
1.6098e-05
1.60978e-05
1.60977e-05
1.60976e-05
1.60976e-05
1.60975e-05
1.60975e-05
1.60976e-05
1.60976e-05
1.60977e-05
1.60978e-05
1.60979e-05
1.60981e-05
1.60982e-05
1.60985e-05
1.60987e-05
1.60989e-05
1.60992e-05
1.60994e-05
1.60997e-05
1.61e-05
1.61002e-05
1.61005e-05
1.61008e-05
1.6101e-05
1.61012e-05
1.61014e-05
1.61015e-05
1.61016e-05
1.61017e-05
1.61005e-05
1.61003e-05
1.61001e-05
1.61003e-05
1.61005e-05
1.61007e-05
1.61009e-05
1.61011e-05
1.61014e-05
1.61016e-05
1.61018e-05
1.6102e-05
1.61022e-05
1.61023e-05
1.61025e-05
1.61026e-05
1.61028e-05
1.61029e-05
1.6103e-05
1.61031e-05
1.61032e-05
1.61033e-05
1.61035e-05
1.61036e-05
1.61037e-05
1.61038e-05
1.6104e-05
1.61042e-05
1.61045e-05
1.61048e-05
1.61053e-05
1.61058e-05
1.61065e-05
1.61072e-05
1.61085e-05
1.61092e-05
1.61114e-05
1.61144e-05
1.61134e-05
1.61007e-05
1.61008e-05
1.61004e-05
1.60996e-05
1.60993e-05
1.6099e-05
1.60987e-05
1.60983e-05
1.6098e-05
1.60978e-05
1.60976e-05
1.60975e-05
1.60974e-05
1.60974e-05
1.60974e-05
1.60974e-05
1.60974e-05
1.60975e-05
1.60975e-05
1.60976e-05
1.60977e-05
1.60979e-05
1.6098e-05
1.60982e-05
1.60985e-05
1.60987e-05
1.60989e-05
1.60992e-05
1.60994e-05
1.60997e-05
1.61e-05
1.61003e-05
1.61005e-05
1.61008e-05
1.61011e-05
1.61013e-05
1.61014e-05
1.61015e-05
1.61016e-05
1.61004e-05
1.61002e-05
1.61001e-05
1.61003e-05
1.61004e-05
1.61007e-05
1.61009e-05
1.61012e-05
1.61014e-05
1.61016e-05
1.61019e-05
1.61021e-05
1.61022e-05
1.61024e-05
1.61026e-05
1.61027e-05
1.61029e-05
1.6103e-05
1.61031e-05
1.61033e-05
1.61034e-05
1.61035e-05
1.61036e-05
1.61038e-05
1.61039e-05
1.6104e-05
1.61042e-05
1.61044e-05
1.61046e-05
1.61049e-05
1.61053e-05
1.61058e-05
1.61064e-05
1.61072e-05
1.61081e-05
1.61093e-05
1.61106e-05
1.61131e-05
1.61157e-05
1.61005e-05
1.61006e-05
1.61002e-05
1.60994e-05
1.60991e-05
1.60988e-05
1.60985e-05
1.60981e-05
1.60978e-05
1.60976e-05
1.60974e-05
1.60973e-05
1.60973e-05
1.60972e-05
1.60972e-05
1.60972e-05
1.60972e-05
1.60973e-05
1.60973e-05
1.60974e-05
1.60975e-05
1.60977e-05
1.60978e-05
1.6098e-05
1.60982e-05
1.60984e-05
1.60987e-05
1.60989e-05
1.60992e-05
1.60994e-05
1.60997e-05
1.61e-05
1.61003e-05
1.61006e-05
1.61008e-05
1.61011e-05
1.61012e-05
1.61013e-05
1.61015e-05
1.61002e-05
1.61001e-05
1.61e-05
1.61002e-05
1.61004e-05
1.61007e-05
1.61009e-05
1.61012e-05
1.61014e-05
1.61017e-05
1.61019e-05
1.61021e-05
1.61023e-05
1.61025e-05
1.61027e-05
1.61029e-05
1.6103e-05
1.61032e-05
1.61033e-05
1.61034e-05
1.61036e-05
1.61037e-05
1.61038e-05
1.61039e-05
1.61041e-05
1.61042e-05
1.61044e-05
1.61046e-05
1.61048e-05
1.61051e-05
1.61054e-05
1.61059e-05
1.61064e-05
1.61071e-05
1.6108e-05
1.61091e-05
1.61105e-05
1.61118e-05
1.61159e-05
1.61003e-05
1.61004e-05
1.61e-05
1.60993e-05
1.60989e-05
1.60986e-05
1.60983e-05
1.60979e-05
1.60976e-05
1.60974e-05
1.60972e-05
1.60971e-05
1.60971e-05
1.6097e-05
1.6097e-05
1.6097e-05
1.60971e-05
1.60971e-05
1.60972e-05
1.60972e-05
1.60973e-05
1.60974e-05
1.60976e-05
1.60978e-05
1.6098e-05
1.60982e-05
1.60984e-05
1.60986e-05
1.60989e-05
1.60992e-05
1.60994e-05
1.60997e-05
1.61e-05
1.61003e-05
1.61006e-05
1.61009e-05
1.61011e-05
1.61011e-05
1.61014e-05
1.61001e-05
1.61e-05
1.60999e-05
1.61002e-05
1.61004e-05
1.61006e-05
1.61009e-05
1.61012e-05
1.61015e-05
1.61017e-05
1.6102e-05
1.61022e-05
1.61024e-05
1.61026e-05
1.61028e-05
1.6103e-05
1.61031e-05
1.61033e-05
1.61034e-05
1.61036e-05
1.61037e-05
1.61039e-05
1.6104e-05
1.61041e-05
1.61043e-05
1.61044e-05
1.61046e-05
1.61048e-05
1.6105e-05
1.61052e-05
1.61056e-05
1.6106e-05
1.61065e-05
1.61071e-05
1.6108e-05
1.61089e-05
1.61104e-05
1.61111e-05
1.61152e-05
1.61002e-05
1.61002e-05
1.60999e-05
1.60991e-05
1.60987e-05
1.60984e-05
1.6098e-05
1.60977e-05
1.60974e-05
1.60972e-05
1.6097e-05
1.60969e-05
1.60969e-05
1.60968e-05
1.60968e-05
1.60968e-05
1.60969e-05
1.60969e-05
1.60969e-05
1.6097e-05
1.60971e-05
1.60972e-05
1.60974e-05
1.60975e-05
1.60977e-05
1.60979e-05
1.60981e-05
1.60983e-05
1.60986e-05
1.60989e-05
1.60991e-05
1.60994e-05
1.60997e-05
1.61e-05
1.61003e-05
1.61006e-05
1.61009e-05
1.6101e-05
1.61013e-05
1.60999e-05
1.60999e-05
1.60999e-05
1.61001e-05
1.61004e-05
1.61006e-05
1.61009e-05
1.61012e-05
1.61015e-05
1.61018e-05
1.6102e-05
1.61023e-05
1.61025e-05
1.61027e-05
1.61029e-05
1.61031e-05
1.61032e-05
1.61034e-05
1.61036e-05
1.61037e-05
1.61039e-05
1.6104e-05
1.61042e-05
1.61043e-05
1.61045e-05
1.61046e-05
1.61048e-05
1.6105e-05
1.61052e-05
1.61054e-05
1.61057e-05
1.61061e-05
1.61066e-05
1.61072e-05
1.61079e-05
1.61088e-05
1.61103e-05
1.61108e-05
1.61145e-05
1.61e-05
1.61e-05
1.60997e-05
1.60989e-05
1.60985e-05
1.60982e-05
1.60978e-05
1.60974e-05
1.60972e-05
1.6097e-05
1.60968e-05
1.60967e-05
1.60966e-05
1.60966e-05
1.60966e-05
1.60966e-05
1.60966e-05
1.60967e-05
1.60967e-05
1.60968e-05
1.60969e-05
1.6097e-05
1.60971e-05
1.60973e-05
1.60974e-05
1.60976e-05
1.60978e-05