/*--------------------------------*- C++ -*----------------------------------*\
| =========                 |                                                 |
| \\      /  F ield         | OpenFOAM: The Open Source CFD Toolbox           |
|  \\    /   O peration     | Version:  2206                                  |
|   \\  /    A nd           | Website:  www.openfoam.com                      |
|    \\/     M anipulation  |                                                 |
\*---------------------------------------------------------------------------*/
FoamFile
{
    version     2.0;
    format      ascii;
    arch        "LSB;label=32;scalar=64";
    class       volScalarField;
    location    "0.6";
    object      nut;
}
// * * * * * * * * * * * * * * * * * * * * * * * * * * * * * * * * * * * * * //

dimensions      [0 2 -1 0 0 0 0];

internalField   nonuniform List<scalar> 
186046
(
8.47836e-16
8.65398e-16
9.07888e-16
9.14692e-16
9.11422e-16
8.49726e-16
8.61785e-16
8.68513e-16
9.0301e-16
9.03804e-16
8.525e-16
9.15159e-16
9.07364e-16
8.5583e-16
8.69064e-16
8.65034e-16
9.08542e-16
8.69253e-16
8.64665e-16
9.21425e-16
8.48859e-16
9.05063e-16
8.70937e-16
9.19363e-16
9.13347e-16
8.63439e-16
9.14487e-16
9.16739e-16
9.17434e-16
9.25542e-16
8.64818e-16
9.14519e-16
9.1681e-16
9.11856e-16
9.14813e-16
8.63313e-16
8.6227e-16
8.73825e-16
9.24632e-16
8.54842e-16
8.59449e-16
9.07547e-16
9.25594e-16
9.10058e-16
9.09316e-16
9.18845e-16
9.09454e-16
8.68954e-16
8.71538e-16
8.59895e-16
8.53993e-16
8.56715e-16
9.19902e-16
8.70087e-16
9.22894e-16
9.25038e-16
9.03067e-16
8.67497e-16
9.23066e-16
8.47486e-16
9.06869e-16
8.52063e-16
9.17916e-16
9.07814e-16
9.04451e-16
8.54178e-16
8.98541e-16
9.12277e-16
8.63021e-16
9.18004e-16
8.75953e-16
8.62734e-16
8.64256e-16
9.12118e-16
9.03959e-16
8.78217e-16
8.66396e-16
9.05692e-16
8.52694e-16
9.05256e-16
8.50101e-16
8.57867e-16
9.17445e-16
9.20188e-16
9.11672e-16
8.44924e-16
8.46177e-16
9.0147e-16
8.59704e-16
9.03573e-16
8.51685e-16
9.03287e-16
9.00949e-16
9.10311e-16
8.99411e-16
8.66962e-16
8.98549e-16
9.00305e-16
9.02242e-16
8.62823e-16
8.4878e-16
8.96933e-16
8.48556e-16
9.0247e-16
8.49466e-16
9.03547e-16
8.63792e-16
8.61434e-16
8.49348e-16
8.58783e-16
8.72627e-16
8.73515e-16
8.62721e-16
9.17136e-16
8.99077e-16
9.1162e-16
8.44569e-16
8.65634e-16
8.54772e-16
9.14847e-16
8.43273e-16
8.46461e-16
9.00526e-16
8.46514e-16
8.98013e-16
8.44621e-16
8.4814e-16
8.98661e-16
8.68636e-16
9.09935e-16
8.71836e-16
9.07688e-16
8.68971e-16
9.15933e-16
9.2911e-16
8.991e-16
8.97348e-16
9.3136e-16
8.77861e-16
8.70843e-16
8.61099e-16
8.67962e-16
8.45002e-16
8.60669e-16
9.22812e-16
8.67142e-16
9.31926e-16
8.66905e-16
9.29731e-16
8.66157e-16
8.43756e-16
9.08914e-16
8.46021e-16
8.94051e-16
8.97887e-16
8.60288e-16
8.43702e-16
9.00102e-16
9.31411e-16
8.66241e-16
8.658e-16
9.07447e-16
8.64428e-16
8.6954e-16
9.33279e-16
8.99604e-16
8.46691e-16
8.44792e-16
8.52527e-16
8.98387e-16
9.05725e-16
8.99276e-16
9.00956e-16
9.01312e-16
9.19304e-16
8.46942e-16
8.43388e-16
8.99183e-16
9.01414e-16
9.256e-16
9.02204e-16
8.5028e-16
9.2723e-16
8.52125e-16
9.11905e-16
8.46181e-16
9.03216e-16
8.96966e-16
8.43388e-16
8.47912e-16
8.59749e-16
8.62221e-16
9.23277e-16
8.9713e-16
8.45035e-16
8.64399e-16
8.98072e-16
8.79122e-16
9.11786e-16
9.06892e-16
9.00265e-16
9.11918e-16
8.60434e-16
8.63811e-16
9.13365e-16
8.45724e-16
8.48068e-16
8.63408e-16
8.48319e-16
9.12454e-16
9.03978e-16
8.52983e-16
8.64885e-16
9.15621e-16
9.18669e-16
8.7395e-16
9.19308e-16
8.69121e-16
8.69332e-16
9.07022e-16
8.67521e-16
9.20411e-16
8.71992e-16
8.75599e-16
8.68945e-16
8.70831e-16
9.02879e-16
9.2148e-16
9.1359e-16
9.28785e-16
8.75141e-16
8.7054e-16
8.6153e-16
9.28424e-16
9.28241e-16
8.60428e-16
9.17936e-16
9.2358e-16
8.55344e-16
8.59753e-16
9.27893e-16
9.26283e-16
9.22337e-16
9.25256e-16
8.61531e-16
8.58314e-16
8.5899e-16
8.70283e-16
9.21292e-16
9.22982e-16
9.21751e-16
9.28276e-16
9.25655e-16
9.24378e-16
9.2159e-16
9.22801e-16
9.10013e-16
8.5749e-16
9.07335e-16
9.20474e-16
8.56838e-16
9.22659e-16
8.6005e-16
9.20335e-16
9.24635e-16
8.63545e-16
8.60956e-16
9.091e-16
8.63579e-16
9.25744e-16
8.60982e-16
8.63625e-16
8.61128e-16
8.51844e-16
9.18958e-16
9.18442e-16
8.57277e-16
9.11268e-16
8.98115e-16
8.45413e-16
9.06057e-16
8.98781e-16
8.57684e-16
9.00354e-16
8.44868e-16
9.13987e-16
9.32973e-16
9.2859e-16
8.6954e-16
9.2397e-16
8.67479e-16
8.65499e-16
9.14431e-16
9.23376e-16
9.11342e-16
9.11803e-16
8.43504e-16
9.17975e-16
8.65002e-16
8.71215e-16
9.14082e-16
9.2818e-16
8.65303e-16
8.61231e-16
9.2901e-16
9.28186e-16
8.63422e-16
9.13588e-16
9.1212e-16
9.02744e-16
9.11733e-16
9.11987e-16
8.62989e-16
8.72308e-16
9.32388e-16
9.06951e-16
8.45921e-16
9.10138e-16
9.11418e-16
8.62805e-16
9.18834e-16
9.28246e-16
8.61378e-16
8.59203e-16
8.65274e-16
9.12987e-16
9.2732e-16
8.64986e-16
8.61446e-16
9.05858e-16
8.67065e-16
9.14741e-16
8.65903e-16
8.68334e-16
9.05053e-16
8.49766e-16
9.11206e-16
9.14053e-16
8.62726e-16
9.12003e-16
8.60661e-16
8.66121e-16
8.60003e-16
8.61582e-16
8.97752e-16
8.59917e-16
8.63768e-16
8.65387e-16
8.78914e-16
8.62368e-16
8.58926e-16
9.10326e-16
9.08051e-16
8.59453e-16
8.6197e-16
9.03798e-16
8.64194e-16
9.24311e-16
9.07791e-16
9.11946e-16
8.65525e-16
8.65889e-16
9.04934e-16
8.48983e-16
9.14939e-16
9.24998e-16
8.62918e-16
8.73456e-16
8.65841e-16
9.20402e-16
9.17544e-16
8.50351e-16
8.46121e-16
9.01823e-16
8.99766e-16
9.15251e-16
9.14392e-16
9.26791e-16
8.4421e-16
8.98589e-16
8.64158e-16
8.65057e-16
8.64934e-16
8.62665e-16
8.42928e-16
8.47979e-16
8.41514e-16
8.48579e-16
9.21876e-16
8.58056e-16
8.9787e-16
8.61029e-16
9.14721e-16
8.67832e-16
8.66338e-16
9.09351e-16
9.23555e-16
9.25575e-16
8.64635e-16
9.06187e-16
8.63641e-16
9.18266e-16
9.20587e-16
8.42171e-16
8.63763e-16
9.28337e-16
9.32371e-16
9.26306e-16
8.657e-16
8.62345e-16
8.6343e-16
9.27716e-16
9.20651e-16
8.71673e-16
8.49663e-16
9.1047e-16
8.66134e-16
8.55773e-16
8.44739e-16
8.68275e-16
8.61787e-16
8.47599e-16
8.70725e-16
8.69746e-16
9.26254e-16
9.19329e-16
8.58298e-16
8.55391e-16
8.61574e-16
8.65838e-16
8.99558e-16
8.97959e-16
9.33763e-16
8.70425e-16
8.69162e-16
9.09415e-16
8.45249e-16
9.20709e-16
9.13662e-16
8.57243e-16
8.65921e-16
9.28499e-16
9.21556e-16
8.41728e-16
8.65867e-16
9.13736e-16
9.17616e-16
9.26898e-16
8.63653e-16
9.27192e-16
9.27186e-16
9.11846e-16
8.6612e-16
8.69658e-16
8.69085e-16
9.14161e-16
9.1813e-16
8.71818e-16
9.15774e-16
9.14199e-16
8.67256e-16
9.12295e-16
8.99167e-16
9.23885e-16
8.64693e-16
8.59371e-16
9.19949e-16
9.24096e-16
9.1836e-16
8.60404e-16
9.09037e-16
9.22925e-16
8.76765e-16
9.24095e-16
9.24589e-16
8.7934e-16
9.2443e-16
8.71447e-16
9.24672e-16
9.24599e-16
8.74119e-16
9.20297e-16
9.18311e-16
8.68215e-16
9.13266e-16
8.70057e-16
8.70928e-16
8.50003e-16
8.72292e-16
9.17465e-16
8.68126e-16
9.14971e-16
8.64195e-16
9.14032e-16
9.16729e-16
8.68389e-16
8.66259e-16
9.0513e-16
9.15164e-16
8.66087e-16
8.68407e-16
8.65227e-16
8.65554e-16
9.1475e-16
8.67607e-16
9.12374e-16
8.66565e-16
8.67738e-16
9.1245e-16
8.64326e-16
8.67334e-16
9.16742e-16
9.14722e-16
8.69349e-16
8.72085e-16
8.72399e-16
8.69121e-16
9.19118e-16
8.71784e-16
8.67529e-16
9.17599e-16
8.6663e-16
8.70754e-16
8.71932e-16
8.76159e-16
9.20398e-16
9.2425e-16
9.21379e-16
9.18609e-16
8.73239e-16
9.20081e-16
8.75347e-16
9.21161e-16
8.69743e-16
8.6981e-16
8.71419e-16
9.1891e-16
8.71374e-16
9.13817e-16
8.71547e-16
9.18792e-16
8.76002e-16
9.22158e-16
8.73901e-16
9.20991e-16
8.76835e-16
9.22848e-16
8.76448e-16
9.21219e-16
8.78258e-16
9.23837e-16
8.81654e-16
9.24612e-16
8.77461e-16
9.24268e-16
8.83098e-16
9.28707e-16
8.7644e-16
9.23961e-16
8.77466e-16
9.20736e-16
8.78761e-16
9.23606e-16
8.7555e-16
9.2062e-16
8.74028e-16
9.15263e-16
8.69929e-16
9.15672e-16
8.70273e-16
9.14734e-16
8.68322e-16
9.15466e-16
8.65865e-16
9.11532e-16
8.68282e-16
9.13187e-16
8.6928e-16
9.15345e-16
8.69045e-16
9.12653e-16
8.65834e-16
9.12235e-16
8.64486e-16
9.10652e-16
8.68815e-16
9.13741e-16
8.69225e-16
9.14608e-16
8.66329e-16
9.11204e-16
8.66256e-16
9.11105e-16
8.6969e-16
9.12029e-16
8.66508e-16
9.16804e-16
8.71894e-16
9.11971e-16
8.63936e-16
9.10974e-16
8.65378e-16
9.09919e-16
8.64988e-16
9.12573e-16
8.68277e-16
9.10453e-16
8.64838e-16
9.09969e-16
8.65095e-16
9.11689e-16
8.69578e-16
9.13515e-16
8.68146e-16
9.13421e-16
8.66988e-16
9.11988e-16
8.67283e-16
9.10429e-16
8.68776e-16
9.14477e-16
8.69357e-16
9.13677e-16
8.67142e-16
9.15498e-16
8.75398e-16
9.17545e-16
8.71375e-16
9.14442e-16
8.70566e-16
9.13835e-16
8.67432e-16
9.1302e-16
8.6841e-16
9.11466e-16
8.666e-16
9.1152e-16
8.69045e-16
9.14345e-16
8.69678e-16
9.1425e-16
8.66369e-16
9.1416e-16
8.68574e-16
9.17157e-16
8.74543e-16
9.15581e-16
8.71395e-16
9.16237e-16
8.74697e-16
9.18565e-16
8.72534e-16
9.1719e-16
8.72364e-16
9.18063e-16
8.75776e-16
9.17064e-16
8.70593e-16
9.19951e-16
8.7376e-16
9.18765e-16
8.76015e-16
9.19619e-16
8.73295e-16
9.16776e-16
8.70748e-16
9.15082e-16
8.71788e-16
9.18521e-16
8.70963e-16
9.17497e-16
8.72353e-16
9.18141e-16
8.71788e-16
9.17628e-16
8.69001e-16
9.1673e-16
8.73347e-16
9.21797e-16
8.72623e-16
9.19741e-16
8.73861e-16
9.22167e-16
8.77185e-16
9.23539e-16
8.7633e-16
9.23936e-16
8.78726e-16
9.23671e-16
8.75759e-16
9.22091e-16
8.80617e-16
9.24145e-16
8.79381e-16
9.26696e-16
8.76855e-16
9.2278e-16
8.74958e-16
9.19572e-16
8.73309e-16
9.21898e-16
8.7373e-16
9.19111e-16
8.69721e-16
9.17201e-16
8.71463e-16
9.13606e-16
8.6789e-16
9.1486e-16
8.67936e-16
9.17082e-16
8.6964e-16
9.14986e-16
8.69762e-16
9.17491e-16
8.71104e-16
9.16477e-16
8.67168e-16
9.15232e-16
8.66499e-16
9.14268e-16
8.69052e-16
9.12058e-16
8.68627e-16
9.15105e-16
8.67487e-16
9.14582e-16
8.67037e-16
9.13002e-16
8.6933e-16
9.12611e-16
8.63952e-16
9.12783e-16
8.71229e-16
9.1238e-16
8.63113e-16
9.10637e-16
8.64205e-16
9.08909e-16
8.62395e-16
9.10038e-16
8.65703e-16
9.11476e-16
8.64706e-16
9.11429e-16
8.64885e-16
9.11733e-16
8.67039e-16
9.11318e-16
8.66281e-16
9.11854e-16
8.64765e-16
9.14653e-16
8.65804e-16
9.11302e-16
8.6561e-16
9.1184e-16
8.66967e-16
9.13378e-16
8.63801e-16
9.15237e-16
8.72119e-16
9.16963e-16
8.71382e-16
9.16959e-16
8.70163e-16
9.16908e-16
8.70151e-16
9.1638e-16
8.69342e-16
9.14876e-16
8.66932e-16
9.12184e-16
8.66482e-16
9.11673e-16
8.69374e-16
9.12205e-16
8.65857e-16
9.14244e-16
8.67806e-16
9.15843e-16
8.71381e-16
9.18886e-16
8.72288e-16
9.17436e-16
8.72249e-16
9.18751e-16
8.72787e-16
9.18215e-16
8.70754e-16
9.16271e-16
8.72104e-16
9.13597e-16
8.67719e-16
9.17466e-16
8.69746e-16
9.16804e-16
8.71797e-16
9.15999e-16
8.71758e-16
9.19795e-16
8.70619e-16
9.15992e-16
8.70955e-16
9.17393e-16
8.72203e-16
9.17941e-16
8.71362e-16
9.16869e-16
8.74636e-16
9.21184e-16
8.70989e-16
9.18171e-16
8.72096e-16
9.19489e-16
8.73996e-16
9.21645e-16
8.75092e-16
9.21326e-16
8.78048e-16
9.26765e-16
8.80098e-16
9.25224e-16
8.81125e-16
9.24292e-16
8.74602e-16
9.23511e-16
8.76856e-16
9.20478e-16
8.77258e-16
9.22021e-16
8.76945e-16
9.23424e-16
8.74815e-16
9.19953e-16
8.73854e-16
9.18143e-16
8.72572e-16
9.18102e-16
8.69189e-16
9.16894e-16
8.70455e-16
9.15793e-16
8.66526e-16
9.12252e-16
8.67475e-16
9.14271e-16
8.71099e-16
9.17398e-16
8.71576e-16
9.17618e-16
8.73241e-16
9.16315e-16
8.68044e-16
9.13399e-16
8.66254e-16
9.13956e-16
8.67628e-16
9.12924e-16
8.67956e-16
9.11578e-16
8.65397e-16
9.11028e-16
8.64623e-16
9.09434e-16
8.66108e-16
9.13819e-16
8.64219e-16
9.11202e-16
8.68693e-16
9.12875e-16
8.65359e-16
9.12838e-16
8.67173e-16
9.12309e-16
8.64959e-16
9.12485e-16
8.67944e-16
9.12784e-16
8.65894e-16
9.11734e-16
8.65174e-16
9.14192e-16
8.67826e-16
9.12653e-16
8.65009e-16
9.08648e-16
8.6301e-16
9.10751e-16
8.68016e-16
9.14783e-16
8.68233e-16
9.14426e-16
8.70403e-16
9.14707e-16
8.66232e-16
9.17807e-16
8.70589e-16
9.15524e-16
8.72334e-16
9.17189e-16
8.70324e-16
9.16609e-16
8.7117e-16
9.15521e-16
8.67831e-16
9.14278e-16
8.68035e-16
9.15055e-16
8.67164e-16
9.13796e-16
8.70248e-16
9.14646e-16
8.66742e-16
9.16405e-16
8.68561e-16
9.12908e-16
8.67626e-16
9.15464e-16
8.70876e-16
9.16584e-16
8.68796e-16
9.17028e-16
8.73618e-16
9.19541e-16
8.71918e-16
9.18923e-16
8.7112e-16
9.16558e-16
8.6889e-16
9.16405e-16
8.6965e-16
9.18498e-16
8.72222e-16
9.15334e-16
8.71025e-16
9.17829e-16
8.71322e-16
9.17026e-16
8.70575e-16
9.16329e-16
8.72093e-16
9.17941e-16
8.70966e-16
9.16117e-16
8.72724e-16
9.17438e-16
8.7162e-16
9.18237e-16
8.71311e-16
9.19284e-16
8.76387e-16
9.21669e-16
8.75937e-16
9.20678e-16
8.759e-16
9.2629e-16
8.82109e-16
9.23881e-16
8.79598e-16
9.21495e-16
8.71664e-16
9.22459e-16
8.75579e-16
9.22255e-16
8.74713e-16
9.19584e-16
8.75284e-16
9.20722e-16
8.73893e-16
9.21575e-16
8.75675e-16
9.18255e-16
8.72427e-16
9.15923e-16
8.7027e-16
9.1456e-16
8.70771e-16
9.1651e-16
8.68368e-16
9.1535e-16
8.67155e-16
9.13315e-16
8.68012e-16
9.17433e-16
8.70472e-16
9.16553e-16
8.70868e-16
9.15872e-16
8.65778e-16
9.11629e-16
8.65219e-16
9.11539e-16
8.64915e-16
9.12167e-16
8.67849e-16
9.13209e-16
8.66084e-16
9.11119e-16
8.65426e-16
9.1036e-16
8.6751e-16
9.14801e-16
8.66454e-16
9.13644e-16
8.66755e-16
9.12406e-16
8.64468e-16
9.09678e-16
8.65117e-16
9.09799e-16
8.63195e-16
9.1207e-16
8.6714e-16
9.13708e-16
8.66827e-16
9.10631e-16
8.64971e-16
9.1081e-16
8.66528e-16
9.13105e-16
8.64149e-16
9.11771e-16
8.62428e-16
9.10041e-16
8.68516e-16
9.14836e-16
8.69436e-16
9.15489e-16
8.71758e-16
9.14742e-16
8.70791e-16
9.16762e-16
8.69221e-16
9.13783e-16
8.68562e-16
9.13193e-16
8.6594e-16
9.11838e-16
8.66623e-16
9.13373e-16
8.66716e-16
9.1385e-16
8.68992e-16
9.15855e-16
8.68304e-16
9.14219e-16
8.70556e-16
9.13978e-16
8.69775e-16
9.18241e-16
8.69452e-16
9.1598e-16
8.67135e-16
9.14322e-16
8.71411e-16
9.19045e-16
8.71212e-16
9.18633e-16
8.75148e-16
9.18326e-16
8.72924e-16
9.17989e-16
8.70577e-16
9.17724e-16
8.69634e-16
9.15947e-16
8.69654e-16
9.17824e-16
8.7333e-16
9.18029e-16
8.68865e-16
9.15493e-16
8.70099e-16
9.15932e-16
8.68598e-16
9.14883e-16
8.69367e-16
9.14103e-16
8.7026e-16
9.19007e-16
8.7251e-16
9.18255e-16
8.72972e-16
9.18443e-16
8.69263e-16
9.1734e-16
8.73207e-16
9.18239e-16
8.73328e-16
9.18497e-16
8.7246e-16
9.22902e-16
8.80385e-16
9.22553e-16
8.76651e-16
9.19897e-16
8.7041e-16
9.20153e-16
8.75262e-16
9.244e-16
8.77309e-16
9.22582e-16
8.76195e-16
9.21071e-16
8.72877e-16
9.20238e-16
8.73621e-16
9.20922e-16
8.7162e-16
9.18177e-16
8.69193e-16
9.1409e-16
8.6807e-16
9.13517e-16
8.69873e-16
9.19181e-16
8.71523e-16
9.16992e-16
8.66958e-16
9.17494e-16
8.71278e-16
9.16314e-16
8.70811e-16
9.18191e-16
8.68708e-16
9.1501e-16
8.68215e-16
9.16166e-16
8.6843e-16
9.14629e-16
8.69197e-16
9.1546e-16
8.66987e-16
9.12005e-16
8.63278e-16
9.09186e-16
8.66032e-16
9.10793e-16
8.67325e-16
9.14135e-16
8.67026e-16
9.13755e-16
8.64837e-16
9.10725e-16
8.6665e-16
9.10398e-16
8.62597e-16
9.09573e-16
8.6405e-16
9.11616e-16
8.66759e-16
9.12443e-16
8.65268e-16
9.0991e-16
8.66638e-16
9.11148e-16
8.64906e-16
9.1232e-16
8.62062e-16
9.10748e-16
8.67056e-16
9.14035e-16
8.68069e-16
9.14987e-16
8.6848e-16
9.15625e-16
8.71235e-16
9.15494e-16
8.69368e-16
9.16296e-16
8.69791e-16
9.14547e-16
8.66309e-16
9.1183e-16
8.65706e-16
9.13373e-16
8.6635e-16
9.13745e-16
8.67567e-16
9.14401e-16
8.66952e-16
9.15578e-16
8.69856e-16
9.13612e-16
8.70573e-16
9.17097e-16
8.70975e-16
9.17359e-16
8.67678e-16
9.15281e-16
8.70425e-16
9.17786e-16
8.70635e-16
9.18068e-16
8.73306e-16
9.16696e-16
8.72911e-16
9.15905e-16
8.70366e-16
9.16824e-16
8.69803e-16
9.15978e-16
8.6901e-16
9.159e-16
8.71589e-16
9.18293e-16
8.69948e-16
9.15471e-16
8.69623e-16
9.15177e-16
8.6756e-16
9.1742e-16
8.69247e-16
9.13853e-16
8.6841e-16
9.16564e-16
8.72537e-16
9.1802e-16
8.732e-16
9.18776e-16
8.68486e-16
9.15303e-16
8.68419e-16
9.16684e-16
8.71195e-16
9.18624e-16
8.70043e-16
9.19617e-16
8.77016e-16
9.24306e-16
8.77356e-16
9.2513e-16
8.74696e-16
9.22944e-16
8.74981e-16
9.26347e-16
8.8023e-16
9.2414e-16
8.79386e-16
9.25563e-16
8.79524e-16
9.22748e-16
8.75635e-16
9.19288e-16
8.72693e-16
9.19147e-16
8.70167e-16
9.17606e-16
8.6894e-16
9.11264e-16
8.67988e-16
9.14731e-16
8.73156e-16
9.20006e-16
8.6897e-16
9.19022e-16
8.73551e-16
9.17637e-16
8.71587e-16
9.18484e-16
8.70889e-16
9.16894e-16
8.68837e-16
9.16612e-16
8.69866e-16
9.15051e-16
8.68316e-16
9.14753e-16
8.67057e-16
9.14115e-16
8.64668e-16
9.14456e-16
8.66246e-16
9.11971e-16
8.68276e-16
9.13759e-16
8.67964e-16
9.1332e-16
8.64586e-16
9.09573e-16
8.66889e-16
9.10582e-16
8.63111e-16
9.11335e-16
8.64347e-16
9.10022e-16
8.65802e-16
9.12533e-16
8.64219e-16
9.10372e-16
8.64987e-16
9.08473e-16
8.64349e-16
9.10751e-16
8.6264e-16
9.10415e-16
8.65707e-16
9.14516e-16
8.6802e-16
9.16622e-16
8.6888e-16
9.18839e-16
8.71049e-16
9.14052e-16
8.67224e-16
9.14714e-16
8.68242e-16
9.1484e-16
8.66783e-16
9.13243e-16
8.6708e-16
9.13766e-16
8.67328e-16
9.14485e-16
8.68519e-16
9.15742e-16
8.68309e-16
9.17708e-16
8.71182e-16
9.14752e-16
8.69873e-16
9.14975e-16
8.72083e-16
9.17576e-16
8.69564e-16
9.17138e-16
8.71591e-16
9.17932e-16
8.70074e-16
9.20747e-16
8.74038e-16
9.20173e-16
8.73001e-16
9.18353e-16
8.7079e-16
9.18489e-16
8.71421e-16
9.18383e-16
8.70405e-16
9.16192e-16
8.67075e-16
9.17571e-16
8.71353e-16
9.16444e-16
8.70707e-16
9.16754e-16
8.70438e-16
9.17101e-16
8.72601e-16
9.20557e-16
8.71883e-16
9.17336e-16
8.71938e-16
9.18899e-16
8.69699e-16
9.14899e-16
8.6975e-16
9.1838e-16
8.70194e-16
9.18001e-16
8.68316e-16
9.18216e-16
8.74177e-16
9.21164e-16
8.74351e-16
9.21662e-16
8.77657e-16
9.24755e-16
8.79614e-16
9.2663e-16
8.7926e-16
9.23363e-16
8.74358e-16
9.24396e-16
8.78671e-16
9.21495e-16
8.73311e-16
9.21166e-16
8.77533e-16
9.20948e-16
8.73047e-16
9.17826e-16
8.71014e-16
9.1554e-16
8.691e-16
9.18832e-16
8.70649e-16
9.15741e-16
8.67432e-16
9.11975e-16
8.70645e-16
9.16892e-16
8.70417e-16
9.1924e-16
8.73149e-16
9.18678e-16
8.71394e-16
9.15896e-16
8.70755e-16
9.16065e-16
8.69477e-16
9.14679e-16
8.69384e-16
9.15334e-16
8.695e-16
9.1558e-16
8.69178e-16
9.11564e-16
8.64468e-16
9.13606e-16
8.65367e-16
9.11793e-16
8.67605e-16
9.12354e-16
8.66276e-16
9.13446e-16
8.64399e-16
9.07953e-16
8.64176e-16
9.07752e-16
8.62959e-16
9.11365e-16
8.64754e-16
9.096e-16
8.64898e-16
9.11715e-16
8.647e-16
9.13855e-16
8.65458e-16
9.12198e-16
8.65579e-16
9.10883e-16
8.64891e-16
9.10647e-16
8.6606e-16
9.13362e-16
8.6946e-16
9.17229e-16
8.71712e-16
9.21028e-16
8.73969e-16
9.18138e-16
8.7148e-16
9.16754e-16
8.69182e-16
9.14694e-16
8.67711e-16
9.14737e-16
8.68483e-16
9.13456e-16
8.68484e-16
9.13187e-16
8.6834e-16
9.14082e-16
8.67499e-16
9.15225e-16
8.69921e-16
9.15958e-16
8.68113e-16
9.13198e-16
8.69526e-16
9.15139e-16
8.69845e-16
9.165e-16
8.71666e-16
9.17965e-16
8.68666e-16
9.1994e-16
8.77137e-16
9.20089e-16
8.73194e-16
9.17432e-16
8.71297e-16
9.19011e-16
8.74384e-16
9.18583e-16
8.72065e-16
9.17457e-16
8.67213e-16
9.18377e-16
8.74077e-16
9.18135e-16
8.71147e-16
9.19133e-16
8.72263e-16
9.14756e-16
8.71717e-16
9.2009e-16
8.7523e-16
9.20895e-16
8.72864e-16
9.16819e-16
8.76361e-16
9.23902e-16
8.69884e-16
9.15875e-16
8.697e-16
9.18411e-16
8.7458e-16
9.2005e-16
8.71836e-16
9.20647e-16
8.77368e-16
9.22984e-16
8.80139e-16
9.24873e-16
8.76596e-16
9.22746e-16
8.7825e-16
9.24849e-16
8.79781e-16
9.23008e-16
8.71685e-16
9.20081e-16
8.74487e-16
9.21434e-16
8.69606e-16
9.21365e-16
8.78052e-16
9.21162e-16
8.7538e-16
9.21596e-16
8.72957e-16
9.16894e-16
8.69398e-16
9.1521e-16
8.71935e-16
9.19636e-16
8.68892e-16
9.16404e-16
8.69608e-16
9.15987e-16
8.71616e-16
9.16303e-16
8.71006e-16
9.1821e-16
8.70802e-16
9.17333e-16
8.70991e-16
9.17034e-16
8.69942e-16
9.15443e-16
8.68237e-16
9.14126e-16
8.68115e-16
9.14442e-16
8.68534e-16
9.10511e-16
8.63354e-16
9.11892e-16
8.65224e-16
9.10918e-16
8.67001e-16
9.10829e-16
8.65397e-16
9.11284e-16
8.63452e-16
9.08704e-16
8.63103e-16
9.06739e-16
8.6207e-16
9.08662e-16
8.63328e-16
9.09552e-16
8.64613e-16
9.09016e-16
8.63527e-16
9.10889e-16
8.63222e-16
9.11505e-16
8.65159e-16
9.09529e-16
8.64003e-16
9.12351e-16
8.64991e-16
9.12862e-16
8.67385e-16
9.15594e-16
8.70786e-16
9.18178e-16
8.73515e-16
9.16882e-16
8.71836e-16
9.17557e-16
8.68258e-16
9.13837e-16
8.65227e-16
9.12554e-16
8.66284e-16
9.12968e-16
8.65523e-16
9.12818e-16
8.64878e-16
9.12425e-16
8.66018e-16
9.13003e-16
8.69527e-16
9.1509e-16
8.68179e-16
9.15088e-16
8.70438e-16
9.15478e-16
8.70472e-16
9.16911e-16
8.73723e-16
9.16202e-16
8.65865e-16
9.16717e-16
8.74555e-16
9.20903e-16
8.74606e-16
9.17019e-16
8.69159e-16
9.15726e-16
8.72652e-16
9.17284e-16
8.71676e-16
9.15903e-16
8.66271e-16
9.14935e-16
8.71637e-16
9.15961e-16
8.69978e-16
9.17847e-16
8.72233e-16
9.1631e-16
8.68714e-16
9.16493e-16
8.72779e-16
9.19898e-16
8.71617e-16
9.16064e-16
8.72319e-16
9.19786e-16
8.71847e-16
9.17459e-16
8.68528e-16
9.17223e-16
8.72575e-16
9.18133e-16
8.71156e-16
9.19094e-16
8.73745e-16
9.21926e-16
8.80838e-16
9.27756e-16
8.76305e-16
9.23479e-16
8.76879e-16
9.21735e-16
8.79283e-16
9.23953e-16
8.73218e-16
9.22646e-16
8.76228e-16
9.23101e-16
8.72869e-16
9.2392e-16
8.80554e-16
9.22384e-16
8.76333e-16
9.22566e-16
8.73388e-16
9.21423e-16
8.70034e-16
9.14137e-16
8.70199e-16
9.15307e-16
8.69787e-16
9.17892e-16
8.69447e-16
9.17558e-16
8.73384e-16
9.18369e-16
8.70584e-16
9.16864e-16
8.68797e-16
9.15646e-16
8.68988e-16
9.14031e-16
8.6821e-16
9.15347e-16
8.68987e-16
9.16388e-16
8.69606e-16
9.15152e-16
8.69955e-16
9.14522e-16
8.67173e-16
9.13562e-16
8.65778e-16
9.12365e-16
8.64451e-16
9.11395e-16
8.63991e-16
9.10243e-16
8.61754e-16
9.08237e-16
8.61436e-16
9.07946e-16
8.61458e-16
9.09129e-16
8.62102e-16
9.10285e-16
8.65373e-16
9.11565e-16
8.64815e-16
9.12374e-16
8.65294e-16
9.11833e-16
8.66463e-16
9.11596e-16
8.66102e-16
9.13837e-16
8.68294e-16
9.1382e-16
8.66265e-16
9.15179e-16
8.69069e-16
9.17351e-16
8.72721e-16
9.17493e-16
8.72684e-16
9.16526e-16
8.68972e-16
9.14833e-16
8.64315e-16
9.10176e-16
8.65428e-16
9.11028e-16
8.66442e-16
9.12888e-16
8.65274e-16
9.12512e-16
8.66044e-16
9.12908e-16
8.69265e-16
9.13218e-16
8.65172e-16
9.14739e-16
8.68522e-16
9.14738e-16
8.66619e-16
9.18116e-16
8.73952e-16
9.19144e-16
8.68697e-16
9.17796e-16
8.74011e-16
9.2088e-16
8.7652e-16
9.19644e-16
8.68934e-16
9.13943e-16
8.69406e-16
9.16966e-16
8.74173e-16
9.18419e-16
8.68995e-16
9.17037e-16
8.72426e-16
9.17563e-16
8.70478e-16
9.15154e-16
8.70669e-16
9.16437e-16
8.6857e-16
9.13665e-16
8.68232e-16
9.13794e-16
8.6947e-16
9.17253e-16
8.70502e-16
9.16664e-16
8.71841e-16
9.16399e-16
8.67664e-16
9.17112e-16
8.70467e-16
9.18851e-16
8.71737e-16
9.18236e-16
8.70028e-16
9.18046e-16
8.77987e-16
9.23433e-16
8.78128e-16
9.27445e-16
8.79028e-16
9.25163e-16
8.82959e-16
9.24627e-16
8.7667e-16
9.22284e-16
8.7729e-16
9.24797e-16
8.752e-16
9.25394e-16
8.77887e-16
9.22429e-16
8.77188e-16
9.19376e-16
8.72816e-16
9.2089e-16
8.73669e-16
9.21857e-16
8.73844e-16
9.185e-16
8.72549e-16
9.18553e-16
8.71881e-16
9.17147e-16
8.75227e-16
9.21667e-16
8.72879e-16
9.18658e-16
8.69353e-16
9.15025e-16
8.67694e-16
9.14595e-16
8.67662e-16
9.14414e-16
8.67593e-16
9.16135e-16
8.68257e-16
9.1355e-16
8.67405e-16
9.13881e-16
8.68872e-16
9.14493e-16
8.66917e-16
9.1243e-16
8.64736e-16
9.11687e-16
8.65449e-16
9.12126e-16
8.63957e-16
9.09313e-16
8.63405e-16
9.0999e-16
8.6391e-16
9.12337e-16
8.65657e-16
9.12082e-16
8.66838e-16
9.1319e-16
8.67052e-16
9.15875e-16
8.69449e-16
9.13881e-16
8.67889e-16
9.12485e-16
8.6707e-16
9.13686e-16
8.70096e-16
9.15273e-16
8.68883e-16
9.15648e-16
8.67739e-16
9.15627e-16
8.68497e-16
9.17269e-16
8.72213e-16
9.1532e-16
8.70685e-16
9.15501e-16
8.65216e-16
9.12024e-16
8.64454e-16
9.1118e-16
8.65929e-16
9.11601e-16
8.6617e-16
9.1235e-16
8.66543e-16
9.12568e-16
8.66473e-16
9.12506e-16
8.66636e-16
9.13911e-16
8.69041e-16
9.14967e-16
8.67486e-16
9.16773e-16
8.74515e-16
9.18821e-16
8.69816e-16
9.19831e-16
8.71899e-16
9.18276e-16
8.75671e-16
9.19932e-16
8.70476e-16
9.15825e-16
8.67101e-16
9.1563e-16
8.73263e-16
9.18063e-16
8.67822e-16
9.14082e-16
8.68635e-16
9.15634e-16
8.68498e-16
9.12514e-16
8.66889e-16
9.1243e-16
8.67223e-16
9.154e-16
8.69284e-16
9.12979e-16
8.68532e-16
9.15887e-16
8.69661e-16
9.16735e-16
8.70787e-16
9.16004e-16
8.68542e-16
9.16104e-16
8.71202e-16
9.19478e-16
8.77008e-16
9.20397e-16
8.72576e-16
9.22786e-16
8.78838e-16
9.2246e-16
8.79219e-16
9.27428e-16
8.78293e-16
9.25777e-16
8.81344e-16
9.25221e-16
8.75077e-16
9.20124e-16
8.74015e-16
9.20791e-16
8.77731e-16
9.20877e-16
8.73221e-16
9.21067e-16
8.74643e-16
9.1908e-16
8.71911e-16
9.15854e-16
8.72576e-16
9.20059e-16
8.74291e-16
9.19763e-16
8.71183e-16
9.18594e-16
8.7114e-16
9.15889e-16
8.72213e-16
9.17586e-16
8.72472e-16
9.19288e-16
8.69459e-16
9.14788e-16
8.68379e-16
9.1595e-16
8.69912e-16
9.1476e-16
8.69117e-16
9.15986e-16
8.69008e-16
9.16271e-16
8.67841e-16
9.1384e-16
8.70388e-16
9.13437e-16
8.6674e-16
9.12972e-16
8.65493e-16
9.1178e-16
8.67346e-16
9.11669e-16
8.64063e-16
9.0951e-16
8.64817e-16
9.09179e-16
8.63844e-16
9.09804e-16
8.64297e-16
9.12002e-16
8.66526e-16
9.11578e-16
8.64235e-16
9.13831e-16
8.67839e-16
9.15135e-16
8.68606e-16
9.13135e-16
8.65995e-16
9.1142e-16
8.66881e-16
9.13299e-16
8.70396e-16
9.16181e-16
8.69437e-16
9.15755e-16
8.682e-16
9.16822e-16
8.69683e-16
9.15882e-16
8.68648e-16
9.16251e-16
8.67336e-16
9.13846e-16
8.65323e-16
9.14329e-16
8.65847e-16
9.14076e-16
8.67458e-16
9.15263e-16
8.71064e-16
9.14622e-16
8.66352e-16
9.14238e-16
8.69167e-16
9.16264e-16
8.7079e-16
9.17802e-16
8.68889e-16
9.17279e-16
8.73044e-16
9.1635e-16
8.6931e-16
9.21616e-16
8.73298e-16
9.2076e-16
8.7609e-16
9.20441e-16
8.7315e-16
9.20909e-16
8.68895e-16
9.16209e-16
8.72869e-16
9.18845e-16
8.71054e-16
9.1701e-16
8.67915e-16
9.16783e-16
8.6903e-16
9.16626e-16
8.6892e-16
9.14051e-16
8.68104e-16
9.17387e-16
8.72381e-16
9.18038e-16
8.69371e-16
9.16568e-16
8.71137e-16
9.20929e-16
8.72679e-16
9.17808e-16
8.68826e-16
9.17993e-16
8.70304e-16
9.19394e-16
8.7625e-16
9.1954e-16
8.70536e-16
9.20906e-16
8.75933e-16
9.20858e-16
8.77177e-16
9.23908e-16
8.76627e-16
9.24474e-16
8.8056e-16
9.23786e-16
8.76034e-16
9.24795e-16
8.73942e-16
9.22108e-16
8.78782e-16
9.20506e-16
8.74397e-16
9.19365e-16
8.7454e-16
9.21654e-16
8.72736e-16
9.17839e-16
8.71531e-16
9.17133e-16
8.7439e-16
9.20387e-16
8.71055e-16
9.1966e-16
8.72824e-16
9.2071e-16
8.72591e-16
9.16988e-16
8.71023e-16
9.18681e-16
8.70037e-16
9.14754e-16
8.68683e-16
9.15583e-16
8.71493e-16
9.16965e-16
8.72336e-16
9.15712e-16
8.69621e-16
9.16664e-16
8.6646e-16
9.13205e-16
8.68059e-16
9.12139e-16
8.65089e-16
9.10851e-16
8.63382e-16
9.10799e-16
8.65246e-16
9.11323e-16
8.61832e-16
9.09323e-16
8.64355e-16
9.1046e-16
8.64776e-16
9.08679e-16
8.62433e-16
9.1107e-16
8.66473e-16
9.11385e-16
8.63964e-16
9.10653e-16
8.66184e-16
9.12695e-16
8.69228e-16
9.14639e-16
8.67805e-16
9.15366e-16
8.68769e-16
9.1429e-16
8.69438e-16
9.14863e-16
8.67436e-16
9.15337e-16
8.69924e-16
9.15343e-16
8.70492e-16
9.13364e-16
8.67348e-16
9.15777e-16
8.69391e-16
9.14905e-16
8.68641e-16
9.17087e-16
8.6945e-16
9.17126e-16
8.69041e-16
9.15855e-16
8.70599e-16
9.17788e-16
8.68876e-16
9.15184e-16
8.69509e-16
9.16665e-16
8.73791e-16
9.1925e-16
8.72159e-16
9.20925e-16
8.75307e-16
9.19432e-16
8.71757e-16
9.207e-16
8.73874e-16
9.20393e-16
8.7703e-16
9.15959e-16
8.72819e-16
9.19769e-16
8.71572e-16
9.19064e-16
8.71044e-16
9.17001e-16
8.74967e-16
9.19405e-16
8.7131e-16
9.19016e-16
8.71194e-16
9.17026e-16
8.68141e-16
9.1384e-16
8.66811e-16
9.12906e-16
8.71107e-16
9.19287e-16
8.70981e-16
9.17662e-16
8.71711e-16
9.17866e-16
8.85881e-16
9.34909e-16
8.70897e-16
9.13468e-16
8.67129e-16
9.15323e-16
8.6836e-16
9.15385e-16
8.72729e-16
9.1898e-16
8.71359e-16
9.17818e-16
8.74357e-16
9.2166e-16
8.76644e-16
9.22461e-16
8.75419e-16
9.25221e-16
8.80428e-16
9.20742e-16
8.7549e-16
9.22763e-16
8.74091e-16
9.22622e-16
8.75444e-16
9.21393e-16
8.73975e-16
9.18097e-16
8.71823e-16
9.17025e-16
8.71306e-16
9.17559e-16
8.71279e-16
9.16462e-16
8.73163e-16
9.1862e-16
8.7122e-16
9.15525e-16
8.72888e-16
9.19262e-16
8.72871e-16
9.17157e-16
8.70501e-16
9.17952e-16
8.71989e-16
9.17094e-16
8.68976e-16
9.16213e-16
8.6836e-16
9.15746e-16
8.72677e-16
9.15848e-16
8.70201e-16
9.15863e-16
8.68874e-16
9.12079e-16
8.64711e-16
9.11837e-16
8.65502e-16
9.11876e-16
8.63898e-16
9.10989e-16
8.64962e-16
9.11697e-16
8.64109e-16
9.11364e-16
8.65468e-16
9.11827e-16
8.67223e-16
9.1247e-16
8.64959e-16
9.1257e-16
8.67214e-16
9.13875e-16
8.66415e-16
9.12762e-16
8.6704e-16
9.11561e-16
8.67021e-16
9.11021e-16
8.64664e-16
9.13508e-16
8.67035e-16
9.13857e-16
8.6794e-16
9.10549e-16
8.62505e-16
9.12406e-16
8.67772e-16
9.14145e-16
8.68187e-16
9.10788e-16
8.65204e-16
9.11823e-16
8.67815e-16
9.13734e-16
8.69352e-16
9.17307e-16
8.72945e-16
9.19114e-16
8.7286e-16
9.16375e-16
8.69347e-16
9.17492e-16
8.71314e-16
9.18648e-16
8.70752e-16
9.18088e-16
8.74921e-16
9.19797e-16
8.72216e-16
9.18267e-16
8.7569e-16
9.18923e-16
8.71772e-16
9.18419e-16
8.69683e-16
9.18484e-16
8.72424e-16
9.1594e-16
8.67876e-16
9.15932e-16
8.71797e-16
9.17349e-16
8.67264e-16
9.14736e-16
8.70501e-16
9.16706e-16
8.70918e-16
9.17762e-16
8.71638e-16
9.16703e-16
8.67726e-16
9.16116e-16
8.67648e-16
9.11379e-16
8.67827e-16
9.15381e-16
8.71864e-16
9.19072e-16
8.71753e-16
9.16384e-16
8.81998e-16
9.30394e-16
8.68676e-16
9.13472e-16
8.67115e-16
9.15827e-16
8.68168e-16
9.12563e-16
8.66682e-16
9.16294e-16
8.71421e-16
9.1576e-16
8.73537e-16
9.19269e-16
8.75536e-16
9.19855e-16
8.73598e-16
9.24175e-16
8.77775e-16
9.2136e-16
8.73289e-16
9.20849e-16
8.75922e-16
9.21275e-16
8.76062e-16
9.21369e-16
8.7597e-16
9.20507e-16
8.71872e-16
9.17458e-16
8.70987e-16
9.16423e-16
8.70673e-16
9.14672e-16
8.69334e-16
9.15823e-16
8.69905e-16
9.13833e-16
8.69675e-16
9.16105e-16
8.71475e-16
9.15894e-16
8.688e-16
9.13861e-16
8.70547e-16
9.14893e-16
8.67492e-16
9.16994e-16
8.66829e-16
9.14555e-16
8.70009e-16
9.15179e-16
8.69141e-16
9.16332e-16
8.70706e-16
9.12548e-16
8.65194e-16
9.11812e-16
8.66953e-16
9.12407e-16
8.65612e-16
9.13329e-16
8.6615e-16
9.10291e-16
8.63381e-16
9.12258e-16
8.65768e-16
9.10888e-16
8.66439e-16
9.11813e-16
8.64533e-16
9.11967e-16
8.64301e-16
9.11064e-16
8.66406e-16
9.1304e-16
8.67297e-16
9.1358e-16
8.66621e-16
9.10335e-16
8.64275e-16
9.09214e-16
8.65889e-16
9.14232e-16
8.67887e-16
9.11894e-16
8.62132e-16
9.10595e-16
8.6613e-16
9.12702e-16
8.66013e-16
9.12401e-16
8.6528e-16
9.13483e-16
8.67191e-16
9.13713e-16
8.66978e-16
9.13406e-16
8.71161e-16
9.16025e-16
8.7264e-16
9.17199e-16
8.68315e-16
9.14948e-16
8.70268e-16
9.16522e-16
8.67878e-16
9.14864e-16
8.71216e-16
9.20017e-16
8.72259e-16