/*--------------------------------*- C++ -*----------------------------------*\
| =========                 |                                                 |
| \\      /  F ield         | OpenFOAM: The Open Source CFD Toolbox           |
|  \\    /   O peration     | Version:  2206                                  |
|   \\  /    A nd           | Website:  www.openfoam.com                      |
|    \\/     M anipulation  |                                                 |
\*---------------------------------------------------------------------------*/
FoamFile
{
    version     2.0;
    format      ascii;
    arch        "LSB;label=32;scalar=64";
    class       volScalarField;
    location    "0.6";
    object      p;
}
// * * * * * * * * * * * * * * * * * * * * * * * * * * * * * * * * * * * * * //

dimensions      [0 2 -2 0 0 0 0];

internalField   nonuniform List<scalar> 
186046
(
0.0153449
0.0178649
0.0249818
0.0212759
0.0178321
0.0238236
0.0213072
0.0143622
0.0237884
0.0239813
0.0240189
0.0151173
0.0241793
0.0242152
0.0209365
0.0190357
0.0243762
0.0264198
0.0176673
0.0180273
0.0244149
0.0245801
0.0145651
0.0174344
0.0141401
0.0163148
0.0156953
0.0170494
0.0168573
0.0156792
0.0141681
0.0143312
0.0145324
0.0201376
0.0162703
0.0163081
0.0159185
0.0151522
0.0160816
0.0246166
0.0166961
0.0247797
0.0162771
0.0137384
0.0170527
0.0158851
0.0139401
0.0168954
0.0153431
0.0190386
0.0248183
0.0250197
0.0160837
0.0232457
0.0156909
0.0164739
0.0149186
0.0139762
0.0166628
0.0159233
0.0192002
0.0139791
0.0166615
0.0251897
0.0141381
0.0252241
0.019387
0.02639
0.0135718
0.0139284
0.0149543
0.0230504
0.0262218
0.0158885
0.0158847
0.02402
0.015723
0.0253931
0.0254332
0.0255944
0.0256283
0.0194132
0.0135302
0.019
0.0224353
0.0203644
0.0137815
0.0139443
0.01885
0.0257913
0.0258286
0.0259904
0.0137415
0.0162871
0.0162854
0.0236351
0.0184295
0.0195762
0.0261916
0.02266
0.0260261
0.0186297
0.0262219
0.0263846
0.0135787
0.0135445
0.0182606
0.0165107
0.0264171
0.0211185
0.0262211
0.0159227
0.0196103
0.0180332
0.0180317
0.0166712
0.0174713
0.0224653
0.015157
0.0210879
0.017869
0.0168956
0.0172426
0.0170864
0.0176337
0.0172774
0.0176745
0.0174321
0.0228629
0.0195787
0.0248126
0.0207153
0.0252181
0.0249803
0.0237882
0.0170531
0.0214726
0.0245796
0.024217
0.0240103
0.0215016
0.0248117
0.0213141
0.0213088
0.0212745
0.0246115
0.0255839
0.023818
0.02478
0.0167029
0.0186655
0.0190097
0.019997
0.01996
0.0212735
0.0216941
0.0192299
0.019198
0.0251856
0.0232478
0.0256194
0.0203338
0.0244083
0.0254277
0.0243726
0.0220472
0.021702
0.0218946
0.0228637
0.020148
0.0230251
0.0218584
0.0226308
0.0234058
0.0226316
0.0226656
0.0211223
0.0205219
0.0228287
0.0220423
0.0235931
0.0232536
0.025178
0.0230601
0.0182309
0.0205581
0.0232197
0.0207149
0.0207473
0.0236314
0.0174661
0.0209385
0.0182269
0.0209026
0.0190417
0.0170825
0.0188201
0.0250148
0.0234106
0.0197727
0.0190073
0.0174388
0.0207453
0.0172766
0.0188102
0.0163182
0.0143601
0.0264209
0.0161271
0.0191864
0.0145259
0.0145637
0.0234395
0.0186109
0.0251858
0.0246127
0.0176339
0.0184514
0.0234366
0.0201504
0.015151
0.0178255
0.0260213
0.0178644
0.0252183
0.0258253
0.0154903
0.0259825
0.0236051
0.0141301
0.0256225
0.0170855
0.0143555
0.0143206
0.0149119
0.0182602
0.0224264
0.0170475
0.0209306
0.0178635
0.0153038
0.0222323
0.0168581
0.0172373
0.0155189
0.0184577
0.018064
0.0147572
0.0195738
0.0180333
0.0197674
0.0224299
0.0154866
0.017631
0.0193785
0.0154955
0.0210974
0.020738
0.0220462
0.0208992
0.0203593
0.0191906
0.016503
0.0201445
0.0216607
0.0147523
0.0218847
0.0212787
0.023428
0.0263787
0.0168862
0.0184554
0.0264091
0.0149582
0.0241865
0.0243842
0.0197992
0.0153165
0.0216619
0.0167009
0.0151199
0.0164754
0.0218824
0.0160883
0.0215066
0.0214616
0.0253872
0.0233953
0.0250135
0.0214681
0.0254235
0.0149502
0.0237942
0.0218519
0.0135447
0.017632
0.0194214
0.0141218
0.0258194
0.013968
0.0230159
0.0261831
0.0260152
0.019229
0.025784
0.0259854
0.0262139
0.0205238
0.0149239
0.0224358
0.017249
0.0168629
0.0236242
0.0250119
0.024981
0.0205215
0.0182681
0.0188227
0.0259932
0.0260228
0.0137319
0.0137393
0.0137741
0.0199861
0.0151459
0.0155031
0.0232076
0.0139693
0.0137696
0.0214687
0.0199906
0.019382
0.0194219
0.0211257
0.015316
0.0157188
0.0222376
0.020329
0.015344
0.0261889
0.0170786
0.0159185
0.0172712
0.022076
0.0178364
0.0201798
0.0168937
0.0174694
0.025219
0.0157112
0.0196086
0.0186243
0.0193888
0.0198026
0.0203641
0.0143259
0.0211242
0.0247745
0.0218534
0.0160854
0.0161193
0.0180657
0.0147232
0.0147587
0.0239854
0.0228242
0.0176675
0.0242161
0.0238237
0.020517
0.0247777
0.0222751
0.0220799
0.0222345
0.0182294
0.0253914
0.0255974
0.0145198
0.0165065
0.0166644
0.0141567
0.0147603
0.0232417
0.0199929
0.0188524
0.0224693
0.0209361
0.0196135
0.018621
0.0190312
0.0203288
0.0194182
0.0195784
0.015531
0.0135698
0.018423
0.0184235
0.0174289
0.0145553
0.0199587
0.0153351
0.0233946
0.0210825
0.0201775
0.018655
0.0235915
0.023978
0.0139375
0.0224624
0.0161167
0.0222671
0.0226269
0.0188108
0.0230547
0.0141663
0.0164808
0.0258268
0.0188412
0.0184662
0.0256283
0.0205525
0.0234386
0.0216918
0.0182604
0.0178346
0.0199532
0.0192192
0.0201723
0.0220736
0.0244124
0.0168593
0.0210846
0.0241738
0.0242062
0.0149546
0.0209091
0.01807
0.0207064
0.0228287
0.0186536
0.0135703
0.0147206
0.0243783
0.0198057
0.0248117
0.0147322
0.0207084
0.0230182
0.0228578
0.0158804
0.015111
0.0232184
0.0222693
0.0240161
0.0230589
0.0257939
0.0235928
0.0236345
0.0245781
0.0226315
0.0226638
0.0230275
0.0197704
0.0257866
0.0216909
0.0205493
0.0203283
0.0261818
0.0263811
0.0214993
0.021661
0.025584
0.0254217
0.0253817
0.0249736
0.0246144
0.0245731
0.0244142
0.0241769
0.0239826
0.0238291
0.0237926
0.0232064
0.0228632
0.0228261
0.0226703
0.0224664
0.0155268
0.0222684
0.0222299
0.0220778
0.0220395
0.0218843
0.0218507
0.0216508
0.0214985
0.0213102
0.0156856
0.0208979
0.0207456
0.0205587
0.0203673
0.0201767
0.0199517
0.0198037
0.0197666
0.0196151
0.0192259
0.0190002
0.0188488
0.018651
0.0184143
0.0182234
0.0180667
0.01767
0.0174731
0.017277
0.0172388
0.0167006
0.016505
0.016466
0.0163115
0.0161198
0.0157277
0.0155333
0.0153023
0.0151156
0.0149142
0.0147183
0.01456
0.0145218
0.0143612
0.0143221
0.0141626
0.0137701
0.0133813
0.0133426
0.0264195
0.0263811
0.026221
0.0261824
0.0260206
0.0259827
0.025825
0.0257882
0.0256233
0.0255854
0.0254166
0.0253798
0.025214
0.0251751
0.0250093
0.0249697
0.0248085
0.024771
0.0246114
0.0245734
0.024415
0.0243776
0.0242203
0.0241843
0.024022
0.023985
0.0238291
0.0237908
0.0236334
0.0235961
0.0234386
0.0234024
0.0232483
0.0232115
0.0230577
0.0230204
0.0228612
0.0228234
0.0226662
0.0226284
0.0224664
0.0224278
0.0222674
0.0222304
0.0220769
0.0220394
0.0218851
0.0218483
0.021691
0.0216557
0.021501
0.0214639
0.0213102
0.0212749
0.0211265
0.021091
0.0209383
0.0209016
0.0207481
0.0207123
0.0205548
0.0205158
0.020362
0.0203255
0.0201769
0.0201414
0.0199883
0.0199531
0.0198008
0.0197624
0.0196104
0.0195727
0.0194214
0.0193861
0.0192303
0.0191949
0.0190397
0.0190035
0.0188485
0.0188127
0.0186529
0.018617
0.0184542
0.0184153
0.0182592
0.0182216
0.0180643
0.0180274
0.0178644
0.017827
0.0176645
0.0176277
0.0174705
0.0174324
0.0172785
0.0172421
0.0170857
0.0170486
0.0168917
0.0168551
0.0167012
0.0166648
0.0165087
0.0164741
0.0163153
0.0162816
0.016122
0.0160852
0.0159246
0.0158882
0.01573
0.015695
0.0155345
0.015498
0.0153412
0.015305
0.0151511
0.0151132
0.0149545
0.0149169
0.0147585
0.0147219
0.0145605
0.0145244
0.0143624
0.0143239
0.0141621
0.0141247
0.0139669
0.0139315
0.0137694
0.0137323
0.0135744
0.0135393
0.0133852
0.0133496
0.026416
0.0263781
0.0262198
0.0261849
0.0260214
0.0259847
0.0258238
0.0257864
0.0256237
0.0255867
0.0254158
0.0253795
0.0252115
0.0251741
0.0250071
0.0249697
0.0248076
0.0247708
0.0246129
0.0245768
0.0244138
0.0243771
0.0242187
0.0241816
0.0240214
0.0239863
0.0238299
0.0237949
0.0236328
0.0235956
0.0234368
0.0234009
0.0232448
0.0232082
0.0230541
0.0230177
0.0228586
0.022822
0.0226613
0.0226236
0.0224622
0.0224256
0.0222675
0.0222312
0.0220757
0.0220406
0.0218848
0.0218494
0.0216898
0.0216542
0.021499
0.0214633
0.0213111
0.021277
0.0211262
0.0210915
0.0209378
0.0209006
0.0207482
0.0207123
0.0205559
0.0205183
0.0203621
0.0203267
0.0201754
0.0201402
0.0199853
0.0199514
0.0198002
0.0197646
0.019611
0.0195746
0.0194217
0.0193855
0.019229
0.0191932
0.0190401
0.0190047
0.0188503
0.0188148
0.0186509
0.0186147
0.0184515
0.018415
0.018259
0.0182219
0.0180617
0.0180267
0.0178642
0.0178274
0.0176646
0.0176286
0.0174686
0.0174339
0.0172775
0.0172421
0.0170854
0.0170492
0.0168922
0.0168561
0.0167023
0.0166675
0.0165104
0.0164745
0.0163163
0.0162808
0.0161206
0.0160868
0.0159262
0.0158912
0.0157323
0.0156982
0.0155389
0.0155025
0.0153431
0.015306
0.0151489
0.0151125
0.0149543
0.0149169
0.0147574
0.0147209
0.0145581
0.0145221
0.0143601
0.0143242
0.0141622
0.0141255
0.0139682
0.0139318
0.0137699
0.0137343
0.0135746
0.0135387
0.0133835
0.0133482
0.0264168
0.026379
0.026218
0.0261803
0.0260203
0.0259832
0.0258244
0.025789
0.0256246
0.0255862
0.0254182
0.0253786
0.0252109
0.0251725
0.0250067
0.0249674
0.0248063
0.0247688
0.0246127
0.0245753
0.024417
0.0243796
0.0242197
0.0241813
0.0240234
0.0239864
0.0238293
0.0237933
0.0236334
0.0235964
0.0234359
0.023399
0.0232441
0.0232073
0.0230521
0.0230148
0.0228588
0.0228219
0.0226632
0.0226248
0.0224619
0.0224249
0.0222667
0.0222294
0.0220749
0.0220388
0.0218873
0.0218506
0.0216939
0.021657
0.0215004
0.021463
0.0213136
0.0212774
0.0211249
0.0210879
0.0209343
0.0208972
0.0207442
0.020709
0.0205543
0.0205169
0.0203615
0.0203251
0.0201763
0.0201403
0.0199875
0.0199528
0.0197991
0.0197632
0.0196087
0.0195727
0.0194206
0.0193841
0.019227
0.0191905
0.0190377
0.0190012
0.0188509
0.0188131
0.0186525
0.0186154
0.018453
0.0184165
0.01826
0.0182203
0.0180605
0.0180229
0.0178615
0.0178253
0.0176653
0.0176287
0.017471
0.0174345
0.0172797
0.0172421
0.0170858
0.0170493
0.016893
0.0168566
0.0167065
0.0166714
0.016515
0.0164792
0.01632
0.0162844
0.0161269
0.0160915
0.0159308
0.0158945
0.015733
0.0156956
0.0155369
0.0155001
0.0153434
0.0153049
0.0151484
0.0151111
0.0149532
0.0149156
0.0147577
0.014721
0.0145603
0.0145237
0.0143599
0.0143208
0.0141609
0.0141225
0.0139658
0.0139289
0.0137707
0.0137344
0.0135769
0.0135398
0.0133838
0.013346
0.026417
0.0263803
0.0262196
0.0261831
0.026022
0.0259848
0.0258256
0.0257874
0.0256219
0.0255844
0.0254161
0.0253775
0.0252097
0.0251694
0.0250058
0.0249668
0.024808
0.0247707
0.0246113
0.0245741
0.0244153
0.0243781
0.0242189
0.0241808
0.0240256
0.0239892
0.0238287
0.0237914
0.0236299
0.0235935
0.0234353
0.0233992
0.0232449
0.0232079
0.023051
0.0230131
0.0228567
0.022819
0.0226611
0.0226222
0.0224612
0.0224239
0.0222673
0.0222297
0.0220748
0.0220386
0.0218851
0.0218479
0.0216899
0.0216532
0.0214963
0.0214597
0.0213112
0.0212757
0.021125
0.0210887
0.0209363
0.020899
0.0207445
0.0207083
0.0205521
0.020516
0.0203629
0.0203279
0.0201788
0.0201433
0.0199914
0.0199557
0.0198011
0.0197651
0.0196091
0.0195726
0.0194201
0.0193826
0.0192273
0.0191902
0.0190359
0.0189999
0.0188468
0.0188106
0.0186516
0.0186144
0.018453
0.0184168
0.018259
0.0182205
0.0180593
0.0180204
0.0178607
0.0178233
0.0176621
0.0176244
0.0174682
0.0174309
0.0172766
0.0172389
0.0170851
0.0170487
0.0168912
0.0168563
0.0167056
0.0166713
0.0165174
0.0164821
0.0163215
0.0162863
0.0161275
0.0160909
0.0159322
0.0158956
0.0157362
0.0156987
0.0155356
0.0154987
0.0153414
0.0153029
0.0151474
0.0151085
0.0149511
0.0149137
0.0147573
0.0147204
0.0145609
0.014523
0.0143578
0.0143194
0.0141583
0.0141209
0.0139634
0.0139256
0.0137687
0.0137316
0.0135771
0.0135412
0.0133859
0.013349
0.0264165
0.0263796
0.0262184
0.0261811
0.0260193
0.0259841
0.0258247
0.0257866
0.0256207
0.0255824
0.0254147
0.0253779
0.0252068
0.0251669
0.0250016
0.0249619
0.0248051
0.0247673
0.0246128
0.0245766
0.0244148
0.024379
0.0242175
0.0241795
0.0240255
0.0239893
0.0238309
0.0237935
0.0236306
0.0235938
0.0234344
0.0233975
0.023244
0.0232073
0.0230512
0.0230138
0.0228542
0.0228151
0.0226552
0.0226168
0.0224577
0.0224201
0.0222653
0.0222289
0.0220755
0.0220401
0.0218859
0.0218499
0.021692
0.0216555
0.0214986
0.0214624
0.0213117
0.0212746
0.0211222
0.0210851
0.0209346
0.0208969
0.0207437
0.0207069
0.0205499
0.0205147
0.0203615
0.0203266
0.0201767
0.0201395
0.0199898
0.0199533
0.0197985
0.0197625
0.0196074
0.0195718
0.019417
0.01938
0.0192264
0.0191888
0.0190369
0.0190004
0.0188469
0.0188112
0.0186521
0.0186143
0.0184525
0.0184151
0.0182563
0.0182184
0.0180554
0.0180168
0.0178603
0.0178232
0.017661
0.0176238
0.0174658
0.0174291
0.0172742
0.0172382
0.0170855
0.0170494
0.0168937
0.0168581
0.0167079
0.0166734
0.0165203
0.016485
0.0163257
0.0162891
0.016129
0.0160918
0.0159312
0.0158951
0.0157364
0.0156985
0.0155338
0.0154951
0.0153367
0.0152988
0.0151443
0.0151058
0.0149497
0.0149114
0.014754
0.014717
0.014558
0.0145209
0.0143556
0.0143167
0.0141563
0.0141189
0.0139618
0.0139244
0.0137663
0.0137298
0.0135743
0.0135371
0.0133837
0.0133472
0.0264209
0.0263848
0.0262226
0.0261847
0.0260237
0.025987
0.0258274
0.0257895
0.0256196
0.0255815
0.0254124
0.0253733
0.0252027
0.0251625
0.0249991
0.0249598
0.0248023
0.0247646
0.0246151
0.0245789
0.0244191
0.0243834
0.0242195
0.0241832
0.0240279
0.0239895
0.0238296
0.0237917
0.0236308
0.0235931
0.0234344
0.0233971
0.0232418
0.0232048
0.023049
0.0230115
0.0228538
0.0228146
0.0226512
0.0226141
0.0224557
0.0224184
0.0222623
0.0222261
0.0220745
0.0220379
0.0218852
0.0218493
0.0216908
0.0216542
0.021496
0.0214601
0.0213101
0.0212742
0.0211199
0.0210836
0.020932
0.020896
0.020743
0.0207064
0.0205517
0.0205162
0.0203644
0.0203306
0.0201781
0.0201415
0.0199907
0.0199536
0.0197997
0.0197635
0.019608
0.0195706
0.0194149
0.0193779
0.0192235
0.0191869
0.0190326
0.0189958
0.0188438
0.0188076
0.0186509
0.0186141
0.0184524
0.018415
0.0182552
0.0182176
0.0180545
0.0180171
0.0178598
0.0178224
0.0176612
0.0176244
0.0174652
0.0174287
0.0172719
0.0172352
0.017082
0.0170463
0.0168939
0.0168588
0.0167103
0.0166743
0.0165197
0.0164835
0.0163246
0.0162889
0.0161306
0.0160918
0.015932
0.0158947
0.0157354
0.0156986
0.0155321
0.0154936
0.0153363
0.0152992
0.0151425
0.0151057
0.0149494
0.0149116
0.0147558
0.0147175
0.0145574
0.0145196
0.0143525
0.0143151
0.0141529
0.0141168
0.0139604
0.0139232
0.0137675
0.0137321
0.0135768
0.0135409
0.0133842
0.0133469
0.0131897
0.0131533
0.0264178
0.026381
0.0262192
0.0261825
0.02602
0.0259837
0.0258249
0.0257865
0.0256208
0.0255829
0.0254093
0.0253707
0.0252006
0.0251619
0.0249964
0.0249568
0.0247977
0.0247601
0.0246138
0.0245763
0.0244195
0.0243816
0.0242199
0.0241855
0.0240267
0.0239881
0.0238277
0.0237889
0.0236303
0.0235935
0.0234365
0.023399
0.0232394
0.0232014
0.0230437
0.0230067
0.0228507
0.0228109
0.0226493
0.0226124
0.0224568
0.0224192
0.0222619
0.0222252
0.0220727
0.0220364
0.0218857
0.0218497
0.0216943
0.0216585
0.0214994
0.0214636
0.0213112
0.0212753
0.0211204
0.021084
0.0209309
0.0208953
0.0207427
0.0207059
0.0205512
0.0205154
0.0203648
0.0203298
0.0201763
0.0201398
0.0199881
0.0199511
0.019798
0.0197618
0.0196066
0.0195706
0.0194148
0.0193784
0.0192248
0.0191892
0.0190331
0.0189974
0.0188431
0.0188056
0.018648
0.0186111
0.0184508
0.0184134
0.0182523
0.0182147
0.0180539
0.0180168
0.0178594
0.0178217
0.0176612
0.0176242
0.0174632
0.0174268
0.0172714
0.0172349
0.017083
0.0170476
0.0168945
0.0168597
0.0167102
0.0166743
0.016522
0.0164851
0.0163255
0.0162899
0.0161273
0.0160908
0.0159312
0.0158925
0.0157341
0.0156959
0.0155308
0.0154939
0.0153369
0.0152982
0.0151413
0.0151049
0.0149464
0.0149099
0.0147535
0.0147159
0.0145557
0.0145173
0.0143522
0.0143159
0.0141538
0.0141159
0.0139591
0.0139237
0.0137679
0.0137314
0.0135774
0.0135411
0.0133825
0.0133451
0.0131874
0.0131499
0.0129939
0.0129593
0.0264176
0.0263804
0.0262215
0.0261841
0.0260223
0.0259856
0.0258213
0.0257848
0.0256199
0.0255809
0.0254079
0.0253688
0.0251986
0.0251606
0.0249959
0.0249586
0.0247997
0.0247616
0.0246105
0.0245716
0.0244192
0.0243818
0.0242224
0.0241862
0.0240236
0.0239864
0.0238252
0.0237882
0.0236283
0.0235906
0.0234348
0.0233974
0.0232411
0.0232023
0.0230434
0.0230062
0.0228471
0.0228083
0.0226463
0.0226087
0.0224532
0.0224158
0.0222617
0.0222246
0.0220724
0.0220365
0.0218854
0.0218491
0.0216931
0.0216571
0.0215003
0.0214645
0.0213106
0.0212732
0.0211189
0.0210823
0.0209308
0.0208947
0.0207412
0.0207038
0.0205508
0.0205153
0.0203656
0.0203305
0.0201775
0.0201412
0.0199876
0.0199515
0.0197991
0.019763
0.0196074
0.0195713
0.0194124
0.0193761
0.019221
0.019185
0.0190302
0.0189941
0.0188412
0.0188035
0.0186476
0.0186103
0.0184508
0.0184147
0.0182519
0.0182154
0.0180554
0.0180186
0.0178582
0.0178206
0.0176621
0.0176251
0.0174651
0.0174296
0.0172726
0.0172374
0.0170841
0.017048
0.0168967
0.0168618
0.0167109
0.016676
0.0165222
0.0164855
0.0163276
0.0162902
0.0161276
0.0160916
0.015931
0.0158938
0.0157335
0.0156945
0.0155279
0.0154918
0.015337
0.0152997
0.0151428
0.0151058
0.0149462
0.0149099
0.0147526
0.0147143
0.0145546
0.0145155
0.0143508
0.0143135
0.0141522
0.014115
0.0139597
0.0139238
0.0137684
0.0137318
0.0135782
0.0135429
0.013385
0.0133487
0.013188
0.0131495
0.0129945
0.0129607
0.0264148
0.0263777
0.0262194
0.0261828
0.0260218
0.0259834
0.0258205
0.0257842
0.0256202
0.025583
0.0254095
0.0253711
0.0251985
0.025162
0.0249961
0.0249608
0.0248004
0.0247631
0.0246077
0.0245694
0.024418
0.0243799
0.0242221
0.024185
0.0240226
0.0239832
0.0238241
0.0237868
0.0236306
0.0235942
0.0234331
0.0233961
0.0232378
0.0231989
0.0230431
0.0230057
0.0228466
0.0228097
0.0226468
0.0226083
0.0224498
0.0224129
0.0222593
0.0222222
0.0220725
0.0220359
0.0218865
0.0218499
0.021693
0.0216565
0.0214994
0.0214648
0.0213101
0.0212742
0.0211174
0.0210815
0.0209306
0.0208942
0.0207404
0.0207038
0.0205513
0.0205155
0.0203659
0.0203309
0.0201759
0.0201397
0.019986
0.0199496
0.0197991
0.0197646
0.01961
0.0195743
0.0194146
0.0193787
0.0192216
0.0191861
0.0190313
0.0189947
0.0188387
0.0188018
0.0186453
0.0186069
0.0184495
0.0184129
0.0182526
0.0182173
0.0180566
0.0180187
0.0178582
0.0178206
0.017663
0.0176257
0.0174658
0.017429
0.0172752
0.0172387
0.0170852
0.0170486
0.0168978
0.0168618
0.0167118
0.0166759
0.0165204
0.0164821
0.0163258
0.0162891
0.0161276
0.0160906
0.015929
0.0158937
0.015732
0.0156944
0.0155272
0.0154914
0.0153385
0.0153019
0.0151438
0.015105
0.0149454
0.0149091
0.0147521
0.0147142
0.0145522
0.0145133
0.0143518
0.0143143
0.0141529
0.0141162
0.0139613
0.013926
0.0137708
0.0137342
0.0135783
0.0135416
0.0133835
0.0133477
0.0131869
0.0131495
0.0129957
0.0129605
0.0264163
0.0263791
0.0262195
0.0261829
0.0260209
0.025984
0.0258192
0.0257831
0.0256192
0.0255824
0.0254096
0.0253721
0.0252016
0.0251655
0.0250002
0.0249651
0.0248057
0.0247683
0.0246069
0.0245687
0.0244156
0.024376
0.0242182
0.0241807
0.0240181
0.0239792
0.0238218
0.0237841
0.0236306
0.0235926
0.0234311
0.0233946
0.0232345
0.0231989
0.0230433
0.0230061
0.0228456
0.022808
0.0226464
0.0226075
0.0224488
0.0224114
0.0222569
0.0222213
0.0220715
0.0220348
0.0218869
0.021851
0.0216944
0.0216583
0.0215012
0.0214655
0.021309
0.0212731
0.0211159
0.02108
0.0209292
0.0208926
0.0207383
0.0207026
0.0205515
0.0205157
0.0203662
0.0203304
0.0201758
0.0201403
0.0199871
0.0199514
0.0198001
0.0197645
0.0196102
0.0195757
0.0194169
0.019382
0.0192208
0.0191847
0.0190293
0.0189929
0.0188392
0.0188027
0.0186456
0.0186074
0.0184478
0.0184092
0.0182519
0.018215
0.0180562
0.01802
0.0178583
0.0178209
0.0176624
0.0176246
0.017465
0.0174289
0.0172759
0.0172394
0.0170862
0.0170494
0.0168979
0.0168607
0.0167109
0.0166743
0.0165189
0.0164805
0.0163232
0.0162842
0.016126
0.0160883
0.0159293
0.0158941
0.0157332
0.0156959
0.0155287
0.015493
0.0153385
0.0153021
0.0151437
0.0151059
0.014946
0.0149087
0.0147527
0.0147157
0.0145524
0.0145125
0.0143515
0.0143135
0.0141538
0.0141155
0.013961
0.0139241
0.013771
0.0137351
0.0135799
0.013544
0.013385
0.0133496
0.0131885
0.0131518
0.012994
0.0129569
0.0264156
0.026379
0.0262206
0.0261838
0.0260231
0.025986
0.025822
0.0257842
0.0256226
0.0255859
0.0254115
0.0253737
0.0252056
0.0251682
0.0250034
0.0249672
0.0248058
0.0247689
0.0246042
0.0245673
0.0244132
0.0243732
0.0242162
0.0241759
0.0240143
0.0239782
0.0238196
0.023783
0.0236298
0.0235934
0.0234333
0.0233958
0.0232332
0.0231974
0.0230401
0.0230033
0.0228414
0.0228024
0.0226424
0.0226047
0.0224473
0.0224108
0.0222572
0.022223
0.0220738
0.0220383
0.0218866
0.0218487
0.0216929
0.0216566
0.0215011
0.0214642
0.0213082
0.0212728
0.0211163
0.0210803
0.0209284
0.0208919
0.0207393
0.0207037
0.0205524
0.0205166
0.0203659
0.0203306
0.0201758
0.0201393
0.0199856
0.0199502
0.0198014
0.0197662
0.0196127
0.0195777
0.0194191
0.0193841
0.0192212
0.0191854
0.0190265
0.0189909
0.0188347
0.0187979
0.0186427
0.018605
0.0184449
0.0184062
0.0182502
0.0182118
0.0180552
0.0180186
0.0178581
0.0178215
0.0176615
0.0176241
0.0174654
0.0174301
0.0172753
0.0172399
0.0170855
0.0170498
0.0168969
0.0168603
0.0167088
0.0166703
0.0165154
0.0164786
0.016322
0.0162828
0.0161265
0.0160877
0.0159281
0.0158911
0.0157299
0.0156931
0.0155318
0.0154962
0.0153405
0.0153018
0.0151435
0.0151058
0.0149467
0.0149088
0.0147506
0.0147137
0.0145505
0.0145105
0.0143481
0.0143088
0.0141533
0.0141172
0.0139634
0.0139277
0.0137726
0.0137364
0.0135805
0.0135446
0.0133849
0.0133482
0.0131889
0.013153
0.0129946
0.0129588
0.0264155
0.026379
0.0262215
0.0261846
0.0260247
0.0259881
0.0258238
0.0257857
0.0256228
0.0255844
0.0254125
0.0253746
0.0252065
0.0251702
0.0250073
0.0249702
0.0248082
0.0247703
0.0246052
0.0245683
0.0244081
0.0243727
0.0242138
0.024175
0.024016
0.0239798
0.0238203
0.0237829
0.0236265
0.0235897
0.0234316
0.0233951
0.0232351
0.0231974
0.0230383
0.0230022
0.0228392
0.0228018
0.0226421
0.0226054
0.0224476
0.022412
0.0222588
0.0222235
0.0220746
0.0220393
0.0218871
0.0218498
0.0216939
0.0216564
0.0215008
0.0214641
0.0213074
0.0212722
0.021118
0.0210808
0.0209266
0.0208907
0.0207393
0.0207037
0.0205531
0.0205161
0.0203659
0.0203315
0.0201764
0.0201406
0.0199863
0.0199508
0.0198032
0.0197681
0.0196139
0.0195774
0.0194187
0.0193836
0.0192224
0.0191864
0.0190298
0.018993
0.0188338
0.0187965
0.0186384
0.0186003
0.0184395
0.0184028
0.0182466
0.0182096
0.0180528
0.0180139
0.0178573
0.0178222
0.0176629
0.0176278
0.0174687
0.0174333
0.0172766
0.0172407
0.0170859
0.0170497
0.0168955
0.01686
0.0167069
0.0166688
0.0165117
0.0164735
0.0163158
0.0162777
0.0161223
0.0160844
0.015929
0.0158919
0.0157298
0.0156915
0.0155307
0.0154957
0.0153374
0.0153006
0.0151409
0.0151019
0.0149462
0.0149069
0.01475
0.0147124
0.014551
0.0145146
0.0143517
0.014315
0.0141558
0.0141186
0.0139646
0.0139274
0.0137733
0.0137365
0.0135806
0.0135452
0.0133883
0.0133519
0.01319
0.0131545
0.0129959
0.0129569
0.0127979
0.0127652
0.0264163
0.0263781
0.0262177
0.0261793
0.0260203
0.025983
0.0258225
0.0257849
0.0256197
0.0255819
0.0254104
0.0253722
0.0252073
0.0251703
0.0250088
0.0249719
0.0248063
0.0247679
0.0246047
0.0245666
0.0244086
0.0243734
0.024213
0.0241775
0.0240171
0.0239804
0.023821
0.0237843
0.0236277
0.0235901
0.023432
0.0233947
0.023236
0.0231976
0.0230373
0.023
0.0228377
0.0228004
0.0226418
0.0226056
0.0224487
0.0224142
0.0222604
0.0222247
0.022076
0.0220391
0.021887
0.0218513
0.0216932
0.0216567
0.0215005
0.0214632
0.0213082
0.0212724
0.021118
0.0210825
0.0209266
0.0208903
0.0207399
0.0207044
0.020552
0.0205167
0.0203674
0.0203315
0.0201772
0.0201425
0.0199877
0.0199519
0.0198053
0.019771
0.0196184
0.0195826
0.0194205
0.0193834
0.0192188
0.0191815
0.0190273
0.0189898
0.0188326
0.0187957
0.0186351
0.0185974
0.0184395
0.018403
0.0182461
0.0182105
0.0180516
0.0180144
0.0178573
0.0178198
0.0176606
0.0176251
0.0174695
0.0174347
0.0172767
0.017241
0.0170833
0.017046
0.0168923
0.0168553
0.0167018
0.0166658
0.0165093
0.0164718
0.016317
0.0162808
0.0161249
0.0160866
0.0159292
0.0158923
0.0157332
0.015695
0.0155351
0.0154976
0.015338
0.0153005
0.0151385
0.0150996
0.0149435
0.0149058
0.014748
0.0147101
0.0145485
0.014512
0.0143498
0.0143128
0.0141555
0.0141198
0.0139649
0.0139281
0.013774
0.0137366
0.0135791
0.013543
0.0133886
0.0133523
0.0131897
0.0131517
0.0129918
0.012952
0.0127965
0.0127639
0.0264157
0.0263782
0.0262184
0.0261808
0.0260188
0.0259801
0.0258222
0.0257848
0.0256216
0.0255832
0.0254115
0.0253729
0.0252082
0.025169
0.0250095
0.024972
0.0248069
0.0247681
0.0246032
0.0245674
0.0244112
0.0243752
0.0242173
0.0241813
0.0240197
0.0239823
0.0238209
0.023784
0.0236265
0.0235895
0.02343
0.0233914
0.0232323
0.0231944
0.0230364
0.0229993
0.0228385
0.0228018
0.0226427
0.0226067
0.0224498
0.0224144
0.0222612
0.0222253
0.0220732
0.0220367
0.0218853
0.0218494
0.0216921
0.021656
0.0214985
0.0214628
0.0213103
0.0212742
0.0211206
0.0210855
0.0209285
0.0208927
0.0207428
0.0207062
0.020553
0.0205184
0.0203683
0.0203327
0.0201792
0.0201436
0.0199898
0.0199549
0.0198062
0.0197695
0.0196189
0.0195833
0.019423
0.0193861
0.019219
0.0191818
0.0190247
0.0189873
0.0188305
0.0187942
0.0186336
0.0185968
0.0184376
0.0184001
0.0182444
0.0182078
0.0180497
0.0180141
0.0178604
0.0178256
0.0176636
0.0176267
0.0174707
0.017434
0.0172771
0.0172419
0.0170836
0.0170467
0.0168924
0.0168538
0.0167003
0.0166629
0.0165056
0.0164678
0.0163123
0.0162768
0.0161201
0.016083
0.0159237
0.0158863
0.0157286
0.0156903
0.0155321
0.0154928
0.0153353
0.0152978
0.0151364
0.0150986
0.0149419
0.0149056
0.0147474
0.0147092
0.0145488
0.0145128
0.0143532
0.0143168
0.0141585
0.0141235
0.0139657
0.0139291
0.0137751
0.0137384
0.0135813
0.0135424
0.0133863
0.0133491
0.01319
0.0131531
0.0129908
0.012952
0.0127931
0.0127632
0.0264128
0.0263765
0.0262153
0.0261773
0.0260162
0.0259781
0.0258188
0.0257804
0.0256192
0.0255805
0.0254131
0.0253749
0.0252095
0.0251706
0.0250093
0.0249709
0.024808
0.0247687
0.0246059
0.0245696
0.0244121
0.024375
0.0242166
0.0241788
0.0240196
0.0239827
0.0238231
0.0237864
0.0236268
0.0235892
0.0234291
0.0233913
0.0232312
0.0231941
0.0230344
0.0229971
0.0228389
0.0228029
0.0226454
0.0226093
0.0224501
0.0224155
0.0222631
0.0222264
0.0220741
0.0220364
0.0218841
0.0218473
0.0216914
0.0216548
0.0214987
0.0214641
0.0213121
0.0212765
0.0211221
0.0210861
0.0209279
0.0208931
0.0207417
0.0207061
0.0205541
0.020518
0.0203663
0.0203317
0.0201791
0.0201426
0.0199905
0.0199557
0.0198063
0.0197707
0.0196164
0.0195797
0.0194201
0.0193825
0.0192187
0.0191815
0.0190238
0.0189866
0.0188288
0.0187917
0.0186333
0.0185964
0.0184388
0.0184025
0.0182436
0.0182074
0.01805
0.0180139
0.0178616
0.0178251
0.017666
0.0176296
0.0174714
0.0174344
0.0172767
0.0172398
0.0170804
0.0170442
0.0168879
0.0168508
0.016698
0.016662
0.0165064
0.016469
0.0163149
0.0162782
0.0161205
0.0160838
0.0159214
0.0158831
0.0157248
0.0156873
0.0155308
0.015493
0.015334
0.0152951
0.0151349
0.0150979
0.0149405
0.0149038
0.0147457
0.0147094
0.0145489
0.0145135
0.0143528
0.0143166
0.0141587
0.0141222
0.0139657
0.0139303
0.0137739
0.0137375
0.0135819
0.013544
0.0133878
0.0133505
0.0131916
0.0131558
0.0129939
0.012954
0.0127921
0.0127605
0.026413
0.0263756
0.0262134
0.0261774
0.0260159
0.025979
0.0258167
0.0257783
0.0256159
0.0255769
0.0254122
0.025375
0.0252109
0.0251735
0.0250097
0.0249707
0.0248055
0.0247676
0.0246077
0.0245707
0.024414
0.0243774
0.0242189
0.024181
0.0240181
0.0239796
0.02382
0.0237836
0.0236257
0.023589
0.0234275
0.023389
0.0232294
0.0231923
0.0230345
0.0229983
0.0228406
0.0228041
0.0226483
0.0226106
0.0224514
0.0224163
0.0222612
0.0222255
0.0220729
0.0220359
0.0218848
0.0218471
0.0216913
0.021653
0.0214999
0.0214646
0.0213156
0.0212811
0.0211241
0.021088
0.02093
0.0208941
0.020741
0.0207066
0.0205562
0.0205197
0.0203687
0.0203332
0.0201815
0.0201464
0.019994
0.0199581
0.0198079
0.0197722
0.0196175
0.0195796
0.0194171
0.0193797
0.0192155
0.0191773
0.0190204
0.0189836
0.0188276
0.0187913
0.0186316
0.0185963
0.0184393
0.0184014
0.0182438
0.0182079
0.0180505
0.0180139
0.01786
0.0178233
0.0176656
0.0176285
0.0174701
0.0174339
0.017278
0.0172419
0.0170823
0.0170456
0.0168885
0.0168522
0.0166975
0.0166609
0.0165049
0.0164678
0.0163125
0.0162737
0.0161176
0.0160803
0.0159192
0.0158807
0.015724
0.0156847
0.0155282
0.0154913
0.0153309
0.0152932
0.0151338
0.0150975
0.0149417
0.0149051
0.014745
0.0147096
0.0145492
0.0145116
0.0143517
0.0143165
0.0141583
0.0141223
0.0139666
0.0139307
0.0137737
0.0137385
0.0135806
0.0135454
0.013387
0.0133498
0.013192
0.0131543
0.0129966
0.01296
0.0127969
0.0127603
0.0264142
0.0263783
0.0262135
0.0261758
0.0260139
0.025976
0.0258133
0.0257761
0.0256126
0.0255732
0.0254117
0.0253747
0.0252124
0.0251775
0.0250118
0.0249734
0.0248069
0.0247713
0.0246099
0.0245735
0.0244135
0.0243764
0.024219
0.0241815
0.024022
0.0239837
0.0238232
0.0237862
0.0236269
0.0235901
0.0234265
0.0233892
0.0232289
0.0231913
0.0230359
0.0229999
0.0228404
0.0228047
0.0226484
0.0226118
0.0224558
0.0224191
0.0222626
0.0222261
0.0220696
0.0220325
0.0218826
0.0218459
0.0216922
0.0216549
0.0215008
0.0214647
0.0213183
0.0212828
0.0211249
0.0210885
0.020931
0.0208929
0.0207391
0.020703
0.0205542
0.0205195
0.0203692
0.020333
0.0201802
0.0201451
0.0199933
0.019957
0.0198049
0.0197698
0.0196167
0.0195778
0.0194168
0.0193787
0.0192143
0.0191769
0.0190182
0.0189817
0.0188282
0.0187902
0.018631
0.0185954
0.0184387
0.0184018
0.0182428
0.0182053
0.0180505
0.0180147
0.0178578
0.0178201
0.0176634
0.0176275
0.0174699
0.0174338
0.0172771
0.0172413
0.0170824
0.0170458
0.016886
0.0168503
0.0166954
0.0166592
0.0165045
0.0164683
0.0163118
0.0162729
0.016114
0.016075
0.0159139
0.0158775
0.0157195
0.0156813
0.0155255
0.0154884
0.0153303
0.0152944
0.0151351
0.0150988
0.0149413
0.0149047
0.0147456
0.0147101
0.0145505
0.0145133
0.0143538
0.0143171
0.0141585
0.0141215
0.0139661
0.0139306
0.0137756
0.0137407
0.0135833
0.0135479
0.0133876
0.0133511
0.0131917
0.0131555
0.0129962
0.0129606
0.0128
0.0127642
0.0264163
0.0263804
0.0262159
0.0261775
0.0260129
0.0259742
0.0258133
0.0257761
0.0256109
0.025573
0.0254132
0.0253751
0.0252144
0.0251775
0.025012
0.0249749
0.0248091
0.0247742
0.0246129
0.0245773
0.0244135
0.0243764
0.0242165
0.0241807
0.0240221
0.0239853
0.0238248
0.0237871
0.023626
0.0235887
0.0234264
0.0233902
0.0232303
0.0231937