/*--------------------------------*- C++ -*----------------------------------*\
| =========                 |                                                 |
| \\      /  F ield         | OpenFOAM: The Open Source CFD Toolbox           |
|  \\    /   O peration     | Version:  2206                                  |
|   \\  /    A nd           | Website:  www.openfoam.com                      |
|    \\/     M anipulation  |                                                 |
\*---------------------------------------------------------------------------*/
FoamFile
{
    version     2.0;
    format      ascii;
    arch        "LSB;label=32;scalar=64";
    class       volVectorField;
    location    "0.6";
    object      wallShearStress;
}
// * * * * * * * * * * * * * * * * * * * * * * * * * * * * * * * * * * * * * //

dimensions      [0 2 -2 0 0 0 0];

internalField   uniform (0 0 0);

boundaryField
{
    wall
    {
        type            calculated;
        value           nonuniform List<vector> 
8060
(
(-4.88968e-07 -1.69961e-07 -0.000218751)
(-2.40315e-07 -6.87387e-08 -0.000218523)
(-1.65812e-07 -4.78274e-08 -0.000219053)
(-3.74812e-07 -1.35241e-07 -0.000218596)
(-3.4621e-07 -1.24087e-07 -0.000218398)
(-1.52896e-07 -3.53883e-08 -0.000218501)
(6.74689e-08 5.14908e-08 -0.000218755)
(1.30145e-07 6.52999e-08 -0.000218656)
(2.41956e-07 1.13311e-07 -0.000218628)
(1.16908e-07 5.82868e-08 -0.000218459)
(8.28756e-08 5.2344e-08 -0.00021832)
(1.13245e-07 6.71199e-08 -0.000218275)
(-2.00524e-07 -6.22973e-08 -0.000217774)
(4.87427e-09 2.83685e-08 -0.000217902)
(1.29494e-08 1.92008e-08 -0.000217763)
(1.85397e-07 8.25457e-08 -0.000217712)
(3.74751e-07 1.7127e-07 -0.000217801)
(3.06009e-07 1.29396e-07 -0.000217391)
(1.69833e-07 7.79636e-08 -0.000217247)
(2.23715e-07 1.05054e-07 -0.000217454)
(1.03229e-07 6.2902e-08 -0.000217562)
(-1.11313e-07 -3.68632e-08 -0.000217469)
(-8.50255e-08 -2.55114e-08 -0.000217608)
(-1.00602e-07 -2.77786e-08 -0.000217716)
(-2.30803e-07 -7.72545e-08 -0.000217456)
(-9.18068e-08 -1.16481e-08 -0.000217847)
(5.99216e-08 4.61452e-08 -0.00021797)
(6.23576e-08 4.52846e-08 -0.0002184)
(-8.8585e-08 -2.2554e-08 -0.000218648)
(-3.68917e-07 -1.26555e-07 -0.000218527)
(-2.38107e-07 -6.6887e-08 -0.00021863)
(-3.79666e-07 -1.25166e-07 -0.00021824)
(-1.04767e-07 -3.39567e-08 -0.000218005)
(-3.30339e-07 -1.10627e-07 -0.000218015)
(-2.83049e-07 -8.54372e-08 -0.000218016)
(-1.22297e-07 -2.4362e-08 -0.000217927)
(-5.23005e-08 -4.86855e-09 -0.000217987)
(-6.09055e-08 -8.25498e-09 -0.000218229)
(6.80975e-08 3.47389e-08 -0.000218304)
(3.36281e-07 1.48601e-07 -0.000218384)
(1.16104e-07 6.81252e-08 -0.00021854)
(2.06165e-07 8.85449e-08 -0.000218437)
(1.46419e-07 6.54177e-08 -0.000218459)
(-2.5134e-07 -7.38951e-08 -0.00021906)
(-2.79985e-07 -9.88433e-08 -0.000218688)
(7.77217e-08 3.83884e-08 -0.000218483)
(-2.3132e-07 -6.9645e-08 -0.000218659)
(-2.87728e-07 -8.93522e-08 -0.00021853)
(-1.32118e-07 -4.19097e-08 -0.000218209)
(-9.22751e-08 -1.66276e-08 -0.000218423)
(1.83751e-07 8.00872e-08 -0.000218583)
(7.72147e-09 2.23699e-08 -0.000218484)
(1.554e-07 8.17422e-08 -0.000218618)
(1.75576e-07 8.54327e-08 -0.000218961)
(-1.24213e-07 -3.14076e-08 -0.000218548)
(5.94994e-08 3.90285e-08 -0.000219044)
(2.60998e-07 5.19393e-08 -0.000215027)
(1.66169e-07 2.25954e-08 -0.000214634)
(1.58317e-07 2.42906e-08 -0.000215046)
(2.97317e-07 6.69575e-08 -0.000214847)
(-1.52524e-07 -5.62776e-08 -0.000215262)
(-1.53756e-07 -5.93477e-08 -0.00021611)
(-5.82772e-08 -3.30991e-08 -0.00021562)
(-1.62406e-07 -5.52605e-08 -0.000215687)
(-1.55246e-07 -6.25993e-08 -0.000216088)
(2.90483e-08 -1.04995e-08 -0.00021534)
(1.41476e-07 2.69381e-08 -0.000215647)
(1.76972e-07 2.23122e-08 -0.000215198)
(4.47518e-08 -4.61738e-09 -0.000216193)
(-2.90104e-07 -8.4671e-08 -0.000215769)
(-3.83269e-07 -1.15842e-07 -0.000215497)
(-3.10062e-07 -9.70527e-08 -0.000214937)
(-4.38568e-07 -1.19349e-07 -0.000214963)
(-1.71307e-07 -5.9136e-08 -0.000214903)
(-3.80789e-07 -1.23953e-07 -0.000214665)
(-3.59868e-08 -3.23984e-08 -0.000215119)
(4.18987e-08 -1.07531e-08 -0.000214911)
(1.25103e-07 1.84761e-08 -0.000214703)
(2.93058e-07 6.63407e-08 -0.000214646)
(1.65554e-07 4.2523e-08 -0.000214563)
(1.24107e-07 2.27276e-08 -0.000214674)
(1.03343e-08 -1.55029e-08 -0.000214733)
(-2.44235e-07 -8.31178e-08 -0.000214778)
(4.09297e-09 -1.88263e-08 -0.000214346)
(7.8653e-08 8.90658e-09 -0.000214344)
(-6.46615e-09 -1.71195e-08 -0.000214044)
(2.22958e-07 4.5077e-08 -0.000213859)
(2.13841e-07 3.84859e-08 -0.0002136)
(7.35776e-08 4.95858e-09 -0.000213497)
(8.1852e-08 4.55527e-09 -0.000213558)
(-1.07288e-07 -3.85725e-08 -0.00021369)
(-1.62478e-07 -5.30523e-08 -0.000214073)
(-5.62987e-08 -3.96472e-08 -0.000213928)
(3.92642e-09 -1.85524e-08 -0.000213993)
(-5.90166e-08 -3.5363e-08 -0.000214173)
(-6.84381e-09 -1.90109e-08 -0.000214116)
(2.8362e-07 5.63957e-08 -0.000214394)
(9.00696e-08 2.35822e-08 -0.000214202)
(-6.30395e-08 -2.98409e-08 -0.000214681)
(-3.50098e-07 -1.14489e-07 -0.000215157)
(-3.36521e-07 -9.77446e-08 -0.000215058)
(-1.31645e-07 -3.47097e-08 -0.00021467)
(-1.2187e-07 -4.93396e-08 -0.000214105)
(-1.76717e-07 -5.73687e-08 -0.000214047)
(-5.36318e-08 -2.674e-08 -0.000214213)
(-5.07862e-08 -2.29381e-08 -0.000214086)
(-4.98569e-08 -2.97554e-08 -0.000214116)
(1.58789e-07 3.26746e-08 -0.00021455)
(8.63355e-08 1.15109e-08 -0.000214077)
(1.43446e-07 2.05157e-08 -0.000214497)
(-3.75854e-07 -1.1282e-07 -0.000214259)
(-1.54634e-07 -5.86465e-08 -0.000215253)
(4.26844e-08 -1.57169e-08 -0.000214539)
(-4.42569e-07 -1.27703e-07 -0.000215243)
(-1.04136e-07 -3.62626e-08 -0.000215742)
(8.06605e-08 8.60678e-09 -0.000214694)
(-3.87029e-07 -1.17434e-07 -0.000214696)
(-2.31598e-07 -8.3844e-08 -0.000215343)
(-3.51504e-08 -3.27869e-08 -0.000214775)
(2.63163e-08 -1.64459e-08 -0.000215026)
(1.09487e-07 3.4175e-09 -0.000214817)
(-4.08215e-09 -1.3835e-08 -0.000214744)
(2.87238e-07 6.7876e-08 -0.000214541)
(6.54769e-08 3.90787e-09 -0.000214594)
(1.06808e-07 1.37716e-08 -0.00021472)
(1.86319e-07 3.93193e-08 -0.000214895)
(1.54028e-07 5.47532e-08 -0.00021866)
(-2.38738e-09 6.57309e-09 -0.000218577)
(-5.62277e-08 -5.3725e-09 -0.000218653)
(3.57532e-07 1.09222e-07 -0.000218826)
(2.43246e-07 8.29813e-08 -0.000219226)
(1.32735e-07 5.04545e-08 -0.000219945)
(-3.20585e-07 -6.1377e-08 -0.000219447)
(-3.19651e-07 -5.80156e-08 -0.00021926)
(-1.1327e-07 -1.80755e-08 -0.000219599)
(-6.75415e-08 -3.97228e-09 -0.000219403)
(-3.46216e-07 -7.50668e-08 -0.000219439)
(-1.10333e-07 -2.01701e-08 -0.000219527)
(7.18223e-08 2.27389e-08 -0.00021942)
(2.8933e-07 1.0027e-07 -0.000219509)
(-1.39847e-07 -2.42598e-08 -0.000219348)
(-5.45314e-07 -1.15092e-07 -0.000218415)
(-2.15914e-07 -3.33625e-08 -0.000218553)
(-1.15613e-07 -2.2752e-08 -0.000218782)
(-3.3097e-07 -7.95895e-08 -0.000218609)
(-4.72458e-07 -1.12337e-07 -0.0002188)
(-1.43647e-07 -2.46535e-08 -0.00021864)
(7.5028e-08 3.27893e-08 -0.000218432)
(4.19959e-08 2.54769e-08 -0.000218192)
(2.99418e-07 1.05125e-07 -0.000218374)
(3.13277e-07 9.37659e-08 -0.000218558)
(3.76689e-07 1.11587e-07 -0.000218353)
(1.15217e-07 3.86138e-08 -0.000218248)
(9.52917e-08 4.61519e-08 -0.000218194)
(3.09119e-08 2.50862e-08 -0.00021806)
(-3.23532e-08 5.17829e-09 -0.00021782)
(-7.49395e-08 -6.78979e-09 -0.00021768)
(-5.43052e-08 -4.52127e-09 -0.000217337)
(-4.1746e-08 1.91707e-09 -0.000217366)
(-3.30562e-08 8.51037e-09 -0.000217513)
(2.3361e-08 2.71867e-08 -0.000217674)
(1.69354e-08 2.60671e-08 -0.000217837)
(-2.61372e-07 -5.72075e-08 -0.00021785)
(-1.59631e-07 -2.7658e-08 -0.00021778)
(-1.13863e-07 -1.93336e-08 -0.000217761)
(-4.1112e-08 2.19556e-09 -0.000218078)
(-5.87856e-08 1.96027e-10 -0.000218076)
(9.25339e-08 5.33762e-08 -0.000218365)
(1.43743e-07 5.61096e-08 -0.00021865)
(-3.90914e-08 8.3453e-10 -0.000218652)
(-3.92392e-08 2.05201e-08 -0.00021846)
(-4.03021e-07 -7.53057e-08 -0.00021838)
(-4.46516e-07 -1.09728e-07 -0.000217675)
(-3.55186e-07 -7.65774e-08 -0.000217779)
(-3.6145e-07 -7.6335e-08 -0.000217996)
(-4.18052e-07 -9.90242e-08 -0.000217908)
(-2.32175e-07 -4.8351e-08 -0.000217944)
(-1.87373e-07 -3.68286e-08 -0.000218006)
(-1.82638e-07 -2.80399e-08 -0.000218247)
(-6.25431e-08 -7.82469e-09 -0.00021829)
(7.5623e-08 3.92811e-08 -0.000218716)
(-5.695e-08 1.60805e-09 -0.000218846)
(-3.86283e-08 3.39917e-09 -0.000218624)
(1.04418e-07 5.85655e-08 -0.000219107)
(-2.30443e-07 -4.51062e-08 -0.000219042)
(-1.39512e-07 -1.9867e-08 -0.000218255)
(-8.76029e-08 -7.54231e-09 -0.00021859)
(-2.18298e-07 -4.50193e-08 -0.000218852)
(1.10656e-07 3.80318e-08 -0.000218589)
(3.87312e-08 2.37766e-08 -0.000218681)
(1.93861e-07 5.6132e-08 -0.000218287)
(1.95024e-07 7.05412e-08 -0.000218406)
(-1.12476e-07 -8.54803e-09 -0.000218207)
(4.04081e-08 2.30837e-08 -0.000218198)
(-3.93531e-08 9.21648e-09 -0.000218569)
(-4.42083e-07 -1.02048e-07 -0.000218575)
(2.27143e-07 1.94471e-08 -0.00021498)
(1.05526e-07 1.6866e-09 -0.000214506)
(-5.2132e-08 -2.70862e-08 -0.000214757)
(5.00127e-07 5.76189e-08 -0.000214885)
(4.21645e-07 4.79727e-08 -0.00021476)
(-3.62888e-08 -2.62866e-08 -0.000215619)
(-5.61999e-08 -3.91193e-08 -0.000215823)
(-2.45765e-07 -4.65546e-08 -0.000215996)
(-2.11349e-07 -4.28315e-08 -0.000216538)
(-1.25388e-07 -4.64243e-08 -0.000215791)
(-1.59279e-07 -4.4019e-08 -0.000216009)
(2.86614e-07 3.01318e-08 -0.000215667)
(1.81444e-08 -2.70977e-08 -0.000215867)
(2.29718e-07 2.26574e-08 -0.000215847)
(-2.07897e-07 -4.27843e-08 -0.000215348)
(-1.95907e-07 -4.6932e-08 -0.000215371)
(-3.29818e-07 -5.51381e-08 -0.000215359)
(-3.1469e-07 -6.52293e-08 -0.00021527)
(-3.08898e-07 -7.09314e-08 -0.000215073)
(-3.80506e-07 -6.45685e-08 -0.000215491)
(-9.3653e-08 -2.63405e-08 -0.000215253)
(5.54585e-08 -1.12055e-08 -0.000214816)
(1.36336e-07 6.77313e-09 -0.000214436)
(3.09631e-07 4.30998e-08 -0.00021438)
(2.44818e-07 2.41286e-08 -0.000214374)
(2.81066e-07 1.86722e-08 -0.000214514)
(-2.46755e-07 -6.14015e-08 -0.00021437)
(7.14057e-08 -4.428e-09 -0.000214589)
(1.29591e-07 6.66402e-09 -0.000214468)
(3.02655e-09 -1.95182e-08 -0.000214109)
(-9.48803e-09 -1.49134e-08 -0.000214084)
(5.45596e-08 -8.325e-09 -0.000213925)
(-2.31388e-09 -1.68465e-08 -0.000213754)
(-1.07279e-08 -1.6607e-08 -0.000213895)
(8.93545e-08 -4.91134e-09 -0.000214186)
(-1.79151e-07 -4.90031e-08 -0.000214297)
(-3.93722e-07 -8.44984e-08 -0.000214276)
(-1.52946e-07 -4.60064e-08 -0.00021458)
(-1.61939e-07 -3.43577e-08 -0.000214381)
(-1.4098e-07 -2.54473e-08 -0.000214324)
(1.55729e-08 -2.25918e-08 -0.000214714)
(3.2309e-07 3.19898e-08 -0.00021459)
(3.47274e-07 4.98403e-08 -0.000214575)
(-1.18026e-07 -3.24719e-08 -0.000214622)
(-2.98883e-07 -6.85016e-08 -0.000215028)
(-3.9708e-07 -7.20532e-08 -0.000214864)
(-3.32473e-07 -6.30187e-08 -0.000214304)
(-4.08675e-07 -7.45564e-08 -0.000213974)
(-3.93646e-07 -6.97292e-08 -0.000214158)
(-2.57328e-07 -6.28081e-08 -0.000214165)
(-5.00571e-08 -2.1709e-08 -0.000214164)
(-3.29691e-07 -7.49911e-08 -0.000214177)
(1.24689e-07 1.0921e-08 -0.000214241)
(3.02961e-07 2.88653e-08 -0.000214534)
(1.68086e-07 6.16671e-09 -0.000214307)
(-1.06779e-07 -3.5407e-08 -0.000215288)
(1.6471e-07 8.19292e-10 -0.000214786)
(-8.8565e-08 -2.73968e-08 -0.000215013)
(-3.60074e-07 -7.15311e-08 -0.000215525)
(2.37446e-08 -7.46762e-09 -0.000214898)
(-4.1591e-07 -7.74433e-08 -0.00021442)
(-3.04296e-07 -5.45936e-08 -0.000215215)
(1.84494e-08 -9.03147e-09 -0.000214581)
(-4.45277e-08 -2.10111e-08 -0.000214585)
(1.66496e-07 6.43331e-09 -0.000214493)
(-1.41625e-07 -3.90181e-08 -0.00021413)
(-8.54352e-08 -2.3892e-08 -0.000214287)
(1.51042e-07 1.0299e-08 -0.000214648)
(-1.17769e-07 -4.29858e-08 -0.000214614)
(-1.59084e-08 -2.50277e-08 -0.000214759)
(5.14374e-07 1.004e-07 -0.000218511)
(2.82166e-07 5.33032e-08 -0.000218559)
(-1.69484e-07 -1.41271e-08 -0.000218715)
(-1.03373e-07 -6.57396e-09 -0.000218657)
(-1.55168e-07 -1.62826e-08 -0.000218705)
(6.72152e-08 2.88382e-08 -0.000219392)
(-1.23349e-07 -8.24704e-09 -0.000219871)
(-1.47433e-07 5.41335e-09 -0.000219715)
(-1.86051e-07 -1.0086e-08 -0.00021971)
(2.46087e-08 1.58672e-08 -0.000219417)
(1.14339e-07 1.56889e-08 -0.000219734)
(3.39512e-07 6.60504e-08 -0.000219843)
(-1.1517e-07 -9.03794e-09 -0.000219376)
(1.89841e-07 4.0538e-08 -0.000219074)
(4.23638e-07 7.2646e-08 -0.000219246)
(1.8766e-07 4.8339e-08 -0.000219324)
(-1.04957e-07 1.91269e-08 -0.000218945)
(-1.22045e-07 -7.4361e-09 -0.000218867)
(-3.71228e-08 8.16562e-09 -0.000218619)
(1.76087e-07 5.6184e-08 -0.000219285)
(-1.088e-07 6.85242e-10 -0.000218907)
(4.53172e-08 1.99815e-08 -0.000218326)
(-1.58117e-07 -1.5681e-08 -0.00021821)
(-6.97574e-08 6.93634e-09 -0.000218228)
(-4.20124e-08 1.0012e-08 -0.000218453)
(-1.9907e-07 -2.76873e-08 -0.000218135)
(2.86527e-09 9.91956e-09 -0.000218145)
(1.6679e-07 4.73914e-08 -0.000218285)
(-3.16354e-08 9.09177e-09 -0.000218062)
(-7.05255e-08 5.73293e-10 -0.000217834)
(-3.20776e-08 1.0459e-08 -0.000217928)
(-2.02452e-07 -2.3612e-08 -0.000217507)
(-9.46e-08 2.16388e-09 -0.000217591)
(-4.90994e-08 6.15663e-09 -0.000217936)
(-1.78741e-07 -2.11086e-08 -0.00021793)
(1.62608e-07 3.31234e-08 -0.000218045)
(8.83515e-08 2.84361e-08 -0.000218342)
(-5.31712e-08 6.1136e-09 -0.00021808)
(1.11889e-07 4.31268e-08 -0.000217926)
(2.13549e-07 4.99035e-08 -0.00021816)
(1.57656e-07 3.21018e-08 -0.000218316)
(1.41041e-07 3.76476e-08 -0.000218433)
(2.29222e-07 5.57329e-08 -0.000218476)
(1.89472e-07 4.82164e-08 -0.000218645)
(1.44839e-07 3.58757e-08 -0.00021835)
(-7.70058e-08 1.51521e-08 -0.000218482)
(-2.42188e-07 -1.88985e-08 -0.000217903)
(-3.99718e-07 -4.00132e-08 -0.000217759)
(-3.76462e-07 -4.4856e-08 -0.000217843)
(-5.74907e-07 -9.01859e-08 -0.000217857)
(-4.2535e-07 -5.4003e-08 -0.000217912)
(-3.76866e-07 -4.54627e-08 -0.000217862)
(-2.68492e-07 -2.90881e-08 -0.000218109)
(-2.3516e-07 -2.17218e-08 -0.00021826)
(-4.85749e-08 7.41005e-09 -0.000218474)
(-8.86069e-08 -3.16445e-09 -0.000218795)
(-2.56101e-07 -3.11403e-08 -0.000218884)
(-7.78002e-08 -6.317e-09 -0.000218775)
(-1.06047e-07 6.8064e-09 -0.000218998)
(-3.47675e-07 -3.65368e-08 -0.000218499)
(-1.4868e-07 -2.72647e-09 -0.000218463)
(-4.10561e-07 -4.16567e-08 -0.000218762)
(-4.27442e-07 -4.94321e-08 -0.000218237)
(-1.42091e-07 -6.8217e-09 -0.000218392)
(-8.24881e-08 -6.32483e-09 -0.000217913)
(-9.59889e-09 1.36956e-08 -0.000217904)
(-2.34849e-07 -1.14447e-08 -0.000218324)
(-3.70126e-07 -3.81071e-08 -0.00021813)
(4.25463e-08 1.54699e-08 -0.000218392)
(-2.57623e-07 -2.24977e-08 -0.000218517)
(2.33976e-07 -1.02584e-08 -0.000214771)
(2.02079e-07 -1.32676e-08 -0.000214569)
(-1.9469e-07 -2.73935e-08 -0.000214902)
(1.89165e-07 1.36079e-09 -0.000215647)
(1.3439e-07 5.03227e-10 -0.000215174)
(-2.31332e-08 -1.70029e-08 -0.000215776)
(-5.26906e-08 -1.25056e-08 -0.000215993)
(-1.76211e-07 -1.91617e-08 -0.000215976)
(-4.37312e-07 -3.01114e-08 -0.000216364)
(-1.62555e-07 -2.18436e-08 -0.000215628)
(-3.52589e-07 -3.26352e-08 -0.000215541)
(6.6991e-07 2.50284e-08 -0.000216001)
(2.959e-07 5.89495e-09 -0.000215196)
(3.50829e-07 3.462e-09 -0.000215387)
(4.63536e-07 1.04154e-08 -0.00021503)
(3.00931e-07 -1.28482e-08 -0.000215116)
(1.10397e-07 -1.83398e-08 -0.000215358)
(-3.60701e-07 -4.08864e-08 -0.000215024)
(-9.36566e-08 -2.12318e-08 -0.000214955)
(-2.03047e-07 -1.8554e-08 -0.000215146)
(-1.13255e-07 -2.32661e-08 -0.000215176)
(-9.10603e-08 -1.80376e-08 -0.000214784)
(-9.65873e-08 -2.02403e-08 -0.000214554)
(9.98888e-08 -5.5278e-09 -0.000214684)
(1.49997e-07 -1.59705e-08 -0.000214568)
(1.29868e-07 -1.06476e-08 -0.000214651)
(-7.71187e-08 -2.8009e-08 -0.000214479)
(1.35433e-07 -1.19992e-08 -0.000214812)
(-1.04139e-07 -2.19795e-08 -0.000214392)
(-4.95474e-08 -1.83735e-08 -0.000214249)
(1.80767e-08 -2.0495e-08 -0.000214359)
(-1.77111e-07 -3.10419e-08 -0.000213955)
(-4.72536e-08 -2.10835e-08 -0.000213929)
(-2.17415e-08 -1.5043e-08 -0.000213881)
(-1.71819e-08 -1.88974e-08 -0.000214043)
(1.34505e-07 -1.92383e-08 -0.000214232)
(-1.59936e-07 -2.71342e-08 -0.000213862)
(-1.26167e-07 -2.92099e-08 -0.000214405)
(1.55075e-07 -1.51768e-08 -0.000214487)
(7.11896e-08 -5.59829e-09 -0.000214123)
(-9.70821e-08 -1.16498e-08 -0.000214351)
(2.28974e-07 -5.64762e-09 -0.000214867)
(5.49462e-07 1.22681e-08 -0.000214782)
(5.07402e-07 2.56123e-08 -0.000214519)
(9.88667e-08 -1.038e-08 -0.000214744)
(-4.39979e-07 -3.32075e-08 -0.000214538)
(-3.53493e-07 -3.09757e-08 -0.000214448)
(-4.37439e-07 -3.25162e-08 -0.000214024)
(-7.38037e-07 -4.71651e-08 -0.000214145)
(-8.72592e-07 -6.43489e-08 -0.000214361)
(-3.03367e-07 -3.47733e-08 -0.000214844)
(-5.29365e-07 -4.70433e-08 -0.00021421)
(-3.10066e-07 -3.34031e-08 -0.000214627)
(-2.50031e-08 -9.65977e-09 -0.000214829)
(2.91627e-07 -4.32898e-09 -0.0002146)
(-3.09162e-08 -2.32312e-08 -0.000215035)
(-1.66707e-07 -1.05887e-08 -0.00021468)
(-3.50761e-08 -5.73891e-09 -0.00021527)
(-4.22271e-07 -3.52702e-08 -0.000215528)
(-2.47249e-07 -3.10116e-08 -0.000215327)
(-2.4985e-07 -2.10866e-08 -0.000214744)
(-6.12486e-07 -4.13399e-08 -0.000215237)
(-2.37525e-07 -7.51538e-09 -0.000214958)
(-2.43574e-07 -1.54929e-08 -0.000214525)
(-1.66726e-07 -2.57172e-08 -0.000214574)
(-1.8023e-07 -3.2592e-08 -0.000214491)
(-5.72979e-07 -4.98628e-08 -0.000214489)
(-1.90369e-07 -1.97595e-08 -0.000215174)
(-3.48868e-07 -3.03429e-08 -0.000214735)
(-4.02765e-07 -3.36363e-08 -0.000214996)
(2.5387e-08 1.53322e-08 -0.000218427)
(1.44025e-07 2.17497e-08 -0.000218451)
(1.88679e-07 2.38676e-08 -0.000218878)
(3.75226e-07 4.36964e-08 -0.00021905)
(4.67424e-07 3.66742e-08 -0.00021933)
(1.65581e-07 3.65596e-08 -0.000219331)
(2.78748e-07 3.92389e-08 -0.000219943)
(4.2406e-08 1.51293e-08 -0.000219816)
(6.80528e-08 3.009e-08 -0.00021983)
(-2.03608e-07 2.2707e-08 -0.00021921)
(7.55696e-08 2.08817e-08 -0.000219236)
(4.52327e-07 2.7602e-08 -0.000219206)
(1.96098e-07 3.32418e-08 -0.000219086)
(-1.77819e-07 4.20513e-09 -0.000218834)
(-8.52557e-08 6.72809e-09 -0.000218517)
(1.00275e-07 5.56605e-09 -0.000218974)
(-1.09592e-07 2.38406e-09 -0.000219035)
(-1.62941e-07 4.75114e-09 -0.000218825)
(-2.42762e-07 4.11894e-09 -0.000218508)
(2.33527e-07 3.04192e-08 -0.000218801)
(1.08154e-07 2.18384e-08 -0.000218978)
(1.46486e-07 2.25324e-08 -0.00021834)
(-6.65122e-08 1.22395e-08 -0.000218401)
(-3.20163e-07 -5.39394e-09 -0.000218298)
(-2.31987e-07 -4.23591e-09 -0.000218423)
(-1.81306e-07 -8.21477e-10 -0.000218528)
(-2.16731e-08 1.06765e-08 -0.000218196)
(9.33282e-08 1.7402e-08 -0.000218147)
(1.33523e-07 2.80804e-08 -0.000218121)
(-3.84439e-08 7.11785e-09 -0.000217901)
(3.19028e-08 9.29568e-09 -0.000217862)
(-4.15436e-08 7.90153e-09 -0.00021753)
(-1.26754e-07 6.99468e-09 -0.000217477)
(-2.59095e-08 1.41454e-08 -0.000217631)
(-2.18515e-07 5.27813e-10 -0.000217916)
(-1.45958e-07 -7.31836e-09 -0.000217804)
(1.29913e-07 1.87289e-08 -0.000218058)
(9.08493e-08 1.22648e-08 -0.00021824)
(5.41629e-08 1.18649e-08 -0.000217975)
(1.26711e-07 3.05241e-08 -0.00021786)
(3.81602e-07 4.27495e-08 -0.000218138)
(6.41413e-07 5.14724e-08 -0.000218528)
(3.7509e-07 3.00505e-08 -0.000218402)
(3.17334e-07 3.58048e-08 -0.000218564)
(2.65655e-07 2.68308e-08 -0.000218432)
(-6.4974e-08 1.9567e-08 -0.000218533)
(-3.63715e-07 -1.22303e-09 -0.000218117)
(-6.31696e-07 -1.16529e-08 -0.000218163)
(-5.17704e-07 -8.58397e-09 -0.000218207)
(-3.70261e-07 -2.20635e-10 -0.000218319)
(-4.32546e-07 -1.4636e-08 -0.000218263)
(-2.60646e-07 5.22782e-09 -0.000218171)
(-1.44245e-07 4.54324e-09 -0.000218455)
(-1.91626e-07 6.22766e-09 -0.000218719)
(-1.45788e-07 -1.87163e-09 -0.000218593)
(-1.55079e-07 1.32734e-08 -0.000218462)
(4.33667e-08 3.43942e-08 -0.000219208)
(-7.04732e-08 1.00918e-08 -0.000219148)
(-6.99122e-08 1.58911e-08 -0.000219151)
(-3.03213e-07 2.10113e-09 -0.000219206)
(-1.67785e-07 1.38425e-08 -0.000218677)
(-6.73072e-08 1.63174e-08 -0.000218889)
(-3.42717e-07 1.18748e-08 -0.000218651)
(-4.64409e-07 -4.5413e-09 -0.000218549)
(-2.7765e-07 -5.56003e-09 -0.000218485)
(-7.11017e-08 6.25275e-09 -0.000218203)
(1.37735e-07 3.29999e-08 -0.00021867)
(-2.4452e-07 4.95198e-09 -0.000218872)
(-7.7546e-09 1.68269e-08 -0.000218603)
(2.88024e-07 2.98493e-08 -0.00021912)
(2.43981e-08 -1.80367e-08 -0.000215091)
(8.05599e-08 -1.78321e-08 -0.000214644)
(2.3891e-08 -1.57368e-08 -0.000214855)
(3.28417e-07 -3.59004e-08 -0.000215625)
(1.90752e-07 -2.10326e-08 -0.000214866)
(2.81109e-07 -1.92363e-08 -0.000215402)
(2.51182e-07 -2.84027e-08 -0.00021569)
(1.51918e-07 -2.84337e-08 -0.000215735)
(-6.36424e-08 -5.92261e-09 -0.00021621)
(-2.31467e-08 -1.15983e-09 -0.000215671)
(-2.37014e-07 -5.34679e-09 -0.000215465)
(1.93072e-08 -2.79511e-08 -0.000216037)
(2.0663e-07 -3.31661e-08 -0.000215368)
(-1.23091e-07 -1.0792e-08 -0.000215417)
(5.0829e-10 -8.78896e-09 -0.00021523)
(5.20689e-08 -1.98088e-08 -0.000215045)
(6.7381e-08 -2.94952e-08 -0.000215397)
(-1.8877e-07 -1.03137e-08 -0.000215027)
(-3.98269e-08 -8.70582e-09 -0.000215175)
(1.87675e-08 -7.90485e-09 -0.000215238)
(-6.91684e-09 -1.45211e-08 -0.00021501)
(1.09724e-07 -2.53049e-08 -0.000214833)
(-1.20485e-07 -9.17094e-09 -0.000214617)
(-3.41696e-07 2.26521e-09 -0.000214996)
(-8.56765e-08 -4.31869e-09 -0.000215011)
(9.28816e-08 -2.44729e-08 -0.000214794)
(1.64429e-07 -2.50068e-08 -0.000214373)
(9.33051e-08 -1.45903e-08 -0.000214473)
(1.29461e-08 -1.36707e-08 -0.000214071)
(-7.09313e-08 -1.20371e-08 -0.000213963)
(-1.64375e-07 -8.57623e-09 -0.000214079)
(-2.46103e-07 -1.99949e-09 -0.000213606)
(-2.75712e-07 -8.16964e-09 -0.000213856)
(-4.3279e-08 -1.17419e-08 -0.000213973)
(-2.38112e-07 3.84878e-09 -0.000213798)
(3.90574e-08 -2.77858e-08 -0.000214277)
(2.6254e-07 -3.36454e-08 -0.000213771)
(1.67647e-07 -1.28074e-08 -0.000214082)
(2.33576e-07 -2.63344e-08 -0.000214585)
(1.95057e-07 -3.37285e-08 -0.000214342)
(3.02846e-07 -2.68044e-08 -0.000214555)
(3.18302e-07 -2.48548e-08 -0.000214792)
(1.49136e-07 -3.31237e-08 -0.000214531)
(5.04633e-07 -3.0816e-08 -0.000214774)
(6.7464e-07 -5.04676e-08 -0.000214846)
(2.79005e-08 -1.97522e-08 -0.000214288)
(-2.8945e-07 -6.61286e-09 -0.000214682)
(-4.37967e-07 1.08837e-08 -0.000214484)
(-4.46179e-07 9.53464e-09 -0.000214601)
(-5.1183e-07 1.12976e-08 -0.000214637)
(-7.13935e-07 1.59715e-08 -0.000214865)
(-3.10684e-07 8.941e-09 -0.000214632)
(-4.1966e-07 6.82673e-10 -0.000214724)
(-1.69539e-07 -8.6967e-09 -0.000215294)
(-7.61051e-09 -1.84656e-08 -0.000215151)
(1.65646e-07 -2.95681e-08 -0.000215422)
(2.26222e-07 -2.26397e-08 -0.000215043)
(2.28599e-07 -3.17205e-08 -0.000215457)
(1.15896e-07 -2.37347e-08 -0.000215789)
(-1.56209e-07 -5.52681e-11 -0.000215396)
(1.85569e-07 -2.89737e-09 -0.000215163)
(-4.00302e-07 1.12668e-08 -0.000214997)
(-3.68275e-07 -6.61008e-10 -0.000215488)
(-4.46368e-07 1.16845e-08 -0.000215018)
(-1.9373e-07 -5.07009e-10 -0.000214972)
(3.23608e-08 -2.03168e-08 -0.000214509)
(-1.84974e-08 -7.00987e-09 -0.000214268)
(-1.66656e-07 2.66402e-10 -0.000214968)
(8.60892e-08 -2.17946e-08 -0.000214912)
(2.45456e-08 -7.708e-09 -0.000215062)
(-4.30032e-07 -1.56538e-08 -0.000216875)
(1.25726e-07 6.84028e-09 -0.000218712)
(1.32524e-07 9.5243e-09 -0.000218731)
(2.388e-07 7.33196e-09 -0.000218883)
(1.00293e-07 6.36212e-09 -0.000218971)
(5.31795e-07 -1.52722e-08 -0.000218996)
(5.06038e-08 2.46136e-08 -0.000219054)
(1.37397e-07 1.66379e-08 -0.000219471)
(-5.50532e-08 1.90313e-08 -0.000219623)
(1.66108e-07 1.23296e-08 -0.000219572)
(-6.14238e-08 2.45366e-08 -0.000219772)
(-2.10743e-07 3.19093e-08 -0.000219395)
(-1.00119e-07 1.71728e-08 -0.000219146)
(2.27117e-07 3.50855e-09 -0.000218987)
(2.96074e-07 -3.17622e-09 -0.000219213)
(9.34526e-08 1.18551e-08 -0.000218838)
(9.9511e-09 1.0151e-08 -0.000218722)
(2.4953e-08 3.47867e-09 -0.000219165)
(2.19978e-07 -1.37633e-09 -0.000218962)
(2.7586e-08 2.40917e-08 -0.000219124)
(6.0322e-08 1.90543e-08 -0.000218745)
(7.35591e-08 1.92054e-08 -0.000218885)
(-5.38631e-08 1.69671e-08 -0.000218317)
(9.18965e-08 5.88571e-09 -0.000218441)
(1.79251e-07 6.62033e-09 -0.000218605)
(-6.99325e-08 2.11511e-08 -0.00021849)
(-1.45784e-07 1.77687e-08 -0.000218577)
(-2.74431e-08 1.87647e-08 -0.000218109)
(-2.091e-07 2.68312e-08 -0.000217927)
(-1.51178e-07 2.92864e-08 -0.000217806)
(-1.32866e-07 2.23572e-08 -0.000217806)
(-1.25101e-07 1.36603e-08 -0.000217793)
(-2.38952e-07 1.96825e-08 -0.00021751)
(-1.71488e-07 2.54982e-08 -0.00021763)
(-1.9326e-07 3.17081e-08 -0.000217501)
(-9.54574e-08 2.77952e-08 -0.000217849)
(-2.39822e-07 1.49729e-08 -0.000217771)
(-8.57985e-08 2.39333e-08 -0.0002176)
(4.25333e-08 2.65997e-08 -0.000217876)
(2.21087e-07 -3.2799e-09 -0.000218153)
(2.43558e-07 -2.55809e-09 -0.000218287)
(3.61577e-07 -2.80536e-09 -0.000218279)
(9.2967e-07 -3.12315e-08 -0.000218374)
(6.60009e-07 -2.30175e-08 -0.00021831)
(6.15806e-07 -2.18783e-08 -0.00021842)
(4.83259e-07 -1.84431e-08 -0.000218072)
(1.52527e-07 9.22186e-09 -0.000218333)
(-2.31492e-07 2.38285e-08 -0.00021819)
(-4.51003e-07 4.1528e-08 -0.00021853)
(-6.89849e-07 4.93974e-08 -0.000218615)
(-4.47021e-07 3.67651e-08 -0.000218493)
(-2.88444e-07 3.57316e-08 -0.000218662)
(-2.11723e-07 2.716e-08 -0.000218408)
(4.38403e-08 1.27105e-08 -0.000218562)
(1.6848e-07 3.02625e-09 -0.000218995)
(5.04693e-07 -1.70581e-08 -0.000219116)
(2.13147e-07 -1.52954e-10 -0.000218883)
(4.61207e-07 -4.02007e-09 -0.000219136)
(2.76966e-07 -4.99024e-09 -0.000219102)
(2.41649e-07 -2.09818e-09 -0.000218656)
(5.17243e-07 -9.144e-09 -0.000219076)
(4.28987e-07 1.42632e-09 -0.000219047)
(-3.91531e-08 1.92039e-08 -0.00021867)
(-5.85659e-08 2.07435e-08 -0.000218909)
(-2.38281e-07 3.09904e-08 -0.000218865)
(-3.37241e-07 2.37611e-08 -0.000218591)
(-2.26641e-07 1.72708e-08 -0.000218147)
(2.14801e-07 1.44178e-08 -0.000218065)
(6.40924e-08 1.39957e-08 -0.000218921)
(-3.20989e-07 4.04945e-08 -0.000218703)
(1.63275e-07 -3.05237e-09 -0.000218814)
(1.10613e-07 -1.01752e-09 -0.000220765)
(2.70244e-07 -5.70219e-08 -0.000214869)
(2.99869e-07 -6.26127e-08 -0.000214404)
(3.97181e-07 -6.64596e-08 -0.000214584)
(1.63088e-07 -3.77625e-08 -0.000215095)
(4.41351e-07 -9.99893e-08 -0.000214929)
(1.71701e-07 -4.69847e-08 -0.000215137)
(2.26991e-07 -3.82505e-08 -0.0002156)
(1.83837e-07 -3.71243e-08 -0.000215596)
(2.7097e-07 -6.64164e-08 -0.000216259)
(-8.53886e-08 7.50403e-09 -0.000215543)
(-9.83495e-09 -3.40442e-09 -0.000215511)
(-2.79833e-07 3.0103e-08 -0.000215652)
(2.30837e-07 -5.24018e-08 -0.000215377)
(2.04015e-07 -5.61547e-08 -0.000215055)
(1.18238e-07 -3.34594e-08 -0.000214994)
(1.25557e-07 -2.41464e-08 -0.000214985)
(1.08363e-07 -2.24965e-08 -0.000215257)
(3.45447e-07 -7.64236e-08 -0.000215072)
(2.89619e-07 -6.26389e-08 -0.00021515)
(2.44909e-07 -4.64407e-08 -0.000215216)
(5.63916e-08 -2.12868e-08 -0.000214939)
(2.74701e-07 -6.73597e-08 -0.00021507)
(1.05165e-07 -2.23724e-08 -0.000214607)
(-3.36319e-07 3.74706e-08 -0.00021461)
(-2.74312e-07 2.69232e-08 -0.000215138)
(-1.51086e-07 1.18102e-08 -0.000214855)
(3.21029e-07 -6.46222e-08 -0.000214716)
(-1.42497e-07 7.22316e-09 -0.000214082)
(-7.96043e-08 2.12697e-09 -0.000214132)
(2.14854e-08 -1.10731e-08 -0.000213974)
(-2.46244e-07 1.92905e-08 -0.000213967)
(-1.75372e-07 1.05876e-08 -0.000213927)
(-3.05643e-07 3.66636e-08 -0.000214044)
(-2.42341e-07 2.51936e-08 -0.000214311)
(-1.9403e-07 2.11767e-08 -0.000214121)
(-4.01904e-07 4.75675e-08 -0.000214445)
(6.4327e-08 -3.56828e-08 -0.000214242)
(2.02979e-07 -4.61061e-08 -0.000214213)
(2.18844e-07 -3.71547e-08 -0.000214288)
(2.49308e-07 -4.88314e-08 -0.000213968)
(5.18151e-07 -9.37299e-08 -0.000214265)
(7.80892e-07 -1.31103e-07 -0.000214458)
(4.42541e-07 -8.3946e-08 -0.000213752)
(4.3431e-07 -8.80763e-08 -0.000214426)
(5.05396e-07 -9.97046e-08 -0.000214489)
(2.5551e-07 -6.27216e-08 -0.00021389)
(-1.48036e-07 -1.00288e-09 -0.00021437)
(-4.89658e-07 5.80154e-08 -0.000214571)
(-4.04962e-07 4.53548e-08 -0.000215066)
(-9.22995e-08 -1.71232e-09 -0.000215156)
(-4.09257e-07 4.38061e-08 -0.000214761)
(-1.43472e-07 1.36624e-08 -0.000214964)
(-8.21055e-08 4.69703e-09 -0.000214935)
(1.00153e-07 -1.69213e-08 -0.000215423)
(2.07889e-07 -4.48736e-08 -0.000215134)
(4.07534e-07 -8.27165e-08 -0.000215529)
(5.27298e-07 -9.4602e-08 -0.000214999)
(2.69758e-07 -4.80709e-08 -0.000214836)
(3.37101e-07 -5.80175e-08 -0.000215157)
(1.31815e-07 -3.63999e-08 -0.000214629)
(5.8187e-07 -1.10095e-07 -0.000215132)
(9.11462e-08 -3.37927e-08 -0.000214432)
(-4.06244e-07 4.59307e-08 -0.000214787)
(-3.36184e-07 4.2949e-08 -0.000214842)
(-2.20257e-07 2.26254e-08 -0.000214937)
(-7.38442e-08 -7.55862e-09 -0.000214416)
(3.49132e-07 -7.35316e-08 -0.000214322)
(-2.11988e-07 1.1348e-08 -0.000214499)
(9.65625e-08 -3.71146e-08 -0.000215063)
(3.01247e-07 -4.81061e-08 -0.000215068)
(-2.37469e-07 1.544e-08 -0.000216323)
(2.64355e-07 -2.38708e-08 -0.000218138)
(2.31786e-07 -1.86309e-08 -0.00021831)
(4.58765e-07 -5.4821e-08 -0.000218315)
(5.98521e-08 9.15232e-09 -0.000218795)
(1.56521e-07 -2.67847e-08 -0.000218537)
(2.37693e-07 -1.92214e-08 -0.000219079)
(1.99449e-07 -8.59651e-09 -0.000219316)
(1.73812e-07 -5.88575e-09 -0.000219718)
(1.87888e-07 -2.29793e-08 -0.000219174)
(3.86111e-07 -3.27988e-08 -0.000219471)
(8.97452e-08 4.28546e-09 -0.00021945)
(-2.88655e-07 6.47206e-08 -0.000219241)
(-1.91454e-07 4.88619e-08 -0.000218846)
(-4.52139e-08 2.05177e-08 -0.000218624)
(1.17284e-07 -3.2212e-10 -0.000218675)
(1.72321e-07 -6.93417e-09 -0.000218596)
(1.96951e-07 -3.40312e-09 -0.00021893)
(2.18603e-07 -3.15093e-08 -0.000218469)
(3.85908e-07 -4.13277e-08 -0.000218874)
(2.09969e-07 -1.05646e-08 -0.00021869)
(2.23332e-07 -2.12139e-08 -0.000218763)
(5.88586e-10 7.91876e-09 -0.000218542)
(3.00006e-08 1.31688e-08 -0.000218529)
(1.52552e-07 -1.69784e-08 -0.000218474)
(2.2013e-07 -1.45039e-08 -0.000218513)
(-1.41815e-08 2.43877e-08 -0.000218493)
(1.28174e-07 -7.80695e-09 -0.000217993)
(-1.13435e-07 3.83688e-08 -0.000217933)
(-2.47968e-07 5.70012e-08 -0.000217893)
(-3.84611e-07 7.60662e-08 -0.000217788)
(-2.55099e-07 6.39643e-08 -0.000217809)
(-3.47141e-07 5.71121e-08 -0.000217771)
(-1.13336e-08 1.68592e-08 -0.00021787)
(4.18751e-08 1.22792e-08 -0.000217987)
(-1.18998e-08 2.13932e-08 -0.000218074)
(1.05036e-07 2.60798e-09 -0.00021816)
(3.45665e-08 4.28639e-09 -0.000217945)
(1.88895e-07 -9.89607e-09 -0.000217786)
(4.10169e-07 -4.77485e-08 -0.000217753)
(5.26254e-07 -6.09381e-08 -0.000217993)