/*--------------------------------*- C++ -*----------------------------------*\
| =========                 |                                                 |
| \\      /  F ield         | OpenFOAM: The Open Source CFD Toolbox           |
|  \\    /   O peration     | Version:  2206                                  |
|   \\  /    A nd           | Website:  www.openfoam.com                      |
|    \\/     M anipulation  |                                                 |
\*---------------------------------------------------------------------------*/
FoamFile
{
    version     2.0;
    format      ascii;
    arch        "LSB;label=32;scalar=64";
    class       volScalarField;
    location    "50";
    object      p;
}
// * * * * * * * * * * * * * * * * * * * * * * * * * * * * * * * * * * * * * //

dimensions      [0 2 -2 0 0 0 0];

internalField   nonuniform List<scalar> 
66928
(
-0.00754581
-0.0075329
-0.00753284
-0.00753292
-0.00754588
-0.0075331
-0.00757331
-0.00775971
-0.0075328
-0.00753304
-0.00754561
-0.00754593
-0.00754557
-0.00754579
-0.00754559
-0.00754489
-0.00754599
-0.00754611
-0.00754518
-0.0075328
-0.00754501
-0.00754603
-0.00754611
-0.00753287
-0.00754525
-0.00754503
-0.00754599
-0.00754588
-0.0075458
-0.00754589
-0.00754507
-0.00754586
-0.0075734
-0.00765278
-0.00757341
-0.00765278
-0.00757359
-0.00757354
-0.00765285
-0.00765262
-0.00765266
-0.00775972
-0.00768052
-0.00775966
-0.00768031
-0.00768037
-0.00775959
-0.00775958
-0.00768065
-0.00768044
-0.00751973
-0.00751989
-0.00754595
-0.00751989
-0.00754549
-0.00751998
-0.00751962
-0.00754574
-0.00751987
-0.00754615
-0.00751984
-0.00754562
-0.00752002
-0.00751953
-0.00754583
-0.0075197
-0.00754571
-0.00754577
-0.00751988
-0.00751993
-0.00754599
-0.00751974
-0.00754559
-0.00751965
-0.00754526
-0.00754604
-0.00754585
-0.00754608
-0.00754597
-0.00754595
-0.00754607
-0.00754588
-0.00754598
-0.0075461
-0.00754596
-0.00752007
-0.00754621
-0.00751996
-0.00754576
-0.00751968
-0.00752021
-0.00754595
-0.00752017
-0.00754613
-0.00752015
-0.00754568
-0.0075203
-0.00751986
-0.00754588
-0.00751993
-0.0075459
-0.00754586
-0.00752011
-0.00752013
-0.00754612
-0.00752004
-0.00751996
-0.00754585
-0.00751992
-0.0075457
-0.00759926
-0.00762692
-0.00759936
-0.00762677
-0.00762672
-0.00765274
-0.00765273
-0.00762697
-0.00762691
-0.00765296
-0.00759919
-0.00757317
-0.0075737
-0.00759921
-0.00757344
-0.00759909
-0.00759945
-0.00759925
-0.00757311
-0.00757366
-0.00759933
-0.0075734
-0.00759914
-0.00759961
-0.00759942
-0.00757347
-0.00757346
-0.00757322
-0.00759923
-0.00759925
-0.00762696
-0.00765254
-0.00762694
-0.00765298
-0.00762712
-0.00765274
-0.00762663
-0.00762689
-0.00765254
-0.00762678
-0.00765309
-0.00762701
-0.00765278
-0.00762649
-0.00773391
-0.0077063
-0.00773367
-0.00770625
-0.00770638
-0.00768047
-0.00768039
-0.00768021
-0.00770618
-0.00770616
-0.00773387
-0.0077599
-0.00773399
-0.00775946
-0.00773408
-0.00773364
-0.00775962
-0.00773379
-0.00775995
-0.00773377
-0.00775945
-0.00773395
-0.00773343
-0.00775965
-0.00770619
-0.00768071
-0.00768022
-0.00770621
-0.00768048
-0.00770605
-0.00770648
-0.00770622
-0.00768056
-0.00768006
-0.00770622
-0.0076804
-0.00770603
-0.00770656
-0.00773362
-0.00775963
-0.00775962
-0.00773389
-0.00773381
-0.00775984
-0.00752141
-0.00751998
-0.00754516
-0.00754529
-0.00752044
-0.00752036
-0.00754425
-0.00752161
-0.0075201
-0.00754535
-0.00754529
-0.00752052
-0.0075206
-0.00754437
-0.00759773
-0.00757385
-0.00757378
-0.00759919
-0.00757484
-0.00759861
-0.00759873
-0.00773533
-0.00773385
-0.00775912
-0.00775917
-0.00773439
-0.00773423
-0.00775818
-0.00753285
-0.00753298
-0.00751961
-0.00754625
-0.00752062
-0.00754469
-0.00751946
-0.00752059
-0.00754599
-0.00751939
-0.00754647
-0.00752053
-0.00754503
-0.00751925
-0.00752069
-0.0075463
-0.00751939
-0.00752086
-0.00754502
-0.00754643
-0.00752082
-0.00751946
-0.00754632
-0.00751948
-0.00754654
-0.0075206
-0.00754511
-0.00752075
-0.00751935
-0.00754634
-0.00751944
-0.00752088
-0.00754644
-0.00754504
-0.00751948
-0.00752083
-0.00754634
-0.00751983
-0.0075464
-0.00752081
-0.00754485
-0.00751963
-0.00752097
-0.00754612
-0.00762844
-0.0076269
-0.00765222
-0.00765231
-0.00765128
-0.00762743
-0.00762734
-0.00770471
-0.00770624
-0.0076809
-0.00768079
-0.00768188
-0.00770564
-0.00770571
-0.00758622
-0.00758633
-0.00758632
-0.00757341
-0.00780016
-0.0078001
-0.00780008
-0.00778703
-0.00801393
-0.00801389
-0.00801388
-0.00800085
-0.00822779
-0.0082278
-0.00822781
-0.0082148
-0.00844196
-0.00844197
-0.00844201
-0.00842901
-0.00865635
-0.00865638
-0.00865641
-0.0086434
-0.0088709
-0.00887094
-0.00887093
-0.00885791
-0.00908554
-0.00908553
-0.00908555
-0.00907248
-0.00930024
-0.00930023
-0.00930025
-0.00928718
-0.0095149
-0.00951488
-0.00951492
-0.00950186
-0.00972941
-0.00972943
-0.00972943
-0.00971641
-0.00994379
-0.00994381
-0.00994382
-0.00993079
-0.0101581
-0.0101581
-0.0101581
-0.0101451
-0.0103723
-0.0103723
-0.0103723
-0.0103592
-0.0105862
-0.0105862
-0.0105862
-0.0105732
-0.0108
-0.0108
-0.0108
-0.010787
-0.0110135
-0.0110137
-0.0110136
-0.0110008
-0.00758629
-0.00758627
-0.0077469
-0.00774689
-0.00757338
-0.00775966
-0.00758631
-0.00758633
-0.00774682
-0.00774674
-0.00758629
-0.00774677
-0.00774675
-0.00757336
-0.0077596
-0.00758636
-0.00774679
-0.00774685
-0.00775957
-0.00778722
-0.00797341
-0.00780018
-0.00780012
-0.00796058
-0.00796056
-0.00778717
-0.00797338
-0.00780012
-0.00780001
-0.00796051
-0.00796044
-0.00779993
-0.00796047
-0.00796043
-0.0077871
-0.00797332
-0.00779993
-0.00796045
-0.00796046
-0.00797331
-0.00800094
-0.00818719
-0.00801392
-0.00801388
-0.00817433
-0.00817435
-0.00800093
-0.00818722
-0.00801387
-0.00801379
-0.00817432
-0.00817431
-0.00801378
-0.0081743
-0.00817433
-0.00800087
-0.00818721
-0.00801381
-0.00817432
-0.00817435
-0.00818723
-0.00821479
-0.00840134
-0.00822776
-0.00822775
-0.00838843
-0.00838844
-0.00821481
-0.00840134
-0.00822776
-0.00822773
-0.00838845
-0.00838845
-0.00822774
-0.00838843
-0.00838848
-0.00821479
-0.00840137
-0.00822776
-0.00838846
-0.00838851
-0.0084014
-0.00842896
-0.00861568
-0.00844192
-0.00844189
-0.00860277
-0.00860278
-0.00842895
-0.0086157
-0.00844194
-0.00844193
-0.00860277
-0.0086028
-0.00844194
-0.00860276
-0.00860283
-0.00842899
-0.00861573
-0.00844198
-0.00860281
-0.00860286
-0.00861576
-0.00864332
-0.0088302
-0.00865631
-0.00865631
-0.00881729
-0.00881732
-0.00864335
-0.00883024
-0.00865632
-0.00865632
-0.00881729
-0.0088173
-0.00865635
-0.00881731
-0.00881733
-0.00864337
-0.00883023
-0.00865637
-0.00881731
-0.00881735
-0.00883025
-0.00885787
-0.00904484
-0.00887088
-0.00887087
-0.00903192
-0.00903192
-0.0088579
-0.00904482
-0.00887087
-0.00887085
-0.00903191
-0.00903191
-0.00887087
-0.00903188
-0.0090319
-0.00885788
-0.00904484
-0.00887089
-0.00903191
-0.00903193
-0.00904483
-0.00907252
-0.00925954
-0.00908552
-0.00908548
-0.00924662
-0.00924661
-0.00907249
-0.00925952
-0.00908551
-0.00908548
-0.00924661
-0.0092466
-0.00908545
-0.00924656
-0.00924656
-0.0090725
-0.00925953
-0.00908548
-0.00924659
-0.00924659
-0.00925951
-0.00928721
-0.00947423
-0.00930023
-0.00930018
-0.00946131
-0.0094613
-0.0092872
-0.00947421
-0.00930022
-0.00930019
-0.00946131
-0.00946129
-0.00930014
-0.00946125
-0.00946125
-0.00928721
-0.00947423
-0.00930018
-0.00946129
-0.00946129
-0.0094742
-0.0095019
-0.00968878
-0.0095149
-0.00951486
-0.00967587
-0.00967586
-0.00950187
-0.00968877
-0.00951489
-0.00951485
-0.00967586
-0.00967584
-0.00951482
-0.00967583
-0.00967584
-0.00950189
-0.00968877
-0.00951485
-0.00967584
-0.00967586
-0.00968877
-0.00971643
-0.00990316
-0.00972941
-0.00972938
-0.00989026
-0.00989028
-0.00971642
-0.00990318
-0.0097294
-0.00972936
-0.00989025
-0.00989024
-0.00972936
-0.00989024
-0.00989024
-0.00971641
-0.00990316
-0.00972938
-0.00989025
-0.00989027
-0.00990317
-0.00993081
-0.0101174
-0.00994378
-0.00994376
-0.0101045
-0.0101046
-0.00993081
-0.0101174
-0.00994378
-0.00994374
-0.0101045
-0.0101045
-0.00994373
-0.0101045
-0.0101045
-0.0099308
-0.0101174
-0.00994376
-0.0101045
-0.0101046
-0.0101175
-0.0101451
-0.0103317
-0.010158
-0.010158
-0.0103188
-0.0103188
-0.0101451
-0.0103317
-0.010158
-0.010158
-0.0103188
-0.0103187
-0.010158
-0.0103187
-0.0103188
-0.0101451
-0.0103317
-0.010158
-0.0103188
-0.0103188
-0.0103317
-0.0103593
-0.0105457
-0.0103723
-0.0103722
-0.0105328
-0.0105328
-0.0103593
-0.0105457
-0.0103722
-0.0103722
-0.0105328
-0.0105328
-0.0103722
-0.0105328
-0.0105328
-0.0103593
-0.0105457
-0.0103722
-0.0105328
-0.0105328
-0.0105457
-0.0105733
-0.0107595
-0.0105862
-0.0105862
-0.0107466
-0.0107466
-0.0105733
-0.0107595
-0.0105862
-0.0105862
-0.0107466
-0.0107466
-0.0105862
-0.0107466
-0.0107466
-0.0105733
-0.0107595
-0.0105862
-0.0107466
-0.0107466
-0.0107595
-0.0107871
-0.0109731
-0.0108
-0.0108
-0.0109603
-0.0109603
-0.0107871
-0.0109732
-0.0108
-0.0107999
-0.0109603
-0.0109603
-0.0107999
-0.0109603
-0.0109603
-0.010787
-0.0109731
-0.0108
-0.0109603
-0.0109603
-0.0109732
-0.0110007
-0.0110136
-0.0110136
-0.0110007
-0.0110136
-0.0110135
-0.0110137
-0.0111743
-0.0110007
-0.0110137
-0.0111743
-0.0111871
-0.00765266
-0.0075734
-0.00757355
-0.00765276
-0.00757338
-0.00765272
-0.00765293
-0.0075734
-0.00757331
-0.0076528
-0.00758621
-0.00758625
-0.00758625
-0.00774685
-0.00774689
-0.00774681
-0.00774688
-0.00765184
-0.00757409
-0.00758625
-0.00763975
-0.00765207
-0.00763967
-0.00757425
-0.00757345
-0.00765275
-0.00765148
-0.0075863
-0.00757445
-0.00763976
-0.00763949
-0.00765178
-0.00757464
-0.00757346
-0.00757366
-0.00765265
-0.00765262
-0.00765248
-0.00786654
-0.00778741
-0.0077875
-0.00786658
-0.00778739
-0.0078666
-0.00786664
-0.0077871
-0.00778696
-0.00786657
-0.0078
-0.00779996
-0.00779986
-0.0079605
-0.00796053
-0.00796047
-0.00796047
-0.00786556
-0.00778781
-0.00779999
-0.0078535
-0.00778794
-0.00786576
-0.00785341
-0.00778706
-0.00786648
-0.0078652
-0.00779999
-0.00778797
-0.00785345
-0.00778829
-0.00785338
-0.0078655
-0.00778707
-0.0077872
-0.00786637
-0.00786634
-0.0078662
-0.00808017
-0.00800103
-0.00800115
-0.00808021
-0.00800101
-0.00808018
-0.00808039
-0.0080008
-0.00800069
-0.00808028
-0.00801385
-0.00801382
-0.00801378
-0.0081743
-0.00817434
-0.00817434
-0.00817434
-0.00807937
-0.00800152
-0.00801381
-0.00806731
-0.00800169
-0.00807957
-0.00806726
-0.00800079
-0.00808023
-0.008079
-0.00801382
-0.00800172
-0.00806731
-0.00800207
-0.00806726
-0.0080793
-0.00800084
-0.00800096
-0.00808022
-0.00808016
-0.00808003
-0.00829407
-0.00821488
-0.00821495
-0.00829414
-0.00821488
-0.00829416
-0.0082944
-0.00821469
-0.0082146
-0.00829428
-0.00822774
-0.00822773
-0.00822772
-0.00838842
-0.00838846
-0.00838847
-0.00838849
-0.00829342
-0.00821546
-0.00822775
-0.0082813
-0.00821564
-0.00829354
-0.00828126
-0.00821474
-0.00829427
-0.00829303
-0.00822775
-0.00821565
-0.0082813
-0.008216
-0.00828126
-0.00829334
-0.00821481
-0.00821492
-0.00829428
-0.00829419
-0.00829406
-0.00850824
-0.00842896
-0.00842901
-0.00850832
-0.00842893
-0.00850831
-0.00850866
-0.00842886
-0.00842878
-0.00850853
-0.0084419
-0.00844193
-0.00844191
-0.00860274
-0.00860279
-0.00860281
-0.00860283
-0.00850765
-0.0084296
-0.00844194
-0.00849552
-0.0084298
-0.00850782
-0.0084955
-0.0084289
-0.00850853
-0.0085073
-0.00844196
-0.00842985
-0.00849555
-0.00843019
-0.00849551
-0.0085076
-0.008429
-0.00842912
-0.00850853
-0.00850848
-0.00850834
-0.00872274
-0.00864334
-0.00864343
-0.00872281
-0.00864337
-0.00872285
-0.00872312
-0.00864325
-0.00864317
-0.00872299
-0.0086563
-0.00865632
-0.00865631
-0.00881726
-0.00881732
-0.00881732
-0.00881733
-0.0087221
-0.00864402
-0.00865634
-0.00870998
-0.00864422
-0.00872225
-0.00870994
-0.00864331
-0.00872297
-0.00872176
-0.00865635
-0.00864426
-0.00871
-0.0086446
-0.00870995
-0.00872206
-0.0086434
-0.00864352
-0.00872298
-0.00872291
-0.00872278
-0.00893732
-0.00885789
-0.00885797
-0.00893739
-0.00885792
-0.00893739
-0.00893767
-0.00885778
-0.00885767
-0.00893754
-0.00887085
-0.00887085
-0.00887083
-0.00903188
-0.00903191
-0.00903192
-0.00903191
-0.00893667
-0.00885855
-0.00887087
-0.00892455
-0.00885875
-0.00893685
-0.0089245
-0.00885781
-0.00893752
-0.0089363
-0.00887088
-0.00885876
-0.00892454
-0.0088591
-0.0089245
-0.00893661
-0.00885789
-0.00885802
-0.00893752
-0.00893746
-0.00893733
-0.00915199
-0.00907252
-0.00907261
-0.00915205
-0.00907253
-0.00915208
-0.00915232
-0.00907239
-0.00907229
-0.00915219
-0.00908546
-0.00908547
-0.00908543
-0.00924657
-0.00924659
-0.0092466
-0.00924658
-0.00915126
-0.00907312
-0.00908546
-0.00913916
-0.00907329
-0.00915143
-0.0091391
-0.00907241
-0.00915217
-0.00915092
-0.00908548
-0.00907333
-0.00913918
-0.00907369
-0.00913913
-0.00915123
-0.00907248
-0.0090726
-0.00915213
-0.00915207
-0.00915194
-0.00936672
-0.00928726
-0.00928732
-0.00936679
-0.00928724
-0.00936675
-0.00936704
-0.00928714
-0.00928703
-0.00936693
-0.00930015
-0.00930017
-0.00930012
-0.00946126
-0.00946128
-0.00946129
-0.00946127
-0.00936598
-0.00928782
-0.00930015
-0.00935387
-0.00928799
-0.00936618
-0.00935381
-0.00928716
-0.0093669
-0.00936565
-0.00930018
-0.00928808
-0.00935389
-0.0092884
-0.00935384
-0.00936596
-0.00928718
-0.0092873
-0.00936685
-0.00936678
-0.00936666
-0.00958138
-0.00950196
-0.00950204
-0.00958144
-0.00950196
-0.00958147
-0.0095817
-0.00950182
-0.00950173
-0.00958159
-0.00951482
-0.00951483
-0.00951479
-0.00967581
-0.00967584
-0.00967583
-0.00967584
-0.00958064
-0.00950252
-0.00951483
-0.00956849
-0.0095027
-0.00958081
-0.00956845
-0.00950184
-0.00958157
-0.00958029
-0.00951485
-0.00950277
-0.00956853
-0.0095031
-0.00956847
-0.00958061
-0.00950188
-0.00950201
-0.00958149
-0.00958145
-0.00958132
-0.00979581
-0.00971649
-0.00971656
-0.00979589
-0.00971649
-0.00979587
-0.00979614
-0.00971637
-0.00971626
-0.00979603
-0.00972934
-0.00972934
-0.00972932
-0.00989021
-0.00989025
-0.00989024
-0.00989025
-0.00979513
-0.00971709
-0.00972936
-0.00978301
-0.00971726
-0.00979534
-0.00978295
-0.0097164
-0.00979603
-0.00979474
-0.00972936
-0.0097173
-0.009783
-0.00971761
-0.00978294
-0.00979507
-0.00971643
-0.00971655
-0.00979597
-0.00979593
-0.00979579
-0.0100102
-0.00993086
-0.00993096
-0.0100102
-0.00993088
-0.0100103
-0.0100105
-0.00993073
-0.00993063
-0.0100104
-0.00994372
-0.00994372
-0.00994369
-0.0101045
-0.0101045
-0.0101045
-0.0101045
-0.0100095
-0.00993147
-0.00994374
-0.00999735
-0.00993166
-0.0100096
-0.00999729
-0.00993077
-0.0100103
-0.0100091
-0.00994374
-0.00993169
-0.00999735
-0.00993202
-0.0099973
-0.0100094
-0.00993083
-0.00993095
-0.0100103
-0.0100103
-0.0100101
-0.0102244
-0.0101451
-0.0101452
-0.0102245
-0.0101451
-0.0102245
-0.0102248
-0.010145
-0.0101449
-0.0102246
-0.010158
-0.010158
-0.010158
-0.0103187
-0.0103188
-0.0103188
-0.0103188
-0.0102237
-0.0101457
-0.010158
-0.0102116
-0.0101459
-0.0102239
-0.0102115
-0.010145
-0.0102246
-0.0102234
-0.010158
-0.0101459
-0.0102116
-0.0101463
-0.0102116
-0.0102237
-0.0101451
-0.0101452
-0.0102246
-0.0102245
-0.0102244
-0.0104386
-0.0103594
-0.0103594
-0.0104386
-0.0103594
-0.0104386
-0.0104389
-0.0103592
-0.0103591
-0.0104388
-0.0103722
-0.0103722
-0.0103721
-0.0105328
-0.0105328
-0.0105328
-0.0105328
-0.0104378
-0.0103599
-0.0103722
-0.0104257
-0.0103601
-0.010438
-0.0104257
-0.0103592
-0.0104387
-0.0104375
-0.0103722
-0.0103601
-0.0104257
-0.0103605
-0.0104257
-0.0104378
-0.0103593
-0.0103594
-0.0104387
-0.0104386
-0.0104385
-0.0106525
-0.0105734
-0.0105734
-0.0106526
-0.0105734
-0.0106526
-0.0106528
-0.0105732
-0.0105731
-0.0106527
-0.0105862
-0.0105862
-0.0105861
-0.0107466
-0.0107466
-0.0107466
-0.0107466
-0.0106518
-0.0105739
-0.0105862
-0.0106397
-0.0105741
-0.010652
-0.0106396
-0.0105733
-0.0106527
-0.0106514
-0.0105862
-0.0105741
-0.0106397
-0.0105745
-0.0106396
-0.0106517
-0.0105733
-0.0105734
-0.0106526
-0.0106526
-0.0106524
-0.0108662
-0.0107871
-0.0107872
-0.0108662
-0.0107871
-0.0108663
-0.0108665
-0.010787
-0.0107868
-0.0108664
-0.0107999
-0.0107999
-0.0107999
-0.0109602
-0.0109603
-0.0109603
-0.0109603
-0.0108655
-0.0107877
-0.0107999
-0.0108534
-0.0107879
-0.0108656
-0.0108533
-0.010787
-0.0108663
-0.0108651
-0.0107999
-0.0107879
-0.0108534
-0.0107882
-0.0108534
-0.0108654
-0.010787
-0.0107872
-0.0108663
-0.0108663
-0.0108661
-0.0110799
-0.0110007
-0.0110008
-0.01108
-0.0110007
-0.0110799
-0.0110803
-0.0110006
-0.0110005
-0.0110802
-0.0110136
-0.0110135
-0.0110137
-0.0111743
-0.0110792
-0.0110014
-0.0110137
-0.0110671
-0.0110016
-0.0110794
-0.0110671
-0.0110007
-0.0110801
-0.0110789
-0.0110136
-0.0110016
-0.0110671
-0.0110019
-0.0110671
-0.0110792
-0.0110007
-0.0110008
-0.0110801
-0.01108
-0.0110799
-0.00765265
-0.00757337
-0.00765272
-0.00757355
-0.00765156
-0.00757426
-0.00758628
-0.00763983
-0.00763969
-0.00757457
-0.00765189
-0.00765155
-0.00757422
-0.00758623
-0.00763969
-0.00765185
-0.00763964
-0.00757457
-0.00768056
-0.0077597
-0.00775963
-0.00768057
-0.00768055
-0.0077597
-0.0076805
-0.00775961
-0.00768158
-0.00769341
-0.00775887
-0.0077469
-0.00769337
-0.00775856
-0.00768137
-0.00768156
-0.00769337
-0.00775889
-0.0077469
-0.0076813
-0.00769339
-0.00775857
-0.00757352
-0.00757339
-0.00765272
-0.0076525
-0.00765277
-0.00757337
-0.00765281
-0.00775972
-0.00768046
-0.00768033
-0.00775961
-0.00775951
-0.00768056
-0.00768034
-0.00775959
-0.00768026
-0.0076519
-0.00757418
-0.00758626
-0.00763987
-0.00763983
-0.0075742
-0.00765204
-0.00765292
-0.00757343
-0.00765278
-0.00757331
-0.00765191
-0.00758629
-0.0075742
-0.00763982
-0.00763982
-0.00765202
-0.00757421
-0.00768013
-0.00775967
-0.00775973
-0.00768031
-0.00768112
-0.00769336
-0.00775894
-0.00774675
-0.00769333
-0.00775873
-0.00768109
-0.00768014
-0.00775962
-0.00768027
-0.00775971
-0.00768112
-0.0076933
-0.00774675
-0.00775888
-0.00769334
-0.00768103
-0.00775873
-0.00765288
-0.00757337
-0.0076528
-0.00757326
-0.00765184
-0.00758623
-0.00757412
-0.0076396
-0.00763959
-0.007652
-0.00757427
-0.00765288
-0.00757337
-0.00765274
-0.00757326
-0.00768108
-0.00769328
-0.00775889
-0.00774672
-0.00768097
-0.00769325
-0.0077587
-0.00768006
-0.00775963
-0.00768024
-0.00775968
-0.00768108
-0.00769325
-0.00774675
-0.00775886
-0.00769328
-0.00768093
-0.0077587
-0.00768006
-0.00775958
-0.00768018
-0.00775967
-0.00757358
-0.00757366
-0.00765279
-0.00765263
-0.0076525
-0.00757355
-0.00765266
-0.00775958
-0.00768026
-0.00768027
-0.0077595
-0.00775938
-0.00768038
-0.0076805
-0.00775948
-0.00768036
-0.00765147
-0.00758627
-0.00757441
-0.00763951
-0.00763937
-0.00765177
-0.00757465
-0.00765255
-0.00757365
-0.00765262
-0.00757368
-0.00765255
-0.00757359
-0.0076526
-0.00757368
-0.00768147
-0.00769329
-0.00774682
-0.00775866
-0.00769322
-0.00768126
-0.00775835
-0.00768146
-0.00769328
-0.00774687
-0.00775864
-0.00769328
-0.0076812
-0.00775835
-0.00768044
-0.00775946
-0.00768042
-0.00775935
-0.00768044
-0.00775945
-0.00768037
-0.00775934
-0.00757339
-0.00765273
-0.00757354
-0.00765264
-0.00768023
-0.00775946
-0.00775933
-0.00768028
-0.00768045
-0.00775954
-0.00768019
-0.00775945
-0.00768032
-0.00778738
-0.0078666
-0.00778714
-0.00786655
-0.00778745
-0.00778722
-0.00786654
-0.00786645
-0.00786645
-0.00797337
-0.00789427
-0.00797335
-0.00789405
-0.0078941
-0.00797326
-0.00797329
-0.00789437
-0.00789417
-0.00786654
-0.00778741
-0.00778754
-0.00786657
-0.00786544
-0.00778818
-0.00780012
-0.00785358
-0.00778847
-0.00786573
-0.00785355
-0.00786543
-0.00778816
-0.00780007
-0.00785355
-0.00778849
-0.00786572
-0.00785353
-0.00789436
-0.00797335
-0.00789431
-0.00797331
-0.00789437
-0.00797336
-0.00789432
-0.00797329
-0.00789538
-0.00790712
-0.00797255
-0.00796057
-0.0078951
-0.00790712
-0.00797226
-0.00789539
-0.00790713
-0.00797255
-0.00796056
-0.0078951
-0.00790714
-0.00797226
-0.00778746
-0.00778717
-0.00786651
-0.00786644
-0.00786641
-0.00778708
-0.00786651
-0.00797336
-0.00789428
-0.00789407
-0.00797325
-0.00797325
-0.00789438
-0.00789413
-0.00797333
-0.00789401
-0.00786559
-0.00778784
-0.00780001
-0.00785352
-0.00778795
-0.00786581
-0.00785343
-0.00786662
-0.00778704
-0.00778699
-0.00786649
-0.00786559
-0.00779997
-0.00778774
-0.00785342
-0.00778794
-0.00785342
-0.00786574
-0.00789384
-0.00797338
-0.00789403
-0.00797346
-0.00789483
-0.00790704
-0.00797266
-0.00796045
-0.00789477
-0.00790699
-0.00797246
-0.00789385
-0.00797335
-0.00789398
-0.00797344
-0.00789484
-0.00790698
-0.00796045
-0.00797263
-0.00790701
-0.00789472
-0.00797247
-0.00786659
-0.00778706
-0.00778699
-0.00786652
-0.00786556
-0.0077999
-0.00778773
-0.00785337
-0.00778791
-0.00785337
-0.00786569
-0.00786658
-0.00778701
-0.00778697
-0.00786644
-0.00789482
-0.00790699
-0.00797262
-0.00796041
-0.00789475
-0.00790693
-0.00797246
-0.00789381
-0.00797336
-0.007894
-0.00797343
-0.0078948
-0.00790698
-0.00796043
-0.00797259
-0.00790699
-0.00789467
-0.00797246
-0.0078938
-0.00797333
-0.00789393
-0.00797343
-0.00778712
-0.00778724
-0.00786641
-0.00786636
-0.00786623
-0.00778715
-0.00786637
-0.00797332
-0.00789398
-0.00789397
-0.00797324
-0.00797311
-0.00789408
-0.00789418
-0.00797321
-0.00789406
-0.00786519
-0.00779988
-0.00778795
-0.00785338
-0.00778828
-0.00785333
-0.00786549
-0.00786626
-0.00778717
-0.00778729
-0.00786633
-0.00786625
-0.00778715
-0.00778728
-0.0078663
-0.00789519
-0.00790694
-0.00796041
-0.00797239
-0.00790691
-0.00789492
-0.00797209
-0.00789518
-0.00790701
-0.00796043
-0.00797239
-0.00790698
-0.0078949
-0.0079721
-0.00789413
-0.0079732
-0.00789409
-0.0079731
-0.00789412
-0.00797318
-0.00789407
-0.00797311
-0.00778702
-0.00786643
-0.00778711
-0.00786633
-0.00789398
-0.0079732
-0.00797308
-0.00789402
-0.00789413
-0.00797329
-0.00789393
-0.00797319
-0.00789401
-0.00800101
-0.00808022
-0.00800082
-0.00808025
-0.0080011
-0.00800091
-0.00808026
-0.00808007
-0.00808014
-0.00818716
-0.00810792
-0.00818722
-0.00810777
-0.00810781
-0.00818705
-0.00818714
-0.00810803
-0.00810788
-0.00808016
-0.00800105
-0.00800119
-0.00808019
-0.00807909
-0.00800184
-0.00801388
-0.00806731
-0.00800215
-0.00807937
-0.00806729
-0.00807908
-0.00800183
-0.00801384
-0.00806729
-0.00800216
-0.00807935
-0.00806728
-0.00810801
-0.00818715
-0.00810796
-0.00818707
-0.00810802
-0.00818718
-0.00810799
-0.00818706
-0.00810904
-0.00812082
-0.00818634
-0.00817432
-0.00810875
-0.00812082
-0.00818602
-0.00810904
-0.00812085
-0.00818637
-0.00817432
-0.00810879
-0.00812084
-0.00818602
-0.00800111
-0.00800088
-0.00808026
-0.00807997
-0.00808027
-0.0080008
-0.00808031
-0.00818719
-0.00810792
-0.00810783
-0.0081871
-0.00818712
-0.00810805
-0.0081079
-0.00818723
-0.00810781
-0.00807935
-0.00800155
-0.00801379
-0.00806728
-0.00800168
-0.00807952
-0.00806723
-0.00808038
-0.00800078
-0.00800072
-0.00808025
-0.00807937
-0.00801377
-0.0080015
-0.00806725
-0.00800168
-0.00806724
-0.00807952
-0.00810761
-0.00818724
-0.00810777
-0.00818734
-0.00810861
-0.0081208
-0.0081865
-0.00817428
-0.00810851
-0.00812077
-0.00818634
-0.00810762
-0.00818725
-0.00810777
-0.00818732
-0.00810862
-0.0081208
-0.0081743
-0.00818653
-0.00812081
-0.00810851
-0.00818635
-0.00808039
-0.00800079
-0.00800072
-0.00808029
-0.00807938
-0.00801377
-0.00800149
-0.00806724
-0.00800168
-0.00806724
-0.00807953
-0.00808039
-0.00800077
-0.00800072
-0.00808026
-0.00810863
-0.00812079
-0.00818652
-0.00817428
-0.00810853
-0.00812076
-0.00818637
-0.00810764
-0.00818727
-0.0081078
-0.00818734
-0.00810864
-0.00812081
-0.00817432
-0.00818653
-0.00812081
-0.00810852
-0.00818638
-0.00810764
-0.00818727
-0.00810779
-0.00818735
-0.00800088
-0.00800098
-0.00808024
-0.00808013
-0.00808
-0.00800088
-0.00808012
-0.00818722
-0.00810777
-0.0081078
-0.00818715
-0.00818701
-0.00810788
-0.00810798
-0.00818712
-0.00810784
-0.008079
-0.00801377
-0.00800172
-0.00806727
-0.00800205
-0.00806724
-0.0080793
-0.00808006
-0.00800091
-0.00800105
-0.00808009
-0.00808005
-0.0080009
-0.00800105
-0.00808012
-0.00810901
-0.0081208
-0.00817429
-0.00818628
-0.00812077
-0.00810873
-0.00818599
-0.00810901
-0.00812085
-0.00817432
-0.00818631
-0.00812081
-0.00810873
-0.008186
-0.00810795
-0.0081871
-0.00810789
-0.008187
-0.00810796
-0.00818711
-0.00810791
-0.008187
-0.00800078
-0.00808026
-0.00800086
-0.00808015
-0.00810782
-0.00818715
-0.00818701
-0.00810787
-0.00810798
-0.00818724
-0.00810778
-0.00818713
-0.00810786
-0.00821485
-0.00829415
-0.00821472
-0.00829426
-0.00821493
-0.0082148
-0.00829423
-0.00829402
-0.00829415
-0.00840122
-0.00832189
-0.00840136
-0.00832183
-0.00832183
-0.00840113
-0.00840127
-0.00832202
-0.00832193
-0.00829407
-0.0082149
-0.008215
-0.00829414
-0.00829301
-0.00821566
-0.00822771
-0.00828124
-0.00821593
-0.00829331
-0.00828122
-0.00829301
-0.00821567
-0.0082277
-0.00828126
-0.00821596
-0.00829333
-0.00828123
-0.00832194
-0.0084012
-0.00832193
-0.0084011
-0.00832196
-0.00840119
-0.00832195
-0.00840109
-0.008323
-0.00833484
-0.00840042
-0.00838841
-0.00832274
-0.00833484
-0.00840008
-0.008323
-0.00833487
-0.00840043
-0.00838842
-0.00832276
-0.00833488
-0.00840009
-0.00821497
-0.00821481
-0.00829425
-0.00829403
-0.00829414
-0.00821474
-0.00829425
-0.00840121
-0.00832191
-0.00832185
-0.00840113
-0.00840125
-0.00832204
-0.00832193
-0.00840134
-0.00832182
-0.00829336
-0.00821544
-0.00822769
-0.00828124
-0.00821559
-0.00829354
-0.00828121
-0.0082944
-0.00821472
-0.00821464
-0.00829428
-0.00829337
-0.00822769
-0.00821542
-0.00828125
-0.00821559
-0.00828123
-0.00829355
-0.00832166
-0.00840138
-0.00832181
-0.00840149
-0.00832267
-0.00833485
-0.00840065
-0.00838843
-0.00832257
-0.00833484
-0.00840049
-0.00832168
-0.0084014
-0.00832184
-0.00840148
-0.00832268
-0.00833488
-0.00838845
-0.00840069
-0.00833488
-0.00832258
-0.00840051
-0.00829441
-0.00821473
-0.00821466
-0.00829427
-0.00829342
-0.00822771
-0.00821546
-0.00828127
-0.00821563
-0.00828125
-0.00829356
-0.00829443
-0.00821473
-0.00821468
-0.0082943
-0.00832271
-0.00833484
-0.00840064
-0.00838842
-0.00832258
-0.00833483
-0.0084005
-0.00832169
-0.00840138
-0.00832182
-0.00840149
-0.00832271
-0.00833492
-0.00838847
-0.0084007
-0.0083349
-0.00832258
-0.00840054
-0.00832169
-0.00840143
-0.00832184
-0.00840151
-0.0082148
-0.00821492
-0.00829426
-0.00829417
-0.00829404
-0.00821482
-0.00829418
-0.00840137
-0.00832184
-0.00832186
-0.0084013
-0.00840119
-0.00832194
-0.00832206
-0.0084013
-0.00832194
-0.00829304
-0.00822771
-0.00821567
-0.0082813
-0.00821598
-0.00828124
-0.00829335
-0.00829409
-0.00821485
-0.00821498
-0.00829415
-0.00829409
-0.00821486
-0.00821497
-0.00829415
-0.00832308
-0.00833486
-0.00838843
-0.00840046
-0.00833483
-0.00832281
-0.00840016
-0.00832307
-0.00833494
-0.00838846
-0.00840048
-0.00833489
-0.00832281
-0.00840017
-0.00832201
-0.00840128
-0.00832199
-0.00840117
-0.00832202
-0.00840128
-0.00832198
-0.00840117
-0.00821475
-0.00829428
-0.00821483
-0.00829418
-0.0083219
-0.00840131
-0.00840118
-0.00832192
-0.00832206
-0.0084014
-0.00832185
-0.0084013
-0.00832193
-0.00842894
-0.00850835
-0.00842888
-0.00850851
-0.00842903
-0.00842896
-0.00850846
-0.00850823
-0.00850838
-0.00861559
-0.00853614
-0.00861572
-0.0085361
-0.00853609
-0.00861549
-0.00861563
-0.00853628
-0.0085362
-0.00850824
-0.00842896
-0.00842905
-0.0085083
-0.00850721
-0.00842977
-0.00844187
-0.00849546
-0.00843004
-0.00850752
-0.00849543
-0.0085072
-0.00842976
-0.00844184
-0.00849544
-0.00843005
-0.0085075
-0.00849542
-0.00853617
-0.00861555
-0.00853616
-0.00861547
-0.00853619
-0.00861558
-0.00853618
-0.00861544
-0.00853724
-0.00854912
-0.00861478
-0.00860274
-0.00853699
-0.00854911
-0.00861445
-0.00853724
-0.00854914
-0.0086148
-0.00860274
-0.00853702
-0.00854912
-0.00861446
-0.00842906
-0.00842893
-0.00850846
-0.00850813
-0.0085085
-0.00842888
-0.00850856
-0.00861562
-0.00853615
-0.0085361
-0.00861555
-0.00861561
-0.00853629
-0.00853621
-0.00861573
-0.00853614
-0.00850762
-0.00842961
-0.00844189
-0.00849548
-0.00842977
-0.00850777
-0.00849545
-0.00850866
-0.00842889
-0.00842882
-0.00850854
-0.00850764
-0.00844189
-0.00842962
-0.0084955
-0.00842979
-0.00849548
-0.00850781
-0.00853595
-0.00861575
-0.00853609
-0.00861586
-0.00853696
-0.00854913
-0.00861501
-0.00860276
-0.00853684
-0.00854912
-0.00861485
-0.00853596
-0.00861578
-0.00853612
-0.00861586
-0.00853697
-0.00854918
-0.00860279
-0.00861507
-0.00854917
-0.00853687
-0.00861488
-0.00850868
-0.00842887
-0.00842885
-0.00850855
-0.00850767
-0.00844191
-0.00842965
-0.00849553
-0.0084298
-0.0084955
-0.00850783
-0.00850869
-0.00842892
-0.00842885
-0.00850858
-0.00853699
-0.00854912
-0.00861502
-0.00860276
-0.00853684
-0.00854912
-0.0086149
-0.00853599
-0.00861578
-0.00853613
-0.00861588
-0.00853699
-0.00854921
-0.00860281
-0.00861508
-0.0085492
-0.00853688
-0.00861492
-0.008536
-0.00861581
-0.00853616
-0.0086159
-0.00842898
-0.00842911
-0.00850852
-0.00850843
-0.00850831
-0.00842903
-0.00850846
-0.00861575
-0.00853614
-0.00853616
-0.00861568
-0.00861557
-0.00853624
-0.00853636
-0.00861568
-0.00853624
-0.0085073
-0.00844191
-0.00842987
-0.00849555
-0.00843018
-0.0084955
-0.00850761
-0.00850836
-0.00842905
-0.00842917
-0.00850842
-0.00850836
-0.00842906
-0.00842917
-0.00850843
-0.00853738
-0.00854917
-0.00860278
-0.00861485
-0.00854913
-0.00853711
-0.00861455
-0.00853738
-0.00854924
-0.00860281
-0.00861486
-0.00854919
-0.0085371
-0.00861455
-0.00853631
-0.00861567
-0.00853628
-0.00861557
-0.00853632
-0.00861567
-0.00853629
-0.00861556
-0.00842894
-0.00850858
-0.00842902
-0.00850847
-0.00853619
-0.00861569
-0.00861556
-0.00853625
-0.00853636
-0.00861579
-0.00853617
-0.00861569
-0.00853625
-0.00864334
-0.00872284
-0.00864328
-0.00872296
-0.00864344
-0.00864335
-0.00872291
-0.00872271
-0.00872284
-0.0088301
-0.00875063
-0.00883021
-0.00875055
-0.00875057
-0.00883001
-0.00883012
-0.00875076
-0.00875065
-0.00872273
-0.00864338
-0.00864346
-0.0087228
-0.00872169
-0.00864416
-0.00865626
-0.0087099
-0.00864444
-0.008722
-0.00870988
-0.00872169
-0.00864417
-0.00865624
-0.00870993
-0.00864445
-0.00872202
-0.00870989
-0.00875068
-0.00883007
-0.00875065
-0.00883
-0.0087507
-0.00883011
-0.00875068
-0.00883
-0.00875174
-0.0087636
-0.0088293
-0.00881728
-0.00875148
-0.00876361
-0.00882899
-0.00875175
-0.00876366
-0.00882932
-0.00881729
-0.0087515
-0.00876364
-0.008829
-0.00864348
-0.00864335
-0.00872296
-0.00872272
-0.00872284
-0.00864329
-0.00872296
-0.00883014
-0.00875065
-0.00875061