/*--------------------------------*- C++ -*----------------------------------*\
| =========                 |                                                 |
| \\      /  F ield         | OpenFOAM: The Open Source CFD Toolbox           |
|  \\    /   O peration     | Version:  2206                                  |
|   \\  /    A nd           | Website:  www.openfoam.com                      |
|    \\/     M anipulation  |                                                 |
\*---------------------------------------------------------------------------*/
FoamFile
{
    version     2.0;
    format      ascii;
    arch        "LSB;label=32;scalar=64";
    class       volVectorField;
    location    "50";
    object      U;
}
// * * * * * * * * * * * * * * * * * * * * * * * * * * * * * * * * * * * * * //

dimensions      [0 1 -1 0 0 0 0];

internalField   nonuniform List<vector> 
66928
(
(-0.000206001 -0.000207032 0.12468)
(3.49682e-06 5.03951e-06 0.128492)
(9.25748e-07 9.96714e-07 0.128398)
(2.27454e-06 -7.31329e-07 0.1284)
(-0.000204785 0.000208702 0.124669)
(2.89553e-06 -2.8039e-06 0.128468)
(0.000199586 0.000201223 0.124736)
(-0.000206764 -0.000207513 0.124681)
(-3.2917e-07 1.36349e-06 0.132591)
(3.9994e-07 4.8671e-07 0.132583)
(-1.08912e-05 -1.0878e-05 0.0703306)
(-1.72646e-05 -4.81844e-06 0.0701197)
(-2.90306e-05 -1.12788e-05 0.0956985)
(-1.74053e-05 -2.25079e-05 0.0953206)
(-7.60193e-06 -3.79415e-05 0.081968)
(-3.61511e-05 -3.59432e-05 0.107882)
(-3.96923e-05 -3.38239e-06 0.0815343)
(-5.68438e-05 6.55954e-07 0.105237)
(-4.01239e-05 -3.19025e-05 0.107412)
(-1.4534e-06 -4.85118e-07 0.130211)
(-5.28336e-05 1.35426e-08 0.117205)
(-3.87932e-05 4.21321e-06 0.0815541)
(-5.67881e-05 2.8168e-07 0.105237)
(-1.51316e-06 1.47032e-06 0.13022)
(-4.01756e-05 3.15622e-05 0.107411)
(-5.32331e-05 5.86009e-07 0.117202)
(-1.62324e-05 6.29183e-06 0.0701365)
(-1.70672e-05 2.36451e-05 0.0953384)
(-2.89318e-05 1.35776e-05 0.0957336)
(-1.21002e-05 1.54253e-05 0.070333)
(-3.71723e-05 3.70789e-05 0.107888)
(-1.04755e-05 4.11352e-05 0.0819967)
(9.12987e-06 2.14972e-05 0.0702873)
(-1.37189e-05 -1.20824e-05 0.0703196)
(1.2788e-05 9.17356e-06 0.0701647)
(-1.84151e-05 -4.83633e-06 0.0701237)
(2.74289e-05 2.01398e-05 0.0957793)
(1.50694e-05 2.54583e-05 0.0955169)
(-0.000207438 -0.000207224 0.124681)
(-3.12569e-05 -1.14918e-05 0.0957061)
(-1.8229e-05 -2.23185e-05 0.0953194)
(-1.17577e-05 -1.23989e-05 0.0703159)
(7.50962e-06 1.97204e-05 0.0702781)
(-1.56472e-05 -4.51505e-06 0.0701281)
(1.24135e-05 9.09425e-06 0.0701698)
(0.00019803 0.000200598 0.124737)
(-3.00689e-05 -1.2746e-05 0.0957143)
(-1.80288e-05 -2.21186e-05 0.0953242)
(2.58316e-05 1.89692e-05 0.0957872)
(1.44695e-05 2.55554e-05 0.0955168)
(1.04827e-05 1.91102e-05 0.0702933)
(2.35528e-05 7.1889e-05 0.104763)
(-2.03794e-05 -6.58852e-05 0.113647)
(2.74958e-05 1.81447e-05 0.0957813)
(-1.91872e-05 -1.23795e-05 0.0809341)
(1.81849e-05 1.76511e-05 0.0809521)
(2.55446e-05 7.33169e-05 0.113847)
(-2.23259e-05 -6.81088e-05 0.104549)
(7.38896e-05 1.59625e-05 0.104628)
(-7.11285e-05 -1.77399e-05 0.113405)
(1.60237e-05 2.47937e-05 0.0955239)
(-1.78071e-05 -1.37383e-05 0.0806637)
(1.54158e-05 1.30765e-05 0.0807451)
(7.54145e-05 1.84146e-05 0.113709)
(-7.25255e-05 -1.63305e-05 0.104363)
(1.88985e-05 1.73619e-05 0.0875874)
(-1.95193e-05 -9.67703e-07 0.0689694)
(-8.22986e-06 -1.24605e-05 0.0689132)
(1.58029e-05 6.76095e-06 0.0689884)
(3.96256e-06 1.37606e-05 0.0689508)
(-1.96247e-05 -1.31012e-05 0.0873995)
(9.47717e-06 4.26609e-05 0.0819188)
(-1.06619e-05 -4.48662e-05 0.0941604)
(3.87755e-06 4.60885e-05 0.0941286)
(-1.9943e-06 -1.3147e-05 0.0683784)
(-4.53311e-05 -1.74598e-06 0.0935251)
(-1.58543e-05 2.51929e-06 0.0680717)
(-5.55144e-05 5.94007e-07 0.102514)
(-1.30395e-05 1.18308e-06 0.0778126)
(-1.38717e-05 2.63568e-06 0.0749714)
(-4.43424e-05 3.10955e-06 0.0935388)
(-1.53048e-05 -4.467e-07 0.0680904)
(-1.2837e-05 2.14045e-07 0.0778197)
(-5.59967e-05 5.11901e-07 0.102519)
(-1.38808e-05 -9.55904e-07 0.0749898)
(7.25151e-05 -1.61863e-05 0.104625)
(-7.11509e-05 1.85475e-05 0.11342)
(1.66766e-05 -2.43953e-05 0.0955437)
(-1.64287e-05 1.45429e-05 0.0806756)
(7.4035e-05 -1.94692e-05 0.113723)
(1.57783e-05 -1.22347e-05 0.0807528)
(-7.10346e-05 1.70339e-05 0.104359)
(2.24332e-05 -7.16615e-05 0.104771)
(-1.9797e-05 6.90482e-05 0.113621)
(2.91123e-05 -1.61435e-05 0.0958118)
(-1.92829e-05 1.48043e-05 0.0809728)
(1.66723e-05 -1.63437e-05 0.0809826)
(2.42302e-05 -7.0906e-05 0.11382)
(-2.16795e-05 6.99895e-05 0.104559)
(1.90258e-05 -1.54562e-05 0.0876099)
(-6.7465e-06 1.29574e-05 0.0689326)
(-1.78663e-05 3.51732e-06 0.0689955)
(5.10469e-06 -1.24911e-05 0.0689704)
(1.60157e-05 -4.06818e-06 0.0690091)
(-1.91084e-05 1.44227e-05 0.0874242)
(9.45705e-06 -1.44071e-05 0.07029)
(7.20408e-06 -4.21432e-05 0.0819531)
(-6.61044e-06 4.76414e-05 0.0942245)
(7.03656e-06 -4.63741e-05 0.0942218)
(-8.431e-07 2.09443e-05 0.0683592)
(-1.20171e-05 -7.57605e-06 0.0703248)
(8.15221e-06 2.15671e-05 0.0702808)
(-1.47081e-05 -3.96519e-06 0.0701216)
(1.30641e-05 9.20753e-06 0.0701659)
(1.66603e-05 1.70655e-05 0.0875919)
(-1.98716e-05 -1.83351e-06 0.0689715)
(-8.90845e-06 -1.18038e-05 0.0689178)
(1.49426e-05 7.42175e-06 0.0689878)
(3.56099e-06 1.59182e-05 0.068956)
(-2.07305e-05 -1.32786e-05 0.0874008)
(-2.27982e-05 -6.91113e-05 0.104549)
(2.46472e-05 7.33442e-05 0.113846)
(1.67909e-05 1.96889e-05 0.0809485)
(-3.00002e-05 -1.06259e-05 0.0957036)
(2.26267e-05 7.25019e-05 0.104767)
(-1.83491e-05 -1.22162e-05 0.0809382)
(-2.10789e-05 -6.73746e-05 0.113647)
(-7.43705e-05 -1.52629e-05 0.104362)
(7.42238e-05 1.82945e-05 0.113708)
(1.53898e-05 1.40206e-05 0.0807405)
(-1.76494e-05 -2.18475e-05 0.0953205)
(7.32975e-05 1.64805e-05 0.104632)
(-1.89659e-05 -1.09936e-05 0.0806665)
(-7.36258e-05 -1.71762e-05 0.113406)
(-2.09139e-05 -1.34126e-05 0.087401)
(1.49101e-05 8.80875e-06 0.0689881)
(4.73028e-06 1.55156e-05 0.0689539)
(1.79664e-05 1.7924e-05 0.0875918)
(-1.83875e-05 -1.01767e-06 0.0689708)
(-9.00821e-06 -1.00312e-05 0.0689166)
(2.19094e-05 7.18173e-05 0.104766)
(-2.11427e-05 -1.23114e-05 0.0809391)
(2.65071e-05 1.98874e-05 0.095791)
(-2.20079e-05 -6.64018e-05 0.113647)
(1.70202e-05 1.93066e-05 0.0809555)
(-2.38181e-05 -6.8302e-05 0.104551)
(2.39944e-05 7.2427e-05 0.113847)
(7.1838e-05 1.65901e-05 0.10463)
(-1.89578e-05 -1.29976e-05 0.0806659)
(1.46208e-05 2.56965e-05 0.0955242)
(-7.27557e-05 -1.75457e-05 0.113407)
(1.44538e-05 1.55705e-05 0.0807462)
(-7.39588e-05 -1.58209e-05 0.104363)
(7.29226e-05 1.86008e-05 0.113711)
(8.69696e-06 1.94188e-05 0.0702754)
(-1.26098e-05 -1.0359e-05 0.0703187)
(1.36408e-05 9.0394e-06 0.0701713)
(-1.5414e-05 -3.78056e-06 0.0701279)
(-2.09091e-05 -1.40695e-05 0.0874034)
(1.48946e-05 7.45064e-06 0.0689916)
(4.83977e-06 1.53035e-05 0.06896)
(1.7453e-05 1.74556e-05 0.0875945)
(-1.81909e-05 -2.52225e-06 0.068974)
(-8.24199e-06 -1.11595e-05 0.0689199)
(2.13321e-05 7.10483e-05 0.104768)
(-2.17889e-05 -6.83328e-05 0.113647)
(2.65622e-05 1.84519e-05 0.0957931)
(-1.92403e-05 -1.40442e-05 0.080946)
(1.66963e-05 1.80742e-05 0.0809594)
(2.3668e-05 7.15624e-05 0.113845)
(-2.35637e-05 -6.96088e-05 0.104551)
(7.13128e-05 1.61683e-05 0.104634)
(-7.3697e-05 -1.7495e-05 0.11341)
(1.44124e-05 2.57071e-05 0.0955205)
(-1.8738e-05 -1.18221e-05 0.0806692)
(1.47237e-05 1.53542e-05 0.0807456)
(7.28713e-05 1.88702e-05 0.113712)
(-7.46707e-05 -1.5933e-05 0.104366)
(-2.35079e-05 -6.89833e-05 0.104553)
(1.5583e-05 1.91705e-05 0.0809551)
(2.36739e-05 7.30166e-05 0.113846)
(-3.06156e-05 -1.19805e-05 0.0957108)
(2.13883e-05 7.21467e-05 0.104767)
(-1.92854e-05 -1.27815e-05 0.0809434)
(-2.17226e-05 -6.7465e-05 0.113647)
(-7.51396e-05 -1.59009e-05 0.104366)
(1.47882e-05 1.45742e-05 0.0807442)
(7.32165e-05 1.8483e-05 0.113711)
(-1.82507e-05 -2.17562e-05 0.0953214)
(7.1806e-05 1.6244e-05 0.104632)
(-1.87363e-05 -1.11858e-05 0.080668)
(-7.38827e-05 -1.74349e-05 0.113409)
(1.70922e-05 1.64867e-05 0.0875954)
(-1.8018e-05 -3.7751e-06 0.0689753)
(-7.92854e-06 -1.19626e-05 0.0689203)
(1.56728e-05 5.94412e-06 0.0689917)
(4.76331e-06 1.49991e-05 0.0689595)
(-2.0469e-05 -1.43819e-05 0.0874044)
(7.22957e-05 6.59482e-05 0.115325)
(0.000199979 0.000201481 0.12473)
(-0.000204362 -5.55045e-05 0.120689)
(-5.85324e-05 -0.000203732 0.120585)
(0.000207858 5.96753e-05 0.120825)
(6.09987e-05 0.000202666 0.120767)
(-7.12441e-05 -6.62243e-05 0.115132)
(6.98736e-05 -6.71528e-05 0.11532)
(0.00019889 -0.000198975 0.124722)
(-5.81549e-05 0.000204738 0.120609)
(-0.000199693 5.72385e-05 0.120638)
(6.09931e-05 -0.000205907 0.12079)
(0.000205717 -5.78553e-05 0.120781)
(-6.91323e-05 6.87646e-05 0.115124)
(-7.23181e-05 -6.63481e-05 0.115132)
(0.000207958 6.02631e-05 0.120828)
(6.03537e-05 0.000202862 0.120771)
(-0.000206665 -0.000207066 0.124679)
(7.14143e-05 6.60667e-05 0.115327)
(-0.000204642 -5.61927e-05 0.120688)
(-6.01008e-05 -0.000203078 0.120586)
(6.96262e-05 6.52024e-05 0.115329)
(0.000198128 0.000200255 0.124736)
(-0.000205043 -5.68914e-05 0.120689)
(-6.02844e-05 -0.000202368 0.120588)
(0.000206403 5.90945e-05 0.120827)
(5.87352e-05 0.000202852 0.120773)
(-7.30599e-05 -6.68353e-05 0.115134)
(6.4123e-07 1.76999e-06 0.133892)
(4.90838e-07 -7.16574e-07 0.133909)
(5.29124e-06 0.000240834 0.121392)
(-1.01887e-05 -0.000229307 0.118649)
(3.49012e-05 4.20281e-05 0.10795)
(-1.4661e-05 -4.86835e-05 0.113708)
(1.47092e-05 0.000241133 0.118754)
(1.18915e-05 5.39089e-05 0.113771)
(-3.05214e-06 -0.000237682 0.121369)
(0.000247975 3.1287e-06 0.121311)
(-0.000238966 -1.25308e-05 0.118398)
(4.27991e-05 3.05059e-05 0.107672)
(-5.22217e-05 -9.5016e-06 0.113214)
(0.000247023 1.11896e-05 0.118647)
(5.33006e-05 8.78765e-06 0.113511)
(-0.000251685 -4.90275e-06 0.121106)
(0.000244559 1.08063e-07 0.122629)
(5.7427e-05 -4.99281e-07 0.117541)
(-5.57109e-05 -1.77063e-06 0.116084)
(-0.00023441 1.02324e-06 0.122927)
(5.90827e-05 2.1462e-06 0.116407)
(0.000234614 -1.02324e-06 0.123191)
(-0.000239925 -1.03342e-06 0.122396)
(0.000246352 -3.02564e-06 0.12129)
(-0.000236387 1.2421e-05 0.118386)
(4.23805e-05 -3.0622e-05 0.107672)
(-5.21544e-05 1.08153e-05 0.113205)
(5.31397e-05 -8.11114e-06 0.113501)
(0.000244369 -1.14779e-05 0.118634)
(-0.000246899 5.19702e-06 0.121091)
(0.000239715 5.83393e-08 0.122618)
(5.69917e-05 -1.18362e-07 0.117537)
(-0.000233302 -7.01912e-07 0.122924)
(-5.63222e-05 2.90508e-06 0.116076)
(0.000233633 1.07192e-06 0.123187)
(5.78554e-05 -2.04783e-06 0.116398)
(-0.000241461 1.55459e-06 0.122388)
(5.63188e-06 -0.000238995 0.121393)
(-1.07549e-05 0.000233361 0.118636)
(3.55433e-05 -4.19616e-05 0.107956)
(-1.21803e-05 5.01912e-05 0.113694)
(1.43109e-05 -0.000240073 0.118742)
(1.36153e-05 -5.20617e-05 0.11376)
(-2.06151e-06 0.000243645 0.121359)
(7.02651e-05 6.57209e-05 0.115328)
(0.000198869 0.000201047 0.124732)
(-0.000205469 -5.55073e-05 0.120689)
(-5.97856e-05 -0.000202945 0.120588)
(-7.25425e-05 -6.59938e-05 0.115134)
(0.000207182 5.95939e-05 0.120825)
(5.89997e-05 0.000202824 0.12077)
(-7.33915e-05 -6.67166e-05 0.115134)
(-0.000207296 -0.000207184 0.124682)
(0.000206327 5.98801e-05 0.120828)
(5.92224e-05 0.00020285 0.120773)
(7.01742e-05 6.59313e-05 0.115329)
(-0.000205306 -5.62801e-05 0.120689)
(-6.07555e-05 -0.000202758 0.120588)
(-1.73934e-07 8.89849e-07 0.132585)
(6.06165e-07 2.17603e-06 0.128395)
(5.37278e-06 -1.53929e-06 0.128465)
(-0.000199987 -0.000199865 0.124734)
(-9.85259e-07 4.81555e-07 0.132589)
(1.02671e-06 9.35968e-07 0.128395)
(3.19235e-06 -1.74422e-06 0.128467)
(-0.000199356 -0.000198774 0.124729)
(-1.17217e-06 -1.19541e-06 0.132588)
(4.62858e-07 -5.65025e-07 0.128392)
(2.655e-06 -1.11496e-06 0.128466)
(-0.000199338 -0.000199135 0.124726)
(-6.43172e-07 -1.16749e-06 0.132588)
(2.22364e-07 -1.2395e-06 0.128387)
(3.1539e-06 -1.24791e-06 0.128465)
(-0.00019903 -0.000198805 0.124725)
(-3.52107e-07 -9.0757e-07 0.132587)
(3.59847e-07 -3.81867e-07 0.128383)
(3.14476e-06 -1.35829e-06 0.128464)
(-0.000198546 -0.000198949 0.124726)
(-2.13739e-07 3.40303e-08 0.132586)
(1.37433e-06 1.242e-06 0.128383)
(3.10045e-06 -1.1992e-06 0.128462)
(-0.000198928 -0.000199481 0.124728)
(-2.26306e-07 8.23811e-07 0.132587)
(2.27824e-06 2.14396e-06 0.128385)
(3.48953e-06 -8.73226e-07 0.128461)
(-0.000198901 -0.00019941 0.12473)
(-4.33775e-07 1.0769e-06 0.132587)
(2.37724e-06 2.27595e-06 0.128389)
(3.47937e-06 -1.08951e-06 0.128462)
(-0.000198782 -0.000199237 0.124731)
(-8.24092e-07 1.00731e-06 0.132588)
(1.55299e-06 2.1395e-06 0.128393)
(3.24285e-06 -1.29004e-06 0.128463)
(-0.000199103 -0.000199172 0.124732)
(-1.33567e-06 9.11427e-07 0.132589)
(1.21245e-06 1.19637e-06 0.128395)
(2.9139e-06 -1.1878e-06 0.128465)
(-0.000199498 -0.000198864 0.124733)
(-1.7322e-06 7.58019e-07 0.132589)
(8.70964e-07 1.00258e-06 0.128393)
(2.33946e-06 -1.2404e-06 0.128466)
(-0.000199374 -0.000199235 0.124732)
(-1.72074e-06 6.06936e-07 0.132589)
(1.24606e-06 7.40995e-07 0.128391)
(2.2908e-06 -9.64218e-07 0.128468)
(-0.000198898 -0.00019934 0.124732)
(-1.23881e-06 7.16049e-07 0.132589)
(1.26391e-06 1.18667e-06 0.128391)
(2.6764e-06 -9.63132e-07 0.128469)
(-0.000198869 -0.000199322 0.124732)
(-1.01611e-06 6.30462e-07 0.13259)
(1.24954e-06 1.20076e-06 0.128391)
(3.2312e-06 -1.05133e-06 0.12847)
(-0.00019918 -0.000199495 0.124732)
(-9.06625e-07 1.38128e-07 0.132591)
(1.20908e-06 1.09498e-06 0.128391)
(3.25768e-06 -1.37465e-06 0.12847)
(-0.000199037 -0.000199614 0.124733)
(-7.99029e-07 -3.38806e-07 0.132591)
(1.16865e-06 6.0942e-07 0.128391)
(3.06501e-06 -1.54007e-06 0.12847)
(-0.000198663 -0.000199374 0.124733)
(-1.28788e-06 -1.02182e-06 0.13259)
(1.11228e-06 8.23669e-07 0.128389)
(2.94787e-06 -1.23051e-06 0.128468)
(-0.000198567 -0.000199274 0.124733)
(5.28013e-06 4.09607e-06 0.12849)
(-4.53976e-06 5.36285e-06 0.128491)
(3.08575e-06 4.12751e-06 0.128494)
(-3.62551e-06 4.86944e-06 0.128494)
(-0.000199213 0.00020193 0.124737)
(0.000206352 -0.000207511 0.124684)
(-1.13635e-06 1.7268e-06 0.128396)
(8.66676e-07 -1.65051e-06 0.128397)
(-8.1173e-07 1.09486e-06 0.128398)
(7.40981e-07 -1.43653e-06 0.128398)
(-2.44087e-06 -2.37792e-06 0.128408)
(6.16642e-07 2.52095e-07 0.128395)
(-1.26614e-06 -1.29139e-06 0.128408)
(0.000199196 -0.000198665 0.124725)
(-0.000205594 0.000208407 0.124666)
(-5.03037e-06 -3.87497e-06 0.128481)
(2.33311e-06 -2.2098e-06 0.128467)
(-3.13851e-06 -2.34639e-06 0.128482)
(0.000204736 0.000209833 0.124675)
(0.000198426 0.0001999 0.124735)
(-0.000206671 -0.000210264 0.12468)
(3.57024e-06 3.81265e-06 0.128495)
(-4.37177e-06 4.09427e-06 0.128494)
(2.48895e-06 1.07463e-06 0.128494)
(-3.75772e-06 1.46748e-06 0.128493)
(-0.000198339 0.000200009 0.124737)
(0.000204889 -0.000210651 0.12468)
(-5.24688e-07 1.36125e-06 0.128398)
(3.25425e-07 -1.96252e-06 0.128398)
(-1.29948e-06 -9.38387e-07 0.128396)
(-1.27126e-07 -1.32068e-06 0.128395)
(-8.46766e-07 -1.56612e-06 0.128407)
(4.62783e-07 -1.3582e-06 0.128393)
(-7.81878e-07 -1.19295e-06 0.128403)
(0.000198359 -0.00019862 0.12472)
(-0.000205858 0.000208726 0.124663)
(-3.59821e-06 -1.86533e-06 0.128481)
(1.67303e-06 -1.44824e-06 0.128466)
(-3.06917e-06 -1.3259e-06 0.128477)
(0.000204746 0.000209418 0.124671)
(0.000198643 0.000197233 0.124734)
(-0.000205524 -0.000211356 0.124677)
(3.35544e-06 1.06262e-06 0.128494)
(-4.45256e-06 1.23248e-06 0.128493)
(3.33687e-06 4.05138e-07 0.128492)
(-4.19663e-06 9.41361e-07 0.12849)
(-0.00019954 0.000196868 0.124733)
(0.000205117 -0.000211311 0.124676)
(-1.17412e-06 -5.29176e-07 0.128396)
(-6.40902e-08 -2.15687e-06 0.128393)
(-5.38511e-07 -1.50165e-06 0.128394)
(4.77078e-07 -1.22876e-06 0.128391)
(-9.05667e-07 -1.82031e-06 0.128402)
(-1.72139e-07 -2.13869e-06 0.128388)
(-1.11167e-06 -1.22443e-06 0.128398)
(0.000198203 -0.000198245 0.124718)
(-0.000205368 0.00020891 0.12466)
(-3.71401e-06 -1.43751e-06 0.128477)
(2.1462e-06 -1.5703e-06 0.128465)
(-3.26654e-06 -1.79369e-06 0.128475)
(0.000204953 0.000209698 0.12467)
(0.000199869 0.000196437 0.12473)
(-0.000206055 -0.000210405 0.124675)
(4.23315e-06 5.57564e-07 0.128492)
(-4.87786e-06 8.61676e-07 0.128489)
(3.74073e-06 3.2101e-07 0.128489)
(-4.45727e-06 9.70842e-07 0.128487)
(-0.000199313 0.000196369 0.124729)
(0.000205199 -0.000210331 0.124674)
(-3.22589e-07 -9.03301e-07 0.128394)
(5.58537e-07 -1.97226e-06 0.12839)
(-2.57195e-07 -1.31363e-06 0.128392)
(5.19371e-07 -1.26251e-06 0.128387)
(-8.02921e-07 -1.61347e-06 0.128398)
(-2.07197e-07 -1.62424e-06 0.128384)
(-8.31372e-07 -8.06525e-07 0.128396)
(0.000198408 -0.000198021 0.124715)
(-0.000205693 0.000208456 0.124658)
(-3.62411e-06 -1.77139e-06 0.128474)
(2.32236e-06 -1.81016e-06 0.128465)
(-2.67731e-06 -1.76914e-06 0.128473)
(0.000205631 0.000209786 0.12467)
(0.000199087 0.000197592 0.124729)
(-0.000207286 -0.000208084 0.124675)
(4.3897e-06 1.02056e-06 0.128488)
(-4.95449e-06 1.35726e-06 0.128486)
(3.13008e-06 1.74054e-06 0.128487)
(-3.72388e-06 2.80939e-06 0.128485)
(-0.000199025 0.000197662 0.124727)
(0.000207409 -0.000207142 0.124675)
(-3.20116e-07 -4.46403e-07 0.128392)
(5.15149e-07 -1.9986e-06 0.128387)
(-8.63085e-07 -1.13026e-07 0.12839)
(2.90233e-07 -9.70199e-07 0.128385)
(-5.96236e-07 -1.18759e-06 0.128396)
(6.92457e-07 -3.04234e-07 0.128383)
(-5.74549e-07 -9.65816e-07 0.128396)
(0.00019826 -0.000198584 0.124714)
(-0.000205571 0.000208693 0.124659)
(-2.92475e-06 -1.61598e-06 0.128473)
(2.10637e-06 -1.6396e-06 0.128463)
(-2.23144e-06 -1.51118e-06 0.128474)
(0.000205635 0.000209607 0.124672)
(0.000198005 0.000200106 0.12473)
(-0.000207239 -0.000207052 0.124677)
(3.76149e-06 2.50614e-06 0.128487)
(-3.92176e-06 3.4099e-06 0.128485)
(2.73227e-06 3.18315e-06 0.128486)
(-1.99748e-06 4.3802e-06 0.128485)
(-0.000196935 0.000201089 0.124729)
(0.000208009 -0.000206663 0.124679)
(-8.87686e-07 1.00016e-06 0.12839)
(3.03679e-07 -1.55241e-06 0.128385)
(-1.0904e-06 1.20789e-06 0.12839)
(7.58954e-07 -3.23899e-07 0.128385)
(-2.46445e-07 -1.36263e-06 0.128397)
(1.64321e-06 1.01619e-06 0.128385)
(-4.25428e-07 -9.51945e-07 0.128398)
(0.000198399 -0.000198245 0.124714)
(-0.000204892 0.000209039 0.124662)
(-2.67706e-06 -1.39822e-06 0.128474)
(2.5406e-06 -1.22994e-06 0.128461)
(-2.17676e-06 -1.35975e-06 0.128476)
(0.000205918 0.000209941 0.124674)
(0.000198404 0.00020092 0.124732)
(-0.00020682 -0.000207366 0.124678)
(3.43843e-06 3.60104e-06 0.128486)
(-2.36882e-06 4.50522e-06 0.128486)
(2.62781e-06 3.70386e-06 0.128486)
(-1.58262e-06 4.72244e-06 0.128486)
(-0.000196594 0.000201156 0.124733)
(0.000207985 -0.000206789 0.124682)
(-8.42554e-07 2.18367e-06 0.128391)
(8.3652e-07 -9.54631e-07 0.128386)
(-8.93651e-07 1.77836e-06 0.128391)
(9.12004e-07 -3.76417e-08 0.128387)
(-9.11458e-08 -1.27503e-06 0.128399)
(2.02211e-06 1.19167e-06 0.128388)
(-2.75026e-07 -8.61055e-07 0.128401)
(0.000199082 -0.000197916 0.124717)
(-0.000205253 0.000209165 0.124665)
(-2.57035e-06 -1.23e-06 0.128477)
(2.56758e-06 -1.28562e-06 0.128461)
(-2.22822e-06 -1.39024e-06 0.128477)
(0.00020587 0.000210025 0.124675)
(0.000198926 0.000200637 0.124732)
(-0.000206489 -0.000207832 0.124678)
(3.37335e-06 3.94945e-06 0.128486)
(-2.27936e-06 4.77866e-06 0.128487)
(2.85756e-06 3.60216e-06 0.128487)
(-2.35322e-06 4.40984e-06 0.128487)
(-0.00019699 0.000201214 0.124736)
(0.000206404 -0.000208019 0.124683)
(-6.56431e-07 2.65538e-06 0.128392)
(8.12001e-07 -7.95307e-07 0.128388)
(-6.52366e-07 1.81678e-06 0.128393)
(7.17341e-07 -3.30676e-07 0.12839)
(6.40794e-09 -1.22622e-06 0.128402)
(1.35846e-06 1.2553e-06 0.128392)
(-4.43087e-07 -6.25212e-07 0.128403)
(0.000198901 -0.00019825 0.12472)
(-0.000205594 0.000208812 0.124668)
(-2.57656e-06 -1.19253e-06 0.128478)
(2.52444e-06 -1.7925e-06 0.128463)
(-2.32482e-06 -1.4181e-06 0.128479)
(0.000205727 0.000210122 0.124677)
(0.000199479 0.00020048 0.124732)
(-0.000206818 -0.000208363 0.124677)
(3.78767e-06 3.68104e-06 0.128487)
(-3.26229e-06 4.35309e-06 0.128488)
(2.96635e-06 3.25532e-06 0.128487)
(-3.35056e-06 3.85764e-06 0.128488)
(-0.000198599 0.000200021 0.124736)
(0.000206204 -0.000208501 0.124683)
(-3.7891e-07 2.45637e-06 0.128393)
(6.37216e-07 -1.09094e-06 0.128391)
(-6.6416e-07 1.32066e-06 0.128393)
(4.03346e-07 -5.7012e-07 0.128394)
(-2.93706e-07 -1.01391e-06 0.128404)
(8.88615e-07 3.28904e-07 0.128395)
(-6.73966e-07 -6.1675e-07 0.128405)
(0.000198852 -0.000198727 0.124723)
(-0.000205898 0.000208955 0.124669)
(-2.84482e-06 -1.32126e-06 0.12848)
(2.20071e-06 -1.80082e-06 0.128464)
(-2.66488e-06 -1.27658e-06 0.128481)
(0.000205294 0.00021046 0.124678)
(0.000199042 0.000199883 0.124731)
(-0.000207382 -0.000208853 0.124679)
(3.50224e-06 3.15719e-06 0.128488)
(-4.16011e-06 3.5878e-06 0.128488)
(2.38889e-06 2.70422e-06 0.128487)
(-3.89134e-06 3.09894e-06 0.128487)
(-0.00019876 0.000199549 0.124736)
(0.000205405 -0.000209071 0.124682)
(-5.6866e-07 1.89961e-06 0.128394)
(2.52608e-07 -1.2737e-06 0.128396)
(-9.40054e-07 8.93835e-07 0.128395)
(1.09654e-07 -5.51703e-07 0.128397)
(-5.45887e-07 -1.04347e-06 0.128405)
(4.66101e-07 -6.36749e-08 0.128394)
(-7.2001e-07 -5.82985e-07 0.128405)
(0.000198552 -0.000198566 0.124725)
(-0.000206385 0.000208947 0.124672)
(-3.26334e-06 -1.06e-06 0.128482)
(1.46078e-06 -1.54309e-06 0.128466)
(-3.10761e-06 -1.21165e-06 0.128482)
(0.000205257 0.000210227 0.124677)
(0.000198766 0.000199774 0.124733)
(-0.00020713 -0.00020844 0.12468)
(3.11572e-06 2.80911e-06 0.128488)
(-4.56704e-06 3.07959e-06 0.128486)
(2.4041e-06 2.52185e-06 0.128487)
(-3.70713e-06 3.0723e-06 0.128485)
(-0.000199233 0.000198828 0.124735)
(0.000206591 -0.000208362 0.124681)
(-9.40279e-07 1.45427e-06 0.128396)
(-3.38677e-07 -1.21844e-06 0.128398)
(-1.34687e-06 7.21757e-07 0.128397)
(-2.4185e-07 -7.4184e-07 0.1284)
(-5.21114e-07 -1.1164e-06 0.128405)
(7.24757e-07 -4.40339e-07 0.128392)
(-4.86659e-07 -5.93819e-07 0.128406)
(0.000198105 -0.000198653 0.124728)
(-0.000206472 0.000209033 0.124674)
(-3.49815e-06 -1.13311e-06 0.128482)
(1.47e-06 -1.49042e-06 0.128467)
(-2.81328e-06 -1.31617e-06 0.128481)
(0.000205668 0.000209871 0.124677)
(0.000198795 0.000199883 0.124734)
(-0.00020705 -0.000208581 0.124679)
(3.16787e-06 2.60191e-06 0.128488)
(-4.19802e-06 3.11421e-06 0.128484)
(2.72797e-06 2.41661e-06 0.128486)
(-3.12618e-06 3.15083e-06 0.128483)
(-0.000197923 0.000199514 0.124735)
(0.000206371 -0.00020843 0.124681)
(-1.19945e-06 1.40203e-06 0.128398)
(-3.09544e-07 -1.34321e-06 0.128401)
(-1.15258e-06 7.54256e-07 0.128398)
(2.69586e-08 -6.62694e-07 0.128401)
(-1.64448e-07 -1.20165e-06 0.128405)
(8.83397e-07 8.23987e-08 0.128391)
(-2.76582e-07 -7.83723e-07 0.128406)
(0.00019797 -0.000198367 0.124729)
(-0.000205876 0.000209151 0.124673)
(-3.2749e-06 -1.33044e-06 0.128481)
(1.69917e-06 -1.22864e-06 0.128468)
(-2.4807e-06 -1.46269e-06 0.12848)
(0.00020578 0.00020994 0.124677)
(0.00019918 0.000200002 0.124733)
(-0.000206759 -0.000208904 0.124679)
(3.64058e-06 2.69952e-06 0.128487)
(-3.76893e-06 3.15797e-06 0.128482)
(2.9995e-06 2.59458e-06 0.128485)
(-3.19613e-06 3.36237e-06 0.128482)
(-0.000198286 0.000199493 0.124734)
(0.000206712 -0.000208018 0.124681)
(-9.75317e-07 1.65975e-06 0.128399)
(1.18988e-08 -1.41981e-06 0.128402)
(-6.46603e-07 9.06382e-07 0.128399)
(5.32661e-07 -7.45901e-07 0.128401)
(-1.08125e-07 -1.38119e-06 0.128405)
(9.05246e-07 -3.15918e-08 0.128392)
(-4.1655e-07 -9.94221e-07 0.128406)
(0.000198636 -0.000198327 0.124728)
(-0.000205552 0.000209204 0.124672)
(-2.91769e-06 -1.3273e-06 0.12848)
(2.34026e-06 -1.34042e-06 0.128469)
(-2.42207e-06 -1.28347e-06 0.128481)
(0.000205654 0.000209946 0.124677)
(0.000199503 0.000199718 0.124732)
(-0.000206778 -0.000209055 0.12468)
(3.72405e-06 2.8354e-06 0.128486)
(-3.88442e-06 3.34844e-06 0.128482)
(2.8912e-06 2.40835e-06 0.128486)
(-3.53842e-06 3.36889e-06 0.128482)
(-0.000198008 0.00019994 0.124734)
(0.000205925 -0.000208655 0.12468)
(-4.70726e-07 1.5616e-06 0.1284)
(3.02164e-07 -1.37154e-06 0.128402)
(-6.8682e-07 2.64539e-07 0.1284)
(3.96721e-07 -8.87285e-07 0.128401)
(-3.67497e-07 -1.51128e-06 0.128407)
(8.25488e-07 1.20739e-07 0.128392)
(-4.38167e-07 -1.05003e-06 0.128407)
(0.000198927 -0.000198472 0.124727)
(-0.000205612 0.000208712 0.124672)
(-2.92683e-06 -1.32463e-06 0.12848)
(2.46999e-06 -1.59495e-06 0.128469)
(-2.51614e-06 -1.5878e-06 0.128481)
(0.000205689 0.00020976 0.124677)
(0.000199375 0.000199364 0.124733)
(-0.000206761 -0.000209367 0.12468)
(3.79574e-06 2.52771e-06 0.128487)
(-4.24492e-06 3.22226e-06 0.128481)
(2.94437e-06 1.71479e-06 0.128487)
(-3.99268e-06 2.8759e-06 0.128482)
(-0.000198839 0.000199207 0.124733)
(0.000205782 -0.00020872 0.12468)
(-6.23475e-07 9.76423e-07 0.128401)
(3.43905e-07 -1.783e-06 0.128401)
(-8.77379e-07 -1.60658e-07 0.1284)
(2.36788e-07 -1.22512e-06 0.1284)
(-3.79447e-07 -1.63123e-06 0.128407)
(7.97327e-07 -5.51374e-07 0.128391)
(-5.08865e-07 -1.14736e-06 0.128407)
(0.000198658 -0.000198779 0.124726)
(-0.000205689 0.000208371 0.124671)
(-3.01044e-06 -1.49297e-06 0.128481)
(2.34996e-06 -1.7569e-06 0.128469)
(-2.46853e-06 -1.77093e-06 0.128481)
(0.000205454 0.000209392 0.124677)
(0.000199046 0.000198763 0.124734)
(-0.000206782 -0.000209337 0.124681)
(3.78209e-06 2.08287e-06 0.128488)
(-4.46305e-06 2.67219e-06 0.128481)
(3.09272e-06 1.82803e-06 0.128488)
(-4.21293e-06 2.68369e-06 0.128482)
(-0.000198628 0.000198978 0.124734)
(0.000205208 -0.000209154 0.124679)
(-6.21159e-07 5.28169e-07 0.128401)
(1.63439e-07 -2.06482e-06 0.1284)
(-7.53591e-07 -1.24845e-07 0.1284)
(6.23085e-07 -1.35245e-06 0.128399)
(-1.42184e-07 -1.65033e-06 0.128407)
(3.18392e-07 -7.76595e-07 0.12839)
(-2.35653e-07 -9.71353e-07 0.128407)
(0.000198061 -0.00019866 0.124726)
(-0.000205508 0.000208203 0.124672)
(-2.93539e-06 -1.61729e-06 0.128481)
(2.26042e-06 -2.25858e-06 0.128469)
(-2.43131e-06 -1.74529e-06 0.12848)
(0.000205737 0.000209511 0.124678)
(0.00019916 0.000198949 0.124734)
(3.77918e-06 1.48031e-06 0.12849)
(-3.86579e-06 2.21492e-06 0.128482)
(-0.000198908 0.000198723 0.124732)
(-1.11602e-06 5.0887e-07 0.128401)
(4.18227e-08 -1.90307e-06 0.1284)
(5.7162e-08 -1.54501e-06 0.128407)
(-1.39525e-06 -9.33776e-07 0.128408)
(0.000198113 -0.000198998 0.124725)
(-2.95284e-06 -1.44721e-06 0.12848)
(-2.85646e-06 -2.77687e-06 0.128481)
(0.000204734 0.000209015 0.124679)
(-6.29335e-07 -5.8126e-05 0.106025)
(9.12587e-06 4.61823e-05 0.0819222)
(7.4557e-07 6.33092e-05 0.10607)
(-1.03069e-05 -3.75052e-05 0.0819697)
(-8.0334e-06 2.17355e-05 0.0702963)
(1.28984e-05 -1.18869e-05 0.0703326)
(-5.86683e-05 6.89971e-07 0.105239)
(3.87972e-05 4.9432e-06 0.0816349)
(5.87744e-05 1.16179e-07 0.105581)
(-4.15558e-05 -3.16988e-06 0.0815364)
(1.18273e-06 1.38829e-06 0.132585)
(2.18116e-06 8.30026e-07 0.132581)
(-1.04134e-06 1.0801e-06 0.132591)
(-1.33979e-06 6.0671e-07 0.132588)
(7.9223e-07 1.13238e-06 0.132588)
(-6.86907e-08 -3.24118e-07 0.132584)
(-3.40333e-07 -5.68886e-08 0.132592)
(5.55576e-05 -4.4939e-07 0.117206)
(-4.15409e-05 3.1483e-05 0.107682)
(2.0004e-06 -7.3528e-08 0.130203)
(1.26689e-06 9.23684e-07 0.128396)
(4.18859e-05 -3.29465e-05 0.107423)
(2.68783e-06 -9.54971e-07 0.130204)
(-5.66956e-05 -4.88653e-07 0.117543)
(1.37682e-05 -7.39509e-06 0.0701819)
(-1.71028e-05 6.57544e-06 0.070138)
(-1.37183e-06 5.43182e-05 0.117666)
(5.74563e-07 -4.12814e-06 0.130327)
(3.5449e-05 -4.21607e-05 0.107953)
(2.43432e-06 -1.8782e-06 0.128466)
(-1.42639e-06 -2.47945e-06 0.13033)
(-3.67451e-05 3.83042e-05 0.107886)
(6.08427e-07 -5.83416e-05 0.117734)
(-1.61213e-05 -2.38058e-05 0.0955672)
(-2.94768e-05 -1.60773e-05 0.095773)
(0.000206474 0.000210762 0.124678)
(1.73524e-05 2.35869e-05 0.0953683)
(2.85255e-05 1.52897e-05 0.095692)
(-9.25311e-07 -6.15364e-05 0.106035)
(6.88486e-06 4.41187e-05 0.0819258)
(-9.77663e-08 6.32924e-05 0.10608)
(-8.49156e-06 -4.11395e-05 0.0819735)
(-9.48187e-06 1.77834e-05 0.0702829)
(9.58359e-06 -1.71277e-05 0.0703307)
(-5.95608e-05 -2.93081e-07 0.105241)
(3.79899e-05 4.35374e-06 0.0816394)
(5.72551e-05 -7.36446e-07 0.105581)
(-4.0904e-05 -3.99341e-06 0.0815467)
(9.18192e-07 7.6499e-07 0.132589)
(-9.27125e-08 6.23375e-08 0.132585)
(-3.2321e-07 -1.02198e-07 0.132592)
(-1.44842e-06 -1.26053e-06 0.132589)
(3.55924e-07 -1.00215e-06 0.132586)
(-7.33462e-07 -3.77333e-07 0.132582)
(-3.28346e-07 -3.1153e-07 0.132588)
(5.51623e-05 -1.1289e-06 0.1172)
(-4.04312e-05 2.94003e-05 0.107683)
(2.01208e-06 -1.44314e-06 0.130202)
(1.22108e-06 -5.24527e-07 0.128396)
(-5.6217e-05 -8.89989e-07 0.11754)
(4.13421e-05 -3.40315e-05 0.107424)
(2.39917e-06 -2.2492e-06 0.130203)
(1.34248e-05 -7.48701e-06 0.0701879)
(-1.68719e-05 6.25535e-06 0.0701472)
(-2.15536e-06 5.56486e-05 0.117665)
(-1.75177e-06 -2.45896e-06 0.130327)
(3.48272e-05 -4.05453e-05 0.107954)
(1.87113e-06 -1.2727e-06 0.128468)
(3.77613e-08 -5.72739e-05 0.117732)
(-2.73531e-06 -1.63299e-06 0.130328)
(-3.70419e-05 3.92898e-05 0.107887)
(-1.61317e-05 -2.37142e-05 0.0955652)
(-2.95973e-05 -1.43193e-05 0.0957724)
(0.00020591 0.000210805 0.124674)
(1.76327e-05 2.37071e-05 0.0953669)
(2.80411e-05 1.62269e-05 0.095694)
(-6.64245e-07 -6.56606e-05 0.106049)
(1.08251e-05 3.87382e-05 0.0819358)
(1.05247e-07 5.79359e-05 0.106092)
(-4.72151e-06 -4.52431e-05 0.0819908)
(-1.38918e-05 1.32933e-05 0.0702914)
(5.77149e-06 -2.12094e-05 0.0703424)
(-5.86808e-05 -1.14409e-06 0.105242)
(3.9176e-05 2.23311e-06 0.0816513)
(5.73798e-05 -1.81992e-06 0.105583)
(-3.9612e-05 -5.7459e-06 0.0815551)
(1.99975e-07 -9.19335e-07 0.132587)
(-3.72944e-07 -3.50137e-07 0.132583)
(-6.15362e-07 -5.05773e-07 0.132588)
(-8.70607e-07 -1.36484e-06 0.132588)
(-1.84074e-07 -1.23148e-06 0.132585)
(-2.21075e-07 -6.11081e-07 0.132581)
(-6.73216e-07 -5.38295e-07 0.132585)
(5.41634e-05 -1.61541e-06 0.117195)
(-4.15625e-05 2.82097e-05 0.107681)
(1.91181e-06 -2.06253e-06 0.130198)
(4.94156e-08 -1.64892e-06 0.128392)
(-5.65716e-05 -1.40521e-06 0.117533)
(3.97349e-05 -3.57935e-05 0.107419)
(1.65755e-06 -2.53253e-06 0.130199)
(1.36339e-05 -6.97957e-06 0.0701978)
(-1.62184e-05 6.92678e-06 0.0701542)
(-1.53865e-06 5.56047e-05 0.117663)
(-2.16112e-06 -1.7125e-06 0.130326)
(3.47677e-05 -3.93356e-05 0.107953)
(1.85719e-06 -1.33459e-06 0.128467)
(2.60508e-07 -5.61326e-05 0.117731)
(-2.46752e-06 -2.01952e-06 0.130326)
(-3.66401e-05 4.03976e-05 0.107887)
(-1.65346e-05 -2.36237e-05 0.0955637)
(-2.98859e-05 -1.43228e-05 0.0957728)
(0.000205253 0.00020999 0.124671)