/*--------------------------------*- C++ -*----------------------------------*\
| =========                 |                                                 |
| \\      /  F ield         | OpenFOAM: The Open Source CFD Toolbox           |
|  \\    /   O peration     | Version:  2206                                  |
|   \\  /    A nd           | Website:  www.openfoam.com                      |
|    \\/     M anipulation  |                                                 |
\*---------------------------------------------------------------------------*/
FoamFile
{
    version     2.0;
    format      ascii;
    arch        "LSB;label=32;scalar=64";
    class       volVectorField;
    location    "50";
    object      wallShearStress;
}
// * * * * * * * * * * * * * * * * * * * * * * * * * * * * * * * * * * * * * //

dimensions      [0 2 -2 0 0 0 0];

internalField   uniform (0 0 0);

boundaryField
{
    topPatch
    {
        type            calculated;
        value           nonuniform List<vector> 0();
    }
    wall
    {
        type            calculated;
        value           nonuniform List<vector> 
7746
(
(5.01897e-08 -1.90818e-08 -0.000133185)
(1.48072e-08 -1.65066e-08 -0.000133127)
(4.96139e-08 -9.26297e-09 -0.000125204)
(1.26348e-08 -6.20035e-09 -0.000125108)
(5.12361e-09 -2.18482e-09 -0.000125137)
(7.84653e-09 5.87238e-10 -0.000133153)
(1.79526e-08 4.58788e-11 -0.000133099)
(2.02841e-08 -1.84887e-09 -0.000125081)
(1.73988e-08 -2.11e-08 -0.000133003)
(2.63019e-08 -4.896e-09 -0.000133121)
(2.48849e-09 -1.85005e-08 -0.000133034)
(1.08561e-08 -2.54895e-09 -0.000133147)
(7.69365e-09 3.26242e-09 -0.000133067)
(-8.46102e-09 -5.27591e-09 -0.000132932)
(4.84458e-09 3.64306e-09 -0.000133141)
(-2.20479e-09 -8.74872e-09 -0.000133059)
(1.7177e-08 -2.12866e-08 -0.000133023)
(1.05327e-08 -1.11857e-08 -0.000124957)
(1.25451e-08 7.80025e-10 -0.000125752)
(-6.04737e-09 5.412e-09 -0.000125582)
(2.2909e-08 9.59525e-09 -0.00013255)
(-1.89342e-08 -4.62798e-09 -0.00013242)
(-9.7666e-09 4.43175e-09 -0.00013291)
(-1.16792e-08 4.74655e-09 -0.000124835)
(3.85377e-08 -1.3862e-08 -0.00013315)
(3.41777e-09 -1.23417e-08 -0.000132948)
(1.13872e-08 -7.84452e-09 -0.000133131)
(-8.64102e-12 -1.30828e-08 -0.000133036)
(-1.77465e-08 -6.76675e-10 -0.000132894)
(1.46293e-08 2.85714e-10 -0.000133087)
(-4.84237e-09 -5.17872e-09 -0.000133048)
(7.64269e-09 -6.46904e-10 -0.000133141)
(1.76444e-08 -1.96077e-08 -0.000124945)
(2.95933e-08 -7.30755e-10 -0.000125111)
(-1.9968e-08 -2.27318e-08 -0.000133014)
(-2.2256e-08 -3.57777e-09 -0.00013314)
(-3.35758e-09 -1.84637e-08 -0.000124988)
(1.0971e-08 4.61752e-10 -0.00012513)
(-4.20996e-09 8.93083e-09 -0.000133063)
(9.64037e-09 -2.94036e-10 -0.000133167)
(-2.27882e-08 -4.19516e-09 -0.000124801)
(4.23094e-09 9.94153e-09 -0.000125031)
(2.31838e-08 1.43381e-09 -0.000132903)
(1.09863e-09 9.98386e-09 -0.000133088)
(-9.84811e-09 -2.80167e-09 -0.000125008)
(5.26669e-09 1.1734e-08 -0.000125143)
(-3.823e-09 8.82196e-09 -0.000133078)
(8.01407e-09 -3.41289e-10 -0.000133188)
(-2.94801e-08 6.92314e-10 -0.000124813)
(2.42864e-09 1.05103e-08 -0.000125068)
(3.32651e-08 8.39074e-09 -0.000132911)
(5.12004e-09 1.21282e-08 -0.000133115)
(-9.36517e-09 -4.87577e-10 -0.000125026)
(6.11985e-09 8.47352e-09 -0.000125156)
(-5.03466e-09 5.00098e-09 -0.000133105)
(5.74802e-09 -3.01876e-09 -0.000133206)
(-2.84828e-08 4.75807e-10 -0.00012487)
(9.9182e-09 7.5658e-09 -0.000125118)
(2.3038e-08 3.70183e-09 -0.000132952)
(-1.0609e-08 4.43723e-09 -0.000133154)
(-7.8145e-09 -3.88531e-09 -0.000125037)
(7.34647e-09 3.96884e-09 -0.000125158)
(-4.84901e-09 6.01775e-09 -0.000133123)
(5.65182e-09 -2.73353e-09 -0.000133218)
(-1.22382e-08 -6.59621e-09 -0.000124904)
(2.49452e-08 8.2472e-10 -0.000125146)
(1.23589e-08 -2.8989e-09 -0.00013298)
(-1.8753e-08 -9.41183e-10 -0.000133173)
(-4.50488e-09 -1.11514e-08 -0.00012504)
(8.69328e-09 -2.05767e-09 -0.000125163)
(-5.08597e-09 4.51638e-09 -0.000133126)
(5.46903e-09 -4.11895e-09 -0.000133218)
(-8.93422e-09 -7.84439e-09 -0.00012491)
(2.02262e-08 3.34543e-09 -0.000125135)
(1.23155e-09 -7.89634e-09 -0.000132988)
(-2.46058e-08 -3.30486e-09 -0.000133168)
(-4.53405e-09 -1.23216e-08 -0.000125048)
(1.10701e-08 -1.23858e-09 -0.000125174)
(-6.02451e-09 2.20998e-09 -0.000133123)
(5.5276e-09 -5.62381e-09 -0.000133212)
(-1.47248e-08 -5.18444e-09 -0.000124892)
(1.69403e-08 5.33506e-09 -0.00012512)
(1.08225e-08 -3.77266e-09 -0.000132969)
(-1.29993e-08 2.19681e-09 -0.000133153)
(-5.57823e-09 -1.00498e-08 -0.00012505)
(9.96983e-09 1.70405e-09 -0.000125174)
(-6.56223e-09 2.46694e-09 -0.000133114)
(5.5008e-09 -4.45575e-09 -0.000133201)
(-1.81789e-08 -4.15806e-09 -0.000124879)
(1.41659e-08 6.57626e-09 -0.000125109)
(1.35208e-08 -2.0737e-09 -0.000132966)
(-1.44437e-08 2.06827e-09 -0.000133155)
(-5.48671e-09 -8.16792e-09 -0.00012505)
(8.05692e-09 4.72132e-09 -0.000125174)
(-3.60812e-09 6.33231e-09 -0.000133104)
(7.568e-09 -1.35735e-09 -0.000133194)
(-1.50503e-08 -6.90873e-09 -0.000124872)
(1.81716e-08 4.66137e-09 -0.000125104)
(1.71207e-08 -7.09655e-10 -0.000132968)
(-9.6454e-09 5.21603e-09 -0.000133154)
(-7.17137e-09 -5.62948e-09 -0.000125055)
(7.14764e-09 7.45848e-09 -0.00012517)
(-4.57143e-09 6.95443e-09 -0.000133102)
(8.4461e-09 -2.14716e-09 -0.000133195)
(-1.56147e-08 -5.72708e-09 -0.000124864)
(1.61927e-08 6.40639e-09 -0.0001251)
(1.481e-08 -2.07286e-09 -0.000132957)
(-1.31951e-08 2.20701e-09 -0.000133145)
(-7.01503e-09 -6.57795e-09 -0.000125039)
(8.48456e-09 3.0665e-09 -0.000125159)
(-4.81115e-09 5.87633e-09 -0.000133093)
(8.2759e-09 6.92643e-10 -0.000133182)
(-1.64316e-08 -4.17955e-09 -0.000124862)
(1.88538e-08 4.91374e-09 -0.000125093)
(1.90311e-08 8.50285e-10 -0.000132953)
(-9.86853e-09 4.23006e-09 -0.000133129)
(-5.49054e-09 -8.6751e-09 -0.000125031)
(8.36535e-09 1.56693e-09 -0.000125145)
(-3.65672e-09 7.96161e-09 -0.00013308)
(6.06977e-09 -2.33816e-09 -0.00013317)
(-1.5806e-08 -4.64717e-09 -0.000124858)
(1.45265e-08 6.29314e-09 -0.000125089)
(1.13142e-08 -3.76712e-09 -0.000132938)
(-1.77519e-08 2.95091e-10 -0.000133126)
(-5.27643e-09 -8.9787e-09 -0.000125024)
(9.39292e-09 1.68419e-09 -0.000125142)
(-4.61717e-09 4.9887e-09 -0.000133082)
(6.38574e-09 -4.71763e-09 -0.000133179)
(-1.70299e-08 -3.48533e-09 -0.000124855)
(1.39363e-08 5.67928e-09 -0.000125088)
(1.36184e-08 -1.96272e-09 -0.00013294)
(-1.19195e-08 3.26479e-09 -0.000133132)
(-5.74025e-09 -7.09838e-09 -0.000125018)
(7.76847e-09 4.42284e-09 -0.000125145)
(-4.36203e-09 4.24843e-09 -0.00013309)
(5.91879e-09 -2.81531e-09 -0.000133181)
(-1.53496e-08 -5.43408e-09 -0.000124846)
(1.75565e-08 4.52749e-09 -0.000125069)
(1.07489e-08 -3.40353e-09 -0.000132944)
(-1.63613e-08 -4.48275e-10 -0.000133127)
(-7.71993e-09 -5.43597e-09 -0.00012502)
(9.53089e-09 3.75547e-09 -0.000125139)
(-4.9536e-09 4.80729e-09 -0.000133084)
(7.95287e-09 -8.27473e-10 -0.000133175)
(-1.36985e-08 -5.85086e-09 -0.000124829)
(1.8663e-08 4.28984e-09 -0.000125056)
(1.46397e-08 -1.48557e-09 -0.000132933)
(-1.19722e-08 3.83541e-09 -0.000133115)
(-6.46546e-09 -7.98859e-09 -0.000125009)
(7.82618e-09 5.40403e-09 -0.000125128)
(-3.62396e-09 7.6605e-09 -0.000133072)
(8.96727e-09 7.30091e-10 -0.000133167)
(-1.6371e-08 -3.75565e-09 -0.00012482)
(1.5549e-08 5.42104e-09 -0.000125048)
(1.30101e-08 -2.59408e-09 -0.000132912)
(-1.56161e-08 1.55304e-09 -0.000133095)
(-5.93977e-09 -4.95405e-09 -0.000125003)
(7.99156e-09 2.89694e-09 -0.00012512)
(-4.04977e-09 5.06052e-09 -0.000133062)
(6.40771e-09 -1.623e-09 -0.000133156)
(-1.62852e-08 -4.47802e-09 -0.000124831)
(1.56815e-08 5.23178e-09 -0.000125069)
(1.35343e-08 -2.63559e-09 -0.000132912)
(-1.05419e-08 4.35002e-09 -0.000133101)
(-6.97675e-09 -7.50681e-09 -0.000125007)
(9.40544e-09 4.03503e-09 -0.000125141)
(-3.48216e-09 6.82779e-09 -0.00013306)
(9.27025e-09 2.15712e-09 -0.000133162)
(-1.77854e-08 -2.01682e-08 -0.000124976)
(-2.59185e-08 8.12327e-10 -0.000125131)
(1.35812e-08 4.98832e-09 -0.000125037)
(-8.03843e-09 -8.389e-09 -0.00012486)
(-1.0638e-08 5.02429e-09 -0.000125068)
(1.07458e-08 -8.39273e-09 -0.000124881)
(-7.63272e-10 -1.85155e-08 -0.000133044)
(-7.61963e-09 1.28146e-09 -0.00013315)
(-8.96013e-09 3.17003e-09 -0.000133096)
(7.07673e-09 -6.28293e-09 -0.000132945)
(-5.73526e-09 2.34373e-09 -0.000133152)
(2.38991e-09 -9.07835e-09 -0.00013306)
(-5.36694e-09 9.3797e-09 -0.000125023)
(8.6381e-09 -2.58621e-09 -0.000125156)
(5.98388e-09 8.5329e-09 -0.000125124)
(-5.50621e-09 -9.80674e-09 -0.000125012)
(6.34198e-09 -3.8189e-09 -0.000125153)
(-4.89949e-09 8.86807e-09 -0.000125046)
(2.91475e-09 -1.92367e-08 -0.000125007)
(-8.13922e-09 3.00557e-09 -0.000125139)
(6.31223e-09 9.91242e-09 -0.000125013)
(-9.06316e-09 -1.84469e-09 -0.00012514)
(-5.65024e-09 7.2559e-09 -0.00012514)
(6.15667e-09 -7.79757e-09 -0.000125019)
(-8.0564e-09 -1.60691e-09 -0.000125144)
(5.37899e-09 9.20578e-09 -0.000125024)
(-1.48459e-08 2.71808e-09 -0.000132914)
(1.44731e-08 -2.92046e-09 -0.000133099)
(8.14217e-09 1.07759e-09 -0.000133166)
(-3.11697e-09 8.54664e-09 -0.000133082)
(1.35701e-08 -5.84593e-10 -0.000133091)
(-1.5232e-08 6.52706e-10 -0.000132921)
(-1.47472e-08 5.7241e-09 -0.000124846)
(1.77812e-08 -5.33195e-09 -0.000125076)
(1.28167e-08 5.52802e-09 -0.00012485)
(-1.73196e-08 -4.2019e-09 -0.000125078)
(1.89333e-08 -3.37669e-09 -0.000125066)
(-1.57657e-08 4.95219e-09 -0.000124845)
(-1.53169e-08 -3.97893e-09 -0.000125077)
(1.54532e-08 4.04654e-09 -0.000124852)
(6.25267e-09 5.29525e-09 -0.000133036)
(-7.61283e-09 -1.53246e-09 -0.000133139)
(1.34654e-08 3.94215e-09 -0.000132902)
(-1.40741e-08 -3.24629e-09 -0.000133088)
(-7.07033e-09 6.14839e-10 -0.000133142)
(4.93522e-09 4.64515e-09 -0.000133052)
(-9.40798e-09 -2.84185e-09 -0.000133089)
(1.67768e-08 -1.44303e-10 -0.000132912)
(-2.22405e-08 2.20957e-09 -0.000132887)
(-1.6202e-10 9.19596e-09 -0.000133068)
(-7.33141e-09 -6.93108e-10 -0.000133054)
(3.9458e-09 7.87712e-09 -0.000133157)
(-1.06618e-09 1.02248e-08 -0.000133076)
(-2.99608e-08 7.02645e-09 -0.000132892)
(2.17505e-09 1.08958e-08 -0.000133158)
(-7.86598e-09 8.72154e-10 -0.000133071)
(2.36638e-08 -3.19988e-09 -0.000124829)
(-3.04569e-09 9.4548e-09 -0.000125056)
(4.19001e-09 9.27006e-09 -0.000125033)
(-2.89465e-08 4.0355e-10 -0.000124802)
(-3.70033e-09 9.86872e-09 -0.000125058)
(2.90789e-08 1.19111e-09 -0.000124829)
(7.32755e-09 -1.41907e-09 -0.00013307)
(-2.88596e-09 9.52523e-09 -0.000133171)
(1.76606e-09 1.03202e-08 -0.000133094)
(3.23715e-08 8.2655e-09 -0.000132907)
(-2.40681e-09 1.09472e-08 -0.000133168)
(1.01253e-08 5.36644e-09 -0.000133088)
(-6.97489e-09 8.18983e-09 -0.00012504)
(8.44215e-09 -2.81302e-09 -0.000125177)
(4.70218e-09 1.25059e-08 -0.000125143)
(-9.29472e-09 1.05233e-09 -0.000125024)
(7.63476e-09 -4.94798e-09 -0.000125178)
(-5.15632e-09 8.16934e-09 -0.000125064)
(8.37691e-09 -4.82327e-09 -0.000125024)
(-5.43819e-09 1.13333e-08 -0.000125161)
(6.26336e-09 1.06811e-08 -0.000125027)
(-9.92018e-09 -1.33459e-09 -0.000125161)
(-4.08258e-09 1.49927e-08 -0.000125158)
(8.99739e-09 1.44037e-09 -0.000125045)
(-7.9218e-09 -3.7022e-09 -0.000125154)
(4.6814e-09 9.28674e-09 -0.000125043)
(-1.51642e-08 1.72558e-09 -0.000132914)
(1.49776e-08 -1.47269e-09 -0.000133109)
(6.94583e-09 -2.2175e-09 -0.000133191)
(-3.61462e-09 7.33965e-09 -0.000133104)
(1.45094e-08 -1.44273e-09 -0.000133111)
(-1.4057e-08 1.31885e-09 -0.000132934)
(-1.60854e-08 5.85913e-09 -0.000124834)
(1.8497e-08 -4.3956e-09 -0.000125082)
(1.99073e-08 4.92256e-09 -0.000124846)
(-1.30114e-08 -6.27548e-09 -0.000125095)
(1.87687e-08 -4.11265e-09 -0.000125082)
(-1.44081e-08 4.96919e-09 -0.000124853)
(-1.57953e-08 -4.82657e-09 -0.000125092)
(1.96093e-08 2.71968e-09 -0.000124867)
(4.2708e-09 7.00117e-09 -0.000133055)
(-7.68938e-09 -9.46757e-10 -0.000133155)
(2.06124e-08 -1.62764e-09 -0.000132914)
(-1.1636e-08 -3.53239e-09 -0.000133109)
(-6.80166e-09 -1.03791e-09 -0.000133146)
(4.34769e-09 5.14281e-09 -0.000133067)
(-1.22466e-08 -3.29404e-09 -0.000133108)
(1.82907e-08 -1.4762e-09 -0.000132934)
(-2.939e-08 6.2994e-09 -0.000132901)
(-3.37981e-09 1.04795e-08 -0.000133106)
(-9.44841e-09 3.99696e-09 -0.00013307)
(3.01925e-09 8.24547e-09 -0.000133167)
(-3.25242e-10 9.39188e-09 -0.000133127)
(-3.17493e-08 7.80207e-09 -0.000132935)
(3.6399e-09 6.82808e-09 -0.000133163)
(-8.19673e-09 2.79348e-10 -0.000133079)
(3.02539e-08 2.71651e-11 -0.000124828)
(2.94793e-09 1.22048e-08 -0.000125086)
(3.79568e-09 9.68702e-09 -0.000125092)
(-2.93281e-08 1.23789e-10 -0.000124844)
(-6.86876e-09 8.89303e-09 -0.00012511)
(3.16362e-08 7.76586e-10 -0.000124865)
(1.11586e-08 7.735e-09 -0.000133082)
(6.41137e-10 1.37336e-08 -0.000133179)
(-3.90446e-09 6.6482e-09 -0.000133134)
(2.86216e-08 6.11376e-09 -0.000132943)
(-6.25383e-09 4.49732e-09 -0.000133175)
(8.20139e-09 -6.76173e-11 -0.000133092)
(-6.82122e-09 7.9674e-09 -0.00012506)
(8.63783e-09 -3.75545e-09 -0.000125195)
(5.6505e-09 8.94399e-09 -0.000125153)
(-8.44934e-09 -2.88806e-09 -0.000125035)
(6.30685e-09 -5.47709e-09 -0.000125196)
(-7.1663e-09 7.57703e-09 -0.000125078)
(1.1006e-08 1.58678e-09 -0.000125038)
(-2.89369e-09 1.50436e-08 -0.000125169)
(7.45062e-09 8.80463e-09 -0.000125033)
(-7.28261e-09 -3.96327e-09 -0.000125161)
(-5.27514e-09 9.75451e-09 -0.000125162)
(9.88389e-09 6.45343e-10 -0.000125049)
(-6.79852e-09 -5.34321e-09 -0.000125157)
(7.27345e-09 7.84883e-09 -0.000125044)
(-1.42514e-08 1.06864e-09 -0.000132934)
(1.27554e-08 -2.49608e-09 -0.000133127)
(6.13384e-09 -2.44643e-09 -0.00013321)
(-5.01976e-09 4.97189e-09 -0.000133123)
(1.17174e-08 -2.9384e-09 -0.000133137)
(-1.68471e-08 -2.83853e-10 -0.000132956)
(-1.66222e-08 4.96627e-09 -0.00012485)
(1.43294e-08 -6.09414e-09 -0.000125099)
(1.86413e-08 4.42591e-09 -0.000124861)
(-1.52151e-08 -4.87065e-09 -0.000125103)
(1.71638e-08 -4.44588e-09 -0.000125105)
(-1.875e-08 3.67431e-09 -0.000124872)
(-1.67364e-08 -4.37872e-09 -0.000125103)
(1.74402e-08 4.62127e-09 -0.000124874)
(5.07799e-09 5.14976e-09 -0.000133056)
(-5.20984e-09 -2.14514e-09 -0.000133148)
(1.79885e-08 -3.9138e-10 -0.000132928)
(-1.32159e-08 -1.93069e-09 -0.000133116)
(-7.14342e-09 -1.24915e-09 -0.000133147)
(5.50572e-09 4.38571e-09 -0.000133062)
(-1.19877e-08 -2.73011e-09 -0.000133116)
(1.7324e-08 2.01722e-10 -0.000132939)
(-2.54927e-08 5.45148e-09 -0.000132954)
(7.58522e-09 5.59854e-09 -0.000133146)
(-7.31271e-09 5.29114e-12 -0.000133074)
(5.684e-09 3.09104e-09 -0.000133167)
(1.53521e-08 8.53645e-10 -0.000133154)
(-1.91816e-08 1.30633e-09 -0.000132974)
(8.57826e-09 -6.9775e-10 -0.000133168)
(-5.22917e-09 -5.74677e-09 -0.00013308)
(2.37936e-08 -1.91916e-09 -0.000124881)
(-1.37751e-08 6.60218e-09 -0.000125135)
(1.91416e-08 3.77287e-09 -0.000125132)
(-2.05894e-08 -3.51293e-09 -0.000124893)
(-2.09789e-08 3.12303e-09 -0.000125148)
(1.65259e-08 -4.50659e-09 -0.000124911)
(5.90541e-09 -1.83227e-09 -0.000133089)
(-7.77005e-09 1.58097e-09 -0.000133179)
(-1.83339e-08 -5.62526e-10 -0.000133164)
(1.84707e-08 1.10179e-09 -0.000132975)
(-1.06312e-08 -5.06537e-09 -0.00013317)
(5.08951e-09 -4.93698e-09 -0.000133094)
(-7.34231e-09 6.74262e-09 -0.000125078)
(8.04232e-09 -3.92783e-09 -0.000125205)
(8.6164e-09 2.2718e-09 -0.000125157)
(-7.03455e-09 -8.00108e-09 -0.000125041)
(7.23625e-09 -4.73327e-09 -0.000125199)
(-7.48269e-09 7.60686e-09 -0.000125088)
(7.05879e-09 -4.67645e-09 -0.000125046)
(-8.94202e-09 3.19243e-09 -0.000125169)
(6.64616e-09 6.13849e-09 -0.000125038)
(-7.86081e-09 -5.5902e-09 -0.000125161)
(-9.67905e-09 -6.84305e-10 -0.000125161)
(6.24326e-09 -8.51771e-09 -0.00012505)
(-7.02085e-09 -5.97328e-09 -0.000125157)
(7.70119e-09 5.07015e-09 -0.000125043)
(-1.63406e-08 1.16526e-12 -0.000132958)
(1.20862e-08 -2.85762e-09 -0.000133145)
(6.52868e-09 -2.31979e-09 -0.000133216)
(-5.20952e-09 5.42765e-09 -0.000133133)
(1.1513e-08 -2.82377e-09 -0.000133145)
(-1.72965e-08 3.05599e-10 -0.00013297)
(-1.74593e-08 5.08798e-09 -0.000124874)
(1.5136e-08 -4.80357e-09 -0.000125117)
(1.7067e-08 4.9871e-09 -0.000124872)
(-1.71534e-08 -4.68957e-09 -0.000125112)
(1.65573e-08 -4.73867e-09 -0.000125118)
(-1.81392e-08 4.91421e-09 -0.000124889)
(-1.77666e-08 -3.83605e-09 -0.000125109)
(1.65905e-08 5.19568e-09 -0.000124883)
(4.55517e-09 4.92812e-09 -0.000133056)
(-6.70282e-09 -2.12321e-09 -0.000133148)
(1.74911e-08 -1.69602e-10 -0.000132936)
(-1.51675e-08 -9.35832e-10 -0.000133121)
(-7.4336e-09 -7.95013e-10 -0.000133144)
(5.08437e-09 4.6052e-09 -0.000133059)
(-1.36806e-08 -2.24293e-09 -0.000133121)
(1.47328e-08 1.31347e-09 -0.000132944)
(-1.01893e-08 -3.70276e-09 -0.000132976)
(2.29831e-08 -3.59692e-09 -0.000133165)
(-3.18296e-09 -8.65996e-09 -0.000133076)
(1.13466e-08 -5.5922e-09 -0.000133178)
(2.35085e-08 -2.97391e-09 -0.000133163)
(-5.1236e-09 -6.85361e-09 -0.000132991)
(1.01139e-08 -3.35631e-09 -0.000133177)
(-1.23498e-09 -1.33486e-08 -0.00013309)
(1.09793e-08 -7.28202e-09 -0.000124917)
(-2.03355e-08 2.86129e-09 -0.000125164)
(2.54298e-08 1.62685e-09 -0.000125141)
(-6.80595e-09 -8.72046e-09 -0.000124918)
(-2.7017e-08 1.14371e-09 -0.000125166)
(8.13484e-09 -8.8547e-09 -0.000124938)
(2.52461e-09 -9.47363e-09 -0.000133083)
(-8.43868e-09 -3.21931e-09 -0.00013318)
(-2.71968e-08 -5.34506e-09 -0.000133176)
(3.98566e-09 -7.59949e-09 -0.000132999)
(-1.43704e-08 -1.04807e-08 -0.000133177)
(-5.25898e-10 -1.69288e-08 -0.000133092)
(-6.70102e-09 7.73666e-09 -0.00012508)
(7.48343e-09 -5.22393e-09 -0.000125203)
(9.73414e-09 2.96454e-10 -0.000125167)
(-4.67681e-09 -1.24443e-08 -0.000125049)
(7.13936e-09 -7.89177e-09 -0.0001252)
(-7.39768e-09 5.28427e-09 -0.000125089)
(3.81382e-09 -1.53184e-08 -0.00012504)
(-8.48612e-09 6.3353e-10 -0.000125168)
(7.41991e-09 7.0055e-09 -0.000125035)
(-6.33849e-09 -6.50837e-09 -0.000125164)
(-1.11366e-08 -4.05233e-09 -0.000125164)
(5.40289e-09 -1.23705e-08 -0.000125048)
(-6.85995e-09 -7.50555e-09 -0.000125164)
(8.63992e-09 4.10991e-09 -0.000125046)
(-1.73156e-08 -1.07917e-10 -0.000132963)
(1.15694e-08 -3.0006e-09 -0.000133151)
(5.27271e-09 -4.91559e-09 -0.000133212)
(-5.93588e-09 3.68671e-09 -0.000133132)
(1.00055e-08 -3.92779e-09 -0.00013315)
(-1.81562e-08 -5.32725e-10 -0.000132977)
(-1.84145e-08 4.30844e-09 -0.000124883)
(1.51594e-08 -5.23733e-09 -0.000125126)
(1.69209e-08 5.09522e-09 -0.000124876)
(-1.63807e-08 -4.54512e-09 -0.000125113)
(1.55912e-08 -5.31178e-09 -0.000125124)
(-1.7718e-08 3.98787e-09 -0.000124897)
(-1.67902e-08 -5.36938e-09 -0.000125108)
(1.64115e-08 5.46712e-09 -0.000124883)
(4.27425e-09 6.98278e-09 -0.000133054)
(-5.58132e-09 -2.61685e-09 -0.00013315)
(1.61578e-08 1.04962e-09 -0.000132938)
(-1.51048e-08 -6.50633e-10 -0.000133123)
(-6.5755e-09 -2.10065e-09 -0.000133154)
(6.17841e-09 3.98067e-09 -0.000133065)
(-1.25819e-08 -2.25429e-09 -0.000133117)
(1.45797e-08 1.61632e-09 -0.000132945)
(-4.6431e-09 -6.66736e-09 -0.00013298)
(1.95327e-08 -9.49851e-11 -0.00013316)
(-2.09473e-09 -9.9597e-09 -0.000133087)
(1.05474e-08 -3.72893e-09 -0.000133185)
(1.57728e-08 4.44142e-10 -0.000133144)
(-1.05889e-08 -2.95704e-09 -0.000132977)
(9.0783e-09 -2.82127e-09 -0.000133178)
(-1.07034e-09 -1.05659e-08 -0.000133094)
(4.92053e-09 -9.03251e-09 -0.000124929)
(-2.53167e-08 2.66564e-09 -0.000125158)
(1.84442e-08 4.10512e-09 -0.00012512)
(-1.19557e-08 -5.63647e-09 -0.000124904)
(-2.42795e-08 1.53725e-09 -0.000125143)
(6.85811e-09 -8.2675e-09 -0.000124925)
(-2.25219e-09 -1.62809e-08 -0.000133089)
(-1.37435e-08 -8.6323e-09 -0.00013318)
(-2.17193e-08 -3.53996e-09 -0.000133157)
(5.67739e-09 -5.50264e-09 -0.000132984)
(-1.18119e-08 -8.1602e-09 -0.000133166)
(-8.18493e-11 -1.37766e-08 -0.000133093)
(-7.37746e-09 5.36654e-09 -0.000125079)
(7.80171e-09 -5.88797e-09 -0.000125201)
(9.05449e-09 1.90529e-09 -0.000125167)
(-4.30518e-09 -1.18632e-08 -0.000125051)
(6.93006e-09 -7.25422e-09 -0.000125193)
(-7.07086e-09 5.16892e-09 -0.000125083)
(1.8858e-09 -1.75538e-08 -0.000125044)
(-1.29212e-08 -6.77079e-09 -0.00012517)
(6.52926e-09 5.32941e-09 -0.000125044)
(-7.64126e-09 -5.07285e-09 -0.000125167)
(-9.14911e-09 -9.44575e-10 -0.000125162)
(2.59622e-09 -1.59115e-08 -0.000125051)
(-7.39261e-09 -5.44053e-09 -0.000125163)
(6.50046e-09 5.562e-09 -0.000125051)
(-1.87762e-08 -1.20222e-09 -0.000132968)
(1.05199e-08 -4.1487e-09 -0.000133155)
(4.82907e-09 -5.34879e-09 -0.000133203)
(-5.53246e-09 2.78874e-09 -0.000133126)
(9.61207e-09 -4.05823e-09 -0.000133147)
(-1.90357e-08 -1.48095e-09 -0.000132977)
(-1.90497e-08 3.91645e-09 -0.00012489)
(1.25665e-08 -6.44057e-09 -0.000125128)
(1.70637e-08 4.21495e-09 -0.000124873)
(-1.60622e-08 -5.26229e-09 -0.000125106)
(1.40727e-08 -5.54256e-09 -0.000125121)
(-2.05506e-08 2.6695e-09 -0.000124899)
(-1.70776e-08 -4.94213e-09 -0.000125101)
(1.6738e-08 4.80169e-09 -0.000124874)
(4.69873e-09 3.63562e-09 -0.000133065)
(-7.54783e-09 -3.04058e-09 -0.00013316)
(1.65458e-08 -1.0707e-10 -0.000132937)
(-1.43341e-08 -1.96617e-09 -0.000133116)
(-7.14707e-09 -1.05661e-09 -0.000133157)
(5.5826e-09 3.42993e-09 -0.000133071)
(-1.26348e-08 -2.39651e-09 -0.000133112)
(1.5624e-08 -4.21179e-12 -0.000132938)
(-1.21302e-08 -2.94018e-09 -0.000132963)
(1.40703e-08 2.32192e-09 -0.000133141)
(-3.54209e-09 -7.78644e-09 -0.000133088)
(8.17165e-09 -6.46847e-10 -0.000133181)
(1.36413e-08 1.39647e-09 -0.000133128)
(-1.49535e-08 -1.40394e-09 -0.000132959)
(8.10022e-09 3.54998e-10 -0.000133177)
(-2.85881e-09 -9.02874e-09 -0.000133091)
(8.89098e-09 -8.10745e-09 -0.000124908)
(-1.61603e-08 5.64259e-09 -0.000125143)
(1.61756e-08 5.77108e-09 -0.00012511)
(-1.58156e-08 -4.92077e-09 -0.000124886)
(-1.85661e-08 3.88101e-09 -0.000125141)
(1.43429e-08 -6.03793e-09 -0.000124914)
(2.57778e-09 -1.0708e-08 -0.00013308)
(-6.63868e-09 -5.62445e-10 -0.000133176)
(-1.5835e-08 5.5113e-10 -0.000133154)
(1.08092e-08 -3.58976e-09 -0.000132975)
(-8.63321e-09 -2.54021e-09 -0.000133175)
(1.82634e-09 -1.13703e-08 -0.000133091)
(-7.24682e-09 5.81695e-09 -0.000125073)
(8.85587e-09 -3.99577e-09 -0.000125194)
(8.39944e-09 4.10928e-09 -0.000125167)
(-5.40798e-09 -9.7701e-09 -0.000125051)
(8.35379e-09 -4.35093e-09 -0.000125182)
(-6.12338e-09 8.04125e-09 -0.000125073)
(4.54465e-09 -1.32255e-08 -0.000125043)
(-8.10875e-09 3.63512e-09 -0.000125175)
(6.9649e-09 6.45833e-09 -0.000125045)
(-7.86995e-09 -5.16451e-09 -0.000125173)
(-7.71067e-09 3.10017e-09 -0.000125172)
(6.46033e-09 -8.81986e-09 -0.000125053)
(-6.8423e-09 -5.97239e-09 -0.00012517)
(6.94731e-09 6.47456e-09 -0.000125053)
(-1.86419e-08 -4.72964e-10 -0.000132967)
(1.13936e-08 -3.1364e-09 -0.000133151)
(7.44782e-09 -8.16262e-10 -0.000133191)
(-5.04077e-09 4.14175e-09 -0.000133113)
(1.02356e-08 -3.06504e-09 -0.000133145)
(-1.79692e-08 -1.23379e-09 -0.000132974)
(-2.01018e-08 3.2771e-09 -0.00012489)
(1.43364e-08 -6.57146e-09 -0.000125131)
(1.72934e-08 4.7389e-09 -0.000124868)
(-1.7211e-08 -4.62479e-09 -0.000125109)
(1.72212e-08 -5.31696e-09 -0.000125127)
(-1.82408e-08 3.90833e-09 -0.000124898)
(-1.74619e-08 -4.46898e-09 -0.000125109)
(1.51735e-08 4.77488e-09 -0.00012488)
(5.1276e-09 3.93759e-09 -0.000133068)
(-4.96079e-09 -4.528e-09 -0.000133164)
(1.67136e-08 8.14041e-11 -0.000132933)
(-1.43174e-08 -1.17429e-09 -0.000133118)
(-6.19671e-09 -1.42869e-09 -0.000133165)
(6.32121e-09 2.50932e-09 -0.000133078)
(-1.25805e-08 -2.45328e-09 -0.00013312)
(1.55988e-08 7.83071e-10 -0.000132941)
(-1.41706e-08 -8.00183e-10 -0.000132948)
(1.08444e-08 3.31897e-09 -0.000133126)
(-4.58959e-09 -5.17501e-09 -0.000133087)
(7.70656e-09 2.45245e-09 -0.000133186)
(1.25336e-08 5.92485e-10 -0.000133119)
(-1.72001e-08 6.71697e-10 -0.000132948)
(4.76653e-09 5.35993e-09 -0.000133182)
(-5.58613e-09 -4.42298e-09 -0.000133095)
(1.40126e-08 -5.42907e-09 -0.000124907)
(-1.70797e-08 4.96535e-09 -0.000125143)
(1.85698e-08 3.42426e-09 -0.000125103)
(-1.72617e-08 -5.17663e-09 -0.000124875)
(-1.76869e-08 3.23645e-09 -0.00012514)
(1.49286e-08 -5.53393e-09 -0.000124912)
(3.3826e-09 -7.91743e-09 -0.000133092)
(-6.34633e-09 2.26168e-09 -0.000133188)
(-1.51492e-08 -1.6539e-11 -0.000133153)
(1.62995e-08 -4.81538e-10 -0.000132971)
(-6.82763e-09 1.43153e-09 -0.000133187)
(6.06381e-09 -2.56786e-09 -0.000133105)
(-5.66573e-09 8.7411e-09 -0.000125065)
(9.3956e-09 -2.28797e-09 -0.000125188)
(5.85759e-09 6.68028e-09 -0.000125172)
(-7.21399e-09 -6.10482e-09 -0.000125055)
(6.51662e-09 -3.96096e-09 -0.000125184)
(-5.88687e-09 8.56473e-09 -0.000125072)
(5.75304e-09 -9.47632e-09 -0.000125055)
(-8.62161e-09 3.54234e-09 -0.000125186)
(7.41933e-09 6.52011e-09 -0.000125051)
(-7.56556e-09 -5.06505e-09 -0.00012518)
(-5.94913e-09 6.55335e-09 -0.000125184)
(7.1718e-09 -7.65713e-09 -0.000125067)
(-5.97713e-09 -5.70201e-09 -0.000125178)
(8.16825e-09 5.41539e-09 -0.00012506)
(-1.69923e-08 -8.48508e-10 -0.000132968)
(1.3478e-08 -2.88989e-09 -0.000133154)
(6.97431e-09 -3.72614e-10 -0.000133192)
(-3.61097e-09 7.10034e-09 -0.000133108)
(1.27359e-08 -1.82005e-09 -0.00013315)
(-1.52881e-08 8.04069e-10 -0.000132977)
(-1.71122e-08 4.40901e-09 -0.000124894)
(1.60691e-08 -5.50538e-09 -0.000125136)
(1.67848e-08 4.35324e-09 -0.000124881)
(-1.74871e-08 -4.71447e-09 -0.000125119)
(1.71625e-08 -3.80147e-09 -0.000125132)
(-1.69687e-08 4.79207e-09 -0.000124906)
(-1.70261e-08 -3.58434e-09 -0.000125117)
(1.55801e-08 5.58262e-09 -0.000124889)
(4.83543e-09 5.06029e-09 -0.000133078)
(-6.09477e-09 -2.24915e-09 -0.000133174)
(1.66193e-08 -2.88101e-10 -0.000132942)
(-1.46558e-08 -1.8032e-09 -0.000133128)
(-5.71021e-09 -1.13047e-09 -0.000133175)
(5.20663e-09 4.15593e-09 -0.000133087)
(-1.34142e-08 -1.67581e-09 -0.000133128)
(1.53265e-08 1.34039e-09 -0.00013295)
(-1.3285e-08 -1.76427e-09 -0.000132941)
(1.41473e-08 1.20398e-09 -0.00013312)
(-6.75352e-09 -1.4449e-09 -0.000133092)
(5.80783e-09 4.8843e-09 -0.00013318)
(1.35513e-08 1.50688e-09 -0.000133115)
(-1.46248e-08 -1.15278e-09 -0.000132943)
(6.35803e-09 3.42828e-09 -0.000133169)
(-5.64309e-09 -3.15002e-09 -0.000133088)
(1.55985e-08 -5.55841e-09 -0.000124908)
(-1.18549e-08 7.38275e-09 -0.000125143)
(1.81078e-08 3.67075e-09 -0.000125094)
(-1.44412e-08 -5.29651e-09 -0.00012487)
(-1.75771e-08 3.40144e-09 -0.000125132)
(1.7858e-08 -4.01554e-09 -0.000124914)
(6.22648e-09 -2.69032e-09 -0.000133101)
(-3.4371e-09 7.6172e-09 -0.000133194)
(-1.43982e-08 1.07658e-09 -0.000133147)
(1.47003e-08 -7.67307e-10 -0.000132975)
(-7.48926e-09 1.69878e-09 -0.000133183)
(4.3827e-09 -4.20575e-09 -0.000133106)
(-6.31779e-09 7.80881e-09 -0.000125069)
(8.88973e-09 -3.20493e-09 -0.000125189)
(7.35846e-09 6.49255e-09 -0.000125159)
(-7.7497e-09 -3.7336e-09 -0.000125047)
(6.9287e-09 -4.84013e-09 -0.000125178)
(-5.1783e-09 7.68945e-09 -0.000125074)
(7.32334e-09 -6.26918e-09 -0.000125064)
(-6.67079e-09 9.84758e-09 -0.000125191)
(7.18802e-09 7.13816e-09 -0.000125059)
(-8.61939e-09 -4.30152e-09 -0.000125184)
(-6.58166e-09 8.32206e-09 -0.000125178)
(7.92421e-09 -2.8214e-09 -0.000125067)
(-6.57578e-09 -6.00178e-09 -0.000125172)
(5.36697e-09 6.85769e-09 -0.000125066)
(-1.51114e-08 9.32029e-10 -0.00013297)
(1.16861e-08 -3.27335e-09 -0.00013315)
(6.767e-09 -2.3996e-09 -0.000133183)
(-3.09296e-09 6.81226e-09 -0.000133106)
(1.18073e-08 -1.93199e-09 -0.000133139)
(-1.69789e-08 -8.80442e-10 -0.000132973)
(-1.7475e-08 4.48377e-09 -0.0001249)
(1.46382e-08 -6.62123e-09 -0.000125136)
(1.78159e-08 4.10067e-09 -0.000124885)
(-1.35953e-08 -7.01758e-09 -0.000125122)
(1.66585e-08 -4.70269e-09 -0.000125123)
(-1.76747e-08 3.63959e-09 -0.000124903)
(-1.40665e-08 -5.55015e-09 -0.000125112)
(1.92165e-08 3.03988e-09 -0.000124891)
(5.28167e-09 4.71516e-09 -0.000133088)
(-7.74176e-09 -1.76014e-09 -0.000133181)
(1.75144e-08 -4.83022e-10 -0.000132948)
(-1.13282e-08 -3.99825e-09 -0.000133132)
(-6.89257e-09 -2.32471e-09 -0.000133172)
(4.42927e-09 4.8183e-09 -0.000133092)
(-9.69843e-09 -3.85439e-09 -0.000133123)
(1.9291e-08 -1.48069e-09 -0.000132953)
(-1.43098e-08 -1.57918e-09 -0.000132935)
(1.27765e-08 2.56592e-09 -0.000133119)
(-5.43157e-09 -4.20582e-09 -0.000133078)
(7.61142e-09 9.39613e-10 -0.000133169)
(1.21558e-08 1.68716e-09 -0.000133111)
(-1.52648e-08 -2.77057e-10 -0.00013294)
(7.39434e-09 -1.3291e-10 -0.000133158)
(-4.21049e-09 -6.80662e-09 -0.000133077)
(1.51997e-08 -5.39785e-09 -0.000124899)
(-1.45692e-08 6.36488e-09 -0.000125134)
(1.76942e-08 3.87806e-09 -0.000125093)
(-1.56099e-08 -5.35985e-09 -0.000124864)
(-1.51732e-08 5.5151e-09 -0.000125129)
(1.81332e-08 -4.30492e-09 -0.000124903)
(4.43813e-09 -5.07282e-09 -0.000133099)
(-7.09957e-09 1.69603e-09 -0.000133185)
(-1.39001e-08 1.87113e-09 -0.000133142)
(1.68513e-08 2.16737e-10 -0.000132964)
(-7.9879e-09 -1.0464e-09 -0.000133174)
(4.99365e-09 -2.19598e-09 -0.000133102)
(-6.4448e-09 8.02458e-09 -0.000125061)
(9.43329e-09 -1.36374e-09 -0.000125179)
(7.63966e-09 3.39653e-09 -0.000125149)
(-7.0058e-09 -7.59105e-09 -0.000125034)
(7.11531e-09 -3.94401e-09 -0.000125168)
(-5.96832e-09 9.92145e-09 -0.00012506)
(7.37267e-09 -5.68139e-09 -0.000125057)
(-8.94738e-09 4.55627e-09 -0.000125181)
(6.71662e-09 5.84187e-09 -0.000125053)
(-8.42403e-09 -5.1176e-09 -0.000125173)
(-7.8071e-09 4.36822e-09 -0.000125169)
(6.53015e-09 -6.86347e-09 -0.000125059)
(-7.79381e-09 -5.37128e-09 -0.000125159)
(6.12443e-09 5.96253e-09 -0.000125055)
(-1.59807e-08 8.58154e-10 -0.000132958)
(1.29006e-08 -2.53045e-09 -0.000133143)
(8.07984e-09 1.79194e-09 -0.00013317)
(-2.85061e-09 8.91358e-09 -0.000133094)
(1.33204e-08 -1.68451e-09 -0.000133133)
(-1.55053e-08 5.46646e-10 -0.000132964)
(-1.75106e-08 4.96551e-09 -0.000124889)
(1.53392e-08 -5.84677e-09 -0.000125128)
(2.05503e-08 3.45921e-09 -0.000124881)
(-1.44352e-08 -6.91435e-09 -0.000125118)
(1.76387e-08 -3.76144e-09 -0.000125118)
(-1.68129e-08 4.54892e-09 -0.000124895)
(-1.50789e-08 -5.04272e-09 -0.00012511)
(1.89906e-08 3.83917e-09 -0.000124885)
(5.2471e-09 4.02007e-09 -0.000133079)
(-6.26658e-09 -4.52385e-09 -0.000133169)
(1.89235e-08 -1.35381e-09 -0.000132945)
(-1.10423e-08 -3.21305e-09 -0.000133124)
(-6.08889e-09 -2.27399e-09 -0.000133154)
(6.26362e-09 1.11635e-09 -0.00013308)
(-1.18178e-08 -2.91775e-09 -0.000133118)
(1.79564e-08 -1.21999e-09 -0.000132946)
(-1.50394e-08 -9.4264e-10 -0.000132932)
(1.45256e-08 1.96736e-09 -0.000133109)
(-4.27629e-09 -6.49993e-09 -0.000133066)
(8.34314e-09 3.50918e-10 -0.000133158)
(1.46663e-08 1.70494e-09 -0.000133105)
(-1.38176e-08 -1.15646e-09 -0.000132931)
(7.1659e-09 2.16861e-09 -0.000133151)