/*--------------------------------*- C++ -*----------------------------------*\
| =========                 |                                                 |
| \\      /  F ield         | OpenFOAM: The Open Source CFD Toolbox           |
|  \\    /   O peration     | Version:  2206                                  |
|   \\  /    A nd           | Website:  www.openfoam.com                      |
|    \\/     M anipulation  |                                                 |
\*---------------------------------------------------------------------------*/
FoamFile
{
    version     2.0;
    format      ascii;
    arch        "LSB;label=32;scalar=64";
    class       volScalarField;
    location    "0.1";
    object      omega;
}
// * * * * * * * * * * * * * * * * * * * * * * * * * * * * * * * * * * * * * //

dimensions      [0 0 -1 0 0 0 0];

internalField   nonuniform List<scalar> 
66621
(
189.206
48.564
191.353
24.219
43.1622
20.6071
336.759
23.7844
20.6539
20.6027
42.0488
20.8868
84.511
82.7824
334.519
336.705
20.8871
83.0846
84.6424
20.6569
42.8974
84.3458
335.762
24.2157
20.6639
43.2932
20.6066
48.5609
191.359
24.2172
20.6652
20.6069
43.3356
48.434
190.387
24.2178
20.6656
20.6069
43.2954
48.4242
190.433
20.8904
84.6649
82.8227
334.27
23.7831
20.6527
20.6021
42.0598
46.5851
188.492
46.5778
188.528
335.755
334.129
91.8285
364.717
238.587
56.1798
210.339
48.4575
56.0526
209.921
239.04
366.642
93.6873
190.846
93.4759
367.174
336.165
134.373
350.091
349.199
349.51
348.621
134.585
53.533
197.479
84.3481
30.0053
29.9811
196.939
53.6069
53.1296
197.924
82.6338
29.5568
29.5407
197.385
53.1922
336.114
134.425
349.149
350.151
348.672
349.581
134.621
53.1862
196.676
29.7587
195.956
53.278
53.4963
198.899
84.492
29.9464
198.336
53.5688
29.9245
348.569
134.8
196.659
29.9656
53.4368
238.604
210.328
56.1908
48.461
209.908
56.0679
239.057
366.645
93.7053
190.874
93.4957
367.176
55.9885
209.804
238.578
93.2899
366.393
209.762
55.991
238.581
93.2937
366.386
134.593
350.065
349.259
349.547
348.679
134.83
53.5492
198.872
84.4812
29.985
198.357
29.952
53.6904
53.2321
196.508
82.6714
29.6459
29.6344
196.008
53.2404
333.706
234.416
53.7894
206.005
46.5294
53.7122
205.626
234.716
362.402
90.1142
188.05
89.9518
362.842
234.407
53.7945
205.981
46.5234
53.7163
205.619
234.708
362.413
90.1477
188.11
89.9848
362.859
333.61
20.5923
20.5894
20.5892
20.5859
20.5918
20.5888
20.5887
20.5858
20.5916
20.5886
20.5886
20.5857
20.5915
20.5885
20.5884
20.5857
21.1807
25.3507
21.0226
24.203
25.3384
21.0182
21.1837
29.7922
23.8483
21.7769
21.0904
20.9467
24.8072
23.7796
20.9474
24.8152
21.088
21.6404
29.0153
42.0114
23.6104
23.6229
29.033
21.631
27.6865
20.8869
22.3444
22.2646
22.3449
22.268
27.6947
27.6892
20.887
22.2907
22.3326
27.6987
22.2822
22.3342
29.704
23.7917
21.7692
21.1802
25.3567
21.0224
24.2016
25.3444
21.0176
21.184
21.786
29.8437
43.2474
23.8534
29.8287
23.8562
21.7827
21.1814
21.0231
25.3616
24.2048
21.0186
25.3508
21.185
21.7892
29.8525
43.2825
23.8672
29.8393
21.7857
23.8692
21.1811
21.0229
25.3537
24.2029
21.0185
25.3412
21.184
21.7894
29.8349
43.2489
23.8735
23.8762
29.8215
21.7849
27.7392
20.8908
22.3468
22.2965
22.2985
22.3497
27.7676
21.0902
20.9467
24.8098
23.7789
20.9472
24.8168
21.088
21.6398
29.0258
42.0316
23.5937
23.6039
29.0421
21.6306
743.887
1631.91
4420.56
16447
116782
744.147
1631.87
4420.71
16448.9
116803
732.103
1629.7
4418.26
16449.6
116892
731.878
1629.77
4418.18
16448.1
116862
732.099
1629.75
4418.58
16451.9
116912
731.801
1629.8
4418.07
16448.3
116872
744.157
1631.85
4420.69
16449.1
116814
743.794
1631.93
4420.3
16446.2
116781
743.789
1631.97
4420.38
16446
116773
732.285
1629.64
4418.09
16449.1
116881
744.434
1631.73
4420.46
16447.8
116795
744.44
1631.74
4420.43
16448
116803
731.851
1629.89
4418.34
16449.7
116892
732.263
1629.7
4418.54
16451.5
116912
737.151
1630.75
4417.24
16437.9
116752
737.867
1629.26
4414.8
16432.5
116727
737.782
1629.55
4415
16432.7
116727
737.273
1630.51
4417.02
16437.7
116752
744.18
1632.27
4421.02
16449.1
116803
732.019
1630.03
4418.51
16449.8
116892
743.099
1631.82
4420.18
16447.4
116795
743.055
1632.15
4420.42
16447.5
116795
743.233
1631.79
4420.2
16447.4
116795
743.196
1632.11
4420.43
16447.5
116795
732.012
1630.08
4418.82
16452.1
116912
730.877
1631.17
4420.42
16454.6
116904
742.78
1631.96
4420.08
16445.7
116778
737.138
1630.74
4417.21
16437.2
116748
737.859
1629.24
4414.74
16432.3
116725
737.775
1629.53
4414.95
16432.4
116725
737.259
1630.5
4416.99
16437
116748
744.186
1632.24
4420.99
16449.3
116814
737.59
1629.47
4415.11
16432.9
116749
737.023
1630.72
4417.38
16439
116774
737.59
1629.45
4415.12
16433.6
116747
737.017
1630.7
4417.41
16439.1
116769
731.314
1631.04
4420.57
16455
116904
743.221
1631.74
4419.88
16444.7
116759
743.194
1632.06
4420.1
16444.9
116759
732.198
1629.95
4418.32
16449.2
116881
737.607
1630.73
4417.46
16439.2
116769
738.306
1629.2
4414.99
16434.4
116747
738.237
1629.49
4415.19
16434.5
116747
737.712
1630.49
4417.25
16439.1
116769
744.475
1632.12
4420.76
16448
116795
737.608
1630.74
4417.43
16439.1
116774
738.301
1629.22
4414.99
16433.7
116749
738.234
1629.51
4415.19
16433.8
116749
737.712
1630.5
4417.22
16438.9
116774
744.487
1632.14
4420.73
16448.2
116803
732.187
1630.03
4418.78
16451.6
116912
731.258
1631
4420.53
16455.3
116918
731.292
1631.01
4420.46
16455.5
116921
729.757
1628.43
4415.73
16441.2
116835
730.012
1628.73
4416.09
16442.2
116840
730.147
1628.43
4415.8
16442
116840
731.259
1631.07
4420.67
16455.9
116918
743.124
1631.83
4420.02
16445.7
116778
743.064
1632.14
4420.25
16445.9
116778
731.16
1631.32
4420.77
16455.4
116918
731.194
1631.33
4420.7
16455.7
116921
731.317
1631.04
4420.6
16456
116933
743.149
1631.73
4420.01
16445.8
116776
743.134
1632.06
4420.24
16446
116776
731.271
1631.03
4420.42
16454.9
116921
743.097
1631.85
4420.18
16447
116795
743.062
1632.18
4420.41
16447.2
116795
731.239
1631.36
4420.83
16456.2
116933
731.188
1631.35
4420.66
16455.1
116921
730.009
1628.73
4416.12
16442.3
116852
730.144
1628.43
4415.83
16442.1
116852
729.795
1628.52
4415.7
16441.2
116840
729.781
1628.52
4415.76
16440.9
116831
731.195
1631.39
4420.92
16456.1
116918
731.22
1631.36
4420.81
16455.2
116904
730.229
1628.71
4416
16441.4
116835
730.35
1628.41
4415.72
16441.2
116835
730.216
1628.68
4415.86
16441.3
116840
730.343
1628.38
4415.58
16441.1
116840
335.561
337.454
20.8936
83.45
84.6557
48.6012
191.345
24.2472
20.655
43.3818
20.6036
48.6014
191.479
24.2489
20.6558
20.6038
43.4157
20.6562
43.3618
191.12
337.489
20.8967
84.7525
82.6422
334.951
23.7821
20.6481
20.6018
42.0511
23.7839
20.6471
20.6013
42.0933
46.6199
188.439
46.6018
188.436
20.893
84.555
82.786
336.61
334.829
350.051
350.792
134.884
196.659
29.8964
53.642
198.855
29.968
53.6686
239.313
56.2276
210.843
48.007
239.816
55.558
210.397
367.428
93.6991
190.828
368.063
93.1319
239.328
210.838
56.2375
48.0057
239.835
210.393
55.5648
367.427
93.713
190.869
368.064
93.1392
366.842
93.657
190.641
367.274
93.0779
336.97
134.868
349.462
349.977
135.271
349.572
348.759
53.1679
199.07
30.06
84.086
29.7119
54.0558
198.088
53.0902
196.243
29.6482
82.5278
53.2757
196.234
29.4895
334.642
235.487
53.7757
206.278
46.6074
235.505
53.6993
206.605
363.48
90.1758
188.202
363.815
89.8916
235.494
53.8077
206.276
46.6487
235.499
53.7141
206.609
363.522
90.2035
188.187
363.831
89.9377
134.371
350.764
349.846
134.931
350.32
349.459
53.1349
197.477
30.0338
84.0221
53.778
29.7379
197.066
52.7841
197.907
29.5751
82.4586
53.3495
29.3471
197.599
336.291
334.535
20.592
20.5893
20.5882
20.5852
20.5916
20.5887
20.5878
20.5851
20.5903
20.5876
20.5879
20.5848
20.5903
20.5876
20.5878
20.585
22.3301
22.3381
27.7358
21.1481
25.3917
21.033
24.0586
21.1976
25.1684
20.9949
21.7274
29.8991
23.8786
42.7989
23.7271
21.8034
29.5599
21.1486
21.0337
25.3955
24.0603
21.1977
20.9953
25.1715
21.7298
29.9067
23.8948
42.8232
21.806
29.5655
23.7418
21.7284
29.8877
23.8985
42.7754
21.8048
29.545
23.7478
27.6378
20.8738
22.3634
22.3096
22.2743
27.8418
22.233
21.0821
20.9523
24.8144
23.7746
21.0939
20.9519
24.7698
21.6027
29.0527
23.6271
41.7015
21.6447
23.5325
28.8709
21.0825
20.9523
24.8156
23.777
21.0937
20.9521
24.7734
21.6029
29.0615
23.6124
41.7269
21.6441
28.8837
23.5147
27.5138
20.8703
22.357
22.2753
27.745
22.2682
22.1996
20.5575
20.6365
20.5577
20.6363
20.6243
20.8768
20.8728
20.8737
20.6251
20.6248
20.626
20.6254
20.8775
20.8741
20.6353
20.6364
20.636
20.6373
20.6371
20.6364
20.6382
20.8734
20.6275
20.6268
20.8737
20.6374
20.6387
20.6399
20.8728
20.6234
47.3504
190.98
190.771
47.3843
336.877
336.657
49.4635
193.821
193.686
49.2349
20.5573
20.5572
20.5573
20.558
20.5584
20.5585
20.5584
24.3789
44.0251
20.5739
20.6378
44.0544
20.5758
24.3109
47.251
191.031
47.3248
190.905
336.939
336.772
49.4519
193.844
49.2438
193.731
20.56
20.5602
20.5601
24.3737
43.9854
20.5739
20.6371
24.3029
44.073
20.5749
339.286
339.163
23.8771
20.5691
42.6948
20.6251
20.5699
42.6561
23.8899
86.1445
84.2951
20.875
86.1113
84.2477
336.93
336.653
339.318
339.103
84.3212
86.2293
20.8712
84.21
86.1809
336.736
336.603
339.228
339.07
20.8715
84.2632
86.2059
84.056
85.9564
47.3109
191.111
190.855
47.3267
23.8957
42.7216
20.569
20.6266
42.709
20.5711
23.8837
23.8905
42.7417
20.5691
20.6262
42.7229
20.5714
23.8804
47.2761
191.009
190.757
47.3262
47.2129
190.925
190.858
47.3841
23.8763
20.6261
42.7089
20.5704
42.5995
20.5706
23.9039
23.8717
20.6255
42.7198
20.5702
42.6071
20.5706
23.9096
84.2883
86.2745
20.8739
84.2155
86.1834
339.295
339.08
336.877
336.639
20.873
84.2934
86.1613
84.063
85.9477
339.154
339.029
24.3676
43.982
20.5733
20.6366
44.0278
20.5755
24.3035
49.4566
193.908
49.252
193.737
24.3691
20.5739
44.0145
20.6379
20.5762
24.3093
44.06
49.2165
193.954
193.485
49.4065
24.3006
20.6361
44.0528
20.5746
43.8446
20.5749
24.3569
49.2148
193.791
49.373
193.608
24.302
20.6374
20.5748
44.088
20.5753
24.3568
43.8719
49.467
193.75
193.537
49.2516
24.3771
20.5739
44.0415
20.6386
20.5761
24.3119
44.0705
49.4536
193.81
49.2515
193.649
24.3091
20.6374
44.1042
20.5739
43.8561
20.5754
24.3637
49.2191
193.672
193.348
49.3762
24.3079
20.6382
20.5748
44.0771
20.5753
24.3583
43.8755
49.2132
193.72
49.3674
193.441
336.711
336.835
339.136
339.291
84.1022
85.9768
20.8745
84.3271
86.2867
47.2903
190.892
47.2787
191.028
23.8938
42.622
20.5721
20.6276
23.8761
42.8032
20.572
23.9033
42.6346
20.5719
20.6271
23.8844
42.7966
20.5719
84.1457
85.8978
20.8756
84.2132
86.3096
339.067
339.327
24.3724
43.8545
20.5763
20.6375
24.2921
44.1215
20.5764
49.4357
193.585
49.1572
193.877
24.3723
20.5765
43.8963
20.6387
24.2926
20.5765
44.1555
49.4377
193.515
49.1583
193.85
24.3691
20.5764
43.8736
20.6399
24.2908
20.5764
44.1409
49.4319
193.617
49.1524
193.789
86.2028
84.2799
20.8727
86.2957
84.2039
336.877
336.685
83.9275
336.508
23.875
20.5688
42.6447
20.624
20.5699
42.6331
23.8911
47.1548
191.024
190.839
47.3546
47.1477
191.113
190.943
47.3571
23.892
42.5377
23.8892
42.5477
47.4849
190.545
47.4607
190.618
339.226
339.113
336.85
336.716
84.0375
336.535
237.588
208.58
54.6589
47.2533
208.516
54.5416
237.191
365.122
190.476
91.8472
91.5177
365.119
365.07
91.7399
190.625
91.6077
365.031
237.595
47.2548
208.715
54.7041
208.332
54.5924
237.437
336.302
336.541
241.741
57.2471
212.939
49.2692
57.0391
212.74
241.341
369.401
193.369
95.3737
95.1381
369.372
369.378
95.3447
193.477
95.1439
369.321
241.764
49.4402
57.0319
212.974
57.25
212.552
241.535
237.543
47.2476
208.3
54.6043
208.338
54.6099
237.043
365.15
91.8495
190.608
365.141
91.5285
237.554
47.1792
208.662
54.6966
237.36
208.225
54.5646
365.152
91.7391
190.811
91.6677
364.966
336.427
336.7
241.737
49.269
57.2382
212.887
57.0446
212.726
241.692
369.413
95.3737
193.457
369.342
95.1387
241.764
49.4519
57.0473
212.956
241.54
57.2763
212.562
369.374
95.3536
193.565
95.1382
369.538
338.754
338.999
136.758
352.599
351.637
352.488
351.499
136.94
54.7282
30.2782
85.9083
200.379
30.348
200.002
54.5483
54.1294
29.9051
84.0246
200.189
29.8775
199.954
53.9239
54.4679
200.184
85.9177
30.3866
30.2832
200.04
54.6531
53.935
200.305
84.0658
29.9249
29.8502
200.108
54.1359
137.015
352.463
351.621
352.175
351.153
136.781
336.399
336.623
338.785
338.956
136.736
351.548
352.49
351.509
352.437
136.433
54.2198
29.9802
84.0776
199.157
198.676
29.9584
54.0358
54.5662
30.2401
86.007
201.515
201.123
30.3106
54.4114
54.0137
198.981
84.0704
29.9871
198.8
54.1512
29.9157
54.2996
201.354
85.9904
30.3133
201.152
54.4611
30.2199
136.87
351.715
352.671
351.209
352.227
136.579
336.71
336.551
339.13
339.028
136.694
351.518
352.482
136.433
351.451
352.386
54.206
29.9952
84.1388
199.135
199.037
29.9251
54.111
54.5075
30.3028
86.0196
201.489
201.329
30.2114
54.4395
54.3221
198.821
29.9114
84.2223
54.1088
199.037
29.9903
54.6371
201.146
30.2067
86.1809
54.3882
201.376
30.3072
136.411
351.566
352.493
351.534
352.43
136.577
237.596
208.553
54.6781
47.2047
208.48
54.5791
237.213
365.128
190.679
91.88
91.541
365.157
365.12
91.747
190.8
91.6166
365.034
237.595
47.1951
208.671
54.7359
208.3
54.6541
237.41
237.42
208.363
54.6376
47.2698
237.34
208.381
54.6366
365.356
190.862
91.837
364.762
91.8248
365.18
91.6206
190.734
365.235
91.7451
237.222
47.2702
208.648
54.7552
237.233
208.505
54.6564
237.455
208.37
54.6382
47.2951
237.369
208.385
54.6334
365.349
190.858
91.7651
91.673
364.782
365.173
91.6683
190.785
365.229
91.662
237.254
47.2963
208.564
54.7319
208.507
54.6338
237.271
136.86
351.542
352.464
351.511
352.393
136.542
54.1862
29.9282
84.0617
200.393
200.124
29.905
53.9845
54.6488
30.3141
86.0275
200.189
30.3809
199.745
54.4506
53.9835
200.396
84.0809
29.9229
200.215
29.8529
54.1349
54.3984
199.949
85.9976
30.383
30.2902
199.752
54.5432
137.04
351.687
352.482
351.309
352.167
136.765
338.765
338.933
336.816
336.601
136.783
351.543
352.451
136.53
351.619
352.368
54.1842
29.9213
84.1674
200.552
29.8524
200.426
54.0772
54.5282
30.3728
85.9947
200.024
199.903
30.2837
54.4196
54.3047
200.224
29.8445
84.2406
29.9223
54.0883
200.45
54.678
199.761
30.2771
86.156
54.4396
200.01
30.3782
136.491
351.623
352.452
351.614
352.431
136.632
339.082
339.012
241.762
212.906
49.2624
57.2524
212.716
57.0536
241.352
369.412
95.431
193.463
95.1848
369.381
241.798
49.4445
212.961
57.0859
212.587
57.282
241.565
369.423
95.3892
193.53
95.1714
369.326
241.686
56.9808
212.638
49.3079
241.465
57.1145
212.725
369.561
193.743
95.5049
369.019
95.2615
369.442
95.1198
193.709
369.455
95.3709
241.382
49.1786
57.2393
213.007
241.457
56.9968
212.79
241.697
212.626
49.32
56.9824
241.475
212.723
57.1212
369.565
95.3888
193.627
95.2221
369.039
241.391
49.1619
212.948
57.2015
212.786
56.9688
241.478
369.446
95.161
193.598
369.457
95.3976
241.735
57.2428
212.951
49.2729
57.0476
212.76
241.294
369.4
193.352
95.4131
95.1605
369.372
369.43
95.3544
193.361
95.1641
369.315
241.729
49.4491
57.0807
212.987
57.2752
212.594
241.562
241.758
212.903
49.2612
57.2469
212.716
57.052
241.378
369.401
95.4152
193.316
95.169
369.37
241.819
49.4425
212.96
57.0838
212.584
57.2777
241.567
369.413
95.3696
193.432
95.1531
369.313
241.68
56.9721
212.653
49.3114
241.45
57.0993
212.734
369.558
193.513
95.3544
95.1995
369.028
369.437
95.1284
193.566
369.454
95.3639
241.375
49.1622
57.194
212.96
56.9608
212.794
241.467
241.685
212.624
49.3173
56.9774
241.473
212.72
57.1099
369.542
95.3858
193.563
95.2007
369.02
241.38
49.1579
212.945
57.1911
212.783
56.9599
241.466
369.427
95.1446
193.647
369.441
95.3828
336.627
336.793
339.069
339.188
136.594
351.764
352.674
351.712
352.596
136.782
54.2302
29.9184
198.975
84.1993
54.0442
199.092
29.9781
54.5421
30.1947
201.316
86.1095
54.3242
201.287
30.2823
136.831
351.579
352.503
136.594
351.478
352.394
54.0237
199.18
84.2021
30.0235
199.1
54.2071
29.9501
54.309
201.447
86.112
30.3216
201.304
54.5251
30.2165
237.541
47.3182
208.314
54.6757
208.432
54.7167
236.982
365.164
91.7276
190.844
365.154
91.8303
237.533
47.3809
208.372
54.6362
208.457
237.399
54.7741
365.197
91.9056
190.976
91.8756
364.991
136.872
351.057
352.246
350.713
352.601
137.082
54.2295
29.8481
200.414
84.2451
200.432
54.0462
29.8985
54.4156
30.257
199.772
85.99
30.319
54.4115
199.915
136.807
351.497
352.457
351.424
136.654
352.563
54.2199
200.02
84.2714
29.929
200.402
29.9271
54.1625
54.0176
200.17
85.8363
30.4138
30.2258
199.643
54.6522
339.206
339.246
241.754
49.2246
212.948
57.2769
212.815
57.0425
241.737
369.408
95.2075
193.721
369.31
95.3513
241.798
49.3757
212.671
56.9668
212.727
241.538
57.216
369.415
95.519
193.751
95.3565
369.553
241.733
49.225
57.2665
212.954
57.0332
212.819
241.676
369.395
95.2079
193.723
95.3084
369.323
241.727
49.3741
56.9624
212.663
57.2088
241.534
212.709
369.349
95.4569
193.734
95.2932
369.539
241.739
49.2198
212.946
57.2722
212.813
57.0355
241.684
369.398
95.1673
193.583
369.292
95.3551
241.737
49.3708
212.674
56.9573
241.529
212.728
57.2069
369.406
95.5381
193.641
95.3456
369.546
136.63
352.337
351.646
352.36
351.477
136.839
54.5776
30.2417
85.9877
201.567
201.182
30.3087
54.4506
54.1721
29.9534
84.0298
199.094
29.9239
198.623
53.993
54.3891
201.518
85.9731
30.3757
201.206
30.2303
54.8612
54.0044
198.872
84.1135
29.9481
29.9235
198.813
53.9561
136.853
352.668
351.717
352.277
351.198
136.591
336.329
336.572
351.507
198.3
237.603
54.5636
208.531
47.2277
54.5972
208.525
237.134
365.144
190.516
91.8599
91.5636
365.138
365.137
91.7084
190.715
91.6314
364.992
237.614
47.2239
54.7435
208.697
54.6421
208.304
237.424
237.567
54.5692
208.473
47.23
54.5994
208.471
237.053
365.161
190.699
91.8589
91.5421
365.156
365.171
91.7629
190.841
91.6652
365.028
237.552
47.2719
54.7434
208.67
54.6476
208.277
237.414
54.7319
208.407
237.544
91.5767
365.378
54.7359
208.352
237.496
91.6317
365.384
338.719
338.97
336.336
336.595
351.325
200.031
20.5544
20.5545
20.5596
20.5563
20.5565
20.5503
20.5505
20.5545
20.5546
20.5587
20.5555
20.5556
20.5517
20.5514
28.038
22.4059
22.3472
20.8797
22.4222
22.3436
28.0148
27.9696
22.341
22.38
20.8758
22.3389
22.3997
27.9156
27.9506
20.8715
22.3467
22.3982
22.3307
22.374
27.9483
28.0262
22.3469
22.4123
20.8797
22.4288
22.3422
27.9923
27.9532
20.8723
22.3306
22.4153
22.317
22.3924
27.9465
27.9676
22.3253
22.371
20.8766
27.8997
22.3443
22.3938
27.966
22.3113
22.3874
20.8762
22.409
27.8979
22.3237
27.969
22.3791
22.3382
20.8757
22.3364
22.3982
27.9144
20.554
20.5541
20.5597
20.5565
20.5565
20.5503
20.5503
20.5542
20.5539
20.5596
20.5567
20.5563
20.5502
20.5503
20.5541
20.554
20.5598
20.5566
20.5565
20.5503
20.5504
20.5593
20.5548
20.5549
20.5561
20.5562
20.5523
20.5517
20.5589
20.5552
20.5552
20.5556
20.5557
20.5525
20.5525
20.559
20.5552
20.555
20.5558
20.5556
20.5526
20.5524
20.5591
20.5553
20.5551
20.5557
20.5558
20.5529
20.5527
21.1809
25.5626
21.0198
24.3149
25.4963
21.0078
21.1939
21.827
23.9666
43.9717
30.1335
24.0051
30.2091
21.8056
21.8036
30.2142
43.8722
24.0075
23.9611
30.1089
21.8201
21.1938
24.3742
25.4999
21.0067
25.5705
21.0202
21.1791
20.5568
20.5569
20.5601
20.5568
20.5569
20.5522
20.552
20.5568
20.5568
20.5602
20.5568
20.5568
20.5521
20.5519
20.5568
20.5568
20.5601
20.5568
20.5568
20.5522
20.5519
21.1806
24.3056
25.5676
21.0141
25.4934
21.0064
21.1919
21.8249
23.9609
30.1179
43.9245
21.8027
23.9978
30.2042
21.1918
24.3642
25.4876
21.0055
21.1767
25.5625
21.0187
21.8018
30.231
43.8647
24.0091
23.9548
30.1197
21.8245
21.0871
20.9324
24.9435
23.8685
20.9314
24.9476
21.0848
21.6576
23.7204
42.5636
29.3306
23.7079
29.2908
21.6567
21.6498
29.3053
42.5538
23.7286
23.7037
29.2871
21.6594
21.0875
23.8679
20.9352
24.9484
20.9356
24.9716
21.0875
27.9415
20.873
22.4231
22.3449
22.3979
22.3246
28.0033
27.8951
20.8694
22.3458
22.4015
27.9611
22.3283
22.377
28.0039
20.8728
22.3242
22.3742
27.9374
22.3468
22.3994
21.0863
24.9611
20.9353
23.8789
24.9402
20.9347
21.0849
21.6592
23.7375
42.6385
29.3342
29.299
23.727
21.6589
21.6556
29.325
42.6372
23.7371
29.2952
23.7205
21.6538
21.0867
23.9043
24.949
20.9365
24.9724
20.9367
21.0866
21.0862
24.9646
20.9345
23.8745
24.9453
20.9338
21.0848
21.6592
23.7244
42.6493
29.3421
29.3053
23.7138
21.659
21.6547
29.3312
42.6482
23.7231
29.2995
21.6528
23.7064
21.0869
23.8983
24.9535
20.9362
24.978
20.9365
21.0867
21.0856
24.9386
20.9371
23.8923
21.0857
24.9624
20.9391
21.6607
23.7353
42.665
29.3433
23.7247
29.3189
21.6555
21.6596
29.2758
23.7094
42.7355
23.7419
21.6566
29.3447
21.0862
23.8859
24.9763
20.938
24.957
20.9382
21.0859
21.0853
24.9353
20.936
23.8959
21.0853
24.9652
20.9378
21.6588
23.7183
42.6586
29.3357
29.3076
23.7076
21.6535
21.658
29.2784
23.6947
42.7359
21.6554
29.3437
23.7265
21.0859
23.8892
24.9787
20.9382
24.9551
20.9372
21.0858
27.9386
20.8732
22.3407
22.4254
22.4029
22.3274
27.9845
28.0131
20.8738
22.3168
22.3958
22.3353
27.9527
22.4194
21.1795
25.5594
21.019
24.3059
25.4913
21.0073
21.1927
21.8248
23.9536
43.9695
30.1236
30.2054
23.9894
21.8034
21.8014
30.2094
43.8482
23.9909
30.1043
23.9453
21.8182
21.1923
24.3666
25.4908
21.0069
25.5642
21.02
21.1776
21.1808
21.0201
24.3085
25.5643
21.0084
25.4985
21.1942
21.828
23.9618
30.1442
43.9924
30.2162
21.8072
23.997
21.1946
24.3709
21.008
25.5049
21.0211
25.5748
21.1795
21.8035
30.2185
43.8764
23.9983
30.114
21.8209
23.9526
21.1923
25.4807
21.0057
24.3591
21.1791
25.5505
21.0175
21.8069
23.9875
43.8806
30.2104
23.944
30.1097
21.8193
21.8256
30.0991
23.9424
44.0531
23.9921
21.804
30.2164
21.1776
24.2973
25.5509
21.0181
25.481
21.0049
21.19
21.1931
21.0065
24.3606
25.4834
21.1796
21.0181
25.5518
21.8074
24.0001
30.2154
43.9087
30.1145
21.8216
23.9539
21.1773
24.2979
21.0181
25.551
21.0052
25.4807
21.19
21.8281
30.1069
23.949
44.0766
21.8047
30.2233
23.9992
21.1803
21.0203
24.314
25.5633
21.0082
25.4971
21.1937
21.8286
23.9741
30.1398
43.9896
30.2126
24.0117
21.8075
21.194
24.3744
21.0072
25.5031
21.0205
25.573
21.1791
21.8043
30.2182
43.8853
24.0111
30.1118
21.8222
23.9656
21.1928
25.4825
21.0067
24.3603
21.18
25.5496
21.0185
21.8106
24.0129
43.896
30.2253
21.8243
23.967
30.1194
21.8267
30.1034
23.9593
44.0529
21.807
24.0104
30.2195
21.1778
24.2994
25.5557
21.0174
21.1901
25.482
21.0053
21.1928
21.0071
24.3621
25.4828
21.1792
21.0189
25.5513
21.8085
24.0057
30.2127
43.9009
30.113
21.8221
23.9627
21.1772
24.2985
21.0176
25.5495
21.0056
25.48
21.19
21.8291
30.1063
23.9626
44.0729
21.806
30.2225
24.0119
27.8934
20.8709
22.3539
22.4024
27.9708
22.3321
22.3745
21.0873
23.8873
24.9742
20.9372
24.9559
20.9369
21.0867
21.6628
23.7198
29.2956
42.7012
29.3293
21.6588
23.74
21.087
23.8982
24.9439
20.9399
24.9769
21.087
20.9401
21.6557
29.3743
42.6997
23.7615
29.3262
23.7335
21.6667
21.0881
23.8995
24.9886
20.9381
24.9733
20.9381
21.0874
21.6614
23.7037
29.3084
42.697
21.6573
29.3438
23.7181
21.0877
23.9111
24.9508
20.94
21.0873
24.9897
20.9408
21.6546
29.3875
42.6975
23.7379
29.3405
21.6654
23.7154
27.9407
20.8711
22.3473
22.4251
22.394
22.3234
28.0798
21.1816
24.3057
25.5706
21.0164
25.4963
21.0077
21.1933
21.8262
23.9385
30.0943
44.0087
30.1981
21.8039
23.9872
21.1921
24.3611
25.4778
21.0069
25.5606
21.1769
21.0197
21.8033
30.2331
43.932
24.0032
30.1192
23.9521
21.8258
21.1814
24.3051
21.0169
25.5748
21.0079
25.4976
21.194
21.8284
23.9511
30.1038
44.0539
21.805
30.2172
24.0001
21.1923
24.3612
21.0068
25.4785
21.1765
21.0198
25.5615
21.805
30.2489
43.9633
24.0141
30.136
21.8283
23.9612
21.1809
24.2996
21.0154
25.5721
21.0068
25.4949
21.1934
21.8285
23.9554
30.1006
44.0115
24.004
21.8052
30.2118
21.192
24.3555
21.0056
25.4768
21.0185
21.1763
25.5589
21.8053
30.2478
43.9473
24.0224
23.9708
30.1341
21.8287
27.8926
20.8695
22.4039
22.348
22.325
22.3758
27.9784
21.0868
20.9323
24.9444
23.8717
20.9313
24.9485
21.0846
21.6558
23.7011
42.5256
29.3235
23.6903
29.2874
21.6549
21.6479
29.3089
42.5128
23.7128
23.684
29.2859
21.6576
21.0872
23.8764
20.935
24.9507
20.9352
24.9726
21.0873
24.9418
29.2666
24.9414
29.2734
20.5839
20.6694
20.6505
20.8852
20.5578
20.6377
20.6245
20.8716
20.5579
20.6367
20.6246
20.872
20.5578
20.6367
20.6246
20.872
20.5578
20.6367
20.6246
20.8719
20.5578
20.6367
20.6244
20.872
20.5577
20.6366
20.6245
20.8719
20.5578
20.6368
20.6246
20.8719
20.5578
20.6366
20.6245
20.8719
20.5578
20.6369
20.6246
20.8718
20.5578
20.6365
20.6245
20.872
20.5578
20.6368
20.6246
20.8718
20.5578
20.6367
20.6245
20.8719
20.5577
20.6368
20.6246
20.872
20.5579
20.6366
20.6245
20.8719
20.6245
20.8722
20.892
20.6694
20.6685
20.8942
20.6681
20.669
20.673
20.6691
20.8957
20.656
20.6552
20.8915
20.8876
20.876
20.6495
20.653
20.628
20.6311
20.8909
20.8807
20.6634
20.6651
20.637
20.638
20.6647
20.641
20.6382
20.8897
20.8755
20.6503
20.6257
20.624
20.8751
20.8758
20.875
20.6283
20.6288
20.6262
20.6254
20.8799
20.875
20.638
20.6387
20.6366
20.6375
20.6391
20.6371
20.638
20.8752
20.8747
20.6249
20.6251
20.6239
20.8752
20.8747
20.8748
20.6275
20.6268
20.6261
20.626
20.8747
20.8789
20.6378
20.6389
20.6362
20.6374
20.6393
20.6367
20.638
20.8743
20.8746
20.6253
20.6249
20.6239
20.8752
20.8745
20.8747
20.6275
20.6273
20.6261
20.6255
20.8782
20.8755
20.6375
20.6388
20.6362
20.6374
20.6393
20.6369
20.6379
20.8742
20.8746
20.6253
20.625
20.6239
20.8752
20.8744
20.8748
20.6275
20.6268
20.6261
20.6259
20.8754
20.8789
20.6375
20.6387
20.6362
20.6374
20.6393
20.6368
20.638
20.8742
20.8745
20.6253
20.6246
20.6238
20.8753
20.8745
20.8747
20.6275
20.6273
20.6261
20.6255
20.8785
20.8754
20.6376
20.6387
20.6362
20.6374
20.6393
20.6369
20.6379
20.8741
20.8746
20.6252
20.6249
20.6239
20.8752
20.8744
20.8747
20.6275
20.6268
20.6261
20.6259
20.8751
20.8789
20.6375
20.6388
20.6362
20.6374
20.6392
20.6369
20.6379
20.8742
20.8746
20.6252
20.625
20.6238
20.8752
20.8744
20.8747
20.6275
20.6273
20.6261
20.6255
20.8781
20.8753
20.6375
20.6388
20.6362
20.6374
20.6393
20.6367
20.6379
20.8742
20.8745
20.6252
20.6247
20.6238
20.8752
20.8744
20.8747
20.6275
20.6268
20.6261
20.626
20.8751
20.879
20.6375
20.6388
20.6362
20.6374
20.6393
20.637
20.6379
20.8741
20.8746
20.6252
20.625
20.6238
20.8751
20.8745
20.8746
20.6275
20.6273
20.6262
20.6255
20.8781
20.8749
20.6376
20.6387
20.6361
20.6374
20.6392
20.6367
20.6379
20.8742
20.8746
20.6252
20.6248
20.6238
20.8752
20.8743
20.8747
20.6275
20.6268
20.6261
20.6259
20.8746
20.8789
20.6375
20.6387
20.6361
20.6374
20.6393
20.6368
20.6379
20.8742
20.8745
20.6252
20.625
20.6238
20.8751
20.8744
20.8747
20.6275
20.6273
20.6261
20.6255
20.8786
20.8754
20.6375
20.6388
20.6361
20.6374
20.6392
20.6369
20.6379
20.8741
20.8746
20.6252
20.6249
20.6238
20.8752
20.8745
20.8747
20.6275
20.6268
20.6261
20.6259
20.8751
20.8788
20.6375
20.6387
20.6362
20.6374
20.6393
20.6369
20.638
20.8742
20.8746
20.6252
20.6249
20.6238
20.8752
20.8744
20.8747
20.6275
20.6273
20.6261
20.6255
20.8785
20.8751
20.6375
20.6387
20.6362
20.6374
20.6393
20.6368
20.6379
20.8742
20.8745
20.6252
20.6248
20.6238
20.8752
20.8744
20.8765
20.6275
20.6269
20.6254
20.6255
20.8749
20.8805
20.6376
20.6387
20.6355
20.6366
20.6393
20.6369
20.6371
20.8741
20.8745
20.6252
20.6249
20.6239
20.8751
20.874
20.8763
20.6252
20.6249
20.624
20.8801
20.5901
20.5903
20.5899
20.5899
47.2654
191.368
48.3134
190.416
336.989
336.249
49.2102
192.254
48.6281
193.449
20.5858
20.5849
20.5849
20.5587
20.5585
20.5579
20.5578
24.2875
43.3267
20.6014
20.6628
24.1977
43.7586
20.5927
338.401
338.921
23.8591
20.5949
42.2059
20.6414
23.7936
20.5862
42.5381
84.8989
83.2494
20.8791
85.7428
84.0161
47.4444
190.922
47.4761
190.708
336.983
336.699
49.4563
193.796
49.2439
193.674
20.5597
20.5595
20.5594
20.5584
20.5582
20.5583
20.5582
24.3727
44.0183
20.5742
20.6385
24.3106
44.0795
20.5761
339.338
339.165
23.8945
20.5692
42.7282
20.626
23.8951
20.5713
42.716
86.0469
84.2514
20.8709
86.0286
84.1955
47.3192
191.001
47.344
190.81
336.892
336.67
49.4555
193.791
49.2347
193.677
20.5599
20.56
20.5599
20.5581
20.5581
20.5581
20.558
24.3698
44.0134
20.5742
20.638
24.3085
44.0661
20.576
339.289
339.137
23.8899
20.5694
42.7299
20.6259
23.8947
20.5712
42.7137
86.1017
84.2361
20.871
86.0552
84.1686
47.3194
191.008
47.3498
190.785
336.903
336.678
49.4557
193.793
49.2326
193.664
20.5599
20.5599
20.5598
20.5581
20.5581
20.5582
20.5581
24.3698
44.0257
20.5741
20.6381
24.3086
44.0717
20.5759
339.292
339.145
23.891
20.5693
42.7316
20.6259
23.8964
20.5711
42.7146
86.1027
84.2401
20.8711
86.0654
84.169
47.3187
191.058
47.3224
190.817
336.881
336.658
49.4557
193.789
49.2327
193.664
20.5599
20.5599
20.5598
20.5581
20.5581
20.5582
20.5581
24.3698
44.0139
20.5741
20.6379
24.3086
44.0581
20.5759
339.282
339.129
23.8889
20.5694
42.731
20.6259
23.8936
20.5712
42.7144
86.1011
84.2408
20.871
86.0582
84.1789
47.324
191.064
47.3499
190.806
336.89
336.678
49.4556
193.793
49.2322
193.663
20.5599
20.5599
20.5598
20.558
20.5581
20.5582
20.5581
24.3698
44.0204
20.5741
20.6381
24.3086
44.078
20.576
339.296
339.132
23.89
20.5693
42.7311
20.6258
23.894
20.5711
42.7142
86.1019
84.2365
20.8711
86.0585
84.1646
47.323
191.058
47.3487
190.819
336.884
336.66
49.4557
193.789
49.2326
193.664
20.5599
20.5599
20.5598
20.5582
20.5582
20.5582
20.5581
24.3698
44.0151
20.5741
20.6379
24.3085
44.058
20.5759
339.296
339.143
23.8916
20.5693
42.7316
20.6259
23.8964
20.5711
42.7144
86.1008
84.2404
20.871
86.058
84.1789
47.3283
191.009
47.3561
190.785
336.892
336.677
49.4556
193.793
49.2322
193.664
20.5599
20.5599
20.5599
20.5581
20.5581
20.5582
20.5581
24.3698
44.0213
20.5741
20.6382
24.3086
44.0776
20.5759
339.292
339.128
23.8908
20.5693
42.7322
20.6259
23.8963
20.5711
42.7136
86.101
84.2371
20.871
86.0583
84.1652
47.3227
191.059
47.3495
190.819
336.888
336.657
49.4557
193.79
49.2328
193.665
20.5599
20.5599
20.5598
20.5581
20.5582
20.5582
20.5581
24.3698
44.0094
20.5741
20.6379
24.3086
44.0635
20.5759
339.297
339.134
23.8899
20.5693
42.7312
20.6259
23.8935
20.5711
42.7147
86.1006
84.2407
20.871
86.0634
84.179
47.3196
191.007
47.3498
190.786
336.9
336.681
49.4555
193.793
49.2324
193.664
20.5599
20.5599
20.5599
20.5582
20.5581
20.5582
20.5581
24.3698
44.0223
20.5741
20.6382
24.3086
44.0703
20.576
339.297
339.134
23.8952
20.5693
42.7313
20.626
23.896
20.5711
42.7146
86.1017
84.2366
20.871
86.0639
84.1648
47.3189
191.058
47.3228
190.817
336.881
336.658
49.4559
193.789
49.2329
193.664
20.5599
20.5599
20.5598
20.558
20.5582
20.5582
20.5581
24.3698
44.0137
20.5741
20.6379
24.3086
44.0575
20.5759
339.297
339.134
23.8936
20.5693