/*--------------------------------*- C++ -*----------------------------------*\
| =========                 |                                                 |
| \\      /  F ield         | OpenFOAM: The Open Source CFD Toolbox           |
|  \\    /   O peration     | Version:  2206                                  |
|   \\  /    A nd           | Website:  www.openfoam.com                      |
|    \\/     M anipulation  |                                                 |
\*---------------------------------------------------------------------------*/
FoamFile
{
    version     2.0;
    format      ascii;
    arch        "LSB;label=32;scalar=64";
    class       volVectorField;
    location    "0.1";
    object      U;
}
// * * * * * * * * * * * * * * * * * * * * * * * * * * * * * * * * * * * * * //

dimensions      [0 1 -1 0 0 0 0];

internalField   nonuniform List<vector> 
66621
(
(-1.45369e-05 -3.52459e-05 0.102753)
(-4.74078e-05 1.30157e-07 0.112809)
(-3.25168e-05 -4.82957e-06 0.102628)
(8.18071e-05 -7.63579e-08 0.115072)
(6.69903e-05 -1.98317e-05 0.113218)
(2.41824e-06 -1.42494e-06 0.115649)
(-1.18178e-05 8.2819e-06 0.0933549)
(-2.04066e-06 8.12504e-05 0.115115)
(4.98428e-06 -1.36986e-06 0.115624)
(-2.16977e-06 -2.06412e-07 0.115647)
(-2.21829e-05 6.51477e-05 0.113317)
(0.000274799 0.000277249 0.115563)
(2.31737e-05 2.20129e-05 0.10983)
(2.34346e-05 2.25608e-05 0.109946)
(-1.3901e-05 -1.54198e-05 0.0934381)
(-1.28081e-05 -7.10544e-06 0.0933563)
(-0.000279044 -0.000278558 0.115562)
(-2.49789e-05 -2.24238e-05 0.109899)
(-2.41847e-05 -2.10762e-05 0.109822)
(-5.62826e-06 3.87061e-06 0.115625)
(-2.16294e-05 -6.63751e-05 0.113244)
(2.47155e-05 -2.11588e-05 0.109827)
(1.24634e-05 -7.28644e-06 0.0933539)
(-8.15451e-05 -1.5049e-07 0.115071)
(2.17172e-06 3.10106e-06 0.115623)
(-6.71135e-05 -1.97118e-05 0.113219)
(-2.09656e-06 -9.44657e-07 0.11565)
(-4.74093e-05 5.35081e-08 0.112809)
(-3.21661e-05 6.22864e-06 0.102627)
(-8.15672e-05 1.66755e-07 0.115072)
(1.9477e-06 -2.82293e-06 0.115621)
(-6.43337e-07 1.53933e-06 0.11565)
(-6.72391e-05 2.10165e-05 0.113218)
(4.75594e-05 1.58805e-07 0.112809)
(3.22221e-05 -4.78113e-06 0.102628)
(8.17878e-05 2.91323e-07 0.115072)
(-1.09582e-06 -1.41817e-06 0.115621)
(1.0757e-06 1.56262e-06 0.115649)
(6.69362e-05 2.1075e-05 0.113217)
(4.75686e-05 1.10891e-07 0.112809)
(3.20847e-05 5.96769e-06 0.102628)
(-0.000271114 0.000277147 0.115564)
(-2.38062e-05 2.11971e-05 0.109831)
(-2.4248e-05 2.28841e-05 0.109944)
(-8.11437e-06 1.23261e-05 0.093501)
(1.63027e-06 8.13539e-05 0.115115)
(-3.77451e-06 -1.67849e-06 0.115625)
(1.53186e-06 -3.33846e-07 0.115647)
(2.23486e-05 6.61029e-05 0.113318)
(-8.14368e-07 5.5172e-05 0.112953)
(-5.60902e-06 3.36168e-05 0.102838)
(5.86642e-07 5.52467e-05 0.112953)
(6.02644e-06 3.38727e-05 0.102838)
(1.19401e-05 8.18095e-06 0.0933536)
(8.43332e-06 1.2144e-05 0.0935037)
(-6.67229e-06 -4.14439e-05 0.109278)
(1.06841e-07 -2.58404e-05 0.0914373)
(1.94946e-05 -2.23415e-06 0.0989712)
(-4.75511e-05 -4.77575e-07 0.112136)
(-1.63161e-05 1.5589e-06 0.101245)
(5.10139e-05 6.6434e-07 0.112779)
(5.09249e-05 2.635e-06 0.112098)
(1.91041e-05 -6.2078e-07 0.101186)
(-1.61015e-05 4.48268e-06 0.0990371)
(1.72272e-05 -7.42461e-07 0.0912081)
(-3.98549e-05 -3.67498e-06 0.109155)
(3.38622e-05 7.53899e-06 0.102538)
(4.05056e-05 5.77742e-06 0.109094)
(-1.55924e-05 2.90854e-06 0.0912963)
(1.39071e-05 -1.00032e-05 0.0932723)
(-2.0206e-05 -2.09931e-05 0.106108)
(1.00028e-05 8.38697e-06 0.0926784)
(8.85441e-06 9.66567e-06 0.0927422)
(-1.01837e-05 -9.70342e-06 0.0926036)
(-8.93908e-06 -1.07384e-05 0.0926673)
(1.99023e-05 2.01222e-05 0.106166)
(-5.95367e-05 -2.93439e-05 0.112357)
(1.94945e-05 9.69533e-06 0.10218)
(-2.4422e-05 -2.49201e-05 0.109784)
(7.58137e-05 4.1615e-05 0.114419)
(-7.80806e-05 -4.30125e-05 0.114401)
(-1.8812e-05 -1.14769e-05 0.102107)
(6.01268e-05 2.93127e-05 0.112398)
(-2.68468e-05 -6.03466e-05 0.112372)
(1.0032e-05 1.87651e-05 0.102148)
(-2.51222e-05 -2.45741e-05 0.1099)
(3.89914e-05 7.95223e-05 0.114453)
(-4.15254e-05 -8.03608e-05 0.114434)
(-1.02468e-05 -1.91904e-05 0.102075)
(2.62777e-05 6.09431e-05 0.112413)
(1.26806e-05 1.11113e-05 0.093275)
(1.93421e-05 2.15763e-05 0.106122)
(-1.04174e-05 -9.73269e-06 0.0927409)
(-1.16314e-05 -7.78059e-06 0.0926758)
(7.34404e-06 1.04623e-05 0.0926698)
(8.91667e-06 1.02311e-05 0.0926076)
(-2.26998e-05 -2.04203e-05 0.106148)
(2.82478e-05 6.1517e-05 0.112398)
(-1.33322e-05 -1.96517e-05 0.102232)
(-3.89446e-05 -7.18556e-05 0.114431)
(7.76512e-06 1.95883e-05 0.102188)
(-2.9303e-05 -6.20595e-05 0.112402)
(5.986e-05 2.84393e-05 0.112355)
(-2.10286e-05 -8.95049e-06 0.102079)
(2.37521e-05 2.6013e-05 0.109775)
(-7.88903e-05 -3.8513e-05 0.11442)
(1.80197e-05 1.17237e-05 0.102011)
(-6.39179e-05 -2.67444e-05 0.112374)
(7.85923e-05 4.29932e-05 0.114403)
(1.2519e-05 -8.05163e-06 0.0926791)
(2.12691e-05 -2.14267e-05 0.106154)
(2.20215e-05 -9.69859e-06 0.102161)
(7.92547e-05 -3.98176e-05 0.11442)
(6.10486e-05 -2.97243e-05 0.112394)
(1.91828e-05 3.0262e-06 0.0989701)
(-1.63425e-05 -1.23069e-06 0.101244)
(-4.84402e-05 1.07567e-06 0.112136)
(5.08857e-05 -3.07717e-07 0.112779)
(1.9101e-05 1.0474e-06 0.101185)
(5.00344e-05 -1.85686e-06 0.112098)
(-1.6535e-05 -3.80009e-06 0.0990362)
(1.73019e-05 1.87228e-06 0.0912083)
(-3.97713e-05 4.92223e-06 0.109155)
(3.4057e-05 -6.38463e-06 0.102537)
(4.07474e-05 -4.58665e-06 0.109094)
(-1.56364e-05 -1.80188e-06 0.0912969)
(4.77758e-05 -4.56601e-07 0.112137)
(1.63385e-05 1.52636e-06 0.101244)
(1.58856e-05 4.49437e-06 0.0990377)
(3.98474e-05 -3.66833e-06 0.109156)
(1.54956e-05 2.81995e-06 0.091297)
(1.63573e-05 -1.13263e-06 0.101243)
(4.85555e-05 1.20527e-06 0.112137)
(1.62889e-05 -3.72988e-06 0.0990367)
(3.97919e-05 5.03325e-06 0.109156)
(1.5442e-05 -1.6342e-06 0.0912973)
(1.95832e-05 -2.1524e-05 0.106108)
(-1.24347e-05 8.14449e-06 0.0926812)
(-8.55405e-06 1.01871e-05 0.0927367)
(9.52185e-06 -1.02892e-05 0.0926054)
(8.06045e-06 -1.05534e-05 0.0926617)
(-2.15742e-05 1.87461e-05 0.10617)
(6.02532e-05 -2.90928e-05 0.112345)
(-1.91827e-05 9.11031e-06 0.102093)
(2.47011e-05 -2.52114e-05 0.109772)
(-7.90405e-05 4.11662e-05 0.114425)
(1.91584e-05 -1.20024e-05 0.102008)
(7.98001e-05 -4.31436e-05 0.114402)
(-5.46196e-05 2.74095e-05 0.112394)
(2.77122e-05 -5.92255e-05 0.112386)
(-1.02389e-05 1.94434e-05 0.102232)
(2.53742e-05 -2.44617e-05 0.109911)
(-3.89142e-05 7.88587e-05 0.114449)
(4.22137e-05 -7.95201e-05 0.114433)
(9.9169e-06 -1.86868e-05 0.102174)
(-2.70561e-05 5.52218e-05 0.11242)
(9.1976e-06 -1.27246e-05 0.0934239)
(-3.44855e-06 -1.78687e-05 0.0992801)
(-2.06428e-06 5.29515e-05 0.112314)
(7.46629e-07 1.86297e-05 0.101551)
(-1.23284e-07 -5.36043e-05 0.112945)
(8.19743e-07 -5.27787e-05 0.11229)
(-1.25884e-06 -1.74099e-05 0.101514)
(3.20371e-06 1.75354e-05 0.0993333)
(-2.28399e-06 -1.63472e-05 0.0914885)
(-5.21619e-06 4.18682e-05 0.109412)
(5.11774e-06 -3.53195e-05 0.102751)
(3.44934e-06 -4.16827e-05 0.109354)
(1.55583e-06 1.58725e-05 0.0915744)
(3.32214e-06 -1.77701e-05 0.0992821)
(1.93121e-06 5.31564e-05 0.112313)
(-9.63075e-07 1.86642e-05 0.101552)
(-7.81533e-08 -5.35147e-05 0.112945)
(-9.7105e-07 -5.26404e-05 0.11229)
(1.08629e-06 -1.73671e-05 0.101515)
(-3.34756e-06 1.76378e-05 0.0993342)
(2.23297e-06 -1.61598e-05 0.0914892)
(5.27142e-06 4.21472e-05 0.109411)
(-4.8009e-06 -3.51438e-05 0.102752)
(-3.48775e-06 -4.14442e-05 0.109355)
(-1.57776e-06 1.60433e-05 0.0915728)
(-8.84618e-06 -1.32483e-05 0.0934251)
(5.34565e-06 1.99837e-06 0.115655)
(4.55956e-06 2.07206e-06 0.11566)
(4.16448e-07 2.02251e-08 0.11566)
(-1.84428e-06 -4.81665e-06 0.115659)
(-3.92833e-06 7.97744e-07 0.115655)
(-5.9418e-06 -3.89744e-07 0.11566)
(1.86899e-06 -2.80952e-07 0.11566)
(-6.29176e-07 -3.47034e-06 0.115659)
(-1.09483e-06 2.1822e-06 0.115655)
(1.85597e-06 1.03984e-06 0.115658)
(-1.21736e-06 -2.93655e-06 0.115657)
(1.84749e-06 -1.49297e-06 0.115655)
(1.01761e-06 1.89976e-06 0.115654)
(-2.28263e-06 5.97035e-07 0.115658)
(6.73364e-07 -3.00888e-06 0.115656)
(-1.99647e-06 1.06072e-06 0.115654)
(-0.000321766 2.19276e-06 0.115484)
(8.25774e-05 -9.82795e-07 0.114923)
(0.000317661 -6.92708e-08 0.115529)
(-8.39606e-05 5.54475e-08 0.115061)
(-8.47692e-05 2.05539e-06 0.114909)
(-0.000318056 5.53493e-08 0.115525)
(0.000316642 -2.7896e-06 0.115491)
(8.08078e-05 -5.98196e-06 0.114435)
(0.000289035 -1.61317e-05 0.115086)
(0.000321696 -4.22149e-06 0.115384)
(-4.66181e-06 -0.000316482 0.115505)
(6.54668e-07 0.000315138 0.115545)
(-4.07045e-06 8.14892e-05 0.114979)
(-6.26955e-08 -8.02684e-05 0.115115)
(-2.15157e-06 -0.000312693 0.115543)
(1.96351e-06 -8.14122e-05 0.114971)
(2.54052e-06 0.000314294 0.11551)
(-3.44806e-06 -0.000311495 0.1154)
(-8.52431e-06 7.90446e-05 0.114511)
(2.21164e-05 -6.85409e-05 0.113275)
(-1.09249e-05 0.000288496 0.115118)
(1.2713e-05 -0.000290292 0.115102)
(6.88126e-06 -7.7705e-05 0.114488)
(2.25212e-06 0.000320158 0.11541)
(-7.27167e-05 -7.27436e-05 0.11465)
(-0.000264394 -0.000266936 0.115559)
(6.6293e-05 0.000263964 0.115299)
(0.000259327 6.8072e-05 0.115307)
(-6.66096e-05 -0.000262106 0.115289)
(-0.000255792 -6.63681e-05 0.115297)
(7.59214e-05 7.66186e-05 0.114672)
(7.2486e-05 7.33724e-05 0.114655)
(0.000264646 0.000270309 0.115559)
(-0.000262758 -6.66276e-05 0.1153)
(-6.72594e-05 -0.000256979 0.115296)
(-7.34383e-05 -7.43413e-05 0.11466)
(0.000258874 6.88282e-05 0.115302)
(6.50021e-05 0.000260012 0.11529)
(-4.54308e-06 -8.32871e-05 0.11445)
(-2.03606e-05 -0.000287035 0.115095)
(-8.1875e-06 -0.000323249 0.115394)
(0.000321892 2.68768e-06 0.115485)
(-8.22577e-05 -9.26926e-07 0.114923)
(-0.000316525 -1.55429e-07 0.115529)
(8.40387e-05 9.11801e-08 0.115061)
(8.46695e-05 2.21052e-06 0.114908)
(0.00031826 2.42944e-07 0.115525)
(-0.000315736 -2.63072e-06 0.115491)
(0.000316093 4.73099e-06 0.115375)
(-8.1024e-05 -5.73597e-06 0.114435)
(6.83305e-05 2.20797e-05 0.113175)
(-0.000288551 -1.5817e-05 0.115088)
(8.0321e-05 7.18418e-06 0.11441)
(0.000292839 1.83211e-05 0.115073)
(-0.00032148 -3.6015e-06 0.115385)
(0.000317668 -1.56113e-06 0.115486)
(-0.000315866 3.48714e-07 0.115529)
(-8.35709e-05 1.46361e-06 0.114923)
(8.39501e-05 8.93578e-09 0.115061)
(0.000317719 7.08207e-07 0.115525)
(8.3808e-05 -1.41118e-06 0.114909)
(-0.000318434 2.48609e-06 0.115492)
(0.000315546 -4.24585e-06 0.115375)
(-8.16405e-05 7.16886e-06 0.114435)
(6.84281e-05 -2.08701e-05 0.113174)
(-0.00028692 1.70702e-05 0.115088)
(8.12869e-05 -5.79884e-06 0.11441)
(-0.000318707 4.02494e-06 0.115385)
(0.000291884 -1.84004e-05 0.115071)
(-0.000317203 -1.24733e-06 0.115486)
(0.000316798 5.66873e-07 0.115529)
(8.36272e-05 1.65783e-06 0.114923)
(-8.38236e-05 5.85186e-08 0.115061)
(-0.000317293 7.96501e-07 0.115525)
(-8.37003e-05 -1.26138e-06 0.114909)
(0.000319319 2.96242e-06 0.115492)
(-0.000315485 -3.69874e-06 0.115375)
(8.15268e-05 7.24805e-06 0.114435)
(-6.86083e-05 -2.10049e-05 0.113174)
(0.000287524 1.86409e-05 0.115086)
(-0.000291738 -1.81854e-05 0.11507)
(-8.12854e-05 -5.71995e-06 0.11441)
(0.000319051 4.82412e-06 0.115385)
(7.31773e-05 -7.38009e-05 0.114654)
(0.000265369 -0.000266227 0.115559)
(-6.50735e-05 0.000268573 0.1153)
(-0.000264845 6.81446e-05 0.115306)
(0.000257267 -6.5832e-05 0.115297)
(6.78596e-05 -0.000262083 0.115288)
(-7.55423e-05 7.95174e-05 0.114671)
(3.95462e-06 -0.000316152 0.115505)
(-1.21495e-06 0.000315501 0.115545)
(3.77111e-06 8.17203e-05 0.114979)
(-3.14105e-07 -8.01044e-05 0.115115)
(1.40131e-06 -0.000312457 0.115543)
(-2.22804e-06 -8.10797e-05 0.114971)
(-3.56016e-06 0.000314793 0.11551)
(2.87326e-06 -0.000310881 0.1154)
(8.35086e-06 7.99405e-05 0.114511)
(-2.17855e-05 -6.77066e-05 0.113276)
(1.1039e-05 0.000288915 0.115118)
(-1.22962e-05 -0.000289566 0.115102)
(-6.97721e-06 -7.7019e-05 0.114488)
(-3.43087e-06 0.000320957 0.11541)
(-6.32138e-06 -1.27032e-05 0.0703337)
(-3.72524e-06 -4.5153e-06 0.0505905)
(-2.37699e-06 -1.04117e-06 0.0325525)
(-1.41121e-06 2.19022e-08 0.0174351)
(-5.02419e-07 1.07521e-07 0.00533504)
(-8.81213e-06 -9.08737e-07 0.0703969)
(-3.72369e-06 -1.82418e-07 0.0506342)
(-1.52373e-06 -1.60508e-08 0.0325772)
(-4.94097e-07 5.54775e-09 0.0174463)
(-9.67976e-08 -1.23515e-08 0.00533791)
(-4.66935e-06 4.56937e-06 0.0728019)
(-1.60892e-06 2.48358e-06 0.0523528)
(-4.21279e-07 1.37726e-06 0.0337014)
(-1.93592e-09 6.83821e-07 0.0180672)
(3.08634e-08 2.16382e-07 0.0055368)
(-7.02786e-06 -7.25007e-06 0.0727769)
(-3.30251e-06 -2.65162e-06 0.0523371)
(-1.39334e-06 -7.83843e-07 0.0336931)
(-4.57114e-07 -1.89017e-07 0.0180641)
(-6.95571e-08 -4.62944e-08 0.00553652)
(-5.52136e-06 -3.51776e-06 0.0728031)
(-2.18486e-06 -1.62232e-06 0.0523533)
(-7.74546e-07 -7.93438e-07 0.0337013)
(-1.8041e-07 -3.73145e-07 0.0180665)
(-1.9472e-08 -1.24317e-07 0.00553648)
(5.32233e-06 -3.8161e-06 0.0728017)
(2.09429e-06 -1.96861e-06 0.0523538)
(7.13529e-07 -1.05471e-06 0.0337027)
(1.35162e-07 -5.1075e-07 0.0180684)
(9.48939e-10 -1.63898e-07 0.00553752)
(-8.49518e-06 2.03367e-06 0.0703973)
(-3.4577e-06 1.05171e-06 0.0506352)
(-1.33971e-06 5.85067e-07 0.0325779)
(-3.89288e-07 2.94314e-07 0.0174461)
(-6.28912e-08 1.02679e-07 0.00533768)
(8.76998e-06 -1.01491e-06 0.0703973)
(3.74258e-06 -3.40808e-07 0.0506356)
(1.53454e-06 -1.5976e-07 0.032579)
(4.84146e-07 -8.53995e-08 0.0174478)
(8.74722e-08 -4.31531e-08 0.00533855)
(8.36257e-06 2.03826e-06 0.0703982)
(3.42507e-06 1.16754e-06 0.0506353)
(1.32745e-06 7.07844e-07 0.032579)
(3.7131e-07 3.74425e-07 0.017448)
(5.27728e-08 1.30555e-07 0.00533886)
(-4.26228e-06 4.99601e-06 0.0727627)
(-2.2545e-06 1.7475e-06 0.0523304)
(-1.24658e-06 4.81732e-07 0.0336891)
(-6.31817e-07 2.81395e-08 0.0180612)
(-2.08115e-07 -2.55966e-08 0.00553533)
(-2.03041e-06 8.45145e-06 0.0703019)
(-1.20412e-06 3.42751e-06 0.0505776)
(-7.45158e-07 1.30388e-06 0.0325448)
(-4.0065e-07 3.58299e-07 0.0174303)
(-1.38415e-07 5.12918e-08 0.00533312)
(2.42594e-06 8.47125e-06 0.0703015)
(1.55017e-06 3.39731e-06 0.0505772)
(9.92487e-07 1.25196e-06 0.032545)
(5.44378e-07 3.1412e-07 0.0174299)
(1.89524e-07 3.16308e-08 0.0053329)
(4.80027e-06 4.5228e-06 0.0728013)
(1.69616e-06 2.50294e-06 0.0523528)
(4.77214e-07 1.38493e-06 0.0337019)
(2.90186e-08 6.7341e-07 0.0180676)
(-2.43847e-08 2.08754e-07 0.00553694)
(4.84954e-06 4.64637e-06 0.072764)
(2.82863e-06 1.4464e-06 0.0523306)
(1.68216e-06 2.55886e-07 0.0336882)
(8.8822e-07 -1.0834e-07 0.0180602)
(2.93085e-07 -7.2147e-08 0.00553454)
(6.70436e-06 -2.19294e-06 0.0719062)
(3.16673e-06 -1.80239e-06 0.0516353)
(1.4586e-06 -1.38364e-06 0.0332043)
(5.5186e-07 -8.88259e-07 0.0177838)
(1.35399e-07 -3.19843e-07 0.00544415)
(-4.50109e-06 1.12032e-06 0.0719179)
(-1.74675e-06 8.37118e-07 0.0516666)
(-7.04268e-07 5.61279e-07 0.0332387)
(-2.44045e-07 3.13173e-07 0.0178094)
(-6.84998e-08 9.86585e-08 0.00545454)
(5.79914e-06 -6.19039e-07 0.0718702)
(2.52961e-06 -5.24911e-07 0.051634)
(1.08534e-06 -4.12113e-07 0.0332195)
(3.71125e-07 -2.69942e-07 0.0178)
(8.43574e-08 -9.84331e-08 0.00545187)
(-5.58907e-06 3.59123e-06 0.0719592)
(-2.37987e-06 2.78972e-06 0.051671)
(-1.06472e-06 1.95578e-06 0.0332254)
(-4.28335e-07 1.14368e-06 0.0177942)
(-1.24683e-07 3.80666e-07 0.00544708)
(9.45011e-06 3.11716e-06 0.0703177)
(3.95886e-06 1.9147e-06 0.0505777)
(1.51959e-06 1.13208e-06 0.0325427)
(4.16656e-07 5.5736e-07 0.0174289)
(5.2421e-08 1.69603e-07 0.00533288)
(5.96506e-06 -5.89629e-06 0.0727335)
(2.26939e-06 -3.4879e-06 0.0523068)
(6.4447e-07 -2.0195e-06 0.0336742)
(1.38583e-08 -1.01307e-06 0.0180537)
(-5.99938e-08 -3.12313e-07 0.00553296)
(5.4297e-06 2.77761e-06 0.0706822)
(2.17198e-06 1.16637e-06 0.0508087)
(8.71304e-07 4.49443e-07 0.0326797)
(3.00843e-07 1.20506e-07 0.0174985)
(7.61368e-08 2.04637e-08 0.00535363)
(-5.41834e-06 -4.16106e-06 0.0706232)
(-2.18829e-06 -2.0769e-06 0.050768)
(-8.31647e-07 -9.73933e-07 0.0326553)
(-2.38895e-07 -3.72788e-07 0.0174863)
(-4.41174e-08 -8.89125e-08 0.00535015)
(3.2436e-06 5.21428e-06 0.0706404)
(1.56437e-06 1.97858e-06 0.0507849)
(7.58264e-07 6.84371e-07 0.0326662)
(3.19162e-07 1.70053e-07 0.0174918)
(9.25257e-08 2.74685e-08 0.00535168)
(-3.2705e-06 -5.87308e-06 0.0705815)
(-1.43798e-06 -2.5573e-06 0.0507442)
(-5.74216e-07 -1.07696e-06 0.0326418)
(-1.62816e-07 -3.75489e-07 0.0174797)
(-2.38653e-08 -8.87184e-08 0.00534818)
(5.02435e-06 6.77954e-06 0.072735)
(1.63096e-06 4.21881e-06 0.0523072)
(2.6307e-07 2.54631e-06 0.033674)
(-1.77658e-07 1.31664e-06 0.018053)
(-1.1486e-07 4.10508e-07 0.00553261)
(6.48606e-06 -2.54028e-06 0.0731605)
(3.35186e-06 -2.43801e-07 0.0525321)
(1.78383e-06 4.54385e-07 0.0337881)
(8.27922e-07 4.54639e-07 0.0181043)
(2.41617e-07 1.69844e-07 0.0055464)
(6.81422e-06 -2.3609e-06 0.0706855)
(3.10414e-06 -6.36274e-07 0.0508093)
(1.39703e-06 -1.01806e-07 0.0326804)
(4.95971e-07 3.60396e-08 0.0174995)
(1.04843e-07 9.47043e-09 0.00535408)
(6.632e-06 2.86623e-06 0.0719066)
(3.16163e-06 2.30769e-06 0.0516352)
(1.47508e-06 1.70123e-06 0.0332042)
(5.68171e-07 1.05227e-06 0.017784)
(1.42549e-07 3.69763e-07 0.00544419)
(-4.5118e-06 -8.77052e-07 0.0719176)
(-1.75321e-06 -7.00566e-07 0.0516663)
(-7.07706e-07 -5.12931e-07 0.0332384)
(-2.45696e-07 -3.09054e-07 0.0178092)
(-6.87076e-08 -1.03186e-07 0.00545448)
(5.81449e-06 1.03432e-06 0.0718699)
(2.54044e-06 8.36743e-07 0.0516337)
(1.09221e-06 6.00506e-07 0.0332192)
(3.74765e-07 3.61786e-07 0.0177998)
(8.58176e-08 1.25122e-07 0.0054518)
(-5.74783e-06 -3.09898e-06 0.0719598)
(-2.44258e-06 -2.47183e-06 0.0516711)
(-1.08334e-06 -1.78932e-06 0.0332254)
(-4.30695e-07 -1.07543e-06 0.0177945)
(-1.23749e-07 -3.65219e-07 0.00544714)
(9.76504e-06 -2.10238e-06 0.0703182)
(4.24641e-06 -1.07411e-06 0.0505787)
(1.7374e-06 -5.35124e-07 0.0325435)
(5.47056e-07 -2.14518e-07 0.0174288)
(9.61946e-08 -5.73417e-08 0.00533266)
(4.67249e-06 1.06814e-06 0.0719182)
(1.94532e-06 7.78155e-07 0.0516664)
(8.22105e-07 5.08272e-07 0.0332391)
(2.83351e-07 2.75873e-07 0.0178099)
(7.18744e-08 8.40586e-08 0.00545424)
(5.74263e-06 3.45685e-06 0.0719584)
(2.52415e-06 2.63727e-06 0.0516702)
(1.13614e-06 1.82318e-06 0.0332253)
(4.44068e-07 1.05462e-06 0.0177941)
(1.22036e-07 3.47218e-07 0.00544678)
(4.67786e-06 -7.63448e-07 0.0719172)
(1.94599e-06 -5.80205e-07 0.0516658)
(8.20877e-07 -4.06542e-07 0.0332382)
(2.8245e-07 -2.35194e-07 0.0178091)
(7.17527e-08 -7.43554e-08 0.00545412)
(5.87934e-06 -2.92196e-06 0.0719584)
(2.5715e-06 -2.27769e-06 0.0516701)
(1.1454e-06 -1.61771e-06 0.0332247)
(4.4142e-07 -9.58465e-07 0.0177938)
(1.19269e-07 -3.20754e-07 0.00544683)
(-5.08931e-06 4.5873e-06 0.0731617)
(-2.69375e-06 1.58065e-06 0.052531)
(-1.30459e-06 4.31261e-07 0.033786)
(-5.22264e-07 4.10743e-08 0.0181032)
(-1.33474e-07 -1.37237e-08 0.00554593)
(-3.00593e-06 5.36814e-06 0.070633)
(-1.2283e-06 2.15972e-06 0.0507805)
(-4.02442e-07 8.5364e-07 0.0326645)
(-6.69916e-08 3.12483e-07 0.0174918)
(1.06839e-09 8.90769e-08 0.00535219)
(3.14174e-06 -5.3695e-06 0.0705782)
(1.49338e-06 -2.24645e-06 0.0507419)
(7.15191e-07 -8.83791e-07 0.0326411)
(2.89159e-07 -2.61735e-07 0.0174801)
(7.77111e-08 -4.95503e-08 0.0053488)
(5.11447e-06 -5.23734e-06 0.0726973)
(2.99509e-06 -1.94418e-06 0.0522856)
(1.75679e-06 -5.40449e-07 0.0336623)
(9.00139e-07 -1.03583e-09 0.0180479)
(2.85932e-07 5.27995e-08 0.00553147)
(-3.11667e-06 -5.8904e-06 0.0717986)
(-2.53853e-06 -2.77937e-06 0.0515676)
(-1.90156e-06 -1.31578e-06 0.0331643)
(-1.18302e-06 -5.28002e-07 0.0177633)
(-4.13043e-07 -1.42684e-07 0.00543783)
(4.38761e-07 5.21412e-06 0.0717909)
(2.96761e-07 2.14946e-06 0.0515908)
(1.9838e-07 8.71129e-07 0.0331948)
(1.17478e-07 2.9028e-07 0.0177869)
(4.08109e-08 7.2217e-08 0.0054477)
(-1.16428e-06 -4.84101e-06 0.0717487)
(-9.70559e-07 -2.04315e-06 0.0515597)
(-7.25291e-07 -8.76131e-07 0.0331757)
(-4.45682e-07 -3.10866e-07 0.0177773)
(-1.51963e-07 -8.06534e-08 0.00544489)
(2.45186e-06 6.00877e-06 0.071847)
(1.89206e-06 2.5719e-06 0.051602)
(1.36529e-06 1.11263e-06 0.0331852)
(8.34956e-07 4.23009e-07 0.0177738)
(2.93036e-07 1.1662e-07 0.00544086)
(1.57012e-06 -9.60574e-06 0.070225)
(7.84018e-07 -4.1734e-06 0.0505223)
(3.8325e-07 -1.72706e-06 0.0325109)
(1.49942e-07 -5.53646e-07 0.0174132)
(4.55103e-08 -9.97251e-08 0.00532811)
(2.97757e-06 -5.79667e-06 0.0717995)
(2.39104e-06 -2.72053e-06 0.0515683)
(1.77616e-06 -1.28217e-06 0.0331652)
(1.10441e-06 -5.11943e-07 0.0177637)
(3.9018e-07 -1.39083e-07 0.0054378)
(-6.7132e-07 5.25209e-06 0.0717917)
(-5.20813e-07 2.17206e-06 0.0515912)
(-3.77469e-07 8.83823e-07 0.0331956)
(-2.26461e-07 2.96591e-07 0.0177876)
(-7.30431e-08 7.37551e-08 0.00544777)
(9.80428e-07 -4.81101e-06 0.0717495)
(7.86568e-07 -2.02244e-06 0.0515601)
(5.72808e-07 -8.6359e-07 0.0331765)
(3.50863e-07 -3.04693e-07 0.017778)
(1.23796e-07 -7.91822e-08 0.00544496)
(-2.6307e-06 6.08901e-06 0.0718476)
(-2.0693e-06 2.62457e-06 0.0516025)
(-1.50818e-06 1.14424e-06 0.033186)
(-9.21509e-07 4.38671e-07 0.0177742)
(-3.17402e-07 1.2024e-07 0.00544082)
(-1.29565e-06 -9.55926e-06 0.070225)
(-5.32268e-07 -4.18894e-06 0.0505222)
(-1.80042e-07 -1.76935e-06 0.0325113)
(-1.86051e-08 -5.9447e-07 0.0174128)
(4.27361e-09 -1.18557e-07 0.00532793)
(-4.80368e-06 -5.57939e-06 0.0726984)
(-2.64946e-06 -2.21528e-06 0.0522859)
(-1.44363e-06 -7.42618e-07 0.0336617)
(-6.86817e-07 -1.25068e-07 0.018047)
(-2.06285e-07 9.34345e-09 0.00553075)
(4.72999e-06 4.0633e-06 0.0731622)
(1.86158e-06 1.91939e-06 0.0525326)
(6.3771e-07 8.67087e-07 0.0337871)
(1.45395e-07 3.37654e-07 0.0181034)
(1.67224e-08 9.2586e-08 0.00554576)
(4.53737e-06 4.3994e-06 0.0731654)
(2.32038e-06 1.54819e-06 0.0525337)
(1.15931e-06 3.92795e-07 0.0337878)
(5.09545e-07 -1.34457e-09 0.0181034)
(1.49638e-07 -3.24039e-08 0.00554565)
(7.79176e-07 -1.65111e-05 0.0728121)
(1.46913e-06 -7.71514e-06 0.0524025)
(1.25777e-06 -3.12586e-06 0.0337507)
(7.42613e-07 -1.01249e-06 0.0180998)
(2.36462e-07 -1.75013e-07 0.00554846)
(9.7336e-06 -1.16003e-06 0.0727159)
(4.77629e-06 -1.20787e-06 0.0523401)
(2.14588e-06 -1.04474e-06 0.0337129)
(7.90173e-07 -7.11532e-07 0.0180802)
(1.82201e-07 -2.59786e-07 0.00554263)
(-9.14204e-06 3.42746e-06 0.0727966)
(-4.41977e-06 3.07685e-06 0.0523962)
(-2.05231e-06 2.29998e-06 0.0337466)
(-8.2739e-07 1.38246e-06 0.0180971)
(-2.18965e-07 4.63573e-07 0.00554751)
(-5.67232e-06 3.53337e-06 0.0731636)
(-2.4599e-06 1.51054e-06 0.0525321)
(-1.00055e-06 5.75663e-07 0.0337865)
(-3.27236e-07 1.67331e-07 0.0181029)
(-6.99379e-08 3.49762e-08 0.00554574)
(-5.33876e-06 2.31659e-06 0.0706896)
(-2.24507e-06 7.96793e-07 0.0508136)
(-1.00062e-06 2.63983e-07 0.0326831)
(-3.68964e-07 4.0723e-08 0.0175007)
(-9.29951e-08 -2.00821e-10 0.00535437)
(5.29847e-06 -4.38411e-06 0.070627)
(2.04566e-06 -2.40096e-06 0.0507712)
(6.48286e-07 -1.29419e-06 0.0326579)
(9.16317e-08 -5.99923e-07 0.0174882)
(-1.46049e-08 -1.74832e-07 0.00535081)
(-4.95031e-06 -4.98328e-06 0.0730985)
(-2.12513e-06 -2.56221e-06 0.0524895)
(-7.98108e-07 -1.18284e-06 0.0337616)
(-2.14226e-07 -4.36358e-07 0.0180908)
(-3.32001e-08 -9.81789e-08 0.00554215)
(-4.27688e-06 -5.49022e-06 0.0731016)
(-1.9839e-06 -2.57615e-06 0.0524904)
(-7.80022e-07 -1.12273e-06 0.0337621)
(-2.0929e-07 -4.0312e-07 0.0180907)
(-2.57413e-08 -9.54552e-08 0.00554201)
(-5.51736e-06 -4.54653e-06 0.0731617)
(-2.8995e-06 -1.58031e-06 0.0525323)
(-1.31372e-06 -4.17114e-07 0.0337876)
(-4.52084e-07 -7.69412e-08 0.0181036)
(-8.29797e-08 -2.3657e-08 0.00554556)
(-4.83445e-06 -5.99639e-06 0.0706415)
(-2.40181e-06 -2.22071e-06 0.0507859)
(-1.01718e-06 -7.07973e-07 0.0326683)
(-3.16412e-07 -2.04836e-07 0.0174939)
(-4.67546e-08 -5.79722e-08 0.00535277)
(1.65405e-06 5.44736e-06 0.0705836)
(3.26247e-07 2.42629e-06 0.0507446)
(-1.10914e-07 1.18951e-06 0.0326427)
(-1.83456e-07 5.10649e-07 0.0174808)
(-6.85165e-08 1.44283e-07 0.00534895)
(-6.02884e-06 -3.33255e-06 0.0731643)
(-2.81976e-06 -1.24253e-06 0.0525341)
(-1.23503e-06 -3.69403e-07 0.0337891)
(-4.39954e-07 -5.65211e-08 0.0181045)
(-9.70337e-08 -4.8726e-09 0.00554592)
(-6.36222e-06 -1.90134e-06 0.070685)
(-2.84645e-06 -3.94054e-07 0.0508116)
(-1.27539e-06 6.20981e-08 0.0326823)
(-4.90015e-07 1.32282e-07 0.0174999)
(-1.24722e-07 4.67225e-08 0.005354)
(4.82928e-06 4.75007e-06 0.0706265)
(1.66703e-06 2.76047e-06 0.050771)
(4.11208e-07 1.5645e-06 0.0326579)
(-2.49465e-08 7.50679e-07 0.0174877)
(-4.6293e-08 2.19527e-07 0.00535051)
(3.12395e-06 5.51026e-06 0.0731007)
(1.20243e-06 2.72676e-06 0.0524895)
(3.17905e-07 1.29805e-06 0.0337617)
(-6.7705e-10 5.19359e-07 0.0180906)
(-2.13827e-08 1.30006e-07 0.00554181)
(4.13098e-06 5.45735e-06 0.073102)
(1.45708e-06 3.0586e-06 0.052491)
(3.059e-07 1.62163e-06 0.0337632)
(-7.42444e-08 7.28104e-07 0.0180916)
(-6.0211e-08 2.02449e-07 0.00554221)
(9.91481e-06 2.21447e-06 0.0727163)
(4.93823e-06 2.01705e-06 0.0523404)
(2.26535e-06 1.57492e-06 0.0337134)
(8.61018e-07 9.97337e-07 0.0180804)
(2.06306e-07 3.49298e-07 0.00554231)
(-9.05052e-06 -2.47875e-06 0.0727972)
(-4.31907e-06 -2.39824e-06 0.0523966)
(-1.97402e-06 -1.88329e-06 0.0337472)
(-7.80819e-07 -1.17217e-06 0.0180973)
(-2.03458e-07 -4.02233e-07 0.0055472)
(9.27906e-06 3.19837e-06 0.0727969)
(4.50514e-06 2.83359e-06 0.0523971)
(2.08479e-06 2.10058e-06 0.033748)
(8.23534e-07 1.25981e-06 0.0180981)
(2.10689e-07 4.22186e-07 0.00554775)
(9.11581e-06 -2.19305e-06 0.0727978)
(4.36297e-06 -2.08909e-06 0.0523972)
(1.98198e-06 -1.62417e-06 0.0337477)
(7.63317e-07 -1.00913e-06 0.0180982)
(1.9053e-07 -3.44667e-07 0.00554794)
(4.37653e-06 -5.47267e-06 0.0731003)
(1.63556e-06 -3.00627e-06 0.052489)
(4.46911e-07 -1.52535e-06 0.0337608)
(9.74323e-09 -6.51037e-07 0.0180902)
(-3.53041e-08 -1.75378e-07 0.00554207)
(3.58258e-06 -5.67061e-06 0.073097)
(1.5162e-06 -2.78907e-06 0.0524872)
(4.9926e-07 -1.28228e-06 0.03376)
(7.30692e-08 -4.95038e-07 0.0180903)
(-1.19163e-08 -1.26712e-07 0.00554221)
(-2.46178e-06 -9.40652e-06 0.0727087)
(-2.24512e-06 -4.69399e-06 0.0523327)
(-1.78458e-06 -2.18579e-06 0.0337079)
(-1.14074e-06 -8.58718e-07 0.0180777)
(-3.99529e-07 -2.16066e-07 0.00554186)
(1.9755e-06 9.20828e-06 0.0727871)
(1.86018e-06 4.3422e-06 0.0523877)
(1.46445e-06 1.92897e-06 0.0337413)
(9.26849e-07 7.35755e-07 0.0180945)
(3.2611e-07 1.86487e-07 0.00554678)
(2.44961e-06 -9.26714e-06 0.0727092)
(2.22386e-06 -4.6182e-06 0.0523337)
(1.76323e-06 -2.15018e-06 0.0337088)
(1.12835e-06 -8.46488e-07 0.018078)
(3.99433e-07 -2.15392e-07 0.00554181)
(-1.9828e-06 9.31525e-06 0.0727867)
(-1.88453e-06 4.40227e-06 0.0523883)
(-1.49894e-06 1.96075e-06 0.0337419)
(-9.5376e-07 7.49373e-07 0.0180947)
(-3.32426e-07 1.8844e-07 0.00554669)
(2.81896e-06 8.49544e-06 0.0933313)
(1.16391e-05 1.08317e-05 0.093262)
(0.00026499 0.000272054 0.115559)
(1.91439e-05 2.37271e-05 0.109827)
(2.33934e-05 2.60648e-05 0.109756)
(5.12955e-05 5.89266e-07 0.112757)
(3.36492e-05 7.13128e-06 0.102522)
(8.49669e-05 9.32381e-08 0.115053)
(-1.74274e-06 4.28512e-06 0.11563)
(6.80445e-05 2.23641e-05 0.113156)
(4.96337e-07 2.50561e-06 0.115652)
(5.11814e-05 -2.45426e-07 0.112757)
(3.39212e-05 -6.00715e-06 0.102521)
(8.48767e-05 3.36895e-08 0.115053)
(-7.19311e-07 -1.56954e-06 0.11563)
(-4.15605e-06 -2.56145e-06 0.115653)
(6.8237e-05 -2.08309e-05 0.113154)
(2.66238e-06 -5.4004e-07 0.11563)
(-6.87193e-05 -2.13566e-05 0.113154)
(-3.4033e-05 -6.17266e-06 0.102522)
(1.31794e-05 -9.66486e-06 0.0932591)
(0.000266343 -0.00026457 0.115558)
(2.51617e-05 -2.35168e-05 0.109747)
(2.71268e-05 -2.4597e-05 0.109904)
(8.893e-06 -1.26917e-05 0.0934148)
(-1.53293e-06 -8.08118e-05 0.115114)
(-6.96791e-06 1.42826e-06 0.115632)
(-2.91209e-06 3.21449e-06 0.11565)
(2.20361e-05 -7.04725e-05 0.113264)
(1.14931e-06 -8.06489e-05 0.115114)
(5.45682e-06 1.08197e-06 0.115632)
(1.37715e-06 5.67144e-06 0.11565)
(-2.18381e-05 -6.74406e-05 0.113265)
(-1.50682e-07 -5.08637e-05 0.112942)
(4.40927e-06 -3.54885e-05 0.102741)
(-1.4437e-07 -5.07975e-05 0.112942)
(-4.05561e-06 -3.54742e-05 0.102741)
(-0.000263576 -0.000265864 0.115556)
(-2.4342e-05 -2.49423e-05 0.109765)
(-2.54523e-05 -2.44753e-05 0.109886)
(-1.24501e-05 -9.7613e-06 0.0932595)
(-8.40005e-06 -1.26272e-05 0.0934164)
(5.95977e-06 1.00025e-05 0.0926571)
(7.69398e-06 9.72506e-06 0.0925971)
(1.7755e-05 2.15386e-05 0.10611)
(5.88987e-06 1.82015e-05 0.102151)
(4.18596e-05 7.95901e-05 0.114401)
(2.61606e-05 5.8581e-05 0.112368)
(1.74527e-05 1.12352e-05 0.101996)
(7.83804e-05 4.3438e-05 0.114391)
(5.64527e-05 2.8377e-05 0.112338)
(-1.48093e-05 4.35551e-06 0.0990567)
(5.14228e-05 2.45103e-06 0.112074)
(1.86782e-05 -7.4899e-07 0.101172)
(-4.32966e-05 1.63986e-07 0.112828)
(1.84224e-05 -2.78409e-06 0.0989526)
(-4.33231e-05 1.05898e-07 0.112158)
(-1.46978e-05 1.43194e-06 0.101259)
(-1.43898e-05 3.10689e-06 0.0913159)
(4.07921e-05 5.73622e-06 0.109075)
(-2.81005e-05 -4.23327e-06 0.102646)
(1.62066e-05 -1.02967e-06 0.0911936)
(-3.61464e-05 -3.62229e-06 0.109173)
(-1.52032e-05 -3.78563e-06 0.099056)
(1.86925e-05 1.09599e-06 0.101171)
(5.06022e-05 -1.75041e-06 0.112074)
(-4.33316e-05 -4.62699e-08 0.112828)
(1.81611e-05 3.43509e-06 0.0989514)
(-1.47497e-05 -1.1423e-06 0.101259)
(-4.41402e-05 4.30795e-07 0.112159)
(-1.44422e-05 -2.17482e-06 0.0913165)
(4.10522e-05 -4.64239e-06 0.109074)
(-2.79844e-05 5.32269e-06 0.102645)
(1.63245e-05 1.99671e-06 0.0911939)
(-3.60634e-05 4.70748e-06 0.109173)
(1.42564e-05 -1.99724e-06 0.0913161)
(-4.13434e-05 -4.55162e-06 0.109075)
(2.76319e-05 5.35255e-06 0.102645)
(-1.66525e-05 2.22472e-06 0.0911936)
(3.58007e-05 4.87781e-06 0.109174)
(-1.04328e-05 7.63461e-06 0.0933716)
(-2.1492e-05 1.87357e-05 0.106195)
(8.80144e-06 -1.15459e-05 0.0926013)
(6.87636e-06 -8.89085e-06 0.0926459)
(1.88284e-05 -2.0743e-05 0.10609)
(-9.59152e-06 6.24312e-06 0.0926866)
(-9.04903e-06 9.27375e-06 0.0927628)
(-5.59893e-05 2.33211e-05 0.112404)
(1.8586e-05 -1.1963e-05 0.101988)
(7.79457e-05 -4.17043e-05 0.114387)
(-2.14203e-05 2.00091e-05 0.109837)
(-7.32075e-05 4.01558e-05 0.114429)
(5.82264e-05 -3.04073e-05 0.112306)
(-1.75715e-05 7.16416e-06 0.10211)
(-2.69026e-05 5.99316e-05 0.112455)
(1.02556e-05 -1.78422e-05 0.102165)
(4.68004e-05 -8.14596e-05 0.114427)
(-1.93178e-05 2.13799e-05 0.109966)
(2.8188e-05 -5.90474e-05 0.112382)
(-9.42095e-06 2.03052e-05 0.102251)
(-3.7283e-05 7.21721e-05 0.114462)
(-7.66828e-06 1.04706e-05 0.0935166)
(2.63103e-06 1.79637e-05 0.0993366)
(6.85119e-07 -5.14985e-05 0.112283)