/*--------------------------------*- C++ -*----------------------------------*\
| =========                 |                                                 |
| \\      /  F ield         | OpenFOAM: The Open Source CFD Toolbox           |
|  \\    /   O peration     | Version:  2206                                  |
|   \\  /    A nd           | Website:  www.openfoam.com                      |
|    \\/     M anipulation  |                                                 |
\*---------------------------------------------------------------------------*/
FoamFile
{
    version     2.0;
    format      ascii;
    arch        "LSB;label=32;scalar=64";
    class       volScalarField;
    location    "1";
    object      k;
}
// * * * * * * * * * * * * * * * * * * * * * * * * * * * * * * * * * * * * * //

dimensions      [0 2 -2 0 0 0 0];

internalField   nonuniform List<scalar> 
66928
(
0.000147403
0.000145203
0.000145818
0.000145956
0.000147405
0.000144928
0.00014733
0.00014749
0.000107306
0.00010725
2.69942e-05
2.66202e-05
6.41481e-05
6.31971e-05
4.27432e-05
0.000108403
4.17659e-05
0.000105348
0.000106799
0.00013026
0.0001409
4.17367e-05
0.000105322
0.000130356
0.000106713
0.000140856
2.66081e-05
6.32023e-05
6.42088e-05
2.70321e-05
0.000108428
4.27292e-05
2.70246e-05
2.69989e-05
2.66715e-05
2.66269e-05
6.42363e-05
6.33198e-05
0.000147404
6.41607e-05
6.32096e-05
2.70015e-05
2.70286e-05
2.6634e-05
2.66765e-05
0.000147358
6.41879e-05
6.32319e-05
6.42553e-05
6.33376e-05
2.70224e-05
0.000101906
0.000127373
6.42357e-05
4.22382e-05
4.23063e-05
0.000127502
0.000101769
0.000100501
0.000126201
6.33252e-05
4.1471e-05
4.15527e-05
0.000126369
0.000100336
4.94139e-05
2.43304e-05
2.42212e-05
2.43641e-05
2.42612e-05
4.93046e-05
4.27919e-05
6.36109e-05
6.36876e-05
2.53956e-05
6.18151e-05
2.47404e-05
9.61257e-05
3.8039e-05
3.45708e-05
6.17623e-05
2.47228e-05
3.80276e-05
9.60653e-05
3.455e-05
0.000100535
0.000126498
6.33323e-05
4.14392e-05
0.00012667
4.15223e-05
0.000100367
0.000101967
0.000127169
6.43011e-05
4.23274e-05
4.23955e-05
0.000127293
0.000101815
4.94427e-05
2.42229e-05
2.43694e-05
2.4264e-05
2.44059e-05
4.93351e-05
2.70618e-05
4.27806e-05
6.35172e-05
6.35854e-05
2.53494e-05
2.69961e-05
2.70276e-05
2.66236e-05
2.66744e-05
4.94274e-05
2.43419e-05
2.4228e-05
2.43766e-05
2.42676e-05
4.93229e-05
0.000101786
0.000127476
4.23029e-05
6.41494e-05
0.00010192
4.22416e-05
0.000127366
0.000100345
0.000126344
4.15508e-05
6.31986e-05
0.000100496
4.14758e-05
0.000126202
4.93132e-05
2.43703e-05
2.42637e-05
4.94164e-05
2.43356e-05
2.42234e-05
0.000101933
4.22514e-05
6.42432e-05
0.000127393
4.23123e-05
0.000101798
0.00012749
0.000100507
4.1483e-05
6.33276e-05
0.000126235
4.15581e-05
0.000100357
0.000126367
2.70307e-05
2.69992e-05
2.66809e-05
2.6629e-05
4.93343e-05
2.43812e-05
2.42709e-05
4.94367e-05
2.43462e-05
2.42311e-05
0.000101967
0.00012746
6.42697e-05
4.22689e-05
4.23298e-05
0.000127555
0.000101828
0.000100542
0.000126283
6.3349e-05
4.14956e-05
4.15702e-05
0.000126422
0.000100389
0.000101816
4.23198e-05
0.000127518
6.41732e-05
0.00010195
4.22588e-05
0.000127424
0.000100377
4.15623e-05
0.000126396
6.32189e-05
0.000100524
4.14873e-05
0.00012626
4.94471e-05
2.43525e-05
2.42369e-05
2.43872e-05
2.4276e-05
4.93447e-05
0.000133076
0.000147377
0.000147127
0.0001466
0.000147089
0.000146572
0.000132948
0.000133116
0.000147373
0.000147209
0.00014653
0.000147176
0.000146499
0.000132984
0.000132952
0.000147103
0.000146563
0.000147372
0.000133064
0.000147138
0.000146596
0.000133126
0.000147423
0.000147287
0.000146709
0.000147242
0.000146666
0.000133017
8.35855e-05
8.33333e-05
0.00014572
0.000140611
0.000108526
0.000128369
0.000140603
0.000128453
0.000145736
0.000145302
0.000140052
0.000106981
0.000126508
0.000140117
0.000126676
0.000145323
0.000146566
0.000140992
0.000136959
0.00014614
0.000137085
0.000146072
0.000146626
0.00014517
0.000139941
0.000106896
0.000126392
0.000126562
0.00014001
0.000145185
0.000146492
0.000140949
0.000146099
0.000136862
0.000146035
0.000136989
0.000146547
0.000146322
0.000141007
0.000108538
0.00012854
0.000141001
0.000128613
0.000146336
0.000133072
0.000147347
0.000147205
0.000146639
0.000132966
0.000147161
0.000146601
0.000132997
0.000147425
0.000147184
0.000146613
0.000133097
0.000147233
0.000146662
0.000107073
0.000145827
0.000144916
0.000147428
0.000106676
0.000146056
0.000145096
0.000147602
0.000106712
0.000146207
0.000145265
0.000147719
0.000106809
0.000146274
0.000145347
0.000147757
0.000106885
0.000146293
0.00014541
0.000147755
0.00010693
0.000146317
0.000145441
0.000147769
0.000106982
0.000146333
0.000145469
0.000147788
0.000107021
0.000146329
0.00014548
0.000147801
0.000107031
0.000146319
0.000145484
0.000147809
0.000107037
0.000146315
0.000145517
0.000147814
0.00010705
0.00014631
0.000145534
0.000147836
0.000107056
0.000146301
0.000145555
0.000147859
0.000107042
0.000146283
0.000145537
0.000147842
0.000107031
0.000146264
0.000145513
0.000147815
0.000107022
0.000146244
0.00014549
0.000147793
0.000107014
0.000146242
0.000145471
0.000147785
0.000107004
0.000146235
0.000145462
0.000147779
0.000145195
0.000145318
0.000145277
0.000145355
0.000147453
0.000147544
0.000145807
0.00014595
0.000145902
0.000146087
0.00014612
0.000145984
0.000146221
0.000147338
0.000147523
0.000145048
0.000145023
0.000145132
0.000147608
0.000147451
0.000147665
0.00014532
0.00014539
0.000145477
0.000145523
0.000147504
0.000147685
0.000145958
0.000146146
0.000146129
0.000146319
0.000146267
0.000146175
0.000146377
0.000147485
0.000147681
0.000145185
0.000145231
0.000145339
0.000147735
0.00014762
0.000147767
0.000145514
0.000145543
0.000145609
0.000145584
0.000147635
0.000147725
0.00014616
0.000146347
0.000146251
0.000146429
0.00014639
0.000146262
0.000146434
0.000147633
0.000147763
0.000145362
0.000145331
0.000145435
0.000147783
0.00014771
0.000147798
0.000145607
0.000145576
0.000145629
0.000145598
0.000147664
0.000147733
0.000146264
0.000146442
0.000146323
0.00014651
0.000146423
0.000146281
0.000146445
0.000147708
0.000147804
0.00014544
0.000145395
0.00014547
0.000147781
0.000147736
0.000147814
0.000145615
0.00014559
0.000145632
0.000145608
0.000147674
0.000147734
0.000146332
0.000146507
0.000146382
0.00014655
0.000146436
0.000146304
0.00014647
0.000147745
0.00014783
0.000145473
0.000145428
0.000145512
0.000147793
0.000147753
0.000147823
0.000145623
0.000145602
0.000145642
0.000145631
0.000147675
0.000147753
0.000146377
0.000146544
0.000146405
0.000146578
0.000146464
0.000146326
0.000146502
0.000147769
0.000147843
0.000145504
0.000145458
0.000145532
0.000147813
0.000147761
0.000147814
0.00014563
0.000145623
0.000145635
0.000145632
0.000147693
0.000147743
0.000146397
0.000146568
0.000146406
0.000146584
0.000146495
0.00014633
0.000146518
0.000147782
0.000147845
0.000145537
0.00014548
0.000145582
0.000147826
0.000147747
0.000147789
0.000145613
0.000145613
0.000145618
0.00014562
0.000147679
0.000147731
0.000146386
0.000146565
0.000146387
0.000146568
0.000146521
0.000146316
0.000146546
0.00014778
0.000147829
0.000145572
0.000145477
0.000145593
0.000147836
0.000147723
0.000147775
0.000145596
0.000145598
0.00014561
0.000145606
0.000147668
0.000147713
0.000146371
0.000146566
0.00014638
0.000146597
0.000146533
0.000146314
0.00014655
0.000147767
0.000147844
0.00014558
0.000145515
0.000145593
0.000147839
0.000147713
0.000147791
0.0001456
0.000145597
0.000145616
0.00014562
0.000147651
0.00014772
0.000146374
0.000146603
0.000146414
0.000146641
0.00014654
0.000146307
0.000146567
0.000147785
0.000147872
0.000145582
0.000145522
0.000145617
0.00014786
0.000147731
0.000147812
0.000145606
0.000145611
0.000145622
0.000145611
0.00014766
0.000147713
0.000146409
0.000146632
0.000146439
0.000146668
0.000146559
0.0001463
0.000146585
0.000147813
0.000147908
0.000145611
0.000145554
0.000145645
0.000147885
0.00014775
0.000147806
0.000145607
0.000145591
0.000145609
0.000145611
0.00014765
0.00014771
0.00014643
0.00014666
0.000146431
0.000146668
0.000146572
0.000146283
0.000146571
0.000147849
0.000147908
0.000145633
0.000145539
0.000145635
0.000147873
0.000147741
0.000147789
0.00014559
0.000145601
0.000145599
0.000145607
0.000147647
0.00014769
0.000146414
0.000146642
0.000146411
0.000146642
0.000146547
0.000146265
0.000146544
0.000147842
0.000147883
0.000145608
0.000145514
0.000145608
0.000147845
0.000147723
0.000147774
0.000145581
0.00014559
0.000145592
0.000145606
0.000147626
0.000147683
0.000146397
0.000146618
0.000146394
0.000146628
0.000146519
0.000146243
0.00014652
0.000147817
0.000147865
0.000145583
0.000145491
0.000145581
0.000147822
0.000147709
0.000147761
0.000145579
0.000145596
0.000145586
0.000145599
0.000147621
0.000147669
0.000146376
0.000146611
0.000146377
0.000146618
0.000146503
0.000146241
0.000146515
0.0001478
0.000147851
0.000145558
0.000145471
0.000145568
0.000147812
0.000147697
0.000147752
0.00014557
0.000145578
0.000145578
0.000145595
0.000147606
0.000147669
0.000146362
0.000146603
0.000146367
0.00014661
0.000146501
0.000146234
0.000146509
0.000147787
0.000147842
0.000145553
0.000145463
0.000145559
0.000147807
0.000147687
0.000145558
0.000145585
0.000147607
0.000146351
0.000146595
0.000146495
0.000146496
0.000147779
0.000145541
0.000145543
0.000147785
0.000108276
4.27895e-05
0.000108435
4.27228e-05
2.70185e-05
2.6984e-05
0.000105365
4.18518e-05
0.000105507
4.17754e-05
0.00010709
0.00010704
0.00010709
0.000106715
0.000106758
0.000106745
0.000106807
0.000141102
0.000106974
0.000130372
0.000145846
0.000106842
0.000130331
0.000141122
2.66591e-05
2.66138e-05
0.00014352
0.000128258
0.000108521
0.00014492
0.000128193
0.000108436
0.000143491
6.34414e-05
6.41979e-05
0.000147518
6.33275e-05
6.41339e-05
0.000108116
4.27432e-05
0.000108235
4.26786e-05
2.70193e-05
2.699e-05
0.000105418
4.18723e-05
0.00010557
4.17929e-05
0.000106715
0.000106711
0.000106774
0.000106685
0.000106716
0.000106714
0.000106773
0.000141283
0.000107062
0.000130362
0.000146088
0.000141327
0.000106919
0.000130384
2.66704e-05
2.66265e-05
0.000143711
0.000128216
0.000108593
0.000145128
0.000143674
0.00012824
0.00010852
6.34777e-05
6.42738e-05
0.000147679
6.33718e-05
6.42083e-05
0.000108056
4.27169e-05
0.000108144
4.26643e-05
2.70192e-05
2.69784e-05
0.000105451
4.18906e-05
0.0001056
4.18112e-05
0.000106719
0.000106718
0.000106772
0.00010679
0.000106791
0.000106791
0.000106841
0.000141336
0.000107116
0.000130458
0.00014622
0.000141423
0.000106958
0.00013045
2.66858e-05
2.6641e-05
0.000143804
0.000128348
0.000108663
0.000145279
0.000143788
0.000128358
0.00010858
6.35161e-05
6.43287e-05
0.000147765
6.33941e-05
6.4251e-05
0.000108046
4.27195e-05
0.000108118
4.26732e-05
2.70148e-05
2.69897e-05
0.000105462
4.19056e-05
0.000105633
4.18242e-05
0.000106797
0.000106799
0.000106846
0.00010687
0.000106856
0.000106859
0.000106883
0.000141333
0.000107131
0.000130483
0.000146267
0.00014144
0.00010696
0.000130472
2.66983e-05
2.6652e-05
0.000143815
0.000128408
0.000108703
0.000145354
0.000143839
0.000128413
0.00010861
6.35189e-05
6.43527e-05
0.000147779
6.33932e-05
6.42671e-05
0.000108067
4.27298e-05
0.00010813
4.26828e-05
2.70259e-05
2.69889e-05
0.000105466
4.19176e-05
0.000105633
4.1832e-05
0.000106846
0.00010687
0.000106888
0.00010691
0.000106897
0.000106935
0.000106948
0.000141313
0.000107124
0.000130504
0.000146287
0.000141418
0.000106956
0.000130493
2.67051e-05
2.66555e-05
0.000143811
0.000128449
0.000108719
0.000145404
0.000143849
0.000128452
0.000108616
6.3516e-05
6.43551e-05
0.000147782
6.33887e-05
6.42641e-05
0.000108095
4.27378e-05
0.000108157
4.26865e-05
2.70246e-05
2.69959e-05
0.000105464
4.19177e-05
0.000105628
4.18289e-05
0.00010689
0.000106945
0.000106956
0.000106962
0.000106945
0.000107016
0.00010702
0.000141304
0.00010712
0.00013053
0.000146311
0.000141401
0.000106942
0.000130522
2.67036e-05
2.66509e-05
0.000143802
0.000128484
0.000108712
0.000145434
0.000143842
0.000128488
0.000108604
6.35093e-05
6.43482e-05
0.000147798
6.33787e-05
6.42516e-05
0.000108102
4.27309e-05
0.000108176
4.26744e-05
2.70253e-05
2.69837e-05
0.000105453
4.19068e-05
0.000105624
4.18132e-05
0.000106937
0.00010701
0.000107028
0.00010701
0.000106982
0.000107048
0.000107084
0.000141298
0.000107092
0.000130564
0.000146324
0.000141401
0.000106912
0.000130553
2.66935e-05
2.66383e-05
0.000143799
0.000128533
0.000108689
0.00014546
0.000143834
0.000128523
0.000108577
6.34902e-05
6.43281e-05
0.000147816
6.33562e-05
6.42316e-05
0.000108099
4.27156e-05
0.000108174
4.26596e-05
2.70126e-05
2.6982e-05
0.000105423
4.18868e-05
0.000105602
4.17927e-05
0.000106968
0.000107053
0.000107089
0.000107031
0.000106993
0.000107092
0.000107137
0.000141266
0.000107055
0.000130572
0.000146311
0.000141379
0.000106875
0.000130551
2.66798e-05
2.66257e-05
0.000143801
0.000128559
0.000108666
0.000145463
0.000143836
0.000128546
0.000108555
6.34671e-05
6.43111e-05
0.000147829
6.33346e-05
6.42176e-05
0.000108082
4.27036e-05
0.000108164
4.26511e-05
2.70113e-05
2.69715e-05
0.000105371
4.1868e-05
0.000105553
4.17788e-05
0.000106975
0.000107093
0.000107122
0.000107033
0.00010699
0.000107126
0.000107137
0.000141218
0.000107022
0.00013057
0.000146307
0.000141333
0.000106845
0.000130555
2.66703e-05
2.66201e-05
0.00014378
0.000128569
0.000108638
0.000145487
0.000143816
0.000128555
0.000108529
6.34486e-05
6.42965e-05
0.000147833
6.33198e-05
6.42037e-05
0.000108074
4.27007e-05
0.000108149
4.26512e-05
2.70058e-05
2.69786e-05
0.000105377
4.18694e-05
0.000105535
4.17878e-05
0.000106972
0.000107112
0.000107123
0.000107046
0.000106989
0.000107137
0.000107152
0.000141212
0.000107004
0.000130569
0.000146302
0.000141309
0.000106831
0.000130548
2.66736e-05
2.66273e-05
0.000143754
0.000128582
0.000108627
0.000145505
0.000143789
0.00012857
0.000108528
6.34497e-05
6.42964e-05
0.000147843
6.33304e-05
6.42112e-05
0.000108073
4.2705e-05
0.000108148
4.26543e-05
2.70117e-05
2.69736e-05
0.000105389
4.18816e-05
0.000105551
4.17992e-05
0.000106972
0.000107124
0.000107141
0.000107056
0.000106992
0.000107162
0.000107176
0.000141189
0.000106988
0.000130567
0.000146299
0.000141297
0.000106824
0.000130552
2.66837e-05
2.66371e-05
0.000143758
0.000128604
0.000108645
0.000145527
0.000143793
0.000128595
0.000108551
6.34656e-05
6.431e-05
0.000147869
6.33454e-05
6.42258e-05
0.000108082
4.27068e-05
0.000108151
4.26561e-05
2.70087e-05
2.69809e-05
0.00010543
4.18867e-05
0.000105581
4.17971e-05
0.000106974
0.000107152
0.000107162
0.000107042
0.000106988
0.00010717
0.000107167
0.000141216
0.000106995
0.000130562
0.00014628
0.000141301
0.000106824
0.000130535
2.66873e-05
2.66345e-05
0.000143774
0.000128632
0.000108659
0.000145538
0.000143803
0.000128616
0.000108553
6.34671e-05
6.43124e-05
0.000147881
6.33344e-05
6.42164e-05
0.000108095
4.27071e-05
0.000108162
4.26565e-05
2.70139e-05
2.69751e-05
0.00010541
4.18774e-05
0.000105589
4.17876e-05
0.000106968
0.000107142
0.000107136
0.000107031
0.000106977
0.000107153
0.000107144
0.000141177
0.000106972
0.00013054
0.000146264
0.000141296
0.000106799
0.000130513
2.66797e-05
2.66278e-05
0.000143775
0.000128619
0.000108641
0.000145512
0.000143809
0.000128591
0.00010853
6.3448e-05
6.42934e-05
0.000147856
6.3318e-05
6.41981e-05
0.000108107
4.27085e-05
0.000108175
4.26585e-05
2.70093e-05
2.69815e-05
0.000105393
4.18688e-05
0.00010556
4.17802e-05
0.000106954
0.000107132
0.000107121
0.000107022
0.000106967
0.00010714
0.00010713
0.00014116
0.00010696
0.000130516
0.000146246
0.000141259
0.000106785
0.00013049
2.66743e-05
2.66229e-05
0.000143741
0.000128592
0.000108617
0.000145488
0.000143776
0.000128566
0.000108506
6.34359e-05
6.42782e-05
0.000147829
6.33074e-05
6.41845e-05
0.000108118
4.27099e-05
0.000108192
4.26594e-05
2.70142e-05
2.69751e-05
0.000105384
4.18623e-05
0.000105557
4.17738e-05
0.000106948
0.000107116
0.000107109
0.000107014
0.000106961
0.000107128
0.000107123
0.000141139
0.000106942
0.000130503
0.000146227
0.000141253
0.000106773
0.000130484
2.66706e-05
2.66197e-05
0.000143712
0.000128567
0.000108597
0.000145466
0.000143748
0.00012854
0.000108489
6.34286e-05
6.42679e-05
0.000147812
6.33026e-05
6.41758e-05
0.000108126
4.27102e-05
0.000108202
4.26595e-05
2.70086e-05
2.69804e-05
0.00010537
4.18577e-05
0.000105541
4.17703e-05
0.000106941
0.000107105
0.000107105
0.000107005
0.000106955
0.000107119
0.000107114
0.000141145
0.000106937
0.000130499
0.000146229
0.000141245
0.000106764
0.000130479
2.66685e-05
2.66182e-05
0.000143682
0.000128545
0.00010858
0.000145453
0.000143721
0.000128518
0.000108474
6.34273e-05
6.42624e-05
0.000147806
6.33011e-05
6.41717e-05
0.000108131
4.271e-05
0.000108205
4.26592e-05
2.70127e-05
2.69756e-05
0.000105371
4.18559e-05
0.00010553
4.17686e-05
0.000106935
0.0001071
0.000107094
0.000107095
0.000141142
0.00010693
0.000130493
0.000146222
0.000141221
0.000106763
0.000130473
2.66669e-05
2.66081e-05
0.000143667
0.000128529
0.00010857
0.000145443
0.000143705
0.000128506
0.000108466
6.3425e-05
6.42581e-05
0.0001478
6.32986e-05
6.41676e-05
0.000108263
4.27788e-05
4.27081e-05
0.000108423
0.000142748
0.000108475
0.000128206
0.000145197
0.000128117
0.000142643
0.000108332
0.000142737
0.000108495
0.00012829
0.000145313
0.000108345
0.000128188
0.000142632
0.000108323
4.26983e-05
0.000108179
4.27651e-05
0.000108311
4.26771e-05
4.27497e-05
0.000108168
0.00014282
0.000145223
0.000108315
0.000128077
0.000128088
0.000142901
0.000108422
0.00014281
0.000145321
0.000108288
0.00012813
0.000108424
0.000128149
0.000142891
6.41579e-05
6.3437e-05
0.000147479
6.40862e-05
6.33285e-05
2.66907e-05
2.66528e-05
2.69882e-05
2.70122e-05
0.000147432
6.40983e-05
6.33445e-05
6.41883e-05
6.34426e-05
2.66529e-05
2.67025e-05
0.000140979
0.000106954
0.000130167
0.000145808
0.000130129
0.000141003
0.000106806
0.000105339
4.18223e-05
4.17451e-05
0.000105482
0.000140935
0.000130259
0.000106868
0.000145962
0.000130218
0.000106721
0.00014096
0.000105535
4.17843e-05
0.000105398
4.18622e-05
0.000141097
0.000145835
0.000106834
0.000130122
0.000130119
0.000141076
0.000106975
0.00010551
4.17525e-05
4.18317e-05
0.000105372
0.000141052
0.000146014
0.000130206
0.00010675
0.000130206
0.000106891
0.000141031
0.000105433
4.18699e-05
4.17932e-05
0.000105573
0.000141106
0.000130392
0.000106916
0.000146122
0.000130359
0.00010678
0.000141146
0.000105453
4.18546e-05
4.1779e-05
0.0001056
0.000141222
0.000145926
0.000106888
0.000130333
0.000107019
0.000130328
0.000141208
0.000105607
4.18045e-05
4.18797e-05
0.000105478
0.000141218
0.00014616
0.000130366
0.000106812
0.000130356
0.00010695
0.000141189
0.000105622
4.17902e-05
4.18664e-05
0.000105482
6.33245e-05
6.42968e-05
0.000147429
6.32124e-05
6.42246e-05
2.70623e-05
2.70369e-05
2.6619e-05
2.66631e-05
0.000147389
6.3232e-05
6.42529e-05
6.33407e-05
6.43188e-05
2.70454e-05
2.70681e-05
0.000143508
0.0001283
0.000108534
0.000145044
0.000128232
0.000108438
0.000143487
0.000108301
4.27781e-05
4.27327e-05
0.000108342
0.000108295
4.27673e-05
4.27191e-05
0.000108336
0.000143568
0.000144967
0.000128185
0.000108482
0.000128181
0.000108541
0.000143627
0.000143558
0.000145067
0.000128217
0.000108484
0.000128217
0.000108545
0.000143611
0.000108387
4.27464e-05
4.27846e-05
0.000108364
0.00010838
4.27341e-05
4.27719e-05
0.000108357
2.66826e-05
2.66361e-05
2.70484e-05
2.70235e-05
0.00014748
6.33469e-05
6.41752e-05
6.34539e-05
6.42308e-05
2.66423e-05
2.6686e-05
2.7036e-05
2.70561e-05
2.70308e-05
2.70038e-05
2.66841e-05
2.66427e-05
6.42818e-05
6.33612e-05
0.000147582
6.42103e-05
6.32599e-05
2.70081e-05
2.70338e-05
2.66511e-05
2.66932e-05
0.000147543
6.42316e-05
6.32825e-05
6.43035e-05
6.33892e-05
0.000108104
4.27187e-05
0.00010822
4.26499e-05
0.000143019
0.000108408
0.000128063
0.000145376
0.000142955
0.000108301
0.000128064
0.000143008
0.000108371
0.000128118
0.00014544
0.000142945
0.000108248
0.000128118
0.000108173
4.26681e-05
4.27238e-05
0.000108077
0.000108162
4.26314e-05
4.26935e-05
0.000108066
0.000143064
0.000145435
0.000108308
0.000128117
0.000108397
0.000128082
0.000143117
0.000143053
0.000145493
0.000108245
0.000128143
0.000108342
0.000128127
0.000143107
6.41915e-05
6.34686e-05
0.000147622
6.41224e-05
6.3355e-05
2.67015e-05
2.66575e-05
2.69897e-05
2.70193e-05
0.000147581
6.41346e-05
6.33712e-05
6.42141e-05
6.34817e-05
2.66639e-05
2.67066e-05
0.000141154
0.000107004
0.000130137
0.000146026
0.00014119
0.000106867
0.000130197
0.000105392
4.18384e-05
0.00010554
4.17602e-05
0.000141107
0.000130213
0.000106919
0.000146211
0.000141144
0.000130266
0.00010678
0.000105583
4.18022e-05
4.18793e-05
0.00010543
0.00014126
0.000146084
0.000106894
0.000130281
0.000107036
0.000130254
0.000141196
0.000105557
4.17703e-05
4.18469e-05
0.000105405
0.000141211
0.000146271
0.000130353
0.000106809
0.000130326
0.00010695
0.000141148
0.0001055
4.18912e-05
0.000105647
4.18168e-05
0.000141256
0.000130398
0.000106981
0.000146311
0.0001413
0.000130445
0.000106842
0.000105498
4.18772e-05
0.000105649
4.18006e-05
0.000141387
0.00014615
0.000106945
0.000130441
0.000107089
0.000130419
0.000141322
0.000105666
4.18283e-05
4.19036e-05
0.000105516
0.000141358
0.00014635
0.000130494
0.000106866
0.00013048
0.000107012
0.000141285
0.000105662
4.18085e-05
4.18874e-05
0.000105507
6.33606e-05
6.43472e-05
0.00014761
6.32556e-05
6.42788e-05
2.70772e-05
2.70555e-05
2.66343e-05
2.66768e-05
0.00014757
6.32769e-05
6.43011e-05
6.33851e-05
6.43722e-05
2.70652e-05
2.70873e-05
0.000143698
0.000128221
0.000108594
0.000145243
0.000143653
0.000128266
0.000108529
0.000108418
4.27994e-05
0.000108448
4.27617e-05
0.000108412
4.27883e-05
0.00010844
4.27511e-05
0.000143741
0.000145195
0.000128324
0.000108555
0.000128299
0.000108626
0.000143756
0.000143733
0.000145296
0.00012835
0.000108569
0.000128318
0.000108637
0.000143766
0.000108502
4.27783e-05
4.2815e-05
0.000108463
0.000108495
4.27689e-05
4.28055e-05
0.000108459
2.66929e-05
2.66512e-05
2.70689e-05
2.7049e-05
0.000147632
6.33892e-05
6.42347e-05
6.34999e-05
6.43021e-05
2.66569e-05
2.67017e-05
2.70601e-05
2.70818e-05
2.7038e-05
2.70127e-05
2.6701e-05
2.66579e-05
6.43238e-05
6.34095e-05
0.000147725
6.42469e-05
6.3298e-05
2.70191e-05
2.70433e-05
2.66644e-05
2.67079e-05
0.000147676
6.42606e-05
6.33092e-05
6.43381e-05
6.34239e-05
0.000108045
4.26765e-05
0.000108129
4.26173e-05
0.000143189
0.000108409
0.000128117
0.000145542
0.000143151
0.000108322
0.000128125
0.000143174
0.000108342
0.000128135
0.000145555
0.000143139
0.000108242
0.00012814
0.000108122
4.26677e-05
4.27133e-05
0.000108046
0.000108111
4.2613e-05
4.26639e-05
0.000108032
0.000143186
0.000145586
0.000108336
0.000128162
0.000108422
0.000128151
0.000143207
0.000143173
0.000145578
0.000108234
0.00012816
0.000108333
0.000128159
0.000143196
6.42191e-05
6.34987e-05
0.000147715
6.41228e-05
6.3387e-05
2.67136e-05
2.66785e-05
2.69823e-05
2.70056e-05
0.000147659
6.41104e-05
6.33876e-05
6.42155e-05
6.34984e-05
2.66768e-05
2.67284e-05
0.000141228
0.000107062
0.000130293
0.0001462
0.000141295
0.000106918
0.000130308
0.000105426
4.18574e-05
0.000105571
4.17798e-05
0.000141179
0.000130366
0.000106978
0.000146377
0.000141246
0.000130382
0.000106834
0.000105619
4.18182e-05
4.18974e-05
0.000105467
0.000141328
0.000146232
0.000106936
0.000130344
0.000107086
0.000130334
0.000141258
0.000105594
4.1787e-05
4.18662e-05
0.000105443
0.000141279
0.00014641
0.000130418
0.000106851
0.000130409
0.000107001
0.00014121
0.000105534
4.19147e-05
0.000105682
4.18385e-05
0.000141296
0.000130499
0.000107031
0.000146402
0.000141379
0.000130509
0.000106874
0.000105519
4.18942e-05
0.000105672
4.18122e-05
0.00014143
0.000146248
0.000106965
0.000130476
0.000107125
0.000130458
0.000141345
0.000105699
4.18456e-05
4.19245e-05
0.000105539
0.000141389
0.000146427
0.000130532
0.000106871
0.000130528
0.000107036
0.000141299
0.000105682
4.18145e-05
4.18972e-05
0.000105519
6.34038e-05
6.43928e-05
0.000147729
6.32897e-05
6.4316e-05
2.7097e-05
2.70745e-05
2.66471e-05
2.66908e-05
0.000147679
6.3301e-05
6.43287e-05
6.34159e-05
6.44067e-05
2.70824e-05
2.7106e-05
0.000143791
0.000128366
0.000108675
0.000145389
0.000143761
0.000128385
0.000108598
0.000108499
4.28314e-05
0.000108542
4.27937e-05
0.000108493
4.2823e-05
0.000108537
4.27847e-05
0.000143804
0.000145315
0.000128398
0.000108599
0.000128386
0.000108682
0.000143807
0.000143791
0.000145419
0.000128423
0.000108617
0.000128412
0.000108701
0.000143813
0.000108576
4.28082e-05
4.28467e-05
0.000108523
0.00010857
4.27996e-05
4.28385e-05
0.000108518
2.67064e-05
2.66607e-05
2.70924e-05
2.70703e-05
0.000147709
6.33944e-05
6.42618e-05
6.35167e-05
6.43406e-05
2.66627e-05
2.671e-05
2.70777e-05
2.71022e-05
2.70495e-05
2.70244e-05
2.67138e-05
2.66694e-05
6.43517e-05
6.3434e-05
0.000147785
6.42724e-05
6.33166e-05
2.70278e-05
2.70546e-05
2.66732e-05
2.6719e-05
0.000147727
6.42768e-05
6.33222e-05
6.43622e-05
6.34411e-05
0.000108032
4.26627e-05
0.000108101
4.26181e-05
0.000143219
0.000108437
0.00012815
0.000145613
0.000143199
0.00010835
0.000128151
0.000143204
0.000108331
0.000128145
0.00014558
0.000143192
0.000108244
0.000128145
0.000108117
4.26783e-05
4.27235e-05
0.000108054
0.000108103
4.26238e-05
4.26689e-05
0.000108039
0.000143215
0.000145629
0.000108356
0.00012816
0.000108449
0.00012816
0.000143235
0.000143208
0.000145593
0.000108263
0.00012815
0.000108346
0.00012815
0.000143218
6.42027e-05
6.35064e-05
0.000147728
6.41322e-05
6.33772e-05
2.67243e-05
2.66764e-05
2.69951e-05
2.70204e-05
0.000147669
6.41434e-05
6.33794e-05
6.42233e-05
6.34994e-05
2.66781e-05
2.67244e-05
0.000141263
0.0001071
0.000130353
0.000146287
0.000141354
0.000106937
0.000130368
0.000105438
4.1873e-05
0.000105604
4.17931e-05
0.000141215
0.000130428
0.000107015
0.000146457
0.000141306
0.000130443
0.000106854
0.000105623
4.18309e-05
4.19104e-05
0.000105466
0.00014135
0.000146313
0.000106944
0.000130425
0.000107099
0.000130402
0.00014125
0.000105599
4.17992e-05
4.18791e-05
0.000105441
0.000141302
0.000146487
0.000130499
0.000106859
0.000130477
0.000107016
0.000141201
0.000105537
4.19306e-05
0.0001057
4.18505e-05
0.000141285
0.000130534
0.00010703
0.000146424
0.000141388
0.000130542
0.000106861
0.000105513
4.18993e-05
0.000105679
4.18163e-05
0.00014142
0.000146271
0.000106959
0.000130496
0.00010712
0.000130479
0.000141323
0.000105699
4.18554e-05
4.19356e-05
0.000105535
0.000141372
0.000146433
0.000130571
0.000106859
0.000130564
0.000107022
0.000141271
0.000105674
4.18184e-05
4.19013e-05
0.000105509
6.34267e-05
6.44186e-05
0.000147785
6.33082e-05
6.43366e-05
2.71136e-05
2.70885e-05
2.6655e-05
2.67012e-05
0.000147729
6.33115e-05
6.43404e-05
6.34324e-05
6.44252e-05
2.70918e-05
2.7119e-05
0.000143804
0.000128427
0.000108718
0.000145449
0.000143813
0.000128437
0.000108627
0.000108539
4.28604e-05
0.000108597
4.28188e-05
0.000108534
4.28526e-05
0.000108592
4.28096e-05
0.000143842
0.000145375
0.000128441
0.000108618
0.000128433
0.000108709
0.000143823
0.000143836
0.000145465
0.00012846
0.000108629
0.000128456
0.000108726
0.000143827
0.000108613
4.28262e-05
4.28702e-05
0.000108549
0.000108606
4.28161e-05
4.28614e-05
0.000108545
2.67116e-05
2.66649e-05
2.7109e-05
2.70834e-05
0.000147715
6.33919e-05
6.42668e-05
6.35153e-05
6.4354e-05
2.66655e-05
2.67139e-05
2.70855e-05
2.71141e-05
2.70571e-05
2.70291e-05
2.67217e-05
2.6674e-05
6.43641e-05
6.3445e-05
0.000147803
6.42743e-05
6.33209e-05
2.70299e-05
2.70586e-05
2.66739e-05
2.67225e-05
0.000147743
6.42747e-05
6.33202e-05
6.4362e-05
6.34433e-05
0.000108051
4.26739e-05
0.000108111
4.26287e-05
0.000143249
0.000108453
0.000128138
0.000145617
0.000143226
0.000108355
0.000128138
0.000143231
0.000108362
0.000128125
0.000145592
0.000143213
0.000108268
0.000128127
0.00010814
4.26871e-05
4.2733e-05
0.000108081
0.000108124
4.26348e-05
4.26794e-05
0.000108064
0.000143245
0.00014563
0.000108359
0.000128149
0.000108452
0.000128148
0.000143261
0.000143236
0.000145601
0.000108277
0.000128134
0.000108363
0.000128135
0.000143248
6.42286e-05
6.35046e-05
0.000147734
6.41372e-05
6.33872e-05
2.67267e-05
2.66877e-05
2.6993e-05
2.70169e-05
0.000147673
6.41266e-05
6.33812e-05
6.42319e-05
6.3497e-05
2.66793e-05
2.67361e-05
0.000141256
0.000107108
0.000130419
0.000146344
0.000141341
0.000106946
0.000130425
0.000105442
4.18843e-05
0.000105604
4.17996e-05
0.000141206
0.000130495
0.000107023
0.000146512
0.000141292
0.000130501
0.000106861
0.000105625
4.18322e-05
4.19164e-05
0.000105461
0.000141347
0.000146369
0.000106943
0.000130464
0.000107106
0.000130444
0.000141246
0.000105601
4.1799e-05
4.18839e-05
0.000105436
0.000141298
0.000146531
0.00013054
0.000106856
0.000130521
0.000107021
0.000141197
0.000105533
4.194e-05
0.000105695
4.18578e-05
0.000141263
0.00013056
0.000107019
0.000146439
0.00014136
0.000130563
0.000106852
0.000105505
4.19031e-05
0.000105669
4.18184e-05
0.0001414
0.000146292
0.000106956
0.000130516
0.00010712
0.0001305
0.000141305
0.000105694
4.18548e-05
4.19417e-05
0.000105529
0.00014135
0.000146453
0.000130588
0.00010685
0.000130575
0.000107012
0.000141251
0.000105666
4.18172e-05
4.19026e-05
0.000105501
6.3435e-05
6.44278e-05
0.000147816
6.33105e-05
6.43393e-05
2.71217e-05
2.70929e-05
2.66545e-05
2.67037e-05
0.000147759
6.33081e-05
6.43358e-05
6.3433e-05
6.4426e-05
2.7091e-05
2.71221e-05
0.000143803
0.000128462
0.000108726
0.000145479
0.000143822
0.000128468
0.000108626
0.000108554
4.28765e-05
0.000108621
4.28292e-05
0.000108548
4.28671e-05
0.000108616
4.2819e-05
0.00014384
0.000145411
0.000128476
0.000108613
0.000128469
0.000108712
0.000143818
0.000143834
0.000145498
0.000128492
0.000108624
0.000128485
0.000108723
0.000143824
0.000108624
4.28285e-05
4.28786e-05
0.000108555
0.000108619
4.28182e-05
4.28692e-05
0.000108551
2.6714e-05
2.66656e-05
2.71155e-05
2.70865e-05
0.000147722
6.33856e-05
6.4261e-05
6.35102e-05
6.435e-05
2.66636e-05
2.6714e-05
2.70844e-05
2.71162e-05
2.70584e-05
2.70274e-05
2.67215e-05
2.66715e-05
6.43616e-05
6.34421e-05
0.000147817
6.42686e-05
6.33152e-05
2.70232e-05
2.70556e-05
2.66668e-05
2.67188e-05
0.000147756
6.426e-05
6.33077e-05
6.43542e-05
6.34361e-05
0.000108078
4.26845e-05
0.000108138
4.26358e-05
0.000143265
0.000108456
0.000128134
0.000145626
0.000143255
0.000108357
0.000128134
0.000143244
0.000108376
0.000128113
0.000145606
0.000143246
0.000108281
0.000128113
0.000108167
4.26823e-05
4.27347e-05
0.000108102