/*--------------------------------*- C++ -*----------------------------------*\
| =========                 |                                                 |
| \\      /  F ield         | OpenFOAM: The Open Source CFD Toolbox           |
|  \\    /   O peration     | Version:  2206                                  |
|   \\  /    A nd           | Website:  www.openfoam.com                      |
|    \\/     M anipulation  |                                                 |
\*---------------------------------------------------------------------------*/
FoamFile
{
    version     2.0;
    format      ascii;
    arch        "LSB;label=32;scalar=64";
    class       volScalarField;
    location    "1";
    object      omega;
}
// * * * * * * * * * * * * * * * * * * * * * * * * * * * * * * * * * * * * * //

dimensions      [0 0 -1 0 0 0 0];

internalField   nonuniform List<scalar> 
66928
(
46.1323
36.3831
36.9692
36.998
46.2078
36.2247
46.0091
46.1452
23.4374
23.4231
399.209
400.637
199.071
200.743
293.86
148.334
295.755
159.769
150.782
28.5819
86.5981
295.767
159.768
28.604
150.747
86.5818
400.613
200.698
198.82
399.313
148.161
293.822
399.345
399.257
400.803
400.635
198.915
200.619
46.1197
198.87
200.703
399.256
399.366
400.635
400.794
46.0099
198.795
200.686
198.753
200.574
399.269
168.224
115.248
199.098
300.31
300.353
115.076
168.394
167.938
116.344
200.639
301.717
301.792
116.126
168.114
244.568
406.422
407.082
406.564
407.232
244.545
293.952
209.268
209.542
421.41
211.906
423.921
173.722
306.87
327.835
211.913
423.91
306.872
173.726
327.842
167.948
116.398
200.595
301.684
116.18
301.763
168.118
168.246
115.125
198.772
300.382
300.445
114.955
168.401
244.53
407.056
406.504
407.208
406.638
244.513
399.422
293.859
208.507
208.479
421.26
399.242
399.363
400.635
400.797
244.533
406.416
407.076
406.561
407.237
244.5
168.394
115.022
300.381
198.933
168.157
300.321
115.208
168.095
116.059
301.787
200.713
167.845
301.708
116.297
244.525
406.561
407.239
244.55
406.411
407.073
168.158
300.321
198.819
115.226
300.385
168.395
115.021
167.827
301.702
200.597
116.312
301.781
168.082
116.053
399.368
399.25
400.797
400.626
244.495
406.554
407.228
244.51
406.404
407.063
168.186
115.246
198.733
300.307
300.371
115.04
168.415
167.843
116.339
200.581
301.691
301.767
116.075
168.095
168.417
300.378
115.019
198.822
168.174
300.312
115.224
168.098
301.772
116.051
200.69
167.834
301.692
116.311
244.497
406.412
407.069
406.552
407.225
244.485
106.625
46.0465
72.7459
73.3001
72.5534
73.0778
106.835
106.66
46.1277
73.398
72.5518
73.1699
72.3539
106.866
106.832
72.5253
73.0325
46.0981
106.585
72.7321
73.2679
106.623
46.0338
72.8217
73.334
72.6036
73.0774
106.863
19.916
19.9137
63.0699
84.9713
148.231
112.261
84.7805
112.12
63.1014
64.796
86.9188
150.581
115.208
86.6523
114.966
64.964
55.12
86.3271
95.4023
50.0766
95.1439
49.8781
55.3144
64.7464
86.7982
150.545
115.176
114.933
86.5323
64.9181
55.0904
86.3116
50.0597
95.3769
49.863
95.1172
55.2876
62.7951
85.193
148.04
112.184
85.026
112.058
62.8446
106.572
46.0107
72.779
73.3001
106.82
72.5564
73.045
106.859
46.1176
72.5711
73.0495
106.595
72.7861
73.3001
23.4345
37.1432
36.225
46.0725
23.4319
37.0765
36.2643
46.1273
23.4495
37.0913
36.3244
46.2
23.475
37.1632
36.3974
46.3244
23.4787
37.1747
36.4208
46.3733
23.4753
37.1723
36.4304
46.39
23.4717
37.1678
36.4258
46.3753
23.47
37.165
36.4223
46.3709
23.4692
37.1618
36.4192
46.3736
23.4683
37.16
36.4171
46.3708
23.4675
37.1581
36.4155
46.3706
23.467
37.1572
36.4147
46.3667
23.4668
37.1568
36.4136
46.3704
23.4666
37.1568
36.4133
46.3683
23.4664
37.1553
36.4119
46.3681
23.4659
37.1549
36.4116
46.3655
23.4653
37.1536
36.4104
46.3669
36.3815
36.4606
36.3772
36.4359
46.1112
46.2283
36.9735
37
36.9967
37.0211
37.0127
37.0863
37.0192
46.0826
46.2082
36.2362
36.2457
36.2367
46.2135
46.0368
46.2023
36.3568
36.4196
36.3719
36.4241
46.1155
46.2597
37.0027
37.0274
37.0399
37.0732
37.0281
37.0672
37.0827
46.1022
46.2712
36.2448
36.3005
36.299
46.289
46.0949
46.3164
36.386
36.4282
36.4705
36.4884
46.1557
46.379
37.0535
37.0837
37.1332
37.1583
37.1027
37.1529
37.1748
46.163
46.3681
36.3179
36.3802
36.3955
46.407
46.2152
46.4009
36.4639
36.4766
36.4946
36.4977
46.2728
46.4094
37.1286
37.1513
37.162
37.1858
37.1651
37.1667
37.1901
46.2666
46.4481
36.3878
36.4135
36.4215
46.4732
46.2888
46.4126
36.4829
36.4849
36.5007
36.4966
46.298
46.4189
37.1506
37.1725
37.1722
37.1964
37.1767
37.1717
37.1956
46.3359
46.4608
36.4094
36.4284
36.431
46.487
46.3008
46.4071
36.487
36.4813
36.4979
36.4965
46.3007
46.4106
37.1595
37.1822
37.1674
37.1916
37.1788
37.1631
37.1886
46.3502
46.4543
36.4157
36.4241
36.427
46.4717
46.2913
46.4079
36.4839
36.4828
36.4957
36.4922
46.299
46.4088
37.1532
37.1752
37.164
37.187
37.1735
37.1639
37.1849
46.3384
46.4558
36.4114
36.4205
36.4226
46.4704
46.2927
46.4044
36.4814
36.478
36.493
36.4936
46.2905
46.4078
37.15
37.1715
37.1608
37.1837
37.1697
37.1575
37.1832
46.3411
46.4525
36.4075
36.417
36.4209
46.4729
46.2897
46.4027
36.4791
36.4799
36.491
36.4895
46.2953
46.4052
37.1471
37.1684
37.1584
37.1819
37.1679
37.158
37.1806
46.3381
46.4506
36.4056
36.4143
36.4177
46.4696
46.2878
46.3999
36.4766
36.4749
36.4889
36.4907
46.2871
46.4045
37.1446
37.1666
37.1563
37.1795
37.1654
37.153
37.1796
46.3363
46.4493
36.4029
36.4125
36.4171
46.4687
46.2853
46.3994
36.4753
36.4772
36.4879
36.4876
46.2922
46.4028
37.1427
37.1643
37.1553
37.179
37.1646
37.1542
37.178
46.3349
46.4486
36.4019
36.411
36.4144
46.4654
46.2848
46.3986
36.4741
36.4731
36.4876
36.4897
46.2848
46.4036
37.1418
37.1641
37.1547
37.1784
37.1632
37.1512
37.1786
46.3346
46.4487
36.4
36.4101
36.4157
46.469
46.2844
46.3989
36.4741
36.4764
36.4877
36.4877
46.2912
46.4023
37.1414
37.1633
37.1545
37.1778
37.1636
37.1548
37.1774
46.3345
46.4477
36.4006
36.41
36.4139
46.4668
46.2845
46.3976
36.474
36.4731
36.4872
36.4892
46.2843
46.4023
37.141
37.1627
37.1538
37.1769
37.1624
37.15
37.1769
46.3335
46.447
36.3992
36.4086
36.4142
46.4661
46.2832
46.397
36.4734
36.4757
36.4862
36.4858
46.29
46.4007
37.1402
37.1617
37.1525
37.1755
37.1619
37.1531
37.175
46.3328
46.4459
36.3992
36.4088
36.4118
46.4643
46.2825
46.3957
36.4723
36.4714
36.485
36.4879
46.2826
46.4014
37.1389
37.1604
37.1514
37.1745
37.1601
37.1481
37.1751
46.3317
46.4451
36.3972
36.4067
36.4123
46.465
46.2813
36.4714
36.4745
46.289
37.1379
37.1595
37.1603
37.1673
46.3308
36.3975
36.4034
46.4603
156.323
293.899
156.163
293.844
399.349
399.237
159.782
295.828
159.477
295.755
23.4496
23.426
23.4289
23.4324
23.4547
23.4569
23.4351
86.4818
150.387
28.736
37.1028
150.59
28.6991
86.2288
400.781
400.607
83.4212
27.7056
147.969
36.2264
27.6999
148.137
83.2872
200.439
198.85
46.177
200.512
198.889
156.439
293.861
156.282
293.812
399.365
399.253
159.836
295.83
159.542
295.76
23.4418
23.4543
23.4419
23.4504
23.4652
23.4666
23.4721
86.6038
150.43
28.6783
37.0648
86.2782
150.706
28.67
400.773
400.609
83.4891
27.737
148.005
36.2711
83.3407
27.7434
148.182
200.413
198.819
46.2588
200.518
198.883
156.535
293.861
156.368
293.823
399.387
399.245
159.898
295.849
159.591
295.786
23.4576
23.4718
23.4801
23.4771
23.4881
23.505
23.5059
86.7894
150.532
28.6855
37.1079
86.3929
150.853
28.6961
400.793
400.634
83.5717
27.7854
148.06
36.3365
83.393
27.797
148.265
200.456
198.841
46.3403
200.577
198.935
156.548
293.872
156.414
293.831
399.378
399.267
160
295.876
159.7
295.807
23.4757
23.4998
23.5008
23.483
23.4884
23.5065
23.5091
86.8854
150.637
28.7349
37.1506
86.5941
150.892
28.7243
400.814
400.649
83.7322
27.8448
148.165
36.3892
83.5549
27.8395
148.339
200.516
198.902
46.458
200.617
198.983
156.56
293.876
156.419
293.833
399.39
399.245
160.011
295.886
159.725
295.813
23.4734
23.4971
23.4992
23.48
23.4804
23.5038
23.5044
86.9338
150.663
28.7371
37.161
86.5872
150.92
28.7282
400.82
400.651
83.7704
27.8601
148.199
36.408
83.6368
27.8513
148.374
200.531
198.931
46.466
200.628
198.999
156.563
293.878
156.429
293.835
399.375
399.263
160.021
295.89
159.75
295.814
23.4655
23.4964
23.4954
23.4762
23.4779
23.5003
23.5009
86.902
150.668
28.7317
37.1538
86.6047
150.913
28.7181
400.819
400.649
83.7925
27.8637
148.225
36.4137
83.6739
27.8535
148.387
200.535
198.935
46.4713
200.628
199.002
156.562
293.879
156.429
293.836
399.386
399.242
160.021
295.889
159.739
295.815
23.4638
23.4938
23.4942
23.4744
23.477
23.5001
23.5006
86.9141
150.673
28.7267
37.1527
86.6102
150.92
28.7162
400.818
400.649
83.78
27.8594
148.23
36.4097
83.6691
27.8489
148.39
200.537
198.936
46.4713
200.631
199.002
156.556
293.881
156.424
293.838
399.373
399.262
160.024
295.891
159.746
295.817
23.4628
23.493
23.4936
23.4735
23.4761
23.4989
23.5004
86.9146
150.677
28.7248
37.149
86.6042
150.921
28.7145
400.819
400.65
83.7792
27.8565
148.233
36.4062
83.6651
27.8463
148.394
200.538
198.939
46.4653
200.633
199.006
156.552
293.883
156.418
293.84
399.385
399.242
160.028
295.893
159.749
295.819
23.462
23.4916
23.4933
23.4727
23.4754
23.4983
23.4992
86.914
150.678
28.7225
37.1469
86.6046
150.926
28.7124
400.819
400.65
83.7851
27.8562
148.235
36.4034
83.6666
27.8462
148.395
200.54
198.941
46.4628
200.634
199.007
156.548
293.885
156.415
293.842
399.374
399.265
160.031
295.895
159.752
295.821
23.4612
23.4908
23.4923
23.4718
23.4748
23.4975
23.499
86.9146
150.684
28.7209
37.1443
86.6051
150.928
28.7109
400.818
400.648
83.785
27.8548
148.239
36.4016
83.6672
27.8445
148.4
200.542
198.943
46.4603
200.636
199.01
156.543
293.884
156.41
293.842
399.401
399.262
160.034
295.897
159.755
295.823
23.4608
23.4897
23.4918
23.4713
23.4743
23.4971
23.498
86.9155
150.685
28.72
37.1435
86.6061
150.933
28.7099
400.816
400.646
83.7856
27.8531
148.242
36.4001
83.6682
27.8431
148.402
200.544
198.944
46.4604
200.638
199.009
156.54
293.883
156.407
293.841
399.397
399.29
160.036
295.899
159.757
295.824
23.4602
23.4899
23.4912
23.471
23.4739
23.4968
23.4982
86.9159
150.69
28.719
37.1421
86.6071
150.934
28.7089
400.814
400.644
83.787
27.8518
148.245
36.3994
83.6698
27.8419
148.406
200.545
198.946
46.4594
200.639
199.012
156.54
293.885
156.406
293.843
399.416
399.274
160.037
295.899
159.759
295.824
23.4601
23.4903
23.4912
23.4709
23.474
23.4964
23.4976
86.9168
150.69
28.7187
37.1423
86.6077
150.938
28.7086
400.812
400.642
83.7889
27.8513
148.246
36.3984
83.6695
27.8413
148.406
200.546
198.946
46.4597
200.639
199.011
156.538
293.886
156.406
293.844
399.406
399.295
160.039
295.899
159.76
295.824
23.4599
23.4899
23.4907
23.4707
23.4736
23.4959
23.4974
86.9173
150.695
28.7176
37.1412
86.6083
150.939
28.7075
400.811
400.64
83.7884
27.8505
148.248
36.3978
83.67
27.8404
148.409
200.546
198.947
46.458
200.64
199.013
156.534
293.888
156.398
293.845
399.419
399.276
160.04
295.899
159.761
295.824
23.4598
23.4893
23.4904
23.4702
23.4735
23.4954
23.4966
86.9181
150.693
28.715
37.1407
86.6091
150.942
28.7049
400.809
400.639
83.7901
27.8488
148.25
36.3965
83.6709
27.8386
148.41
200.547
198.947
46.4587
200.64
199.012
156.535
293.889
156.401
293.847
399.407
399.297
160.041
295.899
159.762
295.824
23.4593
23.4888
23.4897
23.4696
23.473
23.4947
23.4965
86.9194
150.698
28.7133
37.1392
86.6102
150.942
28.7036
400.808
400.637
83.7905
27.8482
148.253
36.396
83.6712
27.8383
148.412
200.547
198.948
46.4561
200.641
199.014
156.534
293.89
156.399
293.848
399.42
399.273
160.042
295.899
159.763
295.825
23.4591
23.4882
23.4895
23.4913
86.9208
150.696
28.7153
37.1392
86.611
150.947
28.7052
400.814
400.619
83.7935
27.8478
148.254
36.3952
83.674
27.8379
148.418
200.545
198.946
46.4578
200.654
199.025
156.335
293.91
293.85
156.175
83.5796
148.128
27.9372
36.3802
27.9085
83.3721
148.254
83.5883
148.269
27.9475
36.4409
148.392
27.9209
83.3832
156.202
293.822
156.396
293.875
156.212
293.825
293.88
156.401
83.4535
36.3807
148.25
27.8828
27.8989
83.6362
148.075
83.464
36.4406
148.387
27.893
148.215
27.9111
83.6491
199.062
200.492
46.2263
199.026
200.624
400.775
400.628
399.241
399.339
46.116
198.957
200.621
198.953
200.5
400.629
400.799
86.5729
150.477
28.5848
36.9814
28.593
86.2569
150.728
159.781
295.84
295.765
159.476
86.5553
28.6061
150.441
37.0035
28.6132
150.693
86.2413
159.504
295.756
159.815
295.823
86.2565
36.9893
150.745
28.6261
28.6106
86.6014
150.453
159.502
295.765
295.832
159.808
86.2393
37.0088
28.6458
150.71
28.6312
150.418
86.586
159.726
295.821
295.734
159.585
86.4973
28.6058
150.358
36.9999
28.6094
150.628
86.1762
159.756
295.835
295.758
159.486
86.1867
37.098
150.692
28.6859
150.334
28.6957
86.571
159.437
295.745
295.806
159.779
86.1873
37.002
28.6379
150.652
28.6243
150.356
86.5458
159.472
295.759
295.827
159.778
200.575
198.724
46.1815
200.657
198.784
399.419
399.295
400.605
400.765
46.0719
200.641
198.772
200.529
198.693
399.293
399.401
83.4463
27.7145
148.05
36.2135
27.7051
148.208
83.3187
156.329
293.86
293.809
156.209
156.337
293.868
293.813
156.219
83.283
36.2336
27.7224
148.167
27.7111
147.965
83.453
83.3058
36.2191
27.722
148.223
27.709
148.033
83.4662
156.192
293.799
293.843
156.327
156.201
293.803
293.845
156.335
400.776
400.594
399.449
399.322
46.0673
200.506
198.883
200.4
198.812
400.594
400.753
399.32
399.428
399.363
399.252
400.795
400.637
198.705
200.571
46.1725
198.777
200.688
399.264
399.364
400.653
400.8
46.0651
198.784
200.701
198.686
200.567
156.445
293.858
156.277
293.814
83.6492
148.075
27.857
36.3574
83.5008
148.251
27.8412
83.6582
148.21
27.8667
36.4191
83.5151
148.369
27.8502
156.309
293.817
293.849
156.48
156.313
293.821
293.851
156.479
83.5059
36.3644
148.267
27.8315
148.077
27.8371
83.6528
83.5146
36.4185
148.378
27.8389
148.188
27.845
83.6616
198.862
200.494
46.2342
198.932
200.579
400.78
400.619
399.261
399.367
46.125
198.933
200.592
198.844
200.473
400.636
400.781
86.6393
150.473
28.6338
37.0177
86.2891
150.761
28.644
159.831
295.834
159.528
295.767
86.6218
28.6539
150.438
37.0449
86.2748
28.6638
150.728
159.554
295.771
295.83
159.863
86.3244
37.0332
150.782
28.672
150.489
28.6639
86.6615
159.55
295.781
295.838
159.852
86.3067
37.0626
28.6897
150.749
28.684
150.455
86.6433
159.808
295.817
159.505
295.758
86.5764
28.6447
150.38
37.0486
86.2324
28.6579
150.672
159.801
295.83
159.498
295.767
86.2885
37.0646
150.779
28.6717
150.441
28.6697
86.6642
159.532
295.779
295.834
159.879
86.2633
37.0632
28.6837
150.713
28.67
150.402
86.6295
159.525
295.785
295.841
159.865
200.528
198.692
46.243
200.646
198.775
399.403
399.299
400.623
400.771
46.1375
200.66
198.793
200.526
198.69
399.315
399.411
83.4879
27.73
148.052
36.2648
83.3302
27.7452
148.236
156.328
293.836
156.191
293.801
156.333
293.839
156.201
293.803
83.3473
36.2919
27.7688
148.217
27.7618
148.011
83.5046
83.3488
36.2831
27.7673
148.247
27.7587
148.061
83.5062
156.192
293.814
293.841
156.342
156.199
293.817
293.842
156.347
400.756
400.602
399.428
399.327
46.1506
200.543
198.899
200.413
198.805
400.617
400.767
399.342
399.437
399.375
399.27
400.815
400.664
198.708
200.594
46.2461
198.811
200.734
399.28
399.382
400.678
400.827
46.1457
198.829
200.761
198.727
200.62
156.535
293.861
156.355
293.826
83.7164
148.099
27.8198
36.4059
83.5197
148.307
27.8193
83.7235
148.216
27.8273
36.4441
83.53
148.424
27.8271
156.403
293.829
293.861
156.544
156.406
293.83
293.863
156.553
83.5886
36.4502
148.352
27.8262
148.143
27.8223
83.7649
83.5971
36.48
148.447
27.8293
148.258
27.8289
83.778
198.874
200.524
46.3205
198.981
200.717
400.795
400.676
399.254
399.347
46.2237
198.986
200.737
198.939
200.603
400.679
400.849
86.7011
150.513
28.6666
37.0716
86.3466
150.825
28.6708
159.892
295.853
159.573
295.795
86.6801
28.6838
150.479
37.0999
86.3289
28.6876
150.792
159.625
295.8
295.858
159.964
86.3939
37.1093
150.893
28.7064
150.566
28.6847
86.7799
159.62
295.811
295.868
159.953
86.3734
37.1356
28.7223
150.859
28.7014
150.531
86.7604
159.957
295.853
159.615
295.794
86.7395
28.6984
150.451
37.121
86.3294
28.7119
150.779
159.944
295.859
159.602
295.798
86.4931
37.1322
150.904
28.7325
150.59
28.7173
86.8822
159.682
295.804
295.868
159.986
86.4473
37.1586
28.7462
150.831
28.7395
150.518
86.8432
159.671
295.809
295.871
159.978
200.555
198.722
46.3058
200.694
198.827
399.428
399.328
400.646
400.797
46.205
200.721
198.853
200.581
198.749
399.34
399.44
83.5618
27.7823
148.083
36.3363
83.3725
27.7961
148.306
156.403
293.856
156.217
293.828
156.406
293.858
156.225
293.832
83.4449
36.3617
27.8341
148.323
27.8207
148.104
83.6554
83.4363
36.3753
27.8345
148.362
27.824
148.145
83.6453
156.282
293.84
293.869
156.453
156.286
293.845
293.872
156.456
400.781
400.629
399.453
399.356
46.2393
200.606
198.96
200.474
198.865
400.639
400.792
399.368
399.467
399.389
399.279
400.839
400.68
198.753
200.654
46.3699
198.844
200.782
399.284
399.389
400.686
400.841
46.265
198.847
200.788
198.757
200.663
156.558
293.868
156.417
293.831
83.774
148.184
27.8179
36.4685
83.628
148.373
27.8188
83.7887
148.274
27.8208
36.4789
83.6436
148.449
27.8216
156.413
293.833
293.867
156.549
156.421
293.835
293.869
156.56
83.6298
36.4866
148.382
27.8273
148.201
27.8256
83.7613
83.6447
36.4917
148.454
27.8283
148.274
27.8277
83.7771
198.899
200.611
46.399
198.978
200.685
400.829
400.658
399.267
399.377
46.2887
198.966
200.665
198.889
200.573
400.657
400.817
86.879
150.629
28.7053
37.1345
86.4835
150.931
28.7108
159.993
295.882
159.681
295.817
86.8569
28.7215
150.595
37.1565
86.4649
28.7271
150.898
159.715
295.811
295.876
160.004
86.5714
37.1535
150.944
28.7315
150.66
28.7287
86.8952
159.71
295.823
295.887
159.993
86.5499
37.1756
28.7472
150.911
28.7451
150.626
86.8762
159.99
295.875
159.702
295.806
86.8544
28.738
150.561
37.1686
86.5344
28.7392
150.845
159.983
295.88
159.696
295.812
86.5523
37.1534
150.925
28.7316
150.618
28.7245
86.8724
159.705
295.81
295.877
160
86.5253
37.1828
28.7459
150.855
28.7436
150.57
86.8388
159.697
295.817
295.883
159.992
200.615
198.779
46.4181
200.742
198.871
399.451
399.344
400.653
400.809
46.3142
200.748
198.881
200.624
198.788
399.35
399.455
83.7127
27.83
148.197
36.3921
83.5201
27.8331
148.399
156.484
293.88
156.326
293.845
156.486
293.885
156.332
293.853
83.5964
36.3963
27.856
148.358
27.8442
148.164
83.7559
83.5816
36.4097
27.8536
148.428
27.8467
148.231
83.7505
156.353
293.85
293.884
156.496
156.356
293.86
293.892
156.501
400.8
400.64
399.477
399.373
46.3487
200.624
198.995
200.507
198.91
400.642
400.801
399.377
399.482
399.392
399.279
400.845
400.683
198.769
200.678
46.4017
198.854
200.798
399.282
399.389
400.685
400.843
46.289
198.851
200.799
198.764
200.677
156.573
293.873
156.424
293.834
83.779
148.208
27.8182
36.4848
83.6205
148.386
27.8189
83.795
148.28
27.8166
36.4865
83.6381
148.457
27.8179
156.427
293.835
293.87
156.562
156.438
293.834
293.87
156.575
83.6414
36.497
148.39
27.8271
148.213
27.8262
83.7871
83.658
36.4964
148.458
27.8269
148.285
27.826
83.8055
198.903
200.587
46.42
198.996
200.756
400.813
400.682
399.252
399.345
46.3114
198.992
200.754
198.952
200.635
400.676
400.853
86.8776
150.669
28.7205
37.153
86.5675
150.952
28.7205
160.004
295.892
159.708
295.824
86.856
28.7361
150.636
37.1743
86.5495
28.7361
150.92
159.729
295.816
295.882
160.029
86.5611
37.1651
150.97
28.7322
150.681
28.7259
86.9183
159.723
295.828
295.894
160.019
86.5394
37.1866
28.7492
150.941
28.7429
150.649
86.8986
160.018
295.88
159.72
295.81
86.8907
28.7377
150.583
37.1787
86.5267
28.7398
150.87
160.01
295.887
159.713
295.817
86.6132
37.1635
150.935
28.7316
150.641
28.7287
86.9108
159.731
295.812
295.881
160.006
86.5765
37.1921
28.7479
150.872
28.748
150.595
86.8843
159.724
295.819
295.887
160.001
200.639
198.804
46.4462
200.759
198.888
399.46
399.349
400.652
400.811
46.3348
200.759
198.89
200.639
198.802
399.352
399.459
83.7706
27.8469
148.256
36.4114
83.6141
27.8485
148.44
156.511
293.889
156.363
293.852
156.517
293.898
156.371
293.861
83.6305
36.4124
27.8625
148.386
27.8538
148.198
83.793
83.6333
36.4249
27.8603
148.448
27.8585
148.267
83.7917
156.38
293.855
293.891
156.521
156.386
293.863
293.898
156.527
400.803
400.639
399.485
399.377
46.354
200.63
199.001
200.517
198.923
400.639
400.8
399.377
399.484
399.39
399.277
400.844
400.676
198.771
200.686
46.4154
198.853
200.801
399.279
399.386
400.68
400.837
46.3006
198.849
200.798
198.763
200.678
156.576
293.871
156.436
293.833
83.7872
148.215
27.8177
36.4878
83.6449
148.387
27.8181
83.8051
148.282
27.8177
36.482
83.6652
148.454
27.8182
156.43
293.836
293.871
156.562
156.44
293.836
293.871
156.573
83.646
36.4955
148.387
27.8276
148.212
27.8252
83.788
83.6636
36.4914
148.457
27.828
148.279
27.8264
83.8045
198.904
200.624
46.3993
198.98
200.694
400.825
400.649
399.263
399.373
46.2875
198.966
200.67
198.891
200.58
400.646
400.808
86.9324
150.695
28.7232
37.1609
86.6074
150.964
28.7241
160.015
295.897
159.734
295.826
86.9141
28.7406
150.665
37.1832
86.5895
28.7416
150.934
159.732
295.815
295.882
160.018
86.6036
37.1665
150.96
28.7282
150.686
28.728
86.9007
159.727
295.828
295.895
160.008
86.5859
37.1899
28.7451
150.929
28.7451
150.654
86.8835
160.009
295.881
159.719
295.809
86.8674
28.7323
150.594
37.1798
86.5557
28.7321
150.866
160.002
295.888
159.715
295.817
86.5781
37.1535
150.936
28.7258
150.634
28.7193
86.9037
159.725
295.811
295.88
160.013
86.5462
37.1845
28.7419
150.87
28.7399
150.59
86.87
159.717
295.819
295.887
160.006
200.648
198.811
46.4643
200.761
198.892
399.461
399.35
400.651
400.809
46.3502
200.758
198.893
200.64
198.805
399.353
399.46
83.7977
27.8516
148.272
36.4159
83.6535
27.8522
148.444
156.523
293.893
156.385
293.855
156.529
293.9
156.394
293.861
83.648
36.4143
27.8594
148.391
27.854
148.206
83.795
83.6556
36.4229
27.8585
148.448
27.8579
148.269
83.7949
156.388
293.857
293.893
156.521
156.395
293.863
293.899
156.527
400.8
400.635
399.484
399.376
46.3529
200.631
199.002
200.517
198.925
400.636
400.797
399.377
399.484
399.387
399.275
400.839
400.676
198.77
200.686
46.4042
198.853
200.803
399.277
399.384
400.68
400.837
46.2919
198.85
200.802
198.764
200.681
156.574
293.874
156.435
293.834
83.7881
148.212
27.8186
36.4848
83.646
148.385
27.8192
83.8045
148.281
27.8192
36.4839
83.6641
148.452
27.8198
156.428
293.838
293.873
156.559
156.438
293.834
293.87
156.571
83.6467
36.4932
148.388
27.8283
148.211
27.8266
83.7878
83.6632
36.4907
148.453
27.8282
148.278
27.8272
83.8045
198.902
200.591
46.4158
198.995
200.758
400.802
400.669
399.249
399.343
46.3056
198.991
200.757
198.951
200.637
400.663
400.841
86.9061
150.685
28.7175
37.1544
86.5778
150.963
28.7177
160.015
295.897
159.723
295.828
86.8853
28.7334
150.652
37.1757
86.5611
28.7346
150.931
159.736
295.817
295.884
160.025
86.5871
37.1616
150.967
28.7257
150.688
28.7234
86.9109
159.73
295.831
295.897
160.016
86.5666
37.182
28.7437
150.937
28.7424
150.656
86.8932
160.015
295.88
159.728
295.809
86.8789
28.7321
150.595
37.1743
86.5518
28.733
150.872
160.008
295.889
159.721
295.818
86.5838
37.1537
150.941
28.7235
150.639
28.7168
86.8968
159.729
295.812
295.88
160.015
86.5552
37.1808
28.7387
150.873
28.7384
150.596
86.8671
159.723
295.82
295.888
160.008
200.647
198.814
46.4498
200.764
198.895
399.462
399.351
400.652
400.809
46.3388
200.762
198.897
200.643
198.809
399.353
399.461
83.7859
27.8466
148.271
36.4115
83.6519
27.8481
148.441
156.522
293.895
156.384
293.856
156.527
293.9
156.393
293.861
83.6391
36.4097
27.8556
148.394
27.8494
148.208
83.7914
83.6442
36.418
27.8554
148.447
27.8537
148.266
83.7896
156.388
293.859
293.894
156.524
156.394
293.863
293.899
156.529
400.797
400.632
399.484
399.376
46.3555
200.633
199.005
200.52
198.926
400.633
400.794
399.377
399.484
399.385
399.273
400.839
400.676
198.771
200.689
46.4013
198.854
200.806
399.276
399.382
400.679
400.837
46.288
198.851
200.804
198.765
200.684
156.569
293.872
156.432
293.834
83.7835
148.212
27.819
36.4821
83.6451
148.384
27.8194
83.8014
148.277
27.8194
36.4792
83.6639
148.451
27.82
156.422
293.84
293.875
156.552
156.432
293.837
293.872
156.564
83.6413
36.4896
148.386
27.828
148.209
27.8262
83.7813
83.6591
36.4894
148.454
27.8284
148.277
27.8273
83.7983
198.904
200.627
46.3949
198.98
200.697
400.813
400.637
399.262
399.372
46.2846
198.966
200.673
198.89
200.584
400.635
400.796
86.9091
150.691
28.7152
37.1511
86.5898
150.965
28.7159
160.018
295.9
159.73
295.83
86.8893
28.7335
150.66
37.1721
86.5735
28.7342
150.933
159.738
295.819
295.886
160.028
86.5867
37.1579
150.97
28.7229
150.69
28.7209
86.9057
159.733
295.834
295.9
160.019
86.5665
37.1783
28.7405
150.939
28.7396
150.658
86.8873
160.02
295.881
159.731
295.809
86.8767
28.7289
150.596
37.1706
86.5475
28.7296
150.873
160.012
295.89
159.724
295.819
86.5858
37.1485
150.941
28.7208
150.641
28.7144
86.8986
159.734
295.811
295.879
160.019
86.5545
37.1788
28.7371
150.877
28.7362
150.598
86.8694
159.727
295.821
295.889
160.012
200.65
198.817
46.4481
200.766
198.897
399.462
399.349
400.652
400.81
46.3359
200.765
198.896
200.645
198.81
399.35
399.459
83.7856
27.8465
148.272
36.408
83.648
27.847
148.448
156.526
293.896
156.387
293.858
156.532
293.901
156.396
293.863
83.6384
36.4064
27.8547
148.396
27.8477
148.212
83.7912
83.6444
36.4161
27.854
148.454
27.8536
148.274
83.7905
156.393
293.86
293.896
156.529
156.399
293.864
293.9
156.535
400.793
400.629
399.484
399.374
46.3513
200.635
199.007
200.522
198.93
400.63
400.791
399.374
399.483
399.383
399.272
400.839
400.675
198.772
200.692
46.3995
198.855
200.809
399.275
399.38
400.678
400.836
46.2864
198.853
200.807
198.766
200.687
156.564
293.875
156.425
293.836
83.7786
148.211
27.8188
36.48
83.6387
148.384
27.8193
83.7956
148.278
27.8194
36.481
83.6575
148.448
27.82
156.419
293.842
293.877
156.549
156.428
293.837
293.872
156.561
83.6372
36.4882
148.386
27.8284
148.209
27.8264
83.7796
83.654
36.4888
148.45
27.8283
148.275
27.8273
83.796
198.902
200.594
46.4103
198.995
200.762
400.791
400.659
399.251
399.343
46.3003
198.992
200.76
198.951
200.641
400.654
400.831
86.9098
150.694
28.7125
37.1483
86.5852
150.969
28.7133
160.022
295.903
159.733
295.833
86.8904
28.7303
150.663
37.1693
86.5684
28.731
150.938
159.742
295.821
295.888
160.032
86.5885
37.1556
150.973
28.7211
150.694
28.7188
86.9063
159.737
295.836
295.902
160.022
86.5689
37.1766
28.7387
150.943
28.7373
150.662
86.888
160.023
295.88
159.734
295.81
86.876
28.7272
150.6
37.1686
86.5492
28.7281
150.875
160.015
295.891
159.728
295.82
86.5859
37.1476
150.948
28.7191
150.645
28.7126
86.8995
159.738
295.814
295.882
160.023
86.5539
37.1757
28.7356
150.879
28.7348
150.6
86.8701
159.73
295.823
295.891
160.016
200.653
198.817
46.4459
200.769
198.898
399.459
399.346
400.651
400.809
46.3338
200.767
198.9
200.648
198.812
399.346
399.455
83.7887
27.8448
148.277
36.4059
83.6492
27.8452
148.448
156.531
293.898
156.392
293.859
156.537
293.901
156.402
293.863
83.6436
36.4041
27.8541
148.399
27.8474
148.214
83.7931
83.6473
36.4123
27.8524
148.454
27.8519
148.273
83.7915
156.397
293.861
293.897
156.532
156.404
293.866
293.901
156.539
400.79
400.626
399.481
399.37
46.3478
200.636
199.009
200.523
198.931
400.627
400.787
399.369
399.479
399.383
399.272
400.837
400.673
198.773
200.694
46.3967
198.857
200.812
399.272
399.376
400.679
400.834
46.2836
198.854
200.81
198.767
200.688
156.56
293.875
156.422
293.838
83.7764
148.21
27.8191
36.4774
83.6373
148.382
27.8197
83.7936
148.275
27.8195
36.476
83.6559
148.448
27.8201
156.414
293.842
293.877
156.545
156.424
293.844
293.878
156.557
83.6344
36.485
148.385
27.8284
148.207
27.8266
83.775
83.6518
36.4862
148.452
27.8288
148.275
27.8278
83.7919
198.904
200.632
46.3909
198.982
200.701
400.804
400.629
399.276
399.379
46.2806
198.969
200.677
198.893
200.589
400.629
400.789
86.9091
150.697
28.7108
37.1458
86.5847
150.972
28.7117
160.025
295.905
159.736
295.834
86.8897
28.7287
150.666
37.1674
86.5679
28.7296
150.941
159.746
295.823
295.89
160.035
86.5885
37.1531
150.976
28.7198
150.697
28.7177
86.907
159.741
295.837
295.903
160.025
86.5689
37.1743
28.7374
150.944
28.7363
150.664
86.8887
160.027
295.883
159.738
295.811
86.8765
28.7258
150.602
37.1663
86.5498
28.7266
150.878
160.019
295.893
159.731
295.822
86.5868
37.1441
150.949
28.7184
150.648
28.7118
86.9007
159.742
295.814
295.882
160.026
86.5545
37.1743
28.7343
150.882
28.7331
150.602
86.8711
159.734
295.823
295.892
160.019
200.655
198.821
46.4445
200.771
198.901
399.455
399.341
400.65
400.808
46.3326
200.769
198.9
200.65
198.813
399.341
399.45
83.7883
27.8432
148.279
36.4034
83.6494
27.8436
148.455
156.535
293.899
156.395
293.86
156.541
293.903
156.405
293.864
83.6439
36.4025
27.8515
148.403
27.8452
148.218
83.794
83.6472
36.4119
27.8508
148.461
27.8501
148.281
83.7928
156.402
293.861
293.898
156.537
156.408
293.865
293.901
156.543
400.787
400.624
399.477
399.365
46.3454
200.638
199.01
200.526
198.934
400.625
400.784
399.364
399.474
399.375
399.262
400.839
400.675
198.773
200.697
46.3954
198.857
200.814
399.262
399.366
400.677
400.835
46.2826
198.855
200.811
198.768
200.692
156.555
293.882
156.417
293.843
83.7707
148.209
27.8191
36.4763
83.6325
148.383
27.8196
83.7885
148.278
27.8198
36.4782
83.6516
148.446
27.8204
156.41
293.841
293.877
156.541
156.419
293.845
293.88
156.553
83.629
36.485
148.385
27.8285
148.208
27.8266
83.771
83.6465
36.4865
148.447
27.8287
148.273
27.8276
83.7868
198.907
200.599
46.4072
199
200.766
400.785
400.654
399.271
399.362
46.2975
198.997
200.765
198.955
200.647
400.65
400.826
86.9087
150.7
28.7095
37.1441
86.585
150.975
28.7104
160.028
295.905
159.739
295.835
86.8893
28.7274
150.668
37.1652
86.5682
28.7282
150.943
159.748
295.825
295.892
160.037
86.5882
37.1519
150.98
28.7188
150.7
28.7163
86.9074
159.743
295.837
295.904
160.028
86.5686
37.173
28.7363
150.948
28.7347
150.667
86.8891
160.03
295.883
159.741
295.813
86.8773
28.7246
150.606
37.1654
86.5509
28.7256
150.88
160.022
295.894
159.735
295.822
86.5879
37.1443
150.955
28.7171
150.652
28.7105
86.9018
159.745
295.817
295.885
160.029
86.5554
37.1727
28.7336
150.884
28.7324
150.605
86.8721
159.737
295.824
295.892
160.022
200.657
198.82
46.4427
200.773
198.902
399.45
399.337
400.647
400.806
46.3308
200.77
198.903
200.652
198.815
399.337
399.446
83.7888
27.8417
148.284
36.4022
83.6507
27.8421
148.453
156.539
293.899
156.4
293.86
156.544
293.903
156.409
293.864
83.6445
36.4002
27.85
148.405
27.8438
148.22
83.7954
83.6475
36.4083
27.8497
148.459
27.8488
148.278
83.7934
156.405
293.861
293.898
156.54
156.411