/*--------------------------------*- C++ -*----------------------------------*\
| =========                 |                                                 |
| \\      /  F ield         | OpenFOAM: The Open Source CFD Toolbox           |
|  \\    /   O peration     | Version:  2206                                  |
|   \\  /    A nd           | Website:  www.openfoam.com                      |
|    \\/     M anipulation  |                                                 |
\*---------------------------------------------------------------------------*/
FoamFile
{
    version     2.0;
    format      ascii;
    arch        "LSB;label=32;scalar=64";
    class       volScalarField;
    location    "1";
    object      p;
}
// * * * * * * * * * * * * * * * * * * * * * * * * * * * * * * * * * * * * * //

dimensions      [0 2 -2 0 0 0 0];

internalField   nonuniform List<scalar> 
66928
(
-0.00582918
-0.00581752
-0.0058175
-0.00581739
-0.00582894
-0.00581745
-0.00585277
-0.00601737
-0.00581759
-0.00581752
-0.00582929
-0.00582931
-0.00582933
-0.00582936
-0.00582924
-0.00582915
-0.00582933
-0.00582946
-0.00582935
-0.00581757
-0.00582952
-0.00582933
-0.00582946
-0.00581748
-0.00582934
-0.00582951
-0.00582931
-0.00582936
-0.00582934
-0.0058293
-0.00582924
-0.00582931
-0.00585291
-0.00592345
-0.00585288
-0.00592347
-0.00585285
-0.00585282
-0.00592338
-0.00592348
-0.00592352
-0.0060174
-0.005947
-0.00601743
-0.00594698
-0.00594691
-0.00601744
-0.00601749
-0.00594695
-0.00594692
-0.00580578
-0.00580569
-0.00582946
-0.00580573
-0.00582932
-0.00580575
-0.00580559
-0.00582936
-0.00580567
-0.0058295
-0.00580569
-0.00582932
-0.00580572
-0.00580554
-0.00582937
-0.00580569
-0.00582931
-0.0058293
-0.00580577
-0.00580574
-0.00582935
-0.00580576
-0.00582929
-0.0058057
-0.00582933
-0.00582937
-0.00582932
-0.00582944
-0.00582939
-0.00582938
-0.00582937
-0.00582932
-0.00582938
-0.00582943
-0.00582937
-0.0058057
-0.00582946
-0.0058057
-0.00582932
-0.00580559
-0.00580573
-0.00582935
-0.00580572
-0.00582945
-0.00580573
-0.00582932
-0.00580576
-0.00580558
-0.00582936
-0.0058057
-0.00582929
-0.00582929
-0.00580574
-0.00580576
-0.00582934
-0.00580578
-0.0058058
-0.00582931
-0.00580578
-0.00582928
-0.00587641
-0.00589999
-0.00587642
-0.00589995
-0.0058999
-0.00592346
-0.00592346
-0.00589997
-0.00589995
-0.00592351
-0.00587646
-0.00585273
-0.00585288
-0.00587644
-0.00585282
-0.00587642
-0.00587654
-0.00587648
-0.00585265
-0.00585286
-0.00587647
-0.0058528
-0.00587643
-0.0058766
-0.00587646
-0.0058529
-0.00585287
-0.00585283
-0.00587641
-0.00587641
-0.0058999
-0.00592347
-0.00589994
-0.00592359
-0.00589996
-0.00592351
-0.00589979
-0.00589988
-0.00592348
-0.0058999
-0.00592366
-0.00589993
-0.00592353
-0.00589974
-0.00599398
-0.00597044
-0.00599396
-0.00597047
-0.00597051
-0.00594699
-0.00594698
-0.00594693
-0.00597045
-0.00597046
-0.0059939
-0.00601756
-0.00599393
-0.00601743
-0.00599396
-0.0059938
-0.00601748
-0.00599388
-0.00601762
-0.00599391
-0.00601745
-0.00599394
-0.00599374
-0.0060175
-0.00597051
-0.00594698
-0.00594681
-0.00597048
-0.00594692
-0.00597047
-0.00597059
-0.00597053
-0.00594696
-0.00594676
-0.00597052
-0.0059469
-0.00597048
-0.00597066
-0.00599391
-0.00601742
-0.00601743
-0.00599397
-0.00599396
-0.00601747
-0.00580585
-0.00580565
-0.00582939
-0.00582947
-0.00580557
-0.00580553
-0.00582918
-0.00580592
-0.00580578
-0.00582937
-0.00582931
-0.00580568
-0.00580548
-0.00582915
-0.00587628
-0.00585271
-0.00585262
-0.00587631
-0.00585298
-0.00587648
-0.00587657
-0.00599406
-0.00599391
-0.00601751
-0.0060176
-0.0059938
-0.00599371
-0.0060173
-0.00581778
-0.00581776
-0.00580593
-0.00582965
-0.00580575
-0.00582906
-0.00580555
-0.00580551
-0.00582942
-0.00580541
-0.00582969
-0.00580575
-0.00582939
-0.00580537
-0.00580571
-0.00582966
-0.00580542
-0.00580564
-0.00582947
-0.00582984
-0.00580568
-0.00580535
-0.00582976
-0.00580544
-0.00582966
-0.00580576
-0.00582938
-0.00580572
-0.0058054
-0.00582961
-0.00580542
-0.00580564
-0.00582983
-0.00582945
-0.00580534
-0.00580568
-0.00582973
-0.0058056
-0.00582959
-0.00580586
-0.00582919
-0.00580539
-0.00580589
-0.0058294
-0.00590005
-0.00589987
-0.00592354
-0.00592363
-0.00592333
-0.00589979
-0.0058997
-0.00597033
-0.00597039
-0.00594682
-0.00594673
-0.00594707
-0.00597054
-0.00597063
-0.00586473
-0.00586456
-0.00586449
-0.00585271
-0.00605265
-0.00605264
-0.00605265
-0.0060409
-0.00624016
-0.00624017
-0.00624016
-0.00622843
-0.00642746
-0.00642748
-0.00642747
-0.00641575
-0.00661467
-0.00661468
-0.00661468
-0.00660297
-0.00680187
-0.00680189
-0.0068019
-0.00679017
-0.00698912
-0.00698914
-0.00698915
-0.00697742
-0.00717641
-0.00717643
-0.00717643
-0.00716471
-0.00736371
-0.00736372
-0.00736372
-0.007352
-0.00755095
-0.00755097
-0.00755096
-0.00753925
-0.00773813
-0.00773816
-0.00773814
-0.00772644
-0.00792531
-0.00792534
-0.00792532
-0.00791361
-0.00811252
-0.00811254
-0.00811253
-0.00810082
-0.00829978
-0.0082998
-0.0082998
-0.00828808
-0.00848705
-0.00848707
-0.00848707
-0.00847535
-0.00867431
-0.00867433
-0.00867433
-0.00866261
-0.00886157
-0.00886157
-0.00886159
-0.00884986
-0.0058646
-0.00586464
-0.00600566
-0.00600569
-0.00585282
-0.00601744
-0.0058646
-0.0058645
-0.00600568
-0.00600569
-0.00586451
-0.00600569
-0.0060057
-0.00585258
-0.00601739
-0.00586445
-0.00600571
-0.00600571
-0.0060174
-0.00604087
-0.00620499
-0.00605262
-0.00605263
-0.00619331
-0.00619331
-0.00604092
-0.00620499
-0.00605263
-0.00605263
-0.00619331
-0.00619329
-0.00605264
-0.00619331
-0.00619329
-0.00604089
-0.00620498
-0.00605264
-0.0061933
-0.00619329
-0.00620497
-0.00622844
-0.00639234
-0.00624017
-0.00624017
-0.00638067
-0.00638068
-0.00622844
-0.00639239
-0.00624017
-0.00624015
-0.00638067
-0.00638064
-0.00624014
-0.00638066
-0.00638064
-0.00622844
-0.00639232
-0.00624015
-0.00638065
-0.00638065
-0.00639231
-0.00641577
-0.00657955
-0.00642748
-0.00642748
-0.00656789
-0.00656788
-0.0064158
-0.00657955
-0.00642748
-0.00642746
-0.00656789
-0.00656787
-0.00642745
-0.00656788
-0.00656786
-0.00641576
-0.00657954
-0.00642746
-0.00656788
-0.00656788
-0.00657954
-0.00660297
-0.00676675
-0.00661469
-0.00661468
-0.00675508
-0.00675509
-0.00660297
-0.0067668
-0.00661468
-0.00661467
-0.00675508
-0.00675507
-0.00661466
-0.00675508
-0.00675507
-0.00660297
-0.00676675
-0.00661468
-0.00675509
-0.00675508
-0.00676674
-0.00679017
-0.00695399
-0.00680189
-0.00680188
-0.00694232
-0.00694231
-0.00679021
-0.00695399
-0.00680189
-0.00680188
-0.00694232
-0.00694231
-0.00680187
-0.00694232
-0.00694231
-0.00679018
-0.00695399
-0.00680189
-0.00694233
-0.00694233
-0.00695399
-0.00697742
-0.00714127
-0.00698914
-0.00698913
-0.0071296
-0.00712961
-0.00697743
-0.00714132
-0.00698914
-0.00698913
-0.0071296
-0.00712959
-0.00698913
-0.0071296
-0.00712959
-0.00697743
-0.00714127
-0.00698914
-0.00712961
-0.0071296
-0.00714126
-0.0071647
-0.00732857
-0.00717643
-0.00717642
-0.0073169
-0.00731689
-0.00716474
-0.00732857
-0.00717643
-0.00717642
-0.0073169
-0.00731689
-0.00717641
-0.0073169
-0.00731688
-0.00716471
-0.00732856
-0.00717643
-0.0073169
-0.0073169
-0.00732856
-0.007352
-0.00751583
-0.00736372
-0.00736371
-0.00750416
-0.00750417
-0.00735201
-0.00751588
-0.00736372
-0.00736371
-0.00750416
-0.00750415
-0.0073637
-0.00750416
-0.00750414
-0.00735201
-0.00751582
-0.00736372
-0.00750416
-0.00750415
-0.00751581
-0.00753925
-0.00770302
-0.00755096
-0.00755096
-0.00769135
-0.00769136
-0.00753929
-0.00770303
-0.00755096
-0.00755095
-0.00769135
-0.00769134
-0.00755095
-0.00769137
-0.00769134
-0.00753925
-0.00770301
-0.00755096
-0.00769135
-0.00769136
-0.00770301
-0.00772644
-0.00789019
-0.00773815
-0.00773814
-0.00787853
-0.00787855
-0.00772646
-0.00789025
-0.00773814
-0.00773813
-0.00787852
-0.00787851
-0.00773814
-0.00787853
-0.00787852
-0.00772643
-0.00789018
-0.00773815
-0.00787853
-0.00787853
-0.00789019
-0.00791361
-0.00807739
-0.00792532
-0.00792533
-0.00806572
-0.00806572
-0.00791366
-0.00807739
-0.00792532
-0.00792531
-0.00806572
-0.00806571
-0.00792531
-0.00806573
-0.00806571
-0.00791361
-0.00807738
-0.00792533
-0.00806573
-0.00806573
-0.00807739
-0.00810081
-0.00826464
-0.00811253
-0.00811253
-0.00825297
-0.00825298
-0.00810082
-0.00826469
-0.00811253
-0.00811252
-0.00825297
-0.00825297
-0.00811252
-0.00825297
-0.00825297
-0.00810082
-0.00826464
-0.00811254
-0.00825298
-0.00825298
-0.00826464
-0.00828807
-0.00845191
-0.00829979
-0.00829978
-0.00844024
-0.00844024
-0.00828811
-0.00845192
-0.00829979
-0.00829979
-0.00844024
-0.00844024
-0.00829978
-0.00844025
-0.00844024
-0.00828808
-0.00845191
-0.0082998
-0.00844026
-0.00844026
-0.00845191
-0.00847534
-0.00863917
-0.00848706
-0.00848704
-0.0086275
-0.00862751
-0.00847536
-0.00863923
-0.00848706
-0.00848706
-0.00862751
-0.0086275
-0.00848706
-0.00862751
-0.0086275
-0.00847535
-0.00863918
-0.00848707
-0.00862752
-0.00862752
-0.00863918
-0.0086626
-0.00882643
-0.00867432
-0.00867432
-0.00881476
-0.00881476
-0.00866264
-0.00882643
-0.00867432
-0.00867432
-0.00881476
-0.00881475
-0.00867431
-0.00881476
-0.00881475
-0.00866262
-0.00882642
-0.00867433
-0.00881478
-0.00881477
-0.00882642
-0.00884985
-0.00886157
-0.00886157
-0.00884985
-0.00886157
-0.00886156
-0.00886156
-0.00900199
-0.00884986
-0.00886158
-0.00900201
-0.00901366
-0.00592342
-0.00585287
-0.00585291
-0.00592343
-0.00585295
-0.00592343
-0.0059236
-0.00585288
-0.00585279
-0.00592348
-0.00586471
-0.00586455
-0.00586452
-0.00600571
-0.00600573
-0.00600575
-0.00600575
-0.00592365
-0.00585287
-0.0058646
-0.00591165
-0.00592352
-0.00591167
-0.00585273
-0.00585287
-0.00592346
-0.00592334
-0.00586442
-0.00585299
-0.00591161
-0.00591157
-0.00592338
-0.00585298
-0.00585281
-0.00585287
-0.00592338
-0.00592353
-0.00592349
-0.00611127
-0.00604093
-0.00604092
-0.00611125
-0.00604094
-0.00611124
-0.0061114
-0.00604091
-0.00604081
-0.00611129
-0.00605267
-0.00605267
-0.00605267
-0.00619331
-0.00619331
-0.00619329
-0.00619329
-0.00611144
-0.00604089
-0.00605263
-0.00609955
-0.00604075
-0.0061113
-0.00609953
-0.00604091
-0.00611128
-0.00611114
-0.00605263
-0.00604101
-0.00609954
-0.00604105
-0.00609952
-0.00611119
-0.00604087
-0.0060409
-0.00611123
-0.00611133
-0.00611129
-0.00629873
-0.0062285
-0.00622849
-0.00629871
-0.00622848
-0.00629865
-0.00629883
-0.00622845
-0.00622835
-0.00629873
-0.00624016
-0.00624015
-0.00624014
-0.00638065
-0.00638065
-0.00638064
-0.00638063
-0.00629886
-0.00622841
-0.00624014
-0.006287
-0.00622826
-0.00629873
-0.00628699
-0.00622846
-0.00629871
-0.00629856
-0.00624012
-0.00622854
-0.006287
-0.00622857
-0.00628697
-0.00629861
-0.00622839
-0.00622842
-0.00629867
-0.00629875
-0.00629871
-0.00648598
-0.00641581
-0.0064158
-0.00648596
-0.00641582
-0.00648595
-0.00648609
-0.00641577
-0.00641566
-0.00648599
-0.00642747
-0.00642745
-0.00642745
-0.00656787
-0.00656787
-0.00656786
-0.00656786
-0.00648612
-0.00641572
-0.00642745
-0.00647429
-0.00641557
-0.00648598
-0.00647425
-0.00641576
-0.00648597
-0.00648582
-0.00642744
-0.00641584
-0.00647428
-0.00641587
-0.00647424
-0.00648587
-0.00641569
-0.00641573
-0.00648593
-0.006486
-0.00648597
-0.00667316
-0.00660301
-0.00660299
-0.00667315
-0.006603
-0.0066731
-0.00667328
-0.00660297
-0.00660286
-0.00667318
-0.00661467
-0.00661466
-0.00661466
-0.00675507
-0.00675507
-0.00675506
-0.00675506
-0.00667331
-0.00660292
-0.00661465
-0.00666146
-0.00660277
-0.00667317
-0.00666145
-0.00660297
-0.00667316
-0.00667302
-0.00661465
-0.00660305
-0.00666148
-0.00660308
-0.00666145
-0.00667306
-0.0066029
-0.00660293
-0.00667314
-0.0066732
-0.00667316
-0.00686037
-0.0067902
-0.00679018
-0.00686035
-0.00679021
-0.00686035
-0.0068605
-0.00679017
-0.00679007
-0.00686039
-0.00680187
-0.00680187
-0.00680187
-0.00694231
-0.0069423
-0.0069423
-0.0069423
-0.00686053
-0.00679013
-0.00680186
-0.0068487
-0.00678998
-0.00686039
-0.00684867
-0.00679017
-0.00686038
-0.00686024
-0.00680186
-0.00679026
-0.00684871
-0.00679029
-0.00684867
-0.00686029
-0.00679011
-0.00679014
-0.00686036
-0.00686042
-0.00686039
-0.00704763
-0.00697744
-0.00697742
-0.00704761
-0.00697744
-0.00704758
-0.00704776
-0.00697741
-0.00697731
-0.00704765
-0.00698912
-0.00698912
-0.00698911
-0.00712959
-0.00712958
-0.00712958
-0.00712957
-0.00704779
-0.00697738
-0.00698911
-0.00703595
-0.00697723
-0.00704766
-0.00703593
-0.00697742
-0.00704764
-0.0070475
-0.00698911
-0.0069775
-0.00703596
-0.00697754
-0.00703593
-0.00704755
-0.00697736
-0.00697739
-0.00704762
-0.00704769
-0.00704765
-0.00723492
-0.00716472
-0.00716471
-0.00723491
-0.00716474
-0.00723491
-0.00723505
-0.00716469
-0.00716459
-0.00723494
-0.00717641
-0.00717641
-0.0071764
-0.00731688
-0.00731688
-0.00731688
-0.00731687
-0.00723509
-0.00716466
-0.0071764
-0.00722325
-0.00716451
-0.00723495
-0.00722322
-0.0071647
-0.00723493
-0.0072348
-0.0071764
-0.00716479
-0.00722325
-0.00716482
-0.00722322
-0.00723484
-0.00716464
-0.00716468
-0.00723491
-0.00723498
-0.00723494
-0.00742221
-0.00735202
-0.00735201
-0.0074222
-0.00735203
-0.00742216
-0.00742234
-0.00735199
-0.00735189
-0.00742223
-0.0073637
-0.0073637
-0.0073637
-0.00750414
-0.00750414
-0.00750413
-0.00750413
-0.00742238
-0.00735196
-0.00736369
-0.00741053
-0.00735181
-0.00742225
-0.00741051
-0.007352
-0.00742222
-0.00742208
-0.00736369
-0.00735208
-0.00741054
-0.00735211
-0.00741051
-0.00742213
-0.00735194
-0.00735197
-0.0074222
-0.00742227
-0.00742223
-0.00760944
-0.00753928
-0.00753926
-0.00760942
-0.00753929
-0.00760943
-0.00760956
-0.00753924
-0.00753914
-0.00760946
-0.00755095
-0.00755094
-0.00755094
-0.00769134
-0.00769134
-0.00769133
-0.00769133
-0.00760961
-0.00753922
-0.00755094
-0.00759777
-0.00753907
-0.00760947
-0.00759774
-0.00753925
-0.00760944
-0.0076093
-0.00755093
-0.00753933
-0.00759776
-0.00753936
-0.00759773
-0.00760934
-0.00753919
-0.00753922
-0.00760942
-0.00760949
-0.00760945
-0.00779662
-0.00772647
-0.00772645
-0.0077966
-0.00772648
-0.00779658
-0.00779673
-0.00772643
-0.00772632
-0.00779663
-0.00773814
-0.00773812
-0.00773813
-0.00787851
-0.00787852
-0.00787851
-0.00787851
-0.00779679
-0.00772641
-0.00773813
-0.00778494
-0.00772626
-0.00779666
-0.00778493
-0.00772643
-0.00779661
-0.00779648
-0.00773812
-0.00772652
-0.00778494
-0.00772655
-0.00778491
-0.00779653
-0.00772638
-0.00772642
-0.0077966
-0.00779668
-0.00779664
-0.00798379
-0.00791364
-0.00791362
-0.00798378
-0.00791366
-0.00798378
-0.00798391
-0.0079136
-0.0079135
-0.00798381
-0.00792532
-0.0079253
-0.00792531
-0.00806571
-0.00806571
-0.00806571
-0.00806572
-0.00798396
-0.00791358
-0.00792531
-0.00797213
-0.00791343
-0.00798382
-0.0079721
-0.0079136
-0.00798379
-0.00798366
-0.00792529
-0.00791369
-0.00797212
-0.00791373
-0.00797209
-0.0079837
-0.00791355
-0.00791359
-0.00798378
-0.00798385
-0.00798381
-0.00817101
-0.00810084
-0.00810082
-0.008171
-0.00810084
-0.00817096
-0.00817114
-0.0081008
-0.0081007
-0.00817103
-0.00811252
-0.00811252
-0.00811252
-0.00825296
-0.00825296
-0.00825297
-0.00825297
-0.00817118
-0.00810077
-0.00811251
-0.00815933
-0.00810063
-0.00817104
-0.00815932
-0.00810081
-0.00817102
-0.00817089
-0.00811251
-0.0081009
-0.00815935
-0.00810093
-0.00815932
-0.00817093
-0.00810076
-0.00810079
-0.00817101
-0.00817108
-0.00817104
-0.00835828
-0.00828809
-0.00828807
-0.00835826
-0.00828811
-0.00835826
-0.00835841
-0.00828806
-0.00828796
-0.0083583
-0.00829978
-0.00829978
-0.00829978
-0.00844023
-0.00844023
-0.00844024
-0.00844024
-0.00835845
-0.00828803
-0.00829977
-0.00834661
-0.00828788
-0.00835831
-0.00834659
-0.00828807
-0.0083583
-0.00835817
-0.00829977
-0.00828816
-0.00834662
-0.0082882
-0.00834659
-0.00835821
-0.00828802
-0.00828805
-0.00835828
-0.00835835
-0.00835831
-0.00854554
-0.00847536
-0.00847534
-0.00854553
-0.00847538
-0.00854551
-0.00854568
-0.00847533
-0.00847523
-0.00854557
-0.00848704
-0.00848706
-0.00848705
-0.0086275
-0.0086275
-0.0086275
-0.0086275
-0.00854572
-0.00847531
-0.00848704
-0.00853387
-0.00847516
-0.00854559
-0.00853386
-0.00847535
-0.00854557
-0.00854544
-0.00848705
-0.00847544
-0.00853389
-0.00847547
-0.00853386
-0.00854548
-0.00847529
-0.00847533
-0.00854555
-0.00854562
-0.00854558
-0.00873281
-0.00866263
-0.00866261
-0.00873279
-0.00866264
-0.00873279
-0.00873294
-0.0086626
-0.0086625
-0.00873283
-0.00867431
-0.00867431
-0.00867431
-0.00881475
-0.00881475
-0.00881475
-0.00881475
-0.00873298
-0.00866257
-0.0086743
-0.00872114
-0.00866242
-0.00873284
-0.00872111
-0.00866261
-0.00873282
-0.00873269
-0.00867431
-0.0086627
-0.00872115
-0.00866273
-0.00872112
-0.00873273
-0.00866255
-0.00866259
-0.0087328
-0.00873287
-0.00873284
-0.00892005
-0.00884988
-0.00884986
-0.00892004
-0.00884988
-0.00892001
-0.00892018
-0.00884985
-0.00884974
-0.00892007
-0.00886156
-0.00886157
-0.00886156
-0.00900201
-0.00892022
-0.00884982
-0.00886155
-0.00890837
-0.00884967
-0.00892009
-0.00890836
-0.00884987
-0.00892003
-0.00891993
-0.00886156
-0.00884993
-0.00890839
-0.00884998
-0.00890837
-0.00891997
-0.0088498
-0.00884983
-0.00892005
-0.00892011
-0.00892008
-0.00592343
-0.00585289
-0.00592343
-0.00585291
-0.0059233
-0.00585294
-0.00586464
-0.00591165
-0.00591162
-0.00585324
-0.00592337
-0.0059233
-0.00585298
-0.00586468
-0.00591167
-0.00592336
-0.00591164
-0.00585325
-0.00594695
-0.0060174
-0.00601742
-0.00594699
-0.00594695
-0.0060174
-0.00594698
-0.00601742
-0.00594707
-0.00595867
-0.00601734
-0.00600565
-0.00595863
-0.0060173
-0.00594705
-0.00594707
-0.00595869
-0.00601735
-0.00600564
-0.00594704
-0.00595863
-0.0060173
-0.00585293
-0.00585279
-0.00592333
-0.00592343
-0.00592358
-0.00585288
-0.0059235
-0.00601742
-0.00594699
-0.00594687
-0.00601748
-0.00601747
-0.0059469
-0.00594698
-0.00601742
-0.00594701
-0.00592364
-0.00585286
-0.00586465
-0.00591167
-0.00591169
-0.00585272
-0.0059235
-0.0059236
-0.00585287
-0.00592348
-0.00585279
-0.00592364
-0.00586458
-0.00585285
-0.00591163
-0.00591165
-0.0059235
-0.00585271
-0.00594689
-0.00601745
-0.00601756
-0.00594698
-0.00594681
-0.00595869
-0.00601746
-0.00600567
-0.00595869
-0.00601761
-0.00594696
-0.00594689
-0.00601745
-0.00594698
-0.00601756
-0.00594681
-0.00595869
-0.00600568
-0.00601747
-0.00595869
-0.00594696
-0.00601761
-0.00592362
-0.00585289
-0.00592351
-0.00585281
-0.00592365
-0.00586455
-0.00585287
-0.00591163
-0.00591164
-0.00592351
-0.00585272
-0.00592362
-0.00585289
-0.0059235
-0.00585281
-0.00594682
-0.00595869
-0.00601747
-0.00600569
-0.00594699
-0.00595871
-0.00601762
-0.0059469
-0.00601745
-0.005947
-0.00601758
-0.00594682
-0.0059587
-0.0060057
-0.00601748
-0.0059587
-0.00594697
-0.00601762
-0.0059469
-0.00601746
-0.00594699
-0.00601758
-0.0058528
-0.00585286
-0.00592336
-0.00592351
-0.00592348
-0.0058529
-0.00592344
-0.00601744
-0.00594698
-0.00594692
-0.00601749
-0.00601746
-0.00594692
-0.00594696
-0.00601742
-0.00594701
-0.00592334
-0.00586444
-0.00585298
-0.00591161
-0.00591159
-0.00592339
-0.00585298
-0.00592348
-0.00585292
-0.00592346
-0.00585291
-0.00592348
-0.00585293
-0.00592346
-0.00585291
-0.00594711
-0.0059587
-0.0060057
-0.00601736
-0.00595868
-0.00594708
-0.00601732
-0.00594712
-0.00595871
-0.00600571
-0.00601736
-0.0059587
-0.00594708
-0.00601732
-0.00594702
-0.00601743
-0.00594702
-0.00601745
-0.00594702
-0.00601743
-0.00594702
-0.00601745
-0.00585288
-0.00592348
-0.00585292
-0.00592345
-0.00594694
-0.0060175
-0.00601746
-0.00594694
-0.00594697
-0.00601745
-0.00594699
-0.00601742
-0.00594701
-0.00604093
-0.00611125
-0.00604091
-0.00611128
-0.00604088
-0.00604085
-0.00611123
-0.00611129
-0.00611133
-0.00620501
-0.00613475
-0.00620503
-0.00613473
-0.0061347
-0.00620505
-0.00620508
-0.0061347
-0.00613467
-0.00611127
-0.00604093
-0.00604092
-0.00611124
-0.00611115
-0.00604099
-0.00605262
-0.00609954
-0.00604104
-0.00611119
-0.00609954
-0.00611115
-0.006041
-0.00605262
-0.00609954
-0.00604104
-0.00611118
-0.00609955
-0.00613475
-0.00620501
-0.00613475
-0.00620503
-0.00613474
-0.006205
-0.00613474
-0.00620503
-0.00613486
-0.00614643
-0.00620495
-0.0061933
-0.00613482
-0.00614643
-0.00620491
-0.00613486
-0.00614644
-0.00620494
-0.00619331
-0.00613481
-0.00614643
-0.00620491
-0.00604092
-0.00604083
-0.00611123
-0.00611129
-0.00611132
-0.0060409
-0.00611127
-0.006205
-0.00613474
-0.0061347
-0.00620505
-0.00620505
-0.0061347
-0.00613467
-0.00620501
-0.00613472
-0.00611144
-0.00604089
-0.00605261
-0.00609954
-0.00604074
-0.0061113
-0.00609953
-0.0061114
-0.00604091
-0.00604081
-0.00611129
-0.00611144
-0.00605262
-0.00604089
-0.00609953
-0.00604074
-0.00609953
-0.0061113
-0.00613462
-0.00620504
-0.00613472
-0.00620514
-0.00613455
-0.00614643
-0.00620505
-0.00619329
-0.0061347
-0.00614642
-0.00620518
-0.00613462
-0.00620504
-0.00613472
-0.00620514
-0.00613455
-0.00614642
-0.00619329
-0.00620505
-0.00614642
-0.0061347
-0.00620518
-0.0061114
-0.00604091
-0.00604082
-0.00611129
-0.00611144
-0.00605264
-0.0060409
-0.00609954
-0.00604075
-0.00609954
-0.0061113
-0.0061114
-0.00604092
-0.00604082
-0.00611129
-0.00613454
-0.00614643
-0.00620504
-0.00619328
-0.0061347
-0.00614642
-0.00620517
-0.00613462
-0.00620502
-0.00613472
-0.00620513
-0.00613454
-0.00614642
-0.00619329
-0.00620504
-0.00614642
-0.00613469
-0.00620517
-0.00613462
-0.00620502
-0.00613471
-0.00620513
-0.00604086
-0.00604089
-0.00611123
-0.00611133
-0.00611129
-0.00604094
-0.00611125
-0.00620502
-0.00613473
-0.0061347
-0.00620508
-0.00620504
-0.00613467
-0.0061347
-0.00620499
-0.00613475
-0.00611114
-0.00605263
-0.00604101
-0.00609954
-0.00604105
-0.00609952
-0.00611119
-0.00611128
-0.00604095
-0.00604095
-0.00611126
-0.00611128
-0.00604095
-0.00604095
-0.00611126
-0.00613484
-0.00614643
-0.00619326
-0.00620493
-0.00614639
-0.00613481
-0.00620488
-0.00613484
-0.00614642
-0.00619326
-0.00620492
-0.00614639
-0.00613481
-0.00620488
-0.00613474
-0.006205
-0.00613476
-0.00620501
-0.00613474
-0.006205
-0.00613475
-0.00620501
-0.00604092
-0.00611127
-0.00604094
-0.00611125
-0.0061347
-0.00620506
-0.00620503
-0.00613466
-0.0061347
-0.00620501
-0.00613472
-0.00620499
-0.00613475
-0.00622849
-0.0062987
-0.00622846
-0.00629872
-0.00622845
-0.00622841
-0.00629869
-0.00629875
-0.00629877
-0.00639235
-0.00632218
-0.00639236
-0.00632214
-0.00632213
-0.00639239
-0.00639242
-0.00632213
-0.00632209
-0.00629873
-0.00622848
-0.00622849
-0.00629868
-0.0062986
-0.00622856
-0.00624016
-0.00628701
-0.0062286
-0.00629865
-0.00628701
-0.0062986
-0.00622856
-0.00624017
-0.00628707
-0.0062286
-0.00629862
-0.00628703
-0.00632217
-0.00639235
-0.00632218
-0.00639237
-0.00632216
-0.00639235
-0.00632215
-0.00639237
-0.00632227
-0.00633385
-0.00639229
-0.00638066
-0.00632224
-0.00633384
-0.00639224
-0.00632227
-0.00633386
-0.00639229
-0.00638066
-0.00632222
-0.00633384
-0.00639224
-0.00622846
-0.00622836
-0.00629863
-0.00629865
-0.0062988
-0.00622844
-0.00629872
-0.00639235
-0.00632213
-0.00632207
-0.00639241
-0.00639237
-0.00632206
-0.00632211
-0.00639232
-0.00632213
-0.00629887
-0.00622843
-0.00624014
-0.00628701
-0.00622827
-0.00629874
-0.00628698
-0.00629883
-0.00622845
-0.00622835
-0.00629872
-0.00629887
-0.00624015
-0.00622843
-0.00628699
-0.00622827
-0.00628699
-0.00629874
-0.00632203
-0.00639237
-0.00632213
-0.00639248
-0.00632195
-0.00633385
-0.00639239
-0.00638064
-0.00632211
-0.00633382
-0.00639252
-0.00632202
-0.00639237
-0.00632212
-0.00639248
-0.00632195
-0.00633382
-0.00638065
-0.00639238
-0.00633383
-0.0063221
-0.00639252
-0.00629882
-0.00622844
-0.00622834
-0.00629872
-0.00629886
-0.00624015
-0.00622842
-0.00628699
-0.00622826
-0.00628699
-0.00629872
-0.00629882
-0.00622844
-0.00622834
-0.00629871
-0.00632193
-0.00633383
-0.00639236
-0.00638063
-0.0063221
-0.00633381
-0.0063925
-0.00632201
-0.00639235
-0.00632212
-0.00639246
-0.00632193
-0.00633382
-0.00638064
-0.00639236
-0.00633382
-0.00632209
-0.0063925
-0.00632201
-0.00639235
-0.00632211
-0.00639246
-0.0062284
-0.00622843
-0.00629867
-0.00629876
-0.00629872
-0.00622847
-0.00629868
-0.00639235
-0.00632213
-0.00632212
-0.00639241
-0.00639236
-0.00632207
-0.0063221
-0.00639232
-0.00632215
-0.00629856
-0.00624012
-0.00622853
-0.006287
-0.00622857
-0.00628697
-0.00629861
-0.00629869
-0.00622848
-0.00622846
-0.00629868
-0.00629869
-0.00622847
-0.00622846
-0.00629868
-0.00632224
-0.00633383
-0.00638062
-0.00639225
-0.0063338
-0.00632221
-0.0063922
-0.00632224
-0.00633383
-0.00638062
-0.00639225
-0.0063338
-0.0063222
-0.0063922
-0.00632213
-0.00639232
-0.00632215
-0.00639233
-0.00632213
-0.00639232
-0.00632214
-0.00639233
-0.00622844
-0.00629869
-0.00622847
-0.00629867
-0.00632212
-0.00639239
-0.00639235
-0.00632206
-0.0063221
-0.00639233
-0.00632211
-0.00639231
-0.00632214
-0.00641581
-0.00648596
-0.00641577
-0.00648597
-0.00641576
-0.00641572
-0.00648596
-0.006486
-0.00648603
-0.00657955
-0.00650941
-0.00657957
-0.00650938
-0.00650938
-0.00657959
-0.00657962
-0.00650937
-0.00650933
-0.00648598
-0.00641581
-0.0064158
-0.00648596
-0.00648585
-0.00641587
-0.00642748
-0.00647429
-0.00641591
-0.0064859
-0.00647428
-0.00648585
-0.00641588
-0.00642748
-0.00647428
-0.0064159
-0.00648589
-0.00647429
-0.0065094
-0.00657955
-0.00650942
-0.00657957
-0.0065094
-0.00657955
-0.00650941
-0.00657957
-0.00650951
-0.00652109
-0.00657949
-0.00656788
-0.00650948
-0.00652108
-0.00657944
-0.00650951
-0.00652108
-0.00657948
-0.00656788
-0.00650947
-0.00652109
-0.00657944
-0.00641579
-0.00641567
-0.00648595
-0.00648599
-0.00648601
-0.00641574
-0.00648595
-0.00657954
-0.00650941
-0.00650937
-0.0065796
-0.00657959
-0.00650936
-0.00650931
-0.00657955
-0.00650936
-0.00648613
-0.00641575
-0.00642745
-0.00647429
-0.00641558
-0.006486
-0.00647426
-0.00648609
-0.00641576
-0.00641566
-0.00648598
-0.00648613
-0.00642746
-0.00641574
-0.00647427
-0.00641558
-0.00647427
-0.00648599
-0.00650927
-0.00657958
-0.00650937
-0.00657969
-0.00650919
-0.00652109
-0.00657959
-0.00656786
-0.00650935
-0.00652106
-0.00657973
-0.00650927
-0.00657958
-0.00650937
-0.00657969
-0.00650919
-0.00652107
-0.00656787
-0.00657959
-0.00652107
-0.00650934
-0.00657973
-0.00648607
-0.00641574
-0.00641564
-0.00648597
-0.00648612
-0.00642745
-0.00641572
-0.00647426
-0.00641557
-0.00647426
-0.00648597
-0.00648607
-0.00641574
-0.00641564
-0.00648596
-0.00650918
-0.00652108
-0.00657957
-0.00656785
-0.00650934
-0.00652106
-0.00657971
-0.00650925
-0.00657956
-0.00650936
-0.00657967
-0.00650918
-0.00652106
-0.00656786
-0.00657958
-0.00652107
-0.00650933
-0.00657972
-0.00650925
-0.00657956
-0.00650935
-0.00657967
-0.00641571
-0.00641574
-0.00648594
-0.00648602
-0.00648597
-0.00641578
-0.00648593
-0.00657956
-0.00650937
-0.00650937
-0.00657962
-0.00657957
-0.00650932
-0.00650934
-0.00657953
-0.00650939
-0.00648582
-0.00642743
-0.00641583
-0.00647427
-0.00641587
-0.00647424
-0.00648586
-0.00648594
-0.00641578
-0.00641576
-0.00648593
-0.00648594
-0.00641577
-0.00641576
-0.00648593
-0.00650948
-0.00652108
-0.00656785
-0.00657947
-0.00652105
-0.00650945
-0.00657942
-0.00650948
-0.00652108
-0.00656785
-0.00657946
-0.00652105
-0.00650944
-0.00657942
-0.00650937
-0.00657953
-0.00650939
-0.00657954
-0.00650937
-0.00657953
-0.00650938
-0.00657954
-0.00641575
-0.00648595
-0.00641577
-0.00648592
-0.00650937
-0.0065796
-0.00657957
-0.0065093
-0.00650934
-0.00657955
-0.00650936
-0.00657952
-0.00650938
-0.006603
-0.00667314
-0.00660297
-0.00667316
-0.00660296
-0.00660292
-0.00667315
-0.00667318
-0.00667322
-0.00676674
-0.00669659
-0.00676677
-0.00669657
-0.00669657
-0.00676678
-0.00676682
-0.00669655
-0.00669651
-0.00667316
-0.006603
-0.00660299
-0.00667313
-0.00667303
-0.00660307
-0.00661468
-0.00666148
-0.0066031
-0.00667308
-0.00666148
-0.00667303
-0.00660307
-0.00661468
-0.00666152
-0.0066031
-0.00667306
-0.0066615
-0.00669658
-0.00676674
-0.0066966
-0.00676676
-0.00669658
-0.00676675
-0.00669658
-0.00676676
-0.00669669
-0.00670828
-0.00676668
-0.00675508
-0.00669666
-0.00670828
-0.00676663
-0.00669669
-0.00670829
-0.00676668
-0.00675507
-0.00669664
-0.00670827
-0.00676663
-0.00660298
-0.00660287
-0.00667309
-0.0066731
-0.00667324
-0.00660295
-0.00667316
-0.00676675
-0.00669656
-0.00669651
-0.00676681
-0.00676677
-0.00669648
-0.00669654
-0.00676673
-0.00669656
-0.00667333
-0.00660295
-0.00661466
-0.00666148
-0.00660279
-0.00667319
-0.00666146
-0.00667328
-0.00660296
-0.00660286
-0.00667317
-0.00667333
-0.00661467
-0.00660294
-0.00666147
-0.00660279
-0.00666147
-0.00667319
-0.00669646
-0.00676678
-0.00669656
-0.00676688
-0.00669639
-0.00670828
-0.00676679
-0.00675506
-0.00669654
-0.00670826
-0.00676693
-0.00669646
-0.00676678
-0.00669656
-0.00676688
-0.00669639
-0.00670827
-0.00675507
-0.00676679
-0.00670827
-0.00669654
-0.00676693
-0.00667326
-0.00660294
-0.00660285
-0.00667316
-0.00667331
-0.00661466
-0.00660293
-0.00666146
-0.00660277
-0.00666146
-0.00667317
-0.00667326
-0.00660295
-0.00660285
-0.00667316
-0.00669637
-0.00670826
-0.00676677
-0.00675505
-0.00669653
-0.00670825
-0.00676692
-0.00669644
-0.00676675
-0.00669655
-0.00676687
-0.00669637
-0.00670826
-0.00675506
-0.00676678
-0.00670826
-0.00669653
-0.00676692
-0.00669644
-0.00676676
-0.00669655
-0.00676687
-0.00660291
-0.00660294
-0.00667314
-0.00667321
-0.00667317
-0.00660298
-0.00667313
-0.00676677
-0.00669657
-0.00669657
-0.00676682
-0.00676678
-0.00669651
-0.00669654
-0.00676673
-0.00669658
-0.00667302
-0.00661465
-0.00660304
-0.00666148
-0.00660308
-0.00666145
-0.00667306
-0.00667314
-0.00660299
-0.00660297
-0.00667313
-0.00667314
-0.00660298
-0.00660297
-0.00667313
-0.00669668
-0.00670829
-0.00675506
-0.00676667
-0.00670825
-0.00669665
-0.00676662
-0.00669668
-0.00670828
-0.00675506
-0.00676666
-0.00670825
-0.00669664
-0.00676662
-0.00669657
-0.00676674
-0.00669659
-0.00676675
-0.00669657
-0.00676673
-0.00669658
-0.00676675
-0.00660295
-0.00667315
-0.00660298
-0.00667312
-0.00669657
-0.00676681
-0.00676677
-0.0066965
-0.00669653
-0.00676675
-0.00669655
-0.00676673
-0.00669658
-0.0067902
-0.00686035
-0.00679017
-0.00686038
-0.00679015
-0.00679012
-0.00686036
-0.00686039
-0.00686043
-0.00695397
-0.00688381
-0.006954
-0.00688379
-0.00688379
-0.00695402
-0.00695406
-0.00688377
-0.00688374
-0.00686037
-0.0067902
-0.00679018
-0.00686035
-0.00686024
-0.00679026
-0.00680188
-0.00684869
-0.00679029
-0.00686029
-0.00684869
-0.00686024
-0.00679026
-0.00680188
-0.00684869
-0.00679029
-0.00686028
-0.00684869