/*--------------------------------*- C++ -*----------------------------------*\
| =========                 |                                                 |
| \\      /  F ield         | OpenFOAM: The Open Source CFD Toolbox           |
|  \\    /   O peration     | Version:  2206                                  |
|   \\  /    A nd           | Website:  www.openfoam.com                      |
|    \\/     M anipulation  |                                                 |
\*---------------------------------------------------------------------------*/
FoamFile
{
    version     2.0;
    format      ascii;
    arch        "LSB;label=32;scalar=64";
    class       surfaceScalarField;
    location    "1";
    object      phi;
}
// * * * * * * * * * * * * * * * * * * * * * * * * * * * * * * * * * * * * * //

dimensions      [0 3 -1 0 0 0 0];

oriented        oriented;

internalField   nonuniform List<scalar> 
197159
(
-1.8213e-11
-2.26279e-11
2.72298e-08
-2.70799e-08
-5.49046e-11
-5.41919e-11
7.42971e-12
-2.22005e-11
-2.80229e-11
2.39551e-11
-1.07766e-11
-4.08896e-11
3.68377e-11
7.51664e-12
1.15802e-07
2.70838e-11
2.08131e-11
-9.23207e-12
-2.46542e-11
-4.41511e-11
4.20299e-11
7.32063e-11
-7.27802e-11
6.88815e-11
-7.68449e-11
1.13518e-07
1.41462e-11
6.94753e-11
2.56773e-12
2.57063e-12
-4.08512e-11
4.21613e-11
5.17657e-11
-7.23477e-11
6.72783e-11
-5.67618e-11
1.14573e-07
-1.50309e-11
-2.71066e-08
-6.49095e-11
-3.74834e-11
2.72381e-08
-1.95684e-11
-9.23756e-11
-4.31866e-11
-3.11983e-11
1.36952e-11
-4.10419e-11
4.93381e-11
-1.75865e-11
1.14732e-07
-1.15164e-11
5.37222e-11
5.19321e-11
2.70782e-08
2.16893e-11
2.43183e-11
-2.70746e-08
-5.41812e-11
-5.32194e-11
-1.95534e-11
-2.31556e-11
2.72247e-08
-4.36423e-11
1.23886e-07
9.24062e-11
3.83722e-12
1.24197e-07
-4.56174e-12
3.58261e-12
2.12182e-12
6.72947e-09
-6.7353e-09
1.20463e-13
6.02384e-12
2.52494e-12
6.5913e-09
4.60234e-13
7.98363e-12
2.13938e-08
1.81289e-11
-2.1412e-08
-4.32203e-12
1.20935e-11
2.09283e-08
2.50766e-11
-2.09547e-08
-4.71679e-12
7.68868e-12
-1.34857e-08
2.98935e-12
1.34767e-08
4.30588e-13
1.77863e-11
-2.0882e-08
9.98633e-12
2.08699e-08
1.54104e-11
3.08761e-12
1.31639e-08
5.55686e-13
5.4514e-11
8.90002e-15
-4.44795e-12
-1.73994e-11
1.94982e-08
3.66929e-11
-2.05072e-08
1.7109e-11
2.04809e-08
-8.05989e-13
2.97524e-11
1.12291e-10
-1.52954e-10
1.47007e-10
-1.18166e-10
1.18868e-07
-1.35548e-13
-2.36623e-08
-1.06216e-11
1.06886e-10
2.36207e-08
1.55735e-11
-2.50776e-12
2.99794e-12
1.31596e-08
5.11009e-13
5.4555e-11
-1.74136e-11
-4.41127e-12
1.94948e-08
2.74619e-11
9.37432e-11
-1.52308e-10
1.46441e-10
-9.95672e-11
1.20111e-07
-1.23037e-11
3.69713e-11
-2.04932e-08
1.70519e-11
2.0467e-08
-2.36589e-08
1.06963e-10
-1.05722e-11
2.3617e-08
6.19206e-12
6.59016e-09
3.55206e-13
2.54964e-11
-2.10001e-08
-4.76832e-12
2.09733e-08
-3.5011e-12
8.3423e-12
1.7952e-11
-2.13702e-08
-3.90404e-12
2.13514e-08
1.72501e-12
-6.73808e-09
6.73222e-09
6.31724e-13
-7.86716e-12
1.7562e-11
-2.08923e-08
1.07674e-11
2.08802e-08
-1.34916e-08
2.31825e-12
1.34824e-08
7.01032e-13
-3.72554e-12
6.73508e-09
-4.40043e-13
-1.44299e-12
3.57062e-12
6.7291e-09
-6.73488e-09
1.66832e-12
5.47512e-13
-5.75879e-12
6.60004e-09
-2.21526e-12
-7.66091e-13
5.97213e-12
6.59089e-09
-6.59984e-09
2.43963e-12
5.34837e-13
-1.74399e-11
2.23511e-12
2.14122e-08
-6.9232e-12
-2.42171e-11
4.74644e-12
2.09537e-08
-1.16949e-11
2.72266e-08
-2.70767e-08
-5.44221e-11
-5.35801e-11
-1.90174e-11
-2.28652e-11
2.13937e-08
-3.86197e-12
-2.14121e-08
1.78816e-11
7.94929e-12
2.09267e-08
-4.63432e-12
-2.09529e-08
2.49056e-11
1.19271e-11
3.65885e-12
-6.73468e-09
1.34985e-12
6.72898e-09
6.95111e-13
-3.69696e-12
6.73474e-09
-8.05936e-13
-1.14546e-12
5.93371e-12
-6.59955e-09
2.39757e-12
6.59064e-09
5.7712e-13
-5.80529e-12
6.59968e-09
-2.27597e-12
-7.05314e-13
2.70756e-08
5.41178e-11
5.25092e-11
2.08703e-11
2.35565e-11
1.78226e-11
-2.1412e-08
-3.56504e-12
7.77937e-12
2.13936e-08
2.47854e-11
-2.09518e-08
-4.60093e-12
1.1824e-11
2.09257e-08
2.58655e-12
-1.76806e-11
2.1412e-08
-6.91506e-12
4.80863e-12
-2.43743e-11
2.09523e-08
-1.18472e-11
-3.85713e-12
1.03471e-13
-2.08186e-12
-6.72946e-09
1.07132e-11
-1.76555e-11
1.93743e-08
1.28555e-11
-2.515e-11
-2.31242e-08
-1.90423e-11
2.30978e-08
3.88047e-11
2.47947e-11
1.89976e-12
-1.72634e-11
-6.26545e-12
-1.28306e-08
1.10032e-11
-3.19158e-12
1.28184e-08
8.07993e-14
1.83178e-12
-7.39137e-13
-3.75526e-11
-2.17814e-11
-1.38069e-11
1.93541e-08
2.59507e-11
1.2469e-11
-2.19224e-11
1.83855e-08
1.41803e-11
-2.342e-11
-2.21333e-08
-2.24013e-11
2.21016e-08
4.60442e-11
3.31953e-11
4.68405e-12
-2.41327e-11
-1.15975e-11
-1.24967e-08
1.31058e-11
-3.10095e-12
1.24818e-08
2.70605e-13
3.09173e-12
-3.4778e-13
-4.42846e-11
-3.20096e-11
-1.43778e-11
1.83659e-08
2.46191e-11
3.67962e-12
3.57229e-12
1.50105e-08
-5.49547e-09
3.52302e-12
5.4886e-09
1.52475e-13
-5.46721e-09
4.19184e-12
5.45965e-09
2.74032e-13
-9.97618e-13
-6.01903e-13
1.499e-08
-5.65497e-12
-3.26943e-11
-1.52634e-12
-1.34457e-08
-2.06588e-08
8.75451e-12
1.28822e-11
2.06389e-08
1.24901e-12
-1.31668e-10
3.58032e-11
-2.05384e-08
-3.02554e-11
5.59314e-09
7.84341e-13
-5.58373e-09
-1.43547e-12
-5.24125e-12
6.80553e-12
2.95443e-11
2.00794e-08
2.07387e-12
5.41649e-09
2.91702e-13
-1.42888e-11
4.54268e-11
1.85044e-08
-1.11191e-12
1.11674e-14
1.1938e-08
-1.20916e-13
9.81634e-09
-1.61804e-14
-5.32255e-12
6.7293e-12
2.965e-11
2.00687e-08
2.02879e-12
5.41309e-09
2.63152e-13
-1.08301e-12
1.19348e-08
-1.25263e-13
-1.42795e-11
4.53896e-11
1.84957e-08
9.81063e-09
-1.46092e-14
-2.27659e-11
1.22757e-11
1.83835e-08
1.3742e-11
-2.25308e-11
-2.24806e-08
-2.23014e-11
4.85615e-11
3.27443e-11
2.24471e-08
-2.39068e-11
4.68605e-12
-1.17654e-11
-1.24833e-08
1.31884e-11
-3.02109e-12
1.24681e-08
2.0029e-13
-4.42947e-11
-3.16913e-11
2.9271e-12
-4.16378e-13
-1.41747e-11
2.49119e-11
1.83637e-08
1.05896e-11
-1.51208e-11
1.93866e-08
1.24292e-11
-2.67371e-11
-2.27664e-08
-1.91805e-11
3.62505e-11
2.67533e-11
2.27405e-08
2.41707e-12
-1.79554e-11
3.76499e-12
-5.15806e-12
-1.28469e-08
1.09214e-11
-3.00726e-12
1.28348e-08
2.64825e-13
1.99874e-12
-5.1305e-13
-4.74181e-11
-5.88263e-12
-1.38539e-11
2.58313e-11
1.93664e-08
3.53218e-12
3.48748e-12
1.50145e-08
-5.46691e-09
4.22315e-12
5.45944e-09
2.32315e-13
-5.49684e-09
3.44462e-12
5.4901e-09
2.85193e-13
-6.41819e-13
-7.35598e-13
1.49941e-08
-6.08845e-13
-1.15235e-12
-1.03716e-12
-7.13447e-12
-1.06593e-12
-2.0666e-08
-1.44946e-12
1.34403e-11
2.06523e-08
3.97599e-12
-1.22991e-11
1.13689e-12
-2.65853e-12
5.59812e-09
8.26362e-13
-5.60169e-09
1.29888e-12
6.72926e-09
3.53063e-12
1.8459e-12
4.43904e-13
-3.73892e-12
-6.28566e-13
-1.25483e-12
6.59107e-09
5.99003e-12
2.46889e-12
5.10517e-13
-5.78341e-12
-2.25005e-12
-7.3132e-13
3.81464e-12
3.63239e-12
1.50093e-08
-1.49894e-08
-1.29378e-11
-1.43841e-11
-5.495e-09
3.45003e-12
2.96487e-12
5.48824e-09
3.50806e-13
-5.46677e-09
4.13074e-12
3.03083e-12
5.45926e-09
3.43555e-13
-5.48838e-09
-2.11993e-12
-6.89171e-13
-5.45942e-09
-3.19106e-12
-5.19354e-13
1.36857e-11
1.4216e-11
1.4989e-08
-1.93734e-08
-1.09705e-11
1.8973e-11
-1.37463e-11
1.93533e-08
2.58132e-11
1.74705e-11
2.31227e-08
-3.80688e-11
-2.17827e-11
-1.08658e-11
1.28301e-08
2.01827e-12
-6.65311e-13
-4.0127e-12
1.79673e-11
2.13938e-08
7.95604e-12
1.28502e-11
-2.55214e-11
-3.03905e-12
1.2818e-08
1.40319e-13
2.30965e-08
3.87415e-11
2.44236e-11
-1.83847e-08
-1.30494e-11
2.22718e-11
-1.4276e-11
1.83652e-08
2.44998e-11
2.208e-11
2.21322e-08
-4.45069e-11
-3.24007e-11
-1.25502e-11
1.24962e-08
3.16097e-12
-3.17626e-13
-4.65982e-12
2.49775e-11
2.09274e-08
1.20002e-11
1.43085e-11
-2.35388e-11
-3.05342e-12
1.24813e-08
2.79801e-13
2.21006e-08
4.58039e-11
3.30465e-11
-1.50098e-08
-3.46748e-12
-4.17341e-12
-3.77181e-12
5.49518e-09
-7.89693e-13
-3.59799e-12
5.46696e-09
-5.52297e-13
2.94056e-13
3.05942e-13
1.09362e-11
1.93724e-08
-1.76066e-11
-2.53982e-11
-1.28299e-08
1.09163e-11
1.28178e-08
2.05483e-13
2.41801e-12
-1.76238e-11
-6.82622e-12
-1.88761e-11
-2.31213e-08
2.30954e-08
3.83495e-11
2.42786e-11
-5.84511e-13
1.93527e-08
2.54875e-11
-3.80295e-11
-2.19895e-11
1.26023e-11
1.83841e-08
-2.21802e-11
-2.3653e-11
-1.24958e-08
1.30031e-11
1.24809e-08
2.81563e-13
4.78231e-12
-2.42978e-11
-1.17792e-11
-2.21838e-11
-2.21313e-08
2.20999e-08
4.5643e-11
3.29191e-11
-3.16474e-13
1.83647e-08
2.44071e-11
-4.46875e-11
-3.254e-11
-6.72901e-09
-3.6587e-12
-9.45232e-13
-1.07031e-12
3.61464e-12
1.48434e-12
6.38605e-13
-6.59075e-09
-5.8261e-12
-2.29458e-12
-6.84078e-13
5.95018e-12
2.41677e-12
5.60006e-13
-1.50089e-08
-3.45986e-12
-4.08691e-12
1.36302e-11
1.4175e-11
1.49887e-08
-3.81627e-12
5.49489e-09
-2.1964e-12
-6.40439e-13
-3.67625e-12
5.46663e-09
-3.20852e-12
-4.83187e-13
-1.2991e-11
-1.44365e-11
2.8846e-12
5.48815e-09
3.91746e-13
3.01806e-12
5.45915e-09
3.76227e-13
1.09997e-11
-1.77733e-11
1.93715e-08
-1.93522e-08
1.30449e-11
-2.55516e-11
-2.31197e-08
-1.87142e-11
3.82215e-11
2.30941e-08
2.39669e-11
2.7398e-12
-1.77129e-11
-2.13936e-08
-7.00221e-12
-1.28297e-08
1.08745e-11
-2.81491e-12
1.28178e-08
2.98697e-13
-1.28178e-08
2.27598e-12
-4.69201e-13
-2.30947e-08
-3.82318e-11
-2.23102e-11
-1.35758e-11
2.53687e-11
1.93518e-08
1.26907e-11
-2.23223e-11
1.83833e-08
-1.83643e-08
1.44659e-11
-2.38062e-11
-2.21303e-08
-2.20678e-11
4.54488e-11
2.20989e-08
3.27424e-11
4.82407e-12
-2.44358e-11
-2.09261e-08
-1.18971e-11
-1.24952e-08
1.29225e-11
-3.01622e-12
1.24804e-08
2.93158e-13
-1.24806e-08
3.21473e-12
-3.05135e-13
-2.20993e-08
-4.49618e-11
-3.27327e-11
-1.4155e-11
2.42789e-11
1.8364e-08
-1.93719e-08
-1.08888e-11
1.879e-11
2.54121e-11
-1.09764e-11
1.28297e-08
-5.189e-13
1.76904e-11
2.31204e-08
-3.81728e-11
-2.21512e-11
-3.69101e-12
1.78406e-11
7.84825e-12
-2.54924e-11
2.61908e-13
3.8267e-11
2.40997e-11
-1.83836e-08
-1.29595e-11
2.21128e-11
2.43338e-11
-1.26491e-11
1.24955e-08
-3.1162e-13
2.22663e-11
2.21307e-08
-4.48489e-11
-3.2649e-11
-4.61065e-12
2.48347e-11
1.18685e-11
-2.37397e-11
2.87604e-13
4.55142e-11
3.28198e-11
3.80348e-12
3.71908e-12
1.50086e-08
-5.49483e-09
3.47565e-12
5.48812e-09
4.24094e-13
-5.46654e-09
4.04711e-12
5.45908e-09
3.98733e-13
-6.00164e-13
-4.56333e-13
1.49884e-08
-2.72492e-11
-3.43213e-11
2.23039e-08
5.29773e-11
5.15552e-11
-2.55137e-08
-2.94566e-11
2.5499e-08
-2.4268e-08
-3.52469e-11
2.4251e-08
2.22898e-08
-4.55493e-11
-1.48073e-11
2.22966e-08
4.4078e-11
9.57559e-11
-2.53409e-08
-3.18624e-11
2.53156e-08
-2.44197e-08
-3.31286e-11
2.44084e-08
2.22824e-08
-2.23027e-08
2.92403e-11
3.50711e-11
2.22887e-08
2.74411e-11
2.55115e-08
-2.42794e-11
3.45515e-11
2.42664e-08
-4.25703e-11
-5.46336e-11
-5.38574e-11
2.72279e-08
-1.86336e-11
-2.26451e-11
2.54972e-08
2.77008e-11
2.42495e-08
4.39083e-11
-2.79237e-11
-3.49172e-11
2.23007e-08
-2.22873e-08
5.42242e-11
5.26948e-11
-2.72256e-08
2.06052e-11
2.34093e-11
-2.55078e-08
-2.88205e-11
2.6925e-11
2.54937e-08
-2.42635e-08
-3.47951e-11
4.35024e-11
2.42471e-08
-2.54946e-08
-2.51676e-11
-2.42476e-08
-4.30762e-11
2.22868e-08
7.16306e-13
1.29409e-07
8.0575e-11
1.33439e-07
1.66775e-11
2.22591e-11
1.0436e-10
2.58611e-08
-3.28835e-11
-2.45196e-08
2.65376e-11
2.44947e-08
-1.57876e-11
-1.98833e-11
-2.29355e-08
2.18357e-11
2.29272e-08
9.34986e-12
-4.99009e-11
2.59082e-08
8.78677e-12
3.65987e-11
5.75535e-11
2.5466e-08
2.51722e-11
-2.41235e-08
3.72845e-11
2.40833e-08
-3.44786e-11
-1.6887e-11
-2.24324e-08
5.96422e-11
1.49347e-11
2.24044e-08
-1.44704e-11
-2.40411e-11
2.55101e-08
8.21202e-11
-1.80636e-11
2.56632e-08
1.02834e-11
-1.03346e-10
5.46688e-14
-2.28743e-08
8.556e-11
2.28384e-08
-2.66511e-08
-1.87456e-11
-7.21551e-12
2.6631e-08
6.88918e-12
2.55878e-08
5.63537e-11
3.959e-11
2.54363e-08
-2.88394e-11
-2.41271e-08
4.024e-11
2.40842e-08
-1.68763e-11
-3.42172e-11
-2.24211e-08
5.8981e-11
1.75958e-11
2.23912e-08
-1.73232e-11
2.97623e-11
2.5449e-08
-2.13883e-11
8.09815e-11
2.56598e-08
-1.02962e-10
1.03619e-11
-2.66465e-08
-2.17518e-11
2.66157e-08
-2.28651e-08
8.45843e-11
2.28329e-08
2.56528e-08
1.86578e-11
2.00186e-11
2.589e-08
5.30297e-11
-2.45048e-08
2.3363e-11
2.44847e-08
-1.64199e-11
-8.93354e-12
-2.29378e-08
2.25118e-11
2.29325e-08
7.02871e-12
-5.26389e-12
2.59696e-08
-5.13245e-11
2.2302e-08
-2.76265e-11
-3.47086e-11
5.39337e-11
5.22445e-11
2.1244e-11
2.37761e-11
-2.90604e-11
-2.55101e-08
2.54957e-08
2.73855e-11
-3.49466e-11
-2.42652e-08
2.42484e-08
4.37268e-11
2.22879e-08
-2.4627e-11
-4.27896e-11
-2.23013e-08
2.8918e-11
3.48551e-11
-5.42714e-11
-5.33636e-11
-1.93345e-11
-2.30397e-11
2.77938e-11
2.55088e-08
-2.49429e-11
3.48345e-11
2.42642e-08
-4.29631e-11
2.71123e-11
4.35904e-11
-1.30145e-11
-1.13672e-11
1.33521e-11
8.39045e-12
1.23889e-07
-2.4587e-11
1.14215e-11
3.81492e-12
1.13493e-07
4.1831e-11
2.30687e-11
-3.89545e-11
-7.62495e-11
6.96911e-11
-7.49234e-11
7.38053e-11
-1.13501e-07
-3.10715e-11
1.2609e-11
6.846e-13
1.14731e-07
2.75066e-11
2.75273e-11
-3.13045e-11
-1.68905e-11
3.8698e-11
-4.15184e-11
1.40218e-11
1.45817e-11
2.98163e-11
6.17712e-11
4.48447e-11
2.70894e-08
-2.72404e-08
-4.91061e-12
-3.89705e-12
-1.23894e-07
4.01899e-12
4.25947e-12
1.23894e-07
-1.1348e-07
-2.39085e-11
3.42612e-12
1.05847e-12
1.13476e-07
4.27072e-11
2.37764e-11
-4.28646e-11
-7.52459e-11
7.08268e-11
7.50433e-11
-7.15364e-11
-1.14719e-07
-2.86691e-11
4.23929e-12
1.78888e-12
1.14716e-07
2.96385e-11
2.8024e-11
-3.09662e-11
-1.58218e-11
3.98057e-11
1.54537e-11
-4.0666e-11
-2.72348e-08
1.36771e-11
2.90639e-11
6.24147e-11
4.54258e-11
2.70843e-08
-2.15387e-12
-1.0511e-12
-1.23895e-07
1.35359e-12
1.91354e-12
1.23894e-07
-1.13471e-07
-2.35552e-11
3.60616e-13
1.32804e-13
1.13468e-07
4.27275e-11
2.38478e-11
-3.83595e-11
-7.49674e-11
7.10651e-11
7.53508e-11
-7.37762e-11
-1.1471e-07
-2.83862e-11
1.4515e-12
8.56895e-13
1.14709e-07
2.99033e-11
2.82669e-11
-3.0728e-11
-1.55146e-11
4.00883e-11
1.57957e-11
-4.04261e-11
-2.72328e-08
1.34471e-11
2.87867e-11
6.25762e-11
4.55364e-11
2.70825e-08
-8.83872e-13
5.75658e-14
-1.23894e-07
3.81149e-13
8.23177e-13
1.23893e-07
-1.13467e-07
-2.35209e-11
-7.20194e-13
-3.11334e-13
1.13466e-07
4.30362e-11
2.41018e-11
-4.25786e-11
-7.47974e-11
7.12864e-11
7.55575e-11
-7.11295e-11
-1.14706e-07
-2.82571e-11
3.65209e-13
4.72862e-13
1.14705e-07
3.00224e-11
2.83688e-11
-3.06285e-11
-1.53792e-11
4.02249e-11
1.59601e-11
-4.03142e-11
-2.7232e-08
1.33261e-11
2.86699e-11
6.26726e-11
4.56139e-11
2.70817e-08
-3.71386e-13
4.26335e-13
-1.23892e-07
7.16699e-14
3.30531e-13
1.23892e-07
-1.13464e-07
-2.33595e-11
-1.16379e-12
-5.68373e-13
1.13462e-07
4.2889e-11
2.40215e-11
-3.82064e-11
-7.47797e-11
7.12385e-11
7.55538e-11
-7.36184e-11
-1.14702e-07
-2.82091e-11
5.8729e-14
3.16306e-13
1.14702e-07
3.00687e-11
2.84056e-11
-3.05877e-11
-1.53706e-11
4.02198e-11
1.59756e-11
-4.03229e-11
-2.72315e-08
1.33123e-11
2.86287e-11
6.26993e-11
4.55987e-11
2.70812e-08
-4.08202e-13
5.50828e-13
-1.2389e-07
-5.34554e-14
2.91296e-13
1.2389e-07
-1.13464e-07
-2.35212e-11
-1.15365e-12
-4.64929e-13
1.13464e-07
4.30117e-11
2.40968e-11
-4.25966e-11
-7.47967e-11
7.12595e-11
7.55514e-11
-7.11502e-11
-1.147e-07
-2.81974e-11
4.48844e-14
1.81361e-13
1.147e-07
3.00823e-11
2.84207e-11
-3.05657e-11
-1.54327e-11
4.01417e-11
1.59064e-11
-4.03947e-11
-2.72313e-08
1.33239e-11
2.86583e-11
6.26535e-11
4.55636e-11
2.70811e-08
-6.07703e-13
7.15784e-13
-1.23889e-07
-2.37116e-13
3.48459e-13
1.23889e-07
-1.13464e-07
-2.34343e-11
-1.15208e-12
-5.27078e-13
1.13462e-07
4.28212e-11
2.39658e-11
-3.82498e-11
-7.48765e-11
7.1104e-11
7.54435e-11
-7.37361e-11
-1.147e-07
-2.81767e-11
6.89791e-14
9.9535e-15
1.147e-07
3.00992e-11
2.8443e-11
-3.05457e-11
-1.54957e-11
4.00675e-11
1.58344e-11
-4.04581e-11
-2.72314e-08
1.3329e-11
2.87116e-11
6.258e-11
4.55476e-11
2.70813e-08
-7.41718e-13
6.83416e-13
-1.23889e-07
-3.33713e-13
3.99963e-13
1.23889e-07
-1.13465e-07
-2.35545e-11
-8.13869e-13
-4.39035e-13
1.13466e-07
4.30015e-11
2.40772e-11
-4.25912e-11
-7.49576e-11
7.10745e-11
7.53805e-11
-7.13207e-11
-1.14701e-07
-2.81735e-11
2.61906e-13
-1.5296e-13
1.14701e-07
3.0099e-11
2.84475e-11
-3.05439e-11
-1.55669e-11
4.00088e-11
1.57608e-11
-4.05125e-11
-2.72318e-08
1.33602e-11
2.87718e-11
6.25089e-11
4.5524e-11
2.70816e-08
-9.03646e-13
8.66465e-13
-1.23889e-07
-5.03697e-13
5.17678e-13
1.23889e-07
-1.13466e-07
-2.3441e-11
-7.66289e-13
-5.13864e-13
1.13465e-07
4.28291e-11
2.39623e-11
-3.82451e-11
-7.4982e-11
7.09879e-11
7.53249e-11
-7.38372e-11
-1.14702e-07
-2.81204e-11
5.30245e-13
-3.84453e-13
1.14702e-07
3.0172e-11
2.85036e-11
-3.04677e-11
-1.56123e-11
3.99775e-11
1.57204e-11
-4.05494e-11
-2.7232e-08
1.33855e-11
2.87749e-11
6.25182e-11
4.55094e-11
2.70818e-08
-5.36715e-13
1.2833e-12
-1.23889e-07
-7.91847e-13
1.95051e-13
1.23889e-07
-1.13468e-07
-2.34879e-11
-9.07461e-13
-7.15649e-13
1.13468e-07
4.3081e-11
2.41454e-11
-4.25115e-11
-7.48674e-11
7.1161e-11
7.54625e-11
-7.12266e-11
-1.14702e-07
-2.79859e-11
4.94689e-13
-7.75487e-13
1.14702e-07
3.03235e-11
2.8625e-11
-3.03354e-11
-1.55664e-11
4.00232e-11
1.57668e-11
-4.05025e-11
-2.7232e-08
1.33823e-11
2.87044e-11
6.2627e-11
4.55059e-11
2.70818e-08
-1.251e-13
1.173e-12
-1.23887e-07
-6.76787e-13
-1.353e-13
1.23887e-07
-1.13468e-07
-2.32691e-11
-1.21029e-12
-1.17368e-12
1.13466e-07
4.30236e-11
2.41306e-11
-3.80528e-11
-7.48297e-11
7.11371e-11
7.54813e-11
-7.36919e-11
-1.14701e-07
-2.80109e-11
5.04205e-13
-5.30138e-13
1.14701e-07
3.02654e-11
2.85813e-11
-3.04094e-11
-1.55157e-11
4.0076e-11
1.58223e-11
-4.04547e-11
-2.72318e-08
1.34042e-11
2.86331e-11
6.27084e-11
4.54862e-11
2.70816e-08
4.03991e-13
9.98549e-13
-1.23886e-07
-5.16721e-13
-6.15226e-13
1.23886e-07
-1.13468e-07
-2.33176e-11
-1.26936e-12
-1.50848e-12
1.13468e-07
4.35726e-11
2.43181e-11
-4.26308e-11
-7.47996e-11
7.12407e-11
7.55311e-11
-7.1166e-11
-1.14699e-07
-2.80499e-11
4.18806e-13
-3.58318e-13
1.14699e-07
3.0217e-11
2.85478e-11
-3.04496e-11
-1.55171e-11
4.00763e-11
1.58223e-11
-4.04591e-11
-2.72316e-08
1.34159e-11
2.8587e-11
6.27388e-11
4.54652e-11
2.70814e-08
1.92869e-13
5.81569e-13
-1.23885e-07
-2.16306e-13
-5.21504e-13
1.23885e-07
-1.13469e-07
-2.32481e-11
-1.21262e-12
-1.40249e-12
1.13468e-07
4.3331e-11
2.41424e-11
-3.83563e-11
-7.48748e-11
7.11062e-11
7.54272e-11
-7.37338e-11
-1.14698e-07
-2.81558e-11
7.85513e-13
5.70137e-14
1.14698e-07
3.00953e-11
2.84429e-11
-3.05647e-11
-1.56265e-11
3.99656e-11
1.57018e-11
-4.05599e-11
-2.72317e-08
1.34974e-11
2.86081e-11
6.26951e-11
4.5381e-11
2.70815e-08
-3.28923e-13
4.2911e-13
-1.23886e-07
-1.45086e-13
-8.50439e-14
1.23886e-07
-1.13472e-07
-2.34799e-11
-9.78529e-13
-9.04455e-13
1.13472e-07
4.3391e-11
2.41593e-11
-4.28091e-11
-7.48854e-11
7.11563e-11
7.54309e-11
-7.12364e-11
-1.14698e-07
-2.824e-11
9.04516e-13
2.32493e-13
1.14698e-07
3.0017e-11
2.83706e-11
-3.06288e-11
-1.56654e-11
3.99238e-11
1.56484e-11
-4.0591e-11
-2.72319e-08
1.34947e-11
2.87008e-11
6.25993e-11
4.53866e-11
2.70817e-08
-6.39707e-13
5.16971e-13
-1.23886e-07
-2.38744e-13
2.78509e-13
1.23886e-07
-1.13472e-07
-2.3402e-11
-1.00463e-12
-7.11344e-13
1.13471e-07
4.31764e-11
2.40004e-11
-3.85034e-11
-7.48911e-11
7.10881e-11
7.54023e-11
-7.37443e-11
-1.14698e-07
-2.82552e-11
7.13186e-13
2.31816e-13
1.14698e-07
3.00012e-11
2.83607e-11
-3.06339e-11
-1.56228e-11
3.99579e-11
1.56865e-11
-4.05578e-11
-2.7232e-08
1.3436e-11
2.87492e-11
6.25553e-11
4.54478e-11
2.70818e-08
-7.46624e-13
6.89193e-13
-1.23886e-07
-3.80604e-13
4.39851e-13
1.23886e-07
-1.13473e-07
-2.35409e-11
-9.35564e-13
-5.01575e-13
1.13473e-07
4.3338e-11
2.41012e-11
-4.28733e-11
-7.48674e-11
7.11691e-11
7.54503e-11
-7.12243e-11
-1.14698e-07
-2.82379e-11
5.14237e-13
1.38167e-13
1.14698e-07
3.00012e-11
2.83829e-11
-3.05876e-11
-1.55753e-11
3.99982e-11
1.57311e-11
-4.052e-11
-2.72321e-08
1.33769e-11
2.87746e-11
6.25363e-11
4.55078e-11
2.70819e-08
-7.80972e-13
7.61866e-13
-1.23886e-07
-4.61686e-13
5.07944e-13
1.23886e-07
-1.13473e-07
-2.34088e-11
-9.41149e-13
-6.19176e-13
1.13471e-07
4.32509e-11
2.40038e-11
-3.85745e-11
-7.48643e-11
7.11143e-11
7.54255e-11
-7.37232e-11
-1.14699e-07
-2.81825e-11
3.73742e-13
3.81174e-14
1.14697e-07
2.98922e-11
2.82768e-11
-2.61275e-11
-1.55683e-11
3.9998e-11
1.57316e-11
-4.31591e-11
-2.72322e-08
1.33569e-11
2.87782e-11
6.25412e-11
4.55247e-11
2.7082e-08
6.16361e-12
1.15796e-07
8.08788e-12
3.68926e-11
-1.11065e-11
-4.06205e-11
-2.19308e-11
1.17926e-11
5.9454e-12
1.15825e-07
2.39979e-11
1.89144e-11
-3.16047e-11
8.06968e-12
3.63622e-11
-3.75614e-11
-1.1148e-11
-1.15828e-07
1.15784e-07
6.26583e-12
-1.15788e-07
3.05507e-12
-9.89111e-12
-3.97523e-11
8.61634e-12
3.78668e-11
1.97904e-11
1.15813e-07
6.04463e-12
-1.15818e-07
2.64263e-12
-2.08592e-11
-2.66068e-11
2.95509e-11
-1.02333e-11
-3.94137e-11
3.46491e-11
8.819e-12
5.25143e-11
5.28439e-11
2.70781e-08
-2.723e-08
-2.35916e-11
2.72256e-08
-2.70749e-08
-5.34356e-11
-5.38747e-11
3.42259e-12
1.13511e-07
-7.63791e-11
6.93364e-11
7.37082e-11
-7.23537e-11
-1.44305e-11
1.36065e-11
3.92148e-12
1.14566e-07
3.8763e-11
1.27656e-11
-4.07642e-11
-5.58873e-11
6.78385e-11
-7.15241e-11
5.26782e-11
1.13497e-07
5.24475e-12
-1.13501e-07
1.40297e-12
7.46964e-11
-7.15932e-11
-7.55153e-11
7.0212e-11
1.37296e-11
1.14551e-07
5.9381e-12
-1.14555e-07
1.52535e-12
-1.3745e-11
-4.01369e-11
3.96825e-11
5.3769e-11
-7.07644e-11
6.91083e-11
-5.50238e-11
1.21493e-11
4.50166e-12
1.14551e-07
3.85946e-11
1.30747e-11
-4.0627e-11
-5.6229e-11
6.8944e-11
-7.23691e-11
5.29927e-11
-1.14557e-07
5.01525e-12
-1.13482e-07
1.73273e-12
-2.42488e-11
-4.2966e-11
3.85221e-11
7.48525e-11
-7.16419e-11
-7.53784e-11
7.31193e-11
1.36969e-11
1.14535e-07
5.36679e-12
-1.14539e-07
1.62965e-12
-1.37829e-11
-4.00021e-11
3.9424e-11
5.42045e-11
-7.12047e-11
6.97455e-11
-5.52525e-11
6.08721e-11
4.60529e-11
2.70857e-08
-2.79503e-11
2.723e-08
-2.70811e-08
-6.16727e-11
-4.54904e-11
1.2462e-11
4.69925e-12
1.14774e-07
2.87173e-11
2.76778e-11
-3.13117e-11
-1.66117e-11
3.80697e-11
-4.11897e-11
1.36092e-11
-1.1478e-07
5.54012e-12
-1.14723e-07
2.26944e-12
-2.8771e-11
-3.1024e-11
2.9561e-11
1.52996e-11
-4.07594e-11
-1.59404e-11
3.96968e-11
2.86115e-11
1.14759e-07
5.64342e-12
-1.14763e-07
1.68224e-12
-2.91676e-11
-3.07253e-11
2.96055e-11
1.49336e-11
-4.03743e-11
3.91953e-11
-1.56745e-11
-2.7085e-08
-6.25221e-11
-4.49618e-11
2.04097e-11
2.32924e-11
5.43016e-11
5.28326e-11
2.70739e-08
-1.9921e-11
-2.33783e-11
2.72228e-08
-2.70725e-08
-5.40349e-11
-5.29811e-11
2.40056e-12
1.15782e-07
2.53313e-11
1.97036e-11
-2.67993e-11
8.73995e-12
3.80535e-11
-9.71815e-12
-3.96054e-11
-2.07043e-11
4.86696e-12
1.95815e-12
1.15811e-07
2.52643e-11
1.99937e-11
-2.65659e-11
8.93829e-12
3.74549e-11
-1.00798e-11
-3.92632e-11
1.15776e-07
2.65339e-12
-1.15778e-07
1.67753e-12
-2.01316e-11
-2.66029e-11
2.55739e-11
-9.45776e-12
-3.93993e-11
3.8313e-11
8.94556e-12
2.03252e-11
1.15808e-07
2.7574e-12
-1.15809e-07
7.19096e-13
-2.02976e-11
-2.61983e-11
2.55244e-11
-9.80763e-12
-3.90222e-11
3.77211e-11
9.15894e-12
5.32516e-11
5.35907e-11
2.70741e-08
-2.38429e-11
2.72238e-08
-2.70729e-08
-5.33074e-11
-5.35112e-11
9.46943e-13
1.13494e-07
4.31618e-11
2.32406e-11
-4.34472e-11
-7.53744e-11
7.03713e-11
7.48722e-11
-7.14645e-11
-1.36148e-11
4.67173e-12
1.0694e-12
1.14547e-07
3.97929e-11
1.38253e-11
-4.00513e-11
-5.49049e-11
6.92329e-11
5.39165e-11
-7.06531e-11
1.13489e-07
1.53975e-12
-1.1349e-07
4.67065e-13
-2.3111e-11
-4.33375e-11
4.32974e-11
7.51575e-11
-7.12541e-11
7.06101e-11
-7.51273e-11
1.39979e-11
1.14541e-07
2.10254e-12
-1.14542e-07
3.06181e-13
-1.34088e-11
-3.98648e-11
3.99973e-11
5.42145e-11
-7.04158e-11
6.94899e-11
-5.46347e-11
4.04868e-12
1.20347e-12
1.14532e-07
3.95182e-11
1.37852e-11
-3.99214e-11
-5.51149e-11
6.98884e-11
-7.10825e-11
5.43718e-11
9.37213e-13
-1.13472e-07
7.30291e-13
-2.37228e-11
-4.27568e-11
4.26123e-11
7.52736e-11
-7.13657e-11
-7.50266e-11
7.1002e-11
1.39285e-11
1.14527e-07
1.49993e-12
-1.14528e-07
4.67168e-13
-1.34923e-11
-3.97663e-11
3.96987e-11
5.46708e-11
-7.08324e-11
7.015e-11
-5.48396e-11
6.13473e-11
4.60972e-11
2.70802e-08
-2.82174e-11
2.72277e-08
-2.70786e-08
-6.15416e-11
-4.53665e-11
4.42551e-12
1.12635e-12
1.14757e-07
2.96879e-11
2.87033e-11
-3.06511e-11
-1.55654e-11
3.93183e-11
-4.02685e-11
1.50777e-11
1.93266e-12
-1.14712e-07
1.1733e-12
-2.8451e-11
-3.07738e-11
2.98426e-11
1.57273e-11
-4.04733e-11
-1.55624e-11
4.00346e-11
2.88876e-11
1.14751e-07
2.16226e-12
-1.14753e-07
4.83602e-13
-2.88363e-11
-3.04744e-11
2.98941e-11
1.53609e-11
-4.0073e-11
3.95386e-11
-1.53153e-11
-2.70828e-08
-6.23698e-11
-4.48584e-11
2.00619e-11
2.30539e-11
5.44586e-11
5.30641e-11
2.70721e-08
-2.00865e-11
-2.35342e-11
2.72218e-08
-2.70714e-08
-5.38997e-11
-5.28497e-11
1.31083e-12
1.15775e-07
2.56416e-11
1.9979e-11
-2.65459e-11
8.99391e-12
3.83912e-11
-9.39558e-12
-3.9328e-11
-2.0261e-11
2.24064e-12
7.28768e-13
1.15809e-07
2.54155e-11
2.03292e-11
-3.03578e-11
9.2213e-12
3.78069e-11
-9.73733e-12
-3.62874e-11
1.15772e-07
1.13999e-12
-1.15773e-07
1.07148e-12
-1.99309e-11
-2.64396e-11
2.57681e-11
-9.23571e-12
-3.91805e-11
3.8557e-11
9.13544e-12
2.03349e-11
1.15805e-07
1.21987e-12
-1.15807e-07
5.58957e-13
-2.019e-11
-2.61011e-11
3.01758e-11
-9.59791e-12
-3.88848e-11
3.52809e-11
9.32694e-12
5.3373e-11
5.39774e-11
2.70727e-08
-2.39741e-11
2.72231e-08
-2.70722e-08
-5.31281e-11
-5.3518e-11
1.75378e-13
1.13487e-07
4.33467e-11
2.3425e-11
-4.32976e-11
-7.50857e-11
7.06743e-11
7.52165e-11
-7.12072e-11
-1.33444e-11
1.55598e-12
6.56865e-14
1.14539e-07
4.0065e-11
1.40488e-11
-3.98118e-11
-5.45791e-11
6.95678e-11
5.42862e-11
-7.03474e-11
1.13484e-07
1.37131e-13
-1.13485e-07
-1.09066e-13
-2.29244e-11
-4.31987e-11
4.34618e-11
7.5367e-11
-7.10758e-11
7.08053e-11
-7.49381e-11
1.41155e-11
1.14535e-07
6.10901e-13
-1.14537e-07
-2.98821e-13
-1.32534e-11
-3.97486e-11
4.015e-11
5.4456e-11
-7.02136e-11
6.97143e-11
-5.44193e-11
9.62903e-13
2.5482e-13
1.14525e-07
3.97481e-11
1.39773e-11
-3.97172e-11
-5.47802e-11
7.02273e-11
-7.07678e-11
5.47451e-11
-4.22045e-13
-1.13467e-07
2.09803e-13
-2.37879e-11
-4.26367e-11
3.89043e-11
7.55173e-11
-7.11206e-11
-7.47986e-11
7.37111e-11
1.40553e-11
1.14523e-07
7.19679e-14
-1.14524e-07
-1.86093e-13
-1.33391e-11
-3.96403e-11
3.98509e-11
5.48915e-11
-7.06503e-11
7.03533e-11
-5.46419e-11
6.15001e-11
4.62353e-11
2.70782e-08
-2.83447e-11
2.72266e-08
-2.70775e-08
-6.14351e-11
-4.52897e-11
1.67276e-12
1.00358e-13
1.1475e-07
2.99386e-11
2.89387e-11
-3.04327e-11
-1.52724e-11
3.96016e-11
-4.0022e-11
1.54247e-11
5.54978e-13
-1.14707e-07
6.54563e-13
-2.82883e-11
-3.06527e-11
2.99929e-11
1.59292e-11
-4.03317e-11
-1.53961e-11
4.02053e-11
2.90086e-11
1.14747e-07
7.58956e-13
-1.14748e-07
4.81466e-14
-2.86859e-11
-3.03707e-11
3.00223e-11
1.55602e-11
-3.99343e-11
3.97037e-11
-1.51524e-11
-2.70819e-08
-6.22724e-11
-4.47775e-11
1.99002e-11
2.2895e-11
5.45948e-11
5.31972e-11
2.70712e-08
-2.0123e-11
-2.35787e-11
2.7221e-08
-2.70706e-08
-5.38689e-11
-5.28147e-11
8.55161e-13
1.15771e-07
2.57935e-11
2.01086e-11
-2.64218e-11
9.16901e-12
3.86134e-11
-9.19151e-12
-3.91308e-11
-2.0206e-11
1.0431e-12
3.72886e-13
1.15805e-07
2.57171e-11
2.04011e-11
-2.61919e-11
9.36607e-12
3.79689e-11
-9.56408e-12
-3.8817e-11
1.15769e-07
4.50202e-13
-1.1577e-07
9.34749e-13
-1.98815e-11
-2.64042e-11
2.58085e-11
-9.12792e-12
-3.90805e-11
3.86702e-11
9.22635e-12
2.05148e-11
1.15805e-07
7.40188e-13
-1.15805e-07
9.94105e-14
-2.00689e-11
-2.60368e-11
2.57167e-11
-9.48794e-12
-3.87249e-11
3.80565e-11
9.4327e-12
5.35357e-11
5.39291e-11
2.70719e-08
-2.40518e-11
2.72227e-08
-2.70716e-08
-5.31304e-11
-5.33816e-11
-3.48089e-13
1.13483e-07
4.34805e-11
2.35557e-11
-4.3188e-11
-7.49103e-11
7.08532e-11
7.54082e-11
-7.1044e-11
-1.32312e-11
4.00089e-13
-3.76515e-13
1.14534e-07
4.01672e-11
1.41298e-11
-3.97388e-11
-5.43871e-11
6.97619e-11
5.45015e-11
-7.01725e-11
1.13481e-07
-3.45637e-13
-1.13481e-07
-2.76302e-13
-2.28686e-11
-4.31842e-11
4.34816e-11
7.54466e-11
-7.10138e-11
7.08823e-11
-7.48697e-11
1.41331e-11
1.14532e-07
9.2122e-14
-1.14533e-07
-4.88792e-13
-1.32218e-11
-3.97446e-11
4.0163e-11
5.45498e-11
-7.01313e-11
6.98076e-11
-5.43379e-11
-1.47168e-13
-2.20437e-13
1.14522e-07
3.98588e-11
1.40754e-11
-3.96283e-11
-5.46148e-11
7.0389e-11
-7.06202e-11
5.49271e-11
-1.02078e-12
-1.13465e-07
-4.95772e-14
-2.34795e-11
-4.2572e-11
4.28215e-11
7.5536e-11
-7.11568e-11
-7.47927e-11
7.12381e-11
1.40746e-11
1.14521e-07
-5.16453e-13
-1.14521e-07
-2.85871e-13
-1.33122e-11
-3.96346e-11
3.98574e-11
5.49682e-11
-7.05834e-11
7.04224e-11
-5.45705e-11
6.16104e-11
4.63095e-11
2.70772e-08
-2.83992e-11
2.72259e-08
-2.70767e-08
-6.13848e-11
-4.5305e-11
5.80084e-13
-3.10927e-13
1.14746e-07
3.00368e-11
2.90333e-11
-3.03507e-11
-1.51345e-11
3.97321e-11
-3.99124e-11
1.559e-11
9.51208e-14
-1.14703e-07
4.60816e-13
-2.82196e-11
-3.05931e-11
3.00606e-11
1.59797e-11
-4.03126e-11
-1.53591e-11
4.02321e-11
2.90574e-11
1.14744e-07
3.12959e-13
-1.14745e-07
-1.93271e-13
-2.86295e-11
-3.03204e-11
3.00756e-11
1.56138e-11
-3.99101e-11
3.97341e-11
-1.51106e-11
-2.70813e-08
-6.22356e-11
-4.47843e-11
1.98685e-11
2.28582e-11
5.46139e-11
5.32206e-11
2.70704e-08
-2.01385e-11
-2.35414e-11
2.72204e-08
-2.707e-08
-5.3938e-11
-5.28118e-11
7.5458e-13
1.15769e-07
2.58177e-11
2.01341e-11
-2.63962e-11
9.22755e-12
3.86772e-11
-9.12379e-12
-3.90753e-11
-2.00916e-11
6.47852e-13
2.94115e-13
1.15806e-07
2.55482e-11
2.04663e-11
-3.0243e-11
9.44649e-12
3.80759e-11
-9.47515e-12
-3.6049e-11
1.15767e-07
3.69493e-13
-1.15768e-07
7.92979e-13
-1.98708e-11
-2.63854e-11
2.58143e-11
-9.15015e-12
-3.91211e-11
3.86249e-11
9.20561e-12
2.03727e-11
1.15804e-07
5.72296e-13
-1.15805e-07
4.04633e-13
-2.01487e-11
-2.60974e-11
3.01792e-11
-9.50426e-12
-3.88008e-11
3.53721e-11
9.40859e-12
5.35494e-11
5.4084e-11
2.70716e-08
-2.40084e-11
2.72225e-08
-2.70715e-08
-5.31085e-11
-5.3525e-11
-4.40546e-13
1.1348e-07
4.34849e-11
2.35853e-11
-4.31853e-11
-7.48666e-11
7.08925e-11
7.54558e-11
-7.10043e-11
-1.32184e-11
9.63892e-15
-5.23375e-13
1.14531e-07
4.01594e-11
1.41332e-11
-3.97507e-11
-5.4331e-11
6.98186e-11
5.45617e-11
-7.01191e-11
1.13478e-07
-4.87685e-13
-1.13479e-07
-2.11702e-13
-2.29005e-11
-4.3243e-11
4.34228e-11
7.54382e-11
-7.10217e-11
7.08658e-11
-7.48727e-11
1.41035e-11
1.14529e-07
-1.07125e-13
-1.1453e-07
-5.30824e-13
-1.3251e-11
-3.97919e-11
4.01106e-11
5.45516e-11
-7.01261e-11
6.98039e-11
-5.43313e-11
-6.11462e-13
-3.15102e-13
1.1452e-07
3.98571e-11
1.40866e-11