# Solver information
# Time        	U_solver      	Ux_initial    	Ux_final      	Ux_iters      	Uy_initial    	Uy_final      	Uy_iters      	Uz_initial    	Uz_final      	Uz_iters      	U_converged   	k_solver      	k_initial     	k_final       	k_iters       	k_converged   	p_solver      	p_initial     	p_final       	p_iters       	p_converged   	omega_solver  	omega_initial 	omega_final   	omega_iters   	omega_converged
1             	smoothSolver	1.000000e+00	5.090730e-06	11	1.000000e+00	5.086080e-06	11	1.000000e+00	6.814050e-06	9	false	smoothSolver	1.000000e+00	3.959680e-06	5	true	DICPCG	1.000000e+00	4.622020e-02	559	true	smoothSolver	1.667560e-02	1.906110e-06	5	true
2             	smoothSolver	2.633940e-01	4.286890e-06	10	2.635530e-01	4.321400e-06	10	1.256000e-01	7.135830e-06	8	false	smoothSolver	8.415040e-01	2.424830e-06	5	true	DICPCG	8.239590e-02	4.026550e-03	541	true	smoothSolver	5.464770e-02	7.578150e-06	2	true
3             	smoothSolver	1.378140e-01	8.497440e-06	9	1.373180e-01	8.468890e-06	9	4.873300e-02	8.562380e-06	7	false	smoothSolver	5.561720e-01	3.226770e-06	5	true	DICPCG	3.979680e-02	1.745030e-03	571	true	smoothSolver	2.661300e-03	3.296980e-06	2	true
4             	smoothSolver	8.101770e-02	5.728010e-06	9	8.050570e-02	5.523600e-06	9	2.975150e-02	5.383910e-06	7	false	smoothSolver	2.764730e-01	2.584930e-06	5	true	DICPCG	4.223550e-02	2.066430e-03	33	true	smoothSolver	5.296610e-04	7.738780e-07	2	true
5             	smoothSolver	5.638670e-02	7.819970e-06	8	5.608310e-02	7.770110e-06	8	2.340310e-02	5.044500e-06	7	false	smoothSolver	1.380250e-01	9.132440e-06	4	true	DICPCG	1.855210e-02	8.765540e-04	568	true	smoothSolver	7.111340e-05	2.767480e-06	1	true
6             	smoothSolver	5.530850e-02	7.054710e-06	8	5.516100e-02	7.008530e-06	8	1.655960e-02	7.970050e-06	6	false	smoothSolver	7.945960e-02	7.478130e-06	4	true	DICPCG	3.839850e-02	1.839900e-03	13	true	smoothSolver	3.106520e-05	1.587260e-06	1	true
7             	smoothSolver	4.259430e-02	5.662070e-06	8	4.244820e-02	5.666120e-06	8	1.417350e-02	7.592110e-06	6	false	smoothSolver	4.996230e-02	6.714870e-06	4	true	DICPCG	1.658140e-02	7.556790e-04	561	true	smoothSolver	1.175160e-05	1.250980e-06	1	true
8             	smoothSolver	3.399460e-02	4.887810e-06	8	3.391790e-02	4.860540e-06	8	1.300440e-02	8.039030e-06	6	false	smoothSolver	3.408920e-02	6.030070e-06	4	true	DICPCG	1.353370e-02	6.496380e-04	580	true	smoothSolver	1.216170e-05	1.263880e-06	1	true
9             	smoothSolver	2.898120e-02	4.236110e-06	8	2.886960e-02	4.164900e-06	8	1.127370e-02	6.858220e-06	6	false	smoothSolver	2.516700e-02	5.892190e-06	4	true	DICPCG	1.297020e-02	6.069930e-04	12	true	smoothSolver	1.008700e-05	1.242310e-06	1	true
10            	smoothSolver	2.440050e-02	9.288660e-06	7	2.436240e-02	9.202450e-06	7	1.027810e-02	6.659660e-06	6	false	smoothSolver	1.928590e-02	5.349310e-06	4	true	DICPCG	8.285110e-03	4.026510e-04	607	true	smoothSolver	9.489390e-06	9.489390e-06	0	true
11            	smoothSolver	2.430090e-02	8.825560e-06	7	2.430940e-02	8.763140e-06	7	8.952720e-03	5.547230e-06	6	false	smoothSolver	1.570240e-02	5.076110e-06	4	true	DICPCG	1.482740e-02	7.295360e-04	9	true	smoothSolver	1.461100e-05	1.477570e-06	1	true
12            	smoothSolver	2.041880e-02	7.923340e-06	7	2.042840e-02	7.872740e-06	7	8.258560e-03	5.412380e-06	6	false	smoothSolver	1.288660e-02	4.833690e-06	4	true	DICPCG	8.544700e-03	4.078110e-04	35	true	smoothSolver	8.757790e-06	8.757790e-06	0	true
13            	smoothSolver	1.766100e-02	7.118470e-06	7	1.766230e-02	7.041360e-06	7	7.683590e-03	5.250930e-06	6	false	smoothSolver	1.102060e-02	4.649150e-06	4	true	DICPCG	7.443620e-03	3.579140e-04	604	true	smoothSolver	1.291300e-05	1.495110e-06	1	true
14            	smoothSolver	1.700630e-02	6.727600e-06	7	1.704150e-02	6.667560e-06	7	7.042950e-03	4.916650e-06	6	false	smoothSolver	9.554490e-03	4.257700e-06	4	true	DICPCG	8.910430e-03	4.236040e-04	10	true	smoothSolver	8.744090e-06	8.744090e-06	0	true
15            	smoothSolver	1.534160e-02	5.840490e-06	7	1.537110e-02	5.829310e-06	7	6.608690e-03	4.817040e-06	6	false	smoothSolver	8.511780e-03	4.165630e-06	4	true	DICPCG	6.752760e-03	3.175000e-04	606	true	smoothSolver	1.253150e-05	1.454990e-06	1	true
16            	smoothSolver	1.560280e-02	5.503400e-06	7	1.566260e-02	5.512010e-06	7	6.097940e-03	4.493300e-06	6	false	smoothSolver	7.618720e-03	3.915090e-06	4	true	DICPCG	1.001010e-02	4.825000e-04	8	true	smoothSolver	8.226560e-06	8.226560e-06	0	true
17            	smoothSolver	1.408680e-02	4.712740e-06	7	1.414410e-02	4.715260e-06	7	5.767020e-03	4.424770e-06	6	false	smoothSolver	6.883130e-03	3.725920e-06	4	true	DICPCG	6.918940e-03	3.440490e-04	312	true	smoothSolver	1.077380e-05	1.393380e-06	1	true
18            	smoothSolver	1.339260e-02	4.433690e-06	7	1.344000e-02	4.414780e-06	7	5.460660e-03	4.329360e-06	6	false	smoothSolver	6.245330e-03	3.463730e-06	4	true	DICPCG	6.957740e-03	3.395010e-04	557	true	smoothSolver	7.213750e-06	7.213750e-06	0	true
19            	smoothSolver	1.347540e-02	4.485650e-06	7	1.353730e-02	4.468970e-06	7	5.111970e-03	4.112660e-06	6	false	smoothSolver	5.596630e-03	3.281260e-06	4	true	DICPCG	8.337040e-03	4.022680e-04	9	true	smoothSolver	9.481100e-06	9.481100e-06	0	true
20            	smoothSolver	1.241340e-02	4.275720e-06	7	1.249050e-02	4.269190e-06	7	4.865460e-03	4.040600e-06	6	false	smoothSolver	5.121080e-03	3.044640e-06	4	true	DICPCG	6.343540e-03	3.088220e-04	421	true	smoothSolver	1.176830e-05	1.446670e-06	1	true
21            	smoothSolver	1.200440e-02	4.436790e-06	7	1.207660e-02	4.426790e-06	7	4.623020e-03	3.939000e-06	6	false	smoothSolver	4.690700e-03	2.828240e-06	4	true	DICPCG	7.060970e-03	3.487710e-04	9	true	smoothSolver	6.583550e-06	6.583550e-06	0	true
22            	smoothSolver	1.125860e-02	4.344300e-06	7	1.134180e-02	4.337860e-06	7	4.425150e-03	3.873930e-06	6	false	smoothSolver	4.201360e-03	2.651950e-06	4	true	DICPCG	5.713810e-03	2.829820e-04	604	true	smoothSolver	8.414890e-06	8.414890e-06	0	true
23            	smoothSolver	1.209100e-02	4.554080e-06	7	1.219440e-02	4.552900e-06	7	4.156420e-03	9.922560e-06	5	false	smoothSolver	3.925830e-03	2.452000e-06	4	true	DICPCG	9.461290e-03	4.576650e-04	9	true	smoothSolver	1.027560e-05	1.406740e-06	1	true
24            	smoothSolver	1.118210e-02	4.492500e-06	7	1.126750e-02	4.458500e-06	7	3.984810e-03	9.806990e-06	5	false	smoothSolver	3.587710e-03	2.279860e-06	4	true	DICPCG	6.370900e-03	2.865500e-04	619	true	smoothSolver	6.134010e-06	6.134010e-06	0	true
25            	smoothSolver	1.046340e-02	4.319140e-06	7	1.052970e-02	4.304240e-06	7	3.873720e-03	9.773000e-06	5	false	smoothSolver	3.139570e-03	2.105220e-06	4	true	DICPCG	6.674840e-03	3.137970e-04	27	true	smoothSolver	7.626940e-06	7.626940e-06	0	true
26            	smoothSolver	9.899770e-03	4.074840e-06	7	9.981260e-03	4.057470e-06	7	3.729440e-03	9.610430e-06	5	false	smoothSolver	2.750550e-03	9.463130e-06	3	true	DICPCG	5.223890e-03	2.492700e-04	542	true	smoothSolver	9.038710e-06	9.038710e-06	0	true
