/*--------------------------------*- C++ -*----------------------------------*\
| =========                 |                                                 |
| \\      /  F ield         | OpenFOAM: The Open Source CFD Toolbox           |
|  \\    /   O peration     | Version:  2206                                  |
|   \\  /    A nd           | Website:  www.openfoam.com                      |
|    \\/     M anipulation  |                                                 |
\*---------------------------------------------------------------------------*/
FoamFile
{
    version     2.0;
    format      ascii;
    arch        "LSB;label=32;scalar=64";
    class       volScalarField;
    location    "149";
    object      k;
}
// * * * * * * * * * * * * * * * * * * * * * * * * * * * * * * * * * * * * * //

dimensions      [0 2 -2 0 0 0 0];

internalField   nonuniform List<scalar> 
66928
(
0.000115037
0.000111324
0.000111687
0.000112385
0.000115192
0.000111058
0.000115153
0.00011661
8.19185e-05
8.14919e-05
2.12629e-05
2.10246e-05
5.09538e-05
5.02044e-05
3.36363e-05
8.69876e-05
3.29561e-05
8.49804e-05
8.57529e-05
9.96119e-05
0.000112878
3.3199e-05
8.51328e-05
9.9543e-05
8.62565e-05
0.000113062
2.11859e-05
5.05748e-05
5.0664e-05
2.11223e-05
8.64123e-05
3.33137e-05
2.12967e-05
2.12916e-05
2.1086e-05
2.10881e-05
5.10324e-05
5.03468e-05
0.000115921
5.10445e-05
5.03713e-05
2.13064e-05
2.13214e-05
2.11493e-05
2.11497e-05
0.00011601
5.11211e-05
5.05282e-05
5.11316e-05
5.05182e-05
2.1278e-05
8.28611e-05
0.00010258
5.1009e-05
3.31796e-05
3.3218e-05
0.000102453
8.28187e-05
8.15553e-05
0.000101458
5.02661e-05
3.26196e-05
3.26693e-05
0.000101386
8.15525e-05
4.01752e-05
1.95874e-05
1.95213e-05
1.96021e-05
1.95417e-05
4.0124e-05
3.3664e-05
4.99658e-05
5.00223e-05
2.01935e-05
4.87463e-05
1.98944e-05
7.73025e-05
2.92999e-05
2.67018e-05
4.90754e-05
2.00271e-05
2.93522e-05
7.76709e-05
2.68265e-05
8.19545e-05
0.000102234
5.06085e-05
3.27959e-05
0.000102135
3.28383e-05
8.198e-05
8.28636e-05
0.000101985
5.06687e-05
3.31781e-05
3.31942e-05
0.000101931
8.28717e-05
4.03214e-05
1.96165e-05
1.96394e-05
1.96319e-05
1.96503e-05
4.02816e-05
2.11281e-05
3.33223e-05
4.94513e-05
4.94553e-05
1.99787e-05
2.12792e-05
2.1312e-05
2.10556e-05
2.11178e-05
4.03426e-05
1.96596e-05
1.95918e-05
1.96785e-05
1.96143e-05
4.02837e-05
8.29963e-05
0.000102666
3.3263e-05
5.10001e-05
8.29932e-05
3.32271e-05
0.00010278
8.17353e-05
0.000101602
3.27292e-05
5.02852e-05
8.18099e-05
3.26782e-05
0.000101592
4.02123e-05
1.96442e-05
1.95798e-05
4.02661e-05
1.96275e-05
1.95584e-05
8.31316e-05
3.32692e-05
5.10847e-05
0.000102941
3.33073e-05
8.31219e-05
0.000102863
8.1887e-05
3.27312e-05
5.04272e-05
0.000101932
3.27807e-05
8.18872e-05
0.000101899
2.13285e-05
2.12984e-05
2.118e-05
2.11186e-05
4.03521e-05
1.97086e-05
1.96467e-05
4.04151e-05
1.96875e-05
1.96228e-05
8.33819e-05
0.000103175
5.11687e-05
3.33413e-05
3.33829e-05
0.000103216
8.33591e-05
8.22004e-05
0.000102308
5.05902e-05
3.28384e-05
3.28884e-05
0.00010224
8.2165e-05
8.32598e-05
3.33491e-05
0.000103043
5.10854e-05
8.33404e-05
3.33063e-05
0.000103102
8.20273e-05
3.28349e-05
0.000102111
5.04558e-05
8.20499e-05
3.27851e-05
0.000102145
4.04758e-05
1.97138e-05
1.96528e-05
1.97356e-05
1.96775e-05
4.04101e-05
0.000106927
0.000114717
0.000117122
0.000116432
0.000116837
0.000116177
0.000107163
0.000107312
0.000114881
0.000117418
0.000116615
0.000117157
0.000116387
0.000107537
0.000107306
0.000117235
0.000116507
0.000115498
0.000107229
0.000117539
0.000116778
0.000107935
0.000116374
0.000118383
0.000117669
0.000118196
0.000117454
0.000108041
6.49074e-05
6.42139e-05
0.000114557
0.00011184
8.70302e-05
0.000102403
0.000111494
0.000102329
0.000114822
0.000114129
0.000111167
8.57981e-05
0.000101043
0.000110979
0.000100979
0.000114343
0.00011544
0.000112849
0.00010958
0.000115408
0.000109543
0.000115134
0.000115731
0.000114644
0.000111694
8.62402e-05
0.000101567
0.00010148
0.000111483
0.000114905
0.000115811
0.000113017
0.000115489
0.000109911
0.000115169
0.000109844
0.000116106
0.000114304
0.000111531
8.63106e-05
0.000101815
0.000111252
0.000101712
0.000114562
0.000107543
0.000115619
0.000117844
0.000117097
0.000107723
0.000117598
0.000116847
0.000107901
0.0001163
0.000117917
0.000117154
0.000107785
0.000118146
0.000117397
8.25689e-05
0.000112045
0.000111532
0.000114309
8.48815e-05
0.000113922
0.000113421
0.000115674
8.57093e-05
0.000115695
0.000115268
0.00011696
8.77533e-05
0.000117169
0.00011661
0.000118276
8.97768e-05
0.000118557
0.000117801
0.000119388
9.16923e-05
0.000120015
0.000119015
0.000120301
9.36907e-05
0.000121146
0.000120153
0.000121107
9.38915e-05
0.000122029
0.000121088
0.000121805
9.56363e-05
0.000122873
0.000121791
0.000122474
9.63923e-05
0.000123533
0.000122645
0.000123045
9.71534e-05
0.000124268
0.000123439
0.000123525
9.83262e-05
0.000124962
0.00012414
0.000123955
9.93383e-05
0.000125801
0.000124758
0.000124372
0.000100295
0.000126667
0.000125318
0.000124726
0.000101327
0.000126904
0.000125804
0.000125069
0.000102174
0.000127177
0.000126502
0.000125271
0.000102535
0.00012721
0.000127026
0.000125501
0.000111941
0.000112191
0.0001132
0.000113466
0.000115247
0.000116791
0.000112241
0.000112967
0.000113474
0.000114124
0.000111611
0.000113623
0.000113061
0.000115302
0.00011682
0.000111002
0.000113059
0.000112314
0.000115634
0.000116682
0.000117867
0.000113679
0.000113931
0.00011471
0.0001151
0.000116896
0.000118287
0.00011387
0.000114605
0.000114956
0.000115636
0.000113623
0.000115376
0.000114606
0.000116929
0.000118232
0.000112845
0.000114931
0.000113965
0.000116899
0.00011793
0.000119229
0.000115112
0.000115566
0.000116204
0.000116491
0.000118366
0.000119433
0.000115449
0.000116094
0.000116478
0.000116949
0.000115033
0.000116918
0.00011603
0.000118288
0.000119439
0.000114517
0.000116425
0.00011565
0.000118256
0.000119321
0.000120442
0.000116718
0.000116887
0.000117931
0.000117742
0.00011951
0.000120589
0.000116848
0.000117358
0.000117811
0.000118228
0.000116474
0.000118212
0.000117342
0.000119508
0.000120525
0.000115909
0.000117561
0.000116689
0.000119366
0.000120517
0.000121436
0.000118533
0.000118083
0.000119381
0.000119047
0.000120654
0.00012153
0.00011825
0.000118638
0.000119126
0.000119445
0.000117771
0.000119733
0.000118639
0.000120578
0.000121437
0.000117161
0.000118773
0.000118027
0.000120305
0.000121467
0.000122149
0.00011941
0.000119453
0.00011994
0.000120273
0.000121589
0.000122389
0.00011952
0.000119805
0.000120257
0.000120605
0.000118981
0.000120993
0.000119756
0.000121506
0.000122366
0.000118329
0.000119918
0.00011911
0.000121111
0.000122214
0.00012291
0.000120273
0.000120523
0.000120868
0.000121085
0.000122422
0.000123148
0.000120567
0.000120934
0.000121304
0.000121646
0.000120113
0.000121896
0.000120873
0.000122394
0.000123072
0.00011944
0.000120975
0.000120117
0.000121817
0.000122962
0.000123621
0.000121177
0.000121336
0.000121829
0.000121833
0.000123193
0.000123748
0.000121609
0.000121957
0.000122335
0.000122515
0.000121164
0.000122772
0.000121802
0.000123118
0.000123737
0.000120435
0.000121669
0.00012116
0.000122489
0.000123655
0.000124126
0.000122102
0.000122065
0.000122622
0.000122512
0.000123744
0.000124226
0.000122613
0.000122801
0.000123167
0.000123374
0.000122048
0.000123445
0.000122535
0.000123759
0.000124346
0.000121394
0.000122495
0.000122052
0.000123066
0.000124151
0.000124507
0.000122857
0.000122742
0.000123295
0.000123279
0.000124216
0.000124665
0.000123362
0.000123604
0.000123764
0.00012406
0.00012281
0.000124155
0.00012334
0.000124379
0.000124883
0.000122312
0.000123341
0.000122776
0.000123569
0.00012452
0.000124898
0.000123527
0.000123567
0.000123979
0.000124128
0.000124683
0.000125161
0.000123933
0.000124224
0.000124311
0.000124778
0.000123551
0.000124869
0.000124083
0.000124883
0.000125327
0.000122577
0.000124031
0.000122729
0.000123977
0.000124882
0.000125125
0.000124093
0.000124377
0.000124447
0.000124864
0.000125162
0.000125608
0.000124513
0.000124985
0.000125014
0.000125315
0.000124472
0.000125616
0.000124996
0.000125339
0.000125694
0.00012285
0.000124665
0.000123323
0.000124425
0.000125171
0.000125496
0.000124624
0.000125069
0.000125098
0.000125597
0.000125613
0.000125961
0.0001252
0.000125415
0.000125599
0.000125797
0.000125034
0.000126442
0.000125158
0.000125676
0.00012595
0.000123448
0.000125239
0.000123916
0.000124763
0.000125481
0.00012577
0.000125312
0.000125818
0.000125766
0.000126197
0.000125922
0.000126158
0.00012575
0.000125922
0.000126059
0.000126405
0.00012544
0.000126851
0.000125902
0.000125987
0.000126318
0.000124072
0.000125721
0.000124506
0.000125122
0.000125745
0.000125876
0.000125891
0.000126263
0.00012599
0.00012656
0.000126125
0.000126253
0.00012609
0.000126586
0.000126382
0.000126931
0.000126031
0.000127167
0.000126493
0.000126332
0.000126571
0.00012473
0.000126292
0.00012517
0.000125321
0.000125855
0.000125892
0.000125981
0.000126599
0.000126123
0.000126609
0.000126202
0.000126231
0.000126472
0.000127024
0.000126633
0.000127438
0.000126492
0.000127345
0.000126787
0.000126573
0.000126931
0.00012549
0.000126799
0.000125929
0.000125554
0.000125882
0.000126369
0.000126525
0.000126065
0.000126726
0.000127641
0.000126791
0.000126595
0.000126934
0.000125971
0.000126087
0.00012559
8.63899e-05
3.36801e-05
8.655e-05
3.36411e-05
2.13538e-05
2.13546e-05
8.52342e-05
3.3064e-05
8.51922e-05
3.30576e-05
8.20769e-05
8.2167e-05
8.17532e-05
8.47486e-05
8.38026e-05
8.36973e-05
8.31046e-05
0.000113868
8.62235e-05
9.96983e-05
0.000112624
8.63503e-05
0.000100287
0.000113367
2.12569e-05
2.12815e-05
0.00011419
9.8082e-05
8.6517e-05
0.000112085
9.866e-05
8.67529e-05
0.000113803
5.0169e-05
5.04405e-05
0.000114942
5.02129e-05
5.05167e-05
8.62377e-05
3.36647e-05
8.63073e-05
3.36194e-05
2.14221e-05
2.14317e-05
8.55997e-05
3.3263e-05
8.56331e-05
3.32487e-05
8.44158e-05
8.42445e-05
8.3625e-05
8.52127e-05
8.64288e-05
8.58289e-05
8.48881e-05
0.000114585
8.67926e-05
0.000101681
0.00011448
0.00011436
8.68774e-05
0.000102257
2.14167e-05
2.14095e-05
0.000115108
0.000100351
8.72742e-05
0.000113911
0.00011479
0.000100863
8.74531e-05
5.04817e-05
5.07758e-05
0.000116186
5.04998e-05
5.0827e-05
8.64377e-05
3.37517e-05
8.63944e-05
3.37942e-05
2.15445e-05
2.15628e-05
8.5893e-05
3.34528e-05
8.59071e-05
3.3449e-05
8.69116e-05
8.63185e-05
8.53952e-05
8.71711e-05
8.84427e-05
8.78795e-05
8.67091e-05
0.000115322
8.73062e-05
0.0001034
0.000116174
0.000115115
8.74438e-05
0.000103886
2.15237e-05
2.15279e-05
0.000115889
0.000102412
8.78706e-05
0.000115724
0.000115636
0.000102855
8.80574e-05
5.08466e-05
5.11742e-05
0.000117556
5.09249e-05
5.12796e-05
8.68769e-05
3.40269e-05
8.67721e-05
3.40937e-05
2.16821e-05
2.17104e-05
8.64479e-05
3.37394e-05
8.63674e-05
3.3769e-05
8.8494e-05
8.82901e-05
8.71825e-05
8.9363e-05
8.9001e-05
8.96576e-05
8.86654e-05
0.000115984
8.79919e-05
0.000105131
0.000117522
0.00011577
8.80641e-05
0.000105576
2.16777e-05
2.16938e-05
0.00011668
0.000104225
8.85422e-05
0.000116865
0.000116441
0.000104807
8.86464e-05
5.13621e-05
5.16549e-05
0.000118795
5.14103e-05
5.17423e-05
8.73355e-05
3.42911e-05
8.72474e-05
3.43118e-05
2.18426e-05
2.1858e-05
8.69488e-05
3.40178e-05
8.69466e-05
3.40062e-05
8.93585e-05
9.03896e-05
8.92364e-05
9.10841e-05
9.08617e-05
9.03693e-05
9.08052e-05
0.000116539
8.84801e-05
0.000106811
0.00011894
0.000116394
8.85464e-05
0.000107192
2.1841e-05
2.18435e-05
0.000117213
0.0001062
8.89418e-05
0.000118197
0.000117084
0.000106479
8.90553e-05
5.17157e-05
5.20091e-05
0.000119821
5.16955e-05
5.2028e-05
8.77461e-05
3.44362e-05
8.76781e-05
3.44268e-05
2.19465e-05
2.19482e-05
8.71978e-05
3.41806e-05
8.7269e-05
3.41452e-05
9.13018e-05
9.06926e-05
9.12024e-05
9.30003e-05
9.28666e-05
9.19022e-05
9.19371e-05
0.000117085
8.89388e-05
0.000108537
0.000120451
0.000116947
8.89598e-05
0.000108917
2.19596e-05
2.19402e-05
0.000117599
0.000107133
8.93456e-05
0.000119322
0.000117476
0.000107012
8.93751e-05
5.19141e-05
5.21956e-05
0.000120733
5.18621e-05
5.21483e-05
8.80483e-05
3.44938e-05
8.80225e-05
3.44702e-05
2.19999e-05
2.19745e-05
8.73409e-05
3.42949e-05
8.74257e-05
3.42455e-05
9.32853e-05
9.23295e-05
9.24432e-05
9.36128e-05
9.47772e-05
9.38769e-05
9.25598e-05
0.000117611
8.93203e-05
0.000110189
0.000121409
0.000117508
8.92387e-05
0.000110488
2.20217e-05
2.19854e-05
0.000117989
0.000107846
8.96418e-05
0.000120455
0.000117896
0.000108227
8.9611e-05
5.20364e-05
5.22422e-05
0.000121458
5.19628e-05
5.21785e-05
8.8277e-05
3.45215e-05
8.82845e-05
3.44859e-05
2.20142e-05
2.19942e-05
8.75114e-05
3.43611e-05
8.75872e-05
3.43004e-05
9.51214e-05
9.45278e-05
9.29937e-05
9.51066e-05
9.5797e-05
9.46315e-05
9.41808e-05
0.000118051
8.95055e-05
0.00011134
0.000122316
0.000117963
8.94492e-05
0.000111857
2.20514e-05
2.20149e-05
0.000118263
0.000109235
8.97748e-05
0.000121292
0.000118205
0.00010965
8.97591e-05
5.21186e-05
5.22521e-05
0.000122153
5.20478e-05
5.21903e-05
8.84204e-05
3.45293e-05
8.84248e-05
3.44919e-05
2.20343e-05
2.20072e-05
8.76836e-05
3.43948e-05
8.777e-05
3.43254e-05
9.59284e-05
9.49147e-05
9.45329e-05
9.65625e-05
9.55649e-05
9.61345e-05
9.57521e-05
0.000118321
8.97074e-05
0.000112069
0.000123122
0.000118321
8.95402e-05
0.000112413
2.20886e-05
2.20527e-05
0.00011844
0.000110642
8.99316e-05
0.000122059
0.000118384
0.00011086
8.99345e-05
5.22104e-05
5.23069e-05
0.000122725
5.21362e-05
5.22718e-05
8.84631e-05
3.45325e-05
8.8525e-05
3.44857e-05
2.20451e-05
2.20275e-05
8.7791e-05
3.44064e-05
8.78794e-05
3.43321e-05
9.57194e-05
9.67276e-05
9.60569e-05
9.69151e-05
9.6729e-05
9.73912e-05
9.69424e-05
0.000118508
8.97802e-05
0.000113281
0.000123719
0.000118525
8.96378e-05
0.000113602
2.21181e-05
2.20775e-05
0.000118544
0.000111708
9.01122e-05
0.000122913
0.000118492
0.000112082
9.00675e-05
5.2303e-05
5.24069e-05
0.000123254
5.22192e-05
5.23542e-05
8.84909e-05
3.4515e-05
8.85443e-05
3.44532e-05
2.20737e-05
2.20503e-05
8.79014e-05
3.43998e-05
8.79947e-05
3.432e-05
9.70908e-05
9.74967e-05
9.7017e-05
9.80653e-05
9.79858e-05
9.85099e-05
9.70411e-05
0.000118629
8.98531e-05
0.000114515
0.000124513
0.000118647
8.97803e-05
0.000114748
2.21231e-05
2.2065e-05
0.000118729
0.000112784
9.02457e-05
0.000123675
0.000118692
0.000112824
9.01789e-05
5.23347e-05
5.24414e-05
0.000123737
5.22383e-05
5.23557e-05
8.85721e-05
3.44693e-05
8.85851e-05
3.44192e-05
2.20815e-05
2.20515e-05
8.79024e-05
3.43822e-05
8.80701e-05
3.42975e-05
9.83394e-05
9.88963e-05
9.73031e-05
9.91484e-05
9.92241e-05
9.97477e-05
9.80966e-05
0.000118791
8.99122e-05
0.000114788
0.000125222
0.000118813
8.97901e-05
0.000114995
2.20932e-05
2.20342e-05
0.000118955
0.000112884
9.02907e-05
0.000124281
0.000118884
0.000113101
9.02268e-05
5.23702e-05
5.24191e-05
0.000124211
5.22833e-05
5.23389e-05
8.85892e-05
3.446e-05
8.86371e-05
3.44276e-05
2.20786e-05
2.20453e-05
8.79044e-05
3.43504e-05
8.80486e-05
3.42551e-05
9.95866e-05
9.97836e-05
9.84158e-05
0.000100092
0.000100429
0.000100265
9.93482e-05
0.000119001
8.98894e-05
0.000115734
0.000125972
0.000118986
8.97211e-05
0.000116005
2.20722e-05
2.2023e-05
0.000119054
0.00011421
9.03027e-05
0.000124935
0.000119042
0.000114369
9.02005e-05
5.23999e-05
5.24304e-05
0.000124498
5.22832e-05
5.23823e-05
8.8694e-05
3.44925e-05
8.86977e-05
3.44492e-05
2.20735e-05
2.20472e-05
8.7921e-05
3.4316e-05
8.80268e-05
3.42397e-05
0.000100699
0.000100004
9.96336e-05
0.000101036
0.000101597
0.00010068
0.000100716
0.000119081
8.98266e-05
0.000117024
0.000126736
0.000119146
8.96634e-05
0.000117125
2.20748e-05
2.20333e-05
0.000119274
0.000114876
9.02978e-05
0.000125409
0.000119195
0.000114902
9.02495e-05
5.23563e-05
5.25003e-05
0.000124878
5.22239e-05
5.2433e-05
8.86659e-05
3.44825e-05
8.87143e-05
3.44424e-05
2.20788e-05
2.20508e-05
8.80205e-05
3.43285e-05
8.81232e-05
3.42613e-05
0.000102174
0.000101327
0.000100794
0.000101807
0.000102798
0.000102066
0.000101291
0.000119119
8.9748e-05
0.000117634
0.00012696
0.000119156
8.96055e-05
0.000117663
2.20965e-05
2.20579e-05
0.00011949
0.000114967
9.03246e-05
0.000126023
0.00011937
0.000115204
9.02356e-05
5.23226e-05
5.25303e-05
0.000125217
5.22301e-05
5.24429e-05
8.86584e-05
3.44828e-05
8.87074e-05
3.44527e-05
2.20889e-05
2.20671e-05
8.80488e-05
3.43377e-05
8.82207e-05
3.42577e-05
0.000102873
0.000102112
0.00010147
0.000102415
0.000102584
0.00010251
0.000102216
0.000119127
8.96487e-05
0.000118007
0.000127191
0.000119178
8.94165e-05
0.000118098
2.21164e-05
2.20681e-05
0.000119448
0.000115885
9.03413e-05
0.000126596
0.000119408
0.000115975
9.02721e-05
5.23756e-05
5.25358e-05
0.000125435
5.22634e-05
5.24566e-05
8.86466e-05
3.45338e-05
8.86932e-05
3.45172e-05
2.21028e-05
2.20702e-05
8.79908e-05
3.43297e-05
8.81437e-05
3.42535e-05
0.000103014
0.000102592
0.000101975
0.000102542
0.000119066
8.95692e-05
0.000118534
0.000127443
0.000119144
8.94793e-05
0.000118654
2.21135e-05
2.20572e-05
0.000119429
0.000116532
9.03254e-05
0.000127069
0.00011928
0.000116998
9.01859e-05
5.23512e-05
5.25007e-05
0.000125617
5.22035e-05
5.24011e-05
8.64735e-05
3.37724e-05
3.3742e-05
8.66133e-05
0.00011365
8.71177e-05
9.86579e-05
0.000112365
9.90747e-05
0.000113409
8.71234e-05
0.000113724
8.72231e-05
9.85458e-05
0.000112577
8.73615e-05
9.91153e-05
0.00011344
8.6417e-05
3.3622e-05
8.62673e-05
3.36822e-05
8.65088e-05
3.37497e-05
3.37953e-05
8.63476e-05
0.000113745
0.000112925
8.7178e-05
9.98906e-05
9.96193e-05
0.000113877
8.72433e-05
0.000113816
0.000113153
8.74857e-05
0.000100211
8.73774e-05
9.95482e-05
0.000113985
5.10981e-05
5.04567e-05
0.000115948
5.11267e-05
5.05347e-05
2.11196e-05
2.11507e-05
2.13845e-05
2.13854e-05
0.00011607
5.12291e-05
5.0699e-05
5.12139e-05
5.06762e-05
2.12216e-05
2.12181e-05
0.000113386
8.59092e-05
0.000100272
0.000112662
0.000100632
0.000113138
8.60439e-05
8.54077e-05
3.33203e-05
3.33346e-05
8.53496e-05
0.000113602
0.000100176
8.64737e-05
0.000113362
0.000100672
8.66471e-05
0.000113324
8.54367e-05
3.31533e-05
8.54557e-05
3.31645e-05
0.0001136
0.000113152
8.63218e-05
0.000101396
0.000101113
0.00011383
8.62046e-05
8.56148e-05
3.3448e-05
3.34489e-05
8.56299e-05
0.000113826
0.000113881
0.00010165
8.69606e-05
0.000101247
8.67992e-05
0.000113998
8.56159e-05
3.318e-05
3.32056e-05
8.54725e-05
0.000113653
9.9519e-05
8.57157e-05
0.000112166
0.000100084
8.58338e-05
0.000113144
8.54477e-05
3.2987e-05
3.30077e-05
8.52927e-05
0.000113956
0.000113058
8.6653e-05
0.000101341
8.65211e-05
0.000100774
0.000114324
8.58403e-05
3.33241e-05
3.33226e-05
8.58937e-05
0.000113753
0.000112705
0.000101066
8.61145e-05
0.000100637
8.59865e-05
0.000113971
8.56842e-05
3.31245e-05
3.31237e-05
8.57401e-05
5.07399e-05
5.08184e-05
0.000116019
5.08215e-05
5.0949e-05
2.11857e-05
2.1239e-05
2.13547e-05
2.13473e-05
0.000116114
5.09993e-05
5.11834e-05
5.0967e-05
5.10665e-05
2.13309e-05
2.12937e-05
0.000114319
9.80516e-05
8.63059e-05
0.000111473
9.85616e-05
8.64586e-05
0.000113983
8.63147e-05
3.33908e-05
3.34916e-05
8.61793e-05
8.64044e-05
3.33806e-05
3.34199e-05
8.62387e-05
0.000114336
0.000112522
9.98251e-05
8.72161e-05
9.92501e-05
8.6965e-05
0.000114686
0.000114466
0.000112005
9.96455e-05
8.67493e-05
9.9213e-05
8.66163e-05
0.00011473
8.64977e-05
3.36346e-05
3.35668e-05
8.6643e-05
8.65828e-05
3.35056e-05
3.34769e-05
8.66983e-05
2.09902e-05
2.10093e-05
2.10818e-05
2.11061e-05
0.000115045
5.03461e-05
5.06712e-05
5.03488e-05
5.06232e-05
2.10744e-05
2.10726e-05
2.11686e-05
2.11507e-05
2.13365e-05
2.13323e-05
2.12099e-05
2.12078e-05
5.12087e-05
5.06681e-05
0.00011717
5.12242e-05
5.06643e-05
2.13821e-05
2.13681e-05
2.12718e-05
2.12685e-05
0.000117262
5.13718e-05
5.08247e-05
5.13233e-05
5.08025e-05
8.63015e-05
3.38e-05
8.6388e-05
3.37771e-05
0.000114169
8.72466e-05
0.000100298
0.000113905
0.000113966
8.73009e-05
0.00010055
0.000114258
8.75242e-05
0.000100913
0.000114272
0.000114075
8.76457e-05
0.000101381
8.62961e-05
3.3684e-05
3.3666e-05
8.63076e-05
8.6362e-05
3.38394e-05
3.38263e-05
8.63737e-05
0.000114257
0.000114403
8.75203e-05
0.000101236
8.74025e-05
0.000101005
0.000114455
0.000114366
0.000114837
8.78163e-05
0.000102696
8.77034e-05
0.000101795
0.000114565
5.13346e-05
5.08235e-05
0.00011757
5.14013e-05
5.08085e-05
2.128e-05
2.12731e-05
2.14964e-05
2.14746e-05
0.000117682
5.1587e-05
5.09499e-05
5.15112e-05
5.09453e-05
2.13321e-05
2.1332e-05
0.000114012
8.65611e-05
0.000101894
0.000114256
0.000113907
8.66091e-05
0.00010217
8.57574e-05
3.35561e-05
8.58057e-05
3.35408e-05
0.000114173
0.000102137
8.71043e-05
0.000114888
0.000114073
0.000102516
8.71772e-05
8.57725e-05
3.33434e-05
3.33549e-05
8.57366e-05
0.000114177
0.000114664
8.68799e-05
0.000102965
8.67716e-05
0.000102644
0.000114298
8.59215e-05
3.36158e-05
3.36432e-05
8.58677e-05
0.000114356
0.00011536
0.000103257
8.73812e-05
0.00010296
8.74115e-05
0.000114448
8.60926e-05
3.34324e-05
8.60905e-05
3.34195e-05
0.00011435
0.000101556
8.62725e-05
0.000113867
0.000114171
0.000101948
8.64144e-05
8.59411e-05
3.32346e-05
8.59389e-05
3.32299e-05
0.000114691
0.000114876
8.7152e-05
0.000103121
8.70359e-05
0.000102565
0.000114945
8.62704e-05
3.35084e-05
3.35225e-05
8.62641e-05
0.000114535
0.000114367
0.000102706
8.66909e-05
0.000102412
8.65795e-05
0.00011473
8.61217e-05
3.33372e-05
3.3339e-05
8.61167e-05
5.1132e-05
5.12947e-05
0.00011756
5.11214e-05
5.13618e-05
2.13802e-05
2.14056e-05
2.14613e-05
2.14681e-05
0.000117642
5.12526e-05
5.15276e-05
5.12533e-05
5.14683e-05
2.14748e-05
2.14516e-05
0.000115144
0.000100216
8.69199e-05
0.000113128
0.000114869
0.00010066
8.70454e-05
8.6907e-05
3.37002e-05
8.67715e-05
3.37432e-05
8.69376e-05
3.3569e-05
8.68239e-05
3.36029e-05
0.000115244
0.000114278
0.000102006
8.78013e-05
0.000101389
8.75601e-05
0.000115542
0.000115322
0.00011365
0.00010164
8.7384e-05
0.000101201
8.72324e-05
0.000115595
8.70313e-05
3.38477e-05
3.38086e-05
8.71507e-05
8.70646e-05
3.37208e-05
3.36717e-05
8.71841e-05
2.11347e-05
2.11366e-05
2.12117e-05
2.12311e-05
0.000116289
5.06815e-05
5.10403e-05
5.0646e-05
5.09457e-05
2.12116e-05
2.11995e-05
2.13113e-05
2.12787e-05
2.1428e-05
2.14591e-05
2.1336e-05
2.13526e-05
5.14873e-05
5.09763e-05
0.000118556
5.15732e-05
5.10275e-05
2.15626e-05
2.15155e-05
2.1465e-05
2.14257e-05
0.000118628
5.18255e-05
5.13182e-05
5.17065e-05
5.12034e-05
8.65076e-05
3.38991e-05
8.64626e-05
3.39273e-05
0.000114778
8.76926e-05
0.000101647
0.000115486
0.000114583
8.78236e-05
0.000101959
0.000114838
8.80056e-05
0.000102923
0.000115833
0.000114657
8.81101e-05
0.000103224
8.65573e-05
3.39395e-05
3.38738e-05
8.66472e-05
8.6621e-05
3.40178e-05
3.39898e-05
8.67008e-05
0.000114934
0.000115893
8.81456e-05
0.000102771
8.8008e-05
0.00010242
0.000115163
0.000114972
0.000116279
8.83197e-05
0.000103239
8.81902e-05
0.000103387
0.000115152
5.16999e-05
5.10992e-05
0.000118855
5.17586e-05
5.11409e-05
2.13946e-05
2.14115e-05
2.16323e-05
2.16077e-05
0.000118932
5.19117e-05
5.13757e-05
5.18734e-05
5.12997e-05
2.15023e-05
2.1481e-05
0.000114638
8.70425e-05
0.00010341
0.000115746
0.000114487
8.7147e-05
0.00010389
8.60094e-05
3.37167e-05
8.60397e-05
3.36977e-05
0.000114743
0.000103781
8.7559e-05
0.000116357
0.000114617
0.000104133
8.76432e-05
8.60969e-05
3.36038e-05
3.35723e-05
8.61414e-05
0.000114863
0.000116231
8.75631e-05
0.000104714
8.7467e-05
0.000104274
0.000115071
8.62013e-05
3.38047e-05
3.38055e-05
8.62266e-05
0.000114944
0.000116746
0.000104981
8.79365e-05
0.000104605
8.78009e-05
0.000115154
8.64824e-05
3.36164e-05
8.64623e-05
3.36154e-05
0.000115163
0.000103201
8.69897e-05
0.000115379
0.000114941
0.000103574
8.70916e-05
8.63425e-05
3.34579e-05
8.63183e-05
3.34831e-05
0.000115509
0.000116486
8.77692e-05
0.00010473
8.76318e-05
0.00010426
0.000115719
8.66892e-05
3.37445e-05
3.37326e-05
8.67182e-05
0.000115377
0.000115812
0.000104417
8.75001e-05
0.000104068
8.73202e-05
0.000115564
8.65609e-05
3.3645e-05
3.36124e-05
8.66098e-05
5.13959e-05
5.16428e-05
0.000118839
5.14274e-05
5.17157e-05
2.15235e-05
2.15528e-05
2.16085e-05
2.15936e-05
0.000118916
5.16207e-05
5.19107e-05
5.1577e-05
5.18319e-05
2.16363e-05
2.1604e-05
0.000115956
0.000102098
8.75795e-05
0.000114932
0.000115727
0.00010259
8.77605e-05
8.73997e-05
3.39198e-05
8.72831e-05
3.3967e-05
8.74251e-05
3.37988e-05
8.73121e-05
3.38606e-05
0.000116012
0.000116143
0.00010379
8.83452e-05
0.000103425
8.81724e-05
0.000116339
0.000116113
0.000115344
0.000103332
8.81174e-05
0.000102972
8.78972e-05
0.000116431
8.75308e-05
3.40881e-05
3.40389e-05
8.76638e-05
8.7598e-05
3.40176e-05
3.39429e-05
8.77118e-05
2.12811e-05
2.13098e-05
2.13673e-05
2.14096e-05
0.000117653
5.11947e-05
5.15269e-05
5.11013e-05
5.14116e-05
2.14237e-05
2.13869e-05
2.15156e-05
2.14688e-05
2.16255e-05
2.16754e-05
2.15475e-05
2.15862e-05
5.19656e-05
5.15052e-05
0.000119913
5.20849e-05
5.15896e-05
2.17685e-05
2.17338e-05
2.16788e-05
2.16613e-05
0.000119967
5.2286e-05
5.17829e-05
5.22093e-05
5.17533e-05
8.69109e-05
3.40838e-05
8.6821e-05
3.41305e-05
0.000115526
8.83703e-05
0.000103317
0.000117122
0.000115296
8.84979e-05
0.000103722
0.000115492
8.84224e-05
0.000103405
0.000117137
0.000115273
8.86674e-05
0.000103709
8.70127e-05
3.42221e-05
3.41731e-05
8.71171e-05
8.70409e-05
3.42612e-05
3.42076e-05
8.71473e-05
0.000115677
0.000117604
8.88353e-05
0.000104617
8.87141e-05
0.000104245
0.000115877
0.000115653
0.000117483
8.89074e-05
0.00010453
8.87397e-05
0.000104147
0.000115884
5.20266e-05
5.15395e-05
0.000120035
5.21032e-05
5.15772e-05
2.15725e-05
2.15925e-05
2.17928e-05
2.17623e-05
0.000120108
5.22816e-05
5.17474e-05
5.22148e-05
5.17323e-05
2.1669e-05
2.16595e-05
0.000115642
8.78606e-05
0.000105144
0.000117186
0.000115342
8.7964e-05
0.000105673
8.6513e-05
3.39229e-05
8.64473e-05
3.39361e-05
0.000115645
0.000105371
8.81235e-05
0.000117609
0.000115392
0.000105877
8.82941e-05
8.66897e-05
3.39027e-05
3.38943e-05
8.67422e-05
0.00011584
0.000117597
8.82602e-05
0.000106623
8.81344e-05
0.000106132
0.00011595
8.67439e-05
3.40626e-05
3.40559e-05
8.68025e-05
0.000115861
0.000118033
0.000106709
8.85931e-05
0.000106266
8.84577e-05
0.000116017
8.69425e-05
3.38651e-05
8.69218e-05
3.38706e-05
0.000115924
0.000104892
8.76753e-05
0.000116726
0.000115764
0.000105296
8.78088e-05
8.68721e-05
3.37709e-05
8.68288e-05
3.3787e-05
0.000116106
0.000117866
8.83196e-05
0.000106437
8.82334e-05
0.000106058
0.000116352
8.714e-05
3.39815e-05
3.3986e-05
8.71657e-05
0.000116093
0.000117132
0.000106063
8.80861e-05
0.000105732
8.80447e-05
0.00011623
8.70876e-05
3.39072e-05
3.39076e-05
8.71202e-05
5.17729e-05
5.2031e-05
0.000119988
5.18146e-05
5.21028e-05
2.16887e-05
2.17197e-05
2.17743e-05
2.17618e-05
0.000120058
5.19933e-05
5.22637e-05
5.19652e-05
5.22117e-05
2.17927e-05
2.17693e-05
0.000116852
0.000103853
8.83126e-05
0.000116156
0.00011659
0.000104237
8.84981e-05
8.79503e-05
3.41654e-05
8.77984e-05
3.42132e-05
8.80364e-05
3.4103e-05
8.79025e-05
3.41693e-05
0.000116817
0.000117145
0.000105734
8.88763e-05
0.000105147
8.87317e-05
0.000117047
0.000116983
0.000116464
0.00010513
8.87495e-05
0.000104731
8.8577e-05
0.000117151
8.80856e-05
3.43152e-05
3.42822e-05
8.81989e-05
8.81772e-05
3.42836e-05
3.42438e-05
8.83051e-05
2.14997e-05
2.15243e-05
2.15755e-05
2.16149e-05
0.000118874
5.15785e-05
5.19071e-05
5.15607e-05
5.18548e-05
2.16015e-05
2.1592e-05
2.16925e-05
2.16676e-05
2.18161e-05
2.18315e-05
2.17432e-05
2.17385e-05
5.23881e-05
5.19241e-05
0.000120954
5.24129e-05
5.19076e-05
2.18733e-05
2.18704e-05
2.17777e-05
2.17966e-05
0.00012103
5.24994e-05
5.19875e-05
5.25026e-05
5.20313e-05
8.73879e-05
3.43324e-05
8.72852e-05
3.4372e-05
0.000116179
8.89061e-05
0.000105129
0.000118756
0.000116013
8.90221e-05
0.000105526
0.000116239
8.89872e-05
0.000104937
0.000118424
0.000116038
8.91569e-05
0.000105424
8.74657e-05
3.43807e-05
3.43717e-05
8.75537e-05
8.75216e-05
3.4465e-05
3.44376e-05
8.76068e-05
0.000116297
0.000119257
8.91793e-05
0.000106455
8.9116e-05
0.000106014
0.000116474
0.00011638
0.000118825
8.93538e-05
0.000106267
8.92347e-05
0.000105842
0.000116522
5.23856e-05
5.18915e-05
0.000121066
5.24145e-05
5.18856e-05
2.17317e-05
2.1735e-05
2.19069e-05
2.18983e-05
0.000121115
5.24763e-05
5.20219e-05
5.25108e-05
5.20205e-05
2.17882e-05
2.1797e-05
0.000116192
8.8427e-05
0.000107181
0.0001185
0.00011608
8.84901e-05
0.000107546
8.7014e-05
3.41783e-05
8.70158e-05
3.41736e-05
0.000116223
0.000107274
8.87472e-05
0.000118837
0.000116101
0.000107611
8.88315e-05
8.71393e-05
3.40832e-05
3.41101e-05
8.71056e-05
0.000116296
0.000118925
8.864e-05
0.000108401
8.86333e-05
0.000108096
0.000116361
8.72029e-05
3.42604e-05
3.42822e-05
8.71666e-05
0.000116337
0.000119268
0.000108435
8.89959e-05
0.000108158
8.89987e-05
0.0001164
8.7357e-05
3.40906e-05
8.73665e-05
3.40778e-05
0.000116528
0.000106598
8.82373e-05
0.000118019
0.000116401
0.000107001
8.82946e-05
8.73335e-05
3.40194e-05
8.73271e-05
3.40101e-05
0.000116639
0.000119334
8.87699e-05
0.000108078
8.87078e-05
0.000107665
0.000116882
8.75432e-05
3.4166e-05
3.41835e-05
8.75361e-05
0.000116692
0.000118415
0.000107853
8.84461e-05
0.000107473
8.84514e-05
0.000116844
8.75352e-05
3.40951e-05
3.4117e-05
8.75486e-05
5.21387e-05
5.23613e-05
0.00012097
5.21441e-05
5.23863e-05
2.18364e-05
2.18498e-05
2.19003e-05
2.19064e-05
0.000121021
5.22729e-05
5.24956e-05
5.22844e-05
5.24803e-05
2.18968e-05
2.18892e-05
0.000117316
0.000105926
8.88127e-05
0.000117368
0.000117229
0.000106326
8.89262e-05
8.83788e-05
3.43759e-05
8.83212e-05
3.43936e-05
8.84756e-05
3.43456e-05
8.84276e-05
3.43629e-05
0.000117306
0.00011848
0.000107183
8.9261e-05
0.000107136
8.92081e-05
0.000117436
0.000117425
0.000117807
0.000107377
8.90676e-05
0.000106776
8.90448e-05
0.000117547
8.84741e-05
3.446e-05
3.44524e-05
8.84964e-05
8.85672e-05
3.44194e-05
3.44201e-05
8.85889e-05
2.16646e-05
2.16591e-05
2.17372e-05
2.17497e-05
0.000119896
5.17898e-05
5.21141e-05
5.18228e-05
5.21217e-05
2.17043e-05
2.17181e-05
2.17896e-05
2.17887e-05
2.19077e-05
2.1898e-05
2.1833e-05
2.18114e-05
5.25856e-05
5.21088e-05
0.000121773
5.25424e-05
5.20623e-05
2.19084e-05
2.19287e-05
2.18412e-05
2.18667e-05
0.000121804
5.25583e-05
5.21253e-05
5.26215e-05
5.21832e-05
8.77955e-05
3.4525e-05
8.77323e-05
3.45226e-05
0.000116736
8.93174e-05
0.000106895
0.00011952
0.000116593
8.93005e-05
0.0001072
0.000116748
8.94934e-05
0.000106742
0.000119649
0.000116612
8.9472e-05
0.000107204
8.78657e-05
3.4448e-05
3.44737e-05