/*--------------------------------*- C++ -*----------------------------------*\
| =========                 |                                                 |
| \\      /  F ield         | OpenFOAM: The Open Source CFD Toolbox           |
|  \\    /   O peration     | Version:  2206                                  |
|   \\  /    A nd           | Website:  www.openfoam.com                      |
|    \\/     M anipulation  |                                                 |
\*---------------------------------------------------------------------------*/
FoamFile
{
    version     2.0;
    format      ascii;
    arch        "LSB;label=32;scalar=64";
    class       volScalarField;
    location    "149";
    object      nut;
}
// * * * * * * * * * * * * * * * * * * * * * * * * * * * * * * * * * * * * * //

dimensions      [0 2 -1 0 0 0 0];

internalField   nonuniform List<scalar> 
66928
(
1.7113e-06
1.65877e-06
1.64216e-06
1.64822e-06
1.71332e-06
1.66171e-06
1.75855e-06
1.74e-06
2.26262e-06
2.24212e-06
5.35838e-08
5.2755e-08
2.46679e-07
2.41193e-07
1.13668e-07
4.8918e-07
1.10588e-07
4.57297e-07
4.77653e-07
1.92469e-06
9.2438e-07
1.11389e-07
4.58297e-07
1.9202e-06
4.81263e-07
9.26421e-07
5.31478e-08
2.43128e-07
2.45521e-07
5.32162e-08
4.85794e-07
1.12562e-07
5.36439e-08
5.36489e-08
5.28965e-08
5.29264e-08
2.47175e-07
2.41913e-07
1.727e-06
2.47324e-07
2.42027e-07
5.36823e-08
5.37012e-08
5.30737e-08
5.30528e-08
1.77411e-06
2.47719e-07
2.42761e-07
2.47774e-07
2.42738e-07
5.3611e-08
4.21885e-07
6.82638e-07
2.46865e-07
1.086e-07
1.08682e-07
6.81722e-07
4.23677e-07
4.19151e-07
6.71968e-07
2.41476e-07
1.06314e-07
1.06424e-07
6.70999e-07
4.21468e-07
1.61937e-07
4.88234e-08
4.85482e-08
4.88363e-08
4.85744e-08
1.61763e-07
1.13686e-07
2.33255e-07
2.33172e-07
4.86866e-08
2.24911e-07
4.7677e-08
3.91118e-07
9.47273e-08
8.11558e-08
2.26514e-07
4.79808e-08
9.48925e-08
3.93331e-07
8.15252e-08
4.21928e-07
6.77e-07
2.4327e-07
1.06896e-07
6.75812e-07
1.06984e-07
4.24447e-07
4.21942e-07
6.8053e-07
2.45522e-07
1.08566e-07
1.08571e-07
6.8006e-07
4.24024e-07
1.62584e-07
4.87803e-08
4.89427e-08
4.8794e-08
4.89469e-08
1.62451e-07
5.32078e-08
1.12554e-07
2.31318e-07
2.31319e-07
4.81566e-08
5.36164e-08
5.36829e-08
5.28422e-08
5.29789e-08
1.62617e-07
4.90052e-08
4.8726e-08
4.90341e-08
4.87628e-08
1.62428e-07
4.24622e-07
6.83414e-07
1.08834e-07
2.4706e-07
4.22613e-07
1.08757e-07
6.8419e-07
4.22425e-07
6.72511e-07
1.0663e-07
2.41625e-07
4.20484e-07
1.06508e-07
6.72918e-07
1.62145e-07
4.89455e-08
4.86735e-08
1.6233e-07
4.89225e-08
4.86405e-08
4.23346e-07
1.08899e-07
2.47507e-07
6.85408e-07
1.08991e-07
4.25278e-07
6.84896e-07
4.20899e-07
1.06688e-07
2.42323e-07
6.75282e-07
1.06811e-07
4.23218e-07
6.74556e-07
5.37218e-08
5.366e-08
5.31305e-08
5.29949e-08
1.62703e-07
4.91033e-08
4.88369e-08
1.62938e-07
4.90685e-08
4.87963e-08
4.24651e-07
6.87072e-07
2.47944e-07
1.09126e-07
1.0923e-07
6.87434e-07
4.26498e-07
4.22533e-07
6.7788e-07
2.43058e-07
1.07033e-07
1.07161e-07
6.76978e-07
4.24657e-07
4.25982e-07
1.09111e-07
6.8622e-07
2.47545e-07
4.24428e-07
1.09008e-07
6.86544e-07
4.23937e-07
1.06976e-07
6.76073e-07
2.42417e-07
4.21749e-07
1.06853e-07
6.76751e-07
1.63146e-07
4.91343e-08
4.8871e-08
4.9171e-08
4.89131e-08
1.62905e-07
7.75058e-07
1.75102e-06
1.04136e-06
1.03335e-06
1.05255e-06
1.04786e-06
7.7506e-07
7.79298e-07
1.75212e-06
1.03284e-06
1.04762e-06
1.04725e-06
1.05928e-06
7.79271e-07
7.76299e-07
1.05659e-06
1.05127e-06
1.71902e-06
7.77461e-07
1.04559e-06
1.03691e-06
7.83027e-07
1.78111e-06
1.05472e-06
1.04638e-06
1.06663e-06
1.06126e-06
7.81963e-07
2.54023e-06
2.51035e-06
1.25283e-06
9.16172e-07
4.88e-07
6.91585e-07
9.20619e-07
6.91344e-07
1.24397e-06
1.22144e-06
8.93127e-07
4.75305e-07
6.71972e-07
9.01211e-07
6.70892e-07
1.20423e-06
1.30514e-06
9.26386e-07
8.42867e-07
1.41395e-06
8.44028e-07
1.44435e-06
1.28399e-06
1.2316e-06
9.02561e-07
4.78545e-07
6.76705e-07
6.75346e-07
9.10489e-07
1.21496e-06
1.31125e-06
9.28259e-07
1.41729e-06
8.46691e-07
1.44709e-06
8.47528e-07
1.29009e-06
1.24534e-06
9.09279e-07
4.83859e-07
6.86844e-07
9.14143e-07
6.86757e-07
1.23705e-06
7.79854e-07
1.76684e-06
1.04894e-06
1.04032e-06
7.79487e-07
1.06047e-06
1.05485e-06
7.80874e-07
1.73385e-06
1.06378e-06
1.05817e-06
7.81856e-07
1.05193e-06
1.04342e-06
2.2798e-06
1.6473e-06
1.66987e-06
1.74151e-06
2.35176e-06
1.68084e-06
1.70328e-06
1.76425e-06
2.38366e-06
1.71299e-06
1.73555e-06
1.78787e-06
2.45166e-06
1.73973e-06
1.75959e-06
1.80137e-06
2.51942e-06
1.76447e-06
1.78163e-06
1.82009e-06
2.5846e-06
1.79024e-06
1.80432e-06
1.82317e-06
2.65239e-06
1.81068e-06
1.82566e-06
1.83471e-06
2.67134e-06
1.82756e-06
1.84337e-06
1.84407e-06
2.73506e-06
1.84381e-06
1.8567e-06
1.85774e-06
2.76829e-06
1.85628e-06
1.87179e-06
1.86681e-06
2.80106e-06
1.86851e-06
1.88563e-06
1.87311e-06
2.84565e-06
1.8799e-06
1.89796e-06
1.87881e-06
2.88351e-06
1.89324e-06
1.90901e-06
1.88382e-06
2.91728e-06
1.90643e-06
1.9184e-06
1.89022e-06
2.95159e-06
1.90971e-06
1.92586e-06
1.8967e-06
2.97911e-06
1.91353e-06
1.93664e-06
1.89729e-06
2.98984e-06
1.91368e-06
1.94482e-06
1.9048e-06
1.66927e-06
1.67184e-06
1.69299e-06
1.69487e-06
1.75966e-06
1.74257e-06
1.65137e-06
1.6574e-06
1.67416e-06
1.67865e-06
1.63569e-06
1.67503e-06
1.66113e-06
1.76048e-06
1.74263e-06
1.65977e-06
1.69643e-06
1.68325e-06
1.72115e-06
1.78714e-06
1.76365e-06
1.70113e-06
1.70293e-06
1.72057e-06
1.72472e-06
1.78972e-06
1.76997e-06
1.68097e-06
1.68626e-06
1.70086e-06
1.70523e-06
1.66971e-06
1.70701e-06
1.68864e-06
1.79004e-06
1.76848e-06
1.6917e-06
1.72917e-06
1.71228e-06
1.74458e-06
1.81086e-06
1.78736e-06
1.72796e-06
1.73272e-06
1.74748e-06
1.75067e-06
1.81697e-06
1.79101e-06
1.70891e-06
1.71257e-06
1.72784e-06
1.72873e-06
1.69543e-06
1.73462e-06
1.71395e-06
1.81593e-06
1.79033e-06
1.72068e-06
1.75572e-06
1.74145e-06
1.76866e-06
1.83553e-06
1.80799e-06
1.75618e-06
1.75752e-06
1.77716e-06
1.7739e-06
1.83867e-06
1.81185e-06
1.73415e-06
1.73493e-06
1.751e-06
1.75164e-06
1.72086e-06
1.75844e-06
1.73717e-06
1.83827e-06
1.81011e-06
1.74551e-06
1.77697e-06
1.76057e-06
1.78884e-06
1.85642e-06
1.82571e-06
1.78717e-06
1.77977e-06
1.80249e-06
1.79743e-06
1.85942e-06
1.82827e-06
1.75822e-06
1.75804e-06
1.77434e-06
1.77378e-06
1.744e-06
1.78518e-06
1.76078e-06
1.85843e-06
1.82706e-06
1.76806e-06
1.79961e-06
1.78537e-06
1.80658e-06
1.87099e-06
1.83876e-06
1.804e-06
1.80393e-06
1.81486e-06
1.81921e-06
1.87631e-06
1.84323e-06
1.78113e-06
1.77967e-06
1.7953e-06
1.7948e-06
1.76649e-06
1.80765e-06
1.78196e-06
1.87563e-06
1.84333e-06
1.79074e-06
1.82118e-06
1.80621e-06
1.8217e-06
1.88761e-06
1.85164e-06
1.82099e-06
1.82365e-06
1.83268e-06
1.83496e-06
1.88729e-06
1.85625e-06
1.80085e-06
1.80004e-06
1.81455e-06
1.81357e-06
1.78768e-06
1.82461e-06
1.8026e-06
1.88916e-06
1.8551e-06
1.81176e-06
1.84094e-06
1.82561e-06
1.83414e-06
1.90015e-06
1.86241e-06
1.83798e-06
1.83921e-06
1.85007e-06
1.8496e-06
1.90483e-06
1.86786e-06
1.81975e-06
1.81834e-06
1.8324e-06
1.82884e-06
1.8073e-06
1.8415e-06
1.81981e-06
1.90364e-06
1.86604e-06
1.83092e-06
1.85428e-06
1.84482e-06
1.84512e-06
1.90946e-06
1.87032e-06
1.85489e-06
1.85354e-06
1.86416e-06
1.86267e-06
1.90208e-06
1.8757e-06
1.837e-06
1.83329e-06
1.8466e-06
1.84383e-06
1.82362e-06
1.85445e-06
1.83303e-06
1.90893e-06
1.87519e-06
1.84865e-06
1.86917e-06
1.86045e-06
1.85397e-06
1.91753e-06
1.87625e-06
1.86831e-06
1.86631e-06
1.87638e-06
1.87599e-06
1.90711e-06
1.8817e-06
1.84993e-06
1.84739e-06
1.85736e-06
1.85614e-06
1.83689e-06
1.8667e-06
1.84662e-06
1.92392e-06
1.88408e-06
1.86436e-06
1.88382e-06
1.87276e-06
1.86139e-06
1.91785e-06
1.88185e-06
1.8803e-06
1.88024e-06
1.88823e-06
1.89003e-06
1.91727e-06
1.88823e-06
1.8601e-06
1.85857e-06
1.86708e-06
1.86854e-06
1.84959e-06
1.87827e-06
1.85849e-06
1.92095e-06
1.89067e-06
1.86941e-06
1.89589e-06
1.87321e-06
1.86674e-06
1.91439e-06
1.88344e-06
1.89029e-06
1.89346e-06
1.89599e-06
1.90176e-06
1.92094e-06
1.89427e-06
1.87006e-06
1.87156e-06
1.8782e-06
1.87791e-06
1.86383e-06
1.89025e-06
1.87279e-06
1.93407e-06
1.89656e-06
1.87486e-06
1.90722e-06
1.88312e-06
1.8732e-06
1.93234e-06
1.88771e-06
1.89873e-06
1.90491e-06
1.90575e-06
1.91347e-06
1.92878e-06
1.8988e-06
1.88095e-06
1.87926e-06
1.88685e-06
1.88581e-06
1.873e-06
1.90304e-06
1.87542e-06
1.935e-06
1.89963e-06
1.88475e-06
1.91717e-06
1.89269e-06
1.87693e-06
1.93582e-06
1.89085e-06
1.90889e-06
1.91652e-06
1.91579e-06
1.9225e-06
1.93299e-06
1.90063e-06
1.88885e-06
1.88736e-06
1.89335e-06
1.89474e-06
1.87895e-06
1.90916e-06
1.88674e-06
1.94902e-06
1.90398e-06
1.89468e-06
1.92461e-06
1.90217e-06
1.88247e-06
1.92942e-06
1.89152e-06
1.91778e-06
1.92318e-06
1.91866e-06
1.92774e-06
1.9367e-06
1.90096e-06
1.8937e-06
1.89676e-06
1.89768e-06
1.90257e-06
1.88823e-06
1.91365e-06
1.8957e-06
1.95265e-06
1.90689e-06
1.905e-06
1.93339e-06
1.91271e-06
1.88488e-06
1.93896e-06
1.89161e-06
1.9185e-06
1.92768e-06
1.92036e-06
1.92824e-06
1.93719e-06
1.89986e-06
1.89904e-06
1.9036e-06
1.90121e-06
1.91034e-06
1.89509e-06
1.916e-06
1.9005e-06
1.95592e-06
1.91239e-06
1.9171e-06
1.94123e-06
1.92472e-06
1.88796e-06
1.94021e-06
1.92415e-06
1.92652e-06
1.94538e-06
1.90254e-06
1.91315e-06
1.90015e-06
1.89839e-06
1.96097e-06
1.92491e-06
1.92747e-06
1.88842e-06
4.70431e-07
1.13789e-07
4.70043e-07
1.13689e-07
5.3792e-08
5.38023e-08
4.587e-07
1.10936e-07
4.54836e-07
1.10959e-07
2.26573e-06
2.2616e-06
2.25793e-06
2.34681e-06
2.31978e-06
2.31111e-06
2.29964e-06
9.33652e-07
4.7825e-07
1.92334e-06
1.65695e-06
4.81576e-07
1.93675e-06
9.31406e-07
5.33138e-08
5.34012e-08
9.57668e-07
1.9652e-06
4.85134e-07
1.67936e-06
1.97903e-06
4.87871e-07
9.56726e-07
2.41212e-07
2.44243e-07
1.70828e-06
2.41423e-07
2.44643e-07
4.69165e-07
1.13729e-07
4.68428e-07
1.13587e-07
5.39478e-08
5.39831e-08
4.60618e-07
1.11604e-07
4.57267e-07
1.1157e-07
2.33858e-06
2.32839e-06
2.31621e-06
2.36875e-06
2.40183e-06
2.37934e-06
2.35787e-06
9.40304e-07
4.81574e-07
1.96971e-06
1.69058e-06
9.40714e-07
4.84615e-07
1.98272e-06
5.37118e-08
5.3707e-08
9.66004e-07
2.01876e-06
4.8965e-07
1.71186e-06
9.6577e-07
2.03116e-06
4.91976e-07
2.42687e-07
2.45873e-07
1.73187e-06
2.42753e-07
2.46137e-07
4.69932e-07
1.13996e-07
4.68522e-07
1.14149e-07
5.42483e-08
5.43078e-08
4.62028e-07
1.12208e-07
4.58576e-07
1.12211e-07
2.41709e-06
2.39485e-06
2.37405e-06
2.43414e-06
2.46699e-06
2.44522e-06
2.41796e-06
9.46857e-07
4.84385e-07
2.01142e-06
1.72084e-06
9.47547e-07
4.87683e-07
2.02298e-06
5.39667e-08
5.39914e-08
9.72922e-07
2.06808e-06
4.93067e-07
1.74347e-06
9.73318e-07
2.07898e-06
4.95427e-07
2.44395e-07
2.47794e-07
1.75639e-06
2.44769e-07
2.48294e-07
4.72251e-07
1.14904e-07
4.70399e-07
1.15142e-07
5.45835e-08
5.46643e-08
4.65042e-07
1.13145e-07
4.61003e-07
1.1326e-07
2.47027e-06
2.45879e-06
2.43383e-06
2.50673e-06
2.49389e-06
2.50377e-06
2.48224e-06
9.52761e-07
4.88326e-07
2.0532e-06
1.74591e-06
9.53548e-07
4.91387e-07
2.06392e-06
5.43415e-08
5.43956e-08
9.80156e-07
2.11207e-06
4.96941e-07
1.76433e-06
9.80626e-07
2.12568e-06
4.98891e-07
2.46853e-07
2.50082e-07
1.77858e-06
2.4706e-07
2.50517e-07
4.74908e-07
1.15777e-07
4.73082e-07
1.15863e-07
5.4977e-08
5.50303e-08
4.67843e-07
1.14056e-07
4.64209e-07
1.14039e-07
2.5066e-06
2.52638e-06
2.50126e-06
2.5656e-06
2.55929e-06
2.53326e-06
2.55322e-06
9.57488e-07
4.91196e-07
2.0941e-06
1.77093e-06
9.59052e-07
4.941e-07
2.10351e-06
5.47393e-08
5.47609e-08
9.8496e-07
2.15926e-06
4.9936e-07
1.78851e-06
9.86571e-07
2.16685e-06
5.01332e-07
2.48493e-07
2.51771e-07
1.79729e-06
2.48377e-07
2.51844e-07
4.77259e-07
1.16256e-07
4.75574e-07
1.16241e-07
5.52299e-08
5.52478e-08
4.69174e-07
1.14588e-07
4.65972e-07
1.14497e-07
2.57475e-06
2.54486e-06
2.56761e-06
2.63137e-06
2.6289e-06
2.58782e-06
2.59611e-06
9.62087e-07
4.93787e-07
2.13624e-06
1.79763e-06
9.63762e-07
4.96484e-07
2.14559e-06
5.50283e-08
5.49968e-08
9.88146e-07
2.18559e-06
5.01704e-07
1.80992e-06
9.89912e-07
2.18512e-06
5.03147e-07
2.49435e-07
2.52615e-07
1.8146e-06
2.49164e-07
2.52369e-07
4.78892e-07
1.16442e-07
4.7748e-07
1.16382e-07
5.53608e-08
5.53156e-08
4.69864e-07
1.14963e-07
4.66752e-07
1.14825e-07
2.64352e-06
2.60302e-06
2.61361e-06
2.661e-06
2.69444e-06
2.65642e-06
2.62629e-06
9.66511e-07
4.95897e-07
2.17612e-06
1.81531e-06
9.68628e-07
4.97925e-07
2.1838e-06
5.51797e-08
5.51074e-08
9.91237e-07
2.20822e-06
5.03317e-07
1.83119e-06
9.93351e-07
2.21821e-06
5.04371e-07
2.49978e-07
2.52799e-07
1.82782e-06
2.49609e-07
2.52481e-07
4.80097e-07
1.16528e-07
4.78868e-07
1.16431e-07
5.53958e-08
5.53607e-08
4.70704e-07
1.1518e-07
4.67538e-07
1.15004e-07
2.70645e-06
2.6783e-06
2.64257e-06
2.71802e-06
2.73309e-06
2.69127e-06
2.6864e-06
9.69988e-07
4.96845e-07
2.20534e-06
1.83262e-06
9.72387e-07
4.9906e-07
2.21711e-06
5.52506e-08
5.51783e-08
9.93179e-07
2.24476e-06
5.0391e-07
1.84706e-06
9.95647e-07
2.25538e-06
5.05047e-07
2.50352e-07
2.52805e-07
1.83954e-06
2.50003e-07
2.52522e-07
4.8079e-07
1.16551e-07
4.79561e-07
1.16449e-07
5.54457e-08
5.53967e-08
4.71525e-07
1.15292e-07
4.68431e-07
1.15089e-07
2.73978e-06
2.70237e-06
2.69989e-06
2.77183e-06
2.73828e-06
2.74649e-06
2.74294e-06
9.7192e-07
4.97819e-07
2.22615e-06
1.84801e-06
9.75124e-07
4.99332e-07
2.2345e-06
5.53417e-08
5.5272e-08
9.94351e-07
2.28084e-06
5.04656e-07
1.86128e-06
9.96785e-07
2.28682e-06
5.05908e-07
2.50797e-07
2.53074e-07
1.84821e-06
2.50436e-07
2.52933e-07
4.80943e-07
1.16564e-07
4.80009e-07
1.1643e-07
5.54717e-08
5.54424e-08
4.72016e-07
1.15333e-07
4.68905e-07
1.15111e-07
2.74586e-06
2.76625e-06
2.75454e-06
2.79283e-06
2.78423e-06
2.79236e-06
2.7871e-06
9.73068e-07
4.98079e-07
2.25614e-06
1.85938e-06
9.76525e-07
4.99824e-07
2.26393e-06
5.54159e-08
5.53353e-08
9.94939e-07
2.30794e-06
5.05563e-07
1.87638e-06
9.97419e-07
2.3169e-06
5.06548e-07
2.51219e-07
2.53554e-07
1.85608e-06
2.5082e-07
2.53303e-07
4.81086e-07
1.16504e-07
4.80088e-07
1.16319e-07
5.55416e-08
5.55015e-08
4.72593e-07
1.15305e-07
4.69491e-07
1.15068e-07
2.79753e-06
2.79837e-06
2.79218e-06
2.83663e-06
2.83041e-06
2.8346e-06
2.7998e-06
9.73608e-07
4.98362e-07
2.28558e-06
1.87211e-06
9.77048e-07
5.00421e-07
2.29127e-06
5.543e-08
5.53067e-08
9.96187e-07
2.33414e-06
5.06197e-07
1.8895e-06
9.98836e-07
2.33577e-06
5.07059e-07
2.51362e-07
2.53711e-07
1.86342e-06
2.50903e-07
2.53301e-07
4.81471e-07
1.16351e-07
4.80281e-07
1.16206e-07
5.55598e-08
5.54995e-08
4.72507e-07
1.15245e-07
4.69842e-07
1.14994e-07
2.84289e-06
2.84845e-06
2.81002e-06
2.87728e-06
2.87455e-06
2.87878e-06
2.83805e-06
9.74732e-07
4.98564e-07
2.29469e-06
1.88381e-06
9.78151e-07
5.00402e-07
2.29964e-06
5.53574e-08
5.52313e-08
9.97761e-07
2.34014e-06
5.06303e-07
1.90067e-06
1.0001e-06
2.34571e-06
5.07131e-07
2.51547e-07
2.53573e-07
1.87016e-06
2.51133e-07
2.53212e-07
4.81504e-07
1.16317e-07
4.80493e-07
1.16228e-07
5.55523e-08
5.54871e-08
4.72411e-07
1.15141e-07
4.6961e-07
1.14856e-07
2.88692e-06
2.88186e-06
2.84945e-06
2.91152e-06
2.91655e-06
2.8997e-06
2.88072e-06
9.76173e-07
4.98219e-07
2.31649e-06
1.89578e-06
9.79327e-07
4.99705e-07
2.32262e-06
5.53056e-08
5.52031e-08
9.98511e-07
2.37138e-06
5.06144e-07
1.91194e-06
1.00126e-06
2.37552e-06
5.06796e-07
2.51665e-07
2.53647e-07
1.87306e-06
2.51113e-07
2.53429e-07
4.82078e-07
1.16423e-07
4.80799e-07
1.16298e-07
5.55381e-08
5.54867e-08
4.72498e-07
1.15029e-07
4.6944e-07
1.14807e-07
2.92595e-06
2.89407e-06
2.89073e-06
2.94341e-06
2.95578e-06
2.91789e-06
2.92532e-06
9.76616e-07
4.97673e-07
2.34437e-06
1.90743e-06
9.80428e-07
4.993e-07
2.34686e-06
5.53124e-08
5.52289e-08
1.00051e-06
2.38739e-06
5.06012e-07
1.92e-06
1.00264e-06
2.3884e-06
5.06988e-07
2.51449e-07
2.53981e-07
1.87825e-06
2.50827e-07
2.53673e-07
4.81953e-07
1.16388e-07
4.80925e-07
1.16276e-07
5.55497e-08
5.54977e-08
4.73117e-07
1.15072e-07
4.70033e-07
1.14876e-07
2.97353e-06
2.93858e-06
2.9293e-06
2.96883e-06
2.99419e-06
2.96238e-06
2.94588e-06
9.76695e-07
4.97124e-07
2.35772e-06
1.91023e-06
9.80277e-07
4.98814e-07
2.35886e-06
5.53653e-08
5.52891e-08
1.0022e-06
2.39148e-06
5.06095e-07
1.92916e-06
1.00415e-06
2.39701e-06
5.06872e-07
2.51275e-07
2.54111e-07
1.88336e-06
2.50845e-07
2.53715e-07
4.81894e-07
1.16388e-07
4.80879e-07
1.16309e-07
5.55731e-08
5.55341e-08
4.73255e-07
1.15102e-07
4.70582e-07
1.14866e-07
2.99721e-06
2.96459e-06
2.95227e-06
2.98745e-06
2.98953e-06
2.97731e-06
2.97503e-06
9.76761e-07
4.96536e-07
2.36607e-06
1.91371e-06
9.80407e-07
4.97821e-07
2.36827e-06
5.54151e-08
5.53156e-08
1.00134e-06
2.41235e-06
5.06198e-07
1.9382e-06
1.00405e-06
2.4146e-06
5.07096e-07
2.51527e-07
2.5414e-07
1.88608e-06
2.50972e-07
2.53784e-07
4.81833e-07
1.1656e-07
4.80795e-07
1.16527e-07
5.56085e-08
5.55462e-08
4.72947e-07
1.15071e-07
4.70144e-07
1.14844e-07
3.00229e-06
2.97981e-06
2.969e-06
2.98622e-06
9.76149e-07
4.96133e-07
2.37709e-06
1.91698e-06
9.80047e-07
4.98165e-07
2.37989e-06
5.54069e-08
5.52909e-08
1.00096e-06
2.42708e-06
5.0604e-07
1.9452e-06
1.00257e-06
2.43725e-06
5.06428e-07
2.51388e-07
2.53978e-07
1.8887e-06
2.50684e-07
2.53522e-07
4.70963e-07
1.14101e-07
1.14011e-07
4.70474e-07
9.52998e-07
4.88699e-07
1.97789e-06
1.67718e-06
1.98879e-06
9.53679e-07
4.90106e-07
9.53624e-07
4.8914e-07
1.9746e-06
1.67903e-06
4.91421e-07
1.98834e-06
9.53995e-07
4.69243e-07
1.1361e-07
4.69553e-07
1.13789e-07
4.6984e-07
1.14032e-07
1.14152e-07
4.7006e-07
9.56337e-07
1.68712e-06
4.90361e-07
2.00919e-06
2.00137e-06
9.54746e-07
4.89492e-07
9.57041e-07
1.68826e-06
4.92086e-07
2.01479e-06
4.9024e-07
1.99909e-06
9.5563e-07
2.47384e-07
2.42575e-07
1.72753e-06
2.47559e-07
2.4286e-07
5.29925e-08
5.30786e-08
5.38703e-08
5.38563e-08
1.77437e-06
2.4808e-07
2.43656e-07
2.47966e-07
2.43578e-07
5.32526e-08
5.32194e-08
9.28909e-07
4.75947e-07
1.93844e-06
1.65907e-06
1.94804e-06
9.28919e-07
4.79299e-07
4.59832e-07
1.11781e-07
1.11874e-07
4.55862e-07
9.31243e-07
1.93373e-06
4.79909e-07
1.66472e-06
1.94569e-06
4.83559e-07
9.30978e-07
4.56212e-07
1.11268e-07
4.59912e-07
1.11269e-07
9.33201e-07
1.6679e-06
4.80878e-07
1.96649e-06
1.95907e-06
9.32901e-07
4.77652e-07
4.57365e-07
1.12245e-07
1.1221e-07
4.6105e-07
9.3561e-07
1.67341e-06
1.96848e-06
4.85381e-07
1.95891e-06
4.81863e-07
9.3481e-07
4.61257e-07
1.11348e-07
1.11452e-07
4.56828e-07
9.31652e-07
1.91915e-06
4.75278e-07
1.64463e-06
1.93177e-06
4.78601e-07
9.29339e-07
4.6024e-07
1.10713e-07
1.10796e-07
4.55749e-07
9.36887e-07
1.6644e-06
4.8337e-07
1.96101e-06
4.79958e-07
1.94797e-06
9.37835e-07
4.58874e-07
1.11836e-07
1.11795e-07
4.62766e-07
9.34989e-07
1.65423e-06
1.95449e-06
4.80248e-07
1.94438e-06
4.76917e-07
9.34721e-07
4.57934e-07
1.11176e-07
1.11132e-07
4.61853e-07
2.43985e-07
2.46238e-07
1.72834e-06
2.4438e-07
2.46853e-07
5.3357e-08
5.35116e-08
5.35778e-08
5.35371e-08
1.77538e-06
2.45214e-07
2.48022e-07
2.45096e-07
2.47415e-07
5.37379e-08
5.36259e-08
9.58833e-07
1.96539e-06
4.83345e-07
1.6676e-06
1.97772e-06
4.85517e-07
9.58341e-07
4.69925e-07
1.12792e-07
1.13171e-07
4.67828e-07
4.70434e-07
1.12774e-07
1.12925e-07
4.68184e-07
9.61541e-07
1.68698e-06
2.00612e-06
4.9059e-07
1.99262e-06
4.87817e-07
9.62162e-07
9.62734e-07
1.67707e-06
2.00304e-06
4.87225e-07
1.99238e-06
4.85159e-07
9.62603e-07
4.69659e-07
1.13642e-07
1.13382e-07
4.71783e-07
4.7012e-07
1.13209e-07
1.13076e-07
4.72091e-07
5.26749e-08
5.2736e-08
5.31075e-08
5.31818e-08
1.75508e-06
2.42082e-07
2.45398e-07
2.42087e-07
2.45138e-07
5.28942e-08
5.28675e-08
5.33342e-08
5.32724e-08
5.37353e-08
5.37434e-08
5.31961e-08
5.32122e-08
2.48134e-07
2.43411e-07
1.75107e-06
2.4819e-07
2.43363e-07
5.38639e-08
5.38112e-08
5.33662e-08
5.3336e-08
1.79814e-06
2.48879e-07
2.44145e-07
2.48664e-07
2.4406e-07
4.69568e-07
1.1416e-07
4.68952e-07
1.14111e-07
9.57145e-07
4.89443e-07
2.01904e-06
1.70618e-06
9.58125e-07
4.9096e-07
2.02617e-06
9.57869e-07
4.91009e-07
2.03137e-06
1.70946e-06
9.5907e-07
4.92942e-07
2.04317e-06
4.68154e-07
1.13792e-07
1.13705e-07
4.69369e-07
4.68583e-07
1.14311e-07
1.14236e-07
4.69777e-07
9.60546e-07
1.71456e-06
4.92138e-07
2.0442e-06
4.90232e-07
2.0373e-06
9.59562e-07
9.61489e-07
1.71884e-06
4.93853e-07
2.07373e-06
4.91979e-07
2.05375e-06
9.60438e-07
2.48577e-07
2.44246e-07
1.75675e-06
2.48927e-07
2.44212e-07
5.33712e-08
5.33774e-08
5.41434e-08
5.40687e-08
1.80413e-06
2.49876e-07
2.44888e-07
2.49503e-07
2.4486e-07
5.35201e-08
5.34971e-08
9.3456e-07
4.79666e-07
1.97745e-06
1.6874e-06
9.36099e-07
4.82495e-07
1.98492e-06
4.61658e-07
1.12553e-07
4.58389e-07
1.12538e-07
9.36408e-07
1.97979e-06
4.83623e-07
1.69188e-06
9.37983e-07
1.98897e-06
4.86583e-07
4.57941e-07
1.11872e-07
1.11877e-07
4.61259e-07
9.38503e-07
1.69546e-06
4.83995e-07
2.00436e-06
4.80857e-07
1.996e-06
9.37033e-07
4.58923e-07
1.12771e-07
1.12829e-07
4.62133e-07
9.40505e-07
1.69974e-06
2.0072e-06
4.87672e-07
1.99986e-06
4.85314e-07
9.38771e-07
4.63786e-07
1.12145e-07
4.60218e-07
1.12141e-07
9.38169e-07
1.96573e-06
4.78585e-07
1.67533e-06
9.38933e-07
1.97537e-06
4.8196e-07
4.62893e-07
1.11488e-07
4.59328e-07
1.11512e-07
9.43756e-07
1.69786e-06
4.86109e-07
2.00371e-06
4.82903e-07
1.99112e-06
9.43476e-07
4.61125e-07
1.12425e-07
1.12435e-07
4.64625e-07
9.42259e-07
1.68332e-06
1.99435e-06
4.83528e-07
1.9867e-06
4.80332e-07
9.41539e-07
4.60255e-07
1.11854e-07
1.11824e-07
4.63759e-07
2.45814e-07
2.48557e-07
1.756e-06
2.457e-07
2.4888e-07
5.38382e-08
5.39191e-08
5.3831e-08
5.38254e-08
1.8035e-06
2.46319e-07
2.49655e-07
2.4636e-07
2.4937e-07
5.40871e-08
5.40113e-08
9.66321e-07
2.01643e-06
4.86935e-07
1.69748e-06
9.66435e-07
2.02734e-06
4.88947e-07
4.73237e-07
1.13821e-07
4.71204e-07
1.13996e-07
4.73406e-07
1.13379e-07
4.71482e-07
1.13525e-07
9.6977e-07
1.71812e-06
2.05797e-06
4.93952e-07
2.04375e-06
4.91301e-07
9.69788e-07
9.70422e-07
1.70625e-06
2.05075e-06
4.90919e-07
2.04027e-06
4.88751e-07
9.70306e-07
4.72622e-07
1.14331e-07
1.14173e-07
4.74548e-07
4.72795e-07
1.13911e-07
1.13715e-07
4.74751e-07
5.30165e-08
5.30422e-08
5.342e-08
5.34851e-08
1.77864e-06
2.4362e-07
2.47173e-07
2.43452e-07
2.46705e-07
5.3223e-08
5.31714e-08
5.36804e-08
5.35819e-08
5.39556e-08
5.40508e-08
5.34969e-08
5.35603e-08
2.49427e-07
2.4487e-07
1.77567e-06
2.49872e-07
2.45111e-07
5.43059e-08
5.41701e-08
5.38369e-08
5.37154e-08
1.82341e-06
2.51104e-07
2.46525e-07
2.5051e-07
2.46004e-07
4.70366e-07
1.1447e-07
4.68964e-07
1.14595e-07
9.62295e-07
4.91821e-07
2.05424e-06
1.73471e-06
9.63295e-07
4.93862e-07
2.06292e-06
9.62823e-07
4.93647e-07
2.08016e-06
1.73855e-06
9.6398e-07
4.95582e-07
2.08854e-06
4.6928e-07
1.14631e-07
1.14379e-07
4.71003e-07
4.69699e-07
1.14895e-07
1.1477e-07
4.71339e-07
9.66293e-07
1.74196e-06
4.95775e-07
2.08391e-06
4.93633e-07
2.07447e-06
9.65661e-07
9.6673e-07
1.74616e-06
4.96706e-07
2.09261e-06
4.9475e-07
2.09386e-06
9.65621e-07
2.50471e-07
2.45589e-07
1.78058e-06
2.50667e-07
2.45679e-07
5.36481e-08
5.37069e-08
5.44748e-08
5.43983e-08
1.82777e-06
2.51354e-07
2.46844e-07
2.51181e-07
2.46493e-07
5.39307e-08
5.38523e-08
9.39975e-07
4.82359e-07
2.01446e-06
1.71476e-06
9.41216e-07
4.85506e-07
2.02581e-06
4.62795e-07
1.13055e-07
4.59446e-07
1.13031e-07
9.41323e-07
2.01906e-06
4.86099e-07
1.71785e-06
9.42796e-07
2.0279e-06
4.8912e-07
4.59545e-07
1.1272e-07
1.12577e-07
4.63357e-07
9.44543e-07
1.72306e-06
4.87941e-07
2.04572e-06
4.84767e-07
2.0352e-06
9.43812e-07
4.60236e-07
1.1338e-07
1.13342e-07
4.63931e-07
9.45667e-07
1.72454e-06
2.04773e-06
4.9079e-07
2.03894e-06
4.87445e-07
9.4491e-07
4.65754e-07
1.12735e-07
4.62082e-07
1.1277e-07
9.45392e-07
2.00574e-06
4.82652e-07
1.7016e-06
9.45922e-07
2.01516e-06
4.85836e-07
4.64924e-07
1.12202e-07
4.61242e-07
1.12327e-07
9.51072e-07
1.72695e-06
4.89633e-07
2.04339e-06
4.86166e-07
2.03238e-06
9.50366e-07
4.63269e-07
1.13188e-07
1.13113e-07
4.67028e-07
9.49815e-07
1.70943e-06
2.03527e-06
4.88226e-07
2.02674e-06
4.84583e-07
9.48995e-07
4.62514e-07
1.12857e-07
1.12707e-07
4.66391e-07
2.47012e-07
2.50204e-07
1.77946e-06
2.47154e-07
2.50565e-07
5.41859e-08
5.42771e-08
5.41884e-08
5.41283e-08
1.82732e-06
2.48084e-07
2.51501e-07
2.47897e-07
2.51105e-07
5.44823e-08
5.43832e-08
9.73514e-07
2.0617e-06
4.9077e-07
1.72865e-06
9.74073e-07
2.07347e-06
4.93123e-07
4.75905e-07
1.14532e-07
4.73978e-07
1.14723e-07
4.7608e-07
1.1413e-07
4.74149e-07
1.14367e-07
9.76668e-07
1.75043e-06
2.10146e-06
4.97098e-07
2.09233e-06
4.94798e-07
9.76924e-07
9.77499e-07
1.73542e-06
2.09187e-06
4.95239e-07
2.08311e-06
4.92651e-07
9.77767e-07
4.75333e-07
1.15121e-07
1.14923e-07
4.77374e-07
4.75728e-07
1.14887e-07
1.14603e-07
4.77697e-07
5.33683e-08
5.34614e-08
5.37981e-08
5.39206e-08
1.80389e-06
2.46072e-07
2.49489e-07
2.45622e-07
2.48918e-07
5.37411e-08
5.36269e-08
5.41818e-08
5.40473e-08
5.44406e-08
5.45829e-08
5.40143e-08
5.41336e-08
2.51779e-07
2.47438e-07
1.79898e-06
2.52369e-07
2.47828e-07
5.48119e-08
5.47078e-08
5.43615e-08
5.42948e-08
1.84688e-06
2.53315e-07
2.48739e-07
2.52949e-07
2.48628e-07
4.72477e-07
1.15078e-07
4.70727e-07
1.15266e-07
9.68884e-07
4.95787e-07
2.09665e-06
1.76323e-06
9.69511e-07
4.97915e-07
2.1073e-06
9.68672e-07
4.96017e-07
2.09805e-06
1.76268e-06
9.69442e-07
4.98737e-07
2.10628e-06
4.71725e-07
1.15568e-07
1.15371e-07
4.73631e-07
4.71938e-07
1.15701e-07
1.15489e-07
4.73832e-07
9.72903e-07
1.77145e-06
4.99962e-07
2.12952e-06
4.97883e-07
2.11973e-06
9.72045e-07
9.7283e-07
1.76874e-06
5.00192e-07
2.12678e-06
4.97891e-07
2.11734e-06
9.72163e-07
2.51913e-07
2.47639e-07
1.80186e-06
2.52321e-07
2.47857e-07
5.40789e-08
5.4153e-08
5.4868e-08
5.47728e-08
1.8495e-06
2.53191e-07
2.48654e-07
2.52859e-07
2.48583e-07
5.43399e-08
5.42934e-08
9.48816e-07
4.87085e-07
2.05516e-06
1.73958e-06
9.48837e-07
4.90335e-07
2.06766e-06
4.65504e-07
1.13726e-07
4.61541e-07
1.1381e-07
9.49265e-07
2.0568e-06
4.89295e-07
1.74031e-06
9.49648e-07
2.0685e-06
4.92875e-07
4.62774e-07
1.13701e-07
1.13632e-07
4.6669e-07
9.53279e-07
1.74705e-06
4.92111e-07
2.08994e-06
4.88772e-07
2.0782e-06
9.51572e-07
4.63176e-07
1.14228e-07
1.14166e-07
4.67135e-07
9.53877e-07
1.74724e-06
2.08792e-06
4.94647e-07
2.07778e-06
4.91255e-07
9.52594e-07
4.68282e-07
1.13542e-07
4.64537e-07
1.13602e-07
9.52257e-07
2.04618e-06
4.86673e-07
1.72592e-06
9.53396e-07
2.056e-06
4.90059e-07
4.67874e-07
1.13226e-07
4.63997e-07
1.1332e-07
9.56528e-07
1.75205e-06
4.92877e-07
2.08472e-06
4.89764e-07
2.07534e-06
9.55892e-07
4.65759e-07
1.13962e-07
1.13941e-07
4.69533e-07
9.56417e-07
1.73282e-06
2.07449e-06
4.91685e-07
2.06638e-06
4.8884e-07
9.54933e-07
4.6546e-07
1.13715e-07
1.13674e-07
4.69286e-07
2.48809e-07
2.52068e-07
1.8002e-06
2.48995e-07
2.52415e-07
5.45911e-08
5.46861e-08
5.45928e-08
5.45382e-08
1.84845e-06
2.49866e-07
2.53163e-07
2.49728e-07
2.5292e-07
5.48654e-08
5.47885e-08
9.81654e-07
2.10391e-06
4.95092e-07
1.75004e-06
9.81854e-07
2.11362e-06
4.97489e-07
4.7901e-07
1.15341e-07
4.76833e-07
1.15535e-07
4.79545e-07
1.15133e-07
4.77448e-07
1.15388e-07
9.84044e-07
1.76919e-06
2.14807e-06
5.00259e-07
2.13443e-06
4.981e-07
9.83453e-07
9.85466e-07
1.75594e-06
2.13529e-06
4.98963e-07
2.12544e-06
4.96677e-07
9.84341e-07
4.78469e-07
1.15869e-07
1.15728e-07
4.80425e-07
4.79017e-07
1.15764e-07
1.15598e-07
4.81075e-07
5.39035e-08
5.39869e-08
5.43101e-08
5.44262e-08
1.82603e-06
2.47874e-07
2.51308e-07
2.4779e-07
2.51041e-07
5.4176e-08
5.41296e-08
5.46168e-08
5.45371e-08
5.4909e-08
5.49656e-08
5.44947e-08
5.45059e-08
2.53801e-07
2.49407e-07
1.81692e-06
2.53921e-07
2.49296e-07
5.50682e-08
5.50427e-08
5.46013e-08
5.46254e-08
1.86539e-06
2.54336e-07
2.49643e-07
2.54367e-07
2.49891e-07
4.75233e-07
1.15901e-07
4.73345e-07
1.16068e-07
9.747e-07
4.991e-07
2.14135e-06
1.7914e-06
9.75934e-07
5.01103e-07
2.15143e-06
9.75313e-07
4.99401e-07
2.13691e-06
1.7862e-06
9.7627e-07
5.01784e-07
2.14891e-06
4.74354e-07
1.16091e-07
1.1603e-07
4.7617e-07
4.74718e-07
1.16376e-07
1.16254e-07
4.76506e-07
9.78449e-07
1.79986e-06
5.02019e-07
2.1742e-06
5.00362e-07
2.16317e-06
9.77267e-07
9.79312e-07
1.79283e-06
5.02883e-07
2.16966e-06
5.00962e-07
2.15936e-06
9.77769e-07
2.53743e-07
2.4933e-07
1.82043e-06
2.5382e-07
2.49186e-07
5.44699e-08
5.44956e-08
5.51472e-08
5.51102e-08
1.86789e-06
2.54084e-07
2.49865e-07
2.54253e-07
2.49889e-07
5.4627e-08
5.46239e-08
9.53669e-07
4.9051e-07
2.10236e-06
1.76293e-06
9.5549e-07
4.9345e-07
2.11137e-06
4.68336e-07
1.14567e-07
4.64705e-07
1.14595e-07
9.54423e-07
2.10053e-06
4.92977e-07
1.76257e-06
9.56134e-07
2.10914e-06
4.96079e-07
4.65274e-07
1.14294e-07
1.14344e-07
4.687e-07
9.57374e-07
1.7704e-06
4.94275e-07
2.13205e-06
4.91699e-07
2.12411e-06
9.55047e-07
4.65761e-07
1.14882e-07
1.14915e-07
4.69183e-07
9.58194e-07
1.76969e-06
2.12866e-06
4.97053e-07
2.12168e-06
4.94472e-07
9.55866e-07
4.70591e-07
1.14276e-07
4.67021e-07
1.14274e-07
9.57475e-07
2.08678e-06
4.89987e-07
1.74913e-06
9.59143e-07
2.09668e-06
4.92882e-07
4.70476e-07
1.14041e-07
4.66817e-07
1.14051e-07
9.61134e-07
1.77746e-06
4.95411e-07
2.12509e-06
4.92423e-07
2.11501e-06
9.60317e-07
4.67988e-07
1.1456e-07
1.14581e-07
4.71543e-07
9.61648e-07
1.75599e-06
2.11723e-06
4.93708e-07
2.10796e-06
4.91205e-07
9.60134e-07
4.67965e-07
1.14328e-07
1.14361e-07
4.71651e-07
2.50557e-07
2.53622e-07
1.81857e-06
2.50583e-07
2.53751e-07
5.49523e-08
5.50042e-08
5.49003e-08
5.48916e-08
1.86688e-06
2.51209e-07
2.54293e-07
2.51301e-07
2.54215e-07
5.512e-08
5.5082e-08
9.85782e-07
2.15339e-06
4.98056e-07
1.77286e-06
9.87712e-07
2.16369e-06
4.99985e-07
4.81416e-07
1.16035e-07
4.798e-07
1.16128e-07
4.82009e-07
1.15933e-07
4.80434e-07
1.16026e-07
9.88431e-07
1.7939e-06
2.18476e-06
5.02503e-07
2.18204e-06
5.00912e-07
9.86781e-07
9.89358e-07
1.78039e-06
2.1889e-06
5.00765e-07
2.17488e-06
4.99386e-07
9.87728e-07
4.80625e-07
1.16347e-07
1.16289e-07
4.8201e-07
4.81182e-07
1.1621e-07
1.16182e-07
4.8258e-07
5.43069e-08
5.43162e-08
5.47081e-08
5.47572e-08
1.84529e-06
2.4886e-07
2.5225e-07
2.49014e-07
2.5228e-07
5.44275e-08
5.44388e-08
5.48552e-08
5.48352e-08
5.51336e-08
5.51287e-08
5.47137e-08
5.46848e-08
2.54747e-07
2.50231e-07
1.83224e-06
2.54506e-07
2.50018e-07
5.51539e-08
5.51863e-08
5.47581e-08
5.47984e-08
1.8798e-06
2.54572e-07
2.50313e-07
2.54882e-07
2.50597e-07
4.77586e-07
1.16539e-07
4.7594e-07
1.16562e-07
9.7951e-07
5.0151e-07
2.18449e-06
1.80658e-06
9.81018e-07
5.0268e-07
2.19273e-06
9.79705e-07
5.02399e-07
2.18114e-06
1.80831e-06
9.81351e-07
5.03553e-07
2.19259e-06
4.76626e-07
1.16311e-07
1.16365e-07
4.78209e-07
4.76963e-07