/*--------------------------------*- C++ -*----------------------------------*\
| =========                 |                                                 |
| \\      /  F ield         | OpenFOAM: The Open Source CFD Toolbox           |
|  \\    /   O peration     | Version:  2206                                  |
|   \\  /    A nd           | Website:  www.openfoam.com                      |
|    \\/     M anipulation  |                                                 |
\*---------------------------------------------------------------------------*/
FoamFile
{
    version     2.0;
    format      ascii;
    arch        "LSB;label=32;scalar=64";
    class       volScalarField;
    location    "149";
    object      p;
}
// * * * * * * * * * * * * * * * * * * * * * * * * * * * * * * * * * * * * * //

dimensions      [0 2 -2 0 0 0 0];

internalField   nonuniform List<scalar> 
66928
(
-0.00653685
-0.00652598
-0.00652553
-0.00652547
-0.00653671
-0.00652551
-0.0065584
-0.0067126
-0.00652549
-0.00652519
-0.00653669
-0.00653689
-0.00653674
-0.00653691
-0.00653662
-0.00653644
-0.00653693
-0.00653719
-0.00653668
-0.00652534
-0.00653678
-0.00653696
-0.0065372
-0.00652538
-0.0065367
-0.00653679
-0.00653692
-0.00653694
-0.00653677
-0.00653675
-0.00653636
-0.00653672
-0.00655868
-0.00662454
-0.00655859
-0.0066247
-0.00655867
-0.00655855
-0.00662459
-0.00662457
-0.00662475
-0.00671256
-0.00664659
-0.00671267
-0.00664645
-0.00664627
-0.00671258
-0.00671272
-0.0066466
-0.00664645
-0.00651484
-0.00651466
-0.0065371
-0.00651489
-0.00653666
-0.00651489
-0.00651457
-0.00653687
-0.00651457
-0.00653726
-0.00651472
-0.00653678
-0.00651483
-0.00651424
-0.00653696
-0.00651463
-0.00653678
-0.00653681
-0.00651481
-0.00651479
-0.00653695
-0.00651481
-0.00653667
-0.00651473
-0.00653649
-0.00653701
-0.00653687
-0.00653714
-0.00653697
-0.00653695
-0.00653704
-0.0065369
-0.00653698
-0.00653715
-0.00653696
-0.00651463
-0.00653725
-0.00651476
-0.00653682
-0.00651428
-0.00651488
-0.00653698
-0.00651472
-0.00653706
-0.0065149
-0.00653672
-0.00651497
-0.00651447
-0.00653688
-0.00651471
-0.00653685
-0.00653681
-0.00651485
-0.00651488
-0.00653698
-0.00651492
-0.00651495
-0.00653671
-0.00651495
-0.00653661
-0.0065806
-0.0066026
-0.00658079
-0.00660248
-0.00660243
-0.00662461
-0.00662465
-0.0066026
-0.00660257
-0.0066248
-0.0065808
-0.0065583
-0.00655875
-0.00658065
-0.00655854
-0.00658058
-0.006581
-0.00658088
-0.00655808
-0.00655868
-0.00658084
-0.00655846
-0.00658069
-0.00658122
-0.00658086
-0.00655869
-0.00655865
-0.00655853
-0.00658068
-0.00658071
-0.00660246
-0.00662452
-0.00660257
-0.00662491
-0.00660266
-0.00662475
-0.00660219
-0.00660238
-0.00662462
-0.00660244
-0.00662512
-0.00660259
-0.00662484
-0.00660196
-0.00669057
-0.00666853
-0.0066904
-0.00666867
-0.00666875
-0.00664655
-0.00664652
-0.00664637
-0.00666859
-0.00666862
-0.00669038
-0.00671292
-0.00669053
-0.00671252
-0.00669062
-0.00669014
-0.00671274
-0.00669029
-0.0067131
-0.00669036
-0.00671259
-0.00669052
-0.0066899
-0.00671281
-0.00666867
-0.00664664
-0.00664623
-0.00666857
-0.00664641
-0.0066685
-0.00666891
-0.00666875
-0.00664656
-0.00664599
-0.00666872
-0.00664632
-0.00666859
-0.0066691
-0.00669038
-0.0067126
-0.00671263
-0.00669055
-0.00669051
-0.00671279
-0.0065153
-0.0065146
-0.00653669
-0.00653683
-0.00651474
-0.00651453
-0.00653609
-0.00651535
-0.0065144
-0.00653679
-0.00653668
-0.00651454
-0.00651466
-0.00653609
-0.00658005
-0.0065585
-0.0065584
-0.00658071
-0.00655922
-0.00658059
-0.00658078
-0.00669105
-0.00669023
-0.00671252
-0.00671266
-0.00669037
-0.00669022
-0.00671198
-0.00652499
-0.00652494
-0.00651499
-0.00653741
-0.00651526
-0.00653646
-0.00651455
-0.00651517
-0.00653738
-0.00651386
-0.00653759
-0.00651492
-0.00653667
-0.00651384
-0.00651488
-0.00653747
-0.00651369
-0.00651471
-0.00653673
-0.00653773
-0.0065148
-0.00651354
-0.00653759
-0.00651387
-0.00653759
-0.00651494
-0.00653669
-0.00651489
-0.00651385
-0.00653747
-0.0065137
-0.00651472
-0.00653773
-0.00653673
-0.00651355
-0.00651479
-0.00653762
-0.00651443
-0.00653721
-0.00651523
-0.00653617
-0.00651423
-0.00651531
-0.00653685
-0.00660314
-0.00660225
-0.00662451
-0.00662467
-0.00662399
-0.00660239
-0.00660227
-0.0066679
-0.00666864
-0.00664642
-0.00664628
-0.00664709
-0.00666852
-0.00666867
-0.00656938
-0.00656944
-0.00656952
-0.00655831
-0.00674516
-0.00674533
-0.00674527
-0.00673411
-0.00692152
-0.00692174
-0.00692168
-0.00691049
-0.0070978
-0.007098
-0.007098
-0.00708679
-0.00727417
-0.00727441
-0.00727434
-0.00726321
-0.00745121
-0.00745137
-0.00745137
-0.00744012
-0.00762871
-0.00762887
-0.00762889
-0.00761754
-0.00780658
-0.00780673
-0.0078068
-0.0077955
-0.00798494
-0.007985
-0.0079851
-0.00797376
-0.00816353
-0.00816365
-0.00816362
-0.00815221
-0.00834238
-0.00834253
-0.00834248
-0.00833105
-0.00852151
-0.00852162
-0.00852169
-0.00851022
-0.00870098
-0.0087011
-0.00870107
-0.00868958
-0.00888059
-0.00888074
-0.00888067
-0.00886926
-0.00906034
-0.0090605
-0.00906041
-0.00904897
-0.00924014
-0.00924022
-0.0092402
-0.0092287
-0.00942005
-0.00942006
-0.00942018
-0.00940864
-0.00656956
-0.00656955
-0.00670135
-0.00670141
-0.00655836
-0.0067126
-0.00656951
-0.00656952
-0.00670132
-0.00670128
-0.00656941
-0.0067013
-0.00670123
-0.00655835
-0.0067125
-0.00656948
-0.00670126
-0.00670125
-0.00671247
-0.00673422
-0.00688895
-0.00674533
-0.00674539
-0.00687769
-0.0068777
-0.00673424
-0.00688894
-0.0067453
-0.00674526
-0.00687766
-0.0068776
-0.00674523
-0.00687768
-0.00687758
-0.00673413
-0.00688886
-0.00674524
-0.0068776
-0.00687759
-0.00688883
-0.0069106
-0.00706528
-0.00692175
-0.00692171
-0.00705405
-0.00705397
-0.00691059
-0.00706522
-0.00692175
-0.00692167
-0.00705405
-0.00705395
-0.00692165
-0.00705394
-0.00705395
-0.00691052
-0.0070652
-0.00692166
-0.00705396
-0.00705396
-0.00706516
-0.00708688
-0.00724149
-0.00709803
-0.00709798
-0.00723025
-0.00723028
-0.00708685
-0.00724155
-0.00709804
-0.00709797
-0.00723023
-0.00723022
-0.00709797
-0.00723029
-0.0072303
-0.00708682
-0.0072415
-0.00709798
-0.00723023
-0.0072303
-0.00724153
-0.00726314
-0.00741837
-0.00727433
-0.00727437
-0.0074071
-0.00740713
-0.00726322
-0.00741839
-0.00727431
-0.00727431
-0.00740707
-0.00740707
-0.00727441
-0.00740709
-0.00740712
-0.00726316
-0.00741837
-0.00727442
-0.00740708
-0.00740709
-0.00741838
-0.00744013
-0.00759581
-0.0074514
-0.00745138
-0.0075845
-0.00758449
-0.00744014
-0.00759577
-0.00745136
-0.00745134
-0.00758446
-0.00758446
-0.00745137
-0.00758447
-0.00758439
-0.00744012
-0.00759579
-0.00745135
-0.0075845
-0.00758443
-0.00759572
-0.00761759
-0.00777361
-0.00762885
-0.00762886
-0.00776227
-0.00776227
-0.00761758
-0.0077736
-0.00762881
-0.00762883
-0.00776228
-0.00776227
-0.00762879
-0.00776225
-0.0077623
-0.00761758
-0.00777364
-0.00762884
-0.00776231
-0.00776231
-0.00777362
-0.00779545
-0.00795185
-0.00780675
-0.00780671
-0.00794047
-0.00794041
-0.00779544
-0.00795175
-0.00780677
-0.00780675
-0.00794052
-0.00794051
-0.00780681
-0.00794041
-0.00794049
-0.00779549
-0.00795188
-0.00780684
-0.00794053
-0.00794057
-0.00795185
-0.00797374
-0.00813038
-0.00798505
-0.00798497
-0.00811898
-0.008119
-0.00797366
-0.00813033
-0.0079851
-0.00798509
-0.008119
-0.00811899
-0.00798507
-0.00811895
-0.00811894
-0.00797377
-0.00813035
-0.00798516
-0.00811899
-0.00811897
-0.00813028
-0.0081523
-0.0083092
-0.00816366
-0.00816366
-0.00829783
-0.00829782
-0.00815228
-0.00830917
-0.00816365
-0.00816362
-0.00829781
-0.00829778
-0.00816359
-0.00829779
-0.00829774
-0.00815226
-0.00830913
-0.00816361
-0.00829774
-0.00829771
-0.00830907
-0.00833115
-0.00848823
-0.00834253
-0.00834251
-0.00847682
-0.00847682
-0.00833114
-0.00848819
-0.00834252
-0.00834252
-0.00847688
-0.00847691
-0.00834249
-0.00847681
-0.00847684
-0.00833111
-0.0084883
-0.00834245
-0.00847689
-0.00847685
-0.00848822
-0.00851023
-0.00866764
-0.00852164
-0.00852159
-0.00865622
-0.00865621
-0.00851019
-0.00866761
-0.00852168
-0.00852168
-0.00865623
-0.00865622
-0.00852164
-0.0086562
-0.00865616
-0.00851028
-0.00866763
-0.00852164
-0.00865623
-0.00865618
-0.00866753
-0.00868968
-0.00884722
-0.00870109
-0.00870108
-0.00883582
-0.00883586
-0.00868966
-0.00884725
-0.0087011
-0.00870106
-0.0088358
-0.00883576
-0.00870104
-0.00883583
-0.00883579
-0.00868965
-0.0088472
-0.00870104
-0.00883578
-0.00883579
-0.00884718
-0.00886926
-0.00902689
-0.00888071
-0.00888074
-0.00901549
-0.00901553
-0.00886929
-0.00902693
-0.00888068
-0.00888064
-0.00901548
-0.00901546
-0.00888071
-0.00901555
-0.00901553
-0.00886923
-0.00902688
-0.00888071
-0.00901549
-0.00901551
-0.00902691
-0.00904895
-0.00920669
-0.00906041
-0.00906043
-0.00919526
-0.00919531
-0.00904901
-0.00920669
-0.00906041
-0.00906038
-0.00919526
-0.00919525
-0.00906045
-0.00919528
-0.00919525
-0.00904894
-0.00920671
-0.00906044
-0.00919527
-0.00919527
-0.00920664
-0.00922875
-0.00938655
-0.00924019
-0.0092402
-0.00937512
-0.00937509
-0.00922875
-0.00938649
-0.0092402
-0.00924019
-0.00937513
-0.00937515
-0.00924016
-0.00937509
-0.00937511
-0.00922875
-0.00938659
-0.00924019
-0.00937517
-0.00937515
-0.00938654
-0.00940861
-0.00942005
-0.00941999
-0.00940855
-0.00942007
-0.00942011
-0.0094201
-0.00955509
-0.00940868
-0.00942015
-0.00955514
-0.00956658
-0.00662446
-0.00655865
-0.00655879
-0.00662448
-0.00655869
-0.00662448
-0.006625
-0.00655856
-0.00655829
-0.00662474
-0.00656934
-0.00656943
-0.00656934
-0.00670121
-0.00670113
-0.0067011
-0.00670106
-0.00662462
-0.00655868
-0.00656933
-0.00661339
-0.00662454
-0.0066133
-0.0065585
-0.00655861
-0.00662467
-0.00662396
-0.00656943
-0.00655899
-0.00661337
-0.00661335
-0.00662418
-0.00655921
-0.00655848
-0.00655867
-0.00662456
-0.00662468
-0.00662453
-0.00680068
-0.00673465
-0.00673468
-0.00680066
-0.00673466
-0.00680071
-0.00680103
-0.00673439
-0.00673409
-0.00680079
-0.00674504
-0.006745
-0.00674497
-0.0068775
-0.00687748
-0.00687741
-0.00687743
-0.00680071
-0.00673458
-0.00674518
-0.00678941
-0.00673438
-0.00680061
-0.00678924
-0.00673437
-0.00680071
-0.00679998
-0.00674514
-0.00673484
-0.00678932
-0.00673503
-0.00678921
-0.00680022
-0.00673435
-0.00673451
-0.00680061
-0.00680077
-0.0068006
-0.00697703
-0.00691101
-0.006911
-0.00697706
-0.00691097
-0.00697697
-0.00697748
-0.00691077
-0.00691047
-0.00697725
-0.00692145
-0.00692143
-0.0069214
-0.00705385
-0.0070538
-0.0070538
-0.00705379
-0.0069771
-0.00691092
-0.00692162
-0.00696579
-0.00691073
-0.00697703
-0.00696565
-0.00691074
-0.00697715
-0.00697636
-0.00692157
-0.00691118
-0.00696577
-0.00691135
-0.00696565
-0.00697663
-0.00691073
-0.00691087
-0.00697702
-0.0069772
-0.006977
-0.00715323
-0.00708731
-0.00708728
-0.00715324
-0.00708725
-0.00715328
-0.0071537
-0.00708708
-0.00708679
-0.00715342
-0.00709777
-0.00709775
-0.00709777
-0.0072301
-0.0072301
-0.00723008
-0.00723011
-0.00715334
-0.00708719
-0.00709793
-0.00714205
-0.00708701
-0.00715321
-0.00714196
-0.00708706
-0.00715339
-0.00715262
-0.00709788
-0.00708747
-0.00714202
-0.00708766
-0.0071419
-0.00715286
-0.00708701
-0.00708715
-0.0071533
-0.00715342
-0.00715323
-0.00732967
-0.00726351
-0.00726352
-0.00732966
-0.00726355
-0.00732969
-0.00733015
-0.0072633
-0.00726305
-0.00732986
-0.00727414
-0.00727416
-0.00727419
-0.00740697
-0.00740692
-0.00740695
-0.00740693
-0.00732989
-0.00726352
-0.00727433
-0.0073186
-0.00726335
-0.00732979
-0.00731849
-0.00726336
-0.00732987
-0.00732917
-0.00727428
-0.0072638
-0.00731852
-0.00726402
-0.00731847
-0.00732938
-0.00726335
-0.0072635
-0.00732991
-0.00732996
-0.00732977
-0.00750684
-0.00744043
-0.00744043
-0.00750684
-0.00744043
-0.00750686
-0.00750731
-0.00744023
-0.00743995
-0.00750705
-0.00745114
-0.00745115
-0.00745115
-0.00758435
-0.00758434
-0.00758431
-0.00758432
-0.00750701
-0.00744044
-0.00745126
-0.00749568
-0.00744027
-0.00750685
-0.00749556
-0.00744025
-0.007507
-0.0075063
-0.00745126
-0.00744072
-0.00749569
-0.00744091
-0.00749555
-0.00750653
-0.00744025
-0.00744039
-0.00750699
-0.00750705
-0.00750686
-0.00768445
-0.00761789
-0.00761789
-0.00768444
-0.00761786
-0.00768441
-0.00768491
-0.00761767
-0.00761739
-0.00768464
-0.00762867
-0.00762864
-0.00762864
-0.00776214
-0.00776214
-0.00776215
-0.00776213
-0.00768461
-0.00761783
-0.00762878
-0.0076733
-0.00761766
-0.00768449
-0.00767317
-0.00761769
-0.00768461
-0.00768394
-0.00762879
-0.00761817
-0.00767331
-0.00761839
-0.00767319
-0.00768415
-0.00761764
-0.0076178
-0.00768461
-0.00768464
-0.00768447
-0.00786245
-0.00779573
-0.00779573
-0.00786245
-0.00779572
-0.00786247
-0.00786297
-0.00779555
-0.00779529
-0.00786268
-0.00780657
-0.00780662
-0.00780658
-0.00794036
-0.00794034
-0.00794036
-0.00794037
-0.00786265
-0.00779571
-0.00780666
-0.00785126
-0.00779556
-0.00786246
-0.00785118
-0.0077956
-0.00786268
-0.00786203
-0.00780677
-0.00779608
-0.00785133
-0.00779631
-0.00785131
-0.00786222
-0.00779558
-0.00779575
-0.00786271
-0.00786273
-0.00786258
-0.00804084
-0.00797401
-0.00797401
-0.00804084
-0.00797398
-0.0080408
-0.00804135
-0.00797383
-0.00797358
-0.00804106
-0.00798486
-0.00798489
-0.0079849
-0.00811891
-0.00811886
-0.00811885
-0.00811885
-0.008041
-0.00797394
-0.0079849
-0.00802962
-0.00797379
-0.00804086
-0.0080295
-0.00797389
-0.00804104
-0.00804034
-0.00798503
-0.00797435
-0.0080297
-0.00797456
-0.00802964
-0.00804056
-0.00797383
-0.00797403
-0.00804107
-0.00804106
-0.00804092
-0.00821953
-0.00815257
-0.00815258
-0.00821951
-0.00815256
-0.00821955
-0.00821999
-0.00815235
-0.00815209
-0.0082197
-0.00816347
-0.00816347
-0.00816344
-0.00829769
-0.00829766
-0.00829767
-0.00829766
-0.00821966
-0.00815251
-0.00816356
-0.00820835
-0.00815234
-0.00821951
-0.00820826
-0.00815238
-0.00821967
-0.00821891
-0.00816354
-0.0081528
-0.00820827
-0.00815299
-0.0082082
-0.00821915
-0.0081523
-0.00815245
-0.00821964
-0.00821966
-0.00821946
-0.00839841
-0.00833139
-0.0083314
-0.00839841
-0.00833139
-0.0083984
-0.00839895
-0.0083312
-0.00833094
-0.00839865
-0.00834234
-0.00834236
-0.00834236
-0.00847673
-0.00847669
-0.00847677
-0.00847672
-0.00839861
-0.00833135
-0.00834246
-0.00838728
-0.00833117
-0.00839849
-0.0083872
-0.00833123
-0.00839865
-0.00839789
-0.00834239
-0.00833165
-0.00838724
-0.00833182
-0.00838714
-0.00839814
-0.00833114
-0.00833128
-0.00839862
-0.00839865
-0.00839845
-0.00857763
-0.00851048
-0.00851047
-0.00857763
-0.00851044
-0.00857764
-0.00857816
-0.00851031
-0.00851006
-0.00857786
-0.00852146
-0.00852152
-0.00852148
-0.00865612
-0.00865608
-0.00865611
-0.00865606
-0.00857778
-0.00851043
-0.00852159
-0.00856643
-0.00851026
-0.00857762
-0.00856637
-0.00851037
-0.00857785
-0.00857717
-0.00852161
-0.00851082
-0.0085665
-0.00851102
-0.00856643
-0.00857739
-0.00851028
-0.00851045
-0.00857785
-0.00857784
-0.00857769
-0.00875719
-0.00868993
-0.00868993
-0.00875719
-0.00868991
-0.00875717
-0.00875767
-0.00868972
-0.00868945
-0.00875739
-0.00870094
-0.00870094
-0.00870089
-0.00883572
-0.00883571
-0.0088357
-0.00883569
-0.00875736
-0.00868986
-0.00870099
-0.00874601
-0.00868967
-0.00875724
-0.00874593
-0.00868975
-0.00875735
-0.00875664
-0.00870099
-0.00869021
-0.00874593
-0.00869039
-0.00874588
-0.00875687
-0.00868965
-0.00868984
-0.00875736
-0.00875735
-0.0087572
-0.00893682
-0.00886954
-0.00886955
-0.0089368
-0.00886953
-0.00893685
-0.00893726
-0.00886931
-0.00886903
-0.00893699
-0.0088806
-0.00888054
-0.00888056
-0.00901541
-0.00901545
-0.00901536
-0.00901543
-0.00893701
-0.0088695
-0.00888067
-0.00892564
-0.00886932
-0.00893684
-0.00892557
-0.00886932
-0.00893694
-0.00893627
-0.00888064
-0.00886977
-0.00892557
-0.00886999
-0.00892552
-0.00893647
-0.0088693
-0.00886946
-0.00893708
-0.00893704
-0.00893686
-0.00911654
-0.00904922
-0.00904923
-0.00911653
-0.00904924
-0.00911655
-0.00911703
-0.00904901
-0.00904873
-0.00911675
-0.00906036
-0.00906025
-0.00906029
-0.00919522
-0.00919523
-0.0091952
-0.00919519
-0.00911678
-0.00904923
-0.00906047
-0.00910543
-0.00904907
-0.00911665
-0.00910536
-0.00904904
-0.00911674
-0.00911605
-0.00906033
-0.0090495
-0.00910532
-0.00904972
-0.00910525
-0.00911626
-0.00904905
-0.00904919
-0.00911678
-0.00911679
-0.00911661
-0.00929635
-0.00922901
-0.009229
-0.00929635
-0.009229
-0.00929637
-0.00929686
-0.00922881
-0.00922855
-0.00929657
-0.00924014
-0.00924011
-0.0092401
-0.0093751
-0.00937508
-0.00937511
-0.00937512
-0.00929653
-0.00922897
-0.00924016
-0.00928514
-0.00922879
-0.00929635
-0.00928509
-0.00922886
-0.00929656
-0.00929587
-0.00924014
-0.00922931
-0.00928514
-0.0092295
-0.00928509
-0.00929608
-0.00922877
-0.00922895
-0.00929655
-0.00929655
-0.0092964
-0.0094762
-0.00940887
-0.00940885
-0.00947622
-0.00940882
-0.00947619
-0.00947677
-0.0094087
-0.00940844
-0.00947648
-0.00941999
-0.00942011
-0.00942005
-0.00955502
-0.00947647
-0.00940882
-0.00942004
-0.00946505
-0.00940867
-0.00947631
-0.00946505
-0.00940876
-0.00947643
-0.00947584
-0.00942016
-0.00940921
-0.00946515
-0.00940942
-0.00946506
-0.00947607
-0.00940868
-0.00940886
-0.00947657
-0.00947652
-0.00947636
-0.00662447
-0.00655866
-0.00662445
-0.00655879
-0.00662395
-0.00655899
-0.00656963
-0.00661333
-0.00661331
-0.00655942
-0.0066242
-0.00662396
-0.006559
-0.00656959
-0.00661335
-0.00662415
-0.00661333
-0.00655942
-0.00664657
-0.00671251
-0.00671252
-0.0066466
-0.00664657
-0.00671254
-0.00664659
-0.00671253
-0.00664708
-0.00665736
-0.00671222
-0.00670127
-0.0066573
-0.00671197
-0.00664693
-0.00664708
-0.00665739
-0.00671226
-0.00670126
-0.00664692
-0.00665728
-0.00671199
-0.00655871
-0.00655849
-0.00662458
-0.00662444
-0.00662482
-0.00655853
-0.00662472
-0.00671259
-0.00664657
-0.00664624
-0.00671265
-0.00671266
-0.00664657
-0.00664642
-0.00671265
-0.00664643
-0.00662464
-0.00655872
-0.00656939
-0.00661334
-0.00661316
-0.00655853
-0.00662452
-0.006625
-0.00655858
-0.00662471
-0.00655829
-0.00662465
-0.00656945
-0.00655872
-0.00661335
-0.00661323
-0.0066245
-0.00655853
-0.00664613
-0.00671269
-0.00671291
-0.00664642
-0.00664639
-0.00665734
-0.00671249
-0.00670119
-0.00665719
-0.00671255
-0.00664663
-0.00664613
-0.00671264
-0.00664639
-0.0067129
-0.00664639
-0.00665731
-0.00670123
-0.00671244
-0.00665721
-0.00664659
-0.00671256
-0.00662498
-0.00655852
-0.00662473
-0.00655825
-0.00662462
-0.00656935
-0.00655866
-0.00661336
-0.00661332
-0.00662447
-0.0065585
-0.00662498
-0.0065585
-0.00662469
-0.00655825
-0.00664637
-0.00665731
-0.00671247
-0.00670116
-0.00664657
-0.00665718
-0.00671257
-0.00664611
-0.00671269
-0.00664641
-0.00671293
-0.00664637
-0.00665728
-0.00670116
-0.00671244
-0.0066572
-0.00664655
-0.00671257
-0.00664611
-0.00671266
-0.00664637
-0.00671293
-0.00655856
-0.00655871
-0.00662455
-0.00662472
-0.00662455
-0.00655874
-0.00662453
-0.00671261
-0.0066464
-0.0066462
-0.00671265
-0.0067125
-0.0066464
-0.00664657
-0.00671248
-0.00664656
-0.00662396
-0.00656944
-0.006559
-0.0066134
-0.00661335
-0.00662417
-0.0065592
-0.00662452
-0.00655875
-0.00662451
-0.00655875
-0.00662451
-0.00655873
-0.00662449
-0.00655874
-0.00664706
-0.0066573
-0.00670112
-0.00671213
-0.00665722
-0.00664691
-0.00671185
-0.00664706
-0.00665731
-0.00670112
-0.00671212
-0.00665721
-0.00664689
-0.00671184
-0.00664659
-0.00671245
-0.00664661
-0.00671242
-0.00664659
-0.00671244
-0.00664658
-0.00671242
-0.00655852
-0.00662465
-0.00655869
-0.0066245
-0.00664619
-0.00671265
-0.00671248
-0.00664636
-0.00664654
-0.00671261
-0.00664638
-0.00671246
-0.00664653
-0.00673463
-0.00680069
-0.00673443
-0.00680077
-0.00673462
-0.00673442
-0.00680068
-0.0068007
-0.00680081
-0.00688889
-0.0068228
-0.006889
-0.00682259
-0.00682242
-0.00688892
-0.00688905
-0.00682279
-0.00682258
-0.00680069
-0.00673467
-0.0067347
-0.00680067
-0.00680013
-0.00673495
-0.00674527
-0.00678939
-0.00673518
-0.00680034
-0.00678935
-0.00680014
-0.00673497
-0.00674527
-0.00678947
-0.0067352
-0.00680037
-0.00678936
-0.00682283
-0.00688886
-0.00682282
-0.00688884
-0.00682283
-0.00688884
-0.00682283
-0.00688883
-0.00682331
-0.00683356
-0.00688855
-0.00687759
-0.00682312
-0.0068335
-0.00688828
-0.00682332
-0.00683365
-0.00688855
-0.00687761
-0.00682313
-0.00683353
-0.00688827
-0.00673466
-0.00673441
-0.00680072
-0.00680074
-0.00680083
-0.00673444
-0.0068008
-0.00688888
-0.00682281
-0.00682247
-0.00688892
-0.00688902
-0.00682281
-0.00682261
-0.00688899
-0.00682262
-0.00680068
-0.00673458
-0.0067452
-0.00678936
-0.00673439
-0.00680058
-0.00678927
-0.00680102
-0.00673434
-0.0067341
-0.00680073
-0.00680068
-0.00674518
-0.00673452
-0.00678932
-0.00673439
-0.00678925
-0.00680053
-0.00682223
-0.00688902
-0.00682255
-0.00688925
-0.0068225
-0.00683353
-0.00688882
-0.00687752
-0.00682275
-0.00683343
-0.00688889
-0.00682223
-0.00688897
-0.00682249
-0.00688924
-0.0068225
-0.0068335
-0.00687751
-0.00688878
-0.00683343
-0.00682269
-0.00688889
-0.00680107
-0.00673442
-0.00673413
-0.00680082
-0.00680071
-0.00674517
-0.00673454
-0.00678931
-0.0067344
-0.00678924
-0.00680056
-0.00680106
-0.00673437
-0.00673414
-0.00680078
-0.00682253
-0.00683358
-0.00688881
-0.00687754
-0.00682278
-0.00683341
-0.00688892
-0.00682228
-0.00688902
-0.00682259
-0.00688927
-0.00682254
-0.00683348
-0.00687754
-0.0068888
-0.00683343
-0.00682272
-0.00688891
-0.00682228
-0.00688901
-0.00682254
-0.00688928
-0.00673435
-0.00673453
-0.0068006
-0.00680075
-0.00680059
-0.00673454
-0.00680057
-0.00688894
-0.00682252
-0.00682234
-0.00688898
-0.00688881
-0.00682251
-0.00682268
-0.00688878
-0.00682268
-0.00679997
-0.00674509
-0.00673485
-0.00678933
-0.00673505
-0.00678919
-0.00680022
-0.00680053
-0.00673457
-0.00673458
-0.00680054
-0.00680053
-0.00673457
-0.00673459
-0.00680055
-0.00682317
-0.00683348
-0.00687747
-0.00688844
-0.00683335
-0.00682301
-0.00688816
-0.00682317
-0.00683349
-0.00687748
-0.00688844
-0.00683338
-0.00682302
-0.00688815
-0.0068227
-0.00688875
-0.00682271
-0.00688872
-0.0068227
-0.00688876
-0.00682273
-0.00688872
-0.00673439
-0.00680074
-0.00673453
-0.00680058
-0.00682234
-0.006889
-0.00688881
-0.00682253
-0.00682269
-0.00688897
-0.00682255
-0.00688879
-0.00682269
-0.00691099
-0.00697709
-0.00691081
-0.00697723
-0.00691097
-0.0069108
-0.0069771
-0.00697711
-0.00697727
-0.00706522
-0.00699919
-0.00706537
-0.00699904
-0.00699881
-0.00706525
-0.00706541
-0.00699919
-0.00699903
-0.00697701
-0.00691099
-0.006911
-0.00697697
-0.00697647
-0.00691129
-0.0069216
-0.00696582
-0.00691148
-0.00697673
-0.0069657
-0.00697645
-0.00691127
-0.00692161
-0.00696575
-0.00691147
-0.00697663
-0.00696566
-0.00699917
-0.00706519
-0.00699922
-0.00706515
-0.00699916
-0.00706515
-0.00699915
-0.00706514
-0.00699963
-0.00700998
-0.00706488
-0.00705391
-0.0069995
-0.00700988
-0.00706458
-0.00699961
-0.00700991
-0.00706485
-0.00705384
-0.00699945
-0.00700981
-0.00706457
-0.00691096
-0.00691076
-0.00697705
-0.00697693
-0.00697732
-0.00691079
-0.00697722
-0.00706519
-0.00699911
-0.00699878
-0.00706524
-0.00706529
-0.0069991
-0.00699896
-0.00706528
-0.00699898
-0.00697711
-0.00691096
-0.00692159
-0.00696583
-0.00691075
-0.00697703
-0.0069657
-0.00697747
-0.00691072
-0.00691048
-0.00697718
-0.00697711
-0.0069216
-0.00691089
-0.00696578
-0.00691075
-0.00696571
-0.00697697
-0.00699868
-0.00706538
-0.006999
-0.00706561
-0.00699891
-0.00700997
-0.00706517
-0.00705388
-0.00699918
-0.00700983
-0.00706524
-0.00699867
-0.00706533
-0.00699893
-0.0070656
-0.0069989
-0.00700991
-0.00705387
-0.00706512
-0.00700984
-0.00699911
-0.00706524
-0.00697746
-0.00691077
-0.00691051
-0.00697722
-0.0069771
-0.00692157
-0.00691092
-0.00696574
-0.00691075
-0.00696566
-0.00697696
-0.00697747
-0.00691076
-0.00691051
-0.0069772
-0.00699889
-0.00700989
-0.0070651
-0.00705386
-0.0069991
-0.0070098
-0.00706523
-0.00699866
-0.00706532
-0.00699895
-0.00706557
-0.00699889
-0.00700988
-0.00705388
-0.0070651
-0.00700982
-0.00699911
-0.00706522
-0.00699866
-0.00706532
-0.00699894
-0.00706558
-0.00691071
-0.00691087
-0.00697704
-0.00697718
-0.006977
-0.00691088
-0.00697698
-0.00706529
-0.00699895
-0.00699874
-0.00706533
-0.00706514
-0.00699893
-0.00699907
-0.00706511
-0.00699908
-0.00697634
-0.00692154
-0.0069112
-0.00696575
-0.00691137
-0.00696563
-0.00697661
-0.00697692
-0.00691091
-0.00691091
-0.00697695
-0.00697692
-0.00691092
-0.00691092
-0.00697695
-0.00699953
-0.00700989
-0.00705386
-0.00706477
-0.00700975
-0.00699939
-0.0070645
-0.00699952
-0.00700989
-0.00705385
-0.00706476
-0.00700977
-0.00699939
-0.00706449
-0.00699908
-0.00706508
-0.00699911
-0.00706505
-0.00699908
-0.00706508
-0.00699911
-0.00706506
-0.00691078
-0.00697717
-0.00691089
-0.00697698
-0.00699872
-0.00706531
-0.00706513
-0.00699893
-0.00699907
-0.00706528
-0.00699896
-0.00706511
-0.00699908
-0.00708728
-0.00715326
-0.00708713
-0.0071534
-0.00708726
-0.0070871
-0.0071533
-0.00715328
-0.00715343
-0.00724138
-0.00717533
-0.00724152
-0.00717517
-0.00717498
-0.00724141
-0.00724156
-0.00717532
-0.00717515
-0.00715324
-0.00708728
-0.00708729
-0.00715325
-0.00715267
-0.00708757
-0.00709787
-0.00714204
-0.00708775
-0.00715291
-0.00714191
-0.00715267
-0.00708754
-0.00709787
-0.00714204
-0.00708775
-0.00715292
-0.00714192
-0.00717536
-0.00724136
-0.00717537
-0.00724136
-0.00717536
-0.00724141
-0.00717539
-0.00724137
-0.00717581
-0.00718616
-0.00724105
-0.00723014
-0.00717565
-0.00718607
-0.00724079
-0.00717581
-0.00718618
-0.00724111
-0.00723013
-0.00717566
-0.00718603
-0.00724081
-0.00708724
-0.00708703
-0.00715332
-0.0071533
-0.00715343
-0.00708707
-0.0071534
-0.00724144
-0.00717536
-0.00717503
-0.00724148
-0.0072416
-0.00717535
-0.00717518
-0.00724158
-0.0071752
-0.00715334
-0.00708725
-0.00709788
-0.00714205
-0.00708704
-0.0071532
-0.00714194
-0.0071537
-0.00708705
-0.0070868
-0.00715343
-0.00715334
-0.00709787
-0.0070872
-0.00714202
-0.00708703
-0.00714194
-0.00715321
-0.00717486
-0.00724155
-0.00717514
-0.00724183
-0.00717511
-0.00718614
-0.00724134
-0.00723013
-0.00717531
-0.00718604
-0.00724148
-0.00717487
-0.00724159
-0.00717516
-0.00724183
-0.00717511
-0.00718613
-0.00723013
-0.00724139
-0.00718606
-0.00717533
-0.0072415
-0.00715369
-0.00708704
-0.00708677
-0.00715343
-0.00715334
-0.0070979
-0.00708719
-0.00714202
-0.00708702
-0.00714194
-0.00715319
-0.00715369
-0.00708704
-0.00708678
-0.00715342
-0.00717512
-0.00718617
-0.0072414
-0.00723021
-0.00717534
-0.00718605
-0.00724154
-0.00717488
-0.00724161
-0.00717517
-0.00724187
-0.00717512
-0.00718616
-0.00723021
-0.00724141
-0.00718607
-0.00717533
-0.00724154
-0.00717488
-0.00724161
-0.00717515
-0.00724188
-0.00708703
-0.00708717
-0.0071533
-0.00715343
-0.00715323
-0.00708718
-0.00715321
-0.00724156
-0.00717518
-0.00717499
-0.0072416
-0.00724142
-0.00717515
-0.00717529
-0.00724139
-0.0071753
-0.00715263
-0.00709787
-0.00708748
-0.00714203
-0.00708768
-0.0071419
-0.00715286
-0.00715317
-0.00708722
-0.00708721
-0.00715318
-0.00715317
-0.00708721
-0.00708722
-0.00715318
-0.00717578
-0.00718613
-0.00723012
-0.00724105
-0.00718602
-0.00717562
-0.00724082
-0.00717579
-0.00718618
-0.00723017
-0.00724108
-0.00718606
-0.00717563
-0.00724083
-0.00717532
-0.00724136
-0.00717533
-0.00724135
-0.00717532
-0.00724138
-0.00717533
-0.00724135
-0.00708706
-0.00715338
-0.00708718
-0.00715321
-0.007175
-0.00724161
-0.00724143
-0.00717515
-0.00717529
-0.00724157
-0.00717517
-0.00724141
-0.0071753
-0.00726347
-0.00732968
-0.00726332
-0.00732983
-0.00726345
-0.00726329
-0.00732979
-0.0073297
-0.00732986
-0.0074182
-0.00735184
-0.00741835
-0.00735169
-0.00735157
-0.00741823
-0.00741839
-0.00735183
-0.00735167
-0.00732968
-0.00726357
-0.00726355
-0.00732969
-0.00732912
-0.00726378
-0.00727422
-0.0073185
-0.00726399
-0.00732934
-0.00731843
-0.00732913
-0.00726384
-0.00727423
-0.00731854
-0.00726401
-0.00732935
-0.0073184
-0.00735187
-0.00741817
-0.00735188
-0.00741817
-0.00735188
-0.00741821
-0.00735193
-0.00741817
-0.00735234
-0.00736279
-0.00741788
-0.007407
-0.00735217
-0.00736272
-0.00741764
-0.00735235
-0.00736285
-0.00741792
-0.00740702
-0.00735223
-0.00736272
-0.00741764
-0.00726355
-0.00726335
-0.00732986
-0.00732965
-0.00733006
-0.0072634
-0.00732996
-0.00741825
-0.00735189
-0.00735165
-0.00741831
-0.0074184
-0.00735188
-0.00735178
-0.00741839
-0.00735179
-0.00732983
-0.00726347
-0.00727423
-0.00731849
-0.00726332
-0.00732965
-0.00731846
-0.00733016
-0.00726334
-0.00726307
-0.00732989
-0.00732984
-0.00727426
-0.0072635
-0.0073185
-0.00726333
-0.00731846
-0.00732969
-0.0073514
-0.00741838
-0.00735167
-0.00741864
-0.00735168
-0.00736278
-0.00741819
-0.00740699
-0.00735186
-0.00736276
-0.00741832
-0.00735141
-0.00741839
-0.0073517
-0.00741864
-0.00735168
-0.0073628
-0.00740703
-0.00741821
-0.00736275
-0.00735188
-0.00741833
-0.00733023
-0.00726337
-0.00726311
-0.00732997
-0.0073299
-0.0072743
-0.00726354
-0.0073186
-0.00726337
-0.00731848
-0.00732975
-0.00733023
-0.00726337
-0.00726312
-0.00732996
-0.00735174
-0.00736284
-0.00741823
-0.00740699
-0.00735193
-0.00736272
-0.00741839
-0.00735149
-0.00741844
-0.00735177
-0.00741872
-0.00735175
-0.00736287
-0.00740701
-0.00741826
-0.00736276
-0.00735195
-0.0074184
-0.0073515
-0.00741845
-0.00735177
-0.00741872
-0.00726333
-0.00726348
-0.00732982
-0.00732991
-0.00732974
-0.0072635
-0.00732972
-0.00741836
-0.00735173
-0.00735159
-0.00741841
-0.00741825
-0.00735171
-0.00735187
-0.00741822
-0.00735188
-0.00732918
-0.00727432
-0.00726384
-0.00731859
-0.00726405
-0.00731849
-0.0073294
-0.00732969
-0.00726353
-0.00726355
-0.00732969
-0.00732969
-0.00726356
-0.00726356
-0.00732971
-0.00735238
-0.00736279
-0.00740695
-0.00741789
-0.00736269
-0.0073522
-0.00741764
-0.0073524
-0.00736284
-0.00740696
-0.0074179
-0.00736271
-0.00735224
-0.00741764
-0.0073519
-0.00741819
-0.00735191
-0.00741817
-0.00735191
-0.0074182
-0.00735194
-0.00741817
-0.00726339
-0.00732992
-0.00726352
-0.00732975
-0.00735166
-0.00741844
-0.00741825
-0.00735176
-0.0073519
-0.00741841
-0.00735179
-0.00741823
-0.0073519
-0.0074404
-0.00750687
-0.00744025
-0.00750702
-0.00744038
-0.00744023
-0.00750703
-0.00750689
-0.00750705
-0.00759562
-0.0075291
-0.00759576
-0.00752895
-0.00752886
-0.00759565
-0.0075958
-0.00752909
-0.00752893
-0.00750684
-0.00744045
-0.00744045
-0.00750683
-0.00750631
-0.00744072
-0.00745129
-0.00749571
-0.00744092
-0.00750654
-0.00749561
-0.00750631
-0.00744073
-0.0074513
-0.00749569
-0.00744092
-0.00750653
-0.00749562
-0.00752911
-0.00759559
-0.00752913