/*--------------------------------*- C++ -*----------------------------------*\
| =========                 |                                                 |
| \\      /  F ield         | OpenFOAM: The Open Source CFD Toolbox           |
|  \\    /   O peration     | Version:  2206                                  |
|   \\  /    A nd           | Website:  www.openfoam.com                      |
|    \\/     M anipulation  |                                                 |
\*---------------------------------------------------------------------------*/
FoamFile
{
    version     2.0;
    format      ascii;
    arch        "LSB;label=32;scalar=64";
    class       surfaceScalarField;
    location    "149";
    object      phi;
}
// * * * * * * * * * * * * * * * * * * * * * * * * * * * * * * * * * * * * * //

dimensions      [0 3 -1 0 0 0 0];

oriented        oriented;

internalField   nonuniform List<scalar> 
197159
(
-2.80303e-11
-3.04879e-11
2.74725e-08
-2.73218e-08
-4.7548e-11
-4.46756e-11
-2.11232e-11
-2.0042e-11
-2.09166e-11
2.77063e-11
-4.93716e-12
-3.25002e-11
3.97155e-11
1.38319e-11
1.17172e-07
9.37662e-12
-1.20654e-11
-1.96297e-11
-2.51545e-11
-3.81765e-11
4.22065e-11
7.45914e-11
-6.04651e-11
7.01773e-11
-6.36672e-11
1.14847e-07
2.26331e-11
3.468e-11
-1.16296e-11
6.15933e-12
-3.37001e-11
4.37015e-11
5.39328e-11
-6.02141e-11
6.86175e-11
-4.47538e-11
1.15894e-07
-2.4036e-11
-2.73478e-08
-5.5078e-11
-2.98799e-11
2.74794e-08
-5.19288e-11
-9.47739e-11
-3.5059e-11
-2.89489e-11
1.93672e-11
-3.14616e-11
5.20723e-11
-9.27921e-12
1.16094e-07
-2.58951e-11
5.27207e-11
5.22336e-11
2.73216e-08
2.06724e-11
2.52872e-11
-2.73222e-08
-4.7773e-11
-4.56608e-11
-2.72281e-11
-2.9987e-11
2.74728e-08
-6.45673e-11
1.25472e-07
7.21625e-11
-1.87317e-11
1.25781e-07
-2.62505e-11
4.50214e-12
-9.65164e-14
6.52573e-09
-6.53092e-09
7.91249e-13
5.00086e-12
3.39709e-12
6.39793e-09
2.12365e-13
3.60543e-12
2.09338e-08
1.68499e-11
-2.0949e-08
-7.24995e-13
1.14241e-11
2.04872e-08
2.22085e-11
-2.05099e-08
-5.95605e-12
6.34047e-12
-1.30943e-08
3.37191e-13
1.30861e-08
1.38834e-12
1.55039e-11
-2.06262e-08
6.12547e-12
2.06145e-08
1.33995e-11
5.03255e-12
1.27962e-08
6.88048e-13
5.00098e-11
8.4524e-13
-5.43746e-12
-1.59726e-11
1.91224e-08
3.17784e-11
-2.02615e-08
1.63903e-11
2.02381e-08
1.21289e-12
-1.1479e-11
1.13399e-10
-1.35914e-10
1.47743e-10
-1.02667e-10
1.20436e-07
4.61123e-13
-2.36078e-08
-1.09374e-11
9.66822e-11
2.35716e-08
1.37863e-11
-2.47941e-12
3.40454e-12
1.28013e-08
6.96349e-13
5.01029e-11
-1.60348e-11
-3.8044e-12
1.912e-08
-1.59445e-11
9.54678e-11
-1.35371e-10
1.47278e-10
-8.45536e-11
1.21713e-07
-1.03561e-11
3.22006e-11
-2.02523e-08
1.50229e-11
2.02292e-08
-2.36036e-08
9.68095e-11
-9.67891e-12
2.35671e-08
5.5613e-12
6.40179e-09
3.94014e-13
2.24544e-11
-2.05655e-08
-4.62022e-12
2.05428e-08
-3.52073e-12
3.94595e-12
1.57523e-11
-2.0906e-08
-1.05342e-12
2.08909e-08
-1.91057e-13
-6.53165e-09
6.52669e-09
1.63766e-12
-5.76825e-12
1.4571e-11
-2.06339e-08
6.42929e-12
2.06226e-08
-1.30931e-08
2.26688e-13
1.30853e-08
1.61219e-12
-4.67308e-12
6.53197e-09
-1.28293e-12
-2.84645e-13
4.88012e-12
6.52749e-09
-6.53281e-09
-7.18996e-13
1.16663e-12
-8.62133e-12
6.4077e-09
-2.87975e-12
1.73253e-12
5.27335e-12
6.40025e-09
-6.40884e-09
3.00532e-12
3.09649e-13
-1.95262e-11
3.23066e-12
2.09525e-08
-7.05253e-12
-2.73771e-11
5.09798e-12
2.05127e-08
-1.18193e-11
2.7472e-08
-2.73215e-08
-4.7783e-11
-4.52329e-11
-2.76164e-11
-2.98827e-11
2.09394e-08
-2.33804e-13
-2.09554e-08
1.73747e-11
3.75338e-12
2.04925e-08
-5.48421e-12
-2.05155e-08
2.26792e-11
1.10849e-11
5.03355e-12
-6.5342e-09
-5.49083e-13
6.52875e-09
9.60783e-13
-4.13229e-12
6.53359e-09
-1.656e-12
-3.12912e-13
5.99631e-12
-6.41093e-09
2.68749e-12
6.40224e-09
5.70616e-15
-7.97077e-12
6.40995e-09
-3.09582e-12
1.36732e-12
2.73217e-08
5.27185e-11
5.18847e-11
2.08014e-11
2.48898e-11
1.75927e-11
-2.09604e-08
-5.40866e-13
4.01491e-12
2.09444e-08
2.32095e-11
-2.0521e-08
-5.16159e-12
1.0808e-11
2.04981e-08
3.45354e-12
-1.90917e-11
2.09578e-08
-6.95819e-12
5.38301e-12
-2.68923e-11
2.05181e-08
-1.20874e-11
-4.8033e-12
-7.40874e-13
-9.17246e-13
-6.52446e-09
1.13716e-11
-2.10405e-11
1.91109e-08
1.5226e-11
-2.54468e-11
-2.3e-08
-1.64359e-11
2.29775e-08
3.4819e-11
2.09252e-11
3.06305e-12
-1.95996e-11
-7.37795e-12
-1.24726e-08
9.56474e-12
-9.2746e-13
1.24625e-08
7.21485e-13
2.44093e-12
-2.56067e-13
-3.93981e-11
-2.54628e-11
-1.14481e-11
1.9093e-08
2.24526e-11
1.39707e-11
-2.51362e-11
1.8137e-08
1.61688e-11
-2.42401e-11
-2.20147e-08
-2.34338e-11
2.19875e-08
3.98908e-11
3.29075e-11
4.81694e-12
-2.74972e-11
-1.15808e-11
-1.21524e-08
9.98682e-12
-3.57992e-12
1.21394e-08
6.21197e-13
3.42087e-12
3.14926e-13
-4.7044e-11
-3.48695e-11
-1.49461e-11
1.81199e-08
1.86514e-11
5.10047e-12
5.78248e-12
1.4652e-08
-5.33384e-09
4.79153e-12
5.32757e-09
5.50704e-13
-5.30789e-09
3.10788e-12
5.30086e-09
3.46495e-13
4.54699e-13
1.29536e-12
1.46335e-08
-6.71742e-12
-3.45747e-11
-6.29499e-13
-1.30531e-08
-2.01643e-08
8.8242e-12
1.04842e-11
2.01459e-08
-5.93247e-13
-1.3156e-10
3.52825e-11
-2.00442e-08
-3.04905e-11
5.44572e-09
2.22554e-12
-5.43745e-09
-1.66622e-12
-3.8565e-12
7.80882e-12
2.6517e-11
1.96244e-08
2.82282e-12
5.28863e-09
4.89418e-13
-1.29662e-11
4.12925e-11
1.81287e-08
-2.07048e-12
8.16373e-13
1.14387e-08
-3.78011e-13
9.42054e-09
-2.28593e-13
-4.74251e-12
6.27549e-12
2.69265e-11
1.96231e-08
1.74587e-12
5.28838e-09
5.3265e-13
-5.77898e-13
1.14379e-08
-3.64399e-13
-1.31582e-11
4.14391e-11
1.8124e-08
9.41969e-09
-1.88013e-13
-2.76547e-11
1.36755e-11
1.81406e-08
1.69644e-11
-2.32893e-11
-2.23634e-08
-2.18596e-11
4.21251e-11
3.12024e-11
2.23344e-08
-2.72969e-11
6.34994e-12
-1.32192e-11
-1.21473e-08
1.01709e-11
-2.69452e-12
1.21345e-08
6.78105e-13
-4.77682e-11
-3.58935e-11
4.10582e-12
4.62442e-13
-1.36238e-11
1.92198e-11
1.81233e-08
1.21138e-11
-1.84521e-11
1.91261e-08
1.45828e-11
-2.81829e-11
-2.26442e-08
-1.66242e-11
3.13495e-11
2.27448e-11
2.26225e-08
2.68536e-12
-2.11767e-11
5.54253e-12
-5.43085e-12
-1.24893e-08
8.42402e-12
-1.05014e-12
1.24797e-08
1.1066e-12
2.2342e-12
-4.76422e-15
-4.99143e-11
-9.32994e-12
-1.14998e-11
2.09187e-11
1.91085e-08
5.25325e-12
5.80792e-12
1.46616e-08
-5.31052e-09
3.40431e-12
5.30379e-09
6.34465e-13
-5.3367e-09
3.844e-12
5.33079e-09
1.02517e-12
1.43111e-12
1.01675e-12
1.46437e-08
-1.09149e-12
1.69695e-13
-1.90825e-12
-9.37035e-12
-7.25751e-13
-2.01589e-08
-7.69434e-14
9.84805e-12
2.01476e-08
1.75045e-12
-1.50033e-11
1.58212e-12
-3.98673e-12
5.44503e-09
2.70173e-12
-5.44774e-09
-6.51294e-14
6.52665e-09
4.79498e-12
-4.30913e-13
9.55956e-13
-4.36721e-12
-1.5586e-12
-2.3972e-13
6.3991e-09
5.13903e-12
3.25648e-12
1.99479e-13
-8.34452e-12
-2.94232e-12
1.5493e-12
5.07886e-12
5.51076e-12
1.46559e-08
-1.46356e-08
-1.47908e-11
-1.61244e-11
-5.3356e-09
5.08678e-12
7.89714e-13
5.32933e-09
3.85579e-13
-5.30966e-09
3.47707e-12
3.43091e-12
5.30264e-09
1.10158e-13
-5.32846e-09
-2.70898e-12
6.56308e-13
-5.30175e-09
-3.54818e-12
1.15067e-12
1.18517e-11
1.50659e-11
1.46375e-08
-1.91128e-08
-9.81503e-12
1.66882e-11
-1.1662e-11
1.90949e-08
2.26879e-11
2.06624e-11
2.30014e-08
-3.93488e-11
-2.47095e-11
-1.14066e-11
1.24746e-08
2.67302e-12
-1.75722e-13
-5.31058e-13
1.71507e-11
2.09369e-08
3.77512e-12
1.50166e-11
-2.55204e-11
-8.4367e-13
1.24644e-08
6.86185e-13
2.29789e-08
3.50721e-11
2.11959e-11
-1.8139e-08
-1.0189e-11
2.34216e-11
-1.49969e-11
1.81219e-08
1.89298e-11
2.52944e-11
2.20167e-08
-4.66373e-11
-3.52173e-11
-1.39096e-11
1.21544e-08
3.55383e-12
4.96196e-13
-5.7941e-12
2.24192e-11
2.04899e-08
1.12989e-11
1.62402e-11
-2.39971e-11
-3.50905e-12
1.21414e-08
5.37856e-13
2.19895e-08
4.0209e-11
3.28382e-11
-1.4654e-08
-4.9303e-12
-3.27135e-12
-5.14335e-12
5.33472e-09
6.72891e-13
-5.63811e-12
5.30877e-09
1.28082e-12
4.81374e-13
2.43572e-13
1.11565e-11
1.91145e-08
-2.04749e-11
-2.50509e-11
-1.24765e-08
1.01107e-11
1.24662e-08
7.0377e-13
3.39465e-12
-1.92404e-11
-7.01662e-12
-1.66735e-11
-2.30027e-08
2.29805e-08
3.49881e-11
2.12769e-11
-2.13086e-13
1.90971e-08
2.26364e-11
-3.88958e-11
-2.46004e-11
1.36901e-11
1.81411e-08
-2.53002e-11
-2.37437e-11
-1.21563e-08
1.04941e-11
1.21433e-08
4.93172e-13
5.21092e-12
-2.71086e-11
-1.19566e-11
-2.3226e-11
-2.20187e-08
2.19914e-08
4.05123e-11
3.27448e-11
4.30226e-13
1.81243e-08
1.91694e-11
-4.63526e-11
-3.5285e-11
-6.52813e-09
-4.20867e-12
-1.60639e-12
-2.57925e-13
5.27077e-12
-6.28121e-13
8.1995e-13
-6.40126e-09
-7.76821e-12
-3.29999e-12
1.39324e-12
5.83859e-12
2.93092e-12
-7.20061e-14
-1.4658e-08
-5.03092e-12
-3.55842e-12
1.20296e-11
1.50824e-11
1.46395e-08
-4.98133e-12
5.33644e-09
-2.69629e-12
5.67424e-13
-5.31133e-12
5.31053e-09
-3.58712e-12
1.01134e-12
-1.46391e-11
-1.61084e-11
9.55458e-13
5.33014e-09
3.1421e-13
3.45935e-12
5.30348e-09
3.03734e-14
1.10544e-11
-2.01148e-11
1.91186e-08
-1.90991e-08
1.45898e-11
-2.50145e-11
-2.30067e-08
-1.71041e-11
3.51566e-11
2.29847e-08
2.14735e-11
3.36802e-12
-1.9007e-11
-2.09421e-08
-6.86774e-12
-1.248e-08
1.01919e-11
-1.04143e-12
1.24697e-08
6.48424e-13
-1.2468e-08
2.61526e-12
-2.35219e-13
-2.29827e-08
-3.87183e-11
-2.4403e-11
-1.21731e-11
2.27242e-11
1.91012e-08
1.34182e-11
-2.53657e-11
1.81456e-08
-1.81264e-08
1.62444e-11
-2.34114e-11
-2.20232e-08
-2.32101e-11
4.09862e-11
2.19961e-08
3.25357e-11
5.65232e-12
-2.66697e-11
-2.04954e-08
-1.22586e-11
-1.21602e-08
1.08317e-11
-3.31438e-12
1.21472e-08
3.6814e-13
-1.21452e-08
3.71013e-12
3.49617e-13
-2.19938e-08
-4.59456e-11
-3.54965e-11
-1.5016e-11
1.96108e-11
1.81286e-08
-1.91168e-08
-1.01522e-11
1.71184e-11
2.27105e-11
-1.09817e-11
1.24783e-08
-2.98849e-13
2.02927e-11
2.30045e-08
-3.88471e-11
-2.45048e-11
-4.89727e-13
1.75673e-11
3.91875e-12
-2.50112e-11
5.96994e-13
3.50813e-11
2.141e-11
-1.81436e-08
-1.06133e-11
2.34452e-11
1.94012e-11
-1.34689e-11
1.21582e-08
3.02817e-13
2.53175e-11
2.20208e-08
-4.61959e-11
-3.53947e-11
-5.49219e-12
2.29382e-11
1.10261e-11
-2.3585e-11
3.51719e-13
4.0705e-11
3.26345e-11
5.09714e-12
5.22187e-12
1.466e-08
-5.33727e-09
5.02015e-12
5.33095e-09
2.61202e-13
-5.31139e-09
3.79061e-12
5.30433e-09
-3.58056e-14
5.84558e-13
1.01676e-12
1.46416e-08
-2.96539e-11
-3.49895e-11
2.22315e-08
5.25565e-11
5.27617e-11
-2.56023e-08
-2.29336e-11
2.55916e-08
-2.435e-08
-3.12152e-11
2.43383e-08
2.22184e-08
-4.72408e-11
-1.77478e-11
2.22255e-08
4.52325e-11
9.60777e-11
-2.54261e-08
-2.65298e-11
2.5406e-08
-2.4503e-08
-2.68143e-11
2.44963e-08
2.22123e-08
-2.22331e-08
2.32469e-11
3.13449e-11
2.22201e-08
2.91973e-11
2.56027e-08
-2.69126e-11
3.49629e-11
2.43512e-08
-4.23065e-11
-4.77133e-11
-4.49846e-11
2.74721e-08
-2.77847e-11
-2.99576e-11
2.55922e-08
2.11495e-11
2.43395e-08
3.83347e-11
-2.85427e-11
-3.49038e-11
2.22392e-08
-2.22242e-08
5.27444e-11
5.17094e-11
-2.74725e-08
2.1019e-11
2.48729e-11
-2.56064e-08
-2.39013e-11
2.17327e-11
2.55959e-08
-2.43555e-08
-3.13816e-11
3.83347e-11
2.43439e-08
-2.55945e-08
-2.64195e-11
-2.43423e-08
-4.23437e-11
2.22262e-08
4.96355e-13
1.3087e-07
5.44364e-11
1.3496e-07
-1.15907e-11
2.66519e-11
1.05927e-10
2.59796e-08
-3.47927e-11
-2.45281e-08
2.32521e-11
2.45087e-08
-2.0742e-11
-2.04188e-11
-2.27848e-08
1.71783e-11
2.27774e-08
6.82874e-12
-5.02163e-11
2.60274e-08
6.4236e-12
3.86705e-11
6.07905e-11
2.55781e-08
2.39788e-11
-2.41307e-08
3.68873e-11
2.4098e-08
-3.87678e-11
-1.66898e-11
-2.2289e-08
5.19977e-11
1.48341e-11
2.2265e-08
-1.47467e-11
-2.48541e-11
2.56281e-08
8.49715e-11
-1.87466e-11
2.58271e-08
1.04023e-11
-1.06186e-10
5.82037e-13
-2.2794e-08
7.6338e-11
2.27628e-08
-2.6843e-08
-1.88499e-11
-6.72075e-12
2.68294e-08
7.42939e-12
2.5757e-08
5.9649e-11
4.31164e-11
2.55457e-08
-3.14517e-11
-2.41338e-08
3.88633e-11
2.40982e-08
-1.81824e-11
-3.85009e-11
-2.22785e-08
5.17219e-11
1.61906e-11
2.22525e-08
-1.89135e-11
2.81245e-11
2.55634e-08
-2.30081e-11
8.40744e-11
2.58217e-08
-1.05909e-10
1.16248e-11
-2.6838e-08
-2.07877e-11
2.68135e-08
-2.27836e-08
7.5577e-11
2.2756e-08
2.582e-08
2.18053e-11
2.51335e-11
2.60095e-08
5.08786e-11
-2.45134e-08
1.95627e-11
2.44997e-08
-2.17094e-11
-9.37672e-12
-2.2786e-08
1.71158e-11
2.27813e-08
3.92829e-12
-6.38059e-12
2.60919e-08
-5.49748e-11
2.22351e-08
-2.89037e-11
-3.48595e-11
5.26487e-11
5.20145e-11
2.07975e-11
2.50747e-11
-2.33845e-11
-2.56037e-08
2.5593e-08
2.13074e-11
-3.13094e-11
-2.43524e-08
2.43406e-08
3.83963e-11
2.22222e-08
-2.66832e-11
-4.21568e-11
-2.22373e-08
2.37617e-11
3.14861e-11
-4.77677e-11
-4.54327e-11
-2.75135e-11
-3.00311e-11
2.87746e-11
2.56048e-08
-2.67421e-11
3.49137e-11
2.43538e-08
-4.24113e-11
2.14303e-11
3.82712e-11
1.16145e-11
1.82863e-11
-6.5719e-12
-8.22854e-12
1.25456e-07
-2.44639e-11
-1.54149e-11
-8.43454e-12
1.14844e-07
4.29443e-11
3.16828e-11
-3.29814e-11
-6.42281e-11
7.01596e-11
-6.3405e-11
7.42581e-11
-1.14855e-07
-3.08448e-11
-1.49589e-11
-1.33437e-11
1.16093e-07
2.98009e-11
3.70933e-11
-2.46462e-11
-9.69062e-12
4.10732e-11
-3.29311e-11
1.87777e-11
1.23833e-11
3.056e-11
6.10239e-11
4.61585e-11
2.73438e-08
-2.7494e-08
1.15732e-11
1.60184e-11
-1.25414e-07
-1.0171e-11
-6.17857e-12
1.25402e-07
-1.14824e-07
-2.49021e-11
-1.29366e-11
-7.5842e-12
1.14818e-07
4.2427e-11
3.11265e-11
-3.72652e-11
-6.53603e-11
6.91021e-11
7.32395e-11
-6.22046e-11
-1.16081e-07
-3.00763e-11
-1.37313e-11
-7.26836e-12
1.16077e-07
3.0117e-11
3.59239e-11
-2.58034e-11
-1.0441e-11
4.03836e-11
1.80786e-11
-3.36414e-11
-2.74922e-08
1.3257e-11
3.12421e-11
6.04779e-11
4.52476e-11
2.7342e-08
1.23279e-11
1.52865e-11
-1.25366e-07
-9.21395e-12
-6.63616e-12
1.25355e-07
-1.14804e-07
-2.49648e-11
-1.34679e-11
-6.81365e-12
1.14799e-07
4.22877e-11
3.07728e-11
-3.3849e-11
-6.56271e-11
6.8878e-11
7.31198e-11
-6.4892e-11
-1.16067e-07
-3.02673e-11
-1.29188e-11
-5.58188e-12
1.16064e-07
2.99372e-11
3.55036e-11
-2.61529e-11
-1.09746e-11
4.00111e-11
1.77192e-11
-3.41714e-11
-2.7492e-08
1.3723e-11
3.11161e-11
6.06004e-11
4.47468e-11
2.73418e-08
1.45581e-11
1.58491e-11
-1.25319e-07
-9.77575e-12
-8.87774e-12
1.25307e-07
-1.14789e-07
-2.4711e-11
-1.50936e-11
-7.43518e-12
1.14786e-07
4.26116e-11
3.08669e-11
-3.74037e-11
-6.56779e-11
6.90568e-11
7.32898e-11
-6.25619e-11
-1.16055e-07
-3.02001e-11
-1.34534e-11
-5.53632e-12
1.16052e-07
2.99814e-11
3.53781e-11
-2.62284e-11
-1.09011e-11
4.01804e-11
1.79261e-11
-3.41339e-11
-2.74914e-08
1.39878e-11
3.07571e-11
6.08405e-11
4.46006e-11
2.73412e-08
1.4113e-11
1.32471e-11
-1.25272e-07
-8.22476e-12
-8.95456e-12
1.25262e-07
-1.14782e-07
-2.47591e-11
-1.56569e-11
-8.58423e-12
1.14782e-07
4.243e-11
3.06088e-11
-3.40008e-11
-6.60065e-11
6.88521e-11
7.30628e-11
-6.51785e-11
-1.16043e-07
-3.03278e-11
-1.22469e-11
-5.45765e-12
1.16041e-07
2.99343e-11
3.51516e-11
-2.63586e-11
-1.12927e-11
3.98389e-11
1.76329e-11
-3.45726e-11
-2.74916e-08
1.43231e-11
3.07992e-11
6.05756e-11
4.41925e-11
2.73417e-08
1.11806e-11
1.09348e-11
-1.25232e-07
-6.35673e-12
-6.71687e-12
1.25223e-07
-1.14788e-07
-2.54107e-11
-1.44751e-11
-7.52984e-12
1.1479e-07
4.18303e-11
3.00441e-11
-3.83784e-11
-6.63282e-11
6.86451e-11
7.28389e-11
-6.31324e-11
-1.16038e-07
-3.07301e-11
-1.10093e-11
-5.41279e-12
1.16038e-07
2.95223e-11
3.46944e-11
-2.68475e-11
-1.19349e-11
3.92269e-11
1.70151e-11
-3.51837e-11
-2.74945e-08
1.42113e-11
3.08947e-11
6.02942e-11
4.41189e-11
2.7345e-08
9.79628e-12
1.11584e-11
-1.25196e-07
-6.65239e-12
-6.25696e-12
1.25188e-07
-1.14796e-07
-2.56607e-11
-1.19973e-11
-5.66959e-12
1.14796e-07
4.14905e-11
2.95748e-11
-3.49973e-11
-6.70825e-11
6.79052e-11
7.21867e-11
-6.62912e-11
-1.16044e-07
-3.08462e-11
-1.09604e-11
-5.28036e-12
1.16047e-07
2.92766e-11
3.44032e-11
-2.70756e-11
-1.23167e-11
3.89324e-11
1.66657e-11
-3.55012e-11
-2.74992e-08
1.43681e-11
3.15977e-11
5.95761e-11
4.39081e-11
2.73498e-08
9.08094e-12
1.14089e-11
-1.25164e-07
-7.20162e-12
-6.05114e-12
1.25157e-07
-1.14802e-07
-2.59547e-11
-9.97473e-12
-4.48875e-12
1.14803e-07
4.1363e-11
2.94531e-11
-3.8908e-11
-6.75414e-11
6.75131e-11
7.17231e-11
-6.43106e-11
-1.16058e-07
-3.11622e-11
-1.05539e-11
-4.15937e-12
1.16061e-07
2.90608e-11
3.41085e-11
-2.73671e-11
-1.25954e-11
3.86699e-11
1.6405e-11
-3.57751e-11
-2.75047e-08
1.46519e-11
3.20374e-11
5.91488e-11
4.35763e-11
2.73553e-08
7.13912e-12
1.02347e-11
-1.25139e-07
-7.95623e-12
-5.71614e-12
1.25135e-07
-1.14808e-07
-2.61214e-11
-9.36224e-12
-3.82986e-12
1.1481e-07
4.10547e-11
2.89144e-11
-3.54397e-11
-6.80617e-11
6.71178e-11
7.12724e-11
-6.71032e-11
-1.16072e-07
-3.14325e-11
-9.72331e-12
-3.3422e-12
1.16076e-07
2.87362e-11
3.37295e-11
-2.7668e-11
-1.27854e-11
3.85007e-11
1.62448e-11
-3.59615e-11
-2.75101e-08
1.47696e-11
3.22766e-11
5.89989e-11
4.35147e-11
2.73605e-08
6.68142e-12
7.66205e-12
-1.25126e-07
-6.08598e-12
-5.23913e-12
1.25122e-07
-1.14823e-07
-2.63283e-11
-8.50887e-12
-4.32418e-12
1.14828e-07
4.10141e-11
2.89193e-11
-3.91857e-11
-6.8525e-11
6.66394e-11
7.08077e-11
-6.52235e-11
-1.16086e-07
-3.16246e-11
-6.96825e-12
-2.54053e-12
1.16089e-07
2.86898e-11
3.36423e-11
-2.77396e-11
-1.34326e-11
3.79134e-11
1.56573e-11
-3.66134e-11
-2.75143e-08
1.54827e-11
3.20096e-11
5.92212e-11
4.29951e-11
2.73646e-08
6.42385e-12
6.47424e-12
-1.25113e-07
-4.83641e-12
-5.68341e-12
1.2511e-07
-1.14842e-07
-2.65055e-11
-7.29215e-12
-3.50448e-12
1.14846e-07
4.08512e-11
2.86349e-11
-3.57334e-11
-6.87988e-11
6.63345e-11
7.05218e-11
-6.78355e-11
-1.16098e-07
-3.14482e-11
-4.15543e-12
-2.96567e-12
1.16101e-07
2.87306e-11
3.35524e-11
-2.76852e-11
-1.40906e-11
3.7297e-11
1.50005e-11
-3.71897e-11
-2.75179e-08
1.61071e-11
3.19695e-11
5.91984e-11
4.24597e-11
2.73682e-08
5.21008e-12
5.69155e-12
-1.25104e-07
-4.45149e-12
-5.25504e-12
1.25103e-07
-1.14859e-07
-2.68351e-11
-5.5113e-12
-2.88043e-12
1.14863e-07
4.0844e-11
2.83558e-11
-3.99848e-11
-6.90245e-11
6.63133e-11
7.04009e-11
-6.56035e-11
-1.1611e-07
-3.18165e-11
-3.04279e-12
-2.33643e-12
1.16113e-07
2.84521e-11
3.33815e-11
-2.80394e-11
-1.42993e-11
3.71566e-11
1.47623e-11
-3.73266e-11
-2.75211e-08
1.59241e-11
3.23755e-11
5.88666e-11
4.26221e-11
2.73713e-08
3.90942e-12
4.67492e-12
-1.25101e-07
-4.60003e-12
-4.52281e-12
1.25102e-07
-1.14875e-07
-2.67508e-11
-3.17159e-12
-3.24397e-12
1.14878e-07
4.08741e-11
2.82552e-11
-3.61551e-11
-6.95227e-11
6.57019e-11
6.98341e-11
-6.84904e-11
-1.16122e-07
-3.1916e-11
-1.95656e-12
-2.6568e-12
1.16124e-07
2.82775e-11
3.30972e-11
-2.81304e-11
-1.42514e-11
3.72077e-11
1.48009e-11
-3.72522e-11
-2.75233e-08
1.59079e-11
3.29178e-11
5.84084e-11
4.28149e-11
2.73733e-08
2.92531e-12
3.97032e-12
-1.25103e-07
-3.81811e-12
-3.61038e-12
1.25104e-07
-1.14891e-07
-2.67925e-11
-2.80027e-12
-3.14982e-12
1.14894e-07
4.0927e-11
2.8376e-11
-3.98933e-11
-6.9537e-11
6.57175e-11
6.98301e-11
-6.61313e-11
-1.16132e-07
-3.21718e-11
-1.81724e-12
-2.33303e-12
1.16134e-07
2.82524e-11
3.3006e-11
-2.8242e-11
-1.42097e-11
3.73205e-11
1.48976e-11
-3.71886e-11
-2.75245e-08
1.61853e-11
3.3106e-11
5.81841e-11
4.25715e-11
2.73744e-08
2.53722e-12
2.6687e-12
-1.25106e-07
-2.93743e-12
-3.48996e-12
1.25107e-07
-1.14903e-07
-2.69687e-11
-2.84312e-12
-2.02858e-12
1.14905e-07
4.06511e-11
2.79909e-11
-3.64274e-11
-6.93521e-11
6.58232e-11
6.99805e-11
-6.82983e-11
-1.16142e-07
-3.24177e-11
-1.00902e-12
-1.28495e-12
1.16145e-07
2.79341e-11
3.27135e-11
-2.85182e-11
-1.43274e-11
3.71768e-11
1.47762e-11
-3.73325e-11
-2.7526e-08
1.61915e-11
3.27604e-11
5.86024e-11
4.25063e-11
2.73759e-08
1.3503e-12
1.59882e-12
-1.2511e-07
-1.18134e-12
-2.54053e-12
1.25111e-07
-1.14914e-07
-2.70275e-11
-2.86896e-12
-2.85378e-12
1.14916e-07
4.06963e-11
2.81815e-11
-4.01227e-11
-6.91131e-11
6.62098e-11
7.02871e-11
-6.56544e-11
-1.16149e-07
-3.23322e-11
3.68008e-13
-6.94064e-13
1.16149e-07
2.81322e-11
3.27767e-11
-2.83938e-11
-1.45394e-11
3.69665e-11
1.46106e-11
-3.76083e-11
-2.75265e-08
1.63044e-11
3.28442e-11
5.85589e-11
4.24155e-11
2.73764e-08
-3.18179e-14
1.40877e-12
-1.25112e-07
-5.85662e-13
-6.37516e-13
1.25112e-07
-1.1492e-07
-2.72192e-11
-1.80469e-12
-1.19959e-12
1.14919e-07
4.04325e-11
2.78667e-11
-3.67827e-11
-6.91163e-11
6.62066e-11
7.02716e-11
-6.8015e-11
-1.16151e-07
-3.26347e-11
9.02904e-13
5.45431e-13
1.16151e-07
2.77267e-11
3.24648e-11
-2.50807e-11
-1.46364e-11
3.68509e-11
1.44859e-11
-4.01564e-11
-2.75272e-08
1.62884e-11
3.34009e-11
5.79202e-11
4.24438e-11
2.73771e-08
-8.33044e-12
1.17166e-07
1.37372e-11
3.86225e-11
-6.57971e-12
-3.2855e-11
-2.14827e-11
-1.48605e-11
-5.89626e-12
1.17196e-07
2.64651e-11
2.75461e-11
-2.55267e-11
1.40456e-11
3.86526e-11
-2.95074e-11
-6.2448e-12
-1.17199e-07
1.17152e-07
-1.17012e-11
-1.17156e-07
-6.3401e-12
-6.71706e-12
-3.3167e-11
1.30153e-11
3.82838e-11
2.69678e-11
1.17183e-07
-1.29902e-11
-1.17188e-07
-4.26059e-12
-2.17604e-11
-2.21844e-11
2.98463e-11
-7.03392e-12
-3.27762e-11
3.54034e-11
1.32967e-11
5.28023e-11
5.26697e-11
2.73236e-08
-2.7475e-08
-3.1023e-11
2.74741e-08
-2.7323e-08
-4.66419e-11
-4.6479e-11
-5.25912e-12
1.14842e-07
-6.40533e-11
6.98549e-11
7.43214e-11
-6.086e-11
-1.32151e-11
-1.68903e-11
-9.60502e-12
1.15889e-07
4.01363e-11
2.03511e-11
-3.42135e-11
-4.47581e-11
6.84712e-11
-6.0247e-11
5.4121e-11
1.1483e-07
-1.65726e-11
-1.14834e-07
-4.56405e-12
7.3661e-11
-6.17075e-11
-6.48391e-11
6.90928e-11
2.02998e-11
1.15881e-07
-1.58467e-11
-1.15884e-07
-8.4692e-12
-1.3726e-11
-3.45927e-11
3.98052e-11
5.35085e-11
-6.09862e-11
6.80685e-11
-4.54307e-11
-1.48826e-11
-1.19197e-11
1.15962e-07
4.08171e-11
2.21141e-11
-3.29098e-11
-4.50492e-11
6.95196e-11
-6.08786e-11
5.42885e-11
-1.1597e-07
-1.24845e-11
-1.14829e-07
-7.28429e-12
-2.50548e-11
-3.73591e-11
3.86396e-11
7.34234e-11
-6.20749e-11
-6.51852e-11
7.16242e-11
2.1183e-11
1.15939e-07
-1.19147e-11
-1.15945e-07
-9.67056e-12
-1.32091e-11
-3.37825e-11
4.00182e-11
5.3448e-11
-6.16333e-11
6.82686e-11
-4.59718e-11
6.08192e-11
4.64232e-11
2.73281e-08
-3.60301e-11
2.74757e-08
-2.73267e-08
-5.36484e-11
-3.90233e-11
-1.86602e-11
-5.08897e-12
1.16168e-07
3.0079e-11
3.6491e-11
-2.53933e-11
-8.73694e-12
4.11461e-11
-3.19538e-11
1.9108e-11
-1.16175e-07
-1.37299e-11
-1.16085e-07
-7.36799e-12
-2.99548e-11
-2.57157e-11
3.02223e-11
1.81691e-11
-3.35799e-11
-1.03409e-11
4.04503e-11
3.62121e-11
1.16155e-07
-1.61224e-11
-1.16159e-07
-4.1026e-12
-3.13519e-11
-2.6081e-11
2.94483e-11
1.81235e-11
-3.29264e-11
4.01378e-11
-9.70974e-12
-2.73422e-08
-5.47024e-11
-3.7922e-11
2.10822e-11
2.47253e-11
5.28377e-11
5.15897e-11
2.73226e-08
-2.66991e-11
-2.99546e-11
2.7475e-08
-2.73244e-08
-4.77548e-11
-4.62676e-11
-6.32942e-12
1.17148e-07
2.63652e-11
2.71974e-11
-2.17678e-11
1.29532e-11
3.82537e-11
-6.79014e-12
-3.31248e-11
-2.1889e-11
-1.35278e-11
-4.47746e-12
1.17181e-07
2.5783e-11
2.69312e-11
-2.2189e-11
1.33883e-11
3.79474e-11
-6.98396e-12
-3.26196e-11
1.17141e-07
-1.23371e-11
-1.17143e-07
-6.51273e-12
-2.13038e-11
-2.22757e-11
2.6048e-11
-6.76766e-12
-3.3255e-11
3.83259e-11
1.28042e-11
2.67572e-11
1.17174e-07
-1.29111e-11
-1.17177e-07
-4.24043e-12
-2.18404e-11
-2.24581e-11
2.57439e-11
-6.87301e-12
-3.28197e-11
3.79728e-11
1.32964e-11
5.22769e-11
5.20024e-11
2.7323e-08
-3.07478e-11
2.7475e-08
-2.73238e-08
-4.68512e-11
-4.68416e-11
-5.24172e-12
1.14826e-07
4.25065e-11
3.01361e-11
-3.81837e-11
-6.50769e-11
6.89672e-11
7.34369e-11
-6.18036e-11
-1.36752e-11
-1.60848e-11
-8.6349e-12
1.15879e-07
3.98664e-11
2.03581e-11
-3.45146e-11
-4.55182e-11
6.80075e-11
5.34266e-11
-6.10211e-11
1.14819e-07
-1.54251e-11
-1.14821e-07
-6.2349e-12
-2.46562e-11
-3.83112e-11
4.25529e-11
7.30317e-11
-6.24007e-11
6.85583e-11
-6.5629e-11
1.98473e-11
1.15874e-07
-1.50876e-11
-1.15875e-07
-6.96486e-12
-1.39367e-11
-3.50137e-11
3.95563e-11
5.31689e-11
-6.15025e-11
6.7683e-11
-4.59136e-11
-1.25325e-11
-9.44158e-12
1.15933e-07
3.99183e-11
2.10353e-11
-3.37682e-11
-4.59912e-11
6.8221e-11
-6.16381e-11
5.33962e-11
-1.27062e-11
-1.14809e-07
-6.78843e-12
-2.49672e-11
-3.76051e-11
4.22663e-11
7.30922e-11
-6.25705e-11
-6.56437e-11
6.88782e-11
2.03784e-11
1.15919e-07
-1.2613e-11
-1.15923e-07
-8.07036e-12
-1.37612e-11
-3.4478e-11
3.95258e-11
5.33651e-11
-6.19201e-11
6.81169e-11
-4.62123e-11
5.99355e-11
4.54986e-11
2.73265e-08
-3.55001e-11
2.7476e-08
-2.73268e-08
-5.4207e-11
-3.96181e-11
-1.63928e-11
-4.74022e-12
1.16152e-07
2.94915e-11
3.62248e-11
-2.59162e-11
-9.79326e-12
4.01054e-11
-3.2971e-11
1.80522e-11
-1.26848e-11
-1.16071e-07
-5.70126e-12
-3.02779e-11
-2.61733e-11
2.99011e-11
1.77613e-11
-3.4195e-11
-1.09369e-11
4.00332e-11
3.60647e-11
1.16145e-07
-1.4726e-11
-1.16148e-07
-4.5778e-12
-3.12597e-11
-2.61003e-11
2.95825e-11
1.76599e-11
-3.3582e-11
3.96921e-11
-1.03954e-11
-2.7342e-08
-5.49217e-11
-3.86973e-11
2.12766e-11
2.45103e-11
5.31527e-11
5.1275e-11
2.73248e-08
-2.64047e-11
-3.03165e-11
2.7476e-08
-2.73257e-08
-4.72159e-11
-4.64365e-11
-7.44493e-12
1.1714e-07
2.60848e-11
2.6733e-11
-2.22197e-11
1.28431e-11
3.84389e-11
-6.72898e-12
-3.31197e-11
-2.16734e-11
-1.3183e-11
-4.81452e-12
1.17173e-07
2.58951e-11
2.691e-11
-2.6326e-11
1.33701e-11
3.81293e-11
-6.80097e-12
-3.01342e-11
1.17139e-07
-1.41707e-11
-1.17139e-07
-7.09643e-12
-2.13439e-11
-2.24791e-11
2.59943e-11
-6.20401e-12
-3.27657e-11
3.89605e-11
1.32363e-11
2.66587e-11
1.17164e-07
-1.41943e-11
-1.17167e-07
-4.36092e-12
-2.16135e-11
-2.25104e-11
2.97937e-11
-6.60435e-12
-3.2577e-11
3.58586e-11
1.34443e-11
5.23357e-11
5.19988e-11
2.7324e-08
-3.07078e-11
2.74761e-08
-2.73249e-08
-4.67399e-11
-4.7052e-11
-7.08837e-12
1.14818e-07
4.27405e-11
3.00905e-11
-3.81263e-11
-6.56948e-11
6.85381e-11
7.30081e-11
-6.24309e-11
-1.39343e-11
-1.53375e-11
-6.56892e-12
1.15871e-07
3.95881e-11
1.98313e-11
-3.49836e-11
-4.59182e-11
6.77208e-11
5.31911e-11
-6.14574e-11
1.14815e-07
-1.58748e-11
-1.14816e-07
-8.31766e-12
-2.40284e-11
-3.7767e-11
4.32552e-11
7.31285e-11
-6.2412e-11
6.86815e-11
-6.57043e-11
1.95911e-11
1.15864e-07
-1.50262e-11
-1.15867e-07
-5.69766e-12
-1.39937e-11
-3.51514e-11
3.95371e-11
5.32832e-11
-6.15384e-11
6.77813e-11
-4.59874e-11
-1.34926e-11
-7.99823e-12
1.15915e-07
3.95016e-11
2.03114e-11
-3.43747e-11
-4.61191e-11
6.82632e-11
-6.17399e-11
5.34936e-11
-1.43935e-11
-1.14791e-07
-6.75552e-12
-2.49599e-11
-3.75774e-11
3.87146e-11
7.33084e-11
-6.25731e-11
-6.56295e-11
7.13984e-11
1.9867e-11
1.15904e-07
-1.39272e-11
-1.15907e-07
-6.75767e-12
-1.40956e-11
-3.49408e-11
3.923e-11
5.36526e-11
-6.1806e-11
6.84202e-11
-4.61576e-11
5.97171e-11
4.51531e-11
2.73269e-08
-3.53458e-11
2.7476e-08
-2.7327e-08
-5.43267e-11
-3.97518e-11
-1.48688e-11
-4.955e-12
1.16143e-07
2.97109e-11
3.61135e-11
-2.58836e-11
-1.04586e-11
3.96957e-11
-3.35418e-11
1.76006e-11
-1.31298e-11
-1.16058e-07
-5.3231e-12
-3.02305e-11
-2.62806e-11
2.99442e-11
1.78944e-11
-3.41734e-11
-1.09231e-11
4.01638e-11
3.61835e-11
1.16136e-07
-1.42131e-11
-1.16138e-07
-5.60057e-12
-3.09395e-11
-2.59771e-11
2.99529e-11
1.76308e-11
-3.3683e-11
3.97401e-11
-1.05924e-11
-2.73414e-08
-5.48629e-11
-3.90598e-11
2.13356e-11
2.38432e-11
5.39069e-11
5.13521e-11
2.73256e-08
-2.60057e-11
-3.01521e-11
2.74764e-08
-2.73259e-08
-4.76182e-11
-4.67144e-11
-7.35803e-12
1.17138e-07
2.60463e-11
2.64669e-11
-2.24006e-11
1.33732e-11
3.91171e-11
-6.07426e-12
-3.2604e-11
-2.16557e-11
-1.47612e-11
-5.11726e-12
1.17162e-07
2.58531e-11
2.67331e-11
-2.23958e-11
1.35404e-11
3.84624e-11
-6.49848e-12
-3.24089e-11
1.17136e-07
-1.48334e-11
-1.17137e-07
-4.91204e-12
-2.15295e-11
-2.28008e-11
2.57552e-11
-6.15073e-12
-3.28957e-11
3.8996e-11
1.31052e-11
2.67452e-11
1.17162e-07
-1.49666e-11
-1.17161e-07
-6.59367e-12
-2.15149e-11
-2.23119e-11
2.60675e-11
-6.67831e-12
-3.2741e-11
3.82788e-11
1.323e-11
5.26626e-11
5.19422e-11
2.73251e-08
-3.06431e-11
2.74779e-08
-2.73265e-08
-4.69525e-11
-4.70686e-11
-9.38733e-12
1.14813e-07
4.34994e-11
3.05249e-11
-3.75423e-11
-6.56299e-11
6.87983e-11
7.32119e-11
-6.2278e-11
-1.38785e-11
-1.53022e-11
-6.14827e-12
1.15861e-07
3.96676e-11
1.97114e-11
-3.5008e-11
-4.59532e-11
6.78714e-11
5.33217e-11
-6.14393e-11
1.14808e-07
-1.43968e-11
-1.1481e-07
-8.58508e-12
-2.39071e-11
-3.80409e-11
4.31936e-11
7.30831e-11
-6.26126e-11
6.8624e-11
-6.58992e-11
1.95464e-11
1.15853e-07
-1.41928e-11
-1.15855e-07
-6.24062e-12
-1.38421e-11
-3.51681e-11
3.96378e-11
5.31647e-11
-6.17514e-11
6.77225e-11
-4.62484e-11
-1.44914e-11
-6.41866e-12
1.159e-07
3.91777e-11
1.96902e-11
-3.48131e-11
-4.61663e-11
6.84848e-11
-6.17313e-11
5.36735e-11
-1.53846e-11
-1.14783e-07
-8.30445e-12
-2.4689e-11
-3.76674e-11
4.24914e-11
7.31435e-11
-6.28005e-11
-6.59123e-11
6.89113e-11
1.94048e-11
1.15893e-07
-1.4567e-11
-1.15895e-07
-5.14205e-12
-1.43234e-11
-3.5306e-11
3.89191e-11
5.34438e-11
-6.21422e-11
6.82095e-11
-4.65285e-11
5.98091e-11
4.52462e-11
2.73268e-08
-3.51588e-11
2.74766e-08
-2.73273e-08
-5.45899e-11
-3.99561e-11
-1.41799e-11
-6.1606e-12
1.16134e-07
2.99541e-11
3.6106e-11
-2.57843e-11
-1.06077e-11
3.97515e-11
-3.36301e-11
1.76259e-11
-1.24674e-11
-1.16046e-07
-5.44055e-12
-3.02496e-11
-2.63511e-11
2.99545e-11
1.7804e-11
-3.44533e-11
-1.11496e-11
4.00099e-11
3.60689e-11
1.16127e-07
-1.23837e-11
-1.16129e-07
-6.27535e-12
-3.08405e-11
-2.61332e-11
2.98438e-11
1.73089e-11
-3.41321e-11
3.93521e-11
-1.10066e-11
-2.73414e-08
-5.5208e-11
-3.9552e-11
2.16868e-11
2.42231e-11
5.33473e-11
5.10657e-11
2.73261e-08
-2.56566e-11
-2.9082e-11
2.74786e-08
-2.73278e-08
-4.88561e-11
-4.72141e-11
-4.77672e-12
1.17135e-07
2.57231e-11
2.60435e-11
-2.28302e-11
1.29105e-11
3.88068e-11
-6.35511e-12
-3.30612e-11
-2.13804e-11
-1.48693e-11
-7.39462e-12
1.17164e-07
2.62023e-11
2.69003e-11
-2.61766e-11
1.31125e-11
3.82358e-11
-6.77974e-12
-3.03137e-11
1.17136e-07
-1.21074e-11
-1.17136e-07
-3.65153e-12
-2.18874e-11
-2.31642e-11
2.53889e-11
-7.13647e-12
-3.39521e-11
3.79453e-11
1.21059e-11
2.66143e-11
1.17168e-07
-1.30017e-11
-1.17168e-07
-6.93254e-12
-2.134e-11
-2.24247e-11
3.00324e-11
-7.42108e-12
-3.34633e-11
3.51133e-11
1.24443e-11
5.24423e-11
5.211e-11
2.73272e-08
-2.99711e-11
2.74816e-08
-2.733e-08
-4.76933e-11
-4.72376e-11
-7.87238e-12
1.14806e-07
4.29479e-11
3.00009e-11
-3.82777e-11
-6.60972e-11
6.84372e-11
7.28899e-11
-6.27646e-11
-1.39259e-11
-1.37548e-11
-6.11123e-12
1.1585e-07
3.95984e-11
1.95373e-11
-3.5202e-11
-4.63558e-11
6.76015e-11
5.30337e-11
-6.18311e-11
1.14804e-07
-1.1364e-11
-1.14804e-07
-5.22766e-12
-2.4984e-11
-3.91357e-11
4.2067e-11
7.22726e-11
-6.34548e-11
6.78033e-11
-6.67678e-11
1.8884e-11
1.15847e-07
-1.18614e-11
-1.15848e-07
-5.62606e-12
-1.43162e-11
-3.5745e-11
3.9081e-11