/*--------------------------------*- C++ -*----------------------------------*\
| =========                 |                                                 |
| \\      /  F ield         | OpenFOAM: The Open Source CFD Toolbox           |
|  \\    /   O peration     | Version:  2206                                  |
|   \\  /    A nd           | Website:  www.openfoam.com                      |
|    \\/     M anipulation  |                                                 |
\*---------------------------------------------------------------------------*/
FoamFile
{
    version     2.0;
    format      ascii;
    arch        "LSB;label=32;scalar=64";
    class       volVectorField;
    location    "149";
    object      U;
}
// * * * * * * * * * * * * * * * * * * * * * * * * * * * * * * * * * * * * * //

dimensions      [0 1 -1 0 0 0 0];

internalField   nonuniform List<vector> 
66928
(
(-0.000138011 -0.000133195 0.128831)
(-1.40484e-05 -1.76685e-05 0.135249)
(-2.49161e-05 -8.33902e-06 0.134831)
(-2.34157e-05 1.22124e-05 0.134811)
(-0.000139206 0.000137312 0.128828)
(-1.30439e-05 2.15422e-05 0.135244)
(0.000105673 0.000109384 0.129001)
(-0.000134692 -0.000132121 0.128834)
(-1.49681e-05 -9.46554e-06 0.145446)
(-1.39012e-05 1.40094e-05 0.145438)
(-9.33962e-06 -8.9888e-07 0.058948)
(-4.39204e-06 2.89436e-06 0.0587514)
(-2.06339e-05 -2.65294e-06 0.0818774)
(-7.0094e-06 -4.57925e-06 0.0814559)
(-6.51313e-06 -1.86146e-05 0.0690844)
(-2.51765e-05 -2.5709e-05 0.0970143)
(-1.67475e-05 5.35171e-06 0.0686667)
(-2.36636e-05 5.20362e-06 0.0937081)
(-2.62818e-05 -8.64222e-06 0.096337)
(-2.67797e-05 -2.13912e-06 0.140307)
(-3.94778e-05 3.81612e-06 0.113429)
(-1.50428e-05 -4.27993e-07 0.0687125)
(-2.32523e-05 2.29363e-06 0.0937123)
(-2.67365e-05 6.41593e-06 0.140302)
(-2.50931e-05 1.39775e-05 0.0963561)
(-3.91546e-05 1.81321e-06 0.113422)
(-2.99218e-06 1.30025e-06 0.0587929)
(-6.11259e-06 9.51373e-06 0.0815046)
(-1.906e-05 5.75251e-06 0.0818959)
(-8.91784e-06 4.30831e-06 0.0589583)
(-2.41998e-05 2.81635e-05 0.0970165)
(-8.41647e-06 1.98863e-05 0.0690811)
(2.27639e-06 1.29434e-06 0.0590678)
(-1.25977e-05 -6.77911e-07 0.058964)
(-5.71798e-06 4.27434e-07 0.0589848)
(-4.00717e-06 1.03745e-06 0.0587728)
(7.62309e-06 -3.81804e-06 0.0821485)
(-9.53021e-06 4.13884e-06 0.0818805)
(-0.000136257 -0.000131873 0.12883)
(-2.08365e-05 -9.03187e-08 0.0819002)
(-5.74512e-06 -6.13982e-06 0.0814773)
(-1.1494e-05 -1.45024e-07 0.058976)
(4.61518e-07 2.55599e-06 0.0590836)
(-1.77589e-06 -5.65429e-07 0.0587916)
(-3.66775e-06 -7.6716e-07 0.0590063)
(0.000106484 0.000109304 0.129)
(-1.95658e-05 8.48215e-07 0.0819204)
(-3.3098e-06 -7.07126e-06 0.0815002)
(7.69447e-06 -1.45348e-06 0.0821692)
(-7.64868e-06 3.09424e-06 0.0819005)
(4.84595e-06 1.81305e-06 0.059058)
(-1.44513e-07 2.17482e-05 0.0936419)
(-2.2682e-05 -3.9542e-05 0.105923)
(6.28015e-06 -5.36913e-06 0.0821356)
(-9.99609e-06 -1.72688e-06 0.0682028)
(4.38475e-06 -2.63149e-06 0.0684033)
(3.75633e-06 2.36264e-05 0.106339)
(-1.66332e-05 -3.1857e-05 0.0932172)
(2.07045e-05 -3.41066e-06 0.0934249)
(-4.77341e-05 -8.72822e-06 0.105451)
(-9.66909e-06 5.07216e-06 0.0818695)
(-8.15388e-06 1.71494e-06 0.0679274)
(-5.04855e-06 -2.06699e-07 0.0682072)
(2.16118e-05 1.09787e-06 0.106019)
(-4.15087e-05 -2.11503e-06 0.092936)
(-1.3055e-06 -2.08146e-06 0.0745952)
(-9.8605e-06 4.36802e-06 0.0576046)
(-3.57063e-06 1.03054e-06 0.0575543)
(3.19911e-06 -4.73734e-06 0.0577756)
(-6.24334e-06 3.22156e-07 0.0577545)
(-1.17175e-05 -3.86337e-07 0.0742503)
(4.97308e-06 9.26566e-06 0.0692013)
(-1.0696e-05 -2.65075e-05 0.0804168)
(-3.4856e-06 9.34451e-06 0.0805471)
(-2.80526e-06 -7.8711e-06 0.0573738)
(-1.963e-05 7.33463e-06 0.0797457)
(-3.54601e-06 7.6933e-06 0.0571147)
(-2.4012e-05 7.6593e-06 0.0903068)
(1.36513e-06 5.25439e-06 0.0654991)
(-3.09856e-07 7.74617e-06 0.0632475)
(-1.79987e-05 -7.82208e-07 0.0797783)
(-2.15103e-06 -1.45529e-06 0.0571455)
(1.72519e-06 2.7209e-06 0.0655099)
(-2.33601e-05 -3.81303e-07 0.0903224)
(4.80419e-07 -2.6955e-07 0.0632748)
(2.17615e-05 8.38427e-06 0.093444)
(-4.6904e-05 1.42082e-05 0.105495)
(-7.7105e-06 3.28659e-07 0.0819162)
(-6.4665e-06 2.29375e-06 0.0679643)
(2.27483e-05 3.46065e-06 0.106062)
(-3.18016e-06 4.60424e-06 0.0682417)
(-3.97319e-05 7.7028e-06 0.0929586)
(8.79019e-07 -1.79739e-05 0.0936754)
(-2.24366e-05 4.45347e-05 0.105894)
(9.34318e-06 7.72363e-06 0.0821521)
(-1.02462e-05 5.1508e-06 0.0682376)
(3.97098e-06 4.91682e-06 0.0684336)
(5.10068e-06 -1.96321e-05 0.106306)
(-1.58434e-05 3.69617e-05 0.0932549)
(6.77268e-07 6.39787e-06 0.0746319)
(-2.13479e-06 2.37129e-06 0.0575884)
(-8.65698e-06 -1.22376e-06 0.0576377)
(-3.98534e-06 3.22593e-06 0.057785)
(3.88798e-06 7.9764e-06 0.0578054)
(-1.0439e-05 4.53779e-06 0.0742918)
(4.0634e-06 1.10475e-06 0.059067)
(2.04248e-06 -1.1231e-05 0.069197)
(-7.96103e-06 2.60417e-05 0.0804278)
(-1.12769e-06 -1.30436e-05 0.0805791)
(-4.01833e-06 8.69425e-06 0.0573695)
(-1.13884e-05 -4.98648e-07 0.0589568)
(8.54364e-07 1.99675e-06 0.059076)
(-4.1212e-06 2.2225e-06 0.0587627)
(-4.79935e-06 1.13426e-07 0.0589957)
(-3.17794e-07 -2.11321e-06 0.0746144)
(-1.02335e-05 5.73021e-06 0.0576235)
(-1.96278e-06 5.04227e-07 0.0575741)
(1.80155e-06 -4.55429e-06 0.057795)
(-5.21028e-06 -1.94073e-07 0.057773)
(-1.02292e-05 4.72261e-07 0.0742706)
(-1.59239e-05 -3.08234e-05 0.0932274)
(6.21636e-06 2.45905e-05 0.106344)
(3.11464e-06 -1.76326e-06 0.0684146)
(-2.04835e-05 -1.05357e-06 0.0818899)
(9.48335e-07 2.21873e-05 0.0936506)
(-1.09501e-05 -4.2196e-07 0.0682141)
(-2.18298e-05 -3.85729e-05 0.10593)
(-4.0336e-05 -2.11814e-06 0.0929471)
(2.25349e-05 7.41582e-07 0.106029)
(-5.0245e-06 -1.18463e-06 0.068218)
(-6.3977e-06 -5.15596e-06 0.0814669)
(2.11115e-05 -3.89314e-06 0.0934347)
(-7.42616e-06 1.3131e-06 0.0679386)
(-4.66987e-05 -9.01459e-06 0.105461)
(-1.10247e-05 -8.45958e-08 0.0742616)
(1.91945e-06 -4.85716e-06 0.0577853)
(-5.77618e-06 -1.66215e-07 0.0577636)
(-9.41311e-07 -2.40164e-06 0.0746048)
(-1.02062e-05 5.08319e-06 0.0576142)
(-2.83255e-06 7.78375e-07 0.0575644)
(1.87554e-06 2.31249e-05 0.093659)
(-1.18874e-05 7.98105e-07 0.068224)
(7.67967e-06 -2.31641e-06 0.0821611)
(-2.17772e-05 -3.76728e-05 0.105938)
(2.6132e-06 -6.55479e-07 0.0684253)
(-1.55635e-05 -2.96825e-05 0.0932372)
(6.8397e-06 2.54987e-05 0.106351)
(2.21649e-05 -3.62629e-06 0.0934443)
(-6.20524e-06 6.04401e-07 0.067949)
(-8.64615e-06 3.78463e-06 0.0818919)
(-4.51783e-05 -9.68369e-06 0.105471)
(-4.29301e-06 -1.24359e-06 0.0682291)
(-3.90144e-05 -2.51839e-06 0.0929584)
(2.39564e-05 7.99115e-07 0.106039)
(9.0989e-07 2.3073e-06 0.0590889)
(-1.21198e-05 7.84843e-07 0.0589706)
(-3.12392e-06 -1.7134e-06 0.0590151)
(-2.00114e-06 5.20381e-07 0.0587828)
(-9.62665e-06 4.25983e-07 0.0742808)
(2.12815e-06 -4.12543e-06 0.0578046)
(-4.31831e-06 -2.44763e-07 0.0577828)
(6.06275e-07 -1.58527e-06 0.0746257)
(-9.43425e-06 5.42278e-06 0.0576322)
(-1.6707e-06 5.65089e-07 0.0575831)
(3.08463e-06 2.36647e-05 0.0936798)
(-2.0164e-05 -3.67764e-05 0.105958)
(8.25286e-06 -1.22275e-06 0.08218)
(-1.08995e-05 8.58855e-07 0.0682435)
(2.61115e-06 -2.18072e-07 0.0684444)
(8.18072e-06 2.65095e-05 0.106367)
(-1.39405e-05 -2.93367e-05 0.093257)
(2.37014e-05 -3.89035e-06 0.0934674)
(-4.31461e-05 -1.01289e-05 0.105494)
(-6.65388e-06 2.46305e-06 0.0819124)
(-4.67823e-06 1.0378e-08 0.0679713)
(-2.93156e-06 -2.26392e-06 0.0682508)
(2.57506e-05 1.81484e-09 0.106058)
(-3.73929e-05 -2.54278e-06 0.0929808)
(-1.41449e-05 -2.93387e-05 0.0932484)
(2.35078e-06 3.0056e-07 0.0684349)
(7.15378e-06 2.60337e-05 0.106357)
(-1.99035e-05 1.06987e-06 0.0819118)
(2.35906e-06 2.39625e-05 0.0936711)
(-1.09611e-05 9.93104e-07 0.068234)
(-2.05011e-05 -3.70279e-05 0.105948)
(-3.81724e-05 -1.79432e-06 0.092971)
(-3.09638e-06 -1.56784e-06 0.0682396)
(2.48558e-05 1.16744e-07 0.106046)
(-4.17145e-06 -6.17089e-06 0.0814901)
(2.33433e-05 -3.8187e-06 0.0934578)
(-5.56257e-06 9.84776e-07 0.0679603)
(-4.44376e-05 -9.60887e-06 0.105483)
(6.95678e-07 -2.43026e-06 0.0746348)
(-8.96174e-06 5.42289e-06 0.0576412)
(-6.41558e-07 -1.21147e-07 0.0575926)
(2.53949e-06 -4.66031e-06 0.0578134)
(-3.97712e-06 -8.61052e-07 0.0577921)
(-8.99212e-06 6.57129e-08 0.0742919)
(2.41767e-05 2.36767e-05 0.109167)
(0.000103155 0.00010925 0.129002)
(-0.000142462 -4.22689e-05 0.119767)
(-5.16302e-05 -0.000133857 0.119452)
(0.000112897 2.36446e-05 0.120129)
(2.01376e-05 0.000116717 0.119885)
(-4.85103e-05 -3.6411e-05 0.108705)
(2.4354e-05 -1.99521e-05 0.109176)
(0.000104187 -0.000105719 0.129001)
(-5.18543e-05 0.000139219 0.119531)
(-0.000140667 4.69339e-05 0.119662)
(2.1729e-05 -0.000114821 0.119965)
(0.000114474 -1.87895e-05 0.120023)
(-4.68447e-05 4.23683e-05 0.108714)
(-4.78095e-05 -3.59061e-05 0.108714)
(0.000116732 2.47e-05 0.12013)
(2.22158e-05 0.000117282 0.11989)
(-0.00013684 -0.000132153 0.128831)
(2.51749e-05 2.40464e-05 0.109174)
(-0.000140711 -4.14233e-05 0.119769)
(-5.01914e-05 -0.000133013 0.119458)
(2.77529e-05 2.46338e-05 0.109201)
(0.00010694 0.000108885 0.129002)
(-0.000138369 -4.09259e-05 0.119788)
(-4.70559e-05 -0.000133103 0.11948)
(0.000119073 2.52803e-05 0.120143)
(2.51472e-05 0.00011713 0.11991)
(-4.49519e-05 -3.55308e-05 0.108743)
(-1.26494e-05 -2.19349e-06 0.149548)
(-1.17868e-05 3.49459e-06 0.149614)
(-4.38659e-06 0.000129084 0.121796)
(-1.6254e-05 -0.00015428 0.115064)
(7.92536e-06 6.00585e-06 0.097274)
(-1.49821e-05 -3.89166e-05 0.106244)
(-8.77136e-07 0.000129745 0.115357)
(-1.03611e-06 1.39818e-05 0.106469)
(-1.06005e-05 -0.000162186 0.121667)
(0.000134602 -4.29487e-06 0.121321)
(-0.000165851 -7.21041e-06 0.11444)
(2.96776e-06 6.76015e-06 0.0968679)
(-3.7522e-05 1.27346e-06 0.105346)
(0.000132686 -1.2947e-06 0.11497)
(9.99594e-06 -1.47389e-06 0.105942)
(-0.00017497 -1.03483e-06 0.120881)
(0.000132573 -4.11792e-06 0.125197)
(9.96275e-06 -2.13396e-08 0.114145)
(-4.02581e-05 4.15173e-06 0.110828)
(-0.000167632 3.33396e-06 0.126603)
(1.22364e-05 -2.72107e-06 0.111497)
(0.000125747 -7.62217e-07 0.127151)
(-0.00017166 2.51154e-06 0.1247)
(0.000135002 9.53468e-06 0.121281)
(-0.000162895 1.21115e-05 0.114424)
(4.21545e-06 -6.39295e-07 0.0968866)
(-3.63986e-05 4.962e-06 0.105341)
(1.08921e-05 7.94826e-06 0.105938)
(0.000133079 6.66726e-06 0.114953)
(-0.000170984 6.0934e-06 0.120835)
(0.000130557 8.83785e-06 0.125166)
(1.00532e-05 5.05207e-06 0.114138)
(-0.000166488 1.80987e-06 0.126586)
(-3.9781e-05 1.82224e-06 0.110813)
(0.000125351 5.38943e-06 0.127135)
(1.16569e-05 8.51068e-06 0.111483)
(-0.00017117 2.75197e-06 0.124664)
(-3.35812e-06 -0.000128919 0.121856)
(-1.83286e-05 0.000160633 0.115073)
(1.09235e-05 -6.66999e-06 0.0972733)
(-1.29603e-05 4.26701e-05 0.10625)
(2.98306e-07 -0.000128798 0.115361)
(1.64416e-06 -1.47847e-05 0.106476)
(-1.09467e-05 0.000168174 0.121727)
(2.62888e-05 2.48335e-05 0.109181)
(0.000106344 0.00010976 0.129)
(-0.000140393 -4.10699e-05 0.119773)
(-4.90312e-05 -0.000133248 0.119464)
(-4.70423e-05 -3.57141e-05 0.108723)
(0.000117881 2.51089e-05 0.120133)
(2.32664e-05 0.000117625 0.119896)
(-4.57821e-05 -3.53394e-05 0.108734)
(-0.000135654 -0.00013213 0.128833)
(0.000117924 2.50268e-05 0.120136)
(2.40698e-05 0.000116984 0.119901)
(2.66873e-05 2.44832e-05 0.109193)
(-0.000139354 -4.11539e-05 0.119781)
(-4.81649e-05 -0.000133076 0.119472)
(-1.39152e-05 -8.8574e-06 0.14543)
(2.12148e-05 -1.30555e-05 0.134846)
(-1.28652e-05 1.94155e-05 0.135241)
(-0.000108078 -0.000101345 0.129045)
(-1.34189e-05 -9.56462e-06 0.145363)
(1.76698e-05 -1.17386e-05 0.134812)
(-9.51888e-06 1.67117e-05 0.135218)
(-0.000109535 -0.000104626 0.129037)
(-1.25765e-05 -1.0348e-05 0.145308)
(1.72705e-05 -1.00352e-05 0.134789)
(-8.06091e-06 1.51437e-05 0.135203)
(-0.000108464 -0.000106436 0.129035)
(-1.33826e-05 -1.29479e-05 0.145253)
(1.75814e-05 -1.06501e-05 0.134772)
(-8.36173e-06 1.56295e-05 0.135189)
(-0.000106859 -0.000106923 0.129032)
(-1.10724e-05 -1.29368e-05 0.145199)
(1.73112e-05 -1.09799e-05 0.134766)
(-7.79259e-06 1.41674e-05 0.135175)
(-0.000107384 -0.000108425 0.129033)
(-9.01435e-06 -9.87683e-06 0.145154)
(1.61035e-05 -8.85617e-06 0.134774)
(-6.86992e-06 1.26212e-05 0.13517)
(-0.000107805 -0.00010796 0.129047)
(-1.02639e-05 -9.64872e-06 0.145112)
(1.35154e-05 -7.00765e-06 0.134782)
(-6.22344e-06 1.16709e-05 0.13518)
(-0.000111089 -0.000108871 0.12907)
(-1.0571e-05 -8.95548e-06 0.145076)
(1.11752e-05 -6.48148e-06 0.13479)
(-5.4743e-06 1.03933e-05 0.135196)
(-0.000112747 -0.000110048 0.129095)
(-1.05329e-05 -8.11736e-06 0.145049)
(9.32554e-06 -5.39351e-06 0.134798)
(-4.05006e-06 9.2619e-06 0.135213)
(-0.000113535 -0.000110552 0.12912)
(-8.05032e-06 -7.26621e-06 0.145034)
(7.94124e-06 -4.97288e-06 0.134817)
(-2.9497e-06 6.40369e-06 0.135229)
(-0.000112431 -0.00011325 0.12914)
(-6.5704e-06 -7.18752e-06 0.14502)
(6.511e-06 -3.54112e-06 0.134839)
(-3.17086e-06 3.2345e-06 0.135242)
(-0.000112456 -0.000115411 0.129156)
(-5.75057e-06 -6.56981e-06 0.145011)
(4.98916e-06 -2.66739e-06 0.134859)
(-2.64423e-06 2.13512e-06 0.135256)
(-0.00011412 -0.000114737 0.129171)
(-5.36646e-06 -5.44286e-06 0.145009)
(2.40264e-06 -2.76274e-06 0.134878)
(-2.09819e-06 1.17803e-06 0.13527)
(-0.000116074 -0.000114481 0.129181)
(-4.56976e-06 -3.73244e-06 0.145011)
(2.02925e-06 -2.82747e-06 0.134896)
(-1.42846e-06 1.2651e-06 0.135281)
(-0.000116862 -0.000115442 0.129186)
(-3.16015e-06 -3.63452e-06 0.145014)
(1.94793e-06 -1.23452e-06 0.13491)
(3.25514e-07 5.91523e-07 0.135294)
(-0.000115186 -0.00011534 0.129193)
(-1.33051e-06 -2.2928e-06 0.145019)
(2.46856e-06 -1.72168e-06 0.134923)
(2.7857e-07 -6.4529e-07 0.1353)
(-0.000115587 -0.000115854 0.129196)
(-6.32795e-07 -3.4311e-07 0.145021)
(2.04134e-06 -2.17878e-07 0.134929)
(1.81363e-06 -1.17369e-06 0.135303)
(-0.000118109 -0.000115832 0.129199)
(-1.14646e-05 -1.60813e-05 0.135241)
(8.23518e-06 -1.90164e-05 0.13524)
(-8.85492e-06 -1.47786e-05 0.135223)
(5.86797e-06 -1.56358e-05 0.135224)
(-0.000107337 0.000105112 0.129005)
(0.000132384 -0.000133673 0.128835)
(-2.30098e-05 -8.01032e-06 0.134827)
(-2.18701e-05 1.13703e-05 0.134809)
(-2.02568e-05 -8.16028e-06 0.134812)
(-1.91551e-05 9.97049e-06 0.134797)
(1.98077e-05 1.66692e-05 0.134897)
(1.75001e-05 -1.13649e-05 0.134817)
(1.60726e-05 1.30559e-05 0.134868)
(0.000104179 -0.000105137 0.128998)
(-0.000134521 0.000134758 0.12882)
(8.53247e-06 2.27809e-05 0.135283)
(-9.9129e-06 1.66087e-05 0.135221)
(6.2561e-06 1.85999e-05 0.135265)
(0.000133435 0.000138663 0.128867)
(0.000107416 0.000108497 0.129003)
(-0.000132045 -0.000131633 0.128845)
(-8.83726e-06 -1.46184e-05 0.135218)
(6.22584e-06 -1.62341e-05 0.135223)
(-7.91141e-06 -1.46593e-05 0.135209)
(5.84572e-06 -1.51286e-05 0.135214)
(-0.000108971 0.000107035 0.129001)
(0.000131221 -0.000132315 0.12884)
(-1.94707e-05 -8.93682e-06 0.134807)
(-1.93775e-05 1.06504e-05 0.134796)
(-1.8045e-05 -8.87666e-06 0.134798)
(-1.77177e-05 9.15002e-06 0.134788)
(1.6657e-05 1.274e-05 0.134863)
(1.67257e-05 -1.02601e-05 0.134793)
(1.61475e-05 1.0708e-05 0.134844)
(0.000107276 -0.000105965 0.128988)
(-0.000132179 0.000132415 0.128822)
(6.97187e-06 1.87431e-05 0.135263)
(-7.9325e-06 1.49751e-05 0.135205)
(6.28199e-06 1.62842e-05 0.135253)
(0.00013264 0.000135043 0.128867)
(0.000108266 0.000107276 0.129014)
(-0.000130443 -0.000133088 0.128851)
(-8.52377e-06 -1.46456e-05 0.135208)
(6.9148e-06 -1.54104e-05 0.135212)
(-7.58563e-06 -1.59694e-05 0.135206)
(6.27781e-06 -1.54407e-05 0.135201)
(-0.000108066 0.000106656 0.129005)
(0.000130124 -0.000132268 0.128845)
(-1.78754e-05 -9.66109e-06 0.134796)
(-1.7786e-05 9.07201e-06 0.134787)
(-1.77062e-05 -1.08272e-05 0.134793)
(-1.70301e-05 8.09531e-06 0.134778)
(1.69593e-05 1.08988e-05 0.13484)
(1.71464e-05 -1.01812e-05 0.134774)
(1.68617e-05 8.81796e-06 0.134826)
(0.00010775 -0.000106777 0.128989)
(-0.000131171 0.00013139 0.128822)
(6.60818e-06 1.62723e-05 0.135252)
(-8.06484e-06 1.52705e-05 0.135191)
(7.72596e-06 1.5798e-05 0.135242)
(0.000132826 0.000132978 0.128865)
(0.000108219 0.000104186 0.129017)
(-0.000128928 -0.000131589 0.128853)
(-7.85596e-06 -1.65095e-05 0.135205)
(7.15848e-06 -1.61659e-05 0.1352)
(-5.73634e-06 -1.6265e-05 0.135203)
(7.95264e-06 -1.58831e-05 0.135197)
(-0.000108125 0.000105295 0.12901)
(0.000130148 -0.000131391 0.128854)
(-1.79919e-05 -1.22571e-05 0.134791)
(-1.7433e-05 8.83207e-06 0.134775)
(-1.66284e-05 -1.16374e-05 0.134785)
(-1.62899e-05 8.96723e-06 0.134764)
(1.73475e-05 8.84203e-06 0.134823)
(1.71174e-05 -1.07844e-05 0.134765)
(1.70315e-05 7.44487e-06 0.134812)
(0.000107356 -0.000106202 0.128989)
(-0.000130116 0.000130654 0.128825)
(8.24744e-06 1.61334e-05 0.135241)
(-7.69511e-06 1.43875e-05 0.135177)
(8.30745e-06 1.42846e-05 0.135231)
(0.000131776 0.000130802 0.128866)
(0.0001095 0.000106135 0.129019)
(-0.000127451 -0.000127066 0.128863)
(-5.93074e-06 -1.57575e-05 0.135202)
(8.84569e-06 -1.59084e-05 0.135199)
(-4.9108e-06 -1.33938e-05 0.135202)
(8.06902e-06 -1.32231e-05 0.135204)
(-0.000107071 0.000105822 0.129018)
(0.000129314 -0.000128299 0.128871)
(-1.56678e-05 -1.09231e-05 0.134783)
(-1.60277e-05 8.8816e-06 0.134762)
(-1.3391e-05 -7.29678e-06 0.134779)
(-1.38662e-05 7.19063e-06 0.134756)
(1.7028e-05 7.60825e-06 0.134812)
(1.64992e-05 -9.37659e-06 0.13477)
(1.57843e-05 7.11633e-06 0.134807)
(0.000108056 -0.000106692 0.128992)
(-0.000127522 0.000127691 0.128836)
(8.54351e-06 1.42416e-05 0.135231)
(-6.76256e-06 1.26131e-05 0.135169)
(7.92488e-06 1.2549e-05 0.135226)
(0.000130531 0.000129984 0.128879)
(0.000110283 0.000109869 0.129029)
(-0.000126612 -0.000125149 0.128884)
(-5.11837e-06 -1.2306e-05 0.135203)
(7.76563e-06 -1.28379e-05 0.135207)
(-5.47196e-06 -1.03585e-05 0.135208)
(5.53887e-06 -1.08977e-05 0.135214)
(-0.000108384 0.000108658 0.129036)
(0.000126171 -0.00012699 0.128887)
(-1.29963e-05 -7.26508e-06 0.134779)
(-1.39677e-05 7.38981e-06 0.134757)
(-1.2552e-05 -6.54347e-06 0.134782)
(-1.24574e-05 6.62378e-06 0.134761)
(1.58354e-05 8.185e-06 0.134809)
(1.41479e-05 -7.40093e-06 0.134779)
(1.29645e-05 7.78767e-06 0.134809)
(0.000109997 -0.000108973 0.129003)
(-0.00012663 0.000126642 0.128853)
(7.81876e-06 1.29259e-05 0.135228)
(-6.04982e-06 1.15384e-05 0.135175)
(5.80367e-06 1.20665e-05 0.135227)
(0.000127231 0.000129298 0.128901)
(0.00011087 0.000111347 0.129051)
(-0.000125799 -0.000123395 0.128908)
(-6.18604e-06 -9.95064e-06 0.13521)
(5.58552e-06 -1.10682e-05 0.135218)
(-6.32649e-06 -9.15191e-06 0.13522)
(4.3049e-06 -9.92644e-06 0.135223)
(-0.00011076 0.000109365 0.12905)
(0.000124789 -0.000125201 0.128905)
(-1.2266e-05 -6.82314e-06 0.134784)
(-1.26483e-05 7.15199e-06 0.134765)
(-1.17477e-05 -4.9648e-06 0.134796)
(-1.13222e-05 5.65226e-06 0.134776)
(1.24723e-05 7.77952e-06 0.134812)
(1.12342e-05 -6.37575e-06 0.134787)
(1.02654e-05 6.76711e-06 0.13482)
(0.000110353 -0.000109518 0.129021)
(-0.000124536 0.00012484 0.128875)
(5.71025e-06 1.22067e-05 0.135231)
(-5.76282e-06 1.05984e-05 0.13519)
(4.12538e-06 1.06644e-05 0.135241)
(0.000124757 0.000127349 0.128927)
(0.00011146 0.000112881 0.129074)
(-0.00012425 -0.000122119 0.128929)
(-6.73907e-06 -8.97609e-06 0.135225)
(4.74022e-06 -9.69396e-06 0.135226)
(-5.44231e-06 -7.26803e-06 0.135241)
(4.02393e-06 -7.39561e-06 0.135232)
(-0.000111783 0.000110941 0.129069)
(0.000124514 -0.00012445 0.128927)
(-1.16715e-05 -4.98944e-06 0.134801)
(-1.0941e-05 5.53994e-06 0.134782)
(-1.05638e-05 -2.62823e-06 0.134818)
(-9.31227e-06 4.9731e-06 0.134795)
(1.02945e-05 7.30079e-06 0.134827)
(9.57559e-06 -5.73701e-06 0.134793)
(9.07154e-06 7.51247e-06 0.13484)
(0.000112096 -0.000110759 0.129042)
(-0.000123202 0.000124463 0.128897)
(3.87202e-06 1.07787e-05 0.135248)
(-4.05569e-06 9.25261e-06 0.135207)
(2.5734e-06 9.61897e-06 0.135263)
(0.000123926 0.000127226 0.128952)
(0.000113059 0.000113696 0.129095)
(-0.000121275 -0.000122694 0.128951)
(-4.88232e-06 -6.5271e-06 0.135245)
(4.14638e-06 -7.0864e-06 0.135237)
(-1.96397e-06 -5.75545e-06 0.135259)
(2.75245e-06 -5.57572e-06 0.135247)
(-0.000111788 0.000111462 0.129091)
(0.000123026 -0.000123719 0.12895)
(-9.73722e-06 -2.78225e-06 0.134823)
(-9.26657e-06 5.44853e-06 0.1348)
(-7.40049e-06 -3.30926e-06 0.134838)
(-7.6962e-06 4.09935e-06 0.134814)
(8.73529e-06 6.98597e-06 0.134847)
(8.01405e-06 -4.73048e-06 0.13481)
(7.69821e-06 4.44757e-06 0.134859)
(0.000112979 -0.00011088 0.129063)
(-0.000122568 0.000122356 0.128915)
(2.62021e-06 9.39002e-06 0.13527)
(-2.9349e-06 6.97569e-06 0.135224)
(3.54082e-06 7.642e-06 0.135284)
(0.000124977 0.000124833 0.128972)
(0.000115937 0.000113099 0.129117)
(-0.000121055 -0.000122599 0.128975)
(-1.8512e-06 -5.9155e-06 0.135263)
(2.56727e-06 -5.67234e-06 0.135253)
(-9.79267e-07 -5.47962e-06 0.135281)
(1.50231e-06 -5.07356e-06 0.135269)
(-0.000113834 0.000112292 0.129115)
(0.000121057 -0.000122945 0.128971)
(-6.99921e-06 -4.51733e-06 0.134842)
(-7.70775e-06 4.21761e-06 0.13482)
(-5.97186e-06 -4.74345e-06 0.134859)
(-6.7174e-06 1.58235e-06 0.134831)
(7.78049e-06 3.60577e-06 0.134865)
(6.5081e-06 -4.29999e-06 0.134833)
(6.63719e-06 4.99904e-07 0.134878)
(0.000113498 -0.000113334 0.129081)
(-0.000123394 0.000120126 0.128933)
(3.97833e-06 7.19813e-06 0.13529)
(-3.15683e-06 3.65764e-06 0.135237)
(4.55953e-06 4.93473e-06 0.135301)
(0.00012481 0.000121949 0.128989)
(0.000115578 0.000113209 0.129141)
(-0.000122012 -0.000122145 0.129)
(-1.6679e-06 -5.11474e-06 0.135286)
(2.25177e-06 -5.11448e-06 0.135276)
(-1.90606e-06 -3.64252e-06 0.135306)
(1.26698e-06 -3.14862e-06 0.135289)
(-0.000114877 0.000112918 0.129134)
(0.000121372 -0.000121394 0.128986)
(-5.81387e-06 -5.00423e-06 0.134864)
(-6.60168e-06 1.33084e-06 0.134837)
(-5.05836e-06 -3.38147e-06 0.134884)
(-5.32379e-06 4.70885e-07 0.134851)
(6.6934e-06 3.17397e-07 0.134885)
(5.45733e-06 -2.56166e-06 0.134853)
(5.25902e-06 5.42714e-07 0.134897)
(0.000112531 -0.000115072 0.129098)
(-0.000121563 0.000119563 0.128952)
(4.44095e-06 4.68311e-06 0.135307)
(-2.33566e-06 1.88072e-06 0.135251)
(2.47027e-06 2.7273e-06 0.135317)
(0.000122687 0.000121773 0.129005)
(0.000115471 0.000114165 0.129165)
(-0.000120363 -0.000120805 0.129019)
(-2.08907e-06 -3.40346e-06 0.135312)
(9.15674e-07 -3.0612e-06 0.135295)
(-9.65539e-07 -2.55847e-06 0.135332)
(-1.30015e-06 -1.66188e-06 0.135307)
(-0.000115161 0.000114354 0.12915)
(0.000118983 -0.000121308 0.129001)
(-4.73795e-06 -3.61351e-06 0.13489)
(-5.38867e-06 1.15201e-06 0.134857)
(-3.71374e-06 -2.70799e-06 0.134909)
(-4.08871e-06 1.23832e-06 0.134869)
(5.34911e-06 1.29911e-06 0.134904)
(2.5866e-06 -2.58691e-06 0.134872)
(3.97218e-06 1.58661e-06 0.134913)
(0.000114554 -0.000115454 0.129117)
(-0.00012074 0.000120565 0.12897)
(2.49347e-06 2.99537e-06 0.135323)
(-1.88937e-06 1.14788e-06 0.135265)
(4.93348e-07 2.06807e-06 0.135331)
(0.000121145 0.000122769 0.129015)
(0.000116455 0.000114958 0.129183)
(-0.000119994 -0.000120815 0.129031)
(-9.2201e-07 -2.14262e-06 0.135337)
(-1.15098e-06 -1.66802e-06 0.135313)
(3.21492e-07 -1.68438e-06 0.135352)
(-1.81441e-06 -4.89897e-07 0.135323)
(-0.000116748 0.000113919 0.129164)
(0.000119227 -0.000121469 0.129016)
(-3.6673e-06 -2.67772e-06 0.134913)
(-3.84897e-06 1.2634e-06 0.134874)
(-3.12229e-06 -2.04212e-06 0.134927)
(-2.55986e-06 6.63443e-07 0.134884)
(3.57739e-06 1.48627e-06 0.134919)
(1.73377e-06 -2.90738e-06 0.13489)
(1.56685e-06 1.67429e-07 0.134926)
(0.000114846 -0.000114108 0.129136)
(-0.000119254 0.000119564 0.128984)
(-5.54555e-09 2.04676e-06 0.135336)
(-1.34419e-06 7.13328e-07 0.135277)
(-1.0291e-06 1.07818e-06 0.135341)
(0.000119825 0.000121488 0.129021)
(0.000117105 0.000115013 0.129194)
(-0.000120269 -0.000121898 0.129035)
(3.40268e-07 -1.63174e-06 0.135355)
(-1.13662e-06 -8.89419e-07 0.135329)
(1.15884e-06 -1.16138e-06 0.135365)
(-8.41914e-07 -3.2249e-07 0.135338)
(-0.000116867 0.000114097 0.129179)
(0.000119718 -0.000120917 0.129024)
(-3.10187e-06 -2.62295e-06 0.134931)
(-2.70236e-06 1.16607e-06 0.134888)
(-1.98539e-06 -1.85713e-06 0.134941)
(-1.8666e-06 -1.77579e-07 0.134897)
(1.12149e-06 -3.25627e-07 0.134931)
(1.69705e-06 -1.47353e-06 0.134906)
(1.25835e-06 -6.24618e-07 0.134936)
(0.000116123 -0.000114942 0.129148)
(-0.000118907 0.000119532 0.128989)
(-1.04294e-06 7.7335e-07 0.135344)
(-2.29272e-07 7.88268e-07 0.135289)
(-1.66944e-07 -1.84479e-07 0.135348)
(0.000121326 0.000121518 0.129028)
(0.000116795 0.000114234 0.129198)
(-0.000120444 -0.000120781 0.129038)
(7.39818e-07 -1.35792e-06 0.135367)
(-4.90666e-07 -4.32877e-07 0.135342)
(1.39617e-06 -3.7435e-07 0.135374)
(-7.7286e-07 4.97885e-07 0.135346)
(-0.000115681 0.000114446 0.129185)
(0.000121195 -0.000120696 0.129028)
(-1.83804e-06 -1.79662e-06 0.134942)
(-1.60241e-06 -2.70783e-07 0.134901)
(-1.18428e-06 -1.37644e-06 0.134949)
(-7.68231e-07 -5.74987e-07 0.134904)
(1.93187e-06 -5.06478e-07 0.134941)
(2.29313e-06 -1.62723e-06 0.134918)
(1.61899e-06 -1.17091e-06 0.134944)
(0.000116617 -0.000115114 0.129152)
(-0.000118889 0.000118623 0.12899)
(3.26858e-07 5.98715e-08 0.135351)
(8.76132e-07 -5.57225e-07 0.135298)
(-1.65352e-07 -1.15257e-06 0.135353)
(0.000121181 0.000120789 0.129031)
(0.000116132 0.000114834 0.1292)
(-0.000121435 -0.000119623 0.129041)
(1.13098e-06 -1.55503e-07 0.135375)
(-4.02413e-07 3.3501e-07 0.13535)
(5.25356e-07 1.04661e-06 0.135378)
(-1.09665e-06 6.64677e-07 0.13535)
(-0.000115181 0.000114968 0.12919)
(0.000120374 -0.000120154 0.129029)
(-1.55253e-06 -2.08953e-06 0.13495)
(-1.15578e-06 -6.27642e-07 0.134904)
(-1.41984e-06 -7.9656e-07 0.134954)
(6.82114e-08 -1.02332e-06 0.134906)
(1.67379e-06 -9.8135e-07 0.134948)
(2.02575e-06 -1.65749e-06 0.134926)
(-6.77636e-08 -9.69618e-07 0.134948)
(0.000116231 -0.000115692 0.129152)
(-0.000117939 0.000118601 0.128991)
(-1.38819e-07 -8.57564e-07 0.135356)
(1.75282e-06 -1.52038e-06 0.135301)
(-1.69547e-06 -1.15675e-06 0.135356)
(0.000118335 0.000120429 0.129034)
(0.000115094 0.000116346 0.129203)
(-8.05792e-07 5.84035e-07 0.135376)
(-3.72046e-07 4.84315e-07 0.135353)
(-0.000115048 0.000115479 0.129189)
(-1.98222e-06 -6.62286e-07 0.134953)
(1.55621e-07 -9.18677e-07 0.134905)
(-5.51971e-07 -8.1965e-07 0.134951)
(-5.01671e-07 1.14039e-06 0.134952)
(0.000117288 -0.000115818 0.129151)
(-2.26288e-06 -1.33038e-06 0.13536)
(-1.7003e-06 -1.77373e-07 0.135362)
(0.000117684 0.000120803 0.129042)
(2.70688e-07 -3.15362e-05 0.0947603)
(2.84994e-06 1.22794e-05 0.069214)
(-2.66686e-07 1.54588e-05 0.0949657)
(-9.88336e-06 -1.60458e-05 0.0690992)
(-3.07049e-06 6.6079e-07 0.0590655)
(1.11357e-05 -2.42535e-06 0.0589639)
(-2.31649e-05 3.87907e-06 0.0937317)
(3.59387e-06 -1.65886e-06 0.0689841)
(3.12262e-06 1.13026e-06 0.0943525)
(-1.64996e-05 3.5521e-06 0.0686889)
(1.01474e-05 -1.11826e-05 0.145448)
(-1.40297e-05 1.28009e-05 0.145427)
(1.03876e-05 1.52578e-05 0.145487)
(-1.33899e-05 -9.2726e-06 0.145378)
(7.69147e-06 -1.00864e-05 0.145392)
(-1.27706e-05 1.11328e-05 0.145376)
(7.80728e-06 1.38434e-05 0.145434)
(3.72537e-05 1.49019e-06 0.113436)
(-2.02847e-06 4.59105e-06 0.0969026)
(2.27605e-05 -3.8198e-06 0.140343)
(1.98692e-05 -1.16493e-05 0.134834)
(2.39585e-05 -1.10812e-05 0.0963867)
(2.23107e-05 -3.48752e-06 0.140323)
(-9.82559e-06 -1.9854e-06 0.114136)
(-4.56253e-06 3.45357e-06 0.0590279)
(-3.62578e-06 1.36239e-06 0.0588207)
(-2.49066e-06 4.52344e-05 0.114656)
(-6.62023e-06 2.19877e-05 0.140974)
(1.10604e-05 -6.26249e-06 0.0972855)
(-1.12212e-05 1.8331e-05 0.135232)
(-6.39947e-06 2.10643e-05 0.140958)
(-2.25492e-05 2.72098e-05 0.0970381)
(-2.21883e-06 -1.7029e-05 0.114866)
(9.47529e-06 -2.867e-07 0.0819237)
(-1.27024e-05 9.18453e-06 0.0820825)
(0.000134663 0.00014074 0.12887)
(6.56127e-06 7.53772e-06 0.081525)
(1.60469e-05 6.39464e-06 0.0818366)
(-1.87001e-07 -2.91308e-05 0.0947816)
(8.09664e-07 1.50031e-05 0.0692346)
(2.0416e-07 2.27313e-05 0.0949842)
(-8.00944e-06 -1.58256e-05 0.0691151)
(-2.04697e-06 2.23162e-06 0.0591036)
(1.03141e-05 -1.25553e-06 0.0589989)
(-1.88449e-05 6.64479e-07 0.0937713)
(6.94168e-06 -5.23837e-06 0.0690299)
(6.23626e-06 -2.254e-06 0.0943979)
(-1.27688e-05 4.59104e-09 0.0687308)
(8.02713e-06 -1.06034e-05 0.14538)
(-1.30434e-05 1.08019e-05 0.145365)
(8.41739e-06 1.41578e-05 0.145421)
(-1.29401e-05 -1.03616e-05 0.145324)
(8.38686e-06 -1.07474e-05 0.145323)
(-1.25468e-05 1.02501e-05 0.14532)
(9.28819e-06 1.33543e-05 0.145375)
(3.41699e-05 3.97992e-07 0.113476)
(-7.67233e-06 2.97559e-06 0.0969464)
(2.05623e-05 -3.20494e-06 0.140285)
(1.75036e-05 -1.09832e-05 0.134804)
(-1.3837e-05 -3.35398e-06 0.114173)
(1.98813e-05 -1.18193e-05 0.0964287)
(2.11309e-05 -3.75865e-06 0.140266)
(-2.30479e-06 3.30207e-06 0.0590734)
(-1.22849e-06 1.68145e-06 0.058855)
(-1.93502e-06 4.26643e-05 0.114687)
(-5.16071e-06 1.86429e-05 0.140935)
(1.38638e-05 -9.27727e-06 0.0973279)
(-8.54016e-06 1.66037e-05 0.135213)
(-1.80539e-06 -2.0691e-05 0.114895)
(-4.65457e-06 1.90452e-05 0.140925)
(-2.06869e-05 2.43052e-05 0.0970816)
(6.63283e-06 -1.86393e-06 0.0819655)
(-1.2993e-05 7.26924e-06 0.0821228)
(0.0001328 0.000136938 0.128867)
(3.82391e-06 6.68117e-06 0.0815628)
(1.59866e-05 4.00463e-06 0.0818759)
(-1.69332e-06 -3.07667e-05 0.0948131)
(3.05281e-06 1.34437e-05 0.0692559)
(-1.00847e-06 2.09702e-05 0.0950129)
(-6.8679e-06 -1.71446e-05 0.069144)
(-4.26645e-06 6.88325e-07 0.0591353)
(6.79456e-06 -4.66306e-06 0.0590284)
(-1.91063e-05 -1.91187e-06 0.0938048)
(9.01144e-06 -7.8167e-06 0.0690667)
(7.65292e-06 -4.46192e-06 0.0944318)
(-1.15654e-05 -2.5082e-06 0.0687667)
(8.97056e-06 -1.1302e-05 0.145311)
(-1.30602e-05 1.06241e-05 0.14531)
(1.00024e-05 1.33881e-05 0.145365)
(-1.37897e-05 -1.2659e-05 0.145269)
(1.17643e-05 -1.34093e-05 0.145262)
(-1.34733e-05 1.11554e-05 0.145269)
(1.1258e-05 1.27867e-05 0.145323)
(3.51873e-05 2.71508e-07 0.113515)
(-7.96174e-06 2.86238e-06 0.0969876)
(2.12974e-05 -3.42483e-06 0.140237)
(1.76964e-05 -9.96104e-06 0.134783)
(-1.42282e-05 -3.35662e-06 0.114213)
(2.08412e-05 -1.29125e-05 0.0964707)
(2.17621e-05 -3.21615e-06 0.140223)
(-1.64607e-06 2.58394e-06 0.0590995)
(-1.53405e-06 6.15528e-07 0.0588812)
(-1.65778e-06 4.22142e-05 0.114714)
(-3.18222e-06 1.81416e-05 0.140907)
(1.39096e-05 -1.09358e-05 0.097367)
(-7.61407e-06 1.52217e-05 0.135198)
(-1.16166e-06 -2.17543e-05 0.114925)
(-2.94464e-06 1.81732e-05 0.140898)
(-2.05277e-05 2.37911e-05 0.0971188)
(5.83754e-06 -2.48915e-06 0.0820039)