/*--------------------------------*- C++ -*----------------------------------*\
| =========                 |                                                 |
| \\      /  F ield         | OpenFOAM: The Open Source CFD Toolbox           |
|  \\    /   O peration     | Version:  2206                                  |
|   \\  /    A nd           | Website:  www.openfoam.com                      |
|    \\/     M anipulation  |                                                 |
\*---------------------------------------------------------------------------*/
FoamFile
{
    version     2.0;
    format      ascii;
    arch        "LSB;label=32;scalar=64";
    class       volVectorField;
    location    "149";
    object      wallShearStress;
}
// * * * * * * * * * * * * * * * * * * * * * * * * * * * * * * * * * * * * * //

dimensions      [0 2 -2 0 0 0 0];

internalField   uniform (0 0 0);

boundaryField
{
    topPatch
    {
        type            calculated;
        value           nonuniform List<vector> 0();
    }
    wall
    {
        type            calculated;
        value           nonuniform List<vector> 
7746
(
(3.42069e-08 -1.57625e-08 -0.000109308)
(5.87172e-09 -1.21908e-08 -0.000109278)
(2.81943e-08 -6.40397e-09 -0.000102892)
(6.65964e-09 -1.29643e-08 -0.000102869)
(3.24801e-09 2.36902e-09 -0.000102937)
(1.40333e-09 3.89046e-09 -0.000109355)
(1.88089e-08 9.07461e-09 -0.000109299)
(2.17577e-08 2.99635e-09 -0.000102861)
(3.57585e-09 -3.06905e-09 -0.000109395)
(3.63339e-08 -1.71356e-08 -0.000109338)
(4.7587e-09 -4.21013e-09 -0.00010952)
(1.94673e-09 -3.84811e-09 -0.000109344)
(2.69808e-08 -1.24912e-08 -0.000109368)
(1.63896e-10 -8.5781e-10 -0.000109433)
(-1.94634e-09 3.26314e-09 -0.000109392)
(2.35171e-11 3.644e-09 -0.000109575)
(-6.02567e-09 3.23073e-09 -0.000109373)
(-1.59948e-08 5.33145e-09 -0.000102909)
(1.49944e-08 7.2022e-09 -0.000103344)
(-1.19523e-08 -6.77412e-09 -0.00010343)
(1.64413e-08 1.2732e-08 -0.00010841)
(-1.50032e-08 -1.39114e-08 -0.000108548)
(-1.27318e-08 -7.0771e-09 -0.000109368)
(-9.62002e-09 -1.80038e-10 -0.000102869)
(3.77139e-08 -1.81564e-08 -0.00010932)
(3.30882e-09 -2.64038e-09 -0.000109411)
(4.55302e-09 -9.02503e-09 -0.000109315)
(2.54869e-09 -7.66072e-10 -0.000109545)
(-4.52219e-09 1.7526e-09 -0.000109446)
(3.18151e-08 -1.51702e-08 -0.000109351)
(-1.8174e-09 7.35839e-09 -0.000109596)
(-2.73046e-10 -1.59749e-10 -0.000109366)
(3.39275e-09 -3.59204e-09 -0.000102937)
(3.4661e-08 -9.7878e-09 -0.000102919)
(2.0053e-09 9.0185e-11 -0.000109397)
(-3.07408e-08 -1.35963e-08 -0.000109336)
(2.08396e-09 -4.00907e-09 -0.000103077)
(3.16993e-09 -4.26776e-09 -0.000102928)
(1.15249e-09 -3.01507e-09 -0.000109596)
(1.29466e-09 2.08614e-09 -0.000109432)
(-8.0093e-09 5.49365e-10 -0.000102971)
(1.83666e-08 -3.30313e-09 -0.000102949)
(7.70434e-09 3.21117e-09 -0.000109476)
(-2.37441e-08 -1.08114e-08 -0.000109408)
(-3.92069e-09 1.15988e-08 -0.000103181)
(-1.23018e-09 6.72094e-09 -0.000103013)
(-1.50191e-09 -7.12843e-09 -0.000109714)
(-4.72144e-10 -9.7769e-10 -0.000109521)
(-1.02453e-08 1.01057e-09 -0.000103002)
(2.08584e-08 -4.98499e-09 -0.000102985)
(1.86451e-08 8.78425e-09 -0.000109531)
(-1.35081e-08 -4.9094e-09 -0.000109459)
(-5.85899e-09 1.52942e-08 -0.000103239)
(-3.62076e-09 9.81083e-09 -0.000103055)
(-4.28597e-10 -3.63255e-09 -0.000109766)
(1.02523e-09 3.39421e-09 -0.00010956)
(-1.21261e-08 1.43255e-09 -0.00010305)
(1.41062e-08 -1.72212e-09 -0.000103049)
(1.74613e-08 7.97402e-09 -0.000109583)
(-1.83811e-08 -8.08914e-09 -0.000109519)
(-4.6873e-09 1.18146e-08 -0.000103281)
(1.38412e-09 -1.07753e-09 -0.000103113)
(1.72294e-09 8.22346e-10 -0.000109807)
(2.80207e-09 5.93265e-09 -0.000109615)
(-2.03776e-08 5.99421e-09 -0.000103147)
(1.16279e-08 -3.81968e-10 -0.000103149)
(1.64395e-08 8.17701e-09 -0.000109672)
(-1.84879e-08 -6.73253e-09 -0.000109618)
(1.27906e-09 -1.23204e-09 -0.000103371)
(4.23819e-09 -7.0817e-09 -0.000103205)
(4.24592e-10 -2.36418e-09 -0.000109892)
(3.68155e-10 7.79783e-10 -0.000109712)
(-1.45078e-08 3.12459e-09 -0.000103224)
(1.71499e-08 -3.08574e-09 -0.00010321)
(1.39556e-08 6.56344e-09 -0.000109762)
(-1.90323e-08 -8.04224e-09 -0.000109696)
(-1.18695e-09 3.03021e-09 -0.000103445)
(1.36891e-09 -2.25849e-09 -0.000103269)
(-2.21839e-09 -7.46891e-09 -0.000109986)
(-1.69745e-09 -2.23836e-09 -0.000109792)
(-1.40717e-08 2.77078e-09 -0.000103266)
(1.57445e-08 -2.60211e-09 -0.000103247)
(2.10117e-08 1.01518e-08 -0.000109812)
(-1.41483e-08 -5.3693e-09 -0.00010973)
(-1.60729e-09 4.65064e-09 -0.0001035)
(2.32738e-09 -3.95148e-09 -0.000103321)
(-1.24591e-09 -5.47644e-09 -0.000110044)
(3.37981e-10 1.00033e-09 -0.000109843)
(-1.48234e-08 2.8361e-09 -0.000103297)
(1.51902e-08 -2.71235e-09 -0.000103274)
(1.65167e-08 7.6112e-09 -0.000109838)
(-1.67507e-08 -7.43538e-09 -0.00010976)
(5.25523e-10 -1.85068e-09 -0.000103539)
(4.32399e-09 -9.32248e-09 -0.000103352)
(-1.22916e-09 -5.11764e-09 -0.000110085)
(-1.13912e-09 -3.48471e-10 -0.000109876)
(-1.69778e-08 3.82308e-09 -0.000103319)
(1.17961e-08 -9.72335e-10 -0.000103291)
(2.368e-08 1.17472e-08 -0.000109871)
(-1.06712e-08 -3.19808e-09 -0.000109788)
(2.25624e-10 -6.50971e-10 -0.000103565)
(2.62275e-09 -4.28782e-09 -0.000103376)
(-1.65259e-09 -5.09392e-09 -0.000110112)
(9.26788e-10 2.76917e-09 -0.000109901)
(-1.86348e-08 4.80044e-09 -0.000103328)
(1.37544e-08 -2.07195e-09 -0.0001033)
(2.08287e-08 1.00834e-08 -0.000109893)
(-1.36545e-08 -6.35359e-09 -0.000109813)
(-1.80864e-09 5.41027e-09 -0.000103582)
(1.0968e-09 -1.77725e-09 -0.000103391)
(3.3879e-09 3.33074e-09 -0.000110132)
(4.64132e-09 9.9518e-09 -0.000109919)
(-1.5241e-08 2.80483e-09 -0.000103344)
(1.59296e-08 -2.86973e-09 -0.000103321)
(2.17438e-08 9.79328e-09 -0.000109924)
(-1.50704e-08 -6.27632e-09 -0.000109844)
(-1.32864e-09 1.81105e-09 -0.000103598)
(2.89906e-09 -7.27208e-09 -0.000103409)
(1.99002e-09 1.91548e-09 -0.000110143)
(1.73785e-09 5.53355e-09 -0.000109924)
(-1.58345e-08 3.51695e-09 -0.000103364)
(1.43272e-08 -1.6091e-09 -0.000103335)
(1.99479e-08 9.04552e-09 -0.000109953)
(-1.2854e-08 -4.76741e-09 -0.000109867)
(8.14738e-11 2.88532e-10 -0.000103613)
(2.78044e-09 -5.04543e-09 -0.000103416)
(5.77203e-10 -1.46968e-09 -0.000110144)
(2.91702e-10 1.88185e-09 -0.000109927)
(-1.61821e-08 2.7979e-09 -0.000103376)
(1.3792e-08 -2.68454e-09 -0.000103352)
(2.72229e-08 1.25803e-08 -0.000109961)
(-7.98813e-09 -2.90102e-09 -0.000109875)
(-1.46042e-09 1.75408e-09 -0.000103608)
(1.74502e-09 -4.99684e-09 -0.000103413)
(-2.18616e-09 -6.22554e-09 -0.000110153)
(-7.22511e-10 6.79916e-10 -0.00010994)
(-1.69091e-08 4.13374e-09 -0.000103388)
(1.33412e-08 -1.70175e-09 -0.000103356)
(2.21934e-08 1.08509e-08 -0.000109971)
(-1.45733e-08 -6.21074e-09 -0.000109883)
(-1.45673e-09 4.56783e-09 -0.00010361)
(1.7089e-09 -1.9453e-09 -0.000103414)
(1.43787e-09 -8.85318e-10 -0.000110165)
(2.14509e-09 5.33889e-09 -0.000109949)
(-1.75511e-08 3.85686e-09 -0.000103394)
(1.50586e-08 -2.57402e-09 -0.000103371)
(1.89014e-08 8.42341e-09 -0.000109978)
(-1.86438e-08 -8.08481e-09 -0.000109894)
(-9.73826e-10 1.69158e-09 -0.000103617)
(2.76082e-09 -6.76459e-09 -0.000103428)
(-7.62435e-10 -3.24486e-09 -0.000110174)
(1.24409e-10 2.25204e-09 -0.000109958)
(-1.28077e-08 1.82509e-09 -0.000103414)
(1.73491e-08 -4.24016e-09 -0.000103385)
(1.3813e-08 5.87525e-09 -0.000109997)
(-1.90308e-08 -8.80081e-09 -0.000109911)
(-1.68673e-10 7.54837e-10 -0.000103633)
(2.82758e-09 -6.48563e-09 -0.000103439)
(-2.68871e-10 -2.44941e-09 -0.000110181)
(-2.21806e-10 1.78682e-09 -0.000109962)
(-1.19809e-08 1.33901e-09 -0.000103424)
(1.93223e-08 -4.84899e-09 -0.000103397)
(1.43754e-08 6.30952e-09 -0.000110004)
(-1.97041e-08 -8.68151e-09 -0.000109912)
(1.15314e-09 -3.76699e-09 -0.000103639)
(4.65803e-09 -1.15007e-08 -0.000103446)
(-1.96931e-10 -2.22534e-09 -0.000110183)
(1.33425e-09 3.8069e-09 -0.000109955)
(-2.73423e-09 -3.78325e-09 -0.000102941)
(-3.03587e-08 -8.07473e-09 -0.000102928)
(2.5484e-08 -6.22638e-09 -0.000102935)
(2.18504e-09 -3.56936e-09 -0.000102956)
(-2.89189e-08 -7.82931e-09 -0.000102957)
(-1.84408e-09 -3.45763e-09 -0.000102969)
(-2.67763e-09 -6.70604e-10 -0.00010957)
(-1.08166e-09 -2.79371e-09 -0.000109405)
(-2.75893e-08 -1.3228e-08 -0.000109383)
(-1.68503e-09 -1.70334e-09 -0.000109436)
(1.89922e-10 9.41748e-10 -0.000109446)
(-2.45589e-09 -1.04296e-09 -0.000109629)
(-1.17065e-09 -3.71552e-09 -0.000103153)
(2.93074e-09 3.51809e-09 -0.00010301)
(-5.03089e-10 4.27048e-09 -0.000102974)
(-1.42824e-09 4.49148e-09 -0.000103135)
(1.63305e-09 9.4409e-10 -0.000103061)
(-8.73904e-10 -3.74242e-09 -0.000103222)
(-2.13441e-09 -3.17321e-09 -0.000103142)
(-1.72557e-09 -1.26502e-09 -0.000102993)
(-1.95959e-09 3.40715e-09 -0.000103109)
(-5.52431e-09 1.11181e-08 -0.000102957)
(-1.06599e-09 2.62578e-11 -0.000103034)
(1.08993e-09 3.92691e-09 -0.000103196)
(-4.60827e-09 8.37156e-09 -0.000103005)
(-1.7297e-09 3.58745e-09 -0.000103165)
(-1.50841e-08 -8.11608e-09 -0.000109406)
(1.56893e-08 5.94154e-09 -0.000109377)
(-4.73671e-10 -9.5081e-10 -0.000109485)
(-4.60114e-12 -4.20082e-09 -0.000109666)
(1.4518e-08 5.39561e-09 -0.000109429)
(-1.93957e-08 -1.0154e-08 -0.000109478)
(-1.22717e-08 -2.14865e-09 -0.000102908)
(1.5837e-08 1.57029e-09 -0.000102935)
(2.18774e-08 -7.42144e-09 -0.000102887)
(-1.0311e-08 -4.25264e-11 -0.000102895)
(1.45728e-08 1.64856e-09 -0.000102983)
(-1.62196e-08 -3.88579e-09 -0.000102978)
(-1.27452e-08 8.73232e-10 -0.000102939)
(2.01123e-08 -5.45772e-09 -0.000102938)
(-4.02023e-09 2.99403e-09 -0.000109538)
(-5.14728e-09 9.85694e-09 -0.000109365)
(2.4229e-08 -1.1315e-08 -0.000109338)
(-1.24283e-08 4.16156e-09 -0.0001093)
(-4.04002e-09 7.65922e-09 -0.000109412)
(-3.52683e-09 2.68053e-09 -0.000109594)
(-1.37237e-08 4.8346e-09 -0.000109346)
(2.16559e-08 -1.10794e-08 -0.000109398)
(-9.36657e-09 4.30406e-09 -0.000109462)
(2.00862e-08 -8.44354e-09 -0.000109393)
(-3.51918e-09 1.02534e-08 -0.00010962)
(-3.69239e-09 6.89733e-09 -0.000109433)
(1.90889e-08 -8.68106e-09 -0.000109417)
(-1.47002e-08 7.0599e-09 -0.000109487)
(-5.0434e-09 8.54992e-09 -0.000109461)
(-5.07007e-09 1.29442e-08 -0.00010966)
(3.0151e-09 -1.6986e-09 -0.000102992)
(-2.32772e-08 -5.5112e-09 -0.000102971)
(2.03939e-08 -4.43797e-09 -0.000102965)
(-1.21724e-08 2.03333e-09 -0.000102984)
(-1.92531e-08 -4.12164e-09 -0.000102991)
(8.38079e-09 3.33057e-10 -0.000103008)
(2.53881e-09 8.38746e-09 -0.00010967)
(1.42379e-09 2.38053e-09 -0.000109481)
(-2.3279e-08 -1.07221e-08 -0.000109438)
(1.3473e-08 5.99651e-09 -0.000109505)
(-1.59697e-09 -4.27971e-09 -0.000109499)
(4.38868e-09 1.08116e-08 -0.000109697)
(-1.31843e-09 -5.49361e-09 -0.000103267)
(2.12609e-09 1.9654e-09 -0.000103094)
(-2.75112e-09 8.79674e-09 -0.000103038)
(-4.9547e-09 1.36459e-08 -0.000103217)
(1.71893e-09 2.74646e-09 -0.000103112)
(-1.34961e-09 -4.83577e-09 -0.000103298)
(2.05339e-09 6.91093e-09 -0.000103238)
(-7.57773e-10 6.35437e-10 -0.000103067)
(-1.05495e-09 1.20982e-09 -0.000103211)
(-3.80113e-09 6.31182e-09 -0.000103041)
(-1.16891e-09 -1.95639e-09 -0.000103083)
(2.97064e-09 7.85957e-09 -0.000103266)
(-2.29728e-09 4.33823e-09 -0.000103064)
(2.17974e-10 -1.21016e-09 -0.000103244)
(-1.90546e-08 -9.78435e-09 -0.000109526)
(1.73604e-08 6.77348e-09 -0.000109469)
(1.64243e-10 1.57741e-09 -0.000109543)
(-1.25172e-09 -6.03858e-09 -0.000109747)
(1.92167e-08 8.41488e-09 -0.000109497)
(-1.61898e-08 -8.0591e-09 -0.000109565)
(-1.67881e-08 -4.35674e-09 -0.000103024)
(1.55322e-08 1.97448e-09 -0.000103023)
(1.77409e-08 -4.75891e-09 -0.000102981)
(-1.77323e-08 2.74733e-09 -0.000102977)
(1.77794e-08 3.41729e-09 -0.000103048)
(-1.50661e-08 -3.39566e-09 -0.000103062)
(-2.34876e-08 5.58435e-09 -0.000103004)
(1.15052e-08 -1.95797e-09 -0.000103016)
(-2.61888e-09 5.39155e-10 -0.000109639)
(-3.13247e-09 6.04601e-09 -0.000109448)
(1.9978e-08 -1.03766e-08 -0.000109442)
(-1.83452e-08 7.24509e-09 -0.000109384)
(-2.45249e-09 6.01136e-09 -0.000109472)
(-1.6943e-09 -5.91034e-10 -0.000109673)
(-2.3856e-08 1.07884e-08 -0.000109412)
(1.45038e-08 -7.08526e-09 -0.000109479)
(-1.47869e-08 6.92582e-09 -0.000109511)
(1.92046e-08 -8.87889e-09 -0.000109441)
(-6.33017e-09 1.45074e-08 -0.000109684)
(-5.97163e-09 9.62949e-09 -0.000109482)
(1.88581e-08 -9.01428e-09 -0.000109471)
(-1.50797e-08 6.58555e-09 -0.000109536)
(-5.39417e-09 8.18472e-09 -0.000109508)
(-7.18119e-09 1.50024e-08 -0.000109706)
(1.29825e-08 2.11969e-09 -0.000103025)
(-8.72135e-09 1.39852e-10 -0.000103005)
(2.0052e-08 -4.723e-09 -0.000103009)
(-9.79428e-09 4.50611e-10 -0.000103022)
(-1.4817e-08 -2.80476e-09 -0.000103028)
(1.88368e-08 4.45165e-09 -0.000103046)
(2.58609e-09 7.60414e-09 -0.000109719)
(2.14107e-09 1.72531e-09 -0.000109526)
(-1.64538e-08 -7.64712e-09 -0.000109491)
(1.45361e-08 6.50295e-09 -0.000109556)
(2.2816e-09 2.69248e-09 -0.000109547)
(5.47929e-11 2.46485e-09 -0.000109745)
(-1.08358e-09 -2.87987e-09 -0.000103313)
(2.55897e-09 5.51499e-09 -0.000103125)
(-2.80576e-09 7.601e-09 -0.000103076)
(-6.92375e-09 1.64173e-08 -0.000103256)
(3.05857e-09 6.81993e-09 -0.000103142)
(-5.60814e-10 -6.97342e-10 -0.000103326)
(1.54736e-09 3.82657e-09 -0.000103284)
(6.87131e-10 2.50482e-09 -0.000103108)
(1.15991e-09 -2.61645e-09 -0.000103265)
(-1.93632e-09 3.94007e-09 -0.000103086)
(1.79497e-10 1.68238e-09 -0.00010313)
(3.04678e-09 7.23401e-09 -0.000103306)
(-2.40389e-09 5.30036e-09 -0.000103116)
(1.45221e-09 -2.70827e-09 -0.00010329)
(-1.48726e-08 -6.90115e-09 -0.000109588)
(1.92402e-08 8.71503e-09 -0.000109516)
(2.41175e-09 6.03298e-09 -0.000109582)
(4.23536e-10 -1.41515e-09 -0.000109784)
(1.8173e-08 8.19543e-09 -0.000109538)
(-1.53963e-08 -6.98708e-09 -0.000109608)
(-1.35986e-08 -2.51549e-09 -0.000103083)
(1.70514e-08 3.2591e-09 -0.000103066)
(7.66596e-09 -2.39754e-10 -0.000103041)
(-2.20193e-08 5.16362e-09 -0.000103027)
(1.63216e-08 3.09036e-09 -0.000103086)
(-1.43316e-08 -2.48546e-09 -0.000103101)
(-1.84382e-08 3.92709e-09 -0.000103051)
(9.86408e-09 -7.43506e-10 -0.000103064)
(-1.09769e-09 -6.25699e-10 -0.000109694)
(-2.06341e-09 5.26444e-09 -0.000109497)
(9.97436e-09 -4.39391e-09 -0.000109505)
(-2.41304e-08 1.12535e-08 -0.000109437)
(-1.89111e-09 5.06144e-09 -0.000109529)
(-5.09982e-10 -1.28429e-09 -0.000109722)
(-2.15989e-08 9.99308e-09 -0.000109465)
(1.10343e-08 -4.70707e-09 -0.000109531)
(-1.60224e-08 7.21865e-09 -0.000109568)
(1.52798e-08 -6.18004e-09 -0.000109518)
(-5.73141e-09 1.24418e-08 -0.000109735)
(-1.11697e-09 1.78561e-09 -0.000109553)
(1.27876e-08 -4.44868e-09 -0.000109577)
(-2.02296e-08 1.02177e-08 -0.000109621)
(2.47424e-09 -4.40205e-09 -0.000109608)
(-9.961e-10 5.32863e-09 -0.000109785)
(1.45173e-08 2.613e-09 -0.000103065)
(-1.84123e-08 -3.48517e-09 -0.000103055)
(1.07112e-08 -3.04415e-10 -0.000103101)
(-1.80142e-08 4.39634e-09 -0.000103093)
(-2.138e-08 -4.42772e-09 -0.000103105)
(1.15761e-08 1.91178e-09 -0.000103098)
(3.98386e-09 9.8444e-09 -0.000109771)
(1.6931e-09 3.07485e-09 -0.000109589)
(-2.38464e-08 -1.04799e-08 -0.000109571)
(1.77168e-08 8.88356e-09 -0.000109621)
(-2.21303e-09 -4.24574e-09 -0.000109634)
(4.4442e-09 1.13288e-08 -0.000109812)
(2.75652e-10 8.44142e-10 -0.000103345)
(3.28684e-09 6.50973e-09 -0.000103172)
(3.94285e-09 -6.61808e-09 -0.000103162)
(-8.47726e-10 3.38834e-09 -0.000103321)
(2.03268e-09 3.18209e-09 -0.000103218)
(-1.50809e-10 -7.69875e-10 -0.00010338)
(3.21472e-09 8.00013e-09 -0.000103331)
(-3.94047e-10 1.05702e-09 -0.000103164)
(1.90098e-10 -5.63991e-10 -0.000103321)
(-3.85079e-09 7.14651e-09 -0.000103153)
(-2.0089e-09 -1.85473e-09 -0.000103205)
(2.72885e-09 8.17701e-09 -0.000103368)
(-3.84209e-09 6.74168e-09 -0.000103195)
(-5.69908e-10 2.01745e-10 -0.00010336)
(-1.64362e-08 -7.72221e-09 -0.000109631)
(1.85424e-08 7.86122e-09 -0.00010957)
(1.80591e-09 3.74192e-09 -0.000109661)
(1.6248e-09 -2.70973e-11 -0.000109844)
(1.9101e-08 8.00448e-09 -0.000109614)
(-1.58343e-08 -7.86935e-09 -0.000109667)
(-1.53034e-08 -3.09613e-09 -0.000103122)
(1.62946e-08 2.49401e-09 -0.000103116)
(1.3711e-08 -2.49361e-09 -0.000103089)
(-1.69981e-08 2.51671e-09 -0.000103081)
(1.72758e-08 2.70728e-09 -0.000103156)
(-1.4817e-08 -3.21646e-09 -0.000103156)
(-1.93234e-08 3.58782e-09 -0.000103117)
(1.38944e-08 -3.09684e-09 -0.000103122)
(-5.83214e-10 -1.41801e-09 -0.000109756)
(-2.8328e-09 5.40792e-09 -0.000109571)
(1.35817e-08 -6.29472e-09 -0.00010956)
(-2.02905e-08 8.75771e-09 -0.000109499)
(-3.16315e-09 5.84988e-09 -0.000109615)
(-1.38449e-09 -9.75531e-10 -0.000109799)
(-2.06702e-08 8.86747e-09 -0.000109539)
(1.43349e-08 -7.15462e-09 -0.000109596)
(-2.12944e-08 1.10797e-08 -0.000109677)
(1.47785e-08 -5.07257e-09 -0.000109626)
(2.02266e-09 2.18873e-10 -0.000109838)
(3.19525e-09 -5.81861e-09 -0.000109653)
(1.80468e-08 -7.6113e-09 -0.000109661)
(-1.90705e-08 9.85661e-09 -0.000109724)
(1.62322e-09 -4.14985e-09 -0.000109687)
(2.2945e-09 -4.53656e-11 -0.000109881)
(9.24344e-09 1.30365e-09 -0.000103148)
(-1.59005e-08 -1.789e-09 -0.000103152)
(1.56504e-08 -2.40833e-09 -0.000103184)
(-1.81107e-08 5.1339e-09 -0.000103191)
(-1.95071e-08 -3.94775e-09 -0.000103197)
(1.15855e-08 2.3864e-09 -0.000103198)
(1.45995e-09 6.92191e-09 -0.000109862)
(-1.21153e-09 -3.12518e-09 -0.000109685)
(-2.06909e-08 -9.20117e-09 -0.000109668)
(9.52692e-09 4.58921e-09 -0.00010972)
(-4.17722e-09 -8.2253e-09 -0.000109719)
(-4.1603e-09 -4.14481e-09 -0.000109908)
(-9.66016e-10 -3.77528e-09 -0.000103428)
(1.54211e-09 5.41905e-10 -0.000103267)
(2.40226e-09 -3.38005e-09 -0.000103241)
(5.71729e-10 1.21832e-10 -0.000103411)
(5.14013e-10 -1.33408e-09 -0.000103311)
(-2.08777e-09 -6.76603e-09 -0.000103476)
(5.01366e-10 3.46935e-09 -0.000103413)
(-1.74861e-09 -1.58231e-09 -0.000103251)
(-9.76969e-10 4.20848e-10 -0.000103403)
(-4.45647e-09 8.20009e-09 -0.000103234)
(-4.10685e-09 -7.78903e-09 -0.000103286)
(6.32622e-11 1.45722e-09 -0.000103453)
(-3.98364e-09 8.42552e-09 -0.000103267)
(-1.04712e-09 1.23866e-09 -0.00010344)
(-1.53496e-08 -7.88734e-09 -0.000109712)
(1.91034e-08 8.01671e-09 -0.000109657)
(-1.14083e-09 -1.71153e-09 -0.000109757)
(-9.95869e-10 -5.4616e-09 -0.000109942)
(1.87625e-08 8.1026e-09 -0.000109695)
(-1.54833e-08 -7.81211e-09 -0.000109754)
(-1.40643e-08 -3.2498e-09 -0.000103196)
(1.78797e-08 2.89938e-09 -0.000103195)
(1.17175e-08 -2.12176e-09 -0.000103158)
(-2.03114e-08 3.86627e-09 -0.000103155)
(1.87511e-08 3.66811e-09 -0.00010323)
(-1.29598e-08 -2.7539e-09 -0.000103235)
(-1.80949e-08 3.49112e-09 -0.000103188)
(1.07722e-08 -1.77457e-09 -0.000103195)
(-1.86231e-09 -3.04829e-10 -0.000109842)
(-3.79436e-09 7.18358e-09 -0.000109654)
(1.38345e-08 -6.98086e-09 -0.000109636)
(-2.09863e-08 9.07391e-09 -0.000109578)
(-3.54249e-09 7.44712e-09 -0.000109684)
(-2.36032e-09 8.42593e-10 -0.00010988)
(-1.95503e-08 8.50036e-09 -0.000109612)
(1.36705e-08 -6.65479e-09 -0.000109674)
(-1.55626e-08 7.46055e-09 -0.000109755)
(1.98536e-08 -8.82441e-09 -0.000109686)
(7.15261e-10 1.66169e-09 -0.000109913)
(1.2039e-09 -3.31817e-09 -0.000109715)
(1.90671e-08 -8.68342e-09 -0.000109706)
(-1.44392e-08 7.02739e-09 -0.00010978)
(5.86646e-10 -2.08687e-09 -0.000109742)
(2.01765e-10 2.31157e-09 -0.00010994)
(1.15551e-08 1.851e-09 -0.000103237)
(-1.59401e-08 -2.38272e-09 -0.000103228)
(1.71109e-08 -3.09669e-09 -0.00010323)
(-1.34967e-08 2.45863e-09 -0.000103247)
(-1.37009e-08 -1.76419e-09 -0.000103253)
(1.57476e-08 3.62382e-09 -0.000103267)
(-2.65842e-09 -1.58176e-09 -0.000109945)
(-3.53913e-09 -6.70064e-09 -0.00010976)
(-2.00584e-08 -8.83726e-09 -0.000109721)
(1.83815e-08 9.21492e-09 -0.000109793)
(-2.70778e-09 -6.16273e-09 -0.000109788)
(-1.04653e-10 3.10332e-09 -0.00010998)
(-2.51685e-09 -7.43996e-09 -0.000103517)
(7.37822e-10 -5.04812e-10 -0.000103342)
(1.17699e-09 -1.35904e-09 -0.000103296)
(-1.79756e-09 4.55465e-09 -0.000103473)
(1.27991e-09 1.25143e-09 -0.000103366)
(-2.5758e-09 -6.88244e-09 -0.000103546)
(-8.09913e-10 -1.88268e-09 -0.000103489)
(-3.64291e-09 -7.28333e-09 -0.000103322)
(-8.90993e-10 1.85749e-09 -0.000103472)
(-3.9138e-09 8.14558e-09 -0.000103298)
(-2.47547e-09 -4.04735e-09 -0.000103351)
(1.54986e-10 1.07144e-09 -0.000103525)
(-3.11881e-09 6.06554e-09 -0.000103326)
(-6.70785e-10 4.23217e-10 -0.000103502)
(-1.58483e-08 -7.68359e-09 -0.00010979)
(1.9091e-08 8.34741e-09 -0.000109726)
(-8.88661e-10 -5.55722e-10 -0.000109818)
(-2.29101e-09 -7.50543e-09 -0.000110018)
(1.91906e-08 8.47831e-09 -0.000109753)
(-1.52996e-08 -7.22312e-09 -0.00010982)
(-1.28359e-08 -2.26258e-09 -0.000103268)
(1.83642e-08 3.59192e-09 -0.000103257)
(1.48132e-08 -2.96206e-09 -0.000103226)
(-1.30542e-08 1.22255e-09 -0.000103213)
(1.81459e-08 3.78159e-09 -0.00010328)
(-1.30226e-08 -2.19124e-09 -0.000103294)
(-1.24862e-08 1.14691e-09 -0.000103233)
(1.85529e-08 -4.54875e-09 -0.000103249)
(-2.06611e-09 7.39466e-10 -0.000109909)
(-3.41257e-09 6.74846e-09 -0.000109713)
(1.60543e-08 -7.90084e-09 -0.000109707)
(-1.58881e-08 6.55193e-09 -0.000109639)
(-2.57046e-09 5.70487e-09 -0.000109737)
(-1.75655e-09 -2.28205e-11 -0.000109937)
(-1.43393e-08 5.98118e-09 -0.000109659)
(1.93354e-08 -9.70467e-09 -0.000109731)
(-1.55752e-08 7.33042e-09 -0.000109797)
(1.81682e-08 -7.93128e-09 -0.000109723)
(-3.89177e-10 3.48253e-09 -0.000109966)
(1.30331e-09 -3.29791e-09 -0.000109766)
(1.84054e-08 -8.54175e-09 -0.000109737)
(-1.6262e-08 7.78372e-09 -0.000109815)
(2.56675e-09 -6.54304e-09 -0.000109783)
(7.8177e-10 1.38986e-09 -0.00010999)
(1.72427e-08 3.95797e-09 -0.000103286)
(-8.89573e-09 1.63919e-10 -0.000103264)
(1.62635e-08 -2.9957e-09 -0.000103261)
(-1.49181e-08 2.91534e-09 -0.000103282)
(-1.61515e-08 -3.11591e-09 -0.000103282)
(1.7705e-08 4.02072e-09 -0.000103302)
(2.03981e-09 7.14954e-09 -0.000110011)
(1.94164e-09 1.92167e-09 -0.00010982)
(-1.80667e-08 -8.28143e-09 -0.000109749)
(1.3345e-08 5.99841e-09 -0.000109823)
(-1.69565e-09 -4.35766e-09 -0.000109833)
(-9.04702e-10 1.49462e-09 -0.000110038)
(-1.42192e-09 -4.3498e-09 -0.000103569)
(1.9257e-09 3.25726e-09 -0.00010339)
(3.19684e-09 -7.39582e-09 -0.000103338)
(-4.8351e-10 1.61329e-09 -0.000103522)
(9.90985e-10 1.77336e-09 -0.000103407)
(-1.0015e-09 -3.56356e-09 -0.000103593)
(7.2547e-10 2.98233e-09 -0.000103555)
(2.69982e-11 1.4782e-09 -0.00010338)
(1.09799e-10 -1.24912e-09 -0.00010353)
(-2.29907e-09 4.17203e-09 -0.00010335)
(-2.73687e-09 -5.4733e-09 -0.000103393)
(1.85173e-09 5.02532e-09 -0.000103577)
(-4.42187e-10 6.36795e-10 -0.000103363)
(1.43322e-09 -3.82772e-09 -0.000103552)
(-1.56771e-08 -7.41853e-09 -0.000109846)
(1.80882e-08 7.80036e-09 -0.000109779)
(-3.59062e-10 5.64576e-10 -0.000109861)
(-8.00947e-10 -4.20959e-09 -0.000110067)
(1.59728e-08 7.15571e-09 -0.000109798)
(-1.70243e-08 -8.21378e-09 -0.000109871)
(-1.34513e-08 -2.4824e-09 -0.000103317)
(1.72383e-08 3.13715e-09 -0.000103304)
(1.88459e-08 -4.61353e-09 -0.000103269)
(-1.35953e-08 1.75698e-09 -0.000103252)
(1.59298e-08 2.93381e-09 -0.000103322)
(-1.44053e-08 -2.80168e-09 -0.00010334)
(-1.55454e-08 2.85834e-09 -0.000103263)
(1.68204e-08 -3.88348e-09 -0.000103288)
(-1.10663e-09 -1.10646e-09 -0.000109961)
(-1.58919e-09 4.10465e-09 -0.00010976)
(2.01669e-08 -1.01269e-08 -0.000109752)
(-1.56405e-08 6.40942e-09 -0.00010968)
(4.0849e-10 1.46167e-09 -0.000109772)
(2.05337e-10 -3.06455e-09 -0.000109982)
(-1.6888e-08 7.58972e-09 -0.00010969)
(1.85688e-08 -9.01461e-09 -0.000109771)
(-1.58417e-08 7.2561e-09 -0.000109828)
(1.8104e-08 -8.10757e-09 -0.00010975)
(2.16265e-09 -1.52024e-09 -0.000110005)
(3.33989e-09 -7.53775e-09 -0.000109797)
(1.65165e-08 -7.6655e-09 -0.000109761)
(-1.68288e-08 7.56026e-09 -0.00010984)
(2.1517e-09 -5.96778e-09 -0.000109809)
(2.19097e-09 -2.0408e-09 -0.000110018)
(1.40459e-08 2.58583e-09 -0.000103317)
(-1.49929e-08 -2.49621e-09 -0.000103298)
(1.44184e-08 -2.29473e-09 -0.000103285)
(-1.5677e-08 3.00112e-09 -0.000103308)
(-1.36801e-08 -1.89824e-09 -0.000103319)
(1.64118e-08 3.18364e-09 -0.000103335)
(-8.46843e-10 1.2745e-09 -0.000110054)
(-2.86443e-09 -7.0312e-09 -0.000109855)
(-1.73224e-08 -7.73538e-09 -0.00010978)
(2.07733e-08 1.00067e-08 -0.000109855)
(-4.31985e-09 -9.25197e-09 -0.00010987)
(-1.11584e-10 1.69784e-09 -0.000110072)
(-1.90055e-09 -4.99121e-09 -0.000103609)
(9.21568e-10 5.34292e-10 -0.000103422)
(3.35013e-09 -7.86176e-09 -0.000103366)
(8.52571e-10 -2.81444e-09 -0.000103552)
(2.13047e-10 4.46513e-10 -0.000103436)
(-2.83214e-09 -6.29827e-09 -0.000103623)
(-6.14136e-11 4.01499e-11 -0.000103592)
(-3.68218e-09 -8.2257e-09 -0.000103411)
(2.98369e-09 -6.76953e-09 -0.000103563)
(5.3792e-10 -1.87491e-09 -0.000103376)
(-3.31935e-09 -7.64542e-09 -0.000103426)
(-1.76656e-10 -6.79396e-10 -0.00010361)
(1.4668e-09 -4.35923e-09 -0.00010339)
(3.88295e-09 -9.75256e-09 -0.000103577)
(-1.87656e-08 -8.95941e-09 -0.00010989)
(1.55712e-08 6.81924e-09 -0.000109816)
(-1.10157e-09 -1.71566e-10 -0.00010989)
(-2.10528e-09 -6.00211e-09 -0.000110099)
(1.61764e-08 7.40299e-09 -0.000109832)
(-1.91387e-08 -8.87981e-09 -0.000109908)
(-1.59242e-08 -3.2413e-09 -0.000103357)
(1.50013e-08 2.51982e-09 -0.000103338)
(1.57996e-08 -3.21348e-09 -0.000103297)
(-1.56151e-08 2.86877e-09 -0.000103272)
(1.55549e-08 2.8331e-09 -0.000103353)
(-1.62921e-08 -3.26075e-09 -0.000103373)
(-1.68094e-08 3.63933e-09 -0.000103284)
(1.55727e-08 -2.59465e-09 -0.000103306)
(2.08815e-09 -5.9291e-09 -0.000109993)
(1.87154e-09 -1.80714e-09 -0.000109786)
(1.79547e-08 -8.33801e-09 -0.00010978)
(-1.62943e-08 7.37281e-09 -0.000109701)
(3.23686e-09 -4.4603e-09 -0.000109803)
(3.80239e-09 -9.01319e-09 -0.000110008)
(-1.64163e-08 7.50244e-09 -0.000109715)
(1.86835e-08 -8.70632e-09 -0.000109792)
(-1.82018e-08 8.74623e-09 -0.000109851)
(1.40711e-08 -5.5594e-09 -0.000109768)
(1.16517e-09 4.92359e-10 -0.000110029)
(8.90961e-10 -2.56618e-09 -0.000109818)
(1.26698e-08 -4.95022e-09 -0.000109771)
(-2.09588e-08 1.04434e-08 -0.000109857)
(-6.67304e-10 9.87491e-11 -0.000109824)
(-3.48447e-10 3.72004e-09 -0.000110038)
(1.71204e-08 3.92176e-09 -0.000103352)
(-8.39237e-09 5.68018e-10 -0.00010333)
(1.15318e-08 -1.14878e-09 -0.000103294)
(-1.91934e-08 4.89701e-09 -0.000103324)
(-1.43409e-08 -2.11029e-09 -0.000103345)
(1.86327e-08 4.73799e-09 -0.000103367)
(5.74766e-10 4.1799e-09 -0.00011009)
(1.30877e-09 8.16165e-10 -0.000109886)
(-1.36733e-08 -6.00102e-09 -0.000109805)
(1.74648e-08 8.34926e-09 -0.000109881)
(4.09866e-10 2.47466e-10 -0.000109887)
(-8.18056e-10 1.54053e-09 -0.000110102)
(-2.07896e-09 -5.45178e-09 -0.000103636)
(2.12575e-09 3.72963e-09 -0.000103446)
(1.28762e-09 -1.35289e-09 -0.000103384)
(-9.317e-10 3.09808e-09 -0.000103575)
(3.88365e-09 7.82639e-09 -0.000103457)
(-5.88132e-10 -1.96075e-09 -0.000103647)
(-4.20773e-10 -1.90921e-10 -0.000103628)
(-5.40802e-10 8.07587e-10 -0.000103444)
(4.2742e-09 -1.11661e-08 -0.000103591)
(2.05125e-10 -1.84699e-09 -0.000103399)
(-8.01616e-10 -9.79173e-10 -0.000103449)
(1.84923e-09 5.41506e-09 -0.000103638)
(-2.37986e-09 4.67215e-09 -0.000103408)
(2.7204e-09 -7.65641e-09 -0.000103599)
(-1.80006e-08 -8.56626e-09 -0.000109922)
(1.75812e-08 7.56942e-09 -0.000109844)
(3.45693e-09 7.92317e-09 -0.000109911)
(9.88927e-10 -1.36642e-09 -0.000110123)
(2.04525e-08 9.29186e-09 -0.000109856)
(-1.66355e-08 -7.98523e-09 -0.000109934)
(-1.59954e-08 -3.22504e-09 -0.000103386)
(1.6153e-08 2.69905e-09 -0.000103364)
(1.41223e-08 -2.45595e-09 -0.000103319)
(-1.86548e-08 3.94048e-09 -0.000103297)
(1.93697e-08 3.90568e-09 -0.000103378)
(-1.44961e-08 -2.93895e-09 -0.000103398)
(-1.95215e-08 4.11314e-09 -0.000103316)
(1.20146e-08 -1.68144e-09 -0.000103333)
(4.60154e-09 -1.11784e-08 -0.000110025)
(2.22808e-09 -3.04104e-09 -0.000109817)
(1.78838e-08 -8.36037e-09 -0.000109807)
(-1.87734e-08 8.66094e-09 -0.000109731)
(-1.12852e-09 3.57953e-09 -0.000109831)
(2.94912e-09 -8.16858e-09 -0.000110038)
(-2.14089e-08 9.70951e-09 -0.000109751)
(1.51833e-08 -6.93647e-09 -0.000109823)
(-2.12627e-08 1.02447e-08 -0.000109857)
(1.49643e-08 -6.41291e-09 -0.000109773)
(-1.68842e-09 6.12609e-09 -0.000110044)
(-8.29427e-10 5.73437e-11 -0.00010983)
(1.73036e-08 -8.09675e-09 -0.000109781)
(-1.80125e-08 8.56525e-09 -0.000109862)
(3.53876e-10 -3.07368e-09 -0.000109838)
(-1.43527e-09 5.22236e-09 -0.000110051)
(1.59018e-08 3.18638e-09 -0.000103377)
(-1.41936e-08 -2.52173e-09 -0.000103355)
(1.53408e-08 -2.99234e-09 -0.000103309)
(-1.6398e-08 3.29705e-09 -0.000103334)
(-1.75645e-08 -3.736e-09 -0.000103373)
(1.63456e-08 2.83672e-09 -0.000103392)
(2.39614e-09 6.82078e-09 -0.000110105)
(9.66712e-10 4.50836e-10 -0.000109899)
(-1.90224e-08 -8.77238e-09 -0.000109832)
(2.24822e-08 1.06106e-08 -0.000109909)
(-1.51899e-09 -4.86605e-09 -0.000109904)
(3.6938e-09 9.41877e-09 -0.000110114)
(1.15089e-09 2.59575e-09 -0.000103657)
(4.6279e-09 1.10234e-08 -0.000103466)
(1.79697e-09 -3.78448e-09 -0.000103399)
(-1.78266e-09 4.51931e-09 -0.000103589)
(3.72682e-09 9.21913e-09 -0.000103473)
(1.59127e-09 4.05974e-09 -0.000103667)
(2.0997e-09 5.80422e-09 -0.000103647)
(-6.7357e-10 -1.67709e-10 -0.00010346)
(2.03164e-10 -7.3604e-10 -0.000103607)
(-3.72044e-09 7.79016e-09 -0.000103419)
(-7.94083e-10 -1.35038e-09 -0.000103468)
(3.17883e-09 7.57095e-09 -0.000103658)
(-3.35905e-09 7.74793e-09 -0.000103433)
(-3.95104e-10 4.90828e-10 -0.00010362)
(-1.33315e-08 -6.36794e-09 -0.000109947)
(2.26064e-08 1.01997e-08 -0.000109867)
(3.2571e-09 8.04076e-09 -0.000109923)
(3.74642e-09 4.28848e-09 -0.00011014)
(2.23355e-08 1.03739e-08 -0.000109875)
(-1.19668e-08 -5.46749e-09 -0.000109957)
(-1.14705e-08 -1.73595e-09 -0.000103412)
(2.13783e-08 4.83653e-09 -0.000103391)
(1.21707e-08 -2.03345e-09 -0.000103352)
(-1.87892e-08 3.62876e-09 -0.000103333)
(2.24581e-08 5.67094e-09 -0.0001034)
(-9.40179e-09 -8.57148e-10 -0.000103424)
(-1.87797e-08 3.86902e-09 -0.000103343)
(1.23463e-08 -2.08499e-09 -0.000103368)
(-6.72217e-10 -1.5966e-09 -0.000110053)
(-3.14967e-09 7.07604e-09 -0.000109847)
(1.31809e-08 -6.23481e-09 -0.000109843)
(-2.21627e-08 9.98139e-09 -0.000109769)
(-3.62144e-09 8.38255e-09 -0.000109862)
(-2.06629e-09 8.19171e-10 -0.00011007)
(-2.25623e-08 1.04413e-08 -0.000109778)
(1.22922e-08 -5.77147e-09 -0.00010986)
(-1.65536e-08 7.22106e-09 -0.000109871)
(1.79212e-08 -7.88189e-09 -0.00010979)
(9.15638e-11 1.85649e-09 -0.000110058)
(2.36107e-09 -6.47939e-09 -0.000109848)
(1.59287e-08 -7.04427e-09 -0.000109797)
(-1.6382e-08 7.87719e-09 -0.000109879)
(2.68508e-09 -6.60261e-09 -0.000109855)