/*--------------------------------*- C++ -*----------------------------------*\
| =========                 |                                                 |
| \\      /  F ield         | OpenFOAM: The Open Source CFD Toolbox           |
|  \\    /   O peration     | Version:  2206                                  |
|   \\  /    A nd           | Website:  www.openfoam.com                      |
|    \\/     M anipulation  |                                                 |
\*---------------------------------------------------------------------------*/
FoamFile
{
    version     2.0;
    format      ascii;
    arch        "LSB;label=32;scalar=64";
    class       volScalarField;
    location    "10";
    object      k;
}
// * * * * * * * * * * * * * * * * * * * * * * * * * * * * * * * * * * * * * //

dimensions      [0 2 -2 0 0 0 0];

internalField   nonuniform List<scalar> 
66701
(
9.47858e-06
8.87591e-06
1.35149e-05
1.85996e-05
1.08874e-05
2.41905e-05
2.27325e-05
1.20171e-05
9.30011e-06
1.40518e-05
1.92801e-05
1.10732e-05
2.43276e-05
1.21571e-05
2.3175e-05
9.82746e-06
3.67471e-06
1.12068e-06
3.16424e-07
3.51141e-07
2.20077e-06
3.87347e-06
1.13895e-06
3.18595e-07
3.51712e-07
2.20406e-06
3.45244e-06
1.00145e-06
2.81314e-07
3.24608e-07
2.0251e-06
3.57932e-06
1.07341e-06
2.96726e-07
3.26808e-07
2.02742e-06
3.77518e-06
1.13659e-06
3.16957e-07
3.50914e-07
2.20062e-06
3.96216e-06
1.18704e-06
3.29098e-07
3.53148e-07
2.20491e-06
3.4198e-06
1.04635e-06
2.97819e-07
3.36125e-07
2.09804e-06
3.50477e-06
1.06435e-06
2.99965e-07
3.41316e-07
2.13719e-06
3.57181e-06
1.05294e-06
2.95403e-07
3.35801e-07
2.0981e-06
3.54202e-06
1.07077e-06
3.01597e-07
3.40793e-07
2.13735e-06
9.82271e-06
9.48528e-06
3.30931e-05
1.95961e-05
1.89788e-05
1.38518e-05
3.23142e-05
2.62625e-05
2.49997e-05
1.33499e-05
3.04768e-05
3.24e-05
2.52836e-05
3.15663e-05
2.42614e-05
1.41842e-05
3.09011e-05
3.23464e-05
3.15487e-05
2.59726e-05
9.74197e-06
3.29719e-05
1.91961e-05
9.48059e-06
1.49056e-05
9.07617e-06
8.77131e-06
1.59245e-05
9.45718e-06
8.78822e-06
2.39161e-05
1.30722e-05
2.87016e-05
1.9515e-05
2.45862e-05
1.30189e-05
2.87922e-05
2.36051e-05
1.3251e-05
2.84027e-05
1.89562e-05
2.45038e-05
1.33767e-05
2.83461e-05
1.13367e-05
2.32683e-05
1.28393e-05
2.42471e-05
1.06427e-05
2.35464e-05
1.23005e-05
9.23059e-06
1.84834e-05
1.35773e-05
8.96661e-06
1.8664e-05
1.08425e-05
1.18505e-05
2.27614e-05
2.43562e-05
1.0879e-05
1.25397e-05
2.33881e-05
9.29818e-06
1.89255e-05
1.41572e-05
9.47681e-06
1.88551e-05
9.80157e-06
1.64398e-05
9.59607e-06
9.96974e-06
2.4501e-05
2.84821e-05
1.98484e-05
2.84295e-05
1.36559e-05
2.48561e-05
1.94501e-05
1.3752e-05
2.89619e-05
9.58583e-06
2.99626e-05
2.97711e-05
2.93505e-05
2.90355e-05
3.00333e-05
2.94065e-05
2.95723e-05
2.90439e-05
2.94594e-05
2.92621e-05
2.94518e-05
2.91885e-05
2.92119e-05
3.30533e-05
3.22405e-05
3.18941e-05
2.9256e-05
3.18655e-05
3.18095e-05
3.22256e-05
2.90803e-05
3.12697e-05
2.56486e-05
3.13009e-05
3.21559e-05
2.89536e-05
3.27837e-05
3.05399e-05
3.26963e-05
3.0593e-05
3.25396e-05
3.01822e-05
3.29002e-05
3.24307e-05
2.86665e-05
3.08224e-05
2.5903e-05
3.08039e-05
3.2081e-05
2.87209e-05
3.25852e-05
3.28091e-05
2.99661e-05
3.08887e-05
3.24855e-05
3.28829e-05
3.00297e-05
3.19757e-05
2.9057e-05
3.10749e-05
2.63319e-05
3.1987e-05
2.87284e-05
3.10355e-05
3.0283e-05
3.30367e-05
3.18459e-05
3.18961e-05
3.19933e-05
3.80032e-06
1.16504e-06
3.21614e-07
3.50981e-07
2.20035e-06
3.67557e-06
1.11587e-06
3.12414e-07
3.50207e-07
2.20081e-06
3.39029e-06
1.01488e-06
2.84382e-07
3.25778e-07
2.02633e-06
3.34435e-06
9.87269e-07
2.78412e-07
3.24637e-07
2.02586e-06
3.62181e-06
1.08205e-06
2.96364e-07
3.25952e-07
2.02553e-06
3.81872e-06
1.14823e-06
3.19591e-07
3.51e-07
2.20137e-06
3.68028e-06
1.11916e-06
3.16573e-07
3.51543e-07
2.2046e-06
3.40531e-06
1.03478e-06
2.92685e-07
3.35839e-07
2.10246e-06
3.56586e-06
1.06769e-06
2.98926e-07
3.40375e-07
2.13674e-06
3.36821e-06
1.03342e-06
2.91013e-07
3.3508e-07
2.09783e-06
3.5702e-06
1.08179e-06
3.0493e-07
3.42615e-07
2.14227e-06
3.49487e-06
1.00739e-06
2.81728e-07
3.25341e-07
2.03092e-06
3.38497e-06
1.02812e-06
2.92025e-07
3.36143e-07
2.10304e-06
3.54426e-06
1.06911e-06
3.01215e-07
3.4058e-07
2.1371e-06
3.51537e-06
1.0476e-06
2.95e-07
3.35542e-07
2.09661e-06
3.60747e-06
1.07279e-06
2.99159e-07
3.40538e-07
2.13994e-06
3.60816e-06
1.0833e-06
3.00088e-07
3.27765e-07
2.03254e-06
3.78829e-06
1.14465e-06
3.18776e-07
3.51126e-07
2.20484e-06
3.4694e-06
1.03693e-06
2.90252e-07
3.28006e-07
2.04135e-06
3.75913e-06
1.11944e-06
3.14477e-07
3.5052e-07
2.20355e-06
3.84563e-06
1.1465e-06
3.19577e-07
3.48553e-07
2.17727e-06
3.39802e-06
1.01456e-06
2.85963e-07
3.26705e-07
2.03356e-06
3.39123e-06
1.01227e-06
2.85532e-07
3.27257e-07
2.0405e-06
3.45436e-06
1.05329e-06
3.00326e-07
3.45481e-07
2.17283e-06
3.48948e-06
1.02403e-06
2.87799e-07
3.26998e-07
2.03573e-06
3.49911e-06
1.01289e-06
2.81963e-07
3.26147e-07
2.0385e-06
3.76681e-06
1.13811e-06
3.16119e-07
3.47481e-07
2.1782e-06
3.51132e-06
1.04954e-06
3.0045e-07
3.46259e-07
2.17859e-06
3.79195e-06
1.12987e-06
3.1742e-07
3.51967e-07
2.20741e-06
3.70267e-06
1.12225e-06
3.15496e-07
3.51421e-07
2.20397e-06
3.88325e-06
1.18186e-06
3.27606e-07
3.5235e-07
2.20707e-06
3.96857e-06
1.20023e-06
3.28723e-07
3.52378e-07
2.20484e-06
3.53917e-06
1.06467e-06
2.95408e-07
3.27868e-07
2.03855e-06
3.87715e-06
1.16936e-06
3.21553e-07
3.48865e-07
2.18148e-06
3.93303e-06
1.19698e-06
3.29816e-07
3.49573e-07
2.1782e-06
3.2198e-05
3.32475e-05
2.98653e-05
3.24892e-05
3.23564e-05
3.30074e-05
2.99657e-05
3.2397e-05
3.24175e-05
3.29794e-05
2.9905e-05
3.23782e-05
3.23155e-05
3.31008e-05
2.99029e-05
3.25162e-05
3.21579e-05
3.342e-05
3.01207e-05
3.25048e-05
3.22689e-05
3.32049e-05
2.98943e-05
3.22478e-05
3.22206e-05
3.30768e-05
2.985e-05
3.2394e-05
3.22793e-05
3.31202e-05
2.99591e-05
3.24798e-05
3.2275e-05
3.31155e-05
2.99439e-05
3.24373e-05
3.23959e-05
3.32446e-05
3.01556e-05
3.25287e-05
3.23784e-05
3.31521e-05
3.00986e-05
3.24993e-05
3.22048e-05
3.31593e-05
3.03748e-05
3.2546e-05
3.21819e-05
3.30136e-05
2.98964e-05
3.232e-05
3.23798e-05
3.31132e-05
2.99726e-05
3.24307e-05
3.24473e-05
3.3353e-05
3.00022e-05
3.22441e-05
3.22935e-05
3.32084e-05
2.98699e-05
3.22931e-05
3.25348e-05
3.30798e-05
3.30159e-05
3.30666e-05
3.24159e-05
3.2349e-05
3.2269e-05
3.29651e-05
3.32098e-05
3.32595e-05
3.23408e-05
3.23036e-05
3.23323e-05
3.24908e-05
3.30889e-05
3.30731e-05
3.23199e-05
3.22424e-05
3.23171e-05
3.22299e-05
3.22662e-05
3.2538e-05
3.22683e-05
3.3121e-05
3.30121e-05
3.22313e-05
3.2442e-05
3.24591e-05
3.31617e-05
3.30453e-05
3.32764e-05
3.23791e-05
3.2277e-05
3.24002e-05
3.24862e-05
3.30925e-05
3.32607e-05
3.22931e-05
3.22221e-05
3.23749e-05
3.23112e-05
3.22727e-05
3.23876e-05
3.23466e-05
3.30127e-05
3.30412e-05
3.2271e-05
3.23528e-05
3.24876e-05
3.31368e-05
3.31845e-05
3.31972e-05
3.24075e-05
3.26186e-05
3.25069e-05
3.24498e-05
3.30561e-05
3.32106e-05
3.23922e-05
3.25637e-05
3.24722e-05
3.23086e-05
3.25321e-05
3.23416e-05
3.26448e-05
3.32484e-05
3.30527e-05
3.25559e-05
3.21883e-05
3.23943e-05
3.32043e-05
3.3132e-05
3.3026e-05
3.24774e-05
3.23773e-05
3.24878e-05
3.2367e-05
3.31913e-05
3.31188e-05
3.25088e-05
3.22918e-05
3.23792e-05
3.25442e-05
3.25927e-05
3.23503e-05
3.27788e-05
3.30578e-05
3.30356e-05
3.24069e-05
3.24604e-05
3.2563e-05
3.32265e-05
3.31532e-05
3.30059e-05
3.25528e-05
3.23688e-05
3.22927e-05
3.23309e-05
3.33511e-05
3.30188e-05
3.25679e-05
3.26087e-05
3.23504e-05
3.25155e-05
3.28961e-05
3.22675e-05
3.28001e-05
3.30804e-05
3.30036e-05
3.24415e-05
3.24448e-05
3.22835e-05
3.30492e-05
3.31502e-05
3.31226e-05
3.23362e-05
3.24778e-05
3.23598e-05
3.22948e-05
3.32163e-05
3.30245e-05
3.23345e-05
3.2279e-05
3.24296e-05
3.25308e-05
3.28221e-05
3.22208e-05
3.2685e-05
3.30325e-05
3.32047e-05
3.22483e-05
3.23459e-05
3.24086e-05
3.32322e-05
3.30654e-05
3.32576e-05
3.23813e-05
3.23893e-05
3.23636e-05
3.21981e-05
3.31813e-05
3.32649e-05
3.21946e-05
3.2302e-05
3.25252e-05
3.22532e-05
3.24147e-05
3.25104e-05
3.24169e-05
3.31615e-05
3.30193e-05
3.23924e-05
3.22107e-05
3.22348e-05
3.32208e-05
3.30276e-05
3.31633e-05
3.23935e-05
3.22942e-05
3.23392e-05
3.24263e-05
3.30293e-05
3.30544e-05
3.23568e-05
3.22878e-05
3.24073e-05
3.23612e-05
3.23641e-05
3.26514e-05
3.24146e-05
3.30026e-05
3.30511e-05
3.22426e-05
3.22756e-05
3.22714e-05
3.30697e-05
3.30911e-05
3.32334e-05
3.23362e-05
3.24185e-05
3.237e-05
3.23779e-05
3.30678e-05
3.30528e-05
3.25439e-05
3.24224e-05
3.23139e-05
3.24313e-05
3.23643e-05
3.23866e-05
3.25279e-05
3.30279e-05
3.30257e-05
3.2271e-05
3.23301e-05
3.23363e-05
3.321e-05
3.30427e-05
3.30688e-05
3.24126e-05
3.23879e-05
3.23723e-05
3.2382e-05
3.30827e-05
3.30571e-05
3.22579e-05
3.22574e-05
3.23486e-05
3.25699e-05
3.25892e-05
3.24631e-05
3.24141e-05
3.30362e-05
3.30316e-05
3.23206e-05
3.22043e-05
3.24839e-05
3.32814e-05
3.3337e-05
3.3263e-05
3.24873e-05
3.22757e-05
3.23197e-05
3.22039e-05
3.30736e-05
3.3069e-05
3.23171e-05
3.24133e-05
3.23031e-05
3.22618e-05
3.24219e-05
3.24335e-05
3.23784e-05
3.29927e-05
3.31218e-05
3.24656e-05
3.24104e-05
3.22676e-05
3.30231e-05
3.30259e-05
3.32192e-05
3.2341e-05
3.23712e-05
3.22782e-05
3.23515e-05
3.31431e-05
3.3087e-05
3.23938e-05
3.22599e-05
3.25086e-05
3.23144e-05
3.23264e-05
3.23695e-05
3.2458e-05
3.31555e-05
3.33302e-05
3.2294e-05
3.23079e-05
3.22123e-05
3.3124e-05
3.31478e-05
3.32109e-05
3.25316e-05
3.25374e-05
3.22746e-05
3.24017e-05
3.30615e-05
3.30567e-05
3.23629e-05
3.23921e-05
3.23644e-05
3.23292e-05
3.24398e-05
3.23884e-05
3.24118e-05
3.31256e-05
3.30181e-05
3.22062e-05
3.22654e-05
3.23149e-05
3.31596e-05
3.2993e-05
3.33625e-05
3.22594e-05
3.23657e-05
3.23397e-05
3.23267e-05
3.30685e-05
3.32065e-05
3.22819e-05
3.25159e-05
3.2282e-05
3.22234e-05
3.23981e-05
3.24331e-05
3.24061e-05
3.30674e-05
3.29846e-05
3.23004e-05
3.22014e-05
3.25328e-05
3.31034e-05
3.31172e-05
3.30631e-05
3.23551e-05
3.23294e-05
3.24262e-05
3.22172e-05
3.3128e-05
3.30916e-05
3.22285e-05
3.22627e-05
3.2233e-05
3.24508e-05
3.25943e-05
3.22528e-05
3.2588e-05
3.30647e-05
3.30778e-05
3.23418e-05
3.23903e-05
3.24476e-05
3.30978e-05
3.21907e-05
3.33144e-05
3.22746e-05
3.23598e-05
3.23576e-05
3.30705e-05
3.26375e-05
9.78085e-06
9.51835e-06
3.07477e-05
3.14121e-05
2.54081e-05
3.22377e-05
2.55583e-05
3.08628e-05
3.1616e-05
2.04236e-05
1.93685e-05
3.31502e-05
1.91312e-05
1.98409e-05
2.51957e-05
1.37301e-05
1.39479e-05
2.44588e-05
1.02265e-05
9.71487e-06
2.52887e-05
1.44547e-05
1.38138e-05
2.48167e-05
2.99629e-05
2.99713e-05
2.97623e-05
2.98615e-05
2.99052e-05
2.98494e-05
2.99245e-05
3.09047e-05
2.54445e-05
3.1703e-05
3.25483e-05
2.53547e-05
3.17058e-05
3.1019e-05
9.55528e-06
9.36611e-06
3.06639e-05
3.20427e-05
2.61341e-05
3.23453e-05
3.06733e-05
3.18508e-05
2.554e-05
1.87659e-05
1.95666e-05
3.29628e-05
1.87524e-05
1.91916e-05
2.51653e-05
1.43813e-05
2.52603e-05
1.43886e-05
9.70945e-06
1.00582e-05
2.41608e-05
1.36714e-05
2.44925e-05
1.34831e-05
2.98813e-05
2.98319e-05
2.99628e-05
2.99426e-05
3.05174e-05
2.97796e-05
3.02289e-05
3.07512e-05
2.5685e-05
3.1709e-05
3.23487e-05
3.03872e-05
2.51212e-05
3.16948e-05
9.71492e-06
9.60252e-06
3.08442e-05
3.17886e-05
2.53936e-05
3.24142e-05
3.07285e-05
3.18724e-05
2.52451e-05
1.82303e-05
2.02623e-05
3.29864e-05
1.84082e-05
1.93214e-05
2.50372e-05
1.3272e-05
2.51795e-05
1.36719e-05
9.56336e-06
9.63931e-06
2.45022e-05
1.34672e-05
2.45136e-05
1.44513e-05
3.02256e-05
3.01181e-05
2.99726e-05
2.99393e-05
3.02945e-05
2.98332e-05
3.02783e-05
3.08923e-05
2.62636e-05
3.16982e-05
3.23788e-05
3.07083e-05
2.54551e-05
3.1868e-05
9.52375e-06
9.5895e-06
3.06055e-05
3.16619e-05
2.54272e-05
3.23133e-05
3.05512e-05
3.16058e-05
2.54846e-05
1.88982e-05
2.00358e-05
3.34116e-05
1.88279e-05
1.92561e-05
2.47654e-05
1.38041e-05
2.52359e-05
1.33137e-05
9.98577e-06
9.90411e-06
2.40016e-05
1.35468e-05
2.41361e-05
1.35274e-05
3.0119e-05
3.00257e-05
3.0158e-05
2.98887e-05
2.99134e-05
3.00453e-05
3.00406e-05
3.05e-05
2.54274e-05
3.20021e-05
3.23391e-05
3.05029e-05
2.63757e-05
3.19854e-05
9.86395e-06
1.00637e-05
3.05428e-05
3.15614e-05
2.57209e-05
3.21369e-05
3.04858e-05
3.15495e-05
2.51534e-05
1.89112e-05
1.92025e-05
3.32372e-05
2.04557e-05
1.92501e-05
2.48574e-05
1.34769e-05
2.46506e-05
1.33036e-05
9.94265e-06
9.37741e-06
2.47824e-05
1.37897e-05
2.52661e-05
1.3904e-05
2.9935e-05
3.01405e-05
3.0263e-05
2.97841e-05
2.98509e-05
2.987e-05
2.99792e-05
3.06594e-05
2.57888e-05
3.19539e-05
3.23019e-05
3.05331e-05
2.51561e-05
3.17158e-05
9.66921e-06
9.70703e-06
3.0525e-05
3.15206e-05
2.5119e-05
3.22635e-05
3.06311e-05
3.15589e-05
2.52626e-05
1.87893e-05
1.9054e-05
3.33487e-05
1.86361e-05
2.03678e-05
2.54357e-05
1.34175e-05
2.47811e-05
1.3717e-05
9.6762e-06
9.70291e-06
2.41261e-05
1.32602e-05
2.46854e-05
1.34909e-05
2.98857e-05
2.98216e-05
2.99501e-05
2.98499e-05
2.98458e-05
2.99605e-05
2.99861e-05
3.06548e-05
2.55561e-05
3.15776e-05
3.23586e-05
3.11157e-05
2.56247e-05
3.17877e-05
9.92967e-06
1.01662e-05
3.08414e-05
3.16009e-05
2.52091e-05
3.2332e-05
3.07094e-05
3.15915e-05
2.56801e-05
1.86644e-05
1.87746e-05
3.31338e-05
1.90604e-05
1.89321e-05
2.49557e-05
1.32166e-05
2.45009e-05
1.33013e-05
9.52491e-06
9.8891e-06
2.40705e-05
1.4297e-05
2.41385e-05
1.36187e-05
2.97573e-05
3.00868e-05
2.99418e-05
2.99002e-05
2.98547e-05
3.00997e-05
3.01277e-05
3.04421e-05
2.51838e-05
3.16189e-05
3.23087e-05
3.04865e-05
2.57964e-05
3.17906e-05
9.6243e-06
1.02547e-05
3.07962e-05
3.17974e-05
2.52158e-05
3.23042e-05
3.09333e-05
3.15372e-05
2.50248e-05
1.90528e-05
1.89411e-05
3.32029e-05
1.97588e-05
1.95966e-05
2.49605e-05
1.3073e-05
2.45505e-05
1.3753e-05
9.85622e-06
1.01661e-05
2.42438e-05
1.32962e-05
2.44993e-05
1.37333e-05
2.98575e-05
2.97319e-05
2.97719e-05
2.99293e-05
3.01068e-05
2.97407e-05
2.98096e-05
3.05791e-05
2.61891e-05
3.16133e-05
3.2569e-05
3.05887e-05
2.53056e-05
3.17637e-05
9.72616e-06
1.00802e-05
3.0619e-05
3.16424e-05
2.5086e-05
3.22433e-05
3.06683e-05
3.17164e-05
2.49771e-05
1.98838e-05
1.95915e-05
3.33442e-05
1.88727e-05
1.94896e-05
2.48535e-05
1.38252e-05
2.47641e-05
1.38944e-05
1.02712e-05
1.02228e-05
2.39278e-05
1.35739e-05
2.40216e-05
1.34644e-05
3.02837e-05
3.00765e-05
2.97809e-05
2.99273e-05
2.99468e-05
3.01016e-05
3.03544e-05
3.04969e-05
2.62099e-05
3.1845e-05
3.24628e-05
3.09454e-05
2.55022e-05
3.18485e-05
9.7204e-06
9.85952e-06
3.07071e-05
3.16898e-05
2.50304e-05
3.21958e-05
3.0785e-05
3.18713e-05
2.52013e-05
1.856e-05
1.94966e-05
3.31102e-05
1.8797e-05
1.95585e-05
2.48336e-05
1.39285e-05
2.59007e-05
1.3922e-05
1.00891e-05
9.87351e-06
2.41688e-05
1.34914e-05
2.43404e-05
1.34843e-05
2.98798e-05
2.97796e-05
3.01605e-05
2.97944e-05
2.98803e-05
3.02999e-05
3.03937e-05
3.06953e-05
2.54664e-05
3.18706e-05
3.24078e-05
3.05267e-05
2.57033e-05
3.19002e-05
9.57616e-06
9.72597e-06
3.06464e-05
3.15978e-05
2.55691e-05
3.22233e-05
3.06727e-05
3.17483e-05
2.55286e-05
1.88406e-05
1.85478e-05
3.32361e-05
1.94592e-05
1.87177e-05
2.49531e-05
1.38547e-05
2.51234e-05
1.39514e-05
9.85597e-06
1.02286e-05
2.41251e-05
1.36417e-05
2.42369e-05
1.38528e-05
2.98843e-05
2.99409e-05
3.01336e-05
3.02024e-05
3.01165e-05
2.9867e-05
2.99719e-05
3.04352e-05
2.54531e-05
3.19496e-05
3.26269e-05
3.06533e-05
2.61214e-05
3.17891e-05
9.36203e-06
1.03273e-05
3.06898e-05
3.15578e-05
2.62489e-05
3.22535e-05
3.09814e-05
3.16527e-05
2.58549e-05
1.8921e-05
1.88559e-05
3.32986e-05
1.96366e-05
1.8812e-05
2.50125e-05
1.42289e-05
2.47934e-05
1.44798e-05
1.04532e-05
9.88835e-06
2.37955e-05
1.35915e-05
2.41476e-05
1.44392e-05
2.99253e-05
2.98837e-05
2.99165e-05
3.02099e-05
2.99214e-05
2.98186e-05
3.02744e-05
3.04771e-05
2.52064e-05
3.16072e-05
3.23938e-05
3.04575e-05
2.52547e-05
3.17347e-05
9.95126e-06
9.92305e-06
3.10994e-05
3.14208e-05
2.55198e-05
3.22775e-05
3.10021e-05
3.1399e-05
2.53505e-05
1.99339e-05
1.90088e-05
3.30667e-05
1.9751e-05
1.86903e-05
2.49745e-05
1.42001e-05
2.44079e-05
1.43206e-05
1.0354e-05
1.00448e-05
2.48739e-05
1.34367e-05
2.43407e-05
1.34425e-05
2.98336e-05
2.97986e-05
3.02748e-05
2.9987e-05
2.9937e-05
2.98612e-05
3.00171e-05
3.05369e-05
2.52003e-05
3.16841e-05
3.23227e-05
3.04316e-05
2.52932e-05
3.16198e-05
9.89213e-06
1.00556e-05
3.09848e-05
3.17438e-05
2.55702e-05
3.21568e-05
3.0493e-05
3.1633e-05
2.53119e-05
1.88286e-05
1.97811e-05
3.33405e-05
1.94251e-05
1.88972e-05
2.55759e-05
1.35327e-05
2.52836e-05
1.36178e-05
1.01243e-05
1.0107e-05
2.45081e-05
1.34366e-05
2.40704e-05
1.34114e-05
2.98874e-05
2.99593e-05
3.00229e-05
2.98989e-05
2.99581e-05
2.98672e-05
3.00154e-05
3.07117e-05
2.54923e-05
3.16194e-05
3.22078e-05
3.07961e-05
2.4946e-05
3.15667e-05
9.65464e-06
9.63716e-06
3.06164e-05
3.15802e-05
2.60708e-05
3.22235e-05
3.0512e-05
3.15456e-05
2.53462e-05
2.06473e-05
1.9712e-05
3.31599e-05
2.07068e-05
1.94419e-05
2.41747e-05
1.43258e-05
2.46374e-05
1.36941e-05
1.01395e-05
1.04094e-05
2.41283e-05
1.38796e-05
2.49195e-05
1.35262e-05
3.00028e-05
2.99151e-05
3.01989e-05
3.02009e-05
3.00141e-05
3.01654e-05
3.01571e-05
3.10606e-05
2.54517e-05
3.16757e-05
3.23676e-05
3.07566e-05
2.53906e-05
3.18362e-05
1.0054e-05
9.91448e-06
3.09518e-05
3.18393e-05
2.49789e-05
3.23041e-05
3.0518e-05
3.16176e-05
2.48762e-05
1.86159e-05
1.92114e-05
3.33419e-05
1.96024e-05
1.95073e-05
1.02162e-05
1.37847e-05
2.55028e-05
3.00763e-05
2.9835e-05
3.04068e-05
2.58637e-05
3.1555e-05
3.08352e-05
1.02957e-05
3.17987e-05
2.50856e-05
3.0327e-05
1.90676e-05
1.93746e-05
1.90017e-05
1.92517e-05
3.31722e-05
2.0327e-05
1.90365e-05
9.5101e-06
9.89201e-06
9.50336e-06
9.98626e-06
3.31657e-05
1.89701e-05
1.95381e-05
2.02381e-05
1.97769e-05
9.75387e-06
9.59379e-06
3.06389e-05
3.14206e-05
2.60085e-05
3.2486e-05
2.52139e-05
3.0634e-05
3.14387e-05
2.47258e-05
1.35241e-05
1.37137e-05
2.47084e-05
2.45287e-05
1.27983e-05
1.29717e-05
2.45466e-05
3.11086e-05
3.2347e-05
3.17476e-05
2.6089e-05
2.57384e-05
3.07315e-05
3.16308e-05
3.07162e-05
3.22638e-05
3.14511e-05
2.58866e-05
2.56358e-05
3.07751e-05
3.14231e-05
2.45154e-05
1.46747e-05
1.43768e-05
2.44327e-05
2.4345e-05
1.38368e-05
1.31057e-05
2.42254e-05
9.45892e-06
9.35287e-06
9.24797e-06
9.74706e-06
3.33028e-05
1.87853e-05
1.96126e-05
1.90298e-05
1.89047e-05
9.57684e-06
9.28635e-06
9.83365e-06
9.36812e-06
9.60488e-06
1.00503e-05
9.68056e-06
9.44121e-06
1.94618e-05
1.90495e-05
3.30853e-05
2.03506e-05
1.89846e-05
9.79528e-06
9.7452e-06
9.36993e-06
9.63748e-06
3.30804e-05
1.95716e-05
1.93945e-05
1.94904e-05
1.8792e-05
2.43979e-05
1.3955e-05
1.40093e-05
2.40357e-05
3.09325e-05
2.65296e-05
3.13935e-05
3.22967e-05
2.56828e-05
3.15916e-05
3.04646e-05
3.10761e-05
2.55028e-05
3.16152e-05
3.22832e-05
2.60644e-05
3.17008e-05
3.04604e-05
2.52337e-05
1.41793e-05
1.45838e-05
2.48209e-05
2.44649e-05
1.36305e-05
1.45169e-05
2.49617e-05
3.13006e-05
3.23487e-05
2.6423e-05
3.16987e-05
2.62805e-05
3.14099e-05
3.08855e-05
3.07763e-05
3.22925e-05
2.59651e-05
3.14617e-05
2.54829e-05
3.14671e-05
3.05446e-05
1.95148e-05
2.02507e-05
3.30286e-05
1.94759e-05
1.91266e-05
9.74123e-06
9.68347e-06
9.75801e-06
9.99482e-06
3.30528e-05
1.92639e-05
1.96154e-05
1.96399e-05
1.91403e-05
9.88208e-06
9.50933e-06
3.06014e-05
2.59328e-05
3.17228e-05
3.22731e-05
2.60654e-05
3.17552e-05
3.09978e-05
2.44556e-05
1.39005e-05
1.34152e-05
2.43615e-05
3.09933e-05
3.19302e-05
2.53059e-05
3.22723e-05
3.17882e-05
2.52808e-05
3.06674e-05
2.45267e-05
1.3543e-05
1.3668e-05
2.44392e-05
3.05107e-05
3.22958e-05
2.5339e-05
3.16711e-05
2.54922e-05
3.16998e-05
3.05121e-05
2.42918e-05
1.3484e-05
1.34033e-05
2.471e-05
3.06366e-05
3.22774e-05
3.16893e-05
2.52428e-05
3.19581e-05
2.58994e-05
3.06458e-05
2.46188e-05
1.31386e-05
1.33325e-05
2.45429e-05
3.05849e-05
3.15242e-05
2.5255e-05
3.22932e-05
3.14896e-05
2.53449e-05
3.05869e-05
2.49809e-05
1.41551e-05
1.35007e-05
2.58838e-05
3.04157e-05
3.23138e-05
2.50955e-05
3.17277e-05
2.53437e-05
3.1774e-05
3.05094e-05
2.38371e-05
1.31604e-05
1.32879e-05
2.36799e-05
3.0537e-05
3.23068e-05
3.14811e-05
2.53542e-05
3.14901e-05
2.53667e-05
3.06257e-05
2.44096e-05
1.36912e-05
1.34169e-05
2.39622e-05
1.91343e-05
1.93387e-05
3.3104e-05
1.8829e-05
1.93466e-05
9.68725e-06
9.50019e-06
9.56104e-06
9.36735e-06
3.31199e-05
1.94017e-05
1.9528e-05
1.89191e-05
1.96383e-05
9.61792e-06
9.60363e-06
3.05604e-05
3.17582e-05
2.55454e-05
3.23975e-05
3.06414e-05
3.15923e-05
2.55179e-05
2.46238e-05
1.38998e-05
2.50354e-05
1.38053e-05
2.44865e-05
1.33658e-05
2.42917e-05
1.31778e-05
3.06325e-05
3.24422e-05
3.17829e-05
2.55407e-05
3.17771e-05
2.63217e-05
3.08106e-05
3.06293e-05
3.22712e-05
3.15223e-05
2.55747e-05
3.15344e-05
2.53385e-05
3.07792e-05
2.46012e-05
1.36008e-05
1.35732e-05
2.47888e-05
2.44899e-05
1.33371e-05
1.32452e-05
2.51577e-05
9.63075e-06
9.46876e-06
9.7101e-06
9.47448e-06
3.31573e-05
1.90962e-05
1.97861e-05
1.85767e-05
1.91404e-05
9.16287e-06
9.11685e-06
9.63068e-06
9.61834e-06
1.00371e-05
9.54819e-06
9.42475e-06
9.98233e-06
1.99952e-05
1.86222e-05
3.30275e-05
1.95756e-05
1.97874e-05
9.59338e-06
9.4614e-06
9.77246e-06
9.51309e-06
3.30531e-05
1.91366e-05
1.88712e-05
1.94546e-05
1.89359e-05
2.5279e-05
1.38225e-05
2.55338e-05
1.36118e-05
3.11334e-05
2.60285e-05
3.16277e-05
3.25153e-05
3.12932e-05
2.64058e-05
3.16449e-05
3.07674e-05
2.61576e-05
3.15007e-05
3.23035e-05
3.08473e-05
2.60298e-05
3.14733e-05
2.45954e-05
1.39387e-05
1.37865e-05
2.4979e-05
2.55031e-05
1.36702e-05
1.42831e-05
2.4811e-05
3.06602e-05
3.23192e-05
2.55835e-05
3.1677e-05
2.58198e-05
3.17048e-05
3.10235e-05
3.07658e-05
3.25854e-05
2.56884e-05
3.17144e-05
2.57684e-05
3.16827e-05
3.06767e-05
1.92054e-05
1.89585e-05
3.30466e-05
1.93865e-05
1.94344e-05
9.5435e-06
1.00057e-05
9.62696e-06
9.68267e-06
3.30725e-05
1.94633e-05
2.01836e-05
1.94687e-05
1.95906e-05
1.00676e-05
1.02971e-05
3.03524e-05
2.51683e-05
3.1632e-05
3.23217e-05
3.04047e-05
2.52324e-05
3.17014e-05
2.41886e-05
1.39862e-05
2.44345e-05
1.4209e-05
3.06124e-05
3.1693e-05
2.52435e-05
3.22096e-05
3.0509e-05
3.1793e-05
2.61604e-05
2.47666e-05
1.41198e-05
1.40619e-05
2.43405e-05
3.09112e-05
3.23207e-05
2.52458e-05
3.20061e-05
2.52894e-05
3.16891e-05
3.06557e-05
2.41562e-05
1.3968e-05
1.42225e-05
2.39401e-05
3.08449e-05
3.22969e-05
3.16276e-05
2.60603e-05
3.15584e-05
2.54886e-05
3.03354e-05
2.43502e-05
1.29873e-05
2.36621e-05
1.30926e-05
3.06854e-05
3.15309e-05
2.53246e-05
3.25205e-05
3.05105e-05
3.15531e-05
2.54065e-05
2.39645e-05
1.39082e-05
2.41532e-05
1.33749e-05
3.03851e-05
3.25584e-05
2.56757e-05
3.177e-05
2.52989e-05
3.19394e-05
3.10549e-05
2.41313e-05
1.37997e-05
1.36231e-05
2.42507e-05
3.05551e-05
3.23866e-05
3.15975e-05
2.51259e-05
3.16268e-05
2.52897e-05
3.05763e-05
2.39655e-05
1.35046e-05
1.31309e-05
2.46013e-05
1.92731e-05
1.95725e-05
3.29765e-05
1.96888e-05
1.96469e-05
9.70236e-06
9.64898e-06
9.54275e-06
9.60561e-06
3.30045e-05
1.96325e-05
2.01771e-05
1.89191e-05
1.87494e-05
9.39729e-06
9.15179e-06
3.07197e-05
3.15027e-05
2.61685e-05
3.22902e-05
3.08045e-05
3.17817e-05
2.55423e-05
2.53465e-05
1.31884e-05
2.48995e-05
1.2983e-05
2.49184e-05
1.41014e-05
2.58351e-05
1.38495e-05
3.09822e-05
3.23447e-05
3.16938e-05
2.54422e-05
3.19439e-05
2.51896e-05
3.06153e-05
3.06715e-05
3.24603e-05
3.17819e-05
2.57656e-05
3.16552e-05
2.62014e-05
3.08827e-05
2.462e-05
1.3233e-05
1.29559e-05
2.4708e-05
2.48046e-05
1.36434e-05
1.32852e-05
2.50012e-05
9.18837e-06
9.14951e-06
9.8229e-06
9.3752e-06
3.31637e-05
1.91051e-05
2.04276e-05
1.9419e-05
1.90593e-05
9.16008e-06
9.02246e-06
9.824e-06
9.46484e-06
9.58858e-06
9.67918e-06
9.6623e-06
9.64756e-06
1.9024e-05
1.92241e-05
3.32385e-05
1.93464e-05
1.91632e-05
9.62633e-06
1.0019e-05
9.56414e-06
9.96507e-06
3.32078e-05
1.93058e-05
1.93402e-05
1.90425e-05
1.91017e-05
2.49251e-05
1.34017e-05
2.55408e-05
1.32675e-05
3.13117e-05
2.53758e-05
3.18151e-05
3.24794e-05
3.08862e-05
2.57407e-05
3.20424e-05
3.07116e-05
2.5638e-05
3.17418e-05
3.26834e-05
3.06663e-05
2.55628e-05
3.16989e-05
2.50192e-05
1.34228e-05
1.33009e-05
2.58834e-05
2.49813e-05
1.3565e-05
1.36681e-05
2.52912e-05
3.0978e-05
3.24426e-05
2.55384e-05
3.19656e-05
2.5596e-05
3.18396e-05
3.07394e-05
3.07882e-05
3.24601e-05
2.54251e-05
3.15654e-05
2.55883e-05
3.17859e-05
3.07582e-05
1.94635e-05
2.0192e-05
3.31456e-05
1.94781e-05
1.96624e-05
1.02466e-05
9.74922e-06
9.69441e-06
9.79123e-06
3.33445e-05
1.93733e-05
2.01166e-05
1.95871e-05
1.96654e-05
9.9814e-06
9.96794e-06
3.04944e-05
2.57749e-05
3.18061e-05
3.24154e-05
3.09183e-05
2.5781e-05
3.20353e-05
2.44677e-05
1.42505e-05
2.41365e-05
1.40238e-05
3.03067e-05
3.1638e-05
2.59224e-05
3.23988e-05
3.03209e-05
3.16088e-05
2.65729e-05
2.44466e-05
1.34797e-05
1.38105e-05
2.42131e-05
3.07701e-05
3.25001e-05
2.5848e-05
3.19874e-05
2.52008e-05
3.18734e-05
3.11309e-05
2.38371e-05
1.39886e-05
1.42448e-05
2.41341e-05
3.04038e-05
3.23365e-05
3.16363e-05
2.64149e-05
3.16084e-05
2.59934e-05
3.04662e-05
2.52877e-05
1.44554e-05
2.42929e-05
1.36831e-05
3.10223e-05
3.15777e-05
2.50922e-05
3.26791e-05
3.10765e-05
3.1574e-05
2.5954e-05
2.39836e-05
1.32599e-05
2.48226e-05
1.30331e-05
3.04457e-05
3.23236e-05
2.55185e-05
3.19935e-05
2.54266e-05
3.17978e-05
3.05629e-05
2.44554e-05
1.40152e-05
1.37718e-05
2.42596e-05
3.05389e-05
3.27111e-05
3.18888e-05
2.53325e-05
3.17749e-05
2.58509e-05
3.05013e-05
2.3911e-05
1.32445e-05
1.30559e-05
2.46466e-05
1.90179e-05
1.97317e-05
3.30459e-05
1.95819e-05
1.90445e-05
9.47457e-06
9.33057e-06
9.83997e-06
9.768e-06
3.30482e-05
1.9352e-05
2.03896e-05
1.99524e-05
2.03115e-05
9.67547e-06
9.48268e-06
3.06621e-05
3.17769e-05
2.60679e-05
3.23362e-05
3.1049e-05
3.18383e-05
2.52352e-05
2.41088e-05
1.34729e-05
2.48774e-05
1.36528e-05
2.45763e-05
1.30547e-05
2.50716e-05
1.40318e-05
3.09596e-05
3.22357e-05
3.16044e-05
2.54434e-05
3.15653e-05
2.53513e-05
3.04413e-05
3.05932e-05
3.23175e-05
3.17333e-05
2.52932e-05
3.15966e-05
2.53333e-05
3.05831e-05
2.45198e-05
1.33852e-05
1.2986e-05
2.40435e-05
2.46053e-05
1.31987e-05
1.3338e-05
2.42285e-05
9.07026e-06
9.29488e-06
9.71101e-06
9.49886e-06
3.31521e-05
1.90818e-05
1.89638e-05
1.88054e-05
1.93054e-05
9.25597e-06
9.23958e-06
9.26873e-06
9.72155e-06
9.60665e-06
9.96442e-06
9.84118e-06
9.53852e-06
2.00585e-05
1.92824e-05
3.30875e-05
2.02929e-05
1.89434e-05
9.51507e-06
9.76205e-06
9.34661e-06
9.38398e-06
3.31424e-05
1.94508e-05
1.85574e-05
1.94412e-05
1.94309e-05
2.45137e-05
1.36506e-05
2.46611e-05
1.3464e-05
3.0813e-05
2.60563e-05
3.16899e-05
3.24134e-05
3.11834e-05
2.56957e-05
3.16636e-05
3.0524e-05
2.59896e-05
3.15982e-05
3.24031e-05
3.09962e-05
2.53285e-05
3.16686e-05
2.46751e-05
1.36957e-05
1.40835e-05
2.48629e-05
2.53839e-05
1.34323e-05
1.39433e-05
2.46768e-05
3.08884e-05
3.23846e-05
2.56937e-05
3.17068e-05
2.55569e-05
3.16658e-05
3.07148e-05
3.05229e-05
3.23738e-05
2.54055e-05
3.14937e-05
2.53719e-05
3.17245e-05
3.09474e-05
2.00027e-05
1.92251e-05
3.30829e-05
1.93294e-05
1.94373e-05
1.0035e-05
9.87009e-06
9.67165e-06
1.01815e-05
3.31577e-05
1.96124e-05
1.94121e-05
2.00515e-05
1.96937e-05
9.61344e-06
9.77922e-06
3.05402e-05
2.52159e-05
3.17324e-05
3.22792e-05
3.07537e-05
2.50581e-05
3.17151e-05
2.43354e-05
1.47246e-05
2.4206e-05
1.43302e-05
3.03671e-05
3.15799e-05
2.60953e-05
3.25735e-05
3.06275e-05
3.16936e-05
2.60178e-05
2.52262e-05
1.31304e-05
1.34419e-05
2.51956e-05
3.0478e-05
3.24017e-05
2.49981e-05
3.16297e-05
2.50695e-05
3.16279e-05
3.08423e-05
2.37276e-05
1.43077e-05
1.48306e-05
2.42987e-05
3.05748e-05
3.24243e-05
3.16496e-05
2.54958e-05
3.16633e-05
2.6656e-05
3.05308e-05
2.4082e-05
1.33986e-05
2.42097e-05
1.36509e-05
3.05358e-05
3.17539e-05
2.53791e-05
3.27261e-05
3.10159e-05
3.17402e-05
2.55103e-05
2.43697e-05
1.30173e-05
2.39672e-05
1.34129e-05
3.06379e-05
3.24638e-05
2.53826e-05
3.18992e-05
2.57014e-05
3.19444e-05
3.06849e-05
2.42857e-05
1.32587e-05
1.39049e-05
2.47766e-05
3.04472e-05
3.29708e-05
3.18155e-05
2.51219e-05
3.18196e-05
2.59612e-05
3.05762e-05
2.42574e-05
1.347e-05
1.35049e-05
2.44284e-05
2.04508e-05
2.06777e-05
3.31318e-05
1.99824e-05
1.98711e-05
9.62706e-06
9.50845e-06
9.74943e-06
1.02367e-05
3.32733e-05
1.93058e-05
2.00191e-05
2.00088e-05
2.014e-05
9.53679e-06
9.49776e-06
3.04465e-05
3.19265e-05
2.54625e-05
3.24332e-05
3.05454e-05
3.17116e-05
2.55046e-05
2.4508e-05
1.32558e-05
2.40202e-05
1.31787e-05
2.42542e-05
1.35124e-05
2.41078e-05
1.32732e-05
3.09422e-05
3.22182e-05
3.15325e-05
2.51664e-05
3.15293e-05
2.51125e-05
3.10261e-05
3.04884e-05
3.2447e-05
3.16574e-05
2.52545e-05
3.16407e-05
2.54151e-05
3.05006e-05
2.49916e-05
1.36925e-05
1.32233e-05
2.56293e-05
2.43852e-05
1.33497e-05
1.37404e-05
2.47818e-05
9.13036e-06
9.41624e-06
9.34147e-06
9.78751e-06
3.34764e-05
1.88722e-05
1.91168e-05
1.96026e-05
1.89852e-05
9.69679e-06
9.28404e-06
9.71824e-06
9.48459e-06
9.89286e-06
9.67587e-06
9.36472e-06
9.40608e-06
1.98629e-05
1.86958e-05
3.30227e-05
1.9242e-05
1.86246e-05
9.38289e-06
9.70819e-06
9.34732e-06
9.44994e-06
3.30111e-05
1.92275e-05
1.96269e-05
1.97396e-05
1.94613e-05
2.54119e-05
1.34651e-05
2.52852e-05
1.33488e-05
3.05932e-05
2.55499e-05
3.17608e-05
3.23175e-05
3.06661e-05
2.56779e-05
3.15039e-05
3.05556e-05
2.59895e-05
3.14863e-05
3.2378e-05
3.09681e-05
2.522e-05
3.16425e-05
2.49395e-05
1.34487e-05
1.32881e-05
2.45559e-05
2.46853e-05
1.39169e-05
1.34164e-05
2.44968e-05
3.05815e-05
3.23482e-05
2.56825e-05
3.15293e-05
2.55457e-05
3.16998e-05
3.07129e-05
3.05131e-05
3.23046e-05
2.52784e-05
3.16894e-05
2.51578e-05
3.16334e-05
3.08368e-05
1.99117e-05
1.95891e-05
3.3077e-05
1.87155e-05
1.91166e-05
9.59081e-06
9.66227e-06
1.00038e-05
9.38818e-06
3.30889e-05
2.03472e-05
1.9517e-05
1.86629e-05
1.91874e-05
9.64842e-06
9.77012e-06
3.03602e-05
2.51315e-05
3.1595e-05
3.23375e-05
3.04498e-05
2.53253e-05
3.18616e-05
2.50866e-05
1.48237e-05
2.4319e-05
1.44637e-05
3.03807e-05
3.18875e-05
2.5588e-05
3.24731e-05
3.05546e-05
3.17023e-05
2.5312e-05
2.47601e-05
1.31186e-05
1.40101e-05
2.51319e-05
3.04731e-05
3.24192e-05
2.49263e-05
3.17912e-05
2.51664e-05
3.17108e-05
3.04013e-05
2.43843e-05
1.41366e-05
1.44226e-05
2.52763e-05
3.07744e-05
3.24843e-05
3.15779e-05
2.55147e-05
3.16224e-05
2.58547e-05
3.04863e-05
2.53034e-05
1.32059e-05
2.41074e-05
1.33297e-05
3.05543e-05
3.18627e-05
2.51968e-05
3.26574e-05
3.05096e-05
3.19784e-05
2.52058e-05
2.45244e-05
1.29457e-05
2.44871e-05
1.35452e-05
3.09154e-05
3.23286e-05
2.51942e-05
3.16964e-05
2.50985e-05
3.17954e-05
3.05917e-05