/*--------------------------------*- C++ -*----------------------------------*\
| =========                 |                                                 |
| \\      /  F ield         | OpenFOAM: The Open Source CFD Toolbox           |
|  \\    /   O peration     | Version:  2206                                  |
|   \\  /    A nd           | Website:  www.openfoam.com                      |
|    \\/     M anipulation  |                                                 |
\*---------------------------------------------------------------------------*/
FoamFile
{
    version     2.0;
    format      ascii;
    arch        "LSB;label=32;scalar=64";
    class       volScalarField;
    location    "10";
    object      omega;
}
// * * * * * * * * * * * * * * * * * * * * * * * * * * * * * * * * * * * * * //

dimensions      [0 0 -1 0 0 0 0];

internalField   nonuniform List<scalar> 
66701
(
333.171
359.399
212.18
118.814
259.196
66.7404
76.7681
234.101
358.477
208.982
116.35
258.294
66.6557
233.106
76.5098
332.675
723.368
1634
4421.52
16437.5
116912
721.934
1633.64
4420.29
16430.2
116840
746.228
1653.58
4453.07
16489.5
116803
745.8
1653.35
4452.87
16489.4
116814
723.961
1634.02
4420.87
16435
116892
721.634
1633.61
4420.33
16430.5
116853
736.696
1645.24
4437.94
16457.5
116752
733.874
1638.92
4426.94
16435.3
116727
736.442
1645.2
4437.93
16456.5
116748
733.818
1638.84
4426.75
16435
116725
334.554
335.413
21.6611
109.437
113.313
212.376
20.43
59.46
67.8195
213.784
29.5187
20.536
61.3499
19.6317
67.7689
210.812
29.6439
20.383
19.6147
58.7552
334.139
21.5249
111.973
332.467
164.05
346.896
349.212
161.249
343.452
345.96
73.7578
221.288
39.3443
104.331
71.2452
217.14
37.726
74.0774
224.447
40.7766
109.099
73.3502
221.663
39.0715
258.363
78.4951
230.887
66.1032
258.172
76.3402
232.923
358.946
120.623
211.949
358.927
118.863
257.972
234.917
78.1618
66.0051
257.689
232.145
76.7331
357.147
118.254
207.07
356.051
115.101
328.495
158.467
342.812
342.323
71.5385
39.7588
107.029
38.3649
220.275
71.365
109.699
218.897
38.9006
332.545
18.935
18.6369
18.7358
18.6966
18.8509
18.63
18.6763
18.4848
18.7102
18.5543
18.7237
18.455
36.0078
21.5896
25.4973
25.7433
35.3133
25.0895
25.2099
23.9354
38.3205
28.9691
56.9465
28.2374
23.9784
37.4528
22.6495
32.1899
21.9646
29.0196
22.595
30.94
22.0476
24.3234
40.3198
29.3434
58.0825
28.2859
24.0457
38.8792
22.521
22.0912
31.828
28.8066
22.468
21.9876
30.8744
23.8542
38.7475
28.7574
56.0801
23.7449
37.3226
27.9106
35.1053
21.5337
25.3516
24.9717
25.207
724.275
1634.09
4421.64
16437.9
116912
724.268
1634.14
4421.62
16437.7
116912
747.22
1653.86
4453.55
16490.7
116814
746.841
1653.53
4452.96
16489.5
116803
746.145
1653.24
4452.62
16489.1
116814
723.944
1634.16
4421.45
16435.9
116892
722.889
1633.87
4421.07
16436.9
116912
736.323
1644.72
4437.24
16456.6
116752
734.336
1638.9
4426.88
16435.1
116727
736.771
1645.37
4437.93
16457.2
116752
733.127
1638.65
4426.36
16434.7
116727
745.575
1653.13
4452.17
16488.5
116803
736.181
1644.63
4437.18
16456
116748
734.518
1639.05
4427.15
16435.6
116725
736.894
1645.3
4437.82
16456.5
116748
733.207
1638.79
4426.55
16434.8
116725
744.845
1652.92
4452.08
16488.8
116814
723.043
1633.9
4420.94
16434.9
116892
745.809
1651.91
4449.81
16481.8
116759
724.405
1633.74
4420.65
16434.2
116881
724.843
1638.5
4429.18
16450.7
116901
745.73
1652.5
4450.83
16482.7
116777
744.032
1651.77
4449.6
16481.4
116777
725.824
1638.8
4429.2
16451.7
116921
745.726
1652.54
4450.84
16484.5
116796
744.352
1652.13
4450.09
16483.7
116796
723.196
1638.26
4428.68
16449.8
116901
724.45
1638.52
4428.58
16450.8
116921
721.669
1633.2
4419.62
16429.5
116840
722.043
1633.84
4420.34
16430.2
116840
721.409
1633.27
4419.83
16429.9
116853
720.184
1633.63
4420.36
16430.2
116853
744.698
1651.76
4449.74
16482.3
116778
723.91
1638
4428.84
16452
116918
723.34
1637.96
4428.64
16451
116904
20.3223
21.6219
18.8851
20.5003
20.3677
21.7074
18.8179
20.4993
20.3845
21.7396
18.8474
20.483
20.3847
21.7298
18.7815
20.4209
20.4037
21.7241
18.8047
20.4092
20.3872
21.7315
18.7966
20.423
20.368
21.7179
18.7245
20.4146
20.3709
21.7183
18.7876
20.4091
20.3752
21.7162
18.8376
20.4304
20.3364
21.7004
18.8696
20.4215
20.3339
21.709
18.879
20.4282
20.3455
21.7238
18.9156
20.4447
20.3795
21.7239
18.9394
20.4565
20.3668
21.7281
18.9169
20.4861
20.3726
21.7072
18.9452
20.4582
20.3861
21.7178
18.9013
20.3747
20.3958
21.598
21.4582
21.6333
20.4371
20.403
20.4286
21.6717
21.6601
21.6659
20.367
20.3822
20.3302
20.3248
21.6422
21.598
20.5402
20.4928
20.5009
20.5106
20.4137
20.5027
20.4269
21.5576
21.6447
20.43
20.4112
20.3917
21.6523
21.5435
21.7133
20.3357
20.3527
20.3517
20.3388
21.5472
21.6182
20.4981
20.4938
20.4974
20.4432
20.4442
20.5285
20.4639
21.5766
21.5914
20.4169
20.3902
20.3827
21.639
21.5845
21.5971
20.3977
20.3667
20.3589
20.3805
21.5297
21.6164
20.478
20.4697
20.4467
20.4211
20.4691
20.4455
20.436
21.5303
21.5898
20.4107
20.4141
20.4036
21.6329
21.5481
21.6494
20.3931
20.4342
20.3449
20.4422
21.5282
21.6179
20.4303
20.4243
20.4337
20.394
20.4641
20.4125
20.492
21.5074
21.5352
20.45
20.3981
20.4197
21.6414
21.6078
21.6228
20.3463
20.4779
20.3318
20.4433
21.5017
21.6377
20.4563
20.3836
20.4619
20.3488
20.5178
20.4228
20.4734
21.4346
21.3925
20.4419
20.3724
20.4047
21.6306
21.6194
21.6892
20.3337
20.4631
20.4069
20.4243
21.582
21.6475
20.4699
20.3315
20.4234
20.332
20.457
20.4181
20.4361
21.4382
21.5645
20.4204
20.3754
20.3983
21.6316
21.6385
21.7087
20.3865
20.4321
20.3786
20.444
21.5999
21.6277
20.4514
20.3568
20.4458
20.3615
20.4344
20.4098
20.4355
21.5313
21.5316
20.4153
20.3903
20.4054
21.6396
21.6492
21.7185
20.3835
20.4186
20.3683
20.401
21.5887
21.6522
20.4493
20.3542
20.4649
20.3445
20.4669
20.4372
20.4649
21.473
21.5076
20.3806
20.3666
20.3394
21.622
21.6211
21.7167
20.4072
20.3887
20.3812
20.3226
21.5882
21.5882
20.4928
20.3389
20.4694
20.3305
20.5098
20.419
20.4956
21.4491
21.5567
20.3506
20.3444
20.3214
21.663
21.6521
21.6796
20.4175
20.314
20.3801
20.3073
21.4776
21.6547
20.4889
20.3582
20.477
20.3825
20.5167
20.4445
20.4888
21.4655
21.572
20.3546
20.3484
20.3218
21.6389
21.5789
21.7133
20.4207
20.3399
20.4031
20.2928
21.5869
21.6414
20.5143
20.4011
20.4966
20.3801
20.5114
20.4372
20.498
21.4644
21.5283
20.3347
20.3942
20.314
21.6312
21.5963
21.7227
20.444
20.3053
20.4215
20.2714
21.575
21.6346
20.516
20.3786
20.4993
20.3845
20.5165
20.4516
20.495
21.4255
21.5643
20.3314
20.3664
20.3155
21.6381
21.6382
21.6777
20.4598
20.2752
20.426
20.2722
21.5446
21.5999
20.5221
20.4407
20.5128
20.4129
20.5073
20.4941
20.475
21.4846
21.5679
20.3071
20.3849
20.2869
21.612
21.6154
21.6886
20.4665
20.2877
20.404
20.2686
21.4797
21.5954
20.5358
20.3911
20.5058
20.373
20.4638
20.4796
20.478
21.4884
21.5543
20.3159
20.3902
20.2966
21.6295
21.6028
21.6501
20.4129
20.2932
20.5418
20.4088
21.5343
21.6283
20.5316
20.3804
20.4808
20.3248
20.5062
20.4252
20.4472
21.5284
21.4914
20.3077
20.4084
20.2891
21.5786
20.4015
21.5364
20.5058
20.3299
20.4603
21.3719
20.3356
330.022
329.465
28.8739
19.6306
57.6087
20.3274
57.7012
28.7632
19.7097
110.754
109.669
21.6258
108.853
112.572
64.587
211.283
209.911
65.5158
333.625
332.597
67.3687
213.355
214.115
67.2411
18.8573
18.8907
18.8957
18.8892
18.828
18.8571
18.8136
29.7163
60.6725
19.6159
20.5144
61.0198
19.7241
29.9636
336.41
335.651
28.6602
19.556
58.8645
20.4255
28.8827
19.6431
58.2863
114.494
110.335
21.7121
115.304
111.113
63.7734
210.292
64.1415
212.302
332.447
332.777
67.8971
215.083
67.925
214.412
19.1241
18.9745
19.0599
19.0466
18.8745
18.8266
18.9002
29.7091
61.0059
19.5729
20.5067
29.8293
61.154
19.6125
335.659
334.503
28.8927
19.5
60.0618
20.4012
28.6267
19.6341
60.5044
115.635
112.02
21.6428
114.882
111.842
64.6413
212.655
64.6916
212.042
334.007
333.396
68.3225
214.735
67.8557
214.308
19.0292
19.1726
19.1478
18.9894
18.7758
18.8794
18.9282
29.5381
59.9159
19.5749
20.4662
29.7445
60.3773
19.7715
335.713
335.509
29.1845
19.5638
60.3323
20.4295
29.0153
19.7328
59.7446
114.667
112.181
21.601
113.237
111.662
65.0509
213.057
64.7494
212.2
332.808
332.033
68.8385
214.844
68.8097
214.668
19.0038
19.2096
19.0696
18.8687
18.7025
19.0842
19.0587
29.0685
60.5594
19.5725
20.4107
29.9191
60.7745
19.6699
335.356
334.556
28.8391
19.6603
60.075
20.4076
29.133
19.8724
57.914
113.335
112.76
21.7096
113.899
112.341
65.0215
212.107
65.4489
211.761
335.452
331.97
67.0457
215.565
67.4457
215.188
18.8703
18.9658
18.9317
18.8792
18.8106
18.8623
18.8368
29.0944
61.2083
19.6153
20.4306
29.4837
60.8383
19.7214
334.668
334.226
28.6924
19.5845
60.4284
20.4028
29.0083
19.7466
60.5182
113.56
112.853
21.7051
113.704
112.163
65.0211
213.853
65.1606
214.564
334.924
333.245
68.0126
215.627
67.76
215.263
19.0927
19.2037
19.1174
18.9138
18.8465
18.8691
18.8019
29.3551
60.6732
19.6175
20.4216
29.3559
61.5265
19.6807
334.463
335.169
28.6148
19.5615
60.4085
20.3884
28.8932
19.6377
60.4286
114.285
112.695
21.6774
113.855
111.7
64.7403
214.162
65.5872
212.836
334.28
330.073
67.5276
215.522
68.5851
215.075
19.1191
19.1361
18.945
18.8523
18.9668
18.7561
18.7621
29.6468
61.3774
19.6001
20.4107
29.5847
58.2007
19.7273
334.935
333.594
28.4152
19.5257
60.5299
20.39
28.637
19.6085
60.6967
113.676
112.894
21.687
113.1
112.558
64.049
213.259
63.7867
211.453
332.324
332.495
68.3754
215.352
67.7758
213.805
18.8565
18.9025
18.9254
18.8263
18.7884
18.9195
18.7938
29.8461
60.9428
19.5277
20.4279
29.7606
60.2741
19.6835
335
335.232
28.5861
19.5072
60.7086
20.3741
28.8643
19.5796
58.3152
113.12
113.113
21.6432
113.022
112.567
64.3839
211.599
64.2949
210.369
332.275
329.45
68.1055
215.723
68.2706
214.405
18.9554
18.9321
19.0071
18.9504
18.7991
18.8165
18.8432
29.4667
60.4862
19.5587
20.4331
29.8829
60.4829
19.7494
335.917
335.609
28.5933
19.5145
59.9902
20.3505
28.3675
19.6615
59.8596
115.317
112.981
21.6883
114.06
112.196
61.3945
211.024
64.7823
210.536
331.967
331.99
68.2676
214.473
68.0599
213.81
19.1051
19.1044
19.0493
18.9494
18.7667
18.9401
18.8716
29.2808
60.5198
19.5972
20.4396
29.1747
60.689
19.6756
336.324
335.442
28.5824
19.4838
60.0624
20.3643
28.7376
19.6378
59.6512
113.573
111.876
21.674
113.276
112.158
64.7312
211.599
64.2845
211.006
331.977
331.33
67.8623
214.73
68.6147
212.732
18.9999
19.1925
19.0722
18.9886
18.73
18.967
18.8815
29.6426
60.6354
19.5514
20.4202
29.6695
60.3988
19.6752
335.874
335.03
28.5609
19.4767
59.3062
20.3939
28.6387
19.5751
59.4351
113.387
112.232
21.6153
113.164
112.106
65.0433
211.451
65.1287
211.276
331.619
331.972
69.1438
214.578
69.0396
213.65
18.8901
19.1212
19.0688
19.0254
18.7499
18.8978
18.8692
29.9364
61.6421
19.5706
20.4605
29.748
61.0624
19.5608
334.97
334.089
29.2298
19.4929
59.7375
20.3908
29.0179
19.6598
59.2207
113.393
112.502
21.6776
113.603
112.072
61.9183
211.526
64.8572
210.094
332.833
332.437
68.7938
215.3
68.2025
214.68
18.9613
19.2019
19.1242
19.0201
18.8204
18.9276
18.8365
29.5214
60.9586
19.5603
20.4753
30.0776
60.9968
19.624
335.243
334.726
29.3091
19.5088
60.3063
20.391
29.4316
19.6503
59.9874
115.076
110.423
21.667
113.765
112.96
64.1305
210.789
64.5064
211.171
332.529
332.054
66.8162
215.257
69.9336
214.674
19.0084
19.1004
18.9228
19.0255
18.7825
18.8701
18.8561
29.0731
61.2338
19.5796
20.5004
29.2528
60.6385
19.803
335.717
335.441
28.9373
19.527
60.1657
20.3867
29.2432
19.6646
60.363
112.854
112.553
21.6356
113.205
111.763
66.8164
211.82
65.4163
210.192
332.245
332.1
66.5931
214.811
69.4033
214.588
18.9567
19.0444
18.9176
19.1223
18.8451
18.8771
18.8252
28.9808
60.4855
19.6501
20.451
29.1978
60.2342
19.7415
335.762
334.441
29.4119
19.5879
61.7487
20.3993
29.2068
19.7015
60.5111
115.887
111.145
21.7013
114.615
111.737
333.792
213.515
68.004
19.0464
18.9997
19.099
59.8042
19.6664
29.007
333.236
19.6047
59.9661
29.3166
114.078
112.146
110.683
107.616
21.3569
108.229
110.004
332.434
331.681
333.413
329.355
21.3947
112.776
109.466
106.971
105.738
333.19
328.289
28.7569
19.6835
59.4496
20.4653
59.8604
28.6087
19.782
66.2822
210.33
210.368
66.2273
63.9006
215.464
210.777
65.4521
27.9357
20.3445
19.599
58.5071
54.5876
28.7623
19.6386
28.2948
20.4513
19.674
59.3643
57.1264
28.7955
19.8284
64.266
208.562
206.246
65.3104
65.2587
213.183
212.589
65.5569
336.257
332.245
334.133
333.331
21.5941
111.026
108.145
108.226
111.255
336.523
335.121
333.731
327.798
334.12
333.115
335.737
336.574
108.161
113.65
21.6612
108.762
113.096
332.761
330.953
333.787
331.345
21.5482
108.755
113.295
104.079
111.828
65.6583
211.965
210.733
67.2418
28.3292
58.8853
19.5167
20.3373
58.0453
19.5422
28.7736
28.719
58.3179
19.508
20.3537
57.9012
19.6703
29.1201
63.0093
204.848
207.388
62.8683
61.9871
211.709
205.106
63.9246
27.334
20.3171
57.4434
19.5043
56.4694
19.5688
27.8236
28.0891
20.3305
58.019
19.5078
55.8415
19.5359
28.6183
109.258
111.413
21.6367
108.65
111.692
335.802
335.612
331.562
328.218
21.5754
109.387
108.613
104.838
106.238
333.625
332.497
29.1898
60.1913
19.6345
20.5418
57.5715
19.6921
29.2707
68.4146
211.86
212.821
68.7082
29.4686
19.7802
60.3154
20.4993
19.9026
60.1753
29.7508
65.4821
212.149
211.295
65.3545
28.1673
20.5194
60.5635
19.5903
60.1855
19.7164
29.3125
66.8596
212.265
208.582
67.8939
28.3392
20.5279
19.6767
59.4929
19.7376
57.1101
29.636
69.5385
215.279
215.781
69.5491
28.995
19.5748
59.9843
20.4353
19.6355
60.6875
29.6375
67.944
213.92
214.422
68.2689
29.1737
20.4886
59.8393
19.5531
57.6998
19.5936
29.6643
68.4078
215.429
211.724
69.1175
29.3518
20.4281
19.5415
60.58
19.6671
58.4463
29.6502
67.2102
213.413
212.751
68.1825
110.85
106.094
21.6411
112.843
110.28
331.823
334.017
335.162
330.34
21.573
111.834
111.76
107.835
105.952
334.713
332.225
28.4569
19.6888
57.5464
20.4172
28.3345
19.7333
59.4081
65.5181
209.869
63.905
211.043
64.4468
210.265
63.2989
213.113
28.1555
20.3895
19.6221
59.2295
19.6279
56.9025
28.4996
27.9398
20.4084
19.5942
58.9954
19.7058
57.9432
28.4885
63.244
212.932
206.684
64.5423
60.879
213.224
210.547
65.0505
336.132
337.65
329.641
332.791
21.6579
112.808
108.624
113.261
108.244
337.277
335.937
330.509
329.802
330.772
334.484
330.883
332.227
106.426
112.083
21.5817
110.881
112.877
334.437
333.093
334.48
334.224
21.6195
110.829
113.189
109.968
111.174
64.2408
207.579
60.6079
211.2
28.0798
55.8959
19.6065
20.3597
28.1328
58.919
19.6028
28.0634
55.2095
19.73
20.3423
28.1824
58.4555
19.5724
61.0917
210.911
210.034
62.2912
62.3426
212.277
204.474
63.0966
28.0292
20.3263
59.0605
19.4709
57.9247
19.6001
28.2124
27.4579
20.338
58.8839
19.5379
54.7449
19.5839
28.453
105.532
110.373
21.5771
110.475
110.91
329.667
335.285
330.579
326.82
21.5457
109.959
109.195
107.18
104.989
334.322
333.118
29.4886
59.6382
19.6349
20.5208
29.049
61.1137
19.7144
68.0513
207.455
66.7283
211.156
29.6415
19.7472
55.541
20.4689
29.2346
19.7463
58.5549
65.0107
210.831
212.575
66.8792
28.7027
20.4968
60.7163
19.5991
58.5043
19.6627
29.4538
68.3862
211.661
208.151
69.3438
29.4441
20.4551
19.6038
59.1299
19.7333
55.6428
29.9373
68.4603
210.344
66.2205
214.298
29.4488
19.6967
57.4428
20.4587
28.9024
19.5651
61.5479
67.1723
208.667
64.8965
215.314
28.7941
20.5103
59.2257
19.6136
56.9077
19.6178
29.4752
66.4762
211.408
213.243
68.6685
29.0003
20.4666
19.5402
60.0229
19.6004
59.4005
29.748
65.64
216.432
213.853
68.8692
110.451
109.336
21.6089
112.895
111.063
332.762
331.438
332.239
331.634
21.5209
111.453
110.865
106.759
109.373
334.393
333.692
28.9592
19.7569
55.8106
20.4034
27.6028
19.6238
58.8306
66.2337
210.373
62.7994
213.72
66.0406
207.836
63.6888
213.573
28.1053
20.4101
19.6011
60.0205
19.7115
59.0638
28.7016
28.6521
20.3984
19.5308
58.7663
19.6625
57.5799
28.8982
65.5527
213.276
209.295
66.7304
65.0055
213.595
212.15
65.9597
335.617
337.588
333.321
334.471
21.6571
112.169
111.633
110.563
108.94
337.103
336.918
334.46
331.428
331.75
333.082
334.09
335.075
106.446
109.444
21.6376
109.654
111.803
333.744
327.737
331.689
332.842
21.5718
109.106
112.084
107.794
108.217
64.7344
210.112
60.059
212.877
28.3156
56.8425
19.5715
20.3787
27.3757
59.1778
19.6626
28.4935
56.0424
19.7498
20.3681
27.812
59.37
19.6177
61.1482
209.525
207.988
64.0241
63.3093
211.904
210.309
64.5814
27.9027
20.3854
58.4502
19.5159
56.673
19.5139
28.3978
27.6131
20.3783
59.1641
19.5355
57.2803
19.6656
28.6404
106.355
105.74
21.5914
109.152
111.141
332.058
334.754
333.043
330.899
21.5381
109.569
110.943
105.834
107.125
334.915
330.733
29.5108
58.5955
19.6741
20.4773
28.8681
59.8466
19.6983
69.1883
208.646
65.5575
210.812
29.8732
19.7444
55.5887
20.4443
28.8299
19.6133
59.1477
66.432
214.178
208.087
68.0048
28.4906
20.4368
60.6729
19.5611
58.2125
19.5463
29.528
67.661
210.927
206.332
69.1885
29.3903
20.4376
19.5864
57.2831
19.6341
56.1029
29.5966
68.5634
213.187
65.9905
214.225
29.4956
19.6121
60.7175
20.4513
29.2548
19.6225
61.1606
68.5298
213.236
68.0213
215.691
29.5047
20.4444
60.1875
19.6884
57.9981
19.6396
29.4238
64.7291
214.764
210.797
68.9877
29.7289
20.4372
19.5173
61.4508
19.6192
60.2905
29.9202
67.7183
216.047
213.411
68.9658
109.566
108.26
21.5611
113.155
110.132
332.029
331.257
331.613
331.857
21.5048
113.115
109.673
110.025
105.105
334.202
333.366
29.0633
19.6063
55.7859
20.4057
28.3994
19.5741
59.2612
66.8905
208.084
63.172
213.616
65.2442
212.041
63.5286
213.898
28.6883
20.3985
19.6959
58.0717
19.6944
57.1178
28.5669
28.6073
20.4093
19.5303
59.4698
19.5717
57.4517
28.5371
65.761
213.606
212.331
66.6793
66.4459
214.887
213.049
64.2245
333.005
336.778
333.397
334.425
21.6658
109.679
109.64
107.675
107.937
336.698
335.553
334.965
332.885
331.156
333.519
334.209
336.038
106.881
109.355
21.5418
108.876
113.628
333.668
330.885
336.335
332.314
21.5677
110.24
113.409
107.597
110.539
65.4434
209.732
61.3356
212.353
28.2517
55.6921
19.6583
20.3633
27.3841
58.854
19.5003
28.5861
57.6397
19.62
20.487
28.3223
59.685
19.5806
64.0787
211.331
209.324
65.1649
63.9041
213.305
206.407
62.4376
27.9921
20.3733
58.6649
19.4724
57.2934
19.4967
28.6441
27.7514
20.4485
59.5109
19.5308
57.4288
19.5617
28.5062
107.503
106.494
21.6606
111.118
109.225
332.911
334.189
332.08
329.59
21.6008
111.068
110.752
109.02
105.894
334.674
331.934
29.5678
57.6815
19.6956
20.4249
28.3559
60.9124
19.5593
68.5778
207.491
68.0187
210.731
29.4087
19.7703
58.3816
20.4189
29.0602
19.6489
59.3118
66.4308
213.305
213.19
66.7969
29.0869
20.4105
59.5584
19.617
58.8036
19.5521
29.4804
67.1932
211.827
205.059
67.8918
29.3219
20.4109
19.5615
59.1832
19.6886
58.361
29.4402
66.6021
211.879
65.171
214.44
29.6997
19.6089
59.7524
20.4771
28.7573
19.5978
61.3469
67.6623
213.362
65.5365
215.331
28.6232
20.4017
59.2382
19.651
59.0182
19.6481
28.9247
67.8257
212.783
213.981
67.8311
28.6458
20.4767
19.5578
61.01
19.5949
59.929
29.8351
66.9223
215.545
212.179
68.0315
110.56
104.465
21.5638
112.621
110.415
332.053
332.336
334.047
332.163
21.4803
111.948
109.4
107.274
107.746
333.834
332.515
28.8747
19.6642
57.3254
20.4406
28.5724
19.6989
59.1879
65.2093
209.421
63.9823
211.747
65.974
210.092
65.0105
213.807
27.7639
20.3898
19.718
58.3601
19.6974
58.7562
28.9195
28.1209
20.4315
19.6551
59.2538
19.5445
57.365
28.6945
61.4526
214.006
207.642
65.118
63.5316
214.604
209.957
65.418
336.371
336.292
333.571
335.007
21.5832
112.929
112.268
112.018
108.431
336.859
335.698
335.38
334.102
330.577
333.364
334.727
334.476
107.763
111.621
21.6524
110.311
114.237
334.945
329.049
336.548
335.937
21.5845
110.223
113.324
108.429
110.912
64.6242
209.004
63.763
214.051
28.4099
56.554
19.5838
20.3442
28.1963
58.6656
19.6153
28.3052
57.6125
19.7503
20.4596
27.8791
59.0355
19.6021
63.5085
210.162
210.401
62.6765
62.1064
212.436
211.896
64.699
27.7425
20.3411
58.8518
19.4798
57.1006
19.6197
28.344
28.145
20.4554
59.3232
19.4808
58.7658
19.623
28.4211
108.83
105.701
21.6246
111.521
112.007
332.94
335.235
331.621
328.699
21.5559
112.02
111.125
108.484
109.677
335.399
328.323
29.2099
60.7556
19.6373
20.4552
28.9871
61.0628
19.678
65.8022
208.062
65.6579
211.672
28.9169
19.6059
58.1636
20.3792
28.3179
19.5963
59.2327
63.5533
212.05
213.498
65.0932
28.7379
20.4473
61.3338
19.6604
60.5235
19.5369
29.3228
64.3992
211.397
203.92
66.5027
27.978
20.3504
19.6301
58.2045
19.666
57.7694
29.0848
66.1603
213.819
64.897
214.988
29.247
19.6342
59.2924
20.5105
29.1468
19.6707
61.4999
67.0473
213.85
65.0398
215.915
27.929
20.4209
59.8739
19.6881
58.144
19.742
29.141
64.6014
215.325
209.707
66.7362
28.2913
20.4899
19.5127
59.9538
19.5402
60.1978
29.2767
64.6299
216.338
212.376
67.1276
109.944
105.217
21.4417
112.362
110.22
332.169
333.956
333.531
327.487
21.3729
111.36
108.493
108.65
106.818
333.935
332.136
28.9068
19.5786
58.0741
20.4296
27.6013
19.66
59.9129
65.8914
212.687
64.4765
213.809
66.0965
210.248
63.7662
214.913
28.44
20.378
19.6909
59.7661
19.6046
59.1487
28.9969
28.5088
20.4187
19.5328
59.7693
19.5097
57.0083
29.0023
64.8535
212.49
209.596
66.0671
63.0339
214.775
213.443
66.823
334.686
337.549
333.329
332.412
21.5957
113.372
112.272
109.307
107.417
337.29
335.248
335.608
334.503
333.21
333.885
334.689
336.194
107.463
109.61
21.6438
111.159
112.961
335.233
330.166
335.776
333.56
21.5766
111.797
112.599
106.538
109.161
65.893
208.786
61.9263
211.163
28.4967
57.0181
19.6185
20.3382
28.0061
59.8435
19.4919
28.617
58.9225
19.5145
20.4593
28.0661
59.4054
19.5013
62.3002
213.698
210.307
64.5883
62.8479
211.857
208.399
65.884
27.4841
20.3653
60.3516
19.4536
58.5817
19.5786
28.4043
27.7894
20.4506
59.8949
19.4859
56.8837
19.4972
28.4285
109.551
106.942
21.6276
112.01
112.183
334.147
332.87
334.251
328.427
21.5261
112.618
110.086
110.011
110.589
332.801
334.687
29.4652
58.66
19.6112
20.4482
29.0304
60.851
19.5869
66.4019
208.438
64.8969
210.77
29.1388
19.6742
57.128
20.3348
28.499
19.6577
58.7651
64.1321
214.829
213.04
68.328
28.8311
20.4208
61.0339
19.5517
59.0052
19.5897
29.4842
63.5421
211.349
203.997
67.4066
28.4578
20.3289
19.5334
59.0401
19.6647
56.3015
29.3235
67.6025
212.069
65.0558
214.823
29.105
19.6109
61.1538
20.4591
28.4178
19.6696
61.4664
66.7541
214.201
64.7724
216.12
28.7673
20.4165
61.1069
19.7292
60.5294
19.7151
29.4712
66.6651
215.873
211.313
68.133
28.3458
20.4588
19.5249
59.8308
19.5481
59.0491
29.1649
64.011
215.185
213.433
66.6496
110.411
103.319
21.4328
112.254
108.69
332.426
333.414
334.232
333.267
21.4381
112.453
110.337
111.266
105.919
333.789
330.694
28.9717
19.698
58.239
20.4027
28.1287
19.5632
59.7147
64.8142
213.832
63.7407
211.627
66.4848
211.861
64.5937
214.805
27.9326
20.3948
19.5736
59.8772
19.5929
57.552
28.096
28.503
20.401
19.4856
59.6807
19.6118
58.3765
28.8556
61.7798
214.816
213.233
63.5735
64.0031
214.726
213.144
65.6307
333.452
336.543
333.194
333.489
21.6435
112.537
109.764
111.043
107.916
337.077
332.766
335.397
330.694
328.257
334.236
333.933
336.608
109.146
110.099
21.7054
109.662
113.182
334.12
332.319
336.236
335.502
21.6258
110.618
113.3
108.35
111.194
65.4772
206.652
64.5049
210.334
28.5049
59.3694
19.5476
20.3804
28.2956
59.5407
19.5826
28.8197
58.1618
19.6347
20.4482
28.9277
59.6164
19.6792
60.3335
212.701
209.603
62.0954
62.6417
209.608
212.27
64.3904
27.6502
20.3725
58.9713
19.4524
57.3995
19.5698
28.1463
27.5005
20.4241
59.0879
19.5397
55.8532
19.5165
28.4061
106.839
108.084
21.5975
111.067
111.65
335.12
331.399
333.509
332.891
21.6558
111.335
111.143
107.458
105.708
335.161
333.472
29.6641
59.7163
19.6607
20.4677
29.1214
61.0808
19.6698
67.2949
208.288
65.2533
210.688
29.3162
19.5765
57.7561
20.3684
28.872
19.5692
59.5088
65.0446
214.566
213.673
66.6777
29.0753
20.4432
61.2725
19.5199
59.3629
19.5286
29.4144
65.6382
211.728
204.856
67.1027
29.1584
20.3756
19.5412
59.2205
19.5624
57.5275
29.3989
68.6543
214.28
64.5548
214.731
29.2493
19.7459
60.1009
20.432
28.3461
19.6024
60.586
66.0349
211.596
63.1384
212.309
28.6087
20.4048
60.3537
19.6412
59.4006
19.5919
29.5728
66.7
215.558
210.669
68.3559
28.704
20.4394
19.5684
60.1536
19.6433
57.9921
29.5973
65.7342
215.487
214.259
68.4979
109.886
108.352
21.5618
112.279
110.776
332.112
331.355
330.645
327.103
21.4972
111.687
109.959
110.441
108.129
333.57
333.944
28.6895
19.6542
58.1552
20.4318
28.4689
19.5386
59.9279
64.3838
212.502
60.255
213.415
65.283
209.614
63.1573
210.972
27.7774
20.3982
19.5714
58.9036
19.6282
58.1238
28.3115
28.1145
20.4236
19.4768
59.8809
19.5968
58.8635
28.7818
63.3986
213.874
210.308
65.4266
62.2182
214.055
212.942
65.1611
335.945
336.543
331.735
334.272
21.5893
110.49
112.267
110.421
109.541
336.693
334.993
335.309
333.785
327.911
332.991
334.136
336.136
107.066
112.309
21.6887
109.775
114.217
331.304
329.581
336.498
333.372
21.5975
108.147
113.996
104.375
112.448
64.2211
211.747
61.794
210.368
28.248
58.0049
19.5416
20.4007
27.8281
59.5346
19.7018
28.5389
58.2796
19.6062
20.4397
28.1737
59.7909
19.5827
60.3732
208.1
209.404
64.4105
60.5405
209.833
206.935
64.4046
27.3214
20.3741
57.6785
19.5034
56.4583
19.5404
28.3275
28.1073
20.3967
57.7122
19.5099
57.6105
19.5758
28.5093
107.51
108.716
21.6107
109.806
111.341
331.686
332.812
332.2
328.863
21.5755
108.471
111.294
105.207
108.709
335.622
329.878
29.649
58.8352
19.6194
20.4557
28.2555
60.9069
19.5779
67.4194
205.608
66.5798
211.519
29.2474
19.6684
57.8307
20.3562
29.0209
19.6734
58.2386
66.4763
215.245
209.199
66.6785
28.5864
20.4566
59.2662
19.6023
57.4835
19.6157
29.4915
64.789
213.727
210.658
67.2808
29.0709
20.3468
19.5271
60.3283
19.5925
59.4916
29.3486
68.9554
213.472
65.6198
214.174
29.7634
19.6405
58.5617
20.4584
29.2455
19.5956
60.3548
68.7013
212.752
66.8609
215.231
29.2553
20.4368
60.2279
19.5757
59.2591
19.5619
29.3918
66.0997
213.486
209.66
68.4845
29.182
20.4641
19.5577
62.0735
19.5942
59.0238
29.7004
65.8128
216.326
211.047
68.5133
109.898
107.183
21.5398
111.188
109.242
330.358
333.193
335.619
332.109
21.4741
112.323
109.019
110.905
103.784
332.908
330.984
28.558
19.6764
57.7872
20.3666
28.0877
19.5555
60.0791
65.0599
207.972
62.1894
213.181
65.929
211.627
62.4204
214.138
27.8748
20.3637
19.6342
59.4832
19.6251
59.4124
28.0829
27.5179
20.3725
19.4931
58.7295
19.6195
57.3767
28.5042
62.6529
213.886
211.234
64.4059
63.8602
212.914
212.425
64.9449
334.588
337.162
333.079
332.557
21.5874
114.71
109.908
107.441
108.435
336.695
335.558
334.86
334.414
325.77
331.721
334.738
335.881
101.732
112.379
21.6462
109.126
112.945
331.318
328.973
335.148
330.712
21.6554
108.836
112.429
107.629
109.722
65.319
204.342
63.1662
206.383
28.4017
56.1565
19.6072
20.3934
27.9199
58.1137
19.6218
28.7234
55.2466
19.586
20.3662
27.7917
56.6179
19.6664
61.7089
210.413
203.813
62.242
62.0523
207.899
199.204
64.5777
27.7003
20.3884
57.8496
19.4986
57.0756
19.5825
27.9744
28.0146
20.3125
56.5278
19.4697
54.5372
19.4998
28.4721
104.667
106.645
21.6144
108.563
112.009
329.962
334.69
330.738
327.632
21.5402
108.153
110.211
106.287
107.094
334.723
330.58
29.6322
60.1774
19.7194
20.488
29.33
60.6709
19.6887
67.6655
206.845
65.781
212.872
29.426
19.6703
58.6462
20.3355
28.8615
19.538
59.656
66.0058
213.842
207.967
67.2376
29.0614
20.4782
59.8089
19.5596
57.6568
19.6867
29.4437
65.9552
212.381
210.09
67.5586
28.8348
20.3318
19.5056
60.6153
19.6122
59.1383
29.3214
65.8108
209.988
64.4777
214.57
29.4759
19.7407
60.8806
20.5058
28.9098
19.6086
62.1701
67.1969
213.612
64.0541
216.704
28.4206
20.4175
59.9192
19.6472
58.1038
19.6111
28.9351
65.6803
214.218
212.766
66.7333
28.5767
20.5019
19.6214
61.3031
19.5722
60.4548
29.6093
66.7104
215.452
212.232
67.3707
110.399
107.339
21.481
110.659
109.46
331.032
334.134
332.959
333
21.4724
114.192
108.662
113.122
106.639
333.867
331.3
28.5372
19.5501
56.9359
20.3334
27.7248
19.6199
59.1328
64.9814
209.387
62.4026
210.246
65.2098
207.476
61.5725
212.467
28.1586
20.3363
19.5986
58.0545
19.5222
59.02
28.5173
27.6284
20.3278
19.512
58.5493
19.6359
58.0472
28.6353
61.8282
213.287
212.162
65.0214
61.8643
212.372
208.68
63.1699
334.685
336.457
333.849
334.957
21.5656
110.366
110.775
108.695
105.864
336.864
332.833
334.263
330.92
328.559
331.377
333.13
335.644
104.658
110.476
21.6883
108.266
112.871
331.206
329.158
335.101
334.086
21.579
106.83
111.189
104.654
110.845
64.1616
204.758
62.9231
210.028
28.3395
56.8031
19.6718
20.3982
28.1617
57.6141
19.5386
28.4746
53.8427
19.6641
20.3042
27.634
58.0451
19.5321
62.5244
207.589
208.079
64.195
60.3385
209.862
208.758
64.777
27.8731
20.3909
55.8116
19.5068
54.9187
19.5555
28.3394
27.9233
20.3157
57.222
19.5077
55.3257
19.639
28.3006
106.492
105.829
21.5612
108.878
111.279
332.523
334.375
331.333
328.507
21.5483
108.669
112.029
105.308
109.306
332.555
332.168
29.4864
58.3917
19.6345
20.4818
28.9573
60.5426
19.6302
66.9382
210.043
64.6036
211.32
29.3067
19.6024
59.6751
20.3758
28.8026
19.7189
59.461
64.8332
213.596
212.063
68.2815
29.1993
20.4819
60.3668
19.6077
57.5626
19.6443
29.5104
64.5595
212.035
207.843
67.473
28.9482
20.3849
19.5543
59.3044
19.5809
57.8622
28.9221
66.9058
209.912
64.7489
214.565
29.5154
19.7863
58.6406
20.5073
29.0209
19.6333
60.6123
68.064
214.59
64.5826
216.109
28.6693
20.4373
60.4075
19.6032
57.5137
19.6252
29.541
64.543
213.59
210.829
68.6618
28.7325
20.4968
19.5545
60.6765
19.6769
57.961
29.4647
66.7196
215.321
213.685
66.6128
111.64
104.862
21.5489
112.821
110.333
328.138
330.789
335.712
329.957
21.4699
112.303
108.963
108.407
108.206
333.13
332.092
28.5049
19.6744
57.1059
20.3289
28.3428
19.547
58.9452
64.6176
209.88
61.795
212.831
64.8984
207.154
64.9257
211.591
27.7596
20.3469
19.5947
58.6189
19.5049
55.7048
28.0609
27.3027
20.3168
19.4786
58.7429
19.6043
57.9832
28.5272
61.8443
212.596
208.776
64.5885
59.9165
212.88
206.952
63.6559
335.445
335.811
332.825
334.639
21.5685
112.484
112.357
109.963
108.69
333.406
332.548
334.078
332.152
326.689
330.539
333.149
335.504
102.933
106.694
21.6723
106.628
113.389
331.464
327.286
332.674
332.868
21.6082
108.906
111.118
102.06
110.3
64.6344
203.447
62.9931
206.753
28.46
57.0061
19.6325
20.4081
27.9135
58.328
19.5693
28.3325
55.1203
19.6023
20.3243
27.7114
57.2283
19.5577
61.4281
207.582
209.018
62.6884
61.6028
209.837
209.206
64.5193
28.0342
20.4088
56.3939
19.4959
55.4477
19.5368
28.5579
27.8026
20.3064
56.6509
19.5082
53.9747
19.558
28.6447
104.653
106.35
21.6355
107.878
111.884
334.109
334.153
331.123
324.088
21.556
107.532
112.433
104.307
107.37
334.445
332.189
29.4298
58.0251
19.7396
20.5027
29.0864
61.1088
19.8263
67.9558
205.765