/*--------------------------------*- C++ -*----------------------------------*\
| =========                 |                                                 |
| \\      /  F ield         | OpenFOAM: The Open Source CFD Toolbox           |
|  \\    /   O peration     | Version:  2206                                  |
|   \\  /    A nd           | Website:  www.openfoam.com                      |
|    \\/     M anipulation  |                                                 |
\*---------------------------------------------------------------------------*/
FoamFile
{
    version     2.0;
    format      ascii;
    arch        "LSB;label=32;scalar=64";
    class       volVectorField;
    location    "10";
    object      wallShearStress;
}
// * * * * * * * * * * * * * * * * * * * * * * * * * * * * * * * * * * * * * //

dimensions      [0 2 -2 0 0 0 0];

internalField   uniform (0 0 0);

boundaryField
{
    topPatch
    {
        type            calculated;
        value           nonuniform List<vector> 0();
    }
    wall
    {
        type            calculated;
        value           nonuniform List<vector> 
7718
(
(-2.41292e-08 -3.27652e-08 -0.000262672)
(-2.92679e-08 1.5583e-08 -0.00026297)
(3.66468e-09 -4.32316e-08 -0.000249763)
(7.68825e-08 2.88215e-09 -0.000250011)
(-5.82948e-08 1.8459e-08 -0.000262601)
(-6.63507e-08 2.38433e-09 -0.000262921)
(-3.63238e-08 -3.31004e-09 -0.000255036)
(3.44958e-09 1.38198e-08 -0.000257761)
(1.95618e-08 -8.84628e-09 -0.000255191)
(-4.0476e-08 -2.58628e-08 -0.000257638)
(-6.52345e-08 -6.49332e-08 -0.000262567)
(-2.17166e-08 -4.06182e-08 -0.000262672)
(3.55904e-09 2.25143e-08 -0.000249855)
(-1.04643e-09 -3.78589e-08 -0.000249697)
(3.44079e-08 1.29407e-08 -0.000249837)
(-4.24515e-08 4.66074e-08 -0.000262633)
(4.39678e-08 -9.13169e-09 -0.000263063)
(2.65762e-08 -6.42208e-09 -0.000255449)
(-5.78522e-09 1.18846e-08 -0.000257721)
(-2.1334e-08 -6.79458e-09 -0.000255052)
(7.60691e-09 -1.72747e-08 -0.000257988)
(1.91949e-08 3.05897e-09 -0.000250136)
(-1.56993e-08 3.61597e-08 -0.000255379)
(-4.43796e-08 -1.60046e-08 -0.000257673)
(-1.33392e-09 -8.06056e-09 -0.00025509)
(2.59535e-08 1.14547e-08 -0.00025803)
(-2.60049e-08 3.03374e-09 -0.000250094)
(4.34501e-08 -1.63407e-08 -0.000263152)
(-4.15266e-08 2.56078e-08 -0.000250646)
(5.75481e-08 -5.6417e-08 -0.000263087)
(-5.47256e-08 -1.60326e-08 -0.00026114)
(4.30614e-08 -1.06908e-08 -0.000250383)
(-1.64085e-08 -2.57016e-09 -0.000250675)
(1.16697e-08 -5.26387e-08 -0.000261047)
(-2.53524e-09 -1.28026e-08 -0.000250405)
(1.69332e-08 -6.0137e-09 -0.000250717)
(6.59837e-08 -1.52497e-08 -0.000261469)
(3.39163e-09 2.43148e-08 -0.000261478)
(3.50228e-08 -3.34725e-08 -0.000263306)
(-2.63857e-08 1.1171e-08 -0.000262975)
(5.85207e-08 3.97383e-08 -0.000263403)
(-3.75832e-08 -3.89992e-09 -0.000262994)
(-9.06593e-09 1.88647e-08 -0.000250631)
(-1.58533e-08 -5.01341e-08 -0.000261616)
(6.07721e-08 1.18848e-08 -0.00026148)
(-2.17375e-08 -6.63817e-09 -0.000262722)
(1.12706e-09 -1.76943e-08 -0.000263068)
(-1.56731e-08 -1.66373e-08 -0.000249741)
(3.32376e-08 1.03632e-08 -0.000250096)
(7.93372e-09 -1.52178e-08 -0.000262742)
(-5.33774e-09 2.24723e-08 -0.000263113)
(-1.49359e-08 -1.33363e-08 -0.000249821)
(1.4265e-08 2.26503e-08 -0.000250194)
(-1.48907e-08 5.09897e-09 -0.000262705)
(2.30564e-08 -3.22649e-11 -0.000263109)
(-1.22637e-08 -1.35187e-08 -0.000249694)
(6.74409e-09 2.0387e-08 -0.000250066)
(6.35463e-09 -2.25819e-08 -0.000262738)
(-7.56979e-09 1.4654e-08 -0.000263024)
(-1.44323e-08 -1.50698e-08 -0.000249777)
(2.21118e-08 5.97414e-10 -0.000250188)
(-1.36129e-08 1.63634e-08 -0.00026276)
(1.67724e-08 -1.17454e-08 -0.000263069)
(-1.32601e-08 -2.47025e-08 -0.000249771)
(1.09588e-08 2.30184e-08 -0.000250145)
(1.58334e-08 -1.78679e-08 -0.000262694)
(1.01301e-08 1.89074e-08 -0.000263074)
(-1.77605e-08 -2.79307e-08 -0.000249861)
(1.67709e-08 -3.25942e-10 -0.000250231)
(-1.81935e-08 1.85496e-08 -0.000262748)
(2.38954e-08 2.71506e-09 -0.000263123)
(-1.91485e-08 -2.15027e-08 -0.00024979)
(2.60817e-08 1.04838e-08 -0.000250166)
(1.73723e-08 -1.88892e-08 -0.000262765)
(-2.47402e-08 1.59864e-09 -0.00026307)
(-1.39165e-08 -3.05554e-08 -0.000249876)
(1.71992e-08 1.58282e-08 -0.000250269)
(-1.95948e-08 1.46892e-08 -0.000262828)
(1.20678e-09 -2.61233e-08 -0.000263159)
(7.80867e-09 -3.09803e-08 -0.000249811)
(2.12119e-08 1.19679e-08 -0.00025016)
(1.31819e-09 -2.86432e-08 -0.000262734)
(-1.66258e-08 5.37312e-09 -0.000263058)
(-3.42235e-08 3.0508e-09 -0.000249897)
(1.07291e-08 2.03327e-08 -0.000250254)
(-2.31602e-08 3.89536e-09 -0.000262794)
(2.55453e-09 -1.798e-08 -0.000263156)
(-1.78326e-08 -1.39041e-08 -0.000249752)
(1.16787e-08 2.19836e-08 -0.000250105)
(1.67451e-08 -1.87414e-08 -0.000262712)
(-1.5209e-08 1.27534e-08 -0.000263096)
(-1.55842e-08 -2.07323e-08 -0.000249834)
(2.53263e-08 1.10305e-08 -0.000250247)
(-1.66123e-08 1.94518e-08 -0.000262788)
(2.03208e-08 -1.36289e-08 -0.000263172)
(-2.70405e-08 -5.71229e-09 -0.000249788)
(8.96989e-10 2.05464e-08 -0.000250133)
(1.60954e-08 -1.37482e-08 -0.000262772)
(-6.71676e-09 2.66341e-08 -0.000263077)
(-1.54321e-08 -2.03432e-08 -0.000249872)
(1.12678e-08 1.37804e-08 -0.000250241)
(-1.22962e-08 2.14646e-08 -0.000262852)
(2.28383e-08 -5.58099e-09 -0.000263164)
(-2.65756e-08 -1.28429e-08 -0.000249769)
(1.62061e-08 1.98887e-08 -0.00025015)
(1.06842e-08 -1.66172e-08 -0.000262768)
(-2.06782e-08 7.58744e-09 -0.000263068)
(-1.42102e-08 -9.4333e-09 -0.000249872)
(1.79909e-08 1.74824e-08 -0.000250246)
(-1.41866e-08 9.43867e-09 -0.000262792)
(1.67465e-08 -1.8657e-08 -0.000263129)
(-1.08115e-08 -1.23918e-08 -0.000249804)
(8.71435e-09 2.77863e-08 -0.000250163)
(8.91685e-09 -1.6061e-08 -0.000262762)
(-2.7929e-08 1.57371e-08 -0.000263106)
(-1.70909e-08 -1.64015e-08 -0.000249879)
(1.96236e-08 2.69019e-08 -0.00025025)
(-1.66021e-08 1.82489e-08 -0.000262767)
(1.36693e-08 -3.7574e-08 -0.00026313)
(-1.56558e-08 -1.78054e-08 -0.000249807)
(1.55182e-08 2.87574e-08 -0.00025017)
(1.39393e-08 -1.48497e-08 -0.000262733)
(-9.43066e-09 1.09912e-08 -0.000263125)
(-9.37276e-09 -2.02579e-08 -0.000249876)
(2.30515e-08 1.36477e-09 -0.000250255)
(-9.47314e-09 1.97367e-08 -0.000262761)
(1.82322e-08 -1.1379e-08 -0.000263152)
(-1.48597e-08 -1.11915e-08 -0.000249765)
(1.13836e-08 2.5402e-08 -0.000250097)
(1.46646e-08 -9.26453e-09 -0.000262773)
(-9.88089e-09 2.437e-08 -0.000263067)
(-1.3135e-08 -8.82547e-09 -0.000249856)
(1.93808e-08 1.67792e-08 -0.000250177)
(-9.66994e-09 8.70139e-09 -0.000262805)
(1.81469e-08 -1.45249e-08 -0.0002631)
(-2.57612e-09 -1.80918e-08 -0.000249776)
(1.13329e-08 2.42682e-08 -0.000250171)
(1.12492e-09 -1.80208e-08 -0.00026274)
(-2.0742e-08 1.77912e-08 -0.000263126)
(-1.63953e-08 -2.49747e-09 -0.00024986)
(2.36074e-08 1.52792e-08 -0.000250283)
(-6.42709e-09 9.39355e-09 -0.000262734)
(1.80933e-08 -1.92824e-08 -0.000263152)
(-5.63594e-10 -1.71665e-08 -0.000249833)
(1.44637e-08 2.68035e-08 -0.000250194)
(-1.70882e-09 -2.27065e-08 -0.000262816)
(-1.17652e-08 2.23606e-08 -0.000263154)
(-2.29925e-08 -5.63441e-09 -0.000249906)
(1.98702e-08 1.17735e-08 -0.000250294)
(-2.10876e-08 4.38488e-09 -0.000262835)
(1.50678e-08 -1.88137e-08 -0.000263165)
(-2.89929e-08 -4.69908e-09 -0.000249716)
(5.60145e-09 2.39446e-08 -0.000250065)
(4.84163e-09 -1.52513e-08 -0.000262739)
(-1.11184e-08 1.89643e-08 -0.000263012)
(-9.79616e-09 -1.21767e-08 -0.0002498)
(1.79024e-08 1.41101e-08 -0.000250166)
(-1.54995e-08 1.13408e-08 -0.000262764)
(2.0373e-08 -1.1893e-08 -0.000263063)
(1.08594e-10 -2.57593e-08 -0.0002498)
(8.03789e-09 1.39715e-08 -0.000250257)
(1.46573e-08 -9.37573e-09 -0.000262747)
(-6.09817e-09 1.41445e-08 -0.000263182)
(-2.8631e-08 3.78061e-09 -0.000249861)
(8.95115e-09 3.02045e-08 -0.000250307)
(-1.14524e-08 1.36599e-08 -0.000262763)
(6.65866e-09 -2.00902e-08 -0.000263191)
(2.81182e-08 -4.48685e-09 -0.000262746)
(-1.85141e-08 -9.9649e-09 -0.00024981)
(-1.04738e-08 1.60561e-08 -0.000262801)
(-1.28535e-08 1.26974e-08 -0.000262687)
(1.03655e-09 -1.73454e-08 -0.000263027)
(1.43048e-08 -1.53939e-08 -0.000263006)
(-2.03622e-08 8.74923e-09 -0.000262715)
(2.66732e-08 -8.61627e-09 -0.000262998)
(-1.24117e-08 2.04894e-08 -0.000262682)
(-1.62315e-08 1.04261e-08 -0.000249775)
(1.56616e-08 -1.62621e-08 -0.000250095)
(2.74874e-09 2.09063e-08 -0.000249727)
(-1.5697e-08 -1.28199e-08 -0.000250105)
(3.93822e-08 -7.7326e-09 -0.000250106)
(-1.64015e-08 2.0856e-08 -0.000249757)
(-2.8986e-08 -9.60464e-09 -0.000250073)
(1.03077e-08 2.3899e-08 -0.000249729)
(7.53523e-09 1.26326e-08 -0.000262723)
(-1.53364e-08 -4.65532e-09 -0.000263088)
(-1.02471e-08 2.2238e-08 -0.00026271)
(-7.64042e-09 -1.33644e-08 -0.000263054)
(-8.74708e-09 -2.46952e-08 -0.000263041)
(1.83245e-08 9.44043e-09 -0.000262746)
(-2.57387e-08 -8.57141e-09 -0.00026302)
(6.58044e-09 2.53399e-08 -0.000262719)
(-3.56536e-09 -1.60015e-08 -0.000262687)
(1.97839e-08 1.60382e-08 -0.00026304)
(-1.75642e-08 -7.16598e-09 -0.000262716)
(1.73545e-08 1.07404e-08 -0.000263072)
(1.44969e-08 1.74398e-08 -0.000263004)
(1.45123e-09 -2.33244e-08 -0.000262707)
(1.41434e-08 8.02407e-09 -0.000263069)
(-1.48654e-08 -1.81048e-08 -0.000262721)
(2.31374e-08 -2.02816e-08 -0.000249744)
(-9.61108e-09 2.00371e-08 -0.000250137)
(1.36875e-08 1.40983e-08 -0.000250071)
(-1.18607e-09 -1.79109e-08 -0.000249732)
(1.16944e-09 1.36792e-08 -0.000250096)
(1.50387e-08 -1.71996e-08 -0.000249769)
(1.38854e-08 -7.94542e-09 -0.000262737)
(-7.35851e-09 2.11126e-08 -0.000263091)
(6.28684e-10 1.86107e-08 -0.000263084)
(1.05253e-08 -1.46152e-08 -0.000262744)
(-8.01289e-09 1.39287e-08 -0.000263108)
(1.57052e-08 -3.0411e-09 -0.000262771)
(-1.84651e-08 1.59441e-08 -0.000249799)
(1.90996e-08 -1.22217e-08 -0.000250241)
(1.72045e-08 1.53039e-08 -0.000250176)
(-1.66776e-08 -6.81049e-09 -0.000249792)
(1.69144e-08 -7.19556e-09 -0.000250229)
(-1.38504e-08 1.91022e-08 -0.000249848)
(1.84819e-08 -8.77053e-09 -0.000249817)
(-1.46664e-08 2.86725e-08 -0.000250216)
(1.89186e-08 6.6488e-10 -0.000249832)
(-1.77217e-08 -1.91501e-08 -0.000250211)
(-1.74066e-08 1.65912e-08 -0.000250219)
(1.76404e-08 -1.2451e-08 -0.000249808)
(-8.04148e-09 -1.3743e-08 -0.000250185)
(1.26989e-08 1.11316e-08 -0.000249834)
(-3.01943e-10 1.62613e-08 -0.000262664)
(2.46196e-08 -1.10178e-08 -0.000263043)
(1.99094e-08 5.9409e-10 -0.000263086)
(-9.13865e-09 2.5759e-08 -0.000262757)
(1.77229e-08 -1.19102e-08 -0.000263026)
(4.49726e-09 2.28361e-08 -0.000262707)
(-4.51365e-09 2.02297e-08 -0.000249741)
(3.01083e-08 -1.32706e-08 -0.000250122)
(8.00132e-09 1.84799e-08 -0.00024972)
(-1.31652e-08 -1.99014e-08 -0.000250071)
(1.80902e-08 -1.61619e-08 -0.000250111)
(-8.52415e-09 2.11921e-08 -0.000249736)
(-1.51641e-08 -1.43215e-08 -0.000250096)
(1.43106e-08 1.02348e-08 -0.000249712)
(2.7344e-08 -3.18935e-09 -0.000262679)
(-1.27871e-08 -2.0213e-08 -0.000263046)
(-2.46559e-10 2.56075e-08 -0.000262664)
(-1.29159e-08 -1.83684e-08 -0.000263026)
(-4.81429e-09 -2.4398e-08 -0.000263043)
(1.77001e-08 -1.58089e-09 -0.000262694)
(-5.71979e-09 -1.5732e-08 -0.000263018)
(9.29698e-09 1.27378e-08 -0.000262669)
(1.65538e-09 -2.8231e-08 -0.000262665)
(4.7479e-09 1.95174e-08 -0.000263011)
(-1.65145e-08 -1.39071e-08 -0.000262742)
(2.05799e-08 -6.38584e-09 -0.000263071)
(1.18909e-08 6.77788e-09 -0.000263053)
(-1.94806e-08 -1.46436e-08 -0.000262662)
(1.26138e-08 1.46403e-08 -0.000263127)
(-9.58693e-09 -3.15377e-08 -0.000262747)
(3.3084e-08 -1.41293e-08 -0.000249729)
(-6.90263e-09 2.2569e-08 -0.000250078)
(2.18905e-08 1.76396e-08 -0.000250115)
(-2.90986e-08 -1.1225e-08 -0.000249725)
(-2.19158e-08 1.50349e-08 -0.0002501)
(3.31369e-08 -1.0204e-08 -0.000249696)
(2.26305e-08 -5.77674e-11 -0.000262759)
(-1.61835e-08 -2.68839e-09 -0.000263075)
(-6.05293e-09 1.52759e-08 -0.00026305)
(1.35754e-08 -1.66481e-08 -0.000262693)
(-2.27412e-08 -1.00231e-08 -0.000263105)
(1.23903e-08 -2.87858e-08 -0.000262722)
(-1.25193e-08 3.08262e-08 -0.00024984)
(1.93781e-08 -3.66205e-09 -0.00025021)
(1.85792e-08 1.66325e-08 -0.000250233)
(-1.06456e-08 -4.31099e-08 -0.000249794)
(4.27034e-09 -2.52154e-08 -0.000250235)
(-7.10529e-09 3.44544e-08 -0.000249838)
(2.1483e-08 -1.74124e-08 -0.00024981)
(-2.12041e-08 1.48482e-08 -0.000250162)
(2.18028e-08 1.6604e-08 -0.000249803)
(-1.37491e-08 -6.01802e-09 -0.000250148)
(-2.14072e-08 9.95898e-10 -0.000250201)
(1.30468e-08 -2.50131e-08 -0.000249787)
(-1.8467e-08 -1.72891e-08 -0.000250177)
(8.43613e-09 3.15146e-08 -0.000249804)
(9.69815e-09 2.91062e-08 -0.000262712)
(8.71617e-09 -1.20082e-08 -0.000262975)
(2.09757e-08 -7.05885e-09 -0.000263095)
(-1.58277e-08 2.24941e-08 -0.000262731)
(-5.72221e-09 -1.41271e-08 -0.000263016)
(-1.17628e-08 2.22333e-08 -0.000262636)
(-2.0161e-08 1.64067e-08 -0.000249729)
(1.83432e-08 -1.40799e-08 -0.000250033)
(2.48369e-08 1.86752e-08 -0.000249718)
(-4.28057e-09 -2.38368e-08 -0.000250072)
(1.59394e-08 -1.78998e-08 -0.000250091)
(-1.74998e-08 1.94544e-08 -0.00024969)
(-7.6411e-09 -2.42928e-08 -0.000250068)
(2.80032e-08 1.29061e-08 -0.000249696)
(2.43211e-08 1.26838e-10 -0.000262699)
(-2.09881e-08 -1.9538e-09 -0.000263052)
(7.57835e-09 1.48224e-08 -0.00026269)
(1.26086e-09 -1.79581e-08 -0.000263017)
(-1.35337e-08 -3.11955e-09 -0.000263047)
(1.29265e-08 2.50259e-08 -0.000262687)
(5.26959e-09 -1.63864e-08 -0.000263025)
(2.3679e-08 1.22254e-08 -0.000262669)
(3.86133e-09 -1.79047e-08 -0.000262716)
(9.41129e-10 1.29802e-08 -0.000263068)
(-1.80459e-08 -1.24493e-08 -0.000262775)
(1.8484e-08 -1.58011e-09 -0.000263141)
(-1.67932e-09 1.37896e-08 -0.000263076)
(-1.1395e-08 -1.65075e-08 -0.000262749)
(2.06561e-08 -3.64138e-09 -0.000263147)
(-2.2061e-08 -2.46619e-08 -0.000262756)
(1.09787e-08 -2.27403e-08 -0.000249727)
(-5.73988e-11 1.96443e-08 -0.000250108)
(2.1478e-08 1.0283e-08 -0.000250144)
(-2.08164e-08 -2.3353e-08 -0.000249771)
(-9.75657e-09 1.59588e-08 -0.000250151)
(2.67125e-08 -2.0398e-08 -0.00024975)
(1.65177e-08 -2.8396e-08 -0.00026277)
(-2.1855e-08 -8.59506e-09 -0.000263118)
(6.71912e-09 2.06433e-08 -0.000263084)
(2.2845e-08 -1.18331e-08 -0.000262763)
(-1.08563e-08 1.03074e-08 -0.000263135)
(1.44352e-08 -2.66061e-08 -0.000262797)
(-1.86679e-08 7.69116e-09 -0.000249888)
(1.562e-08 -6.56606e-11 -0.000250289)
(1.78378e-08 7.08907e-09 -0.000250224)
(-1.33734e-08 -2.53405e-08 -0.000249872)
(6.71382e-09 -1.90876e-08 -0.000250307)
(-1.70164e-08 2.55289e-08 -0.000249912)
(1.46749e-08 -3.65971e-08 -0.000249832)
(-1.8219e-08 -2.81941e-09 -0.000250236)
(2.41119e-08 2.28983e-08 -0.000249796)
(-2.11213e-08 -1.00898e-08 -0.000250186)
(-1.18923e-08 1.37943e-08 -0.000250279)
(1.44003e-08 -2.82846e-08 -0.000249851)
(-1.1083e-08 -1.30536e-08 -0.000250236)
(2.14357e-08 2.39761e-08 -0.000249814)
(-1.34558e-08 1.67417e-08 -0.000262681)
(-5.01196e-09 -1.3516e-08 -0.000263075)
(2.0344e-08 -8.05941e-09 -0.00026315)
(-1.54255e-08 3.06629e-08 -0.000262822)
(1.30299e-08 -9.3928e-09 -0.000263092)
(-1.61656e-08 1.51683e-08 -0.000262737)
(-2.08726e-08 2.64336e-08 -0.000249743)
(7.94323e-09 -2.09929e-08 -0.00025013)
(3.31852e-08 2.14791e-08 -0.00024971)
(-3.17887e-09 -1.73523e-08 -0.000250102)
(1.95751e-08 -8.97365e-09 -0.00025015)
(-2.71717e-08 1.83843e-08 -0.000249786)
(-8.7762e-09 -1.48685e-08 -0.000250154)
(2.53501e-08 1.04559e-08 -0.000249745)
(1.84798e-08 6.16501e-09 -0.000262705)
(-1.67941e-08 8.06753e-09 -0.000263068)
(1.54929e-08 1.37442e-08 -0.000262676)
(9.04091e-09 -2.60085e-08 -0.000263055)
(-1.3151e-08 4.14894e-11 -0.000263101)
(9.21178e-09 2.4509e-08 -0.000262745)
(-6.42997e-10 -1.80307e-08 -0.000263081)
(2.7361e-08 1.18555e-08 -0.000262707)
(-6.86685e-09 -1.96979e-08 -0.000262766)
(1.21127e-08 1.15522e-08 -0.000263082)
(-1.24327e-08 -2.26633e-08 -0.000262786)
(1.01196e-08 8.36112e-09 -0.000263124)
(9.97397e-09 1.38904e-08 -0.000263108)
(-5.05745e-09 -2.15262e-08 -0.000262757)
(9.88212e-09 1.39907e-08 -0.000263163)
(-1.48435e-08 -1.29829e-08 -0.000262775)
(2.77494e-08 -1.82383e-08 -0.000249787)
(-2.2428e-08 1.46056e-08 -0.000250182)
(2.85567e-08 6.12537e-09 -0.000250157)
(-1.6774e-08 -2.5402e-08 -0.000249791)
(-1.80438e-08 7.92031e-09 -0.000250146)
(8.66614e-09 -2.64831e-08 -0.00024978)
(1.79174e-08 -1.21888e-08 -0.000262796)
(-9.87366e-09 1.40109e-08 -0.000263149)
(-6.69949e-09 1.23883e-08 -0.000263076)
(-1.15425e-08 -2.97176e-08 -0.000262762)
(-7.60045e-09 1.73129e-08 -0.000263189)
(1.98652e-08 -1.00615e-08 -0.000262785)
(-1.63685e-08 1.97693e-08 -0.000249938)
(1.6224e-08 -2.10214e-08 -0.000250311)
(1.14781e-08 2.8706e-08 -0.00025027)
(-2.40764e-08 -2.11256e-08 -0.000249863)
(5.76673e-09 -2.37489e-08 -0.000250278)
(-2.51158e-08 1.4997e-08 -0.000249916)
(1.50027e-08 -2.68223e-08 -0.000249885)
(-1.85301e-08 2.36285e-08 -0.000250242)
(2.42168e-08 1.86766e-08 -0.000249863)
(-3.30841e-10 -2.66052e-08 -0.000250239)
(-2.61709e-09 3.40145e-08 -0.000250235)
(2.3573e-08 -1.59496e-08 -0.000249889)
(3.84286e-09 -2.62465e-08 -0.000250266)
(2.62404e-08 7.54574e-09 -0.000249869)
(-6.29205e-09 2.13213e-08 -0.000262724)
(1.92869e-08 -1.3804e-08 -0.000263084)
(1.08138e-08 -1.10817e-08 -0.000263173)
(-1.88598e-08 1.3552e-09 -0.00026284)
(2.57141e-08 -9.48107e-09 -0.000263077)
(-3.391e-09 2.86888e-08 -0.000262738)
(-1.57006e-08 1.82493e-08 -0.000249817)
(2.75137e-08 -8.33822e-09 -0.000250127)
(2.45468e-08 2.14219e-08 -0.000249777)
(-2.55094e-08 -1.4763e-08 -0.000250164)
(3.11746e-08 1.32553e-09 -0.000250131)
(-1.13576e-08 2.45044e-08 -0.000249788)
(-2.29078e-08 -1.16513e-08 -0.000250134)
(1.14071e-08 3.0096e-08 -0.00024977)
(1.57762e-08 1.81705e-08 -0.000262758)
(-8.77684e-09 -2.56557e-08 -0.000263113)
(1.66822e-08 1.54917e-08 -0.000262738)
(-1.87518e-08 -6.13887e-09 -0.00026307)
(-8.81087e-09 -1.80708e-08 -0.000263131)
(2.65268e-08 2.04973e-09 -0.000262782)
(-8.57844e-09 -5.72566e-09 -0.000263092)
(6.13803e-09 2.46873e-08 -0.000262738)
(5.28599e-09 -2.74445e-08 -0.000262734)
(1.33936e-08 9.7369e-09 -0.000263071)
(-1.8382e-08 1.85956e-09 -0.000262788)
(2.23862e-09 1.48817e-08 -0.000263116)
(8.73794e-09 2.05153e-08 -0.000263038)
(5.35899e-10 -2.16081e-08 -0.000262732)
(9.85106e-09 1.93265e-08 -0.000263097)
(-2.2197e-08 -5.27003e-09 -0.000262757)
(4.15935e-09 -2.63217e-08 -0.00024976)
(-2.97247e-08 3.33468e-09 -0.000250119)
(1.89959e-08 1.36107e-08 -0.000250109)
(-1.15321e-08 -2.70608e-08 -0.000249779)
(-1.25322e-08 1.13679e-08 -0.000250106)
(1.34644e-09 -3.14471e-08 -0.000249749)
(2.58928e-08 -3.07642e-09 -0.000262788)
(-1.37257e-08 1.5506e-08 -0.000263168)
(-7.34346e-09 1.64123e-08 -0.000263071)
(1.34721e-08 -1.81192e-08 -0.000262713)
(-1.94299e-08 1.23935e-08 -0.00026312)
(1.52655e-08 -1.04232e-08 -0.000262799)
(-2.64892e-08 6.95321e-09 -0.000249927)
(1.0962e-08 -2.32666e-08 -0.00025029)
(1.59357e-08 2.10511e-08 -0.000250223)
(-2.75988e-08 -1.40823e-08 -0.000249865)
(1.07007e-08 -1.09963e-08 -0.000250268)
(-3.01786e-08 7.07358e-09 -0.00024992)
(3.20818e-08 2.24065e-09 -0.000249909)
(-8.74884e-09 2.54748e-08 -0.000250234)
(2.6799e-08 7.69645e-09 -0.000249866)
(-1.48838e-08 -1.95285e-08 -0.000250247)
(-1.10687e-08 1.46278e-08 -0.000250242)
(2.4939e-08 -6.03831e-09 -0.000249873)
(-1.76424e-08 -2.00754e-08 -0.000250249)
(1.8405e-08 2.26058e-08 -0.000249827)
(5.03009e-09 3.49137e-08 -0.00026273)
(1.20447e-08 -1.49075e-08 -0.000263058)
(1.19499e-08 -1.27106e-08 -0.000263137)
(-1.91281e-08 9.72973e-09 -0.000262791)
(1.85813e-09 -1.9617e-08 -0.000263055)
(-5.74495e-09 2.3169e-08 -0.00026275)
(4.40682e-09 2.97376e-08 -0.000249769)
(2.67881e-08 -5.56596e-09 -0.00025014)
(1.20761e-08 3.5501e-08 -0.000249762)
(-2.54485e-08 -1.30185e-08 -0.000250124)
(1.56594e-08 -1.66569e-08 -0.000250153)
(-7.01886e-09 2.15257e-08 -0.000249747)
(-2.17056e-08 -1.51718e-08 -0.000250137)
(1.00363e-08 2.14221e-08 -0.000249741)
(2.81645e-08 6.47592e-09 -0.000262794)
(-1.11451e-08 -1.47167e-08 -0.000263092)
(2.71373e-09 2.2276e-08 -0.000262742)
(-1.4986e-08 -1.0364e-08 -0.000263069)
(-1.40078e-08 -1.2893e-08 -0.000263086)
(1.46875e-08 1.34833e-08 -0.000262771)
(-2.23244e-08 -1.16722e-08 -0.000263047)
(1.10747e-09 1.61705e-08 -0.000262723)
(-1.70483e-08 -1.36501e-08 -0.000262675)
(3.3715e-09 2.01415e-08 -0.000263077)
(-1.11533e-08 -1.66693e-08 -0.000262741)
(1.00204e-08 7.25169e-09 -0.000263108)
(-1.08055e-08 3.09075e-08 -0.000263104)
(-1.30943e-08 -1.74838e-08 -0.0002627)
(2.44172e-08 -9.93842e-10 -0.000263144)
(-1.14681e-08 -1.68987e-08 -0.000262766)
(1.71398e-08 -1.7708e-08 -0.000249775)
(-1.54943e-08 1.60179e-08 -0.000250142)
(7.44662e-09 2.30963e-08 -0.000250117)
(-2.23586e-08 -1.5459e-08 -0.000249779)
(-1.58328e-08 1.63985e-08 -0.000250164)
(1.89248e-08 -1.27762e-08 -0.000249784)
(1.69195e-08 -1.27068e-08 -0.000262767)
(-1.34032e-08 1.45448e-08 -0.000263128)
(-2.01934e-09 2.16113e-08 -0.000263085)
(3.33008e-09 -2.30044e-08 -0.000262732)
(-2.74878e-08 -1.14717e-08 -0.00026315)
(1.55291e-08 -1.69726e-08 -0.000262813)
(-1.32093e-08 2.33054e-08 -0.000249909)
(1.93756e-08 -4.41486e-09 -0.0002503)
(2.17855e-08 1.21864e-08 -0.000250261)
(-2.25904e-08 -2.07e-08 -0.000249834)
(1.2534e-08 -1.07679e-08 -0.000250302)
(-8.95671e-09 2.72339e-08 -0.000249918)
(1.11004e-08 -2.10815e-08 -0.000249843)
(-2.12107e-08 1.36947e-08 -0.000250245)
(1.48429e-08 2.83426e-08 -0.000249839)
(-1.39934e-08 -2.11281e-08 -0.000250212)
(-2.27777e-08 1.10078e-08 -0.000250283)
(1.42832e-08 -2.05607e-08 -0.000249861)
(-2.09346e-08 -1.35283e-08 -0.00025026)
(1.77994e-08 1.9631e-08 -0.000249856)
(-1.51639e-08 1.07537e-08 -0.000262744)
(2.79324e-09 -1.43488e-08 -0.000263076)
(2.38203e-08 -5.37242e-10 -0.000263155)
(-2.33747e-08 1.35242e-08 -0.000262799)
(-5.96519e-09 -2.42655e-08 -0.000263093)
(-1.98099e-08 1.20381e-08 -0.000262741)
(-1.95116e-08 1.2951e-08 -0.000249753)
(7.11796e-09 -2.49865e-08 -0.000250126)
(2.0649e-08 1.44481e-08 -0.000249742)
(-1.53205e-08 -1.7921e-08 -0.000250131)
(1.74976e-10 -2.24845e-08 -0.000250141)
(-3.53705e-08 1.49638e-08 -0.000249773)
(-1.49686e-08 -2.68347e-08 -0.000250162)
(1.68063e-08 1.96724e-08 -0.000249714)
(1.19098e-08 1.58874e-08 -0.000262751)
(-2.01159e-08 -9.44592e-11 -0.000263105)
(2.0643e-09 1.75809e-08 -0.000262723)
(-1.19613e-08 -1.3785e-08 -0.000263032)
(-2.50567e-08 1.48657e-09 -0.000263143)
(1.26443e-08 1.82692e-08 -0.000262743)
(8.54865e-10 -2.35495e-08 -0.000263058)
(1.15327e-08 2.10798e-08 -0.00026273)
(-2.68101e-08 -6.63271e-09 -0.000262742)
(-2.0032e-09 2.39637e-08 -0.000263099)
(-7.70801e-09 -2.20223e-08 -0.000262812)
(1.81472e-08 1.3796e-08 -0.000263139)
(2.39992e-09 1.73614e-08 -0.000263046)
(-2.43003e-08 -9.42137e-09 -0.000262727)
(1.76646e-08 1.58149e-08 -0.000263121)
(-2.0174e-08 -1.98412e-08 -0.000262762)
(1.70948e-08 -1.385e-08 -0.000249759)
(-8.11404e-09 1.95928e-08 -0.000250161)
(1.10098e-08 1.81837e-08 -0.000250126)
(-3.05758e-08 -1.19928e-08 -0.00024978)
(-2.51248e-08 1.01263e-08 -0.000250157)
(2.42704e-08 -1.12909e-08 -0.000249737)
(3.99159e-09 -2.84137e-08 -0.000262843)
(-1.92119e-08 6.10552e-09 -0.000263146)
(-8.21239e-09 1.79707e-08 -0.000263044)
(1.28152e-08 -1.55934e-08 -0.000262765)
(-5.50346e-09 1.78289e-08 -0.000263127)
(9.35353e-09 -1.77265e-08 -0.000262788)
(-1.06318e-08 2.63027e-08 -0.000249924)
(2.28857e-08 7.50693e-10 -0.000250313)
(1.08055e-08 2.81178e-08 -0.000250219)
(-1.38572e-08 -1.81546e-08 -0.000249878)
(1.57294e-08 -1.91654e-08 -0.000250288)
(-1.11511e-08 2.95707e-08 -0.000249909)
(1.00011e-08 -2.86661e-08 -0.000249868)
(-2.02515e-08 7.52642e-09 -0.000250255)
(8.97833e-09 2.27626e-08 -0.000249887)
(-2.32016e-08 -2.98378e-09 -0.00025026)
(-1.8868e-08 2.80333e-08 -0.000250247)
(1.29191e-08 -2.66692e-08 -0.000249873)
(-1.81844e-08 -1.62009e-08 -0.00025025)
(6.31678e-09 3.05473e-08 -0.000249888)
(-2.36828e-08 9.31211e-09 -0.000262751)
(-2.11288e-09 -2.67575e-08 -0.00026309)
(1.11906e-08 -1.50818e-08 -0.000263123)
(-1.19688e-08 2.72891e-08 -0.000262824)
(1.1182e-08 -1.30424e-08 -0.000263063)
(-2.06419e-08 1.33102e-08 -0.000262714)
(-2.80714e-08 1.03774e-08 -0.000249782)
(6.00514e-09 -1.84083e-08 -0.000250133)
(2.20447e-08 1.69401e-08 -0.000249729)
(-1.10979e-08 -2.35428e-08 -0.000250156)
(1.91909e-08 -1.50681e-08 -0.000250146)
(-3.06761e-08 6.01691e-09 -0.000249786)
(-2.34322e-08 -1.88162e-08 -0.000250125)
(2.02963e-08 1.29747e-08 -0.00024975)
(9.46045e-09 2.12111e-08 -0.000262787)
(-2.72684e-08 2.78282e-09 -0.000263162)
(2.0075e-08 6.53803e-09 -0.000262777)
(-6.0378e-09 -1.83269e-08 -0.000263074)
(-1.8906e-08 -4.42984e-09 -0.000263108)
(4.94905e-09 3.17743e-08 -0.000262791)
(-9.56618e-09 -1.64578e-08 -0.000263067)
(1.5245e-08 1.19716e-08 -0.000262732)
(-1.70793e-08 -8.37728e-09 -0.000262725)
(2.2551e-09 2.0481e-08 -0.000263081)
(-1.75244e-08 -8.36612e-09 -0.000262764)
(1.74229e-08 1.24829e-08 -0.000263127)
(1.33184e-08 1.77177e-08 -0.000263095)
(-9.9603e-09 -1.61938e-08 -0.000262746)
(1.2405e-08 2.20918e-08 -0.000263129)
(-2.04292e-08 -1.98209e-09 -0.000262772)
(1.29072e-08 -2.27828e-08 -0.000249728)
(-3.45121e-08 1.16779e-08 -0.000250181)
(1.88801e-08 2.10597e-08 -0.000250142)
(-6.98817e-09 -2.01699e-08 -0.000249788)
(-1.84281e-08 1.76903e-08 -0.000250162)
(6.72186e-10 -2.09716e-08 -0.000249751)
(1.12511e-08 -8.86173e-09 -0.000262788)
(-1.16145e-08 1.32878e-08 -0.000263113)
(-1.19424e-08 1.94298e-08 -0.000263115)
(7.43193e-09 -2.01477e-08 -0.000262768)
(-2.4154e-08 -1.45546e-09 -0.000263133)
(1.63803e-08 -8.69639e-09 -0.000262792)
(-2.00207e-08 1.37436e-08 -0.000249878)
(1.38521e-08 -1.96614e-08 -0.000250285)
(1.94138e-08 2.20001e-08 -0.000250244)
(-1.92445e-08 -1.63279e-08 -0.000249874)
(9.20438e-09 -1.12185e-08 -0.000250283)
(-1.5153e-08 1.09917e-08 -0.00024988)
(2.41115e-08 -1.49445e-08 -0.000249835)
(-1.88766e-08 2.50863e-08 -0.00025021)
(1.50511e-08 2.62695e-08 -0.000249845)
(-1.75318e-08 -1.05163e-08 -0.000250229)
(-2.60969e-08 4.15478e-09 -0.000250237)
(1.92128e-08 -1.67643e-08 -0.000249842)
(-2.16308e-08 -1.25613e-08 -0.000250229)
(1.46937e-08 2.53743e-08 -0.000249827)
(-9.0534e-09 1.63768e-08 -0.000262747)
(1.48118e-08 -1.17719e-08 -0.00026305)
(2.38003e-08 -1.0734e-08 -0.000263142)
(-1.91332e-08 8.77325e-09 -0.00026279)
(9.69827e-10 -2.06077e-08 -0.000263075)
(-1.53364e-09 2.31113e-08 -0.000262755)
(-1.4186e-08 2.12151e-08 -0.000249768)
(2.28745e-08 -1.15719e-08 -0.000250127)
(1.78767e-08 2.07858e-08 -0.000249755)
(-2.28717e-08 -9.59628e-09 -0.000250101)
(9.11557e-09 -2.15476e-08 -0.000250177)
(-1.03309e-08 2.27902e-08 -0.000249758)
(-1.76803e-08 -1.73311e-08 -0.000250125)
(1.0045e-08 1.58559e-08 -0.000249771)
(9.98443e-09 1.75304e-08 -0.000262774)
(-1.65802e-08 -9.29527e-09 -0.000263087)
(9.71764e-09 1.31161e-08 -0.000262721)
(-1.36224e-08 -1.75675e-08 -0.000263077)
(-1.19453e-08 -1.45953e-08 -0.000263068)
(1.03918e-08 2.19116e-08 -0.000262761)
(-1.85813e-08 -1.16873e-08 -0.000263054)
(1.09346e-08 2.11724e-08 -0.000262704)
(-4.40643e-09 -1.65028e-08 -0.000262748)
(1.52236e-08 1.74416e-08 -0.000263117)
(-2.04612e-08 -5.198e-10 -0.000262772)
(1.12615e-08 2.72357e-08 -0.000263114)
(2.51992e-09 1.92139e-08 -0.000263101)
(-1.93099e-09 -1.23113e-08 -0.000262767)
(2.42971e-08 7.58812e-10 -0.000263138)
(-1.5773e-08 -5.6364e-09 -0.000262772)
(1.27259e-08 -1.53989e-08 -0.000249806)
(-1.85249e-08 2.19394e-08 -0.000250137)
(2.64517e-08 2.04982e-08 -0.000250156)
(-2.23739e-08 -1.45739e-08 -0.000249807)
(-1.63461e-08 1.45488e-08 -0.000250136)
(1.06758e-08 -1.53815e-08 -0.000249834)
(1.15714e-08 -1.52853e-08 -0.000262807)
(-1.35308e-08 2.1699e-08 -0.000263082)
(-6.93273e-09 1.6714e-08 -0.000263111)
(-1.26283e-08 -2.33273e-08 -0.000262736)
(-1.95365e-08 5.73647e-09 -0.000263075)
(1.12031e-08 -2.77398e-10 -0.000262797)
(-8.57576e-09 1.4614e-08 -0.000249938)
(1.95588e-08 -2.11268e-08 -0.00025028)
(2.16352e-08 2.12957e-08 -0.00025025)
(-1.36724e-08 -1.75938e-08 -0.000249873)
(1.40801e-08 -2.41376e-08 -0.000250261)
(-9.57862e-09 1.49056e-08 -0.000249926)
(1.02913e-08 -2.41067e-08 -0.000249853)
(-2.64047e-08 1.15945e-08 -0.000250232)
(1.12696e-08 1.87304e-08 -0.000249825)
(-2.16512e-08 -2.00771e-08 -0.000250208)
(-1.35704e-08 2.88725e-08 -0.00025025)
(7.00214e-09 -2.55129e-08 -0.000249844)
(-1.97068e-08 -1.67431e-08 -0.000250211)
(1.03449e-08 1.64947e-08 -0.000249844)
(-1.34566e-08 1.308e-08 -0.000262775)
(1.82475e-08 -1.1779e-08 -0.000263044)
(2.02508e-08 -3.73673e-09 -0.000263114)
(-2.29399e-08 -6.62652e-09 -0.000262752)
(6.94552e-12 -2.1732e-08 -0.000263053)
(5.80041e-09 1.66656e-08 -0.00026276)
(-2.41576e-08 1.06865e-08 -0.00024977)
(1.60631e-08 -2.7655e-08 -0.000250169)
(6.01558e-09 1.66611e-08 -0.000249769)
(-2.44846e-08 -1.93782e-08 -0.000250129)
(2.24743e-08 -1.89415e-08 -0.000250148)
(-2.23877e-08 9.43654e-09 -0.000249773)
(-1.97304e-08 -2.06509e-08 -0.000250149)
(7.59838e-09 9.18427e-09 -0.000249755)
(1.57973e-08 9.83652e-09 -0.000262736)
(-1.30716e-08 -2.50576e-08 -0.000263077)
(3.4075e-09 1.94216e-08 -0.000262687)
(-3.21643e-08 -1.45702e-08 -0.000263031)
(-2.26433e-08 3.15389e-09 -0.000263066)
(1.73721e-08 4.58471e-09 -0.00026273)
(-4.14448e-09 -2.10167e-08 -0.000263013)
(-9.75116e-09 1.90583e-08 -0.000262709)
(-1.30091e-08 -8.79247e-09 -0.000262757)
(9.40168e-09 9.62523e-09 -0.000263119)
(-5.10781e-09 -2.84942e-08 -0.000262779)
(1.95122e-08 1.16764e-08 -0.000263164)
(1.38895e-08 1.14328e-08 -0.000263094)
(2.93393e-10 -1.6106e-08 -0.00026278)
(2.0916e-08 1.21272e-08 -0.000263104)
(-1.75856e-08 -8.25634e-09 -0.000262786)
(1.98094e-08 -1.68919e-08 -0.000249815)
(-8.84777e-09 2.3976e-08 -0.00025019)
(3.41321e-08 1.62814e-08 -0.000250108)
(-1.72262e-08 -2.1455e-08 -0.000249799)
(-2.65182e-08 1.60917e-08 -0.000250168)
(2.03441e-08 -1.8177e-08 -0.000249802)
(1.34323e-08 -1.77372e-08 -0.000262765)
(-1.4051e-08 1.03231e-08 -0.000263148)
(-2.24656e-09 1.83018e-08 -0.000263073)
(1.09422e-08 -1.15094e-08 -0.000262775)
(-1.9367e-08 7.81953e-09 -0.000263142)
(1.86899e-08 -1.50381e-08 -0.000262797)
(-1.34968e-08 1.61564e-08 -0.000249892)
(2.03623e-08 -9.07687e-09 -0.000250296)
(1.01801e-08 3.54619e-08 -0.000250174)
(-1.20429e-08 -2.63885e-08 -0.000249894)
(1.35788e-08 -3.12003e-08 -0.000250281)
(-1.55958e-08 2.35118e-08 -0.000249907)
(1.31321e-08 -1.61695e-08 -0.000249866)
(-1.84251e-08 1.54398e-08 -0.000250252)
(1.33481e-08 2.32084e-08 -0.000249836)
(-1.00385e-08 -2.37814e-08 -0.000250254)
(-8.41458e-09 2.66344e-08 -0.000250192)