/*--------------------------------*- C++ -*----------------------------------*\
| =========                 |                                                 |
| \\      /  F ield         | OpenFOAM: The Open Source CFD Toolbox           |
|  \\    /   O peration     | Version:  2206                                  |
|   \\  /    A nd           | Website:  www.openfoam.com                      |
|    \\/     M anipulation  |                                                 |
\*---------------------------------------------------------------------------*/
FoamFile
{
    version     2.0;
    format      ascii;
    arch        "LSB;label=32;scalar=64";
    class       volScalarField;
    location    "0.3";
    object      omega;
}
// * * * * * * * * * * * * * * * * * * * * * * * * * * * * * * * * * * * * * //

dimensions      [0 0 -1 0 0 0 0];

internalField   nonuniform List<scalar> 
66940
(
20.1121
20.3499
20.3187
20.8643
20.1015
20.3395
20.3095
20.8972
20.1016
20.3387
20.3081
20.871
20.1015
20.3391
20.3079
20.8943
20.1014
20.3386
20.3079
20.871
20.1014
20.339
20.308
20.8942
20.1014
20.3389
20.3081
20.8711
20.1014
20.3396
20.3086
20.8944
20.1023
20.3399
20.3093
20.8719
20.1087
20.3428
20.3126
20.8989
20.1693
20.3548
20.3424
20.889
20.8131
21.3348
21.2926
22.8929
20.8777
20.333
20.333
20.8804
20.3579
20.3616
20.3599
20.3633
20.8832
20.3286
20.3242
20.8759
20.8644
20.878
20.3239
20.3234
20.3127
20.3135
20.8662
20.8832
20.3483
20.3521
20.3372
20.3409
20.3529
20.3403
20.3474
20.8697
20.8836
20.3218
20.3106
20.3122
20.9115
20.8656
20.8753
20.3131
20.3134
20.3111
20.3098
20.8713
20.8762
20.3377
20.3413
20.3371
20.341
20.3475
20.3389
20.3428
20.8714
20.8822
20.3117
20.3083
20.3068
20.8835
20.8634
20.8753
20.3118
20.3103
20.3111
20.3102
20.864
20.8796
20.3384
20.342
20.3371
20.3411
20.3418
20.3391
20.3444
20.8703
20.8823
20.3096
20.308
20.3094
20.9083
20.8634
20.8753
20.3119
20.3114
20.3111
20.3097
20.868
20.8767
20.3383
20.3419
20.3371
20.3411
20.3451
20.339
20.3429
20.8704
20.8823
20.3093
20.3079
20.3066
20.8834
20.8634
20.8749
20.3119
20.3103
20.311
20.3101
20.8646
20.8792
20.3384
20.3416
20.3371
20.341
20.3419
20.3389
20.3443
20.8704
20.8821
20.3096
20.3079
20.3093
20.908
20.8633
20.8748
20.3119
20.3112
20.3109
20.3095
20.8679
20.876
20.3383
20.3418
20.3368
20.3408
20.3451
20.3387
20.3426
20.8705
20.8819
20.3093
20.3078
20.3064
20.8829
20.8635
20.8744
20.3121
20.3105
20.3105
20.3095
20.8643
20.8787
20.3384
20.3418
20.3365
20.3404
20.3421
20.3385
20.3439
20.8705
20.8815
20.3099
20.3076
20.3087
20.9074
20.8637
20.874
20.3124
20.3115
20.3105
20.3092
20.8683
20.8753
20.3386
20.3422
20.3363
20.3403
20.3457
20.3384
20.3421
20.8708
20.8807
20.3099
20.3076
20.306
20.8811
20.8647
20.8678
20.3133
20.3117
20.3134
20.3126
20.8655
20.8717
20.3393
20.343
20.3388
20.3428
20.3438
20.341
20.3464
20.8715
20.8748
20.3109
20.3107
20.3113
20.9014
20.8695
20.8626
20.3162
20.3153
20.3292
20.328
20.8743
20.8649
20.3418
20.3458
20.3571
20.3611
20.349
20.3596
20.363
20.8769
20.8701
20.3137
20.3275
20.3241
20.8692
20.8771
21.547
20.3479
20.3465
20.3773
20.3681
20.8784
21.6371
20.3557
20.3602
20.359
20.3591
20.3607
20.3938
20.363
20.8846
21.5503
20.3448
20.3793
20.3731
21.5529
22.87
21.3032
21.3188
23.0123
21.2751
21.2852
20.8372
20.8098
20.8083
21.2927
22.8697
21.2876
386.418
20.1245
20.1277
20.1242
20.1273
27.4797
20.3695
60.5793
20.1851
20.8786
118.261
117.768
66.0927
241.737
66.056
241.674
385.556
385.449
69.0161
244.632
68.5835
244.622
20.1168
20.1139
20.1166
20.1017
20.1031
20.1016
20.1027
27.6022
60.8328
20.1652
20.3447
27.4355
61.0524
20.1601
387.512
387.42
26.796
20.1501
59.12
20.3144
26.7703
20.1446
59.189
118.86
117.149
20.8976
119.09
117.262
65.9866
241.798
66.0521
241.589
385.599
385.425
69.0176
244.793
68.7964
244.615
20.1046
20.1035
20.1043
20.1017
20.1019
20.102
20.1019
27.606
61.0692
20.1537
20.3398
27.5287
61.1334
20.1551
387.592
387.437
26.7889
20.1389
59.2034
20.3096
26.7979
20.1405
59.1581
119.109
117.034
20.8941
119.102
116.837
65.8834
241.801
65.9345
241.618
385.556
385.391
69.0247
244.772
68.8067
244.615
20.1036
20.1038
20.1038
20.1015
20.1019
20.102
20.1025
27.6126
61.055
20.1536
20.3392
27.5201
61.1188
20.1552
387.616
387.43
26.7601
20.1387
59.1454
20.3087
26.7588
20.1403
59.1119
119.136
116.81
20.897
119.221
116.913
65.8604
241.789
65.8887
241.588
385.554
385.415
69.0247
244.835
68.8064
244.644
20.1037
20.1038
20.1041
20.1015
20.102
20.102
20.102
27.6123
61.0479
20.1534
20.3401
27.5174
61.1255
20.1553
387.612
387.426
26.7544
20.1386
59.1237
20.3085
26.7498
20.1404
59.0893
119.09
116.926
20.8928
119.084
116.773
65.8579
241.779
65.8856
241.589
385.574
385.392
69.0243
244.833
68.8065
244.646
20.1037
20.1037
20.1039
20.1016
20.102
20.102
20.1026
27.612
61.0515
20.1533
20.3391
27.5175
61.1118
20.1551
387.601
387.425
26.7583
20.1385
59.1041
20.3087
26.7524
20.1404
59.0772
119.137
116.832
20.8968
119.218
116.917
65.7974
241.781
65.8564
241.59
385.607
385.425
69.0243
244.834
68.8064
244.645
20.1037
20.1037
20.1041
20.1017
20.102
20.102
20.1021
27.6118
61.0467
20.1534
20.3399
27.5168
61.1239
20.1553
387.597
387.427
26.7591
20.1385
59.116
20.3087
26.7566
20.1402
59.0952
119.087
116.926
20.8925
119.084
116.77
65.8591
241.784
65.8662
241.578
385.587
385.404
69.0247
244.84
68.8064
244.631
20.1036
20.1036
20.1039
20.1016
20.1021
20.1021
20.1027
27.612
61.0508
20.1534
20.3388
27.5161
61.1101
20.1551
387.61
387.444
26.7544
20.1385
59.1307
20.3084
26.7485
20.1401
59.1014
119.137
116.853
20.8963
119.22
116.924
65.8512
241.803
65.8867
241.513
385.604
385.436
69.0239
244.868
68.8081
244.559
20.1038
20.1037
20.1041
20.102
20.1023
20.1023
20.1023
27.6134
61.0427
20.1537
20.3393
27.5146
61.1194
20.1553
387.627
387.448
26.7596
20.1388
59.1186
20.3081
26.7493
20.1405
59.0958
119.086
116.921
20.8911
119.093
116.783
65.7259
241.868
65.8253
241.355
385.603
385.348
69.0131
244.819
68.8135
244.36
20.1045
20.1046
20.1047
20.1054
20.1052
20.1053
20.1057
27.6146
61.0378
20.1551
20.3393
27.513
61.0852
20.1558
387.697
387.453
26.7647
20.1406
59.1176
20.3089
26.7479
20.1412
59.0978
119.142
116.881
20.8946
119.193
116.914
65.6295
241.923
65.8073
240.783
385.493
384.75
68.8056
244.9
68.8936
243.817
20.1113
20.1113
20.1115
20.1405
20.1407
20.1409
20.1407
27.5967
60.998
20.1636
20.3473
27.5025
61.0031
20.1651
387.573
386.84
26.7261
20.1494
59.0761
20.3173
26.7199
20.1513
59.0164
119.144
117.04
20.8812
118.87
116.693
69.998
243.184
67.8116
242.596
384.586
381.628
69.8423
244.599
68.2558
242.961
20.1698
20.17
20.1699
20.7396
20.7406
20.7377
20.738
28.1234
60.4206
20.2155
20.3649
27.3516
62.5646
20.3072
385.718
381.434
28.3845
20.2117
59.0867
20.3806
27.195
20.322
62.7338
118.521
116.985
20.9607
118.842
118.319
108.332
1648.83
143.534
433.025
1709.87
553.686
108.283
1649.03
143.316
432.993
20.9545
20.7651
20.7701
21.2315
20.616
21.0976
21.1006
41.8594
246.876
20.8513
22.0727
40.3649
218.893
21.3917
1709.95
553.702
41.9829
20.8619
246.875
22.0766
40.4664
21.3973
219.095
314.316
314.955
23.3536
331.972
332.056
385.261
386.351
387.344
387.23
20.8706
117.086
118.926
117.249
118.244
243.145
20.3786
60.1774
67.7553
241.603
243.075
66.0702
67.7231
241.736
242.838
66.048
27.2672
20.3416
59.2013
20.1661
59.8274
20.1756
26.8071
27.2633
20.3417
59.2448
20.1664
59.734
20.1758
26.8068
20.8831
117.847
118.442
386.984
385.376
386.25
20.8713
117.232
118.854
117.104
118.19
387.345
387.025
68.2249
244.499
244.041
68.7473
27.3722
20.3658
60.8214
20.1768
60.3841
20.184
27.5269
68.2101
244.438
244.09
68.7337
27.3724
20.3695
20.1781
60.8721
20.1851
60.4378
27.5259
68.4095
243.869
27.4799
20.3732
20.1875
60.6305
68.3995
243.896
27.36
20.3664
60.8675
20.1773
60.3217
20.1835
27.5273
68.1164
244.538
243.705
68.6588
27.3602
20.3701
20.1796
60.8754
20.186
60.3694
27.5235
68.1123
244.579
243.725
68.6552
387.345
387.211
20.8747
118.847
117.004
118.338
117.109
385.15
386.215
27.2602
20.3374
20.1637
59.1195
20.1731
59.7008
26.7822
27.2561
20.336
20.1656
59.0251
20.1743
59.7574
26.7826
67.6243
241.292
242.851
65.9246
67.6058
241.385
242.976
65.9257
386.928
386.352
20.8668
118.857
117.11
118.005
116.936
387.327
386.979
385.251
386.147
385.275
385.462
387.393
387.492
116.892
118.683
20.8763
117.167
119.232
385.488
385.477
387.513
387.507
20.8652
117.046
119.333
116.957
118.982
66.1536
241.491
65.8898
241.807
26.8066
59.0603
20.1542
20.3189
26.7405
59.3749
20.1474
26.812
59.1648
20.1546
20.3194
26.7424
59.4035
20.1475
65.9337
241.763
241.532
66.1243
65.9965
241.885
241.789
66.1259
26.7589
20.3143
59.2823
20.1399
59.191
20.141
26.8146
26.7658
20.3155
59.3001
20.1401
59.2156
20.1411
26.8252
117.045
118.592
20.8773
117.213
119.169
387.371
387.462
385.503
385.455
20.8666
117.027
119.251
116.853
118.963
387.557
387.479
27.6114
60.5912
20.1664
20.3432
27.4221
61.1051
20.1606
68.9594
244.251
68.4553
244.686
27.6072
20.1675
60.6309
20.3467
27.4235
20.1614
61.1414
68.7116
244.908
244.47
69.0731
27.4993
20.3384
61.1743
20.1535
60.8533
20.1544
27.6329
68.6668
244.886
244.54
69.0287
27.496
20.3422
20.1543
61.2011
20.1551
60.8843
27.6336
68.9209
244.394
68.3736
244.786
27.5936
20.1688
60.6248
20.3521
27.4115
20.1625
61.1449
68.9116
244.421
68.3757
244.809
27.4858
20.3413
61.2327
20.1543
60.7921
20.1567
27.6438
68.6312
244.902
244.645
69.0319
27.4802
20.3468
20.1558
61.208
20.1568
60.8807
27.6343
68.6282
244.888
244.656
69.0357
118.603
116.79
20.881
119.103
116.982
385.269
385.448
387.479
387.447
20.87
119.257
116.984
119.044
116.652
385.455
385.452
26.8002
20.154
58.8579
20.315
26.715
20.1467
59.2887
66.1144
241.199
65.7603
241.718
66.1057
241.288
65.7673
241.82
26.7456
20.3113
20.1392
59.3302
20.1411
59.0166
26.8386
26.7502
20.3152
20.1394
59.2786
20.1404
59.1248
26.8254
65.9498
241.817
241.648
66.138
65.948
241.839
241.79
66.1512
387.358
387.511
385.413
385.581
20.8846
119.31
117.147
118.69
116.922
387.485
387.501
385.555
385.599
385.47
385.422
387.524
387.497
116.794
119.061
20.8755
116.911
119.362
385.445
385.427
387.526
387.502
20.8633
116.896
119.351
116.707
119.087
66.0496
241.779
65.957
241.944
26.7913
59.0902
20.1415
20.3128
26.7577
59.2344
20.1414
26.8032
59.1095
20.1416
20.3129
26.7701
59.2832
20.1414
65.8242
241.769
241.483
65.9977
65.8894
241.878
241.832
65.9743
26.7344
20.3115
59.2027
20.1399
59.055
20.1403
26.7812
26.7455
20.3109
59.2008
20.1397
59.0956
20.1401
26.7881
116.853
118.967
20.8804
116.96
119.223
387.553
387.472
385.466
385.452
20.8671
116.968
119.199
116.765
118.939
387.468
387.485
27.6025
60.888
20.1549
20.3377
27.5009
61.1587
20.1549
69.0164
244.717
68.7122
244.928
27.6105
20.1558
60.9183
20.3413
27.5062
20.1557
61.2286
68.7
244.858
244.451
69.0751
27.4799
20.337
61.167
20.1536
60.8807
20.1537
27.6245
68.7035
244.883
244.74
69.0316
27.4864
20.341
20.1546
61.2143
20.1547
60.9496
27.6264
69.0204
244.721
68.7149
244.901
27.6054
20.157
60.9112
20.3468
27.5049
20.1568
61.1914
69.018
244.778
68.723
244.838
27.4779
20.3395
61.2254
20.1536
60.8505
20.1548
27.6306
68.7031
244.897
244.722
69.0219
27.4775
20.3446
20.1547
61.2004
20.1551
60.9057
27.6218
68.7026
244.898
244.669
69.0263
118.986
116.649
20.8812
119.268
116.766
385.463
385.425
387.519
387.467
20.8691
119.273
116.883
119.161
116.44
385.435
385.427
26.7974
20.1407
59.1099
20.311
26.7655
20.1406
59.1868
66.0702
241.66
65.9744
241.907
66.0678
241.805
65.984
241.782
26.7322
20.309
20.1387
59.2421
20.14
58.9751
26.7974
26.7387
20.3082
20.1389
59.148
20.1392
59.004
26.7872
65.8979
241.817
241.768
65.9778
65.9024
241.797
241.771
65.989
387.502
387.503
385.545
385.485
20.8783
119.266
116.855
118.833
116.647
387.485
387.505
385.438
385.483
385.451
385.432
387.529
387.569
116.699
119.082
20.8749
116.927
119.403
385.457
385.431
387.53
387.582
20.863
116.899
119.358
116.728
119.123
65.9615
241.689
65.8131
241.897
26.7671
59.0247
20.1415
20.3118
26.7261
59.2163
20.1414
26.7777
59.0217
20.1413
20.3107
26.7355
59.2519
20.1413
65.7235
241.771
241.505
65.9335
65.8028
241.812
241.79
65.9609
26.7128
20.3111
59.2088
20.1398
59.0439
20.1402
26.7711
26.7245
20.3102
59.1893
20.1397
59.0707
20.1401
26.7816
116.785
118.907
20.8754
116.962
119.242
387.484
387.5
385.455
385.393
20.8639
116.879
119.196
116.658
118.995
387.47
387.511
27.6106
60.8851
20.1552
20.3384
27.4994
61.1642
20.1552
69.0245
244.742
68.7169
244.798
27.6173
20.1562
60.9201
20.3418
27.5045
20.1561
61.2067
68.7018
244.9
244.452
69.074
27.4852
20.3372
61.1713
20.1538
60.8846
20.1541
27.6227
68.7103
244.858
244.636
69.0302
27.4917
20.3411
20.1546
61.2067
20.1548
60.9295
27.6247
69.0244
244.718
68.706
244.911
27.6112
20.1561
60.9062
20.3453
27.496
20.1561
61.1948
69.0215
244.714
68.7145
244.918
27.483
20.3389
61.2149
20.1535
60.8366
20.1548
27.6275
68.7078
244.882
244.729
69.0189
27.4831
20.3416
20.1545
61.1807
20.1546
60.9057
27.6193
68.7074
244.911
244.731
69.0245
119.001
116.657
20.8813
119.258
116.78
385.431
385.42
387.511
387.473
20.8693
119.284
116.9
119.152
116.455
385.439
385.427
26.7703
20.1406
58.9632
20.3077
26.7285
20.1405
59.1961
65.9631
241.816
65.8155
241.791
65.9706
241.728
65.8292
241.858
26.7065
20.3082
20.1386
59.2263
20.1398
58.9337
26.7873
26.7156
20.3101
20.1391
59.1794
20.1395
59.0156
26.7777
65.8228
241.777
241.693
65.9174
65.8376
241.789
241.689
65.9382
387.485
387.556
385.448
385.432
20.883
119.289
116.978
118.787
116.625
387.553
387.514
385.439
385.432
385.445
385.432
387.532
387.57
116.698
119.087
20.8748
116.922
119.403
385.462
385.431
387.526
387.58
20.8629
116.894
119.359
116.719
119.123
65.9589
241.671
65.8022
241.749
26.7658
59.0285
20.1414
20.312
26.718
59.2047
20.1413
26.778
59.0127
20.1413
20.3113
26.7299
59.2288
20.1412
65.7007
241.751
241.464
65.9196
65.803
241.756
241.701
65.9698
26.7126
20.3111
59.2021
20.1398
59.0303
20.1402
26.7712
26.7265
20.3101
59.1862
20.1397
59.0484
20.14
26.7857
116.688
118.919
20.8794
116.946
119.229
387.48
387.472
385.477
385.422
20.8666
116.962
119.204
116.753
118.95
387.458
387.477
27.6107
60.8903
20.1553
20.3382
27.4979
61.1737
20.1553
69.0241
244.737
68.7152
244.787
27.6171
20.1561
60.9173
20.3418
27.5023
20.1561
61.2115
68.7019
244.906
244.488
69.0743
27.4853
20.3371
61.1708
20.1538
60.8927
20.154
27.6226
68.7104
244.865
244.635
69.0304
27.4918
20.3412
20.1546
61.2033
20.1548
60.9337
27.6246
69.0249
244.699
68.703
244.879
27.6114
20.1561
60.8834
20.3451
27.4932
20.156
61.1922
69.0229
244.725
68.7126
244.917
27.483
20.3398
61.2229
20.1534
60.844
20.1548
27.6279
68.709
244.88
244.702
69.0195
27.4835
20.3442
20.1546
61.2034
20.1548
60.9081
27.6195
68.7094
244.878
244.732
69.0258
119.013
116.669
20.8814
119.261
116.777
385.452
385.429
387.504
387.469
20.8694
119.269
116.895
119.155
116.452
385.455
385.438
26.7652
20.1406
58.995
20.309
26.7198
20.1405
59.2043
65.9395
241.677
65.7598
241.822
65.949
241.724
65.7804
241.848
26.7005
20.3081
20.1386
59.1963
20.1398
58.9109
26.787
26.7109
20.3075
20.1389
59.1619
20.1391
59.0176
26.7795
65.7801
241.856
241.662
65.9304
65.7943
241.904
241.683
65.9623
387.55
387.519
385.457
385.491
20.8774
119.27
116.908
118.816
116.571
387.534
387.526
385.472
385.505
385.458
385.439
387.526
387.568
116.694
119.087
20.8747
116.911
119.402
385.464
385.439
387.526
387.576
20.8629
116.884
119.358
116.708
119.122
65.9672
241.751
65.8111
241.758
26.7668
59.0248
20.1414
20.3119
26.7182
59.2028
20.1413
26.7803
59.0101
20.1412
20.3107
26.7342
59.236
20.1412
65.7081
241.751
241.464
65.9587
65.8121
241.769
241.71
65.9722
26.7148
20.3111
59.1981
20.1398
59.028
20.1401
26.7689
26.728
20.3102
59.1873
20.1397
59.054
20.1399
26.7857
116.779
118.911
20.8754
116.965
119.238
387.47
387.488
385.536
385.402
20.864
116.893
119.193
116.677
118.99
387.464
387.507
27.6105
60.8884
20.1553
20.3383
27.4978
61.1736
20.1553
69.0243
244.673
68.7153
244.884
27.6169
20.1561
60.9146
20.3416
27.5023
20.1561
61.2169
68.7019
244.906
244.488
69.0741
27.4851
20.3372
61.17
20.1538
60.8926
20.154
27.6223
68.7111
244.875
244.703
69.0313
27.4917
20.3411
20.1546
61.2105
20.1547
60.9384
27.6247
69.0237
244.698
68.7034
244.879
27.611
20.156
60.907
20.3453
27.4933
20.1559
61.1869
69.0213
244.68
68.7135
244.89
27.4827
20.3388
61.2111
20.1535
60.8298
20.1547
27.6274
68.7081
244.878
244.701
69.0187
27.483
20.3416
20.1546
61.1794
20.1546
60.899
27.619
68.7079
244.909
244.711
69.0244
118.996
116.662
20.8811
119.245
116.774
385.465
385.432
387.486
387.454
20.8691
119.271
116.897
119.141
116.449
385.464
385.448
26.7696
20.1405
58.9775
20.3076
26.7227
20.1404
59.1896
65.9635
241.748
65.7713
241.746
65.9664
241.818
65.8058
241.76
26.7052
20.3082
20.1386
59.2072
20.1398
58.9002
26.7931
26.7156
20.3101
20.1391
59.176
20.1395
59.009
26.7785
65.8061
241.872
241.666
65.9661
65.8372
241.777
241.76
65.9398
387.489
387.563
385.497
385.486
20.8829
119.285
116.978
118.781
116.626
387.532
387.514
385.461
385.486
385.467
385.445
387.525
387.571
116.683
119.086
20.8745
116.912
119.403
385.47
385.445
387.529
387.579
20.8629
116.895
119.36
116.711
119.122
65.9589
241.756
65.8155
241.759
26.7552
59.0209
20.1413
20.3118
26.7147
59.2031
20.1413
26.7792
59.0086
20.1412
20.3111
26.7336
59.2283
20.1412
65.6376
241.742
241.469
65.8858
65.8042
241.758
241.695
65.9695
26.7015
20.3113
59.2003
20.1398
59.0291
20.1401
26.7689
26.7262
20.3103
59.1872
20.1397
59.0489
20.1399
26.7861
116.699
118.918
20.879
116.951
119.223
387.473
387.476
385.484
385.441
20.8666
116.964
119.21
116.756
118.942
387.55
387.477
27.6103
60.8878
20.1553
20.3381
27.4973
61.1727
20.1553
69.0242
244.742
68.7167
244.786
27.6168
20.156
60.9196
20.3417
27.502
20.1561
61.21
68.7025
244.902
244.491
69.0748
27.4843
20.3372
61.1694
20.1538
60.8919
20.154
27.6223
68.7114
244.862
244.638
69.0308
27.4909
20.3413
20.1546
61.203
20.1547
60.9329
27.6246
69.0241
244.697
68.7032
244.88
27.611
20.1562
60.8835
20.3449
27.4926
20.156
61.1922
69.0227
244.725
68.713
244.922
27.482
20.3397
61.2219
20.1534
60.8428
20.1548
27.6276
68.7092
244.889
244.709
69.019
27.4826
20.3443
20.1546
61.2047
20.1548
60.9083
27.6192
68.7102
244.909
244.74
69.0252
119.001
116.664
20.8812
119.259
116.779
385.462
385.442
387.513
387.457
20.8695
119.273
116.898
119.154
116.453
385.467
385.454
26.7659
20.1405
58.992
20.309
26.7203
20.1405
59.1995
65.9607
241.796
65.8068
241.791
65.9477
241.766
65.7852
241.754
26.7052
20.3084
20.1385
59.2278
20.1398
58.9188
26.7866
26.7116
20.3076
20.1389
59.1547
20.1391
59.0155
26.7768
65.8197
241.87
241.696
65.9111
65.8228
241.773
241.723
65.9252
387.535
387.518
385.476
385.499
20.8775
119.269
116.944
118.815
116.566
387.538
387.522
385.47
385.518
385.469
385.448
387.557
387.577
116.693
119.087
20.8742
116.913
119.398
385.475
385.452
387.542
387.589
20.8631
116.885
119.359
116.707
119.115
65.967
241.762
65.8124
241.762
26.767
59.0227
20.1414
20.3116
26.7155
59.2021
20.1413
26.7814
59.0105
20.1413
20.3103
26.7336
59.2365
20.1412
65.7019
241.724
241.49
65.9183
65.8119
241.909
241.7
65.9754
26.7121
20.3116
59.1946
20.1397
59.0264
20.1403
26.7718
26.7266
20.3104
59.2012
20.1396
59.0545
20.1401
26.7874
116.779
118.915
20.8747
116.956
119.247
387.549
387.495
385.503
385.41
20.8641
116.879
119.195
116.666
118.987
387.478
387.516
27.6107
60.8873
20.1553
20.3378
27.4964
61.1717
20.1552
69.024
244.683
68.7165
244.871
27.6172
20.1561
60.9149
20.3412
27.5011
20.156
61.2202
68.7032
244.882
244.512
69.077
27.4832
20.3376
61.1672
20.1537
60.8902
20.1541
27.6231
68.7116
244.846
244.719
69.0306
27.4898
20.3416
20.1545
61.2084
20.1549
60.9418
27.6253
69.0234
244.716
68.7037
244.859
27.611
20.156
60.9099
20.3448
27.4918
20.1559
61.1916
69.021
244.733
68.7137
244.899
27.4805
20.3393
61.2091
20.1535
60.8274
20.1548
27.628
68.7088
244.842
244.707
69.0193
27.4809
20.3421
20.1544
61.1772
20.1546
60.9015
27.6199
68.7086
244.871
244.737
69.0251
119
116.658
20.8806
119.283
116.773
385.484
385.444
387.517
387.483
20.8695
119.273
116.895
119.157
116.447
385.464
385.465
26.7652
20.1405
58.9691
20.3071
26.7178
20.1404
59.1924
65.9355
241.792
65.7556
241.763
65.9483
241.776
65.7704
241.751
26.6982
20.3086
20.1386
59.221
20.1398
58.9241
26.7866
26.7086
20.3107
20.139
59.1736
20.1396
59.012
26.7803
65.7776
241.751
241.674
65.9265
65.7941
241.752
241.724
65.9656
387.517
387.545
385.479
385.46
20.8831
119.286
116.974
118.78
116.626
387.563
387.51
385.467
385.471
385.472
385.469
387.563
387.592
116.681
119.084
20.8738
116.916
119.406
385.481
385.472
387.568
387.618
20.8635
116.909
119.362
116.715
119.123
65.9684
241.789
65.819
241.719
26.7699
59.0145
20.1416
20.3113
26.7149
59.2005
20.1412
26.7828
59.0205
20.1416
20.3104
26.7318
59.2261
20.1412
65.7446
241.682
241.547
65.8956
65.8128
241.676
241.684
65.9718
26.711
20.3121
59.1945
20.1398
59.0237
20.1409
26.7699
26.7243
20.3111
59.1726
20.1398
59.0397
20.1407
26.7894
116.681
118.915
20.8783
116.949
119.231
387.495
387.495
385.494
385.488
20.8671
116.981
119.204
116.759
118.948
387.505
387.524
27.6119
60.8834
20.1555
20.3374
27.4947
61.1676
20.1551
69.0237
244.74
68.7163
244.7
27.6183
20.1563
60.9149
20.3409
27.4993
20.1559
61.2025
68.7045
244.631
244.554
69.0783
27.4811
20.3381
61.1569
20.1536
60.8854
20.1547
27.6251
68.7127
244.751
244.696
69.0296
27.4876
20.3421
20.1544
61.1944
20.1554
60.9226
27.6271
69.0244
244.721
68.7042
244.79
27.6126
20.1563
60.8793
20.3443
27.49
20.1559
61.188
69.0227
244.768
68.7138
244.829
27.4786
20.3405
61.2138
20.1538
60.8353
20.1555
27.6299
68.711
244.766
244.733
69.0199
27.479
20.3451
20.1544
61.1978
20.1555
60.9008
27.622
68.7111
244.792
244.761
69.0243
118.997
116.644
20.8802
119.271
116.77
385.49
385.459
387.598
387.519
20.8699
119.263
116.904
119.129
116.449
385.474
385.482
26.7715
20.1409
58.9866
20.3085
26.7194
20.1404
59.1968
65.964
241.674
65.7696
241.752
65.9711
241.718
65.8092
241.706
26.7011
20.3092
20.1392
59.2185
20.1407
58.9132
26.7912
26.711
20.3086
20.139
59.1564
20.1399
59.0057
26.7841
65.8083
241.79
241.673
65.9689
65.8174
241.818
241.688
65.9815
387.561
387.526
385.494
385.519
20.8781
119.261
116.97
118.818
116.574
387.552
387.551
385.498
385.547
385.507
385.43
387.613
387.587
116.712
119.088
20.8713
116.952
119.411
385.333
385.445
387.473
387.627
20.8659
116.92
119.378
116.767
119.15
65.9489
241.657
65.8155
241.552
26.7559
59.0089
20.1431
20.312
26.7072
59.19
20.1421
26.7836
58.989
20.1431
20.311
26.7288
59.2125
20.1421
65.7066
241.377
241.364
65.783
65.8109
241.438
241.588
65.9125
26.6924
20.3135
59.195
20.1434
59.0039
20.1446
26.7677
26.7208
20.3124
59.1834
20.1433
59.0157
20.1445
26.7897
116.8
118.91
20.872
116.898
119.257
387.548
387.549
385.35
385.383
20.8671
116.884
119.199
116.538
119.017
387.395
387.577
27.6133
60.8659
20.1569
20.3379
27.4927
61.1402
20.1558
69.017
244.738
68.7192
244.547
27.6204
20.1577
60.8981
20.3415
27.4973
20.1565
61.1822
68.7013
244.372
244.371
69.086
27.4781
20.3394
61.1262
20.1568
60.8545
20.1583
27.6234
68.7147
244.479
244.599
69.0025
27.4855
20.3435
20.1576
61.1517
20.1589
60.8959
27.6247
69.0152
244.765
68.7072
244.612
27.614
20.1576
60.8967
20.3447
27.4875
20.1565
61.1679
69.0128
244.797
68.7149
244.635
27.474
20.3411
61.1564
20.1571
60.7994
20.1589
27.6251
68.7072
244.474
244.619
68.9917
27.4747
20.3441
20.1574
61.1233
20.1587
60.8746
27.6182
68.7058
244.495
244.646
68.9968
118.996
116.649
20.8774
119.301
116.799
385.484
385.422
387.426
387.492
20.8721
119.253
116.924
119.134
116.492
385.352
385.455
26.7746
20.1424
58.9618
20.3073
26.7165
20.1414
59.1769
65.9542
241.766
65.8141
241.555
65.9708
241.817
65.8274
241.568
26.7024
20.3111
20.143
59.2031
20.1446
58.9077
26.774
26.7093
20.3127
20.1429
59.1681
20.1441
58.9835
26.7757
65.8472
241.464
241.572
65.8255
65.8306
241.382
241.616
65.9111
387.588
387.548
385.518
385.463
20.8842
119.198
117.013
118.784
116.657
387.395
387.569
385.323
385.5
385.369
384.773
387.487
386.913
116.801
119.161
20.8637
116.797
119.231
382.589
384.869
384.804
387.031
20.8701
116.173
118.643
116.735
119.139
65.7343
241.555
65.8101
240.925
26.736
59.0128
20.1522
20.3205
26.6934
59.1264
20.1524
26.7512
58.9942
20.1521
20.3198
26.714
59.1467
20.1523
65.6235
239.534
241.292
65.7405
65.6991
239.589
241.427
65.7304
26.6656
20.3223
58.4879
20.1734
58.9272
20.1662
26.7265
26.6797
20.3212
58.4823
20.1731
58.9342
20.166
26.7499
116.798
118.979
20.8678
116.838
119.056
387.447
386.869
382.589
384.848
20.8733
116.245
118.524
116.791
118.97
384.724
386.994
27.5869
60.8377
20.1658
20.3453
27.4854
61.0693
20.1658
68.8893
244.573
68.7043
243.971
27.6003
20.1665
60.8568
20.3491
27.4899
20.1665
61.1197
68.6195
242.652
244.303
68.6683
27.4393
20.3466
60.7495
20.1889
60.7692
20.1799
27.5142
68.6927
242.734
244.442
68.5652
27.456
20.3507
20.1894
60.7712
20.1805
60.8172
27.5238
68.9131
244.564
68.6885
243.941
27.5937
20.1663
60.8197
20.3524
27.4774
20.1663
61.0851
68.9171
244.575
68.6959
243.939
27.4452
20.3483
60.7805
20.1889
60.7054
20.1806
27.5406
68.6855
242.695
244.42
68.5951
27.4436
20.3535
20.189
60.76
20.1803
60.7877
27.5234
68.6769
242.702
244.405
68.6111
119.056
116.822
20.87
119.164
116.699
385.38
384.789
384.731
386.947
20.8769
118.687
116.197
119.069
116.546
382.613
384.913
26.7447
20.1518
58.975
20.3173
26.6964
20.152
59.0829
65.7361
241.583
65.7897
240.925
65.7383
241.507
65.8119
240.904
26.6556
20.319
20.1729
58.4143
20.1666
58.8105
26.7437
26.6711
20.3185
20.173
58.45
20.166
58.8787
26.7601
65.6783
239.576
241.428
65.7177
65.7067
239.579
241.408
65.7355
387.428
386.843
385.361
384.833
20.8847
118.41
116.243
118.863
116.684
384.675
386.962
382.617
384.945
384.348
381.736
385.529
381.617
116.565
118.556
20.9494
118.239
118.956
615.389
386.205
615.112
386.318
21.0787
151.399
152.143
120.452
121.002
70.1513
242.86
67.6146
242.726
28.3742
58.9288
20.211
20.381
27.1473
62.7553
20.32
28.3867
58.9363
20.2106
20.38
27.1473
62.7783
20.3193
71.3832
975.188
248.861
84.8915
71.3331
975.3
248.956
84.8503
28.4506
20.6268
219.118
21.0605
62.3052
20.3709
32.2008
28.4554
20.6249
219.029
21.0587
62.3136
20.3697
32.1998
116.654
118.38
20.9498
118.382
119.023
385.497
381.622
615.238
386.178
21.0831
151.796
154.072
120.557
120.473
614.764
386.299
28.1122
60.2549
20.216
20.3641
27.3165
62.6108
20.3076
69.8253
244.227
68.1752
243.102
28.1105
20.2165
60.2743
20.3649
27.3287
20.3081
62.6655
71.13
975.206
249.093
84.8378
28.206
20.5991
219.062
21.0519
62.2114
20.3634
32.0462
71.1919
975.395
249.221
84.7739
28.2106
20.6065
21.0496
219.162
20.3618
62.2537
32.0488
69.9265
244.198
68.1619
243.083
28.1394
20.2162
60.25
20.3697
27.3177
20.3079
62.6195
70.0266
244.209
68.1595
243.083
28.2046
20.5998
219.08
21.052
62.1424
20.3624
32.047
71.1403
975.333
249.184
84.7477
28.2108
20.6075
21.0507
219.224
20.3615
62.2078
32.0405
71.1119
975.411
249.191
84.7857
118.555
116.573
20.9553
118.87
118.346
384.384
381.792
614.94
386.301
21.0847
151.935
151.724
121.137
120.302
615.443
386.302
28.3927
20.212
58.8578
20.3769
27.1525
20.3212
62.726
70.0346
242.856
67.6239
242.747
70.1529
242.857
67.6209
242.729
28.4522
20.6231
21.0634
219.142
20.3769
62.2623
32.2101
28.453
20.6203
21.0623
219.149
20.3759
62.269
32.1994
71.3901
975.263
248.976
84.8261
71.3386
975.431
248.976
84.8476
385.45
381.587
384.414
381.785
21.0898
151.813
151.973
121.02
120.319
615.104
386.319
615.433
386.229
1709.45
554.267
1709.65
554.173
313.826
314.905
23.3505
331.887
331.981
24.5292
295.437
295.422
108.381
1648.75
143.182
432.878
41.9901
246.731
20.8583
22.0942
40.416
219.094
21.4017
41.9902
246.617
20.8542
22.0693
40.3838
218.971
21.4028
36.5753
22.897
205.062
21.6821
36.5749
22.8689
204.834
21.6585
314.626
314.962
23.2988
332.061
332.008
1710.17
553.822
24.5308
295.343
295.148
41.9171
246.764
20.8529
22.0681
40.2619
219.076
21.3939
108.24
1649.1
143.293
432.876
41.923
20.8507
246.779
22.0878
40.3025
21.3984
218.992
36.5279
22.8563
204.945
21.6769
36.5361
22.8923
21.6543
204.906
20.9555
20.7697
20.7765
21.2175
20.6168
21.0988
21.1047
20.9565
20.7655
20.7662
21.2312
20.6168
21.1017
21.0968
20.9576
20.7653
20.7664
21.2299
20.6166
21.102
21.0967
20.9254
21.5631
21.1737
21.1706
20.9262
21.5767
21.1737
21.177
20.9264
21.5612
21.1777
21.1659
20.9277
21.5774
21.1764
21.1728
106.559
1649.15
143.28
432.949
41.8499
20.8458
246.874
22.0931
40.2709
21.3992
219.157
106.582
1649.14
143.092
433.046
36.7079
22.8739
204.703
21.6893
36.7014
22.8963
21.6667
205.101
314.681
314.072
23.352
332.021
331.943
1709.8
553.728
24.5337
295.296
295.292
41.9806
20.861
246.824
22.0713
40.3785
21.3982
219.184
108.315
1648.92
143.34
432.929
108.375
1648.91
143.184
433.072
36.5617
22.8609
21.6599
205.026
36.5586
22.8534
21.6802
205.142
1709.48
554.368
1709.67
554.318
24.5298
295.493
295.563
514.538
514.419
96.201
417.519
96.132
417.249
514.105
514.189
96.0391
417.351
96.0817
417.351
97.4638
417.256
97.4381
417.498
514.158
514.159
96.1757
417.388
96.1091
417.569
514.522
514.46
387.293
394.652
394.23
177.301
252.646
37.975
76.1849
253.195
37.7365
75.6433
288.019
65.9458
258.281
78.2793
258.144
78.1283
287.775
410.168
128.249
241.424
410.173
127.845
287.915
65.8874
258.146
78.2627
287.653
257.887
78.0961
410.215
127.964
241.532
127.85
410.152
385.293
385.459
291.763
68.7228
81.5367
262.333
81.2284
262.174
291.525
413.489
131.419
244.405
413.553
131.227
291.767
68.8816
81.0797
262.307
291.562
81.4118
262.114
413.553
131.503
244.425
131.225
413.47
387.265
387.439
178.124
394.201
394.287
395.128
393.93
178.042
76.0746
38.0626
253.386
118.68
76.1237
38.0211
252.917
76.2474
37.5074
253.638
116.974
75.7287
37.584
253.038
178.229
395.303
394.356
177.498
395.084
393.351
75.7319
253.259
118.693
38.2909
38.0187
253.233
76.1652
75.9083
252.766
117.107
37.7062
37.5782
252.945
75.8609
287.83
65.8749
258.088
78.0236
258.038
77.9169
287.531
410.028
127.677
241.357
410.121
127.32
287.926
65.9229
258.378
78.1728
287.918
257.994
78.0256
410.039
127.375
241.45
127.319
409.949
385.282
385.441
291.812
68.7563
81.5781
262.337
81.3027
262.187
291.565
413.558
131.734
244.465
413.64
131.446
291.854
69.0073
81.3496
262.425
291.706
81.5785
262.154
413.616
131.704
244.475
131.449
413.529
387.281
387.45
178.234
395.082
394.436
395.097
394.489
177.917
76.7648
38.2257
253.524
118.879
76.4177
38.2814
253.24
76.0281
37.6344
253.322
116.667
75.7433
37.5636
253.184
178.475
394.915
394.534
178.229
394.809
394.29
76.4518
253.393
118.858
38.3316
38.1665