/*--------------------------------*- C++ -*----------------------------------*\
| =========                 |                                                 |
| \\      /  F ield         | OpenFOAM: The Open Source CFD Toolbox           |
|  \\    /   O peration     | Version:  2206                                  |
|   \\  /    A nd           | Website:  www.openfoam.com                      |
|    \\/     M anipulation  |                                                 |
\*---------------------------------------------------------------------------*/
FoamFile
{
    version     2.0;
    format      ascii;
    arch        "LSB;label=32;scalar=64";
    class       surfaceScalarField;
    location    "0.3";
    object      phi;
}
// * * * * * * * * * * * * * * * * * * * * * * * * * * * * * * * * * * * * * //

dimensions      [0 3 -1 0 0 0 0];

oriented        oriented;

internalField   nonuniform List<scalar> 
199822
(
-6.92211e-13
9.23531e-13
-1.10712e-07
-1.214e-12
-1.97923e-13
1.10713e-07
-1.08087e-07
-3.59555e-11
-1.78216e-12
-2.32412e-13
1.08085e-07
2.70178e-11
3.66058e-11
-2.24057e-11
-5.6208e-11
5.49672e-11
5.73929e-11
-5.80528e-11
-1.09012e-07
-4.10918e-11
7.90863e-13
1.74289e-12
1.09015e-07
1.24283e-11
4.03038e-11
-1.43795e-11
4.14745e-12
2.15766e-11
-4.73162e-12
-2.38756e-11
-2.67615e-08
-1.21654e-10
1.7088e-10
-7.07539e-11
1.71394e-10
2.66116e-08
-1.42099e-12
1.61272e-12
-1.10713e-07
-1.10074e-12
7.61088e-13
1.10713e-07
-1.08088e-07
-3.59669e-11
-1.89068e-12
-5.67051e-13
1.08088e-07
2.73236e-11
3.67914e-11
-2.72299e-11
-5.60482e-11
5.51798e-11
5.76208e-11
-5.53978e-11
-1.09016e-07
-4.01837e-11
6.88596e-13
5.44988e-13
1.09015e-07
1.35258e-11
4.07869e-11
-1.3769e-11
4.49419e-12
2.21357e-11
-4.19444e-12
-2.34396e-11
-2.67619e-08
4.71115e-11
2.24133e-11
6.33654e-11
1.70703e-11
2.6612e-08
-1.23268e-12
9.54127e-13
-1.10713e-07
-6.24575e-13
9.59061e-13
1.10713e-07
-1.08087e-07
-3.57779e-11
-1.68698e-12
1.35839e-13
1.08085e-07
2.70759e-11
3.66602e-11
-2.24498e-11
-5.62031e-11
5.5062e-11
5.75129e-11
-5.80871e-11
-1.09016e-07
-4.02553e-11
9.75513e-13
-5.49565e-13
1.09015e-07
1.34043e-11
4.07067e-11
-1.38979e-11
4.6531e-12
2.23732e-11
-4.02986e-12
-2.32125e-11
-2.67614e-08
-1.21971e-10
1.7043e-10
-7.06164e-11
1.72002e-10
2.66116e-08
-1.51123e-12
-3.49445e-13
-1.10714e-07
5.03417e-13
1.57894e-12
1.10713e-07
-1.08087e-07
-3.57719e-11
1.89045e-13
-8.91734e-13
1.08086e-07
2.7508e-11
3.69512e-11
-2.70896e-11
-5.64765e-11
5.47883e-11
5.72158e-11
-5.58103e-11
-1.09015e-07
-4.0343e-11
8.28295e-13
8.00283e-13
1.09014e-07
1.32711e-11
4.0597e-11
-1.40724e-11
4.71041e-12
2.25231e-11
-3.95291e-12
-2.30847e-11
-2.67615e-08
4.69411e-11
2.26064e-11
6.29506e-11
1.74899e-11
2.66116e-08
-8.07842e-13
-3.94541e-13
-1.10715e-07
1.57485e-12
2.19525e-12
1.10713e-07
-1.08087e-07
-3.55064e-11
-1.7923e-13
-1.73788e-12
1.08085e-07
2.74697e-11
3.69891e-11
-2.20921e-11
-5.64438e-11
5.4637e-11
5.70947e-11
-5.83209e-11
-1.09016e-07
-4.02584e-11
1.09783e-12
-2.13606e-12
1.09016e-07
1.33822e-11
4.07749e-11
-1.39417e-11
4.92802e-12
2.27661e-11
-3.84843e-12
-2.26648e-11
-2.67611e-08
-1.22223e-10
1.70468e-10
-7.09523e-11
1.72264e-10
2.66115e-08
6.93948e-12
7.46649e-12
-1.10718e-07
-2.83846e-12
-1.47203e-12
1.10708e-07
-1.08083e-07
-3.48863e-11
-7.54911e-12
-1.05675e-11
1.08092e-07
2.87486e-11
3.8139e-11
-2.58287e-11
-5.55238e-11
5.51733e-11
5.75571e-11
-5.47663e-11
-1.09012e-07
-3.95518e-11
-6.11366e-12
-9.70354e-12
1.0902e-07
1.44957e-11
4.17603e-11
-1.2777e-11
5.46766e-12
2.32379e-11
-3.62143e-12
-2.17524e-11
-2.67604e-08
4.6054e-11
2.18158e-11
6.2967e-11
1.77423e-11
2.66118e-08
3.31598e-11
3.71097e-11
-1.10722e-07
-2.71271e-11
-2.17199e-11
1.10701e-07
-1.08066e-07
-3.34495e-11
-3.7247e-11
-3.15818e-11
1.08112e-07
3.0334e-11
3.98832e-11
-1.89267e-11
-5.38257e-11
5.58598e-11
5.80434e-11
-5.55911e-11
-1.08995e-07
-3.79865e-11
-2.97798e-11
-3.46391e-11
1.09042e-07
1.68999e-11
4.39219e-11
-1.01537e-11
6.16854e-12
2.33249e-11
-3.50877e-12
-2.06796e-11
-2.67572e-08
-1.24295e-10
1.68225e-10
-7.05538e-11
1.72337e-10
2.66115e-08
1.00923e-10
1.10437e-10
-1.10723e-07
-1.03509e-10
-9.03573e-11
1.10705e-07
-1.08017e-07
-3.11215e-11
-1.09923e-10
-8.10226e-11
1.08177e-07
3.36714e-11
4.37061e-11
-1.95448e-11
-5.33721e-11
5.43538e-11
5.6123e-11
-5.25975e-11
-1.08948e-07
-3.56973e-11
-9.43349e-11
-8.29571e-11
1.09099e-07
2.00734e-11
4.73724e-11
-5.92266e-12
5.6386e-12
2.11146e-11
-5.1469e-12
-2.12522e-11
-2.67523e-08
4.23926e-11
1.79708e-11
6.26178e-11
1.66601e-11
2.66127e-08
2.27028e-10
2.43766e-10
-1.10678e-07
-2.97188e-10
-2.72916e-10
1.10778e-07
-1.07904e-07
-3.07407e-11
-2.45706e-10
-1.53241e-10
1.08314e-07
3.20477e-11
4.66545e-11
-1.13714e-11
-6.28059e-11
4.04173e-11
4.10699e-11
-6.63573e-11
-1.08838e-07
-3.59164e-11
-2.13957e-10
-1.58777e-10
1.09235e-07
1.8526e-11
4.97091e-11
-3.37205e-12
-5.93208e-12
5.05323e-12
-1.75462e-11
-3.46855e-11
-2.67475e-08
-1.27213e-10
1.66447e-10
-7.29393e-11
1.69518e-10
2.66117e-08
4.21694e-10
4.41026e-10
-1.10431e-07
-7.89683e-10
-7.51429e-10
1.11109e-07
-1.07665e-07
-6.03075e-11
-4.49021e-10
-1.97501e-10
1.08592e-07
3.27073e-12
5.09319e-11
-2.39251e-11
-9.80877e-11
-1.60355e-11
-2.27018e-11
-1.13906e-10
-1.08604e-07
-6.66988e-11
-3.94253e-10
-1.96139e-10
1.09499e-07
-1.02379e-11
5.15938e-11
-1.40851e-11
-5.08407e-11
-4.73962e-11
-7.79889e-11
-8.92934e-11
-2.67655e-08
7.35956e-11
4.74245e-11
4.24255e-11
-1.73105e-12
2.66038e-08
1.47991e-10
1.11266e-09
-1.09228e-07
-2.09796e-09
-2.34071e-09
1.12406e-07
-1.07122e-07
-1.54797e-10
-1.14612e-09
-3.19399e-11
1.08988e-07
-6.10535e-11
1.62001e-10
-5.72901e-12
-1.35844e-10
-9.19729e-11
-1.52305e-10
-2.48347e-10
-1.08127e-07
-1.66289e-10
-1.39853e-10
7.87388e-10
1.09601e-07
-7.72178e-11
1.52468e-10
-7.49648e-11
-5.1481e-10
-2.50162e-10
-6.5848e-10
-5.3229e-10
-2.6837e-08
3.04928e-11
2.88206e-10
-1.53342e-10
8.81527e-11
2.65835e-08
5.37097e-10
6.30938e-10
-1.20076e-07
-6.90522e-09
-6.90954e-09
2.9606e-08
2.85794e-08
2.90446e-08
2.90514e-08
1.8262e-09
3.73415e-09
2.65728e-09
1.85527e-09
3.71962e-09
2.6485e-09
-2.63847e-08
-3.19509e-09
2.7186e-10
-3.79599e-09
1.4205e-09
3.16834e-08
-2.52792e-08
-6.26125e-10
-2.76179e-09
6.99639e-10
-3.35524e-09
3.13227e-08
-2.71528e-08
2.73616e-09
2.75668e-09
-2.93027e-09
-2.60418e-09
2.71945e-08
-3.27337e-11
-3.6422e-11
2.67489e-08
-2.65987e-08
-4.04013e-11
-4.06642e-11
1.10015e-07
-8.30898e-14
-1.10014e-07
3.98787e-12
-3.32891e-11
-9.24029e-12
7.50441e-12
-2.43554e-11
-2.25324e-11
2.04748e-11
2.39552e-11
3.26218e-11
1.10047e-07
2.45137e-13
-1.10046e-07
3.81152e-12
-3.32249e-11
-9.9071e-12
8.10914e-12
-2.44055e-11
-2.25092e-11
2.02953e-11
2.39335e-11
-3.66491e-11
2.675e-08
-2.65994e-08
-4.02839e-11
-4.0992e-11
1.08098e-07
1.40585e-13
-1.08098e-07
-1.25638e-12
-3.58341e-11
-2.71655e-11
2.73252e-11
5.70987e-11
-5.55416e-11
5.45418e-11
-5.64708e-11
2.73988e-11
1.09097e-07
9.14466e-13
-1.09097e-07
-1.44743e-12
-2.6521e-11
-2.34794e-11
2.75899e-11
3.54425e-11
-5.47806e-11
5.07134e-11
-3.55219e-11
-9.34399e-14
-1.08086e-07
-1.12746e-12
-3.61239e-11
-2.68741e-11
2.72009e-11
5.71003e-11
-5.56486e-11
-5.64153e-11
5.47867e-11
4.86375e-11
1.09044e-07
5.13199e-11
-1.09093e-07
-2.62025e-11
-2.50384e-11
-2.22557e-11
2.24755e-11
3.56282e-11
-5.40526e-11
5.37951e-11
-3.60837e-11
-4.03942e-11
2.67551e-08
-2.66057e-08
-4.87417e-11
-3.28623e-11
-1.25641e-12
-1.09009e-07
3.58198e-12
-4.13986e-11
-1.41848e-11
8.45102e-12
-4.12432e-12
-2.36038e-11
4.19985e-12
2.50446e-11
2.21237e-11
1.09103e-07
-6.77277e-11
-1.09047e-07
3.49898e-11
-4.279e-11
-1.34922e-11
1.25625e-11
-4.3721e-12
-2.46487e-11
2.20651e-11
4.54175e-12
-2.66119e-08
-6.34179e-11
-1.53525e-11
3.31451e-11
3.57468e-11
4.05991e-11
4.08712e-11
2.65986e-08
-3.33918e-11
-3.64232e-11
2.67491e-08
-2.65987e-08
-4.02504e-11
-4.02818e-11
2.90707e-12
1.10018e-07
7.40464e-12
3.29428e-11
-9.15177e-12
2.38562e-11
1.9935e-11
-2.52599e-11
-2.27063e-11
-3.31447e-11
8.796e-13
3.31657e-12
1.10051e-07
7.80302e-12
3.26007e-11
-1.39006e-11
2.38251e-11
1.97447e-11
-2.53369e-11
-1.98385e-11
1.10018e-07
1.70367e-12
-1.10018e-07
7.47029e-13
-3.25639e-11
-8.56795e-12
8.08896e-12
-2.46935e-11
-2.23856e-11
2.03369e-11
2.42281e-11
3.33129e-11
1.1005e-07
2.10856e-12
-1.10049e-07
6.56369e-13
-3.27092e-11
-9.67954e-12
8.68797e-12
-2.47498e-11
-2.23908e-11
2.01194e-11
2.42178e-11
4.0359e-11
4.14616e-11
2.65991e-08
-3.67722e-11
2.67501e-08
-2.65995e-08
-4.00597e-11
-4.04896e-11
-4.57733e-13
1.08099e-07
2.723e-11
3.65192e-11
-2.72231e-11
-5.6318e-11
5.46624e-11
5.73298e-11
-5.54362e-11
-2.65429e-11
1.19812e-13
-4.21756e-13
1.09098e-07
2.29103e-11
2.7412e-11
-2.33877e-11
-3.53692e-11
5.34217e-11
3.56751e-11
-5.46355e-11
1.08099e-07
-1.73346e-12
-1.08099e-07
2.9487e-13
-3.57331e-11
-2.73654e-11
2.71281e-11
5.75305e-11
-5.53038e-11
5.48349e-11
-5.61229e-11
2.73923e-11
1.09098e-07
-1.05135e-12
-1.09099e-07
2.33314e-13
-2.64361e-11
-2.36624e-11
2.74291e-11
3.59433e-11
-5.45217e-11
5.10575e-11
-3.51553e-11
4.37193e-10
-1.30379e-10
1.08323e-07
7.3116e-11
1.84511e-10
6.61684e-11
-3.83191e-11
5.38768e-11
-8.36518e-11
3.70669e-11
-1.39192e-12
-1.08087e-07
-9.59735e-13
-3.59613e-11
-2.72826e-11
2.73293e-11
5.7624e-11
-5.53717e-11
-5.6039e-11
5.52007e-11
-1.2107e-10
1.09045e-07
-4.38636e-10
-1.08325e-07
1.3391e-10
-1.82159e-10
-7.55417e-11
-6.37775e-11
3.92456e-11
-5.49347e-11
8.01755e-11
-3.6525e-11
4.85348e-11
3.34039e-11
2.66055e-08
-4.08038e-11
2.67549e-08
-2.66056e-08
-4.84128e-11
-3.2722e-11
-5.26464e-10
1.696e-10
1.09873e-07
-3.15939e-11
-1.21768e-10
-1.18719e-10
6.87674e-12
2.11861e-11
7.79052e-12
-5.6504e-12
1.17527e-13
-1.09015e-07
1.62311e-12
-4.04007e-11
-1.38449e-11
9.41433e-12
-4.27146e-12
-2.34337e-11
4.49516e-12
2.48285e-11
1.71212e-10
1.09107e-07
5.24104e-10
-1.09874e-07
-1.658e-10
1.22616e-10
3.03675e-11
1.15969e-10
-7.08319e-12
-2.29932e-11
-6.9435e-12
5.39522e-12
-2.66121e-08
7.06316e-11
-1.7034e-10
3.25678e-11
3.57028e-11
4.07677e-11
4.13432e-11
2.65987e-08
-3.32891e-11
-3.6551e-11
2.67488e-08
-2.65986e-08
-4.00595e-11
-4.03849e-11
6.4891e-13
1.10018e-07
8.11119e-12
3.33711e-11
-8.60876e-12
2.42578e-11
2.04133e-11
-2.46201e-11
-2.236e-11
-3.26113e-11
1.87375e-12
1.12473e-12
1.10049e-07
8.76021e-12
3.33285e-11
-9.65717e-12
2.42504e-11
2.02278e-11
-2.46626e-11
-2.23451e-11
1.10018e-07
1.00694e-12
-1.10018e-07
1.0541e-12
-3.26191e-11
-8.73742e-12
7.98458e-12
-2.45165e-11
-2.22439e-11
2.05222e-11
2.43767e-11
3.3162e-11
1.10049e-07
1.13075e-12
-1.10049e-07
9.02785e-13
-3.25675e-11
-9.40537e-12
8.59577e-12
-2.45568e-11
-2.22115e-11
2.03579e-11
2.43651e-11
4.04632e-11
4.16886e-11
2.65994e-08
-3.68021e-11
2.67498e-08
-2.65993e-08
-3.99507e-11
-4.06663e-11
-1.48556e-13
1.08099e-07
2.71741e-11
3.64697e-11
-2.73362e-11
-5.61131e-11
5.48811e-11
5.75751e-11
-5.52926e-11
-2.64878e-11
-9.36633e-13
4.03914e-14
1.09098e-07
2.28686e-11
2.73791e-11
-2.3501e-11
-3.51358e-11
5.367e-11
3.59802e-11
-5.44769e-11
1.08099e-07
-1.36238e-12
-1.08099e-07
-1.06611e-13
-3.55788e-11
-2.72532e-11
2.72671e-11
5.74808e-11
-5.5382e-11
5.48037e-11
-5.62173e-11
2.75469e-11
1.09098e-07
-6.10004e-13
-1.09099e-07
-2.28518e-13
-2.6257e-11
-2.35365e-11
2.75775e-11
3.58839e-11
-5.4625e-11
5.10036e-11
-3.52683e-11
-5.00979e-11
2.44578e-11
1.09094e-07
2.20763e-11
2.60999e-11
-2.33217e-11
-3.55657e-11
5.29144e-11
-5.52051e-11
3.65733e-11
-1.48059e-12
-1.08087e-07
-2.29267e-13
-3.58412e-11
-2.69342e-11
2.71757e-11
5.75016e-11
-5.55013e-11
-5.61807e-11
5.50532e-11
4.89665e-11
1.09044e-07
4.97951e-11
-1.09094e-07
-2.48716e-11
-2.46019e-11
-2.26122e-11
2.20949e-11
3.61664e-11
-5.38738e-11
5.41738e-11
-3.58273e-11
4.90684e-11
3.35503e-11
2.66057e-08
-4.07237e-11
2.67548e-08
-2.66055e-08
-4.85254e-11
-3.2479e-11
6.43312e-11
-3.14255e-11
1.09053e-07
1.48353e-11
4.22802e-11
-1.28927e-11
4.62357e-12
2.30019e-11
-2.34999e-11
-4.69408e-12
-4.29245e-14
-1.09014e-07
4.35622e-13
-4.0438e-11
-1.39579e-11
9.35297e-12
-4.0793e-12
-2.32411e-11
4.65079e-12
2.50536e-11
2.2628e-11
1.09107e-07
-6.64947e-11
-1.09052e-07
3.0436e-11
-4.21647e-11
-1.24298e-11
1.36887e-11
-4.20715e-12
-2.41011e-11
2.23279e-11
5.09179e-12
-2.66117e-08
-6.34455e-11
-1.4659e-11
3.26451e-11
3.55798e-11
4.0971e-11
4.12366e-11
2.65984e-08
-3.3212e-11
-3.66281e-11
2.67486e-08
-2.65982e-08
-3.99257e-11
-4.05551e-11
8.83636e-13
1.10017e-07
7.96465e-12
3.32783e-11
-8.77151e-12
2.44173e-11
2.06027e-11
-2.44463e-11
-2.2194e-11
-3.26471e-11
1.34645e-12
1.38024e-12
1.1005e-07
8.35814e-12
3.29374e-11
-1.35303e-11
2.43718e-11
2.0412e-11
-2.45149e-11
-1.93187e-11
1.10017e-07
2.53455e-13
-1.10017e-07
1.00499e-12
-3.26799e-11
-8.88353e-12
7.87224e-12
-2.43616e-11
-2.20542e-11
2.07313e-11
2.45159e-11
3.31316e-11
1.10049e-07
5.12093e-13
-1.10048e-07
8.7731e-13
-3.28232e-11
-9.9771e-12
8.4831e-12
-2.44182e-11
-2.20618e-11
2.05181e-11
2.45017e-11
4.0734e-11
4.17545e-11
2.65989e-08
-3.69673e-11
2.67496e-08
-2.6599e-08
-3.97345e-11
-4.07704e-11
-2.87227e-13
1.08098e-07
2.72854e-11
3.65626e-11
-2.72528e-11
-5.62646e-11
5.47847e-11
5.74635e-11
-5.54288e-11
-2.63466e-11
-1.24975e-13
-6.39921e-14
1.09098e-07
2.29852e-11
2.74853e-11
-2.34189e-11
-3.53068e-11
5.35479e-11
3.58523e-11
-5.46401e-11
1.08098e-07
-1.34006e-12
-1.08098e-07
-4.04052e-13
-3.5497e-11
-2.71767e-11
2.73591e-11
5.72983e-11
-5.55539e-11
5.46274e-11
-5.63864e-11
2.76205e-11
1.09097e-07
-5.09697e-13
-1.09098e-07
-3.72946e-13
-2.61794e-11
-2.34917e-11
2.76362e-11
3.56898e-11
-5.48098e-11
5.0811e-11
-3.54499e-11
4.38452e-10
-1.31155e-10
1.08322e-07
7.2926e-11
1.84651e-10
6.59213e-11
-3.82741e-11
5.41064e-11
-8.36541e-11
3.73469e-11
-9.32818e-13
-1.08086e-07
-1.54159e-12
-3.57258e-11
-2.71178e-11
2.75342e-11
5.73491e-11
-5.56665e-11
-5.63452e-11
5.49476e-11
-1.20879e-10
1.09043e-07
-4.37266e-10
-1.08324e-07
1.32963e-10
-1.81945e-10
-7.56089e-11
-6.38347e-11
3.89704e-11
-5.52303e-11
7.98925e-11
-3.68401e-11
4.89513e-11
3.37995e-11
2.66054e-08
-4.06567e-11
2.67546e-08
-2.66052e-08
-4.86972e-11
-3.23354e-11
-5.26125e-10
1.66391e-10
1.09874e-07
-3.0777e-11
-1.21434e-10
-1.17915e-10
7.51949e-12
2.20901e-11
8.34854e-12
-4.86088e-12
-1.65465e-12
-1.09014e-07
1.61942e-12
-4.04901e-11
-1.40723e-11
9.26456e-12
-3.93012e-12
-2.29966e-11
4.78984e-12
2.5313e-11
1.71011e-10
1.09107e-07
5.22301e-10
-1.09874e-07
-1.65297e-10
1.22476e-10
3.03437e-11
1.16079e-10
-6.66803e-12
-2.25164e-11
-6.55246e-12
5.74893e-12
-2.66117e-08
7.02679e-11
-1.69939e-10
3.27416e-11
3.55082e-11
4.10971e-11
4.10502e-11
2.65982e-08
-3.29825e-11
-3.65678e-11
2.67483e-08
-2.65982e-08
-3.98494e-11
-4.07584e-11
1.02418e-12
1.10017e-07
7.79477e-12
3.3164e-11
-8.97687e-12
2.44971e-11
2.07287e-11
-2.43563e-11
-2.20717e-11
-3.2787e-11
1.9333e-12
1.51634e-12
1.10048e-07
8.46024e-12
3.31208e-11
-1.00068e-11
2.44884e-11
2.05439e-11
-2.44024e-11
-2.20582e-11
1.10018e-07
-3.36983e-13
-1.10017e-07
2.07149e-12
-3.28672e-11
-9.25744e-12
7.57976e-12
-2.4332e-11
-2.19216e-11
2.08028e-11
2.45808e-11
3.28438e-11
1.10049e-07
-2.50405e-13
-1.10048e-07
1.93423e-12
-3.28292e-11
-9.94042e-12
8.18323e-12
-2.43631e-11
-2.18756e-11
2.06489e-11
2.45799e-11
4.07942e-11
4.1388e-11
2.65989e-08
-3.68147e-11
2.67494e-08
-2.65989e-08
-3.97499e-11
-4.10634e-11
-4.77224e-13
1.08098e-07
2.73686e-11
3.66263e-11
-2.71894e-11
-5.65069e-11
5.45311e-11
5.7211e-11
-5.56765e-11
-2.62833e-11
1.13093e-12
-8.53344e-14
1.09097e-07
2.30364e-11
2.7538e-11
-2.33859e-11
-3.55706e-11
5.32754e-11
3.55809e-11
-5.49067e-11
1.08099e-07
-1.06523e-12
-1.08098e-07
3.00986e-13
-3.5509e-11
-2.72543e-11
2.73745e-11
5.69949e-11
-5.58076e-11
5.43068e-11
-5.66032e-11
2.75579e-11
1.09098e-07
-1.44774e-13
-1.09098e-07
2.40909e-13
-2.61975e-11
-2.36074e-11
2.7615e-11
3.53608e-11
-5.50891e-11
5.04617e-11
-3.56875e-11
-4.77328e-11
2.43758e-11
1.09092e-07
2.20074e-11
2.62328e-11
-2.33936e-11
-3.60196e-11
5.2482e-11
-5.56462e-11
3.61443e-11
-1.11968e-12
-1.08086e-07
2.31081e-13
-3.57753e-11
-2.69578e-11
2.72683e-11
5.69951e-11
-5.59569e-11
-5.65832e-11
5.45318e-11
4.89766e-11
1.09044e-07
5.03353e-11
-1.09092e-07
-2.4425e-11
-2.4551e-11
-2.27556e-11
2.20452e-11
3.56336e-11
-5.43709e-11
5.36044e-11
-3.62871e-11
4.87728e-11
3.39186e-11
2.66052e-08
-4.04433e-11
2.67544e-08
-2.66052e-08
-4.88975e-11
-3.22577e-11
6.42199e-11
-3.13104e-11
1.09052e-07
1.47481e-11
4.20454e-11
-1.30509e-11
4.87008e-12
2.34033e-11
-2.31249e-11
-4.41414e-12
-1.90456e-12
-1.09013e-07
1.39585e-12
-4.06679e-11
-1.44217e-11
8.97724e-12
-3.89428e-12
-2.28377e-11
4.8634e-12
2.54014e-11
2.23271e-11
1.09108e-07
-6.85331e-11
-1.09051e-07
3.14325e-11
-4.243e-11
-1.28166e-11
1.34228e-11
-3.99406e-12
-2.36722e-11
2.27061e-11
5.32747e-12
-2.66115e-08
-6.38852e-11
-1.43991e-11
3.26553e-11
3.52901e-11
4.12124e-11
4.08922e-11
2.65983e-08
-3.24224e-11
-3.60059e-11
2.67472e-08
-2.6598e-08
-3.99541e-11
-4.08307e-11
-5.68591e-13
1.10018e-07
7.93887e-12
3.33351e-11
-8.82484e-12
2.4766e-11
2.09774e-11
-2.42015e-11
-2.16524e-11
-3.26697e-11
8.48662e-13
1.00144e-14
1.10051e-07
8.32808e-12
3.29774e-11
-1.35826e-11
2.4711e-11
2.07888e-11
-2.42745e-11
-1.87753e-11
1.10014e-07
3.88142e-12
-1.1002e-07
7.71551e-12
-3.31511e-11
-1.00934e-11
7.13058e-12
-2.45705e-11
-2.21917e-11
2.05712e-11
2.43524e-11
3.23328e-11
1.10045e-07
3.8865e-12
-1.1005e-07
7.64068e-12
-3.32972e-11
-1.11565e-11
7.76879e-12
-2.4603e-11
-2.21684e-11
2.03688e-11
2.43569e-11
4.09794e-11
4.14261e-11
2.65988e-08
-3.63676e-11
2.67483e-08
-2.65987e-08
-3.97661e-11
-4.1084e-11
-2.27484e-12
1.08099e-07
2.76978e-11
3.69193e-11
-2.68674e-11
-5.64801e-11
5.43916e-11
5.70748e-11
-5.56229e-11
-2.60858e-11
1.28229e-12
-1.42113e-12
1.09098e-07
2.33273e-11
2.7791e-11
-2.31196e-11
-3.55598e-11
5.31127e-11
3.54168e-11
-5.48839e-11
1.08094e-07
3.50389e-12
-1.081e-07
5.09514e-12
-3.57748e-11
-2.80006e-11
2.70346e-11
5.67396e-11
-5.60363e-11
5.40153e-11
-5.67753e-11
2.70011e-11
1.09094e-07
4.40752e-12
-1.09101e-07
5.03455e-12
-2.64605e-11
-2.43606e-11
2.72753e-11
3.5086e-11
-5.535e-11
5.0151e-11
-3.58924e-11
4.40341e-10
-1.32458e-10
1.08321e-07
7.3157e-11
1.8494e-10
6.6082e-11
-3.84959e-11
5.36476e-11
-8.38937e-11
3.69e-11
3.81818e-12
-1.08089e-07
3.96292e-12
-3.59818e-11
-2.79143e-11
2.72282e-11
5.67944e-11
-5.61432e-11
-5.67188e-11
5.43369e-11
-1.21442e-10
1.0904e-07
-4.34349e-10
-1.08325e-07
1.38589e-10
-1.82134e-10
-7.64272e-11
-6.41568e-11
3.83529e-11
-5.5773e-11
7.92286e-11
-3.72878e-11
4.86089e-11
3.40522e-11
2.66054e-08
-3.98456e-11
2.67533e-08
-2.66051e-08
-4.90083e-11
-3.23683e-11
-5.25515e-10
1.64634e-10
1.09874e-07
-3.07172e-11
-1.2141e-10
-1.17905e-10
7.85865e-12
2.25552e-11
8.79337e-12
-4.62458e-12
1.25267e-12
-1.09017e-07
8.31216e-12
-4.09411e-11
-1.51972e-11
8.59127e-12
-4.03614e-12
-2.30406e-11
4.70716e-12
2.52381e-11
1.70161e-10
1.09104e-07
5.24433e-10
-1.09877e-07
-1.59192e-10
1.21931e-10
2.94699e-11
1.15555e-10
-6.76537e-12
-2.2521e-11
-6.59817e-12
5.71188e-12
-2.66117e-08
6.99205e-11
-1.69923e-10
3.19085e-11
3.46026e-11
4.12444e-11
4.10321e-11
2.65984e-08
-3.06534e-11
-3.39436e-11
2.67442e-08
-2.65976e-08
-4.08105e-11
-4.12441e-11
-9.37557e-12
1.10023e-07
9.14729e-12
3.43386e-11
-7.52889e-12
2.54926e-11
2.15177e-11
-2.38292e-11
-2.06886e-11
-3.19452e-11
-6.35975e-12
-8.966e-12
1.10055e-07
9.83555e-12
3.43118e-11
-8.55301e-12
2.54885e-11
2.13377e-11
-2.38766e-11
-2.06745e-11
1.09996e-07
2.44947e-11
-1.10031e-07
2.64346e-11
-3.41073e-11
-1.25524e-11
5.65195e-12
-2.52752e-11
-2.34504e-11
1.94538e-11
2.35048e-11
3.0531e-11
1.10028e-07
2.38703e-11
-1.10062e-07
2.65967e-11
-3.40807e-11
-1.32285e-11
6.30216e-12
-2.52755e-11
-2.3325e-11
1.93464e-11
2.35529e-11
4.09155e-11
4.14055e-11
2.65991e-08
-3.42506e-11
2.67452e-08
-2.65983e-08
-4.06675e-11
-4.15217e-11
-1.0252e-11
1.08104e-07
2.86289e-11
3.78329e-11
-2.58957e-11
-5.55154e-11
5.49405e-11
5.7557e-11
-5.45943e-11
-2.54202e-11
-6.74903e-12
-8.72559e-12
1.09103e-07
2.42798e-11
2.86835e-11
-2.21291e-11
-3.46175e-11
5.36265e-11
3.58657e-11
-5.38973e-11
1.08077e-07
2.4466e-11
-1.08111e-07
2.28843e-11
-3.70171e-11
-3.0582e-11
2.54875e-11
5.61888e-11
-5.68167e-11
5.33428e-11
-5.74233e-11
2.50104e-11
1.09076e-07
2.57934e-11
-1.09112e-07
2.22598e-11
-2.76428e-11
-2.69102e-11
2.57722e-11
3.4513e-11
-5.61476e-11
4.94682e-11
-3.65968e-11
-5.5026e-11
1.57611e-11
1.09098e-07
2.31919e-11
2.73751e-11
-2.21632e-11
-3.50874e-11
5.28343e-11
-5.46709e-11
3.64768e-11
2.41035e-11
-1.081e-07
2.2385e-11
-3.72569e-11
-3.0244e-11
2.54151e-11
5.62184e-11
-5.69343e-11
-5.73504e-11
5.35922e-11
4.64677e-11
1.09024e-07
7.53086e-11
-1.09105e-07
-2.22426e-12
-2.5988e-11
-2.61836e-11
2.00809e-11
3.47131e-11
-5.56398e-11
5.24927e-11
-3.73096e-11
4.8662e-11
3.41449e-11
2.66055e-08
-3.82125e-11
2.67503e-08
-2.66046e-08
-4.93958e-11
-3.31083e-11
5.79701e-11
-4.17973e-11
1.09059e-07
1.60097e-11
4.31576e-11
-1.17022e-11
5.66195e-12
2.41841e-11
-2.17616e-11
-3.97675e-12
2.01278e-11
-1.09027e-07
2.47946e-11
-4.1781e-11
-1.73345e-11
7.34258e-12
-4.4954e-12
-2.40208e-11
4.11273e-12
2.43652e-11
2.01849e-11
1.09087e-07
-4.72242e-11
-1.09065e-07
5.52036e-11
-4.35472e-11
-1.57952e-11
1.1916e-11
-4.56063e-12
-2.48373e-11
2.17351e-11
4.62106e-12
-2.6611e-08
-6.43297e-11
-1.52742e-11
3.03268e-11
3.3176e-11
4.08889e-11
4.11513e-11
2.65987e-08
-2.73257e-11
-3.02402e-11
2.67391e-08
-2.65973e-08
-4.19505e-11
-4.22042e-11
-3.37931e-11
1.10045e-07
1.17087e-11
3.654e-11
-4.50461e-12
2.63892e-11
2.16637e-11
-2.37691e-11
-1.9526e-11
-3.03283e-11
-3.22088e-11
-3.4791e-11
1.10079e-07
1.20748e-11
3.62344e-11
-9.6183e-12
2.63045e-11
2.14629e-11
-2.38397e-11
-1.66624e-11
1.09947e-07
8.12722e-11
-1.10069e-07
6.95851e-11
-3.59848e-11
-1.69409e-11
2.36258e-12
-2.52998e-11
-2.37103e-11
1.92095e-11
2.34678e-11
2.72289e-11
1.09979e-07
7.97032e-11
-1.10099e-07
6.97237e-11
-3.61693e-11
-1.7949e-11
3.16006e-12
-2.52847e-11
-2.35586e-11
1.91081e-11
2.35499e-11
4.04935e-11
4.17194e-11
2.65992e-08
-3.07453e-11
2.67402e-08
-2.65981e-08
-4.16885e-11
-4.24763e-11
-3.27746e-11
1.08126e-07
3.06065e-11
3.98547e-11
-2.36481e-11
-5.37828e-11
5.57056e-11
5.81116e-11
-5.27806e-11
-2.39399e-11
-3.68469e-11
-3.10551e-11
1.09125e-07
2.6389e-11
3.07535e-11
-1.9737e-11
-3.28442e-11
5.4388e-11
3.64849e-11
-5.20557e-11
1.08028e-07
8.44795e-11
-1.08151e-07
6.48655e-11
-3.93268e-11
-3.49432e-11
2.27923e-11
5.60821e-11
-5.71454e-11
5.30266e-11
-5.74776e-11
2.14802e-11
1.09027e-07
8.6503e-11
-1.09151e-07
6.39425e-11
-2.97557e-11
-3.12994e-11
2.31133e-11
3.44679e-11
-5.64931e-11
4.91561e-11
-3.67482e-11
4.07751e-10
-1.62652e-10
1.08346e-07
7.58029e-11
1.8782e-10
6.86561e-11
-3.58091e-11
5.4818e-11
-8.116e-11
3.79397e-11
8.42343e-11
-1.08139e-07
6.25642e-11
-3.94794e-11
-3.46771e-11
2.30231e-11
5.6243e-11
-5.71071e-11
-5.72709e-11
5.34507e-11
-1.27588e-10
1.08975e-07
-3.56681e-10
-1.08372e-07
1.97381e-10
-1.85414e-10
-8.29581e-11
-6.77453e-11
3.74888e-11
-5.71388e-11
7.79252e-11
-3.83468e-11
4.87392e-11
3.3893e-11
2.66058e-08
-3.49949e-11
2.67452e-08
-2.66044e-08
-5.01332e-11
-3.41503e-11
-5.5618e-10
1.32646e-10
1.09901e-07
-2.79868e-11
-1.17891e-10
-1.14709e-10
9.24846e-12
2.31936e-11
1.03218e-11
-4.23595e-12
7.26738e-11
-1.09064e-07
6.77127e-11
-4.35612e-11
-2.14189e-11
4.50136e-12
-4.14626e-12
-2.40092e-11
4.21088e-12
2.43966e-11
1.65125e-10
1.09041e-07
5.95792e-10
-1.09925e-07
-1.01592e-10
1.19076e-10
2.46616e-11
1.12773e-10
-6.81152e-12
-2.32436e-11
-6.97419e-12
5.33342e-12
-2.66115e-08
6.86203e-11
-1.71912e-10
2.81263e-11
3.07284e-11
4.03e-11
4.07643e-11
2.65991e-08
-2.58704e-11
-2.7984e-11
2.67344e-08
-2.65987e-08
-4.07379e-11
-4.11616e-11
-8.45164e-11
1.10106e-07
1.49756e-11
3.98909e-11
-1.36552e-13
2.61816e-11
1.9643e-11
-2.56275e-11
-1.97528e-11
-2.82165e-11
-9.83929e-11
-8.42343e-11
1.10136e-07
1.55495e-11
3.9805e-11
-9.73828e-13
2.602e-11
1.93053e-11
-2.58071e-11
-1.99352e-11
1.09833e-07
1.91114e-10
-1.10162e-07
1.39384e-10
-3.72951e-11
-1.84831e-11
8.71968e-13
-1.88754e-11
-1.35206e-11
2.72027e-11
3.2162e-11
2.585e-11
1.09866e-07
1.87411e-10
-1.10192e-07
1.38927e-10
-3.72078e-11
-1.89312e-11
1.45341e-12
-1.86351e-11
-1.30583e-11
2.74074e-11
3.24969e-11
3.99917e-11
4.10821e-11
2.65998e-08
-2.86088e-11
2.67357e-08
-2.65994e-08
-4.04955e-11
-4.13673e-11
-8.20669e-11
1.08188e-07
3.36907e-11
4.35772e-11
-1.94877e-11
-5.32277e-11
5.42454e-11
5.62471e-11
-5.22996e-11
-2.15066e-11
-1.10926e-10
-8.05774e-11
1.09188e-07
2.95559e-11
3.43663e-11
-1.54729e-11
-3.23131e-11
5.30248e-11
3.47824e-11
-5.15246e-11
1.07915e-07
2.00923e-10
-1.08245e-07
1.33345e-10
-4.1461e-11
-3.6961e-11
2.0625e-11
6.23859e-11
-4.8309e-11
5.96888e-11
-4.78765e-11
1.9499e-11
1.08912e-07
2.05362e-10
-1.09248e-07
1.33215e-10
-3.15501e-11
-3.32679e-11
2.1153e-11
4.11576e-11
-4.79118e-11
5.57159e-11
-2.74336e-11
-1.57703e-10
-5.49275e-11
1.09182e-07
2.82294e-11
3.28594e-11
-1.58075e-11
-3.2782e-11
5.22394e-11
-5.22733e-11
3.53244e-11
2.00791e-10
-1.08233e-07
1.29807e-10
-4.15446e-11
-3.61923e-11
2.06478e-11
6.25541e-11
-4.81107e-11
-4.75804e-11
6.00514e-11
4.06066e-11
1.08859e-07
2.55228e-10
-1.0924e-07
1.08783e-10
-3.02015e-11
-3.24275e-11
1.51872e-11
4.12945e-11
-4.75232e-11
5.86182e-11
-2.83411e-11
4.83375e-11
3.33539e-11
2.66063e-08
-3.3492e-11
2.67407e-08
-2.66058e-08
-4.8904e-11
-3.29877e-11
-3.19057e-11
-1.14197e-10
1.09139e-07
2.14732e-11
4.88227e-11
-4.62611e-12
5.79354e-12
2.20302e-11
-2.12572e-11
-5.61773e-12
1.77856e-10
-1.09154e-07
1.34311e-10
-4.49905e-11
-2.28586e-11
2.40869e-12
4.20546e-12
-1.36141e-11
1.21562e-11
3.23997e-11
1.53919e-11
1.0893e-07
1.11462e-10
-1.09193e-07
1.63629e-10
-4.70901e-11
-2.13055e-11
7.55885e-12
4.18501e-12
-1.42644e-11
2.99187e-11
1.28211e-11
-2.66123e-08
-6.40648e-11
-1.5168e-11
2.86561e-11
3.01678e-11
3.78613e-11
3.85551e-11
2.65992e-08
-4.91833e-11
-4.81694e-11
2.6751e-08
-2.661e-08
-2.11617e-11
-2.24611e-11
-1.60845e-10
1.10244e-07
1.32806e-11
4.19564e-11
1.54794e-12
1.66787e-11
3.64001e-12
-3.88582e-11
-3.26602e-11
-2.87778e-11
-2.22569e-10
-1.60019e-10
1.10275e-07
1.34667e-11
4.16763e-11
-3.09509e-12
1.62277e-11
3.07136e-12
-3.92e-11
-3.04466e-11
1.09591e-07
3.51549e-10
-1.1036e-07
1.98899e-10
-3.28778e-11
5.45924e-12
1.20447e-11
1.35499e-11
3.11427e-11
5.97855e-11
8.03377e-11
5.01094e-11
1.09624e-07
3.44843e-10
-1.10387e-07
1.95281e-10
-3.32297e-11
5.62487e-12
1.25268e-11
1.40711e-11
3.16506e-11
6.0093e-11
8.12972e-11
3.74827e-11
3.91384e-11
2.65996e-08
-4.96464e-11
2.67529e-08
-2.66106e-08
-2.04653e-11
-2.20184e-11
-1.57609e-10
1.08327e-07
3.27323e-11
4.70203e-11
-1.62232e-11
-6.25782e-11
4.05659e-11
4.13139e-11
-6.34931e-11
-2.1296e-11
-2.4713e-10
-1.58273e-10
1.0933e-07
2.83159e-11
3.73515e-11
-1.23693e-11
-4.18725e-11
3.96458e-11
2.00838e-11
-6.23699e-11
1.07676e-07
3.65583e-10
-1.08442e-07
1.96136e-10
-3.99622e-11
-1.56074e-11
2.72793e-11
8.69538e-11
1.949e-12
8.94878e-11
5.85176e-12
4.04642e-11
1.08668e-07
3.75291e-10
-1.09449e-07
1.99792e-10
-2.81787e-11
-1.043e-11
2.91619e-11
6.71033e-11
1.47891e-12
8.5446e-11
2.13852e-11
1.94533e-10
-2.86853e-10
1.0855e-07
7.66099e-11
1.95301e-10
7.51322e-11
-4.45207e-11
4.00845e-11
-9.06393e-11
2.16585e-11
3.70625e-10
-1.08431e-07
1.87099e-10
-3.99145e-11
-1.46378e-11
2.75967e-11
8.72583e-11
2.2334e-12
5.99299e-12
9.02462e-11
-1.05379e-10
1.08613e-07
-6.01135e-11
-1.08669e-07
3.31614e-10
-1.87085e-10
-6.17906e-11
-6.41848e-11
7.02665e-11
1.18584e-12
1.11712e-10
2.00427e-11
4.59954e-11
3.10491e-11
2.66065e-08
-5.58716e-11
2.67573e-08
-2.66174e-08
-2.9463e-11
-1.40681e-11
-7.41167e-10
4.96152e-12
1.10098e-07
-2.71099e-11
-1.11632e-10
-1.09224e-10
-1.37648e-12
4.35268e-12
-1.38111e-12
-1.87683e-11
3.25569e-10
-1.09345e-07
1.94139e-10
-4.25434e-11
1.33669e-12
1.19147e-11
3.69258e-11
3.17397e-11
6.02923e-11
6.55129e-11
1.86371e-10
1.08698e-07
8.52833e-10
-1.10212e-07
2.76171e-11
1.19928e-10
4.45751e-11
1.17463e-10
3.36214e-11
3.24156e-11
3.79932e-11
6.15156e-11
-2.662e-08
8.76226e-11
-1.52078e-10
6.08254e-11
5.90213e-11
1.90906e-11
2.157e-11
2.65905e-08
-2.42322e-10
-2.31435e-10
2.6825e-08
-2.66497e-08
1.53846e-10
1.44586e-10
-2.02206e-10
1.10521e-07
-1.65898e-11
4.14399e-11
-1.11628e-11
-2.62102e-11
-4.77124e-11
-9.92168e-11
-8.61745e-11
-6.2097e-11
-4.14763e-10
-1.97206e-10
1.10549e-07
-1.71257e-11
4.1517e-11
-1.21562e-11
-2.7396e-11
-4.78937e-11
-9.9826e-11
-8.76059e-11
1.09088e-07
3.13506e-10
-1.10739e-07
-4.92746e-11
6.80911e-12
1.53448e-10
7.18801e-11
1.48015e-10
2.16592e-10
2.36613e-10
3.10284e-10
2.45073e-10
1.09127e-07
3.03805e-10
-1.10763e-07
-6.42039e-11
6.74922e-12
1.56229e-10
7.2551e-11
1.48766e-10
2.17376e-10
2.37065e-10
3.12145e-10
1.86862e-11
2.12517e-11
2.65905e-08
-2.33121e-10
2.68278e-08
-2.6651e-08
1.53432e-10
1.47973e-10
-2.05859e-10
1.08602e-07
4.74577e-12
5.09664e-11
-2.48114e-11
-9.85957e-11
-1.54638e-11
-2.24815e-11
-1.14229e-10
-5.13737e-11
-4.53639e-10
-2.11021e-10
1.09612e-07
-1.83863e-12
3.92485e-11
-2.13837e-11
-7.79301e-11
-1.53708e-11
-3.99285e-11
-1.11611e-10
1.07143e-07
3.18212e-10
-1.08792e-07
-2.49834e-11
-7.58846e-12
1.2652e-10
8.13416e-11
2.28166e-10
1.86448e-10
2.72551e-10
2.37039e-10
2.31199e-10
1.08113e-07
3.48833e-10
-1.09814e-07
-1.74342e-11
9.41548e-12
1.37218e-10
8.6586e-11
2.05658e-10
1.83477e-10
2.65761e-10
2.50012e-10
-5.02329e-10
-1.82902e-10
1.09606e-07
-3.23235e-12
3.77852e-11
-2.21669e-11
-7.85258e-11
-1.59825e-11
-1.12614e-10
-3.94643e-11
3.43299e-10
-1.08786e-07
-4.27948e-11
-7.18294e-12
1.2847e-10
8.14086e-11
2.27946e-10
1.89462e-10
2.38287e-10
2.72623e-10
2.54655e-10
1.08074e-07
4.01172e-10
-1.09813e-07
-5.47249e-11
9.57016e-12
1.37013e-10
8.27023e-11
2.05993e-10
1.84705e-10
2.68662e-10
2.49077e-10
2.80539e-11
1.34501e-11
2.65977e-08
-2.40091e-10
2.68318e-08
-2.66574e-08
1.44462e-10
1.52415e-10
-3.30277e-10
-2.29967e-10
1.0954e-07
-8.12843e-12
5.2893e-11
-1.32821e-11
-5.09036e-11
-4.69499e-11
-8.91404e-11
-7.85687e-11
2.53819e-10
-1.09705e-07
-4.64632e-11
-8.95758e-12
1.39753e-10
6.7012e-11
1.74708e-10
2.19923e-10
2.93685e-10
2.44667e-10
2.2276e-10
1.082e-07
1.89669e-10
-1.09738e-07
-1.23764e-11
-8.6461e-12
1.41495e-10
7.25292e-11
1.75586e-10
2.19923e-10
2.41912e-10
2.95698e-10
-2.66618e-08
1.33825e-10
1.68414e-10
1.64082e-10
1.53747e-10
-3.74249e-11
-2.64701e-11
2.65711e-08
-4.96899e-10
2.55126e-10
2.71506e-08
-2.63116e-08
-8.73953e-11