/*--------------------------------*- C++ -*----------------------------------*\
| =========                 |                                                 |
| \\      /  F ield         | OpenFOAM: The Open Source CFD Toolbox           |
|  \\    /   O peration     | Version:  2206                                  |
|   \\  /    A nd           | Website:  www.openfoam.com                      |
|    \\/     M anipulation  |                                                 |
\*---------------------------------------------------------------------------*/
FoamFile
{
    version     2.0;
    format      ascii;
    arch        "LSB;label=32;scalar=64";
    class       volVectorField;
    location    "0.3";
    object      U;
}
// * * * * * * * * * * * * * * * * * * * * * * * * * * * * * * * * * * * * * //

dimensions      [0 1 -1 0 0 0 0];

internalField   nonuniform List<vector> 
66940
(
(-1.89265e-06 -1.27068e-06 0.128328)
(4.61638e-08 -2.0474e-08 0.126907)
(5.8736e-06 -2.77367e-06 0.126989)
(-0.000195084 -0.000200837 0.125543)
(-1.94265e-06 4.55917e-07 0.12833)
(1.40413e-06 7.87949e-07 0.126909)
(2.24021e-06 -1.7344e-06 0.126992)
(-0.000195739 -0.000193169 0.125542)
(-1.11555e-06 4.42568e-07 0.12833)
(8.68053e-07 3.00641e-07 0.126907)
(2.70734e-06 -1.17267e-06 0.126991)
(-0.000193174 -0.00019854 0.125543)
(4.22074e-07 1.28473e-06 0.128329)
(-1.68172e-07 1.70557e-07 0.126908)
(2.80418e-06 -1.09793e-06 0.126991)
(-0.000196881 -0.00019209 0.12554)
(1.04844e-06 1.33321e-06 0.128329)
(2.72372e-07 -2.53937e-06 0.126912)
(5.90829e-07 6.20074e-07 0.126996)
(-0.00019431 -0.000197968 0.125541)
(-1.00597e-05 -9.40529e-06 0.128337)
(6.34658e-06 -1.26455e-05 0.126923)
(-1.01221e-05 6.41116e-06 0.127007)
(-0.000197674 -0.000191787 0.125537)
(-6.28787e-05 -5.94276e-05 0.128364)
(1.7353e-05 -3.85005e-05 0.126941)
(-3.5593e-05 1.34469e-05 0.127026)
(-0.000194005 -0.000199505 0.125529)
(-0.000228911 -0.000220831 0.128426)
(8.10792e-06 -8.02026e-05 0.126959)
(-7.56999e-05 -2.19968e-06 0.127046)
(-0.000201214 -0.000197366 0.12551)
(-0.000666746 -0.000654095 0.128541)
(-0.00014457 -9.18012e-05 0.126952)
(-8.04862e-05 -0.000164642 0.127048)
(-0.000203879 -0.000209317 0.125471)
(-0.00179475 -0.0017818 0.128706)
(-0.000866661 0.000140521 0.126841)
(0.00017043 -0.000907261 0.126963)
(-0.000245478 -0.000239545 0.125381)
(-0.00511773 -0.00514008 0.128309)
(-0.00329384 0.00138672 0.126271)
(0.00142639 -0.00341302 0.126473)
(-0.000514879 -0.000509805 0.125045)
(-0.0156343 -0.0157357 0.119698)
(-0.00285286 0.00421434 0.120581)
(0.00396001 -0.00305119 0.120878)
(-0.000877862 -0.000875623 0.121001)
(-0.000198655 -0.000201788 0.125486)
(5.79573e-06 2.76057e-06 0.126986)
(-5.58838e-06 2.97791e-06 0.12699)
(0.000197784 -0.000201589 0.125487)
(1.63486e-06 -3.14477e-07 0.126909)
(2.68482e-06 4.30038e-07 0.126906)
(-1.3164e-06 -2.23895e-07 0.126907)
(-3.66185e-06 2.95026e-06 0.126894)
(-0.000198219 0.000201845 0.125485)
(5.7691e-06 -1.40159e-06 0.12699)
(-7.09108e-06 -1.91124e-06 0.127002)
(0.000198453 0.000203556 0.125481)
(0.00019605 0.000197129 0.125541)
(-0.000201216 -0.000202515 0.125486)
(5.26422e-06 3.42215e-06 0.126986)
(-6.30901e-06 3.87973e-06 0.126989)
(2.05531e-06 2.91405e-06 0.126988)
(-1.91788e-06 3.21114e-06 0.126991)
(-0.000194669 0.000197622 0.125541)
(0.000200589 -0.000203409 0.125487)
(4.89796e-07 5.30954e-07 0.126909)
(1.47056e-06 -6.45052e-07 0.126906)
(-9.23541e-07 1.2183e-06 0.126911)
(-8.04493e-08 -1.29282e-06 0.126908)
(-5.75256e-07 -3.71446e-06 0.126914)
(1.31909e-06 1.28866e-06 0.126909)
(-7.73179e-07 7.46685e-07 0.126902)
(0.00019641 -0.000196362 0.12554)
(-0.000200974 0.000202548 0.125486)
(-6.97802e-06 -3.28082e-06 0.12698)
(2.1589e-06 -1.44614e-06 0.126992)
(-3.48352e-06 -1.72029e-06 0.126999)
(0.000200546 0.000205297 0.125487)
(0.000193647 0.000196475 0.125541)
(-0.000200665 -0.000203028 0.125485)
(2.18953e-06 2.80385e-06 0.126988)
(-2.56404e-06 3.21425e-06 0.126991)
(2.48416e-06 2.37143e-06 0.126988)
(-2.3104e-06 2.54953e-06 0.126991)
(-0.000193454 0.000196746 0.125542)
(0.000199701 -0.00020301 0.125486)
(-9.51659e-07 9.50964e-07 0.12691)
(-2.10627e-07 -1.1348e-06 0.126907)
(-8.06439e-07 5.40713e-07 0.12691)
(1.04135e-07 -5.95142e-07 0.126908)
(-4.2671e-07 -3.20001e-06 0.12691)
(9.8631e-07 5.42304e-07 0.126908)
(-1.23567e-06 2.44929e-06 0.126894)
(0.000193853 -0.000195657 0.12554)
(-0.000200433 0.000203216 0.125485)
(-1.56617e-06 -1.95731e-06 0.126991)
(2.41672e-06 -7.11083e-07 0.126991)
(-3.73376e-06 3.28456e-08 0.127004)
(0.000200245 0.000205738 0.12548)
(0.000194011 0.000195786 0.12554)
(-0.000200177 -0.000203399 0.125484)
(2.60602e-06 2.39459e-06 0.126987)
(-3.60278e-06 2.80233e-06 0.12699)
(2.58185e-06 1.51053e-06 0.126986)
(-2.37621e-06 1.83191e-06 0.12699)
(-0.000192672 0.000196006 0.125541)
(0.000199517 -0.000204294 0.125485)
(-4.91152e-07 6.88369e-07 0.12691)
(3.11325e-07 -8.812e-07 0.126907)
(-4.64374e-07 2.5133e-07 0.126909)
(5.34204e-07 -3.88513e-07 0.126906)
(6.26279e-07 -3.87777e-06 0.126915)
(7.08364e-07 3.83926e-07 0.126907)
(-1.42816e-06 1.3173e-06 0.1269)
(0.000194209 -0.00019484 0.12554)
(-0.000199985 0.000203618 0.125484)
(-4.2234e-06 -5.46644e-07 0.126983)
(2.3589e-06 1.06018e-07 0.126991)
(-3.46246e-06 7.8494e-07 0.126999)
(0.000199298 0.000206266 0.125486)
(0.000194556 0.000195464 0.125539)
(-0.000199532 -0.000203588 0.125484)
(2.83761e-06 2.11345e-06 0.126987)
(-3.16466e-06 2.52672e-06 0.12699)
(4.28368e-06 1.48252e-06 0.126984)
(-4.16962e-06 1.58659e-06 0.126987)
(-0.000194396 0.000195733 0.12554)
(0.000198506 -0.000203524 0.125485)
(4.88594e-07 3.83583e-07 0.12691)
(1.44489e-06 -6.76863e-07 0.126907)
(7.41705e-07 1.43374e-06 0.126906)
(1.8022e-06 -1.60678e-06 0.126904)
(-2.17934e-06 -2.93681e-06 0.126909)
(-6.4536e-07 1.42399e-06 0.126904)
(-3.2311e-06 1.5205e-06 0.12689)
(0.00019472 -0.000194509 0.125538)
(-0.000199374 0.000203828 0.125484)
(-1.92705e-06 -6.47273e-07 0.126991)
(4.08082e-06 2.17564e-07 0.126988)
(-5.40713e-06 1.48367e-06 0.127001)
(0.000199 0.000206321 0.125479)
(0.000194994 0.00019519 0.125538)
(-0.00019926 -0.000203202 0.125484)
(5.5926e-07 1.56604e-07 0.126992)
(-1.42157e-06 6.1038e-07 0.126996)
(1.1363e-05 5.2441e-06 0.126974)
(-1.10942e-05 5.34168e-06 0.126977)
(-0.000193776 0.00019547 0.125539)
(0.000198501 -0.0002041 0.125485)
(-4.34152e-08 -2.23934e-06 0.126915)
(9.92208e-07 1.62775e-06 0.126912)
(4.3814e-06 8.48274e-06 0.126896)
(5.54753e-06 -8.32935e-06 0.126894)
(9.19009e-08 -1.59351e-06 0.126919)
(-4.03097e-06 8.34307e-06 0.126895)
(-6.91602e-06 -6.7148e-06 0.126887)
(0.000195148 -0.000194247 0.125538)
(-0.000198911 0.000203454 0.125484)
(-1.97083e-06 2.00127e-06 0.126988)
(1.13301e-05 -2.94316e-06 0.126979)
(-1.25779e-05 -2.00315e-06 0.126988)
(0.000198027 0.000206374 0.125486)
(0.000194792 0.000195239 0.125534)
(-0.000197457 -0.000200114 0.125485)
(-1.00092e-05 -6.54009e-06 0.127004)
(9.92836e-06 -6.06199e-06 0.127007)
(3.16495e-05 1.53144e-05 0.126955)
(-3.17401e-05 1.50382e-05 0.126959)
(-0.000194634 0.000195463 0.125535)
(0.000196584 -0.000200169 0.125486)
(-6.37663e-06 -1.2765e-05 0.126926)
(-5.28969e-06 1.16691e-05 0.126923)
(1.34715e-05 3.06574e-05 0.126876)
(1.49288e-05 -2.95105e-05 0.126874)
(4.56248e-06 9.09043e-06 0.126925)
(-1.27706e-05 2.99522e-05 0.126877)
(-1.7015e-05 -2.61974e-05 0.12686)
(0.000194924 -0.000194349 0.125534)
(-0.000197369 0.000200666 0.125485)
(1.13839e-05 7.48677e-06 0.127007)
(3.13877e-05 -1.10123e-05 0.12696)
(-3.29336e-05 -9.52842e-06 0.126974)
(0.000197415 0.000203337 0.125481)
(0.000195491 0.000197339 0.125525)
(-0.000193036 -0.000195109 0.125495)
(-3.53841e-05 -1.49988e-05 0.127022)
(3.47555e-05 -1.41518e-05 0.127026)
(6.84415e-05 1.5276e-05 0.126932)
(-6.82343e-05 1.40833e-05 0.126936)
(-0.000194352 0.000197572 0.125526)
(0.000192144 -0.000196128 0.125496)
(-1.80799e-05 -3.90908e-05 0.126946)
(-1.73705e-05 3.72333e-05 0.126944)
(1.52247e-05 7.17209e-05 0.126853)
(1.72026e-05 -6.87007e-05 0.126851)
(1.87402e-05 3.40968e-05 0.126951)
(-1.32871e-05 6.98395e-05 0.126858)
(-2.01767e-05 -6.8418e-05 0.126843)
(0.000195626 -0.000196135 0.125525)
(-0.00019347 0.000196257 0.125495)
(3.51926e-05 1.53415e-05 0.127018)
(6.85802e-05 -7.94381e-06 0.126938)
(-6.91398e-05 -5.36736e-06 0.126948)
(0.000191523 0.00019831 0.125497)
(0.0001981 0.000200675 0.125507)
(-0.000193058 -0.000195414 0.125529)
(-7.41391e-05 -2.06458e-06 0.127043)
(7.38336e-05 1.89512e-07 0.127045)
(8.9608e-05 -8.81143e-05 0.126922)
(-8.85957e-05 -9.21202e-05 0.126926)
(-0.000198167 0.000200663 0.125508)
(0.000192267 -0.000195885 0.125531)
(-9.96938e-06 -8.23485e-05 0.12697)
(-1.00665e-05 7.89513e-05 0.126967)
(-8.14157e-05 0.000100467 0.126839)
(-7.73822e-05 -9.59997e-05 0.126837)
(9.09592e-06 7.4673e-05 0.126968)
(8.45591e-05 9.6072e-05 0.126855)
(7.40999e-05 -9.2264e-05 0.126823)
(0.000198075 -0.000199081 0.125507)
(-0.000194493 0.000196416 0.12553)
(7.72932e-05 -2.16753e-06 0.127047)
(9.02408e-05 9.77612e-05 0.126928)
(-9.14893e-05 0.000101854 0.126941)
(0.000192807 0.000198386 0.125526)
(0.000204107 0.000207224 0.125468)
(-0.000249462 -0.000250633 0.125644)
(-7.87592e-05 0.000157229 0.127045)
(7.62944e-05 0.00016261 0.127047)
(-7.10475e-05 -0.000623197 0.126958)
(7.63707e-05 -0.00063189 0.126964)
(-0.000202732 0.000207323 0.125468)
(0.00025072 -0.000252273 0.125652)
(0.000141445 -9.67959e-05 0.126976)
(0.000138591 9.24336e-05 0.126975)
(-0.000607903 -4.24427e-05 0.126873)
(-0.000600512 4.70618e-05 0.12687)
(-0.000135646 8.80168e-05 0.126981)
(0.000612359 -5.16339e-05 0.126913)
(0.000596357 4.6037e-05 0.126863)
(0.000204125 -0.00020531 0.125467)
(-0.000252613 0.000250313 0.125646)
(7.90802e-05 -0.000166825 0.127043)
(-6.91493e-05 0.000640344 0.126965)
(7.54836e-05 0.000646147 0.126974)
(0.000247571 0.000257321 0.125645)
(0.000241973 0.000248666 0.12538)
(-0.00085063 -0.000867057 0.125891)
(0.000171747 0.00089256 0.12696)
(-0.000178456 0.000903482 0.126961)
(-0.00111724 -0.00278575 0.127027)
(0.00113656 -0.00280501 0.127035)
(-0.000242903 0.000248745 0.125376)
(0.000858141 -0.000868704 0.125933)
(0.000863161 0.000130866 0.126896)
(0.000851823 -0.000134261 0.126895)
(-0.00277912 -0.00107623 0.126926)
(-0.00275465 0.00107098 0.126926)
(-0.00085247 -0.000144242 0.126892)
(0.00278623 -0.00109217 0.127024)
(0.00275291 0.00108277 0.126922)
(0.000242925 -0.000246309 0.125378)
(-0.000858631 0.000861051 0.125897)
(-0.000163267 -0.000910252 0.126969)
(-0.00111815 0.00281781 0.127032)
(0.00112286 0.00282759 0.127037)
(0.000868136 0.000858276 0.125889)
(0.000503915 0.000521154 0.125044)
(-0.00612273 -0.00610912 0.12318)
(0.00141826 0.00337769 0.126464)
(-0.00144542 0.0034011 0.126464)
(-0.00627649 -0.0120391 0.124187)
(0.00635119 -0.0121083 0.124168)
(-0.000509459 0.000519048 0.125002)
(0.00611042 -0.00606665 0.123282)
(0.0032907 0.00137242 0.1264)
(0.00326288 -0.00135815 0.126394)
(-0.0121468 -0.00628905 0.124211)
(-0.0120596 0.00623649 0.124205)
(-0.00326507 -0.00138353 0.126397)
(0.0122079 -0.00634031 0.124427)
(0.0120808 0.00624403 0.124197)
(0.000523084 -0.000497234 0.125039)
(-0.00613458 0.00608582 0.123183)
(-0.00143224 -0.00342874 0.126468)
(-0.00631466 0.0121106 0.124198)
(0.00632354 0.0121022 0.124209)
(0.00614742 0.00608087 0.123171)
(0.000854413 0.000898919 0.120997)
(0.00398889 0.0030914 0.120883)
(-0.00403351 0.00307334 0.12081)
(-0.000766897 0.000793004 0.120762)
(0.00300929 0.00398414 0.120892)
(0.00305958 -0.00402321 0.1209)
(0.0159533 -0.0159031 0.119561)
(-0.0156612 0.0156579 0.119699)
(0.0156595 0.0156995 0.119696)
(-0.00305748 -0.00402146 0.120895)
(0.000863694 -0.000880713 0.120999)
(-0.00394747 -0.00304902 0.12089)
(5.10456e-06 -6.70304e-06 0.0731131)
(-1.17762e-06 -2.49121e-06 0.128327)
(1.38529e-06 -1.98555e-06 0.128327)
(-8.13615e-07 2.88086e-06 0.128327)
(1.65438e-06 2.94203e-06 0.128326)
(6.40596e-05 3.99858e-07 0.120038)
(-3.46072e-06 1.3721e-06 0.126909)
(5.13418e-05 -1.74796e-05 0.109076)
(-1.79416e-06 -1.05083e-06 0.127786)
(0.000199397 0.000206434 0.125484)
(1.57209e-05 1.67672e-05 0.0970844)
(1.40616e-05 1.28077e-05 0.0972287)
(-3.48818e-07 -3.1301e-05 0.108265)
(4.73148e-06 2.67166e-05 0.0845112)
(8.63055e-08 3.33749e-05 0.108386)
(-3.59755e-06 -1.82173e-05 0.0844695)
(-4.96525e-06 1.23123e-05 0.0732337)
(7.76959e-06 -4.12586e-06 0.0731899)
(-3.26173e-05 8.28915e-08 0.107424)
(2.08602e-05 3.82035e-06 0.0841826)
(3.16061e-05 -1.54456e-07 0.107827)
(-2.19268e-05 -2.79968e-06 0.0840201)
(1.8905e-06 -1.22189e-06 0.128328)
(-1.05879e-06 1.55981e-06 0.128327)
(-9.09628e-07 2.61919e-06 0.128328)
(-2.21837e-06 7.54226e-07 0.12833)
(2.24403e-06 9.82064e-07 0.12833)
(-1.888e-06 -1.88109e-07 0.12833)
(1.62589e-06 -1.56249e-07 0.12833)
(6.26118e-05 4.02316e-07 0.120041)
(-5.13993e-05 1.49198e-05 0.109379)
(1.9853e-06 -2.89726e-06 0.12779)
(7.30966e-07 6.04759e-07 0.126907)
(-6.35109e-05 -1.51772e-06 0.120372)
(5.14567e-05 -1.62802e-05 0.109079)
(1.41029e-06 -1.30959e-06 0.12779)
(7.51041e-06 -6.22684e-06 0.0730732)
(-8.15349e-06 3.95205e-06 0.072974)
(2.39275e-07 5.95521e-05 0.120646)
(9.83756e-07 -5.45359e-06 0.127884)
(1.6942e-05 -5.08689e-05 0.109718)
(4.24322e-06 -1.84211e-06 0.126989)
(-1.13283e-06 -6.71807e-05 0.120732)
(-1.79605e-07 -4.83495e-06 0.127882)
(-1.77601e-05 4.63856e-05 0.109607)
(-1.48923e-05 -1.6886e-05 0.0973343)
(-1.86948e-05 -1.64813e-05 0.097575)
(0.000200957 0.00020711 0.125483)
(1.59371e-05 1.38164e-05 0.0970905)
(1.92397e-05 1.04774e-05 0.0974004)
(-6.11643e-07 -3.26119e-05 0.108264)
(1.74427e-06 2.58138e-05 0.0845111)
(-3.2676e-07 3.59387e-05 0.108388)
(-5.08351e-06 -2.03071e-05 0.0844707)
(-4.20022e-06 1.05423e-05 0.0732221)
(6.68717e-06 -6.10966e-06 0.0731862)
(-3.26986e-05 9.38847e-08 0.107428)
(2.06475e-05 4.16878e-06 0.0841868)
(3.18032e-05 2.36042e-08 0.10783)
(-2.18435e-05 -2.94059e-06 0.0840243)
(1.94689e-06 8.183e-07 0.12833)
(-1.59764e-06 -5.29254e-09 0.12833)
(7.32622e-07 1.39199e-07 0.128331)
(-1.59512e-06 -1.92102e-08 0.128331)
(1.65933e-06 1.40308e-07 0.128331)
(-1.10709e-06 6.71027e-07 0.128331)
(1.40905e-06 8.76864e-07 0.12833)
(6.26818e-05 4.7391e-07 0.120043)
(-5.09017e-05 1.47549e-05 0.109382)
(1.98733e-06 -1.40803e-06 0.12779)
(1.17961e-06 8.30891e-07 0.126908)
(-6.38225e-05 -1.4035e-06 0.120374)
(5.1432e-05 -1.6484e-05 0.109081)
(2.10108e-06 -6.71323e-07 0.127789)
(7.34417e-06 -6.17043e-06 0.0730779)
(-7.7822e-06 4.65894e-06 0.0729782)
(4.49891e-07 6.07059e-05 0.120644)
(-5.42204e-07 -3.32208e-06 0.127884)
(1.63558e-05 -5.03651e-05 0.109716)
(2.22371e-06 -8.49686e-07 0.126992)
(-1.29888e-06 -6.53944e-05 0.120728)
(-1.17269e-06 -3.3275e-06 0.127885)
(-1.88543e-05 4.68422e-05 0.109606)
(-1.51806e-05 -1.63821e-05 0.0973404)
(-1.8015e-05 -1.47576e-05 0.0975767)
(0.000199576 0.000205596 0.125484)
(1.58124e-05 1.57531e-05 0.0970852)
(1.93035e-05 1.38086e-05 0.0974133)
(-3.44019e-07 -3.4251e-05 0.108261)
(2.98357e-06 2.36214e-05 0.0845134)
(-2.10052e-07 3.46671e-05 0.108384)
(-3.12082e-06 -2.25508e-05 0.0844736)
(-6.35682e-06 8.2867e-06 0.0732222)
(4.24433e-06 -8.58313e-06 0.073186)
(-3.22947e-05 5.1611e-08 0.10743)
(2.11431e-05 3.4979e-06 0.0841907)
(3.1873e-05 -2.41096e-08 0.107833)
(-2.11181e-05 -3.71866e-06 0.0840271)
(1.05592e-06 4.25718e-07 0.12833)
(-4.92184e-07 6.49682e-08 0.12833)
(-1.64077e-06 9.53911e-07 0.12833)
(-1.86576e-06 -8.29262e-07 0.128332)
(1.93848e-06 -6.48699e-07 0.128332)
(-1.40667e-06 1.50226e-06 0.128332)
(1.13127e-06 1.45667e-06 0.128333)
(6.22782e-05 3.19782e-07 0.120043)
(-5.10731e-05 1.44534e-05 0.109384)
(1.77847e-06 -1.99014e-06 0.127789)
(1.07464e-06 -1.04712e-08 0.126907)
(-6.38621e-05 -1.49516e-06 0.120375)
(5.11696e-05 -1.69955e-05 0.109084)
(1.91662e-06 -1.02182e-06 0.127789)
(8.14079e-06 -5.05022e-06 0.0730804)
(-6.9332e-06 5.69917e-06 0.072979)
(5.34699e-07 6.19493e-05 0.120641)
(-5.89496e-07 -2.86817e-06 0.127884)
(1.64948e-05 -4.9264e-05 0.109716)
(2.23239e-06 1.92993e-07 0.126991)
(-1.16199e-06 -6.41698e-05 0.120726)
(-1.56709e-06 -2.28418e-06 0.127885)
(-1.81768e-05 4.81156e-05 0.109607)
(-1.56152e-05 -1.58027e-05 0.0973359)
(-1.89423e-05 -1.32962e-05 0.0975885)
(0.000201013 0.00020849 0.125482)
(1.46801e-05 1.53821e-05 0.0970921)
(1.78348e-05 1.43376e-05 0.0974127)
(-9.46204e-09 -3.53838e-05 0.108263)
(5.19637e-06 2.20117e-05 0.0845176)
(7.80937e-08 3.335e-05 0.108385)
(-8.85314e-07 -2.39764e-05 0.0844786)
(-8.69728e-06 6.57798e-06 0.0732269)
(2.51382e-06 -9.38121e-06 0.0731936)
(-3.13153e-05 -6.19863e-08 0.107429)
(2.21279e-05 2.62903e-06 0.0841904)
(3.27958e-05 -1.49653e-07 0.107834)
(-2.02816e-05 -4.26891e-06 0.0840245)
(-3.93237e-07 1.47729e-06 0.128329)
(1.02782e-06 -9.05007e-07 0.128329)
(-1.86979e-06 -6.69066e-07 0.128329)
(-2.42734e-06 -1.85939e-06 0.128334)
(2.44485e-06 -1.78801e-06 0.128335)
(-1.88788e-06 2.94504e-06 0.128335)
(1.67355e-06 3.1803e-06 0.128334)
(6.11978e-05 4.62112e-07 0.120041)
(-5.22099e-05 1.3608e-05 0.109385)
(1.14062e-06 -1.4092e-06 0.127789)
(2.07739e-07 5.76611e-07 0.126906)
(-6.49268e-05 -1.47558e-06 0.120374)
(4.99236e-05 -1.71241e-05 0.109082)
(9.65296e-07 -8.27919e-07 0.127789)
(8.87569e-06 -4.34812e-06 0.0730781)
(-6.47191e-06 5.96034e-06 0.0729752)
(7.90304e-07 6.26504e-05 0.120639)
(-5.62488e-07 -2.40002e-06 0.127884)
(1.77375e-05 -4.82133e-05 0.109717)
(2.85832e-06 7.44974e-07 0.12699)
(-1.09812e-06 -6.32215e-05 0.120723)
(-1.26099e-06 -2.1283e-06 0.127884)
(-1.6133e-05 4.92241e-05 0.109608)
(-1.7219e-05 -1.47073e-05 0.0973401)
(-2.13397e-05 -1.12049e-05 0.0975876)
(0.000198317 0.000206414 0.125482)
(1.3679e-05 1.68793e-05 0.0970831)
(1.54115e-05 1.7138e-05 0.0974233)
(1.70911e-07 -3.6552e-05 0.108266)
(5.19881e-06 2.18064e-05 0.0845243)
(3.06607e-07 3.26618e-05 0.108389)
(-7.95597e-07 -2.41169e-05 0.084485)
(-7.67718e-06 7.2919e-06 0.0732297)
(3.48647e-06 -9.00913e-06 0.0731939)
(-3.15016e-05 -7.78941e-08 0.107422)
(2.25535e-05 2.22389e-06 0.0841846)
(3.37651e-05 -3.3279e-07 0.107831)
(-2.11497e-05 -2.66636e-06 0.0840176)
(-1.0927e-06 1.35571e-06 0.128328)
(1.66065e-06 -1.55642e-06 0.128328)
(-3.48227e-06 -6.15727e-07 0.128329)
(3.88727e-06 4.17389e-06 0.128329)
(-3.82174e-06 3.91502e-06 0.12833)
(4.62417e-06 -1.86452e-06 0.12833)
(-5.72088e-06 -1.7314e-06 0.128331)
(6.10565e-05 1.76502e-07 0.120037)
(-5.33919e-05 1.26206e-05 0.109381)
(4.79324e-06 -2.86911e-06 0.127792)
(-1.79574e-06 3.34115e-06 0.126901)
(-6.58645e-05 -1.75504e-06 0.120373)
(5.05106e-05 -1.59782e-05 0.109079)
(-5.2888e-06 -5.53023e-08 0.127785)
(8.82198e-06 -4.54205e-06 0.0730724)
(-7.32487e-06 4.28991e-06 0.0729711)
(9.43489e-07 6.31549e-05 0.120638)
(-1.65907e-06 2.73062e-06 0.127888)
(1.81596e-05 -4.78817e-05 0.109718)
(6.64178e-06 -2.86914e-07 0.126984)
(-8.89355e-07 -6.29614e-05 0.120724)
(6.34394e-07 -8.16853e-06 0.12788)
(-1.45983e-05 5.03818e-05 0.109609)
(-1.74638e-05 -1.45741e-05 0.0973276)
(-2.05506e-05 -1.16633e-05 0.0975947)
(0.000199725 0.00020895 0.125482)
(1.43574e-05 1.38483e-05 0.0970843)
(1.56724e-05 1.55491e-05 0.0974213)
(-5.32814e-07 -3.64547e-05 0.108263)
(1.82365e-06 2.39043e-05 0.0845353)
(4.4436e-07 3.33161e-05 0.108403)
(-1.21835e-06 -2.37651e-05 0.0844826)
(-4.43021e-06 8.99177e-06 0.0732306)
(3.44595e-06 -8.40286e-06 0.0731983)
(-3.24717e-05 -3.0617e-07 0.107411)
(2.25482e-05 2.1949e-06 0.0841839)
(3.38852e-05 1.76687e-07 0.107833)
(-2.28354e-05 -1.59176e-08 0.0840083)
(1.01864e-05 -8.78362e-06 0.128336)
(-9.66486e-06 7.76338e-06 0.128336)
(9.03786e-06 7.99579e-06 0.128337)
(4.06754e-05 4.01775e-05 0.128305)
(-4.06311e-05 3.91484e-05 0.128306)
(4.17249e-05 -3.5411e-05 0.128305)
(-4.27878e-05 -3.46708e-05 0.128304)
(6.0602e-05 4.16855e-07 0.120029)
(-5.36133e-05 1.14553e-05 0.109381)
(2.63782e-05 -8.1633e-06 0.127804)
(-7.77351e-06 1.66598e-05 0.126886)
(-6.61998e-05 -1.49507e-06 0.120374)
(5.22211e-05 -1.25778e-05 0.109072)
(-3.33268e-05 8.69861e-06 0.127768)
(8.72897e-06 -4.43302e-06 0.0730684)
(-8.52806e-06 1.79173e-06 0.0729702)
(7.38597e-07 6.19135e-05 0.120633)
(-9.51997e-06 2.5709e-05 0.127899)
(1.54594e-05 -4.89483e-05 0.109724)
(1.92475e-05 -6.09623e-06 0.12697)
(-7.65287e-07 -6.34158e-05 0.120729)
(1.13169e-05 -3.80632e-05 0.127864)
(-1.35433e-05 5.06186e-05 0.109606)
(-1.74018e-05 -1.36073e-05 0.0973239)
(-1.7198e-05 -1.28705e-05 0.0975892)
(0.000197068 0.000205131 0.125482)
(1.6203e-05 1.10912e-05 0.0970797)
(1.41879e-05 1.68077e-05 0.0974362)
(-1.99774e-06 -3.56653e-05 0.108244)
(-2.07951e-06 2.66755e-05 0.0845579)
(1.05615e-06 3.59243e-05 0.108424)
(2.74373e-06 -2.563e-05 0.0844496)
(-3.9546e-07 1.1447e-05 0.0732319)
(-1.61635e-06 -1.08456e-05 0.0731932)
(-3.31441e-05 -1.89346e-06 0.107396)
(2.42718e-05 -2.59209e-07 0.0842037)
(3.53438e-05 1.36572e-06 0.10785)
(-2.50852e-05 3.86434e-06 0.0839777)
(6.28105e-05 -5.80163e-05 0.128363)
(-6.2726e-05 5.52383e-05 0.128364)
(6.16216e-05 5.57287e-05 0.128365)
(0.000168416 0.000164809 0.128251)
(-0.000168808 0.000162426 0.128254)
(0.000169356 -0.000155804 0.128252)
(-0.000170255 -0.000155392 0.128253)
(5.58607e-05 -4.95816e-08 0.12002)
(-5.54612e-05 8.46113e-06 0.109397)
(0.000101599 -3.07884e-05 0.127831)
(-1.68577e-05 4.81366e-05 0.126866)
(-6.79931e-05 -8.93864e-07 0.120383)
(5.47228e-05 -6.14956e-06 0.109052)
(-0.000130545 3.76415e-05 0.127732)
(1.0361e-05 -1.31626e-06 0.073069)
(-1.06381e-05 -2.77892e-06 0.0729692)
(8.73505e-08 5.343e-05 0.12062)
(-3.4697e-05 9.84353e-05 0.127926)
(9.97233e-06 -5.24476e-05 0.109744)
(4.80617e-05 -1.30059e-05 0.126948)
(-5.14534e-07 -6.47007e-05 0.120741)
(4.34473e-05 -0.000133303 0.127827)
(-8.11416e-06 5.11074e-05 0.109583)
(-1.89791e-05 -9.59644e-06 0.0973088)
(-1.03815e-05 -1.65721e-05 0.0975883)
(0.000195826 0.000203092 0.125487)
(1.88545e-05 2.36333e-06 0.0971021)
(7.80286e-06 1.74484e-05 0.0974458)
(-7.50957e-06 -3.79828e-05 0.10822)
(-8.67134e-06 3.04002e-05 0.0846233)
(4.67795e-06 4.1175e-05 0.108446)
(1.30252e-05 -3.04029e-05 0.0843526)
(7.94315e-06 1.55891e-05 0.0732362)
(-1.45022e-05 -1.66048e-05 0.0731917)
(-3.5887e-05 -7.52879e-06 0.10738)
(2.8255e-05 -7.10038e-06 0.0842682)
(4.13448e-05 5.22343e-06 0.107872)
(-3.00305e-05 1.36429e-05 0.0838847)
(0.000229646 -0.000217981 0.128422)
(-0.000228258 0.000211805 0.128426)
(0.000227775 0.000211011 0.128426)
(0.000512622 0.000504215 0.128151)
(-0.000515829 0.000500339 0.128157)
(0.000514032 -0.00048848 0.128151)
(-0.000514878 -0.000486409 0.12815)
(4.37281e-05 -1.7205e-06 0.120006)
(-6.0338e-05 -7.48692e-07 0.109444)
(0.000318472 -9.21298e-05 0.127885)
(1.18338e-05 8.94493e-05 0.126853)
(-7.60879e-05 1.42701e-06 0.120397)
(6.0734e-05 6.89136e-06 0.108988)
(-0.000403323 0.000115736 0.127668)
(1.49682e-05 7.63987e-06 0.0730724)
(-1.66224e-05 -1.54454e-05 0.0729662)
(-1.83741e-06 3.71743e-05 0.1206)
(-0.000103062 0.000308034 0.127981)
(7.48702e-07 -5.6871e-05 0.109792)
(8.69208e-05 2.10923e-05 0.12693)
(1.35093e-06 -6.8406e-05 0.120756)
(0.000128481 -0.000400129 0.127763)
(5.59443e-06 5.70169e-05 0.109512)
(-2.48742e-05 2.96388e-06 0.0972768)
(1.20768e-06 -2.12546e-05 0.0975496)
(0.000190111 0.000196792 0.125506)
(2.69751e-05 -1.33265e-05 0.0971566)
(-1.02867e-05 2.69429e-05 0.0975091)
(-2.54243e-05 -5.57075e-05 0.108222)
(-2.65192e-05 3.7831e-05 0.0848027)
(1.71556e-05 6.16494e-05 0.108457)
(3.73905e-05 -4.27273e-05 0.084095)
(3.22173e-05 2.61647e-05 0.073239)
(-4.68676e-05 -3.23209e-05 0.0731894)
(-5.09911e-05 -2.61063e-05 0.107393)
(3.66128e-05 -2.43516e-05 0.0844453)
(6.2577e-05 1.81615e-05 0.107877)
(-4.38422e-05 3.8483e-05 0.0836299)
(0.000671663 -0.000649945 0.128533)
(-0.000666626 0.000636752 0.128541)
(0.000664882 0.000637983 0.128541)
(0.00137848 0.00136807 0.127967)
(-0.00139416 0.00136391 0.12798)
(0.00138193 -0.00133724 0.127968)
(-0.00138542 -0.00133692 0.127968)
(2.2846e-05 -8.57643e-06 0.120001)
(-6.80883e-05 -1.88005e-05 0.109573)
(0.000892378 -0.00024214 0.127978)
(0.000254041 6.51993e-05 0.126872)
(-9.98414e-05 8.227e-06 0.1204)
(8.05632e-05 3.24893e-05 0.108803)
(-0.00110331 0.00029626 0.127561)
(2.55063e-05 3.1294e-05 0.0730734)
(-3.24261e-05 -4.86936e-05 0.0729698)
(-1.02182e-05 1.26902e-05 0.120581)
(-0.000261073 0.000866035 0.128071)
(-1.83247e-05 -6.4643e-05 0.109931)
(5.48263e-05 0.000273182 0.126938)
(8.55932e-06 -8.76194e-05 0.12077)
(0.000319819 -0.00107855 0.127658)
(3.18939e-05 7.68581e-05 0.109309)
(-4.12002e-05 2.94681e-05 0.0971456)
(3.008e-05 -3.74531e-05 0.0974362)
(0.000203823 0.00021354 0.125571)
(5.33388e-05 -4.74226e-05 0.097356)
(-4.33199e-05 5.2417e-05 0.0976836)
(-8.56609e-05 -0.000177633 0.108384)
(-7.32059e-05 5.99554e-05 0.0852827)
(5.48625e-05 0.000113679 0.108385)
(6.74476e-05 -0.000133174 0.0834539)
(9.37269e-05 4.5483e-05 0.0732191)
(-0.000102128 -9.54484e-05 0.0732933)
(-0.000167288 -8.73998e-05 0.107577)
(5.83024e-05 -6.98771e-05 0.0849297)
(0.000115498 5.74834e-05 0.107792)
(-0.000135801 7.02191e-05 0.0829829)
(0.00181726 -0.0017786 0.128693)
(-0.00179798 0.00174809 0.128707)
(0.00179919 0.00174935 0.128706)
(0.00343708 0.00344193 0.127511)
(-0.00349257 0.0034436 0.12753)
(0.00345167 -0.00338541 0.127512)
(-0.0034547 -0.00338997 0.127515)
(3.07139e-05 -3.42479e-05 0.120093)
(-5.66154e-05 -6.01576e-05 0.109963)
(0.0023798 -0.000589055 0.128088)
(0.00132878 -0.000359274 0.12698)
(-0.000144221 2.55616e-05 0.120326)
(0.000136449 5.34383e-05 0.108245)
(-0.00282153 0.000719668 0.12741)
(4.51722e-05 9.27496e-05 0.0730514)
(-9.67486e-05 -0.000106784 0.0730732)
(-4.21215e-05 3.6413e-05 0.120619)
(-0.000617797 0.00230141 0.12818)
(-5.88544e-05 -5.48068e-05 0.110336)
(-0.000383311 0.00136371 0.127011)
(2.76232e-05 -0.000125341 0.120739)
(0.000746333 -0.00274462 0.127507)
(5.13519e-05 0.00013523 0.108722)
(-8.01422e-05 8.00335e-05 0.0967882)
(8.05427e-05 -7.44434e-05 0.0970994)
(0.000393968 0.000394831 0.125743)
(0.000153578 -6.53376e-05 0.09789)
(-6.40787e-05 0.000151315 0.0982011)
(-0.000236573 -0.00102292 0.108343)
(-0.000199093 0.00010774 0.0869238)
(0.00013788 -9.54595e-05 0.107883)
(-5.07111e-05 -0.00101724 0.0812835)
(0.000242185 8.43004e-05 0.0735511)
(-0.000196751 -0.000797459 0.0740439)
(-0.000987996 -0.000232744 0.108227)
(9.67135e-05 -0.000177952 0.0866658)
(-5.15986e-05 0.000145891 0.107598)
(-0.00103712 -3.20248e-05 0.0811779)
(0.00518956 -0.00514624 0.128288)
(-0.00512561 0.00508505 0.128309)
(0.00513704 0.00508635 0.128313)
(0.00660478 0.00659115 0.123461)
(-0.00675107 0.00661881 0.123418)
(0.00656064 -0.00660719 0.123465)
(-0.00657446 -0.00660889 0.123465)
(0.00126238 -0.000114269 0.119994)
(0.000338162 -0.000286566 0.111352)
(0.00663135 -0.00142414 0.12776)
(0.00580975 -0.00280612 0.126803)
(-1.34519e-05 3.91347e-05 0.119964)
(0.000737921 -0.000211371 0.106321)
(-0.00618206 0.00138941 0.126756)
(8.60823e-05 0.000226901 0.0734013)
(-0.000789269 -0.000212753 0.0739855)
(-0.000139974 0.00126707 0.120009)
(-0.00145093 0.00641342 0.127815)
(-0.000284931 0.000349234 0.111742)
(-0.00279341 0.00577599 0.126615)
(3.05516e-05 3.86847e-05 0.120209)
(0.00137588 -0.00616083 0.126691)
(-0.000203558 0.000724461 0.106301)
(-7.63971e-07 0.00022283 0.0962495)
(0.000233496 1.34365e-05 0.0966333)
(0.00217023 0.00211591 0.125576)
(0.000744697 0.000187535 0.0990821)
(0.000181358 0.000749742 0.0991193)
(-0.00109394 -0.0197735 0.105222)
(-0.000721744 -0.0043118 0.0568966)
(-0.000536269 -0.0052003 0.100241)
(-0.00754357 -0.0141301 0.0925369)
(-0.000227401 -0.0025185 0.0412519)
(0.0074542 -0.0131749 0.0892878)
(-0.0197658 -0.00110138 0.105191)
(-0.00431174 -0.000705171 0.0568384)
(-0.00523604 -0.000542469 0.100238)
(-0.0141506 -0.0075334 0.0925167)
(-0.00251221 -0.00246563 0.109133)
(-0.00263537 -0.01117 0.120433)
(-0.0112789 -0.00274058 0.120488)
(-0.0143449 -0.01442 0.114377)
(-0.00306982 -0.00304326 0.11941)
(-0.00259674 -0.0108803 0.11122)
(-0.0109357 -0.0026533 0.111252)
(0.0205376 -0.00167954 0.111331)
(0.00618875 -0.00263836 0.098772)
(0.0203678 -0.00325819 0.12058)
(0.0197181 -0.0140533 0.114127)
(0.00381537 -0.000320116 0.115393)
(0.0171346 -0.00880425 0.107261)
(0.0192682 -0.00299976 0.111778)
(-0.00252502 -0.000251606 0.0412146)
(-0.013206 0.00740059 0.0892579)
(-0.00180708 0.0202266 0.111345)
(-0.00332855 0.020304 0.120585)
(-0.00266734 0.00617035 0.0988511)
(-0.0135059 0.0195103 0.114072)
(-0.000266074 0.00400192 0.115416)
(-0.00299068 0.019232 0.11178)
(-0.00886663 0.0171291 0.107333)
(0.00356174 0.00180676 0.0891533)
(0.00183981 0.00354019 0.0892674)
(0.0187307 0.018592 0.113936)
(0.0153703 0.00795367 0.100592)
(0.00802202 0.0153393 0.100604)
(-5.34349e-06 -3.82262e-06 0.0732023)
(6.80198e-06 9.79737e-06 0.0731378)
(-8.3017e-06 -4.48307e-06 0.0729741)
(6.52047e-06 5.0167e-06 0.0730782)
(0.000196489 0.000196231 0.125541)
(-1.69272e-05 -1.20807e-05 0.0974454)
(-1.60715e-05 -1.52351e-05 0.0970446)
(1.7404e-05 1.67039e-05 0.097476)
(1.46704e-05 1.5231e-05 0.0973092)
(7.02677e-06 -1.85248e-05 0.0842712)
(-1.10955e-06 4.18393e-06 0.126894)
(1.16712e-05 -4.76134e-05 0.10932)
(6.69663e-07 3.12246e-05 0.107911)
(-1.99316e-06 -1.85208e-05 0.0844695)
(2.10305e-06 2.07959e-05 0.0843012)
(2.8434e-07 -3.64256e-05 0.108258)
(-6.77357e-07 3.12561e-05 0.107912)
(1.96401e-06 -1.8478e-05 0.0844675)
(-1.9552e-06 2.08405e-05 0.0842974)
(-1.74384e-07 -3.64728e-05 0.108257)
(2.9025e-07 6.49402e-05 0.120393)
(4.68239e-06 5.63379e-06 0.126987)
(-1.7706e-05 -4.58039e-05 0.109608)
(1.07578e-06 3.15812e-06 0.12789)
(1.48634e-05 5.23182e-05 0.109437)
(1.5735e-07 5.22312e-06 0.127875)
(7.00952e-07 -5.69952e-05 0.120645)
(-3.40265e-07 6.49625e-05 0.120393)
(-5.10571e-06 6.12188e-06 0.12699)
(1.72754e-05 -4.58932e-05 0.109603)
(-1.35393e-06 3.2485e-06 0.127891)
(-1.49081e-05 5.21875e-05 0.109429)
(-4.91437e-07 5.45941e-06 0.127876)
(-7.83202e-07 -5.70231e-05 0.120645)
(0.000199219 -0.000204744 0.125487)
(1.26359e-05 -1.2618e-05 0.0972405)
(1.60851e-05 -1.73101e-05 0.0970743)
(8.7479e-06 -5.68087e-06 0.0729714)
(5.08295e-06 -3.8351e-06 0.0732013)
(-6.82759e-06 1.00232e-05 0.0731319)
(-0.000195926 0.000196638 0.125541)
(1.60854e-05 -1.20775e-05 0.0974159)
(1.60764e-05 -1.61635e-05 0.0970738)
(-1.79938e-05 1.68914e-05 0.0974405)
(-1.44789e-05 1.49452e-05 0.0973437)
(8.29219e-06 -4.64295e-06 0.0729745)
(-6.38175e-06 5.19033e-06 0.0730811)
(3.08154e-05 -3.53412e-07 0.107825)