/*--------------------------------*- C++ -*----------------------------------*\
| =========                 |                                                 |
| \\      /  F ield         | OpenFOAM: The Open Source CFD Toolbox           |
|  \\    /   O peration     | Version:  2206                                  |
|   \\  /    A nd           | Website:  www.openfoam.com                      |
|    \\/     M anipulation  |                                                 |
\*---------------------------------------------------------------------------*/
FoamFile
{
    version     2.0;
    format      ascii;
    arch        "LSB;label=32;scalar=64";
    class       volScalarField;
    location    "40";
    object      omega;
}
// * * * * * * * * * * * * * * * * * * * * * * * * * * * * * * * * * * * * * //

dimensions      [0 0 -1 0 0 0 0];

internalField   nonuniform List<scalar> 
401248
(
17.7079
21.6925
21.5017
23.6658
23.8873
21.5758
21.4326
23.6623
21.8079
21.7199
21.7587
23.6878
21.4425
285.371
99.0232
411.629
288.771
103.612
17.6861
17.6291
17.6863
87.4178
19.4501
39.2004
414.311
19.226
88.2812
36.6912
157.412
158.501
412.488
414.579
162.082
165.334
279.314
96.3486
90.9402
19.2659
37.783
88.9523
19.1944
36.1605
158.486
158.675
413.564
93.5123
19.4889
39.7948
287.853
103.303
19.4707
92.8473
39.8575
286.28
100.01
19.4847
91.7281
38.176
284.801
100.162
164.289
155
411.622
19.2198
88.6132
37.393
283.108
96.5675
282.219
96.0202
412.729
410.056
430.299
278.852
172.317
169.531
429.829
324.433
96.6375
298.239
114.388
292.975
107.606
321.293
411.204
329.94
102.586
118.678
302.255
433.275
287.171
176.846
175.335
432.509
432.984
288.102
176.379
327.095
100.646
119.584
302.748
116.299
300.404
327.625
412.871
413.127
112.555
58.1934
164.579
295.343
57.4427
297.633
110.993
110.926
57.2502
160.958
295.841
56.6634
295.056
104.105
218.059
417.265
416.75
417.584
417.432
215.722
411.153
413.41
414.134
113.023
58.5843
154.55
297.617
291.556
55.3662
107.184
113.592
59.5391
162.512
300.128
297.975
56.156
107.778
221.744
417.032
418.369
416.609
417.839
216.482
430.509
285.376
169.759
168.09
430.804
323.364
94.8398
295.86
112.298
297.675
114.366
322.058
110.394
56.9057
161.163
292.916
298.671
57.997
108.183
111.353
56.0093
155.816
292.59
59.0215
298.568
109.358
218.549
417.046
417.368
416.054
417.664
216.549
412.854
329.915
102.441
302.258
118.356
432.547
283.262
176.024
168.336
432.496
432
286.178
175.807
327.115
100.473
302.762
119.254
300.498
115.995
327.632
432.7
284.92
171.452
168.145
433.276
327.008
102.001
115.643
299.927
117.804
301.87
325.72
433.089
287.06
167.756
175.4
433.056
327.272
102.442
297.797
111.795
302.962
118.974
325.94
112.456
59.098
160.632
299.253
295.279
55.6376
110.552
112.424
58.2573
162.191
291.183
54.9901
297.574
106.4
221.357
417.84
416.267
417.7
417.046
215.984
411.272
430.877
282.144
165.713
172.988
430.664
323.445
95.2996
111.948
294.108
110.738
298.945
322.22
430.496
284.43
168.513
171.036
429.951
323.405
98.0455
108.699
297.06
115.652
296.102
322.069
412.843
412.447
16.8378
16.8935
16.3644
51.3291
32.0595
31.893
23.7486
32.3856
32.1898
50.4142
52.8212
32.5687
32.9809
23.5641
31.8294
31.7429
50.63
52.0816
32.0014
32.5512
23.7319
32.3462
32.363
51.5715
52.0135
32.5222
32.3222
23.2317
31.0918
32.017
51.428
16.8397
16.9637
16.5085
16.7941
16.7582
16.3271
16.8886
16.8097
16.4194
29.7632
39.0231
92.8535
57.9958
38.3681
58.89
29.4509
25.9968
39.5291
42.803
24.5133
42.2509
24.6861
25.8506
29.4069
39.0886
90.029
55.8497
38.5335
56.893
29.4394
25.5243
38.0806
24.0095
42.038
23.9204
42.7613
25.3775
29.1381
38.8737
85.6561
56.5258
53.4324
37.7642
28.5005
25.3418
37.214
42.0894
24.0822
40.169
23.929
25.4557
28.809
37.7409
87.7073
54.6936
53.4301
37.0927
28.6419
25.3773
37.5833
41.5995
23.6619
40.723
24.0438
25.2768
30.059
39.8839
87.8246
59.5109
58.3301
38.0963
29.8439
26.2439
38.6134
44.7095
24.7867
42.6425
24.2937
26.1126
29.7522
39.3706
87.2304
58.498
57.3806
37.6133
29.5215
26.196
38.2358
24.8189
44.3802
24.3369
42.3419
26.0723
29.9165
38.7877
90.6374
57.6023
38.2601
58.6336
29.6383
26.1331
39.8436
24.6503
44.101
24.8038
43.7545
25.9229
29.122
37.7754
87.7594
55.4114
37.1975
54.7763
28.9643
25.4121
36.8795
23.7022
41.7504
24.087
42.3857
25.273
756.119
1622.65
4424.58
16478.5
116782
738.871
1604.42
4392.86
16427.9
116912
755.872
1622.74
4424.72
16480.2
116802
737.164
1603.61
4392.32
16425.6
116892
737.627
1603.61
4392.2
16424
116862
737.506
1603.73
4392.68
16427.9
116912
757.34
1623.34
4424.8
16480.4
116803
738.821
1604.28
4392.17
16424.2
116872
755.914
1622.64
4424.69
16480.4
116814
757.242
1623.25
4424.31
16477.6
116781
756.949
1623.24
4424.4
16477.2
116772
738.847
1604.25
4392.28
16425
116881
757.327
1623.27
4424.61
16479.2
116795
757.118
1623.22
4424.59
16479.3
116802
738.573
1604.3
4392.42
16425.6
116892
738.859
1604.34
4392.74
16427.5
116912
734.388
1602.57
4390.85
16419.5
116835
755.919
1622.31
4424.09
16478
116782
738.116
1603.62
4392.41
16427.6
116912
744.891
1613.72
4409.09
16447.8
116752
743.849
1608.59
4398.46
16426.1
116727
734.08
1602.58
4390.95
16420.3
116840
756.113
1622.45
4424.3
16479.9
116802
756.678
1622.71
4424.66
16480.3
116802
737.837
1603.44
4392.02
16425.3
116892
737.362
1603.61
4392.27
16425.6
116892
756.034
1622.39
4422.75
16475.9
116795
755.349
1621.58
4422.27
16475.6
116795
756.078
1622.36
4422.77
16475.9
116795
755.363
1621.56
4422.3
16475.6
116795
738.602
1608.49
4400.46
16442.3
116918
738.74
1608.5
4400.41
16442.6
116921
738.083
1607.59
4400.01
16442
116918
738.193
1607.59
4399.94
16442.3
116921
737.824
1603.43
4391.88
16423.7
116862
737.654
1603.54
4392.36
16427.6
116912
737.865
1603.7
4392.6
16427.9
116912
756.645
1622.52
4424.29
16480
116803
756.125
1622.41
4422.66
16474.9
116789
755.391
1621.59
4422.18
16474.6
116789
738.535
1608.51
4400.38
16442.5
116919
738.083
1607.6
4399.91
16442.1
116919
737.935
1603.48
4391.77
16424
116872
744.748
1613.68
4409.07
16447.2
116747
743.906
1608.58
4398.4
16425.8
116725
733.916
1602.57
4391
16420.4
116852
754.982
1622.26
4424.25
16480
116814
755.793
1622.63
4424.62
16480.3
116814
756.256
1622.4
4423.82
16477.2
116781
734.702
1602.75
4390.86
16419.2
116831
756.224
1622.42
4423.9
16476.8
116772
756.154
1622.38
4422.49
16473.2
116759
755.493
1621.56
4421.98
16472.8
116759
738.496
1608.52
4400.53
16442.2
116904
738.054
1603.49
4391.86
16424.7
116881
735.097
1602.8
4390.89
16419.5
116836
756.535
1622.42
4424.06
16478.8
116795
734.994
1602.73
4390.72
16419.4
116840
756.561
1622.43
4424.07
16478.9
116802
737.895
1603.54
4392.03
16425.4
116892
738.58
1603.55
4392.29
16427.2
116912
734.818
1602.7
4390.75
16420
116838
734.447
1602.73
4390.8
16419.5
116840
744.787
1613.49
4409.03
16448
116768
744.549
1608.64
4398.71
16427.1
116747
744.514
1608.41
4398.36
16426.8
116747
745.24
1613.84
4409.38
16448.4
116768
734.834
1602.97
4391.23
16419.9
116835
756.227
1622.35
4422.53
16474.1
116776
755.562
1621.56
4422.07
16473.7
116776
738.646
1608.43
4400.04
16440
116887
738.052
1607.53
4399.59
16439.7
116887
734.85
1603.01
4391.3
16420.6
116840
744.102
1613.36
4408.82
16447.6
116752
744.082
1608.53
4398.49
16426.1
116727
743.63
1608.34
4398.16
16425.8
116727
745.002
1613.75
4409.12
16447.8
116752
735.483
1603.01
4391.23
16420.6
116840
754.855
1621.71
4422.49
16474.3
116778
754.698
1621.41
4422.1
16473.9
116778
737.113
1607.85
4400.52
16442.9
116918
737.362
1607.61
4400.16
16442.6
116918
754.975
1621.69
4422.51
16474.3
116776
754.859
1621.37
4422.07
16473.9
116776
736.79
1607.74
4400.44
16443.1
116933
737.679
1607.54
4400.09
16442.8
116933
754.746
1621.82
4422.65
16475.4
116795
755.119
1621.57
4422.26
16475.1
116795
736.907
1607.75
4400.27
16442
116921
737.705
1607.54
4399.91
16441.7
116921
745.113
1613.62
4408.8
16447.5
116751
745.932
1609.4
4398.62
16426.1
116727
745.105
1608.55
4398.14
16425.8
116727
746.088
1614.42
4409.18
16447.8
116751
735.87
1603.6
4391.22
16420.4
116838
744.104
1613.37
4408.81
16446.9
116747
744.153
1608.52
4398.42
16425.8
116725
743.664
1608.32
4398.09
16425.6
116725
744.994
1613.75
4409.1
16447.2
116747
734.83
1603.01
4391.35
16420.7
116852
734.968
1603.03
4391.29
16420.7
116852
735.569
1603.61
4391.22
16419.8
116840
744.871
1613.66
4409.16
16448.9
116774
745.412
1609.34
4398.81
16426.4
116749
744.572
1608.54
4398.4
16426.2
116749
746.431
1614.49
4409.45
16449.1
116774
744.984
1613.68
4409.17
16449
116769
745.454
1609.32
4398.82
16427.1
116747
744.668
1608.54
4398.44
16426.9
116747
746.621
1614.52
4409.51
16449.2
116769
736.141
1603.64
4391.25
16419.5
116831
738.099
1607.63
4400.07
16441.9
116904
736.268
1603.67
4391.34
16419.9
116836
745.517
1613.7
4409.01
16447.5
116758
745.948
1609.37
4398.71
16426
116725
745.211
1608.58
4398.32
16426.2
116736
747.112
1614.56
4409.37
16447.3
116748
736.148
1603.61
4391.21
16419.8
116840
745.166
1613.62
4408.83
16447.6
116752
746.043
1609.4
4398.61
16426.1
116727
745.114
1608.54
4398.11
16425.8
116727
746.134
1614.4
4409.15
16447.8
116752
23.8365
21.302
21.6718
21.5826
23.7145
21.3021
23.578
23.8649
17.7403
17.7431
412.428
412.462
161.569
165.016
286.211
90.5888
281.188
100.17
93.4594
19.4405
39.9818
284.588
97.0192
19.4799
93.1492
40.0122
411.274
164.787
161.681
411.951
90.9006
284.325
410.988
412.918
412.554
414.971
154.824
160.911
23.7813
164.353
165.845
413.333
411.023
415.13
413.812
23.5854
163.702
166.383
160.422
160.96
411.542
414.795
108.567
57.8447
154.193
297.752
296.704
56.8778
107.14
107.171
59.607
162.894
299.41
293.678
58.9037
104.838
212.474
417.264
418.146
417.419
417.649
219.77
284.699
174.499
172.984
430.236
434.469
289.561
173.113
178.196
432.852
330.351
105.841
112.324
299.371
122.065
304.565
324.391
434.4
289.665
173.083
177.977
432.757
330.349
106.522
297.328
115.916
304.171
121.893
326.143
414.835
106.716
59.0343
162.53
298.245
58.3127
296.688
104.072
108.829
58.5138
159.651
296.252
294.533
57.6687
107.28
215.615
417.755
416.86
417.718
416.825
218.11
411.651
282.597
171.474
169.586
430.415
411.824
412.108
412.971
413.771
222.003
417.768
418.969
417.18
418.494
217.642
112.676
55.5202
294.715
161.427
106.855
293.8
54.528
113.696
57.6174
295.58
163.081
112.246
300.422
58.5582
220.619
416.889
417.907
220.259
416.638
417.851
106.114
299.327
158.739
58.9825
294.724
112.611
58.1663
107.725
301.907
163.661
59.9116
298.361
111.915
58.8536
411.933
412.504
414.83
414.223
222.857
417.225
418.015
217.321
417.657
418.793
114.942
58.8772
161.958
299.179
298.143
58.0461
107.984
115.47
60.092
164.367
301.332
300.252
59.1319
110.958
110.065
296.744
56.0291
161.657
111.316
297.923
55.7165
114.646
298.912
57.7126
163.472
113.469
300.096
58.875
221.038
417.672
418.761
417.739
418.537
218.312
49.8949
23.7482
32.3546
32.6553
32.1408
32.4256
48.9414
50.2693
23.6162
32.4835
32.3935
32.3256
32.167
49.607
52.452
31.4797
31.2852
23.4494
51.9472
31.0202
32.401
53.5438
23.7223
32.493
32.9204
32.1695
32.6227
52.4042
17.0589
17.0807
28.5407
38.8079
89.3531
55.414
38.5076
53.1958
28.2488
29.4604
39.827
87.9854
58.8333
38.0847
57.1107
29.2517
25.6064
39.1128
44.7646
24.7896
44.2055
24.4601
26.18
28.9929
39.3208
91.7611
58.3953
57.6477
37.6222
28.585
25.4243
39.5948
24.593
44.4691
24.3157
44.0102
25.9681
29.2835
39.2741
89.3623
57.1213
38.9145
56.5061
29.3389
50.4722
23.48
32.4947
32.9336
51.6268
32.2378
31.9379
51.587
23.6633
31.4995
32.5528
52.0841
31.3461
31.9966
17.7256
21.8495
21.58
23.8055
17.7038
21.9099
21.7184
24.045
17.6805
21.9566
21.6691
24.1195
17.6971
22.0361
21.6895
24.1098
17.7001
22.0649
21.7115
24.1828
17.6916
22.0146
21.7708
24.1955
17.6986
21.9725
21.7572
24.1048
17.6682
21.9427
21.8512
24.1418
17.6767
21.9599
21.7097
24.1599
17.664
21.9572
21.6972
24.1496
17.6742
21.9703
21.6681
24.1528
17.6743
21.9982
21.677
24.1453
17.6989
21.9639
21.7052
24.1376
17.6765
21.9358
21.7498
24.1744
17.6641
21.9526
21.7621
24.2242
17.6562
21.9161
21.7535
24.2248
17.6425
21.9173
21.7425
24.1595
21.5909
21.5445
21.7124
21.6174
23.8287
23.7835
21.6368
21.5373
21.9519
21.8433
21.8818
21.654
21.9518
23.4848
23.7665
21.4571
21.6935
21.6033
23.7229
23.5669
23.8889
21.3227
21.2679
21.7364
21.6578
23.4479
23.875
21.8577
21.676
21.9315
21.8441
21.6068
21.6864
21.9923
23.2635
23.7788
21.371
21.5895
21.6237
24.0477
23.5757
23.9255
21.3781
21.4848
21.7091
21.6368
23.6857
23.9624
21.728
21.6695
21.9326
21.9039
21.6419
21.9664
22.0579
23.4214
23.7729
21.4759
21.6091
21.7011
23.9934
23.5096
24.0167
21.5011
21.4576
21.7523
21.6689
23.7082
24.121
21.5964
21.7206
22.0001
21.8799
21.7985
21.7903
22.0461
23.3792
23.8758
21.6124
21.4481
21.8025
24.0852
23.7574
24.081
21.3961
21.5078
21.8402
21.6774
23.9104
24.0826
21.8156
21.7071
21.9673
21.9196
21.7647
21.7392
22.0027
23.4262
23.8836
21.4729
21.5342
21.7776
23.8767
23.7035
24.0764
21.6877
21.511
21.8152
21.6891
23.7882
24.0223
21.599
21.6879
21.9834
21.9465
21.6269
21.9034
22.0588
23.6024
23.9985
21.3678
21.6172
21.7694
24.0124
23.8433
24.0796
21.5826
21.4921
21.7974
21.6627
23.6792
24.0368
21.7044
21.7225
22.0242
21.9658
21.686
21.8469
22.0046
23.8378
23.9978
21.6137
21.6247
21.7271
24.0304
23.7471
24.0565
21.621
21.4977
21.8041
21.655
23.8874
24.0972
21.8205
21.6265
22.0526
22.0519
21.8681
21.8739
22.0452
23.8043
23.9719
21.5187
21.6429
21.686
24.0975
23.5847
24.1476
21.6254
21.4757
21.7744
21.6648
23.8209
24.0763
21.8519
21.9041
22.0385
21.9969
21.7074
21.871
22.0268
23.8029
23.9544
21.4681
21.6182
21.6453
24.0838
23.8234
24.1345
21.5899
21.5025
21.7838
21.6826
23.7719
24.1256
21.627
21.8619
22.0877
21.9472
21.8157
21.8884
22.0322
23.6208
23.8483
21.477
21.5114
21.673
24.082
23.6182
24.1907
21.661
21.4415
21.8087
21.6897
23.873
23.948
21.9426
21.7884
22.0456
21.9435
21.8087
21.7364
22.0365
23.4709
23.8107
21.4775
21.5092
21.6689
23.8098
23.9569
24.1452
21.6396
21.3716
21.8369
21.6645
23.7397
24.0047
21.6997
21.7572
22.0654
21.9264
21.8515
21.9014
22.0367
23.5455
23.9059
21.2784
21.4568
21.7134
23.8062
23.9438
24.151
21.4792
21.4147
21.8799
21.639
23.7505
24.045
21.9218
21.6785
22.0034
21.9353
21.6307
21.8435
22.0815
23.4091
23.9787
21.5609
21.6627
21.7146
24.0636
23.675
24.1224
21.4901
21.3058
21.8718
21.7523
23.5514
24.0708
21.866
21.6578
21.9916
21.9014
21.9562
21.8622
22.0816
23.777
23.9994
21.525
21.493
21.7257
23.8932
23.617
24.0796
21.4905
21.6252
21.8239
21.746
23.7789
24.0578
21.8301
21.7176
22.0121
21.9239
21.8939
21.8385
22.0449
23.7238
23.9186
21.5644
21.5346
21.7314
23.9114
23.6591
24.0712
21.5651
21.5492
21.763
21.7268
23.8369
24.0059
21.7829
21.7905
21.9953
21.9067
21.7947
21.7245
22.0448
23.6613
23.8746
21.4246
21.4986
21.7044
24.0895
23.5207
21.4842
21.6372
23.8134
21.8556
21.6842
21.6321
21.8231
22.0402
23.5403
23.5899
21.548
21.4052
21.7668
24.0488
101.718
281.642
101.231
287.389
413.19
413.423
106.411
287.832
98.9062
290.064
17.6149
17.7403
17.6311
17.7631
17.6446
17.67
17.6614
40.0755
95.1858
19.5194
21.4814
95.5985
19.4553
40.1912
413.478
414.686
38.6294
19.2934
88.8566
21.6204
19.2831
92.3581
38.5848
168.001
163.068
23.8691
168.168
164.582
101.778
288.532
102.063
287.878
413.524
413.503
105.905
290.901
107.048
290.737
17.6854
17.7264
17.722
17.7256
17.6771
17.6708
17.699
40.7109
96.4907
19.5562
21.5167
40.6301
96.2574
19.5262
414.558
415.161
38.605
19.4022
93.5703
21.4629
38.8272
19.3607
93.5976
169.019
166.025
24.0333
168.619
166.043
101.474
288.719
101.953
288.246
413.451
413.602
106.363
291.394
106.813
290.665
17.7323
17.7155
17.7632
17.7401
17.6957
17.6238
17.7198
40.8793
96.5982
19.6138
21.8121
40.8719
96.5346
19.5665
415.25
415.276
38.7829
19.3538
93.767
21.4734
38.383
19.2923
94.1637
169.921
167.146
24.0335
169.026
166.43
101.833
288.983
101.648
288.249
413.259
413.387
106.447
290.907
107.538
290.929
17.7318
17.6754
17.771
17.7256
17.6779
17.6206
17.7355
40.7549
96.8177
19.6032
21.61
40.6516
96.2561
19.5743
415.034
415.301
39.1272
19.329
94.6199
21.5243
39.1343
19.3702
94.4361
169.714
166.728
24.1304
168.694
166.483
101.725
289.442
101.959
288.352
413.774
413.797
106.162
291.693
106.568
291.259
17.7071
17.6635
17.7813
17.7084
17.6622
17.5986
17.713
40.6565
96.441
19.6047
21.9213
40.4616
96.4023
19.5292
415.295
415.463
39.1767
19.3922
94.8319
21.3866
39.3071
19.3704
94.5096
169.242
167.393
24.1469
167.91
166.574
102.17
288.366
102.5
288.446
413.669
413.581
106.314
291.916
107.273
290.826
17.6955
17.6445
17.7346
17.7381
17.6265
17.6127
17.6632
40.5479
96.8135
19.5605
21.8441
40.6737
96.398
19.4816
415.306
415.332
39.2032
19.3825
93.9024
21.5975
39.5132
19.2859
94.1289
169.595
167.78
24.113
168.639
166.809
101.977
289.37
102.045
288.634
413.546
413.461
106.581
291.5
106.885
290.957
17.6453
17.6745
17.6781
17.7144
17.5903
17.6567
17.6204
40.4117
96.5773
19.5368
21.6937
40.5446
96.6345
19.3958
415.066
415.55
39.223
19.3857
94.6055
21.4334
39.0983
19.295
94.5602
168.598
167.43
24.0656
168.26
166.706
101.946
289.008
102.398
288.48
413.477
413.764
106.478
291.192
107.964
291.102
17.6141
17.7172
17.6629
17.6994
17.5688
17.637
17.6283
40.8886
96.7491
19.536
21.6787
41.0187
96.805
19.4304
415.666
415.393
38.8374
19.3337
94.9374
21.5495
39.1354
19.246
94.0743
168.165
166.928
24.1322
168.187
166.58
101.858
289.157
102.808
288.524
413.692
413.685
106.631
291.697
107.016
291.013
17.6
17.6621
17.6753
17.6868
17.5674
17.6375
17.6308
40.6042
97.3426
19.5417
21.6626
40.8258
96.6155
19.4939
415.182
415.302
38.9887
19.3533
95.1436
21.4841
39.2206
19.3133
94.639
169.191
167.697
24.0909
168.201
166.766
101.333
289.243
101.568
288.505
413.664
413.846
106.311
291.461
106.955
290.903
17.6067
17.6815
17.6757
17.7198
17.5884
17.6214
17.6231
40.4285
96.8258
19.5586
21.6809
40.77
96.4395
19.4651
415.313
415.553
38.9999
19.3248
94.1255
21.5251
39.0145
19.2227
94.2705
169.48
166.895
24.088
168.891
166.57
102.315
289.182
102.188
288.615
413.72
413.639
106.853
291.664
107.117
291.038
17.6264
17.6728
17.6607
17.7226
17.5862
17.6132
17.6292
40.3584
96.8784
19.5342
21.5486
40.7971
96.8725
19.4446
415.253
415.248
38.8167
19.329
94.4481
21.3505
38.8134
19.2303
94.4091
168.663
167.809
24.1151
168.169
166.867
102.177
289.014
102.227
288.754
413.756
413.664
105.906
292.181
106.025
291.092
17.6304
17.657
17.6768
17.7195
17.5593
17.6207
17.6336
40.4816
96.8369
19.5608
21.6127
40.5459
96.7743
19.5141
414.903
415.489
38.6064
19.3101
95.1255
21.5395
38.8676
19.2636
94.5287
168.809
167.67
24.105
167.871
166.789
102.538
288.385
102.577
288.865
413.458
413.617
106.462
291.379
107.223
290.91
17.5865
17.6897
17.6821
17.7181
17.5758
17.6181
17.6324
40.8569
97.602
19.5498
21.6881
40.4918
97.3249
19.5264
415.529
415.535
38.8078
19.3107
94.0105
21.5713
38.5862
19.213
94.2213
168.149
167.012
24.0919
168.136
166.494
102.563
289.411
103.279
288.413
413.619
413.792
106.171
292.126
107.288
291.029
17.6317
17.6437
17.6783
17.718
17.5942
17.6224
17.6556
40.567
97.1697
19.5571
21.714
41.1207
97.065
19.4594
415.294
415.392
38.9819
19.3149
94.3248
21.5628
38.9179
19.246
94.5431
169.007
167.026
24.1492
168.598
166.455
101.907
289.47
102.384
288.387
413.754
413.869
105.841
292.144
106.993
291.36
17.6254
17.6553
17.7077
17.6861
17.588
17.6132
17.6469
40.5411
97.471
19.5374
21.6652
40.9292
96.8613
19.4763
415.589
415.415
39.1383
19.3428
94.5008
21.4054
39.081
19.3038
94.3758
168.323
166.903
24.1354
168.194
166.737
101.896
288.943
102.451
288.391
413.689
413.837
106.116
291.634
106.773
290.759
17.6371
17.6473
17.6857
17.6934
17.5932
17.5929
17.6492
40.5562
96.4487
19.5393
21.7092
40.5969
96.4949
19.4393
415.505
415.566
38.9628
19.3394
94.7547
21.3497
39.4103
19.2453
93.8877
169.376
167.268
24.1212
168.072
166.904
101.856
288.957
101.548
288.617
413.813
413.749
106.846
291.556
107.506
291.169
17.6389
17.6778
17.6862
17.6435
17.6391
40.402
97.0024
19.5239
21.7766
40.6606
97.1503
19.4172
415.284
415.381
39.2002
19.3603
94.7808
21.6295
39.4645
19.3147
94.8098
169.007
167.127
24.0823
168.645
166.512
101.332
287.333
287.923
101.196
38.6633
88.4065
19.3359
21.6324
19.2969
38.7242
91.4806
38.3959
92.5669
19.2591
21.4431
92.7988
19.2137
38.5501
100.032
287.954
100.356
282.5
96.5839
287.407
285.044
101.581
36.7795
21.6638
91.9961
19.3051
19.3036
38.8855
86.9268
36.5808
21.3557
92.6594
19.2101
89.0534
19.209
38.7324
164.21
165.746
23.8746
164.927
166.608
414.439
414.717
412.703
412.453
23.4601
164.097
166.279
158.766
160.198
414.691
413.324
40.3698
90.3737
19.5489
21.6937
19.5635
39.5176
94.6434
105.122
286.218
290.19
103.014
40.3159
19.514
90.4591
21.5636
19.5332
93.9524
39.3185
98.9645
289.912
106.608
287.964
38.7968
21.6866
94.2656
19.5749
19.5178
40.3826
89.4091
100.665
290.078
288.024
105.079
39.6639
21.5994
19.5454
94.0795
19.5462
92.2128
40.3562
105.234
289.505
290.125
104.355
40.1393
19.5081
96.5059
21.5492
19.4346
96.6669
40.3763
104.52
290.718
290.645
104.687
38.466
21.7839
92.439
19.5403
90.7034
19.473
39.4094
98.0839
289.973
283.622
105.76
38.8954
21.867
19.5636
95.4604
19.5451
91.2894
40.1478
99.1577
290.783
284.174
104.701
158.957
158.014
23.7176
165.35
162.764
411.059
412.643
414.308
413.874
23.527
165.507
163.38
159.761
156.829
412.768
411.423
38.2288
19.2462
91.5863
21.2446
19.3202
92.7237
38.2898
101.248
278.649
286.459
100.386
100.753
285.538
286.922
99.9817
37.7709
21.4767
19.3838
89.4613
19.3774
87.8284
37.6738
37.0377
21.529
19.2602
93.2216
19.2851
86.5572
38.3237
98.5073
287.863
280.544
101.034
94.7875
287.039
282.072
100.725
414.673
415.145
412.075
412.922
23.4497
164.151
164.669
165.353
157.129
414.811
414.277
412.757
411.794
411.56
413.219
413.223
415.125
157.727
159.366
23.8722
164.133
166.845
413.568
412.258
415.809
413.277
23.578
164.169
167.937
158.324
158.07
100.623
282.661
96.6098
287.593
38.4942
88.4337
19.2669
21.6259
38.1953
92.5996
19.2917
38.5532
89.8692
19.2157
21.5533
38.2195
92.4093
19.22
99.5102
288.182
283.27
97.5451
96.6276
287.203
282.658
100.796
36.7509
21.4826
93.1528
19.3269
90.194
19.3042
38.6734
37.1506
21.4047
92.6196
19.2966
90.2796
19.2572
38.6544
158.871
161.061
23.7378
164.805
166.039
413.703
414.826
413.293
411.232
23.522
164.926
166.612
160.116
161.089
414.917
413.711
40.3876
90.153
19.5515
21.68
38.9059
95.3044
19.5087
105.138
284.077
100.815
290.104
40.2481
19.4633
88.6019
21.7467
39.2818
19.4766
95.6701
102.407
290.936
285.178
105.676
39.5303
21.8177
95.6876
19.5837
91.7029
19.5011
40.8733
100.346
290.123
285.163
105.863
38.3479
21.751
19.551
94.2643
19.4723
90.3744
40.3189
105.563
288.582
103.292
290.708
40.1406
19.5153
91.3638
21.9524
38.9763
19.5455
95.6495
105.24
288.361
100.727
290.472
38.5349
21.8153
95.5176
19.5839
93.6888
19.5054
40.5928
101.248
291.079
284.255
106.354
38.8525
21.8787
19.5042
95.6806
19.5547
91.3237
40.4345
102.648
290.431
287.648
105.517
156.931
157.774
23.7839
167.305
164.381
412.059
413.152
415.125
413.124
23.5604
166.412
164.995
161
154.722
413.281
411.619
38.1651
19.3273
90.6805
21.4879
37.3633
19.3006
92.8406
100.746
284.814
97.4731
287.542
100.79
281.094
97.6023
287.413
36.6355
21.5434
19.3783
92.7209
19.3797
86.9379
37.3579
37.4966
21.5206
19.3293
93.4557
19.3842
91.6038
38.4812
98.4857
287.448
283.529
101.221
94.1699
287.417
282.785
101.819
413.6
414.552
412.402
413.587
23.84
165.155
162.134
162.734
163.366
414.2
415.403
413.125
412.992
412.715
413.58
414.051
415.811
160.458
165.486
23.8485
164.323
167.895
413.58
411.744
415.626
414.243
23.486
165.205
167.789
156.393
165.533
100.985
281.402
96.3284
287.744
38.5415
86.9903
19.2962
21.6777
36.9842
93.5624
19.2885
38.6337
88.3109
19.2778
21.547
37.6335
92.3244
19.2494
96.8985
288.416
282.453
100.473
96.6394
287.391
282.636
100.898
37.4049
21.5977
93.1947
19.3593
91.0212
19.2906
38.5484
37.9711
21.5503
92.4936
19.3352
89.4696
19.3109
38.7215
161.886
163.101
23.8941
165.098
167.38
414.334
415.241
413.195
412.312
23.5893
164.404
167.458
160.006
164.322
414.999
414.669
40.689
94.153
19.5536
21.8172
39.8829
95.6589
19.5158
105.652
284.28
100.328
290.763
40.8107
19.514
89.9379
21.5927
40.2591
19.4849
95.4216
99.6852
289.771
287.367
107.262
39.5843
21.8376
96.2455
19.5893
89.626
19.5066
40.4465
100.893
290.106
287.308
106.252
39.8615
21.8031
19.5671
95.5175
19.4814
87.8715
40.9809
106.051
288.045
100.848
290.489
40.5069
19.5679
91.7081
21.9773
38.9896
19.5713
95.9438
105.622
286.373
101.333
290.385
39.2572
21.7292
96.2781
19.5403
91.9294
19.5918
40.2512
102.702
290.325
286.759
105.93
38.9624
21.769
19.5324
96.5415
19.5956
89.157
40.6894
101.391
290.897
287.901
105.495
160.995
157.435
23.7506
166.995
165.046
412.192
412.723
414.752
413.995
23.4357
166.46
165.071
160.875
161.027
413.811
413.632
38.7936
19.3724
89.3412
21.4274
37.9651
19.3776
93.1117
101.779
284.542
93.5742
288.579
101.381
283.001
98.9516
287.45
36.9154
21.5599
19.3878
90.7928
19.3817
92.3784
38.8079
38.0866
21.5256
19.405
93.9255
19.3867
86.5212
39.0644
99.03
288.086
286.17
101.706
98.2524
287.612
284.047
102.186
415.429
415.401
412.357
413.589
23.6257
165.262
165.504
165.552
163.616
414.838
413.839
413.353
413.096
411.705
413.457
414.338
414.536
156.54
165.371
24.0225
165.744
167.562
413.913
412.508
415.478
415.151
23.8394
164.852
167.803
161.952
160.851
100.869
282.704
96.9734
287.173
38.6839
90.9168
19.3362
21.616
37.7276
94.1102
19.307
38.5811
85.9446
19.3037
21.5465
36.8494
93.2773
19.2762
100.131
289.113
281.818
99.5291
96.3286
287.491
282.699
101.415
37.0825
21.6774
94.3367
19.3256
90.9572
19.3941
38.7596
36.8861
21.5934
93.9708
19.2922
87.0128
19.3577
38.5833
158.81
160.543
24.0564
164.901
168.123
413.27
414.903
412.748
412.453
23.5756
165.065
167.518
160.466
164.229
414.427
413.897
40.9346
93.9912
19.5502
21.9163
38.6075
96.0245
19.5771
106.018
285.425
97.7893
290.273
40.5689
19.5395
88.8893
21.6024
39.4676
19.5517
96.218
99.3523
291.245
288.516
102.081
39.699
21.7257
95.9995
19.6024
94.5463
19.5907
40.6545
98.5303
290.238
285.775
106.18
39.66
21.6885
19.5667
96.0301
19.5503
93.3964
40.8243
105.38
287.198
100.503
290.388
40.4391
19.59
89.6318
21.6085
39.0541
19.5937
96.7303
105.294
285.008
100.629
290.796
38.5236
21.9161
95.5979
19.5969
90.2097
19.5293
39.2564
101.569
290.613
284.992
105.307
38.9397
21.9781
19.5981
95.9641
19.5391
94.3648
40.6401
100.447
290.351
286.605
105.879
161.702
161.887
23.8382
166.837
164.695
413.319
413.503
415.097
413.523
23.6355
167.365
165.204
163.414
155.474
413.157
412.658
39.0936
19.3216
88.2182
21.5372
38.1513
19.4166
93.8603
101.557
282.396
98.1534
288.702
101.999
284.525
99.6666
288.446
38.474
21.4741
19.3326
91.1016
19.3467
89.7565
39.0627
38.1762
21.5205
19.3658
93.3176
19.4195
89.7975
39.1081
99.7005
287.741
285.817
101.597
98.6889
287.884
285.849
101.932
414.933
415.076
411.941
413.552
23.6242
168.675
162.401
160.645
163.567
414.114
413.629
412.657
413.713
412.373
413.447
413.571
415.356
155.647
160.286
24.0933
166.002
167.798
413.747
412.713
415.539
413.763
23.7162
165.009
168.578
163.306
160.408
101.089
282.851
96.7514
288.224
38.6775
91.7055
19.3514
21.7055
37.6462
93.8995
19.3082
38.8164
92.1598
19.3194
21.3985
38.4098
93.3428
19.2723
97.2499
287.193
284.785
101.611
98.3095
288.193
283.695
101.629
37.4537
21.5786
93.8846
19.3701
91.0069
19.3002
38.8734
37.5523
21.5333
93.1593
19.3451
89.7463
19.3564
38.9265
162.17
158.274
24.0955
165.433
168.193
415.2
415.618
413.511
412.591
23.9216
164.657
167.816
160.159
165.595
415.476
415.12
40.5651
89.93
19.5266
21.882
39.7592
96.8214
19.4875
105.442
287.6
100.774
290.855
40.7537
19.5042
93.477
21.8022
38.7172
19.533
96.4381
101.335
290.816
284.776
103.065
39.2572
21.8826
96.5584
19.6036
89.9349
19.6011
40.7804
100.969
290.904
283.635
105.331
38.6674
21.8174
19.5673
95.5895
19.5496
91.6852
40.9786
105.244
288.641
98.4343
290.313
40.475
19.5563
89.7028
21.8919
39.3594
19.5754
96.6743
105.075
286.059
99.9436
290.749
39.6953
21.7865
96.2366
19.5419
91.5242
19.5405
39.4661
102.16
290.734
284.027
105.428
39.0173
21.926
19.4813
96.4724
19.5589
89.7141
40.3388
100.441
290.407
286.64
104.967
164.299
157.521
23.9578
167.483
165.113
412.368
413.394
414.985
413.827
23.5814
167.181
164.771
161.123
158.238
413.183
411.23
38.9977
19.4086
89.1791
21.7648
38.4024
19.4161
93.0966
101.631
281.739
98.3222
288.267
101.365
284.485
98.3326
288.689
38.3351
21.6735
19.3722
92.9798
19.3757
87.672
38.4396
37.7413
21.698
19.418
92.9121
19.413
88.6318
39.015
97.529
288.033
280.832
101.495
96.7057
288.196
280.587
101.741
415.182
415.076
413.976
413.974
23.7284
164.778
163.103
162.317
163.1
414.7
413.237
413.257
413.395
412.478
413.486
414.004
415.118
158.211
160.115
24.0681
165.718
168.436
413.743
412.26
414.619
413.088
23.6935
164.912
168.207
160.27
159.477
101.716
285.197
94.086
288.156
38.9012
90.4629
19.2639
21.7405
37.7776
93.5904
19.3498
38.6379
86.6987
19.2381
21.5983
37.8309
93.7772
19.3319
99.4774
288.984
282.3
100.929
94.771
288.133
285.539
102.101
38.376
21.7366
93.217
19.3577
89.7223
19.2998
38.6924
37.5517
21.6236
93.3099
19.3116
86.8628
19.2656
38.6826
160.587
159.994
24.0466
165.749
168.267
413.745
415.489
413.718
411.477
23.7453
165.497
167.871
157.313
159.243
414.688
413.951
40.5928
94.4887
19.5274
21.9453
39.2793
96.0689
19.5032
105.296
288.432
101.206
290.518
40.4719
19.4624
92.7797
21.805
39.3308
19.5202
96.4292
101.1
287.791
287.234
105.738
39.1845
21.9055
95.6717
19.5808
94.1964
19.4893
40.8459
100.965
290.517
288.333
105.398
39.0019
21.8367
19.5624
96.3135
19.5518
94.8278
40.649
105.137
289.229
102.147
290.98
40.1864
19.5352
93.9688
21.9614
38.7562
19.542
95.9128
104.829
283.378
99.9293
291.256
39.5756
21.8864
95.7398
19.517
90.1633
19.5089
40.1196
98.381
290.362
287.201
106.179
39.0894
21.7873
19.5275
96.4471
19.5059
89.7159
40.5681
99.9141
290.342
288.89
105.777
161.62
158.271
23.8726
167.658
165.741
411.404
412.396
414.891
413.395
23.6396
167.853
165.869
163.356
156.433
413.506
413.269
38.9498
19.3127
89.934
21.6598
37.8617
19.3958
94.0109
101.677
281.368
96.8223
288.316
101.456
285.482
97.1558
288.214
38.1518
21.5214
19.3238
90.5696
19.3645
92.1581
37.9737
37.9323
21.5174
19.4012
93.8522
19.3972
91.8515
39.0392
94.567
288.735
282.986
102.401
98.5268
288.207
281.931
102.128
414.516
415.475
412.54
413.56
23.8776
167.469
162.791
165.715
163.816
415.041
415.339
413.472
412.85
412.417
413.491
415.112
415.318
159.583
159.669
24.1156
166.094
168.513
414.138
413.253
415.542
413.168
23.745
166.178
168.344
157.004
159.77
101.493
282.545
99.0195
288.436
38.6638