/*--------------------------------*- C++ -*----------------------------------*\
| =========                 |                                                 |
| \\      /  F ield         | OpenFOAM: The Open Source CFD Toolbox           |
|  \\    /   O peration     | Version:  2206                                  |
|   \\  /    A nd           | Website:  www.openfoam.com                      |
|    \\/     M anipulation  |                                                 |
\*---------------------------------------------------------------------------*/
FoamFile
{
    version     2.0;
    format      ascii;
    arch        "LSB;label=32;scalar=64";
    class       volVectorField;
    location    "10";
    object      U;
}
// * * * * * * * * * * * * * * * * * * * * * * * * * * * * * * * * * * * * * //

dimensions      [0 1 -1 0 0 0 0];

internalField   nonuniform List<vector> 
66616
(
(0.00071966 0.000719497 0.109813)
(-0.00133165 0.000707381 0.109122)
(0.000704994 -0.00133244 0.109115)
(-0.00174661 -0.00176118 0.108443)
(0.000329867 0.000324148 0.113912)
(-0.00080157 0.000503763 0.113535)
(0.00049914 -0.000811168 0.113571)
(-0.00102209 -0.00104393 0.111544)
(6.29143e-05 6.18152e-05 0.115372)
(-0.000248719 0.000165148 0.114042)
(0.000159746 -0.000261442 0.11409)
(-0.000424953 -0.000440958 0.110816)
(6.60903e-06 9.68018e-06 0.115651)
(-3.17548e-05 2.35212e-05 0.114027)
(2.04704e-05 -3.69527e-05 0.11406)
(-0.000319783 -0.000327603 0.110702)
(2.0327e-07 2.02935e-06 0.115676)
(-3.98718e-06 3.90715e-06 0.11402)
(3.32667e-06 -4.9346e-06 0.114044)
(-0.00031237 -0.000317654 0.110696)
(-8.02785e-07 -1.15929e-06 0.115677)
(4.55367e-08 7.30379e-07 0.114021)
(1.81853e-06 -1.4287e-06 0.114041)
(-0.000311749 -0.000316673 0.110697)
(-4.34855e-07 -2.47434e-07 0.11568)
(-4.30239e-07 9.78183e-07 0.114025)
(2.7564e-06 -2.64722e-06 0.114045)
(-0.000313787 -0.000318625 0.110699)
(-7.53309e-07 -4.29027e-07 0.115681)
(9.72091e-08 5.40945e-07 0.114025)
(2.555e-06 -1.52411e-06 0.114045)
(-0.000313117 -0.000317112 0.110702)
(-1.28145e-06 -8.12983e-07 0.115678)
(1.04845e-06 1.49502e-07 0.114019)
(1.54722e-06 -1.18693e-06 0.114042)
(-0.000311771 -0.000316826 0.110699)
(-2.08898e-06 -4.67852e-07 0.115679)
(8.67765e-07 4.43181e-07 0.114019)
(6.70872e-07 5.10041e-08 0.114042)
(-0.000312351 -0.000316368 0.110697)
(5.6469e-07 -4.41977e-07 0.115685)
(8.93427e-07 -2.00416e-06 0.11403)
(2.80174e-07 -7.13833e-08 0.114046)
(-0.000312645 -0.000316641 0.110699)
(4.5808e-06 -3.809e-06 0.115694)
(-1.3374e-06 -3.12261e-06 0.114064)
(3.60043e-06 1.11369e-08 0.114048)
(-0.000312984 -0.00031602 0.11069)
(0.000592601 0.000591382 0.107973)
(0.000876584 0.000812651 0.108186)
(-0.000875946 0.000812457 0.108186)
(-0.00059138 0.000589955 0.107974)
(0.000820311 0.00088403 0.108176)
(0.000812112 -0.000876081 0.108186)
(0.000565219 0.000567249 0.108778)
(-0.000565677 0.000568031 0.108773)
(0.000567046 -0.000567331 0.108776)
(-0.000566677 -0.000567189 0.108778)
(-0.000819669 0.000883031 0.108179)
(-0.000811849 -0.000874786 0.108187)
(0.000590479 -0.000589986 0.107977)
(0.00088358 -0.000819938 0.108179)
(-0.000883364 -0.000819197 0.108182)
(-0.000590092 -0.000589163 0.107971)
(0.00175964 0.00174962 0.108448)
(0.000456514 0.000451328 0.111536)
(0.000715032 0.00133442 0.109117)
(-0.000714054 0.00133465 0.109115)
(0.000585686 0.00097742 0.113046)
(-0.000585976 0.00097736 0.113047)
(-0.00175879 0.00174613 0.108445)
(-0.000457 0.000454365 0.111544)
(0.00133059 0.000707012 0.109124)
(0.00133297 -0.000714979 0.109122)
(0.000974497 0.000578418 0.113012)
(0.000973699 -0.000587228 0.113015)
(-0.00133256 -0.000715557 0.109121)
(-0.000976138 0.000578704 0.113015)
(-0.000973606 -0.000586734 0.113015)
(0.00174435 -0.00176137 0.108446)
(0.000451224 -0.000457648 0.111541)
(-0.000704225 -0.00133124 0.109118)
(0.000576498 -0.000980093 0.113044)
(-0.000576741 -0.000980146 0.113046)
(-0.000449649 -0.000458187 0.111541)
(0.00102803 0.00103525 0.111542)
(-0.000180762 -0.000179372 0.110868)
(0.00050546 0.000809408 0.113575)
(-0.000506026 0.000810446 0.113575)
(0.000239042 0.000382046 0.114061)
(-0.00023794 0.000382341 0.114064)
(-0.00102743 0.00103983 0.111549)
(0.000182114 -0.000179025 0.110871)
(0.000798662 0.000502348 0.113533)
(0.0008011 -0.000509998 0.113537)
(0.000366881 0.000239468 0.114007)
(0.000369497 -0.00024235 0.114016)
(-0.000800767 -0.000509002 0.113539)
(-0.000364526 0.000241127 0.11401)
(-0.000367404 -0.00024327 0.114016)
(0.00102436 -0.0010424 0.111545)
(-0.00018326 0.000178635 0.110867)
(-0.000497756 -0.000810219 0.113576)
(0.000236077 -0.000378737 0.114061)
(-0.000234682 -0.000378927 0.114058)
(0.000183934 0.000178344 0.110866)
(0.000428062 0.000438122 0.110817)
(-0.000310934 -0.000313031 0.110719)
(0.000162748 0.000263939 0.114091)
(-0.000161596 0.000264774 0.114093)
(3.55468e-05 6.37287e-05 0.114077)
(-3.50322e-05 6.4849e-05 0.114077)
(-0.00042625 0.000440052 0.110817)
(0.00031111 -0.000312835 0.110721)
(0.000250489 0.000164543 0.114037)
(0.000253467 -0.000165821 0.114047)
(5.77892e-05 3.76496e-05 0.114034)
(5.83688e-05 -3.81858e-05 0.114043)
(-0.00025125 -0.000166662 0.114048)
(-5.52085e-05 3.80133e-05 0.114035)
(-5.72879e-05 -3.91875e-05 0.114047)
(0.000426052 -0.000439808 0.110814)
(-0.000310304 0.000313834 0.11072)
(-0.000158171 -0.000261089 0.114088)
(3.45151e-05 -6.25271e-05 0.114073)
(-3.39264e-05 -6.33262e-05 0.114071)
(0.000310807 0.000314231 0.110717)
(0.000320748 0.000327062 0.110703)
(-0.000319861 -0.00032389 0.110711)
(2.13808e-05 3.81972e-05 0.114063)
(-2.04602e-05 3.88677e-05 0.114065)
(6.04565e-06 1.05095e-05 0.114049)
(-6.43769e-06 1.10468e-05 0.114055)
(-0.00031988 0.000328028 0.110702)
(0.000319224 -0.000324385 0.110716)
(3.33525e-05 2.3004e-05 0.114024)
(3.4022e-05 -2.31955e-05 0.114033)
(7.16625e-06 6.47134e-06 0.114021)
(6.9088e-06 -5.65056e-06 0.114028)
(-3.22671e-05 -2.3248e-05 0.114039)
(-6.54381e-06 5.90145e-06 0.114018)
(-6.12667e-06 -5.39273e-06 0.11403)
(0.000320884 -0.000326555 0.110701)
(-0.000319851 0.000325554 0.110709)
(-1.90553e-05 -3.67068e-05 0.11406)
(5.38941e-06 -8.34368e-06 0.114045)
(-5.47627e-06 -8.37317e-06 0.114045)
(0.000319501 0.000326444 0.110707)
(0.000314111 0.000318206 0.110698)
(-0.000321504 -0.000327387 0.110708)
(4.06334e-06 6.49799e-06 0.114047)
(-4.6637e-06 6.68248e-06 0.114053)
(3.12728e-06 2.47998e-06 0.114047)
(-2.64329e-06 2.44086e-06 0.114056)
(-0.000314781 0.000320123 0.110702)
(0.000322541 -0.000328205 0.110713)
(4.10785e-06 3.98869e-06 0.11402)
(3.31724e-06 -3.36496e-06 0.114025)
(6.21627e-07 8.47106e-07 0.11402)
(6.04366e-07 -1.62967e-06 0.114028)
(-2.87517e-06 -2.89156e-06 0.114028)
(3.00831e-07 7.58347e-07 0.114022)
(9.96884e-08 -1.48966e-06 0.114028)
(0.000313351 -0.00031771 0.110695)
(-0.000321736 0.000327455 0.110708)
(-3.23377e-06 -4.44888e-06 0.114044)
(2.22473e-06 -1.50918e-06 0.114041)
(-1.86773e-06 -1.46155e-06 0.11404)
(0.000320941 0.000327385 0.110709)
(0.000312561 0.00031587 0.110695)
(-0.000319955 -0.000325304 0.110717)
(2.96055e-06 2.0913e-06 0.114045)
(-1.94912e-06 1.31269e-06 0.114055)
(2.83382e-06 3.07317e-06 0.11405)
(-2.49825e-06 2.76906e-06 0.114058)
(-0.000312163 0.000317336 0.110698)
(0.000321541 -0.000326759 0.110712)
(-2.7902e-07 5.09203e-07 0.114018)
(1.12902e-07 -7.00701e-07 0.114027)
(1.60102e-06 8.83662e-07 0.114021)
(1.34843e-06 -1.1438e-06 0.11403)
(2.24391e-07 -1.047e-06 0.114027)
(7.96069e-08 9.88744e-07 0.114024)
(-1.12659e-06 -1.80824e-06 0.114031)
(0.000312258 -0.000315662 0.110693)
(-0.000319747 0.000326322 0.110711)
(-1.53951e-06 -7.3327e-07 0.114039)
(2.57175e-06 -2.04537e-06 0.114043)
(-2.64252e-06 -2.00446e-06 0.114041)
(0.000319685 0.000326671 0.11071)
(0.000313705 0.00031705 0.110705)
(-0.000320465 -0.00032578 0.110718)
(2.99932e-06 3.00776e-06 0.114049)
(-2.58643e-06 2.9017e-06 0.114056)
(3.13494e-06 2.39632e-06 0.114054)
(-3.18957e-06 1.18596e-06 0.114057)
(-0.000312397 0.000318084 0.110699)
(0.000319601 -0.000326 0.110716)
(1.48409e-06 1.21938e-06 0.114021)
(1.8278e-06 -1.67414e-06 0.114029)
(1.15939e-06 1.52993e-06 0.114026)
(4.98611e-07 -1.78035e-06 0.114032)
(-1.05023e-06 -1.69874e-06 0.11403)
(-5.12034e-07 1.29442e-06 0.114026)
(-1.24272e-06 -1.77133e-06 0.114033)
(0.000313873 -0.000317045 0.110699)
(-0.000320271 0.000326018 0.110712)
(-2.64291e-06 -2.41248e-06 0.114041)
(3.27018e-06 -2.57128e-06 0.114046)
(-3.25593e-06 -2.2312e-06 0.114045)
(0.000319658 0.000327272 0.110714)
(0.000311638 0.000315192 0.110705)
(-0.000321329 -0.00032683 0.110714)
(2.76403e-06 1.92297e-06 0.114053)
(-2.84647e-06 1.29548e-06 0.114054)
(2.78083e-06 2.05756e-06 0.11405)
(-1.92149e-06 1.84672e-06 0.114051)
(-0.000311743 0.000316006 0.110701)
(0.000320887 -0.00032604 0.110717)
(7.78992e-08 1.09748e-06 0.114025)
(2.47657e-07 -1.51933e-06 0.11403)
(-1.67522e-07 4.2933e-07 0.114024)
(-2.81739e-07 -4.0202e-07 0.114027)
(-5.22288e-07 -1.0174e-06 0.114033)
(7.70979e-07 2.61777e-07 0.114022)
(5.55191e-07 -3.93891e-07 0.11403)
(0.000312074 -0.000315872 0.110697)
(-0.000320541 0.000326952 0.11071)
(-2.38617e-06 -1.4445e-06 0.114046)
(2.51239e-06 -1.55979e-06 0.114042)
(-1.83779e-06 -9.66265e-07 0.114043)
(0.000321787 0.000328837 0.110711)
(0.000312241 0.000315297 0.110701)
(-0.000321464 -0.000326629 0.110709)
(1.87934e-06 1.27551e-06 0.114049)
(-1.22367e-06 1.00377e-06 0.114049)
(3.20108e-06 1.79587e-06 0.114046)
(-3.99756e-06 2.85136e-06 0.114047)
(-0.000309652 0.000315699 0.110703)
(0.000319661 -0.000326203 0.110717)
(-7.49044e-07 1.71788e-07 0.114022)
(-4.41598e-07 -3.05018e-07 0.114025)
(5.23304e-07 6.27978e-07 0.114019)
(1.1884e-06 -1.38755e-06 0.114021)
(6.53136e-07 -3.97628e-07 0.114029)
(-7.29339e-07 1.18355e-06 0.114015)
(-8.61736e-07 -1.59433e-06 0.114026)
(0.000311895 -0.00031513 0.110697)
(-0.000320022 0.0003265 0.11071)
(-1.12239e-06 -1.02873e-06 0.114043)
(3.41854e-06 -1.443e-06 0.114036)
(-3.82952e-06 -2.08094e-06 0.114039)
(0.000320676 0.000328366 0.110708)
(0.000311229 0.00031497 0.110696)
(-0.000321036 -0.000325413 0.110715)
(6.30169e-07 1.09373e-07 0.114049)
(-1.24608e-06 2.41765e-07 0.11405)
(4.11607e-06 4.54674e-06 0.114043)
(-4.24196e-06 3.55655e-06 0.114042)
(-0.000311297 0.0003154 0.110701)
(0.000320587 -0.000325691 0.110717)
(-1.95123e-06 -4.10158e-07 0.11402)
(-1.34862e-06 7.07724e-08 0.114024)
(1.80136e-06 2.80413e-06 0.11401)
(1.77982e-06 -2.33976e-06 0.114011)
(1.38711e-06 -5.31531e-07 0.11403)
(-1.52693e-06 1.96515e-06 0.114008)
(-1.92013e-06 -2.39127e-06 0.114016)
(0.000311206 -0.00031464 0.110696)
(-0.000320132 0.000326302 0.110713)
(-6.47174e-07 1.82686e-07 0.114045)
(3.53746e-06 -2.877e-06 0.114032)
(-3.99831e-06 -2.14041e-06 0.114035)
(0.00032061 0.000327885 0.110712)
(0.000312049 0.000315901 0.1107)
(-0.000320696 -0.000324715 0.110714)
(7.68142e-07 1.0399e-06 0.114058)
(-9.96575e-07 1.24635e-06 0.114056)
(3.41473e-06 3.79094e-06 0.114042)
(-3.87732e-06 3.37028e-06 0.114041)
(-0.000311322 0.000316743 0.110702)
(0.000320476 -0.00032576 0.110716)
(-8.42546e-07 -1.51303e-06 0.114033)
(-3.60145e-07 2.16933e-06 0.114037)
(2.51382e-06 5.49011e-06 0.113979)
(2.3332e-06 -6.38802e-06 0.113983)
(2.60671e-08 2.01745e-06 0.11404)
(-8.78152e-07 5.1846e-06 0.113984)
(-1.12073e-06 -5.23222e-06 0.113986)
(0.000311399 -0.000314105 0.1107)
(-0.000319937 0.00032388 0.110715)
(-3.61627e-07 -4.00979e-07 0.114049)
(3.00582e-06 -3.04505e-06 0.114031)
(-3.42052e-06 -2.33273e-06 0.114037)
(0.000320968 0.000326818 0.110714)
(0.000313894 0.000315204 0.110691)
(3.09262e-06 1.98158e-07 0.114062)
(-3.21783e-06 8.83325e-07 0.114062)
(-0.000312324 0.000315815 0.110691)
(1.00417e-06 -3.93009e-06 0.114071)
(1.8706e-06 3.14643e-06 0.114076)
(-1.28436e-06 3.03194e-06 0.114078)
(0.000313759 -0.000314728 0.110689)
(-2.65531e-06 1.40165e-07 0.114047)
(8.30596e-06 8.14343e-06 0.109088)
(0.000196137 0.000197159 0.107723)
(1.06321e-05 0.000174026 0.108431)
(0.000175372 1.07629e-05 0.108431)
(-0.000301199 3.02433e-05 0.105685)
(-0.000149199 0.000187817 0.107282)
(-0.000456319 0.000175748 0.102559)
(-0.000196994 5.11145e-06 0.108066)
(2.9934e-05 -0.000301422 0.105676)
(0.000188097 -0.000149234 0.10728)
(5.10554e-06 -0.000196803 0.108064)
(0.000172192 -0.000461468 0.102561)
(-0.000121959 -0.00012241 0.106806)
(-0.000480699 -0.000366533 0.101086)
(-0.000366418 -0.000479905 0.101089)
(0.000120311 0.00210582 0.110301)
(0.00121496 0.00198357 0.100112)
(4.2002e-05 0.00230463 0.106989)
(0.000118724 0.00178346 0.108087)
(-0.00140647 0.00266693 0.103997)
(0.000118268 0.00127747 0.103347)
(0.00210341 0.000121516 0.110291)
(0.00199153 0.00121464 0.100144)
(0.00230437 4.35974e-05 0.106996)
(0.00178713 0.000122973 0.108095)
(-0.000720222 0.0007201 0.109811)
(0.00071961 -0.00071887 0.109813)
(-0.000719868 -0.000719059 0.109814)
(0.000482205 0.000473935 0.113201)
(-0.000482608 0.000473792 0.1132)
(0.00047212 -0.000482154 0.1132)
(-0.000472604 -0.000481507 0.113201)
(-0.00177271 9.19182e-05 0.110486)
(-0.00247497 0.00146068 0.106886)
(-0.0012303 0.000290725 0.109702)
(-0.00126374 0.000645405 0.110685)
(-0.00214488 0.000140736 0.108072)
(-0.00164371 0.000554186 0.109643)
(-0.00123684 0.000322038 0.111074)
(0.00266282 -0.00141657 0.103983)
(0.00127657 0.000114589 0.103324)
(9.00283e-05 -0.00176945 0.110486)
(0.000287557 -0.00122581 0.10968)
(0.00146086 -0.00247428 0.106871)
(0.000645875 -0.00126456 0.110689)
(0.000140525 -0.00214714 0.108064)
(0.000323318 -0.00124236 0.111092)
(0.000553715 -0.00164225 0.109648)
(-0.00278084 -0.00176173 0.106136)
(-0.00176002 -0.00278171 0.106136)
(-0.000709452 -0.000716642 0.11035)
(-0.00171361 -0.000796404 0.109053)
(-0.000794816 -0.00171706 0.10906)
(-6.49027e-06 -4.6095e-05 0.108951)
(-6.93534e-05 -0.000171201 0.106622)
(-1.46775e-05 0.000475807 0.110031)
(-9.82727e-05 -0.00026717 0.105459)
(7.25301e-05 -0.000131363 0.100357)
(9.12679e-05 -0.00016053 0.100243)
(-4.61306e-05 -7.3492e-06 0.108898)
(-0.000175827 -6.47453e-05 0.10655)
(0.000473339 -1.58045e-05 0.109991)
(-0.000272368 -9.06243e-05 0.105374)
(-0.000329407 0.000323803 0.113915)
(0.000322147 -0.0003301 0.113915)
(-0.000321534 -0.000329367 0.113914)
(9.84415e-05 9.53164e-05 0.115162)
(-9.63175e-05 9.58214e-05 0.115164)
(9.38949e-05 -9.83551e-05 0.115163)
(-9.25111e-05 -9.91403e-05 0.115163)
(-0.000106784 -1.36046e-05 0.109705)
(-0.000403691 0.000203511 0.109863)
(-0.000852801 0.000156547 0.113974)
(-0.000648321 0.000421621 0.113801)
(-0.000532112 -1.34247e-05 0.110645)
(-8.9678e-05 -2.24196e-05 0.10903)
(-0.000701865 0.000115131 0.11432)
(-0.000136345 6.50261e-05 0.10029)
(-0.000162958 8.02511e-05 0.100154)
(-1.21018e-05 -0.000107341 0.109754)
(0.000159678 -0.000863841 0.114046)
(0.000199119 -0.000412281 0.109912)
(0.000416973 -0.00066204 0.113846)
(-9.59267e-06 -0.000542543 0.110665)
(0.000118624 -0.000720705 0.114407)
(-3.07802e-05 -9.44633e-05 0.109073)
(-0.000295592 -0.000349555 0.108841)
(-0.000340983 -0.000295989 0.108883)
(-3.93362e-05 -5.08186e-05 0.111195)
(-1.41673e-05 -2.95269e-05 0.107963)
(-1.84784e-05 -1.9959e-05 0.107998)
(-7.933e-07 -6.26758e-05 0.10813)
(1.7568e-06 6.56308e-05 0.104797)
(-1.52096e-06 0.000109249 0.108249)
(-1.40812e-05 -4.64024e-05 0.104727)
(-8.76593e-06 4.00665e-05 0.100085)
(1.57502e-05 -1.71866e-05 0.100078)
(-6.17098e-05 -4.09503e-07 0.108083)
(6.64084e-05 7.59841e-06 0.104711)
(0.000111646 -1.27075e-06 0.108208)
(-4.80825e-05 -1.20511e-05 0.104642)
(-6.09385e-05 6.25018e-05 0.115371)
(5.98e-05 -6.42363e-05 0.11537)
(-5.83901e-05 -6.53606e-05 0.115368)
(1.19282e-05 1.48883e-05 0.115626)
(-1.05578e-05 1.54184e-05 0.115627)
(1.09802e-05 -1.54975e-05 0.115627)
(-8.95452e-06 -1.59593e-05 0.11563)
(2.40637e-05 -1.4009e-06 0.108822)
(-0.000140809 5.55735e-05 0.10842)
(-0.00028469 4.14475e-05 0.114703)
(-0.000159635 0.00010709 0.114051)
(-0.000169023 -2.15754e-07 0.108974)
(1.38061e-05 -3.64541e-05 0.108302)
(-0.000185561 2.8543e-05 0.114727)
(3.82301e-05 -1.35783e-05 0.0999919)
(-1.93037e-05 1.48021e-05 0.0999836)
(-1.62153e-06 2.56362e-05 0.10884)
(4.25379e-05 -0.000305663 0.1148)
(4.74054e-05 -0.000140121 0.108447)
(0.000101641 -0.000170508 0.114096)
(-1.01652e-06 -0.000168153 0.108987)
(2.83893e-05 -0.000204135 0.114816)
(-3.86745e-05 1.13212e-05 0.108331)
(-6.57717e-05 -5.57634e-05 0.107419)
(-4.74508e-05 -6.7138e-05 0.10745)
(0.000278452 0.000278467 0.110753)
(6.87179e-06 2.90311e-05 0.107321)
(3.27639e-05 3.39298e-06 0.10736)
(-1.94482e-08 -7.86234e-05 0.108045)
(1.19567e-05 6.60199e-05 0.104643)
(-7.53706e-07 9.01409e-05 0.108049)
(-1.06783e-05 -5.70514e-05 0.104665)
(-1.45775e-05 3.26316e-05 0.0999899)
(1.12373e-05 -2.5408e-05 0.10002)
(-8.05684e-05 6.00999e-07 0.108004)
(6.84517e-05 1.357e-05 0.10456)
(9.15156e-05 2.41795e-07 0.108018)
(-5.91913e-05 -1.10975e-05 0.10458)
(-5.14761e-06 9.69663e-06 0.11565)
(5.89432e-06 -9.90759e-06 0.115649)
(-4.18959e-06 -1.00189e-05 0.115652)
(7.57539e-07 3.27985e-06 0.115673)
(-7.79156e-07 3.21665e-06 0.115674)
(8.42957e-07 -2.51727e-06 0.115673)
(-1.2046e-06 -2.85715e-06 0.115676)
(6.91519e-05 -1.27098e-07 0.108742)
(-7.01099e-05 4.65982e-05 0.108249)
(-3.88243e-05 6.82644e-06 0.114722)
(-1.82111e-05 1.46425e-05 0.114022)
(-8.96674e-05 1.04558e-06 0.108762)
(5.2786e-05 -4.08221e-05 0.108237)
(-2.12342e-05 5.09811e-06 0.114717)
(3.3412e-05 -1.64337e-05 0.0999062)
(-2.72664e-05 1.2716e-05 0.0999352)
(-1.03078e-06 6.98209e-05 0.108752)
(5.64423e-06 -4.81591e-05 0.114785)
(4.50889e-05 -7.01367e-05 0.108262)
(1.30595e-05 -2.2439e-05 0.114053)
(9.66284e-07 -9.20232e-05 0.108758)
(3.5804e-06 -2.85301e-05 0.114773)
(-4.03129e-05 5.06758e-05 0.108258)
(-3.35178e-05 -4.23607e-05 0.10726)
(-4.09495e-05 -3.3571e-05 0.107294)
(0.000317277 0.000322491 0.110708)
(2.61303e-05 3.61868e-05 0.107255)
(3.54023e-05 2.34312e-05 0.107291)
(-1.12383e-07 -8.30808e-05 0.108044)
(1.22971e-05 6.34932e-05 0.104629)
(1.07866e-06 8.45538e-05 0.10804)
(-1.2635e-05 -6.24963e-05 0.104661)
(-1.64655e-05 2.9447e-05 0.0999651)
(1.44465e-05 -3.03755e-05 0.100015)
(-8.31549e-05 -8.62908e-07 0.108003)
(6.45461e-05 1.41075e-05 0.104545)
(8.48464e-05 1.32762e-06 0.108007)
(-6.3925e-05 -1.34666e-05 0.104574)
(1.71439e-07 1.59276e-06 0.115676)
(2.28571e-08 -1.35643e-06 0.115675)
(-1.32276e-07 -1.4439e-06 0.115677)
(-6.84654e-07 -7.284e-07 0.115676)
(1.883e-06 -1.27446e-06 0.115679)
(-1.4e-06 7.32134e-07 0.115678)
(1.32253e-06 5.23426e-07 0.115677)
(7.53893e-05 -2.39583e-06 0.108739)
(-6.25236e-05 4.35116e-05 0.108238)
(-2.80473e-06 -3.55228e-07 0.114714)
(-2.94326e-06 3.04812e-06 0.114021)
(-7.97683e-05 1.20358e-06 0.108751)
(5.94883e-05 -4.50727e-05 0.108234)
(-7.7657e-07 -7.69846e-07 0.114713)
(2.89378e-05 -1.6205e-05 0.0998927)
(-2.90081e-05 1.48526e-05 0.0999323)
(-2.27804e-06 7.64196e-05 0.108748)
(-6.90496e-07 -6.48355e-06 0.114756)
(4.26571e-05 -6.11545e-05 0.108254)
(3.14125e-06 -4.23578e-06 0.114043)
(1.03832e-06 -8.03577e-05 0.108747)
(-5.99266e-07 -5.04359e-06 0.114754)
(-4.49391e-05 5.69586e-05 0.108261)
(-2.87552e-05 -3.88961e-05 0.107252)
(-3.83644e-05 -2.81784e-05 0.107283)
(0.000320077 0.00032659 0.110708)
(3.04214e-05 3.76577e-05 0.107257)
(3.77995e-05 2.71213e-05 0.107292)
(-6.62798e-07 -8.11295e-05 0.108045)
(1.13162e-05 6.13511e-05 0.104631)
(3.06166e-07 8.14142e-05 0.108042)
(-1.42517e-05 -5.85077e-05 0.10466)
(-1.42167e-05 3.05238e-05 0.0999774)
(1.61995e-05 -2.81488e-05 0.10002)
(-8.10034e-05 -1.01733e-06 0.108002)
(6.29873e-05 1.31829e-05 0.104547)
(8.23478e-05 1.99853e-07 0.108007)
(-6.03863e-05 -1.55773e-05 0.104578)
(1.8565e-06 -1.34585e-06 0.115678)
(-1.23956e-06 1.26428e-06 0.115676)
(1.10695e-06 6.5736e-07 0.115676)
(-4.50879e-07 -4.11237e-07 0.115677)
(1.25579e-06 -4.84958e-07 0.115679)
(-2.78941e-07 5.3802e-07 0.115677)
(6.25795e-07 2.99866e-07 0.115676)
(7.40136e-05 -1.52759e-06 0.10874)
(-5.96912e-05 4.22018e-05 0.108239)
(2.22227e-06 -1.79584e-06 0.114711)
(2.01421e-07 1.06243e-06 0.114022)
(-7.60977e-05 5.41412e-07 0.108753)
(5.87765e-05 -4.53546e-05 0.108237)
(2.31379e-06 -9.57156e-07 0.114711)
(3.0012e-05 -1.50904e-05 0.0999031)
(-2.76953e-05 1.7281e-05 0.0999364)
(-1.72659e-06 7.60603e-05 0.108752)
(-1.92416e-06 -1.24697e-06 0.114749)
(4.21517e-05 -5.80342e-05 0.108256)
(2.37638e-06 -1.43353e-06 0.114041)
(6.46015e-07 -7.69361e-05 0.108747)
(-1.28255e-06 -8.26383e-07 0.114748)
(-4.46256e-05 5.70539e-05 0.108258)
(-2.84293e-05 -3.77293e-05 0.107256)
(-3.64847e-05 -2.69e-05 0.107287)
(0.000319571 0.000326838 0.110708)
(2.96081e-05 3.86397e-05 0.107257)
(3.80778e-05 2.72742e-05 0.107294)
(3.15159e-07 -8.18203e-05 0.108044)
(1.23956e-05 6.15146e-05 0.104634)
(5.61117e-07 8.30926e-05 0.10804)
(-1.14373e-05 -5.99665e-05 0.104662)
(-1.42228e-05 2.87922e-05 0.0999728)
(1.35714e-05 -2.76236e-05 0.100022)
(-8.26032e-05 -3.17644e-07 0.108002)
(6.29153e-05 1.29577e-05 0.104551)
(8.42087e-05 4.63237e-07 0.108006)
(-6.12812e-05 -1.26994e-05 0.104577)
(1.2114e-06 -3.77178e-07 0.115678)
(-1.60251e-07 5.07017e-07 0.115676)
(4.68427e-07 1.66248e-07 0.115675)
(-3.32852e-07 -2.24475e-07 0.115682)
(5.47965e-07 -2.27197e-07 0.115681)
(-5.48371e-08 2.52752e-07 0.11568)
(1.57675e-07 4.97472e-07 0.115679)
(7.49395e-05 -2.71412e-06 0.108741)
(-6.01632e-05 4.32112e-05 0.108245)
(1.08458e-06 -1.58979e-06 0.114714)
(-9.36804e-08 9.0999e-07 0.114026)
(-7.7038e-05 1.22573e-07 0.108754)
(5.9312e-05 -4.48168e-05 0.108241)
(1.52578e-06 -8.10966e-07 0.114715)
(2.84956e-05 -1.61788e-05 0.0998989)
(-2.72651e-05 1.274e-05 0.0999365)
(-1.93725e-06 7.69187e-05 0.10875)
(-1.30917e-06 -2.57271e-06 0.11475)
(4.35607e-05 -5.97173e-05 0.108259)
(3.0721e-06 -2.71897e-06 0.114045)
(9.99498e-07 -7.84364e-05 0.108749)
(-5.91435e-07 -2.15836e-06 0.114752)
(-4.34918e-05 5.62344e-05 0.108264)
(-2.85803e-05 -3.98142e-05 0.107254)
(-3.90539e-05 -2.75984e-05 0.107292)
(0.000319126 0.000326073 0.110711)
(2.92542e-05 3.64805e-05 0.107259)
(3.68907e-05 2.66883e-05 0.107297)
(-1.09019e-06 -8.35022e-05 0.108049)
(1.34875e-05 6.1342e-05 0.104627)
(1.23021e-07 8.06441e-05 0.108045)
(-1.36842e-05 -6.23778e-05 0.104659)
(-1.62052e-05 2.6931e-05 0.0999811)
(1.57984e-05 -3.00822e-05 0.100034)
(-8.38314e-05 -7.83823e-07 0.108011)
(6.19359e-05 1.52751e-05 0.104552)
(8.10789e-05 2.75579e-07 0.108013)
(-6.36359e-05 -1.44201e-05 0.104579)
(6.59645e-07 -4.38734e-07 0.115679)
(-3.52285e-07 5.83713e-07 0.115676)
(4.50566e-07 8.49462e-07 0.115679)
(-6.17873e-07 -6.72991e-07 0.115679)
(9.70295e-07 -7.06448e-07 0.115677)
(-5.20532e-07 8.29385e-07 0.115675)
(8.80498e-07 1.1905e-06 0.115677)
(7.53937e-05 -1.49878e-06 0.108743)
(-5.94695e-05 4.37017e-05 0.108245)
(1.94017e-06 -1.1095e-06 0.114715)
(2.7371e-08 7.49774e-07 0.114025)
(-7.57615e-05 1.28939e-06 0.108758)
(5.99354e-05 -4.49476e-05 0.108241)
(2.25101e-06 -8.8157e-07 0.114715)
(2.60854e-05 -1.6698e-05 0.0998922)
(-3.10014e-05 1.68077e-05 0.0999392)
(-1.87373e-06 7.7939e-05 0.108751)
(-1.07622e-06 -1.11038e-06 0.114753)
(4.32631e-05 -5.82162e-05 0.10826)
(2.28131e-06 -1.24714e-06 0.114045)
(1.36526e-06 -7.68821e-05 0.108751)
(-1.02609e-06 -1.02667e-06 0.114754)
(-4.50169e-05 5.7519e-05 0.108262)
(-2.94397e-05 -3.91282e-05 0.107258)
(-3.85765e-05 -2.63959e-05 0.107292)
(0.00032053 0.000327582 0.110711)
(3.08873e-05 3.95151e-05 0.10726)
(3.96717e-05 2.87307e-05 0.107296)
(-4.57087e-07 -8.18346e-05 0.10804)
(1.12113e-05 5.94428e-05 0.104632)
(-2.98429e-07 8.10117e-05 0.10804)
(-1.48421e-05 -6.07828e-05 0.104667)
(-1.42969e-05 3.06369e-05 0.0999791)
(1.62893e-05 -2.95894e-05 0.100025)
(-8.30121e-05 -7.15252e-07 0.107998)
(6.15489e-05 1.27925e-05 0.104556)
(8.15067e-05 -7.5624e-08 0.108008)
(-6.12982e-05 -1.50238e-05 0.104579)
(1.58283e-06 -7.18907e-07 0.115675)
(-1.31278e-06 1.12097e-06 0.115674)
(1.27541e-06 7.85762e-07 0.115675)
(1.43442e-07 -1.65294e-06 0.115675)
(2.13809e-07 -1.5683e-06 0.115672)
(2.23863e-07 1.68398e-06 0.115671)
(-5.52761e-08 1.73421e-06 0.115673)
(7.50987e-05 -2.25224e-06 0.108742)
(-5.91321e-05 4.25187e-05 0.108246)
(2.3457e-06 -1.4689e-06 0.114711)
(1.84012e-07 9.12534e-07 0.114018)
(-7.48252e-05 -1.07841e-07 0.108755)
(5.99055e-05 -4.41906e-05 0.10824)
(2.39502e-06 -7.50916e-07 0.114709)
(2.8575e-05 -1.58926e-05 0.0999057)
(-2.86161e-05 1.5483e-05 0.0999367)
(-2.11969e-06 7.69902e-05 0.108747)
(-1.78288e-06 -7.59978e-07 0.114752)
(4.25014e-05 -5.66646e-05 0.108259)
(2.97581e-06 -2.2626e-06 0.114039)
(-1.90027e-08 -7.68832e-05 0.108746)
(-5.17112e-07 -1.76751e-06 0.114749)
(-4.42004e-05 5.79411e-05 0.108261)
(-2.76226e-05 -3.82181e-05 0.107258)
(-3.67246e-05 -2.83058e-05 0.107285)
(0.000320199 0.000327146 0.11071)
(2.96924e-05 3.75996e-05 0.107258)
(3.82383e-05 2.7791e-05 0.107292)
(-4.7004e-07 -8.28234e-05 0.108039)
(1.21763e-05 5.98293e-05 0.104632)
(-4.49834e-07 8.0624e-05 0.108036)
(-1.37394e-05 -6.16709e-05 0.104668)
(-1.63214e-05 2.7964e-05 0.0999844)
(1.49928e-05 -3.06735e-05 0.100023)
(-8.33667e-05 -6.74233e-07 0.107996)
(6.05576e-05 1.33237e-05 0.10455)
(8.24191e-05 1.19269e-07 0.108001)
(-6.19645e-05 -1.3731e-05 0.104578)
(3.06269e-06 -2.87172e-07 0.115678)
(-2.0408e-06 9.72583e-07 0.115676)
(2.50184e-06 9.45448e-07 0.115678)
(-1.72895e-06 -1.89537e-06 0.115671)
(9.18943e-07 -2.18099e-06 0.115666)
(-1.91419e-06 1.7515e-06 0.115664)
(6.83818e-07 2.0047e-06 0.115665)
(7.59092e-05 -1.54132e-06 0.108739)
(-5.87383e-05 4.30346e-05 0.108241)
(2.4468e-06 -1.20139e-06 0.114711)
(-1.46345e-06 2.01708e-06 0.114013)
(-7.58535e-05 1.426e-06 0.108756)
(5.96921e-05 -4.54124e-05 0.108236)
(2.47686e-06 -1.12379e-06 0.114705)
(2.76655e-05 -1.63693e-05 0.0999004)
(-3.03862e-05 1.64477e-05 0.0999364)
(-2.61705e-06 7.75469e-05 0.108749)
(-2.47875e-06 6.34251e-07 0.114756)
(4.31062e-05 -5.81799e-05 0.108257)
(3.85301e-06 -2.14857e-06 0.114033)
(5.25211e-07 -7.65382e-05 0.108747)
(6.93279e-09 -1.62384e-06 0.114737)
(-4.53591e-05 5.7017e-05 0.108259)
(-2.83113e-05 -3.80074e-05 0.107256)
(-3.78079e-05 -2.73159e-05 0.107288)
(0.000319545 0.000327585 0.110708)
(3.00548e-05 3.85215e-05 0.107257)
(3.80075e-05 2.8066e-05 0.107293)
(-3.77376e-07 -8.12646e-05 0.108041)
(1.14318e-05 6.14447e-05 0.104634)
(3.24899e-08 8.16452e-05 0.108034)
(-1.21311e-05 -5.97323e-05 0.10466)
(-1.38113e-05 2.95482e-05 0.0999879)
(1.40448e-05 -2.68046e-05 0.100026)
(-8.23431e-05 -3.56571e-07 0.108)
(6.18662e-05 1.27766e-05 0.10455)
(8.24865e-05 2.93328e-07 0.108002)
(-6.18777e-05 -1.36349e-05 0.104576)
(5.14235e-07 -8.34183e-08 0.115683)
(1.02146e-06 1.74843e-06 0.115682)
(-8.94656e-07 1.28877e-06 0.115683)
(-5.35714e-06 2.08237e-06 0.115664)
(5.1526e-06 1.61272e-06 0.11566)
(-5.33866e-06 -2.28644e-06 0.115659)
(5.06566e-06 -2.10006e-06 0.11566)
(7.5354e-05 -1.6375e-06 0.108739)
(-5.94095e-05 4.2286e-05 0.108241)
(1.40766e-06 -1.7489e-06 0.114723)
(-1.49714e-06 4.82326e-06 0.113998)
(-7.67461e-05 4.12592e-07 0.108751)
(6.01363e-05 -4.40043e-05 0.10824)
(2.13133e-06 -1.94805e-07 0.114685)
(2.92957e-05 -1.52522e-05 0.0999094)
(-2.62419e-05 1.52334e-05 0.0999385)
(-1.83092e-06 7.70923e-05 0.108746)
(-3.32025e-06 5.72044e-07 0.114773)
(4.13995e-05 -5.80678e-05 0.108258)
(4.14563e-06 -4.2373e-06 0.11403)
(1.62207e-07 -7.69128e-05 0.108746)
(3.45045e-07 -2.5225e-06 0.114718)
(-4.40262e-05 5.88943e-05 0.108261)
(-2.89036e-05 -3.75598e-05 0.107253)
(-3.70608e-05 -2.72039e-05 0.107286)
(0.000318884 0.000324833 0.110712)
(2.89471e-05 3.85279e-05 0.107257)
(3.8271e-05 2.69479e-05 0.107293)
(1.01246e-06 -7.83509e-05 0.108011)
(1.2599e-05 6.01488e-05 0.104627)
(7.22971e-07 8.14962e-05 0.108037)
(-1.23119e-05 -6.00517e-05 0.104633)
(-1.59337e-05 2.88183e-05 0.099969)
(1.62567e-05 -3.12283e-05 0.1)
(6.29951e-05 1.25721e-05 0.10455)
(8.54084e-05 -2.92421e-08 0.108004)
(-3.59406e-06 -3.29084e-06 0.115692)
(5.00834e-06 4.53106e-06 0.115692)
(-4.22325e-06 4.52692e-06 0.115692)
(7.90619e-05 -3.09578e-06 0.108757)
(-6.17587e-05 4.28804e-05 0.108236)
(-7.42365e-08 -1.38631e-06 0.114772)
(-3.01427e-07 2.4159e-06 0.11396)
(-8.03252e-05 1.12511e-06 0.108744)
(5.99132e-05 -4.60996e-05 0.108248)
(3.47638e-06 -1.09495e-06 0.114631)
(3.02608e-05 -1.67267e-05 0.0998931)
(-8.28203e-07 7.35643e-05 0.108722)
(-1.11272e-06 -5.97653e-07 0.114798)
(4.51982e-05 -5.80411e-05 0.108251)
(1.70443e-06 -7.35646e-05 0.108748)
(1.04946e-06 3.0919e-06 0.114668)
(-3.10501e-05 -3.86624e-05 0.10725)
(-3.94243e-05 -2.79761e-05 0.107281)
(0.000316482 0.000326057 0.11073)
(3.04284e-05 3.87981e-05 0.107269)
(3.58509e-05 2.88558e-05 0.107281)
(0.000123031 0.000122752 0.106812)
(0.00036806 0.000478462 0.101089)
(0.000480437 0.000366134 0.101099)
(0.00120278 0.00112651 0.0887753)
(0.000557464 0.00118758 0.09959)
(0.0011288 0.00119316 0.088787)
(0.0011831 0.000554166 0.0996127)
(0.00045936 0.000446978 0.107026)
(0.00142831 0.00193331 0.104401)
(0.00193074 0.0014305 0.104394)
(0.000508505 0.00044155 0.101364)
(0.000438486 0.000506821 0.101379)
(3.06306e-05 0.000300912 0.105673)
(0.000184691 0.000148223 0.107278)
(0.000174801 0.000454629 0.102559)
(4.9498e-06 0.000196705 0.108062)
(-2.95964e-05 0.000300395 0.105682)
(-0.000184582 0.000148663 0.107284)
(-0.000171623 0.00045955 0.102576)
(-4.41493e-06 0.000196856 0.108069)
(-2.03013e-06 0.000727187 0.10372)
(0.00128203 -0.000875928 0.0787822)
(0.00052985 0.000864713 0.0987713)
(-0.00020236 0.00153108 0.106701)
(1.10697e-06 0.00072524 0.103725)
(-0.00127822 -0.000858381 0.0788367)
(-0.000554824 0.000862166 0.0987689)
(0.000200308 0.00153125 0.106705)
(1.00485e-05 0.000673859 0.105789)
(0.000349716 0.000490788 0.107395)
(0.00138469 0.00114506 0.103673)
(0.000204844 0.00086218 0.108513)
(0.000339525 0.000357235 0.102261)
(7.3731e-05 0.000398031 0.108062)
(7.6142e-06 0.00138205 0.107544)
(-9.96223e-06 0.000673516 0.105796)
(-0.000349118 0.000491137 0.107396)
(-0.00139278 0.00114088 0.103663)
(-0.000205743 0.000862139 0.108517)
(-0.000341993 0.000352273 0.102278)
(-7.30489e-05 0.000398101 0.108068)
(-9.46985e-06 0.0013818 0.10755)
(-0.00012306 0.000122564 0.106809)
(-0.000366154 0.000480566 0.101085)
(-0.000477027 0.000368869 0.101095)
(-0.00119227 0.00113263 0.08879)
(-0.000551973 0.00118232 0.0996041)
(-0.000459289 0.000446988 0.107025)
(-0.00142866 0.00193363 0.1044)
(-0.00193583 0.00142811 0.104395)
(-0.000506808 0.000440175 0.101377)
(-0.000439934 0.000509112 0.101371)
(-0.00112785 0.00120069 0.0887714)