/*--------------------------------*- C++ -*----------------------------------*\
| =========                 |                                                 |
| \\      /  F ield         | OpenFOAM: The Open Source CFD Toolbox           |
|  \\    /   O peration     | Version:  2206                                  |
|   \\  /    A nd           | Website:  www.openfoam.com                      |
|    \\/     M anipulation  |                                                 |
\*---------------------------------------------------------------------------*/
FoamFile
{
    version     2.0;
    format      ascii;
    arch        "LSB;label=32;scalar=64";
    class       volScalarField;
    location    "0.1";
    object      omega;
}
// * * * * * * * * * * * * * * * * * * * * * * * * * * * * * * * * * * * * * //

dimensions      [0 0 -1 0 0 0 0];

internalField   nonuniform List<scalar> 
67442
(
20.5926
20.6662
20.6544
20.8872
20.8872
20.6553
20.6547
20.8908
20.6647
20.6664
20.6664
20.892
20.6532
188.675
46.5503
333.662
191.423
48.4052
20.592
20.5922
20.5924
43.308
20.6079
24.2056
337.304
20.6045
42.0127
23.775
84.3753
82.5609
334.908
337.346
82.72
84.5651
188.069
46.5021
42.0121
20.6032
23.7625
42.0279
20.6038
23.7787
82.5337
84.4336
336.07
43.1905
20.6072
24.1672
191.526
48.417
20.6076
43.2327
24.1708
190.829
48.4584
20.6077
43.2928
24.2067
190.881
48.4609
84.4102
82.7088
333.715
20.603
41.9617
23.7782
188.096
46.4998
188.109
46.5337
336.123
333.697
363.979
188.855
90.1744
90.2006
363.842
235.627
46.4534
206.262
53.7533
206.465
53.7616
235.334
334.131
240.111
48.4457
56.0968
211.065
368.311
191.709
93.5945
93.8305
368.082
368.291
191.678
93.7893
240.097
48.6181
56.0154
210.572
56.2721
210.974
239.651
337.605
337.833
53.7491
29.9906
84.4915
196.945
30.0356
197.335
53.5693
53.3253
29.5422
82.6687
197.424
29.5667
197.783
53.1641
134.605
349.509
348.616
349.976
349.072
134.282
335.148
337.649
337.89
53.4439
29.6127
82.7495
196.735
197.021
29.6551
53.2458
53.7669
29.8919
84.7558
199.063
199.4
29.9609
53.5366
135.094
349.861
350.75
350.101
351.022
134.75
362.844
188.377
90.0835
90.1973
362.352
234.669
46.5218
205.372
53.7163
205.688
53.7568
234.198
53.3412
29.5884
82.6816
197.242
197.686
29.6035
53.1871
53.6078
30.0143
84.5588
196.963
30.0493
197.416
53.5618
134.854
348.445
349.595
348.866
350.093
134.516
336.585
240.146
48.4436
211.061
56.1239
368.312
191.811
93.7039
93.9109
368.083
368.292
191.785
93.8635
240.137
48.6212
210.556
56.0655
210.974
56.309
239.69
367.2
191.197
93.5125
93.6589
366.618
239.042
48.5672
56.0939
209.868
56.1947
210.239
238.427
367.242
191.228
93.5751
93.7137
366.664
239.061
48.5759
209.887
56.0946
210.266
56.2002
238.436
53.7415
29.903
84.6323
198.604
199.053
29.9677
53.4914
53.6302
29.68
82.7932
196.009
29.6967
196.382
53.4816
135.2
350.528
348.051
350.871
348.682
134.914
334.183
362.942
188.407
90.1315
90.2417
362.46
234.723
46.5257
53.7164
205.524
53.7569
205.808
234.251
362.944
188.404
90.0838
90.2033
362.457
234.712
46.552
53.7227
205.523
53.7609
205.815
234.239
336.64
334.191
20.5895
20.5897
20.5845
27.7294
22.3433
22.2646
20.8893
22.3526
22.2685
27.6948
27.7356
22.282
22.318
20.8903
22.2814
22.3381
27.6825
27.783
22.2888
22.3629
20.8927
22.3716
22.2904
27.7545
27.8164
22.3428
22.302
20.8945
22.3008
22.3519
27.7862
20.5896
20.5894
20.586
20.589
20.5893
20.5845
20.5894
20.5896
20.5858
21.7984
23.8759
43.3702
29.857
23.9017
29.914
21.7863
21.191
24.2404
25.3559
21.0148
25.4025
21.0282
21.1763
21.6352
23.6151
42.0265
29.0389
23.6083
29.0435
21.635
21.0905
23.7754
20.9478
24.8134
20.9486
24.8152
21.0899
21.6326
23.616
42.0337
28.9974
29.0089
23.6206
21.6326
21.0855
23.7672
24.7866
20.9466
24.7957
20.9489
21.0861
21.6399
23.6173
42.0442
29.0483
29.0524
23.6198
21.6416
21.0906
23.7805
24.8176
20.9503
24.8192
20.9508
21.0907
21.7879
23.8231
43.3215
29.768
29.8579
23.859
21.7685
21.1865
24.2181
25.3016
21.0151
25.3634
21.0268
21.1746
21.793
23.8338
43.3486
29.7947
29.8811
23.8699
21.773
21.1892
24.2217
21.0161
25.3135
21.0279
25.3742
21.1767
21.8009
23.8736
43.358
29.8574
23.898
29.9136
21.7892
21.1915
24.2425
21.0153
25.3574
21.0287
25.4039
21.1765
21.6353
23.5917
41.9757
29.0327
23.5939
29.0354
21.6401
21.0908
23.7785
20.9476
24.8159
20.9482
24.8171
21.0913
744.74
1631.95
4420.69
16447.2
116782
732.243
1630.07
4418.87
16452.1
116912
744.437
1632.03
4420.91
16449.1
116803
732.432
1629.82
4418.4
16449.8
116892
732.618
1629.74
4418.24
16448.2
116862
732.455
1629.88
4418.71
16452.1
116912
744.502
1632.19
4420.93
16449.1
116803
732.009
1629.92
4418.21
16448.4
116872
744.46
1632.01
4420.89
16449.3
116814
744.18
1632.14
4420.51
16446.4
116781
744.142
1632.17
4420.6
16446.2
116773
732.193
1629.94
4418.32
16449.2
116881
744.473
1632.13
4420.76
16448
116795
744.474
1632.12
4420.73
16448.2
116803
732.009
1630.01
4418.48
16449.8
116892
732.22
1630.02
4418.77
16451.6
116912
730.707
1628.36
4415.7
16441.3
116835
744.552
1631.8
4420.46
16447
116782
732.349
1629.8
4418.63
16451.9
116912
737.791
1630.58
4417.12
16437.8
116752
738.344
1629.37
4414.9
16432.6
116727
730.505
1628.37
4415.77
16442
116840
744.233
1631.86
4420.68
16448.9
116803
744.597
1632.1
4420.91
16449.1
116803
732.483
1629.75
4418.24
16449.6
116892
732.786
1629.93
4418.4
16449.8
116892
743.077
1632.13
4420.41
16447.5
116795
743.127
1631.84
4420.17
16447.4
116795
743.197
1632.1
4420.43
16447.5
116795
743.251
1631.81
4420.19
16447.4
116795
731.151
1631.31
4420.76
16455.4
116918
731.183
1631.32
4420.69
16455.7
116921
731.274
1631.03
4420.51
16455.3
116918
731.309
1631.04
4420.44
16455.5
116921
732.674
1629.68
4418.09
16448.1
116862
732.506
1629.81
4418.56
16451.9
116912
732.813
1629.98
4418.71
16452.1
116912
744.488
1631.83
4420.62
16448.9
116803
743.089
1632.12
4420.31
16446.6
116789
743.126
1631.84
4420.08
16446.5
116789
731.198
1631.32
4420.64
16455.5
116919
731.306
1631.05
4420.41
16455.4
116919
732.104
1629.64
4417.97
16448.3
116872
737.784
1630.57
4417.1
16437.1
116748
738.338
1629.36
4414.84
16432.4
116725
730.496
1628.36
4415.8
16442.1
116852
744.257
1631.85
4420.66
16449.1
116814
744.622
1632.08
4420.88
16449.3
116814
744.151
1631.77
4420.19
16446.2
116781
730.033
1628.31
4415.66
16440.9
116831
744.12
1631.81
4420.28
16446
116773
743.189
1632.05
4420.1
16444.9
116759
743.246
1631.76
4419.86
16444.7
116759
731.064
1631.31
4420.79
16455.2
116904
732.308
1629.67
4418.08
16449.1
116881
730.309
1628.36
4415.71
16441.3
116836
744.466
1631.77
4420.44
16447.8
116795
730.306
1628.32
4415.57
16441.1
116840
744.462
1631.77
4420.42
16448
116803
732.12
1629.73
4418.24
16449.7
116892
732.343
1629.75
4418.53
16451.5
116912
730.258
1628.3
4415.59
16441.8
116838
730.053
1628.31
4415.6
16441.2
116840
738.031
1630.43
4417.14
16438.1
116768
738.621
1629.3
4415.05
16433.6
116747
738.572
1629.25
4414.93
16433.5
116747
738.044
1630.55
4417.27
16438.3
116768
730.728
1628.53
4415.9
16441.5
116835
743.172
1632.05
4420.2
16445.8
116776
743.236
1631.77
4419.96
16445.6
116776
731.197
1631.25
4420.32
16453
116887
731.291
1630.98
4420.08
16452.9
116887
730.545
1628.55
4415.98
16442.2
116840
737.565
1630.44
4416.99
16437.7
116752
738.186
1629.34
4414.9
16432.6
116727
738.111
1629.28
4414.77
16432.5
116727
737.61
1630.58
4417.13
16437.8
116752
730.698
1628.63
4415.98
16442.2
116840
743.334
1631.89
4420.13
16445.9
116778
743.255
1631.81
4419.98
16445.7
116778
731.585
1631.19
4420.81
16456.1
116918
731.663
1631.13
4420.66
16455.9
116918
743.512
1631.86
4420.15
16446
116776
743.421
1631.77
4420
16445.8
116776
731.716
1631.18
4420.74
16456.2
116933
731.76
1631.12
4420.59
16456
116933
743.402
1631.96
4420.31
16447.2
116795
743.313
1631.87
4420.16
16447
116795
731.64
1631.16
4420.56
16455.1
116921
731.688
1631.1
4420.41
16454.9
116921
737.618
1630.37
4416.89
16437.6
116751
738.191
1629.45
4414.9
16432.6
116727
738.294
1629.22
4414.7
16432.5
116727
737.563
1630.69
4417.11
16437.7
116751
730.229
1628.68
4415.87
16442
116838
737.56
1630.43
4416.96
16437
116748
738.176
1629.32
4414.84
16432.4
116725
738.107
1629.27
4414.72
16432.3
116725
737.609
1630.57
4417.1
16437.2
116748
730.533
1628.55
4416
16442.3
116852
730.692
1628.63
4416.01
16442.3
116852
730.04
1628.7
4415.89
16441.4
116840
737.181
1630.51
4417.29
16439
116774
737.782
1629.58
4415.22
16433
116749
737.864
1629.33
4415.01
16432.9
116749
737.151
1630.84
4417.52
16439.1
116774
737.176
1630.5
4417.32
16439.1
116769
737.796
1629.56
4415.23
16433.7
116747
737.881
1629.32
4415.02
16433.6
116747
737.145
1630.82
4417.54
16439.2
116769
730.002
1628.7
4415.95
16441.1
116831
731.214
1631.06
4420.56
16455
116904
730.275
1628.74
4416
16441.5
116836
737.633
1630.41
4417.11
16437.7
116759
738.221
1629.45
4415
16432.4
116725
738.314
1629.22
4414.86
16432.9
116736
737.578
1630.72
4417.28
16437.2
116748
730.272
1628.71
4415.86
16441.3
116840
737.632
1630.39
4416.93
16437.7
116752
738.222
1629.46
4414.9
16432.6
116727
738.317
1629.22
4414.7
16432.5
116727
737.577
1630.71
4417.15
16437.8
116752
20.667
20.8952
20.6548
20.5928
48.5728
20.6078
24.2345
191.182
48.5942
20.6081
43.376
24.2386
336.545
84.4845
238.54
48.3789
56.1896
210.205
55.9693
209.724
239.056
366.745
190.786
93.7214
93.4978
367.265
238.556
48.4073
210.187
56.2498
209.741
56.0348
239.085
335.965
53.4735
30.0089
84.2865
197.947
29.9437
197.386
53.6447
53.5224
29.7325
29.6883
53.6659
134.709
349.589
348.948
134.968
27.8433
20.8909
22.3647
22.3131
22.3522
22.3033
27.8775
20.5902
20.585
20.5897
20.59
20.585
21.176
24.1935
25.379
21.0271
25.3348
21.014
21.188
21.79
23.885
43.2742
29.9078
29.8527
23.8635
21.7957
21.1777
24.1988
21.028
25.3916
21.0149
25.3486
21.1906
21.6367
23.6196
23.6107
21.634
20.8911
20.6559
20.6654
20.5932
334.086
336.611
82.6593
84.6493
188.238
46.5212
42.0495
20.6038
23.7776
191.061
43.3431
333.542
336.037
53.2413
29.6846
82.5507
196.285
195.878
29.641
53.373
53.5404
29.9947
84.4571
198.644
198.202
29.9246
53.7014
134.377
349.102
350.016
348.597
349.497
134.61
362.399
187.907
90.0227
89.8497
362.867
234.345
46.4627
205.728
53.7136
205.386
53.6402
234.757
366.723
190.658
93.5932
93.3679
367.257
27.713
20.8873
22.295
22.3442
22.2862
22.331
27.7607
20.59
21.6413
23.632
42.0246
29.0242
23.6347
29.013
21.6364
21.088
23.7715
24.8055
20.9484
24.8003
20.9492
21.086
21.785
23.8745
43.2522
29.879
23.8536
29.8245
21.7899
744.064
1631.82
4420.67
16449.1
116814
731.99
1629.65
4418.24
16449.6
116892
730.098
1628.74
4416.11
16442.3
116852
744.179
1632.24
4420.99
16449.3
116814
731.971
1630.01
4418.49
16449.8
116892
737.162
1630.75
4417.22
16437.8
116752
737.778
1629.21
4414.78
16432.5
116727
737.726
1629.53
4414.99
16432.7
116727
737.24
1630.48
4417
16437.7
116752
737.156
1630.74
4417.2
16437.2
116748
737.773
1629.2
4414.73
16432.3
116725
737.727
1629.51
4414.94
16432.4
116725
737.237
1630.47
4416.97
16437
116748
730.156
1628.41
4415.81
16442.1
116852
742.974
1631.77
4420
16445.7
116778
743.004
1632.13
4420.26
16445.9
116778
731.075
1631.02
4420.67
16455.9
116918
731.015
1631.36
4420.91
16456.1
116918
732.185
1629.59
4418.1
16448.1
116862
732.018
1629.71
4418.56
16451.9
116912
744.357
1631.77
4420.48
16447
116782
744.038
1631.84
4420.69
16448.9
116803
732.157
1629.93
4418.34
16448.3
116862
732.006
1630.07
4418.81
16452.1
116912
730.252
1628.71
4416
16441.5
116835
744.448
1632.18
4420.79
16447.2
116782
744.149
1632.26
4421.01
16449.1
116803
731.285
1631.03
4420.6
16456
116933
731.194
1631
4420.41
16454.9
116921
730.098
1628.74
4416.08
16442.2
116840
730.163
1628.41
4415.79
16442
116840
743.145
1631.73
4420.01
16445.8
116776
743.152
1632.07
4420.25
16446
116776
743.03
1631.82
4420.17
16447
116795
743.038
1632.17
4420.41
16447.2
116795
731.172
1631.35
4420.66
16455.1
116921
731.269
1631.38
4420.84
16456.2
116933
737.604
1630.72
4417.37
16438.3
116768
738.23
1629.19
4414.94
16433.5
116747
738.172
1629.49
4415.15
16433.6
116747
737.696
1630.46
4417.16
16438.1
116768
730.334
1628.4
4415.71
16441.3
116835
20.8719
20.559
20.6366
20.6258
20.8715
20.8757
20.8723
20.618
20.6238
20.876
20.6366
20.6383
20.6384
20.8772
20.6244
86.101
84.2939
20.8713
86.0747
84.2481
49.3219
191.002
47.4237
336.854
337.962
193.813
49.2328
20.5584
20.5585
20.5584
44.0242
20.5752
20.6397
24.3109
339.388
20.5705
42.6708
23.8816
86.0377
84.2455
339.228
339.06
336.878
336.672
20.8715
86.2348
84.3634
85.8485
84.0733
339.183
339.05
336.759
336.675
336.851
339.293
84.2821
86.1502
49.3125
191.009
192.383
47.4132
24.4215
42.7159
20.568
20.5741
23.8606
24.4211
42.7222
20.5682
20.6274
43.7435
20.574
23.8599
84.2239
86.1976
20.8753
84.9981
339.261
43.9246
20.5747
24.3036
193.863
49.2501
20.575
43.9642
24.3094
193.761
49.2503
20.575
43.9615
24.3118
193.805
49.2497
86.1359
84.2609
336.903
20.5698
42.6657
23.8801
191.011
47.2964
191.114
47.29
339.061
336.737
136.697
352.452
351.538
352.325
351.436
136.4
54.5743
30.2896
200.064
85.8662
199.618
54.4099
30.3584
54.1592
29.8692
200.535
84.0297
200.04
53.9742
29.8492
136.817
352.572
351.663
352.065
351.143
136.522
54.3273
199.929
85.8507
30.3753
199.705
54.5062
30.2769
53.9509
200.377
84.0685
29.8939
200.184
54.0919
29.8186
239.543
211.168
56.7682
48.6322
210.252
56.132
239.506
365.498
190.129
91.8794
91.6083
365.19
367.001
191.634
93.0265
238.102
47.9374
208.697
54.7589
209.214
55.1587
237.749
335.961
337.259
369.529
193.751
95.2697
95.431
369.391
241.74
49.4274
57.0347
212.983
57.2463
212.921
241.561
339.342
54.6076
30.297
200.148
86.1846
54.3864
30.384
200.088
54.1891
29.8507
200.545
84.3564
53.9911
29.9148
200.447
136.761
352.562
351.669
136.528
352.462
351.557
338.704
338.856
336.336
336.574
136.667
352.459
351.525
136.393
352.376
351.459
54.5461
30.3944
200.242
86.0264
54.5913
200.015
30.2943
54.1564
29.9233
200.539
84.2122
54.1357
200.535
29.8484
136.388
352.523
351.614
136.668
352.516
351.621
54.6681
199.701
30.2741
86.0853
54.4299
199.902
30.3773
54.2693
200.196
29.8212
84.1652
54.0515
200.399
29.904
339.073
339.003
336.737
336.603
335.973
337.216
339.2
54.2433
29.9533
84.0105
199.142
199.092
29.9857
54.0482
54.5686
30.2386
86.2978
201.476
201.414
30.328
54.3537
84.2725
29.9405
136.807
351.751
352.631
351.658
352.533
136.572
239.107
211.148
56.8889
48.6231
210.194
56.0744
240.016
365.7
190.056
91.9264
91.6556
365.112
366.771
93.9043
191.598
92.8344
367.864
238.262
47.9504
208.617
54.7121
209.228
55.2899
237.692
136.897
350.81
350.579
352.266
54.2051
29.8871
84.0278
200.468
200.105
29.9091
54.0563
54.4565
30.3343
85.9646
200.111
30.3251
199.707
54.457
54.2101
199.947
84.2834
30.139
200.059
29.8811
54.167
54.1335
85.9424
30.2681
199.604
136.819
351.618
352.577
351.373
352.108
136.682
338.757
338.805
369.534
193.859
95.3406
95.4606
369.398
241.757
49.4366
212.964
57.0829
212.939
57.2767
241.578
241.629
49.2587
57.015
212.698
369.443
193.392
95.4068
95.1816
369.299
369.355
193.349
95.1457
241.781
49.4439
57.0801
212.986
57.2726
212.815
241.553
241.631
49.2487
212.651
57.0175
369.446
193.429
95.4251
95.2108
369.291
369.345
193.348
95.1397
241.789
49.4399
212.958
57.0819
212.757
57.2774
241.555
54.6081
30.2768
86.2772
201.303
201.456
30.3603
54.357
54.3016
29.946
84.3787
199.143
30.0082
199.116
54.1124
137.007
352.614
351.637
352.584
351.608
136.776
336.754
365.25
190.891
91.8057
91.7564
365.224
237.528
47.3729
54.69
208.715
54.7773
208.609
237.486
365.256
191.041
91.837
91.7909
365.225
237.519
47.37
54.6893
208.706
54.7801
208.603
237.481
339.245
338.96
336.85
27.9652
22.3897
22.3176
20.8753
27.9098
22.4097
22.3164
20.5557
20.5559
20.5525
27.9827
22.3911
22.312
20.8743
27.9123
22.4157
22.3315
27.9261
20.87
22.4164
22.3339
27.9861
22.3901
22.3127
27.9854
22.3343
22.38
20.8745
22.3528
22.4049
27.9155
27.9883
22.3351
22.4085
20.8778
22.4174
22.3348
27.952
28.0507
22.4005
22.3503
20.879
22.3672
22.423
27.9899
27.8914
20.8691
22.4135
22.3262
27.9593
22.3883
22.3065
20.555
20.5552
20.5524
20.5552
20.5551
20.5523
20.5551
20.555
20.5522
21.8248
23.9667
43.9746
30.1323
24.0016
30.2091
21.8083
21.8091
43.893
23.9728
30.1255
21.1929
24.3745
25.5001
21.0069
25.5717
21.0176
21.1795
21.6646
23.7092
42.7729
29.302
23.7381
29.3494
21.6539
21.0878
23.9051
20.9342
24.9491
20.9368
24.9777
21.0872
28.0041
20.8735
22.3873
22.3051
27.9347
22.4137
22.3285
21.1503
25.5413
21.0121
24.1866
25.3079
20.993
21.1763
21.642
23.7356
42.5194
29.314
29.3199
23.7058
21.657
21.7507
43.2839
29.8345
23.8182
21.0886
24.0124
24.9251
20.9301
25.0457
20.9429
21.0837
21.1479
25.5669
21.0125
24.1864
25.2907
20.9935
21.178
21.6415
23.7184
42.5179
29.3233
29.3298
23.6894
21.6566
21.7091
30.0984
43.0995
23.9265
29.7221
21.8066
23.7381
21.0886
24.0168
24.9226
20.9301
25.0763
20.9431
21.0831
27.9842
20.8718
22.364
22.4309
22.4078
22.317
28.0461
21.8284
23.9548
44.0892
30.1247
30.2288
24.0006
21.8049
21.1914
24.3677
25.4909
21.007
25.5654
21.0172
21.1777
21.8331
23.9693
44.13
30.1447
30.2439
24.0147
21.8095
21.1934
24.3723
21.0083
25.5046
21.0183
25.576
21.1797
21.8336
23.9765
44.1266
30.1427
24.022
30.2424
21.8101
21.1931
24.3751
21.0068
25.5032
21.0177
25.5747
21.1795
21.6642
23.6921
42.7707
29.312
23.719
29.3582
21.6537
21.0876
23.9043
20.9337
24.9509
20.9364
24.9795
21.0869
20.5632
20.6471
20.6288
20.8735
20.5576
20.6364
20.6245
20.8717
20.5579
20.6369
20.6247
20.8719
20.5578
20.6365
20.6246
20.8719
20.5577
20.6369
20.6246
20.8718
20.5579
20.6366
20.6246
20.8718
20.5577
20.6369
20.6246
20.8718
20.5578
20.6366
20.6246
20.8719
20.5578
20.637
20.6246
20.8719
20.5578
20.6366
20.6246
20.8718
20.5577
20.6369
20.6247
20.8719
20.5578
20.6367
20.6246
20.8718
20.5577
20.6368
20.6246
20.8718
20.5578
20.6366
20.6247
20.8719
20.5578
20.6369
20.6247
20.8719
20.5578
20.6366
20.6246
20.8745
20.6383
20.6468
20.8846
20.6479
20.6503
20.6581
20.6583
20.8782
20.6378
20.6451
20.8796
20.8746
20.8747
20.6317
20.6376
20.6258
20.6249
20.8782
20.8746
20.6417
20.6437
20.6359
20.6376
20.6492
20.6365
20.6374
20.878
20.8786
20.6359
20.6246
20.6233
20.875
20.8744
20.8748
20.6274
20.6264
20.6263
20.6256
20.8744
20.8778
20.6374
20.639
20.6362
20.6379
20.6388
20.6374
20.6378
20.8783
20.879
20.6248
20.6252
20.6238
20.8752
20.8745
20.8747
20.6276
20.627
20.6261
20.6254
20.8769
20.8747
20.6376
20.6392
20.6362
20.6379
20.6392
20.6367
20.6379
20.8787
20.879
20.6252
20.6251
20.6238
20.8751
20.8744
20.8747
20.6275
20.6268
20.6261
20.6257
20.8745
20.8778
20.6375
20.6392
20.6362
20.6379
20.6392
20.6373
20.6379
20.8782
20.879
20.6252
20.6252
20.6238
20.8751
20.8744
20.8748
20.6275
20.627
20.6262
20.6255
20.877
20.8751
20.6375
20.6392
20.6361
20.6379
20.6392
20.6367
20.6379
20.8782
20.8789
20.6252
20.625
20.6239
20.8751
20.8745
20.8746
20.6276
20.6268
20.6261
20.6257
20.8749
20.8779
20.6375
20.6392
20.6361
20.6379
20.6393
20.6372
20.6379
20.8785
20.879
20.6252
20.6251
20.6239
20.8751
20.8744
20.8747
20.6275
20.6271
20.6262
20.6255
20.877
20.8748
20.6375
20.6392
20.6362
20.6379
20.6392
20.6367
20.638
20.8782
20.879
20.6252
20.6251
20.6238
20.8752
20.8744
20.8747
20.6275
20.6269
20.6261
20.6258
20.8746
20.8779
20.6375
20.6392
20.6362
20.6379
20.6393
20.6373
20.6379
20.8787
20.879
20.6252
20.6252
20.6238
20.8752
20.8744
20.8747
20.6275
20.6271
20.6261
20.6255
20.8771
20.8751
20.6375
20.6392
20.6362
20.6379
20.6393
20.6367
20.6379
20.8787
20.879
20.6252
20.6252
20.6238
20.8751
20.8744
20.8747
20.6275
20.6269
20.6261
20.6258
20.8749
20.8778
20.6375
20.6392
20.6362
20.6379
20.6393
20.6373
20.638
20.8787
20.879
20.6252
20.6251
20.6239
20.8752
20.8744
20.8747
20.6275
20.6271
20.6261
20.6254
20.8769
20.8748
20.6375
20.6392
20.6361
20.6379
20.6393
20.6369
20.6379
20.8787
20.8789
20.6252
20.625
20.6238
20.8751
20.8744
20.8747
20.6275
20.6268
20.6261
20.6257
20.8746
20.8778
20.6375
20.6392
20.6361
20.6379
20.6393
20.6371
20.6379
20.8786
20.879
20.6252
20.6251
20.6239
20.8752
20.8744
20.8747
20.6275
20.6271
20.6262
20.6255
20.8768
20.8748
20.6375
20.6392
20.6361
20.6379
20.6393
20.6368
20.6379
20.8787
20.8791
20.6253
20.6252
20.6238
20.8752
20.8744
20.8747
20.6275
20.6269
20.6262
20.6257
20.8745
20.8778
20.6375
20.6392
20.6362
20.6379
20.6392
20.6374
20.6379
20.8788
20.879
20.6252
20.6253
20.6238
20.8752
20.8744
20.8747
20.6275
20.6271
20.6261
20.6255
20.8769
20.8748
20.6376
20.6392
20.6362
20.6379
20.6393
20.6368
20.6379
20.8782
20.8789
20.6252
20.625
20.6238
20.8752
20.8745
20.877
20.6275
20.6269
20.6263
20.6259
20.8744
20.8795
20.6375
20.6392
20.6364
20.638
20.6393
20.6371
20.6381
20.8786
20.8812
20.6252
20.6256
20.6241
46.6645
189.211
335.329
48.6381
192.112
20.5738
20.5833
20.5738
20.5835
24.2444
20.6656
43.4834
20.6074
338.122
23.7962
20.6536
20.6039
42.1452
20.8867
84.7929
82.9692
47.3329
191.009
47.2592
190.804
336.81
336.672
49.3816
193.992
49.0491
193.792
20.5728
20.5655
20.5729
20.5577
20.5576
20.5577
20.5575
24.335
43.7395
20.5866
20.6419
24.2221
43.9986
20.5807
339.498
339.222
23.8836
20.5814
42.4796
20.627
23.8341
20.5756
42.6406
85.7124
84.0192
20.8714
85.9746
84.189
47.3154
191.057
47.3262
190.808
336.898
336.676
49.4514
193.805
49.238
193.632
20.5595
20.5598
20.5596
20.5584
20.5582
20.5582
20.5581
24.3701
44.0156
20.574
20.638
24.3127
44.0643
20.5763
339.297
339.144
23.891
20.5691
42.7355
20.626
23.8964
20.5713
42.7198
86.0985
84.2848
20.8708
86.0554
84.2088
47.3198
191.059
47.3495
190.804
336.888
336.675
49.4553
193.782
49.2322
193.661
20.5599
20.56
20.5598
20.5581
20.5581
20.5582
20.5581
24.3698
44.0267
20.5741
20.6382
24.3084
44.0748
20.5759
339.289
339.143
23.8889
20.5694
42.7276
20.626
23.8934
20.5712
42.7173
86.0975
84.238
20.871
86.0535
84.1688
47.3182
191.059
47.3232
190.809
336.899
336.671
49.4553
193.79
49.2323
193.663
20.5599
20.5599
20.5598
20.558
20.5582
20.5582
20.558
24.3698
44.0155
20.5741
20.6379
24.3087
44.0558
20.576
339.29
339.137
23.8892
20.5693
42.7273
20.626
23.8936
20.5711
42.7083
86.0931
84.2401
20.871
86.0513
84.1808
47.3194
191.059
47.346
190.81
336.888
336.672
49.4555
193.79
49.2327
193.664
20.5599
20.5599
20.5598
20.5583
20.5581
20.5582
20.5581
24.3698
44.0263
20.5741
20.6382
24.3086
44.0746
20.5759
339.281
339.142
23.889
20.5693
42.7269
20.6259
23.8933
20.5711
42.7077
86.0975
84.24
20.8709
86.0478
84.1701
47.3224
191.059
47.3487
190.811
336.898
336.67
49.4555
193.792
49.2322
193.664
20.5599
20.5599
20.5598
20.5579
20.5582
20.5582
20.5581
24.3698
44.014
20.5741
20.6379
24.3086
44.0555
20.576
339.296
339.139
23.8899
20.5693
42.7272
20.6259
23.894
20.5711
42.7176
86.0908
84.2409
20.8709
86.0493
84.1802
47.3219
191.06
47.3499
190.804
336.882
336.664
49.4556
193.79
49.2327
193.664
20.5599
20.5599
20.5598
20.5582
20.5581
20.5582
20.5581
24.3698
44.0262
20.5741
20.6382
24.3086
44.0753
20.5759
339.283
339.147
23.8901
20.5693
42.7274
20.626
23.8942
20.5711
42.7155
86.0969
84.2381
20.8709
86.0532
84.1688
47.3168
191.059
47.3434
190.811
336.892
336.664
49.4555
193.791
49.2322
193.664
20.5599
20.5599
20.5599
20.5582
20.5582
20.5582
20.5581
24.3698
44.0171
20.5741
20.6379
24.3086
44.0578
20.5759
339.289
339.143
23.8949
20.5693
42.7275
20.626
23.8958
20.5711
42.708
86.0931
84.2401
20.8711
86.0512
84.1808
47.3215
191.06
47.3506
190.804
336.88
336.664
49.4556
193.791
49.2327
193.664
20.5599
20.5599
20.5598
20.5582
20.5581
20.5582
20.5581
24.3698
44.0278
20.5741
20.6382
24.3086
44.081
20.576
339.288
339.143
23.8899
20.5693
42.7278
20.626
23.8946
20.5711
42.7083
86.0977
84.2382
20.871
86.0498
84.1689
47.3195
191.059
47.3411
190.81
336.891
336.662
49.4554
193.792
49.2322
193.663
20.5599
20.5599
20.5598
20.558
20.5582
20.5582
20.5581
24.3698
44.0109
20.5741
20.6379
24.3086
44.0628
20.576
339.288
339.143
23.8912
20.5693
42.7278
20.626
23.8965
20.5711
42.7142
86.094
84.24
20.871
86.0535
84.181
47.3216
191.058
47.3504
190.809
336.878
336.667
49.4555
193.791
49.2326
193.662
20.5599
20.5599
20.5598
20.5582
20.5582
20.5582
20.5581
24.3698
44.024
20.5741
20.6382
24.3087
44.0798
20.576
339.287
339.142
23.8893
20.5693
42.7275
20.626
23.8939
20.5711
42.7143
86.0975
84.276
20.8709
86.0478
84.1934
47.3226
191.059
47.3491
190.811
336.89
336.662
49.4553
193.789
49.2324
193.663
20.5599
20.5599
20.5598
20.558
20.5582
20.5582
20.5581
24.3698
44.0107
20.5741
20.638
24.3086
44.0628
20.5759
339.288
339.143
23.8929
20.5693
42.7266
20.6259
23.8926
20.5712
42.7172
86.091
84.2413
20.871
86.0501
84.1807
47.3231
191.059
47.349
190.804
336.879
336.665
49.4557
193.79
49.2327
193.664
20.5599
20.5599
20.5599
20.5582
20.5581
20.5582
20.5581
24.3698
44.024
20.5741
20.6382
24.3086
44.0804
20.576
339.288
339.143
23.8894
20.5694
42.7276
20.626
23.8942
20.5712
42.7143
86.0975
84.2765
20.871
86.0479
84.1935
47.3192
191.059
47.3477
190.811
336.895
336.669
49.4555
193.793
49.2323
193.664
20.5599
20.5599
20.5599
20.5581
20.5582
20.5582
20.5581
24.3698
44.0168
20.5741
20.638
24.3087
44.0576
20.576
339.288
339.143
23.8912
20.5693
42.7266
20.626
23.8962
20.5711
42.7173
86.0915
84.2413
20.871
86.0503
84.1809
47.3196
191.059
47.3447
190.804
336.88
336.664
49.4557
193.79
49.2328
193.664
20.5599
20.5599
20.5598
20.5581
20.5582
20.5582
20.5581
24.3705
44.0279
20.5741
20.6382
24.3087
44.0811
20.576
339.288
339.142
23.8913
20.5693
42.728
20.626
23.8964
20.5711
42.7087
86.0977
84.2757
20.871
86.0481
84.1935
47.3273
191.057
47.3532
190.811
336.888
336.67
49.4554
193.826
49.2322
193.682
20.5599
20.5599
20.5599
20.5588
20.5582
20.5582
20.5582
24.3698
44.0109
20.5741
20.638
24.3085
44.0632
20.5759
339.287
339.144
23.8917
20.5693
42.7279
20.6259
23.8967
20.5711
42.713
335.621
338.2
20.8863
83.0418
85.0561
336.677
335.621
339.376
338.387
20.8804
83.9431
85.8933
82.9225
84.8718
46.64
189.167
23.783
20.654
42.1334
20.6023
23.7901
20.6543
42.1436
20.6031
46.5887
190.916
189.314
47.1594
46.5539
190.379
189.022
46.9897
23.7656
20.6494
42.5131
20.5867
42.0641
20.5984
23.8471
23.7677
20.6522
42.3774
20.5944
42.0455
20.6008
23.8252
20.8911
83.0176
84.9472
337.807
336.621
335.406
20.8875
83.6368
85.585
82.8296
84.8138
338.923
337.82
24.2241
20.6634
43.4493
20.6061
48.6386
192.202
24.2266
20.6651
20.6066
43.4777
48.4988
193.974
192.26
49.1114
24.1675
20.6588
43.8422
20.5891
43.3054
20.6016
24.2928
48.5022
193.868
192.313
49.1135
24.1698
20.6612
20.5905
43.8663
20.6024
43.3302
24.2947
48.6823
191.969
24.2456
20.6657
20.6071
43.4725
48.6854
192.003
24.1785
20.6632
43.6816
20.5992
43.2982
20.6048
24.261
48.4749
193.179
191.772
48.9044
24.1796
20.6637
20.5991
43.6789
20.6049
43.2925
24.2603
48.4803
193.224
191.798
48.9061
20.8904
84.9513
83.0327
335.351
339.488
338.295
20.8845
85.9627
83.6309
84.9267
82.7802
336.482
335.448
23.7982
20.6525
20.6024
42.0909
46.6466
189.166
46.665
189.144
23.7707
20.6491
20.5945
42.348
20.6011
42.0355
23.8269
23.7724
20.6504
20.5943
42.3697
20.6001
41.9967
23.8259
46.5557
190.401
189.192
46.9822
46.5808
190.439
189.164
46.9766
337.803
335.378
20.8829
85.477
83.7343
84.5829
82.8063
338.889
337.83
336.505
335.485
336.688
336.69
339.318
339.357
83.8123
85.7164
20.8732
84.207
86.2529
336.737
336.637
339.317
339.272
20.8733
84.2853
86.318
84.0518
86.0361
47.3252
190.283
46.9323
190.831
23.8906
42.4929
20.578
20.629
23.8346
42.7382
20.5741
23.8858
42.309
20.584
20.6318
23.812
42.7095
20.5769
47.2597
191.055
190.762
47.3227
47.2285
190.943
190.839
47.3893
23.8754
20.6258
42.7349
20.5694
42.6344
20.5696
23.904
23.8725
20.6258
42.7389
20.5694
42.6078
20.5702
23.9108
83.5477
85.4213
20.8743
84.2362
86.0996
338.743
339.104
336.801
336.686
20.8735
84.3061
86.1869
84.0867
85.8793
339.18
339.073
24.3567
43.7127
20.5812
20.6392
24.2449
44.1052
20.578
49.3645
193.635
48.9399
193.953
24.3557
20.582
43.7303
20.6408
24.248
20.5785
44.1417
49.1522
193.893
193.605
49.4166
24.2959
20.636
44.1046
20.5738
43.9271
20.574
24.3644
49.1578
194.005
193.779
49.4078
24.2976
20.638
20.5741
44.1504
20.5742
43.9667
24.3707
49.2797
193.025
48.7399
193.757
24.3311
20.5887
43.5351
20.6438
24.2079
20.5818
44.0106
49.2737
193.048
48.7435
193.727
24.2784
20.638
44.1227
20.574
43.8196
20.5757
24.3722
49.0873
193.841
193.602
49.4037
24.2762
20.6381
20.5742
44.1047
20.5749
43.8475
24.369
49.085
193.803
193.537
49.4066
85.7814
83.5134
20.8763
86.2523
84.1818
336.332
336.645
339.252
339.207
20.8763
86.2877
84.3164
86.2112
83.9003
336.741
336.666
23.8848
20.5839
42.2969
20.6301
23.8085
20.5767
42.648
47.3283
190.303
46.9248
190.858
47.3237
190.322
46.9229
190.873
23.8735
20.6257
20.5691
42.7803
20.5712
42.5378
23.9064
23.875
20.624
20.569
42.6928
20.5698
42.5423
23.9025
47.2296
190.916
190.802
47.3836
47.2315
190.943
190.789
47.3891
338.751
339.085
336.38
336.705
20.8716
86.2156
84.3599
85.7564
84.0153
339.141
339.092
336.738
336.667
336.737
336.714
339.217
339.211
84.1242
86.0844
20.8735
84.316
86.3109
336.753
336.659
339.253
339.182
20.8736
84.3204
86.2833
84.1518
86.0751
47.3723
190.882
47.2846
190.992
23.8928
42.6424
20.5715
20.6273
23.8765
42.7692
20.5715
23.9014
42.6677
20.5715
20.6264
23.8855
42.7714
20.5714
47.2163
191.065
190.756
47.3951
47.2624
190.944
190.807
47.389
23.8762
20.6265
42.7398
20.57
42.6565
20.5704
23.9068
23.8785
20.6256
42.735
20.57
42.651
20.5705
23.9106
84.161
85.935
20.8747
84.3341
86.195
339.129
339.244
336.792
336.685
20.8751
84.2341
86.2659
84.055
86.0031
339.187
339.113
24.3674
43.8946
20.5757
20.6373
24.2983
44.089
20.5756
49.4168
193.782
49.1839
193.881
24.367
20.5761
43.9442
20.6388
24.3045
20.5761
44.1407
49.201
193.759
193.411
49.407
24.3011
20.6364
44.0794
20.5742
43.9002
20.5747
24.361
49.1901
193.835
193.743
49.407
24.302
20.6382
20.5746
44.1115
20.5748
43.9468
24.3686
49.4195
193.671
49.1816
193.898
24.367
20.5762
43.9
20.6388
24.3036
20.5762
44.1126
49.4164
193.626
49.1869
193.862
24.3011
20.638
44.1333
20.5744
43.8689
20.576
24.3686
49.1911
193.818
193.697
49.404
24.2991
20.6378
20.5747
44.1055
20.5753
43.9136
24.3661
49.1891
193.829
193.656
49.4057
86.0425
84.1421
20.8767
86.223
84.224
336.722
336.706
339.243
338.98
20.8767
86.2434
84.3157
86.1781
83.9268
336.739
336.652
23.8977
20.5711
42.6292
20.6247
23.8761
20.571
42.6849
47.3517
190.833
47.2874
190.897
47.357
190.899
47.2894
190.897
23.8782
20.6258
20.5699
42.7807
20.5711
42.5937
23.9044
23.8814
20.624
20.5696
42.6886
20.5702
42.569
23.8988
47.2775
190.895
190.844
47.3395
47.2796
190.914
190.896
47.3431
339.089
339.135
336.703
336.734
20.8712
86.2256
84.2344
85.8274
84.0375
339.15
339.079
336.733
336.671
336.75
336.72
339.172
339.19
84.1587