/*--------------------------------*- C++ -*----------------------------------*\
| =========                 |                                                 |
| \\      /  F ield         | OpenFOAM: The Open Source CFD Toolbox           |
|  \\    /   O peration     | Version:  2206                                  |
|   \\  /    A nd           | Website:  www.openfoam.com                      |
|    \\/     M anipulation  |                                                 |
\*---------------------------------------------------------------------------*/
FoamFile
{
    version     2.0;
    format      ascii;
    arch        "LSB;label=32;scalar=64";
    class       volVectorField;
    location    "0.1";
    object      U;
}
// * * * * * * * * * * * * * * * * * * * * * * * * * * * * * * * * * * * * * //

dimensions      [0 1 -1 0 0 0 0];

internalField   nonuniform List<vector> 
67442
(
(-1.17161e-06 -6.12755e-07 0.115654)
(-1.95658e-07 7.17056e-07 0.115625)
(2.46784e-06 -1.4965e-06 0.115628)
(-0.000265888 -0.000267009 0.115561)
(0.000265615 0.000268465 0.115561)
(2.7484e-06 1.99683e-06 0.115626)
(-4.07183e-06 3.04535e-06 0.115627)
(-0.000263944 0.00026985 0.115561)
(3.95332e-07 5.03102e-07 0.115625)
(9.06051e-07 -4.31095e-07 0.115623)
(-7.705e-07 -8.51761e-07 0.115623)
(0.00026481 -0.000267198 0.115561)
(-2.16372e-06 -1.31515e-06 0.115628)
(4.69103e-06 3.60816e-05 0.102774)
(4.93891e-07 5.488e-05 0.11295)
(-8.6658e-06 1.36211e-05 0.0934392)
(3.47207e-05 6.62038e-06 0.102574)
(5.303e-05 3.75429e-07 0.112811)
(1.68464e-06 -3.48315e-07 0.115654)
(-5.38662e-07 1.08065e-06 0.115654)
(7.52175e-07 9.42266e-07 0.115654)
(-7.03231e-05 2.29866e-05 0.113205)
(1.88414e-06 -1.38109e-06 0.115649)
(-8.57708e-05 -2.36399e-07 0.115073)
(1.25765e-05 -9.69204e-06 0.0933013)
(-1.99799e-06 -1.16135e-06 0.115648)
(2.41568e-05 -6.92409e-05 0.113294)
(5.17437e-07 -8.11083e-05 0.115117)
(-2.59124e-05 -2.60846e-05 0.109819)
(-2.68569e-05 -2.57298e-05 0.109925)
(9.01012e-06 1.26007e-05 0.0934428)
(1.23457e-05 1.00824e-05 0.0933041)
(2.62521e-05 2.52259e-05 0.109934)
(2.51561e-05 2.57268e-05 0.10981)
(-4.6169e-06 3.65753e-05 0.102772)
(-1.95672e-07 5.4812e-05 0.112952)
(2.30797e-05 6.92633e-05 0.113291)
(-6.97476e-07 1.45703e-06 0.115649)
(1.03216e-06 8.0049e-05 0.115117)
(-2.28427e-05 6.83043e-05 0.113293)
(6.35747e-07 1.38809e-06 0.115649)
(-6.4956e-07 7.98282e-05 0.115117)
(-2.66418e-05 2.51033e-05 0.109922)
(-2.53752e-05 2.66578e-05 0.109823)
(-1.21576e-05 1.05069e-05 0.093301)
(6.98392e-05 2.2167e-05 0.113204)
(-1.69278e-06 -1.11828e-06 0.115649)
(8.57742e-05 -2.03071e-07 0.115073)
(3.47143e-05 -6.31425e-06 0.102573)
(5.29002e-05 -4.93159e-07 0.112811)
(-1.25457e-06 1.18966e-06 0.11565)
(7.00622e-05 -2.21859e-05 0.113202)
(8.57416e-05 -3.59305e-08 0.115073)
(-3.52754e-05 7.23913e-06 0.102573)
(-5.33259e-05 4.49508e-07 0.112812)
(1.30222e-06 1.30312e-06 0.11565)
(-7.04637e-05 -2.26448e-05 0.113203)
(-8.57879e-05 -3.13702e-08 0.115073)
(-3.52953e-05 -6.87529e-06 0.102572)
(-5.32552e-05 -5.96598e-07 0.112812)
(2.55156e-05 -2.60994e-05 0.109808)
(2.69216e-05 -2.58101e-05 0.109935)
(9.58507e-06 -1.31454e-05 0.0934417)
(1.78115e-06 -1.03323e-06 0.115648)
(-2.38348e-05 -6.95988e-05 0.113294)
(-4.37285e-07 -8.10717e-05 0.115117)
(5.73722e-06 -3.69053e-05 0.102772)
(3.15432e-07 -5.61084e-05 0.112951)
(-5.26868e-06 -3.67883e-05 0.102773)
(-1.34648e-07 -5.60551e-05 0.112951)
(-1.29054e-05 -1.0038e-05 0.0932989)
(-9.20035e-06 -1.32278e-05 0.0934431)
(1.45332e-06 -1.6906e-05 0.0915616)
(-6.37049e-06 -3.69957e-05 0.102812)
(3.1566e-06 4.31367e-05 0.109374)
(-5.60193e-06 -4.49639e-05 0.109386)
(-2.5595e-06 1.56551e-05 0.091503)
(2.76419e-06 -1.88505e-05 0.0993223)
(-4.71157e-07 -5.68415e-05 0.112944)
(-1.38538e-06 1.75081e-05 0.101521)
(9.31095e-07 5.36898e-05 0.112302)
(5.03806e-07 -1.89594e-05 0.101546)
(-2.26128e-06 -5.61957e-05 0.112297)
(-3.72446e-06 1.70943e-05 0.0992924)
(8.70346e-06 -1.31684e-05 0.09348)
(1.80095e-05 -2.86688e-06 0.0990066)
(5.26992e-05 3.70873e-07 0.112809)
(5.30179e-05 2.09367e-06 0.112133)
(1.83534e-05 -9.15e-07 0.10122)
(-1.76516e-05 2.55974e-06 0.0912678)
(-3.62261e-05 -7.04409e-06 0.102588)
(4.23741e-05 5.15431e-06 0.109133)
(-4.488e-05 -5.27689e-06 0.109107)
(1.60559e-05 -1.25096e-06 0.0912351)
(1.58033e-05 -1.31627e-06 0.0912377)
(3.46949e-05 6.58017e-06 0.102576)
(4.22369e-05 5.10351e-06 0.109132)
(-1.94384e-05 3.61449e-06 0.098998)
(-5.37428e-05 -5.95919e-07 0.112763)
(5.32045e-05 2.10212e-06 0.112135)
(1.8575e-05 -9.07954e-07 0.101218)
(-5.38799e-05 -2.09778e-06 0.112085)
(-1.95301e-05 9.2673e-07 0.101209)
(1.83357e-05 -2.82562e-06 0.0990046)
(-1.40502e-05 9.14525e-06 0.0933269)
(1.30718e-05 -9.30889e-06 0.0933037)
(6.54381e-05 3.21625e-05 0.112352)
(-8.04691e-05 -4.38272e-05 0.114418)
(2.56169e-05 2.45288e-05 0.109785)
(-1.9597e-05 -1.17207e-05 0.102141)
(7.83832e-05 4.27085e-05 0.114393)
(2.15144e-05 1.15399e-05 0.102138)
(-6.33184e-05 -3.09151e-05 0.112391)
(2.8269e-05 6.63417e-05 0.112371)
(-4.32879e-05 -8.25776e-05 0.114448)
(2.54885e-05 2.46666e-05 0.109913)
(-1.10171e-05 -1.96822e-05 0.102103)
(3.88581e-05 8.28934e-05 0.114432)
(1.13314e-05 2.07142e-05 0.102112)
(-2.87852e-05 -6.37101e-05 0.112403)
(2.18847e-05 2.25103e-05 0.106111)
(-9.8179e-06 -9.45571e-06 0.0926297)
(-9.09369e-06 -1.01701e-05 0.092691)
(1.07618e-05 9.15071e-06 0.0926464)
(9.26442e-06 1.06541e-05 0.0927128)
(-2.13108e-05 -2.17666e-05 0.10615)
(-8.58035e-06 -1.37162e-05 0.0934802)
(-1.42446e-05 -9.04765e-06 0.0933267)
(1.2176e-05 9.98947e-06 0.0933069)
(-3.04068e-05 -6.63116e-05 0.112382)
(4.42929e-05 8.01729e-05 0.114445)
(-2.55358e-05 -2.50106e-05 0.109921)
(1.09552e-05 1.93955e-05 0.102204)
(-1.13773e-05 -2.10692e-05 0.102214)
(-3.95729e-05 -8.04868e-05 0.11443)
(3.04561e-05 6.27308e-05 0.112413)
(-6.63375e-05 -3.06661e-05 0.112339)
(8.15207e-05 4.21035e-05 0.11442)
(-2.64182e-05 -2.5208e-05 0.109775)
(1.90613e-05 1.09901e-05 0.102045)
(-2.16123e-05 -1.18126e-05 0.102041)
(-8.08012e-05 -4.18751e-05 0.114394)
(6.3363e-05 2.79729e-05 0.112379)
(-2.22777e-05 -2.29503e-05 0.106112)
(8.99095e-06 9.67725e-06 0.0926912)
(9.55882e-06 8.99517e-06 0.0926323)
(-9.25661e-06 -1.10875e-05 0.0927147)
(-1.09429e-05 -9.58654e-06 0.0926485)
(2.10691e-05 2.06889e-05 0.106151)
(-1.41601e-06 -1.64657e-05 0.0915581)
(6.51171e-06 -3.66827e-05 0.10281)
(-3.24883e-06 4.31037e-05 0.109374)
(5.51823e-06 -4.46068e-05 0.109386)
(2.73344e-06 1.59474e-05 0.0915008)
(-3.14684e-06 -1.83264e-05 0.0993213)
(6.37998e-07 -5.65461e-05 0.112945)
(5.63191e-07 1.74908e-05 0.101521)
(-1.07181e-06 5.35581e-05 0.112303)
(-1.26588e-06 -1.89063e-05 0.101545)
(2.0981e-06 -5.59578e-05 0.112298)
(3.40495e-06 1.76319e-05 0.0992937)
(2.82193e-05 -5.90314e-05 0.112379)
(-4.37026e-05 8.06652e-05 0.114447)
(2.48088e-05 -2.51375e-05 0.109923)
(-1.17646e-05 1.93991e-05 0.102102)
(1.09087e-05 -2.06827e-05 0.102124)
(3.90513e-05 -8.4916e-05 0.114437)
(-2.95523e-05 6.10288e-05 0.112402)
(5.8039e-05 -3.11634e-05 0.112348)
(-8.15834e-05 4.30707e-05 0.114419)
(2.59397e-05 -2.53119e-05 0.109776)
(-1.87603e-05 1.08756e-05 0.102143)
(8.12222e-05 -4.30113e-05 0.114391)
(2.09235e-05 -1.17486e-05 0.102126)
(-6.06815e-05 2.89545e-05 0.112395)
(2.03923e-05 -2.37659e-05 0.106116)
(-9.66588e-06 9.11671e-06 0.0926926)
(-9.97088e-06 7.94906e-06 0.0926274)
(8.73352e-06 -1.31353e-05 0.0927157)
(1.09311e-05 -9.31199e-06 0.0926441)
(-2.19823e-05 2.00662e-05 0.106152)
(1.40181e-05 -8.71119e-06 0.0933219)
(1.76782e-05 3.11357e-06 0.0990054)
(5.2618e-05 -4.30753e-07 0.112809)
(1.83455e-05 8.76228e-07 0.101219)
(5.21854e-05 -1.80372e-06 0.112134)
(-1.76992e-05 -1.90545e-06 0.0912679)
(-3.60097e-05 7.41936e-06 0.102587)
(4.26373e-05 -4.51601e-06 0.109132)
(-4.4848e-05 5.97685e-06 0.109107)
(1.61077e-05 1.86363e-06 0.0912352)
(1.58101e-05 1.95491e-06 0.0912379)
(3.4653e-05 -5.94463e-06 0.102574)
(4.23753e-05 -4.43226e-06 0.109132)
(-1.98695e-05 -3.41213e-06 0.0989969)
(-5.3776e-05 3.5968e-07 0.112763)
(1.85551e-05 7.92939e-07 0.101217)
(5.23384e-05 -1.806e-06 0.112135)
(-1.95348e-05 -1.04356e-06 0.101208)
(-5.48979e-05 2.20224e-06 0.112086)
(1.79735e-05 3.07273e-06 0.0990035)
(1.69781e-05 2.45652e-06 0.091266)
(3.56929e-05 -6.51902e-06 0.102587)
(-4.26632e-05 5.51456e-06 0.109132)
(4.41326e-05 -4.9102e-06 0.109108)
(-1.65931e-05 -1.37894e-06 0.0912331)
(1.84273e-05 3.72528e-06 0.0989969)
(5.28304e-05 -5.17529e-07 0.112765)
(-5.34837e-05 2.3571e-06 0.112135)
(-1.90158e-05 -8.77299e-07 0.101217)
(5.30991e-05 -1.83998e-06 0.112087)
(1.88955e-05 1.046e-06 0.101208)
(-1.92703e-05 -2.7015e-06 0.0990037)
(1.70263e-05 -1.92224e-06 0.0912658)
(3.54447e-05 7.05296e-06 0.102586)
(-4.29064e-05 -4.99172e-06 0.109133)
(4.42059e-05 5.51173e-06 0.109107)
(-1.66807e-05 1.84377e-06 0.0912342)
(1.88362e-05 -3.59503e-06 0.0989956)
(5.28369e-05 2.68096e-07 0.112765)
(-1.89958e-05 7.78724e-07 0.101216)
(-5.27322e-05 -2.13009e-06 0.112136)
(1.88966e-05 -1.16431e-06 0.101207)
(5.40615e-05 1.89781e-06 0.112087)
(-1.89598e-05 2.82636e-06 0.0990032)
(-6.23291e-05 3.13193e-05 0.112349)
(8.4219e-05 -4.53816e-05 0.114419)
(-2.69179e-05 2.39961e-05 0.109784)
(1.84554e-05 -1.12276e-05 0.102053)
(-2.21526e-05 1.21447e-05 0.10206)
(-7.84824e-05 4.13214e-05 0.114396)
(6.00143e-05 -2.97441e-05 0.112382)
(-3.01569e-05 6.42503e-05 0.112374)
(4.21125e-05 -8.03052e-05 0.114446)
(-2.6937e-05 2.42856e-05 0.109912)
(1.12617e-05 -1.94148e-05 0.102194)
(-4.23291e-05 8.3725e-05 0.114427)
(-1.10719e-05 1.90886e-05 0.10219)
(2.93586e-05 -5.9007e-05 0.112411)
(-2.23803e-05 2.15879e-05 0.106115)
(8.50069e-06 -9.5439e-06 0.0926287)
(8.03861e-06 -1.09859e-05 0.0926925)
(-1.21535e-05 9.57135e-06 0.0926529)
(-8.90772e-06 9.60465e-06 0.092707)
(1.92345e-05 -2.18161e-05 0.106153)
(-8.6632e-06 1.34605e-05 0.0934775)
(2.27221e-06 1.662e-05 0.0915583)
(-5.84862e-06 3.68063e-05 0.102811)
(4.52647e-06 -4.37234e-05 0.109374)
(-4.61569e-06 4.53648e-05 0.109386)
(-1.75711e-06 -1.63634e-05 0.0914998)
(3.74007e-06 1.80772e-05 0.099319)
(-3.86438e-07 5.62679e-05 0.112945)
(1.67159e-06 -5.55239e-05 0.112302)
(-9.42311e-07 -1.80577e-05 0.101519)
(-1.38795e-06 5.5696e-05 0.112297)
(1.04291e-06 1.87213e-05 0.101544)
(-2.91725e-06 -1.84891e-05 0.0992902)
(-1.99544e-06 1.66786e-05 0.0915574)
(6.19284e-06 3.70469e-05 0.102811)
(-4.15073e-06 -4.36446e-05 0.109374)
(5.02097e-06 4.54717e-05 0.109386)
(2.03836e-06 -1.63213e-05 0.0914998)
(-3.50051e-06 1.80823e-05 0.0993203)
(5.96344e-07 5.62758e-05 0.112945)
(-1.46569e-06 -5.54117e-05 0.112302)
(1.12667e-06 -1.80328e-05 0.101519)
(1.60972e-06 5.57838e-05 0.112297)
(-8.49561e-07 1.86974e-05 0.101545)
(3.17108e-06 -1.84188e-05 0.0992916)
(1.34273e-05 8.97347e-06 0.0933208)
(8.5253e-06 1.35082e-05 0.0934813)
(1.81944e-07 -4.31152e-07 0.115658)
(5.07117e-07 1.31649e-06 0.115658)
(-6.45412e-07 4.55269e-07 0.115659)
(7.86518e-05 7.90463e-05 0.114649)
(-6.82265e-05 -0.000261861 0.115296)
(-0.000256928 -6.74729e-05 0.115302)
(0.00027222 0.000275718 0.115559)
(6.64692e-05 0.000262398 0.115288)
(0.000256367 6.87724e-05 0.115296)
(-7.53178e-05 -7.4617e-05 0.114664)
(-7.886e-05 -7.87024e-05 0.114648)
(0.000260909 6.87638e-05 0.115302)
(6.72289e-05 0.000257999 0.115295)
(-0.000272066 -0.000275946 0.115559)
(-0.000259745 -6.90866e-05 0.115297)
(-6.62712e-05 -0.00025883 0.115287)
(7.52513e-05 7.37233e-05 0.114664)
(8.33726e-05 -8.05339e-05 0.114648)
(-0.00026179 6.95306e-05 0.1153)
(-6.61656e-05 0.000261396 0.115294)
(0.000270558 -0.000271926 0.115559)
(6.65503e-05 -0.000267013 0.115288)
(0.000265996 -6.88084e-05 0.115296)
(-7.56293e-05 7.47042e-05 0.114669)
(-7.81484e-05 8.11401e-05 0.11465)
(6.98182e-05 -0.000265444 0.115295)
(0.000260475 -6.65948e-05 0.115301)
(-0.000272659 0.000275634 0.115559)
(-0.000260459 7.0352e-05 0.115296)
(-6.63946e-05 0.000263094 0.115287)
(7.60907e-05 -7.72402e-05 0.114666)
(-2.65702e-08 -5.66747e-07 0.115658)
(-3.92988e-07 1.30707e-06 0.115658)
(6.70109e-07 4.00415e-07 0.115659)
(-1.65407e-07 -1.5055e-06 0.115658)
(1.32683e-07 -4.5072e-07 0.115658)
(-7.64715e-07 -6.33185e-07 0.115659)
(3.62429e-07 -1.36078e-06 0.115658)
(-4.05519e-08 -5.01613e-07 0.115658)
(8.53229e-07 -6.82663e-07 0.115659)
(0.000322431 -6.35943e-06 0.115374)
(-0.000295238 1.85209e-05 0.115082)
(6.97529e-05 -2.34079e-05 0.113176)
(-8.22287e-05 7.06356e-06 0.11443)
(0.000290133 -1.94501e-05 0.11507)
(8.36426e-05 -7.77074e-06 0.114406)
(-0.000317983 4.45859e-06 0.115381)
(0.000318822 -4.34672e-06 0.115482)
(8.46745e-05 -6.60917e-07 0.115052)
(-8.6677e-05 1.75668e-06 0.114923)
(-0.000319244 -1.98934e-07 0.115528)
(8.54217e-05 -2.18371e-06 0.114901)
(0.000319883 -9.18652e-07 0.115521)
(-0.000322837 2.15992e-06 0.115489)
(3.7919e-06 0.000318448 0.115403)
(1.3942e-05 -0.000291473 0.115109)
(-2.41797e-05 6.74661e-05 0.11329)
(8.69556e-06 -7.86959e-05 0.114498)
(-1.20832e-05 0.000288014 0.115106)
(-7.92625e-06 8.07937e-05 0.114495)
(-1.63796e-06 -0.000312191 0.115403)
(4.99844e-06 0.000312306 0.115507)
(-8.44004e-07 8.10188e-05 0.115114)
(-1.68033e-06 -0.000312531 0.115543)
(3.23641e-06 -8.26049e-05 0.114975)
(1.40033e-06 0.000313487 0.115543)
(-2.30232e-06 8.18022e-05 0.114972)
(-3.95215e-06 -0.000316832 0.115506)
(4.80608e-06 -0.000313136 0.115403)
(1.34028e-05 0.000290871 0.115107)
(-2.40415e-05 -6.70298e-05 0.113288)
(7.23826e-06 7.71481e-05 0.114497)
(-8.56094e-06 -7.84275e-05 0.114494)
(-9.81278e-06 -0.000284971 0.115104)
(-3.39014e-06 0.000311122 0.115403)
(3.97529e-06 -0.000313697 0.115508)
(-8.35856e-07 -8.07045e-05 0.115114)
(2.80837e-06 7.94817e-05 0.114976)
(-4.30887e-07 0.000309996 0.115544)
(-3.15458e-06 -8.14431e-05 0.114972)
(9.93755e-07 -0.000312201 0.115544)
(-2.90655e-06 0.000310823 0.115508)
(-5.19344e-06 -0.000313276 0.115404)
(-1.32655e-05 0.000290017 0.115109)
(2.37545e-05 -6.66275e-05 0.113292)
(-7.22802e-06 7.65996e-05 0.114498)
(8.51055e-06 -7.85944e-05 0.114496)
(8.70311e-06 -0.000284378 0.115107)
(2.72872e-06 0.000310277 0.115403)
(-4.31351e-06 -0.000314052 0.115508)
(1.12394e-06 -8.07872e-05 0.115114)
(-2.80507e-06 7.90848e-05 0.114976)
(2.12349e-07 0.000309848 0.115544)
(3.20621e-06 -8.15925e-05 0.114973)
(-1.00405e-06 -0.000312347 0.115544)
(2.32039e-06 0.000310414 0.115508)
(-0.000322388 -6.31797e-06 0.115374)
(0.000294723 1.80239e-05 0.115083)
(-7.04532e-05 -2.41323e-05 0.113176)
(8.16443e-05 6.77598e-06 0.114429)
(-8.43367e-05 -8.0576e-06 0.114405)
(-0.000289875 -1.93258e-05 0.115071)
(0.000317863 4.46911e-06 0.115381)
(-0.000318661 -4.17951e-06 0.115482)
(-8.48529e-05 -6.50035e-07 0.115051)
(8.64654e-05 1.76165e-06 0.114922)
(0.00031953 -7.21221e-08 0.115528)
(-8.57587e-05 -2.19623e-06 0.1149)
(-0.000319743 -8.33716e-07 0.115521)
(0.000323071 2.29037e-06 0.115489)
(-0.000319445 6.22853e-06 0.115373)
(0.000293858 -1.9668e-05 0.115081)
(-7.07253e-05 2.41791e-05 0.113175)
(8.28881e-05 -5.97592e-06 0.114429)
(-8.53808e-05 8.98915e-06 0.114405)
(-0.000288012 1.97015e-05 0.11507)
(0.000317415 -4.51553e-06 0.115381)
(-0.000321009 3.32436e-06 0.115483)
(-8.49475e-05 1.67553e-07 0.115051)
(0.000319094 7.9352e-07 0.115528)
(8.56929e-05 -1.31144e-06 0.114923)
(-0.000318576 2.44043e-07 0.115521)
(-8.7366e-05 2.24181e-06 0.1149)
(0.000318972 -1.40349e-06 0.11549)
(0.000319454 6.4603e-06 0.115374)
(-0.000293829 -1.94127e-05 0.115081)
(6.97728e-05 2.39279e-05 0.113175)
(-8.33782e-05 -6.39909e-06 0.11443)
(0.000288403 2.04461e-05 0.115069)
(8.46392e-05 8.63035e-06 0.114406)
(-0.000317324 -4.49722e-06 0.115381)
(0.000321111 3.52336e-06 0.115483)
(8.47008e-05 2.0392e-07 0.115052)
(-0.000318886 8.44678e-07 0.115528)
(-8.59772e-05 -1.4302e-06 0.114923)
(0.000318667 3.39728e-07 0.115521)
(8.69591e-05 2.18148e-06 0.114901)
(-0.000318836 -1.35471e-06 0.11549)
(-3.99685e-06 0.000318638 0.115404)
(-1.36734e-05 -0.000291588 0.115109)
(2.41843e-05 6.74974e-05 0.113291)
(-8.47074e-06 -7.83043e-05 0.114498)
(1.12548e-05 0.000287416 0.115107)
(8.0575e-06 8.10969e-05 0.114495)
(2.03906e-06 -0.000311886 0.115403)
(-5.17475e-06 0.000312333 0.115507)
(9.37177e-07 8.10737e-05 0.115114)
(1.77553e-06 -0.000312509 0.115543)
(-3.16502e-06 -8.25388e-05 0.114975)
(-1.38745e-06 0.000313475 0.115543)
(2.35617e-06 8.19009e-05 0.114972)
(3.76743e-06 -0.000316762 0.115506)
(1.29213e-06 9.41401e-06 0.0702278)
(6.88705e-07 4.12148e-06 0.0505207)
(3.80185e-07 1.71511e-06 0.0325092)
(1.74553e-07 5.41338e-07 0.0174123)
(6.31826e-08 9.33189e-08 0.00532809)
(-4.4976e-06 5.35651e-06 0.0727022)
(-2.52693e-06 2.03387e-06 0.0522859)
(-1.44812e-06 6.3451e-07 0.0336609)
(-7.27446e-07 7.14712e-08 0.0180463)
(-2.30361e-07 -2.54994e-08 0.00553058)
(9.0545e-06 2.32455e-06 0.0703266)
(3.86924e-06 1.38867e-06 0.0505806)
(1.54753e-06 8.17567e-07 0.0325434)
(4.51135e-07 4.03239e-07 0.0174288)
(6.74031e-08 1.29236e-07 0.00533277)
(5.10588e-06 -5.20836e-06 0.0727453)
(2.01073e-06 -2.91997e-06 0.0523115)
(6.34248e-07 -1.62855e-06 0.0336759)
(6.35333e-08 -7.98273e-07 0.0180542)
(-2.90143e-08 -2.43929e-07 0.005533)
(4.89042e-06 4.95539e-06 0.0727044)
(2.85334e-06 1.83371e-06 0.0522876)
(1.68006e-06 5.07225e-07 0.0336621)
(8.7024e-07 -6.84281e-09 0.0180478)
(2.84997e-07 -5.54388e-08 0.00553153)
(4.61047e-06 5.74728e-06 0.0727466)
(1.53762e-06 3.49583e-06 0.0523115)
(3.0596e-07 2.10482e-06 0.0336752)
(-1.19282e-07 1.09836e-06 0.0180531)
(-8.91861e-08 3.52063e-07 0.00553252)
(-9.08357e-07 9.39572e-06 0.0702266)
(-3.32956e-07 4.1056e-06 0.0505207)
(-1.16906e-07 1.73667e-06 0.0325093)
(-1.55465e-08 5.80995e-07 0.0174118)
(-5.30848e-09 1.14891e-07 0.00532778)
(-4.3144e-06 5.90805e-06 0.0727448)
(-1.28154e-06 3.63715e-06 0.0523121)
(-1.5037e-07 2.24551e-06 0.0336771)
(1.92594e-07 1.1957e-06 0.0180553)
(1.08179e-07 3.85522e-07 0.00553368)
(9.18794e-06 -2.00451e-06 0.0703272)
(3.99707e-06 -1.06609e-06 0.0505818)
(1.65868e-06 -5.38094e-07 0.0325444)
(5.2718e-07 -2.12534e-07 0.0174289)
(9.72052e-08 -5.39471e-08 0.0053326)
(-9.04989e-06 2.50076e-06 0.0703262)
(-3.78155e-06 1.50773e-06 0.0505817)
(-1.47341e-06 9.23033e-07 0.0325453)
(-4.1263e-07 4.78203e-07 0.0174306)
(-5.61847e-08 1.57241e-07 0.00533347)
(-9.17404e-06 -2.19874e-06 0.0703272)
(-3.89883e-06 -1.23592e-06 0.0505818)
(-1.5657e-06 -7.02359e-07 0.0325456)
(-4.70391e-07 -3.36326e-07 0.0174309)
(-7.64455e-08 -1.06304e-07 0.00533384)
(5.37494e-06 -4.69675e-06 0.0727045)
(3.37442e-06 -1.42706e-06 0.0522883)
(2.15788e-06 -1.86837e-07 0.0336633)
(1.19077e-06 1.95896e-07 0.0180482)
(3.9597e-07 1.1562e-07 0.00553153)
(1.80216e-06 -9.35309e-06 0.0702291)
(1.09714e-06 -3.9889e-06 0.0505227)
(7.03568e-07 -1.58628e-06 0.0325108)
(3.81447e-07 -4.59822e-07 0.017413)
(1.3257e-07 -6.69958e-08 0.00532803)
(-1.43463e-06 -9.43637e-06 0.0702294)
(-7.46156e-07 -4.08084e-06 0.0505234)
(-3.99807e-07 -1.68802e-06 0.0325116)
(-1.75507e-07 -5.36711e-07 0.0174129)
(-5.69137e-08 -9.67539e-08 0.00532792)
(-4.8029e-06 -5.53648e-06 0.0727441)
(-1.63678e-06 -3.27709e-06 0.0523115)
(-3.84046e-07 -1.93559e-06 0.0336767)
(6.4601e-08 -9.92569e-07 0.0180549)
(6.78263e-08 -3.12842e-07 0.00553323)
(-4.87414e-06 -5.10618e-06 0.0727053)
(-2.78929e-06 -1.87447e-06 0.0522886)
(-1.61314e-06 -5.41084e-07 0.0336628)
(-8.17577e-07 -2.34112e-08 0.0180474)
(-2.58825e-07 3.9604e-08 0.00553085)
(2.0496e-06 -9.48215e-06 0.0727833)
(1.93651e-06 -4.62247e-06 0.0523872)
(1.55774e-06 -2.10528e-06 0.0337414)
(1.00543e-06 -8.07099e-07 0.0180948)
(3.59513e-07 -2.01723e-07 0.00554692)
(-2.136e-06 -9.18648e-06 0.0702948)
(-1.2365e-06 -3.89199e-06 0.050573)
(-7.23061e-07 -1.55609e-06 0.0325425)
(-3.57509e-07 -4.57973e-07 0.0174296)
(-1.12244e-07 -7.27332e-08 0.00533325)
(4.79514e-06 -4.81203e-06 0.072754)
(2.68106e-06 -1.6359e-06 0.0523254)
(1.5302e-06 -4.08945e-07 0.0336856)
(7.78685e-07 2.2275e-08 0.0180589)
(2.50625e-07 4.37274e-08 0.00553425)
(5.7107e-06 -2.62687e-06 0.0719194)
(2.60596e-06 -2.08175e-06 0.0516409)
(1.20741e-06 -1.50027e-06 0.0332065)
(4.70048e-07 -9.0319e-07 0.0177846)
(1.25483e-07 -3.05758e-07 0.00544428)
(4.84153e-06 -7.62037e-07 0.0718817)
(2.10486e-06 -5.78576e-07 0.0516388)
(9.22873e-07 -3.96159e-07 0.0332213)
(3.22765e-07 -2.25502e-07 0.0178006)
(7.97969e-08 -6.96679e-08 0.00545195)
(-9.78236e-06 3.08174e-06 0.0727874)
(-4.82436e-06 2.72203e-06 0.0523937)
(-2.24691e-06 2.07849e-06 0.0337461)
(-8.85596e-07 1.29323e-06 0.0180972)
(-2.26422e-07 4.50304e-07 0.00554761)
(-9.59794e-06 -1.95654e-06 0.0703906)
(-4.14135e-06 -9.42869e-07 0.0506331)
(-1.70165e-06 -4.72277e-07 0.0325773)
(-5.3284e-07 -1.98274e-07 0.0174466)
(-9.50251e-08 -5.78536e-08 0.00533807)
(8.92254e-06 2.23322e-06 0.070328)
(3.79489e-06 1.29643e-06 0.0505814)
(1.52556e-06 7.50095e-07 0.0325438)
(4.51701e-07 3.66891e-07 0.017429)
(7.05447e-08 1.19045e-07 0.00533281)
(-5.26034e-06 4.97252e-06 0.0727947)
(-1.8241e-06 2.88157e-06 0.0523513)
(-4.88493e-07 1.66805e-06 0.0337014)
(1.25169e-09 8.38509e-07 0.0180675)
(4.35748e-08 2.63868e-07 0.00553697)
(5.05005e-06 -5.18658e-06 0.0727471)
(1.79285e-06 -3.04832e-06 0.0523123)
(4.59484e-07 -1.79979e-06 0.0336762)
(-3.19065e-08 -9.27619e-07 0.0180543)
(-5.81822e-08 -2.94013e-07 0.00553299)
(-5.14353e-06 -3.80523e-06 0.0706317)
(-2.01657e-06 -1.91912e-06 0.0507712)
(-7.32949e-07 -9.6326e-07 0.0326566)
(-1.86665e-07 -4.07948e-07 0.0174868)
(-2.91175e-08 -1.1007e-07 0.00535027)
(5.781e-06 3.13431e-06 0.0706736)
(2.39035e-06 1.35962e-06 0.0508062)
(9.65604e-07 5.73646e-07 0.0326791)
(3.1578e-07 1.91881e-07 0.0174984)
(7.09147e-08 4.48811e-08 0.00535367)
(-3.26196e-06 -5.55854e-06 0.0705884)
(-1.47122e-06 -2.35344e-06 0.0507467)
(-6.42674e-07 -9.58675e-07 0.0326428)
(-2.22763e-07 -3.14628e-07 0.01748)
(-4.94844e-08 -7.08451e-08 0.00534826)
(3.13328e-06 5.79991e-06 0.0706329)
(1.32729e-06 2.42994e-06 0.0507825)
(5.36894e-07 9.85716e-07 0.0326655)
(1.70515e-07 3.26505e-07 0.0174917)
(3.88606e-08 7.40445e-08 0.00535168)
(-4.5141e-06 -4.40782e-06 0.0731089)
(-1.90107e-06 -2.20166e-06 0.0524936)
(-7.08063e-07 -1.02185e-06 0.0337633)
(-1.86892e-07 -3.88388e-07 0.0180914)
(-3.0325e-08 -9.47493e-08 0.00554232)
(-4.02591e-06 -4.92955e-06 0.0731111)
(-1.86889e-06 -2.23132e-06 0.0524941)
(-7.82838e-07 -9.31293e-07 0.0337636)
(-2.52048e-07 -3.10153e-07 0.0180913)
(-5.16775e-08 -6.84551e-08 0.00554215)
(4.87125e-06 4.17816e-06 0.0731517)
(1.95004e-06 1.98951e-06 0.0525294)
(6.81357e-07 9.13162e-07 0.0337862)
(1.57955e-07 3.60761e-07 0.0181032)
(1.8275e-08 9.96453e-08 0.00554577)
(4.29414e-06 4.86342e-06 0.0731557)
(2.06838e-06 1.93648e-06 0.0525307)
(9.61887e-07 6.58539e-07 0.0337869)
(3.8789e-07 1.39652e-07 0.0181032)
(1.08593e-07 1.10457e-08 0.00554565)
(-4.47462e-06 -5.28563e-06 0.0727553)
(-2.43353e-06 -1.98672e-06 0.0523269)
(-1.34637e-06 -6.30721e-07 0.033687)
(-6.56928e-07 -8.68008e-08 0.0180607)
(-2.007e-07 1.18724e-08 0.00553539)
(-5.62484e-06 -4.7076e-06 0.0727944)
(-2.13013e-06 -2.57139e-06 0.0523507)
(-6.76697e-07 -1.42688e-06 0.0337005)
(-9.15756e-08 -6.97226e-07 0.0180663)
(1.62154e-08 -2.1446e-07 0.00553647)
(4.43177e-06 5.68103e-06 0.0727486)
(1.4146e-06 3.41781e-06 0.0523126)
(2.55387e-07 2.05027e-06 0.0336758)
(-1.29479e-07 1.07175e-06 0.0180533)
(-8.76995e-08 3.45643e-07 0.00553258)
(2.40192e-06 -8.9695e-06 0.0702935)
(1.45863e-06 -3.71194e-06 0.0505729)
(8.89781e-07 -1.43047e-06 0.0325423)
(4.69402e-07 -3.91744e-07 0.0174288)
(1.59467e-07 -5.16947e-08 0.00533278)
(-4.41422e-06 3.42223e-06 0.0706322)
(-1.57722e-06 1.80394e-06 0.0507718)
(-4.9794e-07 1.01364e-06 0.0326576)
(-7.25403e-08 4.89784e-07 0.0174876)
(4.122e-09 1.50209e-07 0.00535054)
(5.85779e-06 -3.17826e-06 0.0706703)
(2.46717e-06 -1.20454e-06 0.0508051)
(1.01165e-06 -3.65264e-07 0.0326794)
(3.67413e-07 -5.34673e-08 0.0174989)
(9.81436e-08 2.90584e-09 0.00535388)
(-4.81803e-06 3.15679e-06 0.0731088)
(-2.22226e-06 1.36247e-06 0.0524937)
(-9.71881e-07 5.30804e-07 0.033764)
(-3.50791e-07 1.47313e-07 0.0180916)
(-8.74541e-08 2.60982e-08 0.00554229)
(4.93999e-06 -5.07296e-06 0.0731526)
(1.80233e-06 -2.54459e-06 0.0525303)
(5.68772e-07 -1.18962e-06 0.0337875)
(1.128e-07 -4.6021e-07 0.0181037)
(1.01979e-08 -1.13453e-07 0.00554586)
(5.61959e-06 -4.34231e-06 0.0727919)
(2.12084e-06 -2.20106e-06 0.052351)
(6.76537e-07 -1.18095e-06 0.0337019)
(9.99661e-08 -5.93725e-07 0.0180681)
(-1.23571e-08 -1.97553e-07 0.00553745)
(5.58077e-06 2.79872e-06 0.0719198)
(2.552e-06 2.20915e-06 0.0516409)
(1.19121e-06 1.58485e-06 0.0332065)
(4.69338e-07 9.53388e-07 0.0177848)
(1.2799e-07 3.27287e-07 0.00544434)
(4.8489e-06 7.49435e-07 0.0718814)
(2.10822e-06 5.70438e-07 0.0516386)
(9.24753e-07 3.90573e-07 0.0332211)
(3.23754e-07 2.25368e-07 0.0178004)
(8.03275e-08 7.49054e-08 0.00545189)
(-9.70407e-06 -2.44014e-06 0.0727878)
(-4.72817e-06 -2.18888e-06 0.052394)
(-2.16484e-06 -1.69587e-06 0.0337466)
(-8.30729e-07 -1.06643e-06 0.0180974)
(-2.05004e-07 -3.69118e-07 0.00554731)
(-9.41342e-06 2.38354e-06 0.0703909)
(-3.98427e-06 1.34707e-06 0.050634)
(-1.57364e-06 7.94698e-07 0.032578)
(-4.50251e-07 4.05162e-07 0.0174465)
(-6.41323e-08 1.3634e-07 0.00533786)
(9.03344e-06 -1.67388e-06 0.0703286)
(3.91905e-06 -8.39478e-07 0.0505826)
(1.63141e-06 -4.24871e-07 0.0325447)
(5.21359e-07 -1.73503e-07 0.017429)
(9.75896e-08 -4.85747e-08 0.00533263)
(9.41239e-06 -1.67841e-06 0.0703898)
(4.04075e-06 -6.94089e-07 0.0506339)
(1.66639e-06 -2.94233e-07 0.0325788)
(5.33673e-07 -1.09554e-07 0.0174479)
(9.96453e-08 -3.73862e-08 0.0053386)
(9.37197e-06 -2.67509e-06 0.0727869)
(4.52108e-06 -2.49629e-06 0.0523939)
(2.08349e-06 -1.95211e-06 0.0337467)
(8.24403e-07 -1.22255e-06 0.0180979)
(2.14707e-07 -4.22839e-07 0.00554788)
(9.19983e-06 2.12735e-06 0.0703903)
(3.87014e-06 1.08502e-06 0.0506336)
(1.54468e-06 5.82719e-07 0.0325789)
(4.63517e-07 2.78386e-07 0.0174481)
(7.71283e-08 9.35721e-08 0.00533892)
(3.44881e-06 -5.57485e-06 0.0705873)
(1.45808e-06 -2.19576e-06 0.0507469)
(6.90571e-07 -8.12758e-07 0.0326437)
(3.04275e-07 -2.20073e-07 0.0174813)
(9.24793e-08 -3.5838e-08 0.00534913)
(-2.83849e-06 5.32063e-06 0.0706232)
(-1.09454e-06 2.34611e-06 0.050777)
(-3.17492e-07 1.04392e-06 0.0326631)
(-1.25205e-08 4.08357e-07 0.0174913)
(2.31747e-08 1.12765e-07 0.00535206)
(2.25344e-06 -5.76561e-06 0.0731124)
(2.6045e-07 -3.06716e-06 0.0524941)
(-3.12505e-07 -1.62635e-06 0.0337631)
(-3.39322e-07 -7.46596e-07 0.0180916)
(-1.3114e-07 -2.20565e-07 0.00554254)
(-4.28073e-06 5.2679e-06 0.0727542)
(-2.13002e-06 2.01383e-06 0.0523271)
(-1.08931e-06 6.74437e-07 0.0336877)
(-5.13167e-07 1.27909e-07 0.0180606)
(-1.63032e-07 3.75067e-09 0.00553519)
(2.85375e-06 9.45053e-06 0.0727809)
(2.63473e-06 4.59224e-06 0.0523856)
(2.06069e-06 2.12049e-06 0.0337406)
(1.289e-06 8.44633e-07 0.0180943)
(4.45269e-07 2.21515e-07 0.00554674)
(-1.70282e-06 9.16464e-06 0.0702961)
(-8.31252e-07 3.88903e-06 0.0505752)
(-4.15325e-07 1.58856e-06 0.032544)
(-1.82142e-07 4.97562e-07 0.01743)
(-6.23006e-08 8.92894e-08 0.00533306)
(-2.55536e-06 9.46134e-06 0.0727807)
(-2.36523e-06 4.55838e-06 0.052386)
(-1.85168e-06 2.07864e-06 0.0337411)
(-1.16076e-06 8.13856e-07 0.0180945)
(-4.01502e-07 2.1005e-07 0.00554666)
(2.06651e-06 9.0928e-06 0.0702965)
(1.19557e-06 3.79075e-06 0.0505758)
(7.1876e-07 1.4872e-06 0.0325447)
(3.7886e-07 4.24414e-07 0.0174299)
(1.33067e-07 6.21097e-08 0.00533292)
(5.12813e-06 4.70296e-06 0.072791)
(1.79523e-06 2.55235e-06 0.0523498)
(4.94528e-07 1.42625e-06 0.0337011)
(2.06722e-08 7.15404e-07 0.0180674)
(-3.06076e-08 2.29242e-07 0.0055369)
(4.55641e-06 5.04911e-06 0.0727566)
(2.50715e-06 1.74488e-06 0.0523281)
(1.42416e-06 4.62992e-07 0.0336874)
(7.29697e-07 2.77344e-09 0.01806)
(2.39566e-07 -3.74331e-08 0.00553452)
(-2.08555e-06 -9.29335e-06 0.0727814)
(-2.02424e-06 -4.45014e-06 0.0523869)
(-1.61567e-06 -2.00716e-06 0.0337415)
(-1.02392e-06 -7.73941e-07 0.0180944)
(-3.57765e-07 -1.97251e-07 0.00554681)
(9.44585e-06 3.16798e-06 0.0727864)
(4.60376e-06 2.9028e-06 0.0523939)
(2.14827e-06 2.23807e-06 0.033747)
(8.64113e-07 1.38365e-06 0.0180978)
(2.2841e-07 4.74647e-07 0.00554768)
(2.6366e-06 -6.338e-06 0.0718455)
(2.2074e-06 -2.91306e-06 0.0516016)
(1.67667e-06 -1.33081e-06 0.0331855)
(1.04824e-06 -5.13152e-07 0.0177741)
(3.6866e-07 -1.34895e-07 0.00544085)
(-1.49659e-06 4.96007e-06 0.0717501)
(-1.20251e-06 2.19508e-06 0.0515597)
(-7.82818e-07 9.64784e-07 0.0331756)
(-4.13606e-07 3.38694e-07 0.0177772)
(-1.25806e-07 8.27641e-08 0.00544461)
(4.82166e-07 -5.40321e-06 0.0717902)
(5.20526e-07 -2.29341e-06 0.0515903)
(4.83144e-07 -9.70696e-07 0.0331947)
(3.30506e-07 -3.33797e-07 0.0177871)
(1.17889e-07 -8.12978e-08 0.00544755)
(-3.35737e-06 5.82292e-06 0.0718033)
(-2.65668e-06 2.74236e-06 0.0515692)
(-1.88987e-06 1.27288e-06 0.033165)
(-1.12042e-06 5.00314e-07 0.0177635)
(-3.77022e-07 1.34587e-07 0.00543766)
(-2.79027e-06 9.2264e-06 0.0727161)
(-2.47581e-06 4.60796e-06 0.0523362)
(-1.90538e-06 2.14141e-06 0.0337093)
(-1.18539e-06 8.42158e-07 0.0180781)
(-4.05546e-07 2.13595e-07 0.00554193)
(-3.42038e-06 5.22659e-06 0.0705903)
(-1.63703e-06 2.18588e-06 0.0507486)
(-7.7916e-07 8.44923e-07 0.0326446)
(-3.12426e-07 2.45907e-07 0.0174815)
(-8.22921e-08 4.72729e-08 0.00534895)
(2.5881e-06 -5.50967e-06 0.0706389)
(9.4582e-07 -2.4086e-06 0.0507866)
(3.41501e-07 -1.0856e-06 0.0326684)
(7.32516e-08 -3.94783e-07 0.0174937)
(8.83902e-09 -9.54249e-08 0.0053525)
(-4.57057e-06 3.99799e-06 0.0731111)
(-2.39854e-06 1.54345e-06 0.0524939)
(-1.19409e-06 4.81015e-07 0.0337638)
(-5.05701e-07 6.25049e-08 0.0180922)
(-1.3987e-07 -1.1181e-08 0.00554285)
(3.43749e-06 -5.77759e-06 0.0731556)
(1.40676e-06 -2.57381e-06 0.0525307)
(5.0983e-07 -1.08841e-06 0.0337874)
(1.35553e-07 -3.72291e-07 0.0181044)
(2.83503e-08 -8.22368e-08 0.00554643)
(8.97648e-06 -1.76483e-06 0.0727277)
(4.38829e-06 -1.67431e-06 0.0523447)
(2.00086e-06 -1.35242e-06 0.0337145)
(7.61173e-07 -8.73066e-07 0.0180806)
(1.86804e-07 -3.05181e-07 0.00554264)
(-6.19996e-06 3.39652e-06 0.0719509)
(-2.88242e-06 2.72498e-06 0.0516691)
(-1.34917e-06 1.97315e-06 0.0332252)
(-5.30451e-07 1.19209e-06 0.0177945)
(-1.41601e-07 4.10325e-07 0.00544726)
(5.0211e-06 -8.13387e-07 0.0718799)
(2.2366e-06 -6.25617e-07 0.0516377)
(9.85085e-07 -4.35676e-07 0.0332207)
(3.41588e-07 -2.5313e-07 0.0178002)
(8.16201e-08 -8.07034e-08 0.00545186)
(-5.3038e-06 9.58543e-07 0.0719122)