/*--------------------------------*- C++ -*----------------------------------*\
| =========                 |                                                 |
| \\      /  F ield         | OpenFOAM: The Open Source CFD Toolbox           |
|  \\    /   O peration     | Version:  2206                                  |
|   \\  /    A nd           | Website:  www.openfoam.com                      |
|    \\/     M anipulation  |                                                 |
\*---------------------------------------------------------------------------*/
FoamFile
{
    version     2.0;
    format      ascii;
    arch        "LSB;label=32;scalar=64";
    class       volVectorField;
    location    "0.1";
    object      wallShearStress;
}
// * * * * * * * * * * * * * * * * * * * * * * * * * * * * * * * * * * * * * //

dimensions      [0 2 -2 0 0 0 0];

internalField   uniform (0 0 0);

boundaryField
{
    topPatch
    {
        type            calculated;
        value           nonuniform List<vector> 0();
    }
    wall
    {
        type            calculated;
        value           nonuniform List<vector> 
7803
(
(-3.09391e-09 -5.30076e-09 -0.00020357)
(9.37089e-09 -3.08551e-11 -0.000211424)
(-4.29574e-09 -5.63004e-09 -0.000203767)
(-1.61682e-11 9.97041e-09 -0.000211498)
(-1.14752e-08 1.10233e-09 -0.000211416)
(2.38518e-09 -1.40596e-08 -0.000211498)
(8.26516e-10 -6.00488e-09 -0.000203576)
(-3.22243e-09 -1.52831e-08 -0.000211507)
(-5.4571e-09 2.73681e-09 -0.000203771)
(3.8097e-09 -6.6839e-09 -0.000203775)
(4.60538e-09 4.73017e-09 -0.000203782)
(-1.5672e-08 -3.50867e-09 -0.000211432)
(-5.76044e-09 4.26695e-09 -0.000203579)
(2.83637e-09 5.38467e-09 -0.000203582)
(-1.58392e-09 1.25414e-08 -0.000211508)
(1.04576e-08 -5.16754e-10 -0.000211434)
(-1.33752e-08 9.26017e-09 -0.000211979)
(4.93122e-09 4.42917e-09 -0.000203767)
(-9.98716e-09 -9.78442e-10 -0.000211564)
(-5.54691e-09 1.16338e-08 -0.000207983)
(-3.68058e-09 2.65594e-09 -0.000208253)
(1.0206e-08 -1.68554e-08 -0.00021201)
(5.34786e-09 2.86896e-09 -0.000203969)
(-4.33318e-09 -5.20551e-09 -0.000203768)
(-7.46972e-10 -1.06132e-08 -0.00021165)
(1.22465e-09 1.18158e-08 -0.000211498)
(1.89776e-09 4.79751e-09 -0.00020443)
(-3.36706e-09 -2.20751e-09 -0.000204559)
(2.47092e-09 3.49807e-09 -0.000204353)
(-1.97286e-09 -3.47828e-09 -0.000204483)
(1.97455e-09 4.33962e-09 -0.000211878)
(2.69656e-09 3.45618e-09 -0.000211875)
(-1.32335e-09 -4.34484e-09 -0.00021201)
(-4.69561e-09 -1.05704e-09 -0.000212008)
(8.18329e-09 4.55902e-10 -0.000211563)
(3.83488e-10 8.76243e-09 -0.000211649)
(2.44254e-09 -1.37503e-08 -0.0002115)
(-6.68722e-09 3.48253e-09 -0.000203768)
(3.90017e-10 -6.16639e-09 -0.000204434)
(-4.26271e-09 2.76493e-10 -0.000204562)
(4.00507e-09 -1.57026e-09 -0.000211878)
(-1.1553e-09 4.99434e-09 -0.000212015)
(-2.86414e-10 7.97962e-09 -0.000211651)
(-5.60261e-09 -1.24679e-08 -0.000207981)
(-3.69616e-09 -2.85835e-09 -0.000208249)
(9.42592e-09 1.37312e-08 -0.00021201)
(4.1398e-09 -5.87378e-09 -0.000203971)
(-5.35222e-09 2.49256e-09 -0.000203772)
(-5.33907e-09 2.00986e-09 -0.000203971)
(-9.50544e-09 1.5868e-08 -0.000212012)
(-4.43997e-09 -4.15224e-09 -0.000203976)
(-4.02924e-09 2.04827e-09 -0.000204354)
(-4.42561e-10 -4.89903e-09 -0.000204466)
(4.51857e-09 9.04719e-09 -0.000211875)
(6.63464e-09 -8.5527e-10 -0.000211572)
(-1.67255e-08 -9.75921e-09 -0.000211973)
(2.94528e-09 -4.89663e-09 -0.000203772)
(1.50425e-08 -9.34452e-09 -0.000211973)
(-5.66444e-09 -3.85865e-09 -0.000203773)
(4.62582e-10 -9.17213e-09 -0.000211648)
(-9.5503e-09 7.66106e-10 -0.000211574)
(1.33611e-08 8.86563e-09 -0.000211978)
(-1.0004e-08 -1.78635e-08 -0.000212013)
(-1.40292e-08 6.02173e-09 -0.000207866)
(4.80416e-09 -3.83149e-09 -0.000207991)
(-4.5075e-09 3.77406e-09 -0.000208103)
(1.43698e-08 -5.89248e-09 -0.000207745)
(1.5161e-08 -9.6478e-09 -0.000211789)
(3.71573e-09 -2.56797e-09 -0.000204362)
(-8.22103e-10 4.30845e-09 -0.000204498)
(5.99506e-09 -3.06441e-10 -0.000211871)
(-1.67719e-09 3.84622e-09 -0.000212008)
(-8.64092e-09 1.13058e-08 -0.00021182)
(6.25267e-09 -1.56322e-08 -0.000208097)
(-3.84959e-09 3.07068e-09 -0.00020825)
(3.81469e-09 -4.50111e-09 -0.00020836)
(-5.67552e-09 1.18573e-08 -0.000207979)
(-8.87152e-09 1.24868e-08 -0.000211823)
(-8.27537e-10 5.9056e-09 -0.00020442)
(3.57217e-09 -3.17478e-09 -0.000204576)
(4.80445e-09 1.22613e-08 -0.000211862)
(5.44201e-09 -3.74093e-10 -0.000212008)
(-4.71949e-09 -1.91725e-09 -0.000204341)
(1.16512e-10 5.22248e-09 -0.00020448)
(-4.2275e-09 -1.87463e-09 -0.000211863)
(2.95959e-09 3.21001e-09 -0.000212006)
(-8.11835e-10 -6.22857e-09 -0.000204433)
(3.68939e-09 2.43249e-09 -0.00020457)
(-1.48322e-09 -4.6357e-09 -0.000211871)
(1.99893e-09 4.31228e-09 -0.000212011)
(1.21898e-08 5.32994e-09 -0.000207866)
(-3.56028e-09 -3.61593e-09 -0.000207999)
(2.52913e-09 3.432e-09 -0.000208106)
(-1.47424e-08 -5.95169e-09 -0.000207752)
(-1.54951e-08 -9.62438e-09 -0.000211795)
(6.1981e-09 1.46581e-08 -0.000208095)
(-3.86443e-09 -3.41208e-09 -0.000208246)
(3.79901e-09 4.21834e-09 -0.000208356)
(-5.76657e-09 -1.3104e-08 -0.000207977)
(-9.5415e-09 -1.47461e-08 -0.00021182)
(-9.44156e-09 -1.47647e-08 -0.000211822)
(8.50752e-09 1.08338e-08 -0.00021183)
(-5.67162e-09 -1.51111e-08 -0.000208097)
(3.74953e-09 4.29672e-09 -0.00020826)
(-3.39176e-09 -3.58361e-09 -0.000208363)
(5.85499e-09 1.27368e-08 -0.000207988)
(-5.7086e-09 1.48477e-08 -0.000208095)
(3.74183e-09 -4.16485e-09 -0.000208254)
(-3.40566e-09 3.91936e-09 -0.000208356)
(5.86199e-09 -1.32104e-08 -0.000207985)
(9.03347e-09 -1.28239e-08 -0.00021183)
(6.51861e-09 2.63798e-10 -0.000212008)
(1.16949e-08 8.81054e-09 -0.000211788)
(-1.49136e-08 -6.34364e-09 -0.000207865)
(4.61608e-09 4.2655e-09 -0.000207998)
(-3.01861e-09 -4.04664e-09 -0.000208105)
(1.31938e-08 6.41975e-09 -0.000207749)
(-1.38667e-08 9.3695e-09 -0.000211789)
(1.3799e-08 -5.52019e-09 -0.000207868)
(-5.39975e-09 3.76782e-09 -0.000208003)
(2.8715e-09 -3.39481e-09 -0.000208109)
(-1.4485e-08 6.06199e-09 -0.000207753)
(4.17066e-09 -4.91356e-09 -0.000203975)
(-2.88748e-09 -1.38257e-08 -0.000211655)
(-9.64847e-09 -1.46117e-08 -0.00021183)
(-4.88982e-09 3.70804e-09 -0.000203781)
(-1.18148e-09 7.45821e-09 -0.00021151)
(-5.86654e-09 1.22024e-08 -0.000207988)
(3.42625e-09 -3.89145e-09 -0.000208362)
(-3.68936e-09 3.80461e-09 -0.000208258)
(5.71266e-09 -1.5169e-08 -0.000208096)
(-5.99209e-09 -1.35387e-08 -0.000207986)
(3.4277e-09 3.60749e-09 -0.000208358)
(-3.68861e-09 -4.17083e-09 -0.000208254)
(5.63886e-09 1.39436e-08 -0.000208095)
(9.00368e-09 1.38844e-08 -0.00021201)
(1.98244e-09 -3.68809e-09 -0.000204557)
(-1.92695e-09 6.19495e-09 -0.00020442)
(8.78822e-09 5.12626e-09 -0.000212009)
(6.14585e-09 1.41392e-08 -0.000211877)
(8.59424e-09 -3.14466e-10 -0.000211565)
(-1.45716e-10 8.76356e-09 -0.000211651)
(5.79954e-09 3.73821e-09 -0.000203769)
(4.92927e-09 3.08187e-09 -0.000203971)
(-1.05424e-08 6.91537e-10 -0.000211426)
(2.06231e-09 -1.3276e-08 -0.000211508)
(1.59645e-08 -9.9358e-09 -0.000211797)
(-1.98589e-09 -5.6077e-09 -0.000203578)
(-4.47546e-09 -4.77769e-09 -0.000203775)
(3.75238e-09 1.91829e-09 -0.000212007)
(9.22928e-10 4.86298e-09 -0.000212012)
(-8.76475e-09 1.15197e-08 -0.00021183)
(9.98579e-09 -1.75496e-08 -0.000212011)
(3.61105e-10 4.6109e-09 -0.000204482)
(-3.29133e-09 -2.78824e-09 -0.00020435)
(3.27094e-09 2.40573e-09 -0.000204572)
(-1.51737e-09 -5.03059e-09 -0.000204442)
(-2.1954e-09 -3.94697e-09 -0.00021188)
(-3.31331e-09 -2.80172e-09 -0.000211872)
(1.52318e-08 -6.18e-09 -0.000207751)
(3.98216e-10 3.2592e-09 -0.000208105)
(6.43499e-09 -3.71861e-09 -0.000207996)
(-1.14937e-08 5.21073e-09 -0.000207864)
(-1.29979e-08 8.75944e-09 -0.000211979)
(-4.81698e-10 -4.49909e-09 -0.000203579)
(3.39996e-09 -2.48406e-09 -0.000211418)
(-1.27623e-09 4.22924e-09 -0.000211607)
(-3.14937e-09 -9.29209e-09 -0.00020377)
(3.20099e-10 1.1238e-08 -0.000211499)
(-1.79681e-09 1.27909e-08 -0.000211502)
(-9.63778e-11 -9.32813e-09 -0.000211653)
(1.06826e-08 -7.38192e-10 -0.000211428)
(-9.84314e-09 3.19902e-10 -0.000211577)
(-2.41287e-10 -9.29334e-09 -0.000211664)
(-1.83022e-09 1.2981e-08 -0.000211499)
(-1.01618e-08 3.90717e-10 -0.000211584)
(1.01297e-08 -4.13916e-10 -0.000211426)
(-4.32146e-09 -1.95894e-09 -0.000211418)
(3.87052e-09 -1.74272e-08 -0.000211498)
(-5.65567e-10 -4.80568e-09 -0.00020358)
(-1.63582e-08 -6.85523e-10 -0.000203829)
(-5.62189e-09 -2.02136e-08 -0.000211494)
(-5.0063e-09 4.70216e-09 -0.000203774)
(2.39363e-09 -1.094e-08 -0.000203767)
(4.63786e-09 5.2807e-09 -0.000203773)
(-1.24613e-08 -1.52137e-09 -0.000211426)
(-3.20275e-09 5.45462e-09 -0.000203579)
(1.71288e-09 5.93842e-09 -0.000203579)
(-1.80144e-09 1.3438e-08 -0.000211494)
(8.81326e-09 5.0596e-10 -0.000211426)
(1.78963e-09 4.93324e-09 -0.000204425)
(-3.28944e-09 -2.81174e-09 -0.000204561)
(2.82803e-09 3.26706e-09 -0.000204347)
(-2.6197e-09 -3.37856e-09 -0.000204485)
(1.39744e-09 4.80743e-09 -0.000211874)
(3.51665e-09 2.56512e-09 -0.00021187)
(-3.52298e-09 -2.58476e-09 -0.000204563)
(1.5055e-09 5.25919e-09 -0.000204424)
(-2.42747e-09 -3.55977e-09 -0.000204486)
(2.86146e-09 3.16734e-09 -0.000204347)
(-2.29433e-08 -1.2178e-10 -0.000207772)
(-7.33568e-09 5.47991e-09 -0.000208176)
(-5.45894e-09 -3.91981e-09 -0.000208015)
(-3.8552e-08 1.16168e-08 -0.000207938)
(-2.24175e-08 1.18355e-08 -0.000211995)
(7.4225e-09 3.68805e-09 -0.000203798)
(1.11738e-09 -3.12406e-09 -0.000211804)
(4.93522e-09 -6.8224e-09 -0.000203602)
(-9.06484e-09 -8.30956e-11 -0.000211585)
(1.36697e-08 3.11416e-09 -0.000211428)
(1.06024e-08 -1.72929e-08 -0.000212025)
(6.42217e-09 1.98012e-10 -0.000203976)
(-1.09844e-10 -1.00111e-08 -0.000211663)
(1.25259e-09 6.13791e-09 -0.000204423)
(-3.23898e-09 -3.23953e-09 -0.000204568)
(1.25196e-09 4.55955e-09 -0.000204347)
(-4.44562e-09 -2.3601e-09 -0.000204492)
(6.89041e-11 -9.36274e-09 -0.00021165)
(-1.73875e-09 1.26774e-08 -0.0002115)
(-9.81479e-09 4.1794e-10 -0.000211576)
(1.04448e-08 -6.23246e-10 -0.000211427)
(-3.41895e-09 -2.94718e-09 -0.000204572)
(1.30298e-09 5.522e-09 -0.000204423)
(-2.8971e-09 -3.36354e-09 -0.000204494)
(1.55839e-09 4.01791e-09 -0.000204347)
(-3.10589e-09 -3.29955e-09 -0.000212027)
(-4.04486e-09 -2.46854e-09 -0.000212024)
(1.5419e-09 5.34079e-09 -0.000204423)
(-3.86299e-09 -2.31067e-09 -0.000204566)
(2.29907e-09 3.62259e-09 -0.000204346)
(-2.34116e-09 -3.78738e-09 -0.000204488)
(-2.00447e-09 1.31914e-08 -0.000211497)
(-2.92215e-10 -9.11747e-09 -0.000211656)
(9.47469e-09 -1.44661e-10 -0.000211426)
(-9.7337e-09 1.78428e-10 -0.000211579)
(1.02426e-08 -9.08233e-10 -0.000211586)
(-1.00959e-08 1.29681e-09 -0.000211423)
(2.88688e-09 4.94751e-09 -0.000211664)
(2.38469e-08 -7.54979e-11 -0.000207774)
(9.09875e-09 5.50718e-09 -0.00020818)
(6.11658e-09 -3.90092e-09 -0.00020802)
(4.22512e-08 1.21628e-08 -0.000207938)
(-6.51187e-09 4.19186e-09 -0.000203794)
(-2.82448e-09 -6.41831e-09 -0.000203607)
(-2.96678e-09 -1.12201e-08 -0.000204426)
(-7.32966e-09 -3.58366e-09 -0.000204573)
(-2.536e-09 -1.21137e-08 -0.000204419)
(2.1447e-10 -5.93875e-09 -0.000211866)
(-6.82778e-09 -5.65808e-10 -0.000212032)
(-3.11923e-09 3.70141e-09 -0.000211668)
(-2.98094e-09 -1.58808e-08 -0.000211493)
(4.34808e-09 -5.41687e-09 -0.000203977)
(6.2004e-09 1.25539e-08 -0.00020797)
(3.94677e-09 3.54041e-09 -0.000208244)
(-6.52818e-09 -9.974e-10 -0.000203982)
(3.41349e-09 -8.23675e-09 -0.000203763)
(6.42289e-09 -1.47388e-08 -0.000207967)
(4.01065e-09 -4.94577e-09 -0.000208237)
(-9.23934e-09 1.31653e-08 -0.000212029)
(-4.70694e-09 -3.88099e-09 -0.000203987)
(5.50387e-09 2.89516e-09 -0.000203768)
(-1.60515e-09 4.06969e-09 -0.000204347)
(2.96798e-09 -3.22388e-09 -0.000204476)
(8.85435e-09 -5.78105e-10 -0.000211583)
(5.2004e-09 -4.43642e-09 -0.000203778)
(1.19642e-08 -9.22261e-09 -0.000211981)
(-6.97201e-09 -3.84046e-09 -0.000203777)
(-1.76156e-10 -9.38895e-09 -0.000211667)
(-4.57079e-10 1.12551e-08 -0.000211491)
(-1.15748e-08 8.56206e-10 -0.000211584)
(4.55443e-09 4.64795e-09 -0.000203772)
(-8.92362e-09 1.89743e-10 -0.000211569)
(5.28851e-09 3.23991e-09 -0.000203973)
(-4.84481e-11 -9.85253e-09 -0.000211653)
(-2.44081e-09 -5.47372e-09 -0.000203587)
(6.19611e-09 3.68695e-09 -0.000203779)
(9.0157e-09 7.94661e-11 -0.000211431)
(-9.44808e-09 -2.39755e-10 -0.000211586)
(-4.41946e-09 -5.18017e-09 -0.000203784)
(5.32106e-09 2.40929e-09 -0.000203981)
(2.0658e-10 1.01015e-08 -0.00021152)
(-1.00024e-10 -9.20962e-09 -0.000211661)
(-3.19501e-09 -5.31529e-09 -0.000203573)
(4.97515e-09 4.34367e-09 -0.000203768)
(9.7276e-09 1.53449e-11 -0.000211423)
(-9.31977e-09 -1.85052e-10 -0.00021157)
(-4.45983e-09 -5.36515e-09 -0.000203769)
(5.13858e-09 3.26584e-09 -0.00020397)
(2.67779e-10 1.05683e-08 -0.000211503)
(-2.29286e-10 -9.83278e-09 -0.000211649)
(-3.07581e-09 -5.30835e-09 -0.000203571)
(5.11922e-09 4.29446e-09 -0.000203768)
(9.47245e-09 1.1767e-10 -0.000211417)
(-9.35469e-09 -1.22397e-10 -0.000211569)
(-4.41479e-09 -5.36356e-09 -0.000203769)
(5.22074e-09 3.08735e-09 -0.000203971)
(3.97509e-10 1.07086e-08 -0.000211502)
(-1.69427e-10 -9.73156e-09 -0.000211649)
(-2.9533e-09 -5.36101e-09 -0.000203571)
(5.22345e-09 4.2577e-09 -0.000203768)
(9.75554e-09 1.43342e-10 -0.00021142)
(-9.29979e-09 -1.59519e-10 -0.00021157)
(-4.40767e-09 -5.38447e-09 -0.000203769)
(5.17888e-09 3.19407e-09 -0.000203971)
(3.58918e-10 1.06341e-08 -0.000211502)
(-1.94931e-10 -9.77926e-09 -0.000211649)
(-3.00198e-09 -5.33586e-09 -0.000203571)
(5.19847e-09 4.26126e-09 -0.000203768)
(9.56307e-09 1.70375e-10 -0.000211417)
(-9.31139e-09 -9.83507e-11 -0.000211569)
(-4.43684e-09 -5.29862e-09 -0.000203769)
(5.20526e-09 3.121e-09 -0.000203971)
(3.24538e-10 1.05632e-08 -0.000211502)
(-2.12033e-10 -9.80423e-09 -0.000211649)
(-2.95529e-09 -5.35692e-09 -0.000203571)
(5.21536e-09 4.25191e-09 -0.000203768)
(9.66788e-09 9.86682e-11 -0.00021142)
(-9.36189e-09 -1.82139e-10 -0.00021157)
(-4.41167e-09 -5.3649e-09 -0.000203769)
(5.18033e-09 3.17923e-09 -0.000203971)
(3.48238e-10 1.06122e-08 -0.000211502)
(-1.90481e-10 -9.76225e-09 -0.000211649)
(-3.0128e-09 -5.33456e-09 -0.000203571)
(5.22036e-09 4.25412e-09 -0.000203768)
(9.58244e-09 2.54102e-10 -0.000211417)
(-9.37401e-09 -1.20693e-10 -0.000211571)
(-4.41665e-09 -5.35822e-09 -0.000203769)
(5.19852e-09 3.13016e-09 -0.000203971)
(3.53555e-10 1.0623e-08 -0.000211502)
(-1.98638e-10 -9.77471e-09 -0.000211649)
(-2.89323e-09 -5.39134e-09 -0.000203571)
(5.19146e-09 4.26524e-09 -0.000203768)
(9.79379e-09 1.68397e-10 -0.000211422)
(-9.22456e-09 -1.17893e-10 -0.000211572)
(-4.40399e-09 -5.39849e-09 -0.000203769)
(5.19587e-09 3.1456e-09 -0.000203971)
(3.74956e-10 1.06709e-08 -0.000211502)
(-1.9522e-10 -9.76758e-09 -0.000211649)
(-2.87356e-09 -5.38618e-09 -0.000203571)
(5.24459e-09 4.23896e-09 -0.000203768)
(9.55759e-09 1.66178e-10 -0.000211418)
(-9.35759e-09 -1.24972e-10 -0.000211571)
(-4.4314e-09 -5.31766e-09 -0.000203769)
(5.20684e-09 3.11707e-09 -0.000203971)
(3.07223e-10 1.05379e-08 -0.000211502)
(-2.03221e-10 -9.78401e-09 -0.000211649)
(-2.88392e-09 -5.38561e-09 -0.000203571)
(5.22209e-09 4.25815e-09 -0.000203768)
(9.77981e-09 1.57273e-10 -0.000211422)
(-9.24839e-09 -1.29556e-10 -0.000211571)
(-4.40352e-09 -5.39181e-09 -0.000203769)
(5.19666e-09 3.1491e-09 -0.000203971)
(3.58878e-10 1.06392e-08 -0.000211502)
(-1.92525e-10 -9.77446e-09 -0.000211649)
(-2.97641e-09 -5.34648e-09 -0.000203571)
(5.22669e-09 4.25386e-09 -0.000203768)
(9.57452e-09 1.75485e-10 -0.000211418)
(-9.30566e-09 -9.23e-11 -0.000211571)
(-4.42505e-09 -5.33151e-09 -0.000203769)
(5.20861e-09 3.12132e-09 -0.000203971)
(3.22973e-10 1.05648e-08 -0.000211502)
(-2.01519e-10 -9.78188e-09 -0.000211649)
(-2.93732e-09 -5.36492e-09 -0.000203572)
(5.24653e-09 4.2471e-09 -0.000203768)
(9.72736e-09 1.28514e-10 -0.000211422)
(-9.2638e-09 -1.39959e-10 -0.000211572)
(-4.41309e-09 -5.36797e-09 -0.000203769)
(5.18749e-09 3.17397e-09 -0.000203971)
(3.71597e-10 1.06582e-08 -0.000211503)
(-1.81534e-10 -9.7504e-09 -0.00021165)
(-3.01633e-09 -5.33116e-09 -0.000203571)
(5.21739e-09 4.25055e-09 -0.000203768)
(9.60378e-09 1.89288e-10 -0.000211419)
(-9.33957e-09 -1.14848e-10 -0.000211571)
(-4.40473e-09 -5.37934e-09 -0.000203769)
(5.20835e-09 3.11191e-09 -0.000203971)
(3.31103e-10 1.05794e-08 -0.000211503)
(-2.11572e-10 -9.80085e-09 -0.00021165)
(-2.90485e-09 -5.38084e-09 -0.000203572)
(5.20132e-09 4.26031e-09 -0.000203768)
(9.67592e-09 9.77856e-11 -0.000211422)
(-9.28044e-09 -1.52919e-10 -0.000211572)
(-4.38007e-09 -5.45166e-09 -0.000203769)
(5.2295e-09 3.048e-09 -0.000203971)
(3.54338e-10 1.06278e-08 -0.000211503)
(-2.05459e-10 -9.78248e-09 -0.00021165)
(-2.61896e-09 -5.46856e-09 -0.000203572)
(4.7256e-09 4.40071e-09 -0.000203766)
(9.2049e-09 -2.40672e-11 -0.000211418)
(-8.71777e-09 1.97089e-10 -0.00021157)
(-4.3588e-09 -5.49157e-09 -0.000203769)
(5.33833e-09 2.76034e-09 -0.000203971)
(2.82738e-10 1.04825e-08 -0.000211503)
(-2.40204e-10 -9.85494e-09 -0.00021165)
(-7.66025e-10 -6.08866e-09 -0.000203574)
(4.66544e-09 4.32046e-09 -0.000203764)
(7.63515e-09 -1.00181e-09 -0.00021142)
(-8.9452e-09 1.0266e-10 -0.000211573)
(-4.16798e-09 -5.96522e-09 -0.000203771)
(5.93941e-09 1.4104e-09 -0.000203973)
(1.72466e-10 1.03056e-08 -0.000211504)
(7.48537e-11 -9.43691e-09 -0.000211653)
(8.41928e-09 4.33081e-10 -0.000211568)
(2.91331e-10 9.17141e-09 -0.000211653)
(9.45189e-09 -6.02468e-11 -0.000211581)
(-1.12669e-08 1.24745e-09 -0.000211423)
(8.3199e-11 9.59361e-09 -0.000211667)
(2.4351e-09 -1.36364e-08 -0.000211505)
(-5.31773e-09 4.33128e-09 -0.000203769)
(5.03274e-09 4.50312e-09 -0.000203782)
(-3.70123e-09 -4.93101e-09 -0.000203576)
(-7.77511e-09 3.49112e-09 -0.000203775)
(1.82792e-09 -5.67471e-09 -0.000203573)
(1.94471e-10 9.90298e-09 -0.000211648)
(-1.16199e-08 -1.19e-09 -0.000211576)
(7.75072e-09 -7.67676e-10 -0.000211423)
(-1.07327e-09 7.75835e-09 -0.000211656)
(-3.24146e-09 -1.50793e-08 -0.0002115)
(4.78081e-09 -4.66882e-09 -0.000203976)
(5.30218e-09 3.2737e-09 -0.000203985)
(-4.34321e-09 -5.10916e-09 -0.000203773)
(5.03048e-09 -3.70806e-09 -0.000203989)
(-4.5952e-09 4.2684e-09 -0.000203778)
(-5.14673e-09 3.37766e-09 -0.000203969)
(-5.15557e-09 -3.41562e-09 -0.000203975)
(-5.59838e-09 2.14099e-09 -0.000203977)
(4.17164e-09 -5.61441e-09 -0.000203768)
(-5.39641e-09 -2.83185e-09 -0.000203984)
(4.24204e-09 5.43664e-09 -0.000203775)
(8.3846e-09 -5.13478e-10 -0.000211575)
(-1.64872e-09 -1.30097e-08 -0.000211673)
(2.27897e-09 1.30715e-08 -0.000211504)
(7.64049e-09 -9.09881e-10 -0.000211584)
(-9.72597e-09 -2.00675e-10 -0.000211427)
(2.8944e-09 -5.3492e-09 -0.000203772)
(-5.0728e-09 -4.54535e-09 -0.000203772)
(4.33967e-09 -4.78253e-09 -0.000203781)
(-4.52943e-09 4.66654e-09 -0.000203574)
(-4.7556e-09 -4.68705e-09 -0.000203781)
(3.39307e-09 5.05323e-09 -0.000203574)
(-2.49619e-10 -9.06657e-09 -0.000211648)
(-9.69862e-09 1.88179e-10 -0.000211574)
(-2.90109e-10 -9.12351e-09 -0.000211657)
(-2.19916e-09 1.32782e-08 -0.0002115)
(-1.00345e-08 2.74365e-10 -0.000211584)
(1.08412e-08 -9.58359e-10 -0.000211426)
(-9.71262e-09 3.18831e-10 -0.000211435)
(1.04505e-08 -1.00511e-09 -0.000211577)
(1.93863e-09 -1.29495e-08 -0.000211518)
(-4.81498e-10 1.00009e-08 -0.000211662)
(9.01651e-09 -1.55565e-10 -0.000211568)
(-9.7298e-09 4.08791e-11 -0.000211427)
(1.33591e-10 8.94924e-09 -0.000211652)
(1.7824e-09 -1.31457e-08 -0.000211508)
(4.85806e-10 -6.06429e-09 -0.000203582)
(-5.29157e-09 4.21878e-09 -0.000203784)
(4.79478e-09 4.34382e-09 -0.000203771)
(-2.31177e-09 -5.78379e-09 -0.000203579)
(-5.79598e-09 3.87699e-09 -0.000203773)
(2.45609e-09 -5.65434e-09 -0.000203584)
(-3.09151e-09 -1.47306e-08 -0.00021151)
(9.89341e-10 1.10609e-08 -0.000211663)
(-9.84601e-09 -6.08688e-10 -0.000211574)
(1.03114e-08 3.59697e-10 -0.000211433)
(5.44241e-10 1.00981e-08 -0.000211653)
(-2.1838e-09 -1.37717e-08 -0.000211511)
(-4.8899e-09 4.1216e-09 -0.000203787)
(5.004e-09 -3.31783e-09 -0.000203984)
(5.38381e-09 2.49865e-09 -0.000203972)
(-4.34605e-09 -5.94033e-09 -0.000203775)
(4.89588e-09 -3.43358e-09 -0.000203976)
(-4.43314e-09 5.57531e-09 -0.00020378)
(3.81595e-09 -6.46724e-09 -0.000203778)
(-4.75304e-09 4.02589e-09 -0.000203984)
(4.08432e-09 5.84659e-09 -0.000203784)
(-4.76569e-09 -4.02835e-09 -0.00020399)
(-5.12347e-09 2.95259e-09 -0.000203975)
(4.58229e-09 -5.32437e-09 -0.000203779)
(-4.69455e-09 -3.88096e-09 -0.000203981)
(4.79381e-09 4.68225e-09 -0.000203787)
(-1.4383e-08 -2.96413e-09 -0.000211439)
(1.15829e-08 1.25902e-09 -0.000211594)
(-1.50234e-09 -1.21173e-08 -0.000211658)
(2.30875e-09 1.38949e-08 -0.000211506)
(8.89099e-09 1.31183e-10 -0.000211579)
(-7.12226e-09 1.4644e-09 -0.000211442)
(-4.7791e-09 4.58667e-09 -0.000203584)
(5.2443e-09 -4.29313e-09 -0.000203788)
(3.7074e-09 4.92972e-09 -0.000203585)
(-5.94857e-09 -4.02015e-09 -0.000203788)
(5.43302e-09 -4.09188e-09 -0.000203777)
(-2.76063e-09 5.62156e-09 -0.000203586)
(-5.60463e-09 -4.04005e-09 -0.000203778)
(2.45771e-09 5.72887e-09 -0.000203587)
(-2.37659e-09 1.3437e-08 -0.000211511)
(2.06907e-10 -9.62213e-09 -0.000211664)
(1.06679e-08 -9.84758e-10 -0.000211438)
(-1.02979e-08 7.06973e-10 -0.000211591)
(5.02411e-10 -9.93382e-09 -0.000211654)
(-1.51279e-09 1.25705e-08 -0.000211512)
(-1.01992e-08 7.66113e-10 -0.00021158)
(1.0366e-08 -3.4535e-10 -0.000211439)
(-1.07586e-08 7.21423e-10 -0.000211419)
(9.10622e-09 -8.72702e-11 -0.000211565)
(2.17959e-09 -1.36775e-08 -0.0002115)
(5.73257e-11 9.30251e-09 -0.00021165)
(8.86065e-09 9.21526e-12 -0.000211565)
(-1.07963e-08 8.26236e-10 -0.000211417)
(1.90511e-10 8.99232e-09 -0.000211651)
(2.20423e-09 -1.35621e-08 -0.000211499)
(2.34288e-09 -5.69383e-09 -0.000203573)
(-5.21926e-09 4.22359e-09 -0.000203769)
(4.85842e-09 4.39885e-09 -0.000203768)
(-3.34061e-09 -5.19127e-09 -0.00020357)
(-7.59883e-09 3.40673e-09 -0.000203766)
(1.94714e-09 -5.79597e-09 -0.000203571)
(-2.18359e-09 -1.35071e-08 -0.000211501)
(5.434e-10 1.04495e-08 -0.00021165)
(-1.11663e-08 -1.17219e-09 -0.000211565)
(7.61018e-09 -1.06049e-09 -0.000211421)
(-8.18734e-10 7.82439e-09 -0.000211647)
(-2.8755e-09 -1.47215e-08 -0.0002115)
(-5.27501e-09 3.45459e-09 -0.000203772)
(4.67884e-09 -4.58308e-09 -0.000203973)
(5.3747e-09 2.69822e-09 -0.000203971)
(-4.46199e-09 -5.20843e-09 -0.000203767)
(5.00361e-09 -3.34513e-09 -0.000203975)
(-4.59404e-09 4.68262e-09 -0.000203772)
(4.32426e-09 -5.74867e-09 -0.000203771)
(-4.78205e-09 4.04937e-09 -0.00020397)
(4.67405e-09 4.99928e-09 -0.000203777)
(-4.77364e-09 -4.08641e-09 -0.000203976)
(-5.37457e-09 2.4351e-09 -0.000203969)
(4.6002e-09 -4.84362e-09 -0.000203767)
(-5.0632e-09 -3.2952e-09 -0.000203976)
(4.5797e-09 4.93207e-09 -0.000203774)
(-1.44888e-08 -2.69989e-09 -0.000211428)
(9.38259e-09 9.83639e-11 -0.000211577)
(-1.37011e-09 -1.20444e-08 -0.000211657)
(2.15579e-09 1.31919e-08 -0.000211498)
(8.54388e-09 -2.25244e-10 -0.000211574)
(-8.94425e-09 3.62653e-10 -0.000211427)
(-4.90527e-09 4.78931e-09 -0.000203576)
(3.9851e-09 -4.81585e-09 -0.000203773)
(2.97075e-09 5.48687e-09 -0.000203577)
(-5.59469e-09 -4.20608e-09 -0.000203773)
(5.16782e-09 -4.34254e-09 -0.000203773)
(-3.5981e-09 5.16847e-09 -0.000203573)
(-5.3243e-09 -4.29982e-09 -0.000203774)
(3.05033e-09 5.34613e-09 -0.000203573)
(-1.57279e-09 1.2605e-08 -0.000211502)
(1.30338e-10 -9.51756e-09 -0.000211649)
(1.0545e-08 -5.25912e-10 -0.000211428)
(-9.9238e-09 4.51586e-10 -0.000211575)
(-5.27936e-11 -9.20008e-09 -0.000211649)
(-1.88764e-09 1.30079e-08 -0.000211498)
(-9.94462e-09 4.66387e-10 -0.000211575)
(1.08108e-08 -7.66694e-10 -0.000211425)
(-1.07407e-08 7.64733e-10 -0.000211417)
(9.29523e-09 -1.78733e-10 -0.000211564)
(2.178e-09 -1.35743e-08 -0.0002115)
(-4.46632e-11 9.51208e-09 -0.000211651)
(8.91041e-09 -2.20216e-11 -0.000211565)
(-1.05895e-08 7.21856e-10 -0.000211417)
(1.68591e-10 9.02887e-09 -0.000211651)
(2.11325e-09 -1.3378e-08 -0.0002115)
(6.1961e-10 -6.1685e-09 -0.000203569)
(-5.56624e-09 4.17101e-09 -0.000203768)
(4.97482e-09 4.35485e-09 -0.000203768)
(-3.03928e-09 -5.30235e-09 -0.00020357)
(-5.77513e-09 4.0301e-09 -0.000203768)
(2.28234e-09 -5.5691e-09 -0.00020357)
(-2.9566e-09 -1.48662e-08 -0.000211498)
(6.69306e-10 1.05091e-08 -0.000211646)
(-9.85994e-09 -4.47838e-10 -0.00021157)
(1.02957e-08 5.37473e-10 -0.000211419)
(1.7354e-10 9.69918e-09 -0.000211647)
(-2.61494e-09 -1.43124e-08 -0.000211497)
(-5.18564e-09 3.55968e-09 -0.000203772)
(4.78666e-09 -4.30596e-09 -0.000203973)
(5.43623e-09 2.55307e-09 -0.000203971)
(-4.39103e-09 -5.35709e-09 -0.000203768)
(5.01453e-09 -3.33873e-09 -0.000203975)
(-4.48822e-09 4.93446e-09 -0.000203772)
(3.93598e-09 -6.52167e-09 -0.000203767)
(-4.94915e-09 3.65419e-09 -0.000203969)
(4.41599e-09 5.37957e-09 -0.000203774)
(-4.85912e-09 -3.91802e-09 -0.000203975)
(-5.37581e-09 2.67757e-09 -0.00020397)
(4.27304e-09 -5.74694e-09 -0.000203766)
(-5.04719e-09 -3.37064e-09 -0.000203976)
(4.53599e-09 5.00634e-09 -0.000203773)
(-1.45108e-08 -2.83336e-09 -0.000211425)
(9.59435e-09 1.86652e-10 -0.000211577)
(-1.42388e-09 -1.2144e-08 -0.000211657)
(2.17345e-09 1.32122e-08 -0.000211498)
(8.64929e-09 -1.6844e-10 -0.000211574)
(-8.80637e-09 4.22304e-10 -0.000211427)
(-4.96837e-09 4.64738e-09 -0.000203573)
(4.04638e-09 -4.81782e-09 -0.000203773)
(3.11653e-09 5.31474e-09 -0.000203574)
(-5.65825e-09 -4.21086e-09 -0.000203773)
(5.25419e-09 -4.31553e-09 -0.000203773)
(-3.64283e-09 5.13001e-09 -0.000203573)
(-5.22988e-09 -4.34145e-09 -0.000203774)
(2.93772e-09 5.37327e-09 -0.000203573)
(-1.95552e-09 1.309e-08 -0.000211499)
(1.03582e-10 -9.50442e-09 -0.000211648)
(1.05524e-08 -6.55812e-10 -0.000211426)
(-1.02186e-08 5.7921e-10 -0.000211575)
(-1.1477e-11 -9.2989e-09 -0.000211649)
(-1.88113e-09 1.29784e-08 -0.000211498)
(-1.00562e-08 5.12103e-10 -0.000211575)
(1.05773e-08 -6.59787e-10 -0.000211425)
(-1.07229e-08 7.50899e-10 -0.000211417)
(9.28035e-09 -1.77568e-10 -0.000211564)
(2.16039e-09 -1.3545e-08 -0.0002115)
(-7.5792e-11 9.55435e-09 -0.000211651)
(8.95367e-09 -4.04085e-11 -0.000211565)
(-1.06362e-08 7.42887e-10 -0.000211417)
(1.04856e-10 9.14433e-09 -0.000211651)
(2.08353e-09 -1.33432e-08 -0.0002115)
(2.36111e-09 -5.58102e-09 -0.000203571)
(-5.12392e-09 4.28361e-09 -0.000203769)
(4.94944e-09 4.36306e-09 -0.000203768)
(-3.11663e-09 -5.27396e-09 -0.00020357)
(-7.4519e-09 3.46724e-09 -0.000203766)
(2.09477e-09 -5.72197e-09 -0.000203571)
(-2.43258e-09 -1.37498e-08 -0.000211498)
(5.08254e-10 1.04245e-08 -0.000211649)
(-1.11148e-08 -1.14316e-09 -0.000211565)
(7.6362e-09 -1.03127e-09 -0.000211421)
(-7.62193e-10 7.93899e-09 -0.000211648)
(-2.87773e-09 -1.46992e-08 -0.000211499)
(-5.15654e-09 3.62367e-09 -0.000203772)
(4.78949e-09 -4.30882e-09 -0.000203973)
(5.35676e-09 2.74849e-09 -0.000203971)
(-4.44716e-09 -5.23198e-09 -0.000203768)
(5.02956e-09 -3.2873e-09 -0.000203975)
(-4.50853e-09 4.90119e-09 -0.000203772)
(4.14833e-09 -5.91871e-09 -0.000203767)
(-4.79955e-09 4.05445e-09 -0.000203969)
(4.38347e-09 5.4406e-09 -0.000203774)
(-4.85725e-09 -3.92497e-09 -0.000203976)
(-5.36146e-09 2.48207e-09 -0.00020397)
(4.59663e-09 -4.81957e-09 -0.000203767)
(-5.07133e-09 -3.28894e-09 -0.000203976)
(4.53946e-09 5.0086e-09 -0.000203774)
(-1.44338e-08 -2.79371e-09 -0.000211426)
(9.60073e-09 1.96136e-10 -0.000211577)
(-1.43605e-09 -1.21721e-08 -0.000211657)
(2.15615e-09 1.31914e-08 -0.000211498)
(8.71035e-09 -1.37461e-10 -0.000211574)
(-8.76426e-09 4.53738e-10 -0.000211427)
(-4.94369e-09 4.65974e-09 -0.000203573)
(4.10351e-09 -4.78927e-09 -0.000203773)
(3.24624e-09 5.26282e-09 -0.000203574)
(-5.49993e-09 -4.26368e-09 -0.000203773)
(5.23462e-09 -4.31954e-09 -0.000203773)
(-3.46015e-09 5.21056e-09 -0.000203573)
(-5.33275e-09 -4.2968e-09 -0.000203774)
(3.12856e-09 5.30365e-09 -0.000203573)
(-1.95416e-09 1.30672e-08 -0.000211499)
(9.47099e-11 -9.48891e-09 -0.000211648)
(1.05917e-08 -6.82361e-10 -0.000211426)
(-1.0046e-08 4.92442e-10 -0.000211575)
(1.43087e-11 -9.33404e-09 -0.000211649)
(-1.87576e-09 1.2967e-08 -0.000211498)
(-1.00318e-08 5.13051e-10 -0.000211575)
(1.06814e-08 -7.10826e-10 -0.000211425)
(-1.06718e-08 7.26887e-10 -0.000211417)
(9.28337e-09 -1.7785e-10 -0.000211564)
(2.12368e-09 -1.34759e-08 -0.0002115)
(-2.82162e-11 9.47135e-09 -0.000211651)
(8.94676e-09 -3.64836e-11 -0.000211565)
(-1.06051e-08 7.24281e-10 -0.000211417)
(1.64716e-10 9.03364e-09 -0.000211651)
(2.12506e-09 -1.34163e-08 -0.0002115)
(8.37479e-10 -6.09199e-09 -0.000203569)
(-5.50444e-09 4.19659e-09 -0.000203768)
(4.95254e-09 4.36536e-09 -0.000203768)
(-3.00471e-09 -5.31853e-09 -0.00020357)
(-5.8934e-09 3.98511e-09 -0.000203769)
(2.30089e-09 -5.56254e-09 -0.000203571)
(-2.89996e-09 -1.47527e-08 -0.000211498)
(7.20429e-10 1.05975e-08 -0.000211647)
(-9.92488e-09 -4.83877e-10 -0.00021157)
(1.03179e-08 5.48251e-10 -0.000211419)
(2.1744e-10 9.77671e-09 -0.000211647)
(-2.57447e-09 -1.42349e-08 -0.000211497)
(-5.16626e-09 3.59342e-09 -0.000203772)
(4.78544e-09 -4.314e-09 -0.000203973)
(5.43236e-09 2.56355e-09 -0.000203971)
(-4.40426e-09 -5.337e-09 -0.000203768)
(5.0213e-09 -3.32937e-09 -0.000203975)
(-4.48793e-09 4.94903e-09 -0.000203772)
(3.94385e-09 -6.4917e-09 -0.000203768)
(-4.93472e-09 3.69618e-09 -0.00020397)
(4.41564e-09 5.37031e-09 -0.000203774)
(-4.84633e-09 -3.95754e-09 -0.000203976)
(-5.34588e-09 2.74853e-09 -0.00020397)
(4.28955e-09 -5.70087e-09 -0.000203766)
(-5.01777e-09 -3.44112e-09 -0.000203976)
(4.53171e-09 5.01672e-09 -0.000203774)
(-1.4396e-08 -2.77339e-09 -0.000211426)
(9.57766e-09 1.84135e-10 -0.000211577)
(-1.44053e-09 -1.21775e-08 -0.000211657)
(2.16243e-09 1.32004e-08 -0.000211498)
(8.67678e-09 -1.54346e-10 -0.000211574)
(-8.78016e-09 4.4644e-10 -0.000211427)
(-4.94571e-09 4.65821e-09 -0.000203573)
(4.17191e-09 -4.76203e-09 -0.000203773)
(3.20167e-09 5.28198e-09 -0.000203574)
(-5.72456e-09 -4.18349e-09 -0.000203773)
(5.25698e-09 -4.31094e-09 -0.000203773)
(-3.43896e-09 5.21419e-09 -0.000203573)
(-5.32441e-09 -4.30157e-09 -0.000203774)
(2.86363e-09 5.40285e-09 -0.000203573)
(-1.89582e-09 1.29687e-08 -0.000211499)
(1.12086e-10 -9.52761e-09 -0.000211648)
(1.05071e-08 -6.32386e-10 -0.000211426)
(-1.01876e-08 5.6348e-10 -0.000211575)
(5.38964e-11 -9.41612e-09 -0.000211649)
(-1.86558e-09 1.29384e-08 -0.000211498)
(-1.00702e-08 5.26181e-10 -0.000211575)
(1.05574e-08 -6.46174e-10 -0.000211425)
(-1.06735e-08 7.28296e-10 -0.000211417)