/*--------------------------------*- C++ -*----------------------------------*\
| =========                 |                                                 |
| \\      /  F ield         | OpenFOAM: The Open Source CFD Toolbox           |
|  \\    /   O peration     | Version:  2206                                  |
|   \\  /    A nd           | Website:  www.openfoam.com                      |
|    \\/     M anipulation  |                                                 |
\*---------------------------------------------------------------------------*/
FoamFile
{
    version     2.0;
    format      ascii;
    arch        "LSB;label=32;scalar=64";
    class       volScalarField;
    location    "0.9";
    object      k;
}
// * * * * * * * * * * * * * * * * * * * * * * * * * * * * * * * * * * * * * //

dimensions      [0 2 -2 0 0 0 0];

internalField   nonuniform List<scalar> 
185391
(
6.75663e-09
6.95786e-09
6.80129e-09
6.89286e-09
6.84036e-09
6.98163e-09
6.8985e-09
6.95561e-09
6.94441e-09
6.94397e-09
6.74698e-09
6.86501e-09
7.13534e-09
6.97468e-09
6.78661e-09
7.1635e-09
6.7267e-09
6.80266e-09
6.96585e-09
6.7763e-09
6.9954e-09
6.85239e-09
6.67279e-09
6.95651e-09
6.91864e-09
6.80573e-09
7.01873e-09
6.98615e-09
7.01316e-09
6.89029e-09
6.90612e-09
7.00407e-09
6.78587e-09
6.94098e-09
6.76115e-09
6.99507e-09
7.03564e-09
6.85436e-09
7.01116e-09
6.87871e-09
7.03482e-09
7.11392e-09
6.79959e-09
6.98292e-09
6.8334e-09
6.9111e-09
6.90722e-09
7.02384e-09
6.75289e-09
7.02068e-09
7.05819e-09
6.24446e-09
7.03394e-09
6.74779e-09
7.09e-09
6.9397e-09
6.89217e-09
6.92806e-09
7.06799e-09
7.13328e-09
6.99509e-09
6.88091e-09
6.75025e-09
7.12744e-09
6.86931e-09
6.97177e-09
7.00449e-09
7.06833e-09
6.81754e-09
6.9136e-09
6.996e-09
7.13118e-09
6.97965e-09
7.12604e-09
6.73673e-09
7.14828e-09
6.8773e-09
7.05967e-09
6.80382e-09
6.90973e-09
7.02807e-09
6.81258e-09
6.87186e-09
7.00612e-09
7.08195e-09
6.84526e-09
6.81894e-09
6.87362e-09
6.8476e-09
7.11333e-09
7.16077e-09
6.92628e-09
6.94255e-09
6.65174e-09
7.11132e-09
6.97781e-09
6.89713e-09
7.02456e-09
6.9958e-09
6.88269e-09
7.15076e-09
6.94365e-09
6.77153e-09
6.92232e-09
6.98338e-09
6.92604e-09
7.00037e-09
6.9568e-09
6.76519e-09
6.78076e-09
6.97598e-09
6.97003e-09
6.73231e-09
6.81287e-09
7.03197e-09
7.00624e-09
6.99713e-09
7.09697e-09
6.82802e-09
6.7643e-09
7.04901e-09
7.09656e-09
7.00658e-09
7.08566e-09
6.81068e-09
6.87703e-09
7.11478e-09
6.87044e-09
6.98767e-09
6.93331e-09
6.94275e-09
7.04586e-09
6.87555e-09
6.7368e-09
6.8694e-09
7.02848e-09
6.82522e-09
6.89882e-09
7.11132e-09
6.89722e-09
7.12501e-09
6.81479e-09
6.86335e-09
6.71977e-09
7.1874e-09
6.89039e-09
7.12098e-09
7.07468e-09
7.12041e-09
7.14888e-09
6.89211e-09
7.06204e-09
6.82846e-09
6.89679e-09
7.11605e-09
6.87408e-09
6.87352e-09
6.78723e-09
7.02374e-09
6.89784e-09
6.99279e-09
7.11859e-09
6.98715e-09
6.88627e-09
6.9208e-09
7.11584e-09
7.0061e-09
6.89434e-09
7.06841e-09
6.931e-09
6.73448e-09
6.85996e-09
7.05736e-09
7.16578e-09
6.84304e-09
7.15177e-09
6.9196e-09
6.94192e-09
6.99953e-09
7.23295e-09
6.91294e-09
7.2123e-09
6.94575e-09
7.14335e-09
6.71533e-09
6.79658e-09
7.10047e-09
6.90607e-09
7.15308e-09
6.75688e-09
6.96889e-09
6.88668e-09
7.15843e-09
6.89665e-09
7.16586e-09
6.93177e-09
6.91685e-09
6.79158e-09
6.94167e-09
6.91007e-09
6.87648e-09
7.19971e-09
6.944e-09
7.15e-09
6.82954e-09
6.96158e-09
7.07648e-09
7.05873e-09
7.19662e-09
7.15805e-09
7.1728e-09
6.87559e-09
6.86072e-09
7.12973e-09
7.06323e-09
6.86905e-09
6.85033e-09
7.18575e-09
7.02898e-09
6.87958e-09
7.01956e-09
7.14097e-09
7.20972e-09
6.95239e-09
7.11349e-09
7.02775e-09
7.00233e-09
7.15948e-09
7.12889e-09
6.8739e-09
6.87834e-09
7.14218e-09
7.14868e-09
7.07696e-09
7.21661e-09
7.0843e-09
6.91006e-09
7.0939e-09
6.88239e-09
6.92395e-09
6.89907e-09
6.84617e-09
7.1059e-09
7.13191e-09
6.87052e-09
7.02497e-09
7.12388e-09
6.84885e-09
7.14908e-09
6.98985e-09
6.77303e-09
6.83505e-09
6.98296e-09
7.1245e-09
6.91411e-09
6.8459e-09
6.78384e-09
6.90419e-09
6.72608e-09
6.83766e-09
6.8656e-09
6.83404e-09
6.99148e-09
7.02859e-09
7.11786e-09
7.2193e-09
7.1e-09
7.0438e-09
6.78314e-09
7.06341e-09
6.8442e-09
6.92193e-09
7.09254e-09
6.7315e-09
7.05564e-09
6.97326e-09
6.89321e-09
7.14015e-09
6.83564e-09
7.0049e-09
6.77016e-09
6.96648e-09
6.75097e-09
7.19543e-09
6.84479e-09
7.14188e-09
7.07591e-09
6.86974e-09
7.1018e-09
7.07492e-09
6.87037e-09
6.84916e-09
6.77984e-09
6.9646e-09
6.98489e-09
6.91808e-09
6.81977e-09
7.07398e-09
6.99728e-09
7.10886e-09
6.84921e-09
7.09859e-09
6.86356e-09
7.1451e-09
7.05518e-09
7.07313e-09
6.86936e-09
7.13758e-09
6.31077e-09
6.92175e-09
6.97964e-09
7.12729e-09
6.88229e-09
7.15336e-09
6.83867e-09
6.94418e-09
6.8705e-09
6.29374e-09
7.20111e-09
6.97391e-09
7.03567e-09
6.84325e-09
6.74339e-09
6.95054e-09
6.91443e-09
6.77166e-09
7.03392e-09
6.1483e-09
6.80826e-09
6.73733e-09
6.8025e-09
6.6361e-09
6.99919e-09
6.81093e-09
6.74683e-09
6.9897e-09
7.06617e-09
6.85807e-09
7.11893e-09
7.02531e-09
7.11532e-09
6.96312e-09
6.77344e-09
6.79975e-09
7.01043e-09
6.75913e-09
6.73248e-09
7.10209e-09
6.9389e-09
6.91935e-09
7.1037e-09
6.74192e-09
6.9008e-09
6.94005e-09
7.01852e-09
6.83314e-09
7.11673e-09
6.84099e-09
7.14373e-09
6.99786e-09
7.0557e-09
6.92778e-09
6.9006e-09
6.89752e-09
6.83202e-09
6.94325e-09
6.80593e-09
7.0179e-09
6.75683e-09
6.76157e-09
6.8169e-09
6.97399e-09
7.10795e-09
7.00283e-09
7.02182e-09
7.02962e-09
7.05175e-09
6.71745e-09
6.91123e-09
7.10388e-09
6.76746e-09
6.81819e-09
6.91405e-09
6.9619e-09
6.75854e-09
6.77825e-09
7.06462e-09
7.04087e-09
6.87301e-09
7.18188e-09
7.13022e-09
7.13442e-09
6.77027e-09
7.15356e-09
6.806e-09
7.07651e-09
7.077e-09
6.85691e-09
6.92765e-09
6.90643e-09
6.88806e-09
6.88313e-09
6.80893e-09
6.86351e-09
6.84522e-09
7.11705e-09
6.87836e-09
6.74814e-09
6.69743e-09
6.94059e-09
7.15434e-09
6.94336e-09
6.88514e-09
6.74162e-09
6.89501e-09
7.18473e-09
6.99391e-09
7.01962e-09
6.89433e-09
6.91048e-09
6.75392e-09
6.91775e-09
6.79657e-09
6.98987e-09
6.87224e-09
6.87239e-09
7.19314e-09
6.93012e-09
6.90987e-09
6.76813e-09
6.89467e-09
6.84898e-09
6.86031e-09
7.06652e-09
7.02335e-09
6.79655e-09
6.95686e-09
6.87288e-09
6.89502e-09
6.7879e-09
6.91711e-09
6.73934e-09
6.99781e-09
7.00263e-09
6.99927e-09
6.80108e-09
6.97663e-09
6.96891e-09
6.81772e-09
6.8633e-09
6.71584e-09
7.14818e-09
6.75966e-09
6.83575e-09
6.83374e-09
6.99422e-09
6.80268e-09
6.71202e-09
7.10916e-09
7.12001e-09
7.00656e-09
7.04288e-09
6.98039e-09
7.12774e-09
7.15034e-09
7.08833e-09
6.85373e-09
6.97208e-09
7.15671e-09
7.09415e-09
7.0112e-09
6.8511e-09
6.81779e-09
7.09806e-09
6.87078e-09
6.89593e-09
6.83923e-09
7.09967e-09
6.73611e-09
7.02286e-09
6.99986e-09
6.88803e-09
6.8873e-09
7.08104e-09
6.87651e-09
7.08014e-09
7.06849e-09
6.86045e-09
7.07093e-09
7.06981e-09
6.87354e-09
7.06876e-09
7.112e-09
6.95199e-09
7.12186e-09
6.90757e-09
7.11067e-09
6.93551e-09
7.10879e-09
6.94334e-09
7.08241e-09
6.87247e-09
7.14359e-09
7.1429e-09
6.83633e-09
7.13847e-09
6.96225e-09
7.06464e-09
6.98853e-09
7.15256e-09
6.94087e-09
6.88736e-09
6.9262e-09
7.2394e-09
7.0808e-09
7.00062e-09
7.08657e-09
6.87468e-09
6.82974e-09
7.08622e-09
6.89862e-09
7.02188e-09
7.17984e-09
7.15208e-09
6.82891e-09
7.16411e-09
6.89127e-09
7.16146e-09
7.01375e-09
7.15399e-09
7.00069e-09
6.8556e-09
6.87631e-09
7.04831e-09
7.0971e-09
6.96358e-09
6.97039e-09
7.15166e-09
6.97902e-09
6.67307e-09
7.15339e-09
6.88884e-09
6.89405e-09
6.89816e-09
7.06107e-09
6.88724e-09
7.05452e-09
6.90138e-09
7.05618e-09
6.88293e-09
7.07199e-09
6.91452e-09
7.0595e-09
6.87809e-09
7.05663e-09
6.88008e-09
7.03446e-09
6.87851e-09
7.05286e-09
6.87826e-09
7.05437e-09
6.87232e-09
7.04016e-09
6.86786e-09
7.02983e-09
6.86825e-09
7.04975e-09
6.8844e-09
7.06564e-09
6.90489e-09
7.07415e-09
6.91626e-09
7.077e-09
6.92948e-09
7.11836e-09
6.91436e-09
7.10458e-09
6.9489e-09
7.1024e-09
6.91892e-09
7.10722e-09
6.91969e-09
7.08395e-09
6.8817e-09
7.08147e-09
6.90249e-09
7.08338e-09
6.95979e-09
7.09381e-09
6.91977e-09
7.13992e-09
6.95241e-09
7.10528e-09
6.94715e-09
7.13414e-09
6.86595e-09
7.10768e-09
6.86699e-09
7.11417e-09
6.98883e-09
7.07918e-09
7.01067e-09
7.1295e-09
6.84942e-09
7.07511e-09
6.90713e-09
7.088e-09
6.91383e-09
7.06147e-09
6.86483e-09
7.08072e-09
6.92838e-09
7.09294e-09
6.93158e-09
7.06467e-09
6.82496e-09
7.06301e-09
6.92037e-09
7.06374e-09
6.87755e-09
6.9901e-09
6.86602e-09
7.04595e-09
6.83095e-09
7.11985e-09
6.88348e-09
6.98605e-09
6.85595e-09
7.06566e-09
6.80578e-09
7.02952e-09
6.86758e-09
6.96879e-09
6.83298e-09
7.11707e-09
6.84861e-09
7.13192e-09
6.85697e-09
7.16728e-09
6.85286e-09
7.15014e-09
6.88704e-09
7.15573e-09
7.01801e-09
7.05263e-09
6.95357e-09
7.05807e-09
6.95012e-09
7.06338e-09
6.95166e-09
7.08295e-09
6.96323e-09
7.09493e-09
6.97253e-09
7.06306e-09
6.87374e-09
7.05838e-09
6.95035e-09
7.13597e-09
6.93611e-09
7.13365e-09
6.90908e-09
7.08739e-09
6.88044e-09
7.09797e-09
6.95714e-09
7.10245e-09
6.93155e-09
7.15062e-09
6.94163e-09
7.1708e-09
6.96886e-09
7.14635e-09
6.93929e-09
6.93091e-09
6.67035e-09
6.30067e-09
6.88654e-09
7.07199e-09
6.88981e-09
7.06447e-09
6.87686e-09
7.04448e-09
6.8553e-09
7.07251e-09
6.9009e-09
7.05141e-09
6.85311e-09
7.03459e-09
6.85093e-09
7.01638e-09
6.85072e-09
7.04617e-09
6.89006e-09
7.06975e-09
6.87773e-09
7.07124e-09
6.90054e-09
7.07568e-09
6.89607e-09
7.05704e-09
6.89405e-09
7.07491e-09
6.89889e-09
7.09753e-09
6.9142e-09
7.07026e-09
6.91772e-09
7.07741e-09
6.8892e-09
7.11345e-09
6.95269e-09
7.09401e-09
6.929e-09
7.1113e-09
6.94589e-09
7.11384e-09
6.95309e-09
7.10996e-09
6.91764e-09
7.08788e-09
6.93243e-09
7.09054e-09
6.91475e-09
7.1057e-09
6.89932e-09
7.04324e-09
6.88666e-09
7.1798e-09
6.86123e-09
7.0569e-09
6.9162e-09
7.15512e-09
6.98076e-09
7.14598e-09
6.90999e-09
7.24477e-09
7.07349e-09
7.0793e-09
6.89344e-09
7.06032e-09
6.87693e-09
7.10956e-09
6.92888e-09
7.09138e-09
6.89893e-09
7.02196e-09
6.88219e-09
7.09204e-09
6.82883e-09
7.05256e-09
6.81152e-09
7.07052e-09
6.81035e-09
7.03841e-09
6.87487e-09
7.11967e-09
6.82281e-09
7.05131e-09
6.8516e-09
7.02044e-09
6.86973e-09
7.10519e-09
6.94301e-09
7.07352e-09
7.00353e-09
7.02695e-09
6.84587e-09
7.04643e-09
7.01645e-09
7.02062e-09
7.00109e-09
7.02877e-09
7.00033e-09
7.04874e-09
7.01507e-09
7.0439e-09
7.01856e-09
7.05096e-09
7.03259e-09
7.0835e-09
7.03855e-09
7.07296e-09
7.03588e-09
7.07289e-09
7.02569e-09
7.06426e-09
7.02535e-09
7.05485e-09
6.9898e-09
7.04621e-09
6.9074e-09
7.14999e-09
6.93729e-09
7.20493e-09
6.99559e-09
7.14136e-09
6.893e-09
7.12754e-09
6.94661e-09
7.12895e-09
6.93034e-09
7.12378e-09
6.92913e-09
7.19442e-09
6.9517e-09
7.27948e-09
6.98859e-09
7.04716e-09
6.6757e-09
6.3587e-09
6.8698e-09
7.04348e-09
6.89412e-09
7.05833e-09
6.88018e-09
7.03736e-09
6.85348e-09
7.04852e-09
6.88937e-09
7.04454e-09
6.84165e-09
7.01946e-09
6.83912e-09
7.01248e-09
6.8447e-09
7.02916e-09
6.86824e-09
7.05643e-09
6.85447e-09
7.05442e-09
6.90779e-09
7.11958e-09
6.939e-09
7.08842e-09
6.90037e-09
7.08088e-09
6.88194e-09
7.10123e-09
6.88281e-09
7.08608e-09
6.91998e-09
7.06338e-09
6.87531e-09
7.09727e-09
6.93483e-09
7.09423e-09
6.92078e-09
7.0932e-09
6.92112e-09
7.05804e-09
6.87658e-09
7.07471e-09
6.90978e-09
7.073e-09
6.90448e-09
7.1019e-09
6.89789e-09
7.07544e-09
6.86607e-09
7.05406e-09
6.87267e-09
7.04443e-09
6.86949e-09
7.0857e-09
6.85203e-09
7.13913e-09
6.99762e-09
7.22226e-09
6.91415e-09
7.09537e-09
6.93546e-09
7.07292e-09
6.89394e-09
7.11161e-09
6.91895e-09
7.16254e-09
6.99634e-09
7.17345e-09
6.88465e-09
7.16082e-09
6.91578e-09
7.11462e-09
6.94747e-09
7.11604e-09
6.8959e-09
7.10413e-09
6.8388e-09
7.17482e-09
6.97687e-09
7.03861e-09
7.0078e-09
7.04662e-09
6.86918e-09
7.02353e-09
6.85459e-09
7.08161e-09
6.87129e-09
7.04092e-09
6.86994e-09
7.09309e-09
6.92484e-09
6.99882e-09
6.95424e-09
7.02113e-09
6.97133e-09
7.07486e-09
6.86795e-09
7.06853e-09
6.99349e-09
7.0623e-09
6.99026e-09
7.03595e-09
6.9835e-09
7.05658e-09
7.02892e-09
7.06778e-09
7.03186e-09
7.06847e-09
7.01843e-09
7.07772e-09
7.03187e-09
7.104e-09
6.86497e-09
7.17617e-09
7.01291e-09
7.04382e-09
7.00734e-09
7.17135e-09
7.00086e-09
7.04624e-09
6.87885e-09
7.19972e-09
7.02795e-09
7.09579e-09
6.91756e-09
7.11945e-09
6.94886e-09
7.15751e-09
6.97832e-09
7.15586e-09
7.03375e-09
6.9355e-09
6.69771e-09
6.3667e-09
6.86652e-09
7.05056e-09
6.8844e-09
7.0377e-09
6.86847e-09
7.05225e-09
6.87153e-09
7.05615e-09
6.893e-09
7.06427e-09
6.85157e-09
7.02642e-09
6.8285e-09
7.0261e-09
6.84676e-09
7.00923e-09
6.84273e-09
7.09088e-09
6.87035e-09
7.09412e-09
6.91981e-09
7.15493e-09
7.03359e-09
7.14714e-09
6.95292e-09
7.14538e-09
6.91728e-09
7.09234e-09
6.8967e-09
7.09049e-09
6.92429e-09
7.07544e-09
6.87147e-09
7.05958e-09
6.90329e-09
7.07031e-09
6.94849e-09
7.08769e-09
6.89337e-09
7.0813e-09
6.87984e-09
7.08502e-09
6.88177e-09
7.04228e-09
6.91889e-09
7.0762e-09
6.88088e-09
7.05206e-09
6.8733e-09
7.07589e-09
6.86719e-09
7.03046e-09
6.823e-09
7.10402e-09
6.92268e-09
7.11308e-09
7.04454e-09
7.09524e-09
6.92075e-09
7.11426e-09
6.91607e-09
7.07393e-09
6.91008e-09
7.13094e-09
6.93877e-09
7.1293e-09
6.97741e-09
7.17968e-09
6.9789e-09
7.20903e-09
6.96082e-09
7.13457e-09
6.95847e-09
7.17677e-09
6.92772e-09
7.16511e-09
6.90938e-09
7.25078e-09
6.86956e-09
7.13599e-09
6.88297e-09
7.23527e-09
6.86587e-09
7.02415e-09
6.89258e-09
7.00013e-09
6.89715e-09
7.1434e-09
6.96538e-09
7.04085e-09
6.9083e-09
6.99876e-09
6.87538e-09
7.02765e-09
6.95006e-09
7.01981e-09
6.90786e-09
7.02181e-09
6.9207e-09
7.10376e-09
6.9231e-09
7.09814e-09
6.8951e-09
7.08891e-09
6.93621e-09
7.09126e-09
6.91709e-09
7.06701e-09
6.88018e-09
7.05944e-09
6.8888e-09
7.04343e-09
6.88474e-09
7.05641e-09
6.85127e-09
7.04387e-09
6.8646e-09
7.02528e-09
6.84114e-09
7.04628e-09
6.86195e-09
7.16899e-09
6.90767e-09
7.15148e-09
7.0083e-09
7.11745e-09
6.9061e-09
7.09602e-09
6.91473e-09
7.12718e-09
6.96064e-09
6.94614e-09
6.69727e-09
6.38294e-09
6.86239e-09
7.07999e-09
6.89894e-09
7.05015e-09
6.86137e-09
7.0725e-09
6.90465e-09
7.08042e-09
6.91342e-09
7.07284e-09
6.88311e-09
7.05254e-09
6.85895e-09
7.05468e-09
6.89008e-09
7.01978e-09
6.87061e-09
7.1051e-09
6.95957e-09
7.15173e-09
6.94702e-09
7.10894e-09
6.96314e-09
7.12774e-09
6.96749e-09
7.13816e-09
6.97324e-09
7.1273e-09
6.9303e-09
7.0898e-09
6.93533e-09
7.08691e-09
6.87273e-09
7.05565e-09
6.87241e-09
7.06068e-09
6.88567e-09
7.03468e-09
6.87261e-09
7.04059e-09
6.86592e-09
7.09652e-09
6.90578e-09
7.08547e-09
6.87986e-09
7.10957e-09
6.94764e-09
7.06255e-09
6.91471e-09
7.11061e-09
6.95052e-09
7.1076e-09
6.86839e-09
7.11404e-09
6.87015e-09
7.0379e-09
6.95493e-09
7.04411e-09
6.927e-09
7.07441e-09
6.89476e-09
7.07367e-09
6.87911e-09
7.06807e-09
6.89175e-09
7.09408e-09
6.89905e-09
7.07646e-09
6.97994e-09
7.1246e-09
6.93756e-09
7.26688e-09
7.11303e-09
7.15631e-09
7.03565e-09
7.13332e-09
6.96841e-09
7.29597e-09
6.91848e-09
7.12052e-09
7.0604e-09
7.0922e-09
6.91314e-09
7.09763e-09
6.90946e-09
7.19427e-09
6.96366e-09
7.05033e-09
6.92718e-09
7.05514e-09
6.91494e-09
7.00627e-09
6.8762e-09
7.07305e-09
6.92509e-09
7.07721e-09
6.89695e-09
7.07202e-09
6.89403e-09
7.06666e-09
6.90337e-09
7.05265e-09
6.86711e-09
7.07269e-09
6.91627e-09
7.09213e-09
6.89393e-09
7.0644e-09
6.84982e-09
7.03709e-09
6.86309e-09
7.04066e-09
6.8688e-09
7.05616e-09
6.87596e-09
7.07144e-09
6.89011e-09
7.0672e-09
6.87689e-09
7.09169e-09
6.89965e-09
7.09069e-09
7.00845e-09
7.10435e-09
6.8936e-09
7.09369e-09
6.89047e-09
7.09644e-09
6.88575e-09
7.15528e-09
6.92967e-09
6.91335e-09
6.69998e-09
6.3341e-09
6.9189e-09
7.07096e-09
6.87711e-09
7.07131e-09
6.90267e-09
7.08499e-09
6.91339e-09
7.06512e-09
6.88955e-09
7.01749e-09
6.88149e-09
7.00116e-09
6.95073e-09
6.94622e-09
6.95667e-09
7.00552e-09
7.00694e-09
7.31254e-09
6.72418e-09
6.93742e-09
6.89138e-09
6.99299e-09
6.8143e-09
6.99586e-09
6.85713e-09
7.03474e-09
6.87222e-09
7.01362e-09
6.87684e-09
7.03573e-09
6.87776e-09
7.05222e-09
6.86486e-09
7.05968e-09
6.87133e-09
7.04724e-09
6.86601e-09
7.13441e-09
6.85814e-09
7.0449e-09
6.90057e-09
7.09253e-09
6.9316e-09
7.06816e-09
6.90983e-09
7.09749e-09
6.82134e-09
7.09888e-09
6.86755e-09
7.12046e-09
6.84817e-09
7.10763e-09
6.8445e-09
7.03643e-09
6.84858e-09
7.03839e-09
6.89176e-09
7.08721e-09
6.90674e-09
7.03035e-09
6.87492e-09
7.08098e-09
6.97911e-09
6.99654e-09
6.93431e-09
7.1102e-09
6.95834e-09
7.14662e-09
6.99063e-09
7.15554e-09
6.93032e-09
7.19422e-09
7.02664e-09
7.09817e-09
7.00076e-09
7.14702e-09
6.90247e-09
7.09687e-09
6.9293e-09
7.09341e-09
6.89987e-09
7.11006e-09
7.0419e-09
7.08476e-09
6.89208e-09
7.07392e-09
6.9854e-09
7.18403e-09
7.02583e-09
7.05796e-09
6.90183e-09
7.06367e-09
6.93781e-09
7.02863e-09
6.90512e-09
7.1106e-09
6.89326e-09
7.09524e-09
6.89806e-09
7.04374e-09
6.82284e-09
7.00466e-09
6.88625e-09
7.0495e-09
6.89926e-09
7.06031e-09
6.86624e-09
7.0415e-09
6.87438e-09
7.04428e-09
6.87882e-09
7.07079e-09
6.89323e-09
7.0514e-09
6.88748e-09
7.04186e-09
6.87164e-09
7.09121e-09
6.92804e-09
7.07498e-09
6.92123e-09
7.09773e-09
6.92723e-09
7.11869e-09
6.96723e-09
7.17173e-09
6.93696e-09
7.19025e-09
6.93402e-09
6.95828e-09
6.67614e-09
6.26024e-09
6.92302e-09
7.0805e-09
6.895e-09
7.07139e-09
6.88436e-09
7.07313e-09
6.8612e-09
7.04064e-09
6.81363e-09
7.03022e-09
6.83149e-09
7.04005e-09
6.87479e-09
6.97753e-09
7.02687e-09
7.10116e-09
6.64992e-09
6.96605e-09
6.83872e-09
6.99133e-09
6.8016e-09
6.98455e-09
6.7933e-09
7.02375e-09
6.86237e-09
7.06126e-09
6.88419e-09
7.07593e-09
6.90794e-09
7.09022e-09
6.90955e-09
7.09352e-09
6.90311e-09
7.07834e-09
6.90687e-09
7.08842e-09
6.90405e-09
7.08849e-09
6.89504e-09
7.06461e-09
6.89661e-09
7.06569e-09
6.90023e-09
7.09739e-09
6.87392e-09
7.055e-09
6.90207e-09
7.05416e-09
6.84925e-09
7.11874e-09
6.9276e-09
7.04435e-09
6.94624e-09
7.1162e-09
6.91854e-09
7.15328e-09
6.8984e-09
7.18046e-09
6.96852e-09
7.09499e-09
6.91264e-09
7.05279e-09
6.88712e-09
7.13351e-09
6.93415e-09
7.16671e-09
6.90369e-09
7.11354e-09
7.00822e-09
7.12361e-09
6.96834e-09
7.09072e-09
6.95796e-09
7.21302e-09
7.00518e-09
7.12376e-09
6.92626e-09
7.06803e-09
6.91305e-09
7.02809e-09
6.92502e-09
7.04854e-09
6.88933e-09
7.0772e-09
6.97321e-09
7.03085e-09
6.95361e-09
7.05408e-09
6.84324e-09
7.04931e-09
6.95381e-09
7.01026e-09
6.83895e-09
7.02731e-09
6.88294e-09
7.06653e-09
6.88594e-09
7.03812e-09
6.80952e-09
7.00253e-09
6.848e-09
7.02496e-09
6.88971e-09
7.02498e-09
6.85321e-09
6.99738e-09
6.85095e-09
6.98875e-09
6.8604e-09
7.05238e-09
6.81419e-09
7.00433e-09
6.84413e-09
6.98193e-09
6.80904e-09
7.02805e-09
6.87396e-09
7.03996e-09
6.84235e-09
7.0261e-09
6.87803e-09
7.17873e-09
7.00392e-09
7.08578e-09
6.9803e-09
7.14239e-09
6.95094e-09
6.96267e-09
6.68802e-09
6.34533e-09
6.90924e-09
7.06779e-09
6.87715e-09
7.0531e-09
6.87393e-09
7.03144e-09
6.87038e-09
7.03327e-09
6.84483e-09
7.03507e-09
6.8436e-09
7.09464e-09
6.85529e-09
7.07687e-09
6.94481e-09
6.98248e-09
6.73032e-09
7.01362e-09
6.8601e-09
7.06174e-09
6.88395e-09
7.05648e-09
6.82809e-09
7.05504e-09
6.87978e-09
7.09879e-09
6.93132e-09
7.12695e-09
6.94194e-09
7.12652e-09
6.94702e-09
7.11681e-09
6.90652e-09
7.08002e-09
6.8986e-09
7.06541e-09
6.91293e-09
7.08058e-09
6.89962e-09
7.03439e-09
6.86331e-09
6.99563e-09
6.90657e-09
7.0172e-09
6.83047e-09
7.15797e-09
6.81642e-09
7.10352e-09
6.97494e-09
7.02232e-09
6.85109e-09
7.14847e-09
6.84122e-09
7.09063e-09
6.92666e-09
7.12105e-09
6.90999e-09
7.22618e-09
6.90638e-09
7.12177e-09
7.05873e-09
7.12934e-09
6.86323e-09
7.05815e-09
6.99113e-09
7.07154e-09
6.87977e-09
7.139e-09
6.91556e-09
7.16999e-09
6.99978e-09
7.08346e-09
6.95833e-09
7.18822e-09
6.91648e-09
7.09957e-09
6.88692e-09
7.08109e-09
6.8961e-09
7.07058e-09
6.90218e-09
7.07891e-09
6.9231e-09
7.04467e-09
6.89879e-09
7.03724e-09
6.88823e-09
7.05526e-09
6.85407e-09
7.03045e-09
6.88628e-09
7.03486e-09
6.82538e-09
7.03512e-09
6.83504e-09
7.14731e-09
6.98637e-09
7.00574e-09
6.89241e-09
7.05252e-09
6.85304e-09
7.05652e-09
6.87929e-09
7.06326e-09
6.84753e-09
7.0421e-09
6.83282e-09
7.01426e-09
6.87598e-09
7.01427e-09
6.77445e-09
6.99271e-09
6.82438e-09
6.99147e-09
6.80683e-09
7.01084e-09
6.8468e-09
7.00483e-09
6.83772e-09
6.98868e-09
6.90413e-09
7.09328e-09
6.84695e-09
7.1619e-09
6.93413e-09
7.11291e-09
6.90687e-09
6.87765e-09
6.65206e-09
6.30926e-09
6.88454e-09
7.05179e-09
6.87147e-09
7.077e-09
6.88235e-09
7.05372e-09
6.87851e-09
7.02882e-09
6.86441e-09
7.05232e-09
6.89634e-09
7.08201e-09
6.88509e-09
7.14825e-09
6.93732e-09
7.01611e-09
6.81756e-09
7.02722e-09
6.85834e-09
7.06326e-09
6.93401e-09
7.09955e-09
6.8807e-09
7.09651e-09
6.91923e-09
7.08563e-09
6.92332e-09
7.11361e-09
6.94246e-09
7.09141e-09
6.95173e-09
7.12424e-09
6.92051e-09
7.11348e-09
6.8863e-09
7.05581e-09
6.87011e-09
7.06757e-09
6.88173e-09
7.05393e-09
6.81888e-09
7.00577e-09
6.86885e-09
7.14382e-09
6.85276e-09
7.14567e-09
6.90754e-09
6.9782e-09
6.79344e-09
7.01246e-09
6.81022e-09
7.06136e-09
6.83958e-09
7.11279e-09
6.92046e-09
7.06032e-09
6.97581e-09
7.08349e-09
6.93888e-09
7.04648e-09
6.96086e-09
7.05115e-09
6.90827e-09
7.12103e-09
7.02156e-09
7.09464e-09
6.92327e-09
7.09986e-09
6.9813e-09
7.22835e-09
6.87483e-09
7.1385e-09
6.85365e-09
7.12171e-09
6.95115e-09
7.04472e-09
6.92404e-09
7.05099e-09
6.93379e-09
7.04496e-09
6.91348e-09
7.05346e-09
6.983e-09
7.05424e-09
6.90543e-09
7.10794e-09
6.93279e-09
7.11455e-09
6.88589e-09
7.04203e-09
6.92033e-09
7.05855e-09
6.87528e-09
7.05996e-09
6.87962e-09
7.07683e-09
6.84888e-09
7.04546e-09
6.84993e-09
7.08025e-09
6.90447e-09
7.06551e-09
6.8927e-09
7.11411e-09
6.88388e-09
7.10064e-09
6.88231e-09
7.0885e-09
6.91301e-09
7.0591e-09
6.81637e-09
7.0465e-09
6.86808e-09
7.08496e-09
6.88235e-09
7.07102e-09
6.87709e-09
7.21518e-09
7.00137e-09
7.10471e-09
6.91705e-09
7.06108e-09
6.9162e-09
7.16607e-09
6.93603e-09
7.12814e-09
6.89813e-09
6.95151e-09
6.6834e-09
6.35314e-09
6.87071e-09
7.03076e-09
6.85311e-09
7.05198e-09
6.86928e-09
7.06547e-09
6.87974e-09
7.02446e-09
6.8312e-09
7.02348e-09
6.88467e-09
7.04089e-09
6.88771e-09
7.12007e-09
6.9505e-09
7.04114e-09
6.87797e-09
7.02961e-09
6.86806e-09
7.00838e-09
6.923e-09
7.05172e-09
6.90184e-09
7.14041e-09
6.87677e-09
7.07735e-09
6.91858e-09
7.11153e-09
6.89936e-09
7.05791e-09
6.91896e-09
7.0845e-09
6.92073e-09
7.1094e-09
6.90269e-09
7.06626e-09
6.85144e-09
7.03023e-09
6.89004e-09
7.10056e-09
6.87634e-09
7.16818e-09
6.87872e-09
7.17887e-09
6.88568e-09
7.06932e-09
6.83664e-09
7.04513e-09
6.84198e-09
7.17895e-09
6.97507e-09
7.16305e-09
6.90955e-09
7.10149e-09
6.88338e-09
7.09635e-09
6.90493e-09
7.1973e-09
7.05551e-09
7.0549e-09
6.88752e-09
7.22718e-09
6.98367e-09
7.14966e-09
6.92805e-09
7.08404e-09
6.95976e-09
7.17301e-09
6.92276e-09
7.21799e-09
6.9603e-09
7.13282e-09
6.93121e-09
7.24043e-09
6.97585e-09
7.12953e-09
6.86244e-09
7.04563e-09
6.95647e-09
7.13367e-09
6.86722e-09
7.13471e-09
7.03439e-09
7.08163e-09
6.91072e-09
7.10469e-09
6.92657e-09
7.13191e-09
6.9267e-09
7.08366e-09
6.91004e-09
7.06439e-09
6.94156e-09
7.12484e-09
6.93481e-09
7.05454e-09
6.91984e-09
7.06538e-09
6.85393e-09
7.1095e-09
6.95699e-09
7.10428e-09
6.91714e-09
7.08902e-09
6.91392e-09
7.09066e-09
6.90161e-09
7.07205e-09
6.9152e-09
7.0673e-09
6.86624e-09
7.06738e-09
6.91204e-09
7.10233e-09
6.92291e-09
7.07509e-09
6.92393e-09
7.10124e-09
6.88078e-09
7.13364e-09
6.93182e-09
7.07289e-09
6.90889e-09
7.13378e-09
6.94719e-09
7.12494e-09
6.87458e-09
6.93297e-09
6.6782e-09
6.32215e-09
6.90936e-09
7.08378e-09
6.88875e-09
7.07285e-09
6.88765e-09
7.07313e-09
6.908e-09
7.07173e-09
6.86267e-09
7.05185e-09
6.87485e-09
7.05219e-09
6.86813e-09
7.07727e-09
6.89607e-09
7.03908e-09
6.87963e-09
7.06614e-09
6.8546e-09
7.05316e-09
6.87676e-09
7.04915e-09
6.94337e-09
7.07015e-09
6.8252e-09
7.03742e-09
6.88117e-09
7.07138e-09
6.8696e-09
7.03329e-09
6.87393e-09
7.06863e-09
6.91478e-09
7.09207e-09
6.89438e-09
7.06535e-09
6.8676e-09
7.06151e-09
6.90854e-09
7.15679e-09
7.01323e-09
7.17156e-09
6.87597e-09
7.19594e-09
6.91536e-09
7.05809e-09
6.86904e-09
7.06758e-09
6.9762e-09
7.07247e-09
6.93717e-09
7.11596e-09
6.88231e-09
7.06089e-09
6.9024e-09
7.10592e-09
6.93184e-09
7.1711e-09
6.95631e-09
7.18442e-09
6.97862e-09
7.18353e-09
6.94302e-09
7.14384e-09
6.9508e-09
7.09646e-09
6.88826e-09
7.16826e-09
7.016e-09
7.11487e-09
7.0051e-09
7.09063e-09
7.01715e-09
7.04807e-09
6.97839e-09
7.19321e-09
7.05336e-09
7.0479e-09
6.91355e-09
7.04734e-09
6.87063e-09
7.09427e-09
6.91376e-09
7.11818e-09
6.91906e-09
7.12014e-09
6.85743e-09
7.10748e-09
6.90922e-09
7.02528e-09
6.89997e-09
7.03975e-09
6.88754e-09
7.05849e-09
6.92875e-09
7.10251e-09
6.88557e-09
7.185e-09
6.86478e-09
7.08839e-09
6.95353e-09
7.09946e-09
6.90367e-09
7.0864e-09
6.90753e-09
7.06529e-09
6.87329e-09
7.07245e-09
6.88316e-09
7.07794e-09
6.87661e-09
7.07718e-09
6.91522e-09
7.09323e-09
6.91425e-09
7.11135e-09
6.90473e-09
7.05591e-09
6.86711e-09
7.12467e-09
6.95109e-09
7.05336e-09
6.88665e-09
7.0807e-09
6.91212e-09
7.09369e-09
6.84465e-09
6.89329e-09
6.63999e-09
6.32065e-09
6.92441e-09
7.10712e-09
6.90175e-09
7.07305e-09
6.90143e-09
7.06382e-09
6.88911e-09
7.0533e-09
6.88031e-09
7.06095e-09
6.87724e-09
7.073e-09
6.89445e-09
7.02076e-09
6.87933e-09
7.06061e-09
6.88357e-09
7.08776e-09
6.87243e-09
7.06786e-09
6.91736e-09
7.05097e-09
6.82396e-09
7.04395e-09
6.86481e-09
7.07948e-09
6.88563e-09
7.06685e-09
6.88683e-09
7.10307e-09
6.93992e-09
7.10617e-09
6.9011e-09
7.09927e-09
6.93111e-09
7.14257e-09
6.88448e-09
7.1941e-09
6.87337e-09
7.07436e-09
7.01977e-09
7.07455e-09
6.93574e-09
7.16407e-09
6.94253e-09
7.0869e-09
6.93337e-09
7.07573e-09
6.88175e-09
7.06669e-09
6.88674e-09
7.06242e-09
6.89822e-09
7.06814e-09
6.91256e-09
7.09406e-09
6.92531e-09
7.13525e-09
6.9472e-09
7.12777e-09
6.98324e-09
7.23538e-09
6.92647e-09
7.07805e-09
6.93252e-09
7.11565e-09
6.98624e-09
7.09906e-09
6.90124e-09
7.1683e-09
6.87965e-09
7.08627e-09
6.9073e-09
7.12005e-09
6.90272e-09
7.13714e-09
6.97059e-09
7.0411e-09
7.01014e-09
7.07032e-09
6.86331e-09
7.14207e-09
6.89688e-09
7.04962e-09
6.89148e-09
7.0506e-09
6.87832e-09
7.03398e-09
6.85986e-09
7.08678e-09
6.85532e-09
7.02501e-09
6.87029e-09
7.08645e-09
6.87253e-09
7.08647e-09
6.85046e-09
7.08207e-09
6.93297e-09
7.10004e-09
6.90144e-09
7.07989e-09
6.90717e-09
7.08717e-09
6.93584e-09
7.07637e-09
6.91007e-09
7.06939e-09
6.89297e-09
7.08721e-09
6.92639e-09
7.09944e-09
6.91349e-09
7.08232e-09
6.86374e-09
7.09333e-09
6.90473e-09
7.10993e-09
6.94026e-09
7.09018e-09
6.88035e-09
7.09558e-09
6.91204e-09
7.13614e-09
6.87822e-09
6.90974e-09
6.66877e-09
6.31877e-09
6.92684e-09
7.11355e-09
6.92221e-09
7.09529e-09
6.89909e-09
7.06685e-09
6.87922e-09
7.04181e-09
6.86485e-09
7.04993e-09
6.85723e-09
7.0809e-09
6.89706e-09
7.05827e-09
6.88372e-09
7.08682e-09
6.90407e-09
7.08466e-09
6.89834e-09
7.07718e-09
6.90689e-09
7.06959e-09
6.88322e-09
7.09555e-09
6.91855e-09
7.11643e-09
6.93022e-09
7.10564e-09
6.92698e-09
7.12216e-09
6.96583e-09
7.14706e-09
6.93021e-09
7.10896e-09
6.9648e-09
7.12344e-09
6.92127e-09
7.09569e-09
6.91447e-09
7.1228e-09
6.9097e-09
7.13641e-09
7.04301e-09
7.19916e-09
7.01146e-09
7.20597e-09
6.90672e-09
7.07744e-09
6.89338e-09
7.0851e-09
6.9048e-09
7.09897e-09
6.91636e-09
7.11731e-09
6.9214e-09
7.07994e-09
6.92362e-09
7.13436e-09
6.96132e-09
7.10643e-09
6.93474e-09
7.1276e-09
6.90557e-09
7.23768e-09
6.86409e-09
7.13888e-09
6.98363e-09
7.09272e-09
6.96377e-09
7.07417e-09
6.8795e-09
7.12147e-09
6.85211e-09
7.05433e-09
6.86454e-09
7.07215e-09
6.87927e-09
7.03248e-09
6.91362e-09
7.04338e-09
6.77848e-09
7.08667e-09
6.85413e-09
7.05022e-09
6.99018e-09
7.10712e-09
6.86499e-09
7.06067e-09
6.88405e-09
7.18616e-09
6.88885e-09
7.10077e-09
6.89301e-09
7.05235e-09
6.89472e-09
7.09341e-09
6.84272e-09
7.18671e-09
6.91505e-09
7.14247e-09
6.90414e-09
7.20783e-09
6.96875e-09
7.08578e-09
6.95086e-09
7.21928e-09
6.94256e-09
7.09238e-09
6.88e-09
7.11295e-09
6.88412e-09
7.13991e-09
6.89269e-09
7.05232e-09
6.86835e-09
7.0477e-09
6.89042e-09
7.05975e-09
6.87957e-09
7.17416e-09
6.9159e-09
7.17902e-09
6.95719e-09
7.15425e-09
6.93732e-09
7.00783e-09
6.67684e-09
6.32178e-09
6.87761e-09
7.08022e-09
6.90887e-09
7.05609e-09
6.87728e-09
7.07253e-09
6.89832e-09
7.05651e-09
6.88065e-09
7.05062e-09
6.8586e-09
7.05469e-09
6.91215e-09
7.07254e-09
6.89518e-09
7.09081e-09
6.89971e-09
7.07701e-09
6.93025e-09
7.09992e-09
6.91537e-09
7.08288e-09
6.8856e-09
7.08766e-09
6.92748e-09
7.11469e-09
6.93344e-09
7.11478e-09
6.92756e-09
7.08847e-09
6.9411e-09
7.11504e-09
6.92203e-09
7.11134e-09
6.94762e-09
7.11124e-09
6.94607e-09
7.10604e-09
6.92334e-09
7.11306e-09
6.91507e-09
7.0781e-09
6.90584e-09
7.0641e-09
6.87666e-09
7.06541e-09
6.88626e-09
7.13342e-09
6.97404e-09
7.07731e-09
6.90466e-09
7.07854e-09
6.9264e-09
7.10179e-09
6.9445e-09
7.09578e-09
6.88707e-09
7.08925e-09
6.8546e-09
7.13576e-09
6.86083e-09
7.22465e-09
6.95144e-09
7.03979e-09
6.92941e-09
7.1657e-09
6.89982e-09
7.10588e-09
6.89573e-09
7.0365e-09
6.92596e-09
7.19416e-09
6.85699e-09
7.02816e-09
6.86825e-09
7.13523e-09
6.83363e-09
7.01857e-09
6.89219e-09
7.05087e-09
6.82917e-09
7.1013e-09
6.88015e-09
7.14656e-09
6.94352e-09
7.17504e-09
6.90181e-09
7.01935e-09
6.87038e-09
7.06847e-09
6.87418e-09
7.04321e-09
6.92367e-09
7.08081e-09
6.88243e-09
7.18448e-09
6.83879e-09
7.17298e-09
6.97789e-09
7.04665e-09
6.87948e-09
7.17157e-09
6.94872e-09
7.19402e-09
7.0378e-09
7.04542e-09
6.85557e-09
7.1649e-09
6.97351e-09
7.05294e-09
6.9723e-09
7.1598e-09
6.83583e-09
7.16054e-09
6.89555e-09
7.06886e-09
6.9143e-09
7.18569e-09
6.99054e-09
7.18595e-09
6.93788e-09
7.10802e-09
6.93659e-09
7.15548e-09
6.97651e-09
6.99117e-09
6.66711e-09
6.31723e-09
6.86573e-09
7.0797e-09
6.90925e-09
7.04395e-09
6.85576e-09
7.05183e-09
6.89539e-09
7.05159e-09
6.89124e-09
7.06381e-09
6.85279e-09
7.04584e-09
6.91015e-09
7.07039e-09
6.90188e-09
7.0688e-09
6.86333e-09
7.0497e-09
6.91378e-09
7.078e-09
6.90827e-09
7.07052e-09
6.8561e-09
7.02712e-09
6.88686e-09
7.05532e-09
6.90478e-09
7.10245e-09
6.93785e-09
7.09144e-09
6.93805e-09
7.09556e-09
6.91782e-09
7.09842e-09
6.93455e-09
7.1013e-09
6.94769e-09
7.11747e-09
6.91129e-09
7.17298e-09
6.88323e-09
7.03744e-09
6.8549e-09
6.99955e-09
6.87344e-09
7.10764e-09
6.88011e-09
7.04908e-09
6.89605e-09
7.05934e-09
6.87186e-09
7.06193e-09
6.89596e-09
7.08835e-09
6.89674e-09
7.13553e-09
6.92733e-09
7.14327e-09
6.91674e-09
7.11788e-09
6.98263e-09
7.0969e-09
6.93831e-09
7.0581e-09
6.88046e-09
7.11178e-09
6.85631e-09
7.11457e-09
6.83964e-09
7.05843e-09
6.89776e-09
7.04264e-09