/*--------------------------------*- C++ -*----------------------------------*\
| =========                 |                                                 |
| \\      /  F ield         | OpenFOAM: The Open Source CFD Toolbox           |
|  \\    /   O peration     | Version:  2206                                  |
|   \\  /    A nd           | Website:  www.openfoam.com                      |
|    \\/     M anipulation  |                                                 |
\*---------------------------------------------------------------------------*/
FoamFile
{
    version     2.0;
    format      ascii;
    arch        "LSB;label=32;scalar=64";
    class       volScalarField;
    location    "0.9";
    object      nut;
}
// * * * * * * * * * * * * * * * * * * * * * * * * * * * * * * * * * * * * * //

dimensions      [0 2 -1 0 0 0 0];

internalField   nonuniform List<scalar> 
185391
(
4.78116e-16
4.92356e-16
4.81277e-16
4.87756e-16
4.84041e-16
4.94038e-16
4.88155e-16
4.92197e-16
4.91404e-16
4.91373e-16
4.77433e-16
4.85786e-16
5.04915e-16
4.93546e-16
4.80238e-16
5.06907e-16
4.75999e-16
4.81374e-16
4.92922e-16
4.79509e-16
4.95013e-16
4.84893e-16
4.72184e-16
4.92261e-16
4.89581e-16
4.81591e-16
4.96664e-16
4.94358e-16
4.96269e-16
4.87574e-16
4.88695e-16
4.95626e-16
4.80186e-16
4.91162e-16
4.78437e-16
4.94989e-16
4.9786e-16
4.85032e-16
4.96128e-16
4.86755e-16
4.97802e-16
5.034e-16
4.81156e-16
4.9413e-16
4.83549e-16
4.89047e-16
4.88773e-16
4.97025e-16
4.77852e-16
4.96802e-16
4.99455e-16
3.96417e-16
4.9774e-16
4.77491e-16
5.01707e-16
4.91071e-16
4.87708e-16
4.90247e-16
5.00149e-16
5.04769e-16
4.9499e-16
4.86911e-16
4.77665e-16
5.04356e-16
4.8609e-16
4.9334e-16
4.95656e-16
5.00173e-16
4.82427e-16
4.89224e-16
4.95055e-16
5.04621e-16
4.93898e-16
5.04257e-16
4.76708e-16
5.05831e-16
4.86655e-16
4.9956e-16
4.81455e-16
4.88951e-16
4.97325e-16
4.82076e-16
4.86271e-16
4.95771e-16
5.01137e-16
4.84388e-16
4.82526e-16
4.86395e-16
4.84554e-16
5.03358e-16
5.06636e-16
4.90113e-16
4.91273e-16
4.38264e-16
5.03215e-16
4.80911e-16
4.88059e-16
4.97076e-16
4.9504e-16
4.87037e-16
5.05955e-16
4.9135e-16
4.79171e-16
4.89825e-16
4.94162e-16
4.89629e-16
4.95364e-16
4.92281e-16
4.78722e-16
4.79824e-16
4.93638e-16
4.93218e-16
4.76395e-16
4.82096e-16
4.97601e-16
4.95779e-16
4.95135e-16
5.022e-16
4.83168e-16
4.78659e-16
4.98806e-16
5.02171e-16
4.95803e-16
5.01399e-16
4.81941e-16
4.86636e-16
5.0346e-16
4.8617e-16
4.94465e-16
4.90619e-16
4.90836e-16
4.98583e-16
4.86531e-16
4.60963e-16
4.86096e-16
4.97354e-16
4.8297e-16
4.88178e-16
5.03216e-16
4.88065e-16
5.04184e-16
4.46215e-16
4.85669e-16
4.75508e-16
5.08599e-16
4.87582e-16
5.03899e-16
5.00623e-16
5.03859e-16
5.05873e-16
4.87703e-16
4.99728e-16
4.83199e-16
4.88035e-16
5.0355e-16
4.86428e-16
4.86388e-16
4.80282e-16
4.97018e-16
4.88109e-16
4.94827e-16
5.0373e-16
4.94429e-16
4.8729e-16
4.89733e-16
5.03535e-16
4.9577e-16
4.87861e-16
5.00179e-16
4.90456e-16
4.76549e-16
4.85428e-16
4.99397e-16
5.07069e-16
4.84231e-16
5.06078e-16
4.89649e-16
4.91228e-16
4.95304e-16
5.11822e-16
4.89177e-16
5.10361e-16
4.91499e-16
5.05482e-16
4.75194e-16
4.80944e-16
5.02448e-16
4.88692e-16
5.0617e-16
4.78134e-16
4.93136e-16
4.87319e-16
5.06549e-16
4.88025e-16
5.07075e-16
4.9051e-16
4.89453e-16
4.8059e-16
4.91211e-16
4.88975e-16
4.86597e-16
5.0947e-16
4.83425e-16
5.05952e-16
4.83276e-16
4.78886e-16
5.0075e-16
4.99494e-16
5.09252e-16
5.06522e-16
5.07566e-16
4.86535e-16
4.85482e-16
5.04518e-16
4.99812e-16
4.86072e-16
4.84747e-16
5.08482e-16
4.97389e-16
4.86817e-16
4.96722e-16
5.05313e-16
5.10178e-16
4.91969e-16
5.03369e-16
4.97302e-16
4.95503e-16
5.06623e-16
5.04459e-16
4.86415e-16
4.86729e-16
5.05399e-16
5.05859e-16
5.00784e-16
5.10666e-16
5.01303e-16
4.88974e-16
5.01983e-16
4.87015e-16
4.89956e-16
4.88196e-16
4.84452e-16
5.02832e-16
5.04673e-16
4.86176e-16
4.97105e-16
5.04104e-16
4.84642e-16
5.04115e-16
4.9462e-16
4.79277e-16
4.79535e-16
4.94133e-16
5.04148e-16
4.8926e-16
4.84434e-16
4.80042e-16
4.88558e-16
4.75955e-16
4.8385e-16
4.85827e-16
4.83594e-16
4.94735e-16
4.97361e-16
5.03678e-16
5.10856e-16
5.02414e-16
4.98437e-16
4.79992e-16
4.99825e-16
4.84313e-16
4.89814e-16
5.01887e-16
4.76338e-16
4.99275e-16
4.93446e-16
4.87781e-16
5.05255e-16
4.83708e-16
4.95685e-16
4.79074e-16
4.92966e-16
4.77716e-16
5.079e-16
4.84355e-16
5.05378e-16
5.0071e-16
4.86121e-16
5.02542e-16
5.00639e-16
4.86165e-16
4.84664e-16
4.79759e-16
4.92833e-16
4.94269e-16
4.89541e-16
4.82585e-16
5.00573e-16
4.95145e-16
5.03042e-16
4.84668e-16
5.02314e-16
4.85684e-16
5.05605e-16
4.99243e-16
5.00513e-16
4.86094e-16
5.05074e-16
4.00321e-16
4.89801e-16
4.93897e-16
5.04345e-16
4.87009e-16
5.03996e-16
4.83922e-16
4.91388e-16
4.86174e-16
4.02372e-16
5.09569e-16
4.93492e-16
4.97862e-16
4.84246e-16
4.7718e-16
4.91838e-16
4.89283e-16
4.7918e-16
4.97718e-16
3.9113e-16
4.8177e-16
4.76751e-16
4.81355e-16
4.40128e-16
4.95281e-16
4.72636e-16
4.77423e-16
4.94609e-16
5.0002e-16
4.85294e-16
5.03754e-16
4.97129e-16
5.03498e-16
4.92729e-16
4.79306e-16
4.81168e-16
4.96076e-16
4.78294e-16
4.76408e-16
5.02562e-16
4.91014e-16
4.89631e-16
5.02676e-16
4.77075e-16
4.88318e-16
4.91096e-16
4.96648e-16
4.83531e-16
5.03598e-16
4.84086e-16
5.05509e-16
4.95187e-16
4.9928e-16
4.90227e-16
4.88304e-16
4.88086e-16
4.83451e-16
4.91322e-16
4.81605e-16
4.96605e-16
4.7813e-16
4.78466e-16
4.82382e-16
4.93497e-16
5.02977e-16
4.95538e-16
4.96882e-16
4.97434e-16
4.99e-16
4.75344e-16
4.89056e-16
5.02689e-16
4.78883e-16
4.82473e-16
4.89256e-16
4.92642e-16
4.78252e-16
4.79647e-16
4.9991e-16
4.9823e-16
4.86352e-16
5.08208e-16
5.04553e-16
5.0485e-16
4.79082e-16
5.06204e-16
4.81197e-16
4.99916e-16
5.00787e-16
4.85213e-16
4.90219e-16
4.88717e-16
4.87417e-16
4.87068e-16
4.81817e-16
4.85679e-16
4.84386e-16
5.03621e-16
4.86731e-16
4.77516e-16
4.73927e-16
4.91134e-16
5.06259e-16
4.9133e-16
4.8721e-16
4.77054e-16
4.87909e-16
5.0841e-16
4.94907e-16
4.96727e-16
4.87861e-16
4.82179e-16
4.77925e-16
4.89518e-16
4.80943e-16
4.94622e-16
4.86297e-16
4.86308e-16
5.09005e-16
4.90393e-16
4.88961e-16
4.7893e-16
4.87884e-16
4.84651e-16
4.85453e-16
5.00045e-16
4.9699e-16
4.80941e-16
4.92285e-16
4.86343e-16
4.87909e-16
4.80329e-16
4.89472e-16
4.76893e-16
4.95183e-16
4.95524e-16
4.95286e-16
4.81262e-16
4.93684e-16
4.93138e-16
4.82439e-16
4.85665e-16
4.7523e-16
5.05821e-16
4.78331e-16
4.83715e-16
4.83573e-16
4.94929e-16
4.81375e-16
4.7496e-16
5.03062e-16
5.0383e-16
4.90594e-16
4.98372e-16
4.9395e-16
5.04378e-16
5.05976e-16
5.01589e-16
4.84987e-16
4.93362e-16
5.06427e-16
5.02001e-16
4.96131e-16
4.84801e-16
4.82445e-16
5.02277e-16
4.86194e-16
4.87974e-16
4.83962e-16
5.02391e-16
4.76664e-16
4.96956e-16
4.95328e-16
4.87415e-16
4.87363e-16
5.01072e-16
4.86599e-16
5.01009e-16
5.00184e-16
4.85463e-16
5.00357e-16
5.00278e-16
4.86389e-16
5.00204e-16
5.03264e-16
4.91941e-16
5.03961e-16
4.88798e-16
5.03169e-16
4.90775e-16
5.03036e-16
4.91328e-16
5.01169e-16
4.86313e-16
5.05498e-16
5.0545e-16
4.83756e-16
5.05136e-16
4.92667e-16
4.99912e-16
4.94526e-16
5.06133e-16
4.91154e-16
4.87367e-16
4.90115e-16
5.12279e-16
5.01055e-16
4.95382e-16
5.01464e-16
4.8647e-16
4.8329e-16
5.01439e-16
4.88164e-16
4.96887e-16
5.08064e-16
5.06099e-16
4.83231e-16
5.06951e-16
4.87644e-16
5.06763e-16
4.96311e-16
5.06235e-16
4.95387e-16
4.8512e-16
4.86585e-16
4.98756e-16
5.02209e-16
4.92761e-16
4.93205e-16
5.05959e-16
4.92982e-16
4.38794e-16
5.06193e-16
4.87472e-16
4.87841e-16
4.88131e-16
4.9966e-16
4.87359e-16
4.99196e-16
4.8836e-16
4.99313e-16
4.87054e-16
5.00432e-16
4.8929e-16
4.99548e-16
4.86711e-16
4.99345e-16
4.86852e-16
4.97777e-16
4.86741e-16
4.99079e-16
4.86723e-16
4.99185e-16
4.86303e-16
4.9818e-16
4.85987e-16
4.97449e-16
4.86015e-16
4.98858e-16
4.87158e-16
4.99983e-16
4.88607e-16
5.00585e-16
4.89412e-16
5.00787e-16
4.90348e-16
5.03713e-16
4.89278e-16
5.02738e-16
4.91722e-16
5.02584e-16
4.89601e-16
5.02925e-16
4.89655e-16
5.01278e-16
4.86966e-16
5.01103e-16
4.88438e-16
5.01238e-16
4.92493e-16
5.01976e-16
4.89661e-16
5.05239e-16
4.91971e-16
5.02788e-16
4.91598e-16
5.0483e-16
4.85853e-16
5.02958e-16
4.85926e-16
5.03417e-16
4.94548e-16
5.00941e-16
4.96093e-16
5.04502e-16
4.84683e-16
5.00653e-16
4.88766e-16
5.01565e-16
4.8924e-16
4.99688e-16
4.85773e-16
5.0105e-16
4.9027e-16
5.01915e-16
4.90497e-16
4.99914e-16
4.82952e-16
4.99797e-16
4.89703e-16
4.99849e-16
4.86673e-16
4.94637e-16
4.85857e-16
4.98589e-16
4.83376e-16
5.03819e-16
4.87093e-16
4.94351e-16
4.85145e-16
4.99984e-16
4.81595e-16
4.97427e-16
4.85967e-16
4.9313e-16
4.8352e-16
5.03622e-16
4.84625e-16
5.04673e-16
4.85217e-16
5.07176e-16
4.84926e-16
5.05962e-16
4.87344e-16
5.06358e-16
4.96612e-16
4.99062e-16
4.92052e-16
4.99447e-16
4.91808e-16
4.99823e-16
4.91918e-16
5.01208e-16
4.92736e-16
5.02055e-16
4.93394e-16
4.99801e-16
4.86404e-16
4.99469e-16
4.91825e-16
5.0496e-16
4.90817e-16
5.04795e-16
4.88904e-16
5.01522e-16
4.86877e-16
5.0227e-16
4.92305e-16
5.02587e-16
4.90492e-16
5.05988e-16
4.91129e-16
5.07256e-16
4.9209e-16
5.03746e-16
4.82797e-16
4.76569e-16
4.38402e-16
3.99596e-16
4.8731e-16
5.00432e-16
4.87541e-16
4.999e-16
4.86625e-16
4.98485e-16
4.85099e-16
5.00469e-16
4.88326e-16
4.98976e-16
4.84944e-16
4.97786e-16
4.8479e-16
4.96497e-16
4.84774e-16
4.98605e-16
4.87559e-16
5.00274e-16
4.86686e-16
5.00379e-16
4.883e-16
5.00693e-16
4.87984e-16
4.99374e-16
4.8784e-16
5.00639e-16
4.88183e-16
5.0224e-16
4.89267e-16
5.0031e-16
4.89516e-16
5.00816e-16
4.87498e-16
5.03366e-16
4.9199e-16
5.0199e-16
4.90314e-16
5.03214e-16
4.91509e-16
5.03394e-16
4.92019e-16
5.03119e-16
4.8951e-16
5.01557e-16
4.90557e-16
5.01745e-16
4.89306e-16
5.02818e-16
4.88214e-16
4.98398e-16
4.87318e-16
5.08061e-16
4.85518e-16
4.99365e-16
4.89408e-16
5.06315e-16
4.93977e-16
5.05668e-16
4.88968e-16
5.12658e-16
5.00539e-16
5.00949e-16
4.87798e-16
4.99607e-16
4.86629e-16
5.03091e-16
4.90305e-16
5.01804e-16
4.88186e-16
4.96892e-16
4.87001e-16
5.01851e-16
4.83226e-16
4.99058e-16
4.82001e-16
5.00328e-16
4.81918e-16
4.98056e-16
4.86483e-16
5.03806e-16
4.828e-16
4.98969e-16
4.84837e-16
4.96784e-16
4.8612e-16
5.02781e-16
4.91305e-16
5.00541e-16
4.95588e-16
4.97245e-16
4.84431e-16
4.98623e-16
4.96502e-16
4.96797e-16
4.95415e-16
4.97374e-16
4.95361e-16
4.98787e-16
4.96404e-16
4.98444e-16
4.96651e-16
4.98944e-16
4.97645e-16
5.01247e-16
4.98066e-16
5.00501e-16
4.97877e-16
5.00496e-16
4.97156e-16
4.99885e-16
4.97132e-16
4.99219e-16
4.94616e-16
4.98608e-16
4.88786e-16
5.05952e-16
4.909e-16
5.09839e-16
4.95026e-16
5.05341e-16
4.87767e-16
5.04363e-16
4.9156e-16
5.04462e-16
4.90403e-16
5.04083e-16
4.90224e-16
5.08905e-16
4.90824e-16
5.13083e-16
4.86157e-16
4.84518e-16
4.38706e-16
4.03255e-16
4.86125e-16
4.98415e-16
4.87846e-16
4.99466e-16
4.86859e-16
4.97982e-16
4.8497e-16
4.98771e-16
4.8751e-16
4.9849e-16
4.84133e-16
4.96715e-16
4.83954e-16
4.96221e-16
4.84349e-16
4.97401e-16
4.86014e-16
4.99331e-16
4.8504e-16
4.99189e-16
4.88813e-16
5.03799e-16
4.91021e-16
5.01594e-16
4.88288e-16
5.01061e-16
4.86984e-16
5.02502e-16
4.87045e-16
5.01429e-16
4.89676e-16
4.99823e-16
4.86515e-16
5.02221e-16
4.90726e-16
5.02006e-16
4.89733e-16
5.01933e-16
4.89756e-16
4.99445e-16
4.86604e-16
5.00624e-16
4.88954e-16
5.00504e-16
4.88579e-16
5.02548e-16
4.88112e-16
5.00676e-16
4.85861e-16
4.99163e-16
4.86328e-16
4.98482e-16
4.86103e-16
5.01403e-16
4.84867e-16
5.05183e-16
4.9517e-16
5.11065e-16
4.89263e-16
5.02086e-16
4.90771e-16
5.00498e-16
4.87833e-16
5.03236e-16
4.89603e-16
5.0684e-16
4.95079e-16
5.07612e-16
4.87176e-16
5.06718e-16
4.89378e-16
5.03448e-16
4.91621e-16
5.03549e-16
4.87972e-16
5.02707e-16
4.83931e-16
5.07708e-16
4.93701e-16
4.9807e-16
4.9589e-16
4.98637e-16
4.86081e-16
4.97003e-16
4.85048e-16
5.01113e-16
4.8623e-16
4.98233e-16
4.86135e-16
5.01925e-16
4.9002e-16
4.95255e-16
4.921e-16
4.96833e-16
4.93309e-16
5.00635e-16
4.85994e-16
5.00187e-16
4.94877e-16
4.99746e-16
4.94649e-16
4.97882e-16
4.9417e-16
4.99342e-16
4.97384e-16
5.00134e-16
4.97593e-16
5.00183e-16
4.96642e-16
5.00837e-16
4.97593e-16
5.02697e-16
4.85783e-16
5.07804e-16
4.96252e-16
4.98439e-16
4.95857e-16
5.07463e-16
4.95399e-16
4.9861e-16
4.86765e-16
5.09471e-16
4.97315e-16
5.02115e-16
4.89496e-16
5.03774e-16
4.91613e-16
5.06286e-16
4.9269e-16
5.04358e-16
4.89282e-16
4.76832e-16
4.40143e-16
4.03758e-16
4.85893e-16
4.98916e-16
4.87158e-16
4.98006e-16
4.86031e-16
4.99036e-16
4.86247e-16
4.99312e-16
4.87766e-16
4.99886e-16
4.84835e-16
4.97208e-16
4.83202e-16
4.97185e-16
4.84494e-16
4.95991e-16
4.84209e-16
5.01769e-16
4.86164e-16
5.01998e-16
4.89664e-16
5.06301e-16
4.97715e-16
5.0575e-16
4.92006e-16
5.05626e-16
4.89484e-16
5.01872e-16
4.88028e-16
5.01742e-16
4.8998e-16
5.00676e-16
4.86243e-16
4.99554e-16
4.88494e-16
5.00313e-16
4.91693e-16
5.01543e-16
4.87793e-16
5.01091e-16
4.86835e-16
5.01354e-16
4.86972e-16
4.9833e-16
4.89598e-16
5.0073e-16
4.86909e-16
4.99022e-16
4.86373e-16
5.00708e-16
4.8594e-16
4.97493e-16
4.82813e-16
5.02699e-16
4.89866e-16
5.0334e-16
4.9849e-16
5.02078e-16
4.8973e-16
5.03424e-16
4.89399e-16
5.00569e-16
4.88975e-16
5.04604e-16
4.91005e-16
5.04488e-16
4.93739e-16
5.08052e-16
4.93845e-16
5.10129e-16
4.92565e-16
5.0486e-16
4.92399e-16
5.07847e-16
4.90223e-16
5.07022e-16
4.88926e-16
5.13084e-16
4.86107e-16
5.04961e-16
4.87057e-16
5.11986e-16
4.85846e-16
4.97047e-16
4.87737e-16
4.95347e-16
4.8806e-16
5.05485e-16
4.92888e-16
4.98229e-16
4.88849e-16
4.9525e-16
4.86519e-16
4.97295e-16
4.91804e-16
4.9674e-16
4.88818e-16
4.96882e-16
4.89727e-16
5.0268e-16
4.89896e-16
5.02283e-16
4.87915e-16
5.01629e-16
4.90824e-16
5.01795e-16
4.89471e-16
5.0008e-16
4.86859e-16
4.99544e-16
4.87469e-16
4.98411e-16
4.87182e-16
4.9933e-16
4.84814e-16
4.98442e-16
4.85757e-16
4.97127e-16
4.84097e-16
4.98613e-16
4.85569e-16
5.07296e-16
4.88804e-16
5.06056e-16
4.95916e-16
5.03632e-16
4.88586e-16
5.01935e-16
4.88197e-16
5.02335e-16
4.84194e-16
4.77561e-16
4.40112e-16
4.04787e-16
4.856e-16
5.00999e-16
4.88187e-16
4.98887e-16
4.85528e-16
5.00469e-16
4.88591e-16
5.01029e-16
4.89211e-16
5.00492e-16
4.87067e-16
4.99056e-16
4.85357e-16
4.99207e-16
4.8756e-16
4.96737e-16
4.86182e-16
5.02775e-16
4.92477e-16
5.06075e-16
4.91589e-16
5.03047e-16
4.9273e-16
5.04377e-16
4.93038e-16
5.05115e-16
4.93444e-16
5.04346e-16
4.90406e-16
5.01693e-16
4.90762e-16
5.01488e-16
4.86332e-16
4.99276e-16
4.8631e-16
4.99632e-16
4.87248e-16
4.97792e-16
4.86323e-16
4.9821e-16
4.8585e-16
5.02168e-16
4.88671e-16
5.01386e-16
4.86837e-16
5.03092e-16
4.91633e-16
4.99764e-16
4.89303e-16
5.03165e-16
4.91836e-16
5.02952e-16
4.86025e-16
5.03408e-16
4.86149e-16
4.9802e-16
4.92149e-16
4.98459e-16
4.90173e-16
5.00603e-16
4.87891e-16
5.00551e-16
4.86783e-16
5.00155e-16
4.87678e-16
5.01995e-16
4.88195e-16
5.00749e-16
4.93919e-16
5.04155e-16
4.9092e-16
5.14223e-16
5.03337e-16
5.06399e-16
4.97861e-16
5.04772e-16
4.93103e-16
5.16282e-16
4.89569e-16
5.03866e-16
4.99612e-16
5.01862e-16
4.89192e-16
5.02247e-16
4.88931e-16
5.09085e-16
4.92766e-16
4.98899e-16
4.90185e-16
4.9924e-16
4.89319e-16
4.95781e-16
4.86578e-16
5.00507e-16
4.90037e-16
5.00802e-16
4.88046e-16
5.00434e-16
4.87839e-16
5.00055e-16
4.885e-16
4.99064e-16
4.85934e-16
5.00482e-16
4.89413e-16
5.01857e-16
4.87832e-16
4.99895e-16
4.84711e-16
4.97963e-16
4.8565e-16
4.98215e-16
4.86054e-16
4.99312e-16
4.86561e-16
5.00393e-16
4.87562e-16
5.00093e-16
4.86626e-16
5.01826e-16
4.88237e-16
5.01755e-16
4.95935e-16
5.02721e-16
4.878e-16
5.01951e-16
4.8748e-16
5.01965e-16
4.8615e-16
5.04315e-16
4.82039e-16
4.75307e-16
4.40289e-16
4.0169e-16
4.89599e-16
5.00359e-16
4.86642e-16
5.00384e-16
4.88451e-16
5.01352e-16
4.89209e-16
4.99946e-16
4.87522e-16
4.96575e-16
4.86952e-16
4.9542e-16
4.91852e-16
4.91533e-16
4.92272e-16
4.95729e-16
4.95829e-16
5.17454e-16
4.7582e-16
4.9091e-16
4.87652e-16
4.94842e-16
4.82197e-16
4.95045e-16
4.85228e-16
4.97796e-16
4.86296e-16
4.96302e-16
4.86623e-16
4.97866e-16
4.86688e-16
4.99033e-16
4.85775e-16
4.99561e-16
4.86233e-16
4.98681e-16
4.85857e-16
5.04849e-16
4.85299e-16
4.98515e-16
4.88302e-16
5.01886e-16
4.90498e-16
5.00161e-16
4.88958e-16
5.02237e-16
4.82695e-16
5.02335e-16
4.85966e-16
5.03862e-16
4.84594e-16
5.02954e-16
4.84335e-16
4.97916e-16
4.84623e-16
4.98055e-16
4.87679e-16
5.01509e-16
4.88739e-16
4.97486e-16
4.86487e-16
5.01069e-16
4.9386e-16
4.95093e-16
4.9069e-16
5.03136e-16
4.9239e-16
5.05713e-16
4.94675e-16
5.06344e-16
4.90407e-16
5.09081e-16
4.97223e-16
5.02285e-16
4.95392e-16
5.05742e-16
4.88437e-16
5.02193e-16
4.90335e-16
5.01948e-16
4.88253e-16
5.03126e-16
4.98303e-16
5.01336e-16
4.87701e-16
5.00569e-16
4.94305e-16
5.0836e-16
4.97166e-16
4.99439e-16
4.88392e-16
4.99843e-16
4.90937e-16
4.97364e-16
4.88624e-16
5.03165e-16
4.87785e-16
5.02078e-16
4.88124e-16
4.98433e-16
4.82802e-16
4.95668e-16
4.87289e-16
4.98841e-16
4.88209e-16
4.99605e-16
4.85873e-16
4.98275e-16
4.86449e-16
4.98472e-16
4.86763e-16
5.00347e-16
4.87783e-16
4.98975e-16
4.87376e-16
4.983e-16
4.86255e-16
5.01792e-16
4.90246e-16
5.00644e-16
4.89763e-16
5.02253e-16
4.90179e-16
5.03719e-16
4.9291e-16
5.0729e-16
4.89766e-16
5.06779e-16
4.82341e-16
4.78395e-16
4.38723e-16
3.97005e-16
4.89891e-16
5.01034e-16
4.87908e-16
5.00389e-16
4.87155e-16
5.00513e-16
4.85516e-16
4.98214e-16
4.8215e-16
4.97477e-16
4.83414e-16
4.98172e-16
4.86478e-16
4.93748e-16
4.97239e-16
5.02496e-16
4.70565e-16
4.92936e-16
4.83926e-16
4.94724e-16
4.81299e-16
4.94245e-16
4.80711e-16
4.97018e-16
4.85599e-16
4.99673e-16
4.87143e-16
5.00711e-16
4.88824e-16
5.01722e-16
4.88938e-16
5.01956e-16
4.88482e-16
5.00882e-16
4.88748e-16
5.01595e-16
4.88548e-16
5.016e-16
4.87911e-16
4.9991e-16
4.88022e-16
4.99987e-16
4.88278e-16
5.02229e-16
4.86417e-16
4.9923e-16
4.88409e-16
4.9917e-16
4.84671e-16
5.0374e-16
4.90215e-16
4.98476e-16
4.91534e-16
5.0356e-16
4.89573e-16
5.06184e-16
4.88149e-16
5.08108e-16
4.9311e-16
5.0206e-16
4.89156e-16
4.99073e-16
4.8735e-16
5.04785e-16
4.90678e-16
5.07135e-16
4.88523e-16
5.03373e-16
4.9592e-16
5.04085e-16
4.93098e-16
5.01757e-16
4.92363e-16
5.10412e-16
4.95705e-16
5.04095e-16
4.9012e-16
5.00152e-16
4.89186e-16
4.97326e-16
4.90033e-16
4.98773e-16
4.87507e-16
5.00801e-16
4.93442e-16
4.97521e-16
4.92055e-16
4.99165e-16
4.84245e-16
4.98827e-16
4.92069e-16
4.96064e-16
4.83942e-16
4.97271e-16
4.87054e-16
5.00046e-16
4.87266e-16
4.98035e-16
4.81859e-16
4.95517e-16
4.84582e-16
4.97105e-16
4.87534e-16
4.97105e-16
4.84951e-16
4.95153e-16
4.84791e-16
4.94542e-16
4.85459e-16
4.99045e-16
4.8219e-16
4.95644e-16
4.84308e-16
4.9406e-16
4.81825e-16
4.97323e-16
4.86419e-16
4.98165e-16
4.84181e-16
4.97183e-16
4.86698e-16
5.07968e-16
4.95506e-16
5.0121e-16
4.92826e-16
5.03406e-16
4.83519e-16
4.78697e-16
4.39503e-16
4.02402e-16
4.88916e-16
5.00135e-16
4.86645e-16
4.99096e-16
4.86417e-16
4.97563e-16
4.86166e-16
4.97692e-16
4.84358e-16
4.9782e-16
4.84271e-16
5.02035e-16
4.85098e-16
5.00777e-16
4.91433e-16
4.94098e-16
4.76254e-16
4.96301e-16
4.85439e-16
4.99707e-16
4.87126e-16
4.99335e-16
4.83173e-16
4.99233e-16
4.86831e-16
5.02329e-16
4.90478e-16
5.04321e-16
4.9123e-16
5.04291e-16
4.91589e-16
5.03603e-16
4.88723e-16
5.01001e-16
4.88163e-16
4.99967e-16
4.89177e-16
5.0104e-16
4.88235e-16
4.97771e-16
4.85665e-16
4.95029e-16
4.88726e-16
4.96555e-16
4.83342e-16
5.06516e-16
4.82348e-16
5.02663e-16
4.93565e-16
4.96918e-16
4.848e-16
5.05844e-16
4.84102e-16
5.01751e-16
4.90148e-16
5.03903e-16
4.88968e-16
5.11343e-16
4.88713e-16
5.03954e-16
4.99494e-16
5.04491e-16
4.8566e-16
4.99452e-16
4.9471e-16
5.004e-16
4.8683e-16
5.05174e-16
4.89363e-16
5.07367e-16
4.95322e-16
5.01244e-16
4.9239e-16
5.08657e-16
4.89428e-16
5.02384e-16
4.87336e-16
5.01076e-16
4.87986e-16
5.00333e-16
4.88416e-16
5.00922e-16
4.89896e-16
4.98499e-16
4.88176e-16
4.97973e-16
4.87429e-16
4.99248e-16
4.85012e-16
4.97493e-16
4.87291e-16
4.97805e-16
4.82981e-16
4.97823e-16
4.83665e-16
5.05762e-16
4.94373e-16
4.95744e-16
4.87724e-16
4.99054e-16
4.84939e-16
4.99337e-16
4.86796e-16
4.99814e-16
4.84548e-16
4.98317e-16
4.83508e-16
4.96347e-16
4.86562e-16
4.96348e-16
4.79377e-16
4.94822e-16
4.82911e-16
4.94734e-16
4.81669e-16
4.96105e-16
4.84497e-16
4.9568e-16
4.83854e-16
4.94535e-16
4.88545e-16
5.01922e-16
4.844e-16
5.06595e-16
4.89566e-16
5.01329e-16
4.80453e-16
4.72852e-16
4.3714e-16
4.00114e-16
4.87168e-16
4.99003e-16
4.86243e-16
5.00787e-16
4.87013e-16
4.99139e-16
4.86741e-16
4.97377e-16
4.85743e-16
4.9904e-16
4.88003e-16
5.01141e-16
4.87206e-16
5.05828e-16
4.90903e-16
4.96478e-16
4.82428e-16
4.97264e-16
4.85314e-16
4.99815e-16
4.90668e-16
5.02383e-16
4.86896e-16
5.02167e-16
4.89623e-16
5.01398e-16
4.89912e-16
5.03377e-16
4.91266e-16
5.01807e-16
4.91923e-16
5.04129e-16
4.89713e-16
5.03368e-16
4.87293e-16
4.99287e-16
4.86147e-16
5.0012e-16
4.86969e-16
4.99154e-16
4.82521e-16
4.95747e-16
4.86058e-16
5.05515e-16
4.84919e-16
5.05646e-16
4.88795e-16
4.93796e-16
4.80721e-16
4.9622e-16
4.81909e-16
4.9968e-16
4.83986e-16
5.03319e-16
4.8971e-16
4.99607e-16
4.93626e-16
5.01246e-16
4.91013e-16
4.98627e-16
4.92568e-16
4.98958e-16
4.88847e-16
5.03902e-16
4.96864e-16
5.02035e-16
4.89909e-16
5.02404e-16
4.94015e-16
5.11497e-16
4.8648e-16
5.05139e-16
4.84982e-16
5.03951e-16
4.91881e-16
4.98502e-16
4.89963e-16
4.98946e-16
4.90653e-16
4.98519e-16
4.89215e-16
4.99121e-16
4.94135e-16
4.99176e-16
4.88646e-16
5.02976e-16
4.90582e-16
5.03444e-16
4.87263e-16
4.98312e-16
4.897e-16
4.99481e-16
4.86512e-16
4.99581e-16
4.8682e-16
5.00775e-16
4.84645e-16
4.98555e-16
4.84719e-16
5.01017e-16
4.88578e-16
4.99974e-16
4.87745e-16
5.03413e-16
4.87121e-16
5.0246e-16
4.8701e-16
5.01601e-16
4.89182e-16
4.9952e-16
4.82344e-16
4.98629e-16
4.86003e-16
5.0135e-16
4.87013e-16
5.00364e-16
4.8664e-16
5.10565e-16
4.95434e-16
5.02746e-16
4.89459e-16
4.99643e-16
4.893e-16
5.0689e-16
4.897e-16
5.02402e-16
4.79845e-16
4.7793e-16
4.392e-16
4.02897e-16
4.86189e-16
4.97515e-16
4.84944e-16
4.99016e-16
4.86088e-16
4.99971e-16
4.86828e-16
4.97069e-16
4.83393e-16
4.97e-16
4.87177e-16
4.98231e-16
4.87392e-16
5.03834e-16
4.91835e-16
4.98249e-16
4.86703e-16
4.97433e-16
4.86002e-16
4.95931e-16
4.89889e-16
4.98998e-16
4.88392e-16
5.05274e-16
4.86618e-16
5.00812e-16
4.89577e-16
5.0323e-16
4.88217e-16
4.99436e-16
4.89604e-16
5.01317e-16
4.89729e-16
5.03079e-16
4.88452e-16
5.00027e-16
4.84826e-16
4.97477e-16
4.87557e-16
5.02454e-16
4.86587e-16
5.07239e-16
4.86756e-16
5.07996e-16
4.87249e-16
5.00243e-16
4.83778e-16
4.98531e-16
4.84156e-16
5.08001e-16
4.93574e-16
5.06876e-16
4.88938e-16
5.02519e-16
4.87086e-16
5.02156e-16
4.8861e-16
5.09299e-16
4.99266e-16
4.99223e-16
4.87379e-16
5.11414e-16
4.94182e-16
5.05928e-16
4.90247e-16
5.01285e-16
4.9249e-16
5.07581e-16
4.89872e-16
5.10764e-16
4.92529e-16
5.04736e-16
4.90471e-16
5.12352e-16
4.93629e-16
5.04504e-16
4.85604e-16
4.98567e-16
4.92258e-16
5.04797e-16
4.85942e-16
5.04871e-16
4.97771e-16
5.01114e-16
4.8902e-16
5.02746e-16
4.90142e-16
5.04672e-16
4.90152e-16
5.01258e-16
4.88973e-16
4.99894e-16
4.91202e-16
5.04172e-16
4.90725e-16
4.99197e-16
4.89666e-16
4.99964e-16
4.85002e-16
5.03087e-16
4.92295e-16
5.02717e-16
4.89475e-16
5.01638e-16
4.89247e-16
5.01754e-16
4.88375e-16
5.00437e-16
4.89337e-16
5.001e-16
4.85873e-16
5.00106e-16
4.89114e-16
5.02579e-16
4.89883e-16
5.00652e-16
4.89955e-16
5.02502e-16
4.86901e-16
5.04794e-16
4.90504e-16
5.00479e-16
4.88783e-16
5.04606e-16
4.90488e-16
5.02176e-16
4.78206e-16
4.76656e-16
4.38858e-16
4.00932e-16
4.88924e-16
5.01267e-16
4.87466e-16
5.00493e-16
4.87388e-16
5.00513e-16
4.88828e-16
5.00414e-16
4.8562e-16
4.99007e-16
4.86482e-16
4.99031e-16
4.86007e-16
5.00806e-16
4.87984e-16
4.98104e-16
4.8682e-16
5.00019e-16
4.8505e-16
4.991e-16
4.86617e-16
4.98816e-16
4.91331e-16
5.00302e-16
4.82969e-16
4.97986e-16
4.86929e-16
5.00389e-16
4.8611e-16
4.97693e-16
4.86417e-16
5.00194e-16
4.89308e-16
5.01853e-16
4.87864e-16
4.99962e-16
4.85969e-16
4.9969e-16
4.88866e-16
5.06433e-16
4.96274e-16
5.07478e-16
4.86562e-16
5.09203e-16
4.89348e-16
4.99449e-16
4.86071e-16
5.0012e-16
4.93654e-16
5.00466e-16
4.90892e-16
5.03544e-16
4.8701e-16
4.99647e-16
4.88432e-16
5.02833e-16
4.90515e-16
5.07445e-16
4.92246e-16
5.08388e-16
4.93825e-16
5.08325e-16
4.91306e-16
5.05517e-16
4.91857e-16
5.02164e-16
4.87431e-16
5.07245e-16
4.9647e-16
5.03466e-16
4.95699e-16
5.01751e-16
4.96552e-16
4.98739e-16
4.93809e-16
5.0901e-16
4.99114e-16
4.98727e-16
4.89221e-16
4.98688e-16
4.86184e-16
5.02009e-16
4.89236e-16
5.03701e-16
4.89611e-16
5.03839e-16
4.8525e-16
5.02944e-16
4.88914e-16
4.97127e-16
4.8826e-16
4.98151e-16
4.8738e-16
4.99477e-16
4.90296e-16
5.02592e-16
4.87241e-16
5.08429e-16
4.8577e-16
5.01593e-16
4.9205e-16
5.02376e-16
4.88521e-16
5.01452e-16
4.88795e-16
4.99958e-16
4.86372e-16
5.00465e-16
4.8707e-16
5.00853e-16
4.86606e-16
5.008e-16
4.89339e-16
5.01935e-16
4.8927e-16
5.03218e-16
4.88597e-16
4.99295e-16
4.85934e-16
5.04159e-16
4.91868e-16
4.99097e-16
4.8721e-16
5.00851e-16
4.88012e-16
4.99974e-16
4.76124e-16
4.73928e-16
4.36347e-16
4.00836e-16
4.89989e-16
5.02918e-16
4.88385e-16
5.00508e-16
4.88363e-16
4.99854e-16
4.87491e-16
4.9911e-16
4.86869e-16
4.99651e-16
4.86652e-16
5.00504e-16
4.87869e-16
4.96807e-16
4.86799e-16
4.99627e-16
4.87099e-16
5.01548e-16
4.86311e-16
5.0014e-16
4.8949e-16
4.98945e-16
4.82881e-16
4.98448e-16
4.85772e-16
5.00962e-16
4.87245e-16
5.00069e-16
4.8733e-16
5.02632e-16
4.91087e-16
5.02851e-16
4.8834e-16
5.02363e-16
4.90463e-16
5.05427e-16
4.87164e-16
5.09073e-16
4.86377e-16
5.006e-16
4.96737e-16
5.00613e-16
4.90791e-16
5.06948e-16
4.91271e-16
5.01487e-16
4.90623e-16
5.00697e-16
4.8697e-16
5.00057e-16
4.87323e-16
4.99755e-16
4.88136e-16
5.0016e-16
4.8915e-16
5.01994e-16
4.90053e-16
5.04909e-16
4.91602e-16
5.0438e-16
4.94152e-16
5.11994e-16
4.90135e-16
5.00861e-16
4.90563e-16
5.03522e-16
4.94364e-16
5.02348e-16
4.88349e-16
5.07248e-16
4.86822e-16
5.01443e-16
4.88778e-16
5.03833e-16
4.88454e-16
5.05043e-16
4.93257e-16
4.98246e-16
4.96056e-16
5.00314e-16
4.85666e-16
5.05391e-16
4.88041e-16
4.98849e-16
4.87659e-16
4.98919e-16
4.86727e-16
4.97743e-16
4.85421e-16
5.01479e-16
4.851e-16
4.97108e-16
4.8616e-16
5.01455e-16
4.86318e-16
5.01457e-16
4.84757e-16
5.01145e-16
4.90595e-16
5.02417e-16
4.88364e-16
5.00991e-16
4.88769e-16
5.01507e-16
4.90798e-16
5.00742e-16
4.88974e-16
5.00248e-16
4.87765e-16
5.01509e-16
4.9013e-16
5.02374e-16
4.89216e-16
5.01163e-16
4.85696e-16
5.01942e-16
4.88596e-16
5.03115e-16
4.91101e-16
5.01703e-16
4.86764e-16
5.01904e-16
4.88007e-16
5.02965e-16
4.7846e-16
4.75058e-16
4.38238e-16
4.00717e-16
4.90161e-16
5.03373e-16
4.89834e-16
5.02081e-16
4.88198e-16
5.00069e-16
4.86792e-16
4.98296e-16
4.85775e-16
4.98871e-16
4.85235e-16
5.01063e-16
4.88054e-16
4.99462e-16
4.8711e-16
5.01481e-16
4.8855e-16
5.01328e-16
4.88144e-16
5.00799e-16
4.88749e-16
5.00262e-16
4.87074e-16
5.02099e-16
4.89574e-16
5.03577e-16
4.904e-16
5.02813e-16
4.90171e-16
5.03983e-16
4.9292e-16
5.05744e-16
4.90399e-16
5.03048e-16
4.92847e-16
5.04073e-16
4.89767e-16
5.02109e-16
4.89286e-16
5.04027e-16
4.88948e-16
5.04991e-16
4.98382e-16
5.09431e-16
4.96149e-16
5.09913e-16
4.88738e-16
5.00818e-16
4.87794e-16
5.0136e-16
4.88602e-16
5.02342e-16
4.89419e-16
5.03639e-16
4.89776e-16
5.00995e-16
4.89933e-16
5.04845e-16
4.92601e-16
5.02869e-16
4.9072e-16
5.04367e-16
4.88656e-16
5.12157e-16
4.85721e-16
5.05166e-16
4.9418e-16
5.01899e-16
4.92775e-16
5.00587e-16
4.86811e-16
5.03934e-16
4.84873e-16
4.99182e-16
4.85752e-16
5.00443e-16
4.86795e-16
4.97637e-16
4.89226e-16
4.98408e-16
4.79663e-16
5.01471e-16
4.85016e-16
4.98892e-16
4.94643e-16
5.02918e-16
4.85784e-16
4.99631e-16
4.87133e-16
5.08511e-16
4.87473e-16
5.02469e-16
4.87767e-16
4.99043e-16
4.87888e-16
5.01948e-16
4.84209e-16
5.0855e-16
4.89327e-16
5.05419e-16
4.88555e-16
5.10045e-16
4.93127e-16
5.01408e-16
4.91861e-16
5.10855e-16
4.91273e-16
5.01875e-16
4.86847e-16
5.03331e-16
4.87138e-16
5.05239e-16
4.87744e-16
4.99041e-16
4.86022e-16
4.98713e-16
4.87583e-16
4.99565e-16
4.86807e-16
5.07645e-16
4.89279e-16
5.07806e-16
4.91194e-16
5.04242e-16
4.82571e-16
4.81803e-16
4.38769e-16
4.00908e-16
4.86677e-16
5.01015e-16
4.88889e-16
4.99307e-16
4.86654e-16
5.0047e-16
4.88143e-16
4.99337e-16
4.86892e-16
4.9892e-16
4.85332e-16
4.99208e-16
4.89121e-16
5.00471e-16
4.8792e-16
5.01764e-16
4.88241e-16
5.00788e-16
4.90402e-16
5.02408e-16
4.89349e-16
5.01203e-16
4.87242e-16
5.01541e-16
4.90206e-16
5.03454e-16
4.90628e-16
5.0346e-16
4.90212e-16
5.01598e-16
4.9117e-16
5.03479e-16
4.89821e-16
5.03217e-16
4.91631e-16
5.0321e-16
4.91522e-16
5.02841e-16
4.89914e-16
5.03339e-16
4.89328e-16
5.00864e-16
4.88675e-16
4.99874e-16
4.8661e-16
4.99966e-16
4.87289e-16
5.04779e-16
4.93501e-16
5.00809e-16
4.88591e-16
5.00896e-16
4.9013e-16
5.02541e-16
4.9141e-16
5.02116e-16
4.87346e-16
5.01654e-16
4.85049e-16
5.04945e-16
4.8549e-16
5.11235e-16
4.91902e-16
4.98154e-16
4.90343e-16
5.07063e-16
4.88249e-16
5.0283e-16
4.8796e-16
4.97921e-16
4.90099e-16
5.09077e-16
4.85218e-16
4.97331e-16
4.86015e-16
5.04907e-16
4.83566e-16
4.96652e-16
4.87709e-16
4.98938e-16
4.8325e-16
5.02506e-16
4.86857e-16
5.05709e-16
4.91341e-16
5.07724e-16
4.8839e-16
4.96708e-16
4.86166e-16
5.00183e-16
4.86435e-16
4.98396e-16
4.89937e-16
5.01056e-16
4.87018e-16
5.08392e-16
4.83931e-16
5.07578e-16
4.93774e-16
4.98639e-16
4.8681e-16
5.07479e-16
4.91709e-16
5.09067e-16
4.98013e-16
4.98552e-16
4.85118e-16
5.07007e-16
4.93463e-16
4.99084e-16
4.93378e-16
5.06646e-16
4.83721e-16
5.06698e-16
4.87947e-16
5.00211e-16
4.89273e-16
5.08476e-16
4.94659e-16
5.08479e-16
4.90834e-16
5.02784e-16
4.8974e-16
5.04329e-16
4.85297e-16
4.80657e-16
4.38129e-16
4.0062e-16
4.85837e-16
5.00978e-16
4.88916e-16
4.98448e-16
4.85131e-16
4.99005e-16
4.87936e-16
4.98989e-16
4.87642e-16
4.99854e-16
4.84921e-16
4.98582e-16
4.8898e-16
5.00319e-16
4.88395e-16
5.00206e-16
4.85667e-16
4.98855e-16
4.89237e-16
5.00857e-16
4.88847e-16
5.00328e-16
4.85155e-16
4.97257e-16
4.87332e-16
4.99253e-16
4.886e-16
5.02588e-16
4.9094e-16
5.01809e-16
4.90954e-16
5.021e-16
4.89523e-16
5.02302e-16
4.90706e-16
5.02506e-16
4.91636e-16
5.0365e-16
4.89061e-16
5.07579e-16
4.87075e-16
4.97987e-16
4.8507e-16
4.95306e-16
4.86382e-16
5.02955e-16
4.86855e-16
4.98811e-16
4.87982e-16
4.99537e-16
4.8627e-16
4.9972e-16
4.87976e-16
5.0159e-16
4.88031e-16
5.04929e-16
4.90196e-16
5.05476e-16
4.89446e-16
5.03679e-16
4.94109e-16
5.02195e-16
4.90972e-16
4.99449e-16
4.86879e-16
5.03248e-16
4.8517e-16
5.03445e-16
4.83991e-16