/*--------------------------------*- C++ -*----------------------------------*\
| =========                 |                                                 |
| \\      /  F ield         | OpenFOAM: The Open Source CFD Toolbox           |
|  \\    /   O peration     | Version:  2206                                  |
|   \\  /    A nd           | Website:  www.openfoam.com                      |
|    \\/     M anipulation  |                                                 |
\*---------------------------------------------------------------------------*/
FoamFile
{
    version     2.0;
    format      ascii;
    arch        "LSB;label=32;scalar=64";
    class       volScalarField;
    location    "0.9";
    object      p;
}
// * * * * * * * * * * * * * * * * * * * * * * * * * * * * * * * * * * * * * //

dimensions      [0 2 -2 0 0 0 0];

internalField   nonuniform List<scalar> 
185391
(
0.00846349
0.00858125
0.00461561
0.00728366
0.00476251
0.0047408
0.00151816
0.00843362
0.00828497
0.00341256
0.00816943
0.00639171
0.00960669
0.00429078
0.0050639
0.000748107
0.00329632
0.00948355
0.00356058
0.00372842
0.00873361
0.00831283
0.00344382
0.00282471
0.00698429
0.00122692
0.00828888
0.00990008
0.0100516
0.00503779
0.00624104
0.00945685
0.00905408
0.00563127
0.00566111
0.00960691
0.00769515
0.00933924
0.00459648
0.0053604
0.00503217
0.00312055
0.00431526
0.00902547
0.0013736
0.00934703
0.00314657
0.00489186
0.00551262
0.00636271
0.00651054
0.000137791
0.00384918
0.00255914
0.00827952
0.00592697
0.00891394
0.00802281
0.00990492
0.00237919
0.00326887
0.00905991
0.00610074
0.002085
0.00742869
0.0088803
0.00607297
0.00149381
0.00595648
0.00816687
0.0013518
0.00769247
0.0022578
0.0068105
0.00581113
0.00458484
0.00801931
0.000750117
0.0024106
0.00684302
0.00858339
0.00890687
0.00550858
0.00566008
0.00695862
0.00609629
0.00402106
0.00787137
0.0016697
0.00650818
0.000593581
0.000620656
0.00491697
0.000177001
0.00517789
0.000275795
0.00108077
0.00577944
0.00461557
0.00861246
0.000598794
0.00665904
0.00699055
0.000620907
0.0076925
0.000467105
0.0071117
0.00681168
0.00653946
0.00772401
0.00754659
0.00329621
0.00669088
0.00757624
0.0075468
0.00355291
0.00650901
0.00341299
0.00978257
0.00684013
0.00326414
0.00813758
0.00975497
0.00384175
0.00698171
0.00713438
0.00399243
0.00300363
0.00417419
0.00535372
0.000467975
0.00577897
0.00181162
0.000271504
0.00195931
0.00414178
0.00668362
0.000775678
0.00297459
0.00358456
0.00164209
0.000179488
0.00255307
0.00919809
0.00251928
0.00916698
0.00149432
0.00517753
0.00134689
0.00105179
0.00166457
0.00163423
0.00638536
0.000926152
0.0017878
0.00152382
0.00122672
0.00300023
0.00473945
0.00107638
0.00607401
0.00193504
0.00181818
0.00520726
0.00284868
0.00607065
0.00742279
0.00122941
0.00134469
0.00960915
0.00477229
0.00401639
0.00193146
0.00341337
0.00329307
0.00252725
0.00240428
0.0093135
0.00387296
0.00384751
0.00902516
0.00414078
0.00609287
0.00355903
0.00890728
0.00580541
0.00312081
0.00358334
0.00326772
0.00949185
0.0100522
0.00255156
0.00399362
0.0034392
0.00237816
0.0075696
0.000774491
0.010083
0.00975654
0.00416665
0.00108367
0.00562999
0.000309514
0.00267432
0.00565565
0.000273397
0.00149206
0.00578113
0.00592565
0.00725107
0.00532826
0.00638512
0.00520732
0.00518322
0.00563321
0.00683508
0.00550396
0.00636142
0.00665859
0.00624157
0.00444228
0.00370373
0.0042876
0.00373049
0.00253018
0.00223225
0.00446308
0.00710385
0.00577898
0.00595031
0.000771443
0.00945882
0.00784482
0.00872805
0.00621584
0.00901817
0.0094845
0.00975103
0.00992902
0.00727873
0.00933649
0.0096304
0.0098979
0.00931091
0.0041689
0.00120298
0.00547794
0.00875672
0.000438333
0.00105441
0.00108482
0.000311222
0.00444206
0.00799171
0.00314774
0.00846096
0.0037384
0.00326791
0.00359031
0.00860975
0.00845875
0.00771706
0.00414093
0.00843797
0.000892982
0.00443799
0.00208414
0.00548029
0.00875921
0.003994
0.00977608
0.00713227
0.00681354
0.00905128
0.00621595
0.00917141
0.00595141
0.00695782
0.00358348
0.00636287
0.00639151
0.00725653
0.00624662
0.000439749
0.00387208
0.00739755
0.00960607
0.00580548
0.000906644
0.00931599
0.00949276
0.00668623
0.00078404
0.00179079
0.00370766
0.00461258
0.00491235
0.00975566
0.0028257
0.00267649
0.00270193
0.00222958
0.000929358
0.00754174
0.00105742
0.00178511
0.0025524
0.0100476
0.00014071
0.00535255
0.00799195
0.00119969
0.00137395
0.000436031
0.00683687
0.00654012
0.00387409
0.000137255
0.004736
0.00208568
0.00740086
0.0021113
0.00211402
0.0022336
0.00196609
0.00138108
0.000599424
0.000132003
0.00226429
0.00153204
0.00062934
0.00017161
0.00681089
0.000274297
0.00196558
0.00193524
0.00120445
0.00181886
0.00179249
0.0014967
0.00164552
0.00164664
0.000934952
0.00167123
0.000748704
0.00831562
0.00861167
0.00282306
0.00946142
0.0019646
0.00208287
0.00417305
0.0040238
0.00695912
0.00695782
0.00728179
0.00429057
0.0075704
0.00665764
0.00238141
0.00799617
0.00267708
0.00596101
0.00831203
0.00343923
0.00355912
0.00919419
0.00725549
0.00285256
0.00270802
0.00992506
0.00547954
0.00740002
0.00518258
0.00710425
0.0048873
0.00399748
0.0049223
0.00873052
0.00297182
0.00934142
0.00387952
0.00385016
0.00312092
0.00315043
0.00300286
0.00297185
0.00784486
0.00446836
0.00488531
0.00414499
0.00488261
0.00728619
0.000901295
0.000476556
0.000439462
0.00503105
0.00653439
0.00772333
0.00771896
0.00550554
0.00284659
0.00963219
0.00816335
0.00447327
0.00916564
0.0100735
0.00978329
0.00876158
0.00252929
0.0063614
0.00624991
0.00993271
0.0043222
0.00506042
0.00592756
0.00429188
0.00532748
0.00801303
0.000304935
0.00491629
0.00226272
0.00714143
0.00784515
0.00831066
0.0056544
0.00547772
0.00990254
0.00269977
0.0099356
0.00888006
0.00299739
0.0100752
0.00888097
0.00931369
0.00802
0.00152167
0.00210906
0.00225756
0.00787335
0.00669011
0.00462262
0.000907859
0.00370462
0.00533006
0.00743153
0.00740369
0.00135041
0.00521111
0.00904459
0.00963817
0.00074336
0.00123452
0.00329171
0.00816635
0.00459439
0.00240281
0.00402359
0.00223132
0.010191
0.00031159
0.00814035
0.00813849
0.00813758
0.00503845
0.00887418
0.0088986
0.00341437
0.00769207
0.0082857
0.00592625
0.00476359
0.00506358
0.00843331
0.00919237
0.00786966
0.00860589
0.00857876
0.00182032
0.00193888
0.00621676
0.00978729
0.00963838
0.00946315
0.00920244
0.00917164
0.00902973
0.00876435
0.00873249
0.00858042
0.00846125
0.00842906
0.00798982
0.00787443
0.00784171
0.00757846
0.00754857
0.0074325
0.00725165
0.00713673
0.00710394
0.00698928
0.00665921
0.00621765
0.00610361
0.00607303
0.00581176
0.00562551
0.00535921
0.0053235
0.0052094
0.00506382
0.00476558
0.0047312
0.00458645
0.00447043
0.00443802
0.00432024
0.00372971
0.0036977
0.00344365
0.00315153
0.00311924
0.00297168
0.0028511
0.00281963
0.00270306
0.00266812
0.00240715
0.00237805
0.00211416
0.0016686
0.00137756
0.00119833
0.00105029
0.000928161
0.000624418
0.00059253
0.000470787
0.00018102
0.00650615
0.00653279
0.00431488
0.00993064
0.00989949
0.00978128
0.00975195
0.00963429
0.00960349
0.00948785
0.009456
0.00934277
0.00931313
0.00919945
0.00916967
0.00905571
0.00902542
0.00891007
0.00887861
0.00876114
0.00873044
0.00861174
0.0085796
0.0084602
0.00842979
0.00831088
0.00828193
0.0081661
0.00813685
0.00802019
0.00798865
0.00786937
0.00783797
0.00772128
0.00769081
0.00757568
0.00754506
0.00742851
0.00739781
0.00727979
0.00724957
0.00713244
0.00710128
0.0069855
0.00695397
0.00683778
0.00680654
0.0066853
0.00665398
0.0065369
0.0065062
0.00638978
0.006361
0.00624838
0.00621532
0.00610239
0.00607081
0.00595764
0.00592686
0.00580968
0.00577534
0.00566018
0.00562576
0.00550729
0.00547615
0.00535385
0.0053219
0.00520373
0.00517247
0.00505654
0.00502681
0.00491407
0.00488263
0.00476859
0.00473632
0.00461934
0.00459058
0.00446787
0.00443744
0.0043157
0.00428529
0.00417052
0.0041394
0.00402399
0.00399459
0.00387581
0.00384633
0.00373045
0.00370002
0.00358384
0.00355372
0.00343911
0.00340881
0.00329122
0.00326108
0.00314687
0.00311666
0.00300075
0.00296935
0.00285002
0.00281921
0.00270121
0.00267018
0.00255475
0.00252361
0.00240686
0.00237481
0.00225743
0.00222734
0.00210997
0.00208066
0.00196055
0.00193079
0.00181612
0.00178405
0.00166817
0.00163836
0.00152316
0.00149216
0.0013775
0.00134606
0.00122884
0.00119694
0.00107982
0.00104845
0.000929523
0.00089841
0.000775575
0.000744617
0.000622142
0.000591222
0.000463019
0.000431391
0.000303808
0.000269743
0.000181358
0.000139785
0.00993161
0.00990152
0.0097829
0.00975296
0.00963325
0.00960378
0.00948819
0.0094592
0.00934437
0.00931504
0.00919997
0.0091719
0.00905532
0.00902625
0.00890745
0.00887848
0.0087613
0.00873158
0.00861336
0.00858323
0.0084631
0.00843173
0.00830909
0.00828036
0.00816794
0.00813908
0.0080212
0.00799132
0.00787093
0.00784058
0.00772133
0.00769159
0.00757671
0.00754733
0.00742993
0.00739912
0.00728175
0.00725139
0.00713369
0.00710379
0.0069866
0.00695613
0.00683671
0.00680649
0.006686
0.00665689
0.00653862
0.00650959
0.0063909
0.00636219
0.00624625
0.00621645
0.0061017
0.00607089
0.00595637
0.00592826
0.00580802
0.00577752
0.00566061
0.00562778
0.00550958
0.00547657
0.00535335
0.00532344
0.00520231
0.0051726
0.00505635
0.00502686
0.00491191
0.00488099
0.00476714
0.00473506
0.00461867
0.00458856
0.00446838
0.00443833
0.00431609
0.00428564
0.00416978
0.00413983
0.00402441
0.00399584
0.00387619
0.00384743
0.00373042
0.00370038
0.00358525
0.00355492
0.00343951
0.00341023
0.0032944
0.00326595
0.00315099
0.00312067
0.00300132
0.00297101
0.00285112
0.00282136
0.00270054
0.00267033
0.00255294
0.00252309
0.00240789
0.00237702
0.00225812
0.00222835
0.00210952
0.00208
0.00195982
0.00193075
0.00181393
0.00178422
0.00166747
0.00163837
0.00152182
0.0014921
0.00137683
0.00134653
0.00123056
0.00119909
0.00108008
0.00105006
0.000928222
0.000897772
0.0007746
0.000745167
0.000622469
0.000593419
0.000462526
0.000432899
0.000304966
0.000272277
0.000183923
0.000140335
0.00993105
0.00990098
0.00978326
0.00975301
0.00963474
0.00960444
0.00948958
0.00946022
0.00934611
0.00931561
0.00920189
0.00917317
0.00905763
0.00902719
0.00890947
0.00888051
0.00876406
0.00873261
0.00861115
0.00858204
0.0084674
0.00843752
0.00831348
0.0082837
0.00817112
0.00813822
0.00802
0.00798829
0.00787241
0.00784052
0.00772321
0.00769155
0.00757709
0.00754657
0.00743028
0.0073987
0.00728188
0.00724998
0.00713425
0.00710248
0.00698606
0.00695488
0.00683576
0.00680548
0.00668741
0.00665712
0.00653827
0.00650774
0.00639211
0.0063615
0.00624671
0.00621694
0.00610227
0.0060705
0.0059565
0.00592689
0.00580654
0.00577656
0.00565655
0.0056265
0.00550652
0.00547187
0.00535184
0.00532009
0.0052013
0.00517237
0.0050571
0.00502627
0.0049112
0.00487983
0.00476862
0.00473692
0.00461986
0.00458662
0.00446842
0.00443695
0.00431823
0.00428579
0.00417183
0.00414007
0.0040271
0.00399615
0.00387761
0.00384907
0.00373205
0.00370235
0.0035882
0.00355671
0.00344216
0.00341142
0.00329585
0.00326683
0.00315307
0.00312194
0.00300214
0.0029715
0.00285247
0.00282152
0.00270111
0.00266985
0.00255287
0.00252275
0.00240588
0.00237487
0.00225768
0.0022265
0.0021102
0.00208013
0.00196229
0.00193288
0.00181535
0.00178459
0.00166832
0.00163789
0.00152337
0.00149354
0.00137768
0.00134687
0.00123008
0.00119871
0.00108003
0.00104904
0.00092863
0.000898264
0.000775955
0.000745881
0.00062536
0.000596347
0.000467794
0.000436832
0.000305588
0.000272003
0.000183251
0.000140015
0.00993101
0.00990051
0.00978258
0.00975273
0.00963695
0.00960625
0.00949046
0.00946049
0.00934818
0.00931816
0.00920408
0.00917476
0.00905751
0.00902723
0.00891028
0.00888006
0.00876337
0.00872989
0.00860345
0.00857452
0.00846786
0.00843984
0.0083178
0.00828323
0.00817112
0.00813616
0.00801871
0.00798704
0.00787146
0.00783974
0.00772309
0.00769043
0.00757428
0.00754342
0.00742866
0.0073973
0.00727973
0.00724814
0.00713445
0.00710278
0.00698422
0.00695264
0.00683401
0.00680368
0.00668664
0.00665626
0.00653978
0.00651024
0.00639416
0.00636281
0.0062469
0.00621595
0.00610095
0.00607026
0.00595548
0.00592442
0.00580588
0.00577464
0.00565682
0.00562649
0.00550445
0.00547381
0.00535317
0.00532196
0.00520217
0.0051723
0.00505561
0.00502568
0.00490963
0.00487864
0.00476748
0.00473766
0.00461983
0.00458685
0.00446701
0.00443656
0.00431723
0.00428543
0.00417168
0.00413987
0.00402848
0.00399519
0.00387885
0.00384865
0.00372938
0.00370018
0.00358606
0.00355644
0.00344235
0.00341144
0.00329714
0.00326721
0.00315416
0.00312355
0.00300292
0.00297102
0.00285159
0.00282116
0.00270217
0.00267145
0.00255494
0.0025245
0.00240511
0.0023752
0.00225595
0.0022251
0.00210883
0.00207792
0.0019616
0.00193216
0.00181598
0.00178553
0.00167088
0.00164024
0.00152441
0.00149331
0.00137576
0.00134438
0.00122845
0.00119724
0.00107828
0.00104713
0.000928605
0.000896894
0.000775723
0.000745225
0.000624364
0.000595022
0.00046728
0.000436573
0.000306275
0.000272712
0.000180456
0.000138274
0.00992981
0.00989936
0.00978132
0.00975112
0.00963652
0.00960671
0.00949203
0.00946157
0.00934946
0.00931924
0.00920558
0.00917547
0.00905818
0.00902804
0.00891274
0.00887954
0.00876561
0.00872799
0.00860278
0.0085663
0.00846048
0.00842638
0.00831778
0.00829207
0.0081716
0.00814098
0.00802109
0.00798929
0.00787194
0.0078427
0.00772448
0.00769313
0.00757404
0.00754277
0.00742801
0.00739744
0.00727846
0.00724705
0.00713248
0.00710149
0.00698389
0.00695291
0.00683493
0.00680425
0.00668703
0.00665706
0.00653939
0.00650918
0.00639414
0.00636337
0.0062469
0.00621454
0.0060994
0.00606953
0.00595614
0.00592616
0.00580915
0.00577711
0.0056585
0.00562491
0.00550206
0.00547043
0.00534912
0.00531841
0.00519989
0.00517029
0.00505529
0.005026
0.00490627
0.0048756
0.00476347
0.00473387
0.00461573
0.00458406
0.00446457
0.00443346
0.00431542
0.00428469
0.0041703
0.00414019
0.00402755
0.0039944
0.00388091
0.00384862
0.00373086
0.00370014
0.00358766
0.00355828
0.00344519
0.00341514
0.00330002
0.00326877
0.00315454
0.00312468
0.00300526
0.00297391
0.00285415
0.00282271
0.00270125
0.00267079
0.00255541
0.00252522
0.00240687
0.00237712
0.00225766
0.00222657
0.00210845
0.00207703
0.00195997
0.00192978
0.00181348
0.00178381
0.00166962
0.00163932
0.00152469
0.001494
0.00137729
0.00134589
0.00122874
0.00119685
0.0010775
0.00104755
0.000930215
0.00089871
0.000777143
0.000746813
0.00062646
0.00059629
0.000467435
0.000437832
0.000306518
0.000272721
0.000178903
0.000136955
0.00978304
0.00975237
0.00963641
0.00960674
0.00949263
0.00946168
0.00935012
0.00931828
0.00920462
0.00917225
0.00905953
0.00902511
0.00891746
0.00887328
0.00877398
0.00872427
0.00862339
0.00860006
0.00846357
0.00844241
0.00831643
0.00828825
0.00816488
0.00813838
0.00801567
0.0079874
0.00786874
0.00784075
0.00772122
0.00769175
0.00757094
0.00754035
0.00742516
0.00739566
0.00727741
0.00724749
0.00713191
0.00710119
0.00698182
0.00695065
0.00683449
0.0068035
0.00668803
0.00665697
0.00653881
0.0065084
0.00639198
0.00636149
0.00624608
0.00621444
0.00609964
0.00606864
0.00595453
0.0059252
0.00580791
0.00577597
0.005657
0.00562352
0.00550349
0.00547201
0.00534955
0.00531881
0.00519897
0.00516886
0.00505622
0.00502632
0.00490741
0.0048776
0.00476632
0.00473476
0.00461626
0.00458483
0.00446375
0.00443096
0.00431288
0.00428223
0.0041686
0.00413947
0.00402559
0.00399474
0.00387939
0.00384723
0.00372987
0.00369792
0.00358401
0.00355348
0.00344273
0.00341359
0.00330094
0.00326965
0.00315377
0.00312254
0.00300354
0.00297298
0.00285608
0.00282459
0.00270322
0.00267329
0.00255389
0.00252237
0.00240325
0.00237279
0.00225591
0.00222435
0.00210693
0.00207592
0.00196115
0.00193045
0.00181607
0.00178522
0.00167143
0.00164099
0.00152395
0.00149227
0.00137644
0.001345
0.00122802
0.00119677
0.00107683
0.00104637
0.000929374
0.000898796
0.000780409
0.000750352
0.000631705
0.000599831
0.000469897
0.000439555
0.000307911
0.000274551
0.000178937
0.000137357
0.00963775
0.00960633
0.00949138
0.00946087
0.0093477
0.00931747
0.00920187
0.00917228
0.00905359
0.00902642
0.00890914
0.0088787
0.00876462
0.00872393
0.00864115
0.00859286
0.0084734
0.00845299
0.00831813
0.00828716
0.00816463
0.0081351
0.00801551
0.00798672
0.00787273
0.00784357
0.00772331
0.00769271
0.00757211
0.00754046
0.00742603
0.00739503
0.00727835
0.00724858
0.00713293
0.00710136
0.00698143
0.00695004
0.00683381
0.00680302
0.00668817
0.00665572
0.0065383
0.00650613
0.00638884
0.00635886
0.00624447
0.00621289
0.00610135
0.00607098
0.00595251
0.005921
0.00580264
0.00577269
0.00565363
0.00562204
0.00550259
0.00547149
0.00535265
0.00532284
0.00520233
0.0051725
0.00505645
0.00502437
0.00490767
0.00487687
0.00476358
0.00473172
0.00461384
0.00458199
0.00446111
0.00442848
0.00431354
0.00428318
0.00416995
0.00413931
0.0040236
0.00399271
0.00387793
0.00384784
0.00373269
0.00370086
0.00358782
0.00355585
0.00344357
0.00341205
0.00329798
0.00326829
0.00315282
0.00312221
0.00300312
0.00297223
0.00285487
0.0028243
0.00270518
0.00267477
0.00255685
0.00252597
0.00240564
0.0023755
0.00225698
0.00222593
0.00210755
0.00207475
0.00195966
0.00192761
0.00181528
0.00178264
0.00167261
0.00164223
0.00152233
0.00149217
0.00137425
0.00134248
0.00122516
0.00119514
0.00107604
0.00104616
0.000929405
0.000900198
0.0007825
0.000751084
0.000628492
0.000596631
0.000467162
0.000436328
0.000307494
0.000274024
0.000179405
0.000138503
0.00963834
0.009607
0.00949036
0.00945873
0.00934638
0.00931583
0.00920267
0.00917155
0.00905615
0.00902575
0.00890615
0.00887891
0.00875385
0.00873075
0.0086271
0.00858431
0.00847826
0.00844247
0.00832091
0.0082892
0.00816887
0.00813547
0.00801784
0.00798771
0.00787423
0.00784303
0.00772477
0.00769288
0.00757277
0.00754134
0.00742742
0.00739467
0.00727833
0.00724716
0.00713081
0.00709953
0.00698167
0.00694936
0.00683165
0.00679991
0.0066852
0.00665246
0.00653729
0.00650311
0.006387
0.00635782
0.00624216
0.00621267
0.00610454
0.00607347
0.00595475
0.00592255
0.00580234
0.00577131
0.00565199
0.00562166
0.00550021
0.00546902
0.00534977
0.00531951
0.00520114
0.00517252
0.00505474
0.00502574
0.00491077
0.00487694
0.0047602
0.00472845
0.00461188
0.0045806
0.00446153
0.00443105
0.00431513
0.00428353
0.00417007
0.00413957
0.00402437
0.00399362
0.00387692
0.00384514
0.00372935
0.00369773
0.00358714
0.00355756
0.00344449
0.00341263
0.00329796
0.00326716
0.00315173
0.00312205
0.00300476
0.00297297
0.00285426
0.00282428
0.00270435
0.00267327
0.00255475
0.00252334
0.00240418
0.00237333
0.00225535
0.00222511
0.00210615
0.00207506
0.00195902
0.00192808
0.00181468
0.00178383
0.00167386
0.00164016
0.00152287
0.00149296
0.00137423
0.00134214
0.00122459
0.00119405
0.00107597
0.00104517
0.000929246
0.000899466
0.000785252
0.000752685
0.000629293
0.00059734
0.000468619
0.000436607
0.000308791
0.000274798
0.000180023
0.000138653
0.00963615
0.00960522
0.00948952
0.00945931
0.00934579
0.00931525
0.0092011
0.00917061
0.00905894
0.00902673
0.00891188
0.00888086
0.00876221
0.00873579
0.00861487
0.00858425
0.00847304
0.00843817
0.00831983
0.00828811
0.00816969
0.00813565
0.00801898
0.00798735
0.00787192
0.00783903
0.00772161
0.00769037
0.00757118
0.00754028
0.0074267
0.00739344
0.00727939
0.00724762
0.00712901
0.00709885
0.00697984
0.00694867
0.00683002
0.00679863
0.0066816
0.00665109
0.00653495
0.00650202
0.00638928
0.00635808
0.00624157
0.00621208
0.00610175
0.00607
0.0059512
0.00591995
0.00580166
0.0057697
0.00565022
0.00561946
0.00549959
0.00546805
0.00535075
0.00532038
0.0052039
0.00517337
0.00505378
0.00502508
0.00491033
0.00487734
0.00475893
0.00472662
0.00460919
0.00457747
0.00446038
0.004431
0.0043159
0.00428483
0.00417043
0.00414028
0.00402389
0.003994
0.00387749
0.00384701
0.0037297
0.00369854
0.00358846
0.00355584
0.00344268
0.00341137
0.00329707
0.00326567
0.00315153
0.00312142
0.0030061
0.00297405
0.00285575
0.00282429
0.00270461
0.00267367
0.00255583
0.00252546
0.00240428
0.00237306
0.00225297
0.00221992
0.00210329
0.00207303
0.00195719
0.00192721
0.00181364
0.00178523
0.00167206
0.00163766
0.00152021
0.00148863
0.00137266
0.00134151
0.00122425
0.00119271
0.00107617
0.00104553
0.000929918
0.000899323
0.000782846
0.000750163
0.000628568
0.000595991
0.000467938
0.000436085
0.000308465
0.000274368
0.000181906
0.000138974
0.00963561
0.00960456
0.00948876
0.00945842
0.00934534
0.00931522
0.00920072
0.00917011
0.00905647
0.00902579
0.00891292
0.00888035
0.00876893
0.00873804
0.00861557
0.00858775
0.00847119
0.00843684
0.00831907
0.00828536
0.00817038
0.008135
0.00802295
0.0079941
0.00787114
0.00783902
0.00772086
0.00768942
0.00756741
0.00753744
0.00742314
0.00739203
0.00727893
0.00724764
0.00712855
0.00709702
0.00697759
0.00694772
0.00683168
0.00680034
0.00668167
0.00665082
0.00653204
0.0065025
0.0063886
0.00635628
0.00624268
0.00621319
0.00610006
0.0060689
0.00595118
0.00592118
0.0058005
0.00576849
0.00564815
0.00561789
0.00549782
0.00546731
0.00534915
0.00531765
0.00520344
0.00517269
0.00505393
0.00502333
0.00490649
0.00487546
0.00475842
0.00472663
0.00460945
0.00457744
0.00446237
0.004432
0.00431635
0.00428616
0.0041708
0.00413987
0.00402385
0.00399449
0.00387742
0.00384615
0.00372971
0.0036986
0.00358955
0.00355429
0.0034413
0.00341062
0.00329375
0.00326298
0.00314946
0.00311813
0.00300322
0.00297299
0.00285618
0.00282479
0.00270523
0.00267423
0.0025555
0.00252395
0.00240222
0.00237199
0.00225011
0.00221855
0.00210355
0.00207288
0.00195711
0.00192704
0.00181371
0.00178457
0.00166822
0.00163642
0.00151951
0.00148803
0.00137284
0.00134136
0.0012238
0.00119251
0.00107524
0.00104436
0.000930801
0.000899479
0.000780606
0.000749097
0.00062699
0.000596071
0.000467934
0.000436246
0.000306317
0.000272864
0.000181924
0.00013948
0.0096354
0.00960372
0.00948812
0.00945728
0.00934485
0.00931502
0.00920158
0.00917063
0.00905737
0.00902723
0.00891292
0.00888182
0.00876778
0.00873601
0.00861667
0.00858782
0.00847025
0.00843792
0.00831876
0.00828717
0.00816941
0.00813546
0.00802645
0.00799075
0.00786776
0.00783821
0.00771696
0.00768571
0.0075639
0.00753462
0.00742054
0.00739076
0.00727722
0.007247
0.00713019
0.00709858
0.00697836
0.0069468
0.00682973
0.00679793
0.00668259
0.00665093
0.0065339
0.00650527
0.00638866
0.00635872
0.006244
0.00621348
0.00609887
0.00606794
0.00595012
0.00591887
0.0057978
0.00576703
0.00564874
0.00561915
0.00549865
0.00546956
0.00535092
0.00531955
0.00520303
0.00517381
0.00505492
0.00502281
0.00490474
0.00487345
0.00475751
0.00472693
0.00460975
0.00457835
0.00446446
0.00443292
0.00431774
0.00428749
0.0041721
0.00414042
0.00402582
0.00399281
0.00387761
0.0038442
0.00373069
0.00370327
0.00358809
0.00355675
0.00344194
0.00341022
0.0032925
0.00326315
0.00314714
0.0031167
0.00300085
0.00297078
0.00285288
0.0028223
0.00270366
0.00267271
0.00255555
0.00252404
0.00240244
0.002373
0.00225099
0.00222053
0.00210449
0.00207364
0.00195763
0.00192697
0.00181348
0.00178412
0.00166699
0.00163657
0.00151832
0.00148644
0.00137002
0.00133815
0.00122209
0.00119098
0.00107503
0.00104443
0.000930759
0.000899143
0.000779838
0.000747526
0.0006269
0.0005953
0.000469337
0.000437138
0.000305626
0.000272477
0.000180875
0.000140851
0.00949152
0.00945812
0.00934487
0.00931411
0.00919992
0.0091688
0.00905666
0.00902584
0.00891338
0.00888282
0.00876833
0.00873693
0.00861841
0.00858806
0.00847033
0.00843827
0.00831821
0.0082868
0.0081666
0.00813869
0.0080242
0.00798905
0.0078673
0.00783531
0.00771578
0.00768611
0.00756616
0.00753652
0.00742251
0.0073925
0.00727829
0.00724644
0.00712904
0.00709784
0.00697936
0.00694816
0.00682859
0.00679763
0.00668191
0.00665085
0.00653442
0.00650379
0.00638859
0.00635863
0.00624541
0.0062152
0.00609791
0.00606736
0.00595048
0.00591964
0.00579936
0.00576909
0.00564978
0.00561866
0.00549804
0.00546853
0.00535195
0.00532156
0.00520419
0.00517446
0.00505595
0.00502433
0.00490419
0.00487258
0.00475699
0.00472649
0.00460858
0.00457837
0.00446425
0.00443354
0.00431773
0.00428729
0.00417038
0.00414102
0.00402568
0.00399441
0.00388026
0.00384606
0.00373553
0.00370293
0.00358444
0.00355669
0.00343815
0.00340761
0.00329095
0.00326051
0.00314683
0.00311676
0.00300135
0.00296917
0.00285119
0.0028208
0.00270171
0.00267161
0.00255426
0.00252257
0.00240117
0.00237172
0.00225075
0.00222072
0.00210509
0.00207547
0.00196012
0.00192878
0.00181401
0.00178238
0.00166431
0.00163414
0.00151616
0.00148511
0.0013675
0.00133698
0.00122003
0.00118944
0.00107313
0.00104231
0.000928598
0.000897545
0.000779252
0.000747229
0.000627071
0.000594404
0.000470368
0.000437201
0.000307369
0.000272144
0.000181843
0.000138051
0.00949005
0.00945696
0.00934412
0.00931337
0.00920054
0.0091695
0.00905626
0.00902579
0.00891317
0.00888258
0.00876762
0.00873722
0.00862028
0.00859003
0.00847092
0.00843969
0.00831755
0.00828572
0.00816753
0.00813804
0.00802074
0.00798903
0.00786855
0.00783647
0.00771814
0.00768784
0.00756883
0.00753834
0.00742226
0.00739247
0.00727876
0.00724779
0.00712866
0.00709801
0.00697963
0.00694874
0.00682959
0.00679874
0.0066831
0.00665228
0.00653466
0.00650489
0.00638951
0.00635968
0.0062472
0.00621624
0.00609775
0.00606716
0.00594998
0.0059196
0.00580009
0.00576913
0.00564959
0.00561878
0.00549827
0.00546836
0.005351
0.00532095
0.00520251
0.00517107
0.00505372
0.00502248
0.00490424
0.00487343
0.00475836
0.00472769
0.00461035
0.00457958
0.00446537
0.00443441
0.00431823
0.00428697
0.00416981
0.00414018
0.00402189
0.00399344
0.00387486
0.00384496
0.00373508
0.00369954
0.00358543
0.00355547
0.00343727
0.00340793
0.0032916
0.00325978
0.00314428
0.00311435
0.00299996
0.0029689
0.00285164
0.00282063
0.00270219
0.00267254
0.00255456
0.00252351
0.00240312
0.0023734
0.00225398
0.00222412
0.00210712
0.00207611
0.00195972
0.00192934
0.00181303
0.00178025
0.0016627
0.00163233
0.00151459
0.0014847
0.00136758
0.0013374
0.0012202
0.00118958
0.00107283
0.00104186
0.000927091
0.000895363
0.000775896
0.000743499
0.00062535
0.000591567
0.000471716
0.000436392
0.000309118
0.000278479
0.000183295
0.000139631
0.00948851
0.00945548
0.00934091
0.00931043
0.00919964
0.00916958
0.00905621
0.009025
0.00891248
0.0088818
0.00876824
0.00873824
0.0086226
0.0085921
0.00847029
0.00844094
0.00831885
0.0082886
0.00817116
0.00813935
0.00802013
0.00798934
0.00786873
0.00783812
0.00771976
0.00768916
0.00757131
0.00754117
0.00742335
0.00739312
0.00727835
0.0072471
0.00712848
0.00709786
0.00697948
0.00694851
0.0068298
0.00679904
0.00668378
0.00665285
0.00653426
0.00650497
0.0063898
0.00636005
0.00624589
0.0062153
0.00609795
0.00606745
0.00595
0.00591923
0.00579901
0.00576767
0.00565032
0.00561966
0.00550224
0.00547134
0.00535143
0.00532164
0.00520109
0.00517074
0.00505264
0.00502187
0.00490564
0.00487415
0.00475656
0.00472644
0.00460986
0.00457917
0.00446481
0.00443395
0.00431822
0.00428736
0.00417094
0.00413975
0.00402273
0.00399295
0.00387495
0.00384574
0.00373099
0.00369738
0.00358437
0.00355309
0.00343726
0.00340896
0.0032933
0.00326195
0.00314532
0.00311401
0.0029974
0.00296706
0.00285124
0.00281988
0.00270277
0.00267225
0.00255352
0.00252303
0.00240438
0.00237368
0.00225502
0.00222511
0.00210777
0.00207624
0.00195872
0.00192823
0.0018105
0.00177912
0.00166166
0.00163056
0.00151427
0.001484
0.00136607
0.00133576
0.00121887
0.00118882
0.0010713
0.00104043
0.000925505
0.00089468
0.000776221
0.000745882
0.000623453
0.000592433
0.000470884
0.000435984
0.0003118
0.000274743
0.000182441
0.000140778
0.00948842
0.00945623
0.00934151
0.00930976
0.00919746
0.009168
0.00905694
0.00902626
0.00891379
0.00888317
0.0087695
0.00874017
0.00862639
0.0085942
0.00847224
0.00844122
0.00832023
0.00829034
0.00817108
0.00813871
0.00801949
0.00798777
0.00786542
0.00783478
0.00771798
0.00768814
0.00757226
0.00754295
0.00742383
0.00739299
0.00727735
0.00724562
0.00712868
0.00709817
0.00698053
0.00694943
0.00683091
0.00680041
0.0066841
0.00665453
0.00653503
0.00650584
0.00639164
0.00636115
0.00624561
0.00621529
0.00609772
0.00606678
0.00594877
0.00591675
0.00579592
0.00576626
0.00564974
0.0056202
0.00550527
0.00547356
0.00535358
0.00532111
0.00520105
0.00517091
0.00505186
0.00502127
0.00490661
0.00487566
0.00475695
0.00472694
0.00460986
0.00457886
0.0044631
0.00443293
0.00431817
0.00428779
0.00417277
0.00414147
0.00402378
0.00399167
0.00387619
0.00384432
0.00372895
0.00369789
0.00358342
0.00355198
0.00343704
0.00340647
0.0032908
0.00326085
0.00314493
0.00311297
0.00299664
0.00296614
0.00285107
0.00282052
0.00270418
0.0026729
0.00255488
0.0025253
0.00240735
0.00237646
0.00225637
0.0022259
0.00210618
0.00207555
0.0019582
0.00192761
0.00181019
0.00177963
0.00166155
0.00162999
0.00151318
0.00148294
0.00136546
0.00133636
0.00121936
0.00118928
0.00107047
0.00103903
0.000923866
0.000892976
0.000776736
0.000746054
0.000624215
0.000592607
0.000466365
0.00043526
0.000308968
0.000273027
0.000182145
0.000139252
0.00948553
0.00945553
0.00934408
0.00931208
0.00919764
0.00916681
0.00905353
0.00902413
0.0089137
0.00888312
0.00876983
0.00874108
0.00862538
0.00859394
0.00847303
0.00844069
0.00832024
0.008289
0.00817105
0.00813969
0.00802095
0.00798965
0.00786846
0.00783833
0.00772017
0.0076895
0.00757324
0.00754409
0.0074239
0.00739383
0.00727481
0.00724383
0.00712681
0.0070963
0.00697962
0.00694972
0.00683175
0.00680103
0.00668426
0.00665446
0.00653605
0.00650621
0.00639193
0.00636194
0.00624543
0.0062152
0.00609787
0.00606701
0.0059484
0.00591646
0.0057973
0.00576627
0.00564836
0.00561788
0.00550282
0.00547231
0.00535292
0.00532044
0.00520037
0.00516962
0.0050525
0.00502166
0.00490717
0.00487655
0.00475806
0.00472751
0.00461116
0.00457998
0.00446481
0.00443463
0.00431936
0.00428872
0.00417201
0.00414162
0.00402377
0.00399208
0.0038754
0.00384447
0.00372945
0.00369817
0.00358264
0.00355167
0.00343669
0.00340383
0.00329054
0.00326012
0.0031421
0.00311132
0.00299495
0.0029643
0.00285027
0.00281978
0.00270278
0.00267239
0.00255447
0.00252484
0.00240894
0.00237828
0.00225981
0.00222847
0.00210797
0.002077
0.00195775
0.00192664
0.00180865
0.00177825
0.00166105
0.00162966
0.00151408
0.00148361
0.00136718
0.00133721
0.00121987
0.00118961
0.00107062
0.00104001
0.000924467
0.00089343
0.000775381
0.000745916
0.000627459
0.000595458
0.000469203
0.000435947
0.00030762
0.000274234
0.000181397
0.000138237
0.0094849
0.00945497
0.00934276
0.00931322
0.00920028
0.00916932
0.00905586
0.00902656
0.00891671
0.00888561
0.00877172
0.00874114
0.00862345
0.0085932
0.00847397
0.00844232
0.00832069