/*--------------------------------*- C++ -*----------------------------------*\
| =========                 |                                                 |
| \\      /  F ield         | OpenFOAM: The Open Source CFD Toolbox           |
|  \\    /   O peration     | Version:  2206                                  |
|   \\  /    A nd           | Website:  www.openfoam.com                      |
|    \\/     M anipulation  |                                                 |
\*---------------------------------------------------------------------------*/
FoamFile
{
    version     2.0;
    format      ascii;
    arch        "LSB;label=32;scalar=64";
    class       volVectorField;
    location    "0.9";
    object      wallShearStress;
}
// * * * * * * * * * * * * * * * * * * * * * * * * * * * * * * * * * * * * * //

dimensions      [0 2 -2 0 0 0 0];

internalField   uniform (0 0 0);

boundaryField
{
    wall
    {
        type            calculated;
        value           nonuniform List<vector> 
7960
(
(2.35934e-07 7.05996e-08 -0.000178786)
(2.61686e-07 8.17837e-08 -0.000179662)
(1.13908e-07 2.57961e-08 -0.000178838)
(-9.37137e-09 -1.90885e-08 -0.000179372)
(-3.64867e-07 -1.5504e-07 -0.000179489)
(-3.70117e-07 -1.53148e-07 -0.000178743)
(-4.46545e-07 -1.81743e-07 -0.000179261)
(-6.19609e-07 -2.58864e-07 -0.000179568)
(-4.87026e-07 -1.97608e-07 -0.000179211)
(-2.77539e-07 -1.23548e-07 -0.000178976)
(7.11551e-07 2.56918e-07 -0.000179603)
(3.46243e-07 1.0943e-07 -0.000178017)
(1.66941e-07 4.65962e-08 -0.000178772)
(4.07888e-07 1.43191e-07 -0.000178548)
(3.05606e-07 1.00845e-07 -0.000179135)
(2.28907e-07 7.02584e-08 -0.00017905)
(-1.12018e-07 -5.72295e-08 -0.000179515)
(2.32507e-09 -1.0579e-08 -0.000179705)
(2.915e-07 9.58697e-08 -0.000180337)
(1.31919e-07 5.21402e-08 -0.000181208)
(3.66067e-08 3.04673e-08 -0.000181609)
(-1.28032e-07 -3.06222e-08 -0.000181544)
(-3.51511e-08 -2.22912e-09 -0.00018123)
(1.08746e-07 4.94116e-08 -0.00018117)
(-2.05158e-07 -7.17804e-08 -0.000181201)
(-2.93208e-07 -8.28365e-08 -0.000182162)
(-9.19379e-07 -3.01304e-07 -0.000181889)
(-4.6831e-07 -2.29422e-07 -0.000180257)
(3.6405e-07 1.53537e-07 -0.00018069)
(-5.93356e-07 -2.11442e-07 -0.000181356)
(-7.10027e-07 -2.62751e-07 -0.000181319)
(-4.39761e-07 -1.47521e-07 -0.000181278)
(-7.24651e-08 -9.87881e-10 -0.000181927)
(-1.11976e-07 -2.4727e-08 -0.000182419)
(-1.60384e-07 -5.30497e-08 -0.000182305)
(-3.77247e-07 -1.35016e-07 -0.00018231)
(-2.33383e-07 -7.64483e-08 -0.000181882)
(2.39913e-07 1.07323e-07 -0.000181678)
(1.45649e-07 7.09165e-08 -0.000181892)
(1.84351e-07 7.72154e-08 -0.000181284)
(6.01148e-07 2.40004e-07 -0.000181233)
(3.29409e-07 1.37535e-07 -0.000181529)
(4.79767e-07 2.0093e-07 -0.000181399)
(2.92651e-07 1.25605e-07 -0.000180671)
(4.84264e-07 1.97917e-07 -0.000181154)
(2.00305e-07 8.73525e-08 -0.000181337)
(1.24258e-07 5.98786e-08 -0.000181477)
(1.25004e-07 6.73261e-08 -0.000181975)
(7.97535e-08 4.47201e-08 -0.000182106)
(-2.37505e-09 1.63906e-08 -0.000182664)
(-1.38021e-07 -4.84926e-08 -0.000181957)
(5.14856e-07 2.10392e-07 -0.000181519)
(2.28763e-07 1.00738e-07 -0.000182055)
(3.07309e-07 1.42805e-07 -0.000182356)
(4.68712e-07 2.02773e-07 -0.000182683)
(3.57008e-07 1.5267e-07 -0.000182343)
(5.34873e-09 1.60808e-08 -0.000181892)
(1.54303e-07 6.73213e-08 -0.000181398)
(3.19867e-08 2.33183e-08 -0.000181075)
(-3.24998e-08 -3.38028e-09 -0.00018099)
(-1.29152e-07 -4.17556e-08 -0.000180968)
(1.19576e-07 6.54471e-08 -0.000181761)
(-3.84701e-07 -1.38199e-07 -0.000181371)
(-2.43483e-07 -8.63362e-08 -0.000180973)
(8.50072e-08 4.36786e-08 -0.000180947)
(-2.01593e-07 -7.35198e-08 -0.000181176)
(-1.32985e-07 -3.9179e-08 -0.000181132)
(1.01414e-07 7.83793e-08 -0.000181634)
(-9.31865e-08 -2.51788e-08 -0.000181167)
(3.93726e-07 -7.14177e-08 -0.000183426)
(-1.98239e-07 -6.47001e-08 -0.000181007)
(-4.42799e-07 -1.51739e-07 -0.000181283)
(-1.5171e-07 -4.19661e-08 -0.000181408)
(-3.86905e-07 -1.3144e-07 -0.000181468)
(-2.95728e-07 -9.53689e-08 -0.000181187)
(-2.00592e-07 -6.20913e-08 -0.000180798)
(2.93453e-07 1.01248e-07 -0.000180817)
(-1.29296e-07 -4.00081e-08 -0.000180387)
(-4.05628e-07 -1.50505e-07 -0.000180432)
(-8.4701e-08 -2.1753e-08 -0.000180749)
(-1.99321e-07 -6.36429e-08 -0.000180996)
(-1.2635e-07 -3.93651e-08 -0.000180769)
(-1.60048e-07 -5.43169e-08 -0.000181463)
(-3.96725e-07 -1.31571e-07 -0.00018251)
(-3.16025e-07 -1.12847e-07 -0.000182225)
(-8.62827e-08 -3.62671e-08 -0.000182446)
(9.56372e-08 2.74835e-07 -0.000181746)
(-3.37011e-08 -1.80421e-08 -0.000179714)
(-2.11212e-07 -6.46646e-08 -0.000179572)
(-1.16959e-07 -4.06223e-08 -0.000179825)
(-8.94684e-08 -4.0534e-08 -0.000179731)
(-9.07871e-08 -3.44373e-08 -0.000179498)
(3.87145e-07 1.01732e-07 -0.000179961)
(-2.72274e-07 -7.59605e-08 -0.000179806)
(-2.0603e-06 -6.07248e-07 -0.000180727)
(-1.69603e-07 -4.9446e-08 -0.000178664)
(-6.22593e-07 -1.747e-07 -0.000179421)
(-3.07201e-07 -9.33673e-08 -0.00018046)
(1.04798e-07 1.42208e-08 -0.000179668)
(3.31592e-07 8.7113e-08 -0.000180229)
(-5.79447e-08 -1.82378e-08 -0.000180235)
(-3.55701e-07 -9.94483e-08 -0.000180702)
(-2.80739e-07 -7.76213e-08 -0.000180921)
(-9.20658e-08 -2.7714e-08 -0.000180342)
(-4.05134e-08 -2.24903e-08 -0.000179874)
(-3.24302e-07 -9.46404e-08 -0.00017964)
(4.72015e-08 -1.5552e-09 -0.000179878)
(-3.71828e-08 -3.18175e-08 -0.000179299)
(-2.0658e-07 -7.18444e-08 -0.00017961)
(9.06489e-07 2.3416e-07 -0.000179775)
(6.02767e-07 1.4244e-07 -0.000178559)
(2.75156e-07 6.62428e-08 -0.000178915)
(5.54826e-08 3.26239e-09 -0.000178969)
(4.54626e-07 1.09224e-07 -0.000179536)
(2.58194e-07 5.51909e-08 -0.000179541)
(2.3055e-07 4.51133e-08 -0.000180255)
(4.09161e-07 1.02788e-07 -0.000180354)
(3.23273e-07 7.63678e-08 -0.000180319)
(3.06582e-07 6.73747e-08 -0.000179558)
(-1.26361e-07 -3.97777e-08 -0.000179868)
(4.47169e-07 1.12977e-07 -0.000180196)
(4.75266e-07 1.20884e-07 -0.00018067)
(1.90404e-07 3.84067e-08 -0.000180418)
(-1.20231e-08 -1.26871e-08 -0.000180119)
(1.17072e-07 2.41143e-08 -0.000179985)
(-1.49971e-07 -5.83633e-08 -0.000179502)
(-1.74937e-07 -6.23122e-08 -0.000179658)
(-3.59472e-07 -1.13875e-07 -0.000179491)
(2.30059e-07 5.66481e-08 -0.000180442)
(-3.27835e-07 -9.958e-08 -0.000179403)
(-1.20004e-07 -3.98337e-08 -0.000179826)
(1.58064e-07 3.53934e-08 -0.000179421)
(-2.03344e-07 -6.79956e-08 -0.000179915)
(2.0729e-08 -7.72205e-09 -0.00017948)
(-1.64771e-07 -5.86684e-08 -0.000179588)
(-3.80255e-07 -1.18929e-07 -0.000179671)
(-4.71647e-07 -1.38106e-07 -0.000179118)
(5.5807e-08 8.52696e-09 -0.000180055)
(-3.52236e-07 -1.05654e-07 -0.000179698)
(-4.97314e-07 -1.48525e-07 -0.000179736)
(2.31673e-07 -4.95067e-08 -0.000183893)
(-5.58675e-07 -1.63582e-07 -0.000179679)
(-4.1749e-07 -1.28946e-07 -0.000180114)
(-2.10615e-07 -7.34747e-08 -0.000178638)
(-5.22527e-07 -1.53747e-07 -0.000179371)
(-2.79821e-07 -8.68697e-08 -0.000179666)
(-2.83879e-07 -8.66756e-08 -0.000179963)
(-6.48571e-08 -3.41238e-08 -0.000179917)
(-5.76101e-07 -1.66412e-07 -0.000179833)
(-3.76783e-07 -1.10235e-07 -0.000180492)
(-1.4429e-07 -5.01638e-08 -0.000181005)
(-2.12225e-07 -5.20883e-08 -0.000181532)
(1.26089e-07 4.89067e-08 -0.000181369)
(2.72872e-08 2.95032e-08 -0.000181765)
(-2.419e-07 -4.95816e-08 -0.000181472)
(5.96266e-08 2.50676e-08 -0.000181062)
(2.01033e-07 6.23303e-08 -0.000181384)
(4.88993e-09 8.71589e-09 -0.000181938)
(-5.53231e-07 -1.10595e-07 -0.000182998)
(-1.76844e-06 -4.61009e-07 -0.000180774)
(-1.20708e-07 -1.28209e-08 -0.000181094)
(-1.9632e-07 -2.74229e-08 -0.000181549)
(-4.70088e-07 -1.10348e-07 -0.000182065)
(-2.80721e-07 -5.58465e-08 -0.000181998)
(5.07576e-07 1.44691e-07 -0.00018184)
(4.30877e-07 1.40561e-07 -0.000182382)
(5.38281e-07 1.64102e-07 -0.000182073)
(1.03159e-07 4.46606e-08 -0.000182408)
(-1.05407e-07 -1.17542e-08 -0.000182325)
(-5.96627e-08 1.38786e-09 -0.000181532)
(4.64318e-08 3.5243e-08 -0.000181716)
(-2.61589e-07 -5.62925e-08 -0.00018155)
(3.95574e-08 1.8211e-08 -0.000180971)
(3.21046e-07 9.64737e-08 -0.000181296)
(5.75963e-07 1.57893e-07 -0.000181184)
(-2.96498e-08 5.36223e-09 -0.000180544)
(3.98863e-08 2.35545e-08 -0.000180681)
(1.63775e-07 5.91637e-08 -0.000181041)
(8.80184e-08 3.64271e-08 -0.000181461)
(7.36266e-08 3.32637e-08 -0.000181648)
(7.61567e-08 2.76477e-08 -0.000181593)
(3.17437e-07 1.0349e-07 -0.000182084)
(-1.79235e-07 -3.44891e-08 -0.000181824)
(3.18362e-07 9.7192e-08 -0.000181105)
(3.42764e-07 1.07382e-07 -0.000182005)
(1.55632e-07 5.68757e-08 -0.000182372)
(1.49917e-07 5.67617e-08 -0.000182458)
(2.37093e-07 7.76748e-08 -0.000181973)
(4.74781e-08 3.03522e-08 -0.000182059)
(-3.03986e-08 5.53055e-09 -0.000181774)
(-5.45231e-08 5.94844e-11 -0.000181508)
(-1.79447e-07 -3.3276e-08 -0.000181702)
(-4.31599e-07 -9.7395e-08 -0.000181547)
(-1.70296e-08 7.68032e-09 -0.000181821)
(7.26846e-09 2.0113e-08 -0.00018173)
(1.77219e-07 6.21397e-08 -0.000181791)
(1.94802e-07 6.5443e-08 -0.000181254)
(5.11618e-08 2.54017e-08 -0.000181681)
(-2.4631e-07 -5.3619e-08 -0.000181651)
(-2.58635e-07 -5.74354e-08 -0.000181641)
(-2.62141e-07 -5.73035e-08 -0.000181319)
(-3.96623e-07 -8.50469e-08 -0.000181812)
(-3.15808e-07 -7.46226e-08 -0.000181588)
(-2.7547e-07 -5.81571e-08 -0.000181814)
(-1.78263e-07 -3.27724e-08 -0.00018201)
(-2.71995e-07 -5.08465e-08 -0.00018183)
(-3.9661e-07 -1.03374e-07 -0.000181392)
(-2.57755e-07 -6.1383e-08 -0.000181181)
(-2.82209e-07 -6.14225e-08 -0.000181773)
(2.2689e-08 1.98979e-08 -0.000181965)
(-5.38795e-08 3.5064e-09 -0.000182109)
(-2.16472e-07 -4.74503e-08 -0.000181761)
(6.62047e-08 3.14012e-08 -0.000182053)
(9.78893e-08 4.3395e-08 -0.000183153)
(-5.54937e-08 -3.33151e-09 -0.000183128)
(1.75311e-09 -1.91625e-10 -0.000182754)
(1.18704e-07 1.12834e-07 -0.000182195)
(1.92508e-07 -5.88922e-08 -0.000183763)
(1.68289e-07 2.99967e-07 -0.000182024)
(2.10288e-07 1.91234e-08 -0.000179509)
(7.05153e-08 1.85874e-10 -0.000179305)
(-1.55676e-07 -3.78675e-08 -0.000179615)
(1.00463e-07 -3.06632e-10 -0.000179733)
(-2.05666e-07 -4.93794e-08 -0.000179023)
(-3.60679e-08 -1.48306e-08 -0.00017982)
(-2.69172e-08 1.76338e-10 -0.000179952)
(-9.10443e-07 -1.7202e-07 -0.000180887)
(-5.03799e-08 -2.06095e-08 -0.000179673)
(1.85474e-07 2.12039e-08 -0.000179638)
(3.92479e-08 1.60266e-08 -0.000180373)
(5.0305e-07 9.33341e-08 -0.000180033)
(5.58825e-08 -1.46576e-08 -0.000179599)
(4.83949e-07 7.65835e-08 -0.000180193)
(2.71677e-07 2.33282e-08 -0.000179943)
(-2.24008e-07 -4.57804e-08 -0.000180079)
(-1.04072e-07 -2.2438e-08 -0.000180224)
(1.60334e-07 6.24596e-09 -0.000180024)
(-6.10468e-08 -1.98467e-08 -0.000179553)
(-2.43364e-07 -4.08924e-08 -0.000179946)
(6.0239e-08 -6.50179e-10 -0.000179727)
(-3.6409e-07 -7.55538e-08 -0.000179497)
(8.26678e-08 -1.01292e-08 -0.000180169)
(4.30948e-07 4.74077e-08 -0.000179199)
(1.32483e-07 2.83877e-09 -0.000179392)
(-1.16691e-08 -1.43494e-08 -0.000179437)
(-5.857e-08 -2.28343e-08 -0.000179907)
(9.74758e-08 7.9859e-09 -0.000179801)
(-4.56266e-08 -2.09153e-08 -0.000180091)
(2.29546e-07 2.01622e-08 -0.000180283)
(-7.13642e-08 -2.46935e-08 -0.000179965)
(8.03855e-07 1.09285e-07 -0.000180131)
(1.42497e-07 1.33803e-08 -0.00017942)
(2.72064e-07 3.58104e-08 -0.000180307)
(4.03331e-07 5.44702e-08 -0.000180929)
(5.00637e-07 6.99244e-08 -0.000180603)
(6.97591e-08 2.90643e-09 -0.000180027)
(2.07412e-07 1.78252e-08 -0.0001804)
(1.58129e-07 9.5567e-09 -0.000179873)
(-9.70869e-08 -2.84769e-08 -0.000180047)
(-9.67256e-08 -2.10067e-08 -0.000180221)
(3.02405e-08 1.23929e-08 -0.000181189)
(2.26806e-08 1.03636e-09 -0.000179668)
(2.81327e-09 -1.02267e-08 -0.00018021)
(3.21572e-07 4.79744e-08 -0.000179918)
(-1.44818e-07 -3.22832e-08 -0.000179872)
(-1.28131e-07 -2.67708e-08 -0.000179926)
(-1.01163e-07 -2.32206e-08 -0.000180062)
(-1.07642e-07 -3.17371e-08 -0.000180171)
(-4.78369e-07 -8.82411e-08 -0.000179451)
(-1.26349e-08 -1.62509e-08 -0.00018083)
(-2.04295e-08 -1.14583e-08 -0.000180187)
(9.11911e-08 2.28069e-09 -0.000180193)
(-6.88517e-08 -2.36759e-08 -0.000180009)
(-6.6003e-07 -1.20461e-07 -0.000180145)
(-2.00704e-07 -4.04848e-08 -0.000179408)
(-1.04261e-07 -2.11632e-08 -0.000180016)
(5.96619e-08 -2.71827e-09 -0.000180269)
(-7.01016e-08 -2.42633e-08 -0.000180312)
(3.99291e-09 -9.15687e-09 -0.000180326)
(-6.44036e-08 -2.29319e-08 -0.000180032)
(-1.73084e-07 -3.94383e-08 -0.000180471)
(2.81453e-08 -1.4092e-08 -0.000181214)
(-2.35199e-07 -3.89807e-08 -0.000181481)
(-2.83492e-07 -3.80029e-08 -0.000181085)
(-8.40983e-08 1.78595e-09 -0.000181419)
(-2.60091e-07 -2.86111e-08 -0.000181602)
(-5.0444e-07 -7.16555e-08 -0.000181018)
(-1.60097e-07 -1.48199e-08 -0.00018098)
(4.20439e-08 1.58672e-08 -0.000181349)
(1.5136e-07 4.26455e-08 -0.000182639)
(-1.12344e-06 -1.70459e-07 -0.000181165)
(-3.70493e-07 -5.29749e-08 -0.000181057)
(1.90409e-07 3.12383e-08 -0.000180728)
(5.49663e-07 9.27611e-08 -0.000181401)
(1.02039e-06 1.91385e-07 -0.000182739)
(2.93609e-07 6.55369e-08 -0.00018162)
(5.10785e-07 9.85636e-08 -0.000182184)
(3.42141e-07 6.01503e-08 -0.000181305)
(3.81264e-08 2.40648e-08 -0.00018173)
(-4.51551e-08 8.04311e-09 -0.000182184)
(-3.6228e-07 -4.96988e-08 -0.000181577)
(-3.82933e-09 1.61954e-08 -0.000181487)
(4.73294e-08 2.61784e-08 -0.000182104)
(-3.41375e-07 -3.95309e-08 -0.00018171)
(-2.40127e-07 -1.97732e-08 -0.000181687)
(1.07994e-07 1.64341e-08 -0.000181342)
(7.52441e-08 1.71289e-08 -0.000181197)
(1.49263e-07 3.29899e-08 -0.000181524)
(2.5236e-07 5.25321e-08 -0.000181545)
(2.76667e-07 5.91095e-08 -0.000182046)
(1.49793e-08 2.0016e-08 -0.000182086)
(-2.44857e-07 -2.51611e-08 -0.000181916)
(-4.96179e-08 -1.90981e-09 -0.000181922)
(3.45328e-08 1.86664e-08 -0.000182122)
(1.63309e-07 2.86797e-08 -0.000181259)
(4.25147e-07 8.74614e-08 -0.000181705)
(3.81934e-07 7.50206e-08 -0.000182483)
(1.99098e-07 4.58856e-08 -0.000182823)
(-2.16741e-08 8.48604e-09 -0.000182003)
(1.28205e-07 3.77698e-08 -0.000182098)
(-1.16403e-07 -7.01433e-09 -0.000182)
(-6.54967e-08 7.81063e-09 -0.000181717)
(4.32092e-08 3.40496e-08 -0.000182081)
(1.85413e-09 2.68961e-08 -0.000182164)
(5.80233e-07 9.5245e-08 -0.000182307)
(2.73976e-07 6.71448e-08 -0.000182025)
(6.17332e-07 1.14601e-07 -0.000181998)
(5.32397e-07 9.67915e-08 -0.000181426)
(4.54272e-07 8.8723e-08 -0.000181463)
(4.06547e-07 8.38452e-08 -0.000181922)
(1.23536e-08 2.00072e-08 -0.000181975)
(-1.17184e-07 -1.05109e-08 -0.000181586)
(6.06547e-08 3.08068e-08 -0.000182132)
(-9.16832e-08 -4.21851e-09 -0.000182085)
(2.81227e-08 1.94588e-08 -0.000181924)
(1.1397e-07 2.96046e-08 -0.000181905)
(7.89262e-08 2.59809e-08 -0.000181648)
(-2.85816e-07 -3.3415e-08 -0.000181502)
(-1.14834e-07 -3.84021e-09 -0.000181494)
(3.20358e-08 2.15573e-08 -0.000182046)
(1.17097e-07 3.14229e-08 -0.000182069)
(7.3108e-08 2.44272e-08 -0.000182007)
(-3.54959e-08 7.47981e-09 -0.000182195)
(-6.33137e-08 2.60148e-09 -0.00018208)
(1.14874e-07 3.69081e-08 -0.000182921)
(-8.05028e-08 3.12668e-10 -0.00018317)
(7.79174e-08 1.47322e-08 -0.000182687)
(3.40793e-07 7.38469e-07 -0.000182316)
(-9.07752e-08 1.02042e-07 -0.00018345)
(-4.58769e-07 -1.61008e-06 -0.000183272)
(-2.75135e-07 -2.94282e-08 -0.000180032)
(-9.11817e-09 -1.08741e-08 -0.000179816)
(-2.79326e-07 -2.79983e-08 -0.000179868)
(-3.734e-07 -3.40034e-08 -0.000180125)
(-2.19113e-07 -2.67624e-08 -0.000179512)
(-3.07674e-07 -3.41206e-08 -0.000179701)
(-1.44451e-07 -1.36738e-08 -0.000179704)
(-8.3278e-07 -5.89672e-08 -0.000180098)
(-6.54604e-07 -4.95731e-08 -0.000179669)
(-3.85936e-07 -3.96994e-08 -0.000179386)
(-5.35729e-07 -4.20371e-08 -0.000179626)
(1.34603e-06 6.88065e-08 -0.00018066)
(9.10023e-07 2.40453e-08 -0.000178689)
(5.31332e-07 1.05824e-08 -0.000179549)
(5.34697e-07 6.33462e-09 -0.000179471)
(-1.42717e-07 -2.63803e-08 -0.000179353)
(-1.40728e-07 -1.8065e-08 -0.0001801)
(-2.56856e-07 -2.42397e-08 -0.000179927)
(1.83732e-07 -1.25079e-09 -0.000179879)
(3.2795e-08 -9.03505e-09 -0.000179966)
(1.05301e-07 -3.6446e-09 -0.000180107)
(7.32683e-08 -4.39865e-09 -0.00018002)
(-2.2791e-07 -3.75512e-08 -0.000180322)
(-8.00912e-08 -2.27803e-08 -0.000179524)
(1.01554e-07 -1.12636e-08 -0.00017973)
(3.54829e-07 2.79864e-09 -0.000179609)
(2.29696e-07 -3.78519e-09 -0.000179739)
(2.53814e-07 4.97781e-10 -0.000179938)
(-4.30834e-08 -1.41135e-08 -0.000180284)
(9.74373e-08 -5.48056e-09 -0.0001807)
(-6.54181e-08 -1.9193e-08 -0.000180223)
(3.5456e-07 -1.60441e-09 -0.000180645)
(5.48216e-07 2.33028e-08 -0.00017986)
(2.9987e-07 1.23473e-08 -0.00018032)
(2.67346e-07 4.36571e-09 -0.000181283)
(2.93012e-07 4.28224e-09 -0.000181029)
(2.10525e-07 2.67973e-09 -0.000180375)
(5.98125e-08 -6.32899e-09 -0.000180547)
(5.55341e-07 2.25261e-08 -0.000180305)
(8.9088e-07 4.67427e-08 -0.000180328)
(6.73983e-07 5.25612e-08 -0.000180092)
(-3.9894e-07 -5.27553e-08 -0.000180347)
(3.2133e-07 1.04384e-08 -0.000179965)
(6.79943e-07 1.56499e-08 -0.000180116)
(6.32692e-07 3.94158e-09 -0.000179565)
(4.82102e-07 6.08908e-09 -0.000179456)
(2.06953e-07 -3.01118e-09 -0.000179493)
(1.46383e-07 -1.69486e-09 -0.000179907)
(1.66516e-07 1.61169e-09 -0.000180073)
(7.13923e-08 -4.18379e-09 -0.000179365)
(6.27744e-08 -6.96852e-09 -0.000180668)
(2.26709e-08 -1.13346e-08 -0.000179989)
(2.98831e-07 1.04531e-09 -0.000180078)
(1.65022e-07 -3.20781e-09 -0.000179546)
(-3.97661e-07 -3.15801e-08 -0.000179669)
(-6.03697e-08 -1.05207e-08 -0.000179598)
(6.94054e-08 -6.43861e-10 -0.000180091)
(1.67332e-07 1.71467e-09 -0.000180124)
(1.78424e-07 -4.61267e-09 -0.000180108)
(6.63445e-08 -1.15094e-08 -0.000180099)
(2.47022e-07 -3.46249e-09 -0.000179938)
(2.77631e-07 3.54015e-09 -0.000180122)
(2.43112e-07 -6.65578e-10 -0.000180652)
(1.01979e-07 -4.17808e-09 -0.00018098)
(-2.45895e-07 -6.87081e-09 -0.000181779)
(-2.94061e-07 -3.91063e-09 -0.000181742)
(-2.64401e-08 9.88264e-09 -0.000181754)
(-2.0207e-07 -1.55795e-10 -0.000181726)
(-2.52454e-07 6.5662e-10 -0.00018144)
(-3.39487e-07 -3.38613e-09 -0.000181481)
(-1.81753e-07 6.29462e-09 -0.000182022)
(-6.59048e-07 -1.91469e-08 -0.00018129)
(-5.05111e-07 -7.56359e-09 -0.000181608)
(-1.1467e-07 7.67781e-09 -0.000181362)
(3.2166e-07 3.1152e-08 -0.000181286)
(9.82203e-07 3.85674e-08 -0.000181626)
(2.39285e-07 2.32656e-08 -0.000180967)
(7.34995e-08 1.16761e-08 -0.000181547)
(-1.76188e-07 -1.21703e-08 -0.000180907)
(-3.50976e-07 -5.39815e-09 -0.000181451)
(-2.17573e-07 3.09349e-09 -0.00018195)
(-4.13069e-07 -3.86833e-09 -0.000181887)
(-3.85987e-07 -6.9416e-09 -0.000181514)
(6.22108e-08 1.30654e-08 -0.00018163)
(5.38124e-09 1.06308e-08 -0.000181932)
(-1.50419e-07 8.07159e-09 -0.000181935)
(-1.97429e-07 -3.84385e-09 -0.000181557)
(-2.6702e-08 8.67834e-09 -0.000181583)
(1.19262e-07 1.78693e-08 -0.000181631)
(4.51764e-09 6.40717e-09 -0.000181282)
(1.72973e-07 2.08137e-08 -0.000181536)
(2.95009e-07 2.97932e-08 -0.000181973)
(2.07484e-07 2.99566e-08 -0.000182163)
(-6.63012e-08 1.02571e-08 -0.000182339)
(1.79564e-07 2.44241e-08 -0.000182358)
(2.49762e-07 1.58025e-08 -0.000181944)
(6.14801e-07 4.83035e-08 -0.000181908)
(6.10132e-07 5.48617e-08 -0.000182455)
(5.89705e-07 4.6723e-08 -0.000182894)
(2.43723e-07 2.08129e-08 -0.000182472)
(3.07444e-07 2.75527e-08 -0.000182063)
(2.50478e-07 2.17642e-08 -0.000181975)
(1.44555e-07 5.53406e-09 -0.00018153)
(5.77287e-07 2.73625e-08 -0.000181713)
(1.13596e-06 8.81293e-08 -0.000182614)
(2.91704e-07 3.01025e-08 -0.000181789)
(3.4056e-08 1.8309e-08 -0.00018195)
(1.44771e-07 9.47218e-09 -0.000181505)
(1.38899e-07 4.7588e-09 -0.000181178)
(1.03655e-07 1.21747e-08 -0.000181024)
(5.75539e-07 4.50025e-08 -0.000181352)
(4.55462e-07 4.08944e-08 -0.000181635)
(1.09064e-07 1.60825e-08 -0.000181522)
(2.48469e-07 3.28041e-08 -0.000181716)
(-2.0525e-08 1.1118e-08 -0.000182044)
(-1.57427e-07 3.24957e-09 -0.000181809)
(-1.18815e-07 1.153e-09 -0.000181582)
(1.8777e-07 2.50207e-08 -0.000181443)
(5.67182e-09 1.8356e-08 -0.000181352)
(3.23385e-08 1.50581e-08 -0.000181579)
(2.7566e-07 3.08847e-08 -0.000181939)
(9.75025e-08 2.24883e-08 -0.000181775)
(-9.79464e-09 1.07507e-08 -0.000181507)
(6.33968e-08 1.22856e-08 -0.000181747)
(-9.40367e-08 3.06543e-09 -0.000181737)
(-4.88791e-08 8.43669e-09 -0.000182121)
(-3.45386e-07 -4.80859e-09 -0.000182696)
(-2.45736e-07 -1.66758e-08 -0.0001823)
(2.61259e-09 4.94483e-08 -0.000183079)
(-4.57385e-07 -1.09773e-06 -0.000181137)
(-2.57393e-07 1.41057e-08 -0.000180248)
(-1.66196e-07 -3.2645e-09 -0.000180079)
(-3.58687e-07 2.79975e-09 -0.000180084)
(-1.96206e-07 -4.3061e-09 -0.000179948)
(-3.769e-07 6.20965e-09 -0.000179833)
(-3.02289e-07 5.43484e-09 -0.000179836)
(-2.34118e-07 -6.73462e-10 -0.000180104)
(-4.03374e-07 1.13711e-08 -0.000179681)
(-8.4671e-08 -7.17493e-09 -0.000179791)
(-3.57884e-07 -7.4408e-09 -0.000179518)
(-2.56744e-07 -1.44749e-08 -0.000180258)
(3.91355e-07 -3.59303e-08 -0.000178712)
(-2.19218e-08 -1.47437e-08 -0.000179249)
(-1.40575e-08 -1.87897e-08 -0.000179733)
(-3.17953e-07 8.4767e-09 -0.000179623)
(-1.40423e-07 5.14109e-10 -0.000180525)
(-4.3376e-07 2.16634e-08 -0.000180028)
(6.18485e-08 -8.81046e-08 -0.000180864)
(-1.87396e-07 2.36336e-09 -0.000180342)
(-3.22021e-08 -1.44299e-08 -0.000180243)
(-2.28895e-07 -4.31155e-09 -0.000180032)
(-1.89052e-07 -1.83859e-09 -0.000180212)
(-1.29495e-07 -8.52551e-09 -0.000180608)
(-1.97546e-08 -1.72015e-08 -0.000179889)
(-1.05343e-08 -1.74682e-08 -0.00017991)
(1.75426e-08 -1.59901e-08 -0.000179703)
(1.97089e-07 -2.56424e-08 -0.000179823)
(4.22788e-07 -3.7825e-08 -0.000179938)
(3.17332e-07 -2.95304e-08 -0.00018014)
(1.01578e-08 -4.91806e-09 -0.000180469)
(3.74013e-07 -2.94996e-08 -0.000180519)
(2.48604e-07 -3.40129e-08 -0.000180597)
(6.86639e-07 -5.23939e-08 -0.00018016)
(5.72884e-07 -3.711e-08 -0.00018009)
(4.25114e-07 -3.43052e-08 -0.000180883)
(1.80912e-07 -2.54591e-08 -0.000180707)
(2.19671e-07 -2.83302e-08 -0.000180389)
(-2.10015e-07 -5.78608e-09 -0.000180261)
(-2.29965e-07 -6.74882e-10 -0.000180307)
(3.9257e-07 -2.98256e-08 -0.00018058)
(1.66004e-06 -8.92232e-08 -0.000180728)
(9.53878e-08 -3.92157e-08 -0.000178951)
(-1.23904e-07 -1.13837e-08 -0.000179867)
(2.98405e-07 -3.30535e-08 -0.000180318)
(1.20767e-07 -3.09857e-08 -0.000179442)
(2.89753e-07 -3.01383e-08 -0.000179391)
(5.3584e-07 -4.35034e-08 -0.000179248)
(3.77741e-07 -3.63009e-08 -0.000179287)
(1.92351e-07 -2.20912e-08 -0.000179515)
(3.13474e-07 -2.88232e-08 -0.000179206)
(-1.23267e-08 -1.23502e-08 -0.000180235)
(-1.83191e-08 -9.2357e-09 -0.00018006)
(-1.06824e-07 -8.40272e-09 -0.000180237)
(3.74145e-07 -3.10378e-08 -0.000180101)
(-3.76914e-08 -1.13136e-08 -0.000179607)
(-1.24803e-08 -8.87656e-09 -0.000179816)
(9.93322e-08 -1.80766e-08 -0.000180312)
(3.78184e-08 -1.47362e-08 -0.000180144)
(-2.83257e-08 -6.811e-09 -0.000180023)
(-2.4122e-07 1.9214e-09 -0.000179766)
(-1.58138e-07 -3.87675e-09 -0.000179811)
(-4.06942e-08 -6.8321e-09 -0.000180038)
(-1.44263e-07 -6.70154e-10 -0.000180267)
(2.6528e-07 -1.9814e-08 -0.000181323)
(2.09385e-10 5.5927e-08 -0.000182977)
(-4.68926e-07 4.42946e-08 -0.000182164)
(-2.89764e-07 2.63114e-08 -0.000181785)
(-2.00468e-07 1.91202e-08 -0.000181684)
(1.55253e-07 1.38506e-09 -0.000181535)
(-1.26468e-08 1.65478e-08 -0.000181625)
(-2.18629e-07 2.68458e-08 -0.000181854)
(-4.52373e-07 2.96395e-08 -0.000181031)
(-2.28322e-07 2.81458e-08 -0.000181541)
(5.82828e-08 1.08907e-08 -0.000181879)
(-1.58083e-07 2.86572e-08 -0.000181567)
(-1.33691e-07 5.99701e-10 -0.000181314)
(-2.17048e-07 1.72802e-08 -0.000181119)
(-2.36327e-07 3.0447e-08 -0.000181693)
(-1.77481e-07 1.18972e-08 -0.000181477)
(-5.73815e-08 2.20695e-08 -0.000182024)
(-2.37733e-07 2.57949e-08 -0.000182203)
(-1.72017e-07 3.31638e-08 -0.000182123)
(-2.5913e-07 3.03662e-08 -0.000182373)
(-2.61917e-07 2.36232e-08 -0.000181946)
(-6.03276e-08 1.32631e-08 -0.000182156)
(6.25364e-08 1.07548e-08 -0.000182165)
(-6.27032e-08 8.94126e-09 -0.000181751)
(1.83032e-08 8.07909e-09 -0.000181858)
(1.74117e-07 2.29309e-09 -0.000181711)
(1.23864e-07 4.6705e-09 -0.000181628)
(1.64361e-08 9.798e-09 -0.000181566)
(2.20495e-07 -1.36573e-09 -0.000181808)
(5.88334e-07 -1.75079e-08 -0.000181834)
(2.48687e-07 9.26718e-09 -0.000182385)
(1.95734e-07 4.94944e-09 -0.000182227)
(2.34486e-07 -5.55485e-09 -0.000182109)
(6.06207e-07 -2.53212e-08 -0.000182084)
(4.71733e-07 -7.77357e-09 -0.0001823)
(3.29652e-07 -3.60829e-09 -0.000182457)
(1.89365e-07 5.89828e-10 -0.000182509)
(2.02621e-07 4.25985e-11 -0.000182185)
(4.02652e-07 -7.36493e-09 -0.000182074)
(3.74844e-07 5.17131e-10 -0.000182011)
(4.54137e-07 -2.26171e-08 -0.000181926)
(1.02534e-06 -7.12487e-08 -0.000182117)
(-5.93891e-08 1.43438e-08 -0.000181118)
(-2.89905e-08 1.44144e-08 -0.000181936)
(-2.32585e-07 1.68229e-08 -0.000181565)
(-5.01622e-08 1.28929e-08 -0.000181219)
(-2.00116e-07 1.81518e-08 -0.000181247)
(4.43547e-08 7.92495e-09 -0.000181049)
(2.32988e-07 2.22315e-10 -0.000181045)
(7.06497e-08 3.20305e-09 -0.000181289)
(3.57892e-07 -6.30835e-10 -0.000181413)
(2.29724e-08 1.08174e-08 -0.000181795)
(1.66343e-08 1.31431e-08 -0.000181971)
(-2.70471e-08 1.3289e-08 -0.00018197)
(2.58869e-07 -6.01486e-09 -0.000181804)
(2.82614e-07 2.05862e-11 -0.000181514)
(2.16709e-07 3.64688e-09 -0.000182006)
(3.43867e-07 -7.73969e-09 -0.000182059)
(2.21847e-07 2.87099e-09 -0.000181859)
(1.35997e-07 9.70167e-09 -0.000181632)
(9.35298e-08 1.43004e-08 -0.000181635)
(5.66871e-08 1.43849e-08 -0.000181889)
(-3.69965e-08 1.76375e-08 -0.000182157)
(-8.1825e-07 7.12449e-08 -0.000182949)
(-6.45147e-07 3.23811e-08 -0.000182555)
(6.22751e-07 6.0061e-07 -0.000181394)
(1.31475e-07 -7.90161e-08 -0.000183147)
(-3.86058e-07 6.429e-08 -0.000180257)
(-2.67003e-07 4.09601e-08 -0.000180375)
(-2.22776e-07 2.69654e-08 -0.000180075)
(-5.53056e-08 -4.24579e-09 -0.000179796)
(-1.36547e-07 9.11491e-09 -0.000179597)
(-4.84371e-07 6.61576e-08 -0.000179534)
(-3.73726e-07 4.5544e-08 -0.00018011)
(-4.71923e-07 6.49206e-08 -0.000179736)
(-5.00542e-08 -7.3868e-09 -0.000180062)
(2.23652e-07 -4.80483e-08 -0.000179881)
(-7.84999e-07 1.01394e-07 -0.000180061)
(-2.88236e-07 3.25677e-08 -0.000179733)
(-5.84259e-08 1.68292e-11 -0.00018007)
(-1.00064e-09 -1.47261e-08 -0.000180367)
(-4.61902e-08 1.25597e-09 -0.000180239)
(-2.08079e-07 2.47486e-08 -0.000180889)
(-2.37936e-07 2.75089e-08 -0.00018048)
(-2.47473e-07 3.5625e-08 -0.000180785)
(-6.33644e-08 -2.91503e-09 -0.000180819)
(-5.35912e-08 -6.18635e-09 -0.000180442)
(-2.0812e-07 1.83819e-08 -0.000180391)
(-2.71491e-07 3.05511e-08 -0.000180695)
(-1.31263e-07 1.09596e-08 -0.000180145)
(7.30316e-08 -2.60991e-08 -0.000180106)
(5.40911e-08 -2.27112e-08 -0.000179899)
(-5.34891e-08 -3.47469e-09 -0.000180096)
(1.62471e-07 -4.10947e-08 -0.000180248)
(5.58678e-07 -1.12086e-07 -0.000180346)
(4.94022e-08 -1.8539e-08 -0.000180181)
(3.33142e-07 -6.07987e-08 -0.000180732)
(2.89974e-07 -5.61885e-08 -0.000180627)
(7.20093e-07 -1.31509e-07 -0.000180503)
(4.86201e-07 -8.78887e-08 -0.000180109)
(3.56783e-07 -6.61655e-08 -0.000180796)
(2.67856e-07 -5.19595e-08 -0.000180653)
(3.47599e-07 -6.69523e-08 -0.00018029)
(3.81357e-07 -7.84978e-08 -0.000180098)
(2.17652e-07 3.94055e-08 -0.000182518)
(1.00634e-07 -3.76684e-08 -0.000179966)
(-1.59505e-07 2.77032e-10 -0.000180228)
(2.99819e-07 -7.40692e-08 -0.000180746)
(2.63214e-07 -5.29029e-08 -0.000178855)
(-3.72014e-07 4.7028e-08 -0.000179668)
(-4.57642e-08 -4.63127e-09 -0.000180773)
(-3.45596e-08 -1.0775e-08 -0.000179778)
(-1.85906e-07 1.32727e-08 -0.00017969)
(2.93855e-07 -6.2809e-08 -0.000179856)
(2.60574e-07 -5.89846e-08 -0.000179391)
(5.98167e-08 -2.5495e-08 -0.000179456)
(4.99637e-07 -9.41189e-08 -0.000179459)
(4.02976e-08 -1.74125e-08 -0.000179863)
(1.39372e-07 -3.01752e-08 -0.000180061)
(-1.62307e-07 1.77631e-08 -0.000180011)
(2.64824e-07 -5.36554e-08 -0.000180323)
(4.87215e-07 -8.97218e-08 -0.000179628)
(3.77171e-07 -6.97129e-08 -0.000179625)
(3.69053e-07 -7.1917e-08 -0.000180115)
(2.65098e-07 -5.33038e-08 -0.000179887)
(1.1171e-07 -2.78886e-08 -0.000179802)
(1.10851e-07 -2.79524e-08 -0.000179704)
(1.16824e-07 -3.07845e-08 -0.000179705)
(2.26886e-07 -4.40682e-08 -0.000180337)
(2.30345e-07 -2.26848e-08 -0.000180947)
(3.08433e-07 -2.02045e-08 -0.000182081)
(1.00553e-07 1.08161e-08 -0.000182216)
(1.38619e-07 -1.30692e-09 -0.000182072)
(-3.8683e-07 7.49125e-08 -0.00018171)
(-1.28856e-07 3.39293e-08 -0.000181349)
(4.50247e-08 1.03875e-08 -0.00018149)
(-3.53759e-08 2.5964e-08 -0.000181917)
(-3.38668e-07 6.28868e-08 -0.000181525)
(1.97502e-08 1.3338e-08 -0.000181898)
(-3.67928e-08 1.31032e-08 -0.000181793)
(-1.52284e-07 4.11951e-08 -0.00018171)
(-1.87437e-07 4.35502e-08 -0.000181607)
(2.59668e-07 -3.58734e-08 -0.000181922)
(8.4083e-08 6.5483e-09 -0.000182228)
(1.04938e-08 9.00294e-09 -0.000182037)
(5.18652e-07 -6.4729e-08 -0.000182322)
(2.10495e-07 -1.92704e-08 -0.000182785)
(-7.35975e-08 3.02443e-08 -0.000182324)
(-4.67872e-08 3.30957e-08 -0.000182574)
(-7.49878e-08 2.39966e-08 -0.000182427)
(3.70941e-09 8.75326e-09 -0.000182533)
(2.73506e-07 -2.8497e-08 -0.000182497)
(-7.02605e-08 2.48901e-08 -0.00018198)
(-8.3916e-09 1.68176e-08 -0.000182081)
(6.09406e-08 1.43646e-09 -0.000181813)
(2.38972e-07 -2.22704e-08 -0.000181896)
(2.89878e-07 -3.39936e-08 -0.000182085)
(1.58093e-07 -1.27165e-08 -0.000182371)
(2.31536e-07 -3.01053e-08 -0.000181769)
(6.25299e-07 -7.76705e-08 -0.000182378)
(4.81368e-07 -6.31976e-08 -0.000182198)
(4.51552e-07 -5.87764e-08 -0.000182076)
(6.88435e-07 -1.0399e-07 -0.000181989)
(9.35654e-07 -1.33465e-07 -0.000182263)
(4.1334e-07 -4.92898e-08 -0.000182257)
(2.0622e-07 -2.03003e-08 -0.000182244)
(5.09862e-08 2.68281e-09 -0.000182142)
(3.22554e-08 3.172e-09 -0.000181716)
(2.82566e-07 -2.90833e-08 -0.000181796)
(8.46488e-08 6.69602e-09 -0.000181815)
(4.26819e-07 -8.11013e-08 -0.000181814)
(7.36875e-08 1.23259e-09 -0.000181292)
(2.4549e-07 -1.90506e-08 -0.000181979)
(-2.20221e-07 4.09958e-08 -0.000181955)
(-1.07631e-08 1.22414e-08 -0.000181401)
(1.4491e-07 -1.14989e-08 -0.000181607)
(-1.04769e-08 1.11778e-08 -0.000181479)
(1.01711e-07 -3.35608e-09 -0.000181204)
(9.27662e-08 -4.60299e-09 -0.000181422)
(3.37249e-07 -4.14336e-08 -0.000181259)
(1.74792e-07 -9.14906e-09 -0.000181596)
(-6.89984e-10 1.31177e-08 -0.000181831)
(7.91952e-08 7.76987e-09 -0.000181951)
(1.71458e-07 -1.89199e-08 -0.00018179)
(3.14284e-07 -4.12491e-08 -0.00018117)
(3.86334e-07 -4.63919e-08 -0.000181685)
(3.14412e-07 -3.84067e-08 -0.000181637)
(2.16969e-07 -1.93816e-08 -0.000181577)