/*--------------------------------*- C++ -*----------------------------------*\
| =========                 |                                                 |
| \\      /  F ield         | OpenFOAM: The Open Source CFD Toolbox           |
|  \\    /   O peration     | Version:  2206                                  |
|   \\  /    A nd           | Website:  www.openfoam.com                      |
|    \\/     M anipulation  |                                                 |
\*---------------------------------------------------------------------------*/
FoamFile
{
    version     2.0;
    format      ascii;
    arch        "LSB;label=32;scalar=64";
    class       volScalarField;
    location    "10";
    object      k;
}
// * * * * * * * * * * * * * * * * * * * * * * * * * * * * * * * * * * * * * //

dimensions      [0 2 -2 0 0 0 0];

internalField   nonuniform List<scalar> 
67442
(
2.99489e-05
3.22898e-05
3.23264e-05
3.31929e-05
3.31086e-05
3.25069e-05
3.25041e-05
3.29954e-05
3.23035e-05
3.22778e-05
3.2311e-05
3.29912e-05
3.24335e-05
1.38141e-05
2.48775e-05
9.6001e-06
1.41805e-05
2.43462e-05
2.98849e-05
2.97634e-05
3.00036e-05
2.55781e-05
3.16261e-05
3.05409e-05
1.0038e-05
3.14495e-05
2.50458e-05
3.12016e-05
1.88852e-05
1.90586e-05
9.63276e-06
9.67062e-06
1.96984e-05
1.91141e-05
1.37948e-05
2.50332e-05
2.55388e-05
3.18768e-05
3.09012e-05
2.56649e-05
3.15167e-05
3.083e-05
1.96926e-05
1.9816e-05
9.69183e-06
2.51966e-05
3.16935e-05
3.05697e-05
1.39969e-05
2.51599e-05
3.1782e-05
2.64988e-05
3.05147e-05
1.35318e-05
2.44233e-05
3.15767e-05
2.54794e-05
3.04025e-05
1.28728e-05
2.44043e-05
1.92202e-05
1.91155e-05
9.55267e-06
3.15812e-05
2.54102e-05
3.10736e-05
1.28393e-05
2.45426e-05
1.30947e-05
2.4879e-05
9.21135e-06
9.43963e-06
9.40161e-06
1.41199e-05
1.93886e-05
1.87379e-05
9.13233e-06
1.1115e-05
2.48327e-05
1.23937e-05
2.35152e-05
1.25769e-05
2.35897e-05
1.1505e-05
9.74352e-06
1.1327e-05
2.42542e-05
2.39866e-05
1.25978e-05
9.47224e-06
1.37964e-05
1.87615e-05
1.9175e-05
9.14721e-06
9.79156e-06
1.36487e-05
1.91888e-05
1.11561e-05
2.42929e-05
2.32983e-05
1.2204e-05
2.31523e-05
1.2213e-05
1.11504e-05
1.00554e-05
1.03163e-05
2.38953e-05
2.86494e-05
1.95239e-05
1.33136e-05
2.85568e-05
1.40417e-05
2.40453e-05
2.43594e-05
2.89878e-05
1.94865e-05
1.34059e-05
2.8784e-05
1.34265e-05
2.4411e-05
1.51214e-05
9.29671e-06
9.27222e-06
9.46366e-06
8.88008e-06
1.52325e-05
9.64045e-06
9.61003e-06
9.91209e-06
2.34564e-05
2.85275e-05
1.9806e-05
1.34583e-05
1.2845e-05
2.84587e-05
2.425e-05
2.3639e-05
2.83601e-05
1.90271e-05
1.32142e-05
1.37215e-05
2.82652e-05
2.34892e-05
1.49363e-05
8.93069e-06
8.83634e-06
9.25553e-06
8.99319e-06
1.50091e-05
9.38219e-06
1.42405e-05
1.88381e-05
1.91302e-05
9.30921e-06
1.14488e-05
2.55281e-05
1.29914e-05
2.41038e-05
1.32249e-05
2.40467e-05
1.2073e-05
2.35634e-05
2.86074e-05
1.94372e-05
1.34581e-05
1.36871e-05
2.85219e-05
2.42883e-05
2.40721e-05
2.85637e-05
2.02963e-05
1.40459e-05
2.89212e-05
1.48774e-05
2.40694e-05
1.51471e-05
9.19988e-06
9.70051e-06
9.2871e-06
9.36796e-06
1.51955e-05
1.0118e-05
1.11643e-05
2.45295e-05
1.21663e-05
2.30864e-05
9.38564e-06
1.47881e-05
1.86977e-05
1.88911e-05
9.38279e-06
9.17889e-06
1.4304e-05
1.93434e-05
1.13649e-05
2.43422e-05
1.2559e-05
2.38001e-05
1.19835e-05
2.39323e-05
1.15097e-05
9.30843e-06
1.43232e-05
1.95763e-05
1.95225e-05
9.62339e-06
1.23102e-05
2.45647e-05
2.46826e-05
1.22547e-05
2.42025e-05
1.26018e-05
1.20497e-05
9.56133e-06
1.29246e-05
1.84819e-05
1.86672e-05
9.45734e-06
1.07803e-05
2.44006e-05
1.17869e-05
2.32407e-05
1.17506e-05
2.38955e-05
1.11954e-05
2.44479e-05
2.89148e-05
1.91277e-05
1.35436e-05
1.39637e-05
2.90125e-05
2.42088e-05
2.42983e-05
2.84971e-05
1.90782e-05
1.39249e-05
2.89346e-05
1.40098e-05
2.40408e-05
1.65017e-05
9.92446e-06
9.79308e-06
9.57539e-06
9.8023e-06
1.63483e-05
9.54901e-06
8.78301e-06
1.28217e-05
1.79151e-05
1.78913e-05
8.65787e-06
1.07628e-05
2.45294e-05
2.28848e-05
1.28293e-05
2.29931e-05
1.23179e-05
1.08545e-05
8.7725e-06
1.3566e-05
1.81968e-05
1.81401e-05
8.85976e-06
1.22246e-05
2.57282e-05
2.37584e-05
1.23796e-05
2.43597e-05
1.25062e-05
1.16179e-05
9.27652e-06
9.4077e-06
2.92863e-05
2.96268e-05
2.92098e-05
2.96819e-05
3.18803e-05
3.21832e-05
3.34845e-05
3.19265e-05
3.2445e-05
2.93277e-05
2.9197e-05
3.18891e-05
3.17699e-05
3.30211e-05
3.18458e-05
3.17804e-05
2.92122e-05
2.94966e-05
3.21304e-05
3.20562e-05
3.29775e-05
3.21778e-05
3.1809e-05
2.92693e-05
2.98777e-05
3.1893e-05
3.20372e-05
3.30559e-05
3.22596e-05
3.21007e-05
2.94285e-05
2.93485e-05
2.983e-05
2.89984e-05
2.97745e-05
2.9092e-05
2.92861e-05
2.95542e-05
2.9363e-05
2.87864e-05
3.20322e-05
3.10044e-05
2.63359e-05
2.90921e-05
3.09363e-05
2.8511e-05
3.23608e-05
3.27874e-05
3.07646e-05
3.01442e-05
3.28152e-05
3.00891e-05
3.30326e-05
3.26045e-05
3.20775e-05
3.08752e-05
2.51452e-05
2.81592e-05
3.11132e-05
2.8374e-05
3.23223e-05
3.28055e-05
3.08509e-05
3.31236e-05
3.00443e-05
3.29206e-05
3.00994e-05
3.2761e-05
3.22562e-05
3.12605e-05
2.55265e-05
2.88557e-05
2.92519e-05
3.12641e-05
3.22097e-05
3.27538e-05
3.08952e-05
3.06909e-05
3.29552e-05
3.07962e-05
3.29895e-05
3.28127e-05
3.23664e-05
3.14027e-05
2.56504e-05
2.92904e-05
2.93108e-05
3.09745e-05
3.25934e-05
3.28667e-05
3.08753e-05
3.02647e-05
3.32392e-05
3.04115e-05
3.30192e-05
3.27288e-05
3.21505e-05
3.11202e-05
2.5345e-05
2.86271e-05
2.86127e-05
3.10808e-05
3.21074e-05
3.26241e-05
3.04819e-05
2.99589e-05
3.30666e-05
2.99222e-05
3.27885e-05
3.25926e-05
3.24038e-05
3.10035e-05
2.58867e-05
2.84524e-05
2.8409e-05
3.12288e-05
3.21198e-05
3.26344e-05
3.06326e-05
3.30482e-05
3.00138e-05
3.27806e-05
2.9997e-05
3.26612e-05
3.26404e-05
3.1223e-05
2.55135e-05
2.83912e-05
3.11844e-05
2.8555e-05
3.24223e-05
3.27375e-05
3.07362e-05
3.27193e-05
2.9858e-05
3.27781e-05
3.02497e-05
3.26652e-05
3.22847e-05
3.10518e-05
2.58037e-05
2.84275e-05
3.1053e-05
2.90284e-05
3.23203e-05
3.27026e-05
3.10528e-05
3.31387e-05
3.06808e-05
3.29982e-05
3.06102e-05
3.27259e-05
3.33309e-06
9.9844e-07
2.81985e-07
3.25842e-07
2.02768e-06
3.64831e-06
1.0994e-06
3.08288e-07
3.49811e-07
2.19952e-06
3.55583e-06
1.02068e-06
2.852e-07
3.26269e-07
2.02849e-06
3.85812e-06
1.14425e-06
3.16435e-07
3.5046e-07
2.20183e-06
3.77225e-06
1.11561e-06
3.14535e-07
3.51177e-07
2.20193e-06
3.8417e-06
1.15113e-06
3.20782e-07
3.51775e-07
2.20197e-06
3.37164e-06
1.00021e-06
2.81958e-07
3.25534e-07
2.0276e-06
3.70152e-06
1.12836e-06
3.15325e-07
3.50408e-07
2.2006e-06
3.54777e-06
1.06397e-06
2.97351e-07
3.27293e-07
2.02773e-06
3.40043e-06
1.01114e-06
2.84172e-07
3.25698e-07
2.029e-06
3.24543e-06
9.70733e-07
2.76728e-07
3.25169e-07
2.02944e-06
3.71325e-06
1.09728e-06
3.08456e-07
3.50258e-07
2.2019e-06
3.22959e-06
9.68768e-07
2.80498e-07
3.25582e-07
2.02687e-06
3.22631e-06
9.64368e-07
2.75542e-07
3.24443e-07
2.02661e-06
3.60212e-06
1.06603e-06
3.04293e-07
3.49627e-07
2.20076e-06
3.58555e-06
1.07443e-06
3.03006e-07
3.48937e-07
2.20033e-06
3.72354e-06
1.126e-06
3.1303e-07
3.51216e-07
2.20852e-06
3.41558e-06
1.01291e-06
2.86247e-07
3.26387e-07
2.03174e-06
3.72994e-06
1.11039e-06
3.1474e-07
3.51787e-07
2.20564e-06
3.55102e-06
1.07377e-06
2.99049e-07
3.35874e-07
2.09947e-06
3.62691e-06
1.09508e-06
3.09003e-07
3.43077e-07
2.14015e-06
3.91252e-06
1.15379e-06
3.19062e-07
3.51917e-07
2.20909e-06
3.49608e-06
1.02694e-06
2.85549e-07
3.26562e-07
2.03175e-06
3.46046e-06
1.03008e-06
2.86679e-07
3.26151e-07
2.02839e-06
3.92276e-06
1.15021e-06
3.17934e-07
3.51151e-07
2.20575e-06
3.83223e-06
1.15486e-06
3.19691e-07
3.51046e-07
2.20199e-06
3.45177e-06
1.03228e-06
2.89403e-07
3.27164e-07
2.03566e-06
3.62076e-06
1.04338e-06
2.88295e-07
3.27522e-07
2.03983e-06
3.43005e-06
1.02633e-06
2.86206e-07
3.26159e-07
2.03458e-06
3.48017e-06
1.03561e-06
2.89936e-07
3.28059e-07
2.04043e-06
3.76471e-06
1.11647e-06
3.10569e-07
3.47033e-07
2.17596e-06
3.56386e-06
1.06738e-06
3.00385e-07
3.45239e-07
2.17445e-06
3.88808e-06
1.14846e-06
3.1648e-07
3.47563e-07
2.17959e-06
3.54133e-06
1.0588e-06
2.98795e-07
3.45434e-07
2.17814e-06
3.61503e-06
1.09162e-06
3.0967e-07
3.50081e-07
2.20447e-06
3.69747e-06
1.13611e-06
3.16428e-07
3.51075e-07
2.2049e-06
3.79974e-06
1.14877e-06
3.14636e-07
3.50126e-07
2.20138e-06
3.41553e-06
1.00621e-06
2.8331e-07
3.26534e-07
2.03152e-06
3.62285e-06
1.07225e-06
2.98921e-07
3.28513e-07
2.03728e-06
3.69586e-06
1.08063e-06
3.00709e-07
3.28099e-07
2.03908e-06
3.89876e-06
1.17434e-06
3.20718e-07
3.47553e-07
2.17644e-06
3.81144e-06
1.13921e-06
3.12877e-07
3.4666e-07
2.17984e-06
3.87641e-06
1.14409e-06
3.17235e-07
3.52064e-07
2.20751e-06
3.50031e-06
1.05329e-06
2.98371e-07
3.36221e-07
2.09997e-06
3.55974e-06
1.07282e-06
3.03977e-07
3.42381e-07
2.1398e-06
3.97467e-06
1.17812e-06
3.27209e-07
3.53204e-07
2.20934e-06
3.6214e-06
1.07685e-06
2.98672e-07
3.2768e-07
2.0328e-06
3.71309e-06
1.08812e-06
3.0091e-07
3.27611e-07
2.02842e-06
3.58027e-06
1.02852e-06
2.8592e-07
3.25807e-07
2.03111e-06
3.92791e-06
1.17562e-06
3.25239e-07
3.52618e-07
2.21044e-06
3.36822e-06
9.92212e-07
2.80413e-07
3.25645e-07
2.03225e-06
3.61958e-06
1.05295e-06
2.90102e-07
3.27526e-07
2.036e-06
3.60443e-06
1.04274e-06
2.90766e-07
3.2787e-07
2.0407e-06
3.93549e-06
1.19819e-06
3.29784e-07
3.49286e-07
2.17648e-06
3.5998e-06
1.09128e-06
3.0787e-07
3.50222e-07
2.20448e-06
3.61217e-06
1.09457e-06
3.08004e-07
3.50147e-07
2.20759e-06
3.26134e-06
9.85745e-07
2.79443e-07
3.25155e-07
2.03135e-06
3.57101e-06
1.08937e-06
3.08842e-07
3.50598e-07
2.20842e-06
3.30315e-06
9.82881e-07
2.79073e-07
3.25294e-07
2.03093e-06
3.67124e-06
1.07806e-06
3.05118e-07
3.49541e-07
2.20457e-06
3.62229e-06
1.08457e-06
3.04604e-07
3.48867e-07
2.20303e-06
3.7081e-06
1.13426e-06
3.16066e-07
3.50589e-07
2.20853e-06
3.9627e-06
1.18166e-06
3.25058e-07
3.53602e-07
2.2115e-06
3.4331e-06
1.04441e-06
2.94651e-07
3.35345e-07
2.10146e-06
3.68695e-06
1.09683e-06
3.09616e-07
3.43017e-07
2.13907e-06
3.61737e-06
1.09449e-06
3.07946e-07
3.42245e-07
2.14116e-06
3.45716e-06
1.05316e-06
2.97045e-07
3.35592e-07
2.09789e-06
3.7876e-06
1.12303e-06
3.1211e-07
3.5048e-07
2.20376e-06
3.52047e-06
1.03287e-06
2.89817e-07
3.27159e-07
2.03606e-06
3.63038e-06
1.04608e-06
2.93047e-07
3.28593e-07
2.04054e-06
3.6864e-06
1.10174e-06
3.06512e-07
3.46339e-07
2.17633e-06
3.732e-06
1.11246e-06
3.08718e-07
3.46857e-07
2.17954e-06
3.78986e-06
1.14253e-06
3.18593e-07
3.51577e-07
2.20513e-06
3.53591e-06
1.07524e-06
3.04016e-07
3.3753e-07
2.10423e-06
3.58184e-06
1.0784e-06
3.04253e-07
3.42501e-07
2.13923e-06
3.59597e-06
1.0767e-06
3.06039e-07
3.43327e-07
2.14395e-06
3.54864e-06
1.08159e-06
3.06755e-07
3.38094e-07
2.10093e-06
3.86267e-06
1.16701e-06
3.22066e-07
3.52204e-07
2.2053e-06
3.49904e-06
1.03887e-06
2.87767e-07
3.26496e-07
2.03559e-06
3.50622e-06
1.0371e-06
2.88635e-07
3.27874e-07
2.04077e-06
3.9435e-06
1.1897e-06
3.23992e-07
3.47472e-07
2.17532e-06
3.87595e-06
1.16217e-06
3.17069e-07
3.47654e-07
2.17935e-06
3.43765e-06
1.01996e-06
2.8716e-07
3.26629e-07
2.03593e-06
3.48227e-06
1.02667e-06
2.86076e-07
3.26593e-07
2.03912e-06
3.65088e-06
1.10403e-06
3.09843e-07
3.46825e-07
2.17545e-06
3.7912e-06
1.11883e-06
3.11292e-07
3.47047e-07
2.1792e-06
3.56877e-06
1.05126e-06
2.95957e-07
3.28205e-07
2.03671e-06
3.55176e-06
1.05387e-06
2.93832e-07
3.27941e-07
2.03987e-06
3.52278e-06
1.0717e-06
3.02543e-07
3.46387e-07
2.17569e-06
3.62877e-06
1.08169e-06
3.05423e-07
3.47502e-07
2.18007e-06
3.58189e-06
1.05159e-06
2.9428e-07
3.35246e-07
2.10104e-06
3.66685e-06
1.09901e-06
3.07406e-07
3.42113e-07
2.13815e-06
3.65197e-06
1.10577e-06
3.05245e-07
3.41514e-07
2.1417e-06
3.60203e-06
1.07384e-06
2.98867e-07
3.35234e-07
2.09806e-06
3.81139e-06
1.13273e-06
3.15154e-07
3.50513e-07
2.20329e-06
3.51443e-06
1.0669e-06
3.00281e-07
3.36894e-07
2.10385e-06
3.63429e-06
1.08237e-06
3.03505e-07
3.41971e-07
2.13994e-06
3.48281e-06
1.0667e-06
3.01782e-07
3.42147e-07
2.14359e-06
3.62618e-06
1.08172e-06
3.01984e-07
3.36778e-07
2.09976e-06
3.9372e-06
1.18739e-06
3.27485e-07
3.52431e-07
2.20472e-06
3.75762e-06
1.14513e-06
3.22567e-07
3.52194e-07
2.20458e-06
3.98124e-06
1.17223e-06
3.21844e-07
3.51956e-07
2.20435e-06
3.78996e-06
1.11612e-06
3.07094e-07
3.37286e-07
2.10267e-06
3.51897e-06
1.04574e-06
2.94932e-07
3.40902e-07
2.13882e-06
3.64011e-06
1.06523e-06
2.99687e-07
3.4139e-07
2.14254e-06
3.64784e-06
1.10427e-06
3.05832e-07
3.37122e-07
2.10037e-06
3.47323e-06
1.0377e-06
2.92537e-07
3.35544e-07
2.10193e-06
3.55424e-06
1.06331e-06
3.03839e-07
3.42136e-07
2.13932e-06
3.53201e-06
1.06573e-06
3.03782e-07
3.42068e-07
2.14273e-06
3.38891e-06
1.02652e-06
2.90624e-07
3.34653e-07
2.0986e-06
3.89165e-06
1.15332e-06
3.21175e-07
3.5104e-07
2.20403e-06
3.93356e-06
1.20156e-06
3.28987e-07
3.49435e-07
2.18057e-06
3.60554e-06
1.09694e-06
3.1301e-07
3.50705e-07
2.20408e-06
3.33093e-06
1.02136e-06
2.94171e-07
3.36224e-07
2.10172e-06
3.56344e-06
1.06563e-06
3.01212e-07
3.41803e-07
2.13858e-06
3.49681e-06
1.05426e-06
2.99146e-07
3.41546e-07
2.14039e-06
3.3233e-06
1.00877e-06
2.91857e-07
3.35475e-07
2.09722e-06
3.57526e-06
1.08186e-06
3.08048e-07
3.50557e-07
2.2047e-06
3.60003e-06
1.08512e-06
2.99166e-07
3.36061e-07
2.10217e-06
3.64355e-06
1.11089e-06
3.10569e-07
3.41721e-07
2.1374e-06
3.71337e-06
1.1073e-06
3.06533e-07
3.41494e-07
2.14092e-06
3.5568e-06
1.08706e-06
3.01943e-07
3.35625e-07
2.09709e-06
3.24939e-05
3.30476e-05
3.22943e-05
2.9817e-05
2.51024e-05
3.15674e-05
3.0507e-05
1.46427e-05
2.5052e-05
3.15042e-05
2.58701e-05
3.0507e-05
9.88005e-06
2.01616e-05
1.09689e-05
2.47331e-05
2.32129e-05
1.21631e-05
2.39446e-05
1.21704e-05
1.08892e-05
9.41637e-06
1.42161e-05
1.88084e-05
1.97002e-05
9.50545e-06
1.16426e-05
2.45967e-05
1.20779e-05
2.38938e-05
1.21888e-05
2.34141e-05
1.11081e-05
1.0028e-05
2.43222e-05
2.95196e-05
1.99892e-05
1.33974e-05
2.91131e-05
1.35943e-05
2.42571e-05
2.44916e-05
2.86385e-05
2.87129e-05
2.41195e-05
1.63191e-05
9.65856e-06
9.64782e-06
1.6323e-05
2.96395e-05
3.31179e-05
3.1984e-05
3.24306e-05
3.20579e-05
3.22091e-05
2.99387e-05
2.95162e-05
2.90597e-05
2.94937e-05
2.91296e-05
2.8899e-05
3.26033e-05
3.05376e-05
3.03731e-05
3.28503e-05
3.00186e-05
3.27787e-05
3.26105e-05
3.2151e-05
3.10457e-05
2.60235e-05
2.8532e-05
2.91579e-05
3.1063e-05
3.21738e-05
3.25679e-05
3.0522e-05
3.29327e-05
3.00951e-05
3.31824e-05
3.00219e-05
3.27387e-05
3.2004e-05
3.08248e-05
3.08545e-05
3.19975e-05
3.3341e-05
3.24039e-05
3.23666e-05
3.03029e-05
1.00498e-05
9.68882e-06
1.94306e-05
2.00647e-05
1.40266e-05
2.52262e-05
2.55895e-05
3.16639e-05
3.09121e-05
1.35506e-05
2.58466e-05
9.72015e-06
1.0128e-05
2.34494e-05
2.85591e-05
1.92462e-05
1.33967e-05
1.34115e-05
2.86781e-05
2.35238e-05
2.3468e-05
2.8522e-05
1.97213e-05
1.31833e-05
1.3848e-05
2.85639e-05
2.35971e-05
1.45061e-05
9.31207e-06
9.20739e-06
9.03874e-06
8.99464e-06
1.51563e-05
9.21533e-06
1.36657e-05
1.89153e-05
1.92375e-05
8.9589e-06
1.11714e-05
2.56228e-05
1.29504e-05
2.37045e-05
1.28853e-05
2.35674e-05
1.11859e-05
9.17945e-06
1.41644e-05
1.95055e-05
1.8719e-05
9.18382e-06
2.91235e-05
3.31693e-05
3.19833e-05
3.18847e-05
3.2263e-05
3.21836e-05
2.90899e-05
2.96542e-05
3.22246e-05
3.10839e-05
2.6292e-05
2.88499e-05
3.10684e-05
2.8942e-05
3.21806e-05
3.27451e-05
3.13693e-05
3.05995e-05
3.29924e-05
3.06213e-05
3.29568e-05
3.29432e-05
3.22911e-05
3.13979e-05
2.54805e-05
2.86602e-05
3.09323e-05
2.84148e-05
3.21771e-05
3.58037e-06
1.05954e-06
2.96172e-07
3.28279e-07
2.03384e-06
3.76056e-06
1.14255e-06
3.16764e-07
3.50923e-07
2.20516e-06
3.9434e-06
1.1725e-06
3.20969e-07
3.50992e-07
2.20475e-06
3.52193e-06
1.03206e-06
2.87689e-07
3.26229e-07
2.02727e-06
3.78481e-06
1.1465e-06
3.20942e-07
3.51478e-07
2.20211e-06
3.46217e-06
1.05615e-06
2.9944e-07
3.36574e-07
2.10031e-06
3.52632e-06
1.05856e-06
3.00486e-07
3.42891e-07
2.14419e-06
3.63164e-06
1.06829e-06
3.00704e-07
3.40905e-07
2.13837e-06
3.45054e-06
1.05123e-06
2.98941e-07
3.37123e-07
2.10389e-06
3.53161e-06
1.06989e-06
2.99847e-07
3.36674e-07
2.10026e-06
3.51737e-06
1.06511e-06
3.00907e-07
3.42272e-07
2.14402e-06
3.55966e-06
1.06931e-06
3.0108e-07
3.41615e-07
2.13942e-06
3.50704e-06
1.071e-06
2.99837e-07
3.37271e-07
2.10452e-06
3.94858e-06
1.1933e-06
3.27937e-07
3.5311e-07
2.20955e-06
3.48606e-06
1.03195e-06
2.87639e-07
3.27116e-07
2.04019e-06
3.52787e-06
1.03632e-06
2.91564e-07
3.27684e-07
2.03595e-06
3.9581e-06
1.18954e-06
3.24428e-07
3.47614e-07
2.17908e-06
4.00739e-06
1.19054e-06
3.23836e-07
3.47756e-07
2.17568e-06
3.79152e-06
1.12958e-06
3.14053e-07
3.50747e-07
2.20579e-06
3.75305e-06
1.14259e-06
3.181e-07
3.51216e-07
2.20511e-06
3.46829e-06
1.01279e-06
2.83797e-07
3.2669e-07
2.03263e-06
3.3886e-06
1.00632e-06
2.81236e-07
3.25202e-07
2.03161e-06
3.75883e-06
1.13822e-06
3.17624e-07
3.50772e-07
2.20127e-06
3.8416e-06
1.15938e-06
3.22501e-07
3.51142e-07
2.20095e-06
3.69017e-06
1.1092e-06
3.11048e-07
3.50217e-07
2.20418e-06
3.36292e-06
9.98979e-07
2.80428e-07
3.25049e-07
2.0266e-06
3.53543e-06
1.01726e-06
2.83259e-07
3.25146e-07
2.02761e-06
3.684e-06
1.11829e-06
3.13006e-07
3.47655e-07
2.18029e-06
3.68742e-06
1.08446e-06
3.04238e-07
3.47152e-07
2.18114e-06
3.804e-06
1.14993e-06
3.20373e-07
3.51565e-07
2.20458e-06
3.84959e-06
1.16796e-06
3.23594e-07
3.52359e-07
2.20936e-06
3.39235e-06
1.00333e-06
2.82323e-07
3.26603e-07
2.04053e-06
3.54494e-06
1.03945e-06
2.87877e-07
3.26296e-07
2.03499e-06
3.44859e-06
1.04423e-06
2.93625e-07
3.28025e-07
2.04072e-06
3.54525e-06
1.0528e-06
2.94162e-07
3.27675e-07
2.03605e-06
3.67431e-06
1.08935e-06
3.04699e-07
3.45567e-07
2.175e-06
3.63384e-06
1.09463e-06
3.06692e-07
3.4617e-07
2.17578e-06
3.49423e-06
1.05357e-06
2.95962e-07
3.35427e-07
2.09806e-06
3.61832e-06
1.08723e-06
3.05565e-07
3.4241e-07
2.14058e-06
3.66748e-06
1.09617e-06
3.06678e-07
3.4222e-07
2.13816e-06
3.44919e-06
1.04869e-06
2.96416e-07
3.36799e-07
2.1023e-06
3.65335e-06
1.1107e-06
3.11005e-07
3.51214e-07
2.20918e-06
3.32625e-05
2.9994e-05
3.25024e-05
3.21488e-05
3.32715e-05
3.31597e-05
3.33225e-05
3.23284e-05
3.24522e-05
3.30829e-05
3.23324e-05
3.25328e-05
3.23512e-05
3.30263e-05
3.23121e-05
1.87765e-05
1.92804e-05
3.32673e-05
1.98692e-05
2.03736e-05
2.44359e-05
1.37192e-05
2.46226e-05
9.57786e-06
9.35938e-06
1.41481e-05
2.46685e-05
2.9997e-05
3.02468e-05
2.99227e-05
2.5598e-05
3.18376e-05
3.22855e-05
3.06089e-05
9.53427e-06
3.17988e-05
2.5174e-05
3.05546e-05
1.91806e-05
1.96343e-05
9.12774e-06
9.18599e-06
9.58361e-06
9.57033e-06
3.33173e-05
1.89604e-05
1.92601e-05
1.92096e-05
1.96913e-05
9.66146e-06
9.24632e-06
9.65602e-06
9.54204e-06
9.51381e-06
9.72441e-06
1.95927e-05
1.93235e-05
2.43368e-05
1.3178e-05
1.32831e-05
2.54686e-05
3.0453e-05
2.62513e-05
3.16803e-05
3.15936e-05
3.09624e-05
3.04981e-05
2.5465e-05
3.1602e-05
3.24505e-05
2.53347e-05
3.18639e-05
3.07597e-05
1.9586e-05
1.97751e-05
3.30996e-05
1.99021e-05
9.71409e-06
2.52005e-05
3.17559e-05
3.09664e-05
1.35335e-05
2.4532e-05
3.16892e-05
2.53429e-05
3.05451e-05
1.41008e-05
2.46192e-05
3.17448e-05
2.52629e-05
3.04195e-05
1.43504e-05
2.41146e-05
1.88287e-05
1.96189e-05
9.44208e-06
3.15849e-05
2.62936e-05
3.06859e-05
1.33659e-05
2.45416e-05
1.35694e-05
2.49328e-05
9.33416e-06
9.46429e-06
1.58307e-05
9.27158e-06
8.98419e-06
9.13005e-06
9.12718e-06
1.49448e-05
2.39523e-05
2.84276e-05
1.32198e-05
1.89592e-05
1.37348e-05
2.4878e-05
2.83772e-05
2.39393e-05
2.90064e-05
1.28908e-05
1.94051e-05
1.28852e-05
2.39522e-05
2.91535e-05
1.56458e-05
9.26313e-06
8.97241e-06
9.50392e-06
9.34333e-06
1.53832e-05
2.39814e-05
1.34745e-05
1.88629e-05
2.88535e-05
1.3528e-05
2.4456e-05
2.83673e-05
2.37482e-05
1.34491e-05
1.93658e-05
2.85655e-05
1.28484e-05
2.3737e-05
2.86224e-05
1.0972e-05
1.2369e-05
2.38781e-05
2.43841e-05
1.21489e-05
2.37394e-05
1.09506e-05
9.13783e-06
1.37438e-05
1.98885e-05
1.91194e-05
9.18637e-06
9.04612e-06
1.35475e-05
1.87481e-05
1.17202e-05
2.45224e-05
1.2217e-05
2.41598e-05
1.21998e-05
2.40169e-05
1.13687e-05
9.49049e-06
9.43885e-06
9.00896e-06
1.37032e-05
1.88592e-05
1.85648e-05
8.94939e-06
1.09889e-05
2.48436e-05
2.34733e-05
1.20104e-05
2.35292e-05
1.24271e-05
1.14398e-05
9.65612e-06
2.37284e-05
2.85598e-05
1.35771e-05
1.98764e-05
2.39079e-05
2.91469e-05
1.33609e-05
2.35072e-05
2.89181e-05
1.33846e-05
1.9939e-05
2.433e-05
2.83906e-05
1.41342e-05
1.48463e-05
9.14562e-06
8.96931e-06
1.49465e-05
9.22924e-06
9.10374e-06
9.16067e-06
9.43798e-06
9.654e-06
9.52435e-06
1.49281e-05
9.53919e-06
9.07838e-06
1.49669e-05
9.62098e-06
9.12573e-06
2.4586e-05
2.84771e-05
1.40806e-05
1.93509e-05
2.37911e-05
1.35675e-05
2.91806e-05
2.42714e-05
2.84723e-05
1.31335e-05
1.92985e-05
2.41012e-05
1.38262e-05
2.84732e-05
1.52331e-05
9.23599e-06
9.18945e-06
1.5833e-05
9.2014e-06
9.32734e-06
2.42626e-05
1.35104e-05
2.87161e-05
1.90383e-05
2.46144e-05
1.36899e-05
2.89291e-05
2.39669e-05
1.29832e-05
2.85189e-05
2.01797e-05
2.45711e-05
1.32852e-05
2.85061e-05
9.44274e-06
9.2581e-06
1.00568e-05
9.80027e-06
9.53041e-06
9.47633e-06
9.74799e-06
2.43104e-05
2.95212e-05
2.02034e-05
1.29694e-05
1.31649e-05
2.88563e-05
2.37035e-05
2.35531e-05
2.86986e-05
1.9406e-05
1.28914e-05
1.29809e-05
2.8946e-05
2.38198e-05
1.91654e-05
2.88694e-05
1.46205e-05
8.94342e-06
8.72747e-06
8.96179e-06
8.86368e-06
1.47827e-05
1.08895e-05
1.23972e-05
2.33683e-05
2.44658e-05
1.30938e-05
2.34018e-05
1.08765e-05
9.21015e-06
1.39047e-05
1.93372e-05
1.91991e-05
9.15954e-06
9.18071e-06
1.87718e-05
1.35074e-05
1.98459e-05
9.26454e-06
1.1374e-05
2.45589e-05
1.22019e-05
2.41027e-05
1.24679e-05
2.33129e-05
1.094e-05
1.60298e-05
9.05504e-06
9.61451e-06
9.43536e-06
2.39108e-05
2.92959e-05
2.00403e-05
1.31433e-05
1.38063e-05
2.92718e-05
2.39065e-05
2.44166e-05
2.87494e-05
1.89407e-05
1.30768e-05
2.93425e-05
1.30826e-05
2.50758e-05
2.39854e-05
1.30598e-05
1.98139e-05
2.90753e-05
1.33457e-05
2.89919e-05
2.37347e-05
2.48413e-05
1.90913e-05
2.88743e-05
1.30786e-05
1.57615e-05
9.50201e-06
9.43685e-06
9.54243e-06
9.08164e-06
1.54732e-05
9.85223e-06
1.01245e-05
9.2577e-06
1.40005e-05
1.88061e-05
1.89016e-05
9.70284e-06
1.0817e-05
2.54082e-05
1.17455e-05
2.28332e-05
1.18607e-05
2.35631e-05
1.07865e-05
1.13303e-05
2.42521e-05
2.34768e-05
1.19797e-05
9.8027e-06
1.35416e-05
1.95487e-05
1.93363e-05
9.59089e-06
9.30475e-06
1.39309e-05
1.90941e-05
1.12314e-05
2.39309e-05
2.30983e-05
1.18249e-05
2.36677e-05
1.18981e-05
1.13751e-05
1.08087e-05
2.50152e-05
1.24741e-05
2.33546e-05
9.24057e-06
1.37513e-05
1.91114e-05
1.88522e-05
9.28317e-06
9.18522e-06
1.38378e-05
1.89972e-05
1.08413e-05
2.43492e-05
1.22508e-05
2.30182e-05
1.21367e-05
2.39143e-05
1.0794e-05
2.3919e-05
2.83652e-05
1.94875e-05
1.34925e-05
1.37129e-05
2.8369e-05
2.38211e-05
2.37208e-05
2.90829e-05
1.95742e-05
1.33983e-05
2.84379e-05
1.40351e-05
2.3704e-05
1.60611e-05
9.48395e-06
9.52843e-06
9.47933e-06
9.65974e-06
1.67784e-05
9.35516e-06
9.03798e-06
1.31692e-05
1.87324e-05
1.85314e-05
9.09369e-06
1.11931e-05
2.47312e-05
2.32831e-05
1.21016e-05
2.33475e-05
1.22927e-05
1.17599e-05
9.08823e-06
1.38139e-05
1.90503e-05
1.88777e-05
9.11275e-06
1.08877e-05
2.48152e-05
2.3977e-05
1.23536e-05
2.39965e-05
1.21269e-05
1.09695e-05
9.33754e-06
9.29889e-06
9.39164e-06
2.9304e-05
3.22101e-05
3.19395e-05
3.3016e-05
2.9831e-05
3.18463e-05
3.19141e-05
2.93856e-05
2.94162e-05
2.91182e-05
2.97538e-05
3.18605e-05
3.22081e-05
3.3032e-05
2.95623e-05
3.20916e-05
3.18375e-05
2.9754e-05
3.33025e-05
3.18944e-05
3.20445e-05
2.92688e-05
3.19604e-05
3.22248e-05
2.93299e-05
3.19289e-05
3.18011e-05
3.31619e-05
3.19945e-05
3.18079e-05
2.92037e-05
2.93266e-05
3.21748e-05
3.18126e-05
3.30965e-05
3.18613e-05
3.20398e-05
2.92366e-05
2.93546e-05
3.18843e-05
3.17521e-05
3.32345e-05
3.18155e-05
3.1927e-05
2.91261e-05
2.95311e-05
3.30977e-05
3.19729e-05
3.21885e-05
2.952e-05
3.21323e-05
3.18866e-05
2.96795e-05
2.99283e-05
2.92766e-05
2.97032e-05
2.94893e-05
2.9737e-05
2.94782e-05
2.94127e-05
2.91881e-05
3.24033e-05
3.12281e-05
2.58746e-05
2.89545e-05
3.08876e-05
2.89897e-05
3.23075e-05
3.2342e-05
2.51857e-05
3.09437e-05
2.88035e-05
3.27499e-05
3.05256e-05
3.00643e-05
3.27569e-05
3.04118e-05
3.2756e-05
3.27929e-05
3.20732e-05
3.12796e-05
2.52342e-05
2.86384e-05
3.08286e-05
2.85351e-05
3.21456e-05
3.27668e-05
3.07034e-05
3.2851e-05
3.00212e-05
3.28315e-05
2.9969e-05
3.26484e-05
2.93625e-05
3.32508e-05
3.22076e-05
3.20256e-05
2.98617e-05
3.20349e-05
3.20431e-05
3.28796e-05
3.02783e-05
3.29153e-05
3.04393e-05
3.02589e-05
3.28e-05
3.2808e-05
3.22952e-05
3.09945e-05
2.54857e-05
2.88075e-05
2.87611e-05
3.10427e-05
3.23668e-05
3.22179e-05
2.55912e-05
2.90176e-05
3.14698e-05
3.27684e-05
3.10238e-05
3.09646e-05
3.28289e-05
3.04863e-05
3.28073e-05
3.27465e-05
3.27431e-05
3.01428e-05
3.28143e-05
3.04353e-05
3.00757e-05
3.27769e-05
3.2716e-05
3.21571e-05
3.10835e-05
2.54428e-05
2.92029e-05
2.86669e-05
3.13273e-05
3.22323e-05
3.22027e-05
2.86776e-05
2.53188e-05
3.13622e-05
2.87015e-05
3.21728e-05
3.13059e-05
3.26116e-05
3.09694e-05
3.07406e-05
3.30174e-05
3.02551e-05
3.30829e-05
3.26457e-05
2.93643e-05
3.30808e-05
3.20626e-05
3.18677e-05
3.21848e-05
3.20249e-05
2.94347e-05
3.2052e-05
3.09159e-05
2.52832e-05
2.88565e-05
2.86562e-05
3.09306e-05
3.21206e-05
3.2533e-05
3.09772e-05
3.04008e-05
3.30125e-05
3.04146e-05
3.27584e-05
3.25575e-05
3.21045e-05
3.12692e-05
2.52845e-05
2.8478e-05
2.85862e-05
3.09952e-05
3.20482e-05
3.24909e-05
3.08765e-05
3.277e-05
3.02329e-05
3.27226e-05
3.0286e-05
3.25141e-05
3.24614e-05
3.0876e-05
2.6025e-05
2.83622e-05
3.08482e-05
2.92212e-05
3.22142e-05
3.29356e-05
3.10215e-05
3.27862e-05
3.00807e-05
3.30583e-05
3.0134e-05
3.25884e-05
3.21647e-05
3.16188e-05
2.66344e-05
2.89939e-05
3.11909e-05
2.85854e-05
3.21887e-05
3.27713e-05
3.06403e-05
3.28979e-05
3.02543e-05
3.29841e-05
3.02177e-05
3.27996e-05
2.97473e-05
3.23626e-05
3.21044e-05
3.31266e-05
2.98294e-05
3.24265e-05
3.20913e-05
3.31474e-05
3.00014e-05
3.26112e-05
3.23838e-05
3.3149e-05
3.01446e-05
3.2329e-05
3.21939e-05
3.3276e-05
2.9873e-05
3.25193e-05
3.21085e-05
3.31526e-05
2.98755e-05
3.26379e-05
3.20853e-05
3.34011e-05
2.98289e-05
3.22943e-05
3.22812e-05
3.31257e-05
2.99763e-05
3.25527e-05
3.22081e-05
3.32809e-05
3.00475e-05
3.23084e-05
3.22736e-05
3.29974e-05
2.97246e-05
3.23256e-05
3.23068e-05
3.30633e-05
3.01383e-05
3.23025e-05
3.2166e-05
3.31235e-05
2.99086e-05
3.23064e-05
3.22223e-05
3.30832e-05
2.98053e-05
3.22659e-05
3.2207e-05
3.29863e-05
2.99595e-05
3.2544e-05
3.23313e-05
3.32993e-05
3.01396e-05
3.22327e-05
3.22042e-05
3.31226e-05
3.0259e-05
3.24536e-05
3.21865e-05
3.31491e-05
3.22833e-05
3.23753e-05
3.31221e-05
3.22824e-05
3.24911e-05
3.23245e-05
3.25401e-05
3.30988e-05
3.21394e-05
3.24489e-05
3.31509e-05
3.31319e-05
3.30845e-05
3.23244e-05
3.2522e-05
3.24336e-05
3.24633e-05
3.30884e-05
3.31487e-05
3.22737e-05
3.25301e-05
3.23674e-05
3.22624e-05
3.25467e-05
3.25854e-05
3.24503e-05
3.32057e-05
3.29626e-05
3.26706e-05
3.20917e-05
3.25351e-05
3.30855e-05
3.30624e-05
3.3024e-05
3.23843e-05
3.25009e-05
3.22709e-05
3.23639e-05
3.30712e-05
3.32908e-05
3.25159e-05
3.22714e-05
3.23494e-05
3.22797e-05
3.25276e-05
3.23874e-05
3.2325e-05
3.3146e-05
3.29858e-05
3.25632e-05
3.21193e-05
3.25004e-05
3.3396e-05
3.30108e-05
3.30737e-05
3.23119e-05
3.24601e-05
3.24769e-05
3.22985e-05
3.30398e-05
3.31893e-05
3.23533e-05
3.22932e-05
3.23493e-05
3.22765e-05
3.22987e-05
3.23507e-05
3.22677e-05
3.32495e-05
3.29792e-05
3.25086e-05
3.21527e-05
3.25625e-05
3.32291e-05
3.32111e-05
3.2953e-05
3.22891e-05
3.22749e-05
3.24835e-05
3.24398e-05
3.30341e-05
3.32772e-05
3.23711e-05
3.22772e-05
3.22262e-05
3.25279e-05
3.24503e-05
3.24392e-05
3.23084e-05
3.29876e-05
3.30159e-05
3.23194e-05
3.21611e-05
3.23652e-05
3.31465e-05
3.29422e-05
3.30595e-05
3.22802e-05
3.24932e-05
3.24556e-05
3.25072e-05
3.30298e-05
3.30143e-05
3.23795e-05
3.23266e-05
3.24004e-05
3.25187e-05
3.24746e-05
3.24688e-05
3.2448e-05
3.29519e-05
3.29101e-05
3.23962e-05
3.2102e-05
3.25165e-05
3.31611e-05
3.31114e-05
3.32664e-05
3.25753e-05
3.25425e-05
3.25432e-05
3.26246e-05
3.30066e-05
3.32887e-05
3.24949e-05
3.23907e-05
3.23257e-05
3.2304e-05
3.24205e-05
3.2524e-05
3.23368e-05
3.29493e-05
3.2962e-05
3.25254e-05
3.21814e-05
3.2219e-05
3.3192e-05
3.30049e-05
3.29742e-05
3.22921e-05
3.24474e-05
3.22596e-05
3.24495e-05
3.3054e-05
3.32528e-05
3.23683e-05
3.22989e-05
3.22105e-05
3.22926e-05
3.24321e-05
3.24874e-05
3.23138e-05
3.30154e-05
3.29262e-05
3.23831e-05
3.20423e-05
3.22449e-05
3.30072e-05
3.29676e-05
3.31868e-05
3.22243e-05
3.23702e-05
3.22815e-05
3.2338e-05
3.3039e-05
3.33236e-05
3.21995e-05
3.23235e-05
3.21336e-05
3.22942e-05
3.22693e-05
3.23456e-05
3.23058e-05
3.29667e-05
3.29063e-05
3.22398e-05
3.21192e-05
3.24599e-05
3.30145e-05
3.29561e-05
3.31743e-05
3.2279e-05
3.23407e-05
3.22601e-05
3.23973e-05
3.3043e-05
3.31468e-05
3.21094e-05
3.22772e-05
3.21803e-05
3.23052e-05
3.22851e-05
3.23315e-05
3.25908e-05
3.31786e-05
3.29762e-05
3.22388e-05
3.21259e-05
3.22575e-05
3.30523e-05
3.31108e-05
3.30729e-05
3.25187e-05
3.23338e-05
3.23797e-05
3.25707e-05
3.29974e-05
3.30677e-05
3.22161e-05
3.25218e-05
3.2239e-05
3.25785e-05
3.24227e-05
3.22896e-05
3.24575e-05
3.29757e-05
3.31993e-05
3.23278e-05
3.23516e-05
3.24309e-05
3.31295e-05
3.31002e-05
3.31903e-05
3.26032e-05
3.24443e-05
3.23007e-05
3.23379e-05
3.32392e-05
3.30074e-05
3.22344e-05
3.23595e-05
3.23392e-05
3.23319e-05
3.24952e-05
3.23139e-05
3.2423e-05
3.30286e-05
3.29547e-05
3.25393e-05
3.2214e-05
3.24572e-05
3.31165e-05
3.2952e-05
3.31654e-05
3.22761e-05
3.23108e-05
3.25005e-05
3.25795e-05
3.30294e-05
3.30114e-05
3.23837e-05
3.23013e-05
3.22127e-05
3.2255e-05
3.23906e-05
3.24913e-05
3.23217e-05
3.29907e-05
3.31549e-05
3.23525e-05
3.22246e-05
3.2324e-05
3.29464e-05
3.32566e-05
3.29521e-05
3.22786e-05
3.24657e-05
3.22944e-05
3.23802e-05
3.31906e-05
3.30191e-05
3.21667e-05
3.22689e-05
3.21504e-05
3.22786e-05
3.23482e-05
3.23543e-05
3.22225e-05
3.293e-05
3.29514e-05
3.23512e-05
3.21707e-05
3.21486e-05
3.30941e-05
3.29709e-05
3.29924e-05
3.22741e-05
3.24394e-05
3.21481e-05
3.22573e-05
3.29996e-05
3.30518e-05
3.23271e-05
3.22583e-05
3.22798e-05
3.22571e-05
3.22506e-05
3.24541e-05
3.22965e-05
3.30212e-05
3.29535e-05
3.21303e-05
3.21233e-05
3.21808e-05
3.33248e-05
3.30155e-05
3.31132e-05
3.22069e-05
3.22989e-05
3.22198e-05
3.2505e-05
3.30413e-05
3.32672e-05
3.22503e-05
3.22562e-05
3.22247e-05
3.25237e-05
3.22654e-05
3.26484e-05
3.22238e-05