/*--------------------------------*- C++ -*----------------------------------*\
| =========                 |                                                 |
| \\      /  F ield         | OpenFOAM: The Open Source CFD Toolbox           |
|  \\    /   O peration     | Version:  2206                                  |
|   \\  /    A nd           | Website:  www.openfoam.com                      |
|    \\/     M anipulation  |                                                 |
\*---------------------------------------------------------------------------*/
FoamFile
{
    version     2.0;
    format      ascii;
    arch        "LSB;label=32;scalar=64";
    class       volScalarField;
    location    "10";
    object      nut;
}
// * * * * * * * * * * * * * * * * * * * * * * * * * * * * * * * * * * * * * //

dimensions      [0 2 -1 0 0 0 0];

internalField   nonuniform List<scalar> 
67442
(
1.57398e-06
1.58263e-06
1.58417e-06
1.53934e-06
1.53064e-06
1.59276e-06
1.58968e-06
1.534e-06
1.58183e-06
1.58606e-06
1.57392e-06
1.53207e-06
1.59325e-06
6.58175e-08
4.00728e-07
2.91508e-08
6.69855e-08
3.70796e-07
1.56888e-06
1.56875e-06
1.57693e-06
4.46535e-07
1.59657e-06
1.08388e-06
3.00626e-08
1.58888e-06
4.3659e-07
1.13109e-06
1.73096e-07
1.78578e-07
2.90048e-08
2.89813e-08
1.81393e-07
1.75463e-07
6.8708e-08
4.0693e-07
4.48617e-07
1.62124e-06
1.11965e-06
4.55823e-07
1.59994e-06
1.11777e-06
1.8295e-07
1.92564e-07
2.96544e-08
4.35271e-07
1.61777e-06
1.06471e-06
6.6566e-08
3.83993e-07
1.62201e-06
4.55873e-07
1.06297e-06
6.41821e-08
3.84922e-07
1.6053e-06
4.36923e-07
1.06241e-06
6.08348e-08
3.82129e-07
1.74925e-07
1.82626e-07
2.92906e-08
1.60752e-06
4.54056e-07
1.14289e-06
6.11056e-08
3.98651e-07
6.25031e-08
4.18295e-07
2.78355e-08
2.88003e-08
2.64733e-08
6.78002e-08
1.69864e-07
1.72633e-07
2.57333e-08
4.39803e-08
4.20941e-07
5.45215e-08
3.25845e-07
5.58184e-08
3.31394e-07
4.57365e-08
2.96795e-08
4.41866e-08
3.73122e-07
3.24981e-07
5.42535e-08
2.68527e-08
6.62257e-08
1.61779e-07
1.73837e-07
2.56573e-08
2.75299e-08
6.60044e-08
1.66658e-07
4.39426e-08
3.77865e-07
3.14534e-07
5.24205e-08
3.16286e-07
5.28085e-08
4.42552e-08
3.03873e-08
3.10367e-08
3.38925e-07
7.49035e-07
1.76673e-07
6.17935e-08
7.54393e-07
6.47274e-08
3.47416e-07
3.39851e-07
7.91652e-07
1.80476e-07
6.12705e-08
7.4932e-07
6.16808e-08
3.47126e-07
9.45715e-08
2.75107e-08
2.71028e-08
2.75663e-08
2.56683e-08
9.72765e-08
2.91804e-08
2.90947e-08
2.98208e-08
3.23438e-07
7.33537e-07
1.8543e-07
6.14437e-08
5.93068e-08
7.48382e-07
3.47454e-07
3.25138e-07
7.30045e-07
1.81578e-07
5.98342e-08
6.27931e-08
7.4117e-07
3.27238e-07
9.21009e-08
2.59553e-08
2.54678e-08
2.71103e-08
2.60442e-08
9.3706e-08
2.66139e-08
6.87979e-08
1.71877e-07
1.67797e-07
2.65427e-08
4.59426e-08
4.22142e-07
5.85426e-08
3.43074e-07
5.81969e-08
3.37515e-07
4.88984e-08
3.36188e-07
7.45626e-07
1.82325e-07
6.30585e-08
6.24735e-08
7.55756e-07
3.52737e-07
3.43759e-07
7.59683e-07
1.88409e-07
6.53224e-08
7.76971e-07
6.95983e-08
3.48639e-07
9.59265e-08
2.71358e-08
2.85718e-08
2.70222e-08
2.7435e-08
9.73059e-08
3.0457e-08
4.34748e-08
3.7805e-07
5.35226e-08
3.11333e-07
2.63106e-08
7.20812e-08
1.63241e-07
1.67171e-07
2.64007e-08
2.58538e-08
6.78778e-08
1.69011e-07
4.45227e-08
3.78093e-07
5.42755e-08
3.19768e-07
5.26541e-08
3.25339e-07
4.56156e-08
2.63215e-08
6.86803e-08
1.73681e-07
1.70611e-07
2.74069e-08
4.9594e-08
3.937e-07
3.55541e-07
5.42142e-08
3.30008e-07
5.44748e-08
4.83155e-08
2.69075e-08
6.07965e-08
1.59773e-07
1.62928e-07
2.69756e-08
4.22352e-08
3.85693e-07
5.18793e-08
3.1121e-07
5.06229e-08
3.2388e-07
4.41784e-08
3.4474e-07
7.44774e-07
1.75881e-07
6.15278e-08
6.39449e-08
7.72086e-07
3.57903e-07
3.48416e-07
7.47789e-07
1.83458e-07
6.60578e-08
7.74756e-07
6.47436e-08
3.50675e-07
1.06883e-07
2.8987e-08
2.90633e-08
2.81176e-08
2.91816e-08
1.05467e-07
2.88426e-08
2.48466e-08
6.14061e-08
1.58994e-07
1.53631e-07
2.47917e-08
4.27078e-08
4.0473e-07
3.26864e-07
5.67466e-08
3.14818e-07
5.47354e-08
4.32683e-08
2.47008e-08
6.42901e-08
1.58114e-07
1.55939e-07
2.51929e-08
4.86364e-08
4.1373e-07
3.42981e-07
5.50506e-08
3.36017e-07
5.60696e-08
4.63953e-08
2.7661e-08
2.82695e-08
1.55519e-06
1.57891e-06
1.54299e-06
8.57043e-07
1.30472e-06
1.3188e-06
1.55163e-06
1.27736e-06
1.30054e-06
8.82488e-07
8.2945e-07
1.26671e-06
1.25981e-06
1.5323e-06
1.29589e-06
1.2688e-06
8.37897e-07
8.54423e-07
1.31079e-06
1.29315e-06
1.53203e-06
1.29196e-06
1.27279e-06
8.53042e-07
8.65505e-07
1.27777e-06
1.28636e-06
1.53769e-06
1.30641e-06
1.29784e-06
8.65889e-07
1.55645e-06
1.58307e-06
1.5414e-06
1.59135e-06
1.54943e-06
1.55673e-06
1.56925e-06
1.55477e-06
1.5142e-06
1.35075e-06
1.10532e-06
4.66225e-07
8.02841e-07
1.11066e-06
7.52535e-07
1.37221e-06
1.47125e-06
1.08369e-06
1.00253e-06
1.50132e-06
9.90406e-07
1.50752e-06
1.46854e-06
1.34273e-06
1.09473e-06
4.43735e-07
7.64007e-07
1.13385e-06
7.41965e-07
1.35209e-06
1.4815e-06
1.11152e-06
1.52264e-06
1.02286e-06
1.51157e-06
9.89551e-07
1.47744e-06
1.36076e-06
1.11314e-06
4.55086e-07
7.6774e-07
7.88536e-07
1.14662e-06
1.3629e-06
1.47375e-06
1.15161e-06
1.02396e-06
1.51661e-06
1.03955e-06
1.52038e-06
1.47619e-06
1.37143e-06
1.1222e-06
4.5365e-07
7.88252e-07
7.97544e-07
1.11621e-06
1.38701e-06
1.4815e-06
1.12598e-06
1.03001e-06
1.52817e-06
1.02013e-06
1.51659e-06
1.47955e-06
1.34618e-06
1.10783e-06
4.48136e-07
7.51997e-07
7.90841e-07
1.12768e-06
1.35826e-06
1.45502e-06
1.09771e-06
9.79053e-07
1.50733e-06
1.00072e-06
1.49821e-06
1.46236e-06
1.35831e-06
1.09688e-06
4.65569e-07
7.56218e-07
7.8583e-07
1.11424e-06
1.36331e-06
1.45619e-06
1.09055e-06
1.50557e-06
9.79637e-07
1.49732e-06
9.99166e-07
1.46683e-06
1.35743e-06
1.13449e-06
4.31113e-07
7.43575e-07
1.09596e-06
7.39849e-07
1.37185e-06
1.45788e-06
1.0839e-06
1.4912e-06
9.72735e-07
1.49236e-06
9.91482e-07
1.45828e-06
1.35841e-06
1.14457e-06
4.62346e-07
7.77971e-07
1.10816e-06
7.61966e-07
1.38343e-06
1.47314e-06
1.11308e-06
1.52587e-06
1.02502e-06
1.5196e-06
1.03096e-06
1.47837e-06
4.46228e-09
6.03846e-10
6.33275e-11
1.97629e-11
1.7363e-11
5.05152e-09
6.72688e-10
6.97183e-11
2.12815e-11
1.88135e-11
4.76288e-09
6.17282e-10
6.40474e-11
1.97866e-11
1.73668e-11
5.33163e-09
7.00322e-10
7.15725e-11
2.13238e-11
1.88365e-11
5.20901e-09
6.82764e-10
7.11437e-11
2.13694e-11
1.8842e-11
5.30626e-09
7.04432e-10
7.25489e-11
2.14007e-11
1.88345e-11
4.52052e-09
6.04839e-10
6.33165e-11
1.97421e-11
1.73592e-11
5.12964e-09
6.90519e-10
7.13184e-11
2.13218e-11
1.8829e-11
4.75278e-09
6.43471e-10
6.67757e-11
1.98485e-11
1.73586e-11
4.56502e-09
6.11435e-10
6.38192e-11
1.97553e-11
1.73743e-11
4.35634e-09
5.87054e-10
6.21479e-11
1.97239e-11
1.73794e-11
5.14091e-09
6.71523e-10
6.97661e-11
2.13123e-11
1.88388e-11
4.34056e-09
5.85851e-10
6.29902e-11
1.9746e-11
1.7354e-11
4.32522e-09
5.83148e-10
6.18773e-11
1.9677e-11
1.73507e-11
4.98205e-09
6.52285e-10
6.88208e-11
2.12728e-11
1.88272e-11
4.961e-09
6.57457e-10
6.85258e-11
2.12289e-11
1.88204e-11
5.1562e-09
6.89441e-10
7.08284e-11
2.13781e-11
1.89028e-11
4.57948e-09
6.12711e-10
6.42947e-11
1.97968e-11
1.73977e-11
5.14944e-09
6.79511e-10
7.11902e-11
2.14023e-11
1.88658e-11
4.82456e-09
6.52725e-10
6.73862e-11
2.0409e-11
1.79822e-11
4.94355e-09
6.68195e-10
6.97995e-11
2.0874e-11
1.83347e-11
5.43228e-09
7.06503e-10
7.21922e-11
2.14198e-11
1.89069e-11
4.68904e-09
6.21203e-10
6.4136e-11
1.98053e-11
1.73947e-11
4.63663e-09
6.22842e-10
6.4379e-11
1.97795e-11
1.7366e-11
5.43725e-09
7.04041e-10
7.19197e-11
2.13666e-11
1.887e-11
5.30723e-09
7.06589e-10
7.23073e-11
2.13594e-11
1.88378e-11
4.64956e-09
6.24641e-10
6.5017e-11
1.98463e-11
1.74292e-11
4.86147e-09
6.31518e-10
6.47828e-11
1.98688e-11
1.7465e-11
4.60854e-09
6.21009e-10
6.42984e-11
1.97849e-11
1.742e-11
4.68138e-09
6.26822e-10
6.515e-11
1.99012e-11
1.74701e-11
5.21849e-09
6.81404e-10
7.01148e-11
2.10938e-11
1.8611e-11
4.92444e-09
6.51278e-10
6.78146e-11
2.09845e-11
1.85976e-11
5.38718e-09
7.0104e-10
7.14615e-11
2.11268e-11
1.8642e-11
4.89495e-09
6.46215e-10
6.74706e-11
2.09974e-11
1.86292e-11
4.99689e-09
6.68125e-10
7.00518e-11
2.13036e-11
1.88638e-11
5.11294e-09
6.95326e-10
7.1573e-11
2.1359e-11
1.88595e-11
5.24816e-09
7.02814e-10
7.11587e-11
2.13005e-11
1.88294e-11
4.586e-09
6.08641e-10
6.36325e-11
1.98034e-11
1.73927e-11
4.86759e-09
6.48797e-10
6.71565e-11
1.99293e-11
1.7444e-11
4.96591e-09
6.54078e-10
6.75737e-11
1.99049e-11
1.74594e-11
5.40289e-09
7.16758e-10
7.24072e-11
2.11252e-11
1.8615e-11
5.27437e-09
6.95392e-10
7.06486e-11
2.10717e-11
1.8644e-11
5.37336e-09
7.0028e-10
7.17642e-11
2.14238e-11
1.88882e-11
4.75532e-09
6.40264e-10
6.72331e-11
2.04307e-11
1.79872e-11
4.85389e-09
6.54608e-10
6.86649e-11
2.0832e-11
1.83319e-11
5.51098e-09
7.21399e-10
7.40348e-11
2.14979e-11
1.8907e-11
4.85796e-09
6.51394e-10
6.70831e-11
1.98729e-11
1.7402e-11
4.98318e-09
6.57951e-10
6.75753e-11
1.98679e-11
1.73645e-11
4.79777e-09
6.22159e-10
6.4227e-11
1.97629e-11
1.73924e-11
5.45298e-09
7.19928e-10
7.35921e-11
2.14638e-11
1.892e-11
4.52263e-09
6.00215e-10
6.29889e-11
1.97535e-11
1.74035e-11
4.88092e-09
6.37222e-10
6.51785e-11
1.98713e-11
1.74376e-11
4.84164e-09
6.31192e-10
6.53419e-11
1.98931e-11
1.74779e-11
5.47216e-09
7.31422e-10
7.44518e-11
2.1231e-11
1.86176e-11
4.98854e-09
6.67956e-10
6.96455e-11
2.13109e-11
1.88609e-11
5.00751e-09
6.70217e-10
6.9691e-11
2.13131e-11
1.88948e-11
4.36872e-09
5.96271e-10
6.27668e-11
1.97211e-11
1.73923e-11
4.95453e-09
6.67007e-10
6.9883e-11
2.13406e-11
1.89013e-11
4.43159e-09
5.94529e-10
6.26841e-11
1.97296e-11
1.73877e-11
5.07874e-09
6.59727e-10
6.90187e-11
2.12684e-11
1.88598e-11
5.00385e-09
6.63784e-10
6.88998e-11
2.12253e-11
1.88435e-11
5.14404e-09
6.94576e-10
7.15175e-11
2.13393e-11
1.89024e-11
5.50347e-09
7.2363e-10
7.35517e-11
2.15233e-11
1.89276e-11
4.67283e-09
6.35027e-10
6.64009e-11
2.0377e-11
1.79968e-11
5.0253e-09
6.69336e-10
6.99366e-11
2.08696e-11
1.83222e-11
4.93797e-09
6.67982e-10
6.95677e-11
2.08232e-11
1.83401e-11
4.69375e-09
6.40122e-10
6.69308e-11
2.03912e-11
1.79662e-11
5.24321e-09
6.8733e-10
7.06079e-11
2.13323e-11
1.8862e-11
4.73657e-09
6.2503e-10
6.5113e-11
1.98478e-11
1.74355e-11
4.88693e-09
6.33198e-10
6.58524e-11
1.99358e-11
1.74738e-11
5.10491e-09
6.72448e-10
6.92045e-11
2.10546e-11
1.8619e-11
5.15978e-09
6.79088e-10
6.97172e-11
2.10872e-11
1.86465e-11
5.24937e-09
6.99275e-10
7.2073e-11
2.1398e-11
1.8873e-11
4.8076e-09
6.53818e-10
6.8515e-11
2.05104e-11
1.80231e-11
4.87917e-09
6.57992e-10
6.87251e-11
2.08387e-11
1.83268e-11
4.90543e-09
6.57058e-10
6.91385e-11
2.08901e-11
1.83672e-11
4.82335e-09
6.57462e-10
6.91209e-11
2.05438e-11
1.79947e-11
5.3689e-09
7.14235e-10
7.28592e-11
2.14363e-11
1.88745e-11
4.69687e-09
6.28711e-10
6.46558e-11
1.98075e-11
1.74313e-11
4.71302e-09
6.27757e-10
6.48611e-11
1.9892e-11
1.74757e-11
5.45313e-09
7.26223e-10
7.31472e-11
2.11197e-11
1.86055e-11
5.36684e-09
7.0948e-10
7.15932e-11
2.11317e-11
1.864e-11
4.62049e-09
6.17321e-10
6.452e-11
1.98156e-11
1.74345e-11
4.68685e-09
6.21469e-10
6.42866e-11
1.98143e-11
1.74618e-11
5.04338e-09
6.73878e-10
6.9953e-11
2.10801e-11
1.86043e-11
5.24812e-09
6.83005e-10
7.02895e-11
2.10945e-11
1.86363e-11
4.79327e-09
6.36208e-10
6.64933e-11
1.99097e-11
1.74383e-11
4.78255e-09
6.37911e-10
6.60269e-11
1.98947e-11
1.74654e-11
4.85805e-09
6.53995e-10
6.83068e-11
2.10549e-11
1.86082e-11
5.01117e-09
6.60205e-10
6.89668e-11
2.11236e-11
1.86457e-11
4.87248e-09
6.3944e-10
6.63215e-11
2.03718e-11
1.79959e-11
5.01801e-09
6.70549e-10
6.94349e-11
2.08153e-11
1.83176e-11
4.9765e-09
6.7477e-10
6.89591e-11
2.07798e-11
1.8348e-11
4.91621e-09
6.52751e-10
6.73405e-11
2.03701e-11
1.79703e-11
5.30419e-09
6.9336e-10
7.12957e-11
2.13339e-11
1.88576e-11
4.77671e-09
6.48734e-10
6.76733e-11
2.04725e-11
1.80205e-11
4.954e-09
6.6047e-10
6.85582e-11
2.08072e-11
1.83331e-11
4.7558e-09
6.51003e-10
6.81785e-11
2.08187e-11
1.83644e-11
4.92623e-09
6.57468e-10
6.8046e-11
2.04645e-11
1.79855e-11
5.45783e-09
7.26822e-10
7.40849e-11
2.145e-11
1.88676e-11
5.21361e-09
7.00838e-10
7.29713e-11
2.14355e-11
1.88664e-11
5.54707e-09
7.17613e-10
7.28092e-11
2.14224e-11
1.88663e-11
5.16199e-09
6.78696e-10
6.92041e-11
2.0494e-11
1.80062e-11
4.81265e-09
6.38004e-10
6.66133e-11
2.07414e-11
1.83198e-11
4.96135e-09
6.50008e-10
6.77001e-11
2.07718e-11
1.83516e-11
4.98175e-09
6.71195e-10
6.89037e-11
2.0483e-11
1.79865e-11
4.72952e-09
6.30954e-10
6.59233e-11
2.0388e-11
1.80007e-11
4.85386e-09
6.48744e-10
6.8624e-11
2.08153e-11
1.83243e-11
4.82691e-09
6.50349e-10
6.86246e-11
2.08122e-11
1.83535e-11
4.61494e-09
6.23845e-10
6.54772e-11
2.0333e-11
1.79722e-11
5.42257e-09
7.06036e-10
7.26582e-11
2.13672e-11
1.88651e-11
5.44248e-09
7.33518e-10
7.42858e-11
2.12409e-11
1.86525e-11
5.01123e-09
6.71385e-10
7.08071e-11
2.13461e-11
1.88647e-11
4.53741e-09
6.20987e-10
6.62936e-11
2.0431e-11
1.80005e-11
4.86303e-09
6.50146e-10
6.80346e-11
2.07971e-11
1.83215e-11
4.77484e-09
6.4341e-10
6.75805e-11
2.07814e-11
1.83353e-11
4.52583e-09
6.13064e-10
6.57597e-11
2.03857e-11
1.79637e-11
4.95297e-09
6.62089e-10
6.96873e-11
2.13371e-11
1.88694e-11
4.89586e-09
6.59829e-10
6.74222e-11
2.04211e-11
1.80054e-11
4.97909e-09
6.77819e-10
7.01499e-11
2.07916e-11
1.83112e-11
5.07634e-09
6.75771e-10
6.92511e-11
2.07787e-11
1.83413e-11
4.85081e-09
6.60738e-10
6.80328e-11
2.03937e-11
1.79618e-11
1.59665e-06
1.53977e-06
1.58311e-06
1.56706e-06
3.9969e-07
1.60956e-06
1.09008e-06
7.11707e-08
3.98675e-07
1.60616e-06
4.67093e-07
1.06902e-06
2.97345e-08
1.9038e-07
4.39891e-08
3.89981e-07
3.2729e-07
5.3296e-08
3.35107e-07
5.31711e-08
4.28156e-08
2.66167e-08
6.87962e-08
1.65081e-07
1.74369e-07
2.682e-08
4.5917e-08
3.86883e-07
5.21279e-08
3.34788e-07
5.27747e-08
3.24791e-07
4.40315e-08
3.05521e-08
3.71489e-07
7.90552e-07
1.87013e-07
6.13845e-08
7.71843e-07
6.25436e-08
3.52921e-07
3.64404e-07
7.83227e-07
7.79831e-07
3.54018e-07
1.07706e-07
2.84146e-08
2.85468e-08
1.08372e-07
9.01084e-07
1.54303e-06
1.29041e-06
1.3277e-06
1.3139e-06
1.31203e-06
8.73588e-07
1.56796e-06
1.52048e-06
1.57247e-06
1.54613e-06
1.53175e-06
1.46497e-06
1.08171e-06
1.0001e-06
1.49862e-06
1.00824e-06
1.49605e-06
1.45555e-06
1.37168e-06
1.13084e-06
4.66667e-07
7.68722e-07
8.09952e-07
1.12303e-06
1.35761e-06
1.46643e-06
1.08401e-06
1.49984e-06
9.89137e-07
1.51585e-06
1.00905e-06
1.46379e-06
1.3589e-06
1.10252e-06
1.12577e-06
1.34147e-06
1.54621e-06
1.58749e-06
1.58354e-06
1.58731e-06
3.05258e-08
2.91812e-08
1.85788e-07
1.86873e-07
6.84764e-08
4.14305e-07
4.60158e-07
1.607e-06
1.1299e-06
6.44815e-08
4.65281e-07
2.96145e-08
3.09534e-08
3.41128e-07
7.6283e-07
1.82272e-07
6.25527e-08
6.23168e-08
7.55972e-07
3.30256e-07
3.32585e-07
7.64315e-07
1.90365e-07
6.01678e-08
6.45847e-08
7.59925e-07
3.29959e-07
9.03972e-08
2.71895e-08
2.68603e-08
2.6733e-08
2.63344e-08
9.50302e-08
2.63472e-08
6.64889e-08
1.66825e-07
1.71143e-07
2.53339e-08
4.48374e-08
4.38399e-07
5.81663e-08
3.43952e-07
5.76497e-08
3.40686e-07
4.46367e-08
2.59692e-08
6.87023e-08
1.70144e-07
1.68102e-07
2.61176e-08
8.46553e-07
1.5366e-06
1.29413e-06
1.28925e-06
1.29587e-06
1.29357e-06
8.56023e-07
1.56929e-06
1.36345e-06
1.13512e-06
4.70867e-07
7.94758e-07
1.12108e-06
7.83765e-07
1.3647e-06
1.47637e-06
1.17145e-06
1.05218e-06
1.51931e-06
1.039e-06
1.52055e-06
1.49069e-06
1.37032e-06
1.1279e-06
4.5264e-07
7.58136e-07
1.13215e-06
7.69022e-07
1.34833e-06
4.81404e-09
6.41154e-10
6.65233e-11
1.99093e-11
1.74109e-11
5.20415e-09
6.99514e-10
7.16562e-11
2.13528e-11
1.88649e-11
5.49291e-09
7.17736e-10
7.26075e-11
2.13626e-11
1.88678e-11
4.73071e-09
6.24105e-10
6.46031e-11
1.97842e-11
1.73546e-11
5.24442e-09
7.01556e-10
7.25868e-11
2.13857e-11
1.88389e-11
4.72667e-09
6.41983e-10
6.74704e-11
2.04518e-11
1.79895e-11
4.8167e-09
6.4615e-10
6.78847e-11
2.08636e-11
1.83693e-11
4.95837e-09
6.51763e-10
6.79218e-11
2.07421e-11
1.83194e-11
4.69194e-09
6.39097e-10
6.73711e-11
2.04857e-11
1.80201e-11
4.80871e-09
6.50274e-10
6.75617e-11
2.04582e-11
1.79897e-11
4.79858e-09
6.50098e-10
6.79811e-11
2.08263e-11
1.83681e-11
4.86873e-09
6.52383e-10
6.80046e-11
2.07853e-11
1.83287e-11
4.78007e-09
6.51137e-10
6.75712e-11
2.04953e-11
1.80262e-11
5.47675e-09
7.30567e-10
7.41988e-11
2.14923e-11
1.89089e-11
4.68495e-09
6.24712e-10
6.46375e-11
1.9846e-11
1.74707e-11
4.75169e-09
6.27068e-10
6.55053e-11
1.98797e-11
1.74344e-11
5.48146e-09
7.26331e-10
7.32558e-11
2.11293e-11
1.86376e-11
5.57024e-09
7.26704e-10
7.31076e-11
2.11371e-11
1.86086e-11
5.24555e-09
6.91588e-10
7.10448e-11
2.13441e-11
1.88751e-11
5.20369e-09
6.99587e-10
7.19531e-11
2.13676e-11
1.88613e-11
4.64951e-09
6.12718e-10
6.37451e-11
1.98153e-11
1.74053e-11
4.55458e-09
6.08908e-10
6.31682e-11
1.97228e-11
1.73935e-11
5.20497e-09
6.96485e-10
7.18384e-11
2.13449e-11
1.88364e-11
5.32598e-09
7.09419e-10
7.29339e-11
2.13623e-11
1.88257e-11
5.12319e-09
6.78903e-10
7.0365e-11
2.13165e-11
1.88657e-11
4.51334e-09
6.04068e-10
6.29749e-11
1.9715e-11
1.73537e-11
4.74939e-09
6.15126e-10
6.36073e-11
1.97185e-11
1.73593e-11
5.09418e-09
6.82757e-10
7.06773e-11
2.11314e-11
1.86456e-11
5.09212e-09
6.62001e-10
6.87004e-11
2.11024e-11
1.86548e-11
5.28579e-09
7.03901e-10
7.24732e-11
2.13975e-11
1.88683e-11
5.35282e-09
7.151e-10
7.32153e-11
2.14466e-11
1.89092e-11
4.55909e-09
6.07433e-10
6.34439e-11
1.98149e-11
1.74739e-11
4.77275e-09
6.29005e-10
6.4677e-11
1.97955e-11
1.74265e-11
4.63612e-09
6.32166e-10
6.5981e-11
1.98997e-11
1.74726e-11
4.77074e-09
6.37008e-10
6.60867e-11
1.98777e-11
1.74326e-11
5.09382e-09
6.6484e-10
6.87912e-11
2.10053e-11
1.86023e-11
5.04147e-09
6.68109e-10
6.92386e-11
2.10405e-11
1.8607e-11
4.75637e-09
6.40361e-10
6.66827e-11
2.0381e-11
1.79677e-11
4.93697e-09
6.6364e-10
6.90309e-11
2.08333e-11
1.83351e-11
5.01732e-09
6.68817e-10
6.92643e-11
2.08204e-11
1.83144e-11
4.68884e-09
6.37492e-10
6.6796e-11
2.04651e-11
1.8004e-11
5.07446e-09
6.80026e-10
7.03701e-11
2.1378e-11
1.89085e-11
1.53955e-06
1.58482e-06
1.59437e-06
1.57926e-06
1.5358e-06
1.53709e-06
1.53188e-06
1.58753e-06
1.59429e-06
1.52816e-06
1.58008e-06
1.5965e-06
1.58428e-06
1.52405e-06
1.59212e-06
1.66589e-07
1.73462e-07
1.54367e-06
1.75827e-07
1.82918e-07
3.70806e-07
6.47163e-08
3.82584e-07
2.85803e-08
2.79244e-08
6.5761e-08
3.68293e-07
1.59537e-06
1.6131e-06
1.60469e-06
4.35495e-07
1.62643e-06
1.58404e-06
1.0162e-06
2.83648e-08
1.63368e-06
4.1571e-07
1.06665e-06
1.67936e-07
1.77104e-07
2.70594e-08
2.7291e-08
2.86668e-08
2.8745e-08
1.54355e-06
1.66929e-07
1.73996e-07
1.77952e-07
1.83653e-07
2.86628e-08
2.75293e-08
2.88416e-08
2.89669e-08
2.84736e-08
2.89277e-08
1.76464e-07
1.71918e-07
3.64965e-07
6.1876e-08
6.24455e-08
3.87166e-07
1.05218e-06
4.4586e-07
1.6237e-06
1.60451e-06
1.09086e-06
1.04237e-06
4.32885e-07
1.61679e-06
1.59002e-06
4.18318e-07
1.62147e-06
1.06897e-06
1.75616e-07
1.76858e-07
1.5362e-06
1.75871e-07
2.90533e-08
4.14684e-07
1.62276e-06
1.06487e-06
6.33196e-08
3.61158e-07
1.62186e-06
4.17498e-07
1.03514e-06
6.67757e-08
3.56156e-07
1.62415e-06
4.06616e-07
1.01195e-06
6.62029e-08
3.49925e-07
1.64785e-07
1.7493e-07
2.81568e-08
1.6159e-06
4.39656e-07
1.0758e-06
6.24123e-08
3.76941e-07
6.3333e-08
3.81965e-07
2.77693e-08
2.83802e-08
9.83558e-08
2.70394e-08
2.59469e-08
2.65758e-08
2.66011e-08
9.37726e-08
3.34078e-07
7.04885e-07
6.00413e-08
1.73267e-07
6.37566e-08
3.62788e-07
7.37285e-07
3.26765e-07
7.28402e-07
5.77971e-08
1.8281e-07
5.94364e-08
3.31205e-07
7.70806e-07
9.69337e-08
2.68231e-08
2.58871e-08
2.7766e-08
2.71607e-08
9.75212e-08
3.55921e-07
6.18204e-08
1.72665e-07
7.17125e-07
6.34251e-08
3.45869e-07
7.11985e-07
3.36087e-07
6.05088e-08
1.75584e-07
7.17125e-07
5.80041e-08
3.30978e-07
7.25921e-07
4.27605e-08
5.39997e-08
3.12063e-07
3.89838e-07
5.4295e-08
3.13931e-07
4.32276e-08
2.56214e-08
6.56382e-08
1.7097e-07
1.65237e-07
2.60591e-08
2.54366e-08
6.42199e-08
1.59975e-07
4.65604e-08
3.9265e-07
5.31604e-08
3.36499e-07
5.40929e-08
3.20853e-07
4.51103e-08
2.85215e-08
2.85217e-08
2.50443e-08
6.45411e-08
1.54459e-07
1.54494e-07
2.49463e-08
4.25853e-08
3.85275e-07
3.04835e-07
5.18827e-08
3.0861e-07
5.41137e-08
4.46344e-08
2.90617e-08
3.294e-07
7.05817e-07
6.18223e-08
1.79917e-07
3.39157e-07
7.44967e-07
6.11802e-08
3.20182e-07
7.22192e-07
6.01179e-08
1.83078e-07
3.44201e-07
7.34285e-07
6.41726e-08
9.23103e-08
2.64548e-08
2.58431e-08
9.24674e-08
2.69224e-08
2.64088e-08
2.74675e-08
2.82747e-08
2.9407e-08
2.85868e-08
9.25988e-08
2.786e-08
2.63885e-08
9.36769e-08
2.81065e-08
2.66564e-08
3.39531e-07
7.06928e-07
6.58766e-08
1.75419e-07
3.38286e-07
6.34722e-08
7.4986e-07
3.30751e-07
7.355e-07
5.92095e-08
1.76523e-07
3.39437e-07
6.26492e-08
7.31179e-07
9.68485e-08
2.705e-08
2.67712e-08
9.83706e-08
2.69566e-08
2.7121e-08
3.37439e-07
6.43607e-08
7.541e-07
1.70283e-07
3.44961e-07
6.33344e-08
7.29471e-07
3.30349e-07
5.94139e-08
7.50678e-07
1.89956e-07
3.49474e-07
6.03559e-08
7.55089e-07
2.80243e-08
2.75572e-08
3.0297e-08
2.95848e-08
2.87568e-08
2.84801e-08
2.92594e-08
3.25796e-07
7.35044e-07
1.85288e-07
5.8258e-08
5.99627e-08
7.36429e-07
3.27479e-07
3.14786e-07
7.03519e-07
1.76326e-07
5.73762e-08
5.83689e-08
7.41201e-07
3.30217e-07
1.74098e-07
7.31859e-07
8.92009e-08
2.5783e-08
2.50361e-08
2.60764e-08
2.55255e-08
9.07124e-08
4.24948e-08
5.39759e-08
3.08122e-07
3.84703e-07
5.84232e-08
3.23774e-07
4.30359e-08
2.59257e-08
6.59595e-08
1.6271e-07
1.6833e-07
2.57662e-08
2.60841e-08
1.57421e-07
6.47655e-08
1.67365e-07
2.59584e-08
4.5173e-08
3.8322e-07
5.27923e-08
3.21232e-07
5.50143e-08
3.19589e-07
4.337e-08
9.95314e-08
2.62272e-08
2.8089e-08
2.73454e-08
3.29801e-07
7.34155e-07
1.85439e-07
5.90058e-08
6.3215e-08
7.65819e-07
3.34402e-07
3.35683e-07
7.16707e-07
1.72774e-07
5.88092e-08
7.52097e-07
5.96969e-08
3.58034e-07
3.38721e-07
5.86777e-08
1.7652e-07
7.20222e-07
6.00465e-08
7.26958e-07
3.32377e-07
3.55117e-07
1.73854e-07
7.37929e-07
5.95729e-08
1.00211e-07
2.77608e-08
2.72663e-08
2.77336e-08
2.64111e-08
9.78018e-08
2.97576e-08
3.04409e-08
2.58669e-08
6.6487e-08
1.5655e-07
1.64008e-07
2.71418e-08
4.19582e-08
3.86949e-07
4.99597e-08
2.95447e-07
5.13259e-08
3.12403e-07
4.19428e-08
4.39618e-08
3.55121e-07
3.16099e-07
5.09275e-08
2.74264e-08
6.57433e-08
1.65541e-07
1.65731e-07
2.71188e-08
2.62316e-08
6.57779e-08
1.63229e-07
4.42252e-08
3.50917e-07
3.03969e-07
4.98436e-08
3.2211e-07
5.072e-08
4.4723e-08
4.16083e-08
3.69494e-07
5.31235e-08
3.05244e-07
2.59111e-08
6.3981e-08
1.57555e-07
1.59407e-07
2.59408e-08
2.58444e-08
6.43987e-08
1.60039e-07
4.17979e-08
3.62569e-07
5.18066e-08
2.95241e-07
5.17274e-08
3.15403e-07
4.16828e-08
3.30692e-07
7.00928e-07
1.78002e-07
6.03052e-08
6.24227e-08
7.34577e-07
3.41762e-07
3.35079e-07
7.32018e-07
1.77996e-07
6.076e-08
7.33357e-07
6.47784e-08
3.34971e-07
1.02116e-07
2.74781e-08
2.77606e-08
2.78834e-08
2.85144e-08
1.06511e-07
2.81689e-08
2.53489e-08
6.23716e-08
1.57611e-07
1.60674e-07
2.55534e-08
4.39167e-08
3.92618e-07
3.08524e-07
5.23064e-08
3.18743e-07
5.37053e-08
4.62593e-08
2.55611e-08
6.53038e-08
1.63706e-07
1.66413e-07
2.5885e-08
4.26637e-08
3.88167e-07
3.18632e-07
5.34621e-08
3.25799e-07
5.31254e-08
4.35479e-08
2.77352e-08
2.75995e-08
2.8112e-08
8.32768e-07
1.2706e-06
1.25742e-06
1.53203e-06
8.58655e-07
1.27191e-06
1.28824e-06
1.56468e-06
1.57525e-06
1.56744e-06
8.39624e-07
1.2485e-06
1.26665e-06
1.53021e-06
8.63948e-07
1.27569e-06
1.26681e-06
8.39503e-07
1.54588e-06
1.25281e-06
1.28414e-06
8.48794e-07
1.25958e-06
1.28631e-06
8.0592e-07
1.24047e-06
1.23201e-06
1.53225e-06
1.26495e-06
1.26702e-06
8.0769e-07
8.23775e-07
1.26231e-06
1.24696e-06
1.53982e-06
1.26867e-06
1.29671e-06
8.48947e-07
8.31504e-07
1.24634e-06
1.2506e-06
1.54043e-06
1.27827e-06
1.27516e-06
8.47094e-07
8.56534e-07
1.53484e-06
1.2553e-06
1.2691e-06
8.57732e-07
1.28427e-06
1.26128e-06
1.5955e-06
1.61275e-06
1.58225e-06
1.59928e-06
1.58141e-06
1.61351e-06
1.5945e-06
1.56567e-06
1.5727e-06
1.35095e-06
1.09458e-06
4.56017e-07
7.42095e-07
1.09339e-06
7.61324e-07
1.35382e-06
1.36475e-06
4.36876e-07
1.09033e-06
7.51059e-07
1.45554e-06
1.04467e-06
9.61045e-07
1.47583e-06
9.99895e-07
1.4822e-06
1.46058e-06
1.33953e-06
1.0809e-06
4.29431e-07
7.30275e-07
1.0963e-06
7.59667e-07
1.34676e-06
1.46875e-06
1.1067e-06
1.5063e-06
9.71269e-07
1.51098e-06
9.89401e-07
1.46629e-06
8.37425e-07
1.54379e-06
1.27535e-06
1.29454e-06
8.69004e-07
1.27989e-06
1.30042e-06
1.4741e-06
9.66711e-07
1.50247e-06
1.06747e-06
9.79036e-07
1.50342e-06
1.45704e-06
1.37115e-06
1.07278e-06
4.4292e-07
7.52936e-07
7.64167e-07
1.09138e-06
1.36694e-06
1.34249e-06
4.34124e-07
7.51465e-07
1.09426e-06
1.4763e-06
1.1179e-06
1.01276e-06
1.51255e-06
9.94487e-07
1.50964e-06
1.47622e-06
1.45769e-06
9.57954e-07
1.4947e-06
1.07728e-06
9.93835e-07
1.50033e-06
1.46393e-06
1.34507e-06
1.08636e-06
4.47138e-07
7.47413e-07
7.69408e-07
1.12458e-06
1.36479e-06
1.34684e-06
7.21146e-07
4.4016e-07
1.07697e-06
7.2878e-07
1.35182e-06
1.0845e-06
1.46405e-06
1.08379e-06
9.90307e-07
1.51697e-06
9.91748e-07
1.51793e-06
1.46525e-06
8.34644e-07
1.53332e-06
1.26068e-06
1.27365e-06
1.27605e-06
1.2661e-06
8.34976e-07
1.32114e-06
1.05481e-06
4.36093e-07
7.12918e-07
7.26906e-07
1.08644e-06
1.32988e-06
1.44181e-06
1.09171e-06
9.58562e-07
1.5048e-06
9.85814e-07
1.49188e-06
1.45374e-06
1.33017e-06
1.07538e-06
4.34528e-07
7.12329e-07
7.45758e-07
1.09451e-06
1.33219e-06
1.44021e-06
1.07584e-06
1.48694e-06
9.4652e-07
1.49019e-06
9.82892e-07
1.45011e-06
1.34234e-06
1.05071e-06
4.33993e-07
7.07702e-07
1.08375e-06
7.54487e-07
1.33781e-06
1.45636e-06
1.06398e-06
1.48075e-06
9.3657e-07
1.49536e-06
9.70566e-07
1.44363e-06
1.34843e-06
1.08985e-06
4.55885e-07
7.5103e-07
1.10297e-06
7.60224e-07
1.3529e-06
1.46718e-06
1.09385e-06
1.50839e-06
9.73912e-07
1.5145e-06
1.0007e-06
1.47056e-06
1.56595e-06
1.58586e-06
1.56992e-06
1.52747e-06
1.57547e-06
1.58792e-06
1.5682e-06
1.52523e-06
1.58702e-06
1.59662e-06
1.58512e-06
1.52878e-06
1.6032e-06
1.58146e-06
1.57898e-06
1.53339e-06
1.58371e-06
1.58982e-06
1.57621e-06
1.52776e-06
1.58235e-06
1.59628e-06
1.57444e-06
1.54099e-06
1.58172e-06
1.5808e-06
1.58465e-06
1.52704e-06
1.58755e-06
1.59412e-06
1.58029e-06
1.53259e-06
1.58818e-06
1.58284e-06
1.58403e-06
1.52211e-06
1.58071e-06
1.58474e-06
1.58588e-06
1.5264e-06
1.59191e-06
1.58297e-06
1.58039e-06
1.52656e-06
1.58463e-06
1.58376e-06
1.58246e-06
1.52631e-06
1.57946e-06
1.58225e-06
1.58025e-06
1.52379e-06
1.58921e-06
1.59587e-06
1.58692e-06
1.53768e-06
1.59751e-06
1.58059e-06
1.58163e-06
1.53025e-06
1.5939e-06
1.59238e-06
1.58027e-06
1.53305e-06
1.58047e-06
1.58465e-06
1.53598e-06
1.5777e-06
1.59116e-06
1.58385e-06
1.58756e-06
1.53187e-06
1.57073e-06
1.5936e-06
1.53622e-06
1.53655e-06
1.52742e-06
1.5835e-06
1.58951e-06
1.59284e-06
1.5897e-06
1.5314e-06
1.53272e-06
1.57329e-06
1.58994e-06
1.57964e-06
1.57517e-06
1.58694e-06
1.59528e-06
1.58479e-06
1.5414e-06
1.52129e-06
1.60158e-06
1.56768e-06
1.59767e-06
1.5265e-06
1.53063e-06
1.5209e-06
1.58815e-06
1.59014e-06
1.58306e-06
1.58632e-06
1.53581e-06
1.54178e-06
1.58482e-06
1.57459e-06
1.57782e-06
1.5728e-06
1.58969e-06
1.5851e-06
1.57956e-06
1.53582e-06
1.52401e-06
1.59739e-06
1.57064e-06
1.59576e-06
1.54479e-06
1.52453e-06
1.52477e-06
1.58295e-06
1.58925e-06
1.59466e-06
1.58387e-06
1.53506e-06
1.53269e-06
1.57859e-06
1.57489e-06
1.57932e-06
1.58159e-06
1.57799e-06
1.58257e-06
1.57658e-06
1.54446e-06
1.52736e-06
1.59551e-06
1.57597e-06
1.59815e-06
1.53726e-06
1.535e-06
1.52114e-06
1.58242e-06
1.57936e-06
1.59349e-06
1.58906e-06
1.52933e-06
1.53481e-06
1.58128e-06
1.5836e-06
1.57421e-06
1.59739e-06
1.58258e-06
1.58536e-06
1.57701e-06
1.53524e-06
1.52888e-06
1.58425e-06
1.57699e-06
1.59037e-06
1.53281e-06
1.51901e-06
1.52491e-06
1.58183e-06
1.58864e-06
1.5935e-06
1.59215e-06
1.52639e-06
1.52598e-06
1.58226e-06
1.58684e-06
1.58437e-06
1.59723e-06
1.58407e-06
1.58746e-06
1.58473e-06
1.53056e-06
1.5228e-06
1.58943e-06
1.57486e-06
1.59765e-06
1.5355e-06
1.53429e-06
1.53416e-06
1.59923e-06
1.59184e-06
1.59772e-06
1.59833e-06
1.53038e-06
1.53702e-06
1.58952e-06
1.59079e-06
1.58156e-06
1.58738e-06
1.5835e-06
1.59106e-06
1.57925e-06
1.53217e-06
1.52825e-06
1.59497e-06
1.57847e-06
1.58171e-06
1.53622e-06
1.52615e-06
1.52051e-06
1.58279e-06
1.58784e-06
1.58418e-06
1.59057e-06
1.53313e-06
1.53811e-06
1.5833e-06
1.58485e-06
1.57676e-06
1.58463e-06
1.58191e-06
1.59081e-06
1.5776e-06
1.53785e-06
1.52008e-06
1.58884e-06
1.57209e-06
1.58176e-06
1.5258e-06
1.52557e-06
1.52937e-06
1.57984e-06
1.58437e-06
1.58408e-06
1.58611e-06
1.53223e-06
1.54048e-06
1.57554e-06
1.58578e-06
1.57172e-06
1.58517e-06
1.57348e-06
1.58301e-06
1.57689e-06
1.52851e-06
1.52331e-06
1.58109e-06
1.57532e-06
1.59361e-06
1.52899e-06
1.526e-06
1.52923e-06
1.58396e-06
1.58373e-06
1.58536e-06
1.589e-06
1.53379e-06
1.53039e-06
1.57043e-06
1.58468e-06
1.5747e-06
1.58709e-06
1.57583e-06
1.58488e-06
1.59176e-06
1.54518e-06
1.52682e-06
1.58188e-06
1.57643e-06
1.58697e-06
1.53196e-06
1.53109e-06
1.52393e-06
1.5975e-06
1.58313e-06
1.58987e-06
1.5976e-06
1.53146e-06
1.53012e-06
1.57547e-06
1.59593e-06
1.57482e-06
1.59877e-06
1.58476e-06
1.58178e-06
1.58726e-06
1.53299e-06
1.54221e-06
1.58832e-06
1.58836e-06
1.59591e-06
1.53327e-06
1.52983e-06
1.53082e-06
1.59885e-06
1.58958e-06
1.58721e-06
1.58787e-06
1.54394e-06
1.52702e-06
1.57393e-06
1.58816e-06
1.58021e-06
1.58804e-06
1.58871e-06
1.58348e-06
1.58715e-06
1.53095e-06
1.52681e-06
1.59936e-06
1.58213e-06
1.59762e-06
1.53511e-06
1.52417e-06
1.52876e-06
1.58431e-06
1.584e-06
1.59667e-06
1.59821e-06
1.53187e-06
1.52656e-06
1.58225e-06
1.58714e-06
1.57432e-06
1.58469e-06
1.58352e-06
1.59284e-06
1.58094e-06
1.53248e-06
1.54017e-06
1.59101e-06
1.58063e-06
1.59093e-06
1.5266e-06
1.53791e-06
1.51927e-06
1.58212e-06
1.58999e-06
1.58786e-06
1.58822e-06
1.5395e-06
1.52652e-06
1.57253e-06
1.58516e-06
1.57182e-06
1.58595e-06
1.58165e-06
1.58659e-06
1.57742e-06
1.52921e-06
1.5285e-06
1.58846e-06
1.57808e-06
1.58224e-06
1.53121e-06
1.5256e-06
1.51841e-06
1.58475e-06
1.5883e-06
1.57868e-06
1.58253e-06
1.53238e-06
1.52851e-06
1.58058e-06
1.58471e-06
1.57695e-06
1.58565e-06
1.57738e-06
1.59036e-06
1.58047e-06
1.53487e-06
1.52521e-06
1.58038e-06
1.57645e-06
1.58458e-06
1.54161e-06
1.52778e-06
1.52676e-06
1.57722e-06
1.58276e-06
1.58024e-06
1.59737e-06
1.53085e-06
1.54062e-06
1.57559e-06
1.58442e-06
1.57356e-06
1.59691e-06
1.57914e-06
1.60117e-06
1.57849e-06
1.53265e-06
1.53987e-06